# vtk DataFile Version 2.0
tet_velo
ASCII
DATASET UNSTRUCTURED_GRID
POINTS 29498 float
-0.755 0.275 -1.97278
-0.595 0.315 1.90605
-0.725 0.676947 -2.085
-0.655 0.735 1.8503
0.755 0.275 -1.97278
0.595 0.325 1.90716
0.725 0.676943 -2.085
0.655 0.735 1.85029
-0.816162 0.173838 -0.679837
-0.761091 0.188909 0.613107
-0.839893 0.834524 -0.773234
-0.832128 0.869443 0.538533
0.808951 0.184382 -0.679467
0.779043 0.177624 0.613847
0.839889 0.834518 -0.773237
0.832125 0.869439 0.538527
-1.56522 -0.0513033 -2.96929
-1.56632 -0.037671 -1.92735
-1.59695 -0.105726 -0.634865
-1.53498 -0.104941 0.653821
-1.40549 -0.0195279 1.94599
-1.37475 0.00997155 2.98636
-1.38625 0.0125424 4.02965
-1.55929 0.216802 -3.0187
-1.56142 0.258357 -1.9747
-1.61378 0.204275 -0.678602
-1.5329 0.193734 0.615776
-1.35378 0.250319 1.91151
-1.33857 0.276216 2.95215
-1.36677 0.281899 3.99482
-1.54659 0.705379 -3.12274
-1.54656 0.747457 -2.07949
-1.63216 0.83668 -0.770568
-1.58481 0.839123 0.539656
-1.40308 0.756298 1.84819
-1.36603 0.779833 2.88787
-1.38063 0.808127 3.92742
-1.54742 1.55989 -3.26486
-1.55382 1.61849 -2.21883
-1.58589 1.71577 -0.90382
-1.593 1.74619 0.415189
-1.54779 1.69793 1.72994
-1.50235 1.67085 2.77544
-1.47355 1.67155 3.81702
-0.782714 -0.044158 -2.96803
-0.767086 -0.0266756 -1.9255
-0.802409 -0.121705 -0.634965
-0.778709 -0.108363 0.65167
-0.693916 0.0197735 1.94211
-0.665099 0.0365907 2.98379
-0.669474 0.0260406 4.02824
-0.781166 0.216393 -3.01828
-0.626181 0.30075 2.95001
-0.650935 0.292949 3.99378
-0.76902 0.677293 -3.12501
-0.646736 0.776652 2.88837
-0.659732 0.807928 3.92764
-0.758452 1.54269 -3.26709
-0.756275 1.60327 -2.22129
-0.787301 1.71625 -0.905274
-0.816225 1.75362 0.415451
-0.799962 1.69582 1.73134
-0.763083 1.66495 2.77685
-0.735123 1.6667 3.81809
0.760611 -0.0429325 -2.96795
0.781235 -0.0244843 -1.9254
0.798299 -0.115936 -0.634617
0.745653 -0.113646 0.652316
0.630901 0.0231398 1.94298
0.683033 0.0393934 2.98447
0.729201 0.027311 4.02876
0.745868 0.217064 -3.01823
0.688838 0.304471 2.95067
0.735879 0.294365 3.99428
0.742807 0.677655 -3.12498
0.70748 0.77779 2.88867
0.742402 0.808631 3.92801
0.804715 1.54329 -3.26701
0.821072 1.6038 -2.22122
0.815247 1.71664 -0.905187
0.76266 1.75357 0.415564
0.710763 1.69546 1.7315
0.71431 1.66468 2.77706
0.735265 1.66657 3.81835
1.54113 -0.0485409 -2.96909
1.56349 -0.0331673 -1.92709
1.59079 -0.0988372 -0.634274
1.52486 -0.109906 0.654851
1.38822 -0.0184972 1.94731
1.39922 0.0127833 2.98754
1.44442 0.0142425 4.03063
1.52804 0.218766 -3.01856
1.55078 0.261254 -1.97455
1.6072 0.212822 -0.678105
1.55116 0.186838 0.616725
1.37551 0.252272 1.91279
1.39447 0.279692 2.95326
1.44563 0.283744 3.99576
1.526 0.706558 -3.12265
1.54308 0.74839 -2.07943
1.63222 0.839714 -0.770392
1.59364 0.837394 0.539997
1.42089 0.75455 1.84867
1.41933 0.780695 2.88853
1.45722 0.808971 3.92814
1.58584 1.56119 -3.26468
1.60451 1.61968 -2.21866
1.60769 1.71666 -0.903616
1.5542 1.7461 0.415457
1.48323 1.69718 1.73029
1.46749 1.67026 2.77588
1.47905 1.67124 3.81755
-0.750903 0.475974 -2.03979
0 0.247164 -2.00062
-0.814456 0.195544 -1.32631
-0.654527 0.525 1.9077
0 0.290276 1.93633
-0.740876 0.189124 1.25958
0 0.670908 -2.07896
-0.837677 0.810966 -1.42912
0 0.787391 1.90269
-0.804472 0.86313 1.19442
0.750923 0.475972 -2.03981
0.816546 0.19512 -1.32612
0.654249 0.53 1.90797
0.736683 0.201651 1.2605
0.837707 0.810993 -1.42912
0.804475 0.863132 1.19441
-0.791181 0.178819 -0.033365
-0.850502 0.504181 -0.726535
-0.00360554 0.171369 -0.679652
-0.867652 0.529176 0.57582
0.00897601 0.170994 0.613477
-0.837083 0.853057 -0.11735
-1.77017e-06 0.903623 -0.773235
-1.41719e-06 1.34705 0.53853
0.791415 0.183585 -0.03281
0.849555 0.50945 -0.726352
0.867711 0.523532 0.576187
0.837502 0.853474 -0.117355
-0.867615 0.490077 -1.37771
-0.868813 0.516679 -0.0753575
-0.845463 0.527088 1.227
-0.00180277 0.171114 -1.32622
0.00268524 0.171357 -0.0330875
0.00448801 0.177002 1.26004
0 0.475973 -2.10009
0 0.5275 2.11984
-8.85084e-07 0.829088 -1.42912
-1.59368e-06 1.3008 -0.117353
-7.08594e-07 1.03921 1.19441
0.869157 0.492711 -1.37762
0.868813 0.516491 -0.0750825
0.845179 0.526766 1.22746
-1.15821 0.266678 -1.97374
-0.761043 0.124162 -1.94914
-0.768083 0.245697 -2.49553
-0.974391 0.282659 1.90878
-0.644458 0.167387 1.92408
-0.61059 0.307875 2.42803
-1.13578 0.712202 -2.08225
-0.74701 0.67712 -2.60501
-0.740638 1.14011 -2.15314
-1.02904 0.745649 1.84925
-0.650868 0.755826 2.36933
-0.727481 1.21541 1.79082
0.768118 0.125258 -1.94909
0.750434 0.246032 -2.49551
1.15289 0.268127 -1.97367
0.61295 0.17407 1.92507
0.641919 0.314736 2.42891
0.985253 0.288636 1.90998
0.733904 0.677299 -2.60499
0.773036 1.14037 -2.15311
1.13404 0.712667 -2.08221
0.68124 0.756395 2.36948
0.682882 1.21523 1.79089
1.03794 0.744775 1.84948
-1.21497 0.189056 -0.679219
-0.809286 0.0260666 -0.657401
-1.14699 0.191321 0.614442
-0.7699 0.0402729 0.632388
-1.23603 0.835602 -0.771901
-0.813597 1.27539 -0.839254
-1.20847 0.854283 0.539095
-0.824176 1.31153 0.476992
0.803625 0.0342234 -0.657042
1.20807 0.198602 -0.678786
0.762348 0.0319889 0.633081
1.1651 0.182231 0.615286
0.827568 1.27558 -0.839212
1.23605 0.837116 -0.771815
0.797392 1.3115 0.477045
1.21288 0.853416 0.539262
-1.56577 -0.0444871 -2.44832
-1.56226 0.0827494 -2.99399
-1.17397 -0.0477307 -2.96866
-1.58164 -0.0716983 -1.28111
-1.56387 0.110343 -1.95102
-1.1667 -0.0321733 -1.92643
-1.56596 -0.105333 0.00947784
-1.60536 0.0492747 -0.656734
-1.19968 -0.113715 -0.634915
-1.47024 -0.0622346 1.2999
-1.53394 0.0443962 0.634799
-1.15684 -0.106652 0.652745
-1.39012 -0.00477816 2.46618
-1.37964 0.115395 1.92875
-1.0497 0.000122835 1.94405
-1.3805 0.011257 3.50801
-1.35666 0.143094 2.96926
-1.01992 0.0232811 2.98508
-1.37651 0.14722 4.01224
-1.02786 0.0192915 4.02894
-1.56036 0.237579 -2.4967
-1.55294 0.46109 -3.07072
-1.17023 0.216598 -3.01849
-1.5876 0.231316 -1.32665
-1.55399 0.502907 -2.0271
-1.57334 0.199004 -0.0314128
-1.62297 0.520477 -0.724585
-1.44334 0.222026 1.26364
-1.55885 0.516428 0.577716
-1.34617 0.263267 2.43183
-1.37843 0.503309 1.87985
-1.35267 0.279057 3.47348
-1.3523 0.528025 2.92001
-0.982373 0.288483 2.95108
-1.3737 0.545013 3.96112
-1.00885 0.287424 3.9943
-1.54657 0.726418 -2.60112
-1.54701 1.13263 -3.1938
-1.1578 0.691336 -3.12388
-1.58936 0.792068 -1.42503
-1.55019 1.18297 -2.14916
-1.60848 0.837901 -0.115456
-1.60903 1.27622 -0.837194
-1.49394 0.797711 1.19393
-1.5889 1.29265 0.477423
-1.38456 0.768066 2.36803
-1.47544 1.22711 1.78907
-1.37333 0.79398 3.40765
-1.43419 1.22534 2.83166
-1.00638 0.778243 2.88812
-1.42709 1.23984 3.87222
-1.02018 0.808027 3.92753
-1.55062 1.58919 -2.74184
-1.15294 1.55129 -3.26597
-1.56985 1.66713 -1.56132
-1.15505 1.61088 -2.22006
-1.58944 1.73098 -0.244315
-1.18659 1.71601 -0.904547
-1.57039 1.72206 1.07257
-1.20461 1.7499 0.41532
-1.52507 1.68439 2.25269
-1.17388 1.69687 1.73064
-1.48795 1.6712 3.29623
-1.13272 1.6679 2.77615
-1.10434 1.66913 3.81756
-0.7749 -0.0354168 -2.44677
-0.78194 0.0861176 -2.99316
-0.0110516 -0.0435453 -2.96799
-0.784748 -0.0741901 -1.28023
0.00707466 -0.0255799 -1.92545
-0.790559 -0.115034 0.00835212
-0.00205501 -0.11882 -0.634791
-0.736312 -0.0442949 1.29689
-0.0165281 -0.111005 0.651993
-0.679507 0.0281821 2.46295
-0.0315075 0.0214567 1.94254
-0.667286 0.0313156 3.50602
-0.64564 0.168671 2.9669
0.00896712 0.037992 2.98413
-0.660205 0.159495 4.01101
0.0298635 0.0266758 4.0285
-0.775093 0.446843 -3.07165
-0.0176488 0.216729 -3.01826
-0.638558 0.29685 3.4719
-0.636458 0.538701 2.91919
0.0313288 0.302611 2.95034
-0.655334 0.550438 3.96071
0.0424718 0.293657 3.99403
-0.763736 1.10999 -3.19605
-0.0131062 0.677474 -3.125
-0.653234 0.79229 3.408
-0.704909 1.2208 2.83261
0.0303721 0.777221 2.88852
-0.697427 1.23732 3.87287
0.0413349 0.80828 3.92782
-0.757364 1.57298 -2.74419
0.0231313 1.54299 -3.26705
-0.771788 1.65976 -1.56328
0.0323986 1.60353 -2.22125
-0.801763 1.73493 -0.244911
0.0139728 1.71644 -0.90523
-0.808093 1.72472 1.0734
-0.0267826 1.75359 0.415508
-0.781522 1.68039 2.2541
-0.0445994 1.69564 1.73142
-0.749103 1.66583 3.29747
-0.0243865 1.66482 2.77696
7.12578e-05 1.66664 3.81822
0.770923 -0.0337084 -2.44667
0.75324 0.087066 -2.99309
1.15087 -0.0457367 -2.96852
0.789767 -0.0702099 -1.28001
1.17236 -0.0288258 -1.92625
0.771976 -0.114791 0.00884935
1.19455 -0.107386 -0.634446
0.688277 -0.0452531 1.29765
1.13526 -0.111776 0.653583
0.656967 0.0312666 2.46373
1.00956 0.0023213 1.94514
0.706117 0.0333522 3.50662
0.685936 0.171932 2.96757
1.04113 0.0260883 2.98601
0.73254 0.160838 4.01152
1.08681 0.0207767 4.0297
0.744338 0.44736 -3.07161
1.13695 0.217915 -3.0184
0.712359 0.299418 3.47247
0.698159 0.541131 2.91967
1.04165 0.292082 2.95196
0.73914 0.551498 3.96114
1.09075 0.289054 3.99502
0.773761 1.11047 -3.196
1.1344 0.692107 -3.12381
0.724941 0.793211 3.40834
0.710895 1.22123 2.83286
1.0634 0.779242 2.8886
0.738833 1.2376 3.87318
1.09981 0.808801 3.92807
0.812894 1.57355 -2.74411
1.19528 1.55224 -3.26585
0.818159 1.66022 -1.5632
1.21279 1.61174 -2.21994
0.788953 1.7351 -0.244812
1.21147 1.71665 -0.904401
0.736711 1.72451 1.07353
1.15843 1.74983 0.415511
0.712537 1.68007 2.25428
1.097 1.69632 1.73089
0.724788 1.66562 3.2977
1.0909 1.66747 2.77647
1.10716 1.66891 3.81795
1.55231 -0.0408541 -2.44809
1.53458 0.0851126 -2.99382
1.57714 -0.0660023 -1.28068
1.55713 0.114043 -1.95082
1.55783 -0.104372 0.0102883
1.599 0.0569925 -0.65619
1.45654 -0.0642018 1.30108
1.53801 0.0384658 0.635788
1.39372 -0.00285698 2.46742
1.38186 0.116887 1.93005
1.42182 0.0135129 3.50909
1.39685 0.146238 2.9704
1.44502 0.148993 4.0132
1.53941 0.24001 -2.49656
1.52702 0.462662 -3.0706
1.57899 0.237038 -1.32633
1.54693 0.504822 -2.02699
1.57918 0.19983 -0.0306903
1.61971 0.526268 -0.724249
1.46333 0.219555 1.26476
1.5724 0.512116 0.578361
1.38499 0.265982 2.43303
1.3982 0.503411 1.88073
1.42005 0.281718 3.47451
1.4069 0.530193 2.9209
1.45143 0.546357 3.96195
1.53454 0.727474 -2.60104
1.55592 1.13388 -3.19366
1.58765 0.794052 -1.42491
1.57379 1.18404 -2.14904
[...]
POINT_DATA 29498
VECTORS point_vectors float
-1.75933 -1.64842 3.08472
0.104326 0.0355685 0.201662
-2.21476 2.6987 2.77292
-0.0826035 -0.0740434 0.0336369
1.75654 -1.63187 3.06766
-0.110081 0.0373884 0.224335
2.18674 2.66284 2.73883
0.081816 -0.0737035 0.0343534
0.0989152 -0.0730762 1.35004
-0.000297517 0.000407959 0.00730679
-0.063584 -0.0689465 0.305595
0.161748 0.163997 0.829646
-0.174322 -0.0676079 1.31608
0.0142628 0.0331271 1.10749
0.0639593 -0.0695889 0.304661
-0.163799 0.16256 0.81772
-0.650043 -0.235126 19.8443
-1.23958 -0.54037 20.4838
-0.498675 -0.362272 21.2414
0.0889534 -0.126575 21.4889
0.885871 0.1878 21.451
1.24338 0.285237 21.0569
1.10384 0.179749 20.448
-0.66828 -0.12884 19.7739
-1.55176 -0.367098 20.3976
-0.634304 -0.370039 21.2611
0.077785 -0.272374 21.5643
1.15083 -0.068826 21.5249
1.44607 0.0200149 21.0504
1.36461 0.169467 20.4879
-0.616622 0.0595568 19.7271
-1.61124 0.146127 20.1954
-1.01948 -0.206635 21.1255
-0.319495 -0.434443 21.5668
0.774295 -0.802339 21.5093
1.14792 -0.789824 21.1843
0.970599 -0.513744 21.1138
-0.382064 0.242925 19.9015
-0.781325 0.502425 20.1385
-0.892772 0.383039 20.8091
-0.578282 0.030312 21.3228
-0.122848 -0.342642 21.339
0.157196 -0.534565 21.127
0.361905 -0.644736 20.6391
-0.694314 -0.599381 19.1585
-2.81598 -3.77704 20.6885
-0.597298 -0.482326 21.5573
0.179525 0.148544 20.1825
1.16111 1.39418 16.3531
1.63089 1.7516 17.5718
0.997931 1.35149 19.3686
-0.757903 -0.36219 18.932
2.4614 1.18604 11.6332
2.24223 1.11187 14.6337
-0.671865 0.142284 18.9813
0.968492 -1.04559 4.02734
1.44117 -0.504594 8.9132
-0.318451 0.431231 19.5883
-0.82388 1.35893 19.7199
-1.21354 1.38163 20.646
-1.00327 0.652584 21.7848
-0.444946 -0.235624 21.5901
-0.138273 -0.753304 21.2349
-0.049658 -0.740174 19.6878
0.685685 -0.609226 19.1338
2.83707 -3.69389 20.7007
0.590333 -0.439156 21.4979
-0.15001 0.0933792 19.9828
-1.02701 1.38524 15.346
-1.67773 1.74465 17.7723
-1.01681 1.18914 19.6243
0.74142 -0.378155 18.8947
-2.6074 1.09287 12.6806
-2.27081 0.889658 15.1428
0.649583 0.144553 18.9513
-1.08077 -1.01433 5.86925
-1.59851 -0.558615 11.2519
0.333183 0.416035 19.6096
0.872504 1.28147 19.7548
1.22624 1.32779 20.6589
1.01625 0.734909 21.8371
0.497775 -0.171547 21.6765
0.182648 -0.734086 21.2595
0.0496132 -0.739762 19.6781
0.6582 -0.242416 19.836
1.24634 -0.548531 20.4944
0.500508 -0.366775 21.2391
-0.0824869 -0.127444 21.4889
-0.899826 0.201864 21.4624
-1.20152 0.259432 21.071
-1.1103 0.150835 20.3213
0.68986 -0.134989 19.7497
1.57439 -0.375819 20.4074
0.631598 -0.376997 21.2692
-0.0648054 -0.269749 21.5485
-1.10243 -0.0855401 21.5384
-1.3505 -0.0363817 21.0609
-1.34701 0.105524 20.35
0.620204 0.0624421 19.7239
1.61091 0.148934 20.2014
1.01692 -0.208316 21.127
0.316747 -0.432267 21.5622
-0.759345 -0.772254 21.523
-1.08566 -0.728342 21.1731
-0.845196 -0.475522 21.0452
0.376924 0.237228 19.917
0.767153 0.470863 20.1599
0.876502 0.368792 20.8095
0.604875 0.0410001 21.3406
0.141485 -0.353494 21.3619
-0.149294 -0.540594 21.1304
-0.356698 -0.652218 20.6642
-1.76329 -0.234185 1.38646
0.000697285 -0.539016 1.24101
0.0754872 -0.0330017 1.22296
0.0325859 -0.0401206 0.0624149
0.000889965 0.00987708 0.0393872
0.0770984 0.037307 0.876061
3.86985e-05 0.338412 0.406545
-0.22257 -0.142655 1.47741
0.000337563 0.00519448 -0.0105915
0.00680518 -0.0204895 0.315846
1.73911 -0.231351 1.3671
-0.0788348 -0.0386101 1.09995
-0.0284462 -0.0459094 0.0475833
-0.0474348 0.0145933 0.560944
0.223233 -0.145295 1.48207
-0.00682512 -0.0203577 0.315405
0.0230321 -0.00603047 0.268253
-0.0112899 -0.0403037 0.29334
1.42194e-07 6.23638e-07 -0.00019989
0 0 0
-8.89008e-06 -2.081e-06 0.00263489
-0.0287839 0.0214068 1.19383
1.58182e-05 0.000332335 0.0030705
8.51651e-05 -0.00635456 0.0603205
-0.0532251 -0.0188879 0.643635
0.0148028 -0.0429845 0.291185
0 0 0
0.0300099 0.00274814 0.728288
-0.00299807 -0.00971156 0.0848293
5.17704e-06 -0.000171715 0.0140045
0.01352 0.000501149 0.216967
1.62804e-07 -3.24561e-06 0.000157233
-2.25674e-06 -1.12023e-06 0.000929979
0 0 0
-0.0349495 -0.270716 0.032741
0.000493894 -0.0190903 0.00199011
-9.989e-05 0.0144427 0.0736976
-0.002304 0.998805 1.63264
1.91292e-05 0.00524116 -0.0105162
0.00570039 -0.0181922 0.159732
-8.06324e-06 -0.000178378 0.0138203
-0.0137457 -0.000687453 0.215224
-3.12765 -1.03553 20.3708
-4.86297 -5.86595 20.6892
-2.09247 -1.30158 17.6056
1.98624 0.235451 15.9046
1.10512 1.13053 8.09787
1.9733 0.718265 7.10605
-3.32228 0.689969 19.6975
-1.69413 0.585098 17.6922
-1.89707 2.54061 19.0684
1.27283 -1.10074 16.0267
-0.185516 -0.797217 1.42242
-0.480862 -0.444976 12.4646
4.92116 -5.7799 20.6918
2.0768 -1.32973 17.5305
3.17886 -1.05342 20.3737
-1.01284 1.07783 7.29838
-2.09058 0.687999 7.68881
-2.00035 0.195887 16.3178
1.68557 0.593653 17.6549
1.94861 2.41565 19.1362
3.33744 0.698728 19.6951
0.0390742 -0.841701 2.33549
0.500307 -0.395895 10.5231
-1.27623 -1.10049 16.3693
-0.61786 -0.6023 21.624
0.22921 -0.284932 17.6262
0.368796 -0.297209 20.4317
0.453997 0.243887 14.2459
-1.4602 -0.578081 21.3536
-2.48462 1.4227 20.6888
-0.373515 -1.0265 21.0372
-1.59021 0.202809 21.4625
-0.270164 -0.214725 17.0696
0.586096 -0.611997 21.5816
-0.527568 0.112309 14.9066
-0.30868 -0.28323 20.8503
2.4778 1.36221 20.7001
1.46057 -0.590361 21.3514
1.60658 0.212585 21.2542
0.372158 -1.01731 21.0907
-1.00794 -0.409859 20.0123
-0.675356 -0.182695 19.8044
-0.725576 -0.383749 19.5667
-0.908192 -0.469261 21.0574
-1.3834 -0.47499 20.4484
-2.02171 -1.30374 20.5562
-0.218034 -0.261374 21.4071
-0.575299 -0.36492 21.2446
-0.499908 -0.453613 21.4924
0.450405 0.0325729 21.5806
0.0811302 -0.202999 21.5104
0.175191 -0.0213983 21.7062
1.10379 0.280485 21.253
1.02628 0.106585 21.4989
1.35673 0.74378 20.9857
1.08133 0.285181 21.0423
1.35758 0.139697 21.1004
1.60512 0.882605 20.5771
1.27966 0.169402 20.4022
1.09239 0.449101 21.2684
-1.15456 -0.245475 19.8739
-0.660718 -0.0321639 19.7125
-0.77474 -0.248856 19.425
-1.12206 -0.40055 21.0688
-1.61133 -0.113241 20.2901
-0.310432 -0.356475 21.4215
-0.825225 -0.341169 21.2056
0.580807 -0.158866 21.6791
-0.0909243 -0.405245 21.5836
1.3847 -0.00119413 21.2783
1.0714 -0.484695 21.5285
1.34274 -0.0398521 20.9315
1.54093 -0.467199 21.0648
2.39667 0.354382 18.3241
1.32975 -0.203467 20.7362
1.67044 -0.183091 20.2208
-1.10413 0.111515 19.7674
-0.522758 0.196259 19.7955
-0.709922 0.105474 19.4014
-1.39737 -0.00419575 20.8696
-1.18712 0.456949 20.1295
-0.746176 -0.370622 21.3892
-1.10658 0.14001 20.9511
0.202851 -0.594459 21.6702
-0.599017 -0.245947 21.468
1.00752 -0.871681 21.2561
0.0949664 -0.689557 21.4622
1.21465 -0.737949 21.1266
0.441041 -0.875172 21.2271
1.71967 -1.16177 17.2535
0.353347 -0.52262 21.0887
1.46469 -0.908792 17.3647
-0.575362 0.367532 19.9658
-0.394631 0.336608 19.7405
-0.903051 0.488269 20.5166
-0.929466 0.887378 19.9605
-0.828305 0.234607 21.0994
-1.15789 0.762162 20.7766
-0.332729 -0.173063 21.3663
-0.830937 0.247901 21.5211
0.03354 -0.449617 21.2661
-0.270595 -0.353649 21.4528
0.212615 -0.545874 20.9314
0.0259621 -0.693737 21.2514
0.200775 -0.837288 21.0932
-1.55666 -1.74717 18.7189
-0.747415 -0.472841 19.0122
-0.010416 -0.866736 18.6944
-1.37321 -1.20269 21.8714
0.02446 -5.3967 21.1429
-0.109381 -0.182033 20.7929
0.0085511 -0.727128 20.8352
0.633838 0.62268 18.2105
-0.0051843 -0.105254 18.1751
1.44161 1.60238 17.0071
0.0713177 1.04172 12.8129
1.67647 1.62076 18.5908
2.17994 1.70862 14.76
-0.00639567 1.74167 14.9199
1.59785 1.22259 16.9844
-0.173397 2.20887 16.4344
-0.753844 -0.0840584 18.9236
-0.0271273 -0.515547 18.3768
2.64553 1.35998 14.1551
2.17163 -0.0456986 7.09381
-0.185339 1.15908 4.95896
2.75116 0.568166 12.4667
-0.26076 2.62013 11.3367
-0.491411 0.402525 19.2833
-0.00929296 0.200845 18.5333
1.87914 -0.963644 7.14876
-0.0906881 -1.08577 12.7566
-0.0356002 1.97234 -1.54252
0.11475 -1.14907 13.7339
-0.3618 2.52354 2.938
-0.552673 0.849383 19.5112
0.0113019 0.569482 19.4337
-1.07017 1.49965 20.3355
0.0383114 1.84855 19.4764
-1.45854 1.35456 21.2343
0.0361165 2.28916 20.3341
-0.620728 0.0857918 21.703
-0.0763269 1.72429 22.3488
-0.304659 -0.470706 21.5309
-0.0994795 0.471966 19.6865
-0.13355 -0.781871 20.9959
-0.0101481 -0.1865 16.5258
0.00471159 -0.413849 15.5946
1.55689 -1.75223 18.7093
0.733138 -0.483648 18.9772
0.727762 -0.396887 19.5452
1.35631 -1.16329 21.8925
2.01811 -1.29107 20.5582
0.124337 -0.168908 20.6313
0.487468 -0.443973 21.4897
-0.588077 0.594986 17.641
-0.165608 -0.0113757 21.6886
-1.41382 1.62624 16.8021
-1.39337 0.84776 20.7724
-1.70095 1.54107 18.8436
-2.25275 1.63808 15.4828
-1.57208 0.832298 20.7172
-1.63333 1.03742 17.3082
-1.11903 0.396526 21.1202
0.734451 -0.0814303 18.8882
0.777466 -0.249245 19.3891
-2.68588 1.21929 14.5893
-2.37503 -0.190817 8.81355
-2.24789 0.272751 19.3261
-2.54869 0.214878 14.0734
-1.70068 -0.180593 20.4297
0.496319 0.399641 19.2909
0.70879 0.105614 19.3807
-2.04112 -1.27549 8.57279
0.0722066 -1.08646 12.9537
-1.68117 -1.15596 18.4245
-0.26893 -1.19695 14.9888
-1.38843 -0.956722 18.8921
0.574811 0.800313 19.5479
0.396216 0.318654 19.7525
1.09205 1.4267 20.3472
0.918515 0.812238 19.9964
1.47134 1.39446 21.2314
1.1426 0.734125 20.7812
0.641704 0.14453 21.7697
0.854415 0.27602 21.5509
0.344462 -0.436837 21.6018
0.30654 -0.339386 21.48
0.153567 -0.775704 20.8203
-0.0102325 -0.704286 21.2732
-0.209755 -0.834536 21.0748
1.01469 -0.418706 20.0235
0.695671 -0.186482 19.783
0.915893 -0.474995 21.059
1.39848 -0.481561 20.4616
0.211961 -0.261664 21.4094
0.575464 -0.369568 21.2453
-0.456268 0.0327264 21.5823
-0.0710778 -0.204924 21.4987
-1.09798 0.279571 21.2563
-1.02054 0.0991923 21.4968
-1.0264 0.200191 21.0423
-1.29518 0.0969379 21.1125
-1.28253 0.128127 20.2616
1.19472 -0.254564 19.8639
0.667614 -0.0356588 19.7022
1.12963 -0.404593 21.0849
1.62769 -0.120389 20.3006
0.303486 -0.357314 21.418
0.822738 -0.35115 21.2145
-0.560874 -0.157674 21.6732
0.09461 -0.402015 21.5791
-1.31688 -0.0341413 21.2756
-1.03564 -0.471188 21.5402
-1.175 -0.151085 21.0799
-1.41772 -0.444525 21.0982
-1.1889 -0.167029 20.8358
1.11021 0.111544 19.7663
0.522966 0.192336 19.8036
1.39376 -0.00351832 20.8754
1.16785 0.440572 20.1484
0.741313 -0.370738 21.3872
1.09408 0.136217 20.95
-0.197501 -0.57909 21.663
0.612296 -0.254638 21.4759
-0.967867 -0.806172 21.2797
-0.0828857 -0.704648 21.476
-1.13513 -0.683624 21.0602
-0.441767 -0.865599 21.2225
-0.36277 -0.512241 21.1226
0.570708 0.357669 19.9804
0.884126 0.465187 20.5208
0.834727 0.23647 21.1016
0.35415 -0.176917 21.3817
-0.0223039 -0.459423 21.2781
-0.207514 -0.547234 20.9345
-1.09796 -0.33769 19.944
-1.85752 -1.6628 18.1431
-1.42646 -0.861813 19.5826
-1.73957 -0.591669 19.1946
-0.769378 -0.330873 19.4621
-2.5642 -1.31613 20.4858
-1.00407 -0.446077 21.05
-0.545948 -0.625156 17.4583
-1.12114 -0.789423 21.4183
-1.47121 -0.766227 21.6143
-0.541672 -0.515212 21.5471
-0.267445 -0.310777 21.4117
0.599067 -0.130522 15.4105
-0.160954 -0.28071 21.6018
-0.159807 -0.522186 21.1841
0.299687 -0.112861 21.432
0.523772 -0.0516828 21.6352
0.667558 0.437747 11.093
0.705112 0.340211 21.4526
1.01555 -0.00397156 18.7387
1.76082 0.663914 19.0479
1.26599 0.126675 21.2705
1.82417 1.44804 12.2482
1.52156 0.850049 20.8805
2.25483 0.277024 17.53
2.00554 0.744042 19.5623
1.23694 0.13622 20.9703
2.1633 1.52608 16.5429
1.65455 0.965466 20.8714
2.17475 0.454335 19.0548
1.36938 0.124088 20.763
-1.16052 -0.0655425 19.7977
-2.00906 -0.268418 17.3567
-1.57132 0.300226 19.0592
-0.772164 -0.0533579 19.3778
-3.665 -0.224147 20.0061
-1.29564 -0.229564 20.9879
-2.11537 0.0117647 21.3274
-0.914884 -0.665075 21.495
-0.483737 -0.417151 21.4214
-1.16481 -0.990768 21.4508
0.208208 -0.692942 20.3802
0.462784 -0.421896 21.6909
0.512435 -0.928175 18.9783
1.81051 -0.586186 15.5846
1.31564 -0.491057 21.3544
1.14877 -0.557088 3.64626
1.4741 -1.24587 17.0599
2.40057 -0.564823 17.8123
1.33473 -0.486006 21.053
2.88999 0.341759 10.6646
1.77845 -1.13858 16.4281
2.02489 -0.752433 19.2594
-0.845861 0.335292 19.8378
-0.994006 1.04972 18.853
-0.646404 0.600217 19.7462
-0.558626 0.296573 19.5345
-1.72786 1.08941 19.7831
-1.22887 0.34971 20.6441
-2.24922 2.02702 20.6386
-1.09177 0.912231 20.4342
-1.70193 0.375534 20.9559
-0.973283 -0.0558554 21.2615
-3.18565 1.27101 21.3456
-1.163 0.60595 21.1899
-1.06787 -0.202518 21.811
-0.233878 -0.46844 21.5248
-0.763759 -0.314663 18.6698
-0.495475 -0.0930341 21.532
-0.274584 -0.954918 21.2602
0.307139 -0.771664 21.3406
-0.318673 -0.642566 12.3555
-0.128531 -0.523414 21.4111
0.31038 -1.17551 20.4181
0.529846 -0.857458 20.9356
0.0663582 -1.43457 14.3381
0.0798253 -0.754223 21.1185
0.441506 -0.95785 19.2369
1.85796 -1.68529 18.1065
-0.00208678 -2.85121 17.7728
-0.0230674 -2.16966 15.8049
-0.0219345 -0.693891 18.4594
0.00779565 -7.5852 21.717
0.445095 -0.627273 17.1085
0.0152662 -1.7161 21.5919
0.00328626 -0.210328 12.5774
-0.582882 -0.110186 15.3734
0.00118343 -0.347778 19.1638
-0.0199909 -0.011934 10.4648
-0.608949 0.414704 10.4212
0.0085401 0.380661 15.2627
0.0840295 0.675201 4.95922
-1.87375 1.43712 12.3372
0.0394281 1.37374 13.9992
-0.024049 0.446722 2.75033
-0.0170093 1.59956 9.87133
-2.19647 1.41239 16.8783
-0.0668796 2.15241 16.8426
-0.133535 2.32503 8.63229
-0.220168 2.34071 13.6354
1.99764 -0.279438 17.2803
-0.0148338 1.00355 16.2341
-0.014283 -0.109827 18.3823
-1.28037 -0.63437 4.39376
-0.00639766 0.682885 -1.41193
-0.203804 1.56591 0.494203
-2.78425 0.119888 12.0975
-0.2546 2.23493 -1.16956
-0.371189 3.11367 7.62567
1.00668 1.02574 18.8845
0.0193551 1.10947 19.2759
0.00207526 0.549688 18.9895
0.0366083 3.66404 18.5734
2.26074 1.92591 20.6464
0.0297121 2.18619 20.1555
0.0241142 3.26904 19.6938
3.21898 1.30971 21.3594
-0.0263892 3.38605 21.018
-0.00572497 0.221982 7.22145
0.665825 -0.242407 17.6707
-0.08901 0.884921 21.9288
-0.00883369 0.816751 -3.18459
0.336373 -0.609637 11.5682
-0.0470468 0.0598157 17.9465
0.00647068 1.55297 -4.01905
-0.136531 -1.45795 15.312
-0.00268922 -0.472538 16.721
0.150737 0.424589 0.44007
1.12484 -0.342647 19.946
1.43835 -0.877464 19.562
1.77289 -0.607953 19.1419
0.768682 -0.342804 19.4391
2.56764 -1.31261 20.4867
1.015 -0.450571 21.0589
1.11475 -0.784941 21.4286
1.47705 -0.77286 21.6427
0.517505 -0.508664 21.5476
0.261395 -0.312842 21.4128
0.156338 -0.266891 21.5902
0.145321 -0.518486 21.2256
-0.270137 -0.113982 21.4641
-0.515047 -0.0552184 21.6352
-0.720123 0.386862 21.3607
-1.01019 -0.0118218 19.126
-1.79707 0.696131 18.7969
-1.24078 0.105214 21.2728
-1.54253 0.875353 20.7836
-2.20354 0.229856 18.333
-1.95078 0.641804 19.8629
-1.12549 0.0376006 21.0381
-1.57432 0.853632 21.0659
-1.99319 0.285086 19.7491
-1.41571 0.158024 20.7914
1.18897 -0.0746162 19.7908
1.5877 0.311202 19.0285
0.778293 -0.0532299 19.3481
3.69533 -0.225467 20.0086
1.30146 -0.23559 21.0005
2.11506 0.00440575 21.3305
0.898808 -0.686826 21.4839
0.476253 -0.420305 21.4238
1.16552 -0.994613 21.4602
-0.191382 -0.677522 20.6182
-0.442586 -0.411304 21.7016
-0.508643 -0.935788 19.1331
-1.82711 -0.594025 16.1111
-1.2213 -0.462579 21.3953
-1.45153 -1.22025 17.8425
-2.30382 -0.530123 19.0895
-1.22521 -0.527633 21.1649
-1.62841 -1.04279 18.0103
-1.87551 -0.727415 20.2738
0.840245 0.328201 19.8526
0.647233 0.562988 19.7722
0.558509 0.293412 19.5401
1.69665 1.02568 19.8053
1.20952 0.338407 20.6455
1.07805 0.853631 20.4486
1.67896 0.364232 20.9543
0.977111 -0.0592429 21.2617
1.17256 0.620306 21.1916
1.10862 -0.202085 21.8341
0.23978 -0.48651 21.5375
0.51562 -0.075052 21.5636
0.323473 -0.964781 21.0799
-0.30684 -0.779146 21.3422
0.15033 -0.526768 21.4248
-0.318752 -1.17268 20.4255
-0.520862 -0.847984 20.9185
-0.0699325 -0.757144 21.1647
-0.443674 -0.925538 19.5808
-1.64097 -0.80116 19.3692
-1.28381 -0.792643 21.5141
-0.13435 -0.37594 21.5755
0.927144 0.228419 20.6225
1.96257 0.751847 19.2703
1.91389 0.745341 19.8448
-1.78804 -0.129771 19.0062
-1.92475 -0.425405 21.671
-0.415101 -0.812996 21.0056
0.915357 -0.514179 18.5504
2.13023 -0.650495 16.9488
2.46478 -0.463443 18.2069
-1.07852 0.648392 19.3925
-1.80061 0.807991 20.697
-1.72606 0.124133 21.4564
-0.564876 -0.610575 21.6483
-0.00672151 -1.08228 21.1298
0.480648 -1.20519 19.7796
-0.0128625 -2.77942 16.734
0.0105183 -0.717036 13.0257
-0.00817384 -0.0784699 10.9799
0.0121171 0.274169 7.55215
0.0243008 0.979212 7.54269
-0.0995047 2.27774 12.741
-0.0170817 -0.306523 15.5366
-0.0268169 0.320429 -0.318165
-0.253505 2.08392 1.93261
0.0145212 1.52239 18.264
0.0303198 3.49013 20.3138
-0.0408825 8.43541 18.9489
-0.0366177 0.723244 -0.253708
-0.0357495 0.317826 -4.08574
0.0129153 0.00416331 -1.34308
1.65282 -0.818264 19.349
1.28165 -0.796105 21.5341
0.118529 -0.364079 21.5475
-0.93256 0.24308 20.5402
-1.95001 0.710598 19.4518
-1.77385 0.605811 20.3892
1.8115 -0.128782 18.9614
1.92415 -0.427289 21.6874
0.408598 -0.822653 21.071
-0.919639 -0.524369 18.8797
-2.11706 -0.640648 18.0023
-2.26281 -0.388037 19.5088
1.06889 0.624868 19.4212
1.77041 0.772474 20.6967
1.74323 0.126932 21.4562
0.606144 -0.610354 21.5812
0.0173295 -1.08512 21.0579
-0.491208 -1.17735 19.9105
-3.36928 -0.957003 2.96394
-0.274015 -1.53998 1.21191
-0.0724638 -0.104489 1.51149
0.0258246 -0.0113658 0.0411303
0.0191403 0.0233159 0.114569
0.115876 0.120057 0.858549
-4.31938 0.381908 3.42807
-1.5697 7.83266 2.29487
-0.760974 -0.0110788 2.57714
0.0175885 -0.0514786 0.0552024
-0.0134833 0.00618624 -0.015341
-0.00929917 -0.0480103 0.171136
0.27723 -1.55269 1.21289
3.38347 -0.956611 2.98653
0.0724807 -0.100313 1.48325
-0.00209846 0.00342339 0.011259
-0.0338671 -0.00714702 0.0381427
-0.0940826 0.0967777 0.616394
1.58411 7.85743 2.31338
4.30826 0.379996 3.42072
0.764587 -0.0119682 2.58166
0.0138651 0.0056523 -0.0147397
-0.0187208 -0.0539863 0.057886
0.0097037 -0.0486011 0.171488
0.0608584 -0.121345 0.501291
0.0499198 -0.0136458 0.417444
0 0 0
0 0 0
0.0863874 -0.0523835 1.84472
0.00566459 -0.000943114 0.0859033
0.000660897 -0.0113612 0.495726
0 0 0
-0.135879 -0.0949246 0.759161
-0.0120807 -0.118588 0.537229
-0.216641 -0.164893 0.689589
-0.000523519 2.03431e-05 0.000663394
0.0771347 0.0535961 0.548424
0 0 0
0.135684 0.143799 0.856694
0.0313046 0.0291994 0.258533
-0.109584 -0.182381 0.739561
-0.00100729 -7.40897e-05 0.0179319
-0.0585865 -0.0120233 0.590915
-0.000332886 -0.00162142 0.0135572
-0.0646851 -0.0313116 1.93196
0 0 0
-0.0277398 -0.00673189 0.39295
0.0150897 0.0231992 0.569045
0.135788 -0.0950477 0.758384
0.000238861 8.72928e-06 0.00029969
0.00544923 -0.105281 0.447523
0.217654 -0.165661 0.684687
-0.0770357 0.053566 0.545705
-0.031811 0.029927 0.260865
-6.01586e-05 0.00177377 0.0134743
-0.141757 0.142564 0.843336
0 0 0
0 0 0
-0.00107446 -0.0178158 0.0945234
0.00497848 -2.47705 0.95412
-2.82938e-18 -2.29085e-17 2.66238e-16
0 0 0
0.00634974 -0.00374413 0.030595
-0.00178738 -0.0177985 3.8905e-05
0.000170326 0.0015967 0.00914496
0.000337987 -0.0266985 -0.00374489
0 0 0
0.00208888 0.00223216 0.0472501
0 0 0
-9.8251e-05 0.0216243 0.0790911
-0.0958565 -0.175938 1.48164
-0.000140269 9.65033e-05 0.000582077
0.000117056 0.000145405 -0.000328106
0.000109332 0.00249254 -0.0122741
0.0446034 -0.0140293 0.495709
-0.00840801 0.0023479 -0.00874038
0 0 0
0 0 0
0.000939839 -0.00429096 0.129099
0 0 0
0.00166881 -0.0163389 0.000170598
-0.00524368 -0.00326413 0.0251305
-0.00135933 0.00130632 0.0345229
-0.0153788 0.000281825 0.269922
0.00336737 0.00253785 0.0149417
0.104192 -0.198818 1.63787
0.00995241 0.00270069 -0.0102731
-0.0419857 -0.0160279 0.510705
1.62399e-05 -0.000516687 0.0118668
6.13251e-18 -3.56105e-19 1.3233e-16
0 0 0
-3.08472e-05 -0.00232831 0.0230338
1.82109e-06 -9.26549e-06 0.00142169
4.01784e-07 1.08508e-07 -0.000254369
4.96276e-05 0.000304734 0.00936121
0.00218527 0.00137459 0.0869018
0 0 0
1.93367e-07 -8.12161e-07 -0.000360698
-5.38185e-05 0.00114373 0.0540641
-2.12538 0.520837 4.08169
-2.30506e-05 0.00413501 0.0386346
0 0 0
-7.98257e-05 0.00857528 0.0867036
-2.74879e-05 0.0187334 -0.0346562
-0.000695264 -4.30725e-05 0.009831
-0.000237068 -0.00137935 0.0297526
0 0 0
2.35455e-05 -0.0026055 0.0245686
-4.43088e-05 0.000365255 0.00876757
-0.00216639 0.00120871 0.0874724
2.14975 0.523492 4.0964
3.70089e-05 0.00137915 0.0540609
0 0 0
0 0 0
0 0 0