# vtk DataFile Version 2.0
tri_press
ASCII
DATASET UNSTRUCTURED_GRID
POINTS 3682 float
-0.795 0.085 -1.81565
-0.746197 0.205 1.825
-0.825 0.579996 -1.635
-0.695 0.825 1.79421
0.795 0.085 -1.81767
0.746849 0.205 1.825
0.825 0.571297 -1.645
0.695 0.825 1.79464
-0.78642 0.117312 -0.6021
-0.795194 0.132271 0.61145
-0.764285 0.644283 -0.49193
-0.781582 0.78658 0.65114
0.788671 0.115279 -0.603447
0.798676 0.129223 0.610777
0.765851 0.640049 -0.498453
0.783011 0.78511 0.648093
-1.56926 -0.236937 -2.80664
-1.5734 -0.191786 -1.86301
-1.56693 -0.165862 -0.647923
-1.55904 -0.155906 0.580717
-1.52359 -0.10722 1.79693
-1.51575 -0.0553345 2.74613
-1.52213 -0.00288502 3.68493
-1.57424 0.028789 -2.74274
-1.57743 0.0781837 -1.80646
-1.56546 0.119816 -0.605075
-1.55716 0.149437 0.602102
-1.50103 0.201652 1.80477
-1.50166 0.253405 2.7531
-1.51569 0.304682 3.69426
-1.58671 0.543316 -2.59461
-1.59265 0.589822 -1.6543
-1.55368 0.664899 -0.500752
-1.54311 0.777524 0.647147
-1.47021 0.826977 1.80185
-1.4859 0.874714 2.753
-1.51117 0.923014 3.70535
-1.58676 1.35238 -2.4264
-1.58585 1.41097 -1.49743
-1.56778 1.51873 -0.365306
-1.55221 1.64935 0.75121
-1.53724 1.74329 1.88358
-1.53217 1.79509 2.81306
-1.53685 1.84102 3.75739
-0.780277 -0.232483 -2.81308
-0.789751 -0.184854 -1.87113
-0.784816 -0.16663 -0.648314
-0.78812 -0.167806 0.58872
-0.767184 -0.109395 1.81181
-0.762876 -0.0568235 2.75608
-0.768108 -0.00466721 3.69043
-0.781992 0.0306554 -2.74658
-0.755413 0.253301 2.76129
-0.765369 0.303593 3.69831
-0.793567 0.537492 -2.58891
-0.742855 0.874597 2.75119
-0.764045 0.922865 3.70454
-0.802134 1.34371 -2.42037
-0.805719 1.40058 -1.4904
-0.792134 1.51135 -0.361583
-0.7853 1.65158 0.749192
-0.782204 1.74753 1.87786
-0.779734 1.79775 2.80748
-0.783199 1.84251 3.75313
0.804462 -0.23445 -2.81644
0.792538 -0.185836 -1.8734
0.790029 -0.168617 -0.649907
0.78737 -0.170303 0.587801
0.75189 -0.110357 1.81143
0.741253 -0.0577436 2.75558
0.738347 -0.00583176 3.68964
0.810944 0.0281943 -2.75061
0.730704 0.252679 2.761
0.73166 0.302556 3.69763
0.815239 0.53243 -2.59545
0.71214 0.874016 2.75092
0.721969 0.921856 3.7038
0.777245 1.33958 -2.4258
0.767423 1.39643 -1.49589
0.762721 1.50809 -0.366099
0.751192 1.6494 0.746182
0.726828 1.74599 1.87602
0.720847 1.79637 2.80602
0.721057 1.84109 3.75172
1.59302 -0.241414 -2.81364
1.58138 -0.195282 -1.86871
1.57409 -0.17006 -0.652147
1.56567 -0.160317 0.578212
1.52261 -0.1099 1.79563
1.50322 -0.0576289 2.74477
1.49809 -0.0054191 3.68315
1.59888 0.0234715 -2.75091
1.58377 0.0742342 -1.81335
1.57045 0.115384 -0.610063
1.56659 0.144996 0.599529
1.50965 0.199517 1.80394
1.48968 0.251511 2.75205
1.48885 0.302355 3.69263
1.60295 0.534826 -2.606
1.5941 0.580405 -1.66687
1.55524 0.658508 -0.509946
1.54881 0.77381 0.642516
1.47443 0.825119 1.80073
1.46701 0.872919 2.75184
1.47578 0.920738 3.7036
1.56568 1.34461 -2.43669
1.5546 1.40329 -1.50767
1.5419 1.51251 -0.373816
1.523 1.64494 0.745319
1.49165 1.74002 1.87975
1.48004 1.79215 2.80997
1.47887 1.83805 3.75443
-0.807827 0.332498 -1.72315
0 0.0826824 -1.81898
-0.795743 0.0961227 -1.20888
-0.767334 0.515 1.85634
0.000326008 0.212602 1.8174
-0.779922 0.159409 1.21823
0 0.68317 -1.74752
-0.866605 0.684102 -1.06347
0 0.911602 1.88103
-0.76312 0.830619 1.22268
0.806269 0.328148 -1.7276
0.799717 0.0922583 -1.21056
0.768021 0.515 1.85692
0.780454 0.15942 1.21789
0.866721 0.676968 -1.07173
0.764244 0.830294 1.22137
-0.790842 0.124756 0.00467503
-0.767641 0.380797 -0.547015
0.00112531 0.124989 -0.602773
-0.830925 0.459425 0.631295
0.00174091 0.137708 0.611113
-0.776819 0.719317 0.079605
0.000782697 1.00275 -0.495192
0.00071485 1.18294 0.649617
0.794088 0.121836 0.00366503
0.769311 0.377664 -0.55095
0.831605 0.457167 0.629435
0.778055 0.716204 0.07482
-0.865833 0.356648 -1.13617
0.865838 0.352906 -1.14114
0.000562656 0.0978841 -1.20972
0.000391348 0.840404 -1.0676
0 0.330323 -1.83279
-0.786113 0.420111 0.04214
0.786884 0.417415 0.0392425
0.00143311 0.131156 0.00417003
0.000748773 1.20723 0.0772125
-0.894216 0.487213 1.22045
0.894215 0.486083 1.21963
0.00103346 0.174219 1.21806
0.000357425 1.05554 1.22202
0.000163004 0.515 2.0262
-0.789864 0.208749 -1.75785
-0.3975 0.0826878 -1.81847
-0.794526 0.0914076 -1.51226
-0.765714 0.36 1.84962
-0.372935 0.219496 1.8105
-0.776735 0.168529 1.52161
-0.822607 0.456247 -1.68527
-0.4125 0.661064 -1.72074
-0.865623 0.651869 -1.34923
-0.743656 0.67 1.83776
-0.3475 0.89787 1.86719
-0.737598 0.836348 1.50844
0.3975 0.0826887 -1.81948
0.788243 0.206574 -1.76025
0.797085 0.0889025 -1.51411
0.373588 0.219782 1.81022
0.766079 0.36 1.8496
0.77736 0.168501 1.52144
0.4125 0.659497 -1.72853
0.820262 0.449723 -1.69093
0.865669 0.643941 -1.35836
0.3475 0.897918 1.86745
0.744587 0.67 1.83885
0.738176 0.836201 1.508
-0.796501 0.101298 -0.905488
-0.788604 0.121061 -0.298713
-0.849837 0.212651 -0.574558
-0.389292 0.12786 -0.602437
-0.782066 0.151332 0.914838
-0.793067 0.128464 0.308063
-0.839247 0.282754 0.621373
-0.387363 0.153716 0.611282
-0.834695 0.683442 -0.777698
-0.769375 0.514246 -0.519473
-0.770102 0.681349 -0.206163
-0.446539 0.953089 -0.493561
-0.775613 0.811862 0.936908
-0.820272 0.630012 0.641218
-0.778299 0.752048 0.365373
-0.473532 1.15096 0.650378
0.800741 0.0972215 -0.907003
0.390951 0.128027 -0.60311
0.791307 0.11863 -0.299891
0.849788 0.211073 -0.577198
0.782122 0.151765 0.914333
0.389776 0.154332 0.610945
0.796009 0.125903 0.307221
0.839627 0.280952 0.620106
0.839189 0.681412 -0.78509
0.448283 0.951331 -0.496823
0.77017 0.510151 -0.524702
0.771634 0.677807 -0.211817
0.776849 0.810923 0.93473
0.475448 1.15119 0.648855
0.820825 0.627897 0.638764
0.779111 0.749235 0.361457
-0.86419 0.344573 -1.42966
-0.403914 0.331411 -1.81932
0.000281328 0.0939915 -1.51435
0 0.206503 -1.80078
-0.866334 0.226385 -1.17252
-0.39759 0.101759 -1.2093
-0.886225 0.501106 1.5384
-0.383585 0.515 2.02511
0.000679732 0.200907 1.51773
0.000244506 0.363801 2.04785
-0.889543 0.323311 1.21934
-0.389444 0.175953 1.21814
0.000195674 0.77322 -1.40756
0 0.506747 -1.96299
-0.869064 0.520375 -1.09982
-0.433107 0.81808 -1.06553
0.000178713 0.945003 1.55152
8.15019e-05 0.713301 2.02299
-0.89575 0.658916 1.22156
-0.381381 1.02521 1.22235
0.864168 0.340527 -1.43437
0.403135 0.329236 -1.82077
0.866378 0.222582 -1.17585
0.40014 0.101244 -1.21014
0.886227 0.500542 1.53827
0.384092 0.515 2.02533
0.889303 0.322752 1.21876
0.390744 0.177145 1.21797
0.869053 0.514937 -1.10643
0.433556 0.816529 -1.06966
0.89576 0.658189 1.2205
0.382301 1.02551 1.22169
-0.784409 0.274468 0.0234075
-0.388636 0.140093 0.00442253
-0.867075 0.368723 -0.841593
-0.774451 0.400454 -0.252438
0.000843984 0.102087 -0.906245
0.00127921 0.128045 -0.299302
-0.798022 0.439768 0.336718
-0.896017 0.473319 0.925873
0.00158701 0.13444 0.307642
0.00138718 0.153023 0.914585
-0.789001 0.573482 0.0608725
-0.493621 1.17444 0.0784087
0.000587022 0.851469 -0.781394
0.000765735 1.14272 -0.20899
0.000731812 1.21005 0.363415
0.000536138 1.13246 0.935819
0.784991 0.272373 0.0214538
0.390912 0.140194 0.00391753
0.866773 0.365285 -0.846046
0.775259 0.39754 -0.255854
0.798493 0.437291 0.334339
0.896027 0.471625 0.924531
0.78981 0.57048 0.0570312
0.49555 1.17401 0.0760162
-0.865317 0.217567 -1.47096
-0.867895 0.23772 -0.87354
-0.868622 0.516457 -0.809645
-0.867525 0.488311 -1.38945
0.865445 0.214578 -1.47424
0.867417 0.48233 -1.39637
0.868891 0.511897 -0.815568
0.867891 0.234527 -0.876524
-0.397545 0.0964815 -1.5133
0.39882 0.0964304 -1.51423
0.397519 0.107097 -0.906624
-0.395119 0.107182 -0.905866
-0.422803 0.754293 -1.3784
-0.407429 0.834268 -0.779546
0.408436 0.833158 -0.783242
0.423028 0.750964 -1.38296
-0.400707 0.207626 -1.92215
-0.408207 0.481497 -1.94288
0.407817 0.478235 -1.9409
0.400317 0.206539 -1.92359
-0.781269 0.261487 -0.275575
-0.787668 0.290691 0.32239
-0.797862 0.59836 0.351045
-0.780197 0.544369 -0.2293
0.781413 0.259711 -0.277872
0.781143 0.540892 -0.233835
0.798537 0.595798 0.347898
0.788111 0.288761 0.32078
-0.389194 0.133518 -0.299007
0.391228 0.133518 -0.299596
0.390639 0.146673 0.307431
-0.388003 0.146898 0.307852
-0.479499 1.08261 -0.207576
-0.492232 1.18001 0.364394
0.494194 1.17999 0.362436
0.481294 1.08143 -0.210403
-0.890506 0.309579 0.920355
-0.886288 0.341655 1.53
-0.863825 0.664458 1.52342
-0.883607 0.640959 0.93139
0.890401 0.307973 0.919432
0.883508 0.639664 0.929631
0.864178 0.664094 1.52314
0.886264 0.341376 1.52986
-0.393085 0.167531 0.914711
0.395476 0.1677 0.914459
0.382166 0.199228 1.51959
-0.38119 0.199472 1.51967
-0.385907 1.10226 0.936363
-0.364441 0.930009 1.52998
0.3649 0.930056 1.52976
0.387082 1.10244 0.935274
-0.37826 0.3619 2.0045
0.37884 0.3619 2.00483
0.365796 0.691651 1.99125
-0.365543 0.691651 1.9912
-0.776603 0.146874 -1.77092
-0.59625 0.0812094 -1.81969
-0.79439 0.0885763 -1.66396
-0.752664 0.2825 1.83402
-0.559566 0.173907 1.85609
-0.772582 0.175649 1.67331
-0.827818 0.518121 -1.66415
-0.61875 0.64377 -1.70111
-0.853216 0.623837 -1.49212
-0.722828 0.7475 1.81949
-0.52125 0.877729 1.84699
-0.719716 0.834091 1.65133
0.59625 0.0812096 -1.82121
0.775252 0.145787 -1.77259
0.796959 0.0860345 -1.66589
0.560218 0.173021 1.85698
0.753327 0.2825 1.83416
0.773268 0.175587 1.67322
0.61875 0.638272 -1.70964
0.826404 0.51051 -1.67174
0.85378 0.616065 -1.50168
0.52125 0.877315 1.8469
0.723204 0.7475 1.82016
0.720126 0.834138 1.65132
-0.786487 0.114278 -0.753794
-0.787456 0.119243 -0.450406
-0.84007 0.154011 -0.588329
-0.588725 0.120849 -0.602268
-0.793386 0.137046 0.763144
-0.791894 0.132604 0.459756
-0.856863 0.187691 0.616411
-0.594906 0.135739 0.611366
-0.764527 0.6289 -0.634814
-0.770285 0.580992 -0.505701
-0.767771 0.663393 -0.349046
-0.652912 0.893686 -0.492746
-0.778636 0.79926 0.794024
-0.805842 0.710754 0.646179
-0.779938 0.769312 0.508256
-0.629189 0.972031 0.650759
0.78917 0.111786 -0.755225
0.591796 0.117683 -0.603278
0.789864 0.117079 -0.451669
0.839998 0.152792 -0.590323
0.792342 0.138551 0.762555
0.59777 0.134688 0.610861
0.797145 0.12776 0.458999
0.856635 0.186346 0.615441
[...]
POINT_DATA 3682
SCALARS point_scalars float 1
LOOKUP_TABLE default
-63.8451
-41.4693
-70.1979
-38.0584
-39.0467
-41.5033
-70.0843
-38.2349
-35.5155
-31.0264
-40.098
-45.3119
-35.3824
-30.4386
-40.0737
-45.1336
-52.6836
-141.674
-47.9385
-26.5337
-49.9481
-41.1943
-32.9436
-14.635
-141.697
-40.8324
-26.9211
-52.1488
-36.142
-32.3782
-65.0488
-121.605
-48.0347
-35.1512
-50.8342
-36.2092
-32.2999
-61.0995
-77.8622
-64.9009
-58.9238
-39.1012
-38.3064
-33.7571
-64.2971
-52.6836
-37.0642
-31.0105
-43.4179
-32.7891
-30.2469
-64.2971
-31.9574
-30.5156
123.828
-31.7477
-31.2518
-4.99708
-54.273
-59.5019
-60.0984
-37.7074
-33.2388
-32.1434
-54.7231
-58.5238
-37.062
-30.8916
-41.6631
-33.1316
-30.2483
-54.7231
-31.5454
-30.4763
123.574
-31.759
-31.1881
-3.15688
-52.3411
-57.1633
-61.1255
-36.3361
-33.3129
-32.0183
-58.5238
-138.313
-47.6895
-27.1921
-49.8836
-41.2327
-33.3417
-21.7879
-137.198
-40.7265
-27.0207
-52.2373
-36.1825
-32.5425
-76.6034
-119.082
-48.7963
-34.7916
-52.5788
-36.4902
-32.393
-65.9525
-76.0044
-64.9051
-58.9599
-39.1958
-38.5093
-33.8838
-72.3628
-133.866
-55.8693
-36.0368
-33.1195
-35.8272
-45.7314
-62.9345
-32.5551
-50.5135
-70.9107
-55.7267
-36.1728
-35.7677
-63.1115
-50.5034
-28.3949
-39.4601
-37.9579
-24.3883
-33.2894
-41.1896
10.3622
-67.759
-28.717
-39.717
-24.372
-41.1914
-61.6984
-61.9424
-57.2424
-21.4701
199.403
-29.0886
-29.4922
-31.7675
-102.037
-45.3457
-45.2846
-34.0706
-44.8055
-24.377
-33.6958
-144.126
-87.0288
-36.2033
-36.2599
-39.8493
-76.5351
-44.3457
-79.9583
-36.216
-33.0772
-45.1235
-142.971
-31.8585
-87.3483
-36.3477
-36.108
-39.88
-45.4276
-76.6862
-80.3074
-33.1355
-36.349
-45.2168
-45.1697
-30.9205
-40.4919
-37.4339
-35.0432
-28.8407
-24.3383
-32.9078
-54.8236
-38.9539
-39.845
-2.81863
-49.6992
-31.3495
-41.5004
-63.3069
-45.766
-37.6825
-32.1316
-40.5294
-35.8891
-32.9395
-28.5438
-24.4587
-55.1659
-2.69815
-39.1762
-39.8579
-49.6779
-63.3432
-31.4594
-41.4504
-93.2604
179.945
-77.5832
199.899
-61.8088
-56.8718
-51.3003
-30.6007
-34.2978
-24.6972
-42.3256
-33.7679
-32.0238
112.91
-60.7397
-30.8492
-37.7015
-30.1456
-48.3176
-45.5196
-93.413
179.556
-62.0285
-57.1327
-51.5018
-30.7835
-42.2639
-33.7437
-60.9105
-31.2135
-48.2498
-45.5565
-27.8829
-31.3771
-49.9408
-32.0232
-46.9971
-33.5231
-27.4782
-44.8277
-31.643
-32.6029
-32.9555
-88.5466
0.122714
-48.4518
-84.9215
-54.3401
-29.2893
-31.4981
-50.0897
-32.1526
-27.5506
-44.7238
-33.2291
-89.0205
-98.5863
-49.2429
-51.5606
-87.5799
-98.8807
-88.2897
-51.6778
-49.2761
-78.9725
-78.9098
-46.8067
-46.526
-39.9992
-12.9967
-13.1678
-39.4319
180.751
141.155
144.058
183.642
-32.0644
-26.7078
-32.0428
-33.9565
-32.0664
-34.0905
-32.2362
-26.7876
-33.1888
-33.2911
-31.4545
-31.4088
-45.4155
-73.6507
-73.5844
-45.875
-44.0071
-48.7427
-52.6189
-40.4189
-43.9435
-40.1842
-52.5963
-48.8627
-33.0438
-33.0895
-35.6394
-35.5487
-54.378
-38.6409
-38.6721
-54.4126
-31.0572
-31.2476
-31.9922
-31.9168
-18.427
-178.386
-140.751
-37.1791
-39.8209
-44.1069
-78.4867
-30.7826
-92.7494
-37.0049
-34.8684
-41.5212
-175.986
-20.8392
-142.026
-40.1232
-37.4373
-44.166
-29.2989
-79.2212
-90.6891
-34.9287
-37.2059
-41.6412
-41.5519
-34.3341
-38.1619
-36.8831
-37.0915
-28.8722
-25.9047
-32.8643
-44.0069
-38.9104
-39.26
-44.5717
-48.0659
-37.2239
-42.2786
-53.9365
-42.2153
-37.1083
-33.6559
-37.9699
-35.866
-32.8755
-28.8498
-26.2457
-44.6252
-44.1562
-39.0398
-39.2099
-48.1037
-53.9346
-37.2038
-42.2194
-56.0348
-72.3554
-141.803
101.728
-136.167
-134.561
-97.0793
153.624
-66.4793
-48.9637
-60.9895
-56.5624
-36.1017
-36.1134
-43.996
-31.6777
-33.9923
-34.1745
-33.7718
-26.4464
-37.2302
-34.8674
-40.6814
-34.3147
-43.8333
-45.8146
-35.9858
112.158
-69.4045
-58.3602
-61.3075
-46.4087
-32.4939
-32.5533
-35.2236
-30.779
-47.9277
-51.6126
-52.0232
-48.5509
-54.1295
-75.9356
-141.712
102.029
-66.1996
-49.344
-60.5527
-56.7866
-36.2107
-36.2431
-44.1043
-31.786
-37.2296
-34.8126
-40.6678
-34.3383
-69.4812
-58.3685
-61.5479
-46.5893
-47.9695
-51.5951
-52.0043
-48.6017
-30.1397
-28.3589
-26.8645
-30.5442
-41.8426
-39.4183
-46.2244
-34.9867
-37.8773
-37.9738
-42.748
-35.2856
-23.0509
-27.2577
-25.4836
-28.754
-33.7658
-33.7629
-32.2354
-33.0224
-40.5851
-41.4062
-36.2975
-59.3455
7.45944
8.06269
12.1614
-9.52561
-66.6905
-66.7715
-76.0907
-60.3798
-29.7536
-28.3167
-29.2092
-30.693
-41.9804
-39.609
-46.3121
-35.1372
-23.1134
-27.2997
-25.5747
-28.6078
-40.5351
-41.3866
-36.4535
-59.4403
-72.8047
-61.9719
-61.153
-54.4572
-73.0265
-62.1771
-61.4137
-54.6391
-65.5987
-56.985
-57.1046
-51.3126
-27.9727
-23.5312
-23.5597
-15.009
196.421
199.777
202.866
196.78
-28.5581
-30.4131
-28.471
-30.6718
-29.0236
-30.7657
-28.6485
-31.0031
-31.6478
-32.4086
-31.5265
-31.8493
-98.3507
-94.9315
-94.5291
-98.4624
-47.4022
-43.9145
-46.6505
-44.7178
-47.3855
-43.865
-46.5774
-44.647
-33.448
-33.0564
-33.0999
-32.8922
-40.6741
-44.8801
-44.9017
-49.0076
-25.9058
-22.8542
-24.8801
-26.1226
-139.242
100.823
-102.821
53.4422
-97.4571
-82.0773
-45.7578
-32.7341
-35.2591
-31.5165
-47.6611
-36.9763
-122.954
86.6553
-40.3328
37.5015
-86.3421
-49.6163
-42.8992
-32.4705
-35.7253
-31.6762
-49.1663
-40.4624
-102.599
55.4162
-138.54
101.442
-97.9685
-82.0718
-35.4655
-31.8515
-45.8149
-33.3632
-47.6575
-36.9885
-40.7714
43.3132
-123.852
89.6129
-86.719
-49.6118
-35.7656
-31.7599
-42.9447
-32.556
-49.3736
-40.5043
-48.2006
-46.2906
-30.996
-32.4933
-44.7163
-35.3654
-42.2312
-34.9114
-44.0655
-33.5115
-26.4531
-30.5724
-23.539
-30.5388
-32.0737
-33.2406
-53.2238
-34.1967
-47.3895
-35.3745
-36.3244
-66.1642
-2.87359
-17.3431
-43.5095
-54.9014
-30.8133
-34.2043
-35.9306
-54.5071
-69.6377
-59.0509
-49.013
-46.5618
-42.4485
-35.0876
-32.0106
-32.6612
-44.7426
-35.4126
-43.9643
-33.5522
-32.0697
-33.2574
-26.5262
-30.6253
-23.4606
-30.5196
-54.3069
-34.474
-3.44534
-16.735
-48.1315
-35.4542
-36.3846
-66.711
-43.5786
-54.8919
-69.61
-59.12
-30.9076
-34.2558
-36.066
-54.5194
-96.2784
-90.9466
179.561
175.568
-77.6685
-77.3222
197.591
198.285
-74.0128
-54.0761
-65.5529
-50.8209
-49.7505
-53.2218
-30.4668
-30.9688
-34.9661
-34.8911
-26.8313
-27.085
-41.8749
-44.362
-33.0504
-35.2905
-33.2174
-33.2558
126.145
125.549
-54.8278
-70.0603
-36.5473
-23.3406
-38.0052
-38.0207
-30.7739
-30.6733
-52.1836
-46.3749
-49.6022
-41.791
-96.7511
-91.3322
175.568
179.635
-74.1201
-54.2894
-65.6794
-51.0808
-53.4594
-49.8621
-30.6872
-31.109
-41.8358
-44.367
-33.1038
-35.3362
-70.3036
-54.9487
-23.1604
-36.7998
-46.3188
-52.1787
-41.8202
-49.62
-30.5028
-27.4944
-32.0281
-31.1698
-49.5262
-50.7089
-31.9292
-32.6051
-46.9883
-46.7158
-33.469
-33.3296
-26.5127
-29.4197
-44.3811
-42.9905
-31.7311
-31.5172
-32.897
-32.9005
-32.7473
-33.2
-83.2322
-79.9178
-2.99195
-3.52092
-41.654
-41.5095
-83.2461
-83.1423
-54.3039
-54.3352
-30.5403
-27.1683
-32.1399
-31.2233
-50.7799
-49.6546
-32.018
-32.7662
-29.588
-26.5558
-44.3134
-42.8078
-33.4355
-32.9317
-79.6733
-82.0089
-142.342
-72.4538
-73.6164
-143.304
-43.3665
-45.3811
-54.3559
-52.4065
-44.3057
-56.3053
-54.6227
-47.457
-116.243
-134.688
-71.4125
-69.8711
-136.286
-142.744
-73.735
-72.3835
-116.106
-70.0552
-71.7917
-135.46
-44.7791
-47.6365
-54.7641
-56.2888
-43.5389
-53.1774
-54.5894
-45.4579
-113.682
-97.7487
-65.3174
-65.9822
-113.941
-66.0597
-65.3752
-97.0144
-42.0409
-42.7643
-51.2214
-50.6406
-41.8509
-50.3397
-50.9651
-42.38
-56.1747
-47.93
-29.567
-36.4286
-39.8017
7.69347
-16.0467
-43.2886
-41.0396
-42.7176
-15.6769
7.92909
-57.0972
-36.8022
-29.615
-48.1049
42.3466
104.305
197.506
148.907
32.6733
105.729
192.226
100.593
36.9037
101.426
192.569
97.1552
42.1522
147.401
198.118
104.57
-35.2842
-31.3419
-30.1186
-35.3784
-26.3127
-24.1415
-27.618
-25.6166
-35.2953
-36.1345
-30.2455
-27.5602
-36.6895
-34.9176
-31.3144
-36.5014
-34.4654
-35.4835
-30.4869
-29.7832
-36.7258
-36.5909
-31.5188
-35.0063
-35.4109
-27.6752
-30.4455
-36.2436
-25.8564
-25.3807
-27.7386
-24.146
-34.3264
-35.0884
-32.3036
-31.2546
-34.4777
-31.4202
-32.3297
-35.5734
-31.3509
-32.0398
-31.645
-30.4273
-31.2741
-30.3298
-31.4591
-32.3906
-62.1101
-62.7821
-93.0198
-10.4313
-53.8624
-74.4457
-93.2934
-56.513
-53.81
-56.5527
-93.4214
-74.5235
-62.5222
-10.5055
-92.779
-62.9154
-33.2506
-40.1149
-43.4244
-29.9302
-47.9471
-44.9804
-45.8216
-41.8752
-42.9395
-53.2052
-48.9178
-43.0313
-41.1813
-29.3298
-45.7802
-48.9363
-33.0752
-29.8412
-43.3626
-40.077
-41.2397
-48.7324
-45.7013
-29.3337
-43.0272
-43.17
-48.8699
-53.2692
-47.9509
-41.882
-45.8268
-45.0959
-33.4286
-33.09
-32.6394
-33.5557
-33.4522
-33.6159
-32.6804
-33.2969
-37.3692
-34.688
-34.0837
-35.482
-37.2863
-35.4656
-34.0542
-34.43
-52.2656
-52.7178
-49.1369
-60.2219
-37.4405
-35.3492
-40.8954
-44.1884
-37.4943
-44.2337
-40.9148
-35.3694
-52.3108
-60.2582
-49.1431
-52.795
-32.7023
-28.543
-25.276
-31.7659
-32.8258
-31.9019
-25.575
-28.548
-33.1275
-31.1817
-26.7655
-31.9728
-33.0344
-31.8796
-26.5804
-31.1265
-39.2544
-125.64
-132.687
-39.58
-41.0031
-43.3293
-74.0057
-34.6544
-92.6038
-37.7621
-36.5901
-39.2993
-123.355
-42.3429
-127.358
-41.1446
-39.7928
-43.328
-35.0288
-76.5078
-92.1013
-36.715
-38.1445
-39.3947
-37.5061
-34.8375
-36.5165
-36.4993
-33.2726
-29.763
-27.5179
-32.882
-41.4613
-39.2944
-39.2726
-50.3244
-47.6142
-40.0984
-42.7692
-50.3493
-37.6395
-36.6611
-34.6716
-36.2128
-34.51
-32.9539
-30.0609
-27.8462
-41.4781
-49.9262
-39.457
-39.35
-47.6495
-50.2913
-39.9984
-42.5261
-63.6599
-71.753
-132.475
52.5624
-134.464
-133.705
-113.551
73.4756
-60.2438
-52.351
-59.6847
-55.9028
-36.0583
-36.0555
-39.219
-32.4723
-33.4786
-33.5173
-33.2479
-27.4108
-36.3443
-35.4216
-39.8189
-34.799
-45.8146
-46.6596
-40.1998
-47.3814
-65.5186
-60.7403
-62.5859
-58.801
-32.4559
-32.5431
-33.9055
-31.3688
-49.2488
-51.1522
-51.6605
-49.0604
-62.6486
-70.5865
-131.859
54.3823
-59.9882
-52.4368
-59.2676
-56.007
-36.187
-36.1982
-39.3568
-32.7326
-36.3068
-35.3287
-39.793
-34.7979
-64.8427
-60.9777
-62.927
-59.0927
-49.294
-51.0894
-51.6727
-49.0822
-29.2094
-28.2081
-27.2726
-29.97
-41.9427
-39.5178
-43.9522
-37.3109
-37.8109
-37.9656
-39.7369
-36.4874
-23.5331
-25.7635
-24.6379
-24.7784
-33.1318
-32.9197
-32.6674
-33.2254
-40.755
-41.2169
-38.5405
-50.597
8.72413
9.52867
13.5945
0.664605
-67.5027
-67.5244
-71.3009
-63.917
-29.6052
-28.1493
-28.0282
-30.1869
-42.1999
-39.6452
-44.3314
-37.4582
-23.5472
-25.7941
-24.6646
-24.7503
-40.7816
-41.1464
-38.6753
-50.6966
-66.6308
-61.853
-61.4294
-57.7682
-66.8414
-62.0618
-61.6947
-57.9827
-61.0789
-57.149
-57.264
-54.1454
-25.2146
-21.9673
-21.979
-17.6449
199.397
199.512
204.382
198.652
-28.7463
-29.6266
-28.7428
-29.779
-29.2095
-30.0706
-29.063
-30.1654
-31.6648
-32.0476
-31.6207
-31.7492
-100.506
-99.1841
-98.2232
-100.265
-46.2032
-44.6447
-46.0007
-44.8762
-46.1762
-44.5847
-45.9438
-44.8084
-34.9802
-33.1872
-33.1849
-34.4626
-42.5875
-44.7671
-44.7781
-46.8778
-25.0081
-23.7168
-25.1704
-25.1425
-14.7833
-45.8484
-101.96
62.3424
-153.352
-138.168
-123.285
-41.9425
-104.645
-74.3395
-95.9633
-84.1226
-36.7806
-36.157
-39.9555
-33.1716
-38.1355
-35.4461
-35.4232
-32.7083
-41.2275
-38.3441
-44.442
-37.9524
-77.2428
-77.6578
-142.921
38.3645
-38.8402
-44.2041
-43.5496
-27.8969
-88.6195
-75.237
-87.3434
-60.4155
-36.5488
-36.3011
-38.8218
-33.4235
-33.7359
-32.6948
-34.3633
-32.0972
-43.0726
-46.43
-47.3207
-42.0736
-151.367
-137.503
-122.843
-22.6622
-11.9833
-45.3892
-107.617
65.0207
-105.277
-74.1134
-96.5415
-84.0554
-38.8176
-35.7832
-35.905
-33.0486
-36.7652
-36.2178
-40.0303
-33.7202
-41.2519
-38.3786
-44.4363
-37.9689
-36.7107
-46.3281
-45.6465
-25.4361
-77.254
-79.229
-143.568
40.6064
-92.3079
-75.617
-88.4017
-60.8362
-33.8064
-32.7535
-34.4091
-32.1652
-36.6869
-36.423
-38.8689
-33.5306
-43.1034
-46.5382
-47.447
-42.1302
-44.3502
-46.8871
-47.0698
-45.8129
-32.7321
-30.4315
-30.8731
-32.0534
-39.4305
-41.4895
-41.4509
-37.9219
-37.1362
-37.5502
-39.181
-36.0986
-37.8622
-34.4252
-42.701
-34.0507
-28.8586
-28.3677
-27.7504
-30.0144
-25.8189
-23.3262
-23.2822
-25.2439
-32.7425
-32.9574
-32.4493
-33.0879
-48.1172
-55.1865
-55.1745
-49.3975
-38.8737
-39.1654
-41.6125
-36.8222
-39.41
-40.0477
-37.838
-50.6521
-15.7551
3.95964
-0.579824
-8.61583
-48.2415
-51.5835
-46.3536
-51.2065
-34.2224
-29.0554
-30.7512
-32.2199
-41.5928
-41.5031
-38.122
-49.144
-59.3205
-65.0375
-66.3699
-61.9558
-44.9209
-47.5398
-47.2588
-46.1811
-37.3955
-37.7946
-39.4564
-36.2989
-33.199
-30.1876
-32.4941
-32.2834
-39.2195
-41.7761
-41.5476
-37.8602
-38.7528
-34.2156
-42.7667
-34.2395
-32.7522
-33.0754
-32.4748
-33.098
-28.4694
-28.2692
-27.6399
-30.0599
-26.1474
-23.396
-23.3654
-25.323
-51.4331
-55.1523
-55.9289
-50.0461
-15.5224
4.16574
-0.754288
-8.25918
-39.0284
-39.3453
-41.8391
-36.8937
-39.2991
-40.0223
-37.886
-50.7467
-48.3043
-51.5126
-46.43
-51.1865
-59.3032
-65.1416
-66.4308
-62.0388
-34.2871
-29.1127
-30.8746
-32.2565
-41.4265
-41.6686
-38.254
-49.085
-113.633
-81.1844
-94.52
-91.9504
153.364
183.253
180.369
178.677
-85.8036
-70.7883
-77.7101
-77.445
180.719
199.787
200.459
200.435
-61.4268
-61.8583
-67.0211
-57.5281
-56.7805
-56.8022
-60.7877
-53.7205
-49.7406
-49.4282
-50.561
-52.3174
-31.3752
-27.8364
-30.3447
-30.6851
-34.3806
-33.8631
-34.2298
-34.2871
-26.096
-23.4857
-25.2721
-25.4218
-41.5522
-43.1631
-41.8278
-43.0937
-33.8465
-33.4926
-33.4326
-34.2659
-33.5452
-30.0165
-32.2345
-32.2782
133.494
168.447
120.31
122.174
-60.766
-60.9441
-57.4663
-64.8691
-35.2727
-26.2488
-33.8151
-27.2429
-36.5542
-38.9955
-37.8235
-37.8319
-30.7438
-26.5651
-29.9346
-29.8315
-49.7518
-47.4116
-50.2418
-47.5307
-46.6267
-45.0005
-47.6416
-43.5403
-114.224
-81.2951
-95.0248
-92.2121
154.358
183.961
178.258
180.27
-61.3556
-62.0503
-67.1339
-57.717
-57.0215
-57.0969
-60.9407
-53.9938
-49.6199
-49.4646
-52.5667
-50.6681
-31.5059
-28.0913
-30.5497
-30.8532
-41.515
-43.1073
-41.7629
-43.0667
-33.8576
-33.5556
-33.5083
-34.1778
-60.9444
-61.089
-65.0623
-57.6426
-36.2843
-26.3217
-27.4017
-34.0288
-49.6495
-47.3387
-47.3818
-50.1341
-46.6665
-45.1216
-43.5746
-47.6749
-27.4685
-28.2309
-29.1016
-27.4098
-30.9848
-31.4572
-31.7099
-31.2537
-48.3389
-51.9697
-49.7356
-50.297
-33.2778
-31.145
-31.9369
-32.2004
-46.063
-49.0128
-47.0633
-46.844
-34.3052
-32.9029
-33.4157
-33.3924
-26.5561
-28.047
-26.8651
-28.3654
-39.2105
-44.7403
-44.567
-44.1323
-31.9187
-31.5486
-31.623
-31.3947
-33.0127
-32.4979
-32.5038
-32.5038
-34.6155
-31.7627
-32.8889
-33.0694
-73.668
-95.5811
-84.4211
-83.6291
6.77688
-7.55718
-1.15653
-1.77084
-27.0448
-79.7834
-43.7826
-43.479
-80.6391
-90.1519
-84.5321
-84.5113
-57.4965
-51.8142
-54.2803
-54.3217
-29.561
-28.9698
-29.9242
-27.6666
-31.1186
-31.616
-31.8301
-31.346
-48.3019
-52.1517
-50.4159
-49.8539
-33.3582
-31.3178
-32.0446
-32.3748
-26.6504
-28.1648
-28.4968
-26.9333
-38.9888
-44.6822
-44.511
-44.0184
-34.7707
-32.0405
-33.3292
-33.0955
-73.6625
-95.8067
-83.657
-84.2962
-124.328
-97.8376
-97.1323
-83.629
-49.1144
-48.1881
-51.3586
-49.3637
-52.1757
-49.7717
-52.8549
-51.1588
-103.554
-85.8573
-88.9555
-77.263
-122.338
-98.3825
-97.758
-83.8531
-104.146
-86.5236
-89.2991
-77.6569
-52.4589
-49.7147
-52.9145
-51.1102
-49.2434
-48.0686
-51.5099
-49.4591
-88.8737
-80.4854
-77.7179
-71.1118
-88.7844
-80.4315
-77.7407
-71.1533
-46.7101
-45.5968
-48.8636
-46.8742
-46.4634
-45.3959
-48.5989
-46.5454
-37.3502
-45.0128
-35.4663
-38.2363
-20.7885
-7.59522
-20.6512
-7.7334
-20.4625
-6.99907
-20.9334
-7.67825
-36.6666
-44.9271
-35.3814
-38.0011
148.534
151.115
179.355
191.015
105.456
97.2786
161.24
130.946
100.828
107.016
133.55
162.465
146.137
149.773
189.886
178.982
-31.6699
-34.0558
-31.1199
-31.9419
-26.2119
-25.489
-27.3456
-26.4539
-31.4933
-33.937
-30.6206
-32.4582
-34.4567
-35.1056
-33.1031
-33.6303
-31.709
-34.2252
-31.0841
-31.9638
-34.5481
-35.1536
-33.2683
-33.7667
-31.6482
-34.1023
-30.7976
-32.6302
-26.52
-25.4939
-27.2271
-26.4449
-32.8429
-33.965
-32.5774
-33.2869
-34.0898
-33.0063
-33.2821
-32.6797
-31.7353
-31.0803
-31.5351
-31.2492
-31.0389
-31.6794
-31.2465
-31.4216
-72.0098
-30.8922
-61.9758
-40.8497
-62.8689
-71.9882
-76.6172
-80.0513
-71.9111
-62.8341
-79.9696
-76.396
-29.7146
-73.3023
-40.0145
-62.0766
-43.8298
-41.0348
-42.2054
-44.3779
-49.7836
-48.2823
-48.9081
-46.2125
-48.0305
-51.0737
-53.2008
-53.8884
-40.9855
-36.7077
-44.8169
-41.2876
-43.6955
-40.8734
-42.1696
-44.3056
-40.8989
-36.6163
-44.6603
-41.085
-48.1325
-51.2573
-53.3555
-54.002
-49.898
-48.3368
-49.0831
-46.2506
-33.0682
-33.3865
-32.8826
-32.8123
-33.1287
-33.3979
-32.9447
-32.9094
-35.8357
-35.7307
-35.3863
-36.0887
-35.6989
-35.6857
-35.2986
-36.0229
-55.9781
-57.2709
-51.8724
-54.322
-37.2326
-39.4168
-38.2399
-40.1403
-37.2661
-39.4538
-38.2618
-40.1706
-55.9873
-57.3111
-51.9137
-54.3402
-32.9645
-31.3695
-30.5991
-28.753
-31.6174
-33.1657
-29.0455
-30.8233
-32.1271
-32.0765
-31.2317
-31.4068
-32.0264
-32.0445
-31.2964
-31.1536
-108.529
64.9601
-138.971
-11.139
-140.54
-120.617
-42.0861
-33.8231
-37.8519
-35.3578
-48.7481
-38.7318
-125.787
12.2082
-47.6927
0.429921
-105.319
-61.1972
-39.26
-34.3518
-35.8568
-33.394
-42.5937
-38.9534
-138.584
-7.44366
-110.496
65.1472
-138.158
-120.97
-38.0057
-35.3774
-42.0809
-33.5633
-48.7212
-38.8369
-46.0094
4.90858
-127.55
18.3779
-105.116
-61.17
-35.9278
-33.3272
-39.3393
-34.4575
-42.752
-39.0215
-41.5997
-41.6297
-35.2455
-34.0276
-39.5973
-36.5826
-38.6356
-35.4625
-36.5405
-34.0601
-27.1249
-30.6803
-25.7124
-27.8962
-31.9274
-33.3003
-43.8872
-47.855
-41.2385
-37.476
-37.7354
-50.6343
-40.8558
-57.4082
-45.4054
-50.0878
-35.5353
-39.12
-37.8193
-49.4317
-53.946
-53.1777
-42.1401
-41.8689
-38.9118
-35.6139
-33.7052
-34.114
-39.5674
-36.4083
-35.7461
-33.956
-31.9779
-33.333
-26.4428
-30.8989
-25.9311
-28.4967
-44.2219
-48.3622
-40.6848
-56.4933
-41.4349
-37.5646
-37.7407
-50.6856
-45.5494
-50.15
-53.9089
-53.2177
-35.6344
-39.1124
-37.8656
-49.3212
-113.617
63.0876
-147.252
44.4367
-144.522
-138.934
102.485
101.682
-113.17
78.8287
-114.229
78.6993
-97.487
-97.2816
125.385
130.704
-70.3479
-65.8437
-51.477
-49.708
-65.687
-55.4334
-60.6643
-53.273
-39.637
-32.5092
-38.6213
-32.7176
-44.4585
-43.5995
-31.6233
-31.7419
-33.7848
-30.0935
-34.2362
-30.077
-34.1779
-34.1135
-25.7969
-25.8506
-39.8818
-36.0653
-38.4759
-33.9842
-40.0534
-40.6451
-33.894
-34.8394
-40.4501
-26.3036
-41.3497
-9.16714
-35.9254
-36.1451
98.1823
99.4385
-70.3064
-59.4711
-57.8946
-55.9292
-58.257
-65.0329
-47.1976
-44.0027
-33.9732
-31.4898
-33.9933
-31.5329
-35.2925
-35.301
-30.908
-30.8838
-50.3126
-45.7044
-50.9428
-50.7642
-53.1305
-50.6005
-50.9061
-46.5351
-117.583
64.5556
-144.239
46.2335
-142.648
-139.241
102.347
102.948
-69.9897
-65.8065
-51.7844
-50.064
-65.5925
-56.4172
-60.8126
-53.5248
-39.7327
-32.6423
-38.7111
-32.8281
-43.6799
-44.5786
-31.7363
-31.8424
-39.8998
-36.0909
-38.4114
-33.9908
-39.9821
-40.6419
-33.9355
-34.8656
-70.4884
-59.2132
-57.7639
-55.7586
-65.0639
-58.4731
-43.7907
-47.1171
-50.3109
-45.7699
-50.829
-50.8283
-50.4511
-53.1407
-46.5759
-50.9506
-30.2762
-30.7452
-26.6493
-29.7535
-28.7799
-26.3887
-30.8601
-30.3725
-42.842
-37.2536
-41.8713
-36.8935
-45.7225
-46.9737
-35.0823
-34.9011
-39.404
-36.2398
-39.7694
-36.8376
-42.8093
-42.4972
-35.2336
-35.2546
-23.3833
-24.6486
-26.8317
-27.5363
-24.7734
-26.3728
-29.604
-28.321
-32.6885
-33.6606
-32.6779
-33.8221
-32.0502
-32.2052
-32.8897
-33.3745
-38.457
-50.9548
-38.6687
-49.6648
-36.2715
-36.5782
-61.0116
-57.8625
9.41151
-0.640664
9.67482
-0.400965
10.7682
10.3491
-8.93738
-9.0988
-70.4154
-62.9628
-70.4698
-62.9807
-75.3545
-75.3739
-60.3576
-60.3526
-29.4217
-30.9402
-26.6639
-29.8595
-30.4392
-26.7522
-31.0226
-30.4898
-43.0375
-37.2926
-42.2258
-37.0812
-47.0823
-45.8174
-35.1841
-35.0143
-23.4118
-24.6393
-26.8385
-27.5245
-26.4865
-24.8043
-29.4717
-28.2085
-38.4275
-51.0347
-38.6442
-49.7332
-36.25
-36.3996
-57.9367
-61.0555
-73.1635
-71.9881
-67.0538
-57.7917
-57.622
-65.7572
-54.4209
-54.5355
-73.3736
-72.2796
-67.1854
-58.0101
-66.0237
-57.8111
-54.6944
-54.6271
-65.5432
-65.4939
-60.8346
-53.6048
-60.9042
-54.0619
-51.2388
-51.1916
-28.2684
-28.2921
-26.9714
-19.9217
-19.9166
-27.0403