# vtk DataFile Version 2.0
tet_velo
ASCII
DATASET UNSTRUCTURED_GRID
POINTS 29498 float
-0.805 0.445 -2.411
-0.715 0.475 2.4311
-0.875 0.815 -2.34153
-0.705 0.78084 2.345
0.805 0.445 -2.411
0.715 0.475 2.4311
0.875 0.815 -2.34158
0.705 0.78084 2.345
-0.803829 0.426171 -0.796967
-0.874349 0.335651 0.817067
-0.870657 0.855937 -0.779354
-0.835967 0.866527 0.782823
0.803835 0.426165 -0.796967
0.874345 0.335655 0.817067
0.870671 0.855951 -0.779387
0.835977 0.866537 0.782807
-1.63522 0.229749 -3.68673
-1.63794 0.232221 -2.41626
-1.64096 0.196915 -0.80089
-1.66157 0.135128 0.824916
-1.58086 0.202005 2.44117
-1.55147 0.236035 3.71593
-1.55847 0.239376 4.98273
-1.64157 0.433817 -3.67064
-1.64804 0.44341 -2.40584
-1.64788 0.426449 -0.800557
-1.66392 0.353647 0.809391
-1.53372 0.409753 2.41567
-1.51842 0.440995 3.6897
-1.54093 0.444846 4.95819
-1.67301 0.829595 -3.62391
-1.70274 0.837266 -2.35696
-1.69433 0.864209 -0.787028
-1.64807 0.841789 0.779228
-1.52123 0.78716 2.35015
-1.51238 0.815751 3.62633
-1.5384 0.837103 4.90318
-1.68779 1.46843 -3.59281
-1.7007 1.48226 -2.33363
-1.69845 1.50964 -0.780506
-1.67413 1.51038 0.761441
-1.633 1.47641 2.31511
-1.60772 1.46126 3.57541
-1.59916 1.46336 4.8466
-0.803417 0.231407 -3.69008
-0.80991 0.235823 -2.42115
-0.807499 0.196946 -0.80024
-0.852549 0.12576 0.831468
-0.796569 0.237357 2.45262
-0.770993 0.262031 3.72371
-0.775232 0.253863 4.98723
-0.801652 0.432371 -3.67168
-0.74035 0.467478 3.69611
-0.760758 0.458392 4.96158
-0.825589 0.819824 -3.61751
-0.735959 0.820598 3.6253
-0.759069 0.842271 4.90296
-0.845131 1.46208 -3.58648
-0.858592 1.47641 -2.32666
-0.863545 1.50983 -0.776305
-0.85792 1.51538 0.76093
-0.837297 1.47719 2.3115
-0.817456 1.46002 3.57181
-0.808233 1.46273 4.84398
0.842304 0.231409 -3.69009
0.813327 0.235823 -2.42115
0.823394 0.196943 -0.800242
0.836013 0.125763 0.831467
0.733393 0.237358 2.45262
0.752582 0.262032 3.7237
0.772855 0.253866 4.98723
0.852617 0.432373 -3.67169
0.750565 0.467479 3.69611
0.773559 0.458394 4.96158
0.873566 0.819826 -3.61754
0.747151 0.820599 3.6253
0.771887 0.842273 4.90296
0.847462 1.46209 -3.58651
0.838615 1.47641 -2.32669
0.821137 1.50984 -0.776327
0.786961 1.51539 0.760915
0.754367 1.47719 2.31149
0.755271 1.46003 3.5718
0.765813 1.46273 4.84397
1.66864 0.229752 -3.68675
1.644 0.232223 -2.41628
1.64978 0.196916 -0.800901
1.65779 0.135133 0.824909
1.55694 0.202009 2.44116
1.54301 0.236039 3.71593
1.55896 0.239381 4.98272
1.67874 0.433822 -3.67067
1.65022 0.443414 -2.40586
1.64833 0.426452 -0.800573
1.67114 0.353654 0.809383
1.54513 0.409757 2.41566
1.53273 0.440998 3.6897
1.55454 0.444851 4.95818
1.70607 0.829601 -3.62396
1.70225 0.837274 -2.35702
1.69004 0.864224 -0.78707
1.65163 0.841802 0.779205
1.53251 0.787165 2.35015
1.52696 0.815756 3.62632
1.55138 0.837109 4.90317
1.68858 1.46844 -3.59286
1.68095 1.48227 -2.33368
1.65909 1.50965 -0.780547
1.61424 1.51039 0.761413
1.56552 1.47642 2.31509
1.55419 1.46127 3.5754
1.56022 1.46336 4.84659
-0.850133 0.63 -2.3864
0 0.39268 -2.46332
-0.837776 0.402224 -1.60398
-0.71193 0.62792 2.38998
0 0.425193 2.48091
-0.801803 0.398196 1.62408
0 0.845051 -2.37161
-0.882598 0.845238 -1.56044
0 0.790555 2.35471
-0.804732 0.857932 1.56391
0.850114 0.63 -2.3864
0.837788 0.402212 -1.60398
0.712641 0.62792 2.39069
0.801862 0.398138 1.62408
0.882601 0.845241 -1.56048
0.804759 0.857959 1.5639
-0.807726 0.412274 0.0100499
-0.883629 0.641054 -0.78816
2.79355e-06 0.277845 -0.796967
-0.883618 0.601089 0.799945
-2.11788e-06 0.272613 0.817067
-0.851666 0.859586 0.00173497
7.21238e-06 1.0676 -0.77937
5.3026e-06 1.32856 0.782815
0.807731 0.412269 0.0100499
0.883635 0.641058 -0.788177
0.883644 0.601096 0.799937
0.851661 0.859581 0.00171006
-0.887235 0.635527 -1.58221
-0.883637 0.621071 0.00589246
-0.870251 0.614504 1.594
1.39677e-06 0.272326 -1.60398
3.37833e-07 0.286284 0.0100499
-1.05894e-06 0.31394 1.62408
0 0.63 -2.47097
0 0.62792 2.45074
3.60619e-06 0.911214 -1.56046
6.25749e-06 1.32855 0.00172251
2.6513e-06 0.935487 1.56391
0.887234 0.635529 -1.58223
0.883642 0.621077 0.00588
0.870254 0.614508 1.59399
-1.22652 0.444205 -2.40842
-0.807455 0.340412 -2.41607
-0.803326 0.438686 -3.04134
-1.12436 0.442377 2.42338
-0.755785 0.356178 2.44186
-0.727675 0.471239 3.06361
-1.28887 0.826133 -2.34925
-0.850295 0.817412 -2.97952
-0.866796 1.1457 -2.33409
-1.11312 0.784 2.34758
-0.72048 0.800719 2.98515
-0.771149 1.12901 2.32825
0.809163 0.340412 -2.41608
0.828808 0.438686 -3.04135
1.22761 0.444207 -2.40843
0.724196 0.356179 2.44186
0.732783 0.471239 3.0636
1.13006 0.442379 2.42338
0.874283 0.817413 -2.97956
0.856808 1.14571 -2.33413
1.28863 0.826137 -2.3493
0.726075 0.80072 2.98515
0.729683 1.12902 2.32824
1.11876 0.784002 2.34757
-1.22585 0.42631 -0.798762
-0.805664 0.311558 -0.798603
-1.26913 0.344649 0.813229
-0.863449 0.230706 0.824267
-1.28249 0.860073 -0.783191
-0.867101 1.18288 -0.777829
-1.24202 0.854158 0.781026
-0.846943 1.19096 0.771877
0.813614 0.311554 -0.798604
1.22608 0.426308 -0.79877
0.855179 0.230709 0.824267
1.27274 0.344655 0.813225
0.845904 1.18289 -0.777857
1.28036 0.860088 -0.783229
0.811469 1.19096 0.771861
1.24381 0.85417 0.781006
-1.63658 0.230985 -3.05149
-1.6384 0.331783 -3.67868
-1.21932 0.230578 -3.6884
-1.63945 0.214568 -1.60858
-1.64299 0.337816 -2.41105
-1.22393 0.234022 -2.41871
-1.65126 0.166021 0.0120131
-1.64442 0.311682 -0.800724
-1.22423 0.19693 -0.800565
-1.62122 0.168566 1.63304
-1.66274 0.244387 0.817154
-1.25706 0.130444 0.828192
-1.56616 0.21902 3.07855
-1.55729 0.305879 2.42842
-1.18872 0.219681 2.4469
-1.55497 0.237706 4.34933
-1.53494 0.338515 3.70282
-1.16123 0.249033 3.71982
-1.5497 0.342111 4.97046
-1.16685 0.24662 4.98498
-1.64481 0.438614 -3.03824
-1.65729 0.631706 -3.64728
-1.22161 0.433094 -3.67116
-1.64796 0.43493 -1.6032
-1.67539 0.640338 -2.3814
-1.6559 0.390048 0.00441686
-1.6711 0.645329 -0.793792
-1.59882 0.3817 1.61253
-1.656 0.597718 0.794309
-1.52607 0.425374 3.05268
-1.52747 0.598457 2.38291
-1.52968 0.44292 4.32395
-1.5154 0.628373 3.65802
-1.12939 0.454236 3.69291
-1.53967 0.640975 4.93069
-1.15085 0.451619 4.95989
-1.68788 0.83343 -2.99044
-1.6804 1.14901 -3.60836
-1.2493 0.82471 -3.62071
-1.69854 0.850737 -1.57199
-1.70172 1.15976 -2.3453
-1.6712 0.852999 -0.0038998
-1.69639 1.18692 -0.783767
-1.58465 0.814474 1.56469
-1.6611 1.17608 0.770335
-1.51681 0.801456 2.98824
-1.57712 1.13178 2.33263
-1.52539 0.826427 4.26476
-1.56005 1.13851 3.60087
-1.12417 0.818175 3.62581
-1.56878 1.15023 4.87489
-1.14874 0.839687 4.90307
-1.69425 1.47535 -2.96322
-1.26646 1.46526 -3.58965
-1.69958 1.49595 -1.55707
-1.27965 1.47933 -2.33015
-1.68629 1.51001 -0.00953249
-1.281 1.50973 -0.778406
-1.65357 1.49339 1.53827
-1.26602 1.51288 0.761186
-1.62036 1.46883 2.94526
-1.23515 1.4768 2.3133
-1.60344 1.46231 4.21101
-1.21259 1.46064 3.57361
-1.2037 1.46304 4.84529
-0.806663 0.233615 -3.05561
-0.802535 0.331889 -3.68088
0.0194433 0.231408 -3.69008
-0.808704 0.216385 -1.61069
0.0017085 0.235823 -2.42115
-0.830024 0.161353 0.015614
0.00794741 0.196945 -0.800241
-0.824559 0.181558 1.64205
-0.00826809 0.125762 0.831467
-0.783781 0.249694 3.08817
-0.0315881 0.237357 2.45262
-0.773113 0.257947 4.35547
-0.755671 0.364754 3.70991
-0.0092058 0.262032 3.7237
-0.767995 0.356127 4.97441
-0.00118865 0.253864 4.98723
-0.813621 0.626098 -3.6446
0.0254822 0.432372 -3.67169
-0.750554 0.462935 4.32885
-0.738154 0.644038 3.6607
0.00510785 0.467478 3.69611
-0.759913 0.650331 4.93227
0.00640071 0.458393 4.96158
-0.83536 1.14095 -3.602
0.0239882 0.819825 -3.61753
-0.747514 0.831434 4.26413
-0.776708 1.14031 3.59855
0.00559557 0.820599 3.6253
-0.783651 1.1525 4.87347
0.00640864 0.842272 4.90296
-0.851862 1.46924 -2.95657
0.00116536 1.46208 -3.5865
-0.861069 1.49312 -1.55148
-0.00998852 1.47641 -2.32667
-0.860733 1.51261 -0.00768767
-0.021204 1.50983 -0.776316
-0.847609 1.49629 1.53621
-0.0354795 1.51539 0.760922
-0.827377 1.46861 2.94165
-0.0414652 1.47719 2.31149
-0.812845 1.46138 4.20789
-0.0310922 1.46003 3.5718
-0.02121 1.46273 4.84397
0.827815 0.233616 -3.05562
0.84746 0.331891 -3.68089
1.25547 0.230581 -3.68842
0.81836 0.216383 -1.6107
1.22866 0.234023 -2.41871
0.829703 0.161353 0.0156123
1.23659 0.19693 -0.800572
0.784703 0.181561 1.64205
1.2469 0.130448 0.828188
0.742987 0.249695 3.08816
1.14517 0.219684 2.44689
0.762718 0.257949 4.35547
0.751574 0.364756 3.70991
1.1478 0.249036 3.71982
0.773207 0.35613 4.9744
1.16591 0.246623 4.98498
0.863091 0.626099 -3.64462
1.26568 0.433097 -3.67118
0.762062 0.462936 4.32884
0.748858 0.644039 3.6607
1.14165 0.454239 3.6929
0.772723 0.650333 4.93227
1.16405 0.451622 4.95988
0.860514 1.14096 -3.60203
1.28982 0.824714 -3.62075
0.759519 0.831436 4.26413
0.751211 1.14031 3.59855
1.13705 0.818178 3.62581
0.76885 1.1525 4.87346
1.16163 0.839691 4.90306
0.843039 1.46925 -2.9566
1.26802 1.46526 -3.58968
0.829876 1.49312 -1.55151
1.25978 1.47934 -2.33018
0.804049 1.51261 -0.00770605
1.24011 1.50974 -0.778437
0.770664 1.49629 1.5362
1.2006 1.51289 0.761164
0.754819 1.46861 2.94164
1.15995 1.47681 2.31329
0.760542 1.46138 4.20788
1.15473 1.46065 3.5736
1.16302 1.46305 4.84528
1.65632 0.230988 -3.05151
1.67369 0.331787 -3.67871
1.64689 0.214569 -1.60859
1.64711 0.337819 -2.41107
1.65379 0.166024 0.0120039
1.64906 0.311684 -0.800737
1.60737 0.168571 1.63304
1.66447 0.244393 0.817146
1.54998 0.219024 3.07855
1.55103 0.305883 2.42841
1.55099 0.23771 4.34933
1.53787 0.338519 3.70281
1.55675 0.342116 4.97045
1.66448 0.438618 -3.03827
1.69241 0.631711 -3.64731
1.64927 0.434933 -1.60322
1.67624 0.640344 -2.38144
1.65974 0.390053 0.00440483
1.66919 0.645338 -0.793822
1.60813 0.381705 1.61252
1.66139 0.597728 0.794294
1.53893 0.425378 3.05268
1.53882 0.598461 2.38291
1.54364 0.442924 4.32394
1.52984 0.628377 3.65801
1.55296 0.64098 4.93068
1.70416 0.833437 -2.99049
1.69732 1.14902 -3.60841
1.69615 0.850749 -1.57204
1.6916 1.15977 -2.34535
1.67084 0.853013 -0.00393249
1.67457 1.18694 -0.783809
1.59207 0.814484 1.56468
1.63294 1.1761 0.770309
1.52973 0.80146 2.98824
[...]
POINT_DATA 29498
VECTORS point_vectors float
-7.77788 -4.42891 9.97201
0.363738 0.192485 1.13834
-3.90446 3.39767 7.70648
-0.281962 -0.238688 0.261002
7.80451 -4.45957 10.0013
-0.349959 0.189215 1.11922
3.91647 3.39513 7.72794
0.285366 -0.254448 0.273664
0.00259585 -0.00394212 0.0379554
-0.935495 0.638825 2.45229
-0.416551 -0.203768 0.791741
0 0 0
-0.00275967 -0.00416187 0.0380933
0.96169 0.640066 2.5065
0.422715 -0.207703 0.799463
0 0 0
-0.493405 -0.0932569 19.834
-1.31199 -0.387922 20.366
-0.490877 -0.298004 21.2035
-0.0150776 -0.0519818 21.4533
0.773159 0.149331 21.3556
0.946115 0.0883564 21.0813
1.07379 0.0582807 20.7852
-0.521843 -0.0380667 19.809
-1.38815 -0.199789 20.3571
-0.593045 -0.333606 21.1933
0.011397 -0.0949448 21.5104
0.88497 0.00844523 21.3959
1.11782 -0.0527998 21.1886
0.864576 -0.179689 21.2631
-0.524421 0.0765775 19.8263
-1.30587 0.145742 20.3841
-0.860949 -0.239313 21.1529
-0.0510656 -0.24114 21.5564
0.852507 -0.354859 21.461
1.09714 -0.385854 21.0163
0.820688 -0.387739 20.3362
-0.417539 0.220616 19.9247
-0.903201 0.424276 20.3506
-0.868887 0.187394 21.0477
-0.245975 -0.106168 21.4549
0.289146 -0.411482 21.2951
0.485311 -0.42394 20.9447
0.374352 -0.278618 20.9137
-0.491246 -0.245447 19.2802
-5.09417 -4.8332 19.3176
0.639428 -0.507342 13.1855
-0.12144 -1.48845 15.7443
1.35569 0.996798 12.3
1.98885 1.33353 15.6912
1.79731 0.964487 15.4584
-0.535684 -0.108041 19.2058
2.12622 0.819704 12.1557
1.7506 0.674014 14.5254
-0.574249 0.169375 19.154
1.74805 -0.394858 8.32965
1.39017 -0.00636238 13.738
-0.408688 0.462827 19.5278
-1.34429 1.73896 20.0864
-2.13677 1.65716 20.8853
-0.534511 0.0338991 21.6968
0.146888 -0.683163 20.2338
0.547937 -1.10725 19.1094
0.319889 -1.01274 19.0306
0.500176 -0.231499 19.3102
5.08019 -4.76272 19.3655
-0.628376 -0.468512 13.8377
-0.0260074 -1.50583 15.4373
-1.11138 1.04037 10.6365
-1.85951 1.37214 15.3388
-1.49798 1.23029 15.3193
0.547687 -0.102785 19.2495
-2.13324 0.828421 12.3404
-1.79972 0.467265 15.1899
0.579337 0.159258 19.207
-1.69668 -0.487445 8.56313
-0.909103 0.17617 13.8278
0.407195 0.461537 19.523
1.3372 1.77983 20.0767
2.15846 1.82124 20.8408
0.533861 0.0757475 21.4848
-0.167745 -0.636459 18.7253
-0.531605 -1.07842 18.8128
-0.317293 -1.0068 18.8958
0.482667 -0.0885931 19.8302
1.30032 -0.383446 20.3617
0.484127 -0.297214 21.2049
0.00983735 -0.0551173 21.4496
-0.784217 0.149383 21.3459
-0.919704 0.153461 20.8642
-0.941999 0.0788023 20.4839
0.508437 -0.0350585 19.8111
1.38589 -0.200392 20.3587
0.587031 -0.337439 21.1995
-0.0173361 -0.0960421 21.5098
-0.863496 0.00391586 21.3753
-1.05023 0.0327417 20.7673
-0.959553 -0.107089 20.7215
0.520097 0.0727347 19.8388
1.30745 0.145632 20.39
0.860646 -0.242219 21.1562
0.0517216 -0.241087 21.5474
-0.830208 -0.337269 21.4886
-1.03412 -0.34042 20.7642
-0.951918 -0.0689597 20.8459
0.413461 0.219867 19.9255
0.91339 0.43982 20.3488
0.911404 0.205578 21.0554
0.266838 -0.109363 21.4705
-0.288803 -0.430891 21.3108
-0.455755 -0.429404 21.0572
-0.369713 -0.246455 20.9526
-4.04406 -0.505232 2.66937
-0.00361492 -1.65886 1.11282
0.0444864 -0.110542 0.719256
-0.0435893 -0.0539124 0.032962
-0.0110922 -0.00782055 0.0522845
0 0 0
-0.000689057 1.07889 1.22207
-0.236326 -0.244416 1.80985
-0.00286793 0.019191 -0.0481653
0.00655857 -0.00782949 0.117134
4.07058 -0.533839 2.63519
-0.0357591 -0.0952047 0.625934
0.0540338 -0.057134 0.0357202
0 0 0
0.236751 -0.245355 1.81387
-0.00777976 -0.00700525 0.120125
-0.000454522 0.000360793 0.0201028
0 0 0
2.98745e-05 8.31802e-06 0.0114441
0 0 0
0.000164308 0.00642839 0.407586
0 0 0
-0.000226049 -0.00627469 0.0104815
0 0 0
0.000358882 0.000238583 0.0202652
0 0 0
0 0 0
2.24914e-18 -3.35683e-18 -1.25139e-17
2.29521e-07 -6.08492e-06 2.48224e-05
5.8998e-06 0.000186136 0.00127131
0 0 0
-6.85709e-08 7.52742e-08 2.38898e-05
-2.82268e-07 3.40677e-05 0.00362937
-0.00117344 0.0165856 0.166139
0 0 0
-0.00352642 -0.00364532 -0.0017946
1.10848e-06 9.70707e-05 0.0020237
-1.05967e-06 4.4581e-06 0.000275848
0 0 0
-3.35394e-07 -8.94352e-06 3.6601e-05
-6.25269e-06 0.000182133 0.00127439
0 0 0
-3.0421 -0.701668 20.2919
-8.60812 -6.46338 19.3181
-1.60316 -0.497614 18.0644
1.63717 0.173734 19.2477
1.15225 0.667712 6.79506
1.78012 0.605442 8.24839
-2.57912 0.441528 20.4382
-1.76956 0.661491 18.1203
-2.68304 2.79976 20.0772
1.34245 -0.391655 17.685
0.5878 -0.418987 4.10697
0.293641 -0.298571 8.34277
8.58649 -6.41941 19.3697
1.63913 -0.496088 18.1197
3.04105 -0.694778 20.2946
-0.950759 0.684966 5.65946
-1.7451 0.594915 8.30096
-1.59759 0.174491 19.3327
1.77104 0.640906 18.2037
2.68116 2.87671 20.0684
2.58274 0.445888 20.4437
-0.602197 -0.387732 4.20334
-0.147222 -0.310228 7.05576
-1.33317 -0.388197 17.8235
-0.464413 -0.622088 21.0615
0.594637 -0.57756 6.47115
-0.0337539 -0.00553683 21.3506
-1.87982 -1.38865 8.56405
-1.41142 -0.802494 21.3641
-3.77408 1.17091 18.7365
0.144575 -0.42456 20.0994
0.394315 0.818839 10.1438
-0.653549 -0.623449 6.87219
0.453274 -0.61855 21.0667
1.56164 -1.64596 7.93553
0.0244779 -0.01023 21.3746
3.93816 1.19336 18.3192
1.40438 -0.810954 21.3691
-0.498281 0.948259 8.05206
-0.140148 -0.433559 20.1616
-0.902568 -0.225563 19.899
-0.508907 -0.0638708 19.8199
-0.551301 -0.175651 19.5766
-0.873668 -0.330889 21.0142
-1.36263 -0.294108 20.3564
-2.39612 -1.08354 20.2904
-0.233252 -0.181268 21.3287
-0.531578 -0.315657 21.2041
-0.415007 -0.403666 21.3893
0.38776 0.0648364 21.5002
-0.002037 -0.0646541 21.4825
-0.140384 -0.0251065 21.5648
0.920885 0.166978 21.1348
0.839293 0.0868735 21.3668
1.2437 0.510032 21.0107
0.946827 0.0860527 20.9058
1.03 0.00321732 21.1684
1.51898 0.532393 20.3294
0.969184 -0.0607043 21.0242
1.08213 0.334692 21.1062
-0.972403 -0.111979 19.8508
-0.520446 0.0082117 19.8197
-0.597785 -0.0715619 19.5254
-0.957961 -0.27794 21.0189
-1.38554 -0.0566386 20.3792
-0.267823 -0.236691 21.3815
-0.683163 -0.328551 21.1848
0.449927 -0.0239207 21.5537
0.00214289 -0.160738 21.5303
1.08873 0.0153736 21.3206
0.901521 -0.165921 21.4393
1.01836 0.0403851 20.8965
1.12191 -0.254305 21.3654
1.97726 0.217535 19.2206
0.815433 -0.309075 20.9669
1.02485 0.0342137 20.2741
-0.945734 0.121482 19.9016
-0.501181 0.160807 19.8552
-0.614724 0.126933 19.5301
-1.062 -0.0675898 20.8821
-1.15946 0.329786 20.3479
-0.475894 -0.282222 21.4311
-0.946484 -0.0404908 21.1066
0.41287 -0.260535 21.6062
-0.176679 -0.216104 21.523
1.05621 -0.356275 21.2654
0.521868 -0.456351 21.3678
0.903112 -0.389843 21.3151
0.877737 -0.490881 20.7198
1.62682 -0.548399 19.0452
0.60121 -0.362078 20.3373
0.904504 -0.563401 18.8495
-0.689942 0.350365 20.031
-0.470279 0.320245 19.7189
-0.943264 0.334398 20.733
-1.26173 0.874869 20.2508
-0.636748 0.0416701 21.3672
-1.45112 0.516537 21.0894
0.0595875 -0.273488 21.4117
-0.396695 -0.101516 21.691
0.43453 -0.434553 21.1675
0.242142 -0.616042 21.4417
0.432227 -0.548491 20.88
0.552141 -0.835432 21.2285
0.430054 -0.60695 20.1225
-1.35379 -0.911335 18.4716
-0.5159 -0.182712 19.2384
0.00895991 -0.3465 18.9507
0.212846 -0.531151 13.7415
0.00228094 -10.9877 18.874
0.31183 -0.316549 15.0963
0.00658557 -0.0223063 5.13796
0.847435 0.869561 10.9245
0.00444953 -0.109024 10.2784
1.64558 1.24344 14.5246
-0.0948287 0.432588 5.55819
1.93845 0.948001 15.1249
2.10321 1.09628 13.919
-0.0204696 1.13538 8.17147
1.77395 0.819251 14.9919
0.0456988 0.817898 12.7026
-0.565024 0.0114666 19.1643
0.0157503 -0.144002 18.8008
2.1664 0.838963 14.2294
2.1414 0.27709 9.77354
0.206565 -0.31687 0.676462
1.68105 0.375758 13.8768
0.0672904 0.801766 9.67746
-0.514122 0.374575 19.3366
0.0101264 0.25109 18.7374
1.92786 -0.188479 11.919
0.816377 -1.17177 13.0307
0.626125 0.453386 -3.6238
0.647248 -0.801881 17.3178
0.157019 0.709993 3.82136
-0.877379 1.13659 19.3962
0.000394051 0.626618 19.2668
-1.4581 1.33016 20.6292
-0.0219163 2.8315 19.9284
-1.4212 0.719849 22.1825
-0.0924582 4.26088 20.0032
-0.0285914 -0.465609 20.7654
-0.0122055 0.205834 15.1894
0.344462 -0.950433 20.0956
-0.0621961 -0.101589 11.5451
0.480074 -1.07593 19.7525
-0.105675 -0.663824 12.0466
-0.0292724 -0.574359 13.878
1.36379 -0.89253 18.5141
0.528207 -0.176154 19.2745
0.558973 -0.169323 19.6099
-0.11024 -0.624795 13.927
2.37602 -1.06982 20.2949
-0.361263 -0.279013 15.1479
0.413697 -0.405801 21.3793
-0.654278 0.8815 9.5826
0.140473 -0.0256366 21.5416
-1.53071 1.27663 13.7784
-1.28618 0.55392 20.7136
-1.47191 1.39466 14.7602
-2.08837 1.07814 13.6559
-1.46333 0.563959 20.3202
-1.64885 0.848776 15.2546
-1.02618 0.170557 20.5896
0.575015 0.0118122 19.2091
0.608933 -0.0649027 19.5626
-1.98968 1.03094 13.531
-2.10529 0.295682 10.0756
-1.87274 0.219899 19.8369
-1.4703 0.32757 14.3017
-1.21941 -0.38446 20.448
0.516516 0.370777 19.3506
0.618062 0.118953 19.5608
-1.68378 -0.0345253 12.033
-0.797317 -1.18545 12.2625
-1.66568 -0.546744 19.0392
-0.432752 -0.699709 17.0396
-0.821381 -0.526817 19.1938
0.87337 1.14464 19.3899
0.477005 0.318131 19.7201
1.45223 1.38459 20.6232
1.27674 0.90847 20.2454
1.4676 0.844678 22.2646
1.52552 0.584634 21.0846
-0.0428496 -0.446732 19.7497
0.424833 -0.0847822 21.744
-0.336573 -0.94151 18.9993
-0.216593 -0.643413 21.4527
-0.465434 -1.12289 19.4945
-0.544679 -0.922877 21.2142
-0.306262 -0.643087 20.0147
0.888698 -0.22192 19.9176
0.496631 -0.0586094 19.8176
0.869235 -0.330504 21.0107
1.35646 -0.29205 20.3547
0.223885 -0.182755 21.3268
0.525566 -0.315723 21.208
-0.39602 0.0661055 21.5019
-0.00436499 -0.0658278 21.4825
-0.939309 0.173557 21.1446
-0.834331 0.0824718 21.3559
-1.15149 0.32129 20.4187
-0.985003 0.0946841 20.8245
-0.950776 -0.0141433 20.6027
0.954722 -0.114535 19.864
0.51111 0.00630869 19.8244
0.958682 -0.277792 21.0219
1.38607 -0.0571546 20.3814
0.261393 -0.238529 21.3791
0.678265 -0.331893 21.1881
-0.440673 -0.0270122 21.541
-0.00273395 -0.162495 21.5201
-1.05992 0.0328976 21.1504
-0.874141 -0.158659 21.4372
-0.889649 -0.0249906 20.8075
-1.09057 -0.108395 20.8346
-0.949716 -0.121488 20.8138
0.932573 0.122546 19.9259
0.495614 0.158407 19.8568
1.0611 -0.0693645 20.89
1.17217 0.336862 20.3497
0.47141 -0.282591 21.4282
0.973631 -0.0408809 21.1118
-0.405977 -0.257801 21.5928
0.180605 -0.227271 21.5318
-1.02444 -0.339764 21.2518
-0.520328 -0.464301 21.3747
-1.01633 -0.289837 20.9052
-0.812411 -0.546968 20.7638
-0.839984 -0.151303 20.7357
0.690508 0.352812 20.0281
0.959711 0.345885 20.7358
0.662905 0.0478296 21.3877
-0.0562389 -0.28484 21.4165
-0.452561 -0.485396 21.1525
-0.483876 -0.52697 21.0183
-0.939132 -0.167001 19.8755
-1.50318 -0.734201 18.256
-1.23712 -0.499643 19.3848
-1.43696 -0.278312 19.2428
-0.577076 -0.121046 19.5433
-2.7855 -0.945774 20.2672
-0.918483 -0.305687 21.0171
0.539536 -0.553875 5.54199
-1.06058 -0.538432 21.4312
-1.16925 -0.495898 21.6003
-0.426755 -0.508288 21.335
-0.239744 -0.203545 21.3514
0.179663 -0.182057 9.12499
-0.19228 -0.182821 21.4175
-0.0853995 -0.29588 20.8977
-0.111379 -0.00329027 21.5463
0.430758 0.0246919 21.5409
0.869452 0.279165 2.8911
0.674975 0.311288 21.527
0.90335 0.127347 20.5343
1.48588 0.376668 20.3545
1.01208 0.093615 21.2158
1.74661 0.933699 11.5196
1.44417 0.616137 20.515
1.81822 0.238188 19.4778
1.82598 0.364599 19.4882
0.992116 0.059434 20.9264
2.06203 0.88109 14.7193
1.28211 0.375062 20.3235
1.53631 0.215678 19.6671
1.04269 0.175018 20.7837
-0.977956 -0.0162385 19.8622
-1.78412 0.072365 17.9474
-1.44653 0.310015 19.3283
-0.618721 0.00935626 19.5139
-3.0705 -0.0334835 20.373
-0.997771 -0.19275 20.9713
-1.40908 -0.274117 21.1665
-0.757867 -0.840384 21.3251
-0.334962 -0.27698 21.4033
-0.511006 -0.797518 21.0334
0.225339 -0.143793 20.8955
0.449214 -0.135359 21.5714
0.81077 -0.233053 18.9589
1.61277 -0.177279 18.42
1.11 -0.173279 21.3542
1.19756 0.0609856 5.55499
1.62466 -0.493054 18.426
1.97318 -0.065934 19.3239
0.984678 -0.140824 21.0177
2.19267 0.507606 13.3253
1.58597 -0.645215 18.4016
0.977922 -0.247768 19.4463
-0.854551 0.282517 19.9424
-1.30487 1.16278 18.8403
-0.879427 0.630574 19.7796
-0.552984 0.255341 19.6064
-1.87237 0.871827 20.2935
-1.04127 0.133711 20.8164
-2.48527 1.15057 20.8877
-1.28948 0.625768 20.7256
-1.85935 -0.000638803 21.1975
-0.592991 -0.147872 21.4225
-0.782065 0.226248 13.2493
-0.992169 0.189307 21.6388
-0.397057 -0.345244 21.4119
0.216522 -0.334893 21.4995
0.646792 0.207703 8.8814
0.00449621 -0.386263 21.5663
0.55399 -0.787952 20.3188
0.71995 -0.482849 21.1509
0.597321 -0.713495 11.0026
0.452166 -0.764442 21.1106
1.0046 -0.827214 19.6459
0.650474 -0.424172 21.1847
1.11728 -1.09533 15.0401
0.578716 -0.738993 20.7193
0.63857 -0.703469 19.222
1.53728 -0.734677 18.3017
0.0244394 -1.52323 17.2462
0.0393848 -0.855657 16.5666
0.0120852 -0.247502 18.8717
-0.00623217 -8.45825 10.1406
-0.454812 -0.581207 5.44152
-0.00350223 -0.0308148 4.3058
0.000570188 -0.00278039 0.2137
-0.24499 -0.200235 9.19577
0.00858044 0.00799147 7.63967
0.0104515 -0.138768 5.36921
-0.620744 0.374567 2.21671
-0.0298186 0.319706 7.82409
-0.0820955 0.137764 1.11862
-1.65425 0.971501 10.9447
-0.0723946 0.5554 6.56243
-0.0995125 -0.0119268 -0.416867
0.171445 0.270122 4.34614
-1.72832 1.21901 14.1307
0.138902 1.47138 12.3783
-0.00965472 1.47463 6.18982
0.0564946 0.809832 11.19
1.82105 0.0709483 18.0054
0.029814 1.36555 16.2506
0.0137808 0.0141328 18.7423
-1.19619 0.0588201 5.676
0.120274 0.204541 -4.19687
0.449466 -0.255677 -1.78445
-1.96381 0.637711 12.9068
-0.0805882 0.38335 -1.01708
0.124908 0.794083 6.8301
1.30647 1.14851 18.851
-0.00552264 1.68475 18.9594
0.00617384 0.5073 18.9522
-0.0153408 5.01671 20.0142
2.46655 1.21671 20.8379
-0.0369419 2.30905 20.3432
-0.06483 3.20982 10.4266
0.38078 0.580209 10.8795
-0.0596312 1.60359 20.0256
0 0 0
-0.593982 0.173496 7.10949
-0.0382954 -0.0919273 12.3398
-0.15231 0.961137 -2.54896
-0.553258 -0.684757 10.0718
-0.0442645 -0.457742 11.8933
0.138566 0.780698 -2.16493
-1.12452 -1.09648 14.4111
0.049033 -0.761938 13.0472
0.0345216 -0.177781 5.14671
0.924339 -0.165845 19.8972
1.22481 -0.484233 19.4296
1.40548 -0.259935 19.2947
0.586522 -0.115515 19.5805
2.76877 -0.93625 20.2712
0.915793 -0.305187 21.0172
1.07332 -0.540603 21.4289
1.17907 -0.490127 21.6068
0.423238 -0.502431 21.3511
0.233106 -0.205647 21.3473
0.179219 -0.179712 21.4072
0.0723707 -0.29947 20.9216
0.107618 -0.00609313 21.5297
-0.430324 0.0231367 21.5312
-0.689312 0.332611 21.4512
-0.886191 0.121229 20.5822
-1.48114 0.39102 20.112
-1.0069 0.106331 21.1473
-1.45481 0.641306 20.3658
-1.77688 0.229081 19.5589
-1.73233 0.39228 19.9689
-1.05165 0.170804 20.5835
-1.38015 0.472948 20.3048
-1.67604 0.147888 19.6252
-1.16031 -0.235372 20.5113
0.961807 -0.0125114 19.8804
1.42646 0.296272 19.3737
0.631549 0.0156854 19.5491
3.07184 -0.0285222 20.3762
0.999472 -0.194628 20.9752
1.40941 -0.27254 21.1775
0.746061 -0.846294 21.3197
0.328114 -0.278243 21.4003
0.507518 -0.806476 21.0385
-0.225043 -0.15506 20.948
-0.443024 -0.13378 21.5568
-0.806777 -0.245695 19.0683
-1.59421 -0.167894 18.5352
-1.07975 -0.142703 21.2085
-1.58841 -0.479954 18.5754
-1.93902 -0.0926086 19.7466
-0.945887 -0.1839 20.7811
-1.38798 -0.501884 19.4517
-1.30202 -0.537018 20.3093
0.854862 0.277793 19.9455
0.881138 0.638319 19.7751
0.550079 0.250412 19.6227
1.89062 0.895873 20.2886
1.05076 0.133813 20.8216
1.31824 0.660208 20.7285
1.93534 0.0127048 21.1928
0.610103 -0.15919 21.4327
1.05353 0.238469 21.6966
0.423213 -0.354947 21.2127
-0.214701 -0.345042 21.4985
0.016143 -0.403932 21.6337
-0.562424 -0.753266 19.7523
-0.709674 -0.508117 21.1234
-0.409145 -0.783449 21.2324
-1.08099 -0.823881 19.3927
-0.725327 -0.417391 21.2866
-0.522565 -0.77645 20.7732
-0.509856 -0.812252 18.8978
-1.35951 -0.383351 19.2999
-1.10907 -0.523185 21.4859
-0.153162 -0.229898 21.2594
0.80499 0.228939 21.1089
1.65139 0.463458 20.3206
1.41952 0.302386 19.8943
-1.49714 0.0233996 19.2261
-1.24161 -0.387617 21.5017
-0.061055 -0.564899 21.0429
0.952058 -0.070419 19.9888
1.88635 -0.16887 19.2761
1.58902 -0.171411 19.1361
-1.17546 0.601056 19.5444
-1.59094 0.245204 20.876
-1.13573 -0.235988 21.7069
0.182392 -0.564586 20.8059
0.826691 -0.919803 20.3661
1.31616 -0.831461 18.7705
0.0362725 -1.21587 16.8381
0 0 0
-2.9851e-05 0.0188585 2.2342
-0.0229248 0.200434 2.46401
-0.0850917 0.255 2.86192
0.0718668 1.47508 9.33164
0.0415625 0.191833 16.0372
0.0134491 -0.00635442 -3.03542
-0.0561554 1.00978 2.26366
0.00862039 1.97139 17.8664
-0.0256814 2.48187 19.3364
0 0 0
-0.0875629 0.640815 -1.0048
-0.151955 0.217031 -2.59204
-0.197994 -0.526623 -0.0715908
1.33117 -0.368693 19.3508
1.12166 -0.51588 21.4881
0.139028 -0.23016 21.2585
-0.809999 0.229007 21.0122
-1.64256 0.469829 20.2425
-1.63041 0.296915 19.6733
1.46707 0.0258777 19.2822
1.24548 -0.382946 21.5138
0.0542855 -0.571374 21.0663
-0.942627 -0.0789618 20.0886
-1.85544 -0.154989 19.4443
-1.60942 -0.097789 19.9422
1.16997 0.595482 19.5517
1.61696 0.254402 20.8834
1.17991 -0.241229 21.6182
-0.187158 -0.570037 20.5512
-0.848395 -0.893633 19.9591
-1.11892 -0.887661 18.3328
-8.2893 -2.93051 7.56043
-0.445627 -1.7912 1.20271
-0.0151498 -0.100797 1.34548
0.154415 -0.0808134 0.337646
-0.0129812 -0.000959689 0.00892127
0.0203342 0.00310827 0.124566
-9.99801 1.89873 11.1354
-0.0230443 0.388413 0.940779
-0.254413 -0.164048 1.82425
-0.0172738 -0.229006 0.209306
-0.0964204 0.0574416 -0.0864106
-0.00320246 -0.00395605 0.0207377
0.449353 -1.80825 1.18997
8.23236 -2.9035 7.52608
0.0469525 -0.060317 1.2533
0.0117467 -0.00275193 0.00786753
-0.146353 -0.0805075 0.329124
-0.0197798 0.0046629 0.129319
0.0225946 0.386653 0.942333
9.96051 2.00698 10.9892
0.252705 -0.161848 1.82462
0.101575 0.0722848 -0.11161
0.0244403 -0.221017 0.20115
0.00291509 -0.0037954 0.0205427
0 0 0
0.000204953 -0.000638858 0.0322092
0.00556034 -0.0129696 0.123921
0 0 0
0.134518 -0.243358 2.40713
-0.000776079 0.000631312 0.0119417
-0.0113295 0.0357266 0.402758
0 0 0
-0.421017 -0.403102 1.40099
0 0 0
0.000757731 0.00109677 0.00638661
-0.000573349 -0.000146106 0.000140449
0 0 0
0.000176578 0.00822342 0.0416006
0 0 0
0 0 0
0 0 0
0 0 0
-0.000503818 -0.000988802 0.0328587
-0.00595671 -0.0136659 0.123929
-0.14259 -0.235292 2.41127
0 0 0
0.00082046 0.00068063 0.0123778
0.00883142 0.0371057 0.407297
0.417841 -0.401557 1.4084
0 0 0
0 0 0
-0.000779182 0.00112139 0.0066976
0 0 0
0 0 0
-0.00017452 0.00817604 0.0411817
0 0 0
-0.000699908 -0.00178864 0.0148659
-0.114245 -0.00198341 0.0412366
-6.62157e-07 -2.33584e-06 9.46309e-05
0 0 0
0 0 0
0.00164415 -0.000518865 0.0450603
0 0 0
-0.016863 -0.00247677 -0.00217741
0 0 0
-0.000350329 -0.0376002 0.00603066
0.0658671 -0.0911272 0.579827
-0.206749 0.119524 1.82769
-0.00035758 0.182582 0.119033
1.85997e-05 0.00388724 0.0477427
0 0 0
0 0 0
-0.0138197 0.0161437 -0.0388386
-0.000845813 0.00261695 -0.0151536
0.00252817 -0.00200741 0.043386
0 0 0
0.119736 -0.00630342 0.042727
0.000693273 -0.00170742 0.0148123
-0.00152199 -0.000541257 0.0471637
0 0 0
2.79523e-17 -5.22055e-18 -3.47387e-18
0 0 0
0.208026 0.115432 1.82992
-0.0625243 -0.0833607 0.584929
0 0 0
0 0 0
0 0 0
-0.00253218 -0.0014442 0.0433679
-0.00779539 0.0187224 0.174022
0 0 0
0 0 0
4.21897e-06 3.75828e-05 0.000622685
0 0 0
6.75554e-06 2.50789e-05 0.00252461
4.73977e-06 0.0003959 0.00225038
0 0 0
-8.96792e-05 0.000147269 0.0157846
0 0 0
0.000598377 0.0205907 0.0802964
0.00327799 0.00114368 0.0630472
5.83546e-05 0.00183419 -0.0160403
-0.000187647 0.0772683 0.307571
-3.42494e-06 2.17098e-06 0.000332904
-2.6036e-05 0.00272453 -0.00437733
6.4584e-06 -1.67117e-07 -0.000116863
0.00741709 0.017801 0.174552
0 0 0
1.32745e-06 -1.01117e-05 -0.000183321
-4.77724e-06 0.000388517 0.00221598
0 0 0
-0.00329232 0.00114713 0.0632531
-0.000603816 0.0203464 0.0802942
0 0 0
0.00250777 -0.0235571 0.150072
0 0 0
0 0 0
-0.00265673 0.00412209 0.112446
0.0002079 0.00411561 0.0248773
-0.00930995 0.0196705 0.176642
0 0 0
0.000953861 -0.00172789 0.0259769
2.77478e-06 1.85721e-05 0.000207097
0.100858 -0.0442143 0.712251
0.0339085 -0.0373198 0.258396
-0.00123769 -0.00105214 0.0220975
0.00121082 -0.00105664 0.0220109
0.00298735 0.000267475 0.0342817
-0.00196217 0.000394894 0.0295599
0 0 0
0 0 0
0 0 0
0 0 0
-0.00596225 -0.00706091 0.637549
0.028296 -0.00706233 0.834126
-0.0128339 0.00670684 0.223992
0.00272487 0.00672881 0.230409
-0.30704 -0.19728 0.0934311