# vtk DataFile Version 2.0
tri_press
ASCII
DATASET UNSTRUCTURED_GRID
POINTS 3682 float
-0.805 0.445 -2.411
-0.715 0.475 2.4311
-0.875 0.815 -2.34153
-0.705 0.78084 2.345
0.805 0.445 -2.411
0.715 0.475 2.4311
0.875 0.815 -2.34158
0.705 0.78084 2.345
-0.803829 0.426171 -0.796967
-0.874349 0.335651 0.817067
-0.870657 0.855937 -0.779354
-0.835967 0.866527 0.782823
0.803835 0.426165 -0.796967
0.874345 0.335655 0.817067
0.870671 0.855951 -0.779387
0.835977 0.866537 0.782807
-1.63522 0.229749 -3.68673
-1.63794 0.232221 -2.41626
-1.64096 0.196915 -0.80089
-1.66157 0.135128 0.824916
-1.58086 0.202005 2.44117
-1.55147 0.236035 3.71593
-1.55847 0.239376 4.98273
-1.64157 0.433817 -3.67064
-1.64804 0.44341 -2.40584
-1.64788 0.426449 -0.800557
-1.66392 0.353647 0.809391
-1.53372 0.409753 2.41567
-1.51842 0.440995 3.6897
-1.54093 0.444846 4.95819
-1.67301 0.829595 -3.62391
-1.70274 0.837266 -2.35696
-1.69433 0.864209 -0.787028
-1.64807 0.841789 0.779228
-1.52123 0.78716 2.35015
-1.51238 0.815751 3.62633
-1.5384 0.837103 4.90318
-1.68779 1.46843 -3.59281
-1.7007 1.48226 -2.33363
-1.69845 1.50964 -0.780506
-1.67413 1.51038 0.761441
-1.633 1.47641 2.31511
-1.60772 1.46126 3.57541
-1.59916 1.46336 4.8466
-0.803417 0.231407 -3.69008
-0.80991 0.235823 -2.42115
-0.807499 0.196946 -0.80024
-0.852549 0.12576 0.831468
-0.796569 0.237357 2.45262
-0.770993 0.262031 3.72371
-0.775232 0.253863 4.98723
-0.801652 0.432371 -3.67168
-0.74035 0.467478 3.69611
-0.760758 0.458392 4.96158
-0.825589 0.819824 -3.61751
-0.735959 0.820598 3.6253
-0.759069 0.842271 4.90296
-0.845131 1.46208 -3.58648
-0.858592 1.47641 -2.32666
-0.863545 1.50983 -0.776305
-0.85792 1.51538 0.76093
-0.837297 1.47719 2.3115
-0.817456 1.46002 3.57181
-0.808233 1.46273 4.84398
0.842304 0.231409 -3.69009
0.813327 0.235823 -2.42115
0.823394 0.196943 -0.800242
0.836013 0.125763 0.831467
0.733393 0.237358 2.45262
0.752582 0.262032 3.7237
0.772855 0.253866 4.98723
0.852617 0.432373 -3.67169
0.750565 0.467479 3.69611
0.773559 0.458394 4.96158
0.873566 0.819826 -3.61754
0.747151 0.820599 3.6253
0.771887 0.842273 4.90296
0.847462 1.46209 -3.58651
0.838615 1.47641 -2.32669
0.821137 1.50984 -0.776327
0.786961 1.51539 0.760915
0.754367 1.47719 2.31149
0.755271 1.46003 3.5718
0.765813 1.46273 4.84397
1.66864 0.229752 -3.68675
1.644 0.232223 -2.41628
1.64978 0.196916 -0.800901
1.65779 0.135133 0.824909
1.55694 0.202009 2.44116
1.54301 0.236039 3.71593
1.55896 0.239381 4.98272
1.67874 0.433822 -3.67067
1.65022 0.443414 -2.40586
1.64833 0.426452 -0.800573
1.67114 0.353654 0.809383
1.54513 0.409757 2.41566
1.53273 0.440998 3.6897
1.55454 0.444851 4.95818
1.70607 0.829601 -3.62396
1.70225 0.837274 -2.35702
1.69004 0.864224 -0.78707
1.65163 0.841802 0.779205
1.53251 0.787165 2.35015
1.52696 0.815756 3.62632
1.55138 0.837109 4.90317
1.68858 1.46844 -3.59286
1.68095 1.48227 -2.33368
1.65909 1.50965 -0.780547
1.61424 1.51039 0.761413
1.56552 1.47642 2.31509
1.55419 1.46127 3.5754
1.56022 1.46336 4.84659
-0.850133 0.63 -2.3864
0 0.39268 -2.46332
-0.837776 0.402224 -1.60398
-0.71193 0.62792 2.38998
0 0.425193 2.48091
-0.801803 0.398196 1.62408
0 0.845051 -2.37161
-0.882598 0.845238 -1.56044
0 0.790555 2.35471
-0.804732 0.857932 1.56391
0.850114 0.63 -2.3864
0.837788 0.402212 -1.60398
0.712641 0.62792 2.39069
0.801862 0.398138 1.62408
0.882601 0.845241 -1.56048
0.804759 0.857959 1.5639
-0.807726 0.412274 0.0100499
-0.883629 0.641054 -0.78816
2.79355e-06 0.277845 -0.796967
-0.883618 0.601089 0.799945
-2.11788e-06 0.272613 0.817067
-0.851666 0.859586 0.00173497
7.21238e-06 1.0676 -0.77937
5.3026e-06 1.32856 0.782815
0.807731 0.412269 0.0100499
0.883635 0.641058 -0.788177
0.883644 0.601096 0.799937
0.851661 0.859581 0.00171006
-0.887235 0.635527 -1.58221
0.887234 0.635529 -1.58223
1.39677e-06 0.272326 -1.60398
3.60619e-06 0.911214 -1.56046
0 0.63 -2.47097
-0.883637 0.621071 0.00589246
0.883642 0.621077 0.00588
3.37833e-07 0.286284 0.0100499
6.25749e-06 1.32855 0.00172251
-0.870251 0.614504 1.594
0.870254 0.614508 1.59399
-1.05894e-06 0.31394 1.62408
2.6513e-06 0.935487 1.56391
0 0.62792 2.45074
-0.826918 0.5375 -2.39805
-0.4025 0.419865 -2.43613
-0.839779 0.405221 -2.00749
-0.726868 0.55146 2.42394
-0.3575 0.45918 2.44692
-0.762893 0.432107 2.02759
-0.881778 0.7225 -2.38318
-0.4375 0.825366 -2.35191
-0.882736 0.834056 -1.95099
-0.724168 0.70438 2.38319
-0.3525 0.781803 2.34596
-0.768772 0.833292 1.95446
0.4025 0.419884 -2.43612
0.826801 0.5375 -2.39795
0.83978 0.40522 -2.00749
0.3575 0.459176 2.44692
0.726869 0.55146 2.42394
0.762899 0.432101 2.02759
0.4375 0.825445 -2.35201
0.881807 0.7225 -2.38324
0.882744 0.834064 -1.95103
0.3525 0.781666 2.34583
0.724059 0.70438 2.38308
0.768774 0.833294 1.95445
-0.801338 0.433662 -1.20048
-0.80598 0.41902 -0.393458
-0.866944 0.522005 -0.792564
-0.446456 0.262923 -0.796967
-0.873737 0.331263 1.22058
-0.811502 0.403498 0.413558
-0.883377 0.466173 0.808506
-0.468285 0.241913 0.817067
-0.88022 0.85418 -1.1699
-0.890585 0.755217 -0.783757
-0.861715 0.858314 -0.388809
-0.463766 1.01865 -0.779362
-0.83191 0.87379 1.17337
-0.891972 0.749897 0.791384
-0.842447 0.861687 0.392279
-0.518415 1.29841 0.782819
0.801343 0.433657 -1.20048
0.44646 0.262923 -0.796967
0.805986 0.419014 -0.393458
0.866956 0.522001 -0.792572
0.873735 0.331265 1.22058
0.468282 0.241913 0.817067
0.811502 0.403498 0.413558
0.883379 0.466183 0.808502
0.880227 0.854187 -1.16994
0.463786 1.01867 -0.779378
0.890587 0.755222 -0.783782
0.861728 0.858328 -0.388838
0.831898 0.873778 1.17336
0.518433 1.29843 0.782811
0.891977 0.7499 0.791372
0.842437 0.861677 0.392258
-0.88708 0.632763 -1.98431
-0.425067 0.63 -2.43201
6.98386e-07 0.265859 -2.03365
0 0.51134 -2.473
-0.873628 0.518875 -1.5931
-0.418887 0.260726 -1.60398
-0.840402 0.621212 1.99199
-0.355965 0.62792 2.40512
-5.2947e-07 0.34662 2.0525
0 0.526556 2.50744
-0.869148 0.50635 1.60904
-0.400902 0.202828 1.62408
1.80309e-06 0.896266 -1.96603
0 0.737525 -2.47299
-0.886179 0.740382 -1.57133
-0.441297 0.893816 -1.56045
1.32565e-06 0.870738 1.95931
0 0.709237 2.45311
-0.880668 0.736218 1.57895
-0.402365 0.909904 1.56391
0.887079 0.632765 -1.98432
0.425057 0.63 -2.4321
0.873639 0.518871 -1.59311
0.418895 0.260886 -1.60398
0.84036 0.621214 1.99234
0.356321 0.62792 2.40228
0.869086 0.506323 1.60904
0.400931 0.202829 1.62408
0.886178 0.740385 -1.57136
0.441302 0.893844 -1.56047
0.880679 0.736234 1.57895
0.402381 0.909945 1.56391
-0.87001 0.504508 0.0079712
-0.446976 0.263052 0.0100499
-0.883588 0.63829 -1.18519
-0.883638 0.631063 -0.391134
2.09516e-06 0.278148 -1.20048
1.56569e-06 0.282035 -0.393458
-0.883862 0.61108 0.402919
-0.884731 0.607797 1.19697
-8.90023e-07 0.290702 0.413558
-1.58841e-06 0.304531 1.22058
-0.890609 0.751807 0.00381371
-0.529014 1.30044 0.00172874
5.40928e-06 0.905889 -1.16992
6.73493e-06 1.32856 -0.388824
5.78005e-06 1.32855 0.392269
3.97695e-06 1.24129 1.17336
0.870021 0.504506 0.00796497
0.446978 0.263052 0.0100499
0.883594 0.638294 -1.18521
0.883636 0.631068 -0.391148
0.883867 0.611087 0.402908
0.884731 0.607802 1.19697
0.890613 0.75181 0.00379503
0.52902 1.30044 0.00171629
-0.874149 0.528188 -1.9959
-0.862717 0.526244 -1.19283
-0.890805 0.744439 -1.17754
-0.892117 0.731441 -1.96765
0.874134 0.528185 -1.99591
0.892123 0.731443 -1.96768
0.890811 0.744445 -1.17757
0.862722 0.526241 -1.19284
-0.410694 0.260702 -2.02057
0.410697 0.260814 -2.02057
0.410407 0.261081 -1.20048
-0.4104 0.261081 -1.20048
-0.439399 0.87067 -1.95851
-0.438311 0.905795 -1.16991
0.438321 0.905957 -1.16993
0.439401 0.870715 -1.95853
-0.413783 0.52442 -2.43709
-0.431283 0.730013 -2.41691
0.431278 0.730013 -2.41681
0.413778 0.52442 -2.43709
-0.868479 0.513256 -0.392296
-0.870851 0.488262 0.408239
-0.890923 0.750669 0.397599
-0.890585 0.753506 -0.389972
0.868492 0.513252 -0.392303
0.890588 0.75351 -0.389993
0.890929 0.750672 0.397583
0.870709 0.48834 0.408233
-0.446716 0.262988 -0.393458
0.446719 0.262988 -0.393458
0.452281 0.26318 0.413558
-0.452282 0.263179 0.413558
-0.564991 1.29675 -0.388817
-0.523458 1.29891 0.392274
0.523467 1.29892 0.392264
0.565 1.29675 -0.388831
-0.874999 0.48736 1.20877
-0.841497 0.528905 2.00979
-0.849784 0.720299 1.97322
-0.88607 0.735013 1.18517
0.874978 0.487349 1.20877
0.886069 0.735025 1.18516
0.84981 0.720307 1.9734
0.841491 0.528891 2.00997
-0.419039 0.202853 1.22058
0.419051 0.202853 1.22058
0.379215 0.29032 2.04004
-0.379201 0.290351 2.04004
-0.410173 1.1923 1.17336
-0.377432 0.869756 1.95688
0.37744 0.869711 1.95688
0.410186 1.19234 1.17336
-0.356732 0.539008 2.46382
0.35691 0.539008 2.46382
0.35441 0.706809 2.3967
-0.354232 0.706809 2.39678
-0.813837 0.49125 -2.4024
-0.60375 0.479431 -2.37657
-0.803176 0.444324 -2.20925
-0.720598 0.51323 2.42719
-0.53625 0.506632 2.39947
-0.739933 0.452567 2.22935
-0.879657 0.76875 -2.36362
-0.65625 0.807052 -2.33359
-0.882004 0.827664 -2.14626
-0.714698 0.74261 2.36421
-0.52875 0.765687 2.32985
-0.744839 0.815019 2.14973
0.60375 0.479438 -2.37656
0.813682 0.49125 -2.40225
0.803167 0.444333 -2.20925
0.53625 0.506494 2.39961
0.720672 0.51323 2.42726
0.739902 0.452598 2.22935
0.65625 0.807097 -2.33367
0.879476 0.76875 -2.36348
0.882008 0.827668 -2.14631
0.52875 0.766082 2.33024
0.714699 0.74261 2.36421
0.74487 0.81505 2.14973
-0.802554 0.429946 -0.998721
-0.804987 0.422513 -0.595213
-0.835446 0.474058 -0.794765
-0.658959 0.276915 -0.796967
-0.874653 0.332847 1.01882
-0.812552 0.399948 0.615313
-0.875956 0.402366 0.812786
-0.707614 0.216189 0.817067
-0.875548 0.855168 -0.974626
-0.887159 0.808846 -0.781555
-0.866341 0.857281 -0.584081
-0.679007 0.960884 -0.779358
-0.833763 0.869983 0.978096
-0.88592 0.819187 0.787104
-0.838116 0.863016 0.587551
-0.707538 1.14316 0.782821
0.802559 0.429941 -0.998721
0.6582 0.278439 -0.796967
0.804991 0.422509 -0.595213
0.835442 0.47406 -0.794769
0.874649 0.332851 1.01882
0.700182 0.231046 0.817067
0.812543 0.399957 0.615313
0.875959 0.402371 0.812784
0.875553 0.855173 -0.974661
0.679002 0.960857 -0.779383
0.887163 0.808854 -0.781584
0.866354 0.857294 -0.584113
[...]
POINT_DATA 3682
SCALARS point_scalars float 1
LOOKUP_TABLE default
-96.2503
-38.5052
-76.4519
-35.6675
-96.8386
-38.0571
-76.7167
-35.0773
-30.0593
-30.6767
-42.8877
-42.3315
-30.2433
-30.2922
-42.7539
-42.26
-58.6435
-136.604
-31.1703
-59.609
-40.6199
-38.6239
-38.6239
-58.6435
-157.454
-31.2404
-40.5874
-40.6199
-38.6239
-38.6239
-23.7684
-161.757
-38.9885
-39.1684
-39.1726
-36.2657
-36.8224
-73.9431
-112.357
-51.6881
-44.3932
-36.749
-37.9071
-36.2657
121.083
-136.547
-30.6553
-37.8753
-38.3647
-35.9777
-33.7234
121.083
-35.9777
-33.2438
128.858
-36.1047
-32.7722
128.858
-120.007
-57.3339
-49.7538
-34.7926
-35.1833
-36.0436
120.758
-138.165
-30.6954
-36.3167
-37.4002
-35.5182
-33.7596
88.1548
-35.5182
-35.5182
113.329
-35.6353
-31.8781
113.329
-117.403
-49.5259
-49.7448
-34.2651
-34.7039
-31.873
-59.2469
-136.447
-31.3095
-58.8444
-40.2486
-38.1612
-38.1612
-59.2469
-157.307
-31.368
-40.4687
-40.2486
-38.1612
-38.1612
-24.718
-159.393
-38.986
-39.0345
-38.7535
-35.8039
-36.5
-74.0897
-112.382
-51.6803
-44.5886
-36.3527
-37.4278
-35.8039
-62.9378
44.3482
-42.5961
-36.8242
-34.3968
-49.6628
-107.82
-29.9485
-33.5695
-38.1804
-70.194
-43.0994
-36.4094
-48.3834
-30.173
-38.146
-30.9188
-32.7885
-35.2207
-38.6047
-41.8325
-46.8738
42.3404
-49.387
-30.77
-32.8665
-38.3832
-46.7711
-35.5328
-35.9352
-57.0503
-14.6699
202.805
-35.887
-35.7526
-31.3869
-72.8138
-43.0254
-42.6166
-45.4806
-34.2599
-27.2187
-30.0488
63.6836
-74.6009
-37.6063
-35.1931
-40.1346
-52.1202
-97.8952
-50.8162
-36.3079
-33.2876
-35.6372
64.515
-30.2119
-72.5368
-34.802
-37.15
-39.8468
-98.0993
-43.4975
-50.8886
-32.6304
-35.8319
-35.3926
-34.9172
-31.1374
-31.0394
-34.3692
-42.8553
-28.0984
-42.7552
-35.1079
-21.9544
-36.7701
-52.6439
27.1585
-43.938
-38.8656
-42.7938
-49.2057
-35.5614
-34.2407
-31.4342
-31.1924
-43.3782
-34.2284
-27.6524
-42.7475
-22.2376
26.3296
-36.7909
-52.5856
-43.916
-49.2015
-38.7237
-42.697
-61.3821
191.448
-97.3935
197.021
-39.5549
-55.5368
-40.1203
-32.8626
-39.5148
-29.3862
-45.3476
-51.6624
-45.9906
102.449
-32.676
-18.9918
-33.942
-25.8889
-41.0317
-35.6636
-61.2852
190.982
-39.9556
-55.6025
-39.7859
-31.9182
-44.548
-50.7987
-32.9614
-19.0528
-40.6806
-35.6339
-32.3811
-31.0972
-28.7058
-37.1106
-42.8861
-32.475
-34.2645
-41.576
-31.9173
-43.0251
-39.8751
-66.2046
10.1564
-125.341
-56.2923
-40.338
-32.2442
-30.857
-29.019
-37.1079
-34.0503
-41.3765
-39.7629
-66.1926
-66.1792
-33.438
-26.6279
-57.1026
-65.9311
-57.0541
-26.8923
-33.9006
-101.907
-101.578
-42.0334
-41.6223
-50.1084
1.56493
1.58852
-50.1649
183.831
71.0619
65.6433
183.263
-33.1219
-30.0914
-37.4526
-42.8918
-33.1927
-42.8512
-37.2572
-29.7668
-31.8995
-32.0531
-29.9247
-30.6696
-119.909
-52.5985
-52.5726
-119.821
-43.523
-40.6182
-39.6901
-40.4951
-43.3664
-40.3402
-39.3609
-40.2691
-45.8785
-44.7447
-39.2109
-39.5178
-40.8246
-34.1383
-33.946
-40.8283
-33.6636
-32.967
-31.2349
-32.373
-78.5373
122.643
-94.2132
-38.5612
-35.1652
-40.0148
-50.7281
-35.4265
-78.6238
-36.1929
-33.7252
-35.0135
122.317
-78.5966
-94.2432
-34.7657
-38.1001
-39.6371
-35.2205
-51.9199
-78.6865
-33.1554
-35.716
-34.5942
-29.7197
-30.8344
-30.5388
-31.4324
-57.7722
-22.9435
-45.1271
-31.4741
-24.871
-41.0011
-53.2833
-9.16653
-43.0212
-40.5061
-42.013
-45.664
-30.0215
-31.9201
-31.0295
-30.7116
-57.3394
-28.9177
-22.5808
-44.9895
-24.8634
-8.21417
-40.9951
-53.273
-42.9608
-45.6372
-40.399
-41.9253
-26.7094
-38.1358
-97.8129
180.705
46.1917
41.3518
-129.912
163.253
-53.411
-39.1331
-40.8288
-51.8664
-36.4176
-36.3333
-40.2346
-34.0087
-34.8351
-34.4269
-39.5124
-31.9585
-41.0915
-46.0138
-48.4479
-53.999
-105.582
-105.894
-72.1347
26.3563
-38.6285
-24.4802
-31.9966
-23.0351
-32.934
-32.4521
-33.7177
-28.1583
-36.6575
-42.2274
-40.3147
-36.5817
-28.3459
-38.8671
-96.3854
180.817
-53.7056
-40.1348
-41.2994
-52.2586
-35.9657
-36.2121
-39.8538
-33.5165
-40.4153
-45.5088
-47.3666
-49.2036
-38.78
-24.745
-32.2543
-23.1952
-36.5526
-42.242
-40.0696
-36.57
-31.3647
-29.7302
-31.4604
-31.168
-31.5614
-34.4184
-29.0513
-35.9523
-35.0253
-35.036
-38.1266
-33.6797
-40.176
-38.1284
-34.6675
-41.3595
-39.7726
-40.1841
-33.199
-42.0924
-49.9781
-44.3163
-43.462
-54.1155
40.2771
40.0085
19.2287
8.67541
-49.4394
-49.4347
-52.1516
-47.7904
-31.3723
-29.5003
-31.3248
-30.32
-31.6648
-34.4742
-29.2273
-35.9886
-40.0069
-37.9518
-34.4728
-41.1606
-49.896
-44.2049
-43.3487
-54.0936
-44.9069
-37.6596
-34.164
-31.8052
-45.0759
-38.0112
-34.5941
-32.0486
-71.3371
-56.8848
-56.8689
-48.6785
-29.3407
-15.7699
-15.7794
-2.20387
198.094
205.475
181.97
198.047
-34.4634
-36.8565
-34.7777
-37.4191
-34.3129
-36.7872
-34.5933
-37.3028
-31.3342
-31.7435
-31.4373
-31.2317
-71.3464
-91.1693
-62.6403
-71.3384
-40.3768
-43.315
-42.5708
-43.4778
-39.986
-42.7997
-42.1285
-43.1594
-41.4036
-46.3514
-46.0297
-44.2253
-34.2501
-34.6325
-34.5934
-35.7375
-30.0594
-27.7356
-26.8866
-28.8413
-98.2846
185.443
-127.912
150.304
-69.497
-96.4704
-40.7754
-34.0136
-40.1004
-34.3664
-40.651
-39.8305
-87.7491
52.3377
-76.3256
35.0237
-54.0641
-51.6789
-39.3129
-33.9061
-33.5436
-32.3852
-39.1112
-34.4406
-127.979
151.797
-97.9878
185.832
-69.0978
-95.31
-39.8251
-33.8575
-40.3995
-33.5764
-40.3065
-39.4412
-76.3617
35.6367
-87.6723
52.3393
-54.079
-51.7678
-33.213
-31.2634
-38.9139
-33.2667
-38.8302
-34.1982
-34.6077
-40.0341
-31.9717
-30.1946
-30.0903
-32.6229
-36.7091
-32.8845
-43.944
-45.5615
-28.8284
-28.6487
-28.5509
-45.6593
-30.4745
-44.874
-25.8272
-6.26493
-29.0807
-42.0695
-47.2667
-76.3127
8.02877
16.4305
-40.6369
-42.6307
-37.2853
-40.623
-40.6593
-46.512
-49.8965
-51.3111
-35.1673
-40.2693
-36.9437
-32.8693
-32.1879
-31.2224
-30.3495
-32.6628
-43.7742
-45.7452
-29.4224
-47.4465
-28.4556
-27.8162
-28.2715
-45.2855
-26.074
-6.79157
10.5828
16.3685
-29.1944
-42.0585
-47.2076
-76.3902
-40.5236
-42.6499
-49.8781
-51.2772
-37.1698
-40.4747
-40.5197
-46.4493
-64.1529
-59.3617
185.533
168.303
-98.7669
-98.2234
191.422
193.417
-49.2213
-35.7874
-70.2126
-47.5913
-40.4516
-39.9134
-32.9106
-32.6141
-39.61
-39.7597
-31.0467
-30.3499
-46.6525
-41.4508
-45.0489
-41.9073
-46.6082
-46.6345
115.078
114.747
-28.5834
-41.4553
-32.4325
-8.73334
-34.0132
-33.9063
-28.1459
-29.5574
-39.7298
-41.2982
-36.9262
-34.9095
-64.0398
-59.3057
168.225
184.883
-49.3931
-36.2789
-70.2453
-47.793
-39.5774
-40.1227
-31.9635
-31.5841
-46.3806
-40.8972
-45.2691
-41.1703
-41.6214
-28.8645
-8.80849
-32.5196
-41.0896
-39.4068
-34.8279
-36.9249
-32.9942
-31.1947
-31.4962
-30.8135
-30.3876
-28.0307
-35.2452
-39.5265
-42.7221
-42.7118
-32.4076
-32.4399
-32.8444
-35.3972
-42.3267
-40.9554
-31.3558
-31.639
-43.4705
-43.1351
-38.1176
-41.6648
-82.1508
-57.6115
8.37584
8.49791
-126.28
-126.147
-55.3593
-55.3514
-40.194
-40.2455
-32.9791
-30.9779
-31.4352
-30.3902
-28.3354
-30.7632
-35.2669
-39.5104
-35.2166
-32.5803
-42.1314
-40.7719
-41.5894
-37.9766
-57.5905
-82.1423
-93.0081
-51.0479
-47.2577
-101.449
-30.0798
-29.3325
-33.4077
-37.0497
-29.5341
-27.4846
-30.1855
-29.3193
-82.8101
-92.4173
-43.1023
-40.5483
-93.2443
-101.142
-47.4237
-51.2641
-82.7982
-40.7032
-43.2738
-92.272
-29.5809
-29.4692
-30.4206
-27.7383
-30.3895
-37.6483
-33.7639
-29.5074
-141.232
-129.087
-71.307
-64.7333
-142.798
-65.5427
-71.1961
-127.085
-32.9808
-37.9659
-48.6592
-45.7789
-32.4616
-45.1488
-48.547
-37.9197
-86.7756
-35.0294
-29.8809
-70.6544
-0.0307325
16.7971
-3.11737
-13.7392
-1.93601
-13.991
-3.21351
16.9004
-86.8143
-70.7035
-29.906
-35.146
129.921
179.788
200.129
149.113
39.2469
36.9531
185.515
157.098
39.4808
157.056
185.271
39.686
129.893
159.795
200.632
179.77
-31.5403
-32.0401
-35.294
-34.0475
-25.3495
-33.1998
-33.3263
-30.176
-39.6621
-41.3207
-36.0067
-35.6593
-46.894
-38.5295
-38.8179
-45.5917
-31.712
-34.1088
-35.2244
-32.0417
-46.8701
-45.5053
-38.752
-38.549
-39.569
-35.493
-35.8494
-41.1928
-25.0213
-29.9533
-33.1131
-32.9751
-31.1505
-33.5039
-31.7158
-32.1493
-31.392
-30.8595
-31.6955
-33.5231
-23.5603
-32.1766
-31.1331
-29.4338
-23.3657
-30.3618
-31.3252
-32.3605
-83.9141
-61.5941
-89.4922
13.7713
-45.3104
-51.6315
-61.3817
-49.2961
-45.2609
-49.2424
-61.3738
-51.6242
-83.909
13.79
-89.4772
-61.6132
-47.3777
-47.5448
-45.2265
-42.6433
-39.9902
-40.5732
-40.5791
-41.8661
-38.6781
-38.5133
-40.2843
-39.8079
-41.5834
-40.7701
-42.1445
-40.8461
-47.084
-42.4086
-44.9033
-47.0794
-41.4836
-40.7161
-41.8809
-40.5967
-38.2691
-39.4196
-39.8961
-38.2861
-39.6147
-41.0476
-40.1454
-40.1954
-57.9536
-43.446
-44.6241
-46.2843
-54.108
-47.854
-44.5634
-43.7207
-40.1088
-39.7212
-41.5014
-41.0422
-40.1794
-41.8217
-41.7431
-39.9375
-47.0221
-38.1555
-36.0712
-48.4085
-33.7017
-33.6611
-34.4763
-35.421
-33.285
-35.3437
-34.4153
-33.4879
-47.0209
-48.3991
-36.0779
-38.1453
-35.1583
-32.7892
-30.0995
-33.8749
-34.7548
-33.4132
-28.9293
-32.3273
-33.1117
-29.1431
-28.403
-33.4736
-33.7485
-34.0513
-29.7406
-30.3285
-73.6682
96.8626
-143.532
-38.3719
-36.981
-37.9156
-59.0501
-28.2144
-109.852
-35.9158
-33.9871
-35.0686
96.5049
-74.3027
-144.667
-36.3176
-37.9278
-37.5227
-27.7668
-58.9895
-109.929
-33.4414
-35.3623
-34.5884
-29.7158
-30.4421
-30.2449
-30.295
-57.4414
-16.59
-40.4143
-0.775551
-31.375
-42.7564
-52.6729
-31.9403
-42.4028
-41.8329
-42.0986
-42.9114
-29.9405
-30.4866
-30.6147
-30.4227
-57.2089
-1.15162
-16.2482
-40.2126
-31.143
-31.0613
-42.7172
-52.7185
-42.3498
-42.8703
-41.7457
-42.0154
-55.5439
-46.5204
-150.041
151.873
47.7852
46.6221
-110.946
106.745
-47.0933
-40.1459
-41.5774
-47.6712
-36.5716
-36.4823
-40.5379
-34.2615
-34.5999
-34.4447
-36.4984
-33.5034
-43.75
-56.9204
-49.072
-49.9902
-109.537
-109.63
-94.9601
-39.5739
-33.3739
-27.081
-31.3691
-25.7024
-33.1484
-33.0466
-33.9062
-30.993
-37.0673
-40.225
-40.016
-37.1604
-60.6939
-49.5863
-149.608
150.862
-47.397
-40.8761
-42.0876
-48.6595
-36.1076
-36.2708
-40.05
-33.7638
-42.7589
-55.4703
-47.8809
-50.125
-33.5618
-27.3377
-31.6086
-25.8914
-37.0119
-40.2074
-39.8286
-37.1416
-31.2308
-30.3637
-31.1484
-30.4925
-32.0238
-33.6553
-30.7146
-34.5326
-35.1657
-35.1725
-36.1297
-34.5243
-39.1395
-38.2389
-36.053
-40.7316
-41.4436
-41.6735
-33.5353
-43.8652
-48.5189
-45.5916
-45.5925
-49.5921
41.8131
41.6368
27.0727
44.0136
-49.3982
-49.3956
-50.6353
-48.3886
-31.1336
-30.19
-31.009
-30.1492
-32.1087
-33.725
-30.8107
-34.5958
-38.9282
-38.0426
-35.8861
-40.5061
-48.4261
-45.4837
-45.4807
-49.5396
-39.5269
-36.561
-34.8214
-32.9394
-39.7802
-36.8972
-35.1352
-33.2973
-63.2899
-57.0348
-57.0184
-52.2799
-22.675
-14.9409
-14.9438
-8.11056
201.722
203.921
198.476
201.691
-35.2902
-36.4538
-35.2922
-36.5917
-35.1458
-36.3488
-35.1312
-36.4676
-31.3775
-31.5124
-31.3583
-31.324
-72.469
-80.5782
-67.131
-72.4666
-41.2474
-43.051
-42.6967
-44.4994
-40.8585
-42.5986
-42.308
-44.0725
-43.2652
-46.136
-45.9667
-44.8391
-34.3335
-34.3672
-34.3423
-34.5892
-28.6924
-27.3458
-27.0855
-27.8205
-51.1253
25.9952
-151.956
168.448
87.3562
45.4488
-71.359
112.588
-76.3763
-61.9805
-71.9149
-87.7488
-38.2665
-37.1425
-39.8806
-35.0825
-35.2639
-35.0839
-37.2479
-34.71
-39.6241
-40.5373
-40.388
-39.5956
-25.9934
-62.2808
-140.981
64.4298
-76.1859
-110.538
-102.081
-13.364
-61.7675
-44.9781
-52.1738
-51.385
-36.4078
-36.1905
-40.0667
-34.3084
-33.5559
-32.9437
-33.6354
-32.725
-35.2204
-36.4193
-38.7442
-34.8811
87.3699
42.2284
-74.3901
118.165
-51.1539
26.0848
-151.917
168.447
-74.5399
-62.3573
-71.1033
-86.0158
-34.8726
-34.7063
-36.8638
-34.2915
-37.8093
-36.6846
-39.4477
-34.5639
-39.3709
-40.1209
-40.0708
-39.5759
-73.2288
-111.631
-102.104
-12.9202
-25.0957
-62.4852
-140.615
64.2569
-61.8256
-45.0836
-52.2184
-51.4823
-33.0687
-32.2948
-33.2927
-31.7789
-35.9349
-35.8658
-39.5994
-33.7633
-34.8916
-36.2505
-38.5118
-34.6317
-30.4686
-42.6335
-35.1929
-37.0728
-31.0384
-31.2608
-31.4877
-30.1686
-30.8867
-31.2752
-30.5062
-31.7207
-33.0001
-34.5973
-35.5486
-33.5463
-47.1148
-44.4222
-42.8696
-43.2997
-26.4389
-28.9469
-28.4753
-27.7534
-43.0166
-40.7981
-29.527
-46.2082
-37.8089
-36.1628
-30.2515
-43.0475
-21.8732
-22.5297
-25.0876
-12.5581
-38.4999
-35.3601
-32.3346
-40.027
-53.4643
-51.5863
-49.6738
-60.7419
13.9685
35.3198
12.864
36.8496
-43.3443
-42.2045
-41.911
-45.0828
-39.3765
-38.3647
-37.8515
-40.2577
-42.4182
-43.3613
-42.1368
-43.9981
-50.4103
-49.4751
-49.4178
-49.8549
-30.9326
-43.0755
-35.7711
-37.8112
-33.3471
-34.5928
-35.4561
-33.3888
-31.2933
-31.4643
-31.7306
-30.8627
-31.0569
-31.4038
-30.7066
-31.8429
-47.1049
-44.1417
-43.0659
-44.3262
-33.068
-36.7202
-28.9089
-45.2127
-25.9543
-28.6474
-28.0634
-27.0074
-42.985
-40.6693
-29.3054
-45.9317
-22.0571
-22.8169
-25.3357
-13.0069
13.6543
35.0118
13.6363
36.3275
-38.5052
-35.3959
-32.3821
-40.0297
-53.4161
-51.5169
-49.6103
-60.7681
-43.2873
-42.1865
-41.8399
-45.101
-50.4042
-49.4702
-49.4075
-49.8694
-39.251
-38.2064
-37.7073
-40.1125
-42.3335
-43.2543
-42.0243
-43.9232
-73.8472
-52.2278
-62.7615
-60.2761
186.171
196.532
187.077
186.919
-113.593
-81.9783
-97.567
-97.2468
182.974
200.935
193.859
194.28
-40.266
-38.6128
-43.55
-37.0204
-54.2287
-56.4138
-61.7565
-50.795
-39.6178
-40.5832
-40.3051
-39.961
-33.6499
-31.661
-32.958
-32.7435
-39.873
-40.1575
-39.4528
-39.5096
-30.5032
-28.4232
-29.9595
-29.357
-47.2531
-44.0191
-47.735
-42.7888
-52.6085
-46.4948
-46.8899
-46.1753
-56.3394
-37.218
-46.0363
-46.0512
62.8603
157.224
106.212
105.999
-32.3718
-33.465
-30.1202
-36.5963
-21.3636
-17.6397
-24.7539
-13.494
-33.6744
-34.1528
-33.9897
-33.9356
-26.5487
-26.1858
-26.9744
-27.9618
-40.6072
-41.7839
-40.2367
-41.7927
-36.0527
-35.0271
-36.1263
-35.3234
-73.7396
-52.2763
-62.6587
-60.201
186.187
195.884
186.519
186.363
-40.7007
-38.9869
-43.8408
-37.4945
-54.3344
-56.4263
-61.8065
-50.8226
-39.2702
-40.236
-39.626
-39.9726
-32.9519
-30.4818
-32.025
-31.7542
-46.3186
-43.39
-47.0299
-42.1526
-50.9297
-46.154
-46.934
-45.2941
-32.6441
-33.7624
-36.8232
-30.4978
-21.4885
-17.6717
-13.5715
-24.8119
-40.3226
-41.3164
-41.5411
-40.0197
-36.0362
-34.9868
-35.2766
-36.1081
-31.8806
-33.399
-33.0191
-31.9327
-31.1812
-31.141
-31.2823
-30.9511
-28.2038
-30.2204
-29.1714
-28.5457
-36.7919
-37.1318
-36.2021
-38.2436
-40.3045
-45.8484
-42.8312
-42.8846
-32.9986
-32.0604
-32.4483
-32.4603
-34.2603
-34.4301
-33.7644
-34.8086
-41.4717
-42.1212
-41.8899
-41.277
-32.5836
-31.6089
-31.7212
-31.856
-42.5901
-43.7851
-43.1222
-42.9607
-41.5316
-38.5139
-38.862
-40.8039
-60.6357
-69.2084
-72.7402
-61.3431
14.5258
4.40057
9.7137
9.71605
-97.5458
-109.583
-125.399
-125.356
-54.0167
-59.1429
-56.0756
-56.0722
-46.766
-37.1342
-40.3054
-40.2989
-31.7456
-33.2509
-32.9227
-31.7583
-30.6822
-31.0196
-31.0982
-30.6219
-28.4822
-30.5281
-28.8573
-29.5
-36.8109
-37.0956
-36.2085
-38.2354
-34.0527
-34.2252
-34.6132
-33.5316
-41.2809
-41.8804
-41.6851
-41.0825
-41.4194
-38.4017
-40.7099
-38.7345
-60.6168
-69.2014
-61.3262
-72.7328
-78.105
-67.6482
-65.2112
-56.5009
-34.1269
-30.8411
-36.0529
-31.726
-26.2771
-26.9748
-27.6007
-27.2829
-67.7017
-55.8446
-58.3842
-48.3712
-77.7416
-67.3216
-65.0316
-56.5041
-67.7349
-55.8168
-58.348
-48.43
-26.5296
-27.1754
-27.8238
-27.5677
-34.6329
-31.2268
-36.5672
-32.1413
-122.713
-101.742
-100.618
-82.1191
-122.367
-101.141
-100.203
-82.0287
-41.4628
-39.0449
-45.3549
-42.5534
-40.9878
-38.7501
-44.7961
-42.3483
-60.5791
-51.136
-48.1857
-40.6362
-2.35588
5.33282
-3.46947
5.8959
-2.75066
5.19419
-3.51868
6.14673
-60.6198
-51.2122
-48.2164
-40.7022
174.172
167.862
186.729
191.956
53.5221
55.6416
132.158
118.385
56.9091
53.9522
118.132
132.031
168.413
174.317
189.132
186.316
-32.5085
-32.7949
-33.1836
-34.1798
-29.3275
-29.4066
-30.4117
-31.6272
-37.1688
-38.9907
-36.4416
-37.2977
-42.9336
-44.9053
-41.1634
-42.4306
-32.6883
-32.8907
-33.2333
-34.2469
-42.9085
-44.8548
-41.1351
-42.3722
-37.0334
-38.8203
-36.2568
-37.1449
-28.9796
-29.0753
-30.1499
-31.3376
-31.2015
-32.3379
-31.6639
-32.1412
-32.4511
-31.8423
-32.2293
-31.7298
-29.7465
-29.1119
-30.4873
-30.1826
-30.4025
-30.5961
-30.769
-31.0113
-108.185
-68.9329
-100.229
-123.639
-49.7873
-51.0105
-54.8348
-54.1317
-50.9884
-49.7425
-54.1174
-54.8114
-70.2553
-108.14
-123.571
-100.22
-44.1161
-44.6072
-43.6824
-42.7958
-39.8658
-40.7015
-40.5012
-40.9757
-38.8602
-39.3902
-39.847
-39.9825
-40.3553
-40.3589
-40.7013
-40.7433
-44.0001
-44.4155
-43.4261
-42.6138
-40.2153
-40.2051
-40.5246
-40.5714
-38.5094
-39.0741
-39.5115
-39.662
-39.5387
-40.3438
-40.1662
-40.5477
-49.1189
-42.0981
-45.2683
-44.2464
-46.1068
-42.5739
-45.4548
-43.542
-41.7608
-39.3649
-39.701
-39.9375
-41.5566
-39.7405
-39.8272
-40.5341
-41.1203
-46.3695
-38.2657
-40.3775
-33.6402
-34.2452
-34.0477
-34.6576
-33.3649
-34.018
-33.8946
-34.5418
-41.1283
-46.3794
-38.2677
-40.2979
-34.2132
-34.0203
-33.3426
-32.7282
-33.4193
-33.6767
-31.8002
-32.5392
-31.0778
-32.4111
-29.5278
-31.398
-33.2603
-32.2641
-32.4859
-30.9999
-140.835
155.233
-51.031
126.554
-93.9686
-125.247
-38.9191
-35.8495
-39.3016
-35.1546
-40.04
-39.68
-139.255
59.8558
-114.567
3.33481
-80.4269
-86.3789
-39.2391
-34.0705
-33.5899
-33.734
-37.6795
-34.1274
-58.4337
126.329
-141.081
155.083
-93.7857
-128.137
-39.0274
-34.7533
-38.5073
-35.3864
-39.7422
-39.568
-114.832
3.51011
-139.078
60.1827
-80.4563
-86.3217
-33.1266
-33.1285
-38.777
-33.5114
-37.2742
-33.7022
-29.8814
-30.3003
-31.1626
-30.4924
-30.1211
-31.0514
-31.9815
-31.4824
-47.9594
-71.9017
-24.1809
-20.8986
-21.3048
-51.4602
-16.899
-57.1938
-28.6624
-10.4091
-35.3239
-45.394
-49.6627
-69.0012
-0.728475
-31.1293
-42.9383
-43.271
-39.9617
-40.8285
-41.4127
-43.0319
-45.3095
-45.7632
-30.181
-30.6182
-32.4042
-31.6374
-31.3417
-30.7304
-30.3395
-31.2115
-47.4307
-71.0927
-17.8309
-62.6377
-23.8383
-20.6926
-21.0042
-51.0882
-28.6791
-10.1903
-0.421008
-30.5297
-35.3025
-45.4007
-49.6405
-69.182
-42.8653
-43.2448
-45.271
-45.7477
-39.8476
-40.7295
-41.322
-42.9737
-153.402
157.762
-146.438
136.529
-99.5379
-94.864
177.313
182.097
-101.498
109.228
-107.373
116.427
-133.332
-132.11
156.414
159.214
-51.9486
-59.3378
-37.9133
-42.6627
-45.1483
-38.375
-57.1268
-47.954
-40.9576
-34.0576
-40.3677
-34.3452
-40.4386
-40.0136
-33.941
-34.0633
-36.8694
-33.7333
-36.5726
-33.3456
-39.6732
-39.7924
-32.089
-31.8211
-41.2825
-41.2571
-46.988
-46.8508
-49.395
-43.8393
-49.2549
-45.8804
-93.2251
-26.2297
-93.2504
-24.2997
-71.6809
-71.707
32.227
27.8765
-39.6097
-36.2941
-26.462
-17.6765
-28.9807
-35.447
-28.3106
-18.2226
-33.8325
-31.2037
-33.6589
-30.2724
-33.7091
-33.6206
-28.4895
-29.1388
-37.9257
-35.7769
-41.8221
-40.0331
-38.8453
-41.3486
-37.2585
-35.9378
-153.237
158.419
-145.962
136.797
-99.2868
-94.6863
182.167
177.337
-52.2427
-61.0641
-38.608
-44.4852
-45.4639
-38.9575
-57.4613
-48.0175
-40.4825
-33.5193
-39.8824
-33.8268
-39.6297
-40.0608
-33.4873
-33.5219
-40.6008
-40.4684
-46.403
-46.9188
-48.3705
-43.006
-51.8585
-43.9822
-39.7614
-36.4306
-26.7212
-17.967
-35.6552
-29.2655
-18.4174
-28.4453
-37.7489
-35.6886
-41.7537
-40.0459
-41.1399
-38.6342
-35.9018
-37.2529
-31.6432
-31.009
-29.9268
-29.5164
-31.8196
-30.8703
-30.0755
-29.4069
-30.2941
-32.876
-31.61
-36.8066
-28.8612
-29.478
-34.9864
-37.1599
-36.0768
-34.3262
-36.1004
-34.3391
-38.0915
-38.0644
-33.6334
-33.6393
-34.3835
-42.5516
-36.6796
-40.1293
-34.2001
-35.2573
-41.9062
-40.8927
-32.2481
-45.2782
-32.1488
-45.8423
-32.8405
-32.9129
-42.2763
-42.4568
-47.5787
-54.4262
-43.3384
-46.116
-42.1336
-44.3241
-57.2663
-51.3646
24.2866
44.7816
24.4818
44.4421
18.3115
18.9821
10.6052
10.5509
-50.3681
-48.7385
-50.3621
-48.7346
-52.0367
-52.0335
-47.9502
-47.9474
-31.6488
-30.6798
-29.7002
-29.0514
-31.7337
-30.6942
-30.6848
-29.9526
-30.4193
-32.9526
-31.6993
-36.8416
-29.6315
-29.0501
-35.0318
-37.19
-34.2011
-42.2979
-36.514
-39.9558
-35.0773
-33.9925
-41.6965
-40.7076
-47.4907
-54.4145
-43.2166
-46.037
-44.2243
-42.0125
-51.3239
-57.2641
-46.0788
-43.7968
-41.6727
-35.0172
-31.4464
-37.9231
-32.5393
-31.1541
-46.246
-44.1574
-41.9405
-35.4092
-38.1644
-31.9025
-31.3135
-32.8255
-71.2721
-71.1943
-63.1792
-52.1407
-63.1254
-52.1509
-48.697
-48.6288
-29.4263
-29.4379
-23.4916
-9.34958
-9.34519
-23.5111
-2.02858
-2.02082
199.646
195.796
202.746
202.866
187.031