# vtk DataFile Version 2.0
tri_press
ASCII
DATASET UNSTRUCTURED_GRID
POINTS 3682 float
-0.725631 0.275 -1.975
-0.745 0.305 2.05149
-0.705 0.760856 -1.995
-0.732683 1.065 2.005
0.725631 0.275 -1.975
0.745 0.305 2.05149
0.705 0.760985 -1.995
0.741334 1.055 2.005
-0.822511 0.194576 -0.632837
-0.846172 0.187372 0.709327
-0.799229 0.947239 -0.661667
-0.772369 1.01253 0.671667
0.822616 0.194471 -0.632837
0.84637 0.187173 0.709327
0.792776 0.934655 -0.661667
0.775884 1.00366 0.671667
-1.51805 -0.124601 -3.03018
-1.52423 -0.0906754 -1.95998
-1.59629 -0.152554 -0.617592
-1.62774 -0.181762 0.726576
-1.57962 -0.105773 2.06912
-1.55846 -0.0395562 3.14004
-1.55729 0.0154311 4.20962
-1.51139 0.195199 -3.04335
-1.5143 0.257969 -1.97412
-1.60287 0.220589 -0.633449
-1.62322 0.203958 0.708019
-1.54959 0.285871 2.04886
-1.53667 0.35069 3.11966
-1.54423 0.403414 4.18952
-1.50293 0.776314 -3.06722
-1.49775 0.837075 -1.99763
-1.57934 0.955117 -0.662975
-1.57237 1.00502 0.671054
-1.52502 1.06181 2.00588
-1.52057 1.1212 3.07704
-1.53159 1.17315 4.14833
-1.52188 1.78233 -3.10967
-1.52573 1.8642 -2.0414
-1.55289 2.00927 -0.709605
-1.5625 2.13101 0.620283
-1.55065 2.21185 1.95217
-1.54289 2.26403 3.02063
-1.54088 2.31212 4.09095
-0.750892 -0.115239 -3.03075
-0.735071 -0.0772338 -1.96082
-0.796641 -0.164419 -0.617481
-0.834944 -0.194862 0.727693
-0.797682 -0.0982989 2.07107
-0.780031 -0.033899 3.14137
-0.77923 0.0177107 4.21038
-0.752074 0.195761 -3.04353
-0.759552 0.357753 3.12076
-0.768095 0.406329 4.1901
-0.746186 0.746089 -3.06613
-0.747645 1.1239 3.07687
-0.757686 1.17502 4.14829
-0.75216 1.75961 -3.10859
-0.749028 1.84165 -2.04021
-0.771093 2.00074 -0.708888
-0.782595 2.13237 0.620197
-0.774685 2.2141 1.95155
-0.767712 2.26541 3.02002
-0.764674 2.31285 4.0905
0.752177 -0.117145 -3.03075
0.77636 -0.0782807 -1.96082
0.825557 -0.165437 -0.617481
0.817293 -0.195847 0.727693
0.75165 -0.0993842 2.07107
0.760239 -0.0366976 3.14137
0.770102 0.013824 4.21038
0.728149 0.194212 -3.04353
0.761853 0.354399 3.12076
0.77312 0.402009 4.1901
0.719757 0.744135 -3.06613
0.76418 1.1173 3.07687
0.777736 1.16943 4.14829
0.769486 1.75482 -3.10859
0.782666 1.83589 -2.04021
0.786317 1.99337 -0.708888
0.776988 2.12481 0.620197
0.772716 2.20682 1.95155
0.777142 2.25864 3.02002
0.783718 2.30664 4.0905
1.51563 -0.129627 -3.03018
1.54172 -0.0952745 -1.95998
1.61046 -0.157434 -0.617592
1.62035 -0.186376 0.726576
1.55801 -0.110697 2.06912
1.54535 -0.0462188 3.14005
1.55077 0.00736714 4.20962
1.48993 0.190336 -3.04335
1.50644 0.252848 -1.97412
1.60041 0.21407 -0.63345
1.62652 0.198155 0.708019
1.55466 0.279793 2.04886
1.54204 0.342922 3.11966
1.55065 0.394576 4.18952
1.47821 0.77035 -3.06722
1.48694 0.829463 -1.99763
1.57123 0.93973 -0.662975
1.57874 0.991536 0.671054
1.54088 1.04808 2.00588
1.53994 1.10913 3.07705
1.55235 1.16219 4.14833
1.53267 1.77255 -3.10967
1.54822 1.85272 -2.0414
1.56384 1.99529 -0.709605
1.56086 2.11663 0.620283
1.55356 2.19795 1.95217
1.55504 2.25092 3.02063
1.56103 2.29993 4.09095
-0.749406 0.517928 -2.01909
0 0.262068 -1.98793
-0.752979 0.25588 -1.30392
-0.772736 0.685 2.06214
0 0.292286 2.0642
-0.763435 0.278337 1.38041
0 0.797181 -2.03126
-0.774329 0.876262 -1.32833
0.00432551 1.10179 2.04679
-0.777138 1.06338 1.33833
0.749398 0.517993 -2.01908
0.753198 0.255661 -1.30392
0.78602 0.68 2.0711
0.76376 0.278012 1.38041
0.776 0.874932 -1.32833
0.782116 1.05283 1.33833
-0.841547 0.183768 0.038245
-0.878345 0.570907 -0.647252
5.23306e-05 0.203271 -0.632837
-0.880015 0.599952 0.690497
9.93507e-05 0.182375 0.709327
-0.784461 0.978548 0.00500005
-0.00322648 1.28625 -0.661667
0.00175775 1.5181 0.671667
0.841547 0.183768 0.038245
0.870998 0.564563 -0.647252
0.882923 0.595415 0.690497
0.788312 0.973137 0.00500005
-0.860464 0.544418 -1.31613
0.860373 0.541278 -1.31613
2.61653e-05 0.209281 -1.30392
-0.00161324 0.987935 -1.32833
0 0.51796 -2.19048
-0.884563 0.58543 0.0216225
0.884109 0.579989 0.0216225
7.58406e-05 0.192798 0.038245
-0.000734368 1.49481 0.00500005
-0.89445 0.642476 1.35937
0.894428 0.637707 1.35937
4.96753e-05 0.218477 1.38041
0.00304163 1.50374 1.33833
0.00216275 0.6825 2.14997
-0.739058 0.396464 -1.99858
-0.362815 0.270394 -1.97961
-0.740024 0.264721 -1.63946
-0.795617 0.495 2.09356
-0.3725 0.272597 2.08389
-0.756631 0.289255 1.71595
-0.727533 0.639392 -2.00738
-0.3525 0.792745 -2.02686
-0.751026 0.82992 -1.66167
-0.756097 0.875 2.03696
-0.364179 1.09522 2.03772
-0.776235 1.08551 1.67167
0.362815 0.27047 -1.97953
0.739099 0.396496 -1.99863
0.740154 0.264591 -1.63946
0.3725 0.297718 2.05877
0.796427 0.4925 2.09221
0.755609 0.290277 1.71595
0.3525 0.792654 -2.0267
0.727208 0.639489 -2.00705
0.751909 0.829367 -1.66167
0.37283 1.0926 2.0401
0.760138 0.8675 2.03451
0.782318 1.07451 1.67167
-0.770043 0.242931 -0.968378
-0.83743 0.183771 -0.297296
-0.868978 0.373466 -0.640044
-0.420389 0.180605 -0.632837
-0.852135 0.185523 1.04487
-0.841885 0.187544 0.373786
-0.87191 0.389253 0.699912
-0.425867 0.179211 0.709327
-0.791197 0.916168 -0.995
-0.858276 0.768817 -0.654459
-0.791136 0.962184 -0.328333
-0.463354 1.24099 -0.661667
-0.777207 1.04041 1.005
-0.853247 0.81977 0.681082
-0.774913 0.992038 0.338333
-0.503093 1.50089 0.671667
0.770044 0.242929 -0.968378
0.420467 0.180605 -0.632837
0.83743 0.183771 -0.297296
0.868097 0.368872 -0.640044
0.852125 0.185533 1.04487
0.426016 0.179211 0.709327
0.841892 0.187538 0.373786
0.871605 0.387815 0.699912
0.792729 0.913135 -0.995
0.460343 1.24159 -0.661667
0.859243 0.763287 -0.654459
0.791937 0.955289 -0.328333
0.78148 1.03073 1.005
0.509131 1.5015 0.671667
0.854112 0.81189 0.681082
0.777134 0.983433 0.338333
-0.84567 0.531173 -1.66761
-0.374703 0.517944 -2.16019
1.30826e-05 0.243234 -1.64593
0 0.390014 -2.15048
-0.849933 0.400149 -1.31002
-0.376476 0.211527 -1.30392
-0.885372 0.663738 1.71076
-0.385287 0.68375 2.13062
2.48377e-05 0.221954 1.72231
0.00108138 0.487393 2.16137
-0.877518 0.460406 1.36989
-0.381693 0.21835 1.38041
-0.000806621 0.911506 -1.6798
0 0.65757 -2.14649
-0.867992 0.71034 -1.32223
-0.387971 0.967271 -1.32833
0.00368357 1.40789 1.69256
0.00324413 0.892144 2.13485
-0.855923 0.852927 1.34885
-0.387048 1.49275 1.33833
0.845559 0.529635 -1.6676
0.374699 0.517976 -2.16019
0.851021 0.398469 -1.31002
0.376612 0.21943 -1.30392
0.88541 0.658854 1.71523
0.394091 0.68125 2.13728
0.876736 0.457859 1.36989
0.381905 0.216192 1.38041
0.869493 0.708105 -1.32223
0.387193 0.967029 -1.32833
0.857138 0.845271 1.34885
0.392579 1.49226 1.33833
-0.870409 0.380922 0.0299338
-0.425065 0.179624 0.038245
-0.875039 0.557662 -0.981689
-0.883857 0.578168 -0.312815
3.92479e-05 0.14196 -0.968378
6.40856e-05 0.19804 -0.297296
-0.883583 0.592691 0.35606
-0.877121 0.621214 1.02493
8.75956e-05 0.187579 0.373786
7.4513e-05 0.17647 1.04487
-0.855473 0.792469 0.0133113
-0.515408 1.4823 0.00500005
-0.00241986 1.08295 -0.995
-0.00198043 1.45419 -0.328333
0.000511689 1.51149 0.338333
0.00239969 1.52169 1.005
0.869913 0.378336 0.0299338
0.425141 0.179624 0.038245
0.874939 0.55292 -0.981689
0.880074 0.572276 -0.312815
0.88432 0.587702 0.35606
0.877049 0.616561 1.02493
0.856323 0.78662 0.0133113
0.51795 1.4823 0.00500005
-0.837815 0.398306 -1.65353
-0.877887 0.391445 -0.975033
-0.861487 0.734706 -0.988344
-0.835257 0.674866 -1.66464
0.837692 0.397483 -1.65353
0.835506 0.673797 -1.66464
0.862555 0.728857 -0.988344
0.877983 0.388993 -0.975033
-0.369646 0.252625 -1.64269
0.369714 0.252638 -1.64269
0.393973 0.156053 -0.968378
-0.393853 0.156053 -0.968378
-0.370236 0.892869 -1.67073
-0.3946 1.04836 -0.995
0.390984 1.05306 -0.995
0.369847 0.89261 -1.67073
-0.368759 0.393239 -2.12493
-0.363602 0.648481 -2.09923
0.3636 0.64853 -2.09902
0.368757 0.393255 -2.12578
-0.869694 0.377194 -0.305055
-0.871202 0.385067 0.364923
-0.856782 0.80733 0.347197
-0.856881 0.780647 -0.320574
0.869005 0.373604 -0.305055
0.85774 0.774932 -0.320574
0.855377 0.799334 0.347197
0.870817 0.383046 0.364923
-0.422713 0.180143 -0.297296
0.42279 0.180143 -0.297296
0.425579 0.179418 0.373786
-0.425466 0.179417 0.373786
-0.515206 1.4133 -0.328333
-0.512125 1.49734 0.338333
0.516489 1.4978 0.338333
0.51475 1.41315 -0.328333
-0.878042 0.427034 1.0349
-0.870453 0.477703 1.71335
-0.845525 0.863963 1.69121
-0.853316 0.829584 1.01497
0.882568 0.424577 1.0349
0.854072 0.822403 1.01497
0.845663 0.856386 1.69345
0.870361 0.47518 1.71559
-0.402364 0.1782 1.04487
0.40257 0.1782 1.04487
0.377202 0.262335 1.71913
-0.377096 0.258266 1.71913
-0.386177 1.51075 1.005
-0.375613 1.40063 1.68211
0.382704 1.40019 1.68211
0.3907 1.51034 1.005
-0.378893 0.491196 2.18147
0.383296 0.489946 2.18121
0.383461 0.879822 2.10262
-0.374733 0.883572 2.1034
-0.733665 0.335732 -1.98811
-0.544223 0.272028 -1.97797
-0.73786 0.264828 -1.80723
-0.771259 0.4 2.07348
-0.55875 0.29327 2.06322
-0.754914 0.293029 1.88372
-0.719069 0.700124 -2.00399
-0.52875 0.779478 -2.01361
-0.733665 0.80104 -1.82833
-0.750583 0.97 2.02717
-0.548431 1.0884 2.02965
-0.762654 1.08345 1.83833
0.544223 0.272013 -1.97799
0.733681 0.335748 -1.98813
0.737902 0.264786 -1.80723
0.55875 0.301799 2.05469
0.771772 0.39875 2.07291
0.754386 0.293557 1.88372
0.52875 0.77937 -2.0134
0.719196 0.700237 -2.00412
0.733801 0.800523 -1.82833
0.557082 1.08422 2.03297
0.756247 0.96125 2.02527
0.769406 1.07234 1.83833
-0.817023 0.198007 -0.800607
-0.835378 0.183767 -0.465066
-0.863647 0.27507 -0.636441
-0.622257 0.185977 -0.632837
-0.844801 0.190799 0.877097
-0.842414 0.189073 0.541556
-0.855012 0.290327 0.704619
-0.637623 0.180085 0.709327
-0.793711 0.930202 -0.828333
-0.83048 0.858892 -0.658063
-0.791747 0.951276 -0.495
-0.667336 1.1662 -0.661667
-0.776744 1.02843 0.838334
-0.817849 0.918671 0.676374
-0.77661 1.00525 0.505
-0.660903 1.30305 0.671667
0.817003 0.198028 -0.800607
0.62205 0.186522 -0.632837
0.835372 0.183772 -0.465066
0.863387 0.272656 -0.636441
0.844748 0.190853 0.877097
0.637754 0.180071 0.709327
0.84242 0.189066 0.541556
0.854941 0.289518 0.704619
0.795567 0.926709 -0.828333
0.666125 1.16725 -0.661667
0.833553 0.852743 -0.658063
[...]
POINT_DATA 3682
SCALARS point_scalars float 1
LOOKUP_TABLE default
-111.982
-54.0086
-48.7476
-40.0592
-112.089
-55.9588
-49.2022
-45.8533
-47.7211
-43.2936
-68.7007
-46.138
-47.7111
-43.9302
-67.0505
-47.1993
-52.1783
-90.7883
-46.3731
-42.51
-52.5846
-52.5181
-43.7747
-11.3999
-93.4111
-46.1675
-41.7954
-54.5675
-46.7721
-43.9146
45.3669
-66.946
-54.7212
-43.1898
-47.1282
-41.5466
-43.305
-63.3445
-54.2977
-103.946
-55.2147
-43.5505
-40.3534
-40.3534
20.9767
-130.17
-44.4623
-43.6516
-51.3373
-46.153
-43.7096
137.785
-43.2141
-43.3728
166.903
-36.4852
-41.978
38.6227
-40.2958
-77.5222
-56.8849
-43.0701
-36.22
-32.8336
20.7201
-126.404
-43.179
-44.9984
-53.9992
-47.2968
-44.9393
144.481
-44.846
-44.5612
166.732
-42.5053
-43.8851
67.2673
-41.223
-81.0267
-57.8378
-45.9891
-41.0617
-40.8344
-52.2273
-90.0155
-45.749
-43.2976
-55.2755
-55.0471
-46.2799
-12.1655
-93.0512
-46.7011
-42.5735
-57.3748
-49.2783
-45.7061
45.0127
-67.8175
-54.9054
-44.8707
-51.4844
-46.6037
-46.8223
-63.8013
-54.5255
-107.448
-56.0677
-47.6475
-45.5529
-45.5529
-21.4986
-115.903
-43.4004
-42.9545
-49.095
-48.0172
-28.3269
-35.6981
-34.7087
-44.9426
-22.0729
-43.4959
-47.4632
-48.9211
-36.3518
-47.1964
-41.9324
-46.8052
-51.6699
-42.2908
-46.9474
-56.0975
6.25865
-61.5505
-42.2966
-47.2298
-43.4208
-56.4697
-48.1833
-48.4474
-50.1828
7.96052
209.926
-44.4766
-45.0023
-42.9995
-89.1085
-47.084
-49.0815
-51.0359
-51.2375
-43.4215
-37.6282
-117.585
-61.8612
-48.4119
-48.9613
-46.3536
-24.4382
-53.8598
-38.053
-41.8519
-32.5187
-46.2853
-117.799
-38.8697
-62.0622
-49.7047
-51.1536
-48.8656
-50.4003
-24.4402
-38.4601
-38.8553
-46.6968
-50.4034
-26.9969
-43.7485
-45.6904
-49.6734
-57.7923
-41.7079
-41.619
-46.5716
-49.4754
-53.2314
-62.8275
-5.10884
-45.3423
-43.0252
-50.3477
-56.1568
-26.5673
-49.7352
-43.9802
-45.97
-58.8163
-46.9708
-42.0606
-42.4885
-49.8874
-5.0542
-53.1621
-62.711
-46.8123
-56.9321
-44.1054
-50.9788
-69.1752
189.153
-64.1436
158.378
-46.5304
-47.9878
-49.1317
-39.6413
-49.9623
-44.1429
-47.0638
-51.2348
-14.8749
173.407
-49.7711
-1.22637
-38.3859
-40.2791
-44.5428
-51.5554
-69.2122
189.136
-46.9065
-47.0438
-51.7509
-42.2765
-48.533
-52.3484
-50.2022
-0.607482
-46.6938
-53.1779
-42.6415
-43.3212
-48.2655
-46.5497
-61.3252
-44.4115
-42.6731
-41.9418
-43.9628
-55.0998
-49.0663
-83.2384
35.2655
-106.553
-72.3089
-56.9491
-43.2026
-43.4869
-48.6757
-46.116
-43.4776
-42.8034
-49.3535
-83.3467
-69.3194
-46.7286
-49.258
-59.2315
-69.5537
-59.4828
-49.4532
-46.8147
-63.1137
-63.7452
-59.1706
-59.0494
-17.6741
23.0884
23.3892
-20.9009
136.468
161.343
161.631
136.066
-44.3569
-41.9009
-45.0195
-52.2676
-44.3139
-52.3196
-45.3046
-42.6296
-45.1888
-45.3126
-44.0666
-43.8252
-89.1473
-66.5283
-67.0229
-88.8152
-44.842
-48.0228
-48.0954
-42.7882
-45.8251
-44.1319
-51.4142
-50.3673
-52.1224
-52.9518
-50.4097
-49.0489
-54.8085
-38.9401
-42.5713
-55.6317
-43.909
-44.6496
-41.7689
-37.6818
-38.6005
-141.674
-89.6204
-50.2489
-48.9842
-49.2903
-26.351
-44.9087
-53.6325
-41.7139
-35.0221
-43.1229
-141.542
-47.0974
-89.8388
-50.9997
-52.9699
-50.8688
-46.1625
-26.6857
-53.9254
-40.9236
-47.0651
-47.9022
-47.5139
-45.9088
-45.4683
-49.4983
-45.1218
-41.7701
-41.6762
-45.5817
-63.1637
-59.5414
-65.3788
-73.4076
-45.3469
-45.1287
-48.995
-51.9144
-49.1104
-49.4995
-45.8963
-46.4789
-45.9107
-46.1012
-42.3027
-42.4676
-64.1123
-74.1505
-59.0553
-65.5216
-46.4815
-52.8651
-46.3023
-49.7675
-26.0089
-24.1332
-84.0884
150.221
-118.006
-117.994
-82.5523
94.5264
-51.6541
-39.3068
-45.1455
-46.3814
-46.8714
-42.9155
-50.3095
-39.1933
-49.1144
-49.1924
-51.4903
-44.9312
-44.9229
-52.837
-46.7129
-49.1648
-39.2761
-30.016
-23.3929
116.478
-37.136
-39.7492
-47.6413
-13.5747
-32.8981
-36.73
-36.0337
-36.4568
-45.2562
-44.8532
-44.6745
-50.2376
-26.8229
-24.463
-84.4348
150.077
-51.6638
-39.2152
-45.0754
-45.8256
-50.0202
-47.1031
-54.093
-42.8576
-46.1918
-53.9098
-47.97
-50.8572
-37.449
-40.443
-47.9961
-13.3017
-48.2898
-46.7159
-46.9547
-52.2555
-42.3678
-41.4966
-41.9173
-42.9868
-46.0637
-49.5365
-45.8531
-47.0335
-50.3554
-50.4209
-55.6108
-48.0204
-41.8982
-42.6968
-42.4625
-41.9755
-46.6722
-47.0392
-45.1774
-48.8496
-59.5531
-53.0759
-53.125
-66.6546
6.07735
6.04879
30.2029
-35.2172
-60.4411
-60.828
-66.2513
-58.5233
-42.693
-41.9294
-42.4061
-43.235
-46.2832
-49.5533
-46.6686
-46.6814
-42.8539
-43.7504
-43.2335
-43.1659
-59.7971
-53.7393
-53.5271
-66.755
-56.0526
-47.4439
-48.6972
-45.9625
-56.1525
-47.7211
-49.0484
-46.1362
-53.9939
-49.9586
-49.7403
-43.66
-3.73737
5.55157
6.14569
21.4293
202.538
182.646
191.226
202.59
-43.3604
-45.412
-43.5263
-46.4409
-43.9897
-45.7952
-44.1578
-46.9359
-43.1736
-43.2935
-43.2098
-43.2448
-88.5132
-100.375
-80.0098
-88.6255
-48.8766
-47.3569
-44.3419
-42.0646
-51.1373
-49.0406
-46.5358
-43.5762
-49.6228
-51.4553
-51.8355
-56.4487
-45.2658
-51.1151
-52.0457
-54.5968
-41.9499
-44.1929
-41.8517
-42.6675
-93.5189
104.472
-83.9899
49.6853
-68.6704
-63.5537
-52.9091
-43.4523
-48.3175
-44.2958
-47.2151
-46.8629
-73.6363
131.241
-28.7332
127.693
-49.706
-24.6219
-48.2904
-37.972
-35.1809
-33.76
-47.3921
-43.0573
-84.9969
49.6247
-93.4974
104.261
-68.9454
-63.8353
-49.0808
-45.4425
-55.7731
-44.8809
-49.3347
-51.9794
-32.0718
128.709
-74.1958
131.243
-50.0984
-25.5413
-38.9505
-40.441
-52.4987
-42.829
-51.0136
-47.2182
-44.1382
-40.5534
-43.6886
-45.0173
-44.5825
-45.3334
-52.7089
-47.2134
-57.1481
-51.3815
-41.9865
-43.1952
-41.3258
-42.6939
-44.9279
-49.2168
-51.4189
-1.67377
-50.6242
-53.337
-57.4698
-86.5754
17.5359
-46.2396
-43.8216
-50.0884
-45.9495
-42.854
-48.7061
-57.3511
-60.3704
-54.88
-45.2826
-40.7195
-52.7779
-47.3082
-43.8088
-45.2561
-46.0518
-45.0045
-58.415
-52.3238
-45.2346
-49.757
-42.3903
-43.531
-41.9904
-43.6543
-51.7536
-1.90721
17.8575
-46.0515
-51.057
-53.215
-57.3535
-86.49
-45.1944
-51.7009
-61.268
-55.5623
-46.7579
-44.0217
-49.3038
-57.959
-70.0898
-65.6286
164.04
175.696
-63.2758
-63.7001
147.743
147.775
-54.2052
-43.1592
-52.7275
-43.797
-48.5904
-48.9989
-43.555
-40.0097
-50.2099
-49.1462
-44.0131
-44.3157
-48.9453
-47.3645
-56.0048
-49.6524
-14.5418
-20.0195
166.928
167.313
-47.0681
-54.3749
-9.19484
10.8184
-39.0827
-41.133
-40.9007
-38.9816
-48.6166
-43.0098
-53.6081
-45.549
-70.3051
-65.6542
175.801
164.406
-54.1873
-43.204
-52.9695
-43.6984
-52.0771
-50.9292
-44.2852
-42.722
-50.1757
-49.2125
-56.9682
-50.7597
-54.8126
-47.1746
11.1263
-8.54478
-44.6478
-51.4294
-48.0218
-54.7215
-43.359
-42.0506
-43.9111
-43.3172
-47.8069
-47.9908
-45.2587
-48.9333
-63.1081
-63.144
-44.8155
-44.8642
-42.2085
-44.0815
-42.2337
-42.4763
-44.2847
-44.1625
-53.9832
-54.3601
-47.0459
-50.7653
-94.3457
-73.5165
32.2742
32.3489
-102.556
-102.779
-70.9809
-71.2257
-56.3598
-56.7788
-43.8144
-42.7359
-44.0551
-43.5134
-48.4393
-48.3328
-45.2897
-49.0114
-44.7201
-42.9741
-42.9493
-43.7353
-51.0396
-47.6964
-73.4208
-94.7882
-90.6486
-53.1081
-55.1833
-89.0163
-47.8096
-45.1416
-44.9372
-40.6053
-56.8565
-46.7138
-47.2845
-47.9067
-67.3172
-77.6177
-56.148
-48.1976
-90.7454
-89.0088
-55.2688
-53.0679
-67.6572
-48.6082
-56.4272
-77.9938
-57.3257
-48.237
-47.4129
-46.8817
-48.3858
-40.2366
-45.1075
-45.8114
-87.3631
-82.1899
-53.4495
-52.9386
-87.7894
-53.1509
-53.4216
-82.9021
-54.8467
-54.2375
-44.0683
-40.6768
-54.6726
-40.7489
-44.146
-54.2324
-35.2774
-18.7002
-4.7271
-23.5829
-28.475
27.9638
18.6028
-5.92529
-29.2432
-5.64438
18.5651
27.8564
-36.5828
-27.4696
-3.75043
-18.8405
40.7946
130.409
180.363
85.7611
92.7453
133.446
186.625
142.577
92.7093
142.784
186.818
134.363
40.3499
85.9882
180.432
130.208
-45.0294
-42.6184
-44.2597
-46.0166
-41.2452
-41.8837
-42.6472
-41.5025
-47.3705
-50.7209
-45.0931
-43.6543
-58.8432
-49.6098
-47.7932
-55.5023
-44.8274
-45.6923
-44.8399
-42.9858
-58.659
-55.6546
-48.1361
-49.5982
-48.0992
-44.5174
-45.7301
-51.3087
-41.8971
-42.0793
-43.3523
-42.6222
-47.0608
-48.1514
-43.6136
-43.6323
-47.1452
-43.8722
-43.6684
-48.2332
-44.4812
-45.0142
-43.3372
-43.1776
-44.0778
-42.8892
-43.2486
-44.8568
-96.4659
-74.5685
-99.6585
-29.8241
-54.2511
-64.8429
-78.8115
-61.5358
-55.1982
-61.8817
-78.9732
-65.1535
-96.6315
-29.6606
-99.7634
-74.7402
-43.3351
-48.9322
-45.7968
-42.278
-53.1438
-51.5689
-48.0959
-46.2913
-46.3645
-45.9791
-50.1658
-48.9848
-44.1681
-42.4003
-42.6139
-43.8592
-44.2364
-43.3562
-47.2683
-50.0791
-45.3142
-45.6111
-44.0377
-43.5315
-51.0789
-52.9969
-52.819
-48.919
-55.4977
-47.9953
-50.1016
-55.0504
-48.0703
-49.3819
-56.5074
-56.4148
-48.7996
-57.833
-56.77
-49.5055
-49.6139
-50.8485
-50.1068
-48.5106
-50.9253
-47.5877
-48.9558
-49.2827
-48.7253
-50.3997
-54.3483
-57.6432
-36.5099
-35.0746
-45.0064
-46.9971
-40.8294
-50.1565
-46.3765
-37.4996
-49.7881
-58.0322
-54.9866
-51.7718
-44.0665
-44.5317
-44.1779
-42.9203
-46.0453
-44.3105
-44.2738
-45.3243
-42.2483
-38.4933
-42.5095
-43.3041
-35.6806
-39.6021
-41.4057
-35.0736
-67.3826
-142.149
-121.013
-52.7431
-50.3198
-50.2879
-37.3812
-39.6922
-67.7615
-41.2962
-36.6609
-41.0378
-142.599
-67.4152
-121.32
-52.2083
-55.4145
-51.6764
-40.8073
-37.7253
-68.4909
-42.1546
-47.0925
-46.3942
-49.3233
-44.202
-47.0307
-48.5042
-44.3212
-41.7814
-42.0655
-45.1952
-67.1535
-63.1635
-67.7985
-92.8379
-45.487
-45.6427
-47.8994
-48.9535
-49.9801
-48.6312
-44.1659
-47.2873
-45.0812
-45.7079
-42.3209
-42.8321
-68.6949
-93.1754
-62.4739
-66.3579
-46.5832
-49.9102
-46.767
-48.726
-21.6821
-19.3921
-102.044
99.8756
-117.164
-117.183
-95.5993
-34.2703
-47.3346
-41.1846
-44.3912
-44.8138
-45.1567
-42.7898
-49.6704
-39.8203
-49.1331
-49.2233
-51.085
-46.474
-45.755
-50.0116
-47.0418
-48.617
-35.2497
-32.8521
-23.0875
-11.9698
-35.6185
-36.5151
-43.1512
-22.5544
-33.6736
-35.6637
-35.5557
-34.6188
-45.0979
-44.9169
-44.7542
-46.1228
-22.3941
-19.8132
-102.102
99.6333
-47.241
-41.2002
-44.1962
-44.6853
-48.9955
-46.5872
-53.4225
-43.5753
-46.5736
-50.9477
-48.1014
-49.4429
-35.9886
-37.0284
-43.6969
-22.6933
-47.606
-46.9403
-47.0213
-48.4845
-42.0421
-41.7805
-41.8065
-42.8393
-46.3581
-48.1051
-46.4042
-46.7909
-50.5017
-50.5466
-55.2862
-48.9805
-42.0487
-42.5189
-42.2227
-42.1341
-46.892
-47.0052
-46.0083
-47.8537
-57.6365
-54.6684
-54.8597
-61.1462
6.55695
6.58724
20.0395
-12.4405
-61.2313
-61.4192
-63.4612
-59.9002
-42.3782
-42.1711
-42.2542
-43.1326
-46.6018
-48.168
-47.4623
-46.7607
-43.0917
-43.6032
-43.0514
-43.4657
-58.0316
-55.1171
-55.334
-61.5708
-51.3938
-47.8081
-48.5264
-46.6161
-51.5479
-48.0858
-48.7453
-46.809
-52.2124
-50.2329
-50.1452
-47.477
1.24423
7.35769
7.62478
13.3342
204.984
202.245
206.789
205.03
-43.6456
-44.9397
-43.9077
-45.3974
-44.2159
-45.4751
-44.4887
-45.9646
-42.9987
-43.079
-43.0396
-43.0323
-88.9634
-95.0278
-84.4126
-89.0164
-48.3669
-47.4292
-45.3734
-44.191
-50.3866
-49.1858
-47.9369
-46.2912
-49.6233
-51.5603
-51.5338
-52.5624
-48.1655
-50.9252
-51.4297
-52.7815
-42.707
-43.8722
-42.5832
-43.0245
-41.4125
-33.9938
-93.5876
64.2696
-124.833
-115.532
-102.003
-44.9962
-73.8274
-55.6192
-67.372
-62.8014
-48.752
-47.6711
-52.7824
-43.8515
-48.223
-49.1464
-46.762
-46.7611
-46.9304
-45.5379
-46.9988
-46.5354
-21.7163
-29.3506
-81.3506
91.6714
-55.493
-41.7005
-33.9634
6.2258
-43.0793
-38.6939
-45.4951
-29.8101
-41.6501
-42.5617
-47.616
-39.0969
-33.2807
-32.4865
-34.5458
-31.913
-44.8533
-45.648
-46.9354
-44.3556
-125.128
-117.013
-103.139
-41.1141
-41.0986
-34.8679
-93.5693
63.9491
-74.0605
-55.7751
-67.6475
-63.0237
-50.1836
-49.4808
-48.8332
-47.3146
-51.371
-50.6245
-55.7387
-45.8637
-49.4529
-46.9378
-49.1315
-50.3295
-54.9777
-31.927
-35.7786
8.46673
-21.9376
-29.6053
-81.5568
91.3491
-43.3676
-39.0571
-45.9343
-30.4216
-39.8208
-37.8018
-38.9938
-39.5296
-46.7335
-47.0205
-52.4279
-43.6031
-49.4749
-49.1267
-50.6734
-48.441
-34.5392
-35.5774
-38.1351
-34.1621
-44.7438
-42.9684
-43.6935
-44.8492
-45.605
-45.6072
-45.0701
-45.661
-49.8098
-49.8017
-51.1532
-48.3446
-48.6789
-62.8821
-60.2022
-50.677
-42.0837
-41.4972
-41.4384
-42.8056
-41.8465
-41.7282
-41.3556
-41.9273
-46.1777
-46.7434
-45.7127
-47.7616
-60.5846
-43.3822
-52.9797
-26.9166
-56.0435
-51.1021
-52.4511
-53.4823
-64.0785
-61.3053
-60.3612
-72.2995
-21.5738
4.21152
8.00576
-18.8394
-45.4075
-44.9614
-44.4164
-47.8111
-43.9809
-42.8839
-45.3877
-42.8589
-49.0297
-51.8543
-49.7352
-53.367
-55.0337
-58.8714
-58.6993
-56.4664
-34.7538
-35.597
-40.351
-34.2402
-49.8697
-49.9533
-51.2139
-48.4314
-44.8954
-43.2531
-43.8663
-45.1445
-46.1421
-45.9513
-46.4304
-45.4856
-49.5026
-64.1069
-61.3488
-51.6423
-46.6461
-47.0817
-46.063
-48.2172
-42.5905
-41.9912
-41.8057
-43.1821
-42.6703
-42.6376
-42.1199
-42.8854
-61.0448
-44.2358
-52.9846
-27.5501
-22.0401
4.37643
8.22384
-18.7039
-55.724
-51.1463
-52.5902
-53.3263
-63.8667
-61.174
-60.0781
-72.2269
-46.6733
-46.6817
-45.7698
-49.247
-55.8869
-59.4468
-59.5527
-57.2368
-44.9552
-43.9351
-46.3347
-44.0304
-49.715
-52.7101
-50.4842
-53.8666
-74.9913
-63.9006
-69.7436
-68.2454
174.781
198.014
179.217
186.058
-72.0411
-56.685
-63.7555
-63.9615
156.637
165.787
153.987
154
-46.0228
-47.0004
-49.5125
-44.7038
-47.9477
-49.5766
-50.6691
-45.676
-50.1456
-48.0733
-48.5154
-49.6846
-38.9881
-40.4844
-41.8281
-40.0971
-50.6567
-48.8577
-50.325
-49.3781
-44.3186
-44.1642
-44.0245
-44.1889
-46.7035
-47.3008
-47.4393
-47.3548
-49.9518
-51.4614
-52.5083
-50.4823
-19.3648
-9.11383
-14.1115
-16.3527
158.36
172.835
168.816
169.14
-49.6701
-48.588
-48.4954
-51.847
-6.6045
2.52526
-5.4894
4.53328
-36.2281
-42.5441
-39.0502
-39.7509
-38.0619
-41.8091
-40.5489
-39.4229
-44.7519
-44.2904
-46.3218
-43.2366
-51.625
-51.0677
-52.6229
-48.2711
-75.5355
-64.1795
-69.8721
-68.1306
174.731
198.06
186.098
179.401
-46.3726
-47.3588
-49.2955
-45.1403
-46.8087
-48.8409
-51.3332
-44.5676
-53.4525
-50.4432
-52.511
-51.0161
-42.4791
-42.1913
-43.4452
-42.6145
-48.1569
-48.8458
-48.7715
-48.9706
-51.9745
-52.3335
-53.3528
-51.4726
-50.0106
-49.2899
-52.015
-48.5957
-6.17421
3.29134
4.95178
-4.77537
-46.8913
-46.4111
-45.0148
-48.8978
-53.6815
-52.5076
-50.3118
-54.007
-42.1864
-43.1336
-42.8768
-42.227
-43.2725
-43.3157
-43.5327
-43.2526
-47.3965
-45.9557
-48.3079
-47.865
-46.8223
-46.0048
-45.5983
-47.702
-66.3075
-39.5319
-58.5733
-58.582
-45.6923
-43.7108
-44.3347
-44.3554
-42.8271
-43.1298
-42.3657
-43.593
-41.8101
-42.0152
-41.3573
-42.3798
-44.5038
-43.5227
-44.0331
-43.9732
-52.5675
-59.1637
-55.4373
-55.6064
-51.0852
-47.6118
-48.0119
-49.8206
-75.9404
-87.6652
-89.588
-79.9061
36.4975
28.7184
34.0755
34.059
-81.7369
-109.952
-106.308
-106.366
-69.1763
-75.8537
-71.9553
-72.0783
-57.5288
-56.3144
-56.7336
-56.9566
-42.715
-43.759
-43.4027
-42.8152
-43.4804
-43.4346
-43.6864
-43.432
-47.7172
-46.2879
-48.1128
-48.5733
-46.2755
-45.9634
-45.5994
-47.5608
-43.4329
-43.8302
-44.2731
-43.074
-42.9969
-43.036
-42.3464
-43.4457
-51.3929
-48.0887
-50.1997
-48.5809
-76.3862
-87.8219
-79.9016
-89.69
-78.4067
-69.0184
-69.9448
-61.6506
-45.2692
-48.1556
-40.5759
-46.9315
-50.4854
-50.0262
-47.4555
-48.5338
-63.7184
-55.1405
-62.6745
-57.0276
-78.8001
-69.2524
-70.1717
-61.7802
-64.057
-55.5033
-62.8209
-57.3344
-50.7398
-50.1981
-47.7861
-49.0488
-45.6218
-48.4412
-40.6459
-47.0347
-71.9962
-63.6084
-62.5433
-56.3649
-72.7994
-64.0358
-63.7274
-56.7215
-49.6499
-58.6307
-42.8271
-62.442
-49.4623
-58.535
-42.6946
-62.4015
-23.9751
-20.7223
-15.9049
-13.2435
13.9724
24.1674
17.0409
28.0081
13.7099
23.7647
17.3349
28.5792
-28.8716
-22.2026
-22.035
-13.3419
125.636
113.512
145.059
142.928
154.26
162.761
161.369
164.945
163.003
154.368
165.281
161.587
112.592
125.265
142.941
145.428
-43.9862
-44.7662
-43.7551
-44.8939
-41.9806
-41.784
-41.8621
-42.0583
-44.701
-47.3613
-44.5422
-45.927
-52.9755
-54.3299
-50.4298
-51.5225
-44.0899
-44.6372
-44.0567
-44.6993
-52.8982
-54.7505
-50.4965
-51.6779
-45.2447
-47.7336
-45.2168
-46.7782
-42.568
-42.3789
-42.5544
-42.9066
-45.1981
-46.1407
-44.4319
-45.102
-46.2396
-45.3666
-45.192
-44.5671
-44.567
-43.87
-44.2051
-43.7173
-43.5816
-44.2967
-43.5001
-44.0123
-100.374
-62.3218
-92.1709
-96.8646
-61.281
-63.2294
-69.6679
-69.2889
-63.8159
-62.1266
-69.6576
-69.7525
-62.3674
-100.323
-96.7786
-92.1441
-49.7177
-43.8213
-47.4462
-41.9805
-50.2269
-47.5801
-48.3929
-46.6891
-48.5059
-47.9498
-48.1675
-48.9731
-43.2434
-42.7827
-42.9008
-42.6216
-51.0526
-44.4264
-49.2073
-43.0719
-44.6431
-44.0172
-44.3903
-43.9309
-52.2192
-51.3488
-51.3673
-52.0845
-52.8423
-49.8094
-50.8134
-48.6838
-51.7684
-50.7142
-57.4003
-52.7239
-52.8152
-51.3759
-58.4789
-53.3099
-49.8123
-50.4891
-50.5432
-50.6547
-49.4906
-47.7698
-48.8636
-49.1405
-54.2047
-54.9549
-54.346
-55.5558
-35.7139
-40.8141
-38.935
-43.0672
-39.381
-44.7341
-42.0068
-46.2157
-55.0571
-55.7253
-55.2622
-56.2227
-43.6646
-43.978
-43.8719
-44.1856
-44.9735
-44.7225
-44.6352
-44.4625
-41.0571
-42.3643
-41.3071
-42.389
-37.466
-35.7676
-39.2106
-38.3323
-107.768
27.7055
-108.655
-62.69
-88.7259
-88.9352
-54.2966
-45.328
-50.6144
-46.3751
-52.4805
-48.8633
-78.488
79.7347
-41.7554
45.5705
-61.3063
-41.1697
-45.8794
-37.9276
-35.7614
-34.4185
-44.5521
-39.5821
-109.019
-63.5258
-107.675
27.3388
-88.829
-89.2764
-49.8109
-48.2924
-57.0658
-47.683
-54.7683
-49.65
-42.6855
45.4462
-78.9739
79.3499
-61.5947
-41.9771
-40.3041
-41.5851
-51.0073
-43.2741
-49.3471
-44.3941
-46.8734
-53.9504
-45.625
-47.1088
-42.3729
-46.2441
-51.8502
-48.2284
-43.4774
-47.3039
-41.4844
-43.4752
-39.5131
-42.2316
-44.7489
-46.6441
-60.1355
-55.2157
-58.4067
-59.5148
-62.1213
-79.9461
-45.474
-94.6731
-44.5385
-47.4249
-46.4834
-44.429
-47.9926
-52.1553
-53.0249
-50.169
-48.2675
-54.3088
-51.8446
-48.2663
-45.4875
-47.0376
-48.0324
-45.7773
-44.373
-48.0813
-45.1999
-47.2736
-42.1278
-43.92
-40.1311
-43.0957
-60.6938
-56.4507
-46.6634
-94.3279
-58.5737
-58.9503
-62.0218
-79.8071
-45.7015
-48.553
-53.9181
-51.234
-47.1731
-45.5754
-48.8315
-52.9634
-98.1722
86.382
-96.2408
100.7
-86.7099
-80.1279
142.111
149.046
-96.2293
-49.7523
-97.0303
-48.9477
-81.9374
-82.2649
94.1442
94.2527
-52.5401
-52.1212
-38.5982
-40.8606
-48.5414
-42.005
-49.3083
-42.4753
-51.061
-43.0913
-48.237
-40.1649
-50.9663
-49.1696
-40.7841
-39.52
-49.7091
-46.251
-50.2911
-47.0433
-50.9647
-50.4409
-44.7931
-45.1338
-45.8471
-44.727
-49.9859
-55.9868
-47.2752
-46.5148
-51.2544
-47.2558
-28.0876
22.7851
-19.1618
26.5722
-22.9389
-25.2039
116.912
117.736
-44.0023
-26.0054
-45.7029
-20.0358
-47.622
-47.5686
-15.6179
-9.77717
-34.4121
-32.7706
-37.3228
-37.0004
-35.4304
-36.7391
-37.7935
-36.012
-45.4685
-45.4776
-44.2632
-46.8719
-45.2713
-44.2084
-50.2227
-50.1576
-98.173
86.0879
-96.1797
100.416
-86.8728
-80.5689
148.872
141.944
-52.4956
-52.2274
-38.2889
-40.7955
-48.1915
-43.5792
-49.3339
-42.0993
-54.5794
-45.1662
-52.6859
-43.8883
-53.2076
-54.7058
-43.6124
-43.0585
-47.3628
-47.3703
-51.1026
-57.1932
-48.409
-47.9523
-52.8942
-48.7911
-44.4358
-26.0089
-46.0134
-20.2564
-47.9303
-47.6119
-9.54978
-15.5727
-48.5058
-48.72
-46.1972
-48.7254
-46.1568
-47.8188
-52.3916
-51.9405
-42.455
-43.4306
-41.372
-42.5675
-42.2584
-41.6982
-43.1283
-42.9228
-45.9303
-46.1182
-49.2702
-49.6921
-45.202
-47.0106
-46.3816
-48.3576
-52.4517
-48.8752
-52.4128
-48.9009
-55.361
-55.3625
-49.7352
-49.7649
-41.8579
-42.0477
-43.2648
-42.5112
-42.1375
-43.0834
-42.0604
-42.1428
-46.0918
-47.6397
-46.3082
-47.7404
-45.1476
-45.0637
-48.2236
-48.3374
-57.885
-66.2307
-52.1146
-56.8169
-51.931
-54.3261
-70.259
-63.6757
17.658
-12.1037
17.8313
-12.1029
29.379
29.4119
-32.9961
-33.0668
-62.2625
-58.9644
-62.6175
-59.3719
-65.9079
-66.0701
-58.2542
-58.4536
-42.8153
-43.734
-41.9149
-42.8991
-42.6958
-42.2286
-43.3601
-43.1864
-46.6168
-45.9846
-49.594
-49.5893
-47.659
-46.0437
-45.9855
-47.9208
-42.6895
-43.0778
-44.2151
-43.6146
-43.8829
-42.8221
-43.2349
-43.3019
-58.0133
-66.5031
-52.7396
-57.4107
-54.5758
-52.426
-63.998
-70.5191
-55.5027
-55.8812
-50.51
-45.7409
-47.4165
-51.6333
-45.4434
-46.492
-55.6267
-56.0973
-50.5181
-46.0252
-51.8449
-47.3104
-46.6857
-45.6034
-53.7664
-53.7843
-52.4304
-47.3179
-52.2772
-47.1439
-43.8838
-43.9242
-4.11596
-3.98464
-0.166338
12.0824
12.3006
0.717143
20.427
20.4531
193.374
196.65
182.888