# vtk DataFile Version 2.0
tri_press
ASCII
DATASET UNSTRUCTURED_GRID
POINTS 3682 float
-0.901346 0.125 -1.625
-0.675 0.145 1.88745
-0.821332 0.525 -1.645
-0.642305 0.795 1.805
0.804379 0.135 -1.735
0.681122 0.145 1.885
0.795 0.523122 -1.675
0.645 0.795 1.80667
-0.83434 0.123224 -0.454183
-0.765794 0.122988 0.716633
-0.794684 0.648028 -0.495
-0.755265 0.758284 0.655
0.778608 0.123018 -0.528333
0.740989 0.122885 0.678333
0.792485 0.661233 -0.514443
0.755796 0.76517 0.646113
-1.71587 -0.189696 -2.5292
-1.70254 -0.14355 -1.59333
-1.63275 -0.145573 -0.420457
-1.53225 -0.164344 0.753843
-1.43874 -0.156197 1.92693
-1.4176 -0.128417 2.8637
-1.42143 -0.0921659 3.79974
-1.70528 0.0515318 -2.53244
-1.69503 0.112165 -1.60093
-1.62148 0.132054 -0.436707
-1.51222 0.138085 0.725628
-1.39956 0.154756 1.89063
-1.39101 0.182703 2.82919
-1.40521 0.21703 3.76814
-1.65522 0.504116 -2.54464
-1.63347 0.561072 -1.62374
-1.58371 0.663508 -0.475783
-1.49572 0.754627 0.668056
-1.37717 0.793882 1.81835
-1.37691 0.817877 2.75993
-1.3958 0.84448 3.70472
-1.57958 1.2796 -2.57856
-1.56088 1.35282 -1.65647
-1.53328 1.48459 -0.515114
-1.49871 1.61667 0.620415
-1.45815 1.70055 1.76531
-1.4349 1.73892 2.69473
-1.42418 1.76738 3.63262
-0.909881 -0.181297 -2.56073
-0.903106 -0.132117 -1.62471
-0.84981 -0.148455 -0.443404
-0.785462 -0.176153 0.74271
-0.719685 -0.166386 1.92398
-0.703243 -0.135658 2.8593
-0.703883 -0.0969399 3.79283
-0.899115 0.054241 -2.55952
-0.684097 0.177137 2.82495
-0.692484 0.213329 3.76138
-0.851019 0.488541 -2.56305
-0.673726 0.817512 2.75217
-0.686052 0.844001 3.69639
-0.785055 1.26724 -2.5947
-0.770632 1.3402 -1.67049
-0.757566 1.48027 -0.527701
-0.749 1.62175 0.608297
-0.731807 1.70713 1.7535
-0.714047 1.74386 2.68326
-0.701806 1.77086 3.62126
0.739376 -0.174358 -2.63809
0.761359 -0.124811 -1.71502
0.751216 -0.146726 -0.511352
0.722641 -0.175607 0.704011
0.68928 -0.166001 1.90919
0.700829 -0.134872 2.8452
0.717454 -0.09561 3.77543
0.757002 0.0609741 -2.63634
0.694758 0.177712 2.81546
0.716125 0.214569 3.74636
0.778192 0.492276 -2.61466
0.685087 0.818358 2.74508
0.715788 0.845485 3.68288
0.810075 1.27274 -2.63558
0.815794 1.34624 -1.70617
0.801241 1.48723 -0.556476
0.758953 1.62736 0.586675
0.721673 1.71078 1.73665
0.723042 1.74672 2.66668
0.738786 1.77353 3.60302
1.5559 -0.17653 -2.67009
1.57573 -0.130335 -1.74389
1.54839 -0.138793 -0.539901
1.48517 -0.161368 0.679852
1.42358 -0.154495 1.88718
1.42095 -0.12625 2.82933
1.43818 -0.0891453 3.76188
1.57638 0.0646501 -2.67084
1.60566 0.127309 -1.75306
1.57168 0.140325 -0.55295
1.49399 0.141405 0.658107
1.40921 0.155923 1.8608
1.40917 0.184554 2.80188
1.43297 0.219915 3.73445
1.59336 0.514325 -2.65052
1.61022 0.57204 -1.71831
1.58574 0.680021 -0.547435
1.50424 0.763765 0.625729
1.3921 0.796564 1.7974
1.39949 0.820434 2.73716
1.43178 0.847864 3.67394
1.60566 1.29094 -2.66155
1.60684 1.36506 -1.73049
1.58068 1.49779 -0.576007
1.52141 1.6274 0.573431
1.46582 1.70794 1.72779
1.45625 1.74487 2.65858
1.4687 1.77291 3.59415
-0.876267 0.325 -1.64993
-0.0484835 0.121052 -1.68895
-0.868644 0.123311 -1.03959
-0.70236 0.47 1.88993
0.003061 0.12185 1.90937
-0.731543 0.122848 1.30204
-0.013166 0.638528 -1.77447
-0.836516 0.615022 -1.07
0.00134748 0.815126 1.82596
-0.736282 0.81414 1.23
0.811133 0.329061 -1.71644
0.797441 0.123062 -1.13167
0.706869 0.47 1.88964
0.722185 0.122813 1.28167
0.838952 0.637387 -1.09472
0.737389 0.817076 1.22639
-0.800072 0.123101 0.131225
-0.840337 0.385626 -0.474592
-0.0278658 0.120463 -0.491258
-0.841078 0.440636 0.685817
-0.0124023 0.120471 0.697483
-0.740459 0.66864 0.08
-0.00109948 1.01349 -0.504722
0.000265813 0.969558 0.650557
0.7598 0.12295 0.075
0.844481 0.392126 -0.521388
0.843779 0.444028 0.662223
0.735095 0.674156 0.065835
-0.896294 0.355313 -1.0548
0.89781 0.360593 -1.11319
-0.0381747 0.120449 -1.08563
-0.00713273 0.761017 -1.08236
-0.0308248 0.32703 -1.9157
-0.840244 0.413131 0.105612
0.844378 0.418077 0.0704175
-0.0201341 0.120467 0.103112
-0.000416833 1.08213 0.0729175
-0.897227 0.455318 1.26602
0.897218 0.457014 1.25403
-0.00467067 0.120466 1.29185
0.000806647 0.875796 1.2282
0.00220424 0.47 2.06048
-0.887706 0.225 -1.63636
-0.474915 0.121002 -1.659
-0.885801 0.123349 -1.3323
-0.688672 0.3075 1.88868
-0.33597 0.121857 1.90998
-0.714199 0.122996 1.59475
-0.858065 0.425 -1.65673
-0.417249 0.629719 -1.75769
-0.880108 0.621194 -1.3575
-0.677776 0.6325 1.85291
-0.320479 0.814183 1.8246
-0.710599 0.825875 1.5175
0.377948 0.121136 -1.71886
0.805621 0.232031 -1.72359
0.806851 0.12309 -1.43333
0.342092 0.121845 1.90877
0.694112 0.3075 1.88744
0.712601 0.122959 1.58333
0.390917 0.627603 -1.77151
0.812662 0.426092 -1.70532
0.866988 0.630267 -1.38486
0.323174 0.81393 1.82518
0.681412 0.6325 1.85363
0.713355 0.828198 1.51653
-0.851486 0.123273 -0.746888
-0.81721 0.123159 -0.161479
-0.847592 0.249298 -0.464388
-0.431078 0.121893 -0.472721
-0.748678 0.122909 1.00934
-0.782935 0.123042 0.423929
-0.855048 0.256006 0.701225
-0.389078 0.12177 0.707058
-0.813258 0.629183 -0.7825
-0.836556 0.52635 -0.484796
-0.758783 0.649545 -0.2075
-0.469452 0.973881 -0.499861
-0.754782 0.79522 0.9425
-0.819808 0.610278 0.670408
-0.747447 0.713048 0.3675
-0.41674 0.942402 0.652778
0.78802 0.123045 -0.83
0.375387 0.12171 -0.509796
0.769208 0.122981 -0.226667
0.851225 0.237732 -0.524861
0.73159 0.122847 0.98
0.36429 0.121686 0.687908
0.750395 0.122917 0.376667
0.85258 0.253358 0.670278
0.810844 0.644436 -0.804583
0.456924 0.959825 -0.509583
0.838954 0.536915 -0.517916
0.754582 0.658486 -0.224304
0.754958 0.799488 0.936253
0.416908 0.945118 0.648335
0.821958 0.615684 0.654168
0.743085 0.717303 0.355974
-0.89896 0.340156 -1.35236
-0.453546 0.326015 -1.92539
-0.0433291 0.120446 -1.38729
-0.0396541 0.224041 -2.06248
-0.898453 0.239312 -1.04719
-0.453409 0.120477 -1.06261
-0.860901 0.462659 1.57798
-0.350078 0.47 2.03898
-0.000804839 0.120603 1.60061
0.00263262 0.295925 2.04196
-0.899637 0.289083 1.28403
-0.368107 0.120476 1.29695
-0.0101494 0.715466 -1.42841
-0.0219954 0.482779 -1.99283
-0.883332 0.485167 -1.0624
-0.421824 0.756844 -1.07618
0.00107706 0.875829 1.52708
0.00177586 0.642563 1.98452
-0.882867 0.634729 1.24801
-0.367738 0.875756 1.2291
0.898835 0.344827 -1.41482
0.390154 0.328046 -1.98153
0.899953 0.241828 -1.12243
0.379633 0.120464 -1.10865
0.867176 0.463507 1.57184
0.354536 0.47 2.03896
0.899647 0.289914 1.26785
0.358757 0.120475 1.28676
0.894877 0.49899 -1.10396
0.41591 0.755534 -1.08854
0.879967 0.637045 1.24021
0.369098 0.876028 1.22729
-0.84724 0.254575 0.118419
-0.41008 0.121831 0.117169
-0.838919 0.370469 -0.764694
-0.840273 0.399379 -0.18449
-0.0330203 0.120461 -0.788444
-0.024 0.120465 -0.194073
-0.840278 0.426884 0.395715
-0.896245 0.447977 0.975919
-0.0162682 0.12047 0.400298
-0.00853651 0.120464 0.994669
-0.823486 0.557453 0.0928062
-0.456397 1.0473 0.0764587
-0.0041161 0.867259 -0.793541
-0.000758156 1.07021 -0.215902
-7.55103e-05 1.06335 0.361737
0.00053623 0.876475 0.939376
0.850914 0.246101 0.0727087
0.369839 0.121698 0.0890562
0.843365 0.37636 -0.817291
0.844408 0.405101 -0.225485
0.844405 0.431052 0.36632
0.895765 0.450521 0.958126
0.825772 0.564134 0.0681262
0.44625 1.03596 0.0693762
-0.900533 0.232156 -1.34233
-0.847907 0.246869 -0.755791
-0.835594 0.500997 -0.773597
-0.897282 0.455084 -1.35493
0.900411 0.236929 -1.42408
0.897127 0.462541 -1.39984
0.839327 0.512835 -0.810937
0.85139 0.2497 -0.823646
-0.464162 0.120477 -1.35979
0.37879 0.120462 -1.41031
0.377502 0.120472 -0.809222
-0.442256 0.120487 -0.767666
-0.419537 0.714292 -1.39296
-0.409858 0.842039 -0.788021
0.405801 0.837436 -0.799062
0.403413 0.712548 -1.40664
-0.46423 0.224521 -1.97486
-0.435397 0.45389 -1.92752
0.390536 0.454435 -1.96873
0.384051 0.228036 -2.01602
-0.847354 0.251968 -0.172984
-0.848338 0.256694 0.409822
-0.822083 0.584083 0.381607
-0.827083 0.540432 -0.195995
0.851096 0.241903 -0.226076
0.829607 0.549147 -0.224895
0.824401 0.590177 0.361147
0.851575 0.249816 0.371494
-0.420579 0.121862 -0.177776
0.372613 0.121703 -0.21037
0.367064 0.121692 0.388482
-0.399579 0.1218 0.412114
-0.478019 1.04078 -0.211701
-0.447912 1.01754 0.364619
0.446489 1.02036 0.358856
0.472372 1.03946 -0.220103
-0.899253 0.285448 0.992628
-0.867905 0.298292 1.58636
-0.841112 0.633614 1.54774
-0.859685 0.617094 0.959209
0.898977 0.286685 0.969063
0.860254 0.620822 0.947189
0.846394 0.634773 1.54418
0.869138 0.298707 1.57758
-0.378602 0.120475 1.002
0.361525 0.120474 0.987334
0.350424 0.1206 1.59197
-0.352038 0.120611 1.59768
-0.372619 0.892725 0.940938
-0.344108 0.875796 1.52229
0.346136 0.875796 1.5218
0.373565 0.891035 0.937814
-0.343024 0.301713 2.02217
0.348314 0.301713 2.02171
0.338855 0.637532 1.97165
-0.335278 0.637532 1.97168
-0.894555 0.175 -1.63071
-0.68813 0.121024 -1.64398
-0.894378 0.12337 -1.47865
-0.68281 0.22625 1.88904
-0.505485 0.121869 1.91027
-0.705345 0.123253 1.7411
-0.843002 0.475 -1.65417
-0.61929 0.593987 -1.71797
-0.867131 0.589509 -1.50125
-0.661294 0.71375 1.83021
-0.481392 0.810391 1.8206
-0.690754 0.824739 1.66125
0.591163 0.121225 -1.73377
0.804567 0.183515 -1.72886
0.811554 0.123106 -1.58417
0.511607 0.121847 1.90846
0.688637 0.22625 1.88724
0.707619 0.123222 1.73417
0.592959 0.592426 -1.74032
0.808691 0.474607 -1.69502
0.843001 0.588701 -1.52993
0.484087 0.810046 1.82151
0.664613 0.71375 1.83156
0.694142 0.826564 1.6616
-0.842915 0.123247 -0.600536
-0.82578 0.123187 -0.307831
-0.849812 0.181838 -0.459286
-0.632718 0.12254 -0.463452
-0.757229 0.122955 0.862986
-0.774367 0.123013 0.570281
-0.865146 0.162135 0.708929
-0.577446 0.122358 0.711846
-0.806824 0.641458 -0.63875
-0.821087 0.589922 -0.489898
-0.776312 0.648365 -0.35125
-0.610708 0.768235 -0.497431
-0.757278 0.779007 0.79875
-0.791987 0.686506 0.662704
-0.754211 0.738521 0.51125
-0.595216 0.86877 0.653889
0.783317 0.123028 -0.679167
0.577005 0.12235 -0.519065
0.773913 0.122994 -0.3775
0.861204 0.157232 -0.526597
0.736285 0.12287 0.829167
0.552647 0.12227 0.683121
0.745692 0.122901 0.5275
0.873249 0.14989 0.674306
[...]
POINT_DATA 3682
SCALARS point_scalars float 1
LOOKUP_TABLE default
-105.255
-39.8549
-38.9659
-38.2471
-73.7459
-40.1947
-47.8794
-37.3777
-29.8586
-29.3417
-44.8326
-34.7258
-30.6093
-28.9795
-45.597
-35.4034
-65.1821
-126.76
-28.1613
-31.1045
-51.3593
-39.6015
-33.1755
-58.9173
-142.452
-28.1613
-21.3376
-48.3007
-33.762
-31.5777
-36.6469
-142.624
-36.7699
-26.5112
-45.0306
-32.6153
-31.6249
-33.7665
-100.369
-53.5947
-42.0833
-43.6578
-40.0602
-34.1115
1.473
-135.939
-30.463
-29.9132
-41.7705
-32.1858
-32.1858
1.473
-32.1858
-32.1858
139.361
-30.8529
-30.5064
52.4253
-47.7545
-68.8473
-53.9952
-40.3564
-37.9648
-31.3807
2.87705
-139.338
-30.5378
-29.2916
-41.3875
-32.5257
-30.6301
2.87705
-30.8514
-30.0538
139.625
-30.3007
-29.5251
49.9911
-48.7033
-60.8734
-55.0974
-39.9175
-37.1371
-30.7789
-42.2934
-125.819
-33.2408
-24.951
-50.1618
-39.6162
-32.3102
-22.3892
-136.52
-33.245
-24.951
-48.0567
-32.3102
-32.3102
9.17328
-128.243
-37.7999
-27.3482
-45.0727
-32.3782
-30.9853
-45.5045
-97.8641
-50.322
-42.3809
-43.2335
-39.153
-33.3917
-101.203
-82.1277
-50.0202
-34.0765
-34.504
-35.4913
-31.801
-60.8245
-31.339
-44.6373
1.01019
-48.8365
-33.4406
-34.639
-64.0917
-43.964
-26.8916
-32.8722
-31.7363
-22.5964
-29.6351
-35.2428
-59.6875
-49.8665
-27.3235
-33.6391
-23.8594
-36.0191
-58.671
-60.9117
-43.0088
-6.60143
201.304
-27.724
-28.2216
-28.742
-74.8049
-45.6961
-44.6343
-32.1522
-37.4767
-22.238
-126.857
-85.0605
-68.8271
-34.4102
-37.6529
-39.7928
-68.6544
-23.1216
-98.2373
-34.762
-32.9742
-43.56
-88.0941
-2.30221
-73.949
-36.9688
-33.7558
-38.7145
-24.8145
-11.0121
-93.4329
-32.4767
-34.0914
-42.8372
-34.2967
-27.7895
-31.6202
-31.2821
-33.5333
-26.8704
-20.0707
-29.4525
-43.846
-36.5746
-40.3155
-57.626
-43.7544
-28.3973
-30.3322
-51.4916
-34.8558
-31.5392
-28.2954
-32.162
-32.4264
-29.3456
-27.3778
-22.0793
-44.5606
-59.2148
-37.4314
-41.0097
-43.7413
-51.7981
-29.0197
-30.9307
-84.5941
133.538
-56.998
175.763
-56.4938
-43.1812
-49.5768
-29.2469
-33.3091
-24.3153
-43.5512
-32.9533
-29.8825
199.018
-59.4324
-22.414
-34.4795
-28.1024
-48.4291
-38.4835
-93.5327
142.567
-58.7442
-43.9403
-48.9788
-28.1307
-42.5931
-32.6025
-63.2851
-22.4637
-46.823
-38.251
-26.9479
-28.2899
-38.0281
-30.296
-35.7652
-29.6014
-25.9568
-37.6006
-28.8398
-30.8613
-29.5256
-61.5504
11.9145
-83.1748
-64.3469
-42.7317
-27.3524
-28.3987
-39.8405
-30.6936
-26.8137
-35.3115
-30.0859
-60.6333
-78.7856
-36.386
-39.9627
-87.6955
-90.2156
-94.2907
-41.2099
-38.6132
-58.9821
-60.3058
-35.8335
-35.3401
-37.1942
-3.91595
-3.32489
-36.703
118.04
122.348
122.41
149.293
-29.1054
-24.8891
-28.3108
-33.7138
-29.3353
-34.3766
-28.992
-25.8958
-29.0819
-29.2576
-28.523
-28.4902
-64.2328
-58.3906
-59.056
-67.1506
-38.7552
-51.1637
-49.3286
-34.5195
-35.9179
-34.6035
-49.0386
-49.9173
-31.3402
-31.019
-34.0696
-34.5305
-43.124
-35.7822
-35.4557
-43.1236
-30.3526
-29.6703
-29.603
-30.1997
-108.664
-101.311
-93.7369
-35.7697
-37.9855
-41.5883
-48.8334
-34.7527
-90.4752
-35.9332
-34.4407
-43.788
-108.264
-3.72074
-111.021
-36.9895
-34.9148
-40.7457
-29.1521
-24.0531
-72.6788
-33.8193
-35.2371
-43.3444
-30.6703
-28.7681
-29.2696
-30.7006
-32.6753
-27.256
-17.0463
-29.5381
-43.9359
-39.8062
-43.1909
-56.7103
-37.9042
-31.4618
-32.8294
-48.6913
-32.128
-31.1801
-29.2186
-32.4772
-31.4956
-29.3149
-27.8828
-23.9763
-44.1277
-58.0904
-40.9879
-44.1096
-38.6161
-49.2554
-32.0571
-33.3142
-111.723
-90.0522
-119.221
116.4
-80.7592
-83.9599
-68.1421
19.9616
-55.6438
-40.6089
-55.3568
-44.2148
-34.0878
-34.3299
-41.7959
-31.0153
-35.4476
-34.9538
-33.729
-27.1671
-37.602
-33.8598
-41.1752
-33.9316
-29.656
-30.2229
-35.1962
-32.7107
-80.4776
-48.3003
-59.9484
-47.0508
-31.9096
-31.6123
-33.727
-28.9907
-44.2749
-44.7306
-47.0413
-41.9925
0.997827
12.7692
-150.548
116.246
-58.6562
-42.1573
-56.69
-45.763
-33.4707
-33.6564
-41.651
-30.4477
-36.6999
-32.9433
-40.0825
-33.343
-81.4181
-49.9018
-63.7702
-46.8956
-43.475
-44.3083
-45.5325
-41.4068
-27.2615
-26.8018
-27.114
-27.8226
-31.961
-34.2414
-34.5408
-31.6384
-31.5706
-31.7363
-33.4868
-30.5255
-21.3628
-24.8388
-24.857
-25.7957
-29.6346
-29.5782
-29.1868
-30.2076
-37.8684
-33.2493
-31.9512
-42.3593
-57.9752
-56.4384
-22.1899
-78.971
-50.2428
-50.3683
-56.9898
-45.5347
-27.6931
-27.2243
-26.8523
-28.0229
-32.7039
-35.0269
-35.6945
-32.1362
-22.5341
-25.8559
-25.9081
-25.5279
-38.5944
-33.8646
-32.6218
-42.3497
-68.0956
-57.5373
-58.8634
-44.7413
-73.0956
-59.9466
-62.1334
-48.7082
-48.8333
-42.7394
-43.3158
-38.8211
-19.7243
-10.1498
-10.2591
5.72576
197.474
200.699
199.703
200.731
-27.2519
-28.9205
-26.8092
-28.3976
-27.6322
-29.3302
-27.3596
-28.9302
-28.6141
-29.0399
-28.6963
-28.6608
-72.0749
-81.0663
-70.1499
-72.0894
-51.4243
-44.7006
-46.8692
-42.5175
-50.1041
-43.6961
-45.8657
-41.4972
-32.775
-32.4118
-32.238
-31.5027
-35.9731
-37.404
-37.3251
-39.7771
-25.5657
-23.0373
-25.8695
-24.2749
-108.076
74.5518
-71.6845
22.5448
-74.594
-63.2765
-41.9526
-32.6286
-35.415
-31.3727
-52.8051
-36.0052
-128.495
124.061
-38.4247
67.3725
-92.6185
-54.7238
-42.865
-31.2556
-35.5694
-30.7105
-49.6299
-37.8491
-73.6988
37.5593
-147.407
103.079
-86.6196
-66.5329
-34.7863
-31.0118
-41.7169
-31.6522
-50.809
-35.3552
-37.6636
61.3901
-142.163
112.76
-100.001
-50.8575
-35.2126
-30.1617
-42.4295
-30.7028
-48.92
-37.2938
-35.6632
-35.1277
-28.8087
-28.6591
-32.8187
-30.5276
-33.0378
-29.9265
-37.0108
-32.0125
-25.2706
-28.002
-23.4132
-27.8749
-28.9196
-30.4836
-41.4839
-54.662
-37.2906
-35.4043
-36.7085
-46.141
-36.2318
-71.5386
-38.3858
-47.6767
-28.2378
-28.725
-28.9885
-41.2474
-56.2713
-46.1317
-38.1384
-36.0209
-33.3814
-30.1344
-28.5933
-28.9086
-34.623
-30.471
-35.4682
-31.4115
-28.8954
-30.2488
-26.0358
-28.1429
-25.1444
-26.2388
-42.5166
-52.0122
-32.0883
-70.0149
-38.1031
-36.4006
-37.5483
-46.4948
-38.179
-47.67
-56.7167
-46.2786
-28.9338
-28.8104
-29.1302
-41.3899
-82.0745
-86.0273
141.634
130.606
-56.7886
-58.4046
140.841
163.817
-63.9161
-43.3485
-49.6479
-38.6526
-50.744
-48.7712
-29.5302
-29.747
-33.4438
-33.683
-26.5816
-25.4472
-40.5779
-49.9067
-32.1513
-33.7757
-31.3394
-31.0762
166.112
199.826
-46.1341
-71.2214
-30.89
-12.5212
-34.754
-34.5907
-28.4821
-28.9543
-52.0239
-42.7404
-41.0725
-37.6957
-92.378
-93.6527
138.552
155.275
-69.8223
-49.1252
-50.7427
-39.1906
-48.0656
-49.7975
-28.5051
-28.9887
-39.6487
-48.9214
-31.797
-33.3737
-74.6879
-48.1413
-12.6973
-30.4565
-41.6167
-49.864
-37.3339
-40.8466
-27.9565
-25.8268
-28.5459
-28.2837
-37.2189
-38.9131
-29.542
-31.5776
-35.8338
-35.5788
-29.469
-29.5518
-25.2472
-26.9361
-38.3821
-35.8079
-28.7651
-28.7473
-31.0099
-30.8651
-28.494
-31.5903
-66.2043
-60.1019
8.24294
8.24423
-80.9379
-81.3216
-63.1775
-63.4345
-42.5791
-42.6058
-28.2511
-26.6959
-28.6965
-28.3526
-40.4431
-39.2621
-29.7962
-32.0629
-27.661
-26.1516
-36.2679
-33.7826
-32.266
-28.7916
-58.9351
-66.7834
-102.006
-61.0173
-66.2292
-113.314
-31.8416
-33.6402
-44.0355
-42.9101
-40.1204
-47.0555
-45.4372
-35.6464
-127.538
-124.01
-69.6367
-74.7859
-131.583
-150.215
-71.8127
-66.6458
-123.511
-78.571
-73.9947
-147.331
-40.8921
-36.5605
-47.9984
-48.8238
-32.7094
-47.9987
-48.6266
-34.9917
-79.3787
-67.9968
-48.579
-51.8932
-83.6835
-53.8517
-49.5388
-69.8671
-33.305
-33.4922
-38.8649
-39.983
-32.5743
-38.9173
-38.3544
-33.3881
-43.3932
-56.0047
-22.1369
-35.7672
-62.0448
-24.0545
1.72256
-42.7319
-62.1273
-41.6735
1.57843
-22.7228
-42.0301
-35.3278
-22.0087
-52.5524
-9.5544
106.004
187.973
40.0118
92.9684
14.0156
196.072
123.767
95.6269
115.909
197.805
-24.6762
30.3505
33.6026
199.953
120.287
-30.1752
-27.952
-28.3316
-30.8369
-23.5452
-24.022
-26.2344
-26.1983
-30.1484
-30.1952
-27.4529
-26.0403
-38.7803
-32.9902
-29.9346
-34.3458
-29.7772
-31.0885
-28.6242
-27.6835
-39.9468
-35.1513
-30.4781
-33.7205
-30.8495
-26.926
-27.8754
-30.6393
-25.4815
-26.1094
-26.8656
-25.2812
-29.5229
-30.3133
-28.8849
-28.1072
-29.8048
-28.3359
-28.9756
-30.4509
-28.6102
-29.0979
-28.615
-27.9567
-28.5572
-27.7912
-28.5814
-29.1143
-50.588
-43.5902
-77.3832
-76.349
-43.2616
-56.6175
-67.8451
-40.8756
-43.9803
-40.6248
-67.8909
-56.8634
-50.9975
-75.9745
-77.6266
-44.068
-36.5378
-37.9133
-41.701
-26.6378
-44.3413
-41.525
-50.317
-48.6209
-43.409
-48.1546
-52.8316
-42.9285
-31.7351
-26.2836
-43.0096
-44.0235
-27.4953
-25.4664
-40.6659
-37.4087
-31.6144
-43.3896
-41.8465
-26.3594
-42.8796
-42.5176
-51.2291
-47.0844
-44.095
-47.9762
-48.9423
-41.6406
-30.6821
-30.2926
-31.7049
-32.8989
-30.1783
-32.3046
-31.5292
-30.1935
-36.1839
-33.925
-32.8735
-34.4054
-36.8817
-35.0173
-33.075
-34.2435
-42.7002
-45.5787
-39.8911
-45.6129
-37.1783
-34.2175
-36.3989
-39.5479
-36.8042
-39.1227
-36.2486
-34.0309
-43.6836
-45.6725
-39.8281
-44.242
-32.393
-28.5434
-25.7106
-31.2788
-31.4538
-30.7256
-24.4034
-27.6758
-31.2625
-29.2181
-26.8047
-30.5968
-31.8547
-31.1025
-27.5779
-29.5693
-106.612
-124.385
-120.853
-37.866
-39.4427
-42.3479
-42.4573
-35.555
-66.2634
-36.8075
-35.7914
-42.1125
-139.796
-22.5975
-147.409
-39.0199
-37.6575
-41.4509
-40.1272
-32.7434
-51.3347
-35.0869
-36.0378
-41.4522
-28.5739
-31.1431
-28.1613
-30.3515
-31.1709
-27.9937
-22.6034
-29.4846
-44.3802
-42.2191
-43.8691
-52.5581
-35.0574
-33.2785
-34.2568
-43.7293
-31.6612
-30.9102
-29.8608
-31.3412
-29.9411
-29.2446
-28.3018
-27.5874
-45.046
-53.5702
-43.4541
-45.2387
-36.2477
-44.3672
-33.8308
-34.8615
-115.208
-97.1342
-155.744
47.011
-81.3604
-82.933
-75.4799
-32.8773
-52.0141
-47.0577
-53.8709
-45.288
-34.0675
-34.2023
-37.5266
-31.8882
-34.8134
-34.5551
-33.9179
-29.6806
-36.4656
-34.618
-39.0941
-34.5579
-30.9034
-32.2115
-35.0559
-33.878
-72.3568
-53.2283
-60.1696
-62.6249
-31.3639
-31.2146
-32.7242
-29.7774
-44.5085
-44.6385
-45.7999
-43.4333
3.14969
10.8547
-130.203
93.6234
-53.0864
-45.0956
-54.0113
-47.0371
-33.4508
-33.545
-36.9857
-31.2524
-35.6031
-33.7677
-38.4065
-33.8563
-74.1366
-56.2114
-64.0336
-63.5488
-43.6374
-44.1206
-44.7262
-42.765
-27.0022
-26.7394
-26.8031
-27.5112
-32.3298
-33.4657
-33.575
-32.2777
-31.6836
-31.7909
-32.675
-31.0481
-21.7935
-23.67
-24.128
-22.0736
-29.6505
-29.6169
-29.3664
-29.9266
-36.5811
-34.319
-33.4558
-38.6938
-60.1716
-59.3271
-40.5077
-74.2874
-49.9502
-50.0081
-53.8825
-47.4041
-27.4648
-27.2567
-26.6597
-27.7158
-33.1291
-34.2604
-34.5275
-32.8681
-23.2355
-24.7459
-25.1713
-23.0418
-37.3344
-34.9454
-34.1442
-38.9635
-62.4849
-57.7785
-58.4798
-50.8585
-65.9596
-60.5639
-61.3794
-55.4619
-45.6262
-42.8361
-43.1638
-40.7903
-14.1857
-7.4718
-7.56741
-0.777274
201.466
201.048
200.752
200.957
-27.4507
-28.275
-27.2169
-28.0281
-27.8687
-28.715
-27.6921
-28.4687
-28.7054
-28.9028
-28.7146
-28.7201
-74.399
-77.5659
-72.3005
-74.3583
-47.9825
-45.2123
-46.1641
-44.0139
-46.7603
-44.161
-45.0725
-43.0162
-32.4614
-32.281
-32.1837
-31.8405
-36.7345
-37.3593
-37.3246
-38.5083
-23.6805
-22.3932
-22.2556
-22.8192
-111.215
-113.7
-147.305
23.367
-90.6822
-81.7147
-78.7872
-40.2398
-78.7087
-61.5596
-71.7075
-65.1305
-34.8166
-34.2555
-37.7327
-31.8494
-38.0662
-36.2467
-36.0943
-33.2072
-40.0964
-38.6014
-50.4037
-37.205
-58.2835
-78.4392
-143.388
62.4007
-25.5223
-28.335
-36.9589
-0.358485
-100.601
-88.3515
-97.4145
-77.5589
-35.3081
-34.5593
-38.5722
-32.2191
-33.7814
-32.4308
-34.6583
-31.5327
-43.6578
-43.7795
-47.3459
-38.8869
-95.0636
-85.225
-81.5086
-20.7371
-2.03419
0.250887
-106.805
63.6266
-86.7076
-65.6021
-84.1658
-70.3749
-37.7997
-35.5784
-35.3237
-32.297
-34.2038
-33.6293
-37.283
-31.1595
-39.0997
-37.5912
-48.0226
-36.4547
-18.3241
-29.196
-35.4962
-4.18992
-17.352
6.59516
-117.15
95.8286
-90.9757
-90.4659
-103.933
-70.4775
-33.2256
-32.0672
-34.2767
-30.972
-34.6299
-33.9175
-38.0546
-31.6322
-43.2897
-43.0144
-46.5594
-37.9884
-32.4472
-36.6553
-35.1084
-34.7559
-28.1925
-27.5837
-28.3456
-28.4137
-31.801
-31.6808
-31.8153
-31.186
-31.1035
-31.4052
-32.1623
-30.4426
-33.3088
-33.3378
-36.6353
-32.5139
-26.9739
-26.7597
-25.6163
-27.5666
-19.6153
-20.6826
-21.542
-21.5059
-29.3993
-29.5921
-29.1899
-29.9229
-43.2718
-45.291
-42.577
-52.3037
-37.9801
-35.2395
-37.0221
-36.2267
-41.5646
-39.0639
-38.5344
-44.358
-67.5045
-55.9678
-45.9348
-67.3964
-41.5052
-44.5056
-41.2146
-45.986
-29.7184
-26.4573
-28.5737
-27.7516
-31.7959
-32.1573
-29.453
-35.8575
-55.3836
-50.5919
-55.0329
-48.1234
-33.7071
-38.3005
-36.5462
-35.894
-31.4275
-31.6174
-32.5106
-30.6935
-28.7031
-27.9564
-28.0536
-28.6899
-32.3551
-32.5778
-33.4569
-31.1832
-31.7566
-32.3573
-34.9558
-31.6994
-29.2519
-29.5051
-29.1018
-29.7537
-27.5721
-27.3046
-26.4469
-27.8253
-22.4169
-22.2311
-24.2455
-22.1373
-43.9034
-46.2247
-43.5042
-52.1459
-68.4403
-53.485
-52.1889
-57.1805
-38.8956
-36.0348
-37.7247
-36.9908
-42.1855
-39.692
-39.2914
-44.9589
-41.629
-43.9517
-41.1136
-46.1992
-56.3834
-50.8444
-55.3891
-48.3375
-30.5874
-27.2755
-29.0195
-28.2392
-31.8854
-32.4292
-29.8425
-35.6429
-97.3117
-75.4417
-83.5225
-85.3211
120.572
161.035
136.296
132.023
-62.257
-52.4465
-56.779
-57.4709
103.888
199.711
153.715
166.984
-56.2876
-56.9321
-59.3846
-49.9773
-43.6205
-42.789
-46.1823
-40.7501
-45.2448
-52.9496
-50.2983
-49.222
-30.3913
-27.6488
-29.3502
-29.2546
-33.5289
-33.0596
-33.3181
-33.4405
-25.2312
-23.577
-25.0725
-24.3478
-42.8782
-44.1625
-41.8447
-45.9598
-33.4033
-32.6495
-32.5529
-33.2864
-33.6084
-25.0514
-30.0479
-29.9394
91.6981
201.063
200.675
202.293
-59.8335
-58.8556
-51.6903
-66.0912
-31.6162
-14.9854
-27.0252
-17.3466
-34.265
-35.0001
-34.5441
-34.4632
-28.5075
-28.4448
-28.1601
-28.4363
-48.4397
-47.7035
-50.5612
-45.5349
-39.3021
-37.6993
-39.7664
-38.1291
-112.508
-81.6964
-93.456
-93.5928
127.32
191.263
140.963
146.935
-57.9875
-59.2964
-63.254
-55.9102
-44.6931
-43.5325
-47.0024
-41.3451
-44.9781
-51.6637
-48.5414
-49.6942
-29.6452
-26.2713
-28.2311
-28.2081
-41.9345
-43.1882
-40.9829
-44.9901
-32.9241
-32.3706
-32.2039
-32.9623
-63.9574
-62.9013
-68.0876
-55.0477
-31.4252
-15.1436
-17.4861
-26.8917
-46.2729
-46.5566
-44.4811
-49.0179
-39.0096
-37.5481
-37.8445
-39.524
-26.9453
-27.1102
-27.4288
-26.3017
-28.0733
-28.4837
-28.426
-28.2614
-35.9339
-40.9504
-37.6153
-38.4677
-30.9947
-29.5823
-29.8764
-30.818
-34.3945
-37.2708
-35.8915
-35.5881
-29.9971
-29.2972
-29.5612
-29.635
-25.4549
-26.4018
-25.6172
-26.3782
-31.6685
-40.9652
-38.1945
-37.0957
-28.9566
-28.7358
-28.8267
-28.8137
-30.5348
-31.1923
-30.9093
-30.8454
-30.5248
-28.9344
-28.7342
-30.5073
-50.638
-68.2918
-65.2091
-60.4801
0.658408
11.2902
11.1842
11.1843
-82.7782
-83.175
-82.6567
-82.7632
-61.117
-67.6151
-64.0684
-64.1502
-44.1905
-41.1964
-42.7993
-42.8086
-27.3931
-27.5079
-27.7762
-26.9698
-28.2142
-28.5492
-28.5329
-28.3674
-37.3925
-42.9818
-40.1166
-39.5287
-31.4187
-30.0207
-30.1899
-31.2511
-26.4405
-27.0752
-27.1508
-26.5152
-29.4516
-39.9225
-35.9644
-34.1537
-31.2162
-29.4557
-31.1289
-29.2426
-51.4801
-67.8147
-58.3204
-67.0743
-90.2429
-76.913
-80.638
-70.5765
-36.0061
-34.4134
-39.1121
-36.8031
-40.6463
-38.1358
-42.5422
-39.4107
-101.583
-88.9496
-86.7966
-78.4322
-110.557
-88.7802
-91.6654
-78.3853
-114.477
-96.0585
-93.774
-83.0235
-41.6996
-39.2228
-44.0837
-40.7499
-38.8171
-36.3174
-42.6898
-38.9285
-64.731
-61.0341
-57.4033
-53.9171
-66.6087
-63.015
-58.784
-55.0464
-35.702
-34.5263
-37.3877
-35.8489
-35.2789
-34.0796
-36.8718
-35.4255
-40.344
-43.4885
-33.8589
-34.5335
-21.314
-14.4502
-7.15864
4.12256
-20.9242
-10.4099
-7.16198
4.40021
-39.2984
-41.8888
-33.4121
-33.898
100.61
88.1859
141.838
153.401
114.341
108.378
127.683
134.428
102.338
116.47
155.787
130.883
117.331
122.206
158.901
156.137
-29.0408
-29.7184
-28.5118
-29.3227
-25.0126
-24.3867
-25.4739
-24.9361
-28.1029
-28.8418
-27.6106
-28.6878
-34.6355
-34.8681
-32.4866
-32.657
-29.0495
-29.9039
-28.8501
-29.5341
-35.4207
-35.6497
-33.1028
-33.2918
-28.7588
-29.3498
-28.3476
-29.084
-26.3314
-25.7086
-26.2736
-25.8288
-28.8867
-29.4654
-28.8194
-29.2896
-29.63
-29.0969
-29.4226
-28.9245
-28.6741
-28.3544
-28.6573
-28.4225
-28.2871
-28.6625
-28.3344
-28.6476
-54.851
-67.5758
-65.8622
-76.9331
-49.3093
-58.1079
-59.1433
-61.2881
-58.6811
-50.0789
-61.938
-59.2805
-69.5017
-56.5673
-78.264
-67.2958
-38.2289
-35.6646
-39.6777
-38.6502
-46.0679
-51.6654
-51.102
-53.5023
-46.638
-50.5143
-48.6695
-52.0307
-36.3477
-31.5484
-38.4706
-34.4964
-35.3787
-31.3612
-38.668
-36.2258
-36.104
-31.4332
-38.011
-33.9553
-46.3966
-49.9034
-48.4081
-50.1174
-45.8
-50.2612
-49.9723
-52.0976
-31.5938
-30.9163
-31.7551
-31.1373
-31.1914
-30.6386
-31.4383
-30.9183
-34.4236
-34.6107
-33.68
-33.718
-34.9486
-35.1674
-34.0402
-34.1544
-44.5389
-44.6136
-42.3517
-42.5078
-35.8584
-36.6433
-35.1885
-36.2502
-35.5263
-36.2908
-34.9318
-35.9258
-44.4201
-44.6632
-42.1777
-42.5159
-32.4348
-30.6627
-30.0626
-28.4275
-30.2228
-31.6911
-27.2808
-29.2062
-29.7329
-30.2696
-28.9767
-29.8616
-30.8271
-30.317
-30.3407
-29.562
-138.232
-0.584371
-90.5218
-54.2633
-97.8062
-84.3656
-39.8455
-33.1347
-37.7012
-34.5815
-46.6653
-38.1337
-127.076
28.2433
-33.0731
23.0636
-119.948
-53.0113
-39.9204
-32.8547
-36.4357
-32.7911
-44.6459
-37.7501
-96.794
-46.3719
-109.727
25.4963
-127.158
-91.8825
-36.9522
-33.4506
-39.3959
-32.2985
-45.7899
-37.4278
-30.2206
40.4249
-92.4267
74.6465
-101.2
-47.2522
-36.0386
-32.1675
-39.2185
-32.233
-43.9541
-38.2925
-31.1244
-31.987
-29.4728
-29.3706
-30.1054
-33.1562
-31.4302
-30.0265
-36.1062
-31.0719
-24.9059
-28.1221
-20.7833
-23.3002
-28.9885
-30.1794
-42.0282
-52.6081
-40.0015
-39.4562
-40.9175
-48.4359
-61.7987
-53.6816
-33.9033
-43.2777
-30.8572
-30.5421
-31.5936
-39.8521
-45.1147
-48.6967
-31.7054
-33.0272
-32.0937
-30.4073
-29.1266
-29.5894
-32.8828
-30.6268
-32.4248
-30.2965
-28.9047
-29.7934
-26.5459
-28.3413
-24.7883
-26.035
-42.4555
-52.842
-63.5699
-54.085
-40.8333
-40.3254
-42.3131
-49.0114
-34.4949
-43.7037
-45.478
-49.3079
-31.4933
-31.3556
-32.1416
-41.1932
-152.484
27.771
-150.646
62.0276
-116.813
-120.141
111.62
120.841
-74.6624
-32.3195
-77.2211
-33.3606
-68.0997
-69.209
29.1118
9.13187
-58.7046
-53.221
-42.2945
-38.9835
-57.2285
-49.6835
-47.8139
-41.4019
-37.5093
-31.9583
-38.3835
-31.8166
-41.5338
-42.4429
-31.097
-30.9867
-34.5934
-31.2365
-34.2156
-30.4232
-33.7327
-33.8981
-27.6103
-27.074
-45.6439
-35.9721
-36.357
-33.3329
-39.269
-43.7434
-33.3829
-34.4324
-34.786
-24.2283
-35.1944
-32.3279
-35.304
-35.3597
2.98264
3.06249
-77.9512
-76.0304
-47.709
-53.2016
-52.0065
-68.8538
-52.0966
-43.5516
-33.3244
-30.2821
-33.0818
-29.9949
-33.8787
-33.7741
-29.0096
-29.2536
-46.464
-41.2718
-44.7234
-44.5147
-47.7705
-45.7518
-43.176
-42.0908
-123.096
92.7708
-125.85
100.308
-150.474
-149.452
116.254
116.165
-63.8209
-56.3817
-46.3539
-40.5298
-60.3924
-55.1471
-49.4252
-42.5471
-36.9684
-31.3777
-37.819
-31.2681
-42.0568
-41.5861
-30.5059
-30.443
-44.6109
-35.2319
-35.7295
-32.6209
-38.7119
-42.7152
-32.816
-33.8479
-81.1164
-73.9913
-49.4451
-53.0724
-71.2924
-54.5326
-43.1742
-49.8424
-45.5525
-40.6502
-44.0623
-44.1115
-44.2143
-46.531
-41.3526
-42.7238
-27.5874
-27.8432
-26.1299
-27.4124
-27.3835
-26.469
-27.9676
-27.7706
-32.6224
-31.4317
-34.878
-33.6876
-34.0185
-35.0559
-31.2045
-32.2306
-32.285
-30.8493
-32.5549
-31.008
-33.5247
-33.3935
-30.4292
-30.5234
-22.8449
-21.6328
-25.6216
-24.1396
-24.3787
-25.3692
-26.2827
-25.4684
-29.34
-29.9593
-29.3069
-29.8695
-29.1526
-29.1684
-30.2358
-30.1917
-36.0596
-41.3657
-31.5444
-36.7106
-30.9621
-33.1145
-42.6445
-41.5977
-40.5063
-72.5561
-40.2717
-71.2445
-23.0113
-22.4073
-78.1303
-77.9272
-53.5813
-47.5906
-53.772
-47.6854
-56.7796
-56.8836
-45.5805
-45.605
-27.2726
-28.0707
-26.3231
-27.6406
-27.2871
-26.3131
-28.1471
-27.9724
-33.6979
-31.8286
-35.6463
-34.408
-36.0763
-35.2571
-31.6747
-32.7935
-24.4207
-22.4486
-26.4748
-24.9636
-26.3561
-25.5496
-25.3792
-25.7626
-36.7715
-41.4255
-32.1102
-36.7207
-33.8357
-31.5586
-41.3869
-42.88
-67.4548
-68.8727
-61.0911
-50.4366
-51.4669
-63.9729
-44.2713
-45.1738
-72.6567
-73.5307
-64.823
-56.0856
-67.0313
-55.1355
-48.3291
-48.597
-48.6338
-49.0992
-45.4332
-40.5538
-45.9639
-40.9919
-38.9886
-38.7267
-20.2044
-20.1126
-17.0685
-4.30191
-4.65274
-17.1292
5.02772