# vtk DataFile Version 2.0
tri_press
ASCII
DATASET UNSTRUCTURED_GRID
POINTS 3682 float
-0.845145 0.175 -1.395
-0.805 0.325 1.49586
-0.757943 0.955 -1.275
-0.459232 1.515 1.285
0.819943 0.255 -1.485
0.797925 0.315 1.495
0.765 0.955 -1.26957
0.455 1.515 1.28196
-0.861042 0.195722 -0.43138
-0.855626 0.237756 0.53224
-0.748961 1.23225 -0.421667
-0.658284 1.42782 0.431667
0.880604 0.207 -0.491667
0.859519 0.240746 0.501667
0.744178 1.22418 -0.41906
0.654899 1.4249 0.43145
-1.61823 -0.438435 -2.12226
-1.62573 -0.338431 -1.39238
-1.62002 -0.314828 -0.42353
-1.57662 -0.305927 0.567261
-1.51626 -0.245397 1.53807
-1.51302 -0.167541 2.2774
-1.53299 -0.0794942 3.00043
-1.62095 0.0211479 -2.0863
-1.62608 0.152115 -1.37144
-1.61828 0.216155 -0.428189
-1.54872 0.261886 0.52354
-1.45324 0.334819 1.46943
-1.4788 0.412445 2.2085
-1.51964 0.497122 2.93686
-1.58276 0.890266 -1.99496
-1.55453 1.02456 -1.28899
-1.52211 1.25056 -0.423446
-1.38842 1.42135 0.434126
-1.22012 1.51577 1.304
-1.35491 1.58777 2.04912
-1.4722 1.66204 2.79762
-1.54647 2.36861 -1.9382
-1.52855 2.52762 -1.24256
-1.49879 2.79504 -0.417586
-1.44357 3.04797 0.383688
-1.40019 3.21562 1.21411
-1.42472 3.3054 1.92107
-1.48336 3.38072 2.65463
-0.826447 -0.415116 -2.15
-0.824399 -0.313109 -1.42399
-0.82702 -0.32108 -0.438557
-0.822765 -0.324847 0.571918
-0.797709 -0.259999 1.55798
-0.811844 -0.178215 2.28908
-0.833033 -0.0869911 3.00403
-0.83728 0.0317528 -2.10429
-0.818536 0.404802 2.21732
-0.839743 0.491311 2.93831
-0.8068 0.861684 -1.99023
-0.721888 1.58682 2.04101
-0.816534 1.66082 2.7909
-0.782187 2.34526 -1.9331
-0.771378 2.50239 -1.2349
-0.763993 2.78488 -0.415214
-0.746068 3.05405 0.375783
-0.732953 3.22441 1.19923
-0.761435 3.31185 1.9061
-0.811992 3.3851 2.64158
0.795172 -0.37146 -2.20729
0.83552 -0.259757 -1.49596
0.870176 -0.304923 -0.492794
0.845782 -0.321356 0.541485
0.786732 -0.264597 1.54698
0.667512 -0.181273 2.27833
0.601362 -0.0878229 2.99085
0.775401 0.0767141 -2.15896
0.60194 0.4008 2.20974
0.556319 0.490087 2.92672
0.754626 0.882683 -2.01493
0.483811 1.58543 2.03405
0.500105 1.66026 2.78028
0.748147 2.3561 -1.95219
0.742381 2.50891 -1.24937
0.707036 2.78726 -0.42706
0.639919 3.05493 0.365025
0.571372 3.22515 1.18871
0.540743 3.31271 1.8947
0.522179 3.38626 2.62879
1.60268 -0.365786 -2.22388
1.64092 -0.262065 -1.50646
1.66871 -0.282976 -0.51483
1.62498 -0.297909 0.510578
1.53104 -0.248318 1.50763
1.41376 -0.1705 2.25119
1.33745 -0.0798494 2.97198
1.58263 0.0941792 -2.18205
1.6166 0.235972 -1.48324
1.64759 0.244397 -0.514511
1.58748 0.267725 0.472305
1.47057 0.329835 1.4457
1.34325 0.408233 2.18701
1.28432 0.496042 2.91122
1.546 0.933994 -2.05217
1.55147 1.0581 -1.33266
1.52825 1.25919 -0.458614
1.40768 1.42188 0.409095
1.22172 1.51513 1.28579
1.1929 1.58622 2.03017
1.2026 1.66184 2.7741
1.5149 2.39136 -1.97934
1.50193 2.54302 -1.27622
1.45219 2.80228 -0.445786
1.35888 3.05125 0.358696
1.26325 3.21789 1.19049
1.22499 3.30768 1.89647
1.21178 3.38348 2.62786
-0.878141 0.565 -1.4116
-0.012601 0.163782 -1.49122
-0.825564 0.21289 -0.91319
-0.661863 0.92 1.42018
-0.00353751 0.314403 1.50103
-0.83706 0.274631 1.01405
0.00352851 1.00773 -1.32501
-0.777261 1.11744 -0.848333
-0.00211599 1.54938 1.31786
-0.595409 1.50806 0.858333
0.849131 0.605 -1.43394
0.842069 0.239204 -0.988333
0.659163 0.915 1.42118
0.846868 0.259727 0.998333
0.780303 1.1153 -0.844315
0.592184 1.50718 0.856705
-0.863088 0.211985 0.05043
-0.885433 0.713988 -0.426523
0.00978111 0.157927 -0.461523
-0.878195 0.832786 0.481953
0.00194631 0.166857 0.516953
-0.708766 1.33518 0.005
-0.00239164 1.39369 -0.420363
-0.00169255 1.57985 0.431558
0.874233 0.219701 0.005
0.877604 0.715589 -0.455363
0.87415 0.832823 0.466558
0.704929 1.32993 0.00619501
-0.894907 0.639494 -0.880762
0.894636 0.660294 -0.916324
-0.00140994 0.131917 -0.950762
0.000568434 1.12668 -0.846324
-0.00453624 0.585 -1.52625
-0.887483 0.773387 0.027715
0.88171 0.774206 0.0055975
0.00586371 0.162794 0.027715
-0.00204209 1.55463 0.0055975
-0.856501 0.876393 0.936192
0.85353 0.873911 0.927519
-0.000795599 0.224934 1.00619
-0.00190427 1.57052 0.857519
-0.00282675 0.9175 1.52423
-0.87496 0.37 -1.41662
-0.428873 0.165668 -1.44683
-0.792417 0.236882 -1.1541
-0.777204 0.6225 1.50179
-0.404269 0.315747 1.5024
-0.814361 0.306484 1.25496
-0.808133 0.76 -1.33339
-0.377207 0.989464 -1.30811
-0.760852 1.02947 -1.06167
-0.562079 1.2175 1.35412
-0.230674 1.54226 1.3115
-0.534145 1.51835 1.07167
0.403671 0.185769 -1.51173
0.859236 0.43 -1.48417
0.834309 0.243799 -1.23667
0.397194 0.315515 1.4972
0.772068 0.615 1.50161
0.805991 0.303769 1.24667
0.384264 0.99058 -1.30651
0.790725 0.78 -1.33542
0.7655 1.028 -1.05694
0.226442 1.54214 1.30986
0.558458 1.215 1.35295
0.530635 1.51814 1.06933
-0.841968 0.20564 -0.672285
-0.864542 0.201376 -0.190475
-0.87319 0.454879 -0.428952
-0.427869 0.172347 -0.446452
-0.842382 0.260154 0.773145
-0.861487 0.22274 0.291335
-0.871781 0.532835 0.507097
-0.438208 0.17957 0.524597
-0.780622 1.19236 -0.635
-0.861977 0.995511 -0.424095
-0.731868 1.28672 -0.208333
-0.411811 1.38524 -0.421015
-0.641335 1.48243 0.645
-0.780731 1.13655 0.45681
-0.68352 1.38149 0.218333
-0.360492 1.56484 0.431613
0.852648 0.231791 -0.74
0.453704 0.16544 -0.476595
0.878785 0.211983 -0.243333
0.866225 0.467734 -0.473515
0.849928 0.253501 0.75
0.448874 0.167518 0.50931
0.86636 0.230739 0.253333
0.86779 0.536306 0.484113
0.781602 1.1891 -0.631688
0.40987 1.38689 -0.419712
0.855166 0.992021 -0.437212
0.727768 1.28027 -0.206433
0.637759 1.48026 0.644078
0.357803 1.56478 0.431504
0.775853 1.13452 0.449004
0.68024 1.37774 0.218823
-0.89243 0.602247 -1.14618
-0.441339 0.575 -1.58418
-0.00700546 0.156933 -1.22099
-0.00856861 0.374391 -1.5687
-0.895324 0.426192 -0.896976
-0.413487 0.154766 -0.931976
-0.817271 0.898196 1.17818
-0.332345 0.91875 1.49975
-0.00216655 0.28555 1.25361
-0.00318213 0.615952 1.56389
-0.884541 0.575512 0.975121
-0.418928 0.237601 1.01012
0.00204847 1.07472 -1.08567
-0.000503868 0.796364 -1.54854
-0.867323 0.878465 -0.864548
-0.388346 1.11252 -0.847329
-0.00201013 1.55568 1.08769
-0.00247137 1.23344 1.43432
-0.765421 1.19223 0.897263
-0.298657 1.55881 0.857926
0.887474 0.632647 -1.17513
0.422297 0.595 -1.49184
0.890055 0.449749 -0.952329
0.42033 0.144311 -0.969548
0.814007 0.894456 1.17435
0.328168 0.91625 1.49929
0.893877 0.566819 0.962926
0.423036 0.194117 1.00226
0.864393 0.887798 -0.88032
0.390435 1.11052 -0.84532
0.762332 1.19055 0.892112
0.29514 1.55884 0.857112
-0.875646 0.492506 0.0390725
-0.435544 0.173525 0.0390725
-0.886789 0.676741 -0.653643
-0.887209 0.743688 -0.199404
0.00418559 0.132068 -0.706143
0.00782241 0.159655 -0.216904
-0.883577 0.803086 0.254834
-0.871029 0.854589 0.709073
0.00390501 0.165889 0.272334
0.000575354 0.196553 0.761573
-0.829004 1.06972 0.0163575
-0.402568 1.53923 0.00529875
-0.000911601 1.26636 -0.633344
-0.00221687 1.50208 -0.207383
-0.00186732 1.57342 0.218578
-0.00179841 1.57952 0.644539
0.870147 0.500866 0.00529875
0.453552 0.164241 0.0163575
0.882703 0.687941 -0.685844
0.88039 0.744897 -0.224883
0.878689 0.803514 0.236078
0.862872 0.853367 0.697039
0.824377 1.0676 0.00589626
0.399904 1.5392 0.00589626
-0.895665 0.398096 -1.15014
-0.884847 0.440523 -0.662964
-0.870583 0.925793 -0.644321
-0.863353 0.819233 -1.10392
0.885477 0.439875 -1.2059
0.854016 0.833899 -1.11604
0.867464 0.928841 -0.658766
0.891643 0.455522 -0.712922
-0.42118 0.167394 -1.18754
0.412 0.164589 -1.22883
0.432761 0.144215 -0.723071
-0.419559 0.155714 -0.689214
-0.382777 1.068 -1.07367
-0.382011 1.25504 -0.634172
0.380664 1.25692 -0.632516
0.38735 1.069 -1.07131
-0.435106 0.372195 -1.53436
-0.409273 0.778182 -1.5342
0.403281 0.788182 -1.53384
0.412984 0.402195 -1.54245
-0.875234 0.473284 -0.19494
-0.874114 0.51247 0.273085
-0.801637 1.10152 0.236584
-0.845946 1.03284 -0.203869
0.868608 0.484089 -0.234108
0.840759 1.0303 -0.215658
0.797635 1.09982 0.22745
0.86913 0.518505 0.244706
-0.431705 0.17294 -0.20369
0.453407 0.165282 -0.230119
0.450398 0.167509 0.262834
-0.436871 0.176558 0.281835
-0.419621 1.4871 -0.207858
-0.384201 1.55738 0.218456
0.381534 1.55735 0.2187
0.416979 1.48723 -0.206908
-0.887007 0.555391 0.741109
-0.882043 0.599006 1.21657
-0.715986 1.20486 1.12493
-0.780319 1.16126 0.677036
0.895122 0.551802 0.723519
0.777015 1.1597 0.670558
0.713552 1.20277 1.12184
0.891497 0.590909 1.21051
-0.422884 0.197807 0.767359
0.426884 0.183276 0.755786
0.410115 0.206921 1.25014
-0.411598 0.267729 1.25428
-0.314323 1.56666 0.644769
-0.264665 1.54628 1.07968
0.260791 1.54639 1.07851
0.310872 1.5667 0.644308
-0.368307 0.619226 1.58857
0.362681 0.615476 1.58667
0.277305 1.22422 1.42125
-0.281509 1.22547 1.42175
-0.86142 0.2725 -1.40718
-0.637009 0.227239 -1.36401
-0.825652 0.19907 -1.27455
-0.799063 0.47375 1.50679
-0.604634 0.304561 1.51494
-0.815577 0.309846 1.37541
-0.780429 0.8575 -1.30159
-0.567575 0.976129 -1.29545
-0.762207 0.995044 -1.16833
-0.492736 1.36625 1.30164
-0.344953 1.53053 1.30015
-0.490932 1.51092 1.17833
0.611807 0.227768 -1.49098
0.846833 0.3425 -1.49183
0.830815 0.245711 -1.36083
0.597559 0.302209 1.50915
0.793757 0.465 1.50707
0.806275 0.305068 1.37083
0.574632 0.975451 -1.2907
0.777918 0.8675 -1.30255
0.768427 0.994677 -1.16326
0.340721 1.53037 1.29771
0.489322 1.365 1.30005
0.487578 1.51133 1.17565
-0.87103 0.181156 -0.551833
-0.862794 0.198546 -0.310928
-0.863724 0.326996 -0.430166
-0.648314 0.176317 -0.438916
-0.854766 0.243193 0.652693
-0.862674 0.22613 0.411788
-0.865831 0.384232 0.519668
-0.659038 0.184422 0.528418
-0.766281 1.2138 -0.528333
-0.795935 1.10912 -0.422881
-0.740928 1.26 -0.315
-0.610912 1.3698 -0.421341
-0.645119 1.45043 0.538333
-0.721206 1.28303 0.444238
-0.670924 1.40468 0.325
-0.53267 1.54289 0.43164
0.888093 0.197928 -0.615833
0.673049 0.174429 -0.484131
0.879569 0.209617 -0.3675
0.859892 0.344128 -0.482591
0.855345 0.246502 0.625833
0.665245 0.182036 0.505488
0.866045 0.232637 0.3775
0.860333 0.390187 0.49289
0.76352 1.20727 -0.525374
0.610339 1.37216 -0.419386
0.790121 1.10332 -0.428136
[...]
POINT_DATA 3682
SCALARS point_scalars float 1
LOOKUP_TABLE default
-73.7837
-59.5321
-82.7621
-45.5662
-145.528
-59.1078
-85.2617
-45.4901
-60.8262
-55.3262
-114.479
-68.9698
-68.1331
-52.3776
-111.628
-68.6844
-69.7845
-169.135
-65.7047
-55.7083
-58.6432
-58.6808
-58.6808
-124.494
-126.344
-62.7896
-53.6582
-57.5275
-54.2746
-52.0129
-117.728
-133.037
-80.3899
-61.4991
-49.8316
-45.0035
-43.0279
-84.9811
-94.7669
-116.567
-75.5584
-55.8298
-46.2321
-46.2321
-167.732
-120.516
-61.2478
-59.2668
-54.8675
-54.911
-48.4588
-12.6485
-47.5904
-46.7409
97.6392
-41.2915
-41.9293
-46.5778
-88.8993
-120.837
-79.4397
-50.7642
-46.1944
-45.1537
-0.82558
-138.107
-70.7636
-54.3046
-54.694
-51.7102
-47.7039
18.9784
-47.0705
-46.8117
93.8099
-40.2959
-39.9057
-47.3871
-43.757
-110.451
-81.2906
-52.6006
-44.8194
-44.8194
-172.442
-187.617
-70.4072
-51.7485
-60.8051
-58.1423
-58.1423
-128.956
-181.755
-75.1338
-47.7784
-56.595
-53.7188
-50.1895
-126.849
-140.173
-80.2111
-61.0479
-50.6272
-44.7672
-43.0223
-82.0448
-95.3081
-114.074
-75.5897
-56.8074
-45.9091
-45.9091
-142.527
-165.034
-74.3733
-44.6287
-50.3736
-55.4807
-20.842
-65.8418
-43.106
-60.434
-111.952
-76.2255
-44.7801
-54.1018
-65.6242
-60.2753
-52.6679
-65.655
-67.2728
-55.3999
-58.392
-86.065
-31.793
-83.4257
-50.8441
-65.4871
-54.267
-84.3302
-85.6979
-89.12
-96.1819
23.2114
200.152
-59.289
-58.1222
-57.6914
-118.552
-55.6164
-56.3292
-55.8619
-61.1224
-43.1311
-159.797
-170.839
-96.0009
-49.1394
-51.6561
-49.9026
-86.5451
-26.7785
-66.3534
-42.0935
-43.604
-52.2187
-168.958
-129.678
-106.307
-50.6743
-48.8157
-51.8258
-27.1828
-78.8003
-68.8421
-43.698
-42.2389
-52.1027
-52.4769
-53.3862
-58.9912
-65.6707
-54.0714
-50.827
-50.6063
-56.9589
-121.112
-81.1262
-97.306
-35.2002
-65.4371
-62.3846
-76.3988
-80.6039
-59.1149
-65.8703
-52.4027
-61.0901
-57.0563
-56.4699
-49.2518
-48.3313
-124.583
-35.9484
-80.1136
-96.0958
-65.2498
-80.4423
-62.2968
-75.4988
-114.067
175.161
-124.019
174.018
-79.8865
-91.7486
-54.1177
-42.6049
-52.6702
-46.2884
-52.211
-55.8035
-7.66599
144.876
-90.4454
14.9577
-51.3863
-38.3039
-58.3812
-60.8638
-118.119
182.643
-83.2288
-94.6566
-54.5887
-42.629
-53.5104
-57.1616
-92.5599
14.9857
-58.4478
-60.8365
-53.8659
-56.084
-73.4708
-61.7104
-80.1518
-60.7892
-56.7762
-53.8154
-57.267
-60.4628
-72.4685
-112.722
14.9873
-96.1147
-98.8609
-71.4917
-52.5393
-55.8308
-76.0486
-60.8901
-55.5411
-53.3135
-71.949
-111.974
-105.686
-68.6301
-83.1465
-117.452
-109.623
-115.769
-84.9244
-71.3809
-112.349
-121.254
-77.8364
-77.342
-15.4207
10.5591
10.3077
-16.046
167.369
113.478
96.4705
174.468
-55.4653
-52.5053
-67.2584
-76.2976
-54.9343
-76.1575
-66.8026
-50.5634
-58.7806
-58.7994
-55.337
-55.7602
-91.5779
-95.0865
-94.7525
-91.3835
-52.2514
-53.3268
-50.9744
-57.1194
-50.7045
-57.1789
-51.216
-55.3636
-62.1445
-55.4798
-55.9531
-52.1866
-70.6291
-51.4295
-51.4381
-70.5434
-46.7418
-46.7027
-39.2583
-39.2313
-129.375
-123.069
-132.001
-52.2047
-53.9872
-53.4294
-87.043
-44.4171
-84.4788
-42.4942
-44.5406
-48.0829
-191.128
-110.631
-147.958
-53.2423
-51.7327
-52.074
-44.2
-87.914
-86.8682
-44.3821
-42.6062
-48.0278
-75.4974
-54.9505
-58.2365
-63.3132
-60.543
-54.0828
-50.9767
-55.8511
-127.844
-94.2645
-103.464
-57.8682
-66.21
-65.4179
-72.2771
-76.5871
-52.1229
-64.8251
-54.7523
-63.103
-54.7064
-55.3094
-49.2236
-46.8118
-127.164
-58.5775
-93.0662
-101.416
-65.9995
-76.3583
-65.1433
-71.7383
-162.371
-104.18
-149.448
131.556
-171.433
-141.349
-158.633
48.5354
-85.4635
-65.5367
-76.1401
-87.3508
-46.6874
-43.1154
-50.3187
-42.9226
-51.1696
-50.2521
-50.8037
-46.7723
-53.7457
-52.0874
-51.9303
-55.4563
-19.0282
-19.365
-17.8459
17.5114
-51.5403
-90.833
-95.691
-0.422736
-43.2225
-43.2237
-46.4777
-39.3847
-56.1234
-63.7228
-59.3264
-60.6074
-121.621
-82.4363
-167.837
126.397
-87.0184
-68.9539
-80.1702
-89.3111
-46.7525
-43.3297
-50.5731
-43.0676
-62.3248
-51.094
-52.6054
-56.6231
-55.5657
-99.4819
-95.6102
-0.702567
-56.299
-63.5839
-59.1179
-60.5383
-52.5778
-51.5226
-52.4056
-54.7095
-61.8332
-71.0828
-68.5653
-63.5255
-66.8788
-66.9618
-72.8538
-63.5289
-52.3749
-58.4379
-55.9603
-54.1923
-58.7135
-58.1819
-57.6845
-60.069
-90.8469
-81.0382
-78.7614
-104.36
-32.5992
-33.4036
-5.17791
-64.5958
-82.4357
-82.3565
-90.3432
-76.9513
-50.7877
-50.0966
-50.9322
-54.1594
-62.4021
-70.7964
-70.5223
-62.9226
-51.1007
-57.6648
-54.7786
-53.5085
-89.5508
-79.6857
-78.0283
-101.852
-97.3231
-82.6218
-89.9971
-79.5019
-100.241
-85.9424
-92.7819
-82.3481
-106.325
-94.9577
-96.0424
-86.778
9.20827
21.4779
21.3673
25.8074
194.671
198.229
196.958
198.809
-56.2407
-60.3007
-58.0388
-63.6154
-54.9887
-59.2564
-56.8486
-62.6722
-57.2761
-58.8695
-57.156
-57.1876
-115.141
-120.655
-107.24
-114.843
-56.1128
-53.3124
-57.7338
-55.6128
-56.7035
-54.1921
-57.8022
-55.7589
-55.2261
-54.8845
-56.8012
-57.7952
-56.1513
-61.0369
-61.0186
-66.0536
-42.8367
-46.5367
-40.3159
-42.825
-134.586
140.042
-142.47
-21.1904
-102.899
-108.195
-56.7155
-46.782
-49.6752
-46.6857
-52.4554
-51.2912
-134.296
52.2657
-24.8623
29.1737
-101.54
-29.5895
-46.499
-40.4732
-46.8598
-40.1709
-50.588
-51.7487
-166.69
90.8575
-150.862
157.738
-106.789
-112.716
-53.1726
-46.707
-57.0963
-46.8705
-55.2035
-54.5236
-25.541
33.0956
-140.123
55.2369
-101.821
-30.3859
-46.9012
-40.2395
-46.5435
-40.5768
-50.7623
-51.7615
-65.0921
-74.3825
-53.9531
-56.9425
-63.7933
-56.8705
-72.3857
-61.3695
-52.1254
-60.1301
-51.6013
-54.4441
-51.8362
-48.6142
-56.1598
-60.7353
-99.9276
-4.50365
-80.1916
-79.0473
-86.0604
-108.54
-9.74682
-71.2668
-61.3951
-69.2029
-65.0249
-58.6539
-71.9818
-88.058
-86.6079
-75.2132
-68.1033
-72.886
-73.2664
-61.5654
-53.0898
-56.9991
-67.4317
-56.9878
-56.2173
-57.7174
-55.372
-58.4497
-48.7436
-54.1812
-49.5982
-45.7013
-100.906
-6.30422
-10.3515
-72.1966
-79.5109
-78.3687
-85.3714
-109.746
-61.2345
-69.0115
-86.3233
-75.1356
-64.9461
-58.5684
-71.0308
-87.5377
-109.172
-121.268
179.516
167.622
-119.629
-124.381
172.677
173.037
-90.7509
-72.4885
-98.7305
-83.8245
-54.8506
-52.5121
-44.7558
-40.1537
-53.6345
-52.4088
-46.2692
-46.2704
-52.31
-52.3057
-57.7694
-54.1139
-9.69025
-10.8481
147.652
132.61
-87.9523
-100.579
0.581546
20.7421
-51.5883
-51.6015
-38.6134
-38.5237
-54.84
-60.8814
-65.5569
-56.2369
-112.298
-124.572
157.847
189.868
-94.6759
-75.474
-102.466
-85.2098
-52.7844
-56.0067
-44.865
-40.2474
-53.4873
-54.0463
-58.4608
-57.2382
-100.53
-90.784
20.8842
0.433499
-60.8042
-54.882
-56.2402
-65.5024
-54.4949
-53.2662
-57.0765
-55.7612
-71.3205
-77.7317
-58.2325
-66.5715
-79.0277
-79.7917
-60.3093
-60.2399
-54.3397
-60.0183
-51.2173
-55.7015
-56.6296
-56.9652
-60.6808
-61.5233
-70.0662
-74.4954
-122.541
-103.766
13.8523
13.7997
-98.1458
-98.3241
-97.938
-97.7816
-71.2128
-71.2255
-53.5321
-51.5439
-56.8939
-55.3775
-80.6017
-74.4985
-57.5341
-65.7576
-59.1484
-52.7816
-49.3668
-55.4239
-73.7285
-69.3909
-103.269
-121.538
-130.303
-87.5891
-93.8683
-139.352
-64.4096
-64.9613
-75.9086
-68.6979
-95.8813
-98.9671
-83.1003
-73.6931
-135.616
-152.878
-101.379
-94.897
-146.125
-159.215
-97.3008
-89.8554
-136.945
-93.5865
-103.25
-158.936
-95.1439
-73.9919
-85.551
-103.329
-66.0393
-72.0855
-78.8445
-68.0731
-121.091
-153.402
-102.906
-91.0489
-152.179
-92.4055
-107.037
-161.458
-75.1306
-73.2413
-86.2245
-79.4162
-73.5146
-78.8361
-86.0196
-72.8072
-39.1617
-14.3786
7.14947
-18.6764
-34.9305
-4.69758
24.6133
6.39731
-37.0399
5.17726
24.5906
-4.94749
-39.8306
-19.123
7.98238
-14.1674
-54.4924
150.098
192.012
41.4719
58.9146
17.806
184.673
97.5046
56.3705
80.3714
184.223
13.9987
93.2289
32.7636
194.004
154.658
-55.458
-53.079
-57.042
-59.7485
-51.7
-53.4416
-55.2673
-51.8463
-68.6073
-75.3357
-61.8057
-59.3146
-89.8798
-69.0199
-64.8749
-82.0645
-55.1875
-59.6197
-55.9939
-51.3918
-89.2203
-81.3949
-63.9751
-68.3064
-68.0297
-58.2564
-60.9441
-74.3371
-47.6015
-49.6347
-53.8214
-51.8937
-59.3747
-63.0272
-58.4336
-55.4184
-59.9827
-55.1608
-58.4607
-63.0399
-53.5503
-56.9932
-56.6508
-54.1106
-54.6969
-54.8946
-56.751
-57.7511
-93.3958
-119.878
-122.382
-67.1719
-80.6742
-89.3345
-106.596
-98.1292
-80.2541
-97.3788
-106.366
-89.1918
-94.4435
-67.6662
-121.642
-119.214
-51.4131
-51.7156
-53.245
-51.276
-56.6501
-54.5066
-53.5083
-51.5164
-46.2678
-54.7564
-55.5551
-48.7885
-61.5287
-56.9591
-57.9861
-62.5431
-44.7195
-49.9613
-54.1214
-51.9236
-61.5914
-62.4299
-58.1956
-56.5309
-46.3511
-48.9497
-55.8109
-54.847
-56.4202
-53.5551
-55.1473
-54.8836
-61.8615
-60.2581
-58.0939
-54.9841
-59.5786
-55.0162
-58.7861
-58.9151
-52.7436
-51.1981
-55.1974
-58.6002
-50.1574
-56.2115
-55.2459
-49.6298
-70.3466
-64.9198
-65.9349
-76.3833
-47.172
-46.6334
-56.2231
-56.2604
-47.2122
-56.3053
-56.2179
-46.6631
-70.1609
-76.314
-65.9308
-64.6759
-46.8304
-46.7461
-46.2288
-44.8952
-46.911
-44.9691
-46.21
-46.739
-41.2906
-39.5803
-40.3913
-41.1771
-41.1861
-41.0533
-40.2052
-39.5551
-101.597
-113.193
-147.644
-55.874
-55.8531
-58.0488
-76.1632
-44.6148
-111.426
-43.3476
-44.8329
-46.0638
-174.583
-114.041
-176.293
-55.4033
-55.4464
-56.8723
-48.9081
-83.3854
-110.606
-44.6802
-43.4235
-46.1813
-67.1124
-56.2531
-59.4898
-61.3048
-55.5617
-55.6607
-52.9693
-54.3288
-125.078
-102.646
-107.164
-118.087
-67.4115
-67.2105
-70.5728
-74.1287
-73.4777
-65.5535
-57.5812
-64.8075
-51.8505
-53.1065
-51.431
-48.054
-121.271
-118.23
-101.672
-103.88
-67.1537
-73.8692
-66.9273
-70.1613
-166.522
-125.942
-187.343
21.0671
-174.663
-155.302
-200.728
-121.59
-79.8903
-68.8222
-73.7538
-81.7379
-45.4467
-44.2316
-47.8137
-43.5507
-50.8126
-50.3145
-51.0348
-47.8942
-58.312
-53.7096
-52.2566
-55.4421
-21.0387
-21.4239
-19.9941
-24.5905
-50.7079
-82.0839
-106.266
-9.47101
-43.1441
-43.1368
-44.752
-40.0298
-57.9731
-62.0941
-59.4617
-60.834
-116.146
-93.2201
-181.545
38.3088
-81.9048
-71.3589
-77.4962
-82.4096
-45.6219
-44.4773
-47.6821
-43.7233
-56.5896
-52.2659
-52.724
-56.7869
-49.9976
-86.4811
-105.492
-10.6128
-58.0486
-62.0496
-59.3517
-60.7117
-52.6909
-52.3505
-52.3432
-53.3717
-63.6115
-68.0584
-67.0231
-64.5402
-67.2239
-67.2548
-69.9729
-65.2371
-53.7234
-56.9061
-55.6995
-54.8558
-58.3747
-58.8081
-57.2214
-60.4146
-88.3983
-83.4304
-82.4231
-95.8252
-31.2039
-31.3282
-21.5173
-46.4055
-82.9616
-82.9024
-86.9367
-80.0439
-50.8349
-50.513
-50.7847
-52.5679
-63.7135
-67.7281
-67.7927
-63.981
-52.6169
-56.0044
-54.4881
-53.8346
-86.9313
-81.9583
-81.6549
-93.4695
-90.8322
-84.276
-87.9281
-82.0734
-94.1953
-87.498
-91.2821
-85.6574
-100.67
-95.4437
-96.4059
-91.232
16.2718
22.727
22.7079
26.0518
199.411
204.148
200.296
202.038
-57.7608
-59.7862
-58.6506
-61.2014
-56.5347
-58.6363
-57.5579
-60.0932
-57.6119
-58.2156
-57.365
-57.5867
-116.256
-121.032
-111.751
-116.104
-55.9156
-54.5425
-56.709
-55.7178
-56.6761
-54.6328
-56.9994
-56.1196
-56.5556
-55.1126
-56.5494
-56.1443
-58.6189
-61.0985
-61.085
-63.5877
-43.0706
-43.6391
-41.9645
-43.0702
-154.167
-161.409
-170.681
11.7238
-158.107
-175.913
-178.672
-127.23
-111.856
-85.3453
-97.9815
-105.631
-50.4691
-47.9274
-55.3566
-47.0301
-52.9402
-51.1817
-51.0208
-48.1192
-51.0877
-50.0308
-51.6742
-49.8248
-87.6179
-86.6565
-130.879
9.89076
-39.6267
-19.5761
-29.6241
-7.07792
-74.9496
-58.1758
-92.4734
-44.7312
-42.1442
-42.1535
-44.3507
-41.2218
-43.9896
-43.3536
-44.9984
-40.8011
-49.9157
-54.2254
-51.0325
-51.6212
-168.877
-139.126
-207.663
-84.0092
-120.762
-127.197
-201.213
86.0631
-122.223
-94.3973
-105.166
-111.568
-51.0889
-50.3488
-53.1055
-47.9748
-50.077
-47.9608
-55.5211
-47.0376
-50.6665
-59.3801
-54.1506
-52.9068
-38.96
-20.3116
-29.437
-11.8829
-86.2045
-77.6132
-129.217
18.486
-77.141
-60.9385
-93.4706
-46.9125
-44.0637
-43.4173
-44.9804
-40.9381
-42.2672
-42.294
-44.4606
-41.3464
-50.0107
-54.261
-51.0506
-51.5976
-60.3384
-61.05
-58.9013
-65.5129
-53.9157
-52.9697
-52.2804
-55.8771
-58.3145
-60.2751
-61.557
-57.7286
-64.7442
-66.1915
-69.2308
-63.0895
-57.5086
-52.6525
-51.6591
-58.3956
-51.9884
-50.8656
-50.5802
-52.6248
-50.2077
-51.3594
-51.3408
-49.6469
-55.5484
-58.3877
-56.6774
-58.0725
-131.586
-125.052
-116.892
-38.0455
-87.8888
-75.2013
-80.0249
-80.7645
-100.174
-93.9532
-91.1694
-120.849
-41.3734
-33.0515
-24.5977
-55.5996
-65.3879
-65.2841
-63.4459
-68.7296
-63.3347
-61.1504
-63.5742
-60.8683
-74.2157
-78.7268
-74.0131
-81.5969
-79.0189
-81.719
-83.4741
-77.7704
-48.6545
-64.0681
-63.525
-64.8556
-65.2033
-66.4545
-70.09
-63.4331
-53.5176
-51.5023
-52.9881
-55.9661
-61.8457
-61.4809
-65.9387
-58.5401
-57.9775
-51.8931
-58.1493
-61.0229
-55.7042
-57.6589
-55.8931
-58.1873
-48.2677
-49.9518
-48.1197
-52.7303
-47.1089
-49.7095
-49.0338
-47.5231
-129.933
-132.25
-118.308
-46.3723
-42.1106
-34.4684
-25.7878
-56.5988
-87.2909
-74.0128
-78.8639
-79.5159
-98.8133
-92.9054
-90.1801
-117.781
-65.2857
-65.0853
-63.313
-68.7582
-78.8138
-81.5997
-83.248
-77.6272
-63.0991
-60.4187
-63.6787
-60.7274
-73.4908
-77.5029
-73.1578
-80.6596
-127.794
-104.836
-111.454
-116.228
161.346
187.648
182.996
166.048
-137.966
-114.147
-122.274
-124.748
176.812
179.394
172.041
172.328
-78.2543
-81.1912
-84.8739
-75.6885
-90.0933
-93.1844
-95.7739
-87.5417
-53.006
-55.4383
-55.1161
-53.3476
-42.6669
-42.6224
-42.9479
-41.7886
-51.1665
-53.5857
-53.0198
-52.6171
-46.5093
-46.9149
-46.2829
-46.2308
-51.8437
-52.5378
-52.2355
-52.2323
-56.2284
-55.8719
-56.7036
-55.1264
-12.9516
1.05337
-8.14447
-8.07036
119.231
167.932
149.778
142.38
-90.7875
-91.0513
-87.425
-95.2346
7.93266
19.0387
6.98944
18.1344
-48.712
-53.7722
-51.476
-51.4887
-38.6301
-38.6077
-38.3566
-38.3337
-58.8596
-58.1205
-56.5702
-59.692
-60.7677
-60.9531
-63.2174
-58.6213
-138.78
-107.392
-115.156
-121.416
170.063
185.649
172.423
189.48
-81.7751
-84.5224
-88.6619
-79.0643
-92.3222
-95.7077
-97.9046
-89.4924
-53.098
-56.2396
-53.5718
-56.0792
-42.7238
-42.6279
-42.9629
-41.8613
-52.9903
-53.9756
-53.4595
-53.7067
-56.8954
-57.6432
-60.0512
-54.0708
-90.9511
-92.7793
-95.9668
-89.8181
7.90428
19.035
18.5774
7.00722
-58.8477
-58.2101
-59.665
-56.5813
-60.6907
-60.929
-58.6054
-63.1712
-53.0079
-55.0492
-54.1608
-53.5453
-55.4308
-56.6919
-56.5364
-55.8678
-70.5911
-76.7633
-72.3357
-75.2302
-62.5683
-60.8907
-59.861
-63.8666
-76.3039
-83.0362
-79.7847
-80.456
-62.0757
-59.744
-60.7005
-60.6837
-56.3393
-57.3811
-55.5043
-58.2449
-53.5271
-54.9189
-52.2337
-55.0199
-57.6203
-57.1325
-57.1823
-57.2207
-60.4879
-58.8258
-61.0187
-60.7343
-76.0765
-66.8859
-71.5431
-73.349
-110.55
-113.527
-118.08
-107.627
6.26416
22.5555
14.6662
14.6082
-73.445
-112.947
-97.3944
-97.3462
-94.2358
-103.496
-98.6823
-98.6001
-74.2526
-68.5598
-71.4422
-71.3368
-51.5042
-53.7168
-53.0162
-52.0954
-55.048
-56.579
-56.2398
-55.6627
-73.1912
-79.9848
-77.8905
-75.2591
-61.8078
-60.012
-58.9524
-63.001
-55.129
-56.1707
-57.1293
-54.1676
-53.2867
-54.4324
-51.7814
-54.6426
-75.2038
-66.1011
-72.6887
-71.1169
-108.994
-113.032
-107.026
-117.422
-113.869
-104.625
-107.806
-97.1978
-66.9229
-65.7744
-71.0445
-70.0551
-90.4074
-81.5356
-85.6556
-80.504
-127.844
-109.299
-123.25
-107.494
-128.645
-108.396
-110.958
-100.551
-128.893
-109.181
-125.13
-107.505
-91.4457
-83.2749
-88.6679
-82.6558
-69.7576
-69.3082
-72.949
-73.1838
-124.395
-109.833
-116.143
-103.633
-137.652
-115.516
-123.793
-110.654
-76.5542
-75.1189
-81.0539
-78.4132
-76.4993
-74.6346
-80.3439
-78.1495
-19.8598
-20.3836
-12.5657
-7.76949
5.15789
2.90112
17.6012
12.4954
4.68098
2.7025
17.343
12.3974
-20.4993
-21.7605
-12.568
-8.05513
165.874
164.296
170.232
171.477
55.0593
50.9028
155.646
147.984
55.0482
42.7371
132.824
144.969
178.471
174.961
171.694
179.581
-54.5603
-56.1135
-54.9149
-56.7679
-51.9653
-52.2539
-52.8564
-53.2576
-66.5459
-69.0536
-62.0952
-68.7667
-77.128
-81.5862
-70.0351
-75.7869
-53.7928
-55.9231
-54.1872
-56.2067
-77.3664
-80.7037
-69.3357
-74.6395
-65.7221
-68.5648
-61.9234
-68.3578
-49.5348
-50.0551
-51.0477
-51.6967
-57.8891
-59.9932
-57.8448
-59.6062
-60.1141
-57.9608
-59.6079
-57.7824
-55.064
-54.6996
-55.9509
-55.531
-55.1856
-55.8095
-55.927
-56.4704
-91.0535
-80.5593
-109.753
-95.7239
-92.3817
-90.4288
-99.9318
-96.7084
-90.1388
-91.8693
-96.4602
-99.5445
-82.1349
-92.0118
-95.1115
-107.912
-52.4731
-49.4691
-52.5395
-51.7208
-54.8345
-52.7229
-54.0863
-52.6647
-48.5805
-50.4447
-51.5084
-53.2584
-59.3296
-57.8036
-58.6015
-56.4857
-53.5876
-46.336
-53.2996
-48.8565
-59.1117
-57.659
-58.0245
-56.4431
-48.7717
-50.76
-51.7102
-53.2196
-55.3418
-55.34
-55.5293
-54.4814
-62.2499
-63.505
-58.9745
-61.5562
-58.0965
-58.0091
-54.4049
-55.7479
-54.8579
-55.9471
-54.8319
-55.7332
-52.0209
-52.2301
-52.4493
-52.5005
-70.1265
-72.8968
-68.0655
-71.0184
-49.2845
-51.7174
-51.486
-53.9098
-49.2966
-51.7315
-51.5043
-53.9694
-70.0299
-72.8148
-68.0035
-70.964
-46.5437
-46.8107
-46.1829
-46.5806
-46.7731
-46.5537
-46.4841
-46.1831
-39.6021
-39.8934
-38.863
-39.4724
-39.8077
-39.5284
-39.4053
-38.8323
-159.779
-101.071
-118.571
-115.198
-125.296
-121.771
-60.1683
-47.7062
-52.3056
-48.5434
-56.4754
-51.5497
-148.866
16.5385
-46.4145
-1.81737
-116.893
-47.3148
-44.4228
-41.774
-45.045
-41.9474
-46.9383
-47.3238
-169.726
-15.6681
-199.996
43.8973
-147.36
-137.751
-52.0374
-48.6091
-60.6616
-47.6321
-54.7879
-51.5132
-46.2951
-4.15757
-145.063
21.749
-116.552
-49.5828
-44.9183
-42.0172
-44.5625
-41.8573
-47.0125
-47.2991
-62.7307
-78.5399
-53.9956
-57.7695
-62.3837
-56.4924
-67.1415
-60.9975
-55.0422
-63.42
-52.6187
-53.5828
-51.0099
-49.6873
-55.1732
-57.8058
-107.793
-101.12
-95.5911
-91.9159
-95.9409
-121.802
-44.628
-83.1381
-63.9515
-69.1571
-67.0034
-64.096
-70.4412
-74.1871
-78.919
-73.6138
-64.8941
-67.7504
-70.6864
-62.1916
-54.6166
-58.9076
-68.7971
-57.1074
-48.4415
-59.3234
-54.3068
-57.4277
-46.6884
-51.8986
-47.7092
-45.0201
-106.501
-104.701
-45.9131
-83.9784
-93.9788
-91.052
-95.39
-120.935
-63.6505
-68.933
-78.6774
-73.3543
-66.6099
-63.6198
-69.8839
-73.6455
-175.361
42.0202
-164.127
9.98959
-142.66
-153.114
142.12
121.49
-186.53
-128.78
-223.024
-63.3274
-156.015
-159.819
39.4652
95.6916
-85.1973
-91.7085
-65.5231
-72.2124
-81.3775
-71.6824
-93.0613
-82.4453
-50.9059
-45.3815
-46.3349
-41.7984
-51.7619
-49.6264
-43.3174
-42.2032
-50.8163
-47.9013
-50.4623
-47.8973
-50.8838
-50.5934
-46.7436
-46.7416
-51.6997
-56.027
-51.2345
-52.8754
-51.8584
-51.7806
-54.2356
-57.7678
-17.8165
-21.7935
-18.2343
-22.9093
-18.0412
-17.8479
23.6839
22.4608
-86.2342
-22.9703
-116.16
-13.7676
-97.0971
-94.9196
-6.51382
4.8194
-44.8606
-40.2431
-44.853
-40.3457
-46.5531
-46.5687
-39.4453
-39.4074
-55.3427
-56.4674
-62.8922
-64.5379
-57.0527
-61.1587
-62.6707
-58.4639
-203.417
76.5134
-137.689
18.4425
-159.929
-165.098
109.024
143.189
-86.6252
-93.3026
-69.2522
-73.2829
-85.5
-75.7828
-88.7812
-84.0067
-50.8602
-45.5856
-46.4394
-41.992
-49.8765
-51.9608
-43.4948
-42.2864
-55.191
-59.8146
-51.0205
-52.8194
-52.3565
-52.7857
-55.3691
-58.6136
-85.4638
-25.4574
-118.612
-18.2985
-93.7105
-101.219
4.3667
-6.65586
-55.341
-56.5753
-62.7748
-64.3136
-61.081
-56.7668
-58.4687
-62.6122
-51.7549
-54.0321
-50.9519
-53.8107
-52.7982
-52.0981
-54.9034
-54.6495
-63.1955
-60.7077
-72.2802
-70.0963
-66.4412
-70.884
-61.5011
-65.9715
-69.7444
-64.8558
-69.9253
-64.8708
-72.885
-72.9058
-63.418
-63.4291
-53.0379
-51.8043
-59.0872
-57.5447
-54.6195
-57.6715
-52.9171
-55.5054
-57.8835
-60.1051
-57.4427
-59.097
-57.4019
-57.812
-59.9059
-59.5639
-86.8225
-107.472
-78.209
-88.5631
-77.0562
-80.3309
-111.297
-101.08
-20.7419
-49.1016
-21.1824
-49.5339
-4.93676
-5.13287
-65.6173
-65.6437
-85.7587
-79.2337
-85.6654
-79.1547
-90.0044
-89.9292
-76.5223
-76.4467
-50.6482
-53.5618
-49.0105
-52.7192
-51.2517
-50.362
-54.6086
-54.0055
-64.7295
-60.8153
-72.2356
-69.4211
-72.1787
-68.9176
-61.0043
-65.2294
-51.5615
-50.43
-58.0117
-57.0297
-56.5212
-53.182
-51.8539
-54.9344
-86.168
-104.199
-77.2716
-86.5866
-79.6869
-76.0915
-97.8069
-110.691
-95.6462
-98.9343
-87.7181
-78.7305
-86.4275
-94.6394
-77.7148
-81.5978
-98.8661
-101.909
-91.3586
-82.127
-97.781
-89.0819
-84.3964
-80.4765
-104.952
-107.204
-98.2796
-90.3739
-101.165
-90.8163
-86.4265
-87.1272
8.72647
8.93556
14.193
24.3598
24.6327
14.5057
25.4285