# vtk DataFile Version 2.0
tri_press
ASCII
DATASET UNSTRUCTURED_GRID
POINTS 3682 float
-0.715 0.135 -2.00193
-0.725 0.195 2.06684
-0.715 0.675 -1.97353
-0.625 1.00531 2.115
0.715 0.135 -2.00193
0.725 0.195 2.06684
0.715 0.675 -1.97353
0.625 1.00531 2.115
-0.730089 0.143244 -0.645673
-0.740623 0.156044 0.710583
-0.790598 0.890701 -0.610687
-0.747493 0.9877 0.752157
0.730123 0.14321 -0.645673
0.740595 0.156072 0.710583
0.790653 0.890756 -0.610687
0.747369 0.987576 0.752157
-1.4625 -0.295237 -3.10752
-1.46177 -0.221717 -2.01987
-1.46768 -0.211048 -0.663785
-1.45575 -0.221385 0.690976
-1.43124 -0.199699 2.04695
-1.4309 -0.164976 3.13405
-1.4405 -0.122786 4.22216
-1.46284 0.0317409 -3.09095
-1.46569 0.127691 -2.00258
-1.47959 0.164858 -0.645216
-1.45616 0.173132 0.711559
-1.4115 0.198373 2.0688
-1.42066 0.23293 3.15599
-1.43791 0.274046 4.24388
-1.46494 0.649867 -3.05966
-1.47597 0.742534 -1.97157
-1.51879 0.904147 -0.609711
-1.46196 0.985039 0.752614
-1.36057 1.0105 2.11435
-1.39603 1.04118 3.20126
-1.43444 1.07819 4.28809
-1.46667 1.71743 -3.00778
-1.47533 1.82752 -1.9187
-1.49351 2.00337 -0.554706
-1.4876 2.14312 0.810708
-1.46252 2.21631 2.17463
-1.45692 2.25226 3.26357
-1.46643 2.28567 4.35112
-0.728335 -0.29221 -3.10709
-0.721679 -0.215069 -2.01925
-0.727806 -0.220854 -0.663868
-0.73103 -0.234923 0.690143
-0.722892 -0.206671 2.04549
-0.726636 -0.170882 3.13306
-0.734461 -0.128006 4.22158
-0.727858 0.0269286 -3.09082
-0.728323 0.228342 3.15518
-0.737441 0.269438 4.24345
-0.726903 0.619914 -3.06047
-0.707223 1.03767 3.20139
-0.73877 1.07501 4.28812
-0.723203 1.69613 -3.00858
-0.727116 1.8071 -1.91959
-0.749131 1.99651 -0.555241
-0.761307 2.14613 0.810772
-0.754184 2.2191 2.17509
-0.752882 2.2532 3.26402
-0.761175 2.28559 4.35145
0.726508 -0.292211 -3.10709
0.726541 -0.215075 -2.01925
0.736344 -0.220876 -0.663868
0.740718 -0.234914 0.690143
0.726204 -0.206669 2.04549
0.697127 -0.170884 3.13306
0.682863 -0.128013 4.22158
0.721657 0.0269289 -3.09082
0.676222 0.228339 3.15518
0.668373 0.269432 4.24345
0.726536 0.619917 -3.06047
0.639916 1.03766 3.20139
0.648464 1.075 4.28812
0.757823 1.69613 -3.00858
0.763625 1.80711 -1.91959
0.749104 1.9965 -0.555241
0.704802 2.14609 0.810772
0.663204 2.21906 2.17509
0.65085 2.25318 3.26402
0.647096 2.28557 4.35145
1.46117 -0.295241 -3.10752
1.46371 -0.221725 -2.01987
1.47576 -0.21108 -0.663785
1.47148 -0.221395 0.690975
1.44327 -0.1997 2.04695
1.41464 -0.164984 3.13405
1.39876 -0.122801 4.22216
1.45745 0.0317425 -3.09095
1.46216 0.127695 -2.00258
1.48134 0.164824 -0.645216
1.46768 0.173109 0.711559
1.4227 0.198374 2.0688
1.39225 0.232922 3.15599
1.38203 0.274031 4.24388
1.46539 0.649875 -3.05966
1.47569 0.742554 -1.97157
1.51944 0.904153 -0.609711
1.46663 0.984929 0.752614
1.36155 1.01047 2.11435
1.35016 1.04116 3.20126
1.35715 1.07816 4.28809
1.4963 1.71743 -3.00778
1.50333 1.82752 -1.9187
1.49199 2.00334 -0.554706
1.44197 2.14306 0.810707
1.38612 2.21625 2.17463
1.3651 2.25222 3.26357
1.35939 2.28563 4.35112
-0.733867 0.405 -2.0066
0 0.136945 -1.99999
-0.721231 0.140436 -1.3238
-0.707983 0.600155 2.1239
0 0.200534 2.06131
-0.735423 0.172911 1.38871
0 0.784399 -2.08293
-0.802278 0.832329 -1.29211
0 1.01388 2.12357
-0.713893 1.02415 1.43358
0.733867 0.405 -2.0066
0.721271 0.140396 -1.3238
0.707957 0.600155 2.12388
0.735416 0.172917 1.38871
0.802207 0.832258 -1.29211
0.71391 1.02417 1.43358
-0.736483 0.148517 0.032455
-0.867142 0.516973 -0.62818
1.70412e-05 0.15013 -0.645673
-0.866266 0.571872 0.73137
-1.39651e-05 0.152921 0.710583
-0.777935 0.94809 0.070735
2.75746e-05 1.23083 -0.610687
-6.18716e-05 1.37227 0.752157
0.736482 0.148518 0.032455
0.867149 0.516983 -0.62818
0.866259 0.571824 0.73137
0.777948 0.948103 0.070735
-0.896824 0.460986 -1.30796
0.896824 0.460992 -1.30796
8.52058e-06 0.156169 -1.3238
1.37873e-05 0.942531 -1.29211
0 0.405 -2.17659
-0.876239 0.544422 0.051595
0.876237 0.544404 0.051595
1.53803e-06 0.151539 0.032455
-1.71485e-05 1.38247 0.070735
-0.882392 0.586013 1.41115
0.882398 0.58599 1.41115
-6.98255e-06 0.175605 1.38871
-3.09358e-05 1.18678 1.43358
0 0.600155 2.27363
-0.742567 0.27 -2.0224
-0.3575 0.136985 -1.99994
-0.718327 0.137506 -1.66287
-0.729992 0.397578 2.10887
-0.3625 0.200646 2.06119
-0.734889 0.179277 1.72778
-0.73788 0.54 -2.00351
-0.3575 0.764589 -2.06312
-0.793636 0.788662 -1.63282
-0.667604 0.802733 2.12056
-0.3125 1.00647 2.11616
-0.680972 1.02626 1.77429
0.3575 0.13698 -1.99995
0.742576 0.27 -2.02241
0.71838 0.137453 -1.66287
0.3625 0.200646 2.06119
0.730019 0.397578 2.1089
0.734884 0.179282 1.72778
0.3575 0.764591 -2.06312
0.737896 0.54 -2.00353
0.793615 0.788641 -1.63282
0.3125 1.00647 2.11616
0.667539 0.802733 2.1205
0.680988 1.02627 1.77429
-0.723846 0.143654 -0.984738
-0.733078 0.146088 -0.306609
-0.847128 0.305853 -0.636927
-0.358213 0.160333 -0.645673
-0.733672 0.168828 1.04965
-0.739041 0.151792 0.371519
-0.846773 0.342294 0.720977
-0.365296 0.164527 0.710583
-0.797536 0.862614 -0.951398
-0.867641 0.723222 -0.619433
-0.783607 0.918736 -0.269976
-0.465763 1.20172 -0.610687
-0.731349 1.00658 1.09287
-0.859773 0.806233 0.741763
-0.763 0.968181 0.411446
-0.457697 1.34783 0.752157
0.723917 0.143583 -0.984738
0.358238 0.160333 -0.645673
0.733078 0.146089 -0.306609
0.847123 0.305854 -0.636927
0.733656 0.168844 1.04965
0.365275 0.164527 0.710583
0.739005 0.151829 0.371519
0.846781 0.342271 0.720977
0.797527 0.862604 -0.951398
0.465778 1.20167 -0.610687
0.86764 0.723239 -0.619433
0.783605 0.918734 -0.269976
0.731361 1.00659 1.09287
0.457616 1.34785 0.752157
0.859758 0.806172 0.741763
0.762882 0.968063 0.411446
-0.896581 0.432993 -1.65728
-0.366934 0.405 -2.18164
4.26029e-06 0.154975 -1.66189
0 0.270972 -2.17623
-0.896173 0.300711 -1.31588
-0.360611 0.156249 -1.3238
-0.823027 0.593084 1.76752
-0.353992 0.600155 2.256
-3.49127e-06 0.18146 1.72501
0 0.400344 2.26823
-0.872758 0.379462 1.39993
-0.367715 0.175768 1.38871
6.89364e-06 0.899683 -1.68752
0 0.594699 -2.2431
-0.895754 0.646658 -1.30003
-0.401132 0.937144 -1.29211
-1.54679e-05 1.0437 1.77858
0 0.807019 2.21235
-0.842125 0.805082 1.42236
-0.356962 1.16966 1.43358
0.89658 0.432996 -1.65728
0.366934 0.405 -2.18164
0.896174 0.300694 -1.31588
0.36064 0.15625 -1.3238
0.823028 0.593072 1.76751
0.353978 0.600155 2.25601
0.872812 0.379453 1.39993
0.367705 0.175767 1.38871
0.895754 0.646625 -1.30003
0.40111 0.937143 -1.29211
0.842119 0.805079 1.42236
0.35694 1.16964 1.43358
-0.848547 0.325377 0.042025
-0.362048 0.162413 0.032455
-0.867636 0.48898 -0.968068
-0.871184 0.530698 -0.288293
1.27809e-05 0.156918 -0.984738
9.28959e-06 0.15081 -0.306609
-0.872245 0.558147 0.391483
-0.894802 0.578943 1.07126
-6.21353e-06 0.152218 0.371519
-1.04738e-05 0.174453 1.04965
-0.869094 0.76726 0.061165
-0.484588 1.3565 0.070735
2.06809e-05 1.06677 -0.951398
5.21304e-06 1.3362 -0.269976
-3.951e-05 1.39184 0.411446
-4.64037e-05 1.30575 1.09287
0.848545 0.325368 0.042025
0.362049 0.162413 0.032455
0.867226 0.488987 -0.968068
0.871184 0.530693 -0.288293
0.872241 0.558114 0.391483
0.89479 0.578907 1.07126
0.869104 0.767259 0.061165
0.484577 1.35651 0.070735
-0.89521 0.285356 -1.66007
-0.870153 0.31541 -0.976403
-0.869989 0.675247 -0.959733
-0.895663 0.593329 -1.64505
0.895208 0.285347 -1.66007
0.895664 0.593313 -1.64505
0.869989 0.675247 -0.959733
0.870155 0.315395 -0.976403
-0.359056 0.155015 -1.66238
0.35907 0.155018 -1.66238
0.362855 0.157012 -0.984738
-0.362824 0.157012 -0.984738
-0.379316 0.892492 -1.66017
-0.398209 1.05048 -0.951398
0.398225 1.05044 -0.951398
0.379305 0.892451 -1.66017
-0.362217 0.270486 -2.18089
-0.362217 0.56735 -2.23276
0.362217 0.56735 -2.23255
0.362217 0.270486 -2.18089
-0.847993 0.315537 -0.297451
-0.847804 0.333763 0.381501
-0.865111 0.787085 0.401464
-0.868235 0.745175 -0.279134
0.847991 0.315532 -0.297451
0.868237 0.745182 -0.279134
0.865129 0.787064 0.401464
0.847802 0.33375 0.381501
-0.360123 0.161389 -0.306609
0.360136 0.161389 -0.306609
0.363664 0.163467 0.371519
-0.363674 0.163467 0.371519
-0.490894 1.31055 -0.269976
-0.477483 1.36485 0.411446
0.477434 1.36485 0.411446
0.490902 1.31054 -0.269976
-0.881706 0.37171 1.06045
-0.826849 0.38852 1.74765
-0.817539 0.803907 1.77091
-0.854127 0.792434 1.08206
0.881705 0.371701 1.06045
0.854145 0.79239 1.08206
0.817538 0.803906 1.7709
0.826857 0.388515 1.74764
-0.369017 0.174608 1.04965
0.368998 0.174608 1.04965
0.365102 0.18162 1.72639
-0.365107 0.18162 1.72639
-0.36537 1.28944 1.09287
-0.334731 1.03775 1.77643
0.33472 1.03775 1.77643
0.365297 1.28944 1.09287
-0.358246 0.398961 2.25051
0.358239 0.398961 2.25053
0.333239 0.804876 2.19276
-0.333246 0.804876 2.19283
-0.737715 0.2025 -2.02109
-0.53625 0.131396 -2.00553
-0.716847 0.136069 -1.8324
-0.738981 0.296289 2.09934
-0.54375 0.197638 2.0642
-0.734404 0.182679 1.89731
-0.734462 0.6075 -1.99654
-0.53625 0.722247 -2.02078
-0.768156 0.745669 -1.80317
-0.653231 0.904021 2.12471
-0.46875 0.998134 2.10782
-0.655239 1.01804 1.94464
0.53625 0.131391 -2.00554
0.737724 0.2025 -2.0211
0.716881 0.136036 -1.8324
0.54375 0.197689 2.06415
0.738971 0.296289 2.09933
0.734402 0.182681 1.89731
0.53625 0.722754 -2.02128
0.734487 0.6075 -1.99657
0.768132 0.745645 -1.80317
0.46875 0.998133 2.10782
0.653172 0.904021 2.12465
0.655243 1.01804 1.94464
-0.725225 0.145191 -0.815206
-0.731375 0.144875 -0.476141
-0.833329 0.202188 -0.6413
-0.545275 0.149542 -0.645673
-0.736983 0.1626 0.880115
-0.740569 0.153181 0.541051
-0.838691 0.226672 0.71578
-0.553192 0.159821 0.710583
-0.793609 0.876199 -0.781042
-0.85459 0.819697 -0.61506
-0.787061 0.904677 -0.440331
-0.673834 1.13752 -0.610687
-0.739804 0.997524 0.922512
-0.831209 0.910754 0.74696
-0.755129 0.977822 0.581801
-0.629289 1.22115 0.752157
0.725321 0.145095 -0.815206
0.545323 0.149487 -0.645673
0.731375 0.144875 -0.476141
0.833313 0.202187 -0.6413
0.736969 0.162614 0.880115
0.553167 0.159836 0.710583
0.740537 0.153213 0.541051
0.838691 0.22667 0.71578
0.793615 0.876205 -0.781042
0.673742 1.13727 -0.610687
0.854584 0.819717 -0.61506
0.787063 0.904679 -0.440331
[...]
POINT_DATA 3682
SCALARS point_scalars float 1
LOOKUP_TABLE default
-126.838
-44.9683
-13.9173
-38.3277
-126.8
-44.9813
-13.9699
-38.3024
-37.6309
-35.0568
-58.4812
-50.2443
-37.6717
-35.0526
-58.4571
-50.2444
-23.8038
-82.443
-42.2036
-29.0869
-44.9751
-41.8487
-35.1453
-13.3501
-88.0665
-37.8905
-27.899
-45.4843
-36.0358
-33.906
57.3355
-92.0151
-50.6017
-45.6205
-44.7739
-36.0265
-34.585
1.77412
-57.3876
-82.4503
-61.7483
-40.6057
-38.884
-36.9939
-104.807
-146.204
-38.5153
-35.1757
-43.026
-34.8431
-34.0953
7.07934
-32.9691
-32.142
151.995
-34.0004
-33.6389
5.25448
-42.702
-77.0249
-63.7282
-37.5689
-36.9939
-34.9145
-99.367
-146.526
-38.8133
-34.9687
-43.0472
-34.6886
-33.7203
6.24817
-32.9999
-31.1252
151.895
-33.7957
-33.3083
5.98486
-43.1814
-77.1425
-64.7962
-38.1429
-36.9815
-34.2166
-24.3925
-82.322
-42.3488
-29.1092
-44.9427
-41.8435
-34.2902
-16.1317
-88.0209
-37.9019
-27.9196
-45.4573
-35.5904
-33.7535
57.3249
-90.3328
-50.5976
-45.6188
-44.7702
-36.0182
-34.6513
1.6027
-62.3297
-82.3851
-61.6614
-40.5226
-38.855
-36.9815
4.74794
-125.14
-55.3413
-36.162
-35.1747
-38.344
-28.1816
-56.0711
-35.6441
-49.0243
4.57619
-55.2962
-36.1415
-38.3595
-56.216
-49.0283
-34.458
-40.9365
-37.7967
-38.0002
-37.7911
-53.6992
-35.8784
-68.6178
-34.4528
-40.9385
-37.9922
-53.6525
-66.844
-66.861
-55.2963
-3.95081
192.273
-40.0686
-40.0633
-35.2051
-86.5379
-48.4549
-48.3993
-36.1578
-45.1787
-28.4572
-9.33658
-131.519
-80.2478
-37.5405
-38.2715
-40.4838
2.10343
-19.4326
-56.2221
-35.8613
-35.6577
-43.0455
-131.426
-9.35014
-80.2318
-38.2956
-37.5726
-40.5138
-19.4993
2.01462
-56.1993
-35.6558
-35.8462
-43.044
-42.3209
-34.9684
-38.261
-37.8204
-37.2619
-34.47
-33.422
-36.6142
-55.5774
-47.0587
-55.2122
-38.9963
-49.7168
-43.6932
-52.3058
-65.2901
-42.3054
-37.8164
-34.9561
-38.2682
-37.2652
-36.6199
-34.4668
-33.4208
-55.6402
-38.971
-47.0591
-55.2132
-49.7526
-65.3007
-43.6839
-52.2833
-109.518
175.296
-77.4965
197.675
-64.8609
-55.0139
-43.6947
-32.3329
-37.4948
-23.9122
-46.5641
-36.5547
-34.8268
168.347
-66.7613
-11.1467
-39.9577
-30.9299
-47.71
-46.0419
-109.476
175.41
-64.8618
-55.0027
-43.67
-32.3245
-46.5647
-36.5769
-66.7718
-11.1488
-47.6937
-46.0397
-37.1441
-34.8817
-47.2916
-39.9284
-43.5066
-36.0636
-39.4956
-44.5692
-35.6326
-35.1076
-45.8374
-76.6795
15.2758
-80.5862
-78.0387
-55.8304
-37.1412
-34.8763
-47.2639
-39.9254
-39.488
-44.5804
-45.8288
-76.6712
-107.425
-47.5853
-48.7275
-107.763
-107.42
-107.511
-48.7301
-47.5603
-77.3242
-77.3022
-43.2848
-43.2892
-37.1986
6.67703
6.76979
-37.1909
177.256
154.32
154.658
176.649
-37.115
-36.7955
-44.3603
-46.0147
-37.1124
-46.0123
-44.353
-36.7912
-35.689
-35.6703
-35.2023
-35.2019
-80.611
-70.5561
-70.5597
-80.6183
-43.9062
-44.8627
-43.7656
-45.7536
-43.9088
-45.7809
-43.7459
-44.7083
-35.3315
-35.3354
-38.5936
-38.4217
-56.093
-40.1649
-40.1637
-56.1021
-31.0092
-30.999
-32.8334
-32.8287
-45.9342
-131.659
-102.757
-40.5807
-41.3502
-41.9531
1.86373
-12.1325
-50.7842
-36.5466
-36.0985
-40.2421
-131.175
-46.0045
-102.706
-41.3855
-40.4093
-41.762
-12.443
1.8476
-50.8025
-36.0927
-36.5408
-40.249
-38.0665
-35.7
-37.5637
-37.1063
-38.6708
-34.7832
-31.7394
-36.9113
-59.4729
-52.5748
-56.5214
-83.0627
-49.8361
-48.1055
-51.0958
-56.2224
-38.0244
-37.108
-35.689
-37.5936
-38.6871
-36.922
-34.7809
-31.746
-59.4702
-83.0754
-52.5787
-56.4567
-49.8716
-56.0328
-48.1222
-51.0844
3.7547
3.48275
-97.3605
109.763
-126.15
-126.157
-94.4419
13.8205
-65.3918
-48.3939
-62.2573
-54.3661
-36.473
-35.9688
-42.3375
-33.566
-36.0959
-36.1119
-36.9516
-26.3813
-40.3331
-37.0169
-46.1151
-37.0944
-27.254
-26.6638
-40.4985
84.2598
-58.7568
-52.8201
-67.485
-24.0606
-35.6059
-35.6057
-38.0719
-34.0216
-46.3824
-50.4695
-47.5036
-47.9107
3.69859
3.33035
-97.3814
109.657
-65.3898
-48.3763
-62.252
-54.3532
-36.4551
-35.9541
-42.3091
-33.5543
-40.3533
-37.0259
-46.1168
-37.1174
-58.7752
-52.8152
-67.4602
-24.0451
-46.3811
-50.5366
-47.5077
-47.9762
-34.6259
-34.4547
-35.804
-34.5821
-39.4134
-43.369
-42.7501
-40.1689
-37.7484
-37.7455
-39.9122
-37.0364
-35.2598
-40.7766
-38.6804
-37.826
-37.704
-37.7072
-36.334
-36.9112
-54.1875
-54.1998
-49.8178
-62.3033
-35.7481
-35.6074
-3.2659
-62.6303
-68.0081
-68.0086
-73.3075
-62.4008
-34.6164
-34.456
-35.8022
-34.5748
-39.417
-43.3685
-42.7515
-40.1679
-35.2404
-40.7708
-38.6738
-37.8759
-54.1845
-54.1686
-49.7961
-62.2088
-81.1853
-66.2004
-66.8843
-55.9315
-81.1952
-66.2101
-66.9067
-55.9512
-64.7507
-55.2895
-55.2875
-48.3892
-19.7716
-5.7727
-5.77541
10.3005
188.443
194.69
203.989
188.486
-38.3838
-39.628
-40.3892
-42.6744
-38.3794
-39.6231
-40.384
-42.6674
-35.1317
-35.4577
-35.2741
-35.1295
-84.6602
-87.7906
-82.2305
-84.6503
-48.9963
-47.2243
-50.4112
-46.6485
-49.0054
-47.2122
-50.3709
-46.6379
-37.0067
-36.258
-36.2722
-35.474
-42.1351
-45.4055
-45.4078
-49.7204
-29.7799
-24.6947
-30.8193
-29.7792
-93.0147
91.8657
-94.7911
-48.9437
-104.583
-76.7042
-43.3852
-33.2995
-38.5741
-32.0984
-43.6133
-39.2473
-77.9761
100.562
-39.6514
66.9921
-89.6768
-43.8712
-44.0482
-33.7807
-38.0487
-34.117
-43.7992
-40.8561
-94.7513
-47.8268
-93.0139
91.7171
-104.57
-76.6625
-38.3045
-32.0871
-43.3626
-33.293
-43.5197
-39.4798
-39.6535
66.4006
-78.6843
100.514
-89.5624
-43.8587
-38.0471
-34.1123
-44.028
-33.7755
-43.7928
-40.8542
-48.0664
-42.8753
-35.9134
-35.3555
-40.1253
-37.3418
-39.9144
-36.5423
-44.1946
-36.0341
-35.2622
-34.9167
-35.6614
-36.7912
-35.8846
-37.349
-52.0719
-13.0192
-47.5659
-46.3707
-50.1432
-69.5237
-12.0582
-63.6317
-47.4061
-57.7397
-43.6776
-43.4645
-48.914
-58.6809
-68.1235
-61.5059
-48.0479
-42.8608
-39.917
-36.5202
-35.9103
-35.3355
-40.1245
-37.3417
-44.195
-36.0429
-35.8869
-37.3557
-35.2616
-34.9151
-35.6576
-36.823
-52.0673
-12.9875
-12.0575
-63.6065
-47.5625
-46.3706
-50.1411
-69.5322
-47.427
-57.7261
-68.1211
-61.5111
-43.6762
-43.5132
-48.9059
-58.6618
-108.62
-109.669
175.427
181.904
-77.6449
-77.6416
193.043
192.67
-78.5513
-55.7885
-64.4923
-48.1359
-44.2961
-43.7459
-31.0114
-32.5027
-37.8773
-37.7191
-26.4581
-26.4573
-44.6397
-47.0089
-35.8018
-37.5896
-34.7604
-34.7478
164.521
164.466
-54.908
-80.2273
-25.2297
2.49675
-40.0084
-40.0079
-31.5075
-31.5118
-45.5023
-48.2331
-50.4843
-42.54
-108.579
-109.494
181.945
175.457
-78.5485
-55.7899
-64.4752
-48.1275
-43.7212
-44.2607
-31.0027
-32.4977
-44.6343
-47.1073
-35.8116
-37.6392
-80.2904
-54.8543
2.65536
-25.221
-48.2221
-45.4979
-42.5866
-50.5048
-37.029
-37.2801
-35.1298
-34.9425
-47.422
-47.456
-38.2223
-42.5096
-43.4875
-43.488
-35.9793
-35.9729
-37.8791
-41.6526
-44.4183
-43.5961
-35.5465
-35.5465
-35.1551
-35.1569
-45.2763
-44.2231
-81.2766
-73.2072
13.8674
13.87
-79.8639
-79.8791
-76.1866
-76.1854
-55.8693
-55.869
-37.0234
-37.2758
-35.1163
-34.9421
-47.4558
-47.3852
-38.2199
-42.5063
-41.6457
-37.8724
-44.4439
-43.6472
-44.2095
-45.2637
-73.197
-81.2326
-83.5217
-75.1607
-80.3393
-98.3571
-39.2348
-41.4195
-55.8164
-55.4934
-54.1933
-55.9385
-55.6817
-44.4492
-67.0102
-87.9526
-80.7514
-80.7411
-83.4371
-98.3444
-80.3377
-75.1599
-67.1855
-80.7579
-80.7843
-88.4235
-54.1888
-44.4447
-55.6867
-55.9727
-39.2223
-55.4838
-55.8275
-41.4283
-95.2056
-94.7279
-64.7709
-63.9171
-95.1167
-63.8798
-64.768
-94.7235
-39.6091
-39.9324
-48.3887
-47.6014
-39.6093
-47.6321
-48.3901
-39.9326
-44.632
-33.8044
-20.8438
-40.8072
-68.6404
-4.89084
8.69031
-14.4607
-67.5344
-14.4527
8.90668
-4.89349
-44.3932
-40.7974
-20.8427
-33.8233
-4.8201
117.786
189.294
-11.0659
49.5378
81.9765
200.608
109.016
49.5676
108.955
200.643
82.3043
-2.38328
-10.9887
189.348
117.644
-36.287
-35.7105
-38.087
-38.488
-34.4919
-36.7582
-38.7386
-35.6962
-48.3715
-49.8612
-42.4904
-41.0113
-51.1044
-42.7603
-41.9246
-49.1483
-36.283
-38.4885
-38.0823
-35.7072
-51.1062
-49.1408
-41.9178
-42.7591
-48.371
-41.0065
-42.4816
-49.8289
-34.4929
-35.6954
-38.7373
-36.7518
-36.1848
-36.9354
-35.3863
-34.8622
-36.1617
-34.8468
-35.3819
-36.9294
-35.5603
-36.2216
-35.1982
-34.6516
-35.5616
-34.6505
-35.199
-36.2205
-74.0116
-65.7275
-85.7227
-61.4505
-57.0642
-72.2776
-79.9896
-63.0663
-57.0405
-63.0493
-79.9893
-72.2777
-74.0517
-61.4102
-85.7131
-65.7166
-32.078
-42.4175
-45.6057
-37.6956
-45.1304
-42.4074
-48.1592
-47.6338
-44.6115
-45.7043
-46.7047
-43.0743
-47.2457
-41.0524
-47.8107
-48.2149
-32.0992
-37.7164
-45.6005
-42.4185
-47.2983
-48.2177
-47.7869
-41.0564
-44.6185
-43.0474
-46.7158
-45.703
-45.1013
-47.6654
-48.139
-42.3846
-35.9262
-36.9631
-35.5655
-36.3145
-35.9312
-36.3241
-35.5712
-36.967
-39.6314
-37.2239
-37.1849
-38.2401
-39.9362
-38.1855
-37.1494
-37.4266
-55.6754
-52.8311
-49.9033
-62.3585
-38.3848
-38.0606
-42.2213
-43.8098
-38.3832
-43.8079
-42.221
-38.0598
-55.9119
-62.3569
-49.9024
-52.8057
-34.7633
-28.3984
-26.9676
-33.2053
-34.9315
-33.1922
-26.967
-28.4007
-34.2132
-33.8117
-31.5705
-33.6083
-34.2206
-33.6146
-31.5689
-33.8065
-90.3543
-141.899
-133.387
-43.509
-42.6583
-43.0266
-3.24381
-8.46615
-36.5936
-37.969
-36.6023
-38.6295
-141.716
-90.383
-133.295
-42.6797
-43.5089
-43.0303
-8.89431
-3.26533
-36.5967
-36.5902
-37.9481
-38.6218
-38.0938
-36.3707
-38.4003
-36.9852
-36.6375
-34.71
-31.676
-36.6943
-59.078
-55.7591
-57.4857
-69.1933
-49.9557
-49.5798
-50.6353
-52.3411
-38.1319
-36.986
-36.3699
-38.4897
-36.6496
-36.6743
-34.7055
-31.6817
-59.0627
-69.1767
-55.7681
-57.4382
-49.9744
-52.3111
-49.5926
-50.632
5.1111
4.03602
-47.1294
46.2377
-124.903
-124.903
-106.544
-229.089
-59.7864
-51.6453
-60.1277
-54.3764
-36.0733
-36.1991
-40.3676
-34.1395
-35.6125
-35.625
-36.3361
-28.8432
-39.1508
-37.5934
-43.0278
-37.428
-28.7595
-28.8408
-35.9094
-4.98438
-59.6686
-54.3475
-65.5848
-39.2634
-35.6374
-35.6357
-36.9313
-34.8398
-47.372
-49.7169
-48.3896
-50.0849
4.99697
3.87024
-47.6176
46.0885
-59.8095
-51.6393
-60.1243
-54.3576
-36.0551
-36.1801
-40.3486
-34.1276
-39.1695
-37.6056
-43.0342
-37.4551
-59.7236
-54.305
-65.5591
-39.3045
-47.3794
-49.6752
-48.4016
-50.0757
-34.5004
-34.4855
-34.8644
-34.4943
-40.1038
-42.0056
-41.6687
-40.4983
-37.764
-37.7625
-38.1926
-37.6901
-36.627
-39.3833
-38.3354
-37.3804
-37.7308
-37.7325
-36.8668
-37.2358
-53.7193
-54.2823
-52.4506
-57.3765
-35.6675
-35.667
-19.4147
-50.5188
-68.4972
-68.4999
-71.0634
-65.8141
-34.4932
-34.483
-34.8624
-34.4881
-40.1066
-42.0064
-41.67
-40.4991
-36.6116
-39.3769
-38.3288
-37.3749
-53.7019
-54.2131
-52.411
-57.1788
-73.0352
-66.6001
-66.796
-60.6341
-73.0512
-66.6133
-66.8169
-60.6489
-59.5992
-55.3406
-55.3257
-51.5483
-11.9578
-4.34242
-4.34428
3.12027
191.169
193.54
200.361
191.195
-39.2222
-39.6504
-40.4229
-41.2738
-39.2169
-39.6447
-40.4168
-41.2678
-35.1896
-35.3013
-35.1999
-35.1885
-86.0805
-88.1743
-84.7197
-86.0766
-48.8394
-47.8518
-49.0953
-47.8099
-48.8552
-47.8293
-49.0083
-47.7816
-36.5491
-36.1951
-36.1976
-35.8237
-43.5068
-45.282
-45.2784
-47.2187
-28.7634
-26.0673
-30.7871
-28.7584
-21.5993
0.116917
-68.8881
47.4469
-129.001
-128.595
-109.941
-161.519
-90.0475
-72.1624
-102.885
-77.4163
-38.2099
-37.0407
-42.3271
-34.1303
-39.322
-36.999
-38.4192
-33.3948
-40.2575
-40.905
-42.1917
-39.7336
1.68607
2.69835
-38.6817
54.3817
-22.9137
-22.9171
-36.2816
11.1769
-54.5364
-59.9742
-71.214
-50.1677
-35.9608
-35.7
-40.2559
-34.1646
-35.772
-35.5902
-36.8554
-34.5756
-41.5945
-44.2172
-43.9319
-41.8986
-128.728
-128.601
-109.864
-161.499
-21.6621
0.117661
-69.111
47.2999
-90.0215
-72.1512
-102.86
-77.3833
-39.3487
-37.0187
-38.4263
-33.4016
-38.2103
-37.0238
-42.3066
-34.1162
-40.0584
-40.9259
-42.1439
-39.8808
-22.9964
-23.8508
-36.2833
13.04
1.63712
2.57134
-39.3796
54.3344
-54.473
-59.9829
-71.0455
-50.1346
-35.7687
-35.5882
-36.854
-34.5726
-35.9559
-35.6809
-40.2606
-34.1635
-41.5916
-44.2135
-43.9326
-41.894
-39.2191
-45.2064
-46.6759
-42.433
-35.2455
-34.6423
-35.2049
-35.1313
-37.8063
-38.8061
-39.0625
-37.7663
-37.7525
-37.6464
-38.7912
-37.1288
-38.1134
-36.7566
-43.1066
-36.4011
-34.557
-34.3687
-34.5413
-34.7238
-32.5543
-34.0912
-34.7651
-30.7402
-36.2521
-37.4311
-36.2618
-36.5258
-59.8262
-53.8091
-53.343
-38.0765
-49.5255
-45.0885
-47.2904
-46.6993
-55.7752
-54.9323
-53.1157
-60.8966
-52.9369
-36.5414
-24.2621
-50.7812
-49.8331
-49.7556
-49.5195
-54.0213
-45.6212
-42.2375
-43.5352
-44.1695
-51.5985
-53.3335
-51.525
-55.1973
-62.2915
-67.0218
-66.6701
-64.3026
-39.1972
-45.1887
-46.6515
-42.4183
-37.7759
-37.6419
-38.7983
-37.1084
-35.2321
-34.6315
-35.1995
-35.1158
-37.8183
-38.8111
-39.0702
-37.7689
-38.1204
-36.7621
-43.1074
-36.4041
-36.2651
-37.4355
-36.2655
-36.5292
-34.5535
-34.3706
-34.5414
-34.7197
-32.5573
-34.0817
-34.761
-30.7378
-59.7665
-53.8239
-53.368
-38.0343
-53.0169
-36.596
-24.2502
-50.603
-49.5283
-45.0877
-47.2902
-46.6981
-55.7578
-54.9323
-53.1201
-60.899
-49.8639
-49.7713
-49.5828
-54.0283
-62.2997
-67.0891
-66.6731
-64.3159
-45.6187
-42.2297
-43.5316
-44.1251
-51.5799
-53.327
-51.506
-55.1725
-117.555
-92.7785
-109.12
-109.525
158.729
183.927
176.943
180.415
-85.3009
-70.7645
-77.6421
-77.6404
115.436
196.05
196.126
196.435
-63.9169
-65.6764
-70.658
-60.0949
-54.7047
-55.2067
-59.4127
-51.2352
-42.7202
-46.0269
-43.8546
-43.6495
-33.026
-30.9827
-31.4058
-32.7803
-37.1606
-37.5784
-37.6823
-37.5333
-24.6739
-23.9332
-24.769
-24.7711
-45.9229
-46.8944
-46.0995
-46.5466
-36.7622
-36.3874
-36.1547
-37.0309
-39.4981
-28.0676
-34.4073
-34.4135
151.082
189.038
168.726
168.524
-66.7341
-66.8341
-60.9278
-72.3026
-16.8993
-8.16783
-18.2503
-3.7384
-39.118
-40.74
-39.9566
-39.9564
-32.2514
-31.5454
-31.1255
-31.1241
-47.2427
-49.4178
-46.6188
-48.3209
-46.5999
-45.6264
-48.1078
-44.1758
-117.538
-92.7753
-109.066
-109.446
158.708
183.993
180.506
177.067
-63.9134
-65.6826
-70.6579
-60.0942
-54.6902
-55.2015
-59.3987
-51.2257
-42.6961
-45.991
-43.6245
-43.8272
-33.0158
-30.9797
-31.3975
-32.7731
-45.925
-46.8908
-46.0909
-46.5609
-36.7865
-36.4063
-36.1692
-37.0641
-66.7346
-66.8516
-72.33
-60.9447
-16.8982
-8.17075
-3.7353
-18.2485
-47.2356
-49.4056
-48.3124
-46.61
-46.6261
-45.6257
-44.1748
-48.1007
-36.4717
-37.6918
-37.0946
-37.3391
-34.7324
-35.0103
-34.979
-34.8893
-44.3087
-51.1657
-47.2827
-47.3677
-39.9987
-39.7433
-38.9507
-41.0996
-41.5775
-45.765
-43.5066
-43.5067
-36.4961
-35.7062
-36.0484
-36.0454
-39.1061
-39.9559
-38.603
-40.5249
-40.5744
-45.9181
-44.5803
-43.8152
-35.9234
-35.4064
-35.6177
-35.6176
-36.0967
-35.2611
-35.1229
-35.1237
-47.6199
-44.2426
-45.6204
-44.249
-70.2971
-82.1724
-78.4963
-75.4694
7.43049
15.5675
14.7687
14.7681
-73.8958
-85.0728
-80.394
-80.3976
-75.8523
-79.9704
-77.505
-77.5052
-58.9677
-52.4676
-55.8125
-55.8124
-36.4691
-37.6885
-37.0894
-37.3351
-34.7203
-35.007
-34.972
-34.8892
-44.2822
-51.1861
-47.351
-47.2408
-39.9966
-39.7396
-38.9482
-41.0963
-39.1002
-39.9483
-40.5181
-38.5952
-40.6216
-45.9081
-44.6166
-43.8382
-47.6083
-44.2351
-44.2391
-45.608
-70.297
-82.1607
-75.4646
-78.463
-110.582
-106.539
-108.068
-89.9125
-47.751
-43.393
-50.815
-47.4718
-50.3203
-47.9154
-51.2024
-47.8692
-102.095
-98.4257
-108.807
-92.372
-110.504
-106.538
-108.054
-89.9068
-101.597
-98.3479
-108.623
-92.39
-50.3187
-47.9074
-51.1713
-47.8767
-47.7336
-43.3769
-50.8167
-47.4313
-85.115
-76.6685
-77.5943
-70.5104
-85.0891
-76.6309
-77.5854
-70.4902
-43.0786
-41.4816
-45.4947
-43.4231
-43.0873
-41.4828
-45.5015
-43.4249
-40.456
-39.2188
-35.8265
-31.9008
0.0943143
-1.3525
7.69596
10.5269
0.0914906
-1.36761
7.71634
10.6532
-40.416
-39.2155
-35.8239
-31.8644
163.275
134.141
172.412
187.457
127.266
113.116
172.627
158.309
113.521
127.214
158.562
172.681
134.863
163.01
190.879
172.417
-36.5047
-37.1696
-37.0689
-37.6395
-35.9806
-36.2852
-37.0461
-37.2865
-44.0243
-46.1472
-42.936
-44.8083
-46.1343
-47.8757
-44.1827
-46.8797
-36.502
-37.1676
-37.0661
-37.637
-46.1338
-47.8727
-44.1797
-46.8767
-44.0234
-46.1428
-42.9289
-44.7967
-35.9783
-36.2811
-37.0418
-37.2807
-35.5671
-36.0808
-35.3423
-35.8356
-36.0629
-35.5386
-35.8248
-35.3281
-35.5808
-34.8829
-35.405
-35.0379
-34.8847
-35.5797
-35.0378
-35.4049
-81.3194
-73.4547
-79.9098
-79.6365
-63.897
-69.7591
-71.679
-74.0666
-69.7554
-63.9053
-74.0666
-71.6715
-73.2572
-81.3588
-79.6452
-79.9102
-43.8382
-43.8597
-43.8057
-44.3138
-43.2434
-44.3274
-44.8958
-47.243
-43.8426
-43.5285
-43.8908
-44.4766
-46.2473
-43.4954
-47.3926
-44.732
-43.8388
-43.8905
-43.804
-44.3168
-46.2576
-43.604
-47.3934
-44.7579
-43.8272
-43.5175
-43.8653
-44.4586
-43.2356
-44.1904
-44.8378
-47.1937
-35.5826
-36.3638
-35.5363
-35.2242
-35.5898
-36.369
-35.5423
-35.2269
-38.1782
-39.0626
-38.1874
-38.4326
-38.3985
-38.8759
-38.0255
-38.3612
-56.9498
-59.3417
-53.1722
-55.8371
-39.2284
-40.379
-40.0189
-41.2217
-39.227
-40.3775
-40.018
-41.2188
-56.9439
-59.3427
-53.1686
-56.0161
-32.4521
-31.3147
-31.0536
-28.786
-31.3032
-32.4277
-28.7814
-31.044
-33.0427
-33.3072
-32.199
-33.0164
-33.3136
-33.043
-33.0186
-32.1993
-95.67
-9.21443
-113.365
-103.117
-92.2106
-97.5216
-45.3139
-36.2789
-40.5022
-36.6128
-45.1258
-40.6097
-34.9933
34.2225
-29.699
9.41487
-54.9592
-51.6584
-41.7745
-34.7229
-37.1623
-34.8592
-41.7203
-39.0945
-113.163
-104.539
-95.7907
-9.71184
-92.1997
-97.462
-40.5166
-36.8053
-45.2995
-36.2677
-45.0686
-40.3467
-29.8757
9.29766
-35.1336
34.1825
-55.121
-51.5096
-37.1599
-34.8536
-42.0404
-34.7121
-41.7504
-39.0708
-33.123
-39.2847
-35.7257
-35.9905
-39.8717
-36.6872
-37.597
-36.8272
-40.6386
-35.9442
-34.0365
-35.3195
-33.4407
-27.2643
-36.0484
-36.8662
-56.8059
-75.4005
-53.2701
-51.7086
-54.2728
-63.1667
-73.133
-84.1514
-49.264
-51.396
-48.2412
-47.699
-50.4479
-53.6142
-56.3948
-55.2871
-33.0684
-39.2816
-37.6017
-36.8109
-35.7191
-35.9763
-39.9268
-36.685
-40.6475
-35.9933
-36.0467
-36.8887
-34.0379
-35.3179
-33.4426
-27.2807
-56.8088
-75.3713
-73.3462
-84.0814
-53.2707
-51.7201
-54.2368
-63.1674
-49.2811
-51.4762
-56.3506
-55.4407
-48.2476
-47.735
-50.4484
-53.5872
-55.0016
47.6498
-41.8917
54.2698
-97.5981
-92.8317
114.104
110.589
-107.618
-217.823
-107.611
-217.868
-94.5479
-94.546
14.9928
14.8283
-72.9244
-64.0724
-54.5519
-47.4802
-67.0209
-59.161
-58.8143
-50.7092
-40.7807
-33.8483
-40.1536
-34.093
-42.1992
-42.6954
-33.3163
-33.7337
-36.9104
-30.3793
-36.9218
-30.3893
-36.9345
-37.1183
-26.9371
-26.9395
-46.7439
-38.7271
-39.6768
-36.5443
-44.8446
-45.8501
-36.6615
-37.6213
-36.7867
4.10484
-36.755
3.99719
-40.4155
-40.4216
86.3938
87.0946
-72.1828
-39.7479
-55.2484
-32.9875
-61.4713
-74.0278
-29.1834
-20.1081
-36.8832
-34.6278
-36.8826
-34.6607
-38.0803
-38.0801
-33.8211
-33.8315
-46.3556
-45.7709
-49.4589
-53.859
-46.6357
-47.9697
-50.2711
-45.8256
-55.1331
47.4597
-41.4949
54.2173
-97.5819
-93.0096
110.515
113.965
-72.9239
-64.0513
-54.5298
-47.4639
-67.0212
-59.1567
-58.785
-50.7012
-40.7621
-33.8343
-40.1388
-34.0907
-42.665
-42.1758
-33.304
-33.7244
-46.7417
-38.7708
-39.6816
-36.5539
-44.8435
-45.8628
-36.6737
-37.6559
-72.7117
-39.7925
-55.2631
-32.9912
-74.1195
-61.5173
-20.0981
-29.1838
-46.3597
-45.7611
-49.4218
-53.8216
-47.9735
-46.6406
-45.8239
-50.2713
-34.9386
-34.6859
-34.8067
-34.5391
-35.7699
-35.7382
-34.7333
-34.5201
-40.2089
-38.8686
-43.816
-43.0509
-42.0668
-43.5252
-39.2232
-41.3343
-38.1952
-37.6113
-38.1941
-37.6066
-39.9308
-39.9371
-37.0172
-37.0146
-36.055
-33.4049
-40.7716
-40.8315
-37.6024
-39.8349
-37.4199
-39.0434
-36.7493
-37.2138
-36.751
-37.2165
-36.3096
-36.3092
-36.7817
-36.7837
-52.1236
-58.5628
-52.6828
-58.9109
-49.951
-49.5746
-63.8383
-62.4306
-19.9304
-49.8808
-19.9306
-49.8816
-3.50688
-3.50624
-62.2732
-62.2745
-70.157
-65.2118
-70.1583
-65.21
-73.0876
-73.0878
-62.4645
-62.4634
-34.9346
-34.674
-34.808
-34.5374
-35.767
-35.7374
-34.7236
-34.5209
-40.2147
-38.8697
-43.8146
-43.0499
-43.5219
-42.0729
-39.2229
-41.3331
-36.0478
-33.4039
-40.7665
-40.8317
-39.8292
-37.5949
-37.4409
-39.0592
-52.1154
-58.5823
-52.659
-58.9108
-49.5631
-49.9249
-62.3962
-63.8058
-80.8081
-80.9965
-72.2599
-60.414
-60.5186
-72.8411
-55.9197
-55.8136
-80.8102
-81.0193
-72.2658
-60.4218
-72.87
-60.5317
-55.8307
-55.937
-64.8475
-64.7703
-59.66
-51.5207
-59.6576
-51.519
-48.4625
-48.463
-19.8679
-19.8688
-13.3291
1.56392
1.56054
-13.3291
10.1332
10.1517
189.643
196.679
193.509