# vtk DataFile Version 2.0
tet_velo
ASCII
DATASET UNSTRUCTURED_GRID
POINTS 29498 float
-0.755616 0.305 -1.975
-0.705 0.395 1.99385
-0.805 0.703267 -1.995
-0.575 1.165 2.00882
0.755625 0.305 -1.975
0.705 0.395 1.99385
0.805 0.703281 -1.995
0.575 1.165 2.00882
-0.799741 0.274003 -0.65205
-0.806389 0.280483 0.6709
-0.851739 0.980584 -0.660393
-0.782108 1.14153 0.674214
0.799136 0.274614 -0.65205
0.806395 0.28048 0.6709
0.851752 0.980606 -0.660393
0.782077 1.1415 0.674214
-1.55367 -0.122818 -3.03465
-1.56113 -0.0376663 -1.97162
-1.58114 -0.0583288 -0.648973
-1.55228 -0.0819499 0.67133
-1.46853 -0.0131849 1.99378
-1.4529 0.0581234 3.05584
-1.46935 0.127805 4.11969
-1.55912 0.167195 -3.04046
-1.56995 0.28598 -1.97616
-1.5971 0.303876 -0.651241
-1.54607 0.30701 0.672627
-1.4167 0.378988 1.99732
-1.42115 0.449139 3.05955
-1.45533 0.51696 4.12302
-1.58193 0.683056 -3.05535
-1.60958 0.79647 -1.99153
-1.63348 1.00257 -0.658667
-1.52978 1.12719 0.675023
-1.34257 1.17052 2.00766
-1.38419 1.23424 3.06941
-1.44668 1.3006 4.131
-1.59172 1.65003 -3.06892
-1.60529 1.79292 -2.00336
-1.61069 2.03611 -0.666713
-1.578 2.24438 0.672442
-1.52321 2.35871 2.00896
-1.50504 2.41886 3.07427
-1.51462 2.47643 4.13714
-0.762011 -0.11288 -3.0339
-0.762446 -0.0218047 -1.97052
-0.787464 -0.0715669 -0.64912
-0.794128 -0.101988 0.669856
-0.746201 -0.0109665 1.9912
-0.73837 0.0592883 3.05409
-0.75116 0.126549 4.11868
-0.762687 0.165818 -3.04023
-0.723522 0.452465 3.0581
-0.746193 0.51651 4.12225
-0.779811 0.643794 -3.05679
-0.693079 1.23345 3.06964
-0.744664 1.30005 4.13105
-0.791275 1.62057 -3.07035
-0.802917 1.76383 -2.00493
-0.819517 2.02622 -0.667659
-0.819484 2.25095 0.672556
-0.797501 2.36497 2.00977
-0.787231 2.42207 3.07508
-0.794532 2.47817 4.13773
0.797984 -0.112787 -3.0339
0.784299 -0.0216635 -1.97052
0.802232 -0.0711546 -0.64912
0.786826 -0.101903 0.669856
0.715771 -0.0109488 1.9912
0.688984 0.059314 3.05409
0.68147 0.126587 4.11868
0.79636 0.165872 -3.04023
0.662004 0.45248 3.0581
0.664075 0.516541 4.12225
0.811156 0.643833 -3.05679
0.615502 1.23347 3.06964
0.639455 1.30008 4.13105
0.811452 1.62064 -3.07035
0.807954 1.7639 -2.00493
0.780781 2.02628 -0.66766
0.71494 2.251 0.672556
0.650781 2.365 2.00977
0.636725 2.42211 3.07508
0.63756 2.47821 4.13773
1.58557 -0.122602 -3.03465
1.57645 -0.0373512 -1.97162
1.59421 -0.05775 -0.648973
1.56365 -0.0817247 0.67133
1.46831 -0.0131182 1.99378
1.42482 0.0581915 3.05584
1.41335 0.12789 4.11969
1.58453 0.167352 -3.04046
1.57035 0.28618 -1.97616
1.60023 0.304479 -0.651241
1.56376 0.307186 0.672627
1.4355 0.379021 1.99732
1.39111 0.449188 3.05955
1.39008 0.517032 4.12302
1.60379 0.683169 -3.05535
1.60786 0.796562 -1.99153
1.63215 1.0028 -0.658667
1.53896 1.12729 0.675022
1.35036 1.17054 2.00766
1.33536 1.23428 3.06941
1.35784 1.30066 4.131
1.6079 1.65017 -3.06892
1.6053 1.79306 -2.00336
1.57462 2.03625 -0.666713
1.49179 2.24448 0.672442
1.40097 2.35879 2.00896
1.37076 2.41894 3.07427
1.36772 2.47652 4.13714
-0.784698 0.504133 -1.98939
4.50015e-06 0.271789 -2.00821
-0.796316 0.270864 -1.31353
-0.69719 0.78 2.05853
0 0.355509 2.03334
-0.793439 0.299997 1.33238
0 0.852285 -2.14401
-0.863949 0.877504 -1.3277
0 1.22969 2.07351
-0.715185 1.1899 1.34152
0.784747 0.50414 -1.98943
0.798266 0.268921 -1.31353
0.697152 0.78 2.05849
0.793445 0.299993 1.33238
0.863953 0.877521 -1.3277
0.715188 1.1899 1.34152
-0.798625 0.281683 0.00942498
-0.864288 0.627293 -0.656222
-0.000302222 0.269953 -0.65205
-0.864762 0.711007 0.672557
2.9146e-06 0.256261 0.6709
-0.822129 1.06626 0.00691003
6.71715e-06 1.33577 -0.660393
-1.55522e-05 1.54597 0.674214
0.799535 0.280778 0.00942498
0.864334 0.62761 -0.656222
0.864825 0.710992 0.672557
0.822118 1.06626 0.00691003
-0.87993 0.565713 -1.32061
-0.871516 0.66915 0.00816751
-0.89611 0.745503 1.33695
-0.000148861 0.249832 -1.31353
-0.000149654 0.277336 0.00942498
1.4573e-06 0.282356 1.33238
2.25008e-06 0.504137 -2.22911
0 0.78 2.17681
3.35858e-06 1.08723 -1.3277
-4.41752e-06 1.5613 0.00691003
-7.77609e-06 1.4418 1.34152
0.880403 0.565875 -1.32061
0.871541 0.669301 0.00816751
0.896111 0.745496 1.33695
-1.16278 0.29549 -1.97558
-0.759031 0.141598 -1.97276
-0.759152 0.235409 -2.50761
-1.06085 0.386994 1.99559
-0.7256 0.192017 1.99253
-0.714261 0.423732 2.52598
-1.20729 0.749868 -1.99327
-0.792406 0.67353 -2.5259
-0.803959 1.23355 -1.99996
-0.958787 1.16776 2.00824
-0.63404 1.19923 2.53923
-0.686251 1.76498 2.0093
0.769962 0.141668 -1.97276
0.775992 0.235436 -2.50761
1.16299 0.29559 -1.97558
0.710385 0.192026 1.99253
0.683502 0.42374 2.52598
1.07025 0.38701 1.99559
0.808078 0.673557 -2.5259
0.806477 1.23359 -1.99996
1.20643 0.749921 -1.99327
0.595251 1.19923 2.53923
0.612891 1.765 2.0093
0.96268 1.16777 2.00824
-1.19842 0.288939 -0.651646
-0.793603 0.101218 -0.650585
-1.17623 0.293746 0.671763
-0.800259 0.0892478 0.670378
-1.24261 0.991578 -0.65953
-0.835628 1.5034 -0.664026
-1.15594 1.13436 0.674618
-0.800796 1.69624 0.673385
0.800684 0.101729 -0.650585
1.19968 0.289546 -0.651646
0.79661 0.0892884 0.670378
1.18508 0.293833 0.671763
0.816267 1.50345 -0.664026
1.24195 0.991704 -0.65953
0.748508 1.69625 0.673385
1.16052 1.13439 0.674618
-1.5574 -0.0802423 -2.50314
-1.5564 0.0221881 -3.03756
-1.15784 -0.117849 -3.03427
-1.57114 -0.0479975 -1.3103
-1.56554 0.124157 -1.97389
-1.16179 -0.0297355 -1.97107
-1.56671 -0.0701393 0.0111783
-1.58912 0.122773 -0.650107
-1.1843 -0.0649478 -0.649047
-1.51041 -0.0475674 1.33256
-1.54918 0.11253 0.671978
-1.17321 -0.0919687 0.670593
-1.46072 0.0224692 2.52481
-1.44261 0.182901 1.99555
-1.10736 -0.0120757 1.99249
-1.46112 0.0929644 3.58777
-1.43703 0.253631 3.05769
-1.09564 0.0587059 3.05497
-1.46234 0.322382 4.12136
-1.11025 0.127177 4.11919
-1.56453 0.226587 -2.50831
-1.57052 0.425125 -3.04791
-1.1609 0.166506 -3.04034
-1.58352 0.294928 -1.3137
-1.58976 0.541225 -1.98384
-1.57159 0.305443 0.0106928
-1.61529 0.653224 -0.654954
-1.48139 0.342999 1.33497
-1.53793 0.717099 0.673825
-1.41893 0.414063 2.52843
-1.37964 0.774755 2.00249
-1.43824 0.483049 3.59128
-1.40267 0.84169 3.06448
-1.07234 0.450802 3.05882
-1.451 0.908778 4.12701
-1.10076 0.516735 4.12264
-1.59576 0.739763 -2.52344
-1.58682 1.16654 -3.06214
-1.18087 0.663425 -3.05607
-1.62153 0.899521 -1.3251
-1.60744 1.29469 -1.99744
-1.58163 1.06488 0.00817785
-1.62208 1.51934 -0.66269
-1.43618 1.14885 1.34134
-1.55389 1.68578 0.673732
-1.36338 1.20238 2.53853
-1.43289 1.76461 2.00831
-1.41544 1.26742 3.6002
-1.44462 1.82655 3.07184
-1.03864 1.23385 3.06952
-1.48065 1.88852 4.13407
-1.09567 1.30032 4.13102
-1.59851 1.72147 -2.53614
-1.1915 1.6353 -3.06963
-1.60799 1.91451 -1.33503
-1.20411 1.77837 -2.00414
-1.59434 2.14024 0.00286488
-1.2151 2.03116 -0.667186
-1.5506 2.30154 1.3407
-1.19874 2.24766 0.672499
-1.51413 2.38878 2.54162
-1.16036 2.36184 2.00937
-1.50983 2.44765 3.60571
-1.14614 2.42047 3.07468
-1.15457 2.4773 4.13743
-0.762228 -0.0673423 -2.50221
-0.762349 0.0264688 -3.03706
0.0179865 -0.112834 -3.0339
-0.774955 -0.0466858 -1.30982
0.0109267 -0.0217341 -1.97052
-0.790796 -0.0867772 0.0103679
0.00738355 -0.0713607 -0.64912
-0.770164 -0.056477 1.33053
-0.00365101 -0.101945 0.669856
-0.742285 0.0241609 2.52265
-0.015215 -0.0109576 1.9912
-0.744765 0.0929187 3.58639
-0.730946 0.255877 3.0561
-0.0246929 0.0593012 3.05409
-0.748676 0.321529 4.12047
-0.034845 0.126568 4.11868
-0.771249 0.404806 -3.04851
0.0168364 0.165845 -3.04023
-0.734857 0.484487 3.59018
-0.708301 0.84296 3.06387
-0.0307591 0.452473 3.0581
-0.745428 0.908281 4.12665
-0.041059 0.516525 4.12225
-0.785543 1.13218 -3.06357
0.0156725 0.643814 -3.05679
-0.718871 1.26675 3.60034
-0.740155 1.82776 3.07236
-0.0387889 1.23346 3.06964
-0.769598 1.88911 4.13439
-0.0526042 1.30007 4.13105
-0.797096 1.6922 -2.53764
0.0100889 1.62061 -3.07035
-0.811217 1.89503 -1.33629
0.0025185 1.76386 -2.00493
-0.8195 2.13859 0.00244831
-0.0193681 2.02625 -0.667659
-0.808493 2.30796 1.34117
-0.0522723 2.25098 0.672556
-0.792366 2.39352 2.54243
-0.0733601 2.36498 2.00977
-0.790881 2.45012 3.60641
-0.0752527 2.42209 3.07508
-0.0784858 2.47819 4.13773
0.791141 -0.0672253 -2.50221
0.797172 0.0265424 -3.03706
1.19178 -0.117694 -3.03427
0.793265 -0.0464091 -1.30982
1.18038 -0.0295073 -1.97107
0.794529 -0.086529 0.0103679
1.19822 -0.0644523 -0.649047
0.751298 -0.0564261 1.33053
1.17524 -0.091814 0.670593
0.702377 0.0241826 2.52265
1.09204 -0.0120335 1.99249
0.685227 0.0929506 3.58639
0.675494 0.255897 3.0561
1.0569 0.0587528 3.05497
0.672772 0.321564 4.12047
1.04741 0.127239 4.11919
0.803758 0.404852 -3.04851
1.19045 0.166612 -3.04034
0.663039 0.484511 3.59018
0.638753 0.842974 3.06387
1.02656 0.450834 3.05882
0.651765 0.90831 4.12665
1.02708 0.516786 4.12264
0.811304 1.13224 -3.06357
1.20747 0.663501 -3.05607
0.627478 1.26677 3.60034
0.626113 1.82779 3.07236
0.975432 1.23387 3.06952
0.638508 1.88915 4.13439
0.99865 1.30037 4.13102
0.809703 1.69227 -2.53764
1.20968 1.63541 -3.06963
0.794367 1.89509 -1.33629
1.20663 1.77848 -2.00414
0.74786 2.13864 0.00244823
1.1777 2.03127 -0.667186
0.68286 2.308 1.34117
1.10336 2.24774 0.672499
0.643753 2.39356 2.54243
1.02588 2.36189 2.00937
0.637143 2.45016 3.60641
1.00374 2.42052 3.07468
1.00264 2.47737 4.13743
1.58101 -0.0799764 -2.50314
1.58505 0.0223753 -3.03756
1.58533 -0.0475506 -1.3103
1.5734 0.124414 -1.97389
1.57893 -0.0697374 0.0111782
1.59722 0.123365 -0.650107
1.51598 -0.0474214 1.33256
1.56371 0.112731 0.671978
1.44657 0.0225366 2.52481
1.4519 0.182951 1.99555
1.41909 0.0930409 3.58777
1.40797 0.25369 3.05769
1.40171 0.322461 4.12136
1.57744 0.226766 -2.50831
1.59416 0.425261 -3.0479
1.58529 0.29533 -1.3137
1.5891 0.541371 -1.98384
1.582 0.305833 0.0106927
1.61619 0.653641 -0.654954
1.49963 0.343103 1.33497
1.55136 0.717236 0.673824
1.4133 0.414104 2.52843
1.39293 0.774782 2.00249
1.39059 0.48311 3.59128
1.36324 0.841734 3.06448
1.37396 0.908847 4.12701
1.60582 0.739866 -2.52344
1.60584 1.16667 -3.06214
1.62001 0.899682 -1.3251
1.60658 1.29481 -1.99744
1.58555 1.06504 0.00817777
1.60338 1.51952 -0.66269
[...]
POINT_DATA 29498
VECTORS point_vectors float
-1.2661 -2.44297 4.55507
0.0225555 0.0669206 0.19513
-4.42195 1.31181 5.44667
-0.00571156 0.0177443 0.0174718
1.2739 -2.43737 4.59312
-0.0205435 0.0638047 0.186135
4.4247 1.322 5.46113
0.00459136 0.019751 0.0172477
0.0290444 -0.0149514 0.835207
-0.0241423 -0.0367993 0.54909
-0.0356167 -0.0209059 0.300806
0 0 0
-0.0328138 -0.0147738 0.818592
0.0236443 -0.0368721 0.551976
0.0349567 -0.0206814 0.298119
0 0 0
-0.667971 -0.336153 19.9017
-1.26775 -0.73724 20.6366
-0.440107 -0.409011 21.4036
0.0195702 -0.0853409 21.5284
0.550829 0.300117 21.5001
0.851128 0.462451 21.3116
0.842941 0.41317 20.4756
-0.766664 -0.262452 19.8028
-1.68382 -0.608874 20.5969
-0.568883 -0.472536 21.4909
-0.00646859 -0.197915 21.646
0.874006 0.179035 21.5951
1.22217 0.292414 21.1636
1.11148 0.26858 20.489
-0.830396 -0.037259 19.7014
-1.88794 -0.0177434 20.4254
-1.12396 -0.289291 21.4429
-0.282038 -0.276181 21.8129
0.757421 -0.511685 21.6231
1.00696 -0.536842 21.2749
0.89734 -0.517126 20.6066
-0.583117 0.307776 19.8721
-1.02483 0.564021 20.3365
-0.890873 0.42172 21.1512
-0.276127 0.0165696 21.5811
0.143307 -0.245025 21.3743
0.301425 -0.389903 21.0914
0.268367 -0.333112 20.7618
-0.697378 -0.811028 19.2731
-1.96964 -3.45547 21.2573
-0.247731 -0.250627 21.5798
7.33029e-05 0.0487769 21.4343
0.254254 1.09136 20.0275
0.479962 1.45446 18.8186
0.634922 1.27043 17.9255
-0.873797 -0.69063 18.8844
0.498126 1.75491 8.26181
1.83724 1.63117 13.1385
-1.05026 -0.0525854 18.5662
1.34678 -0.37642 10.2981
1.56437 -0.909581 17.6729
-0.569993 0.683917 19.3706
-1.24347 1.71086 19.9675
-1.35158 1.57594 21.2372
-0.346438 0.246992 21.9736
0.0965883 -0.41227 21.5613
0.194421 -0.556202 21.1705
0.328308 -0.581347 20.6822
0.708334 -0.773639 19.297
2.00244 -3.386 21.2215
0.249139 -0.256394 21.6644
0.00554386 0.0527736 21.3966
-0.209515 1.06292 19.7128
-0.329348 1.37186 18.6719
-0.490913 1.38548 17.6487
0.889876 -0.671424 18.917
-0.222545 1.38763 6.3405
-1.87692 1.75052 10.8369
1.04701 -0.0451531 18.6167
-1.12697 -0.243359 8.04877
-1.72532 -0.800532 14.8505
0.576908 0.674262 19.3874
1.24494 1.7043 19.9704
1.33284 1.66932 21.2307
0.330332 0.299424 22.0374
-0.081619 -0.434338 21.5948
-0.183138 -0.553218 21.1114
-0.307289 -0.517237 20.5512
0.660607 -0.326621 19.911
1.25955 -0.733837 20.6365
0.437771 -0.414208 21.391
-0.010849 -0.0945229 21.5164
-0.540253 0.2975 21.502
-0.858946 0.503235 21.3073
-0.822037 0.440107 20.7078
0.758437 -0.257324 19.8244
1.6938 -0.611491 20.5992
0.565625 -0.472528 21.4945
0.00841594 -0.198999 21.6421
-0.849152 0.162843 21.5923
-1.26076 0.315275 21.1689
-1.20376 0.417332 20.4764
0.820845 -0.0357768 19.7319
1.89297 -0.0146524 20.4333
1.12384 -0.292053 21.4529
0.275884 -0.271763 21.8121
-0.747128 -0.50387 21.6222
-1.03812 -0.599392 21.2629
-1.15646 -0.504465 20.2685
0.578544 0.308697 19.8791
1.02452 0.565981 20.3372
0.919799 0.447705 21.1518
0.289643 0.026398 21.6176
-0.14832 -0.290928 21.4292
-0.295606 -0.4372 20.9823
-0.244942 -0.401928 20.9066
-0.771218 -0.164358 0.912958
-2.76864e-05 -0.07373 0.410161
-0.010686 -0.00800746 0.690897
-0.00798992 0.0211357 0.00311165
-0.000959656 0.00323605 0.0319638
-0.00503019 0.00928871 0.262919
0.00218827 2.74164 1.75317
-0.102892 -0.108282 0.530415
-0.00162083 0.00999284 -0.0284295
0 0 0
0.605635 -0.12618 0.734385
0.015089 -0.00594351 0.699177
0.00795001 0.0218079 0.00284144
0.00381412 0.00895016 0.263862
0.103678 -0.10911 0.533364
0 0 0
0.00164663 0.00358642 0.58186
-0.000430128 1.82736e-05 0.0602135
0 0 0
-0.00405554 0.0130998 0.0385525
-1.88394e-06 -9.10617e-05 0.00164481
0 0 0
-1.09566e-05 0.0266332 0.052337
4.80231e-06 -0.00103967 0.0125617
-0.00271514 0.00693854 0.323427
0.000428995 0.000110088 0.0609439
0.00422509 0.0136923 0.0402465
0 0 0
0 0 0
-0.000179945 0.00385024 0.0214476
1.26614e-05 0.000235308 0.00145277
3.90345e-05 -4.66467e-05 0.00287549
0 0 0
-7.38166e-06 0.000363449 0.00628617
0.000412035 -0.40426 0.319269
0 0 0
8.85971e-06 6.33165e-05 0.000458654
2.24383e-06 0.010185 0.0977916
-2.96224e-05 -0.00226693 0.0101416
0 0 0
0.00018606 0.0040381 0.0223759
-1.26107e-05 0.000237764 0.00145245
-3.31283 -1.66919 20.7541
-3.11778 -5.71718 22.0674
-2.39507 -2.14276 17.7458
1.26058 0.926089 17.2034
-0.168928 1.36441 11.8583
-0.393101 1.21843 5.10766
-3.83591 0.141233 20.292
-3.0106 0.159064 16.8702
-3.15721 3.08443 19.5338
1.3202 0.0620579 14.8006
0.547927 0.219069 4.6157
0.34929 -0.847001 20.7882
3.18071 -5.57985 21.8865
2.40727 -2.08072 17.8115
3.3814 -1.71564 20.7396
0.237603 1.31518 11.458
0.693462 1.14141 4.23572
-1.26338 0.882909 17.4736
3.00315 0.158499 16.9738
3.15499 3.06971 19.5364
3.85009 0.154229 20.2854
-0.44197 0.276873 3.65905
-0.336886 -0.861497 20.4763
-1.32363 0.0601547 14.9877
-0.353178 -0.737905 21.6963
0.131136 0.0773853 17.0557
0.0406915 -0.190815 20.5979
0.189936 -0.0426317 16.8792
-1.85136 -0.86992 21.7936
-3.59977 1.92738 21.3877
-0.435571 -0.343993 20.8863
-0.603785 0.118598 22.2697
-0.113141 0.0909154 17.1818
0.341762 -0.730403 21.6818
-0.187579 -0.031883 16.8022
-0.0554574 -0.201184 20.743
3.67598 2.06082 21.3653
1.84996 -0.874516 21.7869
0.576253 0.149427 22.1111
0.443586 -0.363324 20.9989
-1.03054 -0.569421 20.0977
-0.734038 -0.31993 19.8544
-0.746098 -0.557817 19.6215
-0.868929 -0.601233 21.2488
-1.46672 -0.698847 20.6309
-1.81865 -1.61356 20.7834
-0.173543 -0.244722 21.4966
-0.499037 -0.426523 21.4484
-0.303714 -0.457903 21.6295
0.248034 0.0941927 21.6268
0.0144291 -0.142929 21.5744
0.0650731 -0.0641354 21.6935
0.713608 0.393006 21.3907
0.702295 0.27203 21.5549
0.639594 0.720321 21.4357
0.911127 0.333911 21.1598
1.0115 0.384892 21.2408
0.966857 0.846058 21.2705
0.90287 0.277823 20.655
0.765412 0.665134 21.8503
-1.29786 -0.450049 19.9587
-0.82327 -0.161072 19.7158
-0.895016 -0.483882 19.4318
-1.12338 -0.568245 21.3489
-1.82585 -0.34638 20.5147
-0.245276 -0.352974 21.5642
-0.83403 -0.480364 21.4852
0.372982 -0.0199243 21.7915
-0.109595 -0.266898 21.7815
1.02823 0.221054 21.3964
1.02128 -0.186801 21.4982
1.29025 0.248365 21.2598
1.2973 -0.179621 21.1912
1.7961 0.87339 18.3626
1.0082 -0.27688 20.6771
1.62913 1.08627 20.5406
-1.41439 -0.0134945 19.8324
-0.757859 0.200012 19.7546
-1.02869 -0.0478678 19.2452
-1.53797 -0.145484 21.1414
-1.48108 0.465969 20.3471
-0.732936 -0.332416 21.7086
-1.20167 0.193382 21.3117
0.250098 -0.318651 21.9158
-0.374394 -0.0804322 21.7424
0.876023 -0.554372 21.486
0.322835 -0.409544 21.5194
0.946043 -0.528702 21.3027
0.547136 -0.506763 21.2452
1.34569 -0.647561 20.0551
0.553047 -0.560397 20.6894
1.29737 -0.631295 20.0515
-0.828812 0.455322 20.0524
-0.648542 0.494148 19.6504
-1.01798 0.535136 20.7731
-1.24554 1.0502 20.194
-0.6178 0.246448 21.4755
-1.20154 0.829699 21.2362
-0.000952817 -0.170557 21.5591
-0.343511 0.124134 21.7788
0.24645 -0.333492 21.3249
0.151007 -0.349421 21.5014
0.26932 -0.298611 21.0454
0.254441 -0.530681 21.161
0.342701 -0.581371 20.8504
-1.44747 -2.01242 19.1201
-0.783964 -0.763185 19.0751
0.0185167 -1.1274 18.863
-0.780891 -1.10171 22.2044
0.0295235 -5.02274 21.9293
-0.0828439 -0.0267998 21.3067
0.00806277 -0.51339 20.1629
0.200122 0.526309 20.5612
-0.00134909 -0.177312 19.4907
0.23116 1.19853 19.0952
-0.0107954 0.48668 16.2679
0.825143 1.51082 17.7479
0.49661 1.86367 13.8076
-0.0844992 0.209227 13.3636
1.4156 1.44077 13.8616
0.124225 0.791983 11.9923
-1.01301 -0.4152 18.6527
0.0395726 -0.980083 18.2671
1.45649 1.51422 11.135
1.05588 0.872716 5.74485
-0.0348374 -1.77916 -5.56184
2.26571 0.313727 11.9134
0.183438 -2.63868 -4.38861
-0.862202 0.544653 18.8818
0.0301717 -0.0725913 17.7247
1.60602 -0.929742 13.3424
0.431695 -1.04541 21.3646
0.0751656 0.113186 0.492721
0.392194 -0.781396 20.2538
0.104519 -1.80912 5.42128
-0.957067 1.26854 19.4346
0.00772312 0.944542 19.0655
-1.35345 1.69438 20.575
0.00673251 2.72296 19.6517
-0.915046 0.974624 21.9328
-0.0623387 2.94573 21.0778
-0.0392375 -0.193638 21.8148
-0.0376679 0.469684 22.2614
0.159844 -0.522938 21.3921
0.00538166 -0.453714 21.6296
0.139099 -0.600766 20.8135
0.030118 -0.627747 21.3013
0.0137523 -0.661648 20.7219
1.46685 -1.93881 19.1499
0.796117 -0.74279 19.1028
0.746149 -0.540719 19.6473
0.781091 -1.08825 22.1782
1.80588 -1.56362 20.7716
0.0853664 -0.0265693 21.3257
0.316913 -0.454734 21.6155
-0.188187 0.525532 20.5107
-0.0629061 -0.0613676 21.6876
-0.156381 1.14399 18.8146
-0.62847 0.737976 21.4154
-0.764477 1.5463 17.3693
-0.225702 1.74665 12.6665
-0.992837 0.901234 21.0965
-1.38733 1.55578 12.3976
-0.862727 0.80597 21.7888
1.02082 -0.403658 18.7127
0.900928 -0.477074 19.4568
-1.31614 1.59343 9.30355
-0.75162 0.47224 4.06295
-1.84451 0.982381 17.9493
-2.39926 0.414252 9.34691
-1.71425 1.2352 20.1072
0.865072 0.536055 18.9157
1.02532 -0.0446077 19.2836
-1.45416 -0.903491 11.5762
-0.443531 -1.09824 21.0067
-1.43171 -0.599573 18.6843
-0.350596 -0.852607 20.4073
-1.31294 -0.694804 19.7899
0.960839 1.25248 19.4498
0.645693 0.484202 19.6622
1.3441 1.72438 20.5679
1.24401 1.04613 20.1974
0.909975 1.08319 21.9877
1.23098 0.884315 21.2424
0.0439773 -0.205004 21.8311
0.350565 0.14727 21.8127
-0.140984 -0.524661 21.3919
-0.138476 -0.371859 21.5168
-0.0779756 -0.592046 20.9544
-0.232387 -0.568333 21.2304
-0.362484 -0.652056 20.8242
1.01105 -0.552357 20.1106
0.722539 -0.307813 19.8708
0.874706 -0.603624 21.2356
1.46095 -0.696212 20.6329
0.173479 -0.251182 21.4971
0.498519 -0.425062 21.4409
-0.240322 0.0852759 21.6132
-0.00948172 -0.145341 21.5615
-0.70973 0.411943 21.3939
-0.687689 0.255783 21.5536
-0.94908 0.37997 21.0736
-1.02417 0.419216 21.2471
-0.878124 0.304436 20.9075
1.27754 -0.440417 19.9659
0.815345 -0.160537 19.7404
1.12403 -0.568372 21.3569
1.84015 -0.348649 20.5251
0.245017 -0.352127 21.5652
0.83074 -0.484798 21.4915
-0.358126 -0.0248685 21.7825
0.108429 -0.266848 21.774
-1.03302 0.223549 21.4006
-0.99387 -0.184506 21.5139
-1.369 0.355253 20.8738
-1.35736 -0.190931 21.1848
-1.20026 -0.252558 20.3498
1.40197 -0.0141438 19.853
0.753504 0.196259 19.7747
1.53955 -0.146294 21.1542
1.4853 0.46682 20.3498
0.729146 -0.330616 21.7091
1.22807 0.201054 21.3207
-0.245175 -0.31196 21.9053
0.380222 -0.079821 21.7769
-0.883846 -0.565884 21.4852
-0.327281 -0.440019 21.5426
-0.92269 -0.638469 21.4223
-0.507767 -0.584713 21.1638
-0.452598 -0.550885 20.9974
0.82523 0.45301 20.0588
1.03544 0.547934 20.7726
0.640197 0.251089 21.508
0.00669309 -0.172329 21.5886
-0.227757 -0.34679 21.3216
-0.264358 -0.399699 21.1126
-1.17326 -0.530101 20.0359
-1.87241 -2.22578 18.5102
-1.35919 -1.11459 19.7513
-1.94335 -1.01959 19.2789
-0.840133 -0.532378 19.5101
-2.44981 -1.77815 20.7936
-0.979235 -0.599895 21.2947
-0.527174 -0.570205 18.1286
-0.880923 -0.924938 21.6551
-1.29019 -1.08783 22.0414
-0.272051 -0.564008 21.7163
-0.203904 -0.294289 21.526
0.202383 0.142137 16.7185
-0.067689 -0.23026 21.6157
-0.00958355 -0.439141 21.1293
0.09722 -0.139964 21.476
0.310125 0.0496286 21.7096
0.305173 0.545533 14.76
0.338412 0.263422 21.6885
0.449239 0.251385 19.2929
0.987753 0.886369 20.1593
0.889127 0.344631 21.3578
0.0112769 1.39176 12.5954
0.771554 0.811166 21.222
1.33713 0.843276 18.0372
1.33743 1.03769 19.9174
1.08806 0.239208 21.3346
1.06822 1.55779 12.7307
1.11761 0.998996 21.2413
1.89942 1.00707 18.4169
1.2016 0.887647 21.1947
-1.40851 -0.25081 19.8685
-2.95265 -1.17245 16.8883
-2.27685 0.0236991 19.0001
-1.00827 -0.274937 19.2737
-4.03999 -0.844542 20.5151
-1.36439 -0.44345 21.2994
-2.32487 -0.495293 21.6921
-0.74316 -1.06229 21.4781
-0.457186 -0.417867 21.6522
-1.19159 -0.779811 21.6283
0.0473248 -0.168994 19.5104
0.383569 -0.185034 21.877
0.658186 0.222958 18.3698
1.37138 0.622048 13.6684
1.15508 -0.190197 21.3211
-0.0666774 1.06275 2.16941
1.21665 -0.317245 17.8004
1.70184 0.15965 17.9334
1.34287 -0.232431 21.0822
2.09242 0.391561 8.73055
1.48395 -0.630988 20.1567
1.89259 -0.146749 19.3254
-1.18084 0.376577 19.9022
-1.89703 1.53245 18.374
-0.999433 0.828973 19.7721
-0.900114 0.348745 19.3795
-2.32745 1.15306 20.1201
-1.40775 0.352968 20.9133
-2.91226 1.94784 20.7378
-1.2983 0.984006 20.7382
-2.03417 0.494429 21.4761
-0.841687 0.0513117 21.6413
-2.25276 0.837838 22.7283
-0.801176 0.508262 21.6707
-0.508721 -0.014088 22.0984
0.0580134 -0.244012 21.7319
0.168086 -0.547606 21.5274
-0.0323175 -0.184219 21.6862
0.353571 -0.62965 21.6859
0.464504 -0.447694 21.3512
0.360049 -0.942539 21.2615
0.216027 -0.40736 21.2655
0.614593 -0.759365 21.0618
0.585757 -0.469074 20.9985
0.616109 -1.0863 19.6981
0.229468 -0.475044 21.054
0.278337 -0.526768 21.461
1.88593 -2.1419 18.5757
0.0307988 -3.14044 18.4187
0.035261 -3.77601 15.8272
0.0401931 -1.11576 18.5555
0.0203012 -7.25596 23.6354
0.551747 -0.584615 18.2842
0.0156998 -1.6371 22.0871
0.000229074 -0.000549578 10.3855
-0.198139 0.146626 16.7435
0.000919172 -0.248594 19.3649
0.000235586 -0.148927 11.0461
-0.305182 0.527884 14.4596
-0.00339795 0.272733 17.6352
-0.0283965 0.310639 6.21408
0.17863 1.27326 11.7693
-0.0714909 0.16719 14.9466
-0.131051 -1.20228 -3.43638
-0.0489226 -1.29186 0.753849
-0.99258 1.60082 12.1624
-0.065563 0.822502 12.1213
-0.0401469 -1.03673 -5.04603
0.154107 -0.949849 3.67318
2.94438 -1.12767 17.0111
0.030894 0.782481 13.6179
0.0316989 -0.584931 17.856
0.234141 1.06093 1.6106
-0.00737135 0.234729 0.19005
0.0761224 -1.28381 -3.74331
-1.94978 0.378979 6.28802
0.178929 -1.26025 3.1622
0.201769 -2.3097 -2.49472
1.89946 1.51636 18.4171
0.0113704 1.92358 18.9824
0.0175278 0.789497 18.2611
0.0035582 5.71976 18.8556
2.91552 1.98204 20.7276
-0.0201141 2.6855 20.2817
-0.0542137 5.81097 19.7591
2.38108 0.903911 22.6576
-0.0546398 1.87066 22.3084
-0.0202714 0.409465 20.6376
-0.210088 -0.576936 21.1733
-0.00569538 -0.206179 21.9403
0.0112179 -0.770871 18.5507
-0.328423 -0.946878 20.872
0.0200348 -0.614278 21.5512
0.0315898 -1.14971 19.0557
-0.594943 -1.15079 19.6961
0.0298307 -0.810048 20.8803
0.130123 -1.3731 19.0586
1.13587 -0.513968 20.0578
1.3456 -1.0778 19.7786
1.92306 -0.993901 19.3142
0.836663 -0.513701 19.5456
2.44268 -1.75347 20.7838
0.980707 -0.598581 21.2878
0.891602 -0.916453 21.6386
1.29012 -1.0828 22.0644
0.277822 -0.555501 21.7073
0.202898 -0.292303 21.5271
0.0721483 -0.229182 21.6112
0.0100984 -0.437575 21.1411
-0.0977455 -0.135692 21.4578
-0.30079 0.0424351 21.7
-0.333525 0.268872 21.6687
-0.4514 0.235442 19.4541
-0.97835 0.889776 20.0988
-0.886818 0.348581 21.3529
-0.757955 0.843997 21.197
-1.31039 0.891903 17.6198
-1.38458 1.12596 19.5928
-1.14638 0.270058 21.1443
-1.16398 1.16738 21.0537
-1.95548 1.14809 18.0374
-1.29283 1.03267 20.9464
1.40573 -0.250343 19.8862
2.24931 0.0167709 19.0409
1.00634 -0.269107 19.3133
4.06068 -0.834408 20.5067
1.36843 -0.445989 21.3101
2.32497 -0.49459 21.6981
0.737686 -1.06918 21.4821
0.452967 -0.417273 21.6516
1.18705 -0.776292 21.6468
-0.0450779 -0.204239 19.7049
-0.372249 -0.181888 21.8879
-0.639695 0.193178 18.5207
-1.37521 0.639764 14.0545
-1.16751 -0.191665 21.312
-1.22417 -0.233979 16.6665
-1.68125 0.31214 16.5339
-1.42242 -0.237526 20.94
-1.60668 -0.676782 19.1541
-1.97454 0.0134766 18.7015
1.17293 0.371828 19.9194
0.997465 0.816352 19.7833
0.896786 0.33804 19.403
2.32394 1.15329 20.117
1.42387 0.35443 20.9195
1.30607 1.00941 20.7343
2.08678 0.522277 21.4817
0.865735 0.0573919 21.6566
0.831031 0.581636 21.7064
0.5165 -0.0068397 22.1401
-0.0653291 -0.24853 21.754
0.0366014 -0.196191 21.7246
-0.353061 -0.684679 21.695
-0.465599 -0.500579 21.3816
-0.218644 -0.463876 21.2474
-0.636686 -0.841124 21.1055
-0.650263 -0.525696 20.7137
-0.218554 -0.555748 20.9614
-0.297409 -0.614794 21.1912
-1.68488 -1.14451 19.5276
-1.04157 -1.02607 21.8225
0.00126229 -0.313016 21.5562
0.462727 0.254347 21.0905
1.05748 0.966874 19.7498
1.524 0.979515 19.7367
-2.2727 -0.557748 19.0155
-1.8201 -0.888955 22.2344
-0.208377 -0.802859 20.6058
0.529767 0.551476 17.6873
1.4727 0.414078 16.1356
1.98112 0.00288994 18.918
-1.65573 0.786481 19.3493
-2.14809 0.760135 20.9571
-1.33077 0.249053 22.021
0.0870105 -0.352119 21.9678
0.475244 -0.711449 21.4487
0.700193 -0.7771 21.1611
0.0434955 -3.75721 17.2693
0.00228323 -0.604848 12.0148
-0.000452786 0.00909492 10.2808
-0.0027814 0.270724 8.93887
-0.152309 -0.523599 3.28276
-0.0734677 -0.116711 3.43408
0.0290298 -1.88378 13.9945
-0.0044232 -0.522247 -2.73342
0.273238 -0.978483 -4.21091
0.0300454 2.78701 16.9257
-0.0187655 3.98802 20.0281
-0.0594957 3.07671 21.8092
-0.00237145 -0.511071 19.0479
0.0146057 -0.835715 19.0321
0.0579805 -1.2043 18.419
1.67517 -1.11039 19.5544
1.05001 -1.01644 21.8185
0.00504655 -0.310832 21.5525
-0.456367 0.252757 21.0706
-1.05287 1.01582 19.503
-1.56571 1.16185 19.5316
2.24898 -0.547031 19.0605
1.81625 -0.886748 22.2521
0.21624 -0.808943 20.6817
-0.532735 0.51002 17.9296
-1.42258 0.490132 15.1246
-2.10237 0.17368 17.7774
1.64818 0.773239 19.3616
2.16651 0.77806 20.9521
1.38916 0.266315 22.0642
-0.091661 -0.367511 22.0053
-0.463169 -0.764339 21.4689
-0.675814 -0.896949 21.2381
-2.72856 -0.943486 2.35679
-0.00172184 -0.184836 0.66569
-0.0991814 0.00593346 0.922093
-0.030432 0.00734405 -0.0254585
-0.0647314 0.0114581 0.0407874
-0.0338796 0.172803 0.72459
-2.18864 -0.0647087 2.39938
-1.10685 2.3166 1.64929
-0.368856 -0.165735 1.20735
-0.0143021 0.0126717 -0.0133373
0.00082185 0.0183312 -0.0234891
0 0 0
0.00493899 -0.187558 0.692897
1.70989 -0.616359 1.39598
0.0738246 -0.0195009 1.12044
0.0646322 0.0111088 0.0400632
0.0310541 0.00747069 -0.0261224
0.0800315 0.263422 1.34226
0.864804 1.81745 1.27245
2.0862 -0.0479494 2.25379
0.369174 -0.165432 1.20971
-0.00314048 0.019181 -0.0243128
0.0138003 0.0133581 -0.0132674
0 0 0
0.0368654 0.0628122 1.13658
0.012573 -8.60047e-05 0.659543
0.000123045 -0.000509812 0.0189066
0 0 0
0.000986948 0.00569547 0.0967555
-0.0035785 0.00689694 0.241814
-0.00147745 0.00182732 0.0101646
0.000191081 -0.000311038 0.00659435
-0.0866835 -0.131434 0.309751
-0.000402162 0.000545451 0.0150301
0 0 0
-0.0627851 0.0579621 0.130417
-2.73058e-17 -3.33147e-17 -1.38477e-16
-6.72364e-19 -1.75546e-17 -4.67508e-17
0 0 0
0.0342699 0.0029375 0.130961
-0.0349934 0.0622767 1.05758
0 0 0
-0.0119136 -1.16207e-05 0.65191
-0.0001341 -0.00049214 0.0207296
-0.00124514 0.00494276 0.0910871
-0.000188928 -0.000309539 0.006556
0.00412531 0.00811473 0.292121
0.00137775 0.0016856 0.00948876
0.0877451 -0.133541 0.312884
0.0697012 0.0499091 0.130017
0.00040077 0.000541382 0.0149699
0 0 0
0 0 0
-0.0346264 0.00298238 0.131934
0 0 0
0 0 0
0.00203297 -0.00500969 0.0817886
-0.0342729 -0.0315091 0.0262389
2.16899e-07 -3.12356e-06 9.4751e-05
-0.00068097 -1.0947 0.987573
0 0 0
0.00108781 -0.000166394 0.00879047
0.0329963 -0.00951955 0.120392
0 0 0
-3.31842e-05 0.000854334 0.0092987
-0.00206065 -0.025699 -0.0218914
0.000477544 0.0198494 0.171828
5.01696e-05 0.000554921 0.00954008
0.00346486 0.534324 0.25025
1.87809e-05 0.014057 0.0606725
-2.80311e-05 -0.000212186 0.00217953
0 0 0
0 0 0
-1.57895e-05 0.000423191 -0.00140993
0.00460262 0.00623418 0.0406548
0.000367159 -0.000786801 0.00334396
0.0265179 -0.0241821 0.0201228
0 0 0
-0.00151264 -0.000226461 0.0128983
0 0 0
0 0 0
-0.0320078 -0.00922365 0.116683
-5.74364e-05 0.000554171 0.00944376
-0.00045497 0.0198441 0.169284
0 0 0
2.99469e-05 -0.000234384 0.00230781
-0.000375457 -0.000766695 0.00326828
-0.00462628 0.00630221 0.0407798
-0.000849501 0.00594775 0.0460296
0.000260794 0.000132603 0.00452923
0.00178326 -0.00176399 0.0116702
-0.000402013 0.00670996 0.0562883
0.00021783 -0.000797784 0.110193
0 0 0
0.00296906 0.0314154 0.113239
-0.000340374 0.00581648 0.0380482
-1.46428e-05 -0.00076821 0.0605467
-2.96532e-05 0.00122732 0.0333166
0 0 0
-0.0550326 0.0862703 1.05035
0 0 0
-1.64902e-05 0.153012 0.448403
-4.60064e-06 -0.000124033 0.0276904
-4.97693e-06 -0.00109209 0.00777537
-0.000241264 0.000125438 0.004277
0.000894277 0.00640111 0.0498347
-0.00166474 -0.00175328 0.0107425
0.000422416 0.0070048 0.0574927
-0.002964 0.031386 0.113048
0.000332773 0.00571408 0.0370356
0.0551035 0.0864494 1.05183
0 0 0
1.25432e-17 9.82966e-18 -1.93137e-16
-0.00949012 -0.021337 0.246415
0.0280832 -0.0105347 0.198949
0.00438179 -0.0123861 0.0512165
-0.000947101 0.0040316 0.0556276
0 0 0
-5.67641e-05 0.00272279 0.0152117
0 0 0