# vtk DataFile Version 2.0
tri_press
ASCII
DATASET UNSTRUCTURED_GRID
POINTS 3682 float
-0.755616 0.305 -1.975
-0.705 0.395 1.99385
-0.805 0.703267 -1.995
-0.575 1.165 2.00882
0.755625 0.305 -1.975
0.705 0.395 1.99385
0.805 0.703281 -1.995
0.575 1.165 2.00882
-0.799741 0.274003 -0.65205
-0.806389 0.280483 0.6709
-0.851739 0.980584 -0.660393
-0.782108 1.14153 0.674214
0.799136 0.274614 -0.65205
0.806395 0.28048 0.6709
0.851752 0.980606 -0.660393
0.782077 1.1415 0.674214
-1.55367 -0.122818 -3.03465
-1.56113 -0.0376663 -1.97162
-1.58114 -0.0583288 -0.648973
-1.55228 -0.0819499 0.67133
-1.46853 -0.0131849 1.99378
-1.4529 0.0581234 3.05584
-1.46935 0.127805 4.11969
-1.55912 0.167195 -3.04046
-1.56995 0.28598 -1.97616
-1.5971 0.303876 -0.651241
-1.54607 0.30701 0.672627
-1.4167 0.378988 1.99732
-1.42115 0.449139 3.05955
-1.45533 0.51696 4.12302
-1.58193 0.683056 -3.05535
-1.60958 0.79647 -1.99153
-1.63348 1.00257 -0.658667
-1.52978 1.12719 0.675023
-1.34257 1.17052 2.00766
-1.38419 1.23424 3.06941
-1.44668 1.3006 4.131
-1.59172 1.65003 -3.06892
-1.60529 1.79292 -2.00336
-1.61069 2.03611 -0.666713
-1.578 2.24438 0.672442
-1.52321 2.35871 2.00896
-1.50504 2.41886 3.07427
-1.51462 2.47643 4.13714
-0.762011 -0.11288 -3.0339
-0.762446 -0.0218047 -1.97052
-0.787464 -0.0715669 -0.64912
-0.794128 -0.101988 0.669856
-0.746201 -0.0109665 1.9912
-0.73837 0.0592883 3.05409
-0.75116 0.126549 4.11868
-0.762687 0.165818 -3.04023
-0.723522 0.452465 3.0581
-0.746193 0.51651 4.12225
-0.779811 0.643794 -3.05679
-0.693079 1.23345 3.06964
-0.744664 1.30005 4.13105
-0.791275 1.62057 -3.07035
-0.802917 1.76383 -2.00493
-0.819517 2.02622 -0.667659
-0.819484 2.25095 0.672556
-0.797501 2.36497 2.00977
-0.787231 2.42207 3.07508
-0.794532 2.47817 4.13773
0.797984 -0.112787 -3.0339
0.784299 -0.0216635 -1.97052
0.802232 -0.0711546 -0.64912
0.786826 -0.101903 0.669856
0.715771 -0.0109488 1.9912
0.688984 0.059314 3.05409
0.68147 0.126587 4.11868
0.79636 0.165872 -3.04023
0.662004 0.45248 3.0581
0.664075 0.516541 4.12225
0.811156 0.643833 -3.05679
0.615502 1.23347 3.06964
0.639455 1.30008 4.13105
0.811452 1.62064 -3.07035
0.807954 1.7639 -2.00493
0.780781 2.02628 -0.66766
0.71494 2.251 0.672556
0.650781 2.365 2.00977
0.636725 2.42211 3.07508
0.63756 2.47821 4.13773
1.58557 -0.122602 -3.03465
1.57645 -0.0373512 -1.97162
1.59421 -0.05775 -0.648973
1.56365 -0.0817247 0.67133
1.46831 -0.0131182 1.99378
1.42482 0.0581915 3.05584
1.41335 0.12789 4.11969
1.58453 0.167352 -3.04046
1.57035 0.28618 -1.97616
1.60023 0.304479 -0.651241
1.56376 0.307186 0.672627
1.4355 0.379021 1.99732
1.39111 0.449188 3.05955
1.39008 0.517032 4.12302
1.60379 0.683169 -3.05535
1.60786 0.796562 -1.99153
1.63215 1.0028 -0.658667
1.53896 1.12729 0.675022
1.35036 1.17054 2.00766
1.33536 1.23428 3.06941
1.35784 1.30066 4.131
1.6079 1.65017 -3.06892
1.6053 1.79306 -2.00336
1.57462 2.03625 -0.666713
1.49179 2.24448 0.672442
1.40097 2.35879 2.00896
1.37076 2.41894 3.07427
1.36772 2.47652 4.13714
-0.784698 0.504133 -1.98939
4.50015e-06 0.271789 -2.00821
-0.796316 0.270864 -1.31353
-0.69719 0.78 2.05853
0 0.355509 2.03334
-0.793439 0.299997 1.33238
0 0.852285 -2.14401
-0.863949 0.877504 -1.3277
0 1.22969 2.07351
-0.715185 1.1899 1.34152
0.784747 0.50414 -1.98943
0.798266 0.268921 -1.31353
0.697152 0.78 2.05849
0.793445 0.299993 1.33238
0.863953 0.877521 -1.3277
0.715188 1.1899 1.34152
-0.798625 0.281683 0.00942498
-0.864288 0.627293 -0.656222
-0.000302222 0.269953 -0.65205
-0.864762 0.711007 0.672557
2.9146e-06 0.256261 0.6709
-0.822129 1.06626 0.00691003
6.71715e-06 1.33577 -0.660393
-1.55522e-05 1.54597 0.674214
0.799535 0.280778 0.00942498
0.864334 0.62761 -0.656222
0.864825 0.710992 0.672557
0.822118 1.06626 0.00691003
-0.87993 0.565713 -1.32061
0.880403 0.565875 -1.32061
-0.000148861 0.249832 -1.31353
3.35858e-06 1.08723 -1.3277
2.25008e-06 0.504137 -2.22911
-0.871516 0.66915 0.00816751
0.871541 0.669301 0.00816751
-0.000149654 0.277336 0.00942498
-4.41752e-06 1.5613 0.00691003
-0.89611 0.745503 1.33695
0.896111 0.745496 1.33695
1.4573e-06 0.282356 1.33238
-7.77609e-06 1.4418 1.34152
0 0.78 2.17681
-0.783346 0.404567 -1.99538
-0.377806 0.272002 -2.008
-0.788164 0.275734 -1.64426
-0.696817 0.5875 2.02191
-0.3525 0.360442 2.02841
-0.781875 0.314843 1.66311
-0.80213 0.6037 -1.99948
-0.4025 0.806529 -2.09826
-0.869041 0.824952 -1.66135
-0.635318 0.9725 2.0329
-0.2875 1.22184 2.06566
-0.662767 1.19512 1.67517
0.377815 0.272011 -2.00799
0.783305 0.40457 -1.99534
0.79019 0.273717 -1.64426
0.3525 0.360378 2.02847
0.696804 0.5875 2.0219
0.790101 0.306617 1.66311
0.4025 0.806695 -2.09842
0.802294 0.603711 -1.99964
0.869039 0.824963 -1.66135
0.2875 1.22185 2.06567
0.635333 0.9725 2.03291
0.66277 1.19513 1.67517
-0.810339 0.260123 -0.982788
-0.800753 0.276273 -0.321313
-0.832315 0.450498 -0.654136
-0.403306 0.26541 -0.65205
-0.799289 0.290865 1.00164
-0.800347 0.283243 0.340163
-0.861123 0.482971 0.671728
-0.4097 0.255358 0.6709
-0.847663 0.918863 -0.994045
-0.859171 0.804517 -0.658308
-0.839657 1.02615 -0.326742
-0.494318 1.29508 -0.660393
-0.754064 1.17113 1.00787
-0.849591 0.939346 0.673385
-0.801898 1.10368 0.340562
-0.480718 1.52306 0.674214
0.810243 0.260225 -0.982788
0.402848 0.265422 -0.65205
0.800725 0.276306 -0.321313
0.832421 0.450769 -0.654136
0.799121 0.291035 1.00164
0.409709 0.25535 0.6709
0.800783 0.282811 0.340163
0.861095 0.482994 0.671728
0.847657 0.918868 -0.994045
0.494323 1.29508 -0.660393
0.859164 0.804669 -0.658308
0.839651 1.02615 -0.326742
0.754098 1.17117 1.00787
0.4807 1.52307 0.674214
0.849635 0.93934 0.673385
0.801904 1.10369 0.340562
-0.878322 0.534923 -1.655
-0.392348 0.504135 -2.18686
-7.21804e-05 0.257942 -1.66087
3.37511e-06 0.387963 -2.12644
-0.85777 0.418289 -1.31707
-0.398232 0.249828 -1.31353
-0.856635 0.762752 1.69774
-0.348595 0.78 2.1551
7.28651e-07 0.30724 1.68286
0 0.567755 2.23011
-0.895196 0.52275 1.33466
-0.396719 0.282365 1.33238
1.67929e-06 1.02671 -1.73585
1.12504e-06 0.678211 -2.1801
-0.88656 0.721609 -1.32415
-0.431973 1.06562 -1.3277
-3.88805e-06 1.32762 1.70751
0 1.00484 2.08944
-0.857152 0.9677 1.33923
-0.357596 1.41544 1.34152
0.87828 0.535008 -1.65502
0.392375 0.504139 -2.1868
0.867611 0.417398 -1.31707
0.399059 0.249746 -1.31353
0.856531 0.762748 1.69772
0.348576 0.78 2.15517
0.895155 0.522744 1.33466
0.396723 0.282256 1.33238
0.886559 0.721698 -1.32415
0.431978 1.0656 -1.3277
0.857149 0.967699 1.33923
0.35759 1.41546 1.34152
-0.838108 0.473898 0.00879624
-0.403461 0.271362 0.00942498
-0.869334 0.596503 -0.988416
-0.868937 0.648222 -0.324027
-0.000225542 0.242464 -0.982788
-0.000225938 0.270175 -0.321313
-0.86504 0.690078 0.340362
-0.89609 0.728255 1.00475
-7.33696e-05 0.273919 0.340163
2.18595e-06 0.262025 1.00164
-0.865526 0.877058 0.00753877
-0.519853 1.53136 0.00691003
5.03787e-06 1.14112 -0.994045
1.14982e-06 1.50126 -0.326742
-9.98485e-06 1.56576 0.340562
-1.16641e-05 1.50569 1.00787
0.838144 0.473736 0.00879624
0.403531 0.271381 0.00942498
0.869329 0.596743 -0.988416
0.868968 0.648456 -0.324027
0.865032 0.690147 0.340362
0.896091 0.728244 1.00475
0.865537 0.877134 0.00753877
0.519849 1.53136 0.00691003
-0.848564 0.411428 -1.64963
-0.865655 0.434468 -0.985602
-0.863851 0.762774 -0.991231
-0.886606 0.662655 -1.65817
0.861329 0.410984 -1.64964
0.886605 0.662704 -1.65819
0.86388 0.762903 -0.991231
0.866477 0.434255 -0.985602
-0.388019 0.257757 -1.65257
0.388437 0.257638 -1.65257
0.399238 0.242462 -0.982788
-0.399127 0.242465 -0.982788
-0.417236 1.01105 -1.6986
-0.428919 1.10412 -0.994045
0.428929 1.10353 -0.994045
0.417239 1.01106 -1.6986
-0.385077 0.396265 -2.16463
-0.397424 0.640956 -2.18748
0.397437 0.640961 -2.18734
0.385095 0.396267 -2.16472
-0.835683 0.461962 -0.32267
-0.832984 0.48675 0.340262
-0.855901 0.907374 0.340462
-0.86409 0.841658 -0.325384
0.835774 0.462007 -0.32267
0.864089 0.84177 -0.325384
0.855907 0.907397 0.340462
0.833031 0.486659 0.340262
-0.404706 0.265741 -0.321313
0.404513 0.265755 -0.321313
0.40242 0.271766 0.340163
-0.402387 0.271747 0.340163
-0.527342 1.45373 -0.326742
-0.506112 1.53886 0.340562
0.506105 1.53888 0.340562
0.52732 1.45369 -0.326742
-0.895302 0.509248 1.00319
-0.87653 0.555125 1.68042
-0.804855 0.9701 1.68645
-0.863917 0.946984 1.00631
0.895302 0.50924 1.00319
0.863963 0.946973 1.00631
0.804867 0.970099 1.68644
0.876533 0.555122 1.68041
-0.399956 0.262118 1.00164
0.399961 0.261904 1.00164
0.374612 0.306282 1.67299
-0.374609 0.306283 1.67299
-0.374329 1.4929 1.00787
-0.322548 1.31888 1.69134
0.322545 1.31888 1.69134
0.37431 1.49297 1.00787
-0.350548 0.577627 2.2065
0.350538 0.577627 2.20708
0.318038 0.988671 2.12622
-0.318048 0.988671 2.12561
-0.771831 0.354783 -1.98754
-0.566711 0.272827 -2.00717
-0.783291 0.278966 -1.80963
-0.713102 0.49125 2.02007
-0.52875 0.365172 2.02368
-0.763299 0.33506 1.82848
-0.805304 0.653484 -1.99898
-0.60375 0.749342 -2.04107
-0.840347 0.767436 -1.82817
-0.602949 1.06875 2.01865
-0.43125 1.20977 2.05359
-0.628514 1.18969 1.84199
0.56672 0.272823 -2.00718
0.771825 0.354785 -1.98753
0.786532 0.275734 -1.80963
0.52875 0.365177 2.02367
0.71291 0.49125 2.01988
0.763051 0.335308 1.82848
0.60375 0.749339 -2.04106
0.805304 0.653496 -1.99898
0.840335 0.767437 -1.82817
0.43125 1.20974 2.05356
0.602963 1.06875 2.01866
0.628407 1.18959 1.84199
-0.793952 0.278151 -0.817419
-0.800359 0.275026 -0.486681
-0.84319 0.348669 -0.653093
-0.60572 0.261313 -0.65205
-0.825719 0.262794 0.836269
-0.79395 0.291281 0.505531
-0.857989 0.369611 0.671314
-0.61413 0.25575 0.6709
-0.854684 0.954707 -0.827219
-0.855129 0.892387 -0.659351
-0.846449 1.00412 -0.493568
-0.714678 1.22113 -0.660393
-0.767564 1.15581 0.841039
-0.852636 1.05883 0.673799
-0.793221 1.12382 0.507388
-0.65472 1.37891 0.674214
0.793936 0.278173 -0.817419
0.603088 0.265826 -0.65205
0.799987 0.275403 -0.486681
0.843263 0.348949 -0.653093
0.82545 0.263065 0.836269
0.614141 0.255736 0.6709
0.793961 0.291273 0.505531
0.857997 0.369611 0.671314
0.854691 0.954723 -0.827219
0.714677 1.22112 -0.660393
0.855133 0.892475 -0.659351
[...]
POINT_DATA 3682
SCALARS point_scalars float 1
LOOKUP_TABLE default
-137.912
-40.4056
-47.3039
-38.2043
-142.486
-40.1336
-47.7134
-38.0934
-38.5793
-32.0803
-55.3396
-54.4945
-38.486
-32.3599
-55.3853
-54.494
-65.4972
-136.358
-39.0351
-40.325
-51.3551
-40.9509
-34.149
-84.067
-149.077
-38.6987
-38.0572
-52.9763
-34.7286
-34.4163
-13.1208
-109.662
-55.1454
-50.8953
-44.3746
-35.7
-35.1222
-14.5917
-71.6981
-92.0982
-63.9139
-46.5572
-37.7664
-37.4981
67.0577
-138.272
-40.5222
-37.3169
-43.1226
-33.6136
-31.8495
84.749
-33.7116
-32.9657
152.692
-35.5818
-34.8574
73.7841
-59.4487
-79.0763
-70.2855
-44.2691
-37.0485
-36.2371
-0.580792
-134.042
-40.1328
-37.7306
-42.6749
-33.223
-31.6024
84.8852
-32.7405
-30.7285
152.9
-35.5042
-34.0834
53.0048
-60.8413
-76.7829
-70.628
-43.4321
-36.8575
-36.1997
-92.692
-121.157
-38.76
-39.6283
-52.7768
-40.6794
-33.9852
-28.9445
-138.416
-38.4591
-38.0147
-52.9806
-34.5193
-34.3632
-13.5291
-110.512
-55.1672
-50.8911
-44.2324
-35.547
-35.0109
-14.9047
-71.9064
-93.1598
-65.117
-46.48
-37.5197
-37.4151
-46.1322
-175.648
-54.3105
-36.5422
-31.4166
-41.9825
97.5779
-59.6812
-36.7707
-52.4832
-52.8308
-54.604
-36.3872
-41.7899
-59.8455
-52.4087
-34.2249
-41.5785
-44.2277
-37.977
-39.081
-57.1356
7.0746
-72.377
-35.4299
-41.4609
-37.927
-57.0736
-58.9717
-58.9191
-65.2408
-10.8976
177.766
-42.6056
-42.5631
-36.377
-104.327
-50.4947
-50.3486
-41.3575
-50.3232
-31.7918
-30.7999
-168.154
-78.5014
-36.4565
-34.4996
-48.388
-28.4136
81.854
-86.8358
-36.7429
-36.5473
-46.3122
-167.253
-30.2034
-79.8294
-34.3346
-36.2744
-49.5497
90.1739
-28.3859
-87.0534
-36.5109
-36.6191
-46.2587
-52.5245
-36.911
-39.7865
-42.8795
-41.6782
-33.2177
-32.4068
-39.0365
-48.3566
-46.3572
-60.0539
-7.84883
-54.6195
-45.2509
-55.6435
-68.5036
-52.494
-42.7957
-36.5237
-39.537
-41.4955
-38.9769
-33.1087
-32.3835
-48.5065
-7.17114
-46.3338
-59.9946
-54.5578
-68.483
-45.2206
-55.6222
-90.0202
169.834
-88.0505
112.91
-57.2335
-62.544
-51.285
-34.7744
-38.237
-24.2396
-47.7425
-41.8134
-44.0589
195.577
-59.4102
-19.9355
-41.6319
-33.2822
-54.1363
-50.611
-90.2691
170.366
-57.6126
-62.6492
-51.1163
-34.6311
-47.533
-41.7815
-59.6587
-19.9622
-54.0087
-50.5902
-38.8214
-36.1383
-49.8547
-42.4048
-54.2885
-38.8857
-40.6307
-47.5033
-34.9313
-43.0627
-48.3518
-91.533
16.0432
-86.0122
-86.8154
-60.7356
-38.7815
-36.1581
-49.9369
-42.3063
-40.5945
-47.3822
-48.2868
-91.5024
-86.1774
-51.9728
-49.3961
-92.2523
-87.1544
-92.4918
-49.5002
-52.0356
-84.3254
-84.3437
-53.305
-53.2634
-47.0006
4.33504
4.34942
-47.0881
114.829
187.267
186.781
112.697
-39.0993
-36.0994
-46.3538
-48.6617
-38.9188
-48.6085
-46.3289
-36.0491
-38.1202
-38.0878
-34.0547
-34.0662
-82.6589
-76.9595
-76.9362
-82.6853
-46.2877
-54.4078
-49.0688
-50.16
-46.0885
-50.0376
-48.918
-54.4055
-43.2455
-43.2099
-40.0352
-40.1175
-60.7137
-42.2516
-42.2229
-60.6972
-32.1038
-31.8516
-34.5518
-34.6417
-105.807
-168.435
-118.052
-37.5521
-38.37
-49.2659
-42.2679
60.9196
-75.191
-37.1227
-36.8835
-41.8948
-168.096
-109.641
-114.501
-38.1682
-37.4195
-48.7909
60.9863
-42.7469
-75.3232
-36.811
-37.0041
-41.7929
-43.4075
-37.6951
-38.8542
-41.7094
-53.2679
-32.5848
-29.1542
-39.5136
-53.9932
-50.3342
-58.0531
-69.668
-54.3296
-51.121
-54.3264
-61.3889
-43.319
-41.3479
-37.2807
-38.5916
-52.0208
-39.4771
-32.703
-29.3405
-54.0675
-69.7655
-50.3423
-58.0452
-54.2965
-61.3565
-51.1199
-54.3374
-44.3139
-39.7966
-133.779
129.892
-174.991
-175.01
-113.049
35.5944
-63.399
-49.8237
-56.0504
-58.8546
-36.3609
-36.5732
-42.9104
-34.8962
-32.295
-32.1921
-35.2265
-25.7577
-44.9758
-42.5069
-45.9845
-41.7583
122.357
122.562
-63.5953
168.84
-71.9436
-51.302
-61.3151
-33.6824
-36.6329
-36.6528
-38.7105
-33.3365
-49.4747
-54.5817
-53.0343
-52.0088
-40.768
-37.1321
-132.125
129.109
-63.9286
-50.4375
-56.3544
-59.0806
-36.1887
-36.4382
-42.7253
-34.7843
-43.841
-42.4334
-45.7692
-41.8152
-72.2153
-51.1775
-61.516
-33.7589
-49.3946
-54.5335
-52.8276
-51.9751
-37.2683
-34.4295
-37.3387
-35.8925
-40.2236
-43.5334
-42.2675
-42.2001
-43.9324
-43.9105
-49.1936
-40.8038
-35.0773
-41.7367
-38.6815
-42.0815
-39.0223
-38.9918
-35.2828
-43.2462
-58.8725
-56.9505
-50.4524
-70.3993
4.46405
4.51472
25.3675
-27.4601
-71.6699
-71.6589
-79.259
-66.3369
-36.2063
-34.3068
-37.3856
-36.0021
-40.0349
-43.4701
-42.2171
-42.0742
-35.023
-41.6948
-38.6434
-41.9602
-58.7903
-56.9344
-50.299
-70.3655
-69.5645
-58.194
-58.8518
-52.8175
-71.0062
-58.332
-59.2396
-53.5609
-74.274
-64.6638
-64.7024
-58.727
-28.9694
-12.9887
-12.9862
2.63768
176.254
103.635
198.704
176.215
-40.3641
-42.7827
-42.3456
-45.5245
-40.315
-42.7167
-42.2928
-45.4791
-36.277
-37.5773
-35.1376
-36.2785
-102.205
-107.668
-95.2183
-102.182
-54.3306
-49.1599
-52.8928
-48.7746
-54.1784
-48.9872
-52.7633
-48.6367
-39.9763
-41.5002
-41.4794
-42.381
-45.3426
-50.4474
-50.4367
-55.1358
-32.8776
-27.079
-33.1571
-32.714
-126.804
128.448
-109.906
29.9179
-82.3783
-80.2857
-44.4978
-34.1713
-37.7335
-31.6074
-54.742
-42.6776
-120.455
131.101
-65.006
129.086
-99.101
-56.6354
-43.0264
-35.3998
-38.9838
-34.6577
-48.6202
-43.4167
-109.815
30.988
-128.435
128.792
-84.1761
-80.5198
-37.6343
-31.4021
-44.2368
-34.0287
-55.25
-42.7652
-65.0291
129.018
-119.42
131.439
-99.4779
-56.7374
-38.9504
-34.5695
-42.8707
-35.3133
-48.4944
-43.3727
-52.7027
-51.9871
-37.9941
-37.3585
-42.5977
-39.28
-48.0021
-40.0291
-45.4585
-42.5142
-34.8463
-33.3952
-32.98
-42.3325
-35.3576
-43.79
-50.7132
-16.4561
-44.9059
-47.9521
-52.8522
-84.0209
11.4021
-41.971
-52.6922
-60.5089
-45.1331
-46.5762
-50.7384
-63.7897
-72.6809
-64.8065
-52.8201
-52.0571
-48.0074
-39.9542
-37.7698
-37.3106
-42.3323
-39.0388
-45.2663
-42.609
-35.3338
-43.6704
-34.6285
-33.3865
-32.9676
-42.0871
-50.8543
-16.4996
11.4517
-42.0122
-44.9368
-47.8992
-52.8036
-83.99
-52.3873
-60.4702
-72.6619
-64.7879
-45.1051
-46.56
-50.7334
-63.7449
-88.0423
-91.0768
142.443
185.184
-87.1246
-87.1324
124.523
124.168
-67.2185
-51.7792
-71.046
-56.7158
-53.5942
-49.5193
-32.9393
-34.3095
-38.7149
-38.7623
-27.2033
-26.9185
-46.4776
-51.1045
-42.5534
-41.0766
-45.9959
-46.0108
178.747
182.439
-53.4347
-70.5911
-33.937
-6.94156
-41.8325
-41.8222
-33.8155
-33.8909
-52.4445
-52.4785
-55.496
-46.1226
-89.2745
-90.9976
184.51
143.791
-67.669
-52.6038
-71.0568
-56.7739
-49.3612
-53.6353
-32.6971
-34.1724
-46.3007
-50.8273
-42.549
-40.9676
-71.0935
-53.6634
-6.95042
-33.9911
-52.3917
-52.3336
-46.0994
-55.473
-39.0259
-38.2156
-37.3695
-34.6008
-50.8245
-49.3355
-40.392
-45.3205
-54.05
-54.0379
-38.736
-38.7364
-38.0677
-43.6279
-47.0466
-48.0996
-34.7129
-34.7204
-43.1497
-43.1331
-47.8189
-49.1492
-101.871
-82.4715
12.2889
12.2968
-82.1304
-82.9291
-84.8945
-84.887
-60.7019
-60.6943
-38.9302
-38.154
-37.3787
-34.6051
-49.4433
-50.8687
-40.2519
-45.2521
-43.5943
-38.0258
-46.8949
-47.9961
-49.1167
-47.7701
-82.4555
-101.819
-123.933
-65.1605
-68.6148
-136.544
-42.1311
-42.2187
-52.4977
-50.1909
-48.1608
-53.9116
-53.0869
-42.8098
-102.799
-129.197
-69.9748
-72.8886
-120.826
-132.849
-69.5199
-66.1558
-102.098
-73.2577
-70.8398
-128.183
-48.2212
-42.8134
-53.3214
-53.9778
-41.8775
-50.9353
-52.9521
-42.0694
-107.664
-112.53
-73.5194
-67.235
-107.579
-67.3477
-73.5525
-112.501
-46.6081
-48.8626
-58.3117
-54.2055
-46.4934
-54.0643
-58.2848
-48.8631
-71.2944
-45.4372
-29.7182
-86.0567
-38.687
20.2283
-0.198811
-23.3495
-38.604
-23.3694
-0.19943
20.3867
-71.4318
-87.0893
-29.7503
-45.5394
51.5594
124.368
116.749
24.4421
108.228
156.77
193.749
128.347
108.506
128.716
194.286
153.488
52.7647
25.0577
117.487
120.446
-38.1971
-37.7396
-40.6534
-40.3499
-31.9535
-35.4493
-40.0505
-36.7242
-49.8684
-52.0806
-45.0982
-42.1703
-52.0897
-44.7769
-45.7659
-53.3507
-37.9015
-40.163
-40.5697
-37.621
-52.0637
-53.3375
-45.7151
-44.6955
-49.8636
-42.1342
-45.0433
-52.0897
-31.9791
-36.5961
-39.9915
-35.4161
-38.7285
-40.6768
-37.6236
-36.5853
-38.4385
-36.6554
-37.6209
-40.6215
-34.2535
-35.165
-35.0268
-34.1711
-34.2613
-34.1491
-35.013
-35.1818
-84.9668
-76.2832
-104.781
-28.8809
-61.9892
-77.907
-92.7396
-66.4717
-61.957
-66.4321
-92.7397
-77.9048
-84.903
-28.8567
-104.782
-76.2347
-47.8594
-44.9597
-47.6146
-42.065
-46.163
-43.4546
-52.6297
-48.8167
-42.9742
-50.5521
-54.8735
-42.696
-51.6117
-43.4475
-50.6212
-53.069
-46.6549
-41.9112
-47.4555
-44.7898
-51.7393
-53.0317
-50.5071
-43.3806
-42.8391
-42.5252
-54.7463
-50.476
-45.8662
-48.3829
-52.4162
-43.2563
-46.1472
-43.4259
-42.4563
-42.2263
-45.6639
-42.1627
-42.4521
-43.3882
-40.5082
-35.9133
-40.2328
-41.9649
-40.5451
-42.4021
-40.2718
-35.9773
-59.7697
-56.7525
-55.2504
-66.056
-39.8286
-38.802
-45.5365
-47.4708
-39.7769
-47.4321
-45.5261
-38.7865
-59.7409
-66.0498
-55.2447
-56.7194
-34.8249
-27.7007
-29.004
-34.3373
-34.6714
-34.2121
-28.7051
-27.5513
-35.4128
-33.262
-33.1807
-34.9153
-35.4993
-35.0161
-33.3063
-33.3146
-121.933
-159.461
-131.519
-38.6657
-39.5188
-44.1528
-38.5823
38.0328
-84.6308
-37.5671
-37.3671
-39.7879
-159.693
-127.096
-126.189
-39.0844
-38.4749
-43.8364
37.9486
-38.9675
-84.9562
-37.2813
-37.4464
-39.6948
-39.1234
-38.3683
-38.9592
-40.9816
-35.4822
-31.3711
-28.6887
-37.5791
-55.9314
-53.2935
-57.6721
-67.0272
-54.4043
-53.8094
-54.3204
-57.5229
-39.2221
-40.9456
-37.9135
-38.7269
-36.0443
-37.5697
-31.4915
-29.1042
-56.0762
-67.1553
-53.3128
-57.6737
-54.3895
-57.5062
-53.8185
-54.3314
-47.2844
-38.1983
-140.46
96.9937
-173.848
-173.863
-136.257
-7.61663
-58.7029
-51.0688
-55.0164
-56.4529
-36.39
-36.6678
-39.7526
-34.7999
-31.3567
-31.3541
-33.2361
-28.2603
-42.9018
-42.3766
-44.1669
-41.533
103.142
103.116
-50.8265
139.319
-65.559
-55.663
-61.803
-46.9373
-36.7629
-36.7987
-37.5618
-35.7129
-50.8198
-53.6659
-52.7089
-52.9536
-48.2923
-25.3326
-130.079
95.6549
-58.8154
-52.6463
-55.3579
-56.8014
-36.2262
-36.5259
-39.5628
-34.6776
-42.6866
-42.2512
-43.9196
-41.4264
-65.7642
-55.8753
-61.9806
-47.1132
-50.7549
-53.6051
-52.5409
-52.9083
-35.2821
-34.396
-36.0021
-35.6562
-40.8208
-42.4431
-41.3384
-41.9311
-44.1205
-44.111
-46.5775
-42.101
-36.3229
-39.8089
-38.2496
-39.2292
-38.9988
-38.9838
-37.1559
-41.752
-58.3524
-56.8797
-54.1746
-63.0612
6.75444
6.75885
18.3811
-9.36042
-72.2035
-72.1985
-75.8225
-69.356
-36.1745
-34.607
-36.3705
-35.8006
-40.6687
-42.3575
-41.2446
-41.8
-36.2697
-39.7636
-38.2036
-39.1773
-58.4383
-56.9283
-53.9684
-63.0163
-63.7291
-58.5584
-58.9039
-55.1838
-63.9682
-58.5772
-58.9825
-55.3946
-69.4566
-65.052
-65.0713
-61.7695
-19.7601
-11.4522
-11.4525
-4.61798
178.181
128.964
200.747
178.207
-41.4028
-42.6855
-42.6282
-44.0758
-41.3547
-42.6317
-42.573
-44.0329
-36.3438
-37.2613
-35.4723
-36.3437
-103.916
-107.479
-99.9007
-103.931
-51.808
-49.8081
-51.4706
-49.5431
-51.6592
-49.6496
-51.3342
-49.4036
-40.7688
-41.3801
-41.3696
-41.853
-47.6078
-50.2787
-50.2738
-52.7032
-32.0866
-29.9176
-31.4865
-31.9744
-75.0634
-48.0435
-163.02
69.1627
-160.77
-175.706
-134.817
-66.5768
-91.0844
-69.6959
-80.9932
-78.2871
-36.547
-36.4641
-40.1903
-34.5476
-36.3253
-33.1738
-36.3777
-32.1799
-47.2807
-48.7691
-53.3168
-44.6462
-37.5493
-33.763
-105.937
88.5251
75.0763
106.299
-34.8412
110.848
-82.0443
-80.1216
-98.159
-65.5143
-36.8921
-36.6257
-39.868
-35.5666
-36.6736
-36.5653
-37.7198
-35.6416
-43.5139
-47.9565
-47.3103
-44.7235
-159.695
-175.487
-134.542
-63.5788
-79.014
-31.0736
-147.056
86.7734
-94.248
-70.6896
-82.5394
-78.7668
-36.143
-33.0392
-36.241
-32.0462
-36.3452
-36.285
-40.0335
-34.3989
-48.7729
-46.3367
-54.3555
-45.0584
75.3004
108.023
-35.2602
112.459
-37.1172
-23.5798
-107.565
90.1698
-82.181
-80.3849
-98.4478
-65.3964
-36.6211
-36.5604
-37.6849
-35.5847
-36.7742
-36.4925
-39.7217
-35.4662
-43.4336
-47.9006
-47.2138
-44.6695
-50.2464
-47.8687
-53.2659
-51.256
-37.0883
-37.1833
-37.3901
-37.0271
-39.1423
-39.9461
-40.4988
-39.4871
-42.2809
-43.5849
-45.1746
-40.9862
-47.6149
-41.3441
-43.8132
-41.8751
-33.6272
-34.2069
-34.1788
-33.5904
-30.5949
-33.8576
-31.4444
-37.2419
-39.3546
-39.0033
-37.0133
-42.1895
-50.0792
-51.39
-50.8954
-34.7441
-48.1061
-44.8382
-45.1438
-47.3964
-59.4472
-59.7832
-56.2216
-68.6649
-28.9536
0.494561
5.89499
-21.9006
-54.191
-54.7874
-54.523
-56.9455
-47.4239
-43.6292
-44.8661
-45.731
-54.7566
-56.5312
-53.9895
-59.2597
-65.4181
-70.6993
-71.0036
-67.4276
-49.9627
-48.5607
-53.0887
-51.2803
-42.0393
-43.543
-45.1393
-40.8893
-36.833
-36.3385
-37.1137
-36.9228
-38.8929
-39.72
-40.2615
-39.2338
-47.2632
-41.2446
-43.6622
-41.7658
-39.2976
-38.9567
-36.974
-42.0908
-33.6949
-33.8987
-33.8899
-33.5944
-30.6243
-33.8074
-31.4398
-37.1463
-50.1381
-51.2357
-51.0551
-34.764
-28.8791
0.495592
5.93474
-21.8702
-48.0994
-44.7959
-45.1427
-47.3568
-59.3848
-59.7418
-56.1535
-68.6211
-54.1191
-54.7376
-54.3538
-56.9415
-65.3923
-70.6837
-70.9897
-67.4068
-47.4063
-43.5909
-44.8309
-45.6978
-54.7577
-56.5116
-53.9898
-59.1999
-108.739
-77.0022
-88.3983
-90.9337
136.325
170.711
155.362
179.26
-98.8546
-80.1991
-87.753
-87.7583
77.2567
115.081
123.996
124.269
-56.7068
-57.6983
-61.6117
-53.9079
-60.8614
-63.795
-66.4817
-59.4339
-46.7028
-55.6219
-52.6137
-50.1781
-35.1016
-33.943
-34.0511
-34.2518
-36.8942
-39.3002
-38.389
-38.4133
-24.1768
-25.3936
-25.123
-24.9533
-46.875
-48.506
-46.8983
-49.0447
-41.9821
-41.6427
-42.1074
-41.5233
-51.5652
-36.5055
-44.7962
-44.8016
184.785
201.843
189.912
190.732
-59.8132
-59.133
-55.7936
-64.3254
-25.104
-15.9309
-26.3812
-13.155
-40.0664
-43.3062
-41.6912
-41.6866
-32.5026
-33.4195
-33.4255
-33.4737
-53.6732
-54.1891
-53.7533
-53.514
-51.1489
-50.5619
-53.232
-48.1399
-110.077
-79.2306
-89.6692
-90.8502
135.464
170.916
178.908
156.443
-57.0441
-57.9617
-62.0308
-54.3947
-61.0603
-63.8617
-66.6188
-59.5026
-46.5155
-55.5065
-50.0191
-52.5081
-34.9845
-33.7703
-33.8565
-34.0963
-46.67
-48.3183
-46.716
-48.8045
-41.9544
-41.614
-42.098
-41.4609
-60.0426
-59.4286
-64.6675
-55.9569
-25.1391
-15.937
-13.1682
-26.4228
-53.4914
-54.066
-53.4279
-53.6312
-51.124
-50.545
-48.1189
-53.2102
-38.4628
-39.4132
-38.9925
-38.5536
-36.0261
-36.17
-37.3443
-34.8834
-45.4039
-52.6931
-50.3044
-49.5266
-42.3355
-42.5204
-41.3034
-43.8175
-52.3656
-56.1014
-54.2451
-54.24
-39.7366
-38.1942
-38.8619
-38.8546
-39.4866
-41.6007
-39.2934
-42.1572
-45.7728
-48.1249
-47.2676
-47.7798
-34.7436
-34.7937
-34.8492
-34.8535
-43.0992
-42.8302
-43.1026
-43.0941
-49.6536
-47.0103
-48.0434
-49.015
-80.9391
-97.7309
-94.3455
-86.8683
24.0826
9.64938
14.8377
14.8415
-50.4753
-102.125
-85.5498
-85.5685
-82.7852
-91.19
-86.3609
-86.3594
-63.2396
-58.0448
-60.7007
-60.6982
-38.4301
-39.3675
-38.9435
-38.5017
-36.0741
-36.176
-37.3674
-34.8946
-45.3982
-53.1107
-49.6301
-50.3278
-42.2214
-42.4396
-41.185
-43.7359
-39.4514
-41.5627
-42.121
-39.2549
-45.6465
-47.9945
-47.132
-47.6676
-49.6077
-46.962
-48.9849
-47.9598
-80.9177
-97.709
-86.8573
-94.3414
-104.168
-84.0878
-86.9211
-74.7441
-52.6095
-46.9124
-51.1862
-51.4104
-49.589
-46.3623
-52.032
-49.3241
-111.074
-94.1487
-91.2253
-78.7799
-107.067
-85.5701
-88.0765
-75.6773
-111.213
-94.6065
-91.2463
-79.6215
-49.7012
-46.4314
-52.25
-49.4263
-52.5309
-46.5924
-52.0195
-51.5174
-95.1356
-82.3265
-85.9106
-76.6984
-95.1736
-82.5076
-85.9249
-76.6699
-52.7325
-51.7425
-54.4262
-53.7451
-52.6685
-51.7102
-54.3774
-53.7216
-56.6117
-50.2718
-46.614
-41.1755
-2.20299
9.77233
-1.27907
8.91796
-2.16039
9.76693
-1.28518
8.9144
-56.7626
-50.3678
-46.6754
-41.2422
115.362
93.6905
130.688
118.608
156.254
162.234
187.992
189.281
162.173
156.467
188.323
187.346
90.1345
115.13
117.046
130.084
-38.7265
-39.1923
-39.0478
-39.5891
-36.0185
-34.5432
-37.4794
-36.8741
-45.7368
-47.6819
-45.1007
-47.1783
-48.4107
-50.5301
-46.9454
-48.8024
-38.5353
-38.9682
-38.9106
-39.425
-48.3531
-50.4818
-46.886
-48.757
-45.7094
-47.6631
-45.0712
-47.1496
-35.9633
-34.5183
-37.4234
-36.8308
-37.7377
-39.1994
-37.4461
-38.482
-39.1487
-37.7003
-38.4573
-37.4338
-34.1168
-33.7057
-34.5649
-34.4059
-33.713
-34.1361
-34.4091
-34.5747
-97.1799
-62.0997
-93.3414
-74.5979
-69.1139
-74.9977
-79.8434
-82.0107
-74.9782
-69.0731
-81.998
-79.8186
-62.1383
-97.2684
-74.4961
-93.2378
-46.2316
-45.1341
-46.3163
-46.7747
-50.554
-54.8594
-54.4307
-54.4658
-45.9891
-49.1
-49.1653
-50.7749
-50.7901
-47.9824
-51.4621
-48.8373
-46.0058
-44.9047
-46.1357
-46.5994
-50.6227
-47.9534
-51.3527
-48.7296
-45.8417
-48.956
-49.0073
-50.6408
-50.3558
-54.8742
-54.4122
-54.3742
-43.1135
-43.3959
-42.9661
-43.2205
-43.1076
-43.3219
-42.9535
-43.1943
-38.9757
-41.1969
-39.2834
-40.674
-39.06
-41.2394
-39.3513
-40.7735
-60.768
-62.9031
-57.9288
-60.6424
-40.5717
-42.7594
-42.0692
-44.0616
-40.5425
-42.7283
-42.0475
-44.0374
-60.748
-62.8796
-57.9093
-60.6317
-33.6306
-31.6934
-32.5348
-29.7347
-31.4495
-33.4518
-29.4194
-32.2883
-34.5382
-35.2099
-34.0202
-34.3281
-35.2942
-34.6245
-34.4471
-34.1093
-148.524
42.4565
-141.431
-74.1104
-123.168
-108.853
-39.9994
-35.9527
-39.8749
-35.864
-49.3504
-42.8728
-95.5258
79.8078
-25.7872
74.0582
-87.9619
-69.5214
-40.221
-35.863
-38.1465
-35.834
-42.8058
-40.6242
-140.802
-74.2369
-137.613
43.0273
-118.631
-108.953
-39.7333
-35.6699
-39.8292
-35.7782
-48.8605
-42.8386
-25.8039
74.0035
-96.6149
80.0741
-87.9966
-69.6824
-38.0906
-35.7484
-40.0867
-35.7625
-42.6949
-40.5594
-42.4515
-45.0353
-37.9191
-38.7388
-39.423
-38.6421
-43.6117
-40.4227
-50.6394
-51.0161
-31.2299
-32.6791
-32.0559
-35.1821
-36.1103
-44.6397
-51.6049
-55.4871
-48.8822
-51.3982
-54.748
-69.4101
-56.1024
-89.2706
-54.0684
-56.8434
-50.4981
-51.5595
-53.8387
-57.962
-61.5702
-60.2176
-42.273
-45.1454
-43.9928
-39.6419
-37.5691
-37.9031
-39.1995
-38.333
-49.9428
-50.49
-36.088
-44.6066
-31.3183
-32.7092
-32.1628
-35.3429
-51.6855
-55.3969
-55.985
-88.9275
-48.9164
-51.3889
-54.7444
-69.3625
-54.0608
-56.8154
-61.5446
-60.183
-50.4902
-51.5622
-53.8558
-57.9443
-161.443
71.9248
-124.654
77.4605
-136.349
-131.58
128.112
130.167
-137.219
-125.346
-137.158
-124.538
-112.858
-112.846
53.0427
52.9113
-64.2373
-65.1804
-49.546
-52.2534
-60.0726
-52.8776
-62.2899
-56.3583
-39.4981
-34.5218
-39.6131
-35.5157
-43.1244
-42.8678
-34.7491
-34.8225
-34.584
-29.4918
-34.4956
-29.3535
-35.4426
-35.4718
-26.3288
-26.2213
-47.5755
-43.0323
-43.3825
-42.1167
-45.2844
-46.766
-41.7045
-41.9319
-59.027
143.596
-58.9943
142.098
-73.2829
-73.2645
156.626
155.986
-74.5205
-58.6382
-53.8222
-39.6081
-57.0267
-65.8197
-39.6781
-27.8928
-37.6002
-35.766
-37.5841
-35.5408
-38.7718
-38.7644
-33.3678
-33.4348
-50.0457
-48.8768
-54.3198
-55.9772
-51.9086
-53.1587
-54.7391
-49.8821
-132.626
78.313
-125.721
80.3475
-133.58
-130.919
132.619
126.447
-64.7379
-65.4465
-50.2603
-52.5298
-60.497
-53.2613
-62.5612
-56.5271
-39.299
-34.396
-39.449
-35.4113
-42.6893
-42.9314
-34.6334
-34.714
-46.6388
-42.3457
-43.2385
-42.0977
-45.0901
-46.4957
-41.8315
-42.0148
-74.8417
-58.8009
-53.7888
-39.6278
-66.0958
-57.1483
-27.9532
-39.7737
-49.9796
-48.8166
-54.2871
-55.9264
-53.2042
-51.7885
-49.8513
-54.694
-37.3269
-36.2918
-35.8752
-34.2293
-37.4858
-37.096
-36.7489
-34.3348
-40.5504
-40.31
-42.749
-44.2873
-42.0067
-42.3783
-41.1755
-43.428
-46.1826
-41.8822
-46.1701
-41.8571
-49.0262
-49.0282
-40.7297
-40.7184
-34.1252
-38.4696
-41.9266
-41.9513
-37.0181
-40.5097
-42.2367
-42.0281
-37.1175
-41.7784
-37.0952
-41.737
-35.2598
-35.2684
-43.3182
-43.3006
-56.1373
-66.0175
-54.5217
-60.9117
-50.2744
-53.5583
-73.0194
-68.3964
14.8352
-10.2873
14.9465
-10.2492
23.9282
23.8948
-27.6412
-27.6402
-74.7987
-68.84
-74.7961
-68.8262
-78.9624
-78.9611
-66.3047
-66.301
-36.9999
-36.5048
-35.7676
-34.1306
-37.6463
-37.0232
-36.8827
-34.3851
-40.3719
-40.1152
-42.7099
-44.211
-42.364
-41.9136
-41.0205
-43.3276
-34.0898
-38.3912
-41.8853
-41.8981
-40.4719
-36.9816
-42.0921
-41.9402
-56.117
-65.9835
-54.3655
-60.8736
-53.7227
-49.9472
-68.3642
-72.9982
-69.1636
-69.7352
-62.8816
-54.6588
-55.487
-63.6989
-52.7154
-52.9382
-70.4231
-70.8909
-63.2485
-54.7227
-63.8442
-55.7335
-53.318
-53.2563
-74.012
-74.0296
-68.8079
-61.2558
-68.85
-61.2889
-58.691
-58.6174
-29.3545
-29.3736
-22.0763
-6.45321
-6.44454
-22.1198
1.71055
1.70525
136.691
198.569
117.882
117.859
197.082
196.572