# vtk DataFile Version 2.0
tri_press
ASCII
DATASET UNSTRUCTURED_GRID
POINTS 3682 float
-0.658536 0.315 -1.915
-0.755 0.555 1.98258
-0.724757 0.815 -1.975
-0.670291 0.995 1.985
0.658541 0.315 -1.915
0.755 0.555 1.98258
0.724757 0.815 -1.975
0.670296 0.995 1.985
-0.723477 0.362214 -0.615807
-0.822383 0.375462 0.683387
-0.752171 0.920569 -0.655
-0.732497 0.979051 0.665
0.723466 0.362228 -0.615807
0.822386 0.375461 0.683387
0.75222 0.920616 -0.655
0.732509 0.979059 0.665
-1.38578 -0.0155286 -2.94451
-1.39327 0.0402902 -1.89682
-1.45282 0.0804619 -0.598164
-1.5328 0.113678 0.696304
-1.5232 0.242466 1.99461
-1.51122 0.327297 3.04057
-1.51278 0.387603 4.08973
-1.38734 0.250739 -2.96703
-1.39399 0.313298 -1.91707
-1.45914 0.364079 -0.614363
-1.53876 0.38489 0.686469
-1.50055 0.505152 1.98877
-1.49686 0.587852 3.03503
-1.50665 0.648667 4.08351
-1.41665 0.772377 -3.01791
-1.44006 0.834358 -1.96881
-1.47655 0.921728 -0.651918
-1.48096 0.962113 0.666444
-1.43539 0.998456 1.98293
-1.46251 1.08001 3.02833
-1.49244 1.15475 4.07345
-1.45149 1.58693 -3.07858
-1.46594 1.65211 -2.02637
-1.48226 1.73556 -0.702731
-1.48507 1.79356 0.625388
-1.47918 1.83425 1.9488
-1.48462 1.88128 3.00057
-1.49863 1.94211 4.04796
-0.670673 -0.0142503 -2.94317
-0.669085 0.0427743 -1.89486
-0.709936 0.0795013 -0.598427
-0.784135 0.109157 0.693674
-0.777243 0.270496 1.99001
-0.770296 0.348003 3.03745
-0.773988 0.399464 4.08792
-0.669787 0.249628 -2.96661
-0.764084 0.608718 3.03246
-0.772285 0.659739 4.08215
-0.693711 0.764372 -3.02048
-0.737951 1.08442 3.02874
-0.764479 1.15926 4.07354
-0.722863 1.58271 -3.08113
-0.733834 1.64872 -2.02917
-0.747338 1.73697 -0.704421
-0.752586 1.7969 0.62559
-0.751175 1.83415 1.95025
-0.757022 1.88008 3.00201
-0.769223 1.9416 4.04901
0.719853 -0.0142423 -2.94317
0.702695 0.0427807 -1.89486
0.750262 0.0795131 -0.598427
0.799504 0.109159 0.693674
0.753011 0.270497 1.99001
0.726597 0.348006 3.03745
0.711207 0.399468 4.08792
0.714348 0.249634 -2.96661
0.713019 0.608719 3.03245
0.702312 0.659742 4.08214
0.730189 0.76438 -3.02048
0.684165 1.08442 3.02874
0.689006 1.15926 4.07354
0.730023 1.58272 -3.08113
0.72821 1.64874 -2.02917
0.724477 1.73699 -0.704421
0.71252 1.79691 0.62559
0.69788 1.83416 1.95025
0.691532 1.88009 3.00201
0.686754 1.9416 4.04901
1.42731 -0.0155084 -2.94451
1.41532 0.0403117 -1.89682
1.47615 0.0804874 -0.598164
1.54797 0.113689 0.696304
1.51646 0.242471 1.99461
1.47998 0.327303 3.04057
1.45846 0.387611 4.08972
1.41872 0.250758 -2.96703
1.39349 0.31332 -1.91707
1.45785 0.364111 -0.614363
1.5452 0.384899 0.686469
1.50548 0.505155 1.98877
1.46435 0.587856 3.03503
1.44712 0.648675 4.08351
1.43796 0.772399 -3.01791
1.43345 0.834386 -1.96881
1.46799 0.921782 -0.651918
1.48155 0.962133 0.666444
1.43763 0.998461 1.98293
1.42586 1.08002 3.02833
1.42655 1.15476 4.07345
1.45469 1.58696 -3.07858
1.45604 1.65214 -2.02637
1.45797 1.7356 -0.702732
1.44863 1.79359 0.625387
1.43142 1.83427 1.9488
1.4233 1.8813 3.00057
1.41934 1.94212 4.04796
-0.694432 0.565 -1.94779
2.5034e-06 0.313225 -1.91678
-0.71763 0.311984 -1.2654
-0.708666 0.775 1.97981
0 0.552579 1.985
-0.834199 0.419724 1.33298
0 0.827293 -1.98729
-0.755968 0.885289 -1.315
2.5034e-06 0.968105 1.9581
-0.716684 1.00232 1.325
0.694437 0.565 -1.94779
0.717669 0.311949 -1.2654
0.708652 0.775 1.97979
0.834209 0.419714 1.33298
0.755998 0.885318 -1.315
0.716687 1.00231 1.325
-0.740814 0.400954 0.03379
-0.783175 0.641392 -0.635403
-5.40252e-06 0.304189 -0.615807
-0.786203 0.677256 0.674193
1.18744e-06 0.311939 0.683387
-0.743334 0.95081 0.005
2.43814e-05 1.20025 -0.655
6.08776e-06 1.47986 0.665
0.740809 0.400961 0.03379
0.783152 0.641422 -0.635403
0.786214 0.67726 0.674193
0.743337 0.95081 0.005
-0.85762 0.603196 -1.2902
0.857663 0.603211 -1.2902
-1.44956e-06 0.297043 -1.2654
1.21907e-05 0.985222 -1.315
1.2517e-06 0.565 -1.95733
-0.784233 0.659324 0.019395
0.784236 0.659341 0.019395
-2.10754e-06 0.302891 0.03379
1.52346e-05 1.50452 0.005
-0.879156 0.726128 1.32899
0.879862 0.72613 1.32899
5.93722e-07 0.345642 1.33298
4.29558e-06 1.17369 1.325
1.2517e-06 0.775 1.96741
-0.662973 0.44 -1.91788
-0.329267 0.313251 -1.91675
-0.687424 0.314151 -1.5902
-0.711223 0.665 1.96059
-0.3775 0.552867 1.98471
-0.763279 0.518682 1.65778
-0.720047 0.69 -1.97184
-0.362379 0.825275 -1.98528
-0.752539 0.862321 -1.645
-0.658501 0.885 1.95143
-0.335144 0.981964 1.97196
-0.699937 1.00511 1.655
0.329272 0.312917 -1.91708
0.662401 0.44 -1.91731
0.687218 0.314361 -1.5902
0.3775 0.552873 1.98471
0.711223 0.665 1.96058
0.763272 0.51869 1.65778
0.362379 0.825234 -1.98523
0.719951 0.69 -1.97175
0.752556 0.862337 -1.645
0.335149 0.98186 1.97186
0.644705 0.885 1.93763
0.699937 1.0051 1.655
-0.763434 0.294218 -0.940605
-0.73354 0.38019 -0.291008
-0.762938 0.496997 -0.625605
-0.37528 0.306123 -0.615807
-0.832882 0.393002 1.00819
-0.747371 0.422436 0.358588
-0.827704 0.514654 0.67879
-0.399711 0.366661 0.683387
-0.755858 0.904718 -0.985
-0.784676 0.789482 -0.645202
-0.746862 0.934799 -0.325
-0.429067 1.16639 -0.655
-0.72387 0.989962 0.995
-0.77945 0.838203 0.669597
-0.737887 0.964902 0.335
-0.476114 1.44919 0.665
0.767166 0.29049 -0.940605
0.37556 0.30555 -0.615807
0.733538 0.380194 -0.291008
0.762946 0.497007 -0.625605
0.832875 0.39301 1.00819
0.386526 0.393035 0.683387
0.74737 0.422438 0.358588
0.827703 0.514659 0.67879
0.755857 0.904715 -0.985
0.429101 1.16639 -0.655
0.784675 0.789513 -0.645202
0.74686 0.934796 -0.325
0.723865 0.989954 0.995
0.476118 1.44918 0.665
0.779465 0.838212 0.669597
0.737893 0.964905 0.335
-0.847874 0.584098 -1.61899
-0.347216 0.565 -1.95393
5.26916e-07 0.304147 -1.59109
1.87755e-06 0.439112 -1.92817
-0.818948 0.45759 -1.2778
-0.358816 0.303901 -1.2654
-0.784994 0.750564 1.6544
-0.354332 0.775 1.9772
2.96861e-07 0.381704 1.65899
6.25849e-07 0.66379 1.96546
-0.873953 0.572926 1.33099
-0.417099 0.399993 1.33298
6.09535e-06 0.94239 -1.65115
6.25849e-07 0.696147 -1.97726
-0.875915 0.744242 -1.3026
-0.377978 0.976557 -1.315
3.39949e-06 1.05022 1.64155
1.87755e-06 0.871552 1.95765
-0.768327 0.864222 1.327
-0.35834 1.16188 1.325
0.847797 0.584106 -1.61899
0.347219 0.565 -1.95393
0.818952 0.45758 -1.2778
0.358834 0.303901 -1.2654
0.78499 0.750565 1.65439
0.354327 0.775 1.9772
0.873954 0.572922 1.33099
0.417105 0.400112 1.33298
0.875915 0.744264 -1.3026
0.378005 0.976557 -1.315
0.768348 0.864222 1.327
0.358346 1.1635 1.325
-0.767476 0.527663 0.0265925
-0.388812 0.315114 0.03379
-0.783212 0.622294 -0.962803
-0.782223 0.650358 -0.308004
-3.42604e-06 0.272185 -0.940605
-3.75503e-06 0.307163 -0.291008
-0.784317 0.66829 0.346794
-0.894604 0.701692 1.00159
-4.60047e-07 0.304843 0.358588
8.90584e-07 0.343992 1.00819
-0.78241 0.81438 0.0121975
-0.489031 1.46241 0.005
1.8286e-05 1.02283 -0.985
1.9808e-05 1.46385 -0.325
1.06612e-05 1.49674 0.335
5.19167e-06 1.36617 0.995
0.767483 0.527671 0.0265925
0.388894 0.314946 0.03379
0.7832 0.622317 -0.962803
0.782219 0.650382 -0.308004
0.784321 0.668301 0.346794
0.894604 0.701695 1.00159
0.782412 0.814389 0.0121975
0.489044 1.4624 0.005
-0.804416 0.448795 -1.6046
-0.809769 0.479696 -0.951704
-0.781805 0.762611 -0.973901
-0.863389 0.717121 -1.632
0.804356 0.44879 -1.6046
0.863146 0.717132 -1.632
0.781797 0.762642 -0.973901
0.805048 0.479703 -0.951704
-0.344041 0.309154 -1.59065
0.344053 0.309287 -1.59065
0.360282 0.296581 -0.940605
-0.360278 0.297125 -0.940605
-0.370178 0.937411 -1.64807
-0.377026 1.01265 -0.985
0.377063 1.01264 -0.985
0.370192 0.937411 -1.64807
-0.338241 0.439556 -1.92807
-0.354797 0.693073 -1.96211
0.354799 0.693073 -1.96211
0.338245 0.439556 -1.92807
-0.764653 0.512607 -0.299506
-0.768591 0.535658 0.352691
-0.78219 0.826922 0.340897
-0.783413 0.801866 -0.316502
0.764656 0.512618 -0.299506
0.783433 0.801896 -0.316502
0.782166 0.826914 0.340897
0.7686 0.535662 0.352691
-0.379185 0.316341 -0.291008
0.379492 0.315718 -0.291008
0.404891 0.319628 0.358588
-0.404892 0.319627 0.358588
-0.516807 1.42992 -0.325
-0.48639 1.46343 0.335
0.486385 1.4634 0.335
0.516848 1.42995 -0.325
-0.890564 0.549643 1.00489
-0.781451 0.618963 1.65609
-0.753004 0.874611 1.6547
-0.83604 0.846188 0.998296
0.890576 0.549642 1.00489
0.836031 0.846191 0.998296
0.753005 0.874611 1.6547
0.781389 0.618961 1.65609
-0.414145 0.39094 1.00819
0.414149 0.390749 1.00819
0.397302 0.414385 1.65839
-0.397299 0.41327 1.65839
-0.362293 1.35021 0.995
-0.346742 1.04387 1.64828
0.346748 1.04406 1.64828
0.362302 1.35019 0.995
-0.365916 0.664395 1.96558
0.365913 0.664395 1.96558
0.344738 0.878276 1.95509
-0.344738 0.878276 1.95504
-0.658478 0.3775 -1.91416
-0.493901 0.312902 -1.9171
-0.671778 0.315777 -1.7526
-0.735958 0.61 1.97443
-0.56625 0.553026 1.98455
-0.748979 0.547002 1.82018
-0.726118 0.7525 -1.97714
-0.543568 0.813682 -1.97368
-0.745414 0.845427 -1.81
-0.64741 0.94 1.95123
-0.502718 0.976338 1.96634
-0.677744 0.992683 1.82
0.493906 0.312905 -1.9171
0.658443 0.3775 -1.91412
0.671182 0.316378 -1.7526
0.56625 0.553027 1.98455
0.736006 0.61 1.97448
0.748921 0.54706 1.82018
0.543568 0.814007 -1.97401
0.726086 0.7525 -1.97711
0.745406 0.845418 -1.81
0.502723 0.976331 1.96633
0.647771 0.94 1.95158
0.676677 0.991612 1.82
-0.710303 0.361368 -0.778206
-0.729896 0.369814 -0.453408
-0.746701 0.427859 -0.620706
-0.569 0.294925 -0.615807
-0.821917 0.389948 0.845786
-0.757452 0.426374 0.520988
-0.824983 0.445088 0.681088
-0.645175 0.302805 0.683387
-0.754417 0.913046 -0.82
-0.769884 0.855756 -0.650101
-0.749327 0.927495 -0.49
-0.622779 1.1078 -0.655
-0.728428 0.984751 0.83
-0.759395 0.910338 0.667298
-0.735274 0.972058 0.5
-0.619202 1.24391 0.665
0.710995 0.36068 -0.778206
0.569062 0.294791 -0.615807
0.729939 0.369774 -0.453408
0.746695 0.427873 -0.620706
0.821874 0.389992 0.845786
0.646432 0.300295 0.683387
0.75746 0.426368 0.520988
0.824993 0.445086 0.681088
0.754428 0.913056 -0.82
0.622807 1.1078 -0.655
0.769871 0.855777 -0.650101
0.749314 0.92748 -0.49
0.728435 0.984755 0.83
0.61943 1.24435 0.665
0.759387 0.910336 0.667298
0.735281 0.972062 0.5
-0.716452 0.5025 -1.97058
[...]
POINT_DATA 3682
SCALARS point_scalars float 1
LOOKUP_TABLE default
-83.1522
-42.8964
-45.1282
-38.126
-84.1771
-42.7491
-47.8138
-37.8829
-36.8969
-37.9794
-56.6556
-41.3057
-36.9599
-37.9661
-56.5688
-41.4073
28.0002
-98.9006
-36.1598
-43.5422
-41.7131
-41.4643
-41.4643
28.0002
-98.9006
-37.5663
-35.4907
-41.7131
-41.4643
-41.4643
-76.9256
-77.1243
-47.2523
-34.2721
-42.1312
-39.7323
-40.1144
-70.8703
-76.0802
-118.437
-50.3469
-37.9259
-38.1066
-38.1066
-77.1225
-168.639
-38.3332
-52.1747
-43.633
-41.4643
-40.2628
134.194
-41.4643
-40.2055
131.424
-38.264
-37.36
41.6784
-99.1199
-78.2794
-54.3177
-37.9627
-38.1066
-38.1066
-77.9213
-154.967
-38.4713
-52.137
-43.6901
-40.243
-38.7568
111.435
-39.7107
-38.7568
127.479
-38.0424
-37.1293
44.0739
-100.019
-78.0902
-54.4685
-37.8636
-37.8636
-37.8636
26.2091
-100.831
-36.2169
-43.5529
-41.5823
-41.3133
-41.3133
26.2091
-100.831
-37.5981
-35.35
-41.5823
-41.3133
-41.3133
-71.4812
-76.3239
-47.2308
-34.5503
-41.9645
-39.3586
-39.9708
-66.0051
-77.8626
-117.757
-50.3697
-37.8336
-37.8636
-37.8636
3.57924
-195.607
-59.9077
-40.2869
-36.9089
-54.5366
49.6991
-50.5791
-30.1683
-42.6982
-1.64278
-59.8623
-40.1189
-54.4689
-50.4954
-42.6168
-32.3037
-39.4329
-47.1014
-21.0904
-42.9885
-49.5134
60.2342
-52.7003
-32.3693
-39.435
-21.2529
-49.468
-62.3328
-62.2156
-74.5779
-5.68723
197.633
-35.5569
-35.6714
-40.213
-99.7954
-56.3479
-56.3177
-41.8288
-34.4467
-33.8595
-4.20791
-172.639
-92.8278
-41.3119
-37.6834
-41.5167
13.7713
59.6853
-51.0288
-38.3235
-32.751
-37.7906
-172.283
-4.72176
-92.6628
-37.5843
-41.1554
-41.3594
61.2485
10.6527
-51.075
-32.4761
-37.7705
-37.574
-61.8436
-34.1199
-37.7138
-45.5831
-47.8107
-27.758
-19.7543
-44.4634
-44.9815
-45.0149
-57.0059
36.2754
-45.3571
-34.3116
-44.8533
-52.4914
-61.4085
-45.6226
-34.2374
-37.7409
-47.7658
-43.7968
-27.7518
-19.5815
-44.8817
35.7452
-44.9626
-56.9111
-45.4349
-52.5291
-34.5303
-44.8345
-103.586
203.264
-108.896
165.545
-61.2461
-71.6936
-40.304
-35.2743
-44.6099
-34.7555
-57.9389
-41.9858
-42.1746
199.707
-64.6304
-14.0646
-34.1841
-30.9802
-47.4178
-35.5115
-102.841
203.389
-61.1822
-71.7142
-40.1093
-35.1091
-57.9508
-41.9181
-64.491
-14.0929
-47.3105
-35.4785
-33.2506
-39.1801
-48.2262
-37.9571
-56.6272
-41.7784
-30.5483
-51.701
-40.8743
-40.0032
-42.0709
-81.4197
23.3675
-64.7373
-68.5421
-39.2135
-33.3543
-39.1593
-48.131
-38.0797
-30.6626
-51.5538
-42.0865
-81.3571
-98.9537
-52.4633
-46.9358
-74.2634
-98.6328
-74.7691
-46.7818
-52.4992
-104.708
-104.878
-54.896
-54.9951
-45.7653
10.8828
10.8384
-45.8243
148.915
196.647
196.836
148.953
-35.3307
-27.7864
-37.5045
-45.5241
-35.4879
-45.5156
-37.5983
-27.8263
-40.5603
-40.5628
-40.3034
-40.5431
-134.02
-61.8375
-61.7685
-134.25
-50.1055
-40.8453
-39.4864
-50.2287
-49.987
-50.2872
-39.3428
-40.6541
-39.9406
-39.9417
-43.7843
-43.8433
-40.6878
-34.5654
-34.4728
-40.7121
-36.201
-36.0895
-32.9258
-33.2001
-9.69713
-107.653
-128.092
-42.7433
-38.6055
-40.1984
2.35844
60.1009
-68.4793
-39.311
-35.0023
-36.0679
-107.655
-10.5937
-127.973
-38.4797
-42.5798
-40.0945
63.2907
0.441236
-68.8974
-34.7343
-39.0746
-35.9302
-41.8187
-35.1472
-37.0979
-42.4952
-46.2719
-23.7272
-23.0125
-53.1189
-49.5649
-49.9376
-58.967
-49.6518
-43.1853
-37.6321
-41.7152
-47.2087
-41.8703
-42.5379
-35.265
-37.134
-46.2466
-53.5925
-23.6595
-23.0347
-49.4566
-49.6839
-49.8711
-58.8406
-43.3032
-47.2637
-37.7914
-41.7727
14.1669
-11.1108
-72.3963
184.197
-192.933
-192.939
-142.053
113.682
-72.0193
-49.4875
-62.4355
-67.3247
-41.0693
-39.2416
-40.8476
-36.4664
-37.0924
-37.0366
-40.2768
-35.3513
-47.8671
-51.4225
-58.5912
-44.9213
57.1562
57.4626
-69.0798
190.807
-49.6299
-49.8258
-60.8878
-24.199
-31.213
-31.0856
-34.659
-30.0626
-38.9224
-45.6797
-44.8143
-37.0608
12.4327
-24.1466
-70.3047
184.933
-72.0926
-49.2203
-62.4028
-67.2992
-40.9186
-38.9258
-40.6828
-36.3062
-47.6257
-51.4024
-58.5887
-44.8362
-49.6016
-49.7739
-60.7355
-24.2295
-38.837
-45.6426
-44.7262
-37.0369
-33.8257
-30.7809
-32.5485
-36.1257
-38.4731
-41.5303
-41.8935
-38.6551
-46.7599
-46.8657
-52.0785
-43.8524
-17.8463
-27.0502
-27.0594
-36.1385
-43.0083
-43.1766
-41.8811
-40.0597
-53.2831
-46.4023
-45.5649
-63.176
57.7849
57.794
36.7485
27.2978
-53.21
-53.226
-59.9474
-45.4734
-33.923
-30.8086
-32.635
-36.1315
-38.4841
-41.5101
-41.7696
-38.7535
-17.8047
-27.2653
-27.1717
-35.8635
-53.2251
-46.3705
-45.5445
-63.1
-74.6879
-62.0838
-62.4127
-56.3498
-74.4246
-62.0108
-62.2873
-56.3118
-88.6637
-73.8927
-73.9205
-63.7369
-21.801
-7.60788
-7.6198
8.34217
195.472
180.371
204.713
195.537
-34.277
-36.958
-33.4999
-38.1447
-34.3873
-37.0807
-33.6103
-38.2164
-40.0061
-40.669
-40.3413
-39.9808
-96.0354
-152.082
-79.3765
-96.0393
-44.102
-57.3289
-49.5455
-57.1197
-43.9411
-57.3363
-49.4467
-57.0038
-44.6758
-41.7468
-41.7086
-40.3241
-34.2531
-34.7275
-34.68
-36.1728
-34.3705
-34.5858
-32.5301
-34.2752
-99.6571
134.944
-139.664
112.122
-95.8117
-100.198
-40.3959
-36.9931
-42.528
-36.1878
-41.0263
-44.6695
-60.9772
180.265
-72.0869
187.909
-46.1361
-49.6265
-39.6023
-35.3702
-34.7319
-32.6878
-38.9895
-35.0907
-139.819
111.848
-99.9654
134.795
-95.6359
-100.176
-42.3671
-36.0561
-40.2656
-36.8713
-40.8427
-44.5427
-71.9479
188.612
-60.117
180.52
-46.0948
-49.6914
-34.6114
-32.3922
-39.5613
-35.023
-38.867
-34.9904
-56.6835
-52.7933
-34.5187
-38.2519
-42.1189
-36.1505
-50.0939
-42.6407
-49.7137
-41.8941
-27.2573
-37.504
-23.2307
-41.4814
-43.2798
-39.9905
-47.443
-8.4476
-43.7712
-46.0339
-50.8372
-87.0843
18.4149
10.2398
-46.8017
-44.431
-34.9827
-39.9133
-40.0889
-52.3904
-56.9326
-48.6241
-56.6101
-52.8952
-50.1853
-42.6714
-34.6619
-38.22
-42.0317
-36.2874
-49.6405
-41.8928
-42.8189
-40.3498
-27.2722
-37.3914
-23.2232
-41.2935
-47.3093
-8.46555
18.0858
10.248
-43.6631
-45.992
-50.7838
-87.1268
-46.8632
-44.4556
-56.9618
-48.7306
-35.1371
-40.1024
-40.1275
-52.2991
-102.031
-103.262
175.326
201.072
-107.011
-107.278
167.513
167.558
-73.0438
-56.5263
-85.905
-61.3722
-40.5581
-39.8124
-35.9298
-34.2105
-43.1819
-43.2196
-35.2208
-35.1302
-56.6081
-46.2308
-40.6226
-45.647
-43.0362
-43.0716
199.813
199.909
-56.2992
-78.3847
-27.3078
-1.49306
-34.2957
-34.2341
-31.3037
-31.4578
-41.8672
-53.3287
-37.2349
-34.9566
-101.64
-102.268
201.214
175.361
-72.8888
-56.6236
-85.7002
-61.4728
-39.6442
-40.3582
-35.7961
-33.9853
-56.5655
-46.0868
-40.5878
-45.6299
-78.0724
-56.0235
-1.51749
-27.343
-53.1798
-41.7369
-34.8959
-37.3005
-34.5041
-31.3942
-39.5432
-39.8975
-50.0341
-47.4101
-36.4384
-40.8472
-55.8558
-56.0797
-41.5274
-41.5237
-28.8837
-33.465
-51.2885
-51.0469
-40.3858
-40.6965
-39.5391
-39.5922
-39.7955
-44.1545
-101.899
-69.7031
20.4482
20.4575
-123.837
-124.123
-67.8163
-67.8178
-39.603
-39.6249
-34.6449
-31.4641
-39.544
-39.8496
-47.2471
-49.9735
-36.577
-40.903
-33.5933
-28.9562
-51.1503
-50.9023
-44.1614
-39.8424
-69.7058
-101.517
-98.3134
-71.6359
-73.8162
-87.7308
-42.0901
-42.0704
-56.1771
-57.1285
-46.7449
-53.7863
-56.517
-42.4363
-66.5264
-57.7349
-74.868
-67.3161
-100.716
-86.8385
-73.5082
-71.5723
-66.6651
-67.0187
-74.625
-55.9882
-46.6535
-42.3196
-56.4563
-53.4491
-42.0977
-57.2846
-56.1316
-41.9457
-135.334
-141.362
-88.1657
-80.933
-135.309
-80.9834
-87.8197
-141.512
-47.9361
-51.1597
-63.277
-56.7148
-47.9207
-56.8495
-63.2537
-51.1983
-82.0951
-34.8493
-23.1857
-69.9505
-11.6691
32.781
5.79497
-14.5472
-11.7213
-14.5644
5.7897
32.8133
-82.2407
-70.0196
-23.2085
-34.8838
111.701
149.86
179.046
112.662
160.37
190.223
203.518
181.495
158.879
182.511
203.606
190.302
111.417
112.456
178.53
149.703
-35.3807
-33.7905
-35.5737
-37.2126
-22.9484
-24.3349
-32.282
-30.898
-38.0909
-42.1525
-36.0104
-30.3877
-51.6126
-41.5781
-39.6816
-48.4168
-35.506
-37.3298
-35.706
-33.9132
-51.5396
-48.3782
-39.7465
-41.607
-38.2022
-30.5458
-36.1062
-42.1589
-22.9027
-30.947
-32.3699
-24.3689
-39.9805
-43.5735
-40.4127
-37.5876
-40.0682
-37.5879
-40.3942
-43.5655
-40.268
-42.7323
-40.4533
-36.1661
-41.0396
-36.2351
-40.506
-42.5328
-113.284
-72.2235
-125.575
25.9553
-48.6638
-59.6795
-78.355
-56.5237
-48.6798
-56.4337
-78.3542
-59.6872
-110.563
25.8181
-125.584
-72.1727
-45.3769
-54.8013
-57.2423
-38.6294
-38.8943
-40.7674
-45.6787
-47.3319
-39.1207
-40.8366
-42.8859
-40.0024
-40.7354
-29.5334
-57.3252
-48.7811
-45.257
-38.3853
-57.1802
-54.7564
-40.9418
-48.7175
-57.2199
-29.632
-39.0159
-39.8286
-42.7461
-40.7304
-38.7667
-47.1753
-45.5449
-40.6198
-41.6383
-39.8405
-40.6491
-42.4363
-41.8124
-42.4054
-40.6115
-40.0126
-44.3464
-40.9144
-45.411
-47.3857
-44.4986
-47.4539
-45.425
-40.9836
-45.405
-39.7948
-36.4906
-46.2941
-34.8534
-34.6612
-34.4602
-35.8284
-34.7254
-35.7649
-34.4126
-34.5895
-45.5126
-46.3144
-36.4969
-39.8223
-36.9671
-35.5357
-34.9489
-36.7979
-36.8255
-36.6661
-34.8649
-35.4608
-34.8983
-30.3541
-32.9167
-35.6335
-35.2292
-35.876
-33.0389
-30.5212
-68.2935
-91.5508
-161.436
-42.6779
-40.0834
-40.8162
-2.5504
56.7068
-104.476
-38.228
-36.0103
-36.9825
-91.68
-69.5093
-163.239
-39.9476
-42.5195
-40.707
56.5234
-3.38783
-104.965
-35.7639
-37.9868
-36.7882
-38.154
-35.7467
-36.8747
-38.5951
-51.4297
-17.6799
-26.282
-56.3232
-54.3847
-52.8654
-58.4253
-76.4762
-42.2232
-39.6127
-41.311
-43.8207
-38.2508
-38.7085
-35.8223
-36.9238
-51.4652
-56.3393
-17.6077
-26.2351
-54.2671
-76.3668
-52.7945
-58.3276
-42.3379
-43.9407
-39.7315
-41.3898
-1.27426
1.68179
-87.6174
153.263
-195.16
-195.189
-188.632
31.0186
-65.7215
-54.0317
-63.4256
-63.5569
-40.756
-39.6443
-43.3324
-37.1782
-37.0775
-37.0514
-38.8194
-36.1341
-56.594
-53.8324
-56.3387
-48.5244
55.2126
55.29
-84.5421
128.339
-50.2252
-50.1454
-54.5116
-35.3487
-30.6461
-30.5553
-35.0508
-29.9737
-39.9961
-44.2598
-43.6888
-40.0325
-2.9507
-5.29193
-87.374
153.978
-65.7152
-53.8998
-63.3905
-63.5176
-40.6079
-39.3977
-43.1386
-37.0327
-56.2974
-53.7922
-56.2638
-48.4735
-50.1479
-50.1079
-54.3848
-35.3624
-39.93
-44.1853
-43.6052
-39.957
-33.0533
-31.6736
-32.3858
-33.7018
-38.9322
-40.3651
-40.381
-38.9271
-47.0283
-47.0568
-49.4681
-45.3499
-18.8374
-23.6494
-24.738
-22.0983
-42.7227
-42.7763
-42.434
-41.6037
-51.3097
-47.7645
-47.4421
-56.0221
59.7297
59.7358
48.7898
58.9729
-52.8944
-52.9027
-56.2059
-49.128
-33.139
-31.7178
-32.4625
-33.7217
-38.9386
-40.3566
-40.2984
-38.9938
-18.9262
-23.8392
-24.8549
-22.3775
-51.2581
-47.7259
-47.4079
-55.9514
-66.9648
-62.194
-62.1539
-59.1836
-66.7879
-62.0934
-62.0273
-59.1188
-81.2778
-74.4423
-74.4515
-68.6273
-14.2607
-6.14553
-6.15132
1.155
195.524
188.344
202.234
195.561
-34.811
-36.2602
-34.6641
-36.6938
-34.9249
-36.38
-34.7808
-36.7941
-40.1702
-40.3918
-40.2235
-40.1586
-99.2741
-116.227
-87.74
-99.2759
-48.0565
-57.0352
-52.5941
-58.5518
-47.8848
-57.025
-52.5211
-58.4671
-42.893
-41.8105
-41.7916
-40.8871
-34.2969
-34.5296
-34.4982
-35.3601
-34.0798
-34.3437
-33.2055
-34.0303
4.87476
-14.2773
-57.9349
110.518
-132.354
-187.283
-180.85
33.4898
-108.276
-80.4611
-94.5692
-96.1747
-41.2494
-41.1635
-42.5196
-37.5286
-38.0636
-37.4613
-40.746
-36.8179
-40.8638
-43.4958
-41.2687
-43.8145
6.35123
-17.3736
-113.951
159.16
48.4992
61.9713
-78.9297
150.662
-58.7162
-48.2131
-50.0861
-50.9253
-38.2337
-38.6345
-42.0184
-36.2685
-34.1183
-31.2687
-35.0338
-32.5704
-36.5255
-37.4667
-38.2652
-35.6751
-132.272
-187.152
-181.015
32.5303
4.29313
-15.3706
-58.4494
110.078
-108.191
-80.4529
-94.3817
-96.0339
-37.9496
-37.3864
-40.6557
-36.7076
-41.0786
-41.0114
-42.3742
-37.3969
-40.7512
-43.3283
-41.0984
-43.6777
48.0914
62.8927
-79.2501
153.713
4.43282
-18.6677
-113.153
159.928
-58.8417
-48.3395
-50.1157
-51.0027
-33.8406
-31.032
-34.9166
-32.2804
-38.0469
-38.2674
-41.6081
-36.0245
-36.4624
-37.375
-38.1648
-35.5808
-48.945
-51.8361
-60.7189
-54.2625
-34.868
-34.1705
-34.2806
-33.9341
-37.3516
-38.1106
-39.4405
-36.7374
-44.3127
-46.0368
-47.5213
-44.0169
-46.6149
-48.8921
-47.9508
-44.6448
-26.1591
-29.8427
-27.3965
-32.3358
-21.165
-17.6837
-18.0868
-32.3438
-46.5782
-43.8692
-46.6493
-41.4279
-45.5582
-47.2369
-47.064
-26.5336
-47.3953
-43.0504
-44.3376
-45.6869
-58.3622
-55.3352
-53.5742
-68.3436
13.8244
51.8551
26.0449
33.5533
-44.3872
-45.9679
-46.1987
-42.956
-36.1552
-30.9549
-34.1985
-36.0377
-42.6662
-46.2787
-42.7494
-48.1144
-50.2435
-53.4874
-54.7945
-51.7723
-49.1735
-50.2576
-60.7963
-54.5243
-44.3503
-46.2474
-47.6214
-44.0351
-34.9944
-34.2754
-34.4167
-34.007
-37.3792
-38.1322
-39.3826
-36.8345
-46.5601
-48.8699
-47.8936
-44.6259
-47.5304
-44.0669
-47.2486
-40.6877
-26.1189
-29.8554
-27.3994
-32.2925
-21.0604
-17.5555
-18.0481
-32.1231
-45.4537
-47.1328
-46.932
-26.5111
13.9681
51.9018
25.8819
33.4603
-47.3319
-43.0094
-44.2253
-45.6643
-58.2431
-55.2627
-53.5053
-68.2164
-44.4922
-45.984
-46.2648
-43.0845
-50.2684
-53.5111
-54.8198
-51.8261
-36.3463
-31.1877
-34.3835
-36.2591
-42.6958
-46.2455
-42.7535
-48.0745
-103.657
-87.4578
-102.905
-104.454
197.664
197.859
192.188
200.029
-122.178
-96.7971
-108.51
-108.609
145.696
174.385
167.935
167.945
-61.0941
-61.8056
-66.8138
-58.5515
-69.7816
-72.9231
-78.7015
-66.1512
-40.0444
-41.5363
-40.4093
-40.1114
-35.9089
-34.7118
-35.6515
-34.849
-41.6834
-45.4989
-44.2675
-44.2951
-34.7135
-34.7018
-34.8693
-34.8255
-58.6343
-56.9815
-57.8694
-55.3135
-42.9067
-41.5363
-41.3928
-43.3876
-55.6984
-30.7808
-42.35
-42.3684
195.732
205.251
200.219
200.271
-64.5734
-63.1495
-61.9341
-68.9223
-18.6804
-10.1034
-20.5668
-7.20613
-34.1405
-34.2084
-34.2213
-34.1882
-30.5583
-31.709
-31.0024
-31.0776
-46.1031
-48.6279
-44.1967
-50.1112
-36.1185
-35.0789
-36.2684
-35.1678
-102.409
-87.112
-102.445
-103.45
197.896
197.951
200.17
192.277
-61.0546
-61.7462
-66.7298
-58.5659
-69.7708
-72.9635
-78.6827
-66.1891
-39.902
-41.3488
-39.9231
-40.2108
-35.7381
-34.5735
-35.5046
-34.656
-58.5857
-56.9223
-57.7785
-55.3192
-42.7458
-41.6092
-41.3509
-43.3412
-64.4206
-63.0181
-68.711
-61.8482
-18.7086
-10.1265
-7.23134
-20.5842
-46.0004
-48.5232
-49.9657
-44.0868
-36.0934
-35.0111
-35.1134
-36.296
-32.8525
-33.7191
-33.9428
-32.4102
-38.0708
-39.5999
-39.2864
-39.2992
-43.9161
-55.4637
-48.269
-48.0088
-38.3447
-37.5109
-37.1282
-39.2271
-54.1307
-59.4981
-56.363
-56.3806
-42.6878
-40.9408
-41.5885
-41.5909
-29.0438
-32.1577
-29.5131
-31.9175
-45.6066
-54.9851
-51.4583
-51.7607
-41.3407
-40.5381
-40.7865
-40.7696
-40.1029
-39.9958
-39.9112
-39.9307
-43.9056
-39.9223
-40.8515
-43.1191
-71.4139
-90.1534
-90.681
-74.5532
28.9752
16.3768
22.4671
22.4852
-20.5992
-151.156
-76.2759
-76.2519
-63.9948
-73.4953
-68.3798
-68.3795
-41.6402
-37.4656
-39.2962
-39.306
-32.9493
-33.8257
-34.0623
-32.5006
-38.0523
-39.5641
-39.2865
-39.2605
-43.7665
-55.4268
-47.897
-48.1432
-38.4623
-37.6316
-37.2601
-39.3263
-29.1518
-32.2658
-32.041
-29.6037
-45.3341
-54.8667
-51.3145
-51.5889
-43.8928
-39.9683
-43.1226
-40.8895
-71.3521
-90.146
-74.5182
-90.6291
-122.608
-97.3162
-101.889
-83.5322
-53.567
-46.0503
-55.31
-51.6659
-47.2059
-44.657
-50.4699
-46.7883
-43.7848
-56.3853
-95.1456
-85.6372
-122.051
-97.101
-101.506
-83.2177
-43.6214
-56.5358
-94.4519
-85.1891
-47.0432
-44.5179
-50.4899
-46.6131
-53.3422
-46.0549
-55.5301
-51.7756
-118.497
-102.834
-106.121
-94.4988
-118.777
-102.905
-106.439
-94.3543
-53.9886
-53.0258
-57.8353
-55.3748
-53.9866
-53.0013
-57.7901
-55.8174
-58.6267
-47.5711
-44.2414
-35.4785
2.49404
15.9146
4.11493
16.6856
2.45432
15.8126
4.08668
16.6705
-58.6972
-47.6408
-44.2899
-35.5248
142.025
141.951
143.965
158.333
193.847
196.442
199.637
197.974
196.531
194.018
198.141
199.797
141.966
141.993
158.275
143.991
-34.8123
-35.7125
-34.9467
-35.8068
-27.5052
-25.8227
-29.9231
-28.2903
-36.2582
-38.983
-35.3074
-38.6878
-45.8438
-48.3849
-42.8421
-44.9791
-34.9676
-35.8715
-35.0968
-35.9577
-45.8342
-48.3442
-42.8619
-44.9677
-36.3751
-39.0477
-35.439
-38.7594
-27.5338
-25.8374
-29.9793
-28.3421
-39.7369
-41.784
-39.7739
-41.013
-41.7883
-39.7215
-41.0045
-39.7733
-42.1487
-40.3821
-40.2169
-39.7413
-40.6136
-41.5635
-39.8426
-40.7431
-135.097
-58.4856
-123.95
-127.933
-55.913
-59.666
-65.3633
-65.8702
-59.6714
-55.8723
-65.8678
-65.3452
-58.0508
-135.223
-127.935
-123.818
-49.7641
-46.0493
-54.1841
-50.7459
-40.2478
-40.923
-40.7311
-42.2769
-39.2178
-39.3083
-39.5188
-40.2732
-48.2847
-44.9383
-53.7693
-50.4646
-49.67
-45.8722
-54.1136
-50.614
-48.3367
-45.1616
-53.7359
-50.4238
-39.1127
-39.1769
-39.3631
-40.1277
-40.0984
-40.7353
-40.5376
-42.0733
-40.3355
-39.7694
-40.1094
-39.7434
-40.3432
-40.3119
-40.078
-39.7585
-43.179
-44.4797
-43.0548
-44.0245
-43.247
-44.6012
-43.053
-44.1292
-42.0538
-44.1674
-38.4751
-40.1063
-34.501
-34.7562
-34.4082
-34.6959
-34.3812
-34.6556
-34.3248
-34.6167
-42.203
-44.2054
-38.5565
-40.1371
-36.5389
-35.9905
-36.1532
-35.7039
-35.8595
-36.4185
-35.599
-36.0308
-32.665
-33.9537
-31.9505
-33.3459
-34.2845
-32.9514
-33.602
-32.1766
-78.7539
101.839
-185.718
19.1428
-102.459
-129.787
-40.4626
-38.0334
-41.7385
-37.7875
-39.1748
-44.1711
-116.94
146.897
-88.2103
126.848
-68.0383
-78.691
-41.6094
-36.4148
-34.9231
-35.096
-38.2864
-34.9636
-185.645
19.0251
-79.2124
101.338
-104.123
-129.674
-41.6168
-37.6555
-40.3288
-37.8919
-39.057
-44.0275
-90.175
126.548
-118.451
144.368
-68.2216
-79.1483
-34.7819
-34.7961
-41.2487
-36.1694
-38.1927
-34.8486
-41.7444
-44.0419
-35.1769
-37.2056
-38.8969
-36.0457
-43.7809
-41.3561
-47.4641
-44.3528
-23.0833
-32.2426
-18.0188
-41.0507
-45.728
-46.4988
-47.9988
-42.4891
-48.3914
-51.24
-54.6411
-75.6839
-18.7665
-84.4059
-42.4684
-43.2882
-37.5005
-38.546
-39.9535
-44.9443
-47.7359
-46.3343
-41.861
-44.2279
-43.7927
-41.4404
-35.2997
-37.3189
-38.8912
-36.135
-47.3924
-44.3922
-44.8045
-46.8443
-23.0226
-32.1065
-17.9509
-40.8885
-47.9062
-42.4428
-18.8596
-86.416
-48.2958
-51.1799
-54.5616
-75.2889
-42.6048
-43.433
-47.7715
-46.4147
-37.6389
-38.7276
-40.0251
-45.0203
-68.7501
115.92
-98.7459
146.569
-82.9488
-58.3391
163.887
180.745
-179.631
30.95
-179.781
30.7688
-141.975
-142.06
113.611
113.517
-70.6249
-75.9114
-52.7006
-53.2823
-63.3791
-54.6331
-73.5989
-61.9491
-43.3635
-37.4995
-42.4937
-36.8412
-40.7267
-40.4354
-36.63
-36.1907
-39.4541
-36.2383
-39.4094
-36.1766
-40.3998
-40.4215
-34.8613
-34.8195
-47.5958
-48.2702
-51.8257
-45.1871
-54.2347
-54.9445
-43.6283
-47.2122
-80.5391
139.648
-80.6468
139.787
-69.1927
-69.2265
191.486
191.519
-51.2391
-42.0617
-52.4283
-28.6448
-56.8663
-67.1767
-29.1723
-19.5542
-34.9598
-30.5762
-34.8886
-30.4029
-34.7607
-34.7218
-30.0581
-30.141
-40.1006
-37.0382
-47.169
-42.8113
-42.5775
-47.2047
-38.0891
-36.3032
-69.156
114.827
-102.282
148.057
-81.5319
-56.412
181.821
164.029
-70.5867
-76.1214
-52.9803
-53.1009
-63.3343
-54.6259
-73.5469
-61.9128
-43.1985
-37.367
-42.1502
-36.6154
-40.2562
-40.5713
-36.4865
-35.9897
-47.3493
-48.1281
-51.764
-45.158
-54.2203
-54.2547
-43.5371
-47.2744
-51.33
-42.0693
-52.215
-28.5039
-66.9574
-56.7637
-19.5736
-29.2018
-40.0064
-36.9705
-47.1192
-42.8351
-47.1163
-42.4821
-36.2887
-38.1208
-33.5973
-36.9331
-30.7782
-32.455
-33.216
-31.7939
-36.2775
-35.6738
-39.9203
-37.6943
-41.8698
-41.4538
-41.8641
-42.0406
-37.8572
-39.9631
-48.7522
-44.9996
-48.8085
-45.002
-51.8598
-51.8474
-43.7838
-43.792
-20.1962
-26.6824
-28.6449
-28.005
-25.6398
-28.5375
-38.697
-31.7393
-44.2353
-40.4222
-43.7323
-40.4886
-42.051
-42.0577
-40.1403
-40.1657
-50.6573
-61.9898
-44.1396
-51.3852
-43.7582
-46.9697
-67.3054
-59.5572
45.0668
53.7813
44.9584
53.9875
35.8803
35.4344
26.9845
27.3315
-56.4059
-49.8913
-56.4186
-49.9097
-60.0319
-60.0321
-45.6759
-45.6852
-33.7079
-36.9631
-30.8155
-32.429
-33.3209
-31.8636
-36.302
-35.6473
-39.8341
-37.7718
-41.7715
-41.4863
-41.9112
-41.7401
-37.9667
-40.0309
-20.2147
-26.4758
-28.8231
-28.3361
-28.6749
-25.712
-38.4212
-31.554
-50.6103
-61.9229
-44.1215
-51.3236
-46.9332
-43.7521
-59.4713
-67.2355
-74.1883
-74.8935
-66.8306
-59.0199
-58.8549
-67.3322
-56.3395
-56.7488
-73.9302
-74.654
-66.6967
-58.9925
-67.1473
-58.7749
-56.6942
-56.2933
-88.5264
-88.434
-80.4941
-68.1699
-80.5035
-68.1932
-63.6348
-63.6512
-22.1375
-22.1486
-16.1012
-0.823337
-0.83271
-16.1188
7.66062
7.66092
186.797
201.334
179.435
179.821
203.979
204.023