# vtk DataFile Version 2.0
tri_press
ASCII
DATASET UNSTRUCTURED_GRID
POINTS 3682 float
-0.806754 0.385 -2.115
-0.749568 0.345 1.975
-0.785 0.838646 -2.075
-0.785598 0.935 1.975
0.806756 0.385 -2.115
0.749568 0.345 1.975
0.785 0.838646 -2.075
0.785598 0.935 1.975
-0.849943 0.309416 -0.751667
-0.833167 0.293796 0.611667
-0.83595 0.921515 -0.725
-0.832118 0.949601 0.625
0.849934 0.309426 -0.751667
0.833169 0.293795 0.611667
0.835929 0.921493 -0.725
0.832136 0.94962 0.625
-1.64113 0.0801324 -3.21275
-1.64294 0.0810132 -2.12743
-1.67061 0.0210587 -0.763748
-1.65754 -0.00914187 0.602614
-1.60206 0.0180052 1.96652
-1.58522 0.037224 3.05295
-1.58713 0.048309 4.13734
-1.63713 0.35377 -3.19755
-1.63764 0.371972 -2.11368
-1.67514 0.324799 -0.752592
-1.65395 0.300928 0.609692
-1.57909 0.326854 1.97103
-1.56826 0.345037 3.05728
-1.57689 0.355503 4.14209
-1.62743 0.864791 -3.16339
-1.62166 0.881447 -2.07897
-1.66374 0.926412 -0.726975
-1.6535 0.939863 0.624075
-1.59784 0.936159 1.97632
-1.57736 0.952221 3.06312
-1.57826 0.965604 4.15009
-1.62921 1.71048 -3.12218
-1.62946 1.74054 -2.03976
-1.64325 1.80422 -0.692087
-1.64845 1.85252 0.652711
-1.63417 1.86871 2.00052
-1.61778 1.87523 3.08324
-1.60581 1.88307 4.16875
-0.820322 0.0870414 -3.21361
-0.81117 0.0904626 -2.12868
-0.838594 0.013831 -0.763579
-0.839628 -0.0147961 0.604299
-0.798904 0.0268026 1.96946
-0.783156 0.0437375 3.05495
-0.783202 0.0517783 4.13849
-0.820702 0.355653 -3.19781
-0.763592 0.352222 3.05893
-0.772897 0.359078 4.14297
-0.813089 0.848304 -3.16174
-0.771329 0.954184 3.06286
-0.772509 0.967566 4.15003
-0.808597 1.69863 -3.12055
-0.80505 1.72902 -2.03796
-0.816937 1.80144 -0.691004
-0.82742 1.856 0.652581
-0.821032 1.87138 1.99959
-0.807008 1.87676 3.08231
-0.795189 1.88426 4.16808
0.81032 0.087041 -3.21361
0.826857 0.0904639 -2.12868
0.843146 0.0138374 -0.76358
0.814301 -0.0147951 0.604299
0.762356 0.0268029 1.96946
0.788287 0.0437384 3.05495
0.809252 0.0517799 4.13849
0.798711 0.355652 -3.19781
0.79476 0.352222 3.05893
0.815224 0.359079 4.14297
0.792751 0.848302 -3.16174
0.807838 0.954186 3.06286
0.822426 0.967568 4.15003
0.82393 1.69862 -3.12055
0.832633 1.72901 -2.03796
0.833927 1.80143 -0.691004
0.82022 1.85601 0.652581
0.80842 1.87138 1.99959
0.813075 1.87676 3.08231
0.822925 1.88427 4.16808
1.63019 0.0801307 -3.21275
1.64704 0.0810134 -2.12743
1.67096 0.0210662 -0.763748
1.64324 -0.00913678 0.602614
1.58464 0.0180071 1.96652
1.59097 0.0372267 3.05295
1.61102 0.0483122 4.13734
1.61872 0.353767 -3.19755
1.63319 0.371968 -2.11368
1.67397 0.324805 -0.752592
1.6543 0.300935 0.609692
1.58315 0.326855 1.97103
1.59263 0.345039 3.05728
1.6146 0.355506 4.1421
1.61112 0.864786 -3.16339
1.61843 0.881437 -2.07897
1.66404 0.9264 -0.726975
1.65633 0.93988 0.624075
1.60548 0.936164 1.97632
1.60791 0.952225 3.06312
1.62369 0.965608 4.15009
1.64136 1.71047 -3.12218
1.65094 1.74053 -2.03976
1.65749 1.80422 -0.692087
1.64553 1.85252 0.652711
1.62854 1.86872 2.00052
1.62741 1.87524 3.08324
1.63435 1.88307 4.16875
-0.746944 0.611823 -2.04607
1.01328e-06 0.390359 -2.10964
-0.846624 0.328932 -1.43333
-0.808577 0.64 2.01599
0 0.329912 1.99009
-0.869519 0.241246 1.29333
0 0.860439 -2.09679
-0.822799 0.892404 -1.4
0 0.970288 2.01029
-0.816192 0.949635 1.3
0.746906 0.611823 -2.04603
0.846631 0.328927 -1.43333
0.808577 0.64 2.01599
0.869517 0.241249 1.29333
0.822817 0.892422 -1.4
0.816194 0.949637 1.3
-0.844021 0.29914 -0.07
-0.87957 0.615465 -0.738333
-4.3821e-06 0.223378 -0.751667
-0.872071 0.621698 0.618333
9.72597e-07 0.226783 0.611667
-0.839525 0.941049 -0.05
-1.08186e-05 1.34333 -0.725
9.36977e-06 1.51678 0.625
0.844024 0.299138 -0.07
0.87955 0.61546 -0.738333
0.8721 0.621707 0.618333
0.839514 0.941038 -0.05
-0.886462 0.613644 -1.41667
0.886489 0.613641 -1.41667
-1.68441e-06 0.248638 -1.43333
-5.40928e-06 0.974101 -1.4
5.06639e-07 0.611823 -2.1014
-0.886474 0.618582 -0.06
0.886452 0.618583 -0.06
-1.70475e-06 0.224206 -0.07
-7.24399e-07 1.5138 -0.05
-0.872443 0.630849 1.29667
0.8725 0.630854 1.29667
4.86298e-07 0.205191 1.29333
4.68489e-06 1.50614 1.3
0 0.64 2.12657
-0.809325 0.498411 -2.11301
-0.403376 0.391057 -2.10894
-0.840783 0.342872 -1.77417
-0.779724 0.4925 1.99615
-0.374784 0.333548 1.98645
-0.773325 0.329341 1.63417
-0.775422 0.725234 -2.06998
-0.3925 0.857877 -2.09423
-0.808743 0.870368 -1.7375
-0.810552 0.7875 2.00896
-0.392799 0.961555 2.00156
-0.803225 0.944647 1.6375
0.403379 0.390872 -2.10913
0.809424 0.498411 -2.11311
0.840775 0.342882 -1.77417
0.374784 0.338048 1.98195
0.779721 0.4925 1.99615
0.773171 0.329496 1.63417
0.3925 0.857863 -2.09422
0.775434 0.725234 -2.06999
0.808743 0.870368 -1.7375
0.392799 0.961565 2.00156
0.810575 0.7875 2.00898
0.803199 0.944621 1.6375
-0.855412 0.312046 -1.0925
-0.846035 0.305225 -0.410833
-0.871301 0.459168 -0.745
-0.430733 0.254878 -0.751667
-0.892972 0.225893 0.9525
-0.84126 0.293803 0.270833
-0.862401 0.452857 0.615
-0.417802 0.257853 0.611667
-0.831139 0.908724 -1.0625
-0.875091 0.777156 -0.731667
-0.838655 0.932199 -0.3875
-0.501929 1.30032 -0.725
-0.826222 0.951685 0.9625
-0.869489 0.794347 0.621667
-0.836649 0.946153 0.2875
-0.537569 1.47622 0.625
0.85712 0.310339 -1.0925
0.435409 0.245513 -0.751667
0.846035 0.305226 -0.410833
0.871272 0.459178 -0.745
0.892974 0.225891 0.9525
0.426373 0.240714 0.611667
0.84101 0.294053 0.270833
0.862442 0.452848 0.615
0.831128 0.908713 -1.0625
0.503801 1.3041 -0.725
0.875072 0.777143 -0.731667
0.838634 0.932179 -0.3875
0.826238 0.951701 0.9625
0.537582 1.47622 0.625
0.869523 0.794366 0.621667
0.836655 0.946159 0.2875
-0.871664 0.612734 -1.73137
-0.373472 0.611823 -2.07975
-3.35566e-07 0.284999 -1.77149
7.59959e-07 0.501091 -2.15738
-0.867277 0.471288 -1.425
-0.423313 0.233636 -1.43333
-0.83199 0.635425 1.65633
-0.404289 0.64 2.13477
2.43149e-07 0.240702 1.64171
0 0.484956 2.09915
-0.852929 0.436048 1.295
-0.434759 0.164675 1.29333
-2.70464e-06 0.933395 -1.7484
2.5332e-07 0.736131 -2.11253
-0.861079 0.753024 -1.40833
-0.411402 0.95574 -1.4
2.34244e-06 1.37799 1.65514
0 0.805144 2.06061
-0.850141 0.790242 1.29833
-0.408094 1.47781 1.3
0.870497 0.612732 -1.73135
0.373453 0.611823 -2.07979
0.867279 0.471284 -1.425
0.423315 0.243879 -1.43333
0.831994 0.635427 1.65633
0.404289 0.64 2.13477
0.852925 0.436051 1.295
0.434759 0.16272 1.29333
0.86108 0.753032 -1.40833
0.411406 0.955679 -1.4
0.85014 0.790245 1.29833
0.408099 1.4778 1.3
-0.877273 0.452848 -0.065
-0.423062 0.259571 -0.07
-0.874464 0.614555 -1.0775
-0.884353 0.617024 -0.399167
-3.03326e-06 0.229759 -1.0925
-3.04343e-06 0.220228 -0.410833
-0.881402 0.62014 0.279167
-0.885652 0.626274 0.9575
-3.66078e-07 0.225098 0.270833
7.29447e-07 0.150645 0.9525
-0.882571 0.789601 -0.055
-0.543762 1.47542 -0.05
-8.11393e-06 1.01152 -1.0625
-5.77148e-06 1.49932 -0.3875
4.32269e-06 1.51676 0.2875
7.02733e-06 1.51511 0.9625
0.877278 0.452841 -0.065
0.429134 0.247425 -0.07
0.874469 0.61455 -1.0775
0.884333 0.617021 -0.399167
0.881434 0.620145 0.279167
0.885511 0.62628 0.9575
0.882568 0.789603 -0.055
0.543759 1.47542 -0.05
-0.853841 0.48485 -1.75277
-0.864428 0.466864 -1.085
-0.870522 0.760757 -1.07
-0.847438 0.739129 -1.73443
0.85384 0.484848 -1.75276
0.847449 0.739133 -1.73442
0.870962 0.760754 -1.07
0.864433 0.466863 -1.085
-0.413345 0.295879 -1.77283
0.413347 0.294216 -1.77283
0.42414 0.2448 -1.0925
-0.424143 0.251089 -1.0925
-0.401951 0.924247 -1.74295
-0.414691 0.997572 -1.0625
0.414682 0.997628 -1.0625
0.401953 0.924237 -1.74295
-0.388424 0.499751 -2.14633
-0.382986 0.730683 -2.11418
0.382977 0.730683 -2.11422
0.388416 0.499751 -2.14628
-0.876047 0.455128 -0.405
-0.872077 0.451732 0.275
-0.877755 0.792837 0.283333
-0.880343 0.784135 -0.393333
0.876024 0.455135 -0.405
0.880335 0.78413 -0.393333
0.877782 0.792853 0.283333
0.872126 0.451711 0.275
-0.426269 0.258482 -0.410833
0.430329 0.250355 -0.410833
0.425915 0.247746 0.270833
-0.419006 0.261565 0.270833
-0.559121 1.46042 -0.3875
-0.540964 1.47642 0.2875
0.540969 1.47642 0.2875
0.559104 1.46041 -0.3875
-0.873115 0.446897 0.955
-0.808515 0.464274 1.64525
-0.834524 0.788871 1.64692
-0.860687 0.787946 0.96
0.873108 0.446901 0.955
0.86071 0.787954 0.96
0.834495 0.788873 1.64692
0.808519 0.464276 1.64525
-0.425671 0.164412 0.9525
0.425672 0.168066 0.9525
0.404771 0.205078 1.63794
-0.404772 0.266876 1.63794
-0.412074 1.48222 0.9625
-0.400446 1.38189 1.64632
0.400449 1.38191 1.64632
0.412086 1.48221 0.9625
-0.389536 0.488728 2.0908
0.389536 0.488728 2.09079
0.398544 0.796322 2.07081
-0.398544 0.796322 2.07081
-0.808349 0.441706 -2.11431
-0.605065 0.391807 -2.10819
-0.808837 0.378867 -1.94458
-0.764728 0.41875 1.98566
-0.562176 0.33982 1.98018
-0.766803 0.331815 1.80458
-0.775477 0.78194 -2.06776
-0.58875 0.851017 -2.08737
-0.798837 0.856472 -1.90625
-0.803731 0.86125 1.99764
-0.589198 0.954603 1.9946
-0.796722 0.942135 1.80625
0.605067 0.391536 -2.10846
0.808392 0.441706 -2.11436
0.80884 0.378866 -1.94458
0.562176 0.34111 1.97889
0.764775 0.41875 1.9857
0.766783 0.331835 1.80458
0.58875 0.851022 -2.08738
0.787023 0.78194 -2.0793
0.798835 0.856471 -1.90625
0.589198 0.954591 1.99459
0.803568 0.86125 1.99747
0.796722 0.942134 1.80625
-0.851645 0.311763 -0.922083
-0.847997 0.307313 -0.58125
-0.859253 0.384976 -0.748333
-0.655039 0.252744 -0.751667
-0.86522 0.257694 0.782083
-0.835324 0.295688 0.44125
-0.84742 0.373508 0.613333
-0.632591 0.261612 0.611667
-0.834022 0.915597 -0.89375
-0.857532 0.850341 -0.728333
-0.837606 0.927161 -0.55625
-0.711801 1.19664 -0.725
-0.829326 0.950799 0.79375
-0.852259 0.872702 0.623333
-0.834744 0.948238 0.45625
-0.693985 1.23119 0.625
0.851717 0.311692 -0.922083
0.658283 0.246248 -0.751667
0.847997 0.307313 -0.58125
0.859216 0.384995 -0.748333
0.865304 0.25761 0.782083
0.635679 0.255438 0.611667
0.835328 0.295686 0.44125
0.847425 0.373511 0.613333
0.834006 0.915581 -0.89375
0.711758 1.19658 -0.725
0.857507 0.850321 -0.728333
0.837581 0.927136 -0.55625
0.829408 0.950881 0.79375
0.692328 1.22786 0.625
0.852283 0.872719 0.623333
0.834755 0.948248 0.45625
[...]
POINT_DATA 3682
SCALARS point_scalars float 1
LOOKUP_TABLE default
-70.827
-52.103
-64.1991
-47.5429
-71.5226
-50.069
-68.3291
-40.9126
-43.5045
-27.3777
-68.7923
-47.6024
-43.309
-26.3298
-68.0923
-46.0182
-88.2601
-115.192
-41.2662
-70.2509
-49.3447
-46.4569
-46.4569
-4.20376
-109.663
-42.3582
-46.6303
-50.141
-46.4054
-45.6482
-39.5936
-123.909
-54.5838
-46.1894
-47.8016
-45.193
-45.2019
-99.277
-75.4037
-148.388
-55.2403
-45.8433
-48.6661
-44.7391
126.028
-53.8571
-42.8807
-39.687
-50.6445
-45.0399
-44.9524
126.028
-44.9524
-44.9524
130.523
-44.5359
-44.154
-47.3439
-71.1672
-151.63
-51.3012
-46.8494
-43.253
-43.5829
126.013
-54.6651
-42.5608
-38.8835
-48.1308
-43.3609
-42.76
126.013
-42.76
-42.76
121.888
-41.4138
-41.4774
-57.1412
-72.6094
-150.279
-50.0139
-41.118
-35.9375
-37.1756
-88.8795
-115.257
-41.158
-68.4448
-47.3963
-43.9932
-43.9932
-5.04678
-109.674
-42.1319
-45.2591
-47.4574
-43.7035
-42.7603
-30.405
-120.861
-54.037
-44.6855
-42.6686
-41.4497
-41.3497
-97.1208
-73.5077
-146.561
-53.9141
-39.8235
-42.0188
-39.3845
7.76177
-101.145
-56.7102
-52.2782
-45.1005
-62.9684
-34.3432
-35.9814
-36.8487
-47.52
6.7549
-52.7541
-48.0041
-61.1409
-35.492
-44.4958
-36.0799
-45.4526
-47.5887
-43.9416
-27.089
-56.4338
34.649
-55.8836
-35.9022
-45.0429
-42.5121
-55.591
-51.5137
-50.8782
-73.916
7.92693
202.729
-44.9294
-44.2021
-36.235
-85.2392
-54.1637
-51.5914
-60.7499
-46.1254
-40.0226
-4.11796
-102.392
-64.1301
-52.8394
-46.6533
-52.6663
-32.6464
-37.1378
-49.7416
-51.2109
-41.8641
-46.3866
-105.035
-4.33147
-64.4965
-44.9703
-50.0091
-51.6164
-34.2326
-28.4748
-49.1413
-32.3036
-45.6325
-41.991
-49.5058
-38.3534
-42.6434
-45.78
-57.4086
-35.1072
-40.2151
-22.8822
-45.0413
-52.8764
-63.4281
28.0353
-46.8585
-45.6184
-51.0762
-52.7225
-49.9174
-46.3744
-38.2931
-42.3897
-55.2096
-26.4632
-34.635
-38.9008
-44.4339
26.5086
-52.3523
-62.6753
-44.7918
-51.7388
-44.0837
-49.9968
-68.9187
197.348
-96.1306
200.57
-51.7703
-82.2351
-48.3281
-43.5159
-53.4593
-42.8672
-57.0279
-63.3627
-27.1196
178.815
-46.0794
0.0102379
-36.5377
-39.6032
-49.4878
-47.078
-68.6056
197.528
-50.9614
-77.1168
-45.4842
-41.2407
-54.713
-63.5817
-45.4706
-0.239836
-46.7882
-44.7048
-41.6083
-34.8498
-44.5598
-45.7916
-60.2327
-40.4854
-43.6216
-49.078
-32.2074
-58.0853
-49.4454
-75.5911
33.2885
-126.589
-66.3026
-49.9457
-41.0477
-35.1802
-44.1924
-45.2624
-42.5752
-47.0938
-48.719
-75.0312
-69.8148
-46.5398
-44.5775
-61.8731
-69.542
-61.0685
-44.1326
-46.2337
-83.3381
-84.8731
-58.4283
-59.5244
-31.6254
20.5878
20.4006
-31.7151
195.005
181.921
181.858
190.419
-42.0837
-40.2722
-47.0287
-52.6734
-41.7221
-52.0425
-45.9452
-39.294
-39.2212
-39.5624
-30.15
-29.3273
-113.222
-61.5518
-60.8543
-112.408
-53.0946
-49.6215
-47.5031
-48.0237
-51.1432
-45.9972
-43.9152
-47.5663
-64.2632
-54.5872
-53.2131
-54.4406
-49.6741
-41.2971
-36.154
-48.475
-44.0313
-43.1676
-37.4823
-42.7935
-26.6835
-84.0888
-76.6194
-53.4957
-47.707
-49.1563
-9.18608
-4.15345
-76.9644
-49.3599
-42.0071
-46.694
-85.6326
-27.2472
-76.8351
-46.097
-50.8424
-47.8157
-5.19744
-5.40597
-76.2869
-34.435
-43.3203
-41.0735
-42.1575
-40.3727
-41.8221
-43.7818
-61.2716
-29.9992
-39.8487
-17.6248
-59.5234
-59.2336
-67.2319
-121.909
-47.8142
-46.8922
-49.1906
-50.3627
-42.0513
-44.4834
-40.4706
-41.6674
-59.2059
-16.0257
-27.703
-38.6535
-58.9047
-123.532
-58.6263
-66.6036
-45.9527
-48.7699
-45.3659
-47.9222
-1.80506
-30.0929
-103.661
176.513
-102.024
-102.781
-86.001
97.67
-54.1694
-48.8709
-52.0976
-82.3254
-52.1761
-51.622
-48.5544
-44.0906
-45.6924
-44.8387
-49.5016
-43.3159
-66.5325
-55.4303
-58.5212
-62.0737
-32.7049
-31.8835
-60.6218
153.613
-39.6311
-37.0541
-42.5891
-10.2513
-40.2521
-33.6249
-35.2398
-40.4575
-46.8103
-48.6024
-48.3085
-47.079
-2.69104
-33.5569
-103.313
177.071
-54.7653
-48.6814
-50.7858
-76.8542
-48.8023
-46.7029
-45.1435
-41.8168
-64.7556
-53.4649
-56.3058
-63.2316
-39.1673
-36.5039
-41.9349
-10.2725
-43.1517
-46.0817
-45.4305
-44.0148
-39.4018
-35.313
-40.3081
-34.937
-43.5898
-48.1117
-44.4696
-45.8288
-46.9971
-47.7978
-52.3736
-43.4353
-42.7658
-44.7316
-43.1947
-45.1448
-25.3373
-30.8135
-30.3854
-53.8645
-59.9045
-54.5006
-53.7746
-63.9324
35.6554
35.3863
60.7115
-142.195
-55.2376
-54.7294
-60.2248
-52.599
-39.2779
-35.1802
-39.8258
-35.1391
-43.2645
-47.6481
-44.0987
-45.3713
-41.3788
-43.2425
-41.9578
-43.5272
-59.0788
-53.552
-52.5781
-63.0037
-58.535
-51.9543
-49.5804
-48.6505
-58.0481
-51.2997
-48.9894
-48.1708
-72.3582
-78.5941
-74.6275
-63.7021
-7.12215
6.32198
6.20916
22.3074
202.859
203.093
198.83
202.561
-43.2537
-45.7028
-44.4867
-46.837
-42.5947
-45.0882
-43.6053
-46.0664
-35.5186
-38.5841
-33.5545
-35.9875
-83.3379
-100.407
-74.3293
-83.0386
-50.6523
-55.806
-51.321
-51.5501
-48.0745
-53.3721
-48.7315
-49.3129
-58.546
-62.3
-62.5333
-72.4231
-43.5591
-46.698
-45.32
-47.8917
-42.0479
-42.6216
-40.2521
-39.9196
-103.97
175.758
-77.3682
113.402
-66.596
-72.7518
-49.0127
-44.8178
-49.8225
-44.5756
-50.5545
-54.377
-99.4636
161.62
-64.8235
120.263
-57.1468
-37.4408
-47.6849
-43.721
-39.8677
-42.3933
-46.8254
-46.393
-78.4651
115.343
-103.951
176.051
-66.5316
-74.5134
-49.3648
-43.4356
-46.4978
-43.0375
-48.8688
-52.7222
-64.9457
124.452
-97.4496
163.098
-56.0186
-37.448
-32.871
-35.206
-43.3752
-37.8269
-42.7866
-40.6041
-47.7873
-57.9469
-40.2164
-38.3938
-42.5861
-42.4276
-49.5132
-42.558
-55.9451
-65.2148
-39.0571
-28.0037
-39.8059
-48.3181
-25.9465
-59.1144
-45.0566
-5.73551
-48.6927
-53.4267
-58.001
-82.3259
42.9601
-139.467
-47.8726
-49.0451
-45.7685
-46.4488
-49.3983
-55.0094
-56.8679
-51.1335
-47.6781
-57.9547
-50.2997
-42.9416
-39.942
-38.4238
-42.338
-42.1419
-53.9051
-60.1998
-27.6451
-52.7768
-37.9994
-28.766
-38.5948
-46.6205
-44.5083
-5.2493
42.5833
-138.341
-48.2153
-52.8552
-57.3101
-81.3404
-45.7844
-47.206
-56.0394
-50.0808
-44.5233
-44.7156
-48.3106
-53.9608
-71.0177
-65.7542
195.574
195.231
-92.2599
-93.8848
198.22
197.538
-58.2105
-48.6526
-60.2997
-69.4272
-49.0303
-48.0033
-44.2486
-43.227
-53.3564
-53.8919
-43.5761
-42.9328
-54.5224
-56.1901
-68.44
-62.7359
-28.1383
-28.3077
169.878
168.477
-44.3661
-50.02
-15.0538
11.3599
-38.7133
-35.5403
-38.3225
-41.536
-48.3866
-49.4213
-48.004
-47.7237
-70.647
-65.361
195.662
195.78
-57.5279
-48.1902
-63.751
-66.3856
-44.804
-46.6473
-43.8802
-39.5358
-52.4258
-53.9057
-61.7905
-63.5135
-49.3712
-43.8557
10.7598
-15.1605
-47.0725
-45.3052
-43.9035
-46.3672
-42.263
-41.3197
-37.0358
-31.8873
-45.676
-44.4413
-43.725
-48.4018
-58.8449
-59.8441
-40.0486
-40.3723
-41.7879
-45.0885
-51.2255
-48.6156
-32.4716
-30.9635
-61.5775
-54.6015
-48.5051
-51.4119
-89.5215
-68.719
29.6113
32.6872
-127.158
-126.777
-65.2695
-64.9133
-49.9265
-49.2521
-41.8019
-40.5879
-36.9771
-32.4313
-44.0496
-45.3412
-43.2795
-47.8243
-44.025
-40.7803
-49.2581
-46.6132
-50.7173
-47.5627
-68.0858
-88.8763
-87.0944
-57.8124
-58.6394
-111.463
-41.908
-43.35
-48.6908
-49.2528
-53.9492
-41.809
-46.7316
-46.0857
-91.2823
-103.703
-55.7415
-47.2029
-87.1338
-111.266
-58.0803
-56.669
-87.6948
-46.4756
-55.2551
-103.043
-53.3585
-45.6616
-46.2743
-41.2131
-41.7442
-48.8545
-48.2054
-43.0404
-84.492
-83.0303
-66.6895
-45.2142
-85.449
-47.5665
-70.3448
-82.5998
-46.1355
-52.807
-64.4323
-64.3755
-46.382
-65.0526
-68.4474
-51.4104
-70.3655
-22.2399
-8.72793
-61.1216
-32.2082
58.4156
19.4782
-4.207
-30.6244
-4.18163
19.5701
57.8038
-70.4756
-61.4187
-8.84359
-22.2227
102.363
171.913
200.763
101.123
114.993
181.498
192.344
175.63
115.817
176.489
191.837
182.484
102.2
101.884
200.69
172.375
-40.9417
-40.8245
-43.7767
-43.813
-38.1551
-41.6331
-42.7479
-39.9101
-47.3816
-51.8114
-46.2461
-44.5378
-59.392
-48.549
-47.9344
-55.7208
-40.7752
-43.4407
-43.2299
-40.4446
-58.7561
-54.9687
-47.2829
-48.0355
-46.0938
-43.3178
-45.3233
-50.882
-36.8942
-39.2706
-41.9354
-40.4185
-42.3667
-43.2546
-37.9689
-36.4117
-43.2722
-36.5127
-38.0516
-43.2087
-24.1753
-30.6809
-33.2301
-31.8842
-25.2725
-31.323
-32.8886
-28.0172
-101.741
-71.232
-97.9682
-140.328
-52.1597
-59.4601
-73.2821
-60.0185
-50.9599
-59.0445
-72.9594
-59.0436
-100.58
-139.964
-97.6656
-70.3161
-52.103
-55.6747
-53.1306
-45.0305
-48.9995
-49.0076
-53.198
-59.4569
-46.6418
-47.5527
-49.4468
-48.2505
-46.9936
-46.1111
-50.6992
-48.5898
-50.5482
-43.4631
-50.9993
-53.7425
-45.199
-46.1401
-48.3909
-44.417
-41.7354
-44.4106
-46.6465
-44.189
-46.8952
-57.4733
-50.7976
-46.1938
-63.0538
-58.1667
-65.7902
-67.9721
-60.2334
-60.2433
-64.9549
-50.1767
-48.5879
-49.469
-60.4702
-67.4474
-50.0391
-64.9745
-63.7117
-49.5031
-48.5078
-47.6742
-48.0942
-52.6203
-41.3962
-38.1597
-45.2836
-47.9633
-35.4319
-43.6703
-43.0168
-32.7762
-46.5764
-52.0415
-47.1604
-45.4081
-46.1006
-43.9118
-43.6375
-44.4289
-44.009
-43.1209
-43.1791
-43.1436
-35.6579
-37.5294
-39.5384
-39.2128
-43.2236
-43.648
-41.938
-41.7835
-5.77979
-49.1473
-107.209
-53.2067
-49.2805
-49.5733
-41.3761
-7.08423
-120.517
-49.2996
-42.8488
-44.9439
-50.1295
-6.65848
-107.431
-47.2034
-50.7562
-48.0364
-11.592
-18.9936
-118.411
-36.488
-42.7225
-39.1396
-41.2487
-41.3128
-41.4639
-42.8631
-55.2355
-27.9032
-37.451
-11.4565
-68.5505
-63.681
-68.48
-93.5773
-47.7872
-47.2181
-48.4499
-48.4798
-41.0583
-42.6974
-41.6585
-41.3547
-53.6807
-10.0324
-26.1782
-36.2827
-67.8072
-92.8865
-63.0226
-67.8099
-46.0777
-46.8481
-45.6664
-47.0252
-11.8777
-27.5325
-144.3
145.624
-102.429
-101.657
-48.5405
4.53566
-58.4579
-51.62
-53.7078
-70.243
-52.192
-51.8049
-49.3177
-45.6827
-45.3807
-44.9285
-48.4721
-44.0052
-64.2249
-61.0352
-59.9919
-62.3686
-36.304
-33.2993
-92.4971
92.5147
-36.8393
-35.7863
-39.6733
-20.8881
-38.5031
-35.1216
-36.0601
-39.053
-47.2278
-47.837
-47.7956
-46.5355
-12.8849
-29.3022
-144.313
145.775
-53.2839
-51.4887
-51.2043
-64.0332
-48.3325
-47.2316
-45.5623
-42.7571
-62.3435
-59.1189
-57.5963
-61.8464
-36.3744
-35.2757
-39.0852
-20.7199
-43.9038
-45.0513
-44.8787
-43.3042
-36.9646
-37.5515
-38.7736
-34.7391
-44.5046
-46.6179
-44.8961
-45.7098
-47.3951
-47.3238
-49.4563
-45.724
-43.4895
-44.3183
-43.4069
-44.3977
-26.8521
-29.336
-29.964
-38.524
-58.1968
-55.2834
-54.9143
-60.1142
34.4063
34.2479
64.2702
-63.2999
-55.7801
-55.5177
-57.897
-54.1555
-36.8244
-37.3914
-38.3972
-34.7785
-44.1291
-46.1791
-44.5072
-45.279
-42.0778
-42.8723
-42.0711
-42.8811
-57.3239
-54.3663
-54.0124
-59.1925
-54.5859
-51.9192
-51.0259
-49.4909
-54.0462
-51.3083
-50.4061
-48.954
-73.8894
-75.2389
-73.8066
-69.1259
0.859775
7.4203
7.38949
15.566
203.141
202.468
202.522
203.758
-44.1309
-45.3174
-44.6808
-45.8246
-43.4307
-44.6528
-43.8714
-45.0747
-35.9476
-37.7223
-34.4924
-36.4445
-84.6526
-92.0914
-79.4444
-84.4937
-53.2064
-55.4443
-52.5815
-53.2329
-50.587
-52.9367
-49.9965
-50.8045
-59.8445
-61.439
-61.2017
-64.9863
-44.9667
-46.4668
-45.7535
-47.1027
-41.3816
-41.6705
-40.3916
-40.1978
-0.0346751
61.5741
-141.236
137.316
-95.3861
-102.224
-59.2531
1.44369
-68.5697
-57.8278
-64.7997
-70.6243
-53.325
-52.3857
-50.7232
-46.4491
-47.0074
-46.1849
-49.0095
-45.3748
-49.4234
-58.6659
-51.5287
-53.787
-23.4788
-21.959
-139.374
130.981
-21.5807
-43.6024
-92.8769
56.1975
-61.6636
-42.6052
-54.3647
-41.1331
-50.4587
-51.4163
-48.3352
-45.0994
-41.9933
-40.884
-40.6901
-42.2958
-46.3893
-46.6456
-46.6217
-45.1288
-97.837
-104.031
-61.5321
3.26185
-0.505682
60.7522
-141.426
137.639
-68.728
-58.4542
-64.8659
-72.3095
-45.3734
-44.961
-49.5878
-44.0366
-50.546
-49.3891
-47.9572
-44.2553
-48.2395
-57.3455
-50.1657
-52.6643
-21.6703
-35.181
-93.8668
67.0791
-15.0798
-23.4376
-137.713
138.798
-60.8677
-42.1228
-53.3734
-40.9781
-32.8684
-33.3216
-32.2044
-33.9266
-44.635
-46.163
-43.5627
-40.0489
-41.4262
-42.6289
-42.4356
-39.8787
-47.7275
-50.9146
-48.1292
-57.0383
-41.0355
-37.6075
-38.7709
-37.8771
-42.2189
-43.0911
-42.4586
-42.7122
-44.9642
-46.2908
-47.5189
-43.9877
-51.6803
-57.7983
-56.911
-61.7968
-33.3623
-33.5789
-37.6204
-28.1462
-39.1778
-41.6046
-40.1272
-44.7167
-19.7592
-23.481
-24.7855
-35.3676
-52.3568
-39.9604
-46.0001
-27.5436
-56.0293
-50.2102
-50.9363
-53.3707
-65.5189
-61.7743
-60.4856
-72.1093
-15.3068
37.22
50.0924
-46.9636
-47.1904
-48.505
-47.5198
-46.1649
-46.3242
-45.144
-45.5228
-45.9398
-50.0269
-52.5451
-49.6825
-53.1624
-54.6775
-54.4759
-54.7513
-52.1857
-48.0416
-49.2306
-48.4578
-57.7044
-45.5897
-47.1044
-48.2239
-44.4404
-41.002
-37.5318
-38.577
-37.8675
-42.014
-42.7999
-42.2048
-42.4521
-49.7094
-55.6966
-54.8411
-58.3925
-19.8567
-28.691
-27.7871
-37.975
-31.4099
-33.4946
-36.6112
-30.2025
-37.8913
-40.2534
-38.848
-43.2151
-51.9521
-39.3724
-45.4294
-26.8577
-15.6804
36.6502
51.0431
-47.7374
-55.4643
-49.7163
-50.4382
-52.8225
-64.827
-60.9857
-59.766
-71.2658
-45.208
-46.2018
-45.4282
-44.1927
-53.2601
-53.7404
-53.8498
-51.1806
-44.8053
-43.6246
-44.0902
-44.3418
-48.8508
-51.5422
-48.6021
-52.0817
-81.3673
-63.5886
-70.5334
-66.9662
189.654
201.549
195.789
198.65
-120.764
-79.8756
-95.1592
-96.1891
147.514
203.829
200.439
200.202
-51.7761
-51.788
-54.3853
-49.8039
-84.3752
-80.6228
-80.5115
-74.6447
-48.1948
-48.9439
-48.6252
-48.1766
-43.6436
-42.8786
-43.8695
-43.3454
-51.2345
-56.4524
-53.4002
-53.8468
-42.959
-42.9245
-43.1473
-42.7377
-57.8259
-56.1118
-56.4022
-58.5437
-62.3024
-63.616
-64.9735
-63.6431
-40.069
-16.7402
-27.2877
-27.4306
162.945
194.352
183.882
175.664
-44.1179
-47.6119
-45.0691
-47.6768
-4.53482
3.63476
-6.52388
5.79084
-35.5464
-40.6234
-37.5297
-35.7854
-39.7663
-39.8918
-38.79
-40.6746
-48.6939
-50.3357
-49.0716
-49.5718
-47.6487
-46.7566
-47.6258
-46.8683
-81.2242
-63.0629
-70.1402
-66.6137
190.068
201.597
198.88
195.898
-50.8317
-51.06
-53.5216
-49.1847
-81.6134
-76.6341
-78.9404
-70.9475
-45.0901
-46.2907
-45.1573
-46.0241
-40.93
-40.6293
-42.6377
-40.3468
-55.6146
-53.7367
-54.1754
-56.0857
-62.9137
-62.6128
-62.6768
-66.4278
-43.4764
-46.9595
-47.1326
-44.4371
-4.68613
3.40872
5.43344
-6.69161
-45.8937
-47.7085
-47.0492
-46.1772
-44.9282
-44.7793
-43.9102
-45.6595
-40.7508
-42.4042
-41.9947
-41.4097
-34.7401
-35.1942
-35.9998
-33.3185
-44.1766
-46.7637
-44.9009
-44.4706
-45.8667
-45.8119
-44.8052
-46.9676
-56.1604
-62.889
-58.8478
-60.5369
-41.3879
-39.6131
-40.264
-39.8901
-43.2993
-44.0926
-42.8941
-44.2937
-46.4487
-50.8779
-50.0846
-48.5407
-30.9348
-32.7453
-32.5755
-31.608
-56.8837
-57.3571
-59.5655
-57.5338
-51.4441
-47.9634
-48.8624
-50.4859
-68.866
-80.9024
-81.1702
-72.964
42.8635
27.6123
30.6079
31.6479
-142.232
-111.011
-127.035
-126.882
-63.0186
-70.0321
-65.9422
-65.7571
-51.1651
-48.8521
-49.9636
-49.6132
-40.2459
-41.7918
-41.485
-40.7723
-35.0602
-35.527
-35.9963
-33.8075
-43.8133
-46.3758
-44.0893
-44.5577
-45.3737
-45.2435
-44.3074
-46.4126
-42.1593
-43.1375
-43.2387
-41.8644
-44.6533
-48.7634
-48.0877
-46.5515
-50.7765
-47.2624
-49.7641
-47.9058
-68.1252
-80.4653
-72.3565
-80.5856
-81.7674
-68.2972
-70.5813
-63.937
-46.8119
-43.4826
-48.9445
-46.1232
-44.141
-46.376
-44.057
-44.7365
-75.949
-59.5525
-63.5176
-54.9116
-81.6605
-68.1297
-70.2605
-63.4657
-74.9857
-58.4937
-62.9782
-54.1736
-43.6482
-45.9417
-43.5377
-44.3403
-46.5527
-43.2037
-48.5968
-45.7899
-103.386
-76.8286
-88.1113
-62.9411
-102.967
-77.8068
-89.9377
-64.9557
-58.9718
-53.5528
-63.0955
-58.78
-59.0387
-53.4666
-66.5068
-59.7898
-45.4752
-34.1039
-29.478
-22.5867
9.75453
25.7529
16.2565
25.4621
10.0953
29.0621
15.2909
25.8472
-45.5381
-34.156
-29.6198
-22.6825
184.844
156.81
195.624
199.769
177.404
172.21
191.01
179.175
171.387
178.121
175.801
191.641
162.434
184.18
199.373
195.903
-41.3797
-42.2326
-42.0423
-42.8787
-39.3805
-39.9411
-40.7344
-41.0645
-46.2639
-48.36
-45.9034
-47.7269
-53.1654
-55.3537
-50.2607
-52.0832
-41.0632
-41.9104
-41.6379
-42.4739
-52.5689
-54.6894
-49.6574
-51.4242
-45.0992
-47.2743
-44.832
-46.7302
-38.4148
-38.8269
-39.8978
-40.0696
-38.9284
-40.8704
-38.0953
-39.6114
-41.3369
-39.2566
-40.0614
-38.1132
-28.3473
-29.2695
-31.6084
-31.2921
-28.5816
-27.6559
-30.5648
-30.1516
-98.22
-135.37
-96.8954
-122.615
-58.5313
-59.1186
-64.6817
-64.0029
-58.3596
-57.6261
-63.48
-64.0258
-134.212
-97.3189
-122.022
-96.2019
-54.4355
-50.143
-54.0895
-52.2034
-48.7753
-50.1001
-49.3356
-52.2152
-47.4919
-47.1606
-47.7763
-47.8663
-47.8856
-47.1561
-48.8653
-48.3309
-52.4659
-48.3004
-52.0841
-50.2586
-45.8297
-45.2808
-46.6821
-46.3202
-43.5737
-43.3373
-44.3854
-44.5647
-46.5131
-48.2103
-47.1083
-50.2471
-63.437
-63.8873
-65.914
-63.5661
-56.8124
-54.4443
-60.0085
-46.9331
-50.9161
-53.1741
-53.2908
-57.1284
-51.8101
-54.7157
-53.9988
-58.6454
-49.4649
-50.8556
-48.604
-49.8032
-39.4373
-43.4038
-40.0206
-46.5684
-34.0107
-37.8594
-35.6522
-41.7349
-48.0562
-49.728
-47.2196
-48.8431
-44.1869
-44.0156
-44.2381
-43.9091
-43.0036
-42.7127
-43.1075
-43.6607
-36.1016
-36.9858
-37.8515
-38.5887
-43.1155
-42.4816
-43.0146
-42.0507
-139.683
115.62
-64.7369
35.6295
-82.6182
-83.4982
-50.648
-47.1767
-48.783
-46.9935
-49.0959
-49.578
-133.3
100.837
-96.7096
54.6439
-83.8898
-70.7082
-47.2682
-44.6067
-41.6038
-42.6065
-46.5582
-45.0724
-66.7675
35.3327
-139.772
116.091
-82.7095
-83.8697
-48.3243
-44.9308
-48.3533
-45.0461
-47.3298
-48.3367
-97.0915
55.0363
-130.042
107.977
-81.5421
-70.7238
-34.9473
-34.6133
-41.9189
-38.7186
-41.3153
-38.6172
-41.4489
-44.5998
-40.4228
-44.0201
-41.8852
-41.8885
-44.755
-43.1791
-53.9439
-79.7491
-35.8508
-26.6641
-38.7937
-47.0719
-22.6785
-34.7419
-57.8027
-60.2223
-57.3688
-59.6917
-63.2553
-80.7366
-61.9756
-131.945
-47.0928
-48.6522
-46.9383
-46.8461
-47.9331
-50.6734
-51.2382
-49.6724
-41.3148
-44.2491
-44.1138
-43.7984
-40.3121
-44.8559
-41.7066
-41.7763
-52.0965
-77.3129
-20.3813
-34.053
-34.4837
-23.5493
-37.5455
-45.7357
-57.1263
-59.873
-61.0732
-129.552
-56.7669
-59.0734
-62.5129
-80.0028
-45.271
-46.746
-49.8477
-47.859
-45.5178
-45.2039
-46.6421
-49.3986
-139.873
135.408
-145.072
140.866
-110.669
-107.2
175.352
176.911
-49.853
-0.203127
-50.4801
1.72218
-82.1002
-79.0572
98.3647
98.556
-56.9479
-47.5028
-49.2504
-55.138
-54.6345
-49.8987
-64.9023
-67.4538
-50.1476
-46.0712
-48.961
-45.0627
-48.6449
-48.3905
-44.2559
-43.9004
-48.6362
-44.5961
-48.4288
-43.8199
-49.544
-49.4677
-43.5902
-43.1611
-63.3526
-69.1257
-55.6981
-61.3221
-57.7195
-59.821
-64.1946
-62.4792
-92.4717
103.636
-93.2385
108.623
-59.8362
-60.6581
166.218
179.379
-45.6052
-28.8698
-40.7027
-18.8548
-41.6963
-44.6802
-16.7267
-6.60529
-38.9843
-41.4359
-32.6617
-35.8639
-36.8461
-33.6355
-39.3736
-41.3564
-47.19
-45.8536
-48.4772
-48.7595
-47.9588
-48.4675
-47.2094
-47.1097
-139.73
136.399
-144.262
142.014
-110.374
-106.773
177.51
176.036
-55.6693
-52.4646
-48.9349
-54.9961
-52.9784
-49.3706
-56.9647
-66.638
-47.0378
-43.7579
-44.7052
-41.029
-44.7774
-45.5273
-42.694
-40.8241
-61.4955
-68.3627
-53.6042
-58.4573
-55.6353
-56.5325
-61.1575
-66.7669
-44.9134
-28.7136
-40.0918
-18.5704
-44.0077
-41.0576
-6.62491
-16.7213
-43.6835
-41.825
-46.0004
-46.666
-45.8152
-44.8382
-43.4965
-44.5712
-39.5542
-36.6103
-37.5554
-32.4088
-40.5189
-40.0208
-35.4904
-33.572
-43.3634
-43.8931
-47.2745
-48.6639
-43.7712
-45.0292
-44.7792
-47.0635
-48.7104
-45.081
-50.6946
-45.2293
-52.6634
-52.1512
-43.5158
-43.1449
-42.0155
-44.0234
-44.5271
-45.2564
-42.5491
-43.8562
-44.7611
-45.9412
-26.9231
-35.4404
-30.7007
-39.8336
-31.0919
-28.9994
-55.7385
-51.6602
-57.5052
-65.5471
-52.5902
-57.8729
-52.7331
-54.5298
-67.2606
-62.886
62.3742
-48.3801
62.0361
-48.4687
60.0027
59.5231
-144.021
-143.913
-57.1442
-53.8019
-56.6866
-53.2625
-60.003
-59.7876
-52.6764
-52.3749
-39.2623
-36.6949
-37.1199
-32.8225
-40.091
-39.4764
-35.7071
-33.8814
-43.0459
-43.5465
-46.8293
-48.1765
-44.6281
-43.4232
-44.3572
-46.5753
-40.7129
-42.5346
-43.1732
-43.6937
-42.6231
-41.3168
-43.1865
-44.2635
-56.7135
-64.662
-51.6582
-56.8852
-53.7175
-51.9335
-61.9326
-66.3474
-58.6429
-58.0094
-54.705
-49.7212
-48.3647
-52.3188
-48.8285
-47.65
-58.1269
-57.5311
-54.069
-49.1486
-51.9181
-47.7006
-47.1916
-48.3367
-70.9859
-72.3052
-74.6271
-72.2785
-75.126
-69.4832
-64.8917
-65.7624
-7.52117
-7.59652
-0.881364
12.764
12.6786
-0.99539
22.2067
22.4342
201.142
204.014
202.734
202.54
201.541
201.025
203.769
200.991