# vtk DataFile Version 2.0
tet_velo
ASCII
DATASET UNSTRUCTURED_GRID
POINTS 29498 float
-0.705 0.195 -2.13196
-0.563616 0.315 2.215
-0.720978 0.725 -2.025
-0.555 1.055 2.13835
0.705 0.195 -2.13196
0.555796 0.315 2.225
0.720988 0.725 -2.025
0.555 1.055 2.13838
-0.680553 0.212319 -0.682973
-0.671018 0.214726 0.766013
-0.781871 0.951219 -0.637217
-0.753946 1.08862 0.750567
0.677947 0.212318 -0.67964
0.665804 0.214726 0.77268
0.781911 0.951252 -0.637207
0.753948 1.08862 0.750587
-1.42789 -0.242752 -3.28569
-1.42384 -0.160797 -2.15057
-1.39763 -0.145198 -0.699764
-1.34492 -0.15542 0.763272
-1.2531 -0.0976961 2.21512
-1.23523 -0.0464204 3.35532
-1.24965 0.000686195 4.48623
-1.43062 0.0817838 -3.25476
-1.43366 0.186584 -2.12635
-1.41208 0.233796 -0.687884
-1.34609 0.238628 0.755856
-1.21035 0.290414 2.19549
-1.20642 0.340153 3.33472
-1.23515 0.387137 4.46768
-1.43933 0.692988 -3.17534
-1.46032 0.793648 -2.04408
-1.48515 0.97165 -0.647396
-1.41042 1.07176 0.744649
-1.22609 1.0682 2.14228
-1.21629 1.11293 3.28249
-1.24494 1.16485 4.42448
-1.43171 1.75735 -3.10393
-1.44342 1.87845 -1.98224
-1.45609 2.07471 -0.605554
-1.44024 2.22916 0.757442
-1.38756 2.29222 2.13426
-1.34872 2.3224 3.25626
-1.33107 2.36008 4.39137
-0.713502 -0.238981 -3.2892
-0.711805 -0.15286 -2.15566
-0.693265 -0.155361 -0.69774
-0.679388 -0.171874 0.77308
-0.62468 -0.0892904 2.23124
-0.608645 -0.0416876 3.36679
-0.616217 0.000900169 4.49357
-0.710444 0.0773908 -3.25561
-0.583236 0.345814 3.34404
-0.604509 0.387124 4.47347
-0.713164 0.662419 -3.16725
-0.587413 1.1087 3.28237
-0.611611 1.16196 4.42553
-0.705089 1.73489 -3.0958
-0.713106 1.85656 -1.97331
-0.732933 2.06773 -0.599888
-0.74565 2.23483 0.757577
-0.725353 2.29478 2.13083
-0.695828 2.32153 3.25294
-0.678846 2.35847 4.38935
0.708222 -0.238978 -3.28846
0.69507 -0.152858 -2.15472
0.678651 -0.15536 -0.694596
0.649043 -0.171873 0.778907
0.577664 -0.0892899 2.23906
0.601787 -0.0416869 3.37292
0.627468 0.000901626 4.49832
0.716228 0.0773941 -3.25519
0.59788 0.345814 3.34999
0.626788 0.387125 4.47798
0.730138 0.662423 -3.16697
0.597295 1.1087 3.28518
0.62442 1.16197 4.42886
0.749482 1.7349 -3.09509
0.751849 1.85657 -1.97264
0.732718 2.06774 -0.599068
0.672583 2.23484 0.758655
0.612356 2.29478 2.13228
0.60749 2.32153 3.25487
0.619549 2.35847 4.39172
1.422 -0.242742 -3.28385
1.41145 -0.160787 -2.14823
1.38747 -0.145191 -0.694415
1.33208 -0.155417 0.77259
1.23694 -0.0976945 2.22707
1.23709 -0.0464182 3.36598
1.26315 0.000689123 4.49519
1.43309 0.0817941 -3.25348
1.43012 0.186596 -2.12502
1.41008 0.233807 -0.683375
1.35114 0.23863 0.76445
1.22066 0.290415 2.20708
1.2258 0.340155 3.34483
1.25809 0.38714 4.4762
1.45433 0.693001 -3.17442
1.46436 0.793666 -2.04349
1.48808 0.971682 -0.645749
1.41657 1.07176 0.747834
1.2355 1.0682 2.14674
1.22912 1.11293 3.28857
1.25837 1.16485 4.43108
1.47203 1.75737 -3.10233
1.47571 1.87847 -1.98066
1.45538 2.07473 -0.603628
1.3835 2.22917 0.759963
1.2993 2.29223 2.13754
1.27483 2.32241 3.26034
1.27838 2.36008 4.39618
-0.708674 0.46 -2.07417
0 0.191407 -2.13555
-0.699647 0.196789 -1.40747
-0.601034 0.685 2.2184
-0.00390998 0.317992 2.21701
-0.643481 0.238699 1.49051
4.97699e-06 0.819881 -2.11988
-0.788443 0.875128 -1.33111
0 1.06154 2.14491
-0.702793 1.12013 1.44446
0.708865 0.46 -2.07435
0.698339 0.196793 -1.4058
0.595012 0.685 2.2213
0.6368 0.238864 1.49884
0.788437 0.875114 -1.3311
0.702661 1.12 1.44448
-0.675784 0.213524 0.04152
-0.844513 0.581769 -0.660095
-0.00130283 0.214175 -0.681307
-0.846842 0.651673 0.75829
-0.00260711 0.215597 0.769347
-0.770997 1.02301 0.056675
1.99344e-05 1.24398 -0.637212
9.53036e-07 1.42488 0.750577
0.671875 0.213523 0.04652
0.844502 0.581785 -0.658423
0.846895 0.651673 0.761633
0.771005 1.02301 0.05669
-0.829719 0.520884 -1.36929
-0.84707 0.616721 0.0490975
-0.844993 0.668336 1.46748
-0.000651415 0.194066 -1.40663
-0.00195497 0.214886 0.04402
-0.00325854 0.230573 1.49467
2.48849e-06 0.46 -2.27294
-0.00195499 0.685 2.31056
1.24557e-05 0.965281 -1.33111
1.04437e-05 1.4387 0.0566825
4.76518e-07 1.21911 1.44447
0.829725 0.520893 -1.36845
0.847081 0.616729 0.051605
0.844892 0.668336 1.47166
-1.06933 0.190792 -2.12916
-0.708402 0.0210702 -2.14381
-0.707722 0.136195 -2.69378
-0.886982 0.302707 2.20525
-0.594148 0.112855 2.22312
-0.573426 0.330407 2.77952
-1.09065 0.759324 -2.03454
-0.717071 0.693709 -2.59613
-0.717042 1.29078 -1.99916
-0.890543 1.0616 2.14032
-0.571206 1.08185 2.71036
-0.640177 1.67489 2.13459
0.700035 0.0210712 -2.14334
0.710614 0.136197 -2.69357
1.06756 0.190798 -2.12849
0.56673 0.112855 2.23203
0.576838 0.330407 2.7875
0.88823 0.302707 2.21604
0.725563 0.693712 -2.59598
0.736418 1.29078 -1.99882
1.09268 0.759333 -2.03424
0.576147 1.08185 2.71178
0.583678 1.67489 2.13533
0.895248 1.0616 2.14256
-1.04632 0.223058 -0.685429
-0.686909 0.0284791 -0.690357
-1.00855 0.226677 0.760935
-0.675203 0.021426 0.769547
-1.13351 0.961434 -0.642307
-0.757402 1.50947 -0.618552
-1.08218 1.08019 0.747608
-0.749798 1.66173 0.754072
0.678299 0.028479 -0.687118
1.04401 0.223062 -0.681508
0.657424 0.021427 0.775793
1.00847 0.226678 0.768565
0.757314 1.5095 -0.618138
1.13499 0.961467 -0.641478
0.713266 1.66173 0.754621
1.08526 1.08019 0.74921
-1.42587 -0.201774 -2.71813
-1.42925 -0.0804839 -3.27022
-1.0707 -0.240867 -3.28744
-1.41074 -0.152997 -1.42517
-1.42875 0.0128938 -2.13846
-1.06782 -0.156828 -2.15311
-1.37128 -0.150309 0.0317542
-1.40486 0.0442991 -0.693824
-1.04545 -0.150279 -0.698752
-1.29901 -0.126558 1.4892
-1.3455 0.0416042 0.759564
-1.01215 -0.163647 0.768176
-1.24416 -0.0720583 2.78522
-1.23172 0.0963587 2.2053
-0.93889 -0.0934933 2.22318
-1.24244 -0.0228671 3.92078
-1.22082 0.146866 3.34502
-0.921936 -0.044054 3.36106
-1.2424 0.193912 4.47696
-0.932934 0.000793182 4.4899
-1.43214 0.134184 -2.69056
-1.43497 0.387386 -3.21505
-1.07053 0.0795873 -3.25518
-1.42287 0.21019 -1.40712
-1.44699 0.490116 -2.08522
-1.37908 0.236212 0.0339862
-1.44862 0.602723 -0.66764
-1.27822 0.264521 1.47567
-1.37825 0.655192 0.750253
-1.20838 0.315283 2.76511
-1.21822 0.679308 2.16889
-1.22079 0.363645 3.9012
-1.21136 0.72654 3.30861
-0.894828 0.342983 3.33938
-1.24005 0.775993 4.44608
-0.919831 0.387131 4.47058
-1.44983 0.743318 -2.60971
-1.43552 1.22517 -3.13964
-1.07625 0.677703 -3.1713
-1.47274 0.882649 -1.34574
-1.45187 1.33605 -2.01316
-1.44779 1.0217 0.0486267
-1.47062 1.52318 -0.626475
-1.31825 1.06998 1.44347
-1.42533 1.65046 0.751046
-1.22119 1.09056 2.71239
-1.30682 1.68021 2.13827
-1.23062 1.13889 3.85349
-1.28251 1.71767 3.26937
-0.901853 1.11081 3.28243
-1.288 1.76246 4.40793
-0.928276 1.16341 4.425
-1.43756 1.8179 -2.54308
-1.0684 1.74612 -3.09987
-1.44975 1.97658 -1.2939
-1.07826 1.86751 -1.97777
-1.44817 2.15194 0.0759437
-1.09451 2.07122 -0.602721
-1.4139 2.26069 1.44585
-1.09294 2.232 0.757509
-1.36814 2.30731 2.69526
-1.05646 2.2935 2.13255
-1.33989 2.34124 3.82381
-1.02227 2.32197 3.2546
-1.00496 2.35927 4.39036
-0.712653 -0.195921 -2.72243
-0.711973 -0.0807953 -3.27241
-0.00263996 -0.23898 -3.28883
-0.702535 -0.15411 -1.4267
-0.00836744 -0.152859 -2.15519
-0.686326 -0.163617 0.0376697
-0.00730681 -0.155361 -0.696168
-0.652034 -0.130582 1.50216
-0.015172 -0.171873 0.775993
-0.616663 -0.065489 2.79901
-0.023508 -0.0892902 2.23515
-0.612431 -0.0203937 3.93018
-0.59594 0.152063 3.35541
-0.00342888 -0.0416873 3.36985
-0.610363 0.194012 4.48352
0.00562565 0.000900898 4.49595
-0.711804 0.369905 -3.21143
0.00289201 0.0773924 -3.2554
-0.593872 0.366469 3.90876
-0.585324 0.727257 3.3132
0.00732216 0.345814 3.34702
-0.60806 0.774544 4.4495
0.0111395 0.387125 4.47573
-0.709127 1.19865 -3.13153
0.00848734 0.662421 -3.16711
-0.599512 1.13533 3.85395
-0.64162 1.71511 3.26765
0.00494099 1.1087 3.28378
-0.645229 1.76022 4.40744
0.00640449 1.16196 4.4272
-0.709097 1.79572 -2.53456
0.0221965 1.73489 -3.09545
-0.723019 1.96214 -1.2866
0.0193715 1.85656 -1.97297
-0.739291 2.15128 0.0788445
-0.000107323 2.06773 -0.599478
-0.735502 2.26481 1.44421
-0.0365337 2.23484 0.758116
-0.710591 2.30815 2.69189
-0.0564986 2.29478 2.13156
-0.687337 2.34 3.82115
-0.0441689 2.32153 3.25391
-0.0296482 2.35847 4.39053
0.701646 -0.195918 -2.72159
0.712225 -0.0807918 -3.27182
1.06511 -0.24086 -3.28615
0.68686 -0.154109 -1.42466
1.05326 -0.156823 -2.15148
0.663847 -0.163616 0.0421552
1.03306 -0.150276 -0.694506
0.613354 -0.130581 1.50898
0.990561 -0.163645 0.775748
0.589726 -0.0654884 2.80599
0.9073 -0.0934922 2.23306
0.614628 -0.0203926 3.93562
0.599834 0.152064 3.36146
0.919439 -0.0440525 3.36945
0.627128 0.194013 4.48815
0.945307 0.000795375 4.49676
0.723183 0.369909 -3.21108
1.07466 0.0795941 -3.25433
0.612334 0.36647 3.91399
0.597588 0.727258 3.31759
0.911842 0.342985 3.34741
0.625604 0.774545 4.45342
0.942439 0.387133 4.47709
0.73981 1.19866 -3.13103
1.09223 0.677712 -3.1707
0.610858 1.13533 3.85702
0.602392 1.71512 3.27003
0.913207 1.11081 3.28688
0.621985 1.76022 4.41029
0.941396 1.16341 4.42997
0.750666 1.79573 -2.53386
1.11076 1.74613 -3.09871
0.742283 1.96215 -1.28585
1.11378 1.86752 -1.97665
0.70265 2.15129 0.0797932
1.09405 2.07124 -0.601348
0.642469 2.26481 1.44547
1.02804 2.23201 0.759309
0.609923 2.30816 2.69358
0.955829 2.2935 2.13491
0.61352 2.34 3.82329
0.941162 2.32197 3.25761
0.948967 2.35928 4.39395
1.41672 -0.201765 -2.71604
1.42755 -0.0804738 -3.26867
1.39946 -0.152989 -1.42132
1.42079 0.0129041 -2.13663
1.35977 -0.150304 0.0390875
1.39877 0.0443078 -0.688895
1.28451 -0.126556 1.49983
1.34161 0.0416067 0.76852
1.23701 -0.0720563 2.79652
1.2288 0.0963601 2.21707
1.25012 -0.0228645 3.93059
1.23145 0.146868 3.35541
1.26062 0.193915 4.48569
1.43161 0.134195 -2.68925
1.44371 0.387397 -3.21395
1.4201 0.210201 -1.4042
1.44724 0.490131 -2.08425
1.38061 0.236218 0.0405373
1.44908 0.602744 -0.664562
1.2859 0.264522 1.48577
1.38385 0.655195 0.756142
1.22323 0.315285 2.77596
1.22808 0.679309 2.17691
1.24195 0.363647 3.91051
1.22746 0.726542 3.3167
1.25823 0.775996 4.45364
1.45935 0.743334 -2.60896
1.46318 1.22519 -3.13838
1.47622 0.882674 -1.34462
[...]
POINT_DATA 29498
VECTORS point_vectors float
-4.23571 -5.35694 8.07556
-0.0833918 0.298808 1.13086
-1.9534 1.2358 3.37499
-0.0839889 -0.0961017 0.106246
4.2375 -5.35639 8.07462
0.0787427 0.362718 1.30401
1.95034 1.23373 3.37347
0.0830978 -0.0943421 0.103245
0 0 0
0 0 0
0 0 0
0 0 0
0 0 0
0 0 0
0 0 0
0 0 0
-0.524353 -0.314107 19.8337
-1.23445 -0.884989 20.5158
-0.321445 -0.546541 21.4422
0.174678 -0.169046 21.5963
0.834701 0.379764 21.4569
1.09523 0.438728 20.9378
0.895812 0.303894 21.2474
-0.672559 -0.258026 19.7281
-1.83817 -0.78637 20.4376
-0.608927 -0.724071 21.5315
0.0810987 -0.384505 21.7066
1.21546 0.162935 20.6972
1.47859 0.15233 20.2649
1.23699 0.177244 19.4135
-0.802173 0.0326143 19.6115
-2.11082 0.152192 20.3536
-1.31232 -0.349832 21.4593
-0.313575 -0.376179 21.819
0.6816 -0.745686 21.3975
1.018 -0.721184 20.8741
1.10553 -0.690893 19.9394
-0.527864 0.37111 19.8884
-0.918864 0.661818 20.3315
-0.85428 0.496051 21.11
-0.295151 0.028175 21.48
0.0702919 -0.270795 21.3351
0.203004 -0.394017 20.9786
0.0860926 -0.329503 21.045
-0.490783 -0.649474 19.3794
-1.57322 -3.17007 20.7649
0.0163103 -0.208453 21.3722
0.166602 0.21881 21.0862
0.389826 1.26021 19.8499
0.80034 1.64178 19.1114
1.0616 0.988875 16.7784
-0.643643 -0.546088 19.0255
1.25438 1.71826 10.0882
1.84363 1.34348 12.2543
-0.908497 0.0628936 18.5654
0.607448 -0.693346 5.61937
1.25011 -0.62037 13.7629
-0.436421 0.715097 19.5248
-0.895522 1.50737 20.0562
-1.01824 1.50503 21.2006
-0.338845 0.232314 21.8203
-0.0546081 -0.322248 21.5151
0.0986206 -0.451523 20.8658
-0.0422821 -0.332009 21.0776
0.489538 -0.643009 19.3835
1.54514 -3.23813 20.7951
0.000326984 -0.204512 21.4287
-0.144202 0.220621 20.9441
-0.31136 1.23097 19.5041
-0.786551 1.65781 19.1314
-1.06665 0.971441 16.8853
0.648262 -0.539615 19.0325
-1.3146 1.73191 10.3517
-1.85553 1.26591 12.2984
0.930669 0.0654778 18.6008
-0.622036 -0.699999 5.86572
-1.24278 -0.622181 14.1586
0.454708 0.68363 19.5502
0.913946 1.46012 20.0682
1.02009 1.50676 21.2018
0.324821 0.271264 21.8396
0.0491115 -0.30802 21.487
-0.0938445 -0.47657 20.8699
0.0365156 -0.334125 21.1939
0.530763 -0.316007 19.8263
1.24756 -0.900911 20.5162
0.315386 -0.550042 21.4495
-0.18351 -0.168852 21.6012
-0.844998 0.389354 21.4608
-1.09862 0.43922 20.9444
-0.89204 0.287092 21.2246
0.678742 -0.256984 19.7258
1.85248 -0.793723 20.4445
0.60961 -0.726598 21.5333
-0.0832828 -0.382439 21.7057
-1.20236 0.142412 20.76
-1.4141 0.118802 20.548
-1.21272 0.147009 19.6046
0.79469 0.0286907 19.6275
2.09791 0.144337 20.3585
1.30541 -0.347698 21.4623
0.30882 -0.37339 21.8127
-0.677024 -0.740296 21.4432
-0.991755 -0.713806 21.0208
-1.08632 -0.671374 20.0039
0.525372 0.350114 19.9041
0.902377 0.632532 20.3373
0.854361 0.495458 21.1138
0.309599 0.0445236 21.5082
-0.0612946 -0.288491 21.3892
-0.192251 -0.413845 20.9552
-0.0707598 -0.329716 21.0585
-1.78386 -0.00211179 1.94393
9.46347e-07 -0.12997 0.636073
0.00315968 0.000803306 0.0802342
-0.0105221 -0.0113649 -0.0028629
-0.00526302 0.0370893 0.159493
-0.00691936 0.0122921 0.306484
-0.00123108 1.12124 1.46638
-0.326899 -0.184635 0.99581
-0.000447413 0.0523998 -0.0836544
0.0233697 -0.0216707 0.146696
1.83636 -0.000855509 2.00493
-0.00462332 0.00106922 0.109852
0.0144231 -0.0103716 -0.00408061
0.00313322 0.00587005 0.145505
0.326677 -0.184157 0.995551
-0.0225315 -0.0208637 0.142258
-0.000240001 6.87836e-05 0.0144974
1.79997e-05 0.000257577 0.0132453
0 0 0
-0.000114143 0.00172837 0.0110451
0 0 0
0 0 0
1.02049e-05 0.00437209 0.00947187
-7.41895e-06 -0.00117646 0.0256483
4.70776e-05 1.31749e-05 0.00272799
-1.73701e-05 0.0002422 0.0123378
0.000141664 0.00210435 0.0134725
0 0 0
-0.00279632 -0.00971058 0.0585116
3.43088e-05 0.00474811 0.041424
0.00218333 0.00160473 0.033101
1.04684e-07 6.86623e-08 1.18311e-05
0 0 0
5.78823e-07 0.000374513 0.013134
0 0 0
0.00612001 -0.0100264 -0.000654563
0 0 0
-3.67835e-06 0.00213221 0.0322386
0 0 0
0.00279654 -0.00964544 0.0583873
-7.40284e-05 0.00485077 0.0423792
-0.00211852 0.00157803 0.0305498
-3.45529 -1.99651 20.2366
-2.5797 -5.28531 20.9989
-1.85981 -1.72765 17.9935
1.19061 1.13063 12.1125
0.132098 1.30723 12.8292
0.268258 1.08241 6.40999
-4.10861 0.788356 20.1681
-2.89291 0.857454 16.873
-2.15538 2.66036 19.7967
0.721313 -0.387574 11.865
-0.154303 -0.279298 2.58085
-0.0394494 -0.69631 20.414
2.54389 -5.37515 21.0309
1.863 -1.72116 17.9984
3.48079 -2.02171 20.2303
-0.0760151 1.2473 12.4465
-0.284161 1.08554 6.52947
-1.19101 1.13958 12.2403
2.88284 0.837196 16.9511
2.18091 2.5722 19.8091
4.09391 0.780781 20.1725
0.155096 -0.289922 2.62689
0.0566135 -0.645468 19.797
-0.737934 -0.377595 12.103
-0.188287 -0.989699 19.0234
0.25427 0.172896 15.9248
0.0761592 0.0490063 16.1613
0.157601 0.273198 15.9251
-2.09312 -0.939331 21.6461
-3.26797 2.34369 21.3023
-0.33494 -0.416263 20.2447
-0.612179 0.0772498 22.1262
-0.251665 0.181709 15.8413
0.18037 -0.982293 18.9418
-0.151223 0.268263 15.7608
-0.0734346 0.0461193 16.1572
3.26807 2.3349 21.3097
2.08305 -0.931092 21.6546
0.585622 0.0968491 21.9375
0.342608 -0.415929 20.262
-0.933052 -0.599384 19.978
-0.602579 -0.289753 19.797
-0.543554 -0.465031 19.6215
-0.799092 -0.789911 21.2609
-1.53351 -0.867717 20.4751
-1.60271 -1.73765 20.5497
-0.0491389 -0.358848 21.4993
-0.443937 -0.650166 21.4783
-0.0396409 -0.57539 21.6254
0.500272 0.0935792 21.653
0.169536 -0.267673 21.6709
0.301767 -0.0211989 21.5777
0.987425 0.44804 21.1974
1.07202 0.326165 21.2319
0.871059 0.901209 21.1471
1.10152 0.364033 20.7706
1.23484 0.327871 21.1371
1.20931 1.10067 20.5571
1.01878 0.22079 21.4167
1.03131 0.729745 20.4735
-1.24792 -0.509962 19.7933
-0.770882 -0.145505 19.6247
-0.743325 -0.429733 19.4345
-1.23622 -0.830855 21.3561
-2.16047 -0.360981 20.3778
-0.215436 -0.563805 21.6514
-0.990324 -0.639464 21.5375
0.601265 -0.155881 21.7111
-0.106626 -0.428818 21.8092
1.3738 0.177523 20.5602
1.19281 -0.350773 20.521
1.67746 0.114572 20.007
1.48871 -0.286118 20.4393
1.68961 1.27094 16.5248
1.35575 -0.648924 19.7365
1.5726 0.747059 15.721
-1.50893 0.118884 19.6757
-0.703246 0.275464 19.7128
-0.946534 0.0517935 19.1682
-1.7412 -0.122095 21.1164
-1.47383 0.631646 20.2857
-0.814741 -0.406365 21.7363
-1.31785 0.282621 21.2806
0.253961 -0.503912 21.8151
-0.398357 -0.10595 21.7027
0.888167 -0.797025 21.2071
0.192379 -0.513402 21.4693
1.00284 -0.65531 21.0725
0.356257 -0.69238 20.9088
1.42479 -0.911913 16.7507
0.236825 -0.337556 21.3906
1.17695 -1.03978 18.4316
-0.752797 0.552428 20.0372
-0.541582 0.525177 19.7045
-0.95979 0.628924 20.7294
-0.99641 1.04461 20.1983
-0.596918 0.282383 21.3897
-1.03724 0.906329 21.2014
-0.0742173 -0.151535 21.4129
-0.339051 0.135932 21.6249
0.136225 -0.338128 21.2111
0.0276773 -0.317668 21.3559
0.104884 -0.315838 21.2317
0.157588 -0.50637 20.9516
0.0199555 -0.332281 21.0411
-1.08808 -1.63507 19.185
-0.571459 -0.606742 19.1871
-0.0041872 -0.803059 19.1376
-0.393584 -1.02113 22.1716
-0.0195656 -4.373 21.469
0.0897297 -0.000741514 21.1281
-0.00539287 -0.285379 20.8013
0.280185 0.71056 20.7634
-0.0021517 0.0797495 19.7444
0.565465 1.43061 19.656
0.000908468 0.9242 17.9092
0.604939 1.67013 19.9394
0.965379 1.90876 15.5696
0.0019863 1.56843 17.7786
1.45027 1.1672 14.5304
-0.0180437 1.75709 17.338
-0.836619 -0.237146 18.6616
0.0020832 -0.791192 18.5987
1.76653 1.59793 11.2657
2.07743 0.178629 5.06788
0.00166835 1.01761 3.47551
1.89059 0.468197 11.4515
-0.0419817 1.65787 11.3505
-0.723489 0.679467 18.9859
0.0105904 0.145671 17.8882
1.21635 -0.900424 8.22195
0.115135 -0.979946 20.0636
0.00432025 0.416481 -4.16611
0.257977 -0.924398 18.574
0.00362201 -0.0688036 1.31867
-0.695064 1.19187 19.6459
0.0130111 0.879644 19.3199
-1.04246 1.58795 20.525
0.0338894 2.05432 19.8934
-0.705854 0.900254 21.7586
-0.000716561 2.27996 21.1951
-0.155502 -0.133775 21.6313
-0.026316 0.439409 21.9425
0.0235466 -0.450325 21.4189
-0.00167176 -0.24849 21.4222
0.100302 -0.657607 20.284
0.0148669 -0.547194 20.9719
-0.00650393 -0.432666 21.1017
1.08424 -1.65194 19.1797
0.57281 -0.602435 19.1895
0.548338 -0.466815 19.6225
0.396692 -1.01216 22.1981
1.62106 -1.79336 20.5554
-0.0736831 0.00479381 21.0855
0.0302712 -0.570769 21.6311
-0.241333 0.706814 20.6112
-0.303863 -0.00198304 21.6006
-0.514294 1.43699 19.498
-0.844757 0.984188 20.9976
-0.583857 1.66756 19.976
-0.983811 1.91454 15.6193
-1.20187 1.11166 20.5261
-1.46494 1.11305 14.565
-1.03988 0.718426 20.6217
0.851722 -0.235745 18.6811
0.748455 -0.434386 19.4331
-1.79597 1.55884 11.3353
-2.10147 0.163201 5.36913
-1.67609 1.21261 16.7177
-1.87408 0.452581 11.9904
-1.54197 0.704875 15.9251
0.747843 0.658729 19.0246
0.950144 0.0491019 19.1863
-1.24676 -0.910792 8.44134
-0.0941366 -0.977685 20.0091
-1.41065 -0.91718 17.0381
-0.258679 -0.927092 18.5822
-1.17032 -1.02128 18.5081
0.708196 1.13659 19.6872
0.53595 0.518527 19.7343
1.063 1.55501 20.5321
0.992251 0.999016 20.2198
0.694249 0.941621 21.7766
1.03788 0.905797 21.2014
0.148532 -0.120032 21.6285
0.353816 0.14584 21.6558
-0.0204381 -0.433535 21.3567
-9.61743e-05 -0.328239 21.3907
-0.0884438 -0.624541 20.3278
-0.14284 -0.475239 20.9126
-0.00843661 -0.322345 21.0515
0.946447 -0.60486 19.961
0.610444 -0.290761 19.7918
0.797924 -0.805886 21.2717
1.55282 -0.883991 20.482
0.0425317 -0.361989 21.5042
0.441493 -0.655663 21.4836
-0.509261 0.101649 21.6554
-0.171287 -0.267783 21.6728
-0.988484 0.459427 21.1845
-1.07057 0.323029 21.2148
-1.08241 0.360773 20.7766
-1.22378 0.30642 21.1318
-1.01744 0.199254 21.394
1.25613 -0.51446 19.7816
0.766048 -0.14536 19.6376
1.23508 -0.835032 21.3635
2.16132 -0.361379 20.3892
0.213543 -0.562102 21.6513
0.988739 -0.637002 21.5411
-0.604855 -0.153578 21.7176
0.104427 -0.426472 21.8155
-1.35275 0.137427 20.7118
-1.17219 -0.367666 20.6866
-1.64542 0.119144 20.0424
-1.45248 -0.296137 20.8422
-1.32959 -0.673065 19.9633
1.49382 0.110337 19.6919
0.69669 0.261769 19.7348
1.73197 -0.123477 21.1177
1.45631 0.59936 20.2986
0.807217 -0.402525 21.7335
1.31769 0.280584 21.2818
-0.259081 -0.499907 21.8065
0.404146 -0.106341 21.7236
-0.883203 -0.785939 21.2211
-0.186557 -0.531126 21.4724
-0.956357 -0.636474 21.1691
-0.345443 -0.710012 20.9817
-0.236752 -0.361384 21.281
0.744535 0.516857 20.0611
0.95488 0.613584 20.7356
0.6064 0.301045 21.3991
0.0678062 -0.161281 21.4667
-0.108667 -0.3407 21.213
-0.0942034 -0.350254 21.2878
-1.09171 -0.578125 19.8917
-1.45279 -1.75705 18.6929
-1.08874 -1.01165 19.6707
-1.66939 -0.959191 19.1326
-0.669882 -0.463937 19.5261
-2.3642 -2.03352 20.4692
-1.0083 -0.838064 21.3183
-0.146611 -0.315555 18.3778
-0.620943 -1.09605 21.6379
-1.24334 -1.7454 21.8557
0.0173663 -0.828099 21.3842
-0.0924042 -0.455572 21.5718
0.140622 0.185064 15.7086
0.160119 -0.289359 21.5623
0.0496907 -0.314893 17.1732
0.334891 -0.0675391 20.2251
0.585393 -0.00978289 21.7085
0.126848 0.676463 14.3168
0.576662 0.440883 21.491
0.439836 0.657776 13.5465
1.05091 1.2065 18.1417
1.21426 0.361364 21.0649
0.388175 1.5408 14.0957
1.0401 1.04792 20.8384
1.46194 1.10019 14.4163
1.43404 1.42994 18.0452
1.45528 0.261279 20.3926
1.01339 1.58432 15.7923
0.938831 0.921463 21.0857
1.61911 0.679442 17.1147
1.34336 0.783746 18.0774
-1.45105 -0.250568 19.6779
-2.74886 -0.764448 16.8374
-2.26701 0.374444 18.8065
-0.895578 -0.185915 19.2088
-4.74988 -0.663088 20.1457
-1.61138 -0.531947 21.3003
-2.64521 -0.350458 21.4888
-0.923373 -1.20251 20.274
-0.50429 -0.556942 21.75
-1.16732 -0.883561 21.0329
0.0262674 0.0718266 16.523
0.523767 -0.393427 21.6669
0.636379 0.132025 16.8105
1.12029 -0.0632163 8.70699
1.33529 -0.385206 20.6549
0.309109 0.228036 1.8892
0.913642 -0.545527 14.3127
2.19181 -0.17732 12.8753
1.3651 -0.347078 20.7154
2.01413 0.557136 8.0752
1.42758 -1.11103 17.4094
1.69117 -0.0776791 16.0563
-1.14294 0.511499 19.8399
-1.48253 1.71944 18.7528
-0.779112 0.840374 19.8519
-0.7713 0.451095 19.385
-1.98806 1.36379 20.0749
-1.4901 0.479375 20.83
-2.40462 2.12585 20.358
-1.09272 1.03289 20.6627
-2.08562 0.712397 21.4176
-0.900137 0.0885171 21.625
-2.01457 1.08659 22.547
-0.724088 0.548082 21.5792
-0.541746 -0.043464 21.9706
-0.0141033 -0.326517 21.6403
-0.0917554 -0.531299 21.1145
-0.0977858 -0.160791 21.5207
0.0884098 -0.658967 21.5447
0.30392 -0.598924 21.377
0.0415693 -0.825995 20.387
0.0895931 -0.411919 21.2452
0.252146 -0.853721 21.5586
0.770876 -0.546104 20.2527
0.279821 -0.987409 19.0675
0.0657746 -0.458337 21.1684
0.247592 -0.663903 19.816
1.4526 -1.76008 18.6869
-0.0132669 -2.44156 18.6586
0.00548464 -2.87106 16.32
-0.00260476 -0.853873 18.8249
-0.00785718 -6.4854 23.4043
0.16296 -0.298412 18.1948
-0.0102377 -1.17302 22.4228
0.000903761 0.0645785 11.4782
-0.13773 0.182839 15.5779
-0.00374636 -0.109226 20.0116
0.00126853 0.078921 12.2626
-0.113582 0.659646 14.0952
0.000667416 0.493989 18.7615
-0.00962355 0.634346 9.14845
-0.359026 1.50869 13.9302
-0.000607071 0.997011 17.3106
-0.00249003 -0.583215 0.857452
-0.00211601 1.76127 11.2149
-1.01611 1.56191 15.8491
-0.00588821 2.06477 17.814
-0.0174354 1.02809 4.72592
-0.0349953 1.71032 14.3551
2.75244 -0.756607 16.8688
0.0256375 2.11917 13.9206
0.00796799 -0.317903 18.0751
-0.312583 0.221619 1.96775
0.0118408 0.730799 -4.66209
-0.0335592 0.304789 -3.16965
-2.0048 0.544364 8.30389
0.0183762 0.134057 -1.98798
-0.0256055 0.902078 2.12322
1.50926 1.68372 18.8014
0.0297957 1.5665 19.4144
0.0135112 0.926334 18.5697
0.0286661 4.08398 19.4311
2.40702 2.0894 20.3681
0.0182233 2.24099 20.3331
-0.00165767 5.22008 20.69
2.04375 1.14466 22.5744
-0.0211188 1.44004 21.9795
-0.0295173 0.59455 21.5886
0.091239 -0.544233 20.8213
-0.0115303 -0.0415399 21.663
-0.0273791 -0.165566 16.6909
-0.00549653 -0.794494 20.3243
-0.00263878 -0.413011 21.4118
-0.0126331 -0.79907 17.9578
-0.280661 -0.992325 19.1144
-0.00364538 -0.558708 20.4941
0.011381 -0.989601 18.7644
1.11034 -0.58148 19.8713
1.0996 -1.03698 19.6629
1.67262 -0.963487 19.1322
0.675647 -0.469956 19.5202
2.38701 -2.07611 20.4678
1.00682 -0.849623 21.3292
0.609332 -1.09971 21.6534
1.23402 -1.74823 21.8439
-0.0308331 -0.832942 21.3409
0.090056 -0.460097 21.5723
-0.164366 -0.27757 21.5688
-0.0487026 -0.307428 17.1209
-0.328883 -0.0429972 20.0719
-0.592387 -0.00759834 21.7012
-0.563009 0.482614 21.475
-0.455994 0.664978 13.598
-1.02524 1.23976 17.9722
-1.20517 0.347434 21.0671
-1.0154 1.09058 20.7547
-1.47391 1.07401 14.6543
-1.43 1.40615 18.1173
-1.44535 0.257688 20.3957
-0.938972 0.902939 21.1199
-1.61743 0.625189 17.5611
-1.32748 0.748643 18.277
1.44657 -0.249953 19.6939
2.24777 0.362374 18.8357
0.898888 -0.184764 19.2209
4.76427 -0.668231 20.1438
1.60997 -0.533633 21.3045
2.63767 -0.349599 21.484
0.919752 -1.20199 20.2656
0.503767 -0.5535 21.7486
1.16549 -0.876583 21.0397
-0.0244167 0.0597676 16.6143
-0.524022 -0.391023 21.6768
-0.635257 0.0911614 17.0507
-1.09417 -0.0608863 8.82174
-1.31669 -0.389131 20.735
-0.928237 -0.551044 14.6388
-2.16015 -0.181202 13.2067
-1.34737 -0.357866 20.8472
-1.425 -1.10017 17.5774
-1.66001 -0.112047 16.2711
1.12536 0.487234 19.8658
0.780541 0.81536 19.8808
0.772598 0.438632 19.4067
1.9663 1.31621 20.0899
1.4788 0.468009 20.8324
1.08772 1.01 20.6687
2.08478 0.708174 21.4172
0.91337 0.0918352 21.6367
0.727936 0.572153 21.5937
0.552121 -0.0417897 22.0026
0.0194384 -0.33342 21.6466
0.10981 -0.158114 21.5415
-0.0688276 -0.681989 21.5495
-0.298627 -0.631256 21.3655
-0.0747919 -0.43533 21.295
-0.237611 -0.868167 21.6214
-0.757038 -0.555044 20.2695
-0.0886483 -0.531947 20.8553
-0.24874 -0.685571 19.7013
-1.41247 -1.06244 19.4286
-0.771903 -1.40667 21.8618
0.221982 -0.37907 20.6623
0.652592 0.559978 19.3113
1.24992 1.25905 18.6545
1.27962 0.796977 18.106
-2.22256 -0.378389 18.7665
-2.20605 -1.05504 21.7872
-0.223186 -0.677884 18.3183
0.614658 0.425989 13.3733
1.34829 -0.0486609 11.6013
1.86434 0.119224 14.4753
-1.42119 0.980985 19.4128
-2.06699 1.01251 20.7458
-1.3916 0.324403 21.9775
-0.0687409 -0.422542 21.7919
0.214921 -0.793516 21.4386
0.359879 -0.862824 21.004
-0.0079309 -2.86465 17.7174
-0.00481468 -0.389654 14.3172
0.0023672 0.0381066 11.6982
0.00252988 0.366374 10.9597
-0.0177127 0.351905 9.29389
-0.0136129 1.55567 11.1459
0.0206658 -1.11244 14.0332
0.00528443 -0.291009 -4.04843
-0.0307936 0.654055 1.22557
0.0303509 2.66708 18.0088
0.0177028 3.66512 19.681
-0.0275847 2.76189 22.8306
-0.0222603 -0.0733134 18.9161
-0.0253331 -0.342199 17.4257
7.16221e-05 -0.988721 18.2586
1.42595 -1.07828 19.4183
0.751106 -1.41169 21.8693
-0.225975 -0.374079 20.5627
-0.64176 0.595552 19.1001
-1.24184 1.26949 18.6238
-1.27889 0.75974 18.3991
2.21636 -0.373909 18.7888
2.20445 -1.05656 21.7977
0.223647 -0.684844 18.3815
-0.623563 0.419687 13.5735
-1.36136 -0.0547973 11.9605
-1.82638 0.0849162 14.8545
1.39948 0.941397 19.4442
2.05106 0.990783 20.7502
1.41748 0.336033 21.9948
0.0797653 -0.441957 21.8302
-0.193493 -0.807691 21.4589
-0.344864 -0.864581 20.7748
-0.801648 -0.188761 0.63627
-0.0135058 -0.05968 0.319215
-0.00162488 0.000332114 0.0203778
-0.00772018 -0.00836869 -0.0049715
-0.0289629 0.0352075 0.145006
-0.0112095 0.0511027 0.285553
-0.464744 0.0768564 0.558023
-0.0996392 1.56172 2.53177
-0.798089 0.0425413 2.65109
-0.00940888 -0.00636514 -0.00298426
-0.0244007 0.031264 -0.0483275
-0.0164065 -0.0122947 0.0281602
0.0134999 -0.0595972 0.318918
0.809139 -0.189936 0.642538
0.00234956 0.000493372 0.029221
0.0269685 0.0333327 0.145065
0.00665851 -0.00774024 -0.00535343
0.00841616 0.0481446 0.275037
0.100527 1.56183 2.53413
0.46056 0.0760791 0.552694
0.808988 0.0446856 2.68662
0.0240123 0.0318422 -0.0491535
0.00922541 -0.006186 -0.00293159
0.0160905 -0.0120565 0.0275557
0.0122634 0.00297507 0.115027
-0.000225745 0.000114866 0.0196594
0 0 0
0.000544524 5.92513e-05 0.00637309
-0.00547054 0.00578253 0.169124
-4.69854e-05 3.36688e-05 0.00926318
0 0 0
0 0 0
-0.0325314 -0.0237827 0.0723968
-0.000786499 0.00153418 0.070585
0 0 0
0 0 0
0.00446917 0.00789897 0.0351897
0.0034696 0.0438439 0.149224
0 0 0
0.0105622 -0.004845 0.071794
-0.00480342 0.00076954 0.0449179
-0.000688531 7.30115e-05 0.00803654
0.000108014 5.39175e-05 0.00969562
0 0 0
0.00486105 0.00491456 0.131615
0 0 0
-2.3018e-05 2.12891e-05 0.0054866
0.00149821 0.00165753 0.019602
0.0333373 -0.024355 0.074176
0 0 0
0.000814418 0.00160197 0.0729978
0 0 0
-0.00432151 0.00763203 0.0346687
-0.0105432 -0.00480804 0.0714848
-0.0032542 0.0427282 0.145442
0 0 0
0 0 0
0 0 0
2.66684e-07 4.36989e-08 -4.43126e-05
-9.40658e-06 -0.175838 0.0128742
-0.00132719 -0.00277957 0.0357888
2.20199e-06 3.03908e-07 3.68112e-05
0 0 0
-0.0323335 -0.0071639 -0.00221205
3.82498e-07 -7.39083e-06 -6.80379e-05
-0.000988815 -0.0040472 -0.00095511
0 0 0
0.000571015 0.00252751 0.082604
0 0 0
4.24243e-05 0.00334856 0.0170894
-0.0016101 -0.00704695 0.039054
0 0 0
-0.000295455 0.0103959 -0.00939309
-5.06904e-07 7.71217e-06 -0.000144765
0.000949722 0.00111443 0.0201349
0 0 0
0 0 0
0 0 0
-4.16834e-06 5.75576e-07 6.96452e-05
0.00131311 -0.00271816 0.0350564
0.0345219 -0.00788607 -0.00240005
-1.83655e-17 -3.98413e-18 1.22996e-16
-0.000428051 0.00177677 0.05958
-0.0012249 0.00393632 0.0451984
0 0 0
0.00149644 -0.00664385 0.0366822
0 0 0
-0.000893741 0.00104624 0.019136
-2.2738e-05 0.00023801 0.0024766
0.000358999 4.52716e-05 0.0141416
-0.000468838 -0.00264834 0.0245943
2.71661e-05 0.00605725 0.0446361
0 0 0
7.9859e-10 -1.51533e-08 -3.91327e-06
-2.55244e-05 0.00194112 0.0112347
0 0 0
2.39717e-08 -1.9956e-07 -0.000108535
2.99192e-08 -4.15087e-06 -0.000200282
0.00799983 0.0298993 0.143799
-0.00149858 0.0165232 0.276573
0 0 0
4.81138e-05 0.092197 0.291661
-5.71941e-08 -1.34764e-06 0.000230442
-2.53039e-07 -6.78757e-05 0.000390866
-0.000406592 5.08782e-05 0.0160633
2.2191e-05 0.000247665 0.00265319
0.000526672 -0.00295558 0.0273945
-2.40835e-05 0.00562611 0.0412926
2.57396e-05 0.00195432 0.011398
0 0 0
0.00145923 0.0165808 0.277334
-0.00973057 0.0371836 0.179819
0 0 0
0 0 0
0 0 0
-0.000732039 -0.00402574 0.0294069
-3.2888e-05 0.000380365 0.00467898
0.000435188 0.0165995 0.0903455
-6.07082e-05 0.000984543 0.00873834
0.00612094 0.0611179 0.225339
-9.91598e-18 -1.1882e-17 -8.68372e-17
8.94157e-19 -2.67987e-19 -3.02566e-17
0.00343732 0.00128204 0.0191992
0.0262366 -0.0369291 0.254525
2.57371e-06 -3.3924e-07 -5.64504e-05