# vtk DataFile Version 2.0
tri_press
ASCII
DATASET UNSTRUCTURED_GRID
POINTS 3682 float
-0.816389 0.465 -2.095
-0.785 0.395 2.08384
-0.804071 0.895 -2.055
-0.705 1.39229 1.795
0.816389 0.465 -2.095
0.785 0.395 2.08384
0.804075 0.895 -2.055
0.705 1.39232 1.795
-0.808253 0.43934 -0.702054
-0.876398 0.337398 0.690893
-0.77169 1.06141 -0.771667
-0.739371 1.22787 0.511667
0.808239 0.439354 -0.702054
0.876391 0.337405 0.690893
0.771692 1.06142 -0.771667
0.739375 1.2279 0.511667
-1.60415 0.0814621 -3.12319
-1.60692 0.136479 -2.05273
-1.60679 0.0860564 -0.656952
-1.64132 -0.0367701 0.760889
-1.61019 -0.0343397 2.15853
-1.59309 0.0345764 3.23808
-1.59417 0.116365 4.3008
-1.60588 0.369698 -3.1426
-1.60664 0.446191 -2.08411
-1.59857 0.445602 -0.709661
-1.63395 0.379075 0.674658
-1.57846 0.421596 2.05121
-1.57182 0.492256 3.12922
-1.5826 0.566706 4.19551
-1.60047 0.888864 -3.15064
-1.59277 0.955595 -2.08763
-1.56187 1.09487 -0.787902
-1.5376 1.23196 0.504059
-1.50342 1.36805 1.80589
-1.53006 1.42873 2.88843
-1.56033 1.47725 3.97239
-1.59309 1.82329 -3.24513
-1.58635 1.92095 -2.19853
-1.56886 2.1256 -0.934346
-1.54705 2.37307 0.306217
-1.53478 2.57679 1.57155
-1.54177 2.67961 2.62054
-1.55736 2.74405 3.69253
-0.804782 0.0952178 -3.13026
-0.809439 0.157089 -2.06305
-0.803127 0.0881796 -0.655568
-0.845819 -0.0686354 0.774746
-0.82198 -0.0612005 2.18275
-0.811108 0.0184654 3.25452
-0.814267 0.107574 4.31031
-0.807974 0.37365 -3.14477
-0.798847 0.482539 3.14277
-0.80822 0.562353 4.20268
-0.805395 0.863513 -3.13709
-0.768542 1.43935 2.88625
-0.793906 1.48374 3.97193
-0.8041 1.79825 -3.23173
-0.801722 1.89331 -2.18377
-0.791594 2.10947 -0.925445
-0.777264 2.37688 0.305149
-0.769613 2.59266 1.56392
-0.776352 2.69532 2.61293
-0.788964 2.75609 3.687
0.808297 0.0952222 -3.13026
0.811956 0.157093 -2.06305
0.822388 0.0881915 -0.655569
0.847003 -0.0686268 0.774746
0.784543 -0.0611956 2.18275
0.761781 0.0184748 3.25452
0.750704 0.107587 4.31031
0.806356 0.373653 -3.14477
0.749539 0.482549 3.14277
0.743424 0.562367 4.20268
0.798328 0.863516 -3.13709
0.72399 1.43937 2.88625
0.734256 1.48376 3.97193
0.778131 1.79826 -3.23173
0.771868 1.89332 -2.18377
0.761861 2.10948 -0.925445
0.752649 2.3769 0.305149
0.745942 2.59268 1.56392
0.743841 2.69534 2.61292
0.742942 2.75611 3.687
1.61163 0.0814731 -3.12319
1.61494 0.136492 -2.05273
1.62267 0.0860789 -0.656952
1.64887 -0.0367481 0.760889
1.59512 -0.0343211 2.15853
1.55725 0.034599 3.23808
1.53983 0.116391 4.3008
1.60889 0.369707 -3.14259
1.61139 0.4462 -2.08411
1.60396 0.445625 -0.709661
1.64151 0.3791 0.674658
1.58257 0.421617 2.05121
1.54086 0.492281 3.12922
1.52876 0.566734 4.19551
1.5967 0.888873 -3.15064
1.59333 0.955603 -2.08763
1.56214 1.09489 -0.787902
1.5428 1.23199 0.504059
1.50988 1.36809 1.80589
1.50362 1.42877 2.88843
1.51096 1.47729 3.97239
1.57 1.8233 -3.24513
1.56095 1.92096 -2.19853
1.54428 2.12562 -0.934346
1.52738 2.3731 0.306217
1.51543 2.57683 1.57155
1.5131 2.67965 2.62054
1.51477 2.74408 3.69253
-0.809059 0.68 -2.07383
0 0.464426 -2.09557
-0.838859 0.425632 -1.39853
-0.804209 0.893645 1.99863
0 0.398314 2.08053
-0.828463 0.368435 1.38737
1.99676e-06 0.895087 -2.05509
-0.784602 0.974925 -1.41333
0 1.39209 1.79479
-0.723188 1.31108 1.15333
0.809593 0.68 -2.07436
0.838823 0.425668 -1.39853
0.804183 0.89366 1.9986
0.828351 0.368547 1.38737
0.784602 0.974926 -1.41333
0.723193 1.31111 1.15333
-0.803436 0.427259 -0.00558007
-0.821266 0.750373 -0.73686
-7.12059e-06 0.265102 -0.702054
-0.818379 0.782636 0.60128
-3.53507e-06 0.243046 0.690893
-0.755571 1.14468 -0.13
6.69333e-07 1.20092 -0.771667
2.09747e-06 1.42029 0.511667
0.80345 0.427245 -0.00558007
0.821267 0.750385 -0.73686
0.818379 0.782651 0.60128
0.755578 1.1447 -0.13
-0.896419 0.715187 -1.40593
0.896419 0.715192 -1.40593
-3.5603e-06 0.252318 -1.39853
1.33304e-06 0.96697 -1.41333
9.98378e-07 0.68 -2.06189
-0.820038 0.766505 -0.0677901
0.820039 0.766518 -0.0677901
-5.32783e-06 0.263378 -0.00558007
1.3834e-06 1.42029 -0.13
-0.866832 0.838141 1.27035
0.866685 0.838156 1.27035
-1.76753e-06 0.324568 1.38737
1.04873e-06 1.42032 1.15333
0 0.893653 2.02541
-0.816572 0.5725 -2.08826
-0.408195 0.464438 -2.09556
-0.833291 0.439649 -1.74676
-0.778354 0.644323 2.02498
-0.3925 0.39525 2.08359
-0.791752 0.396698 1.7356
-0.811504 0.7875 -2.06935
-0.402035 0.895093 -2.05509
-0.795448 0.936074 -1.73417
-0.755883 1.14297 1.89809
-0.3525 1.39208 1.79478
-0.715111 1.3527 1.47417
0.408195 0.464415 -2.09559
0.816571 0.5725 -2.08826
0.833187 0.439753 -1.74676
0.3925 0.395349 2.08349
0.778338 0.64433 2.02497
0.791401 0.397049 1.7356
0.402038 0.895081 -2.05508
0.811526 0.7875 -2.06937
0.795431 0.936055 -1.73417
0.3525 1.3921 1.79479
0.755883 1.14299 1.89809
0.715112 1.35273 1.47417
-0.84436 0.411682 -1.05029
-0.805817 0.433326 -0.353817
-0.823836 0.590318 -0.719457
-0.443992 0.272496 -0.702054
-0.867075 0.338273 1.03913
-0.801029 0.421217 0.342657
-0.820487 0.573468 0.646087
-0.44383 0.278963 0.690893
-0.765629 1.00565 -1.0925
-0.801472 0.908387 -0.754264
-0.763604 1.10302 -0.450833
-0.420721 1.20091 -0.771667
-0.731282 1.26948 0.8325
-0.781946 1.00679 0.556473
-0.747474 1.18628 0.190833
-0.417782 1.42028 0.511667
0.844403 0.411639 -1.05029
0.443982 0.272496 -0.702054
0.805818 0.433325 -0.353817
0.823843 0.590325 -0.719457
0.85691 0.348438 1.03913
0.443819 0.278976 0.690893
0.801037 0.421208 0.342657
0.820323 0.573559 0.646087
0.765624 1.00565 -1.0925
0.42071 1.20089 -0.771667
0.801479 0.908399 -0.754264
0.763618 1.10304 -0.450833
0.731287 1.26951 0.8325
0.41778 1.42028 0.511667
0.781944 1.00681 0.556473
0.747478 1.1863 0.190833
-0.89648 0.697593 -1.73988
-0.404529 0.68 -2.0478
-1.78015e-06 0.268458 -1.74705
4.99189e-07 0.572213 -2.10452
-0.897904 0.570409 -1.40223
-0.419431 0.249909 -1.39853
-0.809546 0.865893 1.63449
-0.402104 0.893649 2.02542
-8.83767e-07 0.346729 1.73395
0 0.645983 2.02605
-0.897485 0.603288 1.32886
-0.414232 0.327641 1.38737
1.6649e-06 0.94588 -1.73421
1.49757e-06 0.787543 -2.06131
-0.804467 0.845056 -1.40963
-0.3923 0.96697 -1.41333
5.24367e-07 1.42032 1.47406
0 1.14287 1.94175
-0.769168 1.07461 1.21184
-0.361593 1.42032 1.15333
0.89648 0.697596 -1.74015
0.404797 0.68 -2.04779
0.897904 0.57043 -1.40223
0.41941 0.249909 -1.39853
0.809543 0.865908 1.63448
0.402092 0.893656 2.0254
0.897485 0.603351 1.32886
0.414175 0.327641 1.38737
0.804467 0.845059 -1.40963
0.392302 0.96697 -1.41333
0.769168 1.07463 1.21184
0.361597 1.42032 1.15333
-0.824017 0.590741 -0.0366851
-0.43803 0.272701 -0.00558007
-0.899936 0.73278 -1.0714
-0.820543 0.758439 -0.402325
-5.34045e-06 0.251179 -1.05029
-6.22421e-06 0.264213 -0.353817
-0.819148 0.77457 0.266745
-0.895495 0.810388 0.935815
-4.43145e-06 0.263311 0.342657
-2.6513e-06 0.243492 1.03913
-0.791482 0.957431 -0.0988951
-0.446679 1.42027 -0.13
1.00119e-06 0.987988 -1.0925
1.02637e-06 1.41885 -0.450833
1.74043e-06 1.42029 0.190833
1.5731e-06 1.42032 0.8325
0.824022 0.590742 -0.0366851
0.438028 0.272701 -0.00558007
0.899937 0.732788 -1.0714
0.820544 0.758451 -0.402325
0.819148 0.774584 0.266745
0.895495 0.810403 0.935815
0.791479 0.957444 -0.0988951
0.446678 1.42027 -0.13
-0.897775 0.571455 -1.74332
-0.897203 0.582633 -1.06084
-0.8078 0.875473 -1.08195
-0.899939 0.816278 -1.73702
0.897775 0.571465 -1.74345
0.899939 0.81628 -1.73716
0.807789 0.87548 -1.08195
0.897204 0.58265 -1.06084
-0.413813 0.270891 -1.74691
0.413802 0.270891 -1.74691
0.411763 0.249986 -1.05029
-0.411781 0.249987 -1.05029
-0.397168 0.945881 -1.73419
-0.389073 0.987988 -1.0925
0.389074 0.987988 -1.0925
0.39717 0.945881 -1.73419
-0.406362 0.572357 -2.1045
-0.403282 0.787522 -2.04726
0.403418 0.787522 -2.04725
0.406496 0.572357 -2.1045
-0.823927 0.59053 -0.378071
-0.820637 0.582912 0.304701
-0.786642 0.982075 0.228789
-0.796703 0.933022 -0.426579
0.823932 0.590533 -0.378071
0.796701 0.933033 -0.426579
0.78664 0.98209 0.228789
0.820641 0.582917 0.304701
-0.441011 0.272598 -0.353817
0.441005 0.272598 -0.353817
0.442431 0.272822 0.342657
-0.442435 0.272822 0.342657
-0.487812 1.41882 -0.450833
-0.432231 1.42028 0.190833
0.432229 1.42027 0.190833
0.487811 1.41882 -0.450833
-0.897817 0.581652 0.987473
-0.827998 0.623805 1.68505
-0.762514 1.10879 1.55433
-0.775856 1.03993 0.884158
0.897816 0.58169 0.987473
0.775856 1.03995 0.884158
0.762514 1.10881 1.55432
0.828002 0.623841 1.68504
-0.426217 0.292833 1.03913
0.426184 0.292832 1.03913
0.403337 0.349673 1.73477
-0.403366 0.349673 1.73477
-0.365639 1.42032 0.8325
-0.357047 1.42032 1.47411
0.357048 1.42032 1.47411
0.365643 1.42032 0.8325
-0.397302 0.645153 2.02605
0.397296 0.645157 2.02605
0.377296 1.14293 1.94171
-0.377302 1.14292 1.94172
-0.816517 0.51875 -2.09167
-0.612292 0.464443 -2.09556
-0.830706 0.446459 -1.92088
-0.812404 0.519661 2.08514
-0.58875 0.395226 2.08361
-0.790079 0.394146 1.90972
-0.810924 0.84125 -2.06531
-0.603053 0.895096 -2.0551
-0.799453 0.915231 -1.89458
-0.731581 1.26763 1.84769
-0.52875 1.39208 1.79478
-0.710874 1.37332 1.63458
0.612292 0.464409 -2.09559
0.816516 0.51875 -2.09167
0.830666 0.446498 -1.92088
0.58875 0.395374 2.08347
0.817506 0.519665 2.09024
0.790017 0.394207 1.90972
0.603057 0.895078 -2.05508
0.810932 0.84125 -2.06532
0.799439 0.915214 -1.89458
0.52875 1.39211 1.79479
0.731651 1.26766 1.84776
0.710878 1.37335 1.63458
-0.809153 0.442664 -0.876172
-0.80702 0.436348 -0.527935
-0.817842 0.51393 -0.710755
-0.671151 0.265861 -0.702054
-0.875047 0.334525 0.865012
-0.799859 0.418162 0.516775
-0.858961 0.450174 0.66849
-0.657053 0.314303 0.690893
-0.775729 1.0406 -0.932084
-0.786153 0.984683 -0.762965
-0.767686 1.08225 -0.61125
-0.631008 1.20076 -0.771667
-0.735338 1.24869 0.672083
-0.760828 1.11742 0.53407
-0.743383 1.20704 0.35125
-0.626671 1.42027 0.511667
0.809146 0.442671 -0.876172
0.671103 0.265939 -0.702054
0.807018 0.43635 -0.527935
0.817843 0.513938 -0.710755
0.870895 0.338676 0.865012
0.657015 0.31437 0.690893
0.799851 0.41817 0.516775
0.858997 0.450162 0.66849
0.775739 1.04061 -0.932084
0.630996 1.20074 -0.771667
0.786157 0.984693 -0.762965
[...]
POINT_DATA 3682
SCALARS point_scalars float 1
LOOKUP_TABLE default
-103.77
-50.5487
-104.757
-52.4306
-103.633
-47.5327
-104.702
-46.0871
-38.1644
-35.1747
-76.7322
-43.4115
-37.8178
-35.199
-76.1969
-42.6226
-103.77
-100.463
-40.5691
-47.8859
-50.5297
-50.5297
-49.6609
-83.3211
-100.463
-38.0387
-44.298
-44.8232
-48.8888
-48.8888
-46.7835
-80.8669
-58.6294
-41.0628
-45.4495
-46.5383
-44.9654
-101.736
-142.093
-120.507
-48.7116
-44.0007
-52.8232
-52.8232
57.5336
-167.198
-44.0293
-57.8705
-48.8289
-52.0537
-46.2854
121.217
-47.5999
-43.5915
110.184
-40.3508
-41.0284
-101.736
-124.479
-73.3861
-53.9505
-43.0562
-52.8232
-51.7645
53.5924
-172.119
-43.906
-59.1938
-46.3218
-48.9925
-43.562
122.893
-39.954
-39.954
110.179
-34.4698
-35.5428
-101.658
-124.42
-84.2399
-53.4474
-39.7072
-46.4744
-44.7289
-103.633
-100.803
-40.107
-48.3421
-47.4562
-47.4562
-46.8687
-83.1309
-100.803
-57.0136
-47.8262
-42.6223
-46.6305
-43.6756
-46.8263
-80.2044
-58.1414
-40.3311
-40.0597
-41.0533
-38.2688
-101.658
-141.993
-123.064
-48.1227
-39.2542
-46.4744
-46.4744
-52.6493
120.001
-56.6981
-46.7795
-43.785
-45.2133
-62.7468
-39.0995
-38.7199
-41.7079
-52.2576
-56.2612
-41.7183
-44.1092
-38.9581
-39.9902
-33.9433
-44.0365
-48.5835
-32.036
-43.1991
-54.859
40.2263
-53.0679
-33.5826
-43.6798
-31.2589
-54.2022
-54.1197
-53.9844
-79.7626
-11.9532
202.087
-39.6161
-39.2075
-40.3744
-86.2087
-48.4359
-46.0498
-45.3702
-42.6261
-37.9791
-64.4755
122.656
-84.4946
-45.7897
-45.7614
-46.1992
-75.889
-56.8991
-62.4529
-46.4621
-43.8234
-42.4101
123.314
-64.7104
-84.4438
-43.9274
-42.438
-44.3591
-56.8643
-76.0339
-62.4465
-38.2299
-40.168
-39.5086
-53.4544
-36.3285
-39.0818
-46.4402
-48.2265
-29.4618
-17.3764
-44.5591
-38.9714
-55.1731
-65.2378
40.1769
-42.5404
-39.4162
-47.3571
-51.1601
-53.2085
-46.3456
-36.0205
-38.7703
-43.6015
-44.6356
-28.9535
-16.7418
-38.2094
40.0309
-54.7312
-64.5628
-41.432
-50.7577
-38.6753
-46.6846
-87.2825
198.373
-129.08
200.961
-55.0532
-75.9057
-45.382
-39.9472
-44.7107
-40.0104
-46.8638
-45.4671
-44.8533
169.257
-45.4314
-15.4642
-40.8568
-32.7519
-43.6411
-42.689
-87.3347
198.469
-54.8929
-75.8188
-42.5938
-35.7539
-44.8737
-44.7314
-45.2854
-15.4333
-41.5779
-41.7136
-35.2239
-39.2057
-53.8187
-43.0648
-61.9429
-42.4381
-35.5281
-45.4821
-40.9415
-45.8217
-47.2735
-80.6861
10.5975
-138.937
-64.8879
-46.2286
-34.8161
-39.1286
-52.8788
-42.6497
-34.9566
-43.9674
-46.7084
-80.418
-86.0813
-54.7632
-50.2693
-73.503
-86.051
-75.8599
-49.9863
-54.4044
-115.551
-115.257
-59.642
-59.7251
-47.8396
6.74914
6.83068
-47.8263
198.711
166.492
167.152
198.832
-37.7368
-30.5472
-41.9072
-52.8606
-37.3967
-52.331
-41.3733
-29.9904
-41.0047
-40.9243
-40.4654
-40.4953
-134.713
-61.334
-61.0261
-134.384
-46.3909
-48.9175
-43.811
-41.7331
-45.0907
-40.4453
-40.5725
-46.4296
-45.0639
-44.3612
-44.9164
-45.6718
-45.6028
-42.1841
-40.1122
-45.0823
-40.9261
-38.7351
-30.7236
-37.8755
-53.8467
104.426
-119.344
-47.3069
-47.7617
-42.4999
-97.7424
-41.8317
-85.5471
-47.0835
-47.2931
-43.4167
105.509
-54.0548
-120.8
-45.0761
-44.7116
-40.7211
-41.8426
-97.7489
-85.2492
-40.8717
-40.8955
-39.463
-41.8666
-37.1604
-38.0796
-44.0668
-48.0633
-23.2647
-17.5981
-45.7622
-62.4767
-63.5748
-69.9439
18.7358
-43.2106
-41.5568
-44.875
-48.3134
-41.5193
-43.9488
-36.8503
-37.7586
-51.9179
-46.255
-22.5221
-14.7375
-62.0566
18.6006
-63.0916
-69.3695
-42.2766
-47.7107
-40.8035
-44.1698
-58.7853
-62.7786
-92.5501
180.946
119.139
119.687
-160.91
174.955
-65.566
-52.697
-54.9681
-68.6353
-46.392
-45.8069
-43.8502
-40.825
-44.4723
-43.5858
-43.7645
-40.3678
-50.2908
-49.4709
-46.0867
-44.9333
-62.0955
-62.0606
-82.8074
128.526
-48.5796
-39.3083
-48.0067
-21.6121
-41.0177
-37.6689
-40.2351
-34.2135
-41.6245
-41.6302
-42.5918
-42.3498
-59.3317
-62.6995
-92.0918
180.958
-65.4138
-52.3901
-54.7588
-68.653
-42.4444
-40.0644
-40.2126
-35.9154
-48.9664
-48.1176
-44.3687
-44.1531
-48.4647
-39.1263
-47.8545
-21.5421
-39.4335
-40.2777
-40.6857
-41.0403
-35.1927
-32.2874
-34.4115
-37.8113
-40.981
-48.8669
-45.2792
-43.8021
-48.0729
-48.0231
-54.9981
-44.8767
-25.6875
-36.303
-33.2566
-33.4412
-44.407
-44.3853
-41.6232
-44.6948
-59.9257
-50.6639
-51.0189
-69.0626
40.6715
40.6553
22.6223
-5.02295
-52.6588
-52.454
-58.2568
-49.1615
-34.8694
-31.8687
-34.0179
-37.6875
-40.6525
-48.4706
-44.9417
-43.411
-25.0017
-35.5222
-32.5944
-32.5846
-59.2378
-50.0108
-50.3991
-68.6144
-65.7812
-54.732
-51.3286
-50.9316
-65.7569
-54.5957
-51.1832
-50.766
-89.754
-79.0119
-78.9476
-69.4127
-25.326
-12.8569
-12.8418
0.0122345
199.673
202.985
190.081
199.772
-37.2955
-41.6113
-37.7402
-43.4893
-36.86
-41.1878
-37.2252
-42.8677
-40.1374
-40.9983
-40.4297
-40.1023
-84.9931
-107.353
-73.6866
-84.861
-47.1089
-46.7903
-45.4489
-45.787
-44.2865
-44.6403
-43.253
-43.9951
-44.1212
-45.4997
-45.2354
-50.6869
-41.6024
-42.7887
-42.2672
-44.1241
-38.9523
-39.3044
-34.0253
-36.8658
-101.323
184.074
-176.454
175.163
-85.2673
-99.9726
-43.2376
-41.4345
-45.0618
-41.2585
-48.4763
-45.9877
-88.2386
159.73
-85.0667
126.188
-64.997
-53.1568
-43.9513
-39.4486
-43.0464
-38.5872
-43.2578
-42.5356
-176.971
175.451
-101.344
184.235
-85.2498
-99.6335
-43.9285
-39.4278
-40.4777
-38.5988
-46.1429
-44.931
-85.0809
126.169
-87.461
159.765
-65.3742
-53.1196
-39.7333
-32.9316
-39.7502
-33.1581
-40.1206
-39.936
-56.5791
-55.2025
-36.6481
-39.6773
-42.7465
-38.3258
-52.9281
-43.1302
-47.6318
-47.7607
-29.6382
-38.8756
-26.4349
-47.0943
-42.7172
-43.3759
-53.0283
-2.36419
-53.4179
-54.6556
-58.8657
-122.184
19.109
-3.28926
-41.7548
-44.6364
-40.1773
-40.1226
-44.6292
-54.975
-55.5633
-48.0801
-56.2403
-55.1954
-52.7966
-43.0474
-36.3243
-39.5693
-42.431
-38.0026
-45.665
-45.2818
-42.7491
-43.2861
-29.0875
-38.8179
-25.7634
-46.4496
-52.7687
-2.24045
19.1299
-2.62745
-53.0148
-54.1613
-58.2683
-111.874
-40.5792
-43.8879
-55.2167
-47.5628
-39.5677
-39.1563
-44.0135
-54.4701
-86.9642
-90.0689
198.434
187.213
-128.647
-128.322
201.203
201.296
-65.8528
-51.3226
-81.2777
-65.6467
-47.9186
-44.3841
-40.5391
-38.2445
-44.6782
-45.0556
-40.4887
-39.4114
-46.1988
-50.4521
-47.7363
-44.7482
-45.5212
-45.5166
166.675
167.833
-46.1869
-60.2417
-28.5967
-3.68596
-41.5284
-40.3741
-30.6453
-35.4053
-43.8388
-42.9081
-43.8106
-42.1533
-87.1369
-90.6139
187.311
198.562
-65.7053
-51.0893
-81.1563
-65.5754
-41.2135
-45.5428
-37.7584
-30.7637
-44.4847
-48.0607
-46.9695
-44.1493
-60.0832
-46.0225
-3.65744
-28.5717
-41.2659
-41.2609
-40.7624
-43.0923
-36.5945
-33.3833
-39.7283
-39.4164
-55.2227
-50.7687
-40.0108
-47.5897
-61.4522
-61.5025
-42.1138
-42.0725
-32.9457
-38.7584
-45.8052
-43.0359
-40.9548
-40.9685
-45.7664
-45.573
-44.3222
-50.2258
-100.565
-69.1301
9.63045
9.66341
-138.777
-138.635
-64.073
-63.8786
-46.1498
-45.8953
-36.2315
-32.9127
-39.6484
-39.3525
-50.366
-54.8425
-39.6345
-47.1224
-38.205
-32.3706
-44.5164
-41.5272
-49.6804
-43.8229
-68.848
-100.284
-99.2555
-64.8146
-65.9989
-101.914
-42.1338
-43.5455
-51.0121
-51.2933
-65.6827
-48.2417
-52.9079
-48.5861
-87.7208
-90.4459
-65.4061
-54.2604
-99.5686
-101.339
-65.9805
-64.6799
-88.3093
-54.1513
-65.3059
-90.5841
-65.2534
-48.2081
-52.7989
-48.0615
-41.8137
-51.0368
-50.8053
-43.2235
-165.594
-163.818
-87.2851
-72.5847
-166.316
-72.3048
-87.197
-165.021
-48.997
-54.5005
-68.6915
-61.0105
-49.3043
-61.124
-68.74
-54.5541
-88.9352
-34.5851
-26.1803
-83.4059
7.32521
21.541
-0.937069
-11.8211
7.53363
-11.7316
-0.915188
21.5761
-88.919
-83.4182
-26.1687
-34.5307
163.051
183.664
201.211
176.609
96.5787
130.453
190.053
176.267
96.5636
176.305
190.141
130.529
163.453
176.797
201.259
183.697
-37.3005
-35.6743
-38.8162
-40.62
-24.2063
-29.8614
-35.3572
-32.6165
-42.618
-47.4596
-40.9596
-37.0004
-61.8579
-48.8717
-45.6553
-54.9838
-36.9856
-40.265
-38.4205
-35.3251
-61.3178
-54.3626
-45.18
-48.4307
-41.9664
-36.358
-40.4649
-46.8504
-23.4685
-32.1592
-34.8575
-29.2
-41.8583
-44.5953
-40.7249
-38.4095
-41.7632
-38.297
-40.6861
-44.5516
-43.5156
-42.2484
-40.2288
-37.7269
-43.3541
-37.841
-40.2563
-42.2411
-58.9992
-83.7434
-105.778
-4.9533
-51.6059
-57.625
-72.6093
-60.804
-51.0728
-60.3256
-72.4686
-57.4499
-60.9698
-5.25647
-105.648
-83.4112
-49.6443
-46.3886
-46.1304
-36.8404
-42.1588
-43.5132
-52.5836
-50.2362
-44.0063
-42.911
-44.9878
-43.8383
-41.4627
-38.1616
-44.4019
-42.1545
-51.296
-35.8786
-44.4232
-44.5738
-40.5334
-40.6571
-42.6509
-37.1762
-39.8279
-39.7956
-42.3234
-40.4746
-39.6717
-48.142
-49.1202
-40.4042
-40.3896
-44.6507
-48.4773
-47.3463
-41.1681
-45.4955
-47.9068
-44.5097
-44.3798
-43.7055
-44.2463
-44.7544
-45.9062
-45.5002
-44.5335
-44.2654
-45.8878
-43.1031
-44.1493
-48.9619
-44.4487
-41.4964
-41.9592
-42.0938
-40.4454
-40.2842
-41.1999
-39.595
-45.1288
-48.7091
-43.7714
-42.1111
-41.6598
-40.8391
-39.9357
-41.1249
-39.095
-37.6051
-38.5633
-39.9306
-34.4467
-32.7977
-31.7758
-32.8653
-40.3091
-39.8331
-36.0928
-36.3837
-48.3173
71.2939
-135.789
-49.3847
-49.8067
-43.866
-85.3284
-34.8939
-127.805
-49.1199
-50.9862
-43.9482
74.1643
-48.97
-140.121
-46.8951
-46.8535
-41.7569
-34.8763
-85.2986
-127.701
-44.2268
-42.7701
-39.3068
-39.1642
-37.5671
-37.9828
-37.5325
-48.5076
-15.2333
-27.5283
-52.6458
-81.3769
-69.2123
-72.8495
-63.4532
-43.0845
-42.6305
-44.0021
-46.6064
-38.807
-37.9762
-37.2385
-37.6496
-51.5333
-53.6739
-14.442
-23.4859
-80.857
-63.1729
-68.6977
-72.3075
-42.2301
-45.8984
-41.8547
-43.2611
-55.2588
-57.2167
-115.688
142.583
120.358
120.755
-131.61
149.751
-60.2617
-54.276
-55.3271
-59.4864
-46.3603
-46.2661
-44.3875
-41.8864
-43.9984
-43.5799
-43.5874
-42.0232
-45.9931
-45.8483
-45.5294
-45.1765
-63.0111
-62.9658
-124.101
61.6247
-43.327
-39.4898
-47.7821
-26.7158
-39.7663
-38.0284
-40.2773
-35.2863
-41.5242
-41.291
-42.2411
-42.0742
-54.8804
-57.2324
-116.594
142.622
-59.9151
-53.9684
-55.071
-59.3178
-41.8963
-40.757
-40.133
-37.3901
-44.9378
-44.5452
-44.0473
-44.4176
-43.2055
-39.3252
-47.6283
-26.6195
-39.5916
-39.7796
-40.4027
-40.5658
-34.6053
-33.1802
-34.0453
-35.5332
-42.4069
-46.0331
-44.2589
-44.0314
-48.4659
-48.4388
-51.1354
-46.5537
-29.4398
-34.3158
-32.4144
-31.8273
-43.6359
-43.703
-41.0714
-44.5964
-57.2839
-52.6463
-52.7809
-61.1233
40.4296
40.4668
34.448
27.9809
-52.9858
-52.8827
-55.497
-50.98
-34.2614
-32.7957
-33.6709
-35.3012
-42.0648
-45.6596
-43.9183
-43.6558
-28.6913
-33.53
-31.7011
-30.9976
-56.6008
-51.9904
-52.1314
-60.5337
-58.9452
-54.5036
-53.5637
-51.9946
-58.8555
-54.3695
-53.4227
-51.8385
-83.9435
-79.6656
-79.6309
-74.124
-18.2797
-12.1956
-12.1875
-6.4861
201.012
202.155
200.846
200.953
-38.4352
-40.6612
-38.718
-41.4182
-38.0004
-40.254
-38.194
-41.1483
-40.3331
-40.594
-40.3226
-40.3135
-85.9071
-95.3529
-79.2863
-85.8413
-47.7912
-46.5002
-46.363
-49.4704
-45.1682
-44.2534
-44.1034
-47.3687
-44.0899
-45.3708
-45.2453
-49.134
-42.0694
-42.7336
-42.4681
-43.3088
-38.4702
-39.0296
-36.1503
-37.4487
-70.0581
-54.544
-108.881
148.627
119.163
118.524
-105.521
152.95
-102.485
-73.8464
-84.6995
-90.7537
-45.5065
-46.0809
-46.6925
-42.1317
-46.6076
-45.044
-44.933
-43.2774
-41.8596
-51.2765
-47.4692
-45.4556
-89.6456
-71.3967
-136.37
130.112
-46.7614
-61.0633
-124.045
71.5077
-71.1415
-54.7379
-64.5348
-55.9325
-46.2719
-45.8709
-44.1646
-40.7134
-45.5251
-42.3791
-44.3999
-39.8209
-42.3742
-41.4568
-42.9438
-42.621
120.116
119.278
-108.669
153.386
-70.2716
-54.6365
-109.24
148.653
-102.517
-73.6811
-84.716
-90.6954
-44.3194
-43.6951
-43.5379
-41.6443
-41.8913
-42.5165
-43.2693
-39.196
-40.04
-49.6058
-45.2061
-44.1536
-46.7361
-61.0204
-124.08
71.5267
-89.6823
-71.408
-136.473
130.124
-71.058
-54.7335
-64.722
-55.8882
-39.3119
-37.6982
-40.008
-34.2463
-40.1587
-39.9686
-39.2647
-35.1267
-39.0346
-38.9726
-39.8904
-39.8488
-48.901
-51.1974
-56.8964
-48.8402
-36.724
-35.7368
-36.3247
-39.7777
-38.5177
-39.9775
-40.3215
-38.7186
-45.5097
-47.3597
-48.8569
-44.5788
-46.5866
-52.6071
-47.0493
-49.4122
-27.068
-31.075
-29.4352
-34.4171
-17.4032
-19.9059
-23.5491
-31.7225
-45.0079
-44.5912
-44.5233
-43.2997
-37.2068
-36.3368
-51.1484
-12.08
-59.0798
-51.8423
-54.5092
-55.0912
-67.6338
-62.6201
-61.7025
-85.3079
36.7049
40.9279
31.9962
28.4344
-42.6268
-41.7617
-41.9123
-44.0241
-40.4904
-37.9995
-39.6276
-39.5576
-45.9839
-49.0805
-46.0031
-50.3433
-49.9617
-52.067
-53.2309
-49.4755
-48.5528
-50.9145
-56.5854
-48.9111
-45.4034
-47.2867
-48.7539
-44.4915
-36.4212
-35.4256
-36.0116
-39.5679
-38.2038
-39.6597
-40.0124
-38.4003
-47.3687
-48.8044
-44.6879
-45.0544
-45.2433
-44.6042
-44.5978
-43.3127
-26.4739
-30.6191
-28.9065
-34.1936
-16.7238
-19.3043
-22.8635
-30.8241
-38.0439
-36.1082
-51.0381
-11.9116
36.7561
40.9397
32.0395
28.114
-58.6167
-51.424
-54.0891
-54.6258
-67.0227
-61.9197
-61.0714
-84.002
-41.6228
-40.5567
-40.7721
-43.0842
-49.4632
-51.7626
-52.859
-49.0459
-39.7473
-37.242
-38.9645
-38.7226
-45.2986
-48.2577
-45.3412
-49.7618
-101.135
-74.8992
-86.7606
-89.2976
194.161
198.983
196.947
197.264
-134.02
-103.836
-128.097
-127.913
187.975
203.456
201.439
201.496
-55.0977
-54.9112
-59.4734
-52.4514
-73.1155
-77.6423
-77.5114
-70.3219
-44.2206
-47.4824
-46.1644
-44.8415
-40.4322
-39.4442
-40.3967
-39.1372
-44.2127
-44.8399
-44.6083
-44.7952
-39.5312
-39.635
-40.2606
-39.7321
-46.664
-46.8821
-46.2663
-48.1902
-45.1794
-45.3963
-47.9423
-44.6451
-62.6782
-33.7289
-44.8866
-44.8844
162.178
177.505
168.77
168.22
-46.8348
-46.6401
-43.2049
-53.3373
-17.7904
-14.0043
-21.5253
-9.57467
-40.5405
-41.2039
-41.1813
-40.5873
-33.3566
-32.8508
-31.7656
-34.2089
-43.0379
-44.3083
-43.7922
-43.326
-42.5367
-42.7756
-43.183
-42.3407
-99.3587
-75.0718
-87.0128
-89.8057
194.204
199.049
197.31
197.122
-54.9185
-54.7639
-59.3585
-52.2578
-73.086
-77.5587
-77.4053
-70.2505
-41.0903
-44.5786
-41.7927
-43.8281
-35.5766
-36.2536
-37.2616
-33.4024
-44.7812
-44.8064
-44.4092
-45.9858
-44.2078
-44.8857
-47.161
-44.0883
-46.6862
-46.4942
-53.355
-43.05
-17.7428
-13.9819
-9.55021
-21.496
-41.0547
-42.1828
-41.4844
-41.4819
-41.3731
-42.0148
-41.1828
-42.3498
-34.8142
-36.1631
-36.0286
-34.3896
-38.5413
-39.7611
-39.3864
-39.2163
-49.6145
-50.7231
-54.883
-52.4259
-43.5364
-42.3372
-41.4139
-45.122
-59.0084
-65.4126
-61.8228
-61.8488
-43.5023
-41.5972
-42.3717
-42.3486
-34.3765
-36.5717
-34.1654
-37.1435
-38.4027
-44.2262
-45.9491
-44.6509
-41.3358
-40.6869
-40.976
-40.9844
-45.0857
-46.9198
-46.0449
-45.9249
-49.251
-45.373
-45.7634
-48.7651
-76.5521
-83.3247
-89.1138
-74.2121
14.6081
5.38782
10.4017
10.4177
-90.536
-123.865
-139.425
-139.366
-61.3752
-68.9722
-64.6973
-64.5791
-47.584
-45.0913
-46.2401
-46.1266
-34.4102
-35.7405
-35.6454
-33.9524
-38.4379
-39.7063
-39.3072
-39.1437
-49.2909
-50.6648
-51.6104
-54.2328
-43.1317
-41.9162
-41.018
-44.681
-33.7596
-36.0345
-36.5784
-33.5893
-37.1966
-42.6565
-44.5856
-42.9555
-48.6707
-44.7897
-48.2209
-45.253
-76.1973
-82.9061
-73.9384
-88.8406
-113.794
-85.6846
-86.3786
-74.0688
-56.0145
-47.5668
-51.7205
-55.0126
-51.4089
-51.6756
-48.6443
-50.5481
-72.3698
-64.0491
-82.7995
-66.4044
-113.818
-85.6617
-86.4229
-74.0051
-68.1289
-64.6013
-84.5149
-66.0244
-51.1219
-51.285
-48.4678
-50.295
-55.6407
-47.2652
-51.4311
-54.6282
-141.555
-109.285
-122.171
-95.0749
-141.06
-108.904
-121.852
-94.8942
-58.3851
-57.2455
-62.578
-60.7221
-58.4462
-57.3832
-62.6521
-60.7945
-64.4112
-50.1946
-46.5121
-37.0305
3.67681
10.5124
1.62241
8.36217
3.7746
10.6742
1.67557
8.4201
-64.4095
-50.1704
-46.5034
-37.0102
194.354
190.264
199.942
200.506
169.355
163.103
175.262
168.184
163.216
169.379
167.235
175.816
190.474
194.482
200.618
200.029
-37.1378
-38.0194
-37.1717
-38.731
-30.1035
-28.8544
-32.1218
-31.6398
-40.9535
-43.4118
-40.3608
-43.047
-53.8506
-55.7041
-50.1356
-51.6217
-36.806
-37.6896
-36.8226
-38.3745
-53.3365
-55.1448
-49.6382
-51.0785
-40.3856
-42.8493
-39.8246
-42.528
-29.5469
-28.2391
-31.6123
-31.0746
-40.3177
-41.9403
-40.2624
-41.6497
-41.8594
-40.2206
-41.5886
-40.1821
-41.4532
-39.8808
-40.7995
-39.7622
-39.9227
-41.4553
-39.813
-40.8209
-130.799
-85.4494
-117.382
-137.392
-59.119
-58.2867
-64.9106
-62.9883
-57.9615
-58.7273
-62.7579
-64.617
-85.3138
-129.18
-137.161
-117.078
-46.6649
-46.4342
-46.215
-45.9127
-44.1815
-48.6686
-48.9762
-57.5359
-43.8088
-43.5124
-44.0846
-43.8527
-41.645
-40.9018
-42.395
-42.05
-45.3411
-45.5882
-44.6732
-44.6706
-40.415
-39.7784
-40.9373
-40.6905
-40.1509
-40.3148
-40.845
-40.9717
-41.7431
-46.2275
-46.5029
-54.9572
-45.6006
-44.3726
-45.3788
-45.5397
-44.0083
-43.9735
-44.5574
-45.2148
-44.5462
-44.947
-44.7765
-44.6325
-45.4669
-45.8608
-45.3475
-45.3079
-45.1629
-46.7266
-44.6263
-45.9343
-42.4871
-42.4271
-41.8776
-42.0848
-39.8927
-40.0286
-40.2199
-40.3982
-44.5195
-46.2244
-43.9982
-45.5433
-41.1354
-40.6424
-40.7165
-40.7114
-38.308
-38.5002
-39.0732
-38.2573
-31.7764
-31.9315
-30.5427
-30.2171
-38.8258
-38.1029
-37.9122
-36.818
-113.074
138.168
-120.478
137.99
-104.414
-148.033
-43.7781
-42.5542
-46.1575
-44.1536
-41.8705
-46.0039
-132.935
91.8755
-115.38
50.85
-86.0327
-88.0532
-44.7805
-41.8892
-47.2396
-42.1496
-43.9117
-44.4448
-120.828
138.674
-113.912
138.556
-105.004
-147.154
-44.1819
-41.7482
-40.542
-39.777
-39.5811
-44.3918
-115.356
50.845
-132.845
91.8708
-86.203
-87.9951
-41.9761
-35.8924
-39.8146
-35.9787
-39.8197
-40.4178
-42.0168
-41.7219
-37.0722
-39.3013
-39.269
-37.6192
-46.5189
-43.4374
-48.9017
-43.2592
-23.6119
-35.4767
-19.1855
-43.6785
-51.342
-41.7483
-70.1085
-17.7077
-65.2225
-62.9491
-65.7755
-112.992
20.5017
-6.60747
-42.2495
-45.705
-41.9423
-41.4054
-43.8314
-47.6989
-50.1967
-46.0009
-41.6858
-41.5543
-46.0896
-43.3611
-36.7613
-39.0916
-38.9492
-37.3024
-53.0404
-44.668
-51.7352
-42.3049
-22.8619
-35.4681
-18.3254
-43.3747
-69.671
-17.4621
20.6011
-6.60977
-64.7591
-62.4513
-65.2163
-112.367
-41.3146
-44.7939
-49.6387
-45.3247
-41.245
-40.5815
-43.1521
-47.0681
-112.238
145.828
-126.04
138.508
-100.228
-91.4442
182.411
178.603
-129.985
150.618
-131.234
150.965
-161.49
-162.061
176.512
176.627
-64.1797
-69.45
-51.6117
-56.9243
-58.4863
-52.2713
-67.8925
-65.0628
-45.4537
-41.8302
-43.9406
-41.2179
-43.7776
-43.796
-41.004
-40.3879
-43.9896
-42.5747
-43.3038
-41.7745
-43.6923
-43.9813
-40.6036
-40.1707
-49.7537
-46.8327
-47.2127
-46.2674
-46.0829
-47.7618
-45.9326
-44.1877
-124.614
68.386
-124.651
68.572
-83.3553
-83.3614
114.746
115.886
-53.7753
-38.5895
-45.1177
-18.9617
-47.1594
-50.6247
-26.9584
-16.6513
-42.0549
-37.5194
-39.4781
-34.095
-40.7958
-39.8218
-33.3685
-35.2639
-42.4378
-41.8697
-41.9243
-42.248
-42.7603
-42.38
-42.6913
-42.1331
-112.382
145.929
-126.475
138.541
-99.3463
-91.8972
178.631
182.424
-63.9976
-69.2015
-51.3385
-56.751
-58.3157
-52.0393
-67.4512
-65.0143
-41.7566
-38.2931
-39.2452
-35.6568
-39.9433
-40.4065
-36.95
-34.4239
-47.9396
-45.8731
-45.3846
-45.3336
-44.3621
-45.9011
-45.4037
-43.5373
-53.671
-38.5158
-44.9281
-18.8337
-50.4911
-46.9933
-16.575
-26.8953
-40.0917
-39.8798
-40.4784
-41.0843
-40.6942
-40.6053
-40.6
-41.5574
-35.3004
-36.3766
-32.3511
-34.812
-35.0808
-33.6117
-38.0737
-37.7761
-41.723
-40.8591
-48.7218
-48.9744
-44.2468
-46.735
-42.079
-46.282
-50.576
-46.0941
-50.5241
-46.0471
-54.8875
-54.9165
-44.7776
-44.7528
-27.9633
-26.1603
-36.4577
-36.7497
-31.6061
-35.3121
-34.0339
-36.2188
-43.2822
-44.7229
-43.3134
-44.5828
-41.8701
-41.8644
-44.9106
-44.7065
-57.0941
-70.404
-49.0412
-54.8792
-49.1436
-52.9898
-75.5463
-64.7013
34.1518
28.4538
34.2024
28.4308
22.2525
22.5112
-4.65667
-5.46921
-54.9918
-50.6637
-54.8034
-50.4435
-58.0904
-58.0024
-49.1205
-49.0089
-34.9665
-36.1605
-31.914
-34.568
-34.7122
-33.1891
-37.9654
-37.6546
-41.4052
-40.5165
-48.3395
-48.5546
-46.3814
-43.917
-41.7059
-45.8661
-27.2792
-25.3077
-35.7525
-35.8768
-34.6537
-30.942
-33.0641
-35.3645
-56.4369
-69.6979
-48.3901
-54.3122
-52.3639
-48.5406
-64.2371
-75.1434
-65.787
-65.2672
-59.3539
-52.1728
-51.1778
-57.6096
-50.9161
-51.4015
-65.4812
-64.9164
-59.266
-52.0007
-57.4843
-51.0136
-51.284
-50.7256
-88.1632
-88.111
-82.1364
-73.3612
-82.0632
-73.3078
-69.2387
-69.2646
-25.5324
-25.5268
-19.1279
-7.34725
-7.32996
-19.1143
-0.223902
-0.21332
198.721
199.345
201.809
201.789
189.998