# vtk DataFile Version 2.0
tet_velo
ASCII
DATASET UNSTRUCTURED_GRID
POINTS 29498 float
-0.717449 0.115 -1.925
-0.605 0.125 2.0898
-0.727061 0.505 -1.915
-0.703353 0.825 1.825
0.717454 0.115 -1.925
0.605 0.125 2.08828
0.727064 0.505 -1.915
0.703388 0.825 1.825
-0.709361 0.0889383 -0.586733
-0.657253 0.106897 0.751533
-0.85053 0.743039 -0.668333
-0.817949 0.825027 0.578334
0.709347 0.0889557 -0.58724
0.657333 0.106818 0.75052
0.8505 0.742995 -0.668333
0.817956 0.82501 0.578334
-1.48992 -0.255922 -2.91184
-1.48145 -0.189575 -1.87798
-1.4629 -0.202592 -0.537384
-1.39605 -0.218431 0.821663
-1.33172 -0.210833 2.16381
-1.32259 -0.189099 3.20528
-1.33118 -0.157957 4.23265
-1.48909 0.00986484 -2.93969
-1.48978 0.10464 -1.91583
-1.48469 0.11826 -0.592991
-1.403 0.121481 0.738131
-1.31848 0.130872 2.06273
-1.31247 0.152371 3.10292
-1.32607 0.182686 4.13327
-1.49606 0.495987 -2.96973
-1.51933 0.587869 -1.94214
-1.58945 0.754601 -0.681732
-1.52845 0.822943 0.572229
-1.41088 0.832199 1.83442
-1.36489 0.850083 2.87864
-1.35507 0.876323 3.92388
-1.49713 1.39029 -3.08341
-1.5139 1.50223 -2.06947
-1.5487 1.68383 -0.838742
-1.55251 1.81768 0.372321
-1.51259 1.87622 1.60409
-1.46884 1.89985 2.62018
-1.43472 1.92192 3.65546
-0.743918 -0.251923 -2.91782
-0.732003 -0.181594 -1.88671
-0.723222 -0.216476 -0.536417
-0.686185 -0.231011 0.832929
-0.647008 -0.21895 2.18367
-0.633727 -0.196254 3.21867
-0.634856 -0.16417 4.24029
-0.738288 0.00460849 -2.94156
-0.615173 0.146261 3.11398
-0.626295 0.176948 4.13899
-0.737536 0.459903 -2.95848
-0.652984 0.845109 2.87665
-0.645047 0.872012 3.9233
-0.729011 1.36539 -3.07231
-0.736439 1.47873 -2.05724
-0.772077 1.67676 -0.831409
-0.795429 1.82099 0.371319
-0.777654 1.87853 1.59759
-0.741825 1.90011 2.61368
-0.711003 1.9212 3.65067
0.724568 -0.251929 -2.91793
0.717154 -0.181595 -1.88685
0.702448 -0.216477 -0.536894
0.658664 -0.231063 0.832044
0.629334 -0.218971 2.18248
0.685123 -0.196271 3.21774
0.72733 -0.16419 4.23957
0.728434 0.00460351 -2.94163
0.698074 0.14625 3.11307
0.737195 0.176931 4.13831
0.745238 0.459897 -2.95853
0.729111 0.8451 2.87623
0.747749 0.871996 3.92279
0.798868 1.36537 -3.07242
0.811674 1.47871 -2.05734
0.799634 1.67674 -0.831532
0.751244 1.82097 0.371157
0.714046 1.87851 1.59737
0.717945 1.90009 2.61338
0.734123 1.92119 3.65031
1.46705 -0.255938 -2.91212
1.46279 -0.189587 -1.87834
1.44536 -0.202612 -0.538195
1.37932 -0.218507 0.820248
1.32839 -0.210887 2.162
1.36767 -0.189141 3.20366
1.41501 -0.157998 4.23129
1.47475 0.00984918 -2.93988
1.47944 0.104625 -1.91603
1.47986 0.118245 -0.593675
1.40357 0.1214 0.736827
1.32835 0.130826 2.06097
1.37614 0.152336 3.10138
1.4238 0.182648 4.13198
1.50156 0.495967 -2.96987
1.52047 0.587844 -1.94223
1.59091 0.754554 -0.68198
1.5287 0.822894 0.571749
1.41667 0.832164 1.83375
1.42147 0.850052 2.87772
1.44512 0.876287 3.92289
1.55788 1.39026 -3.08365
1.57461 1.50219 -2.06971
1.57068 1.68378 -0.839032
1.51909 1.81764 0.371942
1.46457 1.87618 1.60359
1.45222 1.89981 2.61957
1.45894 1.92188 3.65473
-0.719985 0.31 -1.91773
2.5034e-06 0.0984785 -1.94152
-0.734208 0.0811658 -1.25587
-0.68389 0.475 1.98711
0 0.124783 2.08926
-0.632929 0.114146 1.42067
1.51992e-06 0.599733 -2.00973
-0.856134 0.691358 -1.29167
1.7494e-05 0.897894 1.89789
-0.789239 0.853601 1.20167
0.719913 0.31 -1.91765
0.734175 0.0812036 -1.25612
0.684298 0.475 1.98674
0.633021 0.114054 1.4194
0.856134 0.691349 -1.29167
0.789356 0.853688 1.20167
-0.681444 0.0997807 0.0824
-0.878253 0.415988 -0.627533
-7.02913e-06 0.0754499 -0.586987
-0.87068 0.465962 0.664933
4.02207e-05 0.0751652 0.751027
-0.834409 0.784202 -0.045
-1.5077e-05 0.954565 -0.668333
3.68723e-06 1.25446 0.578334
0.681473 0.099754 0.08164
0.878252 0.415975 -0.627787
0.870694 0.465914 0.664427
0.834408 0.784182 -0.045
-0.888979 0.362994 -1.27377
-0.882909 0.440975 0.0187
-0.890627 0.470481 1.31117
-2.26287e-06 0.0757687 -1.25599
1.65958e-05 0.0818736 0.08202
2.01103e-05 0.0819844 1.42003
2.01166e-06 0.31 -1.90236
8.74698e-06 0.475 2.07874
-6.77856e-06 0.815665 -1.29167
-5.6949e-06 1.22755 -0.045
1.05906e-05 0.957473 1.20167
0.888969 0.362988 -1.27389
0.882903 0.440945 0.01832
0.891058 0.470457 1.31053
-1.10361 0.10982 -1.92042
-0.724726 -0.033297 -1.90585
-0.727868 0.0598042 -2.43328
-0.961739 0.127936 2.07626
-0.626004 -0.0469748 2.13673
-0.610086 0.135631 2.60189
-1.12319 0.546435 -1.92857
-0.732298 0.482452 -2.43674
-0.73175 0.991866 -1.98612
-1.05712 0.8286 1.82971
-0.678169 0.835055 2.35083
-0.740503 1.35176 1.71129
0.717304 -0.0332974 -1.90592
0.722944 0.0598018 -2.43331
1.09845 0.109813 -1.92052
0.617167 -0.0469853 2.13538
0.651537 0.135625 2.60068
0.966676 0.127913 2.07462
0.736151 0.482448 -2.43676
0.769369 0.991856 -1.98617
1.12377 0.546422 -1.92861
0.716249 0.83505 2.35061
0.708717 1.35175 1.71118
1.06003 0.828582 1.82938
-1.09702 0.103599 -0.589862
-0.716292 -0.063769 -0.561575
-1.03013 0.114189 0.744832
-0.671719 -0.0620572 0.792231
-1.21999 0.74882 -0.675033
-0.811304 1.2099 -0.749871
-1.1732 0.823985 0.575281
-0.806689 1.32301 0.474826
0.705898 -0.0637606 -0.562067
1.0946 0.1036 -0.590457
0.657999 -0.0621227 0.791282
1.03045 0.114109 0.743673
0.825067 1.20987 -0.749933
1.2207 0.748774 -0.675157
0.7846 1.32299 0.474745
1.17333 0.823952 0.575041
-1.48569 -0.222748 -2.39491
-1.48951 -0.123028 -2.92577
-1.11692 -0.253923 -2.91483
-1.47217 -0.196084 -1.20768
-1.48561 -0.0424679 -1.89691
-1.10673 -0.185585 -1.88234
-1.42947 -0.210512 0.14214
-1.47379 -0.0421662 -0.565187
-1.09306 -0.209534 -0.5369
-1.36389 -0.214632 1.49274
-1.39952 -0.0484752 0.779897
-1.04112 -0.224721 0.827296
-1.32716 -0.199966 2.68455
-1.3251 -0.0399806 2.11327
-0.989366 -0.214891 2.17374
-1.32689 -0.173528 3.71896
-1.31753 -0.0183639 3.1541
-0.97816 -0.192676 3.21197
-1.32863 0.0123649 4.18296
-0.98302 -0.161063 4.23647
-1.48944 0.0572522 -2.42776
-1.49258 0.252926 -2.95471
-1.11369 0.00723667 -2.94063
-1.48723 0.11145 -1.25441
-1.50455 0.346254 -1.92898
-1.44385 0.11987 0.0725701
-1.53707 0.43643 -0.637361
-1.36074 0.126177 1.40043
-1.46572 0.472212 0.65518
-1.31547 0.141622 2.58282
-1.36468 0.481535 1.94858
-1.31927 0.167529 3.61809
-1.33868 0.501227 2.99078
-0.963822 0.149316 3.10845
-1.34057 0.529504 4.02857
-0.976184 0.179817 4.13613
-1.50769 0.541928 -2.45593
-1.49659 0.943138 -3.02657
-1.1168 0.477945 -2.96411
-1.55439 0.671235 -1.31193
-1.51661 1.04505 -2.0058
-1.55895 0.788772 -0.0547514
-1.56908 1.21921 -0.760237
-1.46966 0.827571 1.20333
-1.54048 1.32031 0.472275
-1.38789 0.841141 2.35653
-1.46173 1.35421 1.71925
-1.35998 0.863203 3.40126
-1.41687 1.37497 2.74941
-1.00894 0.847596 2.87764
-1.39489 1.39912 3.78967
-1.00006 0.874167 3.92359
-1.50551 1.44626 -2.57644
-1.11307 1.37784 -3.07786
-1.5313 1.59303 -1.45411
-1.12517 1.49048 -2.06335
-1.55061 1.75075 -0.23321
-1.16039 1.68029 -0.835075
-1.53255 1.84695 0.988203
-1.17397 1.81934 0.37182
-1.49072 1.88803 2.11213
-1.14512 1.87737 1.60084
-1.45178 1.91089 3.13782
-1.10533 1.89998 2.61693
-1.07286 1.92156 3.65306
-0.73796 -0.216759 -2.40226
-0.741103 -0.123657 -2.92969
-0.00967496 -0.251926 -2.91787
-0.727612 -0.199035 -1.21156
-0.00742455 -0.181594 -1.88678
-0.704704 -0.223744 0.148256
-0.0103871 -0.216477 -0.536656
-0.666597 -0.22498 1.5083
-0.0137605 -0.231037 0.832486
-0.640368 -0.207602 2.70117
-0.00883723 -0.21896 2.18307
-0.634292 -0.180212 3.72948
-0.62445 -0.0249962 3.16632
0.0256976 -0.196262 3.2182
-0.630575 0.00638893 4.18964
0.0462369 -0.16418 4.23993
-0.737912 0.232256 -2.95002
-0.00492715 0.004606 -2.9416
-0.620734 0.161605 3.62648
-0.634079 0.495685 2.99531
0.0414505 0.146256 3.11353
-0.635671 0.52448 4.03114
0.0554499 0.176939 4.13865
-0.733273 0.912646 -3.0154
0.00385127 0.4599 -2.95851
-0.649015 0.858561 3.39997
-0.697405 1.37261 2.74516
0.0380632 0.845105 2.87644
-0.678025 1.39661 3.78698
0.0513512 0.872004 3.92305
-0.732725 1.42206 -2.56477
0.0349286 1.36538 -3.07236
-0.754258 1.57775 -1.44432
0.0376173 1.47872 -2.05729
-0.783753 1.74888 -0.230045
0.0137787 1.67675 -0.83147
-0.786541 1.84976 0.984453
-0.0220922 1.82098 0.371238
-0.75974 1.88932 2.10563
-0.0318042 1.87852 1.59748
-0.726414 1.91066 3.13217
-0.01194 1.9001 2.61353
0.0115602 1.92119 3.65049
0.720861 -0.216762 -2.40239
0.726501 -0.123663 -2.92978
1.09581 -0.253933 -2.91503
0.709801 -0.199036 -1.21187
1.08997 -0.185591 -1.88259
0.680556 -0.22377 0.147575
1.0739 -0.209544 -0.537545
0.643999 -0.225017 1.50726
1.01899 -0.224785 0.826146
0.657228 -0.207621 2.70011
0.978864 -0.214929 2.17224
0.706226 -0.18023 3.72865
0.691598 -0.0250107 3.1654
1.0264 -0.192706 3.2107
0.732262 0.00637046 4.18894
1.07117 -0.161094 4.23543
0.736836 0.23225 -2.95008
1.10159 0.00722634 -2.94075
0.717634 0.16159 3.62569
0.713592 0.495675 2.99465
1.03711 0.149293 3.10723
0.742472 0.524463 4.03055
1.0805 0.179789 4.13514
0.772053 0.912634 -3.01547
1.1234 0.477932 -2.9642
0.73843 0.858548 3.39951
0.723528 1.3726 2.7448
1.07529 0.847576 2.87697
0.740936 1.39659 3.78655
1.09643 0.874142 3.92284
0.805271 1.42204 -2.56488
1.17837 1.37781 -3.07803
0.805654 1.57773 -1.44443
1.19314 1.49045 -2.06352
0.775439 1.74885 -0.230187
1.18516 1.68026 -0.835282
0.732645 1.84974 0.984263
1.13517 1.81931 0.371549
0.715995 1.8893 2.10538
1.08931 1.87734 1.60048
0.726034 1.91064 3.13185
1.08508 1.89995 2.61648
1.09653 1.92153 3.65252
1.46492 -0.222762 -2.39523
1.4709 -0.123044 -2.926
1.45408 -0.196099 -1.20827
1.47112 -0.0424809 -1.89718
1.41234 -0.210559 0.141027
1.46261 -0.0421835 -0.565935
1.35386 -0.214697 1.49112
1.39144 -0.0485534 0.778538
1.34803 -0.200014 2.68283
1.32837 -0.0400307 2.11148
1.39134 -0.173569 3.71748
1.37191 -0.0184021 3.15252
1.4194 0.0123249 4.18163
1.4771 0.0572372 -2.42796
1.48815 0.252908 -2.95488
1.47965 0.111435 -1.25485
1.49996 0.346234 -1.92913
1.44171 0.119822 0.0715759
1.53538 0.436399 -0.637827
1.36596 0.126113 1.3989
1.46613 0.472147 0.654288
1.35225 0.141581 2.58118
1.37251 0.481495 1.94736
1.39997 0.167492 3.61668
1.39881 0.501194 2.98955
1.43446 0.529468 4.02743
1.51102 0.541905 -2.45605
[...]
POINT_DATA 29498
VECTORS point_vectors float
-0.781203 -1.25205 2.0091
-0.0123829 0.699448 4.6054
-2.77272 1.18705 3.89708
-0.0637311 -0.156305 0.107145
0.785868 -1.27164 2.02254
0.0133072 0.679826 4.61338
2.76542 1.1835 3.88202
0.0627117 -0.16395 0.11476
0 0 0
0 0 0
-0.119997 -0.0912461 0.373707
0.00118121 0.00303161 0.0112299
0 0 0
0 0 0
0.113743 -0.0863586 0.353805
-0.00126241 0.00326115 0.0121168
-0.659038 -0.328649 19.8264
-1.33646 -0.824729 20.5627
-0.360797 -0.462539 21.4311
0.249679 -0.15215 21.632
0.871246 0.293183 21.5044
1.1835 0.402955 20.901
0.983705 0.256215 20.6977
-0.777845 -0.241802 19.7275
-1.81755 -0.637261 20.4191
-0.621955 -0.591346 21.4616
0.158459 -0.423481 21.7599
1.19014 -0.0355209 21.5219
1.57257 0.107362 21.1413
1.19394 0.137988 20.7937
-0.802855 0.00564376 19.6319
-1.89901 0.0672517 20.2368
-1.20214 -0.323707 21.3195
-0.443243 -0.460431 21.6555
0.435409 -0.811254 21.6441
0.986285 -0.909953 21.349
1.00795 -0.67715 20.9846
-0.494652 0.289043 19.8378
-0.944186 0.61019 20.1263
-0.99501 0.495395 20.888
-0.62096 0.139424 21.3569
-0.196541 -0.208462 21.3761
0.0450477 -0.438242 21.2461
0.255065 -0.416589 20.7462
-0.681244 -0.766186 19.228
-1.74203 -3.58147 21.048
-0.171788 -0.239831 21.2672
0.175666 0.415214 20.7236
0.444826 1.24524 20.3525
0.837487 1.6115 19.7517
0.751929 1.43597 19.8967
-0.807106 -0.5888 18.8988
1.67312 1.81694 12.9735
1.78186 1.59858 15.5661
-0.90943 0.0177032 18.6213
0.52544 -1.07419 4.07092
1.22386 -0.912382 7.90869
-0.455808 0.58546 19.4218
-1.06151 1.70307 19.6861
-1.29325 1.62406 20.7557
-0.8972 0.790601 21.7255
-0.392433 -0.0206635 21.57
-0.16899 -0.396469 21.4763
0.0032553 -0.697384 20.7757
0.666729 -0.766073 19.2259
1.70068 -3.62157 21.0665
0.183377 -0.237347 21.2755
-0.14428 0.418534 20.623
-0.412688 1.24507 20.3368
-0.897416 1.57995 19.8563
-0.803125 1.1223 20.3852
0.801256 -0.590463 18.8856
-1.87654 1.86591 14.272
-1.84817 1.22114 16.1888
0.914517 0.01793 18.6306
-0.792854 -1.13854 6.95985
-1.41525 -0.944714 11.1533
0.476321 0.562177 19.4527
1.09149 1.56751 19.7484
1.30538 1.56983 20.7674
0.891891 0.837388 21.7431
0.397282 0.015105 21.5723
0.175512 -0.392401 21.4818
-0.0102336 -0.699421 20.7806
0.667511 -0.346363 19.8185
1.3761 -0.875126 20.5657
0.367383 -0.481996 21.4431
-0.245025 -0.16128 21.6453
-0.869687 0.298911 21.5068
-1.12696 0.357902 20.908
-0.962435 0.155901 20.6224
0.778398 -0.244889 19.7156
1.84863 -0.657651 20.4183
0.621643 -0.599231 21.4662
-0.155864 -0.426246 21.7592
-1.17242 -0.0410948 21.5311
-1.46103 0.0440897 21.1588
-1.17467 0.0191184 20.7148
0.798649 0.00613008 19.6376
1.897 0.0677725 20.2431
1.19895 -0.322143 21.322
0.444766 -0.461188 21.6584
-0.433794 -0.801978 21.6523
-0.936538 -0.840528 21.338
-0.874097 -0.610354 21.0272
0.488083 0.274461 19.8671
0.904352 0.563432 20.1617
0.979207 0.477469 20.8876
0.642169 0.154848 21.3683
0.210257 -0.212306 21.389
-0.0413598 -0.441244 21.2513
-0.238175 -0.412775 20.809
-3.99048 -0.799033 2.74857
0.000142999 -0.0311656 0.149236
-0.00454719 0.00217064 0.0528296
0.0167879 -0.0560772 0.0140266
0.000242532 0.105724 0.837791
0.0112998 0.0169785 0.584068
-8.78688e-05 0.288975 0.363562
-0.247476 -0.134854 0.996044
-0.00328305 0.0881458 -0.187308
0 0 0
3.98425 -0.791939 2.73454
0.00469792 0.00219858 0.0523517
-0.0166912 -0.0566297 0.0141425
-0.0100553 0.0167311 0.577739
0.248013 -0.134903 0.998139
0 0 0
0 0 0
0.000255236 -0.000540603 0.0230701
-1.28897e-05 -0.000377158 0.0684513
0 0 0
-4.15437e-05 0.000397685 0.052401
0 0 0
-0.000294065 0.0361077 0.0795055
-7.43937e-07 -0.000172722 0.00582904
0 0 0
-0.000254413 -0.000546715 0.0232705
0 0 0
0 0 0
-0.000143888 -0.000953098 0.00985211
-0.000970311 0.0127189 0.195237
0 0 0
-2.8691e-06 -7.21274e-05 0.00797381
-9.56948e-06 2.21135e-05 0.0209477
-0.00236591 0.0231037 1.61601
0 0 0
0.000150831 -0.0127473 -0.00278617
5.47924e-06 0.00395141 0.0246286
5.31441e-06 0.0825799 0.292769
6.30363e-06 5.65984e-05 -0.00244744
0.000142236 -0.000965817 0.00964307
0.000967688 0.0126752 0.195695
0 0 0
-3.61792 -1.93426 20.1298
-2.73138 -5.99504 21.6748
-2.15058 -1.80169 17.6625
1.48166 0.975682 15.8493
0.293005 1.31569 15.2483
0.820297 1.4642 9.39132
-4.12513 0.478896 19.7139
-2.63342 0.392064 16.8091
-2.58088 3.13226 18.9747
0.732429 -0.871185 17.0291
-0.621367 -0.862638 2.24395
-0.540654 -0.459747 18.5779
2.67001 -6.09799 21.8195
2.14771 -1.81612 17.6341
3.6704 -1.97676 20.1079
-0.256365 1.29535 15.1437
-0.979226 1.64793 10.2978
-1.47896 0.958519 15.9336
2.63829 0.387115 16.8324
2.6154 2.90744 19.0615
4.1192 0.481516 19.7082
0.279505 -1.06972 3.81971
0.536021 -0.426567 18.1683
-0.686244 -0.912475 17.1385
-0.190584 -0.729473 19.599
0.0386867 0.0291193 14.5391
0.484584 -0.0957171 15.888
0.157521 0.447313 13.517
-1.85311 -0.8134 21.6347
-2.95895 1.8272 20.8016
-0.624058 -0.841745 20.4062
-1.61206 0.291228 21.5731
-0.0431053 0.0271807 14.4767
0.183823 -0.718081 19.447
-0.132179 0.423167 13.3321
-0.476657 -0.0948739 15.8488
2.9474 1.75914 20.8294
1.84954 -0.811351 21.6367
1.61817 0.324612 21.3744
0.625688 -0.840965 20.4131
-1.05127 -0.588177 20.022
-0.70358 -0.298963 19.7858
-0.718615 -0.505827 19.5834
-0.846812 -0.693762 21.2943
-1.5506 -0.768888 20.5026
-1.87851 -1.8172 20.6568
-0.0575468 -0.328781 21.5397
-0.488079 -0.548644 21.4372
-0.163216 -0.525499 21.6752
0.565859 0.0687745 21.6578
0.238505 -0.277641 21.6738
0.416514 0.0991183 21.6439
1.03587 0.392603 21.4611
1.07207 0.184537 21.5603
0.97185 0.894563 21.1774
1.09117 0.359568 20.976
1.42354 0.287984 21.0621
1.25677 1.0276 20.8429
1.13016 0.172207 20.751
0.949425 0.580843 20.9979
-1.33316 -0.426121 19.8345
-0.804499 -0.123337 19.6607
-0.845618 -0.39105 19.3937
-1.27942 -0.682393 21.321
-1.99489 -0.316185 20.3175
-0.218398 -0.52148 21.627
-0.937211 -0.532911 21.4298
0.640812 -0.251829 21.7159
-0.124229 -0.552192 21.7504
1.42289 0.0430314 21.3403
0.989313 -0.579978 21.5422
1.64604 0.0901841 20.6762
1.6414 -0.519243 20.9835
2.17534 0.912671 17.9075
1.48376 -0.395528 20.4599
1.58765 0.292042 19.6529
-1.36608 0.0533484 19.7174
-0.683301 0.211242 19.7045
-0.921653 0.0202867 19.2223
-1.67132 -0.114621 21.0446
-1.46412 0.537727 20.1298
-0.846226 -0.434647 21.5287
-1.30353 0.193677 21.0837
-0.0456035 -0.585725 21.7592
-0.697344 -0.168313 21.5416
0.747482 -0.903848 21.4203
-0.0910726 -0.507141 21.544
1.14658 -0.859037 21.2473
0.270984 -0.799213 21.363
1.30773 -1.21899 16.996
0.395538 -0.669227 21.1948
1.42367 -1.08909 17.0553
-0.718101 0.453336 19.9162
-0.509957 0.432442 19.6406
-1.02966 0.608444 20.554
-1.10975 1.06472 19.9518
-0.861331 0.32353 21.1672
-1.25004 0.935435 20.8789
-0.39341 -0.0533316 21.4086
-0.793289 0.353965 21.5355
-0.0719323 -0.320029 21.3613
-0.298885 -0.17512 21.5234
0.167292 -0.542381 21.18
-0.0377211 -0.46886 21.3092
0.239516 -0.686514 21.1609
-1.43276 -1.9978 19.0142
-0.722212 -0.68133 19.0507
-0.00960897 -1.0792 18.8221
-0.519561 -1.00763 22.451
-0.0210885 -4.77814 22.2551
0.049419 -0.00597074 20.7414
-0.00898369 -0.482639 19.7717
0.276273 0.755147 20.5089
-0.00812004 0.138996 18.9994
0.68168 1.56928 20.0473
-0.00238756 0.857937 18.5947
1.06728 1.8372 19.056
1.10056 1.83237 16.6401
-0.0323329 1.57696 18.3342
1.12038 1.68865 18.2235
-0.00713655 2.01063 16.6718
-0.891257 -0.325252 18.6647
-0.0115579 -0.876496 18.2653
1.9809 1.75088 14.3769
2.20601 0.49474 6.05747
-0.0861186 0.729602 5.68277
2.95855 0.77574 10.9757
-0.305362 2.47618 11.2768
-0.677913 0.475041 18.9809
0.00491689 0.0704076 17.8719
1.49904 -1.1186 6.38708
-0.194302 -0.924617 18.027
-0.0899927 1.53081 -4.98968
0.271159 -1.19188 18.4484
-0.448778 1.55505 -1.47891
-0.747032 1.1039 19.3531
0.0261341 0.740542 19.1929
-1.19205 1.75311 20.3471
0.0755779 2.36143 19.4055
-1.29198 1.3978 21.374
0.0301697 2.59951 20.4833
-0.584303 0.289538 21.6869
-0.0377683 1.57197 21.9857
-0.292258 -0.196961 21.5032
-0.0318953 0.411829 21.8273
-0.0502428 -0.575574 21.431
-0.00774595 -0.0833163 21.6861
0.00912063 -0.521147 21.0968
1.42147 -2.04333 18.9732
0.715359 -0.69226 19.0296
0.726882 -0.514109 19.5707
0.520288 -1.00268 22.4677
1.89786 -1.88449 20.665
-0.0344185 0.00551431 20.6678
0.159258 -0.52101 21.6847
-0.249348 0.744179 20.3823
-0.408465 0.137564 21.5724
-0.696876 1.56133 20.0716
-0.958948 0.924585 21.1302
-1.14765 1.76469 19.3531
-1.30861 1.85821 17.4014
-1.27585 0.946202 20.7911
-1.16627 1.3458 18.7724
-0.985177 0.527055 20.8869
0.88931 -0.323419 18.6616
0.857365 -0.409217 19.3704
-2.10368 1.51097 15.0905
-2.33086 0.330011 7.75048
-2.0613 0.615904 19.1526
-2.7007 0.319547 13.3628
-1.42746 0.136141 20.6941
0.70635 0.453133 19.026
0.917209 0.016052 19.2289
-1.74038 -1.30643 9.59373
0.185268 -0.948997 18.342
-1.31057 -1.20107 18.6993
-0.300132 -1.16823 18.7068
-1.3308 -1.12442 18.9683
0.775065 1.04055 19.3979
0.520752 0.409367 19.6783
1.22818 1.67243 20.3652
1.09722 0.975867 19.9929
1.29236 1.42132 21.3763
1.23748 0.896114 20.8803
0.583656 0.326554 21.7071
0.812338 0.388054 21.5557
0.299089 -0.177784 21.5047
0.320237 -0.158427 21.5341
0.0512665 -0.576492 21.428
0.0473124 -0.474918 21.3101
-0.275362 -0.667711 21.035
1.07133 -0.613836 20.0062
0.705962 -0.30636 19.7792
0.863867 -0.725323 21.312
1.58466 -0.802514 20.5061
0.0557786 -0.344287 21.547
0.482618 -0.564508 21.4542
-0.567834 0.064581 21.673
-0.23974 -0.28627 21.6814
-1.02466 0.359265 21.4558
-1.0695 0.178509 21.562
-0.990817 0.247574 21.0532
-1.3314 0.240584 21.0742
-1.11039 0.0610512 20.6797
1.3488 -0.438138 19.8165
0.804031 -0.12193 19.6549
1.28732 -0.697216 21.3331
2.01785 -0.316492 20.3129
0.219927 -0.525216 21.6294
0.937613 -0.532741 21.4335
-0.632437 -0.260614 21.7197
0.125993 -0.550914 21.7505
-1.36745 0.0138116 21.3242
-0.97441 -0.571552 21.5523
-1.46489 -0.0402126 20.8666
-1.51669 -0.482724 21.0505
-1.33463 -0.283878 20.6139
1.36014 0.0539912 19.7321
0.66963 0.197445 19.7391
1.66986 -0.112132 21.0473
1.42513 0.498007 20.1446
0.847473 -0.437183 21.5302
1.28736 0.190017 21.0826
0.0461544 -0.583059 21.7601
0.713098 -0.164919 21.5539
-0.733397 -0.855733 21.4468
0.10485 -0.514343 21.5583
-1.0783 -0.796194 21.1376
-0.272617 -0.778421 21.3527
-0.401947 -0.645672 21.1626
0.700013 0.424523 19.9511
1.01117 0.573371 20.5595
0.867105 0.32559 21.1656
0.410403 -0.039076 21.4263
0.07965 -0.326904 21.3734
-0.171027 -0.542438 21.1833
-1.16678 -0.528851 19.9437
-1.79445 -2.0562 18.3884
-1.36814 -1.10022 19.638
-1.83822 -0.91903 19.1281
-0.774563 -0.453781 19.4826
-2.6284 -2.01893 20.4793
-1.06707 -0.70873 21.2945
-0.450323 -0.254758 16.3673
-0.767115 -1.0735 21.7279
-1.36399 -1.50352 21.9087
-0.125566 -0.682105 21.446
-0.130749 -0.425647 21.564
0.345246 0.0330626 13.4871
0.109506 -0.272997 21.629
0.0748832 -0.30346 17.1193
0.553244 0.0609242 19.7272
0.636975 -0.071179 21.7137
0.247344 0.671887 14.0962
0.667205 0.486228 21.4748
0.838593 0.208614 15.2733
1.29237 1.00859 19.5551
1.27487 0.263811 21.3556
0.737802 1.70134 16.0479
1.18445 1.04703 21.0046
1.8596 0.991032 17.1974
1.71176 1.0698 19.9596
1.41414 0.365186 20.815
1.34778 2.00654 17.7096
1.3656 1.11921 20.5354
2.15397 0.821854 18.5339
1.30961 0.635281 20.4284
-1.42096 -0.202098 19.7316
-2.63458 -0.896475 16.8244
-2.04599 0.137585 18.8676
-0.903983 -0.200991 19.2527
-4.48445 -0.769607 19.8252
-1.56009 -0.441415 21.2503
-2.67733 -0.236665 21.6752
-0.835672 -1.09467 21.0562
-0.510064 -0.569019 21.6017
-1.27023 -1.04223 21.3944
0.136346 -0.515001 17.9537
0.354369 -0.554947 21.7176
0.0420806 -0.55893 18.9429
1.51112 -0.117974 13.6506
1.28684 -0.588826 21.4624
0.982602 -0.302889 3.31746
0.855886 -1.10501 16.8431
2.29306 -0.277822 16.4675
1.57174 -0.500443 20.5612
2.90214 0.897897 9.18134
1.56653 -1.28755 16.694
2.08178 -0.678566 18.7255
-1.10612 0.380707 19.764
-1.47708 1.39534 18.3923
-0.805792 0.738073 19.6761
-0.727303 0.346402 19.4051
-2.18285 1.30745 19.7338
-1.49101 0.413472 20.7188
-2.53327 2.3317 20.6588
-1.23697 1.10266 20.4663
-2.03216 0.546556 21.1353
-1.07065 -0.00846091 21.3871
-3.21837 1.32082 22.0756
-1.12059 0.717875 21.2807
-1.09645 -0.0509487 21.8466
-0.360496 -0.331507 21.5959
-0.821929 -0.198021 20.1509
-0.504944 0.0708692 21.5568
-0.354932 -0.642293 21.6234
0.0954102 -0.62686 21.4479
-0.439849 -0.600323 18.2044
-0.167066 -0.323535 21.433
0.0860847 -1.00675 21.3403
0.426683 -0.758774 21.247
0.0806169 -1.33686 19.1086
0.0996688 -0.612195 20.9735
0.354993 -1.04991 20.5396
1.78933 -2.09625 18.3603
-0.0244116 -3.18228 18.3189
-0.0120128 -3.20716 15.7508
-0.0109467 -0.956452 18.5595
-0.0101851 -5.6559 22.0158
0.457533 -0.244431 16.3299
-0.0126731 -1.30771 21.7783
0.000866084 -0.139709 10.7515
-0.333427 0.0378602 13.2753
-0.0021084 -0.181515 19.0121
-0.00255093 0.126904 10.5889
-0.225796 0.659536 13.9682
-0.00177775 0.409692 18.6331
-0.00385568 0.637797 11.1117
-0.831321 1.75152 16.4763
-0.00391629 1.29578 18.6611
0.0029965 0.31328 3.75313
-0.0469316 1.44358 12.4594
-1.4412 1.80567 18.3329
-0.00230749 1.6353 18.3133
-0.256598 1.55398 8.84278
-0.154123 2.35448 14.4798
2.6344 -0.896705 16.8166
0.00966415 1.18955 14.0091
0.000560826 -0.460648 17.9116
-1.10958 -0.335231 4.09741
0.0421406 0.859279 -3.76632
-0.195129 0.334912 -3.15371
-2.80666 0.607025 11.2481
-0.340266 1.41458 -4.40296
-0.398522 2.41401 3.53778
1.50301 1.30454 18.4981
0.0487677 1.50422 19.0097
0.0330595 0.672401 18.5291
0.0791204 4.86912 18.4114
2.55176 2.2215 20.6745
0.0403777 2.49513 20.1574
0.0356193 4.25482 19.6441
3.2372 1.3416 22.0757
-0.0129394 2.72065 21.3943
-0.0288122 1.40742 18.3195
0.776878 -0.16413 19.5724
-0.0358483 0.8106 21.8869
-0.0221634 0.22562 5.72098
0.444795 -0.596473 18.1692
-0.0190921 0.170466 21.6868
0.0910017 0.632889 4.34755
-0.152546 -1.36285 19.2094
0.00010177 -0.41637 21.3736
0.144641 -0.595049 8.77145
1.18148 -0.55871 19.9297
1.37844 -1.14152 19.6226
1.85387 -0.941446 19.1017
0.779803 -0.471282 19.4692
2.68389 -2.1055 20.4672
1.07256 -0.737938 21.3235
0.761141 -1.08273 21.7531
1.35121 -1.50861 21.8361
0.111008 -0.65154 21.2438
0.12572 -0.437375 21.5765
-0.111639 -0.258217 21.5673
-0.0775785 -0.300269 17.019
-0.552383 0.0887559 19.525
-0.638206 -0.0776933 21.7159
-0.661742 0.516179 21.4204
-0.838886 0.202617 15.3635
-1.29793 1.02885 19.5153
-1.22836 0.241439 21.3514
-1.19003 0.980993 21.0151
-1.84792 0.789673 18.1486
-1.74407 0.95276 20.2423
-1.27813 0.203019 20.9402
-1.35544 0.952052 20.6141
-2.12736 0.646574 19.7229
-1.2283 0.505837 20.9527
1.42759 -0.202616 19.7259
2.03658 0.132049 18.883
0.903354 -0.201279 19.2461
4.52328 -0.778978 19.8039
1.56927 -0.441491 21.2544
2.6736 -0.234444 21.6744
0.835356 -1.09709 21.0397
0.509495 -0.566705 21.6063
1.27005 -1.04162 21.3997
-0.131945 -0.517196 17.9624
-0.353431 -0.553372 21.7215
-0.0373393 -0.567416 18.9883
-1.52442 -0.0976125 14.021
-1.21658 -0.556056 21.5159
-0.938787 -1.07668 17.9492
-2.19666 -0.397952 18.2027
-1.36951 -0.572567 21.1226
-1.40355 -1.22083 18.6507
-1.90633 -0.714763 20.021
1.05999 0.350435 19.8069
0.809505 0.68831 19.7183
0.728245 0.331485 19.4366
2.13491 1.21691 19.784
1.46691 0.400352 20.7194
1.22378 1.03216 20.4787
2.00501 0.52807 21.1376
1.07435 -0.00951727 21.389
1.1254 0.728073 21.2813
1.12508 -0.0479992 21.8677
0.369537 -0.332163 21.6048
0.519737 0.0883098 21.5805
0.386216 -0.638796 21.637
-0.093495 -0.627909 21.4521
0.182493 -0.318913 21.4463
-0.101049 -1.00005 21.3631
-0.414469 -0.748591 21.2174
-0.0984466 -0.613999 20.971
-0.340129 -0.983328 20.9553
-1.63144 -1.06139 19.3635
-0.965086 -1.32353 22.0063
0.145432 -0.325439 20.3139
0.868675 0.471859 19.4375
1.56061 1.08525 20.0374
1.76971 1.1502 20.2751
-2.08496 -0.429507 18.8749
-2.28912 -0.906113 22.3322
-0.228283 -0.921362 19.4405
0.463974 -0.176314 16.3264
1.84486 -0.245991 15.2113
2.5412 -0.157926 16.9446
-1.38928 0.75183 19.2663
-2.15258 0.991862 20.7673
-1.77371 0.225065 21.6588
-0.625138 -0.345279 21.8297
-0.176609 -0.810216 21.5716
0.318846 -1.10428 20.7495
-0.0195226 -3.47944 17.1449
-0.00310939 -0.466819 12.3228
0.00313828 -0.0344056 10.1335
-0.0045041 0.243719 10.7044
-0.0104657 1.03573 11.9668
-0.0830349 2.09027 14.2422
-0.000343867 -1.58534 13.7167
-0.00743039 0.10052 -2.79191
-0.224769 0.265598 -1.91386
0.0624855 2.21499 17.4492
0.0485538 3.93893 20.2923
-0.0107923 5.39809 20.8524
-0.0348917 0.530708 8.85609
0.0135592 0.345838 5.16061
0.00812378 -0.794997 7.79228
1.65591 -1.09868 19.3303
0.945175 -1.34981 22.0232
-0.148152 -0.29899 20.0851
-0.862229 0.489129 19.3383
-1.57359 0.996149 20.2291
-1.82443 0.962943 20.532
2.09166 -0.434594 18.8606
2.29736 -0.906339 22.3421
0.22935 -0.923751 19.4333
-0.467907 -0.188012 16.4219
-1.8466 -0.317301 16.5255
-2.33119 -0.257671 18.5068
1.37624 0.714061 19.3159
2.10223 0.950426 20.7656
1.7847 0.228311 21.6622
0.652396 -0.343013 21.8373
0.176526 -0.81346 21.5799
-0.327831 -1.04856 20.9741
-0.870969 -0.375182 0.797971
0.00102182 -0.0438592 0.204146
-0.0396691 0.0127785 0.566903
0.265607 -0.0598017 0.664674
-0.04246 0.215678 2.48981
-0.321368 0.282358 2.04379
-2.05212 0.291576 1.73729
0 0 0
-0.199526 0.0399498 0.53471
-0.00810036 -0.0117518 0.000123223
-0.0705338 0.0255894 -0.072586
-0.00722478 -0.0168575 0.105609
-0.000367507 -0.0435477 0.204185
0.881959 -0.379249 0.801077
0.0452603 0.0106129 0.588325
0.0566152 0.179699 2.43827
0 0 0
0.329864 0.285033 1.99436
0 0 0
2.05522 0.289641 1.74127
0.20252 0.0402973 0.544116
0.0714443 0.0241605 -0.0702364
0.00818662 -0.0119438 0.000220402
0.0074884 -0.0172038 0.106298
0.0198118 0.0168968 0.185124
0 0 0
0.00304242 -0.00638651 0.398974
0.000317696 9.2983e-05 0.0078587
0.00719978 0.00455727 0.134723
0 0 0
0 0 0
0.0003308 0.0202736 0.436598
-0.0661614 -0.100699 0.407789
0 0 0
0 0 0
-0.0338638 0.0102945 0.0354354
0 0 0
-0.000592469 0.00650741 0.0413499
0 0 0
0.0189109 0.0196978 0.635929
-0.0197179 0.0173485 0.179242
-0.000239131 6.66258e-05 0.00571622
0 0 0
-0.00321865 -0.00553985 0.415709
-0.00736812 0.00721078 0.148448
8.5771e-05 0.0206593 0.44386
0 0 0
0 0 0
0.0660797 -0.100452 0.406703
0.0292269 0.00866644 0.0308433
0 0 0
0.000843111 0.000175184 0.0392672
0 0 0
-0.0191045 0.0196464 0.636104
0.000604838 0.00686679 0.0433933
0 0 0
0 0 0
0 0 0
7.156e-07 -0.000236474 0.00815345
-1.35501e-05 -0.0718342 0.0141312
-5.46508e-05 -6.33817e-05 0.00381475
0 0 0
0.0139143 -0.00124733 0.0566946
-0.00200243 -0.00176009 -0.000190675
0.00175479 0.0932495 1.88232
0 0 0
0.00222315 0.0070085 0.06824
0.00630206 0.00990846 0.20726
0.000133765 0.796504 0.390559
1.1675e-05 0.0313714 0.124448
-0.000365193 -0.00258444 0.0225976
-0.0247879 0.01611 0.12216
0 0 0
8.58799e-06 3.86002e-05 -0.00100694
0 0 0
-0.000637474 5.41029e-05 -0.00247688
0 0 0
0 0 0
0 0 0
3.74557e-05 -6.21601e-05 0.00263725
0.00191788 -0.00162476 -0.000164493
-0.0128319 -0.00108379 0.0523911
-0.00506033 0.00692449 0.213096
-0.00200455 0.00650205 0.0627985
0.0246254 0.0159795 0.121275
0.000368271 -0.00259831 0.0225532
0.000641291 5.27901e-05 -0.00246414
0 0 0
0.00102117 0.00419918 0.0652009
0.000458737 0.000130756 0.00843456
0 0 0
0.000173931 0.00781322 0.256456
-0.00021416 0.0729272 0.329439
-2.8739e-06 1.58513e-05 0.0117276
0.00217059 0.00760495 0.103289
-0.00134458 0.00131758 0.0330191
-2.46115e-05 0.000168825 0.0490467
-0.000362967 0.00923082 0.473452
0.000129125 0.00278824 0.026779
-0.549731 0.376591 2.04701
0.00109694 0.00451225 0.150151
0.00066108 0.0254578 0.0568043
-3.10241e-07 0.000253843 0.00592437
0 0 0
-0.000529756 0.000152255 0.00977768
-0.000978652 0.00402794 0.063044
0 0 0
-0.000133285 0.00793951 0.25747
-0.00226044 0.00793578 0.107285
0 0 0
0.548483 0.37853 2.04551
-0.000128829 0.00277555 0.0267148
-0.12481 -0.060486 0.58946
-0.124185 -0.0437353 0.398102
1.1105e-05 2.22711e-06 0.00373784
-1.96324e-05 -0.000229187 0.00162997
0.000726582 0.00567835 0.22214
5.12139e-05 0.000358532 0.0182387
0.000430019 0.00170103 0.0401217
0.000121173 0.00302954 0.0162264
0 0 0
1.15667e-05 0.00657261 0.052766
0.0206604 0.0434197 0.131326
0.0252179 -0.0154954 0.140051
0 0 0
0 0 0
0.00011803 0.000802057 0.00480474
0 0 0
0 0 0
0 0 0
0.00678023 -0.000452711 0.16286
-0.00690683 -0.000130363 0.167285
-0.019016 0.0183551 0.225196
0.0200362 0.0183371 0.227225
0.0371292 0.0464633 2.02695
-0.0433029 0.0493253 1.99331