# vtk DataFile Version 2.0
tet_velo
ASCII
DATASET UNSTRUCTURED_GRID
POINTS 29498 float
-0.597482 0.135 -1.815
-0.735 0.255 1.82686
-0.675 0.498313 -1.625
-0.675 0.725 1.78709
0.597477 0.135 -1.815
0.735 0.255 1.82686
0.675 0.498313 -1.625
0.675 0.725 1.78709
-0.676535 0.141786 -0.601047
-0.71502 0.189141 0.612907
-0.734761 0.633636 -0.487637
-0.731582 0.706019 0.649727
0.676032 0.142286 -0.601047
0.715016 0.189143 0.612907
0.734747 0.633622 -0.487637
0.731568 0.706006 0.649727
-1.28983 -0.153527 -2.80698
-1.29643 -0.102723 -1.86649
-1.35903 -0.0845251 -0.650559
-1.40527 -0.0514084 0.580789
-1.42257 0.00404959 1.79802
-1.42782 0.0470581 2.74487
-1.43095 0.0884405 3.67994
-1.29048 0.0631095 -2.73951
-1.29794 0.127808 -1.80739
-1.37379 0.156298 -0.606362
-1.41574 0.194299 0.601562
-1.4237 0.246288 1.80406
-1.43067 0.288603 2.74983
-1.43509 0.330067 3.6874
-1.32487 0.472159 -2.58309
-1.3561 0.535913 -1.6478
-1.42068 0.637901 -0.498981
-1.43066 0.699995 0.644411
-1.39675 0.730228 1.7947
-1.41869 0.771114 2.74363
-1.436 0.814773 3.69355
-1.36559 1.15719 -2.40603
-1.38632 1.23066 -1.48221
-1.41713 1.34115 -0.358229
-1.43396 1.42852 0.749249
-1.43455 1.48002 1.87404
-1.43752 1.51502 2.79953
-1.44545 1.55332 3.74109
-0.619358 -0.150398 -2.81192
-0.613956 -0.0977446 -1.8737
-0.664275 -0.0916845 -0.649592
-0.699932 -0.0556617 0.590471
-0.716248 0.00762347 1.81495
-0.722864 0.0490044 2.75635
-0.726485 0.0886824 3.68659
-0.616397 0.0620993 -2.74104
-0.731137 0.29066 2.7593
-0.732511 0.330127 3.69241
-0.642998 0.456518 -2.57362
-0.720146 0.769361 2.74211
-0.735643 0.813634 3.69323
-0.673186 1.14653 -2.39667
-0.686771 1.22064 -1.4719
-0.71026 1.33885 -0.35201
-0.727162 1.43091 0.748503
-0.731648 1.48076 1.86871
-0.735766 1.51451 2.7942
-0.743697 1.55261 3.73722
0.668902 -0.150326 -2.81192
0.649117 -0.097631 -1.8737
0.69035 -0.0913472 -0.649592
0.719684 -0.0555896 0.590471
0.730554 0.00763916 1.81495
0.707103 0.0490262 2.75635
0.691123 0.088714 3.68659
0.663577 0.0621383 -2.74104
0.695511 0.290674 2.7593
0.682392 0.330153 3.69241
0.686049 0.456541 -2.57362
0.673093 0.769372 2.74211
0.669103 0.813657 3.69323
0.703698 1.14657 -2.39667
0.706711 1.22068 -1.4719
0.707707 1.33889 -0.35201
0.695194 1.43095 0.748503
0.677426 1.48079 1.86871
0.668192 1.51454 2.7942
0.660754 1.55264 3.73722
1.32868 -0.153362 -2.80698
1.31466 -0.102474 -1.86649
1.37176 -0.0840558 -0.650559
1.42037 -0.0512201 0.580789
1.43447 0.00410717 1.79802
1.41757 0.0471156 2.74487
1.40022 0.0885112 3.67994
1.32096 0.063225 -2.73951
1.29381 0.127958 -1.80739
1.36876 0.156784 -0.606363
1.41924 0.194449 0.601562
1.4274 0.246318 1.80406
1.40776 0.288644 2.74983
1.39183 0.330127 3.6874
1.35011 0.472232 -2.58309
1.34896 0.535962 -1.6478
1.41209 0.638058 -0.498981
1.42837 0.70008 0.644411
1.39267 0.730249 1.7947
1.38244 0.771149 2.74363
1.37596 0.814828 3.69355
1.38951 1.15729 -2.40603
1.39782 1.23075 -1.48221
1.40935 1.34124 -0.358229
1.40355 1.4286 0.749249
1.38476 1.48009 1.87404
1.37312 1.51509 2.79953
1.36484 1.55339 3.74109
-0.660798 0.316657 -1.74456
-2.5034e-06 0.131743 -1.81826
-0.639885 0.135516 -1.20802
-0.725466 0.49 1.82744
0 0.251168 1.83069
-0.729373 0.217708 1.21988
0 0.558017 -1.6847
-0.808524 0.669618 -1.05632
0 0.776941 1.83903
-0.760618 0.772837 1.21841
0.660796 0.316657 -1.74456
0.638697 0.136701 -1.20802
0.725459 0.49 1.82743
0.729239 0.217841 1.21988
0.808585 0.669679 -1.05632
0.760603 0.772821 1.21841
-0.710314 0.150927 0.00592995
-0.768179 0.387711 -0.544342
-0.000251772 0.140145 -0.601047
-0.76904 0.44758 0.631317
-2.1779e-06 0.149789 0.612907
-0.727527 0.664183 0.081045
-7.10438e-06 0.959385 -0.487637
-6.7514e-06 1.02728 0.649727
0.710214 0.151025 0.00592995
0.768184 0.387954 -0.544342
0.769035 0.447575 0.631317
0.727517 0.664174 0.081045
-0.876572 0.352184 -1.13217
-0.74428 0.417646 0.0434875
-0.889622 0.46879 1.21915
-0.000127138 0.133405 -1.20802
-0.000126975 0.147608 0.00592995
-1.08895e-06 0.179391 1.21988
-1.2517e-06 0.316657 -1.9717
0 0.49 1.98501
-3.55219e-06 0.714358 -1.05632
-6.92789e-06 1.06949 0.081045
-3.3757e-06 0.856409 1.21841
0.876517 0.352305 -1.13217
0.744278 0.417764 0.0434875
0.889621 0.468787 1.21915
-0.947712 0.131404 -1.8112
-0.605719 0.0186277 -1.84435
-0.606939 0.0985496 -2.27802
-1.07935 0.250644 1.81546
-0.725624 0.131312 1.8209
-0.733069 0.27283 2.29308
-1.01555 0.517113 -1.6364
-0.658999 0.477416 -2.09931
-0.680886 0.859478 -1.54845
-1.03587 0.727614 1.79089
-0.697573 0.747181 2.2646
-0.703324 1.10288 1.8279
0.623297 0.0186845 -1.84435
0.630527 0.0985692 -2.27802
0.945644 0.131479 -1.8112
0.732777 0.13132 1.8209
0.715255 0.272837 2.29308
1.0812 0.250659 1.81546
0.680524 0.477427 -2.09931
0.690855 0.859498 -1.54845
1.01198 0.517138 -1.6364
0.674046 0.747186 2.2646
0.676213 1.10289 1.8279
1.03384 0.727624 1.79089
-1.02516 0.149042 -0.603705
-0.670405 0.0250507 -0.625319
-1.06538 0.19172 0.607235
-0.707476 0.0667394 0.601689
-1.07772 0.635768 -0.493309
-0.722511 0.986242 -0.419823
-1.08112 0.703007 0.647069
-0.729372 1.06847 0.699115
0.683191 0.0254694 -0.625319
1.02239 0.149535 -0.603705
0.71735 0.0667768 0.601689
1.06713 0.191796 0.607235
0.721227 0.986255 -0.419823
1.07342 0.63584 -0.493309
0.713381 1.06848 0.699115
1.07997 0.703043 0.647069
-1.29313 -0.128125 -2.33674
-1.29015 -0.0452089 -2.77325
-0.954593 -0.151963 -2.80945
-1.32773 -0.0936239 -1.25853
-1.29719 0.0125428 -1.83694
-0.955193 -0.100234 -1.8701
-1.38215 -0.0679668 -0.0348849
-1.36641 0.0358865 -0.628461
-1.01165 -0.0881048 -0.650075
-1.41392 -0.0236794 1.1894
-1.4105 0.0714452 0.591176
-1.0526 -0.053535 0.58563
-1.42519 0.0255538 2.27144
-1.42314 0.125169 1.80104
-1.06941 0.00583653 1.80648
-1.42939 0.0677493 3.21241
-1.42925 0.167831 2.74735
-1.07534 0.0480312 2.75061
-1.43302 0.209254 3.68367
-1.07872 0.0885614 3.68327
-1.29421 0.0954589 -2.27345
-1.30767 0.267634 -2.6613
-0.953438 0.0626044 -2.74028
-1.33586 0.142053 -1.20688
-1.32702 0.331861 -1.7276
-1.39476 0.175298 -0.00239999
-1.39723 0.397099 -0.552672
-1.41972 0.220293 1.20281
-1.4232 0.447147 0.622987
-1.42719 0.267445 2.27694
-1.41023 0.488258 1.79938
-1.43288 0.309335 3.21861
-1.42468 0.529859 2.74673
-1.0809 0.289631 2.75456
-1.43554 0.57242 3.69048
-1.0838 0.330097 3.68991
-1.34049 0.504036 -2.11544
-1.34523 0.814673 -2.49456
-0.983932 0.464339 -2.57835
-1.38839 0.586907 -1.07339
-1.37121 0.883286 -1.56501
-1.42567 0.668948 0.072715
-1.4189 0.989525 -0.428605
-1.4137 0.715112 1.21955
-1.43231 1.06426 0.69683
-1.40772 0.750671 2.26916
-1.41565 1.10513 1.83437
-1.42734 0.792944 3.21859
-1.4281 1.14307 2.77158
-1.06942 0.770238 2.74287
-1.44072 1.18405 3.71732
-1.08582 0.814204 3.69339
-1.37595 1.19392 -1.94412
-1.01939 1.15186 -2.40135
-1.40172 1.2859 -0.920222
-1.03655 1.22565 -1.47706
-1.42554 1.38483 0.19551
-1.06369 1.34 -0.355119
-1.43426 1.45427 1.31164
-1.08056 1.42971 0.748876
-1.43604 1.49752 2.33678
-1.0831 1.48039 1.87137
-1.44149 1.53417 3.27031
-1.08664 1.51476 2.79686
-1.09457 1.55296 3.73915
-0.616657 -0.124071 -2.34281
-0.617877 -0.0441492 -2.77648
0.024772 -0.150362 -2.81192
-0.639115 -0.0947146 -1.26165
0.0175806 -0.0976878 -1.8737
-0.682104 -0.0736731 -0.0295602
0.0130376 -0.0915159 -0.649592
-0.70809 -0.0240191 1.20271
0.00987607 -0.0556256 0.590471
-0.719556 0.0283139 2.28565
0.00715307 0.00763132 1.81495
-0.724675 0.0688434 3.22147
-0.727001 0.169832 2.75782
-0.0078808 0.0490153 2.75635
-0.729498 0.209404 3.6895
-0.0176811 0.0886982 3.68659
-0.629697 0.259309 -2.65733
0.0235901 0.0621188 -2.74104
-0.731824 0.310393 3.22586
-0.725642 0.530011 2.7507
-0.0178132 0.290667 2.7593
-0.734077 0.57188 3.69282
-0.0250595 0.33014 3.69241
-0.658092 0.801523 -2.48514
0.0215257 0.45653 -2.57362
-0.727895 0.791497 3.21767
-0.727956 1.14193 2.76816
-0.0235268 0.769367 2.74211
-0.73967 1.18312 3.71522
-0.0332699 0.813645 3.69323
-0.679979 1.18359 -1.93428
0.0152559 1.14655 -2.39667
-0.698516 1.27975 -0.911953
0.00996958 1.22066 -1.4719
-0.718711 1.38488 0.198247
-0.00127682 1.33887 -0.35201
-0.729405 1.45583 1.3086
-0.0159838 1.43093 0.748503
-0.733707 1.49763 2.33146
-0.0271108 1.48077 1.86871
-0.739732 1.53356 3.26571
-0.0337874 1.51452 2.7942
-0.0414718 1.55263 3.73722
0.659009 -0.123979 -2.34281
0.666239 -0.044094 -2.77648
0.998792 -0.151844 -2.80945
0.669734 -0.0944891 -1.26165
0.981891 -0.100052 -1.8701
0.705017 -0.0734684 -0.0295602
1.03106 -0.0877015 -0.650075
0.725119 -0.0239752 1.20271
1.07003 -0.0534048 0.58563
0.718828 0.0283327 2.28565
1.08251 0.00587317 1.80648
0.699113 0.0688701 3.22147
0.701307 0.16985 2.75782
1.06234 0.0480709 2.75061
0.686757 0.209433 3.6895
1.04567 0.0886126 3.68327
0.674813 0.25934 -2.65733
0.99227 0.0626817 -2.74027
0.688951 0.310413 3.22586
0.684302 0.530023 2.7507
1.05164 0.289659 2.75456
0.675747 0.571905 3.69282
1.03711 0.33014 3.68991
0.694873 0.801557 -2.48514
1.01808 0.464386 -2.57835
0.671098 0.791515 3.21767
0.670642 1.14195 2.76816
1.02777 0.770261 2.74287
0.664928 1.18315 3.71522
1.02253 0.814242 3.69339
0.705204 1.18363 -1.93428
1.0466 1.15193 -2.40135
0.707209 1.27979 -0.911954
1.05227 1.22572 -1.47706
0.70145 1.38492 0.198247
1.05853 1.34007 -0.355119
0.68631 1.45587 1.3086
1.04937 1.42977 0.748876
0.672809 1.49766 2.33145
1.0311 1.48044 1.87137
0.664473 1.53359 3.26571
1.02066 1.51481 2.79686
1.0128 1.55302 3.73915
1.32167 -0.127918 -2.33674
1.32482 -0.0450683 -2.77325
1.34321 -0.0932649 -1.25853
1.30424 0.0127422 -1.83694
1.39607 -0.0676379 -0.0348849
1.37026 0.0363639 -0.628461
1.42742 -0.0235565 1.1894
1.4198 0.0716143 0.591176
1.42602 0.0256114 2.27144
1.43094 0.125212 1.80104
1.4089 0.0678134 3.21241
1.41267 0.16788 2.74735
1.39602 0.209319 3.68367
1.30739 0.0955917 -2.27345
1.33554 0.267728 -2.6613
1.33128 0.142371 -1.20688
1.32138 0.33196 -1.7276
1.394 0.175616 -0.00240006
1.39043 0.397421 -0.552672
1.42332 0.220383 1.20281
1.4238 0.447264 0.622987
1.41758 0.267481 2.27694
1.41004 0.488283 1.79938
1.39979 0.309386 3.21861
1.3951 0.529897 2.74673
1.3839 0.572478 3.69048
1.34953 0.504097 -2.11544
1.36981 0.814759 -2.49456
[...]
POINT_DATA 29498
VECTORS point_vectors float
-4.5558 -8.69466 11.5586
-0.0614638 0.357992 1.29935
-0.533979 0.595222 1.31858
0.0054869 -0.0859165 0.184122
4.54699 -8.74259 11.668
0.0626712 0.35817 1.30274
0.536736 0.597385 1.31961
-0.00482622 -0.0858547 0.182976
-0.0196845 0.00697285 0.0780187
0.08641 -0.139363 0.840873
-0.0306013 -0.029455 0.617398
0.125379 0.331727 0.515106
0.0187563 0.00654318 0.076032
-0.085175 -0.138077 0.838499
0.0296555 -0.028192 0.61661
-0.125272 0.330386 0.511679
-0.523832 -0.239315 19.7462
-1.35206 -0.872426 20.1308
-0.363138 -0.432166 21.2337
0.0360353 -0.231184 21.0913
0.561289 0.0286677 21.1578
0.804954 0.123926 20.7584
0.77513 -0.0364523 20.5278
-0.644147 -0.207317 19.6541
-1.88318 -0.737361 20.0328
-0.435924 -0.477372 21.2686
-0.0479256 -0.326892 21.0984
0.630919 -0.104501 21.2368
0.8782 -0.0595589 20.8443
0.78646 -0.214598 20.8495
-0.868233 0.0123346 19.553
-2.13284 0.0410327 20.2041
-0.794489 -0.358936 21.1876
-0.311057 -0.278629 21.1593
0.480822 -0.3667 21.2699
0.724562 -0.433708 20.8181
0.627189 -0.339606 20.7394
-0.73358 0.410981 19.7692
-1.18603 0.640772 20.3641
-0.831976 0.23932 20.9986
-0.293526 0.0164283 21.1212
0.149838 -0.268046 21.0331
0.273025 -0.38242 20.8198
0.242562 -0.331813 20.6332
-0.48459 -0.545439 19.2356
-1.64383 -3.87107 19.9804
-0.257704 0.044646 19.7717
0.14608 0.0529287 17.1233
0.654998 1.08922 16.0634
0.83125 1.394 16.3147
0.901677 0.891472 16.3712
-0.626025 -0.464135 18.9341
0.946457 1.15728 8.44223
1.16213 0.708609 11.3912
-0.995724 0.0742093 18.3763
1.05036 -0.527256 9.35098
0.922644 -0.663615 13.6435
-0.753985 0.975028 19.1327
-1.52903 2.262 20.0836
-1.56125 1.38801 21.3665
-0.277296 0.263965 21.5953
0.142781 -0.466423 21.2068
0.261126 -0.656417 20.7885
0.107578 -0.592773 20.4463
0.499428 -0.519286 19.27
1.76263 -3.5865 19.9011
0.22385 0.0238713 20.039
-0.123123 0.0454827 17.3859
-0.682871 1.07573 16.2229
-0.793284 1.405 16.1157
-0.875307 0.945565 16.1672
0.649868 -0.445654 18.982
-0.84102 1.16486 7.93818
-1.18285 0.79986 10.4013
1.02711 0.0600125 18.4668
-0.939561 -0.536034 8.09356
-0.899316 -0.539851 12.8799
0.765351 0.945755 19.1639
1.55049 2.21459 20.0965
1.56894 1.3954 21.3684
0.264556 0.268469 21.6275
-0.128043 -0.481139 21.2463
-0.22699 -0.682605 20.8209
-0.0618021 -0.618535 20.4864
0.525538 -0.239623 19.7634
1.32887 -0.840193 20.1372
0.37276 -0.429472 21.2139
-0.0291988 -0.22612 21.0783
-0.550494 0.0251576 21.1569
-0.813237 0.1361 20.755
-0.801861 -0.000134455 20.4545
0.632126 -0.196562 19.6767
1.8914 -0.745174 20.0285
0.432371 -0.480041 21.276
0.0493088 -0.323092 21.1064
-0.62818 -0.102969 21.2321
-0.906495 -0.0585183 20.8446
-0.848815 -0.225703 20.6823
0.851385 0.00903349 19.5792
2.16526 0.042877 20.1972
0.799818 -0.371916 21.1959
0.313406 -0.281826 21.159
-0.484903 -0.36914 21.274
-0.745771 -0.461819 20.8469
-0.66485 -0.35228 20.6036
0.725952 0.398392 19.7874
1.18007 0.630202 20.364
0.848471 0.245879 21.0029
0.297573 0.0228 21.1387
-0.157062 -0.281444 21.0512
-0.288501 -0.416668 20.8045
-0.245564 -0.348498 20.6735
-0.559396 0.00378586 0.631948
0.000127617 -0.107937 0.662945
-0.00184286 0.000158733 0.0132817
-0.00698772 -0.00175428 -0.00502026
-3.96906e-07 0.0100378 0.0658378
-0.00315 0.00373211 0.0575993
0 0 0
-0.0988603 -0.098377 0.853597
0.00151044 -0.00279577 0.0139025
0.114302 0.103986 0.51371
0.558577 0.00252958 0.629004
0.000661718 5.45833e-05 0.00554312
0.0069853 -0.00186535 -0.00493241
0.00304853 0.00358611 0.0549365
0.0996148 -0.099132 0.859998
-0.113523 0.102925 0.510603
-0.0521226 0.13142 2.81713
0 0 0
-1.33129e-05 3.60573e-05 0.00339488
-0.00603106 0.0366599 0.0769365
-2.72385e-05 0.000212262 0.016332
0.0212878 0.0371178 0.142866
-3.4234e-05 0.0328902 0.0899947
9.37844e-06 -0.000395129 0.00244862
0.0592903 0.133487 2.81934
0 0 0
0.00598641 0.0368588 0.0763399
-0.0213046 0.0371415 0.142917
-9.63851e-05 0.000884818 0.0427197
0 0 0
0 0 0
7.1027e-08 -1.61346e-07 -1.84388e-05
3.20968e-07 5.28123e-06 0.00073241
1.00876e-07 3.57719e-06 3.22126e-05
0.000104674 -0.0819157 0.0950094
-1.27902e-05 -0.00348051 -0.00186884
-1.20431e-05 0.000118741 0.00160778
1.74586e-06 1.77412e-05 0.000433993
3.60876e-07 -0.00011076 0.000386204
0.000111634 0.000930324 0.0448359
8.18354e-19 -1.08297e-17 -2.99891e-17
0 0 0
-3.4472 -2.19508 19.2654
-2.4736 -6.02124 19.6878
-1.69817 -1.5204 17.7456
1.09427 0.278632 18.6758
0.0886699 1.10214 9.74744
0.255752 0.909681 5.90676
-4.55312 0.577941 19.4813
-3.18472 0.911148 16.4198
-2.98578 3.89098 19.4642
1.10581 -0.145614 18.3686
0.262159 -0.383247 5.27304
0.62863 -0.505053 18.9345
2.59003 -5.74133 19.6432
1.72958 -1.46062 17.8221
3.45879 -2.21338 19.2662
-0.106082 1.10917 9.85646
-0.182371 0.865549 5.60051
-1.09238 0.27085 18.7419
3.15482 0.813867 16.6194
3.01012 3.82835 19.477
4.60968 0.59347 19.4575
-0.12188 -0.36488 4.55032
-0.660809 -0.501442 18.5218
-1.11625 -0.154407 18.3632
0.339191 -0.201226 19.1912
-0.921942 0.399974 12.5403
0.140826 -0.236085 18.4793
0.596422 -0.292034 10.2589
-0.87187 -1.19906 20.2836
-3.21979 0.973368 21.0251
-0.493077 -0.435681 19.7077
-0.250299 0.481111 19.9968
0.919854 0.40341 12.6438
-0.341127 -0.217119 19.4055
-0.533316 -0.291191 10.5173
-0.138863 -0.245233 18.5798
3.23145 0.987148 21.0662
0.869706 -1.21012 20.2737
0.144407 0.506977 19.6302
0.489903 -0.419089 19.6221
-0.906407 -0.490602 19.7727
-0.582498 -0.222229 19.7009
-0.562758 -0.397734 19.502
-1.08595 -0.84527 21.054
-1.57739 -0.816813 20.1031
-1.84524 -1.89093 19.8777
-0.0536544 -0.256222 21.0972
-0.400032 -0.441221 21.2509
-0.0809075 -0.363843 21.5078
0.205389 -0.170265 21.2132
0.000313417 -0.282581 21.0902
0.206589 -0.188695 20.5823
0.736881 0.117125 20.9556
0.583409 -0.0413977 21.1923
0.921136 0.394423 20.5668
0.80538 0.0119777 20.8045
0.870093 0.0439303 20.8035
1.17193 0.541474 20.2078
0.783923 -0.127857 20.6698
1.0544 0.336357 19.884
-1.15823 -0.404461 19.644
-0.772249 -0.142981 19.5741
-0.711325 -0.325471 19.315
-1.46405 -0.775143 21.2168
-2.10224 -0.396288 20.0792
-0.108599 -0.373188 21.1188
-0.600546 -0.509404 21.2459
0.121379 -0.271891 21.2877
-0.182996 -0.348295 21.1586
0.824193 -0.0535479 21.0037
0.586873 -0.254881 21.2503
0.866472 -0.135503 20.699
0.857217 -0.28109 20.8009
1.41414 0.314142 18.9485
0.696973 -0.284345 21.0841
1.06425 0.0701827 18.3767
-1.50863 0.0384636 19.6074
-0.876998 0.264511 19.6145
-1.00313 0.0178002 19.1014
-1.54064 -0.168862 21.1901
-1.71724 0.532717 20.3141
-0.484828 -0.375376 21.1631
-0.963006 -0.0383445 21.0915
-0.0836572 -0.239585 21.3318
-0.362113 -0.0922885 21.1791
0.664816 -0.423264 21.0148
0.268242 -0.349867 21.1211
0.674798 -0.388014 20.8304
0.44848 -0.444324 20.7928
1.15961 -0.559708 19.4393
0.454684 -0.426194 20.5215
0.746688 -0.382632 19.0307
-1.02356 0.591266 19.9603
-0.816676 0.649035 19.4872
-1.0728 0.453001 20.7899
-1.53435 1.28919 20.2675
-0.560286 0.119755 21.1002
-1.21196 0.586031 21.1763
-0.0467243 -0.115426 21.1032
-0.346744 0.128903 21.3232
0.232131 -0.353886 20.9016
0.156913 -0.349052 21.114
0.271972 -0.360512 20.5672
0.274406 -0.507831 20.7786
0.255984 -0.457744 20.6154
-1.06003 -1.47913 18.7988
-0.538633 -0.523248 19.1032
0.0208439 -0.667722 18.9792
-0.0695408 -1.28779 21.6111
0.0325023 -4.95091 21.0477
-0.256375 0.307174 18.08
0.00653105 -0.139098 17.6212
0.814301 0.532374 16.4236
-0.00489068 0.107645 14.308
0.686752 1.28928 16.1332
-0.000988736 0.835176 12.4931
0.993339 1.32899 16.3686
0.875343 1.34774 12.7005
-0.00514455 1.0867 12.5775
1.0567 0.808273 13.5301
0.0248063 1.06441 13.0693
-0.800727 -0.283014 18.6258
0.0367768 -0.618954 18.4928
1.2618 1.25662 10.5758
1.09285 0.22065 5.09593
-0.0065775 0.205034 1.36488
1.15166 0.287844 10.9306
0.00793328 0.382456 4.79871
-0.96445 0.726002 18.6072
0.0390271 0.172282 17.5401
1.45181 -0.749183 12.1252
0.600534 -0.815606 19.4976
0.024734 -0.360244 0.944226
0.42935 -0.672088 19.4359
0.0814068 -0.408156 6.19596
-1.21388 1.8061 19.2892
0.0194919 1.36019 18.7312
-1.70792 1.83895 20.8109
0.0315991 3.23018 19.8098
-0.877341 0.7722 21.6715
-0.00529436 3.50909 21.6442
0.0283242 -0.155744 21.4369
-0.00794435 0.208281 22.0287
0.200465 -0.598471 21.022
0.0110278 -0.575888 21.1869
0.252597 -0.639669 20.6762
0.0116187 -0.790861 20.9056
0.0109226 -0.599205 20.6157
1.09052 -1.39492 18.8785
0.560898 -0.503727 19.1526
0.562659 -0.36924 19.5444
0.0607136 -1.47985 22.0196
1.80906 -1.78725 19.9049
0.237845 0.311536 18.3339
0.110746 -0.383174 21.5136
-0.818653 0.483724 16.7061
-0.200049 -0.202565 20.6714
-0.689623 1.28207 16.1259
-0.904723 0.369024 20.6519
-0.932181 1.35552 16.3186
-0.805826 1.40273 12.3679
-1.17429 0.571393 20.087
-1.02908 0.872713 13.2842
-1.04419 0.403694 19.7867
0.830252 -0.265815 18.7162
0.713879 -0.316642 19.3693
-1.1351 1.27004 9.6796
-1.0411 0.230019 4.23678
-1.45129 0.386404 18.3895
-1.18629 0.392434 9.586
-1.04835 0.157324 18.2617
0.986442 0.700219 18.667
0.993863 0.0233051 19.1676
-1.30118 -0.681283 10.6634
-0.617252 -0.834212 19.3414
-1.24095 -0.557029 18.9164
-0.455045 -0.71221 18.5907
-0.754402 -0.418179 18.1924
1.2276 1.74922 19.3209
0.814962 0.627148 19.5134
1.72662 1.80634 20.8107
1.51822 1.24312 20.2734
0.881086 0.798698 21.6938
1.21845 0.598606 21.182
-0.0330602 -0.167815 21.4518
0.35259 0.142585 21.3429
-0.186055 -0.615757 21.0399
-0.152929 -0.364389 21.1314
-0.211658 -0.656402 20.6774
-0.262776 -0.53139 20.7759
-0.269049 -0.492765 20.4266
0.891897 -0.474131 19.7901
0.573602 -0.214209 19.7229
1.07657 -0.822564 21.0294
1.56472 -0.805695 20.1051
0.0667349 -0.254006 21.0851
0.404756 -0.439503 21.2451
-0.198039 -0.166853 21.2026
0.0063398 -0.278754 21.0908
-0.734608 0.11725 20.9536
-0.576973 -0.0426688 21.193
-0.816456 0.0126088 20.8015
-0.889037 0.0412427 20.8056
-0.833443 -0.135713 20.5194
1.14065 -0.392304 19.6627
0.752198 -0.132845 19.6075
1.46759 -0.779999 21.2237
2.12361 -0.398869 20.0745
0.110435 -0.374585 21.1294
0.600225 -0.516178 21.257
-0.122583 -0.266663 21.2881
0.178401 -0.349798 21.1451
-0.836133 -0.0514112 20.9996
-0.59002 -0.252955 21.2455
-0.896668 -0.144398 20.7627
-0.905462 -0.290697 20.8043
-0.748861 -0.265053 20.6813
1.48881 0.0358738 19.6231
0.862114 0.251259 19.6361
1.55526 -0.174789 21.2037
1.71117 0.527633 20.3143
0.490875 -0.390737 21.1568
0.974832 -0.0386944 21.0965
0.0844933 -0.240635 21.3407
0.368812 -0.0908675 21.1924
-0.679885 -0.442098 21.0213
-0.279597 -0.365921 21.1443
-0.702424 -0.414816 20.9275
-0.463544 -0.477107 20.7969
-0.499065 -0.48992 20.5481
1.01472 0.576373 19.9695
1.0738 0.452222 20.7903
0.574177 0.126785 21.1097
0.0430344 -0.119324 21.1222
-0.247207 -0.370614 20.9068
-0.26985 -0.405334 20.4849
-1.05014 -0.471227 19.7066
-1.32388 -1.52554 18.3315
-1.09092 -0.887418 19.3674
-1.57628 -0.806595 18.9414
-0.628029 -0.379717 19.4199
-2.50891 -2.09388 19.6331
-1.25976 -0.839793 21.1321
-0.236075 -0.336326 15.21
-1.01279 -1.66968 21.707
-1.675 -2.03915 21.4249
0.0982276 -0.261761 20.8942
-0.0699191 -0.304852 21.1199
-0.387151 0.405278 11.208
0.190632 -0.0827331 20.8862
0.399452 -0.131911 18.6802
0.193095 -0.222063 19.8405
0.173035 -0.2337 21.2521
0.601744 0.617146 9.11571
0.465558 -0.158019 20.748
0.121763 -0.421298 18.953
1.03421 0.327666 19.6932
0.790336 0.0187418 20.9684
0.532252 1.20659 11.1747
1.11224 0.519917 20.4749
1.30659 0.332636 18.5343
1.32782 0.457486 19.3173
0.847763 -0.0737424 20.7616
1.16804 1.45787 14.1956
1.11699 0.403151 20.3431
1.32669 0.237815 18.2293
1.05932 0.20327 19.1303
-1.36468 -0.248641 19.5899
-2.59318 -0.751421 16.7887
-2.30391 0.18676 18.7192
-0.879611 -0.195865 19.1846
-4.6796 -0.943716 19.0253
-1.59372 -0.51226 21.2964
-2.50564 -0.394535 22.2772
-0.000978695 -0.8213 19.0708
-0.275702 -0.453826 21.181
-0.60859 -0.996985 19.8822
-0.0311096 -0.350382 18.2308
-0.00708351 -0.291885 21.3299
-0.334756 0.244527 19.5519
1.15551 0.226797 17.0743
0.818521 -0.26031 20.9852
0.0150227 0.022881 1.54171
1.16416 -0.424214 19.1337
1.43284 -0.0871516 18.1324
0.802508 -0.272571 20.8339
1.39763 0.208406 9.44409
1.00085 -0.547328 18.9543
1.03941 -0.0617177 17.9192
-1.36831 0.431841 19.7458
-2.09583 2.10956 18.167
-1.25478 1.09556 19.6779
-1.02022 0.431722 19.188
-2.74365 1.52605 20.0342
-1.40425 0.239891 20.9525
-3.11838 1.95229 21.3898
-1.47983 0.930471 20.8727
-1.67397 0.0374041 21.3369
-0.634012 -0.107208 21.1423
-1.65079 0.609991 20.4185
-0.764231 0.32798 21.3212
-0.607873 0.0521036 21.363
-0.0592947 -0.162737 21.2407
0.512912 0.127847 19.5616
-0.0399436 -0.113113 21.2644
0.30655 -0.536268 21.1902
0.384866 -0.402739 20.9209
0.557213 -0.701353 19.3738
0.234434 -0.462776 20.9411
0.507734 -0.721956 20.7183
0.406107 -0.450426 20.5091
0.498659 -0.79269 19.23
0.296137 -0.501978 20.6297
0.479669 -0.569381 20.5893
1.34959 -1.44592 18.4222
0.0372613 -2.15786 18.1904
0.0489692 -2.49749 16.2159
0.0279302 -0.668778 18.7642
-0.000224271 -6.21797 21.8481
0.229791 -0.400126 15.5268
0.00534646 -0.929691 20.3839
0.00313035 0.0871326 9.46624
0.388652 0.428595 11.4635
0.00339377 0.0330254 15.4446
-0.00677147 0.0747471 7.25558
-0.648729 0.611999 9.30473
-0.00365248 0.517859 13.1895
0.00243166 0.537728 5.7496
-0.502014 1.20309 11.0346
-0.00157629 0.85218 12.6096
-0.0253511 -0.247219 1.33106
-0.00709988 0.688759 6.84423
-1.08644 1.47679 14.0384
-0.00841478 1.23835 13.2516
-0.0106414 0.569108 3.3444
0.0165938 0.696263 8.90499
2.58136 -0.729122 16.9009
0.0851488 2.93093 12.8967
0.0372325 -0.396636 17.9138
0.0507131 0.0139532 1.23516
-0.0279126 0.305785 0.0202316
0.0498607 -0.311891 -3.32784
-1.254 0.254754 8.0306
0.045468 -1.07404 2.7742
0.0584953 0.0319724 0.17521
2.10442 2.01646 18.2541
0.0308947 2.61027 18.9102
0.0369292 1.15247 17.8959
0.0248172 5.54054 19.3872
3.11785 1.92031 21.4002
0.0152635 3.3708 20.3082
-0.00506909 4.82613 15.7115
1.63068 0.634547 20.2955
-0.0176728 1.52338 22.3984
0.0225956 -0.422793 9.3903
-0.572116 0.116638 19.3108
0.00379874 -0.343977 21.4789
0.0326967 -0.815493 11.0934
-0.580665 -0.706598 19.0957
0.0118831 -0.697845 21.0651
0.0533221 -1.11938 14.3972
-0.468425 -0.804881 18.2907
0.0250153 -0.778682 20.6237
0.0602402 -0.80574 16.0518
1.03483 -0.460176 19.7226
1.07264 -0.818448 19.4178
1.55332 -0.777257 18.9941
0.634518 -0.36125 19.4579
2.47469 -2.01651 19.6531
1.25226 -0.829326 21.1205
1.06733 -1.60375 21.6384
1.68347 -2.04414 21.4533
-0.0707224 -0.321107 21.1642
0.0750348 -0.303182 21.1162
-0.176845 -0.100747 20.9081
-0.402762 -0.140701 18.8014
-0.187774 -0.238293 20.0565
-0.166986 -0.229921 21.2533
-0.442415 -0.169824 20.8595
-0.121821 -0.422449 19.0619
-1.02267 0.312685 19.8171
-0.795448 0.0202973 20.9667
-1.10685 0.516007 20.4868
-1.32571 0.35879 18.3941
-1.33322 0.512284 19.0395
-0.871634 -0.0801828 20.82
-1.13452 0.473687 19.9863
-1.35537 0.357786 17.6674
-1.04627 0.280509 19.0242
1.34183 -0.243726 19.6109
2.27301 0.185788 18.7793
0.892224 -0.19462 19.2295
4.70956 -0.955479 19.0218
1.60701 -0.518065 21.3098
2.5132 -0.407661 22.288
-0.0259373 -0.820014 18.9266
0.262968 -0.459021 21.1601
0.610489 -1.00019 19.8668
0.0424841 -0.354016 18.2527
0.00381357 -0.290893 21.3301
0.334826 0.233744 19.5518
-1.16435 0.228807 17.137
-0.840746 -0.266427 20.9854
-1.20883 -0.386684 18.6953
-1.49263 -0.018925 17.234
-0.82323 -0.287874 20.8209
-1.10117 -0.582926 18.0863
-1.04885 -0.0929586 17.216
1.34939 0.417638 19.7612
1.24441 1.05207 19.7022
1.00782 0.397455 19.2472
2.72915 1.49998 20.0449
1.40901 0.240149 20.9524
1.47129 0.922563 20.8746
1.69186 0.0456814 21.3364
0.639895 -0.110064 21.1471
0.774978 0.348786 21.3361
0.623273 0.0679808 21.3748
0.0594634 -0.1642 21.2583
0.0378257 -0.10916 21.2909
-0.303417 -0.555694 21.1969
-0.402073 -0.433914 20.9373
-0.22448 -0.488941 20.9593
-0.500867 -0.75912 20.7147
-0.410928 -0.473291 20.4657
-0.305197 -0.520164 20.7401
-0.451953 -0.575336 20.6456
-1.30568 -0.889419 19.169
-1.33304 -2.05034 22.2086
0.302044 -0.0857704 20.1986
0.379992 -0.323754 19.903
1.24844 0.427924 19.4115
1.17461 0.392361 18.9861
-2.05368 -0.409993 18.6986
-2.44426 -1.10425 22.2436
0.215638 -0.678743 18.0922
-0.34078 -0.122972 18.8915
1.35377 0.0349901 17.4299
1.46251 -0.15202 18.0748
-1.8722 0.964314 19.1613
-2.19592 0.588319 21.3077
-1.15618 -0.0354669 21.4409
-0.128136 -0.0720129 21.4534
0.433706 -0.673413 20.9714
0.406814 -0.651452 20.7533
0.0366688 -2.40057 17.3638
0.00932618 -0.0959004 11.483
0.000492547 0.0763811 7.90545
0.000789046 0.400817 6.11118
-0.010208 0.327252 6.29771
-0.0137593 1.09614 8.10592
0.0656593 -1.06685 13.9417
-0.00861042 -0.196907 -2.91353
0.0346766 -0.844763 -2.38669
0.0522693 3.7164 17.1074
0.015876 4.26638 18.8646
0.00617457 0.354874 7.30121
0.0342544 -0.709735 9.86072
0.0412337 -0.83947 12.801
0.030259 -1.04706 16.2292
1.28352 -0.849262 19.2299
1.37968 -2.00363 22.1435
-0.274543 -0.116405 20.4048
-0.369252 -0.324596 20.0858
-1.2499 0.445435 19.3493
-1.19709 0.48486 18.5249
2.01931 -0.405727 18.7695
2.44351 -1.11502 22.2446
-0.21864 -0.682819 18.1401
0.337177 -0.132782 18.9374
-1.38702 0.0649198 17.1668
-1.55919 -0.143858 17.3784
1.84998 0.914759 19.2024
2.19339 0.583084 21.3057
1.17965 -0.0243656 21.4513
0.127747 -0.0659636 21.4777
-0.429359 -0.697425 20.9923
-0.402509 -0.681711 20.8606
-0.185601 -0.134679 0.195526
-0.00324241 -0.110618 0.565787
-0.00387506 -0.00452539 0.178295
-0.00645017 -0.00549061 -0.0036904
-0.0146912 0.0318921 0.156299
-0.00642197 0.0071023 0.136796
-0.574956 0.0456504 0.73234
-0.00268954 0.014669 0.0321705
-0.827364 0.459291 2.24059
-0.0148637 -0.00552346 -0.0158794
-0.0154862 -0.00632274 0.0244502
-0.0140454 -0.0813206 0.375953
0.00371705 -0.110692 0.566365
0.222015 -0.16234 0.233711
0.00452565 -0.00390472 0.166681
0.015517 0.0347561 0.165843
0.00653157 -0.00571051 -0.0036559
0.00665592 0.00831027 0.152044
0.00247799 0.01347 0.0295092
0.573264 0.0448978 0.728658
0.830133 0.458477 2.24578
0.0155493 -0.00633421 0.0244189
0.0148085 -0.00570253 -0.0158201
0.0145965 -0.0812392 0.37398
-0.0144503 0.00156154 0.105846
-0.101999 0.113828 1.20478
0 0 0
0 0 0
0.434305 -1.14303 2.83285
0.0155419 0.00647252 0.526536
-0.0378961 0.0105516 0.184056
0 0 0
-0.0987242 -0.0821126 0.286076
0.000808205 -0.000816493 0.00954145
0.0496296 0.120382 0.47648
-0.288689 0.0884979 0.594816
0.176806 0.322728 0.555888
0.000158073 0.00535653 0.0067089
0.109444 0.219281 0.496931
0.17021 0.0564028 0.386895
0.0133457 0.00137485 0.100063
0 0 0
0.110286 0.106202 1.20525
0 0 0
-0.436749 -1.14857 2.84146
0 0 0
-0.0144951 0.00737528 0.527452
0.0375445 0.011527 0.180806
0.0968969 -0.0806589 0.281062
0.288486 0.0885183 0.594648
-0.000839668 -0.000772042 0.0096267
-0.0497141 0.120449 0.476871
-0.176951 0.322366 0.555588
-0.169127 0.0563612 0.385659
-0.000156618 0.005259 0.00653237
-0.107982 0.218064 0.491762
-0.641944 -0.138248 1.21446
-0.22679 0.177644 0.196936
6.05726e-07 1.0921e-06 -0.000173283
0.000201108 -0.399897 0.228729
-0.00878736 -0.00482059 0.180145
-9.8217e-07 1.79837e-07 2.37715e-05
0 0 0
-0.00505096 -0.00159708 -0.00102429
0 0 0
-1.25181e-05 -0.0113076 -0.00351273
0 0 0
0.0162551 0.026192 0.249127
-0.000309222 0.204022 0.220993
6.46477e-05 0.029315 0.135339
-0.000126615 0.00209563 0.0547776
0.000158825 -2.91996e-05 -0.000373361
0 0 0
-2.09651e-07 -5.61564e-05 0.00034623
-0.192802 0.239208 1.3703
-0.000170325 -0.000333085 0.00292775
0.21094 0.166971 0.182534
0.5703 -0.125543 1.08119
7.54587e-07 1.58272e-07 2.21365e-05
0.00906972 -0.00502275 0.186391
0.00506177 -0.0016053 -0.00102921
0 0 0
-0.0171285 0.0264586 0.254844
0 0 0
8.48445e-06 1.56603e-06 1.99549e-05
0.000158493 0.00210309 0.0524651
0.000180923 -0.000345278 0.0030706
0.187461 0.2402 1.35024
0.000640061 0.00251492 0.0212656
5.00253e-05 1.17159e-05 0.00208842
0.0596077 -0.024349 0.425907
0.000930441 0.00358232 0.0186981
2.22777e-07 -3.38336e-07 -4.919e-05
6.44534e-08 -2.68171e-07 -4.6172e-05
0 0 0
-6.96757e-18 2.09061e-17 4.5807e-17
-1.192e-06 9.05715e-06 0.00199194
8.33595e-07 2.02151e-05 0.000800551
0.00125588 0.00846177 0.0185121
0.0367692 0.0526218 0.383026
-2.03874e-05 0.0192217 0.0459293
-1.16574e-05 0.0919314 0.485675
-1.05692e-05 -0.00346901 0.0557785
0 0 0
-4.83625e-05 1.12944e-05 0.00201428
-0.000631612 0.00256954 0.0214772
-0.0596791 -0.0245492 0.424851