# vtk DataFile Version 2.0
tri_press
ASCII
DATASET UNSTRUCTURED_GRID
POINTS 3682 float
-0.597482 0.135 -1.815
-0.735 0.255 1.82686
-0.675 0.498313 -1.625
-0.675 0.725 1.78709
0.597477 0.135 -1.815
0.735 0.255 1.82686
0.675 0.498313 -1.625
0.675 0.725 1.78709
-0.676535 0.141786 -0.601047
-0.71502 0.189141 0.612907
-0.734761 0.633636 -0.487637
-0.731582 0.706019 0.649727
0.676032 0.142286 -0.601047
0.715016 0.189143 0.612907
0.734747 0.633622 -0.487637
0.731568 0.706006 0.649727
-1.28983 -0.153527 -2.80698
-1.29643 -0.102723 -1.86649
-1.35903 -0.0845251 -0.650559
-1.40527 -0.0514084 0.580789
-1.42257 0.00404959 1.79802
-1.42782 0.0470581 2.74487
-1.43095 0.0884405 3.67994
-1.29048 0.0631095 -2.73951
-1.29794 0.127808 -1.80739
-1.37379 0.156298 -0.606362
-1.41574 0.194299 0.601562
-1.4237 0.246288 1.80406
-1.43067 0.288603 2.74983
-1.43509 0.330067 3.6874
-1.32487 0.472159 -2.58309
-1.3561 0.535913 -1.6478
-1.42068 0.637901 -0.498981
-1.43066 0.699995 0.644411
-1.39675 0.730228 1.7947
-1.41869 0.771114 2.74363
-1.436 0.814773 3.69355
-1.36559 1.15719 -2.40603
-1.38632 1.23066 -1.48221
-1.41713 1.34115 -0.358229
-1.43396 1.42852 0.749249
-1.43455 1.48002 1.87404
-1.43752 1.51502 2.79953
-1.44545 1.55332 3.74109
-0.619358 -0.150398 -2.81192
-0.613956 -0.0977446 -1.8737
-0.664275 -0.0916845 -0.649592
-0.699932 -0.0556617 0.590471
-0.716248 0.00762347 1.81495
-0.722864 0.0490044 2.75635
-0.726485 0.0886824 3.68659
-0.616397 0.0620993 -2.74104
-0.731137 0.29066 2.7593
-0.732511 0.330127 3.69241
-0.642998 0.456518 -2.57362
-0.720146 0.769361 2.74211
-0.735643 0.813634 3.69323
-0.673186 1.14653 -2.39667
-0.686771 1.22064 -1.4719
-0.71026 1.33885 -0.35201
-0.727162 1.43091 0.748503
-0.731648 1.48076 1.86871
-0.735766 1.51451 2.7942
-0.743697 1.55261 3.73722
0.668902 -0.150326 -2.81192
0.649117 -0.097631 -1.8737
0.69035 -0.0913472 -0.649592
0.719684 -0.0555896 0.590471
0.730554 0.00763916 1.81495
0.707103 0.0490262 2.75635
0.691123 0.088714 3.68659
0.663577 0.0621383 -2.74104
0.695511 0.290674 2.7593
0.682392 0.330153 3.69241
0.686049 0.456541 -2.57362
0.673093 0.769372 2.74211
0.669103 0.813657 3.69323
0.703698 1.14657 -2.39667
0.706711 1.22068 -1.4719
0.707707 1.33889 -0.35201
0.695194 1.43095 0.748503
0.677426 1.48079 1.86871
0.668192 1.51454 2.7942
0.660754 1.55264 3.73722
1.32868 -0.153362 -2.80698
1.31466 -0.102474 -1.86649
1.37176 -0.0840558 -0.650559
1.42037 -0.0512201 0.580789
1.43447 0.00410717 1.79802
1.41757 0.0471156 2.74487
1.40022 0.0885112 3.67994
1.32096 0.063225 -2.73951
1.29381 0.127958 -1.80739
1.36876 0.156784 -0.606363
1.41924 0.194449 0.601562
1.4274 0.246318 1.80406
1.40776 0.288644 2.74983
1.39183 0.330127 3.6874
1.35011 0.472232 -2.58309
1.34896 0.535962 -1.6478
1.41209 0.638058 -0.498981
1.42837 0.70008 0.644411
1.39267 0.730249 1.7947
1.38244 0.771149 2.74363
1.37596 0.814828 3.69355
1.38951 1.15729 -2.40603
1.39782 1.23075 -1.48221
1.40935 1.34124 -0.358229
1.40355 1.4286 0.749249
1.38476 1.48009 1.87404
1.37312 1.51509 2.79953
1.36484 1.55339 3.74109
-0.660798 0.316657 -1.74456
-2.5034e-06 0.131743 -1.81826
-0.639885 0.135516 -1.20802
-0.725466 0.49 1.82744
0 0.251168 1.83069
-0.729373 0.217708 1.21988
0 0.558017 -1.6847
-0.808524 0.669618 -1.05632
0 0.776941 1.83903
-0.760618 0.772837 1.21841
0.660796 0.316657 -1.74456
0.638697 0.136701 -1.20802
0.725459 0.49 1.82743
0.729239 0.217841 1.21988
0.808585 0.669679 -1.05632
0.760603 0.772821 1.21841
-0.710314 0.150927 0.00592995
-0.768179 0.387711 -0.544342
-0.000251772 0.140145 -0.601047
-0.76904 0.44758 0.631317
-2.1779e-06 0.149789 0.612907
-0.727527 0.664183 0.081045
-7.10438e-06 0.959385 -0.487637
-6.7514e-06 1.02728 0.649727
0.710214 0.151025 0.00592995
0.768184 0.387954 -0.544342
0.769035 0.447575 0.631317
0.727517 0.664174 0.081045
-0.876572 0.352184 -1.13217
0.876517 0.352305 -1.13217
-0.000127138 0.133405 -1.20802
-3.55219e-06 0.714358 -1.05632
-1.2517e-06 0.316657 -1.9717
-0.74428 0.417646 0.0434875
0.744278 0.417764 0.0434875
-0.000126975 0.147608 0.00592995
-6.92789e-06 1.06949 0.081045
-0.889622 0.46879 1.21915
0.889621 0.468787 1.21915
-1.08895e-06 0.179391 1.21988
-3.3757e-06 0.856409 1.21841
0 0.49 1.98501
-0.619735 0.225828 -1.77037
-0.298742 0.131756 -1.81824
-0.619659 0.134282 -1.51151
-0.735827 0.3725 1.83274
-0.3675 0.25296 1.8289
-0.74125 0.22729 1.52337
-0.676292 0.407485 -1.69317
-0.3375 0.546784 -1.67347
-0.782626 0.624829 -1.34066
-0.710199 0.6075 1.81723
-0.3375 0.76859 1.83068
-0.739728 0.770838 1.50275
0.298737 0.131747 -1.81825
0.619811 0.225828 -1.77045
0.618231 0.135706 -1.51151
0.3675 0.252958 1.8289
0.735815 0.3725 1.83273
0.741213 0.227326 1.52337
0.3375 0.546781 -1.67347
0.676257 0.407485 -1.69314
0.78263 0.624834 -1.34066
0.3375 0.768604 1.83069
0.710193 0.6075 1.81723
0.73972 0.770829 1.50275
-0.65985 0.137012 -0.904535
-0.696259 0.143523 -0.297558
-0.75841 0.246722 -0.572694
-0.338476 0.140801 -0.601047
-0.765498 0.160122 0.916395
-0.698584 0.184116 0.309418
-0.759259 0.309746 0.622112
-0.367162 0.150164 0.612907
-0.7578 0.637785 -0.771978
-0.765727 0.517802 -0.515989
-0.730969 0.648735 -0.203296
-0.419255 0.900252 -0.487637
-0.748539 0.741868 0.934068
-0.74893 0.576109 0.640522
-0.72815 0.683697 0.365386
-0.418849 0.972758 0.649727
0.659004 0.137854 -0.904535
0.338098 0.1408 -0.601047
0.695812 0.143966 -0.297558
0.75844 0.246954 -0.572694
0.765537 0.160082 0.916395
0.367158 0.150164 0.612907
0.698559 0.18414 0.309418
0.759269 0.309737 0.622112
0.757789 0.637773 -0.771978
0.419241 0.900246 -0.487637
0.7657 0.517906 -0.515989
0.730964 0.64873 -0.203296
0.748552 0.74188 0.934068
0.418847 0.972773 0.649727
0.748915 0.576097 0.640522
0.728137 0.683684 0.365386
-0.846309 0.33442 -1.43836
-0.330399 0.316657 -1.93544
-6.48206e-05 0.133043 -1.51314
-1.87755e-06 0.2242 -1.94867
-0.877853 0.24385 -1.1701
-0.320006 0.133412 -1.20802
-0.882056 0.479395 1.52329
-0.362733 0.49 1.97072
-5.44474e-07 0.215136 1.52529
0 0.370584 1.97114
-0.879919 0.343249 1.21951
-0.364687 0.179384 1.21988
-1.77609e-06 0.67027 -1.37051
-6.25849e-07 0.437337 -1.88009
-0.876363 0.510901 -1.09424
-0.404264 0.70214 -1.05632
-1.68785e-06 0.824833 1.52872
0 0.633471 1.94203
-0.889713 0.620813 1.21878
-0.380311 0.83652 1.21841
0.845876 0.334481 -1.43836
0.330397 0.316657 -1.93542
0.877815 0.244503 -1.1701
0.319285 0.133412 -1.20802
0.882057 0.479394 1.52329
0.362729 0.49 1.97072
0.879916 0.343314 1.21951
0.364619 0.179384 1.21988
0.87619 0.510992 -1.09424
0.404291 0.702139 -1.05632
0.889604 0.620804 1.21878
0.3803 0.836577 1.21841
-0.732899 0.281485 0.0247087
-0.356286 0.147137 0.00592995
-0.866428 0.369947 -0.838256
-0.753335 0.402678 -0.250427
-0.000189455 0.133856 -0.904535
-0.000189374 0.140491 -0.297558
-0.741746 0.432613 0.337402
-0.810897 0.458185 0.925231
-6.45765e-05 0.148731 0.309418
-1.63342e-06 0.158407 0.916395
-0.747155 0.54654 0.0622662
-0.431651 1.00261 0.081045
-5.32828e-06 0.821698 -0.771978
-7.01613e-06 1.05167 -0.203296
-6.83964e-06 1.06059 0.365386
-5.06355e-06 0.872699 0.934068
0.73292 0.281557 0.0247087
0.356133 0.147137 0.00592995
0.86617 0.37013 -0.838256
0.753342 0.402859 -0.250427
0.741735 0.432669 0.337402
0.810928 0.458181 0.925231
0.747143 0.546592 0.0622662
0.431646 1.00261 0.081045
-0.820164 0.234839 -1.47494
-0.868335 0.254299 -0.871396
-0.807247 0.510787 -0.805117
-0.856751 0.459193 -1.38951
0.820181 0.235166 -1.47494
0.856942 0.459238 -1.38951
0.807195 0.51089 -0.805117
0.868326 0.254811 -0.871396
-0.309374 0.133033 -1.51233
0.309011 0.133035 -1.51233
0.328588 0.13388 -0.904535
-0.3292 0.133878 -0.904535
-0.370882 0.659646 -1.35559
-0.385824 0.767897 -0.771978
0.38583 0.767869 -0.771978
0.370895 0.659662 -1.35559
-0.314571 0.225014 -1.91738
-0.33395 0.422411 -1.86206
0.333949 0.422411 -1.86207
0.314567 0.225014 -1.91737
-0.739935 0.266964 -0.273993
-0.731804 0.302753 0.32341
-0.744387 0.559497 0.351394
-0.754305 0.531103 -0.226862
0.739953 0.267119 -0.273993
0.754273 0.531174 -0.226862
0.744378 0.559519 0.351394
0.731811 0.302789 0.32341
-0.348696 0.141339 -0.297558
0.34843 0.141339 -0.297558
0.361886 0.148169 0.309418
-0.361964 0.14817 0.309418
-0.438159 0.97684 -0.203296
-0.429325 0.99583 0.365386
0.429325 0.99585 0.365386
0.438147 0.976836 -0.203296
-0.802557 0.330805 0.920813
-0.871706 0.357874 1.52333
-0.886412 0.614157 1.51302
-0.782059 0.598806 0.929649
0.802561 0.330836 0.920813
0.782072 0.598797 0.929649
0.886289 0.614152 1.51302
0.871808 0.357907 1.52333
-0.361099 0.158397 0.916395
0.361063 0.158397 0.916395
0.366059 0.214989 1.52433
-0.366093 0.214989 1.52433
-0.373052 0.930149 0.934068
-0.358905 0.811508 1.51573
0.3589 0.811506 1.51573
0.37304 0.930166 0.934068
-0.365117 0.371542 1.95837
0.365115 0.371542 1.9582
0.350115 0.620485 1.96803
-0.350117 0.620485 1.96803
-0.597167 0.180414 -1.78125
-0.448112 0.131768 -1.81823
-0.609215 0.133997 -1.66326
-0.738093 0.31375 1.83248
-0.55125 0.253195 1.82867
-0.750205 0.229066 1.67512
-0.675661 0.452899 -1.6591
-0.50625 0.529365 -1.65605
-0.733527 0.566286 -1.48283
-0.696506 0.66625 1.80607
-0.50625 0.765096 1.82719
-0.710612 0.751166 1.64492
0.448107 0.131759 -1.81824
0.597044 0.180414 -1.78113
0.607944 0.135264 -1.66326
0.55125 0.253194 1.82867
0.738066 0.31375 1.83245
0.750386 0.228884 1.67512
0.50625 0.529357 -1.65604
0.675606 0.452899 -1.65905
0.733517 0.566276 -1.48283
0.50625 0.76509 1.82718
0.696557 0.66625 1.80612
0.710612 0.751167 1.64492
-0.669786 0.137805 -0.752791
-0.686785 0.142267 -0.449303
-0.747582 0.179199 -0.586871
-0.50752 0.141265 -0.601047
-0.739702 0.175189 0.764651
-0.701904 0.191526 0.461163
-0.737056 0.249485 0.617509
-0.550641 0.150553 0.612907
-0.744309 0.633739 -0.629807
-0.753146 0.57717 -0.501813
-0.732396 0.640717 -0.345466
-0.572024 0.756977 -0.487637
-0.735331 0.719214 0.791897
-0.741758 0.641816 0.645124
-0.725289 0.690281 0.507556
-0.562402 0.813762 0.649727
0.669095 0.138493 -0.752791
0.506813 0.142046 -0.601047
0.685845 0.143203 -0.449303
0.747615 0.179431 -0.586871
0.7397 0.175189 0.764651
0.550689 0.15045 0.612907
[...]
POINT_DATA 3682
SCALARS point_scalars float 1
LOOKUP_TABLE default
-7.1875
-36.486
29.0686
-34.1957
-7.08716
-36.4822
29.1806
-34.1795
-36.1841
-16.2233
-41.4692
-29.8289
-36.2028
-16.2093
-41.4221
-29.8368
51.361
-63.7264
-62.4484
-12.739
-46.7835
-36.6355
-30.7425
51.361
-50.9942
-62.4484
-13.2775
-48.0528
-32.4171
-27.7693
78.4962
-60.5955
-38.3183
-21.8658
-52.2069
-29.0349
-27.4343
33.9944
-74.7658
-40.5525
-32.8953
-41.9965
-32.5886
-29.4326
27.282
-103.627
-37.4611
-23.6625
-37.5685
-28.0388
-26.4041
161.522
-27.0412
-26.3117
172.431
-26.7023
-25.9452
75.2942
-49.1149
-67.8718
-48.9622
-33.3927
-28.4563
-26.6677
27.2411
-87.5444
-39.0786
-23.5185
-37.833
-28.042
-26.255
172.087
-27.0448
-25.9299
154.43
-26.6908
-25.7702
76.1312
-49.5441
-67.8501
-49.0135
-33.1737
-28.4422
-25.9544
50.4569
-64.5261
-62.4301
-12.7017
-46.6996
-36.652
-30.7408
50.4569
-52.1332
-62.4301
-13.2651
-48.1872
-32.474
-27.7708
70.8322
-59.3365
-38.2088
-21.9402
-52.322
-28.8693
-27.3235
34.2013
-75.8325
-40.5378
-32.907
-41.539
-31.1974
-28.06
44.177
-136.898
-56.2322
-31.2209
-29.4774
-35.1295
21.9714
-82.9703
-27.1676
-47.1655
43.903
-55.878
-31.2059
-35.1237
-82.8138
-47.1556
-25.1308
-36.81
-33.3618
-15.7526
-31.1602
-35.2968
-33.5543
-53.988
-25.249
-36.6711
-15.84
-35.3444
-77.8828
-77.7775
-50.6346
-10.5004
208.559
-25.7909
-25.9462
-27.6696
-77.2184
-45.2419
-45.1789
-36.2148
-36.3892
-21.8382
41.1965
-169.451
-77.4048
-31.8147
-31.6214
-34.9015
36.786
5.00812
-44.3683
-31.8556
-28.7978
-46.4904
-169.485
42.7237
-77.3577
-31.7311
-31.8094
-35.0229
5.09774
36.876
-44.3137
-28.7907
-31.846
-46.4685
-43.9456
-29.6359
-36.9925
-33.4671
-31.4397
-20.6176
-12.3974
-30.0117
-50.5503
-37.1793
-37.8632
-45.4072
-32.5012
-21.0029
-32.8077
-49.7701
-43.8267
-33.4574
-29.1604
-36.8772
-31.4373
-30.0464
-20.684
-12.3992
-50.4972
-45.3893
-37.0747
-37.8978
-32.5362
-49.7691
-21.0796
-32.7943
-65.846
185.518
-73.3275
146.718
-77.2598
-51.4937
-47.6157
-24.7556
-32.933
-23.8571
-42.651
-35.4359
-30.7855
96.6471
-79.6568
-32.382
-31.5664
-22.0493
-44.056
-38.3645
-65.4289
186.114
-77.1836
-51.3852
-47.6949
-24.7451
-42.6658
-35.3996
-79.4954
-33.2358
-44.012
-38.3361
-24.1768
-26.923
-58.0713
-29.0154
-40.1999
-30.2992
-21.3489
-10.1418
-28.1167
-34.2465
-28.786
-61.9826
16.535
-85.4711
-64.1775
-42.4172
-24.3451
-26.9375
-58.0618
-29.15
-21.456
-10.1416
-28.8934
-62.1987
-22.7528
-60.443
-51.1825
-79.0107
-25.9097
-79.1236
-51.1402
-60.4305
-74.2965
-74.2068
-40.7414
-40.7704
-36.4053
-13.1781
-13.1435
-36.4673
114.899
98.1109
98.1566
116.847
-28.2166
-19.8555
-24.9606
-32.0119
-28.3249
-32.0953
-25.0337
-19.9453
-29.792
-29.7927
-26.8808
-26.8736
-70.1223
-54.5924
-54.5985
-70.1476
-4.38246
-44.075
-54.6933
-18.8082
-4.22594
-18.9421
-54.7539
-44.1255
-34.9687
-35.0083
-33.194
-33.1619
-45.1838
-33.7574
-33.7561
-45.168
-26.9413
-26.9315
-24.8415
-24.8546
50.2948
-150.174
-109.434
-34.561
-33.821
-38.9857
35.1451
13.8009
-0.33934
-32.9186
-30.6117
-39.4086
-150.511
49.5251
-109.379
-33.8371
-34.5686
-38.792
14.3661
35.3824
-0.393552
-30.599
-32.8982
-39.4068
-41.2056
-31.6652
-37.8294
-33.7625
-18.8335
-18.2892
-13.225
-27.8634
-44.7737
-38.6638
-39.1916
-53.7764
-29.0177
-24.3083
-30.5645
-44.2539
-41.2233
-33.776
-31.9614
-37.7715
-18.8177
-27.8859
-18.3155
-13.223
-44.7783
-53.7492
-38.5965
-39.1833
-29.0502
-44.3002
-24.3582
-30.6699
44.2677
42.4695
-13.8964
137.005
-143.928
-143.926
-92.5226
15.9439
-65.9616
-49.0214
-72.6073
-52.4611
-31.2789
-31.3946
-44.5119
-26.6575
-30.0509
-30.046
-31.3588
-25.789
-34.4711
-43.0782
-41.0311
-33.7839
15.4585
15.6523
-37.3227
42.6135
-88.0092
-62.4488
-83.4303
-55.9733
-27.6188
-27.6134
-29.4099
-25.2021
-50.779
-38.7419
-43.5789
-42.264
43.8046
42.8767
-14.5279
136.894
-65.2988
-48.849
-72.6365
-52.2595
-31.2681
-31.3776
-44.6136
-26.6568
-34.5053
-43.094
-41.0711
-33.7313
-87.9616
-62.3436
-83.3456
-55.9208
-50.8006
-38.7477
-43.5871
-42.2688
-27.3462
-22.9781
-24.4394
-25.9907
-36.8053
-36.7981
-43.559
-31.9782
-33.3377
-33.3288
-37.4543
-31.4073
-12.4541
-18.8739
-18.5736
-14.1662
-30.9096
-30.8971
-29.2905
-33.3799
-36.8979
-33.5825
-31.0386
-47.141
-33.7483
-33.7448
-6.75175
-55.2143
-53.6497
-53.6258
-58.801
-48.7276
-27.4701
-23.0637
-24.6018
-26.0134
-36.6675
-36.66
-43.4705
-31.9801
-12.4959
-18.9755
-18.6679
-14.1994
-36.9658
-33.6229
-31.1145
-47.1624
-100.779
-77.8962
-79.1784
-65.5176
-100.589
-77.7723
-79.0604
-65.4334
-59.9664
-51.1777
-51.1274
-44.4512
-26.0484
-15.6173
-15.5948
7.24919
200.871
188.047
164.696
200.9
-24.8512
-27.1046
-23.7041
-26.9434
-25.0189
-27.2782
-23.8377
-27.0823
-27.4659
-29.0726
-27.5583
-27.5002
-73.6521
-82.3264
-70.7403
-73.6576
-47.2647
-44.3525
-46.3141
-30.1869
-47.2615
-44.324
-46.2257
-30.1776
-34.5672
-36.1459
-36.1387
-36.8253
-33.7482
-36.5187
-36.5198
-39.5665
-22.72
-22.5678
-22.519
-22.711
-25.5931
120.303
-94.7974
55.1223
-39.5575
-74.252
-47.352
-28.0109
-32.6391
-28.9962
-41.6886
-32.8842
-1.75432
88.1605
-22.4368
48.8558
-58.9353
-38.2006
-41.407
-26.8552
-31.2999
-26.4382
-54.251
-37.3974
-94.7921
54.5527
-26.3501
119.916
-42.7561
-74.0978
-32.6056
-28.9815
-47.4818
-27.9953
-41.7129
-33.04
-22.4909
47.1903
-1.88036
87.9326
-59.212
-38.183
-31.2954
-26.4814
-41.4363
-26.8512
-54.2443
-37.3937
-58.0183
-41.6292
-28.8342
-29.267
-46.033
-31.6866
-38.0844
-31.2605
-3.79447
-36.9829
-19.9549
-24.8968
-16.7383
-11.8142
-27.9138
-33.3765
-50.1863
-42.1713
-42.2848
-33.865
-34.2664
-51.2487
-21.6446
-59.8863
-23.44
-44.5425
-22.8521
-18.9345
-28.1205
-44.5316
-52.2305
-48.6366
-57.982
-41.583
-38.0715
-31.2448
-28.9167
-29.211
-45.9913
-31.647
-3.63891
-37.0122
-27.9202
-33.4287
-20.0371
-24.9004
-16.7947
-11.7412
-50.1352
-42.1844
-21.639
-59.9524
-42.1824
-33.8491
-34.3187
-51.2733
-23.5604
-44.5393
-52.2362
-48.6988
-22.9336
-19.0348
-28.1279
-44.5346
-39.4537
-82.4729
173.923
154.091
-73.5522
-73.167
136.237
136.137
-106.771
-63.981
-60.8912
-45.1721
-45.5202
-51.2678
-25.3434
-24.4982
-33.0433
-33.0413
-24.9513
-24.9651
-40.8706
-44.4214
-37.0029
-34.2257
-32.4605
-32.3578
101.964
101.914
-67.4478
-104.165
-40.7184
-21.3218
-32.0115
-32.0129
-22.9634
-22.9094
-52.5434
-20.719
-41.2659
-36.0235
-39.8571
-82.1956
153.78
173.44
-106.451
-63.8682
-60.7549
-45.1011
-51.3575
-45.5873
-25.3354
-24.4874
-40.8099
-44.4175
-36.9749
-34.2693
-104.041
-67.4109
-21.3161
-40.7033
-20.9842
-52.5483
-36.0241
-41.2671
-26.0239
-22.2698
-28.5377
-26.5607
-59.5336
-55.2986
-28.3957
-30.0456
-40.1318
-40.3556
-30.1733
-30.1746
-20.3785
-22.8371
-6.7742
-14.6027
-27.8298
-27.832
-34.3331
-34.3804
-26.771
-30.4747
-65.0267
-57.3815
11.5213
11.5289
-80.4965
-80.513
-62.5724
-62.5724
-42.8696
-42.8905
-26.1979
-22.4004
-28.5543
-26.5733
-55.2679
-59.5268
-28.5171
-30.1568
-22.939
-20.4816
-6.62244
-14.6953
-30.583
-26.8645
-57.4442
-65.0551
-42.0582
-108.111
-105.6
-21.6888
-49.154
-44.3657
-65.0719
-62.3972
-42.8946
-66.4476
-66.1808
-42.8062
-0.716462
-6.66883
-101.512
-104.498
-42.9304
-22.2903
-105.161
-105.727
-0.779069
-104.526
-101.422
-7.00924
-42.8015
-42.7011
-66.0965
-66.4504
-49.1123
-62.43
-64.9851
-44.2872
-95.9337
-93.0244
-60.1834
-61.6211
-96.0019
-61.3135
-60.1271
-93.0107
-38.7991
-37.7454
-44.4877
-45.7847
-38.7359
-45.9116
-44.5249
-37.7562
-13.7438
-56.3387
-29.5398
-32.6443
-48.9161
-9.54788
0.569568
-44.3141
-48.676
-44.2816
0.598596
-9.52885
-13.7337
-33.8044
-29.483
-56.3345
53.9372
137.082
184.953
4.71318
54.704
45.5967
162.317
122.105
54.726
121.852
162.314
45.6893
52.4418
4.33117
184.763
136.739
-32.7545
-26.3953
-26.3983
-31.6645
-16.9598
-17.2484
-22.8174
-22.3601
-26.0476
-29.408
-24.971
-20.456
-35.8099
-32.6138
-28.2801
-32.6971
-32.6816
-31.6394
-26.5754
-26.553
-35.7885
-32.7681
-28.4289
-32.6086
-26.1233
-20.5514
-25.093
-29.4687
-16.9293
-22.4762
-22.9552
-17.3234
-31.11
-31.3991
-28.9286
-27.664
-31.0699
-27.7169
-28.9402
-31.3743
-25.4805
-28.9877
-27.3228
-25.1981
-25.4891
-25.1704
-27.3187
-28.9931
-50.3591
-49.1706
-79.6833
-54.0875
-43.8398
-57.8494
-67.8237
-46.2715
-43.841
-46.2789
-67.8224
-58.0061
-50.336
-54.0113
-79.7169
-49.1856
-12.4263
-49.8356
-36.2948
-11.8706
-48.1469
-46.5341
-45.7667
-40.2901
-40.5938
-56.1141
-49.4205
-43.1099
-22.5228
-16.54
-19.9489
-29.9366
-12.3655
-11.8282
-36.2837
-49.8652
-22.5986
-30.1013
-20.0246
-16.6287
-40.6
-43.1834
-49.4204
-56.1576
-48.2697
-40.2721
-45.7636
-46.6682
-32.7749
-33.4164
-36.7961
-39.249
-32.8823
-39.2777
-36.8224
-33.4292
-34.3932
-31.6909
-34.5658
-34.1841
-34.6067
-34.1175
-34.5641
-31.6922
-42.9632
-43.6124
-39.5417
-49.4652
-34.0754
-29.9045
-34.2402
-40.178
-34.0728
-40.1787
-34.2396
-29.9029
-42.9965
-49.4547
-39.5418
-43.6114
-30.5152
-26.7071
-23.4826
-26.9879
-30.5265
-26.9915
-23.4829
-26.6996
-27.9807
-25.3201
-23.2382
-26.5827
-27.9948
-26.5875
-23.252
-25.3256
38.6439
-75.7844
-149.785
-36.2863
-34.9549
-38.6447
34.5531
20.1693
8.09218
-33.6633
-32.2313
-36.8189
-76.7694
37.5864
-152.626
-34.98
-36.3023
-38.7181
20.5025
34.7832
7.9199
-32.2206
-33.6434
-36.805
-38.7896
-33.6242
-37.852
-34.3524
-15.4872
-16.9041
-14.1
-23.8748
-43.2569
-40.1308
-40.0594
-47.3672
-29.3975
-26.1617
-29.7646
-39.9927
-38.7498
-34.3326
-33.7296
-37.8409
-15.4627
-23.8641
-16.9191
-14.0945
-43.2509
-47.334
-40.0771
-40.0142
-29.4098
-39.9284
-26.1936
-29.7763
47.0262
42.4905
-4.19351
94.7408
-139.316
-139.302
-109.799
48.0762
-60.7334
-52.3589
-70.2583
-53.8631
-31.2096
-31.3329
-36.2962
-28.0217
-29.6612
-29.6588
-30.4494
-26.8927
-34.8481
-37.1151
-40.1682
-33.8233
21.006
21.111
-23.724
17.7043
-91.5422
-73.5045
-85.6873
-71.053
-27.3109
-27.3093
-28.3308
-26.0064
-49.407
-42.8809
-44.8832
-45.2432
46.6947
43.2782
-4.16286
94.7811
-60.2124
-52.1151
-70.4471
-53.5796
-31.1967
-31.3186
-36.3256
-28.0123
-34.8458
-37.1275
-40.203
-33.8154
-91.5507
-73.3785
-85.4298
-70.9769
-49.4124
-42.8997
-44.8698
-45.2462
-25.507
-24.8047
-24.7331
-25.505
-36.7355
-36.7349
-39.6243
-34.19
-33.3163
-33.3154
-35.4535
-32.2504
-13.6883
-17.3396
-16.0228
-15.9732
-31.2182
-31.1628
-30.0996
-32.072
-35.9738
-34.4443
-32.8165
-41.5388
-34.0672
-34.0584
-18.3881
-44.0882
-53.9877
-53.9734
-56.884
-50.9991
-25.6181
-24.9766
-24.8788
-25.5473
-36.587
-36.589
-39.4933
-34.0961
-13.756
-17.4354
-16.1211
-16.0297
-36.0479
-34.4881
-32.8776
-41.5561
-88.2209
-77.4708
-78.438
-70.5479
-88.0771
-77.3665
-78.3279
-70.461
-54.8623
-50.7492
-51.038
-47.2633
-18.8187
-11.496
-11.3484
-1.69934
209.559
199.087
190.122
209.14
-25.312
-26.4533
-24.8472
-26.3431
-25.4741
-26.6172
-24.992
-26.4887
-27.6368
-27.9886
-27.5449
-27.6528
-75.7672
-80.454
-73.2411
-75.6859
-47.2515
-44.6541
-45.7946
-43.7143
-47.2363
-44.6041
-45.7174
-43.6104
-35.3478
-36.2739
-36.263
-37.1643
-34.9735
-36.471
-36.471
-37.9496
-21.9239
-22.1108
-21.872
-21.9191
48.4503
38.044
-0.341439
79.746
-181.173
-153.63
-117.229
21.5511
-90.8374
-71.3703
-58.7034
-74.701
-32.8075
-31.4934
-38.9506
-28.8874
-32.5304
-30.7983
-32.0608
-29.8755
-35.7692
-34.2459
-39.6084
-33.4457
35.5591
39.7348
0.914359
71.6571
6.9773
9.91367
-9.21695
24.2562
-14.173
-70.5849
-45.7387
-38.6637
-32.2148
-31.5614
-35.5683
-28.4808
-29.6973
-28.0639
-29.99
-27.2218
-42.8231
-49.3301
-50.8789
-40.8443
-181.273
-153.631
-117.257
20.6486
47.1761
39.8645
-0.384311
79.2082
-90.7991
-71.0501
-60.0057
-74.5289
-32.5411
-30.8168
-32.0491
-30.0837
-32.8065
-31.4846
-38.9994
-28.8805
-35.5616
-34.3201
-39.6314
-33.6933
7.65766
10.08
-9.1875
24.3599
35.7002
39.7839
0.718937
71.9662
-14.1202
-70.0868
-45.9366
-38.5372
-29.6881
-28.0576
-29.9892
-27.2937
-32.1962
-31.5471
-35.5687
-28.44
-42.8155
-49.2878
-50.8487
-40.8367
-42.7628
-46.2435
-54.1244
-42.6827
-30.3304
-28.1017
-29.7357
-28.8226
-37.6549
-36.7545
-40.4371
-33.8965
-33.5439
-33.429
-35.7628
-32.1966
-24.1371
-59.6308
-14.3898
-39.665
-19.7041
-21.9776
-20.1863
-22.7551
-12.3023
-12.0014
-13.3052
-13.0464
-29.1825
-30.5339
-28.8094
-31.4706
-47.0001
-55.1254
-50.2544
-49.3604
-37.9064
-36.918
-39.4817
-35.3808
-38.4229
-37.3989
-35.8261
-44.4856
-58.0483
-34.5899
-32.4128
-50.8705
-29.9281
-36.4327
-26.6003
-42.4783
-22.7024
-19.7605
-21.8137
-19.9835
-32.0221
-33.0693
-30.2812
-39.5801
-46.5527
-52.6784
-51.1767
-48.616
-42.5733
-46.1016
-54.1124
-42.6168
-33.5381
-33.4176
-35.7524
-32.1846
-30.448
-28.2239
-29.7307
-28.7545
-37.5582
-36.627
-40.3576
-33.814
-24.1142
-59.7111
-14.2871
-39.6901
-29.2242
-30.5492
-28.8291
-31.5137
-19.7514
-22.0289
-20.2618
-22.7781
-12.3034
-12.021
-13.3527
-12.9925
-46.9917
-55.0608
-50.2003
-49.3398
-58.0198
-34.5798
-32.3948
-50.8597
-37.8225
-36.7945
-39.3621
-35.3274
-38.4413
-37.4561
-35.8709
-44.5059
-29.9591
-36.4661
-26.6842
-42.4818
-46.5256
-52.6583
-51.1769
-48.6083
-22.7672
-19.8495
-21.8909
-20.0641
-32.105
-33.0957
-30.2544
-39.601
4.96978
-117.009
-50.7233
-74.7111
172.361
196.621
187.312
173.13
-81.794
-66.0997
-73.5016
-73.4849
97.6443
173.453
142.069
142.207
-74.9056
-78.0686
-89.0836
-69.7725
-51.7331
-51.0661
-55.7864
-48.0669
-48.8544
-48.4852
-46.402
-48.7595
-25.7443
-23.6999
-24.9609
-24.6269
-32.1363
-33.7138
-32.9569
-32.9572
-24.663
-23.1723
-24.0625
-24.0611
-41.4078
-43.7748
-44.5568
-43.8823
-34.2288
-35.9949
-36.2952
-34.7898
-32.6031
-29.1206
-31.0941
-31.0889
73.2437
123.559
98.8875
98.8233
-80.8279
-79.5506
-71.6907
-89.346
-43.6865
-22.6554
-37.9091
-25.9029
-30.4036
-32.6817
-31.6813
-31.6829
-23.0087
-22.4514
-22.4442
-22.4481
-42.1207
-46.1765
-49.7455
-28.8931
-39.8943
-37.2018
-40.027
-37.1679
4.56321
-116.638
-50.8525
-74.6912
172.059
196.558
174.076
187.225
-74.7962
-77.952
-89.1013
-69.7258
-51.5813
-50.9902
-55.6548
-47.9768
-49.0005
-48.5273
-48.8396
-46.4759
-25.7357
-23.6876
-24.9519
-24.6162
-41.4488
-43.7668
-44.519
-43.9331
-34.0524
-35.9924
-36.242
-34.8227
-80.6271
-79.418
-89.2298
-71.5494
-43.6362
-22.6279
-25.8707
-37.8736
-42.1561
-46.0827
-29.0884
-49.6953
-39.9006
-37.2031
-37.1723
-40.0768
-24.2576
-24.4871
-25.0897
-23.295
-26.5066
-27.2473
-27.3233
-26.6999
-49.5676
-62.0125
-58.8219
-56.8005
-30.2678
-28.0892
-28.66
-29.4345
-38.6209
-42.1346
-40.3273
-40.256
-30.7351
-30.1429
-30.2272
-30.2294
-20.0543
-22.4923
-20.8065
-22.0181
-12.7743
-12.1068
-8.07273
-12.2809
-28.6057
-27.7632
-28.0519
-28.0654
-34.039
-35.3632
-34.1843
-34.2479
-29.9532
-27.787
-27.8699
-29.6775
-53.0837
-69.6782
-62.3226
-59.8218
6.82964
14.4664
15.7802
15.8209
-69.5966
-86.6759
-84.1198
-84.1278
-61.1587
-67.8344
-63.8847
-63.867
-45.7029
-41.2957
-42.6042
-42.6032
-24.425
-24.6552
-25.266
-23.4431
-26.5241
-27.2574
-27.3366
-26.7136
-49.4932
-61.9798
-56.7292
-58.7839
-30.3403
-28.2462
-28.795
-29.5569
-20.1503
-22.6148
-22.1249
-20.9137
-12.7851
-12.1409
-7.98276
-12.3461
-30.0406
-27.9106
-29.7866
-27.9723
-53.1022
-69.6779
-59.8876
-62.3312
-11.5347
-20.0344
-26.6609
-93.1387
-60.6963
-56.31
-62.0987
-59.9435
-50.1914
-46.0936
-60.9607
-52.8672
-9.64765
-70.2712
-79.4535
-118.329
-12.3119
-25.227
-27.4425
-91.6118
-9.70511
-70.3875
-79.1407
-118.422
-50.1393
-46.0139
-60.9252
-52.8164
-60.6701
-56.3688
-62.0422
-59.9394
-83.0739
-74.1937
-73.8776
-67.0087
-83.0267
-74.0461
-73.8175
-66.8807
-41.0405
-39.1319
-42.7383
-40.4631
-41.0811
-39.1531
-42.7916
-40.4719
-26.4964
-38.0668
-33.6973
-41.0743
-30.0681
-16.2989
-16.6865
2.34617
-30.0625
-16.288
-16.684
2.48719
-26.5259
-38.4498
-33.7038
-41.066
135.7
103.258
146.913
128.4
89.7399
73.1376
126.54
104.167
73.2888
90.1867
104.148
126.268
101.968
135.792
128.163
146.146
-28.3716
-29.7415
-26.9824
-28.2645
-19.8486
-18.4855
-21.0625
-20.0318
-23.9368
-26.3399
-23.7986
-25.7926
-32.7428
-33.057
-30.8376
-31.211
-28.4884
-29.7897
-27.1354
-28.3743
-32.7716
-33.1193
-30.9398
-31.3154
-24.0106
-26.388
-23.8898
-25.8795
-19.9349
-18.5563
-21.1725
-20.1283
-29.5724
-30.4442
-29.6573
-30.0455
-30.4323
-29.5645
-30.0481
-29.6705
-27.3215
-26.0478
-27.4509
-26.6072
-26.0401
-27.3157
-26.5972
-27.4479
-61.787
-67.9573
-68.7558
-75.9787
-48.5517
-53.2213
-56.4126
-59.4032
-53.2279
-48.5615
-59.4034
-56.4067
-67.9296
-61.7972
-76.0049
-68.7649
-2.66147
-9.61402
-17.5329
-5.35467
-45.667
-42.9995
-44.6457
-45.2232
-49.7048
-56.4591
-52.8885
-54.3665
-21.0928
-18.5499
-18.0539
-16.7544
-2.49654
-9.50351
-17.3869
-5.20656
-21.2337
-18.6678
-18.26
-16.8712
-49.7823
-56.4838
-52.978
-54.4204
-45.7934
-43.0344
-44.7069
-45.2403
-35.8677
-34.3675
-36.3183
-34.5443
-35.9116
-34.4089
-36.3613
-34.5773
-32.9834
-32.9155
-33.1716
-33.8599
-33.0024
-32.8638
-33.1647
-33.8395
-45.6872
-47.893
-43.0306
-43.3261
-32.6066
-35.3228
-32.7649
-34.9197
-32.6048
-35.3194
-32.7639
-34.9198
-45.652
-47.944
-43.03
-43.4168
-27.4646
-28.1948
-25.9824
-26.1543
-28.0886
-27.4595
-26.1652
-25.9822
-25.5182
-25.9583
-23.5535
-24.4221
-25.9704
-25.532
-24.4333
-23.5467
-39.0122
56.8867
-125.374
56.1754
-50.9466
-98.6175
-40.8483
-31.0679
-34.3753
-32.0719
-45.3978
-36.3344
6.05112
57.6899
-3.49987
30.8048
1.52945
-4.42796
-36.4946
-29.4637
-32.1386
-29.0544
-40.2831
-36.3838
-125.535
55.8689
-40.8189
56.0095
-51.5853
-98.7661
-34.4007
-32.0882
-40.9042
-31.0669
-45.4246
-36.008
-3.50173
31.6888
5.90913
57.3847
1.45649
-4.32429
-32.1356
-29.0389
-36.4837
-29.459
-40.2894
-36.3791
-43.5458
-39.7528
-33.0843
-31.1673
-43.6518
-35.18
-35.9734
-32.3168
-12.9158
-31.7498
-17.5227
-22.2948
-14.0699
-12.7619
-26.416
-29.8103
-43.9801
-49.3566
-40.458
-37.0542
-37.1838
-45.8134
-52.0421
-51.6602
-25.0146
-40.4542
-25.0707
-23.1043
-28.0988
-38.8056
-44.6763
-44.0674
-43.5111
-39.8075
-35.9475
-32.3537
-33.0698
-31.1889
-43.6369
-35.1314
-12.8722
-31.8167
-26.4239
-29.848
-17.5607
-22.2885
-14.0983
-12.7167
-43.8901
-49.3032
-52.0096
-51.6382
-40.3501
-36.9792
-37.1753
-45.8049
-25.0746
-40.4558
-44.6742
-44.003
-25.1213
-23.1659
-28.197
-38.8234
0.799425
93.3926
-2.0698
87.42
-17.1265
-10.416
141.265
133.445
-110.846
33.3815
-110.843
33.2592
-92.668
-92.6607
14.9095
14.6307
-100.064
-62.9657
-59.8319
-47.1901
-84.852
-67.5666
-56.6934
-48.9839
-37.7533
-28.218
-35.3955
-28.0886
-45.9102
-44.173
-26.7858
-26.6005
-30.8959
-28.316
-30.8964
-28.267
-31.4531
-31.4564
-26.0294
-26.0305
-38.8352
-33.9998
-53.9629
-40.5479
-43.9231
-40.1482
-36.0238
-33.237
-18.238
16.2231
-17.0356
16.6297
-36.8777
-37.1081
44.071
44.1238
-96.3572
-68.9469
-64.3789
-57.3405
-74.6847
-91.8662
-58.4894
-49.3391
-28.7776
-26.2658
-28.7816
-26.2199
-29.5365
-29.5352
-24.7939
-24.8278
-54.2445
-44.149
-33.2312
-43.9463
-50.7398
-35.8131
-43.1049
-41.2159
0.61651
92.9252
-2.23943
87.5457
-17.7419
-10.9746
133.236
140.985
-94.2761
-62.5061
-59.906
-47.0211
-85.3268
-67.5404
-56.4557
-48.8168
-37.8129
-28.2059
-35.4028
-28.0796
-44.2614
-46.0245
-26.7873
-26.5976
-38.822
-34.0433
-54.0283
-40.5507
-43.803
-40.2477
-35.9529
-33.27
-96.4693
-68.9658
-64.2755
-57.2935
-92.1537
-74.232
-49.3058
-58.4424
-54.2961
-44.1417
-33.323
-43.9404
-35.9538
-50.7717
-41.2163
-43.1075
-27.085
-27.0849
-22.6222
-23.9969
-25.3068
-23.6051
-26.523
-25.5473
-39.724
-34.0107
-39.4167
-34.4919
-43.9388
-43.2435
-31.7536
-32.2418
-35.4729
-32.2462
-35.4626
-32.2406
-37.6795
-37.6847
-31.4019
-31.4007
-13.547
-13.3279
-19.3846
-17.258
-17.7929
-19.3654
-12.9331
-15.4082
-29.8152
-31.9818
-29.8127
-31.9879
-29.2241
-29.2407
-33.2957
-33.2725
-34.3498
-42.8194
-31.5322
-40.4392
-30.2988
-31.8981
-48.1267
-46.5365
-20.2251
-43.1941
-20.2342
-43.1606
-7.56343
-7.51175
-54.6129
-54.5923
-55.8916
-50.8619
-55.9849
-50.8748
-58.5642
-58.596
-48.9911
-48.9915
-27.2323
-27.1727
-22.7236
-24.0329
-25.4736
-23.7462
-26.5409
-25.5653
-39.6093
-33.9021
-39.2795
-34.3926
-43.1509
-43.8544
-31.7498
-32.2357
-13.6272
-13.3094
-19.4768
-17.3491
-19.4644
-17.8799
-12.9278
-15.4691
-34.4126
-42.8198
-31.583
-40.4625
-31.9732
-30.3653
-46.5485
-48.1484
-102.798
-100.081
-89.7055
-70.0452
-71.5369
-88.1031
-65.2958
-65.9496
-102.508
-99.9591
-89.5793
-69.9448
-87.9615
-71.4426
-65.8672
-65.2105
-60.0977
-60.0738
-55.1063
-47.2372
-54.7014
-47.1835
-44.6402
-44.6502
-27.1156
-27.0797
-23.5922
-7.97481
-7.95587
-23.5614
5.29551
5.31388
203.523
187.936
192.811
192.841
161.058
161.025
187.927
203.486
-25.6619