# vtk DataFile Version 2.0
tri_press
ASCII
DATASET UNSTRUCTURED_GRID
POINTS 3682 float
-0.705 0.155 -2.0825
-0.691165 0.255 2.185
-0.695 0.668083 -2.045
-0.545 0.956266 2.095
0.705 0.155 -2.0825
0.691165 0.255 2.185
0.695 0.668083 -2.045
0.545 0.956266 2.095
-0.763324 0.125398 -0.66
-0.785623 0.13182 0.7625
-0.77456 0.893704 -0.665
-0.726496 0.991701 0.715
0.763324 0.125398 -0.66
0.785623 0.13182 0.7625
0.774661 0.893805 -0.665
0.726491 0.991696 0.715
-1.45116 -0.276827 -3.19809
-1.45646 -0.212925 -2.07711
-1.49326 -0.230786 -0.653509
-1.48873 -0.239706 0.778644
-1.41908 -0.162076 2.20296
-1.40374 -0.106013 3.32747
-1.41647 -0.0622281 4.44545
-1.45017 0.050431 -3.19461
-1.45558 0.142183 -2.07828
-1.50441 0.15162 -0.66295
-1.48253 0.149542 0.756205
-1.37035 0.21843 2.17235
-1.37414 0.272384 3.29626
-1.40338 0.316314 4.41562
-1.44712 0.656947 -3.17574
-1.45139 0.745882 -2.05765
-1.50545 0.905996 -0.671295
-1.43747 0.972877 0.71205
-1.27852 0.967738 2.09922
-1.32657 1.01782 3.22489
-1.38781 1.07082 4.3511
-1.45105 1.71799 -3.17939
-1.45676 1.82727 -2.06767
-1.47372 2.00319 -0.695089
-1.4622 2.12755 0.668328
-1.42543 2.17171 2.04135
-1.41748 2.1977 3.15401
-1.43264 2.23467 4.27558
-0.719936 -0.270962 -3.20083
-0.710965 -0.202928 -2.08111
-0.745022 -0.243625 -0.652972
-0.765912 -0.25217 0.784016
-0.725713 -0.144978 2.21236
-0.719183 -0.0946539 3.33384
-0.730336 -0.0575746 4.44913
-0.722061 0.0474455 -3.19546
-0.707509 0.284319 3.30151
-0.726715 0.320445 4.4184
-0.719079 0.624033 -3.17049
-0.669662 1.01615 3.22404
-0.720417 1.07029 4.35092
-0.71695 1.69547 -3.1742
-0.718072 1.80606 -2.06194
-0.740046 1.99845 -0.691638
-0.752722 2.13358 0.667914
-0.741719 2.17358 2.03839
-0.739353 2.19655 3.15105
-0.751516 2.23327 4.27343
0.725106 -0.27095 -3.20083
0.737251 -0.202921 -2.08111
0.768649 -0.243621 -0.652972
0.763953 -0.252168 0.784016
0.696908 -0.144977 2.21236
0.660159 -0.0946521 3.33384
0.644989 -0.0575712 4.44913
0.709822 0.0474556 -3.19546
0.63166 0.28432 3.30151
0.626498 0.320448 4.4184
0.707174 0.624047 -3.17049
0.580524 1.01615 3.22404
0.601129 1.07029 4.35092
0.742485 1.6955 -3.1742
0.749331 1.8061 -2.06194
0.733249 1.99848 -0.691638
0.677433 2.1336 0.667914
0.620517 2.17359 2.03839
0.606134 2.19656 3.15105
0.604629 2.23328 4.27343
1.45689 -0.276797 -3.19809
1.47168 -0.212897 -2.07711
1.51177 -0.230764 -0.653509
1.50288 -0.239699 0.778644
1.41829 -0.162072 2.20296
1.36722 -0.106008 3.32747
1.34655 -0.0622205 4.44545
1.44165 0.0504626 -3.19461
1.45273 0.142219 -2.07828
1.50821 0.151654 -0.66295
1.4994 0.149546 0.756205
1.38688 0.218432 2.17235
1.33304 0.272388 3.29626
1.32257 0.316321 4.41562
1.43813 0.656987 -3.17574
1.44813 0.745938 -2.05765
1.50583 0.906093 -0.671295
1.44719 0.972888 0.71205
1.28591 0.96774 2.09922
1.26993 1.01783 3.22489
1.28753 1.07082 4.3511
1.47168 1.71805 -3.17939
1.47909 1.82734 -2.06767
1.46605 2.00326 -0.695089
1.40249 2.12758 0.668328
1.3262 2.17173 2.04135
1.2997 2.19771 3.15401
1.29616 2.23469 4.27558
-0.732687 0.411542 -2.09644
0 0.142997 -2.0945
-0.745612 0.128749 -1.37125
-0.677413 0.605633 2.19933
0 0.271532 2.16847
-0.726341 0.205464 1.47375
0 0.742949 -2.11987
-0.758721 0.804834 -1.355
0 0.976407 2.11514
-0.676402 1.01464 1.405
0.732664 0.411542 -2.09641
0.745616 0.128744 -1.37125
0.6772 0.605633 2.19912
0.726349 0.205455 1.47375
0.758721 0.804834 -1.355
0.676515 1.01475 1.405
-0.776532 0.126551 0.05125
-0.851641 0.509551 -0.6625
3.42443e-08 0.122653 -0.66
-0.879618 0.561761 0.73875
0 0.12972 0.7625
-0.745341 0.937515 0.025
5.02022e-05 1.09717 -0.665
-2.82911e-06 1.3125 0.715
0.776532 0.126551 0.05125
0.851636 0.509601 -0.6625
0.879616 0.561758 0.73875
0.745338 0.937513 0.025
-0.89774 0.460546 -1.36313
0.897722 0.460571 -1.36313
1.71222e-08 0.12719 -1.37125
2.51011e-05 0.901869 -1.355
0 0.411542 -2.38071
-0.863026 0.535656 0.038125
0.863023 0.53568 0.038125
1.71222e-08 0.123204 0.05125
2.36865e-05 1.316 0.025
-0.896697 0.583697 1.43938
0.896697 0.583696 1.43938
0 0.186223 1.47375
-1.41455e-06 1.15048 1.405
0 0.605633 2.37182
-0.721638 0.283271 -2.09226
-0.3525 0.141858 -2.09564
-0.737108 0.130072 -1.72688
-0.68402 0.430316 2.1919
-0.345582 0.330553 2.10945
-0.711503 0.227481 1.82937
-0.715982 0.539812 -2.07286
-0.3475 0.722646 -2.09956
-0.742637 0.752236 -1.7
-0.584905 0.780949 2.12086
-0.2725 0.975403 2.11414
-0.615558 0.990309 1.75
0.3525 0.141865 -2.09563
0.721647 0.283271 -2.09227
0.737109 0.130072 -1.72688
0.345582 0.330558 2.10944
0.684038 0.430316 2.19191
0.708199 0.230786 1.82937
0.3475 0.722691 -2.09961
0.716188 0.539812 -2.07306
0.742737 0.752335 -1.7
0.2725 0.975413 2.11415
0.584683 0.780949 2.12064
0.615557 0.990308 1.75
-0.756705 0.124836 -1.01563
-0.769927 0.125975 -0.304375
-0.833303 0.304564 -0.66125
-0.381373 0.124603 -0.66
-0.728166 0.196458 1.11813
-0.779013 0.131249 0.406875
-0.855605 0.335298 0.750625
-0.39296 0.130473 0.7625
-0.757835 0.840464 -1.01
-0.867457 0.728806 -0.66375
-0.755412 0.911071 -0.32
-0.41975 1.06043 -0.665
-0.717584 1.0193 1.06
-0.857837 0.804121 0.726875
-0.736492 0.965182 0.37
-0.426736 1.27907 0.715
0.756682 0.12486 -1.01563
0.381373 0.124603 -0.66
0.769927 0.125975 -0.304375
0.833305 0.304587 -0.66125
0.728157 0.196467 1.11813
0.39296 0.130473 0.7625
0.779013 0.131249 0.406875
0.855548 0.335325 0.750625
0.757829 0.840458 -1.01
0.419943 1.06066 -0.665
0.867474 0.728866 -0.66375
0.755409 0.911068 -0.32
0.71757 1.01929 1.06
0.426728 1.27906 0.715
0.857834 0.804117 0.726875
0.736482 0.965171 0.37
-0.896592 0.436044 -1.72978
-0.366343 0.411542 -2.31158
8.56108e-09 0.130129 -1.73288
0 0.277269 -2.29494
-0.896333 0.294648 -1.36719
-0.372806 0.127187 -1.37125
-0.831897 0.594665 1.81935
-0.338706 0.605633 2.34167
0 0.231214 1.82111
0 0.438582 2.32167
-0.888373 0.39458 1.45656
-0.36317 0.186223 1.47375
1.25505e-05 0.84893 -1.73743
0 0.577245 -2.34188
-0.896232 0.63269 -1.35906
-0.379348 0.889601 -1.355
-7.07277e-07 1.02758 1.76007
0 0.79102 2.26144
-0.877011 0.799167 1.42219
-0.338202 1.13131 1.405
0.896591 0.436056 -1.72977
0.366332 0.411542 -2.31158
0.896333 0.294658 -1.36719
0.372808 0.127187 -1.37125
0.831864 0.594664 1.81925
0.3386 0.605633 2.34167
0.888361 0.394575 1.45656
0.363174 0.186223 1.47375
0.896232 0.632703 -1.35906
0.379373 0.889592 -1.355
0.877096 0.799223 1.42219
0.338257 1.13136 1.405
-0.838192 0.321897 0.0446875
-0.387994 0.125422 0.05125
-0.871147 0.485049 -1.01281
-0.857321 0.522603 -0.312188
2.56832e-08 0.122447 -1.01563
2.56832e-08 0.122929 -0.304375
-0.868402 0.548708 0.388438
-0.896814 0.572729 1.08906
8.56108e-09 0.129732 0.406875
0 0.150597 1.11813
-0.860779 0.764884 0.0315625
-0.448228 1.2779 0.025
3.76516e-05 0.945644 -1.01
3.69443e-05 1.23483 -0.32
1.04287e-05 1.33553 0.37
-2.12183e-06 1.24752 1.06
0.838194 0.321907 0.0446875
0.387994 0.125422 0.05125
0.871147 0.485086 -1.01281
0.857318 0.52264 -0.312188
0.868397 0.548719 0.388438
0.896814 0.572727 1.08906
0.860775 0.764893 0.0315625
0.448252 1.2779 0.025
-0.896316 0.288959 -1.72833
-0.870026 0.306061 -1.01422
-0.862386 0.667159 -1.01141
-0.895838 0.586251 -1.71489
0.896314 0.288964 -1.72832
0.895838 0.586258 -1.71488
0.862371 0.667203 -1.01141
0.870029 0.306079 -1.01422
-0.362653 0.129994 -1.72988
0.362654 0.129994 -1.72988
0.377235 0.122447 -1.01563
-0.377234 0.122447 -1.01563
-0.363424 0.836338 -1.71872
-0.383301 0.928187 -1.01
0.383364 0.927955 -1.01
0.363436 0.836332 -1.71872
-0.359422 0.28027 -2.28338
-0.356922 0.558529 -2.27077
0.356916 0.558529 -2.2718
0.359416 0.28027 -2.2835
-0.835835 0.313187 -0.308281
-0.840432 0.331831 0.397656
-0.855301 0.782499 0.379219
-0.864241 0.746906 -0.316094
0.835825 0.313209 -0.308281
0.864219 0.746927 -0.316094
0.855297 0.782501 0.379219
0.840434 0.331834 0.397656
-0.384683 0.125013 -0.304375
0.384683 0.125013 -0.304375
0.389274 0.130352 0.406875
-0.389274 0.130353 0.406875
-0.44826 1.19771 -0.32
-0.445077 1.29367 0.37
0.445085 1.29367 0.37
0.448201 1.19749 -0.32
-0.886469 0.370685 1.10359
-0.836227 0.412448 1.82436
-0.798946 0.790058 1.78468
-0.880638 0.787949 1.07453
0.886438 0.370682 1.10359
0.88063 0.787975 1.07453
0.798862 0.790086 1.78462
0.836235 0.412446 1.82431
-0.377991 0.150597 1.11813
0.377993 0.150597 1.11813
0.354378 0.231971 1.82524
-0.354376 0.231971 1.82524
-0.350726 1.22895 1.06
-0.305351 1.02114 1.75504
0.305378 1.02112 1.75504
0.35075 1.2288 1.06
-0.342144 0.434449 2.34704
0.342091 0.434449 2.34702
0.30555 0.785985 2.24431
-0.305603 0.785985 2.2443
-0.710974 0.219135 -2.08504
-0.52875 0.142054 -2.09545
-0.732683 0.130907 -1.90469
-0.68753 0.342658 2.18839
-0.518374 0.279822 2.16018
-0.700535 0.242039 2.00719
-0.707773 0.603948 -2.06121
-0.52125 0.69676 -2.07368
-0.716828 0.708168 -1.8725
-0.571952 0.868608 2.11493
-0.40875 0.972809 2.11154
-0.584206 0.977214 1.9225
0.52875 0.142021 -2.09548
0.710948 0.219135 -2.08501
0.732689 0.130901 -1.90469
0.518374 0.28232 2.15768
0.687493 0.342658 2.18835
0.700535 0.242039 2.00719
0.52125 0.696755 -2.07367
0.707889 0.603948 -2.06133
0.716829 0.708169 -1.8725
0.40875 0.972863 2.1116
0.571861 0.868608 2.11484
0.584215 0.977223 1.9225
-0.760024 0.125108 -0.837813
-0.766626 0.125686 -0.482188
-0.839418 0.194429 -0.660625
-0.572359 0.124979 -0.66
-0.726841 0.194193 0.940313
-0.78227 0.131583 0.584688
-0.840408 0.223662 0.756563
-0.589314 0.131102 0.7625
-0.760068 0.860955 -0.8375
-0.850131 0.825816 -0.664375
-0.759983 0.897384 -0.4925
-0.616081 1.01492 -0.665
-0.721851 1.00531 0.8875
-0.793886 0.898771 0.720938
-0.730989 0.977936 0.5425
-0.610044 1.20224 0.715
0.760024 0.125107 -0.837813
0.572298 0.125101 -0.66
0.766626 0.125686 -0.482188
0.839418 0.194441 -0.660625
0.726833 0.1942 0.940313
0.589314 0.131102 0.7625
0.78227 0.131583 0.584688
0.840413 0.223659 0.756563
0.760084 0.860971 -0.8375
0.616219 1.01507 -0.665
0.850068 0.825836 -0.664375
0.760108 0.897509 -0.4925
0.721845 1.00531 0.8875
0.610039 1.20224 0.715
0.793887 0.898769 0.720938
0.730989 0.977936 0.5425
-0.726153 0.347406 -2.09334
-0.731871 0.475677 -2.09218
-0.84559 0.423793 -1.91311
[...]
POINT_DATA 3682
SCALARS point_scalars float 1
LOOKUP_TABLE default
-85.5009
-39.3499
-26.3351
-32.22
-84.909
-39.3392
-26.5437
-32.1864
-37.4804
-42.1391
-54.8053
-47.6313
-37.4836
-42.1636
-54.7626
-47.6385
-39.6373
-125.373
-39.7955
-41.3315
-40.2509
-39.3499
-34.5913
74.0572
-98.4849
-35.6
-38.9134
-40.7772
-35.7229
-33.3296
76.3142
-84.2687
-48.2323
-41.0726
-40.3533
-33.6641
-32.418
-22.0058
-57.8458
-74.0472
-57.5972
-38.3489
-32.3353
-30.0862
-81.3405
-130.337
-37.4512
-45.6022
-38.4536
-33.9008
-33.1409
125.643
-32.9108
-32.8342
163.008
-32.3736
-31.8024
60.8844
-45.3015
-45.1635
-63.1171
-33.2912
-30.0862
-30.0862
-75.5367
-127.514
-37.4332
-45.5575
-38.5859
-33.7809
-33.7809
127.209
-32.8366
-32.3723
161.871
-31.8676
-31.1367
16.2566
-45.2693
-45.1899
-64.532
-32.9572
-28.7523
-25.7936
-40.3227
-127.365
-39.7657
-41.3491
-40.1958
-39.3392
-34.5423
73.3659
-98.579
-35.6133
-39.2583
-40.8288
-34.8253
-33.307
76.158
-83.992
-48.2121
-41.0671
-40.3746
-33.0304
-32.3512
-22.3695
-57.9823
-74.1051
-57.5873
-35.3924
-31.135
-30.0581
8.44606
-118.66
-53.4065
-33.7849
-37.0245
-40.8148
-21.3943
-49.2588
-28.2974
-45.3694
8.22591
-53.4251
-33.7506
-40.8652
-49.2591
-45.3019
-36.2915
-37.2682
-39.3978
-37.0663
-43.2133
-53.316
0.469762
-65.4957
-36.4069
-37.2779
-37.0567
-53.3256
-61.9307
-61.9414
-51.7298
-18.6187
206.272
-38.156
-38.1559
-38.5847
-85.8809
-46.9722
-46.9621
-43.1962
-39.216
-28.4862
-15.778
-120.116
-83.1205
-35.3112
-37.4768
-42.4158
14.2092
-25.5149
-51.49
-32.3819
-28.6212
-36.5216
-120.34
-18.3869
-83.1774
-37.6215
-35.2741
-42.3228
-26.0176
14.1796
-51.5014
-28.717
-32.3505
-36.5033
-42.7013
-35.6085
-35.5897
-39.0142
-41.956
-36.8719
-32.5064
-43.0219
-34.5033
-44.7615
-58.2708
-5.93207
-48.8572
-41.3813
-49.7274
-62.5028
-42.7064
-39.0045
-35.6336
-35.5984
-41.9561
-43.0522
-36.879
-32.4091
-34.4843
-6.01642
-44.7695
-58.2045
-48.8531
-62.49
-41.3808
-49.7264
-111.327
175.179
-72.8053
162.538
-60.4422
-51.9356
-44.2577
-31.688
-40.9432
-31.6456
-44.9038
-42.9106
-37.1298
149.173
-62.23
-24.5774
-32.2588
-25.161
-49.3174
-40.0729
-111.334
175.267
-60.4471
-51.8834
-44.1936
-31.6572
-44.9048
-42.9429
-62.2477
-24.5898
-49.3284
-40.072
-36.0579
-38.0673
-46.6458
-37.9387
-43.783
-37.883
-37.7653
-43.7704
-39.3661
-45.7312
-44.7527
-80.806
5.35551
-46.1786
-79.7626
-50.6645
-36.0596
-38.1478
-46.5564
-37.9478
-37.7539
-43.7667
-44.762
-80.8014
-114.396
-47.7001
-44.5535
-104.324
-114.328
-104.34
-44.5331
-47.6887
-74.2924
-74.2209
-43.5272
-43.5496
-40.3187
-4.46633
-4.51539
-40.315
143.155
126.407
126.191
143.444
-35.4762
-35.8664
-44.0911
-45.8359
-35.4901
-45.8459
-44.0958
-35.8406
-37.3686
-37.3851
-38.9934
-39.0075
-44.7617
-71.1644
-71.1555
-44.5067
-43.0905
-45.9465
-42.6901
-44.2777
-43.1023
-44.2695
-42.6409
-45.8563
-45.1608
-45.1704
-41.2942
-41.2704
-51.3633
-33.1456
-33.1208
-51.3531
-32.7806
-32.8245
-29.5647
-29.6107
-40.5042
-137.251
-103.363
-37.5431
-37.5526
-39.5628
9.45801
-29.6761
-44.6338
-32.9233
-29.4964
-34.0373
-136.066
-39.8921
-103.523
-37.5346
-37.5109
-39.5226
-30.3277
9.37671
-44.6395
-29.4711
-32.8873
-34.0076
-37.8831
-35.796
-35.6438
-38.256
-45.9208
-38.4086
-34.9504
-43.4882
-35.9738
-50.6501
-59.4522
-20.7791
-47.9106
-46.0935
-48.5884
-55.6336
-37.8753
-38.2467
-35.8081
-35.6571
-45.8788
-43.5311
-38.4289
-34.9608
-35.7912
-20.7891
-50.6805
-59.5434
-47.9148
-55.6236
-46.2711
-48.592
2.36673
12.8161
-52.4578
128.624
-118.248
-118.412
-89.5893
74.776
-64.3072
-47.266
-58.5327
-52.1542
-34.6174
-32.0368
-38.1544
-32.333
-36.8401
-36.8599
-37.8491
-34.0383
-43.8257
-41.6088
-43.2317
-42.0588
-25.6235
-25.575
-36.4765
40.1792
-55.0487
-40.3626
-65.1202
-33.3252
-28.3276
-28.3793
-30.1905
-22.4255
-40.1764
-50.029
-47.1185
-41.6366
1.89897
12.7939
-52.2866
128.639
-64.3433
-47.2771
-58.5478
-52.118
-34.5796
-32.0032
-38.0812
-32.3116
-43.543
-41.6392
-43.2751
-42.1038
-55.0745
-40.4044
-65.1356
-33.3366
-40.1696
-49.9881
-47.0906
-41.6492
-35.8009
-37.0654
-35.7699
-37.4188
-36.0898
-39.9212
-38.3864
-37.5469
-39.3205
-39.3172
-41.1895
-38.3292
-35.2856
-38.9807
-36.777
-39.1657
-43.1659
-43.1848
-40.9499
-46.6278
-56.2173
-51.5064
-50.2243
-67.5519
-0.616485
-0.584749
10.2387
-18.4829
-64.8848
-64.8816
-73.0259
-57.9032
-35.8453
-36.714
-35.802
-37.5063
-36.0984
-39.9302
-38.395
-37.5552
-35.2769
-38.9814
-36.7665
-39.1668
-56.235
-51.5034
-50.2335
-67.5691
-77.2544
-61.4609
-62.0469
-54.0215
-77.2685
-61.4658
-62.063
-54.0415
-60.247
-51.8521
-51.8332
-47.4859
-30.4009
-20.2089
-20.1992
-7.30349
190.818
156.497
192.568
190.887
-36.6975
-38.2343
-38.0316
-40.5802
-36.6958
-38.2403
-38.0205
-40.5855
-38.457
-37.9673
-39.5595
-38.5372
-85.3918
-81.4751
-84.6301
-85.3547
-51.2594
-45.9179
-48.1217
-44.5727
-51.2082
-45.9078
-48.111
-44.5659
-42.466
-43.1325
-43.1516
-44.4184
-35.2187
-39.4371
-39.437
-44.1338
-29.6117
-32.1011
-25.9531
-29.5743
-40.8461
121.852
-92.3163
40.3977
-114.602
-76.0601
-39.4878
-33.0856
-39.463
-33.7031
-46.4728
-41.5136
-63.2533
101.465
-40.6683
63.4421
-78.4696
-42.3556
-37.2113
-31.3983
-30.6902
-28.1205
-40.5112
-34.1982
-92.2453
39.067
-40.9974
121.741
-114.657
-76.0077
-39.5246
-33.7222
-39.4324
-33.0842
-46.2325
-41.4895
-40.4232
62.8987
-63.2002
101.582
-78.46
-42.3528
-30.6837
-28.0755
-37.1697
-31.3666
-40.4694
-34.1995
-48.5212
-43.0626
-34.9583
-36.7069
-37.2972
-35.2117
-40.8622
-37.7965
-42.9554
-43.8475
-36.0234
-38.368
-35.0833
-43.1893
-40.6795
-46.4136
-46.2508
-15.9653
-41.8166
-45.4568
-52.4383
-73.1424
0.241968
-20.4402
-46.9981
-52.7717
-41.1124
-41.93
-47.6587
-58.8882
-66.9191
-57.9736
-48.5101
-43.0462
-40.8458
-37.7964
-34.9799
-36.7292
-37.3002
-35.2246
-42.9656
-43.7415
-40.6952
-46.4429
-36.0524
-38.3852
-35.112
-43.1757
-46.2494
-16.1516
0.339965
-20.4366
-41.8015
-45.479
-52.406
-73.2134
-46.982
-52.7681
-66.9151
-57.9651
-41.109
-41.9256
-47.6612
-58.888
-112.635
-108.408
158.671
157.552
-73.2365
-73.2253
163.735
163.746
-75.363
-53.4257
-61.0064
-47.4402
-45.3948
-43.0696
-32.5038
-30.1027
-41.0702
-41.0469
-32.0257
-32.01
-42.7048
-51.0674
-43.9093
-42.5649
-38.0357
-37.9912
142.951
142.389
-53.8958
-77.2488
-34.5186
-14.7918
-32.5285
-32.5383
-26.538
-26.5852
-48.1839
-46.6584
-45.0234
-36.1266
-112.503
-108.388
158.681
158.791
-75.3763
-53.4151
-60.9391
-47.408
-43.0156
-45.3241
-32.4772
-30.0611
-42.7119
-50.9994
-43.9357
-42.5558
-77.2722
-53.9219
-14.8097
-34.529
-46.643
-48.1514
-36.124
-45.0305
-35.8716
-36.0998
-37.4608
-38.9906
-47.342
-45.4389
-36.2936
-40.7779
-43.7702
-43.7797
-37.7703
-37.7818
-36.3489
-39.5912
-43.4545
-44.0281
-39.3046
-39.2935
-45.6125
-45.6264
-44.1132
-45.5158
-84.2919
-75.2485
2.5064
2.50186
-44.1918
-44.3521
-77.6399
-77.6316
-50.7896
-50.7799
-35.883
-36.0706
-37.5013
-38.6449
-45.4617
-47.3253
-36.3036
-40.787
-39.5876
-36.3353
-43.452
-44.0299
-45.5277
-44.0917
-75.241
-84.4933
-37.6758
-72.4021
-76.6845
-51.3558
-36.7323
-37.8729
-53.9386
-52.1087
-42.0872
-55.8452
-54.348
-40.055
-56.3537
-58.7678
-76.47
-78.0293
-37.7861
-50.9482
-76.6905
-72.4387
-56.1859
-78.0631
-76.4908
-58.8243
-42.044
-40.0559
-54.3856
-55.8517
-36.7391
-52.1061
-53.9411
-37.8754
-95.8042
-90.1587
-60.1715
-62.1286
-95.6349
-62.0778
-60.1522
-90.1796
-40.2404
-41.1393
-47.5246
-47.1673
-40.2521
-47.1924
-47.538
-41.1463
-42.4767
-41.1421
-31.4771
-38.1349
-15.6132
7.65989
-9.02301
-23.7386
-15.6481
-23.7648
-9.02153
7.71233
-42.4346
-38.0919
-31.4809
-41.1635
52.3609
107.822
160.433
95.0442
56.0225
59.1365
178.932
131.257
57.5012
130.978
179.19
58.9972
53.5141
95.0551
160.473
107.996
-34.7729
-35.3245
-36.614
-35.8828
-35.9533
-35.5893
-36.7197
-35.923
-46.2156
-48.7563
-39.9427
-38.6666
-51.7759
-40.4033
-40.912
-51.5956
-34.7894
-35.8929
-36.6209
-35.3466
-51.8325
-51.6165
-40.919
-40.4154
-46.1618
-38.6593
-39.9222
-48.7585
-35.9557
-35.9491
-36.7025
-35.5818
-37.1207
-38.2241
-37.8534
-36.8296
-37.1139
-36.876
-37.8834
-38.2264
-40.2656
-40.9066
-39.2358
-37.917
-40.2469
-38.2833
-39.5362
-40.8895
-44.4141
-82.2444
-84.0329
-18.0268
-57.133
-71.515
-81.9057
-62.671
-57.123
-62.62
-81.9085
-71.5109
-44.3838
-17.85
-84.032
-82.2783
-46.0695
-41.3696
-43.7722
-40.3924
-40.3413
-38.7615
-51.0876
-50.3796
-36.5761
-43.9851
-50.7616
-37.2999
-46.3438
-39.053
-45.2376
-49.7634
-46.0681
-40.4192
-43.7695
-41.3882
-46.3314
-49.773
-45.2235
-39.0375
-36.5332
-37.2604
-50.7207
-43.9611
-40.3006
-50.3367
-51.0234
-38.7064
-46.5404
-46.5751
-44.3046
-43.112
-46.7281
-43.1516
-44.3199
-46.5958
-41.1215
-38.3711
-42.4857
-42.6202
-41.0765
-42.6393
-42.4959
-38.3459
-56.5947
-46.7953
-44.352
-58.1129
-31.6153
-30.3143
-35.4458
-37.4171
-31.6048
-37.4148
-35.4391
-30.3109
-56.5719
-58.1122
-44.3526
-46.7934
-34.9061
-33.0604
-32.2636
-32.6415
-34.8823
-32.6267
-32.2458
-33.0575
-31.0543
-23.9868
-27.4062
-31.1101
-31.09
-31.1413
-27.4565
-24.0779
-39.0859
-136.713
-107.076
-39.4017
-38.3762
-38.203
-5.44498
-46.5019
-52.2098
-32.8514
-30.463
-32.916
-136.82
-41.3675
-106.836
-38.4604
-39.3703
-38.2388
-46.8271
-5.58332
-52.1286
-30.4372
-32.8143
-32.8855
-39.0012
-35.989
-38.6329
-37.788
-53.1556
-39.6399
-38.0463
-44.0957
-42.9204
-53.4904
-61.9137
-42.6089
-47.6493
-46.8974
-47.8748
-50.423
-38.9959
-37.784
-35.9976
-38.6411
-53.1946
-44.1327
-39.6614
-38.0607
-42.612
-42.3608
-53.5169
-62.025
-47.6545
-50.4323
-46.9313
-47.8803
5.93943
9.58471
-34.3266
86.2725
-118.373
-118.446
-100.907
10.1292
-58.1144
-50.0847
-56.9385
-52.3784
-34.3324
-32.4718
-35.9054
-32.6483
-36.7875
-36.7914
-36.8839
-34.8847
-41.5241
-40.9297
-42.3155
-40.7836
-22.5055
-22.4439
-31.1806
-23.2761
-53.462
-44.3067
-62.9048
-40.9478
-28.2936
-28.3221
-29.2081
-23.8165
-42.8486
-48.5999
-45.6522
-43.1539
5.68997
9.47245
-34.1023
86.0921
-58.144
-50.0965
-56.9579
-52.3766
-34.2941
-32.4462
-35.8913
-32.6169
-41.6056
-40.9702
-42.396
-40.8338
-53.4609
-44.2992
-62.9084
-40.9501
-42.842
-48.5834
-45.5653
-43.1443
-35.8749
-36.6372
-36.2356
-36.9715
-36.5278
-38.4105
-37.4175
-37.2776
-39.3523
-39.3507
-40.1975
-38.781
-36.2381
-37.9485
-36.8595
-37.3497
-43.1958
-43.2062
-41.9703
-44.6962
-54.7591
-52.0823
-52.7804
-59.355
0.186924
0.293515
7.10354
-7.81799
-65.3776
-65.3761
-69.1351
-61.7121
-35.9432
-36.9867
-36.3298
-37.0747
-36.5381
-38.4188
-37.4274
-37.2855
-36.2091
-37.9499
-36.846
-37.3564
-54.7676
-52.0881
-52.7911
-59.3643
-68.4565
-61.7435
-61.9142
-57.2339
-68.4699
-61.7508
-61.9283
-57.2449
-55.5332
-51.6916
-51.6831
-49.3513
-24.7799
-17.7858
-19.0493
-13.4881
204.115
178.824
209.275
204.2
-37.3057
-38.205
-38.0538
-39.2663
-37.3041
-38.2085
-38.0486
-39.2684
-38.5948
-38.2273
-39.0835
-38.6493
-85.8376
-85.9006
-85.5432
-85.8332
-49.2334
-46.5219
-47.5175
-45.4386
-49.2005
-46.5091
-47.5137
-45.4306
-42.7354
-43.1789
-43.1885
-43.7648
-37.1043
-39.2863
-39.281
-41.6185
-28.7087
-30.4422
-26.0004
-28.6759
-23.6112
-5.63959
-44.4722
82.4107
-126.261
-119.006
-106.297
-78.6284
-99.2496
-72.2495
-111.832
-77.4917
-36.0941
-34.8844
-37.3536
-33.3301
-37.2828
-37.1105
-39.7614
-36.6751
-40.5923
-44.404
-46.3951
-41.6313
16.6117
15.5242
-34.3778
60.0815
-29.2896
-27.4658
-34.6409
-15.2112
-46.6262
-55.6202
-59.4479
-43.9109
-32.7228
-32.2909
-34.4837
-31.8674
-28.9192
-28.4192
-29.5982
-27.6982
-35.1261
-38.1547
-38.9641
-35.1611
-124.445
-119.251
-106.231
-81.1658
-26.0006
-6.97325
-42.8845
81.7789
-99.356
-72.2842
-111.898
-77.5125
-37.5646
-37.2048
-39.8297
-37.008
-36.0588
-34.8477
-37.3034
-33.3045
-40.1267
-44.9846
-46.065
-41.5095
-29.2851
-27.4593
-34.626
-14.948
16.5654
15.5464
-32.2494
59.9087
-46.5487
-55.7214
-59.3337
-43.9188
-29.0116
-28.4905
-29.5888
-27.6658
-32.6892
-32.2558
-34.45
-31.8366
-35.1018
-38.1394
-38.9255
-35.15
-38.9074
-44.5461
-47.622
-42.5675
-35.5773
-35.586
-35.1125
-36.2118
-35.6516
-35.7301
-36.0862
-35.3018
-38.735
-39.1221
-39.9765
-38.2324
-41.8097
-40.4404
-43.5294
-43.134
-37.2928
-36.913
-36.5034
-37.8373
-32.6284
-33.9387
-34.0912
-36.5529
-43.072
-43.1227
-41.7983
-44.4892
-33.7006
-37.0911
-42.579
-25.7412
-48.3818
-41.8968
-43.7694
-45.1166
-58.4823
-57.2488
-55.9727
-74.0163
-11.7402
-2.3746
-1.65885
-12.1225
-48.3672
-48.6252
-47.9521
-53.4414
-43.9389
-39.9565
-41.0994
-41.2207
-49.1633
-50.6446
-48.8362
-53.6767
-60.7423
-63.8145
-64.7289
-60.4538
-38.9148
-44.5599
-47.6166
-42.5607
-38.7224
-39.1153
-39.9639
-38.226
-35.5951
-35.6192
-35.1378
-36.2367
-35.6609
-35.7388
-36.0918
-35.3136
-41.8161
-40.4522
-43.5393
-43.1201
-43.1105
-43.1473
-41.8229
-44.5227
-37.3137
-36.139
-36.5478
-37.8113
-32.6605
-33.9232
-33.8749
-36.5927
-33.6825
-37.1001
-42.6994
-25.7396
-11.8145
-2.40323
-1.69052
-12.278
-48.4004
-41.9088
-43.7641
-45.1361
-58.6444
-57.2118
-55.9824
-74.0836
-48.3698
-48.6206
-47.9442
-53.4264
-60.726
-63.8078
-64.7212
-60.443
-43.9497
-39.9583
-41.0997
-41.209
-49.1621
-50.6398
-48.9082
-53.6676
-109.37
-89.5125
-111.772
-109.687
149.502
185.496
169.673
169.379
-80.6897
-65.9836
-72.941
-72.9379
143.706
159.994
162.859
162.848
-59.6176
-61.1412
-66.7127
-56.0203
-52.04
-51.8204
-55.9306
-49.4036
-40.5539
-48.9282
-44.7875
-43.5627
-32.4035
-30.7208
-32.3436
-30.417
-39.473
-41.9871
-40.9624
-40.9577
-32.6691
-31.6153
-31.8202
-31.8114
-44.1888
-45.2383
-43.3745
-48.5741
-42.7118
-43.0484
-43.3652
-42.6076
-37.7291
-34.2094
-37.0893
-37.1552
107.639
172.849
144.888
145.304
-63.9297
-62.1623
-57.6829
-68.6
-28.2222
-22.1042
-30.202
-19.5613
-31.2628
-33.595
-32.342
-32.3444
-23.7088
-25.7409
-25.5053
-25.5321
-48.8681
-48.8737
-50.8979
-48.1831
-40.6766
-39.7214
-42.3905
-37.9343
-109.618
-89.5269
-111.682
-109.685
149.298
185.594
169.649
170.077
-59.6263
-61.1448
-66.7225
-56.021
-51.9811
-51.7869
-55.8705
-49.3622
-40.4877
-48.8747
-43.5092
-44.7194
-32.3822
-30.6909
-32.3165
-30.4565
-44.2071
-45.2331
-43.3788
-48.5613
-42.7492
-43.075
-43.395
-42.6592
-63.9468
-62.1797
-68.6194
-57.7012
-28.2355
-22.1191
-19.5757
-30.217
-48.9339
-48.854
-48.1831
-50.878
-40.6747
-39.7203
-37.9372
-42.3924
-35.8721
-36.1173
-35.9798
-36.1798
-37.7771
-38.2937
-37.7102
-38.6117
-41.6972
-51.748
-46.983
-45.8318
-37.764
-38.1406
-37.0284
-39.199
-42.386
-45.4757
-43.7897
-43.7942
-38.026
-37.8656
-37.8407
-37.8469
-37.2125
-37.9341
-36.8867
-38.6204
-42.3201
-44.0707
-43.5554
-44.0084
-40.0818
-39.3398
-39.3656
-39.3519
-46.8536
-45.0962
-45.7036
-45.7115
-47.2921
-42.468
-44.2733
-45.1862
-75.3428
-83.092
-83.6315
-77.9443
9.88745
-1.539
4.60018
4.61342
-30.8024
-67.4754
-46.9578
-46.3272
-76.4482
-82.4293
-79.4864
-79.4815
-54.2355
-47.0749
-50.6409
-50.6388
-35.8792
-36.1175
-35.9876
-36.1687
-37.8572
-38.3781
-37.7681
-38.7921
-41.6932
-51.759
-45.6933
-46.9421
-37.7741
-38.1486
-37.0377
-39.2076
-37.2022
-37.9215
-38.6105
-36.8745
-42.3153
-44.0655
-43.5511
-44.0076
-47.3017
-42.4761
-45.1971
-44.2876
-75.3701
-83.0729
-77.9367
-83.6305
-109.903
-114.919
-113.647
-88.4846
-47.6686
-40.9346
-52.3769
-47.5164
-45.0148
-41.8782
-48.9614
-44.9839
-89.3378
-91.4752
-106.212
-89.2875
-110.67
-114.942
-113.497
-88.4899
-89.3154
-91.4666
-106.216
-89.3209
-44.9946
-41.8553
-48.9572
-44.9536
-47.6567
-40.9315
-52.3631
-47.5016
-82.4644
-75.1844
-73.635
-67.319
-82.3986
-75.0801
-73.6052
-67.2466
-43.3467
-42.0693
-45.2947
-43.6745
-43.3707
-42.0886
-45.3217
-43.69
-40.2406
-41.6689
-38.953
-37.7345
-9.22926
-0.39217
-9.53768
-0.340001
-9.21833
-0.204439
-9.57662
-0.363069
-40.2489
-41.6791
-38.9675
-37.7434
107.482
105.52
154.517
157.382
112.74
103.861
143.457
139.149
102.69
109.703
138.572
144.141
105.782
107.964
157.428
154.692
-35.23
-35.3473
-35.7001
-35.7521
-35.7039
-35.794
-36.0514
-35.9667
-43.0484
-45.5583
-41.6658
-43.1419
-45.7554
-48.7998
-43.0683
-45.7177
-35.2461
-35.3603
-35.7137
-35.7634
-45.7749
-48.8035
-43.0781
-45.7243
-43.0457
-45.5566
-41.6702
-43.1313
-35.6787
-35.7902
-36.0063
-35.9483
-37.0565
-37.5028
-37.3605
-37.5851
-37.5104
-37.0754
-37.5999
-37.3878
-39.738
-38.7192
-39.1705
-38.4412
-38.7444
-39.7383
-38.8005
-39.1789
-50.2898
-30.5984
-67.9755
-42.7587
-66.0909
-68.9545
-73.1367
-75.1324
-68.9431
-66.0717
-75.1261
-73.1287
-29.9852
-49.561
-42.6445
-68.2058
-42.9715
-43.8049
-42.6929
-43.3023
-42.0864
-46.1544
-45.8275
-49.7928
-40.1163
-41.9758
-43.1969
-44.8635
-45.6378
-43.0979
-44.9642
-43.9193
-42.9823
-43.8082
-42.6969
-43.3055
-45.6347
-43.0979
-44.9487
-43.9172
-40.0699
-41.9394
-43.1382
-44.8249
-42.0123
-46.0441
-45.7521
-49.7019
-44.7629
-46.4292
-44.5295
-45.4526
-44.7732
-46.4413
-44.5509
-45.4688
-40.2379
-41.3647
-41.2395
-42.2174
-40.202
-41.3527
-41.2094
-42.2325
-51.8676
-54.8804
-48.0839
-50.9342
-31.9183
-33.6004
-32.7961
-34.4843
-31.9147
-33.5502
-32.792
-34.4751
-51.8745
-54.8758
-48.0807
-50.9121
-32.9393
-33.2626
-32.4285
-32.1821
-33.3543
-32.9763
-32.1643
-32.4033
-28.9353
-30.6454
-28.1489
-29.9151
-30.6849
-28.9855
-29.9587
-28.2035
-52.5652
22.9149
-118.042
-60.2945
-71.8962
-99.2224
-38.9138
-34.7916
-38.4249
-37.3109
-40.3667
-41.7672
-42.9893
49.9493
-36.978
0.00465936
-47.0316
-39.0231
-34.6779
-31.7513
-30.4444
-30.1581
-36.2275
-32.4216
-117.469
-60.7744
-52.14
22.1211
-72.5163
-99.3041
-38.3967
-37.4536
-38.8749
-34.7401
-40.32
-41.5833
-36.9419
-0.133457
-43.0405
50.0108
-46.9899
-38.9293
-30.4298
-30.1292
-34.6355
-31.7178
-36.1909
-32.405
-34.0646
-39.7106
-35.2185
-36.6305
-37.1754
-34.754
-39.0892
-37.5656
-49.0593
-46.9978
-36.808
-39.7306
-35.8027
-40.8309
-41.6873
-45.8693
-38.4257
-27.4687
-45.7935
-51.5125
-55.7751
-73.9514
-15.6104
-28.6367
-46.9367
-50.2332
-46.4658
-46.2246
-47.613
-52.1275
-55.6598
-54.4588
-34.0713
-39.7019
-39.078
-37.5564
-35.237
-36.6395
-37.1825
-34.7703
-49.0779
-47.0332
-41.7183
-45.9461
-36.8207
-39.7511
-35.7988
-40.8448
-38.3601
-27.7054
-15.9368
-28.6922
-45.7381
-51.5592
-55.8593
-74.086
-46.9295
-50.2356
-55.647
-54.4373
-46.452
-46.2108
-47.5827
-52.1162
-41.7657
83.1366
-31.3956
76.3004
-54.2654
-54.6587
113.621
131.448
-101.255
25.4476
-101.321
25.463
-89.7535
-89.7691
105.687
105.697
-70.3807
-62.8582
-50.7792
-46.9088
-64.1659
-54.1322
-56.657
-49.3814
-36.7282
-32.9352
-34.6698
-31.385
-38.4313
-37.5849
-32.5607
-31.5265
-37.2205
-34.8907
-37.255
-34.889
-37.9405
-37.9302
-33.4033
-33.4058
-48.204
-42.8303
-41.7605
-42.3193
-42.3644
-45.9061
-42.4269
-42.5366
-33.1398
-20.1677
-33.0623
-20.0427
-36.9407
-36.9056
53.8887
52.6683
-68.4768
-48.0185
-50.9796
-32.2478
-60.2933
-71.2488
-37.2728
-28.3737
-29.2828
-25.221
-29.2782
-24.9831
-30.2259
-30.2242
-22.6993
-22.6902
-41.8167
-38.6594
-50.1276
-49.5172
-45.875
-49.0616
-44.0529
-39.3765
-41.2235
82.3518
-31.3311
76.1734
-53.8877
-54.6252
131.208
113.716
-70.4205
-62.8608
-50.7838
-46.9043
-64.1914
-54.1415
-56.6144
-49.3503
-36.6398
-32.9111
-34.6341
-31.3545
-37.5271
-38.3806
-32.5413
-31.5046
-48.2643
-42.7757
-41.7835
-42.3527
-42.3877
-45.9699
-42.4677
-42.599
-68.5088
-48.0562
-51.0053
-32.2766
-71.2728
-60.3185
-28.3936
-37.2817
-41.7986
-38.6578
-50.1049
-49.4627
-49.0046
-45.8569
-39.3598
-44.0389
-35.5605
-36.376
-36.0903
-37.8458
-35.5103
-35.8596
-37.0691
-37.9615
-36.5924
-35.908
-39.8539
-40.139
-38.1178
-39.1548
-36.6096
-38.8191
-40.1427
-38.6817
-40.1375
-38.681
-41.0863
-41.0897
-38.3125
-38.3139
-35.4091
-36.1521
-38.8562
-38.8314
-36.0106
-37.5322
-39.5562
-38.6617
-41.9392
-44.6406
-41.9575
-44.6601
-40.9381
-40.927
-46.6368
-46.6484
-54.9022
-65.5292
-50.719
-56.4169
-49.0757
-51.1476
-74.2573
-64.5587
5.29667
-8.50516
5.37687
-8.46105
9.54369
9.53187
-17.9961
-18.0287
-68.2964
-61.3
-68.2938
-61.2955
-72.3682
-72.3671
-57.961
-57.957
-35.5944
-36.4243
-36.0871
-37.4432
-35.5305
-35.8849
-37.1332
-38.1605
-36.5989
-35.9171
-39.8577
-40.1494
-39.1659
-38.123
-36.6172
-38.8294
-35.3373
-36.1515
-38.8539
-38.8426
-37.5212
-36.0001
-39.5816
-38.6567
-54.9283
-65.5422
-50.7169
-56.4125
-51.1659
-49.0825
-64.5513
-74.2824
-76.9181
-76.7283
-67.9362
-56.8199
-57.3976
-68.2697
-54.0623
-54.0179
-76.928
-76.7468
-67.9433
-56.8235
-68.2873
-57.4163
-54.0456
-54.074
-60.2435
-60.2347
-55.7601
-49.4097
-55.7401
-49.3938
-47.322
-47.3281
-30.6611
-30.6498
-26.1975
-15.2988
-15.2658
-26.2325
-7.67985