# vtk DataFile Version 2.0
tet_velo
ASCII
DATASET UNSTRUCTURED_GRID
POINTS 29498 float
-0.697272 0.215 -2.085
-0.577915 0.295 2.245
-0.685 0.685 -2.01099
-0.615 1.025 2.13827
0.685 0.215 -2.10156
0.585 0.305 2.24896
0.695 0.684629 -2.005
0.615 1.025 2.13722
-0.719893 0.17926 -0.641667
-0.695188 0.190846 0.801667
-0.774317 0.910984 -0.627903
-0.75447 1.0278 0.755183
0.717468 0.179199 -0.651387
0.703877 0.189456 0.798787
0.779439 0.909192 -0.62426
0.755979 1.02586 0.75648
-1.43523 -0.203205 -3.21994
-1.43311 -0.138856 -2.08914
-1.44014 -0.16119 -0.643535
-1.39688 -0.172658 0.814432
-1.3056 -0.105897 2.26111
-1.28383 -0.0478297 3.39713
-1.29277 0.00454359 4.52384
-1.43062 0.106803 -3.20127
-1.43278 0.199673 -2.07781
-1.45359 0.2061 -0.644916
-1.39749 0.209656 0.793297
-1.26962 0.272662 2.22747
-1.25909 0.329393 3.36278
-1.28004 0.381283 4.49178
-1.4234 0.673876 -3.14934
-1.43351 0.76334 -2.02642
-1.49199 0.926085 -0.635222
-1.44424 1.01291 0.751881
-1.30467 1.0317 2.14466
-1.28017 1.08254 3.28211
-1.2927 1.13689 4.421
-1.41897 1.67942 -3.11645
-1.42877 1.79181 -2.00113
-1.45507 1.97987 -0.631209
-1.4576 2.13003 0.725741
-1.42079 2.20252 2.09715
-1.38638 2.24194 3.21559
-1.36535 2.28497 4.34744
-0.7195 -0.195612 -3.22676
-0.708791 -0.126767 -2.09796
-0.718203 -0.173921 -0.644854
-0.704786 -0.186426 0.821509
-0.644556 -0.0959521 2.27493
-0.624201 -0.0410787 3.40642
-0.627942 0.00701685 4.52899
-0.714371 0.105236 -3.20421
-0.59844 0.33684 3.37021
-0.616194 0.383726 4.49556
-0.703294 0.641055 -3.14193
-0.614642 1.08174 3.28034
-0.62545 1.13688 4.42025
-0.691852 1.65558 -3.10921
-0.695276 1.76863 -1.99295
-0.723343 1.97283 -0.626368
-0.745591 2.13539 0.724722
-0.732244 2.20614 2.09224
-0.70475 2.24299 3.21064
-0.684438 2.2853 4.34365
0.693759 -0.195948 -3.236
0.698749 -0.126949 -2.11051
0.712662 -0.174224 -0.653363
0.682953 -0.186643 0.818417
0.609482 -0.0904214 2.27618
0.645066 -0.0369041 3.40704
0.676466 0.00949938 4.52869
0.691565 0.104921 -3.21273
0.646895 0.341474 3.37125
0.679394 0.386221 4.49539
0.706207 0.64057 -3.14343
0.654297 1.08343 3.28011
0.680267 1.13838 4.41979
0.752897 1.65477 -3.11
0.762 1.76767 -1.99284
0.749176 1.97165 -0.626201
0.700441 2.13427 0.72443
0.656757 2.20553 2.09154
0.657796 2.24286 3.20979
0.672732 2.28549 4.3427
1.40813 -0.204056 -3.23561
1.41569 -0.139623 -2.10766
1.43225 -0.162183 -0.657112
1.39025 -0.172872 0.808376
1.29995 -0.0999903 2.26064
1.30836 -0.0419314 3.39694
1.33976 0.00865755 4.52269
1.40733 0.105928 -3.21543
1.41548 0.198825 -2.09571
1.44869 0.204867 -0.657504
1.40884 0.208468 0.78801
1.28917 0.279243 2.22789
1.30298 0.335548 3.36309
1.33891 0.385362 4.4909
1.42472 0.67271 -3.15456
1.43767 0.76192 -2.02855
1.49608 0.923621 -0.637012
1.45081 1.01034 0.750347
1.31632 1.03235 2.14317
1.31557 1.08518 3.28121
1.3437 1.13941 4.41976
1.47233 1.67779 -3.11885
1.48358 1.78993 -2.00211
1.47662 1.97766 -0.631889
1.42475 2.12799 0.724579
1.36456 2.20139 2.09552
1.3504 2.24169 3.21374
1.35808 2.28528 4.34541
-0.730135 0.45 -2.08699
-0.006136 0.204329 -2.10395
-0.723237 0.182475 -1.36333
-0.656405 0.66 2.25158
0.00354248 0.287375 2.25961
-0.634181 0.245293 1.52333
0.005 0.773207 -2.09639
-0.773481 0.841815 -1.31945
0 1.07934 2.19208
-0.698788 1.04045 1.44673
0.730291 0.449815 -2.09357
0.715556 0.182777 -1.37647
0.655124 0.665 2.24821
0.646095 0.245571 1.52387
0.780847 0.840538 -1.31463
0.699664 1.0396 1.44685
-0.704087 0.188507 0.0799999
-0.873429 0.545122 -0.634785
-0.00121254 0.17254 -0.646527
-0.888934 0.609325 0.778425
0.00434471 0.188894 0.800227
-0.771042 0.976042 0.06364
0.00256082 1.15841 -0.626082
0.000754496 1.37675 0.755832
0.706513 0.188487 0.0737
0.876724 0.544195 -0.637824
0.889493 0.607656 0.777633
0.773721 0.973536 0.0661099
-0.873623 0.497561 -1.34139
-0.877771 0.577223 0.07182
-0.881097 0.634662 1.48503
-0.00367427 0.178848 -1.3699
0.00156609 0.180543 0.0768499
0.0039436 0.238904 1.5236
-0.000568002 0.449907 -2.36074
0.00177124 0.6625 2.35326
0.00378041 0.936595 -1.31704
0.00165766 1.36748 0.0648749
0.000377248 1.21146 1.44679
0.865037 0.497005 -1.34555
0.881309 0.575926 0.0699049
0.881169 0.636328 1.48536
-1.06503 0.207337 -2.0814
-0.703032 0.0441166 -2.09148
-0.705821 0.160118 -2.6446
-0.923766 0.283831 2.23623
-0.611236 0.099524 2.25997
-0.588178 0.31592 2.8076
-1.05926 0.72417 -2.0187
-0.694147 0.663028 -2.57646
-0.690138 1.22682 -2.00197
-0.959835 1.02835 2.14147
-0.614821 1.05337 2.7093
-0.673622 1.61557 2.11525
0.691874 0.0440257 -2.10603
0.688283 0.159961 -2.65714
1.05024 0.206913 -2.09863
0.597241 0.107289 2.26257
0.615948 0.323237 2.81011
0.937087 0.292122 2.23843
0.700604 0.6626 -2.57422
0.7285 1.22615 -1.99892
1.06634 0.723274 -2.01678
0.634649 1.05422 2.70867
0.635879 1.61526 2.11438
0.965659 1.02867 2.1402
-1.08674 0.19268 -0.643291
-0.719048 0.00266962 -0.643261
-1.04634 0.200251 0.797482
-0.699987 0.0022103 0.811588
-1.13316 0.918534 -0.631563
-0.74883 1.44191 -0.627136
-1.09936 1.02036 0.753532
-0.75003 1.5816 0.739953
0.715065 0.00248742 -0.652375
1.08308 0.192033 -0.654445
0.693415 0.00140676 0.808602
1.05636 0.198962 0.793399
0.764307 1.44042 -0.62523
1.13776 0.916407 -0.630636
0.72821 1.58007 0.740455
1.10339 1.0181 0.753414
-1.43417 -0.171031 -2.65454
-1.43292 -0.0482012 -3.21061
-1.07737 -0.199409 -3.22335
-1.43663 -0.150023 -1.36634
-1.43295 0.0304083 -2.08347
-1.07095 -0.132812 -2.09355
-1.41851 -0.166924 0.0854486
-1.44687 0.0224548 -0.644226
-1.07917 -0.167556 -0.644195
-1.35124 -0.139278 1.53777
-1.39718 0.0184988 0.803865
-1.05083 -0.179542 0.817971
-1.29472 -0.0768636 2.82912
-1.28761 0.0833824 2.24429
-0.97508 -0.100925 2.26802
-1.2883 -0.0216431 3.96048
-1.27146 0.140782 3.37995
-0.954016 -0.0444542 3.40177
-1.2864 0.192914 4.50781
-0.960357 0.00578022 4.52642
-1.4317 0.153238 -2.63954
-1.42701 0.390339 -3.1753
-1.07249 0.106019 -3.20274
-1.44319 0.202887 -1.36136
-1.43315 0.481507 -2.05211
-1.42554 0.207878 0.0741905
-1.47279 0.566092 -0.640069
-1.33355 0.241159 1.51038
-1.42087 0.611284 0.772589
-1.26436 0.301028 2.79512
-1.28714 0.652183 2.18607
-1.26956 0.355338 3.92728
-1.26963 0.705969 3.32244
-0.928767 0.333117 3.36649
-1.28637 0.759088 4.45639
-0.948115 0.382505 4.49367
-1.42846 0.718608 -2.58788
-1.42118 1.17665 -3.1329
-1.06335 0.657466 -3.14564
-1.46275 0.844713 -1.33082
-1.43114 1.27757 -2.01377
-1.46812 0.969499 0.0583298
-1.47353 1.45298 -0.633215
-1.37446 1.02231 1.44827
-1.45092 1.57147 0.738811
-1.29242 1.05712 2.71339
-1.36273 1.61711 2.12091
-1.28643 1.10972 3.85156
-1.33328 1.66224 3.24885
-0.947407 1.08214 3.28123
-1.32902 1.71093 4.38422
-0.959074 1.13689 4.42063
-1.42387 1.73561 -2.55879
-1.05541 1.6675 -3.11283
-1.44192 1.88584 -1.31617
-1.06202 1.78022 -1.99704
-1.45633 2.05495 0.047266
-1.08921 1.97635 -0.628788
-1.43919 2.16627 1.41145
-1.10159 2.13271 0.725231
-1.40358 2.22223 2.65637
-1.07652 2.20433 2.09469
-1.37587 2.26346 3.78151
-1.04556 2.24247 3.21312
-1.02489 2.28514 4.34555
-0.714146 -0.16119 -2.66236
-0.716935 -0.0451883 -3.21549
-0.0128707 -0.19578 -3.23138
-0.713497 -0.150344 -1.37141
-0.00502111 -0.126858 -2.10423
-0.711495 -0.180173 0.0883276
-0.00277061 -0.174073 -0.649108
-0.674671 -0.141189 1.54822
-0.0109168 -0.186534 0.819963
-0.634378 -0.0685154 2.84068
-0.017537 -0.0931867 2.27556
-0.626071 -0.0170309 3.96771
-0.611321 0.14788 3.38831
0.0104325 -0.0389914 3.40673
-0.622068 0.195372 4.51227
0.0242621 0.00825812 4.52884
-0.708833 0.373145 -3.17307
-0.0114027 0.105078 -3.20847
-0.607317 0.360283 3.93288
-0.606541 0.709288 3.32527
0.0242275 0.339157 3.37073
-0.620822 0.760303 4.4579
0.0316 0.384974 4.49547
-0.697573 1.14832 -3.12557
0.00145637 0.640813 -3.14268
-0.620046 1.10931 3.8503
-0.659696 1.66236 3.24549
0.0198275 1.08259 3.28023
-0.654944 1.71109 4.38195
0.0274088 1.13763 4.42002
-0.693564 1.71211 -2.55108
0.0305224 1.65517 -3.10961
-0.70931 1.87073 -1.30966
0.033362 1.76815 -1.9929
-0.734467 2.05411 0.0491767
0.0129162 1.97224 -0.626284
-0.738917 2.17076 1.40848
-0.022575 2.13483 0.724576
-0.718497 2.22456 2.65144
-0.0377437 2.20583 2.09189
-0.694594 2.26414 3.77715
-0.0234767 2.24293 3.21021
-0.00585345 2.28539 4.34318
0.696254 -0.161449 -2.67325
0.692662 -0.0455136 -3.22436
1.05095 -0.200002 -3.2358
0.705705 -0.150586 -1.38193
1.05722 -0.133286 -2.10908
0.697807 -0.180433 0.082527
1.07246 -0.168203 -0.655237
0.646217 -0.138532 1.5473
1.0366 -0.179758 0.813397
0.627274 -0.0636628 2.84161
0.954717 -0.0952058 2.26841
0.660766 -0.0137024 3.96786
0.645981 0.152285 3.38914
0.976715 -0.0394178 3.40199
0.67793 0.19786 4.51204
1.00811 0.00907846 4.52569
0.698886 0.372746 -3.17808
1.04945 0.105425 -3.21408
0.663145 0.363848 3.93332
0.650596 0.712454 3.32568
0.974937 0.338511 3.36717
0.679831 0.762298 4.45759
1.00915 0.385791 4.49315
0.729552 1.14767 -3.12672
1.06547 0.65664 -3.14899
0.667282 1.1109 3.84995
0.656047 1.66315 3.24495
0.984935 1.08431 3.28066
0.676499 1.71193 4.38125
1.01198 1.13889 4.41978
0.757448 1.71122 -2.55142
1.11261 1.66628 -3.11443
0.755588 1.86966 -1.30952
1.12279 1.7788 -1.99748
0.724808 2.05296 0.0491147
1.1129 1.97466 -0.629045
0.678599 2.1699 1.40799
1.0626 2.13113 0.724505
0.657277 2.2242 2.65066
1.01066 2.20346 2.09353
0.665264 2.26418 3.77624
1.0041 2.24228 3.21176
1.01541 2.28539 4.34405
1.41191 -0.171839 -2.67163
1.40773 -0.0490639 -3.22552
1.42397 -0.150903 -1.38238
1.41558 0.0296012 -2.10168
1.41125 -0.167528 0.0756324
1.44047 0.0213419 -0.657308
1.3451 -0.136431 1.53451
1.39955 0.0177978 0.798193
1.30416 -0.0709609 2.82879
1.29456 0.0896264 2.24427
1.32406 -0.0166369 3.95982
1.30567 0.146809 3.38002
1.33933 0.19701 4.5068
1.4114 0.152377 -2.65557
1.41603 0.389319 -3.18499
1.43208 0.201846 -1.37661
1.42658 0.480373 -2.06213
1.42877 0.206667 0.0652533
1.47238 0.564244 -0.647258
1.34901 0.243856 1.50795
1.42983 0.609403 0.769179
1.29608 0.307396 2.79549
1.30275 0.655796 2.18553
1.32095 0.360455 3.927
1.30928 0.710365 3.32215
1.3413 0.762384 4.45533
1.4312 0.717315 -2.59155
1.44853 1.17525 -3.1367
1.46688 0.842771 -1.33278
1.46063 1.27592 -2.01533
[...]
POINT_DATA 29498
VECTORS point_vectors float
-2.02307 -3.72847 7.2036
-0.202344 0.305792 1.2016
-0.519117 0.421212 1.01008
0.0201497 -0.106994 0.354165
1.72925 -4.07687 7.18439
0.148874 0.25935 0.875438
0.960891 0.485563 1.7229
-0.0181602 -0.108944 0.360384
0.000871755 0.00080264 0.0598797
0 0 0
0 0 0
0.00268106 0.00488614 0.0191339
-0.000248334 0.000349273 0.0141409
0.000178317 0.000376349 0.0525112
0 0 0
-0.00149169 0.00271408 0.0105393
-0.555588 -0.282816 19.825
-1.22689 -0.810683 20.4909
-0.376202 -0.459173 21.3883
0.165275 -0.0537101 21.5164
0.727345 0.43031 21.3224
0.906802 0.45183 20.9214
0.747529 0.314143 21.1647
-0.679537 -0.226814 19.7169
-1.81868 -0.712498 20.3982
-0.597221 -0.584744 21.4615
0.156886 -0.237608 21.6533
1.11885 0.280678 21.1935
1.27378 0.193911 20.7745
1.05642 0.150001 19.633
-0.776133 0.0593089 19.613
-2.12239 0.207685 20.2718
-1.30744 -0.293038 21.4063
-0.259402 -0.326618 21.7847
0.828391 -0.588161 21.479
0.954817 -0.649584 21.1882
0.95371 -0.443251 20.3306
-0.498909 0.361105 19.8864
-0.903333 0.680845 20.2863
-0.85117 0.534003 21.0425
-0.270084 0.0496117 21.463
0.155259 -0.287731 21.2999
0.27604 -0.386079 20.9804
0.186306 -0.345173 20.7379
-0.549617 -0.640147 19.2988
-1.57526 -3.17469 20.8301
-0.161337 -0.438838 21.676
0.125422 0.280875 21.1418
0.196821 1.10235 19.3928
0.486188 1.42513 18.094
0.847671 0.71417 15.8796
-0.674428 -0.517877 19.0107
0.800338 1.65782 8.81415
1.53942 0.821143 10.0592
-0.887374 0.0938361 18.6144
1.18785 -0.588347 8.83191
1.17759 -0.470483 15.2067
-0.411467 0.68025 19.5164
-0.861635 1.54844 20.0259
-0.99511 1.51378 21.1003
-0.29791 0.268207 21.8446
0.0711897 -0.439633 21.4221
0.165871 -0.510012 20.9332
0.00957717 -0.35911 20.6935
0.525931 -0.647688 19.2752
1.56127 -3.20558 20.8225
0.15153 -0.458446 21.6601
-0.114863 0.283249 21.0604
-0.137254 1.09743 19.0491
-0.530121 1.45424 18.1009
-0.853798 0.727835 16.5615
0.656072 -0.53576 18.9843
-0.976695 1.74005 9.73303
-1.51194 0.781156 11.0274
0.893059 0.0952243 18.6105
-1.31671 -0.596404 10.2838
-1.11027 -0.488442 16.5493
0.442698 0.652718 19.5529
0.902853 1.44802 20.0451
1.00421 1.46832 21.1067
0.296174 0.295422 21.8599
-0.050089 -0.447695 21.4402
-0.153273 -0.533142 20.9128
-0.0101976 -0.358387 20.7182
0.552422 -0.283157 19.8157
1.23358 -0.836425 20.4759
0.389469 -0.477538 21.3945
-0.160855 -0.0584316 21.5181
-0.732753 0.436438 21.3221
-0.89906 0.4048 20.9364
-0.743347 0.237342 21.107
0.674155 -0.223846 19.6992
1.85829 -0.737367 20.382
0.619798 -0.595527 21.4618
-0.157234 -0.228716 21.6486
-1.09955 0.251095 21.3126
-1.20052 0.119391 21.1864
-1.03147 0.0848703 20.4298
0.769763 0.0549065 19.6207
2.10484 0.194081 20.2865
1.30621 -0.289276 21.4078
0.247727 -0.330451 21.7852
-0.828699 -0.579169 21.4709
-0.900937 -0.617417 21.2083
-0.927784 -0.411943 20.4572
0.490147 0.336312 19.9052
0.885631 0.616364 20.3124
0.843609 0.515565 21.0406
0.276094 0.0493108 21.4785
-0.147854 -0.309604 21.3176
-0.27235 -0.400142 20.9611
-0.174709 -0.353572 20.7616
-0.749514 -0.0963895 1.0502
-0.000908973 -0.00376942 0.0430675
-0.0115926 -0.00371189 0.283402
-0.0183302 0.00488827 -0.0111524
0.000523564 0.0234146 0.107904
0.000545513 0.00286146 0.0801761
0.0129654 0.219867 0.602993
-0.139043 -0.0319083 0.413888
0.000658202 0.0291271 -0.0424729
0 0 0
0.95235 -0.120527 1.3109
0.00595908 -0.00411822 0.283008
0.0298773 0.00606624 -0.0196227
0.00310012 0.00509905 0.130582
0.24442 -0.0500695 0.707437
0 0 0
0 0 0
1.56267e-05 0.000110237 0.00599235
-9.07297e-05 0.000529946 0.0262765
-0.00110964 0.0121356 0.0736227
-1.36719e-05 0.000239168 0.028646
0.00594464 0.0187271 0.0835206
1.69404e-05 0.0382719 0.0968625
3.15241e-05 -0.00487052 0.0568257
0 0 0
-2.23412e-05 0.000178858 0.0105723
0.000977115 0.0110708 0.0700799
-0.00242051 0.00703166 0.0306467
-0.00210234 -0.0112731 0.140316
-0.000263385 0.00232568 0.0150513
0.00199767 0.00625082 0.0468615
0 0 0
0 0 0
-2.03621e-06 0.000242165 0.00376641
-0.0125019 0.0217158 0.0593814
0.00222575 0.170966 -0.126012
-1.03549e-05 0.000772813 0.00590349
1.02776e-05 0.00233947 0.0193962
1.33222e-05 0.000411353 -0.000790091
0 0 0
3.0712e-05 0.000503657 0.00441699
-0.00180334 0.00574237 0.0424521
-3.42951 -1.85218 20.2478
-2.40973 -4.96931 21.0982
-2.09704 -1.67845 17.8381
0.968444 1.43662 13.0174
-0.189839 1.16032 12.261
-0.4729 1.06513 5.44074
-4.09449 0.833589 19.9619
-2.88168 1.00197 16.7734
-2.08628 2.81845 19.7118
1.32914 -0.215105 15.9114
0.516024 -0.17769 5.18557
0.244118 -0.870242 21.0484
2.38009 -5.05365 21.0726
2.05202 -1.70394 17.798
3.49859 -1.94509 20.2039
0.260017 1.14173 11.7389
0.310582 1.16608 5.7563
-1.06118 1.39139 13.432
2.90538 0.998777 16.7961
2.14038 2.67265 19.7535
4.06168 0.796312 20.0178
-0.583458 -0.191569 5.74693
-0.240589 -0.879937 20.6867
-1.33688 -0.239459 16.1807
-0.237714 -0.764796 20.2512
-0.0315114 -0.115428 17.0968
0.326698 0.0519579 17.3923
0.176811 0.356558 15.6556
-2.23995 -0.812689 21.5486
-2.79143 2.30027 21.1147
-0.227916 -0.292806 20.0636
-0.598035 0.161098 22.3775
-0.0127162 -0.14588 17.0356
0.289704 -0.795122 20.2707
-0.162761 0.359159 15.6764
-0.333572 0.0525035 17.8064
2.79227 2.22945 21.1333
2.23142 -0.802092 21.5565
0.612888 0.172667 22.4202
0.215589 -0.314188 20.1041
-0.926387 -0.535865 19.9709
-0.624417 -0.25792 19.7783
-0.596701 -0.451878 19.5861
-0.847084 -0.717158 21.1858
-1.53427 -0.808818 20.4356
-1.62322 -1.67417 20.5268
-0.0815874 -0.255054 21.4608
-0.48883 -0.533224 21.4192
-0.23865 -0.532729 21.5664
0.463566 0.200148 21.5193
0.185357 -0.135165 21.5948
0.256557 0.0905084 21.5981
0.832081 0.465551 21.1346
0.927467 0.41696 21.2536
0.706514 0.893852 20.8658
0.873502 0.396396 20.6126
1.08162 0.333999 21.1189
0.958501 1.08061 20.6777
0.859532 0.269481 21.3546
0.781908 0.758164 20.5113
-1.255 -0.435639 19.7826
-0.747153 -0.115992 19.6295
-0.744809 -0.392794 19.4062
-1.25225 -0.740604 21.2831
-2.14367 -0.310753 20.3192
-0.196284 -0.430606 21.5924
-0.9656 -0.571865 21.4679
0.632808 0.0215473 21.6125
-0.0255569 -0.372772 21.7747
1.24388 0.269041 20.981
1.22019 -0.230895 21.1562
1.43774 0.243738 19.9784
1.28611 -0.280201 21.1782
1.31726 1.33377 16.0687
1.174 -0.420872 20.4978
1.30406 0.498819 14.8405
-1.45817 0.150014 19.6511
-0.674767 0.278583 19.7169
-0.919555 0.0705604 19.1902
-1.77473 -0.0521342 21.0667
-1.43827 0.677587 20.2368
-0.8078 -0.357098 21.6927
-1.2801 0.321788 21.2218
0.368075 -0.395257 21.7542
-0.358505 -0.0690707 21.6735
0.965957 -0.64294 21.1865
0.34998 -0.487833 21.3848
0.872506 -0.510449 21.0555
0.468751 -0.598332 20.8571
1.4397 -0.765542 18.6386
0.292881 -0.357447 20.8299
1.05564 -0.687835 19.6363
-0.712496 0.539724 20.0196
-0.51435 0.509821 19.694
-0.946494 0.655149 20.6934
-0.969274 1.05291 20.1694
-0.605132 0.297071 21.3973
-0.998894 0.899453 21.1166
-0.00374657 -0.15062 21.3763
-0.321421 0.151898 21.6305
0.221636 -0.361112 21.1211
0.139395 -0.380525 21.3243
0.201395 -0.317784 20.8698
0.231317 -0.508577 20.8876
0.0728099 -0.335785 20.6985
-1.16618 -1.65463 19.1313
-0.615204 -0.57944 19.1471
-0.00920479 -0.832106 19.0088
-0.506998 -1.23477 21.9173
0.0112681 -3.83877 21.5159
-0.00186124 -0.0814614 21.2785
-0.00293514 -0.44639 21.0483
0.22743 0.721398 20.1749
-0.00258487 0.182595 20.2517
0.313778 1.2199 18.9908
-0.00782813 0.652707 17.422
0.137048 1.46779 19.1667
0.578713 1.75422 14.3897
0.00742449 1.09104 16.5113
1.19355 0.767657 12.9694
-0.0515606 1.24246 15.4403
-0.839002 -0.197998 18.6852
-0.0167116 -0.742282 18.5541
1.49557 1.41849 9.81818
1.9645 0.35343 5.37086
0.0402971 0.342717 0.560636
1.6198 0.254444 10.8027
-0.112359 1.05996 8.98675
-0.675904 0.642606 19.0211
-0.00776814 0.188716 17.8962
1.53323 -0.831299 11.1425
0.371652 -0.996756 20.3849
-0.039725 -0.491112 0.591922
0.328181 -0.805051 19.9764
-0.030033 -1.57523 5.57147
-0.65582 1.18965 19.6171
0.0131799 0.844954 19.3245
-0.977208 1.56574 20.5359
0.0572883 2.07064 19.8819
-0.698759 0.978682 21.7096
0.0292569 2.22432 21.05
-0.0329916 -0.219471 21.6238
-0.00450624 0.476121 22.0099
0.133801 -0.545173 21.2958
0.00951272 -0.472126 21.4399
0.168876 -0.737007 20.5106
0.00974772 -0.719269 20.8706
-0.00142139 -0.671572 20.5439
1.14713 -1.67354 19.108
0.595105 -0.595236 19.1194
0.590167 -0.451706 19.5766
0.508843 -1.24833 21.9436
1.63466 -1.69961 20.5048
0.000186503 -0.0838895 21.2251
0.25036 -0.55439 21.5619
-0.192618 0.735776 20.0986
-0.251086 0.103437 21.5885
-0.291807 1.23572 18.907
-0.691798 0.936356 20.8433
-0.179779 1.40404 19.4301
-0.68987 1.8244 14.9952
-0.993823 1.06431 20.8965
-1.19372 0.779676 13.7839
-0.777689 0.761961 21.13
0.829468 -0.195098 18.6609
0.741082 -0.393095 19.3819
-1.62187 1.33007 10.2351
-2.12088 0.387118 6.56284
-1.35689 1.16009 16.7578
-1.57748 0.213603 12.0304
-1.2717 0.433013 15.7286
0.698371 0.620757 19.061
0.914383 0.0680425 19.1951
-1.46908 -0.833225 12.5597
-0.355414 -1.00026 20.3876
-1.39049 -0.775123 19.1328
-0.320394 -0.799935 19.945
-1.05072 -0.655518 19.7103
0.703246 1.12317 19.6605
0.520944 0.491247 19.7197
1.01101 1.50777 20.541
0.968296 0.990774 20.186
0.695267 0.991332 21.7158
1.00059 0.875716 21.1167
0.051424 -0.219825 21.6283
0.329405 0.16103 21.6487
-0.120048 -0.552198 21.2673
-0.124524 -0.396982 21.3406
-0.163431 -0.712893 20.5119
-0.229111 -0.505269 20.8904
-0.0678782 -0.332966 20.7057
0.916332 -0.546273 19.9599
0.617371 -0.255237 19.7643
0.850138 -0.737858 21.1841
1.54824 -0.829708 20.4286
0.0893074 -0.266141 21.4631
0.503003 -0.547474 21.4234
-0.464182 0.199627 21.5156
-0.182883 -0.133174 21.5893
-0.825873 0.458591 21.1359
-0.927421 0.402774 21.271
-0.890772 0.365816 20.5007
-1.06446 0.271916 21.1482
-0.864633 0.181135 21.2963
1.26998 -0.450676 19.748
0.747023 -0.119029 19.6235
1.26166 -0.750408 21.2688
2.16177 -0.317243 20.3185
0.203218 -0.429257 21.5923
0.981345 -0.572884 21.4704
-0.622136 0.0179238 21.6142
0.0160755 -0.36916 21.7783
-1.21666 0.227018 21.1389
-1.20055 -0.232091 21.1892
-1.36588 0.163236 19.9997
-1.25138 -0.304333 21.3274
-1.15264 -0.382233 20.652
1.45003 0.143784 19.6588
0.665781 0.262336 19.7411
1.75999 -0.0628607 21.0585
1.40675 0.625311 20.2551
0.798255 -0.357693 21.6981
1.27021 0.309758 21.2164
-0.371249 -0.395873 21.7497
0.360432 -0.0733607 21.6928
-0.958146 -0.624318 21.2024
-0.352802 -0.505462 21.3848
-0.816766 -0.499811 21.0245
-0.476687 -0.604107 20.8689
-0.293938 -0.350034 20.833
0.698725 0.496766 20.0383
0.925235 0.613862 20.7015
0.615054 0.298951 21.4011
0.00194345 -0.15946 21.4072
-0.208772 -0.370085 21.1171
-0.173618 -0.327991 20.8803
-1.07934 -0.50743 19.8756
-1.60747 -1.80084 18.5756
-1.20036 -1.0243 19.6192
-1.7714 -0.891538 19.114
-0.703063 -0.443552 19.4917
-2.34411 -1.91656 20.4228
-1.0527 -0.748388 21.2341
-0.318391 -0.826478 18.8411
-0.782422 -1.09523 21.5178
-1.44382 -1.5132 21.8662
-0.20763 -0.645351 21.4778
-0.126035 -0.346663 21.5245
0.103533 0.0916641 15.6682
0.0320324 -0.225406 21.5747
0.083293 -0.281482 18.3204
0.370449 0.072223 20.6254
0.554011 0.138507 21.5932
0.161516 0.702496 13.38
0.50971 0.509836 21.3414
0.482262 0.763676 14.2819
0.870603 1.20426 18.2344
1.03278 0.375586 21.0938
-0.0356237 1.32628 12.9693
0.797064 0.996468 20.6502
1.18737 1.27652 14.6628
1.05989 1.39363 17.8333
1.16802 0.281273 20.2658
0.582343 1.45578 14.6594
0.711212 0.860433 21.1462
1.39245 0.892438 17.6643
1.05843 0.661805 17.6616
-1.44017 -0.205448 19.6676
-2.76799 -0.631036 16.9375
-2.20871 0.368183 18.8187
-0.885952 -0.144795 19.2209
-4.43937 -0.59562 20.0144
-1.61487 -0.473706 21.2377
-2.90671 -0.152007 21.5031
-0.813539 -1.17362 20.2718
-0.47987 -0.516175 21.702
-1.27566 -0.785927 20.7852
0.112567 0.109216 17.0035
0.603748 -0.250721 21.6009
0.842089 0.0913159 18.1074
1.36325 0.587497 11.0264
1.31353 -0.204623 20.7805
0.319155 0.652614 2.20233
1.33856 -0.479042 17.3745
2.19063 0.257587 13.9208
1.26448 -0.303203 20.4913
1.9734 0.270028 8.0224
1.35062 -0.846351 19.1318
1.41899 -0.0733993 15.7303
-1.0967 0.519802 19.821
-1.41492 1.68732 18.7612
-0.789106 0.831216 19.8095
-0.738087 0.448807 19.3973
-1.95004 1.40407 20.0044
-1.44946 0.530199 20.7897
-2.16257 2.15142 20.4827
-1.05801 1.05075 20.6366
-1.95721 0.810942 21.3014
-0.879657 0.119178 21.577
-2.07415 1.31536 22.4312
-0.717445 0.585264 21.5533
-0.499574 -0.00442847 22.0108
0.0994313 -0.304862 21.6057
0.0781338 -0.602303 21.7444
-0.0236212 -0.189236 21.5035
0.332178 -0.685359 21.5091
0.43851 -0.554386 21.2105
0.258864 -0.954609 21.035
0.193427 -0.464605 21.1673
0.415591 -0.800547 21.3174
0.633389 -0.475911 20.7204
0.350665 -0.990133 19.9313
0.152502 -0.43227 20.9148
0.308091 -0.594032 20.3583
1.57133 -1.79706 18.5323
-0.0148183 -2.55649 18.5614
-0.0561897 -3.23361 15.7898
-0.0120139 -0.858416 18.7167
0.0215551 -4.45031 22.6313
0.336698 -0.84358 18.7446
0.00397562 -1.26551 22.1701
-0.0264619 -0.105576 14.3547
-0.108442 0.0896053 15.6106
-0.00369502 -0.130145 20.4669
-0.0123261 0.191021 13.0842
-0.142474 0.691505 13.1521
-0.00488799 0.562977 18.7279
-0.0139699 0.394452 8.77746
0.02418 1.36633 12.9484
-0.00306652 0.562122 16.7009
0.0284865 -1.43844 -1.6035
0.0409082 1.16043 8.60395
-0.681535 1.37276 14.9106
-0.0013314 1.58623 16.2649
0.0217809 -0.605147 0.81458
-0.0964278 1.1585 12.2329
2.75943 -0.63527 16.8977
0.00185003 2.49951 13.763
-4.97032e-05 -0.283665 18.0375
-0.404748 0.674945 2.49463
0.0164275 0.218628 -0.415142
-0.122667 -0.549794 -3.90313
-2.01486 0.303088 9.02589
-0.0491462 -1.40041 3.229
-0.111257 -0.464314 4.0531
1.44891 1.59724 18.8078
0.0356924 1.55185 19.3865
0.0156392 0.87799 18.6131
0.0772933 4.13131 19.4131
2.18971 2.08217 20.4965
0.0385952 2.16337 20.378
0.0393083 4.57398 20.452
2.09048 1.32452 22.4263
-0.00172541 1.53888 21.917
-0.0130641 0.562788 22.1229
-0.0864848 -0.617536 21.5878
1.2411e-05 -0.196001 21.6871
0.00102107 -0.752385 18.7829
-0.25209 -0.954449 20.8221
0.0103025 -0.599024 21.2871
0.00271614 -0.959746 19.3678
-0.347529 -0.989352 19.917
0.00323797 -0.424768 20.5085
-0.00439604 -0.991549 19.6537
1.08175 -0.521634 19.8588
1.19938 -1.02561 19.6005
1.75932 -0.908073 19.062
0.700078 -0.45153 19.4774
2.36916 -1.96726 20.3977
1.05435 -0.765067 21.2286
0.786669 -1.09596 21.4995
1.39987 -1.51366 21.7722
0.236702 -0.68235 21.494
0.133466 -0.353066 21.5288
-0.0264673 -0.228625 21.5822
-0.0693798 -0.3035 18.5356
-0.364467 0.0792652 20.6718
-0.549768 0.137872 21.5925
-0.495641 0.530703 21.3041
-0.533214 0.706194 15.0083
-0.873315 1.22851 18.0424
-1.03046 0.367828 21.1052
-0.802042 1.019 20.6435
-1.32128 1.23423 15.4421
-1.07641 1.27447 18.2702
-1.1858 0.255813 20.1457
-0.746737 0.826936 21.3735
-1.44947 0.806602 18.9965
-1.02595 0.600407 18.4281
1.44859 -0.202918 19.6546
2.20559 0.363392 18.8323
0.880842 -0.146108 19.2123
4.49641 -0.618964 20.0253
1.61241 -0.482666 21.2255
2.86165 -0.190562 21.4621
0.864273 -1.16883 20.3372
0.481433 -0.51239 21.711
1.25494 -0.782712 20.7779
-0.138384 0.0672567 17.2707
-0.598285 -0.246401 21.6288
-0.839949 0.0451363 18.2926
-1.39935 0.560496 11.5007
-1.27603 -0.237162 20.9562
-1.33938 -0.536091 18.0867
-2.09239 0.183568 14.8955
-1.18939 -0.345723 20.5237
-1.32191 -0.790687 19.4471
-1.38256 -0.140279 16.6216
1.07644 0.491297 19.8475
0.789212 0.790756 19.8459
0.744578 0.433509 19.4146
1.91399 1.31642 20.0346
1.43006 0.499006 20.7899
1.04923 0.997214 20.6459
1.94199 0.775802 21.303
0.884507 0.116719 21.5819
0.722272 0.59083 21.5631
0.51049 -0.00510559 22.0326
-0.0987547 -0.316242 21.6222
0.0286358 -0.196775 21.5215
-0.322297 -0.708503 21.5194
-0.438123 -0.57373 21.1903
-0.187756 -0.482826 21.1926
-0.40903 -0.802251 21.3138
-0.629003 -0.472337 20.6918
-0.155171 -0.450288 20.901
-0.299242 -0.580146 20.3806
-1.45892 -1.0456 19.4213
-0.995245 -1.32049 21.7306
0.0964829 -0.286628 20.933
0.648756 0.60519 19.3238
0.983145 1.24558 18.4592
1.01867 0.833073 18.5233
-2.19009 -0.316499 18.7988
-2.22209 -1.0469 21.7703
-0.191386 -0.57006 17.9984
0.688178 0.694524 14.4053
1.56907 0.481525 13.0336
1.71059 0.0965362 15.1547
-1.36877 0.946985 19.3823
-1.98968 1.10923 20.7369
-1.37927 0.420005 21.9112
0.0885556 -0.423334 21.8348
0.430611 -0.776626 21.2672
0.458717 -0.773937 20.8984
-0.0328591 -3.17708 17.5476
-0.0257877 -0.586822 15.9122
-0.0181274 0.0305204 13.1312
-0.00812211 0.46791 10.6175
0.0260998 -0.307364 7.53654
0.0337108 0.779412 8.34036
-0.0319791 -0.93074 13.8673
-0.00603355 -0.663399 -3.80256
-0.185821 -0.78431 0.707349
0.0418087 2.60237 18.0026
0.0502112 3.43176 20.0595
-0.00465689 3.12383 22.7025
0.00124873 -0.493987 20.0906
0.0015478 -0.836694 19.4705
-0.00198068 -1.1745 19.5524
1.46377 -1.05981 19.3909
0.9883 -1.31682 21.7006
-0.0873398 -0.296334 20.9607
-0.642392 0.607373 19.2743
-1.0322 1.21039 18.6315
-1.06421 0.76411 19.6304
2.18648 -0.324506 18.7719
2.1832 -1.07832 21.6918
0.202217 -0.555159 18.0872
-0.70636 0.671218 14.7974
-1.60368 0.41227 14.1826
-1.65707 0.021985 16.1464
1.36341 0.905649 19.4168
1.95936 1.04374 20.7431
1.38772 0.420281 21.9194
-0.0830093 -0.437576 21.8565
-0.417951 -0.787873 21.2839
-0.463372 -0.764361 20.948
-0.862021 -0.440231 1.35322
-0.00335183 -0.0136246 0.117935
-0.0213733 -0.0153124 0.526683
-0.0206716 0.0219718 0.00335875
-0.0563608 0.0384803 0.0773522
-0.0066542 0.00469492 0.0378624
-0.0569751 0.0113571 0.0854801
-0.027754 0.178109 0.377258
-0.296862 0.120318 1.16287
-0.0258231 0.0114129 -0.0115954
-0.00813187 -0.00606437 0.0156053
0.00674899 -0.00624546 0.104687
-0.000786054 -0.00775783 0.0452657
1.03045 -0.355522 1.28849
0.0139427 -0.00832037 0.256422
0.0354512 0.0216497 0.0443268
0.0228706 0.020797 0.00121657
0.0180671 0.0144679 0.0960695
0.0390237 0.119662 0.304985
0.192094 0.0149323 0.311793
0.275929 0.102995 1.05703
0.00860336 -0.00595965 0.0151019
0.0242678 0.0112043 -0.00972896
-0.00682607 -0.00665602 0.10834
0.00354541 -0.00923533 0.281887
0.000423289 0.000493714 0.0569793
0 0 0
0.000419842 0.000407266 0.0240283
0.00182703 0.0044205 0.0791775
7.76648e-05 2.64005e-05 0.00366751
0 0 0
0 0 0
-0.201492 -0.0604348 0.410724
-0.00331188 -0.00445369 0.109903
0 0 0
-0.0144344 0.0165108 0.043155
0 0 0
0.010174 0.0343273 0.13781
0.00694799 0.0167677 0.0623752
0.00701144 -0.00254607 0.0430823
-0.0186551 -0.0193775 0.389793
-0.000391052 0.000373651 0.0178155
-0.000446665 0.000382288 0.0574286
0 0 0
-0.0019915 0.00437749 0.0967518
0 0 0
-4.10945e-05 2.59948e-05 0.00392456
2.35296e-18 1.05939e-17 1.98155e-16
0.236211 -0.122282 0.573361
0.013351 0.0153261 0.040013
0.00292676 -0.00315996 0.0957664
0 0 0
0 0 0
-0.00817342 -0.00289615 0.0501491
-0.0105051 0.0350092 0.13913
-0.00622077 0.0148523 0.0559892
-0.00356093 -0.00281611 0.0211576
-0.206341 0.0677795 0.120473
0 0 0
0 0 0
0 0 0
0.000126888 -0.00018837 0.0127401
0.0155907 0.00603613 0.0666838
-0.175237 0.0689504 -0.0372728
0 0 0
3.41605e-19 -1.00686e-17 -3.23414e-18
2.22326e-18 5.80021e-18 4.78353e-17
-2.06958e-05 0.000144464 0.00219968
-0.000690193 0.875847 0.677527
5.85277e-20 5.75488e-18 3.28189e-17
-0.027753 -0.0557289 0.42713
-0.0228425 0.0146366 0.123564
0 0 0
3.63317e-05 0.000724412 -0.00612482
0.00657982 0.00519244 0.0577757
8.53915e-05 -0.000113928 0.00047853
0.204471 0.0759934 0.11418
0.0338128 -0.0196239 0.229167
-5.19542e-06 -2.14066e-06 0.000141878
0 0 0
0.146776 0.0562632 -0.0298855
-0.0111695 0.00424356 0.0512706
3.59367e-05 0.000224345 0.00344855
-0.0053956 0.0190371 0.158568
0.0203343 0.0125766 0.109259
0.0747142 -0.140803 0.75476
-8.38692e-05 -0.000113653 0.000477185
-0.00603881 0.00461656 0.0517439
0 0 0
0 0 0
0.00472616 -0.0278126 0.280145
-0.000237245 0.00263075 0.0220439
-1.5076e-05 -1.23688e-05 0.00280467
0 0 0
-0.00105604 0.00705345 0.0497196
0.000246591 0.0024003 0.0220092
-8.70748e-08 2.95356e-07 3.5387e-05
-5.32038e-06 0.00073258 0.00978262
0.00169769 0.00825751 0.0448354
-0.0173254 0.0280746 0.27697
-0.00026656 0.0121253 0.028825
-1.8469e-05 0.0647059 0.200221
-0.000312576 0.00504283 0.122685
2.28953e-05 -0.00340786 0.0168967
0 0 0
0 0 0
0 0 0
6.01465e-05 0.000477287 0.00868963
0.000270065 0.00410711 0.0289299
-0.000505618 0.00470002 0.0384467
0.01598 0.0293792 0.305757
-0.00230789 0.010819 0.0594394
-0.00166755 -0.000656628 0.00876699
-0.217616 -0.0472151 0.644629
-0.00493884 -0.000529385 0.06962