# vtk DataFile Version 2.0
tet_velo
ASCII
DATASET UNSTRUCTURED_GRID
POINTS 29498 float
-0.816468 0.285 -2.465
-0.795 0.325 2.58462
-0.865 0.66924 -2.345
-0.795 0.724595 2.535
0.816471 0.285 -2.465
0.795 0.325 2.58462
0.865 0.66924 -2.345
0.795 0.724596 2.535
-0.819913 0.287732 -0.781793
-0.859479 0.254344 0.901414
-0.862934 0.708959 -0.718333
-0.847107 0.734917 0.908334
0.819891 0.287756 -0.781793
0.859498 0.254326 0.901414
0.862927 0.708952 -0.718333
0.8471 0.73491 0.908334
-1.65472 0.0601303 -3.8168
-1.6564 0.0742405 -2.49288
-1.66205 0.0681027 -0.808213
-1.67997 0.045021 0.887834
-1.6513 0.0826501 2.57346
-1.63949 0.110076 3.90208
-1.64205 0.12622 5.222
-1.65831 0.264833 -3.77713
-1.66216 0.283254 -2.45938
-1.66653 0.288123 -0.785717
-1.68326 0.264597 0.893039
-1.63365 0.301042 2.56779
-1.62697 0.327499 3.89561
-1.63554 0.343293 5.21738
-1.67994 0.665525 -3.68191
-1.69955 0.682484 -2.36183
-1.69791 0.71453 -0.726708
-1.68131 0.725599 0.904409
-1.6319 0.725168 2.54062
-1.62657 0.74986 3.87077
-1.63582 0.770678 5.20166
-1.69283 1.29575 -3.5816
-1.70189 1.31723 -2.26999
-1.70305 1.35368 -0.653194
-1.69353 1.38233 0.951411
-1.67679 1.39453 2.56879
-1.666 1.40492 3.88164
-1.66185 1.41933 5.20635
-0.817023 0.0616609 -3.82045
-0.820659 0.0770324 -2.4982
-0.822236 0.0683758 -0.807499
-0.847994 0.0389304 0.894982
-0.827933 0.0947124 2.58596
-0.817286 0.119232 3.91055
-0.818776 0.131348 5.22691
-0.815465 0.264416 -3.77825
-0.805009 0.337333 3.9026
-0.813117 0.348383 5.22108
-0.832023 0.659757 -3.67492
-0.804708 0.752636 3.86965
-0.813273 0.773249 5.20142
-0.846625 1.29143 -3.57469
-0.8555 1.31294 -2.26237
-0.859032 1.35262 -0.648603
-0.856498 1.38454 0.95086
-0.847634 1.39598 2.56486
-0.839076 1.40559 3.87771
-0.83489 1.41998 5.2035
0.843655 0.0616628 -3.82045
0.824267 0.0770369 -2.4982
0.831598 0.068389 -0.8075
0.843788 0.0389211 0.894982
0.802486 0.0947081 2.58596
0.811487 0.119229 3.91055
0.820095 0.131345 5.22691
0.85005 0.264417 -3.77825
0.8115 0.337331 3.9026
0.82087 0.34838 5.22108
0.864502 0.659756 -3.67492
0.811337 0.752635 3.86965
0.820487 0.773246 5.20142
0.849462 1.29143 -3.57469
0.844444 1.31294 -2.26237
0.83685 1.35262 -0.648603
0.823666 1.38454 0.95086
0.811391 1.39597 2.56486
0.811927 1.40558 3.87771
0.815922 1.41997 5.2035
1.677 0.0601338 -3.8168
1.6604 0.0742482 -2.49288
1.66658 0.068117 -0.808213
1.67945 0.0450108 0.887834
1.64166 0.08264 2.57346
1.63717 0.110069 3.90208
1.64399 0.126213 5.222
1.68297 0.264834 -3.77713
1.66305 0.283258 -2.45938
1.66576 0.288139 -0.785718
1.68573 0.264584 0.893039
1.63801 0.301033 2.56779
1.63403 0.327493 3.89561
1.64288 0.343287 5.21738
1.70182 0.665524 -3.68191
1.69869 0.682482 -2.36183
1.69443 0.714528 -0.726708
1.68165 0.72559 0.904409
1.63593 0.725162 2.54062
1.63334 0.749855 3.87077
1.64226 0.770672 5.20166
1.69445 1.29575 -3.5816
1.69072 1.31723 -2.26999
1.68193 1.35368 -0.653195
1.66483 1.38232 0.951411
1.64628 1.39453 2.56879
1.64183 1.40492 3.88164
1.64381 1.41933 5.20635
-0.807066 0.47712 -2.37133
1.49012e-06 0.240065 -2.50994
-0.86038 0.244177 -1.6234
-0.799774 0.524797 2.56458
0 0.364143 2.54548
-0.827313 0.289599 1.74302
0 0.746368 -2.42213
-0.866358 0.691491 -1.53167
0 0.601335 2.41174
-0.834833 0.743535 1.72167
0.806917 0.47712 -2.37118
0.86035 0.244209 -1.6234
0.788656 0.524798 2.55347
0.82736 0.289552 1.74302
0.866341 0.691474 -1.53167
0.834828 0.743531 1.72167
-0.82029 0.290444 0.05981
-0.891008 0.498346 -0.750063
-1.08153e-05 0.201051 -0.781793
-0.895039 0.49463 0.904874
9.54774e-06 0.201625 0.901414
-0.854619 0.721536 0.095
-3.92427e-06 1.00136 -0.718333
-3.60619e-06 1.18992 0.908334
0.820255 0.290481 0.05981
0.891003 0.498354 -0.750063
0.895039 0.494618 0.904874
0.85461 0.721528 0.095
-0.878519 0.487733 -1.57753
-0.892879 0.496488 0.077405
-0.892346 0.509714 1.73234
-4.66258e-06 0.207916 -1.6234
-6.3377e-07 0.201124 0.05981
4.77387e-06 0.252616 1.74302
7.45058e-07 0.47712 -2.38805
0 0.524798 2.39211
-1.96213e-06 0.787774 -1.53167
-3.76523e-06 1.21241 0.095
-1.80309e-06 0.831552 1.72167
0.878522 0.487737 -1.57753
0.892875 0.496486 0.077405
0.892342 0.509708 1.73234
-1.23931 0.284127 -2.46219
-0.818564 0.181016 -2.4816
-0.815966 0.274708 -3.12163
-1.21432 0.313021 2.5762
-0.811466 0.209856 2.58529
-0.800004 0.331166 3.24361
-1.28227 0.675862 -2.35342
-0.848511 0.664498 -3.00996
-0.86025 0.991092 -2.30368
-1.21345 0.724882 2.53781
-0.799854 0.738616 3.20232
-0.821317 1.06029 2.54993
0.820369 0.181018 -2.4816
0.833261 0.274708 -3.12163
1.23976 0.284129 -2.46219
0.798743 0.209854 2.58529
0.80325 0.331165 3.24361
1.2165 0.313016 2.5762
0.864751 0.664498 -3.00996
0.854722 0.991091 -2.30368
1.28185 0.675861 -2.35342
0.803169 0.738615 3.20232
0.803195 1.06028 2.54993
1.21547 0.724879 2.53781
-1.24322 0.287928 -0.783755
-0.821074 0.178054 -0.794646
-1.27137 0.259471 0.897226
-0.853736 0.146637 0.898198
-1.28042 0.711745 -0.722521
-0.860983 1.03079 -0.683468
-1.26421 0.730258 0.906371
-0.851802 1.05973 0.929597
0.825745 0.178072 -0.794647
1.24283 0.287948 -0.783755
0.851643 0.146624 0.898198
1.27261 0.259455 0.897226
0.849888 1.03078 -0.683468
1.27868 0.71174 -0.722521
0.835383 1.05972 0.929597
1.26437 0.73025 0.906371
-1.65556 0.0671854 -3.15484
-1.65651 0.162481 -3.79697
-1.23587 0.0608956 -3.81863
-1.65923 0.0711716 -1.65055
-1.65928 0.178747 -2.47613
-1.23853 0.0756364 -2.49554
-1.67101 0.0565618 0.0398105
-1.66429 0.178113 -0.796965
-1.24214 0.0682392 -0.807856
-1.66564 0.0638356 1.73065
-1.68162 0.154809 0.890437
-1.26398 0.0419757 0.891408
-1.6454 0.0963631 3.23777
-1.64248 0.191846 2.57063
-1.23962 0.0886813 2.57971
-1.64077 0.118148 4.56204
-1.63323 0.218787 3.89884
-1.22839 0.114654 3.90631
-1.6388 0.234756 5.21969
-1.23041 0.128784 5.22445
-1.66023 0.274044 -3.11826
-1.66912 0.465179 -3.72952
-1.23689 0.264624 -3.77769
-1.66434 0.285689 -1.62255
-1.68085 0.482869 -2.41061
-1.6749 0.27636 0.0536608
-1.68222 0.501327 -0.756213
-1.65846 0.282819 1.73041
-1.68229 0.495098 0.898724
-1.63031 0.31427 3.2317
-1.63277 0.513105 2.5542
-1.63126 0.335396 4.55649
-1.62677 0.538679 3.88319
-1.21599 0.332416 3.8991
-1.63568 0.556985 5.20952
-1.22433 0.345838 5.21923
-1.68974 0.674004 -3.02187
-1.68639 0.980637 -3.63176
-1.25598 0.662641 -3.67842
-1.69873 0.698507 -1.54427
-1.70072 0.999857 -2.31591
-1.68961 0.720065 0.0888508
-1.70048 1.03411 -0.689951
-1.65661 0.725384 1.72251
-1.68742 1.05396 0.92791
-1.62924 0.737514 3.20569
-1.65434 1.05985 2.5547
-1.63119 0.760269 4.53621
-1.64629 1.07739 3.87621
-1.21564 0.751248 3.87021
-1.64884 1.09501 5.20401
-1.22455 0.771963 5.20154
-1.69736 1.30649 -2.92579
-1.26973 1.29359 -3.57814
-1.70247 1.33546 -1.46159
-1.2787 1.31509 -2.26618
-1.69829 1.36801 0.149109
-1.28104 1.35315 -0.650898
-1.68516 1.38843 1.7601
-1.27502 1.38344 0.951136
-1.67139 1.39973 3.22522
-1.26221 1.39526 2.56683
-1.66393 1.41213 4.544
-1.25254 1.40526 3.87968
-1.24837 1.41965 5.20493
-0.818841 0.0693467 -3.15933
-0.816244 0.163039 -3.79935
0.0133163 0.0616618 -3.82045
-0.821448 0.0727041 -1.65285
0.00180393 0.0770346 -2.4982
-0.835115 0.0536531 0.0437412
0.00468114 0.0683824 -0.8075
-0.837963 0.0668214 1.74047
-0.00210303 0.0389257 0.894982
-0.822609 0.106972 3.24826
-0.0127234 0.0947103 2.58596
-0.818031 0.12529 4.56873
-0.811147 0.228282 3.90658
-0.00289919 0.11923 3.91055
-0.815946 0.239865 5.22399
0.000659375 0.131346 5.22691
-0.823744 0.462086 -3.72659
0.0172926 0.264416 -3.77825
-0.809063 0.342858 4.56184
-0.804858 0.544985 3.88612
0.00324576 0.337332 3.9026
-0.813195 0.560816 5.21125
0.00387656 0.348381 5.22108
-0.839324 0.975593 -3.6248
0.0162398 0.659756 -3.67492
-0.80899 0.762942 4.53553
-0.821892 1.07911 3.87368
0.00331482 0.752635 3.86965
-0.824081 1.09661 5.20246
0.0036072 0.773247 5.20142
-0.851063 1.30219 -2.91853
0.00141831 1.29143 -3.57469
-0.857266 1.33278 -1.45549
-0.00552815 1.31294 -2.26237
-0.857765 1.36858 0.151129
-0.0110911 1.35262 -0.648603
-0.852066 1.39026 1.75786
-0.016416 1.38454 0.95086
-0.843355 1.40078 3.22129
-0.0181216 1.39597 2.56486
-0.836983 1.41278 4.54061
-0.0135743 1.40559 3.87771
-0.00948377 1.41997 5.2035
0.833961 0.0693498 -3.15933
0.846853 0.16304 -3.79935
1.26033 0.0608983 -3.81863
0.827933 0.0727129 -1.65285
1.24234 0.0756425 -2.49554
0.837693 0.053655 0.0437412
1.24909 0.068253 -0.807856
0.823137 0.0668146 1.74047
1.26162 0.0419659 0.891408
0.806987 0.106969 3.24826
1.22208 0.0886741 2.57971
0.815791 0.125287 4.56873
0.811494 0.22828 3.90658
1.22433 0.114649 3.90631
0.820482 0.239862 5.22399
1.23204 0.128779 5.22446
0.857276 0.462087 -3.72659
1.26651 0.264626 -3.77769
0.816185 0.342855 4.56184
0.811419 0.544983 3.88612
1.22277 0.332412 3.8991
0.820679 0.560813 5.21125
1.23188 0.345833 5.21923
0.856982 0.975592 -3.6248
1.28316 0.66264 -3.67842
0.815912 0.762941 4.53553
0.811632 1.07911 3.87368
1.22234 0.751245 3.87021
0.818205 1.09661 5.20246
1.23137 0.771959 5.20154
0.846953 1.30219 -2.91853
1.27195 1.29359 -3.57814
0.840647 1.33278 -1.45549
1.26758 1.31508 -2.26618
0.830258 1.36858 0.151129
1.25939 1.35315 -0.650899
0.817528 1.39025 1.75786
1.24425 1.38343 0.951135
0.811659 1.40078 3.22129
1.22883 1.39525 2.56683
0.813925 1.41278 4.54061
1.22688 1.40525 3.87968
1.22987 1.41965 5.20493
1.6687 0.067191 -3.15484
1.67998 0.162484 -3.79697
1.66349 0.0711826 -1.65055
1.66173 0.178753 -2.47613
1.67301 0.0565639 0.0398104
1.66617 0.178128 -0.796965
1.66056 0.0638254 1.73065
1.68259 0.154797 0.890437
1.63941 0.0963545 3.23777
1.63984 0.191836 2.57062
1.64058 0.118141 4.56204
1.6356 0.218781 3.89884
1.64344 0.23475 5.21969
1.67301 0.274046 -3.11826
1.6924 0.465179 -3.72952
1.66441 0.285699 -1.62255
1.68087 0.48287 -2.41061
1.67574 0.276362 0.0536607
1.68009 0.501334 -0.756213
1.66187 0.282808 1.73041
1.68369 0.495087 0.898724
1.63602 0.314263 3.2317
1.63697 0.513097 2.5542
1.63846 0.33539 4.55649
1.63368 0.538674 3.88319
1.64257 0.556979 5.20952
1.70026 0.674003 -3.02187
1.69814 0.980635 -3.63176
1.69656 0.698505 -1.54427
1.69471 0.999854 -2.31591
1.68804 0.720059 0.0888507
1.68818 1.0341 -0.689951
[...]
POINT_DATA 29498
VECTORS point_vectors float
-3.67239 -2.93223 6.31315
0.129006 0.68668 2.77095
-3.11629 1.57593 4.27187
-0.221696 -0.420007 2.2676
3.69922 -2.95292 6.33864
-0.207186 0.714775 3.01331
3.11383 1.57561 4.27175
0.201931 -0.45 2.26792
0.0125007 -0.0121713 0.220104
-0.168177 -0.195199 1.54216
-0.0151506 -0.0255784 0.321632
0 0 0
-0.0123798 -0.0121154 0.218696
0.168762 -0.195827 1.54594
0.0150776 -0.0255242 0.320629
-1.16133e-17 1.85482e-17 8.01914e-17
-0.411418 -0.0987739 19.867
-1.10192 -0.407697 20.3278
-0.433399 -0.301177 21.1289
0.0899545 -0.0429866 21.3293
0.5934 0.177365 21.1597
0.724158 0.174345 20.8301
0.793947 0.0458778 20.4823
-0.440426 -0.0530105 19.8248
-1.28651 -0.287936 20.3173
-0.515655 -0.344838 21.1442
0.108029 -0.0898568 21.3733
0.705466 0.0608057 21.1948
0.801442 0.0067274 20.7538
0.56361 -0.0822407 20.9941
-0.496301 0.0383914 19.8214
-1.31588 0.0410481 20.3765
-0.762258 -0.268696 21.1349
0.0320904 -0.194303 21.4431
0.710432 -0.184767 21.2302
0.950329 -0.179304 20.9135
0.495996 -0.220635 20.6945
-0.441642 0.212577 19.914
-0.935881 0.423555 20.3805
-0.78618 0.173092 21.0713
-0.0892039 -0.106395 21.3747
0.384061 -0.335945 21.082
0.520099 -0.338966 20.81
0.3673 -0.35724 20.4623
-0.384417 -0.206434 19.4482
-3.16768 -4.00228 20.0699
0.140211 -0.179793 15.9743
0.400782 0.0689217 16.8699
0.763651 1.05028 16.1135
1.03578 1.16692 16.1017
0.647117 0.808134 17.3753
-0.445439 -0.141509 19.3365
1.35457 1.14159 13.5544
0.910674 0.487674 15.2526
-0.543425 0.103024 19.2144
1.94206 -0.255546 10.5063
0.852882 -0.129619 14.6372
-0.453846 0.488425 19.46
-1.50836 1.88349 20.2133
-2.20158 1.59962 21.2156
-0.19275 -0.0996449 21.49
0.448687 -0.791415 20.4915
0.548907 -0.921754 19.8112
0.329356 -0.540255 20.0273
0.395491 -0.206869 19.4609
3.17755 -3.96813 20.0659
-0.116707 -0.171924 16.2829
-0.40131 0.0699826 16.7994
-0.69916 1.05798 15.525
-0.970849 1.14415 16.1068
-0.687578 0.7645 17.3445
0.4505 -0.136053 19.3581
-1.46315 1.00854 13.3316
-1.08527 0.390216 15.6378
0.545864 0.103879 19.2466
-1.85554 -0.2797 11.2463
-0.711192 -0.154048 14.9874
0.454098 0.487293 19.4605
1.5064 1.91437 20.2091
2.23357 1.70599 21.2096
0.175368 -0.102551 21.3364
-0.465026 -0.788702 20.1327
-0.638884 -0.922376 19.9184
-0.23045 -0.493216 20.1768
0.407753 -0.091411 19.876
1.10171 -0.403073 20.3363
0.434741 -0.30197 21.1287
-0.0888627 -0.0429299 21.3271
-0.597813 0.179395 21.1648
-0.64124 0.170933 20.82
-0.805928 0.05115 20.3695
0.438811 -0.0449059 19.8427
1.28436 -0.28306 20.3171
0.518087 -0.345557 21.1468
-0.108836 -0.0876752 21.3779
-0.704886 0.0559288 21.1947
-0.788819 0.0320922 20.6916
-0.789144 -0.133396 20.533
0.491498 0.0374204 19.8308
1.31559 0.0368989 20.38
0.763076 -0.27237 21.136
-0.031604 -0.195074 21.4394
-0.709418 -0.186229 21.2294
-0.809351 -0.20707 20.7329
-0.774936 -0.213531 20.5172
0.440837 0.213577 19.9132
0.947124 0.432803 20.3803
0.811829 0.175147 21.0806
0.091373 -0.112084 21.3851
-0.396386 -0.348878 21.0857
-0.48382 -0.389838 20.6667
-0.265347 -0.323456 20.5483
0 0 0
0.0023942 -2.02421 3.35056
0.0269021 -0.128452 2.21006
-0.183307 -0.125558 0.308317
-0.00158328 -0.00670484 0.0303034
0.011422 0.0947011 0.591275
0.00235878 2.83418 3.89198
-0.171446 -0.179363 1.26497
-0.00274221 0.0592272 -0.0338913
0.206075 0.125381 0.660504
0 0 0
-0.0246661 -0.127454 2.20073
0.165384 -0.0765873 0.182396
-0.011014 0.0952187 0.591865
0.171133 -0.179049 1.26359
-0.205961 0.125336 0.661869
-0.00203195 0.00367525 0.140976
0 0 0
1.92809e-08 7.44193e-09 -8.40432e-06
0 0 0
1.3976e-06 0.00102045 0.0291912
0.00481973 0.0122495 0.0433011
3.48554e-05 0.0368627 0.0953088
2.42428e-05 -0.00218719 0.0384696
0.00200714 0.00357986 0.137741
0 0 0
0 0 0
-0.00479614 0.0121939 0.0431483
0 0 0
0 0 0
0 0 0
0 0 0
-1.0059e-08 -1.36964e-08 4.45129e-05
0 0 0
0 0 0
0 0 0
-3.73024e-06 0.000174603 0.00710772
-2.24085e-07 0.0005372 0.026911
2.35734e-08 2.36887e-06 -2.32072e-05
0 0 0
0 0 0
0 0 0
-2.60959 -0.880929 20.2392
-4.98349 -5.90397 20.1468
-1.34532 -0.648207 18.3321
1.20217 0.416537 20.316
0.622158 1.05259 10.6614
1.13706 1.02898 10.2497
-2.71266 0.261968 20.3976
-1.76852 0.509847 18.0296
-3.03744 2.98246 20.3312
1.22009 -0.172486 19.7163
1.32847 -0.167995 8.13403
1.19093 -0.2798 13.8809
4.98379 -5.85211 20.1369
1.35434 -0.627477 18.3806
2.60773 -0.882009 20.2353
-0.540314 1.08838 10.2114
-1.15056 1.04974 10.4398
-1.20885 0.414816 20.3324
1.78007 0.50568 18.0893
3.03561 3.02238 20.3321
2.71446 0.260006 20.3984
-1.33951 -0.148145 8.35209
-1.19788 -0.259193 13.3444
-1.22083 -0.182909 19.7503
-0.359788 -0.712749 21.1125
0.474411 -0.304716 8.09197
0.265754 -0.0411307 21.1374
0.631134 -0.382552 12.1462
-1.28417 -0.702994 21.2654
-3.89869 0.575446 17.0706
0.160017 -0.340605 20.6182
0.703364 0.852368 11.3356
-0.47313 -0.302191 8.32712
0.359579 -0.714062 21.1072
-0.640949 -0.383065 12.0577
-0.265078 -0.0441898 21.1525
3.99296 0.582333 16.67
1.28536 -0.706563 21.2637
-0.758902 0.924079 10.4159
-0.160413 -0.340502 20.6235
-0.765864 -0.239846 19.9172
-0.42712 -0.0821213 19.8482
-0.43237 -0.149895 19.6773
-0.768732 -0.34408 20.9219
-1.18444 -0.355691 20.3263
-1.96675 -1.1019 20.2942
-0.146144 -0.183491 21.2671
-0.463082 -0.320614 21.139
-0.296018 -0.413049 21.3183
0.342827 0.0769817 21.2897
0.0948021 -0.0563027 21.3371
0.198762 0.0594651 21.3921
0.695388 0.201461 20.9467
0.655031 0.126042 21.1758
0.90218 0.520261 21.0168
0.524719 0.00496096 20.6029
0.809384 0.0806713 20.8247
1.10269 0.401246 20.5664
0.678778 -0.0181814 20.7382
0.633618 0.523614 20.7178
-0.847467 -0.159093 19.8734
-0.478721 -0.00335803 19.8178
-0.490471 -0.100507 19.5964
-0.876782 -0.325401 20.9401
-1.31476 -0.105836 20.33
-0.182212 -0.239892 21.3132
-0.647074 -0.3219 21.1395
0.414905 0.0152378 21.342
0.0787149 -0.151295 21.4167
0.806233 0.0774764 20.9321
0.737216 -0.063855 21.2259
0.811301 -0.0649935 21.0644
0.790635 -0.0559725 20.7176
1.36 0.3075 20.0384
0.502614 -0.163559 21.171
0.525878 0.280851 20.7176
-0.933176 0.0638488 19.8898
-0.4791 0.149386 19.847
-0.576846 0.0683132 19.5563
-1.01449 -0.133967 20.8938
-1.15678 0.286621 20.3861
-0.379309 -0.268496 21.3726
-0.841802 -0.051315 21.1131
0.402174 -0.16879 21.3787
-0.0492057 -0.175761 21.4147
0.780307 -0.20123 20.9488
0.549704 -0.305441 21.1535
0.822243 -0.201511 21.0993
0.656791 -0.322519 20.7725
1.38385 -0.280021 19.6868
0.504769 -0.306524 20.0572
0.468174 -0.341076 20.1925
-0.718216 0.351115 20.0265
-0.508281 0.337413 19.7099
-0.892453 0.302953 20.7589
-1.32963 0.86764 20.3168
-0.467306 0.0435111 21.326
-1.36796 0.46498 21.1786
0.207636 -0.224742 21.2693
-0.176405 -0.132879 21.6209
0.445044 -0.388325 21.0739
0.463312 -0.535753 21.184
0.345243 -0.286088 20.6009
0.441823 -0.615876 20.8837
0.403401 -0.50065 20.129
-1.06525 -0.86357 18.832
-0.414183 -0.181881 19.3949
0.00475819 -0.342666 19.1582
-0.770628 -0.51491 18.8645
0.017205 -6.7346 20.8714
0.200385 -0.0080743 16.2394
0.000250497 -0.0963066 10.9792
0.521304 0.548573 16.2822
-0.000455887 0.0869118 11.2091
0.977517 1.25044 16.9685
-0.00791119 0.551275 9.79575
0.96157 0.649718 17.0885
1.23078 1.20396 14.1865
-0.0132825 1.06796 10.4489
0.921935 0.644794 15.4741
0.0223241 0.505583 12.8436
-0.501714 -0.0248742 19.2651
0.00964227 -0.20983 19.0221
1.46298 0.452438 12.3428
1.67331 0.434532 11.9466
-0.0253948 0.403113 2.77982
0.881778 0.179027 14.9449
0.0175005 0.163631 11.488
-0.510328 0.330332 19.3185
0.0103235 0.139752 18.8083
1.41314 -0.105227 12.5971
1.18503 -0.771901 16.5026
0.108427 -0.638621 -0.207428
0.391832 -0.562525 18.0103
0.0256249 -0.510103 8.86419
-0.987642 1.23675 19.349
0.00155436 0.627039 19.1916
-1.53976 1.32988 20.6818
-0.0105015 3.14337 20.2041
-1.18119 0.560937 22.0311
-0.0457536 4.72958 20.2119
0.308484 -0.583285 20.7356
0.00126878 -0.25305 15.683
0.577293 -0.960801 20.5434
0.00429836 -0.704345 15.5873
0.404143 -0.681934 20.8461
0.131371 -0.86506 17.7015
0.0331019 -0.596303 14.0577
1.07516 -0.848316 18.8573
0.426826 -0.18292 19.4059
0.430157 -0.144717 19.6914
0.793915 -0.511838 19.0608
1.956 -1.09183 20.2879
-0.196891 -0.00590187 16.2773
0.304571 -0.418818 21.3099
-0.50835 0.542016 15.9398
-0.195375 0.0596766 21.3849
-0.924999 1.25701 16.6588
-0.917893 0.551055 20.9445
-0.845068 0.676653 16.1763
-1.22605 1.16429 14.1075
-0.985591 0.523275 20.8642
-0.905519 0.620229 15.7639
-0.582828 0.55406 20.8653
0.505184 -0.02444 19.2971
0.491052 -0.0971699 19.619
-1.2222 0.551914 13.5572
-1.69564 0.350636 12.2179
-1.3585 0.341705 19.9501
-1.23319 0.00934108 15.3326
-0.806209 0.195684 20.7688
0.514591 0.327104 19.3314
0.575053 0.0665594 19.583
-1.37458 -0.174914 12.7395
-1.20812 -0.751941 16.4204
-1.33758 -0.323644 19.8721
-0.125966 -0.502267 18.2387
-0.463425 -0.362083 20.2028
0.986751 1.24088 19.344
0.50856 0.335403 19.7123
1.53788 1.37072 20.6745
1.3357 0.88522 20.3168
1.19358 0.604841 22.0732
1.3998 0.494445 21.1805
-0.34586 -0.588077 20.3117
0.182808 -0.129412 21.6465
-0.551405 -0.967593 20.3306
-0.460273 -0.555513 21.1982
-0.516186 -0.703477 20.5723
-0.510134 -0.584786 20.8854
-0.236776 -0.457116 20.3049
0.762583 -0.229284 19.9172
0.427424 -0.0750728 19.8627
0.771257 -0.34092 20.9184
1.18118 -0.350867 20.3302
0.143982 -0.18125 21.2699
0.46632 -0.320706 21.1403
-0.346358 0.0787517 21.2948
-0.0923023 -0.0566099 21.3367
-0.707192 0.183875 20.9806
-0.658 0.122662 21.1771
-0.627428 0.0775691 20.5683
-0.736738 0.126644 20.7433
-0.797536 -0.0411229 20.4512
0.837513 -0.151068 19.8876
0.472721 -0.000731133 19.8309
0.875416 -0.321207 20.9405
1.3126 -0.105993 20.3321
0.183174 -0.23952 21.312
0.647681 -0.326543 21.1421
-0.412596 0.0148257 21.3399
-0.0798669 -0.15084 21.4181
-0.811666 0.0683618 21.0057
-0.739605 -0.0664422 21.2324
-0.559719 -0.00597003 20.983
-0.793425 -0.114922 20.7298
-0.763009 -0.222287 20.5739
0.923761 0.0611955 19.9017
0.476421 0.146941 19.8531
1.01543 -0.139539 20.8948
1.1649 0.289789 20.3868
0.377661 -0.272217 21.3751
0.859178 -0.0506116 21.1181
-0.402951 -0.170463 21.3768
0.0485723 -0.180058 21.4211
-0.809179 -0.195672 21.029
-0.556003 -0.313983 21.1608
-0.593925 -0.208853 20.8637
-0.658594 -0.357511 20.7598
-0.770216 -0.211943 20.3856
0.718385 0.353708 20.0278
0.906712 0.307409 20.7617
0.487492 0.0363607 21.3392
-0.211538 -0.23752 21.2761
-0.465213 -0.378378 21.0311
-0.35022 -0.257219 20.6377
-0.80934 -0.207499 19.8939
-1.21722 -0.766218 18.5347
-1.01465 -0.463543 19.5168
-1.19709 -0.323338 19.369
-0.45955 -0.1363 19.6409
-2.26502 -1.05288 20.2564
-0.818427 -0.336246 20.9312
0.129666 -0.275606 9.85779
-0.889666 -0.584966 21.2671
-0.963641 -0.701545 21.3712
-0.282532 -0.538475 21.3237
-0.157766 -0.202558 21.2804
0.171284 0.0214785 9.66036
0.00197774 -0.161771 21.3881
0.046978 -0.355491 20.9778
0.242773 0.0108083 21.2846
0.378935 0.0547339 21.3043
0.239449 0.583089 9.59003
0.539861 0.305378 21.2815
0.702834 0.244292 20.6263
1.05965 0.486748 20.811
0.757669 0.151338 20.9386
1.0907 1.27174 13.5468
1.03407 0.584815 20.7709
1.40128 0.433193 20.0835
1.23626 0.34782 20.4056
0.66801 -0.0300163 20.8337
1.31556 0.545799 14.4744
0.814173 0.339864 21.7899
1.10711 0.203677 19.317
0.542264 0.436987 20.8603
-0.944357 -0.0395684 19.8651
-1.65729 -0.133055 17.9752
-1.42555 0.197612 19.3213
-0.540449 -0.0141788 19.568
-2.9622 -0.402089 20.4247
-0.96079 -0.248853 20.9387
-1.51005 -0.342242 21.192
-0.82677 -0.853003 21.2174
-0.282881 -0.279943 21.3652
-0.483879 -0.65087 21.0812
0.270684 -0.201661 20.7331
0.413734 -0.0822946 21.3753
0.758425 -0.117853 20.0538
1.27777 0.173534 19.5471
0.819479 -0.0593602 20.946
1.09653 0.390036 6.16616
1.37211 -0.280369 19.8653
1.38519 0.0568738 20.029
0.938085 -0.16342 21.2964
1.65026 0.226578 9.95166
1.06251 -0.356248 19.4894
0.497026 -0.0301126 20.4551
-0.852542 0.247788 19.9423
-1.45741 1.14962 18.6818
-0.964648 0.66804 19.7736
-0.552456 0.224959 19.6156
-2.00764 0.816078 20.3589
-1.03957 0.108954 20.8344
-2.49906 0.994515 20.3894
-1.29786 0.580864 20.7697
-1.68202 -0.0668835 21.2643
-0.489156 -0.136654 21.3669
-0.511731 0.305036 12.4646
-0.79633 0.137328 21.6153
-0.144776 -0.299352 21.5975
0.303691 -0.232723 21.327
1.29684 0.203792 12.5525
0.26123 -0.372822 21.4258
0.741939 -0.607435 21.0313
0.66267 -0.3294 20.933
1.26748 -0.652141 15.4506
0.563868 -0.624148 21.0424
0.855953 -0.571777 20.5985
0.582381 -0.244475 20.8426
0.871284 -0.541578 18.0594
0.463578 -0.466946 20.5701
0.474002 -0.484815 19.6445
1.22785 -0.7518 18.5592
0.0101968 -1.38581 17.9654
0.0182571 -1.10468 17.0771
0.00707472 -0.281848 19.1082
-0.0214801 -6.82443 18.7829
-0.108688 -0.276942 10.0212
0.00059973 -0.508551 14.571
0.000271491 -0.00454713 3.52075
-0.171403 0.0225634 9.72342
-0.000728189 -0.0440453 10.6878
0.000315242 0.0806989 5.09648
-0.217971 0.575301 9.31667
0.00474317 0.348263 10.0907
-0.0216417 0.292822 3.76288
-1.0803 1.27029 13.3706
-0.0168014 0.748228 10.4328
-0.0178441 0.0386011 0.24046
0.00279919 0.860649 6.42643
-1.01446 0.666562 14.4944
-0.209014 1.01385 12.964
0.0439108 0.755129 7.89257
0.0199123 0.334607 12.1658
1.66497 -0.134345 18.0344
0.0278636 1.00105 16.2683
0.0115292 -0.0368505 18.8377
-1.12795 0.415326 6.30619
-0.017506 -0.486968 -2.21146
-0.0233802 -0.850013 -2.53616
-1.49287 0.273642 12.2687
0.0257182 -0.572229 5.44273
0.0215627 -0.173236 10.1761
1.45963 1.13486 18.6924
-0.00279997 1.9597 18.8003
0.00488588 0.474601 18.9356
-0.0055697 5.39669 20.6471
2.4944 1.0299 20.3152
-0.0168105 2.19751 20.4543
-0.0576644 3.81826 8.34565
0.3581 0.435418 11.5926
-0.0182072 1.02016 17.8742
8.79255e-21 -4.23839e-18 5.41986e-17
-1.30859 0.210289 11.8662
-3.93032e-05 -0.554567 14.9629
-0.023778 0.380375 0.932857
-1.24257 -0.648598 15.1337
-0.00293705 -1.105 16.8863
-0.112315 -1.3622 7.47108
-1.05192 -0.66047 17.4395
-0.104536 -1.05403 17.8573
0.0451731 -0.874233 9.45353
0.803295 -0.197253 19.9056
1.00855 -0.455188 19.528
1.19207 -0.319963 19.3904
0.458607 -0.128968 19.6568
2.25628 -1.04486 20.2506
0.820556 -0.330832 20.9294
0.891524 -0.58608 21.2555
0.964501 -0.702996 21.3684
0.290425 -0.54214 21.3225
0.15782 -0.20136 21.2815
0.0017892 -0.164602 21.386
-0.0461167 -0.356916 20.9804
-0.241066 0.0102797 21.2771
-0.380221 0.0561051 21.3082
-0.54315 0.314718 21.2593
-0.701443 0.239605 20.6414
-1.07338 0.502937 20.7616
-0.769765 0.131661 20.9901
-1.06993 0.584554 20.6888
-1.39713 0.413459 20.1779
-1.15327 0.475424 20.6573
-0.593574 0.0357996 20.7757
-0.810834 0.446066 20.8855
-1.11307 0.279571 19.5656
-0.622927 0.426696 20.8944
0.935964 -0.0355787 19.879
1.40241 0.189849 19.3539
0.540219 -0.0156389 19.5957
2.95995 -0.402168 20.4245
0.959498 -0.24972 20.9379
1.51088 -0.344697 21.1948
0.823746 -0.851978 21.1964
0.281537 -0.281187 21.3662
0.483088 -0.652277 21.0668
-0.271488 -0.201022 20.7398
-0.412594 -0.0837978 21.3736
-0.756479 -0.121891 20.0775
-1.2866 0.171406 19.5389
-0.837637 -0.061601 21.0119
-1.37804 -0.278558 19.9399
-1.37533 0.0333049 19.9789
-0.536911 -0.107689 21.0748
-1.03741 -0.311864 19.8749
-0.97502 -0.193644 20.5061
0.850191 0.245661 19.9447
0.964902 0.670058 19.7698
0.55398 0.21853 19.6285
2.02655 0.831148 20.3585
1.04828 0.110027 20.8353
1.31061 0.60474 20.7681
1.72145 -0.052199 21.2702
0.496912 -0.140674 21.3744
0.81983 0.154619 21.6374
0.153461 -0.30082 21.5658
-0.308473 -0.238559 21.3325
-0.262895 -0.385634 21.4405
-0.757626 -0.610188 20.9194
-0.65905 -0.337991 20.9228
-0.55584 -0.646092 21.0304
-0.844892 -0.560807 20.4899
-0.517304 -0.318826 20.7372
-0.511611 -0.503053 20.3391
-0.354598 -0.400402 20.0268
-1.10481 -0.414325 19.4376
-0.884905 -0.609645 21.3311
0.0482318 -0.244943 21.3053
0.632675 0.278648 21.05
1.22255 0.512071 20.6243
0.959799 0.297007 21.4486
-1.3938 -0.0918779 19.2839
-1.28855 -0.658522 21.3805
-0.162444 -0.581999 20.9349
0.751893 0.0762458 20.1943
1.4708 0.0977103 19.731
1.30002 -0.0188607 16.875
-1.26057 0.528986 19.5378
-1.59701 0.205769 20.8997
-0.915721 -0.25377 21.6935
0.448307 -0.435159 21.2912
0.893569 -0.649219 20.6526
0.790175 -0.475338 20.1702
0.0130844 -1.2523 17.4745
-0.000531929 -0.139323 5.18036
-0.000165933 -0.00432199 4.00994
0.00267375 0.211057 4.33606
-0.0317735 0.486539 5.18651
-0.0825519 0.884487 10.4283
0.0251572 -0.176876 16.2577
0.0739831 -0.572055 -3.51601
0.172533 0.30194 4.16167
0.00778777 2.13076 17.5324
-0.00722811 1.79142 18.3464
0 0 0
-0.00263416 0.153272 0.229957
-0.0257322 -0.678315 4.51863
-0.13752 -1.54704 8.74706
1.10006 -0.404161 19.4519
0.889362 -0.610086 21.3204
-0.0447032 -0.248254 21.3081
-0.635688 0.282155 21.0247
-1.2361 0.505719 20.6352
-0.947271 0.40123 20.2768
1.36749 -0.0849721 19.3183
1.28649 -0.65913 21.3832
0.16175 -0.581283 20.9322
-0.751493 0.0719545 20.2157
-1.47883 0.0870259 19.8389
-1.15732 0.0110691 19.4264
1.25774 0.51911 19.5499
1.61586 0.204472 20.9009
0.937806 -0.249755 21.6977
-0.452077 -0.443756 21.2705
-0.903981 -0.649323 20.5744
-0.96633 -0.682279 19.6355
-5.84301 -1.72777 7.78766
-0.624095 -2.99273 3.65311
-0.30543 0.0453386 4.00722
-0.0215987 -0.0700119 0.226213
-0.104665 -0.0787184 -0.0296782
0.0816301 0.0265637 1.21136
-2.49822 0.0586068 2.9762
-0.825393 2.68185 1.59035
-0.112877 -0.0870408 1.07323
-0.134498 -0.120695 0.651983
-0.0141901 0.00449795 -0.00264943
0.317123 0.159077 1.66657
0.614044 -2.98026 3.65046
5.72051 -1.6899 7.61098
0.304079 0.0456763 3.9992
0.106098 -0.0832278 -0.031223
-0.0172877 -0.030601 0.329452
-0.079669 0.0280237 1.21411
0.816594 2.6801 1.60525
2.45409 0.0578862 2.93595
0.112124 -0.0862506 1.06617
0.0143459 0.00510407 -0.00295612
0.186728 -0.131045 0.675701
-0.312402 0.154811 1.66803
0 0 0
0.00244539 -0.00123256 0.176164
0.000459037 -0.00144772 0.0386449
0 0 0
0.0139252 0.0225368 0.96698
-0.00316018 0.0077061 0.161336
-0.023724 0.0324876 0.268825
0.00102059 0.0011917 0.032674
-0.535908 -0.365811 1.18965
-0.000137335 -0.000617383 0.00854928
0.00676385 0.016415 0.0745812
-0.086802 0.0111422 0.0591941
0.0691503 0.0873423 0.266728
0.00285228 0.0224891 0.0923424
0.00077151 0.00180821 0.00629386
0.0303234 -0.00741194 0.220271
0 0 0
0 0 0
-0.00238146 -0.00122699 0.173954
-0.000454186 -0.00143286 0.0380701
-0.0139891 0.0225557 0.979713
-0.00108304 0.00121559 0.0336005
0.00313506 0.0076125 0.159167
0.0236873 0.0325476 0.268694
0.535309 -0.365236 1.18905
0.0859484 0.0110442 0.0586941
0.00013715 -0.000616924 0.00853435
-0.00665138 0.0161355 0.0733613
-0.0691868 0.0873407 0.26715
-0.030129 -0.00737802 0.218998
-0.00285993 0.0224356 0.0922727
-0.000785909 0.00183772 0.00639635
0 0 0
-0.429861 0.683115 0.999201
-0.000113237 -0.00183254 0.049137
0 0 0
0 0 0
0.00492673 -0.00228096 0.0389227
0.00284328 0.006426 0.0672314
0 0 0
0 0 0
0 0 0
0 0 0
0 0 0
-3.59898e-19 -5.61121e-17 2.78386e-17
-2.01098e-06 3.37698e-05 0.000913876
0 0 0
-0.00229171 4.40793e-05 0.00082417
-0.00599571 0.0326256 -0.0188872
-3.26322e-05 0.000909644 -0.00781188
0.00570763 0.0193644 0.11953
1.41001e-06 2.15688e-06 -2.48016e-05
0.378269 0.644201 0.874836
0 0 0
-0.00424888 -0.00193383 0.0348354
0 0 0
0 0 0
-0.00302001 0.00670273 0.071433
0 0 0
0 0 0
0.0022509 4.40538e-05 0.000827957
0 0 0
-1.26024e-06 1.96336e-06 -2.25153e-05
-0.00568096 0.0191908 0.119348
-0.00237463 0.00818342 0.0723816
0 0 0
0 0 0
0 0 0
0 0 0
-1.98649e-08 -1.18203e-08 2.47491e-05
0 0 0
0 0 0
-2.74452e-07 -1.18945e-09 -2.25346e-06
2.41618e-07 3.20599e-05 0.000626857
0.0021124 0.0152479 0.0684091
0.0205456 0.0161893 0.449163
-5.3307e-06 -0.00122375 -0.00718644
2.01406e-06 0.00698357 0.0682726
1.49509e-06 -0.000121877 0.0128641
3.96719e-07 0.00221675 -0.00244344
0 0 0
0.00237464 0.00818767 0.0724403
0 0 0
0 0 0
0 0 0
0 0 0
-0.0205798 0.016194 0.449057
-0.00210496 0.015204 0.0682481
0 0 0
0 0 0
0.0156523 -0.0546279 0.228402
-0.000395227 -0.00220736 0.00917741
-0.00450125 0.0154038 0.213516
0.00175698 0.0154168 0.107867
-0.00825958 0.0297529 0.243727
0.00275367 0.0215739 0.0912539
0 0 0
0.000423102 0.00254168 0.0117048
0.000438753 0.00172584 0.0333907
0.00680478 0.0134909 0.112618
0.00363722 -0.00246486 0.0530371
-0.00485402 -0.00338113 0.0723659
3.19968e-06 -4.54937e-07 5.15427e-05
-1.0191e-05 -1.45195e-06 0.000163043
0 0 0
0 0 0
0 0 0
0 0 0
0.000415546 0.00031928 0.00643926
-0.00040426 0.000309342 0.00625435
0 0 0
0 0 0