# vtk DataFile Version 2.0
tri_press
ASCII
DATASET UNSTRUCTURED_GRID
POINTS 3682 float
-0.816468 0.285 -2.465
-0.795 0.325 2.58462
-0.865 0.66924 -2.345
-0.795 0.724595 2.535
0.816471 0.285 -2.465
0.795 0.325 2.58462
0.865 0.66924 -2.345
0.795 0.724596 2.535
-0.819913 0.287732 -0.781793
-0.859479 0.254344 0.901414
-0.862934 0.708959 -0.718333
-0.847107 0.734917 0.908334
0.819891 0.287756 -0.781793
0.859498 0.254326 0.901414
0.862927 0.708952 -0.718333
0.8471 0.73491 0.908334
-1.65472 0.0601303 -3.8168
-1.6564 0.0742405 -2.49288
-1.66205 0.0681027 -0.808213
-1.67997 0.045021 0.887834
-1.6513 0.0826501 2.57346
-1.63949 0.110076 3.90208
-1.64205 0.12622 5.222
-1.65831 0.264833 -3.77713
-1.66216 0.283254 -2.45938
-1.66653 0.288123 -0.785717
-1.68326 0.264597 0.893039
-1.63365 0.301042 2.56779
-1.62697 0.327499 3.89561
-1.63554 0.343293 5.21738
-1.67994 0.665525 -3.68191
-1.69955 0.682484 -2.36183
-1.69791 0.71453 -0.726708
-1.68131 0.725599 0.904409
-1.6319 0.725168 2.54062
-1.62657 0.74986 3.87077
-1.63582 0.770678 5.20166
-1.69283 1.29575 -3.5816
-1.70189 1.31723 -2.26999
-1.70305 1.35368 -0.653194
-1.69353 1.38233 0.951411
-1.67679 1.39453 2.56879
-1.666 1.40492 3.88164
-1.66185 1.41933 5.20635
-0.817023 0.0616609 -3.82045
-0.820659 0.0770324 -2.4982
-0.822236 0.0683758 -0.807499
-0.847994 0.0389304 0.894982
-0.827933 0.0947124 2.58596
-0.817286 0.119232 3.91055
-0.818776 0.131348 5.22691
-0.815465 0.264416 -3.77825
-0.805009 0.337333 3.9026
-0.813117 0.348383 5.22108
-0.832023 0.659757 -3.67492
-0.804708 0.752636 3.86965
-0.813273 0.773249 5.20142
-0.846625 1.29143 -3.57469
-0.8555 1.31294 -2.26237
-0.859032 1.35262 -0.648603
-0.856498 1.38454 0.95086
-0.847634 1.39598 2.56486
-0.839076 1.40559 3.87771
-0.83489 1.41998 5.2035
0.843655 0.0616628 -3.82045
0.824267 0.0770369 -2.4982
0.831598 0.068389 -0.8075
0.843788 0.0389211 0.894982
0.802486 0.0947081 2.58596
0.811487 0.119229 3.91055
0.820095 0.131345 5.22691
0.85005 0.264417 -3.77825
0.8115 0.337331 3.9026
0.82087 0.34838 5.22108
0.864502 0.659756 -3.67492
0.811337 0.752635 3.86965
0.820487 0.773246 5.20142
0.849462 1.29143 -3.57469
0.844444 1.31294 -2.26237
0.83685 1.35262 -0.648603
0.823666 1.38454 0.95086
0.811391 1.39597 2.56486
0.811927 1.40558 3.87771
0.815922 1.41997 5.2035
1.677 0.0601338 -3.8168
1.6604 0.0742482 -2.49288
1.66658 0.068117 -0.808213
1.67945 0.0450108 0.887834
1.64166 0.08264 2.57346
1.63717 0.110069 3.90208
1.64399 0.126213 5.222
1.68297 0.264834 -3.77713
1.66305 0.283258 -2.45938
1.66576 0.288139 -0.785718
1.68573 0.264584 0.893039
1.63801 0.301033 2.56779
1.63403 0.327493 3.89561
1.64288 0.343287 5.21738
1.70182 0.665524 -3.68191
1.69869 0.682482 -2.36183
1.69443 0.714528 -0.726708
1.68165 0.72559 0.904409
1.63593 0.725162 2.54062
1.63334 0.749855 3.87077
1.64226 0.770672 5.20166
1.69445 1.29575 -3.5816
1.69072 1.31723 -2.26999
1.68193 1.35368 -0.653195
1.66483 1.38232 0.951411
1.64628 1.39453 2.56879
1.64183 1.40492 3.88164
1.64381 1.41933 5.20635
-0.807066 0.47712 -2.37133
1.49012e-06 0.240065 -2.50994
-0.86038 0.244177 -1.6234
-0.799774 0.524797 2.56458
0 0.364143 2.54548
-0.827313 0.289599 1.74302
0 0.746368 -2.42213
-0.866358 0.691491 -1.53167
0 0.601335 2.41174
-0.834833 0.743535 1.72167
0.806917 0.47712 -2.37118
0.86035 0.244209 -1.6234
0.788656 0.524798 2.55347
0.82736 0.289552 1.74302
0.866341 0.691474 -1.53167
0.834828 0.743531 1.72167
-0.82029 0.290444 0.05981
-0.891008 0.498346 -0.750063
-1.08153e-05 0.201051 -0.781793
-0.895039 0.49463 0.904874
9.54774e-06 0.201625 0.901414
-0.854619 0.721536 0.095
-3.92427e-06 1.00136 -0.718333
-3.60619e-06 1.18992 0.908334
0.820255 0.290481 0.05981
0.891003 0.498354 -0.750063
0.895039 0.494618 0.904874
0.85461 0.721528 0.095
-0.878519 0.487733 -1.57753
0.878522 0.487737 -1.57753
-4.66258e-06 0.207916 -1.6234
-1.96213e-06 0.787774 -1.53167
7.45058e-07 0.47712 -2.38805
-0.892879 0.496488 0.077405
0.892875 0.496486 0.077405
-6.3377e-07 0.201124 0.05981
-3.76523e-06 1.21241 0.095
-0.892346 0.509714 1.73234
0.892342 0.509708 1.73234
4.77387e-06 0.252616 1.74302
-1.80309e-06 0.831552 1.72167
0 0.524798 2.39211
-0.870477 0.38106 -2.47688
-0.408233 0.251195 -2.49881
-0.858809 0.244203 -2.0442
-0.798275 0.424899 2.57549
-0.3975 0.372817 2.5368
-0.821983 0.296473 2.16382
-0.841011 0.57318 -2.36314
-0.4325 0.680567 -2.35633
-0.867462 0.682148 -1.93833
-0.801038 0.624696 2.55344
-0.3975 0.589585 2.39999
-0.825573 0.744722 2.12833
0.408236 0.251274 -2.49873
0.870144 0.38106 -2.47654
0.85878 0.244235 -2.0442
0.3975 0.372818 2.5368
0.798086 0.424899 2.5753
0.822001 0.296455 2.16382
0.4325 0.680578 -2.35634
0.840874 0.57318 -2.36301
0.867472 0.682158 -1.93833
0.3975 0.589612 2.40002
0.801059 0.624697 2.55346
0.825559 0.744708 2.12833
-0.818644 0.287457 -1.2026
-0.819914 0.289276 -0.360992
-0.869984 0.385777 -0.765928
-0.430858 0.202599 -0.781793
-0.85761 0.257757 1.32222
-0.822069 0.290209 0.480612
-0.893732 0.366251 0.903144
-0.442029 0.203396 0.901414
-0.866055 0.701633 -1.125
-0.888186 0.60926 -0.734198
-0.858885 0.715356 -0.311667
-0.47566 0.943542 -0.718333
-0.841957 0.740213 1.315
-0.889367 0.623921 0.906604
-0.850475 0.727839 0.501667
-0.526657 1.16862 0.908334
0.818635 0.287468 -1.2026
0.430843 0.202598 -0.781793
0.819889 0.289302 -0.360992
0.869984 0.385787 -0.765928
0.857775 0.257593 1.32222
0.442044 0.203396 0.901414
0.822057 0.290222 0.480612
0.893737 0.366238 0.903144
0.866047 0.701626 -1.125
0.47563 0.943494 -0.718333
0.888181 0.609261 -0.734198
0.858883 0.715355 -0.311667
0.841949 0.740206 1.315
0.526669 1.16866 0.908334
0.889364 0.623912 0.906604
0.850463 0.727827 0.501667
-0.877006 0.482426 -1.97443
-0.403532 0.47712 -2.52634
-1.58623e-06 0.223115 -2.06667
1.11759e-06 0.358592 -2.56158
-0.878191 0.365955 -1.60046
-0.430192 0.210087 -1.6234
-0.884999 0.517256 2.14846
-0.399887 0.524798 2.4214
2.38694e-06 0.276364 2.14425
0 0.44447 2.41527
-0.873069 0.399656 1.73768
-0.413654 0.254494 1.74302
-9.81067e-07 0.770665 -1.9769
3.72529e-07 0.611744 -2.38686
-0.877751 0.589612 -1.5546
-0.43318 0.775314 -1.53167
-9.01547e-07 0.792619 2.0667
0 0.563067 2.4233
-0.884228 0.626625 1.727
-0.417417 0.821352 1.72167
0.877006 0.482428 -1.97436
0.403459 0.47712 -2.52315
0.878192 0.365973 -1.60046
0.430173 0.210092 -1.6234
0.885157 0.517253 2.1429
0.394328 0.524798 2.42165
0.873066 0.39963 1.73768
0.413682 0.254494 1.74302
0.877751 0.589605 -1.5546
0.43317 0.7753 -1.53167
0.884221 0.62662 1.727
0.417413 0.821355 1.72167
-0.871024 0.386246 0.0686075
-0.431674 0.202726 0.05981
-0.885889 0.493039 -1.1638
-0.892032 0.497417 -0.336329
-7.73893e-06 0.201006 -1.2026
-5.72452e-06 0.201093 -0.360992
-0.892142 0.495559 0.491139
-0.894844 0.502172 1.31861
4.45699e-06 0.201177 0.480612
7.16081e-06 0.227428 1.32222
-0.889531 0.616903 0.0862025
-0.540214 1.19278 0.095
-2.9432e-06 0.804272 -1.125
-3.84475e-06 1.20167 -0.311667
-3.68571e-06 1.20879 0.501667
-2.70464e-06 0.958189 1.315
0.871028 0.386252 0.0686075
0.431666 0.202726 0.05981
0.88589 0.493045 -1.1638
0.892028 0.49742 -0.336329
0.892137 0.495552 0.491139
0.894845 0.502163 1.31861
0.889528 0.616899 0.0862025
0.540209 1.19278 0.095
-0.878807 0.373507 -2.00931
-0.86617 0.379497 -1.1832
-0.887088 0.596632 -1.1444
-0.876477 0.581396 -1.95638
0.878789 0.373517 -2.00928
0.876478 0.581393 -1.95635
0.887088 0.596629 -1.1444
0.866173 0.379514 -1.1832
-0.419213 0.226035 -2.05543
0.419204 0.224953 -2.05543
0.420056 0.201021 -1.2026
-0.420077 0.201021 -1.2026
-0.43284 0.758948 -1.95762
-0.432325 0.790872 -1.125
0.432316 0.790873 -1.125
0.432835 0.758948 -1.95762
-0.405883 0.369826 -2.54551
-0.418016 0.592462 -2.3668
0.41798 0.592462 -2.36837
0.405848 0.369826 -2.54552
-0.870529 0.386 -0.34866
-0.869387 0.382744 0.485876
-0.889472 0.620423 0.496403
-0.889041 0.613173 -0.323998
0.870531 0.386007 -0.34866
0.889036 0.613171 -0.323998
0.889469 0.620417 0.496403
0.869382 0.382745 0.485876
-0.431266 0.202663 -0.360992
0.431254 0.202662 -0.360992
0.436978 0.202815 0.480612
-0.436974 0.202815 0.480612
-0.562604 1.17749 -0.311667
-0.537609 1.18905 0.501667
0.537607 1.18906 0.501667
0.562591 1.17748 -0.311667
-0.894023 0.387072 1.32041
-0.87208 0.412278 2.15614
-0.872376 0.62566 2.1384
-0.887374 0.620699 1.3168
0.894026 0.387051 1.32041
0.887392 0.620692 1.3168
0.872467 0.625658 2.13562
0.872172 0.412265 2.15336
-0.421694 0.229203 1.32222
0.421718 0.229203 1.32222
0.405591 0.276677 2.15403
-0.405577 0.276679 2.15403
-0.420486 0.925787 1.315
-0.407459 0.777081 2.09752
0.407456 0.777085 2.09752
0.42048 0.925786 1.315
-0.398693 0.434684 2.54318
0.395914 0.434685 2.54336
0.395914 0.593882 2.39819
-0.398693 0.593881 2.39807
-0.842457 0.33303 -2.46992
-0.612351 0.268453 -2.48155
-0.825902 0.276338 -2.2546
-0.79711 0.374949 2.58053
-0.59625 0.382299 2.52732
-0.814383 0.304845 2.37422
-0.855815 0.62121 -2.35688
-0.64875 0.679824 -2.35558
-0.867992 0.677455 -2.14167
-0.801194 0.674646 2.5474
-0.59625 0.582166 2.39257
-0.81819 0.742562 2.33167
0.612354 0.268456 -2.48154
0.841206 0.33303 -2.46867
0.825854 0.276389 -2.2546
0.59625 0.382294 2.52733
0.783279 0.374949 2.5667
0.814398 0.30483 2.37422
0.64875 0.679814 -2.35557
0.855915 0.62121 -2.35698
0.868 0.677463 -2.14167
0.59625 0.582316 2.39272
0.782923 0.674647 2.52913
0.818158 0.742531 2.33167
-0.819581 0.287292 -0.992194
-0.819919 0.288498 -0.571393
-0.847169 0.335644 -0.773861
-0.646286 0.203366 -0.781793
-0.861738 0.252857 1.11181
-0.822807 0.290244 0.691013
-0.892033 0.302583 0.902279
-0.648383 0.233612 0.901414
-0.864906 0.705708 -0.921667
-0.880083 0.661371 -0.726266
-0.860948 0.712196 -0.515
-0.69851 0.884676 -0.718333
-0.844687 0.737721 1.11167
-0.876636 0.683619 0.907469
-0.848509 0.731095 0.705
-0.709511 0.997028 0.908334
0.81957 0.287306 -0.992194
0.646273 0.203366 -0.781793
0.819896 0.288523 -0.571393
0.847164 0.335658 -0.773861
0.861755 0.25284 1.11181
0.648393 0.233615 0.901414
0.822823 0.290229 0.691013
0.892045 0.302568 0.902279
0.864906 0.705709 -0.921667
0.698506 0.884679 -0.718333
0.880078 0.661369 -0.726266
[...]
POINT_DATA 3682
SCALARS point_scalars float 1
LOOKUP_TABLE default
-105.317
-36.8607
-102.254
-32.5383
-104.975
-36.2581
-102.404
-32.4305
-29.5207
-29.8422
-40.5765
-41.7718
-29.51
-29.8479
-40.5645
-41.7097
63.8934
-138.906
-29.6277
-34.065
-38.567
-34.6624
-34.6624
-25.7697
-134.882
-30.8045
-35.015
-39.6278
-34.6624
-34.6624
-25.7697
-124.123
-35.481
-37.6395
-36.7801
-32.0213
-32.5331
-116.448
-124.612
-70.9925
-45.3102
-33.732
-33.7046
-33.7046
148.657
-123.417
-29.3191
-33.1098
-38.4526
-34.1044
-34.6624
143.456
-34.6624
-34.6624
170.215
-32.0213
-32.5331
63.1341
-118.76
-67.8317
-50.9134
-31.5728
-33.7046
-33.7046
142.246
-124.271
-29.2376
-33.1942
-38.8813
-34.6259
-34.6259
142.246
-34.6259
-34.6259
170.109
-31.9399
-34.6259
68.4241
-118.784
-67.8842
-50.904
-31.536
-33.8321
-33.8321
64.0371
-139.046
-29.6266
-34.0708
-40.5741
-34.6259
-34.6259
-25.3542
-133.031
-30.8
-35.0287
-40.5711
-34.6259
-34.6259
-25.3542
-124.382
-35.4916
-37.6288
-37.3678
-31.9399
-34.6259
-116.706
-124.789
-70.9655
-45.5855
-34.183
-33.8321
-33.8321
-6.89139
-137.409
-33.5818
-32.5615
-28.3189
-33.818
-120.909
-28.0106
-25.4643
-36.5312
-6.91521
-33.5795
-31.4781
-33.8712
-28.01
-36.4626
-31.368
-32.0803
-33.445
-35.7276
-36.193
-42.7816
47.5544
-51.8809
-31.3501
-32.0774
-35.7304
-42.7847
-32.425
-32.428
-44.3935
-17.3694
184.248
-35.1899
-35.1913
-31.6186
-70.6624
-32.5445
-32.6549
-33.616
-35.8506
-24.7404
-65.6631
-64.5644
-57.233
-34.2748
-30.6751
-32.9939
-37.1411
-85.145
-50.3735
-33.0372
-27.7676
-34.4117
-65.2926
-65.5694
-57.269
-30.5325
-34.36
-33.1313
-84.4404
-37.4724
-50.3664
-27.5908
-33.2953
-34.3971
-33.7809
-31.1344
-30.1962
-33.0153
-33.8211
-30.596
-33.8743
-35.6872
-22.406
-35.3094
-45.4902
18.1527
-41.6021
-37.3575
-40.0807
-52.3926
-33.7636
-33.0216
-31.1248
-30.1963
-33.8538
-35.671
-30.5945
-33.9248
-22.39
18.197
-35.3043
-45.4884
-41.6048
-52.3884
-37.3502
-40.1065
-55.4374
169.52
-66.8548
178.771
-33.0418
-43.9432
-32.7811
-27.8561
-33.1007
-25.365
-33.0125
-33.5031
-50.8064
183.07
-31.6339
-21.641
-31.6164
-24.6958
-33.8943
-35.8235
-55.4223
168.405
-33.0516
-43.9826
-32.9046
-27.6417
-33.0744
-33.5133
-31.6313
-21.6269
-33.9288
-35.8276
-33.0061
-31.4383
-27.9526
-35.5516
-38.0647
-31.6489
-33.4682
-35.3791
-32.9465
-34.8889
-38.3911
-61.4157
8.78291
-108.838
-58.6671
-38.6473
-33.0073
-31.4408
-27.945
-35.5498
-33.4747
-35.3884
-38.3934
-61.4119
-57.1319
-29.3155
-27.0782
-54.8895
-57.1242
-54.8856
-27.0518
-29.3062
-67.7197
-67.7192
-37.7298
-37.7187
-55.1426
-0.2472
-0.245176
-55.1524
187.181
150.146
149.195
188.393
-32.8596
-31.5757
-36.207
-39.7214
-32.8587
-39.7206
-36.2198
-31.5812
-31.4568
-31.4605
-32.6661
-32.6642
-96.7747
-52.6183
-52.6157
-96.7808
-34.9489
-32.5905
-32.7669
-36.6455
-34.9603
-36.6514
-32.8855
-32.7523
-34.6368
-34.6654
-33.7151
-33.6985
-39.6351
-31.2243
-31.2096
-39.6354
-28.1277
-27.8433
-27.5958
-27.7868
-64.4936
-61.3421
-69.2474
-34.7209
-31.7023
-36.5111
-63.9679
-49.3032
-80.2192
-33.7046
-29.1338
-33.2957
-61.3533
-65.3619
-69.3931
-31.5907
-34.2719
-36.9621
-49.2788
-64.2187
-80.2102
-29.0244
-33.6515
-33.2337
-28.1125
-30.4729
-29.663
-31.7427
-37.8089
-27.8153
-29.2765
-34.8993
-29.6109
-37.7851
-44.8077
-28.6305
-41.7522
-39.8677
-39.2011
-48.052
-28.0815
-31.7409
-30.468
-29.6646
-37.797
-34.8746
-27.8416
-29.2853
-29.5882
-28.5751
-37.7746
-44.805
-41.7728
-48.0443
-39.8131
-39.2568
-46.6778
-47.5981
-88.4012
145.955
-46.0228
-44.1341
-93.0174
100.342
-43.039
-32.2909
-33.0813
-40.9789
-32.4631
-34.1006
-37.3601
-29.0623
-29.3056
-29.1673
-32.4527
-26.054
-31.12
-37.3035
-33.4353
-33.1833
-87.6998
-87.3775
-82.7096
151.222
-36.4681
-24.0243
-30.4488
-24.1784
-26.3837
-26.1993
-30.2067
-24.9112
-36.186
-38.5899
-34.8651
-36.4236
-46.4759
-47.7068
-88.3827
146.015
-42.9791
-32.363
-33.0991
-40.997
-32.4739
-33.0357
-37.8494
-28.9289
-31.1847
-37.3586
-33.4983
-33.2038
-36.4641
-24.0351
-30.4465
-24.1383
-35.8086
-38.5
-34.884
-36.4271
-31.3808
-31.1763
-32.0389
-31.1755
-31.0207
-33.3987
-29.2083
-34.4683
-33.4155
-33.4233
-35.3293
-32.2663
-35.1575
-36.4408
-32.624
-36.2278
-36.1213
-36.1287
-34.1765
-35.5419
-44.2757
-41.2395
-40.6291
-51.9823
37.5212
37.2634
21.5421
-33.7628
-52.1077
-52.115
-55.2109
-46.0865
-31.3729
-31.161
-32.0403
-31.176
-31.019
-33.3949
-29.2053
-34.4656
-35.1802
-36.4372
-32.6248
-36.2324
-44.2708
-41.2493
-40.6307
-51.9787
-40.2065
-32.7575
-31.967
-30.3077
-40.2044
-32.7632
-31.9671
-30.3156
-52.8306
-44.8198
-44.84
-41.6261
-32.5467
-18.9109
-18.9021
-4.08294
175.032
210.257
181.795
175.119
-34.0203
-35.6358
-34.436
-36.7936
-34.0211
-35.6342
-34.4398
-36.7958
-31.5858
-31.4585
-32.1103
-31.5889
-69.0379
-82.5321
-63.3828
-69.035
-32.0307
-32.925
-33.1774
-34.7939
-32.1047
-33.0267
-33.2218
-34.7597
-33.365
-33.5519
-33.5575
-34.2644
-33.7246
-35.8511
-35.8545
-37.8363
-25.8829
-25.1378
-24.535
-25.6613
-76.4548
187.811
-102.987
122.412
-60.1949
-62.23
-37.3883
-29.8753
-33.5789
-29.3548
-32.4245
-34.3083
-90.6296
145.793
-93.3014
102.72
-52.8128
-54.0465
-35.5389
-29.2332
-29.5702
-27.7775
-33.2299
-32.0596
-102.754
122.737
-76.4746
187.115
-60.1948
-62.2168
-33.4961
-29.1803
-37.8778
-29.7385
-32.5979
-34.3353
-93.3288
100.837
-90.595
145.96
-52.8092
-54.0398
-29.5411
-27.5936
-36.0433
-29.1092
-33.1771
-32.0267
-31.3273
-37.1325
-31.8265
-31.1846
-28.4799
-31.9304
-34.9133
-31.9337
-34.3157
-34.1667
-30.9667
-31.9959
-29.0541
-36.1444
-34.0351
-34.8229
-26.4787
-9.39417
-30.2497
-38.6132
-42.4398
-62.4792
5.59912
-24.6351
-38.5422
-41.8645
-35.9972
-37.4265
-38.2966
-44.9194
-52.2221
-46.9114
-31.3092
-37.1321
-34.9222
-31.9383
-31.8266
-31.1865
-28.4787
-31.9291
-34.3362
-34.2019
-34.0369
-34.8582
-30.9727
-31.996
-29.0663
-36.1502
-26.4493
-9.39078
5.57836
-24.6129
-30.2462
-38.6102
-42.4403
-62.4919
-38.5536
-41.8357
-52.2181
-46.8839
-36.0113
-37.4289
-38.325
-44.91
-56.0428
-55.4686
203.655
156.063
-69.123
-69.1266
141.075
144.439
-40.2618
-35.8545
-52.7897
-40.2534
-32.7839
-33.0731
-27.9039
-27.7446
-33.2535
-33.2583
-25.6156
-25.4128
-35.3047
-30.8205
-34.1199
-33.391
-51.4019
-51.3899
181.187
181.651
-27.8524
-39.3846
-35.1237
-10.5379
-31.3068
-31.3092
-25.9297
-26.1401
-32.91
-35.3893
-38.1829
-33.4978
-56.0224
-55.4598
155.76
204.547
-40.2605
-35.8651
-52.7635
-40.2497
-33.196
-32.9209
-27.723
-27.5208
-35.3249
-30.8986
-34.1305
-33.3999
-39.381
-27.8711
-10.5349
-35.0962
-35.4093
-32.9761
-33.5002
-38.1837
-33.1231
-32.4829
-31.3153
-31.8615
-28.5236
-27.4039
-34.0718
-37.4622
-38.0162
-38.0023
-31.6129
-31.6175
-32.4372
-34.9278
-35.1909
-35.9346
-32.9013
-32.8988
-34.8011
-34.8172
-37.2722
-39.3762
-70.9793
-55.5787
6.15524
6.15808
-104.526
-104.536
-57.4797
-57.4754
-38.9
-38.9127
-33.1226
-32.486
-31.3185
-31.8637
-27.3889
-28.5166
-34.0702
-37.4604
-34.9367
-32.4422
-35.2012
-35.9423
-39.3751
-37.2784
-55.5775
-70.9788
-66.1058
-41.1449
-40.3612
-86.1031
-28.3127
-28.8887
-32.8667
-36.7535
-31.2487
-27.1735
-28.7876
-29.5051
-84.4333
-90.1302
-39.9208
-38.5412
-66.1161
-86.1144
-40.3603
-41.1367
-84.4058
-38.5376
-39.9184
-90.109
-31.2407
-29.5018
-28.8012
-27.202
-28.3133
-36.7881
-32.8682
-28.8859
-93.5502
-102.427
-53.7318
-49.1791
-93.4996
-49.116
-53.7523
-102.421
-33.2677
-35.3301
-41.5023
-36.2555
-33.2696
-36.2746
-41.4832
-35.3189
-93.541
-36.5235
-33.1659
-82.9073
-7.93559
16.2524
-5.87993
-15.865
-7.93591
-15.9042
-5.87485
16.267
-93.5432
-82.8884
-33.1535
-36.4993
129.357
192.533
192.219
98.697
106.012
137.441
174.493
151.741
105.675
151.877
174.556
136.442
129.747
96.0629
192.226
192.616
-31.0445
-32.0936
-34.268
-33.0489
-27.8985
-30.6914
-33.3859
-31.704
-37.4395
-39.3417
-35.9034
-34.4468
-41.5785
-36.313
-37.386
-41.8186
-31.0444
-33.0467
-34.2668
-32.0934
-41.5758
-41.8176
-37.3849
-36.3099
-37.5274
-34.4534
-35.9089
-39.3466
-27.9198
-31.7068
-33.3891
-30.6915
-31.4575
-32.2066
-31.4387
-31.0915
-31.4568
-31.0921
-31.4425
-32.2124
-33.7462
-34.1085
-32.0802
-31.4262
-33.7474
-31.4254
-32.0775
-34.1055
-73.3619
-54.8696
-81.1447
-23.9333
-43.7868
-54.5978
-61.9363
-47.0435
-43.7855
-47.0346
-61.9336
-54.5907
-73.4373
-24.0016
-81.1395
-54.8602
-37.9418
-36.3666
-35.0514
-36.1301
-37.0505
-37.6659
-31.316
-30.5174
-33.9271
-33.2009
-32.7328
-36.5226
-39.6551
-36.6971
-34.8338
-36.8428
-37.942
-36.1354
-35.0046
-36.3927
-39.6661
-36.856
-34.8549
-36.7002
-34.1672
-37.114
-32.8012
-33.2458
-37.6641
-30.5945
-31.3907
-38.0287
-33.7075
-35.386
-34.1948
-34.597
-33.7351
-34.6284
-34.1974
-35.3966
-34.6575
-32.719
-33.3632
-33.3714
-34.6674
-33.3471
-33.3608
-32.7795
-47.553
-38.8948
-37.9701
-46.1259
-30.5786
-29.8569
-33.5679
-34.1386
-30.4892
-34.1335
-33.5735
-29.8647
-47.5475
-46.1168
-37.979
-38.8946
-31.3865
-27.3212
-26.2724
-28.9322
-31.2702
-28.8196
-26.0986
-27.1386
-29.2164
-26.0539
-25.7842
-28.9794
-29.3373
-29.1235
-25.9993
-26.2481
-74.3092
-56.5297
-100.347
-35.9636
-31.6715
-38.3512
-79.7916
-46.2644
-124.836
-33.4193
-29.0664
-32.4507
-56.1957
-75.4028
-100.318
-31.9654
-35.662
-40.1785
-46.3746
-79.9976
-124.775
-28.9572
-32.7552
-32.6146
-28.7841
-29.9074
-29.4875
-29.1407
-34.8055
-19.9035
-27.2067
-37.0949
-36.9879
-39.2647
-43.2669
-53.2552
-41.2706
-41.085
-41.0539
-44.3462
-28.7673
-29.3127
-29.9076
-29.4882
-34.8031
-37.0885
-19.8728
-27.213
-36.9948
-53.3067
-39.2516
-43.2603
-41.2996
-44.3607
-41.0163
-40.971
-60.0358
-31.3188
-119.556
122.08
-164.536
-163.9
-128.016
20.9702
-38.3447
-34.6622
-33.404
-38.5541
-32.8052
-32.0213
-39.522
-29.0119
-28.5743
-28.4934
-31.9169
-26.5008
-30.1616
-38.435
-34.1983
-32.4559
-113.761
-113.669
-126.777
5.1684
-32.1589
-25.6009
-29.0422
-25.5896
-25.7095
-25.5876
-29.08
-25.1935
-35.4057
-37.0551
-35.5448
-37.672
-59.9322
-31.3774
-119.503
122.35
-38.3434
-34.687
-33.421
-38.5249
-32.5737
-31.9399
-39.9495
-28.9349
-30.2158
-38.4928
-34.258
-32.4887
-32.1593
-25.6033
-29.0404
-25.5949
-35.3634
-37.121
-35.5594
-37.6783
-31.3784
-31.286
-31.5979
-30.8508
-31.5708
-32.7025
-30.6645
-33.437
-33.4477
-33.452
-34.2853
-32.7803
-35.2079
-35.9963
-32.8611
-36.4628
-36.2412
-36.2474
-35.0092
-36.2585
-43.5374
-42.13
-41.7094
-47.1546
45.4994
45.478
36.3913
26.8037
-51.9471
-51.9516
-53.2797
-50.7488
-31.3581
-31.2776
-31.5953
-30.8524
-31.5685
-32.6992
-30.6618
-33.434
-35.2196
-35.9952
-32.8565
-36.4673
-43.536
-42.1372
-41.7118
-47.1529
-35.5584
-32.6499
-32.2076
-30.1621
-35.5589
-32.6539
-32.2094
-30.1661
-48.382
-44.4751
-44.476
-43.0003
-25.1816
-17.9783
-17.9726
-10.6693
180.33
195.918
184.805
180.317
-34.579
-35.418
-34.8633
-35.9849
-34.5801
-35.4177
-34.8659
-35.9867
-31.6074
-31.4967
-31.8259
-31.6091
-70.3031
-75.6875
-66.7613
-70.3012
-31.9872
-32.6713
-32.8428
-34.2019
-32.04
-32.7746
-32.9218
-34.2863
-33.4991
-33.5805
-33.5833
-33.9417
-34.9014
-35.8519
-35.8541
-36.8434
-24.8436
-24.9564
-24.6297
-24.6303
-68.4722
-46.0795
-111.58
146.237
-75.1106
31.9779
-144.043
80.8922
-56.2961
-49.8088
-57.9807
-59.6609
-34.4618
-32.6077
-39.7511
-29.9104
-31.1836
-29.9598
-33.5907
-29.9772
-34.0328
-31.7378
-32.4275
-34.4195
-56.0953
-39.0533
-130.611
124.225
-50.6814
-64.7028
-123.24
45.0641
-61.5479
-42.5117
-51.2925
-52.2096
-33.3774
-33.6715
-38.1347
-29.5131
-28.4646
-27.1387
-28.6805
-27.7728
-32.6454
-33.7684
-34.4381
-33.2963
-75.1598
30.7984
-143.476
81.5946
-67.7536
-45.4987
-111.465
146.568
-56.3591
-49.7613
-57.9972
-59.6727
-31.0562
-29.7956
-33.4866
-29.8299
-34.4105
-31.8992
-40.776
-29.6863
-34.2467
-31.829
-32.5866
-34.484
-50.7313
-64.3527
-123.229
44.5367
-56.2478
-39.1815
-130.576
124.519
-61.5273
-42.508
-51.2867
-52.1974
-28.3205
-26.9424
-28.6202
-27.5926
-33.5435
-32.448
-38.3715
-29.4469
-32.6282
-33.7667
-34.4914
-33.2552
-28.4053
-42.7079
-32.6893
-34.6237
-30.9392
-31.3261
-31.39
-31.1948
-29.9031
-30.5546
-29.2734
-31.1316
-32.6518
-33.2281
-33.9591
-32.35
-34.5458
-33.6961
-33.972
-34.0811
-29.7883
-30.9797
-30.7
-31.0433
-31.2051
-34.5471
-25.5109
-37.0287
-35.2902
-35.9224
-34.843
-35.3017
-25.9789
-22.686
-24.8076
-14.5046
-36.3544
-34.2361
-32.8825
-37.2806
-45.6923
-44.8649
-44.0818
-52.3296
2.12227
29.2381
9.21428
9.47512
-41.2964
-39.5517
-40.3415
-43.7011
-38.3193
-36.8021
-36.5952
-37.6033
-39.6453
-40.5158
-39.3579
-42.355
-50.2086
-52.2856
-52.7324
-53.2825
-28.4798
-42.6676
-32.6674
-34.6149
-32.6539
-33.2369
-33.9672
-32.3551
-30.9402
-31.3158
-31.3888
-31.3721
-29.9038
-30.5536
-29.2733
-31.131
-34.5383
-33.7212
-34.0012
-34.1265
-35.2324
-35.9282
-34.8427
-35.321
-29.7578
-30.9732
-30.7042
-31.0482
-31.2224
-34.6006
-25.4356
-37.0349
-25.9685
-22.679
-24.7905
-14.4932
2.24646
29.3961
9.3339
9.33927
-36.3477
-34.2318
-32.8793
-37.2754
-45.6905
-44.8587
-44.0818
-52.3249
-41.2893
-39.5598
-40.3386
-43.6859
-50.1904
-52.2881
-52.7235
-53.2861
-38.2998
-36.7972
-36.5909
-37.6068
-39.673
-40.5363
-39.3843
-42.3686
-70.1795
-46.6395
-55.8387
-55.5105
150.261
170.901
201.209
153.581
-75.9924
-59.6065
-67.4228
-67.5288
160.081
201.294
177.569
177.053
-33.3301
-32.8408
-35.9237
-30.8165
-42.6201
-44.7984
-47.5114
-41.8167
-34.537
-32.1157
-32.7299
-32.8426
-28.4826
-27.1095
-27.9155
-27.7949
-33.0319
-33.2766
-33.1321
-33.1396
-25.5436
-25.2582
-25.427
-25.3622
-32.7353
-32.8568
-36.7374
-30.4339
-33.4925
-33.5305
-33.8738
-33.4273
-63.7268
-40.8513
-50.8513
-50.844
184.702
179.142
187.081
187.02
-31.1612
-31.7124
-28.8655
-34.4189
-23.1295
-20.2152
-28.078
-15.9051
-30.6687
-32.6467
-31.4786
-31.4807
-24.7194
-24.6558
-24.9361
-25.0704
-34.3427
-33.5431
-33.3575
-34.5646
-35.9602
-35.8311
-37.0638
-34.5856
-70.1526
-46.6349
-55.817
-55.4976
150.261
169.699
153.197
198.806
-33.3432
-32.8482
-35.926
-30.8294
-42.6843
-44.8155
-47.4839
-41.8077
-34.5648
-32.2174
-32.9523
-32.8693
-28.2974
-26.8713
-27.7158
-27.5752
-32.7974
-32.9438
-36.8068
-30.4941
-33.5056
-33.5389
-33.8851
-33.4372
-31.1588
-31.71
-34.4165
-28.8478
-23.1131
-20.2032
-15.8971
-28.0602
-34.37
-33.5814
-34.5942
-33.4006
-35.9637
-35.8349
-34.59
-37.0666
-32.541
-33.4556
-33.0805
-32.7793
-31.3181
-31.5254
-31.347
-31.6136
-28.2366
-29.3773
-28.1795
-27.6909
-35.1897
-35.6662
-34.7811
-36.4802
-36.5748
-39.7457
-38.0581
-38.0515
-31.8989
-31.5024
-31.6361
-31.6386
-32.9566
-34.0032
-32.89
-34.2135
-35.8518
-34.9972
-35.2515
-35.6325
-33.5043
-32.4822
-32.9336
-32.9321
-35.2602
-34.5808
-34.8598
-34.8665
-39.4174
-37.5469
-37.9359
-38.9242
-56.6285
-66.5962
-65.5413
-58.1939
15.2057
2.4363
8.05778
8.0573
-96.6998
-92.4054
-104.847
-104.849
-57.0184
-60.6179
-58.3862
-58.3819
-40.8424
-37.8894
-38.7012
-38.6968
-32.5427
-33.4565
-33.0811
-32.7816
-31.3195
-31.5288
-31.3498
-31.616
-28.2314
-29.3748
-27.6825
-28.1725
-35.1873
-35.6641
-34.7793
-36.4784
-32.9624
-34.0085
-34.2209
-32.8957
-35.8583
-35.0069
-35.2613
-35.6409
-39.4194
-37.5493
-38.9247
-37.9404
-56.6267
-66.5915
-58.1915
-65.541
-70.3206
-58.6246
-56.1505
-46.2376
-29.7945
-28.1713
-33.4003
-28.7687
-27.0636
-28.1466
-27.2476
-27.1272
-67.607
-54.3278
-55.3296
-45.6866
-70.3244
-58.618
-56.1321
-46.2323
-67.5854
-54.3265
-55.3247
-45.6825
-27.0321
-28.1438
-27.2448
-27.1056
-29.7836
-28.1673
-33.3936
-28.7605
-80.1719
-64.8693
-69.5425
-59.3992
-79.9902
-64.8622
-69.5615
-59.4588
-37.5643
-36.2065
-39.2862
-37.8835
-37.5587
-36.196
-39.276
-37.8678
-70.7537
-55.1297
-52.9502
-43.8824
-4.07317
3.53749
-4.98579
3.21969
-4.07243
3.54078
-4.98371
3.22353
-70.7604
-55.1425
-52.9384
-43.869
179.793
160.316
202.758
139.785
144.621
131.774
157.292
166.471
130.356
144.456
167.189
157.124
161.216
180.058
137.51
203.728
-32.3316
-32.4811
-33.0339
-33.4037
-31.2783
-30.6908
-32.0945
-31.9195
-35.9025
-37.1034
-35.5338
-36.7631
-39.3739
-40.9135
-38.497
-39.5375
-32.3313
-32.4797
-33.0328
-33.4023
-39.3718
-40.9135
-38.4954
-39.5359
-35.9176
-37.1217
-35.5444
-36.7718
-31.2842
-30.6972
-32.099
-31.9244
-31.3243
-31.6509
-31.342
-31.5541
-31.6551
-31.3261
-31.5592
-31.3455
-33.2653
-32.4301
-32.8058
-32.206
-32.4293
-33.2634
-32.204
-32.8031
-82.809
-73.8223
-81.4534
-99.7679
-48.1563
-52.2674
-53.8034
-55.7375
-52.2654
-48.1498
-55.7339
-53.7995
-73.8372
-82.8158
-99.7831
-81.4501
-34.7133
-35.4184
-34.9044
-35.0957
-34.6001
-32.5
-32.6952
-31.4429
-33.6137
-32.5927
-32.936
-32.6227
-37.3314
-37.1995
-36.004
-36.2498
-34.7287
-35.426
-34.9191
-35.1068
-37.335
-37.2012
-36.0161
-36.2566
-33.8219
-32.691
-33.0504
-32.6975
-34.8876
-32.6709
-32.8431
-31.5536
-34.372
-34.8386
-34.3587
-34.734
-34.3834
-34.8611
-34.3781
-34.7611
-33.8741
-34.0544
-33.4635
-33.5637
-33.9294
-34.0505
-33.4454
-33.5566
-40.4367
-42.0463
-38.8297
-39.2315
-30.379
-31.4382
-31.1823
-32.3222
-30.3591
-31.4173
-31.1808
-32.3234
-40.4386
-42.0444
-38.833
-39.231
-29.0235
-28.6903
-27.5664
-27.1772
-28.472
-28.8596
-26.8818
-27.4618
-27.5947
-28.3478
-26.8965
-27.5536
-28.5013
-27.7821
-27.7631
-27.1109
-108.14
107.636
-127.12
64.9858
-66.0374
-80.6373
-39.2515
-32.1475
-35.8401
-31.5393
-36.6603
-35.4451
-127.153
98.2534
-130.697
66.4159
-81.9885
-87.9027
-36.8107
-30.4701
-30.3076
-29.2083
-33.3722
-31.4931
-127.067
65.2456
-107.824
107.517
-66.0069
-80.6532
-35.7619
-31.4255
-40.92
-32.4148
-37.201
-35.5627
-131.312
66.3066
-127.165
97.9937
-81.9695
-87.8996
-30.19
-29.0921
-36.4914
-30.2023
-33.4372
-31.3542
-28.2685
-29.8992
-30.6876
-30.9026
-28.9212
-30.3622
-31.9675
-31.7036
-37.6883
-34.3142
-27.7088
-31.1612
-21.2118
-36.3238
-37.0045
-33.442
-30.7496
-20.0421
-34.9272
-40.0683
-43.2111
-54.4566
-6.89972
-61.3116
-40.722
-44.2477
-38.4002
-39.6185
-38.4423
-41.0702
-46.3247
-47.611
-28.2613
-29.8975
-31.9667
-31.7023
-30.6883
-30.776
-28.9237
-30.3639
-37.681
-34.3096
-37.0001
-33.4439
-27.7243
-31.1664
-21.1274
-36.33
-30.7383
-19.995
-6.94822
-61.292
-34.9243
-40.0614
-43.2085
-54.4571
-40.7383
-44.2795
-46.3181
-47.6244
-38.4189
-39.6282
-38.5327
-41.0963
-112.35
147.716
-124.785
124.763
-89.7923
-89.8498
168.576
149.957
-158.867
32.1164
-157.953
30.568
-95.4309
-95.321
133.501
132.679
-41.6897
-46.576
-35.6698
-34.323
-36.5765
-31.1232
-44.0734
-38.7599
-39.8542
-28.9361
-38.8851
-29.0475
-37.5817
-36.8096
-29.0246
-29.0785
-32.3912
-28.2035
-32.3127
-28.033
-32.5034
-32.5324
-26.4764
-26.3566
-30.504
-32.8332
-37.0026
-35.581
-39.291
-29.692
-33.9074
-33.2682
-125.294
40.403
-125.26
39.9544
-82.2814
-82.2673
135.459
135.371
-37.3026
-36.3697
-25.5047
-19.5474
-28.3038
-33.5577
-29.9083
-19.1092
-28.7729
-26.3172
-28.766
-26.128
-30.1003
-30.1074
-25.2092
-25.3348
-34.7544
-35.4678
-37.8412
-39.7722
-33.9651
-35.8748
-37.6601
-35.2636
-112.369
147.761
-124.793
124.912
-89.8052
-89.8485
150.02
168.555
-41.6636
-46.4478
-35.6645
-34.3652
-36.5828
-31.1468
-44.0193
-38.7705
-40.6954
-28.8563
-39.2674
-28.9525
-37.4472
-38.073
-28.8958
-28.9334
-30.576
-32.8746
-37.0408
-35.6189
-39.3452
-29.7515
-33.9294
-33.2898
-37.2986
-36.3557
-25.5202
-19.5294
-33.5568
-28.2989
-19.1378
-29.8912
-34.7406
-35.4614
-37.8552
-39.7817
-35.8897
-33.9973
-35.265
-37.6637
-31.6204
-30.7767
-31.3526
-30.9264
-32.0861
-31.9162
-31.1087
-31.2602
-29.8874
-32.1535
-31.4834
-35.1086
-29.0613
-29.3655
-33.7221
-35.3384
-34.2215
-32.7243
-34.2946
-32.7314
-35.3544
-35.3066
-32.2649
-32.2681
-29.5492
-36.6811
-35.1463
-36.7544
-31.6659
-33.5732
-36.1396
-36.4152
-34.9023
-36.1782
-34.9065
-36.1876
-34.1544
-34.1524
-35.4951
-35.4994
-43.0934
-48.6931
-40.3023
-43.9669
-40.0031
-41.2881
-51.4568
-49.657
28.1387
27.6282
28.1132
27.6344
19.1385
19.1285
-31.6958
-31.5836
-53.1861
-51.8589
-53.1949
-51.8552
-55.0581
-55.0426
-45.9057
-45.9086
-31.6186
-30.7771
-31.3528
-30.9302
-32.0873
-31.9188
-31.1092
-31.2607
-29.8855
-32.1513
-31.4801
-35.1048
-29.3624
-29.0584
-33.7196
-35.3354
-29.5135
-36.6868
-35.1393
-36.7594
-33.5761
-31.6661
-36.1448
-36.4191
-43.0903
-48.6843
-40.3098
-43.9657
-41.2892
-40.0093
-49.6495
-51.4505
-40.3781
-40.0365
-35.7769
-30.6534
-29.4516
-35.0595
-31.3138
-29.4978
-40.3767
-40.0341
-35.778
-30.6596
-35.0585
-29.4461
-29.5091
-31.3181
-53.1654
-53.1642
-48.9173
-43.111
-48.9369
-43.1332
-41.6137
-41.6044
-32.665
-32.6583
-25.8418
-12.651
-12.6439
-25.831
-4.55668
-4.55436
189.545
175.969
205.845
206.174