# vtk DataFile Version 2.0
tet_velo
ASCII
DATASET UNSTRUCTURED_GRID
POINTS 29498 float
-0.809164 0.315 -2.095
-0.788236 0.475 2.345
-0.691855 0.975 -2.235
-0.605 1.595 2.1239
0.809165 0.315 -2.095
0.788303 0.475 2.345
0.691923 0.975 -2.235
0.605 1.595 2.12397
-0.888461 0.28206 -0.615
-0.862055 0.354823 0.865
-0.75024 1.269 -0.782033
-0.705355 1.45974 0.670933
0.869372 0.301172 -0.615
0.868868 0.348055 0.865
0.750307 1.26902 -0.78201
0.705417 1.45978 0.67098
-1.60321 -0.274509 -3.18284
-1.61298 -0.174176 -2.00966
-1.6579 -0.182284 -0.528961
-1.63214 -0.158586 0.957172
-1.57078 -0.0615071 2.43833
-1.55817 0.0422141 3.61375
-1.56639 0.152374 4.78502
-1.59309 0.152128 -3.26255
-1.59438 0.287546 -2.09232
-1.65215 0.312561 -0.616886
-1.60899 0.373236 0.860981
-1.52352 0.483412 2.33694
-1.52987 0.587035 3.51198
-1.55231 0.693853 4.68413
-1.53921 0.932665 -3.41439
-1.49724 1.06402 -2.24305
-1.53761 1.28417 -0.786044
-1.48006 1.45482 0.669047
-1.38606 1.59036 2.12657
-1.4544 1.68815 3.30275
-1.5175 1.78416 4.47926
-1.5109 2.28659 -3.66248
-1.49291 2.44843 -2.49519
-1.49383 2.71921 -1.04693
-1.48292 2.97829 0.395491
-1.46664 3.16946 1.84403
-1.48111 3.28399 3.01192
-1.51209 3.38251 4.18548
-0.817208 -0.259065 -3.18458
-0.806037 -0.151185 -2.0122
-0.854049 -0.192947 -0.528613
-0.846541 -0.176025 0.960598
-0.808992 -0.0722356 2.44431
-0.808199 0.0350221 3.61781
-0.818228 0.147551 4.78738
-0.823272 0.155883 -3.26308
-0.802362 0.582635 3.51534
-0.815916 0.690886 4.68592
-0.783866 0.897228 -3.41105
-0.74545 1.69043 3.30223
-0.796135 1.78551 4.47917
-0.75058 2.25924 -3.65917
-0.731838 2.4209 -2.49154
-0.738653 2.70929 -1.04473
-0.744314 2.984 0.395244
-0.742419 3.17849 1.84217
-0.75802 3.29135 3.01006
-0.783648 3.38782 4.18413
0.772689 -0.256477 -3.18457
0.829237 -0.146948 -2.01219
0.856918 -0.180875 -0.52861
0.843267 -0.177881 0.960602
0.785018 -0.0734014 2.44432
0.725157 0.0345079 3.61783
0.693894 0.147323 4.7874
0.741271 0.157319 -3.26308
0.691809 0.582262 3.51536
0.672327 0.690628 4.68594
0.702627 0.898065 -3.41104
0.63043 1.69021 3.30227
0.646244 1.78535 4.4792
0.755859 2.26085 -3.65916
0.767518 2.42238 -2.49152
0.758837 2.71072 -1.0447
0.722371 2.98498 0.395277
0.686916 3.17891 1.84221
0.673752 3.29162 3.0101
0.668173 3.38812 4.18417
1.56834 -0.268531 -3.18282
1.62171 -0.165036 -2.00965
1.6628 -0.166152 -0.528945
1.64446 -0.157725 0.957194
1.56936 -0.0636964 2.43836
1.50083 0.0412132 3.61379
1.4619 0.152073 4.78507
1.53673 0.156363 -3.26254
1.58999 0.293257 -2.09231
1.64623 0.330247 -0.616867
1.62749 0.372426 0.861011
1.53687 0.480787 2.33697
1.46285 0.585959 3.51203
1.43473 0.693439 4.68418
1.48436 0.935369 -3.41438
1.49631 1.06605 -2.24304
1.54203 1.2905 -0.786005
1.49403 1.45627 0.669114
1.39534 1.58886 2.12666
1.38199 1.68746 3.30282
1.39347 1.78393 4.47933
1.51574 2.29011 -3.66245
1.5231 2.45179 -2.49515
1.51477 2.72249 -1.04689
1.47241 2.98052 0.395554
1.42557 3.17048 1.8441
1.4094 3.28467 3.01199
1.40738 3.38322 4.18555
-0.783243 0.645 -2.19773
5.06639e-07 0.301362 -2.10864
-0.793173 0.354169 -1.355
-0.785702 1.035 2.32353
3.34978e-05 0.411515 2.40849
-0.882426 0.357632 1.605
3.40044e-05 1.02262 -2.28262
-0.719835 1.12079 -1.50852
0 1.61212 2.14106
-0.68 1.55219 1.39742
0.783411 0.645 -2.19787
0.793157 0.354198 -1.355
0.785746 1.035 2.32358
0.864316 0.375797 1.605
0.719899 1.1208 -1.5085
0.68006 1.55224 1.39748
-0.89889 0.29481 0.125
-0.864065 0.775531 -0.698517
-0.00954466 0.287596 -0.615
-0.853041 0.90728 0.767967
0.00340647 0.290973 0.865
-0.727319 1.36389 -0.05555
3.36304e-05 1.50225 -0.782022
3.07803e-05 1.64997 0.670957
0.821899 0.371835 0.125
0.863957 0.785099 -0.698505
0.853541 0.903916 0.76799
0.727383 1.36392 -0.0555149
-0.85725 0.710266 -1.43176
-0.860696 0.841406 0.034725
-0.846597 0.97114 1.50121
-0.00477208 0.306406 -1.355
-0.0030691 0.294987 0.125
0.00171998 0.352605 1.605
1.72555e-05 0.645 -2.39712
1.67489e-05 1.035 2.37296
3.38174e-05 1.16947 -1.50851
3.22054e-05 1.64219 -0.0555325
1.53902e-05 1.63728 1.39745
0.857888 0.715049 -1.43175
0.860568 0.844507 0.0347425
0.847098 0.969458 1.50124
-1.20177 0.301273 -2.09366
-0.807601 0.0819074 -2.0536
-0.816218 0.235441 -2.67904
-1.15588 0.479206 2.34097
-0.798614 0.201382 2.39466
-0.795299 0.528818 2.93017
-1.09455 1.01951 -2.23903
-0.737861 0.936114 -2.82302
-0.711846 1.69795 -2.36327
-0.995528 1.59268 2.12524
-0.675225 1.64271 2.71306
-0.67371 2.38674 1.98303
0.819201 0.0840261 -2.0536
0.775218 0.23616 -2.67904
1.19958 0.304128 -2.09366
0.78666 0.200799 2.39466
0.740056 0.528631 2.93018
1.16259 0.477893 2.34099
0.697275 0.936532 -2.82302
0.729721 1.69869 -2.36326
1.09412 1.02052 -2.23902
0.617715 1.6426 2.71312
0.645958 2.38696 1.98309
1.00017 1.59193 2.12532
-1.27031 0.29731 -0.615943
-0.871255 0.0445566 -0.571806
-1.23552 0.36403 0.862991
-0.854298 0.0893993 0.912799
-1.14392 1.27659 -0.784039
-0.744446 1.98915 -0.913381
-1.09271 1.45728 0.66999
-0.724835 2.22187 0.533089
0.863145 0.0601486 -0.571805
1.2578 0.31571 -0.615934
0.856068 0.0850875 0.912801
1.24818 0.360241 0.863006
0.754572 1.98987 -0.913357
1.14617 1.27976 -0.784007
0.713894 2.22238 0.533129
1.09972 1.45802 0.670047
-1.60809 -0.224343 -2.59625
-1.59815 -0.0611903 -3.22269
-1.21021 -0.266787 -3.18371
-1.63544 -0.17823 -1.26931
-1.60368 0.0566847 -2.05099
-1.20951 -0.162681 -2.01093
-1.64502 -0.170435 0.214106
-1.65503 0.0651384 -0.572923
-1.25598 -0.187615 -0.528787
-1.60146 -0.110047 1.69775
-1.62057 0.107325 0.909077
-1.23934 -0.167305 0.958885
-1.56447 -0.0096465 3.02604
-1.54715 0.210953 2.38763
-1.18988 -0.0668713 2.44132
-1.56228 0.0972939 4.19938
-1.54402 0.314624 3.56286
-1.18319 0.0386181 3.61578
-1.55935 0.423114 4.73457
-1.19231 0.149962 4.7862
-1.59374 0.219837 -2.67744
-1.56615 0.542397 -3.33847
-1.20818 0.154006 -3.26282
-1.62327 0.300053 -1.3546
-1.54581 0.675783 -2.16769
-1.63057 0.342898 0.122048
-1.59488 0.798366 -0.701465
-1.56626 0.428324 1.59896
-1.54452 0.914027 0.765014
-1.5267 0.535223 2.92446
-1.45479 1.03689 2.23176
-1.54109 0.640444 4.09805
-1.49214 1.13759 3.40736
-1.16612 0.584835 3.51366
-1.5349 1.23901 4.5817
-1.18411 0.69237 4.68502
-1.51822 0.998342 -2.82872
-1.52505 1.60963 -3.53844
-1.16154 0.914947 -3.41272
-1.51742 1.1741 -1.51455
-1.49508 1.75622 -2.36912
-1.50883 1.36949 -0.0584985
-1.51572 2.00169 -0.916489
-1.43306 1.52259 1.39781
-1.48149 2.21655 0.532269
-1.42023 1.63926 2.71466
-1.42635 2.37991 1.9853
-1.48595 1.73616 3.891
-1.46776 2.48607 3.15733
-1.09993 1.68929 3.30249
-1.51479 2.58333 4.33237
-1.15682 1.78483 4.47922
-1.50191 2.36751 -3.07883
-1.13074 2.27291 -3.66083
-1.49337 2.58382 -1.77106
-1.11237 2.43467 -2.49336
-1.48838 2.84875 -0.325722
-1.11624 2.71425 -1.04583
-1.47478 3.07387 1.11976
-1.11362 2.98114 0.395367
-1.47388 3.22672 2.42797
-1.10453 3.17397 1.8431
-1.4966 3.33325 3.5987
-1.11957 3.28767 3.01099
-1.14787 3.38517 4.18481
-0.811623 -0.205125 -2.59839
-0.82024 -0.0515913 -3.22383
-0.0222591 -0.257771 -3.18457
-0.830043 -0.172066 -1.2704
0.0115999 -0.149067 -2.01219
-0.850295 -0.184486 0.215993
0.00143466 -0.186911 -0.528611
-0.827767 -0.12413 1.70245
-0.00163701 -0.176953 0.9606
-0.808596 -0.0186067 3.03106
-0.0119871 -0.0728185 2.44431
-0.813213 0.0912865 4.20259
-0.805281 0.308829 3.56658
-0.0415211 0.034765 3.61782
-0.817072 0.419219 4.73665
-0.0621667 0.147437 4.78739
-0.803569 0.526555 -3.33707
-0.0410004 0.156601 -3.26308
-0.809139 0.636761 4.10063
-0.773906 1.13653 3.40878
-0.0552766 0.582449 3.51535
-0.806025 1.2382 4.58254
-0.0717942 0.690757 4.68593
-0.767223 1.57823 -3.53511
-0.0406196 0.897646 -3.41105
-0.770793 1.73797 3.8907
-0.751735 2.49089 3.15614
-0.0575102 1.69032 3.30225
-0.789891 2.58667 4.33165
-0.0749454 1.78543 4.47918
-0.741209 2.34007 -3.07535
0.00263958 2.26005 -3.65916
-0.735245 2.5651 -1.76813
0.0178403 2.42164 -2.49153
-0.741484 2.84664 -0.324742
0.0100921 2.71 -1.04472
-0.743367 3.08124 1.1187
-0.0109719 2.98449 0.39526
-0.75022 3.23492 2.42611
-0.027752 3.1787 1.84219
-0.770834 3.33959 3.5971
-0.042134 3.29149 3.01008
-0.0577371 3.38797 4.18415
0.800963 -0.201712 -2.59838
0.75698 -0.0495788 -3.22382
1.17052 -0.262504 -3.1837
0.843078 -0.163911 -1.2704
1.22547 -0.155992 -2.01092
0.850093 -0.179378 0.215996
1.25986 -0.173514 -0.528777
0.814143 -0.125641 1.70246
1.24386 -0.167803 0.958898
0.755088 -0.0194468 3.03107
1.17719 -0.0685489 2.44134
0.709526 0.0909157 4.20262
0.708483 0.308385 3.56659
1.11299 0.0378605 3.61581
0.683111 0.418976 4.73667
1.0779 0.149698 4.78623
0.721949 0.527692 -3.33706
1.139 0.156841 -3.26281
0.682068 0.636445 4.10065
0.661119 1.13624 3.40882
1.07733 0.584111 3.51369
0.659286 1.23799 4.58257
1.05353 0.692034 4.68506
0.729243 1.57946 -3.5351
1.09349 0.916717 -3.41271
0.638337 1.73778 3.89074
0.652091 2.49092 3.15618
1.00621 1.68883 3.30255
0.657209 2.58674 4.33168
1.01986 1.78464 4.47927
0.761689 2.34162 -3.07534
1.1358 2.27548 -3.6608
0.763178 2.56655 -1.76811
1.14531 2.43708 -2.49334
0.740604 2.84785 -0.324714
1.1368 2.7166 -1.0458
0.704643 3.08195 1.11874
1.09739 2.98275 0.395415
0.680334 3.23527 2.42615
1.05624 3.1747 1.84315
0.670963 3.33987 3.59713
1.04158 3.28815 3.01104
1.03778 3.38567 4.18486
1.59503 -0.216784 -2.59623
1.55254 -0.056084 -3.22268
1.64226 -0.165594 -1.2693
1.60585 0.0641103 -2.05098
1.65363 -0.161939 0.214125
1.65451 0.0820475 -0.572906
1.60691 -0.110711 1.69777
1.63598 0.10735 0.909103
1.53509 -0.0112416 3.02607
1.55312 0.208545 2.38766
1.48136 0.096643 4.19943
1.48184 0.313586 3.56291
1.44832 0.422756 4.73462
1.56336 0.22481 -2.67742
1.51055 0.545866 -3.33846
1.61811 0.311752 -1.35459
1.54315 0.679652 -2.16767
1.63686 0.351336 0.122072
1.59413 0.810372 -0.701436
1.58218 0.426606 1.59899
1.56076 0.914347 0.765063
1.49986 0.533373 2.9245
1.4661 1.03482 2.23182
1.44879 0.639699 4.09811
1.42242 1.13671 3.40743
1.4141 1.23868 4.58176
1.49033 1.00071 -2.82871
1.50005 1.61274 -3.53842
1.51917 1.17827 -1.51452
1.5097 1.75892 -2.36909
1.51803 1.37338 -0.0584453
1.5284 2.00649 -0.916447
1.44468 1.52256 1.39789
1.48322 2.2184 0.532334
[...]
POINT_DATA 29498
VECTORS point_vectors float
-4.4228 -4.13598 15.9576
0.177424 0.109792 0.36715
-2.45876 2.51071 4.49649
-0.149419 -0.373247 1.36197
4.40526 -4.12171 15.9552
-0.177355 0.104354 0.366636
2.45355 2.50489 4.49061
0.153317 -0.362554 1.3379
0.0387388 -0.103871 4.98783
-0.0133977 -0.0273657 0.327127
-7.81882e-19 -1.03385e-18 -1.30232e-17
0.000777072 0.00438199 0.0187141
-0.119246 -0.0584135 3.23976
-0.00852794 -0.0807203 1.01067
0 0 0
-0.000807359 0.00450383 0.0189328
-0.623134 -0.417282 20.0473
-0.985967 -0.69783 20.8591
-0.31067 -0.375694 21.507
0.129547 -0.149064 21.7202
0.71502 0.14047 21.7012
0.912199 0.309214 21.475
1.10011 0.0770499 21.1304
-0.768969 -0.338327 19.8612
-1.54639 -0.669556 20.7809
-0.528728 -0.477355 21.5757
0.0261534 -0.338576 21.7593
0.857875 -0.243051 21.88
1.41262 -0.267968 21.512
1.23499 -0.283866 21.2431
-0.806932 0.041741 19.6902
-2.02276 0.26616 20.3525
-1.39624 -0.237953 21.5875
-0.492893 -0.326867 21.8019
0.0227414 -0.604999 21.8457
0.429086 -0.787232 21.5494
0.613608 -0.570412 21.5604
-0.319125 0.224868 19.9727
-0.602464 0.47753 20.2835
-0.636786 0.431685 20.9096
-0.363774 0.0938071 21.402
-0.143802 -0.0825995 21.5061
0.0148669 -0.175439 21.262
0.118282 -0.0625325 21.0629
-0.661226 -0.938248 19.5712
-1.26493 -2.13831 21.4675
-0.187347 -0.429735 21.8543
0.243253 0.098612 21.9053
0.813436 1.10996 21.4028
1.49066 1.64077 20.5503
1.85205 1.30232 18.4456
-0.904584 -0.762113 19.0456
2.34144 0.627323 11.9178
2.20649 0.577045 15.5957
-0.891455 0.117871 18.7403
0.200971 -1.3721 16.0511
0.448221 -1.07254 15.0242
-0.264362 0.391941 19.7894
-0.530625 0.957281 20.0784
-0.572619 0.964994 20.9982
-0.31204 0.298831 21.5304
-0.127316 -0.0610589 21.7362
-0.0383447 -0.152561 21.489
0.0698992 -0.175033 21.053
0.664315 -0.987943 19.5351
1.28487 -2.07684 21.4293
0.195264 -0.393308 21.8887
-0.234492 0.0679747 21.8723
-0.793007 1.10026 21.4129
-1.46864 1.77584 20.4818
-1.88438 1.41777 17.3637
0.884712 -0.841213 18.9267
-2.15906 0.970769 9.51549
-2.38927 0.889194 14.1931
0.86083 0.130837 18.6611
0.206145 -1.23031 11.8526
-0.433015 -1.01106 12.2736
0.267855 0.38951 19.791
0.540932 0.942383 20.0862
0.585128 0.941094 21.0004
0.302881 0.29847 21.5285
0.116295 -0.0553167 21.6943
0.0449299 -0.136579 21.4183
-0.105717 -0.157162 21.0256
0.623038 -0.42394 20.0356
0.984868 -0.698769 20.8551
0.306466 -0.38095 21.5038
-0.124059 -0.157752 21.7066
-0.711232 0.135965 21.7019
-1.04039 0.322097 21.459
-1.20485 0.211114 21.2395
0.803115 -0.353752 19.8015
1.56247 -0.670265 20.7829
0.520127 -0.484411 21.5886
-0.0155425 -0.333772 21.745
-0.835148 -0.247119 21.8986
-1.55495 -0.36601 21.5414
-1.30579 -0.399319 20.8663
0.834885 0.0397325 19.6245
2.02349 0.270594 20.3687
1.38725 -0.239883 21.5849
0.484357 -0.325483 21.7929
-0.0136422 -0.594109 21.8319
-0.398827 -0.813709 21.6908
-0.530047 -0.535542 22.4124
0.318353 0.22243 19.976
0.593781 0.457856 20.2909
0.631386 0.420958 20.9008
0.361381 0.0959192 21.3917
0.13632 -0.0758487 21.5424
-0.00314762 -0.152232 21.3577
-0.15685 -0.105588 21.0137
-1.05941 -0.105228 2.01411
1.58127e-05 -0.00434867 0.0353276
-3.0015e-18 2.07699e-18 -1.97994e-17
0.00829104 -0.100817 0.0624835
-0.00178945 0.0613616 0.204947
0.102669 0.0485998 2.75666
0.0129802 0.459935 1.00207
-0.246441 -0.0331268 0.445685
-0.0054129 0.218613 -0.0167269
-0.00760306 0.00572051 0.660682
1.07703 -0.108237 2.05213
0 0 0
-0.00818101 -0.105 0.0629849
-0.0557289 0.0279463 1.73988
0.24506 -0.0329204 0.441769
0.00652718 0.00796855 0.657673
0.126361 -0.112989 6.60117
4.40651e-05 0.000570333 0.010595
0.000206968 -0.00129322 0.0316409
0 0 0
-0.0016769 0.0111529 0.0787732
1.78932e-05 8.71793e-05 0.000258448
0.000113444 0.0785813 0.134867
-4.6409e-05 0.00021072 0.0250674
-0.010487 -0.000670976 0.540907
-4.16247e-05 0.000737745 0.0180271
0 0 0
-1.14756e-05 5.54802e-05 0.000163394
-0.00117418 -0.0030048 0.0363243
0.000868947 0.00836823 0.069117
0 0 0
-1.6405e-07 -4.09355e-08 -5.44832e-06
0 0 0
0 0 0
0 0 0
0 0 0
3.76338e-06 0.000915424 0.00828188
-2.73165e-05 0.00354626 0.0655645
-5.23269e-05 -0.000271532 0.0165987
0.000976077 -0.00278977 0.0327361
-0.000801805 0.00791656 0.0654412
0 0 0
-2.62527 -1.47577 21.0618
-2.07276 -3.13278 22.0339
-2.60605 -2.35652 18.3529
1.43651 -0.0991159 19.5092
1.11426 1.39791 15.7893
1.80891 0.419917 7.64824
-3.95988 1.03598 20.1059
-2.60536 0.906107 17.1076
-1.46557 2.11089 19.604
-0.0637059 -0.597726 19.2351
-1.00415 -0.99935 9.84978
-0.265278 -0.0591426 21.7264
2.10317 -3.07957 21.9878
2.64963 -2.54689 18.1782
2.64063 -1.48258 21.0717
-1.11982 1.36463 15.9049
-1.64406 0.314432 6.11333
-1.42052 -0.0997721 19.7682
2.5993 1.01299 16.8271
1.47871 2.06465 19.624
3.96695 1.03771 20.1087
1.27302 -0.756144 7.82964
0.259697 -0.0360007 21.7252
0.0786113 -0.588966 19.3278
-0.501926 -0.726731 21.8828
0.00284442 -0.392002 21.1278
0.123026 -0.482884 21.3017
0.568754 0.114549 18.6523
-2.39141 -0.599805 22.0629
-1.86049 2.14551 21.1451
-0.794601 -0.506989 21.4328
-0.616137 0.467559 21.9611
-0.00599828 -0.298662 20.9368
0.455783 -0.738906 21.9294
-0.531078 -0.0137853 19.2385
-0.0867824 -0.484075 21.5242
1.86475 2.09716 21.1542
2.37964 -0.596875 22.0496
0.61138 0.479516 21.965
0.795328 -0.5208 21.5871
-0.916266 -0.629697 20.3288
-0.72225 -0.398918 19.9513
-0.705474 -0.655045 19.8271
-0.637852 -0.547085 21.3174
-1.22004 -0.726429 20.8019
-1.23169 -1.25328 21.0402
-0.081946 -0.257239 21.6276
-0.415562 -0.428602 21.5284
-0.268481 -0.478873 21.6748
0.374969 -0.0236588 21.7819
0.091647 -0.223874 21.7108
0.213928 -0.112946 21.8241
0.936383 0.237675 21.4314
0.84046 0.00021406 21.8015
0.932562 0.486227 21.8292
1.19079 0.231676 20.61
1.22235 -0.00889498 21.499
1.40531 0.818197 21.2929
1.28434 -0.135503 21.3511
1.40345 0.577061 21.5122
-1.30843 -0.55648 20.1057
-0.824611 -0.175704 19.7256
-0.905444 -0.539743 19.5046
-1.02997 -0.60495 21.3702
-1.99144 -0.315005 20.5804
-0.215143 -0.390915 21.6904
-0.927966 -0.502519 21.6496
0.339494 -0.288413 21.9105
-0.211039 -0.402179 21.8272
1.21653 -0.212506 21.7492
0.535969 -0.660175 21.867
1.27956 0.0532644 21.3506
1.07737 -0.780215 21.519
2.06231 0.188422 19.7979
0.94338 -0.396033 22.004
1.67926 -0.212742 18.8105
-1.44719 0.166173 19.7345
-0.534731 0.239481 19.822
-0.893347 0.110841 19.297
-1.78737 0.00755619 21.1186
-1.18013 0.648431 20.218
-0.862236 -0.311348 21.7932
-1.17608 0.455704 21.2028
-0.222338 -0.408496 21.834
-0.502929 0.0331272 21.6478
0.26486 -0.708004 21.7358
-0.131617 -0.211758 21.6336
0.559813 -0.794188 20.7803
0.08808 -0.319751 21.2371
0.434523 -1.16306 20.5758
0.186044 -0.333083 20.9609
0.466024 -0.768674 20.7645
-0.48351 0.362998 20.0702
-0.32155 0.320082 19.8765
-0.657154 0.484869 20.6504
-0.605345 0.72119 20.1897
-0.517616 0.266131 21.2287
-0.688845 0.703595 21
-0.240504 -0.0130277 21.472
-0.443725 0.231613 21.5203
-0.0524564 -0.108332 21.5097
-0.168377 -0.0543463 21.8451
0.0822023 -0.0801192 21.0311
-0.0132659 -0.159195 21.637
0.082196 -0.168767 21.1006
-1.22869 -1.87148 19.9137
-0.815929 -0.873068 19.289
-0.0156438 -1.33679 19.2065
-0.511811 -0.944867 21.7915
0.020576 -3.04094 21.9961
0.0236312 -0.125653 21.9249
0.0111215 -0.56371 21.6301
0.468455 0.460881 21.7155
-0.0111453 0.123402 21.1661
1.08993 1.46474 21.2227
-0.0096392 1.09931 19.9063
1.13451 1.22656 19.8638
2.25501 1.83035 17.2465
0.0828463 2.24309 19.1092
2.2508 1.25983 16.269
0.330644 1.79006 17.4141
-0.967894 -0.319418 18.7476
-0.0639961 -1.178 18.3683
2.80575 0.980167 15.0484
1.69579 -1.08525 7.58418
0.421193 2.27255 2.98122
1.41796 -1.32453 13.0551
0.419486 2.56995 8.30109
-0.471975 0.484938 19.3715
-0.0737035 0.201274 18.0418
0.0610545 -1.57106 14.5739
-0.0963822 -0.407384 21.4472
-0.149522 -0.50465 1.47824
0.00531263 -0.566991 20.9757
0.093638 -0.998276 12.1073
-0.41375 0.684213 19.8509
0.00128464 0.47151 19.6761
-0.630701 1.07059 20.5166
0.0188792 1.25248 19.9396
-0.433135 0.62774 21.324
0.00882317 1.37337 20.9626
-0.222641 0.0572255 21.6698
-0.00919677 0.460786 21.6342
-0.0679628 -0.106287 21.59
-0.00383874 -0.0273512 21.9758
-0.0962663 -0.16759 21.6624
-0.00215724 -0.16435 21.576
0.000205629 -0.156429 20.9698
1.23498 -1.90697 19.8893
0.807685 -0.936845 19.1949
0.69543 -0.688343 19.8134
0.530943 -0.934032 21.7979
1.24009 -1.22779 21.0494
-0.0221414 -0.0968292 21.8673
0.250408 -0.454419 21.6883
-0.457471 0.442478 21.7194
-0.196196 -0.129575 21.806
-1.04487 1.47963 21.2838
-0.928527 0.48692 21.8259
-0.962054 1.5165 19.7664
-2.0938 2.09173 15.2693
-1.48111 0.901552 21.285
-2.45066 1.53236 15.1299
-1.55037 0.809432 20.7477
0.939527 -0.343086 18.6101
0.931063 -0.586729 19.4388
-2.98645 1.54434 13.0421
-1.33468 -0.683706 3.31686
-2.31895 0.232348 18.8265
-1.36638 -0.821599 10.2668
-1.86951 0.0649262 17.6817
0.458604 0.498479 19.3545
0.919528 0.121524 19.2162
0.149262 -1.63278 12.5934
0.0984328 -0.390089 21.3902
-0.390184 -1.25052 20.1817
0.0283032 -0.518299 21.3186
-0.451343 -0.86466 18.4958
0.418688 0.678411 19.8557
0.32238 0.319597 19.8774
0.644633 1.04958 20.5209
0.605885 0.694212 20.2074
0.431566 0.626373 21.3181
0.686699 0.68155 21.0007
0.208815 0.0592501 21.6406
0.436643 0.238515 21.5204
0.0464895 -0.0986701 21.5158
0.157137 -0.0552035 21.8486
0.0162776 -0.142261 21.3519
0.0134245 -0.154873 21.6345
-0.0575507 -0.176097 21.0855
0.927801 -0.634282 20.3383
0.734076 -0.41041 19.9129
0.638817 -0.549937 21.3187
1.2257 -0.724377 20.8131
0.074257 -0.260874 21.6053
0.40547 -0.426374 21.5274
-0.368234 -0.0365778 21.7703
-0.0825407 -0.223423 21.694
-0.952529 0.257114 21.4364
-0.821741 -0.00429349 21.7964
-1.21072 0.258455 20.7405
-1.34641 0.0312445 21.5262
-1.39577 0.0157617 21.467
1.35205 -0.572773 20.0689
0.855037 -0.170232 19.6479
1.035 -0.601737 21.3846
2.00289 -0.31547 20.5814
0.197194 -0.392638 21.6788
0.921812 -0.509073 21.6566
-0.325647 -0.287882 21.8861
0.21017 -0.403657 21.8082
-1.24992 -0.234074 21.6947
-0.521963 -0.644558 21.8746
-1.55925 -0.136887 20.9645
-1.1005 -0.86991 21.7252
-1.14965 -0.640922 21.206
1.49325 0.181348 19.6882
0.535838 0.248317 19.8106
1.78 0.00486014 21.1252
1.16771 0.627905 20.2325
0.845702 -0.313298 21.7793
1.15622 0.439918 21.1984
0.220181 -0.400909 21.8207
0.500794 0.0295692 21.639
-0.219269 -0.723976 21.7817
0.145596 -0.203659 21.631
-0.566505 -0.670626 20.553
-0.0696669 -0.338212 21.2873
-0.205891 -0.418303 20.513
0.482813 0.35313 20.0794
0.648899 0.469296 20.6577
0.514724 0.264713 21.2234
0.235365 -0.00946727 21.4994
0.0558779 -0.100468 21.5627
-0.0707386 -0.112387 20.9965
-1.1059 -0.626418 20.2274
-1.80851 -2.26675 19.341
-1.13294 -1.10113 20.1546
-1.90332 -1.06918 19.6065
-0.831611 -0.621369 19.6496
-1.83699 -1.4952 21.0968
-0.805009 -0.594694 21.3277
-0.401913 -0.959884 21.2801
-0.647673 -0.806469 21.5253
-1.19492 -1.06601 21.7599
-0.339373 -0.591 21.7592
-0.132166 -0.314789 21.6546
0.261266 -0.0384601 19.8232
0.00111312 -0.260293 21.736
-0.084826 -0.546245 21.8111
0.26202 -0.294144 21.8081
0.397608 -0.145846 21.8351
0.769101 0.460816 17.6067
0.510869 0.119339 21.9392
0.552483 -0.31128 20.9178
1.33088 0.350241 21.351
1.1427 0.0242416 21.609
1.714 1.78671 16.0925
1.24725 0.7493 21.5058
1.89527 -0.036462 20.3121
2.0016 0.408686 20.3801
1.32438 0.204686 21.1866
2.28934 1.42574 16.2744
1.03757 0.478578 21.6056
2.22512 -0.100848 19.3565
1.71943 0.468235 19.4932
-1.49805 -0.253315 19.8702
-3.29501 -0.854924 16.8836
-2.12994 0.441949 18.9223
-0.972958 -0.250183 19.2932
-4.04534 -0.656853 20.7038
-1.51453 -0.461668 21.359
-2.86178 0.0305124 21.3821
-1.05153 -0.911563 21.6957
-0.490852 -0.437883 21.7622
-1.32927 -0.714333 21.8741
-0.0937613 -0.44878 19.5351
0.087359 -0.467436 21.9127
-0.387442 -0.388893 20.3046
0.76635 -0.798107 17.9215
0.793692 -0.734743 21.8133
-0.113022 -2.13548 4.21078
0.0296416 -0.85272 20.3273
1.57889 -1.21478 19.5695
0.996445 -0.610621 21.325
1.93086 -1.80405 10.7045
0.596403 -1.17122 21.1341
1.43493 -1.01827 18.8644
-0.859723 0.464177 19.8815
-0.928796 1.17359 19.1413
-0.465837 0.526575 19.9486
-0.559447 0.356035 19.5924
-1.45607 1.21705 19.9704
-1.2738 0.60479 20.7328
-1.63668 1.98752 20.3743
-0.68637 0.781321 20.5815
-1.58687 0.987028 21.2662
-0.843217 0.232846 21.5255
-1.19901 1.19765 22.0643
-0.547777 0.438787 21.2594
-0.61179 0.205124 21.8113
-0.27292 -0.124536 21.6768
-0.351698 0.130417 21.8374
-0.280017 0.0418033 21.8082
-0.211566 -0.186421 21.6826
-0.0450538 -0.29624 21.5525
-0.203382 -0.206735 21.6368
-0.0644048 -0.116981 21.7327
0.0291851 -0.41528 21.4363
0.162383 -0.500292 20.8663
-0.100499 -0.552508 21.3378
0.073043 -0.185719 21.1599
0.18238 -0.532587 20.1901
1.81032 -2.35686 19.3024
-0.0104464 -3.03566 19.5486
-0.091162 -4.98254 16.0336
-0.0372014 -1.31526 18.725
0.0230836 -4.26147 22.9837
0.405747 -0.927694 21.1972
0.0091764 -1.14576 21.9471
0.0202663 -0.346083 16.3045
-0.274182 0.0833579 19.1621
0.00679911 -0.216917 21.3534
-0.0557486 0.263985 14.143
-0.78602 0.414023 17.6081
-0.00748178 0.437853 20.4456
-0.0231221 0.927204 11.4355
-1.60471 1.85649 15.5051
0.0177247 1.56512 19.4722
-0.0209381 -0.105447 1.14157
0.0923 2.20292 10.533
-2.44484 1.95152 14.4578
0.282553 3.03189 18.5144
0.355941 3.49566 4.64803
0.367136 1.83858 13.6002
3.32533 -0.936204 16.4998
-0.0783707 1.9174 14.6424
-0.0692562 -0.584654 17.6231
0.374599 -1.64087 2.4625
-0.241873 1.71826 -3.0526
0.0797607 2.34829 -4.94064
-2.13196 -1.89787 6.19579
-0.363391 0.819181 3.08131
0.152802 1.98289 1.87427
0.923987 1.18662 19.1341
0.00539134 0.860246 19.68
-0.0170925 0.689745 19.0633
0.0253276 3.05562 19.2342
1.64556 1.95852 20.3863
0.011641 1.3605 20.469
0.0147853 3.39994 20.977
1.19976 1.19688 22.0632
-0.000869565 0.85698 21.3744
-0.00718434 0.817123 22.0863
0.343656 0.143453 21.8378
-0.00359889 0.157169 21.9479
-0.0130537 0.139666 21.7462
0.207521 -0.162575 21.6405
-0.00542328 -0.0819187 21.7967
-0.0389617 -0.231062 21.8567
0.151675 -0.518641 21.5788
-0.014453 -0.222834 21.271
-0.0414589 -0.400437 21.3857
1.12262 -0.635996 20.2343
1.14503 -1.13248 20.1613
1.98966 -1.12595 19.5244
0.848544 -0.676012 19.6031
1.84134 -1.47837 21.0962
0.808554 -0.596293 21.3318
0.648914 -0.797205 21.5399
1.19104 -1.07169 21.7813
0.30977 -0.573805 21.7838
0.119428 -0.309133 21.6409
-0.00893682 -0.245879 21.7217
0.00990852 -0.556674 21.6954
-0.224463 -0.304532 21.7819
-0.383917 -0.146735 21.8209
-0.497602 0.108639 21.9362
-0.538256 -0.313423 21.0281
-1.30893 0.34516 21.3965
-1.18102 0.0206433 21.6108
-1.25587 0.766909 21.6433
-1.95334 0.00404428 19.3653
-2.0276 0.55266 19.9232
-1.30462 0.249042 21.3752
-1.03771 0.60277 21.6503
-2.47665 -0.0856442 18.7499
-1.89825 0.731506 18.4455
1.54771 -0.254056 19.8333
2.18482 0.488117 18.8302
0.985321 -0.277437 19.198
4.04785 -0.650227 20.6997
1.51708 -0.460832 21.365
2.85708 0.0296817 21.377
1.03752 -0.943182 21.6973
0.475761 -0.448338 21.7514
1.31797 -0.697475 21.8504
0.108914 -0.455889 19.7425
-0.083879 -0.456733 21.9021
0.389854 -0.39178 20.3785
-0.759359 -0.801874 18.1363
-0.830081 -0.790535 21.7896
0.00403614 -0.783628 19.6601
-1.64014 -1.271 16.7883
-1.14514 -0.650683 21.1422
-0.562782 -1.43833 21.349
-1.41672 -1.13379 16.6659
0.860036 0.468697 19.8799
0.467917 0.519456 19.9533
0.559701 0.363666 19.5752
1.44812 1.18672 19.9829
1.25619 0.586079 20.7354
0.697001 0.756263 20.5816
1.57659 0.962113 21.2656
0.835603 0.223556 21.5215
0.546466 0.436416 21.2556
0.611833 0.2077 21.8091
0.269446 -0.122755 21.6624
0.288588 0.0468032 21.834
0.217691 -0.172579 21.6793
0.0496527 -0.285701 21.5508
0.07025 -0.109584 21.7294
0.0306841 -0.393561 21.5323
-0.101038 -0.423143 21.1109
-0.0755559 -0.189426 21.2797
-0.123663 -0.532108 20.4467
-1.53345 -1.16518 19.9007
-0.86021 -0.95148 21.6414
0.00462445 -0.390832 21.8105
0.647077 -0.0653552 21.791
1.68317 0.481957 21.1081
1.73089 0.407494 20.3283
-2.39464 -0.453601 19.0206
-2.12024 -0.930787 21.9647
-0.340256 -0.737308 20.5045
0.218921 -0.369291 18.7914
1.02557 -1.03322 18.8164
1.919 -1.24999 20.1733
-0.986322 0.748558 19.5502
-1.60257 1.14012 20.6322
-1.10507 0.580235 21.7804
-0.365424 -0.0254658 21.7699
-0.125412 -0.296074 21.6461
0.0102174 -0.440652 21.3816
-0.0496862 -4.16765 18.4862
0.00933058 -0.855238 17.6468
0.0242458 -0.0615732 14.5451
-0.0377552 0.355618 12.3986
0.00631713 1.28908 10.5741
0.272612 2.86394 11.1679
-0.120767 -1.48657 13.1881
-0.0876624 1.17056 -2.74055
0.174198 4.18518 -3.16803
-0.00743942 1.6838 18.6551
0.0211497 2.98428 20.0388
0.000175535 1.97757 22.2739
-0.00894695 0.319422 21.9072
-0.0191707 0.0742062 21.699
-0.0348289 -0.549534 21.0374
1.56938 -1.2201 19.8766
0.861803 -0.94474 21.6532
-0.0461397 -0.371984 21.7454
-0.623338 -0.0764846 21.8017
-1.74947 0.528679 20.8467
-1.95357 0.441691 19.7664
2.46325 -0.488851 18.915
2.12044 -0.934504 21.9691
0.321368 -0.773033 20.5153
-0.212415 -0.383646 19.0118
-0.970505 -1.03198 17.8221
-1.87235 -1.52292 18.159
0.984502 0.753952 19.5488
1.5933 1.10732 20.644
1.10205 0.574095 21.774
0.365772 -0.0193795 21.7637
0.150795 -0.278013 21.6536
-0.0531114 -0.552502 20.9445
-0.376431 -0.0408078 0.870283
-0.0110084 -0.0970152 0.593646
-0.0204449 -0.111899 1.49104
-0.0191531 -0.0384489 -0.0031292
0.00409191 -0.00982684 -0.00335688
0.0832849 0.0589406 0.981316
-1.41053 0.239656 1.84212
-0.0847477 1.14937 1.45489
-0.277162 0.0344871 1.04324
-0.0409612 -0.14254 0.12612
-0.421572 -0.0195442 0.315102
-0.0317178 -0.027508 1.2245
0.0108312 -0.0962432 0.590776
0.414459 -0.0448512 0.968148
0.0216732 -0.111272 1.50082
-0.00473377 -0.00987939 -0.0035852
0.0189598 -0.0405652 -0.00285936
-0.0931234 0.0513548 1.04613
0.0868216 1.15312 1.46541
1.4166 0.240086 1.8497
0.27695 0.0338012 1.04157
0.39675 -0.0068792 0.297662
0.0431698 -0.142408 0.122077
0.0289413 -0.0256285 1.219
-0.102422 -0.218156 4.59281
0.0503402 -0.0601819 6.07675
2.0479e-05 2.16952e-05 0.00810518
0 0 0
0.0711612 -0.0590898 1.84766
0.125556 -0.074256 1.4181
0 0 0
0.0304614 0.0156461 0.20062
-0.701335 -0.212125 0.852497
0.0145571 0.0313075 0.232957
7.56245e-06 4.61585e-05 0.000146874
-0.00840311 0.0185104 0.0333666
0.0229778 0.0317161 0.253784
-0.000233752 0.0142873 0.0594898
5.1207e-05 0.00020761 0.000822461
0.00272719 0.000355664 0.0305913
0.0125891 -0.0845414 2.53627
0 0 0
-0.0964582 0.0506163 1.64692
1.30893e-19 4.06064e-20 -8.67281e-17
-0.0596457 -0.0406158 1.25071
-0.000239961 0.000130808 0.00245223
-0.0317958 -0.0213587 0.371645
0 0 0
0.699477 -0.211228 0.84776
0.00823061 0.0181787 0.032653
-0.0169921 0.0351072 0.269941
-2.23058e-05 0.00013696 0.000437763
-0.0233143 0.0323694 0.252709
-0.00282557 0.000359229 0.030819
0.000103757 0.0157682 0.0632386
-4.45207e-05 0.000179923 0.000700007
-0.00133021 -0.00177582 0.0259154
0 0 0
-3.66933e-07 -6.74684e-08 -2.24962e-05
0 0 0
0 0 0
-7.78975e-06 -1.22831e-07 -3.17761e-05
0 0 0
0 0 0
-1.67696e-05 0.000627184 0.0128639
-0.00234238 -0.0638113 0.00682326
0.019068 0.016521 0.344499
0 0 0
-0.000315127 0.377587 0.133928
2.97435e-06 0.00445273 0.0244583
0 0 0
0 0 0
-0.00256647 -0.029156 0.00953516
-0.000258233 -0.000558186 0.0349243
0 0 0
0.00012008 -6.65096e-05 0.00388204
0 0 0
0.000852677 -0.00104705 0.0159977
-5.11657e-07 8.79164e-09 2.21339e-06
0 0 0
0 0 0
0 0 0
0 0 0
-0.0179782 0.0162121 0.323205
0 0 0
0 0 0
-0.000124396 -6.04916e-05 0.00354009
0 0 0
0 0 0
0 0 0
-8.07577e-05 -0.000324852 0.00627122
0.00030579 0.00481503 0.0453973
1.06962e-07 -4.24709e-09 2.61766e-05
0.000143757 0.000369933 0.0273365
0.000199981 0.0012857 0.0119824
0 0 0
-2.90196e-07 7.6455e-07 0.000220182
-1.76387e-08 1.18916e-06 3.24536e-05
0 0 0
0.000967534 0.00326913 0.0685165
0.00012409 0.000920278 0.0017204
2.534e-06 0.00366636 0.0406199
-3.28745e-07 1.48647e-06 6.88821e-05
0 0 0
0 0 0
8.96121e-07 0.000192396 0.00482606
0.00012928 -0.000682513 0.0119046
-0.000491845 0.00458893 0.0485013
-0.00024057 0.00160109 0.0135295
6.70314e-19 -1.80855e-17 -2.21395e-16
-0.000992253 0.00324049 0.0677814
0 0 0
0 0 0
-0.420461 -0.217624 1.46297
0.000251985 -0.000160098 0.044109
-0.00498579 -0.0145945 0.098224
0 0 0
0.0229659 0.0557525 0.172863
2.83513e-06 4.71013e-06 0.00166189
0 0 0
0 0 0
0 0 0
0 0 0
1.85101e-06 1.0653e-05 -0.000320333
-3.34001e-06 -3.48527e-07 -5.21328e-05
2.07829e-06 -2.32502e-07 -3.49217e-05