# vtk DataFile Version 2.0
tet_velo
ASCII
DATASET UNSTRUCTURED_GRID
POINTS 29498 float
-0.711989 0.105 -2.045
-0.645 0.105 2.16671
-0.677153 0.565 -1.985
-0.580764 1.005 2.055
0.711994 0.105 -2.045
0.645 0.105 2.16671
0.677153 0.565 -1.985
0.580764 1.005 2.055
-0.707886 0.086773 -0.641097
-0.686777 0.0855524 0.762807
-0.732166 0.79881 -0.638333
-0.71792 0.96336 0.708334
0.707892 0.0867711 -0.641097
0.686782 0.0855495 0.762807
0.732171 0.798814 -0.638333
0.717893 0.963333 0.708334
-1.4243 -0.320722 -3.14269
-1.42189 -0.245505 -2.04249
-1.41137 -0.260134 -0.637103
-1.37028 -0.299784 0.779799
-1.31933 -0.300448 2.18615
-1.31325 -0.2645 3.2911
-1.32348 -0.212098 4.38726
-1.42313 -0.0134652 -3.13326
-1.4229 0.089132 -2.03932
-1.41883 0.111875 -0.645069
-1.36747 0.112433 0.754329
-1.29289 0.124321 2.14967
-1.29755 0.160755 3.25381
-1.31698 0.210363 4.35184
-1.40934 0.547133 -3.09835
-1.4054 0.643465 -2.00204
-1.43342 0.825655 -0.646811
-1.38593 0.960458 0.704361
-1.26583 1.00699 2.06068
-1.28489 1.03657 3.16719
-1.31713 1.07321 4.27445
-1.39599 1.56485 -3.08902
-1.39624 1.68966 -2.00128
-1.40643 1.91451 -0.664609
-1.40176 2.12737 0.659724
-1.37451 2.25216 1.99699
-1.36024 2.30477 3.08598
-1.36066 2.34274 4.18698
-0.719122 -0.312226 -3.14638
-0.713012 -0.231527 -2.04787
-0.707803 -0.270531 -0.63638
-0.689686 -0.321121 0.787035
-0.662332 -0.319729 2.1988
-0.659875 -0.278955 3.29969
-0.666911 -0.222476 4.39223
-0.719796 -0.0148673 -3.1344
-0.65317 0.149 3.26089
-0.66506 0.201701 4.35558
-0.706857 0.51315 -3.09127
-0.641579 1.03322 3.16606
-0.667825 1.06973 4.2742
-0.690544 1.53717 -3.08202
-0.687876 1.66136 -1.99357
-0.701967 1.90201 -0.659961
-0.715753 2.13185 0.659166
-0.709253 2.25972 1.99301
-0.700201 2.30986 3.08201
-0.699742 2.34554 4.18409
0.696248 -0.312227 -3.14638
0.708123 -0.231528 -2.04787
0.703577 -0.270534 -0.636381
0.682604 -0.321124 0.787035
0.653013 -0.319731 2.1988
0.642532 -0.278957 3.29969
0.642147 -0.22248 4.39223
0.691011 -0.0148678 -3.1344
0.627704 0.148998 3.26089
0.632549 0.201697 4.35558
0.685402 0.513149 -3.09127
0.604035 1.03322 3.16606
0.61914 1.06973 4.2742
0.715869 1.53717 -3.08202
0.722793 1.66136 -1.99357
0.712836 1.90201 -0.659962
0.670892 2.13184 0.659166
0.625948 2.25971 1.99301
0.616902 2.30986 3.082
0.619294 2.34553 4.18409
1.40558 -0.320724 -3.14269
1.41741 -0.245507 -2.04249
1.41187 -0.260141 -0.637103
1.37478 -0.299793 0.779799
1.32423 -0.300454 2.18615
1.3068 -0.264505 3.2911
1.30575 -0.212105 4.38726
1.40229 -0.0134666 -3.13326
1.42011 0.0891315 -2.03932
1.42143 0.111868 -0.645069
1.3775 0.11242 0.754329
1.3052 0.124317 2.14967
1.28856 0.16075 3.25381
1.29325 0.210356 4.35184
1.39654 0.547132 -3.09835
1.40729 0.643466 -2.00204
1.43786 0.82565 -0.646811
1.39254 0.960431 0.704361
1.2704 1.00698 2.06068
1.26246 1.03657 3.16719
1.27742 1.0732 4.27445
1.41878 1.56485 -3.08902
1.42533 1.68965 -2.00128
1.41601 1.9145 -0.66461
1.36809 2.12735 0.659724
1.30857 2.25214 1.99699
1.28856 2.30476 3.08598
1.28733 2.34273 4.18698
-0.685141 0.335 -2.00557
2.5034e-06 0.101711 -2.04829
-0.707067 0.0987573 -1.34305
-0.606594 0.555 2.10457
0 0.0820432 2.18967
-0.675645 0.0855201 1.46476
0 0.641776 -2.06178
-0.797344 0.77459 -1.31167
0 1.03082 2.08082
-0.7105 1.04534 1.38167
0.685117 0.335 -2.00554
0.707071 0.098757 -1.34305
0.606595 0.555 2.10457
0.675648 0.0855174 1.46476
0.797352 0.774597 -1.31167
0.711048 1.04589 1.38167
-0.697342 0.0861529 0.0608549
-0.785727 0.442791 -0.639715
2.65872e-06 0.0828592 -0.641097
-0.781047 0.524456 0.73557
2.28392e-06 0.0822742 0.762807
-0.712728 0.86877 0.035
2.12051e-06 1.01443 -0.638333
-1.34396e-05 1.35662 0.708334
0.697343 0.086154 0.0608549
0.785727 0.442793 -0.639715
0.781052 0.524441 0.73557
0.712702 0.868743 0.035
-0.898546 0.388896 -1.32736
-0.783237 0.483624 0.0479275
-0.886235 0.539728 1.42321
2.58106e-06 0.0979146 -1.34305
2.47132e-06 0.0825649 0.0608549
1.14196e-06 0.0827993 1.46476
1.2517e-06 0.335 -2.20569
0 0.555 2.22471
1.06026e-06 0.85994 -1.31167
-5.65953e-06 1.31053 0.035
-6.71979e-06 1.21221 1.38167
0.898545 0.388896 -1.32736
0.78324 0.483617 0.0479275
0.886236 0.539721 1.42321
-1.06744 0.097066 -2.04216
-0.712501 -0.0632635 -2.04644
-0.715893 0.0450664 -2.5897
-0.968947 0.114661 2.15819
-0.653666 -0.107365 2.18276
-0.649085 0.127 2.7138
-1.04127 0.604233 -1.99352
-0.692005 0.539075 -2.53814
-0.682515 1.11318 -1.98928
-0.923299 1.006 2.05784
-0.611171 1.01911 2.61053
-0.645009 1.63236 2.024
0.710058 -0.0632639 -2.04644
0.701503 0.0450661 -2.5897
1.06605 0.0970657 -2.04216
0.649006 -0.107366 2.18276
0.636352 0.126999 2.7138
0.975099 0.114658 2.15819
0.681277 0.539075 -2.53814
0.699973 1.11318 -1.98928
1.04222 0.604233 -1.99352
0.5924 1.01911 2.61053
0.603356 1.63235 2.024
0.925584 1.00599 2.05784
-1.06336 0.0993239 -0.643083
-0.707844 -0.0918792 -0.638739
-1.02712 0.0989926 0.758568
-0.688232 -0.117784 0.774921
-1.08279 0.812232 -0.642572
-0.717067 1.35041 -0.649147
-1.05192 0.961909 0.706347
-0.716836 1.5476 0.68375
0.705734 -0.0918814 -0.638739
1.06466 0.0993198 -0.643083
0.684693 -0.117787 0.774921
1.03214 0.0989848 0.758568
0.722504 1.35041 -0.649147
1.08502 0.812232 -0.642572
0.694393 1.54759 0.68375
1.05522 0.961882 0.706347
-1.4231 -0.283113 -2.59259
-1.42371 -0.167093 -3.13797
-1.07171 -0.316474 -3.14453
-1.41663 -0.25282 -1.33979
-1.42239 -0.0781866 -2.0409
-1.06745 -0.238516 -2.04518
-1.39083 -0.279959 0.0713481
-1.4151 -0.0741298 -0.641086
-1.05958 -0.265333 -0.636742
-1.34481 -0.300116 1.48298
-1.36888 -0.0936755 0.767064
-1.02999 -0.310452 0.783417
-1.31629 -0.282474 2.73863
-1.30611 -0.0880635 2.16791
-0.990833 -0.310089 2.19248
-1.31837 -0.238299 3.83918
-1.3054 -0.0518721 3.27246
-0.986562 -0.271727 3.29539
-1.32023 -0.000867345 4.36955
-0.995196 -0.217287 4.38974
-1.42301 0.0378334 -2.58629
-1.41623 0.266834 -3.11581
-1.07146 -0.0141663 -3.13383
-1.42086 0.100503 -1.34219
-1.41415 0.366299 -2.02068
-1.39315 0.112154 0.0546299
-1.42613 0.468765 -0.64594
-1.33018 0.118377 1.452
-1.3767 0.536445 0.729345
-1.29522 0.142538 2.70174
-1.27936 0.565658 2.10518
-1.30726 0.185559 3.80283
-1.29122 0.598665 3.2105
-0.97536 0.154878 3.25735
-1.31705 0.641785 4.31314
-0.991018 0.206032 4.35371
-1.40737 0.595299 -2.55019
-1.40266 1.05599 -3.09369
-1.0581 0.530141 -3.09481
-1.41941 0.73456 -1.32442
-1.40082 1.16656 -2.00166
-1.40967 0.893056 0.028775
-1.41993 1.37008 -0.65571
-1.32588 0.983726 1.38252
-1.39384 1.54392 0.682043
-1.27536 1.02178 2.61394
-1.32017 1.62958 2.02884
-1.30101 1.05489 3.72082
-1.32257 1.67067 3.12659
-0.963235 1.0349 3.16663
-1.33889 1.70797 4.23071
-0.992475 1.07147 4.27432
-1.39611 1.62725 -2.54515
-1.04327 1.55101 -3.08552
-1.40133 1.80209 -1.33294
-1.04206 1.67551 -1.99742
-1.40409 2.02094 -0.00244249
-1.0542 1.90826 -0.662285
-1.38814 2.18977 1.32836
-1.05876 2.12961 0.659445
-1.36738 2.27847 2.54149
-1.04188 2.25594 1.995
-1.36045 2.32376 3.63648
-1.03022 2.30732 3.08399
-1.0302 2.34414 4.18554
-0.716067 -0.271876 -2.59713
-0.719459 -0.163547 -3.14039
-0.0114372 -0.312226 -3.14638
-0.710407 -0.251029 -1.34213
-0.00244486 -0.231527 -2.04787
-0.698744 -0.295826 0.0753273
-0.0021127 -0.270533 -0.63638
-0.676009 -0.320425 1.49292
-0.00354121 -0.321123 0.787035
-0.661103 -0.299342 2.74924
-0.00465962 -0.31973 2.1988
-0.663393 -0.250716 3.84596
-0.656522 -0.0649773 3.28029
-0.00867123 -0.278956 3.29969
-0.665985 -0.010388 4.3739
-0.0123817 -0.222478 4.39223
-0.713327 0.249141 -3.11284
-0.0143924 -0.0148675 -3.1344
-0.659115 0.17535 3.80824
-0.647374 0.591111 3.21347
-0.0127326 0.148999 3.26089
-0.666442 0.635715 4.31489
-0.0162555 0.201699 4.35558
-0.698701 1.02516 -3.08665
-0.0107277 0.51315 -3.09127
-0.654702 1.05148 3.72013
-0.67089 1.67154 3.12403
-0.0187716 1.03322 3.16606
-0.683783 1.70763 4.22915
-0.0243423 1.06973 4.2742
-0.68921 1.59927 -2.53779
0.0126626 1.53717 -3.08202
-0.694922 1.78169 -1.32676
0.0174582 1.66136 -1.99357
-0.70886 2.01693 -0.000397492
0.00543458 1.90201 -0.659961
-0.712503 2.19578 1.32609
-0.0224302 2.13184 0.659166
-0.704727 2.28479 2.53751
-0.0416526 2.25971 1.99301
-0.699971 2.3277 3.63305
-0.0416494 2.30986 3.082
-0.0402239 2.34554 4.18409
0.702185 -0.271877 -2.59713
0.69363 -0.163547 -3.14039
1.05091 -0.316475 -3.14453
0.70585 -0.251031 -1.34213
1.06277 -0.238518 -2.04518
0.693091 -0.295829 0.0753273
1.05772 -0.265337 -0.636742
0.667808 -0.320428 1.49292
1.02869 -0.310459 0.783417
0.647773 -0.299344 2.74924
0.988624 -0.310093 2.19248
0.64234 -0.250718 3.84596
0.635118 -0.0649794 3.28029
0.974668 -0.271731 3.29539
0.637348 -0.0103912 4.3739
0.973948 -0.217292 4.38974
0.688207 0.249141 -3.11284
1.04665 -0.0141672 -3.13383
0.630127 0.175348 3.80824
0.61587 0.591109 3.21347
0.958131 0.154874 3.25735
0.625845 0.635712 4.31489
0.9629 0.206027 4.35371
0.700635 1.02516 -3.08665
1.04097 0.530141 -3.09481
0.611588 1.05147 3.72013
0.610469 1.67154 3.12403
0.933247 1.03489 3.16663
0.619217 1.70763 4.22915
0.948282 1.07146 4.27432
0.719331 1.59927 -2.53779
1.06733 1.55101 -3.08552
0.717815 1.78168 -1.32677
1.07406 1.67551 -1.99742
0.691864 2.01692 -0.000397577
1.06442 1.90826 -0.662286
0.64842 2.19577 1.32609
1.01949 2.1296 0.659445
0.621425 2.28478 2.53751
0.967258 2.25593 1.995
0.618098 2.32769 3.63305
0.95273 2.30731 3.08399
0.95331 2.34413 4.18554
1.4115 -0.283116 -2.59259
1.40393 -0.167095 -3.13797
1.41464 -0.252824 -1.33979
1.41876 -0.078188 -2.0409
1.39332 -0.279967 0.0713481
1.41665 -0.0741361 -0.641086
1.34951 -0.300124 1.48298
1.37614 -0.0936864 0.767064
1.31552 -0.28248 2.73863
1.31472 -0.0880688 2.16791
1.30628 -0.238305 3.83918
1.29768 -0.0518777 3.27246
1.2995 -0.00087454 4.36955
1.4112 0.0378325 -2.58629
1.39941 0.266833 -3.11581
1.42077 0.1005 -1.34219
1.4137 0.366299 -2.02068
1.39947 0.112144 0.0546298
1.42965 0.468759 -0.64594
1.34135 0.118368 1.452
1.38502 0.536425 0.729345
1.29688 0.142533 2.70174
1.2878 0.565651 2.10518
1.2909 0.185553 3.80283
1.27551 0.598659 3.2105
1.28534 0.641777 4.31314
1.40192 0.595299 -2.55019
1.40766 1.05599 -3.09369
1.42258 0.734558 -1.32442
[...]
POINT_DATA 29498
VECTORS point_vectors float
-0.778009 -3.79742 7.02161
0.0370643 0.144782 1.11633
-1.20374 0.966882 2.68118
0.166565 0.15129 0.123139
0.77729 -3.79146 7.0172
0.00267686 0.214834 1.24191
1.20648 0.964833 2.68241
-0.023437 0.00286148 0.161271
-0.000862536 -0.000160417 0.0125619
0.000228426 -3.81204e-06 0.0151546
-0.000601985 -0.000671134 0.00237981
0.00616898 0.022236 0.0484261
0.000910846 -0.000161048 0.0126059
-0.000110532 -2.21808e-06 0.0152654
0.000686817 -0.000764105 0.00271458
-0.00599014 0.0217705 0.0483306
-0.570655 -0.305387 19.8117
-1.30206 -0.93123 20.5053
-0.383283 -0.398713 21.3627
-0.0177738 -0.142468 21.514
0.432251 0.326012 21.5315
0.752413 0.461678 21.1548
0.853745 0.474811 20.5763
-0.712614 -0.23952 19.6957
-1.97291 -0.825559 20.3859
-0.518081 -0.520776 21.4712
-0.0993063 -0.347491 21.5849
0.791331 0.27193 21.2483
1.25731 0.287241 21.4337
1.12771 0.435543 20.9824
-0.822391 0.0501198 19.5561
-2.41146 0.286352 20.2223
-1.25799 -0.363302 21.3672
-0.676097 -0.276689 21.8178
0.503969 -0.422046 21.5319
1.04694 -0.609311 21.4278
1.059 -0.376371 20.6235
-0.496597 0.400761 19.8508
-0.913503 0.736469 20.271
-0.895445 0.600619 20.9954
-0.36784 0.200296 21.481
0.109632 -0.194207 21.4559
0.291416 -0.396433 21.1359
0.248755 -0.360267 20.8602
-0.540737 -0.63884 19.3479
-1.25247 -3.20077 20.9526
-0.279133 -0.455141 21.7709
-0.0762036 -0.093803 21.3226
-0.00293036 0.560853 20.7865
0.281854 1.00072 21.1592
0.425842 1.02206 19.0481
-0.702373 -0.566161 18.9726
0.31398 1.63509 8.17431
1.0066 0.891915 10.8419
-0.912113 0.0850375 18.5831
1.34515 -0.0276618 7.66708
1.43813 -0.740933 13.6641
-0.404417 0.689856 19.4887
-0.881306 1.67133 19.9807
-1.00666 1.51428 20.9529
-0.36187 0.562652 21.8626
0.0638195 -0.316166 21.6307
0.220108 -0.521391 21.2349
0.231562 -0.443973 20.7271
0.520783 -0.644787 19.335
1.24491 -3.21372 20.9774
0.293749 -0.452967 21.7802
0.115814 -0.0812551 21.3252
0.0993145 0.732231 20.8906
-0.126681 1.30664 21.1448
-0.295613 1.20765 19.2474
0.692011 -0.574511 18.94
-0.42857 1.6884 9.37676
-1.10315 1.2225 12.0579
0.895454 0.0906999 18.5523
-1.07168 -0.532936 7.10776
-1.40789 -0.923347 12.8774
0.416267 0.678371 19.5029
0.921207 1.624 20.0003
1.02159 1.4932 20.9612
0.372178 0.588085 21.8888
-0.0386445 -0.353936 21.6296
-0.152899 -0.595735 21.1866
-0.191215 -0.501119 20.8206
0.578966 -0.316719 19.8049
1.31408 -0.944874 20.5102
0.391182 -0.396334 21.3718
0.0279053 -0.12523 21.5468
-0.476288 0.404771 21.5726
-0.847674 0.518848 21.0424
-0.851878 0.536205 20.4356
0.725847 -0.250202 19.6811
1.98826 -0.834932 20.389
0.528581 -0.51846 21.4813
0.104452 -0.333529 21.6317
-0.93128 0.350662 21.3818
-1.37858 0.366056 21.3315
-1.17455 0.449202 20.8785
0.832916 0.0515434 19.5469
2.40927 0.282835 20.2278
1.26186 -0.369252 21.3798
0.677094 -0.29065 21.8349
-0.59215 -0.532084 21.69
-1.14904 -0.712251 21.2725
-1.09606 -0.504747 20.4965
0.498986 0.391834 19.8652
0.9134 0.71255 20.2812
0.897767 0.589244 21.0015
0.386377 0.198451 21.5209
-0.0990477 -0.242028 21.4885
-0.275618 -0.450688 21.0849
-0.222785 -0.40029 20.9045
-0.0115986 0.000677592 0.00997008
1.01892e-06 -0.0055985 0.0483854
-0.0112326 0.00154022 0.0720716
-0.0298378 0.0503645 -0.0340226
0.04736 0.0472969 0.24504
-0.0056402 0.00165841 0.0894289
0.000127384 0.0929179 0.183359
-0.119637 -0.0418498 0.412045
0.0344391 0.0305317 -0.13095
0.115357 0.153427 0.485366
0.00623867 0.000358579 0.0053677
0.0114264 0.00156817 0.0724254
0.0258214 0.0169706 -0.0280006
0.0076765 0.00207933 0.0919043
0.120348 -0.0424074 0.414691
-0.11055 0.147318 0.514335
3.89333e-05 1.51763e-06 0.00663635
0.000221949 -0.000268639 0.00349484
4.27841e-06 -4.99088e-05 0.00367756
0 0 0
2.00549e-05 -2.4723e-06 0.0034357
0 0 0
0.000240756 0.0031815 0.0060362
1.57805e-05 -8.06161e-06 0.00275481
-1.87577e-06 2.43744e-06 0.00663728
-0.000222179 -0.000276887 0.00355486
0 0 0
0 0 0
-8.64814e-06 0.00014297 0.0015557
0.000143252 0.00203775 0.00951523
0.000319037 0.00257923 0.0132405
5.86518e-09 5.07648e-09 4.1217e-06
1.91311e-08 -6.84941e-09 5.68002e-06
1.12774e-08 8.96191e-10 8.56994e-07
0 0 0
-1.17335e-05 -5.6961e-05 1.31239e-06
1.06017e-05 0.00260905 0.0168433
1.06816e-05 0.00192933 0.0106552
0.000381792 0.001645 -0.00355117
8.44542e-06 0.000140341 0.00152657
-0.000142322 0.00207084 0.00953527
-0.000335773 0.00256551 0.0137467
-3.83876 -2.43107 19.9374
-1.85502 -5.26184 21.3554
-1.97902 -1.7985 17.9139
0.591345 1.24955 13.3679
-0.302651 0.697673 14.695
-0.933522 0.618003 3.5437
-5.02967 1.26933 19.3537
-2.80172 0.823705 16.6281
-2.15901 3.10952 19.4248
1.05247 0.633791 14.2501
0.736547 0.922121 3.92946
0.348865 -0.678669 21.6245
1.84363 -5.25793 21.3793
1.98267 -1.8455 17.8618
3.86052 -2.43953 19.9343
0.470673 0.907633 15.0354
0.541779 0.764177 4.43206
-0.759797 1.55242 14.189
2.81524 0.839936 16.5613
2.19977 3.05334 19.4424
5.02023 1.24895 19.3764
-0.37911 0.239749 3.80569
-0.290103 -0.796233 21.4178
-1.03886 0.318627 14.6199
-0.0645353 0.233164 17.8537
-0.529072 -0.18046 16.1043
-0.070131 0.0620577 15.5933
-0.0770091 -0.00526379 15.3191
-1.79848 -1.26133 20.3876
-2.76599 2.02525 20.7295
-0.989747 -0.239127 19.541
-0.865579 0.782427 22.4623
0.5469 -0.182303 16.1037
0.0793412 0.233371 17.9139
0.12611 0.00105503 15.3295
0.0893689 0.0942166 15.8143
2.77366 1.98712 20.7469
1.81584 -1.25929 20.4541
0.87972 0.790709 22.4858
1.02317 -0.324478 19.8394
-0.967983 -0.607196 19.95
-0.649423 -0.28689 19.7579
-0.604937 -0.486557 19.5954
-0.8277 -0.705904 21.2687
-1.6235 -0.936011 20.451
-1.61869 -1.87405 20.5532
-0.164551 -0.247604 21.4194
-0.437227 -0.460103 21.4132
-0.293584 -0.407749 21.555
0.195029 0.0766315 21.6206
-0.0381347 -0.229577 21.5478
-0.00475232 -0.0945284 21.5393
0.608849 0.434782 21.3467
0.607608 0.337152 21.5028
0.303012 0.578718 21.4661
0.825674 0.514022 21.0214
0.991075 0.387704 21.2788
0.509877 0.836162 21.1967
0.990727 0.455177 20.7793
0.742839 0.871083 20.8164
-1.30909 -0.497181 19.7325
-0.786441 -0.121618 19.6042
-0.767376 -0.403127 19.3709
-1.2659 -0.768579 21.4498
-2.44651 -0.373253 20.2713
-0.238776 -0.445035 21.527
-0.814497 -0.584426 21.4658
0.2816 -0.0420736 21.6018
-0.357428 -0.428644 21.5094
0.957392 0.427766 20.8436
0.886267 -0.13457 20.8923
1.49121 0.25751 20.0131
1.28184 -0.151625 21.2102
1.23012 1.30474 15.3959
1.46775 -0.0215481 20.9007
1.2698 0.71764 16.4176
-1.57358 0.157255 19.5567
-0.716954 0.29927 19.6671
-0.941639 0.0565238 19.1258
-1.87175 -0.0637797 21.3627
-1.58435 0.795171 20.2102
-1.01847 -0.430558 21.5969
-1.33697 0.336908 21.1643
-0.0727269 -0.273813 21.9568
-0.603302 0.125469 21.7285
0.720045 -0.513645 21.5143
0.240363 -0.303746 21.5852
1.14994 -0.564392 21.0003
0.525662 -0.518623 21.1168
1.41839 -0.355958 18.2107
0.429248 -0.513363 20.9977
1.38369 -0.46547 20.0802
-0.733679 0.593436 19.9827
-0.513431 0.543121 19.6651
-0.956216 0.710864 20.6985
-1.00971 1.17185 20.1209
-0.702085 0.433662 21.3359
-1.03028 0.976104 21.0212
-0.0894578 -0.00910016 21.4934
-0.419018 0.376985 21.657
0.202429 -0.286081 21.2969
0.119216 -0.258644 21.4973
0.26736 -0.357225 21.0473
0.263772 -0.496169 21.135
0.263043 -0.474373 20.8808
-1.13565 -1.70715 19.1788
-0.630275 -0.631615 19.1504
-0.00211799 -0.911572 19.0423
-0.429511 -1.09713 22.0195
-0.00251977 -3.5602 21.8099
-0.168725 -0.229079 21.4197
0.00434148 -0.610644 21.5723
-0.0643326 0.185996 21.0834
0.0211672 -0.165101 20.602
0.0844792 0.749164 20.4455
0.117365 0.328993 20.1268
0.537142 1.19277 19.8149
0.00519525 1.31986 13.9782
0.235515 0.883412 20.6676
0.716221 0.956986 14.945
0.0409284 1.06256 14.7892
-0.846083 -0.308045 18.6563
-0.00773964 -0.796554 18.4809
0.80641 1.57991 9.75774
0.717075 0.45454 2.91073
-0.0926782 0.0421325 -0.650264
2.04479 0.315163 7.7531
-0.0251368 0.904292 6.92925
-0.661838 0.623847 18.9995
-0.00781242 0.166919 17.8632
1.67137 -0.732013 10.7016
0.603528 -1.05739 21.0823
0.255643 -0.862101 2.20186
0.607021 -0.98889 20.4606
0.00859832 -2.44814 6.64625
-0.660512 1.22378 19.5509
0.00925071 0.852 19.3011
-0.957558 1.59974 20.5418
0.0314294 2.14206 19.8104
-0.76522 1.22536 21.5672
0.0184222 2.24228 20.8243
-0.0720129 -0.0128181 21.7779
0.00555431 0.802365 22.0443
0.150021 -0.463999 21.4657
0.0296876 -0.384998 21.6443
0.187498 -0.674087 20.8451
0.0395818 -0.658542 21.1923
-0.0101744 -0.844705 20.8955
1.12247 -1.74197 19.1787
0.617753 -0.64605 19.1459
0.604424 -0.485236 19.589
0.436569 -1.09154 22.0392
1.62828 -1.88939 20.5637
0.1914 -0.224824 21.4178
0.30327 -0.40164 21.5708
0.130854 0.228346 21.1236
0.0306482 -0.0714708 21.5757
-0.00899688 1.01991 20.5797
-0.314676 0.733195 21.5516
-0.507572 1.33146 19.9735
0.0662599 1.59508 14.7314
-0.501322 1.06113 21.116
-0.699383 1.21508 15.6526
-0.680261 0.928339 20.8705
0.834912 -0.313881 18.6155
0.775836 -0.41103 19.3466
-0.999668 1.78502 11.1582
-1.15758 0.625162 3.75906
-1.4772 1.45043 15.7711
-2.41161 0.582711 8.36325
-1.40979 0.820014 16.574
0.667092 0.622418 19.004
0.948564 0.0584947 19.1105
-1.69294 -1.0144 10.2931
-0.517036 -1.19619 21.0343
-1.54949 -0.603416 17.805
-0.497161 -1.01149 20.5776
-1.26379 -0.666807 19.6884
0.684976 1.19608 19.5719
0.515534 0.534215 19.6795
0.987188 1.56707 20.5518
1.01551 1.1343 20.1359
0.772034 1.23913 21.5815
1.03724 0.958115 21.0291
0.106515 -0.0190493 21.812
0.438048 0.379314 21.6839
-0.109675 -0.512823 21.4146
-0.088447 -0.295921 21.5314
-0.168388 -0.672334 20.9156
-0.231431 -0.525774 21.1567
-0.219461 -0.484773 20.8301
0.976914 -0.619119 19.9471
0.655719 -0.299036 19.7548
0.83363 -0.708532 21.2768
1.63548 -0.945316 20.4583
0.174808 -0.240295 21.4335
0.446408 -0.457442 21.4266
-0.199719 0.110971 21.6688
0.0539388 -0.216562 21.5752
-0.674346 0.547783 21.3583
-0.69969 0.440746 21.5787
-0.825257 0.521825 21.0771
-1.10508 0.457591 21.1719
-1.01592 0.489771 20.6565
1.33219 -0.5134 19.7188
0.80184 -0.128414 19.5906
1.27442 -0.769234 21.4567
2.45358 -0.374326 20.2769
0.252409 -0.438881 21.5432
0.819046 -0.579929 21.4763
-0.309929 -0.0103315 21.7041
0.35229 -0.422928 21.5707
-1.16998 0.516282 20.9304
-1.06318 -0.188637 21.1237
-1.62903 0.397656 20.0115
-1.47647 -0.189778 21.116
-1.56051 -0.130206 20.9115
1.58678 0.157871 19.5488
0.718568 0.29663 19.6725
1.86915 -0.0655617 21.3642
1.5765 0.772241 20.2221
1.03678 -0.438641 21.5976
1.33367 0.328669 21.1731
0.0531546 -0.307025 22.0308
0.616441 0.115734 21.7613
-0.855672 -0.641388 21.5079
-0.24571 -0.375161 21.6299
-1.20473 -0.629683 20.8246
-0.553927 -0.62917 21.0856
-0.47569 -0.557764 20.8704
0.727448 0.571575 20.0007
0.953528 0.691825 20.7067
0.717532 0.434909 21.3504
0.097805 -0.0330585 21.5411
-0.179335 -0.333064 21.3167
-0.265774 -0.434491 21.0515
-1.15979 -0.586125 19.8518
-1.51134 -1.88335 18.6405
-1.16407 -1.09479 19.6107
-1.73331 -1.00403 19.0928
-0.699173 -0.454516 19.4709
-2.45254 -2.30158 20.3813
-1.02123 -0.779085 21.3623
-0.619352 -0.512947 18.1548
-0.699453 -1.0072 21.5857
-0.932679 -1.21691 20.7674
-0.265036 -0.321498 21.167
-0.187244 -0.335661 21.4347
-0.231326 -0.0711634 14.8942
-0.131586 -0.21879 21.5091
-0.00796604 0.292627 16.6096
-0.0371636 -0.0192835 19.9473
0.262561 0.0406175 21.6656
-0.199565 0.224517 14.7872
0.1264 0.227633 21.5968
0.0408506 0.688697 14.0138
0.375346 0.946184 19.099
0.782368 0.438752 21.3366
-0.181193 0.825149 14.6838
0.484989 0.72564 21.4146
0.756134 1.10266 14.5394
1.01073 1.25019 19.9217
1.14178 0.386957 20.5581
0.181446 1.63251 14.5217
0.773955 0.941561 20.5494
1.50422 1.15574 17.3927
1.05535 1.13334 19.9591
-1.54525 -0.241702 19.5795
-2.7212 -0.828522 16.6924
-2.23792 0.313774 18.6076
-0.88103 -0.194975 19.1905
-5.70738 -0.774563 19.2793
-1.68693 -0.543576 21.5017
-2.83601 -0.288269 22.2322
-0.12603 -0.78881 16.7675
-0.538469 -0.601685 21.532
-1.63751 -1.08933 19.8883
-0.130518 0.263505 15.1653
0.186729 -0.243031 21.5783
0.190877 0.482561 17.993
0.907169 0.818572 9.17574
1.08458 -0.0841013 20.7899
-0.684578 1.2702 -1.13196
1.05101 0.189956 16.364
2.05319 0.596962 14.9281
1.55365 -0.314794 20.322
1.87059 0.795584 5.02896
1.60166 -0.567712 19.4836
1.77339 0.265029 16.1305
-1.16083 0.569048 19.7485
-1.40915 1.68868 18.6054
-0.783775 0.886714 19.7588
-0.762801 0.463706 19.3478
-2.13833 1.66437 19.8699
-1.5213 0.60649 20.8666
-2.16224 2.277 20.7942
-1.06032 1.11421 20.6339
-2.01653 0.762601 21.1227
-1.0996 0.240276 21.4914
-2.68642 1.87931 22.1982
-0.803332 0.744754 21.4625
-0.815855 0.361133 22.0499
-0.101009 -0.0826814 21.7743
0.076772 -0.219434 22.2769
-0.0913781 -0.0039931 21.6497
0.309969 -0.430284 21.7507
0.405082 -0.419735 21.4296
0.427826 -0.845188 21.5078
0.208407 -0.398977 21.3302
0.542864 -0.71996 21.647
0.655238 -0.494301 20.987
0.535794 -1.19407 20.5585
0.237143 -0.506921 21.0699
0.494548 -0.699206 20.5118
1.50734 -1.92662 18.6304
-0.00924269 -2.68401 18.7521
-0.0287733 -3.4493 16.0429
-0.00555494 -0.873789 18.7459
-0.00103165 -4.05432 21.5884
0.634631 -0.502325 18.1035
0.0007765 -1.184 22.1484
0.00700724 -0.302982 13.5416
0.262747 -0.06841 14.9214
0.0103622 -0.336737 21.021
0.0320494 -0.0625925 13.2573
0.303463 0.259397 14.9095
0.0480421 0.0198364 20.3362
0.243303 0.277545 12.7816
0.24255 1.23215 15.1796
0.203139 0.521682 19.7041
0.584327 -0.300372 -0.367098
0.367304 0.826994 10.4096
-0.199621 1.88002 15.4766
0.233564 1.00749 19.4292
-0.247902 -0.208719 0.572835
0.0181874 1.06448 9.43805
2.74062 -0.854991 16.5963
-0.0243969 2.00259 13.6771
-0.0144795 -0.440765 17.9689
0.262661 0.915799 0.250851
0.361281 0.179678 1.40136
-0.429356 -2.28066 -2.95265
-2.42758 0.775032 6.13562
0.253424 -2.34123 4.56648
-0.436508 -1.82113 1.81719
1.42544 1.668 18.6279
0.0198697 1.56753 19.3182
0.00181006 0.866256 18.6085
0.0371564 4.42078 19.0917
2.18557 2.23328 20.8066
0.0267028 2.16816 20.3946
0.0219628 4.3918 19.8739
2.74073 1.93287 22.2194
-0.00781197 1.83958 21.7457
0.000429094 1.27614 22.8497
-0.0764307 -0.290696 22.113
0.0164034 0.00466586 21.8841
0.0401972 -0.748985 19.5775
-0.351123 -0.988178 21.3184
0.0374518 -0.581739 21.4524
0.0816886 -1.26685 20.2898
-0.448407 -1.28739 20.4729
0.0332557 -0.717264 20.9783
0.0549426 -1.11861 19.5634
1.17598 -0.603312 19.8516
1.17933 -1.10771 19.6072
1.75973 -1.02282 19.0559
0.698203 -0.457624 19.4603
2.46754 -2.3204 20.3828
1.02682 -0.781098 21.3728
0.703525 -1.00896 21.5961
0.937986 -1.21172 20.7717
0.279244 -0.313874 21.1709
0.198926 -0.328991 21.4516
0.147254 -0.208338 21.5282
0.016409 0.305675 16.7407
0.0631988 0.00234015 20.019
-0.276271 0.0817474 21.7351
-0.105299 0.282699 21.669
-0.0433038 0.761763 14.5043
-0.439283 1.16242 19.3499
-0.91446 0.561528 21.3354
-0.520275 0.933377 21.4012
-1.05343 1.48452 15.0538
-1.10007 1.49851 20.0777
-1.22642 0.441292 20.5679
-0.84821 1.03917 20.5167
-1.63447 1.22089 17.2281
-1.04367 1.14202 19.7754
1.565 -0.247653 19.5684
2.25154 0.320815 18.5863
0.886672 -0.197386 19.1726
5.71731 -0.77224 19.2863
1.68866 -0.543479 21.5068
2.8384 -0.289087 22.2428
0.142833 -0.790916 16.8369
0.53934 -0.591723 21.5637
1.63737 -1.0885 19.9811
0.135913 0.21899 15.3836
-0.230696 -0.246759 21.7143
-0.160538 0.351103 18.2635
-1.24808 0.680272 10.3057
-1.3401 -0.155076 20.8607
-1.13783 -0.0937489 16.2002
-2.39067 0.438646 15.311
-1.67929 -0.250245 20.1324
-1.55728 -0.73887 18.74
-1.90983 0.168427 16.2966
1.15546 0.5587 19.7627
0.789147 0.868334 19.7775
0.76705 0.461895 19.3518
2.12922 1.60583 19.8897
1.51256 0.589767 20.8711
1.06731 1.08545 20.6473
2.01341 0.745818 21.1354
1.11165 0.233252 21.5076
0.820816 0.749649 21.4849
0.84159 0.358206 22.0926
0.110701 -0.114569 21.8151
0.11033 -0.0240998 21.6862
-0.291806 -0.530109 21.7912
-0.419759 -0.514991 21.4474
-0.173917 -0.446958 21.3802
-0.518717 -0.836428 21.6286
-0.622593 -0.611614 20.9704
-0.216495 -0.617211 20.9906
-0.509378 -0.793886 20.5351
-1.46491 -1.09985 19.3571
-0.801287 -1.22313 21.9616
-0.145786 -0.0880411 20.412
0.132848 0.389191 19.3913
0.544582 1.05432 19.4835
1.13222 1.38748 19.8754
-2.22974 -0.461218 18.6505
-1.98479 -1.03817 21.2721
0.0141084 -0.601588 15.7422
0.339918 1.0627 14.268
1.09181 0.937382 12.259
1.98354 0.342335 15.2487
-1.41022 0.997052 19.2646
-2.02297 1.18583 20.917
-1.7105 0.617926 21.7298
-0.0612383 -0.0723688 22.0283
0.459397 -0.580118 21.5522
0.624788 -0.805928 21.2738
-0.0167782 -3.27606 17.7535
0.00524463 -0.545256 15.5789
0.0150415 -0.144726 13.143
0.0727892 0.0321259 12.9255
0.537466 0.204027 11.402
0.198423 1.21322 9.88799
-0.0355254 -1.43478 13.462
-0.360563 -0.451615 -1.53509
-0.70316 -3.19943 -1.96798
0.0153063 2.54527 17.8577
0.0231427 3.52901 20.3289
-0.00400353 4.23855 22.527
0.0199892 -0.252112 21.5566
0.0612833 -0.967487 19.9223
0.0290062 -1.6083 19.8363
1.47419 -1.12359 19.3361
0.806356 -1.2167 21.9622
0.164075 -0.0752351 20.4438
-0.104205 0.456645 19.5309
-0.701434 1.3374 19.6973
-1.13507 1.47194 19.7092
2.25201 -0.463862 18.6111
1.99115 -1.04143 21.2982
-0.00433235 -0.618377 15.9088
-0.374111 1.00753 14.7083
-1.54215 0.652647 13.0449
-2.18521 0.188712 15.6489
1.41364 0.985598 19.2771
2.01727 1.1545 20.9245
1.73853 0.615879 21.75
0.0750354 -0.116123 22.0789
-0.440727 -0.723555 21.5826
-0.587618 -0.935108 21.1041
-1.3499 -0.556679 1.31088
-0.0099117 -0.0401928 0.306621
-0.0493238 0.00141903 0.296847
-0.050903 -0.000570098 -0.0471101
-0.00563853 0.0403372 0.277846
-0.00841054 0.00191058 0.0637744
0 0 0
0 0 0
-0.402273 0.274926 1.03337
-0.00176193 0.0274592 -0.00783599
0.0756852 0.0213359 -0.0359837
0.0253448 0.0100755 0.131324
0.00996893 -0.0402537 0.3073
1.362 -0.56127 1.32189
0.0494394 0.00139948 0.297095
0.0573536 0.074642 0.338663
0.0369865 -0.00851543 -0.0364751
0.0110706 0.00235111 0.067214
0 0 0
0 0 0
0.406594 0.277807 1.04341
-0.00490604 0.0148934 -0.033775
0.0119707 0.0118662 -0.0108618
-0.00903143 0.00123251 0.133664
-0.02362 -7.99739e-05 0.217355
-0.00050298 1.79523e-05 0.0277134
0 0 0
0 0 0
-0.0122183 0.00583661 0.130392
0.00025753 -5.92305e-05 0.0148631
0 0 0
0 0 0
-0.0173731 -0.0290854 0.0487977
4.50178e-05 -0.000694511 0.00403473
0 0 0
0 0 0
0 0 0
0.0125825 0.15835 0.245054
0.00787013 0.0359317 0.0785224
0.0106343 0.00137536 0.0819727
0.0207148 0.00369035 0.181971
5.39788e-19 1.54568e-20 2.60877e-17
0.000625616 2.1324e-05 0.0277474
0 0 0
0.0143734 0.00620474 0.131792
0 0 0
-0.000157829 -5.73545e-05 0.014876
0 0 0
0.0176042 -0.0294397 0.0495007
0 0 0
-4.35021e-05 -0.000678653 0.00398729
0 0 0
0 0 0
-0.0105433 0.00121093 0.0857608
-0.0123341 0.158198 0.246303
-0.00779474 0.0358378 0.0792681
-0.00581906 -0.00384759 0.0426969
0 0 0
2.85643e-08 4.28119e-07 3.8324e-05
0.00072737 -1.71198 0.21731
8.85779e-07 7.67357e-05 0.000343965
-4.46684e-06 4.19653e-07 6.38129e-05
0 0 0
-0.00433542 0.0339825 -0.00126996
2.21915e-05 3.33642e-06 0.000734823
-4.43911e-05 -1.04968e-05 6.22129e-06
1.36274e-05 0.000315752 0.00200228
-1.1427e-06 -1.3853e-07 0.00010187
0.00622521 2.09805 1.29485
1.92499e-05 0.0154464 0.0565609
-0.000339235 -0.000318701 0.0205812
0 0 0
0 0 0
0 0 0
0 0 0
-0.00023764 -0.00059022 0.000907761
0 0 0
0.0056752 -0.00376007 0.0419219
4.39257e-06 4.01976e-07 6.06968e-05
-8.53057e-07 7.33402e-05 0.000330301
0.0123945 0.0174748 -0.00228713
0 0 0
5.56053e-06 -1.71419e-07 0.000119867
-1.48849e-05 0.000331883 0.00204336
0 0 0
0.000340973 -0.000318221 0.0205749
0.00130215 -0.000574867 0.000710008
0 0 0
0 0 0
8.72048e-19 1.37572e-21 6.66242e-17
0.0171402 -0.008669 0.0687958
0.000319712 0.00133193 0.0126087
1.8725e-20 -1.6176e-19 1.55446e-17
6.89641e-09 -2.60392e-08 5.60882e-06
0 0 0
-0.026248 0.0394566 0.30887
6.01627e-09 -1.62129e-09 1.19383e-06
-1.481e-08 -1.12301e-09 -1.23038e-06
0.00210748 0.0102293 0.0301883
-0.0535754 0.0930382 0.451161
-1.30806e-06 1.20747e-06 1.51264e-05
1.92609e-08 1.03376e-05 2.21486e-05
-2.58593e-07 -4.66297e-06 -5.83006e-05
0.000167523 -0.00330152 0.0189975
0 0 0
0 0 0
-0.0175366 -0.00882115 0.0703568
-0.000312351 0.00136834 0.0126056
0 0 0
0.0266428 0.0398086 0.315507
0.0545999 0.0927395 0.450858
-0.00210596 0.0102001 0.0303248
-0.00896901 -0.00766292 0.102494
-0.0682544 -0.0355926 0.283992
0.0605486 0.0757781 0.488428
2.64851e-18 -2.06003e-17 2.70773e-17
0 0 0
1.57315e-05 0.000106404 0.00105471
0 0 0
0.0214718 0.12787 0.26994
-3.99447e-05 0.000355362 0.00470135
0 0 0