# vtk DataFile Version 2.0
tet_velo
ASCII
DATASET UNSTRUCTURED_GRID
POINTS 29498 float
-0.817226 0.575 -2.705
-0.835 0.505 2.64979
-0.885 0.835 -2.6661
-0.875 0.905 2.60053
0.817226 0.575 -2.705
0.835 0.505 2.64979
0.885 0.835 -2.6661
0.875 0.905 2.60053
-0.838612 0.536205 -0.92007
-0.881181 0.476228 0.86486
-0.882167 0.858833 -0.910557
-0.877119 0.880452 0.844987
0.838606 0.536212 -0.92007
0.881185 0.476223 0.86486
0.882166 0.858832 -0.910557
0.877117 0.88045 0.844987
-1.67581 0.412458 -4.12393
-1.67872 0.407145 -2.70776
-1.70035 0.361489 -0.922067
-1.73556 0.30063 0.869537
-1.72616 0.301576 2.65573
-1.71693 0.316132 4.07434
-1.71542 0.327179 5.48844
-1.67876 0.566325 -4.11505
-1.68313 0.568112 -2.70208
-1.70516 0.53738 -0.922109
-1.74209 0.488938 0.860507
-1.7208 0.500058 2.64104
-1.71169 0.514612 4.05924
-1.7121 0.523547 5.4743
-1.7083 0.854417 -4.08903
-1.73254 0.853455 -2.67485
-1.73961 0.867316 -0.914909
-1.74811 0.8777 0.842947
-1.74253 0.897112 2.60345
-1.72341 0.908747 4.02286
-1.71599 0.913506 5.44266
-1.73259 1.33014 -4.0721
-1.74479 1.33835 -2.66232
-1.75095 1.3715 -0.911906
-1.75065 1.41577 0.832171
-1.74559 1.45057 2.58289
-1.73737 1.46604 3.99331
-1.72931 1.47292 5.40989
-0.821809 0.417485 -4.12583
-0.824715 0.414302 -2.71052
-0.838898 0.362438 -0.921696
-0.87175 0.291419 0.873252
-0.861937 0.301371 2.66222
-0.851695 0.317304 4.07875
-0.849949 0.328299 5.49099
-0.819154 0.568336 -4.11563
-0.841493 0.51769 4.06288
-0.844792 0.525815 5.47622
-0.842406 0.847236 -4.08539
-0.850986 0.913984 4.02228
-0.846151 0.91737 5.44253
-0.866075 1.32328 -4.0685
-0.877024 1.33082 -2.65836
-0.881327 1.36763 -0.90952
-0.879589 1.41756 0.831885
-0.874411 1.45536 2.58084
-0.866697 1.47078 3.99127
-0.859466 1.47679 5.40841
0.859652 0.417485 -4.12583
0.835937 0.414303 -2.71052
0.851264 0.362441 -0.921696
0.86854 0.291417 0.873253
0.840886 0.30137 2.66222
0.860042 0.317303 4.07875
0.872552 0.328299 5.49099
0.865726 0.568336 -4.11563
0.868303 0.51769 4.06288
0.87876 0.525814 5.47622
0.884826 0.847236 -4.08539
0.882221 0.913984 4.02228
0.885464 0.917369 5.44253
0.869041 1.32328 -4.0685
0.864375 1.33082 -2.65836
0.863262 1.36763 -0.90952
0.865814 1.41756 0.831885
0.869967 1.45536 2.58084
0.874601 1.47078 3.99127
0.878691 1.47679 5.40841
1.70581 0.41246 -4.12393
1.68562 0.407147 -2.70776
1.70392 0.361494 -0.922067
1.73129 0.300627 0.869537
1.71474 0.301574 2.65572
1.72274 0.31613 4.07434
1.73433 0.327177 5.48844
1.71053 0.566326 -4.11505
1.68304 0.568113 -2.70208
1.7017 0.537385 -0.92211
1.73948 0.488935 0.860507
1.72033 0.500056 2.64104
1.7293 0.514611 4.05924
1.7401 0.523545 5.4743
1.73513 0.854417 -4.08903
1.72947 0.853455 -2.67485
1.73335 0.867316 -0.914909
1.745 0.877697 0.842947
1.74456 0.89711 2.60345
1.74558 0.908746 4.02286
1.74898 0.913505 5.44266
1.73358 1.33014 -4.07209
1.73156 1.33835 -2.66232
1.73244 1.3715 -0.911906
1.73631 1.41577 0.832171
1.74048 1.45056 2.58289
1.74365 1.46604 3.99331
1.74628 1.47292 5.40989
-0.818597 0.705 -2.65303
0 0.570534 -2.70947
-0.890408 0.493114 -1.81254
-0.874229 0.705 2.64439
0 0.450882 2.70391
-0.840866 0.507838 1.75733
0 0.865539 -2.69664
-0.884222 0.847555 -1.78833
0 0.90331 2.59884
-0.872707 0.889373 1.72276
0.818613 0.705 -2.65305
0.890408 0.493114 -1.81254
0.87423 0.705 2.64439
0.840866 0.507839 1.75733
0.884226 0.847559 -1.78833
0.872701 0.889368 1.72276
-0.836788 0.529325 -0.0276049
-0.868868 0.697519 -0.915314
-3.28811e-06 0.348479 -0.92007
-0.866609 0.67834 0.854924
2.26276e-06 0.335087 0.86486
-0.880089 0.870089 -0.0327851
-5.79457e-07 1.18211 -0.910557
-7.95522e-07 1.4121 0.844987
0.836784 0.529328 -0.0276049
0.868867 0.697522 -0.915314
0.866608 0.678337 0.854924
0.880086 0.870086 -0.0327851
-0.894422 0.70126 -1.80043
-0.868121 0.68793 -0.030195
-0.874073 0.69167 1.74004
-1.64406e-06 0.38458 -1.81254
-5.12677e-07 0.32312 -0.0276049
1.13138e-06 0.355719 1.75733
0 0.705 -2.69504
0 0.705 2.68137
-2.89729e-07 1.02408 -1.78833
-6.8749e-07 1.46826 -0.0327851
-3.97761e-07 1.02684 1.72276
0.894422 0.701261 -1.80043
0.868103 0.687929 -0.030195
0.874046 0.691668 1.74004
-1.25018 0.571556 -2.70354
-0.820971 0.494651 -2.70776
-0.81819 0.571668 -3.41031
-1.2779 0.502529 2.64542
-0.848469 0.403186 2.65601
-0.838246 0.511345 3.35633
-1.30877 0.844228 -2.67047
-0.863703 0.841118 -3.37575
-0.881012 1.08291 -2.66223
-1.30877 0.901056 2.60199
-0.862993 0.909492 3.3114
-0.874705 1.18018 2.59069
0.826582 0.494652 -2.70776
0.841476 0.571668 -3.41031
1.25013 0.571557 -2.70354
0.837943 0.403185 2.65601
0.851651 0.511345 3.35633
1.27767 0.502528 2.64542
0.884913 0.841118 -3.37575
0.874688 1.08291 -2.66223
1.30724 0.844228 -2.67047
0.878611 0.909492 3.3114
0.872484 1.18018 2.59069
1.30978 0.901055 2.60199
-1.27189 0.536792 -0.92109
-0.838755 0.449321 -0.920883
-1.31164 0.482583 0.862684
-0.876465 0.383824 0.869056
-1.31089 0.863075 -0.912733
-0.881747 1.11323 -0.910038
-1.31262 0.879076 0.843967
-0.878354 1.149 0.838436
0.844935 0.449327 -0.920883
1.27015 0.536798 -0.92109
0.874863 0.38382 0.869056
1.31033 0.482579 0.862684
0.872714 1.11323 -0.910038
1.30776 0.863074 -0.912733
0.871466 1.149 0.838436
1.31106 0.879074 0.843967
-1.67726 0.409802 -3.41584
-1.67728 0.489392 -4.11949
-1.24881 0.414972 -4.12488
-1.68954 0.384317 -1.81491
-1.68092 0.487628 -2.70492
-1.25172 0.410723 -2.70914
-1.71796 0.33106 -0.0262646
-1.70276 0.449435 -0.922088
-1.26963 0.361964 -0.921881
-1.73086 0.301103 1.76263
-1.73883 0.394784 0.865022
-1.30366 0.296025 0.871395
-1.72155 0.308854 3.36503
-1.72348 0.400817 2.64838
-1.29405 0.301474 2.65897
-1.71618 0.321655 4.78139
-1.71431 0.415372 4.06679
-1.28431 0.316718 4.07654
-1.71376 0.425363 5.48137
-1.28269 0.327739 5.48971
-1.68094 0.567218 -3.40856
-1.69353 0.710371 -4.10204
-1.24896 0.567331 -4.11534
-1.69414 0.552746 -1.8121
-1.70784 0.710784 -2.68846
-1.72363 0.513159 -0.030801
-1.72239 0.702348 -0.918509
-1.73145 0.494498 1.75077
-1.7451 0.683319 0.851727
-1.71625 0.507335 3.35014
-1.73167 0.698585 2.62225
-1.7119 0.519079 4.76677
-1.71755 0.711679 4.04105
-1.27659 0.516151 4.06106
-1.71405 0.718526 5.45848
-1.27845 0.524681 5.47526
-1.72042 0.853936 -3.38194
-1.72044 1.09228 -4.08056
-1.27535 0.850826 -4.08721
-1.73608 0.860386 -1.79488
-1.73867 1.0959 -2.66858
-1.74386 0.872508 -0.0359811
-1.74528 1.11941 -0.913408
-1.74532 0.887406 1.7232
-1.74938 1.14673 0.837559
-1.73297 0.902929 3.31316
-1.74406 1.17384 2.59317
-1.7197 0.911127 4.73276
-1.73039 1.18739 4.00809
-1.2872 0.911366 4.02257
-1.72265 1.19321 5.42628
-1.28107 0.915438 5.4426
-1.73869 1.33424 -3.36721
-1.29933 1.32671 -4.0703
-1.74787 1.35493 -1.78711
-1.31091 1.33458 -2.66034
-1.7508 1.39364 -0.0398672
-1.31614 1.36957 -0.910713
-1.74812 1.43317 1.70753
-1.31512 1.41666 0.832028
-1.74148 1.4583 3.2881
-1.31 1.45296 2.58187
-1.73334 1.46948 4.7016
-1.30203 1.46841 3.99229
-1.29439 1.47485 5.40915
-0.823262 0.415893 -3.41817
-0.820481 0.49291 -4.12073
0.0189217 0.417485 -4.12583
-0.831807 0.38837 -1.81611
0.00561092 0.414303 -2.71052
-0.855324 0.326928 -0.0242216
0.00618295 0.36244 -0.921696
-0.866843 0.296395 1.76774
-0.00160477 0.291418 0.873252
-0.856816 0.309338 3.37048
-0.0105256 0.301371 2.66222
-0.850822 0.322802 4.78487
-0.846594 0.417497 4.07081
0.00417378 0.317304 4.07875
-0.84737 0.427057 5.4836
0.0113017 0.328299 5.49099
-0.83078 0.707786 -4.10051
0.0232858 0.568336 -4.11563
-0.843142 0.521753 4.76955
-0.846239 0.715837 4.04258
0.013405 0.51769 4.06288
-0.845472 0.721593 5.45938
0.0169841 0.525815 5.47622
-0.85424 1.08526 -4.07695
0.0212102 0.847236 -4.08539
-0.848569 0.915677 4.73241
-0.858841 1.19238 4.00677
0.0156176 0.913984 4.02228
-0.852808 1.19708 5.42547
0.0196568 0.91737 5.44253
-0.871549 1.32705 -3.36343
0.00148335 1.32328 -4.0685
-0.879175 1.34922 -1.78394
-0.00632415 1.33082 -2.65836
-0.880458 1.39259 -0.0388174
-0.00903268 1.36763 -0.90952
-0.877 1.43646 1.70636
-0.00688706 1.41756 0.831885
-0.870554 1.46307 3.28606
-0.00222181 1.45536 2.58084
-0.863081 1.47378 4.69984
0.00395195 1.47078 3.99127
0.00961285 1.47679 5.40841
0.847795 0.415894 -3.41817
0.862689 0.492911 -4.12073
1.28273 0.414973 -4.12488
0.843601 0.388372 -1.81611
1.26078 0.410725 -2.70914
0.859902 0.326929 -0.0242216
1.27759 0.361968 -0.921881
0.854713 0.296394 1.76774
1.29991 0.296022 0.871395
0.850464 0.309337 3.37048
1.27781 0.301472 2.65897
0.866297 0.322801 4.78487
0.864172 0.417496 4.07081
1.29139 0.316717 4.07654
0.875656 0.427057 5.4836
1.30344 0.327738 5.48971
0.875276 0.707786 -4.10051
1.28813 0.567331 -4.11534
0.873531 0.521752 4.76955
0.875262 0.715837 4.04258
1.2988 0.51615 4.06106
0.882112 0.721592 5.45938
1.30943 0.52468 5.47526
0.876934 1.08526 -4.07695
1.30998 0.850826 -4.08721
0.883843 0.915677 4.73241
0.878411 1.19238 4.00677
1.3139 0.911365 4.02257
0.882078 1.19708 5.42547
1.31722 0.915437 5.4426
0.866708 1.32705 -3.36343
1.30131 1.32671 -4.0703
0.863818 1.34922 -1.78394
1.29797 1.33458 -2.66034
0.864538 1.39259 -0.0388175
1.29785 1.36956 -0.910713
0.867891 1.43646 1.70636
1.30106 1.41666 0.832028
0.872284 1.46307 3.28605
1.30522 1.45296 2.58187
0.876646 1.47378 4.69984
1.30913 1.46841 3.99229
1.31249 1.47485 5.40915
1.69571 0.409803 -3.41584
1.70817 0.489393 -4.11949
1.69477 0.384321 -1.81491
1.68433 0.48763 -2.70492
1.7176 0.331061 -0.0262647
1.70281 0.449439 -0.922088
1.72302 0.301101 1.76263
1.73538 0.394781 0.865022
1.71874 0.308852 3.36503
1.71754 0.400815 2.64838
1.72853 0.321654 4.78139
1.72602 0.41537 4.06679
1.73722 0.425361 5.48137
1.69678 0.567219 -3.40856
1.72283 0.710371 -4.10204
1.69237 0.552749 -1.8121
1.70626 0.710784 -2.68846
1.72059 0.51316 -0.0308011
1.71752 0.702351 -0.91851
1.72991 0.494495 1.75077
1.74224 0.683316 0.851727
1.72482 0.507333 3.35014
1.73245 0.698583 2.62225
1.7347 0.519078 4.76677
1.73744 0.711678 4.04105
1.74454 0.718525 5.45848
1.7323 0.853936 -3.38194
1.73435 1.09228 -4.08056
1.73141 0.860386 -1.79488
1.73052 1.0959 -2.66858
1.73917 0.872507 -0.0359812
1.73289 1.11941 -0.913408
1.74478 0.887404 1.7232
1.74066 1.14673 0.837559
[...]
POINT_DATA 29498
VECTORS point_vectors float
-6.12414 -3.86646 6.35745
0.283638 0.275213 1.72547
-9.51743 3.15281 11.5142
0.58396 -0.19021 3.26562
6.17849 -3.73047 6.62664
-0.274614 0.279592 1.726
9.41067 3.09117 11.3719
-0.555886 -0.186466 3.22324
7.03407e-05 -0.000171995 0.00279702
-0.0555888 0.0242979 0.423207
-0.00141629 -0.0160177 0.104581
0.00619045 0.0325759 0.123433
-6.62452e-05 -0.000164651 0.0026022
0.0558641 0.0236743 0.423593
0.00140761 -0.0160797 0.104937
-0.0062396 0.0328573 0.12387
-0.384307 -0.0594994 19.8416
-1.27524 -0.272742 20.3321
-0.549194 -0.265355 21.2207
0.0445776 0.0424869 21.4854
0.561138 0.245952 21.2658
0.611902 0.360468 20.4593
0.301599 0.136403 21.0841
-0.385709 -0.0347958 19.8352
-1.32002 -0.184322 20.3289
-0.607811 -0.287731 21.2245
0.0635772 -0.000288584 21.5103
0.634483 0.179459 21.286
0.622887 0.312408 20.5721
0.36108 0.0860889 21.1741
-0.417734 0.039063 19.8516
-1.26847 0.0679652 20.3187
-0.779002 -0.247496 21.1978
0.0690534 -0.101335 21.5601
0.690785 -0.0260368 21.3088
0.82584 -0.109352 20.886
0.424209 -0.0778875 21.0048
-0.367014 0.138511 19.9127
-1.00588 0.35473 20.3119
-0.923533 0.0559511 21.1351
-0.0408705 -0.11391 21.5744
0.554427 -0.258277 21.2578
0.650314 -0.310459 21.0274
0.418205 -0.314115 20.7267
-0.359314 -0.122501 19.4156
-5.8058 -5.08052 17.9942
0.231535 -0.453559 6.65258
0.278803 -0.61542 11.2532
0.997069 0.755031 13.9963
0.852741 1.26354 15.8842
0.653029 0.520824 15.6152
-0.371924 -0.0670288 19.3817
1.06281 1.36395 14.2771
0.740691 0.327984 14.593
-0.359047 0.0422149 19.3824
1.93555 0.20105 12.0385
1.13702 0.0191978 15.7614
-0.338647 0.268458 19.5294
-2.1876 2.29546 19.7855
-3.64982 1.42605 19.8186
0.963204 0.872696 13.1588
1.16689 -0.633001 17.6872
1.00876 -1.00189 18.3407
0.716257 -0.559252 18.8336
0.371929 -0.118257 19.441
5.76598 -4.79852 18.1884
-0.255907 -0.454741 7.45716
-0.297189 -0.632964 11.079
-0.958609 0.757415 13.3213
-0.794473 1.32847 15.4812
-0.672323 0.428801 15.7305
0.386416 -0.0605109 19.4148
-1.21295 1.25639 13.8603
-0.889586 0.0890894 15.0199
0.370081 0.0461639 19.4119
-1.82762 0.202186 11.9204
-1.02356 0.0484875 16.1195
0.33859 0.267455 19.5292
2.18193 2.35057 19.7729
3.70906 1.52343 19.5326
-1.04379 0.928737 12.2873
-1.17358 -0.631661 17.6486
-1.12327 -0.958181 18.7862
-0.629481 -0.347352 19.3153
0.376028 -0.058225 19.8569
1.26483 -0.271088 20.3277
0.551145 -0.264469 21.2189
-0.0491529 0.046058 21.4997
-0.561806 0.244489 21.2607
-0.716902 0.236539 20.8202
-0.340571 0.0422994 20.9774
0.379002 -0.032421 19.8518
1.3206 -0.182824 20.3279
0.609147 -0.287183 21.2264
-0.066432 0.00321978 21.5185
-0.632349 0.179427 21.2781
-0.697759 0.153441 20.9173
-0.361474 0.00458124 21.0205
0.414991 0.0391282 19.8662
1.27294 0.0734644 20.322
0.784772 -0.248948 21.2032
-0.069475 -0.0994771 21.5604
-0.680021 -0.0215828 21.2933
-0.827198 -0.0517223 20.8652
-0.335003 -0.0946472 20.8433
0.364231 0.139019 19.9084
1.01379 0.358765 20.3046
0.939382 0.0598794 21.1357
0.0389047 -0.116945 21.5762
-0.549044 -0.26392 21.2547
-0.589596 -0.32777 20.8182
-0.344508 -0.217836 20.7557
-6.28351 -0.175169 3.99992
0 0 0
0.0229234 -0.110867 1.47644
0.187684 0.131036 1.36553
-0.0249693 -0.135587 0.00940148
0 0 0
-0.000453822 0.490109 0.638626
-0.0398811 -0.0657527 0.532533
-0.00897739 0.0729086 -0.139309
0.055852 0.12351 0.434825
5.11612 -0.511086 3.48237
-0.0210466 -0.10728 1.46836
-0.184491 0.129719 1.35224
0 0 0
0.039522 -0.065268 0.535191
-0.0560197 0.123743 0.436068
0 0 0
0 0 0
0 0 0
0 0 0
0 0 0
0.00858548 0.0363721 0.108117
-2.11797e-06 0.00104484 0.00165567
4.42751e-06 -0.00602007 0.0350568
0 0 0
0 0 0
0 0 0
-0.00857881 0.0363473 0.108541
-2.37289e-05 -0.00100976 0.00650333
-4.06018e-05 0.000258204 0.00148101
-4.95101e-05 0.00127715 0.0126524
0 0 0
2.99102e-09 -9.26085e-05 0.011195
0 0 0
0.0068705 0.0165187 0.00176117
-0.000300394 0.00272456 -0.00113863
-3.95729e-07 1.73648e-05 0.00039625
-1.76549e-07 0.000225515 0.0186861
0 0 0
2.59147e-05 -0.00107939 0.00654664
1.90645e-05 0.000121546 0.000703728
4.40196e-05 0.00128587 0.0130138
-2.85477 -0.5057 20.0527
-8.92805 -6.51963 17.0642
-1.2462 -0.33051 18.3918
0.989627 0.406692 21.0301
0.963545 0.51737 9.50045
0.94288 0.829177 9.56768
-2.56664 0.257659 20.1739
-1.33661 0.240155 18.3942
-4.19376 3.43311 19.4578
1.17782 0.000627352 20.9595
1.35243 0.211371 9.34675
1.73422 0.376411 12.5956
8.82607 -6.25154 17.1795
1.25394 -0.316752 18.452
2.85315 -0.497818 20.0471
-0.896759 0.557371 8.96289
-0.911488 0.810733 10.1319
-0.978729 0.402176 21.0118
1.33989 0.234304 18.4595
4.21393 3.5254 19.4354
2.56835 0.261345 20.1749
-1.37014 0.253786 9.97152
-1.74546 0.389613 12.5359
-1.16898 0.00416621 20.962
-0.584235 -0.54594 21.3817
0.0554783 -0.150171 2.01371
0.154081 0.109755 21.3455
-0.333082 -0.300167 4.98926
-1.06158 -0.78268 21.383
-5.04561 -2.08373 9.12065
0.301123 -0.183776 21.2306
0.335326 1.50462 4.78963
-0.0723346 -0.19563 2.60415
0.584504 -0.54106 21.3623
0.315876 -0.304374 4.79082
-0.151173 0.109347 21.3442
5.24296 -2.12749 8.67079
1.05818 -0.790319 21.3893
-0.300416 1.38596 4.28565
-0.304998 -0.183277 21.2376
-0.759016 -0.153214 19.8826
-0.387652 -0.0483158 19.8387
-0.420575 -0.0917599 19.6405
-0.949445 -0.276398 20.9863
-1.29735 -0.228256 20.3311
-2.48118 -0.86894 20.076
-0.223831 -0.126988 21.4204
-0.577835 -0.277417 21.2224
-0.527165 -0.383556 21.4471
0.315353 0.173797 21.4257
0.0573633 0.0235168 21.4983
0.0488323 0.145063 21.5483
0.696744 0.248533 21.2608
0.600644 0.215924 21.27
0.798931 0.520389 21.2466
0.831479 0.184144 21.3493
0.602898 0.330258 20.5239
0.757495 0.593374 20.9432
0.343229 0.115743 21.1693
0.368759 0.368261 20.7019
-0.784818 -0.094249 19.8631
-0.400079 0.00155959 19.8407
-0.423689 -0.0486769 19.62
-0.989297 -0.236861 20.9719
-1.32074 -0.0789587 20.3265
-0.251078 -0.166706 21.4498
-0.664013 -0.284736 21.2221
0.363157 0.112634 21.4402
0.0773377 -0.0491052 21.5367
0.825877 0.172016 21.1862
0.683301 0.0901353 21.3233
0.870624 0.117995 21.4364
0.7395 0.165281 20.4378
0.972163 0.695154 20.1535
0.395972 0.0266531 21.1329
0.455602 0.175575 19.6954
-0.801311 0.0411061 19.8743
-0.411186 0.0835968 19.8734
-0.466264 0.0467473 19.6265
-1.02532 -0.094056 20.9063
-1.19565 0.228471 20.3299
-0.363155 -0.227664 21.4936
-0.894299 -0.13689 21.1795
0.417342 -0.0313883 21.4612
0.0170315 -0.10794 21.5812
0.751769 -0.0805778 21.1101
0.641428 -0.163778 21.267
0.799112 -0.0393954 21.2126
0.767235 -0.261708 20.8383
1.49084 -0.0603418 20.0942
0.468127 -0.223177 20.7911
0.712031 -0.0951187 19.727
-0.692866 0.271469 19.9617
-0.38663 0.179421 19.7071
-0.977114 0.209096 20.7854
-1.6004 0.830489 20.1552
-0.546197 -0.0524488 21.5033
-1.77439 0.128067 21.1569
0.329076 -0.18168 21.462
-0.10022 -0.193757 21.8591
0.621489 -0.314073 21.1258
0.770165 -0.505006 21.3026
0.524716 -0.24873 20.9823
0.681333 -0.68917 20.8463
0.566249 -0.403336 20.1328
-1.13565 -0.575224 18.5923
-0.373788 -0.0953483 19.3896
0.00831014 -0.17165 19.1957
0.227903 -0.378627 5.53601
0.0766242 -11.2765 13.6877
0.00472354 -0.0502196 9.21357
0 0 0
0.396031 0.504541 11.7763
-0.000116108 0.0506766 2.84374
1.14498 1.10152 15.8343
-0.0952784 0.363695 4.67061
1.09086 0.838131 13.4504
0.954102 1.33985 15.332
0.0602466 -0.0928363 5.77124
0.688938 0.425259 14.9077
-0.0829903 0.385882 12.1594
-0.364108 -0.0133779 19.3821
0.010574 -0.0947277 19.1445
1.20373 0.652876 12.3794
1.48665 0.91804 12.9758
0.127889 -0.750166 -1.76494
0.915785 0.163267 14.4902
-0.0655694 0.058674 9.37542
-0.356721 0.177795 19.4383
0.0133949 0.0811567 19.1507
1.42948 0.119222 14.3864
1.93314 -0.57293 17.2804
-0.309101 -2.1123 -1.16299
1.05905 -0.333544 18.0387
0.0862222 -0.914861 5.57754
-0.957022 0.86498 19.0606
0.00064168 0.333989 19.299
-2.14971 1.11166 20.8077
-0.0171278 4.45587 19.2481
-0.687331 0.525346 14.5459
-0.0394885 3.42062 12.1882
1.27405 -0.143953 15.5283
0.000522621 -0.0199076 0.12388
1.14482 -0.855695 18.334
0.00185556 -0.525794 7.89247
0.931421 -0.879484 19.0107
0.126073 -0.974164 12.7061
-0.0150828 -0.848518 14.6132
1.15265 -0.56132 18.638
0.38752 -0.08936 19.4195
0.417895 -0.0895466 19.6579
-0.200295 -0.428222 6.62499
2.43268 -0.83438 20.0813
-0.0041129 -0.0483943 9.51679
0.535295 -0.387792 21.442
-0.407183 0.482315 11.1527
-0.0474569 0.14311 21.5387
-1.12125 1.04692 15.6498
-0.79985 0.525928 21.2094
-0.931782 0.910405 15.3287
-1.02008 1.30963 14.8154
-1.10736 0.624494 20.3919
-0.770692 0.253239 15.1511
-0.341858 0.329583 20.8607
0.377101 -0.00762292 19.4137
0.419026 -0.0482006 19.6429
-1.20924 0.556534 14.9775
-1.49646 0.806808 12.7016
-1.07516 0.486751 19.7653
-0.820778 0.0688924 14.7851
-0.561765 -0.0111708 20.1557
0.360015 0.17505 19.4492
0.472626 0.0432957 19.6452
-1.66482 0.136806 14.1457
-1.81799 -0.558445 16.2972
-1.43136 -0.0751891 20.2811
-0.876671 -0.226065 18.2376
-0.479471 -0.0859309 19.9205
0.954553 0.868861 19.0536
0.384933 0.17819 19.708
2.1578 1.17301 20.8092
1.61546 0.853059 20.1499
0.414244 0.692005 13.0727
1.82704 0.141 21.1553
-1.29664 -0.139637 15.2802
0.101562 -0.19675 21.87
-1.15975 -0.836328 18.3956
-0.769956 -0.500185 21.2946
-0.717866 -0.685867 19.2031
-0.784482 -0.581955 21.0386
-0.423776 -0.167801 20.6121
0.747936 -0.148225 19.9013
0.380306 -0.0467088 19.8524
0.947734 -0.273839 20.9853
1.29271 -0.226956 20.3278
0.223682 -0.126057 21.4186
0.579074 -0.276408 21.2216
-0.324213 0.175799 21.429
-0.0618735 0.0271371 21.5108
-0.677617 0.274717 21.0262
-0.603188 0.214641 21.2688
-0.590341 0.243219 20.9774
-0.703512 0.191251 20.8851
-0.37379 0.0323697 21.0413
0.773464 -0.0875825 19.8798
0.395518 0.00263033 19.8596
0.993336 -0.235945 20.9743
1.32508 -0.0750186 20.3301
0.252784 -0.165121 21.4516
0.667437 -0.285732 21.2288
-0.368362 0.113662 21.44
-0.0771743 -0.0454847 21.5372
-0.754293 0.183994 20.9925
-0.670359 0.0966764 21.2985
-0.551469 0.18638 20.9695
-0.822058 0.0878991 20.548
-0.325157 -0.0450376 20.9141
0.791682 0.0442529 19.8869
0.408414 0.0861914 19.8739
1.03254 -0.0909172 20.9092
1.20657 0.230462 20.3251
0.364678 -0.228477 21.4945
0.905284 -0.142388 21.1797
-0.420443 -0.0307142 21.4589
-0.0206089 -0.110674 21.5864
-0.753507 -0.0690807 21.2201
-0.646364 -0.165886 21.279
-0.631197 -0.0224674 20.8042
-0.781907 -0.201215 20.741
-0.34832 -0.168835 20.7632
0.694943 0.271353 19.9522
0.990273 0.21844 20.7799
0.553351 -0.0526077 21.508
-0.330829 -0.18042 21.4647
-0.593666 -0.266891 21.1539
-0.52818 -0.245087 20.8171
-0.771917 -0.123731 19.8729
-1.20851 -0.460082 18.4754
-1.08847 -0.316013 19.4084
-1.17036 -0.165662 19.3318
-0.41542 -0.0669245 19.6259
-2.65416 -0.712317 20.0828
-0.969371 -0.25663 20.9791
0 0 0
-1.20241 -0.47352 21.3475
-1.26854 -0.41296 21.3683
-0.546953 -0.455719 21.4424
-0.235351 -0.146771 21.4359
-0.0149872 0.0852974 3.98289
-0.184041 -0.10548 21.5405
-0.113776 -0.208209 21.4419
0.106845 0.132365 21.4202
0.340729 0.143608 21.4346
0.350708 0.439309 5.8326
0.453104 0.382593 21.4161
0.614894 0.317942 21.1455
0.902998 0.477552 21.1183
0.781671 0.198723 21.2373
1.12176 0.974181 12.4235
1.01107 0.580199 20.9951
1.26564 0.456538 20.7719
0.868784 0.670385 20.4482
0.854871 0.151274 21.4052
1.14869 0.747193 12.888
0.858976 0.446116 20.7846
0.972165 0.262234 19.7132
0.404368 0.272761 20.0049
-0.801647 -0.0299826 19.8622
-1.32209 0.016782 18.2945
-1.16744 0.117957 19.381
-0.464424 -0.00113803 19.6162
-2.85431 -0.0945524 20.1483
-1.01019 -0.192038 20.9535
-1.366 -0.225662 21.2249
-0.744361 -0.676648 21.3924
-0.286101 -0.209273 21.4634
-0.27793 -0.573225 21.4859
0.268432 -0.0148062 21.1622
0.404294 0.0474395 21.4479
0.852342 0.0316913 21.0481
1.11029 0.224767 20.9349
0.744551 0.0664174 21.0825
0.833577 0.366809 7.41725
1.38348 -0.0995833 21.0154
1.35468 0.271323 19.7933
0.888013 0.0506212 21.3902
1.33 0.442637 12.2323
1.08372 -0.0725323 19.9168
0.626694 0.00967782 19.579
-0.759052 0.168162 19.9068
-1.17995 0.690694 18.6934
-0.918138 0.463711 19.5995
-0.421741 0.120312 19.6624
-2.12278 0.685469 20.1518
-1.01771 0.0574112 20.851
-2.14589 -0.0869488 16.0322
-1.47056 0.362966 20.8215
-1.70156 -0.495752 21.2855
-0.463947 -0.162414 21.5133
0.214817 1.24563 4.36441
-1.00142 -0.110494 21.8794
0.0524892 -0.304745 21.5795
0.400717 -0.118063 21.4784
1.47529 1.02188 8.33999
0.527406 -0.37558 21.5567
1.05143 -0.355479 21.0922
0.727905 -0.229203 21.1816
1.84542 -0.1553 14.7872
0.884544 -0.56605 21.0591
1.26208 -0.388716 20.3205
0.673134 -0.165803 20.9611
1.33119 -0.521637 18.1115
0.685455 -0.451717 20.2626
0.704309 -0.254215 19.5705
1.2082 -0.441057 18.5395
0.020792 -0.875941 17.5536
0.0214375 -0.52855 17.2324
0.0101475 -0.138776 19.1514
0.0422787 -7.84465 6.87282
-0.00785243 -0.0144235 0.204233
0 0 0
0 0 0
0.0159678 0.0902142 4.20135
0 0 0
0 0 0
-0.356485 0.399528 5.43287
0.0360549 0.15285 3.5015
-0.0745437 0.146615 0.89807
-1.10344 0.92998 12.5156
-0.100192 0.390052 6.07075
0.262369 -0.545349 -3.06929
0.103634 -0.380092 1.89165
-1.08456 0.726824 15.1554
0.0695173 0.893276 9.35695
0.085308 0.587044 6.38906
-0.0766814 0.250193 10.7349
1.32669 0.0119369 18.3638
0.0191361 0.471274 17.1151
0.0115901 -0.00740188 19.1494
-0.880138 0.39599 8.04509
0.119534 -0.665014 -1.53107
-0.0846799 -1.42678 -1.55061
-1.20191 0.464141 14.141
-0.0797069 -1.16146 2.42228
-0.0159823 -0.367298 7.01775
1.1808 0.682019 18.7137
-0.00321465 1.3809 18.3386
0.0062905 0.227782 19.1938
-0.0100908 7.67638 18.0464
2.12479 -0.0688712 15.5817
-0.0191762 2.54699 20.2456
-0.000509311 0.243338 0.40253
-0.22015 1.21515 3.80732
0 0 0
0 0 0
-1.45233 0.9933 8.10632
0.00193524 -0.0177722 3.74049
-0.100809 0.352797 -0.409267
-1.86318 -0.12181 15.0456
-0.0163418 -0.963833 10.6268
-0.20641 -1.78875 4.95848
-1.55802 -0.527766 17.4703
0.0296479 -1.33044 15.9108
0.0688639 -1.10318 8.88943
0.760579 -0.117876 19.8907
1.08531 -0.305459 19.4391
1.16519 -0.154162 19.367
0.411075 -0.0655592 19.6469
2.62281 -0.691941 20.0813
0.970535 -0.254892 20.9798
1.20755 -0.470893 21.3292
1.27808 -0.404314 21.3724
0.556623 -0.452322 21.4508
0.236316 -0.145498 21.4365
0.189627 -0.107481 21.5335
0.117108 -0.206119 21.4383
-0.103298 0.131101 21.4076
-0.348604 0.145439 21.4375
-0.463965 0.385583 21.3867
-0.618438 0.314894 21.1412
-0.897405 0.478602 21.0904
-0.719798 0.230592 21.0215
-0.999201 0.575746 21.0277
-1.22549 0.442024 20.8144
-1.07479 0.563064 19.9757
-0.571235 0.216533 20.9754
-0.68178 0.402103 20.1201
-0.804193 0.246588 19.9491
-0.440497 0.154397 20.2858
0.788564 -0.0268612 19.8777
1.16251 0.113306 19.3979
0.461168 -0.00149458 19.6372
2.85652 -0.0876575 20.1497
1.0159 -0.189723 20.957
1.36143 -0.223706 21.224
0.738778 -0.673206 21.4033
0.285649 -0.207348 21.4617
0.272959 -0.576626 21.4946
-0.268226 -0.0132299 21.1762
-0.407582 0.0487939 21.4449
-0.857177 0.0310838 21.0567
-1.09868 0.225598 20.9351
-0.763119 0.0530637 21.2143
-1.35869 -0.0792625 21.0876
-1.30913 0.146935 21.3156
-0.548775 0.110202 20.9286
-1.14914 -0.0959549 19.5641
-0.487439 -0.0319015 19.9015
0.756654 0.167071 19.9059
0.921444 0.464176 19.5964
0.426002 0.120094 19.6717
2.13783 0.694131 20.1473
1.02851 0.0588482 20.8518
1.48738 0.371728 20.8237
1.73995 -0.509356 21.2838
0.466518 -0.167317 21.5191
1.02832 -0.109676 21.9048
-0.055075 -0.30802 21.56
-0.403971 -0.116309 21.4865
-0.534406 -0.379175 21.5389
-1.0503 -0.351743 21.0813
-0.699825 -0.170108 21.2149
-0.874711 -0.553845 21.0715
-1.14676 -0.428129 20.8249
-0.609868 -0.165378 20.7198
-0.620182 -0.509617 20.4492
-0.471819 -0.162458 19.8084
-1.14593 -0.249998 19.3634
-1.23421 -0.454405 21.3669
-0.136419 -0.144983 21.495
0.550201 0.353542 21.2736
1.13835 0.518617 20.8861
0.917905 0.356998 20.2039
-1.18716 0.00223499 19.3392
-1.31393 -0.317278 21.3658
-0.103998 -0.40451 21.3289
0.746362 0.19161 21.0189
1.42044 0.142274 21.0068
1.09681 0.0519577 19.5721
-1.06389 0.352079 19.4789
-1.51549 0.000258991 20.9822
-0.779469 -0.488527 21.7781
0.753502 -0.277116 21.3356
1.18629 -0.425733 21.145
0.965814 -0.194559 19.7448
0.0206954 -0.752874 17.3345
0 0 0
0 0 0
0 0 0
0.0665066 -0.0222223 1.3889
0.0787936 0.744285 7.84786
0.0199399 0.0313068 17.0392
0.275906 -0.820056 -3.17864
0.06851 0.0468893 3.85583
0.00565171 1.14997 17.6194
-0.011042 0.858476 9.11727
0 0 0
0.00290472 0.416314 -1.27881
-0.0442851 -0.641037 2.61892
-0.0669047 -1.63133 7.32274
1.14533 -0.240475 19.393
1.2443 -0.44845 21.3573
0.14203 -0.145149 21.4871
-0.555693 0.352204 21.2499
-1.11235 0.508885 20.9211
-0.741131 0.323895 20.0315
1.17799 0.0101113 19.3672
1.31343 -0.307852 21.3639
0.099863 -0.402674 21.3434
-0.750949 0.190463 21.0308
-1.3706 0.152294 21.1228
-0.945935 0.0776902 20.009
1.06209 0.348535 19.4851
1.52778 -0.00456693 20.9849
0.792884 -0.498665 21.7768
-0.761175 -0.279154 21.3228
-1.15101 -0.396046 21.1499
-0.931239 -0.510512 20.221
-1.06241 0.0290775 0.569326
-0.320073 -1.76261 0.830034
-0.104338 -0.319256 2.28627
0.0684866 0.00575631 0.304402
-0.0623595 -0.00822402 0.000797292
0.0147497 -0.00796362 0.224213
-2.59257 -0.249639 1.32985
-0.167397 0.878402 0.725088
-0.0137417 -0.0298917 0.678235
0.337924 0.0778608 1.32527
-0.0356726 0.0124157 -0.0289495
0.17469 0.293353 1.22866
0.327725 -1.76927 0.832396
0 0 0
0.112798 -0.308509 2.30485
0.0631463 -0.00378655 0.0113385
-0.0677306 0.00603659 0.301903
-0.0151339 -0.00796287 0.229113
0.166024 0.870417 0.720387
1.25125 -0.139289 0.601931
0.0123965 -0.0276271 0.685692
0.0228772 0.0209485 -0.0457053
-0.328963 0.0799483 1.30654
-0.176987 0.296899 1.22996
0.2305 -0.0914467 1.13948
0 0 0
4.08243e-18 -1.10058e-17 1.67304e-16
0 0 0
0.00382184 0.01046 0.283585
0 0 0
-0.103567 0.100865 0.458881
0 0 0
-0.0938117 -0.163102 0.438675
0 0 0
0.00740737 0.0305131 0.105317
-0.0482871 -0.00563333 0.00798514
0.0108082 0.0386924 0.120932
0.000961482 0.0339746 0.152404
0.00883343 0.0443223 0.144394
0.0125495 -0.0115388 0.0796663
-0.230852 -0.0918864 1.12903
0 0 0
0 0 0
0 0 0
-0.00391476 0.0105551 0.285315
5.90648e-06 -1.19224e-06 -0.000111445
0 0 0
0.103061 0.0987038 0.456705
0.093536 -0.162648 0.439647
0.0469286 -0.00544028 0.00788462
0 0 0
-0.00735766 0.0303229 0.105499
-0.0107785 0.0382936 0.121049
-0.0125633 -0.0115534 0.0797646
-0.000937677 0.033974 0.151232
-0.00885494 0.0444906 0.145329
0 0 0
0 0 0
-1.54817e-05 -0.00217111 0.0692269
0 0 0
0 0 0
0 0 0
0 0 0
0 0 0
0 0 0
0 0 0
0 0 0
0.00234377 0.0010553 0.0769549
-0.000576714 0.217172 0.0589467
-1.02321e-06 0.000548118 0.00643104
-0.000438255 -0.00384612 0.0222904
0 0 0
-0.000521227 0.00866069 -0.00407768
-1.99418e-05 0.000246155 -0.00166277
0.00248599 0.0155409 0.0875778
0 0 0
0 0 0
0 0 0
0 0 0
0 0 0
0 0 0
0 0 0
0 0 0
0 0 0
0 0 0
0.00043039 -0.00393293 0.0227724
0 0 0
-0.0024805 0.0153172 0.0868694
0 0 0
5.36371e-05 -2.79811e-05 0.00189843
0 0 0
-1.27518e-18 7.97823e-18 6.40954e-17
-1.37597e-05 -0.00437512 0.073328
0 0 0
0 0 0
0.000762594 0.00857992 0.0790013
-7.20929e-10 -6.01297e-09 -1.93076e-06
8.20718e-07 1.40603e-06 0.000146023
0.00112864 0.0295213 0.144987
0.0120658 0.002043 0.107756
-7.64995e-07 3.12715e-06 -0.00018883
-4.40449e-05 0.249669 0.776819
-2.04593e-07 -0.000856186 0.0231501
3.40064e-08 7.45052e-06 -1.41361e-05
-2.19815e-05 -1.0995e-05 0.000770214
0 0 0
0 0 0
0 0 0
-2.42033e-18 -1.53463e-17 -8.40107e-17
-0.000809075 0.00845344 0.0784839
-0.0120094 0.00203753 0.107273
-0.00112447 0.0291459 0.144257
0 0 0
-0.00343737 -0.0103591 0.122339
0.00971043 -0.0235577 0.115215
-0.00503704 -0.0590167 0.178453
0 0 0
6.74841e-05 0.00279331 0.0222619
0 0 0
0.000990107 0.0332889 0.155328
0.000316988 0.00671294 0.0892985
0 0 0
4.81184e-05 5.3962e-05 0.00253212
0.0014807 0.014091 0.075203
0.000275642 -0.00043806 0.0214648
-0.000289255 -0.000441791 0.0215122
0.00298403 -0.00325046 0.0493607
-0.00297796 -0.00324844 0.0493712
0 0 0
0 0 0
0.000325085 -8.64118e-06 0.00721302
-0.00033778 -9.20729e-06 0.00750782
0.000996412 0.000743226 0.0639238
-6.75558e-05 3.47038e-05 0.00330512
0 0 0
-4.61889e-05 0.000406683 0.00397202
0 0 0
0 0 0
0 0 0
0 0 0
-0.136358 -0.0477614 -0.0241629
0.143717 -0.0526103 -0.0275006
-0.00493752 0.0026152 -0.00113305
0.00486152 0.003413 -0.00149183
0 0 0
0 0 0
0 0 0
0 0 0
-0.101757 0.158559 0.78244
0.102065 0.159304 0.786016
0.0140525 -0.00045384 0.0699235