# vtk DataFile Version 2.0
tet_velo
ASCII
DATASET UNSTRUCTURED_GRID
POINTS 29498 float
-0.835 0.505 -2.22547
-0.795 0.465 2.32104
-0.765 1.17536 -2.195
-0.675 1.885 2.06757
0.835 0.505 -2.22547
0.795 0.465 2.32104
0.765 1.17536 -2.195
0.675 1.885 2.06757
-0.821038 0.492295 -0.709967
-0.816135 0.470531 0.805537
-0.8172 1.49411 -0.774143
-0.755728 1.69918 0.646713
0.821036 0.492297 -0.709967
0.816134 0.470533 0.805537
0.817206 1.49411 -0.774143
0.755724 1.69918 0.646713
-1.64385 -0.0998789 -3.36144
-1.64117 0.00817379 -2.18694
-1.62206 -0.0105693 -0.66899
-1.59163 -0.0890557 0.868009
-1.56388 -0.112288 2.38756
-1.56195 -0.051011 3.56992
-1.56964 0.0451965 4.73773
-1.64213 0.33995 -3.38023
-1.64063 0.483986 -2.21607
-1.62301 0.519699 -0.716536
-1.58075 0.508879 0.791518
-1.53999 0.526318 2.29287
-1.54878 0.590366 3.47388
-1.56428 0.679554 4.64478
-1.61331 1.14543 -3.39124
-1.59644 1.27991 -2.22317
-1.60784 1.52755 -0.788162
-1.53394 1.7144 0.640145
-1.46137 1.8677 2.07697
-1.50731 1.92183 3.2619
-1.54899 1.97694 4.44806
-1.5872 2.59244 -3.47893
-1.57937 2.76469 -2.32504
-1.57862 3.07549 -0.920712
-1.5595 3.39519 0.463214
-1.53664 3.63479 1.86853
-1.54067 3.75149 3.02449
-1.5584 3.82636 4.20031
-0.836614 -0.0872448 -3.36754
-0.830298 0.0286332 -2.19585
-0.817363 -0.0193264 -0.667795
-0.806721 -0.121559 0.879974
-0.794074 -0.160154 2.40848
-0.798078 -0.0841889 3.58411
-0.805439 0.0249352 4.74594
-0.839916 0.338688 -3.38211
-0.799577 0.563139 3.48559
-0.807315 0.663863 4.65097
-0.815695 1.10026 -3.37954
-0.767057 1.92377 3.26002
-0.800173 1.97582 4.44766
-0.789144 2.55491 -3.46736
-0.780873 2.72594 -2.31229
-0.789699 3.05624 -0.913027
-0.789472 3.39822 0.462291
-0.780682 3.64921 1.86194
-0.787115 3.76516 3.01791
-0.802143 3.83589 4.19553
0.798804 -0.0872437 -3.36754
0.823041 0.0286341 -2.19585
0.819002 -0.0193246 -0.667795
0.811899 -0.121558 0.879974
0.792328 -0.160153 2.40848
0.753378 -0.0841887 3.58411
0.733051 0.0249358 4.74594
0.78907 0.338689 -3.38211
0.73002 0.563139 3.48559
0.71716 0.663863 4.65097
0.771716 1.10026 -3.37954
0.688567 1.92377 3.26002
0.697449 1.97582 4.44766
0.802341 2.55491 -3.46736
0.8085 2.72595 -2.31229
0.791378 3.05624 -0.913027
0.752248 3.39822 0.462291
0.722009 3.64921 1.86194
0.711566 3.76516 3.01791
0.707214 3.83588 4.19553
1.61528 -0.0998765 -3.36144
1.63803 0.00817646 -2.18694
1.63008 -0.010566 -0.66899
1.60594 -0.0890541 0.868009
1.57144 -0.112287 2.38756
1.53297 -0.0510102 3.56992
1.5098 0.0451971 4.73773
1.60771 0.339953 -3.38023
1.63952 0.483989 -2.21607
1.62979 0.519703 -0.716536
1.59359 0.50888 0.791518
1.54899 0.526319 2.29287
1.50754 0.590366 3.47388
1.49091 0.679554 4.64478
1.58602 1.14543 -3.39124
1.59932 1.27991 -2.22317
1.61428 1.52755 -0.788162
1.54217 1.7144 0.640144
1.46423 1.8677 2.07697
1.45573 1.92183 3.2619
1.46289 1.97694 4.44806
1.59925 2.59244 -3.47893
1.60248 2.7647 -2.32504
1.58264 3.07549 -0.920713
1.53301 3.39519 0.463213
1.48907 3.63479 1.86853
1.47399 3.75149 3.02449
1.47078 3.82636 4.20031
-0.793324 0.84018 -2.20356
0 0.459101 -2.27137
-0.889257 0.437409 -1.46772
-0.792797 1.175 2.2521
0 0.447202 2.33884
-0.852465 0.420868 1.56329
0 1.19658 -2.21622
-0.847575 1.39121 -1.48457
0 1.90999 2.09256
-0.720415 1.79714 1.35714
0.793325 0.84018 -2.20356
0.889254 0.437412 -1.46772
0.792797 1.175 2.2521
0.852978 0.420356 1.56329
0.847575 1.39121 -1.48457
0.720411 1.79714 1.35714
-0.817799 0.482201 0.0477849
-0.886853 0.993201 -0.742055
-1.08329e-06 0.409312 -0.709967
-0.89396 1.08486 0.726125
-6.00922e-07 0.409233 0.805537
-0.781728 1.59191 -0.063715
3.18209e-06 1.95132 -0.774143
-1.90978e-06 1.95706 0.646713
0.8178 0.4822 0.0477849
0.886851 0.993205 -0.742055
0.893959 1.08486 0.726125
0.781729 1.59191 -0.063715
-0.875984 0.91669 -1.47615
-0.889704 1.03903 -0.00796503
-0.889928 1.12993 1.46022
-5.41643e-07 0.409187 -1.46772
-8.42103e-07 0.409285 0.0477849
-3.00461e-07 0.40169 1.56329
0 0.84018 -2.30651
0 1.175 2.2715
1.59104e-06 1.71733 -1.48457
6.36154e-07 1.95706 -0.063715
-9.5489e-07 1.95707 1.35714
0.875987 0.916692 -1.47615
0.889684 1.03903 -0.00796503
0.889929 1.12993 1.46022
-1.23781 0.494493 -2.22077
-0.832649 0.266817 -2.21066
-0.837458 0.421844 -2.80379
-1.1675 0.495659 2.30695
-0.794537 0.152423 2.36476
-0.797289 0.51407 2.90331
-1.18072 1.22763 -2.20909
-0.790347 1.13781 -2.78727
-0.772937 1.95065 -2.25364
-1.06819 1.87635 2.07227
-0.721028 1.90439 2.6638
-0.727841 2.7671 1.96476
0.82902 0.266817 -2.21066
0.812035 0.421844 -2.80379
1.23726 0.494494 -2.22077
0.793664 0.152423 2.36476
0.76251 0.51407 2.90331
1.17199 0.495659 2.30695
0.768358 1.13781 -2.78727
0.78675 1.95065 -2.25364
1.18216 1.22764 -2.20909
0.681783 1.90439 2.6638
0.698505 2.7671 1.96476
1.06962 1.87635 2.07227
-1.22203 0.505997 -0.713251
-0.819201 0.236484 -0.688881
-1.19844 0.489705 0.798527
-0.811428 0.174486 0.842755
-1.21252 1.51083 -0.781153
-0.803449 2.27517 -0.843585
-1.14484 1.70679 0.643429
-0.7726 2.5487 0.554502
0.820019 0.236486 -0.688881
1.22541 0.506 -0.713251
0.814016 0.174487 0.842755
1.20486 0.489706 0.798527
0.804292 2.27518 -0.843585
1.21574 1.51083 -0.781153
0.753986 2.5487 0.554502
1.14895 1.70679 0.643429
-1.64251 -0.0458525 -2.77419
-1.64299 0.120036 -3.37083
-1.24023 -0.0935618 -3.36449
-1.63161 -0.00119774 -1.42797
-1.6409 0.24608 -2.20151
-1.23573 0.0184035 -2.19139
-1.60684 -0.0498125 0.0995096
-1.62253 0.254565 -0.692763
-1.21971 -0.0149478 -0.668392
-1.57775 -0.100672 1.62779
-1.58619 0.209912 0.829763
-1.19917 -0.105307 0.873991
-1.56292 -0.0816493 2.97874
-1.55194 0.207015 2.34021
-1.17898 -0.136221 2.39802
-1.5658 -0.00290725 4.15382
-1.55536 0.269677 3.5219
-1.18001 -0.0676 3.57701
-1.56696 0.362375 4.69125
-1.18754 0.0350659 4.74183
-1.64138 0.411968 -2.79815
-1.62772 0.74269 -3.38574
-1.24103 0.339319 -3.38117
-1.63182 0.501842 -1.4663
-1.61853 0.881947 -2.21962
-1.60188 0.514289 0.0374912
-1.61543 1.02362 -0.752349
-1.56037 0.517599 1.54219
-1.55734 1.11164 0.715831
-1.54439 0.558342 2.88337
-1.50068 1.19701 2.18492
-1.55653 0.63496 4.05933
-1.52805 1.2561 3.36789
-1.17418 0.576752 3.47974
-1.55664 1.32825 4.54642
-1.1858 0.671708 4.64788
-1.60487 1.21267 -2.80721
-1.60025 1.86894 -3.43509
-1.2145 1.12284 -3.38539
-1.60214 1.40373 -1.50567
-1.5879 2.0223 -2.27411
-1.57089 1.62097 -0.0740088
-1.59323 2.30152 -0.854437
-1.49766 1.79105 1.35856
-1.54672 2.5548 0.551679
-1.48434 1.89476 2.66944
-1.499 2.75124 1.97275
-1.52815 1.94938 3.85498
-1.52399 2.83666 3.1432
-1.13719 1.9228 3.26096
-1.55369 2.90165 4.32419
-1.17458 1.97638 4.44786
-1.58328 2.67857 -2.90199
-1.18817 2.57367 -3.47315
-1.57899 2.92009 -1.62288
-1.18012 2.74532 -2.31866
-1.56906 3.23534 -0.228749
-1.18416 3.06586 -0.91687
-1.54807 3.51499 1.16587
-1.17449 3.39671 0.462752
-1.53865 3.69314 2.44651
-1.15866 3.642 1.86524
-1.54954 3.78893 3.6124
-1.16389 3.75832 3.0212
-1.18027 3.83112 4.19792
-0.833456 -0.0293058 -2.78169
-0.838265 0.125722 -3.37482
-0.0189047 -0.0872442 -3.36754
-0.82383 0.00465341 -1.43182
-0.00362843 0.0286337 -2.19585
-0.812042 -0.0704426 0.10609
0.000819467 -0.0193255 -0.667795
-0.800398 -0.140856 1.64423
0.0025887 -0.121558 0.879974
-0.796076 -0.122171 2.9963
-0.000872935 -0.160154 2.40848
-0.801758 -0.0296268 4.16502
-0.798827 0.239475 3.53485
-0.0223501 -0.0841888 3.58411
-0.806377 0.344399 4.69846
-0.0361938 0.0249355 4.74594
-0.827806 0.719473 -3.38082
-0.0254231 0.338689 -3.38211
-0.803446 0.613501 4.06828
-0.783317 1.24346 3.3728
-0.0347785 0.563139 3.48559
-0.803744 1.31984 4.54932
-0.0450777 0.663863 4.65097
-0.80242 1.82758 -3.42345
-0.0219896 1.10026 -3.37954
-0.783615 1.9498 3.85384
-0.777086 2.84447 3.13897
-0.039245 1.92377 3.26002
-0.801158 2.90585 4.32159
-0.0513621 1.97582 4.44766
-0.785009 2.64043 -2.88982
0.00659849 2.55491 -3.46736
-0.785286 2.89109 -1.61266
0.0138136 2.72594 -2.31229
-0.789585 3.22723 -0.225368
0.000839521 3.05624 -0.913027
-0.785077 3.52371 1.16212
-0.0186117 3.39822 0.462291
-0.783898 3.70718 2.43993
-0.0293363 3.64921 1.86194
-0.794629 3.80052 3.60672
-0.0377744 3.76516 3.01791
-0.0474648 3.83589 4.19553
0.810923 -0.0293048 -2.78169
0.793937 0.125723 -3.37482
1.20704 -0.0935601 -3.36449
0.821021 0.00465473 -1.43182
1.23053 0.0184053 -2.19139
0.81545 -0.0704412 0.10609
1.22454 -0.0149453 -0.668392
0.802113 -0.140856 1.64423
1.20892 -0.105306 0.873991
0.772853 -0.122171 2.9963
1.18188 -0.13622 2.39802
0.743214 -0.0296265 4.16503
0.741699 0.239475 3.53485
1.14317 -0.0675994 3.57701
0.725106 0.344399 4.69846
1.12142 0.0350664 4.74183
0.780393 0.719474 -3.38082
1.19839 0.339321 -3.38117
0.72359 0.613501 4.06828
0.709294 1.24346 3.3728
1.11878 0.576753 3.47974
0.707304 1.31984 4.54932
1.10403 0.671709 4.64788
0.787028 1.82758 -3.42345
1.17887 1.12285 -3.38539
0.693008 1.9498 3.85384
0.700067 2.84447 3.13897
1.07215 1.9228 3.26096
0.702331 2.90585 4.32159
1.08017 1.97638 4.44786
0.805421 2.64043 -2.88982
1.20079 2.57368 -3.47315
0.799939 2.89109 -1.61266
1.20549 2.74532 -2.31866
0.771813 3.22723 -0.225368
1.18701 3.06587 -0.91687
0.737129 3.52371 1.16212
1.14263 3.39671 0.462752
0.716788 3.70718 2.43993
1.10554 3.642 1.86524
0.70939 3.80052 3.60672
1.09278 3.75832 3.0212
1.089 3.83112 4.19792
1.62666 -0.04585 -2.77419
1.6115 0.120038 -3.37083
1.63405 -0.00119478 -1.42796
1.63878 0.246083 -2.20151
1.61801 -0.0498101 0.0995096
1.62993 0.254568 -0.692763
1.58869 -0.100671 1.62779
1.59976 0.209913 0.829763
1.5522 -0.0816486 2.97874
1.56021 0.207016 2.34021
1.52138 -0.00290653 4.15382
1.52026 0.269678 3.5219
1.50035 0.362376 4.69125
1.62362 0.411971 -2.79815
1.59687 0.742693 -3.38573
1.63466 0.501846 -1.4663
1.61942 0.88195 -2.21962
1.61169 0.514291 0.0374911
1.62204 1.02363 -0.752349
1.57129 0.517599 1.54219
1.56788 1.11164 0.715831
1.52827 0.558342 2.88337
1.50661 1.19701 2.18492
1.49922 0.63496 4.05933
1.48164 1.2561 3.36789
1.4769 1.32825 4.54642
1.59267 1.21267 -2.80721
1.59263 1.86894 -3.43509
1.6068 1.40373 -1.50567
1.6009 2.0223 -2.27411
1.57823 1.62098 -0.0740089
1.59846 2.30152 -0.854438
1.5032 1.79105 1.35856
[...]
POINT_DATA 29498
VECTORS point_vectors float
-1.30926 -1.06042 3.63792
0.0997988 0.272298 1.22616
-3.96276 1.74104 4.98241
0.119511 -0.0138115 0.852631
1.29564 -1.05589 3.67542
-0.109729 0.235632 1.1672
3.95676 1.74258 4.98509
-0.125421 -0.000786878 0.825946
0.0165663 0.0133762 0.289355
-0.0104238 0.0191733 0.292421
0.000991297 0.00333281 0.00464628
0.00340475 0.00926323 0.0390817
-0.016971 0.0129098 0.289428
0.00934389 0.0174995 0.291312
-0.00100309 0.00337351 0.00469713
-0.00345663 0.00949451 0.0378675
-0.676045 -0.495614 20.0618
-1.21777 -0.911821 21.006
-0.306339 -0.343934 21.8116
0.00256429 -0.0293719 21.9205
0.37308 0.318607 21.9844
0.691521 0.537415 21.9326
1.02096 0.394303 21.3773
-0.830128 -0.414125 19.8604
-1.87875 -0.885776 20.9445
-0.425861 -0.549145 21.9821
0.0340799 -0.195606 21.999
0.645059 0.131726 22.1632
1.44559 0.322824 22.2563
1.48739 0.120254 21.975
-1.03258 -0.0232433 19.64
-2.59982 0.0516466 20.5603
-1.28128 -0.347805 22.1634
-0.377889 -0.281378 22.1393
0.218302 -0.404215 22.3588
0.807945 -0.642295 22.1102
0.997274 -0.541633 21.6448
-0.492185 0.268309 19.9948
-0.90299 0.553534 20.4838
-0.75911 0.315456 21.4041
-0.248576 -0.0345326 22.1659
0.107559 -0.0753239 21.7062
0.176133 -0.046463 20.8251
0.184254 -0.0138491 20.3469
-0.685336 -0.94181 19.4911
-1.87912 -3.1152 21.3637
-0.445283 -0.1955 22.1962
-0.192005 -0.0312228 21.9773
-0.00820418 0.552853 22.0835
0.482235 1.43572 21.889
0.892063 1.6015 19.4998
-0.901956 -0.888206 18.9444
1.40317 1.96072 12.2524
1.94662 1.59889 14.1601
-1.10937 0.0522694 18.4343
1.41111 -0.685864 13.6379
1.26221 -1.04994 16.9715
-0.368601 0.50658 19.7314
-0.886896 1.31102 20.128
-0.774524 0.838511 21.6092
-0.290415 0.0340809 22.39
0.00273871 -0.0942012 21.4794
0.0934015 -0.0749065 20.7508
0.0722847 -0.0266018 20.2666
0.660188 -0.951687 19.4418
1.87355 -3.13686 21.3688
0.433471 -0.194522 22.1873
0.167932 -0.0352007 21.9592
-0.0305969 0.46208 22.0324
-0.434469 1.27772 21.6041
-0.803042 1.41318 17.9776
0.873825 -0.903514 18.891
-0.898156 1.75814 9.50665
-1.77467 1.53316 11.6263
1.07268 0.0533394 18.3615
-1.40985 -0.493214 12.0343
-1.34031 -0.959062 15.2585
0.36881 0.503321 19.734
0.895461 1.27673 20.1485
0.767379 0.839641 21.605
0.268319 0.0349117 22.3859
-0.0370808 -0.0948248 21.5635
-0.0942732 -0.0663427 20.7201
-0.0756557 -0.0263113 20.2657
0.686011 -0.507694 20.0441
1.23437 -0.911401 20.9974
0.29989 -0.346353 21.7958
-0.00601392 -0.0422541 21.8967
-0.353996 0.265336 21.9566
-0.687204 0.528131 21.9386
-0.987819 0.502186 21.5607
0.853554 -0.442846 19.8294
1.89351 -0.892342 20.9608
0.427949 -0.550313 21.9757
-0.0217994 -0.205702 21.98
-0.560789 0.0772624 22.0998
-1.38063 0.412388 22.4192
-1.53138 0.259815 21.9118
1.04425 -0.0205438 19.6034
2.5845 0.0498221 20.5543
1.26941 -0.340675 22.1492
0.372448 -0.276439 22.1303
-0.189094 -0.356856 22.3248
-0.797562 -0.617189 22.2477
-1.04099 -0.585538 21.6549
0.484637 0.262744 19.9953
0.895764 0.538548 20.49
0.756723 0.316229 21.4031
0.236129 -0.0254778 22.1415
-0.120636 -0.0720561 21.6856
-0.169783 -0.0389865 20.8233
-0.180149 -0.00746253 20.3676
-0.60759 0.00281065 0.63029
0.00335672 -0.349127 0.647885
0.0234929 -0.0305822 1.94201
-0.00648372 0.0531001 0.00203197
-0.0813326 -0.183002 -0.0355019
-0.0175581 0.0243009 0.604831
-8.06448e-05 0.0581306 0.072027
-0.0289167 -0.0146051 0.10846
-0.0138632 0.000220538 0.0165091
0.006685 0.0180109 0.135673
0.610605 0.00284278 0.633721
-0.0245743 -0.0316815 1.94299
0.0105431 0.0776899 -0.00920688
0.00733027 0.0115013 0.571655
0.0285451 -0.0144389 0.106537
-0.00755559 0.0199983 0.132973
-0.00611429 0.018061 0.546005
-1.19554e-05 0.00053303 0.00221148
-6.50326e-07 5.26506e-07 0.000218981
-4.78978e-05 0.000742727 0.00377204
0 0 0
3.14607e-05 0.000104294 0.000263636
-9.93619e-07 6.17419e-05 0.000625224
-6.58723e-05 -5.06817e-05 0.0111822
0.00496531 0.0166347 0.545046
1.20302e-05 0.000543317 0.00226255
4.48467e-05 0.0006982 0.00352043
-2.88022e-05 9.75141e-05 0.000243143
0 0 0
0 0 0
0.000845727 0.010805 0.0899617
4.46661e-09 -9.0182e-11 -2.93645e-06
-1.34517e-09 1.27784e-10 3.52557e-07
3.40857e-08 1.45541e-09 -3.0488e-06
0 0 0
-6.45864e-18 2.35497e-17 -5.15529e-18
-0.000206976 0.157389 0.198396
-3.32991e-07 -7.76484e-07 4.35681e-05
-0.000298021 -0.000127056 0.0261103
0 0 0
0 0 0
-0.00083193 0.010997 0.0880935
-3.50153 -1.92844 21.1198
-3.50544 -5.09457 21.7367
-2.50435 -2.28162 17.8995
0.943474 0.734741 20.9327
0.0673962 0.869683 19.4863
-0.159628 1.14541 7.69777
-4.96333 0.506049 20.3004
-3.13398 0.823963 16.6345
-2.5518 2.74484 19.0147
0.382722 -0.163649 19.3996
0.635482 -0.134253 8.94262
-0.0991571 -0.149636 22.2517
3.49416 -5.13299 21.7436
2.47548 -2.33811 17.7889
3.49968 -1.92765 21.124
-0.118271 0.728985 19.3445
0.523791 0.699489 5.65058
-0.832101 0.60958 20.8197
3.1241 0.879692 16.4382
2.55966 2.68838 19.0521
4.94599 0.502021 20.2938
-0.609583 0.145916 7.28526
0.0763472 -0.121419 22.2608
-0.36732 -0.0832604 19.3801
0.150913 -0.684587 22.1433
-0.109496 0.341379 17.9017
0.182142 0.0495928 21.0374
-0.00581994 0.0198257 19.0932
-1.83682 -0.978041 22.8285
-2.07579 1.7035 22.8047
-0.456418 -0.284861 20.7921
-0.555771 0.233537 22.408
0.0944526 0.339429 17.9637
-0.142034 -0.693042 22.1628
-0.02754 0.0101328 19.1321
-0.185578 0.0105036 21.0994
2.06703 1.7057 22.7978
1.82197 -0.966851 22.8175
0.537376 0.255811 22.4231
0.447944 -0.289806 20.8682
-1.05697 -0.776067 20.3471
-0.765141 -0.465213 19.9816
-0.72554 -0.680396 19.787
-0.773797 -0.682191 21.6684
-1.53982 -0.970428 20.986
-1.65528 -1.66501 21.1388
-0.0979625 -0.159196 21.8541
-0.293289 -0.40151 21.9242
-0.239397 -0.255853 21.9843
0.141665 0.118538 21.9744
0.0430891 -0.092801 21.9458
-0.044218 0.0137205 21.9469
0.598555 0.480046 21.9152
0.48985 0.281063 22.087
0.263193 0.508695 22.0847
0.868843 0.842555 20.6898
1.08387 0.456198 22.1445
0.722154 1.15288 22.3591
1.35022 0.296393 21.8216
0.956311 1.08223 22.2314
-1.50011 -0.700526 20.0746
-0.976118 -0.277152 19.6829
-0.960183 -0.620193 19.4666
-1.17096 -0.817356 21.9026
-2.46446 -0.508099 20.7862
-0.0979638 -0.345995 21.9537
-0.820114 -0.616624 22.1397
0.236977 -0.0503779 22.1198
-0.125948 -0.326838 22.125
0.977183 0.241542 22.1198
0.593642 -0.25797 22.3016
1.2105 0.408958 21.5553
1.32704 -0.31541 22.0236
1.86051 1.26052 20.7426
1.42839 -0.329789 22.1667
1.89043 0.747317 18.7425
-1.80947 0.0573218 19.7339
-0.754868 0.247207 19.7894
-1.15333 0.00306279 19.1445
-2.16202 -0.212972 21.7339
-1.69018 0.690385 20.3932
-0.686824 -0.340751 22.1704
-1.21175 0.318528 21.8883
-0.140809 -0.293086 22.2538
-0.417873 0.030149 22.143
0.565118 -0.510904 22.2023
-0.0386329 -0.16894 22.0188
0.966157 -0.692092 21.8547
0.241553 -0.356712 21.8812
0.962995 -0.951508 21.8285
0.334115 -0.327014 21.3658
1.06058 -0.971095 21.4645
-0.743507 0.447056 20.1752
-0.441512 0.402376 19.8546
-0.946189 0.517282 21.0119
-0.977149 0.904055 20.3024
-0.547793 0.0634142 21.9015
-0.899443 0.61712 21.5098
-0.0541365 -0.0713435 22.1409
-0.298879 0.0449123 22.3164
0.224663 -0.0799304 21.2622
-0.0091903 -0.0778616 21.3591
0.143054 -0.0188865 20.4788
0.175735 -0.0767671 20.8734
0.169297 -0.0395514 20.3948
-1.29364 -2.03435 19.5604
-0.809651 -0.965382 19.175
-0.0182057 -1.29823 19.1544
-0.853709 -1.05107 22.4678
-0.0121669 -4.77869 21.7581
-0.280363 -0.0434709 21.9669
-0.00550771 -0.703377 22.2908
-0.110355 0.183566 22.1255
-0.0137692 -0.314629 21.7286
0.124945 0.929766 21.9226
-0.0673626 0.147065 21.5882
0.365781 1.40991 22.1168
0.609324 2.00812 16.5435
-0.249177 0.979257 19.3541
1.43268 1.88258 15.4957
-0.106323 1.28492 17.3421
-1.11994 -0.48784 18.4677
-0.0380231 -1.18461 18.3394
2.17383 2.19435 14.266
1.6223 0.883953 6.7869
-0.00553945 -0.305345 -3.94986
2.56604 -0.248896 12.3136
0.366299 1.26957 5.20053
-0.727184 0.624651 19.0317
-0.0371692 0.12536 17.5349
1.22114 -1.14831 15.5756
0.20935 -0.510913 21.9268
-0.182044 -0.825959 5.31254
0.182874 -0.5771 22.001
0.185118 -2.18925 10.9215
-0.637352 0.955632 19.7182
0.00199585 0.633099 19.6051
-0.953386 1.37584 20.9082
0.0155295 1.75649 19.8806
-0.525784 0.263916 22.2954
-0.00474297 1.30046 21.6126
-0.109719 -0.0515954 21.8492
-0.0156423 0.108893 22.4628
0.0790442 -0.0959992 21.1858
-0.00743158 -0.0992015 21.4157
0.102219 -0.0782174 20.3487
-0.00069695 -0.0605914 20.8696
0.0122579 -0.0597306 20.3985
1.27884 -2.07188 19.5236
0.788561 -0.976421 19.1309
0.731239 -0.717648 19.7614
0.850117 -1.05544 22.4676
1.66707 -1.6845 21.1308
0.264877 -0.0427123 21.9551
0.237051 -0.263551 21.9761
0.0770612 0.159211 22.0906
0.0285391 -0.00198575 21.9211
-0.139718 0.783305 21.8884
-0.262742 0.432192 22.0453
-0.312418 1.28051 21.9965
-0.406574 1.77441 15.329
-0.687667 1.10208 22.4041
-1.27954 1.71219 13.283
-0.89658 1.15487 22.5117
1.09842 -0.508992 18.4133
0.972561 -0.639744 19.4156
-1.88924 2.18724 11.1901
-0.911934 0.907721 2.58293
-1.69322 1.3219 20.0886
-2.57942 -0.206163 10.0338
-1.79292 0.901714 17.1424
0.71853 0.62915 19.0226
1.15803 0.00386162 19.0737
-1.26748 -1.21987 14.2338
-0.201114 -0.507192 21.9016
-1.06551 -0.78661 20.2377
-0.198969 -0.62065 21.9573
-1.12978 -1.01558 21.2851
0.63877 0.94629 19.7254
0.441355 0.398939 19.8558
0.956677 1.36692 20.8976
0.982172 0.883093 20.3079
0.501684 0.267392 22.2869
0.89297 0.61712 21.5071
0.0757624 -0.0591228 21.9621
0.283988 0.0489161 22.3174
-0.0781792 -0.0952983 21.1868
-0.00656302 -0.0759142 21.358
-0.115004 -0.070117 20.3362
-0.179731 -0.0863435 20.8964
-0.142158 -0.0623694 20.4332
1.0729 -0.797985 20.3403
0.785598 -0.484717 19.9479
0.764423 -0.6764 21.6656
1.54747 -0.969215 20.9879
0.0873762 -0.160147 21.8413
0.288266 -0.399915 21.9157
-0.145118 0.0902859 21.9461
-0.0411473 -0.103221 21.9301
-0.56581 0.430594 21.9109
-0.440826 0.227152 22.0542
-0.837919 0.786953 20.6131
-1.02703 0.4985 22.2927
-1.31371 0.455491 22.0701
1.48331 -0.704346 20.0658
0.989947 -0.278762 19.6505
1.16651 -0.814314 21.8979
2.44989 -0.51316 20.7973
0.108478 -0.352468 21.9394
0.808117 -0.608981 22.134
-0.214609 -0.0761982 22.0772
0.125153 -0.316478 22.104
-0.880042 0.200514 22.1221
-0.504194 -0.23005 22.2542
-1.29977 0.364239 21.5127
-1.30019 -0.258878 22.1229
-1.69046 -0.23342 21.9131
1.82513 0.0575892 19.7089
0.754386 0.251318 19.7828
2.14417 -0.206751 21.7248
1.67327 0.673989 20.398
0.681121 -0.332635 22.1549
1.1974 0.322387 21.875
0.145393 -0.260003 22.187
0.413443 0.0455815 22.1356
-0.531402 -0.452441 22.1899
0.0328726 -0.159693 22.0127
-1.11153 -0.720466 21.5457
-0.256554 -0.368246 21.8584
-0.349814 -0.324962 21.3941
0.742015 0.443263 20.1705
0.935514 0.506103 21.0082
0.537112 0.0675024 21.8861
0.0372915 -0.0653436 22.1425
-0.217855 -0.0714928 21.2568
-0.13672 -0.0118116 20.4802
-1.25278 -0.767742 20.2081
-1.83009 -2.3044 18.8334
-1.30045 -1.28426 20.0559
-2.11096 -1.231 19.4125
-0.867388 -0.687997 19.6273
-2.44434 -1.94157 21.1686
-0.90579 -0.734777 21.7829
-0.716043 -0.578259 20.8332
-0.776096 -0.840621 22.0518
-1.0361 -1.25764 22.7042
-0.0186286 -0.297993 22.122
-0.0618349 -0.220938 21.9012
-0.0173189 0.213307 18.4656
-0.0904533 -0.067023 21.9148
0.292438 -0.247992 21.4372
0.0619253 0.0457191 21.8837
0.20719 0.0484535 22.0558
0.0233237 0.229805 19.5168
0.0663225 0.202581 22.0953
0.328352 0.31498 21.2173
0.539224 0.677754 22.0689
0.797117 0.414489 22.0461
0.230304 1.31641 18.6425
0.490362 0.764964 21.929
1.24332 0.843199 21.0841
1.26909 1.17569 21.571
1.04412 0.692265 21.1572
1.28305 2.04305 16.2232
0.83174 1.01938 22.4147
2.20898 1.31201 20.5026
1.36743 1.03769 19.944
-1.82196 -0.379264 19.8342
-3.35629 -0.992704 16.3917
-2.6654 0.256295 18.7703
-1.17592 -0.347206 19.1998
-5.1089 -0.997661 20.858
-1.76283 -0.671931 21.9449
-3.58905 -0.85603 22.6586
-0.670995 -0.883925 21.7979
-0.355293 -0.450217 22.1095
-0.881487 -0.601038 21.6575
0.0669678 0.16286 19.558
0.11895 -0.266434 22.2753
-0.07345 -0.0425557 19.4627
0.932522 0.500847 17.5305
0.966253 -0.278699 22.2397
-0.192437 1.45392 2.86652
0.727852 -0.549278 20.3874
1.76363 -0.0696228 19.1115
1.31944 -0.388797 22.0174
2.66196 -0.249763 10.0091
1.38728 -1.01041 21.1628
2.20029 -0.114533 18.4194
-1.26267 0.482044 19.9417
-1.43616 1.48307 18.6839
-0.732626 0.656365 19.9252
-0.857619 0.410354 19.4549
-2.30211 1.42136 19.9281
-1.74495 0.604051 21.2777
-3.43365 3.45404 20.9552
-1.06017 0.878176 20.8559
-1.71217 0.77452 22.2732
-0.746253 0.112068 22.0537
-1.00845 0.620647 22.7283
-0.638953 0.24373 22.1709
-0.393022 0.065773 22.3066
-0.209802 -0.103886 22.1072
-0.279567 0.0462669 22.3894
-0.133014 -0.0190773 21.5932
-0.0752985 -0.248082 22.2114
0.100306 -0.283943 21.9072
0.0440256 -0.371022 22.2124
0.168402 -0.0855526 21.2263
0.217643 -0.568058 22.1673
0.332215 -0.397252 21.5637
0.13664 -0.751553 22.1228
0.133155 -0.0324591 20.5498
0.356743 -0.445967 21.6156
1.82053 -2.35899 18.7845
-0.0193867 -3.07487 18.9998
-0.0433642 -3.75437 15.8708
-0.0322148 -1.30609 18.7316
-0.0152825 -7.86359 22.7359
0.701286 -0.581567 20.8067
-0.00532869 -1.75422 22.9274
-0.00800578 -0.172505 12.4047
-0.00501915 0.21009 18.5033
-0.007492 -0.411786 21.7499
-0.0227534 -0.171844 13.5965
-0.077703 0.197617 19.5122
-0.0266851 -0.0991714 21.7267
-0.153831 0.0437787 13.6605
-0.207009 1.05877 18.0263
-0.111655 0.397568 21.2528
-0.145784 -1.51078 -2.37844
-0.305011 0.582058 8.55587
-1.16018 1.90034 13.6714
-0.308048 1.76745 19.2561
0.580915 -2.06769 -4.91196
0.144071 1.87822 11.7096
3.3438 -1.01892 16.2259
-0.0661471 1.73093 13.6902
-0.048038 -0.573564 17.6257
0.795808 1.3755 0.937676
-0.366058 0.357613 3.15999
0.388326 -1.55767 -4.85036
-2.55337 0.0242025 6.20183
0.0831647 -2.14692 8.48942
0.458214 -1.27436 0.779167
1.43277 1.48436 18.6803
0.00863718 1.25205 19.5326
-0.0125062 0.825153 18.6066
0.0334798 4.42627 17.7922
3.42138 3.40899 20.9619
0.00897998 2.06649 20.6847
-0.0046939 3.03714 23.1453
0.996604 0.636779 22.7349
-0.0127517 0.465495 22.3927
-0.0186161 0.538535 22.7263
0.249769 0.0720188 22.3944
-0.00679022 0.0171122 21.6701
-0.0322211 -0.0823932 22.5951
-0.0571701 -0.329396 22.2381
-0.00227614 -0.0987081 21.1839
-0.013514 -0.573039 22.5878
-0.160218 -0.720666 22.1077
0.0153394 -0.18541 20.4653
-0.0202267 -0.824871 21.7221
1.27343 -0.773853 20.1889
1.31555 -1.32327 20.0264
2.14401 -1.28209 19.3687
0.875341 -0.7189 19.6078
2.45069 -1.94952 21.1707
0.896822 -0.741253 21.7885
0.775611 -0.847119 22.0483
1.035 -1.25596 22.6883
0.0159168 -0.310776 22.1258
0.0642459 -0.22589 21.8905
0.0795791 -0.076626 21.9023
-0.290742 -0.269716 21.4876
-0.0753518 0.0224251 21.882
-0.191532 0.0246747 22.0202
-0.0798598 0.169815 22.0575
-0.320142 0.254237 21.2257
-0.501806 0.568357 22.0111
-0.724524 0.3744 22.0436
-0.449794 0.667121 21.955
-1.02864 0.789088 20.5676
-1.18156 1.22141 21.341
-1.05164 0.611792 21.222
-0.823663 1.02494 22.8457
-2.1311 1.68691 20.2472
-1.2878 1.08118 18.6283
1.84439 -0.379786 19.8203
2.70248 0.271872 18.7011
1.16381 -0.355138 19.1436
5.09765 -0.998229 20.8468
1.74869 -0.675124 21.9381
3.57035 -0.846463 22.6393
0.67771 -0.887747 21.8509
0.355577 -0.445725 22.09
0.88258 -0.602319 21.7063
-0.0610984 0.132385 19.7146
-0.105119 -0.254901 22.2284
0.0675922 -0.0275217 19.5554
-0.811606 0.56531 17.3602
-0.85281 -0.208014 22.1355
-0.721963 -0.358022 19.5339
-1.60718 0.238001 16.6357
-1.49567 -0.354253 21.8887
-1.40453 -0.968633 20.8852
-2.25153 -0.0612553 16.6761
1.25829 0.477426 19.9439
0.735195 0.643957 19.9291
0.854338 0.411944 19.4484
2.28246 1.38747 19.9465
1.7294 0.595511 21.2716
1.05125 0.866088 20.8616
1.70197 0.774491 22.2586
0.741421 0.115821 22.0424
0.622513 0.246532 22.1703
0.379502 0.075597 22.3043
0.200025 -0.0911367 22.0988
0.120406 -0.0171346 21.5869
0.0555134 -0.214368 22.2196
-0.115309 -0.270029 21.9129
-0.15665 -0.0815932 21.2227
-0.220494 -0.541056 22.2414
-0.323296 -0.352602 21.5962
-0.128926 -0.039486 20.6257
-0.333214 -0.476781 21.7414
-1.65602 -1.34757 19.7588
-0.855182 -0.967528 22.3408
0.103514 -0.0452641 21.9161
0.202284 0.269663 22.0719
0.803969 0.887451 21.8643
1.38057 1.24795 21.8981
-2.69539 -0.569432 18.8137
-2.31474 -1.28006 23.1831
-0.136243 -0.318622 20.5351
0.278804 0.457713 18.6164
1.24593 0.340665 18.4939
2.43775 -0.210406 20.2944
-1.47948 0.889285 19.4472
-2.57012 1.42289 21.2979
-0.931421 0.251562 22.3716
-0.26427 -0.0715444 22.1903
0.0695184 -0.385839 22.25
0.264521 -0.456126 21.8605
-0.0354437 -3.72047 17.6945
-0.00452833 -0.917372 15.7117
-0.0133735 -0.134024 12.8453
-0.0478855 -0.0561506 14.0505
-0.346632 -0.105275 10.7667
0.233986 -0.247421 6.16758
-0.0617869 -1.39452 13.1283
0.0818856 -0.983989 -3.87517
0.606419 -1.78225 -3.60361
-0.00270933 2.23332 17.828
0.0146115 6.12579 20.3289
-0.0191081 1.27643 23.1663
-0.0243547 0.197446 22.5451
-0.0453712 -0.292056 22.7345
-0.0272297 -0.920189 22.1322
1.66351 -1.39117 19.7365
0.853948 -0.969117 22.3358
-0.108366 -0.0618493 21.9122
-0.21101 0.225921 22.044
-0.713555 0.769966 21.7711
-1.39567 1.49668 21.8642
2.74971 -0.586277 18.7374
2.30744 -1.27495 23.1613
0.138718 -0.339288 20.6577
-0.261002 0.444721 18.6786
-1.01359 0.651422 17.273
-2.43685 -0.0291841 18.4241
1.47559 0.887356 19.447
2.54737 1.39882 21.292
0.928678 0.25781 22.3681
0.24804 -0.0501372 22.1713
-0.0757004 -0.350718 22.3074
-0.311757 -0.497915 21.9984
-1.40288 -0.380575 1.64864
-0.0210168 -0.22199 0.397484
0.0407336 -0.0947015 1.83411
-0.0859333 0.0331664 -0.0301873
-0.303238 0.0246592 0.0581659
0.0562782 0.304707 2.25105
-2.70958 0.272005 1.80451
-0.0379577 0.121787 0.143026
-1.0869 -0.467037 1.81412
0.0176441 -0.0309641 0.0625476
-0.0216242 -0.0126595 0.0375804
0.00750188 0.020152 0.211301
0.0209932 -0.222731 0.398748
1.41377 -0.381881 1.65838
-0.04087 -0.0971801 1.83832
0.211076 -0.0306638 0.0183207
0.0995669 0.0196982 -0.0309283
-0.0873092 0.282663 2.2452
0.0378693 0.121662 0.142932
2.70513 0.27155 1.80013
1.09048 -0.465735 1.8196
0.00104414 -0.00721902 0.0315293
-0.0332537 0.00850363 0.0594314
-0.00947519 0.0238655 0.206623
0.0441188 0.175546 2.85737
-0.000951518 0.0176579 0.518835
-0.00429106 0.0320554 0.109755
0 0 0
-0.00703099 0.0137291 0.446726
-0.0114856 0.0139605 0.498389
0 0 0
0 0 0
0.000582004 0.00210606 0.00440244
0.0302559 0.21649 0.658457
-1.1423e-05 -3.72934e-05 -6.14718e-05
-6.43258e-05 0.000964699 0.0154249
0.00318709 0.00982195 0.046132
0 0 0
0 0 0
0 0 0
-0.0463462 0.173929 2.85688
0 0 0
0.000134091 0.0166334 0.518303
0.00425491 0.0318163 0.109618
0.00599831 0.008603 0.457546
0 0 0
0.00995463 0.0121446 0.497328
0 0 0
-0.000610689 0.00220918 0.00461041
3.25272e-05 0.00103167 0.0164415
-0.0319227 0.216024 0.655032
1.35121e-05 -4.38663e-05 -7.2461e-05
-0.00337991 0.010414 0.0452855
0 0 0
0 0 0
0 0 0
0 0 0
-0.159475 0.0523768 0.0463797
-2.6099e-09 -1.99716e-07 1.85495e-05
-0.00148996 -0.604708 0.175052
-0.000156646 0.00571913 0.0373632
2.35009e-07 -2.31707e-09 1.8245e-06
0.000356355 0.00147079 0.01786
-1.89417e-17 1.51522e-17 -2.55516e-18
-0.00164212 0.0084978 0.0425292
0 0 0
0.000249943 0.00228971 0.0190833
3.07383e-08 6.72182e-09 1.91684e-05
-6.7824e-06 0.00314779 0.000753192
0 0 0
-0.000557116 7.54507e-05 0.0114246
-0.101449 0.222954 0.312842
9.39126e-06 -5.37495e-05 1.20375e-05
-1.97336e-05 7.07229e-07 0.00115241
0 0 0
3.9912e-05 1.67906e-06 0.000440466
0.158072 0.0522031 0.046139
0 0 0
-4.94287e-07 -4.77695e-09 3.7559e-06
0.000155522 0.00565822 0.0371442
0 0 0
-0.000349279 0.0016208 0.0171224
-4.36376e-07 2.92267e-09 2.2684e-05
-0.000237432 0.00216547 0.0183665
0.10108 0.222295 0.311671
0.000566208 7.55226e-05 0.0115902
-4.73066e-05 1.88876e-06 0.000435289
0 0 0
-0.00345302 0.0295396 0.14244
0 0 0
0 0 0
0 0 0
-5.9702e-07 4.2791e-07 0.000242492
-7.73658e-08 3.56828e-08 2.35081e-05
8.3706e-05 0.00462953 0.0220479
0.00339177 0.0358908 0.210223
1.10089e-07 1.02343e-08 -2.30527e-05
5.92136e-08 5.66404e-08 -1.76947e-05
0.0190029 0.0671207 0.198533
0.00313194 0.000129806 0.00850622
-0.000138271 0.125044 0.492308
4.78471e-20 -7.41347e-19 -1.57462e-17
-0.000212702 -0.000434592 0.0402117
-0.000232346 -0.000161673 0.0308398
0 0 0
0.00341262 0.0292149 0.141918
0 0 0
0 0 0
-8.46733e-05 0.00462538 0.0219246
-0.00336896 0.0360156 0.207174
-0.00320771 0.000133654 0.00851048
-0.019137 0.0676023 0.198513