# vtk DataFile Version 2.0
tet_velo
ASCII
DATASET UNSTRUCTURED_GRID
POINTS 29498 float
-0.605 0.245 -2.17571
-0.671605 0.255 2.225
-0.619129 0.535 -2.075
-0.65938 0.765 2.125
0.605 0.245 -2.17579
0.671624 0.255 2.225
0.619274 0.535 -2.075
0.659391 0.765 2.125
-0.736352 0.139183 -0.708807
-0.770215 0.130855 0.758097
-0.796118 0.775239 -0.675
-0.782263 0.824633 0.725
0.734472 0.141069 -0.70886
0.770241 0.130842 0.75807
0.795358 0.774378 -0.675
0.782337 0.824652 0.725
-1.3493 -0.0879426 -3.33479
-1.35393 -0.0504282 -2.18806
-1.45288 -0.128232 -0.719424
-1.49246 -0.161253 0.762675
-1.43713 -0.0864709 2.23244
-1.41828 -0.0410768 3.38473
-1.42299 -0.0141705 4.52673
-1.34085 0.150691 -3.30847
-1.34549 0.225784 -2.16905
-1.47464 0.17517 -0.71344
-1.5005 0.144473 0.748194
-1.40694 0.208146 2.20509
-1.39791 0.25083 3.35643
-1.41325 0.277975 4.50062
-1.34829 0.562144 -3.23707
-1.3642 0.635439 -2.0949
-1.5151 0.78112 -0.684896
-1.51496 0.803562 0.720366
-1.40438 0.775803 2.13165
-1.39775 0.815152 3.28576
-1.41571 0.85454 4.44074
-1.38685 1.36102 -3.18027
-1.40743 1.45794 -2.04811
-1.47091 1.62017 -0.659807
-1.50589 1.71404 0.714081
-1.48958 1.72655 2.10309
-1.47002 1.73383 3.23672
-1.46087 1.755 4.38439
-0.65512 -0.0790943 -3.33912
-0.630084 -0.0366816 -2.19437
-0.712036 -0.14586 -0.718594
-0.758625 -0.171653 0.771125
-0.721452 -0.062411 2.24723
-0.705451 -0.0245466 3.39476
-0.708353 -0.00623058 4.53254
-0.651849 0.148432 -3.30982
-0.686817 0.267755 3.3647
-0.700363 0.28519 4.50499
-0.655497 0.521079 -3.22881
-0.685924 0.815208 3.28443
-0.70274 0.855656 4.44045
-0.668763 1.33432 -3.1721
-0.673686 1.43345 -2.03911
-0.724928 1.61637 -0.65438
-0.766661 1.72099 0.713423
-0.7645 1.72823 2.09843
-0.749209 1.73258 3.23206
-0.740272 1.75379 4.381
0.666314 -0.0789203 -3.33918
0.679643 -0.0363034 -2.19444
0.745672 -0.144622 -0.718642
0.747444 -0.171408 0.771098
0.684695 -0.0623645 2.24722
0.696497 -0.0244823 3.39475
0.709278 -0.00614084 4.53253
0.640097 0.148498 -3.30987
0.693611 0.267794 3.3647
0.708638 0.285263 4.50499
0.648746 0.521056 -3.22883
0.688606 0.815239 3.28442
0.705104 0.855717 4.44044
0.740088 1.33426 -3.17212
0.762874 1.43332 -2.03912
0.766857 1.61623 -0.654392
0.730376 1.72097 0.713413
0.694701 1.72827 2.09842
0.691844 1.73264 3.23205
0.69835 1.75386 4.38099
1.35132 -0.0875643 -3.33488
1.37058 -0.0497212 -2.18816
1.46591 -0.126642 -0.719505
1.49008 -0.160616 0.762625
1.42544 -0.0862957 2.23242
1.4163 -0.0409087 3.38471
1.42601 -0.0139707 4.52671
1.32354 0.150873 -3.30856
1.33106 0.22606 -2.16915
1.46645 0.176727 -0.713517
1.50464 0.144989 0.748149
1.41669 0.208232 2.20507
1.40873 0.250949 3.35642
1.42251 0.278143 4.5006
1.33623 0.562096 -3.23713
1.35286 0.635174 -2.09494
1.50731 0.78094 -0.68493
1.5165 0.803803 0.720344
1.41119 0.775865 2.13164
1.40371 0.815245 3.28575
1.41892 0.854682 4.44072
1.44462 1.36093 -3.18031
1.47437 1.45776 -2.04815
1.50119 1.62 -0.659834
1.47782 1.71406 0.714058
1.4347 1.72666 2.10307
1.42143 1.73396 3.2367
1.42292 1.75516 4.38437
-0.597246 0.39 -2.11054
0 0.213365 -2.20739
-0.703124 0.159643 -1.44226
-0.660657 0.51 2.17016
9.50694e-06 0.222825 2.25718
-0.744343 0.169495 1.49155
7.25091e-05 0.582104 -2.1221
-0.782545 0.730041 -1.375
5.48363e-06 0.821485 2.18148
-0.765002 0.838998 1.425
0.597457 0.39 -2.11071
0.703148 0.159623 -1.44233
0.661764 0.51 2.17126
0.743839 0.170015 1.49153
0.782786 0.730159 -1.375
0.765235 0.839196 1.425
-0.747623 0.14068 0.024645
-0.873004 0.457211 -0.691903
-0.000940109 0.139894 -0.708834
-0.881736 0.477744 0.741548
1.30551e-05 0.127214 0.758083
-0.784448 0.795193 0.025
-0.000380105 0.946275 -0.675
3.70187e-05 1.19661 0.725
0.752002 0.13631 0.0246049
0.873092 0.457724 -0.69193
0.881711 0.477747 0.741535
0.784473 0.795141 0.025
-0.857938 0.423605 -1.40863
-0.858628 0.467478 0.0248225
-0.864279 0.493872 1.45827
-0.000470055 0.159648 -1.44229
-0.000463527 0.137547 0.0246249
1.1281e-05 0.163475 1.49154
3.62545e-05 0.39 -2.3476
7.49528e-06 0.51 2.3062
-0.000153798 0.81542 -1.375
-0.000171543 1.17804 0.025
2.12512e-05 1.01963 1.425
0.858025 0.423862 -1.40866
0.858735 0.467735 0.0248024
0.864271 0.493873 1.45827
-0.975244 0.235392 -2.17238
-0.617542 0.104159 -2.18504
-0.628425 0.196716 -2.74276
-1.03927 0.231573 2.21504
-0.696529 0.0962945 2.23611
-0.679211 0.261377 2.79485
-0.991662 0.58522 -2.08495
-0.637313 0.52804 -2.6519
-0.646408 0.984225 -2.05705
-1.03188 0.770402 2.12833
-0.672652 0.790104 2.70471
-0.71194 1.24661 2.11171
0.642322 0.104348 -2.18511
0.622548 0.196749 -2.74283
0.96803 0.23553 -2.17247
0.678159 0.0963178 2.23611
0.682617 0.261397 2.79485
1.04416 0.231616 2.21504
0.63401 0.528028 -2.65192
0.691074 0.984162 -2.05706
0.986066 0.585087 -2.08497
0.673998 0.790119 2.70471
0.677046 1.24664 2.11171
1.03529 0.770433 2.12832
-1.1055 0.157177 -0.711123
-0.724194 -0.0033384 -0.7137
-1.13536 0.137664 0.753145
-0.76442 -0.0203989 0.764611
-1.15561 0.778179 -0.679948
-0.760523 1.19581 -0.66469
-1.14861 0.814097 0.722683
-0.774462 1.27281 0.719211
0.740072 -0.0017764 -0.713751
1.10046 0.158898 -0.711189
0.758842 -0.0202833 0.764584
1.13744 0.137915 0.75311
0.781108 1.19531 -0.664696
1.15133 0.777659 -0.679965
0.756356 1.27281 0.719207
1.14942 0.814227 0.722672
-1.35162 -0.0691854 -2.76142
-1.34507 0.0313741 -3.32163
-1.00221 -0.0835185 -3.33696
-1.40341 -0.0893303 -1.45374
-1.34971 0.0876779 -2.17856
-0.992007 -0.0435549 -2.19122
-1.47267 -0.144743 0.0216255
-1.46376 0.0234689 -0.716432
-1.08246 -0.137046 -0.719009
-1.4648 -0.123862 1.49756
-1.49648 -0.00839016 0.755434
-1.12554 -0.166453 0.7669
-1.4277 -0.0637739 2.80859
-1.42203 0.0608375 2.21877
-1.07929 -0.074441 2.23984
-1.42063 -0.0276237 3.95573
-1.40809 0.104877 3.37058
-1.06186 -0.0328117 3.38974
-1.41812 0.131902 4.51368
-1.06567 -0.0102005 4.52963
-1.34317 0.188237 -2.73876
-1.34457 0.356417 -3.27277
-0.996348 0.149561 -3.30915
-1.41006 0.200477 -1.44125
-1.35484 0.430612 -2.13198
-1.48757 0.159821 0.0173769
-1.49487 0.478145 -0.699168
-1.45372 0.176309 1.47664
-1.50773 0.474017 0.73428
-1.40242 0.229488 2.78076
-1.40566 0.491975 2.16837
-1.40558 0.264403 3.92853
-1.39783 0.532991 3.3211
-1.04236 0.259293 3.36057
-1.41448 0.566258 4.47068
-1.05681 0.281582 4.50281
-1.35624 0.598791 -2.66599
-1.36757 0.96158 -3.20867
-1.00189 0.541611 -3.23294
-1.43965 0.70828 -1.3899
-1.38582 1.04669 -2.07151
-1.51503 0.792341 0.0177346
-1.493 1.20064 -0.672352
-1.45967 0.789683 1.42601
-1.51043 1.2588 0.717223
-1.40106 0.795478 2.70871
-1.44698 1.25118 2.11737
-1.40673 0.834846 3.86325
-1.43389 1.27449 3.26124
-1.04184 0.81518 3.28509
-1.43829 1.30477 4.41257
-1.05922 0.855098 4.4406
-1.39714 1.40948 -2.61419
-1.02781 1.34767 -3.17619
-1.43917 1.53905 -1.35396
-1.04056 1.44569 -2.04361
-1.4884 1.6671 0.0271369
-1.09792 1.61827 -0.657094
-1.49774 1.7203 1.40859
-1.13628 1.71751 0.713752
-1.4798 1.73019 2.66991
-1.12704 1.72739 2.10076
-1.46544 1.74441 3.81055
-1.10962 1.73321 3.23439
-1.10057 1.75439 4.3827
-0.642602 -0.0578879 -2.76675
-0.653485 0.0346687 -3.32447
0.00559694 -0.0790073 -3.33915
-0.67106 -0.0912707 -1.45648
0.0247799 -0.0364925 -2.19441
-0.735331 -0.158756 0.0262653
0.0168181 -0.145241 -0.718618
-0.740039 -0.117032 1.50918
-0.00559076 -0.171531 0.771111
-0.713452 -0.0434788 2.82099
-0.0183785 -0.0623877 2.24722
-0.706902 -0.0153886 3.96365
-0.696134 0.121604 3.37973
-0.00447724 -0.0245145 3.39475
-0.704358 0.13948 4.51877
0.000462119 -0.00618571 4.53253
-0.653673 0.334756 -3.26931
-0.00587617 0.148465 -3.30984
-0.69359 0.276472 3.93485
-0.686371 0.541482 3.32456
0.00339681 0.267774 3.3647
-0.701552 0.570423 4.47272
0.00413757 0.285226 4.50499
-0.66213 0.927701 -3.20046
-0.00337526 0.521068 -3.22882
-0.694332 0.835432 3.86244
-0.717567 1.27389 3.25825
0.0013408 0.815223 3.28443
-0.721506 1.30472 4.41073
0.00118188 0.855686 4.44045
-0.671224 1.38389 -2.60561
0.0356626 1.33429 -3.17211
-0.699307 1.52491 -1.34674
0.0445941 1.43339 -2.03912
-0.745795 1.66868 0.0295211
0.0209646 1.6163 -0.654386
-0.76558 1.72461 1.40593
-0.0181426 1.72098 0.713418
-0.756854 1.7304 2.66525
-0.0348993 1.72825 2.09843
-0.744741 1.74318 3.80653
-0.0286823 1.73261 3.23206
-0.020961 1.75383 4.381
0.672979 -0.0576118 -2.76681
0.653205 0.0347888 -3.32452
1.00882 -0.0832423 -3.33703
0.712658 -0.0904628 -1.45654
1.02511 -0.0430123 -2.1913
0.746558 -0.158015 0.0262279
1.10579 -0.135632 -0.719074
0.716069 -0.116886 1.50916
1.11876 -0.166012 0.766862
0.690596 -0.0434234 2.82098
1.05507 -0.0743301 2.23982
0.702887 -0.0153116 3.96364
0.695054 0.121656 3.37972
1.0564 -0.0326955 3.38973
0.708958 0.139561 4.51876
1.06764 -0.0100558 4.52962
0.644421 0.334777 -3.26935
0.981817 0.149685 -3.30921
0.701125 0.276528 3.93484
0.691108 0.541516 3.32456
1.05117 0.259371 3.36056
0.706871 0.57049 4.47271
1.06558 0.281703 4.50279
0.694417 0.927659 -3.20048
0.992486 0.541576 -3.23298
0.696855 0.835478 3.86243
0.690225 1.27394 3.25824
1.04616 0.815242 3.28509
0.701727 1.30479 4.41072
1.06201 0.855199 4.44058
0.751481 1.38379 -2.60562
1.09236 1.3476 -3.17622
0.764866 1.52478 -1.34676
1.11862 1.44554 -2.04364
0.748617 1.6686 0.0295104
1.13402 1.61812 -0.657113
0.712538 1.72462 1.40592
1.1041 1.71752 0.713735
0.693273 1.73046 2.66524
1.0647 1.72747 2.10075
0.695097 1.74325 3.80652
1.05664 1.7333 3.23438
1.06064 1.75451 4.38268
1.36095 -0.0686428 -2.76152
1.33743 0.0316542 -3.32172
1.41825 -0.0881818 -1.45383
1.35082 0.0881692 -2.17866
1.478 -0.143629 0.02156
1.46618 0.0250423 -0.716511
1.45776 -0.123456 1.49752
1.49736 -0.00781361 0.755387
1.42087 -0.0636022 2.80856
1.42107 0.0609683 2.21874
1.42116 -0.0274397 3.95571
1.41252 0.10502 3.37056
1.42426 0.132086 4.51366
1.3273 0.188466 -2.73886
1.32988 0.356484 -3.27284
1.39875 0.201393 -1.44134
1.34196 0.430617 -2.13205
1.48555 0.160858 0.0173159
1.48688 0.478834 -0.699224
1.46067 0.17661 1.47661
1.51057 0.474396 0.734247
1.41271 0.22959 2.78074
1.41394 0.492049 2.16835
1.41562 0.264546 3.92851
1.40622 0.533097 3.32108
1.42072 0.566412 4.47066
1.34454 0.598635 -2.66604
1.39042 0.961515 -3.20872
[...]
POINT_DATA 29498
VECTORS point_vectors float
-2.37465 -2.37271 3.79451
0.199727 0.256724 0.962856
-1.24908 0.657202 1.9566
-0.00480555 -0.0929114 0.204878
2.33937 -2.3377 3.60105
-0.199995 0.258623 0.971462
1.25196 0.660993 1.96297
0.00393307 -0.0918037 0.203713
-0.00503188 -0.00121513 0.0705804
0.00307738 -0.00198956 0.0474756
-0.191862 -0.0678629 0.402485
0 0 0
0.00020429 -3.41379e-05 0.00258097
-0.00304084 -0.00138271 0.0449075
0.176408 -0.0586973 0.363118
0 0 0
-0.454954 -0.174491 19.7605
-1.32861 -0.716249 20.1095
-0.560331 -0.458161 21.1984
0.0302302 -0.0816596 21.3828
0.680942 0.290778 21.2069
0.848133 0.262129 20.9669
0.704611 0.0738636 20.8313
-0.524549 -0.11939 19.6834
-1.7493 -0.533047 19.9769
-0.742916 -0.468712 21.2607
-0.0197429 -0.174718 21.4656
0.921082 0.143847 21.2839
1.07368 0.0706756 21.0907
0.861908 0.00379458 21.0588
-0.581742 0.0420138 19.6423
-1.93738 0.184565 19.9707
-1.15332 -0.169981 21.1953
-0.229976 -0.219092 21.5601
0.847651 -0.399852 21.2788
0.999367 -0.454549 21.028
0.800443 -0.398534 20.7912
-0.44773 0.282211 19.8018
-0.955315 0.664089 20.1426
-0.858904 0.466199 20.9429
-0.302908 0.03286 21.342
0.194502 -0.32319 21.1691
0.349237 -0.449894 20.8442
0.299747 -0.325293 20.487
-0.380809 -0.337534 19.3599
-1.68399 -3.64987 19.8421
-0.380877 -0.655916 20.9388
-0.0205279 0.0400619 20.2753
0.317881 1.2679 17.4872
0.882882 1.36996 17.0431
0.808804 0.570189 16.9291
-0.453256 -0.264423 19.196
1.49244 1.57215 11.0767
1.32298 0.538672 12.4589
-0.553369 0.0505564 18.9455
1.9308 -0.742335 9.78089
1.1693 -0.219293 13.9598
-0.391961 0.547415 19.4436
-1.03323 1.74996 19.7933
-1.16549 1.54273 20.9433
-0.417145 0.318859 21.8219
0.115788 -0.539761 21.3039
0.241936 -0.710429 20.8181
0.0963105 -0.589157 20.8318
0.384773 -0.330003 19.3675
1.7918 -3.38032 19.8081
0.400142 -0.677092 21.276
0.0262189 0.057326 20.2755
-0.234375 1.24334 17.0813
-0.848538 1.39466 16.9888
-0.812105 0.572474 16.9348
0.448714 -0.261921 19.1819
-1.5114 1.56288 11.1891
-1.30792 0.546967 12.5789
0.552549 0.0520988 18.9363
-1.93686 -0.740812 9.84906
-1.16164 -0.215342 13.9912
0.42339 0.519796 19.4806
1.1095 1.62083 19.8263
1.18047 1.46619 20.949
0.412437 0.347561 21.8546
-0.0969083 -0.550915 21.3248
-0.228188 -0.719136 20.8877
-0.101482 -0.597015 20.876
0.45672 -0.172132 19.7657
1.3001 -0.690046 20.1147
0.566236 -0.452913 21.1966
-0.0343875 -0.0832991 21.3869
-0.695176 0.312268 21.2065
-0.843167 0.261302 20.9562
-0.698978 0.07519 20.824
0.527781 -0.121218 19.6718
1.79106 -0.555194 19.9598
0.748298 -0.47536 21.2668
0.0198615 -0.175705 21.4642
-0.910587 0.145257 21.2433
-1.05179 0.0647457 21.0768
-0.866017 -0.0100981 21.0629
0.58767 0.0416976 19.6352
1.97534 0.190147 19.9602
1.16197 -0.170555 21.2011
0.230262 -0.218883 21.5616
-0.840063 -0.394031 21.282
-0.987636 -0.451174 21.0121
-0.803056 -0.3974 20.7899
0.437471 0.265276 19.8307
0.922816 0.598503 20.1623
0.845383 0.444024 20.9412
0.307475 0.0406746 21.3654
-0.195216 -0.340807 21.1774
-0.345644 -0.461645 20.835
-0.283489 -0.326364 20.4482
0 0 0
3.51335e-05 -0.00145648 0.00835272
-0.0288346 -0.0146066 0.445469
-0.0082555 -0.0143144 0.00971586
-0.000156526 0.014766 0.122894
-0.00495659 0.0103833 0.215344
0 0 0
-0.126444 0.064327 0.575945
-5.66361e-05 0.0283813 -0.0351523
0.0119615 0.00290877 0.0758533
0 0 0
0.0303925 -0.0147961 0.448581
0.00982597 -0.0175856 0.0122534
0.00468787 0.0101993 0.201711
0.12897 0.0658564 0.586559
-0.0126421 0.00312958 0.079739
0.000323858 -0.000408628 0.0966193
0 0 0
0 0 0
0 0 0
9.54148e-06 -1.682e-05 0.00502011
0 0 0
0.000102198 0.0233796 0.0638136
-3.32832e-05 -0.00178227 0.0206845
-0.00162107 -0.000829152 0.151119
0 0 0
0 0 0
0 0 0
0 0 0
0 0 0
0.00402405 0.0078368 0.0772692
-4.35461e-07 -7.91763e-06 0.000229869
-2.24082e-07 1.89675e-07 -6.08254e-05
-2.75113e-06 0.0001514 0.00394456
-0.000247398 0.125069 0.0815626
-0.000481962 0.0321275 -0.0531771
-1.94122e-05 0.020848 0.121557
-6.18453e-05 0.0701955 0.354997
1.72612e-06 0.000700245 -0.00211082
0 0 0
0 0 0
-0.00477273 0.00949243 0.0925655
-3.45236 -1.57359 19.1747
-2.76275 -5.95247 19.3795
-1.39047 -0.951333 18.0629
1.39514 0.86291 17.159
0.137657 1.21581 9.96913
0.686319 1.04451 6.89886
-3.98198 0.657379 19.1305
-1.96289 0.374571 17.359
-2.28416 3.11145 19.0841
1.45665 -0.25423 16.5948
0.423586 -0.344349 5.1613
0.528846 -0.780589 18.2386
2.94545 -5.72343 19.2823
1.38974 -0.956814 18.041
3.52183 -1.62537 19.13
-0.0717688 1.17537 9.60445
-0.700636 1.05339 6.98616
-1.39641 0.843674 17.3338
1.96378 0.382094 17.3388
2.33434 2.86456 19.1537
4.04231 0.697266 19.0963
-0.427528 -0.340789 5.18461
-0.558447 -0.76158 17.6316
-1.45252 -0.258504 16.747
-0.54163 -0.725438 20.8474
-0.455731 -0.342853 16.1531
0.0215817 -0.093415 20.0832
0.125455 0.0243472 14.9767
-1.80319 -0.570914 21.3843
-2.59564 1.83083 20.9597
-0.26634 -0.298487 20.0567
-0.712715 0.215845 21.5022
0.502294 -0.352832 16.3737
0.541472 -0.71733 20.7684
-0.136689 0.0571583 14.8764
-0.0267942 -0.097397 20.1174
2.57024 1.73573 20.9863
1.82053 -0.579001 21.3745
0.656793 0.252293 21.1277
0.268766 -0.302394 20.0753
-0.829348 -0.379355 19.7616
-0.489751 -0.146941 19.7219
-0.471559 -0.282455 19.5727
-1.08101 -0.744991 20.9176
-1.54748 -0.670398 20.0462
-1.83937 -1.66219 19.861
-0.245925 -0.255892 21.2888
-0.66131 -0.477516 21.2245
-0.479826 -0.631248 21.4235
0.37173 0.128481 21.4002
0.00438591 -0.136451 21.4071
0.0502086 -0.0661132 21.5327
0.786883 0.351778 21.043
0.810364 0.239051 21.2751
0.875212 0.807212 20.6465
0.822457 0.223132 20.2331
0.988041 0.147764 21.1365
1.12999 0.948614 20.4014
0.78326 0.0388291 20.945
0.743247 0.663084 20.914
-1.01519 -0.272874 19.6255
-0.562226 -0.0531948 19.6478
-0.532799 -0.200446 19.4486
-1.47803 -0.650156 20.9746
-1.97402 -0.187699 19.9375
-0.355267 -0.330732 21.3363
-0.96088 -0.381668 21.2327
0.466986 0.0144477 21.5225
-0.114611 -0.233722 21.5519
1.06964 0.171178 21.0662
0.982532 -0.129262 21.2345
1.11713 0.0480079 20.0254
1.09954 -0.207296 21.2459
1.42741 0.784481 17.432
1.06978 -0.269633 20.9707
1.06495 0.348592 17.5565
-1.18289 0.0977554 19.5559
-0.54739 0.195661 19.6991
-0.672565 0.0391526 19.3328
-1.72791 0.0296905 20.8792
-1.46534 0.622846 20.0342
-0.727472 -0.240311 21.3951
-1.15192 0.230765 21.0593
0.350765 -0.287454 21.5753
-0.334844 -0.114154 21.4923
0.99182 -0.451151 21.0448
0.425529 -0.468945 21.242
0.875677 -0.38066 20.5111
0.51433 -0.595639 20.8115
1.56055 -0.674108 17.3922
0.476353 -0.384051 20.4376
0.924498 -0.535111 18.7934
-0.70906 0.480941 19.8704
-0.449123 0.407363 19.6313
-0.983967 0.615512 20.6094
-1.11951 1.12492 19.9804
-0.637506 0.266924 21.2262
-1.14331 0.889733 20.9904
0.00482859 -0.17883 21.32
-0.384296 0.141598 21.5608
0.273164 -0.410803 21.033
0.182214 -0.452923 21.2346
0.372492 -0.4077 20.739
0.323156 -0.601079 20.8527
0.194292 -0.414397 20.5239
-0.951028 -1.16406 18.8499
-0.415837 -0.299136 19.2801
0.0039166 -0.443181 19.1333
-0.57729 -1.67982 21.6366
0.0358598 -4.05159 20.7851
-0.234627 -0.261545 20.5636
-0.00219765 -0.778335 20.6613
0.160747 0.644535 18.7163
0.00222653 -0.0698589 19.0474
0.52201 1.3981 17.9223
-0.0103469 0.690048 14.75
0.458681 1.32299 18.4064
1.1698 1.57843 14.4616
0.0126555 1.16839 14.6591
1.06589 0.55443 14.694
0.00749202 1.30756 14.7078
-0.520348 -0.0994297 19.0237
-0.00661065 -0.333298 18.8953
1.68816 0.993412 12.0781
1.90554 0.408011 8.92034
-0.0133367 0.790771 2.15462
1.61869 0.197134 10.9155
-0.00483912 0.91189 10.1642
-0.493588 0.418258 19.1373
-0.00150414 0.104757 18.5065
1.33132 -0.906705 11.7176
0.590711 -1.14386 19.5699
0.00656908 -0.198373 -1.97844
0.42042 -0.76434 20.6764
-0.00338674 -0.904097 6.50856
-0.730035 1.12227 19.3778
0.0212935 0.684142 19.2603
-1.13073 1.71961 20.4933
0.0925729 2.41427 19.5817
-1.00682 1.12178 21.6329
0.0412154 2.47254 20.7849
-0.0344347 -0.273741 21.5799
-0.0184333 0.603446 22.1869
0.174318 -0.660332 21.1228
-0.00188764 -0.559905 21.4432
0.131471 -0.7533 20.5818
0.0120856 -0.726523 21.1504
0.00232157 -0.808395 20.6079
0.968639 -1.11948 18.9078
0.415755 -0.294787 19.2767
0.47322 -0.282229 19.5727
0.620047 -1.67316 21.5723
1.81151 -1.53368 19.8741
0.238546 -0.258962 20.5537
0.498131 -0.624353 21.3981
-0.139587 0.639597 18.5293
-0.0546632 -0.0632163 21.5305
-0.472748 1.36893 17.6615
-0.866483 0.858769 20.5649
-0.44375 1.32108 18.3939
-1.15383 1.57396 14.4516
-1.15231 0.973574 20.3692
-1.06001 0.559721 14.7568
-0.731015 0.643806 20.9155
0.517903 -0.0994849 19.0127
0.53328 -0.203608 19.4312
-1.69825 0.979401 12.137
-1.91013 0.404052 9.07929
-1.41623 0.747081 17.5737
-1.60437 0.204359 10.9951
-1.05372 0.33993 17.6912
0.50776 0.39845 19.1686
0.673399 0.0388123 19.328
-1.33168 -0.915405 11.7771
-0.589987 -1.15 19.2668
-1.54662 -0.670852 17.4739
-0.433663 -0.742392 20.4165
-0.92632 -0.535536 18.831
0.76133 1.04609 19.4244
0.455037 0.389094 19.6575
1.16047 1.60486 20.5008
1.08714 0.999435 20.0318
1.00642 1.11787 21.6305
1.12398 0.838213 20.9925
0.0365784 -0.277486 21.5994
0.387894 0.151099 21.581
-0.150845 -0.675795 21.1396
-0.179046 -0.472072 21.2483
-0.132767 -0.7632 20.6573
-0.316588 -0.609645 20.8474
-0.181495 -0.436908 20.5558
0.825504 -0.381715 19.7704
0.492251 -0.146675 19.7188
1.06258 -0.727699 20.913
1.54709 -0.669521 20.0464
0.253633 -0.261926 21.2875
0.663093 -0.479575 21.2268
-0.376648 0.129313 21.4066
-0.00911679 -0.137629 21.4118
-0.801821 0.333905 21.0191
-0.811853 0.249834 21.2293
-0.820314 0.206398 20.2442
-0.979014 0.147496 21.1398
-0.782497 0.032546 20.9435
1.03236 -0.288195 19.6004
0.566742 -0.0541791 19.6378
1.50301 -0.666568 20.9842
2.02933 -0.195165 19.9142
0.35529 -0.331002 21.3399
0.967475 -0.391022 21.2424
-0.462051 0.00173932 21.5157
0.117672 -0.234191 21.5513
-1.05265 0.157612 21.0658
-0.973485 -0.129537 21.2303
-1.08722 0.0565909 20.0787
-1.09953 -0.206489 21.2528
-1.07069 -0.272051 20.9653
1.19677 0.0994631 19.5371
0.539363 0.189231 19.7185
1.74477 0.0352444 20.8871
1.42005 0.587003 20.0571
0.732856 -0.245332 21.4014
1.13675 0.22321 21.0559
-0.348267 -0.285695 21.5735
0.340572 -0.109889 21.5053
-0.988079 -0.447576 21.0467
-0.428881 -0.481933 21.2489
-0.865813 -0.38255 20.539
-0.524799 -0.608421 20.8038
-0.487727 -0.408859 20.4352
0.68121 0.43539 19.9094
0.949158 0.565103 20.6128
0.638192 0.26612 21.2263
-0.00672913 -0.190821 21.3457
-0.272539 -0.43924 21.0074
-0.360254 -0.411461 20.7816
-0.936007 -0.337434 19.6892
-1.21978 -1.14023 18.4082
-1.0142 -0.728552 19.3927
-1.32642 -0.541071 19.0223
-0.520548 -0.257631 19.5093
-2.55896 -1.79927 19.557
-1.26988 -0.727233 20.955
-0.472104 -0.996854 16.2105
-1.11539 -1.38064 21.2577
-2.05893 -1.70182 21.5842
-0.503416 -0.674718 21.4016
-0.296828 -0.30873 21.3154
-0.217348 -0.0747102 14.7532
-0.19273 -0.313426 21.3895
-0.17213 -0.350325 19.9337
0.0716286 -0.0970674 21.2015
0.416754 0.0708866 21.4411
0.0748986 0.571116 12.0465
0.463813 0.401446 21.3088
0.688745 0.453686 18.6795
1.14969 0.913349 19.4205
0.955075 0.266549 21.0112
0.476162 1.34234 12.2666
1.01206 0.89856 20.3466
1.58916 0.850564 18.1075
1.26749 0.877101 19.3123
1.02426 0.132691 19.9798
0.893708 1.21858 15.3353
0.842681 0.726067 20.8934
1.33776 0.422824 19.775
0.886206 0.532238 19.6246
-1.13111 -0.118543 19.5484
-1.80931 -0.421501 17.4884
-1.63813 0.177019 18.8376
-0.599421 -0.0822765 19.3671
-4.29224 -0.487899 18.9594
-1.69264 -0.354095 20.9615
-2.97949 0.139088 21.3677
-1.00642 -0.79364 20.7099
-0.517831 -0.343783 21.3906
-1.07545 -0.727247 20.7014
-0.0389395 -0.132017 19.2376
0.456371 -0.157919 21.565
0.751436 -0.0638624 18.6839
1.50545 0.344884 15.1099
1.14329 -0.159435 21.0037
0.731546 0.198598 3.65464
1.49091 -0.507854 17.9197
1.97494 0.160709 17.5101
1.0848 -0.196237 20.3177
2.20461 0.456879 10.5399
1.1945 -0.658084 17.7624
1.34899 -0.0369607 16.0215
-0.981167 0.390483 19.7015
-1.24277 1.25994 18.5398
-0.784578 0.759483 19.6449
-0.58143 0.306037 19.452
-2.07315 1.39296 19.6732
-1.4184 0.49148 20.6934
-2.21466 2.32164 20.7004
-1.16221 1.08598 20.5724
-1.77945 0.581668 21.1327
-0.820406 0.0352269 21.3546
-2.35493 1.06436 21.8254
-0.858286 0.565616 21.4109
-0.54994 -0.0533233 21.8412
0.120931 -0.30051 21.4594
0.323107 -0.512803 19.8917
-0.00802846 -0.229395 21.4592
0.426304 -0.759534 21.3935
0.546609 -0.559557 21.0772
0.517175 -0.922686 18.6553
0.270202 -0.553419 21.0422
0.573007 -0.891054 20.6558
0.491725 -0.463099 20.609
0.605576 -1.05831 19.8338
0.3259 -0.556605 20.76
0.501306 -0.620595 20.615
1.22864 -1.12254 18.4281
0.028073 -1.74358 18.2534
-0.00979838 -1.5694 16.7346
0.000716184 -0.399331 19.0061
-0.00873493 -4.50922 20.5407
0.52125 -1.0656 16.5217
0.00717741 -1.56658 21.3158
-0.0136289 -0.412888 14.1147
0.211293 -0.0746159 14.851
-0.00251882 -0.386005 19.5471
0.0125656 -0.0144261 12.1432
-0.0708503 0.558028 11.8098
0.00321898 0.416081 16.9087
-0.0217224 0.409351 6.58674
-0.426361 1.32985 12.0527
-0.010215 0.617963 14.2499
0.0111975 -0.996399 -0.553232
-0.00118709 1.05947 8.38811
-0.891651 1.2064 15.3611
0.0160018 1.72604 15.1215
0.00307797 0.48646 4.00782
0.000680192 1.11877 12.4402
1.80987 -0.42928 17.4617
-0.00914135 1.06446 15.2839
-0.00553269 -0.168629 18.689
-0.728115 0.200516 3.7115
0.00426916 0.15835 -2.36029
-0.0143282 -0.53615 -4.97171
-2.19664 0.455106 10.6598
-0.000846859 -0.614669 2.81084
-0.0028855 -0.00640672 5.1844
1.27629 1.18486 18.6044
0.0499396 1.53201 19.0663
0.0128994 0.553635 18.8583
0.10082 4.5964 18.6806
2.23145 2.19088 20.7053
0.0713505 2.38748 20.36
0.0455033 3.99021 19.7851
2.35445 1.05593 21.8267
0.00193099 2.13948 21.9277
-0.00437882 0.253802 17.1022
-0.389871 -0.504337 19.3232
-0.00636746 -0.275506 21.7354
0.0025762 -0.562062 10.2885
-0.520655 -0.902313 18.042
-0.00138142 -0.688273 21.3681
0.0111657 -1.20397 14.6638
-0.579313 -1.04699 19.6218
5.67479e-05 -1.0352 21.2547
-0.000762676 -1.27536 14.4744
0.944462 -0.345427 19.682
1.02251 -0.69981 19.4148
1.33847 -0.553717 18.9917
0.521114 -0.261058 19.499
2.51975 -1.72754 19.5761
1.27013 -0.726744 20.9543
1.15069 -1.3245 21.2144
2.07025 -1.73185 21.5896
0.520679 -0.6756 21.4016
0.302151 -0.314479 21.3095
0.197389 -0.315367 21.3962
0.176615 -0.348203 19.9264
-0.0733223 -0.0927993 21.1682
-0.415616 0.07332 21.4447
-0.462429 0.421914 21.2587
-0.691128 0.441468 18.737
-1.13562 0.935673 19.2656
-0.957277 0.251227 20.9888
-1.00301 0.92129 20.3289
-1.58228 0.831754 18.2114
-1.27559 0.874318 19.3262
-1.00817 0.135472 20.0029
-0.838001 0.723474 20.9143
-1.33644 0.405877 19.7948
-0.874208 0.517057 19.7064
1.15003 -0.118681 19.5262
1.64644 0.182128 18.8198
0.600413 -0.0842214 19.3554
4.35405 -0.499596 18.9261
1.7181 -0.360002 20.9708
3.00586 0.140465 21.3789
0.999836 -0.796769 20.6182
0.518822 -0.345193 21.4042
1.07638 -0.731142 20.6785
0.0378336 -0.140051 19.2793
-0.451714 -0.157531 21.5643
-0.746439 -0.0782076 18.7658
-1.50475 0.34201 15.3235
-1.12456 -0.155897 21.0117
-1.48444 -0.507546 18.0008
-1.95792 0.162082 17.6285
-1.0753 -0.192325 20.3588
-1.19368 -0.659305 17.8313
-1.3454 -0.0351579 16.1044
0.960704 0.37147 19.7284
0.773283 0.703621 19.7022
0.582598 0.304149 19.4717
2.01952 1.29499 19.7219
1.39114 0.468702 20.6914
1.1441 1.0009 20.58
1.75501 0.557366 21.1312
0.820376 0.0357266 21.3582
0.857416 0.564077 21.4095
0.56196 -0.0456786 21.8594
-0.126186 -0.302834 21.4745
0.0147649 -0.230293 21.4724
-0.418505 -0.783023 21.4149
-0.554315 -0.577085 21.0931
-0.268916 -0.565871 21.0609
-0.575337 -0.913327 20.6445
-0.503328 -0.482949 20.6349
-0.319589 -0.590141 20.7076
-0.496162 -0.635228 20.621
-1.1911 -0.667396 19.1804
-1.47191 -1.60771 21.447
-0.171548 -0.327583 21.0391
0.602887 0.448697 20.3898
1.28844 0.875852 19.6113
1.05121 0.58123 20.184
-1.55732 -0.227005 18.8141
-2.8709 -0.794871 21.6556
-0.384589 -0.567271 19.6248
0.74148 0.231086 17.6376
1.74543 0.200291 16.8628
1.71984 0.0850314 19.1741
-1.21527 0.730839 19.2534
-2.02657 1.08618 20.7512
-1.36233 0.241114 21.6684
0.125285 -0.444496 21.6822
0.539231 -0.844567 21.0535
0.614534 -0.785475 20.5217
0.0196928 -1.8582 17.443
0.000510377 -0.803008 14.2361
0.00422736 -0.153389 12.392
0.00121966 0.318806 9.08786
-0.0206001 -0.138315 6.5267
0.00987132 1.22195 9.3303
-0.00919722 -0.570163 15.7746
0.00652302 -0.62964 -4.60203
-0.0169348 -0.493432 -2.76728
0.0510139 1.98435 17.8245
0.059651 3.70439 20.5416
0.000793048 3.41368 19.98
0.00281626 -0.563883 12.0851
0.000600781 -0.642142 12.0295
0.00986235 -0.924215 15.8577
1.19287 -0.664576 19.1844
1.48588 -1.5664 21.4116
0.179488 -0.332037 21.0615
-0.602135 0.457811 20.3176
-1.28396 0.893046 19.5498
-1.04537 0.572532 20.2063
1.56837 -0.232386 18.7873
2.88915 -0.807046 21.6447
0.383234 -0.565194 19.5833
-0.742171 0.217204 17.737
-1.7299 0.187385 16.9989
-1.71768 0.0818092 19.2476
1.19811 0.698629 19.3078
1.9928 1.01984 20.7502
1.36193 0.241232 21.667
-0.117251 -0.45474 21.7132
-0.533294 -0.865431 21.0493
-0.615294 -0.803003 20.4882
-0.234333 -0.0643736 0.253413
0.0018703 -0.0305644 0.115129
-0.0102909 -0.0327692 0.402709
0.0154072 -0.00499117 0.0251939
-0.00152208 0.0016344 0.00222232
-0.0348945 0.184876 0.988694
-0.656599 0.07441 0.771519
-0.00494787 0.0257055 0.0576317
-0.174172 0.148973 0.60963
-0.0178739 -0.00699349 -0.0167975
-0.0189235 0.00286966 -0.0125987
0.00702398 -0.0307503 0.206617
-0.00304917 -0.0462576 0.176742
0.234141 -0.0614409 0.252696
0.0071597 -0.0316669 0.41496
0.0141931 0.017199 0.0439251
-0.0158176 -0.00510993 0.0259441
0.0259971 0.173932 0.903885
0.00416195 0.0214548 0.0481696
0.717311 0.0817595 0.841453
0.183985 0.157837 0.644664
0.018903 0.00310875 -0.0129711
0.018226 -0.00700791 -0.0170337
-0.00726268 -0.0315216 0.212083
-0.0031572 -0.00439311 0.147003
-0.00257542 0.000489119 0.0631196
0 0 0
-0.000458514 -0.000411287 0.0195645
-0.00312636 0.0108823 0.233812
0.00142883 -0.000354615 0.0716387
0 0 0
0 0 0
-0.24073 -0.100399 0.860078
0.00166944 -0.00938817 0.0770155
0 0 0
-0.0214585 0.0103786 0.0439978
0 0 0
-0.00345761 0.0278977 0.180864
0 0 0
0.0529746 0.00231797 0.239106
0.0040351 -0.00457981 0.159007
0 0 0
0.0038743 0.00010681 0.121985
0 0 0
0.00324951 0.0110086 0.233924
0 0 0
-0.000813118 -0.000940008 0.0395258
0 0 0
0.22694 -0.0928166 0.812209
0.0204136 0.0098917 0.0418477
-0.00148181 -0.0087525 0.0720731
0 0 0
0 0 0
-0.0521403 0.00238607 0.235504
0.00350783 0.0281109 0.182593
0 0 0
-0.0369291 -0.0136108 0.113957
0 0 0
0 0 0
-0.000725685 -0.254234 0.224311
-0.000445194 -0.000209229 0.00560384
0 0 0
0 0 0
0 0 0
-5.39747e-06 0.00115818 0.0131559
0 0 0
0.00826006 0.0122863 0.142188
0.000227414 0.000898544 0.0201962
0.00169003 0.452655 0.583548
-2.7965e-05 0.0725997 0.302182
-0.0102175 -0.00944423 0.103582
-0.00813835 0.0106774 0.0625424
-0.000243656 0.0241931 -0.00459882
0 0 0
0.00334164 0.00384254 0.0363076
-0.000543203 -0.00176428 0.00492593
0 0 0
0 0 0
-6.80356e-06 8.44688e-06 -0.000239662
0.000308436 -0.000141856 0.00388045
0 0 0
-1.14517e-17 5.45957e-18 5.01649e-17
-0.000163445 0.000639252 0.0144012
-0.0081874 0.0122198 0.142066
0.00792671 0.0103554 0.0606872
0.0102658 -0.00939553 0.104807
0.000427639 -0.00122665 0.00336757
-0.00299499 0.00350009 0.0327179
-0.00121485 0.00258565 0.0578701
0 0 0
2.21255e-18 4.3207e-18 -1.32129e-16
0 0 0
-2.79033e-07 -3.01462e-06 0.000129731
1.34576e-08 1.54443e-07 -3.78065e-05
0 0 0
0 0 0
0 0 0
0 0 0
0.00108088 0.024977 0.141929
-0.1224 0.120614 0.833769
0 0 0
-1.42367e-05 0.010506 0.0299852
-6.57249e-05 0.0047051 0.0807119
1.36035e-05 -0.00178389 0.00770376
-2.54025e-05 -3.72527e-05 0.011148
0.00164803 0.00259064 0.0636006
0 0 0
0 0 0
0 0 0
0 0 0
0.121956 0.119988 0.83102
-0.00106725 0.0249312 0.141674
-0.0590564 -0.0263946 0.204288
-0.122993 -0.0382816 0.395167
0 0 0
-0.00269241 -0.0054339 0.0696566
0.000219411 0.000832065 0.0540599
0.00139323 0.00614066 0.08846
-0.00238609 0.00353478 0.0700914
0.00239132 0.0429818 0.180666
0.00287632 0.00798577 0.118158
0.000558784 0.00293788 0.0258382
0.00719498 0.00416634 0.0388321
0.0115379 -6.82858e-05 0.0594741
0 0 0
0 0 0
0 0 0
0 0 0
0 0 0
5.81338e-05 -4.84916e-05 0.0111534
0 0 0
0 0 0
0.00013833 0.00071995 0.0146209
-7.81689e-05 0.000380615 0.00776446
0 0 0
0 0 0
0 0 0
0 0 0
-0.696109 1.1375 0.73011
0.679738 1.11321 0.710475