# vtk DataFile Version 2.0
tri_press
ASCII
DATASET UNSTRUCTURED_GRID
POINTS 3682 float
-0.751814 0.105 -1.995
-0.615 0.285 2.1188
-0.715 0.705 -1.90482
-0.635 0.925 1.97441
0.750961 0.105 -1.995
0.615 0.285 2.11845
0.715386 0.705 -1.905
0.635 0.925 1.97441
-0.733009 0.138201 -0.623733
-0.722059 0.163546 0.747533
-0.775316 0.865316 -0.611743
-0.750342 0.940342 0.681334
0.73241 0.138231 -0.62385
0.721756 0.163564 0.7473
0.775691 0.865434 -0.611863
0.750371 0.940242 0.681274
-1.50219 -0.310932 -3.06132
-1.49694 -0.245099 -1.99562
-1.47687 -0.211466 -0.622349
-1.43627 -0.184512 0.766654
-1.35713 -0.0978201 2.14125
-1.33712 -0.0393098 3.21344
-1.34441 0.00658607 4.27361
-1.50043 0.0220528 -3.04435
-1.49876 0.10182 -1.98718
-1.48322 0.151039 -0.629106
-1.43343 0.174497 0.736008
-1.32246 0.251402 2.09558
-1.31287 0.308169 3.16667
-1.33115 0.354877 4.22939
-1.48564 0.668158 -2.98845
-1.48274 0.746767 -1.92804
-1.5085 0.871132 -0.623262
-1.45739 0.926118 0.675978
-1.34034 0.934876 1.98226
-1.3229 0.98981 3.05663
-1.33635 1.04674 4.13198
-1.46943 1.71728 -2.96336
-1.46983 1.80453 -1.91466
-1.47977 1.92806 -0.635202
-1.4717 2.01091 0.627417
-1.43668 2.04567 1.9077
-1.4085 2.0759 2.95812
-1.39276 2.11901 4.02494
-0.760568 -0.31 -3.06641
-0.753744 -0.242181 -2.00302
-0.738782 -0.218096 -0.621423
-0.728169 -0.191253 0.776452
-0.675614 -0.0804183 2.15843
-0.657268 -0.0275531 3.22507
-0.660258 0.0120371 4.28031
-0.759759 0.0183736 -3.04595
-0.633199 0.31985 3.17627
-0.648492 0.359505 4.23444
-0.745111 0.649747 -2.97885
-0.640493 0.98846 3.05503
-0.651726 1.04642 4.1316
-0.72636 1.70565 -2.95387
-0.723749 1.79409 -1.9042
-0.73861 1.92683 -0.628911
-0.749187 2.01454 0.626607
-0.734305 2.04516 1.90222
-0.711811 2.07338 2.95265
-0.69624 2.1168 4.02094
0.728874 -0.309984 -3.06647
0.739305 -0.242168 -2.00307
0.729939 -0.218072 -0.62154
0.701512 -0.191239 0.776244
0.63385 -0.0804146 2.15815
0.66174 -0.0275517 3.22485
0.687567 0.0120378 4.28014
0.727057 0.0183859 -3.04602
0.663271 0.31985 3.17605
0.690403 0.359504 4.23427
0.723626 0.649762 -2.97897
0.669769 0.988457 3.05493
0.692972 1.04642 4.13147
0.75551 1.70568 -2.95398
0.763034 1.79412 -1.90431
0.751658 1.92685 -0.629018
0.711899 2.01453 0.626516
0.677385 2.04514 1.90214
0.679018 2.07337 2.95255
0.691948 2.11679 4.02083
1.47419 -0.310893 -3.06147
1.48464 -0.245056 -1.99576
1.47121 -0.211422 -0.622577
1.42463 -0.184496 0.766303
1.34241 -0.0978136 2.14082
1.34628 -0.0393072 3.21305
1.37168 0.00658712 4.27327
1.47497 0.0220913 -3.0445
1.49384 0.101868 -1.98731
1.48388 0.151093 -0.62932
1.43852 0.174496 0.735679
1.33299 0.251406 2.09517
1.3411 0.308169 3.1663
1.37081 0.354876 4.22907
1.47255 0.668203 -2.98867
1.48538 0.746831 -1.92827
1.51298 0.871229 -0.623473
1.46287 0.926053 0.675787
1.35044 0.934857 1.98208
1.35043 0.989801 3.0564
1.37554 1.04674 4.13172
1.49541 1.71733 -2.96359
1.50262 1.80459 -1.91489
1.49189 1.92811 -0.635415
1.44563 2.0109 0.627226
1.39574 2.04564 1.90752
1.3849 2.07588 2.95793
1.39239 2.119 4.02472
-0.757243 0.405 -1.97375
-0.000426501 0.112226 -1.98777
-0.740307 0.123705 -1.30937
-0.652755 0.605 2.07436
0 0.316231 2.08739
-0.70487 0.187932 1.43317
0.000193 0.778776 -1.97869
-0.787674 0.827674 -1.25828
0 0.99148 2.04089
-0.717652 0.957652 1.32787
0.757484 0.405 -1.97431
0.739587 0.123714 -1.30943
0.651131 0.605 2.07256
0.704769 0.187891 1.43288
0.788041 0.827719 -1.25843
0.717675 0.957611 1.32784
-0.727429 0.150978 0.0619
-0.870963 0.501758 -0.617738
-0.00029929 0.151593 -0.623792
-0.873721 0.551944 0.714433
-0.000151289 0.194354 0.747417
-0.766373 0.906373 0.034795
0.000187712 1.1284 -0.611803
1.44841e-05 1.31314 0.681304
0.726991 0.150989 0.061725
0.871437 0.501832 -0.617857
0.873721 0.551903 0.714287
0.766152 0.905959 0.034705
-0.879907 0.453379 -1.28382
0.879907 0.453416 -1.28393
-0.000362895 0.141332 -1.3094
0.000190356 0.913446 -1.25836
-0.000116751 0.405 -2.22212
-0.875071 0.526851 0.0483475
0.877245 0.526868 0.048215
-0.000225289 0.168865 0.0618125
0.000101098 1.32608 0.03475
-0.881594 0.578472 1.38052
0.88159 0.578452 1.38036
-7.56446e-05 0.253698 1.43302
7.24204e-06 1.18414 1.32786
0 0.605 2.21399
-0.723492 0.255 -1.95334
-0.37612 0.112904 -1.9871
-0.742445 0.117968 -1.65218
-0.639239 0.445 2.10194
-0.3075 0.322891 2.08082
-0.678059 0.218342 1.77598
-0.749531 0.555 -1.95269
-0.357403 0.764301 -1.96417
-0.776428 0.791428 -1.58155
-0.649051 0.765 2.02956
-0.3175 0.980119 2.02953
-0.683688 0.948688 1.65114
0.375267 0.11199 -1.98801
0.723514 0.255 -1.95395
0.741667 0.117964 -1.65221
0.3075 0.311184 2.09235
0.638879 0.445 2.10132
0.678095 0.218236 1.77566
0.357789 0.763401 -1.96336
0.75007 0.555 -1.95329
0.776829 0.791475 -1.58172
0.3175 0.97937 2.02878
0.649092 0.765 2.02951
0.683725 0.948693 1.65113
-0.733011 0.1346 -0.96655
-0.729146 0.145662 -0.280917
-0.868236 0.286855 -0.620736
-0.363392 0.151421 -0.623763
-0.708802 0.180402 1.09035
-0.723226 0.15878 0.404717
-0.876112 0.318634 0.730983
-0.368259 0.164642 0.747475
-0.781324 0.846324 -0.935013
-0.862432 0.703183 -0.614741
-0.770973 0.885973 -0.288474
-0.433652 1.08904 -0.611773
-0.736168 0.951168 1.0046
-0.860238 0.770246 0.697883
-0.760401 0.925401 0.358064
-0.452631 1.28168 0.681319
0.732115 0.134856 -0.966638
0.362842 0.151339 -0.623821
0.728455 0.145856 -0.281063
0.870223 0.285882 -0.620853
0.708792 0.180199 1.09009
0.367963 0.164638 0.747358
0.722902 0.158748 0.404513
0.876112 0.318547 0.730793
0.781743 0.846454 -0.935148
0.434007 1.08905 -0.611833
0.863086 0.703394 -0.61486
0.770619 0.885394 -0.288579
0.736223 0.951126 1.00456
0.452547 1.2814 0.681289
0.860251 0.770175 0.69778
0.760175 0.925014 0.357989
-0.872674 0.42919 -1.62879
-0.37868 0.405 -2.20512
-0.000394698 0.140017 -1.64858
-0.000271626 0.258613 -2.20005
-0.869694 0.288542 -1.2966
-0.370335 0.124297 -1.30938
-0.831883 0.591736 1.72744
-0.326377 0.605 2.1901
-3.78223e-05 0.274882 1.76021
0 0.460616 2.2471
-0.867326 0.383202 1.40684
-0.352473 0.245451 1.43309
0.000191678 0.86359 -1.61852
3.81246e-05 0.591888 -2.18534
-0.884764 0.640526 -1.27105
-0.393742 0.898501 -1.25832
3.62102e-06 1.0564 1.68437
0 0.79824 2.09001
-0.85629 0.768062 1.3542
-0.358823 1.15824 1.32786
0.87268 0.429208 -1.62912
0.378683 0.405 -2.20505
0.869642 0.288565 -1.29668
0.369612 0.124266 -1.30941
0.832147 0.591726 1.72646
0.325566 0.605 2.18819
0.867335 0.383171 1.40662
0.352347 0.245538 1.43295
0.884742 0.640568 -1.27118
0.394116 0.898433 -1.25839
0.856302 0.768031 1.3541
0.358841 1.15833 1.32785
-0.87561 0.301735 0.0551237
-0.364273 0.15903 0.0618562
-0.876688 0.477569 -0.950781
-0.873031 0.514305 -0.284695
-0.000331092 0.159191 -0.966594
-0.000262289 0.161491 -0.28099
-0.877061 0.539398 0.38139
-0.885162 0.565208 1.04748
-0.000188289 0.170251 0.404615
-0.000113467 0.233704 1.09022
-0.86318 0.737841 0.0415713
-0.473018 1.29599 0.0347725
0.000189034 0.954609 -0.93508
0.000144405 1.27258 -0.288527
5.7791e-05 1.32999 0.358027
1.08631e-05 1.26926 1.00458
0.876116 0.301929 0.05497
0.36394 0.158814 0.0617687
0.876641 0.477624 -0.950893
0.874941 0.51435 -0.284821
0.876476 0.539385 0.381251
0.885163 0.565177 1.04732
0.867326 0.739227 0.04146
0.473142 1.29605 0.0347275
-0.863413 0.271771 -1.64048
-0.87496 0.304261 -0.958666
-0.866737 0.662032 -0.942897
-0.876108 0.597763 -1.60517
0.8613 0.271783 -1.64067
0.875749 0.597784 -1.60542
0.867323 0.6621 -0.94302
0.87049 0.304298 -0.958765
-0.373227 0.124131 -1.65038
0.37244 0.124128 -1.6504
0.367834 0.144264 -0.966616
-0.368494 0.144286 -0.966572
-0.375573 0.851709 -1.60004
-0.390653 0.926227 -0.935046
0.391028 0.924667 -0.935114
0.375953 0.851358 -1.60012
-0.3774 0.256806 -2.19807
-0.368042 0.573444 -2.167
0.368236 0.573444 -2.1666
0.376975 0.256806 -2.20175
-0.872413 0.29405 -0.282806
-0.879059 0.308585 0.393054
-0.864087 0.755232 0.369727
-0.862783 0.720501 -0.286585
0.874162 0.293409 -0.282942
0.865815 0.721615 -0.2867
0.864804 0.755209 0.36962
0.879009 0.308791 0.392882
-0.36202 0.15885 -0.280953
0.361695 0.158469 -0.281026
0.365208 0.163213 0.404564
-0.365574 0.16322 0.404666
-0.471947 1.22974 -0.2885
-0.468228 1.29964 0.358046
0.468334 1.2997 0.358008
0.472231 1.22987 -0.288553
-0.875813 0.370473 1.06891
-0.822968 0.414101 1.75171
-0.804282 0.766531 1.68929
-0.862533 0.757103 1.02604
0.875749 0.370452 1.06871
0.862559 0.757052 1.02594
0.80438 0.766516 1.68879
0.823996 0.414086 1.75106
-0.356789 0.172965 1.09028
0.356575 0.172963 1.09015
0.329923 0.226891 1.76793
-0.329987 0.224518 1.7681
-0.366993 1.24571 1.00459
-0.338161 1.03956 1.66776
0.338171 1.03972 1.66775
0.367017 1.2455 1.00457
-0.316939 0.452808 2.22066
0.316533 0.452808 2.22044
0.321533 0.78162 2.08822
-0.321939 0.78162 2.08867
-0.727138 0.18 -1.96365
-0.563967 0.104337 -1.99566
-0.742751 0.115862 -1.82359
-0.616791 0.365 2.10004
-0.46125 0.299312 2.10444
-0.629766 0.268434 1.94739
-0.737014 0.63 -1.93351
-0.536202 0.74796 -1.9478
-0.754815 0.757315 -1.74319
-0.645839 0.845 2.0058
-0.47625 0.963444 2.01285
-0.660975 0.938475 1.81278
0.563114 0.102964 -1.99704
0.727027 0.18 -1.96426
0.741972 0.115824 -1.82361
0.46125 0.300065 2.10343
0.617138 0.365 2.10008
0.629428 0.268737 1.94706
0.536588 0.747831 -1.94781
0.737401 0.63 -1.93382
0.755232 0.757362 -1.74336
0.47625 0.963051 2.01246
0.645858 0.845 2.00577
0.661003 0.938487 1.81277
-0.731578 0.137832 -0.795142
-0.732529 0.140479 -0.452325
-0.861749 0.181964 -0.622235
-0.549431 0.142349 -0.623748
-0.711954 0.17545 0.918942
-0.722709 0.161096 0.576125
-0.854394 0.213436 0.739258
-0.544303 0.165806 0.747504
-0.778922 0.856422 -0.773378
-0.841882 0.795754 -0.613242
-0.77325 0.87575 -0.450109
-0.647757 1.06372 -0.611758
-0.744196 0.946696 0.842968
-0.823743 0.86452 0.689609
-0.755834 0.933335 0.519699
-0.627933 1.1639 0.681326
0.730977 0.137829 -0.795244
0.54885 0.142336 -0.623836
0.731992 0.140484 -0.452456
0.862313 0.181558 -0.622352
0.711686 0.17547 0.918694
0.543996 0.165829 0.747329
0.722384 0.161102 0.575906
0.855221 0.212912 0.739047
0.779287 0.856513 -0.773505
0.648173 1.06389 -0.611848
[...]
POINT_DATA 3682
SCALARS point_scalars float 1
LOOKUP_TABLE default
-85.3927
-37.6559
-39.6641
-33.8687
-88.0038
-37.4075
-40.0477
-33.7186
-38.2947
-40.0031
-57.8701
-49.0697
-38.259
-40.4108
-57.4421
-48.957
-78.3669
-128.719
-38.1441
-45.8427
-42.9068
-37.5404
-33.024
7.0243
-128.719
-39.0888
-35.4251
-41.3079
-33.2568
-33.024
53.3353
-89.879
-46.4909
-43.8717
-39.4244
-33.1018
-32.534
-35.09
-58.929
-73.7765
-61.8515
-36.2949
-32.9482
-31.882
82.2396
-222.565
-38.3764
-40.5354
-37.7047
-34.1989
-32.9457
82.2396
-33.0135
-32.9457
139.695
-32.2428
-32.0365
11.567
-49.9984
-63.7105
-62.1341
-35.5989
-30.1
-28.9195
65.7813
-233.571
-38.336
-41.4173
-37.4924
-34.1453
-32.9645
65.7813
-32.9793
-32.9645
139.356
-32.3052
-32.2795
11.5951
-49.535
-63.2126
-62.9547
-35.7644
-29.9366
-28.7184
-81.9549
-127.824
-38.1101
-45.9298
-42.7739
-34.922
-33.0283
5.80213
-127.824
-39.1016
-36.5284
-41.5321
-34.0544
-32.9695
52.7555
-89.8125
-46.2191
-43.6926
-39.3049
-32.9863
-32.4721
-35.3997
-58.6763
-73.1533
-62.1766
-36.1516
-32.788
-31.7018
-20.6462
-132.937
-54.611
-33.3164
-36.5748
-40.5177
-52.2102
-46.4619
-28.2586
-44.2096
-20.1151
-54.5219
-33.1287
-40.541
-46.0637
-44.1367
-36.9752
-41.1699
-39.7996
-40.0232
-43.369
-54.5202
2.40578
-63.4901
-37.0309
-40.9542
-39.8476
-54.9891
-60.9777
-60.8186
-57.6815
-15.0385
204.167
-41.0657
-41.807
-37.2956
-93.4739
-45.4093
-45.2849
-38.831
-39.0796
-28.1692
1.85003
-133.725
-84.3796
-34.2747
-36.8346
-44.6964
-27.4084
-52.6266
-57.6451
-33.6024
-28.8948
-37.4341
-133.041
1.47525
-84.1368
-37.108
-34.2411
-44.5212
-52.2208
-27.9584
-57.681
-28.7784
-33.4862
-37.3537
-42.799
-36.4776
-39.7479
-39.3048
-39.626
-39.08
-35.7992
-41.4428
-41.8879
-45.3306
-56.6586
-4.87039
-46.9712
-43.2566
-52.1753
-60.6813
-42.575
-39.235
-36.4853
-39.7213
-39.518
-41.4582
-39.019
-34.8157
-41.8098
-4.48551
-45.1006
-56.8568
-46.9623
-60.6426
-43.0928
-52.2456
-99.3562
178.719
-80.5025
173.544
-60.0451
-56.0997
-44.1274
-31.1654
-39.9105
-32.0906
-43.9764
-39.0676
-38.1062
132.9
-59.8885
-20.9401
-31.4764
-25.8342
-46.976
-39.9413
-99.118
178.932
-60.0399
-55.8936
-44.0241
-31.0115
-43.8774
-38.9352
-59.9769
-20.7846
-46.7329
-39.9088
-38.5984
-37.1291
-46.5745
-41.0478
-46.5825
-37.4015
-41.4595
-42.1717
-39.7702
-43.102
-45.6341
-85.1156
9.32829
-69.4155
-76.9695
-50.5082
-39.1321
-37.1119
-46.2888
-41.0674
-41.3783
-42.0866
-46.5155
-85.3451
-100.348
-46.5681
-46.1125
-94.9901
-99.3727
-94.8
-45.9823
-45.5509
-79.678
-79.1487
-45.6203
-45.6334
-40.6188
0.466078
0.364656
-40.6878
154.298
145.559
145.759
160.183
-38.5342
-40.9586
-44.9378
-46.1859
-38.7478
-46.2121
-45.0212
-41.0153
-36.8329
-36.7505
-39.0173
-39.0372
-62.7191
-70.7686
-70.8328
-62.8648
-40.7536
-45.4313
-42.1059
-42.5141
-40.6825
-42.4322
-41.9931
-45.5399
-42.5854
-42.6138
-40.587
-40.923
-50.8008
-32.7136
-32.667
-50.771
-32.8971
-32.8414
-29.0108
-29.1341
-23.8974
-154.854
-121.974
-35.8878
-37.3931
-40.0285
-30.8536
-43.6048
-57.8851
-33.8203
-30.3548
-34.7322
-155.637
-25.1955
-121.094
-37.4279
-35.9185
-39.9937
-41.8606
-31.5431
-58.1505
-30.2023
-33.7038
-34.6347
-38.5515
-38.0596
-38.4914
-38.4251
-41.4742
-40.1825
-31.9446
-42.1458
-49.7464
-50.0651
-56.9173
-50.6477
-47.7432
-46.5388
-50.7378
-54.7586
-38.5213
-38.3631
-38.1227
-38.4825
-41.2549
-42.2103
-40.047
-32.2993
-49.5189
-50.8335
-49.803
-56.8856
-47.7125
-54.6888
-46.4087
-50.6832
-6.76074
-30.203
-107.663
106.104
-132.305
-132.305
-101.772
104.112
-65.6221
-48.2254
-58.9551
-54.8402
-33.9663
-33.2142
-39.4341
-32.0011
-36.6452
-36.8441
-38.6708
-33.798
-43.4641
-39.5064
-43.0761
-40.6451
-51.5516
-51.0636
-50.7753
68.1505
-54.4648
-42.7838
-59.7228
-30.1495
-28.2235
-28.1753
-29.6625
-24.0284
-40.9105
-46.3481
-45.3651
-41.6624
-6.33661
-30.4652
-107.535
106.042
-65.4572
-48.1808
-58.9526
-54.6112
-33.8548
-33.1375
-39.3607
-31.9223
-43.2332
-39.5474
-42.9798
-40.4729
-54.1995
-42.5527
-59.4937
-29.8773
-40.8436
-46.2449
-45.2641
-41.6299
-36.4116
-37.9888
-37.7084
-37.0221
-40.2734
-42.6192
-42.4223
-41.0575
-39.6141
-39.5704
-42.0852
-38.9599
-39.585
-41.2517
-40.9274
-39.3954
-42.2488
-42.2767
-40.1583
-44.4004
-55.7594
-53.1217
-50.2721
-66.5599
0.579385
0.760682
16.8258
-24.3571
-62.9678
-62.9433
-69.8563
-56.9313
-36.5233
-38.0007
-38.0385
-37.0364
-40.1168
-42.3936
-42.3169
-40.8654
-39.0031
-41.0922
-40.7505
-39.3063
-56.1726
-53.3847
-50.8854
-67.0266
-72.7674
-60.5878
-60.5663
-53.2543
-72.5812
-60.4217
-60.508
-52.9424
-66.6065
-57.2259
-57.1385
-51.5879
-27.1651
-16.4851
-16.3976
-3.94685
200.384
195.844
191.852
200.547
-39.6091
-40.9876
-40.9678
-42.8914
-40.4256
-41.4165
-41.4392
-43.7689
-37.3669
-37.1151
-38.6687
-37.344
-91.843
-96.3245
-86.308
-91.8615
-47.226
-44.6947
-46.7697
-43.229
-47.1011
-44.5892
-46.5534
-43.1356
-38.9055
-38.7977
-38.6407
-39.7942
-34.5836
-39.2405
-39.2387
-44.2383
-29.0924
-30.7622
-26.8791
-28.9378
-130.036
87.7602
-101.265
82.8183
-97.4726
-80.3682
-39.3102
-32.9875
-40.8628
-33.981
-46.093
-41.765
-76.6844
86.4391
-49.875
43.2881
-78.8073
-45.3945
-39.2637
-31.4705
-30.4895
-28.4919
-40.9493
-34.2412
-100.713
44.1061
-129.486
84.9986
-97.3638
-79.9111
-40.1212
-34.106
-39.2604
-32.9349
-45.8679
-41.5874
-49.8678
42.9938
-76.9726
85.7542
-78.823
-45.8707
-30.4145
-28.27
-39.1449
-31.3403
-40.8477
-34.1796
-46.2502
-44.5432
-37.4091
-36.6942
-41.3273
-38.9435
-40.9853
-38.5405
-39.8077
-40.6972
-40.9981
-38.8144
-40.0146
-42.3097
-39.676
-42.4381
-47.6332
-13.3816
-44.2958
-45.9863
-50.8134
-75.1051
6.87001
-28.265
-44.6659
-52.0654
-44.1419
-42.3328
-48.7617
-59.8715
-65.628
-56.2183
-45.1644
-44.53
-40.8831
-38.5444
-37.6136
-36.6321
-41.1969
-38.9528
-39.7241
-40.7206
-39.6663
-42.4432
-41.0231
-38.7909
-40.2651
-42.3062
-47.4407
-12.9839
6.84951
-28.8473
-44.1764
-45.6756
-50.8941
-75.4871
-44.5849
-52.0538
-65.6006
-56.1934
-43.9347
-42.2093
-48.8567
-59.8888
-100.015
-98.5093
165.804
171.352
-80.3234
-80.0834
170.05
170.548
-72.2139
-51.5889
-65.096
-50.4945
-45.2394
-42.9954
-32.5196
-30.0837
-40.2723
-40.403
-32.4154
-32.3626
-41.9277
-47.0891
-42.5347
-37.5518
-38.5136
-38.3988
147.922
147.96
-52.2121
-73.4679
-31.8302
-11.4069
-31.8503
-31.824
-26.9489
-27.134
-45.4627
-44.837
-45.0539
-35.7294
-99.5803
-98.3112
170.904
172.677
-72.1616
-51.7801
-64.8032
-50.3366
-42.8946
-45.1014
-32.4399
-29.8968
-41.8657
-46.8976
-42.5415
-37.2995
-72.7684
-51.9284
-11.278
-31.771
-44.808
-45.3672
-35.7007
-45.0256
-38.5629
-39.3534
-36.5775
-38.1543
-46.5895
-46.2532
-39.5737
-43.0581
-46.5734
-46.6021
-37.1638
-37.1292
-40.8904
-42.7294
-41.6438
-41.769
-39.397
-39.4067
-43.7407
-43.8725
-45.283
-45.9704
-91.1773
-78.6452
6.71706
6.79244
-63.1283
-63.3336
-75.4661
-75.4124
-50.4246
-50.4102
-38.984
-39.6087
-36.5432
-38.147
-46.0612
-45.9034
-39.7779
-43.2557
-42.8051
-40.9356
-41.5705
-41.6798
-46.4231
-45.7588
-78.5831
-91.0507
-128.077
-70.9395
-72.6731
-122.04
-40.3097
-41.9085
-52.5677
-50.6582
-47.5658
-51.7766
-53.3461
-42.9273
-71.2585
-89.4873
-72.2533
-70.7474
-126.902
-121.727
-72.5776
-70.7727
-71.5131
-69.2505
-71.8711
-89.4623
-47.4891
-42.8553
-52.9481
-51.4949
-40.306
-50.9921
-52.2879
-41.7527
-105.14
-101.692
-66.193
-64.354
-104.627
-64.0386
-66.0687
-101.519
-40.2415
-41.72
-51.3316
-48.9696
-40.3502
-49.1936
-51.3889
-41.7616
-52.5348
-38.5046
-28.0676
-49.5429
-20.7342
13.9471
-6.02355
-21.482
-21.0717
-21.3352
-6.46254
14.3472
-52.4475
-49.6859
-28.0784
-38.2038
57.3637
95.4236
196.289
114.131
47.0128
82.5898
180.822
106.75
46.5859
106.094
180.963
82.1135
56.4794
113.195
196.65
94.1291
-38.6117
-37.3116
-39.5318
-39.7917
-42.8242
-40.2464
-39.9098
-38.5315
-47.6459
-49.5958
-42.7111
-42.1639
-50.6339
-42.9091
-43.0015
-50.4948
-38.6316
-39.6639
-39.9665
-37.7246
-50.3985
-51.1515
-43.4734
-42.6441
-47.4891
-41.9644
-43.1144
-49.9594
-42.1579
-38.7189
-40.3409
-40.0427
-38.176
-39.0008
-36.9231
-36.45
-38.208
-36.4578
-36.8919
-38.9801
-39.6998
-39.9643
-38.4553
-37.9913
-39.7138
-37.996
-38.4621
-39.9686
-78.9984
-71.7409
-95.7044
-23.7829
-56.9096
-68.9569
-85.0369
-62.6671
-56.8587
-62.7035
-85.0814
-68.9433
-78.3897
-24.288
-95.7269
-72.0584
-45.1695
-40.8069
-42.5797
-40.6309
-39.8149
-39.3405
-46.9708
-47.2427
-38.4523
-43.406
-47.2113
-39.5978
-45.3193
-40.2754
-43.7395
-45.2682
-44.8318
-40.5945
-42.5004
-40.7699
-45.2182
-45.1498
-43.7244
-40.1602
-38.3573
-39.4953
-47.0958
-43.3158
-39.8016
-47.0612
-46.8206
-39.2719
-41.4561
-43.9411
-40.0666
-40.6872
-41.477
-40.6131
-40.0732
-43.9836
-40.9246
-39.8861
-37.7592
-39.8118
-40.911
-39.9205
-38.2768
-39.8567
-52.0952
-46.7456
-44.3485
-56.6414
-31.8463
-29.8762
-34.9966
-37.4564
-31.7606
-37.4073
-34.9827
-29.8412
-52.0167
-56.6394
-44.3393
-46.6921
-34.3718
-33.7876
-31.6279
-32.8083
-34.4502
-32.7631
-31.5349
-33.8096
-30.9873
-25.5467
-27.8673
-31.7434
-31.1472
-31.8549
-28.0277
-25.7566
-50.8249
-157.352
-141.266
-37.5497
-37.791
-37.5665
-32.2869
-46.3389
-55.9625
-34.1277
-31.9309
-33.7815
-159.538
-52.7578
-141.212
-37.045
-37.0558
-37.7696
-45.5434
-32.9165
-56.1869
-31.767
-33.9894
-33.6767
-38.6545
-38.1602
-37.5544
-38.1
-41.9993
-38.7596
-34.0659
-42.446
-55.4934
-52.7009
-57.1527
-75.9534
-48.4991
-48.254
-49.9343
-51.2955
-38.6333
-38.0573
-38.1711
-37.5239
-41.9996
-42.5432
-38.8144
-33.8903
-55.1425
-72.0507
-52.4192
-57.0865
-48.4068
-51.2248
-48.118
-49.8726
-9.76603
-29.2775
-64.0395
50.0614
-132.254
-132.341
-115.998
-42.5832
-59.5101
-51.156
-57.9068
-54.4745
-33.7167
-32.9989
-36.5892
-32.2884
-36.6141
-36.6471
-37.6163
-34.7939
-40.6163
-39.7382
-42.1159
-41.0382
-51.9695
-51.6721
-56.8585
-55.8059
-51.4538
-45.061
-56.4117
-36.6412
-28.1346
-28.1333
-29.3316
-23.5975
-42.5555
-45.2758
-44.6596
-43.4656
-8.75613
-26.8673
-66.366
49.7318
-59.3786
-51.0983
-57.7551
-54.3078
-33.5586
-32.9737
-36.4232
-32.1967
-40.5011
-39.858
-42.048
-41.0145
-51.0688
-44.8679
-56.1375
-36.2231
-42.481
-45.207
-44.5599
-43.4021
-36.7757
-37.3963
-36.8062
-36.9938
-40.6511
-41.8264
-41.5311
-41.1311
-39.8311
-39.8176
-40.465
-39.2993
-39.8621
-40.4747
-40.4445
-39.5344
-42.315
-42.3268
-41.2442
-44.7324
-55.1729
-53.7956
-52.9692
-59.6152
2.1496
2.45803
11.7588
-11.1833
-63.3852
-63.3724
-66.5218
-60.2613
-36.8339
-37.4387
-36.9685
-37.0268
-40.4684
-41.5734
-41.3779
-40.8809
-39.6903
-40.3088
-40.2405
-39.4046
-55.6405
-54.1514
-53.4002
-59.9015
-66.1699
-60.9062
-60.6775
-56.4569
-65.9883
-60.7305
-60.6021
-56.2299
-61.6714
-57.4573
-57.4408
-54.3683
-21.0274
-15.5472
-15.5259
-9.2441
202.332
199.348
202.874
202.405
-40.2747
-41.0701
-41.0076
-41.8834
-41.1113
-41.6742
-41.7006
-42.6231
-37.3829
-37.5857
-37.6025
-37.3778
-92.9595
-95.1616
-90.5449
-93.0098
-46.4178
-44.9363
-45.8211
-44.1274
-46.2912
-44.8235
-45.6935
-44.0116
-38.7131
-38.7794
-38.7668
-39.1962
-36.6525
-39.1677
-39.1623
-41.6365
-28.4201
-29.785
-26.9982
-28.3155
6.46383
-2.84252
-89.2491
42.5055
-136.913
-133.271
-116.778
23.7622
-98.5157
-73.4349
-94.9803
-81.748
-34.7029
-34.1084
-36.9142
-33.2479
-36.763
-36.6912
-38.7223
-34.65
-43.3711
-45.1318
-46.0779
-41.2618
-31.0129
-28.5447
-67.7028
42.3688
-50.5969
-51.0557
-53.9996
-44.8767
-59.9263
-55.4767
-66.3475
-49.9292
-33.6593
-33.4602
-37.4372
-32.2073
-29.7136
-28.4119
-29.7031
-28.3736
-35.9779
-38.8259
-39.1392
-35.5844
-136.963
-132.663
-116.32
8.42741
5.44387
-3.12047
-89.7224
41.7935
-98.1796
-73.251
-94.2205
-81.3579
-37.1115
-37.1305
-39.6884
-35.3415
-34.6983
-34.0456
-36.8371
-33.1879
-43.3721
-44.8602
-45.7935
-41.0173
-50.1004
-50.5818
-53.777
-41.7981
-31.7226
-28.1827
-68.8405
42.0827
-60.0969
-55.1634
-66.6409
-50.4928
-29.568
-28.3191
-29.6193
-28.1698
-33.5394
-33.3531
-37.3152
-32.1053
-35.89
-38.7544
-39.0641
-35.5147
-40.0898
-45.9054
-44.6239
-43.7535
-37.4125
-36.4458
-36.9759
-36.7059
-39.4511
-39.9936
-40.5069
-39.2144
-38.8107
-39.2075
-40.2179
-38.8213
-39.994
-39.31
-39.2403
-40.3398
-39.4266
-38.8001
-39.6405
-38.9203
-33.304
-38.1351
-36.0862
-42.192
-41.5369
-42.0936
-40.6996
-42.8661
-45.503
-41.8986
-46.5976
-24.0613
-47.5356
-43.7416
-44.6279
-45.7814
-56.9853
-56.3094
-53.8155
-62.8193
-10.4052
-1.23056
4.47386
-17.2933
-47.456
-46.706
-46.4344
-48.8454
-44.8055
-42.2352
-43.7901
-42.6886
-51.4415
-52.5552
-50.7977
-55.7975
-59.1158
-62.1001
-63.1593
-58.5437
-39.9745
-45.7369
-43.7675
-43.6245
-38.7332
-39.1387
-40.1297
-38.7656
-37.4222
-36.5777
-36.92
-36.6747
-39.3978
-39.9166
-40.3574
-39.2708
-39.8429
-39.2148
-39.1152
-40.3737
-41.5522
-42.1432
-40.7075
-42.8974
-39.3167
-38.7716
-39.658
-38.8836
-33.1945
-36.9393
-35.2029
-42.2863
-45.4019
-41.8035
-46.742
-25.5488
-10.3655
-1.06208
4.5067
-17.1189
-47.2663
-43.5422
-44.4662
-45.4252
-57.1023
-56.6311
-53.9026
-63.0809
-47.3788
-46.5726
-46.3058
-48.8748
-59.0854
-62.0635
-63.1062
-58.4733
-44.6519
-42.0726
-43.6031
-42.5401
-51.374
-52.5892
-50.8056
-55.8246
-114.317
-84.011
-99.744
-98.5479
144.573
195.962
174.379
180.827
-90.0008
-72.8017
-80.4119
-80.3495
156.4
187.861
172.789
172.896
-59.5701
-60.342
-65.2357
-55.4192
-55.5324
-56.7054
-60.0819
-52.9049
-41.66
-46.6644
-44.8397
-43.4605
-31.7793
-30.2084
-32.1621
-30.2698
-39.7403
-39.3856
-39.9937
-39.9691
-32.8591
-31.5573
-32.1762
-32.1424
-43.6573
-44.3799
-43.1283
-45.1139
-40.9472
-39.3013
-41.1921
-38.0441
-44.263
-32.9541
-38.1787
-38.1505
112.218
176.254
140.576
140.54
-59.5229
-60.3909
-55.9571
-65.3522
-24.5979
-18.3238
-26.1722
-16.4259
-30.4356
-32.7848
-31.592
-31.5777
-25.8696
-26.4098
-26.0914
-26.1984
-46.1729
-47.4229
-46.5673
-46.3358
-40.6999
-39.5053
-42.3535
-37.7508
-113.746
-83.8364
-99.4302
-98.3325
144.258
196.268
180.808
175.037
-59.5668
-60.254
-65.1651
-55.3688
-55.3098
-56.5651
-59.8395
-52.7267
-41.581
-46.5099
-43.3543
-44.68
-31.6752
-30.031
-32.0235
-30.1418
-43.5592
-44.2797
-43.0534
-44.9812
-40.3203
-39.1086
-41.1137
-37.8587
-59.4875
-60.3758
-64.5444
-55.9295
-24.3639
-18.2134
-16.1351
-26.0454
-46.0459
-47.118
-46.1193
-46.4846
-40.6544
-39.4854
-37.7242
-42.3254
-38.1947
-39.0985
-38.4053
-39.0658
-37.0636
-37.2406
-36.8199
-37.4448
-44.1687
-49.6895
-46.7131
-46.3693
-41.0132
-40.9866
-40.2805
-41.9419
-43.9171
-49.2889
-46.7451
-46.7587
-38.2619
-37.1135
-37.2959
-37.2844
-41.3178
-41.1819
-41.0995
-41.9782
-40.9987
-42.5547
-41.9471
-42.1291
-40.9837
-39.6165
-39.5872
-39.5862
-43.4023
-40.5976
-43.1415
-43.2124
-47.4832
-44.1809
-45.4874
-45.8029
-75.5352
-89.7899
-86.4887
-82.2396
15.0434
2.67237
8.90563
8.4845
-42.9078
-89.0004
-67.2309
-67.4655
-73.41
-81.7546
-76.6843
-76.629
-53.741
-47.2825
-50.5898
-50.5844
-38.6002
-39.7988
-38.999
-39.4253
-37.0565
-37.2048
-36.8052
-37.4396
-43.9588
-49.2499
-46.2277
-46.2487
-40.9438
-41.1893
-40.4204
-41.9467
-41.1314
-41.524
-42.0083
-41.0885
-40.9184
-42.4705
-41.8711
-42.0388
-48.2735
-45.1309
-46.6624
-46.1055
-75.7045
-89.8181
-82.273
-86.585
-117.471
-99.9953
-100.456
-83.8786
-46.8401
-43.4072
-48.6538
-46.4628
-46.6631
-44.3866
-48.6571
-46.0077
-95.3475
-86.1189
-98.4973
-84.139
-118.3
-99.0763
-99.5834
-83.3753
-95.0658
-86.0007
-98.2915
-84.4759
-46.5245
-44.2797
-48.3515
-45.8557
-45.5808
-42.873
-48.3155
-45.6445
-89.3788
-79.7419
-80.0499
-71.4622
-88.8239
-79.2689
-79.5563
-71.0897
-45.0593
-42.5689
-49.1262
-45.8847
-44.9788
-42.6747
-49.1017
-45.9306
-45.3975
-42.7667
-39.2973
-35.6746
-6.22885
5.07982
-3.80417
4.25812
-5.30342
5.46731
-3.81938
4.04269
-45.3726
-42.9466
-39.2889
-35.6346
121.44
125.81
160.994
156.781
112.278
110.273
161.274
150.879
109.983
112.011
151.31
161.467
139.62
120.6
161.05
162.71
-38.1489
-38.6675
-38.49
-38.8972
-41.2154
-41.4763
-39.4818
-40.834
-44.5568
-46.5452
-43.736
-45.1908
-46.0852
-48.446
-44.4774
-46.0715
-38.4113
-38.7896
-38.8411
-39.1261
-45.9149
-48.4591
-44.5679
-46.2553
-44.458
-46.6915
-43.8024
-45.4526
-41.2291
-41.5927
-39.6153
-40.9308
-36.7382
-37.6526
-36.5805
-36.9724
-37.5837
-36.6531
-36.9279
-36.5471
-38.9692
-38.8486
-39.1966
-39.0536
-38.866
-38.9894
-39.0562
-39.2176
-74.3378
-42.6661
-82.3904
-62.6886
-65.6303
-68.2107
-74.9584
-73.8099
-68.2656
-65.7508
-73.7722
-74.9852
-43.7423
-74.1042
-62.7075
-82.3517
-40.3708
-40.9262
-41.2961
-41.1933
-42.057
-45.7575
-45.2373
-47.8325
-40.6605
-41.7249
-42.454
-43.7723
-43.4169
-42.4224
-43.4442
-41.8244
-40.296
-40.8883
-41.224
-41.1256
-43.3264
-42.3258
-43.3728
-41.7468
-40.5532
-41.6137
-42.3484
-43.6693
-42.0493
-45.6237
-45.3456
-47.6181
-41.0704
-41.222
-43.0985
-43.6643
-41.0775
-41.1946
-43.1646
-43.7471
-40.6961
-41.6085
-40.1245
-37.5042
-42.449
-41.8483
-40.4862
-37.6591
-51.1114
-53.3564
-47.7096
-50.4572
-31.5468
-33.3682
-32.2532
-34.132
-31.4939
-33.3136
-32.2152
-34.0924
-51.0941
-53.3425
-47.7337
-50.426
-33.0233
-33.3648
-32.6418
-32.7395
-33.3795
-32.9753
-32.6782
-32.5829
-28.5269
-30.3482
-28.0832
-29.5278
-30.5363
-28.8259
-29.7239
-28.2846
-105.455
27.8669
-126.763
-20.0991
-128.719
-109.64
-37.6764
-34.9493
-38.2296
-36.1317
-40.4046
-40.4413
-59.7255
23.1838
-53.0362
-11.2846
-63.5639
-54.6741
-37.9605
-31.953
-30.842
-30.8693
-36.6877
-33.0522
-126.488
-17.4992
-104.906
28.7612
-127.824
-109.095
-38.4819
-36.1126
-37.6226
-35.0269
-40.4502
-40.3477
-55.6349
-11.9142
-60.34
23.8885
-63.9282
-54.9145
-30.7358
-30.7199
-37.8202
-31.8272
-36.5998
-32.9567
-38.1575
-39.7923
-38.4781
-38.0183
-40.1564
-39.0003
-38.7205
-38.4121
-45.0188
-40.3835
-44.8858
-39.6835
-35.7391
-45.8427
-40.5586
-43.3658
-48.6588
-44.9834
-49.1254
-50.455
-53.5425
-66.4089
-19.6582
-68.908
-47.2944
-49.1768
-47.1062
-45.8651
-49.5803
-53.4411
-55.5408
-52.9818
-38.1831
-39.7099
-38.6285
-38.3879
-38.5356
-38.0637
-40.2664
-39.0695
-44.5854
-40.2885
-40.575
-43.6275
-44.1465
-39.641
-34.8655
-45.9298
-48.3725
-44.9562
-19.9324
-68.7157
-48.9885
-50.1586
-53.3572
-66.6256
-47.1747
-49.1151
-55.4676
-52.8996
-46.9549
-45.7504
-49.5254
-53.4065
-76.3989
49.6659
-68.6127
50.706
-116.341
-101.989
96.9706
107.588
-116.243
-30.4157
-116.089
-28.0009
-101.47
-101.441
63.3079
64.2928
-69.6755
-64.5165
-49.9496
-48.4911
-64.1841
-54.5166
-59.0854
-51.6927
-36.9176
-32.9671
-37.1178
-32.2864
-39.4393
-39.477
-32.5749
-31.7347
-38.1892
-34.5595
-38.5548
-34.4687
-38.812
-38.8108
-33.8353
-33.8398
-46.4985
-41.4467
-39.3645
-40.5213
-42.1886
-44.7139
-40.7262
-38.5112
-55.6528
-57.2707
-55.4336
-57.3243
-50.1507
-50.2686
74.2436
73.7161
-64.5034
-44.5006
-48.5087
-30.8906
-55.7279
-64.8702
-34.3892
-25.712
-29.3848
-25.3476
-29.3434
-25.1974
-29.7319
-29.7149
-24.4143
-24.5414
-42.0434
-39.2601
-46.1085
-47.5925
-44.4053
-45.6524
-44.5232
-39.6149
-76.4964
50.8594
-69.6445
50.2328
-115.792
-101.79
107.079
96.8614
-69.4187
-64.263
-50.207
-48.3582
-63.9817
-54.5192
-58.8269
-51.4944
-36.8043
-32.9041
-37.0082
-32.1951
-39.3988
-39.3583
-32.5105
-31.632
-46.3135
-41.3446
-39.3943
-40.5859
-42.1269
-44.5671
-40.8694
-38.4067
-64.2916
-44.0967
-48.2861
-30.8588
-63.8689
-55.4818
-25.5634
-34.1135
-41.966
-39.2003
-45.998
-47.52
-45.4949
-44.3091
-39.5741
-44.4576
-36.1691
-36.4804
-37.468
-37.992
-37.5874
-38.3485
-36.7319
-37.4401
-40.8101
-39.9769
-42.5442
-42.7819
-42.1663
-42.6709
-40.4017
-41.8851
-40.5229
-39.1085
-40.4747
-39.0734
-42.0067
-42.0163
-38.9226
-38.9106
-38.6481
-40.6644
-41.6317
-40.8223
-40.5293
-41.3075
-39.7218
-39.5586
-40.9998
-44.118
-41.0094
-44.1506
-40.1069
-40.1055
-45.2495
-45.2841
-53.5766
-61.2643
-51.6995
-57.324
-50.0472
-50.289
-68.8943
-64.5873
10.5115
-10.1642
11.2539
-10.3681
15.7898
16.0093
-24.2509
-24.6535
-65.9597
-59.915
-65.9342
-59.8956
-69.5187
-69.5204
-56.7195
-56.7122
-36.5203
-36.5278
-37.6394
-37.9912
-37.9127
-38.6394
-36.7494
-37.4455
-40.5822
-39.7452
-42.4269
-42.4941
-42.5801
-42.0599
-40.2645
-41.6593
-38.017
-40.6966
-41.4451
-40.6802
-41.1159
-40.3346
-39.654
-39.4566
-53.9911
-61.5221
-51.9788
-57.5016
-51.1248
-50.502
-64.6383
-69.6056
-72.8185
-72.5012
-65.6546
-55.8601
-56.2267
-65.8532
-52.9321
-53.2682
-72.6798
-72.2647
-65.5633
-55.6753
-65.5203
-56.1565
-52.746
-52.5439
-66.4948
-66.4608
-61.2288
-53.9703
-61.1252
-53.8979
-51.5419
-51.5572
-27.3394
-27.3722
-22.1537
-10.9056
-10.9163
-22.0176
-3.99249