# vtk DataFile Version 2.0
tri_press
ASCII
DATASET UNSTRUCTURED_GRID
POINTS 3682 float
-0.734967 0.115 -1.985
-0.792943 0.315 2.025
-0.765 0.547804 -1.695
-0.685 0.825 1.97413
0.734967 0.115 -1.985
0.792943 0.315 2.025
0.765 0.547817 -1.695
0.685 0.825 1.97413
-0.783423 0.152536 -0.648333
-0.8332 0.188751 0.688334
-0.816686 0.718555 -0.471957
-0.793134 0.814069 0.751087
0.783427 0.152532 -0.648333
0.833199 0.188752 0.688334
0.816669 0.718547 -0.471957
0.793273 0.814212 0.751087
-1.52194 -0.230914 -3.08928
-1.52643 -0.157454 -2.06546
-1.56495 -0.118441 -0.725851
-1.59681 -0.0844146 0.636621
-1.57681 0.00878971 1.97815
-1.57109 0.0772963 3.01141
-1.57779 0.13562 4.02721
-1.52246 0.0218322 -2.98513
-1.52751 0.109897 -1.97372
-1.5743 0.16559 -0.656219
-1.59952 0.200542 0.671504
-1.55341 0.287069 1.99118
-1.5578 0.354103 3.02283
-1.57324 0.412737 4.04234
-1.53663 0.503896 -2.74494
-1.55192 0.590343 -1.72882
-1.59525 0.725892 -0.488786
-1.57204 0.80127 0.743201
-1.48707 0.832703 1.98542
-1.52401 0.89749 3.02177
-1.56329 0.963632 4.0596
-1.55528 1.3104 -2.47007
-1.56622 1.40722 -1.47098
-1.58427 1.54775 -0.267782
-1.58477 1.65481 0.910926
-1.56956 1.71462 2.11531
-1.57023 1.76023 3.11689
-1.584 1.81495 4.14231
-0.748101 -0.228701 -3.09661
-0.743442 -0.15298 -2.07615
-0.772596 -0.124884 -0.724416
-0.809503 -0.0921307 0.650985
-0.800988 0.0225039 2.00326
-0.800573 0.0866154 3.02845
-0.807414 0.139814 4.03707
-0.747895 0.0191824 -2.98739
-0.799154 0.363691 3.03688
-0.808692 0.416444 4.04977
-0.758557 0.485463 -2.73089
-0.771988 0.896714 3.01951
-0.805229 0.963601 4.05911
-0.771112 1.29807 -2.45618
-0.777769 1.39576 -1.45567
-0.795579 1.54554 -0.258556
-0.806762 1.65846 0.909819
-0.804337 1.71523 2.10741
-0.807644 1.75896 3.10899
-0.819634 1.81369 4.13657
0.772456 -0.228696 -3.09661
0.766629 -0.152978 -2.07615
0.798236 -0.124882 -0.724416
0.822325 -0.092125 0.650985
0.792051 0.0225085 2.00326
0.759034 0.0866242 3.02845
0.741195 0.139828 4.03707
0.76513 0.0191875 -2.98739
0.738722 0.363698 3.03688
0.727382 0.416458 4.04977
0.773774 0.485472 -2.73089
0.70062 0.896726 3.01951
0.707936 0.963619 4.05911
0.791323 1.29809 -2.45618
0.793957 1.39578 -1.45567
0.786226 1.54557 -0.258556
0.756484 1.65852 0.909819
0.723234 1.71527 2.10741
0.711808 1.75899 3.10899
0.706591 1.81372 4.13657
1.54283 -0.230901 -3.08928
1.5407 -0.157445 -2.06546
1.58181 -0.118423 -0.725851
1.6136 -0.0843834 0.636621
1.5812 0.00880972 1.97815
1.54415 0.0773203 3.01141
1.52218 0.135652 4.02721
1.53431 0.0218443 -2.98513
1.52555 0.109902 -1.97372
1.57475 0.165612 -0.656219
1.6097 0.200592 0.671504
1.56267 0.287086 1.99118
1.52205 0.354125 3.02283
1.50579 0.412769 4.04234
1.54539 0.503914 -2.74494
1.54801 0.590357 -1.72882
1.59149 0.725928 -0.488786
1.57567 0.80141 0.743201
1.48871 0.832747 1.98542
1.47531 0.897525 3.02177
1.47939 0.963671 4.0596
1.57113 1.31043 -2.47007
1.57596 1.40725 -1.47098
1.57302 1.54781 -0.267782
1.54226 1.65491 0.910926
1.50028 1.71471 2.11531
1.48299 1.7603 3.11689
1.47711 1.81501 4.14231
-0.736916 0.331402 -1.82693
0 0.111358 -1.98864
-0.757304 0.135659 -1.31667
-0.740356 0.57 2.00095
0 0.314528 2.02547
-0.814515 0.250432 1.35667
0 0.570632 -1.71782
-0.849878 0.692215 -1.08348
0 0.863048 2.01218
-0.760034 0.840502 1.36261
0.748093 0.331408 -1.83811
0.757304 0.135659 -1.31667
0.740268 0.57 2.00086
0.813091 0.251856 1.35667
0.849948 0.692296 -1.08348
0.760042 0.840512 1.36261
-0.812681 0.166274 0.02
-0.816046 0.435546 -0.560145
2.29832e-06 0.148084 -0.648333
-0.850398 0.50141 0.71971
-3.16101e-07 0.184853 0.688334
-0.786969 0.748371 0.139565
-8.13171e-06 0.834686 -0.471957
6.96503e-05 1.07291 0.751087
0.81283 0.166125 0.02
0.816048 0.435539 -0.560145
0.850403 0.501482 0.71971
0.78692 0.748329 0.139565
-0.856237 0.383474 -1.20007
0.856235 0.383474 -1.20007
1.14916e-06 0.125234 -1.31667
-4.06585e-06 0.786183 -1.08348
0 0.331405 -2.04107
-0.834358 0.468478 0.0797825
0.834365 0.468511 0.0797825
9.91109e-07 0.16652 0.02
3.07593e-05 1.09319 0.139565
-0.84752 0.535705 1.35964
0.847518 0.535741 1.35964
-1.58051e-07 0.226722 1.35667
3.48252e-05 0.907499 1.36261
0 0.57 2.08206
-0.71778 0.223201 -1.88781
-0.367483 0.11136 -1.98864
-0.749254 0.122211 -1.65083
-0.739284 0.4425 1.98561
-0.396472 0.314482 2.02552
-0.816647 0.269798 1.69083
-0.764195 0.439603 -1.7742
-0.3825 0.535674 -1.68287
-0.839652 0.652222 -1.38924
-0.718005 0.6975 1.99287
-0.3425 0.859351 2.00848
-0.731 0.841233 1.66837
0.367483 0.111355 -1.98864
0.717692 0.223204 -1.88772
0.749196 0.122269 -1.65083
0.396472 0.314573 2.02543
0.739283 0.4425 1.98561
0.816625 0.26982 1.69083
0.3825 0.53566 -1.68285
0.764134 0.439613 -1.77414
0.83966 0.652242 -1.38924
0.3425 0.859353 2.00848
0.718057 0.6975 1.99292
0.730903 0.841138 1.66837
-0.770937 0.143524 -0.9825
-0.79885 0.158607 -0.314167
-0.822396 0.28271 -0.604239
-0.392845 0.14804 -0.648333
-0.803398 0.240051 1.0225
-0.822475 0.177978 0.354167
-0.831165 0.350398 0.704022
-0.417982 0.184038 0.688334
-0.835393 0.707496 -0.777718
-0.852014 0.594874 -0.516051
-0.799877 0.731513 -0.166196
-0.415533 0.790992 -0.471957
-0.779703 0.830404 1.05685
-0.862466 0.678089 0.735398
-0.788632 0.7798 0.445326
-0.429731 1.00989 0.751087
0.77083 0.143631 -0.9825
0.392851 0.148035 -0.648333
0.798854 0.158603 -0.314167
0.824784 0.281513 -0.604239
0.802945 0.240504 1.0225
0.417978 0.184046 0.688334
0.822476 0.177977 0.354167
0.831198 0.350419 0.704022
0.835384 0.707497 -0.777718
0.415495 0.790946 -0.471957
0.852004 0.594866 -0.516051
0.799856 0.7315 -0.166196
0.779725 0.830429 1.05685
0.42981 1.00984 0.751087
0.862465 0.67816 0.735398
0.788829 0.780003 0.445326
-0.838591 0.357438 -1.5135
-0.368458 0.331404 -2.03185
5.7458e-07 0.121445 -1.65265
0 0.221382 -1.99681
-0.853408 0.259567 -1.25837
-0.378651 0.125234 -1.31667
-0.803747 0.552852 1.68029
-0.370178 0.57 2.07648
-7.90253e-08 0.268305 1.69107
0 0.442264 2.02792
-0.83919 0.393068 1.35815
-0.407258 0.226744 1.35667
-2.03293e-06 0.708848 -1.40065
0 0.451019 -1.86646
-0.855604 0.537844 -1.14178
-0.424941 0.698191 -1.08348
1.74126e-05 0.871446 1.68739
0 0.716524 2.02151
-0.851312 0.688103 1.36112
-0.38 0.869979 1.36261
0.838559 0.357441 -1.51909
0.374046 0.331407 -2.0312
0.853404 0.259566 -1.25837
0.378653 0.125231 -1.31667
0.803764 0.55287 1.68025
0.370134 0.57 2.07648
0.839265 0.393799 1.35815
0.406545 0.226687 1.35667
0.855604 0.537885 -1.14178
0.424972 0.698199 -1.08348
0.851304 0.688126 1.36112
0.380039 0.870092 1.36261
-0.813286 0.322493 0.0498913
-0.406495 0.166088 0.02
-0.856039 0.40951 -0.880109
-0.827134 0.452012 -0.240181
1.72374e-06 0.132141 -0.9825
1.64471e-06 0.157311 -0.314167
-0.842491 0.484944 0.399746
-0.852542 0.518557 1.03967
3.37504e-07 0.175702 0.354167
-2.37076e-07 0.196724 1.0225
-0.848382 0.627284 0.109674
-0.458246 1.05033 0.139565
-6.09878e-06 0.811039 -0.777718
1.13138e-05 1.0048 -0.166196
5.02048e-05 1.10294 0.445326
5.22377e-05 1.00238 1.05685
0.813282 0.322476 0.0498913
0.406529 0.166096 0.02
0.856039 0.409507 -0.880109
0.827138 0.452025 -0.240181
0.842494 0.484996 0.399746
0.852551 0.518612 1.03967
0.848381 0.627289 0.109674
0.458152 1.05011 0.139565
-0.824251 0.241384 -1.58217
-0.850606 0.276804 -0.931304
-0.850054 0.557447 -0.828913
-0.846866 0.488724 -1.45137
0.822753 0.241385 -1.58496
0.846847 0.488749 -1.45417
0.850071 0.557464 -0.828913
0.850611 0.276801 -0.931304
-0.373067 0.121446 -1.65174
0.373068 0.121452 -1.65174
0.385184 0.132142 -0.9825
-0.385181 0.132152 -0.9825
-0.403721 0.633142 -1.39494
-0.416644 0.723781 -0.777718
0.416651 0.723737 -0.777718
0.403736 0.633141 -1.39494
-0.367971 0.222291 -1.99831
-0.375479 0.445311 -1.85872
0.378273 0.445316 -1.85866
0.370765 0.222293 -1.99846
-0.807691 0.307676 -0.277174
-0.821939 0.336589 0.376957
-0.855342 0.652645 0.422536
-0.848899 0.61043 -0.203189
0.807676 0.307673 -0.277174
0.8489 0.610431 -0.203189
0.855345 0.652686 0.422536
0.821941 0.336596 0.376957
-0.399665 0.157073 -0.314167
0.399685 0.157076 -0.314167
0.412246 0.175085 0.354167
-0.412232 0.175075 0.354167
-0.454225 0.955334 -0.166196
-0.45362 1.04937 0.445326
0.453667 1.04935 0.445326
0.454204 0.955289 -0.166196
-0.852167 0.369074 1.03109
-0.821912 0.417784 1.68556
-0.806523 0.692802 1.67433
-0.855981 0.672921 1.04826
0.852163 0.369458 1.03109
0.855979 0.672987 1.04826
0.806514 0.692813 1.67431
0.821967 0.418149 1.68554
-0.411929 0.196713 1.0225
0.411572 0.196714 1.0225
0.401508 0.268278 1.69095
-0.401865 0.268275 1.69095
-0.388266 0.957699 1.05685
-0.36125 0.86766 1.67788
0.361269 0.867646 1.67788
0.388355 0.95762 1.05685
-0.383325 0.442382 2.02792
0.383303 0.442382 2.02792
0.356317 0.707012 2.04735
-0.356339 0.707012 2.04735
-0.698193 0.169101 -1.90822
-0.551225 0.111369 -1.98863
-0.741288 0.119428 -1.81792
-0.739589 0.37875 1.97878
-0.594707 0.313767 2.02623
-0.806204 0.29099 1.85792
-0.766291 0.493703 -1.7363
-0.57375 0.555625 -1.70282
-0.814212 0.611899 -1.54212
-0.698728 0.76125 1.98072
-0.51375 0.856469 2.0056
-0.709604 0.83472 1.82125
0.551225 0.111364 -1.98864
0.698185 0.169102 -1.90821
0.741234 0.119482 -1.81792
0.594707 0.313913 2.02609
0.739576 0.37875 1.97877
0.8062 0.290994 1.85792
0.57375 0.555603 -1.70279
0.766132 0.493715 -1.73614
0.814186 0.611885 -1.54212
0.51375 0.856353 2.00548
0.698822 0.76125 1.98082
0.709607 0.834725 1.82125
-0.773219 0.151991 -0.815417
-0.789613 0.157095 -0.48125
-0.815608 0.211274 -0.626286
-0.589143 0.148269 -0.648333
-0.794807 0.237893 0.855417
-0.826417 0.184785 0.52125
-0.822156 0.274588 0.696178
-0.625372 0.186832 0.688334
-0.826112 0.713098 -0.624837
-0.853822 0.666451 -0.494004
-0.807802 0.724555 -0.319076
-0.613211 0.748977 -0.471957
-0.787744 0.823562 0.903967
-0.846761 0.755559 0.743243
-0.79377 0.799821 0.598206
-0.584879 0.858872 0.751087
0.773127 0.152083 -0.815417
0.589143 0.148275 -0.648333
0.789617 0.157091 -0.48125
0.81562 0.211265 -0.626286
0.794758 0.237942 0.855417
0.625372 0.186832 0.688334
0.826262 0.18494 0.52125
0.822158 0.274605 0.696178
0.82611 0.713106 -0.624837
0.613891 0.750365 -0.471957
[...]
POINT_DATA 3682
SCALARS point_scalars float 1
LOOKUP_TABLE default
-88.9473
-35.7617
-14.2433
-34.6593
-89.4471
-35.6823
-14.297
-34.627
-31.8782
-32.2757
-35.2733
-44.9136
-31.8842
-32.3044
-35.2871
-44.9238
16.6546
-95.1134
-45.477
-32.8473
-34.4049
-35.7617
-31.0139
16.6546
-86.6303
-35.8632
-28.2808
-35.2981
-35.7617
-31.0139
87.8383
-81.3842
-35.8562
-37.5195
-36.9889
-31.7153
-28.2311
-7.01427
-76.7603
-40.26
-41.7298
-36.5111
-34.823
-33.7262
20.8796
16.6546
-32.7355
-33.5278
-35.8281
-29.8674
-29.8674
121.055
-29.8674
-29.8674
161.588
-27.6694
-27.2197
43.9543
-59.4289
-60.6896
-54.9169
-32.0411
-31.3169
-30.8988
16.39
16.39
-33.0799
-33.3098
-35.8507
-29.8538
-29.8538
120.825
-29.8538
-29.8538
155.435
-27.2045
-26.5892
41.0817
-59.351
-60.7316
-55.3951
-31.8597
-30.914
-30.914
16.39
-95.9581
-45.37
-32.6941
-34.4034
-35.6841
-31.0013
16.39
-86.9554
-35.8556
-28.2555
-35.3746
-35.6841
-31.0013
99.7475
-81.6214
-35.8589
-37.5602
-36.9237
-31.4934
-28.2116
-7.35748
-75.6544
-40.2508
-41.888
-36.4704
-34.7899
-33.6977
-8.47379
-183.726
-49.5962
-32.3649
-27.1577
-32.6481
10.1245
-54.2938
-25.6176
-38.5421
-16.9808
-49.5702
-32.3395
-33.0554
-54.395
-38.5281
-32.0614
-31.6143
-34.3452
-33.7946
-32.3748
-46.7033
4.02976
-59.811
-32.0824
-31.6001
-33.8436
-46.6966
-56.4617
-56.3534
-52.5729
-45.308
194.137
-31.9846
-31.9818
-30.6072
-90.4931
-37.7743
-37.7264
-34.3676
-36.4661
-20.7004
-10.8058
-178.475
-80.1815
-33.5901
-29.4063
-35.8143
-16.4547
6.17847
-68.4869
-32.3344
-27.4692
-36.7423
-178.389
-11.8899
-80.0808
-29.3703
-33.6743
-35.8612
5.79318
-17.4644
-68.2903
-27.4424
-32.3106
-36.7009
-39.7196
-29.0759
-34.5448
-33.4878
-31.8027
-32.333
-26.8823
-32.7246
-38.5808
-33.6994
-44.338
-5.40258
-40.7095
-36.9506
-44.2854
-54.9883
-39.6636
-33.4843
-29.0759
-34.5305
-31.708
-32.7485
-32.3405
-26.9041
-38.5703
-5.41311
-33.6962
-44.3353
-40.7119
-54.9813
-36.9702
-44.2575
-77.7211
177.89
-82.1724
202.895
-57.7557
-50.9569
-39.474
-25.3349
-30.9913
-22.8219
-37.2209
-34.4704
-36.2289
79.0254
-54.5598
-49.2045
-31.0341
-23.6832
-38.2542
-37.1487
-76.8227
177.026
-57.5844
-50.955
-39.3857
-25.279
-37.1617
-34.4615
-54.5175
-49.1856
-38.2166
-37.1459
-30.7439
-30.1831
-44.7792
-31.3005
-41.3329
-31.4952
-31.62
-35.922
-31.0218
-33.7944
-35.9415
-80.3246
-21.7112
-26.0749
-78.5257
-44.6859
-30.7344
-30.1873
-44.7473
-31.2902
-31.6235
-35.9369
-35.9405
-80.2312
-76.5269
-44.6047
-42.8056
-78.2317
-75.6183
-78.1293
-42.7869
-44.5299
-79.2441
-79.2604
-40.4981
-40.5113
-42.3821
-25.9795
-25.9539
-42.3338
195.885
61.4578
61.2981
195.872
-29.646
-29.4091
-34.7643
-35.2511
-29.6201
-35.2474
-34.7725
-29.4023
-30.908
-30.911
-30.8088
-30.7976
-36.663
-67.1682
-67.183
-36.6367
-34.8686
-38.316
-39.7197
-37.1616
-34.9178
-37.1647
-39.6427
-38.2851
-33.3669
-33.3526
-31.9714
-32.0062
-44.4398
-31.6978
-31.694
-44.4315
-26.3314
-26.2889
-25.7844
-25.8119
-25.9844
-68.2681
-103.66
-34.9489
-31.5789
-34.435
-10.3958
20.2301
-52.283
-33.8485
-30.394
-34.4761
-68.5725
-26.8625
-103.735
-31.5679
-34.8093
-34.4295
20.2125
-10.6713
-52.7743
-30.403
-33.8187
-34.46
-35.1625
-29.8186
-33.6084
-32.3781
-36.7714
-27.5663
-26.3556
-33.8444
-34.8549
-35.7461
-39.6982
-21.2721
-43.3616
-39.8453
-45.058
-51.758
-35.1294
-32.3762
-29.8188
-33.6106
-36.8183
-33.9352
-27.5652
-26.3654
-34.865
-21.3879
-35.7482
-39.6745
-43.3829
-51.7498
-39.8597
-44.9777
-21.2372
-19.6801
-80.5022
141.329
-196.535
-196.604
-112.791
132.212
-62.1051
-43.2024
-56.0067
-49.4046
-32.76
-32.1444
-35.5598
-26.9951
-27.7987
-27.7651
-29.0591
-24.2648
-38.2962
-31.998
-36.242
-33.5177
5.34151
5.26458
-20.1883
59.7164
-67.4343
-45.0079
-54.041
-51.1551
-26.0541
-26.0381
-28.3583
-23.6494
-37.4724
-39.4961
-38.1761
-37.8718
-23.4993
-27.8333
-77.4018
140.109
-62.0927
-43.2189
-55.8634
-49.4027
-32.7497
-32.1183
-35.5044
-26.9715
-36.9523
-31.9626
-36.3521
-33.5065
-67.3822
-44.9332
-54.0678
-51.1297
-37.4542
-39.49
-38.1461
-37.8692
-29.6526
-25.9545
-31.3081
-29.7298
-32.7979
-31.9985
-40.1496
-30.6546
-34.116
-34.1142
-37.6602
-32.6842
-31.61
-35.1126
-31.9106
-35.9879
-32.3969
-32.4016
-31.6819
-32.8878
-46.5414
-46.6148
-40.6875
-60.3028
2.55515
2.70192
-7.30719
5.90249
-58.6421
-58.6395
-68.7184
-51.1269
-29.6563
-25.8659
-31.3256
-29.7351
-32.7897
-31.9919
-40.1309
-30.642
-31.6281
-35.1379
-31.9189
-35.9954
-46.5385
-46.5985
-40.6868
-60.2829
-66.4723
-57.2678
-55.6069
-48.3404
-66.4546
-57.1462
-55.528
-48.2715
-63.534
-52.1462
-52.1452
-45.7297
-45.2205
-46.9582
-46.9621
-34.9089
189.5
208.276
80.7964
191.828
-31.1541
-31.9513
-31.8593
-33.6688
-31.1476
-31.9488
-31.8595
-33.6691
-30.4779
-30.9361
-30.7895
-30.4687
-89.4415
-60.729
-86.6639
-89.4674
-39.8077
-37.3695
-37.8884
-36.606
-39.7157
-37.316
-37.8558
-36.5965
-32.7115
-34.4326
-34.4268
-35.3064
-33.7631
-36.5842
-36.5851
-40.0728
-22.6078
-22.6176
-22.0178
-22.5311
-96.5584
151.509
-108.721
138.844
-79.5762
-77.6297
-36.5274
-27.4364
-30.3572
-27.1333
-36.96
-33.3257
-82.7045
80.5208
-23.519
28.9576
-79.7998
-48.3207
-36.5578
-27.2731
-29.3754
-26.2484
-39.6683
-32.9571
-108.759
135.526
-95.2715
151.833
-78.7352
-77.6578
-30.4081
-27.0892
-36.5052
-27.4117
-36.9968
-33.2873
-23.8074
28.7426
-82.0023
80.2519
-79.3474
-48.2907
-29.3675
-26.2216
-36.4957
-27.2613
-39.618
-32.9477
-43.9078
-39.5453
-29.1574
-30.1348
-40.7325
-29.5836
-36.9023
-31.9724
-33.8048
-32.4387
-29.0473
-30.393
-29.9682
-38.8193
-31.6419
-32.8372
-41.2415
-31.4245
-38.1311
-34.1653
-39.5292
-59.2334
-15.6403
-7.87944
-37.8467
-44.0774
-35.1863
-37.4848
-39.2944
-56.1977
-61.0048
-48.9065
-43.8326
-39.5348
-36.8969
-31.9714
-29.1099
-30.1445
-40.6849
-29.5565
-33.8647
-32.2645
-31.6602
-32.8195
-29.042
-30.4106
-29.9357
-38.8118
-41.2343
-31.3627
-15.4689
-7.94989
-38.1172
-34.161
-39.5262
-58.5845
-37.8451
-44.0648
-61.0062
-48.8941
-35.2218
-37.4991
-39.175
-56.2355
-77.7755
-76.9146
200.257
85.9342
-81.637
-81.3872
201.483
202.162
-68.8339
-48.8139
-61.4646
-44.4983
-39.5621
-39.598
-25.8514
-25.3626
-31.1892
-31.2052
-24.6067
-24.56
-35.8986
-40.364
-35.1842
-33.2714
-38.2177
-38.2221
61.5642
61.1741
-47.0864
-66.4857
-51.1992
-37.6097
-31.1823
-31.1807
-24.4117
-24.4434
-39.7648
-36.8318
-40.5266
-34.2439
-76.5655
-76.3313
86.8098
200.132
-68.4644
-48.6993
-61.4692
-44.4931
-39.5213
-39.4947
-25.843
-25.336
-35.8975
-40.2028
-35.1954
-33.2307
-66.4661
-47.0508
-37.5872
-51.1728
-36.8181
-39.7048
-34.2439
-40.527
-30.6671
-29.6488
-30.4501
-30.4352
-44.3055
-44.8796
-30.348
-32.6533
-41.1208
-41.1259
-31.3294
-31.3329
-30.5093
-32.9927
-35.4368
-36.3685
-30.9875
-30.9669
-33.7335
-33.7338
-35.3453
-36.0422
-67.0387
-77.7041
-23.0249
-23.1115
-25.7768
-25.6739
-75.9301
-75.9264
-44.749
-44.7449
-30.6587
-29.6378
-30.4534
-30.4419
-44.852
-44.2484
-30.329
-32.6499
-33.0032
-30.5072
-35.4697
-36.3774
-36.0418
-35.3398
-77.6692
-67.1014
-91.7854
-69.1471
-68.7179
-87.9473
-39.0944
-41.176
-48.67
-46.6821
-37.2108
-46.6206
-47.6809
-39.5232
-83.3889
-80.7446
-65.2338
-68.5499
-92.4163
-87.2454
-69.0636
-69.0116
-83.2989
-68.6063
-65.2306
-80.5952
-37.2102
-39.506
-47.6314
-46.5084
-39.0458
-46.6019
-48.5777
-41.1458
-107.189
-111.527
-62.9638
-60.0018
-107.272
-60.0068
-62.9654
-111.521
-36.1029
-37.4672
-45.407
-43.1789
-36.1176
-43.185
-45.4044
-37.4682
-21.4257
-61.2321
-48.4611
-16.944
-25.4789
-9.71341
-36.705
-41.2888
-25.5547
-41.2603
-36.7106
-9.8826
-21.2841
-16.9963
-48.4453
-61.1537
131.572
126.489
207.53
126.118
53.2194
26.2802
79.221
102.654
53.3356
102.354
77.6963
26.1182
131.716
128.949
207.426
123.432
-30.2405
-30.9675
-31.0709
-29.8277
-28.4245
-30.8252
-30.5649
-28.6799
-36.9577
-39.7433
-33.3875
-33.597
-37.5035
-31.9312
-33.5132
-40.6341
-30.2245
-29.7984
-31.0633
-30.9594
-37.4981
-40.631
-33.5127
-31.9248
-37.044
-33.6164
-33.3868
-39.7317
-28.3859
-28.6424
-30.559
-30.8281
-31.0082
-32.5013
-30.8149
-30.0237
-31.0043
-30.0314
-30.8165
-32.5009
-31.7177
-31.651
-30.717
-29.9421
-31.685
-29.933
-30.7134
-31.6449
-38.7855
-61.5714
-58.4245
4.07787
-54.9067
-67.4294
-84.4926
-57.7282
-54.9028
-57.7285
-84.4856
-67.4481
-38.7307
4.00698
-58.4222
-61.4964
-40.4594
-34.4727
-36.4328
-35.752
-36.536
-36.007
-40.1617
-41.6069
-37.2308
-39.2757
-39.9784
-35.847
-40.0734
-36.8858
-36.8706
-37.7598
-40.5559
-35.7619
-36.4273
-34.4299
-40.0941
-37.7545
-36.8559
-36.9011
-37.1795
-35.783
-39.8982
-39.2308
-36.5328
-40.5965
-40.0216
-35.9626
-35.1016
-32.8461
-35.363
-32.8338
-34.8086
-33.2152
-35.3599
-32.8446
-31.9819
-29.3878
-32.8357
-34.09
-32.0003
-34.3147
-32.847
-29.4054
-47.5763
-40.8232
-40.1449
-50.4029
-31.0492
-28.6044
-33.9029
-35.1427
-31.0394
-35.1385
-33.9024
-28.5989
-47.5716
-50.4017
-40.1434
-40.8183
-28.2114
-25.6557
-23.9065
-27.158
-28.1948
-27.1301
-23.8938
-25.6053
-28.2961
-24.4269
-23.1202
-26.9691
-28.315
-26.9849
-23.1298
-24.4546
-59.5153
16.6546
-106.558
-35.2828
-32.8388
-35.9163
-9.39219
17.8983
-40.1914
-34.3146
-32.9078
-34.4559
16.39
-60.0252
-107.269
-32.8488
-35.3522
-36.118
17.9101
-9.64562
-39.9363
-33.0855
-34.2844
-34.4281
-32.975
-30.8336
-33.0437
-31.7776
-41.9002
-31.4883
-28.1558
-34.9031
-34.5302
-35.8682
-37.1977
-30.9763
-44.3555
-42.1974
-45.9054
-50.1225
-32.964
-31.7773
-30.8335
-33.039
-41.951
-34.9716
-31.4995
-28.1508
-34.5546
-31.1987
-35.8737
-37.1857
-44.3971
-50.1268
-42.2328
-45.8225
-23.6523
-11.3438
-87.9308
105.998
-198.236
-198.365
-135.469
13.044
-54.2137
-45.9344
-54.9897
-48.3922
-32.5186
-32.0919
-34.8876
-28.1953
-27.3651
-27.3492
-27.9165
-26.4483
-33.0339
-32.1332
-34.9166
-32.5924
10.3012
10.3829
-3.39878
30.7232
-62.7801
-49.2482
-55.1836
-52.8264
-25.7467
-25.7381
-27.1768
-23.9619
-37.9897
-39.3723
-38.3857
-38.2728
-26.8983
-30.2296
-84.7602
96.4372
-54.1785
-45.9371
-54.8805
-48.3848
-32.5105
-32.0653
-34.85
-28.1754
-33.3386
-32.1198
-35.1741
-32.6792
-62.8002
-49.1804
-55.2895
-52.8106
-37.9805
-39.3525
-38.3606
-38.268
-29.1115
-31.3243
-32.6345
-29.7598
-32.1093
-31.4299
-35.3661
-30.7755
-34.291
-34.2902
-35.1885
-33.6454
-33.0787
-34.4146
-32.6251
-34.6874
-32.3724
-32.3744
-31.792
-32.827
-46.7628
-46.2275
-43.4592
-53.8257
3.33051
3.41287
-2.76422
8.84929
-59.0627
-59.0613
-64.5099
-54.9709
-29.1053
-31.3118
-32.6571
-29.7723
-32.1033
-31.4208
-35.3546
-30.7622
-33.1216
-34.4514
-32.6326
-34.7336
-46.7637
-46.2073
-43.4557
-53.8431
-62.5798
-57.074
-55.9637
-51.5622
-62.4974
-56.9774
-55.8675
-51.477
-57.351
-52.339
-52.1938
-48.7973
-46.3647
-45.4177
-45.3097
-40.7769
179.445
207.394
142.169
178.772
-31.4878
-32.0944
-31.8444
-32.7192
-31.4827
-32.0922
-31.842
-32.7182
-30.5658
-30.5312
-30.9553
-30.5653
-90.4217
-80.3198
-88.7342
-90.4372
-38.2889
-37.6238
-37.9566
-37.8986
-38.2204
-37.5745
-37.9159
-37.8718
-33.4906
-34.3648
-34.3616
-35.0086
-35.0558
-36.4476
-36.4601
-38.1611
-21.6932
-21.6796
-21.0555
-21.649
-9.98943
-11.3386
-74.4164
107.914
-154.697
-191.403
-135.101
30.3006
-97.7343
-71.9635
-80.7051
-75.8653
-33.799
-33.0477
-35.9955
-28.9132
-30.9907
-28.5341
-29.778
-28.6346
-33.6472
-38.3702
-36.0233
-34.0778
-14.4329
-20.1541
-73.5585
61.3122
12.1647
4.16171
-10.9518
20.9279
-61.783
-70.363
-78.3147
-54.1228
-33.0828
-32.1009
-35.8269
-28.5175
-28.5668
-26.6237
-28.3489
-26.7885
-35.4044
-36.7986
-38.3074
-34.2697
-154.778
-191.433
-135.198
28.6988
-11.0438
-12.1337
-77.9527
107.621
-97.6221
-71.908
-80.2751
-75.8737
-30.9626
-28.4955
-29.7529
-28.5926
-33.7395
-32.9617
-35.9873
-28.8955
-33.6531
-37.7788
-36.0906
-34.0585
12.7668
3.95101
-11.0538
20.826
-14.9199
-25.1966
-73.1583
59.1918
-61.6664
-70.5945
-77.8543
-54.0802
-28.5404
-26.6012
-28.3352
-26.7598
-33.0621
-32.0744
-35.7979
-28.4957
-35.3605
-36.7794
-38.2615
-34.2442
-39.0152
-41.2868
-40.6413
-39.0413
-28.984
-29.9074
-28.747
-29.6327
-34.107
-33.4386
-36.7488
-31.0878
-33.0203
-33.8503
-34.2184
-32.8714
-30.9896
-32.167
-33.0722
-31.0398
-23.8809
-29.15
-31.3728
-29.4851
-25.5099
-29.3187
-29.9175
-35.1162
-33.154
-32.4772
-31.9536
-33.1577
-36.3464
-41.3479
-40.9169
-34.9855
-34.7143
-32.6814
-34.8829
-33.7099
-42.5613
-46.1523
-42.0162
-49.7406
-12.9466
-0.18274
-11.2535
-3.16715
-42.0826
-40.0614
-39.0683
-42.8264
-38.162
-35.9731
-36.2011
-37.3645
-42.97
-45.7352
-42.4362
-50.6628
-52.7228
-57.4411
-58.1512
-51.7175
-38.9855
-41.2595
-40.6211
-39.019
-33.017
-33.8474
-34.2133
-32.8692
-28.9765
-29.9105
-28.704
-29.6424
-34.0959
-33.454
-36.6526
-31.1088
-31.1579
-32.5707
-33.1311
-30.9731
-33.2158
-32.4867
-31.9757
-33.1667
-23.905
-29.1524
-31.3786
-29.5056
-25.5464
-29.3307
-29.9346
-35.1162
-36.3425
-41.3427
-40.9107
-34.9598
-13.1168
-0.101659
-11.1491
-3.20521
-34.7154
-32.6762
-34.8763
-33.7094
-42.5549
-46.1491
-42.0133
-49.7553
-42.0786
-40.0615
-39.0665
-42.8203
-52.7301
-57.4375
-58.1507
-51.729
-38.1681
-35.9937
-36.1944
-37.3887
-43.0953
-45.6833
-42.4118
-50.6461
-78.8331
-73.1107
-77.6671
-77.458
167.441
186.881
192.963
117.621
-95.5785
-71.6535
-81.9601
-81.9637
207.747
206.159
202.987
202.913
-57.698
-57.6009
-62.097
-52.4427
-50.2048
-51.4404
-55.6021
-47.3708
-36.1869
-42.4737
-39.4129
-39.5401
-26.2227
-24.1412
-25.5274
-25.2429
-29.9556
-31.9144
-31.0116
-31.0078
-23.5067
-22.9686
-23.2446
-23.2154
-36.8423
-37.0336
-37.6757
-36.7629
-34.412
-34.4773
-34.9233
-33.8354
-27.6369
-43.1477
-38.0727
-38.0822
75.6511
75.1465
71.7575
71.6144
-54.1223
-55.0382
-50.3267
-60.3243
-51.3904
-48.1278
-50.7443
-43.7771
-29.7014
-32.4188
-31.1022
-31.1007
-23.7386
-23.581
-23.9707
-23.9877
-38.2342
-38.2014
-38.8703
-37.6695
-37.5239
-36.8429
-38.879
-35.6779
-77.5104
-73.1594
-76.6048
-76.9018
163.372
186.675
117.875
192.487
-57.5162
-57.4526
-61.8555
-52.312
-50.1799
-51.4386
-55.6027
-47.3666
-36.1182
-42.3887
-39.4598
-39.3344
-26.1848
-24.0704
-25.4773
-25.1891
-36.8243
-36.981
-37.6615
-36.5997
-34.4229
-34.4683
-34.9232
-33.8127
-54.105
-54.9766
-60.3191
-50.2841
-51.3661
-48.1128
-43.7566
-50.7211
-38.1985
-38.1658
-37.6506
-38.8178
-37.5212
-36.839
-35.6786
-38.8749
-30.822
-30.8797
-30.8554
-30.0783
-29.9717
-30.3417
-30.135
-30.5356
-43.1727
-46.1004
-44.4058
-44.8936
-30.9511
-31.6878
-30.8003
-31.923
-39.98
-43.3278
-41.2602
-41.3307
-31.8578
-31.3832
-31.4594
-31.4599
-31.7122
-31.7399
-31.0856
-32.2659
-36.4295
-35.9778
-35.846
-36.1298
-31.5605
-30.6354
-31.0103
-31.008
-33.1429
-34.8155
-33.7812
-33.7775
-37.6722
-34.7138
-35.6535
-36.1611
-72.3071
-85.4018
-72.3463
-78.7029
-15.3607
-28.5747
-22.0061
-22.1792
-7.41754
-45.6278
-25.0836
-25.0573
-72.7746
-83.3233
-77.2869
-77.2805
-47.796
-42.4707
-44.7266
-44.7252
-30.8145
-30.8715
-30.8487
-30.0604
-29.9522
-30.345
-30.1385
-30.5408
-43.1506
-46.0464
-44.8658
-44.3607
-30.9379
-31.6821
-30.7859
-31.917
-31.7176
-31.7423
-32.272
-31.0869
-36.4462
-35.9769
-35.8569
-36.1443
-37.6698
-34.7141
-36.1597
-35.6528
-72.253
-85.3879
-78.6404
-72.4344
-81.0546
-79.3085
-77.2947
-75.0163
-44.4841
-45.309
-46.2442
-44.494
-41.8189
-40.19
-45.2123
-44.3214
-82.7864
-77.3045
-77.3731
-71.0321
-79.6956
-78.2575
-76.1602
-74.5558
-82.8555
-77.2047
-77.2942
-71.086
-41.8085
-40.18
-45.1888
-44.2968
-44.3984
-45.317
-46.1497
-44.4278
-92.0311
-78.7216
-80.1946
-69.1186
-92.0564
-78.7484
-80.1984
-69.128
-40.1118
-39.453
-42.2733
-40.824
-40.1193
-39.458
-42.279
-40.8272
-36.0467
-43.8635
-41.4741
-49.0296
-28.3131
-20.4839
-31.8854
-24.31
-28.2372
-20.5625
-31.8648
-24.308
-35.9508
-43.8088
-41.465
-49.001
175.513
186.817
199.423
197.32
69.348
42.518
75.4058
59.2126
42.274
69.8634
58.988
75.3504
188.645
175.104
198.123
199.68
-29.3917
-29.3799
-30.1806
-29.9678
-28.9152
-29.3574
-29.5274
-29.9445
-34.7785
-36.4818
-33.7548
-35.0998
-34.8916
-37.2657
-33.6759
-35.7477
-29.3599
-29.3383
-30.1654
-29.9451
-34.8805
-37.2624
-33.673
-35.747
-34.7795
-36.3834
-33.7693
-35.0983
-28.9061
-29.3479
-29.5183
-29.9392
-30.5636
-31.2261
-30.8238
-31.1497
-31.2269
-30.5739
-31.1508
-30.8276
-31.4308
-30.6843
-30.9218
-30.39
-30.6695
-31.4159
-30.3811
-30.9137
-49.0384
-18.363
-53.9867
-28.5326
-61.5691
-64.6463
-72.8866
-73.0846
-64.6579
-61.5759
-73.0968
-72.8647
-18.442
-49.0435
-28.4793
-53.9854
-34.615
-35.1442
-35.3721
-35.1451
-37.088
-37.4227
-38.9371
-40.1383
-36.7044
-40.0241
-39.6971
-42.1271
-37.2941
-37.3362
-36.7031
-36.7609
-34.6647
-35.1864
-35.3896
-35.1916
-37.2941
-37.346
-36.6989
-36.7655
-36.6256
-39.949
-39.6169
-42.0705
-37.0415
-37.3942
-38.8789
-39.977
-32.7206
-32.8216
-34.6219
-33.6255
-32.697
-32.7823
-34.629
-33.6201
-31.14
-32.4898
-31.4695
-32.5946
-31.1716
-32.5212
-31.5016
-32.6973
-44.0061
-46.6191
-42.4314
-44.6815
-30.49
-32.1984
-31.3755
-32.9323
-30.4836
-32.1937
-31.3725
-32.9311
-43.996
-46.6045
-42.4238
-44.6885
-26.8977
-26.4326
-26.1914
-25.5314
-26.3903
-26.8634
-25.4828
-26.1772
-25.9605
-26.5338
-25.0527
-25.6064
-26.5473
-25.9825
-25.6317
-25.0828
-83.0235
115.11
-155.041
98.1669
-86.962
-104.24
-36.5469
-29.9381
-31.5137
-29.9122
-36.3043
-32.996
-63.7567
48.9589
-8.02811
33.4095
-73.6343
-29.7174
-36.845
-30.1691
-30.223
-29.4119
-36.3382
-32.3769
-155.15
97.2744
-84.41
113.918
-87.3441
-104.334
-31.5095
-29.8889
-36.573
-29.9079
-36.3038
-33.0029
-7.87809
31.8676
-63.4601
48.2788
-74.2321
-29.7714
-30.2214
-29.4045
-36.7996
-30.1485
-36.3082
-32.3643
-36.6538
-35.6166
-29.8179
-30.4248
-35.8854
-31.4358
-33.114
-31.9559
-39.7542
-35.8875
-27.6362
-31.7139
-30.5441
-40.5198
-32.3673
-35.9554
-36.1117
-30.9821
-35.947
-36.4717
-38.8841
-46.1799
-22.0925
-23.1904
-41.614
-46.395
-39.1653
-40.1572
-39.5295
-51.3622
-54.2378
-50.0952
-36.6089
-35.596
-33.1027
-31.9531
-29.8048
-30.4222
-35.8772
-31.4381
-39.83
-35.7517
-32.4204
-36.3753
-27.6133
-31.7405
-30.5513
-40.4894
-36.1163
-30.9853
-22.0814
-22.9768
-35.9538
-36.4661
-38.8756
-46.1047
-41.6364
-46.3909
-54.228
-50.084
-38.9665
-40.2368
-39.5518
-51.3685
-87.046
54.2105
-79.9838
74.9364
-82.6358
-80.1323
142.305
128.987
-134.168
40.5369
-134.18
39.7543
-111.667
-111.663
159.911
159.889
-69.5714
-59.4333
-44.9757
-42.6135
-61.1044
-50.8348
-54.0177
-45.9316
-35.2868
-28.3799
-35.092
-28.1688
-35.8025
-35.6076
-27.035
-26.9189
-28.43
-27.257
-28.4104
-27.2173
-29.1143
-29.1235
-25.0342
-25.0025
-40.6583
-35.4886
-33.4195
-32.0741
-36.7449
-36.6778
-33.3352
-33.664
-8.26635
20.994
-8.35329
20.8833
-17.9346
-17.9112
50.9795
50.7935
-69.2679
-63.8562
-46.3913
-42.8193
-50.1207
-60.2201
-57.6709
-45.9677
-27.4624
-24.9216
-27.4541
-24.8957
-28.4437
-28.4405
-23.8603
-23.8768
-38.7253
-35.9332
-38.6349
-40.5279
-38.6147
-38.1865
-39.3802
-36.4422
-89.7792
58.1836
-78.2994
72.7824
-79.1893
-77.847
128.006
144.103
-69.4545
-59.4294
-44.9315
-42.605
-60.9783
-50.7449
-54.0183
-45.9285
-35.2599
-28.3657
-35.0517
-28.1496
-35.5475
-35.7516
-27.0111
-26.8972
-39.4562
-34.9509
-33.3785
-32.3162
-36.8127
-36.7808
-33.3657
-33.6811
-69.2629
-63.8802
-46.2572
-42.8016
-60.2484
-50.0458
-45.9412
-57.6486
-38.6941
-35.9276
-38.6318
-40.5249
-38.1734
-38.5809
-36.4408
-39.3768
-29.5648
-29.8799
-25.8776
-29.6079
-30.3777
-29.792
-29.618
-30.1257
-36.5904
-30.4929
-33.7776
-31.7079
-41.0753
-39.6815
-30.147
-31.217
-34.9089
-33.4677
-34.906
-33.4671
-37.5191
-37.5195
-32.6407
-32.6405
-31.1667
-34.4067
-34.1839
-36.1701
-31.3568
-32.8181
-35.6484
-36.3657
-31.7858
-32.8624
-31.7507
-32.8642
-31.6512
-31.6484
-32.853
-32.8525
-43.4667
-53.0949
-42.6515
-52.9338
-40.2199
-40.7267
-61.4767
-58.695
-4.6551
7.52308
-4.45655
7.62511
-7.96132
-7.917
4.91059
4.92554
-63.5708
-54.5041
-63.5886
-54.5015
-68.4424
-68.4557
-50.6497
-50.7399
-29.5616
-29.8834
-25.83
-29.6161
-30.3707
-29.7573
-29.6208
-30.1323
-36.5964
-30.4854
-33.7666
-31.7024
-39.667
-41.0588
-30.1272
-31.2081
-31.1501
-34.5022
-34.2067
-36.1843
-32.8322
-31.3611
-35.6551
-36.373
-43.4621
-53.1119
-42.6332
-52.9183
-40.7221
-40.2173
-58.6703
-61.4532
-67.2777
-66.1872
-62.4694
-52.3336
-50.9461
-61.875
-48.5392
-48.0476
-67.553
-66.0855
-62.1843
-52.2208
-61.8579
-50.8848
-47.99
-48.4593
-63.3246
-63.3277
-56.8952
-48.4224
-56.8955
-48.4202
-45.6449
-45.6578
-46.9718
-46.9619
-47.7855
-42.4259
-42.4308
-47.7667
-35.5256
-35.5839
205.311
128.465
207.548
207.683
79.6469
79.5912