# vtk DataFile Version 2.0
tet_velo
ASCII
DATASET UNSTRUCTURED_GRID
POINTS 29498 float
-0.785 0.275 -2.10198
-0.712747 0.365 2.165
-0.775 0.77767 -2.045
-0.665 1.145 2.105
0.785 0.275 -2.10198
0.712747 0.365 2.165
0.775 0.777711 -2.045
0.665 1.145 2.105
-0.831829 0.234087 -0.679653
-0.829488 0.242343 0.742673
-0.81168 0.97346 -0.661667
-0.774575 1.09547 0.721667
0.831796 0.23412 -0.679653
0.829571 0.24226 0.742673
0.811663 0.97347 -0.661667
0.774577 1.09548 0.721667
-1.58894 -0.150219 -3.23056
-1.59452 -0.0931903 -2.10832
-1.62121 -0.121777 -0.684985
-1.60384 -0.134821 0.746198
-1.52523 -0.0540876 2.17019
-1.50371 0.0201182 3.29567
-1.51123 0.0871556 4.41516
-1.58828 0.173473 -3.21609
-1.59269 0.256455 -2.09811
-1.6264 0.255133 -0.68236
-1.59439 0.260882 0.736898
-1.48159 0.346265 2.15339
-1.47453 0.419419 3.27832
-1.49564 0.484513 4.39908
-1.58391 0.766055 -3.1762
-1.5831 0.845055 -2.05661
-1.6077 0.987592 -0.667442
-1.55409 1.08313 0.718961
-1.44297 1.14414 2.10887
-1.45341 1.21253 3.23542
-1.48558 1.27707 4.36247
-1.58321 1.7902 -3.14569
-1.58358 1.89212 -2.03193
-1.58657 2.06873 -0.655411
-1.57015 2.22936 0.712707
-1.53777 2.33368 2.08964
-1.52358 2.39677 3.20425
-1.52459 2.45587 4.32704
-0.791487 -0.13985 -3.23308
-0.786706 -0.0782596 -2.11199
-0.815338 -0.130811 -0.684492
-0.82373 -0.14895 0.751127
-0.770504 -0.0479528 2.17881
-0.754593 0.0250736 3.30152
-0.760255 0.0893942 4.41855
-0.793791 0.175458 -3.21687
-0.73281 0.42634 3.28315
-0.749714 0.487593 4.40164
-0.791112 0.739102 -3.17138
-0.717049 1.2158 3.23464
-0.74374 1.27984 4.3623
-0.789293 1.7696 -3.14092
-0.788346 1.87153 -2.02668
-0.796798 2.06188 -0.652245
-0.797809 2.23463 0.712327
-0.783429 2.33965 2.08692
-0.773372 2.40097 3.20154
-0.772596 2.45896 4.32507
0.795637 -0.139841 -3.23308
0.807994 -0.0782523 -2.11199
0.827878 -0.130799 -0.684492
0.80187 -0.149 0.751127
0.724585 -0.0479727 2.17881
0.724558 0.0250596 3.30152
0.731981 0.0893806 4.41855
0.784687 0.175469 -3.21687
0.715328 0.42633 3.28315
0.72744 0.487581 4.40164
0.779791 0.739125 -3.17138
0.699516 1.21579 3.23464
0.720886 1.27983 4.3623
0.794588 1.76962 -3.14092
0.797507 1.87155 -2.02668
0.786172 2.06189 -0.652245
0.752077 2.23464 0.712327
0.720626 2.33965 2.08692
0.718269 2.40096 3.20154
0.724834 2.45895 4.32507
1.59295 -0.1502 -3.23056
1.60638 -0.0931723 -2.10832
1.63054 -0.121765 -0.684985
1.59923 -0.134882 0.746198
1.50881 -0.0541351 2.17019
1.48575 0.0200859 3.29568
1.48935 0.0871272 4.41516
1.5821 0.173495 -3.21609
1.59167 0.256474 -2.09811
1.62911 0.255158 -0.68236
1.60333 0.260816 0.736898
1.49192 0.346223 2.15339
1.46959 0.419392 3.27832
1.47991 0.484487 4.39908
1.57496 0.766091 -3.1762
1.58039 0.845094 -2.05661
1.60839 0.987617 -0.667442
1.56153 1.08312 0.71896
1.45298 1.14412 2.10887
1.44809 1.21251 3.23542
1.46902 1.27705 4.36246
1.58642 1.79023 -3.14569
1.58885 1.89214 -2.03193
1.57703 2.06875 -0.655412
1.53513 2.22936 0.712707
1.48919 2.33367 2.08964
1.47763 2.39676 3.20425
1.48201 2.45586 4.32704
-0.820482 0.526335 -2.11397
0 0.282542 -2.09444
-0.829182 0.233776 -1.39082
-0.717545 0.755 2.16367
0 0.378719 2.15128
-0.814302 0.260487 1.45384
0 0.868609 -2.13592
-0.82618 0.908405 -1.35333
0 1.18025 2.14025
-0.749789 1.15023 1.41333
0.820526 0.526355 -2.11402
0.829317 0.233641 -1.39082
0.717632 0.755 2.16376
0.814332 0.260458 1.45384
0.826177 0.908436 -1.35333
0.749776 1.15023 1.41333
-0.826163 0.24271 0.03151
-0.859052 0.603774 -0.67066
-1.62634e-05 0.213056 -0.679653
-0.8716 0.668904 0.73217
4.13671e-05 0.226881 0.742673
-0.785713 1.02705 0.03
-8.48469e-06 1.2519 -0.661667
1.06157e-06 1.477 0.721667
0.826093 0.24278 0.03151
0.859053 0.603795 -0.67066
0.87161 0.66887 0.73217
0.78571 1.02707 0.03
-0.88525 0.565054 -1.37208
-0.85789 0.636339 0.030755
-0.888396 0.711952 1.43359
-8.13171e-06 0.221758 -1.39082
1.25519e-05 0.219868 0.03151
2.06836e-05 0.23775 1.45384
0 0.526345 -2.30787
0 0.755 2.22095
-4.24234e-06 1.00502 -1.35333
-3.71156e-06 1.46901 0.03
5.30787e-07 1.46065 1.41333
0.885249 0.565075 -1.37208
0.857894 0.636333 0.030755
0.888482 0.711935 1.43359
-1.18885 0.265727 -2.10004
-0.785853 0.0983702 -2.10698
-0.789395 0.225229 -2.65942
-1.09717 0.355632 2.1592
-0.741626 0.158524 2.17191
-0.722778 0.39567 2.72407
-1.17905 0.811362 -2.0508
-0.783056 0.758386 -2.60819
-0.781673 1.3246 -2.03584
-1.05398 1.14457 2.10694
-0.691025 1.1804 2.66982
-0.724215 1.74233 2.09596
0.796497 0.0983739 -2.10698
0.784843 0.225235 -2.65942
1.18834 0.265737 -2.10004
0.718666 0.158514 2.17191
0.714038 0.395665 2.72407
1.10233 0.355611 2.1592
0.777395 0.758418 -2.60819
0.786254 1.32463 -2.03584
1.1777 0.811403 -2.0508
0.682258 1.1804 2.66982
0.692813 1.74233 2.09596
1.05899 1.14456 2.10694
-1.22911 0.24461 -0.681007
-0.823583 0.0516378 -0.682073
-1.21194 0.251612 0.739786
-0.826609 0.0466965 0.7469
-1.20969 0.980526 -0.664555
-0.804239 1.51767 -0.656956
-1.16433 1.0893 0.720314
-0.786192 1.66505 0.716997
0.829837 0.0516604 -0.682073
1.23045 0.244639 -0.681007
0.81572 0.0466299 0.7469
1.21645 0.251538 0.739786
0.798918 1.51768 -0.656956
1.21002 0.980544 -0.664555
0.763327 1.66506 0.716997
1.16805 1.0893 0.720314
-1.59173 -0.121704 -2.66944
-1.58861 0.0116269 -3.22333
-1.19021 -0.145034 -3.23182
-1.60787 -0.107484 -1.39665
-1.59361 0.0816322 -2.10321
-1.19061 -0.0857249 -2.11015
-1.61253 -0.128299 0.0306067
-1.6238 0.0666778 -0.683672
-1.21828 -0.126294 -0.684738
-1.56454 -0.0944541 1.4582
-1.59912 0.0630304 0.741548
-1.21379 -0.141885 0.748663
-1.51447 -0.0169847 2.73293
-1.50341 0.146089 2.16179
-1.14787 -0.0510202 2.1745
-1.50747 0.0536369 3.85542
-1.48912 0.219769 3.287
-1.12915 0.0225959 3.2986
-1.50344 0.285834 4.40712
-1.13574 0.0882749 4.41686
-1.59049 0.214964 -2.6571
-1.5861 0.469764 -3.19615
-1.19104 0.174465 -3.21648
-1.60955 0.255794 -1.39023
-1.5879 0.550755 -2.07736
-1.61039 0.258007 0.0272691
-1.61705 0.621362 -0.674901
-1.53799 0.303573 1.44515
-1.57424 0.672006 0.727929
-1.47806 0.382842 2.71586
-1.46228 0.745204 2.13113
-1.48509 0.451966 3.8387
-1.46397 0.815974 3.25687
-1.10367 0.422879 3.28073
-1.49061 0.880793 4.38077
-1.12268 0.486053 4.40036
-1.58351 0.805555 -2.61641
-1.58356 1.27813 -3.16095
-1.18751 0.752578 -3.17379
-1.5954 0.916323 -1.36202
-1.58334 1.36859 -2.04427
-1.5809 1.03536 0.0257591
-1.59714 1.52816 -0.661427
-1.49853 1.11364 1.41392
-1.56212 1.65624 0.715834
-1.44819 1.17834 2.67214
-1.49037 1.73891 2.09925
-1.46949 1.2448 3.79894
-1.48849 1.80465 3.21983
-1.08523 1.21416 3.23503
-1.50508 1.86647 4.34475
-1.11466 1.27845 4.36238
-1.58339 1.84116 -2.58881
-1.18625 1.7799 -3.14331
-1.58507 1.98042 -1.34367
-1.18596 1.88182 -2.02931
-1.57836 2.14904 0.0286477
-1.19168 2.06531 -0.653828
-1.55396 2.28152 1.40117
-1.18398 2.232 0.712517
-1.53068 2.36523 2.64694
-1.1606 2.33667 2.08828
-1.52409 2.42632 3.76564
-1.14848 2.39887 3.20289
-1.14859 2.45742 4.32605
-0.789097 -0.109055 -2.67253
-0.792639 0.0178041 -3.22497
0.00207478 -0.139846 -3.23308
-0.801022 -0.104536 -1.39824
0.0106437 -0.0782559 -2.11199
-0.819534 -0.139881 0.0333176
0.00627004 -0.130805 -0.684492
-0.797117 -0.0984513 1.46497
-0.0109304 -0.148975 0.751127
-0.762549 -0.0114396 2.74017
-0.0229598 -0.0479627 2.17881
-0.757424 0.0572339 3.86003
-0.743702 0.225707 3.29233
-0.0150178 0.0250666 3.30152
-0.754984 0.288493 4.41009
-0.0141369 0.0893874 4.41855
-0.792451 0.45728 -3.19412
-0.00455197 0.175464 -3.21687
-0.741262 0.456966 3.84239
-0.72493 0.821068 3.25889
-0.00874087 0.426335 3.28315
-0.746727 0.883714 4.38197
-0.0111372 0.487587 4.40164
-0.790203 1.25435 -3.15615
-0.00566059 0.739113 -3.17138
-0.730394 1.24782 3.79847
-0.745211 1.80838 3.21809
-0.0087666 1.21579 3.23464
-0.758168 1.8694 4.34368
-0.0114267 1.27983 4.3623
-0.78882 1.82057 -2.5838
0.00264743 1.76961 -3.14092
-0.792572 1.96671 -1.33946
0.00458049 1.87154 -2.02668
-0.797303 2.14826 0.0300409
-0.0053129 2.06189 -0.652245
-0.790619 2.28714 1.39963
-0.0228658 2.23464 0.712327
-0.778401 2.37031 2.64423
-0.0314016 2.33965 2.08692
-0.772984 2.42996 3.7633
-0.0275518 2.40096 3.20154
-0.023881 2.45896 4.32507
0.801815 -0.109047 -2.67253
0.790162 0.0178139 -3.22497
1.19429 -0.145021 -3.23182
0.817936 -0.104526 -1.39824
1.20719 -0.0857123 -2.11015
0.814874 -0.1399 0.0333175
1.22921 -0.126282 -0.684738
0.763227 -0.0984865 1.46497
1.20055 -0.141941 0.748663
0.724571 -0.0114565 2.74017
1.1167 -0.0510539 2.1745
0.728269 0.0572201 3.86004
0.719943 0.225695 3.29233
1.10515 0.0225727 3.2986
0.72971 0.288481 4.41009
1.11067 0.0882539 4.41686
0.782239 0.457297 -3.19412
1.18339 0.174482 -3.21648
0.721384 0.456955 3.84239
0.707422 0.82106 3.25889
1.09246 0.422861 3.28073
0.724163 0.883703 4.38197
1.10367 0.486034 4.40036
0.787189 1.25437 -3.15615
1.17738 0.752608 -3.17379
0.710201 1.24781 3.79847
0.708892 1.80838 3.21809
1.0738 1.21415 3.23503
0.72286 1.86939 4.34368
1.09495 1.27844 4.36238
0.796048 1.82058 -2.5838
1.1905 1.77992 -3.14331
0.79184 1.96672 -1.33946
1.19318 1.88185 -2.02931
0.769125 2.14827 0.0300408
1.1816 2.06532 -0.653829
0.736352 2.28715 1.39963
1.14361 2.232 0.712517
0.719447 2.37031 2.64423
1.10491 2.33666 2.08828
0.721551 2.42996 3.7633
1.09795 2.39886 3.20289
1.10342 2.4574 4.32605
1.59967 -0.121686 -2.66944
1.58752 0.0116474 -3.22333
1.61846 -0.107469 -1.39665
1.59903 0.0816506 -2.10321
1.61489 -0.128324 0.0306066
1.62983 0.0666966 -0.683672
1.55402 -0.0945086 1.4582
1.60128 0.0629672 0.741548
1.49728 -0.0170246 2.73293
1.50036 0.146044 2.16179
1.48755 0.0536065 3.85542
1.47767 0.219739 3.287
1.48463 0.285807 4.40712
1.58689 0.214984 -2.6571
1.57853 0.469793 -3.19615
1.61039 0.255816 -1.39023
1.58603 0.550784 -2.07736
1.61622 0.257987 0.027269
1.61875 0.621388 -0.674901
1.54762 0.30352 1.44515
1.58243 0.671971 0.727929
1.48075 0.382807 2.71586
1.47245 0.745171 2.13113
1.47475 0.45194 3.8387
1.45884 0.815951 3.25687
1.47446 0.88077 4.38077
1.57768 0.805593 -2.61641
1.58069 1.27816 -3.16095
1.59439 0.916356 -1.36202
1.58462 1.36862 -2.04427
1.58496 1.03537 0.025759
1.59271 1.52818 -0.661427
1.50725 1.11362 1.41392
[...]
POINT_DATA 29498
VECTORS point_vectors float
-4.01547 -5.77982 10.9314
0.207214 0.263828 1.08321
-0.915131 0.5397 2.05617
-0.0202098 -0.144133 0.250053
4.01508 -5.78916 10.9104
-0.235781 0.222757 1.03122
0.918718 0.545562 2.06744
0.0560116 -0.135957 0.170919
0.131114 -0.10487 2.4091
0.0470147 -0.0417908 0.716627
-0.028746 -0.0294116 0.183493
4.35806e-05 0.000135022 0.000488116
-0.133753 -0.107799 2.40166
-0.0487229 -0.042456 0.594877
0.0293802 -0.029945 0.184278
-6.15867e-05 0.000191269 0.000683976
-0.57773 -0.292084 19.8911
-1.15824 -0.6596 20.5607
-0.424865 -0.407641 21.3762
0.0843953 -0.151183 21.6126
0.756807 0.179542 21.5372
1.00673 0.235435 21.3711
1.00608 0.00169881 20.8281
-0.669605 -0.219422 19.8005
-1.574 -0.555397 20.5317
-0.543933 -0.48198 21.4372
0.0787065 -0.298509 21.6917
1.0247 -0.0929745 21.6358
1.342 -0.104937 21.2435
1.246 -0.148525 21.2156
-0.762242 0.0331053 19.7174
-1.78557 0.0877459 20.4181
-1.1934 -0.352906 21.377
-0.379468 -0.443944 21.7596
0.510154 -0.734374 21.7043
0.77446 -0.830112 21.4302
0.683343 -0.480099 21.2235
-0.499027 0.303905 19.9353
-0.869144 0.53881 20.3365
-0.887572 0.426837 21.0859
-0.38158 0.0191703 21.5023
0.0225701 -0.265251 21.4114
0.168641 -0.397628 21.1513
0.198194 -0.410685 20.5794
-0.597844 -0.621291 19.3447
-1.90161 -3.07265 20.6696
-0.453726 -0.416796 21.7417
0.0698342 0.0770586 21.5642
0.85958 1.31739 20.1161
1.42023 1.54584 18.4279
1.46445 1.08784 18.1102
-0.724356 -0.502195 19.037
2.07085 1.07613 12.0178
2.38784 1.04489 15.2546
-0.925224 0.145398 18.7025
0.617038 -1.10377 8.83831
1.23835 -1.44364 15.2483
-0.459173 0.63265 19.5881
-0.944934 1.43844 20.0434
-1.16865 1.5172 21.0852
-0.472525 0.379675 21.8052
-0.123925 -0.27122 21.5828
0.00106639 -0.449107 20.992
0.0660929 -0.479859 21.0437
0.593414 -0.616842 19.3453
1.92537 -2.96914 20.654
0.436561 -0.41333 21.7365
-0.0867959 0.0683693 21.471
-0.86653 1.27953 19.9315
-1.40322 1.46259 18.3333
-1.46637 1.10656 17.6615
0.720744 -0.50656 19.0255
-2.04284 0.853425 11.1558
-2.40911 1.13537 14.6196
0.922978 0.143727 18.6797
-0.216257 -0.809999 6.3426
-1.09862 -1.3098 13.3125
0.457684 0.632622 19.5925
0.941704 1.42837 20.0455
1.15042 1.54056 21.0771
0.439789 0.423767 21.8088
0.087873 -0.207598 21.5612
-0.0350275 -0.39227 20.9078
-0.0838104 -0.412641 21.0722
0.578385 -0.291179 19.8982
1.17469 -0.64677 20.5682
0.415814 -0.412428 21.361
-0.0890819 -0.161151 21.5931
-0.744088 0.158925 21.5292
-1.01074 0.201753 21.3536
-1.01658 0.0209116 20.9227
0.676268 -0.223339 19.7951
1.57539 -0.554971 20.5345
0.539296 -0.481782 21.4261
-0.0724571 -0.308615 21.6711
-0.95255 -0.148808 21.6049
-1.28307 -0.175315 21.2828
-1.27688 -0.151663 21.2773
0.758679 0.0356281 19.7147
1.78759 0.0832125 20.421
1.18347 -0.352921 21.3781
0.38006 -0.434768 21.7403
-0.4135 -0.705075 21.6401
-0.666068 -0.78407 21.5054
-0.687275 -0.524465 21.1397
0.498276 0.306013 19.9451
0.859403 0.532256 20.344
0.886177 0.432577 21.0809
0.38042 0.0211867 21.4909
-0.0063495 -0.240805 21.402
-0.149873 -0.362745 21.1006
-0.135093 -0.368628 20.7733
-1.41639 -0.080154 2.06711
-2.06726e-05 -0.0244334 0.101154
-0.0244468 -0.0290435 1.19797
0.00619195 -0.0495984 0.0804093
-0.0044006 0.0138084 0.0512449
0.0516508 0.00591678 1.02513
-0.000658048 0.883793 2.17811
-0.44287 -0.206549 1.41021
-0.0091508 0.00769028 -0.0092887
0 0 0
1.4225 -0.0805323 2.07626
0.02382 -0.0299666 1.20467
0.00238517 -0.0739332 0.0731569
-0.0639359 -0.00359516 1.01325
0.443554 -0.206455 1.41343
0 0 0
0.0779986 -0.0307699 1.47343
9.30433e-06 1.8757e-06 0.00135284
-5.05352e-05 0.000282058 0.0326605
0 0 0
0 0 0
0 0 0
-0.000127275 0.0482258 0.0889228
0 0 0
-0.0814827 -0.0342038 1.46338
-8.74012e-06 -4.87603e-07 0.00128719
0 0 0
0 0 0
0.00102037 -0.016273 0.180795
0 0 0
0.00883183 0.00912301 0.125184
-1.56103e-05 -0.000938177 0.0180686
-2.02019e-07 1.11496e-07 7.96355e-05
-5.82975e-06 0.000102646 0.00102801
-0.000455076 -0.00313468 0.0976481
0 0 0
-2.68401e-05 0.00577694 0.0354934
-6.99914e-05 0.00206871 0.0439338
-1.30559e-05 -2.47343e-05 0.000490865
-0.00102329 -0.0163261 0.18075
-1.3622e-18 1.71215e-17 1.11355e-16
-0.00867909 0.00795815 0.126582
-3.00336 -1.3704 20.5143
-3.12921 -4.75668 20.84
-2.09674 -1.65076 17.9043
1.72651 0.278572 18.9759
1.05424 1.4296 13.323
1.44702 0.873555 7.79615
-3.56674 0.515199 20.3424
-2.7545 0.954526 17.0668
-2.2024 2.55435 19.7774
0.694925 -0.657064 17.6359
-0.400822 -0.874393 4.23624
-0.188363 -0.666225 20.7247
3.12218 -4.61386 20.8175
2.09473 -1.66321 17.8902
3.0035 -1.37558 20.5114
-1.10181 1.31761 12.8011
-1.46606 0.48122 7.22297
-1.66312 0.135081 18.9685
2.75631 0.970362 17.0344
2.19488 2.53692 19.776
3.56732 0.521076 20.3369
0.920986 -0.90632 1.92835
0.158798 -0.476528 20.3807
-0.527669 -0.630411 17.5553
-0.386053 -0.713278 21.7142
-0.0860177 -0.11299 18.4749
0.234229 -0.330979 21.1236
0.492085 0.0448887 17.4067
-2.08064 -1.05896 21.6573
-3.27982 2.26255 20.9527
-0.615084 -0.716213 20.5633
-0.970458 0.322432 21.952
0.0752106 -0.116852 18.5228
0.384983 -0.716655 21.7149
-0.526705 0.0214324 17.2491
-0.230492 -0.352969 21.1562
3.27662 2.30038 20.9355
2.07347 -1.0574 21.64
0.948355 0.374798 21.9204
0.622034 -0.714459 20.6038
-0.945662 -0.510788 20.0666
-0.641514 -0.266786 19.8617
-0.649805 -0.445997 19.6176
-0.862178 -0.56799 21.1616
-1.32966 -0.643041 20.5539
-1.65911 -1.38699 20.5586
-0.155014 -0.278916 21.5159
-0.491371 -0.429972 21.3996
-0.36512 -0.445452 21.5802
0.406409 0.0082548 21.647
0.0746535 -0.208555 21.6168
0.159391 -0.0751867 21.7613
0.94941 0.259033 21.403
0.907342 0.0724828 21.6113
1.06248 0.610427 21.5409
1.11744 0.189668 20.7417
1.19495 0.199909 21.145
1.39089 0.788941 21.267
1.17414 -0.109858 21.0065
1.18907 0.495343 21.4667
-1.19141 -0.397893 19.9447
-0.755469 -0.0962813 19.7323
-0.782666 -0.3874 19.4741
-1.09148 -0.558283 21.2311
-1.74332 -0.28191 20.4893
-0.214855 -0.404311 21.5605
-0.82538 -0.531107 21.4202
0.487183 -0.203684 21.8001
-0.0989229 -0.443208 21.7683
1.22554 -0.0627607 21.4423
0.929069 -0.502486 21.652
1.39363 -0.0247522 21.0247
1.20171 -0.455344 21.4988
2.09865 0.250177 19.3765
1.00774 -0.509206 21.1462
1.85635 0.242793 18.8103
-1.37811 0.0990554 19.8371
-0.663396 0.242754 19.7915
-0.928011 0.0840414 19.2801
-1.50548 -0.13667 21.05
-1.34152 0.495172 20.3259
-0.800219 -0.447031 21.6647
-1.25629 0.194501 21.217
0.0616626 -0.52936 21.8444
-0.527667 -0.135886 21.6671
0.683245 -0.81577 21.5192
0.0974671 -0.478144 21.5304
0.711262 -0.640719 21.5352
0.292949 -0.645312 21.1176
1.0012 -0.977135 18.4339
0.380632 -0.597696 20.9741
1.31139 -1.03968 18.425
-0.720559 0.445304 20.0841
-0.520491 0.48143 19.7645
-0.918664 0.513753 20.709
-0.991815 0.902917 20.2169
-0.667072 0.250966 21.3923
-1.12102 0.83401 21.1272
-0.150277 -0.157544 21.4954
-0.475273 0.179145 21.665
0.0749272 -0.311514 21.3515
-0.0626311 -0.286728 21.4963
0.192944 -0.439552 20.8773
0.073376 -0.437784 21.2848
0.127715 -0.482882 20.9028
-1.23554 -1.62815 19.1441
-0.654746 -0.563794 19.1994
-0.00238304 -0.878746 18.9697
-1.00236 -1.22906 22.0221
0.0174483 -4.47239 21.0374
-0.165451 -0.137244 21.5935
-0.000666821 -0.804769 21.6894
0.482507 0.624241 21.0201
-0.0156583 -0.13945 20.2851
1.11632 1.50784 20.0371
-0.0365141 1.09012 17.5511
1.20779 1.38985 19.1558
1.94524 1.87375 16.2172
-0.039981 1.76258 17.3282
1.98096 1.2751 16.1613
0.0323576 2.05265 16.9624
-0.89904 -0.206733 18.7839
-0.00377154 -0.740174 18.5435
2.27329 1.08763 13.6386
1.79856 -0.652332 6.72331
-0.0366238 1.07146 3.90717
2.17821 -0.119517 14.7358
0.0625213 2.09264 9.85024
-0.722502 0.637363 19.1235
-0.0086027 0.234242 17.9539
0.904121 -1.30069 10.6352
-0.000296186 -0.945751 21.7965
0.341701 0.705208 -4.87593
0.0457225 -0.886853 18.5498
0.398908 0.846467 2.61936
-0.707171 1.0959 19.6722
0.00041766 0.84947 19.3634
-1.08972 1.49585 20.4989
0.00612077 2.06559 19.839
-0.879976 1.00527 21.7349
-0.0143973 2.51027 21.0082
-0.237831 -0.0252431 21.7257
-0.0364782 0.682724 21.9811
-0.056016 -0.40504 21.4495
-0.0433049 -0.166319 21.5288
0.0342807 -0.556812 20.7496
-0.0234482 -0.410192 21.2632
-0.0435215 -0.461407 20.9351
1.23404 -1.60581 19.1586
0.65065 -0.563826 19.1937
0.645318 -0.449121 19.6159
0.998053 -1.20795 21.9976
1.64104 -1.34663 20.5549
0.15101 -0.141542 21.5764
0.361315 -0.450559 21.5671
-0.499171 0.611442 20.7742
-0.167815 -0.0858104 21.7507
-1.10255 1.4266 19.531
-1.07256 0.621343 21.4208
-1.23923 1.39659 19.0469
-1.93474 1.69843 15.8026
-1.4211 0.789762 21.3212
-1.99286 1.33381 15.6245
-1.2517 0.44633 21.5512
0.898794 -0.207106 18.7632
0.785771 -0.387878 19.4626
-2.29546 1.06621 12.9079
-1.47465 -0.721672 4.99992
-2.02417 0.160642 19.1313
-2.08094 -0.0582886 13.7458
-1.89982 0.297308 18.4658
0.718194 0.63806 19.1123
0.925563 0.0849305 19.2687
-0.430129 -1.30454 8.20711
-0.0075857 -0.734529 21.7551
-0.792712 -0.935729 17.7369
-0.044192 -0.75304 18.0536
-1.22187 -1.12594 17.8336
0.707086 1.09232 19.6752
0.520174 0.476051 19.7636
1.082 1.4983 20.4959
0.987355 0.898186 20.2168
0.853315 1.04463 21.7397
1.11643 0.852541 21.12
0.205583 0.0147154 21.71
0.468399 0.209264 21.6576
0.0203184 -0.318757 21.4506
0.0567114 -0.239932 21.4695
-0.0859778 -0.422216 20.8326
-0.0864329 -0.400536 21.2565
-0.169807 -0.439862 20.9538
0.942034 -0.511574 20.0618
0.648195 -0.263211 19.8656
0.852916 -0.558891 21.1472
1.3326 -0.620926 20.5458
0.146605 -0.284811 21.5059
0.491636 -0.429325 21.3852
-0.411114 -0.00656512 21.6391
-0.074285 -0.221571 21.5972
-0.938891 0.223517 21.3992
-0.876139 0.0270441 21.592
-1.19798 0.195902 20.699
-1.15935 0.144831 21.1599
-1.19594 -0.0848607 21.1361
1.1798 -0.391954 19.934
0.752047 -0.0944704 19.7291
1.09236 -0.561934 21.2294
1.75912 -0.286527 20.5061
0.218064 -0.407408 21.5453
0.821271 -0.530441 21.4164
-0.464294 -0.230557 21.7614
0.106191 -0.446967 21.7442
-1.15008 -0.130804 21.4463
-0.830057 -0.53582 21.6137
-1.38617 -0.0619315 21.0838
-1.11769 -0.480714 21.5625
-1.03222 -0.528452 21.0798
1.36773 0.0964212 19.8425
0.664342 0.244138 19.7974
1.49988 -0.138418 21.0571
1.33357 0.494658 20.3249
0.796278 -0.445246 21.65
1.25738 0.193704 21.2162
-0.0352118 -0.517097 21.7895
0.532486 -0.12938 21.6613
-0.542982 -0.785023 21.5038
-0.0545023 -0.442894 21.5059
-0.646624 -0.615733 21.6123
-0.239451 -0.59212 21.1351
-0.265912 -0.588989 21.1304
0.716694 0.443281 20.0733
0.914871 0.513371 20.7081
0.668947 0.255608 21.3867
0.144759 -0.142413 21.4816
-0.0648419 -0.286983 21.3463
-0.106824 -0.398626 21.1086
-1.04942 -0.480023 20.0064
-1.58387 -1.71848 18.6586
-1.24497 -0.958873 19.6867
-1.68059 -0.768643 19.338
-0.715167 -0.419946 19.5478
-2.28217 -1.53125 20.5596
-0.957468 -0.583756 21.1686
-0.933468 -0.819807 20.1613
-0.939583 -0.871329 21.4986
-1.27562 -0.963045 21.8422
-0.35241 -0.542001 21.6631
-0.187984 -0.330005 21.533
0.30663 -0.0109122 17.4376
-0.0705046 -0.251472 21.6467
0.000988146 -0.507673 21.3217
0.237078 -0.17851 21.6925
0.441972 -0.0799579 21.7076
0.858079 0.546442 15.5368
0.553207 0.240897 21.8861
0.822588 -0.0624828 20.4159
1.49057 0.570732 20.6907
1.11669 0.142272 21.4289
1.4807 1.57329 14.9589
1.23992 0.761338 21.2104
1.96194 0.26799 19.4354
1.59793 0.73092 19.9402
1.32444 -0.0088382 20.7755
1.80363 1.29938 14.8003
1.46906 0.689455 21.064
2.1931 0.150619 19.691
1.44806 0.469887 19.7285
-1.34286 -0.17392 19.8496
-2.73209 -0.574966 17.0154
-2.07565 0.301035 19.0622
-0.908397 -0.15644 19.3076
-3.701 -0.536872 20.4578
-1.32397 -0.432564 21.2081
-2.38171 -0.431033 21.4684
-0.787669 -1.12988 21.4536
-0.455255 -0.515555 21.6214
-1.3079 -1.09826 21.3812
0.0879493 -0.559155 20.2401
0.358389 -0.425504 21.8851
0.103318 -0.52342 19.4562
1.42728 -0.294896 17.0985
1.12115 -0.558211 21.457
0.288313 -0.890127 3.27565
0.736162 -0.929612 18.4596
1.73681 -0.564712 17.6893
1.0816 -0.527003 21.3347
2.10009 0.310137 9.9665
0.913773 -1.02386 18.6476
1.84561 -1.01166 18.4492
-1.04401 0.408623 19.945
-1.45206 1.57362 18.877
-0.772499 0.736327 19.8991
-0.74795 0.403579 19.4959
-1.89567 1.13365 20.1312
-1.34438 0.365814 20.8179
-2.37365 1.94523 20.4517
-1.12153 0.9267 20.6454
-2.09901 0.574438 21.2936
-0.948858 0.0230873 21.5607
-2.29977 1.1975 22.571
-0.836896 0.536023 21.5329
-0.775535 -0.0126686 21.9484
-0.168039 -0.302456 21.6689
-0.34624 -0.225345 21.221
-0.218293 -0.108106 21.6121
-0.0119138 -0.614804 21.6893
0.236925 -0.54616 21.4065
-0.122297 -0.794699 20.9973
0.0263766 -0.385688 21.2628
0.172395 -0.844538 21.1418
0.510312 -0.677235 20.844
0.0966887 -0.866936 19.2085
0.0759197 -0.466562 21.2387
0.0911615 -0.464908 21.632
1.58654 -1.70591 18.6698
0.00724535 -2.52767 18.501
-0.00719789 -3.01194 16.0635
-0.000339861 -0.900554 18.7414
0.00875781 -6.40239 22.1444
0.932852 -0.82218 20.3307
0.00653194 -1.89037 22.3146
-0.00596208 -0.298437 13.9771
-0.326231 -0.0181134 17.3967
-0.00934134 -0.383004 20.7693
-0.0175228 -0.0361795 12.2818
-0.901544 0.514086 15.0525
-0.0168502 0.479447 18.8462
-0.0728635 0.81751 8.06742
-1.49351 1.40162 14.4513
-0.0542547 1.28464 17.264
-0.239205 -0.0583987 2.40767
-0.146311 2.03631 10.775
-1.76627 1.23699 14.5425
-0.00176836 2.17907 16.602
0.0211204 1.86042 5.15098
0.0500747 2.08849 14.3571
2.73765 -0.578996 16.978
-0.0143079 2.05022 14.2115
-0.00910455 -0.309211 17.9748
-0.106598 -1.34861 2.41189
0.0744604 0.546109 -3.94555
0.506539 1.49161 -1.35629
-1.79524 0.153837 7.85057
0.277748 0.30161 -1.54387
0.551562 2.61793 -1.15627
1.44609 1.57179 18.8717
0.00190852 1.5391 19.3979
-0.00409903 0.907621 18.642
0.0029051 3.99017 19.4137
2.3639 1.94755 20.4453
-0.00462517 2.20509 20.2605
-0.0209023 5.51868 19.9847
2.30186 1.25828 22.5779
-0.0279394 1.69749 21.9745
-0.0369871 0.966186 21.2104
0.316919 -0.16453 21.1581
-0.0400717 0.126832 21.8301
-0.168149 -0.121462 17.8957
0.126537 -0.524541 20.5058
-0.064483 -0.27128 21.4917
-0.2304 -0.58527 19.5798
-0.117566 -0.704869 18.689
-0.0260468 -0.581308 20.656
-0.123646 -0.681307 19.4388
1.05047 -0.472532 20.022
1.23821 -0.937639 19.7007
1.6852 -0.771542 19.3252
0.714509 -0.423768 19.5425
2.26102 -1.50116 20.5544
0.947108 -0.563563 21.1711
0.934074 -0.860425 21.4804
1.27463 -0.963059 21.8355
0.353268 -0.549407 21.6501
0.185799 -0.332272 21.5256
0.0629937 -0.260276 21.6371
0.00100634 -0.518617 21.3383
-0.244528 -0.195518 21.6681
-0.434772 -0.103642 21.6865
-0.579403 0.227259 21.8379
-0.814521 -0.121031 20.4674
-1.48109 0.500015 20.4871
-1.08059 0.083695 21.4318
-1.25766 0.730293 21.1861
-1.85454 0.110288 19.2403
-1.60677 0.679367 19.7009
-1.36769 -0.0237007 20.7812
-1.47742 0.658474 21.1896
-2.22832 0.106911 19.4711
-1.48828 0.496306 19.4832
1.35361 -0.176935 19.8536
2.08786 0.306299 19.0469
0.910433 -0.156038 19.2954
3.70727 -0.54046 20.4586
1.32431 -0.430395 21.2001
2.37575 -0.430785 21.4626
0.787372 -1.13041 21.4593
0.455114 -0.5168 21.6101
1.29942 -1.08616 21.3589
-0.0797739 -0.581158 20.2962
-0.322235 -0.435982 21.8455
-0.0610508 -0.530247 19.4824
-1.28056 -0.402438 17.0263
-0.997881 -0.592517 21.4524
-0.466858 -0.855278 17.9919
-1.57376 -0.682748 17.0827
-1.05394 -0.510378 21.3572
-0.760521 -1.02879 17.7448
-1.78776 -1.09305 18.0324
1.04346 0.408709 19.9406
0.768551 0.730239 19.9089
0.740337 0.404427 19.4861
1.88387 1.12643 20.1257
1.34033 0.365724 20.8215
1.11473 0.929646 20.6399
2.10277 0.584117 21.2818
0.954994 0.0266904 21.5546
0.835318 0.572842 21.5307
0.782209 0.0137033 21.934
0.183363 -0.282251 21.6426
0.212318 -0.0768445 21.6067
0.0680456 -0.523592 21.6442
-0.180008 -0.517203 21.4126
-0.0157858 -0.326867 21.2193
-0.118187 -0.743295 21.2058
-0.46599 -0.677401 20.6718
-0.0833775 -0.448189 21.2998
-0.0833481 -0.486754 21.4801
-1.43971 -0.916233 19.5296
-1.09396 -0.925432 21.6508
-0.0108141 -0.34752 21.6515
0.766784 0.144478 21.4581
1.7273 0.651796 20.6185
1.88329 0.412408 20.2271
-2.03203 -0.299769 19.0759
-1.76639 -0.89785 22.0021
-0.214713 -0.91546 20.6934
0.640858 -0.241607 19.3304
1.62008 -0.54065 18.2762
1.78443 -0.51275 18.4939
-1.33603 0.816601 19.5366
-1.98645 0.824404 20.7674
-1.50211 0.281607 21.9024
-0.295161 -0.32949 21.9043
0.112301 -0.745624 21.501
0.505418 -0.81231 21.0076
0.00582868 -2.89796 17.6057
-0.00161925 -1.19368 17.1751
-0.0117035 -0.0896471 12.4829
-0.023619 0.480672 10.4335
-0.125334 0.897481 9.02803
0.0386595 1.76132 10.5507
-0.0176449 -1.04581 14.183
0.201084 0.15804 -0.332534
0.628091 2.18872 0.13679
-0.00227365 2.54776 18.0691
-0.00574276 3.47374 19.7821
-0.0330357 2.87395 22.7069
-0.0572365 0.131215 20.0524
-0.211735 -0.13489 18.588
-0.161623 -0.816394 19.3502
1.43891 -0.909374 19.5287
1.09306 -0.922103 21.6314
0.00526543 -0.357562 21.6396
-0.77941 0.111071 21.3769
-1.70824 0.548448 20.4507
-1.85287 0.33986 20.2112
2.04696 -0.303229 19.0608
1.76325 -0.899343 21.9985
0.21994 -0.92147 20.7278
-0.60946 -0.297535 19.3839
-1.38609 -0.630601 17.898
-1.75109 -0.558497 17.8929
1.33073 0.816433 19.53
1.97967 0.827332 20.7591
1.51865 0.303351 21.9007
0.309253 -0.28443 21.869
-0.0247072 -0.623721 21.4962
-0.400245 -0.787014 21.3447
-2.32511 -0.744129 3.50315
-0.0213166 -0.0625266 0.441334
-0.124606 -0.0565643 1.74444
0.0913801 -0.0416561 0.169026
-0.0185251 0.029889 0.103783
0.11558 0.12888 0.804136
-1.26052 0.121729 1.49472
-0.0124141 0.218158 0.543301
-0.596516 -0.15254 2.12889
0.0428709 -0.106807 0.248627
-0.00403278 0.000417413 -0.000631969
0.00491183 -0.00174666 0.0421054
0.0212428 -0.0622035 0.441021
2.29952 -0.736162 3.46382
0.123553 -0.0565901 1.74392
-0.00416353 0.0293152 0.100842
-0.0937562 -0.0788649 0.160194
-0.133497 0.109577 0.787452
0.011859 0.215957 0.53964
1.27225 0.122708 1.50881
0.593338 -0.150937 2.11937
0.00217096 0.00251551 -0.00231142
-0.0129579 -0.140311 0.198551
-0.00420412 -0.00195721 0.037771
0.0130911 0.00709423 2.11231
0.147488 -0.0731058 2.92186
-4.63361e-07 1.29877e-06 -3.81441e-05
0.00181892 0.00029183 0.0188846
0.0506985 -0.00190728 0.772262
0.132912 -0.0710815 2.36062
-0.000922931 0.00150898 0.0187506
0 0 0
-0.187235 -0.155549 0.356652
2.73718e-05 0.000103006 0.00457104
0 0 0
-0.0519899 0.0343148 0.0808302
0 0 0
0 0 0
0 0 0
0.00119974 0.000326024 0.0183704
-0.0163508 0.00860561 2.10452
-0.00186319 0.000290621 0.0188298
-0.153688 -0.0775968 2.93853
1.74675e-06 5.07124e-06 -0.000141735
-0.0558556 -0.00352282 0.76008
-5.93692e-18 -2.93979e-18 1.1083e-16
-0.147575 -0.0818812 2.49262
0.000869994 0.00138525 0.0186819
0.186781 -0.155157 0.356949
0.0516954 0.0342001 0.080581
-2.70833e-05 9.66828e-05 0.00462338
0 0 0
0 0 0
-0.00139185 0.000339651 0.0184931
0 0 0
0 0 0
0 0 0
-0.291344 -0.214816 0.20136
1.57809e-07 2.46065e-05 -0.000379998
-0.0145031 -5.0367 3.92145
0.00457821 -0.00164274 0.1102
0.000769989 -0.00162604 0.030037
0 0 0
0 0 0
5.02563e-07 -5.49313e-06 -3.0971e-05
-0.00390394 -0.0140887 -0.00230826
0 0 0
0.0119174 0.0107291 0.0951979
-0.000360767 0.144873 0.0750772
-5.91766e-05 0.0289733 0.139626
-0.00759042 -0.0379526 0.235886
-0.0152461 0.00660047 0.04517
-0.0634153 -0.186092 -0.00802314
-0.0185664 -0.017168 0.159849
0.00410365 0.00166553 0.0484603
6.38855e-05 -0.000301546 0.00653557
0.28918 -0.214969 0.203042
1.76599e-18 -3.85365e-18 4.28094e-17
-0.000802808 -0.00164465 0.0303561
-0.00459715 -0.0017257 0.11032
0 0 0
0 0 0
-0.0130712 0.0102177 0.0929814
0 0 0
0.015221 0.00662691 0.0453562
0.00758174 -0.0382547 0.237464
-0.000245994 -0.000257055 0.00578141
-0.00395412 0.00127765 0.0478031
3.03057e-06 0.000432588 0.00768743
0.000112832 -5.52764e-07 0.00148987
0 0 0
0 0 0
-3.42472e-06 -9.00062e-06 0.00274477
-1.187e-07 8.42448e-08 5.66e-05
0 0 0
0 0 0
-6.62437e-07 7.68473e-07 0.000186835
1.01655e-07 -4.63575e-08 -3.1457e-05
0 0 0
-0.0049182 0.00674317 0.124653
0 0 0
-0.000114554 0.0538809 0.195163
-1.41204e-07 5.67025e-06 0.000290288
0 0 0
-0.000103197 -3.88326e-07 0.0012872
-4.61898e-06 0.000419792 0.00777926
0 0 0
0 0 0
0 0 0
0 0 0
0.00454879 0.00672435 0.12362
0 0 0
-0.000109237 -0.000382896 0.00302971
-0.0384495 -0.0421462 0.301282
0 0 0
0.00108079 -0.00543846 0.0284179
0 0 0
5.16557e-05 0.000362505 0.00198373
-9.54521e-05 0.000286478 0.00459438
1.97991e-05 0.000330232 0.00119894
0 0 0
0 0 0
0.0105716 0.00158053 0.0903742
0.00358972 -0.00213122 0.0273603
1.12229e-17 1.92935e-17 -3.05888e-16
0 0 0