# vtk DataFile Version 2.0
tet_velo
ASCII
DATASET UNSTRUCTURED_GRID
POINTS 29498 float
-0.745 0.195 -2.19202
-0.739492 0.205 2.285
-0.695 0.776198 -2.235
-0.735 0.995516 2.205
0.745 0.195 -2.19202
0.739491 0.205 2.285
0.695 0.776198 -2.235
0.735 1.005 2.19546
-0.775469 0.166028 -0.69968
-0.77926 0.163735 0.79266
-0.811708 0.952679 -0.755
-0.797497 0.99824 0.725
0.775686 0.165811 -0.69968
0.778696 0.164298 0.79266
0.809856 0.953988 -0.75818
0.793451 1.00052 0.71864
-1.53187 -0.227159 -3.34968
-1.52779 -0.181976 -2.16161
-1.54954 -0.202779 -0.668641
-1.54855 -0.225104 0.827368
-1.51984 -0.203959 2.3206
-1.51186 -0.178699 3.50997
-1.51411 -0.152745 4.69706
-1.52519 0.118915 -3.37634
-1.52251 0.186385 -2.18973
-1.55885 0.186452 -0.699236
-1.55105 0.173953 0.792809
-1.50652 0.195847 2.28355
-1.50309 0.220884 3.47241
-1.51006 0.246328 4.65976
-1.50547 0.774673 -3.42542
-1.49757 0.839992 -2.23798
-1.57827 0.958741 -0.755959
-1.56648 0.992916 0.725568
-1.50893 0.998347 2.20763
-1.50518 1.02206 3.39552
-1.51279 1.04809 4.58405
-1.50587 1.88224 -3.50913
-1.50951 1.9621 -2.32366
-1.54408 2.09024 -0.846793
-1.56378 2.17894 0.627358
-1.5539 2.21685 2.10402
-1.54244 2.23609 3.28906
-1.53615 2.25648 4.47663
-0.770709 -0.223355 -3.35121
-0.753499 -0.175054 -2.16362
-0.770259 -0.212132 -0.669405
-0.777792 -0.233752 0.827818
-0.75971 -0.202129 2.3221
-0.752757 -0.1773 3.51026
-0.753522 -0.152476 4.69642
-0.769922 0.115466 -3.37724
-0.745069 0.223787 3.47178
-0.750382 0.247172 4.65856
-0.751478 0.747374 -3.42439
-0.746093 1.02321 3.39249
-0.752765 1.04908 4.58153
-0.737606 1.86426 -3.50849
-0.732681 1.94552 -2.32305
-0.762876 2.08668 -0.847328
-0.788767 2.18315 0.625095
-0.78694 2.22058 2.10063
-0.7778 2.23856 3.28567
-0.771605 2.25834 4.47361
0.737722 -0.223049 -3.3519
0.760578 -0.174921 -2.16399
0.778418 -0.211997 -0.669837
0.771887 -0.233058 0.827266
0.746689 -0.201327 2.32129
0.75376 -0.175201 3.50796
0.761707 -0.149751 4.69331
0.721814 0.115703 -3.37778
0.751721 0.226548 3.46885
0.760817 0.250352 4.65499
0.713532 0.747671 -3.42506
0.749368 1.02879 3.38655
0.758716 1.05324 4.57685
0.781466 1.86513 -3.51029
0.798842 1.94654 -2.32521
0.798241 2.08824 -0.850539
0.77217 2.18579 0.620554
0.75251 2.22451 2.09526
0.751872 2.2427 3.28044
0.756666 2.26215 4.46886
1.50097 -0.226327 -3.35151
1.52461 -0.181304 -2.16321
1.55281 -0.201806 -0.670773
1.54785 -0.222779 0.824397
1.51781 -0.200439 2.31674
1.51628 -0.173925 3.50461
1.5235 -0.147282 4.69072
1.48612 0.119661 -3.37801
1.51336 0.187017 -2.1913
1.55712 0.187439 -0.701809
1.55338 0.176907 0.788782
1.51238 0.200818 2.27834
1.512 0.226894 3.46585
1.52127 0.25258 4.65261
1.47752 0.775577 -3.42743
1.49447 0.840953 -2.24025
1.57736 0.960919 -0.76127
1.56524 0.997921 0.716364
1.51194 1.00918 2.19559
1.51016 1.03151 3.38509
1.51954 1.05589 4.57507
1.54245 1.88407 -3.51292
1.56182 1.96424 -2.32813
1.57306 2.0934 -0.853091
1.55301 2.18402 0.618774
1.52805 2.22411 2.09399
1.5217 2.24382 3.27916
1.52386 2.26378 4.46744
-0.760054 0.485599 -2.25356
0 0.19712 -2.1899
-0.766379 0.174369 -1.44585
-0.74744 0.600258 2.25519
-5.06639e-07 0.215308 2.27469
-0.763795 0.179948 1.53883
0 0.840343 -2.29914
-0.783742 0.894826 -1.495
0 1.04217 2.24214
-0.781397 1.01203 1.465
0.760086 0.485599 -2.2536
0.766411 0.174337 -1.44585
0.750072 0.605 2.25306
0.764912 0.178831 1.53883
0.782797 0.895462 -1.49659
0.776492 1.01503 1.45705
-0.775775 0.166471 0.0464901
-0.85385 0.559354 -0.72734
0.000108549 0.185193 -0.69968
-0.851438 0.580988 0.75883
-0.000281765 0.189929 0.79266
-0.807572 0.978429 -0.015
-0.000925956 1.214 -0.75659
-0.00202303 1.44756 0.72182
0.776571 0.165674 0.0464901
0.853879 0.5599 -0.72893
0.851316 0.582407 0.75565
0.804972 0.980571 -0.0197699
-0.895006 0.522476 -1.47043
-0.853032 0.570171 0.015745
-0.895222 0.590623 1.50192
5.42745e-05 0.194598 -1.44585
-8.66083e-05 0.185676 0.0464901
-0.000141136 0.197338 1.53883
0 0.485599 -2.42232
-2.5332e-07 0.602629 2.34534
-0.000462978 0.98324 -1.49579
-0.00147449 1.45232 -0.0173849
-0.00101152 1.43495 1.46103
0.895003 0.522749 -1.47122
0.852821 0.571153 0.0133601
0.895202 0.593704 1.49794
-1.13375 0.190693 -2.19088
-0.74925 0.00997285 -2.17782
-0.757461 0.155233 -2.78463
-1.12301 0.200423 2.28428
-0.749601 0.00143568 2.30355
-0.742281 0.214393 2.87839
-1.09629 0.808095 -2.23649
-0.723239 0.761786 -2.8297
-0.71384 1.36086 -2.27902
-1.12196 0.996931 2.20632
-0.740546 1.00936 2.79874
-0.76097 1.60805 2.15282
0.752789 0.0100394 -2.17801
0.733407 0.155351 -2.7849
1.12918 0.191008 -2.19166
0.74309 0.00183673 2.30314
0.745606 0.215774 2.87692
1.12593 0.202909 2.28167
0.704266 0.761934 -2.83003
0.746921 1.36137 -2.28011
1.09474 0.808575 -2.23763
0.742184 1.0169 2.79101
0.743755 1.61476 2.14536
1.12347 1.00709 2.19553
-1.16716 0.17624 -0.699458
-0.772864 -0.0230516 -0.684542
-1.16516 0.168844 0.792735
-0.778526 -0.0350087 0.810239
-1.19499 0.95571 -0.75548
-0.787292 1.51968 -0.801164
-1.18199 0.995578 0.725284
-0.793132 1.5907 0.675048
0.777052 -0.0230931 -0.684758
1.1664 0.176625 -0.700744
0.775292 -0.03438 0.809963
1.16604 0.170602 0.790721
0.804049 1.52112 -0.80436
1.19361 0.957454 -0.759725
0.78281 1.59315 0.669597
1.17934 0.999219 0.717502
-1.52983 -0.204567 -2.75565
-1.52853 -0.0541218 -3.36301
-1.15129 -0.225257 -3.35045
-1.53866 -0.192377 -1.41512
-1.52515 0.00220482 -2.17567
-1.14064 -0.178515 -2.16262
-1.54904 -0.213942 0.0793635
-1.55419 -0.00816379 -0.683939
-1.1599 -0.207455 -0.669023
-1.53419 -0.214532 1.57399
-1.5498 -0.0255758 0.810089
-1.16317 -0.229428 0.827593
-1.51585 -0.191329 2.91529
-1.51318 -0.00405635 2.30208
-1.13977 -0.203044 2.32135
-1.51298 -0.165722 4.10352
-1.50747 0.0210927 3.49119
-1.13231 -0.177999 3.51012
-1.51208 0.0467918 4.67841
-1.13382 -0.15261 4.69674
-1.52385 0.15265 -2.78304
-1.51533 0.446794 -3.40088
-1.14756 0.117191 -3.37679
-1.54068 0.186419 -1.44449
-1.51004 0.513188 -2.21386
-1.55495 0.180202 0.0467867
-1.56856 0.572597 -0.727598
-1.52879 0.1849 1.53818
-1.55877 0.583434 0.759189
-1.50481 0.208366 2.87798
-1.50772 0.597097 2.24559
-1.50658 0.233606 4.06608
-1.50414 0.621475 3.43397
-1.12408 0.222336 3.4721
-1.51142 0.64721 4.6219
-1.13022 0.24675 4.65916
-1.50152 0.807332 -2.8317
-1.50567 1.32845 -3.46727
-1.12847 0.761024 -3.4249
-1.53792 0.899366 -1.49697
-1.50354 1.40104 -2.28082
-1.57238 0.975829 -0.0151956
-1.56118 1.52449 -0.801376
-1.5377 0.995631 1.4666
-1.56513 1.58593 0.676463
-1.50705 1.01021 2.80158
-1.53141 1.6076 2.15582
-1.50898 1.03508 3.98978
-1.52381 1.62908 3.34229
-1.12564 1.02264 3.394
-1.52447 1.65229 4.53034
-1.13278 1.04859 4.58279
-1.50769 1.92217 -2.9164
-1.12174 1.87325 -3.50881
-1.5268 2.02617 -1.58523
-1.12109 1.95381 -2.32335
-1.55393 2.13459 -0.109717
-1.15348 2.08846 -0.84706
-1.55884 2.19789 1.36569
-1.17627 2.18104 0.626227
-1.54817 2.22647 2.69654
-1.17042 2.21872 2.10232
-1.5393 2.24629 3.88285
-1.16012 2.23733 3.28736
-1.15388 2.25741 4.47512
-0.762104 -0.199205 -2.75742
-0.770316 -0.0539444 -3.36423
-0.0164936 -0.223202 -3.35155
-0.761879 -0.193593 -1.41651
0.00353919 -0.174988 -2.16381
-0.774026 -0.222942 0.079207
0.00407925 -0.212064 -0.669621
-0.768751 -0.21794 1.57496
-0.00295225 -0.233405 0.827542
-0.756233 -0.189714 2.91618
-0.00651054 -0.201728 2.32169
-0.75314 -0.164888 4.10334
-0.748913 0.0232435 3.49102
0.000501453 -0.17625 3.50911
-0.751952 0.0473481 4.67749
0.00409211 -0.151113 4.69487
-0.7607 0.43142 -3.40082
-0.0240538 0.115584 -3.37751
-0.747726 0.235479 4.06517
-0.745581 0.623496 3.43213
0.00332576 0.225167 3.47032
-0.751574 0.648125 4.62005
0.00521748 0.248762 4.65678
-0.744542 1.30582 -3.46644
-0.0189729 0.747522 -3.42473
-0.749429 1.03614 3.98701
-0.761946 1.63088 3.33908
0.00163748 1.026 3.38952
-0.762185 1.65371 4.52757
0.00297528 1.05116 4.57919
-0.735143 1.90489 -2.91577
0.0219297 1.86469 -3.50939
-0.747778 2.0161 -1.58519
0.0330806 1.94603 -2.32413
-0.775822 2.13491 -0.111116
0.0176827 2.08746 -0.848934
-0.787853 2.20187 1.36286
-0.00829869 2.18447 0.622824
-0.78237 2.22957 2.69315
-0.017215 2.22255 2.09795
-0.774703 2.24845 3.87964
-0.0129639 2.24063 3.28305
-0.00746944 2.26025 4.47123
0.74915 -0.198985 -2.75794
0.729768 -0.0536731 -3.36484
1.11935 -0.224688 -3.3517
0.769498 -0.193459 -1.41691
1.14259 -0.178113 -2.1636
0.775153 -0.222528 0.0787147
1.16562 -0.206902 -0.670305
0.759288 -0.217192 1.57428
1.15987 -0.227919 0.825831
0.750224 -0.188264 2.91462
1.13225 -0.200883 2.31901
0.757733 -0.162476 4.10064
0.75274 0.0256736 3.4884
1.13502 -0.174563 3.50628
0.761262 0.0503005 4.67415
1.1426 -0.148517 4.69202
0.717673 0.431687 -3.40142
1.10396 0.117682 -3.3779
0.756269 0.23845 4.06192
0.750544 0.62767 3.4277
1.13186 0.226721 3.46735
0.759766 0.651795 4.61592
1.14104 0.251466 4.6538
0.747499 1.3064 -3.46768
1.09552 0.761624 -3.42625
0.754042 1.04102 3.9817
0.75062 1.63575 3.3335
1.12976 1.03015 3.38582
0.757691 1.6577 4.52285
1.13913 1.05456 4.57596
0.790154 1.90583 -2.91775
1.16196 1.8746 -3.51161
0.798542 2.01739 -1.58788
1.18033 1.95539 -2.32667
0.785206 2.13702 -0.114993
1.18565 2.09082 -0.851815
0.76234 2.20515 1.35791
1.16259 2.1849 0.619664
0.752191 2.23361 2.68785
1.14028 2.22431 2.09463
0.754269 2.25243 3.87465
1.13679 2.24326 3.2798
1.14026 2.26297 4.46815
1.51279 -0.203815 -2.75736
1.49354 -0.0533328 -3.36476
1.53871 -0.191555 -1.41699
1.51899 0.00285645 -2.17725
1.55033 -0.212293 0.0768119
1.55496 -0.00718378 -0.686291
1.53283 -0.211609 1.57057
1.55062 -0.0229361 0.806589
1.51704 -0.187182 2.91068
1.51509 0.000189831 2.29754
1.51989 -0.160604 4.09767
1.51414 0.0264845 3.48523
1.52238 0.0526487 4.67167
1.49974 0.153339 -2.78465
1.48182 0.447619 -3.40272
1.53524 0.187228 -1.44655
1.50392 0.513985 -2.21577
1.55525 0.182173 0.0434866
1.56724 0.574179 -0.731539
1.53288 0.188863 1.53356
1.55931 0.587414 0.752573
1.51219 0.213856 2.87209
1.51216 0.604999 2.23697
1.51663 0.239737 4.05923
1.51108 0.629202 3.42547
1.5204 0.654234 4.61384
1.48599 0.808265 -2.83384
1.50998 1.32982 -3.47017
1.53591 0.900936 -1.50076
1.52815 1.4026 -2.28419
[...]
POINT_DATA 29498
VECTORS point_vectors float
-1.69058 -3.42352 9.36111
0.0112704 0.336649 1.20695
-1.52122 1.94883 3.08101
0.00628301 -0.0149908 0.0775981
1.63767 -3.3449 9.27501
-0.021264 0.298941 1.14279
1.51198 1.9388 3.05928
-0.0842967 -0.0329817 0.379768
0.00152585 0.000118235 0.596723
0.143142 -0.160958 1.01384
-0.0233416 -0.0213709 0.149007
0 0 0
-0.0018978 0.000221139 0.612754
-0.144737 -0.163001 1.00186
0.0228994 -0.0206785 0.145358
0 0 0
-0.602518 -0.325894 19.8519
-1.19837 -0.708985 20.6495
-0.376974 -0.307377 21.4005
-0.00148186 -0.0558864 21.5583
0.439199 0.304991 21.5359
0.7089 0.404463 21.3055
0.804397 0.176449 20.7886
-0.719131 -0.208486 19.7513
-1.75279 -0.601129 20.5353
-0.545701 -0.429352 21.468
-0.0720811 -0.161473 21.6298
0.660215 0.203332 21.6912
1.02373 0.294228 21.6203
1.14064 0.0415067 21.2828
-0.735552 0.102088 19.6735
-2.01563 0.307361 20.3144
-1.17788 -0.205717 21.4187
-0.309663 -0.211562 21.7326
0.590932 -0.28801 21.7003
1.17693 -0.371951 21.3308
1.00025 -0.260933 21.3055
-0.393398 0.305663 19.9422
-0.762577 0.596602 20.3168
-0.794791 0.490725 21.0898
-0.324581 0.0807238 21.5307
0.118787 -0.222641 21.5219
0.364509 -0.335131 21.3588
0.389729 -0.425297 20.8076
-0.575596 -0.66631 19.3401
-1.61169 -2.88624 21.1709
-0.279154 -0.272022 21.7086
-0.0447335 -0.00393716 21.5096
0.0672602 0.826218 21.0167
0.336253 1.24893 20.5007
0.624018 1.06644 20.0583
-0.758837 -0.491345 18.977
0.808911 2.14205 12.1701
1.60595 1.12026 13.1431
-0.810415 0.22651 18.801
1.96167 -0.117873 10.4207
1.56022 -0.45907 15.4903
-0.321269 0.540905 19.6862
-0.714878 1.31293 20.0566
-0.957468 1.39268 21.0494
-0.395305 0.391376 21.8636
0.0572689 -0.367338 21.7317
0.264114 -0.570837 21.0537
0.172488 -0.546183 20.9852
0.559836 -0.662639 19.3317
1.6213 -2.86439 21.1724
0.271988 -0.270732 21.7122
0.0283927 -0.00533137 21.4814
-0.0705346 0.724626 20.8764
-0.290533 1.11816 20.4152
-0.635189 1.00347 19.9057
0.749106 -0.492815 18.9393
-0.565038 2.16598 11.462
-1.48242 0.961731 12.3788
0.775588 0.226368 18.7866
-1.90468 0.132417 10.1576
-1.54256 -0.477213 15.2437
0.330941 0.530164 19.6974
0.746593 1.26084 20.0805
0.960264 1.33839 21.0547
0.386535 0.40797 21.8632
-0.0647891 -0.3524 21.7328
-0.282899 -0.563298 21.0873
-0.156747 -0.531931 20.9507
0.599832 -0.329124 19.8447
1.20581 -0.71159 20.65
0.384588 -0.317211 21.3943
0.00684419 -0.0659296 21.5418
-0.418749 0.261392 21.5113
-0.677467 0.398655 21.3742
-0.789904 0.159174 20.8477
0.735299 -0.220994 19.7072
1.77416 -0.619599 20.5368
0.547712 -0.43275 21.4627
0.0744711 -0.168185 21.6089
-0.60209 0.169218 21.6627
-0.952142 0.297576 21.6718
-1.1245 0.0544496 21.364
0.742741 0.104285 19.6345
2.01594 0.310262 20.3086
1.18002 -0.201651 21.4166
0.309883 -0.20839 21.7275
-0.542155 -0.258357 21.6753
-1.11702 -0.311378 21.3728
-0.971422 -0.236847 21.3866
0.38453 0.287781 19.9588
0.737108 0.553865 20.3278
0.780008 0.477004 21.0801
0.322806 0.0824661 21.5267
-0.121215 -0.214965 21.4936
-0.355824 -0.31612 21.3928
-0.390735 -0.443961 20.8248
-1.43758 -0.103744 1.86543
6.93454e-06 -0.102935 0.474489
-0.00386547 0.00119457 0.198411
0.00120477 -0.00676854 0.0160418
-0.0109703 0.014329 0.071584
-0.0152303 0.00312273 0.165405
-0.000173809 0.202299 0.444186
-0.336898 -0.0908891 1.06442
-0.00277972 0.00593031 -0.00850304
0 0 0
1.44222 -0.109253 1.87228
0.00382549 0.00126695 0.19852
-0.000290678 -0.00237838 0.00614246
0.014919 0.00569327 0.163721
0.327449 -0.0892154 1.03473
0 0 0
-0.000790809 0.00485679 0.873055
0.000244406 -1.00722e-05 0.0316561
-5.82985e-05 -2.88197e-05 0.00492117
0 0 0
-5.30766e-06 1.06982e-05 0.00362793
0 0 0
0.00177385 0.0336666 0.0612902
-2.96286e-05 -8.28419e-05 0.00932113
-0.00107185 0.00450766 0.905742
-0.000248268 -3.67559e-05 0.0317987
0 0 0
0 0 0
0 0 0
0 0 0
0.00297868 0.0101811 0.0989037
0 0 0
-2.41281e-05 0.000226165 0.0266803
1.59513e-06 -3.23745e-07 -0.000118433
0.000463431 -0.0054496 0.00367699
0 0 0
-7.0008e-07 0.000100886 0.000671709
-1.08077e-05 0.00019671 0.00330033
-3.2917e-05 -0.000167643 0.0069387
0 0 0
0 0 0
-0.00180274 0.00689456 0.0675726
-3.29297 -1.66653 20.6039
-2.45174 -4.47393 21.6283
-2.176 -1.74741 17.8587
0.95203 0.779335 19.3989
-0.0873716 1.0975 16.3733
0.102712 1.21875 8.53229
-3.98689 1.11114 20.0388
-2.33344 0.97998 17.2146
-1.79006 2.53394 19.7552
1.03105 -0.213973 19.1172
0.721533 0.403555 5.70081
0.456654 -0.663115 20.3698
2.46397 -4.44365 21.6162
2.17749 -1.8182 17.7179
3.32049 -1.69298 20.5937
0.0886737 0.969436 16.0458
0.0712105 0.93425 8.02718
-0.868643 0.700413 19.3113
2.31202 1.00671 17.1179
1.8333 2.45627 19.7689
3.99886 1.12465 20.0337
-0.78453 0.922974 5.47343
-0.474997 -0.626491 20.3486
-0.965622 -0.163269 19.1268
-0.272887 -0.62076 21.0908
-0.124294 -0.00470708 18.5442
-0.0661605 -0.162578 20.1985
0.1268 -0.00174459 17.4082
-1.9009 -0.733649 21.6498
-2.63415 2.01633 21.023
-0.353582 -0.415699 20.6602
-0.801007 0.247316 21.7852
0.117264 -0.0053662 18.5732
0.270308 -0.621419 21.0713
-0.146874 4.89077e-05 17.3411
0.0597754 -0.171924 20.1892
2.60041 1.94431 21.0384
1.90809 -0.729448 21.6408
0.788865 0.272276 21.721
0.357289 -0.411358 20.6331
-1.00991 -0.537091 20.0756
-0.675694 -0.270498 19.8298
-0.646543 -0.464015 19.6222
-0.773785 -0.519234 21.2501
-1.45518 -0.695331 20.6057
-1.63538 -1.52674 20.768
-0.161126 -0.161737 21.4825
-0.48728 -0.39715 21.4185
-0.27212 -0.39499 21.5613
0.204314 0.128564 21.6233
-0.0514948 -0.126183 21.5839
-0.00569522 -0.0859774 21.6073
0.613747 0.414815 21.4431
0.508686 0.272333 21.5817
0.4299 0.585919 21.6141
0.71847 0.494073 20.8337
0.851842 0.359417 21.5914
0.802046 1.01221 21.0676
0.97252 0.108978 21.0357
0.746942 0.937371 21.2314
-1.30539 -0.412786 19.862
-0.742047 -0.0759037 19.6817
-0.807597 -0.345364 19.4384
-1.12842 -0.555489 21.34
-1.9986 -0.203426 20.4624
-0.256943 -0.29704 21.5189
-0.833055 -0.440389 21.4632
0.232345 -0.000585579 21.7764
-0.159334 -0.217264 21.748
0.907174 0.269209 21.5364
0.734199 -0.0704802 21.7523
1.02345 0.284535 20.5922
1.21985 -0.0209213 21.7567
1.39917 0.941046 20.115
1.26744 -0.175967 21.4515
1.25162 0.736778 19.2783
-1.3996 0.215892 19.6976
-0.568262 0.278321 19.7855
-0.810251 0.135298 19.3072
-1.59838 0.00529306 21.1265
-1.28647 0.664318 20.2648
-0.712343 -0.268493 21.6412
-1.17665 0.319615 21.2385
0.111032 -0.208591 21.833
-0.418165 -0.0321487 21.6788
0.863873 -0.334047 21.4705
0.277026 -0.322924 21.6042
0.897147 -0.462605 21.2834
0.629207 -0.476957 21.1846
1.62732 -0.516819 19.9406
0.57225 -0.39481 21.1237
1.46003 -0.500061 19.6747
-0.59122 0.482434 20.0561
-0.392474 0.394889 19.8209
-0.825049 0.590341 20.6853
-0.810687 0.908478 20.1924
-0.595537 0.298706 21.3974
-0.942776 0.837236 21.0982
-0.0657597 -0.0928208 21.5818
-0.389706 0.220425 21.6983
0.242882 -0.333288 21.3609
0.127597 -0.307613 21.6185
0.459663 -0.458274 20.7796
0.326299 -0.52446 21.1638
0.294081 -0.513944 21.2101
-1.30289 -1.79727 19.2187
-0.666105 -0.607262 19.1625
-0.00852104 -0.905054 19.024
-0.610944 -0.927949 22.0132
0.00392856 -4.18831 21.6832
-0.139169 -0.0918214 21.5302
-0.00066834 -0.607161 21.1379
0.00763322 0.330658 21.3612
-0.0102105 -0.179358 20.1978
0.194551 1.05961 20.8366
-0.0925583 0.27184 18.5878
0.377584 1.31227 20.7325
0.35042 1.6647 17.0122
-0.150775 0.596998 17.4602
1.11498 1.09335 16.6007
-0.0602218 0.969009 15.0355
-0.799141 -0.174227 18.8332
-0.0399834 -0.684835 18.443
1.69629 1.58517 13.0571
1.79272 1.18563 7.66921
0.00780426 -0.824939 0.443551
2.03045 0.473974 10.5039
0.00490703 0.959821 8.10942
-0.538202 0.564642 19.2826
-0.0310221 0.326536 18.2953
2.17267 -0.694586 12.0764
0.816319 -1.00486 19.841
0.101944 -0.890909 -2.13663
0.659136 -1.14146 19.2455
0.166676 -1.83964 1.71058
-0.526598 0.948242 19.7267
0.0137911 0.622716 19.5533
-0.83138 1.39272 20.5651
0.0476934 1.71693 19.9364
-0.763949 0.989718 21.7106
0.0213235 2.11918 20.9373
-0.12343 -0.0249575 21.8511
-0.0121871 0.650838 22.0797
0.184849 -0.565292 21.66
-0.0128911 -0.389445 21.8442
0.215774 -0.895001 20.7505
-0.0194442 -0.863905 21.2846
0.00263207 -0.862515 21.1714
1.28779 -1.83245 19.2017
0.646679 -0.608648 19.1304
0.639282 -0.482726 19.6144
0.60864 -0.923898 22.0035
1.6334 -1.52433 20.7734
0.129654 -0.0925061 21.5292
0.273604 -0.397829 21.5592
-0.0274712 0.309513 21.2968
-0.00229477 -0.0920242 21.596
-0.165657 0.906732 20.7499
-0.405248 0.523068 21.5781
-0.443577 1.27881 20.6907
-0.270212 1.56084 16.5509
-0.791941 0.942226 21.0422
-1.0588 0.9826 16.1423
-0.756328 0.928065 21.2442
0.777623 -0.173861 18.7909
0.812105 -0.363167 19.3727
-1.74929 1.35935 12.2634
-1.58392 1.18932 6.82466
-1.32932 0.853838 20.1076
-1.87048 0.294843 9.61413
-1.20887 0.69664 19.2048
0.534099 0.565901 19.2806
0.821745 0.140482 19.2678
-2.12618 -0.635263 12.019
-0.834029 -0.919049 19.7455
-1.54271 -0.452515 19.9427
-0.720526 -1.12439 19.216
-1.47035 -0.396887 19.752
0.545106 0.918729 19.7484
0.39891 0.388552 19.8339
0.857452 1.33279 20.573
0.807536 0.855794 20.206
0.762249 0.98256 21.6992
0.931362 0.796852 21.0885
0.112432 -0.00772874 21.8464
0.388181 0.232208 21.6948
-0.187971 -0.544001 21.6561
-0.123109 -0.285835 21.6137
-0.208992 -0.901173 20.7622
-0.32611 -0.502195 21.1637
-0.274321 -0.504283 21.2151
1.01822 -0.560679 20.0423
0.675794 -0.282817 19.7958
0.790157 -0.525078 21.2405
1.46415 -0.704298 20.6183
0.1491 -0.169291 21.4793
0.486955 -0.406916 21.4081
-0.207876 0.108852 21.6175
0.054876 -0.139406 21.5592
-0.577754 0.36907 21.4334
-0.472687 0.237837 21.5609
-0.692413 0.45288 20.7284
-0.810469 0.358651 21.6385
-0.957202 0.106812 21.1058
1.33747 -0.437436 19.8239
0.757105 -0.0823784 19.635
1.13571 -0.562428 21.3395
2.02672 -0.205767 20.4588
0.253507 -0.302947 21.5116
0.83609 -0.444572 21.4649
-0.21717 -0.0138303 21.7426
0.161545 -0.218676 21.7301
-0.820814 0.240635 21.5507
-0.668095 -0.0682064 21.7304
-0.952004 0.20133 20.5389
-1.14165 0.0322945 21.8002
-1.24154 -0.117272 21.5761
1.41186 0.220256 19.6638
0.562244 0.274006 19.789
1.59855 0.0107657 21.1281
1.25209 0.62844 20.2749
0.712555 -0.265242 21.6373
1.15525 0.312366 21.2275
-0.0972971 -0.199423 21.8013
0.42054 -0.0272294 21.68
-0.823338 -0.302455 21.4768
-0.285292 -0.312847 21.6012
-0.877215 -0.464723 21.2267
-0.610095 -0.462761 21.2036
-0.572167 -0.411709 21.1348
0.57725 0.453075 20.0762
0.803043 0.561775 20.691
0.591524 0.301554 21.3878
0.0587938 -0.0883639 21.5748
-0.235113 -0.317167 21.3512
-0.438016 -0.475887 20.8306
-1.15863 -0.510112 19.9909
-1.67677 -1.94447 18.652
-1.27059 -1.04192 19.7273
-1.86011 -0.88122 19.2349
-0.74069 -0.416925 19.5143
-2.32597 -1.74417 20.7148
-0.961628 -0.573313 21.2796
-0.426817 -0.601798 20.5768
-0.770986 -0.862395 21.5907
-1.29021 -1.14806 21.9834
-0.268623 -0.498611 21.6208
-0.221325 -0.254293 21.4838
-0.00481132 0.0628275 17.6791
-0.103417 -0.205678 21.5403
-0.0459794 -0.338652 20.4701
-0.00372811 -0.150653 21.33
0.195135 0.0652435 21.6956
0.00662596 0.38852 16.6639
0.186353 0.204306 21.7179
0.307355 0.264444 19.8687
0.663493 0.721135 21.0487
0.698672 0.383029 21.4047
0.084323 1.37737 16.9515
0.630164 0.750932 21.408
1.17332 0.869306 19.3267
1.03043 1.12318 21.0228
0.820253 0.473904 20.6283
0.314707 1.78653 18.341
0.781742 0.943167 21.2936
1.35422 0.872098 20.8123
0.93584 0.960566 21.4214
-1.4133 -0.132301 19.7372
-2.58425 -0.485737 17.0386
-2.0012 0.466852 18.854
-0.841565 -0.11145 19.2971
-4.39069 -0.43007 20.2597
-1.44651 -0.362405 21.3099
-2.55687 0.077964 21.5937
-0.741988 -1.00864 20.9124
-0.440551 -0.357593 21.5925
-1.01836 -0.76992 21.4095
-0.0795667 -0.130333 19.0704
0.222115 -0.108619 21.8803
0.289155 -0.153288 19.8203
1.17542 0.374857 17.3928
1.00227 -0.0497299 21.5986
0.155391 1.18883 3.00342
1.29009 -0.329203 19.1543
1.86598 0.405826 18.6725
1.14211 -0.0751247 20.8978
2.56632 1.06999 10.5149
1.76529 -0.518163 20.0636
1.66273 0.049095 16.6584
-0.957687 0.496188 19.8617
-1.12508 1.37977 18.9988
-0.609376 0.672294 19.9167
-0.595644 0.390124 19.5583
-1.70307 1.34864 20.0472
-1.31425 0.508018 20.8341
-1.87337 1.95324 20.6135
-0.915303 0.944579 20.6452
-1.83992 0.737881 21.2836
-0.832681 0.11091 21.5684
-2.05525 0.964687 22.498
-0.74588 0.567956 21.5473
-0.592312 0.0379619 21.9434
-0.0445566 -0.165882 21.7212
-0.0945847 -0.0999995 20.9628
-0.103879 -0.0730238 21.7311
0.326902 -0.513909 21.8009
0.485926 -0.441553 21.5104
0.589387 -0.901696 20.5525
0.228535 -0.433068 21.4198
0.702936 -0.869088 21.4966
0.663767 -0.6071 21.0486
0.790443 -1.22396 19.4663
0.252732 -0.448564 21.3681
0.58683 -0.716569 20.4424
1.66886 -1.99413 18.6111
-0.0187914 -2.86484 18.5738
-0.0603204 -3.22361 15.875
-0.0196097 -0.817863 18.6844
-0.000606798 -6.24256 22.991
0.420481 -0.600645 20.5794
0.00325717 -1.40737 22.1182
-0.00408796 -0.233366 12.5043
-0.00579788 0.0614882 17.6776
-0.00721289 -0.347081 20.4587
-0.0138422 -0.0445206 11.9274
-0.041349 0.367453 16.5721
-0.0264603 0.0391621 19.4068
-0.195305 0.214035 10.6139
-0.0251281 1.12921 16.5663
-0.115215 0.367429 18.4126
-0.463648 -0.718697 -1.33166
-0.453742 0.754728 8.99698
-0.412672 1.66962 17.8743
-0.06379 1.46171 15.1876
0.388112 -0.483065 2.90766
-0.0695803 1.07154 11.1452
2.58192 -0.518378 16.8843
-0.0331314 1.8128 15.0434
-0.0330333 -0.275347 18.064
0.349372 1.41329 2.17793
0.0242913 -0.122087 -0.31484
0.56115 -2.93046 -5.26265
-2.5359 0.987021 9.73518
0.162593 -2.46234 -1.48215
0.124646 0.165534 3.33857
1.13433 1.36667 19.0157
0.0290768 1.2199 19.5589
0.000347205 0.743533 18.971
0.0486262 3.82293 19.4774
1.88084 1.88422 20.6245
0.0436753 1.85331 20.4243
0.0335549 4.51424 20.0976
2.03959 0.970677 22.4822
0.00257343 1.64833 21.9215
-0.0153127 0.747872 20.1242
0.0644947 -0.0585988 20.8099
-0.0133085 0.048376 21.9802
-0.0337872 -0.645959 13.8377
-0.602544 -0.82327 20.4899
-0.0113145 -0.640554 21.6665
-0.0515489 -1.36919 16.1527
-0.827119 -1.19659 19.4093
-0.0161765 -0.692391 20.873
-0.0346686 -1.44694 18.8284
1.16761 -0.538005 19.9552
1.26874 -1.0676 19.7194
1.89926 -0.908478 19.1534
0.746874 -0.441672 19.4809
2.33346 -1.7533 20.7118
0.97199 -0.585227 21.27
0.769948 -0.863577 21.5899
1.29246 -1.15729 21.9775
0.267158 -0.500516 21.609
0.215162 -0.260988 21.4762
0.0988669 -0.212419 21.5345
0.045204 -0.342857 20.4633
-0.00367874 -0.158062 21.2968
-0.188831 0.0490381 21.6698
-0.188588 0.187874 21.6899
-0.300025 0.235773 19.8605
-0.610327 0.649843 20.9343
-0.648006 0.338511 21.4095
-0.574844 0.667688 21.4158
-1.00746 0.756893 19.2397
-0.997559 1.01956 20.9978
-0.796976 0.400191 20.4433
-0.803108 0.965607 21.4659
-1.35655 0.916476 20.8487
-0.93672 0.944462 21.4644
1.44018 -0.142063 19.7009
2.02954 0.482222 18.803
0.847074 -0.112318 19.2392
4.42068 -0.432104 20.2457
1.45925 -0.364808 21.3131
2.55898 0.0858724 21.5859
0.742388 -1.01225 20.8947
0.44143 -0.359639 21.5907
1.02523 -0.764538 21.3892
0.0788535 -0.134357 19.0469
-0.207249 -0.112605 21.8486
-0.270584 -0.146156 19.8432
-1.07169 0.382149 17.3371
-0.904447 -0.0324003 21.6379
-1.17686 -0.234925 19.2062
-1.73039 0.408891 18.5944
-1.07018 -0.148466 20.9309
-1.72612 -0.430668 20.2011
-1.59041 0.0115558 16.4894
0.93952 0.483817 19.8742
0.612024 0.642446 19.9405
0.592821 0.384485 19.5615
1.6654 1.27498 20.0641
1.28443 0.499474 20.829
0.912752 0.89869 20.6504
1.7975 0.708214 21.2747
0.828196 0.116425 21.5568
0.73858 0.561798 21.532
0.594428 0.0494833 21.9382
0.0502764 -0.152651 21.7052
0.0986635 -0.0571924 21.7274
-0.320355 -0.476448 21.7903
-0.468903 -0.40899 21.4986
-0.231714 -0.415708 21.4288
-0.67871 -0.834664 21.5399
-0.702603 -0.595969 21.1203
-0.233758 -0.45102 21.3827
-0.60677 -0.71129 20.4509
-1.55627 -1.02747 19.481
-0.951657 -1.0152 21.7832
-0.0619769 -0.271043 21.4289
0.262308 0.224908 21.3214
0.868273 0.872843 20.7931
0.887492 0.9553 21.3386
-2.13816 -0.246276 18.8283
-2.03589 -0.807243 22.1688
-0.24658 -0.670785 19.7667
0.389295 0.249044 18.6725
1.49979 0.326151 18.2878
2.01116 0.494266 19.9653
-1.14487 0.867455 19.4896
-1.74557 1.03193 20.7962
-1.29088 0.309523 21.8932
-0.108028 -0.205652 21.9616
0.541018 -0.697464 21.6206
0.894467 -0.83067 20.867
-0.0321668 -3.23314 17.5209
0.00231802 -0.745229 15.1391
-0.00825395 -0.116299 11.8678
-0.0408087 0.0621848 11.3713
-0.439845 -0.120483 10.0189
-0.00333717 1.49537 10.5759
-0.038446 -0.724414 14.3341
0.149149 -1.05686 -3.37164
0.738023 -2.71601 -4.64128
0.0130397 2.06953 18.3594
0.0392221 3.06926 20.2151
0.00023425 3.01307 22.8983
-0.0177303 -0.0592389 17.6903
-0.0550194 -0.814545 15.0669
-0.0652097 -1.54358 16.7988
1.5753 -1.0632 19.4475
0.955089 -1.01849 21.7752
0.0593458 -0.274219 21.4127
-0.261071 0.201708 21.2682
-0.767065 0.77065 20.7425
-0.914778 0.95559 21.4282
2.17449 -0.245485 18.7558
2.04478 -0.811236 22.1707
0.248723 -0.675747 19.7508
-0.36702 0.245313 18.612
-1.29292 0.34286 18.2218
-1.99271 0.622476 19.9408
1.13276 0.841742 19.5121
1.72311 0.996757 20.7968
1.28116 0.314319 21.8773
0.107922 -0.188191 21.9476
-0.527006 -0.641512 21.6145
-0.885398 -0.794712 20.8412
-2.25632 -0.712496 1.79435
-0.0122255 -0.0808152 0.422277
0.000142802 -0.0279109 0.607472
0.0119505 0.00765366 0.0363414
-0.00266203 0.000990979 0.0101523
-0.0663425 0.0427837 0.672197
-1.40581 0.29682 1.61641
-0.0709242 0.377431 1.18255
-0.240861 0.0432676 1.02328
0.0292488 0.0271701 0.12242
-0.00371054 0.00939159 -0.0114759
0 0 0
0.0138367 -0.0877285 0.461403
2.14117 -0.667046 1.79665
-0.000249703 -0.0282147 0.608818
5.65273e-18 4.40906e-19 4.24377e-17
-0.00863707 0.00956196 0.0373663
0.0605664 0.0429765 0.651137
0.0658335 0.370657 1.16128
1.40421 0.29429 1.61434
0.243876 0.0415101 1.0366
-0.00681121 0.0176117 -0.0202014
-0.0196132 0.0353798 0.0878423
0 0 0
-0.0136021 0.00194483 0.489476
0.00482441 0.00176227 0.578238
0 0 0
0 0 0
-0.00252066 0.00186378 0.0419936
-0.0154433 0.00576497 1.25035
0 0 0
0 0 0
-0.267351 -0.177053 0.685275
-0.00423683 -0.016279 0.241534
0.00153709 0.00435807 0.0408496
-0.067752 0.047672 0.121794
0 0 0
0.000106158 0.000940483 0.00345864
0 0 0
0.106209 0.0758183 0.738463
0.0136761 0.000157108 0.492715
0 0 0
-0.00592304 0.00176418 0.617824
0 0 0
0.0014218 0.00111721 0.0273659
0 0 0
0.0086224 0.00496259 1.32519
0 0 0
0.268147 -0.15853 0.643785
0.0685963 0.0487227 0.124103
0.00371367 -0.0143498 0.210254
-0.000344433 0.000956249 0.00886909
0 0 0
-0.0958611 0.0561947 0.702525
-0.000176472 0.00161448 0.00592857
0 0 0
-0.0488053 -0.0297175 0.262587
-0.0710387 -0.00915905 0.0319956
0 0 0
0.0157428 -1.74927 0.257333
0 0 0
0 0 0
0 0 0
0 0 0
0 0 0
-0.0274452 -0.0186826 -0.0125486
0.00194778 0.010089 0.102977
0 0 0
0.0905419 2.15377 1.35628
-3.91048e-06 0.00134695 0.00743205
-0.0435012 -0.0591335 0.288451
-0.00384987 0.00119565 0.0120596
0 0 0
0 0 0
0 0 0
0.00124724 -0.000291289 0.0141888
0.0706738 -0.00974236 0.0316367
0.0496803 -0.0300034 0.266957
0 0 0
0 0 0
1.48733e-17 1.72167e-17 -7.57849e-18
0 0 0
0 0 0
-0.00219363 0.010465 0.108766
0.00391086 0.00122172 0.0123016
0.0475652 -0.0644404 0.315589
-0.00147639 -0.000300208 0.0153623
0 0 0
-5.93778e-05 0.000720674 0.00750509
0 0 0
4.73804e-18 -7.81275e-18 5.75881e-17
-4.48313e-05 0.00244429 0.0241855
0 0 0
-6.2155e-09 2.15029e-10 5.40573e-07
0 0 0
-0.0135303 0.0240486 0.180537
3.84853e-08 6.629e-09 9.62273e-06
0 0 0
9.41996e-05 0.00464359 0.019267
0.0788287 0.107908 1.23836
0 0 0
7.53965e-06 0.0533194 0.12406
2.97624e-06 9.81067e-06 0.00127577
-1.42332e-05 -5.39908e-05 0.00367239
0 0 0
6.43488e-05 0.000788253 0.00830367
0 0 0
2.33139e-05 0.00151734 0.0151221
0 0 0
0.0119865 0.0228151 0.168492
-0.0807881 0.117621 1.2631
-4.69281e-05 0.00242153 0.0100624
-0.121499 -0.073192 0.574942
-0.0261157 -0.00439822 0.120417
0.00171932 0.000692467 0.0355271
-0.000130595 -0.00782586 0.0255047
0 0 0
9.03302e-05 0.00727161 0.0446433
-0.000230386 0.00216771 0.0199973
3.50872e-05 0.000334371 0.00121271
-0.00154467 0.00126908 0.0220849
2.76571e-05 0.00183841 0.00753082
0 0 0
0.00408616 0.00423801 0.0611473
0 0 0
0 0 0
0 0 0
0 0 0
0 0 0
0 0 0
0 0 0
0 0 0
0 0 0
0 0 0
0 0 0
0 0 0
-0.154259 -0.110177 0.116461
0.315754 -0.210128 0.216648
0 0 0
0.0634471 0.0923373 0.0741593
-0.0843379 -0.00462606 -0.00826687
0.07062 -0.0113885 -0.0105167
0 0 0
0 0 0
-0.00319695 0.00371334 0.0228391