# vtk DataFile Version 2.0
tri_press
ASCII
DATASET UNSTRUCTURED_GRID
POINTS 3682 float
-0.745 0.195 -2.19202
-0.739492 0.205 2.285
-0.695 0.776198 -2.235
-0.735 0.995516 2.205
0.745 0.195 -2.19202
0.739491 0.205 2.285
0.695 0.776198 -2.235
0.735 1.005 2.19546
-0.775469 0.166028 -0.69968
-0.77926 0.163735 0.79266
-0.811708 0.952679 -0.755
-0.797497 0.99824 0.725
0.775686 0.165811 -0.69968
0.778696 0.164298 0.79266
0.809856 0.953988 -0.75818
0.793451 1.00052 0.71864
-1.53187 -0.227159 -3.34968
-1.52779 -0.181976 -2.16161
-1.54954 -0.202779 -0.668641
-1.54855 -0.225104 0.827368
-1.51984 -0.203959 2.3206
-1.51186 -0.178699 3.50997
-1.51411 -0.152745 4.69706
-1.52519 0.118915 -3.37634
-1.52251 0.186385 -2.18973
-1.55885 0.186452 -0.699236
-1.55105 0.173953 0.792809
-1.50652 0.195847 2.28355
-1.50309 0.220884 3.47241
-1.51006 0.246328 4.65976
-1.50547 0.774673 -3.42542
-1.49757 0.839992 -2.23798
-1.57827 0.958741 -0.755959
-1.56648 0.992916 0.725568
-1.50893 0.998347 2.20763
-1.50518 1.02206 3.39552
-1.51279 1.04809 4.58405
-1.50587 1.88224 -3.50913
-1.50951 1.9621 -2.32366
-1.54408 2.09024 -0.846793
-1.56378 2.17894 0.627358
-1.5539 2.21685 2.10402
-1.54244 2.23609 3.28906
-1.53615 2.25648 4.47663
-0.770709 -0.223355 -3.35121
-0.753499 -0.175054 -2.16362
-0.770259 -0.212132 -0.669405
-0.777792 -0.233752 0.827818
-0.75971 -0.202129 2.3221
-0.752757 -0.1773 3.51026
-0.753522 -0.152476 4.69642
-0.769922 0.115466 -3.37724
-0.745069 0.223787 3.47178
-0.750382 0.247172 4.65856
-0.751478 0.747374 -3.42439
-0.746093 1.02321 3.39249
-0.752765 1.04908 4.58153
-0.737606 1.86426 -3.50849
-0.732681 1.94552 -2.32305
-0.762876 2.08668 -0.847328
-0.788767 2.18315 0.625095
-0.78694 2.22058 2.10063
-0.7778 2.23856 3.28567
-0.771605 2.25834 4.47361
0.737722 -0.223049 -3.3519
0.760578 -0.174921 -2.16399
0.778418 -0.211997 -0.669837
0.771887 -0.233058 0.827266
0.746689 -0.201327 2.32129
0.75376 -0.175201 3.50796
0.761707 -0.149751 4.69331
0.721814 0.115703 -3.37778
0.751721 0.226548 3.46885
0.760817 0.250352 4.65499
0.713532 0.747671 -3.42506
0.749368 1.02879 3.38655
0.758716 1.05324 4.57685
0.781466 1.86513 -3.51029
0.798842 1.94654 -2.32521
0.798241 2.08824 -0.850539
0.77217 2.18579 0.620554
0.75251 2.22451 2.09526
0.751872 2.2427 3.28044
0.756666 2.26215 4.46886
1.50097 -0.226327 -3.35151
1.52461 -0.181304 -2.16321
1.55281 -0.201806 -0.670773
1.54785 -0.222779 0.824397
1.51781 -0.200439 2.31674
1.51628 -0.173925 3.50461
1.5235 -0.147282 4.69072
1.48612 0.119661 -3.37801
1.51336 0.187017 -2.1913
1.55712 0.187439 -0.701809
1.55338 0.176907 0.788782
1.51238 0.200818 2.27834
1.512 0.226894 3.46585
1.52127 0.25258 4.65261
1.47752 0.775577 -3.42743
1.49447 0.840953 -2.24025
1.57736 0.960919 -0.76127
1.56524 0.997921 0.716364
1.51194 1.00918 2.19559
1.51016 1.03151 3.38509
1.51954 1.05589 4.57507
1.54245 1.88407 -3.51292
1.56182 1.96424 -2.32813
1.57306 2.0934 -0.853091
1.55301 2.18402 0.618774
1.52805 2.22411 2.09399
1.5217 2.24382 3.27916
1.52386 2.26378 4.46744
-0.760054 0.485599 -2.25356
0 0.19712 -2.1899
-0.766379 0.174369 -1.44585
-0.74744 0.600258 2.25519
-5.06639e-07 0.215308 2.27469
-0.763795 0.179948 1.53883
0 0.840343 -2.29914
-0.783742 0.894826 -1.495
0 1.04217 2.24214
-0.781397 1.01203 1.465
0.760086 0.485599 -2.2536
0.766411 0.174337 -1.44585
0.750072 0.605 2.25306
0.764912 0.178831 1.53883
0.782797 0.895462 -1.49659
0.776492 1.01503 1.45705
-0.775775 0.166471 0.0464901
-0.85385 0.559354 -0.72734
0.000108549 0.185193 -0.69968
-0.851438 0.580988 0.75883
-0.000281765 0.189929 0.79266
-0.807572 0.978429 -0.015
-0.000925956 1.214 -0.75659
-0.00202303 1.44756 0.72182
0.776571 0.165674 0.0464901
0.853879 0.5599 -0.72893
0.851316 0.582407 0.75565
0.804972 0.980571 -0.0197699
-0.895006 0.522476 -1.47043
0.895003 0.522749 -1.47122
5.42745e-05 0.194598 -1.44585
-0.000462978 0.98324 -1.49579
0 0.485599 -2.42232
-0.853032 0.570171 0.015745
0.852821 0.571153 0.0133601
-8.66083e-05 0.185676 0.0464901
-0.00147449 1.45232 -0.0173849
-0.895222 0.590623 1.50192
0.895202 0.593704 1.49794
-0.000141136 0.197338 1.53883
-0.00101152 1.43495 1.46103
-2.5332e-07 0.602629 2.34534
-0.751389 0.3403 -2.22165
-0.3725 0.19481 -2.19221
-0.764366 0.176009 -1.81893
-0.772123 0.402629 2.29875
-0.369746 0.223912 2.26609
-0.748724 0.195394 1.91192
-0.718711 0.630899 -2.23547
-0.3475 0.83227 -2.29107
-0.749763 0.845905 -1.865
-0.756161 0.797887 2.24504
-0.3675 1.03694 2.24167
-0.770209 1.01578 1.835
0.3725 0.194079 -2.19294
0.751437 0.3403 -2.2217
0.764402 0.175972 -1.81893
0.369745 0.223997 2.266
0.773507 0.405 2.29775
0.748024 0.196093 1.91192
0.3475 0.832219 -2.29102
0.71864 0.630899 -2.2354
0.749318 0.84625 -1.86579
0.3675 1.04135 2.23657
0.759997 0.805 2.24172
0.765146 1.01941 1.82626
-0.768489 0.172634 -1.07277
-0.775353 0.166518 -0.326595
-0.83262 0.353711 -0.71351
-0.378228 0.194514 -0.69968
-0.767753 0.175616 1.16575
-0.776198 0.166423 0.419575
-0.833877 0.363097 0.775745
-0.37874 0.198894 0.79266
-0.806227 0.932254 -1.125
-0.870168 0.774711 -0.74117
-0.81026 0.966174 -0.385
-0.451427 1.17356 -0.755795
-0.790266 1.00595 1.095
-0.867782 0.811271 0.741915
-0.803358 0.989158 0.355
-0.500503 1.42438 0.72341
0.769181 0.171941 -1.07277
0.378408 0.19448 -0.69968
0.775883 0.165988 -0.326595
0.832626 0.353933 -0.714305
0.76729 0.176078 1.16575
0.378301 0.198926 0.79266
0.777259 0.16536 0.419575
0.833981 0.363865 0.774155
0.805093 0.933492 -1.12739
0.449016 1.17309 -0.757385
0.869936 0.775978 -0.743555
0.808129 0.967995 -0.388975
0.785767 1.00857 1.08785
0.496313 1.42523 0.72023
0.86759 0.814066 0.737145
0.799851 0.991183 0.349435
-0.871629 0.504038 -1.86199
-0.380027 0.485599 -2.39336
2.71372e-05 0.194212 -1.81787
0 0.34136 -2.38981
-0.882624 0.348423 -1.45814
-0.383163 0.191364 -1.44585
-0.84611 0.59544 1.87855
-0.37372 0.601443 2.33987
-7.08213e-05 0.210142 1.90676
-3.7998e-07 0.408968 2.4126
-0.893754 0.385285 1.52037
-0.381968 0.204938 1.53883
-0.000231489 0.922669 -1.89747
0 0.662971 -2.39046
-0.895473 0.708651 -1.48271
-0.392102 0.97307 -1.4954
-0.000505758 1.31715 1.85158
-1.2666e-07 0.822398 2.31457
-0.856438 0.801325 1.48346
-0.391204 1.42366 1.46301
0.871456 0.504174 -1.86241
0.380043 0.485599 -2.39336
0.882811 0.348543 -1.45854
0.383233 0.191282 -1.44585
0.845939 0.599352 1.8755
0.375036 0.603814 2.33957
0.893742 0.386267 1.51839
0.382385 0.204905 1.53883
0.895466 0.709106 -1.4839
0.391167 0.973024 -1.49619
0.856242 0.804364 1.4775
0.38774 1.42394 1.45904
-0.833326 0.358859 0.0311176
-0.377577 0.196782 0.0464901
-0.875566 0.540915 -1.09888
-0.854179 0.564762 -0.355798
8.14117e-05 0.194185 -1.07277
1.09703e-05 0.185434 -0.326595
-0.851892 0.575579 0.387288
-0.895123 0.585805 1.13037
-0.000184187 0.189605 0.419575
-0.000211451 0.197019 1.16575
-0.87028 0.794289 0.000372529
-0.510923 1.42818 -0.0161925
-0.000694467 0.990272 -1.12619
-0.00120023 1.40203 -0.386988
-0.00174876 1.45099 0.352218
-0.00151727 1.44215 1.09142
0.833355 0.359084 0.0299251
0.377691 0.196778 0.0464901
0.875925 0.541324 -1.10008
0.854073 0.565527 -0.357785
0.851788 0.57678 0.384505
0.895075 0.588055 1.1268
0.870195 0.796511 -0.00320491
0.507646 1.42824 -0.0185774
-0.866263 0.344361 -1.84046
-0.876117 0.355557 -1.08582
-0.869626 0.732334 -1.11194
-0.837063 0.669775 -1.8635
0.866209 0.344421 -1.84067
0.836923 0.670002 -1.8641
0.869624 0.733025 -1.11373
0.876124 0.355699 -1.08642
-0.377831 0.192107 -1.8184
0.377866 0.191944 -1.8184
0.385565 0.191269 -1.07277
-0.385421 0.191319 -1.07277
-0.369801 0.916306 -1.88123
-0.39921 0.98543 -1.1256
0.397816 0.987535 -1.12679
0.369334 0.916277 -1.88163
-0.376264 0.34083 -2.31961
-0.363764 0.646935 -2.25607
0.363771 0.646935 -2.3462
0.376271 0.34083 -2.3196
-0.832976 0.356284 -0.341196
-0.833591 0.360984 0.403431
-0.868967 0.802748 0.371144
-0.869646 0.784211 -0.370399
0.833 0.356505 -0.34219
0.869526 0.785975 -0.37338
0.868903 0.805294 0.36697
0.833658 0.36148 0.40204
-0.377953 0.195547 -0.326595
0.378108 0.195513 -0.326595
0.377988 0.197868 0.419575
-0.378159 0.197837 0.419575
-0.512079 1.36268 -0.385994
-0.505992 1.42684 0.353609
0.502282 1.42734 0.350826
0.509141 1.36229 -0.387981
-0.893938 0.378823 1.14806
-0.853331 0.393957 1.89523
-0.838448 0.799606 1.85678
-0.863452 0.795469 1.11269
0.893926 0.37981 1.14627
0.863027 0.797913 1.10732
0.838582 0.804682 1.85088
0.853535 0.395634 1.89371
-0.385869 0.202981 1.16575
0.385796 0.202988 1.16575
0.376065 0.218406 1.90934
-0.375857 0.218293 1.90934
-0.395482 1.43062 1.09321
-0.379352 1.32082 1.84329
0.37762 1.32384 1.83892
0.391727 1.43088 1.08963
-0.371733 0.405799 2.40597
0.372391 0.406984 2.40611
0.371268 0.813699 2.29632
-0.37061 0.810143 2.29636
-0.742135 0.26765 -2.20078
-0.55875 0.195428 -2.19159
-0.760091 0.180096 -2.00548
-0.754824 0.303814 2.29089
-0.554619 0.201327 2.28867
-0.74634 0.197965 2.09846
-0.710699 0.703548 -2.23908
-0.52125 0.80818 -2.26698
-0.72831 0.81698 -2.05
-0.755714 0.896702 2.23515
-0.55125 1.02972 2.23683
-0.763496 1.01654 2.02
0.55875 0.194485 -2.19253
0.742096 0.26765 -2.20074
0.760108 0.18008 -2.00548
0.554618 0.201333 2.28867
0.755556 0.305 2.29043
0.745369 0.198935 2.09846
0.52125 0.808175 -2.26698
0.710704 0.703548 -2.23908
0.728082 0.817147 -2.0504
0.55125 1.03384 2.22668
0.75801 0.905 2.2291
0.758401 1.02053 2.01086
-0.773655 0.167655 -0.886223
-0.775142 0.166542 -0.513138
-0.821776 0.251004 -0.706595
-0.576246 0.181476 -0.69968
-0.776655 0.166526 0.979203
-0.77927 0.163538 0.606118
-0.822162 0.25562 0.784203
-0.578998 0.181317 0.79266
-0.810683 0.944182 -0.94
-0.850825 0.868638 -0.748085
-0.810745 0.959187 -0.57
-0.660254 1.12049 -0.755398
-0.79395 1.00216 0.91
-0.849867 0.913369 0.733458
-0.800467 0.993739 0.54
-0.657835 1.22898 0.724205
0.773831 0.167479 -0.886223
0.576382 0.181476 -0.69968
0.775539 0.166145 -0.513138
0.821776 0.251063 -0.706993
0.774394 0.168787 0.979203
0.578647 0.181316 0.79266
0.778402 0.164405 0.606118
0.8222 0.256151 0.783408
0.809303 0.945568 -0.942783
0.657535 1.11974 -0.757783
0.850317 0.870193 -0.750868
0.808777 0.960775 -0.573578
[...]
POINT_DATA 3682
SCALARS point_scalars float 1
LOOKUP_TABLE default
-121.431
-49.9953
-73.6107
-46.7579
-123.58
-46.5692
-73.3023
-45.4369
-36.6222
-32.7306
-58.2374
-46.2998
-36.5865
-32.7576
-57.9046
-46.0037
-99.6828
-78.4658
-35.7197
-35.1474
-50.2287
-48.4342
-40.6161
22.8825
-89.7136
-35.9237
-37.6287
-50.2834
-44.4908
-40.0407
-3.64658
-81.817
-47.447
-42.2876
-49.5611
-46.0045
-40.4298
-70.1634
-69.5887
-93.7418
-52.5198
-55.0501
-46.8041
-42.8185
-57.6808
-117.976
-35.9259
-35.5174
-50.2343
-41.8774
-38.6502
-51.1904
-39.3306
-38.772
158.187
-40.8402
-39.9658
27.3471
-69.6833
-78.8902
-56.1251
-56.3308
-42.5796
-41.4555
-58.6443
-117.134
-35.8105
-35.4055
-47.1009
-39.1839
-34.4973
-58.6443
-35.6851
-34.2581
169.333
-39.0841
-36.6712
28.5678
-65.7016
-87.1191
-55.9668
-56.153
-41.2719
-40.7918
-94.66
-78.66
-35.6638
-34.8278
-46.7282
-44.8259
-37.6958
60.4754
-90.0625
-35.8355
-36.5744
-46.9694
-40.9654
-36.852
-3.73732
-83.7832
-47.4838
-41.8426
-47.6356
-43.532
-37.4184
-69.822
-68.6078
-66.4495
-52.3965
-55.2917
-45.2161
-41.108
-44.2659
-153.214
-52.5394
-43.7873
-36.1449
-42.4895
-150.847
-40.7655
-41.9731
-48.7034
-44.4293
-52.4326
-40.9403
-42.0618
-40.5874
-47.8957
-32.6304
-39.5039
-39.2435
-36.0431
-36.637
-52.31
21.4386
-57.7856
-32.5934
-39.4136
-35.6352
-52.4352
-60.2086
-60.1832
-58.0732
-13.5961
195.995
-38.512
-38.3411
-35.4651
-93.1233
-50.9633
-49.5944
-38.4634
-53.7751
-37.0767
-88.8827
-134.861
-72.8291
-44.8784
-42.67
-41.6876
-36.6611
-129.537
-46.9296
-44.9542
-41.8811
-48.9998
-135.387
-87.1566
-72.7084
-38.321
-41.4169
-39.9653
-128.492
-36.2715
-46.8827
-41.4134
-42.5303
-47.9992
-42.4309
-33.7299
-36.6191
-38.869
-38.812
-32.1758
-27.8537
-36.5245
-38.6746
-45.6859
-56.9567
10.9934
-46.8209
-41.1053
-48.5804
-53.7357
-42.51
-38.8221
-33.7091
-36.5193
-38.2671
-36.3865
-32.386
-27.5002
-38.5036
11.319
-45.564
-57.0018
-46.3724
-53.5191
-40.7582
-48.6198
-64.6424
187.569
-80.2962
163.695
-57.8792
-56.1444
-46.8272
-39.7599
-38.2879
-27.8713
-50.2557
-39.3109
-37.125
166.789
-60.6727
-18.4422
-47.3851
-37.474
-49.7852
-53.3268
-64.519
187.715
-57.7984
-56.0984
-45.0508
-37.3155
-49.0765
-38.8006
-60.5869
-18.4194
-48.7888
-53.064
-35.767
-34.8618
-47.4794
-39.2079
-45.1736
-36.3889
-37.0238
-44.061
-35.1263
-36.9352
-43.6136
-80.9059
9.94435
-71.906
-67.843
-53.7566
-35.5972
-34.8086
-47.4272
-39.0719
-36.8128
-43.1829
-43.4788
-80.9648
-72.5822
-47.546
-46.8843
-56.5549
-72.462
-56.5144
-46.8006
-47.4785
-77.2447
-77.1869
-43.9178
-43.9632
-37.9335
1.7315
1.61749
-37.9059
150.623
169.101
159.066
153.65
-36.1582
-34.4214
-41.523
-45.6044
-36.0152
-45.5215
-41.3058
-34.2004
-35.7629
-35.7151
-34.6912
-34.7695
-84.8472
-61.1568
-61.2879
-82.4379
-44.4347
-44.4654
-47.3744
-44.8648
-43.6507
-44.1058
-45.7931
-42.6922
-37.3709
-37.1054
-38.5632
-39.8419
-52.4992
-49.392
-49.2195
-52.3195
-36.9613
-31.9903
-37.2259
-39.3099
-110.897
-131.811
-89.3998
-46.4793
-46.116
-45.0105
-39.8458
-82.2338
-67.2552
-45.81
-42.4309
-49.227
-132.584
-110.932
-89.0874
-42.6431
-42.9099
-42.5484
-81.8537
-39.4476
-67.2667
-41.6005
-44.1454
-48.0839
-40.5962
-34.8638
-35.8378
-37.8888
-41.8139
-32.956
-24.7877
-36.0226
-44.5149
-50.8261
-58.8697
-42.6525
-46.2429
-43.8664
-46.9759
-49.2216
-40.4853
-37.8203
-34.7965
-35.7039
-41.1382
-35.7959
-32.7204
-24.508
-44.0126
-40.1073
-50.766
-59.021
-45.9601
-49.0283
-43.5417
-46.9156
-65.9044
-27.2938
-84.8898
147.769
-149.978
-150.331
-100.759
-69.4434
-60.94
-47.2338
-56.1998
-53.9431
-44.7701
-43.9523
-48.3046
-40.567
-38.4079
-36.2943
-37.5204
-28.8561
-44.915
-40.4767
-48.9914
-40.2969
-155.244
-155.269
-59.6966
171.37
-41.2112
-37.8317
-52.5813
-24.4855
-42.0279
-41.7557
-42.9562
-41.481
-48.7973
-47.7649
-48.6137
-50.4506
-67.9132
-27.2986
-85.3444
148.133
-60.8427
-47.1906
-56.1081
-53.8406
-41.3955
-41.1463
-45.5477
-37.9877
-43.4827
-39.7308
-47.9114
-39.6247
-41.4919
-37.5051
-52.4697
-24.4697
-47.9557
-47.0825
-47.6867
-50.1655
-33.2513
-32.6198
-34.9518
-34.2551
-37.7168
-41.9985
-42.3158
-39.3122
-39.0464
-39.0231
-41.8687
-37.614
-32.6827
-38.4044
-36.268
-36.8236
-36.9043
-36.838
-35.7225
-36.948
-54.9587
-50.1178
-47.6689
-63.0362
20.1041
20.1389
25.8427
-17.4841
-56.8685
-56.8493
-61.7687
-55.2354
-33.169
-32.5117
-34.7885
-34.1731
-37.6259
-41.8999
-42.2398
-39.1989
-32.6382
-38.0322
-35.9834
-36.2704
-55.0252
-50.2084
-47.6584
-63.1068
-70.8103
-59.5157
-60.7131
-54.3422
-70.7699
-59.4624
-60.715
-54.2779
-67.4853
-57.5258
-57.5062
-50.7386
-25.0336
-14.7888
-14.7372
-3.15068
193.806
173.435
197.162
193.692
-36.9179
-38.9783
-37.5836
-40.5554
-36.7537
-38.816
-37.3013
-40.3803
-35.3973
-35.6698
-34.9113
-35.3713
-90.769
-112.339
-77.4788
-90.8621
-49.4696
-50.694
-52.2628
-47.7769
-48.1796
-49.5062
-51.0459
-46.8333
-39.4968
-38.7405
-38.4531
-37.6635
-56.0628
-53.7032
-53.5851
-53.3367
-38.4744
-29.7924
-37.3426
-36.8165
-83.9228
117.594
-95.8165
102.845
-68.9354
-74.0939
-47.868
-39.5775
-40.5519
-39.3214
-44.098
-40.9433
-83.9376
133.263
-58.6416
169.192
-54.0857
-40.4313
-47.9709
-40.578
-43.8293
-41.3355
-47.7691
-53.5823
-95.8246
102.563
-83.4971
119.234
-68.7707
-73.9749
-38.328
-33.3389
-45.1079
-35.893
-42.2708
-39.3379
-58.5541
162.49
-84.0715
133.856
-54.0267
-40.405
-43.4343
-40.7236
-45.7553
-38.361
-46.3423
-53.3037
-46.8384
-42.4959
-35.2347
-35.1135
-41.3326
-36.192
-41.5531
-36.8159
-44.0398
-38.0418
-33.7746
-34.1978
-32.801
-37.5977
-35.2253
-37.2953
-45.5353
-11.717
-45.0577
-46.0297
-50.8492
-79.7851
10.8267
-25.6134
-45.549
-49.9636
-40.7862
-42.2104
-44.8854
-54.3104
-56.6881
-52.4711
-46.586
-42.4689
-41.5128
-36.7688
-35.1009
-35.0373
-41.3121
-36.0646
-42.4333
-37.6035
-35.115
-37.0936
-33.5663
-34.096
-32.5274
-36.9705
-45.5111
-11.7087
10.7697
-24.513
-44.9484
-45.944
-50.7862
-80.0559
-44.8828
-49.5636
-56.6688
-52.3576
-40.5529
-41.8009
-44.7318
-54.2374
-67.9923
-58.3468
153.191
178.688
-79.4708
-79.4542
163.524
163.858
-69.2514
-52.9024
-64.9705
-49.2503
-45.295
-47.0989
-37.3638
-39.4643
-38.2047
-38.9276
-32.0292
-27.9096
-46.8496
-49.4134
-38.2747
-40.537
-36.885
-36.8596
166.79
165.788
-53.5011
-59.864
-27.5207
-9.19737
-47.9326
-47.8073
-37.2351
-38.5437
-48.101
-47.8563
-52.3156
-57.0292
-67.8036
-58.3446
180.063
154.054
-69.2074
-52.8317
-64.9344
-49.1999
-45.3755
-43.5605
-32.5414
-37.1385
-45.9462
-47.8924
-37.9223
-39.7019
-59.5466
-53.4926
-9.16204
-27.4991
-46.8321
-46.911
-56.7482
-52.1257
-36.0749
-35.2564
-35.149
-34.608
-47.4975
-47.8161
-37.3597
-41.7276
-44.7933
-44.8151
-36.2743
-36.2512
-35.5655
-38.8464
-44.4597
-43.509
-35.0584
-35.0975
-37.0289
-36.8899
-42.1873
-44.7366
-99.1376
-67.9674
8.20874
8.20773
-69.5974
-68.9584
-66.2339
-66.2555
-53.4325
-53.3662
-35.9176
-35.0585
-35.0992
-34.5476
-47.741
-47.4468
-37.2195
-41.6143
-38.6183
-35.3395
-43.681
-42.5906
-44.6379
-42.1768
-68.0443
-99.1612
-85.088
-66.9387
-70.3384
-82.88
-41.7278
-41.6764
-54.2103
-50.9424
-47.4543
-49.7794
-54.493
-43.0816
-78.6581
-83.2049
-70.6715
-50.2109
-84.726
-83.4871
-70.2895
-66.8897
-80.5791
-50.1231
-70.5036
-83.3552
-47.0167
-43.0144
-54.4689
-49.7012
-41.7565
-50.8533
-54.1406
-41.6328
-92.5218
-99.4479
-66.7936
-62.2537
-92.3816
-62.1641
-66.7794
-99.4834
-40.7487
-41.7105
-50.2953
-47.4287
-40.84
-47.5416
-50.3181
-41.7325
-61.3533
-31.2665
-25.3735
-58.739
-8.2029
22.652
-4.77443
-18.2179
-7.88796
-18.1972
-4.75463
22.587
-61.2783
-58.7058
-25.3617
-31.2302
132.435
117.901
173.837
-71.2876
105.386
172.87
192.747
140.777
107.218
140.933
192.899
172.239
141.727
-71.3408
174.509
121.158
-35.5453
-35.3209
-37.2616
-37.3766
-32.0212
-34.4279
-36.3053
-34.6182
-43.8825
-46.1341
-39.1807
-38.2202
-51.588
-41.9256
-41.2796
-49.3472
-35.4274
-37.2565
-37.1059
-35.1764
-51.5668
-49.3265
-41.1398
-41.8288
-43.6959
-37.9496
-39.0707
-46.1432
-31.7165
-34.4435
-36.0774
-34.1548
-36.0602
-37.4983
-35.5818
-34.5692
-35.987
-34.4901
-35.5577
-37.4759
-34.5529
-35.5717
-34.8896
-34.0249
-34.7158
-34.1091
-34.9203
-35.624
-90.3244
-69.7504
-110.491
-15.9125
-51.0702
-60.6227
-75.4126
-57.5308
-50.9391
-57.5222
-75.4258
-60.6151
-90.5705
-15.6121
-110.6
-69.9178
-39.2481
-45.1256
-47.5121
-36.2786
-48.2946
-47.6728
-49.0763
-50.7596
-48.2623
-48.1845
-49.1129
-47.9891
-44.491
-39.8538
-47.4411
-47.4831
-38.8502
-35.2814
-46.5775
-44.2825
-44.1477
-46.613
-46.6611
-39.4996
-46.4689
-45.5091
-48.0159
-47.1051
-45.4793
-49.1997
-47.6015
-45.0575
-37.0192
-36.888
-37.8432
-39.0586
-36.6763
-38.52
-37.6497
-36.7859
-39.8931
-37.4655
-39.4804
-40.9422
-42.588
-42.045
-39.9406
-38.6804
-48.7147
-49.6263
-53.1218
-54.6787
-46.3794
-43.216
-56.5508
-54.5453
-45.9254
-53.5362
-56.4697
-43.0067
-48.5392
-54.645
-53.0301
-49.2504
-41.5258
-32.8609
-33.3056
-39.5262
-36.7301
-35.9723
-29.6246
-29.1
-39.6185
-41.2683
-37.0747
-37.3616
-41.0865
-40.1913
-38.638
-41.4861
-126.451
-136.51
-107.633
-48.747
-50.3817
-45.6484
-54.7228
-61.6566
-81.2722
-47.612
-43.7518
-48.8007
-135.45
-129.212
-106.908
-45.7653
-45.18
-42.6484
-61.2941
-54.2882
-81.0619
-42.703
-45.6312
-47.2571
-36.4447
-35.5601
-36.1167
-37.0815
-38.2206
-32.0732
-24.2525
-36.0708
-56.5157
-54.3866
-59.5063
-70.4283
-46.2039
-45.0874
-46.552
-47.415
-36.4142
-37.0038
-35.5013
-35.9602
-38.1681
-35.8363
-31.863
-23.925
-56.4987
-69.304
-54.3379
-59.6357
-45.9326
-47.2197
-44.8836
-46.4186
-54.6881
-35.8224
-102.139
90.9871
-152.557
-152.739
-119.332
3.91695
-56.2765
-49.221
-54.84
-53.0274
-44.4271
-43.8401
-49.5587
-41.0126
-36.8844
-35.8152
-36.6245
-31.6065
-43.6364
-41.8277
-47.0843
-41.0855
-148.684
-148.106
-78.8375
83.8482
-40.8528
-38.7912
-47.9387
-30.3045
-41.9963
-41.9403
-42.0416
-42.0166
-48.714
-48.3383
-48.6554
-49.5136
-55.0833
-35.9377
-101.87
90.1746
-56.1681
-49.0467
-54.7402
-52.9096
-41.3509
-40.9743
-46.3553
-38.3365
-42.55
-41.1335
-46.1459
-40.4658
-40.7015
-38.4844
-47.8254
-30.2576
-47.9008
-47.5917
-47.7947
-48.8464
-35.1668
-34.3632
-34.3607
-33.9864
-38.5277
-40.5942
-40.0001
-39.3201
-39.1908
-39.1797
-40.3207
-38.4306
-34.8208
-37.0837
-35.9589
-34.9395
-36.7524
-36.7221
-36.1452
-37.2066
-53.6674
-51.1616
-49.9152
-56.9737
21.2043
21.2584
28.2748
6.18484
-57.557
-57.5456
-59.6008
-56.3721
-35.1153
-34.262
-34.1868
-33.8975
-38.4389
-40.5071
-39.9211
-39.2134
-34.5097
-36.6979
-35.648
-34.4288
-53.8016
-51.2817
-49.9975
-57.0093
-65.9389
-59.8937
-60.5612
-56.5321
-65.9072
-59.8498
-60.5475
-56.4962
-62.4534
-57.91
-57.9006
-54.1607
-19.8929
-13.8618
-13.8489
-8.65624
202.591
180.622
203.998
202.401
-37.7132
-38.7876
-38.4134
-39.3913
-37.551
-38.6242
-38.3503
-39.2149
-35.4656
-35.4796
-35.1646
-35.4533
-93.4393
-105.693
-84.4343
-93.4186
-51.7397
-50.9298
-51.0676
-49.0621
-50.369
-49.7213
-49.8055
-47.9658
-38.8689
-38.5465
-38.4029
-38.061
-54.4216
-53.7902
-53.7317
-53.4192
-37.6812
-35.8885
-36.2046
-36.7638
-96.2874
-72.6546
-117.071
62.2547
-132.489
-140.615
-113.128
20.5741
-79.0731
-66.9182
-70.5067
-72.6066
-45.1372
-44.701
-50.4054
-40.2847
-44.9409
-40.2812
-40.8176
-40.1316
-42.8086
-43.5068
-43.6395
-41.2641
-37.9119
-40.5048
-103.27
78.4896
-103.6
-145.678
-77.3059
55.544
-51.2108
-43.0647
-51.7015
-42.4115
-45.4772
-44.4237
-49.5648
-41.2087
-41.965
-41.8978
-42.5226
-41.6821
-48.9237
-48.8658
-48.3991
-51.2865
-132.988
-141.028
-113.307
17.2585
-94.7772
-73.7907
-115.883
55.1918
-78.8828
-66.8165
-70.391
-72.4775
-40.3604
-37.2588
-37.8403
-35.0259
-41.6333
-41.2979
-47.0735
-36.955
-40.8195
-42.1418
-41.8043
-39.5964
-104.34
-145.497
-77.3636
56.49
-37.5348
-40.2263
-102.908
78.3679
-51.2269
-42.9696
-51.645
-42.3808
-41.326
-41.5949
-42.0097
-41.2745
-43.1713
-41.7797
-46.9719
-38.7588
-47.9205
-47.9385
-47.2244
-50.6003
-40.7913
-43.8152
-45.9096
-41.5823
-35.4477
-35.27
-34.7394
-34.8042
-36.2006
-37.146
-37.5616
-36.2671
-38.5923
-38.7754
-40.5071
-37.554
-39.0857
-39.1325
-43.3113
-38.3882
-32.6346
-33.8881
-33.1497
-33.7019
-26.1588
-30.0101
-31.249
-32.5268
-35.3903
-37.316
-35.8776
-37.4146
-39.1174
-37.8177
-44.7672
-22.8667
-47.9435
-43.7297
-45.2025
-46.0104
-57.9764
-56.1767
-53.7571
-65.4186
-3.51125
17.3773
15.8708
-5.6395
-46.493
-47.182
-46.1408
-48.1578
-42.4176
-39.7979
-40.7517
-41.5272
-47.6973
-49.4132
-46.7353
-51.3041
-50.8969
-55.7342
-55.0936
-53.9955
-40.6165
-43.4606
-45.4432
-41.6626
-38.5365
-38.7381
-40.4619
-37.5064
-35.4278
-35.216
-34.5741
-34.72
-36.092
-37.0517
-37.4995
-36.1533
-38.8169
-38.3993
-41.3406
-37.8571
-35.2091
-37.2007
-35.7502
-37.2526
-32.7553
-33.8403
-33.0603
-33.6442
-25.8106
-29.8168
-30.9441
-32.0699
-39
-37.6
-44.6745
-22.7353
-2.50961
17.5765
16.0805
-5.02502
-47.8358
-43.619
-45.1115
-45.9219
-57.9661
-56.6561
-53.7715
-65.4944
-46.1009
-46.624
-45.6359
-47.7617
-50.6154
-55.7113
-55.0472
-54.195
-42.0424
-39.4214
-40.4848
-41.1247
-47.6292
-49.4955
-46.6544
-51.1991
-66.7121
-69.7703
-66.5407
-62.0072
173.709
189.355
176.166
190.853
-88.8371
-73.2245
-80.0116
-80.0048
57.7114
172.599
163.437
163.933
-57.0335
-58.917
-63.2812
-54.3424
-55.0416
-56.8923
-60.2696
-52.4784
-47.6355
-47.477
-45.6938
-47.0659
-40.2603
-39.1108
-39.7072
-39.2892
-37.6242
-39.3606
-38.2053
-38.5684
-28.384
-27.9221
-28.9948
-26.779
-50.0079
-50.5029
-48.0253
-50.7086
-39.6354
-39.0054
-38.7957
-40.0193
-46.8249
-31.2409
-36.9611
-36.944
155.152
184.457
168.315
165.686
-57.1779
-61.168
-56.8561
-64.3197
-21.132
-16.2046
-22.7366
-13.7436
-44.5708
-52.2346
-47.5469
-47.481
-39.5302
-38.5028
-37.5739
-38.1544
-49.0011
-51.6646
-48.8301
-49.5371
-52.6291
-53.5591
-52.5506
-54.5614
-66.6627
-69.6424
-66.3843
-61.8857
173.894
189.286
190.747
176.32
-56.9448
-58.8543
-63.2219
-54.2586
-54.9707
-56.8597
-60.2312
-52.4287
-45.4265
-46.0011
-45.2927
-44.043
-37.6435
-36.9444
-36.9697
-36.4651
-48.8338
-49.3241
-47.0123
-49.3907
-39.0339
-38.5793
-38.3721
-39.3917
-57.0445
-61.1937
-64.1129
-56.8122
-21.0954
-16.1655
-13.7176
-22.7098
-47.9781
-50.4133
-48.443
-47.6894
-52.3586
-53.3739
-54.1991
-52.346
-35.3769
-36.3084
-35.9697
-35.567
-34.5099
-35.1927
-34.9885
-34.66
-44.9603
-51.4781
-47.3834
-47.8616
-39.2443
-39.1463
-38.2542
-40.2746
-43.3589
-47.7546
-45.0183
-45.0287
-36.9401
-35.9718
-36.3774
-36.3665
-36.6894
-37.2002
-36.3281
-37.766
-39.5989
-46.8204
-44.3838
-43.3321
-35.3623
-34.9618
-35.1511
-35.1696
-36.6627
-37.2811
-36.9658
-36.8962
-45.5105
-41.9465
-42.9789
-44.1938
-70.8113
-88.0025
-93.6248
-72.9814
15.9777
4.21065
9.79797
9.49531
-41.8651
-102.401
-71.5909
-71.3541
-64.3755
-72.0269
-67.2094
-67.3233
-54.3439
-53.4442
-53.6961
-53.6683
-35.2089
-36.1385
-35.8076
-35.3839
-34.4427
-35.1508
-34.9375
-34.6044
-44.9247
-51.3947
-47.8208
-47.3355
-39.124
-39.0043
-38.1169
-40.14
-36.4358
-36.8874
-37.5449
-36.1127
-38.9287
-45.9095
-43.5936
-42.4304
-45.3995
-41.7918
-44.0695
-42.8277
-71.067
-88.1637
-73.3017
-94.2379
-66.4853
-72.7139
-69.6763
-76.274
-46.9282
-46.8014
-50.3761
-47.7798
-46.3628
-45.5624
-50.1324
-47.2197
-67.0328
-55.6187
-57.1872
-51.1908
-66.2006
-72.6132
-69.5257
-76.2245
-66.9622
-55.5577
-57.1844
-51.2026
-46.2686
-45.472
-50.0605
-47.1384
-46.8275
-46.7717
-50.2988
-47.7178
-85.1477
-75.5547
-78.4096
-70.4008
-85.0993
-75.4674
-78.3804
-70.3585
-43.0972
-42.5985
-46.3646
-44.3147
-43.1478
-42.6375
-46.4144
-44.3464
-45.9214
-39.0516
-37.1915
-32.3908
-3.62359
5.04358
-4.24716
5.59282
-3.76384
5.23397
-4.18414
5.79301
-45.8696
-39.0382
-37.1608
-32.3762
141.465
157.265
153.415
159.078
163.34
169.224
164.153
166.565
158.348
157.177
165.842
169.49
159.413
142.359
160.461
154.694
-35.7166
-36.1797
-36.1513
-36.7262
-34.0821
-33.7888
-34.9037
-34.9481
-41.1097
-43.127
-40.1648
-41.9041
-45.9669
-47.9236
-43.5541
-45.2825
-35.5767
-36.0471
-36.0023
-36.5837
-45.8846
-47.8253
-43.4451
-45.1991
-40.8797
-42.9366
-39.9307
-41.7804
-33.8679
-33.5351
-34.6897
-34.7188
-35.4208
-36.2437
-35.4192
-35.9854
-36.1966
-35.3596
-35.9477
-35.3707
-34.8631
-34.3989
-34.8519
-34.5843
-34.492
-34.9542
-34.6514
-34.9147
-105.197
-46.9712
-89.6546
-66.977
-57.6573
-58.576
-64.4399
-64.4172
-58.6836
-57.6506
-64.4166
-64.7341
-46.3857
-105.545
-66.4373
-89.0305
-44.19
-40.2158
-46.3131
-44.4925
-45.0605
-44.2015
-44.9077
-46.7658
-47.6393
-47.5176
-47.2447
-47.614
-45.0003
-43.258
-46.0696
-44.6467
-43.4299
-39.5438
-45.4869
-43.7208
-44.2521
-42.647
-45.1302
-43.6945
-45.7311
-46.0513
-45.5779
-46.2317
-42.8924
-42.4138
-43.1499
-45.1497
-37.5944
-36.9926
-37.8408
-37.1394
-37.2602
-36.7613
-37.5365
-36.9272
-38.149
-38.943
-38.4461
-39.5019
-39.7747
-40.3902
-39.5225
-40.5502
-52.099
-53.0187
-52.4187
-53.0206
-45.9579
-51.353
-48.5695
-55.701
-45.7084
-51.1557
-48.4019
-55.5814
-51.7954
-52.887
-52.254
-52.9239
-38.6652
-37.4917
-36.9526
-34.654
-32.594
-34.402
-29.7174
-31.7242
-38.6308
-38.0027
-37.1313
-38.2154
-40.033
-40.098
-39.7972
-39.0322
-114.397
38.2479
-110.197
-54.6172
-86.2287
-91.5636
-51.1183
-41.4042
-43.1057
-42.2348
-48.3234
-43.0595
-100.452
67.8925
-81.1572
37.5715
-74.607
-61.2594
-50.3953
-42.0111
-43.9375
-41.5625
-48.4377
-50.2972
-110.425
-56.9704
-113.518
36.6749
-85.9004
-91.2485
-40.0041
-39.3472
-47.6999
-38.1778
-45.6144
-40.5577
-80.9947
39.1771
-100.038
68.4306
-74.7304
-61.2003
-43.1103
-40.4666
-48.2133
-40.0859
-46.9544
-49.7654
-41.5733
-40.4219
-35.209
-35.7008
-36.9025
-35.396
-38.9575
-36.8047
-43.5688
-37.6277
-31.7216
-34.2105
-29.8682
-29.2342
-35.2055
-37.3964
-49.9264
-25.3668
-49.4384
-51.5261
-55.0484
-71.4139
-12.7099
-71.9933
-45.6298
-46.6553
-43.5812
-44.1698
-45.4078
-48.6343
-50.0033
-48.8116
-41.5728
-40.3327
-38.8865
-36.7331
-35.0118
-35.6192
-36.8147
-35.2868
-43.1396
-37.1815
-35.0142
-37.1097
-31.3772
-33.9866
-29.5575
-28.7628
-49.6902
-24.6474
-11.5519
-69.9163
-49.2931
-51.5288
-55.0152
-71.9718
-45.3929
-46.4685
-49.8535
-48.6514
-43.3285
-43.8404
-45.3375
-48.5023
-103.064
78.1954
-99.8776
88.9641
-83.4898
-83.868
138.16
154.529
-117.427
12.234
-117.551
12.7198
-100.251
-100.273
-59.7977
-59.4178
-65.4681
-61.0986
-49.3965
-46.9026
-61.2583
-52.6773
-57.7866
-50.5718
-50.4918
-40.2688
-49.206
-40.8199
-47.8072
-48.149
-40.3181
-40.1854
-38.1118
-34.8921
-36.5939
-31.817
-37.3006
-37.9163
-30.9562
-28.9844
-49.5886
-42.6332
-43.4711
-39.756
-46.6785
-50.6281
-39.6399
-40.9776
-80.4129
65.6512
-80.3146
65.3984
-58.9207
-58.893
168.401
170.152
-47.3601
-34.7564
-46.2625
-25.4904
-51.6962
-51.9638
-28.1332
-21.3121
-42.1896
-41.9145
-41.9264
-41.7701
-43.0552
-42.9414
-41.4046
-41.5187
-48.5217
-50.2224
-47.5942
-48.4701
-48.4425
-48.2809
-49.9433
-51.9995
-102.703
76.248
-99.057
88.4441
-84.6349
-84.0704
154.5
139.365
-65.4023
-61.0172
-49.2748
-46.7348
-61.1814
-52.5751
-57.6888
-50.4631
-47.1537
-37.1348
-46.2484
-37.9906
-45.6189
-45.2385
-37.4509
-37.3571
-48.109
-41.4363
-42.6851
-39.0836
-45.7376
-49.2943
-39.0656
-40.1007
-47.3999
-34.6849
-46.2396
-25.3951
-51.9061
-51.5915
-21.299
-28.0998
-47.5484
-49.5339
-46.882
-47.8968
-47.3815
-47.4669
-51.3963
-49.5299
-34.6863
-34.3192
-33.9889
-33.8273
-35.2498
-34.7313
-34.3923
-34.1601
-38.4604
-37.4408
-42.1899
-41.9497
-42.0918
-42.2158
-38.2941
-40.4595
-40.1585
-38.05
-40.136
-38.027
-41.812
-41.8231
-37.6084
-37.5979
-33.6221
-33.8271
-38.147
-38.7582
-35.444
-37.0875
-35.6029
-38.4552
-36.1057
-37.608
-36.0542
-37.5219
-35.7534
-35.7766
-36.8842
-36.833
-52.2004
-61.2853
-48.163
-53.1999
-46.901
-48.5713
-66.2822
-60.1336
26.0948
4.66156
25.9607
4.86308
25.1061
25.0208
-16.8531
-16.783
-58.5544
-55.6519
-58.538
-55.6248
-61.4915
-61.4832
-55.1041
-55.0856
-34.5933
-34.2317
-33.818
-33.7441
-35.0962
-34.5643
-34.3116
-34.0771
-38.389
-37.3316
-42.1058
-41.8596
-42.14
-42.0229
-38.1809
-40.3421
-33.3449
-33.2318
-37.8294
-38.3538
-36.8093
-35.1653
-34.974
-38.0163
-52.1713
-61.3313
-48.2045
-53.092
-48.5171
-46.8534
-60.1239
-66.3705
-70.5304
-71.3227
-65.0782
-55.897
-56.7932
-66.6859
-54.2855
-54.4189
-70.48
-71.2942
-65.0328
-55.8426
-66.6952
-56.7817
-54.3642
-54.214
-67.2069
-67.1986
-61.8338
-53.6842
-61.8173
-53.6623
-50.5873
-50.5984
-24.8956
-24.8898
-20.1744
-9.95658
-9.9306
-20.1603
-3.53554
-3.52879
180.146
201.896
173.666
173.762
192.506