# vtk DataFile Version 2.0
tet_velo
ASCII
DATASET UNSTRUCTURED_GRID
POINTS 29498 float
-0.76595 0.255 -2.115
-0.723552 0.325 2.155
-0.760926 0.765 -2.055
-0.655 1.01459 2.175
0.76593 0.255 -2.115
0.724744 0.325 2.155
0.760678 0.765 -2.055
0.655 1.01459 2.175
-0.826812 0.203338 -0.691667
-0.831359 0.207992 0.731667
-0.807287 0.929866 -0.645
-0.768965 1.01005 0.765
0.827119 0.203416 -0.691667
0.831439 0.208701 0.731667
0.807034 0.929779 -0.645
0.76852 1.00969 0.765
-1.56282 -0.142001 -3.27075
-1.56956 -0.102616 -2.13743
-1.60744 -0.138956 -0.713748
-1.59932 -0.149517 0.712614
-1.52737 -0.0727851 2.13652
-1.50765 -0.0149225 3.27095
-1.51526 0.0303204 4.40334
-1.5619 0.176278 -3.24555
-1.56708 0.239375 -2.11368
-1.61408 0.223877 -0.692592
-1.5908 0.22111 0.729692
-1.48484 0.295054 2.15103
-1.4799 0.351285 3.28528
-1.50102 0.395805 4.41809
-1.55988 0.765595 -3.19139
-1.56078 0.826257 -2.05897
-1.59574 0.938465 -0.646975
-1.54469 0.994882 0.764075
-1.43346 1.01792 2.17632
-1.45242 1.07082 3.31112
-1.48927 1.12082 4.44609
-1.56448 1.76558 -3.12018
-1.56661 1.84455 -1.98976
-1.57397 1.97915 -0.582087
-1.56066 2.08623 0.822711
-1.53052 2.14181 2.23052
-1.5199 2.17785 3.36124
-1.525 2.21799 4.49475
-0.775554 -0.133763 -3.27161
-0.769332 -0.0907407 -2.13868
-0.806859 -0.148523 -0.713579
-0.821516 -0.159057 0.714299
-0.773472 -0.058447 2.13946
-0.760051 -0.00448942 3.27295
-0.766369 0.0356515 4.40449
-0.777992 0.177286 -3.24581
-0.741758 0.362688 3.28693
-0.757982 0.401158 4.41897
-0.777319 0.741178 -3.18974
-0.721058 1.07306 3.31086
-0.751659 1.12322 4.44603
-0.778928 1.74823 -3.11855
-0.778741 1.82781 -1.98796
-0.790393 1.9751 -0.581004
-0.793935 2.09129 0.822581
-0.781428 2.14518 2.22959
-0.774682 2.17936 3.36031
-0.777698 2.2191 4.49408
0.784892 -0.133752 -3.27161
0.797454 -0.09072 -2.13868
0.825324 -0.148398 -0.71358
0.805526 -0.158584 0.714299
0.733992 -0.0582727 2.13946
0.72472 -0.00436665 3.27295
0.72573 0.0357728 4.40449
0.771321 0.177288 -3.24581
0.711498 0.362766 3.28692
0.718159 0.401261 4.41897
0.767204 0.74117 -3.18974
0.687656 1.07311 3.31086
0.707366 1.12329 4.44603
0.786281 1.74821 -3.11855
0.79022 1.82778 -1.98796
0.779424 1.97504 -0.581004
0.744308 2.09121 0.822581
0.711108 2.14515 2.22959
0.706568 2.17937 3.36031
0.710711 2.21914 4.49408
1.57116 -0.141975 -3.27075
1.58538 -0.102573 -2.13743
1.62061 -0.138754 -0.713748
1.59941 -0.148907 0.712614
1.51541 -0.072368 2.13652
1.48606 -0.0146375 3.27095
1.48274 0.0305709 4.40334
1.55721 0.176283 -3.24555
1.56555 0.239376 -2.11368
1.6168 0.223971 -0.692592
1.60084 0.221698 0.729692
1.4963 0.295412 2.15103
1.46657 0.351516 3.28528
1.47037 0.396024 4.4181
1.55093 0.765575 -3.19139
1.55654 0.826213 -2.05897
1.59513 0.938341 -0.646975
1.5516 0.994775 0.764075
1.44225 1.01807 2.17632
1.43536 1.07095 3.31112
1.45386 1.12098 4.44609
1.56888 1.76554 -3.12018
1.57288 1.84449 -1.98976
1.56331 1.97904 -0.582087
1.52174 2.08611 0.822711
1.47455 2.14179 2.23052
1.46134 2.1779 3.36124
1.46383 2.21808 4.49475
-0.807338 0.51 -2.1289
-1.00136e-05 0.255945 -2.11406
-0.805226 0.220324 -1.40333
-0.74473 0.669795 2.22045
0.000596017 0.309445 2.17055
-0.77861 0.265341 1.44333
-0.000124007 0.845114 -2.13511
-0.822537 0.885863 -1.35
0 1.03662 2.19703
-0.751908 1.05225 1.47
0.80736 0.51 -2.12906
0.804869 0.220863 -1.40333
0.745638 0.669795 2.22077
0.785808 0.259133 1.44333
0.822411 0.885944 -1.35
0.75186 1.05224 1.47
-0.82621 0.208541 0.02
-0.880676 0.566602 -0.668334
0.000153105 0.204945 -0.691667
-0.884446 0.609021 0.748333
3.97465e-05 0.205627 0.731667
-0.787571 0.969403 0.0599999
-0.000126159 1.23061 -0.645
-0.000222354 1.43017 0.765
0.826585 0.208752 0.02
0.879929 0.566598 -0.668334
0.883729 0.609194 0.748333
0.787344 0.9693 0.0599999
-0.879838 0.538301 -1.37667
-0.883117 0.587812 0.04
-0.886549 0.639408 1.45667
7.15459e-05 0.221089 -1.40333
9.6426e-05 0.212276 0.02
0.000317882 0.263931 1.44333
-6.70105e-05 0.51 -2.37606
0.000298008 0.669795 2.3357
-0.000125083 0.963504 -1.35
-0.000174257 1.41813 0.0599999
-0.000111177 1.25263 1.47
0.879835 0.538299 -1.37667
0.882394 0.587896 0.04
0.886545 0.639495 1.45667
-1.16651 0.247187 -2.11434
-0.767641 0.0821296 -2.12684
-0.771971 0.216143 -2.68041
-1.1042 0.310027 2.15302
-0.748512 0.133276 2.14723
-0.732655 0.343844 2.72096
-1.16085 0.795628 -2.05698
-0.769122 0.753089 -2.62237
-0.769834 1.29641 -2.02148
-1.04423 1.01626 2.17566
-0.688029 1.04383 2.74293
-0.718214 1.57989 2.2023
0.781692 0.08214 -2.12684
0.768626 0.216144 -2.68041
1.16574 0.247188 -2.11434
0.729368 0.133364 2.14723
0.718121 0.343883 2.72096
1.11052 0.310206 2.15302
0.763941 0.753085 -2.62237
0.775449 1.29639 -2.02148
1.15861 0.795607 -2.05698
0.671328 1.04385 2.74293
0.683054 1.57987 2.2023
1.04862 1.01633 2.17566
-1.22044 0.213607 -0.692129
-0.816836 0.0274076 -0.702623
-1.21108 0.214551 0.730679
-0.826438 0.0244674 0.722983
-1.20151 0.934166 -0.645988
-0.79884 1.45248 -0.613002
-1.15683 1.00247 0.764537
-0.78145 1.55067 0.793791
0.826221 0.027509 -0.702623
1.22196 0.213694 -0.69213
0.818482 0.0250582 0.722983
1.21614 0.215199 0.730679
0.793229 1.45241 -0.613002
1.20108 0.93406 -0.645988
0.756414 1.55045 0.79379
1.16006 1.00223 0.764537
-1.56619 -0.122309 -2.70409
-1.56236 0.0171387 -3.25815
-1.16919 -0.137882 -3.27118
-1.5885 -0.120786 -1.42559
-1.56832 0.0683792 -2.12555
-1.16945 -0.0966785 -2.13805
-1.60338 -0.144237 -0.000567017
-1.61076 0.0424604 -0.70317
-1.20715 -0.143739 -0.713664
-1.56334 -0.111151 1.42457
-1.59506 0.0357961 0.721153
-1.21042 -0.154287 0.713457
-1.51751 -0.0438538 2.70373
-1.5061 0.111134 2.14377
-1.15042 -0.0656161 2.13799
-1.51146 0.00769897 3.83714
-1.49378 0.168181 3.27811
-1.13385 -0.00970595 3.27195
-1.50814 0.213063 4.41072
-1.14081 0.032986 4.40391
-1.56449 0.207826 -2.67961
-1.56089 0.470936 -3.21847
-1.16995 0.176782 -3.24568
-1.59058 0.231626 -1.40313
-1.56393 0.532816 -2.08632
-1.60244 0.222493 0.0185499
-1.60491 0.581171 -0.669784
-1.53782 0.258082 1.44036
-1.56775 0.607996 0.746883
-1.48237 0.323169 2.71815
-1.45915 0.656487 2.16368
-1.49046 0.373545 3.85169
-1.46616 0.71105 3.2982
-1.11083 0.356986 3.2861
-1.49515 0.758314 4.43209
-1.1295 0.398481 4.41853
-1.56033 0.795926 -2.62518
-1.56218 1.26559 -3.15579
-1.1686 0.753386 -3.19057
-1.57826 0.882361 -1.35297
-1.56369 1.3354 -2.02436
-1.57021 0.966673 0.0585498
-1.58485 1.45881 -0.614531
-1.48907 1.0064 1.4702
-1.55267 1.54055 0.793393
-1.44294 1.04437 2.74372
-1.48199 1.57987 2.20342
-1.47085 1.09582 3.87861
-1.48616 1.62433 3.33618
-1.08674 1.07194 3.31099
-1.50714 1.66941 4.47042
-1.12047 1.12202 4.44606
-1.56555 1.80507 -2.55497
-1.17171 1.7569 -3.11937
-1.57029 1.91185 -1.28592
-1.17267 1.83618 -1.98886
-1.56731 2.03269 0.120312
-1.18218 1.97712 -0.581545
-1.54559 2.11402 1.52662
-1.1773 2.08876 0.822646
-1.52521 2.15983 2.79588
-1.15597 2.1435 2.23006
-1.52245 2.19792 3.92799
-1.14729 2.17861 3.36077
-1.15135 2.21854 4.49441
-0.772443 -0.112252 -2.70515
-0.776773 0.0217615 -3.25871
0.00466888 -0.133757 -3.27161
-0.788096 -0.119632 -1.42613
0.0140612 -0.0907303 -2.13868
-0.814188 -0.15379 0.000359942
0.00923244 -0.148461 -0.713579
-0.797494 -0.108752 1.42688
-0.00799535 -0.158821 0.714299
-0.766761 -0.0314682 2.70621
-0.0197401 -0.0583599 2.13946
-0.76321 0.015581 3.83872
-0.750905 0.179099 3.27994
-0.0176655 -0.00442803 3.27295
-0.762175 0.218405 4.41173
-0.0203192 0.0357122 4.40449
-0.777655 0.459232 -3.21778
-0.00333533 0.177287 -3.24581
-0.74987 0.381923 3.85295
-0.731408 0.717875 3.29889
-0.01513 0.362727 3.28693
-0.75482 0.762188 4.4325
-0.0199115 0.401209 4.41897
-0.778124 1.2447 -3.15415
-0.00505763 0.741174 -3.18974
-0.736358 1.09814 3.87844
-0.74787 1.62621 3.33558
-0.0167011 1.07308 3.31086
-0.764678 1.67116 4.47006
-0.0221464 1.12325 4.44603
-0.778835 1.78802 -2.55326
0.00367651 1.74822 -3.11855
-0.784567 1.90146 -1.28448
0.0057394 1.82779 -1.98796
-0.792164 2.0332 0.120788
-0.00548491 1.97507 -0.581004
-0.787681 2.11824 1.52609
-0.0248134 2.09125 0.822581
-0.778055 2.16227 2.79495
-0.0351599 2.14517 2.22959
-0.77619 2.19923 3.92719
-0.0340568 2.17937 3.36031
-0.0334935 2.21912 4.49408
0.791173 -0.112236 -2.70515
0.778107 0.021768 -3.25871
1.17802 -0.137863 -3.27118
0.811389 -0.119559 -1.42613
1.19142 -0.0966463 -2.13805
0.815425 -0.153491 0.00035993
1.22297 -0.143576 -0.713664
0.769759 -0.108428 1.42688
1.20247 -0.153745 0.713457
0.729356 -0.0313197 2.70621
1.1247 -0.0653203 2.13799
0.725225 0.0157031 3.83872
0.718109 0.1792 3.27994
1.10539 -0.00950205 3.27195
0.721945 0.218517 4.41173
1.10424 0.0331719 4.40391
0.769262 0.459229 -3.21778
1.16427 0.176785 -3.24568
0.714828 0.382014 3.85295
0.699577 0.717936 3.29889
1.08903 0.357141 3.2861
0.712762 0.762275 4.4325
1.09426 0.398643 4.41853
0.776742 1.24469 -3.15415
1.15907 0.753373 -3.19057
0.697511 1.0982 3.87844
0.697112 1.62624 3.33558
1.06151 1.07203 3.31099
0.709038 1.67121 4.47005
1.08061 1.12214 4.44606
0.788251 1.78799 -2.55326
1.17758 1.75688 -3.11937
0.784822 1.90141 -1.28448
1.18155 1.83613 -1.98886
0.761866 2.03312 0.120788
1.17137 1.97704 -0.581546
0.727708 2.11818 1.52609
1.13302 2.08866 0.822646
0.708838 2.16226 2.79495
1.09283 2.14347 2.23006
0.708639 2.19926 3.92719
1.08396 2.17864 3.36077
1.08727 2.21861 4.49441
1.57827 -0.122274 -2.70409
1.56418 0.0171541 -3.25815
1.60299 -0.120664 -1.42559
1.57546 0.0684017 -2.12555
1.61001 -0.14383 -0.000567065
1.6187 0.0426085 -0.70317
1.55741 -0.110637 1.42457
1.60013 0.0363959 0.721153
1.50074 -0.0435027 2.70373
1.50586 0.111522 2.14377
1.4844 0.00796672 3.83714
1.47631 0.168439 3.27811
1.47656 0.213298 4.41072
1.56138 0.207829 -2.67961
1.55407 0.470929 -3.21847
1.59117 0.231674 -1.40313
1.56104 0.532795 -2.08632
1.60882 0.222835 0.0185498
1.60596 0.581156 -0.669784
1.54857 0.258555 1.44036
1.57622 0.608236 0.746883
1.48143 0.323464 2.71815
1.46927 0.656739 2.16368
1.46847 0.37377 3.85169
1.45096 0.711235 3.2982
1.46212 0.758503 4.43209
1.55373 0.795894 -2.62518
1.55991 1.26556 -3.15579
1.57583 0.882277 -1.35297
1.56471 1.33535 -2.02436
[...]
POINT_DATA 29498
VECTORS point_vectors float
-0.730583 -0.996182 1.65291
0.0134096 0.279083 0.765211
-1.05879 0.949615 2.1203
0.0418086 -0.0947538 0.423226
0.731018 -0.994594 1.6454
-0.00891282 0.277107 0.762588
1.06731 0.964533 2.15399
-0.0444573 -0.0892021 0.419179
0.0159389 -0.105573 2.03792
0.153691 -0.241049 3.93077
-1.84266e-18 -3.37214e-18 -4.40099e-17
0 0 0
-0.00592395 -0.106951 2.14548
-0.15095 -0.241661 3.85697
0 0 0
0 0 0
-0.575942 -0.273709 19.8705
-1.16118 -0.662553 20.5234
-0.438622 -0.369654 21.3296
0.0537859 -0.0665776 21.5048
0.530816 0.258705 21.3877
0.768221 0.353733 21.1631
0.793416 0.14164 20.6801
-0.673246 -0.203877 19.7702
-1.58248 -0.541068 20.5077
-0.561695 -0.422951 21.3995
0.068311 -0.151334 21.5825
0.816996 0.154423 21.4803
1.05869 0.212942 21.1057
1.03387 0.0279631 21.0995
-0.769313 0.0630189 19.7
-1.80412 0.128255 20.4385
-1.10789 -0.2707 21.4018
-0.165491 -0.28254 21.7376
0.788976 -0.400058 21.5008
1.01127 -0.483742 21.1692
0.791213 -0.302833 20.9525
-0.509843 0.337967 19.9437
-0.870889 0.57185 20.4009
-0.809711 0.407242 21.1224
-0.238216 -0.011295 21.4901
0.195727 -0.323383 21.3416
0.329525 -0.362399 21.1444
0.304958 -0.351246 20.7249
-0.590212 -0.595451 19.3158
-1.73054 -3.04014 20.7721
-0.429321 -0.461379 21.6731
0.0260478 0.143163 21.214
0.309307 1.01262 19.5343
0.578927 1.44324 18.1005
0.84582 0.805987 17.5277
-0.737531 -0.483623 19.0058
0.990727 1.72534 11.6051
1.56658 0.887894 12.6732
-0.953809 0.208907 18.6648
1.79228 -0.369224 11.2739
1.30698 -0.506407 16.8211
-0.46933 0.702762 19.6043
-0.93145 1.48056 20.149
-1.13109 1.47961 21.2505
-0.305107 0.176793 21.9188
0.127813 -0.519187 21.4647
0.240073 -0.579195 21.0182
0.116817 -0.464913 20.7199
0.590206 -0.587092 19.3235
1.78841 -2.92715 20.7251
0.417154 -0.434022 21.6267
-0.0210665 0.143667 21.1954
-0.26119 1.00056 19.3847
-0.444028 1.39289 17.9292
-0.855308 0.783203 16.8988
0.738136 -0.487646 18.9958
-0.82912 1.63296 10.4884
-1.57141 0.907703 11.9955
0.955728 0.208648 18.6427
-1.6516 -0.377786 10.0492
-1.29893 -0.464696 16.2097
0.472364 0.700928 19.6137
0.938452 1.46953 20.1528
1.12932 1.50291 21.2485
0.299873 0.188479 21.9396
-0.10993 -0.519327 21.4856
-0.230722 -0.612087 21.0262
-0.113836 -0.478502 20.47
0.576865 -0.272004 19.8789
1.16436 -0.630673 20.5391
0.431783 -0.368061 21.3199
-0.0540607 -0.067682 21.4997
-0.535324 0.267995 21.3944
-0.784777 0.361248 21.1395
-0.783914 0.174302 20.7933
0.682264 -0.206973 19.7683
1.58895 -0.538143 20.5106
0.558174 -0.419216 21.3958
-0.0613722 -0.149596 21.5766
-0.796377 0.142678 21.4852
-1.06031 0.212677 21.1268
-1.03307 0.0573484 21.2186
0.769271 0.0672094 19.6992
1.81099 0.123892 20.4472
1.10191 -0.27133 21.4113
0.168488 -0.282293 21.7371
-0.774254 -0.391367 21.4941
-1.00805 -0.487031 21.198
-0.871809 -0.312311 20.8238
0.510499 0.340287 19.9583
0.862707 0.56802 20.396
0.817329 0.410066 21.1246
0.243313 -0.0177016 21.5053
-0.19379 -0.330626 21.3326
-0.318039 -0.385493 21.106
-0.24984 -0.347804 20.821
-1.32398 -0.209257 2.63021
-0.000152541 -0.0157755 0.081295
-0.00586901 -0.0190343 0.626893
-0.00182381 0.000300257 -0.00053198
0.000207662 0.00308386 0.023985
-0.000189693 0.0229881 0.477071
-0.000134772 0.128268 0.376324
-0.124693 -0.0548056 0.293174
-0.0013032 0.0144855 -0.0670322
0.0413306 0.0359851 0.171661
1.33954 -0.207381 2.64573
0.00202936 -0.0146419 0.501922
0.00172453 0.000367978 -0.000651537
-0.00515698 0.0311531 0.694937
0.119464 -0.0523781 0.281157
-0.0416204 0.0362459 0.170796
0.0277027 0.0247921 3.25167
-2.40847e-05 -0.000348977 0.0243714
-1.67857e-05 0.00295241 0.0550166
-9.57091e-05 0.00391651 0.0246617
-4.32624e-05 0.000222248 0.0510111
0 0 0
1.40859e-05 0.021845 0.046447
-4.16801e-06 -0.000644479 0.0134687
-0.0262354 0.0277113 3.29549
2.15624e-05 -0.00032571 0.0239385
6.73699e-05 0.00386864 0.0246853
0 0 0
0 0 0
-7.8735e-05 0.00399165 0.0318071
0 0 0
1.07686e-05 -7.36129e-05 0.00197427
-2.50043e-05 -3.94457e-05 0.0194012
0 0 0
-0.000405679 -0.0264756 0.0109426
-5.6988e-19 1.13891e-17 -6.91505e-18
-0.000285719 0.00917414 0.105318
4.91886e-07 0.000207031 0.00253186
-1.00439e-06 0.000147415 -0.000362737
0 0 0
0.000122472 0.00406113 0.0318086
0 0 0
-3.04301 -1.44383 20.5312
-2.77291 -4.89699 21.0522
-2.15099 -1.65982 17.8361
1.21162 0.745497 18.7148
0.0938142 1.23649 13.3356
-0.0786588 1.28068 7.15978
-3.59893 0.624795 20.3829
-2.89307 1.12907 17.0636
-2.10691 2.56726 19.9851
1.37233 -0.14466 17.6808
0.734421 0.128728 5.84134
0.440559 -0.879048 20.0786
2.87568 -4.75704 21.0073
2.15445 -1.67005 17.8207
3.05703 -1.44916 20.5302
-0.00493479 1.19432 12.8249
0.239321 1.21955 6.69771
-1.20799 0.713507 18.8506
2.89522 1.13692 17.0275
2.10918 2.54988 19.9849
3.61184 0.636952 20.3815
-0.686468 0.167463 5.37656
-0.470488 -0.856065 19.4581
-1.36336 -0.140589 17.8729
-0.415244 -0.670754 21.6841
-0.217778 -0.15902 18.4393
0.21839 -0.136287 21.0384
0.27328 0.186381 17.4662
-1.86278 -0.887921 21.5858
-3.29719 2.16884 21.3523
-0.13181 -0.45806 20.3884
-0.489129 0.0833816 21.1296
0.200062 -0.150757 18.5106
0.416101 -0.670274 21.6893
-0.277571 0.185225 17.2983
-0.210633 -0.143228 21.0974
3.30945 2.20212 21.3437
1.86049 -0.894101 21.5818
0.459614 0.103716 20.9635
0.134499 -0.460051 20.4182
-0.942188 -0.497753 20.0354
-0.648113 -0.250095 19.8435
-0.648949 -0.432878 19.6023
-0.860022 -0.547187 21.1062
-1.34147 -0.630304 20.5143
-1.64468 -1.42159 20.541
-0.167266 -0.207581 21.4441
-0.505211 -0.392888 21.3586
-0.383558 -0.44482 21.5247
0.297008 0.107289 21.5206
0.0481837 -0.106378 21.5247
0.109793 0.00365483 21.6132
0.670066 0.332693 21.2374
0.672627 0.230171 21.4312
0.65943 0.628512 21.3662
0.796414 0.336138 20.6765
0.915514 0.309849 21.0945
0.979035 0.787064 21.0617
0.922927 0.0984842 20.9013
0.746489 0.629298 21.5779
-1.19731 -0.378643 19.9204
-0.762027 -0.0745466 19.7183
-0.77777 -0.369188 19.4391
-1.09495 -0.534639 21.1894
-1.75508 -0.246614 20.4857
-0.219187 -0.300216 21.5051
-0.798677 -0.443309 21.4063
0.394351 -0.0132936 21.6268
-0.0133859 -0.25299 21.706
0.985502 0.197271 21.2867
0.930111 -0.119438 21.4876
1.10149 0.132523 20.88
1.15583 -0.155416 21.106
1.50038 0.770032 18.6656
1.01673 -0.241266 21.112
1.28608 0.477033 18.105
-1.3949 0.136194 19.8392
-0.671659 0.273495 19.7961
-0.948339 0.131514 19.2517
-1.47364 -0.0935324 21.0714
-1.33896 0.52905 20.3703
-0.646806 -0.31591 21.6445
-1.14175 0.201574 21.2752
0.32301 -0.302601 21.727
-0.28754 -0.121005 21.6612
0.955426 -0.443428 21.2751
0.396842 -0.436923 21.4123
0.815466 -0.438765 21.1113
0.554111 -0.494853 20.9553
1.53061 -0.594006 19.609
0.453603 -0.361849 20.9132
1.29173 -0.510005 19.6021
-0.727207 0.491995 20.107
-0.54262 0.511833 19.7737
-0.909766 0.525682 20.7814
-0.989613 0.966972 20.2876
-0.565393 0.221999 21.4075
-1.07198 0.808834 21.2159
0.0226833 -0.198612 21.4296
-0.296835 0.0554546 21.708
0.286689 -0.370323 21.2065
0.175671 -0.421595 21.4076
0.419041 -0.425479 20.6609
0.319109 -0.559739 21.0812
0.208974 -0.4423 21.0638
-1.21932 -1.6239 19.1415
-0.663871 -0.539537 19.1608
0.00135574 -0.834379 18.9499
-0.862734 -1.25658 21.8778
0.0149722 -4.10085 21.3287
-0.183057 -0.129923 21.4049
0.00949661 -0.726754 21.5294
0.255047 0.575059 20.5873
-0.00322188 -0.039718 20.1609
0.382522 1.21083 19.4855
-0.0152302 0.537351 16.7639
0.553176 1.20744 19.3649
0.730411 1.89314 15.3976
-0.039166 0.779106 15.9097
1.21779 0.882294 14.6639
0.0651125 1.28838 15.0137
-0.914337 -0.168776 18.7398
-0.00487109 -0.715789 18.4431
1.3203 1.33081 12.182
2.1981 0.634321 7.55486
-0.039545 -0.0636275 -0.91257
1.77753 0.239294 12.6729
0.0914517 0.58311 6.88649
-0.74344 0.693217 19.1132
-0.00971086 0.356372 17.8503
1.66679 -0.699964 13.3137
0.662124 -0.994565 19.7119
0.0618483 -0.715915 -0.536989
0.462964 -0.849093 19.4401
0.036901 -1.73708 4.08547
-0.739108 1.17528 19.7182
0.002812 0.908413 19.3465
-1.10039 1.51679 20.6007
0.0101571 2.09639 19.9958
-0.786434 0.859506 21.8633
-0.0131623 2.49442 21.194
-0.00840266 -0.282682 21.7178
-0.00902337 0.383178 22.1537
0.198993 -0.615879 21.3469
0.00407378 -0.530938 21.5443
0.145103 -0.707057 20.8184
0.0122437 -0.753552 21.1154
-0.00596922 -0.658324 21.0785
1.22459 -1.58568 19.1636
0.664171 -0.537369 19.1596
0.646028 -0.432357 19.6034
0.887723 -1.22275 21.8716
1.62011 -1.35786 20.5387
0.179159 -0.12453 21.3999
0.382444 -0.441199 21.514
-0.241678 0.57489 20.3922
-0.108585 0.00403315 21.6129
-0.304616 1.18414 19.2543
-0.654093 0.670525 21.2627
-0.470434 1.27143 19.1429
-0.620315 1.8346 15.2222
-0.987796 0.85654 21.0792
-1.21254 0.851202 14.0186
-0.752213 0.693061 21.6487
0.917936 -0.169666 18.7201
0.782966 -0.369162 19.4322
-1.34956 1.37544 11.1019
-2.05778 0.568967 6.52645
-1.47331 0.844834 18.3403
-1.75118 0.261736 12.0373
-1.30711 0.511717 17.5605
0.741282 0.692894 19.1054
0.94789 0.132887 19.2418
-1.73059 -0.692288 12.1532
-0.602472 -1.06158 19.5386
-1.57914 -0.579108 19.3711
-0.47503 -0.888284 19.2968
-1.2958 -0.527989 19.5129
0.74219 1.16785 19.725
0.543114 0.506359 19.7759
1.10118 1.51665 20.601
0.988433 0.95497 20.2975
0.782341 0.904776 21.8839
1.0743 0.822081 21.2214
0.0119144 -0.282146 21.7311
0.306435 0.0707033 21.7274
-0.176652 -0.623239 21.3522
-0.165066 -0.439379 21.4213
-0.132558 -0.727345 20.9245
-0.314192 -0.578927 21.0739
-0.18752 -0.442349 21.056
0.939515 -0.493779 20.0393
0.654785 -0.245379 19.8495
0.850112 -0.533754 21.1008
1.34406 -0.607502 20.5135
0.162983 -0.20949 21.4416
0.50525 -0.387669 21.3511
-0.30085 0.112478 21.5255
-0.0458584 -0.107632 21.5217
-0.671333 0.351867 21.2516
-0.665738 0.230551 21.4364
-0.83215 0.341046 20.6324
-0.923169 0.312421 21.1199
-0.920459 0.130378 21.019
1.20463 -0.37753 19.9072
0.760425 -0.0726152 19.7187
1.09649 -0.53366 21.1945
1.77643 -0.249617 20.5067
0.223941 -0.29806 21.5004
0.796675 -0.439697 21.4113
-0.384196 -0.014002 21.6195
0.0172329 -0.252781 21.6985
-0.97475 0.197347 21.2917
-0.905826 -0.118431 21.4999
-1.14378 0.145039 20.7857
-1.17451 -0.162529 21.1334
-1.09506 -0.242466 21.0088
1.39073 0.136065 19.8424
0.675956 0.274479 19.8042
1.47399 -0.0984304 21.0832
1.33535 0.531326 20.3746
0.644287 -0.314979 21.6469
1.15008 0.196092 21.2832
-0.318735 -0.297267 21.7199
0.293236 -0.126029 21.6817
-0.95313 -0.442308 21.2792
-0.402837 -0.45219 21.4261
-0.819842 -0.451181 21.1139
-0.558818 -0.510109 20.9897
-0.410607 -0.365029 20.9589
0.720826 0.488613 20.0965
0.909881 0.525625 20.7806
0.583028 0.229831 21.411
-0.0309212 -0.202873 21.4679
-0.278335 -0.375253 21.2179
-0.363593 -0.452586 20.7611
-1.06159 -0.464389 19.9818
-1.64041 -1.77536 18.6124
-1.25766 -0.981881 19.651
-1.72354 -0.761605 19.303
-0.717428 -0.407726 19.5272
-2.27555 -1.59104 20.55
-0.96121 -0.563695 21.1258
-0.840197 -0.933354 19.9255
-0.919213 -0.89201 21.4182
-1.29851 -1.00671 21.7471
-0.382075 -0.524918 21.6235
-0.195343 -0.25126 21.463
0.0749099 0.0354101 17.397
-0.104422 -0.203765 21.567
-0.0295925 -0.380871 21.2779
0.193354 -0.0475203 21.551
0.325782 0.0608287 21.564
0.481411 0.611933 14.9857
0.385525 0.288259 21.602
0.618304 0.20346 20.0974
0.959028 0.725624 20.6848
0.834285 0.337892 21.275
0.265137 1.36176 14.3535
0.779889 0.769128 21.0573
1.41337 0.775052 19.4594
1.0921 0.807716 20.2091
0.980568 0.241571 20.7953
0.85067 1.2366 14.5032
0.963498 0.740875 21.037
1.67175 0.734381 19.3516
0.959386 0.528474 20.1268
-1.35784 -0.142191 19.8409
-2.86307 -0.507473 16.9382
-2.13401 0.377933 19.061
-0.924025 -0.124225 19.2683
-3.78312 -0.505187 20.4641
-1.32125 -0.385505 21.1844
-2.35578 -0.279067 21.4322
-0.852175 -0.979613 21.4841
-0.384449 -0.379304 21.5815
-0.880868 -0.816218 20.8963
0.14842 -0.175792 19.7086
0.40888 -0.151636 21.7254
0.689429 -0.042749 19.2273
1.41168 0.434458 16.412
1.10608 -0.125264 21.2555
0.270796 0.941263 3.46405
1.41662 -0.429225 19.0585
1.82588 0.174811 17.2754
1.02071 -0.180778 21.177
2.10845 0.577939 9.71575
1.53959 -0.568484 19.9849
1.51074 -0.164116 18.0415
-1.05669 0.449133 19.9661
-1.47322 1.6715 18.9446
-0.785993 0.795526 19.9334
-0.765965 0.453986 19.4907
-1.88299 1.20236 20.2236
-1.3136 0.372992 20.875
-2.27478 1.92692 20.5094
-1.09995 0.938954 20.7337
-1.95165 0.543559 21.4324
-0.753716 0.0334324 21.5868
-2.16881 0.794181 22.3387
-0.734718 0.440137 21.6376
-0.449723 -0.125575 22.0158
0.127498 -0.281833 21.6187
0.329662 -0.582673 20.3598
0.00636867 -0.244989 21.584
0.424959 -0.713951 21.5801
0.510799 -0.497326 21.2864
0.510983 -1.00462 20.3473
0.242682 -0.502332 21.2388
0.607848 -0.862459 21.2478
0.602075 -0.555327 20.8342
0.50781 -1.06732 19.6164
0.143238 -0.381741 21.1343
0.408627 -0.554206 20.3934
1.64632 -1.75194 18.6334
0.0181253 -2.55587 18.5009
-0.00969595 -3.22585 15.7367
0.00372359 -0.819146 18.6892
-0.00371337 -5.75356 22.9183
0.852265 -0.925151 20.1301
0.012809 -1.6643 22.2459
0.0117139 -0.289674 14.5077
-0.0799486 0.0392821 17.4174
0.00120416 -0.32143 20.4678
-0.00170243 0.0160555 12.9622
-0.482009 0.597174 14.7843
0.00190238 0.424784 18.5115
-0.0357014 0.375108 8.22032
-0.143223 1.32293 13.8219
-0.0319576 0.294548 16.2254
-0.0617335 -1.50538 -2.46005
-0.0674175 1.01833 7.36905
-0.768602 1.29758 14.2467
-0.0476707 1.33181 15.0851
-0.0235677 -0.931378 -0.78606
0.0758117 1.23828 11.7928
2.86873 -0.512503 16.9106
-0.0158702 2.71362 13.9595
-0.0069807 -0.277383 17.9435
-0.157975 0.959009 3.08696
0.00319565 -0.0230235 -1.03429
0.107648 -0.754939 -4.39265
-2.07803 0.524958 8.9357
0.0672866 -1.64979 1.47628
0.0957759 -0.58214 3.19529
1.47163 1.66704 18.942
0.00647055 1.62012 19.4478
-0.00154461 0.994778 18.6309
0.00754202 4.00029 19.7673
2.27247 1.92498 20.5091
0.000925109 2.26557 20.3892
-0.0154963 5.2475 20.5825
2.18927 0.83191 22.1609
-0.0288223 1.54482 22.1277
-0.00466491 0.335099 19.6853
-0.346627 -0.609868 20.1938
-0.00184536 -0.271896 21.7684
-0.00094341 -0.669371 14.8785
-0.475752 -1.00867 20.2419
0.0103224 -0.656666 21.3711
-0.00310767 -1.17428 17.0603
-0.535218 -1.09112 19.4067
0.00867153 -0.722108 20.7374
0.0316742 -1.14225 19.1412
1.06517 -0.458248 20.0027
1.24785 -0.94917 19.6726
1.73374 -0.76349 19.2934
0.719717 -0.408878 19.5255
2.26056 -1.54894 20.5425
0.952224 -0.53962 21.134
0.918979 -0.871446 21.4069
1.29827 -1.00435 21.7545
0.383824 -0.524422 21.6094
0.19514 -0.247567 21.4629
0.103722 -0.205798 21.5634
0.0356445 -0.384668 21.3105
-0.191084 -0.0491356 21.5424
-0.323561 0.0613204 21.5652
-0.384099 0.289705 21.6301
-0.607167 0.191489 20.2068
-0.951798 0.742908 20.5511
-0.836347 0.337684 21.2721
-0.772923 0.813809 21.0146
-1.3987 0.792983 19.2892
-1.06869 0.889666 19.8402
-1.03534 0.256141 20.6877
-0.936242 0.819712 21.185
-1.63949 0.81064 19.2887
-0.988784 0.563698 19.5994
1.3653 -0.141571 19.8451
2.15152 0.384858 19.0482
0.928628 -0.123584 19.2625
3.80014 -0.505185 20.4673
1.32609 -0.384117 21.1838
2.3561 -0.283423 21.4363
0.847817 -0.981676 21.4923
0.388732 -0.378204 21.5817
0.884303 -0.816509 20.923
-0.144718 -0.190841 19.8189
-0.402579 -0.149172 21.7297
-0.675617 -0.0567972 19.2993
-1.40049 0.416199 16.6115
-1.09677 -0.124024 21.2697
-1.42878 -0.402395 18.8741
-1.87365 0.212582 16.6649
-1.0653 -0.191324 21.0798
-1.5782 -0.594502 19.6852
-1.53315 -0.119685 17.4874
1.06045 0.44983 19.9698
0.787344 0.787716 19.9462
0.762071 0.455613 19.484
1.87584 1.19379 20.2225
1.31628 0.373639 20.8839
1.09942 0.939291 20.7377
1.96007 0.54876 21.4293
0.763962 0.0293348 21.5943
0.747553 0.466698 21.656
0.462673 -0.119431 22.0367
-0.126263 -0.296279 21.6254
-0.00682582 -0.248116 21.5907
-0.415003 -0.731705 21.6046
-0.51976 -0.524905 21.2605
-0.233506 -0.528377 21.2687
-0.597758 -0.882772 21.3232
-0.664459 -0.56394 20.8341
-0.126776 -0.404989 21.1364
-0.415622 -0.595956 20.2473
-1.4656 -0.942702 19.5011
-1.08022 -0.952891 21.5579
-0.0477408 -0.26136 21.5805
0.548849 0.269437 21.2017
1.14722 0.857524 20.5132
1.29408 0.654516 20.178
-2.10204 -0.254676 19.0468
-1.82271 -0.843104 21.8492
-0.213034 -0.65308 20.5117
0.618482 0.265761 18.569
1.64403 0.248337 17.8396
1.65189 0.0462498 17.7614
-1.3655 0.907451 19.5652
-1.90106 0.843889 20.8423
-1.22892 0.142316 21.9708
0.142416 -0.451155 21.86
0.549604 -0.802163 21.321
0.684541 -0.790132 20.6795
0.0113127 -3.07852 17.4573
0.0061892 -1.01066 16.4047
0.00104589 -0.0893315 13.0481
-0.000767896 0.428151 10.1455
-0.165989 -0.444955 6.34386
-0.0501856 0.618103 6.60814
-0.0108359 -0.84177 13.7663
0.00981562 -0.830194 -3.77349
0.180826 -0.799664 0.693256
0.00190098 2.76875 18.2005
-0.0001783 3.42094 19.8731
-0.0244519 2.57261 21.5568
0.00342057 -0.53005 16.3876
-0.00182985 -0.813167 15.9674
0.00587539 -1.13694 17.7483
1.46559 -0.928961 19.5054
1.08433 -0.943306 21.5475
0.0496058 -0.264105 21.5766
-0.543217 0.269166 21.1645
-1.12183 0.887841 20.2973
-1.26686 0.731235 20.1286
2.12 -0.256784 19.0352
1.8191 -0.846302 21.8569
0.21712 -0.657537 20.5707
-0.616979 0.241018 18.7247
-1.62323 0.2792 17.5016
-1.68312 0.0874841 17.0935
1.36296 0.905792 19.5635
1.90008 0.844168 20.8389
1.25184 0.156668 21.982
-0.142801 -0.462053 21.8829
-0.550798 -0.823251 21.3269
-0.614191 -0.822688 20.8195
-0.853239 -0.186879 1.41563
-0.0030311 -0.0238831 0.11508
-0.0340288 -0.0180478 0.545358
0.018095 0.0335672 0.0455477
-0.0162409 0.00831765 0.0578356
-0.0739439 0.0768226 0.806246
-0.678973 0.0631136 1.06116
-0.023548 0.313744 0.609777
-0.472795 0.0550472 1.81237
-0.0115762 0.00435624 -0.00319544
0.000383649 0.00932245 -0.0458955
-0.000562065 -0.00121064 0.00524902
0.00290187 -0.0259517 0.123997
0.813512 -0.175397 1.36021
0.0337076 -0.0148397 0.486608
0.0174488 0.00845487 0.0609023
-0.0164337 0.0359134 0.0434289
0.128963 0.112941 1.10097
0.0241939 0.310944 0.60504
0.777363 0.0726432 1.21736
0.472614 0.0566182 1.81111
-0.00238823 0.00988042 -0.0470044
0.0120687 0.00508561 -0.00373264
0.000539821 -0.00123794 0.0054345
-0.112432 0.00877719 1.09705
0.072283 -0.0195587 3.17382
0 0 0
0.00129971 0.00132356 0.0358244
0.0233986 0.0451524 0.717482
0.0599345 0.0273534 3.51577
0 0 0
0.000145717 -0.000405895 0.00824253
-0.146348 -0.109542 0.388845
-0.00320554 -0.00609478 0.187682
0 0 0
-0.0167151 0.0172271 0.0411476
0 0 0
0.00705922 0.0183598 0.0885168
0 0 0
0.0242144 -0.00384594 0.160991
0.0776173 0.038351 1.3163
-0.00143934 0.00132238 0.036017
-0.0688324 -0.0155311 3.2213
0 0 0
-0.0507665 0.0676145 1.01372
-4.27289e-05 -8.66001e-05 0.0030662
-0.0569508 0.0305222 3.5545
0 0 0
0.146107 -0.109473 0.387251
0.012826 0.0132134 0.0314552
0.00322298 -0.00607362 0.186703
0 0 0
0 0 0
-0.0238833 -0.0038992 0.158954
-0.00710269 0.0184997 0.0885933
0 0 0
-0.151642 -0.128061 1.33583
-0.166991 -0.0342778 0.0880422
-2.88131e-08 1.15298e-06 -2.33205e-05
-0.000141467 -0.0794939 0.0162023
0 0 0
0.000745166 -0.00205705 0.0543671
0 0 0
0 0 0
0 0 0
-0.000208573 -0.000517626 -0.000433572
0 0 0
0 0 0
0.00241367 0.0733475 0.0366505
-7.43281e-06 0.00906144 0.0584502
0 0 0
-0.0153219 0.00400882 0.0446607
0 0 0
0 0 0
0.00551528 0.00675938 0.0563655
0 0 0
0.166195 -0.0331465 0.0875596
0.149136 -0.130792 1.33045
-0.000195158 -0.000936267 0.0262106
0 0 0
0 0 0
-0.000892711 0.000770036 0.00755516
0 0 0
-0.000575306 0.00248244 0.0233242
0.0116593 0.00305457 0.033772
0 0 0
0 0 0
-0.00561877 0.00698126 0.057232
-6.96829e-05 0.00072403 0.0102943
0 0 0
0.000267523 -0.00155482 0.0125281
-7.77557e-06 0.000819344 0.00885294
0.000580924 -0.0129664 0.203489
-1.31513e-05 4.35247e-05 0.0132273
-0.000142969 0.0063971 0.0444892
-0.000938375 0.00485718 0.0424914
-1.71206e-05 1.05371e-05 0.0120412
-4.81846e-07 5.10951e-05 0.000685529
0.00262178 0.0598437 0.329722
-0.0163809 0.0264574 0.295728
3.6057e-06 0.00924105 0.0371996
-2.82054e-05 0.0727595 0.23237
-2.18096e-05 0.0027599 0.0891871
-3.09818e-05 -0.00677322 0.0328329
0 0 0
6.42312e-05 0.000665023 0.00927947
-0.000315575 -0.00180582 0.0144378
2.63617e-05 0.000948877 0.0101172
6.19885e-05 0.00653124 0.0458261
0.000987869 0.00560523 0.0492322
0.0164436 0.0267107 0.298656
-0.00288667 0.0600997 0.331746
-3.66446e-18 -1.40419e-17 1.8927e-16
0 0 0
0.00141455 -0.0194425 0.450928
0 0 0
-4.99008e-06 6.90411e-05 0.00148239
0.0164537 0.0797701 0.413957
-3.12594e-05 0.000289113 0.00364205
0.00485833 0.0424632 0.194183
-0.000239484 0.00257922 0.0698519