# vtk DataFile Version 2.0
tet_velo
ASCII
DATASET UNSTRUCTURED_GRID
POINTS 29498 float
-0.665 0.165 -1.86046
-0.624986 0.235 1.905
-0.685 0.545 -1.70807
-0.665 0.635 1.90479
0.665 0.165 -1.86046
0.624982 0.235 1.905
0.685 0.545 -1.70807
0.665 0.635 1.90479
-0.685326 0.154669 -0.605307
-0.695216 0.154774 0.649847
-0.837647 0.734314 -0.503783
-0.829632 0.762965 0.700503
0.685331 0.154663 -0.605307
0.695215 0.154773 0.649847
0.838333 0.734999 -0.503783
0.829629 0.762962 0.700503
-1.42068 -0.144304 -2.89151
-1.41326 -0.0947826 -1.90776
-1.42755 -0.0972419 -0.651291
-1.41399 -0.100626 0.615415
-1.35543 -0.0547145 1.87274
-1.34323 -0.0413082 2.86072
-1.35242 -0.0423873 3.84087
-1.4177 0.0922343 -2.8336
-1.41817 0.163371 -1.85541
-1.4516 0.179114 -0.608837
-1.42878 0.165088 0.642312
-1.33448 0.188969 1.88986
-1.32903 0.199688 2.87711
-1.34669 0.201247 3.85893
-1.42961 0.540859 -2.70351
-1.45608 0.611637 -1.72321
-1.56228 0.739268 -0.511318
-1.53552 0.743061 0.696973
-1.3898 0.657395 1.90984
-1.36233 0.666757 2.8992
-1.36948 0.686096 3.88922
-1.44669 1.33706 -2.54661
-1.46908 1.41816 -1.57394
-1.52203 1.53282 -0.378534
-1.54576 1.56719 0.805905
-1.51356 1.51985 2.00184
-1.47519 1.49007 2.97563
-1.44941 1.48599 3.96009
-0.702403 -0.14593 -2.89479
-0.685635 -0.0941591 -1.91255
-0.694745 -0.110767 -0.650649
-0.701234 -0.106681 0.621845
-0.667482 -0.0299013 1.88399
-0.653819 -0.0258764 2.86835
-0.656969 -0.0362787 3.84529
-0.695976 0.0839493 -2.83461
-0.636476 0.213805 2.8834
-0.650253 0.205349 3.86226
-0.69899 0.510794 -2.69722
-0.659093 0.659734 2.89819
-0.666487 0.681801 3.889
-0.698814 1.31943 -2.54039
-0.707995 1.40316 -1.56708
-0.755005 1.53246 -0.374403
-0.795128 1.57209 0.80541
-0.786595 1.51598 1.9983
-0.756103 1.48277 2.97209
-0.732714 1.47958 3.95752
0.692543 -0.145849 -2.89479
0.684096 -0.0941171 -1.91255
0.695931 -0.110743 -0.650649
0.688747 -0.10667 0.621845
0.646184 -0.0298943 1.88399
0.681605 -0.0258621 2.86835
0.711041 -0.0362531 3.84529
0.689922 0.0840187 -2.83461
0.684672 0.213814 2.8834
0.714058 0.205372 3.86226
0.709533 0.510886 -2.69722
0.695268 0.659746 2.89819
0.714426 0.681827 3.889
0.781568 1.31963 -2.54039
0.79896 1.40339 -1.56708
0.793275 1.53272 -0.374403
0.740967 1.57223 0.805409
0.689948 1.51605 1.9983
0.687293 1.48282 2.97209
0.699041 1.47963 3.95752
1.40561 -0.144093 -2.89151
1.40223 -0.0945872 -1.90776
1.42243 -0.0970915 -0.651291
1.40928 -0.100573 0.615414
1.35424 -0.0546852 1.87274
1.37202 -0.0412683 2.86072
1.40335 -0.0423285 3.84087
1.40507 0.0924512 -2.8336
1.40574 0.163617 -1.85541
1.44544 0.179348 -0.608837
1.43265 0.165128 0.642312
1.34772 0.188986 1.88986
1.3708 0.19972 2.87711
1.40462 0.201302 3.85893
1.43537 0.541134 -2.70351
1.4543 0.61202 -1.72321
1.56076 0.73994 -0.511318
1.53594 0.743173 0.696973
1.39528 0.657419 1.90984
1.39079 0.666796 2.8992
1.41184 0.686157 3.88922
1.51779 1.33745 -2.54661
1.54122 1.41862 -1.57394
1.5507 1.53329 -0.378534
1.50319 1.56747 0.805905
1.43733 1.52 2.00184
1.41753 1.49018 2.97563
1.41982 1.4861 3.96009
-0.66718 0.355 -1.77645
0 0.165585 -1.85987
-0.679142 0.155855 -1.23288
-0.663092 0.435 1.92299
-1.99676e-06 0.227361 1.91264
-0.657316 0.197673 1.27742
0 0.615673 -1.77874
-0.828158 0.706491 -1.10593
0 0.716324 1.98611
-0.802014 0.753681 1.30265
0.667255 0.355 -1.77652
0.679147 0.155851 -1.23288
0.663102 0.435 1.92301
0.657267 0.197718 1.27742
0.828176 0.706509 -1.10593
0.802011 0.753678 1.30265
-0.689535 0.155458 0.02227
-0.847501 0.444492 -0.554545
2.41113e-06 0.15352 -0.605307
-0.859594 0.45887 0.675175
-9.07068e-07 0.152261 0.649847
-0.832143 0.747143 0.09836
0.000342596 0.978107 -0.503783
-1.41719e-06 1.20323 0.700503
0.689537 0.155454 0.02227
0.847506 0.444831 -0.554545
0.859595 0.458868 0.675175
0.832863 0.747863 0.09836
-0.844423 0.399746 -1.16941
-0.833518 0.451681 0.060315
-0.872976 0.446935 1.29004
1.20557e-06 0.156729 -1.23288
7.52034e-07 0.153056 0.02227
-1.45191e-06 0.195466 1.27742
0 0.355 -1.95878
-9.98378e-07 0.435 2.05172
0.000171298 0.823651 -1.10593
0.000170589 1.24161 0.09836
-7.08594e-07 1.02401 1.30265
0.84442 0.399916 -1.16941
0.832728 0.451849 0.060315
0.872977 0.446934 1.29004
-1.04159 0.164185 -1.85793
-0.675317 0.0354204 -1.8865
-0.680488 0.124475 -2.34754
-0.979731 0.211985 1.89743
-0.646234 0.102549 1.89449
-0.630731 0.224402 2.3942
-1.07054 0.578319 -1.71564
-0.691995 0.527897 -2.20264
-0.696498 0.974078 -1.63758
-1.0274 0.646198 1.90732
-0.662046 0.647367 2.40149
-0.725798 1.07549 1.95154
0.674548 0.0354415 -1.8865
0.677461 0.124509 -2.34754
1.03537 0.164309 -1.85793
0.635583 0.102553 1.89449
0.654827 0.224407 2.3942
0.986349 0.211993 1.89743
0.697266 0.527943 -2.20264
0.74198 0.974197 -1.63758
1.06965 0.57851 -1.71564
0.680134 0.647373 2.40149
0.677474 1.07553 1.95154
1.03014 0.64621 1.90732
-1.06846 0.166892 -0.607072
-0.690035 0.021951 -0.627978
-1.062 0.159931 0.64608
-0.698225 0.0240469 0.635846
-1.19996 0.736791 -0.507551
-0.796326 1.13339 -0.439093
-1.18257 0.753013 0.698738
-0.81238 1.16753 0.752957
0.690631 0.0219603 -0.627978
1.06538 0.167006 -0.607072
0.691981 0.0240517 0.635846
1.06393 0.15995 0.64608
0.815804 1.13386 -0.439093
1.19954 0.737469 -0.507551
0.785298 1.1676 0.752956
1.18279 0.753067 0.698738
-1.41697 -0.119543 -2.39964
-1.41919 -0.0260348 -2.86256
-1.06154 -0.145117 -2.89315
-1.42041 -0.0960122 -1.27953
-1.41572 0.034294 -1.88158
-1.04945 -0.0944709 -1.91015
-1.42077 -0.098934 -0.0179384
-1.43958 0.0409359 -0.630064
-1.06115 -0.104005 -0.65097
-1.38471 -0.0776703 1.24408
-1.42139 0.0322311 0.628864
-1.05761 -0.103653 0.61863
-1.34933 -0.0480114 2.36673
-1.34496 0.0671274 1.8813
-1.01146 -0.0423079 1.87837
-1.34782 -0.0418478 3.3508
-1.33613 0.0791898 2.86892
-0.998526 -0.0335923 2.86453
-1.34955 0.07943 3.8499
-1.00469 -0.039333 3.84308
-1.41794 0.127802 -2.3445
-1.42365 0.316547 -2.76856
-1.05684 0.0880918 -2.83411
-1.43488 0.171242 -1.23212
-1.43712 0.387504 -1.78931
-1.44019 0.172101 0.0167377
-1.50694 0.459191 -0.560077
-1.38163 0.177029 1.26609
-1.48215 0.454074 0.669643
-1.33175 0.194329 2.38349
-1.36214 0.423182 1.89985
-1.33786 0.200468 3.36802
-1.34568 0.433223 2.88816
-0.982752 0.206746 2.88026
-1.35809 0.443672 3.87407
-0.998473 0.203298 3.86059
-1.44284 0.576248 -2.21336
-1.43815 0.938959 -2.62506
-1.0643 0.525827 -2.70036
-1.50918 0.675453 -1.11726
-1.46258 1.0149 -1.64857
-1.5489 0.741164 0.0928278
-1.54216 1.13604 -0.444926
-1.46266 0.700228 1.30341
-1.54064 1.15513 0.751439
-1.37607 0.662076 2.40452
-1.45168 1.08862 1.95584
-1.36591 0.676427 3.39421
-1.41876 1.07841 2.93741
-1.01071 0.663246 2.8987
-1.40945 1.08604 3.92465
-1.01798 0.683949 3.88911
-1.45788 1.37761 -2.06028
-1.07275 1.32824 -2.5435
-1.49556 1.47549 -0.976235
-1.08854 1.41066 -1.57051
-1.53389 1.55001 0.213686
-1.13852 1.53264 -0.376468
-1.52966 1.54352 1.40387
-1.17044 1.56964 0.805657
-1.49438 1.50496 2.48873
-1.15008 1.51792 2.00007
-1.4623 1.48803 3.46786
-1.11565 1.48642 2.97386
-1.09106 1.48278 3.95881
-0.694019 -0.120045 -2.40367
-0.699189 -0.0309904 -2.8647
-0.00492969 -0.14589 -2.89479
-0.69019 -0.102463 -1.2816
-0.000769358 -0.0941381 -1.91255
-0.697989 -0.108724 -0.014402
0.00059327 -0.110755 -0.650649
-0.684358 -0.0682909 1.25292
-0.00624383 -0.106675 0.621845
-0.660651 -0.0278888 2.37617
-0.0106488 -0.0298978 1.88399
-0.655394 -0.0310776 3.35682
-0.645148 0.093964 2.87587
0.013893 -0.0258693 2.86835
-0.653611 0.0845353 3.85377
0.0270356 -0.0362659 3.84529
-0.697483 0.297372 -2.76592
-0.0030271 0.083984 -2.83461
-0.643365 0.209577 3.37283
-0.647785 0.436769 2.8908
0.0240979 0.213809 2.8834
-0.65837 0.443575 3.87563
0.0319022 0.205361 3.86226
-0.698902 0.915111 -2.61881
0.00527139 0.51084 -2.69722
-0.66279 0.670767 3.3936
-0.707598 1.07125 2.93514
0.0180876 0.65974 2.89819
-0.6996 1.08069 3.92326
0.0239695 0.681814 3.889
-0.703405 1.36129 -2.05374
0.0413768 1.31953 -2.54039
-0.7315 1.46781 -0.970743
0.0454826 1.40328 -1.56708
-0.775066 1.55227 0.215503
0.0191351 1.53259 -0.374403
-0.790861 1.54404 1.40185
-0.0270805 1.57216 0.80541
-0.771349 1.49938 2.4852
-0.0483233 1.51602 1.9983
-0.744408 1.48117 3.46481
-0.0344046 1.48279 2.97209
-0.0168363 1.47961 3.95752
0.68832 -0.119983 -2.40367
0.691233 -0.0309153 -2.8647
1.04907 -0.144971 -2.89315
0.690013 -0.10243 -1.2816
1.04316 -0.0943522 -1.91015
0.692339 -0.108706 -0.014402
1.05918 -0.103917 -0.65097
0.667465 -0.0682821 1.25292
1.04901 -0.103622 0.61863
0.663895 -0.0278782 2.37617
1.00021 -0.0422897 1.87837
0.696323 -0.0310576 3.35682
0.683139 0.0939762 2.87587
1.02681 -0.0335652 2.86453
0.712549 0.0845595 3.85377
1.0572 -0.0392908 3.84308
0.699727 0.297453 -2.76592
1.0475 0.088235 -2.83411
0.699365 0.209593 3.37283
0.68997 0.43678 2.8908
1.02773 0.206767 2.88026
0.714242 0.443599 3.87563
1.05934 0.203337 3.86059
0.74555 0.915256 -2.61881
1.07245 0.52601 -2.70036
0.704847 0.670786 3.3936
0.691281 1.07128 2.93514
1.04303 0.663271 2.8987
0.706733 1.08073 3.92326
1.06313 0.683992 3.88911
0.790264 1.36151 -2.05374
1.14968 1.32854 -2.5435
0.796118 1.46806 -0.970744
1.17009 1.41101 -1.57051
0.767121 1.55247 0.215503
1.17199 1.533 -0.376469
0.715458 1.54414 1.40185
1.12208 1.56985 0.805657
0.688621 1.49943 2.4852
1.06364 1.51802 2.00007
0.693167 1.48123 3.46481
1.05241 1.4865 2.97386
1.05943 1.48286 3.95881
1.40392 -0.11934 -2.39963
1.40534 -0.0258209 -2.86256
1.41233 -0.0958394 -1.27953
1.40398 0.034515 -1.88158
1.41585 -0.0988324 -0.0179384
1.43393 0.0411281 -0.630064
1.38176 -0.0776292 1.24408
1.42096 0.0322772 0.628863
1.36313 -0.0479767 2.36673
1.35098 0.0671505 1.8813
1.38769 -0.0417984 3.3508
1.37141 0.0792257 2.86892
1.40399 0.0794865 3.8499
1.40541 0.128034 -2.3445
1.42022 0.316793 -2.76855
1.42559 0.171483 -1.23212
1.43002 0.387819 -1.78931
1.43905 0.172238 0.0167376
1.5031 0.459644 -0.560077
1.39018 0.177057 1.26609
1.4843 0.45415 0.669643
1.35926 0.194353 2.38349
1.3715 0.423203 1.89985
1.38771 0.200511 3.36802
1.38079 0.433258 2.88816
1.40823 0.443729 3.87407
1.44484 0.576577 -2.21336
1.47658 0.939294 -2.62506
1.50753 0.67598 -1.11726
[...]
POINT_DATA 29498
VECTORS point_vectors float
-4.83141 -6.58795 10.2148
0.0654045 0.216694 1.08962
-0.79869 0.364399 1.343
-0.0102659 -0.128989 0.11393
4.84894 -6.58372 10.2472
-0.0656421 0.215613 1.08712
0.785965 0.358286 1.32128
0.0102215 -0.128943 0.113996
0 0 0
0 0 0
-0.179385 -0.229059 1.01712
0.014173 0.0434119 0.12652
0 0 0
0 0 0
0.198998 -0.244307 1.09398
-0.0144283 0.0435926 0.12476
-0.530737 -0.264627 19.8104
-1.22837 -0.761221 20.2343
-0.557113 -0.630975 21.2585
0.0604837 -0.287998 21.4681
0.82432 0.124211 21.4114
1.10595 0.227319 20.9954
1.09546 0.139529 20.4217
-0.659404 -0.211541 19.7143
-1.63205 -0.626828 20.1811
-0.760776 -0.654631 21.3122
-0.0180255 -0.403241 21.5491
1.0033 -0.0967189 21.4711
1.28135 -0.0559136 21.1183
1.46398 -0.0402265 19.9698
-0.802535 -0.00846554 19.6554
-1.86594 0.0020368 20.2308
-1.12816 -0.316894 21.2223
-0.267209 -0.388213 21.525
0.751383 -0.634566 21.4223
1.08425 -0.629812 21.0591
0.900961 -0.388942 20.9154
-0.670246 0.367923 19.8175
-1.12719 0.592885 20.2836
-0.99597 0.329286 21.0229
-0.400524 -0.0807149 21.3318
0.0545552 -0.418202 21.1996
0.286515 -0.570265 20.9978
0.324451 -0.60495 20.6936
-0.503644 -0.52862 19.3132
-1.77833 -3.47879 20.107
0.0205499 -0.40992 20.7931
0.217588 0.139047 19.3985
0.473784 1.33256 17.4343
1.08794 1.71688 18.4986
0.953561 1.50519 19.422
-0.661532 -0.485413 19.009
1.62838 1.62316 11.9841
1.67267 1.26572 15.1558
-0.969575 0.0249811 18.5352
1.62658 -0.569487 5.93443
1.85914 0.0141523 11.112
-0.663279 0.855291 19.2507
-1.40321 1.98681 19.8851
-1.82812 1.82417 21.0991
-0.687344 0.20513 21.8568
-0.358346 -0.489433 21.5773
-0.0220233 -0.947458 20.4772
-0.029004 -0.840808 20.298
0.498854 -0.53219 19.3097
1.77936 -3.47952 20.1073
-0.0218977 -0.413404 20.7932
-0.211531 0.149675 19.3362
-0.436866 1.32259 17.3156
-1.1568 1.67621 18.6339
-0.959854 1.34953 19.6294
0.662106 -0.48532 19.0038
-1.74771 1.60529 12.857
-1.68608 1.08426 15.3961
0.980141 0.0247613 18.5525
-1.66774 -0.589286 7.16129
-1.77629 -0.172929 12.0686
0.702979 0.796061 19.3071
1.4646 1.80897 19.9495
1.81039 1.69043 21.1125
0.686038 0.237418 21.8799
0.382923 -0.413565 21.1272
-0.00182275 -0.924163 19.9682
0.0494711 -0.850286 20.2348
0.535763 -0.269772 19.8007
1.24564 -0.778539 20.2308
0.555574 -0.63577 21.2622
-0.0628831 -0.289322 21.4725
-0.822086 0.12005 21.4127
-1.06814 0.214782 21.0001
-1.00351 0.110598 20.5032
0.65887 -0.213742 19.7109
1.66635 -0.643891 20.1776
0.763528 -0.66226 21.3166
0.0183265 -0.402257 21.5456
-0.976563 -0.112501 21.4912
-1.22299 -0.0688852 21.1052
-1.29532 -0.0995101 20.1895
0.802285 -0.00879361 19.6592
1.87095 0.00329339 20.2274
1.13008 -0.316976 21.2219
0.266105 -0.387017 21.5255
-0.743691 -0.625001 21.4173
-1.04498 -0.609786 21.0418
-0.85733 -0.388709 20.9003
0.644559 0.326018 19.8665
1.0647 0.509702 20.3113
0.966871 0.312736 21.0158
0.414033 -0.0785176 21.3518
-0.0252787 -0.447808 21.2155
-0.284163 -0.610242 21.0258
-0.333368 -0.600885 20.6602
-2.90938 -0.202224 2.11583
2.31725e-05 -0.0140401 0.113588
-0.00891942 0.00123157 0.139514
0.0390054 -0.0290424 0.0540104
0.000429057 0.0825005 0.401894
0.00321962 0.0104984 0.261155
1.7818e-05 0.0962351 0.228657
-0.202044 -0.0286229 0.813459
-0.000247306 0.00234997 -0.00813115
0.00206747 -0.0307071 0.238196
2.87575 -0.213655 2.09455
0.00886819 0.00122537 0.139661
-0.0391264 -0.0291815 0.0543416
-0.00315429 0.010507 0.260016
0.202707 -0.0288012 0.816194
-0.00193404 -0.0309293 0.238588
0.00123528 -5.98256e-05 0.0922708
0.0171295 -0.0225924 0.271695
-9.29306e-07 -8.60162e-06 0.00380208
-0.00135439 0.000585106 0.014732
0 0 0
0.0492699 0.107857 0.492471
2.63278e-06 0.0198624 0.046418
-1.73779e-07 -0.000234968 0.00192539
-0.00129599 -6.53984e-05 0.0913182
-0.0190098 -0.0236757 0.283143
0.00129897 0.000568843 0.0141109
-0.0451475 0.117087 0.509088
-0.000463368 -0.00143476 0.0157171
-1.29375e-05 0.000175097 0.00117281
0 0 0
-1.08623e-07 2.75243e-07 0.000326685
-5.53065e-06 0.000461959 0.0439317
4.12546e-07 -2.2156e-05 -0.000275095
-0.000553516 -0.202649 0.127807
-3.05089e-05 -0.00834169 -0.000582236
0 0 0
6.3473e-05 0.0223934 0.190755
1.27957e-06 -1.28061e-05 3.88858e-05
0.000463385 -0.00144337 0.0157899
1.19831e-05 0.000163853 0.00109702
0 0 0
-3.13787 -1.68263 19.753
-2.88874 -5.66341 19.8195
-1.76331 -1.46045 17.9543
1.48684 0.751421 16.3085
0.184078 1.2513 10.9833
1.07477 1.11554 8.03783
-3.95361 0.262233 19.8027
-2.9657 0.636117 16.6527
-2.98281 3.44795 19.2809
1.34493 -0.60986 16.0241
0.15113 -0.895652 2.76211
-0.0763869 -0.47257 10.4271
2.89803 -5.66903 19.811
1.76819 -1.47108 17.9461
3.15567 -1.71914 19.7365
-0.165309 1.21983 10.8305
-1.15906 1.16708 8.48958
-1.48778 0.719886 16.5347
2.97713 0.646286 16.6891
3.04525 3.14342 19.3703
3.95719 0.262482 19.8028
-0.251441 -0.93024 3.34121
0.259376 -0.47409 8.25744
-1.34471 -0.59173 16.1716
-0.544761 -1.10903 20.9169
-0.117967 -0.00343464 14.1425
0.046485 -0.371076 18.9469
0.231262 0.130734 13.0294
-1.77589 -0.783655 21.5883
-3.87469 1.58341 20.9776
-0.325027 -0.640758 21.0058
-0.499798 -0.0147109 18.1033
0.117823 -0.00713009 14.1382
0.541058 -1.10502 20.8895
-0.229639 0.142738 12.9904
-0.0468651 -0.372829 18.9909
3.78864 1.44687 21.0017
1.78025 -0.786235 21.5872
0.331354 0.117064 16.9651
0.323364 -0.640778 21.0073
-0.870549 -0.488754 19.881
-0.606352 -0.247022 19.7554
-0.568245 -0.393791 19.5932
-1.03352 -0.829073 20.9614
-1.42706 -0.699748 20.2077
-1.75361 -1.65212 20.0683
-0.217575 -0.452238 21.3472
-0.667062 -0.65271 21.2819
-0.306447 -0.871358 21.5431
0.440021 -0.0959796 21.5178
0.0190573 -0.352264 21.5105
0.2575 -0.29316 21.4739
1.01501 0.211435 21.1932
0.910904 0.0347404 21.4759
1.11846 0.700031 20.6286
1.02894 0.143568 20.8536
1.20256 0.0949122 21.0242
1.44694 0.841035 20.4387
1.28855 0.0537519 20.1808
1.15762 0.641489 20.8782
-1.13906 -0.381145 19.7497
-0.734161 -0.130511 19.6601
-0.718958 -0.340276 19.4143
-1.37771 -0.765758 21.0263
-1.83354 -0.364692 20.1918
-0.342585 -0.530123 21.4135
-0.979171 -0.533946 21.2912
0.467637 -0.258955 21.6382
-0.151239 -0.435097 21.5658
1.21789 -0.0395661 21.2415
0.97332 -0.394601 21.4455
1.16689 -0.0961099 21.1958
1.33374 -0.33517 21.0472
1.90298 0.714313 18.5763
1.28242 -0.185127 20.3372
1.43731 0.232456 19.4969
-1.37141 0.0250502 19.7259
-0.782032 0.216542 19.6987
-0.993714 0.00772337 19.1746
-1.59182 -0.176084 20.9289
-1.55478 0.441068 20.24
-0.716684 -0.392105 21.433
-1.20004 0.0332726 21.1239
0.250099 -0.480991 21.6133
-0.399854 -0.273064 21.4565
0.958004 -0.670371 21.2604
0.291554 -0.609608 21.2706
1.075 -0.643656 21.3108
0.592042 -0.759131 21.0921
1.80279 -0.816084 17.0789
0.459127 -0.503787 20.783
1.34263 -0.637758 17.7173
-0.936952 0.513396 19.9668
-0.730142 0.58324 19.5625
-1.15289 0.494688 20.7015
-1.41979 1.15023 20.127
-0.729524 0.126859 21.2803
-1.46305 0.768147 21.1312
-0.148052 -0.267223 21.2918
-0.560783 -0.00961207 21.5763
0.142302 -0.512789 21.1041
-0.105744 -0.526766 21.303
0.31501 -0.547406 20.9014
0.207497 -0.763714 21.1908
0.120189 -0.730539 21.158
-1.10693 -1.43638 18.9439
-0.582943 -0.519456 19.1746
-0.00610757 -0.714914 19.0094
-0.284445 -1.46492 21.9879
0.00176567 -4.852 21.0953
0.0708255 -0.0872949 19.7781
0.000841794 -0.410029 19.2054
0.347869 0.738006 18.087
0.00301357 0.0586049 17.1735
0.805041 1.62684 18.0521
0.00297611 0.904396 14.8042
1.23913 1.58907 18.4127
1.25303 1.88166 15.497
-0.0169716 1.63966 16.4924
1.26663 1.41032 17.6333
-0.0228942 2.07537 18.3278
-0.817817 -0.276828 18.7104
-0.00267561 -0.637503 18.5231
1.77088 1.73174 14.4953
2.24192 0.663193 7.92003
-0.0221312 1.12927 6.75828
2.36888 0.805376 11.916
-0.117596 1.53964 10.8731
-0.893975 0.642866 18.7572
0.0106705 0.144052 17.5853
2.5154 -0.311863 9.55818
0.335593 -1.13773 12.3291
-0.0951441 1.23271 -2.52423
0.519067 -1.05437 13.7043
-0.16199 1.85999 4.20469
-1.06731 1.51445 19.3516
0.0474024 1.16852 18.9146
-1.62068 1.9132 20.4615
0.112006 2.88887 19.6086
-1.40627 1.06834 21.9792
0.0748991 3.77032 20.7559
-0.454211 -0.226999 21.6881
-0.0373956 0.767556 22.118
-0.191394 -0.70456 21.1578
-0.0735183 0.178163 17.9708
0.10965 -1.02565 20.1368
-0.110706 -0.289244 16.1059
-0.0522273 -0.301696 14.6374
1.10316 -1.44384 18.9377
0.580017 -0.521148 19.1703
0.568962 -0.397407 19.5892
0.284907 -1.46454 21.9868
1.74098 -1.65834 20.0629
-0.0675983 -0.0866223 19.7471
0.300593 -0.866489 21.5407
-0.324417 0.727806 17.8795
-0.267037 -0.284541 21.4651
-0.813533 1.62166 18.0776
-1.11679 0.72634 20.59
-1.33072 1.48086 18.3813
-1.36341 1.8119 15.7576
-1.44373 0.767139 20.4969
-1.27907 1.24228 17.8561
-1.17332 0.555912 20.9346
0.821618 -0.274213 18.7148
0.722237 -0.34396 19.4048
-1.94937 1.64396 15.1658
-2.25018 0.529893 8.92931
-1.86989 0.566386 19.0068
-2.26025 0.58887 13.102
-1.4308 0.147762 19.9968
0.909997 0.607968 18.8258
0.991884 0.0073886 19.188
-2.47535 -0.482506 10.6666
-0.307135 -1.18106 11.8798
-1.74934 -0.797947 17.826
-0.530705 -1.05396 13.8938
-1.29418 -0.625449 18.4607
1.11047 1.39309 19.4101
0.728477 0.537611 19.6196
1.63597 1.72272 20.5125
1.36674 0.993386 20.1679
1.40637 1.08653 21.9882
1.41938 0.71339 21.1223
0.484449 -0.192494 21.6649
0.585052 0.00838832 21.6117
0.211527 -0.656991 20.6455
0.14793 -0.532542 21.3471
-0.0754496 -1.00854 20.0009
-0.174605 -0.794395 21.1723
-0.100766 -0.762362 21.152
0.885416 -0.498498 19.865
0.605138 -0.250594 19.754
1.03925 -0.841932 20.9672
1.44598 -0.720248 20.2071
0.219026 -0.454931 21.3466
0.666631 -0.658878 21.287
-0.441552 -0.100113 21.5176
-0.0186072 -0.35298 21.5114
-0.996089 0.20293 21.1895
-0.901599 0.0253305 21.4736
-0.993723 0.132256 20.8858
-1.15926 0.0794759 21.0299
-1.19452 0.0258892 20.272
1.15207 -0.38806 19.7368
0.737207 -0.130812 19.6567
1.39608 -0.779882 21.0365
1.85034 -0.37067 20.1857
0.344211 -0.533374 21.4134
0.983747 -0.54156 21.2915
-0.46072 -0.257361 21.6309
0.151384 -0.43453 21.563
-1.17563 -0.0521773 21.2303
-0.954226 -0.389121 21.4399
-1.1134 -0.080708 21.1102
-1.26923 -0.317135 21.0309
-1.21279 -0.20322 20.4337
1.36831 0.0249325 19.7265
0.762324 0.202549 19.7335
1.59629 -0.176009 20.9287
1.48655 0.399163 20.2587
0.717881 -0.392525 21.4322
1.18427 0.0329427 21.1179
-0.248743 -0.479082 21.6099
0.409706 -0.276689 21.4755
-0.934032 -0.650974 21.2878
-0.292512 -0.654365 21.2976
-1.04018 -0.620676 21.2561
-0.594654 -0.774386 21.0991
-0.45366 -0.505342 20.7709
0.899568 0.446086 20.0193
1.0882 0.448263 20.7012
0.732342 0.130741 21.2839
0.159901 -0.277243 21.318
-0.134154 -0.540414 21.1359
-0.312636 -0.577307 20.8838
-1.02815 -0.467775 19.8216
-1.39845 -1.4512 18.5258
-1.0889 -0.850101 19.4945
-1.53785 -0.747691 19.1442
-0.648723 -0.379696 19.4996
-2.29595 -1.75156 19.9514
-1.20908 -0.816889 21.0057
-0.0264469 -0.541444 16.3699
-1.03558 -1.49588 21.3821
-1.93271 -1.91819 21.8221
-0.37624 -1.05274 21.5635
-0.277224 -0.500415 21.3878
-0.041514 0.0665719 13.0166
0.0153648 -0.542678 21.4785
-0.0972229 -0.591911 19.5046
0.209772 -0.371198 20.6317
0.459229 -0.164328 21.5847
0.217947 0.608266 11.1512
0.681476 0.195104 21.0654
0.704531 0.0880762 17.1809
1.32131 0.790033 18.8994
1.12488 0.108621 21.2203
0.778374 1.62153 13.5816
1.34178 0.801849 20.6823
1.75656 0.6936 17.8674
1.67066 0.855332 19.4094
1.09809 0.0224838 21.0309
1.52869 1.71253 16.9473
1.44561 0.796392 20.6536
1.7588 0.823641 18.1311
1.32293 0.478821 20.16
-1.29769 -0.23444 19.7163
-2.55611 -0.742152 16.9331
-2.15622 0.119978 18.8716
-0.867589 -0.194101 19.2745
-4.10907 -0.846628 19.6562
-1.56096 -0.510175 21.0188
-2.70042 -0.346387 21.41
-1.08575 -1.07751 21.2734
-0.532868 -0.508116 21.444
-0.99761 -0.88801 21.511
-0.124208 -0.438774 19.6365
0.386756 -0.402558 21.6588
0.584685 -0.402256 19.2824
1.55955 0.0360432 14.9615
1.19019 -0.394817 21.2523
1.43403 -0.17996 4.02993
1.46126 -0.848978 16.3926
2.04162 0.0528541 17.0562
1.15526 -0.379936 21.2511
2.47079 1.01245 10.7603
1.88212 -0.742912 16.8249
1.75259 -0.400507 19.1683
-1.22023 0.363825 19.8263
-1.87432 1.81548 18.2952
-1.1262 0.942926 19.6968
-0.919604 0.405943 19.3088
-2.43543 1.23424 19.953
-1.47189 0.266959 20.785
-3.08491 2.13662 20.7404
-1.48928 1.01424 20.6517
-2.0663 0.264517 21.2942
-0.841204 -0.143226 21.4005
-2.76284 0.0396318 20.937
-1.07641 0.395817 21.5545
-0.651669 -0.351506 21.8036
-0.0313684 -0.445311 21.4504
0.188742 -0.189351 14.6306
-0.257613 -0.317509 21.4436
0.145732 -1.02449 20.9462
0.452635 -0.695243 21.2403
0.100936 -0.761976 11.2753
0.0644849 -0.657379 21.2658
0.657514 -1.13078 20.3548
0.703006 -0.745723 20.7196
0.649589 -1.35563 13.3799
0.293732 -0.911502 20.9141
0.757835 -1.27725 19.9648
1.39768 -1.45873 18.5179
-0.00829053 -2.25285 18.2697
-0.0035806 -2.64182 16.1589
-0.00269202 -0.711255 18.7503
0.0105765 -6.18127 22.9988
0.0275758 -0.541602 16.3519
0.00224395 -1.22701 21.1911
-5.62094e-05 -0.0749934 10.7711
0.0388593 0.0660032 12.9827
-7.28117e-05 -0.152924 17.718
0.0046296 0.035238 10.1721
-0.210184 0.599291 11.044
0.00225987 0.54606 15.5083
-0.000366747 0.660962 7.96328
-0.821853 1.62465 13.6991
-0.00138483 1.25821 15.5491
-0.00266145 0.322847 4.01458
-0.0175929 1.61098 12.1554
-1.64445 1.57732 16.9009
-0.0306767 1.90196 17.6057
-0.0628338 2.29255 10.2702
-0.109892 1.9444 14.981
2.54875 -0.748542 16.9475
0.0149054 2.10075 13.2942
0.00325295 -0.393607 18.0194
-1.50667 -0.198354 4.47025
0.00466819 0.460294 -2.15802
-0.0612723 0.896408 0.456471
-2.40149 0.809401 12.1524
-0.156389 1.14283 -1.10736
-0.111256 2.10632 5.43822
1.88244 1.68416 18.4379
0.0812184 2.20202 18.9614
0.0369108 0.977735 18.123
0.107672 5.04946 18.8871
3.06551 1.97139 20.7599
0.116966 3.04628 20.0821
0.0761906 5.50704 17.0209
2.77073 0.0359821 20.8776
-0.0109601 2.60053 22.7532
-0.000798786 -0.0741785 3.42835
-0.250645 -0.104601 12.6042
-0.0574143 0.354707 20.7657
-0.0953245 0.861917 -3.10317
0.0216508 -0.751185 10.0364
-0.0361292 -0.136356 16.7533
-0.0569059 2.16427 -5.94224
-0.646051 -1.35546 13.2467
-0.015881 -0.600115 15.5388
0.0108743 0.910792 -2.29911
1.03808 -0.479611 19.8137
1.09168 -0.86729 19.481
1.54495 -0.757546 19.1295
0.653349 -0.389502 19.4894
2.31296 -1.77532 19.9272
1.21894 -0.831772 21.0127
1.02824 -1.49761 21.3839
1.94258 -1.93575 21.8309
0.369166 -1.04893 21.5618
0.275758 -0.503256 21.3921
-0.0222917 -0.538113 21.4758
0.0994084 -0.587164 19.4943
-0.21356 -0.365222 20.6104
-0.454528 -0.165725 21.5822
-0.684184 0.215744 21.0124
-0.703549 0.0795581 17.3581
-1.32493 0.789775 18.9024
-1.0974 0.0918381 21.2151
-1.33941 0.784425 20.7038
-1.74251 0.600159 18.2469
-1.64473 0.738399 19.7607
-1.05575 0.0111578 21.0648
-1.45419 0.736905 20.6053
-1.66146 0.652635 18.7878
-1.32462 0.401925 20.5957
1.30452 -0.237588 19.7084
2.14401 0.116004 18.8878
0.870867 -0.194212 19.273
4.15518 -0.849652 19.6456
1.57275 -0.517725 21.022
2.70376 -0.346743 21.4113
1.08224 -1.08256 21.2553
0.532884 -0.51088 21.4445
1.00036 -0.8893 21.5133
0.124624 -0.44157 19.6714
-0.381745 -0.399051 21.6535
-0.582038 -0.40734 19.3186
-1.55858 0.0392917 15.2661
-1.14067 -0.385311 21.2797
-1.45732 -0.834363 16.936
-1.95852 -0.0329389 17.8764
-1.12844 -0.387554 21.2014
-1.7868 -0.69408 17.5827
-1.75796 -0.464144 19.4613
1.18729 0.33961 19.8646
1.08883 0.833929 19.7739
0.905242 0.391667 19.3632
2.36009 1.092 19.9988
1.43008 0.23654 20.783
1.45611 0.917587 20.6645
2.01831 0.24488 21.2894
0.844755 -0.144365 21.4026
1.0833 0.404341 21.5626
0.669171 -0.359272 21.8272
0.0292718 -0.461969 21.4699
0.289163 -0.312613 21.4709
-0.117912 -1.019 20.5772
-0.455278 -0.726534 21.2485
-0.0281822 -0.679972 21.2874
-0.648432 -1.13939 20.3523
-0.703552 -0.746758 20.7255
-0.279368 -0.958503 20.9156
-0.762931 -1.27396 19.9975
-1.29836 -0.850626 19.3457
-1.34728 -1.75632 21.5707
-0.0117774 -0.614541 20.9483
0.750649 0.163091 19.5312
1.54359 0.871666 19.0448
1.64717 0.837518 19.4251
-1.93221 -0.417415 18.9191
-2.56532 -1.04122 21.7655
-0.392178 -0.797581 20.1154
0.579884 -0.111045 18.1163
1.85108 -0.0473815 15.9971
2.03309 0.0658261 17.9105
-1.68576 0.860746 19.2902
-2.29985 0.699898 20.8579
-1.46019 -0.101064 21.8238
-0.150653 -0.716474 21.5385
0.416223 -1.08708 20.5863
0.695419 -1.20408 20.3843
-0.00606505 -2.59116 17.4092
0.000549715 -0.326227 12.6115
-0.000316514 0.00884144 10.0654
-0.000968959 0.438057 8.24698
-0.00333527 0.919735 9.81098
-0.0541822 2.11012 14.2008
0.00442659 -1.0914 14.1617
-0.0119856 -0.119891 -0.297318
-0.0566986 1.39964 2.59787
0.0845524 3.15682 17.3213
0.0789619 4.26173 19.7762
0.000582745 0.361999 3.62998
-0.0367221 0.391097 0.0563999
-0.103125 0.407404 -4.97294
0.00504675 1.13018 -3.92944
1.30434 -0.865891 19.3362
1.34147 -1.76323 21.5763
0.00832404 -0.608727 20.9347
-0.752497 0.162901 19.5388
-1.53552 0.806934 19.2983
-1.56472 0.682701 20.0055
1.93652 -0.420338 18.913
2.57877 -1.04684 21.7765
0.391139 -0.799748 20.112
-0.580334 -0.119042 18.2227
-1.81846 -0.0911852 16.6498
-1.94531 -0.0812983 18.4829
1.65248 0.784188 19.3566
2.21643 0.636388 20.8534
1.46967 -0.0984621 21.8324
0.1602 -0.738129 21.3897
-0.390667 -1.10693 20.593
-0.696064 -1.20808 20.3756
-3.33927 -0.829497 2.34263
-0.00298344 -0.0839697 0.559456
-0.00495385 -0.00576195 0.20141
0.0365237 -0.0217222 0.0465641
0 0 0
-0.0207988 0.0317691 0.275039
-0.16786 0.024003 0.179196
-0.00671731 0.0565518 0.112039
-0.157854 0.00883559 0.447582
0.0736949 -0.118333 0.117319
-0.0257088 -0.0121262 0.00343212
-0.0612521 -0.140477 0.364907
0.00335654 -0.0829586 0.551507
3.24379 -0.801834 2.25472
0.00493159 -0.0057638 0.20137
0 0 0
-0.0364066 -0.0217393 0.0464086
0.0204878 0.0311801 0.268536
0.0060482 0.0505527 0.100394
0.126981 0.0181116 0.135467
0.159334 0.00870001 0.45211
0.026958 -0.0128985 0.00355329
-0.073664 -0.117975 0.1173
0.0609631 -0.139787 0.363106
-0.00212601 -0.00156162 0.108769
0 0 0
0.00111661 0.0014368 0.0787447
0 0 0
0.00509799 0.00836931 0.152318
0.00413255 -0.00298587 0.0641929
-0.0137042 0.000599981 0.120333
4.40614e-19 -6.54345e-19 3.23255e-17
-0.119389 -0.127118 0.57836
8.95895e-05 -0.000154426 0.00169456
0.0750678 0.0976769 0.719177
-0.0905027 0.0344363 0.119156
0.0246869 0.0195642 0.165286
-0.0040896 0.0141788 0.0642588
0.0410421 0.1139 0.366035
0.050149 -0.0125262 0.271633
0.00216989 -0.00154027 0.10963
0 0 0
-3.18956e-18 -1.71342e-19 -9.01892e-17
-0.00114999 0.00157516 0.0805685
-0.00471712 0.00858659 0.154879
0 0 0
-0.000461723 -0.00028241 0.00995311
0.0137829 0.000577117 0.120951
0.119505 -0.127238 0.577597
0.0887219 0.0339004 0.117017
0 0 0
-0.0581681 0.103152 0.802974
-0.024508 0.0194282 0.163468
-0.0503711 -0.0123512 0.272965
0.00409266 0.0144456 0.0643093
-0.0457655 0.114529 0.372342
-0.0255919 -0.0126477 0.081418
-0.961413 -0.0524532 0.336072
-1.31279e-07 -2.78254e-06 0.000326029
0.00346695 -0.61984 0.0378957
-0.00476529 -0.0114089 0.245315
0.000186336 2.56273e-05 0.00565311
0.00312584 -0.000445608 0.00920537
0 0 0
-1.1669e-07 0.000123404 0.00527986
0 0 0
0 0 0
0 0 0
-0.000718219 1.44877 1.03372
-1.64319e-05 0.0784802 0.245908
0 0 0
-0.00862891 0.00665556 0.0403513
-7.87732e-05 -0.0171736 0.00426589
0 0 0
0.0152354 0.00661423 0.150128
-0.00365586 0.000727804 -0.00353326
0.944209 -0.0400291 0.301109
0.0252508 -0.0124852 0.0803421
-0.000186597 2.58785e-05 0.0056538
0.00477618 -0.0113324 0.245138
0 0 0
-0.00303788 -0.000441455 0.00894021
0 0 0
0 0 0
0.00840602 0.00648694 0.0393502
0 0 0
0.00354479 0.000717897 -0.00345724
-0.0140965 0.00626795 0.139192
0 0 0
0.000592908 0.000214166 0.0216341
0 0 0
-3.97563e-06 7.41457e-05 0.00086684
-1.06426e-07 1.30961e-06 0.000436278
-4.78434e-08 -1.8955e-07 0.000194559
0 0 0
-6.36007e-05 -7.04255e-06 0.00160315
2.69235e-05 -0.00182159 0.0489595
-1.45908e-07 1.24466e-05 0.000164426
2.33892e-07 -4.42454e-05 -0.000289731
-0.506693 0.368834 2.84322
-8.48378e-05 0.0123855 0.112694
-1.60813e-05 0.0445358 0.0897985
-1.52499e-06 -0.00156765 0.0713537
-1.28764e-05 0.00173938 -0.00489269
-0.000605856 0.000213645 0.0216273
0 0 0
0 0 0
3.96157e-06 7.81456e-05 0.000929304
0 0 0
0 0 0
0.503118 0.365661 2.8143
-1.04318e-07 -5.42884e-05 -0.000349866
-0.376611 -0.379082 1.46344
-0.167306 -0.0446397 0.500883
0.00034188 0.00348033 0.138038
-0.000209107 -0.00121598 0.0121723
0.000232592 0.00647042 0.10795