# vtk DataFile Version 2.0
tri_press
ASCII
DATASET UNSTRUCTURED_GRID
POINTS 3682 float
-0.665 0.165 -1.86046
-0.624986 0.235 1.905
-0.685 0.545 -1.70807
-0.665 0.635 1.90479
0.665 0.165 -1.86046
0.624982 0.235 1.905
0.685 0.545 -1.70807
0.665 0.635 1.90479
-0.685326 0.154669 -0.605307
-0.695216 0.154774 0.649847
-0.837647 0.734314 -0.503783
-0.829632 0.762965 0.700503
0.685331 0.154663 -0.605307
0.695215 0.154773 0.649847
0.838333 0.734999 -0.503783
0.829629 0.762962 0.700503
-1.42068 -0.144304 -2.89151
-1.41326 -0.0947826 -1.90776
-1.42755 -0.0972419 -0.651291
-1.41399 -0.100626 0.615415
-1.35543 -0.0547145 1.87274
-1.34323 -0.0413082 2.86072
-1.35242 -0.0423873 3.84087
-1.4177 0.0922343 -2.8336
-1.41817 0.163371 -1.85541
-1.4516 0.179114 -0.608837
-1.42878 0.165088 0.642312
-1.33448 0.188969 1.88986
-1.32903 0.199688 2.87711
-1.34669 0.201247 3.85893
-1.42961 0.540859 -2.70351
-1.45608 0.611637 -1.72321
-1.56228 0.739268 -0.511318
-1.53552 0.743061 0.696973
-1.3898 0.657395 1.90984
-1.36233 0.666757 2.8992
-1.36948 0.686096 3.88922
-1.44669 1.33706 -2.54661
-1.46908 1.41816 -1.57394
-1.52203 1.53282 -0.378534
-1.54576 1.56719 0.805905
-1.51356 1.51985 2.00184
-1.47519 1.49007 2.97563
-1.44941 1.48599 3.96009
-0.702403 -0.14593 -2.89479
-0.685635 -0.0941591 -1.91255
-0.694745 -0.110767 -0.650649
-0.701234 -0.106681 0.621845
-0.667482 -0.0299013 1.88399
-0.653819 -0.0258764 2.86835
-0.656969 -0.0362787 3.84529
-0.695976 0.0839493 -2.83461
-0.636476 0.213805 2.8834
-0.650253 0.205349 3.86226
-0.69899 0.510794 -2.69722
-0.659093 0.659734 2.89819
-0.666487 0.681801 3.889
-0.698814 1.31943 -2.54039
-0.707995 1.40316 -1.56708
-0.755005 1.53246 -0.374403
-0.795128 1.57209 0.80541
-0.786595 1.51598 1.9983
-0.756103 1.48277 2.97209
-0.732714 1.47958 3.95752
0.692543 -0.145849 -2.89479
0.684096 -0.0941171 -1.91255
0.695931 -0.110743 -0.650649
0.688747 -0.10667 0.621845
0.646184 -0.0298943 1.88399
0.681605 -0.0258621 2.86835
0.711041 -0.0362531 3.84529
0.689922 0.0840187 -2.83461
0.684672 0.213814 2.8834
0.714058 0.205372 3.86226
0.709533 0.510886 -2.69722
0.695268 0.659746 2.89819
0.714426 0.681827 3.889
0.781568 1.31963 -2.54039
0.79896 1.40339 -1.56708
0.793275 1.53272 -0.374403
0.740967 1.57223 0.805409
0.689948 1.51605 1.9983
0.687293 1.48282 2.97209
0.699041 1.47963 3.95752
1.40561 -0.144093 -2.89151
1.40223 -0.0945872 -1.90776
1.42243 -0.0970915 -0.651291
1.40928 -0.100573 0.615414
1.35424 -0.0546852 1.87274
1.37202 -0.0412683 2.86072
1.40335 -0.0423285 3.84087
1.40507 0.0924512 -2.8336
1.40574 0.163617 -1.85541
1.44544 0.179348 -0.608837
1.43265 0.165128 0.642312
1.34772 0.188986 1.88986
1.3708 0.19972 2.87711
1.40462 0.201302 3.85893
1.43537 0.541134 -2.70351
1.4543 0.61202 -1.72321
1.56076 0.73994 -0.511318
1.53594 0.743173 0.696973
1.39528 0.657419 1.90984
1.39079 0.666796 2.8992
1.41184 0.686157 3.88922
1.51779 1.33745 -2.54661
1.54122 1.41862 -1.57394
1.5507 1.53329 -0.378534
1.50319 1.56747 0.805905
1.43733 1.52 2.00184
1.41753 1.49018 2.97563
1.41982 1.4861 3.96009
-0.66718 0.355 -1.77645
0 0.165585 -1.85987
-0.679142 0.155855 -1.23288
-0.663092 0.435 1.92299
-1.99676e-06 0.227361 1.91264
-0.657316 0.197673 1.27742
0 0.615673 -1.77874
-0.828158 0.706491 -1.10593
0 0.716324 1.98611
-0.802014 0.753681 1.30265
0.667255 0.355 -1.77652
0.679147 0.155851 -1.23288
0.663102 0.435 1.92301
0.657267 0.197718 1.27742
0.828176 0.706509 -1.10593
0.802011 0.753678 1.30265
-0.689535 0.155458 0.02227
-0.847501 0.444492 -0.554545
2.41113e-06 0.15352 -0.605307
-0.859594 0.45887 0.675175
-9.07068e-07 0.152261 0.649847
-0.832143 0.747143 0.09836
0.000342596 0.978107 -0.503783
-1.41719e-06 1.20323 0.700503
0.689537 0.155454 0.02227
0.847506 0.444831 -0.554545
0.859595 0.458868 0.675175
0.832863 0.747863 0.09836
-0.844423 0.399746 -1.16941
0.84442 0.399916 -1.16941
1.20557e-06 0.156729 -1.23288
0.000171298 0.823651 -1.10593
0 0.355 -1.95878
-0.833518 0.451681 0.060315
0.832728 0.451849 0.060315
7.52034e-07 0.153056 0.02227
0.000170589 1.24161 0.09836
-0.872976 0.446935 1.29004
0.872977 0.446934 1.29004
-1.45191e-06 0.195466 1.27742
-7.08594e-07 1.02401 1.30265
-9.98378e-07 0.435 2.05172
-0.656431 0.26 -1.80879
-0.3325 0.161792 -1.86367
-0.676331 0.156168 -1.54667
-0.65399 0.335 1.92395
-0.312494 0.235437 1.90456
-0.652285 0.205202 1.59121
-0.684635 0.45 -1.7508
-0.3425 0.599714 -1.76278
-0.777655 0.646822 -1.407
-0.679478 0.535 1.92932
-0.3325 0.699601 1.96939
-0.7666 0.727433 1.60372
0.3325 0.161792 -1.86367
0.656127 0.26 -1.80849
0.676332 0.156166 -1.54667
0.31249 0.235474 1.90453
0.653939 0.335 1.9239
0.652242 0.205242 1.59121
0.3425 0.599526 -1.7626
0.684602 0.45 -1.75077
0.777716 0.646883 -1.407
0.3325 0.699602 1.96939
0.679478 0.535 1.92932
0.766551 0.727384 1.60372
-0.681815 0.155681 -0.919095
-0.684104 0.15839 -0.291518
-0.839644 0.262965 -0.579926
-0.342498 0.154423 -0.605307
-0.664706 0.187783 0.963635
-0.692468 0.155023 0.336058
-0.86013 0.26546 0.662511
-0.347912 0.15291 0.649847
-0.833019 0.720519 -0.804855
-0.846534 0.591383 -0.529164
-0.834936 0.740769 -0.202712
-0.455872 0.930649 -0.503783
-0.8254 0.7679 1.00158
-0.862632 0.619927 0.687839
-0.829374 0.753541 0.399432
-0.503866 1.1612 0.700503
0.681816 0.155679 -0.919095
0.342502 0.154422 -0.605307
0.684145 0.158348 -0.291518
0.839712 0.2631 -0.579926
0.664781 0.187705 0.963635
0.347645 0.153441 0.649847
0.69247 0.15502 0.336058
0.860135 0.265455 0.662511
0.833021 0.720521 -0.804855
0.456292 0.930463 -0.503783
0.845768 0.59134 -0.529164
0.835638 0.741472 -0.202712
0.825398 0.767898 1.00158
0.50392 1.16131 0.700503
0.862633 0.619926 0.687839
0.830104 0.754271 0.399432
-0.802184 0.377373 -1.47293
-0.33359 0.355 -1.90364
6.02784e-07 0.157343 -1.54638
0 0.260293 -1.95279
-0.840604 0.277801 -1.20114
-0.339571 0.15275 -1.23288
-0.803853 0.440967 1.60651
-0.331546 0.435 2.02514
-1.72433e-06 0.205412 1.59503
-1.49757e-06 0.331181 1.89513
-0.85209 0.322304 1.28373
-0.328659 0.195466 1.27742
8.5649e-05 0.736251 -1.44234
0 0.485337 -1.96609
-0.842375 0.553118 -1.13767
-0.413993 0.793203 -1.10593
-3.54297e-07 0.874327 1.64438
-4.99189e-07 0.575662 2.06162
-0.885609 0.600308 1.29634
-0.401008 1.00125 1.30265
0.802174 0.377458 -1.47296
0.333628 0.355 -1.90377
0.8406 0.277883 -1.20114
0.339574 0.15275 -1.23288
0.803826 0.440967 1.60652
0.33155 0.435 2.02514
0.852093 0.322326 1.28373
0.328633 0.195466 1.27742
0.842367 0.553212 -1.13767
0.414173 0.793167 -1.10593
0.885609 0.600306 1.29634
0.401005 1.00128 1.30265
-0.8303 0.269183 0.0412925
-0.344718 0.154355 0.02227
-0.845395 0.422119 -0.861975
-0.832993 0.448086 -0.247115
1.80835e-06 0.15609 -0.919095
1.58158e-06 0.153488 -0.291518
-0.834024 0.455275 0.367745
-0.879047 0.452902 0.982605
-7.75172e-08 0.15261 0.336058
-1.17949e-06 0.168541 0.963635
-0.848281 0.607137 0.0793375
-0.518944 1.20029 0.09836
0.000256947 0.864878 -0.804855
0.000256593 1.14105 -0.202712
8.45861e-05 1.24217 0.399432
-1.06289e-06 1.12613 1.00158
0.830313 0.269062 0.0412925
0.344718 0.154357 0.02227
0.845379 0.422373 -0.861975
0.83221 0.44834 -0.247115
0.833223 0.455359 0.367745
0.879013 0.452901 0.982605
0.847524 0.60722 0.0793375
0.519198 1.2001 0.09836
-0.793262 0.2689 -1.5098
-0.841887 0.288691 -0.890535
-0.848353 0.571261 -0.833415
-0.814589 0.501559 -1.43996
0.793325 0.268942 -1.50982
0.814446 0.501606 -1.43998
0.848417 0.571564 -0.833415
0.84189 0.288815 -0.890535
-0.336035 0.152923 -1.54653
0.336037 0.152923 -1.54653
0.34112 0.152649 -0.919095
-0.341116 0.152649 -0.919095
-0.378247 0.715435 -1.42467
-0.416323 0.840983 -0.804855
0.416756 0.840918 -0.804855
0.378337 0.715424 -1.42467
-0.333045 0.260146 -1.9145
-0.338045 0.467668 -1.91554
0.338064 0.467668 -1.9157
0.333064 0.260146 -1.91415
-0.829862 0.268629 -0.269317
-0.836625 0.271616 0.351902
-0.848285 0.609946 0.383588
-0.847495 0.599303 -0.224913
0.829864 0.268655 -0.269317
0.846722 0.599318 -0.224913
0.847499 0.609783 0.383588
0.836627 0.271557 0.351902
-0.343467 0.154672 -0.291518
0.343468 0.154672 -0.291518
0.346111 0.15404 0.336058
-0.346112 0.15404 0.336058
-0.49497 1.0806 -0.202712
-0.52261 1.20315 0.399432
0.52276 1.20311 0.399432
0.495358 1.08051 -0.202712
-0.856778 0.314563 0.97312
-0.793323 0.328652 1.59886
-0.816333 0.567654 1.60512
-0.894384 0.605613 0.99209
0.856777 0.314573 0.97312
0.894384 0.60561 0.99209
0.816331 0.567653 1.60512
0.793306 0.328663 1.59887
-0.338134 0.168541 0.963635
0.33812 0.168541 0.963635
0.320561 0.203072 1.59312
-0.320576 0.203072 1.59312
-0.407912 1.1021 1.00158
-0.366754 0.883151 1.62405
0.366753 0.883146 1.62405
0.407909 1.10209 1.00158
-0.32202 0.33309 2.04365
0.32202 0.33309 2.04362
0.332025 0.555331 2.04731
-0.332023 0.555331 2.04731
-0.644479 0.2125 -1.81839
-0.49875 0.162279 -1.86318
-0.67022 0.16103 -1.70357
-0.644694 0.285 1.91968
-0.46874 0.239738 1.90026
-0.640256 0.218481 1.74811
-0.691949 0.4975 -1.73657
-0.51375 0.582393 -1.74546
-0.740984 0.605567 -1.55753
-0.676229 0.585 1.92105
-0.49875 0.676965 1.94676
-0.728458 0.693874 1.75425
0.49875 0.162275 -1.86319
0.644156 0.2125 -1.81807
0.67022 0.161029 -1.70357
0.468736 0.239477 1.90052
0.644692 0.285 1.91968
0.640453 0.21828 1.74811
0.51375 0.582415 -1.74549
0.692269 0.4975 -1.73689
0.741334 0.605918 -1.55753
0.49875 0.676966 1.94676
0.67621 0.585 1.92103
0.72845 0.693867 1.75425
-0.683157 0.155589 -0.762201
-0.682031 0.159214 -0.448413
-0.831574 0.174273 -0.592616
-0.514606 0.153158 -0.605307
-0.665882 0.185358 0.806741
-0.693835 0.154906 0.492953
-0.861274 0.168316 0.656179
-0.521568 0.153835 0.649847
-0.836415 0.728498 -0.654319
-0.851066 0.667336 -0.516474
-0.836343 0.737593 -0.353248
-0.66092 0.860803 -0.503783
-0.830004 0.767921 0.851039
-0.857805 0.697282 0.694171
-0.827854 0.756604 0.549968
-0.658695 0.945973 0.700503
0.683162 0.155583 -0.762201
0.514609 0.153158 -0.605307
0.68207 0.159173 -0.448413
0.831331 0.174477 -0.592616
0.66589 0.185347 0.806741
0.521644 0.153679 0.649847
0.693835 0.154904 0.492953
0.861293 0.168306 0.656179
0.836413 0.728497 -0.654319
0.661258 0.860621 -0.503783
[...]
POINT_DATA 3682
SCALARS point_scalars float 1
LOOKUP_TABLE default
-28.9634
-44.1955
3.7151
-36.3507
-29.6773
-44.1555
3.68216
-36.3336
-38.3131
-43.0927
-46.786
-45.8665
-38.4416
-43.0728
-46.6874
-45.9531
23.4324
-110.194
-41.0623
-45.7818
-45.9967
-40.7921
-38.447
23.4324
-86.9461
-42.282
-45.6906
-45.5328
-40.5286
-38.447
40.9341
-55.3788
-45.5163
-39.6753
-40.9897
-36.876
-35.8263
7.58718
-53.1896
-78.3431
-47.1004
-38.0139
-35.7005
-35.5013
68.5421
-99.4579
-38.4449
-41.9439
-42.901
-37.8461
-37.6749
68.5421
-37.8461
-37.6749
68.5421
-35.5307
-35.5063
74.7611
-54.8192
-76.0063
-56.4217
-32.7179
-33.7852
-34.9862
8.79768
1.16593
-38.8272
-41.8957
-43.0173
-38.9562
-37.6663
14.1389
-37.8301
-37.6663
16.9208
-35.5261
-35.5007
38.9287
-50.5834
-71.7903
-56.2119
-32.7035
-33.3753
-34.6706
8.79768
1.16593
-41.1757
-45.5781
-45.9725
-40.7677
-38.4308
14.675
7.71071
-42.3438
-45.6814
-45.4308
-40.7132
-38.4308
16.9208
-55.3386
-45.6285
-39.7778
-40.9654
-37.1969
-36.3177
7.54364
-53.0501
-77.8895
-54.1358
-37.8803
-35.6822
-35.487
8.46574
-123.794
-52.0468
-38.2775
-44.608
-39.6612
1.44179
-56.9191
-30.6217
-43.6835
8.7311
-52.0152
-38.225
-39.6615
-56.8484
-43.673
-34.0395
-44.0108
-36.9208
-36.1511
-40.7577
-50.4628
20.6524
-57.6184
-33.9521
-44.1384
-36.1929
-50.1859
-63.7114
-63.6876
-52.8048
-20.271
202.313
-37.697
-37.7125
-35.9278
-110.085
-48.4908
-48.4503
-40.4218
-34.8699
-35.8515
21.9272
-141.549
-73.1362
-39.5768
-43.1935
-43.4971
-15.9703
11.7259
-51.8633
-37.5645
-32.5964
-39.9381
-140.925
14.9364
-73.0843
-43.1839
-39.5543
-43.5359
11.9995
-16.3428
-51.7415
-32.5638
-37.5489
-39.909
-40.5891
-34.057
-43.0525
-36.8276
-40.3801
-34.0566
-36.8944
-40.5659
-43.6487
-43.5014
-51.5039
3.68939
-48.7819
-37.1726
-47.2541
-56.7633
-40.5636
-36.8203
-34.0295
-43.1206
-40.3183
-40.6395
-34.8038
-36.8968
-43.5723
3.76367
-43.6314
-51.0755
-48.7672
-56.7262
-37.279
-46.9821
-61.0458
177.911
-73.1471
235.505
-63.8367
-52.0359
-45.7165
-35.9928
-40.7233
-39.6512
-46.2436
-40.2402
-14.3339
148.779
-64.221
-28.246
-30.8056
-33.0474
-50.7953
-35.9145
-60.9466
178.021
-63.8087
-52.0126
-45.6859
-35.9875
-46.1936
-40.2034
-64.1928
-28.2108
-50.8322
-35.9059
-35.3954
-35.4259
-47.4671
-38.4887
-41.926
-35.281
-35.5186
-43.249
-36.2554
-43.3523
-41.4149
-97.2359
0.908859
-25.766
-82.3378
-42.1248
-35.3953
-35.4155
-47.4676
-38.4495
-35.4822
-43.284
-41.4787
-97.4307
-66.0526
-47.4457
-47.0593
-61.8215
-65.9709
-61.7161
-47.0574
-47.4532
-72.5165
-72.469
-41.5225
-41.5367
-24.9044
-10.0214
-9.97567
-24.5704
185.327
156.669
156.324
185.303
-35.9407
-34.095
-38.7801
-42.3088
-35.9104
-42.2463
-38.8629
-34.0235
-34.8341
-34.8217
-36.1571
-35.9937
-34.4293
-74.6495
-74.7288
-34.1568
-41.1842
-47.5415
-43.9893
-44.4824
-41.2396
-44.4615
-43.9487
-47.5021
-43.0285
-43.0023
-41.0875
-41.0653
-43.5853
-32.1137
-32.1013
-43.5639
-37.1949
-37.1895
-34.9501
-34.9623
6.68526
-169.648
-106.366
-42.4692
-43.0263
-43.2888
-6.02155
24.3151
-29.0313
-36.9517
-34.0156
-38.0039
-169.327
5.92663
-106.368
-43.0007
-42.4401
-43.3022
24.6664
-5.87979
-29.2837
-33.9923
-36.906
-37.9472
-38.6025
-34.937
-41.3588
-36.7736
-46.4794
-38.4198
-36.8205
-41.5113
-43.362
-45.4197
-49.4442
-28.8484
-47.3503
-40.055
-45.4245
-52.0174
-38.4992
-36.7764
-34.9211
-41.509
-46.3302
-41.6772
-38.4048
-36.8038
-43.2378
-28.3511
-45.5409
-49.9691
-47.3667
-51.9226
-40.2061
-45.6143
35.7932
-5.26178
-73.5916
142.261
-131.626
-131.23
-89.0871
124.105
-60.1568
-45.8282
-61.0573
-51.4838
-38.7656
-37.8113
-40.9205
-36.2995
-42.8723
-42.8408
-42.0376
-40.5679
-41.2405
-39.7344
-43.5329
-39.8757
6.87789
6.98622
-3.48833
47.5606
-53.5653
-51.1953
-64.8697
-36.5543
-31.2065
-31.1885
-31.4456
-31.8732
-41.8081
-46.3414
-49.6566
-38.9075
35.2185
-5.68595
-73.138
141.645
-60.1094
-45.8084
-61.0328
-51.4603
-38.7459
-37.7905
-40.883
-36.2922
-41.1933
-39.7204
-43.5081
-39.8336
-53.5463
-51.174
-64.806
-36.4733
-41.7859
-46.3158
-49.7142
-38.8952
-33.6554
-33.8048
-32.6628
-34.9675
-44.2686
-43.3742
-44.3656
-39.2427
-36.8923
-36.8856
-38.7894
-35.8444
-36.4079
-36.3216
-33.7257
-40.8304
-40.6934
-40.7089
-38.9331
-44.8855
-51.2635
-48.946
-44.9212
-66.9383
17.2236
17.2332
15.8231
8.89961
-57.3616
-57.3567
-68.3806
-48.8794
-33.6115
-33.5125
-32.5897
-34.9325
-44.395
-43.4767
-44.4092
-39.2159
-36.4263
-36.3919
-33.6622
-40.8443
-51.5371
-48.8468
-45.0546
-67.1413
-75.8465
-64.0441
-63.1803
-55.2261
-75.7869
-64.0213
-63.1475
-55.2205
-61.533
-52.6836
-52.6746
-46.3749
-20.5728
-22.3228
-22.3235
-10.3877
196.124
200.41
199.51
196.147
-36.2914
-38.168
-36.8289
-39.3072
-36.2885
-38.1585
-36.8395
-39.3463
-35.8325
-35.2355
-34.7224
-35.8341
-108.268
-92.7783
-97.5853
-108.349
-52.0539
-47.383
-50.0332
-45.7445
-52.0266
-47.3752
-49.9987
-45.721
-39.0062
-40.3803
-40.3857
-41.7396
-32.7155
-35.0638
-35.063
-37.8684
-35.7718
-36.8083
-35.443
-35.7696
-88.2509
148.723
-90.1828
120.173
-73.0869
-71.9516
-42.5168
-37.6159
-42.3118
-40.4331
-47.684
-42.4424
-50.4762
132.859
-8.30887
47.7375
-56.0281
-36.2834
-40.0572
-35.628
-31.9624
-33.452
-42.4081
-34.2272
-90.0954
120.011
-88.0851
148.621
-73.0284
-71.9039
-42.324
-40.4242
-42.4794
-37.6013
-47.7538
-42.4858
-8.00989
46.7853
-50.311
132.013
-55.9323
-36.4554
-31.9498
-33.4325
-40.019
-35.6217
-42.3605
-34.2112
-45.9846
-41.2483
-34.5849
-34.4051
-43.4835
-37.0352
-38.6868
-35.4044
-40.0083
-41.9082
-31.575
-35.4818
-33.0953
-46.638
-38.6025
-45.532
-47.2475
-22.6264
-44.8918
-42.4265
-45.8078
-77.2915
-0.745877
-5.60674
-46.0517
-46.182
-37.078
-39.3058
-41.9355
-57.4809
-63.8175
-49.8772
-45.9993
-41.2312
-38.6764
-35.3951
-34.5375
-34.3821
-43.4775
-37.0175
-39.9909
-41.8979
-38.7153
-45.1512
-32.3018
-35.7863
-33.0916
-46.6339
-47.2402
-22.5674
-0.733069
-5.57618
-44.9336
-42.3817
-46.0101
-77.357
-46.0319
-46.144
-63.8216
-49.8581
-36.7317
-39.3692
-42.6679
-57.6305
-61.7374
-61.5751
181.368
178.988
-73.355
-73.3259
201.253
201.144
-72.0106
-53.0262
-60.6501
-45.8381
-46.503
-45.2619
-36.072
-36.0183
-40.8256
-40.816
-37.1422
-37.1334
-43.6768
-51.161
-41.4089
-39.4085
-16.6377
-16.6407
157.673
157.569
-56.4422
-73.9032
-27.549
-20.3721
-31.0179
-31.0109
-33.9978
-34.0074
-48.9831
-47.3627
-39.1032
-33.6282
-61.6383
-61.4539
179.692
183.289
-71.8969
-53.0174
-60.6167
-45.8206
-45.2295
-46.4776
-36.0663
-36.0125
-43.6049
-51.2044
-41.3993
-39.4641
-73.82
-56.4249
-20.3327
-27.7007
-47.3422
-48.9718
-33.6198
-39.0915
-35.5153
-34.9268
-34.7962
-34.4543
-47.7863
-47.1448
-37.1002
-40.121
-41.8607
-41.8686
-35.1621
-35.1551
-34.1255
-36.9651
-42.5821
-43.9142
-36.2099
-36.1744
-43.2771
-43.2399
-40.2857
-42.0623
-86.2894
-85.6037
-1.98681
-1.96252
-23.5704
-23.65
-81.4284
-81.4439
-42.4808
-42.4712
-35.4991
-34.9923
-34.7838
-34.417
-47.1512
-47.788
-37.0616
-40.0832
-36.9783
-34.0389
-42.6526
-43.9227
-42.0737
-40.3532
-85.6994
-86.1561
-105.931
-66.8102
-74.516
-82.9519
-41.1987
-43.9429
-54.2955
-51.4498
-45.8558
-57.5653
-55.9293
-44.5283
-45.1747
-60.0395
-74.9397
-67.6513
-105.784
-82.7016
-74.4488
-66.7173
-45.2692
-67.5252
-74.9079
-59.6712
-45.8606
-44.579
-55.9167
-57.5355
-40.9546
-51.4442
-54.2883
-43.9712
-93.6798
-90.4816
-61.5086
-59.8089
-93.5994
-59.7751
-61.4877
-90.441
-38.5039
-38.8017
-46.2026
-45.3894
-38.5129
-45.4069
-46.2077
-38.8085
1.95064
-39.3685
-21.6966
-5.38254
-27.2109
12.3412
-12.7576
-28.7325
-27.0606
-28.6327
-12.7548
12.3194
2.07937
-5.36326
-21.7089
-39.5097
110.507
140.273
192.836
120.716
71.6805
52.3562
197.023
144.523
72.5487
143.555
197.015
52.3642
110.465
120.583
192.802
139.983
-35.9978
-33.7794
-36.6276
-37.7337
-33.5558
-32.9632
-35.5423
-34.8166
-40.4505
-43.708
-38.3534
-35.2275
-45.6431
-40.5236
-39.8442
-45.39
-35.9791
-37.6873
-36.6053
-33.7375
-45.7584
-45.6828
-39.853
-40.4688
-39.8823
-35.1112
-38.3905
-43.7872
-33.5225
-34.2304
-35.5418
-32.9625
-35.0179
-35.7314
-35.1328
-34.2647
-35.0114
-34.2409
-35.1277
-35.7258
-38.7392
-38.7981
-34.6437
-33.8491
-38.6627
-33.9317
-34.6271
-38.7613
-61.189
-72.8366
-89.2293
5.4418
-54.7396
-68.1031
-96.9766
-61.6717
-54.8391
-61.683
-96.9682
-68.1058
-61.1262
5.49494
-89.2251
-73.3497
-49.0254
-41.1519
-44.9901
-43.2495
-43.7838
-41.5953
-52.0647
-49.5772
-39.2139
-45.9706
-50.8643
-40.5375
-42.6831
-39.4174
-46.8525
-48.5663
-48.9383
-43.2612
-44.9084
-41.153
-42.7566
-48.5468
-46.8346
-39.4473
-39.176
-40.4996
-50.84
-45.9411
-43.755
-49.5447
-52.0659
-41.5567
-46.4409
-45.0596
-41.6847
-40.5823
-45.8229
-40.6109
-41.6762
-44.9459
-42.2965
-42.1184
-38.8875
-40.5486
-42.2541
-40.5253
-38.8778
-42.1117
-49.0009
-42.4672
-38.1606
-48.8949
-33.4465
-31.5866
-32.9625
-35.9475
-33.432
-35.9363
-32.9521
-31.5769
-48.9408
-48.887
-38.1562
-42.4413
-40.6615
-38.8939
-36.2243
-36.5523
-40.6444
-36.5432
-36.187
-38.936
-34.7936
-32.4507
-35.752
-36.1144
-34.814
-36.1199
-35.768
-32.4686
-11.8091
-81.4341
-119.635
-44.2644
-43.7619
-42.3762
-4.62339
21.3004
-17.9738
-36.6809
-34.8135
-36.9746
-80.0602
-12.2302
-119.531
-43.748
-44.2284
-42.3989
21.53
-4.60414
-17.6761
-34.7938
-36.6598
-36.9526
-38.598
-36.6254
-40.5013
-37.145
-50.4814
-40.4056
-43.4137
-42.4251
-45.2522
-46.296
-48.3045
-47.787
-46.7272
-42.3995
-45.0783
-49.9311
-38.6288
-37.1649
-36.6169
-40.8181
-50.3695
-42.4945
-40.3959
-43.3808
-45.0544
-47.0535
-46.3726
-48.3995
-46.7622
-49.8713
-42.5325
-45.4435
24.4622
10.3676
-77.8505
90.2408
-127.551
-127.68
-104.333
89.2513
-55.9448
-48.8062
-58.2202
-51.3925
-38.4335
-38.1121
-39.6186
-36.8189
-43.2911
-43.2952
-43.1137
-41.1079
-40.5275
-39.8997
-41.9278
-39.7257
2.25716
2.23949
0.683075
18.6568
-52.3511
-56.1791
-59.7779
-42.9719
-30.8287
-30.8172
-30.5
-31.2709
-42.6416
-45.0189
-46.5543
-40.2012
23.9297
8.0437
-78.2484
90.9015
-55.902
-48.7824
-58.1892
-51.3679
-38.4122
-38.0435
-39.5917
-36.8039
-40.5332
-39.895
-41.9202
-39.7387
-52.2787
-56.1461
-59.715
-42.9122
-42.6274
-44.9456
-46.5385
-40.1883
-33.6242
-34.2314
-32.0571
-34.7015
-44.1942
-43.6636
-43.8881
-41.3327
-36.8973
-36.8932
-37.6156
-36.4259
-36.4225
-36.083
-33.5451
-39.826
-40.7721
-40.7745
-39.8166
-43.2196
-50.8233
-49.493
-47.5849
-58.13
19.8531
19.8315
21.0962
16.6184
-57.6252
-57.6224
-63.0406
-52.8433
-33.5666
-34.0874
-31.9612
-34.6444
-44.3283
-43.7923
-43.9707
-41.3687
-36.4502
-36.138
-33.5247
-39.8628
-51.196
-49.2194
-47.3621
-58.1355
-69.5867
-63.9445
-63.5588
-57.994
-69.54
-63.9232
-63.5292
-57.9793
-56.9702
-52.8019
-52.796
-49.3027
-22.8042
-20.6379
-20.6356
-15.163
200.261
199.65
206.583
200.276
-36.9243
-37.962
-37.3263
-38.4829
-36.9277
-37.9675
-37.3439
-38.5108
-35.9064
-35.4382
-35.401
-35.908
-109.831
-104.548
-105.601
-109.942
-50.008
-47.9435
-49.359
-47.6176
-50.0575
-47.9341
-49.3026
-47.5996
-39.7736
-40.4101
-40.4122
-41.1413
-33.6736
-34.92
-34.9229
-36.26
-35.644
-36.3303
-35.7183
-35.6457
4.73571
30.0755
-66.861
104.95
-165.822
-138.375
-108.805
54.4937
-83.0167
-66.0528
-76.324
-71.8316
-40.7383
-39.1801
-41.206
-38.0322
-43.2827
-42.8238
-43.6117
-41.0743
-43.4977
-42.0913
-46.7105
-42.2111
-14.2401
-18.3155
-53.2527
91.513
14.1175
10.0686
1.02839
24.8751
-41.9823
-52.6107
-54.3274
-41.5475
-37.2706
-37.7944
-38.7325
-36.1831
-33.324
-31.8647
-31.5305
-33.0543
-39.1723
-40.6805
-41.6076
-35.9484
-164.574
-138.204
-108.685
54.1962
2.53954
29.5474
-67.104
104.882
-82.9717
-66.0046
-76.2695
-71.7881
-43.2743
-42.7825
-43.6113
-41.0661
-40.7149
-39.1594
-41.1787
-38.0154
-43.5431
-42.0187
-46.8184
-42.2714
14.8515
10.0679
1.21897
24.6642
-14.378
-18.8899
-53.1666
92.0193
-42.1152
-52.599
-54.2143
-41.4048
-33.3387
-31.8292
-31.5057
-33.0406
-37.2668
-37.7872
-38.7042
-36.1707
-39.1313
-40.674
-41.5673
-35.9305
-39.6739
-43.1106
-43.9926
-41.1096
-34.3383
-33.7039
-34.0532
-34.2141
-42.2202
-44.0135
-42.803
-40.1155
-36.7528
-36.8551
-37.8072
-35.9946
-41.537
-39.3009
-40.0172
-41.6937
-37.0407
-32.7965
-30.5179
-35.2119
-37.146
-36.3793
-32.4829
-49.2131
-40.6927
-40.5873
-39.6023
-43.7192
-42.7507
-47.4509
-46.354
-34.1108
-44.4172
-43.3839
-44.9533
-42.6048
-51.1089
-51.3313
-48.4862
-61.5938
-10.9464
11.9994
2.6999
-0.0802588
-48.4196
-47.8904
-48.2455
-46.8652
-38.2002
-36.6564
-36.0808
-38.5267
-46.6533
-48.0858
-44.37
-52.4092
-54.4216
-57.4372
-60.7625
-53.5339
-39.6041
-43.0903
-44.0024
-41.0863
-36.7488
-36.8472
-37.799
-35.9867
-34.3153
-33.6736
-34.0125
-34.191
-42.2828
-44.13
-42.8337
-40.1475
-41.4164
-39.277
-39.9842
-41.7165
-40.8297
-40.6271
-39.7511
-43.9908
-36.968
-33.3231
-31.9792
-35.5294
-37.1365
-36.3901
-32.4801
-49.2478
-42.645
-47.3924
-46.3059
-34.0383
-10.8287
12.0301
2.72048
-0.00608696
-44.5537
-43.4764
-45.1374
-42.5752
-50.6352
-50.9349
-48.5033
-62.6796
-48.4209
-47.8662
-48.2438
-46.8419
-54.3368
-57.4305
-60.7138
-53.5083
-38.3448
-36.7447
-36.0858
-38.6018
-46.019
-48.1764
-44.6145
-52.6867
-61.6107
-72.4886
-61.2249
-61.5802
161.401
189.223
180.391
178.126
-79.7639
-66.8684
-73.3063
-73.2874
160.619
202.844
197.032
212.69
-63.4267
-64.0045
-71.0952
-56.4421
-51.7267
-52.3853
-56.0968
-48.697
-43.0038
-49.2262
-46.1988
-45.5717
-36.1681
-35.9869
-36.0144
-36.0712
-41.3053
-39.3482
-40.7458
-40.7412
-39.8532
-37.5068
-39.632
-39.3339
-45.3803
-46.8011
-45.2778
-48.2686
-40.128
-40.324
-40.8852
-39.3819
-9.28732
-16.7971
-14.8489
-14.8451
90.9311
187.008
153.551
153.5
-66.0608
-62.8214
-59.4009
-70.8231
-30.0298
-24.7752
-29.3061
-24.4649
-31.0142
-31.1362
-30.8527
-30.8485
-32.4767
-34.364
-33.3735
-33.3821
-50.7855
-50.2943
-49.8961
-49.9316
-37.2742
-35.3791
-37.3278
-34.6186
-61.4116
-72.407
-61.1196
-61.4607
160.752
189.607
178.366
181.917
-63.4037
-63.978
-71.0226
-56.4235
-51.7026
-52.367
-56.0691
-48.6771
-42.9689
-49.1858
-45.5406
-46.171
-36.1635
-35.9829
-36.009
-36.0656
-45.3412
-46.793
-45.2972
-48.272
-39.939
-40.3351
-40.8686
-39.5053
-66.0235
-62.7874
-70.8009
-59.3798
-29.9516
-24.7703
-24.4158
-29.2968
-50.7786
-50.2797
-49.8593
-49.9294
-37.2586
-35.3645
-34.6104
-37.3161
-33.8197
-35.9412
-35.5553
-35.4726
-35.2081
-35.6832
-34.9883
-34.9492
-45.4458
-51.7893
-47.8271
-47.3106
-38.706
-38.3361
-37.713
-39.2644
-40.2004
-43.902
-41.9201
-41.9256
-35.4721
-35.1804
-35.2538
-35.2501
-34.5478
-36.2175
-34.7688
-36.2165
-41.8572
-44.8276
-42.9386
-43.5704
-37.8992
-34.8347
-36.278
-36.262
-44.2295
-42.387
-43.3173
-43.2976
-43.061
-40.187
-40.8526
-41.7871
-82.13
-103.826
-96.6256
-91.6935
8.76344
-5.28685
0.13996
0.169174
-7.03396
-58.0785
-24.5584
-24.5035
-75.2267
-90.1353
-82.1704
-82.1816
-45.1576
-39.7302
-42.1964
-42.1894
-33.7842
-35.944
-35.5439
-35.4865
-35.1876
-35.6811
-34.9769
-34.9403
-45.4648
-51.7849
-47.3094
-47.8229
-38.6534
-38.3103
-37.6721
-39.2252
-34.4989
-36.2093
-36.2052
-34.6924
-41.8613
-44.8256
-42.9808
-43.5968
-43.1865
-40.2346
-41.8411
-40.9162
-82.2826
-103.933
-91.804
-96.9716
-73.0681
-69.9576
-62.9866
-64.023
-47.3077
-44.6468
-51.4909
-47.7431
-46.9183
-45.3752
-51.0571
-47.1857
-51.6118
-58.3873
-62.0447
-73.0068
-72.9502
-69.9062
-62.8881
-64.0039
-51.58
-58.3338
-61.9169
-72.8939
-46.9202
-45.3912
-51.0456
-47.1917
-47.3208
-44.6558
-51.4885
-47.7464
-79.5556
-72.1856
-72.9504
-66.0781
-79.494
-72.1379
-72.914
-66.0383
-41.3652
-39.9326
-43.4122
-41.6996
-41.3801
-39.9451
-43.4276
-41.7121
-20.1355
-37.0156
-19.4482
-25.8349
-15.6442
-5.37662
-15.2689
-5.78073
-15.5998
-5.36346
-15.2321
-5.75574
-20.0415
-36.7285
-19.4083
-25.9342
167.253
177.636
179.812
192.214
144.627
115.551
173.79
158.892
113.795
139.865
158.825
174.658
177.976
166.027
192.288
181.019
-35.139
-36.3378
-35.8147
-36.6048
-33.7487
-33.1803
-34.2242
-33.8228
-38.0285
-40.1109
-37.6979
-39.5542
-42.3977
-44.0299
-41.0701
-42.2786
-35.0989
-36.3085
-35.79
-36.5749
-42.3381
-44.0582
-41.0255
-42.2342
-38.0504
-40.6588
-37.7296
-39.645
-33.7886
-33.1787
-34.2113
-33.7608
-34.6245
-35.0266
-34.725
-35.0103
-35.0155
-34.608
-35.0007
-34.7121
-37.6694
-35.9985
-36.0946
-34.8013
-35.733
-37.638
-34.6642
-36.0358
-67.5246
-17.9531
-53.2436
-23.5733
-64.1807
-69.4964
-79.955
-79.2257
-69.5184
-64.3373
-79.2587
-80.0276
-17.3645
-66.9251
-23.1344
-53.0411
-40.4344
-41.7103
-41.9525
-41.9983
-44.3892
-47.7183
-47.0105
-50.6271
-41.9194
-43.0884
-44.6813
-46.5452
-44.953
-40.92
-46.7744
-44.237
-40.4333
-41.6985
-41.9164
-42.1192
-44.926
-40.936
-46.7562
-44.2357
-41.8784
-43.043
-44.6453
-46.4867
-44.3611
-47.6999
-46.9779
-50.6125
-42.6088
-44.1865
-41.9618
-43.2242
-42.5817
-43.6813
-42.0139
-43.1985
-41.9104
-41.4713
-40.9384
-40.1659
-41.8802
-41.4253
-40.9239
-40.1768
-45.0358
-46.7024
-41.1533
-43.0524
-31.9516
-33.1402
-31.4658
-32.7886
-31.9411
-33.1161
-31.4592
-32.7782
-45.0014
-46.683
-41.1413
-43.0447
-37.1829
-38.3458
-36.5472
-36.9421
-38.3389
-37.1743
-36.9361
-36.5421
-34.0603
-35.3751
-34.5608
-35.6604
-35.3814
-34.0819
-35.6679
-34.5721
-93.1705
106.686
-122.213
16.8531
-105.395
-95.4999
-43.4794
-41.3602
-43.4027
-41.7967
-44.7735
-43.0711
-37.7376
51.4073
12.4555
33.33
-39.1635
-3.58205
-38.0468
-35.492
-33.7076
-34.4462
-38.7896
-34.6676
-122.007
17.9662
-95.022
106.954
-105.364
-95.4626
-43.3089
-41.7899
-43.4349
-41.3408
-44.7547
-43.0449
12.6377
34.5961
-37.7406
51.8407
-39.3067
-3.59487
-33.6928
-34.4187
-38.0162
-35.4756
-38.7541
-34.6513
-37.822
-38.7103
-34.9929
-34.9028
-41.7065
-38.6194
-37.4594
-35.8576
-47.7413
-46.5702
-36.2428
-38.6464
-31.3231
-56.8363
-40.0739
-45.5584
-44.9276
-37.902
-45.801
-45.4632
-47.6376
-63.0549
-26.4687
-37.2094
-44.7736
-47.4001
-38.9534
-41.349
-42.3386
-50.5468
-53.6085
-50.3758
-37.5203
-38.695
-37.4593
-35.8569
-34.9619
-34.898
-41.7081
-38.588
-47.6281
-46.0295
-40.1694
-46.1585
-36.1901
-38.6928
-31.2958
-56.8222
-44.8593
-38.2465
-26.2368
-36.9177
-45.8796
-45.5523
-47.9105
-65.0901
-44.8262
-47.3873
-53.5588
-50.3002
-39.3624
-41.4428
-42.4887
-50.9644
-88.6237
88.5709
-61.575
93.414
-79.1997
-66.5102
140.777
144.117
-107.485
37.0482
-107.465
36.6985
-89.6802
-89.6414
100.15
100.237
-66.2703
-59.5412
-49.595
-45.3777
-66.2674
-55.2195
-55.4199
-48.1679
-40.2478
-37.0826
-39.2131
-36.5388
-41.1716
-40.723
-36.4174
-36.2158
-43.5837
-40.1795
-43.5897
-40.1953
-42.0602
-42.0565
-41.2069
-41.3695
-46.9689
-40.7346
-40.2414
-40.0997
-42.3439
-45.7875
-40.3527
-39.7027
-1.14234
13.8368
-1.11802
13.9553
-3.94146
-3.95046
48.5779
48.7095
-60.3817
-50.1876
-56.433
-37.502
-60.7477
-69.5585
-41.0759
-33.5583
-31.1494
-31.9391
-31.0749
-31.9179
-31.4792
-31.4741
-32.0907
-32.1015
-44.364
-37.8726
-48.4834
-43.7177
-48.0241
-50.5148
-40.5219
-37.2689
-88.6668
88.938
-62.0283
93.7907
-78.8083
-66.0537
143.495
140.429
-66.1459
-59.5061
-49.5807
-45.3591
-66.1099
-55.202
-55.3915
-48.1483
-40.2215
-37.0682
-39.1846
-36.5251
-40.6847
-41.1347
-36.4096
-36.2093
-46.8744
-40.6837
-40.234
-40.0974
-42.409
-45.6662
-40.3692
-39.7971
-60.3197
-50.2628
-56.3975
-37.4317
-69.5091
-60.7212
-33.4361
-41.0934
-44.3358
-37.874
-48.4661
-43.6837
-50.3173
-48.0281
-37.2585
-40.4727
-34.0074
-33.996
-34.9884
-33.6231
-33.7761
-33.9652
-34.4786
-34.5288
-43.2836
-40.9539
-44.6379
-41.2581
-44.1628
-44.497
-38.3837
-39.7907
-37.67
-36.3031
-37.6637
-36.2985
-38.8241
-38.8287
-35.8324
-35.8288
-32.3579
-43.2729
-34.7228
-38.2045
-33.1978
-34.5335
-41.9753
-39.9706
-39.7533
-43.3427
-39.7824
-43.3254
-38.821
-38.8052
-44.9209
-44.89
-48.5421
-60.3873
-46.0389
-55.4014
-44.3145
-44.9938
-69.7131
-64.2168
17.5025
13.2433
17.4661
13.2876
14.8208
14.807
8.44776
8.51204
-62.601
-53.0897
-62.5993
-53.0827
-68.3305
-68.3326
-48.908
-48.9055
-33.9546
-33.9629
-33.9691
-33.5717
-33.7201
-33.8186
-34.4506
-34.4932
-43.3376
-41.0007
-44.7787
-41.2418
-44.549
-44.1989
-38.3284
-39.7337
-32.3574
-43.3029
-34.6675
-38.2569
-34.4575
-33.1741
-41.9867
-39.991
-48.7446
-61.3443
-46.0621
-55.538
-45.3544
-44.4152
-64.3258
-70.0527
-75.888
-74.8363
-71.1572
-57.3122
-58.5713
-69.1032
-54.9876
-55.776
-75.8291
-74.7813
-71.1046
-57.2965
-69.0742
-58.5504
-55.7676
-54.9917
-61.5861
-61.5752
-56.8321
-49.2594
-56.8179
-49.253
-46.3633
-46.3671
-20.4587
-20.4542
-24.1112
-17.4201
-17.4114
-24.1087
-11.1762
-11.1783
191.908
197.799
197.717
197.713
199.709
199.689
197.807