# vtk DataFile Version 2.0
tet_velo
ASCII
DATASET UNSTRUCTURED_GRID
POINTS 29498 float
-0.755 0.305 -1.96652
-0.705 0.365 1.95523
-0.805 0.705 -1.9904
-0.575 1.16979 2.005
0.755 0.305 -1.9704
0.705 0.365 1.9558
0.805 0.705 -1.99037
0.575 1.16974 2.005
-0.789408 0.273925 -0.65927
-0.79581 0.270856 0.64798
-0.850763 0.982359 -0.6586
-0.780661 1.14385 0.6732
0.788791 0.274542 -0.661667
0.797058 0.269608 0.647067
0.850775 0.982354 -0.65858
0.780598 1.14376 0.67321
-1.54895 -0.122733 -3.02431
-1.55527 -0.038444 -1.96849
-1.56817 -0.0619373 -0.661764
-1.53718 -0.0972242 0.639981
-1.45891 -0.0459514 1.94629
-1.44555 0.0173551 3.00008
-1.46216 0.082968 4.05769
-1.55484 0.168618 -3.02681
-1.56524 0.286526 -1.96842
-1.58438 0.303686 -0.657121
-1.53203 0.299212 0.651873
-1.41012 0.356399 1.96272
-1.41604 0.418918 3.01691
-1.44957 0.482334 4.0738
-1.57818 0.687393 -3.03915
-1.60685 0.799454 -1.98232
-1.62762 1.00632 -0.654389
-1.52275 1.13211 0.675235
-1.33831 1.17446 2.00277
-1.38066 1.23017 3.05593
-1.44241 1.28934 4.10892
-1.58677 1.6646 -3.03921
-1.60069 1.80693 -1.97847
-1.60577 2.05261 -0.642759
-1.57289 2.26599 0.698213
-1.51852 2.38341 2.03382
-1.50067 2.44141 3.09433
-1.51028 2.49383 4.14985
-0.760537 -0.113022 -3.02361
-0.761604 -0.0226238 -1.96706
-0.780041 -0.0749422 -0.662713
-0.783892 -0.119 0.636602
-0.740639 -0.0486655 1.94083
-0.734651 0.0149513 2.99634
-0.747469 0.07951 4.05543
-0.760907 0.166766 -3.02701
-0.721968 0.41897 3.01379
-0.743757 0.479976 4.07207
-0.778033 0.647229 -3.04259
-0.692498 1.2289 3.05626
-0.743415 1.28814 4.10886
-0.788725 1.63409 -3.04257
-0.800821 1.77664 -1.98208
-0.817454 2.04165 -0.645012
-0.817394 2.27221 0.698205
-0.795718 2.39015 2.03528
-0.785782 2.44516 3.09579
-0.793259 2.49585 4.15085
0.794791 -0.112975 -3.02607
0.778978 -0.0225122 -1.97011
0.792869 -0.074685 -0.664863
0.780491 -0.119761 0.635646
0.715376 -0.0489776 1.94084
0.687492 0.0147097 2.99627
0.679038 0.0792543 4.05518
0.79511 0.16679 -3.02939
0.660106 0.418801 3.01386
0.661152 0.479744 4.07188
0.810939 0.647237 -3.04375
0.613254 1.22875 3.0562
0.635897 1.28794 4.10865
0.809971 1.63408 -3.04343
0.806075 1.77663 -1.98274
0.778144 2.0416 -0.645519
0.71183 2.27209 0.697807
0.647528 2.38999 2.03495
0.632961 2.44498 3.09546
0.633146 2.49565 4.15048
1.57952 -0.12264 -3.02865
1.56826 -0.0382439 -1.97331
1.58044 -0.0617386 -0.665393
1.55113 -0.0982015 0.638114
1.46194 -0.046725 1.94574
1.41944 0.0167866 2.99965
1.4074 0.0824356 4.05706
1.58067 0.168685 -3.03096
1.56572 0.286664 -1.97323
1.58763 0.30406 -0.660599
1.5507 0.298129 0.650207
1.42926 0.355703 1.96246
1.38584 0.418424 3.01667
1.38396 0.481836 4.07328
1.60156 0.687419 -3.04174
1.60585 0.799482 -1.98437
1.62647 1.00643 -0.655908
1.53166 1.13169 0.674381
1.34537 1.17396 2.00239
1.33013 1.22975 3.0556
1.35137 1.28889 4.1084
1.60407 1.66458 -3.04103
1.60104 1.8069 -1.97996
1.56922 2.05251 -0.643938
1.48559 2.26575 0.697288
1.39462 2.38306 2.03306
1.36397 2.44102 3.09359
1.36023 2.49342 4.14905
-0.792182 0.505 -1.99064
0 0.272468 -2.00099
-0.793595 0.268072 -1.3129
-0.707166 0.767395 2.04728
0 0.343401 1.97711
-0.767983 0.30035 1.30161
0 0.852287 -2.13767
-0.86328 0.879078 -1.3245
0 1.23191 2.06714
-0.715214 1.19421 1.3391
0.790332 0.505 -1.99072
0.79044 0.271227 -1.31603
0.707301 0.76737 2.0477
0.768017 0.300316 1.30143
0.863265 0.879055 -1.32448
0.715149 1.1941 1.33911
-0.785245 0.279755 -0.00564498
-0.862985 0.628142 -0.658935
-0.00030876 0.284921 -0.660468
-0.863942 0.707356 0.66059
0.000624021 0.287487 0.647523
-0.820802 1.0682 0.00730008
6.01119e-06 1.33658 -0.65859
-3.18209e-05 1.5475 0.673205
0.784999 0.280001 -0.00729996
0.862911 0.628448 -0.660123
0.864059 0.706683 0.660139
0.82086 1.06823 0.00731504
-0.879789 0.566571 -1.3187
-0.869934 0.667749 0.000827551
-0.896219 0.737375 1.32035
-0.00015438 0.257523 -1.31446
0.000157631 0.291734 -0.00647247
0.00031201 0.314147 1.30152
0 0.505 -2.22765
0 0.767383 2.20931
3.0056e-06 1.08835 -1.32449
-1.29048e-05 1.56239 0.00730756
-1.59104e-05 1.44468 1.3391
0.879712 0.566724 -1.32025
0.86991 0.667566 7.53999e-06
0.896224 0.737026 1.32027
-1.16012 0.295763 -1.96747
-0.758302 0.141188 -1.96679
-0.757954 0.235883 -2.49677
-1.05756 0.3607 1.95898
-0.722819 0.158167 1.94803
-0.713484 0.391985 2.48451
-1.20593 0.752227 -1.98636
-0.791517 0.676115 -2.5165
-0.802911 1.24082 -1.98624
-0.956657 1.17213 2.00389
-0.633749 1.19934 2.53063
-0.685359 1.77997 2.02014
0.766989 0.141244 -1.97026
0.775055 0.235895 -2.4999
1.16036 0.295832 -1.97181
0.710188 0.158011 1.94832
0.682553 0.3919 2.48483
1.06713 0.360352 1.95913
0.80797 0.676118 -2.51706
0.805538 1.24082 -1.98656
1.20542 0.752241 -1.98737
0.594127 1.19924 2.5306
0.611264 1.77986 2.01998
0.960183 1.17185 2.0037
-1.18689 0.288806 -0.658196
-0.784725 0.0994914 -0.660992
-1.16392 0.285034 0.649927
-0.789851 0.0759283 0.642291
-1.23919 0.994342 -0.656494
-0.834108 1.512 -0.651806
-1.1517 1.13798 0.674217
-0.799028 1.70803 0.685703
0.79083 0.0999288 -0.663265
1.18821 0.289301 -0.661133
0.788775 0.0749238 0.641356
1.17388 0.283869 0.648637
0.814459 1.51198 -0.652049
1.23862 0.994391 -0.657244
0.746214 1.70793 0.685509
1.15613 1.13772 0.673796
-1.55211 -0.0805884 -2.4964
-1.5519 0.0229428 -3.02556
-1.15474 -0.117877 -3.02396
-1.56172 -0.0501906 -1.31512
-1.56025 0.124041 -1.96845
-1.15843 -0.0305339 -1.96777
-1.55267 -0.0795807 -0.0108918
-1.57627 0.120874 -0.659443
-1.1741 -0.0684397 -0.662239
-1.49804 -0.0715878 1.29313
-1.5346 0.100994 0.645927
-1.16053 -0.108112 0.638291
-1.45223 -0.0142981 2.47318
-1.43452 0.155224 1.9545
-1.09978 -0.0473084 1.94356
-1.45385 0.0501616 3.52888
-1.4308 0.218136 3.0085
-1.0901 0.0161532 2.99821
-1.45586 0.282651 4.06575
-1.10481 0.081239 4.05656
-1.56004 0.227572 -2.49761
-1.56651 0.428006 -3.03298
-1.15787 0.167692 -3.02691
-1.57481 0.295106 -1.31277
-1.58605 0.54299 -1.97537
-1.5582 0.301449 -0.00262405
-1.606 0.655005 -0.655755
-1.47108 0.327806 1.3073
-1.52739 0.715662 0.663554
-1.41308 0.387658 2.48982
-1.37422 0.765431 1.98275
-1.43281 0.450626 3.54536
-1.39835 0.824546 3.03642
-1.069 0.418944 3.01535
-1.44599 0.885838 4.09136
-1.09667 0.481155 4.07294
-1.59252 0.743423 -2.51073
-1.58248 1.176 -3.03918
-1.17811 0.667311 -3.04087
-1.61724 0.902889 -1.31835
-1.60377 1.30319 -1.98039
-1.57518 1.06922 0.010423
-1.61669 1.52947 -0.648574
-1.43053 1.15329 1.339
-1.54782 1.69905 0.686724
-1.35949 1.20232 2.52935
-1.42842 1.77894 2.01829
-1.41153 1.25976 3.58243
-1.44066 1.83579 3.07513
-1.03658 1.22954 3.0561
-1.47634 1.89159 4.12938
-1.09291 1.28874 4.10889
-1.59373 1.73576 -2.50884
-1.18775 1.64934 -3.04089
-1.60323 1.92977 -1.31062
-1.20076 1.79179 -1.98028
-1.58933 2.1593 0.0277272
-1.21161 2.04713 -0.643885
-1.5457 2.3247 1.36602
-1.19514 2.2691 0.698209
-1.50959 2.41241 2.56407
-1.15712 2.38678 2.03455
-1.50547 2.46762 3.62209
-1.14322 2.44329 3.09506
-1.15177 2.49484 4.15035
-0.76107 -0.0678228 -2.49533
-0.760722 0.0268721 -3.02531
0.0171271 -0.112999 -3.02484
-0.770823 -0.048783 -1.31489
0.00868714 -0.022568 -1.96859
-0.781967 -0.0969709 -0.0130554
0.00641388 -0.0748136 -0.663788
-0.762266 -0.0838326 1.28872
-0.00170047 -0.11938 0.636124
-0.737645 -0.0168571 2.46858
-0.0126314 -0.0488216 1.94083
-0.74106 0.0472307 3.52589
-0.72831 0.216961 3.00506
-0.0235797 0.0148305 2.9963
-0.745613 0.279743 4.06375
-0.0342156 0.0793822 4.05531
-0.76947 0.406998 -3.0348
0.0171017 0.166778 -3.0282
-0.732862 0.449473 3.54293
-0.707233 0.823934 3.03503
-0.0309312 0.418885 3.01383
-0.743586 0.88406 4.09047
-0.0413024 0.47986 4.07198
-0.783379 1.14066 -3.04258
0.0164532 0.647233 -3.04317
-0.717956 1.25852 3.58256
-0.73914 1.83703 3.07603
-0.039622 1.22882 3.05623
-0.768337 1.892 4.12985
-0.0537587 1.28804 4.10876
-0.794773 1.70537 -2.51233
0.010623 1.63408 -3.043
-0.809137 1.90914 -1.31355
0.00262707 1.77664 -1.98241
-0.817424 2.15693 0.0265965
-0.0196548 2.04162 -0.645265
-0.806556 2.33118 1.36674
-0.0527818 2.27215 0.698006
-0.79075 2.41766 2.56554
-0.0740946 2.39007 2.03512
-0.78952 2.47051 3.62332
-0.0764102 2.44507 3.09563
-0.0800562 2.49575 4.15066
0.786885 -0.0677438 -2.49809
0.794951 0.0269072 -3.02773
1.18716 -0.117808 -3.02736
0.785924 -0.0485986 -1.31749
1.17362 -0.0303781 -1.97171
0.78668 -0.0972229 -0.0146084
1.18665 -0.0682118 -0.665128
0.747934 -0.0843692 1.28824
1.16581 -0.108981 0.63688
0.701434 -0.0171339 2.46855
1.08866 -0.0478513 1.94329
0.683265 0.046982 3.52573
0.673799 0.216755 3.00507
1.05347 0.0157482 2.99796
0.670095 0.279499 4.06353
1.04322 0.080845 4.05612
0.803025 0.407013 -3.03657
1.18789 0.167737 -3.03017
0.660629 0.449272 3.54287
0.63668 0.823775 3.03503
1.02297 0.418612 3.01527
0.648525 0.88384 4.09027
1.02256 0.48079 4.07258
0.810455 1.14066 -3.04359
1.20625 0.667328 -3.04275
0.624576 1.25834 3.58243
0.623108 1.83686 3.07583
0.97169 1.22925 3.0559
0.634522 1.89179 4.12956
0.993633 1.28841 4.10852
0.808023 1.70536 -2.51309
1.20702 1.64933 -3.04223
0.79211 1.90912 -1.31413
1.20356 1.79176 -1.98135
0.744987 2.15685 0.0261444
1.17368 2.04705 -0.644728
0.679679 2.33104 1.36638
1.09871 2.26892 0.697548
0.640245 2.41748 2.56521
1.02108 2.38653 2.03401
0.633054 2.47031 3.62297
0.998465 2.443 3.09452
0.996688 2.49454 4.14977
1.57389 -0.0804418 -2.50098
1.5801 0.0230227 -3.0298
1.57435 -0.0499913 -1.31935
1.56699 0.12421 -1.97327
1.56578 -0.07997 -0.0136392
1.58403 0.121161 -0.662996
1.50654 -0.0724632 1.29193
1.55091 0.0999639 0.644161
1.44069 -0.0149692 2.47269
1.4456 0.154489 1.9541
1.41342 0.0496111 3.52835
1.40264 0.217605 3.00816
1.39568 0.282136 4.06517
1.57319 0.227675 -2.50209
1.59112 0.428052 -3.03635
1.57667 0.295362 -1.31691
1.58578 0.543073 -1.9788
1.56916 0.301095 -0.00519568
1.60705 0.655244 -0.658253
1.48998 0.326916 1.30633
1.54118 0.714908 0.662294
1.40755 0.387064 2.48956
1.38731 0.76483 1.98243
1.3849 0.45013 3.54498
1.35798 0.824089 3.03614
1.36766 0.885365 4.09084
1.60371 0.743451 -2.51305
1.60282 1.176 -3.04139
1.61616 0.902955 -1.32014
1.60345 1.30319 -1.98217
1.57907 1.06906 0.00923671
1.59785 1.52947 -0.649923
[...]
POINT_DATA 29498
VECTORS point_vectors float
-1.09778 -1.94897 4.25449
0.0222978 0.151685 0.489038
-4.43705 1.15723 5.50643
0.00550613 0.00426644 0.0415345
1.07568 -1.95401 3.97515
-0.0218624 0.159918 0.509258
4.23654 1.12372 5.23487
-0.0052229 0.00490367 0.038682
0.0531052 -0.0092936 0.908459
0.0232036 -0.0818174 1.24588
-0.0409911 -0.0262329 0.337624
0 0 0
-0.0792144 -0.00650743 0.861011
-0.02581 -0.0910013 1.35229
0.0401697 -0.0256374 0.337293
0 0 0
-0.667117 -0.346378 19.9035
-1.25899 -0.746625 20.6389
-0.424617 -0.41334 21.4063
0.0374361 -0.0836633 21.5
0.495073 0.288248 21.4772
0.775893 0.452511 21.2744
0.871101 0.450747 20.2263
-0.778822 -0.272243 19.7996
-1.6811 -0.621196 20.6064
-0.553359 -0.492171 21.4969
0.00819058 -0.214523 21.6217
0.835714 0.197913 21.5962
1.14894 0.307578 21.1574
1.04635 0.282785 20.4393
-0.836404 -0.0388923 19.7018
-1.89277 -0.0246603 20.4257
-1.12511 -0.303306 21.4409
-0.285466 -0.28541 21.8097
0.759945 -0.507859 21.6125
1.00854 -0.525542 21.2637
0.91097 -0.511702 20.5735
-0.593425 0.314601 19.8792
-1.02397 0.561766 20.3467
-0.880815 0.415402 21.1544
-0.255746 0.0022035 21.5748
0.14356 -0.240608 21.3344
0.291141 -0.381513 21.0569
0.251596 -0.320439 20.7732
-0.694973 -0.82423 19.2763
-1.91465 -3.43385 21.2865
-0.203634 -0.252223 21.6726
0.0684979 0.0987257 21.5701
0.190209 0.951013 20.5651
0.397158 1.3015 19.6844
0.291742 1.24046 19.1543
-0.885323 -0.710371 18.8724
0.128047 1.82347 9.14632
1.6305 1.70042 13.0836
-1.06091 -0.0584064 18.541
1.39464 -0.319916 10.1235
1.62499 -0.846001 17.3908
-0.57603 0.70008 19.3757
-1.23316 1.71136 19.9805
-1.3228 1.55823 21.2583
-0.323767 0.22482 21.9454
0.102556 -0.410896 21.5295
0.188996 -0.545767 21.1371
0.327888 -0.579857 20.6516
0.705549 -0.785908 19.3015
1.96743 -3.37097 21.2421
0.202331 -0.256007 21.6873
-0.0653933 0.103558 21.5659
-0.164237 0.94722 20.5105
-0.298293 1.26683 19.1122
-0.141609 1.35372 18.9445
0.900572 -0.687286 18.9103
0.146927 1.49175 7.33459
-1.65806 1.81807 10.8525
1.06575 -0.0524714 18.6043
-1.17997 -0.191694 7.84049
-1.81809 -0.718701 14.5395
0.584011 0.689169 19.3942
1.23593 1.70108 19.9846
1.30316 1.64863 21.2512
0.309582 0.271687 22.007
-0.0889722 -0.43554 21.5699
-0.177937 -0.538684 21.0699
-0.308726 -0.514032 20.5185
0.657967 -0.329677 19.9127
1.25036 -0.741264 20.6371
0.429284 -0.422098 21.3932
-0.0257487 -0.093341 21.4905
-0.48438 0.280354 21.4781
-0.778203 0.493784 21.2719
-0.850718 0.476152 20.4591
0.75865 -0.261719 19.8267
1.67982 -0.623338 20.6063
0.55604 -0.491845 21.4989
-0.00447804 -0.214929 21.6168
-0.815719 0.180519 21.5966
-1.18899 0.334343 21.1706
-1.13614 0.442787 20.43
0.824797 -0.0380429 19.7344
1.88727 -0.0247346 20.436
1.12633 -0.305021 21.4487
0.27807 -0.282022 21.8059
-0.753062 -0.503273 21.6121
-1.04416 -0.592283 21.2479
-1.17976 -0.493368 20.2393
0.588453 0.313498 19.8874
1.02269 0.561359 20.3476
0.910768 0.441357 21.1545
0.272605 0.013851 21.6137
-0.148766 -0.291265 21.399
-0.284051 -0.43197 20.9938
-0.258457 -0.415001 20.8589
-2.15245 -0.414001 2.74385
0.000636602 -0.112088 0.598
-0.00803333 -0.0108687 0.782894
-0.00278446 0.00461784 -0.000503817
-0.0002663 0.00848561 0.0408873
-0.021503 0.0304851 0.516309
0.163542 4.27913 2.81893
-0.100801 -0.100955 0.479855
-0.00117785 0.00685495 -0.0177958
0 0 0
0.895775 -0.181263 1.15187
0.00305116 -0.0116425 0.712003
0.0027656 0.00476136 -0.000453895
0.0229931 0.031001 0.524675
0.100307 -0.0999707 0.480829
0 0 0
0.026619 -0.00274336 0.846246
-0.000315289 -0.000594022 0.0581826
0 0 0
0 0 0
2.16868e-05 -0.000256957 0.0567449
0 0 0
4.99891e-05 0.0264094 0.0519151
-0.000163029 -0.000776748 0.0100669
-0.0247077 0.00291879 0.786561
0.000327756 -0.000600735 0.0581011
0 0 0
0 0 0
0 0 0
-0.000187247 0.00474456 0.0275451
0.000372215 0.00652057 0.0379836
-2.10655e-06 2.03581e-06 -0.000143481
-2.75948e-08 8.06402e-07 6.63802e-05
0 0 0
-0.00129154 -0.628769 0.533625
-0.000548254 0.0475312 -0.0228107
1.30141e-06 0.00023332 0.00170159
-1.38241e-05 0.0103001 0.097914
-1.90334e-05 -0.00310429 0.0136307
0.000252552 -0.00280558 0.0394754
0.000191375 0.00492777 0.0288745
-0.000370246 0.00636311 0.0373657
-3.36288 -1.73714 20.7655
-2.97938 -5.65247 22.1565
-2.42133 -2.19392 17.7426
1.1618 1.01059 17.3222
-0.179695 1.2503 13.9761
-0.401067 1.17651 5.71643
-3.84379 0.129357 20.2951
-3.04342 0.163044 16.8318
-3.15706 3.0612 19.5711
1.34492 0.084958 14.8274
0.619492 0.260399 4.59818
0.287765 -0.860585 21.1606
3.10765 -5.54604 21.984
2.4286 -2.11997 17.8175
3.29296 -1.67777 20.766
0.202762 1.22926 13.7955
0.653661 1.10073 5.00049
-1.16199 0.958015 17.645
3.04093 0.153321 16.961
3.15705 3.04139 19.5827
3.82882 0.120739 20.3059
-0.501833 0.308397 3.57936
-0.270066 -0.883649 20.8651
-1.34968 0.0758986 14.9992
-0.291627 -0.751968 21.694
0.124104 0.094702 17.1677
0.0865141 -0.222758 20.531
0.351996 0.0396342 17.5391
-1.86022 -0.895202 21.7807
-3.56932 1.93152 21.405
-0.439882 -0.340321 20.8465
-0.585012 0.110399 22.3151
-0.144169 0.0915663 17.2882
0.304371 -0.751209 21.7103
-0.360515 0.0438687 17.5893
-0.0858549 -0.235744 20.7137
3.64599 2.06508 21.3796
1.86129 -0.895758 21.7726
0.556684 0.141228 22.1689
0.448104 -0.361635 20.9563
-1.02545 -0.57824 20.1016
-0.741562 -0.329685 19.8538
-0.743341 -0.565071 19.6266
-0.856671 -0.608919 21.2558
-1.4645 -0.712308 20.6381
-1.80391 -1.6303 20.7877
-0.149925 -0.246436 21.4819
-0.483982 -0.443751 21.4541
-0.270401 -0.459768 21.6446
0.234568 0.0853253 21.602
0.0275818 -0.154374 21.5464
0.101006 -0.0662456 21.6331
0.649744 0.398921 21.3808
0.644436 0.280365 21.5426
0.55609 0.66161 21.4631
0.798512 0.399883 21.3466
0.96153 0.385463 21.2327
0.887401 0.810219 21.2085
0.907895 0.311351 20.4517
0.714876 0.611898 21.788
-1.30852 -0.463048 19.9644
-0.827235 -0.168107 19.7169
-0.90012 -0.493961 19.4238
-1.11842 -0.585365 21.3611
-1.82629 -0.358427 20.5258
-0.22509 -0.372721 21.553
-0.830523 -0.501977 21.4875
0.356064 -0.0257161 21.7657
-0.107671 -0.284334 21.7693
0.986123 0.250282 21.4131
1.01078 -0.168204 21.4993
1.2068 0.245656 21.3892
1.27953 -0.151361 21.174
1.5985 0.913566 18.7836
1.0056 -0.224758 20.5417
1.54197 1.15069 20.4629
-1.42048 -0.0169436 19.8312
-0.764905 0.201451 19.7566
-1.0464 -0.0522479 19.2317
-1.53979 -0.157573 21.1474
-1.48227 0.464832 20.3525
-0.735726 -0.345837 21.7017
-1.20045 0.187835 21.3125
0.252714 -0.321076 21.9069
-0.365432 -0.0830572 21.7346
0.878819 -0.548149 21.4739
0.323735 -0.409873 21.5008
0.947078 -0.533514 21.284
0.542338 -0.505244 21.2258
1.36072 -0.635632 20.0659
0.549755 -0.550302 20.6842
1.32568 -0.607738 19.9844
-0.826019 0.456381 20.063
-0.659119 0.505521 19.653
-1.00899 0.531276 20.7816
-1.24987 1.04717 20.2083
-0.598086 0.2376 21.4745
-1.1774 0.820302 21.2431
0.00431179 -0.16927 21.5316
-0.323313 0.109611 21.7581
0.242197 -0.324874 21.3078
0.153856 -0.342735 21.459
0.264285 -0.291029 21.0125
0.244791 -0.523073 21.1656
0.355291 -0.589685 20.8043
-1.43639 -2.02353 19.1423
-0.788641 -0.783438 19.074
0.0178525 -1.137 18.8697
-0.717168 -1.11423 22.237
0.0254304 -5.02341 21.9743
-0.0173617 -0.00889816 21.4448
0.00399734 -0.482514 20.5368
0.170645 0.464478 20.936
-0.00280019 -0.0329989 20.1612
0.224734 1.11842 20.1856
-0.00605491 0.416906 17.7002
0.653943 1.59679 19.4092
0.416485 1.74403 15.0294
-0.102472 0.384824 16.3295
1.18684 1.43589 13.8224
-0.074322 1.02603 13.4525
-1.02002 -0.432808 18.6308
0.0395787 -1.00971 18.2401
1.2518 1.64366 11.6466
1.17376 1.02989 5.54314
-0.0945657 -1.85642 -4.41112
2.22376 0.521094 11.9423
0.0578947 -2.52922 -3.68505
-0.878752 0.563632 18.8624
0.0329631 -0.0786781 17.6778
1.64639 -0.868497 13.1061
0.432181 -1.03817 21.3465
0.04696 0.0850093 0.546651
0.382126 -0.765263 20.2699
0.116834 -1.91827 5.24643
-0.962656 1.2895 19.451
0.0100172 0.960452 19.0636
-1.34872 1.68278 20.5892
0.00907767 2.71189 19.6729
-0.875076 0.939602 21.9186
-0.0504855 2.88175 21.1205
-0.030486 -0.200358 21.7905
-0.035077 0.423437 22.2173
0.16477 -0.511962 21.3499
0.00775246 -0.455301 21.5953
0.125884 -0.595985 20.8318
0.0321559 -0.607789 21.2576
0.00104579 -0.606588 20.7015
1.45277 -1.94911 19.1697
0.800493 -0.758661 19.1047
0.742827 -0.546977 19.6506
0.734427 -1.10336 22.2081
1.78318 -1.57529 20.7745
0.0185254 -0.0100347 21.4769
0.286419 -0.461451 21.6297
-0.16532 0.468354 20.9369
-0.0956898 -0.0671988 21.6332
-0.169444 1.10391 19.9172
-0.549132 0.673631 21.4566
-0.602715 1.62969 19.1012
-0.145731 1.62362 14.109
-0.875115 0.868895 21.1935
-1.04237 1.56578 13.5014
-0.783812 0.758272 21.8144
1.03603 -0.41516 18.7011
0.903777 -0.485292 19.4541
-1.11503 1.72235 9.88792
-0.849909 0.481459 3.9051
-1.54867 1.0845 17.7333
-2.39293 0.64307 9.41265
-1.61424 1.3352 20.463
0.884635 0.552267 18.8998
1.04087 -0.0491021 19.2752
-1.5039 -0.843187 11.3405
-0.433757 -1.09299 21.0273
-1.45998 -0.554064 18.4609
-0.334787 -0.840851 20.4199
-1.34448 -0.669949 19.7749
0.972161 1.26912 19.4636
0.656413 0.493873 19.6665
1.34265 1.71103 20.5808
1.24737 1.03981 20.2119
0.869015 1.04004 21.9749
1.2083 0.874939 21.2478
0.0399721 -0.218475 21.7954
0.331847 0.13065 21.7885
-0.147381 -0.516236 21.3598
-0.143438 -0.367755 21.48
-0.0606831 -0.590297 20.9723
-0.220626 -0.558408 21.2075
-0.360357 -0.646836 20.7818
1.00445 -0.55887 20.1158
0.720932 -0.311429 19.8737
0.866974 -0.611604 21.2362
1.45201 -0.706393 20.6361
0.152731 -0.254247 21.4832
0.488729 -0.443683 21.4448
-0.225925 0.0772315 21.5904
-0.0203526 -0.156923 21.5327
-0.646464 0.414077 21.3847
-0.634812 0.263031 21.5365
-0.814217 0.465531 21.3563
-0.973269 0.420579 21.2447
-0.882991 0.337236 20.7067
1.281 -0.450855 19.973
0.817004 -0.166514 19.7432
1.11931 -0.582149 21.3553
1.82772 -0.361633 20.5333
0.22787 -0.371516 21.5542
0.831108 -0.50474 21.4915
-0.34375 -0.026351 21.7608
0.107703 -0.280026 21.7605
-0.992373 0.259429 21.423
-0.986687 -0.164873 21.5174
-1.28143 0.354502 21.0075
-1.34482 -0.160427 21.1652
-1.20456 -0.196894 20.2147
1.40331 -0.0190914 19.8558
0.759433 0.196701 19.7784
1.53798 -0.15944 21.1531
1.48278 0.461751 20.3557
0.731054 -0.343663 21.7013
1.22763 0.195262 21.3201
-0.249044 -0.316227 21.8978
0.37233 -0.0815415 21.7742
-0.891741 -0.562917 21.4644
-0.328454 -0.44264 21.5284
-0.925378 -0.645344 21.4047
-0.502991 -0.587046 21.1398
-0.44448 -0.540545 20.9972
0.822985 0.452079 20.0694
1.02686 0.542946 20.7797
0.623752 0.244243 21.5048
0.00535663 -0.167735 21.5632
-0.225679 -0.342801 21.2993
-0.237986 -0.372407 21.0768
-1.18217 -0.541408 20.0398
-1.88057 -2.26105 18.5207
-1.35184 -1.12559 19.7622
-1.95876 -1.03537 19.285
-0.841678 -0.542996 19.5125
-2.43818 -1.80427 20.7999
-0.973415 -0.613936 21.3082
-0.472711 -0.609148 18.556
-0.861383 -0.941865 21.6708
-1.27347 -1.11078 22.0675
-0.23648 -0.570392 21.7215
-0.183329 -0.309327 21.5134
0.280667 0.13348 17.0359
-0.0231051 -0.232301 21.6065
0.0485554 -0.461187 21.0191
0.143647 -0.154775 21.4491
0.293138 0.0395635 21.6793
0.256017 0.516577 15.8298
0.30931 0.233202 21.6356
0.408003 0.242401 19.2368
0.859092 0.850754 20.4123
0.840551 0.360528 21.3643
-0.0775886 1.36908 14.1831
0.693815 0.785181 21.248
1.24449 0.953076 18.0847
1.20657 1.01671 19.9479
1.00898 0.27007 21.3678
0.876429 1.66448 14.0474
0.951176 1.05992 21.5639
1.77651 1.02299 18.5499
1.12717 0.879928 21.1284
-1.41403 -0.25842 19.8754
-2.97111 -1.19588 16.8748
-2.29758 0.019277 18.9903
-1.02209 -0.285073 19.2642
-4.03066 -0.858333 20.524
-1.36443 -0.4591 21.3094
-2.33458 -0.512052 21.7042
-0.713355 -1.10814 21.4162
-0.452284 -0.43877 21.6437
-1.21026 -0.796174 21.618
0.0469269 -0.175645 19.3315
0.373883 -0.182576 21.8371
0.67211 0.238001 18.3239
1.38675 0.723978 13.6976
1.1512 -0.161942 21.3161
-0.124074 1.17045 1.98302
1.24088 -0.291586 17.6973
1.74878 0.281107 17.8969
1.32477 -0.19757 21.1508
2.18438 0.569622 8.53769
1.51975 -0.595642 20.0885
1.85909 -0.00341369 19.3343
-1.18613 0.381448 19.905
-1.92032 1.58338 18.378
-0.998912 0.834078 19.786
-0.911039 0.357689 19.3755
-2.3274 1.15377 20.1317
-1.40734 0.351691 20.918
-2.90878 1.9451 20.7334
-1.29145 0.980879 20.7469
-2.02514 0.501614 21.4767
-0.838839 0.0499853 21.6356
-2.19351 0.859334 22.7381
-0.775606 0.495755 21.6666
-0.494796 -0.0167158 22.0876
0.0651532 -0.246694 21.7215
0.148041 -0.553534 21.6527
-0.0181564 -0.19576 21.6612
0.358841 -0.630139 21.6496
0.464988 -0.453024 21.3344
0.351391 -0.947757 21.3516
0.213877 -0.398474 21.2359
0.613006 -0.747732 21.0437
0.583838 -0.468845 20.9763
0.615886 -1.07628 19.7522
0.203622 -0.444092 21.0195
0.266969 -0.518598 21.4429
1.88919 -2.16801 18.5881
0.0269961 -3.14121 18.4502
0.032056 -3.85072 15.7997
0.0391702 -1.14172 18.5524
0.0212247 -7.1163 23.6408
0.467415 -0.600932 18.5477
0.011922 -1.61156 22.2529
-0.00540082 0.013734 10.5679
-0.295682 0.13247 17.134
-0.00124298 -0.179057 19.9948
-6.54582e-05 0.0576279 11.9915
-0.253589 0.521804 15.7552
-0.00166413 0.21617 18.3489
-0.0140517 0.332311 9.0552
0.201752 1.30876 13.6661
-0.0190304 0.259628 16.9155
-0.141342 -0.907312 -2.66705
-0.124201 -0.932463 3.88517
-0.818574 1.70335 13.6999
-0.0733256 1.12 14.6201
-0.0967947 -0.62884 -3.46106
-0.00821369 -0.751594 4.88372
2.96885 -1.15168 17.0032
0.0356708 0.777512 13.5864
0.032006 -0.604861 17.8201
0.277737 1.14786 1.50226
-0.00443753 0.226728 0.387483
-0.0147614 -1.51686 -3.96556
-1.98218 0.533695 6.39076
0.178117 -1.30335 2.91206
0.17637 -2.38598 -2.4752
1.9282 1.53905 18.4265
0.0127187 1.95177 19.0224
0.0240835 0.818698 18.2467
0.00748841 5.71438 18.8547
2.9114 1.9748 20.721
-0.0187334 2.67328 20.304
-0.052779 5.79146 19.8646
2.32029 0.927532 22.6628
-0.0510144 1.78217 22.2893
-0.0268307 0.420004 21.0746
-0.18991 -0.582611 21.3098
-0.00404886 -0.216754 21.9112
0.00605774 -0.78843 19.1334
-0.319507 -0.958827 20.9645
0.0238561 -0.617343 21.5159
0.0324887 -1.15812 19.1781
-0.593399 -1.1447 19.7476
0.0327716 -0.801578 20.8317
0.141019 -1.38925 19.11
1.13926 -0.522239 20.0618
1.33659 -1.08681 19.7855
1.92963 -1.00453 19.3265
0.836912 -0.522598 19.5481
2.41572 -1.76107 20.7904
0.976127 -0.611475 21.2911
0.873219 -0.932044 21.6454
1.27866 -1.10495 22.0494
0.253464 -0.575258 21.7214
0.185951 -0.307699 21.5144
0.0310117 -0.235003 21.6013
-0.034178 -0.466076 21.1103
-0.138024 -0.155823 21.4424
-0.282944 0.0343511 21.672
-0.307872 0.235264 21.6325
-0.418243 0.218363 19.5173
-0.855637 0.846636 20.4128
-0.839222 0.365705 21.3648
-0.676797 0.813819 21.2389
-1.2141 1.02082 17.6182
-1.19203 1.12161 19.6825
-1.0634 0.294594 21.1724
-0.948509 1.18424 21.3476
-1.7556 1.22743 18.1447
-1.19903 1.04674 21.1387
1.39942 -0.25624 19.8949
2.26676 0.00975888 19.0425
1.0171 -0.277675 19.3087
4.00449 -0.859279 20.5343
1.36684 -0.460851 21.3088
2.33192 -0.516951 21.6941
0.719085 -1.10744 21.4556
0.449168 -0.436924 21.6427
1.20203 -0.794335 21.6301
-0.0471607 -0.207517 19.5543
-0.365098 -0.179549 21.849
-0.65566 0.208366 18.4651
-1.39315 0.718428 14.0758
-1.16858 -0.16281 21.3078
-1.25633 -0.210467 16.5378
-1.76847 0.459123 16.2182
-1.3966 -0.206543 21.0686
-1.65673 -0.617336 19.0006
-1.95891 0.200601 18.9908
1.17576 0.374229 19.9245
0.99806 0.821094 19.7968
0.907531 0.345558 19.4018
2.3204 1.14514 20.1315
1.42226 0.351068 20.9213
1.29928 1.00459 20.742
2.07861 0.529143 21.4803
0.864129 0.0557934 21.6511
0.804279 0.569473 21.6975
0.50446 -0.0094208 22.1306
-0.0669663 -0.252633 21.741
0.030239 -0.205433 21.7032
-0.357538 -0.682439 21.6486
-0.465881 -0.506952 21.3641
-0.219476 -0.460644 21.2245
-0.629145 -0.833462 21.0994
-0.652533 -0.524115 20.6913
-0.19627 -0.535205 20.9072
-0.287232 -0.608586 21.1711
-1.68562 -1.16273 19.5315
-1.02883 -1.05209 21.8417
0.0523463 -0.325041 21.5614
0.428542 0.220932 21.1377
0.963298 0.970818 19.9633
1.35884 1.0205 20.1099
-2.28792 -0.568202 19.0186
-1.81267 -0.927143 22.2438
-0.194845 -0.845686 20.4758
0.499298 0.60016 17.4617
1.47262 0.512034 15.9455
1.97036 0.117352 18.8985
-1.6746 0.801285 19.3693
-2.15444 0.757936 20.9595
-1.31438 0.252863 22.0139
0.0949303 -0.356753 21.9518
0.478454 -0.709826 21.4267
0.697424 -0.768478 21.1599
0.0394595 -3.79715 17.2772
-0.00282134 -0.578954 11.9756
-0.00285995 0.0405247 10.8905
0.000812469 0.205626 10.5444
-0.122289 -0.285367 6.86885
-0.0851677 0.258091 5.57986
0.0296085 -1.90078 13.994
-0.027669 -0.549526 -2.64427
0.217698 -0.987584 -4.49909
0.0301249 2.87088 16.933
-0.0153585 3.98331 20.0338
-0.064668 3.08576 22.3383
-0.00778345 -0.506415 19.5994
0.0130095 -0.858024 19.2289
0.0617927 -1.19325 18.552
1.67105 -1.12301 19.5625
1.04054 -1.04221 21.8176
-0.0428979 -0.326989 21.547
-0.42657 0.215136 21.1818
-0.933588 1.00731 19.7951
-1.3494 1.20691 19.7413
2.25829 -0.556684 19.0722
1.80179 -0.926209 22.221
0.200577 -0.841739 20.5732
-0.505068 0.552765 17.7364
-1.4325 0.584841 14.9366
-2.12474 0.300388 17.5761
1.66626 0.784381 19.3852
2.17136 0.772441 20.9512
1.37516 0.2707 22.0563
-0.0940083 -0.371785 21.9901
-0.464499 -0.765544 21.4557
-0.672063 -0.891553 21.1753
-3.03183 -1.12473 2.77969
-0.00925186 -0.25226 0.856627
-0.0532219 0.00485425 0.577371
-0.0305411 -4.55004e-05 -0.0323871
-0.0725198 0.0521373 0.23128
-0.0772911 0.100422 0.776586
-3.16364 0.0402861 2.66185
-0.777967 1.64693 1.20784
-0.360702 -0.155107 1.1749
-0.0131257 0.0159878 -0.0155469
0.00444866 0.0177028 -0.0202989
0 0 0
0.00192701 -0.230099 0.829798
2.72228 -0.995043 2.46629
0.0587351 0.0125814 0.73889
0.0722587 0.0522984 0.232112
0.0324375 -4.50251e-06 -0.0343679
0.0544757 0.0740639 0.528814
0.838412 1.74767 1.1973
1.81269 -0.137541 2.31219
0.363606 -0.157554 1.18659
-0.00541502 0.0180542 -0.0206942
0.0138796 0.0176361 -0.0170647
0 0 0
-0.0180985 -0.136476 2.41805
0.0610486 -0.0113299 1.17079
0.000149131 -0.000497158 0.0111247
0.00140893 0.000513666 0.0161598
-0.0266552 0.036359 0.419754
0.0516802 0.00901609 0.963056
-0.0178456 0.0170627 0.0871354
0.000313397 2.24101e-05 0.00630179
-0.0985354 -0.155009 0.358274
-0.000361324 0.000389347 0.0134555
0 0 0
-0.0587533 0.0533009 0.12025
2.76791e-17 3.31669e-17 1.35124e-16
0 0 0
0 0 0
0.031973 0.00197996 0.127701
-0.00464777 0.0107445 2.37022
-0.00143245 0.000505496 0.0158926
-0.0589286 -0.0117434 1.1173
-0.000159236 -0.000555966 0.0115985
0.0262551 0.0348581 0.41042
-0.000277552 2.16262e-05 0.00568037
-0.0475578 0.000908229 0.933449
0.0174866 0.0160255 0.0935313
0.0983092 -0.154743 0.36049
0.064887 0.0484524 0.122993
0.000294853 0.000328467 0.0110432
0 0 0
0 0 0
-0.0320232 0.00194615 0.128114
-1.70658e-18 6.55703e-17 1.76503e-16
0 0 0
0.00147892 -0.00409488 0.0552163
-0.208867 -0.249868 0.164417
0 0 0
0 0 0
-9.65157e-05 6.58618e-05 0.00695331
0.000323469 -3.28503e-05 0.00270114
0.0434333 0.00792839 0.178482
-0.0395563 0.0303454 -0.0176927
0 0 0
-0.00148613 -0.0370587 -0.0334451
0.00231041 0.0248717 0.189875
0 0 0
0.00409003 0.501948 0.309474
1.56817e-05 0.00892992 0.0378643
-3.56869e-05 -0.00025304 0.00260745
0 0 0
0 0 0
-8.18221e-06 0.000500297 -0.00172533
0.0071965 0.00985296 0.0619316
0 0 0
0.133785 -0.163608 0.100891
0 0 0
-0.000307867 -2.99527e-05 0.00245502
0.000508502 -7.61179e-07 0.0289376
0.0405271 0.0317515 -0.0184836
-0.0420859 0.00759603 0.17337
0 0 0
-0.00210295 0.0239936 0.190114
0 0 0
0.000222255 -0.00140641 0.0155217
0 0 0
-0.0073281 0.0100389 0.0632137
-0.00138455 0.00867043 0.0813087
0.00115166 0.000332968 0.0163325
0.00025353 -0.000266429 0.00156935
-0.000292968 0.00590224 0.0530918
0 0 0
-6.01752e-08 1.43027e-06 0.000116112
0.00225186 0.0237278 0.0857808
0 0 0
3.16936e-08 4.86285e-06 0.000413413
0 0 0
0 0 0
-0.0517128 0.0802578 0.969135
0 0 0
-3.71433e-05 0.155179 0.449932
-7.51347e-06 -0.000129746 0.0274077
-8.16285e-06 -0.00155818 0.0111119
-0.00119177 0.000334741 0.0163785
0.0013047 0.00825189 0.0789779
0 0 0
0.000314371 0.00625512 0.0564522
-0.00225237 0.0232859 0.0856587
0 0 0
0.0514853 0.0804497 0.969576
0 0 0
-0.00231773 -0.00241704 0.0396874
-0.00589099 -0.0120955 0.141992
0.0186035 -0.00834204 0.108658
0.00455651 -0.0143171 0.0605657
-0.000584616 0.00294997 0.0518149
0 0 0
-0.000269214 0.0105924 0.0606854
0 0 0
4.5126e-05 0.00456293 0.0895644
0.000798809 0.0054412 0.0195464
0.025048 0.0337118 0.254639
0.00826983 -0.00114879 0.0399053
0 0 0
0 0 0
0.0133087 -0.000111284 0.102802