# vtk DataFile Version 2.0
tet_velo
ASCII
DATASET UNSTRUCTURED_GRID
POINTS 29498 float
-0.855 0.385 -2.32859
-0.855 0.425 2.3844
-0.856481 1.055 -2.155
-0.855 1.305 2.30161
0.855 0.385 -2.32859
0.855 0.425 2.3844
0.856481 1.055 -2.155
0.855 1.305 2.30161
-0.899993 0.35334 -0.757593
-0.899994 0.366673 0.813403
-0.868752 1.1511 -0.669463
-0.86566 1.23183 0.816073
0.899992 0.353341 -0.757593
0.899994 0.366673 0.813403
0.86876 1.15111 -0.669463
0.86566 1.23183 0.816073
-1.73138 -0.0482776 -3.58941
-1.73623 -0.0201585 -2.36684
-1.76814 -0.0418893 -0.793632
-1.77599 -0.0469364 0.796773
-1.75212 -0.00500535 2.37143
-1.74298 0.0426416 3.60109
-1.743 0.0909823 4.81762
-1.72969 0.329064 -3.53334
-1.73197 0.371202 -2.3201
-1.7691 0.363675 -0.763525
-1.77244 0.376127 0.800745
-1.73907 0.427631 2.35896
-1.73358 0.475363 3.58742
-1.7373 0.521583 4.80674
-1.72956 1.04878 -3.39721
-1.72763 1.08823 -2.18044
-1.74637 1.15948 -0.682121
-1.74682 1.22946 0.810142
-1.73061 1.29843 2.3101
-1.72806 1.34319 3.54209
-1.73237 1.38327 4.77519
-1.73726 2.19697 -3.25727
-1.7374 2.25074 -2.0533
-1.74139 2.35089 -0.58269
-1.74234 2.46037 0.869501
-1.73885 2.55037 2.341
-1.73668 2.60429 3.54684
-1.73639 2.64758 4.77061
-0.860617 -0.0400653 -3.59492
-0.85721 -0.00922215 -2.37488
-0.886675 -0.0456631 -0.792553
-0.897777 -0.055023 0.807577
-0.878836 -0.00932494 2.39032
-0.871392 0.0404682 3.61391
-0.871667 0.0899971 4.82504
-0.861713 0.332805 -3.53503
-0.862384 0.474909 3.59799
-0.866793 0.52178 4.81233
-0.86309 1.03646 -3.38664
-0.859029 1.34692 3.54039
-0.862915 1.38595 4.77483
-0.868226 2.18624 -3.24682
-0.867252 2.23938 -2.04179
-0.86986 2.3459 -0.57575
-0.871142 2.46275 0.868668
-0.869019 2.55571 2.33506
-0.867014 2.60929 3.5409
-0.866175 2.6515 4.76629
0.869807 -0.040064 -3.59492
0.877649 -0.00922124 -2.37488
0.897306 -0.0456617 -0.792553
0.887221 -0.0550226 0.807577
0.858409 -0.00932483 2.39032
0.862865 0.0404685 3.61391
0.86722 0.0899978 4.82504
0.86126 0.332806 -3.53503
0.863766 0.474909 3.59799
0.868608 0.52178 4.81233
0.858459 1.03646 -3.38664
0.864655 1.34692 3.54039
0.870319 1.38595 4.77483
0.865832 2.18624 -3.24682
0.868047 2.23938 -2.04179
0.869943 2.3459 -0.57575
0.86895 2.46275 0.868668
0.867853 2.55571 2.33506
0.869657 2.60929 3.5409
0.872319 2.6515 4.76629
1.73839 -0.0482745 -3.58941
1.74679 -0.0201553 -2.36684
1.77358 -0.0418859 -0.793632
1.77067 -0.0469352 0.796773
1.7416 -0.00500491 2.37143
1.73652 0.0426425 3.60109
1.73912 0.0909833 4.81762
1.72879 0.329067 -3.53334
1.73105 0.371206 -2.3201
1.76874 0.36368 -0.763525
1.7729 0.376128 0.800745
1.73998 0.427632 2.35896
1.73512 0.475364 3.58742
1.73908 0.521584 4.80674
1.72401 1.04878 -3.39721
1.72402 1.08824 -2.18044
1.74478 1.15949 -0.682121
1.74832 1.22947 0.810142
1.73421 1.29843 2.3101
1.73427 1.34319 3.54209
1.73962 1.38327 4.77519
1.73385 2.19697 -3.25727
1.73652 2.25075 -2.0533
1.74079 2.3509 -0.58269
1.74111 2.46037 0.8695
1.7392 2.55038 2.341
1.74017 2.60429 3.54684
1.7428 2.64758 4.77061
-0.867177 0.72 -2.25323
0 0.324006 -2.38958
-0.900574 0.346092 -1.54309
-0.864095 0.865 2.3521
0 0.401251 2.40815
-0.90034 0.372993 1.5989
0 1.12464 -2.22464
-0.874472 1.1149 -1.41223
0 1.35191 2.34852
-0.861326 1.26941 1.55884
0.867176 0.72 -2.25323
0.900574 0.346092 -1.54309
0.864089 0.865 2.35209
0.90034 0.372994 1.5989
0.874487 1.11492 -1.41223
0.861326 1.26941 1.55884
-0.899994 0.360006 0.027905
-0.897735 0.752219 -0.713528
-7.42838e-07 0.230562 -0.757593
-0.893673 0.799253 0.814738
0 0.230838 0.813403
-0.869839 1.1941 0.073305
4.31347e-06 1.58417 -0.669463
0 1.88158 0.816073
0.899994 0.360006 0.027905
0.897734 0.752224 -0.713528
0.893673 0.799253 0.814738
0.869838 1.1941 0.073305
-0.89718 0.736109 -1.47766
-0.895709 0.775736 0.050605
-0.896241 0.832126 1.57887
-3.71419e-07 0.230883 -1.54309
-3.71419e-07 0.230742 0.027905
0 0.268838 1.5989
0 0.72 -2.56541
0 0.865 2.48073
2.15673e-06 1.27069 -1.41223
2.15673e-06 1.84671 0.073305
2.77556e-17 1.81317 1.55884
0.89718 0.736112 -1.47766
0.895709 0.775738 0.050605
0.896241 0.832126 1.57887
-1.29348 0.378101 -2.32435
-0.856105 0.187889 -2.35174
-0.858356 0.358902 -2.93181
-1.29704 0.426316 2.37168
-0.866918 0.207838 2.38736
-0.858692 0.449955 2.99119
-1.29206 1.07162 -2.16772
-0.859786 1.04573 -2.77082
-0.861867 1.64719 -2.09839
-1.29281 1.30172 2.30585
-0.857015 1.32596 2.921
-0.862009 1.93035 2.31833
0.866325 0.187889 -2.35174
0.85813 0.358903 -2.93181
1.29302 0.378103 -2.32435
0.856705 0.207838 2.38736
0.859383 0.449955 2.99119
1.29749 0.426316 2.37168
0.85747 1.04573 -2.77082
0.862264 1.64719 -2.09839
1.29025 1.07162 -2.16772
0.859827 1.32596 2.921
0.861427 1.93036 2.31833
1.29461 1.30172 2.30585
-1.33455 0.358508 -0.760559
-0.893334 0.153838 -0.775073
-1.33622 0.3714 0.807074
-0.898885 0.155825 0.81049
-1.30756 1.15529 -0.675792
-0.869306 1.7485 -0.622607
-1.30624 1.23065 0.813108
-0.868401 1.84729 0.842371
0.898649 0.15384 -0.775073
1.33437 0.358511 -0.760559
0.893608 0.155825 0.81049
1.33645 0.371401 0.807074
0.869352 1.74851 -0.622607
1.30677 1.1553 -0.675792
0.867305 1.84729 0.842371
1.30699 1.23065 0.813108
-1.7338 -0.0342181 -2.97812
-1.73053 0.140393 -3.56137
-1.296 -0.0441715 -3.59217
-1.75218 -0.0310239 -1.58024
-1.7341 0.175522 -2.34347
-1.29672 -0.0146903 -2.37086
-1.77207 -0.0444128 0.00157042
-1.76862 0.160893 -0.778578
-1.32741 -0.0437762 -0.793093
-1.76405 -0.0259709 1.5841
-1.77421 0.164595 0.798759
-1.33688 -0.0509797 0.802175
-1.74755 0.0188181 2.98626
-1.7456 0.211313 2.36519
-1.31548 -0.00716514 2.38087
-1.74299 0.0668119 4.20936
-1.73828 0.259002 3.59426
-1.30719 0.0415549 3.6075
-1.74015 0.306282 4.81218
-1.30733 0.0904897 4.82133
-1.73083 0.350133 -2.92672
-1.72963 0.688921 -3.46527
-1.2957 0.330934 -3.53419
-1.75054 0.367439 -1.54181
-1.7298 0.729718 -2.25027
-1.77077 0.369901 0.0186104
-1.75774 0.761579 -0.722823
-1.75576 0.401879 1.57985
-1.75963 0.802796 0.805444
-1.73633 0.451497 2.97319
-1.73484 0.863032 2.33453
-1.73544 0.498473 4.19708
-1.73082 0.909278 3.56475
-1.29798 0.475136 3.5927
-1.73483 0.952426 4.79096
-1.30205 0.521681 4.80953
-1.7286 1.06851 -2.78882
-1.73341 1.62287 -3.32724
-1.29633 1.04262 -3.39192
-1.737 1.12386 -1.43128
-1.73252 1.66949 -2.11687
-1.74659 1.19447 0.0640104
-1.74388 1.75519 -0.632406
-1.73872 1.26395 1.56012
-1.74458 1.84492 0.839821
-1.72933 1.32081 2.92609
-1.73473 1.9244 2.32555
-1.73021 1.36323 4.15864
-1.73237 1.97374 3.54446
-1.29354 1.34506 3.54124
-1.73438 2.01543 4.7729
-1.29764 1.38461 4.77501
-1.73733 2.22386 -2.65528
-1.30274 2.1916 -3.25204
-1.7394 2.30082 -1.31799
-1.30233 2.24506 -2.04754
-1.74187 2.40563 0.143405
-1.30563 2.3484 -0.57922
-1.74059 2.50537 1.60525
-1.30674 2.46156 0.869084
-1.73777 2.57733 2.94392
-1.30394 2.55304 2.33803
-1.73654 2.62594 4.15872
-1.30185 2.60679 3.54387
-1.30128 2.64954 4.76845
-0.858913 -0.0246437 -2.9849
-0.861165 0.14637 -3.56498
0.00459492 -0.0400646 -3.59492
-0.871942 -0.0274426 -1.58372
0.0102196 -0.0092217 -2.37488
-0.892226 -0.050343 0.00751175
0.00531561 -0.0456624 -0.792553
-0.888307 -0.0321739 1.59895
-0.00527785 -0.0550228 0.807577
-0.875114 0.0155716 3.00211
-0.0102137 -0.00932488 2.39032
-0.871529 0.0652327 4.21947
-0.866888 0.257689 3.60595
-0.00426331 0.0404683 3.61391
-0.86923 0.305888 4.81869
-0.00222342 0.0899975 4.82504
-0.862401 0.684631 -3.46084
-0.000226544 0.332805 -3.53503
-0.864589 0.498344 4.20516
-0.860707 0.910915 3.56919
0.000690698 0.474909 3.59799
-0.864854 0.953864 4.79358
0.000907576 0.52178 4.81233
-0.865658 1.61135 -3.31673
-0.00231548 1.03646 -3.38664
-0.860972 1.36643 4.15761
-0.863022 1.97811 3.54065
0.00281279 1.34692 3.54039
-0.864545 2.01872 4.77056
0.00370235 1.38595 4.77483
-0.867739 2.21281 -2.6443
-0.00119705 2.18624 -3.24682
-0.868556 2.29264 -1.30877
0.000397503 2.23938 -2.04179
-0.870501 2.40433 0.146459
4.14033e-05 2.3459 -0.57575
-0.87008 2.50923 1.60186
-0.00109612 2.46275 0.868668
-0.868017 2.5825 2.93798
-0.000582674 2.55571 2.33506
-0.866595 2.6304 4.15359
0.00132107 2.60929 3.5409
0.00307213 2.6515 4.76629
0.873728 -0.0246426 -2.9849
0.865533 0.146371 -3.56498
1.3041 -0.0441692 -3.59216
0.887478 -0.0274415 -1.58372
1.31222 -0.0146883 -2.37086
0.892264 -0.0503422 0.00751174
1.33544 -0.0437738 -0.793093
0.872815 -0.0321737 1.59895
1.32895 -0.0509789 0.802175
0.860637 0.0155718 3.00211
1.30001 -0.00716487 2.38087
0.865043 0.0652331 4.21947
0.863316 0.257689 3.60595
1.29969 0.0415555 3.6075
0.867914 0.305889 4.81869
1.30317 0.0904906 4.82133
0.859859 0.684632 -3.46084
1.29502 0.330936 -3.53419
0.866187 0.498345 4.20516
0.86421 0.910916 3.56919
1.29944 0.475137 3.5927
0.869464 0.953864 4.79358
1.30384 0.521682 4.80954
0.862145 1.61135 -3.31673
1.29124 1.04262 -3.39192
0.867487 1.36644 4.15761
0.867156 1.97811 3.54065
1.29946 1.34506 3.54124
0.871319 2.01872 4.77056
1.30497 1.38461 4.77501
0.866939 2.21281 -2.6443
1.29984 2.19161 -3.25204
0.868995 2.29264 -1.30877
1.30228 2.24507 -2.04754
0.869446 2.40433 0.146459
1.30536 2.3484 -0.57922
0.868402 2.50923 1.60186
1.30503 2.46156 0.869084
0.868755 2.5825 2.93798
1.30353 2.55304 2.33803
0.870988 2.6304 4.15359
1.30492 2.60679 3.54387
1.30756 2.64954 4.76845
1.74259 -0.0342149 -2.97812
1.73359 0.140396 -3.56137
1.76019 -0.0310206 -1.58024
1.73892 0.175525 -2.34347
1.77213 -0.0444105 0.00157037
1.77116 0.160897 -0.778579
1.75614 -0.0259701 1.5841
1.77179 0.164597 0.798759
1.73906 0.0188188 2.98626
1.74079 0.211313 2.36519
1.73782 0.0668129 4.20936
1.73582 0.259003 3.59426
1.7391 0.306283 4.81218
1.72992 0.350136 -2.92672
1.7264 0.688925 -3.46527
1.74989 0.367443 -1.54181
1.72753 0.729723 -2.25027
1.77082 0.369904 0.0186103
1.75676 0.761586 -0.722823
1.75644 0.40188 1.57985
1.76061 0.802797 0.805444
1.73755 0.451498 2.97319
1.7371 0.863032 2.33453
1.7371 0.498474 4.19708
1.73469 0.909278 3.56476
1.73935 0.952427 4.79096
1.72402 1.06851 -2.78882
1.72893 1.62288 -3.32724
1.7344 1.12387 -1.43128
1.73027 1.66949 -2.11687
1.74655 1.19448 0.0640103
1.74278 1.7552 -0.632406
1.74127 1.26395 1.56012
1.74472 1.84492 0.839821
[...]
POINT_DATA 29498
VECTORS point_vectors float
-4.77137 -4.78833 10.0087
0.145167 0.0378861 0.412679
-2.83779 1.60421 5.36666
-0.0192543 -0.201048 0.665505
4.76622 -4.79137 10.0097
-0.144211 0.0903754 0.479836
2.8396 1.60055 5.36751
-0.0762312 -0.27646 0.934212
0.0248325 -0.0495774 0.688848
-0.00942865 0.00875204 0.385993
0.00131873 0.0220934 0.116825
0.00383601 0.0259247 0.0972783
-0.0239897 -0.0460023 0.689512
0.0109528 0.0148432 0.391482
-0.0013507 0.0225458 0.117716
-0.00391621 0.026468 0.10018
-0.626755 -0.324961 19.9695
-1.25428 -0.700608 20.7121
-0.450101 -0.478978 21.7154
0.0784661 -0.253144 22.0333
0.632851 -0.0608198 21.9981
0.907344 0.141011 21.5861
1.10744 0.0904614 21.1166
-0.750543 -0.218815 19.851
-1.66926 -0.589063 20.7092
-0.594656 -0.536748 21.7653
0.0447373 -0.375617 22.0505
0.661802 -0.291649 22.0577
1.22656 -0.335047 22.073
1.34063 -0.178987 22.2125
-0.905111 0.068665 19.8146
-1.85123 0.0720926 20.7808
-1.12325 -0.458663 21.7578
-0.258856 -0.480182 22.1203
0.256805 -0.540131 22.0664
0.716934 -0.65183 22.0141
0.896779 -0.499915 22.4242
-0.585766 0.327679 20.1099
-0.943084 0.505727 20.6565
-0.956444 0.331077 21.5053
-0.455545 -0.00932323 21.9936
-0.0220527 -0.239434 21.8699
0.128021 -0.347747 21.4699
0.169653 -0.287099 21.2009
-0.649124 -0.688296 19.3419
-2.33606 -3.4115 20.7804
-0.378715 -0.604709 21.836
0.328311 0.0201254 21.083
1.28441 0.917506 20.6847
1.65664 1.29485 20.5869
1.9673 1.23274 19.5729
-0.926775 -0.573147 18.895
1.90073 0.0244873 11.9284
2.28693 1.01823 14.8073
-1.2183 0.402074 18.5087
-0.692956 -0.092188 3.96344
0.643456 -0.701292 7.50836
-0.576864 0.748431 19.7103
-1.09927 1.40149 20.3693
-1.59157 1.6506 21.5098
-0.618605 0.36053 22.4796
-0.0532026 -0.134581 22.0085
0.1794 -0.424728 21.7748
0.230986 -0.557494 21.7015
0.666059 -0.681923 19.3591
2.37543 -3.28862 20.7681
0.422274 -0.588059 21.8616
-0.237602 0.0644913 21.04
-1.11348 1.20813 20.7333
-1.48674 1.64194 20.875
-1.75361 1.65842 19.4242
0.938293 -0.571994 18.8824
-2.22169 1.18586 13.4132
-2.41533 0.546747 16.8447
1.22882 0.405325 18.5031
-0.863696 -0.883021 9.21463
-1.31796 -1.12405 13.9219
0.588244 0.750037 19.7116
1.11868 1.39955 20.3779
1.62814 1.64229 21.5296
0.685591 0.321678 22.5364
0.156463 -0.318485 22.0476
-0.0406069 -0.624409 22.0716
-0.0790138 -0.664668 21.9416
0.628194 -0.328798 19.9755
1.24187 -0.702477 20.7202
0.455779 -0.472038 21.7407
-0.0784974 -0.218989 22.1078
-0.685243 0.0565022 22.0539
-1.03643 0.314125 21.6089
-1.1735 0.15431 20.9283
0.763726 -0.228808 19.872
1.67983 -0.59481 20.7348
0.610187 -0.537909 21.8017
-0.0497642 -0.344677 22.1318
-0.774052 -0.176325 22.1371
-1.27432 -0.0163408 21.5242
-1.21519 -0.103419 21.1404
0.914548 0.0688755 19.8145
1.87088 0.0720192 20.8007
1.1329 -0.464431 21.7952
0.251175 -0.481588 22.199
-0.428808 -0.567005 22.1683
-0.853423 -0.643888 21.6976
-0.73537 -0.717752 21.5385
0.596486 0.330649 20.1161
0.960333 0.504826 20.669
0.975338 0.32439 21.5342
0.466868 -0.0393595 22.0367
-0.00155331 -0.346905 21.9239
-0.207947 -0.472587 21.5387
-0.267723 -0.290365 21.1928
-0.872018 -0.216871 2.39959
0 0 0
0.0679184 -0.0745481 2.17711
0.0033675 -0.174892 0.168201
0.00497085 0.00484943 0.0113143
0.138543 -0.0746059 1.02432
0.000100972 0.0432391 0.118201
-0.164539 -0.191429 0.672516
0 0 0
0.00814817 0.0366067 0.209731
0.870126 -0.216703 2.39707
-0.0612579 -0.0661851 2.17371
-0.0384175 -0.0841427 0.219283
-0.114358 -0.0485499 1.05178
0.165165 -0.192357 0.673359
-0.00859252 0.0383927 0.224884
0.000412131 0.00485101 0.365917
-1.11509e-05 -0.000358929 0.0209235
1.20097e-07 -2.51655e-08 3.19282e-05
0 0 0
7.90113e-07 1.27624e-07 7.88171e-05
0.00419607 0.0268757 0.0720712
0.000181609 0.0372901 0.0672696
0 0 0
0.000400651 0.00817119 0.368128
8.29176e-06 -0.000287276 0.0210371
0 0 0
-0.00422726 0.0270372 0.0725333
-8.01926e-07 -7.16956e-05 0.000548841
9.03123e-06 8.98995e-05 0.000766485
4.53888e-06 4.41983e-05 0.00121972
-8.74416e-08 4.70443e-07 -4.0016e-05
-8.77594e-07 5.6063e-08 -0.000151093
-6.98704e-07 -1.43974e-06 -2.02141e-05
0 0 0
0 0 0
1.12723e-05 0.00018149 0.00117141
0.000136477 0.00646203 0.0417954
3.0494e-06 -3.82018e-06 2.75376e-05
8.2272e-07 -7.15628e-05 0.000556077
-9.39182e-06 9.49373e-05 0.000779301
-5.40305e-06 7.58767e-05 0.00128604
-3.20076 -1.40133 20.822
-4.09509 -5.14816 20.8262
-2.60586 -1.73449 17.8136
1.13066 -0.367576 21.4426
1.87896 0.761983 14.8607
1.31914 -0.346934 8.01842
-3.44713 0.494365 20.9426
-3.56802 1.69216 17.2601
-2.37518 2.36409 20.3297
0.261668 -0.815822 21.468
-0.165155 -0.479398 2.48324
0.237359 0.0383267 17.6195
4.09035 -4.98761 20.8373
2.6212 -1.73547 17.8082
3.21759 -1.39929 20.8363
-1.65836 1.16687 15.1009
-1.60006 0.565709 9.52274
-1.29836 -0.13225 21.6741
3.5841 1.70121 17.2518
2.39558 2.36268 20.3379
3.46828 0.49586 20.9587
-0.0646951 -0.668735 6.33416
-0.273036 -0.458856 18.348
-0.566621 -0.867802 21.7907
-0.518408 -0.87254 22.1442
0.256437 -0.419085 14.6663
0.246669 -0.491494 21.8622
0.603197 -0.268522 13.0387
-1.71725 -1.17734 22.1569
-4.84379 2.00424 21.5621
-0.344717 -0.911534 21.9928
-0.593314 0.314081 17.1726
-0.182733 -0.399974 14.9534
0.530558 -0.859438 22.1696
-0.501477 -0.187796 12.8009
-0.241356 -0.440934 21.9288
4.88447 1.98857 21.591
1.73101 -1.187 22.1892
0.644437 0.24271 17.2298
0.332739 -0.919183 22.0885
-0.994396 -0.537933 20.1701
-0.690254 -0.277325 19.9097
-0.71948 -0.485195 19.6837
-0.882637 -0.630618 21.4699
-1.44237 -0.698952 20.702
-1.88009 -1.49107 20.753
-0.161648 -0.353046 21.8917
-0.506374 -0.502435 21.7447
-0.403179 -0.580793 21.9239
0.351439 -0.144055 22.0144
0.0757276 -0.301392 22.0263
0.236187 -0.178287 22.1516
0.789473 0.0203242 21.8503
0.673798 -0.146834 22.0141
1.00354 0.177704 22.0988
1.07318 0.195926 21.2581
1.10276 -0.170942 21.6697
1.50382 0.41773 21.6455
1.35527 -0.115513 22.132
1.67652 0.3879 21.6243
-1.28449 -0.413267 20.0518
-0.848357 -0.121922 19.8207
-0.962599 -0.395601 19.4375
-1.12918 -0.610556 21.5094
-1.90555 -0.298015 20.7967
-0.245107 -0.46109 21.9452
-0.816958 -0.602531 21.7974
0.346268 -0.327987 22.0878
-0.0688805 -0.51705 22.0995
0.902088 -0.279685 21.9812
0.49603 -0.49397 22.0592
1.08517 0.0213302 21.9872
0.896927 -0.529314 21.8385
1.75531 -0.0715206 21.0355
1.16325 -0.330762 22.3061
1.7528 -0.128634 20.6495
-1.51902 0.140187 20.0414
-0.786022 0.279361 19.9334
-1.16866 0.194177 19.2885
-1.51734 -0.243672 21.4288
-1.41911 0.442677 20.6449
-0.673616 -0.512641 22.0315
-1.32189 -0.0221627 21.6175
0.0418725 -0.484272 22.0882
-0.524283 -0.277119 22.0928
0.391729 -0.555505 21.874
0.0267404 -0.405566 22.0033
0.66566 -0.558821 21.4563
0.381615 -0.497183 21.9836
0.697631 -0.680493 21.3024
0.71409 -0.514976 21.6241
1.05915 -0.724964 18.7623
-0.792167 0.482383 20.3313
-0.64102 0.560888 19.8837
-1.02207 0.460045 21.0437
-1.10726 0.866302 20.5269
-0.730718 0.177558 21.8111
-1.33631 0.736188 21.5457
-0.198263 -0.153235 21.9853
-0.552586 0.0851066 22.1972
0.0840723 -0.262783 21.7642
0.00680116 -0.211613 21.9766
0.312279 -0.448819 21.6535
0.153724 -0.400594 21.5788
0.181772 -0.472581 21.1488
-1.47152 -1.72901 19.1121
-0.787702 -0.662932 19.0907
0.00236848 -0.977684 18.8586
-1.12848 -1.30761 22.4732
0.0294933 -5.45574 21.1878
0.0196675 -0.242354 21.1228
0.019864 -0.56242 18.8937
0.849856 0.501538 20.6136
0.0498901 0.0110576 17.3253
1.52026 1.03768 20.4314
0.200191 1.2255 17.2555
1.915 1.26695 19.9245
2.31377 0.930495 17.1594
0.154358 2.06428 18.101
2.44164 1.34404 16.4836
0.0363612 2.32077 18.0001
-1.15474 -0.166681 18.5428
0.00451678 -0.817239 18.1154
2.56371 0.824623 14.3123
0.171143 -1.39679 6.33695
0.538333 1.17351 4.51884
1.8291 -0.214472 11.8952
-0.0150338 2.66152 9.94696
-0.897346 0.850935 19.1381
-0.000307094 0.724283 17.3521
1.62044 -1.39142 10.822
0.458386 -0.477673 18.3341
-1.20966 1.58056 -4.21111
0.712346 -0.820822 19.4494
-0.704864 0.0087628 0.808933
-0.875929 1.17374 19.9425
0.0059434 1.04502 19.4357
-1.3151 1.51131 20.7648
0.0116126 2.15623 20.1744
-1.22251 1.03003 22.3537
0.0227297 3.15888 21.3519
-0.245001 -0.0421017 22.2425
0.050905 0.778004 22.8719
0.0166674 -0.279659 21.8674
0.143538 -0.0965685 22.0085
0.173605 -0.497868 21.4652
0.143621 -0.371499 21.8656
0.144063 -0.685299 22.0561
1.48898 -1.70087 19.144
0.802845 -0.662018 19.0792
0.724504 -0.49219 19.6936
1.15021 -1.27444 22.4436
1.87081 -1.45956 20.7573
0.0428609 -0.219609 21.138
0.427202 -0.570738 21.9347
-0.707171 0.607159 20.5029
-0.208356 -0.13185 22.2108
-1.38526 1.49688 20.5378
-1.04113 0.391531 22.2032
-1.61024 1.83578 19.9582
-2.21195 1.71 18.0545
-1.54135 0.75567 21.5625
-2.20577 1.52541 17.507
-1.24821 0.737299 20.9493
1.16263 -0.163611 18.546
0.971302 -0.394316 19.4475
-2.72474 1.27743 16.0469
-1.33382 -0.244265 9.37653
-2.01676 0.207964 21.1252
-2.06569 0.0718193 14.1586
-1.58275 0.365777 20.6926
0.906036 0.852358 19.1389
1.17621 0.196538 19.2884
-1.69662 -1.30839 12.7382
-0.372601 -1.19238 19.5971
-1.27483 -0.963921 21.7928
-0.495587 -1.35382 19.3744
-1.17159 -0.625056 20.2216
0.890887 1.17412 19.9475
0.650886 0.562791 19.8883
1.34178 1.50772 20.7779
1.12448 0.864348 20.5379
1.27279 1.01047 22.39
1.36458 0.72768 21.5694
0.331254 -0.134781 22.3286
0.59042 0.0471283 22.258
0.0841893 -0.511939 21.9584
0.00560772 -0.35591 22.0202
-0.176325 -0.887487 21.2921
-0.171 -0.586752 21.6807
-0.264937 -0.54927 21.2312
0.994912 -0.535825 20.1968
0.697224 -0.287206 19.9237
0.894705 -0.630583 21.4853
1.43917 -0.699295 20.73
0.172791 -0.334765 21.9346
0.519997 -0.501395 21.7774
-0.358201 -0.0762475 22.078
-0.0765195 -0.266782 22.1063
-0.875527 0.196058 21.8334
-0.756535 -0.023653 22.099
-1.02051 0.2333 21.3974
-1.18081 0.107831 21.4655
-1.23641 -0.015237 21.1655
1.30197 -0.425665 20.073
0.853599 -0.11423 19.8182
1.13745 -0.607878 21.5341
1.92084 -0.291422 20.8118
0.25664 -0.444968 21.984
0.825615 -0.601325 21.8291
-0.378516 -0.270519 22.1839
0.0605697 -0.504874 22.1604
-1.07205 -0.0931981 21.8977
-0.655037 -0.42599 22.1465
-1.26678 -0.0388025 21.3491
-1.21478 -0.357933 21.542
-1.1824 -0.440202 21.0765
1.53809 0.146369 20.0465
0.79147 0.280412 19.9347
1.5325 -0.246305 21.4545
1.43345 0.44257 20.6609
0.677596 -0.515139 22.0776
1.33812 -0.0297665 21.6555
-0.0945763 -0.492956 22.2096
0.521442 -0.303305 22.1505
-0.673425 -0.592388 22.0131
-0.121205 -0.500908 22.035
-1.04218 -0.557566 21.1678
-0.410438 -0.658521 21.7106
-0.660093 -0.504182 21.1623
0.805878 0.483683 20.3388
1.04137 0.458851 21.0617
0.747544 0.168761 21.8387
0.191295 -0.214529 22.0575
-0.0968715 -0.390921 21.7478
-0.293922 -0.495063 21.5259
-1.13583 -0.489569 20.1393
-1.96792 -1.86324 18.5333
-1.3262 -0.980515 19.8049
-1.97305 -0.859622 19.3764
-0.846955 -0.458193 19.5479
-2.48612 -1.55891 20.7912
-1.00164 -0.620336 21.4541
-0.638644 -0.639931 18.0582
-1.00219 -0.94318 21.8033
-1.2815 -1.05501 22.0609
-0.422692 -0.702912 22.0207
-0.18688 -0.39381 21.903
0.378553 -0.214487 13.1158
-0.055845 -0.354586 22.0363
-0.0750568 -0.659905 22.0315
0.28861 -0.335903 22.1317
0.381902 -0.222592 22.0386
1.39681 0.157928 13.913
0.635548 -0.0100595 22.1599
0.636149 -0.445453 21.6096
1.16049 -0.0750405 21.9479
0.825652 -0.0976579 21.7836
1.99542 0.71233 15.8283
1.20453 0.297792 21.902
1.3519 -0.297904 21.1338
1.61799 0.197142 21.8905
1.14697 0.0683549 21.9055
2.36207 1.15948 16.6297
1.56878 0.486819 21.5956
1.86632 -0.00176045 19.9714
1.90753 0.197203 22.3246
-1.48189 -0.208763 20.0108
-3.74611 -0.214958 16.6843
-2.49207 0.50338 19.3145
-1.14275 -0.112615 19.2849
-3.82116 -0.440192 20.9805
-1.36668 -0.503403 21.5
-2.19103 -0.588935 21.7513
-0.955393 -1.01713 22.1376
-0.419674 -0.589643 21.9887
-0.881655 -1.08839 22.1866
0.0420843 -0.677668 21.4898
0.206818 -0.479061 22.1005
0.0187873 -0.788947 21.7239
0.733876 -0.713479 21.0502
0.665156 -0.519537 22.0033
0.194352 -1.59085 3.09509
0.364774 -0.841228 21.4184
1.26966 -0.802187 21.0384
1.07353 -0.297993 21.1264
2.36328 -0.354871 11.8892
1.41004 -1.05462 19.7483
1.46984 -0.642582 19.1322
-1.20334 0.437486 20.1825
-1.72066 1.85161 19.214
-0.891982 0.761426 20.1703
-0.932489 0.50183 19.5632
-1.99819 1.05929 20.5377
-1.43803 0.240569 21.1519
-2.83564 1.74991 20.6324
-1.26224 0.829111 20.9699
-2.28766 0.271966 21.772
-0.956734 -0.177477 21.9676
-2.60422 -0.0191734 20.5142
-1.00884 0.40232 22.0368
-0.82611 -0.300049 22.391
-0.192085 -0.339974 22.0476
0.293741 0.293917 16.6773
-0.189853 -0.130053 22.1122
-0.0876752 -0.457051 22.0813
0.155245 -0.427595 21.9447
0.235479 -0.104148 18.55
0.0332091 -0.267294 21.8694
0.302807 -0.660893 22.3795
0.380921 -0.668278 21.1184
0.764579 -0.867992 18.4401
0.258609 -0.47183 21.6287
0.704174 -0.674997 22.2057
1.98103 -1.83419 18.5498
0.016198 -2.96507 18.1975
0.00614458 -3.39736 14.9614
0.00495614 -0.950414 18.5152
0.0274826 -7.3144 21.28
0.699138 -0.624762 18.3838
0.0225875 -1.74076 21.9095
0.0164565 -0.0550903 7.76097
-0.304853 -0.166675 13.1142
0.0286195 -0.246308 17.3779
0.057684 0.0223474 7.79384
-1.23191 0.312224 13.7884
0.0985028 0.548633 16.6999
0.369774 0.920602 7.41464
-1.93098 1.42762 16.4984
0.292913 1.52529 17.4077
1.05504 0.17986 2.48461
0.496842 1.85389 10.5081
-2.17123 1.745 17.7019
0.162892 2.73017 17.9982
0.00163054 2.73208 6.71523
0.188298 2.30578 14.0931
3.76066 -0.211949 16.6815
-0.00267287 4.20114 13.6241
0.00348169 -0.219206 17.438
-0.364093 -0.662111 5.21888
-0.428733 0.292598 -1.82839
-1.13611 1.28591 -1.2255
-2.44954 0.0680608 11.7425
-1.40529 1.82523 -4.31203
-0.970862 3.24937 0.448123
1.73488 1.85873 19.2201
0.00805454 1.73747 19.68
0.00272795 1.3014 18.5475
0.0110042 4.18134 19.965
2.8635 1.74512 20.6468
0.0163369 2.45801 20.471
0.0237516 6.53857 19.5287
2.64854 -0.0586385 20.536
0.0324222 2.12741 22.7413
0.0737396 0.410606 12.7657
-0.225813 0.128973 16.928
0.0894 0.0818553 22.5631
0.944627 0.0925751 6.70736
-0.254226 -0.774476 19.5544
0.196566 -0.243644 22.0527
1.28867 -0.269629 11.5029
-0.4267 -1.51485 20.0453
0.0316152 -0.71041 22.7521
0.428878 -1.17255 14.4031
1.14993 -0.49895 20.1584
1.32488 -0.970518 19.8287
1.98928 -0.857342 19.3841
0.852521 -0.459735 19.5574
2.48107 -1.53698 20.8039
1.00821 -0.619386 21.4789
1.0177 -0.930701 21.7993
1.29488 -1.04802 22.0801
0.44418 -0.686287 22.0379
0.200345 -0.375512 21.9438
0.0883435 -0.331569 22.0645
0.0858167 -0.63242 22.0697
-0.269655 -0.281286 22.1866
-0.399704 -0.159135 22.1258
-0.61748 0.0885243 22.2373
-0.659838 -0.337734 21.7455
-1.25398 0.164866 22.0904
-0.959459 0.0400841 21.8826
-1.28875 0.573835 21.9689
-1.68892 -0.00755451 21.4146
-1.8104 0.488473 21.8511
-1.1877 0.117214 21.3421
-1.55954 0.830512 21.3083
-2.023 0.284641 20.6475
-1.3915 0.696035 20.7934
1.49944 -0.191728 20.0132
2.51352 0.511031 19.3131
1.15205 -0.112571 19.2883
3.83997 -0.439363 20.9997
1.37915 -0.503098 21.5184
2.20725 -0.595288 21.7733
0.963206 -1.0151 22.1688
0.421241 -0.573999 22.0273
0.886052 -1.0968 22.2374
-0.052482 -0.653356 21.5759
-0.262602 -0.441468 22.2122
-0.0905615 -0.804573 21.9187
-1.01973 -0.590354 21.3943
-0.939598 -0.414865 21.9421
-0.898352 -0.961154 21.7749
-1.82874 -0.58193 20.9557
-1.39508 -0.391669 21.5374
-1.44404 -0.956493 21.645
-1.69584 -0.230996 20.1739
1.21513 0.441554 20.1946
0.906134 0.761177 20.1772
0.944069 0.50315 19.5699
2.01388 1.05795 20.5527
1.45539 0.238357 21.1745
1.28469 0.82559 20.9857
2.31257 0.260338 21.8054
0.967455 -0.188639 22.0156
1.04107 0.385019 22.0757
0.844548 -0.341288 22.4737
0.16124 -0.389452 22.1429
0.218958 -0.208024 22.1869
-0.0625468 -0.664797 22.245
-0.29715 -0.54162 21.9998
-0.0345102 -0.459551 21.924
-0.413183 -0.993246 22.269
-0.621922 -0.646371 21.3574
-0.340192 -0.698634 21.2806
-0.563719 -0.853241 21.5778
-1.66819 -0.961761 19.613
-1.11748 -0.993435 21.9206
-0.0243799 -0.494726 22.0906
0.716774 -0.226009 22.051
1.40508 0.027104 21.763
1.65314 0.357895 22.2522
-2.474 -0.203029 19.1811
-1.77757 -0.857203 22.1064
-0.338639 -0.851741 21.8214
0.350656 -0.621556 21.2293
0.918919 -0.718391 20.3402
1.93138 -0.836658 19.1494
-1.56549 0.917241 19.8087
-2.12784 0.633303 21.0802
-1.57877 -0.135178 22.3425
-0.318166 -0.39209 22.2611
0.0587294 -0.519527 21.8955
0.585608 -0.867778 21.5919
0.017377 -3.47005 16.891
0.0100343 -0.33309 8.35617
0.0310429 -0.0277593 7.47405
0.120898 0.380999 7.09363
0.660884 1.14486 8.93683
0.127615 2.72099 12.6535
0.00208201 -0.0861563 12.1797
-0.272114 -0.406893 0.37692
-1.60461 3.23451 -1.45256
0.0118943 3.16384 18.4009
0.0163355 3.85736 19.7486
0.0353592 2.53866 15.9116
0.205543 -0.239103 10.7379
1.27139 -0.222999 9.02574
0.471413 -1.30783 13.4554
1.6749 -0.956894 19.6298
1.13539 -0.982918 21.9285
0.048337 -0.466753 22.1208
-0.714114 -0.11946 22.147
-1.58903 0.339386 21.8387
-1.96676 0.6397 21.0062
2.48896 -0.201432 19.1839
1.78791 -0.857423 22.132
0.340354 -0.840294 21.8698
-0.412695 -0.564849 21.4124
-1.40365 -0.561528 20.8438
-2.01761 -0.375355 19.777
1.58042 0.919369 19.8208
2.14922 0.628045 21.1
1.60235 -0.156235 22.3933
0.294505 -0.482073 22.4023
-0.276713 -0.822216 22.0228
-0.63795 -1.12025 21.7589
-3.19789 -0.40671 4.2355
0.0194214 -0.112496 0.295645
-0.0116122 -0.0986958 2.82204
0.0997501 -0.0950473 0.44106
0.00810274 0.00479426 0.0163813
0.111882 -0.073005 0.961429
-1.01387 0.0188791 1.6486
-0.032792 0.157337 0.413546
-0.21663 -0.25515 1.13442
0.0130254 -0.0205384 0.101652
0 0 0
0.00304416 0.013338 0.139566
-0.0188727 -0.113243 0.297312
3.20961 -0.407662 4.25145
0.0169467 -0.0915767 2.81836
0.00284671 0.00938265 0.0240394
-0.115669 -0.0451235 0.504879
-0.0855007 -0.0381379 1.00904
0.0336689 0.157124 0.413316
1.01731 0.0185705 1.6538
0.218246 -0.258239 1.14238
0 0 0
-0.0230323 -0.00967813 0.132907
-0.00377803 0.0161491 0.157393
-0.00838382 -0.0215561 1.84423
0.0025613 -0.00159171 0.521138
-6.0231e-07 -4.32374e-06 0.000576608
0 0 0
0.170248 -0.163837 0.891917
0.000643486 0.00424035 0.391323
1.75429e-06 2.85047e-05 0.000775698
0 0 0
-0.0854644 -0.149233 0.372774
5.51282e-06 2.673e-05 0.000860833
0.00125458 0.0295053 0.0883054
-0.118951 0.130051 0.274502
0.00336823 0.0131307 0.0579424
1.02481e-05 0.00346367 0.0216182
0.0021091 0.0127284 0.0392835
0.0843755 0.0294777 0.567257
0.015235 -0.0119988 1.84359
3.20879e-18 -3.50363e-19 -6.67333e-17
-0.00168476 0.00204042 0.522985
6.25262e-07 -1.74066e-06 0.000581339
-0.160875 -0.143041 0.904532
-6.85385e-18 -9.10105e-19 1.96312e-16
0.000482617 0.00883059 0.394981
-1.77194e-06 3.96679e-05 0.000791127
0.0856542 -0.149432 0.37383
0.119869 0.129059 0.273121
-5.22207e-06 2.64496e-05 0.000789674
-0.00127781 0.0299267 0.0889643
-0.00346036 0.0134459 0.0606741
-0.0741696 0.0281048 0.573469
-1.50288e-05 0.00365095 0.0221725
-0.00213499 0.012892 0.0399977
-0.00011194 -0.000211846 0.00228651
-0.149101 0.0361833 0.0557713
7.70442e-06 -0.000404406 0.00817818
1.34284e-07 0.000393444 -0.000111696
1.42309e-06 -8.75793e-06 0.000621244
0.00141302 -0.000329347 0.0250254
0.000151343 -7.09636e-05 0.0103674
0 0 0
0.000207585 0.000384215 0.0049621
5.20352e-05 -3.08081e-05 3.40119e-06
0 0 0
0.0140161 0.00200156 0.0727285
0 0 0
3.44582e-06 0.000208954 0.00115738
-7.0698e-05 -0.00353188 0.0155161
-0.00295173 0.000762409 0.00647009
0.00414878 -0.00289758 0.000378268
0.00983298 -0.000241266 0.00815049
1.70679e-05 0.000135908 0.00147183
0 0 0
0.153379 0.037364 0.0573269
0.000111787 -0.000209117 0.00227921
-0.00126364 -0.000311052 0.0241174
-1.39031e-06 -6.4632e-06 0.000622926
0 0 0
-0.000182621 0.000360339 0.0112946
-0.0108676 0.00295156 0.0747217
0 0 0
0.00301338 0.000764864 0.00650128
7.29273e-05 -0.00356928 0.0157112
0 0 0
-2.27793e-05 0.000182113 0.00175927
5.54309e-07 4.65524e-05 0.000681772
0 0 0
0.000124842 -0.00188079 0.0193697
1.25725e-05 0.000157905 0.00220441
5.49837e-08 -4.12986e-08 1.75763e-05
-3.46018e-08 6.63297e-09 -7.47603e-06
9.60618e-06 9.47016e-05 0.000858924
0 0 0
-3.96226e-07 -3.19304e-09 -5.14649e-05
0 0 0
0 0 0
-0.227918 0.130156 1.55826
0 0 0
-9.30089e-09 -1.7409e-06 -4.89628e-06
1.02301e-05 0.000115226 0.00171493
-5.24805e-06 1.17489e-05 -0.000147991
0 0 0
-5.14667e-07 5.2561e-05 0.000691702
-0.000130586 -0.00190116 0.0201446
-1.30632e-05 0.000169016 0.00222005
-1.01375e-05 0.0001021 0.000878372
0 0 0
0.241641 0.126503 1.57103
0 0 0