# vtk DataFile Version 2.0
tet_velo
ASCII
DATASET UNSTRUCTURED_GRID
POINTS 29498 float
-0.785 0.255 -1.81068
-0.795 0.385 1.90023
-0.755 0.625008 -1.905
-0.755 1.025 1.81019
0.785 0.255 -1.81266
0.795 0.385 1.89889
0.755 0.620268 -1.915
0.755 1.025 1.80933
-0.833354 0.253313 -0.57371
-0.847172 0.286162 0.66326
-0.876952 0.880291 -0.666603
-0.8437 0.98037 0.571793
0.833621 0.253045 -0.575477
0.846175 0.287159 0.661707
0.876361 0.87654 -0.673557
0.842873 0.977962 0.567887
-1.62738 -0.123157 -2.75215
-1.626 -0.0377054 -1.76116
-1.65949 -0.0290745 -0.524502
-1.66382 -0.0202371 0.711323
-1.62782 0.0506797 1.9479
-1.61846 0.117684 2.93851
-1.62334 0.184068 3.92973
-1.62199 0.131214 -2.79991
-1.6222 0.2447 -1.80843
-1.67144 0.279915 -0.571435
-1.66477 0.301966 0.664972
-1.60639 0.375132 1.90188
-1.60495 0.441406 2.89261
-1.61728 0.50667 3.8838
-1.61085 0.593582 -2.89524
-1.61084 0.705051 -1.90269
-1.69563 0.889705 -0.664515
-1.66525 0.974925 0.573202
-1.58487 1.02852 1.81116
-1.59446 1.09112 2.80175
-1.61533 1.15572 3.79255
-1.61688 1.43992 -3.03803
-1.62406 1.5698 -2.04602
-1.65879 1.76918 -0.806085
-1.67111 1.92321 0.433801
-1.65387 2.01528 1.67325
-1.64362 2.07376 2.66425
-1.64304 2.13238 3.65494
-0.812601 -0.118745 -2.7541
-0.795827 -0.0291425 -1.76271
-0.82369 -0.0414207 -0.526085
-0.839871 -0.0328854 0.709813
-0.818053 0.051974 1.94637
-0.811569 0.118144 2.93717
-0.815074 0.182881 3.92848
-0.811869 0.126285 -2.80245
-0.803203 0.44323 2.89139
-0.811958 0.505978 3.88264
-0.800467 0.558385 -2.89857
-0.794358 1.09023 2.80085
-0.812018 1.15482 3.79154
-0.792482 1.41578 -3.04099
-0.790837 1.54714 -2.0489
-0.823034 1.76246 -0.808499
-0.846229 1.92626 0.432099
-0.841288 2.0177 1.67208
-0.834211 2.07462 2.66319
-0.833074 2.13253 3.65385
0.794007 -0.119837 -2.75762
0.811873 -0.0295495 -1.76512
0.838718 -0.0417193 -0.528134
0.83564 -0.0324245 0.708052
0.801134 0.0521007 1.94483
0.796675 0.118088 2.93555
0.798099 0.182669 3.92665
0.777485 0.124875 -2.80659
0.78825 0.443173 2.88991
0.792959 0.505765 3.88088
0.774168 0.555468 -2.90522
0.773843 1.09005 2.79941
0.785261 1.15449 3.78973
0.839535 1.41316 -3.04675
0.855438 1.54437 -2.05477
0.850384 1.76001 -0.813552
0.815309 1.92448 0.428337
0.786595 2.0166 1.66933
0.782173 2.07381 2.66078
0.784764 2.13181 3.6515
1.60891 -0.125683 -2.7596
1.62893 -0.0395114 -1.76734
1.66761 -0.0303841 -0.529689
1.66695 -0.0202904 0.707194
1.62557 0.0507618 1.94449
1.61149 0.117457 2.93502
1.611 0.183553 3.9259
1.59305 0.128092 -2.80844
1.61354 0.242306 -1.81566
1.67055 0.277955 -0.577336
1.67046 0.301766 0.660726
1.61421 0.375286 1.8988
1.60015 0.441193 2.88934
1.6036 0.506149 3.88009
1.59053 0.588497 -2.90699
1.60691 0.69918 -1.91563
1.69492 0.884771 -0.674629
1.66796 0.972174 0.566915
1.58886 1.02796 1.80783
1.58323 1.09058 2.79839
1.59382 1.15497 3.78871
1.65601 1.43497 -3.04902
1.67433 1.56468 -2.05706
1.68061 1.76463 -0.815689
1.64854 1.91986 0.426425
1.61068 2.0131 1.66764
1.59901 2.0721 2.65928
1.59913 2.1309 3.65012
-0.769367 0.440004 -1.85721
0 0.257257 -1.80941
-0.812729 0.250604 -1.1922
-0.833794 0.705 1.914
0 0.372472 1.91209
-0.797524 0.359142 1.28175
0 0.705449 -1.99281
-0.866401 0.803074 -1.2858
0 1.08072 1.86548
-0.82006 1.02339 1.19099
0.766716 0.437634 -1.86055
0.812329 0.251004 -1.19407
0.832768 0.705 1.91188
0.797432 0.359235 1.2803
0.866552 0.799275 -1.29428
0.818963 1.02151 1.18861
-0.843876 0.266124 0.044775
-0.876343 0.566802 -0.620157
0.000133537 0.223496 -0.574593
-0.896055 0.633266 0.617527
-0.000498476 0.252222 0.662483
-0.861734 0.931738 -0.047405
-0.000295218 1.2757 -0.67008
-0.000413658 1.53834 0.56984
0.843135 0.266865 0.043115
0.870958 0.564793 -0.624517
0.892436 0.63256 0.614797
0.860934 0.928568 -0.052835
-0.880195 0.503403 -1.239
-0.892811 0.600034 -0.001315
-0.893803 0.669133 1.23637
6.67685e-05 0.215997 -1.19313
-0.00018247 0.227223 0.043945
-0.000249238 0.30233 1.28102
0 0.438819 -2.01167
0 0.705 2.02305
-0.000147609 1.02929 -1.29004
-0.000354438 1.49976 -0.05012
-0.000206829 1.51996 1.1898
0.882641 0.501213 -1.24417
0.888536 0.598677 -0.00485998
0.894221 0.66878 1.23445
-1.2036 0.24985 -1.80955
-0.790413 0.112929 -1.7867
-0.798435 0.190643 -2.30657
-1.2007 0.380066 1.90105
-0.806527 0.218487 1.9233
-0.799102 0.414115 2.39581
-1.18292 0.665029 -1.90385
-0.777733 0.591696 -2.40178
-0.772919 1.08607 -1.97695
-1.16994 1.02676 1.81067
-0.774679 1.05762 2.30552
-0.798144 1.52135 1.74114
0.798436 0.112725 -1.78889
0.781242 0.189938 -2.30962
1.19927 0.248653 -1.81416
0.798067 0.21855 1.92186
0.791625 0.414086 2.3944
1.20461 0.380143 1.89885
0.764584 0.587868 -2.41011
0.805219 1.08232 -1.98489
1.18096 0.659724 -1.91531
0.764422 1.05752 2.30437
0.770798 1.5208 1.73933
1.17193 1.02648 1.80858
-1.2524 0.266614 -0.572573
-0.828522 0.105946 -0.549898
-1.25597 0.294064 0.664116
-0.843521 0.126638 0.686536
-1.28629 0.884998 -0.665559
-0.849993 1.32137 -0.737551
-1.25447 0.977647 0.572498
-0.844964 1.45331 0.501946
0.83617 0.105663 -0.551805
1.25208 0.2655 -0.576406
0.840907 0.127367 0.684879
1.25832 0.294462 0.661217
0.863372 1.31827 -0.743554
1.28564 0.880656 -0.674093
0.829091 1.45122 0.498112
1.25542 0.975068 0.567401
-1.62669 -0.0804314 -2.25665
-1.62468 0.00402842 -2.77603
-1.21999 -0.120951 -2.75312
-1.64274 -0.0333899 -1.14283
-1.6241 0.103498 -1.78479
-1.21091 -0.0334239 -1.76193
-1.66165 -0.0246558 0.0934108
-1.66546 0.12542 -0.547968
-1.24159 -0.0352476 -0.525293
-1.64582 0.0152213 1.32961
-1.6643 0.140865 0.688148
-1.25184 -0.0265613 0.710568
-1.62314 0.0841817 2.44321
-1.6171 0.212906 1.92489
-1.22293 0.0513268 1.94713
-1.6209 0.150876 3.43412
-1.6117 0.279545 2.91556
-1.21501 0.117914 2.93784
-1.62031 0.345369 3.90677
-1.2192 0.183474 3.9291
-1.6221 0.187957 -2.30417
-1.61642 0.362398 -2.84757
-1.21693 0.12875 -2.80118
-1.64682 0.262308 -1.18993
-1.61652 0.474876 -1.85556
-1.66811 0.290941 0.0467685
-1.68353 0.58481 -0.617975
-1.63558 0.338549 1.28343
-1.66501 0.638446 0.619087
-1.60567 0.408269 2.39725
-1.59563 0.701827 1.85652
-1.61111 0.474038 3.38821
-1.5997 0.766261 2.84718
-1.20408 0.442318 2.892
-1.6163 0.831193 3.83818
-1.21462 0.506324 3.88322
-1.61084 0.649316 -2.39897
-1.61386 1.01675 -2.96664
-1.20566 0.575983 -2.8969
-1.65324 0.797378 -1.2836
-1.61745 1.13743 -1.97436
-1.68044 0.932315 -0.0456563
-1.67721 1.32944 -0.7353
-1.62506 1.00172 1.19218
-1.66818 1.44907 0.503501
-1.58967 1.05982 2.30646
-1.61937 1.5219 1.74221
-1.60489 1.12342 3.29715
-1.61904 1.58244 2.733
-1.19441 1.09067 2.8013
-1.62919 1.64405 3.72374
-1.21367 1.15527 3.79204
-1.62047 1.50486 -2.54203
-1.20468 1.42785 -3.03951
-1.64143 1.66949 -1.42605
-1.20745 1.55847 -2.04746
-1.66495 1.84619 -0.186142
-1.24091 1.76582 -0.807292
-1.66249 1.96924 1.05353
-1.25867 1.92473 0.43295
-1.64874 2.04452 2.16875
-1.24758 2.01649 1.67267
-1.64333 2.10307 3.15959
-1.23891 2.07419 2.66372
-1.23806 2.13245 3.6544
-0.804214 -0.0739436 -2.25841
-0.812235 0.00377019 -2.77828
-0.00929723 -0.119291 -2.75586
-0.809758 -0.0352816 -1.1444
0.00802303 -0.029346 -1.76392
-0.83178 -0.037153 0.0918638
0.00751432 -0.04157 -0.527109
-0.828962 0.00954429 1.32809
-0.0021155 -0.032655 0.708932
-0.814811 0.0850592 2.44177
-0.00845941 0.0520373 1.9456
-0.813322 0.150513 3.43283
-0.807386 0.280687 2.91428
-0.00744699 0.118116 2.93636
-0.813516 0.344429 3.90556
-0.00848737 0.182775 3.92757
-0.806168 0.342335 -2.85051
-0.0171923 0.12558 -2.80452
-0.807581 0.474604 3.38702
-0.798781 0.76673 2.84612
-0.00747675 0.443201 2.89065
-0.811988 0.830398 3.83709
-0.00949937 0.505871 3.88176
-0.796475 0.987085 -2.96978
-0.0131492 0.556926 -2.90189
-0.803188 1.12252 3.29619
-0.814284 1.58242 2.73202
-0.0102573 1.09014 2.80013
-0.822546 1.64367 3.7227
-0.0133782 1.15466 3.79063
-0.79166 1.48146 -2.54495
0.0235264 1.41447 -3.04387
-0.806936 1.6548 -1.4287
0.0323005 1.54576 -2.05184
-0.834631 1.84436 -0.1882
0.0136746 1.76123 -0.811026
-0.843758 1.97198 1.05209
-0.01546 1.92537 0.430218
-0.837749 2.04616 2.16764
-0.0273463 2.01715 1.67071
-0.833642 2.10357 3.15852
-0.0260188 2.07421 2.66198
-0.0241548 2.13217 3.65267
0.80294 -0.0746931 -2.26137
0.785746 0.00251928 -2.7821
1.20146 -0.12276 -2.75861
0.825295 -0.0356344 -1.14663
1.2204 -0.0345304 -1.76623
0.837179 -0.0370719 0.089959
1.25317 -0.0360517 -0.528911
0.818387 0.00983806 1.32644
1.25129 -0.0263574 0.707623
0.798905 0.0850944 2.44019
1.21335 0.0514312 1.94466
0.797387 0.150378 3.4311
0.792462 0.28063 2.91273
1.20408 0.117773 2.93528
0.795529 0.344217 3.90377
1.20455 0.183111 3.92628
0.775826 0.340171 -2.8559
1.18527 0.126484 -2.80751
0.790604 0.474469 3.38539
0.781047 0.76661 2.84466
1.1942 0.442183 2.88962
0.78911 0.830129 3.8353
1.19828 0.505957 3.88048
0.806852 0.984315 -2.97599
1.18235 0.571982 -2.90611
0.779552 1.12227 3.29457
0.778008 1.58193 2.73009
1.17854 1.09031 2.7989
0.785013 1.64315 3.72061
1.18954 1.15473 3.78922
0.847487 1.47877 -2.55076
1.24777 1.42406 -3.04789
0.852911 1.65219 -1.43416
1.26488 1.55453 -2.05592
0.832846 1.84225 -0.192607
1.2655 1.76232 -0.81462
0.800952 1.97054 1.04883
1.23193 1.92217 0.427381
0.784384 2.04521 2.16506
1.19864 2.01485 1.66849
0.783469 2.10281 3.15614
1.19059 2.07296 2.66003
1.19195 2.13136 3.65081
1.61892 -0.082597 -2.26347
1.60098 0.00120488 -2.78402
1.64827 -0.0349477 -1.14852
1.62124 0.101398 -1.7915
1.66728 -0.0253372 0.0887525
1.66908 0.123785 -0.553512
1.64626 0.0152357 1.32584
1.6687 0.140738 0.68396
1.61853 0.0841094 2.43975
1.61989 0.213024 1.92164
1.61125 0.150505 3.43046
1.60582 0.279325 2.91218
1.6073 0.344851 3.90299
1.60329 0.185199 -2.31205
1.59179 0.358294 -2.85772
1.64204 0.260131 -1.1965
1.61023 0.470743 -1.86564
1.6705 0.28986 0.0416954
1.68273 0.581363 -0.625982
1.64234 0.338526 1.27976
1.66921 0.63697 0.613821
1.60718 0.40824 2.39407
1.60153 0.701624 1.85332
1.60188 0.473671 3.38471
1.59169 0.765885 2.84386
1.59871 0.830557 3.8344
1.59872 0.643838 -2.41131
1.62327 1.01173 -2.97801
1.65091 0.791976 -1.29513
1.64062 1.13193 -1.98635
1.68144 0.928473 -0.0538569
1.68776 1.3247 -0.745159
1.62841 1.00007 1.18737
[...]
POINT_DATA 29498
VECTORS point_vectors float
-4.49744 -5.37009 10.7588
0.293444 0.382035 2.22714
-0.84669 0.264313 0.969804
-0.0879037 -0.212231 0.170479
4.73598 -5.8517 11.1902
-0.330276 0.345334 2.20057
3.2965 1.08691 3.88224
0.103135 -0.200713 0.14616
0.010724 -0.00496423 0.3328
0.128559 -0.105539 1.74898
-0.00716664 0.0165228 0.616646
0 0 0
-0.0105626 -0.00345306 0.366127
-0.131489 -0.101058 1.7344
0.0136029 -0.00030897 0.651689
0 0 0
-0.734396 -0.391347 19.9633
-1.19053 -0.699828 20.723
-0.421923 -0.465762 21.4696
0.132191 -0.23513 21.6231
0.716374 0.00794783 21.5638
1.01554 0.10985 21.3466
1.09199 0.00411471 20.6087
-0.801197 -0.316108 19.8787
-1.57059 -0.645547 20.6088
-0.570482 -0.522605 21.5001
0.0740354 -0.369805 21.6702
0.79278 -0.250387 21.6515
1.16694 -0.211899 21.2966
1.14123 -0.101598 21.0664
-0.811022 -0.100355 19.7401
-1.82441 -0.153823 20.3163
-1.11703 -0.401502 21.4262
-0.348755 -0.493303 21.7022
0.361388 -0.628918 21.6955
0.796418 -0.667309 21.3316
0.844277 -0.642592 21.0329
-0.564264 0.226239 19.8436
-1.11301 0.499699 20.145
-1.15972 0.359481 21.0342
-0.600144 -0.00151994 21.5012
-0.143547 -0.293374 21.4638
0.0996303 -0.454903 21.2753
0.197678 -0.429821 21.0037
-0.827174 -0.949841 19.2684
-2.00379 -3.43551 21.4832
-0.209641 -0.245585 21.4149
0.477631 0.272817 20.5384
1.27762 1.2565 19.6148
1.72476 1.65817 19.3799
1.61499 1.25691 17.5294
-0.948059 -0.77537 18.9238
2.17341 0.978455 12.0021
2.3568 0.922014 15.5583
-1.00984 -0.190041 18.627
0.55618 -0.945793 8.0828
1.48844 -0.943391 13.0155
-0.559601 0.51436 19.2712
-1.49415 1.83658 19.3592
-2.12601 1.97795 20.9441
-1.11444 0.609221 22.0463
-0.384224 -0.215879 21.7406
-0.122298 -0.575353 21.5277
0.0453344 -0.851243 21.1318
0.806918 -0.963761 19.2487
2.01107 -3.31785 21.4782
0.1657 -0.24686 21.5628
-0.507097 0.26445 20.5679
-1.2578 1.21892 19.4502
-1.71831 1.62762 19.311
-1.59219 1.25202 17.4412
0.931431 -0.790642 18.8908
-2.07749 0.832331 11.4688
-2.38868 0.982448 15.0279
0.98752 -0.190462 18.6021
-0.139582 -1.20719 6.00379
-1.26115 -1.09874 11.0481
0.572548 0.491923 19.3015
1.49833 1.67984 19.4359
2.12176 1.88039 20.9504
1.11687 0.677211 22.0538
0.383085 -0.121401 21.7243
0.132552 -0.484504 21.5415
-0.0567028 -0.742195 21.0916
0.728585 -0.399415 19.956
1.17775 -0.697902 20.7192
0.409507 -0.465231 21.4511
-0.127994 -0.246451 21.6002
-0.694083 -0.0165644 21.5552
-1.00216 0.0813253 21.3539
-1.11286 -0.0219667 20.6084
0.81205 -0.325285 19.8539
1.57293 -0.654367 20.6043
0.557286 -0.52572 21.4881
-0.0671034 -0.379405 21.6456
-0.747615 -0.278458 21.631
-1.13131 -0.245604 21.3261
-1.14572 -0.133977 21.1082
0.814096 -0.100923 19.7226
1.81669 -0.162269 20.3006
1.10923 -0.406042 21.4114
0.356287 -0.496102 21.6757
-0.309019 -0.624164 21.6686
-0.733876 -0.684283 21.3576
-0.808463 -0.69202 21.0982
0.552132 0.213644 19.8605
1.07074 0.463987 20.1624
1.13238 0.340694 21.0201
0.613247 0.00626761 21.4931
0.168415 -0.273957 21.4544
-0.0862351 -0.445515 21.2803
-0.182182 -0.423442 21.0224
-0.238443 -0.0695813 0.266149
0.00136912 -0.0595967 0.309675
-0.0254303 -0.0186067 0.32629
0.0345473 -0.0338193 0.172896
0.000894591 0.0118168 0.0960491
0.0148795 0.00293642 0.044564
0.0161118 0.367742 0.28984
-0.0359633 -0.0267592 0.139664
-0.020522 0.000317682 -0.0242589
0 0 0
0.607165 -0.169573 0.668904
-0.00545576 -0.00437841 0.568674
-0.0352347 -0.0531143 0.198602
-0.0079012 0.00182072 0.0723546
0.0324967 -0.0231688 0.12772
0 0 0
0.0959664 -0.0370967 2.14133
0.000600424 0.00409838 0.0607176
0 0 0
-0.000529771 0.0187221 0.271791
0 0 0
0 0 0
-3.30616e-06 0.0267728 0.0588105
2.11789e-07 2.2273e-05 0.00101702
-0.177645 -0.0564354 2.42646
0 0 0
0.000776675 0.0223128 0.292264
-3.85325e-18 1.12606e-17 6.63514e-17
0 0 0
-0.00149151 0.0656184 0.785843
0.00164489 -0.00365689 0.127105
0.00293297 -0.0330238 0.179071
-0.00013341 0.00336113 0.0524033
0 0 0
0 0 0
-0.00923191 -0.129533 0.0414076
-0.000146745 0.0831005 0.372547
-5.77769e-05 0.0196368 0.109663
-0.000345873 -0.00112627 0.0212701
0.000801282 -0.00159673 0.0194654
-0.00290869 0.0642939 0.723725
-0.00161249 -0.00470205 0.15286
-2.91198 -1.54022 20.7149
-3.08158 -5.15947 22.05
-2.45643 -2.19395 17.9634
1.46751 -0.150775 21.0083
1.39066 1.17003 14.0468
1.53431 0.7631 8.90577
-3.85509 -0.115443 19.8933
-2.76231 -0.201862 16.9565
-3.46996 3.06751 18.3649
0.605028 -0.914977 20.4902
-0.29295 -0.84389 4.4124
-0.00732166 -0.338035 16.2914
3.10619 -5.10682 22.083
2.44301 -2.24609 17.9073
2.91854 -1.55915 20.7171
-1.39504 1.14407 13.8839
-1.48771 0.553675 8.42255
-1.41067 -0.21344 21.0273
2.71219 -0.221139 16.9032
3.46328 2.8147 18.4711
3.85461 -0.128084 19.8547
0.510164 -0.77932 3.00066
-0.0430082 -0.151235 15.0253
-0.499719 -0.905464 20.4398
-0.437562 -0.832001 21.9446
0.273789 0.0696854 15.8487
0.328424 -0.503335 21.7215
0.809569 0.136925 15.3008
-1.69847 -0.935535 21.9388
-4.88414 1.41163 21.547
-0.449646 -0.876273 21.7852
-1.25378 -0.153814 18.8386
-0.254317 0.0637588 16.5477
0.41518 -0.832276 21.9278
-0.836272 0.117893 15.4714
-0.323662 -0.520807 21.715
4.75261 1.27018 21.5748
1.69028 -0.947774 21.9177
1.11803 -0.0272125 17.8252
0.460892 -0.880442 21.7643
-1.06271 -0.588202 20.2143
-0.774144 -0.358723 19.9243
-0.858816 -0.636092 19.6595
-0.833861 -0.610633 21.2411
-1.33941 -0.681669 20.6742
-1.77219 -1.49401 20.8684
-0.117592 -0.342328 21.5631
-0.489577 -0.477347 21.4666
-0.299081 -0.557728 21.7465
0.421765 -0.122194 21.635
0.116779 -0.283448 21.6263
0.342666 -0.164246 21.8268
0.889771 0.0675971 21.4545
0.786572 -0.101991 21.6076
1.16239 0.322058 21.5943
1.00928 0.149133 21.0344
1.11673 -0.0417456 21.273
1.54942 0.528406 21.0846
1.13531 -0.0369491 20.8918
1.68173 0.34233 20.8054
-1.25023 -0.489414 20.0454
-0.820947 -0.204449 19.7875
-0.958419 -0.515384 19.485
-1.08978 -0.624877 21.2743
-1.70887 -0.40199 20.4743
-0.211534 -0.444721 21.6005
-0.824745 -0.531462 21.4843
0.414673 -0.314563 21.7235
-0.0911601 -0.494268 21.6793
1.00372 -0.228953 21.4888
0.664461 -0.49202 21.7164
1.23163 -0.254407 21.0795
1.05115 -0.505123 21.3758
1.92059 -0.0177207 21.0286
0.98736 -0.491529 20.9381
1.88592 -0.118892 20.5464
-1.32774 -0.107285 19.8449
-0.726246 0.106673 19.7662
-0.997959 -0.122765 19.3047
-1.62748 -0.288507 21.0994
-1.55372 0.299693 20.1568
-0.718871 -0.481806 21.6329
-1.32864 0.0274971 21.2493
0.00431603 -0.53272 21.7358
-0.589453 -0.250264 21.6444
0.568306 -0.663591 21.5572
0.0184284 -0.493821 21.5886
0.91987 -0.765229 20.9928
0.306178 -0.59572 21.2509
1.046 -1.06168 20.3941
0.500862 -0.697486 21.5162
1.18339 -1.00345 20.8553
-0.81477 0.354772 19.9244
-0.624369 0.349092 19.5822
-1.24766 0.492487 20.6028
-1.4268 0.983936 19.8409
-0.924031 0.169926 21.3575
-1.68332 0.858824 21.0634
-0.342036 -0.16528 21.5428
-0.877276 0.168965 21.7355
-0.00539388 -0.378355 21.4607
-0.248429 -0.313376 21.6071
0.212807 -0.535779 21.3583
0.0180536 -0.534907 21.3806
0.0922801 -0.654439 21.6631
-1.62067 -2.16834 19.2397
-0.897679 -0.898772 19.0903
-0.0148597 -1.41752 18.7213
-0.875818 -1.22531 22.2521
0.0389085 -4.51152 22.2298
0.156719 0.0493291 20.7681
0.0617948 -0.497262 19.312
0.913703 0.797698 19.95
0.00971465 0.2343 17.232
1.52639 1.47043 19.5059
-0.0965103 1.09339 14.9715
2.01047 1.81516 18.7308
2.20388 1.60673 16.2904
-0.0803342 1.95898 15.3572
2.01617 1.1201 16.375
-0.00131788 2.35298 15.0153
-1.00514 -0.517944 18.709
-0.0295868 -1.17274 18.1479
2.58435 0.903907 14.6624
1.32181 -0.54779 7.30673
-0.10921 1.00194 4.06819
2.35395 0.588385 12.7821
0.0240126 2.80453 7.1968
-0.817555 0.332694 18.8814
-0.018806 -0.253608 17.7261
1.71448 -1.20421 12.2215
0.148264 -0.961507 18.1549
0.306744 1.18767 -3.19879
0.3193 -1.31756 18.0696
0.289469 2.40097 -1.90806
-0.971858 1.06622 19.1025
0.0309825 0.685948 18.9354
-1.85608 2.08942 20.159
0.0752358 2.86201 18.7777
-1.877 1.42559 21.8174
0.0578371 4.06323 20.3798
-0.628973 0.0958253 21.9273
-0.0491115 1.81102 22.5933
-0.24945 -0.379401 21.6124
-0.0825968 0.310876 21.9212
-0.0147368 -0.674172 21.0982
-0.0641889 -0.184587 22.0769
-0.069584 -0.393267 21.4153
1.61389 -2.16181 19.2423
0.884214 -0.917836 19.0642
0.858586 -0.649082 19.642
0.807293 -1.10655 22.2595
1.74132 -1.45873 20.8661
-0.204143 0.0717132 20.9215
0.282941 -0.554427 21.7216
-0.888661 0.748441 20.0299
-0.345448 -0.18146 21.7942
-1.50347 1.41017 19.3988
-1.14873 0.279599 21.5681
-2.02373 1.81142 18.7057
-2.19705 1.56619 15.9832
-1.54061 0.497532 21.0655
-2.0442 1.16602 15.94
-1.71194 0.30564 20.8899
0.982016 -0.525327 18.6788
0.963269 -0.54003 19.4489
-2.55746 0.886398 14.1266
-1.10516 -0.809609 5.92974
-1.87285 -0.0586537 20.927
-2.32483 0.593227 11.6188
-1.9403 -0.106531 20.4118
0.812855 0.320701 18.8986
0.986549 -0.126683 19.2744
-1.5717 -1.26886 10.2806
-0.0938229 -0.748377 17.1763
-0.924148 -1.02997 20.0721
-0.214539 -1.20351 16.8475
-1.26946 -1.01702 20.5071
0.981932 0.996538 19.1559
0.615778 0.330803 19.6075
1.8903 1.95465 20.1967
1.39484 0.875871 19.8942
1.88064 1.43358 21.8035
1.64205 0.813423 21.0547
0.624001 0.165575 21.9333
0.894334 0.197738 21.7351
0.248722 -0.286847 21.6105
0.272443 -0.263489 21.5979
0.0418956 -0.611533 21.1534
0.0116792 -0.483711 21.3847
-0.0658246 -0.657707 21.7912
1.06105 -0.596394 20.2098
0.779785 -0.370131 19.9123
0.817239 -0.608727 21.2309
1.33364 -0.684677 20.6735
0.10996 -0.34644 21.5455
0.47932 -0.478329 21.4521
-0.406238 -0.144881 21.6187
-0.109808 -0.294498 21.6028
-0.86683 0.0381814 21.4561
-0.753094 -0.131904 21.5931
-1.01305 0.125331 21.0317
-1.093 -0.0732779 21.294
-1.14319 -0.0656363 20.9085
1.26724 -0.498438 20.0329
0.828539 -0.215334 19.7642
1.08179 -0.632736 21.2741
1.71067 -0.409456 20.4614
0.204402 -0.449317 21.5821
0.815482 -0.536318 21.4685
-0.388246 -0.334575 21.6946
0.0984005 -0.500817 21.649
-0.957046 -0.266062 21.4861
-0.610524 -0.507224 21.6864
-1.22131 -0.304863 21.1075
-1.00521 -0.527313 21.3897
-0.966681 -0.519873 20.968
1.33145 -0.112407 19.8281
0.708086 0.099792 19.7741
1.62361 -0.297922 21.0906
1.51755 0.277375 20.1663
0.715658 -0.486791 21.6147
1.30847 0.0256997 21.232
0.0199164 -0.529678 21.7038
0.599861 -0.247978 21.6271
-0.502371 -0.660421 21.5455
0.0183667 -0.478698 21.5691
-0.883074 -0.783535 21.0343
-0.26746 -0.58129 21.2347
-0.458688 -0.787253 21.5508
0.793349 0.3314 19.9465
1.21123 0.461933 20.6023
0.927574 0.17076 21.3434
0.356606 -0.153268 21.5339
0.0355883 -0.359484 21.4538
-0.189545 -0.538528 21.4189
-1.13241 -0.554069 20.1425
-2.02974 -2.30789 18.7158
-1.43864 -1.13006 19.917
-1.85136 -1.00784 19.5268
-0.915531 -0.596186 19.5646
-2.31725 -1.62699 20.832
-0.947373 -0.611903 21.2344
-0.640659 -0.680304 17.6188
-0.933349 -0.979015 21.6793
-1.40118 -1.15468 21.9236
-0.330776 -0.685381 21.8445
-0.155922 -0.379394 21.5781
0.523486 0.131616 15.1724
0.0474795 -0.340249 21.7737
0.0033642 -0.646537 21.7958
0.375122 -0.335819 21.8051
0.437277 -0.199207 21.6758
1.19558 0.782059 13.3953
0.759224 0.061862 21.7956
0.845924 -0.392153 21.3392
1.35082 0.118897 21.4882
0.987801 -0.0603945 21.458
1.73675 1.38494 15.0118
1.4106 0.451186 21.4002
1.78657 -0.100336 20.97
1.75465 0.273857 21.0694
1.16191 -0.0196998 21.0196
2.37474 1.66646 17.2036
1.51978 0.519085 21.2621
1.86996 -0.0014475 20.7871
2.02934 0.15117 20.1723
-1.31651 -0.299544 19.9284
-2.91864 -1.39887 17.0899
-2.07957 -0.14031 19.0282
-1.00701 -0.327496 19.3537
-3.73001 -0.973981 20.3297
-1.3713 -0.503647 21.2195
-2.67852 -0.619925 21.6042
-0.893215 -1.0553 22.0938
-0.420812 -0.529995 21.6224
-0.990303 -0.964019 22.0549
0.0790741 -0.797971 21.6125
0.260753 -0.481207 21.7631
-0.00167946 -0.800329 21.2783
1.18553 -0.642975 20.4407
0.894877 -0.509799 21.5745
0.410406 -0.91929 4.22189
0.773728 -1.08579 20.7308
1.66261 -0.665149 20.3086
1.1459 -0.418658 21.2179
2.75754 -0.64113 10.0438
1.1966 -0.967019 20.7274
1.6509 -0.809313 20.799
-1.12411 0.2111 19.8296
-1.79262 1.12467 18.1445
-1.02403 0.654785 19.565
-0.845563 0.196986 19.3917
-2.4991 0.938964 19.6934
-1.61957 0.216771 20.7968
-4.07554 2.4445 20.3667
-1.69529 1.06928 20.4741
-2.2865 0.161134 21.4908
-0.956689 -0.131447 21.5363
-2.97918 -0.215318 20.2457
-1.35973 0.51908 21.5546
-0.960335 -0.353794 21.9763
-0.257771 -0.362653 21.6572
-0.264202 0.00788578 16.9758
-0.494972 -0.12116 21.7282
-0.167505 -0.716037 21.7945
0.203953 -0.583797 21.4843
-0.0316895 -0.584811 17.1268
-0.101796 -0.442593 21.526
0.276183 -0.956586 21.5202
0.483441 -0.710677 21.1333
0.343635 -1.2627 19.3815
0.175013 -0.577181 21.1169
0.722766 -0.935915 20.4678
2.01641 -2.32934 18.6906
0.000298324 -3.69295 18.5542
-0.030115 -4.34843 15.7821
-0.0221101 -1.37876 18.4174
0.0405372 -5.48669 22.9456
0.411129 -0.530658 18.1104
0.0633758 -1.6904 21.7003
0.0631382 -0.0555051 9.48333
-0.58742 0.149667 15.5877
0.0331593 -0.0779679 17.9116
-0.0118618 0.229117 8.92834
-1.13718 0.724917 13.4651
-0.0730823 0.624274 15.8384
-0.0870908 0.768828 7.15952
-1.70482 1.2956 14.68
-0.0990073 1.40153 15.0806
-0.199444 -0.130519 2.50964
-0.122432 1.38602 8.98654
-2.36579 1.69181 16.8797
-0.0580897 2.53513 15.557
0.00500808 2.09274 4.7753
0.00168177 2.36911 11.5947
2.89292 -1.42016 17.0352
-0.0313721 0.0288636 14.0201
-0.0195752 -0.745805 17.8205
-0.231101 -1.13486 3.63871
0.143977 -0.203467 -2.93598
0.247947 1.10697 -0.480558
-2.74281 -0.80313 8.80615
0.410918 2.04842 -4.13054
0.4075 2.41496 3.1418
1.77487 1.04938 18.2185
0.0547616 1.58443 18.5451
0.00826525 0.522517 18.2523
0.092355 5.85705 16.8414
4.04082 2.28015 20.4278
0.0759094 3.51114 19.6441
0.0486753 6.23999 18.031
2.99222 -0.236653 20.2259
-0.00718687 3.7477 22.0698
-0.0166974 0.247133 5.69556
0.164729 0.15414 15.9371
-0.0557497 0.692785 22.2157
-0.443567 0.469545 1.72371
0.01951 -0.361872 15.9623
-0.0782992 0.107936 21.9455
-0.460708 -0.102148 4.12421
-0.222268 -1.18146 18.4058
-0.0519841 -0.400983 21.8951
-0.167662 -0.765721 7.3801
1.13654 -0.565852 20.1367
1.43227 -1.13605 19.9165
1.89249 -1.03624 19.4753
0.909837 -0.614189 19.5505
2.29681 -1.61777 20.8307
0.934814 -0.614121 21.2276
0.905406 -0.961496 21.6603
1.36712 -1.16464 21.931
0.316984 -0.681361 21.8175
0.148558 -0.381769 21.5637
-0.0626394 -0.343236 21.7509
-0.0216074 -0.652487 21.7872
-0.372712 -0.354979 21.7749
-0.415837 -0.222664 21.6514
-0.745776 0.0285345 21.7676
-0.807245 -0.428189 21.3697
-1.31959 0.0645566 21.4476
-0.954919 -0.0996632 21.4541
-1.40122 0.403657 21.3781
-1.72116 -0.175591 20.9453
-1.7328 0.233609 21.0371
-1.15509 -0.0476042 21.0257
-1.53676 0.507195 21.2799
-1.88646 -0.00664134 20.6363
-2.08994 0.11488 20.0916
1.32686 -0.312647 19.9128
2.08146 -0.147113 18.994
1.01517 -0.338731 19.3072
3.74879 -0.996479 20.3078
1.37168 -0.513288 21.2155
2.68895 -0.633269 21.6134
0.868535 -1.07526 22.0734
0.415136 -0.536584 21.6023
0.988967 -0.97699 22.0345
-0.0722413 -0.815989 21.598
-0.234028 -0.48852 21.7295
0.042592 -0.790472 21.2343
-1.09889 -0.687575 20.424
-0.831895 -0.529915 21.5666
-0.63471 -1.05478 20.5543
-1.56235 -0.698339 19.9654
-1.13484 -0.434734 21.2762
-1.13451 -0.990892 20.4145
-1.66765 -0.736132 20.3733
1.10111 0.201796 19.836
1.01647 0.604852 19.6089
0.837184 0.187655 19.4017
2.42487 0.858027 19.7223
1.5821 0.205883 20.7846
1.6501 0.989824 20.4844
2.24018 0.138818 21.4702
0.95692 -0.135517 21.5203
1.36064 0.521195 21.5399
0.990181 -0.351215 21.9717
0.279887 -0.353678 21.6375
0.515826 -0.0835001 21.7248
0.234296 -0.673277 21.7326
-0.157277 -0.570486 21.4654
0.130914 -0.388339 21.5226
-0.178886 -0.906624 21.4822
-0.440295 -0.703729 21.1949
-0.154744 -0.533417 21.0417
-0.671769 -0.969798 20.3891
-1.70853 -1.117 19.6908
-1.11085 -1.08538 21.8091
0.063309 -0.486105 21.813
0.860838 -0.146364 21.7098
1.61828 0.222913 21.2787
1.82971 0.22614 20.6431
-2.10721 -0.615091 19.1933
-1.99925 -1.05213 21.9567
-0.314315 -0.947855 21.9611
0.475484 -0.685267 21.0703
1.45863 -0.738713 20.4355
1.76168 -0.610843 20.3875
-1.56831 0.507561 19.2458
-2.66554 0.66395 20.8185
-1.68457 -0.179898 21.926
-0.507727 -0.519204 21.9592
0.0295845 -0.835784 21.6909
0.391603 -0.917964 21.2471
-0.0137901 -4.29461 17.4262
0.0838098 -0.887417 12.5185
-0.0060509 0.125397 8.78352
-0.326404 0.392441 7.70306
-0.148575 0.858956 7.63394
-0.0586807 2.62675 10.7289
-0.0394026 -2.41872 14.0035
0.0650238 -0.52379 0.286788
0.370657 2.59006 -0.042521
0.0302086 2.01091 16.7245
0.0675426 5.37516 19.2058
-0.0031015 2.26155 8.08815
-0.054116 -0.0980897 4.74852
-0.385499 0.342481 2.92213
-0.206228 -0.363796 5.53315
1.70262 -1.13838 19.6757
1.07644 -1.07668 21.7964
-0.0767679 -0.491305 21.7965
-0.832419 -0.184549 21.6882
-1.58509 0.155728 21.2398
-1.82505 0.2209 20.6009
2.12983 -0.636399 19.1487
1.98429 -1.07245 21.9726
0.298809 -0.965369 21.9446
-0.427966 -0.707768 21.0675
-1.33448 -0.776674 20.2606
-1.75157 -0.645346 19.8855
1.53926 0.478303 19.2818
2.59057 0.614178 20.8113
1.68565 -0.183973 21.9058
0.540187 -0.501154 21.9351
0.0613277 -0.778971 21.6443
-0.327831 -0.893165 21.2764
-2.22264 -1.37802 2.05942
-0.0086232 -0.0472168 0.217103
-0.0250069 -0.00522392 0.523854
0.0269348 -0.014657 0.0489817
0.00153748 0.0236069 0.0709825
0.039721 0.00415371 0.573126
-1.5392 -0.24698 1.45127
-0.0270342 0.0522942 0.036897
-0.704625 -0.146943 1.84003
-0.00728364 -0.0848694 0.0490636
-0.0629324 -0.000538137 -0.0190863
0 0 0
0.0166826 -0.0912806 0.436579
1.80401 -1.19292 1.63007
0.0173305 -0.00576734 0.563256
0.000169044 0.0233511 0.0770812
-0.0241691 -0.0188774 0.0392082
-0.0353165 0.00189133 0.501907
0 0 0
0.864183 -0.135424 0.813595
0.8489 -0.170912 2.132
0.045155 0.00683814 -0.0400862
0.0156164 -0.0950859 0.0468827
0 0 0
0.0311566 -0.00898921 0.238139
0.0584519 -0.0305286 1.57479
-1.67323e-18 5.02853e-19 -8.80007e-17
0.012721 -0.00202226 0.148867
0.122472 -0.0835943 1.66882
0.158744 -0.0542758 2.26285
-1.92054e-05 0.00171994 0.0353874
0.00405535 0.00320584 0.101373
-0.152005 -0.160539 0.813611
-3.50063e-05 0.000276931 0.00795953
0.00861225 0.043748 0.341275
-0.0191136 0.0178343 0.0457495
0 0 0
0 0 0
7.10643e-05 0.000179836 0.00094693
0.0057784 0.00669677 0.075475
-0.0139944 -0.023201 0.377456
0 0 0
-0.0654983 -0.0320958 1.5953
0 0 0
-0.138066 -0.10797 1.94629
0 0 0
-0.16158 -0.0630598 2.32555
4.65877e-05 0.00183226 0.0395783
0.133969 -0.189095 0.771519
0.02817 0.0260289 0.0670307
-7.51812e-05 0.0013704 0.0108519
-0.00664864 0.0504885 0.445064
0 0 0
-0.0264915 0.0270437 0.327204
0 0 0
-0.000706572 0.00185304 0.00962296
-0.00234158 -0.00452052 0.0279512
0 0 0
0 0 0
-7.46562e-05 -0.1465 0.110742
0 0 0
-0.00417339 -0.0105998 0.0694487
0.00108742 0.000545331 0.0213394
-0.0577071 -0.177627 0.0699848
0 0 0
-0.00138791 -0.00720427 -0.00118946
0.00189964 -0.0016762 0.062992
0.0145483 0.0446133 0.179197
9.02757e-06 -0.0103737 0.00269952
3.3383e-05 0.0508234 0.147683
-0.00117663 -0.00416974 0.0412157
-0.0110296 0.0107373 0.0459856
0 0 0
0 0 0
0 0 0
0.00116182 -0.00381599 0.0447124
0 0 0
0 0 0
0 0 0
0 0 0
0.0179349 -0.248616 0.0990061
-0.00321202 0.000838819 0.0669985
-0.0458942 -0.0103762 0.575696
-0.00213107 -0.00181245 0.0747403
0.0112549 0.00961853 0.042075
0.00107397 -0.00236996 0.0286013
-0.00244858 -0.0034714 0.0419719
0 0 0
0 0 0
0.0312423 0.00091733 0.219543
0.00414746 -0.00199889 0.116497
0.00044833 0.0196093 0.29239
0.000490584 0.000528858 0.0171747
-6.51123e-07 4.67295e-07 0.000162311
-0.00345675 0.0608622 0.733224
0.0169005 0.0377407 0.547317
0 0 0
0 0 0
0 0 0
-0.205093 0.115242 1.2894
3.63988e-05 0.0219596 0.0534935
-5.42962e-06 0.000237853 0.000720289
-1.12304e-05 0.00158589 0.0227258
-3.761e-06 -4.15781e-05 0.00201585
0 0 0
0 0 0
-0.00459319 -0.000382932 0.104248
0.00181037 0.0137439 0.191232
0.00580363 0.0494702 0.58488
-0.0107767 0.0420912 0.528245
0.216047 0.122221 1.43329
-0.00043485 0.00110265 0.00793067
0 0 0
-0.02772 -0.0454976 0.217906
-0.000379273 -0.000943505 0.0550035
0.00378024 -0.00839827 0.0863705
6.93878e-06 3.66519e-05 0.00125483
2.43036e-05 0.0008311 0.00432143
-0.000228304 0.00148566 0.0506515
0.000100765 0.00226638 0.0125378
0 0 0
0 0 0
0.00395044 0.00295593 0.0750248
0 0 0
-0.000849553 -0.000157693 0.0108015
2.71813e-06 -2.89553e-07 2.32438e-05
-2.71088e-18 1.03302e-18 -4.69283e-17
-0.0164503 -0.0030106 0.16879
0.0169324 -0.00246221 0.152231
0 0 0