# vtk DataFile Version 2.0
tri_press
ASCII
DATASET UNSTRUCTURED_GRID
POINTS 3682 float
-0.785 0.255 -1.81068
-0.795 0.385 1.90023
-0.755 0.625008 -1.905
-0.755 1.025 1.81019
0.785 0.255 -1.81266
0.795 0.385 1.89889
0.755 0.620268 -1.915
0.755 1.025 1.80933
-0.833354 0.253313 -0.57371
-0.847172 0.286162 0.66326
-0.876952 0.880291 -0.666603
-0.8437 0.98037 0.571793
0.833621 0.253045 -0.575477
0.846175 0.287159 0.661707
0.876361 0.87654 -0.673557
0.842873 0.977962 0.567887
-1.62738 -0.123157 -2.75215
-1.626 -0.0377054 -1.76116
-1.65949 -0.0290745 -0.524502
-1.66382 -0.0202371 0.711323
-1.62782 0.0506797 1.9479
-1.61846 0.117684 2.93851
-1.62334 0.184068 3.92973
-1.62199 0.131214 -2.79991
-1.6222 0.2447 -1.80843
-1.67144 0.279915 -0.571435
-1.66477 0.301966 0.664972
-1.60639 0.375132 1.90188
-1.60495 0.441406 2.89261
-1.61728 0.50667 3.8838
-1.61085 0.593582 -2.89524
-1.61084 0.705051 -1.90269
-1.69563 0.889705 -0.664515
-1.66525 0.974925 0.573202
-1.58487 1.02852 1.81116
-1.59446 1.09112 2.80175
-1.61533 1.15572 3.79255
-1.61688 1.43992 -3.03803
-1.62406 1.5698 -2.04602
-1.65879 1.76918 -0.806085
-1.67111 1.92321 0.433801
-1.65387 2.01528 1.67325
-1.64362 2.07376 2.66425
-1.64304 2.13238 3.65494
-0.812601 -0.118745 -2.7541
-0.795827 -0.0291425 -1.76271
-0.82369 -0.0414207 -0.526085
-0.839871 -0.0328854 0.709813
-0.818053 0.051974 1.94637
-0.811569 0.118144 2.93717
-0.815074 0.182881 3.92848
-0.811869 0.126285 -2.80245
-0.803203 0.44323 2.89139
-0.811958 0.505978 3.88264
-0.800467 0.558385 -2.89857
-0.794358 1.09023 2.80085
-0.812018 1.15482 3.79154
-0.792482 1.41578 -3.04099
-0.790837 1.54714 -2.0489
-0.823034 1.76246 -0.808499
-0.846229 1.92626 0.432099
-0.841288 2.0177 1.67208
-0.834211 2.07462 2.66319
-0.833074 2.13253 3.65385
0.794007 -0.119837 -2.75762
0.811873 -0.0295495 -1.76512
0.838718 -0.0417193 -0.528134
0.83564 -0.0324245 0.708052
0.801134 0.0521007 1.94483
0.796675 0.118088 2.93555
0.798099 0.182669 3.92665
0.777485 0.124875 -2.80659
0.78825 0.443173 2.88991
0.792959 0.505765 3.88088
0.774168 0.555468 -2.90522
0.773843 1.09005 2.79941
0.785261 1.15449 3.78973
0.839535 1.41316 -3.04675
0.855438 1.54437 -2.05477
0.850384 1.76001 -0.813552
0.815309 1.92448 0.428337
0.786595 2.0166 1.66933
0.782173 2.07381 2.66078
0.784764 2.13181 3.6515
1.60891 -0.125683 -2.7596
1.62893 -0.0395114 -1.76734
1.66761 -0.0303841 -0.529689
1.66695 -0.0202904 0.707194
1.62557 0.0507618 1.94449
1.61149 0.117457 2.93502
1.611 0.183553 3.9259
1.59305 0.128092 -2.80844
1.61354 0.242306 -1.81566
1.67055 0.277955 -0.577336
1.67046 0.301766 0.660726
1.61421 0.375286 1.8988
1.60015 0.441193 2.88934
1.6036 0.506149 3.88009
1.59053 0.588497 -2.90699
1.60691 0.69918 -1.91563
1.69492 0.884771 -0.674629
1.66796 0.972174 0.566915
1.58886 1.02796 1.80783
1.58323 1.09058 2.79839
1.59382 1.15497 3.78871
1.65601 1.43497 -3.04902
1.67433 1.56468 -2.05706
1.68061 1.76463 -0.815689
1.64854 1.91986 0.426425
1.61068 2.0131 1.66764
1.59901 2.0721 2.65928
1.59913 2.1309 3.65012
-0.769367 0.440004 -1.85721
0 0.257257 -1.80941
-0.812729 0.250604 -1.1922
-0.833794 0.705 1.914
0 0.372472 1.91209
-0.797524 0.359142 1.28175
0 0.705449 -1.99281
-0.866401 0.803074 -1.2858
0 1.08072 1.86548
-0.82006 1.02339 1.19099
0.766716 0.437634 -1.86055
0.812329 0.251004 -1.19407
0.832768 0.705 1.91188
0.797432 0.359235 1.2803
0.866552 0.799275 -1.29428
0.818963 1.02151 1.18861
-0.843876 0.266124 0.044775
-0.876343 0.566802 -0.620157
0.000133537 0.223496 -0.574593
-0.896055 0.633266 0.617527
-0.000498476 0.252222 0.662483
-0.861734 0.931738 -0.047405
-0.000295218 1.2757 -0.67008
-0.000413658 1.53834 0.56984
0.843135 0.266865 0.043115
0.870958 0.564793 -0.624517
0.892436 0.63256 0.614797
0.860934 0.928568 -0.052835
-0.880195 0.503403 -1.239
0.882641 0.501213 -1.24417
6.67685e-05 0.215997 -1.19313
-0.000147609 1.02929 -1.29004
0 0.438819 -2.01167
-0.892811 0.600034 -0.001315
0.888536 0.598677 -0.00485998
-0.00018247 0.227223 0.043945
-0.000354438 1.49976 -0.05012
-0.893803 0.669133 1.23637
0.894221 0.66878 1.23445
-0.000249238 0.30233 1.28102
-0.000206829 1.51996 1.1898
0 0.705 2.02305
-0.773237 0.347502 -1.83
-0.3925 0.257821 -1.80835
-0.801266 0.250401 -1.50144
-0.806288 0.545 1.89901
-0.3975 0.370454 1.91444
-0.800085 0.368249 1.59099
-0.768372 0.532506 -1.88729
-0.3775 0.690653 -1.97433
-0.8465 0.74984 -1.5954
-0.790067 0.865 1.85777
-0.3775 1.07417 1.85915
-0.807506 1.04417 1.50059
0.3925 0.257819 -1.80935
0.771573 0.346317 -1.83232
0.801308 0.250359 -1.50336
0.3975 0.376207 1.90802
0.805235 0.545 1.89673
0.800059 0.368274 1.58959
0.3775 0.689272 -1.98032
0.762346 0.528951 -1.88926
0.845037 0.744033 -1.60464
0.3775 1.07438 1.85892
0.789833 0.865 1.85655
0.806901 1.04317 1.49897
-0.825327 0.249673 -0.882953
-0.842668 0.255665 -0.264468
-0.857958 0.408502 -0.596933
-0.433276 0.205073 -0.574152
-0.859754 0.285246 0.972503
-0.844198 0.277468 0.354018
-0.866833 0.462104 0.640393
-0.445551 0.22576 0.662872
-0.876892 0.846898 -0.976203
-0.878431 0.724438 -0.64338
-0.869176 0.905847 -0.357004
-0.525837 1.25242 -0.668342
-0.832868 1.00287 0.881393
-0.873233 0.808495 0.59466
-0.854112 0.957448 0.262194
-0.543198 1.50164 0.570817
0.824406 0.250594 -0.884773
0.415077 0.241872 -0.575035
0.841676 0.256657 -0.266181
0.854466 0.407831 -0.599997
0.86022 0.28478 0.971003
0.425772 0.263823 0.662095
0.843073 0.278594 0.352411
0.863482 0.462771 0.638252
0.874655 0.841106 -0.983918
0.525314 1.25068 -0.671818
0.875239 0.721456 -0.649037
0.868422 0.902328 -0.363196
0.832086 1.0009 0.878248
0.544256 1.5042 0.568863
0.870297 0.806582 0.591342
0.853194 0.954555 0.257526
-0.87308 0.471703 -1.5481
-0.384683 0.439411 -1.99714
3.33843e-05 0.250847 -1.50127
0 0.348038 -2.00736
-0.871247 0.377003 -1.2156
-0.406331 0.224398 -1.19266
-0.880388 0.687066 1.57519
-0.416897 0.705 2.02141
-0.000124619 0.333657 1.59656
0 0.538736 2.01356
-0.877324 0.514138 1.25906
-0.398887 0.257672 1.28138
-7.38044e-05 0.931956 -1.64143
0 0.572134 -2.02818
-0.888515 0.653238 -1.2624
-0.433274 1.01504 -1.28792
-0.000103415 1.36872 1.52764
0 0.892861 1.93014
-0.86957 0.846264 1.21368
-0.410133 1.51008 1.1904
0.871529 0.469424 -1.55236
0.383358 0.438226 -1.99738
0.873346 0.376109 -1.21912
0.406198 0.237274 -1.1936
0.883073 0.68689 1.57317
0.416384 0.705 2.02157
0.878421 0.514008 1.25738
0.398591 0.262248 1.28066
0.892345 0.650244 -1.26923
0.433202 1.01392 -1.29216
0.868163 0.845144 1.21153
0.409378 1.51013 1.1892
-0.861873 0.436314 0.02173
-0.440029 0.210673 0.04436
-0.891487 0.535102 -0.929578
-0.887808 0.583418 -0.310736
0.000100153 0.209693 -0.883863
-2.44662e-05 0.2231 -0.265324
-0.895507 0.61665 0.308106
-0.894472 0.651199 0.926948
-0.000340473 0.240315 0.353214
-0.000373857 0.278902 0.971753
-0.877143 0.765821 -0.02436
-0.556981 1.46762 -0.0487625
-0.000221413 1.12971 -0.98006
-0.000324828 1.40553 -0.3601
-0.000384048 1.53162 0.25986
-0.000310244 1.53715 0.87982
0.858368 0.436505 0.0191275
0.420768 0.24846 0.04353
0.889237 0.533003 -0.934345
0.882257 0.581735 -0.314688
0.892017 0.615618 0.304968
0.891271 0.65067 0.924625
0.873931 0.76322 -0.0288475
0.556635 1.46685 -0.0514775
-0.860739 0.362253 -1.52477
-0.883588 0.39353 -0.906265
-0.885731 0.688392 -0.95289
-0.875146 0.592872 -1.57175
0.860786 0.361213 -1.52786
0.874626 0.589598 -1.5785
0.890648 0.685455 -0.959131
0.883433 0.392514 -0.909559
-0.399416 0.244227 -1.50135
0.399349 0.250844 -1.50232
0.411538 0.210067 -0.884318
-0.411471 0.21863 -0.883408
-0.405387 0.924711 -1.61841
-0.435949 1.11661 -0.978131
0.435618 1.11484 -0.981989
0.405351 0.923323 -1.62303
-0.388592 0.34777 -1.97115
-0.381092 0.55232 -2.02648
0.380429 0.550543 -2.02662
0.387929 0.347177 -1.97137
-0.858733 0.422999 -0.287602
-0.866655 0.448058 0.331062
-0.875314 0.787221 0.28515
-0.878664 0.745568 -0.33387
0.855238 0.422757 -0.290435
0.893018 0.751555 -0.338942
0.871724 0.784706 0.281247
0.862484 0.448858 0.32869
-0.436548 0.208083 -0.264896
0.419555 0.241902 -0.265753
0.423978 0.254725 0.352813
-0.443309 0.217179 0.353616
-0.554238 1.38568 -0.358552
-0.55424 1.49293 0.261027
0.553804 1.49225 0.258693
0.55366 1.38414 -0.361648
-0.86622 0.486926 0.949725
-0.868907 0.529569 1.58309
-0.866159 0.855632 1.53789
-0.869181 0.826541 0.90417
0.864231 0.486933 0.947814
0.866519 0.825203 0.901436
0.865139 0.855072 1.53607
0.868871 0.529504 1.58138
-0.411361 0.238621 0.972128
0.410715 0.269342 0.971378
0.398046 0.285977 1.59307
-0.398193 0.291435 1.59377
-0.416095 1.52466 0.880606
-0.393817 1.35323 1.51412
0.393439 1.35382 1.51331
0.415304 1.52468 0.879034
-0.407199 0.541868 1.99929
0.406942 0.541868 1.99908
0.396942 0.87893 1.92619
-0.397199 0.87893 1.92596
-0.782002 0.301251 -1.82322
-0.58875 0.251265 -1.81466
-0.794105 0.251728 -1.65606
-0.796088 0.465 1.89506
-0.59625 0.372666 1.9124
-0.803634 0.370533 1.74561
-0.766636 0.578757 -1.9011
-0.56625 0.676632 -1.95847
-0.80719 0.693864 -1.7502
-0.776345 0.945 1.83779
-0.56625 1.06568 1.85076
-0.798504 1.05184 1.65539
0.58875 0.251256 -1.81616
0.780978 0.300658 -1.82518
0.79476 0.251074 -1.65801
0.59625 0.377865 1.90619
0.795542 0.465 1.89324
0.803596 0.37057 1.74424
0.56625 0.670059 -1.96295
0.763277 0.574609 -1.90673
0.803486 0.685618 -1.75982
0.56625 1.06578 1.85021
0.776127 0.945 1.83665
0.798077 1.05121 1.65415
-0.828199 0.252634 -0.728331
-0.838514 0.253986 -0.419089
-0.857454 0.325008 -0.585322
-0.629228 0.237366 -0.573931
-0.847711 0.291456 0.817881
-0.844582 0.282918 0.508639
-0.868847 0.36821 0.651827
-0.643 0.262684 0.663066
-0.881008 0.86768 -0.821403
-0.877747 0.802392 -0.654992
-0.872605 0.89261 -0.511804
-0.746117 1.1558 -0.667473
-0.8394 0.992735 0.726593
-0.872628 0.901513 0.583227
-0.850224 0.970227 0.416994
-0.69695 1.24801 0.571305
0.828493 0.252341 -0.730125
0.624365 0.247427 -0.575256
0.838687 0.253813 -0.420829
0.855933 0.324493 -0.587737
0.846695 0.292471 0.816355
0.640041 0.267355 0.661901
0.843437 0.284063 0.507059
0.867393 0.368683 0.649979
0.879828 0.863143 -0.828737
0.744787 1.15151 -0.672688
0.874138 0.798167 -0.661297
[...]
POINT_DATA 3682
SCALARS point_scalars float 1
LOOKUP_TABLE default
-132.826
-54.6337
12.4356
-44.7875
-135.725
-53.4633
19.8302
-42.2199
-43.9452
-43.288
-60.2236
-47.7122
-43.5675
-42.3039
-59.6275
-46.8828
-68.3054
-95.0729
-42.7683
-43.1366
-54.9012
-55.0626
-44.8135
-90.3689
-114.871
-43.7656
-41.1164
-54.9224
-49.3741
-44.8135
28.3378
-100.86
-59.1991
-46.0513
-51.129
-48.3155
-44.8135
12.0166
-60.4417
-90.3683
-61.4404
-46.3476
-45.6382
-42.3165
-27.8877
-150.733
-44.3495
-45.0316
-51.7627
-49.7647
-43.3073
119.06
-43.6505
-43.3073
155.198
-42.43
-42.9433
108.736
-34.792
-67.1113
-64.3609
-47.0659
-39.7472
-39.806
-27.8587
-153.067
-43.0925
-43.8609
-51.5797
-48.3694
-42.5263
119.379
-42.7171
-42.5263
154.456
-41.0663
-41.604
108.445
-34.693
-68.2718
-63.1581
-45.3306
-37.0199
-36.4586
-68.977
-120.151
-42.2642
-41.576
-53.8894
-53.8539
-43.6847
-3.22856
-113.275
-43.2174
-39.694
-53.6724
-47.8297
-43.6847
26.709
-101.468
-59.3258
-45.4228
-49.1728
-46.3647
-43.6847
7.10214
-62.9648
-87.9837
-60.7457
-43.9697
-42.1521
-39.6698
-6.39
-136.66
-56.5919
-48.3838
-46.6615
-46.0662
127.945
-67.7167
-34.2478
-46.6626
-1.34527
-58.5419
-46.4086
-43.2128
-69.4008
-45.1048
-42.1237
-47.4814
-50.7839
-42.6247
-46.6794
-52.8139
-9.86904
-68.2959
-42.2293
-46.6592
-41.39
-51.5944
-62.5223
-63.7922
-63.1691
-4.36347
182.091
-43.8268
-44.1726
-47.1954
-97.372
-47.0309
-46.1095
-47.8898
-50.1055
-42.1516
-48.9783
-151.31
-77.2566
-51.9655
-47.5264
-45.9546
-2.78212
118.857
-74.4678
-46.4892
-37.5816
-48.2397
-155.97
-35.6358
-78.986
-46.992
-50.604
-46.0448
125.345
4.73155
-73.6143
-34.1237
-44.1887
-46.3619
-53.0887
-42.1974
-44.8786
-49.8142
-56.896
-42.0202
-41.6334
-47.0277
-61.1067
-52.565
-54.5202
-25.1961
-46.2232
-44.5469
-50.482
-60.8136
-49.8209
-49.1258
-42.2468
-44.213
-56.972
-45.0748
-40.9261
-40.354
-60.9129
-24.7487
-51.7513
-54.4429
-45.2934
-60.8117
-43.4995
-49.6505
-87.3743
173.168
-82.2984
19.7428
-59.8912
-62.2431
-51.1389
-41.6628
-49.4047
-43.1168
-46.5965
-49.7226
-19.6621
206.56
-66.2813
-9.30394
-37.3182
-38.4126
-45.2767
-51.188
-86.356
172.815
-61.5951
-60.7914
-49.9943
-40.6719
-45.5564
-46.119
-67.5122
-9.73197
-43.8905
-50.1967
-41.842
-44.7549
-58.6705
-44.8741
-60.2307
-47.1543
-42.7705
-43.6524
-45.1131
-48.0112
-47.1186
-85.3775
13.4918
-55.1301
-81.2076
-59.5117
-41.6012
-44.9126
-58.5397
-44.2745
-41.8075
-42.0075
-48.2991
-84.8172
-85.5797
-55.3114
-61.5029
-83.5145
-85.1075
-84.5075
-62.1599
-54.7077
-81.9768
-83.1772
-58.993
-57.2997
-22.3359
4.3883
4.46354
-22.2488
0.449798
198.426
198.284
-0.83873
-42.6258
-41.6742
-45.3125
-48.9971
-42.1538
-50.2174
-44.3559
-40.6838
-45.4881
-45.5104
-44.809
-45.0447
-76.1061
-70.3362
-69.8523
-76.3682
-42.3851
-49.9258
-50.4185
-43.8253
-39.7759
-42.7783
-48.9382
-49.5115
-47.4172
-48.2063
-49.2412
-47.7895
-57.6285
-39.5098
-37.787
-57.0112
-43.4801
-42.8618
-37.6012
-39.8368
-69.0037
-173.746
-103.924
-54.4144
-50.1241
-51.739
14.3775
84.5443
-55.7793
-46.2118
-39.7325
-48.198
-178.779
-76.574
-105.663
-49.3166
-53.0134
-51.6478
88.7327
20.1267
-54.9594
-36.8817
-43.6249
-45.9529
-49.8992
-42.7195
-43.9403
-47.0868
-43.8044
-40.741
-40.7014
-45.8967
-66.7109
-56.1731
-56.9799
-90.1585
-46.9289
-45.5651
-49.4732
-52.8578
-49.5965
-47.2802
-42.305
-43.3598
-42.5466
-44.1336
-39.1804
-39.393
-65.5055
-89.9005
-55.0198
-56.3008
-45.965
-52.0851
-44.592
-48.7181
-24.0018
-6.15038
-110.036
97.2567
-135.804
-137.302
-102.023
-78.4997
-63.9739
-56.0747
-58.2836
-58.6271
-51.2531
-47.1754
-51.6535
-42.4046
-46.4764
-46.5385
-48.9728
-44.1932
-45.0121
-50.9548
-45.6971
-50.3622
125.759
128.625
-19.7243
185.649
-68.7748
-65.9509
-69.9176
-22.8202
-35.6797
-33.569
-35.8754
-36.0284
-47.1778
-46.8251
-46.2455
-51.9918
-11.5575
1.75132
-115.905
97.0484
-65.8813
-53.9615
-59.9099
-61.6231
-49.6752
-45.0139
-50.6354
-41.0548
-44.5096
-49.0308
-44.4547
-44.5962
-66.3478
-67.015
-71.4112
-23.5922
-45.8894
-45.2276
-44.7348
-49.9934
-41.9639
-41.1908
-41.2033
-42.6628
-45.8344
-49.7833
-51.978
-45.1202
-50.8648
-50.0738
-55.5224
-48.4833
-42.1554
-43.6802
-42.614
-43.1012
-46.2658
-46.5925
-46.4662
-49.3284
-53.6049
-52.1736
-48.5822
-65.9807
-11.6629
-11.4657
4.38391
-31.1288
-66.9457
-66.7027
-74.7992
-63.6344
-41.9386
-40.507
-40.8465
-43.5126
-45.0716
-48.8559
-51.7868
-44.8748
-40.9668
-42.6878
-41.5256
-41.7913
-53.0689
-52.4178
-47.6442
-65.1913
-75.6924
-61.3768
-64.4617
-59.0816
-75.5547
-62.9043
-65.5254
-59.2944
-69.2765
-62.3523
-62.6933
-64.8146
-12.4225
-5.99686
-5.97806
11.9245
183.724
146.491
199.12
183.579
-42.6633
-43.6962
-43.4136
-44.95
-42.486
-43.1357
-42.6386
-46.0743
-46.4547
-46.7246
-45.0552
-46.4442
-96.3362
-54.9758
-88.244
-96.2835
-48.728
-47.0544
-44.8436
-43.8482
-47.6215
-46.0286
-43.6147
-42.0573
-50.1613
-49.7991
-46.3811
-47.8839
-44.1218
-50.468
-49.8964
-54.7817
-41.9543
-43.2098
-39.3289
-41.7295
-118.941
80.7206
-104.718
-45.0914
-81.5962
-79.5109
-53.4113
-43.8855
-51.2877
-44.342
-49.0916
-46.2508
-103.125
148.712
-27.0108
180.981
-77.1936
-35.3641
-51.2416
-41.2376
-38.1741
-38.3477
-49.3809
-43.6769
-105.565
-47.238
-116.309
80.2188
-81.7935
-81.6562
-51.1906
-43.7757
-52.172
-42.9174
-48.9105
-47.2746
-25.4364
182.617
-105.845
151.285
-78.9268
-34.8279
-36.1889
-34.9759
-49.2907
-38.7588
-47.8044
-41.8081
-53.5859
-58.056
-41.7745
-43.68
-51.3268
-43.4063
-54.1128
-47.3778
-46.3963
-51.5087
-41.1272
-44.429
-41.5854
-41.8566
-46.1581
-47.1145
-61.9082
-23.0366
-56.1257
-50.1294
-51.3734
-72.6341
-7.13895
-50.7839
-44.1592
-51.5741
-45.0517
-44.2536
-46.9479
-58.6765
-65.2591
-59.518
-52.7691
-53.771
-54.4399
-46.6219
-41.3851
-44.0962
-51.0866
-42.8188
-45.0158
-50.2732
-44.6877
-48.4528
-40.14
-43.542
-40.3163
-40.1956
-62.3368
-23.6841
-6.86556
-49.9633
-55.174
-48.2073
-52.144
-72.2608
-43.4037
-50.6694
-64.5201
-58.6741
-44.3403
-43.0169
-46.101
-58.2531
-87.5016
-87.3192
110.722
180.23
-82.0024
-82.5113
24.6402
23.4286
-69.922
-57.0329
-68.3966
-61.7715
-50.5411
-51.5188
-43.2884
-39.9155
-49.7888
-49.0378
-43.2162
-42.9431
-50.0078
-47.4166
-51.6264
-47.9973
-19.711
-19.9095
201.917
201.966
-61.4385
-81.9363
-16.5058
2.89209
-38.1637
-37.0513
-38.1597
-38.9783
-48.6332
-44.4568
-54.037
-46.6167
-86.8005
-86.2397
179.611
109.974
-69.8225
-56.581
-69.4775
-62.8198
-50.3199
-50.0163
-42.8678
-37.7693
-49.953
-46.5085
-46.1301
-49.6953
-81.781
-62.7425
2.6554
-16.5137
-42.5921
-47.4587
-45.306
-53.2466
-41.9574
-41.7839
-44.7747
-44.0768
-56.915
-60.3583
-43.5058
-46.6627
-60.4984
-58.9872
-46.9571
-46.603
-42.1715
-43.9588
-42.5342
-43.8305
-45.3966
-45.6912
-47.5339
-47.6718
-47.0144
-47.6755
-81.2307
-76.8787
11.0349
11.0803
-56.5622
-56.3256
-79.2801
-79.0142
-59.2573
-58.941
-41.6503
-41.1619
-45.2451
-43.9139
-60.719
-56.4753
-42.9863
-47.2337
-43.0668
-41.19
-40.4943
-42.3562
-46.8812
-45.7977
-76.6502
-80.3426
-113.191
-67.5217
-72.6105
-116.021
-51.5692
-51.7347
-58.3504
-56.0854
-60.8694
-64.7139
-60.1021
-52.5404
-91.4657
-106.331
-78.1686
-85.7626
-112.929
-117.655
-72.8052
-68.1689
-94.2473
-84.042
-78.1781
-110.48
-59.6296
-52.1591
-60.8579
-66.1345
-51.873
-55.0571
-58.2219
-51.7151
-105.107
-102.089
-68.5745
-64.5504
-107.083
-68.132
-69.1977
-102.649
-52.6805
-55.1438
-64.5733
-57.9032
-52.4346
-61.1922
-64.1665
-55.552
-15.0946
-28.2331
-12.8222
-27.0412
-84.4191
2.21116
9.96727
-16.027
-83.9178
-16.0164
9.84887
2.42516
-12.8614
-26.097
-12.8443
-28.0995
25.0083
80.9704
144.104
-77.7081
147.665
185.525
195.279
120.767
150.022
122.955
195.149
185.838
23.0761
-79.0213
143.22
80.7031
-42.6637
-41.3143
-42.6076
-44.1663
-40.4949
-42.0328
-42.4649
-41.2065
-46.4608
-48.4225
-45.7714
-43.8339
-53.1357
-47.4154
-45.4252
-49.963
-42.0722
-43.6186
-42.107
-40.9814
-52.1435
-49.6962
-45.6588
-45.9839
-45.5746
-42.9709
-44.0261
-48.5909
-39.2291
-40.5294
-41.9831
-41.0499
-45.8713
-48.357
-46.2978
-43.2574
-45.0354
-44.0706
-46.2808
-47.8718
-42.9737
-46
-44.7178
-42.5375
-44.8154
-42.7371
-45.0229
-46.1904
-75.5294
-69.0358
-65.3261
-33.4976
-55.7941
-73.3556
-84.7203
-62.1043
-55.1801
-61.5681
-84.5348
-73.1194
-74.8326
-33.0237
-64.7691
-68.2836
-41.3807
-51.8218
-47.5161
-42.7802
-53.5091
-52.5502
-48.0844
-45.981
-50.9158
-47.8268
-48.3595
-52.0831
-44.964
-43.683
-43.406
-44.8362
-39.78
-41.1912
-46.6531
-51.3118
-43.8202
-42.961
-41.7406
-42.4584
-48.8304
-50.3993
-47.259
-46.5076
-52.2276
-45.3479
-46.9543
-51.7451
-47.0876
-47.6851
-50.0949
-49.8092
-47.2496
-47.9197
-46.9419
-48.8706
-50.1123
-50.2566
-49.6705
-47.3073
-48.7697
-46.1806
-49.5675
-50.2707
-51.7449
-49.9728
-54.8234
-62.9147
-39.905
-37.0504
-44.9973
-49.3522
-37.8429
-47.635
-44.2013
-35.6321
-50.8981
-62.6214
-54.4038
-49.1815
-45.0004
-44.1483
-43.2547
-43.8077
-44.089
-43.0758
-43.0894
-43.875
-37.5714
-35.3821
-38.3474
-39.2797
-40.5749
-41.4591
-39.4543
-36.9906
-102.121
-168.398
-139.918
-54.5007
-52.1554
-50.6481
13.2815
59.7759
-32.8854
-45.7514
-41.2931
-46.8472
-163.196
-107.313
-141.364
-51.3365
-53.2328
-50.2414
66.7856
21.716
-35.3492
-38.7203
-43.2409
-44.3848
-45.0851
-43.2276
-43.749
-45.7971
-43.3286
-41.8895
-41.4346
-44.6813
-62.6387
-58.3132
-58.6412
-69.9624
-47.1279
-46.7252
-48.641
-50.1218
-44.7896
-45.8868
-42.7847
-43.1876
-42.2621
-43.3915
-40.7065
-40.1247
-62.1049
-69.1983
-57.5698
-57.8877
-46.1609
-49.3147
-45.8044
-48.0186
-14.9118
-5.55836
-105.761
78.392
-136.266
-136.86
-116.186
-106.07
-58.2328
-57.6124
-57.3324
-55.0332
-49.9808
-47.2366
-50.7964
-43.6234
-46.569
-46.7539
-47.078
-45.653
-45.4935
-46.0645
-45.3576
-49.568
124.386
126.033
26.137
160.297
-69.1471
-66.9514
-71.1552
-47.866
-34.901
-33.8239
-35.1995
-34.4139
-46.9011
-46.8079
-46.1194
-48.2516
-5.82285
0.84061
-108.878
80.4983
-61.4301
-56.2464
-58.9861
-59.7906
-48.1675
-45.197
-48.942
-42.2688
-44.0415
-44.016
-43.8477
-43.6864
-68.914
-68.7772
-73.0295
-48.3621
-45.4182
-45.276
-44.6256
-46.4959
-42.0689
-41.5306
-41.0505
-42.5736
-46.4851
-48.5775
-48.9654
-46.1275
-50.9253
-50.5578
-52.6377
-49.4974
-42.3221
-43.291
-42.7056
-42.8282
-46.3368
-46.7182
-45.8761
-47.6042
-53.7776
-52.4316
-50.5186
-59.1991
-10.3333
-10.241
-2.15993
-20.3209
-68.0221
-67.895
-71.382
-65.7611
-42.2549
-40.9352
-40.7158
-42.9837
-45.6921
-47.694
-48.3909
-45.197
-41.1623
-42.2446
-41.4724
-41.4419
-52.4351
-52.8931
-49.0563
-58.7072
-67.8867
-61.9704
-63.3614
-60.2581
-68.1607
-63.2416
-64.691
-61.5595
-64.0674
-63.1964
-63.3687
-66.5844
-8.69179
-4.96771
-5.07676
4.37835
177.972
174.258
190.632
177.991
-43.2314
-43.7096
-43.706
-44.431
-43.1095
-43.5978
-43.2133
-45.2284
-46.804
-46.8627
-46.1576
-46.9663
-97.6853
-92.1494
-90.747
-97.666
-48.0822
-47.255
-46.2919
-46.0543
-47.0139
-46.2736
-45.3791
-44.69
-50.1744
-48.9383
-46.301
-47.8746
-47.0943
-50.1191
-49.8177
-52.5068
-41.9642
-43.2951
-39.4296
-41.882
-56.8042
-39.3467
-118.386
61.1994
-166.435
-137.381
-120.911
-78.5901
-87.6043
-70.1151
-80.0117
-77.9468
-53.116
-51.9451
-55.7223
-45.6443
-48.7908
-46.5076
-49.6512
-46.3742
-47.311
-44.7871
-47.8184
-45.6031
3.84736
-4.16775
-81.2231
94.9586
110.918
124.059
24.8975
149.66
-74.9
-74.5616
-76.5375
-53.7058
-46.7289
-46.4665
-50.9512
-42.3748
-38.7143
-36.5756
-38.0761
-37.7325
-47.6974
-47.9366
-48.7107
-46.3033
-171.593
-141.153
-123.204
-79.8453
-54.4352
-24.574
-133.036
63.4669
-88.9346
-72.2811
-81.1919
-80.0531
-48.296
-46.7041
-50.2748
-45.304
-51.7728
-50.3873
-54.4671
-44.468
-47.403
-44.7191
-47.7197
-46.4329
112.628
128.414
28.5414
153.167
10.7516
3.70043
-84.6778
96.8507
-71.5237
-76.1136
-75.1551
-53.1748
-35.4072
-33.5758
-35.7208
-33.9301
-44.1648
-44.2656
-48.6455
-40.2794
-45.6721
-46.2533
-46.9511
-44.3284
-53.033
-54.5226
-52.7156
-59.1919
-42.27
-42.339
-41.4059
-43.0758
-44.4435
-45.3257
-46.2367
-43.9726
-48.7341
-50.4712
-51.5409
-48.6418
-43.7381
-63.4993
-50.0409
-54.8472
-40.7476
-42.0843
-41.2482
-43.8913
-41.4214
-41.9087
-41.6761
-41.8553
-48.3384
-46.3565
-46.431
-47.2195
-66.8619
-61.5723
-62.2642
-56.4981
-54.1817
-51.1035
-53.8744
-51.3158
-55.6219
-54.2344
-52.7899
-61.8429
-59.7344
-14.8032
-14.5083
-34.0776
-46.7435
-46.3566
-45.0704
-48.5629
-44.9397
-44.0782
-44.8778
-44.3524
-49.8068
-51.0189
-48.4572
-55.3361
-55.0821
-64.8429
-62.6815
-60.0538
-51.592
-51.9612
-51.5018
-51.5109
-48.6047
-49.3651
-51.2003
-47.4876
-42.1699
-42.3893
-41.0368
-43.2597
-43.8573
-44.6191
-45.5873
-43.3436
-42.1461
-61.4779
-49.9254
-52.4379
-44.1897
-46.1601
-44.6731
-46.2759
-39.5234
-40.9792
-40.3097
-42.902
-40.1283
-40.6384
-40.1377
-40.4045
-66.1592
-62.5082
-62.0708
-56.0985
-59.8253
-14.3727
-14.0255
-34.0535
-53.2924
-50.0663
-53.0977
-50.1289
-55.2459
-53.9252
-52.9192
-61.3242
-45.819
-45.1361
-44.173
-47.5022
-54.5896
-64.6222
-61.6512
-59.7912
-43.9243
-43.0663
-43.8338
-43.2151
-49.0048
-50.1306
-47.5894
-54.8009
-99.745
-81.331
-87.0928
-87.5129
137.955
178.601
156.079
179.162
-91.3389
-74.9401
-82.0018
-82.2585
-36.0991
108.011
21.4682
20.7172
-59.2689
-60.7301
-63.6768
-58.1296
-61.4303
-60.5655
-62.918
-63.9269
-52.1763
-50.0063
-50.8657
-51.5056
-41.6288
-41.848
-42.9834
-40.0449
-49.3909
-49.703
-50.1303
-49.1136
-43.487
-43.0297
-43.1789
-43.0475
-46.397
-46.7987
-47.4067
-46.6968
-50.4389
-48.2941
-51.8376
-47.6544
-18.8121
-15.5172
-19.8469
-19.8426
200.091
205.144
201.953
202.042
-68.178
-65.1433
-62.3064
-72.2642
-14.5903
-7.16982
-14.0611
-3.41881
-36.6399
-41.3408
-37.6753
-37.053
-37.4534
-39.592
-38.4356
-38.7688
-45.6042
-44.7345
-47.1308
-44.7249
-51.8089
-50.7994
-52.4009
-49.145
-99.5748
-80.6822
-86.3248
-86.4929
137.956
178.208
179.183
156.058
-60.8148
-62.2404
-64.9455
-58.734
-62.4886
-62.0245
-65.7493
-61.1461
-51.4453
-49.0225
-50.496
-49.8204
-39.9429
-41.3305
-42.5805
-38.1387
-45.2955
-45.7525
-46.6393
-45.777
-43.8586
-48.006
-43.3594
-50.0213
-69.4934
-66.3974
-72.4371
-65.1686
-15.2654
-6.84815
-4.5404
-14.2465
-44.0668
-43.2977
-42.7968
-46.0071
-50.6318
-49.9829
-48.0159
-51.519
-41.5528
-42.1506
-41.8402
-41.8533
-43.1431
-46.033
-44.6284
-44.5865
-56.1258
-58.0335
-57.4243
-59.2442
-44.2151
-44.4279
-44.018
-45.7224
-58.4771
-62.2783
-60.4676
-59.8286
-47.7269
-46.7984
-47.1486
-46.9652
-42.6949
-42.7483
-42.6063
-43.3465
-43.4857
-43.3636
-43.0226
-44.0159
-47.0672
-45.0395
-45.1572
-45.6685
-49.2676
-47.8736
-48.4797
-47.8353
-48.0555
-46.0387
-47.2287
-47.4061
-75.8754
-91.7738
-87.4404
-81.7894
10.1162
13.7936
12.8804
12.9087
-47.2186
-63.9395
-55.261
-55.127
-78.3298
-84.4043
-80.7799
-80.6265
-61.7088
-57.116
-59.5154
-59.3561
-41.2261
-42.0351
-41.7685
-41.4175
-44.3234
-45.4909
-45.3556
-44.1773
-56.0796
-58.1341
-59.4119
-57.0101
-44.0725
-43.9816
-43.5955
-45.189
-41.7925
-41.9016
-42.6474
-41.4821
-41.8685
-42.0717
-41.2299
-42.2129
-48.6752
-47.7593
-47.611
-46.5585
-75.2954
-91.683
-81.0685
-86.721
-97.544
-83.5218
-86.3515
-77.883
-54.557
-56.4848
-55.8388
-56.1638
-62.0209
-58.5041
-62.0977
-60.2944
-92.6762
-79.8881
-85.8108
-84.8955
-96.288
-83.3676
-85.6886
-77.0753
-93.8124
-81.5972
-85.4825
-84.8929
-62.6262
-58.4176
-61.86
-61.0158
-53.8545
-56.6294
-55.1174
-55.6521
-91.916
-81.2996
-81.8597
-74.1409
-93.2188
-83.0123
-82.7384
-75.192
-56.4771
-58.2861
-60.3126
-60.214
-56.8418
-54.456
-59.4544
-58.4498
-25.2884
-27.5045
-20.4428
-18.1308
-2.57659
-0.201567
6.74262
8.38488
-2.69111
-0.0311267
6.99094
8.43007
-25.0714
-27.05
-20.6773
-18.3021
32.8649
-12.3109
41.6858
23.6218
188.208
198.651
191.292
199.742
199.541
188.458
199.929
190.819
-14.4461
31.5089
22.7727
41.5219
-42.2156
-42.9074
-42.2524
-42.993
-41.4741
-41.3581
-41.4939
-41.8506
-45.1943
-46.072
-44.4886
-46.1187
-49.5322
-50.1165
-47.7453
-48.5337
-41.7992
-42.4074
-41.5887
-42.4531
-49.0764
-51.2266
-49.1157
-49.5744
-44.3822
-45.1858
-43.5365
-45.0165
-40.4811
-40.4384
-40.9102
-40.955
-44.4186
-46.2807
-45.081
-46.5565
-45.9854
-44.9054
-46.0761
-45.2379
-44.9488
-44.1504
-45.538
-44.2224
-44.0389
-45.8796
-44.6207
-45.49
-92.2017
-63.8956
-72.9747
-60.0309
-63.2673
-67.8857
-73.9677
-76.1097
-67.4727
-62.7638
-75.7129
-73.6687
-63.7303
-91.5628
-59.8207
-72.8069
-44.207
-42.7257
-47.5446
-42.2547
-51.0967
-49.5709
-50.2384
-48.8344
-51.0766
-49.8879
-51.1093
-49.4879
-43.9303
-44.0503
-43.7603
-43.7004
-41.9534
-40.7599
-46.7079
-39.8173
-42.996
-42.8741
-42.7191
-42.5358
-49.4567
-48.4314
-49.7385
-48.1868
-50.3251
-49.1453
-49.8022
-48.2375
-49.6171
-47.3337
-48.5171
-46.2649
-49.6139
-48.0984
-47.6374
-47.7834
-50.422
-48.3362
-50.1457
-48.7712
-48.2126
-46.9998
-48.6308
-48.5619
-55.8605
-59.542
-55.8049
-58.6828
-38.5001
-41.0912
-38.7848
-44.8006
-36.7523
-39.2349
-37.2836
-43.2265
-55.0855
-58.9509
-55.1111
-58.2135
-43.6492
-43.6712
-43.4235
-43.2589
-42.9656
-42.8461
-42.8192
-42.9207
-36.2758
-37.7159
-37.8863
-38.3255
-40.3632
-39.0864
-40.3387
-39.2465
-133.891
9.21145
-129.289
-45.2855
-108.044
-104.161
-56.4437
-46.8385
-48.5874
-48.84
-53.9043
-49.2043
-61.0032
95.6417
35.3985
116.915
-72.0942
-24.8849
-49.5704
-42.014
-39.4061
-40.2782
-50.1032
-43.2654
-131.433
-46.4335
-138.564
14.2109
-108.826
-105.792
-49.8605
-46.8429
-55.3181
-45.5856
-52.9782
-50.3241
37.8866
123.008
-56.6311
98.6443
-73.1328
-26.5104
-37.1594
-36.9959
-47.1906
-39.4452
-47.8947
-41.0207
-51.249
-50.9575
-42.8685
-44.6812
-44.7839
-42.9749
-47.9963
-46.3519
-42.6707
-46.8368
-39.8503
-43.5401
-40.0621
-41.4675
-45.6321
-46.4637
-64.2708
-78.6361
-58.0592
-54.6572
-55.0336
-64.5786
-85.2526
-87.5534
-46.0671
-49.086
-46.0014
-44.9133
-47.9056
-52.679
-53.8601
-52.2789
-50.6125
-52.3162
-48.9059
-45.9091
-42.5038
-43.9866
-44.428
-42.3748
-41.2011
-46.119
-43.2227
-45.546
-38.5466
-41.6877
-38.7612
-40.0126
-63.1904
-78.1471
-85.2411
-85.7642
-56.6637
-53.3861
-54.3858
-64.1992
-45.0361
-48.1995
-53.1529
-51.4503
-44.983
-43.9655
-47.0011
-52.0429
-114.143
71.3158
-100.176
80.8589
-112.872
-107.711
83.8793
108.661
-116.095
-111.929
-116.93
-113.02
-101.919
-102.238
-82.5219
-83.1706
-66.9297
-62.4855
-55.6403
-58.8743
-61.7444
-56.9556
-58.1601
-62.7482
-53.0837
-45.16
-51.4306
-42.3715
-51.6437
-52.0195
-43.4643
-41.2455
-47.8707
-45.7892
-48.6051
-45.3924
-49.6455
-48.8736
-44.2095
-44.0679
-45.2055
-45.1914
-52.1052
-49.1461
-46.5169
-45.6407
-52.5287
-47.3816
24.6733
160.59
24.9686
162.265
-22.6118
-22.2685
179.78
180.18
-80.001
-45.5293
-66.6943
-43.0313
-66.6664
-77.4399
-27.2244
-18.9285
-36.7151
-35.7897
-35.0683
-33.7336
-36.4833
-35.6298
-35.5726
-36.3804
-46.892
-49.1266
-46.2386
-47.6383
-46.4638
-47.2738
-48.622
-52.8967
-127.324
72.8761
-100.909
83.7497
-116.881
-113.387
110.377
83.4089
-67.3963
-66.4382
-54.303
-55.8363
-63.0193
-57.2508
-64.281
-59.8846
-51.7519
-44.1298
-49.2244
-40.377
-50.7218
-50.7174
-42.6877
-39.1372
-44.6421
-45.2386
-51.0035
-48.5124
-45.1559
-44.6165
-44.1693
-47.8138
-78.0938
-45.6203
-68.1627
-42.9777
-78.064
-69.303
-19.2623
-27.819
-45.9671
-47.4664
-44.472
-46.3302
-44.1371
-45.1316
-51.3868
-47.1752
-41.7056
-42.6909
-41.0051
-41.9359
-41.3345
-41.2239
-43.2119
-42.3455
-47.5297
-44.833
-51.1921
-48.3567
-51.6712
-51.9066
-44.5279
-46.1148
-52.7085
-49.4137
-51.7447
-48.9489
-55.3936
-55.5696
-48.4921
-48.2756
-42.3667
-42.4005
-43.9771
-43.7562
-42.2719
-43.3056
-42.944
-43.2618
-45.7127
-47.1724
-45.6124
-47.5401
-46.5384
-46.4874
-48.9592
-49.1826
-51.3373
-60.5429
-50.561
-57.0597
-48.5966
-49.5275
-67.4551
-63.9617
-3.74464
-22.6535
-3.45013
-22.3628
3.65114
3.77346
-31.7976
-31.5486
-70.043
-64.6941
-69.7974
-64.427
-74.5758
-74.4673
-63.496
-63.3514
-41.4815
-43.0872
-40.2382
-41.4769
-41.0336
-40.707
-44.2802
-42.4675
-46.9137
-44.1359
-50.4797
-46.7543
-51.5524
-51.6031
-44.2085
-45.5087
-40.9252
-41.0574
-42.8365
-42.5674
-42.2654
-41.1058
-41.447
-42.1666
-51.3092
-59.9346
-50.7533
-56.5624
-49.1392
-48.2558
-63.3735
-66.7785
-74.2361
-77.0179
-65.7243
-59.4494
-61.2455
-70.4454
-58.6685
-59.6116
-74.383
-76.7902
-66.3401
-60.6011
-70.0629
-63.2179
-60.0474
-58.7352
-68.9794
-69.2901
-63.0358
-66.2733
-63.9066
-66.1951
-64.8922
-64.619
-12.2625
-12.2791
-9.87902
2.73606
2.66032
-9.93336
11.4564
11.3631
172.897
190.793
125.805
125.198
196.107