# vtk DataFile Version 2.0
tri_press
ASCII
DATASET UNSTRUCTURED_GRID
POINTS 3682 float
-0.759109 0.245 -1.845
-0.675 0.455 2.16804
-0.705 0.514334 -2.145
-0.655 0.741835 2.185
0.759109 0.245 -1.845
0.675 0.455 2.16804
0.705 0.514334 -2.145
0.655 0.741835 2.185
-0.798896 0.247177 -0.50732
-0.788827 0.29921 0.83036
-0.858868 0.760702 -0.701667
-0.817528 0.811863 0.741667
0.798903 0.24717 -0.50732
0.788788 0.299248 0.83036
0.859042 0.760877 -0.701667
0.817496 0.811831 0.741667
-1.57246 -0.0577688 -2.86748
-1.56841 0.0201846 -1.75502
-1.58951 0.0404844 -0.420069
-1.55736 0.0866185 0.893616
-1.46899 0.203249 2.22677
-1.44823 0.265841 3.33046
-1.4583 0.307139 4.45038
-1.56596 0.13489 -2.97949
-1.56521 0.239287 -1.85549
-1.60555 0.275659 -0.499987
-1.55568 0.305572 0.846009
-1.42683 0.399253 2.19949
-1.42023 0.458727 3.30467
-1.44425 0.502631 4.42115
-1.5448 0.485602 -3.23318
-1.54149 0.590524 -2.11355
-1.64033 0.759501 -0.686018
-1.57952 0.790579 0.749
-1.42362 0.761666 2.17451
-1.41985 0.820471 3.27532
-1.44746 0.884885 4.37476
-1.53959 1.14212 -3.53428
-1.54596 1.25803 -2.39882
-1.58524 1.41355 -0.937032
-1.59289 1.48174 0.547527
-1.55396 1.47755 2.00821
-1.52475 1.49017 3.14136
-1.51269 1.53023 4.25234
-0.791305 -0.0572803 -2.86066
-0.770542 0.0230788 -1.74507
-0.791534 0.0248658 -0.421403
-0.791061 0.0829709 0.88026
-0.7349 0.234838 2.20342
-0.71772 0.286616 3.31462
-0.72329 0.316908 4.44121
-0.790377 0.127846 -2.97739
-0.694415 0.478113 3.2916
-0.712805 0.510298 4.41423
-0.769647 0.4528 -3.24625
-0.692939 0.816169 3.27742
-0.716116 0.882956 4.37521
-0.749329 1.12372 -3.54719
-0.74527 1.2428 -2.41305
-0.784779 1.41458 -0.945612
-0.814822 1.48698 0.548556
-0.801344 1.47357 2.01556
-0.779115 1.48317 3.1487
-0.766785 1.52443 4.25767
0.753161 -0.0572603 -2.86066
0.779117 0.0230886 -1.74507
0.797787 0.0248722 -0.421403
0.767766 0.082998 0.88026
0.69394 0.234849 2.20342
0.709716 0.286625 3.31462
0.729204 0.31692 4.44121
0.735166 0.127863 -2.97739
0.703174 0.478119 3.2916
0.726477 0.510308 4.41423
0.728474 0.452823 -3.24625
0.695253 0.816173 3.27742
0.721313 0.882965 4.37521
0.812318 1.12376 -3.54719
0.833001 1.24286 -2.41305
0.822495 1.41464 -0.945612
0.763686 1.487 0.548556
0.712342 1.47358 2.01556
0.708908 1.48318 3.1487
0.720091 1.52445 4.25767
1.53662 -0.0577165 -2.86748
1.56437 0.0202324 -1.75502
1.59233 0.0405238 -0.420069
1.55179 0.0866598 0.893616
1.45856 0.203277 2.22677
1.45019 0.265865 3.33046
1.46814 0.307164 4.45038
1.52098 0.134944 -2.97949
1.55415 0.239348 -1.85549
1.60531 0.275714 -0.499987
1.56505 0.305607 0.846009
1.44158 0.399275 2.19949
1.43655 0.458746 3.30467
1.46096 0.502654 4.42115
1.51534 0.485671 -3.23318
1.53931 0.59062 -2.11355
1.64347 0.759663 -0.686018
1.58666 0.79059 0.748999
1.43411 0.761677 2.17451
1.429 0.820486 3.27532
1.45586 0.884905 4.37476
1.59321 1.14222 -3.53428
1.616 1.25815 -2.39882
1.61678 1.41366 -0.937033
1.55688 1.4818 0.547526
1.48681 1.47758 2.00821
1.46791 1.4902 3.14136
1.47283 1.53026 4.25234
-0.682578 0.379667 -1.94552
0 0.239293 -1.85071
-0.771184 0.253907 -1.17616
-0.683375 0.598418 2.1949
0 0.403499 2.21954
-0.784238 0.32478 1.4992
0 0.586544 -2.21721
-0.823 0.678584 -1.42333
0 0.793064 2.23623
-0.787084 0.827669 1.46333
0.682525 0.379667 -1.94547
0.771253 0.253838 -1.17616
0.683328 0.598418 2.19485
0.784226 0.324793 1.4992
0.822976 0.67856 -1.42333
0.787065 0.82765 1.46333
-0.814634 0.25242 0.16152
-0.887675 0.503939 -0.604493
3.50082e-06 0.188451 -0.50732
-0.892344 0.555536 0.786013
-1.94455e-05 0.21993 0.83036
-0.837326 0.78541 0.02
8.73283e-05 0.873377 -0.701667
-1.59104e-05 1.19368 0.741667
0.814648 0.252406 0.16152
0.887679 0.504023 -0.604493
0.892346 0.55554 0.786013
0.837327 0.785411 0.02
-0.821248 0.441803 -1.29975
0.82131 0.441845 -1.29975
1.75041e-06 0.211511 -1.17616
4.36641e-05 0.837244 -1.42333
0 0.379667 -2.23496
-0.894801 0.529738 0.09076
0.894803 0.529781 0.09076
-7.97234e-06 0.184842 0.16152
3.57089e-05 1.08256 0.02
-0.850006 0.576977 1.48127
0.850013 0.576979 1.48127
-9.72275e-06 0.288754 1.4992
-7.95522e-06 1.05591 1.46333
0 0.598418 2.26896
-0.650339 0.312334 -1.82476
-0.379555 0.239744 -1.85026
-0.684585 0.330015 -1.51058
-0.686897 0.526709 2.18918
-0.3375 0.413011 2.21003
-0.750321 0.369188 1.83362
-0.717069 0.447001 -2.06854
-0.3525 0.608734 -2.2394
-0.807222 0.639681 -1.78417
-0.674811 0.670126 2.19557
-0.3275 0.78609 2.22925
-0.737512 0.801222 1.82417
0.379555 0.242346 -1.84765
0.650328 0.312334 -1.82475
0.684615 0.329985 -1.51058
0.3375 0.413036 2.21
0.686921 0.526709 2.1892
0.750226 0.369283 1.83362
0.3525 0.608626 -2.23929
0.717148 0.447001 -2.06862
0.807207 0.639666 -1.78417
0.3275 0.786124 2.22929
0.67485 0.670126 2.19561
0.737526 0.801236 1.82417
-0.796298 0.239284 -0.84174
-0.812467 0.244097 -0.1729
-0.860109 0.367147 -0.555907
-0.393917 0.228872 -0.50732
-0.786482 0.312046 1.16478
-0.816411 0.261135 0.49594
-0.888347 0.403492 0.808187
-0.39652 0.255376 0.83036
-0.852828 0.731537 -1.0625
-0.889418 0.640394 -0.65308
-0.855361 0.780321 -0.340833
-0.45194 0.86214 -0.701667
-0.807509 0.824969 1.1025
-0.883433 0.697948 0.76384
-0.825516 0.796725 0.380833
-0.500199 1.18563 0.741667
0.796316 0.239266 -0.84174
0.393925 0.228866 -0.50732
0.81247 0.244094 -0.1729
0.860117 0.367184 -0.555907
0.786484 0.312043 1.16478
0.396395 0.255567 0.83036
0.816415 0.261131 0.49594
0.888316 0.40352 0.808187
0.852837 0.731546 -1.0625
0.452117 0.862231 -0.701667
0.889418 0.640479 -0.65308
0.855403 0.780362 -0.340833
0.807519 0.824979 1.1025
0.500178 1.18563 0.741667
0.883405 0.697927 0.76384
0.825513 0.796723 0.380833
-0.76872 0.410735 -1.62264
-0.341289 0.379667 -2.19321
8.75206e-07 0.217392 -1.51343
0 0.30948 -2.11751
-0.737471 0.347855 -1.23795
-0.385591 0.227674 -1.17616
-0.804987 0.587697 1.83808
-0.341688 0.598418 2.24811
-4.86138e-06 0.320372 1.85937
0 0.500958 2.27054
-0.829745 0.450879 1.49023
-0.392124 0.264449 1.4992
2.18321e-05 0.771653 -1.82027
0 0.483106 -2.36638
-0.829278 0.560194 -1.36154
-0.411478 0.815604 -1.42333
-3.97761e-06 0.930401 1.84978
0 0.695741 2.24659
-0.85593 0.702323 1.4723
-0.393546 1.04174 1.46333
0.768749 0.410756 -1.62261
0.341263 0.379667 -2.19382
0.737356 0.347842 -1.23795
0.385627 0.227671 -1.17616
0.804994 0.587698 1.83806
0.341664 0.598418 2.24809
0.829693 0.450886 1.49023
0.392108 0.264448 1.4992
0.829278 0.560203 -1.36154
0.41151 0.815609 -1.42333
0.856049 0.702314 1.4723
0.393529 1.04174 1.46333
-0.865436 0.38572 0.12614
-0.402924 0.227425 0.16152
-0.87014 0.472871 -0.95212
-0.894327 0.516839 -0.256867
2.62562e-06 0.196242 -0.84174
-2.23576e-06 0.185827 -0.1729
-0.896078 0.542637 0.438387
-0.864062 0.566256 1.13364
-1.37089e-05 0.174112 0.49594
-1.45841e-05 0.260013 1.16478
-0.892093 0.670589 0.05538
-0.457557 1.01181 0.02
6.54962e-05 0.865429 -1.0625
6.15186e-05 0.891792 -0.340833
9.89924e-06 1.20084 0.380833
-1.19328e-05 1.15808 1.1025
0.865452 0.385731 0.12614
0.402921 0.227423 0.16152
0.870106 0.472934 -0.95212
0.894338 0.516902 -0.256867
0.896056 0.542661 0.438387
0.864046 0.566259 1.13364
0.892096 0.670612 0.05538
0.457544 1.01171 0.02
-0.680176 0.330094 -1.56661
-0.851626 0.361707 -0.89693
-0.875024 0.596257 -1.00731
-0.820132 0.503597 -1.7034
0.680173 0.330088 -1.56659
0.820163 0.503602 -1.70339
0.875035 0.596326 -1.00731
0.851582 0.361719 -0.89693
-0.382573 0.238054 -1.51201
0.382591 0.238047 -1.51201
0.39254 0.215957 -0.84174
-0.392519 0.215957 -0.84174
-0.381989 0.751786 -1.80222
-0.420434 0.846389 -1.0625
0.420537 0.84637 -1.0625
0.382005 0.749726 -1.80222
-0.360422 0.310907 -2.04062
-0.346895 0.465053 -2.27522
0.346881 0.465053 -2.27521
0.360409 0.310907 -2.03952
-0.863346 0.376146 -0.214883
-0.868601 0.398751 0.467163
-0.886879 0.683826 0.40961
-0.896744 0.658486 -0.29885
0.863354 0.376172 -0.214883
0.896742 0.658538 -0.29885
0.886877 0.683833 0.40961
0.868611 0.398761 0.467163
-0.39939 0.226209 -0.1729
0.399391 0.226209 -0.1729
0.416319 0.208173 0.49594
-0.416336 0.208174 0.49594
-0.421684 0.870846 -0.340833
-0.524071 1.18911 0.380833
0.524066 1.18908 0.380833
0.421865 0.871041 -0.340833
-0.840643 0.439126 1.14921
-0.790487 0.488794 1.83585
-0.809723 0.686225 1.83112
-0.883391 0.693011 1.11807
0.840615 0.43914 1.14921
0.883239 0.693 1.11807
0.811824 0.68622 1.83111
0.790526 0.488797 1.83584
-0.393273 0.263396 1.16478
0.393246 0.263394 1.16478
0.364804 0.296678 1.8465
-0.364812 0.296686 1.8465
-0.401159 1.14615 1.1025
-0.360523 0.928202 1.83697
0.360514 0.928366 1.83697
0.401134 1.14616 1.1025
-0.339594 0.513833 2.26178
0.339582 0.513833 2.26184
0.334582 0.682933 2.23743
-0.334594 0.682933 2.23738
-0.602936 0.278667 -1.73309
-0.569332 0.267717 -1.82228
-0.675776 0.333578 -1.67779
-0.684603 0.490854 2.18226
-0.50625 0.42378 2.19926
-0.719839 0.404915 2.00083
-0.702379 0.480667 -2.09811
-0.52875 0.575725 -2.20639
-0.761177 0.582074 -1.96458
-0.664997 0.705981 2.19038
-0.49125 0.771175 2.21434
-0.700551 0.775824 2.00458
0.569332 0.268772 -1.82123
0.602754 0.278667 -1.73291
0.675832 0.333523 -1.67779
0.50625 0.423807 2.19923
0.684446 0.490854 2.18211
0.719848 0.404907 2.00083
0.52875 0.57576 -2.20643
0.702417 0.480667 -2.09815
0.761211 0.582107 -1.96458
0.49125 0.771082 2.21425
0.665045 0.705981 2.19042
0.700542 0.775815 2.00458
-0.799868 0.240959 -0.67453
-0.807378 0.24394 -0.34011
-0.836816 0.303505 -0.531613
-0.604344 0.22215 -0.50732
-0.788853 0.304429 0.99757
-0.814264 0.268526 0.66315
-0.83179 0.354749 0.819273
-0.597641 0.267357 0.83036
-0.85555 0.745822 -0.882083
-0.875566 0.701259 -0.677373
-0.85599 0.769387 -0.52125
-0.677019 0.85465 -0.701667
-0.810311 0.816209 0.922083
-0.853211 0.75627 0.752753
-0.822543 0.805315 0.56125
-0.665209 1.01144 0.741667
0.799839 0.240988 -0.67453
0.604348 0.222151 -0.50732
0.807373 0.243945 -0.34011
0.836824 0.30352 -0.531613
0.788844 0.304438 0.99757
0.597541 0.267508 0.83036
0.814269 0.268522 0.66315
0.831772 0.354774 0.819273
0.855554 0.745826 -0.882083
0.677409 0.855212 -0.701667
0.875534 0.70133 -0.677373
0.856041 0.769438 -0.52125
0.810311 0.816208 0.922083
[...]
POINT_DATA 3682
SCALARS point_scalars float 1
LOOKUP_TABLE default
-76.2245
-33.2382
47.4346
-29.9794
-75.4659
-33.1858
46.3595
-29.9221
-39.2073
-46.3973
-27.9465
-48.2476
-39.8858
-46.3914
-27.9932
-48.247
34.473
-56.3224
-35.4442
-49.1557
-35.7605
-31.2076
-29.1001
34.473
-60.6218
-34.4265
-49.4519
-37.179
-31.2076
-29.1001
34.473
-65.7833
-29.8008
-43.2915
-37.179
-30.3151
-29.4264
70.9657
-19.4429
-24.4497
-48.6079
-35.3582
-30.2564
-29.0338
109.086
-75.8449
-37.6059
-54.1488
-33.8421
-27.4161
-26.0376
135.313
-26.0376
-26.0376
174.078
-26.0376
-26.0376
158.587
15.0598
-26.298
-80.8062
-32.0373
-28.2731
-26.0376
107.182
-76.7169
-37.6098
-38.6785
-33.7213
-27.3958
-25.9822
139.641
-25.9822
-25.9822
174.021
-25.9822
-25.9822
156.145
8.79359
-26.45
-79.9463
-31.9048
-27.6331
-25.9822
33.3253
-56.2106
-35.471
-49.0846
-35.4066
-31.1588
-29.0297
33.3253
-60.6224
-34.4454
-48.4008
-37.1116
-31.1588
-29.0297
33.3253
-65.8031
-29.8388
-43.2559
-37.1116
-30.2551
-29.3707
69.8017
-19.3313
-24.4391
-72.8654
-35.329
-30.1962
-28.9753
-47.8196
-78.5145
-20.5262
-31.2393
-28.6694
-36.8031
125.204
-33.0311
-24.5886
-41.3475
-47.6356
-20.5405
-31.1585
-36.7736
-33.0784
-41.3149
-35.6907
-33.2855
-37.0429
-44.6974
-42.5518
-37.492
-9.70283
-72.2477
-35.686
-33.3061
-44.8327
-37.5436
-22.4996
-22.5376
-39.7155
-36.0312
74.0018
-36.1119
-36.1068
-37.3409
9.80587
-38.72
-38.6833
-36.0919
-37.3823
-22.7419
-73.3661
-99.2573
-39.9199
-31.9908
-30.2025
-39.3999
-17.7301
54.7996
-55.2934
-30.5356
-26.1868
-34.4042
-96.4988
-72.2627
-39.904
-30.1659
-31.9171
-39.352
54.5932
-17.9011
-55.2219
-26.102
-30.4739
-34.4243
-43.3954
-36.5536
-35.8437
-36.0159
-34.6318
-37.0736
-49.5645
-41.5844
-31.9285
-30.321
-25.1715
-16.0346
-43.8547
-43.8177
-50.7023
-68.3961
-43.0333
-36.0154
-36.5921
-35.8626
-34.5943
-41.6206
-37.0451
-49.7595
-31.7917
-16.0456
-30.3473
-25.2004
-43.9337
-68.4
-43.7735
-50.5917
-45.4213
14.1737
-54.7723
-49.1744
-22.2131
-37.6132
-37.2531
-27.4826
-34.867
-25.5522
-38.0834
-36.3447
-32.1484
187.341
-26.7035
-36.8481
-28.7704
-20.4466
-40.1553
-38.3194
-45.4478
16.0419
-22.2272
-37.7554
-37.2034
-27.4313
-38.0487
-36.3527
-26.7584
-36.8914
-40.1178
-38.3307
-35.5965
-36.9381
-32.3434
-33.3644
-38.1347
-37.4354
-39.1666
-38.1664
-43.5383
-36.0616
-37.3058
6.67742
-27.1241
9.87679
-95.5971
-52.7741
-35.5915
-36.9472
-32.1662
-33.3713
-39.1471
-38.159
-37.3012
6.67797
-45.3835
-47.8873
-27.7169
-52.5907
-45.3659
-52.576
-27.1278
-47.8463
-49.7331
-49.7984
-37.0302
-36.9542
-27.7098
-28.8391
-28.8407
-26.8439
-33.4376
169.173
168.041
-34.929
-34.4876
-37.6426
-42.7168
-31.4482
-34.4978
-31.4556
-42.6995
-37.596
-37.2754
-37.2935
-42.9305
-42.9247
-1.10434
-99.1703
-99.0703
-1.19402
-36.3261
-38.0577
-34.6073
-40.098
-36.3073
-40.1041
-34.5725
-38.0006
-35.0645
-34.9708
-37.6567
-37.7016
-52.6244
-29.8075
-29.787
-52.6104
-28.2708
-28.2311
-26.5661
-26.6477
-81.9991
-95.3881
-63.3065
-32.6947
-31.1003
-36.1422
9.84162
89.4904
-20.1289
-30.4014
-27.6221
-31.4145
-91.6691
-82.7591
-63.2452
-31.0474
-32.6329
-36.092
89.5418
9.14118
-19.7621
-27.5687
-30.3417
-31.3188
-33.9908
-36.6722
-36.6844
-37.9347
-35.6763
-36.4894
-50.1099
-41.1836
-29.6088
-28.8713
-24.7066
-21.3973
-46.5005
-45.1804
-50.5714
-56.6615
-34.1493
-37.9135
-36.9064
-36.6788
-35.6474
-41.1692
-36.4628
-49.7555
-29.6235
-21.4889
-28.9161
-24.7146
-46.5063
-56.638
-45.1344
-50.6209
-65.3425
-41.7042
-66.0001
-2.95365
-83.3614
-82.5891
-69.4007
-68.6872
-28.222
-5.43562
-28.5004
-30.7335
-31.6182
-30.8776
-35.9009
-27.6753
-29.0771
-29.055
-32.3869
-26.9459
-42.0675
-34.5294
-37.8647
-36.382
76.1169
75.9152
-32.0539
171.82
-46.9327
-23.4922
-29.7548
-40.9596
-24.4389
-24.7087
-26.6812
-20.2702
-38.0979
-43.1472
-40.8446
-40.614
-64.06
-41.7869
-65.755
-3.5106
-28.2282
-5.43895
-28.603
-30.7829
-31.5369
-30.7925
-35.836
-27.6384
-42.0441
-34.5117
-37.8327
-36.3706
-46.9228
-23.4892
-29.8037
-40.9922
-38.0434
-43.1448
-40.8061
-40.568
-37.9461
-35.2585
-35.4265
-36.2512
-34.8106
-32.1958
-35.3235
-33.0324
-37.0976
-37.0853
-37.1964
-37.567
-46.1942
-43.7149
-41.4685
-39.9277
-42.1536
-42.1048
-47.1503
-37.8618
-28.0277
-49.8031
-38.3018
-17.1014
-11.2133
-11.215
-18.5993
0.220611
-72.4593
-72.4718
-84.1655
-61.8135
-37.7181
-35.2532
-35.4188
-36.2555
-34.8222
-32.2118
-35.3528
-33.0445
-46.4625
-43.6365
-41.449
-39.813
-28.027
-49.9404
-38.304
-17.0145
-31.249
-22.4628
-24.2131
-17.1539
-31.2539
-22.4745
-24.2706
-17.2004
-44.9363
-39.2052
-39.3005
-35.704
-36.4766
-36.1309
-36.1397
-33.015
103.585
36.4934
163.82
94.4813
-35.8595
-34.3494
-37.85
-36.5839
-35.8523
-34.3549
-37.8376
-36.5796
-37.5167
-37.3482
-37.8141
-37.5471
14.0435
21.5573
-69.6749
14.0116
-39.2329
-38.4218
-39.2916
-37.7335
-39.1987
-38.3881
-39.2582
-37.7127
-36.0767
-37.1493
-37.1823
-35.6082
-32.2971
-37.6756
-37.6683
-44.2782
-23.0075
-24.0878
-21.6146
-22.9426
-70.9678
-14.1941
-71.4009
-52.5091
-42.6337
-45.1441
-35.459
-28.504
-34.1542
-28.9472
-38.4864
-39.233
-69.3863
89.6006
-19.2779
196.123
-59.5254
-16.166
-36.9831
-27.8495
-27.3614
-26.0785
-35.0301
-31.6291
-71.7819
-52.128
-71.0182
-15.1247
-42.6174
-45.1638
-34.1173
-28.9044
-35.4
-28.4689
-38.4296
-39.2154
-19.6691
196.062
-69.5448
89.3203
-59.4614
-16.0204
-27.3204
-25.9846
-36.9165
-27.8016
-35.0474
-31.6047
-49.3695
-34.8547
-35.2568
-37.3985
-37.8427
-34.9592
-36.749
-38.9501
-35.31
-34.6292
-37.4086
-40.565
-36.9786
-37.5515
-46.8818
-36.8496
-30.1632
-30.2211
-32.6875
-30.0844
-29.6757
-12.7406
-21.8176
-8.37986
-41.5355
-50.607
-44.0995
-41.7565
-45.976
-70.6616
-80.7005
-59.8865
-48.8527
-34.8647
-36.7738
-38.9486
-35.2665
-37.4077
-37.849
-34.978
-35.2757
-34.5766
-46.9038
-36.8125
-37.3375
-40.5572
-37.0317
-37.5529
-29.6793
-30.2102
-21.8295
-8.3718
-32.7501
-30.0972
-29.6965
-12.76
-41.4888
-50.5817
-80.6802
-59.879
-44.0863
-41.7654
-45.9468
-70.7744
-45.9721
-47.6731
-34.2893
109.057
-53.5524
-53.6238
-43.7724
-44.5922
-31.6928
-5.4877
-39.5473
-34.2278
-37.7447
-35.8103
-27.796
-27.3141
-35.4679
-35.4953
-25.842
-25.8137
-36.4682
-40.4094
-34.8802
-38.5241
-30.4331
-30.3269
175.466
175.348
-22.6911
-35.0527
-33.2707
-35.1416
-29.1154
-29.1024
-22.3192
-22.4298
-38.5865
-39.412
-44.7915
-33.3781
-45.9099
-47.5956
106.88
-35.7578
-31.705
-5.53913
-39.6245
-34.2972
-35.8495
-37.6537
-27.7495
-27.262
-36.4566
-40.3733
-34.8755
-38.5403
-35.0745
-23.075
-35.1339
-33.3934
-39.3984
-38.5483
-33.3639
-44.9824
-35.1213
-36.2906
-38.0158
-36.5658
-41.334
-28.5182
-34.1152
-32.5809
-38.3267
-38.3012
-37.4171
-37.4486
-38.1691
-40.5701
-37.2299
-39.0318
-42.4604
-42.4241
-35.6011
-35.5326
-41.2964
-33.0836
3.99919
-13.5523
-27.6153
-27.6182
7.07727
7.18582
-97.0083
-97.0477
-52.6402
-52.6312
-35.1258
-36.2847
-38.0211
-36.5893
-28.3962
-41.2221
-34.1249
-32.5882
-40.5536
-38.1429
-37.2176
-39.0333
-33.0887
-41.2759
-13.4562
3.97598
-70.5492
-30.6943
-31.8302
-70.8183
-38.3467
-36.5668
-11.1397
-16.1139
-31.0513
-22.3106
-21.4869
-33.983
-63.1635
-65.6972
-31.1387
-40.0518
-70.8024
-70.5665
-31.8233
-30.7104
-62.9414
-40.0568
-31.1597
-65.5968
-31.0939
-34.0447
-21.4746
-22.5582
-38.3776
-16.122
-11.4546
-36.5691
-69.23
-69.5138
-43.597
-33.3732
-69.439
-33.4384
-43.6779
-69.4162
-35.7246
-37.2283
-35.0987
-33.8867
-35.5732
-33.8585
-35.0548
-37.2297
-12.8509
-31.2614
-35.8081
-20.6471
-25.6664
-19.5563
-33.5321
-38.7939
-25.636
-38.7699
-33.5378
-19.5533
-12.8853
-20.3538
-35.7866
-31.2136
-24.2863
-18.861
7.132
-65.5715
134.132
197.279
137.877
35.6529
134.274
35.307
137.671
197.295
-27.6637
-65.0388
14.4101
-19.7687
-35.5029
-35.3584
-34.805
-34.2265
-33.7218
-40.3259
-36.9715
-35.5547
-46.8477
-44.3789
-39.2163
-42.4024
-28.0651
-31.6233
-33.9095
-32.1721
-35.5143
-34.2431
-34.8091
-35.3661
-28.0603
-32.1739
-33.9138
-31.6463
-46.8775
-42.3851
-39.2
-44.3483
-33.734
-35.5515
-36.9629
-40.3123
-39.3592
-37.952
-37.5149
-39.1324
-39.3861
-39.139
-37.5041
-37.9465
-49.5872
-46.9974
-37.8236
-35.1583
-49.5349
-35.1591
-37.832
-46.9342
-15.7367
-11.9507
18.5155
-2.47122
-61.9771
-84.3724
-60.4802
-56.6447
-61.9264
-56.7549
-60.2898
-84.3652
-15.7373
-2.45887
18.622
-12.0878
-36.7013
-35.7113
-36.8862
-38.6348
-35.7014
-35.5471
-39.8904
-40.8947
-33.724
-38.4108
-38.8093
-37.0295
-43.9132
-41.3144
-38.3958
-41.3416
-36.6902
-38.569
-36.8738
-35.6958
-43.9192
-41.3398
-38.374
-41.3439
-33.6502
-36.954
-38.7805
-38.373
-35.6464
-40.853
-39.8488
-35.4888
-35.4328
-37.5845
-35.2405
-34.0766
-35.4203
-34.053
-35.257
-37.5689
-35.5124
-32.9563
-36.8537
-39.8561
-35.5532
-39.8835
-36.859
-32.9746
-52.722
-46.1525
-44.4065
-61.6729
-28.8315
-26.8291
-32.5799
-35.4483
-28.8241
-35.4153
-32.5716
-26.8038
-52.6927
-61.6663
-44.405
-46.1456
-29.4468
-27.2466
-24.4139
-27.9444
-29.4099
-27.9106
-24.3749
-27.2224
-27.723
-21.8816
-22.5473
-27.6247
-27.7789
-27.6694
-22.6368
-21.9887
-78.1256
-74.4271
-80.0837
-33.1082
-31.7193
-34.6109
40.6116
103.446
3.28149
-30.2568
-28.3211
-30.3739
-73.9611
-78.58
-85.0709
-31.8558
-33.054
-34.5596
103.816
39.518
3.36884
-28.2641
-30.1971
-30.315
-43.078
-36.0472
-37.6458
-43.3212
-38.2028
-52.0287
-46.5906
-42.2214
-28.3254
-28.3744
-25.6923
-23.1905
-47.7705
-46.456
-49.1582
-51.8214
-43.1418
-43.2097
-36.1638
-37.5331
-38.1901
-42.1977
-52.1777
-46.6551
-28.3239
-23.2627
-28.4258
-25.7344
-47.782
-51.8432
-46.4003
-49.1971
-55.4076
-42.7042
-65.895
-20.3471
-80.3824
-80.1619
-76.8711
-79.1249
-24.8608
-13.4112
-32.4738
-27.7488
-31.4308
-31.0332
-33.8899
-28.6459
-28.9105
-28.989
-31.1817
-27.6343
-38.1601
-35.6048
-37.2541
-36.2972
110.584
110.283
-25.0245
157.841
-38.517
-28.0809
-31.3673
-35.6344
-24.4516
-24.3135
-26.0459
-20.7545
-39.5891
-43.0713
-41.0363
-41.7691
-54.9062
-42.7538
-65.1373
-20.9705
-24.9016
-13.3478
-32.5439
-27.8085
-31.3499
-30.9426
-33.6472
-28.6102
-38.1286
-35.5851
-37.2277
-36.2647
-38.547
-28.1419
-31.4156
-35.5908
-39.5464
-43.0093
-41.0018
-41.7196
-36.1803
-35.217
-35.411
-35.2267
-34.1424
-32.7698
-33.9926
-32.92
-36.9814
-36.9619
-36.5691
-37.6519
-45.4352
-43.9662
-43.1184
-43.5628
-41.9935
-41.93
-47.0875
-39.4959
-30.9227
-45.2225
-38.3835
-28.3629
-10.0923
-10.0927
-14.1382
-5.49755
-72.3128
-72.3101
-77.6412
-66.8629
-36.1808
-35.2285
-35.4033
-35.2295
-34.1561
-32.786
-34.0108
-32.9396
-45.6364
-43.967
-43.0979
-43.5885
-30.9327
-45.4419
-38.3976
-28.5208
-26.393
-22.3285
-23.052
-19.354
-26.4083
-22.3479
-23.1055
-19.3737
-41.9028
-39.53
-39.5564
-37.7849
-36.8608
-36.0218
-36.0244
-35.0063
90.1698
53.6413
116.346
91.2051
-35.9633
-35.2135
-37.066
-36.3111
-35.9576
-35.2164
-37.0548
-36.3067
-37.2527
-37.3495
-37.6444
-37.283
11.0968
20.4229
-11.161
10.9786
-39.0816
-38.6844
-38.8951
-38.0608
-39.0473
-38.6502
-38.8621
-38.0275
-36.3869
-36.1133
-36.1289
-35.9244
-34.564
-37.3844
-37.3806
-40.3577
-23.1607
-23.1808
-22.1304
-23.1086
-77.7695
-72.1164
-78.4476
-52.4042
-97.6806
-85.3535
-84.4867
-54.542
-48.2397
-33.9741
-41.2226
-42.3487
-32.1926
-31.7885
-34.4597
-29.4195
-30.7321
-29.6858
-32.4747
-29.5466
-37.6695
-42.3563
-38.9082
-40.007
-6.39371
-35.8638
-51.7718
32.4387
80.6249
52.5049
0.0532206
149.291
-41.1897
-58.431
-62.3022
-13.1356
-30.4584
-30.7099
-33.3785
-28.8051
-26.9528
-25.9639
-26.799
-25.9533
-32.8512
-36.1389
-35.1388
-32.9238
-95.2566
-83.421
-83.1375
-55.7657
-78.7325
-70.7845
-81.4416
-63.3122
-48.2319
-33.9923
-41.2067
-42.407
-30.6912
-29.6556
-32.4007
-29.5065
-32.1243
-31.7117
-34.42
-29.3646
-37.6098
-42.3312
-38.847
-39.9883
80.6653
52.3624
0.300167
148.936
-6.83344
-35.8721
-51.0886
31.707
-41.1258
-58.386
-62.2306
-13.0385
-26.8931
-25.9611
-26.7517
-25.8586
-30.3988
-30.6315
-33.3999
-28.7564
-32.8062
-36.1409
-35.1177
-32.8769
-36.1859
-44.5104
-47.8374
-36.1193
-36.0107
-36.4247
-35.9467
-37.1578
-36.2766
-35.3093
-36.6685
-35.1278
-36.5192
-36.4083
-37.4181
-37.4321
-35.4839
-34.3682
-34.8489
-34.3954
-39.0866
-36.4165
-37.1628
-36.5399
-52.3294
-47.4397
-42.3927
-42.1752
-41.1711
-42.2472
-46.9188
-38.2096
-29.9963
-25.8697
-30.8938
-34.3971
-29.3065
-31.2837
-31.3297
-30.1952
-24.8182
-26.5527
-27.8872
-19.1457
-19.6221
-13.1464
-18.7079
-12.086
-45.1407
-43.6097
-42.2513
-45.9561
-44.3941
-43.696
-44.1261
-43.2935
-50.0226
-50.3674
-48.071
-57.7408
-63.6303
-71.2372
-74.0967
-64.629
-36.2623
-44.1103
-47.1729
-36.1847
-36.5111
-36.4017
-37.4221
-37.4296
-36.1414
-36.4111
-35.9527
-37.1695
-36.2959
-35.3254
-36.6804
-35.1473
-35.4338
-34.3438
-34.8055
-34.3529
-41.1589
-42.2534
-46.9309
-38.2196
-39.0741
-36.3922
-37.1008
-36.4951
-52.4571
-47.4597
-42.1311
-42.1948
-29.9683
-25.6917
-30.5772
-34.3787
-19.6554
-13.1546
-18.6913
-12.0936
-29.3382
-31.3043
-31.368
-30.2115
-24.7262
-26.5582
-27.911
-19.1483
-45.0538
-43.6082
-42.2168
-45.9039
-63.6329
-71.238
-74.0834
-64.6178
-44.3653
-43.614
-44.1029
-43.3261
-49.995
-50.376
-48.0101
-57.6537
-58.7868
-37.1097
-45.6838
-46.3439
2.61643
83.4549
-10.0397
74.8024
-60.9659
-49.2316
-54.3239
-54.349
-60.8865
-5.01747
-41.4587
-44.5089
-24.3482
-22.3065
-26.1906
-16.5418
-35.7491
-38.5871
-38.1911
-36.383
-36.8499
-38.4717
-37.6204
-36.7063
-27.4296
-25.8108
-27.6426
-27.3657
-33.6195
-35.7087
-35.1069
-35.1093
-26.1704
-24.8794
-25.7275
-25.7012
-37.9566
-38.2742
-37.027
-39.4743
-36.4446
-36.3694
-35.404
-37.9988
-29.4137
-35.6574
-31.7947
-31.7299
170.302
178.395
188.526
188.59
-28.1226
-25.404
-23.3263
-30.7849
-39.0451
-36.5327
-35.019
-37.5109
-27.5566
-30.3577
-28.8469
-28.84
-20.1106
-21.4822
-21.1844
-21.2567
-40.6761
-39.7521
-39.6755
-39.7931
-39.2356
-37.8254
-41.0783
-35.5588
-58.7646
-37.1194
-45.6385
-46.2449
1.7102
81.655
72.7688
-10.5262
-24.4007
-22.3143
-26.2045
-16.5742
-35.8601
-38.7742
-38.3055
-36.4416
-36.8135
-38.4028
-36.7524
-37.4987
-27.3783
-25.7386
-27.5933
-27.3432
-37.9216
-38.2385
-37.0139
-39.4516
-36.387
-36.3978
-35.4099
-38.0291
-28.1732
-25.4609
-30.8153
-23.435
-39.0744
-36.5593
-37.5244
-35.0973
-40.6484
-39.7209
-39.7707
-39.646
-39.1765
-37.8201
-35.541
-41.0614
-35.531
-35.7265
-35.3388
-35.9268
-36.7713
-37.2608
-38.3528
-36.9924
-36.1685
-20.919
-36.8742
-30.6117
-33.2695
-33.64
-33.7711
-33.0274
-37.6858
-36.8257
-38.2686
-38.2624
-37.4802
-37.4026
-37.4073
-37.4281
-40.2287
-38.3126
-38.5725
-39.839
-38.6106
-38.0657
-37.7221
-38.5492
-45.1933
-40.366
-43.4738
-43.4634
-36.831
-35.8346
-35.9606
-35.8898
-37.6576
-36.8173
-39.6152
-34.9852
-6.11502
14.4839
6.88295
-0.288819
-23.1642
-30.245
-27.2325
-27.2336
4.72196
15.9409
9.33155
9.317
-90.8979
-98.6498
-96.6369
-96.6515
-57.3022
-48.6431
-52.71
-52.6938
-35.5259
-35.7196
-35.3395
-35.9241
-36.7798
-37.2583
-38.361
-37.0107
-36.204
-20.8084
-30.4619
-36.7189
-33.2821
-33.6453
-33.7788
-33.0349
-40.2077
-38.2999
-39.8232
-38.5487
-38.6218
-38.0454
-37.7136
-38.5482
-37.655
-36.8126
-34.9896
-39.6019
-6.13141
14.5203
-0.244044
6.80391
-54.4894
-44.0951
-45.5744
-37.6034
-52.3492
-39.363
-24.1302
-44.899
-28.9761
-32.1159
-22.4043
-27.7526
-59.6969
-56.6924
-49.9471
-43.05
-54.4878
-44.0807
-45.4889
-37.5935
-59.6254
-56.6698
-49.9156
-43.056
-28.1555
-32.239
-21.9019
-27.4945
-52.1427
-39.3376
-24.0729
-44.8418
-59.4232
-47.6523
-52.2951
-44.3232
-59.5725
-47.6614
-52.3793
-44.4581
-36.002
-36.7475
-34.9808
-38.1791
-35.787
-36.7071
-34.904
-38.0769
-26.4355
-26.2474
-28.6767
-31.1856
-28.5245
-25.5053
-32.1803
-28.2434
-28.5327
-25.5278
-32.1687
-28.2503
-27.2688
-25.9363
-28.2963
-30.388
-27.9979
-41.4522
-34.7271
-44.5448
132.863
194.257
144.965
167.611
194.092
132.754
166.998
142.036
-43.149
-29.1908
-46.197
-35.7991
-34.7981
-34.6473
-34.8412
-34.2929
-37.6737
-38.0218
-36.8316
-37.8282
-43.1813
-44.2091
-41.4542
-42.2614
-30.5229
-30.7522
-31.9821
-31.9968
-34.8081
-34.6618
-34.8445
-34.3029
-30.5387
-30.7675
-31.9895
-32.0016
-43.1693
-44.1888
-41.4376
-42.2386
-37.5968
-37.9868
-36.8204
-37.7923
-37.5886
-38.844
-36.8326
-37.2351
-38.8582
-37.599
-37.2736
-36.8402
-43.8359
-41.4817
-42.4902
-37.9823
-41.4734
-43.821
-37.9723
-42.491
-6.87391
-4.61895
2.22562
3.61744
-89.8749
-90.4415
-71.0449
-98.1577
-90.4023
-89.7282
-98.1476
-71.7015
-4.65367
-6.91727
3.48312
2.13968
-35.8482
-36.779
-36.3054
-36.8426
-36.7322
-38.2034
-37.9438
-39.393
-33.5389
-34.7214
-35.0001
-36.9961
-40.8167
-39.3109
-40.6777
-39.415
-35.8215
-36.7693
-36.2904
-36.8276
-40.8053
-39.3869
-40.6404
-39.4251
-33.3039
-34.7196
-34.9898
-36.9137
-36.6817
-38.1448
-37.8716
-39.3238
-34.7572
-35.9455
-34.6537
-35.2511
-34.6912
-35.8167
-34.6451
-35.1776
-36.0334
-38.6431
-36.6901
-38.282
-36.0391
-38.65
-36.7195
-38.3119
-52.8837
-56.1489
-48.5658
-52.7532
-28.4612
-30.5038
-29.4492
-31.3662
-28.4299
-30.4754
-29.4289
-31.3541
-52.8769
-56.1362
-48.558
-52.7391
-27.9575
-28.584
-27.983
-27.4128
-28.5569
-27.9626
-27.3905
-27.9423
-26.2345
-27.2051
-24.8658
-26.967
-27.267
-26.3269
-27.0414
-24.9803
-78.5764
-34.1288
-81.7042
-30.9656
-66.7403
-68.2233
-34.3446
-30.3438
-33.5028
-30.1723
-35.894
-36.1178
-24.8565
105.45
7.73758
127.704
-43.3311
-4.02953
-32.6189
-28.7452
-27.9286
-27.6254
-32.8238
-29.8513
-81.5657
-31.8396
-78.9382
-35.5836
-66.8117
-68.4706
-33.46
-30.1292
-34.2927
-30.2927
-35.8429
-36.067
7.61461
128.135
-23.7118
105.367
-42.8466
-3.92481
-27.8804
-27.5667
-32.5603
-28.6839
-32.7523
-29.6941
-37.5588
-31.5557
-35.9192
-38.3038
-38.096
-35.5804
-32.7021
-40.8907
-36.1116
-35.4027
-32.1063
-50.2196
-50.2457
-40.1931
-48.2494
-37.0548
-30.4969
-25.0267
-30.1009
-28.0605
-26.5273
-19.7992
-23.4717
-18.4831
-45.6792
-49.6911
-46.6939
-44.6646
-48.7512
-55.068
-59.2335
-52.6991
-37.6082
-31.6795
-32.6869
-40.9179
-35.8925
-38.3927
-38.1205
-35.584
-36.0928
-35.3941
-48.2773
-37.0416
-32.0728
-50.2989
-50.4307
-40.1603
-30.5258
-25.0126
-23.4297
-18.5491
-30.1262
-28.0813
-26.5296
-19.7924
-45.638
-49.6556
-59.2074
-52.6717
-46.6173
-44.6532
-48.8022
-55.0147
-76.8627
-30.544
-64.4619
-3.20099
-71.1813
-64.0496
-13.3275
10.1011
-79.9341
-75.2162
-79.7947
-74.7596
-69.4573
-69.3949
-65.3286
-65.1896
-29.4461
-29.1965
-26.1872
-31.1933
-28.1542
-25.0437
-32.3639
-28.8102
-34.0419
-28.8629
-33.6065
-28.4439
-35.4888
-36.5187
-27.6913
-27.663
-31.515
-28.0917
-31.4977
-28.0706
-32.5656
-32.5845
-27.0086
-26.9995
-41.6168
-40.3992
-35.0953
-34.1303
-36.8067
-38.673
-34.9681
-38.4589
-4.3811
180.355
-4.38573
180.275
-26.4955
-26.5473
192.029
192.297
-44.1237
-32.6527
-22.6519
-36.7135
-25.6114
-34.1604
-35.8917
-41.5235
-26.2481
-22.304
-26.2147
-22.3541
-26.7508
-26.7367
-20.6206
-20.691
-38.3902
-36.8327
-42.6203
-44.1484
-39.8955
-41.2327
-43.681
-37.9613
-76.0572
-32.502
-64.0986
-3.70691
-70.8994
-63.8477
9.75036
-14.1149
-29.4573
-29.2016
-26.1036
-31.0811
-28.198
-25.0408
-32.4664
-28.787
-33.8937
-28.8032
-33.4366
-28.4063
-36.4457
-35.4312
-27.6581
-27.6221
-41.5847
-40.386
-35.0767
-34.1123
-36.7854
-38.6503
-34.9565
-38.4873
-44.1174
-32.6312
-22.7294
-36.6747
-34.1951
-25.6931
-41.482
-35.8835
-38.3466
-36.7596
-42.6123
-44.0375
-41.2102
-39.8606
-37.9208
-43.6499
-35.8075
-39.6831
-35.3718
-35.4179
-35.449
-35.4394
-37.3016
-35.9197
-35.5287
-34.3615
-32.833
-31.7847
-35.9408
-34.583
-33.7021
-32.3299
-36.6445
-37.9234
-36.6403
-37.9138
-37.2853
-37.2881
-37.5814
-37.5766
-43.3848
-42.7346
-43.032
-43.2503
-41.1174
-41.977
-39.0978
-40.88
-46.85
-39.0457
-46.8018
-39.0483
-49.9658
-49.7645
-37.9167
-37.949
-30.1912
-20.5302
-47.09
-68.0426
-41.7362
-34.8213
-13.3432
-23.9565
-15.3267
-6.85344
-15.3197
-6.85007
-18.8631
-18.8613
-0.376354
-0.37221
-78.3448
-66.496
-78.3576
-66.4901
-84.1975
-84.2055
-61.7786
-61.7754
-35.8306
-39.6911
-35.3671
-35.4114
-35.4506
-35.4498
-37.3053
-35.9223
-35.5356
-34.3794
-32.8594
-31.8062
-34.6277
-35.9562
-33.7182
-32.3466
-43.2035
-42.7615
-43.012
-43.2769
-41.9577
-41.0912
-38.977
-40.8471
-30.1893
-20.5122
-47.0502
-67.8942
-34.8329
-41.7052
-23.9956
-13.3233
-31.8075
-31.3567
-26.5762
-17.0222
-21.9849
-28.5456
-13.6726
-19.7793
-31.8033
-31.3647
-26.5836
-17.0316
-28.5752
-22.0529
-19.7862
-13.704
-44.6676
-44.6979
-40.9327
-37.2423
-41.0195
-37.287
-35.507
-35.4877
-36.3948
-36.386
-36.044
-35.1329
-35.1394
-36.0465
-33.1991
-33.2021
84.0782