# vtk DataFile Version 2.0
tet_velo
ASCII
DATASET UNSTRUCTURED_GRID
POINTS 29498 float
-0.742631 0.285 -2.275
-0.655 0.245 2.37138
-0.775 0.905 -2.20687
-0.715 1.325 2.18352
0.742631 0.285 -2.275
0.685 0.225 2.35751
0.745 0.928601 -2.215
0.715 1.325 2.18352
-0.715922 0.269165 -0.726207
-0.682816 0.259727 0.822587
-0.803751 1.09375 -0.743407
-0.774865 1.22487 0.720057
0.718764 0.269657 -0.73083
0.688506 0.260704 0.81334
0.794564 1.1203 -0.748827
0.769969 1.23784 0.717347
-1.49779 -0.196831 -3.46329
-1.48907 -0.136058 -2.25831
-1.4603 -0.151323 -0.707901
-1.41295 -0.19672 0.859322
-1.37433 -0.219577 2.41112
-1.3663 -0.193318 3.62295
-1.36735 -0.14559 4.82183
-1.50537 0.182414 -3.46032
-1.50162 0.264618 -2.26429
-1.47414 0.281564 -0.729816
-1.41984 0.279705 0.812278
-1.37415 0.282223 2.34834
-1.36756 0.309742 3.55919
-1.37064 0.352818 4.76078
-1.52641 0.892274 -3.43028
-1.53808 0.964513 -2.23004
-1.54257 1.11161 -0.753429
-1.49449 1.2316 0.717045
-1.43163 1.31669 2.19539
-1.40572 1.34141 3.41176
-1.39707 1.36579 4.62808
-1.53684 2.11062 -3.44791
-1.54009 2.20931 -2.26064
-1.54135 2.39485 -0.810282
-1.52835 2.5874 0.622029
-1.50047 2.72608 2.07349
-1.47472 2.78943 3.26306
-1.45413 2.82719 4.47012
-0.748511 -0.184395 -3.47057
-0.743351 -0.119466 -2.26812
-0.72418 -0.154231 -0.709328
-0.69467 -0.214896 0.866632
-0.666971 -0.251557 2.42586
-0.657053 -0.216019 3.6321
-0.65452 -0.159471 4.82597
-0.751152 0.187864 -3.46422
-0.654734 0.291273 3.56689
-0.656316 0.341843 4.76347
-0.767943 0.872038 -3.42274
-0.686278 1.34179 3.40822
-0.677988 1.36454 4.62552
-0.777746 2.09453 -3.44033
-0.778422 2.19258 -2.25197
-0.783283 2.38935 -0.805867
-0.783091 2.59384 0.619155
-0.767972 2.73721 2.06577
-0.746611 2.79919 3.25531
-0.727652 2.83418 4.46381
0.744224 -0.178002 -3.47329
0.736192 -0.117024 -2.26996
0.718248 -0.15231 -0.714011
0.697374 -0.214806 0.85833
0.700053 -0.262504 2.41486
0.731343 -0.22358 3.62329
0.754879 -0.16288 4.81887
0.747286 0.195709 -3.46708
0.731637 0.282607 3.55842
0.753781 0.33833 4.75674
0.746621 0.887663 -3.42797
0.732588 1.33945 3.404
0.746418 1.36344 4.62031
0.743059 2.11002 -3.44541
0.749962 2.20927 -2.25714
0.746087 2.40487 -0.810539
0.723647 2.6049 0.615263
0.707156 2.74371 2.06227
0.711972 2.80348 3.25147
0.723808 2.83753 4.45945
1.49166 -0.181728 -3.4697
1.48508 -0.124822 -2.26414
1.46018 -0.142318 -0.717155
1.42134 -0.193714 0.845282
1.40887 -0.23007 2.39389
1.43477 -0.202814 3.60733
1.46206 -0.150215 4.80823
1.49746 0.200534 -3.46699
1.49814 0.279331 -2.26973
1.47691 0.294302 -0.738623
1.42745 0.285139 0.79905
1.40298 0.269784 2.33182
1.43307 0.299425 3.54445
1.46056 0.348154 4.74785
1.50399 0.920876 -3.43975
1.51612 0.998216 -2.24026
1.53408 1.14422 -0.762667
1.48803 1.24922 0.70901
1.43381 1.31854 2.18819
1.44224 1.3393 3.40235
1.45899 1.36512 4.61759
1.50018 2.14016 -3.4578
1.5082 2.2405 -2.27061
1.50347 2.42358 -0.819521
1.47458 2.60839 0.613923
1.44736 2.73907 2.06591
1.44373 2.79838 3.25497
1.45087 2.83431 4.46121
-0.80733 0.595 -2.28945
0 0.282089 -2.27791
-0.732787 0.273573 -1.5006
-0.766744 0.785 2.35919
0.015 0.239053 2.36039
-0.702332 0.21894 1.59698
-0.015 1.00357 -2.29771
-0.806367 1.01637 -1.47514
0 1.35343 2.21195
-0.751259 1.28126 1.45179
0.798326 0.606801 -2.29951
0.734321 0.273705 -1.50292
0.785206 0.775 2.35572
0.70787 0.221735 1.58543
0.790593 1.04526 -1.48191
0.748815 1.28775 1.45043
-0.699002 0.264814 0.04819
-0.862865 0.681458 -0.734807
0.00142071 0.17765 -0.728519
-0.866921 0.742296 0.771322
0.00284501 0.18357 0.817964
-0.789679 1.15968 -0.011675
-0.00459356 1.5559 -0.746117
-0.00244829 1.61254 0.718702
0.703211 0.265605 0.041255
0.860399 0.694978 -0.739828
0.866815 0.74927 0.765344
0.782601 1.1794 -0.0157399
-0.872624 0.638229 -1.48787
-0.863867 0.711877 0.0182575
-0.887326 0.763648 1.52439
0.000710354 0.10987 -1.50176
0.00213286 0.184484 0.0447225
0.00892251 0.198887 1.5912
-0.00749999 0.6009 -2.41023
0.00750001 0.78 2.38797
-0.00979677 1.1283 -1.47853
-0.00352093 1.61253 -0.0137075
-0.00122415 1.60053 1.45111
0.8727 0.650889 -1.49241
0.862534 0.722124 0.0127575
0.887412 0.762135 1.51793
-1.12213 0.274809 -2.26965
-0.742991 0.0827672 -2.27156
-0.746892 0.236432 -2.86961
-1.01458 0.263611 2.35986
-0.660985 -0.00327843 2.39862
-0.654867 0.268137 2.96914
-1.15654 0.934757 -2.21845
-0.771471 0.888519 -2.81481
-0.776711 1.54879 -2.22942
-1.07331 1.32084 2.18946
-0.700639 1.3334 2.79587
-0.741486 2.0311 2.12465
0.739412 0.0839878 -2.27248
0.744959 0.240355 -2.87104
1.12038 0.282165 -2.27236
0.692527 -0.0187521 2.38618
0.708319 0.253804 2.95797
1.04399 0.247392 2.34466
0.745811 0.908132 -2.82148
0.747481 1.56894 -2.23607
1.13056 0.963409 -2.22763
0.723794 1.33222 2.79376
0.711078 2.03436 2.1229
1.07441 1.32177 2.18585
-1.09503 0.275364 -0.728011
-0.720051 0.0574672 -0.717767
-1.05133 0.269716 0.817432
-0.688743 0.0224157 0.844609
-1.17316 1.10268 -0.748418
-0.793517 1.74155 -0.774637
-1.13468 1.22823 0.718551
-0.778978 1.90935 0.669606
0.718506 0.0586734 -0.722421
1.09784 0.28198 -0.734727
0.69294 0.0229489 0.835835
1.05798 0.272922 0.806195
0.770325 1.76258 -0.779683
1.16432 1.13226 -0.755747
0.746808 1.92137 0.666305
1.129 1.24353 0.713179
-1.49343 -0.166445 -2.8608
-1.50158 -0.0072088 -3.4618
-1.12315 -0.190613 -3.46693
-1.47469 -0.14369 -1.48311
-1.49535 0.0642802 -2.2613
-1.11621 -0.127762 -2.26322
-1.43662 -0.174021 0.0757107
-1.46722 0.0651206 -0.718858
-1.09224 -0.152777 -0.708614
-1.39364 -0.208149 1.63522
-1.41639 0.0414929 0.8358
-1.05381 -0.205808 0.862977
-1.37031 -0.206448 3.01703
-1.37424 0.0313226 2.37973
-1.02065 -0.235567 2.41849
-1.36682 -0.169454 4.22239
-1.36693 0.0582121 3.59107
-1.01167 -0.204668 3.62752
-1.36899 0.103614 4.79131
-1.01093 -0.152531 4.8239
-1.5035 0.223516 -2.8623
-1.51589 0.537344 -3.4453
-1.12826 0.185139 -3.46227
-1.48788 0.273091 -1.49705
-1.51985 0.614566 -2.24717
-1.44699 0.280635 0.0412308
-1.50835 0.696586 -0.741622
-1.397 0.280964 1.58031
-1.45717 0.755653 0.764662
-1.37086 0.295983 2.95376
-1.40289 0.799456 2.27187
-1.3691 0.33128 4.15999
-1.38664 0.825575 3.48548
-1.01115 0.300508 3.56304
-1.38385 0.859306 4.69443
-1.01348 0.34733 4.76213
-1.53224 0.928394 -2.83016
-1.53162 1.50145 -3.4391
-1.14718 0.882156 -3.42651
-1.54032 1.03806 -1.49173
-1.53908 1.58691 -2.24534
-1.51853 1.1716 -0.0181917
-1.54196 1.75323 -0.781856
-1.46306 1.27415 1.45622
-1.51142 1.9095 0.669537
-1.41867 1.32905 2.80358
-1.46605 2.02138 2.13444
-1.40139 1.3536 4.01992
-1.44022 2.06542 3.33741
-1.046 1.3416 3.40999
-1.4256 2.09649 4.5491
-1.03753 1.36517 4.6268
-1.53846 2.15996 -2.85427
-1.15729 2.10257 -3.44412
-1.54072 2.30208 -1.53546
-1.15925 2.20095 -2.2563
-1.53485 2.49112 -0.0941267
-1.16232 2.3921 -0.808074
-1.51441 2.65674 1.34776
-1.15572 2.59062 0.620592
-1.4876 2.75776 2.66827
-1.13422 2.73164 2.06963
-1.46443 2.80831 3.86659
-1.11067 2.79431 3.25918
-1.09089 2.83069 4.46696
-0.745931 -0.151931 -2.86935
-0.749832 0.00173421 -3.4674
-0.00214312 -0.181199 -3.47193
-0.733765 -0.136848 -1.48873
-0.00357922 -0.118245 -2.26904
-0.709425 -0.184563 0.0786519
-0.00296589 -0.15327 -0.71167
-0.68082 -0.233226 1.64624
0.00135221 -0.214851 0.862481
-0.662012 -0.233788 3.02898
0.0165412 -0.25703 2.42036
-0.655786 -0.187745 4.22904
-0.655893 0.0376274 3.5995
0.0371454 -0.219799 3.6277
-0.655418 0.0911857 4.79472
0.0501794 -0.161176 4.82242
-0.759548 0.529951 -3.44348
-0.00193323 0.191787 -3.46565
-0.655525 0.316558 4.16518
-0.670506 0.816533 3.48756
0.0384518 0.28694 3.56266
-0.667152 0.85319 4.69449
0.0487325 0.340086 4.7601
-0.772844 1.48328 -3.43154
-0.0106607 0.87985 -3.42535
-0.682133 1.35316 4.01687
-0.716445 2.07049 3.33177
0.0231548 1.34062 3.40611
-0.70282 2.09936 4.54466
0.0342149 1.36399 4.62291
-0.778084 2.14355 -2.84615
-0.0173433 2.10227 -3.44287
-0.780852 2.29097 -1.52892
-0.0142297 2.20093 -2.25456
-0.783187 2.4916 -0.0933558
-0.018598 2.39711 -0.808203
-0.775532 2.66552 1.34246
-0.0297219 2.59937 0.617209
-0.757292 2.7682 2.66054
-0.0304081 2.74046 2.06402
-0.737132 2.81669 3.85956
-0.0173194 2.80133 3.25339
-0.00192208 2.83586 4.46163
0.740208 -0.147513 -2.87163
0.745755 0.00885369 -3.47019
1.11794 -0.179865 -3.4715
0.72722 -0.134667 -1.49198
1.11063 -0.120923 -2.26705
0.707811 -0.183558 0.0721594
1.08922 -0.147314 -0.715583
0.698714 -0.238655 1.63659
1.05936 -0.20426 0.851806
0.715698 -0.243042 3.01908
1.05446 -0.246287 2.40437
0.743111 -0.19323 4.22108
0.73149 0.0295137 3.59086
1.08306 -0.213197 3.61531
0.75433 0.087725 4.7878
1.10847 -0.156548 4.81355
0.746954 0.541686 -3.44752
1.12238 0.198122 -3.46703
0.742709 0.310469 4.15758
0.732113 0.811028 3.48121
1.08236 0.291016 3.55144
0.750099 0.850883 4.68852
1.10717 0.343242 4.7523
0.74484 1.49884 -3.43669
1.12531 0.90427 -3.43386
0.739503 1.35144 4.01216
0.72228 2.07146 3.32774
1.08741 1.33937 3.40318
0.735113 2.10048 4.53988
1.1027 1.36428 4.61895
0.746511 2.15964 -2.85128
1.12162 2.12509 -3.45161
0.748024 2.30707 -1.53384
1.12908 2.22489 -2.26388
0.734867 2.50488 -0.0976379
1.12478 2.41423 -0.81503
0.715402 2.6743 1.33877
1.09911 2.60664 0.614593
0.709564 2.77359 2.65687
1.07726 2.74139 2.06409
0.71789 2.8205 3.85546
1.07785 2.80093 3.25322
1.08734 2.83592 4.46033
1.48837 -0.153275 -2.86692
1.49456 0.00940323 -3.46834
1.47263 -0.13357 -1.49065
1.49161 0.0772547 -2.26693
1.44076 -0.168016 0.0640636
1.46855 0.075992 -0.727889
1.41511 -0.211892 1.61958
1.42439 0.0457129 0.822166
1.42182 -0.216442 3.00061
1.40593 0.0198571 2.36285
1.44842 -0.176515 4.20778
1.43392 0.0483057 3.57589
1.46131 0.0989691 4.77804
1.4978 0.239933 -2.86836
1.50073 0.560705 -3.45337
1.48752 0.286817 -1.50417
1.50713 0.638774 -2.25499
1.45218 0.289721 0.0302132
1.50549 0.71926 -0.750645
1.41522 0.277462 1.56543
1.45774 0.76718 0.75403
1.41803 0.284605 2.93813
1.4184 0.794163 2.26
1.44682 0.323789 4.14615
1.43766 0.81936 3.4734
1.45977 0.856635 4.68272
1.51006 0.959546 -2.84001
1.50209 1.53052 -3.44878
1.5251 1.07122 -1.50146
1.51216 1.61936 -2.25544
1.51106 1.19672 -0.0268283
1.51878 1.7839 -0.791094
[...]
POINT_DATA 29498
VECTORS point_vectors float
-2.43056 -2.14354 4.3353
-0.529253 0.296455 2.38232
-4.47 2.81482 4.65812
0.0992013 -0.00561003 0.283861
2.43213 -2.13179 4.30035
0.0734183 0.214552 2.11784
1.80857 1.11946 2.04681
-0.0934207 -0.0117289 0.279026
0.0194965 -0.00498659 0.212584
0 0 0
0.00364648 0.0168445 0.0746711
0.00114296 0.00327165 0.0135156
-0.0244904 -0.00658119 0.247234
0 0 0
9.94065e-05 0.000711832 0.00729755
-0.00189639 0.005462 0.0226044
-0.606704 -0.355573 19.8713
-1.30746 -0.831085 20.701
-0.407937 -0.339826 21.5822
-0.0882915 -0.0462437 21.7038
0.312303 0.348322 21.72
0.59482 0.590043 21.4052
0.832738 0.649245 21.2632
-0.754658 -0.264849 19.7347
-1.94444 -0.763302 20.6665
-0.527327 -0.501023 21.705
-0.0782534 -0.130169 21.8038
0.641547 0.31766 21.7365
1.28674 0.391077 21.8228
1.31878 0.411572 21.8148
-0.856498 0.0788315 19.6306
-2.10051 0.192197 20.4907
-1.28437 -0.289475 21.678
-0.341492 -0.23343 21.9351
0.459443 -0.315008 21.9551
1.07376 -0.522659 21.9762
1.22184 -0.323451 20.9463
-0.44715 0.326821 19.9879
-0.807449 0.628299 20.4443
-0.767521 0.475572 21.2739
-0.307597 0.136082 21.7043
0.0498408 -0.127552 21.6835
0.198743 -0.305759 21.7336
0.342058 -0.348734 20.9208
-0.554004 -0.691634 19.3702
-1.94738 -3.05291 20.8196
-0.528609 -0.313851 21.8989
-0.28668 -0.201954 21.4988
-0.071707 0.448676 21.4252
0.0552373 0.931939 20.676
0.56231 1.17218 19.2352
-0.786711 -0.577728 18.924
0.0131281 1.55114 9.02225
1.73157 1.41901 10.1966
-0.924378 0.195658 18.6423
1.98504 -0.104716 9.94323
1.85847 -1.21082 15.1824
-0.382677 0.591939 19.7099
-0.819055 1.35006 20.1856
-0.893233 1.29005 21.4276
-0.285321 0.291002 21.9214
0.0421648 -0.197452 21.793
0.35287 -0.508594 21.4445
0.0895946 -0.450925 21.4225
0.554432 -0.693033 19.3587
1.98371 -3.11975 20.7983
0.54984 -0.306292 21.8918
0.307362 -0.215247 21.4708
0.0575736 0.537314 21.6314
-0.145352 1.13555 20.8774
-0.577364 1.2433 20.9038
0.792747 -0.570258 18.9077
-0.589827 2.15019 11.1625
-1.63489 1.64597 14.5017
0.900379 0.218186 18.6379
-1.88013 -0.226502 10.6266
-1.58093 -1.18875 16.2913
0.363822 0.595403 19.7106
0.786225 1.36573 20.1807
0.865959 1.30664 21.4228
0.278924 0.312697 21.9334
-0.030777 -0.203726 21.7836
-0.2625 -0.511053 21.4823
-0.133502 -0.441568 21.374
0.60675 -0.348293 19.8608
1.33044 -0.833686 20.7042
0.416207 -0.343836 21.5902
0.0899893 -0.0360779 21.7025
-0.345319 0.363041 21.7518
-0.66283 0.561863 21.4682
-0.762642 0.424967 20.7096
0.756992 -0.254072 19.7048
1.9956 -0.755191 20.6496
0.537112 -0.503289 21.7067
0.0834429 -0.127447 21.7995
-0.661825 0.322387 21.8111
-1.16001 0.528134 21.4319
-1.31651 0.30176 21.0646
0.867104 0.0925181 19.6169
2.15422 0.257546 20.4988
1.32178 -0.270446 21.6842
0.345726 -0.23825 21.9478
-0.47534 -0.344233 21.9718
-1.1084 -0.588979 21.9051
-1.28641 -0.326577 21.148
0.435909 0.340741 19.9789
0.791347 0.647353 20.4338
0.761036 0.509721 21.2549
0.319481 0.137146 21.6918
-0.0287145 -0.157099 21.6886
-0.226635 -0.326342 21.704
-0.277925 -0.341238 20.9856
-4.60851 -0.620623 4.82443
-0.0112766 -0.0840077 0.259313
0.00593085 -0.00158363 0.0256658
-0.0231266 0.0822231 0.0170898
0.306892 -0.36976 0.484614
-0.00380821 0.00151033 0.185368
0.0101777 1.85562 2.28414
-0.313404 -0.330127 0.722406
0.000931093 0.00526811 -0.00301321
0.00222796 0.0042527 0.0341295
4.75874 -0.203696 3.86267
-0.00258634 -0.0017715 0.0139976
-0.0431806 0.0779195 0.215423
0.000488526 0.00447415 0.242941
0.0630744 -0.0454641 0.159025
-0.00310147 0.00592861 0.0487343
0.00163111 -0.000344141 0.0365305
0 0 0
-0.000506197 0.000889783 0.0304621
0 0 0
0 0 0
8.40467e-05 0.000266648 0.000738431
-2.299e-05 0.444418 0.850374
0 0 0
-0.0010506 -0.000146379 0.0401797
-9.53093e-19 6.9601e-18 1.37321e-16
0 0 0
-0.000190944 0.000572115 0.00125371
0 0 0
0 0 0
0.000477517 0.00249379 0.0229366
0.0635063 -0.0622766 0.852171
-0.000295431 0.000198084 0.0430407
0 0 0
-0.00119566 0.0559711 0.0650063
0.00986195 0.0635023 0.00349942
0 0 0
0 0 0
-1.40513e-06 3.38732e-06 -0.000122297
0 0 0
0 0 0
-0.000460506 0.0023869 0.0225818
-3.51536 -1.8745 20.8062
-3.317 -4.85482 21.1789
-2.16253 -1.84377 17.7957
0.62825 0.924754 17.4898
-0.0477279 0.575964 16.3867
-1.16941 0.955761 5.9374
-4.14426 0.79648 20.513
-2.75424 0.991752 16.97
-2.04237 2.56107 19.8891
0.711945 -0.0659901 18.8884
0.80766 0.696696 5.3116
0.127176 -0.442364 22.0958
3.37854 -4.92474 21.1564
2.17044 -1.83249 17.7595
3.58841 -1.87956 20.8021
0.0212105 0.701565 17.4487
0.344377 1.23014 8.4061
-0.720238 0.936553 18.8491
2.67888 1.11061 16.9053
1.94638 2.59587 19.863
4.29778 1.05381 20.4139
-0.708044 0.372151 5.94646
-0.103766 -0.473003 22.0392
-0.705004 -0.127608 19.0021
-0.11038 -0.578907 20.6468
0.10298 -0.000383263 17.0136
-0.304401 0.148915 18.2513
0.117145 -0.380945 16.2095
-1.97075 -0.917727 21.8502
-2.98339 2.2828 21.8523
-0.390548 -0.245514 19.884
-0.585952 0.355502 22.3309
-0.122992 0.00519301 16.7949
0.0991392 -0.583304 20.6462
-0.10919 -0.412374 16.0472
0.322564 0.156187 18.4819
2.91083 2.42738 21.7896
2.09183 -0.873861 21.9134
0.585639 0.370664 22.3063
0.415849 -0.276112 19.9482
-1.02559 -0.620049 20.0493
-0.69052 -0.328948 19.8101
-0.634412 -0.494117 19.6342
-0.848204 -0.603305 21.389
-1.60472 -0.829304 20.6937
-1.77076 -1.63428 20.7366
-0.18754 -0.159362 21.6338
-0.473975 -0.41 21.6262
-0.363343 -0.327168 21.7154
0.114177 0.159565 21.7882
-0.0868975 -0.0829375 21.7651
-0.165382 -0.0379524 21.7776
0.4305 0.427625 21.7874
0.461847 0.375641 21.785
0.183247 0.53275 21.7839
0.761189 0.756719 21.2831
0.868948 0.626084 21.7988
0.581898 1.06437 21.8646
1.07544 0.531703 21.5626
0.698965 1.19152 21.9387
-1.42357 -0.524995 19.8302
-0.826667 -0.101864 19.6659
-0.809807 -0.389221 19.3943
-1.15439 -0.649732 21.5381
-2.19138 -0.300115 20.5931
-0.211852 -0.305759 21.7369
-0.887891 -0.54673 21.7491
0.26541 0.0693409 21.8885
-0.146496 -0.214054 21.7793
0.843741 0.432576 21.7142
0.740852 -0.0576026 21.6273
1.11647 0.543168 21.5902
1.46173 0.0175514 21.2962
1.29533 1.49173 18.2349
1.47416 -0.130434 20.8204
1.54039 0.940461 15.9246
-1.56713 0.193168 19.7421
-0.671697 0.313352 19.7958
-0.966572 0.137441 19.2378
-1.73363 -0.0871127 21.2852
-1.40287 0.668998 20.3923
-0.737639 -0.290758 21.8713
-1.28494 0.343177 21.4872
0.0167236 -0.236426 21.9882
-0.406885 0.023497 21.8294
0.782017 -0.406129 21.8747
0.182288 -0.262406 21.823
1.24834 -0.715435 21.2959
0.501574 -0.506595 21.6012
1.58551 -0.430538 17.9633
0.552742 -0.526477 21.4621
1.56341 -0.740109 18.1009
-0.642619 0.50347 20.1488
-0.46019 0.480998 19.853
-0.845079 0.611111 20.8429
-0.894145 0.969077 20.3303
-0.551409 0.308226 21.5396
-0.887925 0.80504 21.3607
-0.103992 -0.0374685 21.7229
-0.263138 0.191011 21.8439
0.137211 -0.21715 21.5292
0.0368819 -0.201433 21.7749
0.213537 -0.279503 21.2543
0.238971 -0.415049 21.7549
0.254747 -0.469536 21.2259
-1.21015 -1.70585 19.1882
-0.653866 -0.633336 19.1584
-0.00119364 -0.862407 19.0797
-1.08646 -1.11696 22.2276
-0.0774857 -4.69854 20.8146
-0.336006 -0.164267 21.4158
0.0684831 -0.507899 20.6964
-0.128812 0.186387 21.6272
0.0203935 -0.375312 20.1087
0.0561072 0.632306 21.257
0.0866468 0.221731 20.3095
0.142707 1.53341 19.8224
-0.0681234 1.3923 15.7959
0.18075 0.586371 18.595
1.14694 1.29559 14.7159
-0.0808063 0.897857 15.2201
-0.851421 -0.210218 18.7186
-0.00621621 -0.725989 18.455
1.6677 1.32694 9.08155
1.21172 1.31063 2.89644
-0.0728677 -1.98165 -0.246963
1.98041 0.393971 10.5447
0.753141 0.957583 3.55288
-0.632481 0.649952 19.1787
-0.0213525 0.299923 17.9878
2.25865 -0.960748 13.1951
0.532506 -0.970871 21.283
-0.0130434 -0.879636 1.38815
0.580697 -0.960791 19.7558
-0.262639 -1.38495 8.82326
-0.602343 1.00641 19.7968
-0.00776336 0.727078 19.5707
-0.948431 1.42447 20.7226
-0.0120997 1.77391 20.0439
-0.561139 0.735836 21.8728
-0.0242282 1.98208 21.4622
-0.0876521 0.00402562 21.9085
-0.00846624 0.432709 22.0997
0.127813 -0.325621 21.7131
0.00348411 -0.235582 22.0076
0.146995 -0.547257 21.8003
0.028832 -0.460041 21.6154
-0.00911283 -0.615083 21.3233
1.21583 -1.72139 19.1574
0.660486 -0.627487 19.1429
0.635255 -0.494616 19.6359
1.13291 -1.1428 22.2594
1.82437 -1.67218 20.7376
0.352135 -0.16578 21.3807
0.383773 -0.321035 21.7398
0.155445 0.192794 21.6773
0.188857 -0.0366397 21.7876
-0.0375236 0.799313 21.3572
-0.213952 0.569682 21.8607
-0.604305 1.39091 21.1316
-0.21295 1.76536 18.5199
-0.587154 0.984179 21.3702
-0.844294 1.55123 17.5513
-0.844875 0.995939 20.9777
0.842036 -0.191273 18.7005
0.811663 -0.379104 19.3776
-1.22743 2.15153 13.7249
-1.55617 1.58585 5.20218
-1.53523 1.18393 20.3329
-2.43547 0.750549 11.7725
-1.64049 0.779323 19.2437
0.60964 0.661498 19.1826
0.956665 0.160523 19.2165
-2.04612 -1.0078 13.945
-0.526867 -1.01326 21.2647
-1.499 -0.628972 18.8813
-0.530877 -0.984781 20.1291
-1.55651 -0.701708 18.8138
0.580876 1.01047 19.7945
0.457692 0.488742 19.8463
0.910422 1.43168 20.7325
0.864176 0.975971 20.3237
0.553479 0.764122 21.8862
0.859629 0.8411 21.3675
0.0883134 0.0112762 21.9305
0.289049 0.21053 21.857
-0.110126 -0.33015 21.704
-0.0358261 -0.206994 21.8483
-0.157953 -0.575308 21.7633
-0.244243 -0.432479 21.7468
-0.220983 -0.463245 21.2629
1.03644 -0.623754 20.0217
0.696419 -0.32124 19.7753
0.866459 -0.611066 21.3987
1.63535 -0.824638 20.6951
0.197593 -0.159556 21.6393
0.479912 -0.411048 21.6306
-0.112989 0.168261 21.8283
0.093471 -0.0743804 21.7497
-0.50409 0.479159 21.6577
-0.473755 0.395158 21.8112
-0.834326 0.562009 21.1619
-0.908385 0.693963 21.508
-1.00972 0.407266 20.9609
1.43831 -0.516387 19.7942
0.830486 -0.0829716 19.6258
1.17368 -0.653271 21.5435
2.28563 -0.276072 20.5828
0.220114 -0.31108 21.742
0.911947 -0.546657 21.7572
-0.262961 0.0721603 21.9112
0.154436 -0.216454 21.787
-0.914844 0.432714 21.7051
-0.765163 -0.0816143 21.7384
-1.19545 0.542616 21.4758
-1.42396 0.0188503 21.3866
-1.31638 -0.128012 20.8898
1.58403 0.230921 19.7078
0.659585 0.326372 19.7871
1.76937 -0.0520812 21.2959
1.38666 0.708222 20.3864
0.757218 -0.292913 21.8936
1.30031 0.391295 21.4844
-0.0173832 -0.24857 22.0143
0.425378 0.0279742 21.8486
-0.789783 -0.454525 21.8342
-0.17443 -0.286616 21.8444
-1.11148 -0.697112 21.7144
-0.529899 -0.520613 21.5646
-0.607569 -0.485704 21.3376
0.625787 0.515205 20.1475
0.864463 0.598741 20.8778
0.566166 0.350652 21.5305
0.123454 -0.0481868 21.7488
-0.14405 -0.237119 21.5115
-0.191079 -0.330848 21.2469
-1.23032 -0.603831 19.9456
-1.59939 -1.86116 18.5997
-1.22587 -1.09791 19.7258
-1.93181 -0.984394 19.1142
-0.715116 -0.463677 19.528
-2.46945 -1.85677 20.7849
-0.994483 -0.641193 21.4755
-0.895906 -0.445374 19.1184
-0.929861 -0.847607 21.7558
-1.05491 -1.05596 22.0668
-0.228876 -0.362534 21.7849
-0.194621 -0.217576 21.6637
0.162984 -0.0156355 16.4931
-0.200117 -0.122012 21.6874
0.0621743 -0.139793 19.3504
-0.149639 -0.0422361 21.3914
0.18647 0.14239 21.873
0.113328 0.181523 16.9168
0.0258991 0.264611 21.9234
0.218572 0.522079 18.1547
0.381151 0.736414 21.1384
0.654215 0.584069 21.5491
-0.134483 0.76115 15.9323
0.277357 0.835734 21.3924
0.773353 1.01641 18.1335
0.848355 1.43376 21.0608
0.966438 0.737996 21.4793
0.456133 1.84509 15.7601
0.737774 1.11654 21.9663
1.79281 1.60873 19.6395
1.10103 1.30083 20.3025
-1.57669 -0.189427 19.7292
-2.77583 -0.654016 16.8381
-2.33422 0.483241 18.8949
-0.920899 -0.15054 19.241
-4.64077 -0.771905 20.6494
-1.50736 -0.484873 21.5002
-2.57105 -0.384505 21.7391
-0.653115 -0.971349 19.3421
-0.433369 -0.374705 21.8546
-0.990941 -0.756506 20.9595
0.0394781 0.308408 16.5791
0.236513 -0.122316 21.7586
0.0893277 -0.0372654 19.3416
0.964523 0.626348 14.7045
1.04617 0.0277881 21.4754
-0.668841 1.78273 0.894993
1.06224 -0.177386 18.9969
2.07424 0.734547 16.9608
1.59238 -0.0666322 20.519
2.43857 -0.232754 6.57666
1.76798 -0.682256 19.5808
2.01281 0.200053 16.8653
-1.10081 0.574318 19.9296
-1.31004 1.59123 18.9774
-0.687638 0.742064 19.9853
-0.710877 0.444619 19.5305
-1.88362 1.35486 20.1821
-1.45143 0.529868 20.9876
-2.31749 2.09089 20.5952
-0.948011 0.972415 20.802
-1.93556 0.8382 21.6681
-0.829843 0.153591 21.778
-1.36482 0.9153 22.563
-0.576227 0.479309 21.7201
-0.520752 0.148371 22.028
-0.104303 -0.107568 21.8675
-0.183838 0.00350906 22.1715
-0.109498 -0.0255284 21.8102
0.176907 -0.336223 21.9782
0.386011 -0.405267 21.6746
0.306507 -0.737389 21.9964
0.159088 -0.29733 21.667
0.561125 -0.798091 22.0143
0.75397 -0.602143 20.8077
0.307624 -1.10056 22.2632
0.250547 -0.39483 21.487
0.502852 -0.755851 22.1595
1.60901 -1.86511 18.5599
-0.0115255 -2.53238 18.5746
-0.012745 -3.01836 16.0017
-0.00932115 -0.841743 18.7401
-0.126666 -7.21288 21.3956
0.914628 -0.440134 18.8644
0.0041583 -1.97731 22.9677
0.0635407 0.0842316 9.80807
-0.170414 -0.0182466 16.4134
0.0340052 -0.345185 20.0553
-0.0171332 -0.276309 11.087
-0.055401 0.193009 17.1041
0.0300569 0.0572689 20.4573
0.201782 0.152449 11.6443
-0.0744569 1.03315 17.4348
0.149597 0.353247 19.9585
0.511935 -0.769014 -2.10415
0.468215 0.600646 8.70582
-0.607587 1.85278 18.1609
-0.223837 1.24692 16.0006
-0.351398 -0.434967 0.550215
0.00175297 0.826818 9.27186
2.73712 -0.59022 16.777
-0.0608457 2.07662 14.5691
-0.0123334 -0.324758 17.8556
0.178752 1.49737 2.07236
-0.00203257 0.065614 1.31337
-0.201608 -2.53091 -5.12819
-2.53854 0.939156 9.3048
-0.267832 -1.93917 3.79778
-0.530804 0.0312072 -0.158061
1.24971 1.60917 18.9748
-0.0107659 1.29065 19.6153
-0.0122296 0.903442 18.8072
-0.0417461 3.97251 19.4523
2.23718 2.1588 20.5645
-0.020547 2.00247 20.568
-0.0456361 5.08394 21.7712
1.34466 0.973144 22.6232
-0.0249906 1.09237 22.0396
-0.00842049 0.711785 22.3062
0.196306 -0.00485763 22.1256
-0.00435203 0.0415818 21.9891
0.0193494 -0.420094 21.974
-0.280083 -0.77227 21.9698
0.00872079 -0.398843 21.8912
0.028892 -1.18591 21.9818
-0.4211 -1.16024 22.1627
0.0138657 -0.78004 21.4569
-0.000352299 -1.40567 21.2866
1.25213 -0.599066 19.9019
1.24391 -1.10808 19.7081
1.95344 -0.973837 19.0847
0.729019 -0.464838 19.5187
2.52801 -1.8723 20.7752
1.01874 -0.643183 21.4802
0.957155 -0.852695 21.7807
1.05228 -1.03967 22.0523
0.232122 -0.35749 21.8078
0.201431 -0.220682 21.6689
0.207877 -0.11842 21.6816
-0.0639746 -0.149707 19.4285
0.171437 -0.0377948 21.439
-0.184048 0.147614 21.8794
-0.0142445 0.263744 21.9575
-0.245411 0.510492 18.7105
-0.413932 0.760575 21.4807
-0.69704 0.528483 21.7353
-0.368933 0.796165 21.6616
-0.985626 1.05422 19.7736
-0.980892 1.10438 22.0329
-1.02402 0.640588 21.1883
-0.904545 1.1572 21.3029
-1.93601 1.27616 20.1522
-1.13449 1.13559 21.2628
1.59896 -0.164707 19.6896
2.30188 0.566887 18.829
0.924737 -0.139783 19.2196
4.77984 -0.71231 20.5846
1.5427 -0.472921 21.5106
2.65295 -0.313306 21.686
0.701456 -0.997164 19.2992
0.447923 -0.380261 21.8404
1.02957 -0.736037 20.924
-0.0333875 0.301167 16.5438
-0.225848 -0.131728 21.8248
-0.0806104 -0.0648734 19.3517
-1.02036 0.499831 15.4625
-1.09179 -0.0426399 21.5924
-1.05229 -0.31201 19.3791
-1.8514 0.36266 18.2891
-1.41492 -0.132476 21.3263
-1.81374 -0.870907 20.6335
-2.14249 -0.0807252 18.858
1.07297 0.596386 19.9251
0.664883 0.751763 19.9835
0.696251 0.461426 19.5202
1.84076 1.42056 20.1489
1.45415 0.563408 20.9867
0.935762 0.995266 20.7931
1.95293 0.926008 21.6608
0.845615 0.182533 21.7921
0.561901 0.512468 21.7174
0.530429 0.152191 22.0488
0.112161 -0.117424 21.882
0.11179 -0.026506 21.8196
-0.16075 -0.36725 22.0025
-0.367886 -0.426971 21.6773
-0.130159 -0.309021 21.7203
-0.551179 -0.813013 22.0049
-0.654168 -0.613229 20.8342
-0.23574 -0.417209 21.505
-0.591798 -0.853948 21.992
-1.56383 -1.12815 19.4421
-0.981191 -0.865013 21.9945
-0.0559973 -0.0854038 21.5366
0.15599 0.362725 21.4472
0.565188 0.77978 21.4031
1.11191 1.27763 20.8994
-2.34698 -0.374885 18.7647
-1.88903 -1.07232 22.0416
-0.103948 -0.356752 17.773
0.366981 0.505257 15.7838
1.14932 0.813264 15.0542
2.8182 0.717858 19.0121
-1.30072 0.950493 19.5549
-1.99355 1.08361 20.9144
-1.10488 0.396382 22.0732
-0.147906 -0.0697275 22.0338
0.386842 -0.542132 21.8095
0.456159 -0.759342 22.4713
-0.0173751 -2.86736 17.5941
0.302291 -0.514903 10.9575
0.00670576 -0.0298848 10.5266
0.032815 0.233654 11.7592
0.62209 0.139996 10.2976
-0.171389 1.34531 9.71144
-0.0337513 -0.981017 14.0744
-0.0822925 -0.921265 -2.56342
-0.9822 -2.35631 -4.99624
-0.0285853 2.38934 18.3231
-0.0484171 3.63837 19.894
-0.0250853 1.82818 23.0106
0.00337032 0.165985 22.37
0.0208116 -0.748432 21.7008
-0.0566597 -1.66858 21.6539
1.5904 -1.13061 19.4178
1.01167 -0.86291 22.0207
0.0603517 -0.0822774 21.5465
-0.141081 0.369818 21.5713
-0.660111 0.909444 21.7444
-1.23246 1.38116 21.5091
2.3697 -0.340331 18.716
1.91315 -1.06297 21.6807
0.127844 -0.382175 17.758
-0.365487 0.469743 16.1364
-1.3535 0.463723 16.699
-2.23811 0.19477 18.9028
1.27755 0.985634 19.5378
1.96214 1.14168 20.8921
1.11832 0.428231 22.094
0.162556 -0.0783902 22.0516
-0.374265 -0.579731 21.8336
-0.586934 -0.83049 22.2651
-2.42257 -0.92348 4.25617
-0.0185846 -0.528454 1.1839
-0.0154496 0.00528588 0.0924501
-0.0760429 0.0840919 -0.000774106
-0.00383113 -0.000688803 -0.00428781
0 0 0
-5.37695 0.464929 4.33167
-0.579461 2.0901 2.29635
-0.150865 -0.148197 0.727436
0.0616399 0.0268859 0.160414
0.000416181 0.0101052 -0.00601613
0.00122009 0.00238133 0.0194122
0.0266137 -0.529846 1.18477
2.03449 -0.737476 3.35175
0 0 0
0.29052 -0.0493988 0.66439
0.0863169 0.0661893 -0.000833027
0 0 0
0.28618 1.19781 1.38038
1.81047 0.365814 1.15821
0.380222 -0.15112 1.51476
0.00227391 0.00979824 -0.00584472
-0.114738 0.0158128 0.347943
-0.000108154 0.000191387 0.00178148
0.0373959 -0.00574626 0.287915
0.00542506 -0.00115528 0.107015
-0.00104685 0.00269347 0.0827693
0 0 0
0 0 0
0.000868106 -0.000554815 0.0358257
-0.0066329 0.0180277 0.0650368
0 0 0
-0.136111 -0.109385 0.363718
0.000225812 0.00667275 0.060861
0.001394 0.00496866 0.014482
-0.165625 0.199998 0.464053
0.00606124 0.0149595 0.0810227
0.00517964 0.0208324 0.0977373
0.000715981 0.00213764 0.00716404
0.00378292 0.000601876 0.0355858
-0.0441352 -0.00831827 0.316049
0 0 0
-0.00848374 -0.00190323 0.157107
0.000828843 0.00215408 0.0728918
0.0137931 -0.0105307 0.709138
0 0 0
-0.00147368 -0.000424445 0.0425328
0.00111255 0.00296849 0.00963913
0.90771 -0.504776 1.34736
0.110651 0.204196 0.40334
-0.000180946 0.00449868 0.0430426
2.4907e-05 -8.91652e-05 -0.000255539
-0.00418798 0.0111254 0.0584618
-0.00183648 0.000294309 0.017578
-0.00115458 0.00453481 0.0195416
-0.000781084 0.00227482 0.00760309
0 0 0
-0.0454538 0.0105457 0.0164828
-1.49351 -2.31612 7.95464
-8.42148e-05 -0.0639022 -0.00145378
-0.00115065 -0.0112617 0.19833
0 0 0
0.000278447 0.000480307 0.00693955
0 0 0
0.00253226 -3.62626e-06 -4.42703e-05
0 0 0
0 0 0
-1.74126e-06 -2.58262e-07 -4.85848e-05
-0.105689 1.18357 0.168035
-2.27338e-05 0.00216405 0.0146633
-0.0174228 -0.120251 0.381351
0 0 0
0.000923784 0.0130257 -0.00374147
2.55537e-06 -7.89479e-06 0.000258507
0 0 0
0.000294782 -7.82359e-05 0.00362958
0 0 0
0 0 0
-1.52624e-19 1.39208e-20 5.67147e-18
0.000730287 -0.00865607 0.148097
0.000255174 0.000387681 -1.32772e-05
-0.000388789 0.000562841 0.00976096
-1.83552e-06 3.53713e-07 6.69156e-05
0 0 0
0.000638573 -9.5089e-06 0.000100192
0.00722977 -0.070838 0.222976
-0.000417093 -0.0001232 0.00558726
0 0 0
-0.00295536 0.0098896 0.102575
5.02637e-18 -5.70916e-19 9.6172e-17
0 0 0
0 0 0
0.0381758 0.00954715 0.191745
-0.000426821 0.000419752 0.0357409
0 0 0
-0.00375691 0.00641531 0.0902842
-0.000634177 0.00016104 0.04729
0.000203756 5.6092e-05 0.0326634
0.00599406 0.0486146 0.171427
0.0152474 0.00320067 0.146482
8.94746e-05 -0.00111673 0.00127194
6.15645e-07 9.86556e-07 0.000337942
-1.00045e-06 1.418e-07 -6.24691e-05
1.83312e-05 -1.76285e-05 0.00163957
1.91899e-18 1.69323e-19 -3.29299e-17
0.00198335 0.00681079 0.0715437
0 0 0
0 0 0
2.4061e-19 -1.11214e-17 -5.47307e-17
0.00184396 0.00263474 0.042696
-0.0123017 0.00271003 0.130705
-0.00417517 0.0424777 0.152864
-0.00497819 -0.00199086 0.155619
-0.0238188 -0.0511973 0.259688
0 0 0
-0.000238796 -0.00195021 0.0193241
-0.00291842 0.0073043 0.0871193
0.000174924 0.00243663 0.0103972
-0.00302872 0.0100833 0.088562
0.00765895 0.0600022 0.243826
0 0 0
0.00581916 0.0163571 0.0911221
2.63321e-05 5.14325e-05 0.000684305