# vtk DataFile Version 2.0
tri_press
ASCII
DATASET UNSTRUCTURED_GRID
POINTS 3682 float
-0.765 0.175 -1.73512
-0.879837 0.265 1.815
-0.735 0.820276 -1.625
-0.735 0.947165 1.775
0.765 0.175 -1.73512
0.879838 0.265 1.815
0.735 0.820276 -1.625
0.735 0.947165 1.775
-0.820668 0.187611 -0.551747
-0.872894 0.203664 0.631627
-0.796994 0.924566 -0.491667
-0.793935 0.963803 0.641667
0.820653 0.187627 -0.551747
0.872896 0.203663 0.631627
0.796768 0.924341 -0.491667
0.793947 0.963815 0.641667
-1.5656 -0.221108 -2.68841
-1.56889 -0.182778 -1.76175
-1.61699 -0.167599 -0.577087
-1.66631 -0.153848 0.617651
-1.68038 -0.110134 1.80317
-1.68297 -0.0814719 2.73398
-1.68558 -0.0588648 3.6571
-1.56071 0.12462 -2.65134
-1.56071 0.172916 -1.73015
-1.61912 0.197659 -0.55522
-1.66701 0.209608 0.624215
-1.66916 0.246964 1.8001
-1.6788 0.274617 2.73021
-1.68603 0.297818 3.65496
-1.54837 0.802377 -2.56316
-1.53822 0.850113 -1.6399
-1.5941 0.927629 -0.499079
-1.60491 0.956024 0.638194
-1.57273 0.954031 1.77997
-1.62787 0.980674 2.71214
-1.66699 1.00974 3.64497
-1.55756 1.87515 -2.4685
-1.55806 1.9286 -1.55274
-1.5795 2.00475 -0.428143
-1.59668 2.05186 0.685665
-1.6051 2.06657 1.81078
-1.62431 2.07926 2.72764
-1.6503 2.09999 3.655
-0.780346 -0.220717 -2.69164
-0.769565 -0.181129 -1.76646
-0.8037 -0.172832 -0.576455
-0.843859 -0.157716 0.623977
-0.858008 -0.100904 1.81423
-0.866883 -0.0754994 2.74148
-0.872518 -0.056381 3.66144
-0.782396 0.121826 -2.65234
-0.87766 0.280444 2.7364
-0.879679 0.299765 3.65824
-0.77312 0.789218 -2.55697
-0.837871 0.979026 2.71115
-0.870619 1.00885 3.64475
-0.771523 1.86693 -2.46238
-0.767113 1.92129 -1.54599
-0.783607 2.00385 -0.424079
-0.801379 2.054 0.685178
-0.812304 2.06596 1.8073
-0.830726 2.07738 2.72416
-0.853906 2.09829 3.65247
0.775886 -0.220742 -2.69164
0.795168 -0.181139 -1.76646
0.834039 -0.17283 -0.576455
0.8693 -0.157718 0.623977
0.867848 -0.100906 1.81423
0.811399 -0.0755031 2.74148
0.775546 -0.0563875 3.66144
0.756677 0.121805 -2.65234
0.785726 0.280441 2.7364
0.757377 0.299759 3.65824
0.746235 0.789188 -2.55697
0.735743 0.979023 2.71115
0.733594 1.00884 3.64475
0.78715 1.86687 -2.46238
0.796962 1.92121 -1.546
0.79984 2.00377 -0.424079
0.786019 2.05395 0.685178
0.765471 2.06594 1.8073
0.751512 2.07736 2.72416
0.739469 2.09827 3.65247
1.56319 -0.221172 -2.68841
1.58349 -0.182834 -1.76175
1.63827 -0.167633 -0.577087
1.69032 -0.153859 0.617651
1.69204 -0.110141 1.80317
1.64336 -0.081482 2.73398
1.60239 -0.0588802 3.6571
1.5422 0.124552 -2.65134
1.55746 0.172839 -1.73015
1.62085 0.197598 -0.55522
1.67646 0.209602 0.624215
1.67431 0.246959 1.8001
1.61895 0.274609 2.73021
1.58293 0.297804 3.65496
1.52787 0.802289 -2.56316
1.53369 0.849989 -1.6399
1.59249 0.927417 -0.499079
1.6087 0.956001 0.638194
1.57085 0.954027 1.77997
1.55604 0.980665 2.71214
1.54882 1.00973 3.64497
1.56967 1.87502 -2.4685
1.58043 1.92846 -1.55274
1.59184 2.0046 -0.428143
1.58462 2.05178 0.685665
1.5644 2.06653 1.81078
1.55143 2.07923 2.72764
1.54223 2.09995 3.655
-0.779276 0.497638 -1.70934
0 0.176997 -1.73312
-0.804268 0.169872 -1.14343
-0.831371 0.606082 1.81895
5.06639e-07 0.256905 1.8231
-0.882984 0.227714 1.22331
0 0.870049 -1.67477
-0.798017 0.904441 -1.05833
0 0.962579 1.79041
-0.774859 0.965876 1.20833
0.779296 0.497638 -1.70936
0.804215 0.169924 -1.14343
0.831368 0.606082 1.81895
0.882914 0.227785 1.22331
0.798017 0.904442 -1.05833
0.774864 0.965881 1.20833
-0.844056 0.198362 0.03994
-0.896517 0.556088 -0.521707
-7.8568e-06 0.18917 -0.551747
-0.892849 0.583734 0.636647
9.04108e-07 0.195676 0.631627
-0.795385 0.944105 0.075
-0.000112677 1.27865 -0.491667
5.97432e-06 1.43642 0.641667
0.844134 0.198285 0.03994
0.89652 0.555984 -0.521707
0.892851 0.583739 0.636647
0.795377 0.944097 0.075
-0.888523 0.526863 -1.10088
0.888515 0.526811 -1.10088
-3.9284e-06 0.167067 -1.14343
-5.63385e-05 1.05362 -1.05833
0 0.497638 -2.06142
-0.897725 0.569911 0.05747
0.897725 0.569861 0.05747
-3.47635e-06 0.19242 0.03994
-5.33513e-05 1.42721 0.075
-0.887461 0.594908 1.21582
0.887461 0.594911 1.21582
7.05374e-07 0.224342 1.22331
2.98716e-06 1.33679 1.20833
2.5332e-07 0.606082 2.01134
-0.765317 0.336319 -1.71541
-0.3825 0.177142 -1.73298
-0.790403 0.166666 -1.43928
-0.860481 0.435541 1.82185
-0.439918 0.253407 1.82659
-0.887953 0.239814 1.51916
-0.781 0.658957 -1.69103
-0.3675 0.864685 -1.66941
-0.784687 0.880537 -1.34167
-0.77482 0.776624 1.78861
-0.3675 0.951093 1.77893
-0.769427 0.971018 1.49167
0.3825 0.176852 -1.73327
0.765361 0.336319 -1.71545
0.79038 0.166689 -1.43928
0.439919 0.253531 1.82647
0.860482 0.435541 1.82185
0.887941 0.239828 1.51916
0.3675 0.864685 -1.66941
0.781234 0.658957 -1.69126
0.784337 0.880187 -1.34167
0.3675 0.951088 1.77892
0.774822 0.776624 1.78861
0.769527 0.971118 1.49167
-0.81807 0.173139 -0.84759
-0.833012 0.192337 -0.255903
-0.872599 0.364847 -0.536727
-0.41154 0.185986 -0.551747
-0.887213 0.206415 0.92747
-0.856657 0.202831 0.335783
-0.872107 0.399081 0.634137
-0.438104 0.196356 0.631627
-0.804041 0.921039 -0.775
-0.876678 0.755288 -0.506687
-0.795663 0.933809 -0.208333
-0.473468 1.25144 -0.491667
-0.781394 0.961836 0.925
-0.859409 0.781777 0.639157
-0.796178 0.955473 0.358333
-0.505641 1.41746 0.641667
0.818032 0.173178 -0.84759
0.411529 0.185986 -0.551747
0.833011 0.192338 -0.255903
0.872599 0.364799 -0.536727
0.88669 0.206938 0.92747
0.438105 0.196356 0.631627
0.856257 0.203232 0.335783
0.872111 0.399082 0.634137
0.804075 0.921074 -0.775
0.4733 1.25144 -0.491667
0.876706 0.755193 -0.506687
0.79567 0.933816 -0.208333
0.781405 0.961848 0.925
0.505666 1.41749 0.641667
0.859411 0.781783 0.639157
0.796183 0.955478 0.358333
-0.887598 0.512251 -1.40511
-0.389638 0.497638 -1.99176
-1.9642e-06 0.164658 -1.43828
0 0.337318 -2.0505
-0.889759 0.348367 -1.12216
-0.402136 0.167067 -1.14343
-0.886541 0.600495 1.51739
-0.415685 0.606082 2.00442
6.06007e-07 0.232557 1.5232
3.7998e-07 0.431494 2.06025
-0.888794 0.411311 1.21957
-0.441492 0.224342 1.22331
-2.81692e-05 0.966875 -1.36655
0 0.683843 -1.98866
-0.885437 0.715652 -1.07961
-0.399037 1.03126 -1.05833
1.49358e-06 1.22342 1.49937
1.2666e-07 0.784331 1.91035
-0.857733 0.780392 1.21208
-0.387428 1.33395 1.20833
0.887599 0.512224 -1.40512
0.389648 0.497638 -1.99179
0.889759 0.348367 -1.12216
0.402106 0.167067 -1.14343
0.886536 0.600497 1.51739
0.415684 0.606082 2.00483
0.888793 0.411348 1.21957
0.441457 0.224342 1.22331
0.885437 0.715626 -1.07961
0.398981 1.03126 -1.05833
0.857733 0.780396 1.21208
0.387433 1.33404 1.20833
-0.87463 0.382267 0.048705
-0.424519 0.190412 0.03994
-0.881239 0.541476 -0.811295
-0.899574 0.563 -0.232118
-5.8926e-06 0.169484 -0.84759
-5.66657e-06 0.190794 -0.255903
-0.896326 0.576822 0.347058
-0.882 0.589321 0.926235
-1.28612e-06 0.194046 0.335783
8.04741e-07 0.19909 0.92747
-0.867895 0.767678 0.066235
-0.505733 1.40169 0.075
-8.45077e-05 1.1731 -0.775
-8.30141e-05 1.37216 -0.208333
-2.36885e-05 1.44697 0.358333
4.48074e-06 1.39398 0.925
0.874629 0.382223 0.048705
0.424535 0.190412 0.03994
0.878651 0.541397 -0.811295
0.899574 0.562922 -0.232118
0.896344 0.5768 0.347058
0.882 0.589325 0.926235
0.867906 0.767657 0.066235
0.505678 1.40169 0.075
-0.889586 0.342343 -1.42219
-0.888055 0.360108 -0.829443
-0.880064 0.72799 -0.793148
-0.885596 0.687305 -1.37339
0.889586 0.342343 -1.4222
0.885597 0.687292 -1.37339
0.880051 0.727894 -0.793148
0.888061 0.360086 -0.829443
-0.392318 0.164654 -1.43878
0.392303 0.164654 -1.43878
0.406214 0.169484 -0.84759
-0.406237 0.169484 -0.84759
-0.383268 0.956277 -1.35411
-0.398795 1.15441 -0.775
0.398654 1.15443 -0.775
0.38324 0.956278 -1.35411
-0.386069 0.336818 -1.98587
-0.378569 0.6714 -1.93829
0.378574 0.6714 -1.93751
0.386074 0.336818 -1.98587
-0.873734 0.373497 -0.244011
-0.875349 0.389684 0.341421
-0.86383 0.774817 0.352696
-0.872256 0.761468 -0.220226
0.873737 0.373449 -0.244011
0.872256 0.7614 -0.220226
0.863843 0.774812 0.352696
0.875351 0.389662 0.341421
-0.41803 0.188198 -0.255903
0.418033 0.188198 -0.255903
0.431698 0.192628 0.335783
-0.431689 0.192628 0.335783
-0.507303 1.36197 -0.208333
-0.511756 1.42171 0.358333
0.51171 1.42167 0.358333
0.507147 1.36188 -0.208333
-0.869314 0.402505 0.926853
-0.888611 0.423426 1.51827
-0.848446 0.778508 1.50453
-0.859086 0.77708 0.925618
0.869349 0.402524 0.926853
0.859084 0.777087 0.925618
0.848425 0.77851 1.50453
0.888611 0.423444 1.51827
-0.438969 0.19909 0.92747
0.438953 0.19909 0.92747
0.440688 0.232519 1.52118
-0.440705 0.232519 1.52118
-0.392196 1.39015 0.925
-0.377464 1.20921 1.49552
0.377467 1.20922 1.49552
0.392205 1.39015 0.925
-0.427802 0.433517 2.049
0.427802 0.433517 2.049
0.391592 0.780477 1.91596
-0.391593 0.780477 1.91581
-0.777776 0.25566 -1.73788
-0.57375 0.177778 -1.73234
-0.783392 0.165143 -1.5872
-0.885619 0.350271 1.83389
-0.659878 0.251314 1.82869
-0.890574 0.245728 1.66708
-0.758462 0.739617 -1.65848
-0.55125 0.856337 -1.66106
-0.775004 0.865567 -1.48333
-0.759347 0.861894 1.78624
-0.55125 0.95341 1.78125
-0.756101 0.962979 1.63333
0.57375 0.17736 -1.73276
0.777751 0.25566 -1.73786
0.78339 0.165145 -1.5872
0.659879 0.25157 1.82843
0.885798 0.350271 1.83406
0.890575 0.245728 1.66708
0.55125 0.85632 -1.66104
0.758631 0.739617 -1.65865
0.775011 0.865574 -1.48333
0.55125 0.953408 1.78124
0.759344 0.861894 1.78624
0.756194 0.963072 1.63333
-0.815306 0.184438 -0.699668
-0.826967 0.189847 -0.403825
-0.886696 0.256197 -0.544237
-0.616321 0.186365 -0.551747
-0.881353 0.20374 0.779548
-0.86441 0.203613 0.483705
-0.866108 0.304569 0.632882
-0.657877 0.195253 0.631627
-0.798302 0.920587 -0.633333
-0.853751 0.848385 -0.499177
-0.79573 0.928589 -0.35
-0.688982 1.1955 -0.491667
-0.787812 0.962967 0.783333
-0.841921 0.880415 0.640412
-0.796154 0.960736 0.5
-0.663861 1.21878 0.641667
0.815165 0.184579 -0.699668
0.616312 0.186365 -0.551747
0.82697 0.189844 -0.403825
0.886701 0.256175 -0.544237
0.881379 0.203715 0.779548
0.657879 0.195253 0.631627
0.864453 0.203571 0.483705
0.866111 0.304569 0.632882
0.798349 0.920634 -0.633333
0.688892 1.19561 -0.491667
[...]
POINT_DATA 3682
SCALARS point_scalars float 1
LOOKUP_TABLE default
-74.7935
-57.345
-35.3597
-44.0173
-73.2674
-57.6117
-35.5563
-44.3362
-41.6209
-37.3378
-64.0017
-49.1009
-41.5449
-37.4068
-63.9917
-49.1192
-69.9087
-127.53
-41.1482
-37.2285
-52.015
-56.5574
-47.0231
-7.11687
-145.23
-41.567
-38.7164
-53.0641
-52.961
-42.5405
34.3186
-131.447
-55.0611
-44.2682
-49.4163
-41.7274
-41.8401
-29.0152
-71.6323
-88.4835
-56.6222
-41.2434
-45.4299
-43.7959
-91.4395
-162.442
-43.1841
-38.5809
-53.0779
-45.6599
-43.1053
41.91
-41.6747
-41.6747
114.648
-41.119
-41.4594
-6.44464
-29.9617
-80.8729
-59.5497
-40.4676
-39.7439
-38.8731
-83.5322
-161.183
-42.832
-38.1824
-53.4929
-43.4723
-43.3354
43.1714
-41.7947
-41.6706
114.557
-41.0648
-41.3605
-6.57981
-31.6276
-81.7095
-61.0758
-40.2661
-38.2024
-38.2921
-68.3349
-134.861
-41.2519
-37.2978
-52.265
-55.492
-45.9235
-1.75905
-146.801
-41.6064
-38.8215
-53.2978
-51.5395
-42.6555
34.411
-131.703
-55.0374
-44.3649
-49.6829
-41.9344
-41.9941
-29.3033
-71.8731
-88.5856
-56.5828
-41.4769
-45.7466
-40.1314
2.37398
-101.403
-62.8224
-48.9187
-46.3122
-41.1317
-17.6021
-56.4926
-33.6053
-44.5152
2.31036
-62.6604
-49.2668
-41.1472
-56.5759
-44.695
-38.1725
-47.4467
-44.3682
-41.3323
-41.3629
-54.7359
-36.2034
-68.6204
-38.1141
-47.4615
-41.4172
-54.7565
-67.237
-67.2773
-64.1342
5.33514
205.74
-43.3672
-43.4074
-39.048
-87.31
-42.4494
-42.5821
-42.592
-42.6807
-34.0579
10.2841
-105.819
-91.757
-53.8063
-48.3456
-43.7834
-11.9554
-28.6949
-70.9602
-45.8739
-35.7883
-43.5971
-105.856
10.922
-91.1296
-48.8549
-54.0352
-43.9529
-28.6781
-12.0401
-70.9527
-36.1996
-46.2063
-43.8388
-52.0417
-40.0085
-44.9153
-43.7442
-43.9676
-37.3059
-39.5323
-40.6857
-69.2507
-53.4024
-58.9176
-36.0103
-45.3004
-43.3508
-51.4738
-62.5376
-51.9559
-43.7195
-40.0083
-44.9412
-44.3954
-40.7379
-37.1977
-39.6215
-69.1924
-36.0293
-53.3861
-58.9148
-45.4469
-62.5828
-43.4424
-51.3657
-104.169
164.07
-80.494
180.454
-67.6435
-64.2112
-46.1949
-39.9566
-44.5622
-37.1547
-42.0337
-42.2518
-16.8349
89.6388
-67.3073
-2.04917
-34.7856
-32.6421
-43.3019
-43.5877
-104.187
163.924
-67.6957
-64.1722
-46.3959
-40.2196
-42.1388
-42.3138
-67.3414
-3.04654
-43.4639
-43.6923
-41.0335
-38.7365
-53.4916
-45.1329
-55.0874
-40.2296
-42.1228
-39.5323
-39.5748
-45.0236
-47.5197
-80.6354
-15.0883
-74.9098
-81.6603
-53.8232
-41.0798
-38.743
-53.4614
-45.1511
-42.1866
-39.6352
-47.557
-80.6529
-108.107
-53.7941
-57.3768
-96.3641
-108.156
-96.4702
-57.348
-53.7894
-82.8086
-82.8095
-54.5208
-54.5145
-22.7609
-17.5614
-17.5793
-22.6054
149.993
94.8205
95.1628
149.301
-42.5457
-39.9488
-45.2433
-50.3368
-42.5736
-50.3438
-45.3136
-40.008
-39.9641
-39.9538
-39.2335
-39.2093
-86.0814
-70.3609
-70.3839
-86.006
-36.7964
-45.5354
-46.331
-41.9552
-36.9084
-42.0685
-46.5691
-45.7167
-44.3229
-44.48
-44.9623
-44.7737
-54.0026
-36.1587
-36.3468
-54.053
-41.3409
-41.4263
-38.8114
-38.408
-3.74076
-122.676
-127.689
-55.7668
-50.7368
-48.2512
-30.2473
-34.4979
-75.202
-45.4463
-36.9964
-42.3966
-122.938
1.07257
-129.441
-51.4182
-56.2172
-48.4556
-34.6331
-30.6141
-75.2401
-37.3487
-45.8014
-42.6913
-45.1029
-40.9125
-43.2235
-43.2494
-38.2681
-36.6604
-39.0288
-39.9225
-66.2343
-57.4943
-61.5063
-77.7242
-47.2283
-46.2857
-49.6758
-53.6248
-45.0021
-43.2105
-40.8497
-43.2791
-38.3108
-39.9888
-36.7177
-39.1259
-66.2332
-77.6792
-57.442
-61.4037
-47.386
-53.6856
-46.3953
-49.5722
7.71444
0.446142
-151.984
99.3583
-100.907
-100.761
-89.664
31.7907
-73.3871
-55.7505
-66.1388
-64.1605
-50.9822
-45.8487
-50.2688
-40.6772
-47.0412
-47.1737
-46.9762
-39.8069
-42.1548
-41.2163
-41.5569
-41.9263
-20.8199
-20.7221
-19.7461
24.2161
-57.6664
-64.6581
-63.5543
-19.3855
-34.2669
-34.6358
-33.3703
-32.2189
-43.954
-44.5505
-43.8738
-45.959
7.83853
0.505108
-151.891
99.6638
-73.1343
-55.6437
-66.1918
-64.0928
-51.2343
-46.1548
-50.5222
-40.8721
-42.2819
-40.8729
-41.6643
-41.987
-57.9436
-64.4194
-63.6042
-20.2261
-44.1561
-44.7121
-44.0343
-46.1155
-38.7382
-37.7927
-40.1079
-38.4396
-46.0162
-49.9698
-49.3874
-46.1222
-44.167
-44.1552
-47.9836
-41.7472
-40.4948
-42.13
-41.745
-40.3612
-41.1767
-41.2036
-40.2336
-42.7198
-56.7449
-53.139
-50.7014
-66.8053
-35.7848
-35.7838
-24.2904
-53.7536
-67.8438
-67.8728
-75.6733
-60.8324
-38.6832
-38.0625
-40.1456
-38.4491
-46.0384
-49.9701
-49.4257
-46.1365
-40.58
-42.2169
-41.82
-40.4584
-56.7579
-53.2835
-50.7373
-66.8292
-80.528
-67.9607
-66.6517
-59.2416
-80.5751
-68.0065
-66.6942
-59.2827
-71.3972
-64.1037
-64.0836
-58.2644
0.359977
3.79851
3.74037
-2.93077
194.951
200.944
181.791
194.986
-42.0328
-44.252
-42.658
-45.4182
-42.0762
-44.2804
-42.7104
-45.4575
-38.9235
-39.3918
-39.1133
-38.927
-85.6587
-86.34
-85.3386
-85.6707
-43.9737
-42.2654
-42.0774
-39.2807
-44.1374
-42.3854
-42.2166
-39.3937
-43.7714
-42.5395
-42.5701
-43.7827
-37.9414
-42.7779
-42.8323
-47.5901
-36.3283
-35.146
-33.351
-36.59
-154.942
69.3587
-94.0224
23.4645
-105.44
-86.5436
-49.3151
-41.7815
-47.7688
-42.8357
-44.9851
-44.9288
-122.823
71.0509
-26.8971
28.7259
-81.2592
-32.6312
-48.6449
-40.002
-35.0106
-37.5418
-44.1888
-39.0477
-94.6269
23.6861
-155.299
68.8951
-105.349
-86.4965
-48.0852
-43.3192
-49.5233
-41.9084
-45.1656
-45.1417
-26.8194
28.5652
-122.382
71.094
-81.2862
-32.4945
-35.2858
-38.0377
-48.9285
-40.2985
-44.4254
-39.2703
-52.464
-53.6868
-41.6767
-39.7201
-47.3534
-43.6139
-47.2666
-41.407
-37.5672
-43.5651
-39.8878
-38.6202
-39.8099
-38.4172
-39.6987
-42.0449
-61.7149
-32.6982
-54.7758
-51.8162
-53.8452
-76.728
-28.0033
-50.0734
-44.0855
-51.8687
-44.3153
-42.4489
-48.3601
-58.4252
-66.6887
-59.8431
-52.4769
-53.5481
-47.235
-41.3892
-41.7139
-39.7031
-47.3634
-43.6398
-37.6925
-43.8392
-39.7338
-42.1023
-39.9122
-38.6492
-39.8858
-38.5224
-61.6895
-32.7008
-28.0036
-50.0728
-54.7645
-51.8104
-53.845
-76.7372
-44.2141
-51.94
-66.7256
-59.8912
-44.3928
-42.5509
-48.4821
-58.4572
-107.38
-99.7425
157.772
153.551
-80.9051
-80.8899
181.107
180.591
-81.5158
-58.7145
-72.1702
-58.2537
-45.9098
-47.4386
-40.6997
-39.0236
-44.6844
-44.5891
-39.0046
-39.1059
-41.2389
-43.3681
-43.9497
-43.6605
-19.176
-19.2494
90.664
88.4521
-61.4386
-78.2278
-10.8954
-6.05615
-35.1035
-35.2121
-34.9706
-34.6389
-44.5164
-42.1352
-48.4294
-39.2168
-107.448
-99.7916
153.392
156.714
-81.5776
-58.7466
-72.1438
-58.2115
-47.667
-46.0984
-40.8545
-39.3723
-41.3072
-43.5175
-43.6057
-43.7823
-78.2883
-61.4434
-6.26367
-10.1897
-42.2561
-44.7162
-39.3792
-48.5076
-41.7001
-40.6669
-39.1099
-38.7683
-53.7498
-54.0855
-43.6405
-47.4878
-55.0967
-55.1144
-40.1232
-40.1185
-40.8609
-43.7178
-37.2367
-40.5744
-39.4726
-39.4598
-44.9751
-45.0442
-46.3857
-48.8223
-85.3326
-74.5326
-15.7877
-15.9101
-76.3659
-76.349
-79.6402
-79.6751
-53.9332
-53.9562
-41.7334
-40.7371
-39.1074
-38.7839
-54.0488
-53.7023
-43.6642
-47.5018
-43.784
-40.924
-37.3396
-40.6873
-48.8451
-46.4358
-74.565
-85.3549
-143.846
-79.3166
-81.9191
-155.669
-46.2647
-48.3553
-59.2184
-57.6093
-59.9432
-62.5824
-60.0592
-51.3404
-106.236
-143.689
-78.3583
-68.1443
-147.556
-155.912
-81.9782
-79.3773
-106.145
-68.292
-78.4106
-143.815
-59.9234
-51.3407
-60.0961
-62.5492
-46.2153
-57.6455
-59.2514
-48.3743
-104.86
-89.9199
-71.4982
-73.4441
-105.714
-73.3788
-71.4802
-90.3898
-46.4661
-47.741
-58.1505
-57.5927
-46.5125
-57.657
-58.1709
-47.7553
-41.9624
-28.8295
-0.321726
-20.4312
-69.8671
-23.8753
-3.40603
-18.8551
-69.7929
-18.7508
-3.3757
-23.8676
-41.9651
-20.2014
-1.97629
-28.6422
-3.69924
108.33
191.589
48.877
36.5212
20.2718
175.666
87.2013
36.5438
87.7684
175.792
20.2068
-2.75535
47.5836
191.758
107.984
-42.8155
-40.4686
-42.7772
-44.6808
-39.1115
-40.6503
-41.4778
-39.8716
-46.3095
-49.3064
-44.5249
-42.8793
-55.635
-48.6114
-46.5235
-52.1692
-42.8578
-44.7019
-42.8093
-40.5038
-55.6172
-52.1896
-46.548
-48.6163
-46.3566
-42.9556
-44.5766
-49.3589
-39.1991
-40.1099
-41.5354
-40.7256
-41.0512
-41.5953
-39.2729
-38.8767
-41.0236
-38.8694
-39.2721
-41.5868
-38.9574
-40.1193
-39.0165
-38.3728
-38.9163
-38.344
-39.0085
-40.1005
-85.2791
-71.3663
-86.6045
-50.8664
-55.6964
-74.199
-83.363
-62.4831
-55.7257
-62.5102
-83.3849
-74.2205
-85.1534
-50.9037
-86.5788
-71.398
-37.9656
-40.8283
-40.7402
-39.2592
-48.8766
-49.3811
-43.74
-42.8338
-45.4585
-44.1215
-43.6343
-50.9836
-45.2663
-41.1845
-40.2598
-43.757
-38.083
-39.3582
-40.8398
-40.8195
-45.398
-43.8981
-40.3687
-41.2829
-45.7863
-51.2647
-43.8125
-44.3324
-49.0834
-42.9851
-43.8946
-49.6039
-41.1631
-42.5495
-43.9155
-43.2965
-41.2702
-42.9817
-43.8845
-42.6778
-49.7933
-47.2632
-43.7977
-43.6321
-49.4151
-43.487
-43.7336
-47.1354
-51.2502
-49.835
-47.7486
-60.743
-36.8803
-33.8837
-38.1543
-42.7958
-37.1509
-42.9694
-38.2541
-34.0664
-51.3314
-60.726
-47.7891
-49.9426
-43.5777
-41.0384
-37.5326
-41.3854
-43.7056
-41.518
-37.7088
-41.1336
-39.8606
-34.7414
-35.6881
-40.5116
-39.491
-40.2524
-35.3842
-34.3547
-41.6025
-128.235
-154.893
-56.5183
-53.2354
-53.4926
-30.8462
-29.5984
-76.1429
-44.7719
-38.1822
-42.3063
-126.011
-38.5704
-158.163
-53.6844
-56.9726
-53.7605
-29.5789
-31.1516
-76.2156
-38.51
-45.1265
-42.6191
-42.9466
-41.7981
-39.6114
-42.8923
-36.7775
-35.7985
-38.2899
-39.1638
-65.0101
-60.7068
-62.7595
-75.5289
-48.3026
-47.863
-49.576
-50.8419
-42.8403
-42.8435
-41.7345
-39.6029
-36.8531
-39.2272
-35.8644
-38.3894
-65.0844
-75.5601
-60.6718
-62.6402
-48.4794
-50.9192
-47.9959
-49.6421
6.09689
2.01321
-91.6778
40.5612
-101.094
-100.923
-93.5487
-146.797
-67.5434
-58.8862
-64.1692
-63.5604
-49.5958
-47.4855
-52.3364
-41.6367
-46.5626
-46.627
-47.3568
-41.4575
-41.7092
-40.8463
-40.8829
-41.544
-18.4505
-18.3612
-18.7433
-8.47776
-57.9651
-61.5031
-60.4259
-42.9561
-33.7917
-33.9899
-33.0961
-33.643
-44.0227
-44.5478
-44.192
-47.3767
6.0955
1.96118
-92.4611
40.7304
-67.3586
-58.7521
-64.1368
-63.4684
-49.9382
-47.7773
-52.6108
-41.8615
-41.8248
-40.5665
-40.9434
-41.6148
-58.1736
-61.3588
-60.5218
-43.9806
-44.2139
-44.7205
-44.3651
-47.5334
-38.3327
-37.9524
-38.8935
-38.1811
-46.7043
-48.6341
-48.3368
-46.8072
-44.2716
-44.2658
-46.1118
-42.8438
-40.8645
-41.874
-41.6553
-40.8005
-41.2657
-41.2786
-40.6351
-42.074
-55.6325
-53.584
-53.2199
-59.7097
-36.1272
-36.1319
-29.6601
-44.3173
-68.4533
-68.4686
-72.2298
-64.8669
-38.3082
-37.9613
-38.8917
-38.1826
-46.7234
-48.6419
-48.3566
-46.8205
-40.9491
-41.9605
-41.7342
-40.8923
-55.6478
-53.6072
-53.2474
-59.7258
-73.1176
-67.6475
-66.9897
-62.76
-73.1616
-67.689
-67.0315
-62.7979
-67.5511
-64.1816
-64.1721
-61.175
4.90769
4.606
4.65137
2.38104
200.622
200.839
193.108
200.616
-42.5149
-43.7608
-43.0148
-44.5195
-42.5566
-43.794
-43.0603
-44.5587
-38.9969
-39.1641
-39.0349
-38.9988
-86.9879
-86.3144
-87.0538
-87.0023
-43.1773
-42.382
-42.4167
-41.3382
-43.3269
-42.5083
-42.5559
-41.4554
-43.03
-42.5826
-42.5957
-42.4274
-40.2287
-42.6728
-42.6996
-45.0189
-34.615
-34.6601
-33.507
-34.7876
4.72236
8.5823
-68.459
46.5773
-111.256
-102.155
-98.9698
-104.62
-110.184
-80.7902
-99.3331
-88.4937
-55.2773
-52.5353
-53.4368
-43.6709
-49.318
-47.5662
-48.6175
-44.5522
-45.3633
-43.0099
-44.2164
-44.6033
-24.2337
-3.93834
-86.526
36.3155
-33.9026
-24.1606
-30.2589
-18.7158
-76.6187
-62.4753
-80.6102
-48.1315
-45.8166
-45.6394
-50.396
-41.0169
-36.3487
-35.0251
-35.2532
-36.6636
-42.9865
-43.4531
-43.8494
-41.4022
-111.269
-102.077
-99.621
-104.489
7.15747
8.85066
-68.7492
47.3925
-108.663
-80.4474
-99.063
-88.3154
-50.3847
-47.7899
-49.0347
-44.6557
-55.506
-52.768
-53.6574
-43.851
-45.5469
-43.1752
-44.3951
-44.7849
-33.8996
-24.092
-30.2096
-18.7634
-24.6643
-3.86048
-87.369
36.3846
-76.7991
-62.5199
-80.5828
-48.0789
-36.7272
-35.4553
-35.6051
-37.1999
-46.1673
-45.9576
-50.697
-41.296
-43.2511
-43.6607
-44.0912
-41.6358
-49.1661
-53.2039
-51.3553
-53.7588
-40.2036
-39.3211
-40.9466
-39.6459
-44.5272
-45.3417
-45.7626
-44.2095
-43.4885
-44.0174
-45.2474
-42.4067
-40.0293
-42.634
-40.3763
-43.2603
-36.632
-38.0067
-39.1136
-38.1081
-39.13
-40.0673
-39.7976
-39.0402
-40.3781
-40.9204
-40.1356
-41.3062
-68.4882
-69.0557
-64.8722
-65.5126
-55.2621
-51.6509
-54.0758
-52.6285
-59.9857
-57.6839
-56.8507
-64.9162
-44.9723
-35.5731
-31.7704
-44.1304
-46.4462
-45.0931
-44.9523
-47.3611
-44.3562
-42.6125
-43.7937
-42.9077
-49.7512
-51.9845
-50.027
-55.1964
-56.3529
-66.637
-64.415
-62.4043
-49.0965
-53.1154
-51.3444
-53.7095
-43.4571
-43.9992
-45.2195
-42.3856
-40.1792
-39.2837
-40.9546
-39.6263
-44.5623
-45.3662
-45.7871
-44.2369
-40.3745
-42.6728
-40.559
-43.5521
-40.4391
-40.9606
-40.1784
-41.3699
-36.604
-38.1218
-38.7603
-38.1139
-39.2212
-40.1543
-39.8784
-39.1378
-68.4576
-68.9229
-64.8453
-65.3946
-45.1037
-35.5537
-31.7612
-44.2108
-55.2347
-51.6429
-54.068
-52.614
-59.9865
-57.6896
-56.8471
-64.9203
-46.5849
-45.2501
-45.093
-47.4795
-56.3632
-66.6711
-64.4463
-62.4518
-44.4537
-42.7003
-43.8773
-43.0025
-49.8555
-51.7356
-50.15
-55.2375
-133.213
-90.2237
-105.943
-101.655
151.163
183.416
153.972
162.914
-86.0679
-75.5847
-80.5771
-80.561
121.438
202.993
184.471
184.25
-67.13
-67.8173
-73.7512
-62.5312
-64.2453
-64.1449
-67.9173
-61.0295
-47.8771
-45.0687
-46.0795
-46.3783
-40.5702
-38.3652
-40.3509
-39.1436
-45.4203
-44.1412
-44.5239
-44.4769
-38.2501
-36.1127
-37.7548
-37.8211
-41.821
-42.1948
-41.5559
-42.6473
-42.137
-42.3976
-42.0254
-42.786
-19.3043
-10.1162
-19.6898
-16.9967
29.9428
168.248
90.1129
90.9257
-66.6074
-66.8764
-64.3161
-71.4329
-8.24272
2.09653
-2.37303
-2.55003
-33.7861
-35.8662
-34.8119
-34.8727
-32.036
-33.0805
-33.3239
-33.1215
-43.7384
-42.4809
-43.6022
-42.6029
-44.6057
-43.0771
-45.8928
-41.7488
-133.198
-90.2663
-105.988
-101.671
152.164
183.518
162.737
152.365
-67.1835
-67.8666
-73.81
-62.5749
-64.1932
-64.1157
-67.8833
-60.9879
-48.0994
-45.2486
-46.5878
-46.2741
-40.8403
-38.6434
-40.5624
-39.4742
-41.923
-42.308
-41.637
-42.7765
-42.1982
-42.4503
-42.0856
-42.8786
-66.6299
-66.9164
-71.4692
-64.3418
-9.05761
1.62875
-2.69204
-1.72713
-43.8989
-42.6296
-42.741
-43.7868
-44.7378
-43.1574
-41.8768
-45.9792
-40.7704
-41.4857
-41.3569
-40.8141
-38.5981
-38.8562
-38.8914
-38.7223
-49.7647
-56.7189
-53.7392
-53.5742
-45.4843
-44.7141
-44.1447
-46.6033
-51.2027
-56.2413
-54.6551
-54.7348
-40.8928
-39.7404
-40.1962
-40.1939
-41.9482
-42.3713
-41.2604
-43.1705
-39.7769
-39.25
-37.8533
-40.1994
-39.8875
-39.2955
-39.5543
-39.5478
-43.7061
-45.6874
-45.1064
-45.1085
-48.9835
-46.4122
-46.9017
-48.1423
-76.7322
-83.3861
-83.3065
-76.6896
-19.5951
-9.48365
-15.2261
-15.1399
-66.8471
-80.4099
-75.1918
-75.1974
-78.7229
-84.0221
-81.1807
-81.1978
-57.4238
-50.7219
-53.7478
-53.7628
-40.8195
-41.5308
-41.3951
-40.8719
-38.6065
-38.8611
-38.8934
-38.7334
-49.534
-56.8585
-53.5583
-53.7112
-45.4991
-44.7377
-44.1659
-46.6193
-42.0193
-42.4285
-43.236
-41.3248
-39.8769
-39.3717
-37.9397
-40.3107
-49.0193
-46.4508
-48.1712
-46.9469
-76.6582
-83.3807
-76.7221
-83.3286
-141.95
-106.542
-109.102
-91.7551
-53.4513
-50.7359
-55.629
-53.9135
-59.1223
-55.7351
-59.1604
-55.1287
-116.339
-88.1302
-98.6574
-86.7296
-142.016
-106.563
-109.176
-91.8128
-116.155
-88.2347
-98.7619
-86.8146
-59.0932
-55.7057
-59.1494
-55.0993
-53.4514
-50.7276
-55.6462
-53.8958
-89.833
-84.4982
-81.6182
-76.9916
-89.8478
-84.4992
-81.6103
-76.9753
-54.4417
-50.6425
-55.858
-54.9981
-54.4968
-50.6759
-55.8996
-55.0298
-23.1335
-24.6789
-21.2606
-19.9969
-22.3037
-23.7644
-12.0719
-16.6189
-22.2937
-23.7532
-12.1351
-16.7237
-23.0496
-24.5767
-21.2707
-19.5141
124.747
100.207
162.018
169.358
91.514
73.1416
139.046
91.4007
73.6066
92.2284
91.2995
138.947
99.8115
123.885
168.526
161.21
-42.2576
-43.0581
-42.1314
-43.0458
-39.8396
-39.6748
-40.4542
-40.4249
-44.7601
-46.5974
-44.3979
-45.7684
-51.1205
-51.88
-48.8949
-49.5238
-42.2884
-43.0831
-42.1616
-43.0725
-51.1218
-51.8829
-48.9055
-49.5372
-44.8359
-46.6853
-44.4657
-45.8256
-39.8979
-39.7451
-40.5199
-40.4873
-39.8568
-40.5943
-39.4838
-40.0397
-40.5802
-39.8433
-40.0323
-39.4773
-39.4758
-39.0027
-39.3457
-38.9431
-38.9742
-39.4466
-38.9232
-39.3268
-89.7955
-62.2651
-88.3029
-79.3186
-63.6377
-68.4751
-72.2744
-76.6454
-68.5024
-63.7711
-76.6741
-72.3069
-62.2759
-89.7387
-79.2635
-88.2254
-36.4982
-37.5783
-38.4092
-36.939
-47.1283
-45.293
-45.7317
-44.3661
-47.068
-45.1303
-48.4431
-45.9164
-43.1126
-42.1955
-41.8612
-41.0079
-36.6147
-37.6888
-38.5019
-37.0495
-43.233
-42.3062
-41.9768
-41.1169
-47.3416
-45.3649
-48.6932
-46.1356
-47.3241
-45.4726
-45.9159
-44.532
-43.9688
-42.989
-45.8201
-44.5725
-44.2177
-43.1028
-45.4556
-44.7069
-46.1705
-45.1114
-44.7661
-44.3354
-45.9307
-44.8975
-44.6262
-44.1841
-54.0499
-57.3152
-51.4952
-53.9764
-35.3626
-37.0324
-35.5407
-37.6065
-35.5844
-37.2381
-35.7182
-37.7648
-54.1118
-57.3632
-51.5601
-54.0102
-41.6479
-41.6726
-41.0559
-40.4055
-41.8
-41.7334
-40.5087
-41.1644
-38.3007
-39.8867
-36.7648
-39.1865
-39.5364
-37.8586
-38.8158
-36.3643
-74.1301
-3.04259
-117.261
-116.144
-131.468
-113.288
-52.3802
-45.5108
-50.8864
-46.0065
-48.4592
-49.4732
-88.5021
11.1623
-43.9679
2.57229
-96.4632
-57.7347
-49.8855
-40.5174
-36.749
-38.44
-43.5756
-39.3286
-118.699
-115.061
-71.2344
-1.83755
-137.558
-114.673
-51.4757
-46.4153
-52.5844
-45.7097
-48.6674
-49.6769
-43.9663
2.90907
-88.6023
10.9629
-96.4469
-57.8777
-37.0709
-38.8183
-49.1656
-40.8563
-43.9085
-39.6108
-45.6046
-45.7849
-42.0301
-40.8434
-42.6147
-43.6206
-44.8845
-41.8884
-37.8563
-40.6143
-37.3947
-38.2249
-39.1064
-38.528
-39.1939
-40.6323
-62.9143
-75.1272
-58.5819
-56.6822
-58.8278
-69.4016
-77.0321
-89.3754
-46.5829
-48.7494
-46.4781
-45.8518
-47.7703
-52.507
-54.6695
-52.4816
-45.5002
-45.7279
-44.8405
-41.8559
-42.0307
-40.8088
-42.6303
-43.666
-37.9587
-40.739
-39.2457
-40.7169
-37.4844
-38.2632
-39.1976
-38.6343
-62.8961
-75.0793
-76.9805
-89.2154
-58.5915
-56.6049
-58.7649
-69.3515
-46.7048
-48.8517
-54.7056
-52.5533
-46.5667
-45.9666
-47.8024
-52.5517
-82.9224
42.6496
-103.266
44.9353
-154.609
-147.026
114.495
97.9308
-93.5171
-130.414
-93.9235
-129.788
-89.7569
-90.0355
37.4804
36.2824
-76.5419
-73.1322
-56.3127
-56.9197
-71.932
-61.3519
-68.2615
-60.7227
-53.599
-42.6516
-50.4674
-41.1667
-49.3692
-50.9851
-41.1264
-40.0881
-47.7143
-42.5627
-47.8571
-42.6976
-47.0658
-47.0067
-40.1146
-40.1973
-42.1753
-43.1823
-40.6563
-42.726
-41.0512
-42.1137
-41.7425
-42.5022
-21.3532
-14.0762
-21.2046
-13.9558
-19.6953
-19.4364
20.9844
21.0292
-63.1376
-38.2897
-62.6812
-48.1517
-63.1771
-65.1219
-22.2679
-17.8082
-33.6847
-34.8052
-33.9599
-35.192
-33.4831
-33.5845
-32.4401
-32.2725
-43.9416
-44.4096
-44.4473
-46.8621
-43.9369
-43.7487
-47.9943
-44.146
-83.2026
43.074
-103.574
45.0589
-154.973
-147.174
98.137
114.422
-76.4569
-73.02
-56.3122
-56.8437
-71.9909
-61.3962
-68.1944
-60.6562
-53.8444
-42.8274
-50.78
-41.441
-51.2577
-49.6023
-41.2807
-40.3434
-42.3246
-43.3256
-40.5019
-42.3168
-41.0834
-42.245
-41.7235
-42.6109
-63.3476
-38.5364
-62.5903
-47.8258
-65.227
-63.184
-18.9373
-21.8453
-44.1516
-44.6
-44.6006
-47.0028
-43.9027
-44.098
-44.3007
-48.1097
-39.2593
-38.6997
-38.6518
-37.9876
-40.3167
-39.8816
-38.6105
-38.3574
-47.0018
-45.3595
-50.5505
-49.2741
-48.9996
-50.2055
-45.2203
-47.3884
-45.9157
-42.646
-45.9023
-42.6359
-47.906
-47.9127
-41.6829
-41.6789
-40.7927
-39.9145
-42.5503
-41.6741
-40.9812
-42.5022
-39.61
-40.8304
-40.5543
-41.7448
-40.5767
-41.7757
-40.2116
-40.2022
-42.6768
-42.6912
-54.9357
-62.1264
-51.2054
-57.5113
-49.9206
-51.4274
-69.0553
-64.7382
-29.1888
-42.1725
-29.1898
-42.1891
-24.0288
-24.0275
-53.2051
-53.2091
-71.0687
-64.4544
-71.0863
-64.4836
-75.3189
-75.3319
-60.802
-60.8165
-39.2513
-38.6819
-38.8921
-38.0499
-40.3587
-39.8282
-38.6171
-38.3772
-47.0251
-45.3803
-50.5526
-49.2758
-50.2229
-49.0144
-45.2403
-47.3971
-40.8715
-40.0066
-42.6312
-41.7669
-42.578
-41.056
-39.7076
-40.9279
-54.9502
-62.1415
-51.2556
-57.5362
-51.4577
-49.9659
-64.7546
-69.0819
-81.3839
-79.5153
-74.1476
-63.097
-62.8393
-71.7477
-59.1865
-59.52
-81.4364
-79.5622
-74.2001
-63.1357
-71.7945
-62.8743
-59.5635
-59.2231
-71.4433
-71.4329
-67.5696
-61.0998
-67.5504
-61.0793
-58.4079
-58.4181
0.895781
-1.67317
2.76755
1.61753
1.58235