# vtk DataFile Version 2.0
tet_velo
ASCII
DATASET UNSTRUCTURED_GRID
POINTS 29498 float
-0.841239 0.175 -1.975
-0.78363 0.315 2.085
-0.793638 0.785 -1.945
-0.785 0.968441 1.935
0.841239 0.175 -1.975
0.78363 0.315 2.085
0.793638 0.785 -1.945
0.785 0.968451 1.935
-0.838709 0.204994 -0.621667
-0.842664 0.228502 0.731667
-0.820811 0.876199 -0.651667
-0.814561 0.933976 0.641667
0.838708 0.204994 -0.621667
0.842693 0.228473 0.731667
0.821336 0.876728 -0.651667
0.815126 0.934548 0.641667
-1.67123 -0.202683 -3.01455
-1.66891 -0.157787 -1.95592
-1.66679 -0.128963 -0.601032
-1.66034 -0.104133 0.765928
-1.6259 -0.0383095 2.12183
-1.61416 0.012858 3.18545
-1.61512 0.0573128 4.23984
-1.66782 0.12014 -3.02112
-1.66467 0.171831 -1.96904
-1.6647 0.209439 -0.625831
-1.65619 0.234972 0.72278
-1.60799 0.299985 2.06714
-1.60136 0.350471 3.12991
-1.60753 0.39465 4.18626
-1.64729 0.753426 -3.01742
-1.63189 0.804113 -1.96286
-1.64563 0.87929 -0.660554
-1.6357 0.928066 0.637502
-1.60173 0.969155 1.94096
-1.59699 1.01841 3.00621
-1.60312 1.06563 4.07224
-1.63446 1.74083 -3.05699
-1.62813 1.79655 -2.01141
-1.63119 1.87578 -0.728556
-1.63171 1.9432 0.541365
-1.62351 1.99424 1.82485
-1.61702 2.03449 2.87173
-1.61392 2.07734 3.93121
-0.84516 -0.200867 -3.01842
-0.839342 -0.154755 -1.96156
-0.836678 -0.130857 -0.600274
-0.840431 -0.108407 0.773513
-0.815211 -0.0309076 2.13509
-0.805307 0.018386 3.19444
-0.805706 0.0603016 4.24505
-0.846384 0.119594 -3.02232
-0.793213 0.356464 3.13733
-0.799308 0.397634 4.19019
-0.829807 0.745409 -3.01
-0.790637 1.01993 3.00502
-0.795765 1.06707 4.07199
-0.814455 1.73543 -3.04965
-0.807106 1.79148 -2.00333
-0.811104 1.87484 -0.723684
-0.81616 1.94506 0.540781
-0.812878 1.99535 1.82067
-0.807433 2.03497 2.86756
-0.803688 2.07777 3.92818
0.817423 -0.200785 -3.01842
0.836035 -0.154711 -1.96156
0.837643 -0.130818 -0.600274
0.827773 -0.108393 0.773513
0.789906 -0.0308902 2.13509
0.79818 0.0184295 3.19444
0.80672 0.0603756 4.24505
0.810038 0.119661 -3.02231
0.798768 0.356498 3.13733
0.808166 0.397706 4.19019
0.797522 0.745497 -3.01
0.800159 1.01999 3.00502
0.810222 1.06717 4.07199
0.820477 1.73564 -3.04965
0.82684 1.79174 -2.00333
0.826109 1.87517 -0.723684
0.815723 1.94538 0.54078
0.807443 1.99558 1.82067
0.809349 2.03515 2.86756
0.81467 2.07793 3.92818
1.64797 -0.202467 -3.01455
1.66519 -0.15759 -1.95592
1.66792 -0.128753 -0.601032
1.65467 -0.103984 0.765928
1.61456 -0.0382197 2.12183
1.6103 0.0129781 3.18545
1.61723 0.0574791 4.23984
1.64137 0.12035 -3.02112
1.66263 0.172051 -1.96904
1.6664 0.209734 -0.625831
1.65829 0.23518 0.72278
1.61103 0.300053 2.06714
1.60763 0.350581 3.12991
1.61671 0.394815 4.18626
1.6255 0.753687 -3.01742
1.63256 0.804443 -1.96286
1.64912 0.879984 -0.660554
1.63956 0.928711 0.637502
1.60743 0.969353 1.94096
1.60782 1.01858 3.00621
1.61797 1.06584 4.07224
1.6399 1.74126 -3.05699
1.64513 1.79705 -2.01141
1.64561 1.8764 -0.728557
1.63488 1.94381 0.541365
1.62309 1.9947 1.82485
1.62212 2.03485 2.87173
1.62655 2.07767 3.93121
-0.853348 0.48 -1.99591
0 0.172033 -1.97797
-0.842344 0.187627 -1.29833
-0.836586 0.641721 2.06227
0 0.300399 2.0996
-0.802944 0.281954 1.40833
0 0.848154 -2.00815
-0.824289 0.847664 -1.29833
0 1.05243 2.01899
-0.809443 0.960871 1.28833
0.85337 0.48 -1.99593
0.841874 0.188097 -1.29833
0.836606 0.641726 2.06229
0.807181 0.277717 1.40833
0.824212 0.847589 -1.29833
0.809439 0.960875 1.28833
-0.8417 0.215734 0.055
-0.848453 0.540597 -0.636667
-1.06026e-07 0.19399 -0.621667
-0.851245 0.581239 0.686667
1.42838e-05 0.198087 0.731667
-0.818403 0.905805 -0.00500005
0.00026255 1.2461 -0.651667
0.000282631 1.40133 0.641667
0.841986 0.215448 0.055
0.849801 0.540861 -0.636667
0.852177 0.58151 0.686667
0.819496 0.906903 -0.00500005
-0.89643 0.510298 -1.29833
-0.852962 0.560918 0.025
-0.895003 0.61148 1.34833
-5.30128e-08 0.175781 -1.29833
7.0889e-06 0.196067 0.055
7.14192e-06 0.246553 1.40833
0 0.48 -2.18993
0 0.641723 2.21741
0.000131275 0.964098 -1.29833
0.000272591 1.401 -0.00500005
0.000141316 1.23921 1.28833
0.896428 0.510431 -1.29833
0.85429 0.561186 0.025
0.895002 0.611618 1.34833
-1.25295 0.173416 -1.97202
-0.840291 0.0101224 -1.96828
-0.843812 0.147297 -2.49866
-1.19581 0.307493 2.07607
-0.79942 0.142046 2.11005
-0.788421 0.335732 2.61116
-1.21276 0.794557 -1.95393
-0.811723 0.765205 -2.4775
-0.800372 1.28824 -1.97416
-1.19337 0.968798 1.93798
-0.787818 0.994188 2.47001
-0.798939 1.48189 1.87784
0.838637 0.0101446 -1.96828
0.825639 0.147331 -2.49866
1.25193 0.173525 -1.97202
0.786768 0.142055 2.11005
0.791199 0.335749 2.61116
1.19733 0.307527 2.07607
0.79558 0.765248 -2.4775
0.810239 1.28837 -1.97416
1.2131 0.794722 -1.95393
0.792579 0.994223 2.47001
0.796221 1.48202 1.87784
1.19621 0.968902 1.93798
-1.2517 0.207217 -0.623749
-0.837693 0.0370688 -0.610971
-1.24943 0.231737 0.727223
-0.841548 0.0600473 0.75259
-1.23322 0.877745 -0.65611
-0.815958 1.37552 -0.687676
-1.22513 0.931021 0.639585
-0.81536 1.43952 0.591224
0.838176 0.0370883 -0.610971
1.25256 0.207364 -0.623749
0.835233 0.0600403 0.75259
1.25049 0.231827 0.727223
0.823722 1.37595 -0.687676
1.23523 0.878356 -0.65611
0.815425 1.43996 0.591224
1.22734 0.931629 0.639585
-1.67007 -0.180235 -2.48523
-1.66953 -0.0412717 -3.01784
-1.2582 -0.201775 -3.01649
-1.66785 -0.143375 -1.27847
-1.66679 0.00702225 -1.96248
-1.25413 -0.156271 -1.95874
-1.66356 -0.116548 0.0824483
-1.66574 0.0402382 -0.613431
-1.25173 -0.12991 -0.600653
-1.64312 -0.071221 1.44388
-1.65827 0.0654199 0.744354
-1.25039 -0.10627 0.769721
-1.62003 -0.0127257 2.65364
-1.61695 0.130838 2.09448
-1.22056 -0.0346085 2.12846
-1.61464 0.0350854 3.71265
-1.60776 0.181665 3.15768
-1.20973 0.015622 3.18995
-1.61133 0.225981 4.21305
-1.21042 0.0588072 4.24245
-1.66624 0.145986 -2.49508
-1.65755 0.436783 -3.01927
-1.2571 0.119867 -3.02172
-1.66468 0.190635 -1.29744
-1.64828 0.487972 -1.96595
-1.66044 0.222206 0.0484744
-1.65516 0.544365 -0.643192
-1.63209 0.267479 1.39496
-1.64594 0.581519 0.680141
-1.60468 0.325228 2.59852
-1.60486 0.63457 2.00405
-1.60445 0.37256 3.65809
-1.59918 0.684441 3.06806
-1.19729 0.353467 3.13362
-1.60533 0.730141 4.12925
-1.20342 0.396142 4.18823
-1.63959 0.778769 -2.49014
-1.64088 1.24713 -3.03721
-1.23855 0.749418 -3.01371
-1.63876 0.841702 -1.31171
-1.63001 1.30033 -1.98714
-1.64066 0.903678 -0.0115257
-1.63841 1.37753 -0.694555
-1.61872 0.94861 1.28923
-1.6337 1.43563 0.589434
-1.59936 0.993783 2.47359
-1.61262 1.4817 1.8829
-1.60006 1.04202 3.53923
-1.607 1.52645 2.93897
-1.19381 1.01917 3.00561
-1.60852 1.57149 4.00172
-1.19944 1.06635 4.07211
-1.6313 1.76869 -2.5342
-1.22446 1.73813 -3.05332
-1.62966 1.83616 -1.36998
-1.21762 1.79401 -2.00737
-1.63145 1.90949 -0.0935957
-1.22115 1.87531 -0.72612
-1.62761 1.96872 1.18311
-1.22393 1.94413 0.541073
-1.62026 2.01436 2.34829
-1.2182 1.99479 1.82276
-1.61547 2.05591 3.40147
-1.21222 2.03473 2.86965
-1.2088 2.07755 3.92969
-0.842251 -0.177811 -2.48999
-0.845772 -0.0406367 -3.02037
-0.0138685 -0.200826 -3.01842
-0.83801 -0.142806 -1.28092
-0.00165372 -0.154733 -1.96156
-0.838554 -0.119632 0.0866196
0.000482602 -0.130837 -0.600274
-0.827821 -0.0696574 1.4543
-0.00632896 -0.1084 0.773513
-0.810259 -0.00626083 2.66477
-0.0126525 -0.0308989 2.13509
-0.805507 0.0393438 3.71975
-0.79926 0.187425 3.16589
-0.00356354 0.0184077 3.19444
-0.802507 0.228968 4.21762
0.000506795 0.0603386 4.24505
-0.838096 0.432502 -3.01616
-0.0181731 0.119628 -3.02231
-0.79626 0.377049 3.66376
-0.791925 0.688199 3.07117
0.00277762 0.356481 3.13733
-0.797537 0.732353 4.13109
0.00442895 0.39767 4.19019
-0.822131 1.24042 -3.02983
-0.0161427 0.745453 -3.01
-0.793201 1.0435 3.5385
-0.799035 1.52745 2.93629
0.00476107 1.01996 3.00502
-0.799726 1.57242 4.00008
0.00722827 1.06712 4.07199
-0.81078 1.76346 -2.52649
0.0030112 1.73553 -3.04965
-0.809105 1.83316 -1.36351
0.00986722 1.79161 -2.00333
-0.813632 1.90995 -0.0914519
0.00750236 1.87501 -0.723684
-0.814519 1.9702 1.18073
-0.000218424 1.94522 0.540781
-0.810156 2.01516 2.34412
-0.00271779 1.99546 1.82067
-0.80556 2.05637 3.39787
0.000958093 2.03506 2.86756
0.00549101 2.07785 3.92818
0.826729 -0.177748 -2.48999
0.813731 -0.0405618 -3.02037
1.2327 -0.201626 -3.01649
0.836839 -0.142764 -1.28092
1.25061 -0.15615 -1.95874
0.832708 -0.119605 0.0866196
1.25278 -0.129786 -0.600653
0.808839 -0.0696414 1.4543
1.24122 -0.106188 0.769721
0.794043 -0.00623033 2.66477
1.20223 -0.0345549 2.12846
0.80245 0.0394025 3.71975
0.798474 0.187464 3.16589
1.20424 0.0157038 3.18995
0.807443 0.229041 4.21762
1.21197 0.0589273 4.24245
0.80378 0.432579 -3.01616
1.2257 0.120006 -3.02172
0.803467 0.377102 3.66376
0.799463 0.688246 3.07117
1.2032 0.35354 3.13362
0.809194 0.732435 4.13109
1.21244 0.39626 4.18823
0.809 1.24057 -3.02983
1.21151 0.749592 -3.01371
0.80519 1.04358 3.5385
0.804754 1.52757 2.93629
1.20399 1.01929 3.00561
0.812446 1.57255 4.00008
1.21409 1.0665 4.07211
0.823659 1.76369 -2.52649
1.23019 1.73845 -3.05332
0.826474 1.83346 -1.36351
1.23599 1.79439 -2.00737
0.820916 1.91028 -0.091452
1.23586 1.87579 -0.726121
0.811583 1.97048 1.18073
1.2253 1.94459 0.541073
0.808396 2.01536 2.34412
1.21526 1.99514 1.82276
0.812009 2.05654 3.39787
1.21573 2.035 2.86965
1.22061 2.0778 3.92969
1.65658 -0.180028 -2.48523
1.64467 -0.0410583 -3.01784
1.66656 -0.143172 -1.27847
1.66391 0.00723032 -1.96248
1.66129 -0.116368 0.0824482
1.66716 0.0404902 -0.613431
1.63461 -0.0711017 1.44388
1.65648 0.0655982 0.744354
1.61243 -0.0126208 2.65364
1.61279 0.130917 2.09448
1.61376 0.0352286 3.71265
1.60896 0.18178 3.15768
1.61697 0.226147 4.21305
1.652 0.1462 -2.49508
1.63344 0.437018 -3.01927
1.66452 0.190892 -1.29744
1.6476 0.488247 -1.96595
1.66235 0.222457 0.0484743
1.65776 0.544859 -0.643192
1.63466 0.267617 1.39496
1.64893 0.581946 0.680141
1.60933 0.325317 2.59852
1.60923 0.634703 2.00405
1.61217 0.372698 3.65809
1.60772 0.68458 3.06806
1.61734 0.730326 4.12925
1.62903 0.779065 -2.49014
1.6327 1.24747 -3.0372
1.64084 0.842213 -1.31171
1.63885 1.30075 -1.98714
1.64434 0.904347 -0.0115257
[...]
POINT_DATA 29498
VECTORS point_vectors float
-2.42322 -3.82931 10.643
0.0703439 0.488424 1.66907
-2.9071 2.81366 4.78115
0.058307 -0.0512782 0.311472
2.42292 -3.84536 10.6067
-0.0765637 0.491788 1.66055
2.9146 2.82025 4.81006
-0.0581049 -0.0521536 0.312712
0.0774191 -0.0198347 2.32026
0.0100482 -0.222008 2.10992
0 0 0
0 0 0
-0.0716667 -0.0166581 2.31774
-0.00634635 -0.217255 2.09811
0 0 0
0 0 0
-0.661051 -0.31563 19.9728
-1.11238 -0.626362 20.6992
-0.306167 -0.354869 21.3509
0.113778 -0.113572 21.4999
0.531732 0.148078 21.3785
0.748832 0.290145 21.0722
0.74501 0.187488 20.4355
-0.795054 -0.235842 19.8648
-1.45912 -0.541037 20.6615
-0.450469 -0.399126 21.4027
0.0770985 -0.196536 21.5367
0.631543 0.0128659 21.4755
0.924041 0.12711 20.9872
0.876466 0.00462694 20.6581
-0.853519 0.0639078 19.7698
-1.81737 0.12777 20.5207
-1.00899 -0.31475 21.4138
-0.236109 -0.286515 21.6503
0.493721 -0.289082 21.5123
0.855888 -0.329695 21.2249
0.584229 -0.381064 21.0053
-0.526901 0.342066 19.9678
-0.902284 0.567454 20.4097
-0.854642 0.396203 21.1128
-0.330861 0.0559691 21.4854
0.13437 -0.242763 21.4143
0.341503 -0.352924 21.2166
0.415994 -0.417723 20.7514
-0.781344 -0.844931 19.3103
-1.75518 -2.89106 21.4523
-0.123128 -0.0480819 21.288
0.272068 0.339752 20.5216
0.541367 1.03848 19.0911
0.843612 1.45787 18.4844
0.771799 0.897024 18.1861
-1.01178 -0.656394 18.8191
0.971925 1.72106 11.3623
1.5451 1.1341 13.9207
-1.15063 0.29982 18.5131
1.26012 -0.0323196 9.13976
1.71629 -0.596239 13.9303
-0.493301 0.722285 19.5948
-0.996773 1.56208 20.125
-1.30747 1.5694 21.1836
-0.4316 0.350816 22.0295
0.142628 -0.438037 21.5664
0.275446 -0.642457 21.2177
0.181527 -0.604776 21.0758
0.776413 -0.855387 19.2944
1.74885 -2.90026 21.4707
0.121163 -0.0428225 21.2842
-0.255329 0.349355 20.4528
-0.490866 1.06864 18.8796
-0.826701 1.49077 18.4498
-0.769457 0.897367 18.219
1.00282 -0.675136 18.7715
-1.01848 1.71236 11.6153
-1.54323 1.12741 14.2086
1.14993 0.314997 18.4503
-1.2956 -0.0527559 9.606
-1.71628 -0.608096 14.333
0.495101 0.719392 19.5983
1.00361 1.53652 20.131
1.30863 1.54415 21.1873
0.43202 0.347368 22.031
-0.138489 -0.443546 21.5708
-0.270557 -0.646319 21.2159
-0.175583 -0.601802 21.0557
0.672739 -0.317617 19.9578
1.11995 -0.626545 20.6977
0.304405 -0.355252 21.3446
-0.114816 -0.114308 21.495
-0.539809 0.156266 21.3848
-0.75686 0.292413 21.0768
-0.750648 0.194586 20.4411
0.799701 -0.247665 19.8511
1.4607 -0.546581 20.667
0.450161 -0.400179 21.41
-0.0770195 -0.19518 21.5447
-0.634305 0.0119623 21.4836
-0.923474 0.12514 20.9784
-0.869956 0.0102312 20.6601
0.860873 0.0713809 19.7495
1.81489 0.130374 20.5221
1.00802 -0.310817 21.4156
0.232434 -0.284695 21.6547
-0.495709 -0.285792 21.5088
-0.84912 -0.316293 21.2565
-0.572868 -0.372531 20.995
0.525512 0.342067 19.9701
0.890366 0.55532 20.4165
0.838943 0.387841 21.1113
0.328982 0.0517968 21.4956
-0.139767 -0.243992 21.4016
-0.336482 -0.342704 21.2351
-0.405322 -0.429838 20.7626
-2.65296 -0.418247 3.85898
0.000114637 -0.0147355 0.110113
-0.0186143 0.0280981 0.630806
0.0507218 -0.0260992 0.279172
0.001402 0.00719847 0.071762
-0.00111913 0.00433769 0.0864506
0.0155013 0.219583 0.564101
-0.121623 -0.137642 0.416569
0.00199147 0.0515084 -0.0625192
0.00855547 0.0149869 0.0492804
2.7918 -0.432509 4.09599
0.0187524 0.0270207 0.600833
-0.051257 -0.0278457 0.280556
0.00800938 0.0181582 0.36796
0.119934 -0.135714 0.409415
-0.00862032 0.015117 0.0495902
-0.0107059 0.0724467 2.41446
-4.26199e-19 4.18794e-19 -4.19423e-17
0 0 0
-0.000627699 0.00917671 0.0367026
-4.15956e-06 0.000247151 0.0303086
0 0 0
0.00211947 0.0981001 0.177864
-2.26208e-05 -0.000139022 0.00315147
0.0182387 0.0800326 2.44523
0 0 0
0.000624507 0.00947281 0.0371997
0 0 0
0.00304397 -0.0113967 0.121509
0 0 0
0.000776548 0.0121211 0.0871531
-1.27895e-08 3.71182e-05 0.00855173
-1.00754e-07 1.64522e-07 3.18713e-05
0 0 0
0.135678 0.0877011 0.257624
0.0221764 0.601881 -0.235624
0.00011669 0.00124962 0.0196752
-4.87048e-06 0.000177816 0.00316306
2.86329e-05 0.00209983 -0.00370291
-0.00300539 -0.011669 0.12077
0 0 0
-0.000751831 0.0113734 0.0828918
-2.76603 -1.42412 20.8828
-2.65696 -4.32661 22.0243
-2.64454 -2.07467 17.9254
1.03803 0.301741 20.1912
0.391525 1.16211 13.7224
0.289053 1.1884 8.27728
-3.74121 0.686904 20.5994
-3.21762 1.3891 16.9612
-2.31547 2.79098 19.9588
0.842415 -0.344544 20.2683
0.640448 0.208688 6.03881
0.621929 -0.66374 19.6094
2.65059 -4.35035 22.0684
2.64878 -2.13387 17.829
2.77699 -1.43341 20.882
-0.344695 1.17272 13.4536
-0.338142 1.2006 8.37136
-1.04513 0.302827 20.2056
3.23528 1.46363 16.8374
2.32228 2.74762 19.9605
3.73603 0.688037 20.5987
-0.673559 0.180837 6.21949
-0.625932 -0.675372 19.5973
-0.842472 -0.354861 20.3034
-0.250305 -0.721842 21.7326
0.249006 0.266839 16.452
0.244083 -0.294367 21.2998
0.465432 0.309197 15.6871
-1.6356 -0.975079 21.5581
-3.46477 1.97998 21.2365
-0.315188 -0.57274 20.9403
-0.37752 0.32254 19.6942
-0.244551 0.270841 16.443
0.257896 -0.728811 21.7344
-0.4499 0.318747 15.5176
-0.23911 -0.29577 21.3058
3.42757 1.92464 21.2667
1.63395 -0.961105 21.5738
0.372579 0.312485 19.7282
0.312044 -0.570019 20.9819
-0.973903 -0.515329 20.1994
-0.730562 -0.28673 19.919
-0.778581 -0.523476 19.7069
-0.715136 -0.509671 21.2524
-1.29728 -0.610502 20.6935
-1.56298 -1.3531 20.9104
-0.078713 -0.235396 21.4461
-0.382407 -0.365328 21.3775
-0.150411 -0.36826 21.5617
0.335431 0.0258105 21.5039
0.0957185 -0.143948 21.5003
0.286414 -0.0338273 21.5859
0.659069 0.198353 21.2351
0.578839 0.0923102 21.4113
0.748305 0.446719 21.4028
0.723147 0.239541 21.2011
0.830086 0.220525 21.0785
1.05456 0.573723 20.9805
0.825008 0.11491 20.5518
0.809583 0.456108 21.5743
-1.21913 -0.416411 20.0854
-0.858266 -0.0894037 19.7754
-0.989209 -0.416376 19.4655
-0.937495 -0.503479 21.3088
-1.7779 -0.25265 20.6038
-0.167482 -0.3162 21.4925
-0.695167 -0.432817 21.4146
0.35498 -0.077251 21.5962
-0.0535086 -0.293798 21.6133
0.804993 0.0555784 21.3287
0.616348 -0.147678 21.5265
0.967792 0.03586 21.7234
0.950492 -0.0944465 20.9268
1.46867 0.409136 19.5976
0.810688 -0.189624 20.7162
1.22669 0.517622 20.6438
-1.40216 0.140029 19.9275
-0.722625 0.280719 19.847
-1.11446 0.173589 19.27
-1.40534 -0.118734 21.2041
-1.34536 0.525562 20.417
-0.631471 -0.331846 21.597
-1.11758 0.157497 21.2677
0.150663 -0.256379 21.6419
-0.36321 -0.0745394 21.6236
0.688909 -0.298402 21.3402
0.279168 -0.303724 21.4462
0.983202 -0.387224 20.906
0.525361 -0.410847 21.1576
1.29985 -0.545394 20.2853
0.502657 -0.589729 20.9547
1.28876 -0.485554 19.584
-0.736978 0.481743 20.1168
-0.590974 0.526907 19.787
-0.938665 0.523712 20.783
-1.06605 0.989737 20.2883
-0.634422 0.226329 21.4082
-1.15675 0.802249 21.1899
-0.0581437 -0.116801 21.5185
-0.426034 0.158848 21.7451
0.249408 -0.335382 21.2799
0.138594 -0.340986 21.4778
0.309787 -0.371457 21.174
0.316832 -0.498557 21.1727
0.192014 -0.395429 20.9898
-1.53294 -1.9596 19.3825
-0.866214 -0.774218 19.1069
-0.0171095 -1.25207 18.7818
-0.628864 -0.743242 22.2469
-0.00259396 -3.87058 22.2121
0.0699084 0.117677 20.7043
0.00209612 -0.235265 20.3597
0.472995 0.681962 19.8624
0.000486879 0.153057 17.803
0.63976 1.23442 19.1515
0.00901593 0.530137 14.9324
0.85796 1.28797 18.7213
0.955915 1.80943 15.0714
0.0117419 0.884278 14.5076
1.23495 1.01117 14.8067
0.0101394 1.47617 14.9617
-1.18933 -0.256719 18.5421
-0.0470197 -1.03583 17.9808
1.40463 1.22025 12.2268
1.09963 0.858231 6.71668
-0.0147848 -0.720676 -2.20189
1.82041 0.66127 12.8529
-0.0532546 -0.888258 2.29324
-0.835344 0.758161 19.0687
-0.0350759 0.531733 17.4318
1.65047 -0.627604 12.5476
0.658822 -1.04431 20.5117
-0.0149745 -0.301726 -1.17214
0.552848 -1.03761 20.0107
-0.0456709 -2.47285 2.40949
-0.785384 1.20065 19.6906
0.00296246 0.940827 19.3089
-1.17271 1.58529 20.6504
0.0167937 2.29791 19.9166
-0.99148 1.08187 21.8945
0.0189611 2.84524 21.0908
-0.049897 -0.176772 21.8423
0.00224818 0.663314 22.3899
0.225154 -0.575656 21.426
0.00190516 -0.503124 21.6361
0.293144 -0.679117 21.2113
0.00250613 -0.789753 21.2789
0.00385444 -0.959682 21.0097
1.52754 -2.01174 19.3477
0.858736 -0.792447 19.0661
0.782424 -0.548047 19.6844
0.625111 -0.733745 22.2482
1.57506 -1.37372 20.9143
-0.0619519 0.124777 20.6709
0.15957 -0.379681 21.5596
-0.444386 0.691734 19.651
-0.283244 -0.0331221 21.5845
-0.602677 1.26123 19.1029
-0.759856 0.47484 21.353
-0.855911 1.29949 18.7119
-0.958794 1.82081 15.0744
-1.06098 0.578241 20.9724
-1.23103 1.01257 14.9969
-0.8083 0.453449 21.5556
1.18382 -0.262243 18.4656
0.995606 -0.44333 19.4121
-1.42622 1.21962 12.4592
-1.16585 0.824438 7.06311
-1.46274 0.401128 19.698
-1.81725 0.654281 13.2446
-1.22023 0.493745 20.6293
0.833272 0.769065 19.0536
1.11426 0.17446 19.2315
-1.65423 -0.623097 12.9225
-0.662252 -1.04394 20.5274
-1.29918 -0.560786 20.3937
-0.539934 -1.02667 20.0598
-1.25414 -0.487238 19.6702
0.789461 1.19022 19.6968
0.591481 0.522632 19.7917
1.1809 1.55773 20.6587
1.06456 0.962985 20.2978
0.992506 1.06688 21.8889
1.14958 0.780636 21.1929
0.0505422 -0.181956 21.8436
0.424134 0.157594 21.7396
-0.220989 -0.579809 21.4256
-0.140292 -0.345546 21.4825
-0.288063 -0.6794 21.2054
-0.316519 -0.50709 21.1539
-0.192793 -0.400328 20.9738
0.98341 -0.516663 20.1955
0.745786 -0.290207 19.8993
0.718198 -0.510599 21.2485
1.29549 -0.616482 20.6949
0.0828047 -0.235014 21.4392
0.38104 -0.369736 21.3802
-0.339807 0.0327278 21.521
-0.0979553 -0.144323 21.5044
-0.668607 0.217269 21.2362
-0.585248 0.0954614 21.4208
-0.729259 0.236737 21.1853
-0.830981 0.224415 21.0779
-0.828215 0.12114 20.5593
1.23455 -0.431072 20.0758
0.864643 -0.0891176 19.763
0.935831 -0.508292 21.3134
1.78278 -0.251852 20.6079
0.167375 -0.315461 21.4945
0.696547 -0.429979 21.4233
-0.358691 -0.0819627 21.5921
0.0528339 -0.291174 21.6175
-0.808521 0.055231 21.3268
-0.614749 -0.143434 21.5315
-0.970908 0.0313118 21.7105
-0.944845 -0.0942737 20.9303
-0.803784 -0.183004 20.7008
1.4176 0.149397 19.917
0.724375 0.280911 19.8445
1.40459 -0.114909 21.2067
1.33374 0.516762 20.4213
0.628717 -0.328803 21.5989
1.10397 0.158265 21.2671
-0.153591 -0.251694 21.6431
0.358862 -0.0751018 21.6258
-0.692341 -0.298455 21.3284
-0.288976 -0.309859 21.4485
-0.970867 -0.38784 20.8635
-0.53308 -0.404241 21.2088
-0.532104 -0.581648 20.9724
0.734862 0.477627 20.1218
0.926052 0.515501 20.7837
0.62841 0.222645 21.4047
0.0574892 -0.120001 21.5042
-0.239994 -0.322049 21.2818
-0.304375 -0.368433 21.15
-1.11598 -0.485046 20.1314
-2.01746 -2.16285 18.7435
-1.34535 -1.04144 19.9319
-1.94827 -0.923035 19.4926
-0.88338 -0.481404 19.5933
-2.11011 -1.4733 20.9167
-0.824515 -0.503426 21.2685
-0.356965 -0.101776 19.0302
-0.675518 -0.739938 21.6277
-1.01522 -0.951626 21.9672
-0.151565 -0.53269 21.6257
-0.115573 -0.261558 21.4634
0.28417 0.227575 15.7477
0.0811965 -0.204478 21.5642
0.0326722 -0.497656 21.5142
0.307517 -0.16242 21.5289
0.337643 0.00216598 21.5387
0.581611 0.616027 14.1091
0.508964 0.199086 21.5837
0.561835 -0.0079282 20.5985
0.929869 0.401443 20.9714
0.746457 0.130469 21.314
0.552001 1.33366 14.2762
0.88457 0.557368 21.1346
1.24721 0.389598 20.1063
1.20237 0.487584 21.0609
0.84547 0.137701 21.4623
1.13395 1.3003 14.1787
1.14625 0.63165 20.6522
1.61187 0.431333 18.7911
0.944554 0.434341 21.4719
-1.42792 -0.165595 19.9558
-3.50797 -0.593371 16.6534
-2.3337 0.460669 19.14
-1.12676 -0.168991 19.2932
-3.78979 -0.60359 20.7849
-1.21726 -0.377862 21.3006
-2.12745 -0.368428 21.8049
-0.710645 -0.986161 21.5085
-0.351723 -0.399817 21.5463
-0.925992 -0.883942 21.2633
0.0752093 -0.42345 20.494
0.279874 -0.194503 21.652
0.304165 -0.325587 20.6287
1.04397 0.0325349 19.6493
0.816124 -0.125848 21.3556
0.0873378 0.775991 3.9666
1.03428 -0.447297 20.3406
1.58601 -0.0440987 19.4893
1.03938 -0.16787 21.5569
1.91017 0.573071 8.94621
1.45011 -0.490989 19.5723
1.44095 -0.0383524 19.5612
-1.07533 0.452109 20.0064
-1.56845 1.73159 18.927
-0.850875 0.806053 19.9349
-0.851016 0.4738 19.5131
-1.98433 1.22559 20.2812
-1.29819 0.347612 20.9357
-2.48858 1.93411 20.8258
-1.16301 0.934258 20.765
-1.92489 0.448859 21.4097
-0.768435 0.0201667 21.5422
-2.35826 0.7701 21.9398
-0.873728 0.523672 21.6011
-0.575998 -0.0429947 22.0138
0.0207676 -0.196977 21.5888
0.531716 -0.29652 19.3103
-0.0687371 -0.139902 21.6609
0.363814 -0.491496 21.6474
0.440996 -0.375407 21.3505
0.60012 -0.835683 20.3856
0.230146 -0.44065 21.386
0.629838 -0.707731 21.3329
0.56883 -0.411451 20.9245
0.750364 -1.03696 19.9075
0.342475 -0.546417 21.1469
0.588043 -0.733944 20.7302
2.01949 -2.22415 18.6892
-0.0211662 -3.52604 18.7309
-0.0453256 -4.61706 15.3074
-0.0244476 -1.2158 18.4639
0.000700679 -4.85384 23.5229
0.351268 -0.0888575 18.9564
0.00241312 -1.04304 22.3671
-0.000637417 0.101438 10.7926
-0.269576 0.234003 15.6642
0.000101495 -0.0714469 18.767
7.80081e-05 0.134309 9.89695
-0.560211 0.625758 13.9614
0.0039702 0.485793 16.3013
0.012222 0.316427 6.78154
-0.530148 1.35876 14.1617
0.0193214 0.339134 14.8749
0.0156025 -1.21264 -2.6543
0.00155657 0.287479 5.25941
-1.15074 1.30929 14.2297
0.0227994 1.27272 13.8558
-0.0108418 -0.520895 -0.554124
-0.0143924 0.662459 9.61894
3.52542 -0.590947 16.5032
-0.0447193 3.22157 13.5041
-0.0356653 -0.376199 17.4222
-0.134682 0.73823 4.1001
0.012477 0.553462 -0.703888
-0.0629743 -1.27243 -5.10416
-1.933 0.541615 9.23228
-0.0313743 -1.18971 -0.00664827
-0.0672414 -2.29098 -1.19105
1.56707 1.7351 18.922
0.00961955 1.70183 19.3814
-0.0112896 1.12486 18.5021
0.0128987 4.4641 19.6013
2.49374 1.91091 20.8284
0.015474 2.44305 20.4314
0.0271115 5.8445 19.9959
2.35003 0.760711 22.0302
0.00992784 1.99168 22.2853
0.000953222 0.18415 15.0537
-0.539018 -0.311357 19.3239
0.00158505 -0.169997 22.0473
0.0050451 -0.6354 11.7963
-0.599215 -0.847583 20.4111
0.00313908 -0.650747 21.6463
0.00141458 -1.03651 15.3317
-0.753267 -1.03594 19.9637
0.00419051 -0.782669 21.3169
0.00721814 -0.954903 17.2883
1.1302 -0.496434 20.1237
1.36714 -1.08464 19.9164
1.98838 -0.963491 19.453
0.895323 -0.508646 19.5551
2.1233 -1.48863 20.9157
0.82325 -0.508277 21.2705
0.681369 -0.751182 21.626
1.01968 -0.959196 21.9665
0.159632 -0.542246 21.6235
0.115799 -0.266043 21.4656
-0.0743442 -0.208723 21.5647
-0.0269572 -0.502855 21.5183
-0.305748 -0.162923 21.5082
-0.341242 -0.00300148 21.5371
-0.512949 0.206166 21.5882
-0.55884 -0.00901776 20.6248
-0.939673 0.420875 20.9094
-0.750968 0.130978 21.3075
-0.887659 0.585317 21.1088
-1.25617 0.386 20.1322
-1.20417 0.488826 21.0543
-0.850084 0.134024 21.4479
-1.14912 0.639487 20.642
-1.60196 0.426882 18.8836
-0.939431 0.421344 21.4642
1.44605 -0.165448 19.9453
2.37308 0.476142 19.0942
1.14372 -0.1705 19.237
3.79716 -0.60395 20.7862
1.21803 -0.375936 21.3053
2.12799 -0.366439 21.8005
0.721155 -0.983062 21.5326
0.353332 -0.396594 21.5518
0.924333 -0.872091 21.3026
-0.0755527 -0.423036 20.5287
-0.284597 -0.190447 21.6596
-0.306994 -0.329799 20.6705
-1.04955 0.0249687 19.6987
-0.816528 -0.124625 21.3683
-1.03554 -0.460743 20.3911
-1.57797 -0.0612443 19.6262
-1.03418 -0.165914 21.5295
-1.43564 -0.48859 19.635
-1.42814 -0.0691301 19.5765
1.07522 0.450987 20.0076
0.850998 0.793314 19.9434
0.851364 0.48083 19.5018
1.9659 1.20093 20.2845
1.28691 0.3451 20.9342
1.15361 0.912627 20.7674
1.90294 0.43957 21.4112
0.762359 0.0238095 21.5379
0.868723 0.510748 21.5982
0.570817 -0.0446762 22.0136
-0.0250869 -0.197713 21.5936
0.0680609 -0.144381 21.6622
-0.370013 -0.494508 21.648
-0.439272 -0.378087 21.3442
-0.238867 -0.450793 21.3793
-0.62992 -0.70525 21.2973
-0.567673 -0.427313 20.9309
-0.340831 -0.538667 21.1277
-0.589885 -0.725494 20.7573
-1.64665 -1.00619 19.7438
-0.816995 -0.858076 21.7831
0.0990602 -0.341513 21.5789
0.597234 0.0937533 21.2947
1.11808 0.51664 20.9601
1.41008 0.468593 20.1243
-2.44027 -0.355978 19.1431
-1.60684 -0.84189 22.1627
-0.222504 -0.754843 20.9483
0.477949 -0.127656 20.2953
1.27971 -0.00159601 19.6578
1.51119 -0.0189475 19.6131
-1.47045 0.915139 19.5945
-1.91839 0.766892 21.0006
-1.35379 0.157724 21.9164
0.0231654 -0.269393 21.909
0.511163 -0.601789 21.4645
0.664263 -0.760893 21.1018
-0.0293289 -4.28342 17.4809
0.0038958 -0.291711 14.264
-0.00115218 0.0460562 10.0745
0.00796492 0.39869 8.11196
0.0258895 -0.268953 5.48571
0.00957802 0.431541 6.37289
-0.0534706 -0.977024 12.3941
-0.0178286 -0.68022 -3.86738
-0.0569303 -1.23402 -3.41368
-0.00398621 2.9195 18.0159
0.0128426 3.66027 20.1754
0.00629718 2.02798 18.273
0.00278492 -0.5927 12.4853
0.00583056 -0.742603 13.7636
-0.000808199 -1.51367 16.3454
1.68125 -1.04899 19.706
0.823106 -0.867722 21.7783
-0.0958357 -0.346787 21.5727
-0.597543 0.101435 21.245
-1.13104 0.524382 20.9391
-1.41021 0.473034 20.1417
2.49701 -0.371324 19.0962
1.61234 -0.842529 22.1576
0.227936 -0.752159 20.985
-0.478053 -0.13186 20.3309
-1.28744 -0.0191896 19.7402
-1.49417 -0.0386163 19.7653
1.47168 0.917659 19.5938
1.90787 0.756061 20.9993
1.33999 0.153858 21.9096
-0.0267858 -0.272663 21.908
-0.517073 -0.607652 21.464
-0.669357 -0.754482 21.1163
-0.356122 -0.116285 0.690637
-0.062575 -0.0845611 0.442676
-0.0443557 0.0233824 0.547741
0.132007 0.0528308 0.586516
-0.0417427 0.0264885 0.169484
-0.00279627 0.00494827 0.0379461
-0.501766 0.0181058 0.71276
0.0179062 0.748937 1.29099
-0.143802 -0.0110611 0.526218
0.11503 0.00847071 0.296833
-0.0181815 0.0222901 -0.0205128
0.0800805 0.0987821 0.444247
0.0738604 -0.097267 0.509647
0.356354 -0.115191 0.691828
0.0440706 0.0241038 0.527843
0.0423022 0.0273396 0.174233
-0.132195 0.0521722 0.583771
0.00503634 0.0117482 0.112887
-0.0188194 0.741771 1.28387
0.496515 0.0173413 0.705905
0.147457 -0.0112196 0.538967
0.020669 0.0193625 -0.0173696
-0.115761 0.00795508 0.297698
-0.079505 0.0979376 0.444671
0.0640123 0.0253977 0.907472
-0.0574432 0.0637988 2.83978
0 0 0
0.000730382 7.93623e-05 0.0082226
0.0125421 0.00885615 0.26834
0.0176937 0.0968215 2.92488
0 0 0
0 0 0
-0.321873 -0.281589 0.566471
6.47181e-05 8.71849e-05 0.0230512
0 0 0
-0.0746693 0.0821555 0.172475
0 0 0
0.000173522 0.00378646 0.0115942
0 0 0
0.00224884 -0.000506469 0.0214325
-0.0626831 0.024785 0.889277
-0.000741664 7.98901e-05 0.0082767
0.0624228 0.0692673 2.83944
0 0 0
-0.0115984 0.00639234 0.360005
0 0 0
-0.0118771 0.103987 2.92085
0 0 0
0.320546 -0.280493 0.566586
0.0607731 0.0479358 0.128036
-6.078e-05 0.000197106 0.022967
0 0 0
0 0 0
-0.00187697 -0.00043161 0.0181863
-0.000147668 0.00318821 0.00979826
0 0 0
-0.000953343 -0.00162754 0.0279535
-1.90838 0.250109 0.658555
1.46842e-05 -0.00018643 0.015974
-0.000120881 -0.171177 0.0202112
0.00181133 -0.00116377 0.0847374
8.50204e-07 -2.79198e-08 1.05837e-05
0 0 0
-0.40096 0.228772 -0.107614
3.70426e-05 0.000478642 0.00586123
0.0013675 -0.00594898 -0.00789848
1.07968e-05 0.0021752 0.0192203
0 0 0
-0.000703546 0.287365 0.128658
-9.16662e-05 0.0175204 0.107308
0.00381243 -0.031487 0.159678
-0.00941067 0.000899262 0.0155619
0.000660497 0.0304004 -0.0103801
0 0 0
0.025242 0.0700793 0.362021
-0.000209865 -0.000142694 0.000107119
1.90505 0.261652 0.662233
0.000949216 -0.00164667 0.0277473
3.9412e-07 1.25498e-08 -4.73186e-06
-0.00184076 -0.00116756 0.0865616
0.392457 0.216106 -0.0986855
0 0 0
0 0 0
-0.00012151 0.00570699 0.0542365
0.00962194 0.000916244 0.0157371
-0.00381757 -0.031598 0.1598
9.81106e-05 -8.36048e-05 7.58718e-05
-0.0251144 0.0699593 0.362553
0 0 0
0.000585537 5.15215e-05 0.0118244
0 0 0
0 0 0
0 0 0
-4.12259e-05 -0.00143254 0.0671401
0.000188509 0.00628239 0.0323616
-0.00452944 0.0131132 0.0877143
4.44608e-08 -9.32103e-08 -1.72254e-05
3.99704e-06 0.000319671 0.0042223
0.000274533 0.00270242 0.0098369
-0.000139161 0.000401512 0.00633887
0.00661964 -0.0094748 -0.000866654
-0.000197106 0.0573961 0.310997
-2.44791e-05 7.41584e-05 0.00447791
-0.000277042 -0.04294 0.24095
-0.000589569 5.2155e-05 0.0118848
0 0 0
0 0 0
0 0 0
-0.00020523 0.00679295 0.034901
0.00420911 0.0115804 0.0794297
0.000163237 0.000466839 0.00737543
-0.000304709 0.00275557 0.00983323
-0.000844765 -0.0016348 0.026059
-0.000109307 -0.00026767 0.00217635
0 0 0
8.98616e-05 -0.0027018 0.00958258
0 0 0
1.09439e-05 0.00103254 0.00623776
0 0 0
0.000243166 0.00386972 0.0136911
-0.0104787 0.0145282 0.332187
-0.000706979 0.167364 0.592623
0 0 0
0.000177625 0.000122521 0.00319005