# vtk DataFile Version 2.0
tri_press
ASCII
DATASET UNSTRUCTURED_GRID
POINTS 3682 float
-0.745 0.105 -2.28314
-0.690479 0.165 2.305
-0.738333 0.745 -2.175
-0.695 1.015 2.30636
0.745 0.105 -2.28314
0.690489 0.165 2.305
0.738333 0.745 -2.175
0.695 1.015 2.30636
-0.757825 0.0940014 -0.75376
-0.759809 0.0938434 0.77562
-0.83153 0.942641 -0.681213
-0.798279 1.01383 0.812574
0.758581 0.0932485 -0.75376
0.760164 0.0934957 0.77562
0.831521 0.942632 -0.681213
0.798272 1.01383 0.812574
-1.53105 -0.362235 -3.52624
-1.52745 -0.302644 -2.31699
-1.53237 -0.309196 -0.786691
-1.51401 -0.324928 0.750773
-1.46172 -0.28277 2.28168
-1.44939 -0.242418 3.49388
-1.45599 -0.204518 4.70061
-1.52938 0.0147181 -3.48497
-1.53011 0.0969896 -2.2796
-1.5452 0.114768 -0.75623
-1.51632 0.109234 0.770348
-1.43818 0.151097 2.2944
-1.43351 0.190572 3.50611
-1.44824 0.227813 4.714
-1.52855 0.731688 -3.39243
-1.5383 0.81134 -2.1856
-1.59468 0.952265 -0.686485
-1.55009 1.00645 0.810103
-1.45088 1.02017 2.3099
-1.44182 1.05638 3.52307
-1.45509 1.09512 4.7367
-1.53066 1.9381 -3.28038
-1.53988 2.03367 -2.07888
-1.56476 2.18506 -0.591311
-1.56595 2.29537 0.888587
-1.53744 2.34652 2.37653
-1.51501 2.37508 3.57881
-1.50357 2.40634 4.78855
-0.76453 -0.358737 -3.52854
-0.754111 -0.295781 -2.32034
-0.759158 -0.318966 -0.786241
-0.761191 -0.336652 0.755273
-0.728553 -0.278735 2.28954
-0.717226 -0.240071 3.49922
-0.720339 -0.204615 4.7037
-0.762503 0.0106321 -3.48567
-0.702279 0.193969 3.51051
-0.713794 0.227928 4.71633
-0.758438 0.702923 -3.38803
-0.707569 1.05512 3.52236
-0.718967 1.09415 4.73655
-0.752413 1.9185 -3.27603
-0.755082 2.01528 -2.07409
-0.781105 2.18013 -0.588421
-0.797685 2.29893 0.888241
-0.786065 2.34859 2.37405
-0.76862 2.37536 3.57633
-0.757669 2.40608 4.78676
0.751743 -0.35886 -3.52854
0.754821 -0.295962 -2.32034
0.762053 -0.319519 -0.786241
0.748778 -0.336995 0.755273
0.704171 -0.278849 2.28954
0.720846 -0.240176 3.49922
0.737254 -0.204742 4.7037
0.747003 0.010563 -3.48567
0.719391 0.1939 3.51051
0.737224 0.227819 4.71633
0.752252 0.702879 -3.38803
0.719753 1.05506 3.52236
0.735692 1.09405 4.73655
0.795236 1.9184 -3.27603
0.805276 2.01519 -2.07409
0.795374 2.18003 -0.588421
0.756449 2.29883 0.88824
0.72431 2.34849 2.37405
0.723074 2.37526 3.57633
0.730979 2.40596 4.78676
1.51752 -0.362526 -3.52624
1.52295 -0.303058 -2.31699
1.53293 -0.310015 -0.78669
1.51114 -0.325546 0.750773
1.45616 -0.283087 2.28168
1.45739 -0.242677 3.49388
1.47361 -0.204792 4.70061
1.51448 0.0145124 -3.48496
1.52357 0.0967382 -2.2796
1.54464 0.113963 -0.75623
1.52187 0.108659 0.770348
1.44758 0.150855 2.2944
1.45161 0.190366 3.50611
1.47113 0.227569 4.714
1.52377 0.731548 -3.39243
1.53739 0.811239 -2.1856
1.59519 0.951968 -0.686485
1.55308 1.00617 0.810103
1.45685 1.02001 2.3099
1.45429 1.05621 3.52307
1.47129 1.0949 4.7367
1.56705 1.93789 -3.28038
1.57921 2.03347 -2.07888
1.57562 2.18483 -0.591311
1.53443 2.29514 0.888587
1.48921 2.3463 2.37653
1.47722 2.37485 3.57881
1.48034 2.40609 4.78855
-0.772192 0.425 -2.2596
0 0.101229 -2.28691
-0.754738 0.0961748 -1.51845
-0.711671 0.59 2.32461
5.00679e-06 0.168331 2.30167
-0.714434 0.140131 1.54031
0 0.82094 -2.25094
-0.839636 0.898525 -1.42811
0 1.04373 2.33509
-0.773079 1.04086 1.55947
0.772192 0.425 -2.2596
0.755876 0.0950384 -1.51845
0.711983 0.59 2.32492
0.713954 0.14062 1.54031
0.839633 0.898522 -1.42811
0.773078 1.04086 1.55947
-0.758895 0.0938448 0.0109301
-0.867825 0.518321 -0.717487
0.000378098 0.0921645 -0.75376
-0.891127 0.553839 0.794097
0.000177215 0.0926128 0.77562
-0.814645 0.977978 0.06568
-4.59401e-06 1.24094 -0.681213
-3.53507e-06 1.43594 0.812574
0.759456 0.0932887 0.0109301
0.867817 0.51794 -0.717487
0.891129 0.553662 0.794097
0.814642 0.977976 0.06568
-0.875003 0.471661 -1.47328
0.876264 0.47147 -1.47328
0.000189049 0.0920913 -1.51845
-2.297e-06 0.984907 -1.42811
0 0.425 -2.49581
-0.883556 0.53608 0.038305
0.883556 0.535801 0.038305
0.000277656 0.0923799 0.0109301
-4.06454e-06 1.42825 0.06568
-0.894056 0.571919 1.54989
0.894055 0.571831 1.54989
9.11107e-05 0.119894 1.54031
-1.76753e-06 1.40324 1.55947
2.5034e-06 0.59 2.48728
-0.76269 0.265 -2.27546
-0.3725 0.100363 -2.28778
-0.753704 0.096753 -1.90079
-0.716838 0.3775 2.33057
-0.345237 0.16855 2.30145
-0.706224 0.148798 1.92266
-0.763868 0.585 -2.2259
-0.369166 0.809294 -2.23929
-0.816184 0.848962 -1.80155
-0.694905 0.8025 2.30705
-0.3475 1.03331 2.32467
-0.76914 1.06303 1.93291
0.3725 0.100318 -2.28782
0.762681 0.265 -2.27545
0.75304 0.0974175 -1.90079
0.345247 0.168557 2.30144
0.716843 0.3775 2.33057
0.70501 0.150022 1.92266
0.369166 0.809257 -2.23926
0.763877 0.585 -2.22591
0.816184 0.848962 -1.80155
0.3475 1.0333 2.32466
0.694907 0.8025 2.30705
0.769271 1.06316 1.93291
-0.755965 0.0954052 -1.13611
-0.758036 0.0942465 -0.371415
-0.850263 0.287442 -0.735623
-0.379341 0.0918472 -0.75376
-0.760663 0.0934465 1.15797
-0.759453 0.0937427 0.393275
-0.87166 0.300745 0.784859
-0.380347 0.0921661 0.77562
-0.841527 0.926527 -1.05466
-0.871669 0.741477 -0.69935
-0.823104 0.960326 -0.307767
-0.485491 1.23124 -0.681213
-0.781074 1.02274 1.18602
-0.875431 0.799201 0.803335
-0.807216 0.99666 0.439127
-0.509476 1.44556 0.812574
0.758117 0.0932554 -1.13611
0.379908 0.091849 -0.75376
0.759017 0.0932697 -0.371415
0.850224 0.287082 -0.735623
0.760792 0.0933245 1.15797
0.380614 0.0921676 0.77562
0.75987 0.0933321 0.393275
0.871628 0.300588 0.784859
0.841522 0.926522 -1.05466
0.485468 1.2312 -0.681213
0.871672 0.741288 -0.69935
0.8231 0.960322 -0.307767
0.781074 1.02274 1.18602
0.509484 1.44558 0.812574
0.875444 0.799116 0.803335
0.80721 0.996655 0.439127
-0.864139 0.44833 -1.86644
-0.386096 0.425 -2.45908
9.45246e-05 0.0919824 -1.90268
0 0.263115 -2.48382
-0.873886 0.283918 -1.49586
-0.377275 0.0907025 -1.51845
-0.892838 0.58096 1.93725
-0.355834 0.59 2.45586
4.80588e-05 0.155367 1.92099
3.75509e-06 0.379166 2.47967
-0.876439 0.356025 1.5451
-0.357172 0.121001 1.54031
-1.1485e-06 0.925689 -1.83952
0 0.62297 -2.41859
-0.877223 0.685093 -1.45069
-0.419819 0.980262 -1.42811
-8.83767e-07 1.34944 1.94728
1.2517e-06 0.816867 2.4685
-0.878062 0.806388 1.55468
-0.38654 1.39534 1.55947
0.864164 0.448235 -1.86644
0.386096 0.425 -2.45908
0.873857 0.283254 -1.49586
0.378033 0.0906318 -1.51845
0.892837 0.580915 1.9374
0.355993 0.59 2.45585
0.876505 0.356225 1.5451
0.357023 0.121001 1.54031
0.877224 0.684996 -1.45069
0.419815 0.980262 -1.42811
0.878074 0.806343 1.55468
0.386538 1.39534 1.55947
-0.864949 0.2931 0.0246176
-0.37987 0.0919896 0.0109301
-0.87316 0.494991 -1.09538
-0.874941 0.527201 -0.339591
0.000283574 0.0920892 -1.13611
0.000327877 0.0922702 -0.371415
-0.89148 0.54496 0.416201
-0.883956 0.562879 1.17199
0.000227436 0.0924995 0.393275
0.000134163 0.0927617 1.15797
-0.887826 0.776392 0.0519925
-0.518973 1.42641 0.06568
-3.4455e-06 1.05697 -1.05466
-4.32927e-06 1.38062 -0.307767
-3.7998e-06 1.4313 0.439127
-2.6513e-06 1.44025 1.18602
0.864906 0.292845 0.0246176
0.380288 0.091991 0.0109301
0.873145 0.494705 -1.09538
0.874934 0.526871 -0.339591
0.891481 0.544731 0.416201
0.883942 0.562746 1.17199
0.887842 0.77626 0.0519925
0.518961 1.4264 0.06568
-0.864322 0.274459 -1.88362
-0.862306 0.29504 -1.11574
-0.874243 0.707787 -1.07502
-0.867228 0.635046 -1.834
0.864311 0.274127 -1.88362
0.867228 0.634998 -1.834
0.874245 0.707641 -1.07502
0.862268 0.294424 -1.11574
-0.374887 0.09066 -1.90174
0.375266 0.0905911 -1.90174
0.378756 0.0905486 -1.13611
-0.377999 0.0905486 -1.13611
-0.394493 0.924778 -1.82054
-0.417793 1.04654 -1.05466
0.417787 1.04654 -1.05466
0.394491 0.924764 -1.82054
-0.379298 0.264057 -2.44824
-0.377631 0.603985 -2.39338
0.377631 0.603985 -2.39336
0.379298 0.264057 -2.44824
-0.8591 0.289524 -0.355503
-0.870109 0.296021 0.404738
-0.885913 0.789939 0.427664
-0.876531 0.757326 -0.323679
0.859045 0.289223 -0.355503
0.876552 0.757171 -0.323679
0.885927 0.78983 0.427664
0.870071 0.295814 0.404738
-0.379608 0.0919145 -0.371415
0.3801 0.0919161 -0.371415
0.380448 0.0920848 0.393275
-0.380106 0.0920834 0.393275
-0.525933 1.37623 -0.307767
-0.514585 1.43671 0.439127
0.514573 1.43669 0.439127
0.52593 1.37623 -0.307767
-0.878999 0.339933 1.16498
-0.875816 0.366763 1.92995
-0.872337 0.804444 1.93508
-0.879911 0.795112 1.17901
0.87902 0.339902 1.16498
0.879945 0.795044 1.17901
0.872332 0.804422 1.93516
0.875815 0.366863 1.93003
-0.368494 0.090814 1.15797
0.368596 0.0908143 1.15797
0.351135 0.153161 1.92182
-0.351204 0.15318 1.92182
-0.392841 1.43608 1.18602
-0.36702 1.34422 1.9401
0.367019 1.34266 1.9401
0.392836 1.43612 1.18602
-0.350536 0.378333 2.45976
0.35062 0.378333 2.45963
0.351746 0.809683 2.43718
-0.351667 0.809683 2.43719
-0.754973 0.185 -2.28043
-0.55875 0.101827 -2.28631
-0.748827 0.101401 -2.09197
-0.708336 0.27125 2.32246
-0.517858 0.169623 2.30038
-0.699433 0.155818 2.11383
-0.755627 0.665 -2.20498
-0.55375 0.792338 -2.22234
-0.784572 0.804295 -1.98828
-0.695678 0.90875 2.30743
-0.52125 1.02726 2.31862
-0.742488 1.04943 2.11964
0.55875 0.101796 -2.28634
0.754971 0.185 -2.28043
0.748697 0.101532 -2.09197
0.517868 0.169715 2.30029
0.707881 0.27125 2.322
0.698064 0.157196 2.11383
0.55375 0.792288 -2.22229
0.755628 0.665 -2.20498
0.784624 0.804346 -1.98828
0.52125 1.02728 2.31864
0.695692 0.90875 2.30745
0.742487 1.04943 2.11964
-0.756482 0.0951162 -0.944933
-0.75752 0.0945351 -0.562588
-0.844178 0.170655 -0.744692
-0.568819 0.0924534 -0.75376
-0.760348 0.0935329 0.966793
-0.759732 0.0936922 0.584448
-0.849818 0.180253 0.780239
-0.570202 0.0927564 0.77562
-0.835593 0.933649 -0.867937
-0.861874 0.847197 -0.690282
-0.827295 0.951462 -0.49449
-0.703839 1.17759 -0.681213
-0.789026 1.01764 0.999297
-0.841125 0.908653 0.807954
-0.805144 1.00764 0.62585
-0.684426 1.29079 0.812574
0.758341 0.0932598 -0.944933
0.569292 0.0924547 -0.75376
0.758793 0.0932653 -0.562588
0.84426 0.170236 -0.744692
0.760543 0.0933448 0.966793
0.570426 0.0927571 0.77562
0.760077 0.0933541 0.584448
0.849786 0.180097 0.780239
0.835594 0.93365 -0.867937
0.703835 1.1776 -0.681213
0.861917 0.84712 -0.690282
[...]
POINT_DATA 3682
SCALARS point_scalars float 1
LOOKUP_TABLE default
-127.347
-40.9249
-51.9221
-40.4021
-127.567
-49.34
-52.1341
-44.616
-39.8348
-39.8465
-56.0575
-50.0778
-40.1256
-40.6056
-56.5057
-51.234
-42.4488
-110.181
-36.8668
-39.3684
-48.2954
-40.6788
-35.2707
-67.6227
-114.77
-36.8668
-41.6148
-49.5702
-35.0783
-33.1228
57.3889
-100.336
-48.4326
-46.1335
-46.3711
-39.1766
-37.1405
-51.6335
-65.8959
-80.9136
-57.8239
-48.4469
-40.7069
-40.7069
-33.069
-165.407
-39.727
-40.5894
-40.939
-32.8349
-32.6334
79.2839
-31.7748
-30.7145
136.082
-37.2672
-37.3287
-10.8289
-59.1628
-79.5955
-58.7745
-47.7221
-43.933
-39.3214
-37.4154
-165.414
-39.6809
-41.2988
-48.783
-40.8612
-40.6854
35.1121
-41.1242
-39.3709
136.444
-40.6933
-40.5046
-10.7655
-59.4696
-81.4962
-59.4292
-49.2272
-46.1759
-41.0478
-40.8318
-109.907
-37.9267
-40.3503
-55.4262
-49.2634
-42.7504
-67.9174
-114.325
-37.9267
-42.7477
-57.223
-42.6237
-40.6682
57.0164
-100.564
-48.8467
-47.2853
-53.3726
-43.5759
-41.2987
-51.8237
-66.1379
-81.4962
-58.7258
-51.4434
-44.8747
-44.8747
-47.0069
-139.855
-52.3362
-35.7217
-40.4939
-41.1074
-53.4794
-51.6527
-40.7317
-46.7473
-47.0453
-52.4075
-42.6457
-43.1142
-51.944
-49.0927
-39.0563
-40.9554
-41.6013
-43.5235
-42.4214
-52.6277
-16.2436
-62.2727
-39.426
-41.3146
-44.776
-53.3027
-57.7924
-58.0891
-56.1545
-14.8026
203.564
-42.0147
-42.6322
-39.5436
-87.8803
-44.1215
-47.2241
-44.9408
-55.6683
-37.2146
-45.7067
-148.684
-77.5744
-36.0289
-38.4455
-41.2277
-47.9155
-47.0835
-68.6708
-36.4661
-39.8493
-50.7638
-148.711
-45.5707
-77.4068
-45.1485
-43.5793
-45.0674
-47.9545
-48.0716
-68.9003
-41.2012
-42.8363
-54.2966
-42.985
-38.4443
-38.7351
-41.0666
-45.6611
-38.7498
-41.9873
-41.8929
-52.1073
-45.3308
-54.6911
-20.4712
-47.0851
-45.2404
-50.5795
-59.2581
-43.089
-41.1734
-38.7454
-39.1315
-46.9673
-42.2691
-39.2494
-43.1756
-52.6113
-20.7023
-45.7117
-55.2383
-48.7007
-59.8376
-46.4492
-51.4203
-86.9559
184.077
-78.3901
165.181
-56.4526
-55.3089
-49.5364
-33.0294
-40.853
-34.6104
-43.4026
-44.1973
-44.7168
135.618
-55.9775
-19.686
-47.0482
-39.6855
-44.4115
-54.9012
-87.2768
184.149
-57.0425
-55.3136
-55.9267
-40.2991
-46.3996
-45.3614
-56.582
-19.8163
-47.1939
-55.7837
-39.7884
-39.219
-49.2144
-41.342
-46.3427
-39.7628
-42.6773
-41.1672
-40.4293
-45.6052
-46.9534
-78.021
8.87295
-81.4333
-69.8774
-61.8798
-40.3497
-39.3753
-49.3805
-41.8134
-43.5396
-42.9523
-47.5135
-78.3864
-85.782
-48.0366
-50.0352
-86.1387
-86.0639
-86.3426
-50.3164
-48.2825
-78.4835
-78.3827
-45.723
-45.6623
-47.4597
2.1871
1.99935
-47.6035
154.204
111.618
111.599
155.025
-39.081
-40.4309
-46.3086
-46.1073
-39.5184
-46.6124
-47.1815
-41.2163
-39.3589
-39.4972
-40.2629
-40.0212
-81.1003
-63.9258
-64.3605
-81.4742
-41.7621
-47.8091
-49.7946
-44.9417
-43.4339
-46.7116
-55.2867
-53.8191
-45.5789
-46.2636
-42.044
-39.7818
-60.1633
-46.9847
-48.2516
-60.7581
-30.5068
-39.5596
-40.4519
-36.9541
-43.665
-156.408
-105.67
-37.6592
-38.4546
-41.3402
-47.7991
-28.9206
-61.6395
-37.8714
-39.5152
-46.3362
-154.832
-44.207
-105.906
-46.9891
-45.7538
-47.0776
-28.8574
-47.9368
-61.9584
-41.7626
-43.7096
-50.1237
-37.9552
-38.581
-38.6599
-40.2878
-44.6464
-39.3739
-41.0104
-41.5003
-53.6018
-49.8213
-55.6595
-71.0696
-48.5969
-48.2898
-50.247
-54.9729
-38.2391
-40.4522
-38.8954
-39.0294
-45.6266
-42.0659
-39.9903
-42.165
-54.0159
-71.6243
-50.2399
-56.1478
-49.959
-55.9242
-49.4844
-51.2295
-52.0542
-43.693
-122.017
121.203
-143.702
-143.623
-103.691
52.406
-60.9093
-47.8284
-54.4592
-53.918
-35.6881
-35.7869
-43.3436
-33.4845
-38.9515
-42.4164
-39.6685
-35.9866
-40.223
-45.9077
-42.2709
-42.6465
-60.0196
-64.6502
-53.7206
55.6454
-55.3284
-51.5976
-55.7017
-26.91
-40.3605
-41.0193
-42.9695
-40.4878
-48.6633
-46.7245
-45.5343
-54.2066
-50.9935
-43.9553
-122.193
120.907
-60.9581
-47.8183
-55.2183
-53.8895
-42.8997
-42.4985
-50.8969
-40.5964
-42.9245
-47.4684
-45.0625
-44.237
-55.5638
-51.9954
-56.0784
-27.138
-51.5571
-48.6717
-48.0758
-55.4821
-38.6874
-38.5554
-39.365
-38.8895
-39.7396
-42.5936
-42.1538
-40.9655
-41.457
-41.5168
-43.4661
-40.4028
-43.0842
-43.6134
-43.1752
-42.411
-42.3023
-42.4825
-41.2492
-43.8396
-53.5637
-51.3578
-50.5469
-61.0834
-16.7199
-16.8989
6.69829
-46.8146
-61.7767
-62.0428
-65.0745
-62.2211
-38.9722
-38.9986
-39.9002
-39.1331
-40.1039
-42.9546
-42.4325
-41.3858
-44.3302
-44.8481
-44.2115
-43.9011
-54.1606
-52.0933
-51.1969
-61.6956
-68.3975
-57.4571
-56.782
-53.7868
-68.7891
-57.8757
-57.6667
-54.2545
-64.5163
-55.9518
-55.9681
-50.3442
-28.6075
-15.9275
-16.0245
-2.36732
199.702
193.08
182.763
199.698
-40.7236
-41.4817
-42.3235
-43.9424
-41.318
-42.0186
-43.0527
-44.5688
-39.4508
-39.4804
-39.8544
-39.5157
-85.4677
-90.6759
-76.9814
-85.6105
-45.6348
-43.9355
-44.3435
-43.7911
-49.8971
-47.0096
-47.3701
-46.1711
-42.8586
-44.6293
-45.2602
-47.2974
-51.1186
-55.3124
-55.7651
-59.8984
-35.1135
-35.2595
-38.2304
-39.1002
-116.983
107.81
-106.628
37.0409
-84.1833
-77.7108
-44.7561
-32.6298
-38.7256
-33.2392
-47.3356
-40.0394
-106.366
90.9209
-55.5319
72.0005
-84.4282
-52.5641
-45.0366
-35.3942
-42.9864
-38.9817
-48.9771
-48.927
-106.237
39.7522
-116.818
107.124
-84.3533
-77.4896
-42.2947
-40.657
-52.5851
-40.661
-52.6753
-43.0712
-55.7389
71.3278
-106.404
90.6629
-84.6983
-52.7575
-44.6937
-40.6473
-51.8498
-40.7383
-53.4857
-51.1895
-46.9431
-44.647
-38.6707
-38.9161
-40.304
-38.7903
-42.8477
-39.8908
-38.4935
-46.192
-39.5978
-39.5595
-41.1736
-41.3823
-40.7924
-43.6217
-51.7945
-15.7377
-44.854
-45.9952
-49.96
-72.2858
1.13097
-46.2028
-46.0904
-55.6711
-46.0934
-45.2929
-48.546
-56.6069
-60.6168
-59.8298
-47.3105
-44.7528
-42.9357
-40.0128
-39.0749
-39.1166
-40.6023
-39.2225
-40.2768
-47.2107
-41.0905
-44.1171
-40.3371
-39.9203
-42.1313
-42.852
-52.1175
-16.0014
0.91134
-46.4189
-45.1874
-46.4606
-50.4866
-72.8886
-47.7847
-56.6225
-61.1099
-60.4121
-47.1198
-46.7447
-49.398
-57.3351
-86.4702
-86.5499
176.223
174.233
-78.2989
-78.3323
155.778
155.827
-67.24
-54.5461
-63.7222
-49.5735
-48.4592
-50.4447
-30.9041
-35.0489
-41.407
-40.2412
-32.0314
-37.5702
-43.9139
-44.4511
-46.9097
-41.8655
-45.259
-45.3355
120.226
119.613
-55.5902
-67.3574
-31.3706
-9.39692
-46.8669
-47.4993
-40.2339
-38.4218
-47.4646
-44.6738
-58.0955
-50.776
-86.7919
-86.8349
174.433
176.459
-67.724
-54.0021
-63.7049
-49.6055
-56.5939
-54.7288
-39.9623
-40.4063
-46.1863
-48.5547
-47.8462
-43.4466
-67.8577
-55.9133
-9.55224
-31.5118
-46.8532
-51.2866
-51.8578
-58.8086
-39.5114
-40.0603
-39.1363
-39.4847
-48.7275
-49.5475
-39.9502
-42.9819
-46.2119
-46.1742
-39.646
-39.7201
-41.5146
-44.1507
-41.5663
-42.4616
-40.4226
-40.2988
-45.4821
-45.838
-45.803
-44.7964
-81.9344
-69.3988
7.65982
7.41381
-80.2406
-80.3302
-68.5841
-68.7719
-61.643
-61.9584
-40.0016
-40.72
-39.2831
-39.6834
-49.7725
-48.8886
-40.4074
-43.4693
-45.0276
-42.3472
-43.3436
-44.2703
-45.3753
-46.5971
-69.7976
-82.3108
-109
-65.436
-68.0669
-120.969
-39.2838
-41.2233
-53.917
-54.8071
-48.4229
-55.3912
-54.8514
-43.2069
-84.5023
-118.944
-68.1248
-67.7767
-108.562
-121.082
-68.5176
-65.9197
-84.7921
-68.1313
-68.8471
-118.961
-48.7926
-43.5101
-55.1651
-55.7373
-39.6845
-53.266
-54.0564
-41.497
-107.221
-104.473
-64.3094
-62.215
-106.643
-62.1429
-64.338
-104.444
-41.9953
-43.3653
-50.1925
-48.4397
-41.8387
-48.4441
-50.1632
-43.3156
-54.8628
-36.1382
-29.0782
-54.7924
-50.1578
6.12438
-4.07762
-20.4867
-50.6143
-20.6961
-4.21734
5.87886
-55.044
-55.2308
-29.1592
-36.3298
48.9032
118.045
188.764
48.207
73.5459
60.7612
178.232
109.991
73.4695
109.47
177.847
68.4457
44.8035
48.3037
188.828
117.662
-38.8905
-39.3674
-40.2601
-39.6978
-40.2103
-42.14
-41.0657
-39.4145
-48.1427
-48.5481
-43.949
-44.1755
-50.2111
-42.6045
-43.0581
-49.1193
-39.3003
-40.1161
-40.7766
-39.8377
-50.6823
-49.6975
-43.609
-43.0444
-49.1568
-45.2175
-44.7048
-49.2773
-41.1285
-40.054
-41.7668
-43.1479
-39.2686
-40.2688
-39.3806
-38.7737
-39.4665
-38.9899
-39.4847
-40.3352
-40.7307
-41.2517
-39.8386
-39.35
-40.2855
-39.0474
-39.7402
-41.1024
-79.1992
-64.8989
-88.8233
-45.4301
-55.2283
-64.0133
-75.1927
-59.1044
-56.0536
-59.7694
-75.3565
-64.2326
-79.7652
-45.5604
-88.9439
-65.4859
-41.7396
-45.6458
-43.6541
-42.1068
-47.2515
-43.6888
-45.1809
-43.3086
-46.141
-47.709
-46.1531
-44.2851
-47.3676
-43.0476
-43.7548
-45.3704
-43.1891
-43.5877
-45.9993
-47.9587
-48.7854
-47.445
-46.0845
-44.5294
-52.1204
-51.6479
-50.2869
-51.0969
-55.1728
-47.1412
-49.4244
-51.4383
-43.2241
-43.7234
-47.1414
-46.9042
-43.9589
-48.3238
-47.6359
-43.9601
-43.6781
-40.8439
-43.1572
-43.2387
-38.9854
-41.0825
-42.2987
-38.9547
-52.2833
-56.0655
-59.2304
-61.7665
-43.4405
-42.7192
-50.8834
-51.9126
-45.8254
-53.5896
-51.4227
-43.5671
-53.361
-62.058
-59.6091
-57.1535
-36.9766
-33.2271
-32.2021
-32.0516
-45.3275
-40.388
-37.7983
-38.5702
-40.8448
-40.645
-39.676
-40.6622
-36.8359
-34.2351
-36.8991
-39.9468
-68.7487
-160.454
-150.806
-39.3676
-39.6085
-40.1964
-51.2101
-25.8566
-66.8788
-39.0302
-39.7634
-43.2279
-160.363
-69.0457
-150.904
-47.9173
-47.7805
-47.0572
-25.8847
-51.385
-67.09
-42.519
-44.4734
-47.0855
-39.6326
-38.9416
-37.6514
-39.8336
-42.0589
-39.9248
-39.2163
-41.2351
-56.2296
-53.0015
-55.8908
-68.8362
-49.3539
-49.2315
-50.4177
-52.1255
-39.9694
-40.028
-39.2709
-35.622
-42.9083
-41.8912
-40.6002
-40.2372
-56.664
-69.3576
-53.4328
-56.3573
-50.594
-53.1957
-50.4084
-51.4887
-46.8873
-45.335
-113.038
61.9961
-141.053
-141.016
-122.717
-66.4256
-55.9313
-49.5695
-53.2686
-53.0674
-35.6886
-35.7684
-38.8741
-34.2209
-39.4289
-41.3884
-39.8026
-37.3902
-40.7187
-41.4893
-41.3006
-41.7619
-53.1044
-60.3547
-64.9564
3.93933
-53.5383
-52.2341
-55.6956
-35.3073
-40.5417
-40.9096
-40.8746
-40.9034
-47.308
-46.6888
-46.034
-50.7356
-46.6898
-45.5079
-113.269
61.6225
-56.0414
-49.5264
-54.0069
-53.0879
-42.8032
-42.5092
-46.2343
-40.9665
-43.0134
-43.1928
-43.8119
-43.4768
-53.8382
-52.5893
-56.0223
-35.5068
-49.9007
-48.8211
-48.4918
-52.5895
-38.7604
-38.2327
-43.0313
-38.741
-40.3254
-41.6754
-41.3014
-40.8723
-41.5676
-41.5988
-42.4561
-40.9054
-43.4901
-43.4916
-43.7187
-42.9983
-42.3738
-42.4629
-41.8146
-43.0655
-53.2151
-52.0376
-51.3187
-56.4367
-16.3194
-16.4283
-4.63156
-27.7313
-62.1118
-62.2402
-63.4096
-61.9219
-39.0851
-38.6321
-43.5026
-39.0282
-40.6846
-42.0376
-41.6206
-41.2662
-44.7439
-44.7388
-44.8624
-44.3635
-53.8433
-52.7428
-52.007
-57.0814
-62.4063
-57.7491
-57.4458
-54.9055
-62.9574
-58.1959
-57.7495
-55.4866
-59.9259
-56.1172
-56.1293
-52.9864
-22.2782
-15.0392
-15.0995
-9.12424
204.637
202.053
198.235
204.622
-41.3495
-41.7472
-42.1832
-42.8113
-41.9583
-42.3201
-42.8534
-43.4359
-39.5185
-39.5012
-39.64
-39.5501
-87.3728
-90.6624
-81.9542
-87.4344
-44.6667
-44.0137
-44.1859
-43.8465
-48.2764
-47.1177
-47.262
-46.5503
-43.8816
-44.7751
-45.1016
-46.1644
-53.2823
-55.5987
-55.8309
-57.6188
-36.1737
-36.2641
-37.7739
-38.3512
-50.3192
-46.2483
-107.311
64.7422
-150.751
-147.577
-128.312
-114.823
-90.1777
-67.5314
-82.896
-77.343
-36.4909
-35.7324
-39.6121
-33.7508
-38.8701
-38.7705
-38.4543
-34.8548
-41.313
-40.4624
-45.6711
-40.3949
-49.9989
-43.6041
-88.8389
49.6527
-36.4343
-58.6926
-66.5227
27.4947
-68.5088
-60.0137
-78.077
-56.834
-37.0937
-36.0013
-40.5016
-35.3626
-39.6771
-40.1068
-40.1179
-40.0278
-48.8972
-49.3299
-49.5332
-51.1334
-146.37
-147.059
-127.647
-116.652
-51.069
-48.7132
-107.463
63.9782
-90.1387
-67.4696
-83.0047
-77.1931
-46.9639
-43.7737
-43.1425
-42.3961
-44.1599
-43.0566
-47.2563
-41.1482
-46.0479
-43.6593
-50.645
-43.8133
-37.0084
-59.5056
-66.74
26.8475
-50.1041
-43.8195
-88.9557
49.5436
-68.8058
-60.3032
-78.3031
-57.0732
-41.3915
-41.1078
-41.8171
-40.9679
-43.1987
-42.5998
-47.2937
-41.1109
-52.6188
-52.4918
-53.6067
-53.758
-40.4086
-45.4285
-45.2322
-43.8716
-38.4506
-38.3414
-38.859
-38.6673
-38.7784
-39.2022
-39.0885
-38.744
-40.7593
-41.2774
-41.9561
-40.3394
-43.4967
-52.5872
-40.3088
-46.4772
-38.9943
-38.4607
-38.5657
-39.2435
-41.7033
-42.4358
-41.7974
-41.7746
-41.64
-42.1328
-41.3401
-42.6614
-53.817
-53.5423
-53.6227
-37.3073
-47.3225
-43.8117
-44.9053
-45.6324
-55.2689
-54.1164
-52.5775
-61.4439
-37.6363
-17.5577
-10.2981
-31.1287
-47.7124
-46.765
-46.4106
-50.0994
-47.0466
-43.9905
-45.8391
-45.1449
-50.2082
-50.9343
-49.4926
-53.5892
-58.0002
-61.0721
-59.7864
-59.808
-40.6483
-45.5769
-45.4897
-44.0305
-40.8903
-41.361
-42.0547
-40.4538
-38.7575
-38.6372
-39.1271
-38.9004
-39.2184
-39.5766
-39.4103
-39.1732
-44.6617
-54.1934
-41.7568
-47.6521
-42.1103
-42.4128
-41.6743
-43.0894
-39.5553
-38.9245
-39.2094
-39.6664
-42.8689
-43.6521
-42.8646
-43.1002
-54.21
-54.0111
-53.9519
-37.6747
-37.9955
-17.7495
-10.5288
-31.3088
-47.7257
-44.1741
-45.3135
-46.0718
-55.7911
-54.6872
-53.1175
-62.0051
-49.1978
-48.5377
-48.0704
-51.3882
-58.7729
-61.4821
-60.3186
-60.3957
-48.2539
-45.2082
-46.9619
-46.4626
-51.1122
-51.7152
-50.3368
-54.3814
-105.935
-75.788
-86.7731
-86.8209
153.753
194.836
183.111
182.209
-89.24
-70.3942
-78.4083
-78.4479
123.655
181.2
159.168
159.188
-55.6414
-57.0769
-61.2314
-53.6387
-54.7058
-55.7236
-59.0727
-52.1608
-50.4849
-46.9988
-49.2263
-49.7543
-33.0452
-34.1376
-31.8819
-34.0234
-40.2554
-41.8041
-41.1669
-40.5494
-35.3009
-34.6085
-33.032
-36.3132
-43.0764
-43.736
-43.368
-43.7036
-43.712
-44.4714
-45.5923
-43.0574
-51.0886
-36.4471
-44.6037
-44.6514
119.264
146.438
135.364
123.149
-56.6963
-56.2329
-54.4945
-61.3688
-22.6895
-17.4443
-25.3243
-14.433
-46.225
-48.6393
-46.9633
-47.2815
-39.9617
-39.0012
-40.1715
-38.9463
-44.9928
-44.2963
-45.8778
-44.1951
-54.7685
-55.1895
-56.4556
-52.8908
-106.164
-76.1806
-87.0986
-87.1317
153.717
194.895
182.292
183.231
-56.3214
-57.569
-61.76
-54.4887
-54.6848
-55.744
-59.0652
-52.1828
-58.2714
-52.111
-56.0311
-55.5934
-40.516
-39.7353
-40.1196
-40.357
-46.0028
-46.7767
-45.9618
-47.1673
-45.1302
-45.3825
-46.6318
-44.3993
-57.1588
-56.9914
-61.5086
-54.9094
-22.8476
-17.5502
-14.5711
-25.4487
-47.6262
-47.2238
-46.6186
-49.1311
-55.839
-55.8572
-53.8612
-57.2401
-39.4308
-40.1333
-39.6842
-39.9284
-39.0565
-39.3392
-39.1725
-39.2927
-44.7937
-53.1674
-49.0148
-49.4083
-41.0775
-41.397
-40.5296
-42.0471
-44.7815
-48.1754
-46.3264
-46.3045
-40.0183
-39.5876
-39.728
-39.7658
-42.874
-42.5252
-42.125
-43.2639
-41.9799
-42.3874
-41.2657
-41.6366
-40.8188
-40.0903
-40.4438
-40.3823
-44.6604
-46.9818
-45.5278
-45.7101
-49.3628
-45.2788
-47.8292
-45.019
-69.0413
-82.4572
-79.5366
-73.6653
12.0266
2.88105
8.67326
8.50726
-65.6793
-91.1166
-81.2161
-81.2385
-67.352
-72.9813
-69.5103
-69.6006
-62.047
-61.5076
-61.8238
-61.9839
-39.9745
-40.7084
-40.2066
-40.5365
-39.1874
-39.4464
-39.2593
-39.4738
-45.0271
-53.3338
-49.5998
-49.1701
-41.5243
-41.8982
-40.9932
-42.5285
-43.8149
-43.3172
-44.1343
-42.9764
-43.6113
-44.4405
-43.051
-43.4362
-49.8437
-45.8929
-45.5743
-48.6269
-69.5525
-82.7004
-74.0449
-79.9329
-107.352
-85.106
-86.2047
-74.6171
-47.7418
-43.4704
-52.6694
-48.39
-50.7751
-46.3318
-54.3831
-49.677
-105.093
-86.0189
-85.8776
-74.9713
-107.539
-85.3442
-86.5153
-75.0197
-105.281
-86.292
-86.0539
-75.2372
-51.0808
-46.6405
-54.6594
-49.9333
-48.0682
-43.7704
-52.3945
-48.5755
-90.5414
-78.1856
-78.5643
-69.8454
-90.3188
-77.9669
-78.5843
-69.8096
-45.3092
-44.1974
-47.5095
-46.0304
-45.2373
-44.1215
-47.4659
-45.9785
-55.083
-49.5165
-46.2114
-39.0523
-3.28642
4.94203
-3.59108
5.41856
-3.49497
4.72363
-3.7983
5.18664
-55.3413
-49.6784
-46.3189
-39.1788
130.04
113.614
166.087
150.758
104.868
103.308
143.45
114.647
103.419
104.105
115.15
143.541
115.18
130.83
151.14
166.537
-38.7031
-38.8838
-39.3264
-39.4218
-39.9116
-40.7451
-40.2202
-40.8885
-46.0482
-47.7703
-45.0202
-44.9907
-46.2032
-48.0038
-44.3085
-45.8801
-39.1212
-39.3117
-39.7875
-39.8712
-46.6771
-48.5195
-44.8039
-46.4179
-46.9914
-48.6342
-45.8998
-45.7928
-40.6715
-41.611
-40.9378
-41.6955
-39.1533
-39.5708
-39.2173
-39.5172
-39.7
-39.3225
-39.6232
-39.3673
-40.6479
-40.1098
-40.351
-39.9299
-39.8105
-40.3797
-39.7112
-40.1674
-88.3953
-66.0821
-82.987
-78.8415
-60.467
-61.955
-66.1869
-66.904
-62.4125
-61.0629
-67.2024
-66.6023
-66.3836
-89.0296
-79.0389
-83.3748
-41.1205
-40.2402
-43.9533
-41.8075
-50.1528
-47.3994
-48.0749
-45.5244
-50.5715
-49.0788
-50.7761
-49.2971
-45.7233
-45.1365
-45.0971
-43.4407
-42.4909
-41.7945
-45.9084
-43.5392
-47.4566
-46.7423
-47.0678
-45.2374
-57.2445
-54.038
-56.711
-53.8871
-57.6912
-53.2671
-54.2492
-50.3844
-45.818
-44.5458
-47.0145
-45.4858
-46.6727
-45.1259
-47.8351
-46.0088
-42.249
-42.5118
-41.6817
-42.4053
-39.4253
-39.8471
-39.9867
-40.5678
-58.9191
-60.3363
-59.7409
-61.1999
-46.8405
-47.3371
-46.8404
-48.3542
-48.1257
-49.0849
-47.7984
-49.5643
-59.6261
-60.922
-60.3983
-61.6595
-31.3169
-31.5456
-30.3855
-31.1223
-39.6228
-40.4141
-38.5305
-39.8886
-40.5018
-40.5965
-40.3231
-40.4733
-35.7047
-37.8478
-36.1254
-37.7964
-112.601
47.1818
-134.006
-55.6221
-110.101
-106.981
-41.6562
-37.1077
-39.1188
-36.8606
-47.5921
-39.4185
-83.7622
36.3056
-56.3025
31.33
-71.907
-54.8568
-42.1424
-36.5842
-40.7344
-38.9919
-46.1619
-45.0782
-132.774
-60.7564
-112.713
46.1348
-109.836
-106.861
-45.297
-45.2656
-49.6817
-45.4218
-55.0405
-44.5264
-56.5409
31.4395
-83.9987
36.4471
-72.2258
-55.0986
-43.0284
-41.2628
-48.2905
-41.4357
-51.0805
-47.6642
-36.9011
-41.0495
-38.9428
-38.9098
-38.3398
-39.6062
-40.9224
-39.6656
-44.1364
-43.0594
-39.0453
-39.9668
-40.905
-41.3841
-40.8639
-42.3554
-51.1408
-60.3804
-49.2444
-50.1759
-53.0744
-64.742
-60.8354
-78.3154
-47.9275
-50.2474
-48.4383
-47.855
-49.2502
-52.7455
-55.1059
-53.2932
-37.2191
-41.2741
-41.0774
-39.8473
-39.1746
-39.1784
-38.5492
-40.2087
-45.3301
-43.903
-41.3619
-42.9985
-39.8517
-40.4867
-41.9272
-42.6727
-51.5307
-60.8572
-61.3555
-78.656
-49.6354
-50.625
-53.5518
-65.2536
-49.3237
-51.4892
-55.9937
-54.2985
-49.5426
-49.1487
-50.2463
-53.6593
-111.548
61.9494
-101.118
55.6345
-122.081
-118.635
123.47
114.73
-124.068
-77.8135
-123.808
-77.6899
-104.051
-104.062
33.4552
33.4566
-64.1068
-61.4376
-53.3029
-47.8392
-59.6352
-51.3128
-57.5848
-50.9066
-39.0906
-33.4105
-39.7011
-34.5659
-43.4776
-43.6913
-32.5074
-33.9559
-38.7559
-35.4505
-41.2906
-40.1388
-40.2352
-39.2668
-34.2891
-37.2701
-41.8082
-40.6024
-48.4203
-46.7855
-42.2485
-42.5686
-44.108
-41.7367
-63.7093
15.4109
-64.5679
12.1274
-54.0907
-54.518
53.4946
57.6889
-64.3913
-42.2421
-55.2324
-36.814
-54.9979
-59.8814
-31.3437
-23.5264
-40.4442
-40.6451
-41.3121
-40.9676
-43.3261
-43.6809
-40.6641
-40.2567
-47.6217
-52.1503
-45.9949
-50.6972
-46.5577
-45.411
-54.8855
-53.7746
-111.754
61.4015
-101.201
55.3855
-122.246
-118.793
114.424
123.143
-64.5198
-61.3936
-51.7192
-47.8267
-60.2157
-53.4727
-57.5277
-50.8861
-46.6319
-40.8233
-46.9103
-40.9645
-51.1859
-51.1548
-40.4191
-40.6492
-45.2568
-43.0052
-50.6057
-48.3275
-44.6221
-45.8024
-45.5786
-43.5775
-64.7797
-42.4856
-55.5928
-37.0994
-60.2488
-55.3626
-23.7294
-31.5362
-50.7882
-54.2952
-48.0091
-52.2324
-47.6965
-49.4823
-55.1888
-56.0906
-40.3055
-38.6394
-38.7788
-38.781
-39.3055
-39.035
-38.8487
-38.9095
-40.1324
-39.6172
-42.671
-42.5911
-41.7057
-42.6479
-40.2774
-41.6882
-42.3077
-40.7619
-42.3669
-40.8297
-43.4784
-43.4503
-40.3771
-40.4115
-42.9379
-42.6678
-43.9485
-43.2641
-42.718
-43.5997
-42.3486
-42.6373
-41.6726
-42.9838
-41.8349
-43.169
-41.2844
-41.2127
-43.782
-43.9063
-51.5708
-58.6004
-50.0454
-54.519
-49.5432
-50.283
-62.6209
-60.0182
-5.50516
-27.3763
-5.68947
-27.5405
6.60784
6.48959
-46.5825
-46.6553
-62.498
-61.7385
-62.738
-62.018
-64.7601
-64.8653
-62.1179
-62.2647
-40.6758
-38.8834
-39.3659
-39.1375
-39.8016
-39.6162
-39.0013
-39.1859
-40.4489
-40.0141
-43.0065
-42.999
-42.9369
-41.9801
-40.6954
-42.1161
-44.0595
-44.0267
-45.082
-44.6163
-44.6401
-43.746
-43.8387
-44.1288
-52.1605
-59.1967
-50.7823
-55.2212
-50.885
-50.5514
-60.6592
-63.2192
-68.3864
-68.1976
-62.1202
-54.5197
-54.6746
-62.3665
-53.7406
-54.1871
-68.835
-68.5298
-62.6111
-54.8684
-62.7421
-55.4275
-54.6541
-53.9974
-64.5367
-64.5552
-59.7278
-52.7924
-59.7401
-52.817
-50.3559
-50.337
-28.6722
-28.7272
-22.6139
-10.3274
-10.4379