# vtk DataFile Version 2.0
tet_velo
ASCII
DATASET UNSTRUCTURED_GRID
POINTS 29498 float
-0.585 0.095 -1.59923
-0.685 0.095 1.57476
-0.585 0.399529 -1.535
-0.685 0.485 1.52904
0.585 0.095 -1.59923
0.685 0.095 1.57476
0.585 0.399528 -1.535
0.685 0.485 1.52904
-0.620472 0.0928617 -0.541233
-0.653708 0.0929587 0.516763
-0.731243 0.540929 -0.513653
-0.815754 0.620597 0.507693
0.620472 0.0928612 -0.541233
0.653708 0.0929585 0.516763
0.731226 0.540912 -0.513653
0.815764 0.620607 0.507693
-1.26945 -0.152035 -2.44224
-1.26138 -0.111528 -1.61053
-1.30227 -0.109686 -0.551581
-1.33891 -0.123366 0.514739
-1.35033 -0.136416 1.5743
-1.3569 -0.153537 2.40907
-1.36105 -0.169083 3.2382
-1.26123 0.0367691 -2.42331
-1.25647 0.092751 -1.59559
-1.32118 0.11365 -0.543777
-1.36529 0.107142 0.511335
-1.35925 0.0768277 1.56385
-1.36471 0.0581444 2.39809
-1.36886 0.0446872 3.22842
-1.26378 0.395442 -2.37514
-1.2752 0.449285 -1.54591
-1.40601 0.558089 -0.519082
-1.48171 0.60411 0.50515
-1.39846 0.509027 1.53268
-1.39 0.487484 2.36844
-1.39123 0.482724 3.20467
-1.29145 1.04285 -2.33045
-1.31095 1.11029 -1.50671
-1.37932 1.22376 -0.491762
-1.44803 1.2884 0.515283
-1.46073 1.2581 1.53061
-1.44487 1.21976 2.35515
-1.43062 1.19745 3.18739
-0.627587 -0.152882 -2.44461
-0.606638 -0.110047 -1.61398
-0.627932 -0.12106 -0.551119
-0.651106 -0.13248 0.519372
-0.667446 -0.129463 1.5824
-0.671682 -0.151538 2.41456
-0.67314 -0.171347 3.24138
-0.62099 0.0306827 -2.42403
-0.678216 0.0591571 2.40263
-0.67924 0.040997 3.23082
-0.617746 0.371973 -2.37061
-0.6936 0.476301 2.36771
-0.696867 0.474676 3.20452
-0.619452 1.02613 -2.32597
-0.623046 1.09434 -1.50177
-0.670261 1.21931 -0.488786
-0.733511 1.29292 0.514926
-0.755456 1.25635 1.52806
-0.743425 1.214 2.35261
-0.731603 1.19159 3.18553
0.610746 -0.152883 -2.44461
0.611801 -0.110048 -1.61398
0.63833 -0.121061 -0.551119
0.668254 -0.132481 0.519372
0.690387 -0.129463 1.5824
0.695627 -0.151538 2.41456
0.699635 -0.171347 3.24138
0.600272 0.0306808 -2.42403
0.692289 0.0591572 2.40263
0.696582 0.0409974 3.23082
0.611909 0.37197 -2.37061
0.688286 0.476301 2.36771
0.688865 0.474677 3.20452
0.701283 1.02613 -2.32597
0.725165 1.09434 -1.50177
0.745375 1.2193 -0.488787
0.724851 1.29292 0.514926
0.682837 1.25635 1.52806
0.672526 1.214 2.35261
0.672275 1.19159 3.18553
1.24829 -0.15204 -2.44224
1.25309 -0.111532 -1.61053
1.30151 -0.109689 -0.551581
1.34891 -0.123365 0.514739
1.36962 -0.136415 1.5743
1.38038 -0.153537 2.40907
1.38647 -0.169082 3.2382
1.23752 0.0367638 -2.4233
1.24255 0.0927447 -1.59559
1.31201 0.113646 -0.543777
1.36552 0.107145 0.511335
1.36759 0.0768283 1.56385
1.37951 0.0581451 2.39809
1.38525 0.0446879 3.22842
1.2568 0.395435 -2.37514
1.2711 0.449275 -1.54591
1.40233 0.558074 -0.519082
1.4782 0.604117 0.50515
1.39471 0.50903 1.53268
1.3836 0.487486 2.36844
1.38289 0.482725 3.20467
1.36227 1.04284 -2.33045
1.39381 1.11028 -1.50671
1.43817 1.22376 -0.491763
1.4413 1.28839 0.515283
1.40251 1.25811 1.53061
1.38285 1.21976 2.35515
1.37552 1.19745 3.18739
-0.605828 0.247265 -1.58794
0 0.111212 -1.58302
-0.603868 0.0927988 -1.07023
-0.628678 0.29 1.49558
0 0.0915206 1.57824
-0.670564 0.092769 1.04576
0 0.47372 -1.60919
-0.697368 0.509475 -1.02433
0 0.539787 1.58383
-0.795975 0.598396 1.01837
0.605846 0.247264 -1.58796
0.603868 0.0927989 -1.07023
0.628676 0.29 1.49558
0.670565 0.0927688 1.04576
0.697361 0.509468 -1.02433
0.796685 0.599107 1.01837
-0.637087 0.0929132 -0.012235
-0.818249 0.316896 -0.527443
2.75766e-07 0.0908106 -0.541233
-0.81979 0.356778 0.512228
8.13302e-08 0.0907739 0.516763
-0.796106 0.60337 -0.00297999
-8.48205e-06 0.543576 -0.513653
5.30523e-06 0.716978 0.507693
0.637088 0.0929125 -0.012235
0.818252 0.316886 -0.527443
0.819792 0.356783 0.512228
0.796191 0.603455 -0.00297999
-0.819284 0.28208 -1.04728
-0.818482 0.336837 -0.00760752
-0.893976 0.323389 1.03206
1.37883e-07 0.0908198 -1.07023
1.78548e-07 0.0907937 -0.012235
4.06651e-08 0.0905977 1.04576
0 0.247264 -1.72623
0 0.29 1.59061
-4.24103e-06 0.541179 -1.02433
-1.58841e-06 0.692012 -0.00297999
2.65262e-06 0.656165 1.01837
0.819284 0.282075 -1.04728
0.818478 0.336835 -0.00760752
0.893896 0.323391 1.03206
-0.920737 0.0938755 -1.59741
-0.595819 -0.00752371 -1.6066
-0.602995 0.0628413 -2.01163
-1.02213 0.0859139 1.56931
-0.676223 -0.0172315 1.57858
-0.681608 0.0770785 1.98869
-0.930098 0.424407 -1.54045
-0.601373 0.385751 -1.9528
-0.604023 0.746937 -1.51839
-1.04173 0.497014 1.53086
-0.6893 0.48065 1.94838
-0.720228 0.870675 1.52855
0.5984 -0.00752424 -1.6066
0.592636 0.0628404 -2.01163
0.913776 0.0938724 -1.59741
0.687694 -0.0172314 1.57858
0.688644 0.0770786 1.98869
1.02629 0.0859141 1.56931
0.598455 0.385749 -1.9528
0.655083 0.746933 -1.51839
0.928051 0.424401 -1.54045
0.686643 0.480651 1.94838
0.683918 0.870676 1.52855
1.03986 0.497015 1.53086
-0.970827 0.103256 -0.542505
-0.624202 -0.0140991 -0.546176
-1.0095 0.10005 0.514049
-0.652407 -0.0197609 0.518068
-1.06863 0.549509 -0.516368
-0.700752 0.880119 -0.50122
-1.14873 0.612353 0.506422
-0.774632 0.956756 0.51131
0.629401 -0.0140998 -0.546176
0.966243 0.103253 -0.542505
0.660981 -0.019761 0.518068
1.00962 0.100052 0.514049
0.738301 0.880108 -0.50122
1.06678 0.549493 -0.516368
0.770308 0.956762 0.51131
1.14698 0.612362 0.506422
-1.26541 -0.131781 -2.02639
-1.26534 -0.0576328 -2.43277
-0.948517 -0.152458 -2.44343
-1.28183 -0.110607 -1.08105
-1.25893 -0.00938827 -1.60306
-0.93401 -0.110787 -1.61225
-1.32059 -0.116526 -0.0184213
-1.31173 0.00198229 -0.547679
-0.965101 -0.115373 -0.55135
-1.34462 -0.129891 1.04452
-1.3521 -0.00811169 0.513037
-0.995006 -0.127923 0.517056
-1.35361 -0.144976 1.99168
-1.35479 -0.029794 1.56908
-1.00889 -0.132939 1.57835
-1.35897 -0.16131 2.82363
-1.3608 -0.0476964 2.40358
-1.01429 -0.152537 2.41181
-1.36495 -0.0621979 3.23331
-1.0171 -0.170215 3.23979
-1.25885 0.06476 -2.00945
-1.26251 0.216106 -2.39922
-0.941112 0.0337259 -2.42367
-1.28883 0.103201 -1.06968
-1.26584 0.271018 -1.57075
-1.34324 0.110396 -0.0162211
-1.3636 0.33587 -0.531429
-1.36227 0.091985 1.03759
-1.4235 0.355626 0.508242
-1.36198 0.0674861 1.98097
-1.37886 0.292928 1.54827
-1.36678 0.0514158 2.81326
-1.37735 0.272814 2.38327
-1.02146 0.0586507 2.40036
-1.38004 0.263706 3.21655
-1.02405 0.0428421 3.22962
-1.26949 0.422364 -1.96053
-1.27761 0.719148 -2.35279
-0.940764 0.383707 -2.37287
-1.3406 0.503687 -1.0325
-1.29307 0.779786 -1.52631
-1.44386 0.581099 -0.00696604
-1.39266 0.890926 -0.505422
-1.44009 0.556569 1.01891
-1.46487 0.946253 0.510217
-1.39423 0.498256 1.95056
-1.42959 0.883566 1.53165
-1.39062 0.485104 2.78656
-1.41744 0.853622 2.3618
-1.0418 0.481893 2.36808
-1.41093 0.840087 3.19603
-1.04405 0.4787 3.2046
-1.3012 1.07657 -1.91858
-0.955449 1.03449 -2.32821
-1.34513 1.16703 -0.999235
-0.966997 1.10232 -1.50424
-1.41367 1.25608 0.0117605
-1.02479 1.22154 -0.490274
-1.45438 1.27325 1.02295
-1.09077 1.29066 0.515105
-1.4528 1.23893 1.94288
-1.10809 1.25723 1.52934
-1.43775 1.20861 2.77127
-1.09415 1.21688 2.35388
-1.08111 1.19452 3.18646
-0.617112 -0.131464 -2.02929
-0.624289 -0.0610994 -2.43432
-0.0084202 -0.152882 -2.44461
-0.617285 -0.115554 -1.08255
0.00258147 -0.110048 -1.61398
-0.639519 -0.12677 -0.0158733
0.00519883 -0.12106 -0.551119
-0.659276 -0.130972 1.05089
0.00857423 -0.132481 0.519372
-0.669564 -0.1405 1.99848
0.0114709 -0.129463 1.5824
-0.672411 -0.161442 2.82797
-0.674949 -0.0461904 2.40859
0.0119724 -0.151538 2.41456
-0.67619 -0.065175 3.2361
0.0132476 -0.171347 3.24138
-0.619368 0.201328 -2.39732
-0.0103593 0.0306817 -2.42403
-0.678728 0.050077 2.81672
-0.685908 0.267729 2.38517
0.0070364 0.0591571 2.40263
-0.688054 0.257837 3.21767
0.00867102 0.0409972 3.23082
-0.618599 0.699052 -2.34829
-0.00291832 0.371971 -2.37061
-0.695234 0.475489 2.78611
-0.718512 0.845149 2.36016
-0.00265698 0.476301 2.36771
-0.714235 0.833135 3.19503
-0.00400132 0.474677 3.20452
-0.621249 1.06024 -1.91387
0.0409156 1.02613 -2.32597
-0.646654 1.15683 -0.995279
0.0510599 1.09434 -1.50177
-0.701886 1.25611 0.01307
0.0375567 1.21931 -0.488787
-0.744483 1.27463 1.02149
-0.00432993 1.29292 0.514926
-0.74944 1.23517 1.94033
-0.0363095 1.25635 1.52806
-0.737514 1.2028 2.76907
-0.0354496 1.214 2.35261
-0.0296644 1.19159 3.18553
0.611274 -0.131466 -2.02929
0.605509 -0.0611013 -2.43432
0.929519 -0.152462 -2.44343
0.625065 -0.115555 -1.08255
0.932445 -0.11079 -1.61225
0.653292 -0.126771 -0.0158733
0.969921 -0.115375 -0.55135
0.679321 -0.130972 1.05089
1.00858 -0.127923 0.517056
0.693007 -0.1405 1.99848
1.03 -0.132939 1.57835
0.697631 -0.161442 2.82797
0.693958 -0.0461902 2.40859
1.038 -0.152537 2.41181
0.698109 -0.0651746 3.2361
1.04305 -0.170214 3.23979
0.606091 0.201325 -2.39732
0.918895 0.0337223 -2.42367
0.694435 0.0500773 2.81672
0.690287 0.267729 2.38517
1.0359 0.0586512 2.40036
0.692723 0.257837 3.21767
1.04092 0.0428426 3.22962
0.656596 0.699048 -2.34829
0.934353 0.383703 -2.37287
0.688575 0.475489 2.78612
0.680406 0.84515 2.36016
1.03594 0.481894 2.36808
0.68057 0.833136 3.19503
1.03588 0.478701 3.2046
0.713224 1.06023 -1.91387
1.03178 1.03449 -2.32821
0.73527 1.15682 -0.995279
1.05949 1.10231 -1.50424
0.735113 1.25611 0.0130699
1.09177 1.22153 -0.490275
0.703844 1.27463 1.02149
1.08308 1.29066 0.515105
0.677681 1.23517 1.94033
1.04267 1.25723 1.52934
0.6724 1.2028 2.76907
1.02769 1.21688 2.35388
1.0239 1.19452 3.18646
1.25069 -0.131786 -2.02639
1.24291 -0.0576379 -2.43277
1.2773 -0.11061 -1.08105
1.24782 -0.00939377 -1.60306
1.32521 -0.116527 -0.0184213
1.30676 0.00197848 -0.547679
1.35926 -0.12989 1.04452
1.35722 -0.00811035 0.513037
1.375 -0.144976 1.99169
1.3686 -0.0297935 1.56908
1.38343 -0.161309 2.82363
1.37994 -0.0476957 2.40358
1.38586 -0.0621972 3.23331
1.24004 0.0647542 -2.00945
1.24716 0.2161 -2.39922
1.27728 0.103195 -1.06968
1.25683 0.27101 -1.57075
1.33877 0.110395 -0.0162212
1.35717 0.33586 -0.53143
1.36656 0.0919864 1.03759
1.42186 0.355631 0.508242
1.37355 0.0674867 1.98097
1.38115 0.292929 1.54827
1.38238 0.0514165 2.81326
1.38155 0.272815 2.38327
1.38407 0.263707 3.21655
[...]
POINT_DATA 29498
VECTORS point_vectors float
-0.841215 -4.21906 7.63603
-0.0998132 0.0656838 0.980287
-0.210861 0.512734 0.884946
0.035213 -0.0748587 0.221659
0.836092 -4.21565 7.62941
0.0996729 0.0654953 0.979078
0.209012 0.510195 0.880221
-0.0354258 -0.0748479 0.221858
-3.77002e-06 -3.26103e-07 0.000158937
2.19198e-07 -3.7614e-08 5.84112e-05
-0.00603356 0.000246618 0.0255953
0.0855044 0.14016 0.73132
3.88542e-06 -3.37909e-07 0.000161339
-1.57758e-07 -2.92805e-08 4.54961e-05
0.00578559 0.000227354 0.0245282
-0.0858128 0.139891 0.731968
-0.595756 -0.209092 19.7157
-1.34164 -0.668103 20.1003
-0.652059 -0.385232 20.9188
-0.209545 -0.121838 21.0288
0.351145 0.312947 21.0338
0.538009 0.387137 20.6809
0.432216 0.389618 20.3597
-0.67614 -0.134023 19.6345
-1.752 -0.479753 19.9836
-0.823315 -0.330157 20.9399
-0.285117 -0.12211 21.0883
0.497535 0.272266 21.118
0.73764 0.320932 20.6985
0.570091 0.286039 20.4205
-0.760816 0.0742328 19.5886
-1.8461 0.241053 20.0243
-0.973376 0.0464831 20.8675
-0.345968 0.0157245 21.0895
0.599235 -0.0516856 21.1453
0.883535 -0.0830972 20.7172
0.712558 -0.0684245 20.6287
-0.553437 0.368256 19.7917
-0.89903 0.650516 20.1767
-0.660602 0.447886 20.7183
-0.247128 0.139201 20.9808
0.211428 -0.201834 20.9036
0.391186 -0.325328 20.6613
0.435815 -0.284898 20.3408
-0.583878 -0.526518 19.1207
-1.69814 -3.89517 20.3042
-0.311602 -0.393173 19.1649
-0.138615 -0.0562131 17.4155
-0.28191 0.714241 16.874
0.0738951 1.10438 17.9423
-0.112109 0.874631 17.7354
-0.692081 -0.396005 18.8555
0.155887 1.05531 9.36614
0.535837 0.923167 13.702
-0.890753 0.144897 18.5041
1.7734 -0.618004 7.21025
1.61062 -0.366591 12.1263
-0.520509 0.811417 19.3077
-0.951336 1.87373 20.0309
-0.735896 1.24172 20.8254
-0.305496 0.422837 21.4101
0.193524 -0.537065 21.1461
0.352401 -0.79139 20.7652
0.359691 -0.707152 20.2781
0.575291 -0.538493 19.1038
1.70257 -3.83733 20.2759
0.321721 -0.407405 19.2851
0.1481 -0.0580475 17.5418
0.284059 0.747318 16.8883
-0.115569 1.10274 18.136
0.0644048 0.896699 17.9674
0.689167 -0.419927 18.8162
-0.165174 1.10501 9.64824
-0.568303 0.951075 13.9107
0.882174 0.145075 18.4957
-1.75677 -0.633148 7.11056
-1.60917 -0.401986 12.0184
0.552051 0.746617 19.3727
1.04298 1.64698 20.0545
0.787402 1.14094 20.8181
0.302796 0.426265 21.4156
-0.166226 -0.55888 21.17
-0.309542 -0.832498 20.7819
-0.309274 -0.749053 20.2258
0.599122 -0.218253 19.7013
1.35752 -0.684258 20.0991
0.655877 -0.386585 20.9218
0.212891 -0.123301 21.0235
-0.341216 0.293237 21.0231
-0.52747 0.365072 20.6605
-0.424378 0.369243 20.3857
0.682002 -0.144706 19.6184
1.79671 -0.501061 19.9686
0.827456 -0.337119 20.948
0.286734 -0.122688 21.0892
-0.490329 0.263686 21.1105
-0.72516 0.309406 20.6928
-0.565919 0.271865 20.4344
0.762572 0.0743714 19.5892
1.862 0.242225 20.021
0.979018 0.0450703 20.8688
0.349204 0.0143873 21.0921
-0.604299 -0.0532888 21.1482
-0.892313 -0.0854172 20.7213
-0.727561 -0.0703646 20.6
0.537363 0.345041 19.8291
0.835909 0.574662 20.1996
0.637519 0.405743 20.706
0.248621 0.141571 20.9846
-0.219439 -0.216822 20.9244
-0.402387 -0.351654 20.6657
-0.452457 -0.317471 20.2686
-0.648607 -0.0224306 0.692034
-1.86803e-05 -0.019814 0.117961
-0.00320302 0.000511196 0.0302132
-0.0176654 -0.00330682 -0.0116244
9.54072e-05 0.0164499 0.130437
-0.000153363 1.72182e-06 0.00524713
-5.96105e-06 0.237292 0.684029
-0.0215408 0.0152235 0.158569
2.37724e-05 -0.000701724 0.00560298
0.113186 0.0749079 0.519088
0.630948 -0.0220191 0.672965
0.00322165 0.000510393 0.0301876
0.0176154 -0.00330133 -0.0115973
0.000153442 1.68279e-06 0.00521819
0.0214402 0.0151883 0.158232
-0.128891 0.076636 0.583911
-1.3811e-06 -7.67073e-08 0.000124702
1.75935e-06 -3.78824e-05 0.0015526
-1.77315e-08 -4.82426e-08 2.04202e-05
0 0 0
8.98331e-09 4.50536e-08 -3.25794e-05
-0.0337541 0.00106124 0.193013
0 0 0
-1.45255e-06 -0.000164958 0.00822126
1.47177e-06 -8.2343e-08 0.000130432
-1.64941e-06 -3.64782e-05 0.00149834
0 0 0
0.0391008 0.00160764 0.220342
-0.000169364 -6.38234e-05 0.00443062
0 0 0
-0.00777226 0.0205274 0.196198
-6.92525e-09 5.69274e-08 6.63918e-06
-3.80791e-09 -1.63317e-08 8.07426e-06
-2.51542e-08 -5.38095e-08 0.000148283
0 0 0
0 0 0
1.38701e-07 0.000213792 0.00326191
-7.65357e-07 0.00132185 0.00842689
-1.03158e-08 -0.000710735 0.00540462
0.000176073 -6.52503e-05 0.00461662
0 0 0
0.0076779 0.0201309 0.191827
-3.52788 -1.77144 19.2662
-2.24625 -6.04877 20.6275
-1.89214 -1.44404 17.5718
0.773643 1.14395 17.5549
-0.612687 0.696129 10.756
-0.333078 0.745424 6.34546
-4.23745 1.0524 19.1942
-2.60974 0.780739 16.6063
-1.993 3.53839 19.7992
1.4389 0.241246 17.6353
0.729386 -0.625096 3.83577
0.730022 -1.0767 18.6795
2.27622 -6.02264 20.5807
1.8793 -1.47575 17.5334
3.57395 -1.82617 19.2393
0.623586 0.736888 10.8884
0.321205 0.762931 6.44967
-0.780031 1.12188 17.6858
2.61217 0.790399 16.5759
2.13462 3.24975 19.7443
4.26365 1.06988 19.1817
-0.713146 -0.631952 3.77473
-0.686567 -1.10863 18.4079
-1.44804 0.245032 17.6354
-0.543298 -0.365429 17.8706
-0.264432 -0.105008 11.9584
-0.190999 -0.0196341 17.5308
-0.0625677 -0.000207264 10.4179
-1.53069 -0.0804866 20.9116
-1.38292 1.54793 20.8249
-0.584744 -0.0142984 21.1637
-0.504063 0.555456 21.4918
0.27323 -0.111217 11.9928
0.530292 -0.338188 17.5643
0.0696156 0.000340415 10.525
0.191945 -0.0195347 17.5318
1.42344 1.44435 20.8253
1.53439 -0.0849879 20.9034
0.500435 0.558727 21.4709
0.586914 -0.0154985 21.1469
-0.960683 -0.391514 19.7561
-0.636256 -0.175231 19.6767
-0.636537 -0.362747 19.4386
-1.08145 -0.585691 20.7647
-1.51623 -0.576837 20.0671
-1.97649 -1.69651 19.8923
-0.394495 -0.25229 20.9694
-0.745799 -0.36656 20.9357
-0.570509 -0.644557 21.0727
0.0283142 0.0622273 21.1263
-0.245449 -0.125421 21.0551
-0.188092 -0.158754 20.5523
0.499019 0.385992 20.861
0.434899 0.301143 21.1021
0.329443 0.748525 20.4671
0.554985 0.367731 20.6066
0.636668 0.382543 20.6954
0.537869 0.875267 20.0648
0.488131 0.355933 20.3142
0.447127 0.512725 20.3303
-1.16806 -0.272172 19.6416
-0.731322 -0.0345372 19.5922
-0.781726 -0.266701 19.2629
-1.40016 -0.452152 20.8171
-1.83873 -0.129811 20.0136
-0.513716 -0.244718 21.0099
-0.937597 -0.183184 20.922
0.0266524 0.0468904 21.2366
-0.334609 -0.073063 21.1104
0.677462 0.328214 20.9103
0.628679 0.117681 21.1442
0.713877 0.289096 20.5285
0.8655 0.150226 20.6814
0.969175 1.02201 18.2861
0.73169 0.0905989 20.749
0.755095 0.687686 19.1114
-1.3159 0.150246 19.5845
-0.689392 0.279384 19.6664
-0.894097 0.107098 19.1651
-1.46281 0.159765 20.7419
-1.34408 0.636058 20.106
-0.683395 0.007351 20.9867
-0.888227 0.330234 20.7939
0.0574272 0.00758027 21.228
-0.32895 0.0992654 21.0679
0.784573 -0.0726091 20.9434
0.383388 -0.198861 21.0044
0.784235 -0.0370651 20.5519
0.65555 -0.301006 20.6566
1.66615 -0.00997692 18.2423
0.567675 -0.243985 20.5357
1.41384 -0.0416716 18.71
-0.760821 0.545236 19.9175
-0.603698 0.581418 19.5785
-0.815526 0.580549 20.5181
-1.06 1.15454 20.1046
-0.485676 0.313797 20.8837
-0.804439 0.770781 20.7903
0.00539748 -0.0458462 20.9964
-0.302397 0.267037 21.1845
0.339345 -0.280781 20.7995
0.254407 -0.345229 21.0268
0.427662 -0.328109 20.4535
0.448224 -0.541601 20.6819
0.423839 -0.505042 20.3737
-1.28301 -1.5863 18.6783
-0.636687 -0.470246 18.9929
-0.00940912 -0.75155 18.7341
-0.432272 -1.17231 20.9814
0.0183366 -4.72637 21.2243
-0.218938 -0.174506 18.1158
0.000316391 -0.54232 17.2335
-0.113178 0.128706 16.9286
-0.00108367 -0.18023 14.8569
-0.111436 1.00071 17.5466
0.00592567 0.218131 14.048
0.0663468 0.961568 17.2201
0.0899518 1.17428 14.1682
0.0024209 0.598575 15.1631
0.202354 0.900573 15.6675
0.0130379 0.556597 16.0524
-0.79024 -0.163708 18.6269
-0.0161851 -0.63135 18.2722
0.328023 1.08625 11.5102
1.19546 0.39066 5.22532
-0.00956558 0.349676 4.16928
1.31327 0.492808 9.067
-0.0411294 0.398697 7.39924
-0.739637 0.67828 18.8593
-0.00430782 0.196857 17.7991
1.92999 -0.492885 9.47201
0.970596 -1.21736 18.4936
0.00935537 0.0949562 -1.89339
0.894936 -0.971286 19.0065
0.0173597 -0.150279 2.03933
-0.834524 1.4618 19.401
0.0405135 1.06087 19.0399
-0.830644 1.52367 20.6143
0.0828236 2.45995 20.0464
-0.603616 0.981053 21.1823
0.054849 1.69095 20.838
-0.0088047 -0.139689 21.3972
-0.00147917 0.622047 21.7
0.290742 -0.704093 20.9365
0.00143192 -0.594044 21.2827
0.375225 -0.791888 20.6555
0.00668433 -0.916041 20.801
0.0163676 -0.789953 20.4149
1.27294 -1.59975 18.6621
0.634298 -0.491195 18.9567
0.635002 -0.375357 19.4133
0.427152 -1.21425 21.1352
1.97776 -1.70315 19.8914
0.225504 -0.181106 18.0154
0.575802 -0.642267 21.0734
0.116451 0.130599 17.0131
0.191288 -0.165114 20.6654
0.065613 1.01521 17.7023
-0.350121 0.714436 20.5954
-0.12453 0.973302 17.5817
-0.106847 1.24195 14.5546
-0.563607 0.838298 20.1762
-0.251949 0.923887 15.939
-0.453878 0.512232 20.3035
0.785283 -0.16537 18.5909
0.784933 -0.278076 19.2254
-0.375722 1.09318 11.734
-1.20902 0.414182 5.29666
-0.973066 0.979604 18.6205
-1.32875 0.51227 9.15669
-0.72347 0.665115 19.4332
0.756359 0.644062 18.9137
0.899194 0.108229 19.1493
-1.92855 -0.518016 9.35368
-0.90783 -1.27276 18.4097
-1.67878 -0.00129809 18.0779
-0.854546 -0.987225 18.7802
-1.42523 -0.0284464 18.5499
0.8838 1.30118 19.4903
0.612748 0.533962 19.6355
0.906313 1.3929 20.6229
1.04737 1.01179 20.1176
0.622637 0.947008 21.1718
0.777289 0.698265 20.7797
0.0113066 -0.14399 21.4203
0.302676 0.269808 21.1896
-0.258367 -0.745869 20.9466
-0.261903 -0.381239 21.0496
-0.347974 -0.832269 20.6236
-0.449855 -0.582885 20.6816
-0.415691 -0.524977 20.3759
0.977733 -0.415373 19.7487
0.642726 -0.183666 19.6641
1.09111 -0.595647 20.7699
1.54766 -0.598686 20.0573
0.396666 -0.25304 20.9688
0.750079 -0.372171 20.9415
-0.026592 0.0613765 21.1154
0.244231 -0.124833 21.0548
-0.489762 0.367855 20.8544
-0.423741 0.289307 21.0887
-0.540855 0.355837 20.6066
-0.623696 0.367526 20.6845
-0.481762 0.338605 20.333
1.20748 -0.295637 19.6079
0.733238 -0.0424955 19.5873
1.42671 -0.46785 20.8318
1.87663 -0.131523 20.0077
0.516807 -0.24828 21.0163
0.942247 -0.188623 20.9286
-0.0260595 0.0448234 21.231
0.335734 -0.0733692 21.1126
-0.667526 0.317576 20.9054
-0.625705 0.114618 21.1432
-0.700482 0.280664 20.5287
-0.860081 0.14837 20.6813
-0.727517 0.0884425 20.7453
1.32681 0.150678 19.5767
0.675043 0.275564 19.6921
1.47242 0.159107 20.7456
1.28912 0.586718 20.1239
0.687997 0.00586757 20.9886
0.861987 0.311504 20.7835
-0.0562078 0.00630999 21.2334
0.331474 0.100814 21.0718
-0.792132 -0.0763369 20.9481
-0.401156 -0.2184 21.0212
-0.787502 -0.0397745 20.5534
-0.683665 -0.326816 20.6507
-0.577514 -0.269996 20.5542
0.725392 0.49136 19.9561
0.772919 0.521007 20.507
0.475285 0.297261 20.8745
-0.00480495 -0.042787 21.0133
-0.348878 -0.304705 20.8092
-0.444748 -0.350897 20.451
-1.06657 -0.360876 19.6993
-1.56133 -1.56697 18.2071
-1.24477 -0.850573 19.329
-1.66464 -0.631206 18.929
-0.707284 -0.337923 19.3712
-2.63463 -1.86974 19.6624
-1.25217 -0.548491 20.7906
-0.570811 -0.310739 14.5139
-1.19035 -1.30913 21.303
-1.73931 -1.41757 21.0095
-0.621108 -0.563236 20.227
-0.451385 -0.252954 20.9929
-0.138679 -0.0359592 10.8908
-0.32854 -0.346524 20.7285
-0.261701 -0.190018 17.4939
-0.195035 -0.102408 19.3561
0.0113486 0.0553535 21.1985
-0.109046 0.0881789 10.4886
-0.0485467 0.0989875 20.5795
-0.322514 0.228653 17.7317
0.483258 0.941369 19.3583
0.603041 0.383672 20.8701
-0.272022 0.985459 12.4424
0.502561 0.875508 20.2394
0.945489 1.12664 18.2618
0.749968 0.979967 19.5409
0.634431 0.328414 20.5675
0.127262 1.08135 14.7302
0.578277 0.789463 20.1309
0.992175 0.969997 18.6431
0.589962 0.657638 19.9117
-1.25743 -0.103483 19.6047
-2.44954 -0.59583 16.7591
-2.03117 0.315711 18.6973
-0.866179 -0.0769947 19.1508
-4.49243 -0.477651 18.977
-1.48038 -0.177798 20.8043
-2.58133 0.403086 21.4156
-1.09807 -0.493401 20.2354
-0.63267 -0.171735 21.007
-1.21939 -0.164513 20.9888
-0.363335 -0.0763148 19.1839
0.043555 0.0310849 21.28
0.183761 0.227644 20.2781
1.34227 0.826064 15.7054
0.802398 0.140236 20.9493
0.161954 -0.0861613 1.20803
1.61294 0.0749147 18.0224
1.54369 0.771234 17.5136
0.871792 0.190953 20.4752
1.34494 0.638069 7.58548
1.45185 -0.0321293 18.6394
1.18714 0.518126 17.3218
-1.04554 0.463132 19.7679
-1.58133 1.84175 18.3993
-0.894287 0.91473 19.6985
-0.790027 0.442386 19.3184
-2.01484 1.57045 19.8904
-1.16824 0.503305 20.607
-1.45226 2.12953 21.0176
-0.964258 0.99623 20.577
-1.27625 0.674841 20.8734
-0.653122 0.21138 20.9524
-1.31934 1.4887 21.3131
-0.61539 0.574366 21.0262
-0.478892 0.244644 21.3774
0.0384145 -0.0372866 21.1301
0.316052 -0.403014 20.6215
0.0145312 -0.0768932 21.1879
0.635784 -0.519786 21.0631
0.567338 -0.272636 20.8493
0.822843 -1.21074 18.6103
0.38354 -0.474057 20.8597
0.91685 -0.669046 20.4714
0.607842 -0.335577 20.6663
0.975658 -1.09588 18.4717
0.490617 -0.548246 20.4651
0.72462 -0.492928 20.0368
1.55029 -1.59153 18.1764
-0.0049779 -2.56944 17.9388
-0.0220296 -2.64368 15.7823
-0.0119727 -0.712063 18.5087
0.0160652 -5.41929 21.411
0.574736 -0.320305 14.6096
0.00689713 -1.31251 20.1274
-0.00364707 -0.143604 9.06257
0.146377 -0.0390668 10.9319
-0.0019469 -0.310447 15.6119
-0.00335543 -0.0446906 7.91187
0.110087 0.089231 10.5854
-0.00018919 -0.0428365 14.2794
0.00365427 0.198346 7.65947
0.235536 1.00794 12.6676
0.00739181 0.361917 14.3881
0.00796174 -0.0692608 2.67416
0.00740484 0.529608 9.77203
-0.181766 1.09216 15.0258
-0.00764048 0.578551 15.2557
-0.0132525 0.496367 5.5109
0.01082 0.546467 11.5267
2.4291 -0.600493 16.7115
-0.00935625 1.86545 13.7748
-0.00943758 -0.249698 17.9039
-0.170908 -0.0776464 1.25549
-0.00218417 0.546021 -1.7541
-0.00763804 0.0555187 -2.97557
-1.347 0.655195 7.69887
0.0185568 -0.261542 0.14105
-0.00897676 -0.134537 0.299922
1.61044 1.7392 18.4871
0.0683481 2.00841 19.1611
0.0254774 0.938526 18.3418
0.0740391 4.55382 20.1453
1.54114 1.99424 20.9605
0.064629 1.93421 20.6628
0.0409544 2.31068 20.3164
1.33459 1.4441 21.2746
0.0189255 1.40826 21.3414
-0.00142767 0.764955 20.8769
-0.286348 -0.422415 20.6846
-0.00285566 -0.141128 21.6518
1.76543e-05 -0.82917 15.7187
-0.783618 -1.25544 18.4107
0.00396025 -0.780023 20.9872
0.00745353 -1.08283 14.6669
-0.931704 -1.16438 18.4077
0.0183386 -0.925225 20.6238
0.0306499 -1.14111 15.5278
1.08509 -0.382328 19.6869
1.25547 -0.86923 19.31
1.6826 -0.650543 18.8913
0.70787 -0.34928 19.3327
2.64853 -1.90278 19.6561
1.26641 -0.562584 20.7975
1.19468 -1.30535 21.2962
1.703 -1.41672 20.8405
0.623369 -0.563359 20.2251
0.453595 -0.255102 20.993
0.333251 -0.349865 20.7757
0.257499 -0.181237 17.3502
0.198211 -0.110671 19.5461
-0.0112519 0.054901 21.1924
0.0403842 0.0970172 20.7787
0.316433 0.230127 17.8402
-0.500744 0.910561 19.5129
-0.591048 0.36586 20.8623
-0.527743 0.83406 20.3713
-0.946541 1.08094 18.4843
-0.772214 0.94787 19.6312
-0.617624 0.31951 20.569
-0.590067 0.76668 20.1225
-0.966008 0.945963 18.8473
-0.588201 0.660952 19.8885
1.28369 -0.105392 19.5897
2.04004 0.31879 18.6793
0.867822 -0.0809879 19.1239
4.55833 -0.485246 18.9414
1.49932 -0.178655 20.8186
2.58783 0.399397 21.4231
1.08705 -0.495916 20.1536
0.634821 -0.176282 21.0104
1.22527 -0.16713 20.9762
0.362418 -0.0750073 19.1572
-0.0438042 0.0300272 21.2811
-0.184371 0.23139 20.2499
-1.34183 0.824918 15.7888
-0.797631 0.138034 20.9489
-1.621 0.0846199 17.9099
-1.53415 0.764575 17.6289
-0.867482 0.187119 20.4772
-1.46324 -0.0190567 18.5464
-1.18438 0.512485 17.4049
1.01544 0.437405 19.8001
0.874889 0.813602 19.7603
0.786307 0.415668 19.3594
1.94425 1.38627 19.9252
1.12658 0.466741 20.5944
0.942046 0.887952 20.561
1.23789 0.63104 20.8702
0.643769 0.20533 20.9474
0.60581 0.550366 21.0146
0.481 0.248241 21.3833
-0.0403717 -0.0395143 21.1448
-0.0182404 -0.0862079 21.2085
-0.659666 -0.566199 21.0353
-0.595024 -0.300061 20.8634
-0.378128 -0.521474 20.8827
-0.928424 -0.719963 20.4323
-0.628867 -0.357307 20.6751
-0.486035 -0.586193 20.4741
-0.756159 -0.531971 19.9247
-1.42736 -0.769946 19.1471
-1.42274 -1.47507 21.507
-0.332777 -0.270559 19.5183
-0.117652 0.0976947 19.4514
0.690485 1.01818 19.5295
0.787243 0.952471 19.4009
-1.9472 -0.233877 18.7429
-2.53639 -0.530044 21.7139
-0.677581 -0.454731 19.5395
-0.118708 0.434631 18.8142
1.51974 0.812106 16.8373
1.36902 0.646791 17.31
-1.4672 0.941872 19.233
-1.6092 1.09104 20.7843
-1.04798 0.522734 21.1481
0.112738 -0.0981062 21.4618
0.815973 -0.664049 20.7512
0.867233 -0.608385 20.2237
-0.0126301 -2.72108 17.0235
-0.00235393 -0.393553 11.546
-0.00313798 -0.074785 8.24227
-0.00195155 0.000955845 7.73462
0.0140422 0.195828 8.50887
-0.000237292 0.624131 10.0018
-0.016915 -1.0717 14.2301
0.000112792 -0.140091 -2.78622
-0.0124955 0.0868903 -0.931074
0.082448 3.04401 17.5588
0.0414784 2.57625 21.0218
0.011958 2.24598 20.7334
-0.00106622 -0.466962 18.5573
-0.00881344 -0.855888 15.044
0.00458947 -1.0928 14.7664
1.44227 -0.786549 19.1146
1.41597 -1.48314 21.5016
0.3367 -0.277272 19.6126
0.114703 0.0947179 19.5778
-0.708994 0.984075 19.6468
-0.796956 0.93722 19.3958
1.9765 -0.238257 18.6993
2.54813 -0.544103 21.7225
0.674179 -0.457103 19.489
0.119075 0.433257 18.8182
-1.5136 0.801858 16.915
-1.36632 0.637903 17.3654
1.43096 0.873515 19.3164
1.57782 0.999253 20.7632
1.02459 0.500001 21.1373
-0.12311 -0.109364 21.4793
-0.827095 -0.718606 20.7017
-0.910677 -0.637902 20.1091
-0.629868 -0.314247 0.687551
0 0 0
-0.00771756 -0.000440392 0.0956153
0 0 0
-0.0134583 0.0262843 0.190047
-0.0149282 0.00340706 0.0915475
-0.406038 0.129531 0.499749
-0.028317 0.671666 1.00086
-0.0328822 0.0911776 0.549297
-0.0326046 0.00507032 -0.022985
-0.0178195 -0.00885503 0.0234084
0.00195378 -0.0277458 0.103189
0 0 0
0.615158 -0.305845 0.672638
0.00777607 -0.000446122 0.0954925
0.0133735 0.0262408 0.189968
0 0 0
0.0149055 0.00339628 0.0914727
0.0250355 0.671132 0.996579
0.416566 0.132766 0.512457
0.0318462 0.0878924 0.531536
0.0179166 -0.00876861 0.0232668
0.0332966 0.00518582 -0.0234596
-0.00192851 -0.0263827 0.0966884
-0.00205774 0.00019147 0.0487504
-2.06041e-06 -1.72673e-07 0.000166139
-0.000191804 0.00018697 0.00833898
0 0 0
-0.000136118 -1.59832e-05 0.0646087
-6.61416e-07 -5.293e-08 0.000104194
-0.000666281 0.00040739 0.0157571
0 0 0
-0.0143464 0.00516092 0.109271
-0.00038148 -0.000502497 0.00594043
0 0 0
0 0 0
0.181329 0.187007 0.82616
2.58868e-05 0.00304623 0.0143533
-0.0148893 0.0713693 0.900445
0.00475435 -0.000656083 0.0778971
0.00208191 0.000191908 0.0487409
0 0 0
2.01642e-06 -1.67541e-07 0.000158788
0.000193518 0.000187348 0.00834459
0.000145396 -1.615e-05 0.0644914
0 0 0
6.63735e-07 -5.26928e-08 0.000101641
0.000645378 0.000393486 0.0153604
0.0145267 0.00518952 0.110153
0 0 0
0.000360575 -0.000475343 0.00562242
2.0224e-17 6.61204e-19 4.45732e-17
-0.181801 0.187651 0.828217
-0.00475859 -0.000656584 0.0779047
-2.27395e-05 0.00268596 0.012657
0.0147792 0.0712416 0.89951
-0.477473 -0.0785305 1.01915
0 0 0
-7.11228e-07 -1.27383e-06 0.000547194
0 0 0
-5.93668e-05 -4.29218e-06 0.00110494
0 0 0
0.01321 0.00481879 0.0474923
0 0 0
-1.16623e-09 3.49252e-07 9.04983e-05
0 0 0
-0.00996429 0.0193468 0.22397
-2.024e-06 -3.52995e-07 0.000381682
0 0 0
5.33043e-06 0.00325223 0.0293038
-0.0116632 -0.00642438 0.152924
-0.000852272 0.00140548 0.0203903
4.06534e-06 -0.00583173 -0.00657705
3.72336e-07 -8.70598e-05 0.00033253
0.0189423 0.267181 1.15612
0.0018088 -0.00610909 0.0308272
0 0 0
0.490545 -0.0808765 1.04794
0 0 0
6.76711e-05 -4.79209e-06 0.00126006
0 0 0
-0.0138171 0.00500782 0.0496476
2.07374e-06 -3.48972e-07 0.000371968
0.0099766 0.0193627 0.224298
0.000852933 0.00141597 0.0205268
0.0115333 -0.00631091 0.152799
-0.00182971 -0.00621792 0.0313236
-0.0206839 0.276063 1.21564
-0.000747908 0.00209476 0.100763
0 0 0
-2.83456e-06 -1.35198e-06 9.90396e-05
-3.69393e-06 -2.205e-05 0.000547267
-1.47918e-08 3.3349e-08 1.31016e-05
-6.53664e-09 -2.11162e-08 1.01889e-05
0 0 0
0 0 0
-2.27269e-09 -1.07072e-08 6.27967e-06
1.29567e-08 7.25532e-08 -6.34624e-05
-6.13972e-05 -0.000122914 0.00636154
0.000284186 0.0237544 0.163405
-1.90205e-07 4.11648e-05 0.00195138
-1.25377e-07 0.00195968 0.00593045
-6.09845e-07 0.000343719 0.00532139
-1.50529e-06 -0.000558013 0.00664032
0 0 0
0.00074926 0.00209374 0.100878
4.14318e-05 -1.96524e-05 0.00142739
1.1974e-06 -7.12638e-06 0.000177278
0 0 0