# vtk DataFile Version 2.0
tri_press
ASCII
DATASET UNSTRUCTURED_GRID
POINTS 3682 float
-0.585 0.095 -1.59923
-0.685 0.095 1.57476
-0.585 0.399529 -1.535
-0.685 0.485 1.52904
0.585 0.095 -1.59923
0.685 0.095 1.57476
0.585 0.399528 -1.535
0.685 0.485 1.52904
-0.620472 0.0928617 -0.541233
-0.653708 0.0929587 0.516763
-0.731243 0.540929 -0.513653
-0.815754 0.620597 0.507693
0.620472 0.0928612 -0.541233
0.653708 0.0929585 0.516763
0.731226 0.540912 -0.513653
0.815764 0.620607 0.507693
-1.26945 -0.152035 -2.44224
-1.26138 -0.111528 -1.61053
-1.30227 -0.109686 -0.551581
-1.33891 -0.123366 0.514739
-1.35033 -0.136416 1.5743
-1.3569 -0.153537 2.40907
-1.36105 -0.169083 3.2382
-1.26123 0.0367691 -2.42331
-1.25647 0.092751 -1.59559
-1.32118 0.11365 -0.543777
-1.36529 0.107142 0.511335
-1.35925 0.0768277 1.56385
-1.36471 0.0581444 2.39809
-1.36886 0.0446872 3.22842
-1.26378 0.395442 -2.37514
-1.2752 0.449285 -1.54591
-1.40601 0.558089 -0.519082
-1.48171 0.60411 0.50515
-1.39846 0.509027 1.53268
-1.39 0.487484 2.36844
-1.39123 0.482724 3.20467
-1.29145 1.04285 -2.33045
-1.31095 1.11029 -1.50671
-1.37932 1.22376 -0.491762
-1.44803 1.2884 0.515283
-1.46073 1.2581 1.53061
-1.44487 1.21976 2.35515
-1.43062 1.19745 3.18739
-0.627587 -0.152882 -2.44461
-0.606638 -0.110047 -1.61398
-0.627932 -0.12106 -0.551119
-0.651106 -0.13248 0.519372
-0.667446 -0.129463 1.5824
-0.671682 -0.151538 2.41456
-0.67314 -0.171347 3.24138
-0.62099 0.0306827 -2.42403
-0.678216 0.0591571 2.40263
-0.67924 0.040997 3.23082
-0.617746 0.371973 -2.37061
-0.6936 0.476301 2.36771
-0.696867 0.474676 3.20452
-0.619452 1.02613 -2.32597
-0.623046 1.09434 -1.50177
-0.670261 1.21931 -0.488786
-0.733511 1.29292 0.514926
-0.755456 1.25635 1.52806
-0.743425 1.214 2.35261
-0.731603 1.19159 3.18553
0.610746 -0.152883 -2.44461
0.611801 -0.110048 -1.61398
0.63833 -0.121061 -0.551119
0.668254 -0.132481 0.519372
0.690387 -0.129463 1.5824
0.695627 -0.151538 2.41456
0.699635 -0.171347 3.24138
0.600272 0.0306808 -2.42403
0.692289 0.0591572 2.40263
0.696582 0.0409974 3.23082
0.611909 0.37197 -2.37061
0.688286 0.476301 2.36771
0.688865 0.474677 3.20452
0.701283 1.02613 -2.32597
0.725165 1.09434 -1.50177
0.745375 1.2193 -0.488787
0.724851 1.29292 0.514926
0.682837 1.25635 1.52806
0.672526 1.214 2.35261
0.672275 1.19159 3.18553
1.24829 -0.15204 -2.44224
1.25309 -0.111532 -1.61053
1.30151 -0.109689 -0.551581
1.34891 -0.123365 0.514739
1.36962 -0.136415 1.5743
1.38038 -0.153537 2.40907
1.38647 -0.169082 3.2382
1.23752 0.0367638 -2.4233
1.24255 0.0927447 -1.59559
1.31201 0.113646 -0.543777
1.36552 0.107145 0.511335
1.36759 0.0768283 1.56385
1.37951 0.0581451 2.39809
1.38525 0.0446879 3.22842
1.2568 0.395435 -2.37514
1.2711 0.449275 -1.54591
1.40233 0.558074 -0.519082
1.4782 0.604117 0.50515
1.39471 0.50903 1.53268
1.3836 0.487486 2.36844
1.38289 0.482725 3.20467
1.36227 1.04284 -2.33045
1.39381 1.11028 -1.50671
1.43817 1.22376 -0.491763
1.4413 1.28839 0.515283
1.40251 1.25811 1.53061
1.38285 1.21976 2.35515
1.37552 1.19745 3.18739
-0.605828 0.247265 -1.58794
0 0.111212 -1.58302
-0.603868 0.0927988 -1.07023
-0.628678 0.29 1.49558
0 0.0915206 1.57824
-0.670564 0.092769 1.04576
0 0.47372 -1.60919
-0.697368 0.509475 -1.02433
0 0.539787 1.58383
-0.795975 0.598396 1.01837
0.605846 0.247264 -1.58796
0.603868 0.0927989 -1.07023
0.628676 0.29 1.49558
0.670565 0.0927688 1.04576
0.697361 0.509468 -1.02433
0.796685 0.599107 1.01837
-0.637087 0.0929132 -0.012235
-0.818249 0.316896 -0.527443
2.75766e-07 0.0908106 -0.541233
-0.81979 0.356778 0.512228
8.13302e-08 0.0907739 0.516763
-0.796106 0.60337 -0.00297999
-8.48205e-06 0.543576 -0.513653
5.30523e-06 0.716978 0.507693
0.637088 0.0929125 -0.012235
0.818252 0.316886 -0.527443
0.819792 0.356783 0.512228
0.796191 0.603455 -0.00297999
-0.819284 0.28208 -1.04728
0.819284 0.282075 -1.04728
1.37883e-07 0.0908198 -1.07023
-4.24103e-06 0.541179 -1.02433
0 0.247264 -1.72623
-0.818482 0.336837 -0.00760752
0.818478 0.336835 -0.00760752
1.78548e-07 0.0907937 -0.012235
-1.58841e-06 0.692012 -0.00297999
-0.893976 0.323389 1.03206
0.893896 0.323391 1.03206
4.06651e-08 0.0905977 1.04576
2.65262e-06 0.656165 1.01837
0 0.29 1.59061
-0.599073 0.171132 -1.59725
-0.2925 0.111968 -1.58226
-0.595465 0.092868 -1.33473
-0.630842 0.1925 1.50917
-0.3425 0.0915196 1.57824
-0.678779 0.0928875 1.31026
-0.602455 0.323397 -1.56851
-0.2925 0.465748 -1.60122
-0.668089 0.481407 -1.27966
-0.664987 0.3875 1.52046
-0.3425 0.537487 1.58153
-0.748174 0.549385 1.2737
0.2925 0.111962 -1.58227
0.59904 0.171132 -1.59721
0.595464 0.0928693 -1.33473
0.3425 0.0915285 1.57823
0.630842 0.1925 1.50917
0.678781 0.0928857 1.31026
0.2925 0.465754 -1.60123
0.602515 0.323396 -1.56857
0.668059 0.481377 -1.27966
0.3425 0.537487 1.58153
0.664989 0.3875 1.52046
0.748191 0.549401 1.2737
-0.612175 0.0928253 -0.805733
-0.628779 0.0928877 -0.276734
-0.818357 0.15538 -0.534338
-0.310219 0.0918689 -0.541233
-0.662126 0.0928743 0.781263
-0.645395 0.0929386 0.252264
-0.819979 0.183253 0.514496
-0.326842 0.0918902 0.516763
-0.718624 0.529521 -0.76899
-0.818213 0.450646 -0.520548
-0.739294 0.54777 -0.258317
-0.366681 0.544363 -0.513653
-0.810957 0.614589 0.76303
-0.818581 0.489092 0.509961
-0.813245 0.619299 0.252357
-0.430827 0.714694 0.507693
0.612175 0.0928246 -0.805733
0.310206 0.091896 -0.541233
0.628779 0.0928875 -0.276734
0.818352 0.155379 -0.534338
0.662125 0.0928755 0.781263
0.326842 0.0918904 0.516763
0.645396 0.0929378 0.252264
0.819976 0.183258 0.514496
0.718641 0.529537 -0.76899
0.366658 0.544342 -0.513653
0.818208 0.450633 -0.520548
0.739639 0.548114 -0.258317
0.810976 0.614608 0.76303
0.430835 0.714694 0.507693
0.818562 0.489087 0.509961
0.813249 0.619302 0.252357
-0.80365 0.264672 -1.31761
-0.302914 0.247264 -1.6967
6.89414e-08 0.090883 -1.32662
0 0.179238 -1.72383
-0.820408 0.187439 -1.05876
-0.301934 0.0908208 -1.07023
-0.855045 0.306694 1.26382
-0.314339 0.29 1.57996
2.03326e-08 0.0906526 1.312
0 0.19076 1.60705
-0.896357 0.208079 1.03891
-0.335282 0.0905814 1.04576
-2.12051e-06 0.51938 -1.31676
0 0.360492 -1.55654
-0.817547 0.395778 -1.0358
-0.348686 0.53991 -1.02433
1.32631e-06 0.583719 1.3011
0 0.414894 1.64639
-0.894356 0.460893 1.02522
-0.397986 0.654537 1.01837
0.803782 0.26467 -1.31762
0.302923 0.247264 -1.69664
0.820408 0.187437 -1.05876
0.301934 0.0908209 -1.07023
0.855037 0.306696 1.26382
0.314338 0.29 1.57993
0.896356 0.20808 1.03891
0.335282 0.0905813 1.04576
0.817548 0.395772 -1.0358
0.348678 0.53991 -1.02433
0.894727 0.461249 1.02522
0.398344 0.654572 1.01837
-0.818499 0.169518 -0.00992128
-0.318537 0.0918655 -0.012235
-0.821667 0.299488 -0.787361
-0.818374 0.326866 -0.267525
2.06824e-07 0.0908107 -0.805733
2.27157e-07 0.0908021 -0.276734
-0.818574 0.346807 0.25231
-0.849768 0.340083 0.772146
1.29939e-07 0.0907853 0.252264
6.09977e-08 0.0906921 0.781263
-0.818352 0.475633 -0.00529376
-0.418063 0.687709 -0.00297999
-6.36154e-06 0.5479 -0.76899
-5.03523e-06 0.634428 -0.258317
1.85841e-06 0.715004 0.252357
3.97893e-06 0.697438 0.76303
0.818495 0.169517 -0.00992128
0.318538 0.0918655 -0.012235
0.821666 0.299481 -0.787361
0.81837 0.326861 -0.267525
0.81857 0.346809 0.25231
0.849826 0.340087 0.772146
0.818348 0.475651 -0.00529376
0.418082 0.687708 -0.00297999
-0.802084 0.179286 -1.32617
-0.82284 0.196159 -0.796547
-0.819948 0.412345 -0.778176
-0.792892 0.359587 -1.29864
0.802082 0.179285 -1.32618
0.792867 0.359584 -1.29864
0.819949 0.412335 -0.778176
0.82284 0.196155 -0.796547
-0.297217 0.0908898 -1.33068
0.297217 0.0908883 -1.33068
0.306085 0.0908123 -0.805733
-0.306085 0.0908037 -0.805733
-0.320593 0.518591 -1.29821
-0.357156 0.547829 -0.76899
0.357144 0.54783 -0.76899
0.320589 0.518591 -1.29821
-0.297707 0.175185 -1.69639
-0.297707 0.341945 -1.70782
0.297712 0.341944 -1.70815
0.297712 0.175185 -1.69648
-0.818433 0.162447 -0.27213
-0.8186 0.176705 0.252287
-0.818469 0.482363 0.252334
-0.818261 0.463129 -0.262921
0.818405 0.162457 -0.27213
0.818264 0.463136 -0.262921
0.818442 0.482363 0.252334
0.818596 0.176707 0.252287
-0.314386 0.0918514 -0.276734
0.314383 0.091859 -0.276734
0.322689 0.0918796 0.252264
-0.322689 0.0918796 0.252264
-0.397217 0.625727 -0.258317
-0.429723 0.711757 0.252357
0.429743 0.71177 0.252357
0.397193 0.62567 -0.258317
-0.852773 0.216474 0.776704
-0.855124 0.200289 1.28704
-0.8682 0.424196 1.26876
-0.819149 0.47479 0.767588
0.852787 0.216475 0.776704
0.819161 0.474972 0.767588
0.868153 0.424375 1.26876
0.8551 0.20029 1.28704
-0.331068 0.0906677 0.781263
0.331068 0.0906673 0.781263
0.338891 0.0906458 1.31113
-0.338891 0.0906455 1.31113
-0.40293 0.696715 0.76303
-0.370243 0.584196 1.2874
0.370422 0.584492 1.2874
0.403114 0.696704 0.76303
-0.328419 0.19163 1.59548
0.328419 0.19163 1.59549
0.328419 0.401197 1.62446
-0.328419 0.401197 1.62461
-0.592956 0.133066 -1.59916
-0.43875 0.0918233 -1.60241
-0.591031 0.0931352 -1.46698
-0.645888 0.14375 1.52993
-0.51375 0.0915328 1.57823
-0.68275 0.0930838 1.44251
-0.595859 0.361463 -1.55389
-0.43875 0.441302 -1.57677
-0.640066 0.453989 -1.40733
-0.687858 0.43625 1.53761
-0.51375 0.524304 1.56834
-0.717952 0.518558 1.40137
0.43875 0.0918228 -1.60241
0.592973 0.133066 -1.59917
0.59103 0.0931367 -1.46698
0.51375 0.0915416 1.57822
0.645903 0.14375 1.52995
0.682753 0.0930802 1.44251
0.43875 0.443318 -1.57879
0.595873 0.361462 -1.5539
0.64018 0.454103 -1.40733
0.51375 0.524279 1.56832
0.687775 0.43625 1.53753
0.717831 0.518437 1.40137
-0.616316 0.0928504 -0.673483
-0.624626 0.0928738 -0.408984
-0.780759 0.0934483 -0.537786
-0.465359 0.0923391 -0.541233
-0.657898 0.0929354 0.649013
-0.649548 0.092952 0.384514
-0.82205 0.0955025 0.51563
-0.490279 0.0924171 0.516763
-0.726208 0.5365 -0.641322
-0.808457 0.512652 -0.517101
-0.733316 0.542397 -0.385985
-0.550018 0.544757 -0.513653
-0.814699 0.618937 0.635362
-0.81776 0.555141 0.508827
-0.815433 0.620881 0.380025
-0.639028 0.69912 0.507693
0.616316 0.092851 -0.673483
0.465359 0.0923393 -0.541233
0.624626 0.0928744 -0.408984
0.780757 0.0934477 -0.537786
0.657899 0.0929342 0.649013
[...]
POINT_DATA 3682
SCALARS point_scalars float 1
LOOKUP_TABLE default
-33.8313
-31.6911
13.3947
-32.2341
-33.7749
-31.6905
13.2217
-32.228
-27.6077
-24.5682
-20.3587
-39.8461
-27.5988
-24.575
-20.347
-39.7721
0.622182
-46.3289
-27.3389
-21.3869
-43.7139
-33.4829
-32.9456
0.622182
-47.9068
-28.3464
-20.5893
-45.5071
-33.4829
-32.1063
80.9664
-59.7185
-28.9087
-34.9591
-44.9742
-31.5519
-29.6009
20.4546
-57.1458
-23.525
-39.9106
-50.3458
-32.8678
-30.6344
57.5599
-97.1307
-27.737
-24.5965
-32.9456
-29.6029
-29.3079
113.648
-29.6029
-29.3079
190.3
-28.2901
-26.9791
107.626
-58.2003
-9.10935
-53.9855
-35.5633
-28.0755
-27.6735
58.6317
-93.4566
-27.7199
-24.5521
-32.9468
-29.6937
-29.3343
108.288
-29.6937
-29.3343
188.772
-28.2955
-26.9788
13.327
-56.9187
-19.4128
-53.9852
-34.2466
-28.0783
-27.5537
0.708523
-46.0758
-27.1017
-21.4056
-43.6895
-33.4768
-32.9468
0.708523
-45.2193
-28.3322
-20.6032
-45.669
-33.4768
-32.1003
83.4508
-59.6546
-28.924
-34.9606
-44.9598
-31.5485
-29.6007
20.265
-57.0962
-23.5174
-39.8177
-49.2685
-32.8613
-30.6306
71.4557
-95.2604
-41.9013
-29.5055
-29.7654
-29.4935
-80.3697
-41.0325
-27.4529
-50.2571
71.4144
-41.8699
-29.503
-29.497
-41.0433
-50.2097
-24.5881
-28.1529
-29.4581
-24.9375
-25.2977
-33.1717
-9.06713
-60.7744
-24.5882
-28.148
-24.938
-33.0985
-54.9209
-54.9125
-43.8499
-35.6733
207.712
-27.7576
-27.752
-25.4737
-46.6041
-45.5923
-45.6083
-27.0717
-45.5879
-22.0217
57.7436
-113.883
-65.4139
-29.5791
-31.568
-32.7925
56.8223
-77.8225
-56.87
-29.8024
-28.7193
-41.2405
-112.649
58.0979
-65.3548
-31.5805
-29.576
-32.7909
-77.3117
56.8423
-56.9481
-28.7216
-29.7997
-41.3175
-30.9997
-25.4527
-27.815
-28.9216
-25.8508
-24.2193
-21.4517
-24.9478
-29.3174
-29.1364
-15.2575
-11.0959
-43.6218
-30.6457
-39.0443
-58.4635
-30.9831
-28.9124
-25.4506
-27.8137
-25.8547
-24.9502
-24.2246
-21.4711
-29.3162
-11.087
-29.1317
-15.3304
-43.595
-58.4639
-30.6443
-39.0611
-66.2571
199.173
-64.2542
143.7
-53.3755
-42.466
-49.7827
-24.9088
-28.1036
-22.1066
-44.9516
-27.446
-51.5345
178.044
-57.449
-36.497
-35.1787
-21.0148
-43.3715
-46.0796
-66.4372
199.721
-53.3659
-42.4283
-49.7698
-24.9122
-44.9598
-27.4511
-57.397
-36.4648
-43.6732
-46.0857
-25.9139
-25.1561
-35.503
-26.375
-34.0826
-26.8511
-27.9419
-22.6268
-25.0608
-26.0446
-31.9983
-42.9812
-23.1467
-12.573
-58.1439
-55.3548
-25.9108
-25.1565
-35.4601
-26.3702
-27.9441
-22.6151
-31.9974
-42.9736
-56.8375
-35.1573
-35.9109
-57.303
-56.8514
-57.2973
-35.8517
-35.1357
-64.3055
-64.3129
-33.5158
-33.5412
-50.9256
-24.8118
-24.7955
-50.9523
122.233
161.062
160.49
98.802
-25.7651
-25.3759
-31.7781
-26.6825
-25.7619
-26.6906
-31.7807
-25.3823
-26.3462
-26.3422
-24.7767
-24.7749
-10.0034
-55.394
-55.3949
-9.96591
-19.8417
-48.7101
-48.3833
-31.8262
-19.8412
-31.7925
-48.3497
-48.6845
-26.0822
-26.0861
-28.8377
-28.8297
-54.7285
-36.2158
-36.2248
-54.726
-24.9959
-24.9937
-24.6811
-24.6717
14.6375
-114.494
-91.5584
-30.4107
-33.9906
-34.1114
38.2821
-29.7913
-40.293
-30.7589
-30.282
-35.7124
-113.825
15.07
-91.4796
-33.9873
-30.4094
-34.1123
-31.238
38.2467
-40.5236
-30.2834
-30.7547
-35.7017
-29.0641
-26.3677
-26.2757
-28.074
-25.325
-24.2328
-22.4495
-24.7423
-23.939
-26.3441
-17.459
-14.9738
-41.8794
-33.6397
-39.8101
-53.9663
-29.0506
-28.0632
-26.3621
-26.2735
-25.3301
-24.7478
-24.2416
-22.4734
-23.9357
-14.963
-26.1393
-17.4532
-41.8685
-53.9646
-33.631
-39.7398
72.2042
69.2876
3.51718
150.14
-96.7116
-96.2177
-75.0891
48.1604
-51.788
-35.3367
-50.4483
-41.0133
-29.4763
-29.5598
-36.5064
-27.1883
-30.344
-30.3439
-28.6026
-24.2008
-31.443
-27.2116
-42.0505
-28.0828
-77.427
-80.4921
-66.9755
122.673
-48.9389
-34.169
-55.1442
-37.8616
-27.7748
-27.7708
-30.8489
-22.5124
-48.2779
-47.067
-46.8327
-46.9041
69.3293
69.3009
3.50302
150.079
-51.7449
-35.3136
-50.4085
-40.9666
-29.4737
-29.5559
-36.4941
-27.1856
-31.4436
-27.2157
-42.0608
-28.0887
-48.8909
-34.0767
-55.4878
-37.7961
-48.1484
-47.0177
-46.9473
-46.8976
-24.911
-24.3497
-24.6676
-24.7719
-27.8079
-28.28
-32.2758
-26.725
-29.3545
-29.3457
-31.4568
-27.963
-22.6276
-27.7182
-27.0458
-23.0251
-25.2319
-25.2322
-25.1021
-25.6204
-20.6173
-41.1288
-35.5952
-38.5983
-9.6025
-9.60177
-16.1978
-4.49091
-60.3719
-60.3721
-61.5024
-58.7496
-24.91
-24.3513
-24.6658
-24.7726
-27.8045
-28.276
-32.2716
-26.7231
-22.6326
-27.7177
-27.0461
-23.0273
-20.6405
-41.1142
-35.5899
-38.574
-83.1757
-54.218
-56.1549
-40.2022
-83.1423
-54.203
-56.1413
-40.1992
-52.166
-43.1319
-43.1049
-38.01
-42.7794
-35.8798
-35.8684
-29.9106
204.888
188.751
192.115
205.78
-26.6921
-26.9193
-28.1696
-29.1552
-26.6878
-26.9105
-28.1675
-29.1505
-25.404
-25.9747
-25.1707
-25.4029
-45.6743
-35.4178
-53.9732
-45.6747
-54.844
-45.3082
-45.6426
-31.394
-54.8613
-45.3116
-45.6877
-31.3712
-27.6099
-27.1571
-27.1592
-26.5492
-40.2411
-45.7058
-45.7094
-50.6233
-22.8183
-22.1232
-21.8033
-22.8175
-5.30767
129.017
-80.0557
29.2246
-64.6087
-61.3204
-36.542
-27.0925
-29.5929
-27.4617
-47.3886
-29.9337
0.125168
124.705
-68.107
111.086
-38.6954
-52.7763
-37.9352
-27.1698
-31.6063
-25.6603
-46.6644
-37.4107
-79.7377
4.44479
-5.34461
128.919
-64.5239
-61.2445
-29.6054
-27.4639
-36.5373
-27.1066
-47.3743
-29.9407
-68.149
111.723
0.0487371
124.67
-38.7387
-52.4665
-31.6081
-25.6613
-37.9443
-27.1663
-46.6553
-37.4019
-33.9549
-32.4168
-24.663
-25.8303
-30.7293
-26.3925
-30.9099
-27.3789
-20.0374
-26.1255
-24.0745
-24.4556
-24.3159
-19.2701
-24.8122
-25.5262
-34.4908
-27.6311
-32.3062
-27.1271
-23.9505
-8.89904
-18.1222
-5.00068
-36.2939
-52.7599
-31.1897
-30.5448
-35.1081
-50.9049
-57.9074
-57.3065
-33.9392
-32.3902
-30.8935
-27.3706
-24.6615
-25.8276
-30.7108
-26.3947
-20.0339
-26.1313
-24.8154
-25.5297
-24.0781
-24.4585
-24.3138
-19.2779
-34.4879
-27.6101
-18.1114
-4.97678
-32.2657
-27.1257
-23.9881
-8.88946
-36.265
-52.7517
-57.9068
-57.3039
-31.1885
-30.5417
-35.1149
-50.9046
-70.0161
-65.0139
191.522
179.132
-64.9051
-64.8812
180.435
177.457
-78.4222
-39.8046
-50.6775
-37.1756
-50.8767
-49.4549
-25.085
-24.8842
-28.2863
-28.2819
-23.0554
-23.0551
-29.4352
-54.8972
-26.7373
-28.1579
-51.0354
-51.0413
169.154
168.807
-39.7884
-84.2807
-43.0273
-30.9604
-35.5368
-35.5385
-22.258
-22.2495
-55.4414
-36.5494
-50.6594
-41.2852
-70.1452
-65.1166
178.231
197.36
-78.4128
-39.8024
-50.6571
-37.1402
-49.4236
-50.8239
-25.0834
-24.892
-29.4417
-54.9007
-26.74
-28.1639
-84.4096
-39.8348
-30.9359
-42.9878
-36.446
-55.47
-41.2859
-50.6578
-25.8084
-25.8442
-25.6273
-24.8682
-35.1887
-35.6328
-26.1268
-26.6317
-34.1309
-34.1508
-26.6926
-26.6891
-26.433
-29.606
-21.3187
-25.9539
-24.9828
-24.9829
-26.052
-26.0533
-32.2896
-28.8494
-29.6179
-51.1724
-23.5467
-23.5401
-11.8901
-11.8981
-57.6207
-57.6211
-55.2527
-55.2524
-25.8066
-25.8416
-25.6267
-24.87
-35.5772
-35.1604
-26.1224
-26.6267
-29.609
-26.4186
-21.3138
-25.9232
-28.7968
-32.2916
-51.169
-29.6062
-34.5845
-72.3609
-81.9594
3.38459
-28.6893
-32.4378
-40.1666
-37.9243
-26.4944
-39.1603
-39.8396
-32.0736
-4.58202
-0.535445
-83.2715
-67.4882
-34.6775
3.35696
-81.9191
-72.6257
-4.70378
-67.544
-83.2734
-0.573079
-26.8574
-32.0687
-39.8443
-39.1857
-28.6839
-37.9228
-40.1686
-32.433
-80.7068
-76.5438
-51.2235
-48.8054
-80.5329
-48.7514
-51.2038
-76.304
-30.0313
-31.4236
-37.8882
-35.8228
-30.0487
-35.8594
-37.9137
-31.4098
-72.128
-44.9873
-42.7649
-67.4371
-21.4109
-16.634
-30.1562
-31.9934
-21.3997
-31.9291
-30.146
-16.6294
-71.6786
-67.4699
-42.754
-44.8819
63.0863
144.812
197.947
110.538
110.279
123.609
189.937
139.978
110.939
139.945
189.947
123.428
66.8998
107.095
198.166
144.62
-25.9239
-24.2995
-26.3061
-26.589
-23.6139
-25.3279
-26.8038
-24.4596
-34.1515
-36.9035
-29.8015
-28.8874
-25.6529
-26.9393
-27.7783
-28.0633
-25.9215
-26.5866
-26.3011
-24.2991
-25.6592
-28.0006
-27.7625
-26.9356
-34.1432
-28.8865
-29.8004
-36.8998
-23.6284
-24.4503
-26.8021
-25.3311
-26.7264
-27.8216
-25.9119
-25.1751
-26.7196
-25.1738
-25.9104
-27.8158
-24.5263
-25.0227
-25.0883
-24.5326
-24.5212
-24.53
-25.0885
-25.0219
-9.0963
-21.3525
-34.0378
-4.25609
-52.9555
-60.1593
-53.2774
-45.6162
-52.95
-45.6124
-53.2768
-60.1597
-9.089
-4.24982
-34.0352
-21.3044
-24.8552
-22.7999
-30.392
-20.6854
-38.6912
-36.158
-55.194
-51.0745
-38.0787
-54.5907
-54.5633
-36.7927
-33.9367
-26.8523
-31.2738
-41.7754
-24.8608
-20.6901
-30.3893
-22.8124
-33.929
-41.7501
-31.1969
-26.8534
-38.1964
-36.7863
-54.6412
-55.1139
-38.6906
-51.0374
-55.2066
-36.1544
-25.1494
-25.5849
-26.6077
-26.9711
-25.1544
-26.9756
-26.6083
-25.5856
-30.7207
-28.8747
-27.7542
-29.1126
-30.7116
-29.1065
-27.7515
-28.8669
-53.6806
-50.38
-50.6531
-58.4777
-33.0381
-31.0821
-40.5571
-42.3856
-33.0406
-42.3936
-40.5587
-31.0831
-53.6682
-58.4775
-50.6525
-50.3748
-29.3976
-25.1206
-23.0938
-27.2897
-29.4074
-27.2893
-23.0943
-25.1187
-27.8314
-23.0953
-22.8587
-27.2435
-27.8105
-27.2471
-22.855
-23.0952
-14.292
-106.539
-105.158
-31.1562
-32.9255
-34.2357
26.4515
-3.46052
-17.9358
-31.3739
-30.9046
-33.5091
-106.486
-14.1911
-105.098
-32.924
-31.1556
-34.2344
-4.00527
26.3236
-18.0653
-30.9035
-31.3693
-33.498
-28.6806
-27.1359
-27.551
-27.7363
-24.868
-24.2876
-24.1962
-24.6703
-22.3291
-23.0162
-18.6338
-17.8276
-40.4312
-36.1073
-39.7706
-49.0651
-28.669
-27.7266
-27.1295
-27.542
-24.887
-24.6769
-24.2962
-24.2027
-22.3245
-17.8215
-22.9288
-18.6198
-40.3231
-49.0586
-36.082
-39.6193
71.5176
70.3598
31.5743
115.49
-95.2528
-95.1214
-81.8225
8.2954
-46.6566
-38.5775
-49.6934
-40.9679
-29.4594
-29.4872
-32.2773
-28.0579
-29.8402
-29.8459
-28.8421
-25.9936
-30.4637
-28.2717
-38.3456
-28.6507
-78.506
-80.2224
-73.1379
-54.0075
-45.0066
-36.6908
-51.3275
-38.805
-27.4982
-27.5065
-29.2064
-24.4916
-49.9237
-48.6597
-48.6809
-48.2794
71.5035
70.3427
31.5121
115.485
-46.6199
-38.5504
-49.7647
-40.9304
-29.4568
-29.484
-32.2683
-28.0566
-30.4663
-28.2759
-38.3562
-28.6556
-44.9503
-36.6867
-51.1465
-38.7811
-50.0419
-48.558
-48.7159
-48.3265
-24.7653
-24.453
-24.5841
-24.6421
-27.9384
-28.2646
-30.218
-27.254
-29.4361
-29.4304
-30.4772
-28.7285
-23.5584
-26.1508
-26.1801
-23.7231
-25.2803
-25.2803
-25.167
-25.4032
-25.7617
-38.916
-34.6348
-34.1357
-9.29415
-9.29453
-12.7221
-5.61511
-60.6894
-60.6893
-61.4551
-59.9423
-24.7648
-24.4539
-24.5826
-24.6428
-27.9337
-28.1545
-30.2131
-27.2532
-23.5612
-26.1497
-26.1814
-23.7243
-25.6944
-38.9307
-34.5918
-34.0964
-66.192
-54.5811
-55.4244
-47.5429
-66.176
-54.5659
-55.4192
-47.5299
-47.6469
-43.4377
-43.418
-40.6118
-39.1121
-35.7105
-35.7053
-32.8369
206.644
197.566
203.66
206.749
-27.1777
-27.3575
-28.0403
-28.3798
-27.1727
-27.35
-28.037
-28.3743
-25.4712
-25.6838
-25.2632
-25.4702
-46.3381
-41.2466
-51.232
-46.3387
-51.4568
-45.6307
-45.7415
-36.7649
-51.464
-45.6388
-45.7598
-36.801
-27.299
-27.0957
-27.0966
-26.7971
-43.0757
-45.6204
-45.6226
-48.3959
-22.2221
-22.0966
-21.9273
-22.2209
37.0742
67.3193
15.8256
95.5053
-109.824
-108.992
-89.3393
63.3002
-75.5838
-58.418
-67.8072
-62.5022
-29.8867
-29.5446
-32.5542
-28.1149
-32.5977
-30.9668
-30.0826
-29.3649
-33.0238
-32.013
-43.7331
-30.9303
49.5265
64.0574
25.1155
87.2862
-62.321
-74.9124
-76.0798
24.3641
-53.7239
-54.5534
-40.3169
-55.851
-30.1871
-29.6412
-32.9525
-28.1551
-29.4784
-28.2488
-30.2307
-26.8697
-38.1698
-45.1249
-44.8304
-38.5192
-108.814
-108.065
-88.6622
47.3754
37.6823
65.5539
15.9343
95.4302
-75.5131
-58.3664
-67.7182
-62.4314
-32.5991
-30.987
-30.097
-29.3729
-29.8838
-29.5415
-32.551
-28.1102
-33.0233
-32.0126
-43.7171
-30.9347
-62.9416
-76.3677
-76.3247
16.6628
49.5575
64.0629
24.9986
87.236
-53.9505
-54.483
-40.4605
-55.7628
-29.4794
-28.2403
-30.2316
-26.8733
-30.183
-29.6378
-32.9512
-28.1545
-38.1672
-45.1205
-44.8384
-38.5307
-30.1862
-33.1734
-32.1927
-31.7739
-25.9868
-25.2157
-25.2951
-25.6051
-27.1118
-27.9261
-31.3599
-27.1144
-28.5621
-29.1501
-30.048
-28.0983
-25.3872
-26.2007
-22.1213
-26.046
-24.1516
-24.2364
-24.0589
-24.3158
-21.4667
-21.9347
-23.1481
-20.0087
-24.7725
-25.1477
-24.8549
-25.1122
-26.1267
-32.2965
-32.6418
-29.6896
-28.8329
-28.7718
-30.3608
-28.0827
-16.4414
-16.9265
-21.1717
-11.134
-12.8059
-10.0598
-14.6501
-7.48882
-43.895
-45.0109
-38.748
-50.3997
-32.0886
-29.2397
-30.8771
-30.4209
-40.1818
-39.8911
-37.1193
-45.8711
-56.761
-59.6795
-58.4379
-58.1019
-30.1717
-33.1539
-32.1779
-31.7528
-28.5519
-29.14
-30.0369
-28.0918
-25.9834
-25.2143
-25.293
-25.6048
-27.1079
-27.9258
-31.3702
-27.1159
-25.3933
-26.204
-22.1513
-26.0513
-24.776
-25.1494
-24.8579
-25.1136
-24.1596
-24.2389
-24.0514
-24.3198
-21.4999
-21.9456
-23.1654
-20.0148
-26.1245
-32.2611
-32.6441
-29.6899
-12.7945
-10.0559
-14.6414
-7.47842
-28.8951
-28.7662
-30.3505
-28.0794
-16.4382
-16.9795
-21.1921
-11.1568
-43.8443
-44.9885
-38.7261
-50.3874
-56.7612
-59.6795
-58.4378
-58.1019
-32.0854
-29.2393
-30.8756
-30.4213
-40.1928
-39.8881
-37.1311
-45.8842
-21.791
-98.8728
-67.7343
-66.7879
191.896
200.567
201.231
196.114
-73.1158
-57.4783
-64.2431
-64.2179
95.9261
179.933
167.163
166.523
-51.3404
-53.9299
-64.2103
-46.9497
-41.7567
-43.15
-46.2782
-39.7332
-41.6398
-56.666
-49.1308
-49.0116
-26.1915
-23.7793
-25.0387
-24.8752
-28.3163
-27.8436
-28.1513
-28.1489
-22.0452
-22.1168
-22.3776
-22.3753
-44.1686
-45.2451
-35.4241
-51.9318
-27.6921
-27.2687
-27.0572
-27.7467
-58.1467
-47.0244
-51.2302
-51.2352
132.692
177.89
182.804
182.794
-57.5435
-56.4239
-46.6237
-69.0678
-37.1016
-36.1554
-39.5797
-33.7545
-33.0359
-37.6815
-35.3255
-35.3262
-20.7806
-21.3833
-21.3825
-21.3838
-44.4237
-44.334
-52.875
-39.2929
-46.3447
-45.8613
-48.6237
-43.8003
-22.0361
-98.8488
-67.894
-66.9247
190.38
198.244
195.123
202.903
-51.3427
-53.9168
-64.2035
-46.9421
-41.7139
-43.1185
-46.2509
-39.7005
-41.6454
-56.6607
-48.9821
-49.1311
-26.1905
-23.7819
-25.0392
-24.8824
-44.1786
-45.2529
-35.4344
-51.94
-27.6981
-27.2723
-27.0597
-27.7531
-57.6582
-56.3701
-69.1077
-46.5759
-37.0427
-36.137
-33.7296
-39.5422
-44.6311
-44.5572
-39.341
-52.8792
-46.3524
-45.8657
-43.807
-48.62
-25.737
-26.3032
-25.9182
-25.9861
-24.9762
-25.3094
-25.3709
-24.9704
-33.6064
-36.1553
-35.3926
-35.4605
-26.4354
-26.5541
-26.2599
-26.5056
-32.8994
-36.118
-34.0489
-34.0611
-27.4243
-26.4644
-26.7488
-26.7466
-27.588
-28.1338
-27.1132
-28.6715
-23.0494
-25.8057
-21.3163
-23.3405
-25.0215
-25.0789
-25.0406
-25.0409
-25.8089
-26.2492
-26.0484
-26.0487
-34.2378
-30.0396
-32.2623
-31.062
-40.9038
-44.5251
-37.9271
-47.6816
-19.7008
-26.6106
-23.2414
-23.2383
-6.96731
-23.9285
-12.3776
-12.3572
-59.7269
-56.3364
-58.0393
-58.0396
-57.2133
-53.1154
-55.3404
-55.3401
-25.7346
-26.2993
-25.916
-25.9826
-24.9773
-25.3096
-25.3712
-24.9722
-33.6024
-36.1355
-35.4185
-35.3531
-26.4293
-26.5465
-26.2552
-26.5001
-27.59
-28.1336
-28.6749
-27.1149
-23.0584
-25.785
-21.3115
-23.307
-34.2382
-30.0361
-31.0461
-32.2663
-40.8919
-44.5214
-47.6765
-37.9173
-28.9885
-58.2669
-63.4948
-95.8108
-35.1995
-33.6482
-35.7733
-35.3703
-36.0665
-34.1703
-36.4741
-35.4547
-15.6921
-44.9764
-62.7126
-84.1199
-29.1424
-58.2382
-63.5651
-95.8421
-15.7496
-44.9607
-62.7653
-84.0854
-36.0215
-34.1669
-36.5356
-35.4101
-35.1798
-33.6456
-35.7573
-35.3393
-73.4856
-62.5717
-65.2638
-56.3157
-73.478
-62.5237
-65.2773
-56.315
-33.0067
-32.2464
-35.3324
-33.9016
-33.0336
-32.2623
-35.3577
-33.9451
-58.1316
-51.4101
-50.9511
-46.8519
-25.9349
-21.5191
-27.9959
-24.0636
-25.9118
-21.5062
-27.9732
-24.053
-58.2063
-51.2723
-50.9683
-46.8386
157.401
92.1501
157.289
99.2242
149.167
150.408
161.105
175.312
150.486
149.04
174.813
160.454
54.3502
157.032
99.9851
183.482
-25.3092
-26.0253
-25.7442
-25.968
-24.889
-24.9604
-25.6791
-25.8743
-31.4969
-33.1317
-30.5737
-32.0364
-26.7181
-26.5901
-26.7474
-27.5246
-25.3064
-26.0261
-25.74
-25.9633
-26.7169
-26.6204
-26.7475
-27.5068
-31.4966
-33.135
-30.5763
-32.0401
-24.8965
-24.9649
-25.6801
-25.879
-26.0942
-26.8642
-25.9738
-26.564
-26.8592
-26.0913
-26.561
-25.973
-24.7361
-24.6189
-24.9001
-24.7825
-24.6162
-24.7335
-24.7815
-24.899
-9.3223
-5.16274
-17.0293
-10.9522
-53.5554
-56.8806
-53.5205
-56.7489
-56.8845
-53.5549
-56.7493
-53.5151
-5.14086
-9.29483
-10.9213
-16.9973
-19.1722
-18.6559
-23.8738
-20.1324
-43.4448
-49.1643
-48.0607
-53.1934
-43.1203
-48.2916
-48.7229
-53.0417
-34.3244
-30.6509
-33.797
-29.0071
-19.1724
-18.663
-23.864
-20.1291
-34.2967
-30.6432
-33.7675
-28.97
-43.102
-48.2687
-48.6856
-53.0184
-43.4143
-49.1425
-47.9026
-53.2808
-26.0848
-25.7556
-26.3453
-26.067
-26.09
-25.7597
-26.3479
-26.0697
-29.1417
-29.2878
-28.5105
-28.465
-29.1316
-29.2796
-28.504
-28.4597
-54.0232
-56.173
-52.8316
-55.0905
-33.8345
-36.6673
-35.8405
-38.774
-33.841
-36.6805
-35.8436
-38.7728
-54.018
-56.1699
-52.8299
-55.0897
-26.1689
-25.3335
-25.0371
-23.9185
-25.331
-26.1324
-23.9206
-25.0357
-24.8362
-26.1348
-23.3842
-24.8629
-26.1353
-24.8345
-24.8638
-23.3771
-28.1378
49.4418
-95.5914
-3.42496
-47.637
-82.2678
-33.5855
-29.992
-31.1285
-31.6535
-40.6912
-31.4346
13.0917
48.2058
-55.8068
5.61307
-17.2315
-61.2264
-33.9148
-29.0081
-31.4197
-28.8332
-36.8429
-34.0474
-95.2888
-2.47363
-28.0717
49.0605
-47.7318
-82.1538
-31.1357
-31.6577
-33.5784
-29.989
-40.6952
-31.44
-55.895
6.45282
13.0399
48.4173
-17.3995
-61.3588
-31.4207
-28.8547
-33.9415
-29.0037
-36.8415
-34.0458
-28.3099
-29.6749
-26.2621
-26.5115
-26.687
-27.069
-29.0668
-27.5147
-26.2436
-25.012
-23.9745
-24.3775
-23.0864
-23.1929
-24.5894
-24.932
-23.6782
-23.612
-27.6033
-26.6148
-23.2742
-12.8595
-18.1977
-11.7358
-36.9612
-50.1479
-33.8177
-33.6943
-36.4511
-47.9736
-53.6551
-54.0626
-28.2979
-29.6595
-29.0544
-27.5069
-26.2566
-26.5051
-26.7289
-27.0668
-26.2471
-25.0174
-24.595
-24.9365
-23.9893
-24.3841
-23.1101
-23.2012
-23.6794
-23.607
-18.1865
-11.7227
-27.585
-26.6082
-23.2877
-12.859
-36.9591
-50.1228
-53.6447
-54.066
-33.8045
-33.6863
-36.4271
-47.9635
27.6999
112.874
30.9727
108.827
4.06243
1.4357
151.504
145.8
-83.2582
14.4617
-82.8124
12.5223
-75.1501
-75.0693
77.8807
77.3942
-71.5038
-49.3897
-37.2279
-35.3898
-59.2747
-45.8594
-44.746
-38.4226
-32.1316
-28.1133
-32.3384
-28.205
-36.2178
-36.4612
-27.2448
-27.2231
-29.1891
-26.8659
-29.2002
-26.876
-28.6712
-28.6661
-24.4519
-24.4544
-48.0105
-29.9823
-21.7849
-27.1606
-32.0372
-49.0785
-27.4162
-28.5379
-74.6888
-32.8172
-74.8083
-33.0895
-67.1495
-67.1653
122.471
122.813
-55.5631
-46.1948
-38.5731
-30.6664
-45.7755
-63.1091
-41.2231
-34.8824
-29.518
-24.9819
-29.5186
-24.9823
-30.9265
-30.9268
-22.443
-22.4448
-50.8265
-44.1503
-43.4721
-49.5333
-50.4516
-45.2234
-48.6616
-44.8795
27.7504
112.765
30.8438
108.8
4.03976
1.40085
145.769
151.34
-72.3149
-49.3419
-37.223
-35.3616
-59.3078
-45.8461
-44.6997
-38.3833
-32.1288
-28.1115
-32.3347
-28.2043
-36.4439
-36.2106
-27.2437
-27.2199
-47.9557
-29.987
-21.7929
-27.1649
-32.049
-49.0903
-27.4204
-28.545
-55.5114
-46.1452
-38.526
-30.528
-63.1868
-45.2288
-34.8503
-41.1355
-50.6321
-44.1418
-43.4702
-49.5177
-45.3123
-50.7085
-44.8996
-48.6944
-24.844
-25.0176
-24.2878
-24.4044
-24.707
-24.702
-25.0047
-24.6633
-30.4449
-27.0979
-29.6982
-27.5094
-32.445
-32.3295
-26.6712
-26.8259
-30.3783
-28.5698
-30.3703
-28.5645
-31.4783
-31.4865
-27.9399
-27.9361
-24.2143
-21.2945
-28.3286
-27.1108
-26.0772
-27.8682
-21.5897
-24.5073
-25.1089
-25.3681
-25.1095
-25.3682
-25.0926
-25.0922
-25.6078
-25.608
-25.256
-19.1124
-39.6625
-42.6922
-36.0845
-32.243
-31.0386
-43.0306
-13.163
-6.11789
-13.1602
-6.12333
-16.2991
-16.2971
-4.34737
-4.34242
-60.8786
-59.5772
-60.8787
-59.5772
-60.9314
-60.932
-58.6897
-58.6897
-24.8425
-25.0164
-24.285
-24.4072
-24.7063
-24.6986
-25.0046
-24.6655
-30.4398
-27.0959
-29.6947
-27.5068
-32.3248
-32.441
-26.6699
-26.8239
-24.2194
-21.2998
-28.3284
-27.1115
-27.8666
-26.0795
-21.5931
-24.5092
-25.2471
-19.0665
-39.6529
-42.6747
-32.192
-36.1014
-43.0295
-30.9595
-81.1901
-84.1669
-65.2591
-47.3008
-47.5234
-67.5791
-40.2824
-40.1595
-81.1559
-84.1416
-65.2386
-47.2919
-67.576
-47.495
-40.1581
-40.2812
-51.562
-51.5434
-46.938
-40.508
-46.9157
-40.4832
-37.948
-37.9646
-42.7219
-42.7223
-39.1478
-33.0596
-33.0489
-39.1372
-29.8997
-29.8948
202.694
199.078
193.648
193.213
190.962
191.277
199.414
203.538