# vtk DataFile Version 2.0
tet_velo
ASCII
DATASET UNSTRUCTURED_GRID
POINTS 29498 float
-0.634219 0.155 -1.745
-0.545 0.205 1.83412
-0.680278 0.665 -1.725
-0.604253 0.585 1.785
0.634219 0.155 -1.745
0.70729 0.335 1.785
0.680279 0.665 -1.725
0.60425 0.585 1.785
-0.60843 0.167716 -0.55196
-0.584214 0.178859 0.64108
-0.772204 0.755601 -0.555
-0.772747 0.754819 0.615
0.688145 0.185431 -0.568333
0.773251 0.184682 0.608333
0.772213 0.75561 -0.555
0.772741 0.754815 0.615
-1.32959 -0.140655 -2.68551
-1.31119 -0.113616 -1.74245
-1.27944 -0.0959904 -0.549981
-1.22839 -0.0757453 0.647546
-1.17796 -0.0506364 1.84039
-1.17108 -0.0601984 2.78532
-1.17805 -0.0809293 3.72617
-1.3459 0.123049 -2.68108
-1.33827 0.158293 -1.74041
-1.32833 0.179461 -0.550325
-1.27871 0.174412 0.643002
-1.19935 0.157214 1.83356
-1.20058 0.145439 2.77873
-1.2151 0.131793 3.72005
-1.38644 0.652982 -2.66765
-1.40401 0.69121 -1.72764
-1.4652 0.752168 -0.552954
-1.43589 0.726498 0.62158
-1.29453 0.59598 1.7978
-1.29194 0.567339 2.75156
-1.30814 0.565926 3.70076
-1.46043 1.49128 -2.65649
-1.4747 1.52845 -1.71796
-1.51685 1.56356 -0.549945
-1.54351 1.52543 0.615532
-1.52307 1.42064 1.78625
-1.49608 1.35437 2.7304
-1.47882 1.32315 3.67799
-0.651139 -0.144187 -2.68911
-0.6299 -0.115729 -1.74791
-0.587534 -0.101172 -0.555818
-0.544253 -0.063922 0.640305
-0.523134 0.00170412 1.83278
-0.517462 -0.0218558 2.77756
-0.519408 -0.0562748 3.71825
-0.659811 0.116953 -2.68332
-0.551321 0.174485 2.773
-0.558826 0.151138 3.71283
-0.685339 0.640393 -2.66735
-0.637454 0.564945 2.74578
-0.650332 0.569729 3.69428
-0.749339 1.48727 -2.65682
-0.754506 1.52679 -1.71817
-0.795598 1.56978 -0.551474
-0.841337 1.53262 0.611748
-0.845073 1.41827 1.78061
-0.824802 1.34957 2.72423
-0.808126 1.32096 3.67161
0.676978 -0.140862 -2.69276
0.671311 -0.111247 -1.7525
0.731799 -0.0877457 -0.571256
0.802314 -0.0464712 0.611692
0.768199 0.081487 1.79437
0.775001 0.0402071 2.74748
0.789656 -0.0140776 3.69496
0.665997 0.118814 -2.68539
0.723686 0.240087 2.74381
0.743009 0.192529 3.69075
0.676066 0.641602 -2.66875
0.631857 0.59241 2.73204
0.653584 0.598204 3.67796
0.657358 1.49023 -2.66031
0.67174 1.52951 -1.72146
0.655933 1.57288 -0.555449
0.593788 1.53655 0.606522
0.533203 1.42497 1.77358
0.525868 1.36077 2.71482
0.536566 1.33599 3.66007
1.35664 -0.132559 -2.69448
1.3574 -0.102957 -1.75391
1.41941 -0.0746256 -0.57622
1.47987 -0.0410828 0.601821
1.44375 0.0486548 1.78175
1.43989 0.0359927 2.73306
1.45398 -0.00588232 3.68226
1.34456 0.128672 -2.68732
1.34089 0.164538 -1.74693
1.40328 0.198997 -0.57243
1.4578 0.198528 0.60085
1.38843 0.260808 1.77672
1.38675 0.241825 2.72917
1.40608 0.20488 3.67835
1.35844 0.656899 -2.67213
1.37953 0.693773 -1.73053
1.4512 0.759315 -0.560962
1.44303 0.734035 0.606081
1.30774 0.622747 1.77611
1.29863 0.618154 2.72188
1.31935 0.618812 3.66846
1.35217 1.49794 -2.66431
1.37094 1.53485 -1.72564
1.36645 1.57098 -0.559312
1.30926 1.53503 0.60328
1.23688 1.43601 1.77032
1.2148 1.37769 2.71047
1.21786 1.35313 3.65451
-0.723204 0.41 -1.80096
0 0.151656 -1.74834
-0.625382 0.157301 -1.14848
-0.63075 0.395 1.86568
0.081145 0.24593 1.83363
-0.554076 0.20246 1.2376
5.06639e-07 0.593443 -1.65344
-0.744319 0.728378 -1.14
-1.49012e-06 0.62328 1.82328
-0.732976 0.714386 1.2
0.723192 0.41 -1.80094
0.673778 0.15762 -1.15667
0.674193 0.46 1.80342
0.769725 0.230387 1.19667
0.744322 0.728381 -1.14
0.732965 0.714377 1.2
-0.595817 0.173792 0.04456
-0.783318 0.461659 -0.55348
0.0398576 0.167609 -0.560147
-0.81126 0.466839 0.62804
0.0945184 0.169934 0.624707
-0.772222 0.754956 0.03
4.08735e-06 0.884552 -0.555
-2.94241e-06 1.19043 0.615
0.713836 0.201919 0.02
0.784107 0.47052 -0.561667
0.797307 0.469748 0.611667
0.772225 0.75496 0.03
-0.813049 0.435829 -1.14424
-0.783485 0.464249 0.03728
-0.851337 0.430919 1.2188
0.0199288 0.154443 -1.15257
0.067188 0.174951 0.03228
0.0878317 0.206918 1.21713
2.5332e-07 0.41 -1.96595
0.0405717 0.4275 1.92114
2.29699e-06 0.764892 -1.14
5.7247e-07 1.23477 0.03
-2.21626e-06 0.957414 1.2
0.813201 0.44026 -1.14833
0.784066 0.470134 0.025
0.854356 0.464874 1.19833
-0.986244 0.156646 -1.7427
-0.63206 0.0196354 -1.74645
-0.647015 0.135976 -2.21416
-0.872175 0.181107 1.83384
-0.534067 0.103352 1.83345
-0.54816 0.189743 2.30356
-1.04214 0.678105 -1.72632
-0.682809 0.652696 -2.19618
-0.717392 1.0959 -1.72159
-0.94939 0.59049 1.7914
-0.620854 0.574973 2.26539
-0.724663 1.00164 1.7828
0.652765 0.0218764 -1.74875
0.650108 0.136907 -2.21519
0.987555 0.159769 -1.74597
0.737744 0.208243 1.78969
0.715488 0.287544 2.26441
1.04786 0.297904 1.78086
0.678172 0.653301 -2.19687
0.67601 1.09726 -1.72323
1.0299 0.679387 -1.72776
0.618054 0.588705 2.25852
0.568727 1.00498 1.77929
0.955995 0.603873 1.78056
-0.968381 0.173588 -0.551142
-0.597982 0.0332721 -0.553889
-0.93146 0.176635 0.642041
-0.564233 0.0574684 0.640693
-1.1187 0.753885 -0.553977
-0.783901 1.16269 -0.553237
-1.10432 0.740658 0.61829
-0.807042 1.14372 0.613374
0.709972 0.0488425 -0.569795
1.04571 0.192214 -0.570382
0.787782 0.0691054 0.610013
1.11553 0.191605 0.604592
0.714073 1.16425 -0.555225
1.11171 0.757463 -0.557981
0.683265 1.14568 0.610761
1.10789 0.744425 0.61054
-1.32039 -0.127135 -2.21398
-1.33774 -0.00880322 -2.68329
-0.990365 -0.142421 -2.68731
-1.29531 -0.104803 -1.14622
-1.32473 0.0223384 -1.74143
-0.970543 -0.114672 -1.74518
-1.25391 -0.0858678 0.0487826
-1.30389 0.0417353 -0.550153
-0.933489 -0.098581 -0.5529
-1.20317 -0.0631908 1.24397
-1.25355 0.0493334 0.645274
-0.88632 -0.0698337 0.643926
-1.17452 -0.0554174 2.31285
-1.18865 0.0532889 1.83697
-0.850547 -0.0244661 1.83658
-1.17456 -0.0705638 3.25574
-1.18583 0.0426202 2.78202
-0.844272 -0.0410271 2.78144
-1.19657 0.0254319 3.72311
-0.848727 -0.068602 3.72221
-1.34208 0.140671 -2.21074
-1.36617 0.388015 -2.67436
-1.00285 0.120001 -2.6822
-1.3333 0.168877 -1.14537
-1.37114 0.424751 -1.73403
-1.30352 0.176936 0.0463385
-1.39677 0.465814 -0.551639
-1.23903 0.165813 1.23828
-1.3573 0.450455 0.632291
-1.19997 0.151326 2.30614
-1.24694 0.376597 1.81568
-1.20784 0.138616 3.24939
-1.24626 0.356389 2.76514
-0.875952 0.159962 2.77586
-1.26162 0.348859 3.71041
-0.886961 0.141465 3.71644
-1.39523 0.672096 -2.19764
-1.42344 1.07213 -2.66207
-1.03589 0.646687 -2.6675
-1.4346 0.721689 -1.1403
-1.43935 1.10983 -1.7228
-1.45055 0.739333 0.0343131
-1.49103 1.15786 -0.55145
-1.36521 0.661239 1.20969
-1.4897 1.12596 0.618556
-1.29323 0.581659 2.27468
-1.4088 1.00831 1.79202
-1.30004 0.566633 3.22616
-1.39401 0.960856 2.74098
-0.964698 0.566142 2.74867
-1.39348 0.944538 3.68937
-0.979234 0.567828 3.69752
-1.46757 1.50987 -2.18722
-1.10489 1.48927 -2.65665
-1.49577 1.54601 -1.13395
-1.1146 1.52762 -1.71807
-1.53018 1.54449 0.0327932
-1.15622 1.56667 -0.55071
-1.53329 1.47303 1.20089
-1.19242 1.52902 0.61364
-1.50957 1.3875 2.25832
-1.18407 1.41945 1.78343
-1.48745 1.33876 3.20419
-1.16044 1.35197 2.72732
-1.14347 1.32205 3.6748
-0.640519 -0.129958 -2.21851
-0.655475 -0.0136173 -2.68622
0.0129195 -0.142525 -2.69093
-0.608717 -0.10845 -1.15186
0.0207056 -0.113488 -1.7502
-0.565894 -0.0825469 0.0422435
0.0721325 -0.0944587 -0.563537
-0.533693 -0.031109 1.23654
0.12903 -0.0551966 0.625999
-0.520298 -0.0100758 2.30517
0.122532 0.0415955 1.81357
-0.518435 -0.0390653 3.24791
-0.534391 0.0763147 2.77528
0.12877 0.00917566 2.76252
-0.539117 0.0474315 3.71554
0.135124 -0.0351762 3.70661
-0.672575 0.378673 -2.67534
0.00309315 0.117883 -2.68435
-0.555073 0.162811 3.24291
-0.594388 0.369715 2.75939
0.0861827 0.207286 2.75841
-0.604579 0.360434 3.70355
0.0920915 0.171833 3.70179
-0.717339 1.06383 -2.66209
-0.00463683 0.640997 -2.66805
-0.643893 0.567337 3.22003
-0.731128 0.957256 2.73501
-0.00279859 0.578678 2.73891
-0.729229 0.945342 3.68294
0.00162603 0.583967 3.68612
-0.751923 1.50703 -2.1875
-0.0459909 1.48875 -2.65857
-0.775052 1.54829 -1.13482
-0.0413826 1.52815 -1.71982
-0.818468 1.5512 0.0301373
-0.0698328 1.57133 -0.553461
-0.843205 1.47544 1.19618
-0.123774 1.53458 0.609135
-0.834937 1.38392 2.25242
-0.155935 1.42162 1.77709
-0.816464 1.33526 3.19792
-0.149467 1.35517 2.71953
-0.13578 1.32847 3.66584
0.674145 -0.126054 -2.22263
0.671487 -0.0110239 -2.68907
1.01681 -0.13671 -2.69362
0.701555 -0.0994964 -1.16188
1.01436 -0.107102 -1.7532
0.767056 -0.0671085 0.0202182
1.0756 -0.0811857 -0.573738
0.785256 0.0175079 1.20303
1.14109 -0.043777 0.606756
0.7716 0.060847 2.27092
1.10597 0.0650709 1.78806
0.782328 0.0130648 3.22122
0.749344 0.140147 2.74565
1.10745 0.0380999 2.74027
0.766332 0.0892258 3.69285
1.12182 -0.00997994 3.68861
0.671031 0.380208 -2.67707
1.00528 0.123743 -2.68635
0.733347 0.216308 3.21728
0.677772 0.416249 2.73793
1.05522 0.240956 2.73649
0.698296 0.395367 3.68435
1.07455 0.198704 3.68455
0.666712 1.06592 -2.66453
1.01725 0.64925 -2.67044
0.642721 0.595307 3.205
0.578862 0.976589 2.72343
0.965242 0.605282 2.72696
0.595075 0.967097 3.66902
0.986469 0.608508 3.67321
0.664549 1.50987 -2.19089
1.00476 1.49409 -2.66231
0.663836 1.5512 -1.13846
1.02134 1.53218 -1.72355
0.62486 1.55471 0.0255365
1.01119 1.57193 -0.557381
0.563496 1.48076 1.19005
0.951526 1.53579 0.604901
0.529535 1.39287 2.2442
0.885041 1.43049 1.77195
0.531217 1.34838 3.18745
0.870331 1.36923 2.71265
0.877213 1.34456 3.65729
1.35702 -0.117758 -2.2242
1.3506 -0.00194382 -2.6909
1.38841 -0.0887916 -1.16506
1.34915 0.0307905 -1.75042
1.44964 -0.0578542 0.0128005
1.41134 0.0621855 -0.574325
1.46181 0.00378602 1.19178
1.46884 0.0787225 0.601335
1.44182 0.0423238 2.2574
1.41609 0.154731 1.77923
1.44694 0.0150552 3.20766
1.41332 0.138909 2.73111
1.43003 0.0994987 3.6803
1.34273 0.146605 -2.21712
1.3515 0.392785 -2.67972
1.37209 0.181768 -1.15968
1.36021 0.429156 -1.73873
1.43054 0.198762 0.01421
1.42724 0.479156 -0.566696
1.42312 0.229668 1.18878
1.45042 0.466281 0.603465
1.38759 0.251316 2.25294
1.34808 0.441777 1.77642
1.39641 0.223352 3.20376
1.34269 0.42999 2.72552
1.36272 0.411846 3.67341
1.36899 0.675336 -2.20133
1.35531 1.07742 -2.66822
1.41537 0.726544 -1.14574
1.37524 1.11431 -1.72808
[...]
POINT_DATA 29498
VECTORS point_vectors float
-2.70738 -3.84382 10.3191
0.392776 0.93674 3.79103
-3.97439 3.64269 5.51648
0.0129772 -0.176944 0.175785
2.68628 -3.84631 10.269
-0.274165 -0.0651931 0.919779
3.9701 3.63857 5.50603
-0.0156154 -0.169992 0.174959
0.00147146 0.000342448 0.031532
-0.00145703 0.0044903 0.061896
-0.045873 -0.118654 0.493765
0.100715 0.277991 0.508261
-0.0237264 -0.00381136 0.400121
-0.17456 -0.616427 3.35218
0.0459039 -0.118699 0.494183
-0.0993882 0.274134 0.502753
-0.635998 -0.328788 19.7918
-1.24886 -0.826584 20.437
-0.364077 -0.568835 21.2537
0.114542 -0.349455 21.5234
0.999632 0.306806 21.419
1.34233 0.49317 20.9591
1.15857 0.432381 20.975
-0.751681 -0.257849 19.6785
-1.63988 -0.686803 20.3527
-0.559479 -0.710127 21.2687
-0.0405019 -0.546531 21.5755
1.21711 0.037753 21.4439
1.50234 0.257162 21.0017
1.60316 0.288649 20.3318
-0.761418 0.0571846 19.6578
-1.75569 0.0628174 20.2035
-1.19953 -0.45216 21.1109
-0.406724 -0.526724 21.5509
0.87102 -0.743051 21.5374
1.2923 -0.640854 21.1865
1.30375 -0.457164 20.6731
-0.493013 0.281249 19.8762
-0.879873 0.485011 20.1647
-1.02167 0.338912 20.8102
-0.593208 -0.0508851 21.2596
-0.0470915 -0.456212 21.2707
0.284336 -0.655636 21.0451
0.375356 -0.59695 20.9095
-0.611335 -0.740033 19.1669
-1.74337 -3.28605 20.8938
-0.0516155 -0.184302 20.2174
0.485177 0.121381 17.6961
0.565578 1.30715 16.5009
1.0912 2.02002 18.7336
1.12893 1.77395 19.5803
-0.76881 -0.558517 18.8382
1.75512 2.04085 13.3659
1.74063 1.59587 16.7424
-0.88083 0.173654 18.5912
2.04926 -0.0359824 6.5673
2.45307 0.591996 12.3127
-0.460152 0.58425 19.5047
-1.08647 1.44371 19.7649
-1.79194 1.65948 20.6778
-1.06967 0.399828 21.8186
-0.579391 -0.502058 21.2461
0.0298314 -1.09741 19.7066
0.273554 -1.09441 18.982
0.613727 -0.718888 19.1912
1.85605 -3.15388 20.8092
-0.0159904 -0.268038 20.7861
-0.515646 -0.281036 19.6467
-1.1176 1.27178 16.0959
-1.74103 1.44638 19.1185
-1.34511 1.23284 20.1872
0.771749 -0.549691 18.8481
-2.32493 1.40371 14.4196
-1.95198 1.09912 16.5713
0.866919 0.179183 18.5746
-1.90394 -0.136827 5.97699
-2.37347 0.572727 12.1834
0.41875 0.628411 19.4632
0.990702 1.55968 19.7146
1.71249 2.08423 20.5669
1.13728 0.743177 22.1098
0.721777 -0.137432 16.9944
0.350971 -0.96706 14.3917
0.115339 -0.951745 13.5823
0.622741 -0.312683 19.8042
1.21223 -0.769529 20.4145
0.446616 -0.533602 21.1708
0.000620533 -0.318175 21.3559
-0.756746 -0.0386398 21.3619
-1.07693 0.0974399 21.0117
-0.884704 0.0620065 20.8438
0.747224 -0.252106 19.6756
1.65743 -0.683759 20.3454
0.614589 -0.653723 21.2249
0.0831424 -0.442131 21.4439
-0.923772 -0.213663 21.4703
-1.27336 -0.0391201 21.0545
-1.28734 -0.0900177 20.4525
0.780371 0.0601138 19.6266
1.81145 0.0898386 20.179
1.22947 -0.450732 21.1083
0.418289 -0.52113 21.5424
-0.811912 -0.754681 21.5259
-1.27734 -0.73873 21.214
-1.20709 -0.529287 20.8298
0.499817 0.322441 19.8197
0.943946 0.577698 20.1165
1.19708 0.476448 20.8154
0.770486 0.0217148 21.4225
0.207928 -0.537913 21.4074
-0.208052 -0.848055 21.2517
-0.333267 -0.762747 20.8002
-1.92296 -0.167684 2.45113
0.000342171 -0.124215 0.736468
0.0182243 -0.000905149 0.263292
0.0657942 -0.0595048 0.1012
0.00832783 0.138037 0.353186
0.00144817 0.00605002 0.0893074
-4.54204e-05 0.0537944 0.105641
-0.169573 -0.0645166 0.726163
5.32019e-05 -0.000106521 3.61755e-05
-0.0150055 -0.0560168 0.0823719
1.90633 -0.164327 2.4253
-0.00759624 -0.00547438 0.141812
-0.096656 -0.235007 0.503706
0.0216183 0.0365933 0.676595
0.168607 -0.0643838 0.722335
0.0161367 -0.0604451 0.0868344
0.00392431 0.000200253 0.0505395
0.000212195 -0.000806036 0.0099526
0 0 0
0 0 0
0 0 0
0.0640442 0.163838 0.510892
0 0 0
-2.76245e-06 0.00053632 -0.0020997
-0.0288814 -0.0116577 0.718542
-3.45392e-05 -0.000162795 0.00115287
0 0 0
-0.0639425 0.163018 0.508174
0 0 0
0 0 0
0.00359785 0.00275868 0.0447254
-1.04274e-07 -2.08478e-07 -4.48382e-05
7.88105e-07 -1.6867e-07 -5.21245e-05
0 0 0
0 0 0
0.00015047 -0.00197568 0.000404053
5.28226e-06 0.00250278 0.0130802
1.44271e-05 0.00551746 0.0267313
0 0 0
0 0 0
0 0 0
0 0 0
-3.01701 -1.77207 20.5075
-2.71934 -4.8763 21.1825
-2.13881 -1.96293 17.6346
1.51689 0.899614 15.6372
0.294829 1.23705 11.2773
1.25348 1.46164 9.97792
-3.48649 0.519851 19.9432
-2.33109 1.09905 17.1341
-2.21845 2.38483 19.3431
1.36103 -0.721837 14.1852
0.451322 -0.621637 2.77885
-0.332996 -0.506434 7.19674
2.82195 -4.72505 21.0355
2.13629 -1.94314 17.6451
3.04922 -1.7672 20.4825
-1.14856 0.909967 9.11503
-1.89736 0.803433 9.58475
-1.6174 0.0137118 19.4355
2.32101 1.11411 17.1091
2.1553 2.55425 19.2707
3.59397 0.58575 19.9211
-0.358344 -0.599025 2.62631
0.904038 -0.295991 1.72913
-1.35192 -0.765675 14.618
0.153108 -0.843334 19.9415
0.329921 0.154988 13.4247
-0.121746 -1.11347 16.9427
0.665146 0.161253 11.4585
-1.85114 -1.10469 21.2821
-3.76214 1.58184 20.5566
-0.41231 -0.717298 20.3168
-0.895697 0.21849 17.255
-0.321965 0.1121 14.1859
0.165684 -0.953572 21.1502
-0.811862 -0.765508 15.3153
0.0640464 -0.712809 21.0592
3.9175 2.07096 20.2532
1.88614 -1.11966 21.2302
-0.436663 0.860285 8.42966
0.439484 -0.748473 20.4351
-1.00894 -0.60702 19.9266
-0.693241 -0.302334 19.7367
-0.704975 -0.51818 19.5073
-0.84518 -0.756639 21.096
-1.45269 -0.794649 20.4014
-1.7102 -1.69086 20.5548
-0.106626 -0.451267 21.3332
-0.453861 -0.623837 21.2681
-0.149448 -0.556054 21.4897
0.561433 -0.0139241 21.6493
0.0555608 -0.460186 21.5346
0.382615 -0.340858 20.8424
1.18353 0.423553 21.2267
1.15028 0.188592 21.4039
1.20535 0.987371 20.1676
1.21187 0.451638 20.7387
1.42233 0.375166 20.9804
1.57769 1.19387 20.2555
1.26753 0.36962 20.8454
1.26254 1.09439 20.3304
-1.24558 -0.454989 19.794
-0.785612 -0.112099 19.6183
-0.831575 -0.39605 19.3185
-1.16201 -0.767112 21.113
-1.86163 -0.343908 20.2735
-0.238159 -0.636239 21.3753
-0.907012 -0.715006 21.2252
0.641356 -0.250444 21.7383
-0.237565 -0.588547 21.5821
1.44611 0.135971 21.2429
1.16711 -0.400618 21.4039
1.26689 0.149754 20.959
1.54019 -0.207854 20.8819
2.09309 1.01271 18.4969
1.69131 -0.183862 20.0276
1.81326 0.78771 18.0482
-1.31139 0.0939025 19.7246
-0.651109 0.209264 19.7468
-0.911939 0.099253 19.202
-1.53958 -0.207134 20.8395
-1.31511 0.420601 20.1497
-0.842259 -0.56658 21.3722
-1.29214 0.0198241 20.94
0.249578 -0.65377 21.692
-0.6091 -0.321486 21.4257
1.18646 -0.707615 21.3435
0.193185 -0.75429 21.4273
1.32058 -0.466496 20.8738
0.752856 -0.867702 21.1578
2.16582 -0.584053 17.6275
0.8523 -0.744519 20.7646
1.94823 -0.492134 18.4083
-0.697136 0.404208 19.9534
-0.524035 0.443078 19.6866
-1.01596 0.458577 20.4865
-1.07789 0.888479 20.0007
-0.876859 0.159212 21.1186
-1.4551 0.778364 20.8009
-0.31379 -0.272394 21.3127
-0.850585 0.0688443 21.5078
0.122346 -0.586625 21.213
-0.243879 -0.561589 21.4374
0.378987 -0.66464 20.8534
0.20635 -0.907745 21.2241
0.370069 -0.936618 20.7086
-1.30102 -1.90716 18.9701
-0.6921 -0.658445 19.0039
0.0110323 -0.956251 18.8278
-0.600303 -1.1083 21.9487
0.0544239 -4.68327 21.3761
0.232045 -0.032262 18.8193
0.0261566 -0.398832 18.2543
0.525265 0.6683 16.7937
-0.108445 -0.00456641 14.7684
0.863514 1.76641 17.8384
-0.0222759 0.854551 11.8555
1.15334 1.94677 19.0976
1.38892 2.06738 16.3189
-0.205508 1.8639 15.6218
1.41296 1.7846 18.5698
-0.339354 1.81137 17.7824
-0.838203 -0.211411 18.6292
0.00541266 -0.736134 18.2918
1.63677 1.88394 15.9397
2.44114 1.18704 8.58366
-0.15226 1.5313 7.99887
2.40626 1.19972 13.0668
-0.507392 2.06003 13.1296
-0.671722 0.569538 19.0715
-0.0077467 0.365872 18.0083
2.65262 0.191621 9.75416
0.652037 -1.15206 9.51719
-0.00367175 1.35003 -1.0454
0.703955 -1.04449 11.7437
-0.0202249 2.18591 4.40564
-0.751779 1.03219 19.5031
-0.033415 0.811886 19.2805
-1.4079 1.5735 20.2177
-0.0755966 2.11125 19.4647
-1.78152 1.31683 21.615
-0.235508 3.50853 20.1828
-0.807819 -0.136279 21.7647
-0.448341 1.63575 22.0558
-0.272234 -0.813512 20.515
-0.298277 0.468283 9.34042
0.240768 -1.32781 19.5991
-0.85125 -0.0673512 3.91895
-0.66396 0.089452 5.52732
1.31034 -1.83015 19.0065
0.699854 -0.646285 19.0238
0.707455 -0.49317 19.5315
0.59582 -1.1904 21.961
1.69062 -1.54229 20.4895
-0.26496 -0.18467 19.8368
0.252555 -0.613463 21.4059
-0.826447 0.495302 18.1554
-0.131134 -0.421835 21.5349
-1.56372 1.42127 18.038
-1.23484 0.287396 21.3616
-1.69672 1.26841 19.235
-1.99086 1.50013 17.012
-1.54033 0.545027 20.8995
-1.63661 1.17071 18.5143
-1.33608 0.538856 20.913
0.835243 -0.20705 18.6284
0.829975 -0.388719 19.3169
-2.28294 1.38803 16.8726
-2.59823 0.698508 9.64411
-1.97651 0.365483 19.9734
-2.42646 0.879286 13.8557
-1.75132 0.238272 20.2725
0.639695 0.608908 19.0099
0.907493 0.106907 19.1855
-2.64445 0.0988862 9.39854
-0.0700921 -1.64755 4.03331
-2.07592 -0.718386 17.614
-0.450422 -1.11112 7.52989
-1.86499 -0.400036 18.0927
0.685614 1.11976 19.4475
0.515715 0.48645 19.6424
1.36093 1.80477 20.1556
1.09184 1.00726 19.9444
1.83111 2.02642 21.8203
1.59341 1.05906 20.7704
0.955724 0.149312 21.2616
1.01577 0.269621 21.7093
0.42165 -0.497283 15.533
0.570565 -0.514544 21.6754
0.235475 -1.23796 14.354
-0.0469777 -1.07595 20.4542
-0.3034 -1.1175 19.5206
0.973572 -0.554846 19.9377
0.679733 -0.2936 19.7503
0.874038 -0.696417 20.9983
1.4353 -0.766672 20.3932
0.209545 -0.427417 21.2455
0.524397 -0.582393 21.1956
-0.352145 -0.183511 21.4741
0.0375929 -0.388857 21.3943
-0.935994 0.0527668 21.2255
-0.845821 -0.133824 21.4112
-1.03176 0.113356 20.849
-1.20701 0.031166 21.0261
-1.21912 0.0197504 20.4451
1.23866 -0.443127 19.7911
0.789509 -0.110043 19.601
1.17656 -0.714021 21.0582
1.90441 -0.336633 20.2543
0.311442 -0.559785 21.3029
0.92017 -0.658566 21.1967
-0.397828 -0.317601 21.5985
0.240003 -0.516531 21.5072
-1.14857 -0.166035 21.2791
-0.93903 -0.500203 21.505
-1.16366 -0.115362 21.0327
-1.31334 -0.309889 21.1229
-1.39213 -0.348167 20.3766
1.33293 0.112102 19.6884
0.678604 0.239083 19.687
1.57563 -0.195445 20.8414
1.42242 0.485039 20.1023
0.86029 -0.569532 21.3727
1.43049 0.0687379 20.9585
-0.207272 -0.646501 21.6817
0.72543 -0.346794 21.5343
-1.11675 -0.749113 21.3032
-0.134398 -0.915441 21.5774
-1.34201 -0.522419 20.8166
-0.731405 -1.01057 21.1416
-0.789591 -0.97382 20.6011
0.74063 0.464278 19.8955
1.12363 0.57397 20.4611
1.11702 0.305422 21.2104
0.460223 -0.268791 21.4455
-0.0211036 -0.705442 21.375
-0.333491 -0.795778 20.9028
-1.1424 -0.540908 19.8681
-1.67467 -2.05572 18.379
-1.28557 -1.12074 19.5518
-1.82986 -0.948875 19.1153
-0.765898 -0.478653 19.4257
-2.30499 -1.8189 20.54
-0.996326 -0.772982 21.1018
0.14599 -0.420922 16.6626
-0.803929 -1.11735 21.5145
-1.16133 -1.39987 21.6959
-0.00990247 -0.657809 21.2407
-0.139693 -0.529889 21.3536
0.550715 0.0676591 11.916
0.128791 -0.37146 21.165
0.304768 -0.582508 18.2566
0.40226 -0.660098 19.2851
0.615171 -0.126322 21.7049
0.361155 0.556116 10.413
0.779498 0.389962 20.6207
0.659174 0.485302 14.6043
1.39507 1.02232 18.4488
1.34812 0.30768 21.2139
0.957264 1.69506 14.1431
1.39295 1.17493 20.2042
1.96244 0.947253 17.4538
1.827 1.14602 19.6463
1.24191 0.347497 20.7897
1.41191 1.98176 17.8099
1.45318 0.922289 19.933
1.99565 0.960476 18.4723
1.48538 0.970745 19.8018
-1.36032 -0.212895 19.7201
-2.67121 -0.437731 16.6435
-1.98417 0.357172 18.8931
-0.900698 -0.153759 19.1926
-3.8352 -0.769387 20.1618
-1.45018 -0.56578 21.0146
-2.51962 -0.355069 21.226
-0.741175 -1.39849 20.2779
-0.535351 -0.713609 21.4138
-1.12883 -1.31491 21.03
-0.528273 -0.355852 17.9218
0.512199 -0.514452 21.7848
0.8105 -0.396072 18.3307
1.62821 -0.00922433 13.3962
1.41971 -0.32956 21.1718
1.71609 0.153749 4.54473
1.75984 -0.758511 16.3436
2.43659 0.234225 17.0062
1.44785 -0.240699 20.837
2.46378 1.35199 11.3643
2.25565 -0.655436 18.1561
1.98281 0.130557 18.3082
-0.996945 0.339909 19.8438
-1.31088 1.37058 18.8154
-0.807205 0.687143 19.7602
-0.752854 0.390817 19.4228
-1.935 1.04467 19.8573
-1.39579 0.245559 20.6049
-2.826 1.87809 20.2781
-1.31741 0.892743 20.4033
-2.17476 0.257469 20.9617
-1.0357 -0.175272 21.2731
-3.71834 0.520797 21.616
-1.32475 0.49685 21.3198
-1.05215 -0.399577 21.7941
-0.188899 -0.522363 21.4793
-0.0670255 -0.0303284 11.3925
-0.513345 -0.273721 21.4848
-0.00774352 -1.14321 20.5015
0.472407 -0.824663 21.3417
0.0237315 -0.703206 8.12799
-0.00785488 -0.733982 21.3894
0.842409 -1.28111 20.288
0.823782 -0.74882 21.1066
1.18985 -1.35621 11.641
0.343351 -0.910298 20.864
0.858856 -1.2029 19.9452
1.68755 -2.00241 18.4136
0.0394151 -2.80918 18.3355
0.00598317 -3.11635 15.8688
0.00880573 -0.930699 18.532
0.022126 -7.01513 23.0341
-0.138376 -0.736472 17.4538
0.0540639 -1.45871 21.713
-0.0336428 0.0135743 9.05368
-0.464751 -0.10365 14.0278
-0.030769 -0.152984 16.0057
-0.123187 0.00742611 8.30708
-0.278039 0.504254 11.3312
-0.108476 0.486235 13.0438
0.0627007 0.681617 5.84805
-1.77503 1.36143 14.1597
-0.0876056 1.3801 13.7956
0.0236287 0.447828 4.23311
-0.126486 1.80185 11.9793
-1.99279 1.40172 18.3076
-0.333001 1.97285 16.3452
-0.321532 2.28357 11.5557
-0.520104 2.02482 15.759
2.66017 -0.432847 16.6443
-0.00961625 2.29528 15.1172
-0.00116248 -0.243401 17.9555
-1.61811 -0.25005 5.41376
-0.000770677 0.23247 -1.51037
-0.112699 1.16749 2.02503
-2.61327 0.888545 12.452
-0.0146912 1.55053 0.755304
-0.254401 2.05722 7.04125
1.27402 1.4459 18.6938
-0.0596236 1.4462 19.2054
-0.0196019 0.828067 18.6483
-0.0721563 4.03951 18.5581
2.79754 2.18992 20.2047
-0.122814 2.6315 19.8773
-0.263998 5.51115 17.9965
3.83127 0.649407 19.2048
-0.423537 3.79165 22.2149
-0.0733201 0.190382 0.135493
0.245591 -0.306243 4.4815
-0.381647 0.758759 15.5944
-0.219627 0.74724 -3.52675
0.52542 -0.752936 2.35668
-0.200623 0.0539204 6.80126
-0.0129164 2.33856 -4.16614
-0.587009 -1.55113 5.9397
-0.124499 -0.0859458 3.88683
0.480312 2.57535 -2.83651
1.11664 -0.511401 19.8776
1.25932 -1.03684 19.5844
1.82476 -0.934062 19.1097
0.764395 -0.472675 19.4383
2.27115 -1.73584 20.4982
1.00834 -0.711241 21.0318
0.900731 -1.05907 21.3893
1.31517 -1.32115 21.7482
0.220806 -0.720606 21.4391
0.246272 -0.495386 21.2754
0.0121496 -0.485709 21.3571
-0.0214485 -0.77353 20.8517
-0.0698754 -0.575668 21.5073
-0.383309 -0.245312 21.54
-0.662518 -0.043863 21.6579
-0.787344 -0.223711 20.5756
-1.47521 0.180488 20.3898
-1.05667 -0.0611207 21.2382
-1.42808 0.426606 21.1818
-1.90841 0.152527 20.0268
-1.73216 0.475504 20.5397
-1.10905 -0.0196037 21.0094
-1.32505 0.478636 20.7359
-1.81677 0.342396 19.8603
-1.6566 0.487431 20.5129
1.381 -0.207185 19.6897
2.00686 0.383596 18.8374
0.898211 -0.14814 19.1809
3.87423 -0.75892 20.1278
1.45366 -0.535763 20.9928
2.56597 -0.338705 21.2425
0.865893 -1.33053 20.8284
0.545081 -0.637485 21.356
1.14936 -1.31257 20.9867
0.36691 -0.652922 20.0445
-0.351609 -0.488557 21.6679
-0.775937 -0.479683 18.6125
-1.6273 -0.309462 17.0576
-1.19477 -0.451961 21.3542
-1.69903 -0.828234 16.5312
-2.19556 -0.149827 19.1503
-1.29412 -0.313171 20.9126
-2.17381 -0.743564 17.7753
-1.94156 -0.248619 19.7939
1.04123 0.380074 19.7739
0.808586 0.78007 19.7011
0.745857 0.413938 19.391
1.98959 1.19159 19.8061
1.51621 0.30627 20.6044
1.36005 1.08155 20.3584
2.48448 0.383418 20.924
1.20191 -0.159407 21.3277
1.57744 0.831923 21.4535
1.29166 -0.393678 21.7982
0.252535 -0.630104 21.5851
0.742329 -0.183956 21.7138
0.0749209 -0.814075 16.7046
-0.427994 -1.02109 21.4674
0.27899 -0.81286 21.1826
-0.84701 -1.19216 17.1782
-0.842005 -0.869006 20.6971
-0.234029 -1.25642 20.0969
-0.886201 -1.15773 18.2104
-1.56121 -1.09042 19.3501
-0.975559 -1.26316 21.7244
0.258847 -0.473437 20.1427
0.885635 0.349545 18.5966
1.69353 1.11048 19.3804
1.73213 0.94665 19.1955
-2.13164 -0.320782 18.8735
-2.10852 -1.20932 21.6376
-0.188117 -1.08379 18.7478
0.85819 0.0384966 16.3917
2.10504 0.0584564 15.4633
2.22183 0.407635 18.4988
-1.34118 0.761806 19.4258
-2.10154 0.648846 20.5613
-1.87524 -0.119992 21.6181
-0.439771 -0.848898 21.3367
0.400271 -1.24166 20.5541
1.01671 -1.13917 19.7024
0.0283204 -3.16675 17.2997
0.0102538 -0.393346 12.2823
-0.0930033 0.025335 8.17939
-0.0298295 0.417538 6.38469
0.0111407 1.01024 8.78499
-0.382381 2.21026 14.4403
-0.00181559 -0.369314 14.2751
-0.0305614 -0.145626 0.0799837
-0.162344 2.08285 5.67579
-0.047642 2.1342 18.0455
-0.135575 4.19502 19.5954
-0.0828888 1.00784 5.32386
-0.0981062 0.635904 -2.04
-0.237992 0.754798 -4.72373
0.39082 2.66649 -4.61296
1.54083 -1.04069 19.3747
1.07594 -1.18186 21.555
-0.000998437 -0.612193 21.4275
-0.751186 -0.139385 21.3597
-1.69386 0.304057 20.6352
-1.45813 0.40505 20.4953
2.14073 -0.317375 18.8374
2.14587 -1.15444 21.6249
0.343067 -1.09942 20.1094
-0.766516 -0.336264 19.39
-1.98102 -0.310433 18.3382
-2.08417 -0.0549638 19.4822
1.34363 0.817724 19.3732
2.24003 0.807286 20.5243
2.29678 -0.04017 21.7742
0.589494 -0.81834 20.2685
-0.341614 -1.04138 16.6852
-1.23607 -1.31754 17.7129
0 0 0
-0.0123284 -0.157774 0.983641
0.0751076 -0.0682794 0.725406
0 0 0
0.00698741 0.0562668 0.158761
-0.0223709 0.016832 0.378024
-2.53714 0.0694349 2.773
0.000397571 0.0595455 0.113734
-0.295584 -0.0203797 1.27613
0 0 0
-0.00422048 -0.00233297 0.000778971
-0.0201613 -0.0838302 0.114636
0.0108358 -0.158201 0.984034
4.57285e-17 -2.64912e-17 1.00716e-16
-0.0602182 -0.0459687 0.653247
0 0 0
-0.102162 -0.0924723 0.354406
0 0 0
-0.000469403 0.0598935 0.114313
2.35272 0.0682877 2.56407
0.295401 -0.0197932 1.27843
0.003191 -0.00162582 0.000667557
-0.0110628 -0.0173066 0.0266675
0.018602 -0.0777512 0.107485
0.00815492 -0.00068147 0.20132
0.00708747 0.000999184 0.0817821
0.00159556 -0.00243929 0.0432493
0.000286298 2.81778e-05 0.00397258
4.78635e-05 6.56369e-05 0.00315139
0.00677361 7.84005e-05 0.0662937
-0.15753 -0.382886 1.76078
0 0 0
-0.34302 -0.280342 0.945874
-0.00219262 -0.015557 0.0855906
0.00184191 0.0112284 0.574681
0 0 0
0.0100589 0.00617097 0.152325
0 0 0
0.100355 0.232624 0.488762
0.00368209 -0.00650406 0.044446
-0.0246177 -0.0210658 0.874659
-0.000215005 2.21381e-05 0.00245066
-0.00259659 -0.00143994 0.0663452
-0.000794989 -0.00106179 0.0165731
0.00126999 0.0108028 0.208691
0 0 0
-0.0293533 -0.0292392 0.573625
0.150014 -0.0323788 0.484291
0.342816 -0.280392 0.942298
0 0 0
0.00217301 -0.0151094 0.0833292
-0.00221918 0.0123123 0.57222
-0.00964532 0.00661076 0.162428
-0.00369533 -0.00647541 0.0442493
-0.00238627 0.0774853 0.130832
-0.109954 0.235302 0.506169
-0.131915 -0.0421788 0.470437
-0.156571 0.0144406 0.16195
-3.28252e-09 -1.4172e-06 0.000227802
0 0 0
-0.00574939 -0.0172929 0.233695
0 0 0
0.00604059 -0.00500652 0.0322845
-0.010871 -0.0900504 0.0189207
1.53152e-06 3.00948e-06 0.000103449
0.010202 -0.0746328 0.00734694
0 0 0
0 0 0
0 0 0
0 0 0
-0.0858225 -0.0984784 0.664876
-0.0192203 0.0217752 0.0910524
2.70017e-05 -0.00030864 7.45367e-05
0 0 0
0.224628 -0.00669399 1.36908
0 0 0
0.168488 0.0139798 0.170765
0.118962 -0.0352083 0.423753
2.21875e-06 -8.84666e-08 -1.71911e-05
0.00647202 -0.0184284 0.253738
0.0627867 -0.167394 0.0876347
-0.0149657 -0.0569275 0.138368
0 0 0
-0.00215822 0.0054405 0.0669688
0.0200001 0.0226317 0.0945755
0.13347 -0.142637 0.931055
0 0 0
-0.105101 -0.0181873 0.64604
-0.000117399 0.000405646 0.0413794
0.000516122 3.9169e-05 0.00860553
0.0159802 -0.038122 0.33776
0 0 0
1.19297e-07 2.97324e-07 3.11742e-05
0 0 0
-0.00118448 0.00858383 0.0492554
0 0 0
-3.70063e-07 3.25974e-08 2.50555e-05
4.06702e-07 -1.25604e-06 -4.39124e-05
0.00150837 0.0219286 0.101046
-0.0375808 0.00908385 0.389909
2.34307e-06 0.00149275 0.0151095
-9.7855e-06 0.0330933 0.054386
0 0 0
2.51835e-05 0.00172626 -0.00589295
-0.0010753 9.76746e-05 0.0132995
0.000117072 0.000998682 0.014215
-0.0176397 -0.0456075 0.349597
0 0 0
0.00139906 0.0107231 0.0589415
0 0 0
0.037385 0.00889674 0.387413
-0.00119481 0.0187989 0.102647
-0.0924854 -0.132973 0.827157
0 0 0
0.014106 -0.0127898 0.309825
-1.4644e-18 6.41454e-17 -1.79726e-16
7.08533e-05 -0.000101542 0.0925189
-0.000207479 0.00146967 0.0872745
0.00146317 -0.00280353 0.0706118
0.00139016 0.019802 0.0576982
0.00104382 0.00900225 0.177413
0 0 0
0.0034894 0.000502484 0.0173218
0.000111111 -0.000955641 0.00121262
0 0 0
1.47559e-06 1.30612e-07 -1.98413e-05
0 0 0
4.77085e-06 -5.80472e-07 -5.57399e-05
8.22482e-06 6.88701e-07 0.000129708
-8.96448e-05 7.46462e-06 0.00107969
0 0 0
-0.00130181 7.86305e-05 0.0143129
0 0 0
2.63364e-06 -8.51949e-07 -7.77413e-05
0 0 0