# vtk DataFile Version 2.0
tri_press
ASCII
DATASET UNSTRUCTURED_GRID
POINTS 3682 float
-0.725 0.225 -2.18023
-0.761645 0.435 2.245
-0.743129 0.745 -2.145
-0.725 1.005 2.18499
0.725 0.225 -2.18019
0.7619 0.435 2.245
0.743129 0.745 -2.145
0.715 1.0247 2.175
-0.806211 0.226004 -0.705153
-0.826574 0.287856 0.769923
-0.827662 0.922243 -0.70167
-0.807922 0.995212 0.74166
0.806303 0.225997 -0.705127
0.826755 0.287845 0.769937
0.823641 0.928121 -0.705
0.80166 1.00875 0.735
-1.52207 -0.178938 -3.34426
-1.52832 -0.114109 -2.17781
-1.58706 -0.0958948 -0.70159
-1.60694 -0.0439769 0.781604
-1.56864 0.0725098 2.25842
-1.55738 0.149314 3.42779
-1.56272 0.210806 4.59188
-1.5199 0.128936 -3.33883
-1.52573 0.213195 -2.17597
-1.60004 0.242262 -0.706
-1.60951 0.288018 0.767288
-1.54633 0.393431 2.23788
-1.5437 0.468915 3.40645
-1.55728 0.531619 4.57141
-1.52914 0.710275 -3.31824
-1.54108 0.793773 -2.15374
-1.61447 0.920339 -0.705469
-1.59892 0.977307 0.740944
-1.52378 1.01035 2.18961
-1.53429 1.08795 3.35794
-1.557 1.16395 4.52718
-1.55388 1.66868 -3.3121
-1.56594 1.76282 -2.15246
-1.59574 1.8952 -0.715699
-1.60662 1.98503 0.714164
-1.59335 2.03516 2.1509
-1.58624 2.08332 3.3105
-1.58837 2.14494 4.47668
-0.746679 -0.173286 -3.34706
-0.736224 -0.106146 -2.18168
-0.786812 -0.103937 -0.702145
-0.814319 -0.0445157 0.784459
-0.789181 0.0959523 2.26416
-0.781556 0.167031 3.43092
-0.786286 0.221887 4.59284
-0.746739 0.129162 -3.34014
-0.773028 0.487473 3.40812
-0.783949 0.542365 4.57139
-0.753657 0.691151 -3.31484
-0.766684 1.09388 3.35439
-0.786399 1.17013 4.52447
-0.767466 1.65824 -3.30911
-0.772516 1.75425 -2.14928
-0.798811 1.89821 -0.714728
-0.817583 1.99346 0.711613
-0.815185 2.03987 2.14606
-0.810788 2.08637 3.30563
-0.812128 2.14819 4.47257
0.767633 -0.17194 -3.34776
0.772275 -0.105417 -2.18204
0.812862 -0.103066 -0.702573
0.81255 -0.0433785 0.783893
0.769633 0.0976448 2.2633
0.763604 0.171793 3.42851
0.763026 0.22832 4.58959
0.752346 0.130208 -3.34067
0.753621 0.49354 3.40505
0.756406 0.549744 4.56766
0.757072 0.692446 -3.31553
0.73434 1.10615 3.34818
0.744807 1.17983 4.51957
0.79268 1.66181 -3.311
0.800613 1.75853 -2.15154
0.796194 1.90468 -0.718085
0.768658 2.00284 0.706862
0.741852 2.05101 2.14044
0.736622 2.0972 3.30017
0.737651 2.15804 4.4676
1.53782 -0.17535 -3.34612
1.54609 -0.110968 -2.17944
1.60172 -0.0915922 -0.703782
1.61236 -0.0378185 0.778516
1.56542 0.0805019 2.25439
1.54724 0.160405 3.42219
1.54383 0.223921 4.58525
1.52124 0.132202 -3.34054
1.52039 0.216185 -2.17756
1.59787 0.247404 -0.708655
1.61485 0.29642 0.763093
1.55268 0.404217 2.23243
1.53399 0.482504 3.39958
1.5347 0.546402 4.56394
1.52722 0.714195 -3.32033
1.53316 0.798094 -2.15609
1.60602 0.930748 -0.711014
1.59499 0.996588 0.731317
1.51858 1.03531 2.17701
1.51132 1.10954 3.34703
1.52036 1.18252 4.51779
1.57216 1.67618 -3.31604
1.58326 1.77169 -2.15713
1.58853 1.90791 -0.722281
1.56417 2.00274 0.705186
1.53023 2.05595 2.14042
1.51871 2.10385 3.30014
1.5177 2.16399 4.46706
-0.804617 0.485 -2.23317
0 0.212573 -2.19264
-0.796648 0.19446 -1.44269
-0.743492 0.72 2.21516
0.000127494 0.389185 2.29081
-0.862732 0.292806 1.50746
0 0.785937 -2.18594
-0.808265 0.856491 -1.42334
-0.00500003 1.04458 2.20972
-0.797748 1.03139 1.46333
0.804451 0.485 -2.23298
0.796453 0.194697 -1.44266
0.744642 0.72985 2.21619
0.862879 0.292871 1.50747
0.806756 0.859931 -1.425
0.789957 1.04835 1.455
-0.815563 0.25776 0.032385
-0.869519 0.574123 -0.703412
4.60674e-05 0.205828 -0.70514
-0.880329 0.641534 0.755792
9.06518e-05 0.218193 0.76993
-0.818603 0.959539 0.019995
-0.00201068 1.23159 -0.703335
-0.00313112 1.46358 0.73833
0.815653 0.257797 0.0324049
0.869333 0.577059 -0.705064
0.880452 0.648297 0.752468
0.811911 0.967696 0.015
-0.872386 0.529562 -1.43301
0.872313 0.53103 -1.43383
2.30337e-05 0.19376 -1.44268
-0.00100534 0.954654 -1.42417
0 0.485 -2.36165
-0.878123 0.607829 0.02619
0.87848 0.612678 0.0237024
6.83596e-05 0.212769 0.0323949
-0.0025709 1.4543 0.0174975
-0.87767 0.680767 1.48539
0.877684 0.689074 1.48123
0.000109073 0.254874 1.50746
-0.00406557 1.25999 1.45916
-0.00243627 0.724925 2.27143
-0.768567 0.355 -2.21046
-0.3625 0.212688 -2.19253
-0.774239 0.196315 -1.81146
-0.790625 0.5775 2.26814
-0.380759 0.395287 2.28471
-0.809976 0.366116 1.87623
-0.763322 0.615 -2.17853
-0.371565 0.779173 -2.17917
-0.787903 0.812951 -1.78417
-0.743557 0.8625 2.20939
-0.365 1.03578 2.20835
-0.768394 1.02522 1.82416
0.3625 0.212688 -2.19251
0.768585 0.355 -2.21045
0.774308 0.196267 -1.81142
0.381014 0.394924 2.28508
0.788764 0.582425 2.26609
0.811312 0.365013 1.87623
0.371565 0.779007 -2.17901
0.763288 0.615 -2.17849
0.787056 0.81458 -1.785
0.355 1.04191 2.19963
0.7413 0.877275 2.20708
0.754457 1.0385 1.815
-0.811797 0.199864 -1.07392
-0.810901 0.241868 -0.336384
-0.854018 0.391987 -0.704283
-0.409299 0.203484 -0.705147
-0.853122 0.281861 1.13869
-0.820608 0.273268 0.401154
-0.867048 0.457897 0.762858
-0.43111 0.217288 0.769927
-0.822806 0.894209 -1.0625
-0.871407 0.759591 -0.702541
-0.823797 0.941555 -0.340838
-0.479409 1.20606 -0.702503
-0.79801 1.00848 1.10249
-0.871724 0.832172 0.748726
-0.811654 0.975767 0.380828
-0.514206 1.44675 0.739995
0.811666 0.200059 -1.07389
0.409397 0.203468 -0.705134
0.811076 0.241799 -0.336361
0.853442 0.393716 -0.705095
0.853136 0.282039 1.1387
0.432539 0.214787 0.769933
0.821062 0.272963 0.401171
0.867884 0.460931 0.761203
0.820182 0.89901 -1.065
0.474245 1.20672 -0.704168
0.869766 0.76423 -0.705032
0.817917 0.94805 -0.345
0.79604 1.02878 1.095
0.505227 1.44809 0.736665
0.868976 0.842484 0.743734
0.805886 0.987324 0.375
-0.852316 0.507281 -1.83309
-0.402309 0.485 -2.35038
1.15169e-05 0.201278 -1.81766
0 0.348787 -2.28691
-0.86492 0.362011 -1.43785
-0.398312 0.193448 -1.44268
-0.841656 0.700384 1.85028
-0.372964 0.722463 2.2623
0.000118284 0.304722 1.89914
-0.00115439 0.557055 2.35779
-0.866365 0.486786 1.49643
-0.431311 0.254881 1.50746
-0.000502671 0.889887 -1.80505
0 0.635469 -2.27166
-0.884055 0.693026 -1.42817
-0.404635 0.949421 -1.42375
-0.0045328 1.08089 1.83444
-0.00371815 0.884752 2.21751
-0.853255 0.85608 1.47436
-0.400907 1.24202 1.46124
0.852109 0.508015 -1.83341
0.402226 0.485 -2.3498
0.864906 0.362863 -1.43824
0.398238 0.194794 -1.44267
0.843476 0.709462 1.84871
0.371103 0.727388 2.2622
0.869423 0.490973 1.49435
0.431494 0.254719 1.50747
0.883993 0.695481 -1.42941
0.402875 0.947501 -1.42458
0.850842 0.868713 1.46812
0.392946 1.2435 1.45708
-0.861643 0.425394 0.0292875
-0.420187 0.210385 0.03239
-0.877705 0.551843 -1.06821
-0.873582 0.590976 -0.338611
3.45506e-05 0.191989 -1.07391
5.72135e-05 0.21319 -0.336373
-0.879868 0.624681 0.390991
-0.894228 0.661151 1.12059
7.95057e-05 0.219692 0.401163
9.98624e-05 0.223876 1.1387
-0.877202 0.798103 0.0230925
-0.524783 1.43531 0.0187462
-0.00150801 1.00247 -1.06375
-0.00229079 1.43118 -0.342919
-0.00285101 1.46383 0.377914
-0.00359834 1.44787 1.09875
0.861538 0.428002 0.0280537
0.42042 0.210164 0.0323999
0.880039 0.554044 -1.06945
0.873811 0.594869 -0.340681
0.880141 0.630488 0.388085
0.893668 0.668686 1.11685
0.876152 0.805666 0.0193512
0.517553 1.43676 0.0162487
-0.833644 0.358505 -1.82228
-0.88045 0.381037 -1.07107
-0.871743 0.720605 -1.06536
-0.831917 0.654013 -1.80863
0.836458 0.358932 -1.82241
0.832037 0.65524 -1.8092
0.870803 0.724035 -1.06722
0.879972 0.382196 -1.07167
-0.380406 0.20085 -1.81456
0.380369 0.200236 -1.81454
0.400706 0.193453 -1.0739
-0.400697 0.191981 -1.07392
-0.3881 0.886941 -1.79461
-0.409736 0.984607 -1.06313
0.406845 0.984148 -1.06438
0.38722 0.886847 -1.79503
-0.382404 0.351893 -2.30368
-0.386937 0.625234 -2.24079
0.386895 0.625234 -2.24077
0.382363 0.351893 -2.30386
-0.858623 0.408294 -0.337498
-0.864198 0.441719 0.396073
-0.875922 0.815867 0.385909
-0.874239 0.778814 -0.339724
0.857102 0.411053 -0.338521
0.872681 0.784809 -0.34284
0.873508 0.824547 0.381543
0.864994 0.444325 0.394628
-0.412917 0.210587 -0.336378
0.412943 0.210747 -0.336367
0.42538 0.214675 0.401167
-0.42527 0.214594 0.401158
-0.545153 1.4068 -0.341878
-0.521432 1.44491 0.379371
0.513313 1.44627 0.376457
0.538679 1.4073 -0.343959
-0.877495 0.475741 1.12964
-0.857227 0.532143 1.86325
-0.829683 0.85929 1.83722
-0.871343 0.837227 1.11154
0.879029 0.479522 1.12778
0.869048 0.848618 1.10593
0.826432 0.872994 1.83186
0.855993 0.536699 1.86247
-0.422277 0.223876 1.1387
0.422458 0.224424 1.1387
0.406254 0.302613 1.88769
-0.406035 0.302458 1.88769
-0.403217 1.4387 1.10062
-0.382954 1.07679 1.8293
0.373973 1.07652 1.82472
0.396105 1.43941 1.09687
-0.376861 0.567278 2.34636
0.376058 0.56974 2.34554
0.363051 0.881014 2.25793
-0.368982 0.873626 2.25778
-0.742766 0.29 -2.19133
-0.54375 0.213044 -2.19218
-0.757863 0.202414 -1.99585
-0.792412 0.50625 2.27285
-0.571202 0.403006 2.27699
-0.795654 0.390714 2.06062
-0.75389 0.68 -2.16243
-0.557347 0.764279 -2.16428
-0.774915 0.788375 -1.96458
-0.734332 0.93375 2.19724
-0.545 1.02727 2.20354
-0.750925 1.01934 2.00457
0.54375 0.213043 -2.19215
0.742753 0.29 -2.19128
0.758059 0.202229 -1.99581
0.571457 0.403008 2.27699
0.792367 0.508713 2.27258
0.796781 0.389831 2.06062
0.557347 0.764322 -2.16432
0.75387 0.68 -2.16241
0.774314 0.789011 -1.965
0.535 1.03839 2.1924
0.732114 0.950988 2.195
0.737889 1.03476 1.995
-0.804052 0.217886 -0.889538
-0.811443 0.231049 -0.520769
-0.829658 0.309224 -0.704718
-0.613042 0.204169 -0.70515
-0.854905 0.269801 0.954308
-0.823598 0.280556 0.585539
-0.849079 0.371743 0.766391
-0.646292 0.217672 0.769925
-0.829427 0.912419 -0.882086
-0.851383 0.841841 -0.702106
-0.825542 0.931711 -0.521254
-0.696714 1.15051 -0.702086
-0.804465 1.00334 0.922076
-0.847139 0.91735 0.745193
-0.810052 0.985753 0.561244
-0.689387 1.27763 0.740828
0.804259 0.217753 -0.88951
0.613131 0.20417 -0.70513
0.811802 0.230785 -0.520744
0.829958 0.309814 -0.705111
0.854632 0.270256 0.95432
0.647507 0.215595 0.769935
0.824008 0.280305 0.585554
0.84947 0.373313 0.76557
0.827147 0.918801 -0.885
0.690381 1.1503 -0.704584
0.850259 0.847953 -0.705016
0.820563 0.93787 -0.525
[...]
POINT_DATA 3682
SCALARS point_scalars float 1
LOOKUP_TABLE default
-90.32
-46.8711
-72.4025
-40.5834
-90.2463
-46.6566
-72.4043
-39.4308
-38.8231
-36.0479
-66.7816
-46.7727
-38.758
-36.1616
-67.2675
-46.4374
19.2992
-72.564
-38.9748
-46.1969
-47.5172
-44.8967
-41.812
6.17805
-92.1373
-41.167
-46.1969
-47.3301
-45.2236
-41.812
42.7334
-96.9149
-52.1331
-43.7084
-44.0204
-41.8025
-40.2707
-69.808
-59.4912
-108.366
-52.0049
-40.1508
-41.4373
-41.4373
86.7505
-139.301
-39.7038
-41.7112
-47.3717
-41.1236
-40.3515
152.663
-40.3168
-39.7105
171.764
-38.2743
-39.1682
-52.1711
-57.0824
-105.948
-52.4889
-36.8361
-37.7467
-36.8236
86.3004
-121.785
-39.6743
-42.4628
-47.1951
-40.9591
-40.1901
151.199
-40.1996
-39.5586
171.656
-37.329
-38.8298
-55.0196
-56.5716
-107.088
-53.0198
-36.5729
-36.1609
-35.6712
19.1248
-72.2023
-38.8644
-46.0103
-47.3017
-44.6725
-41.6244
9.58953
-93.0601
-41.3052
-44.5193
-47.1345
-44.8474
-41.6244
42.8725
-100.028
-53.1251
-43.6107
-43.5526
-41.4647
-39.8952
-69.7943
-59.6123
-112.153
-52.7495
-39.6112
-39.1165
-39.1165
-59.8402
-221.807
-55.6812
-42.4937
-42.3673
-47.8945
-63.1978
-38.5879
-33.7165
-45.568
-59.9374
-55.6647
-42.2669
-47.434
-38.3582
-45.1512
-37.306
-44.628
-43.2121
-41.1952
-42.3717
-54.048
19.7331
-58.1219
-37.2666
-44.5456
-41.0862
-54.0464
-50.4972
-50.5693
-62.1593
-1.71538
202.604
-43.0945
-42.9399
-38.9553
-87.802
-46.4087
-46.2417
-48.4536
-38.2352
-36.1098
-97.0234
-208.266
-66.8514
-43.6707
-43.0697
-46.61
-66.0899
-72.1893
-47.8115
-42.0102
-34.8983
-39.8489
-208.652
-96.7665
-67.0418
-42.945
-43.1107
-47.0419
-74.5719
-66.1743
-47.4265
-34.7222
-41.4924
-39.3433
-52.0464
-36.8308
-40.5424
-42.2718
-44.5
-37.7584
-38.2106
-42.0422
-42.0806
-51.7591
-60.4071
7.5887
-44.7915
-43.7712
-49.0747
-54.2002
-51.8534
-42.3032
-36.9248
-40.5625
-44.4515
-42.3942
-37.6871
-38.2799
-41.5986
8.95117
-51.9184
-61.596
-45.1979
-54.9148
-43.5801
-49.8879
-56.9311
197.734
-85.1689
84.122
-50.2833
-59.8787
-45.3392
-38.2376
-46.9699
-39.1221
-46.7032
-48.3385
-28.2418
175.977
-48.7694
-8.60518
-35.9887
-35.4786
-44.8405
-39.2462
-56.8604
198.336
-50.3817
-59.9809
-45.1598
-37.9704
-46.8093
-48.2999
-48.7247
-8.35355
-44.5877
-39.2497
-39.7607
-38.4831
-46.759
-43.6487
-51.462
-39.1823
-41.6118
-46.0754
-39.3876
-48.7733
-45.3583
-77.5751
23.0606
-124.388
-68.5712
-50.2288
-39.6541
-38.4102
-47.4712
-43.8127
-41.5001
-45.8772
-45.7824
-78.4385
-53.8032
-53.5588
-46.044
-54.3529
-53.9945
-54.2696
-46.3092
-53.4349
-81.108
-81.1692
-50.3861
-50.418
-30.993
15.0072
15.157
-30.9836
126.77
164.153
163.599
126.316
-39.7626
-39.2995
-45.0862
-50.7551
-39.6916
-50.9158
-45.2392
-39.225
-38.3703
-38.3756
-38.963
-39.0245
-117.332
-62.0165
-62.1447
-118.916
-45.694
-45.287
-43.9518
-45.2007
-45.7167
-48.0163
-43.67
-45.4167
-48.2184
-48.1027
-47.6062
-47.6706
-53.0047
-36.6602
-36.5922
-53.0129
-39.1539
-38.9237
-35.5092
-36.0998
-84.2573
-163.798
-84.704
-45.8897
-44.1928
-46.7396
-59.849
-55.4294
-68.4847
-41.3165
-36.5927
-39.97
-163.815
-84.0236
-84.2289
-44.0059
-45.5366
-46.6194
-54.9891
-59.493
-68.7477
-36.1367
-41.159
-38.9798
-40.7797
-38.3259
-39.1338
-41.0155
-45.4466
-37.7279
-36.9685
-41.9974
-61.4946
-57.6346
-63.3798
-66.8887
-47.0458
-45.1024
-47.5305
-50.2454
-40.8783
-41.0206
-38.2925
-39.0712
-45.2703
-42.5066
-37.5477
-36.9763
-59.9427
-61.7138
-57.9653
-64.2705
-46.923
-50.5207
-45.0436
-47.8867
-71.7015
-61.8995
-85.4541
169.99
-222.232
-222.102
-115.156
80.141
-62.2787
-51.0199
-51.0794
-57.1495
-41.6406
-42.5434
-45.7155
-38.9241
-42.5051
-42.448
-44.8394
-40.5662
-51.8256
-44.1181
-47.4014
-47.6776
-81.3785
-79.7556
-45.486
108.291
-38.8234
-37.2475
-43.7289
-17.9468
-34.1403
-33.6381
-36.1422
-30.9588
-41.2514
-48.2186
-44.476
-41.4098
-72.0337
-61.437
-85.7077
169.916
-62.3599
-51.0004
-51.242
-57.2943
-41.5939
-42.1382
-45.5141
-38.7113
-51.1009
-44.0672
-47.2238
-47.6322
-38.6069
-36.4868
-43.9643
-17.8102
-40.8044
-48.2908
-44.3015
-41.3701
-36.8218
-37.6352
-38.4942
-37.694
-42.433
-47.2414
-45.0504
-44.3033
-42.9728
-42.9759
-47.0295
-40.7926
-40.0286
-42.3276
-41.0956
-41.7162
-42.1605
-42.4558
-40.6269
-47.0804
-57.0234
-52.4974
-49.035
-64.864
19.39
19.4917
35.5753
-27.1449
-57.556
-57.6918
-62.5194
-54.7876
-36.7221
-37.6171
-38.436
-37.6693
-42.4119
-47.2673
-45.1378
-44.4413
-39.9361
-42.2254
-41.049
-41.8727
-57.5288
-53.0457
-49.6179
-65.0489
-51.4597
-50.7259
-50.8306
-48.6568
-51.5766
-50.8812
-51.1117
-48.7528
-71.1524
-61.5581
-61.5468
-56.1776
-15.0154
-3.17621
-3.15581
10.9463
200.641
167.945
176.267
201.678
-41.1953
-43.4538
-42.7239
-44.6588
-41.1988
-43.8405
-42.3901
-44.6261
-38.8217
-38.7564
-39.1702
-38.8133
-85.4835
-107.809
-75.6226
-85.9915
-45.7147
-46.5296
-45.1714
-45.6013
-45.3806
-46.4999
-45.0729
-45.6719
-48.8066
-48.4338
-48.4143
-48.7092
-35.9677
-38.5233
-38.5217
-42.1129
-36.8094
-36.9115
-35.0053
-36.4221
-77.5735
104.113
-110.281
46.715
-48.4653
-75.229
-46.0747
-39.2769
-45.586
-40.5786
-46.063
-48.2758
-83.4904
131.634
-47.4193
113.956
-52.3162
-36.6091
-43.9442
-38.0624
-36.036
-34.7854
-42.7355
-37.1631
-110.286
48.2994
-77.6927
103.811
-48.7461
-75.3374
-45.5147
-40.4487
-45.8984
-39.0011
-46.1015
-48.2284
-47.5434
114.562
-83.5272
131.783
-52.1719
-36.5866
-35.9375
-33.9926
-43.5733
-37.627
-42.3256
-37.1019
-57.4675
-48.9917
-38.2911
-37.2912
-42.7089
-40.1119
-45.9897
-39.9171
-44.9914
-45.5445
-38.4918
-38.3949
-38.9447
-43.7249
-40.2484
-46.7952
-46.6483
-1.90667
-49.8464
-51.793
-55.1331
-87.939
25.9463
-39.8753
-44.7446
-55.1642
-44.0361
-43.8347
-46.9123
-54.9088
-57.0908
-54.9877
-57.3226
-49.1086
-45.7822
-39.9133
-38.2342
-37.2896
-42.7992
-40.0949
-45.0236
-45.4562
-40.1943
-46.808
-38.4508
-38.3346
-38.9051
-43.5497
-47.0618
-1.38906
26.4621
-36.7707
-49.6575
-52.0535
-55.7096
-89.612
-48.1483
-55.2406
-57.5224
-55.0466
-44.1159
-42.1891
-47.1449
-55.0622
-56.8442
-55.227
170.494
163.296
-84.1074
-84.1592
92.2577
92.3211
-52.9722
-50.7571
-68.2128
-54.5405
-45.0604
-44.7924
-38.106
-37.1186
-47.1607
-47.1934
-39.2727
-39.1542
-45.3902
-45.9987
-48.2216
-49.3499
-28.8013
-28.8102
174.232
174.046
-47.2923
-45.0482
-19.7495
2.96968
-36.1771
-36.1182
-35.7395
-35.944
-43.8651
-46.0305
-43.5545
-37.1907
-56.9661
-55.2218
162.973
171.285
-52.8813
-50.9108
-68.5024
-54.348
-44.5369
-45.2346
-37.9213
-36.705
-45.2544
-45.5864
-48.1865
-49.3072
-44.9182
-47.1196
3.2217
-20.0199
-45.9061
-43.5199
-37.133
-43.5571
-39.7359
-39.6783
-38.0868
-38.6411
-49.6891
-47.1543
-41.3651
-46.4161
-51.1613
-51.1858
-38.9987
-39.0097
-40.4116
-43.1013
-46.0428
-45.2669
-39.2725
-39.2883
-48.7085
-48.6197
-48.1242
-49.071
-97.275
-67.8917
21.7417
21.837
-122.319
-122.305
-67.2444
-67.3555
-50.9346
-50.9066
-39.7331
-39.5762
-38.0942
-38.635
-47.1652
-49.8884
-41.2977
-46.576
-43.1248
-40.2942
-45.8461
-45.47
-49.0477
-48.4035
-67.4913
-97.2305
-76.82
-56.5111
-51.6367
-79.1879
-41.3051
-44.5928
-50.1872
-54.2228
-54.4029
-43.7388
-48.7652
-46.8967
-79.914
-88.0411
-50.4681
-43.2064
-77.0319
-79.2234
-51.679
-56.4648
-80.0944
-43.4427
-50.4399
-88.2619
-54.6676
-47.1207
-48.7341
-43.9436
-41.331
-54.3605
-50.2213
-44.592
-102.965
-114.085
-70.3503
-64.7503
-102.964
-64.9807
-70.4121
-114.108
-44.285
-46.6683
-55.7005
-52.2731
-44.6281
-52.3578
-55.7351
-46.7403
-54.1857
-26.6472
-16.0558
-45.6145
-12.0446
33.3753
9.30387
-9.92462
-11.34
-9.82989
9.39506
33.6546
-54.1417
-45.6655
-16.1333
-26.6779
38.3242
153.559
169.585
88.1874
92.3884
118.904
174.054
127.241
92.7047
127.318
173.815
118.852
38.2443
88.3396
169.692
153.618
-38.7268
-38.3595
-40.9694
-41.8198
-38.2907
-40.0179
-41.0329
-38.5873
-45.5741
-51.187
-44.45
-42.3987
-56.8825
-47.236
-45.3101
-52.8099
-38.6694
-41.7537
-41.124
-38.338
-57.4524
-53.1011
-45.6298
-47.431
-45.769
-42.4203
-44.4328
-51.427
-38.2547
-38.5835
-40.9233
-40.074
-38.7476
-40.5662
-38.5747
-37.3799
-38.7453
-37.3596
-38.5785
-40.5718
-39.5529
-40.4656
-39.0455
-37.9838
-39.669
-38.0136
-39.0541
-40.524
-101.433
-73.2289
-105.39
-25.5608
-51.6182
-61.4408
-73.8226
-59.4639
-51.7433
-59.5625
-73.9708
-61.6039
-107.737
-25.1712
-105.66
-73.6942
-43.4919
-45.3058
-45.3821
-41.8569
-46.247
-45.6764
-45.9694
-47.9489
-42.5863
-42.8952
-44.8485
-44.9753
-45.4964
-42.9197
-45.9906
-46.39
-43.1078
-42.3341
-45.3771
-45.269
-44.4111
-46.3313
-46.1813
-42.9776
-42.0526
-44.7316
-44.4356
-42.5394
-46.0962
-47.3415
-45.6945
-45.5923
-47.5231
-47.0183
-48.642
-46.6444
-47.3936
-46.5941
-48.6176
-46.9967
-46.4929
-44.9712
-48.9287
-49.7692
-46.5975
-49.8822
-48.9498
-45.0135
-50.3965
-46.776
-42.4416
-54.9533
-36.3425
-36.0957
-36.3117
-38.5415
-36.1662
-38.4945
-36.2713
-36.0294
-50.6388
-54.9869
-42.7517
-46.7433
-40.6845
-40.6346
-37.2281
-38.7077
-40.4812
-38.5239
-37.1331
-40.5881
-36.8756
-31.7034
-35.5345
-38.2284
-37.4698
-38.5696
-35.6817
-32.1544
-87.2654
-141.432
-112.399
-46.5898
-44.824
-48.0517
-64.5273
-57.6642
-82.5231
-41.5213
-37.9678
-40.0145
-141.356
-87.2172
-112.308
-44.6152
-46.3397
-48.025
-49.4007
-64.2801
-83.0086
-37.2928
-41.0812
-38.4218
-39.57
-38.1827
-38.5704
-39.8636
-32.9228
-37.5591
-36.5927
-38.9864
-69.1265
-61.8238
-65.1609
-98.0006
-46.9305
-45.9894
-47.1492
-48.0114
-39.5083
-39.837
-38.0886
-38.4995
-33.137
-39.5212
-37.6112
-36.5783
-69.9542
-93.4623
-62.2501
-65.8552
-46.8415
-48.1714
-46.047
-47.0671
-60.492
-57.8149
-104.523
93.3824
-222.16
-222.696
-144.4
13.5877
-58.6685
-53.8471
-53.8235
-55.8562
-42.1984
-42.4663
-46.0324
-39.564
-42.4201
-42.3874
-43.9551
-41.2368
-55.6213
-45.6173
-47.2372
-48.272
-73.9618
-75.0382
-59.4129
25.015
-38.0753
-37.3816
-43.4064
-25.7409
-33.7927
-33.3923
-36.3746
-30.7503
-42.6729
-46.2444
-44.5774
-43.7017
-61.0412
-57.4357
-104.518
93.4531
-58.7804
-53.8157
-53.914
-55.8853
-42.0103
-42.1926
-45.5985
-39.3217
-55.8299
-45.6605
-46.9482
-48.2551
-37.8025
-37.1343
-43.786
-25.5376
-42.7992
-46.3232
-44.2752
-43.4879
-37.5604
-37.6333
-37.9423
-36.83
-43.5118
-45.6555
-45.0109
-44.2168
-43.1468
-43.1446
-44.8197
-42.0536
-40.8596
-41.6754
-41.0409
-41.5457
-42.2753
-42.4749
-41.2932
-44.1293
-55.6587
-52.5804
-52.502
-59.2569
19.9811
19.8977
31.2585
-2.10524
-57.9651
-58.0546
-60.1263
-56.447
-37.3387
-37.5304
-37.9235
-36.7972
-43.4587
-45.6152
-44.768
-44.2945
-40.7319
-41.5994
-40.9371
-41.5407
-55.8051
-52.7607
-52.1008
-59.4791
-50.4911
-50.703
-50.5888
-49.4172
-50.636
-50.806
-50.7299
-49.507
-66.1429
-61.9691
-61.9618
-58.9734
-9.18644
-2.09528
-2.0438
4.56849
207.293
203.064
192.977
207.25
-42.2729
-43.0481
-42.7401
-43.5068
-42.2934
-43.0212
-42.6541
-43.4229
-38.9233
-38.7766
-39.4124
-38.9195
-87.3977
-97.391
-80.6904
-87.5828
-46.3079
-46.723
-45.6182
-45.8582
-46.0774
-46.6736
-45.5236
-45.5973
-48.674
-48.451
-48.4412
-48.526
-36.9176
-38.3074
-38.3089
-39.6083
-36.2135
-37.3825
-34.5199
-35.937
-82.7236
-83.6706
-105.034
52.9509
-190.578
-220.947
-140.187
-44.0039
-73.2017
-67.3436
-52.9124
-71.6335
-45.0054
-42.0507
-45.8482
-40.0456
-43.4576
-42.7134
-45.0735
-41.5276
-46.5863
-47.8017
-45.9079
-48.0775
-66.4275
-57.2525
-111.016
90.1168
-55.308
-78.3593
-59.5335
30.597
-53.5046
-43.5537
-51.4744
-39.7047
-41.5744
-42.2648
-43.8085
-38.9264
-35.6693
-34.4409
-35.9952
-34.2978
-39.8442
-40.1451
-41.9569
-37.8323
-190.617
-220.681
-140.184
-48.6652
-82.3424
-83.7641
-105.128
53.0342
-73.357
-67.4237
-53.2754
-71.7414
-43.3071
-42.6275
-44.9633
-41.3185
-44.5264
-41.5267
-45.549
-39.6035
-46.837
-47.7803
-46.3429
-48.006
-55.4384
-80.214
-59.6489
31.5838
-66.3603
-57.3265
-111.009
90.274
-53.3305
-43.2805
-51.1938
-39.5945
-35.3443
-34.4937
-35.9073
-33.5328
-40.9753
-41.8515
-43.4228
-38.4907
-38.9433
-39.9677
-41.4565
-37.6346
-46.5073
-50.6339
-57.2003
-48.5142
-38.1658
-37.3445
-37.4457
-36.598
-39.7588
-41.4416
-41.2951
-40.2047
-41.6707
-42.727
-43.5899
-41.3974
-47.5401
-42.7736
-44.5587
-44.2098
-38.041
-37.8604
-38.1211
-37.5595
-37.5766
-39.0124
-38.6474
-37.4595
-42.0892
-41.9845
-41.1244
-43.6974
-50.0415
-38.0039
-47.6836
-17.7272
-54.1862
-49.4366
-50.9262
-52.0012
-62.0129
-58.7795
-57.8923
-70.6597
-11.4236
16.9242
20.0375
-9.05981
-46.2068
-45.5328
-44.8359
-50.2704
-44.453
-43.0568
-43.8408
-43.7929
-48.174
-51.5168
-47.9603
-51.7992
-52.2225
-56.7398
-55.8197
-55.6714
-46.2921
-50.6278
-57.0609
-48.7039
-41.6965
-42.7442
-43.6104
-41.4265
-38.1443
-37.3545
-37.4136
-36.5602
-39.7141
-41.4552
-41.3225
-40.2027
-47.4357
-42.7329
-44.5611
-44.1423
-42.4793
-42.3314
-40.9973
-44.0331
-37.9677
-37.7808
-38.1554
-37.4981
-37.6633
-39.0848
-38.6464
-37.7708
-49.96
-36.7106
-47.571
-16.3382
-9.02007
17.3613
21.021
-7.98762
-54.467
-49.5036
-50.8884
-52.1681
-63.0273
-59.5643
-58.9247
-71.839
-46.2113
-46.2672
-45.8032
-50.3769
-52.4066
-56.9719
-56.3374
-55.7058
-44.2826
-42.9214
-43.7909
-43.2986
-48.7659
-52.2412
-48.501
-52.187
-66.5683
-53.2046
-57.0108
-55.4691
187.789
200.803
197.835
175.928
-96.8578
-77.0717
-84.7041
-84.7299
96.3893
128.478
85.2021
85.465
-50.1279
-50.5836
-51.0531
-49.4765
-58.5841
-60.8407
-63.5557
-57.027
-45.3007
-45.3757
-45.244
-45.1284
-38.7831
-37.2959
-38.3775
-37.7754
-45.9155
-48.1182
-47.0314
-47.0475
-40.0395
-37.2065
-39.2333
-39.1568
-47.2455
-46.324
-46.2881
-46.509
-48.3385
-48.3989
-48.1634
-48.9541
-36.258
-21.7423
-28.3243
-28.3373
154.845
179.916
168.545
167.822
-45.0936
-50.6195
-50.4905
-47.6467
-13.3165
-5.18546
-14.7932
-2.66657
-36.0453
-35.7708
-36.049
-36.0143
-33.606
-35.3332
-35.4869
-35.6063
-44.6021
-45.0716
-44.2665
-45.5372
-39.9042
-38.8363
-40.9721
-38.0891
-66.4657
-53.2352
-57.0432
-55.4341
187.902
200.564
175.397
193.671
-50.2522
-50.7672
-51.1155
-49.6317
-58.8023
-60.8202
-63.7598
-56.9489
-45.2691
-45.1047
-44.9019
-45.2437
-38.4451
-36.9879
-38.2404
-37.4119
-47.206
-46.3403
-46.1225
-46.4866
-48.2919
-48.3707
-48.1235
-48.9136
-44.9878
-50.7465
-47.3659
-50.7893
-13.0081
-5.12888
-2.4217
-14.8617
-44.3826
-44.8547
-45.3897
-43.9711
-39.8765
-38.8259
-38.0745
-41.0092
-39.1056
-40.3005
-39.7629
-39.7172
-38.1381
-38.6549
-38.2056
-38.8192
-45.8545
-48.4806
-46.8742
-47.4727
-44.159
-43.4268
-42.3221
-44.804
-49.6116
-53.6189
-51.3656
-51.3928
-39.7454
-38.8261
-39.1525
-39.154
-41.1802
-42.1214
-41.3369
-42.2273
-42.406
-45.8027
-46.4331
-45.2883
-39.9327
-39.007
-39.3591
-39.3731
-48.6643
-48.8111
-48.7544
-48.7027
-46.8895
-45.8585
-47.6634
-48.2228
-71.2794
-82.696
-87.2192
-71.437
32.5197
17.3124
22.7865
22.7582
-76.7513
-121.032
-123.995
-123.943
-65.3087
-72.0111
-68.2708
-68.2978
-52.7501
-46.087
-50.3303
-50.2755
-39.0248
-40.1614
-39.7115
-39.6362
-38.1137
-38.6394
-38.1552
-38.8483
-46.4361
-48.5274
-47.653
-47.1713
-43.9949
-43.6541
-42.4325
-44.9016
-41.1952
-41.8904
-42.2097
-41.133
-43.0149
-45.821
-45.9247
-45.3064
-47.097
-45.7776
-48.4204
-48.1414
-71.5116
-82.9183
-71.9416
-85.7662
-62.3307
-52.1127
-55.5835
-53.3284
-55.8968
-48.3326
-50.5676
-51.8059
-46.098
-47.8088
-46.185
-46.4873
-65.0581
-52.7994
-55.0566
-46.4786
-61.6436
-52.1953
-55.5659
-53.6956
-65.0377
-52.6476
-55.0636
-46.3754
-46.4086
-47.8273
-46.2413
-46.5578
-55.7262
-48.3375
-51.0308
-51.8237
-92.4878
-78.4305
-82.7293
-73.6595
-92.4415
-78.4612
-82.8307
-73.944
-49.7405
-48.4974
-52.1122
-50.9137
-49.8013
-48.8178
-52.2653
-50.8562
-38.0604
-33.6258
-29.74
-25.4506
7.86153
21.5403
9.22982
19.0716
8.05398
21.8512
9.23008
19.1915
-38.1056
-33.5335
-29.7736
-25.5004
121.692
109.599
140.769
110.104
149.806
143.823
166.419
168.815
143.636
149.857
168.597
166.488
109.99
121.69
109.801
140.42
-38.851
-39.9185
-39.7268
-40.5046
-38.9026
-39.139
-39.4971
-39.6302
-44.4595
-45.989
-44.0517
-45.8788
-51.3463
-52.8564
-48.6773
-49.9361
-38.7924
-39.8969
-39.68
-40.4194
-51.5528
-53.2042
-48.8885
-50.0812
-44.6293
-46.2751
-44.1793
-46.0435
-38.8394
-39.09
-39.4007
-39.5804
-37.9006
-38.8557
-38.1022
-38.7518
-38.8762
-37.9133
-38.7567
-38.0862
-39.5612
-38.6509
-39.1516
-38.4334
-38.7078
-39.6436
-38.4352
-39.1934
-115.139
-72.1434
-109.289
-116.383
-58.2898
-59.3781
-64.9947
-65.4372
-59.7093
-58.5174
-65.6307
-65.256
-71.3075
-119.784
-118.385
-110.454
-45.4842
-47.5079
-44.9672
-45.819
-45.3485
-46.085
-44.8723
-45.7363
-43.7593
-43.3897
-44.3564
-44.1055
-44.9733
-44.1076
-46.0924
-45.1642
-45.46
-47.0911
-45.0115
-45.7397
-48.9672
-43.6806
-46.6071
-45.7909
-43.3798
-43.0254
-44.1078
-43.8226
-45.1241
-45.9786
-45.0875
-45.6313
-47.1737
-48.3256
-48.2185
-48.5811
-47.0597
-48.33
-48.097
-48.4669
-46.5556
-47.9184
-47.3539
-48.6507
-46.6291
-47.982
-47.4057
-48.68
-54.9216
-54.3246
-48.0008
-51.7243
-36.253
-36.866
-36.3717
-36.7433
-36.175
-36.829
-36.2994
-36.7064
-54.7897
-54.1942
-48.0854
-51.6516
-39.1353
-40.1312
-37.9268
-39.333
-40.0442
-38.9076
-39.1444
-37.6522
-34.9102
-36.7412
-35.8271
-36.1572
-37.3171
-35.6101
-36.6029
-36.0276
-103.944
8.9202
-134.572
-36.8432
-74.2432
-97.4868
-47.6429
-41.6138
-46.9145
-42.2251
-46.404
-47.1862
-105.457
69.2533
-65.4596
40.7832
-77.5933
-59.03
-42.7851
-38.7281
-36.1757
-36.929
-41.6291
-37.1333
-134.545
-37.1647
-104.173
8.9657
-73.9317
-97.5287
-46.7779
-42.0012
-47.4177
-41.3739
-46.2277
-47.1
-65.3819
41.3972
-105.88
70.6674
-77.7398
-58.9892
-35.9124
-36.4042
-42.295
-38.2605
-40.8785
-36.7285
-40.8779
-43.1851
-38.3012
-38.5408
-39.8113
-38.7893
-42.2432
-40.3483
-43.747
-50.0135
-37.8995
-38.5056
-37.7932
-33.2238
-40.5749
-46.7388
-58.4147
-42.849
-57.2974
-57.5358
-60.1664
-78.4318
-24.2472
-98.7461
-46.4235
-48.3907
-45.1076
-45.161
-46.452
-49.3659
-50.7468
-50.3941
-40.7322
-42.8601
-42.2477
-40.3501
-38.2575
-38.5322
-39.763
-38.7243
-43.5607
-49.8232
-40.4715
-47.0649
-37.861
-38.2146
-37.7873
-33.5051
-58.8186
-41.1158
-25.2998
-91.3764
-57.5405
-57.9341
-61.2812
-80.5584
-46.3255
-48.4204
-51.0807
-50.6731
-45.3095
-44.93
-46.9163
-49.5332
-105.788
85.9579
-115.59
71.8907
-80.7717
-88.7979
166.357
147.892
-141.958
14.9346
-141.964
10.2136
-114.368
-114.39
75.1808
76.8973
-61.6096
-62.9015
-53.5887
-51.2768
-52.1171
-50.8871
-60.5211
-54.5665
-45.8928
-39.1633
-45.0352
-39.2664
-45.773
-45.3589
-38.9067
-38.7762
-44.2519
-41.2055
-44.1964
-41.1431
-44.8519
-44.873
-40.6157
-40.5914
-49.5335
-49.7015
-44.9937
-45.7568
-46.5126
-48.2578
-46.3692
-49.3633
-57.2013
40.3375
-57.1778
37.0755
-45.2232
-45.2004
109.064
109.559
-42.417
-30.9301
-43.2702
-21.0806
-43.7104
-42.1753
-22.6076
-13.735
-36.2842
-32.1879
-36.2196
-31.3082
-36.131
-36.1126
-31.1039
-31.3779
-42.2191
-39.4769
-46.9638
-49.4637
-43.4746
-45.5011
-43.4974
-39.6485
-105.861
85.9822
-115.557
71.673
-80.763
-89.1218
147.741
166.363
-61.6994
-63.0352
-53.6069
-51.2498
-52.2354
-51.0634
-60.6697
-54.5331
-45.8287
-39.0614
-44.6349
-38.9312
-45.1468
-45.6262
-38.7255
-38.5337
-48.78
-49.4081
-44.9977
-45.7221
-46.4735
-48.0331
-46.3218
-49.2776
-42.5847
-30.7792
-43.8198
-20.6777
-42.172
-44.0111
-13.5476
-22.5337
-41.7406
-39.5005
-47.007
-49.4204
-45.4756
-43.187
-39.5554
-43.4821
-37.5511
-36.368
-38.0831
-37.284
-38.3995
-38.5818
-37.5151
-38.3159
-43.0899
-42.0305
-47.005
-47.3946
-44.8783
-45.7571
-43.156
-45.3655
-44.5522
-41.8702
-44.5425
-41.8768
-46.9013
-46.9284
-40.7569
-40.7587
-39.8699
-40.4811
-42.3055
-42.5814
-40.7928
-41.6721
-41.7001
-42.5916
-41.2298
-43.9163
-41.0322
-44.225
-40.5919
-40.6305
-47.0211
-47.0022
-55.0254
-64.3741
-51.0886
-56.5054
-52.8771
-51.6205
-68.5754
-61.4924
30.154
-2.3455
30.3575
-1.80872
34.5558
34.6208
-26.5381
-26.596
-59.271
-56.2855
-59.4261
-56.3476
-62.2483
-62.3305
-54.8341
-54.8733
-37.5356
-36.3485
-38.1058
-37.2425
-38.3517
-38.5675
-37.4772
-38.291
-43.095
-42.0146
-47.0203
-47.2865
-46.148
-44.6784
-43.1744
-45.4865
-39.7688
-40.4063
-42.2675
-42.4585
-41.6243
-40.7445
-41.8227
-42.812
-55.5622
-64.8979
-51.5288
-56.554
-52.6038
-52.5834
-61.7203
-68.8667
-51.1679
-51.2845
-50.8682
-50.1004
-50.3375
-50.6867
-49.6329
-48.215
-51.3199
-51.3063
-50.9467
-50.1623
-50.9268
-50.4833
-48.2585
-49.6603
-70.8666
-70.8655
-65.5139
-58.4449
-65.4773
-58.4131
-56.0197
-56.0337
-15.2319
-15.2259
-10.4708
3.08704
3.13606
-10.4261
10.5302
10.5762
202.778
186.215
184.474
184.487
173.295
173.303
185.224