# vtk DataFile Version 2.0
tri_press
ASCII
DATASET UNSTRUCTURED_GRID
POINTS 3682 float
-0.615 0.095 -1.71302
-0.598589 0.175 1.795
-0.645 0.591018 -1.595
-0.555 0.82059 1.705
0.615 0.095 -1.71302
0.598589 0.175 1.795
0.645 0.591018 -1.595
0.565 0.820602 1.695
-0.629533 0.101663 -0.54368
-0.633866 0.118527 0.62566
-0.665139 0.717681 -0.495
-0.67748 0.836546 0.605
0.650346 0.0808501 -0.54368
0.639672 0.11272 0.62566
0.666411 0.715623 -0.498333
0.679682 0.832089 0.598333
-1.25815 -0.26003 -2.63744
-1.25776 -0.212921 -1.73064
-1.26823 -0.2027 -0.559181
-1.26186 -0.197499 0.626816
-1.22789 -0.162178 1.79951
-1.22245 -0.127932 2.71235
-1.22974 -0.0931677 3.61414
-1.26229 0.0279556 -2.60413
-1.26395 0.0885856 -1.70502
-1.2795 0.117426 -0.547129
-1.2663 0.135915 0.617462
-1.20791 0.166782 1.77669
-1.21016 0.200619 2.68821
-1.22494 0.235614 3.5921
-1.27833 0.574911 -2.51722
-1.29003 0.63131 -1.61492
-1.31023 0.737986 -0.50436
-1.29629 0.827149 0.601681
-1.19502 0.831604 1.71336
-1.20429 0.862031 2.62619
-1.22754 0.898589 3.54042
-1.29325 1.48196 -2.43986
-1.30018 1.55457 -1.54806
-1.30888 1.6822 -0.461197
-1.30799 1.79869 0.610663
-1.28661 1.85443 1.6979
-1.27187 1.88005 2.59048
-1.26922 1.90805 3.49755
-0.61996 -0.25755 -2.64268
-0.615819 -0.209521 -1.73806
-0.624063 -0.213699 -0.559269
-0.631772 -0.2101 0.634418
-0.615629 -0.161479 1.81355
-0.611964 -0.128698 2.72111
-0.616301 -0.0959737 3.61836
-0.621752 0.0264069 -2.60619
-0.604743 0.200483 2.69452
-0.614107 0.232835 3.59454
-0.633676 0.557279 -2.50917
-0.597057 0.85726 2.62189
-0.617071 0.894756 3.53754
-0.646613 1.46661 -2.43229
-0.651054 1.53864 -1.53982
-0.659347 1.6744 -0.457177
-0.66894 1.80045 0.607741
-0.662991 1.85516 1.69043
-0.652464 1.87842 2.583
-0.649754 1.90564 3.49153
0.641166 -0.261185 -2.6434
0.636052 -0.214644 -1.73845
0.652744 -0.228733 -0.559722
0.636621 -0.217207 0.633839
0.606293 -0.163807 1.81269
0.603164 -0.131133 2.7187
0.606404 -0.0991379 3.61511
0.638149 0.0242791 -2.60675
0.594492 0.198866 2.69145
0.600833 0.230066 3.5908
0.645666 0.555769 -2.50987
0.582628 0.855758 2.61567
0.592916 0.89211 3.53263
0.645893 1.46322 -2.43418
0.647928 1.53519 -1.54209
0.646028 1.67024 -0.460544
0.623071 1.79604 0.602981
0.590731 1.85143 1.6848
0.584856 1.87494 2.57752
0.586762 1.90202 3.48655
1.2773 -0.268711 -2.63935
1.27439 -0.224904 -1.73232
1.29307 -0.225355 -0.561416
1.27623 -0.212102 0.623701
1.23352 -0.169137 1.79546
1.22271 -0.134084 2.70673
1.22492 -0.100093 3.60749
1.27405 0.0215916 -2.60588
1.26621 0.0809139 -1.70666
1.29627 0.0943372 -0.549826
1.28145 0.122145 0.61324
1.22114 0.161705 1.77123
1.21128 0.195694 2.68132
1.2172 0.229366 3.58461
1.28381 0.570132 -2.51933
1.286 0.627349 -1.6173
1.31201 0.726923 -0.509927
1.30371 0.81625 0.592033
1.20634 0.827011 1.70074
1.1981 0.857412 2.61526
1.20811 0.892604 3.53101
1.29035 1.47463 -2.44383
1.29419 1.547 -1.55274
1.29423 1.6733 -0.467798
1.26943 1.78948 0.601665
1.22754 1.84649 1.68739
1.21236 1.87265 2.5801
1.21055 1.90051 3.48791
-0.657067 0.343009 -1.68108
0 0.087228 -1.72079
-0.663345 0.0572528 -1.12835
-0.624848 0.497795 1.79805
0 0.171044 1.79896
-0.613311 0.149679 1.21033
0 0.639578 -1.64356
-0.700087 0.699367 -1.045
0.005 0.867183 1.74659
-0.653249 0.865577 1.155
0.65724 0.343009 -1.68125
0.644202 0.0763958 -1.12835
0.629316 0.497801 1.79252
0.617727 0.145264 1.21033
0.700484 0.6981 -1.04667
0.656801 0.860805 1.14667
-0.631689 0.110106 0.04099
-0.77133 0.409672 -0.51934
0.0104066 0.0957529 -0.54368
-0.765417 0.477536 0.61533
0.00290324 0.108769 0.62566
-0.680968 0.786772 0.055
0.000635882 0.99014 -0.496667
0.00110099 1.19811 0.601667
0.644378 0.0974163 0.04099
0.771196 0.398237 -0.521007
0.765078 0.472405 0.611997
0.683844 0.784654 0.05
-0.856807 0.376341 -1.08668
0.859604 0.370623 -1.08751
0.0052033 0.092171 -1.12835
0.000317941 0.789411 -1.04583
0 0.343009 -1.93789
-0.765189 0.443604 0.047995
0.765537 0.435321 0.045495
0.00665492 0.100153 0.04099
0.000868438 1.15718 0.0525
-0.883898 0.487666 1.18267
0.883961 0.485103 1.1785
0.00145162 0.147373 1.21033
0.00305049 1.15933 1.15083
0.0025 0.497798 1.86913
-0.606641 0.219005 -1.66766
-0.3075 0.0876801 -1.72034
-0.643553 0.0717462 -1.42069
-0.624399 0.336398 1.80921
-0.299295 0.171995 1.79801
-0.612899 0.155391 1.50266
-0.651482 0.467014 -1.63849
-0.3225 0.624244 -1.62823
-0.685203 0.657853 -1.32
-0.582421 0.659193 1.74402
-0.275 0.861648 1.74356
-0.61473 0.853689 1.43
0.3075 0.0873164 -1.7207
0.609209 0.219005 -1.67022
0.634558 0.0807411 -1.42069
0.299295 0.17154 1.79846
0.626923 0.3364 1.80673
0.613042 0.155248 1.50266
0.3225 0.624715 -1.6287
0.65204 0.467014 -1.63905
0.685409 0.657226 -1.32083
0.285 0.862178 1.73908
0.590865 0.659201 1.73747
0.621557 0.85136 1.42083
-0.698675 0.0272226 -0.836015
-0.630529 0.105967 -0.251345
-0.758613 0.226577 -0.53151
-0.308467 0.1009 -0.54368
-0.615027 0.142665 0.917995
-0.63275 0.114344 0.333325
-0.756568 0.269568 0.620495
-0.313201 0.118208 0.62566
-0.700707 0.726618 -0.77
-0.764114 0.586616 -0.50717
-0.683163 0.762336 -0.22
-0.390321 0.97005 -0.495833
-0.669739 0.855436 0.88
-0.752837 0.672735 0.610165
-0.676616 0.809051 0.33
-0.41512 1.17119 0.603333
0.621875 0.104022 -0.836015
0.324163 0.100728 -0.54368
0.64695 0.0895455 -0.251345
0.756375 0.216741 -0.532343
0.620349 0.137343 0.917995
0.317815 0.117691 0.62566
0.642011 0.105083 0.333325
0.783715 0.251893 0.618828
0.7018 0.725214 -0.7725
0.391671 0.969178 -0.4975
0.765224 0.58014 -0.50967
0.685064 0.760075 -0.224167
0.672415 0.850621 0.8725
0.418206 1.17073 0.6
0.753631 0.667873 0.605165
0.679817 0.806425 0.324167
-0.845161 0.359675 -1.38388
-0.328533 0.343009 -1.86785
0.00260165 0.0856195 -1.42457
0 0.215119 -1.77891
-0.851273 0.216797 -1.10751
-0.329071 0.0919557 -1.12835
-0.875395 0.49273 1.49036
-0.311174 0.497797 1.90379
0.00072581 0.15479 1.50464
0.00125 0.334421 1.90489
-0.86868 0.318673 1.1965
-0.30593 0.149344 1.21033
0.000158971 0.713038 -1.3447
0 0.491293 -1.73098
-0.859066 0.537854 -1.06584
-0.349884 0.777864 -1.04542
0.00402524 1.14159 1.44871
0.00375 0.682491 1.86139
-0.782619 0.676621 1.16883
-0.325099 1.14462 1.15292
0.856163 0.356816 -1.38438
0.32862 0.343009 -1.86771
0.860138 0.223509 -1.10793
0.324703 0.0926231 -1.12835
0.875531 0.491452 1.48551
0.315908 0.4978 1.90308
0.868317 0.315183 1.19441
0.309589 0.148852 1.21033
0.859066 0.534361 -1.06709
0.350401 0.778472 -1.04625
0.789661 0.672954 1.16258
0.329926 1.14472 1.14875
-0.752464 0.249842 0.0444925
-0.310389 0.109385 0.04099
-0.865263 0.393006 -0.803008
-0.765517 0.426638 -0.235673
0.00780495 0.117607 -0.836015
0.00853076 0.0989848 -0.251345
-0.76755 0.46057 0.331663
-0.78455 0.482601 0.898998
0.00477908 0.103512 0.333325
0.00217743 0.141576 0.917995
-0.756354 0.631826 0.0514975
-0.431033 1.15394 0.05375
0.000476912 0.83839 -0.77125
0.00075216 1.12639 -0.222083
0.000984716 1.19726 0.327083
0.00207574 1.18634 0.87625
0.751468 0.243113 0.0432425
0.320293 0.109231 0.04099
0.866006 0.38443 -0.804258
0.765026 0.416779 -0.237756
0.766989 0.453863 0.328746
0.781114 0.478754 0.895248
0.757039 0.626162 0.0477475
0.433481 1.15316 0.05125
-0.844657 0.217901 -1.40228
-0.860224 0.236232 -0.819511
-0.748614 0.550765 -0.786504
-0.856041 0.502434 -1.35194
0.857164 0.221257 -1.40253
0.855825 0.500687 -1.35261
0.749119 0.545646 -0.788379
0.86096 0.231526 -0.820136
-0.318286 0.0854803 -1.42263
0.316101 0.0858667 -1.42263
0.32754 0.117283 -0.836015
-0.319317 0.117884 -0.836015
-0.336192 0.691161 -1.33235
-0.341068 0.826528 -0.770625
0.341962 0.825772 -0.771875
0.336451 0.708751 -1.33276
-0.318017 0.217062 -1.84852
-0.325517 0.479153 -1.69677
0.32556 0.479153 -1.70133
0.31806 0.217062 -1.84771
-0.752568 0.239695 -0.243509
-0.754182 0.259872 0.332494
-0.756605 0.653286 0.330831
-0.757506 0.607857 -0.227836
0.753158 0.230309 -0.24455
0.75836 0.601765 -0.230961
0.757267 0.647983 0.326456
0.753081 0.254758 0.331035
-0.309455 0.105089 -0.251345
0.322213 0.10501 -0.251345
0.319123 0.113324 0.333325
-0.31185 0.113686 0.333325
-0.426389 1.09342 -0.221042
-0.426504 1.16942 0.328542
0.429307 1.16887 0.325625
0.42809 1.0922 -0.223125
-0.878933 0.308352 0.908496
-0.859479 0.327535 1.49651
-0.716143 0.667907 1.46018
-0.756407 0.666831 0.889499
0.87496 0.303873 0.906621
0.756951 0.662601 0.883874
0.717373 0.666078 1.45317
0.859822 0.325792 1.49409
-0.310706 0.143041 0.917995
0.315439 0.143296 0.917995
0.304442 0.15621 1.50365
-0.302612 0.156843 1.50365
-0.331644 1.17026 0.878125
-0.30005 1.10367 1.43936
0.307463 1.10627 1.43477
0.335158 1.17012 0.874375
-0.305234 0.335409 1.91602
0.307601 0.335411 1.91519
0.300454 0.670846 1.84617
-0.293087 0.670842 1.84691
-0.61116 0.157002 -1.69068
-0.46125 0.0883607 -1.71966
-0.640561 0.072089 -1.56685
-0.623108 0.255699 1.81372
-0.448942 0.172018 1.79798
-0.608224 0.162716 1.64883
-0.651227 0.529016 -1.61973
-0.48375 0.617539 -1.62152
-0.673496 0.632829 -1.4575
-0.571091 0.739891 1.72689
-0.415 0.844972 1.72813
-0.591102 0.843377 1.5675
0.46125 0.0878801 -1.72014
0.611094 0.157002 -1.69061
0.63133 0.0813199 -1.56685
0.448942 0.171805 1.79819
0.62454 0.2557 1.81265
0.608851 0.162089 1.64883
0.48375 0.617508 -1.62149
0.65138 0.529016 -1.61988
0.673659 0.632577 -1.45792
0.425 0.845358 1.72101
0.580255 0.739902 1.71856
0.597652 0.840355 1.55792
-0.630385 0.0981615 -0.689848
-0.629999 0.103847 -0.397513
-0.8379 0.0922068 -0.537595
-0.469072 0.101138 -0.54368
-0.625419 0.129623 0.771828
-0.633254 0.116489 0.479493
-0.860264 0.111524 0.623078
-0.473498 0.118439 0.62566
-0.694148 0.733375 -0.6325
-0.750272 0.669971 -0.501085
-0.685139 0.750997 -0.3575
-0.583271 0.954947 -0.495417
-0.674801 0.847182 0.7425
-0.738133 0.766128 0.607583
-0.678668 0.824418 0.4675
-0.56961 1.05049 0.604167
0.650897 0.0776496 -0.689848
0.484117 0.0970651 -0.54368
0.648377 0.0854685 -0.397513
0.842884 0.079034 -0.538012
0.631853 0.123189 0.771828
0.478486 0.11572 0.62566
0.640824 0.10892 0.479493
0.854795 0.110756 0.622244
0.69908 0.735393 -0.635417
0.585541 0.955402 -0.497917
0.75096 0.665453 -0.504002
[...]
POINT_DATA 3682
SCALARS point_scalars float 1
LOOKUP_TABLE default
-51.832
-44.7743
-15.6368
-37.4592
-64.7274
-38.9601
-15.6489
-33.6912
-38.3902
-38.9553
-54.4136
-44.6231
-41.2316
-37.9065
-54.3177
-43.2594
-22.0555
-122.918
-33.5696
-38.3268
-52.9061
-41.4521
-37.9578
40.2448
-109.032
-41.1963
-31.8523
-54.8936
-38.0305
-36.7636
73.033
-112.401
-48.9958
-38.8514
-53.2651
-36.1175
-35.4674
-8.3202
-82.7363
-84.1844
-58.979
-47.3088
-37.5248
-35.6602
20.105
-114.434
-38.5566
-38.5809
-42.176
-38.4378
-36.6224
20.105
-36.6224
-33.967
146.736
-34.9306
-34.102
26.5146
-30.999
-65.411
-59.6938
-45.3274
-35.209
-34.7764
21.4083
-87.8135
-41.5463
-37.7683
-37.5517
-33.0175
-31.294
21.4083
-31.294
-27.9295
149.259
-30.4667
-27.2871
12.8162
-31.7606
-63.2163
-58.6186
-41.5296
-33.3264
-32.5275
-53.7299
-144.567
-48.1191
-38.5384
-46.0453
-35.8221
-32.7653
37.5877
-89.8582
-44.9122
-31.8817
-49.0978
-33.0591
-31.8834
73.9244
-102.508
-48.4731
-37.6016
-49.7566
-31.4232
-30.6207
-8.39153
-78.5348
-78.2471
-57.5904
-44.3221
-33.299
-32.2893
30.9589
-118.528
-62.7217
-36.7464
-35.2743
-35.6113
-63.0157
-63.3308
-34.1832
-51.3541
31.3565
-63.4845
-32.3469
-34.3688
-63.503
-48.7368
-34.0334
-43.8515
-39.69
-29.0165
-38.7647
-49.9406
-0.0319646
-65.1242
-34.4915
-43.227
-28.2015
-49.0184
-73.0984
-74.3276
-61.4311
-12.031
191.468
-34.0005
-33.6316
-35.783
-79.8869
-51.8926
-48.2161
-33.9461
-48.4619
-26.7949
36.9765
-126.08
-87.9995
-37.3817
-39.206
-39.3544
19.6771
-13.1997
-39.2656
-36.5387
-34.9864
-46.0032
-126.537
33.7658
-90.9418
-34.8425
-32.7761
-36.2732
-14.2694
21.3573
-39.7151
-33.4488
-32.0543
-43.0682
-58.7567
-35.1204
-43.7709
-39.9752
-36.9673
-34.6413
-26.379
-37.4944
-59.1541
-46.689
-53.9571
-12.1383
-48.4541
-36.6201
-46.3284
-60.1766
-43.6427
-40.0848
-36.5377
-43.1459
-34.6216
-37.2888
-34.7192
-25.8835
-59.0439
-11.6588
-45.9718
-53.2597
-46.6044
-59.4768
-35.4248
-45.6322
-154.186
179.287
-71.813
196.927
-70.4015
-62.6748
-55.2061
-34.1736
-34.517
-26.9362
-45.57
-34.7741
-23.5115
126.491
-75.0011
-17.7842
-41.2204
-29.0032
-55.8603
-49.5513
-152.309
179.277
-72.5496
-61.8141
-49.4907
-27.5072
-42.0795
-33.8617
-75.5987
-18.2802
-52.1394
-48.4866
-32.5194
-35.2725
-62.1288
-36.7503
-43.2019
-36.9867
-32.5485
-22.8456
-35.9899
-36.3737
-39.7123
-79.9201
15.1128
-69.0755
-77.8921
-56.855
-31.8685
-35.5019
-61.1418
-36.309
-31.8657
-21.2509
-39.0055
-79.4547
-171.722
-58.0526
-55.734
-130.739
-154.357
-128.694
-55.6348
-56.1446
-73.4707
-73.7725
-43.9853
-44.3417
-26.7526
6.85937
6.73915
-29.3165
172.785
115.066
115.741
171.68
-35.4808
-29.5769
-38.2263
-42.0349
-34.8461
-41.3695
-37.2975
-30.0017
-36.5379
-36.9748
-35.6948
-35.6768
-61.9298
-67.3977
-66.5628
-61.0591
-35.4234
-50.6826
-48.5889
-38.2962
-32.33
-36.1423
-44.0339
-45.4296
-36.934
-35.2285
-34.2515
-36.153
-55.9356
-42.8646
-41.106
-55.1328
-33.102
-27.0688
-28.7924
-34.1327
43.5365
-149.536
-128.338
-39.9328
-41.4625
-42.0149
14.6729
-31.578
-36.0279
-37.2571
-35.5267
-41.0976
-149.68
35.703
-123.137
-36.4204
-34.6382
-37.6173
-41.1984
15.3962
-35.7808
-33.1734
-32.7623
-37.9594
-45.0208
-36.5982
-33.8824
-39.5411
-37.6279
-36.1917
-32.5604
-37.8825
-62.7949
-50.2531
-55.7585
-57.1814
-46.8154
-40.93
-44.363
-52.9075
-44.3702
-40.061
-38.3026
-46.2853
-37.508
-37.5372
-36.0309
-35.8849
-61.4313
-57.0124
-49.695
-55.0838
-44.8955
-51.5762
-39.6613
-43.272
34.1912
24.8112
28.826
132.416
-123.33
-123.7
-92.7487
89.8645
-67.743
-55.8632
-67.2402
-64.5503
-36.9313
-36.3664
-41.1288
-35.1488
-37.2117
-34.3516
-35.481
-30.1217
-37.3924
-35.3292
-39.9369
-35.236
-55.5483
-47.7875
-39.0435
115.047
-60.4104
-65.6472
-84.5072
-31.7111
-34.6016
-33.8281
-35.1091
-31.4326
-50.229
-50.2097
-53.1867
-50.8292
33.1298
25.8595
31.373
131.622
-70.8662
-57.7724
-71.0029
-62.5386
-32.5579
-31.8891
-36.1049
-29.7411
-34.5024
-33.6908
-36.3984
-34.0845
-60.8346
-65.2943
-84.5213
-32.2559
-47.2017
-47.9628
-49.7697
-49.1128
-34.0079
-33.9667
-31.4727
-34.7969
-43.5357
-44.5429
-49.9628
-39.6455
-39.735
-39.7459
-43.6457
-38.4389
-27.06
-32.2629
-31.2548
-25.4518
-38.4793
-38.3443
-36.8009
-36.9032
-51.5642
-48.3776
-44.0147
-61.7289
-2.60448
-2.58312
17.3633
-22.1494
-63.6815
-63.3173
-70.4268
-60.7616
-35.2778
-34.3339
-30.6335
-35.0687
-42.9292
-43.9268
-49.3274
-38.9361
-26.2536
-31.177
-30.4799
-24.4256
-50.7457
-47.454
-43.199
-60.935
-96.9225
-72.2226
-74.2695
-62.7047
-98.4427
-73.6959
-75.0148
-62.816
-64.6268
-61.7578
-61.0753
-51.8532
-14.9741
-13.0171
-13.1468
1.38471
202.062
196.585
120.649
202.017
-32.624
-35.0247
-33.3098
-36.3071
-32.0439
-34.7057
-32.8449
-35.7222
-35.572
-35.9454
-35.6758
-35.7153
-85.5827
-93.3253
-81.7683
-85.5694
-50.9465
-48.7872
-54.04
-53.1257
-46.5955
-45.2888
-49.8815
-50.2014
-34.3291
-34.3172
-33.7935
-33.9755
-43.4985
-48.9032
-48.382
-52.9597
-29.867
-26.1407
-27.1814
-25.5775
36.8691
102.993
-97.5549
68.9206
-146.52
-75.9519
-41.4474
-35.3442
-37.7297
-35.2601
-48.8639
-37.3308
7.93407
111.685
-45.2968
92.8689
-75.489
-29.7178
-42.7567
-35.131
-36.3044
-34.5189
-48.4573
-43.3244
-97.519
68.7014
39.6795
104.193
-135.685
-75.7253
-35.09
-30.0958
-36.3713
-30.1535
-44.0868
-34.7786
-43.2918
100.061
8.69594
111.291
-72.71
-31.3729
-34.5675
-31.1437
-38.0364
-30.3815
-44.3436
-41.2433
-56.2324
-47.1682
-38.4253
-35.9002
-50.2947
-38.9411
-44.3775
-38.0256
-41.7638
-37.2675
-24.0916
-35.322
-29.3406
-21.8382
-36.5127
-37.3233
-56.5714
-5.81739
-50.716
-44.0231
-47.2646
-72.488
6.77378
-34.656
-43.8931
-53.9327
-37.4609
-35.5962
-42.2124
-53.6053
-63.0449
-58.1477
-51.1895
-44.5969
-43.9945
-38.4158
-35.2163
-36.7894
-49.4575
-38.1742
-40.2934
-34.9312
-36.4081
-37.5566
-30.1419
-35.3286
-28.2835
-21.2941
-56.6577
-6.16725
7.0499
-34.1186
-50.0753
-43.2907
-46.3279
-71.4133
-41.5542
-52.5311
-62.3307
-57.7393
-36.3915
-34.1746
-41.0201
-52.7295
-165.724
-152.699
180.17
136.607
-72.7333
-72.4992
196.118
195.912
-93.1235
-60.3117
-65.3623
-53.3625
-53.004
-52.8785
-33.4738
-33.8333
-34.1815
-35.1777
-30.4962
-25.9025
-45.9764
-46.5197
-34.65
-35.5318
-24.9969
-25.4005
116.534
116.83
-64.4685
-101.241
-22.3036
-8.98315
-41.844
-40.8535
-27.868
-31.4842
-55.8946
-47.4792
-52.7075
-45.1108
-154.078
-153.575
137.259
179.158
-96.6739
-60.8964
-63.2706
-52.0881
-49.2185
-46.9508
-26.5071
-27.8997
-42.7555
-42.5432
-33.7935
-33.9473
-102.586
-64.3109
-9.21427
-21.0995
-44.5552
-52.6111
-43.8301
-51.8165
-32.8819
-32.0006
-35.6578
-35.268
-59.8999
-60.2947
-35.6144
-38.7868
-44.0656
-44.2893
-36.867
-37.0209
-30.8708
-34.9138
-24.3363
-31.8114
-35.9213
-35.9102
-36.5238
-36.0668
-39.0242
-40.7375
-83.5176
-73.8593
13.0788
12.7847
-64.96
-64.2555
-73.9143
-73.6049
-56.6932
-56.3283
-33.1275
-31.1258
-36.0255
-35.3971
-60.242
-58.5195
-35.1074
-38.1894
-34.1409
-30.2815
-20.7747
-29.7603
-40.0667
-38.2262
-73.1557
-83.2963
-6.94849
-89.4168
-95.3001
33.9667
-44.6547
-49.7144
-61.7784
-56.4052
-55.2608
-69.2499
-63.3445
-49.9735
-17.0453
25.2625
-97.9045
-104.454
-3.16755
37.0598
-97.5489
-97.421
-18.1758
-105.57
-99.3754
26.868
-54.129
-49.4441
-63.3442
-69.4683
-42.3162
-59.8595
-61.9608
-49.1535
-105.386
-94.4055
-64.5819
-65.2377
-105.539
-63.8921
-64.7508
-94.3889
-43.927
-43.3877
-51.6591
-53.0364
-44.5986
-56.3526
-52.1911
-43.5578
-42.4536
-28.6436
-16.4613
-43.1783
-53.5043
14.0385
-1.24319
-22.3951
-52.4255
-22.3936
-1.45293
13.9048
-40.8291
-41.5508
-16.8321
-28.045
89.449
120.329
190.046
82.4924
82.277
103.753
130.454
130.966
83.8335
131.041
130.166
103.779
89.0961
81.0255
190.139
120.647
-35.4734
-21.0886
-33.4777
-38.8742
-37.4356
-29.602
-31.8486
-37.0387
-41.3358
-43.1454
-35.7724
-33.7948
-48.6427
-41.0433
-37.2966
-45.3467
-35.8018
-38.0357
-33.2907
-33.4326
-47.8399
-44.6286
-36.7729
-40.3905
-40.1737
-32.8507
-35.0221
-42.2097
-36.2359
-30.9174
-31.4384
-28.8206
-37.4312
-38.3241
-35.9664
-34.9591
-38.3716
-35.7248
-36.1166
-38.4571
-36.2095
-36.6334
-35.6304
-34.9677
-36.3082
-34.7949
-35.5574
-36.6835
-84.1931
-68.3069
-86.9739
-24.8802
-51.651
-68.4155
-80.9323
-57.5086
-50.5711
-56.6954
-80.6293
-68.0564
-84.6578
-24.6976
-86.5383
-67.3887
-42.0431
-39.2723
-51.827
-22.6806
-45.5978
-40.8075
-48.6463
-39.8867
-43.0275
-52.3827
-56.5516
-42.2385
-41.8984
-30.3543
-43.5154
-48.9435
-40.0951
-21.7106
-48.8367
-35.6072
-39.9895
-46.0586
-40.6135
-28.968
-38.4905
-37.3222
-50.5044
-48.6732
-40.2624
-36.053
-44.4578
-35.7628
-36.5675
-37.0218
-34.2354
-34.9988
-36.88
-33.8085
-33.7529
-36.7399
-35.7718
-34.9144
-34.0603
-34.0811
-39.2434
-36.3563
-34.8276
-36.3947
-52.2502
-52.5101
-53.0412
-60.2693
-37.8931
-35.6257
-44.0294
-47.6307
-35.5883
-45.6454
-43.4078
-34.6823
-50.8373
-59.9024
-52.6325
-51.1641
-36.8714
-32.5722
-30.3555
-35.1513
-31.5912
-29.701
-25.3512
-28.9773
-31.1813
-30.7131
-26.2402
-30.2306
-35.1805
-35.0923
-30.6873
-32.8692
-6.31933
-120.502
-124.534
-42.2068
-42.1358
-42.0272
-0.607885
-22.0388
-35.2929
-37.4596
-36.1286
-39.012
-119.524
-15.6884
-126.25
-36.99
-36.5512
-37.2997
-22.9688
-0.349069
-35.1577
-33.2537
-33.2067
-35.7867
-40.7728
-37.7544
-37.7727
-39.1811
-38.5191
-37.2806
-39.8458
-38.349
-60.8776
-51.8532
-51.2702
-62.5508
-45.4759
-43.5425
-44.4848
-48.0449
-42.702
-40.451
-39.6127
-41.8822
-37.706
-37.6807
-36.8445
-38.1746
-61.4331
-62.5931
-51.6112
-50.7794
-43.8372
-46.6848
-42.2289
-43.2278
33.2689
26.1354
12.9806
83.0832
-119.557
-119.754
-107.826
4.6011
-74.9749
-59.4143
-65.4621
-64.9323
-36.7657
-36.4923
-39.1634
-35.5048
-36.1465
-34.6628
-35.5459
-32.2107
-36.2789
-35.4282
-37.3806
-35.4496
-63.6325
-55.2857
-52.3224
71.6584
-63.9975
-66.7809
-88.716
-44.6512
-34.3911
-34.0158
-33.9766
-34.1495
-51.019
-50.8975
-52.0499
-51.0864
33.2636
26.6706
15.1385
83.4505
-72.8724
-57.5642
-70.7911
-61.8386
-32.4067
-32.0394
-34.3985
-30.8994
-34.3139
-34.0223
-34.9017
-34.2147
-64.7316
-66.3837
-89.761
-44.7206
-48.1483
-48.4313
-49.2834
-48.7876
-33.8504
-33.9087
-33.6933
-34.5712
-43.6671
-44.0655
-46.7169
-41.5487
-39.7013
-39.7026
-40.556
-39.5437
-27.7955
-30.3311
-30.2509
-27.4329
-38.7397
-38.6229
-37.6261
-37.6528
-50.7348
-49.1254
-47.4394
-54.7838
-0.667457
-0.625512
8.5568
-11.6827
-64.9227
-64.7234
-67.7878
-62.9374
-34.7353
-34.26
-34.1329
-34.8689
-43.0611
-43.4622
-46.1966
-40.8436
-26.9279
-29.3742
-29.5015
-26.4523
-49.8
-48.1973
-46.3943
-53.8907
-82.5264
-72.8148
-73.8967
-66.9863
-84.1415
-74.0564
-74.8631
-67.6921
-66.9566
-61.7657
-60.7641
-53.5423
-13.0313
-11.8631
-12.0415
-8.59784
202.209
195.09
180.516
202.218
-33.2168
-34.4819
-33.6359
-34.9178
-32.8295
-34.0974
-33.2335
-34.4361
-35.6956
-35.7276
-35.6516
-35.7742
-82.7192
-86.9683
-76.4103
-82.9697
-51.0931
-50.4677
-53.2502
-53.8157
-47.0223
-46.9298
-49.4076
-50.5184
-34.17
-34.1235
-33.8428
-33.9159
-46.1013
-48.672
-48.4031
-50.9696
-27.7593
-26.134
-26.9337
-26.1665
40.3187
36.2888
18.0351
76.2246
-134.588
-125.095
-114.821
2.6709
-107.482
-71.1471
-130.05
-77.6453
-38.1688
-37.1373
-39.5052
-35.9175
-40.2144
-38.3261
-38.305
-37.1598
-41.0326
-38.2415
-45.5654
-38.0589
17.7047
24.9419
-4.88201
60.1088
-41.0147
-26.0365
-69.0636
57.5228
-28.8294
-52.2055
-41.7138
-33.4222
-36.9232
-36.3781
-39.3067
-35.446
-35.1468
-34.7462
-35.3035
-34.857
-43.0271
-48.5201
-47.2182
-44.368
-135.126
-125.522
-115.08
2.36301
36.1403
34.7399
18.6855
68.3249
-110.184
-76.1234
-122.593
-78.3024
-35.5309
-34.4677
-35.0792
-31.9633
-33.2995
-32.6815
-34.6387
-31.3175
-37.112
-35.384
-41.8969
-35.3046
-60.0171
-24.4019
-68.1046
61.6954
19.1078
26.2927
-3.53396
60.6073
-28.3978
-52.1161
-40.8314
-32.5576
-33.1551
-33.6459
-33.3921
-32.9106
-32.3386
-31.9024
-34.6277
-31.0057
-40.2324
-45.517
-43.8027
-41.8274
-49.9726
-49.9156
-57.2718
-49.9569
-35.7998
-34.3595
-34.7506
-35.505
-39.5604
-43.4652
-47.2093
-40.9989
-39.9174
-39.7434
-41.4006
-39.0743
-38.6159
-34.9956
-37.2782
-37.2962
-35.3519
-34.1768
-33.8941
-35.05
-32.8445
-26.4706
-28.0653
-24.4276
-37.3179
-38.2626
-37.005
-37.4082
-68.0681
-61.9211
-59.6624
-29.2635
-48.3787
-45.4278
-48.4796
-45.182
-54.8449
-52.5712
-50.6993
-60.4341
-22.5996
-6.44008
-1.72321
-22.6132
-47.5427
-49.4981
-47.1274
-51.3029
-38.1689
-34.6041
-37.1161
-35.938
-44.8401
-47.5291
-45.5337
-49.9104
-59.059
-62.2989
-61.8784
-59.5813
-40.7308
-53.1946
-48.1768
-44.1503
-40.2292
-39.8325
-41.2731
-39.3547
-37.2204
-35.6873
-36.3322
-36.6752
-45.6741
-43.0277
-46.7582
-40.2189
-36.4166
-33.709
-36.0576
-34.8247
-37.0858
-38.0595
-36.8469
-37.1358
-35.4728
-34.4227
-34.3891
-35.0567
-32.432
-26.0174
-27.0465
-23.1043
-64.108
-61.477
-59.8317
-30.1447
-21.8243
-6.18061
-1.28377
-22.3166
-47.7422
-44.7544
-47.8507
-44.4741
-54.0802
-51.9901
-49.7571
-59.5039
-45.8236
-47.4444
-44.9708
-49.545
-57.4658
-61.7626
-61.1168
-58.9674
-36.9141
-33.4223
-35.9582
-34.6802
-44.2552
-46.6267
-44.291
-49.0053
-88.4493
-117.51
-161.189
-157.361
159.567
189.342
178.902
176.175
-80.9012
-65.535
-72.1454
-71.6469
187.173
198.108
196.147
198.31
-68.9988
-71.3701
-79.4223
-64.5565
-63.4657
-62.1174
-69.2018
-55.0945
-44.7228
-51.6762
-54.3606
-54.3425
-34.9914
-32.1535
-33.8772
-33.8013
-34.8736
-34.3502
-34.3017
-34.8108
-28.2519
-26.3884
-28.4805
-25.6906
-43.2093
-47.3687
-45.9438
-46.0263
-34.9983
-34.5402
-34.6758
-35.1426
-29.2035
-17.9278
-23.8247
-23.9933
126.823
114.093
122.141
122.864
-78.4368
-74.8044
-68.1585
-85.0402
-23.026
-14.4417
-19.8443
-16.43
-36.9204
-41.3283
-41.4019
-40.8075
-30.0371
-27.9323
-28.1651
-30.1225
-54.2504
-51.2855
-57.6551
-51.8042
-49.8842
-49.1865
-51.2104
-47.4447
-69.1656
-124.229
-153.419
-157.129
159.362
189.377
176.157
178.399
-71.7571
-73.1065
-82.0204
-65.9745
-62.2375
-61.5141
-66.2215
-53.8873
-40.1981
-46.8819
-49.7502
-48.4004
-28.7778
-26.0526
-26.6457
-28.1034
-39.7384
-44.0457
-42.5258
-42.3099
-33.9644
-33.7773
-33.778
-33.8951
-78.7397
-75.508
-85.9115
-68.7087
-24.0412
-14.6733
-16.5773
-19.6821
-50.6428
-47.0869
-48.1111
-53.3732
-48.5377
-48.3898
-46.4348
-50.2377
-31.9756
-32.3251
-32.9015
-32.2418
-35.0475
-35.4024
-35.3547
-35.2126
-53.6294
-60.7188
-61.6335
-61.8903
-38.0698
-35.7296
-36.1374
-37.5621
-42.2555
-50.0874
-43.7804
-43.4299
-37.632
-36.3557
-36.9426
-36.9964
-31.9505
-32.9775
-31.6346
-33.5406
-24.2763
-31.4548
-21.2834
-25.6007
-36.3906
-35.8263
-35.9767
-35.9666
-37.7798
-34.2059
-36.4546
-36.2092
-41.5115
-37.9588
-39.3476
-40.1659
-72.862
-84.2205
-81.5049
-75.5004
18.8478
9.31723
14.8056
14.5825
-40.9441
-92.8436
-68.6702
-68.201
-73.4995
-81.0604
-76.5296
-76.3825
-58.7483
-54.9346
-56.8717
-56.6806
-30.2306
-31.7258
-32.4722
-31.4512
-35.3123
-35.5984
-35.6614
-35.3798
-52.7472
-60.3168
-61.5421
-60.4602
-37.5188
-35.4152
-35.5987
-37.0661
-31.2547
-32.3636
-32.8278
-31.0076
-22.944
-28.9691
-18.1293
-23.1769
-40.7388
-37.2918
-39.4919
-38.5976
-72.272
-83.881
-74.8207
-81.0292
-103.45
-164.228
-174.431
-117.14
-57.3573
-58.5987
-58.4148
-58.5302
-56.1126
-52.9114
-62.5217
-56.5658
-19.8742
-93.1331
-134.005
-133.397
-78.5387
-151.438
-157.137
-120.965
-18.5897
-92.822
-133.701
-135.499
-56.1094
-52.4079
-62.5646
-57.0184
-54.0693
-57.8943
-57.4447
-56.9951
-83.9701
-74.4479
-73.0911
-66.3956
-84.0222
-74.74
-73.2487
-66.9714
-44.4629
-42.6837
-50.6374
-43.8002
-46.2008
-43.1379
-51.4155
-44.3372
-39.6139
-25.9358
-26.323
-21.0795
2.49966
8.67595
-0.0396304
10.2224
2.4644
8.82925
-0.259536
9.96779
-36.2712
-30.7268
-27.4982
-24.5992
131.475
148.155
183.337
190.787
125.116
98.7849
113.608
116.175
96.6787
124.441
114.923
114.384
147.73
130.358
190.718
181.74
-39.0885
-37.1642
-33.3682
-35.3563
-23.0286
-30.1783
-30.3389
-30.2412
-37.7845
-39.6871
-36.5661
-38.671
-43.0125
-44.2171
-40.2573
-41.2832
-34.6288
-36.1983
-33.935
-34.8625
-42.3114
-43.5041
-39.6357
-40.6114
-36.7956
-38.6399
-35.6842
-37.8071
-29.3833
-29.0483
-30.9012
-29.8221
-36.2586
-37.1986
-35.9801
-36.7131
-37.6371
-36.895
-36.999
-36.3869
-36.0182
-35.5195
-35.7814
-35.5528
-35.5422
-36.0918
-35.4838
-35.7859
-70.6459
-43.2418
-78.674
-62.9944
-59.7752
-64.9743
-70.6655
-71.3502
-64.3161
-58.5609
-70.851
-69.8802
-42.923
-70.1328
-61.8685
-77.9464
-42.0464
-20.6555
-47.8147
-30.1354
-52.3451
-50.6136
-51.3764
-47.179
-45.593
-48.6425
-48.4013
-52.4777
-40.7997
-36.0097
-42.2151
-35.4202
-40.1287
-20.6435
-44.957
-28.7011
-38.5763
-34.2707
-39.5224
-33.4489
-40.9549
-44.3278
-43.9875
-48.5399
-47.4274
-45.4013
-45.8543
-42.6863
-37.1425
-38.4861
-34.7372
-36.6969
-35.0136
-37.3753
-33.8837
-35.9047
-34.5647
-34.444
-34.1629
-34.0967
-37.0203
-36.7047
-35.6325
-35.7508
-55.8107
-57.2947
-54.2768
-56.3745
-38.798
-42.8736
-42.0795
-43.8054
-37.1501
-40.8271
-40.9045
-42.0259
-54.8959
-56.5406
-53.4353
-55.7995
-35.0227
-33.7092
-33
-31.2719
-28.2963
-29.0153
-25.9862
-26.5095
-29.8458
-29.895
-28.0274
-28.2071
-34.9916
-34.3284
-34.0034
-32.8086
1.69017
57.4003
-124.828
-16.6337
-77.9349
-110.879
-42.1794
-37.6527
-39.8013
-39.1321
-46.3065
-40.0962
-22.2579
61.481
-49.5694
34.3164
-28.6785
-42.0923
-40.1269
-35.6963
-36.3404
-35.1361
-42.5984
-39.4838
-127.46
-14.3762
-5.10714
51.9695
-77.2815
-112.27
-35.9681
-33.6483
-36.7818
-32.6062
-41.0347
-36.2335
-49.2286
36.3823
-22.035
62.6518
-29.1842
-41.3427
-33.8427
-32.1018
-35.5835
-31.4909
-38.6895
-36.9087
-44.4383
-44.6318
-36.2976
-37.0267
-36.3248
-37.3052
-41.1487
-38.585
-39.1984
-36.4971
-36.0489
-36.2626
-34.0425
-41.3948
-36.9617
-37.7663
-58.5387
-80.8953
-53.4635
-48.7925
-52.5032
-66.366
-56.0804
-72.559
-45.1863
-49.069
-41.1774
-40.7895
-43.8076
-47.4956
-51.7413
-52.2094
-42.4472
-44.6265
-40.9287
-39.3191
-38.099
-38.2908
-40.6298
-38.5907
-37.9829
-36.6422
-36.6722
-37.419
-36.0892
-36.1863
-37.7324
-44.0168
-57.2865
-80.1381
-55.5503
-72.6782
-53.0361
-48.2489
-51.6472
-65.1953
-43.355
-47.4421
-50.736
-50.9356
-39.8585
-39.5417
-42.9645
-46.4165
18.0355
86.8323
2.48275
87.0144
32.4221
29.2481
127.428
133.385
-110.276
-30.9925
-110.417
-33.945
-93.0986
-93.0645
91.7558
91.7081
-86.089
-57.9565
-54.6304
-59.8626
-76.5422
-61.309
-72.4655
-56.8243
-39.4267
-35.5168
-39.2824
-35.3973
-40.8946
-41.8079
-35.1857
-35.1273
-36.7804
-34.5029
-34.7871
-31.1732
-35.1599
-35.9059
-31.1757
-29.3399
-38.6718
-36.8206
-36.4406
-35.1068
-40.1333
-39.7883
-35.081
-35.7718
-64.6878
65.4371
-65.1334
64.0989
-39.8016
-40.9357
108.308
102.292
-94.6742
-41.5174
-70.3012
-40.5826
-72.414
-88.576
-31.9031
-27.672
-34.6431
-34.4365
-33.6207
-33.4354
-35.3508
-34.847
-31.0114
-32.1054
-51.0126
-48.9584
-49.9711
-51.4811
-53.8752
-51.2891
-51.5633
-49.3966
19.8959
84.5994
4.25121
87.6581
35.8297
31.0446
133.433
126.583
-96.9146
-63.9972
-60.6564
-55.8311
-81.6032
-65.416
-69.5385
-54.1486
-34.6906
-30.9286
-34.4129
-30.8914
-36.746
-35.8371
-29.6027
-30.0005
-35.7994
-34.2831
-34.297
-33.7572
-36.6819
-36.324
-33.8552
-33.9844
-95.993
-41.6551
-69.9492
-40.9799
-89.7683
-72.7327
-27.5964
-32.2291
-47.7117
-46.5224
-47.3531
-49.6375
-48.197
-50.1993
-47.5084
-50.0177
-33.4067
-34.3491
-33.7414
-34.4262
-31.2752
-32.677
-34.8102
-34.6866
-46.7783
-40.937
-46.9548
-42.5953
-49.8553
-49.9673
-39.2124
-40.2059
-40.7258
-39.3324
-40.6584
-39.4201
-43.3313
-43.7133
-38.3926
-38.4537
-28.5412
-25.3561
-33.0831
-31.2692
-30.3035
-32.2928
-23.6232
-27.6127
-37.3704
-37.8229
-37.2957
-37.6281
-36.7487
-36.775
-36.9591
-36.8027
-48.4719
-57.6652
-46.6795
-52.252
-43.5041
-44.5879
-64.9221
-59.4043
6.18784
-13.983
6.29712
-13.9151
15.9185
15.9024
-22.3497
-22.2917
-66.0695
-62.0245
-65.6808
-61.6599
-70.119
-69.9227
-60.6983
-60.5101
-34.93
-35.5726
-33.8953
-34.7584
-31.9442
-28.9507
-35.2619
-34.8959
-46.3123
-40.2172
-46.3985
-41.9693
-49.4488
-49.2494
-38.427
-39.5512
-27.8215
-24.3234
-32.0703
-30.0299
-31.4499
-29.4896
-22.6344
-26.4151
-47.5995
-56.8672
-45.5209
-51.367
-43.8466
-42.5985
-58.6091
-64.0778
-96.3264
-97.0897
-81.5196
-66.1806
-67.7356
-83.7908
-62.3887
-63.2277
-98.0207
-98.7498
-83.4366
-67.0512
-84.8343
-68.2668
-63.27
-62.4951
-63.7271
-65.1064
-68.3973
-54.1872
-67.551
-53.5458
-51.7277
-52.0737
-15.2042
-15.3748
-14.2219
-10.6743
-10.8464
-14.5353
0.553581
0.412073
188.874
185.173
194.852
194.476
123.626