# vtk DataFile Version 2.0
tri_press
ASCII
DATASET UNSTRUCTURED_GRID
POINTS 3682 float
-0.665 0.185 -1.75942
-0.784845 0.255 1.755
-0.685 0.585 -1.67191
-0.735 0.87892 1.835
0.655 0.185 -1.76391
0.784845 0.255 1.755
0.675 0.585 -1.675
0.735 0.878945 1.835
-0.749544 0.163738 -0.587947
-0.812547 0.164016 0.583527
-0.77345 0.754757 -0.50294
-0.782336 0.844949 0.66603
0.742896 0.163719 -0.59094
0.809369 0.163861 0.58203
0.768287 0.756268 -0.505
0.779977 0.845941 0.665
-1.41709 -0.157223 -2.73743
-1.41948 -0.10523 -1.80078
-1.49241 -0.120688 -0.629233
-1.56059 -0.135657 0.542596
-1.56341 -0.0781429 1.71417
-1.5572 -0.0230033 2.65094
-1.55566 0.0276551 3.5875
-1.41172 0.0995623 -2.69427
-1.41225 0.172498 -1.75791
-1.50179 0.180488 -0.587024
-1.56992 0.179756 0.583841
-1.55518 0.241088 1.75478
-1.55251 0.295444 2.69161
-1.55464 0.344625 3.62834
-1.4209 0.572216 -2.60757
-1.42863 0.641884 -1.6713
-1.51639 0.765732 -0.502159
-1.55088 0.83639 0.66658
-1.52203 0.878898 1.8358
-1.53542 0.929509 2.77276
-1.54882 0.9782 3.70994
-1.45328 1.39662 -2.47962
-1.46463 1.48374 -1.54372
-1.50259 1.6297 -0.375126
-1.53296 1.75525 0.792794
-1.54039 1.83284 1.96143
-1.54346 1.87926 2.89742
-1.54895 1.92335 3.83409
-0.696086 -0.150404 -2.73909
-0.680508 -0.0947521 -1.80241
-0.733373 -0.127858 -0.63032
-0.788644 -0.147615 0.542223
-0.790275 -0.0741277 1.71431
-0.786703 -0.0198338 2.65091
-0.786888 0.0288041 3.58726
-0.694248 0.0993844 -2.6958
-0.786107 0.300188 2.69155
-0.78781 0.346424 3.62808
-0.701087 0.548688 -2.60864
-0.772632 0.931449 2.77232
-0.785204 0.979794 3.70949
-0.71654 1.37945 -2.48052
-0.718569 1.46698 -1.54451
-0.744932 1.62458 -0.375866
-0.7704 1.75945 0.792037
-0.778208 1.83723 1.96068
-0.781182 1.88219 2.8967
-0.786048 1.92544 3.83341
0.700735 -0.150196 -2.74264
0.706559 -0.094644 -1.80621
0.761352 -0.127792 -0.63314
0.798839 -0.147653 0.540647
0.782428 -0.0741186 1.71374
0.766745 -0.0197662 2.65031
0.757116 0.0289326 3.58646
0.68371 0.0995591 -2.69946
0.758828 0.300244 2.69114
0.75175 0.34655 3.62737
0.689886 0.548917 -2.61186
0.741495 0.931556 2.77194
0.743246 0.979961 3.7088
0.739821 1.37998 -2.48314
0.753816 1.46762 -1.54695
0.764793 1.62537 -0.37787
0.759027 1.76013 0.790578
0.747705 1.83769 1.95962
0.743267 1.88253 2.89574
0.740521 1.92574 3.8324
1.41568 -0.156679 -2.74406
1.42555 -0.104734 -1.80751
1.50294 -0.120237 -0.634494
1.56795 -0.135456 0.539389
1.56278 -0.0780294 1.71248
1.54382 -0.0228093 2.64941
1.53055 0.0279482 3.58573
1.39605 0.100107 -2.70105
1.39507 0.173084 -1.76494
1.49105 0.181171 -0.592331
1.56923 0.180045 0.580838
1.55798 0.241165 1.75353
1.53594 0.295623 2.69038
1.52458 0.344918 3.62674
1.40409 0.5729 -2.61378
1.41086 0.642785 -1.67733
1.50423 0.767507 -0.506706
1.54756 0.837571 0.663978
1.5221 0.879232 1.83465
1.51414 0.929809 2.77158
1.51257 0.978575 3.70837
1.4692 1.39769 -2.48478
1.48791 1.485 -1.54855
1.51458 1.63117 -0.379151
1.52243 1.75652 0.789773
1.51428 1.83373 1.95916
1.50888 1.87996 2.89534
1.50584 1.92398 3.83198
-0.678121 0.385 -1.71879
-0.00500003 0.184354 -1.76231
-0.711374 0.170266 -1.17368
-0.793417 0.56696 1.82849
0 0.221408 1.78859
-0.824691 0.183514 1.16926
-0.005 0.650312 -1.73877
-0.813946 0.7546 -1.08743
0 0.911131 1.8672
-0.807485 0.910752 1.25052
0.66872 0.385 -1.72317
0.70302 0.170288 -1.17743
0.793417 0.566972 1.82849
0.822807 0.183731 1.16852
0.807578 0.756569 -1.09
0.806759 0.911713 1.25
-0.781148 0.163775 -0.00221002
-0.807427 0.459247 -0.545443
-0.00332388 0.163252 -0.589443
-0.822716 0.504483 0.624778
-0.00158914 0.167642 0.582778
-0.778668 0.800628 0.081545
-0.00258168 0.935751 -0.50397
-0.00117936 1.16151 0.665515
0.776162 0.163761 -0.00445503
0.804708 0.459994 -0.54797
0.823286 0.504901 0.623515
0.774226 0.801199 0.08
-0.829373 0.422124 -1.13055
0.830246 0.422497 -1.13371
-0.00416195 0.168988 -1.17555
-0.00379084 0.842729 -1.08871
-0.00500001 0.385 -1.9939
-0.82338 0.481865 0.0396675
0.820659 0.482447 0.0377725
-0.00245651 0.165435 -0.00333253
-0.00188052 1.16505 0.0807725
-0.896187 0.535721 1.20989
0.896184 0.535937 1.20926
-0.00079457 0.180543 1.16889
-0.00058968 1.03373 1.25026
0 0.566966 1.9976
-0.66208 0.285 -1.72962
-0.335 0.184205 -1.76134
-0.691147 0.174674 -1.46655
-0.798375 0.41098 1.80099
-0.392422 0.299276 1.71072
-0.833279 0.190746 1.46213
-0.685646 0.485 -1.69943
-0.345 0.643217 -1.7309
-0.791501 0.711828 -1.37967
-0.743483 0.72294 1.81102
-0.3675 0.903553 1.85963
-0.772415 0.896008 1.54276
0.325 0.184378 -1.76341
0.652225 0.285 -1.73391
0.681951 0.174702 -1.47067
0.392422 0.299278 1.71072
0.798383 0.410986 1.801
0.832706 0.190485 1.46176
0.335 0.642696 -1.73192
0.676946 0.485 -1.70417
0.78275 0.712245 -1.3825
0.3675 0.903744 1.8598
0.74512 0.722959 1.81266
0.771711 0.896161 1.5425
-0.730366 0.167096 -0.880815
-0.765344 0.163758 -0.295078
-0.808505 0.296482 -0.566695
-0.375999 0.164365 -0.588695
-0.828276 0.164107 0.876395
-0.796949 0.163793 0.290658
-0.791386 0.347372 0.604153
-0.406131 0.167703 0.583153
-0.778047 0.739027 -0.795183
-0.805824 0.614695 -0.524192
-0.77547 0.777103 -0.210698
-0.416974 0.90317 -0.503455
-0.802329 0.885269 0.958273
-0.857837 0.702372 0.645404
-0.780553 0.82284 0.373788
-0.461874 1.14346 0.665773
0.722854 0.167108 -0.884183
0.36935 0.164358 -0.590192
0.759528 0.163741 -0.297698
0.805747 0.295883 -0.569455
0.825974 0.16391 0.875273
0.402901 0.167728 0.582404
0.792794 0.163782 0.288788
0.79192 0.346585 0.602773
0.772387 0.740874 -0.7975
0.411701 0.903706 -0.504485
0.802907 0.616336 -0.526485
0.770638 0.778115 -0.2125
0.801118 0.886577 0.9575
0.459524 1.14398 0.665258
0.857975 0.703593 0.644258
0.776485 0.822953 0.3725
-0.817074 0.403562 -1.42467
-0.341561 0.385 -1.90642
-0.00458099 0.17036 -1.46893
-0.00500002 0.284677 -1.79475
-0.823524 0.296195 -1.15212
-0.357768 0.169169 -1.17462
-0.886453 0.551341 1.51919
-0.396709 0.566963 1.96868
-0.000397285 0.188976 1.47874
0 0.394187 1.96489
-0.896732 0.359618 1.18958
-0.412743 0.181081 1.16908
-0.00439542 0.773861 -1.41374
-0.005 0.517656 -1.92392
-0.833658 0.588362 -1.10899
-0.408869 0.834311 -1.08807
-0.00029484 0.946556 1.55873
0 0.739048 1.95947
-0.89547 0.723237 1.2302
-0.404037 1.0162 1.25039
0.821109 0.403748 -1.42844
0.33186 0.385 -1.90967
0.829283 0.296392 -1.15557
0.349429 0.169177 -1.17649
0.886452 0.551455 1.51888
0.396709 0.566969 1.96867
0.896729 0.359834 1.18889
0.411006 0.182719 1.1687
0.834403 0.589533 -1.11186
0.401894 0.834217 -1.08936
0.895462 0.723825 1.22963
0.403085 1.0167 1.25013
-0.815293 0.316305 0.0187287
-0.390889 0.16643 -0.00277127
-0.829392 0.440685 -0.837999
-0.813715 0.470556 -0.252888
-0.00374291 0.167647 -0.882499
-0.00289019 0.164341 -0.296388
-0.82982 0.493174 0.332223
-0.887145 0.520102 0.917334
-0.00202282 0.166535 0.289723
-0.00119186 0.17307 0.875834
-0.834213 0.657841 0.0606062
-0.469334 1.14096 0.0811588
-0.00318626 0.883243 -0.796341
-0.0022311 1.06467 -0.211599
-0.00152994 1.19183 0.373144
-0.00088452 1.10711 0.957886
0.812356 0.316131 0.0166587
0.385894 0.166515 -0.00389378
0.831512 0.441245 -0.840841
0.810898 0.47122 -0.255099
0.827381 0.493674 0.330644
0.887123 0.520419 0.916386
0.831216 0.65871 0.0588863
0.465348 1.14147 0.0803863
-0.812259 0.290598 -1.44561
-0.824187 0.303844 -0.859407
-0.828271 0.597682 -0.816591
-0.821679 0.536681 -1.40217
0.818992 0.290696 -1.44956
0.826012 0.537266 -1.40547
0.824917 0.598832 -0.819171
0.828567 0.304124 -0.862512
-0.346384 0.170321 -1.46774
0.337214 0.170331 -1.4698
0.359608 0.16807 -0.883341
-0.367101 0.168071 -0.881657
-0.376934 0.769075 -1.3967
-0.398442 0.875824 -0.795762
0.392373 0.875751 -0.796921
0.368447 0.768885 -1.39812
-0.33828 0.284839 -1.92306
-0.34328 0.501328 -1.89548
0.33343 0.501328 -1.89967
0.32843 0.284839 -1.92498
-0.810872 0.306907 -0.273983
-0.810882 0.328068 0.311441
-0.849435 0.681811 0.353005
-0.818756 0.635637 -0.231793
0.807866 0.3066 -0.276398
0.815934 0.636959 -0.233799
0.846332 0.682019 0.351572
0.810079 0.327387 0.309716
-0.383484 0.165319 -0.295733
0.377683 0.165315 -0.297043
0.394444 0.167029 0.289255
-0.39839 0.167307 0.290191
-0.449252 1.03426 -0.211148
-0.478519 1.16804 0.373466
0.475389 1.16863 0.372822
0.444717 1.03498 -0.212049
-0.887944 0.346934 0.896864
-0.887474 0.385299 1.49066
-0.871923 0.723088 1.53097
-0.885984 0.698976 0.937803
0.887931 0.347107 0.895829
0.885287 0.699623 0.936943
0.87165 0.723392 1.53069
0.887509 0.38541 1.49032
-0.409905 0.173457 0.876114
0.407448 0.173516 0.875553
0.401714 0.190845 1.47025
-0.402583 0.190811 1.47044
-0.397898 1.09267 0.958079
-0.385769 0.9296 1.55074
0.385292 0.930178 1.55061
0.396242 1.09315 0.957693
-0.394566 0.402584 1.88767
0.394566 0.402587 1.88767
0.382104 0.731004 1.93089
-0.382104 0.730994 1.93084
-0.657332 0.235 -1.73831
-0.5 0.183481 -1.7615
-0.678032 0.179878 -1.61299
-0.796282 0.33299 1.78267
-0.588634 0.247049 1.76295
-0.821165 0.210769 1.60857
-0.685731 0.535 -1.68608
-0.515 0.583183 -1.67048
-0.7356 0.645763 -1.52579
-0.712229 0.80093 1.796
-0.55125 0.893599 1.84968
-0.754398 0.888155 1.68888
0.49 0.184101 -1.76425
0.647463 0.235 -1.74276
0.668501 0.179826 -1.61729
0.588634 0.24694 1.76306
0.79629 0.332993 1.78268
0.819664 0.211854 1.60838
0.505 0.583077 -1.67269
0.677162 0.535 -1.69078
0.728623 0.648371 -1.52875
0.55125 0.893611 1.84967
0.734899 0.800952 1.81867
0.754059 0.888256 1.68875
-0.741639 0.163732 -0.734381
-0.757444 0.163748 -0.441513
-0.808502 0.215371 -0.577321
-0.561562 0.16647 -0.588321
-0.820439 0.164035 0.729961
-0.804815 0.163838 0.437093
-0.849228 0.232064 0.59384
-0.609864 0.164809 0.58334
-0.773212 0.744355 -0.649061
-0.803453 0.691634 -0.513566
-0.774547 0.766017 -0.356819
-0.630801 0.900141 -0.503198
-0.785505 0.858282 0.812151
-0.851999 0.789617 0.655717
-0.781422 0.833872 0.519909
-0.613607 0.97721 0.665901
0.734587 0.163701 -0.737561
0.554903 0.166479 -0.590566
0.751211 0.16373 -0.444319
0.808589 0.212667 -0.580198
0.817641 0.163916 0.728651
0.606631 0.164803 0.582217
0.801112 0.163791 0.435409
0.849278 0.230906 0.592401
0.767688 0.745922 -0.65125
[...]
POINT_DATA 3682
SCALARS point_scalars float 1
LOOKUP_TABLE default
-50.2968
-41.8807
15.0293
-38.3507
-55.6022
-41.802
13.5354
-38.6686
-35.1869
-30.9115
-34.2862
-43.5747
-35.2219
-30.6756
-34.3233
-43.9997
-90.1184
-100.639
-37.6205
-28.8127
-50.493
-38.9382
-34.0663
26.6878
-97.2456
-33.1492
-27.323
-52.6362
-37.1378
-32.7392
47.7464
-107.152
-33.3353
-34.4155
-47.2768
-35.2297
-33.2637
6.1267
-71.9216
-54.5394
-46.5746
-40.4788
-38.4718
-38.4718
54.0638
-99.4259
-36.2385
-31.5307
-45.2961
-33.7337
-31.4026
109.831
-31.9268
-31.2703
178.478
-33.2465
-31.6222
59.1918
-62.0727
-40.246
-61.1511
-38.504
-35.043
-33.2465
57.3876
-103.967
-36.3889
-31.3575
-44.7252
-35.0897
-31.2038
57.3876
-31.8237
-31.2729
186.278
-33.2796
-30.9501
62.9852
-60.0801
-42.1865
-61.8406
-37.8146
-33.2796
-32.9441
-103.967
-94.2039
-41.9816
-28.4236
-50.5714
-38.881
-33.6481
86.4627
-95.1368
-33.31
-27.2836
-52.6942
-37.0793
-32.723
64.0863
-106.392
-33.3759
-34.5274
-47.4605
-35.2292
-33.2486
19.7306
-71.9388
-51.6073
-47.134
-40.5556
-38.821
-38.821
40.0297
-167.634
-52.2913
-37.3254
-32.719
-40.0469
18.5904
-68.1441
-32.8768
-53.1222
46.8043
-53.7065
-37.3131
-39.8388
-68.47
-53.2344
-30.4959
-32.7274
-38.5923
-27.1848
-35.1409
-44.0738
3.37897
-70.4169
-30.4499
-32.7601
-27.2102
-44.2181
-59.1028
-60.6768
-58.5071
-33.8958
171.425
-31.2706
-30.8638
-33.3304
-86.8874
-47.2386
-47.3065
-36.9583
-45.6478
-23.3923
59.4241
-127.478
-81.6579
-37.8258
-33.8843
-45.2558
32.3417
32.9192
-64.0863
-36.3763
-33.7214
-44.8611
-130.533
59.2602
-83.525
-33.9426
-37.7915
-44.8076
29.7197
38.455
-56.8657
-33.7263
-36.2856
-44.8828
-38.7328
-30.9161
-33.2261
-37.2512
-42.8678
-30.1608
-24.6193
-34.678
-40.545
-32.6673
-39.4159
-6.35189
-43.6595
-32.7779
-45.7778
-64.8286
-39.3069
-37.328
-30.9612
-33.1917
-42.7021
-34.6691
-29.7923
-24.2182
-40.9605
-6.06256
-32.71
-39.2465
-44.1647
-65.2191
-32.4812
-45.9288
-104.112
164.224
-83.4873
114.006
-58.5513
-55.1158
-50.2945
-30.891
-37.7831
-23.9918
-45.2588
-37.7668
-35.4984
118.486
-60.8922
-38.5742
-38.3736
-29.4427
-49.4573
-47.0289
-111.65
167.501
-59.3804
-55.6388
-50.3436
-30.8933
-45.3438
-37.5777
-62.0033
-39.3223
-49.5498
-47.0062
-30.6033
-32.2681
-43.4426
-30.5024
-44.9877
-34.8576
-31.2618
-41.2404
-33.4736
-36.3027
-34.0441
-79.3221
-18.4304
-15.6242
-90.1848
-56.0325
-29.9782
-32.2571
-44.461
-30.1031
-30.8385
-40.7567
-33.7692
-78.3676
-100.971
-43.4014
-43.0878
-109.508
-108.52
-113.19
-43.6407
-44.337
-79.3112
-79.6097
-42.3754
-42.1853
-37.3202
-25.1223
-25.1391
-35.0183
153.166
140.112
144.316
155.15
-29.8168
-30.0087
-34.2582
-32.4717
-29.4804
-32.134
-33.9068
-29.6977
-33.6533
-33.6402
-32.5704
-32.5774
-19.4609
-75.0513
-75.81
-19.2952
-37.4724
-49.8072
-50.8855
-38.8426
-38.5407
-38.9851
-50.9452
-49.7879
-36.963
-37.0014
-39.5608
-39.5605
-56.0094
-39.3091
-39.3027
-55.9606
-30.6047
-30.6571
-31.9584
-31.97
52.0636
-60.553
-113.886
-39.6042
-37.4886
-49.3208
33.0617
15.3975
6.08931
-36.4817
-34.9484
-41.5153
-33.5195
20.633
-117.975
-37.4598
-39.5543
-49.3475
15.4966
33.1112
6.82093
-34.9526
-36.6532
-41.611
-36.1698
-32.3944
-33.3561
-35.9759
-35.611
-30.6191
-27.4478
-33.4186
-35.2124
-33.3504
-36.6787
-26.9716
-37.5494
-36.7036
-45.1786
-49.8798
-37.0955
-35.8742
-32.4684
-33.38
-35.9455
-33.4393
-30.5345
-27.4645
-35.9167
-26.6671
-33.4488
-36.3921
-37.8697
-50.6585
-36.5046
-45.1619
56.2023
28.5027
-87.6189
141.506
-182.356
-186.189
-113.087
99.3047
-63.3881
-45.2242
-58.3014
-53.5412
-37.6025
-36.4972
-46.1979
-32.1236
-33.2703
-33.2982
-36.1411
-28.2292
-39.8461
-37.3555
-43.6215
-38.3803
19.6955
19.6424
-21.6098
57.535
-76.6864
-51.9112
-63.1798
-50.3434
-32.9626
-32.9621
-35.7111
-30.3107
-50.6446
-52.5402
-50.937
-50.392
61.5658
37.899
-72.1196
142.621
-65.0532
-45.9682
-58.8196
-54.493
-37.5741
-36.5419
-46.206
-32.1101
-39.7456
-37.2857
-43.6852
-38.1709
-80.6176
-52.6943
-64.2447
-52.5933
-50.4531
-52.7868
-51.0733
-50.3489
-30.5965
-29.755
-29.6964
-31.4265
-32.9703
-32.5541
-38.6168
-30.905
-38.2167
-38.2564
-41.6293
-36.4319
-25.2487
-29.6528
-29.7251
-22.2474
-35.1431
-35.1585
-34.0798
-35.1062
-42.349
-45.7424
-37.5219
-59.5159
0.728152
1.11713
-8.21194
0.976602
-69.5837
-69.6789
-81.4495
-62.1238
-30.4864
-29.6841
-29.2692
-31.363
-32.9657
-32.5809
-39.5955
-30.5773
-25.069
-29.4304
-29.1542
-22.3325
-42.2838
-45.7192
-37.4226
-59.3283
-72.9247
-58.8827
-59.9245
-50.3977
-76.0556
-60.1562
-61.3105
-51.5374
-68.4002
-57.623
-57.7969
-50.9178
-36.5805
-34.9912
-35.1227
-27.053
179.625
109.547
197.568
179.204
-30.8668
-30.8223
-31.5184
-32.2639
-30.3917
-30.388
-31.066
-31.9194
-33.0748
-33.8486
-33.2221
-33.0309
-85.5034
-50.8621
-91.6003
-85.5845
-48.972
-46.4351
-48.0494
-46.6003
-49.0025
-46.4891
-48.1193
-46.6693
-37.118
-37.2409
-37.0883
-36.1129
-41.6833
-45.818
-45.8141
-50.1826
-26.7584
-22.8466
-27.6611
-26.7709
-82.2672
121.636
-100.383
117.085
-95.4328
-79.7929
-48.0846
-31.7015
-40.7247
-30.7433
-48.9564
-41.8855
-70.4251
119.806
-22.2586
72.1567
-106.139
-49.7391
-45.7211
-32.5088
-36.2604
-32.1194
-49.5917
-41.2535
-100.079
119.754
-63.3389
122.469
-98.1752
-80.1857
-40.8117
-30.7981
-48.0452
-31.8997
-48.9546
-41.8736
-21.9469
73.708
-55.64
120.725
-104.902
-44.8149
-36.2524
-32.0526
-45.9018
-32.4877
-49.5019
-41.2513
-41.9082
-40.6267
-29.0202
-32.6224
-39.2076
-30.4572
-40.0564
-35.0057
-38.3478
-39.5483
-29.4695
-31.6838
-27.5016
-26.7823
-33.3173
-35.3638
-41.9131
-31.6153
-36.2046
-31.9381
-35.3869
-57.873
-17.0002
-5.12142
-41.4584
-57.6617
-33.5
-32.7042
-38.6125
-54.2767
-69.6599
-61.1897
-42.8492
-40.8381
-40.2435
-35.0443
-28.4444
-32.5834
-40.5859
-30.1287
-39.2639
-39.5224
-33.2982
-35.3693
-29.0326
-31.6063
-27.32
-27.2521
-42.8617
-31.5733
-16.7948
-4.65949
-37.0158
-31.7008
-35.056
-55.3457
-41.621
-57.9474
-70.1653
-61.058
-33.0824
-32.885
-38.4658
-54.4123
-102.698
-106.42
156.866
161.703
-82.4853
-82.6924
110.734
111.546
-72.271
-50.1409
-64.797
-47.9742
-50.4752
-50.8479
-29.8381
-31.8792
-38.2743
-38.2595
-28.7758
-28.8708
-44.8401
-47.1452
-36.8058
-38.1716
-36.5876
-36.254
126.976
127.248
-50.9053
-74.5953
-40.8747
-32.2959
-38.5077
-38.5087
-30.1664
-30.1651
-51.3361
-47.0155
-51.3642
-42.771
-110.722
-111.134
164.11
163.213
-75.8005
-50.8446
-65.1927
-48.2963
-50.9085
-50.4791
-29.8605
-31.8609
-43.9648
-47.1874
-36.8529
-38.1519
-78.21
-52.1627
-32.5747
-41.8023
-47.0935
-51.4258
-42.7562
-51.3266
-29.8881
-30.5517
-32.7876
-32.2926
-43.6243
-43.3009
-30.0768
-31.1367
-44.3275
-44.2262
-34.5322
-34.5462
-30.6916
-32.1427
-39.3873
-39.7927
-33.2638
-33.2693
-36.4135
-36.4358
-34.5906
-33.3501
-48.4031
-78.8684
-20.3589
-20.3306
-15.6058
-15.3589
-87.7746
-87.9499
-55.4993
-55.4979
-29.5368
-29.9173
-32.7367
-32.1887
-44.1639
-44.5608
-29.7324
-30.7869
-31.7323
-30.2369
-39.1388
-39.7626
-33.0485
-34.3864
-79.5793
-47.0145
-88.2481
-67.6705
-72.9643
-87.1239
-37.6694
-38.9047
-50.3157
-49.175
-35.7545
-51.8493
-50.6921
-37.5587
-26.351
-84.2471
-73.7536
-79.6175
-76.0395
-66.716
-76.0171
-75.7538
-17.606
-82.4031
-77.2044
-70.3327
-36.2263
-38.6801
-51.8188
-53.1558
-39.5184
-49.4748
-51.3787
-40.3102
-115.299
-110.983
-67.4983
-63.3971
-114.543
-64.1399
-67.6936
-111.835
-39.4764
-41.2508
-50.2653
-46.9189
-38.8719
-46.4922
-50.133
-41.177
-5.13479
-54.2063
-37.6809
-21.9312
-30.7948
-10.7195
-28.338
-44.339
-30.9059
-45.7425
-28.3979
-10.5466
-3.94126
-21.7166
-37.5383
-55.9253
100.231
116.135
94.151
93.5087
62.0991
62.0236
199.593
148.97
58.8742
149.812
200.177
62.0834
91.3344
94.6388
93.7375
118.1
-30.2803
-29.1736
-30.3032
-30.6382
-27.0778
-28.9859
-30.8492
-29.5153
-37.3151
-38.5041
-32.5493
-31.0962
-34.05
-31.2024
-31.7188
-36.945
-29.923
-30.3164
-29.882
-28.8466
-33.7937
-36.8193
-31.3017
-30.9549
-37.0882
-30.6069
-32.236
-38.3733
-26.4923
-29.0584
-30.3742
-28.4956
-33.9124
-36.0805
-33.5484
-31.8004
-33.9416
-31.7667
-33.5493
-36.1028
-32.3059
-33.9243
-32.9762
-31.3016
-32.3429
-31.3809
-32.9955
-33.9349
-36.922
-59.5639
-48.1303
0.2442
-51.9912
-79.132
-90.5297
-56.6334
-52.4907
-56.857
-90.6115
-79.2709
-34.5184
0.403642
-48.0764
-60.3426
-26.479
-41.4295
-45.8315
-23.8274
-49.4465
-46.5119
-48.2183
-45.0612
-45.1179
-50.7597
-49.9136
-45.6067
-36.6085
-27.8709
-47.1343
-47.3805
-26.7707
-24.8778
-45.7616
-40.1677
-36.9358
-47.6191
-47.2109
-27.9911
-45.4848
-45.6518
-49.9645
-50.8529
-49.3619
-45.0702
-48.2658
-46.4842
-35.1058
-35.0901
-36.2174
-37.2034
-35.0831
-37.2233
-36.2605
-35.095
-43.3097
-38.3026
-37.3795
-39.0708
-43.313
-39.1193
-37.383
-38.2306
-53.2289
-54.2359
-50.3485
-61.681
-37.8206
-35.7875
-41.9469
-45.6247
-37.8279
-45.6046
-41.9471
-35.7876
-53.6216
-61.7103
-50.3106
-54.213
-32.5812
-31.3957
-26.0264
-31.9907
-32.7506
-31.9808
-26.0397
-31.5
-33.1293
-30.7355
-29.0581
-32.4603
-33.1002
-32.5218
-29.0495
-30.742
-7.14028
-44.6364
-148.095
-40.7301
-39.3363
-45.1102
26.7704
19.9264
1.37664
-36.6844
-36.5413
-39.8855
-33.888
-16.5266
-114.178
-39.288
-40.6657
-44.8692
20.05
25.0981
9.35314
-36.5765
-37.3072
-39.9346
-37.279
-33.2327
-34.6585
-35.3096
-30.9426
-30.8532
-28.372
-32.8948
-34.6012
-33.5856
-35.2071
-35.3465
-41.5936
-39.9078
-44.3944
-45.6566
-37.0741
-35.2215
-33.4639
-34.3664
-32.8676
-32.9792
-30.881
-27.3793
-34.8371
-34.7845
-33.6076
-35.1669
-42.1453
-46.0625
-39.9835
-44.462
48.708
34.3787
-20.5135
114.017
-184.539
-174.783
-145.627
71.7404
-57.1147
-48.5468
-56.4814
-52.7496
-37.4707
-37.0813
-42.3914
-32.9388
-32.6095
-32.7041
-33.6424
-28.601
-40.0682
-38.7542
-42.8844
-39.0896
18.4774
18.5302
-7.79931
33.1908
-73.4221
-59.7207
-65.6762
-62.9011
-32.9117
-32.9257
-34.2769
-31.5899
-51.6032
-52.9146
-50.9137
-53.0128
49.6808
44.2497
-2.78734
118.61
-58.8791
-49.1131
-56.586
-54.1005
-37.4514
-37.0753
-42.3912
-32.9239
-39.87
-38.7077
-42.8435
-38.7835
-75.9756
-60.6322
-66.6271
-64.3589
-51.7389
-53.4746
-51.1096
-52.9303
-30.312
-30.5276
-29.6073
-30.9895
-32.8771
-32.6235
-35.1993
-31.4306
-38.4974
-38.518
-39.9889
-37.4548
-26.4401
-28.2532
-28.8375
-26.3183
-35.101
-35.0954
-34.4927
-35.2177
-43.2623
-45.1074
-40.8499
-51.1239
2.34411
2.36518
-1.9549
3.3945
-70.2007
-70.2384
-75.7428
-66.225
-30.2484
-30.5989
-29.3303
-30.91
-32.9357
-32.651
-35.8146
-31.2613
-26.4225
-28.2033
-28.4523
-26.5772
-43.1589
-45.3155
-41.0632
-50.6884
-65.321
-59.0358
-59.4822
-54.1805
-67.6622
-60.4842
-60.9681
-55.3825
-62.9356
-58.4137
-58.38
-54.4221
-35.9564
-34.2485
-34.2698
-30.839
174.617
107.697
193.016
174.692
-30.9956
-31.0732
-31.4034
-31.7203
-30.5605
-30.5912
-30.9956
-31.3456
-33.2806
-33.5288
-33.2434
-33.2635
-86.6787
-75.4882
-90.9551
-86.8125
-48.0058
-46.8225
-47.7056
-46.8065
-48.0637
-46.8822
-47.7797
-46.8683
-36.9805
-37.0744
-36.9765
-36.619
-43.6231
-45.6762
-45.6796
-47.896
-25.0002
-23.0696
-25.8356
-25.0168
62.2454
56.208
-51.1672
135.53
-140.51
-161.041
-113.889
73.2
-96.6657
-70.8956
-94.1946
-80.1429
-38.5089
-37.5679
-43.5725
-33.3974
-34.7912
-33.2527
-40.1567
-32.9655
-49.3823
-41.2271
-48.414
-43.1573
32.484
30.4148
-9.75862
90.8014
42.8726
22.1847
-6.53746
47.8925
-39.5481
-74.5669
-97.4541
-55.1391
-36.4753
-36.4219
-41.9645
-33.2364
-34.3652
-33.1726
-34.7294
-32.5427
-43.0882
-47.9818
-48.1418
-42.7093
-145.099
-167.333
-114.116
82.0007
55.934
60.3686
-28.1357
137.687
-99.9765
-72.6988
-90.9832
-81.2551
-34.8505
-33.3109
-40.1948
-33.0335
-38.4255
-37.5201
-43.5241
-33.2967
-49.6033
-41.012
-48.3649
-43.0978
32.0247
21.761
-6.08047
45.1919
36.1518
38.2297
5.84296
95.5399
-36.3993
-72.5193
-94.9146
-56.3638
-34.3433
-33.1716
-34.724
-32.5107
-36.3755
-36.5088
-41.8226
-33.118
-43.1173
-47.9298
-48.0693
-42.7091
-37.3251
-41.8224
-41.5248
-39.9173
-30.7725
-30.4907
-28.5709
-32.0006
-33.1287
-33.0692
-36.053
-31.5444
-36.8213
-37.7545
-38.773
-35.9429
-37.3209
-41.4535
-41.6428
-40.9938
-30.5634
-29.7611
-29.1672
-31.2053
-26.2185
-24.669
-27.3855
-21.8683
-33.6117
-35.1355
-33.8526
-35.208
-37.8756
-45.5245
-41.3556
-37.9257
-32.9194
-32.5339
-33.9997
-32.0622
-38.1145
-40.5411
-37.3308
-46.1249
-13.3954
-1.38464
-10.9217
-4.03368
-39.1583
-47.774
-42.2092
-58.7611
-34.0101
-31.3633
-33.2956
-31.9139
-45.0303
-45.7256
-42.2637
-50.2826
-57.2914
-68.1709
-67.0525
-63.6159
-37.9263
-42.5515
-41.7591
-40.2741
-36.8399
-37.8164
-38.914
-36.014
-31.4576
-30.5135
-28.3869
-31.9967
-32.9666
-33.0523
-36.9862
-31.3003
-37.4426
-41.3954
-41.6367
-41.0418
-33.6033
-35.1358
-33.8355
-35.2409
-30.163
-29.6284
-28.7481
-31.0473
-26.3123
-24.4059
-26.8413
-21.8239
-38.316
-46.4151
-42.3286
-38.0087
-13.2548
-1.2775
-10.7993
-3.67307
-33.008
-32.5687
-34.1957
-31.8869
-37.7008
-40.4183
-37.0833
-45.7114
-39.3877
-47.9411
-42.3697
-59.0567
-58.3037
-68.3034
-67.5992
-63.5547
-33.7321
-31.0868
-32.4642
-32.1831
-45.2161
-45.8187
-42.3889
-50.1895
-117.343
-85.2441
-102.542
-104.82
150.538
177.117
162.351
166.208
-94.5051
-74.8635
-83.3563
-83.3984
117.202
110.717
113.493
112.484
-58.415
-58.7065
-63.5624
-53.4951
-54.1489
-56.4713
-59.4215
-51.2638
-48.5329
-50.7403
-50.1343
-50.4182
-31.6506
-28.8085
-30.1344
-31.8222
-37.6784
-37.689
-37.867
-37.8478
-26.114
-22.9763
-25.7652
-25.9999
-44.4475
-45.9061
-44.902
-45.8986
-38.0553
-37.4646
-37.2917
-37.8833
-31.0102
-37.917
-35.9179
-35.7579
87.4672
156.322
121.803
121.85
-61.3588
-60.2999
-55.4213
-67.5992
-42.3338
-36.3526
-39.784
-35.639
-37.07
-39.8527
-38.3716
-38.3741
-29.7539
-28.5701
-29.6463
-29.6474
-50.6052
-48.5233
-50.23
-48.3325
-48.8127
-46.1543
-49.1616
-44.7948
-119.49
-89.1041
-109.62
-110.367
150.567
172.43
167.668
164.953
-58.9944
-59.7583
-66.5185
-54.2866
-54.9635
-56.7663
-59.9106
-51.6759
-48.5405
-50.79
-50.4879
-50.1518
-31.6508
-28.8214
-30.1472
-31.8063
-44.5487
-45.9728
-45.0499
-45.9532
-37.9047
-37.3045
-37.3963
-37.6502
-62.552
-61.4991
-69.1629
-56.3181
-43.7539
-36.6542
-36.2291
-40.5216
-50.7467
-48.5984
-48.4283
-50.3254
-48.7553
-46.1512
-44.7821
-49.1403
-30.2768
-30.7974
-30.2785
-30.7386
-31.8711
-32.7363
-32.3618
-32.3116
-41.2747
-46.643
-43.5592
-43.375
-30.5866
-30.6157
-30.2794
-30.7755
-43.1048
-47.8005
-44.8771
-44.847
-35.5442
-34.253
-34.7819
-34.7877
-30.4758
-31.6713
-31.0178
-31.626
-30.1296
-44.0246
-40.4488
-40.9611
-33.7492
-33.3222
-33.421
-33.4267
-35.552
-36.2869
-36.2814
-36.2743
-35.2747
-33.0324
-34.3084
-33.7529
-79.6454
-82.6615
-65.3212
-77.0245
-13.677
-23.5701
-19.2036
-19.225
-6.40003
-30.5344
-15.8763
-15.8098
-86.442
-92.1375
-89.6402
-89.7168
-59.0018
-52.9005
-55.7116
-55.6793
-29.675
-30.2235
-29.7825
-30.2779
-31.8291
-32.659
-32.4755
-32.1806
-41.8506
-47.7166
-44.3554
-44.5155
-30.2704
-30.1885
-29.9153
-30.4252
-30.087
-31.2482
-31.221
-30.5532
-29.2919
-44.1373
-40.0227
-40.7318
-35.0511
-32.7179
-33.4305
-34.0608
-76.5723
-82.7777
-78.2534
-65.1134
-105.514
-98.3711
-102.125
-86.6724
-43.2481
-41.3192
-46.2424
-43.5327
-42.5061
-40.0724
-46.1307
-43.2617
-110.696
-112.84
-107.452
-86.2731
-104.529
-106.241
-107.605
-90.7076
-107.493
-116.381
-111.003
-90.3816
-43.2676
-40.8302
-47.6988
-43.9277
-44.3869
-41.9437
-47.5209
-44.4149
-87.9242
-79.1091
-80.837
-71.1285
-88.0859
-79.4478
-81.1228
-71.4835
-41.1179
-41.0754
-45.1961
-43.4311
-41.1693
-40.8895
-45.0084
-43.3134
-31.9344
-42.9468
-36.3601
-39.8392
-28.174
-20.5748
-28.5469
-22.6067
-28.0166
-20.4736
-28.6512
-22.5884
-31.6603
-34.0159
-35.6544
-37.8976
103.186
156.174
155.813
109.46
124.768
117.158
152.785
139.003
117.099
125.689
140.633
155.989
158.233
103.165
109.182
162.611
-29.6956
-29.9334
-29.8091
-29.9236
-30.2282
-29.1024
-30.5111
-30.3253
-33.9146
-35.723
-32.9576
-34.4081
-32.0894
-33.5571
-31.6753
-32.9428
-29.3346
-29.6066
-29.4487
-29.5734
-31.8098
-32.9735
-31.3924
-32.6166
-33.5918
-35.3561
-32.4869
-34.2868
-29.7359
-28.6047
-30.0129
-29.8755
-33.1367
-34.2241
-33.1312
-34.146
-34.2379
-33.1133
-34.1681
-33.0776
-32.9204
-32.1147
-32.9894
-32.4373
-32.157
-32.9127
-32.4389
-32.9867
-33.3184
-10.0134
-33.579
-16.2424
-63.1006
-73.2375
-77.7635
-83.981
-73.7851
-64.2073
-84.3026
-78.3727
-9.49888
-32.9285
-15.9726
-32.1875
-37.5097
-32.1974
-42.4161
-38.0899
-49.454
-49.1128
-50.1796
-49.5477
-48.8586
-50.4283
-51.1856
-52.1409
-39.8835
-35.04
-44.2724
-38.6313
-38.8738
-32.3597
-41.4353
-38.2947
-40.0433
-35.2305
-44.3134
-38.7792
-48.9335
-50.4061
-51.2492
-52.2312
-49.4479
-49.1026
-50.1688
-49.5556
-38.0403
-36.0903
-36.8618
-36.5642
-38.0723
-36.1026
-36.8853
-36.5733
-40.6657
-40.4571
-38.8192
-39.0774
-40.6218
-40.4699
-38.8257
-39.0894
-57.5774
-58.6782
-53.6635
-55.5418
-37.7863
-40.1105
-38.83
-40.9876
-37.7759
-40.0995
-38.8264
-40.981
-57.3421
-58.6505
-53.6321
-55.5578
-31.3726
-32.2756
-29.9133
-29.6383
-32.3337
-31.4653
-29.6992
-29.9614
-32.0381
-32.3011
-30.9697
-31.8669
-32.3367
-32.0512
-31.8816
-30.9821
-86.3652
123.924
-147.822
4.65774
-92.7316
-115.228
-45.0283
-34.7299
-39.6559
-36.1186
-50.8397
-44.7254
-8.80534
64.2593
23.4424
47.1853
-5.72065
14.77
-41.6128
-33.7093
-36.4418
-33.6633
-45.0095
-38.9591
-147.025
-0.963569
-58.2341
132.157
-86.7336
-117.992
-39.6541
-35.9062
-44.9606
-34.3117
-50.8094
-44.7061
26.958
43.7928
9.23236
63.7651
-2.39664
17.5023
-36.4508
-33.6673
-40.5391
-33.7988
-45.2107
-38.9781
-32.7723
-38.2852
-31.8553
-33.3046
-37.0636
-31.4886
-36.9659
-34.8775
-33.2287
-34.9533
-28.8292
-31.7962
-27.9468
-26.7675
-32.8122
-34.2343
-34.9335
-37.513
-34.2353
-33.2641
-35.2182
-41.2005
-30.3271
-28.1648
-38.3698
-41.542
-37.5677
-35.9668
-41.4103
-48.73
-50.8763
-49.5837
-34.4619
-38.8576
-37.4714
-34.9088
-30.8101
-33.3581
-37.8208
-31.2861
-34.2534
-34.9757
-32.8018
-34.2597
-28.4102
-31.747
-27.4693
-27.2296
-35.3949
-37.5861
-30.6736
-26.7696
-34.4336
-33.3286
-34.9253
-41.2774
-38.7397
-41.3921
-51.4298
-49.8524
-36.9355
-36.2352
-40.693
-48.7358
-31.9245
115.185
-12.0882
106.715
-87.1858
-88.3589
125.842
148.379
-135.845
66.2869
-134.833
67.1962
-112.982
-112.846
96.7858
96.2021
-65.9189
-63.0503
-48.3809
-45.9241
-59.5842
-52.252
-57.8792
-49.7564
-42.9305
-32.9903
-41.3331
-33.2538
-46.523
-46.0926
-31.9489
-32.3956
-37.0036
-32.4928
-37.0905
-32.5844
-36.7786
-36.7314
-28.8373
-28.8763
-43.1312
-39.3771
-39.8019
-36.9123
-43.1109
-43.676
-37.6875
-38.6191
-6.43762
34.1923
-6.30852
34.3333
-21.628
-21.6137
58.9729
59.1129
-82.4696
-68.6995
-52.1441
-49.5626
-56.8655
-70.6287
-50.5516
-46.0593
-34.3601
-31.7174
-34.3582
-31.7033
-35.7525
-35.7529
-30.6491
-30.6485
-49.5809
-47.5611
-49.2089
-57.3174
-51.2075
-49.9835
-52.2915
-47.9062
-14.1688
120.166
3.03187
110.117
-69.9072
-74.5796
150.197
126.054
-69.3301
-63.8069
-48.1238
-46.4617
-64.0431
-52.273
-58.8505
-50.5665
-42.8911
-32.9757
-41.3722
-33.1971
-46.1253
-46.5016
-31.9448
-32.364
-43.0931
-39.3269
-39.1494
-36.9042
-43.2786
-43.7038
-37.7449
-38.3658
-85.489
-69.4261
-53.3403
-49.9187
-72.2157
-58.0006
-47.2892
-53.0063
-49.7749
-47.5257
-49.3915
-57.4535
-50.1975
-51.3171
-47.8732
-52.2355
-29.2059
-31.3228
-29.1412
-30.8687
-29.2434
-29.4858
-31.5388
-31.38
-35.7452
-31.4321
-34.3771
-31.5865
-38.8474
-38.1561
-30.7677
-31.0298
-39.6006
-37.0935
-39.6577
-37.1269
-41.5507
-41.5178
-36.3497
-36.3607
-27.4673
-22.8727
-30.6149
-28.0883
-29.3351
-30.2978
-22.7803
-24.1759
-34.4081
-35.1951
-34.4056
-35.1985
-34.0383
-34.0415
-35.0977
-35.1053
-39.6664
-49.0683
-41.9687
-50.9316
-37.9578
-37.2697
-60.496
-57.9986
-4.56141
2.20387
-4.41903
2.3549
-8.95308
-8.87472
0.882575
0.906365
-73.8913
-65.6988
-73.841
-65.7554
-80.9707
-81.0341
-61.939
-61.9643
-29.0401
-31.2628
-28.8507
-30.7588
-28.8762
-29.091
-31.4883
-31.3004
-36.351
-31.2466
-34.6145
-31.4374
-39.4089
-40.0581
-30.448
-30.7349
-27.1854
-23.1793
-30.0548
-28.2335
-29.7884
-28.8195
-23.2566
-24.3993
-39.6229
-48.876
-41.9133
-50.9172
-37.1529
-37.8209
-58.2238
-61.0532
-73.1904
-73.2381
-64.4475
-53.944
-54.8133
-66.456
-50.3311
-50.5538
-76.2507
-76.2483
-67.2066
-55.0288
-68.2402
-55.911
-51.6386
-51.4429
-68.212
-68.2885
-62.016
-53.4718
-62.2119
-53.7541
-50.8056
-50.7525
-36.8895
-36.8255
-37.1587
-32.0888
-32.2517
-37.1258
-27.3613
-27.3751
132.156
201.631
94.6912
95.0757
199.229
199.306