# vtk DataFile Version 2.0
tet_velo
ASCII
DATASET UNSTRUCTURED_GRID
POINTS 29498 float
-0.775 0.105 -1.86349
-0.885 0.015 1.75432
-0.785 0.665 -1.64787
-0.655 0.962752 1.825
0.775 0.105 -1.86345
0.885 0.015 1.75432
0.785 0.665 -1.64784
0.655 0.962755 1.825
-0.794149 0.0925172 -0.657553
-0.829206 0.0641278 0.548383
-0.799619 0.822203 -0.490247
-0.767902 0.93307 0.667377
0.794094 0.0925731 -0.657527
0.82897 0.0643635 0.548397
0.799583 0.822168 -0.490227
0.767908 0.933078 0.667387
-1.5585 -0.302825 -2.88926
-1.56331 -0.255121 -1.94386
-1.57648 -0.272838 -0.736679
-1.59254 -0.333339 0.480233
-1.61582 -0.387335 1.68824
-1.6306 -0.389126 2.63764
-1.64078 -0.368177 3.57963
-1.56143 0.0300547 -2.79882
-1.56623 0.0961113 -1.8587
-1.58113 0.109173 -0.660917
-1.59054 0.0869783 0.541221
-1.60483 0.0489376 1.73993
-1.62971 0.0484524 2.68866
-1.64536 0.0665779 3.63221
-1.56704 0.660804 -2.60438
-1.57375 0.721382 -1.66226
-1.58069 0.845687 -0.497413
-1.53849 0.937984 0.664017
-1.46742 0.961848 1.82979
-1.5592 0.955635 2.78052
-1.62461 0.95715 3.73186
-1.57032 1.74274 -2.34904
-1.57408 1.82453 -1.41416
-1.57533 1.98171 -0.264979
-1.56389 2.13693 0.873793
-1.55574 2.22569 2.02348
-1.57914 2.25168 2.95942
-1.61853 2.25975 3.90549
-0.773533 -0.297938 -2.89236
-0.774975 -0.246067 -1.9484
-0.784806 -0.279023 -0.736059
-0.800639 -0.351826 0.486347
-0.829528 -0.414269 1.69892
-0.852438 -0.408984 2.64489
-0.864603 -0.381333 3.58382
-0.776101 0.027598 -2.79977
-0.876471 0.0311716 2.69464
-0.879859 0.0553361 3.63538
-0.780695 0.635313 -2.59839
-0.819585 0.951837 2.77956
-0.872937 0.952911 3.73166
-0.784227 1.72121 -2.34312
-0.787905 1.80222 -1.40764
-0.794288 1.97047 -0.261047
-0.796634 2.13915 0.873329
-0.801017 2.23223 2.02013
-0.825785 2.25669 2.95607
-0.861481 2.26252 3.90305
0.792019 -0.297926 -2.89233
0.788808 -0.246051 -1.94836
0.805467 -0.278956 -0.736033
0.84111 -0.351659 0.486361
0.866934 -0.414206 1.69892
0.77703 -0.408933 2.6449
0.720411 -0.381278 3.58383
0.786943 0.0276036 -2.79973
0.733365 0.0312056 2.69464
0.688859 0.0553852 3.63539
0.787914 0.635315 -2.59836
0.652247 0.951864 2.77956
0.647626 0.952954 3.73167
0.788133 1.72122 -2.3431
0.785266 1.80222 -1.40762
0.771773 1.97047 -0.261028
0.738615 2.13917 0.873343
0.697458 2.23226 2.02014
0.672509 2.25672 2.95607
0.652349 2.26257 3.90306
1.57917 -0.302796 -2.8892
1.57776 -0.255082 -1.9438
1.59733 -0.272722 -0.736631
1.63192 -0.333096 0.480261
1.64715 -0.387174 1.68825
1.57869 -0.389005 2.63766
1.51771 -0.36806 3.57964
1.57331 0.0300715 -2.79876
1.56915 0.0961254 -1.85864
1.58664 0.109258 -0.660869
1.6077 0.0872285 0.541248
1.6151 0.0490743 1.73994
1.53787 0.0485535 2.68867
1.48462 0.0666849 3.63223
1.57373 0.660811 -2.60432
1.57358 0.721375 -1.66221
1.58063 0.84569 -0.497371
1.54463 0.93808 0.664041
1.46146 0.96194 1.8298
1.43937 0.955717 2.78053
1.42907 0.957244 3.73188
1.57365 1.74276 -2.349
1.57023 1.82455 -1.41412
1.55452 1.98173 -0.264941
1.51418 2.13699 0.873821
1.46358 2.22576 2.0235
1.43656 2.25177 2.95944
1.41969 2.25984 3.90551
-0.779211 0.385 -1.75489
0 0.0146367 -1.95383
-0.796278 0.0870554 -1.26052
-0.77551 0.488876 1.79517
0 0.134087 1.63523
-0.883429 0.0132373 1.15135
0 0.76864 -1.75149
-0.837461 0.788753 -1.06906
0 1.02972 1.89196
-0.7503 0.98676 1.24619
0.779121 0.385 -1.75477
0.796298 0.0870355 -1.26049
0.775424 0.488878 1.79508
0.883429 0.0132374 1.15136
0.837363 0.788656 -1.06903
0.75032 0.986782 1.24619
-0.820371 0.0696289 -0.054585
-0.839457 0.45736 -0.5739
-2.79664e-05 0.0920178 -0.65754
-0.842424 0.498599 0.60788
-0.000117839 0.100506 0.54839
-0.778397 0.872273 0.0885651
-1.78887e-05 1.19372 -0.490237
2.82911e-06 1.38639 0.667382
0.819652 0.0703481 -0.054565
0.839446 0.457371 -0.573877
0.842418 0.498721 0.607892
0.7784 0.872277 0.08858
-0.899022 0.42118 -1.16479
-0.840141 0.47798 0.01699
-0.897918 0.493737 1.19877
-1.39832e-05 0.0987726 -1.26051
-7.29029e-05 0.100506 -0.054575
-5.89196e-05 0.107764 1.15136
0 0.385 -2.10296
0 0.488877 2.09652
-8.94435e-06 0.895115 -1.06905
-7.5298e-06 1.37595 0.0885725
1.41455e-06 1.31248 1.24619
0.899022 0.421185 -1.16476
0.840128 0.478046 0.0170075
0.897917 0.493799 1.19878
-1.17062 0.100556 -1.8611
-0.774987 -0.0705335 -1.90594
-0.77555 0.066299 -2.33163
-1.24491 0.0319688 1.74713
-0.857264 -0.199635 1.72662
-0.880735 0.0230858 2.22448
-1.17937 0.693191 -1.65507
-0.782847 0.650156 -2.12313
-0.786453 1.23361 -1.52776
-1.06121 0.9623 1.8274
-0.737292 0.957294 2.30228
-0.728009 1.59749 1.92256
0.781904 -0.0705255 -1.90591
0.780972 0.0663018 -2.33159
1.17207 0.100563 -1.86104
0.875967 -0.199603 1.72662
0.809183 0.0231028 2.22448
1.25005 0.0320372 1.74713
0.786457 0.650157 -2.1231
0.785133 1.23361 -1.52773
1.17929 0.693188 -1.65502
0.653623 0.95731 2.30228
0.676229 1.59751 1.92257
1.05823 0.962348 1.8274
-1.18764 0.100845 -0.659235
-0.789478 -0.0932527 -0.696806
-1.20987 0.075553 0.544802
-0.814922 -0.143849 0.517365
-1.19015 0.833945 -0.49383
-0.796954 1.39633 -0.375647
-1.1532 0.935527 0.665697
-0.782268 1.53611 0.770353
0.79978 -0.0931917 -0.69678
1.19037 0.100915 -0.659198
0.83504 -0.143648 0.517379
1.21833 0.075796 0.544822
0.785678 1.39632 -0.375627
1.19011 0.833929 -0.493799
0.753261 1.53612 0.770365
1.15627 0.935579 0.665714
-1.5609 -0.278973 -2.41656
-1.55997 -0.136385 -2.84404
-1.16602 -0.300381 -2.89081
-1.5699 -0.263979 -1.34027
-1.56477 -0.0795047 -1.90128
-1.16914 -0.250594 -1.94613
-1.58451 -0.303089 -0.128223
-1.57881 -0.0818325 -0.698798
-1.18065 -0.27593 -0.736369
-1.60418 -0.360337 1.08423
-1.59154 -0.123181 0.510727
-1.19659 -0.342583 0.48329
-1.62321 -0.388231 2.16294
-1.61032 -0.169199 1.71409
-1.22267 -0.400802 1.69358
-1.63569 -0.378652 3.10863
-1.63016 -0.170337 2.66315
-1.24152 -0.399055 2.64127
-1.64307 -0.1508 3.60592
-1.25269 -0.374755 3.58172
-1.56383 0.063083 -2.32876
-1.56423 0.345429 -2.7016
-1.16877 0.0288263 -2.79929
-1.57368 0.102642 -1.25981
-1.56999 0.408747 -1.76048
-1.58583 0.0980756 -0.0598478
-1.58091 0.47743 -0.579165
-1.59768 0.0679579 1.14058
-1.56451 0.512481 0.602619
-1.61727 0.048695 2.2143
-1.53612 0.505393 1.78486
-1.63753 0.0575152 3.16044
-1.59445 0.502044 2.73459
-1.25309 0.039812 2.69165
-1.63499 0.511864 3.68204
-1.26261 0.060957 3.6338
-1.57039 0.691093 -2.13332
-1.56868 1.20177 -2.47671
-1.17387 0.648058 -2.60139
-1.57722 0.783535 -1.07984
-1.57391 1.27296 -1.53821
-1.55959 0.891836 0.0833019
-1.57801 1.4137 -0.381196
-1.50295 0.949916 1.24691
-1.55119 1.53746 0.768905
-1.51331 0.958741 2.30515
-1.51158 1.59377 1.92664
-1.5919 0.956393 3.25619
-1.56917 1.60366 2.86997
-1.18939 0.953736 2.78004
-1.62157 1.60845 3.81868
-1.24877 0.955031 3.73176
-1.5722 1.78364 -1.8816
-1.17727 1.73198 -2.34608
-1.5747 1.90312 -0.839571
-1.18099 1.81338 -1.4109
-1.56961 2.05932 0.304407
-1.18481 1.97609 -0.263013
-1.55982 2.18131 1.44864
-1.18026 2.13804 0.873561
-1.56744 2.23868 2.49145
-1.17838 2.22896 2.0218
-1.59884 2.25571 3.43245
-1.20246 2.25418 2.95774
-1.24001 2.26114 3.90427
-0.774254 -0.272002 -2.42038
-0.774817 -0.13517 -2.84606
0.00924267 -0.297932 -2.89235
-0.77989 -0.262545 -1.34223
0.00691683 -0.246059 -1.94838
-0.792723 -0.315424 -0.124856
0.0103305 -0.278989 -0.736046
-0.815084 -0.383048 1.09263
0.0202352 -0.351743 0.486354
-0.840983 -0.411627 2.17191
0.0187029 -0.414238 1.69892
-0.858521 -0.395158 3.11436
-0.864454 -0.188906 2.66976
-0.0377041 -0.408958 2.6449
-0.872231 -0.162999 3.6096
-0.0720961 -0.381305 3.58383
-0.778398 0.331455 -2.69908
0.0054212 0.0276008 -2.79975
-0.878165 0.0432539 3.16501
-0.848028 0.491504 2.7371
-0.0715529 0.0311886 2.69464
-0.876398 0.504124 3.68352
-0.0955004 0.0553607 3.63538
-0.782461 1.17826 -2.47076
0.00360956 0.635314 -2.59838
-0.846261 0.952374 3.25561
-0.822685 1.60426 2.86781
-0.083669 0.951851 2.77956
-0.867209 1.60772 3.81736
-0.112656 0.952932 3.73166
-0.786066 1.76171 -1.87538
0.00195265 1.72121 -2.34311
-0.791096 1.88634 -0.834345
-0.00131962 1.80222 -1.40763
-0.795461 2.05481 0.306141
-0.0112574 1.97047 -0.261037
-0.798826 2.18569 1.44673
-0.0290095 2.13916 0.873336
-0.813401 2.24446 2.4881
-0.0517794 2.23224 2.02013
-0.843633 2.25961 3.42956
-0.0766377 2.25671 2.95607
-0.104566 2.26255 3.90306
0.790414 -0.271988 -2.42035
0.789481 -0.135161 -2.84603
1.1856 -0.300361 -2.89076
0.797138 -0.262504 -1.3422
1.18328 -0.250567 -1.94608
0.823288 -0.315308 -0.124836
1.2014 -0.275839 -0.736332
0.854022 -0.382933 1.09264
1.23652 -0.342377 0.483311
0.821982 -0.41157 2.17191
1.25704 -0.40069 1.69359
0.74872 -0.395105 3.11436
0.755197 -0.188864 2.66977
1.17786 -0.398969 2.64128
0.704635 -0.162946 3.60961
1.11906 -0.374669 3.58174
0.787429 0.331459 -2.69905
1.18013 0.0288376 -2.79925
0.711112 0.0432954 3.16501
0.692806 0.491535 2.7371
1.13562 0.0398796 2.69165
0.668242 0.504169 3.68353
1.08674 0.0610351 3.63381
0.788023 1.17827 -2.47073
1.18082 0.648063 -2.60134
0.649936 0.952409 3.25561
0.662378 1.60429 2.86782
1.04581 0.953791 2.78004
0.649987 1.60776 3.81736
1.03835 0.955099 3.73177
0.786699 1.76172 -1.87536
1.18089 1.73199 -2.34605
0.778519 1.88635 -0.834325
1.17775 1.81339 -1.41087
0.755194 2.05482 0.306157
1.16315 1.9761 -0.262985
0.718037 2.18572 1.44674
1.1264 2.13808 0.873582
0.684984 2.24449 2.4881
1.08052 2.22901 2.02182
0.662429 2.25965 3.42957
1.05454 2.25425 2.95776
1.03602 2.2612 3.90429
1.57847 -0.278939 -2.4165
1.57624 -0.136362 -2.84398
1.58755 -0.263902 -1.34022
1.57345 -0.0794785 -1.90122
1.61463 -0.302909 -0.128185
1.59199 -0.0817323 -0.69875
1.63954 -0.360135 1.08426
1.61981 -0.122934 0.510755
1.61292 -0.38809 2.16296
1.63112 -0.16905 1.7141
1.5482 -0.378532 3.10865
1.55828 -0.170226 2.66316
1.50117 -0.150688 3.60593
1.57123 0.0630984 -2.3287
1.57352 0.345441 -2.70154
1.5779 0.102691 -1.25975
1.57136 0.40875 -1.76042
1.59717 0.098243 -0.0598103
1.58364 0.477474 -0.57912
1.6114 0.0681514 1.1406
1.57616 0.512654 0.602645
1.57648 0.0488139 2.21431
1.53828 0.505507 1.78487
1.51125 0.0576192 3.16045
1.48862 0.502136 2.7346
1.45685 0.511965 3.68205
1.57365 0.691093 -2.13327
1.57369 1.20179 -2.47666
[...]
POINT_DATA 29498
VECTORS point_vectors float
-3.27514 -4.89278 10.979
0.541954 1.37431 8.30963
-1.72315 1.22157 3.81612
-0.00635612 -0.0346875 0.0530318
3.25472 -4.88999 10.9497
-0.452317 0.807812 7.19681
1.71213 1.22289 3.80459
-0.0714177 0.0580229 0.0254453
-0.0265958 0.0462398 0.429999
0.00488784 0.0501103 1.22611
0.0114081 0.0241832 0.151026
0 0 0
0.019853 0.045254 0.431836
-0.0205131 0.0368707 1.20699
-0.0111038 0.0235703 0.148208
0 0 0
-0.671085 -0.348937 19.8959
-1.20337 -0.752475 20.5402
-0.470508 -0.446837 21.4751
-0.0412938 -0.184862 21.5417
0.3449 0.0753878 21.653
0.590741 0.249682 21.3311
0.733295 0.30775 20.8462
-0.924405 -0.293857 19.8102
-1.72282 -0.648575 20.5344
-0.666265 -0.539525 21.5443
-0.122464 -0.298224 21.5779
0.482559 -0.00651418 21.7351
0.877202 0.132434 21.4489
0.922581 0.107106 21.4238
-1.17278 0.084227 19.7152
-2.05652 0.0860126 20.6458
-1.17819 -0.33301 21.5559
-0.489581 -0.303113 21.8154
0.463479 -0.479826 21.8401
0.854552 -0.488446 21.4001
1.0246 -0.557845 21.1127
-0.739707 0.538393 20.1062
-0.993822 0.642793 20.6378
-0.795375 0.396584 21.2895
-0.300538 0.0514808 21.5948
0.0635404 -0.236004 21.4863
0.233405 -0.361906 21.2902
0.310081 -0.435843 20.8169
-0.745206 -0.834758 19.261
-1.75582 -3.09644 20.6749
-0.19707 -0.34718 22.1401
-0.011777 -0.0576088 21.5979
0.26081 0.603165 21.9763
0.491362 1.08305 21.5533
0.677585 1.19583 21.249
-1.11968 -0.775562 18.7025
1.24369 1.6077 15.547
1.50972 1.61143 17.5118
-1.83357 0.495611 17.9004
1.30286 -0.0262955 10.6842
1.76509 -0.573338 15.5707
-0.756899 1.18895 19.6607
-1.14809 1.69913 20.3908
-1.12923 1.38797 21.5386
-0.337641 0.245299 21.947
-0.0218158 -0.368733 21.6795
0.150302 -0.576238 21.387
0.166984 -0.68438 20.7542
0.730178 -0.832011 19.2694
1.75687 -3.04592 20.6529
0.148419 -0.354255 22.0971
-0.103397 -0.0986634 21.5771
-0.404488 0.277846 21.76
-0.544057 0.507381 21.5709
-0.712828 1.03073 21.4023
1.10809 -0.763391 18.7181
-0.0823393 0.19277 8.26955
-0.74748 1.16036 11.7026
1.82063 0.491175 17.9143
-0.232316 0.774414 2.48446
-1.34511 0.0601015 5.50589
0.741377 1.1869 19.6552
1.12001 1.70755 20.3763
1.09285 1.44985 21.5218
0.255105 0.309775 21.9397
-0.0654459 -0.280258 21.6797
-0.212216 -0.530453 21.4117
-0.17902 -0.709611 20.8311
0.660732 -0.346177 19.9021
1.18509 -0.747721 20.521
0.456482 -0.455999 21.4184
0.0415375 -0.226003 21.4679
-0.240431 -0.0656026 21.5098
-0.492509 0.111146 21.3744
-0.64465 0.198588 21.0905
0.892998 -0.285179 19.811
1.69251 -0.650922 20.5273
0.646307 -0.543861 21.5062
0.122424 -0.313562 21.4857
-0.291905 -0.118295 21.5878
-0.633564 -0.00775088 21.4795
-1.05391 0.0496296 21.5674
1.15536 0.0841349 19.7108
2.03864 0.0896689 20.627
1.16293 -0.322888 21.5157
0.501089 -0.262226 21.7176
-0.244211 -0.275771 21.6642
-0.642374 -0.303103 21.494
-1.0858 -0.439247 21.1068
0.726602 0.538107 20.0945
0.97862 0.651767 20.6184
0.785027 0.422469 21.2627
0.280036 0.104408 21.5726
-0.0857196 -0.164726 21.4917
-0.263892 -0.296162 21.3274
-0.326319 -0.402499 20.9172
-0.518103 -0.0721462 0.964038
-0.00230966 -2.88679 8.47778
-0.0121384 0.00136282 0.108774
0 0 0
-0.0514888 0.00610771 0.289305
-0.0563177 -0.0754373 2.35128
-0.000157453 0.0676333 0.18324
-0.205947 -0.109392 0.467421
-0.00948013 0.00335941 -0.00602992
0 0 0
0.545947 -0.0789157 1.01656
0.011232 0.00124237 0.109117
0 0 0
0.0214075 -0.0998627 2.25252
0.201307 -0.106652 0.4585
0 0 0
-0.0189572 0.0265057 0.645123
2.4259e-05 0.000339426 0.0012605
4.0319e-08 -6.72911e-08 -3.20724e-06
-9.27786e-05 0.00167357 0.00456346
0 0 0
0 0 0
-0.000307809 0.0527975 0.118774
-0.000229963 -0.000548555 0.014634
0.00995063 0.024423 0.647463
-2.45735e-05 0.000326199 0.001244
8.99585e-05 0.00166687 0.00438985
0 0 0
-2.77334e-05 -3.1707e-05 0.00153167
-5.74638e-07 0.000862683 0.00323457
-0.000185677 0.00637844 0.0487634
0 0 0
-1.49013e-08 6.0318e-09 8.57909e-07
-1.31828e-05 2.63558e-05 0.000155422
-0.000126184 0.0932703 0.0394924
-0.133163 0.0812462 -0.0351669
0 0 0
-0.000586294 0.0261163 0.158988
-0.000136289 -0.000304577 0.00150705
2.78875e-05 -3.81073e-05 0.0015376
1.67973e-07 0.000827433 0.00308958
0.000210841 0.00651748 0.0446426
-3.25311 -1.78679 20.3109
-2.88335 -4.93467 20.745
-2.80151 -2.18948 17.7725
0.879571 0.254072 21.7022
0.421329 0.953806 20.9729
0.902731 1.52665 13.0164
-4.11127 0.610977 20.5754
-4.78013 2.1532 16.6864
-2.54309 2.67797 20.1729
0.950392 -0.1657 18.3423
0.446311 0.0668099 4.76609
0.127682 -0.719961 21.5309
2.86089 -4.85241 20.6999
2.78003 -2.17711 17.7858
3.22951 -1.78519 20.2871
-0.541607 0.470764 20.5031
-0.220718 0.199051 8.13218
-0.55067 -0.0289158 21.3357
4.74128 2.12078 16.7122
2.5139 2.69012 20.1568
4.09116 0.615971 20.5534
-0.570685 1.79029 1.26544
-0.354759 -0.453438 20.9791
-0.783415 0.408519 17.5471
-0.213446 -0.900983 21.6847
-0.232928 0.280621 18.0311
0.0752842 -0.348804 21.0218
-0.040943 0.10574 18.6597
-1.8315 -1.0948 21.8746
-3.35871 1.87311 21.9071
-0.791763 -0.529784 20.8354
-0.829238 0.382445 22.4363
0.16714 0.279882 18.2676
0.202286 -0.922964 21.6597
-0.0872967 0.0655569 18.901
-0.0778013 -0.425328 21.0326
3.35615 1.96067 21.8744
1.81537 -1.0777 21.825
0.71348 0.50014 22.2684
0.790907 -0.476829 20.739
-0.982469 -0.55928 20.1032
-0.788362 -0.335575 19.8534
-0.761535 -0.530202 19.6446
-0.915574 -0.698647 21.2203
-1.4517 -0.717707 20.5166
-1.69189 -1.58166 20.4868
-0.182456 -0.285525 21.5027
-0.574013 -0.53273 21.4998
-0.291786 -0.544837 21.7255
0.113475 -0.0947986 21.6239
-0.0724616 -0.244565 21.5491
0.0180184 -0.192043 21.6068
0.499195 0.203346 21.5532
0.431967 0.0660581 21.7272
0.439883 0.328142 21.8427
0.668011 0.305671 21.254
0.806688 0.242789 21.3807
0.745317 0.638688 21.5558
0.855113 0.188811 21.2866
0.860197 0.607278 21.0866
-1.37658 -0.489568 19.9957
-1.09415 -0.116067 19.7136
-1.08937 -0.48852 19.3548
-1.32435 -0.684455 21.3791
-2.04105 -0.305311 20.5862
-0.31443 -0.410983 21.5473
-0.907101 -0.524302 21.5768
0.0916963 -0.169029 21.748
-0.300952 -0.382185 21.7274
0.736856 0.0945465 21.6264
0.569112 -0.252184 21.9461
0.986269 0.223679 21.0521
1.01091 -0.206195 21.4923
1.36445 0.504752 21.2692
1.19961 -0.271671 21.6983
1.4831 0.717353 20.5932
-1.7597 0.131963 20.0159
-1.02699 0.44324 19.8714
-1.60773 0.215874 19.0365
-1.66954 -0.177534 21.3468
-1.5309 0.573765 20.6154
-0.831653 -0.355127 21.6997
-1.18931 0.207151 21.4155
-0.0815888 -0.334036 21.9535
-0.489701 -0.0314003 21.732
0.677902 -0.473012 21.6635
0.169025 -0.374464 21.6373
1.00277 -0.495511 21.1025
0.439151 -0.500716 21.3718
1.21132 -0.704747 20.8164
0.579421 -0.564999 21.0472
1.29693 -0.669884 20.599
-0.906371 0.638964 20.3307
-0.828021 0.819057 19.8789
-0.955019 0.548291 20.9961
-1.15722 1.07213 20.538
-0.558207 0.231296 21.474
-1.02311 0.76827 21.4172
-0.0738281 -0.119946 21.5124
-0.341987 0.112198 21.7606
0.169114 -0.349726 21.3617
0.052834 -0.323863 21.567
0.235929 -0.384307 21.1156
0.215196 -0.486639 21.1982
0.206035 -0.461347 21.0365
-1.38479 -1.8384 19.2531
-0.903382 -0.827968 19.0074
0.00794925 -1.22705 18.7876
-0.662057 -1.4915 22.3093
0.00709385 -4.55806 21.2582
-0.0569349 -0.122333 21.7716
-0.0305697 -0.286059 21.85
0.119436 -0.0276357 21.8735
-0.0655217 -0.0734742 20.7399
0.387216 0.924161 21.7186
-0.221533 0.516862 21.3307
0.58667 1.19584 21.3246
0.834727 1.48869 20.545
-0.358224 0.910926 21.224
1.118 1.52974 20.5357
-0.230545 1.44467 20.3193
-1.5837 -0.346662 18.0641
0.00518672 -1.20791 17.6098
1.46163 1.68284 16.8515
1.13607 0.704641 7.66842
-1.6775 0.869719 9.00341
2.33246 0.772397 13.5831
-0.726234 1.94615 11.3048
-1.32545 1.38301 18.8517
0.00178564 1.11979 15.9075
1.80352 -0.465215 13.7707
0.452879 -1.06268 21.1639
0.40308 -0.421525 -0.116072
0.559757 -1.1238 20.4909
0.949616 -1.21865 1.73794
-0.977179 1.53235 19.9711
-0.00720514 1.58675 19.3958
-1.26494 1.68992 20.9312
-0.017861 2.47159 20.1367
-0.699858 0.823333 21.9325
-0.0577303 2.46522 21.6661
-0.126619 -0.12705 21.8088
-0.0605701 0.447972 22.1291
0.0595675 -0.502636 21.5756
-0.0769193 -0.351968 21.6867
0.167483 -0.592212 21.0521
-0.0569541 -0.674368 21.4287
-0.0506051 -0.644544 20.661
1.37677 -1.80719 19.254
0.894254 -0.818899 19.0203
0.737787 -0.518574 19.6626
0.645482 -1.49138 22.262
1.65161 -1.54848 20.4803
-0.0210923 -0.13482 21.7147
0.279169 -0.569416 21.6825
-0.238567 -0.124089 21.7607
-0.0641963 -0.239014 21.5435
-0.470055 0.38365 21.5025
-0.375539 0.0641648 21.6536
-0.6774 0.806319 21.5238
-0.60655 0.549326 19.0216
-0.601391 0.282164 21.6103
-0.746828 1.22337 17.4708
-0.878591 0.588437 21.4
1.56854 -0.343409 18.0851
1.08085 -0.488993 19.3572
-0.542189 1.23606 10.3648
1.70072 -0.116471 -3.17471
-0.765618 0.268096 19.894
-0.471988 0.259708 0.486923
-1.4812 0.934137 18.8807
1.31052 1.37411 18.8535
1.58604 0.212174 19.0462
-1.27382 0.082596 4.08654
-0.589404 -0.763143 20.904
-1.00636 0.287111 18.0105
-0.715073 -1.18357 19.8169
-1.65445 -0.257763 18.0582
0.956288 1.53387 19.9612
0.811634 0.817702 19.8733
1.22496 1.71693 20.9094
1.13528 1.08218 20.52
0.629843 0.881683 21.9289
0.994674 0.814453 21.3887
0.0332111 -0.0552838 21.7832
0.302276 0.191438 21.7416
-0.142909 -0.418511 21.5455
-0.107262 -0.223663 21.5263
-0.28236 -0.554454 21.1372
-0.252851 -0.421862 21.2861
-0.169005 -0.462231 21.0554
0.960231 -0.531922 20.095
0.771264 -0.324784 19.8528
0.906617 -0.694912 21.1755
1.42367 -0.713655 20.5076
0.182707 -0.300959 21.4438
0.553671 -0.541111 21.4557
-0.0917715 -0.165617 21.5256
0.0774052 -0.280801 21.4658
-0.38422 0.0274476 21.5171
-0.280952 -0.0818975 21.5799
-0.597568 0.162012 21.3918
-0.588327 0.0767607 21.4632
-0.853309 0.167274 21.5894
1.34664 -0.488009 19.9843
1.07437 -0.111608 19.7149
1.29663 -0.687037 21.3545
2.0227 -0.303154 20.5717
0.30261 -0.420932 21.4877
0.892805 -0.522249 21.5327
-0.0307813 -0.219581 21.5887
0.314841 -0.37467 21.6201
-0.447018 -0.0496835 21.5191
-0.288375 -0.210444 21.7533
-0.880393 0.0718588 21.5058
-0.632619 -0.165226 21.5744
-1.26569 -0.099761 21.7855
1.73947 0.133573 20.0064
1.01098 0.439715 19.8672
1.65213 -0.171558 21.3194
1.51919 0.579847 20.5953
0.82482 -0.335969 21.6344
1.18366 0.221735 21.3833
0.149932 -0.250454 21.7949
0.498797 0.0272421 21.668
-0.378603 -0.288884 21.5098
-0.126322 -0.227251 21.5866
-0.93186 -0.327335 21.6446
-0.405119 -0.382243 21.4068
-0.678797 -0.491828 21.1877
0.890909 0.642633 20.3165
0.943031 0.569232 20.9716
0.548258 0.274306 21.4439
0.0582605 -0.046964 21.4756
-0.18127 -0.262191 21.3712
-0.267558 -0.331742 21.1445
-1.16974 -0.539227 20.0423
-1.9791 -2.15433 18.6245
-1.278 -0.99923 19.7561
-2.07059 -1.0148 19.3334
-0.912988 -0.523071 19.4846
-2.34132 -1.777 20.4298
-1.15876 -0.719084 21.3048
-0.340742 -1.00166 20.4494
-0.980536 -1.24321 21.6632
-1.71849 -1.66116 22.4603
-0.215243 -0.67237 21.8731
-0.240384 -0.36437 21.5234
-0.123459 0.114415 18.0643
-0.071597 -0.281572 21.6273
0.0260017 -0.562377 21.2273
0.0962636 -0.244019 21.5468
0.10572 -0.116506 21.6945
0.0992711 -0.193527 20.1211
0.124001 -0.0618185 21.8061
0.0588669 -0.155324 21.5346
0.618524 0.334158 21.8669
0.654771 0.196549 21.6054
0.599434 1.37851 20.4969
0.615355 0.547626 21.6415
1.23366 0.437214 21.3385
1.04166 0.663644 21.4319
0.886132 0.300061 21.2412
1.0566 1.40313 20.9206
0.795264 0.632405 21.2927
1.42657 0.510961 21.1414
1.15689 0.749815 20.8671
-1.67992 -0.198225 19.9381
-4.7778 -0.606425 16.0748
-2.94439 0.529455 19.1556
-1.41531 -0.222679 19.1186
-4.43416 -0.669243 20.3759
-1.56843 -0.462113 21.4221
-2.66934 -0.487949 22.0567
-0.742189 -1.09302 21.5993
-0.535132 -0.493513 21.6352
-1.33964 -0.997983 21.4234
-0.130301 -0.364501 19.7193
0.0308194 -0.275818 21.9268
0.0162823 -0.0946658 19.9677
1.12044 0.288636 18.8514
0.874703 -0.209258 21.6584
-0.191852 0.0792329 2.09531
1.06195 -0.523278 19.8587
1.65488 -0.0624493 20.6348
1.10001 -0.139966 21.0357
2.03842 0.793294 12.1861
1.3386 -0.700472 21.2607
1.82641 0.00849301 19.5167
-1.36564 0.559816 20.1697
-2.08524 2.36206 19.2141
-1.02894 1.02292 20.1814
-1.29543 0.808709 19.4731
-2.20886 1.28331 20.4878
-1.44492 0.390313 21.0933
-3.00197 2.28472 20.7873
-1.18065 0.971838 20.9909
-1.95468 0.552381 21.6633
-0.861425 0.0884515 21.6502
-2.09651 1.03035 22.5149
-0.6911 0.454167 21.7005
-0.681314 0.0881881 22.0986
-0.127774 -0.209151 21.7513
-0.0848741 -0.311396 21.9287
-0.113471 -0.127578 21.6661
0.168587 -0.535582 21.8609
0.322149 -0.465587 21.507
0.265397 -0.906631 21.4186
0.129569 -0.414677 21.4133
0.481866 -0.807111 21.5194
0.576968 -0.533024 21.1199
0.597877 -1.09222 20.7668
0.26055 -0.529352 21.1711
0.645969 -0.746799 21.0423
1.96103 -2.11958 18.6433
0.0072037 -3.12468 18.5235
0.00455493 -4.81168 14.8651
0.00120459 -1.24547 18.2988
-0.0205027 -6.5196 22.2127
0.300717 -1.03959 20.6937
-0.0217113 -1.433 23.0703
-0.0226837 0.185402 11.0358
0.0313587 0.0885009 18.2506
-0.0371474 -0.0753397 21.0617
-0.0971607 0.0494319 13.5019
-0.230585 -0.348791 20.0141
-0.122993 0.140689 21.1556
-0.402926 0.677613 16.1906
-0.506818 0.519074 19.6169
-0.32664 0.691259 21.134
-1.68292 0.528808 6.26778
-0.663516 0.984887 17.7679
-0.651437 1.00583 18.0631
-0.297986 1.19108 20.9916
-1.10995 1.30642 9.90755
-0.568838 1.68251 16.6484
4.73664 -0.600225 16.1211
0.00741982 7.1433 11.5437
0.00830433 -0.518799 16.2729
1.3731 0.50602 -2.74637
-0.665983 0.737158 0.26727
0.594181 -0.780195 -1.93707
-0.18776 0.440124 -0.625033
0.943454 -0.707252 0.209208
2.15284 -0.961202 -0.147028
2.06487 2.35627 19.2065
-0.0115262 2.15449 19.7333
-0.00333376 2.22773 18.0363
-0.0195167 4.33312 19.6393
2.96465 2.32662 20.7511
-0.0375469 2.74224 20.7176
-0.0672719 5.65867 21.222
2.08996 1.12644 22.4471
-0.0602113 1.38741 22.1894
-0.0845322 0.764909 21.7792
-0.075308 -0.19391 21.742
-0.0732907 -0.0702316 21.8547
-0.17166 -0.578492 18.1924
-0.47399 -0.516763 20.7216
-0.0721385 -0.528661 21.5598
-0.100796 -1.06733 17.9551
-0.753601 -1.01003 19.8916
-0.0478566 -0.756156 21.143
-0.101217 -1.41082 17.8991
1.14498 -0.528432 20.0339
1.24346 -0.975186 19.7784
2.04591 -1.003 19.3333
0.894235 -0.520305 19.5044
2.30496 -1.75257 20.4146
1.13619 -0.719915 21.2765
0.964772 -1.23873 21.6169
1.69836 -1.66377 22.415
0.209594 -0.691305 21.8289
0.236859 -0.380445 21.4605
0.0561382 -0.320774 21.5673
-0.0326476 -0.610776 21.2577
-0.114611 -0.312725 21.4794
-0.0604344 -0.189587 21.559
-0.152074 -0.167667 21.6439
-0.0118346 -0.27868 21.3427
-0.465026 0.017014 21.6266
-0.440192 0.00649574 21.5091
-0.494565 0.18943 21.5238
-0.646225 0.115643 20.515
-0.731155 0.316002 20.8547
-0.746816 0.168936 21.3794
-0.732974 0.433307 21.4011
-1.24666 0.362011 19.936
-1.21856 0.906419 19.8807
1.65696 -0.194291 19.9326
2.91251 0.521342 19.1537
1.39434 -0.223197 19.124
4.40912 -0.670885 20.3476
1.54828 -0.459636 21.3929
2.65014 -0.47703 22.0257
0.740443 -1.09408 21.5861
0.531271 -0.48993 21.5703
1.32449 -0.966389 21.3429
0.151296 -0.384005 19.7252
0.0629464 -0.259727 21.7406
0.0107571 0.0687836 19.6604
-0.599582 0.422958 17.9702
-0.445127 -0.190952 21.5263
-0.791948 0.498133 17.5708
-0.500475 0.541208 15.4738
-0.976421 -0.131003 21.6679
-1.40751 0.046789 17.8356
-1.5628 0.477716 14.7696
1.34926 0.561241 20.1603
1.01066 1.02607 20.169
1.28095 0.807092 19.4666
2.19063 1.29472 20.4671
1.43598 0.401069 21.0669
1.15623 0.999376 20.966
1.94805 0.588503 21.6292
0.862305 0.115434 21.6077
0.656743 0.522533 21.6832
0.659513 0.180724 22.0453
0.130866 -0.109656 21.6979
0.0571858 -0.0453926 21.6369
-0.182453 -0.308508 21.7924
-0.264637 -0.300937 21.5335
-0.188145 -0.32953 21.409
-0.452319 -0.558658 21.6795
-0.497828 -0.438125 21.1856
-0.289378 -0.492249 21.1994
-0.596955 -0.805121 21.0632
-1.62049 -1.04665 19.5977
-1.26135 -1.44912 21.9633
0.021036 -0.389171 21.6476
0.112934 -0.13792 21.7804
0.901066 0.571043 21.6438
1.17254 0.673466 21.0866
-2.86426 -0.367687 19.0387
-2.3629 -1.03158 22.624
-0.263107 -0.805064 20.3131
0.088633 0.089273 19.7676
1.38323 0.0239473 19.5986
1.74959 -0.127437 20.7945
-1.8498 1.20599 19.8146
-2.19262 0.892478 21.1486
-1.3545 0.29485 21.9935
-0.146636 -0.239606 22.03
0.338973 -0.687444 21.6768
0.559572 -0.829546 21.2509
0.00993809 -4.15239 17.2109
-0.0183702 -0.0782261 12.2223
-0.0532018 0.164846 12.251
-0.202481 0.304504 15.3284
-0.650853 0.809065 17.034
-0.603227 1.29139 16.9954
0.0177507 -0.580307 9.11859
-0.923627 0.192455 -0.912581
1.12376 -0.722171 -1.31376
-0.0089371 4.06908 18.5684
-0.0394704 4.77991 19.6717
-0.0852772 2.91102 22.5199
-0.108181 -0.242979 20.1662
-0.18614 -0.748735 17.996
-0.0763807 -1.37227 18.0521
1.59936 -1.02951 19.6039
1.2517 -1.43087 21.9005
-0.0371766 -0.425438 21.5869
-0.124106 -0.257555 21.6237
-0.606772 0.142729 21.4397
-0.991997 0.483743 20.4655
2.82907 -0.369634 19.0402
2.34721 -1.03047 22.5847
0.271598 -0.810448 20.3168
0.0021762 0.0913111 19.5205
-0.367878 0.482704 16.3195
-1.4334 0.341028 15.1631
1.83128 1.20678 19.8013
2.18225 0.916944 21.1178
1.34562 0.358255 21.9546
0.113828 -0.0959406 21.9602
-0.304763 -0.40095 21.6988
-0.566843 -0.762152 21.6647
0 0 0
0.115633 -0.272372 0.999153
-0.0733953 -0.00590411 0.403899
0 0 0
-0.0683235 -0.000238558 0.301072
-0.019982 0.0553784 2.22363
-0.666831 -0.0118889 1.21357
-0.0497507 0.269565 0.62252
-0.642392 0.1383 1.26306
-0.0116498 -0.00280968 0.00831507
-0.0143045 0.00348806 -0.00978176
0.0465934 0.016043 0.308665
-0.120944 -0.259773 1.02709
0 0 0
0.0730646 -0.00558779 0.404756
-0.0161912 0.00271317 0.0971928
-1.45394e-17 1.36128e-17 1.94197e-17
-0.0300675 0.0054547 2.10116
0.0483199 0.269027 0.620874
0.673765 -0.0110217 1.22452
0.636462 0.134259 1.25226
-0.0291765 0.0118779 -0.0122046
0.0225424 0.0837555 -0.0336357
-0.0721397 0.0645092 0.277024
-0.0388224 0.0230826 0.352957
-0.090471 0.00366188 1.23458
-0.000219733 0.00354212 0.00767088
0 0 0
0.00163852 -0.000655638 0.0231304
-0.0128843 0.014699 0.543448
-0.00304224 0.0268908 0.143976
0 0 0
-4.12162e-18 -5.02226e-18 2.74516e-17
0.00104957 0.0108498 0.0348152
0 0 0
-0.0690708 0.0688855 0.181942
0 0 0
0.000172861 0.0060138 0.0126339
0 0 0
0.0228739 0.00403364 0.125018
0.0361882 0.0220958 0.354916
0 0 0
0.079559 0.00655299 1.24681
0.000204315 0.00340055 0.00751564
-0.00194747 -0.000854985 0.0208013
0 0 0
0.00519803 0.0107831 0.539118
0.00279436 0.0249696 0.13742
0 0 0
0.0678492 0.0687519 0.181131
-0.00102965 0.0105584 0.0342847
0 0 0
0 0 0
-0.0262828 0.00474308 0.124682
-0.000197181 0.00637348 0.0126728
0 0 0
-0.000277303 -0.000622616 0.00752802
-0.408957 0.107645 0.237084
0 0 0
0 0 0
5.69047e-08 1.08607e-05 6.31852e-05
-3.23679e-18 1.68877e-18 1.59569e-17
0.00098607 0.0104076 0.0798326
-0.103617 0.000219266 -0.0275713
0 0 0
-0.0922284 -0.0119442 -0.00533852
-4.66712e-06 6.99585e-05 0.000875338
0 0 0
1.7615e-05 0.560845 0.33093
-1.58986e-05 0.00199984 0.0089609
-3.48247e-06 -5.38368e-05 0.000378787
0 0 0
0 0 0
-8.59987e-05 7.56637e-05 -0.000161252
0.0261431 0.196929 0.810879
0.00472882 -0.0223637 0.0902119
0.408602 0.108051 0.237505
0.00027207 -0.000607696 0.00724733
0 0 0
-4.96549e-08 1.05012e-05 6.26745e-05
-0.0195617 0.180636 -0.0671815
-0.000602519 0.0106992 0.0670143
0 0 0
5.22826e-06 5.77304e-05 0.000827973
0 0 0
3.77011e-06 -5.88075e-05 0.000411244
-0.0142353 -0.0200019 0.0867352
-0.0404112 0.222141 0.750178
-0.000568388 0.00631927 0.0333112
0 0 0
0 0 0
5.80516e-06 0.000276431 0.0010387
0 0 0
-2.55369e-08 1.8994e-08 1.85569e-06
-0.000101488 0.00468526 0.0170288
-0.0368018 0.0502549 0.136919
-4.60714e-08 9.24077e-09 2.12119e-06
-1.86856e-07 5.57694e-09 4.1318e-06
0.000293866 0.00749279 0.0188379
-0.0351905 0.0706775 0.685863
-1.89629e-05 0.00233801 0.00493484
-1.3554e-05 0.0016327 0.00494311
-8.21104e-05 0.000712411 0.013037
-6.19572e-05 -0.000232125 0.00254171
0 0 0
0.000487367 0.00554642 0.0298603
6.59994e-18 -2.06724e-18 -2.86382e-17
-6.0886e-06 0.000273397 0.00103785
8.88441e-05 0.0043681 0.015548
0.0333922 0.0482333 0.12489
0.0281472 0.0715978 0.68183
-0.000291354 0.00741551 0.018423
-0.00278201 -0.00452372 0.0436855
-0.000603694 -0.000312453 0.0035843
0.0110226 0.00502064 0.109405
0.00224145 -0.00030466 0.0106801
-0.000625551 0.00746024 0.0331378
0.00059118 0.0127961 0.033824
-0.000791511 0.0083525 0.0487953
0 0 0
0 0 0
0 0 0
-5.04372e-08 -3.95444e-07 -5.89046e-06