# vtk DataFile Version 2.0
tet_velo
ASCII
DATASET UNSTRUCTURED_GRID
POINTS 29498 float
-0.79574 0.365 -2.605
-0.862224 0.335 2.595
-0.785 0.723246 -2.555
-0.845 0.715 2.61099
0.850048 0.365 -2.585
0.818188 0.345 2.615
0.835 0.721803 -2.545
0.795 0.705 2.63429
-0.831582 0.34132 -0.871667
-0.848846 0.336216 0.861667
-0.842725 0.758222 -0.833004
-0.857732 0.750481 0.888994
0.848952 0.348809 -0.851667
0.832775 0.3477 0.881667
0.859021 0.753556 -0.81857
0.841044 0.743312 0.90786
-1.62424 0.166909 -4.01455
-1.63756 0.166744 -2.63123
-1.66813 0.149483 -0.898028
-1.68621 0.139793 0.836671
-1.69678 0.135223 2.56998
-1.70931 0.126532 3.95386
-1.72386 0.115948 5.33654
-1.62244 0.357927 -3.99482
-1.63574 0.363885 -2.6123
-1.67239 0.349239 -0.881182
-1.68801 0.337607 0.850317
-1.69423 0.328667 2.58158
-1.70857 0.318903 3.96549
-1.72452 0.308575 5.3486
-1.61899 0.733339 -3.95163
-1.63112 0.740558 -2.56733
-1.67925 0.757538 -0.843661
-1.69405 0.746334 0.878454
-1.68758 0.718164 2.60216
-1.70657 0.704902 3.98686
-1.72633 0.695586 5.37181
-1.62346 1.3246 -3.89616
-1.63907 1.33386 -2.51444
-1.66898 1.3482 -0.792586
-1.69412 1.34365 0.926429
-1.70907 1.32109 2.64792
-1.72086 1.30331 4.02889
-1.7349 1.29026 5.41222
-0.791443 0.16694 -4.00647
-0.799236 0.167828 -2.62305
-0.827822 0.146763 -0.888519
-0.84689 0.140874 0.847737
-0.860144 0.140537 2.58225
-0.873622 0.129597 3.96552
-0.888039 0.117215 5.34754
-0.791718 0.356019 -3.98691
-0.875187 0.320484 3.97712
-0.889712 0.308877 5.3595
-0.788683 0.725547 -3.94287
-0.873844 0.701712 3.99718
-0.892474 0.693547 5.38212
-0.787652 1.31979 -3.88689
-0.800005 1.32954 -2.50488
-0.82762 1.34717 -0.783045
-0.854724 1.34334 0.935784
-0.872979 1.31884 2.65723
-0.88561 1.30053 4.03832
-0.899487 1.28795 5.42183
0.866179 0.167382 -3.98832
0.859537 0.169314 -2.60358
0.850285 0.152791 -0.868769
0.834046 0.149919 0.867655
0.818707 0.148849 2.60234
0.800361 0.134409 3.98593
0.784372 0.119918 5.36797
0.859412 0.355864 -3.96952
0.795378 0.324069 3.99785
0.780677 0.31069 5.38012
0.85567 0.7245 -3.92858
0.78557 0.698816 4.01882
0.774525 0.692841 5.403
0.877683 1.3184 -3.8713
0.870264 1.32766 -2.48935
0.854291 1.34453 -0.7663
0.827939 1.33994 0.954383
0.80103 1.31521 2.67722
0.785051 1.29772 4.05868
0.771479 1.28621 5.44212
1.69884 0.167853 -3.97868
1.69269 0.169328 -2.59387
1.68876 0.157532 -0.85956
1.67432 0.151895 0.87631
1.65544 0.146612 2.61048
1.63775 0.134196 3.99466
1.6216 0.12083 5.37725
1.69221 0.357737 -3.96028
1.68632 0.36428 -2.57617
1.68943 0.355364 -0.843447
1.67397 0.347714 0.890079
1.65077 0.337628 2.62279
1.63269 0.324251 4.00685
1.61762 0.311891 5.38965
1.68866 0.731419 -3.92102
1.68029 0.737492 -2.53812
1.6955 0.753753 -0.810405
1.67755 0.741624 0.917137
1.63755 0.711701 2.64499
1.62235 0.701655 4.0292
1.6108 0.694723 5.41323
1.71094 1.32205 -3.8643
1.70447 1.33049 -2.4825
1.693 1.34369 -0.758519
1.6692 1.33802 0.963684
1.64068 1.31518 2.68761
1.62281 1.29861 4.06928
1.60854 1.28726 5.45259
-0.766806 0.544123 -2.55644
0.027154 0.353465 -2.60654
-0.853534 0.313287 -1.73833
-0.854054 0.525 2.60344
-0.022018 0.328583 2.61642
-0.852058 0.339085 1.72833
0.025 0.779223 -2.6067
-0.83999 0.766861 -1.694
-0.025 0.73201 2.64465
-0.863708 0.745082 1.74999
0.819987 0.543402 -2.54246
0.842059 0.364346 -1.71833
0.807262 0.525 2.62531
0.861656 0.310176 1.74833
0.841705 0.732374 -1.68179
0.83073 0.736864 1.77108
-0.840022 0.33896 -0.005
-0.857942 0.549771 -0.852335
0.00868519 0.14703 -0.861667
-0.875283 0.543348 0.87533
-0.0080357 0.208908 0.871667
-0.84975 0.753873 0.027995
0.0081477 1.27517 -0.825787
-0.00834388 1.29793 0.898427
0.840966 0.348152 0.015
0.873404 0.551183 -0.835119
0.856683 0.545506 0.894763
0.849734 0.748135 0.044645
-0.895311 0.546947 -1.71617
-0.866077 0.54656 0.0114975
-0.851996 0.534174 1.73916
0.0179196 0.275354 -1.72833
0.000324746 0.201104 0.005
-0.0150268 0.255907 1.73833
0.026077 0.543762 -2.63345
-0.023509 0.525 2.6447
0.0165738 0.913374 -1.68789
-9.809e-05 1.32501 0.03632
-0.0166719 0.948079 1.76053
0.859507 0.547292 -1.70006
0.864851 0.548344 0.0298225
0.880538 0.535253 1.7597
-1.21574 0.364442 -2.60865
-0.797488 0.266414 -2.61402
-0.793729 0.360509 -3.29596
-1.27823 0.331833 2.58829
-0.861184 0.237768 2.58862
-0.868705 0.327742 3.28606
-1.20806 0.731902 -2.56117
-0.786841 0.724396 -3.24893
-0.792502 1.02639 -2.52994
-1.26629 0.716582 2.60657
-0.859422 0.708356 3.30409
-0.85899 1.01692 2.63411
0.854793 0.267157 -2.59429
0.85473 0.360432 -3.27726
1.26818 0.36464 -2.58059
0.818448 0.246925 2.60867
0.806783 0.334535 3.30643
1.23448 0.341314 2.6189
0.845335 0.723151 -3.23679
0.852632 1.02473 -2.51717
1.25765 0.729648 -2.54156
0.790285 0.701908 3.32655
0.798015 1.01011 2.65576
1.21627 0.708351 2.63964
-1.25199 0.345279 -0.876424
-0.829702 0.244041 -0.880093
-1.26843 0.336912 0.855992
-0.847868 0.238545 0.854702
-1.26099 0.75788 -0.838332
-0.835173 1.0527 -0.808024
-1.27589 0.748407 0.883724
-0.856228 1.04691 0.912389
0.849618 0.2508 -0.860218
1.26919 0.352087 -0.847557
0.83341 0.248809 0.874661
1.25337 0.347707 0.885873
0.856656 1.04904 -0.792435
1.27726 0.753655 -0.814488
0.834492 1.04162 0.931122
1.2593 0.742468 0.912499
-1.6309 0.166826 -3.32289
-1.62334 0.262418 -4.00468
-1.20784 0.166924 -4.01051
-1.65284 0.158114 -1.76463
-1.63665 0.265314 -2.62176
-1.2184 0.167286 -2.62714
-1.67717 0.144638 -0.0306785
-1.67026 0.249361 -0.889605
-1.24797 0.148123 -0.893273
-1.6915 0.137508 1.70333
-1.68711 0.2387 0.843494
-1.26655 0.140333 0.842204
-1.70305 0.130878 3.26192
-1.69551 0.231945 2.57578
-1.27846 0.13788 2.57611
-1.71659 0.12124 4.6452
-1.70894 0.222717 3.95968
-1.29147 0.128065 3.95969
-1.72419 0.212261 5.34257
-1.30595 0.116581 5.34204
-1.62909 0.360906 -3.30356
-1.62071 0.545633 -3.97322
-1.20708 0.356973 -3.99087
-1.65407 0.356562 -1.74674
-1.63343 0.552222 -2.58981
-1.6802 0.343423 -0.0154326
-1.67582 0.553388 -0.862421
-1.69112 0.333137 1.71595
-1.69103 0.54197 0.864385
-1.7014 0.323785 3.27353
-1.6909 0.523415 2.59187
-1.71654 0.313739 4.65704
-1.70757 0.511902 3.97618
-1.29188 0.319693 3.97131
-1.72542 0.50208 5.36021
-1.30711 0.308726 5.35405
-1.62506 0.736949 -3.25948
-1.62122 1.02897 -3.9239
-1.20383 0.729443 -3.94725
-1.65519 0.749048 -1.7055
-1.6351 1.03721 -2.54089
-1.68665 0.751936 0.0173966
-1.67411 1.05287 -0.818123
-1.69081 0.732249 1.74031
-1.69408 1.04499 0.902442
-1.69707 0.711533 3.29451
-1.69832 1.01962 2.62504
-1.71645 0.700244 4.67934
-1.71371 1.00411 4.00787
-1.29021 0.703307 3.99202
-1.73061 0.992926 5.39202
-1.3094 0.694567 5.37697
-1.63127 1.32923 -3.2053
-1.20556 1.32219 -3.89152
-1.65402 1.34103 -1.65351
-1.21954 1.3317 -2.50966
-1.68155 1.34593 0.0669219
-1.2483 1.34769 -0.787815
-1.70159 1.33237 1.78718
-1.27442 1.34349 0.931107
-1.71496 1.3122 3.33841
-1.29102 1.31996 2.65258
-1.72788 1.29679 4.72055
-1.30324 1.30192 4.0336
-1.31719 1.28911 5.41702
-0.79534 0.167384 -3.31476
-0.79158 0.261479 -3.99669
0.0373679 0.167161 -3.9974
-0.813529 0.157296 -1.75578
0.0301506 0.168571 -2.61332
-0.837356 0.143819 -0.0203911
0.0112315 0.149777 -0.878644
-0.853517 0.140705 1.71499
-0.00642218 0.145397 0.857696
-0.866883 0.135067 3.27388
-0.0207184 0.144693 2.59229
-0.880831 0.123406 4.65653
-0.874405 0.225041 3.97132
-0.0366308 0.132003 3.97573
-0.888876 0.213046 5.35352
-0.0518336 0.118566 5.35775
-0.7902 0.540783 -3.96489
0.0338472 0.355941 -3.97822
-0.88245 0.314681 4.66831
-0.874515 0.511098 3.98715
-0.0399047 0.322277 3.98749
-0.891093 0.501212 5.37081
-0.0545178 0.309784 5.36981
-0.788168 1.02267 -3.91488
0.0334933 0.725023 -3.93572
-0.883159 0.69763 4.68965
-0.879727 1.00112 4.01775
-0.0441369 0.700264 4.008
-0.89598 0.99075 5.40197
-0.0589747 0.693194 5.39256
-0.793828 1.32466 -3.19588
0.0450155 1.31909 -3.8791
-0.813812 1.33836 -1.64396
0.0351299 1.3286 -2.49711
-0.841172 1.34525 0.0763699
0.0133353 1.34585 -0.774672
-0.863852 1.33109 1.79651
-0.0133928 1.34164 0.945084
-0.879295 1.30969 3.34777
-0.0359745 1.31702 2.66722
-0.892548 1.29424 4.73008
-0.0502794 1.29912 4.0485
-0.0640038 1.28708 5.43197
0.862858 0.168348 -3.29595
0.862795 0.261623 -3.97892
1.28251 0.167617 -3.9835
0.854911 0.161052 -1.73618
1.27612 0.169321 -2.59873
0.842165 0.151355 -0.000556906
1.26952 0.155161 -0.864164
0.826376 0.149384 1.735
1.25418 0.150907 0.871982
0.809534 0.141629 3.29414
1.23707 0.147731 2.60641
0.792367 0.127163 4.67695
0.797869 0.229239 3.99189
1.21905 0.134303 3.9903
0.782525 0.215304 5.37405
1.20299 0.120374 5.37261
0.857541 0.540182 -3.94905
1.27581 0.356801 -3.9649
0.788027 0.31738 4.68899
0.790474 0.511442 4.00833
1.21403 0.32416 4.00235
0.777601 0.501766 5.39156
1.19915 0.31129 5.38489
0.866676 1.02145 -3.89994
1.27216 0.727959 -3.9248
0.780047 0.695828 4.71091
0.785311 0.998266 4.03875
1.20396 0.700236 4.02401
0.773002 0.989525 5.42256
1.19266 0.693782 5.40812
0.873974 1.32303 -3.18033
1.29431 1.32023 -3.8678
0.862278 1.33609 -1.62782
1.28737 1.32907 -2.48593
0.841115 1.34224 0.0940415
1.27365 1.34411 -0.762409
0.814485 1.32757 1.8158
1.24857 1.33898 0.959034
0.793041 1.30646 3.36795
1.22085 1.3152 2.68242
0.778265 1.29196 4.7504
1.20393 1.29816 4.06398
1.19001 1.28673 5.44735
1.69577 0.16859 -3.28627
1.69553 0.262795 -3.96948
1.69073 0.16343 -1.72671
1.68951 0.266804 -2.58502
1.68154 0.154713 0.00837523
1.6891 0.256448 -0.851504
1.66488 0.149254 1.7434
1.67414 0.249805 0.883195
1.64659 0.140404 3.30257
1.65311 0.24212 2.61664
1.62967 0.127513 4.68596
1.63522 0.229224 4.00076
1.61961 0.216361 5.38345
1.68927 0.361009 -3.26823
1.69044 0.544578 -3.94065
1.68788 0.359822 -1.70981
1.68331 0.550886 -2.55715
1.6817 0.351539 0.0233159
1.69247 0.554559 -0.826926
1.66237 0.342671 1.75644
1.67576 0.544669 0.903608
1.64173 0.33094 3.31482
1.64416 0.524665 2.63389
1.62515 0.318071 4.69825
1.62752 0.512953 4.01803
1.61421 0.503307 5.40144
1.68448 0.734455 -3.22957
1.6998 1.02674 -3.89266
1.6879 0.745623 -1.67426
1.69238 1.03399 -2.51031
1.68652 0.747689 0.053366
1.69425 1.04872 -0.784462
1.65755 0.726663 1.78107
1.67337 1.03982 0.940411
1.62995 0.706678 3.3371
[...]
POINT_DATA 29498
VECTORS point_vectors float
-4.11631 -3.55446 10.37
0.162925 0.254271 2.18561
-5.30368 2.86563 9.4981
0.297522 -0.0407751 1.77887
3.64419 -3.49471 6.70159
-0.264012 0.313188 2.44609
10.7605 4.65542 13.553
-0.368849 -0.0517319 1.87996
0.00250644 -0.00657776 0.0545887
-0.00536391 -0.0010328 0.262169
-0.00177167 -0.00177408 0.098197
0.00552827 0.0144084 0.0988488
-0.00349286 -0.00433801 0.0908402
0 0 0
-0.000187401 0.00144382 0.13281
-0.012003 0.0325547 0.101936
-0.392313 -0.0754386 19.8465
-1.17111 -0.381868 20.3011
-0.571354 -0.251075 21.2353
0.0555828 0.00506325 21.4311
0.519412 0.177961 21.2483
0.683171 0.187553 20.9024
0.533635 0.134484 20.6687
-0.406499 -0.0347024 19.8171
-1.32633 -0.238051 20.2881
-0.641592 -0.257989 21.2576
0.0811398 -0.0495212 21.48
0.594616 0.104537 21.2664
0.660576 0.0897693 20.82
0.401772 0.0519498 21.0014
-0.445123 0.0363555 19.8122
-1.44189 0.0695995 20.2794
-0.832207 -0.219642 21.2683
0.0456155 -0.126807 21.5187
0.642645 -0.0538577 21.2821
0.75413 0.00274878 20.7256
0.36764 -0.0827168 21.0926
-0.384762 0.203469 19.865
-1.03876 0.458784 20.2961
-0.892973 0.172662 21.2101
-0.0400116 -0.0831506 21.4762
0.503665 -0.261248 21.172
0.582463 -0.380645 20.8733
0.492347 -0.290948 20.4928
-0.360809 -0.190133 19.4184
-3.30612 -3.8273 20.0246
-0.635537 -0.121426 13.0686
0.336535 -0.0375463 12.5161
0.969653 0.536486 16.1419
1.09234 1.02524 16.9173
0.741601 0.699873 17.6925
-0.399911 -0.130251 19.3562
1.25952 1.02587 15.5224
0.722222 0.466814 16.0842
-0.443971 0.0856029 19.2815
1.58571 0.307606 12.787
0.725342 -0.0596288 15.1865
-0.378401 0.381015 19.4656
-1.73247 2.14667 19.9593
-3.11574 1.62245 21.8055
0.0967248 0.185767 18.7452
0.987927 -0.566946 18.5949
1.16554 -0.75135 19.4636
0.58905 -0.496697 19.2544
0.392278 -0.198608 19.4208
3.30039 -3.66699 20.1411
0.455887 -0.353422 13.6833
-0.557352 -0.993444 10.0477
-0.753588 0.810979 14.4343
-0.858864 1.21421 16.6258
-0.733145 0.611826 16.9567
0.43214 -0.135714 19.3744
-1.37628 1.17105 12.9953
-0.989822 0.471335 15.0508
0.473485 0.0901521 19.2981
-1.74337 0.470365 10.9831
-0.930045 -0.0811807 13.997
0.39948 0.37182 19.4934
1.77744 1.99395 20.0536
3.05583 1.50945 21.8495
-0.197594 0.187061 17.722
-1.00835 -0.612752 17.016
-1.02144 -0.89909 19.026
-0.502992 -0.46511 19.3159
0.412415 -0.0757744 19.8831
1.09572 -0.35546 20.3609
0.548255 -0.243396 21.2409
-0.0576598 0.0237723 21.4497
-0.607356 0.224897 21.2489
-0.628946 0.193766 20.9207
-0.608044 0.0804138 20.6231
0.42129 -0.0449662 19.8548
1.27281 -0.2309 20.3531
0.630271 -0.258777 21.2686
-0.0884616 -0.0278802 21.5017
-0.70252 0.122155 21.2622
-0.733778 0.0842784 20.8686
-0.576701 -0.0218635 20.7844
0.455502 0.0389639 19.8387
1.38076 0.0488177 20.3521
0.805125 -0.226043 21.2907
-0.0713964 -0.115161 21.5358
-0.769293 -0.0775558 21.2854
-0.819515 -0.115743 20.8412
-0.546533 -0.194543 20.9498
0.404126 0.182077 19.9022
0.997523 0.412816 20.3434
0.862988 0.156837 21.2313
0.0169547 -0.11279 21.4875
-0.551001 -0.317328 21.2015
-0.65369 -0.35285 20.8104
-0.479167 -0.346525 20.8159
0 0 0
0 0 0
-0.0676462 0.00934191 1.15976
0.0821787 -0.0651858 0.720079
-6.9861e-05 0.000950561 0.00477483
0.0979214 -0.00514464 1.41876
0.0154006 1.37179 1.22523
-0.0763199 -0.0615118 0.387803
-0.000312953 0.0173164 -0.0247976
0.0189199 0.0838075 0.265942
0 0 0
-0.0161545 -0.0766941 1.20222
-0.208085 -0.0929202 1.04658
-0.000245269 0.102693 1.03672
0.0427872 -0.08126 0.359409
-0.0293398 0.011208 0.146611
-0.00483194 0.00746831 0.367462
1.30142e-06 -6.63977e-06 -0.0003194
0.00396261 -0.0240043 0.241329
0.00565594 0.00782614 0.114319
0 0 0
0.00668759 0.0164735 0.0650738
-0.00287727 0.235305 0.436309
-1.05094e-05 -0.000482589 0.0172349
0.00132294 0.0108498 0.21158
-3.1576e-05 0.000153532 0.00364519
0 0 0
-0.00716095 0.0158477 0.061505
-0.000704999 -0.000800744 0.0434202
0 0 0
0 0 0
0.000753982 -0.000740525 0.0261759
-2.54328e-06 3.50407e-07 0.000134688
0.00229465 0.00310933 0.0510302
0 0 0
0 0 0
-2.55874e-05 0.00186621 0.0250848
0 0 0
-2.54462e-06 0.000187964 -0.00027451
0.000706604 0.000198816 0.0249373
-1.09362e-05 0.000165013 0.000896422
-0.010654 0.00235626 0.0421503
-2.58892 -0.806843 20.134
-5.11656 -5.40378 20.2883
-1.29105 -0.545959 18.4566
0.882322 0.308453 21.0561
0.89865 0.326494 12.3523
1.1629 0.790818 11.9862
-2.99125 0.354944 20.0986
-1.51912 0.369319 18.1218
-3.48298 3.41481 19.8805
1.02442 -0.00447705 20.5878
1.19996 0.163392 8.51725
1.44953 0.22506 12.5045
5.09503 -5.49796 20.5675
1.38869 -0.590819 18.4779
2.48236 -0.751904 20.3224
-0.688105 0.574415 10.5154
-1.17831 1.01245 11.2673
-1.12095 0.450093 20.7599
1.54679 0.324685 18.2481
3.5507 3.16445 20.0677
2.84341 0.26641 20.3098
-1.44075 0.293422 8.18233
-1.31175 0.112041 10.4737
-1.2853 0.0156789 19.9031
-0.569895 -0.484648 21.5095
0.440003 -0.295162 4.59046
0.285843 0.0210326 21.1926
0.119262 -0.158008 5.65705
-1.25954 -0.59849 21.369
-4.02618 -1.47728 14.4316
0.140588 -0.269792 21.0467
0.493455 0.945527 8.68878
-0.126186 -0.102263 5.12977
0.582526 -0.505787 21.5327
0.0190847 -0.208655 2.35556
-0.196538 0.12003 20.9508
3.9098 -1.45251 14.4231
1.24324 -0.587811 21.5531
-0.662485 1.14076 7.46997
-0.199006 -0.152525 20.5244
-0.778739 -0.215995 19.8742
-0.399406 -0.0550705 19.8318
-0.435004 -0.145785 19.6515
-0.960593 -0.350751 20.9328
-1.27508 -0.330608 20.3002
-1.99771 -1.0485 20.1664
-0.218543 -0.114576 21.3787
-0.595764 -0.259302 21.2501
-0.612384 -0.318457 21.4884
0.303211 0.098029 21.3651
0.0786909 -0.0204732 21.4551
0.182408 0.110477 21.5018
0.634216 0.195475 21.1025
0.562372 0.145124 21.2531
0.746489 0.401304 21.2424
0.509062 0.104638 20.6852
0.675065 0.139876 20.8647
1.04817 0.432986 20.7286
0.496761 0.102135 20.7754
0.52112 0.43665 20.9292
-0.842708 -0.123281 19.82
-0.423074 -0.00235364 19.8029
-0.464608 -0.0849906 19.6158
-1.06327 -0.28545 20.9573
-1.40926 -0.127941 20.2891
-0.237533 -0.160744 21.4288
-0.716997 -0.251172 21.2661
0.349631 0.0400863 21.4083
0.0666135 -0.092614 21.4962
0.726897 0.12235 21.1498
0.628324 0.0286549 21.2799
0.778187 0.0690444 21.1539
0.697271 0.0708013 20.8139
1.05304 0.362172 20.4729
0.378539 -0.0166799 21.0613
0.422307 0.335455 21.1428
-0.931482 0.0730828 19.8045
-0.474747 0.132214 19.8217
-0.50495 0.0662827 19.5835
-1.20329 -0.0926267 20.9267
-1.30907 0.333049 20.266
-0.34941 -0.187245 21.4738
-0.915294 -0.029038 21.2445
0.369764 -0.0804761 21.431
-0.011352 -0.113359 21.4934
0.801848 -0.0669061 21.1514
0.578381 -0.170489 21.2338
0.885793 -0.0664994 21.1876
0.669503 -0.260459 20.8032
1.19911 -0.0159527 20.2065
0.425408 -0.187564 20.7151
0.414699 -0.185574 20.4298
-0.733637 0.353227 19.9458
-0.415201 0.263497 19.7045
-1.05915 0.327913 20.794
-1.47259 0.978255 20.1759
-0.445581 0.0232142 21.4522
-1.53966 0.390828 21.4141
0.286595 -0.168016 21.3875
-0.109069 -0.111037 21.7188
0.56947 -0.353971 21.1521
0.682888 -0.45426 21.3032
0.536029 -0.200112 20.7449
0.951272 -0.521234 20.6424
0.555639 -0.428326 19.8614
-1.0641 -0.779655 18.7934
-0.379444 -0.159041 19.378
0.0227691 -0.266528 19.1833
-0.944824 -0.896841 17.6118
0.0259319 -6.4279 20.3927
0.364727 -0.199915 12.1343
0.0142513 -0.17378 0.711212
0.878913 0.311869 14.2773
-0.0558894 0.135747 3.34142
1.05033 1.00602 16.7872
0.107325 0.46652 7.07533
0.997387 0.644914 17.5582
1.18484 1.02644 15.9761
0.0371744 1.01236 9.80307
0.732084 0.596956 16.587
0.106497 0.581344 12.9613
-0.429702 -0.0203304 19.3109
0.0223135 -0.189811 19.083
1.21063 0.502931 13.4407
1.43615 0.754976 13.8148
-0.0804778 0.107065 3.22818
0.723782 0.203592 15.6353
0.0604867 0.316224 10.9133
-0.419145 0.240701 19.3549
0.0217099 0.12621 18.9782
1.29003 0.0747669 12.1368
1.64951 -0.534347 15.3002
-0.124293 -1.40099 -1.10349
0.888758 -0.283839 17.3538
0.0390516 -0.428417 7.78525
-0.932818 1.09497 19.1749
0.0226903 0.481927 19.2402
-1.91384 1.52348 20.5894
0.0698224 3.70392 19.7873
-0.899777 0.29995 20.659
-0.0412103 5.48476 13.7552
0.863548 -0.288744 18.1002
0.00890529 -0.092459 3.04976
1.07508 -0.825309 18.9779
0.0223638 -0.670371 8.09098
0.737474 -0.670945 19.87
0.0733 -1.59259 11.7633
0.0337864 -0.956753 13.1215
1.11703 -0.776906 18.8405
0.412209 -0.167161 19.3976
0.451175 -0.140775 19.6744
1.35308 -0.530058 18.1742
1.91438 -0.931487 20.316
-0.171636 -0.0246865 11.4391
0.606464 -0.320811 21.4981
-0.580009 0.594286 11.7258
-0.0804904 0.148067 21.4136
-0.973798 1.18151 15.8976
-0.891984 0.5659 21.0962
-0.861781 0.845423 15.7441
-1.16329 1.24408 13.6816
-0.947512 0.650497 21.0173
-0.871449 0.610728 15.7373
-0.476267 0.627532 21.1072
0.459312 -0.0196691 19.3298
0.472828 -0.0922476 19.6397
-1.1851 0.823644 13.0337
-1.71539 0.899087 11.6331
-1.41045 0.521037 20.0678
-1.31014 0.0774223 14.7935
-0.566941 0.347531 20.0196
0.44674 0.242269 19.3738
0.51977 0.0748739 19.597
-1.34353 0.327612 11.6891
-1.68255 -0.687431 13.0377
-1.43092 0.0374372 20.1222
-0.722617 -0.263295 16.4221
-0.504008 -0.204422 18.9548
0.997385 1.03374 19.2324
0.443348 0.260888 19.7173
1.94573 1.37516 20.5838
1.46043 0.896026 20.2309
0.862711 0.203292 20.354
1.51113 0.344544 21.4575
-0.923851 -0.267108 16.457
0.0932455 -0.140925 21.7431
-1.12703 -0.912365 17.7319
-0.716503 -0.577932 21.2248
-0.768134 -0.783046 19.531
-0.800085 -0.642008 20.861
-0.425147 -0.390659 19.9607
0.771981 -0.21439 19.9327
0.417076 -0.0603014 19.8688
0.874553 -0.306603 20.924
1.20876 -0.317427 20.3614
0.189662 -0.094247 21.3894
0.57668 -0.251461 21.2584
-0.368372 0.140664 21.4183
-0.080517 0.00187302 21.4762
-0.72331 0.242446 21.0384
-0.667274 0.176284 21.2446
-0.616142 0.171119 20.7022
-0.681362 0.139022 20.8946
-0.591631 0.0288476 20.7062
0.844701 -0.120497 19.8874
0.435499 -0.00510053 19.8447
0.972627 -0.272702 20.9384
1.38024 -0.133104 20.3614
0.201448 -0.146165 21.4463
0.700803 -0.249501 21.2801
-0.441113 0.0655365 21.474
-0.0847632 -0.0755454 21.5143
-0.822181 0.157492 21.0532
-0.747043 0.0282131 21.2761
-0.58724 0.129104 21.0552
-0.786589 -0.00721724 20.8591
-0.540006 -0.109717 20.8756
0.943966 0.0600233 19.8701
0.453237 0.113058 19.8634
1.11707 -0.123752 20.909
1.25527 0.298794 20.3369
0.295707 -0.191305 21.4973
0.879739 -0.0414058 21.2704
-0.480107 -0.0950181 21.4979
-0.0199948 -0.12923 21.5106
-0.881937 -0.103427 21.1195
-0.66894 -0.237855 21.2573
-0.595683 -0.0127295 21.1517
-0.814641 -0.306437 21.0015
-0.517671 -0.273565 20.8935
0.730553 0.338431 19.9923
1.01283 0.301372 20.8066
0.418996 -0.00182867 21.4702
-0.333271 -0.23186 21.4073
-0.650817 -0.359257 21.0448
-0.466209 -0.375187 20.762
-0.825024 -0.17708 19.8345
-1.18744 -0.708459 18.6179
-1.01755 -0.458491 19.4695
-1.19708 -0.287846 19.3245
-0.45667 -0.116555 19.6327
-2.29837 -0.953146 20.1513
-1.01473 -0.334147 20.9602
-0.358025 -0.345129 9.41726
-1.22676 -0.654956 21.2092
-1.3584 -0.65178 21.3236
-0.574316 -0.373164 21.4803
-0.212205 -0.139921 21.4005
0.135531 -0.167726 5.38026
-0.11302 -0.0858172 21.5144
-0.0367174 -0.203592 21.3093
0.233403 0.0746115 21.466
0.337272 0.071077 21.383
0.746911 0.0484089 9.1623
0.52004 0.2655 21.3774
0.612029 0.170897 21.0721
0.819045 0.363019 21.1927
0.677269 0.175978 21.1378
1.16858 0.959795 14.9972
0.936894 0.486347 21.0137
1.15927 0.366211 20.7944
1.02842 0.382236 20.7147
0.643625 0.0868413 20.9196
1.12312 0.571004 15.4321
0.740206 0.331756 21.6201
0.97945 0.281293 21.1836
0.485205 0.403547 21.035
-0.882349 -0.0469601 19.8089
-1.51081 -0.147091 18.0908
-1.3332 0.157258 19.2288
-0.477796 -0.00694832 19.5938
-3.03588 -0.34171 20.1377
-1.12239 -0.206254 20.946
-1.88836 -0.184731 21.2824
-0.869102 -0.668962 21.2537
-0.281407 -0.195177 21.4628
-0.391597 -0.451757 21.1928
0.251472 -0.14244 20.947
0.361211 -0.022263 21.4212
0.611198 -0.0765212 20.7797
0.968979 0.176608 20.7275
0.741854 0.0413217 21.0755
0.706909 0.435877 7.69499
1.28234 -0.0880127 20.7172
1.13049 0.273567 20.1386
0.888846 -0.0244059 21.4054
1.31999 0.322439 10.8319
1.0625 -0.144774 19.8606
0.418503 0.0749403 20.7863
-0.884279 0.24144 19.86
-1.30675 0.984326 18.6072
-0.914072 0.62974 19.6418
-0.46285 0.172814 19.6276
-2.17608 0.938394 20.1213
-1.17734 0.129402 20.8496
-2.65374 0.907089 19.2655
-1.52965 0.676011 20.7877
-1.6727 -0.147477 21.5396
-0.441458 -0.108663 21.4752
0.261749 0.945743 8.5472
-0.702503 0.0608128 21.7551
-0.0515998 -0.244035 21.6136
0.330233 -0.135976 21.412
1.42146 0.887385 10.2085
0.411516 -0.299081 21.5497
0.905199 -0.343027 21.1243
0.706043 -0.171024 21.0101
1.60537 -0.215583 14.3295
0.82491 -0.558467 21.0285
1.09331 -0.374971 20.4235
0.710911 -0.133306 20.9662
1.11689 -0.338182 16.6711
0.681342 -0.328956 20.1047
0.469382 -0.32982 20.1086
1.24489 -0.696764 18.6668
0.0552608 -1.34829 17.8531
0.0769535 -0.977795 17.131
0.0225413 -0.22817 19.1332
-0.0283998 -6.76525 19.1422
0.213589 -0.280872 10.5627
0.120954 -0.732662 11.0978
0 0 0
-0.0497508 0.0189772 4.59177
-0.0512848 0.0133281 3.19634
0 0 0
-0.133762 0.432958 6.27131
0.152642 0.310078 4.86215
0.0237888 0.331111 2.8593
-1.15427 1.17657 13.6963
0.0753136 0.566493 8.69333
-0.0118795 -0.0243711 1.04689
-0.0216517 0.559712 6.51562
-1.01214 0.89868 13.9844
0.0290805 0.924167 12.6912
0.134571 0.787781 7.8799
0.0763127 0.469828 11.8405
1.53885 -0.150582 18.2303
0.0767953 0.691566 16.5917
0.0237012 -0.0459802 18.9351
-0.869829 0.597812 6.5128
-0.0300882 -0.890358 -2.32818
-0.125269 -0.979419 -2.44088
-1.52367 0.544511 12.0819
0.151871 -0.152298 4.09389
0.0497691 -0.0560964 9.34926
1.3284 0.883896 18.6871
0.0475005 1.71888 18.5708
0.0201656 0.371702 19.0095
0.0880899 6.89535 19.6673
2.73516 0.645023 19.1202
0.0803021 2.80709 20.1264
1.52547e-18 -1.86413e-16 -2.82332e-16
-0.395787 1.02247 7.74824
0.0102382 -0.0147137 1.40709
1.383e-19 4.43235e-18 -1.39974e-16
-1.19332 0.533424 8.60103
-0.0227527 -0.308451 5.39248
0.00489923 0.496123 -0.415753
-1.59059 -0.201767 12.3795
0.138109 -1.14921 10.4531
-0.224841 -2.28606 3.5765
-1.1492 -0.24168 15.1315
0.0125148 -1.3583 13.4099
0.128542 -1.07397 7.64207
0.816494 -0.168743 19.902
1.02179 -0.419992 19.5423
1.19515 -0.286686 19.4
0.478429 -0.122729 19.6545
2.17352 -0.874191 20.3264
0.914603 -0.298945 20.9422
1.05941 -0.52133 21.1244
1.11986 -0.590851 21.2322
0.575229 -0.39563 21.5395
0.178117 -0.117596 21.4121
0.0698243 0.00224498 21.5177
-0.0679388 -0.120344 21.2379
-0.142029 0.142871 21.2776
-0.42357 0.111085 21.4413
-0.620315 0.392169 21.3963
-0.777659 0.30365 21.0608
-1.01186 0.520418 20.9784
-0.773242 0.216094 21.0393
-1.06754 0.610883 20.9214
-1.3442 0.492667 20.6077
-1.20324 0.594615 20.6718
-0.600446 0.151359 20.8799
-0.719307 0.49253 21.0004
-1.03798 0.352605 19.6419
-0.483222 0.531016 20.7273
0.917968 -0.0491835 19.8693
1.33126 0.1587 19.3184
0.491297 -0.00604016 19.615
2.88668 -0.318075 20.3438
1.03302 -0.206265 20.9253
1.67519 -0.305026 21.1526
0.893707 -0.655933 21.4857
0.233759 -0.186403 21.4839
0.251829 -0.469525 21.0454
-0.235336 0.00346535 20.4319
-0.461718 -0.0151265 21.4914
-0.862796 -0.0216227 20.2221
-1.24601 0.268001 20.1993
-0.866249 0.0324552 20.9997
-1.50275 -0.0214169 20.0787
-1.42575 0.342119 19.5537
-0.56516 0.0687952 21.2167
-1.14879 -0.137062 19.1766
-0.887495 -0.0467093 19.7582
0.86799 0.233864 19.9088
0.937332 0.588156 19.6963
0.487613 0.172547 19.6478
2.09226 0.812171 20.2513
1.11857 0.0979351 20.8603
1.50057 0.60197 20.7897
1.63148 -0.17559 21.5846
0.391729 -0.126989 21.4926
0.674367 0.0210115 21.7805
0.0126362 -0.265323 21.4134
-0.408047 -0.184468 21.4513
-0.430972 -0.398805 21.6128
-1.05499 -0.437443 20.5311
-0.790407 -0.259017 21.0195
-0.806799 -0.677241 20.9291
-1.28155 -0.48866 19.3475
-0.698723 -0.154236 20.8537
-0.734647 -0.64711 20.3083
-0.52086 -0.280695 19.8819
-1.11234 -0.379327 19.3701
-1.28997 -0.657437 21.2741
-0.0680394 -0.134861 21.5022
0.57071 0.226015 21.3031
1.08847 0.423509 20.9261
0.867397 0.316788 21.83
-1.31288 -0.078877 19.2283
-1.6859 -0.563535 21.4394
-0.168592 -0.385976 21.0132
0.616408 0.0547798 20.7236
1.23013 0.161329 20.524
1.09418 0.103361 18.4578
-1.17418 0.512731 19.3915
-1.81804 0.306355 20.9417
-0.688107 -0.255741 21.7462
0.534614 -0.247721 21.4076
1.05402 -0.38239 21.0898
0.880541 -0.259983 20.3094
0.0689025 -1.2274 17.4616
0.069382 -0.147552 3.4579
0 0 0
0.0599316 0.0811899 1.39814
0.0576417 0.365943 4.5351
0.0818261 0.855974 10.2855
0.0807927 -0.227159 16.596
0.131046 -0.800671 -4.09366
0.192286 0.539304 4.52313
0.058538 1.66746 17.5004
0.105687 1.68796 13.8563
0 0 0
-0.0402054 0.563315 -0.761264
-0.0316882 -0.81952 1.67559
0.00939996 -1.62601 5.45449
1.11358 -0.374511 19.4769
1.07053 -0.542148 21.1643
-0.00908319 -0.043154 21.4646
-0.702123 0.359258 21.2764
-1.21473 0.578656 20.7436
-0.868369 0.453561 20.4295
1.32959 -0.0804401 19.3229
1.43652 -0.583941 21.295
0.036351 -0.343753 20.8418
-0.839497 0.161424 20.4735
-1.44643 0.282456 19.7311
-1.09871 0.117155 19.2826
1.18485 0.462284 19.4934
1.73792 0.191157 20.9083
0.626537 -0.317527 21.7206
-0.670136 -0.347693 20.9695
-1.24047 -0.47237 20.4586
-1.21678 -0.503262 19.4249
-1.93151 -0.461711 2.14717
0.00177336 -0.0744686 0.151546
0.0342837 -0.10713 0.674557
0.382727 -0.178635 1.33731
-0.00050433 0.00280893 0.00923981
0.0680321 0.00847564 1.06954
-2.2705 0.385008 2.5207
-0.135115 0.695964 0.430689
-0.0280933 0.0103545 0.376093
0.116252 0.0588891 0.745669
-0.0158867 0.0113903 -0.0162273
0.0206198 0.0236346 0.143255
0 0 0
4.14666 -1.13185 5.29028
0 0 0
0.000518899 0.00166574 0.00841375
-0.259151 -0.00781963 1.14714
-0.013864 0.0225408 0.273359
0.174304 0.701117 0.446541
5.15349 0.806877 3.64419
0.0723891 -0.0384734 0.704135
0.015618 0.0160663 -0.00900595
-0.189433 0.0426722 0.770437
-0.0604848 0.0621638 0.452512
-0.318048 0.319516 1.89377
0.00372546 -0.0139372 0.337959
-9.31425e-19 4.77465e-18 -1.54636e-16
-0.0613593 -0.0224347 0.603755
0.0716952 -0.0351238 1.21779
-0.00143027 0.00553746 0.272924
0 0 0
0.00990169 0.00163863 0.138168
-0.138844 -0.234704 0.621174
-0.000257157 0.00103688 0.0338646
0.00879707 0.020573 0.0841863
-0.14018 0.0676758 0.170472
0.00412761 0.0112409 0.047003
-0.000126404 0.00437588 0.0352001
0.00513329 0.0150605 0.0771957
0.0695235 0.00545061 0.452576
0.131305 0.0546657 0.717638
0.00860662 -0.0126456 0.304482
-0.00091825 0.0019478 0.129016
0 0 0
-0.0618208 -0.0533384 1.04581
-0.0185881 -0.00279121 0.167818
0.00218117 0.0162679 0.249529
0 0 0
0.414251 -0.442567 1.58056
0.546903 0.389774 0.773299
-0.000379653 0.00225009 0.0393698
-0.00820483 0.0194249 0.0872489
-0.016231 0.0363964 0.202946
-0.117638 0.087975 0.629873
-0.000355737 0.00593551 0.0193837
-0.00885324 0.0175601 0.0674197
0 0 0
0 0 0
0 0 0
-0.0253035 -1.28262 0.411673
-0.000752652 0.00254618 0.0720862
-0.000275793 -0.000503741 0.0166578
0.00220583 0.00835001 0.0715036
0 0 0
0 0 0
-0.0114063 -0.0382549 -0.0132917
0 0 0
0 0 0
0.0215009 0.473763 0.0338185
0.00129113 0.00394232 0.0460611
-0.0265 -0.0488186 0.350881
-0.0101674 8.73213e-05 0.0196791
0 0 0
-8.96606e-05 0.0018996 -0.0167201
0 0 0
0 0 0
0 0 0
0 0 0
0 0 0
0 0 0
0.0201177 -0.00253445 0.000465738
-0.0029746 0.00595829 0.0456671
-0.00645768 0.0240497 0.325659
-0.00852775 0.00846317 0.0950505
0.0216097 -0.000106426 0.0348174
0.0101997 -0.0279841 0.201884
0 0 0
-0.100889 0.023853 0.625698
0 0 0
0.0108134 0.00237537 0.142899
0.0381807 -0.0864403 0.37616
0 0 0
0 0 0
0 0 0
0 0 0
0.000300603 0.00255294 0.0278144
-1.21791e-06 -2.6025e-07 0.000100704
0 0 0
-2.04352e-05 0.00729512 0.036625
0.106644 0.0984103 0.875001
0 0 0
0.000262995 0.0010607 0.0525728
0.000183583 -0.000968209 0.0360168
-0.00199185 -0.0493856 0.295904
0 0 0
0 0 0
3.09919e-18 -5.34683e-18 6.85896e-17
-5.05436e-06 6.86519e-05 0.000418596
4.38798e-19 -7.00962e-18 -3.71189e-17
0 0 0
-0.106018 0.0706241 0.884911
-0.000786126 0.00962356 0.0430467
0 0 0
0 0 0
0.0289834 -0.0164238 0.166497
0 0 0
0 0 0
-8.29476e-05 0.0084257 0.0477171
0 0 0
-7.19525e-05 0.00536079 0.0298113
0 0 0
0.000511057 0.00212314 0.0130601
0.0255463 0.0954292 0.9682
3.27846e-05 0.000123334 0.000773028
0 0 0
0 0 0
0 0 0
0 0 0
0.0256613 0.0171183 0.169028
-0.0145542 0.000902838 0.131183
0.00137812 0.00367819 0.0730087
0 0 0
0.00352257 0.0147049 0.163765
-0.00061685 0.00670177 0.07577
0 0 0
0 0 0
-0.106456 -0.147914 0.0820173