# vtk DataFile Version 2.0
tri_press
ASCII
DATASET UNSTRUCTURED_GRID
POINTS 3682 float
-0.684883 0.145 -2.095
-0.763196 0.245 2.075
-0.745 0.665 -1.91288
-0.695 0.945 1.99582
0.684883 0.145 -2.095
0.763201 0.245 2.075
0.745 0.665 -1.91288
0.695 0.945 1.99577
-0.758606 0.130715 -0.705
-0.807072 0.141686 0.685
-0.802896 0.832896 -0.60998
-0.775191 0.915191 0.69292
0.75861 0.130712 -0.705
0.807058 0.141703 0.685
0.803031 0.833031 -0.609997
0.775192 0.915192 0.692887
-1.44921 -0.25225 -3.21368
-1.45608 -0.198684 -2.13657
-1.51289 -0.205796 -0.744318
-1.55372 -0.207141 0.665468
-1.53636 -0.137034 2.0592
-1.52934 -0.0776085 3.14354
-1.53391 -0.0254603 4.2145
-1.45011 0.0604464 -3.15394
-1.4576 0.133945 -2.08634
-1.52534 0.147291 -0.711038
-1.55821 0.155006 0.672109
-1.51751 0.22595 2.04908
-1.51805 0.284355 3.1322
-1.52972 0.33552 4.20599
-1.47701 0.648141 -3.01
-1.50253 0.719185 -1.9388
-1.55717 0.841106 -0.622876
-1.54003 0.905694 0.686883
-1.47475 0.946384 2.00448
-1.49661 1.00169 3.09118
-1.52377 1.05497 4.17902
-1.50888 1.6353 -2.85959
-1.52544 1.7216 -1.80144
-1.54866 1.86027 -0.513755
-1.55158 1.97398 0.755154
-1.5381 2.04368 2.04374
-1.53599 2.08958 3.1038
-1.54396 2.13648 4.18212
-0.703229 -0.246406 -3.21931
-0.698018 -0.189633 -2.14477
-0.744056 -0.213227 -0.743224
-0.786564 -0.217087 0.676473
-0.77727 -0.12925 2.07844
-0.773919 -0.0718519 3.15659
-0.778624 -0.0228133 4.22205
-0.701807 0.0598236 -3.15567
-0.769849 0.291287 3.14296
-0.778123 0.338489 4.21168
-0.722817 0.625787 -2.99924
-0.752598 1.00345 3.08944
-0.776175 1.05659 4.17864
-0.746884 1.61951 -2.84894
-0.75786 1.70643 -1.78971
-0.778762 1.85618 -0.50669
-0.788945 1.97778 0.754294
-0.784746 2.04682 2.03767
-0.784806 2.09131 3.09773
-0.791825 2.1377 4.17771
0.745263 -0.246389 -3.21931
0.732093 -0.189625 -2.14478
0.773261 -0.21322 -0.743226
0.795034 -0.217074 0.67647
0.764195 -0.129244 2.07844
0.745206 -0.0718455 3.15658
0.735284 -0.0228043 4.22203
0.738109 0.0598375 -3.15568
0.732669 0.291291 3.14294
0.726907 0.338497 4.21167
0.754755 0.625805 -2.99924
0.708451 1.00346 3.08941
0.714284 1.05659 4.17862
0.770306 1.61955 -2.84895
0.772491 1.70648 -1.78972
0.766529 1.85623 -0.506707
0.743509 1.97781 0.75427
0.720274 2.04683 2.03764
0.713092 2.09133 3.0977
0.709975 2.13771 4.17769
1.48305 -0.252207 -3.21369
1.47509 -0.198644 -2.13658
1.52915 -0.205763 -0.74433
1.56489 -0.207114 0.665452
1.53597 -0.137017 2.05918
1.51056 -0.0775921 3.14351
1.49717 -0.0254405 4.21447
1.47399 0.0604899 -3.15395
1.45457 0.133994 -2.08635
1.52326 0.147339 -0.711052
1.56477 0.155031 0.672088
1.52406 0.225963 2.04906
1.49624 0.284369 3.13216
1.4868 0.335539 4.20596
1.49523 0.648196 -3.01001
1.49608 0.719261 -1.93882
1.55036 0.841239 -0.622904
1.54108 0.905724 0.686834
1.47619 0.946395 2.00442
1.46626 1.0017 3.09113
1.46964 1.05499 4.17898
1.52646 1.63538 -2.85961
1.53239 1.72169 -1.80146
1.53367 1.86036 -0.513788
1.51178 1.97403 0.755108
1.48185 2.04372 2.04369
1.4698 2.08961 3.10374
1.4657 2.13651 4.18208
-0.769859 0.405 -2.05886
0 0.144123 -2.09588
-0.734724 0.124878 -1.4
-0.756203 0.595 2.06252
2.5034e-06 0.273897 2.0461
-0.808868 0.169609 1.38
0 0.729023 -1.9769
-0.80452 0.77952 -1.26143
0 0.966244 2.01704
-0.765927 0.960927 1.34437
0.769859 0.405 -2.05886
0.734725 0.124878 -1.4
0.756258 0.595 2.06254
0.808992 0.169489 1.38
0.804523 0.779523 -1.26144
0.765914 0.960914 1.34433
-0.787811 0.131229 -0.00999999
-0.872066 0.481806 -0.65749
2.00141e-06 0.124508 -0.705
-0.88387 0.528439 0.68896
-6.88688e-06 0.129726 0.685
-0.78968 0.87468 0.0414701
6.75298e-05 1.14773 -0.609988
3.89858e-07 1.38877 0.692903
0.787818 0.131224 -0.00999999
0.872052 0.481872 -0.657498
0.883871 0.528448 0.688943
0.789694 0.874694 0.041445
-0.896586 0.443403 -1.33072
0.896586 0.443436 -1.33072
1.0007e-06 0.11942 -1.4
3.37649e-05 0.859989 -1.26143
0 0.405 -2.26262
-0.874892 0.505122 0.015735
0.874889 0.50516 0.0157225
-2.44274e-06 0.126516 -0.00999999
3.39598e-05 1.37448 0.0414575
-0.89583 0.561719 1.36219
0.895837 0.561724 1.36216
-2.19174e-06 0.15465 1.38
1.94929e-07 1.18394 1.34435
1.2517e-06 0.595 2.15199
-0.72162 0.275 -2.07118
-0.342441 0.144123 -2.09588
-0.718652 0.126091 -1.7475
-0.798981 0.42 2.10804
-0.381597 0.257277 2.06272
-0.812262 0.181074 1.7275
-0.751918 0.535 -1.98036
-0.3725 0.713018 -1.9609
-0.785744 0.733244 -1.58715
-0.741238 0.77 2.0448
-0.3475 0.956618 2.00743
-0.732465 0.954965 1.6701
0.342441 0.144122 -2.09588
0.726999 0.275 -2.07656
0.718742 0.126001 -1.7475
0.381602 0.260389 2.05961
0.798922 0.42 2.10796
0.812302 0.181039 1.7275
0.3725 0.712886 -1.96077
0.751782 0.535 -1.98022
0.78575 0.73325 -1.58716
0.3475 0.956555 2.00734
0.741258 0.77 2.04479
0.732471 0.954971 1.67005
-0.749287 0.125175 -1.0525
-0.77321 0.13097 -0.3575
-0.84468 0.291588 -0.681245
-0.380933 0.124349 -0.705
-0.803406 0.160211 1.0325
-0.802053 0.131846 0.3375
-0.858414 0.328591 0.68698
-0.40711 0.128566 0.685
-0.808578 0.811078 -0.935705
-0.867096 0.672158 -0.633735
-0.796105 0.853605 -0.284255
-0.460799 1.10908 -0.609984
-0.768301 0.935801 1.01865
-0.865514 0.739806 0.69094
-0.782679 0.895179 0.367195
-0.492323 1.36143 0.692912
0.749273 0.12519 -1.0525
0.380936 0.124349 -0.705
0.773216 0.130966 -0.3575
0.844693 0.291611 -0.681249
0.803425 0.160196 1.0325
0.4071 0.128566 0.685
0.80201 0.131892 0.3375
0.858417 0.328599 0.686972
0.808598 0.811098 -0.935718
0.460585 1.10845 -0.609993
0.867088 0.672225 -0.633748
0.796105 0.853605 -0.284276
0.768309 0.935809 1.01861
0.49255 1.36189 0.692895
0.865515 0.739811 0.690915
0.78267 0.89517 0.367166
-0.875987 0.424201 -1.69479
-0.384929 0.405 -2.24236
5.00351e-07 0.123482 -1.74794
0 0.274561 -2.19599
-0.896068 0.28414 -1.36536
-0.367361 0.11942 -1.4
-0.867067 0.57836 1.71235
-0.378101 0.595 2.13706
1.55826e-07 0.177759 1.71305
1.87755e-06 0.434449 2.21656
-0.897328 0.365664 1.37109
-0.404435 0.15465 1.38
1.68824e-05 0.812614 -1.61917
0 0.567011 -2.16879
-0.895534 0.611462 -1.29607
-0.402243 0.849778 -1.26143
9.74646e-08 0.99589 1.68069
6.25849e-07 0.780622 2.14844
-0.864156 0.761323 1.35328
-0.382964 1.15177 1.34436
0.875985 0.424218 -1.69479
0.384929 0.405 -2.24236
0.896074 0.284157 -1.36536
0.367363 0.11942 -1.4
0.866979 0.578362 1.71235
0.37813 0.595 2.13705
0.897329 0.365607 1.37108
0.404495 0.15465 1.38
0.895534 0.61148 -1.29608
0.402279 0.850532 -1.26144
0.86414 0.761319 1.35325
0.382957 1.15184 1.34434
-0.850519 0.308592 0.00286752
-0.395131 0.126425 -0.00999999
-0.887463 0.462604 -0.994103
-0.873308 0.493464 -0.320878
1.50105e-06 0.117714 -1.0525
-2.20666e-07 0.126403 -0.3575
-0.87598 0.51678 0.352348
-0.894672 0.545079 1.02557
-4.66481e-06 0.128056 0.3375
-4.53931e-06 0.146059 1.0325
-0.867248 0.707382 0.0286025
-0.506276 1.34749 0.0414638
5.06473e-05 0.949548 -0.935711
5.07448e-05 1.32164 -0.284265
1.71748e-05 1.39173 0.367181
2.92394e-07 1.33876 1.01863
0.850521 0.308608 0.00286126
0.39513 0.126425 -0.00999999
0.887463 0.462654 -0.994109
0.873302 0.493516 -0.320888
0.875979 0.516804 0.352333
0.894672 0.545086 1.02555
0.867238 0.7074 0.0285838
0.506223 1.34731 0.0414513
-0.855607 0.27957 -1.72114
-0.895013 0.2952 -1.0233
-0.881252 0.634406 -0.964904
-0.874592 0.573231 -1.64097
0.855299 0.279578 -1.72114
0.874575 0.57324 -1.64097
0.881242 0.634466 -0.964913
0.895013 0.295225 -1.0233
-0.354901 0.123478 -1.74772
0.354902 0.123478 -1.74772
0.373334 0.117714 -1.0525
-0.373332 0.117714 -1.0525
-0.387372 0.807043 -1.60316
-0.401829 0.915387 -0.935708
0.401914 0.916286 -0.935714
0.387389 0.807244 -1.60316
-0.363685 0.274781 -2.19586
-0.378715 0.551006 -2.18051
0.378715 0.551006 -2.18065
0.363685 0.274781 -2.19586
-0.8478 0.29999 -0.339189
-0.853176 0.319237 0.344924
-0.866482 0.723645 0.359771
-0.867604 0.689986 -0.302566
0.84782 0.300003 -0.339194
0.867596 0.690029 -0.302582
0.866466 0.72365 0.359749
0.853179 0.319249 0.344917
-0.388033 0.125385 -0.3575
0.388034 0.125385 -0.3575
0.401283 0.12716 0.3375
-0.401288 0.12716 0.3375
-0.507907 1.27702 -0.28426
-0.504547 1.36496 0.367188
0.504561 1.36495 0.367173
0.50788 1.27683 -0.284271
-0.897194 0.350363 1.02904
-0.873344 0.392832 1.71993
-0.843571 0.765662 1.69122
-0.871418 0.741569 1.02211
0.897193 0.350341 1.02903
0.871423 0.741569 1.02208
0.843534 0.76566 1.6912
0.873348 0.392803 1.71993
-0.403987 0.146059 1.0325
0.40401 0.146059 1.0325
0.393048 0.179119 1.72028
-0.393016 0.165531 1.72028
-0.385279 1.3114 1.01864
-0.365232 0.984625 1.67539
0.365229 0.984675 1.67537
0.385277 1.31147 1.01862
-0.379849 0.427224 2.23621
0.379866 0.427224 2.23617
0.362815 0.775311 2.13172
-0.3628 0.775311 2.132
-0.701585 0.21 -2.08142
-0.513662 0.132497 -2.1075
-0.708198 0.129114 -1.92125
-0.787751 0.3325 2.09818
-0.572396 0.253976 2.06602
-0.786074 0.214692 1.90125
-0.750801 0.6 -1.94896
-0.55875 0.692175 -1.94005
-0.765918 0.699668 -1.75002
-0.723144 0.8575 2.02534
-0.52125 0.948913 1.99973
-0.715208 0.951458 1.83296
0.513662 0.132489 -2.10751
0.708756 0.21 -2.08859
0.708239 0.129074 -1.92125
0.572401 0.251898 2.0681
0.787505 0.3325 2.09792
0.787837 0.212934 1.90125
0.55875 0.692139 -1.94002
0.750868 0.6 -1.94903
0.765918 0.699668 -1.75002
0.52125 0.947793 1.99857
0.723171 0.8575 2.02532
0.715222 0.951472 1.83291
-0.751557 0.130334 -0.87875
-0.765918 0.130832 -0.53125
-0.84464 0.189653 -0.693123
-0.568539 0.129993 -0.705
-0.811586 0.144602 0.85875
-0.803953 0.137375 0.51125
-0.819431 0.241794 0.68599
-0.609024 0.131259 0.685
-0.808396 0.824646 -0.772843
-0.846848 0.758453 -0.621858
-0.799485 0.843235 -0.447118
-0.676496 1.06029 -0.609982
-0.771775 0.925525 0.855783
-0.835125 0.834885 0.69193
-0.778953 0.905203 0.530058
-0.658448 1.18769 0.692916
0.75156 0.130332 -0.87875
0.568542 0.129993 -0.705
0.765921 0.130831 -0.53125
0.844658 0.189659 -0.693125
0.81166 0.144532 0.85875
0.609017 0.131259 0.685
0.805478 0.135854 0.51125
0.819438 0.241801 0.685986
0.808407 0.824657 -0.772857
0.675713 1.05855 -0.609995
0.846792 0.758494 -0.621872
0.799479 0.843229 -0.447136
0.771777 0.925527 0.855747
0.658448 1.18769 0.692891
0.83513 0.83489 0.691901
[...]
POINT_DATA 3682
SCALARS point_scalars float 1
LOOKUP_TABLE default
-81.6178
-50.6477
-47.5163
-40.66
-90.7065
-51.2064
-48.0893
-41.6517
-38.6339
-38.8009
-65.7476
-47.5701
-38.6854
-38.9403
-65.5947
-47.7035
-85.8235
-86.2058
-51.7846
-36.5649
-51.3064
-49.5124
-43.8214
54.791
-83.7535
-38.0356
-35.2366
-49.7308
-46.8748
-43.311
64.2552
-57.0307
-50.8588
-42.4832
-47.1803
-45.3193
-42.4841
-18.145
-50.5364
-104.876
-57.5774
-39.0287
-40.3406
-40.3406
21.7715
-104.229
-39.1822
-40.4585
-49.5197
-44.1181
-43.0389
77.038
-42.4083
-42.1994
144.022
-41.4501
-41.2898
4.49564
-38.1293
-91.5439
-57.9907
-37.7155
-38.1423
-37.4414
19.0615
-110.334
-39.3745
-40.5526
-50.1966
-43.947
-43.3647
76.0988
-42.5594
-42.4084
144.68
-41.8448
-41.737
8.45245
-38.2266
-91.4962
-58.6056
-38.032
-38.9467
-38.3148
-3.39594
-77.2792
-52.3017
-36.6887
-51.6705
-50.0392
-44.3086
56.7164
-78.1571
-38.0016
-35.6701
-50.3792
-47.4946
-43.8038
62.7177
-56.6544
-50.886
-42.6172
-47.9255
-46.0377
-43.0451
-20.8186
-50.6941
-104.277
-57.6493
-39.7788
-41.4231
-41.4231
-14.4006
-129.935
-55.7423
-43.4016
-46.8653
-47.0021
-34.0275
-43.1875
-36.1786
-45.7598
-23.7518
-55.8041
-44.2133
-47.4004
-43.2544
-45.9406
-36.7603
-42.1528
-41.1612
-38.3812
-43.5977
-55.7966
15.1859
-63.6101
-36.8107
-42.1594
-38.523
-55.8793
-61.224
-61.2203
-56.6439
-1.17578
205.333
-40.9855
-41.0549
-38.598
-92.2292
-47.8331
-48.1682
-49.4244
-38.3855
-38.533
-17.9566
-127.045
-74.2387
-47.5304
-48.4353
-56.1155
-29.6601
-26.6518
-49.5524
-43.1037
-36.2948
-39.8365
-126.946
-16.949
-74.4706
-47.6411
-48.1573
-56.7446
-26.8905
-30.7857
-49.6807
-36.9653
-44.1335
-40.1899
-45.5
-36.5331
-38.6531
-40.2854
-44.5384
-36.2141
-34.9307
-43.0743
-45.9791
-49.5604
-61.2833
1.66806
-46.0365
-43.1333
-50.9915
-61.1756
-45.5093
-40.304
-36.577
-38.6392
-44.8274
-43.1944
-36.1378
-35.0258
-46.0734
2.0939
-49.5382
-61.2891
-46.21
-61.542
-43.2719
-51.1069
-70.6356
185.737
-79.9922
191.152
-62.0633
-55.5658
-51.0733
-39.4917
-53.0562
-42.4474
-48.3231
-48.7442
-7.23116
161.553
-59.7528
-7.39412
-35.6077
-36.2981
-46.4719
-39.1855
-70.1618
185.862
-61.9863
-55.5874
-51.6487
-40.3628
-48.6816
-49.4754
-59.82
-7.51844
-46.7365
-39.2866
-37.3824
-37.9076
-50.9852
-41.9227
-46.943
-38.5253
-39.2653
-42.9942
-40.349
-45.2174
-46.8669
-85.4179
25.9072
-84.5661
-76.5628
-48.3137
-37.4286
-37.9377
-51.0022
-41.9506
-39.3643
-43.2927
-46.9636
-85.6245
-61.3921
-52.211
-52.0674
-69.1092
-60.0803
-69.3464
-52.0998
-52.247
-78.0812
-78.0647
-46.1848
-46.2086
-27.4194
17.065
16.8467
-27.4465
186.417
111.797
111.444
186.561
-37.7826
-36.8568
-44.168
-49.243
-37.8005
-49.2498
-44.272
-36.9269
-37.8964
-37.9179
-39.6943
-39.6378
-80.6838
-69.238
-69.2903
-80.1775
-44.2204
-53.2349
-47.0875
-44.4938
-44.4854
-44.7041
-47.7325
-53.7931
-44.4178
-44.6682
-53.9159
-51.8679
-49.528
-36.6239
-36.9093
-49.6009
-42.2306
-42.4621
-39.3903
-38.1089
-26.3877
-130.652
-101.97
-49.4457
-49.0073
-51.7878
-29.465
-27.8966
-50.5347
-42.4016
-36.6964
-39.1477
-129.732
-38.7833
-103.065
-48.7187
-50.0144
-52.0419
-27.7789
-34.0611
-50.3129
-37.5379
-43.3987
-39.7309
-41.3931
-37.127
-38.0259
-39.2492
-42.745
-36.9516
-34.9605
-42.0883
-61.7284
-56.9496
-63.1461
-67.2663
-46.8428
-45.5015
-48.8476
-52.8928
-41.4434
-39.2917
-37.1739
-37.9924
-43.0863
-42.2552
-37.2497
-35.0363
-61.795
-65.8168
-56.8662
-63.0698
-46.982
-52.9963
-45.6381
-48.9726
-12.6238
-30.4846
-68.7256
132.206
-131.702
-131.709
-99.7523
153.589
-65.1328
-49.3956
-62.191
-54.6349
-46.0692
-43.6074
-48.332
-40.1934
-47.3797
-47.0322
-52.4278
-42.8835
-51.2312
-46.236
-47.9334
-48.1261
-31.3995
-31.4487
-24.861
-9.12233
-47.2591
-42.6734
-54.05
-18.2272
-36.0493
-36.4342
-36.248
-33.5179
-42.0933
-46.4374
-45.5021
-40.937
-26.7571
-32.3979
-66.8167
133.65
-65.2514
-49.3919
-62.1096
-54.7506
-46.778
-44.4382
-49.0179
-40.9668
-51.8174
-46.6448
-48.3025
-48.7785
-47.3752
-42.7846
-54.1692
-18.4138
-42.3335
-46.6071
-45.7359
-41.1044
-36.1052
-36.389
-37.1384
-37.1295
-40.2196
-45.0354
-45.242
-42.0526
-40.9404
-40.9474
-44.0607
-39.3025
-36.64
-40.1668
-38.1068
-40.9752
-43.4455
-43.5087
-41.7398
-46.5107
-58.5359
-52.9499
-51.5038
-68.128
13.5766
13.684
32.9184
-24.1135
-63.3484
-63.4319
-69.4224
-56.8802
-36.1484
-36.4412
-37.1746
-37.1794
-40.2257
-45.035
-45.2538
-42.0683
-36.7683
-40.3071
-38.2274
-41.0993
-58.5929
-53.0629
-51.5806
-68.2262
-71.9312
-61.8543
-59.9705
-54.51
-71.8521
-61.8102
-60.0022
-54.5399
-66.1602
-56.4371
-56.4423
-50.6946
-25.8841
-2.24771
-2.32409
11.935
204.673
188.576
168.624
204.637
-39.0031
-41.5337
-40.2659
-43.3963
-39.0655
-41.5922
-40.3511
-43.4708
-38.4057
-38.3106
-39.3518
-38.421
-91.245
-102.265
-84.8435
-91.2628
-51.6781
-48.1611
-47.4126
-45.6721
-52.1367
-48.5091
-47.7222
-45.9422
-51.7947
-49.1301
-49.558
-47.0342
-36.28
-38.5205
-38.5824
-41.6069
-38.6547
-41.0817
-38.3026
-39.2926
-78.7229
96.1953
-97.8138
78.5206
-59.9697
-75.4439
-49.3847
-42.2013
-50.0586
-43.3705
-55.4268
-53.532
-54.7781
74.9586
-30.5765
12.4911
-56.6206
-34.7166
-47.0071
-39.8487
-36.3411
-36.2098
-43.9893
-37.3496
-97.7593
79.644
-71.7819
98.4162
-58.516
-75.4792
-52.2978
-43.6914
-49.9964
-42.5437
-55.977
-54.7478
-30.5393
11.8842
-54.6276
74.3456
-56.9191
-34.7428
-36.7436
-37.7853
-47.7291
-40.8386
-44.4699
-37.6405
-50.6573
-45.6135
-37.6494
-37.1473
-45.9766
-38.2094
-43.3065
-38.6121
-45.9737
-43.7441
-36.3305
-38.5496
-36.0185
-36.5905
-40.9609
-46.5508
-51.7457
-2.50295
-48.9782
-49.8397
-54.8205
-86.6611
23.1944
-34.8048
-45.1257
-51.6615
-43.2989
-43.6152
-47.6463
-57.6161
-63.7817
-57.5251
-50.6636
-45.5492
-43.3183
-38.6314
-37.6588
-37.1896
-45.9916
-38.2101
-46.203
-44.0418
-41.0444
-46.73
-36.3803
-38.6278
-36.1217
-36.8502
-51.7811
-2.75591
22.5498
-34.5448
-48.9706
-49.8175
-54.8071
-86.8424
-45.349
-51.7394
-63.8627
-57.3792
-43.4215
-43.7854
-47.7615
-57.7021
-65.7848
-74.5271
189.432
152.917
-79.7333
-79.734
189.214
189.273
-77.742
-53.8786
-64.6179
-49.8478
-52.2177
-49.9225
-41.2152
-39.6372
-53.4299
-52.4822
-42.4168
-42.5196
-46.4587
-53.7422
-46.3441
-50.7041
-13.0291
-12.8862
156.367
156.673
-54.4007
-69.1623
-20.8868
4.02527
-35.8665
-36.0735
-37.5671
-36.6215
-46.8989
-45.6404
-42.7586
-37.3122
-64.9009
-74.3121
152.91
189.573
-77.3739
-53.8584
-64.6322
-49.8189
-50.5545
-52.783
-41.6813
-40.5375
-46.7571
-54.2219
-46.7511
-52.4831
-69.2404
-54.464
4.36581
-20.946
-45.8856
-47.127
-37.4991
-42.8445
-37.6447
-36.9924
-37.6921
-38.6621
-51.5307
-51.6636
-39.6136
-44.948
-46.7683
-46.7722
-38.3785
-38.3883
-37.8034
-41.3276
-43.2687
-43.5405
-40.1976
-40.1687
-44.9706
-45.113
-45.7002
-48.0033
-95.7389
-76.1459
23.5772
23.4932
-86.2092
-86.0786
-75.0538
-75.0926
-48.68
-48.7172
-37.6815
-37.0452
-37.7166
-38.7017
-51.6974
-51.5584
-39.6436
-44.9681
-41.4298
-37.8919
-43.5286
-43.8022
-48.0259
-45.8062
-76.1629
-96.1621
-84.6177
-82.089
-74.7329
-75.8684
-47.5181
-45.0633
-54.3573
-53.1524
-55.0046
-51.0398
-54.225
-46.2077
-53.0868
-60.1861
-70.6561
-56.9663
-76.4274
-71.4129
-74.5515
-80.2538
-53.4932
-57.1281
-70.6547
-59.4277
-54.9698
-46.2134
-54.2755
-51.1253
-47.503
-53.0812
-54.3665
-45.0689
-95.1605
-99.4896
-65.8417
-63.1718
-95.1377
-63.2357
-65.8473
-99.4814
-42.5544
-43.9067
-50.425
-49.1503
-42.4965
-49.2112
-50.4286
-43.9042
-38.6877
-27.8635
-25.0186
-26.3542
-20.4064
30.6224
10.4376
-9.83495
-20.9984
-10.0225
10.6508
30.4951
-38.6192
-26.279
-25.1191
-27.969
53.637
108.998
186.227
81.4898
24.8247
-15.1806
164.776
97.0314
24.2013
96.4105
164.779
-11.9138
53.9161
81.5025
186.285
112.402
-38.3007
-37.1347
-39.3841
-39.731
-35.951
-36.8184
-38.4483
-36.75
-46.176
-49.6244
-42.4832
-39.9839
-56.2557
-45.2796
-44.242
-52.7021
-38.2894
-39.7448
-39.4326
-37.1565
-56.1906
-52.767
-44.3049
-45.2817
-46.3017
-40.1062
-42.5746
-49.733
-36.0664
-36.7916
-38.5226
-36.9305
-37.8077
-39.1444
-38.1641
-36.955
-37.8496
-36.9999
-38.176
-39.1533
-39.9977
-41.5947
-39.2081
-37.7678
-39.8577
-37.7105
-39.1878
-41.5522
-97.9574
-76.0271
-101.681
-21.5628
-54.6411
-68.3248
-82.9435
-61.7941
-54.7362
-61.8832
-82.9709
-68.3733
-98.0246
-21.4442
-102.014
-76.1713
-30.9403
-46.3451
-46.1331
-39.7439
-50.0762
-48.7355
-52.8536
-54.2548
-44.332
-44.2397
-49.8529
-48.3623
-45.3181
-41.6626
-45.2942
-46.0931
-30.6035
-39.9665
-46.4222
-46.6412
-45.4806
-46.3065
-45.5468
-41.8392
-45.04
-49.0863
-50.1795
-44.5634
-50.6788
-54.7496
-53.3364
-49.3788
-46.6216
-46.5663
-46.7933
-45.7023
-46.8611
-46.1504
-47.0332
-46.6675
-52.363
-52.3363
-52.1408
-52.6088
-51.716
-51.5623
-51.4177
-52.127
-51.949
-45.1323
-41.7486
-57.1535
-36.6964
-36.1953
-36.5292
-38.5251
-37.1588
-38.6988
-36.6496
-36.4291
-52.0705
-57.1191
-41.7862
-45.2385
-43.7926
-42.7729
-41.1585
-41.4963
-44.2199
-41.9252
-41.4268
-43.1021
-40.0044
-35.3404
-39.283
-41.3238
-38.7288
-40.5926
-38.6023
-34.2517
-18.5888
-128.64
-125.703
-51.5186
-49.0775
-49.7597
-38.2935
-27.1895
-63.688
-42.2427
-37.6612
-39.1018
-123.163
-72.2952
-122.75
-49.4608
-52.0462
-50.8087
-27.0704
-41.7037
-63.7496
-38.6129
-43.2827
-39.8494
-39.8276
-37.4223
-38.7349
-38.8077
-39.8058
-37.3306
-35.3736
-41.022
-67.9078
-60.8274
-64.2949
-94.5052
-47.2696
-46.8461
-48.2467
-49.4172
-39.8843
-38.8646
-37.472
-38.7289
-39.964
-41.1827
-37.8308
-35.4594
-67.7328
-92.1361
-60.7089
-64.2379
-47.3905
-49.5401
-46.9962
-48.3745
-17.3059
-21.4465
-63.4385
89.9668
-131.345
-131.374
-113.385
-72.0979
-60.0176
-51.8429
-59.95
-54.617
-44.2627
-43.8601
-47.3791
-40.6713
-46.7703
-46.8917
-49.4596
-43.7279
-48.2974
-46.615
-47.3263
-47.3733
-33.1902
-33.3299
-30.1043
-30.7863
-44.7172
-42.8062
-50.9618
-29.0626
-36.1226
-36.3282
-36.5846
-33.4534
-43.5583
-46.4291
-45.4681
-43.4228
-25.9493
-25.7507
-65.1243
89.6565
-60.0989
-51.8857
-59.8807
-54.7519
-45.0256
-44.6741
-48.1442
-41.3723
-48.8667
-46.9184
-47.712
-47.8918
-44.8705
-42.9236
-50.8375
-29.2368
-43.7669
-46.6072
-45.6798
-43.5691
-35.983
-35.5917
-37.1968
-36.7197
-41.1193
-43.4052
-42.6235
-42.0461
-41.0984
-41.1016
-42.4316
-40.0605
-37.5376
-39.2221
-37.8984
-39.3945
-43.5533
-43.5854
-42.6129
-44.8157
-57.1059
-54.4214
-53.9669
-61.3818
14.9481
15.0898
27.2356
-2.46277
-63.6682
-63.4475
-66.5156
-60.0721
-36.0282
-35.6371
-37.2345
-36.7776
-41.128
-43.4109
-42.635
-42.0579
-37.6756
-39.3629
-38.0299
-39.5494
-57.1675
-54.5203
-54.0433
-61.4758
-67.1116
-61.5183
-60.5677
-57.3206
-67.0792
-61.4937
-60.5839
-57.3366
-60.8652
-56.6092
-56.6118
-53.3442
-11.7201
-1.44748
-1.49318
6.20607
203.603
200.128
187.454
203.65
-39.9803
-41.2531
-40.7034
-42.1347
-40.0473
-41.3224
-40.7803
-42.2063
-38.5378
-38.3659
-38.9676
-38.5455
-91.9675
-98.7631
-88.7966
-92.0435
-49.3247
-47.984
-47.6285
-46.7121
-49.7093
-48.3263
-47.9551
-47.0027
-50.2902
-49.2995
-49.5174
-48.4222
-37.1884
-38.399
-38.4192
-39.6582
-38.4452
-38.0956
-38.7928
-38.8
-23.2746
-8.98699
-65.563
62.7064
-127.906
-130.535
-110.904
-0.89518
-84.4958
-70.8254
-66.7728
-74.368
-48.4981
-46.9091
-48.5369
-43.318
-49.0859
-48.1364
-53.5768
-46.5444
-52.8465
-54.8844
-57.1506
-54.3966
-32.883
-28.7335
-62.6179
37.3671
-26.4333
-27.7834
-32.2823
-17.3235
-49.6523
-49.5815
-54.6504
-40.6984
-43.017
-43.2308
-46.3769
-40.5983
-36.4379
-36.0875
-36.4001
-35.6025
-39.4344
-40.4542
-42.2568
-37.9236
-127.513
-130.537
-110.797
-1.96003
-24.8614
-19.3126
-64.5439
67.3958
-84.8953
-71.0327
-65.7896
-74.564
-48.1004
-47.2949
-49.8617
-44.8851
-49.1023
-47.5738
-49.1783
-43.7976
-53.0611
-55.5769
-57.7016
-55.2313
-26.3707
-28.1119
-32.2238
-17.3136
-34.5365
-29.9583
-62.0981
36.6701
-49.8336
-49.7044
-54.7869
-40.7702
-37.1888
-36.6446
-36.8676
-36.9853
-43.9686
-44.104
-47.2201
-41.4717
-39.8814
-40.7229
-42.6979
-38.1746
-45.0009
-47.1716
-48.0545
-45.3945
-36.6073
-36.1
-36.9509
-36.8381
-38.5086
-39.3565
-40.7343
-38.3731
-39.796
-40.6973
-41.5713
-39.2322
-47.1374
-45.1033
-47.8669
-43.4196
-37.4828
-35.2164
-35.7787
-37.9553
-34.7916
-35.7382
-35.7458
-32.367
-42.6518
-43.3007
-41.797
-44.4333
-58.0382
-43.1428
-52.7015
-23.6783
-52.8357
-47.0741
-48.7543
-49.9425
-62.1753
-59.9096
-57.6594
-69.6231
-15.8978
10.5574
15.7982
-13.5165
-46.5637
-44.9945
-45.839
-49.9561
-44.1785
-41.6216
-43.2374
-43.3756
-49.8504
-51.8585
-49.6039
-53.9409
-57.3876
-63.0169
-62.4762
-60.637
-45.0277
-47.1573
-48.0305
-45.3925
-39.8251
-40.7089
-41.5889
-39.2509
-36.6515
-36.1421
-36.9523
-36.8895
-38.4907
-39.3548
-40.7141
-38.3642
-47.4513
-45.4278
-48.1362
-43.7337
-42.7976
-43.3931
-41.8965
-44.5778
-37.3391
-35.2466
-35.7497
-38.019
-34.8682
-35.8533
-35.8563
-32.4771
-57.862
-43.23
-52.7356
-23.9832
-15.7294
10.9148
15.2314
-13.4311
-52.7874
-47.0644
-48.7416
-49.9151
-62.1315
-59.9378
-57.6404
-69.7089
-46.7148
-45.1618
-46.0002
-50.0748
-57.496
-63.1845
-62.5171
-60.5321
-44.3175
-41.7593
-43.3677
-43.5277
-49.9531
-51.9736
-49.7209
-54.0424
-65.6973
-75.5653
-68.2797
-72.8704
169.744
199.114
191.041
175.483
-89.1536
-72.4517
-79.9885
-79.9892
193.226
191.743
191.444
191.442
-61.975
-62.1106
-69.1764
-57.2779
-55.0783
-56.0478
-59.6419
-52.5482
-49.6639
-52.3561
-51.6902
-50.557
-39.8219
-39.0586
-39.3453
-39.9237
-52.6514
-52.8022
-53.2385
-52.8274
-42.1866
-42.5376
-42.4183
-42.4681
-48.34
-48.26
-47.2215
-50.2394
-48.5271
-48.9375
-47.7812
-49.5411
-18.0519
-21.3171
-7.89376
-7.77458
99.0104
168.641
164.25
164.481
-57.8006
-59.7919
-55.9497
-65.4425
-12.546
-3.76878
-14.658
-1.43874
-36.0295
-35.4368
-35.6703
-35.7903
-34.7532
-37.3796
-36.8236
-36.28
-45.9548
-46.9193
-46.7128
-46.1587
-39.8724
-38.7897
-40.6717
-38.1895
-65.0462
-75.2623
-67.6232
-72.533
170.072
199.156
175.566
191.19
-61.8932
-62.0478
-69.0661
-57.2346
-55.1386
-56.0572
-59.6632
-52.5549
-50.2783
-52.8994
-51.1371
-52.2618
-40.6785
-39.8766
-40.2548
-40.7245
-48.704
-48.6129
-47.5444
-50.6495
-49.2667
-49.5532
-48.3236
-50.5771
-57.8944
-59.8378
-65.5157
-56.0091
-12.732
-3.8404
-1.58839
-14.7537
-46.2051
-47.2045
-46.4197
-47.0031
-39.9855
-38.8981
-38.3183
-40.7558
-37.0082
-38.1991
-37.4296
-37.356
-37.5128
-38.1934
-37.7726
-38.259
-48.7618
-53.3019
-51.2956
-50.9508
-42.0367
-41.7512
-40.7275
-43.3238
-45.7401
-48.594
-46.8332
-46.8344
-38.8285
-38.3557
-38.4798
-38.4849
-38.7864
-39.7229
-38.5383
-40.1983
-41.5137
-44.5266
-43.0504
-43.1569
-40.9946
-39.806
-40.3091
-40.3207
-46.0177
-46.062
-45.1152
-45.1883
-48.907
-45.0009
-46.3016
-47.5238
-77.7735
-88.5911
-91.1155
-80.2408
32.2332
17.8214
25.3968
25.4281
-55.2268
-104.083
-84.9069
-85.0491
-73.0055
-80.203
-76.3255
-76.3435
-52.6103
-44.7013
-48.3914
-48.4033
-37.0473
-38.2544
-37.4682
-37.4076
-37.5523
-38.2158
-37.7996
-38.2932
-48.7831
-53.3497
-50.9784
-51.3284
-42.0569
-41.7864
-40.7581
-43.3473
-38.8938
-39.8144
-40.2999
-38.6335
-41.7647
-44.7741
-43.3016
-43.4791
-49.0069
-45.078
-47.5907
-46.3797
-77.9679
-88.9826
-80.2113
-91.5747
-70.0459
-58.4313
-62.9654
-71.2023
-52.0339
-51.708
-52.1823
-52.0971
-51.3954
-50.261
-53.1669
-52.0118
-55.6673
-61.8954
-73.4711
-72.9425
-67.8855
-56.9598
-61.8701
-70.6046
-55.8157
-62.2835
-73.4645
-73.0294
-51.4324
-50.267
-53.226
-52.0409
-52.0711
-51.7746
-52.1862
-52.1294
-86.9654
-76.9336
-79.0077
-70.8634
-86.9445
-76.9111
-79.0043
-70.8644
-45.7698
-45.1151
-47.7844
-46.4749
-45.7911
-45.1163
-47.8243
-46.4851
-29.6551
-30.7104
-23.0695
-26.0633
9.47361
22.3569
8.94196
21.3301
9.87008
22.2924
9.99628
21.311
-29.5086
-30.7445
-23.0455
-26.104
161.056
185.01
189.259
188.876
90.6425
67.5445
142.671
152.915
67.0265
90.2515
152.726
142.266
185.56
161.289
188.993
189.362
-37.6561
-38.0039
-37.6722
-38.7097
-36.4914
-36.5263
-36.9867
-37.3211
-43.6579
-45.7636
-42.571
-44.8657
-49.6272
-51.5247
-46.8974
-48.6722
-37.6741
-38.0163
-37.7003
-38.7358
-49.6175
-51.5243
-46.9117
-48.6968
-43.7706
-45.8722
-42.6731
-44.9661
-36.5489
-36.6132
-37.0475
-37.4025
-37.5328
-38.1744
-37.7325
-38.1802
-38.1947
-37.5634
-38.1953
-37.7552
-40.3864
-39.2222
-39.9914
-39.0638
-39.1525
-40.3178
-39.017
-39.9485
-93.9548
-52.0257
-94.6087
-84.0515
-63.421
-67.1923
-71.744
-73.1225
-67.2584
-63.4888
-73.1721
-71.7893
-51.8993
-93.9563
-83.8122
-94.8714
-45.0245
-41.7678
-45.8391
-43.6086
-51.1429
-53.9794
-52.6181
-54.9546
-46.7874
-45.5969
-48.7178
-47.3429
-44.7232
-43.891
-44.8568
-43.9478
-45.2824
-42.0892
-46.1213
-43.8726
-44.9374
-44.0625
-45.0843
-44.1784
-47.4087
-46.1353
-49.4292
-47.8241
-51.7209
-54.5344
-53.18
-55.4899
-44.0384
-45.5789
-45.3175
-44.7362
-44.3231
-45.7883
-45.6401
-44.938
-53.3518
-54.2988
-53.6452
-53.7553
-50.3022
-52.7788
-52.1283
-50.9858
-50.3919
-54.0794
-45.5119
-49.0099
-36.4628
-36.9991
-36.158
-36.8095
-36.7863
-37.2754
-36.4213
-37.0683
-50.587
-54.1435
-45.5973
-49.0667
-42.1716
-42.2995
-41.9322
-42.3508
-42.6456
-42.4472
-42.5168
-42.1921
-38.6229
-40.1841
-38.4981
-40.0351
-39.0159
-37.1678
-38.9618
-37.2871
-82.9977
44.6352
-118.405
-41.4331
-92.917
-95.2061
-49.2765
-44.6641
-51.0189
-45.5217
-50.8077
-52.024
-70.4654
19.6949
-40.0959
-1.50596
-54.8377
-44.4666
-44.8472
-40.0234
-36.558
-37.8502
-42.0572
-37.251
-118.089
-46.2804
-81.0666
37.9124
-88.8178
-95.9686
-50.2755
-45.9814
-49.9073
-45.1126
-51.332
-52.2336
-39.6853
0.430475
-63.3613
18.6922
-54.8396
-44.3742
-37.1478
-39.1164
-45.7081
-41.1046
-42.7311
-37.7517
-42.623
-42.2043
-37.9442
-37.4023
-39.7182
-38.2024
-40.2571
-38.377
-34.3668
-47.0956
-35.8775
-38.9767
-35.7283
-31.7779
-40.8231
-43.6277
-59.5084
-60.2367
-56.2343
-56.8435
-59.7349
-76.6553
-36.2407
-83.5862
-46.5735
-48.3688
-45.7389
-45.3816
-47.8977
-51.2707
-53.3751
-52.0992
-42.5325
-42.2695
-40.3424
-38.4199
-37.9452
-37.4548
-39.6714
-38.1881
-34.5939
-47.3622
-40.978
-43.8194
-36.0778
-39.212
-35.8484
-31.7497
-59.4093
-60.3703
-37.4135
-83.1029
-56.1701
-56.766
-59.657
-76.8673
-46.7388
-48.5068
-53.4775
-52.2101
-45.8679
-45.5253
-48.0005
-51.3829
-67.8827
52.4163
-56.3419
45.9497
-71.8976
-64.0724
116.576
125.441
-112.962
6.55665
-112.953
6.53564
-99.7596
-99.7545
75.4924
75.3639
-79.03
-63.2891
-51.6259
-48.9694
-69.7768
-56.9091
-58.494
-51.3929
-47.374
-42.4461
-46.9668
-41.2186
-48.4375
-48.1435
-40.4119
-40.6547
-49.4605
-44.1483
-49.5847
-44.3803
-52.4729
-52.4314
-42.7185
-42.989
-53.42
-51.0984
-46.7966
-45.963
-46.8877
-49.8194
-47.1371
-49.3346
-31.0168
-31.3739
-30.9828
-31.2076
-25.2863
-25.2035
3.7749
0.377429
-52.5336
-34.8641
-49.7588
-24.1772
-52.6799
-56.7777
-22.9987
-14.0077
-36.4318
-33.9813
-36.6947
-34.9431
-36.1957
-36.3217
-34.4077
-33.7782
-42.9285
-39.9779
-46.3658
-47.9896
-44.8008
-46.168
-42.7291
-39.4708
-68.2445
56.3534
-56.4261
44.2949
-68.7625
-63.2041
125.438
119.321
-79.1218
-63.423
-51.552
-48.9225
-69.7258
-56.8251
-58.5741
-51.6806
-48.0587
-42.9677
-47.7834
-41.9705
-48.8511
-49.1034
-41.1067
-41.3661
-53.9301
-51.9154
-47.1028
-46.4363
-47.2093
-50.2364
-47.6356
-50.1964
-52.667
-34.9769
-49.8474
-24.3348
-56.9135
-52.2301
-14.1978
-23.1336
-43.2251
-40.1698
-46.5699
-48.1405
-46.3888
-45.0648
-39.6191
-42.845
-36.1884
-36.5997
-36.2144
-37.0957
-37.555
-36.8018
-37.0198
-37.3662
-41.2141
-39.8354
-44.8652
-45.2258
-45.1696
-45.5622
-40.8215
-43.5138
-42.32
-39.7983
-42.3256
-39.8065
-43.9824
-43.9812
-39.2663
-39.2708
-36.588
-37.2748
-39.8287
-40.7577
-37.4348
-39.0165
-40.3796
-41.3287
-42.4352
-44.6818
-42.4868
-44.7605
-41.7095
-41.6882
-46.8097
-46.8618
-55.7051
-65.2963
-51.5492
-57.2466
-50.8288
-52.0838
-71.9685
-64.6656
25.0863
-4.75166
24.8784
-4.75114
32.6714
32.2555
-23.0468
-22.6273
-65.8302
-60.2753
-65.9031
-60.2858
-69.2462
-69.26
-56.9872
-56.9806
-36.2047
-36.6531
-36.2488
-37.157
-37.5896
-36.8388
-37.0668
-37.4196
-41.206
-39.843
-44.8704
-45.2242
-45.5682
-45.1834
-40.8387
-43.5246
-36.7074
-37.4045
-39.96
-40.9116
-39.1386
-37.5523
-40.604
-41.4374
-55.7524
-65.3967
-51.6602
-57.3481
-52.2014
-50.9175
-64.7607
-72.0864
-73.3728
-71.2226
-68.3833
-57.5042
-56.5586
-65.5966
-54.4382
-54.2278
-73.2526
-71.188
-68.287
-57.4914
-65.6172
-56.5972
-54.2688
-54.4596
-65.9696
-65.9721
-60.6309
-53.135
-60.638
-53.1364
-50.8961
-50.8965
-25.6951
-25.7631
-12.7294
4.71775
4.7079
-12.7994
11.3278
11.9107
202.24