# vtk DataFile Version 2.0
tet_velo
ASCII
DATASET UNSTRUCTURED_GRID
POINTS 29498 float
-0.795 0.165 -2.00498
-0.735 0.295 2.05151
-0.712446 0.695 -1.965
-0.715 0.966566 1.975
0.795 0.165 -2.00255
0.745 0.295 2.0463
0.705 0.695 -1.96928
0.705 0.97164 1.985
-0.833939 0.149394 -0.652817
-0.848453 0.158214 0.699347
-0.779041 0.851266 -0.651667
-0.781025 0.94292 0.661667
0.836875 0.149791 -0.652933
0.853391 0.159942 0.696683
0.776886 0.859099 -0.651187
0.777106 0.951532 0.666907
-1.59531 -0.238335 -3.07084
-1.5941 -0.185749 -2.00372
-1.62398 -0.194383 -0.651193
-1.63009 -0.192369 0.708376
-1.56594 -0.0994739 2.06147
-1.54328 -0.0282409 3.13141
-1.54515 0.0291334 4.19587
-1.58873 0.0790421 -3.06478
-1.58325 0.150793 -2.00152
-1.62384 0.162098 -0.6561
-1.6258 0.170239 0.692321
-1.5332 0.261487 2.03843
-1.52185 0.331216 3.10823
-1.53447 0.387828 4.17404
-1.55474 0.67473 -3.04213
-1.52325 0.743433 -1.9768
-1.57477 0.858765 -0.657586
-1.57509 0.92652 0.658395
-1.50718 0.967147 1.97851
-1.50966 1.0346 3.05215
-1.5288 1.09759 4.12533
-1.54738 1.66675 -3.03611
-1.53627 1.75097 -1.97682
-1.55148 1.88645 -0.668171
-1.56496 1.99927 0.632255
-1.55808 2.06832 1.94156
-1.55212 2.11762 3.00221
-1.55235 2.17116 4.07081
-0.809153 -0.230396 -3.07286
-0.792993 -0.174347 -2.0067
-0.816014 -0.199588 -0.65035
-0.835196 -0.200666 0.713297
-0.787134 -0.0829633 2.06982
-0.769898 -0.0155255 3.13755
-0.772058 0.0366558 4.19988
-0.81415 0.0808076 -3.06551
-0.753061 0.345278 3.11427
-0.765123 0.395536 4.17767
-0.788562 0.655562 -3.03799
-0.747626 1.03965 3.0537
-0.76374 1.10248 4.12701
-0.771266 1.65392 -3.03157
-0.755894 1.73895 -1.97162
-0.768284 1.8855 -0.664394
-0.787271 2.00651 0.633382
-0.789054 2.07392 1.94093
-0.784577 2.12141 3.00159
-0.782887 2.17452 4.07073
0.768961 -0.229004 -3.07184
0.811261 -0.173526 -2.00513
0.838049 -0.198432 -0.650246
0.82634 -0.198817 0.711531
0.756859 -0.0818288 2.0668
0.759666 -0.0134701 3.13687
0.766767 0.0394761 4.20072
0.743957 0.0819148 -3.06485
0.751595 0.347432 3.1143
0.762043 0.398516 4.17908
0.714968 0.656939 -3.03924
0.734368 1.04353 3.05842
0.752988 1.10618 4.13013
0.765711 1.6573 -3.03163
0.782252 1.743 -1.97149
0.787092 1.89088 -0.662964
0.767727 2.01239 0.636608
0.74624 2.07928 1.94527
0.745815 2.12622 3.00573
0.752882 2.17894 4.07422
1.56183 -0.234676 -3.06913
1.60233 -0.182353 -2.00151
1.64091 -0.190077 -0.650245
1.63396 -0.187293 0.70755
1.56057 -0.0952182 2.05971
1.54142 -0.0232437 3.13168
1.54427 0.0350753 4.19794
1.53684 0.082486 -3.06362
1.57858 0.154302 -1.9994
1.62943 0.167345 -0.654754
1.6356 0.176425 0.692727
1.54692 0.266013 2.03819
1.52767 0.336562 3.10998
1.53568 0.394084 4.17713
1.50008 0.678873 -3.04313
1.51409 0.748489 -1.97836
1.57545 0.869484 -0.655516
1.57713 0.938295 0.665128
1.50833 0.976058 1.98866
1.50572 1.04235 3.05982
1.52294 1.10507 4.13116
1.53928 1.67371 -3.0358
1.55477 1.75913 -1.97606
1.56643 1.89675 -0.665213
1.55158 2.0104 0.638186
1.52608 2.07868 1.94936
1.52105 2.12707 3.00979
1.52708 2.17994 4.07744
-0.79452 0.43 -2.02579
0 0.154641 -2.01412
-0.839824 0.131843 -1.3289
-0.756499 0.630783 2.04475
0.005 0.276532 2.06737
-0.818305 0.200028 1.37543
-0.003723 0.791156 -2.0633
-0.769794 0.797184 -1.30833
-0.005 1.03687 2.04777
-0.765686 0.972416 1.31833
0.790395 0.43 -2.02631
0.840686 0.132647 -1.32774
0.754045 0.63332 2.0447
0.825499 0.201168 1.37149
0.764343 0.800449 -1.31023
0.762401 0.982934 1.32595
-0.837558 0.157442 0.023265
-0.854474 0.50033 -0.652242
0.00146818 0.145848 -0.652875
-0.854508 0.550567 0.680507
0.00246925 0.146214 0.698015
-0.783986 0.901046 0.005
-0.00107748 1.16487 -0.651427
-0.00195948 1.40779 0.664287
0.840848 0.159152 0.021875
0.85701 0.504445 -0.65206
0.85718 0.555737 0.681795
0.781247 0.909567 0.00786
-0.88662 0.465165 -1.31862
-0.854384 0.525448 0.0141325
-0.895842 0.590675 1.34688
0.00073409 0.125618 -1.32832
0.00196871 0.151659 0.02257
0.00373462 0.171229 1.37346
-0.0018615 0.43 -2.25658
0 0.632051 2.20513
-0.00240024 0.917706 -1.30928
-0.00151848 1.40229 0.00643
-0.00347974 1.23746 1.32214
0.896146 0.467223 -1.31899
0.857005 0.530091 0.0148675
0.886287 0.594529 1.34872
-1.18913 0.157897 -2.00325
-0.793997 -0.00467359 -2.00584
-0.804575 0.122904 -2.53524
-1.1341 0.278243 2.04497
-0.761067 0.106018 2.06067
-0.74403 0.320139 2.58289
-1.11785 0.719216 -1.9709
-0.750504 0.675281 -2.5015
-0.73417 1.21697 -1.96831
-1.11109 0.966856 1.97676
-0.731313 1.00311 2.51435
-0.752027 1.52024 1.95796
0.803131 -0.00426292 -2.00384
0.769478 0.123457 -2.5337
1.18679 0.159651 -2.00097
0.75093 0.106586 2.05655
0.748298 0.321216 2.5803
1.14596 0.280506 2.04225
0.709984 0.67597 -2.50426
0.743626 1.219 -1.97038
1.10955 0.721744 -1.97382
0.719684 1.00758 2.52171
0.72562 1.52546 1.96514
1.10666 0.973849 1.98683
-1.22889 0.155746 -0.654459
-0.824977 -0.025097 -0.651583
-1.23713 0.164226 0.695834
-0.841824 -0.0212259 0.706322
-1.1769 0.855015 -0.654626
-0.773662 1.36838 -0.65803
-1.17806 0.93472 0.660031
-0.784148 1.47472 0.647524
0.837462 -0.0243205 -0.65159
1.23315 0.158568 -0.653844
0.839866 -0.0194376 0.704107
1.24449 0.168184 0.694705
0.781989 1.37499 -0.657075
1.17617 0.864291 -0.653351
0.772416 1.48196 0.651758
1.17712 0.944914 0.666017
-1.59471 -0.212042 -2.53728
-1.59202 -0.0796462 -3.06781
-1.20223 -0.234365 -3.07185
-1.60904 -0.190066 -1.32746
-1.58868 -0.017478 -2.00262
-1.19355 -0.180048 -2.00521
-1.62703 -0.193376 0.0285914
-1.62391 -0.0161428 -0.653647
-1.22 -0.196986 -0.650771
-1.59802 -0.145921 1.38492
-1.62795 -0.0110649 0.700348
-1.23264 -0.196517 0.710836
-1.55461 -0.0638574 2.59644
-1.54957 0.0810064 2.04995
-1.17654 -0.0912186 2.06564
-1.54422 0.000446255 3.66364
-1.53256 0.151488 3.11982
-1.15659 -0.0218832 3.13448
-1.53981 0.20848 4.18495
-1.1586 0.0328946 4.19788
-1.58599 0.114918 -2.53315
-1.57173 0.376886 -3.05346
-1.20144 0.0799248 -3.06514
-1.60354 0.156445 -1.32881
-1.55325 0.447113 -1.98916
-1.62482 0.166168 0.0181103
-1.5993 0.510431 -0.656843
-1.5795 0.215863 1.36538
-1.60045 0.54838 0.675358
-1.52752 0.296352 2.57333
-1.52019 0.614317 2.00847
-1.52816 0.359522 3.64113
-1.51575 0.682906 3.08019
-1.13745 0.338247 3.11125
-1.53164 0.74271 4.14968
-1.1498 0.391682 4.17585
-1.539 0.709082 -2.50947
-1.55106 1.17074 -3.03912
-1.17165 0.665146 -3.04006
-1.54901 0.801099 -1.3172
-1.52976 1.2472 -1.97681
-1.57493 0.892643 0.000404617
-1.56312 1.37261 -0.662878
-1.54114 0.946834 1.31845
-1.57003 1.46289 0.645325
-1.50842 1.00087 2.51533
-1.53263 1.51773 1.96004
-1.51923 1.06609 3.58874
-1.53089 1.57611 3.02718
-1.12864 1.03712 3.05293
-1.54057 1.63438 4.09807
-1.14627 1.10004 4.12617
-1.54183 1.70886 -2.50646
-1.15932 1.66034 -3.03384
-1.54387 1.81871 -1.3225
-1.14608 1.74496 -1.97422
-1.55822 1.94286 -0.017958
-1.15988 1.88597 -0.666282
-1.56152 2.03379 1.28691
-1.17612 2.00289 0.632818
-1.5551 2.09297 2.47188
-1.17356 2.07112 1.94124
-1.55223 2.14439 3.53651
-1.16835 2.11952 3.0019
-1.16762 2.17284 4.07077
-0.801073 -0.202372 -2.53978
-0.811652 -0.0747944 -3.06918
-0.0200964 -0.2297 -3.07235
-0.804504 -0.186968 -1.32852
0.00913415 -0.173937 -2.00592
-0.825605 -0.200127 0.0314733
0.0110172 -0.19901 -0.650298
-0.811165 -0.141815 1.39156
-0.00442808 -0.199742 0.712414
-0.778516 -0.0492444 2.60368
-0.0151373 -0.0823961 2.06831
-0.770978 0.0105652 3.66872
-0.761479 0.164876 3.12591
-0.00511609 -0.0144978 3.13721
-0.76859 0.216096 4.18878
-0.00264523 0.038066 4.2003
-0.801356 0.368185 -3.05175
-0.0350964 0.0813612 -3.06518
-0.759092 0.370407 3.64597
-0.750343 0.692461 3.08399
-0.000732531 0.346355 3.11429
-0.764431 0.749008 4.15234
-0.00153983 0.397026 4.17838
-0.779914 1.15474 -3.03478
-0.036797 0.656251 -3.03862
-0.755683 1.07106 3.59035
-0.766102 1.58053 3.02764
-0.00662895 1.04159 3.05606
-0.773313 1.6385 4.09887
-0.00537586 1.10433 4.12857
-0.76358 1.69643 -2.50159
-0.00277744 1.65561 -3.0316
-0.762089 1.81222 -1.31801
0.0131794 1.74097 -1.97155
-0.777777 1.946 -0.0155059
0.00940442 1.88819 -0.663679
-0.788163 2.04021 1.28715
-0.00977227 2.00945 0.634995
-0.786816 2.09766 2.47126
-0.0214071 2.0766 1.9431
-0.783732 2.14796 3.53616
-0.019381 2.12382 3.00366
-0.0150023 2.17673 4.07247
0.790111 -0.201265 -2.53849
0.756459 -0.0735446 -3.06835
1.16539 -0.23184 -3.07049
0.824655 -0.185979 -1.32769
1.2068 -0.177939 -2.00332
0.832194 -0.198625 0.0306427
1.23948 -0.194255 -0.650245
0.7916 -0.140323 1.38916
1.23015 -0.193055 0.70954
0.758263 -0.0476495 2.60183
1.15871 -0.0885235 2.06325
0.763217 0.013003 3.6688
0.755631 0.166981 3.12558
1.15054 -0.0183569 3.13428
0.764405 0.218996 4.1899
1.15552 0.0372757 4.19933
0.729463 0.369427 -3.05204
1.1404 0.0822004 -3.06423
0.756819 0.372974 3.64669
0.742982 0.695481 3.08636
1.13963 0.341997 3.11214
0.757516 0.752347 4.15461
1.14886 0.3963 4.17811
0.74034 1.15712 -3.03543
1.10753 0.667906 -3.04119
0.743678 1.07485 3.59427
0.740092 1.58488 3.03207
1.12004 1.04294 3.05912
0.752935 1.64256 4.10217
1.13796 1.10562 4.13064
0.773982 1.70015 -2.50156
1.1525 1.66551 -3.03371
0.784672 1.81694 -1.31723
1.16851 1.75106 -1.97377
0.77741 1.95163 -0.0131776
1.17676 1.89382 -0.664088
0.756983 2.04583 1.29094
1.15965 2.01139 0.637397
0.746028 2.10275 2.4755
1.13616 2.07898 1.94732
0.749349 2.15258 3.53998
1.13343 2.12665 3.00776
1.13998 2.17944 4.07583
1.58208 -0.208514 -2.53532
1.54934 -0.0760952 -3.06637
1.62162 -0.186215 -1.32588
1.59046 -0.0140255 -2.00045
1.63744 -0.188685 0.0286525
1.63517 -0.011366 -0.6525
1.59727 -0.141256 1.38363
1.63478 -0.00543397 0.700138
1.55099 -0.0592309 2.5957
1.55374 0.0853973 2.04895
1.54285 0.00591582 3.66481
1.53455 0.156659 3.12083
1.53997 0.214579 4.18753
1.55771 0.118394 -2.53151
1.51846 0.380679 -3.05338
1.604 0.160823 -1.32707
1.54634 0.451395 -1.98888
1.63251 0.171885 0.0189861
1.60244 0.518414 -0.655135
1.59126 0.221219 1.36546
1.60636 0.55736 0.678927
1.53729 0.301288 2.57409
1.52762 0.621036 2.01343
1.53167 0.365323 3.64355
1.5167 0.689454 3.0849
1.52931 0.749577 4.15414
1.50709 0.713681 -2.51075
1.51968 1.17629 -3.03947
1.54477 0.808986 -1.31694
1.53443 1.25381 -1.97721
[...]
POINT_DATA 29498
VECTORS point_vectors float
-0.432168 -0.511715 1.3518
0.152124 0.182693 0.451714
-0.982669 0.805416 2.37112
-0.118603 -0.204293 0.374385
0.445663 -0.620915 1.70874
-0.173652 0.227958 0.634653
0.65887 0.522901 1.5185
0.107619 -0.108579 0.192367
0.0926441 -0.00702912 1.52793
0.0771191 -0.0584224 1.2097
0 0 0
0 0 0
-0.107414 -0.0278144 1.75488
-0.0406189 -0.0286952 0.798009
0 0 0
0 0 0
-0.646405 -0.300862 19.9082
-1.20605 -0.682181 20.6155
-0.359976 -0.402176 21.3811
0.0986918 -0.188839 21.5985
0.74781 0.0544386 21.5382
1.06889 0.150502 21.3109
1.06863 0.0207766 20.5543
-0.763976 -0.230259 19.8128
-1.64642 -0.563196 20.5714
-0.540576 -0.491584 21.4294
0.0307467 -0.324481 21.6314
0.879157 -0.202718 21.6698
1.21372 -0.168897 21.1881
1.13279 -0.0732081 20.9257
-0.850929 0.0517747 19.6851
-2.03539 0.135001 20.4642
-1.19165 -0.374154 21.4267
-0.375897 -0.379611 21.7154
0.407298 -0.586047 21.6346
0.765442 -0.705654 21.3352
0.537158 -0.476981 21.2458
-0.541813 0.355907 19.9313
-0.954098 0.622384 20.3463
-0.956648 0.44544 21.0782
-0.430736 0.0535998 21.4878
-0.0100021 -0.246735 21.4572
0.218523 -0.429694 21.3932
0.315553 -0.676714 20.5094
-0.713964 -0.774757 19.3146
-1.91481 -3.31155 21.0991
-0.253299 -0.225035 21.7597
0.208353 0.120558 21.3317
1.03802 1.32981 19.191
1.5208 1.72453 19.0046
1.25539 1.21618 19.118
-0.891903 -0.571881 18.9218
2.11429 1.13391 10.6564
2.15133 0.903352 14.1196
-1.0894 0.206581 18.5669
-0.0900535 -0.765641 6.60892
1.10646 -1.57463 12.3846
-0.479721 0.719552 19.5403
-0.973326 1.56671 20.0557
-1.32427 1.6733 21.0695
-0.526718 0.39995 21.9166
-0.118414 -0.24671 21.5196
0.0455723 -0.547507 21.3502
0.0147507 -0.453202 21.6886
0.710245 -0.778621 19.2869
1.93492 -3.22898 21.0943
0.241795 -0.224963 21.7921
-0.197691 0.138218 21.3252
-0.996315 1.34234 18.9735
-1.51389 1.72762 18.9075
-1.25442 1.23261 19.0656
0.869516 -0.611467 18.8264
-2.06701 1.11288 10.4643
-2.14888 0.919487 13.9206
1.02979 0.224638 18.4098
0.114586 -0.749298 6.20387
-1.07788 -1.5537 12.0324
0.474772 0.722384 19.539
0.984733 1.51967 20.0656
1.31392 1.6317 21.0765
0.518392 0.41288 21.9267
0.121459 -0.23108 21.5229
-0.0360634 -0.537367 21.3687
-0.0217973 -0.454678 21.7531
0.656344 -0.308634 19.8811
1.20226 -0.684651 20.6228
0.3669 -0.414044 21.36
-0.0947916 -0.193221 21.594
-0.742722 0.0525094 21.5392
-1.06361 0.151925 21.3169
-1.07841 0.01979 20.5601
0.789538 -0.236741 19.759
1.67336 -0.574372 20.5763
0.5424 -0.497984 21.4267
-0.0373763 -0.326058 21.6341
-0.849392 -0.215647 21.6694
-1.19224 -0.1771 21.1832
-1.1331 -0.080303 20.9307
0.887734 0.0732706 19.6299
2.08362 0.151732 20.4626
1.20588 -0.364795 21.4307
0.374631 -0.378509 21.7211
-0.389216 -0.57379 21.6262
-0.746474 -0.691741 21.3549
-0.513686 -0.454159 21.1958
0.536646 0.359359 19.9337
0.935559 0.606445 20.3527
0.933095 0.438448 21.0759
0.430263 0.0547037 21.4904
0.0170158 -0.257224 21.4647
-0.218469 -0.432902 21.396
-0.272134 -0.740755 20.505
-1.06487 0.0626654 1.38046
4.17037e-19 -4.85943e-17 1.73764e-16
0.00438207 0.0129083 1.06062
-0.01156 -0.0363229 0.027087
-0.00025732 0.00546326 0.0284524
0.00887936 0.00965375 0.197647
0.000348245 0.206313 0.624947
-0.174527 -0.162951 0.396823
-0.00278263 0.0146383 -0.0394506
0 0 0
0.920321 0.0676657 1.21376
-0.000396182 0.0110416 1.11953
0.0247348 -0.0330571 0.00745791
-0.0205854 0.0125646 0.200034
0.190498 -0.154192 0.413827
0 0 0
0.0218321 0.0375617 2.24721
9.05248e-05 -0.000173699 0.00938362
0 0 0
-5.68173e-05 0.00147568 0.00686696
0 0 0
0.00170829 0.0038816 0.015774
-9.59186e-05 0.0392274 0.071947
0.000224728 -0.00151513 0.0375728
-0.0237584 0.0295168 2.12414
-6.03641e-05 -5.22292e-05 0.00686268
6.49267e-05 0.0017105 0.00848893
0 0 0
0 0 0
4.33017e-06 0.000974066 0.00721294
0.00401522 0.0035486 0.0893068
-9.67962e-08 9.31232e-08 2.01246e-05
-7.10341e-09 2.97254e-07 0.000174714
-3.82129e-05 0.00116701 0.0186329
-0.000226949 -0.0356703 0.048995
-0.000465369 -0.00383698 0.00315585
-9.55e-05 0.00303013 0.0214494
-9.85036e-05 0.00319268 0.0345663
-7.41092e-05 0.00410713 -0.00888656
-0.00340606 -0.0105806 0.0911149
1.21433e-06 0.000927678 0.00647056
0 0 0
-3.20901 -1.58899 20.6535
-3.00062 -5.25584 21.4237
-2.3984 -1.85628 17.8401
1.54934 0.0238206 19.0694
1.07791 1.37632 12.1169
1.3682 0.681392 7.14616
-4.23809 0.931163 20.3173
-3.1399 1.22745 16.6941
-2.23288 2.87717 19.8866
0.545803 -0.793109 19.4005
-0.565408 -0.82107 4.20433
-0.0491612 -0.524954 19.253
3.00925 -5.19571 21.3905
2.40808 -2.012 17.6486
3.25394 -1.62968 20.6461
-1.08699 1.35677 11.9129
-1.3315 0.628409 7.11449
-1.51251 -0.018658 19.3875
3.11108 1.31623 16.4053
2.23228 2.82376 19.8823
4.3287 1.03126 20.2622
0.62576 -0.764767 3.85839
0.0289524 -0.50303 18.8378
-0.530113 -0.768115 19.2417
-0.326132 -0.841361 21.609
0.23394 0.0974118 17.091
0.189864 -0.461672 21.1552
0.487657 0.037663 16.8627
-2.02525 -0.968591 21.614
-3.80662 2.28792 20.9423
-0.569594 -0.628853 21.1368
-0.780976 0.1654 20.4609
-0.214756 0.0792193 17.3902
0.334717 -0.850725 21.6252
-0.460754 0.0706168 16.7635
-0.20838 -0.457784 21.2239
3.73554 2.23846 20.9705
2.08055 -0.934267 21.6489
0.730067 0.200668 20.2797
0.573857 -0.621489 21.1914
-0.997057 -0.522631 20.1019
-0.715436 -0.275808 19.8542
-0.719686 -0.497518 19.67
-0.797911 -0.553435 21.2372
-1.42377 -0.653298 20.5953
-1.74962 -1.53316 20.7798
-0.112938 -0.288001 21.5067
-0.454811 -0.462229 21.4018
-0.229926 -0.472503 21.624
0.411441 -0.0699973 21.6369
0.0665689 -0.265919 21.6008
0.223799 -0.164364 21.7089
0.92452 0.112518 21.3944
0.815966 -0.0535519 21.5796
1.11786 0.459294 21.5774
0.971223 0.106783 21.321
1.1506 0.010976 21.2417
1.51499 0.613049 20.9237
1.12959 -0.0442798 20.7232
1.18854 0.376132 21.2395
-1.26809 -0.409609 19.9733
-0.834056 -0.0947713 19.709
-0.911802 -0.399177 19.4499
-1.06217 -0.574109 21.3053
-1.91333 -0.258558 20.5295
-0.235321 -0.415245 21.5349
-0.84711 -0.523271 21.4342
0.405005 -0.255984 21.7671
-0.155791 -0.428144 21.7009
1.07952 -0.177092 21.4512
0.707477 -0.455356 21.6636
1.18484 -0.375489 21.36
1.10789 -0.478863 21.2197
1.90293 -0.0286773 19.2664
0.877066 -0.28094 21.1762
1.62388 -0.254154 20.0396
-1.50196 0.123581 19.8094
-0.736851 0.278655 19.7854
-1.05854 0.123163 19.2245
-1.59113 -0.176706 21.1837
-1.44784 0.572784 20.3445
-0.779661 -0.397367 21.6424
-1.29589 0.154745 21.2493
0.00421277 -0.436632 21.7588
-0.495083 -0.134424 21.6476
0.614537 -0.637225 21.4946
0.0944463 -0.43494 21.489
1.0025 -0.784715 20.9292
0.383874 -0.539616 21.2308
1.00865 -0.968536 19.8217
0.399883 -0.788873 20.6212
1.43252 -1.34108 19.108
-0.751843 0.504237 20.0755
-0.580959 0.53962 19.7368
-1.01317 0.564036 20.7353
-1.07354 1.04442 20.2212
-0.736499 0.245524 21.4002
-1.23916 0.888611 21.1306
-0.191041 -0.12853 21.4747
-0.523402 0.184588 21.6914
0.088291 -0.390124 21.2822
-0.0840997 -0.302658 21.4782
0.181425 -0.320801 21.2328
0.141861 -0.471283 21.0864
-0.0282018 -0.373708 21.6566
-1.43312 -1.84966 19.1949
-0.799625 -0.690008 19.1268
-0.018795 -1.09044 18.8479
-0.798571 -0.962005 22.3638
0.0204789 -4.59756 21.6171
-0.0146359 -0.039834 21.3793
0.00486693 -0.477058 20.5928
0.653989 0.684191 20.416
4.05513e-05 -0.0691552 19.3254
1.23624 1.50737 19.1226
-0.000809972 0.995386 15.3975
1.5276 1.59983 19.2292
1.98342 1.69148 15.0857
-0.00832103 1.4483 15.13
1.80643 1.23161 15.785
-0.00621248 2.38718 16.418
-1.0674 -0.256218 18.6207
-0.0620706 -0.897519 18.2192
2.33114 0.99685 12.6445
1.26909 -0.298805 6.32688
0.0119978 0.4643 2.70565
2.2106 0.169972 13.251
0.031168 2.63434 8.79015
-0.804797 0.709227 19.0402
-0.075482 0.324894 17.6293
0.571031 -1.17531 10.0448
0.152588 -1.03185 20.2936
0.0132014 1.83935 -6.63824
0.0810579 -1.20975 19.8718
0.0543628 1.81775 -5.05162
-0.761285 1.21999 19.6455
-0.00304622 0.928624 19.2917
-1.1773 1.60361 20.4963
0.0225702 2.18959 19.8669
-1.08535 1.15122 21.8306
0.0195394 2.83872 20.8737
-0.237838 -0.0499669 21.7692
-0.0161062 0.81138 22.1397
-0.0577487 -0.380557 21.4537
-0.00592791 -0.0500905 21.6231
0.0929426 -0.642032 21.2298
-0.00987797 -0.38908 21.4286
-0.00624429 -0.369595 21.9193
1.43325 -1.87803 19.1711
0.787095 -0.712887 19.0606
0.72559 -0.518335 19.6354
0.790636 -0.93453 22.3603
1.74358 -1.51157 20.7743
0.0116713 -0.0330955 21.3788
0.244615 -0.480768 21.6099
-0.630545 0.689901 20.2316
-0.228613 -0.159652 21.7097
-1.20577 1.51432 19.0002
-1.13737 0.471951 21.495
-1.53468 1.60364 19.1224
-1.9716 1.67226 14.9538
-1.51571 0.608938 20.9198
-1.80699 1.24685 15.6532
-1.20387 0.376212 21.2581
1.02542 -0.259961 18.4691
0.919571 -0.439795 19.3753
-2.3168 0.981584 12.4768
-1.18605 -0.292129 5.92255
-1.88437 -0.0490023 19.2119
-2.21124 0.201038 13.0321
-1.63373 -0.264232 19.9242
0.781358 0.745666 18.9912
1.05417 0.130626 19.1432
-0.514899 -1.15789 9.57242
-0.161717 -1.00697 20.2647
-1.00469 -0.932322 19.6276
-0.0762674 -1.21762 19.6626
-1.46036 -1.36586 19.0738
0.762838 1.20606 19.6534
0.58016 0.540547 19.7352
1.1799 1.57776 20.4991
1.06365 1.0148 20.2315
1.07073 1.15068 21.8277
1.21693 0.862416 21.1358
0.230353 -0.0419532 21.7657
0.519588 0.196309 21.6886
0.0663935 -0.36704 21.4621
0.0775651 -0.29125 21.4875
-0.0797634 -0.63708 21.2013
-0.140929 -0.464676 21.0378
0.0366083 -0.375686 21.7028
1.00278 -0.529736 20.0956
0.735312 -0.284875 19.8153
0.805261 -0.560326 21.227
1.42844 -0.662842 20.6061
0.124571 -0.296741 21.4997
0.455025 -0.468312 21.3896
-0.409529 -0.0747677 21.6426
-0.0688025 -0.268875 21.5951
-0.919773 0.11282 21.4053
-0.795789 -0.0586596 21.5862
-0.982393 0.0831952 21.3037
-1.13396 0.00843576 21.2366
-1.13487 -0.0455624 20.7314
1.31931 -0.418722 19.9464
0.866479 -0.108718 19.6569
1.06564 -0.582259 21.3137
1.93898 -0.260121 20.5411
0.237224 -0.418402 21.5376
0.85125 -0.526596 21.4425
-0.403515 -0.26355 21.7536
0.151133 -0.432196 21.7073
-1.0436 -0.192275 21.4534
-0.682235 -0.451651 21.6731
-1.17498 -0.386809 21.3597
-1.08538 -0.478823 21.2458
-0.852319 -0.278578 21.1545
1.57223 0.146114 19.7623
0.746782 0.293867 19.7695
1.60212 -0.167986 21.1867
1.43391 0.572072 20.3448
0.790381 -0.391659 21.6486
1.28239 0.166174 21.2475
0.00386375 -0.435672 21.7453
0.493534 -0.131534 21.6517
-0.602289 -0.643236 21.4737
-0.0837768 -0.435417 21.5098
-0.974772 -0.777859 20.9341
-0.380078 -0.543866 21.3098
-0.453129 -0.81613 20.689
0.744873 0.50023 20.0809
0.991969 0.556237 20.7366
0.730914 0.246423 21.401
0.18752 -0.127633 21.4792
-0.0762755 -0.363362 21.2631
-0.151108 -0.31985 21.2006
-1.15029 -0.481471 20.032
-1.89088 -2.00453 18.574
-1.31621 -1.02253 19.7871
-1.94229 -0.894371 19.3416
-0.827833 -0.457416 19.5444
-2.40265 -1.68055 20.7344
-0.938032 -0.578072 21.2643
-0.476995 -0.337227 18.7376
-0.813812 -0.882419 21.6474
-1.18376 -1.10257 22.0653
-0.214656 -0.618413 21.6426
-0.172587 -0.365994 21.5179
0.337897 0.0976791 16.6797
0.008295 -0.305099 21.6201
-0.0127466 -0.619925 21.2643
0.254438 -0.301024 21.6375
0.39962 -0.151592 21.6777
0.942763 0.651461 14.2367
0.656532 0.131126 21.7933
0.727549 -0.235623 20.4556
1.43236 0.325514 20.6959
1.01105 -0.0179857 21.4381
1.51425 1.4378 13.7912
1.34256 0.588411 21.1238
1.74571 0.0343619 19.293
1.69929 0.399034 20.7046
1.07214 -0.138576 21.3491
2.01246 1.33846 15.0759
1.65789 0.762753 20.7911
2.14632 0.0723398 18.9736
1.35962 0.150913 20.9348
-1.45807 -0.170704 19.8528
-3.15164 -0.611857 16.7349
-2.38029 0.435733 18.927
-1.04109 -0.160577 19.2708
-4.46352 -0.481745 20.457
-1.3906 -0.421528 21.2838
-2.51663 -0.448523 21.7391
-0.812453 -1.16336 21.0828
-0.472346 -0.509095 21.5952
-1.24734 -0.935785 21.482
-0.0645998 -0.619971 20.1563
0.235658 -0.408013 21.8168
0.0486229 -0.474139 20.2739
1.1766 -0.508553 17.9776
0.918024 -0.475901 21.4743
0.202417 -0.821074 3.36458
0.656675 -0.906351 19.6734
1.5728 -0.653179 18.9738
1.13967 -0.648777 21.2811
1.93589 -0.216121 8.92788
1.11177 -1.16305 19.5739
1.67975 -0.978398 19.2451
-1.14068 0.477991 19.9255
-1.5845 1.78539 18.7854
-0.852131 0.840512 19.865
-0.838895 0.469677 19.4505
-2.04275 1.34331 20.1607
-1.43937 0.360936 20.8737
-2.45388 2.01459 20.482
-1.19571 1.00608 20.6622
-2.1671 0.542816 21.3445
-0.923443 -0.0125079 21.568
-2.78094 0.697416 22.0225
-0.954786 0.572055 21.5764
-0.730712 -0.0971232 21.9937
-0.158626 -0.290392 21.6187
-0.0253753 -0.33417 19.4785
-0.246349 -0.116195 21.6612
-0.0279115 -0.581473 21.6853
0.260894 -0.530811 21.4178
-0.0166149 -0.693064 20.0187
0.0171449 -0.397561 21.3736
0.295575 -0.825166 21.5877
0.42531 -0.50145 21.4223
0.340782 -1.12131 19.2927
0.186196 -0.586614 21.4664
0.188634 -0.85642 21.6931
1.88218 -2.07549 18.5175
-0.017672 -3.13495 18.4465
-0.0857897 -3.83404 15.5269
-0.0316235 -1.03983 18.5472
0.0131941 -6.48993 22.8617
0.488461 -0.332824 18.9279
0.0169663 -1.46687 22.643
-0.00289554 -0.0643315 11.6536
-0.326642 0.102078 16.7559
-0.00099139 -0.261275 19.6229
0.000959672 -0.0801864 11.1174
-0.938012 0.611691 14.0631
-0.00287545 0.540399 17.2481
-0.0133071 0.696031 6.86703
-1.50441 1.41758 13.5745
-0.00523013 1.23273 15.4126
-0.0255725 -0.226396 1.5913
-0.00519025 0.939403 8.41494
-2.0105 1.32853 14.9326
0.00901068 2.31117 16.3651
0.0114233 1.2504 4.31356
0.0104258 2.46397 12.8843
3.18314 -0.640784 16.3649
-0.131836 2.6172 13.4585
-0.0665315 -0.360372 17.6934
-0.105078 -0.810866 3.08987
-0.0138405 0.990547 -4.85482
0.0653346 0.309704 -2.95424
-1.87895 -0.216613 8.5011
0.0416679 2.35354 -6.16079
0.0689818 2.50877 -0.461932
1.5624 1.82309 18.7571
0.00643095 1.68284 19.373
-0.0304639 1.03771 18.5127
0.0147019 4.22038 19.597
2.43806 1.99229 20.4817
0.0176457 2.38842 20.2345
0.0126013 5.71746 19.3932
2.77167 0.754377 22.0907
-0.00437994 2.15306 22.1868
-0.00350498 0.526691 17.4437
-0.0184027 -0.336082 19.1234
-0.0203309 0.162071 21.8228
-0.0212137 0.0383012 10.4862
0.0243788 -0.666982 19.7237
-0.00461117 -0.183606 21.5868
-0.0349493 -0.338076 12.738
-0.342324 -1.09603 19.025
0.0108393 -0.496338 21.7337
-0.0324841 -0.480624 11.9454
1.17178 -0.496032 20.0284
1.33283 -1.05865 19.7689
2.0138 -0.966952 19.2601
0.837698 -0.492511 19.482
2.39967 -1.68219 20.7357
0.938494 -0.586841 21.2602
0.819074 -0.879748 21.631
1.18028 -1.11277 22.0841
0.237304 -0.627661 21.6364
0.174374 -0.372985 21.5183
-0.00668444 -0.311711 21.619
0.0187965 -0.628968 21.3058
-0.262385 -0.293689 21.639
-0.396006 -0.161417 21.6646
-0.659442 0.136736 21.7751
-0.724078 -0.248422 20.5532
-1.42225 0.308187 20.6494
-0.993082 -0.0232741 21.4462
-1.34529 0.599139 21.0817
-1.7164 0.00094036 19.3743
-1.70849 0.380022 20.6402
-1.07682 -0.153134 21.3343
-1.67532 0.753632 20.7758
-2.13484 0.0598852 18.8972
-1.37932 0.138793 20.8834
1.53054 -0.18515 19.8354
2.43701 0.491181 18.8101
1.04889 -0.164133 19.1812
4.59625 -0.468402 20.4044
1.40235 -0.423006 21.2963
2.56175 -0.418771 21.7327
0.838695 -1.18801 21.046
0.47533 -0.511542 21.609
1.26827 -0.903888 21.5023
0.0563272 -0.653769 20.2154
-0.234533 -0.41039 21.8117
-0.0417213 -0.452701 20.233
-1.12658 -0.500569 17.9839
-0.902026 -0.48168 21.4888
-0.635657 -0.879346 19.5319
-1.53592 -0.639636 18.8329
-1.12277 -0.639965 21.2634
-1.09769 -1.14784 19.5518
-1.6886 -1.00005 19.1768
1.14975 0.495311 19.9206
0.846496 0.831839 19.8735
0.831441 0.490753 19.4175
2.0209 1.33072 20.1578
1.42657 0.367192 20.8713
1.17942 0.977867 20.6674
2.12592 0.563331 21.3343
0.921378 -0.00187307 21.567
0.943778 0.572729 21.5738
0.724992 -0.0906096 21.9979
0.163743 -0.285455 21.6105
0.249037 -0.105709 21.6605
0.0372693 -0.575089 21.6839
-0.249634 -0.532821 21.4018
-0.0195299 -0.394814 21.3738
-0.261673 -0.808499 21.6092
-0.426837 -0.523976 21.4243
-0.189483 -0.619467 21.5043
-0.174984 -0.847221 21.7736
-1.61305 -1.01469 19.5703
-0.929996 -0.975434 21.8129
0.0508713 -0.436026 21.5982
0.771773 -0.0381341 21.4415
1.69983 0.402203 20.6444
1.94984 0.481967 20.2058
-2.416 -0.328301 18.9835
-1.78532 -0.945568 22.2156
-0.334858 -0.941001 20.4549
0.414143 -0.401959 19.5199
1.36953 -0.694093 18.7765
1.67514 -0.506762 19.5254
-1.48983 0.963303 19.4891
-2.06013 0.894908 20.8319
-1.53444 0.163321 21.9415
-0.234958 -0.355429 21.854
0.114176 -0.695419 21.5515
0.469057 -1.01993 21.1254
-0.0428262 -3.67237 17.2795
0.00952823 -0.555945 14.6242
-0.00263944 -0.0373737 10.9254
-0.00508603 0.442177 8.86841
-0.0201745 0.624498 7.34983
0.0122047 1.76716 10.2765
-0.0893625 -1.17673 13.1504
-0.0065415 -0.138561 -1.74411
0.0634821 1.57969 -2.40156
-0.025548 2.90195 17.9431
0.00936982 3.5238 19.8155
-0.00843089 3.15126 20.6032
-0.00999372 -0.0628782 12.8278
-0.0389612 0.0826413 11.5335
-0.0384566 -0.620199 12.6273
1.64678 -1.0646 19.5116
0.94248 -0.977341 21.799
-0.040143 -0.444571 21.6137
-0.769825 -0.0408659 21.401
-1.68896 0.379597 20.5793
-1.958 0.467889 20.1558
2.48863 -0.318236 18.8497
1.79202 -0.964763 22.2367
0.361045 -0.967643 20.4869
-0.411689 -0.433676 19.5193
-1.32218 -0.684598 18.6687
-1.66049 -0.509441 19.4242
1.48343 0.984158 19.4709
2.03483 0.892946 20.8236
1.53076 0.178455 21.9422
0.230508 -0.352513 21.8534
-0.101513 -0.687768 21.5406
-0.487953 -1.02963 21.0919
0 0 0
-0.00281213 -0.0176953 0.0662802
-0.0295637 -0.018059 0.707093
0.068502 -0.0499517 0.190112
-0.00219999 0.00847514 0.0399095
0.0561269 0.0562073 0.562207
-2.851 1.08444 3.61673
-0.0254401 0.244676 0.519053
-0.0421977 0.005076 0.180585
0.00306839 -0.0209397 0.0123747
-0.0508116 0.00642028 -0.0541789
-0.00150326 -0.00331106 0.0252924
0.00262023 -0.0157132 0.058064
0 0 0
0.0396078 -0.0165114 0.793449
0.00259978 0.0112604 0.0520561
-0.0739373 -0.0575757 0.19477
-0.110057 0.0748146 0.905773
0.0283623 0.256967 0.544407
2.46165 0.840816 3.09003
0.101211 0.0163603 0.427631
0.0348437 0.005622 -0.0438479
0.0171624 -0.0230058 -0.00662765
0.00526673 -0.0094898 0.0776473
0.137953 0.0157221 1.23684
0.0324387 -0.00753454 1.30607
0.000460684 -0.00730842 0.221284
0.00419604 0.000129612 0.0494909
0.0899657 -0.00975347 0.825243
0.00966621 -0.0119944 1.96014
-3.59102e-18 3.21749e-18 6.33722e-17
0 0 0
-0.101956 -0.0931981 0.23131
0 0 0
0 0 0
-0.039908 0.0313598 0.0737948
0 0 0
-1.75617e-18 -1.63501e-17 -7.14066e-17
0 0 0
0.0373613 -0.00223386 0.223333
-0.128069 0.0290607 1.24405
-0.00433503 0.000118607 0.0508852
-0.0367182 -0.0110946 1.4532
-0.000618624 -0.00424071 0.189091
-0.0206635 0.00289274 0.208045
0 0 0
0.00911301 -0.0101227 1.66362
0.000243586 0.00535134 0.0770392
0.03851 -0.0344132 0.0849125
0.0396496 0.031894 0.0743241
0.00331202 -0.00343954 0.0618976
0 0 0
0 0 0
-0.0238864 -0.00288785 0.158035
0 0 0
0 0 0
-0.0194259 -0.0157852 0.191304
-0.0907399 -0.00798801 0.0356386
2.27032e-08 -7.85137e-07 2.96058e-05
0.00220187 -0.0201775 0.00789895
0.00027094 -4.68517e-05 0.0110144
0.000849408 7.04948e-05 0.01459
0.00100549 -0.00128168 0.0108636
0 0 0
0 0 0
0.000312878 -0.00745165 -0.00130941
0 0 0
0 0 0
-0.0742129 1.28344 0.712092
-5.11605e-05 0.00934048 0.0635319
0.0118991 -0.0902503 0.234952
-0.00419847 0.00123644 0.0100388
0 0 0
0 0 0
0 0 0
-0.00401359 0.00181064 -0.00489385
0.103861 -0.00785021 0.0408846
0 0 0
-0.00092989 8.25976e-05 0.0171301
0 0 0
0 0 0
-0.00184997 -0.00108627 0.0220373
0 0 0
-0.00197057 0.00145115 0.0610119
0.00398929 0.00137218 0.0113804
-0.0129456 -0.201701 0.44083
0.0039457 0.000449205 -0.00204699
0 0 0
0.000516206 0.0215858 0.318988
0.00425652 -2.14757e-05 0.0603796
0.000641506 -0.00259103 0.0141731
4.36321e-06 0.000135289 0.00156854
0 0 0
0 0 0
-7.00775e-06 0.000675187 0.00455551
-0.00865851 0.0078341 0.105955
0 0 0
0 0 0
0 0 0
-0.0367523 0.0416658 0.524208
0 0 0
-5.5635e-05 0.0827737 0.175422
0.000100613 0.000277892 0.0181643
-9.04093e-05 -0.00531821 0.0517759
-0.00539639 0.000221178 0.086744
-0.000434675 0.0178947 0.248801
-7.60105e-05 -0.000721463 0.00362617
-8.24064e-06 0.000404222 0.00419782
9.01702e-07 6.33251e-05 0.000407712
0 0 0
0.0272186 0.0309713 0.392631
0 0 0
-0.0311232 -0.037856 0.351678
0 0 0
0.0132331 -0.0116298 0.23878
-0.00172829 -0.0059823 0.0201029
0.000291842 0.00605499 0.181205
0 0 0
-0.000436538 0.022737 0.275746
0 0 0
-0.00266677 -9.3765e-05 0.0930116
0.000174512 0.0118551 0.0581947
0.0246841 -0.0108865 0.189945
0.00437795 -0.0111916 0.100772
-0.000291478 -0.000909065 0.0338184
0.000322148 -0.00108281 0.0389832
0.000135478 0.00011395 0.00169961