# vtk DataFile Version 2.0
tri_press
ASCII
DATASET UNSTRUCTURED_GRID
POINTS 3682 float
-0.815 0.115 -1.98655
-0.836451 0.145 1.775
-0.795 0.557626 -1.865
-0.692989 0.785 1.985
0.815 0.115 -1.98655
0.836416 0.145 1.775
0.795 0.557626 -1.865
0.692981 0.785 1.985
-0.824581 0.122569 -0.7327
-0.830194 0.134107 0.52115
-0.82795 0.700371 -0.581667
-0.804509 0.786725 0.701667
0.824589 0.12255 -0.7327
0.830214 0.134064 0.52115
0.827965 0.700389 -0.581667
0.804511 0.786732 0.701667
-1.6309 -0.215231 -3.07896
-1.63229 -0.164822 -2.06407
-1.63512 -0.155551 -0.810986
-1.62379 -0.162936 0.436169
-1.61126 -0.160386 1.68876
-1.6152 -0.144337 2.7012
-1.62442 -0.119858 3.71817
-1.63116 0.0444597 -3.00759
-1.63296 0.109472 -1.98948
-1.63971 0.137749 -0.730654
-1.62015 0.147333 0.525517
-1.59314 0.151389 1.78378
-1.60708 0.167409 2.79663
-1.62324 0.191282 3.81264
-1.62358 0.539602 -2.87311
-1.6213 0.601846 -1.85622
-1.63771 0.713711 -0.5773
-1.59536 0.783768 0.703713
-1.51019 0.791162 1.98207
-1.56468 0.804041 2.99371
-1.61149 0.824146 4.00496
-1.61696 1.37987 -2.64924
-1.61706 1.45567 -1.62793
-1.6215 1.58214 -0.339446
-1.61364 1.68869 0.955391
-1.59825 1.73971 2.24357
-1.60455 1.75928 3.26423
-1.62499 1.77658 4.2787
-0.817426 -0.21292 -3.07706
-0.8146 -0.15991 -2.0613
-0.818371 -0.162531 -0.811358
-0.817442 -0.173204 0.432441
-0.818125 -0.168041 1.68224
-0.827965 -0.150843 2.69678
-0.836967 -0.125249 3.71561
-0.819486 0.0415512 -3.007
-0.836366 0.161718 2.79299
-0.843288 0.186269 3.81071
-0.81289 0.51974 -2.87676
-0.801854 0.799754 2.9943
-0.839923 0.8205 4.00509
-0.804888 1.36479 -2.65284
-0.803779 1.44076 -1.6319
-0.812623 1.57634 -0.341841
-0.819495 1.6911 0.955679
-0.818884 1.74191 2.24562
-0.827915 1.75972 3.26628
-0.845957 1.77613 4.28019
0.812054 -0.212922 -3.07706
0.82003 -0.159914 -2.0613
0.82703 -0.162548 -0.811358
0.833176 -0.173235 0.432441
0.8308 -0.168053 1.68224
0.781098 -0.150851 2.69678
0.752617 -0.125258 3.71561
0.805356 0.0415509 -3.007
0.75291 0.161712 2.79299
0.73282 0.186261 3.81071
0.800217 0.519741 -2.87676
0.702143 0.79975 2.9943
0.706801 0.820493 4.00509
0.816545 1.36479 -2.65284
0.819044 1.44077 -1.6319
0.80836 1.57634 -0.341841
0.774164 1.6911 0.955679
0.735364 1.7419 2.24562
0.719414 1.75972 3.26628
0.710616 1.77612 4.28019
1.62929 -0.215235 -3.07896
1.63771 -0.16483 -2.06407
1.64613 -0.155576 -0.810986
1.64473 -0.162981 0.436168
1.62777 -0.160414 1.68876
1.58506 -0.144357 2.7012
1.55389 -0.119878 3.71817
1.62309 0.044459 -3.00759
1.63307 0.109471 -1.98948
1.64404 0.137731 -0.730654
1.63323 0.147288 0.525517
1.60339 0.151365 1.78378
1.5566 0.167392 2.79663
1.53191 0.191265 3.81264
1.61654 0.539605 -2.87311
1.62197 0.601854 -1.85622
1.6402 0.713722 -0.5773
1.60179 0.783759 0.703713
1.50968 0.791148 1.98207
1.49561 0.804029 2.99371
1.49736 0.824131 4.00496
1.62738 1.37987 -2.64924
1.62908 1.45568 -1.62793
1.61761 1.58214 -0.339447
1.5773 1.68869 0.955391
1.52767 1.73971 2.24357
1.50633 1.75927 3.26423
1.4979 1.77657 4.2787
-0.807994 0.336313 -1.92877
0 0.11267 -1.98888
-0.819125 0.11945 -1.35963
-0.810358 0.465 1.92564
-1.7494e-05 0.141627 1.77837
-0.799891 0.172985 1.14808
0 0.599077 -1.90645
-0.872662 0.690186 -1.22333
-3.99351e-06 0.820082 2.02008
-0.774902 0.812015 1.34333
0.808018 0.336313 -1.92879
0.819894 0.118675 -1.35963
0.810334 0.465 1.92564
0.799827 0.17302 1.14808
0.872621 0.690146 -1.22333
0.774892 0.812012 1.34333
-0.830064 0.125661 -0.105775
-0.865815 0.41147 -0.657183
3.6262e-06 0.0940297 -0.7327
-0.865457 0.460416 0.611408
1.00208e-05 0.100639 0.52115
-0.819539 0.746858 0.06
7.71987e-06 0.924061 -0.581667
1.22834e-06 1.11707 0.701667
0.83007 0.125638 -0.105775
0.86582 0.411469 -0.657183
0.865456 0.460398 0.611408
0.819506 0.746829 0.06
-0.890813 0.373891 -1.29148
0.890805 0.373891 -1.29148
1.8131e-06 0.116955 -1.35963
3.85993e-06 0.757488 -1.22333
0 0.336313 -2.06853
-0.865265 0.435943 -0.0228875
0.865271 0.435934 -0.0228875
6.8235e-06 0.0943493 -0.105775
4.4741e-06 1.14894 0.06
-0.892692 0.462708 1.2457
0.892684 0.462699 1.2457
-3.73658e-06 0.138159 1.14808
-1.38259e-06 0.968412 1.34333
-1.07437e-05 0.465 2.12487
-0.806841 0.225657 -1.953
-0.4075 0.111185 -1.99036
-0.825508 0.108779 -1.67309
-0.816284 0.305 1.8432
-0.418234 0.141825 1.77817
-0.831412 0.145751 1.46154
-0.805256 0.44697 -1.90064
-0.3975 0.594343 -1.90172
-0.874248 0.664322 -1.54417
-0.766342 0.625 1.96999
-0.346496 0.818963 2.01896
-0.743103 0.807665 1.66417
0.4075 0.111187 -1.99036
0.806788 0.225657 -1.95295
0.82565 0.108634 -1.67309
0.418199 0.141841 1.77816
0.816278 0.305 1.84322
0.831387 0.145744 1.46154
0.3975 0.594344 -1.90172
0.805247 0.44697 -1.90063
0.874257 0.664332 -1.54417
0.346489 0.818963 2.01896
0.766352 0.625 1.97001
0.743098 0.807668 1.66417
-0.840062 0.102801 -1.04616
-0.829106 0.122332 -0.419238
-0.848212 0.265513 -0.694942
-0.414713 0.103451 -0.7327
-0.843408 0.12518 0.834613
-0.830235 0.129778 0.207688
-0.840492 0.300928 0.566279
-0.421292 0.104972 0.52115
-0.845488 0.690461 -0.9025
-0.870815 0.567886 -0.619425
-0.825078 0.724948 -0.260833
-0.451134 0.886542 -0.581667
-0.793239 0.802904 1.0225
-0.87094 0.641549 0.656538
-0.811205 0.765972 0.380833
-0.475115 1.09762 0.701667
0.840896 0.101958 -1.04616
0.414716 0.103451 -0.7327
0.829211 0.122212 -0.419238
0.848206 0.265509 -0.694942
0.843419 0.125143 0.834613
0.421302 0.104972 0.52115
0.830306 0.129687 0.207688
0.840489 0.300904 0.566279
0.845497 0.690471 -0.9025
0.451136 0.886523 -0.581667
0.870817 0.567892 -0.619425
0.825075 0.724948 -0.260833
0.793237 0.802907 1.0225
0.475118 1.09763 0.701667
0.870947 0.641547 0.656538
0.811179 0.765951 0.380833
-0.883746 0.355102 -1.61012
-0.403997 0.336313 -2.00516
9.0655e-07 0.11658 -1.67425
0 0.224491 -2.06506
-0.897958 0.246671 -1.32555
-0.409562 0.114328 -1.35963
-0.883174 0.463854 1.58567
-0.405184 0.465 2.11119
-1.06153e-05 0.138535 1.46322
-1.41189e-05 0.303313 2.07284
-0.868381 0.317846 1.19689
-0.399947 0.136812 1.14808
1.92997e-06 0.714812 -1.56489
0 0.467695 -2.05773
-0.894209 0.532039 -1.25741
-0.436329 0.752519 -1.22333
-2.68805e-06 0.866648 1.68171
-7.36862e-06 0.642541 2.07985
-0.89439 0.637362 1.29452
-0.387452 0.955525 1.34333
0.883745 0.355102 -1.61014
0.404009 0.336313 -2.00529
0.897961 0.246283 -1.32555
0.409948 0.114328 -1.35963
0.883178 0.46385 1.58567
0.405162 0.465 2.11119
0.868298 0.317859 1.19689
0.399912 0.136814 1.14808
0.894378 0.532018 -1.25741
0.436312 0.752519 -1.22333
0.894393 0.637355 1.29452
0.387445 0.955526 1.34333
-0.838669 0.2853 -0.0643312
-0.418235 0.103593 -0.105775
-0.888432 0.392681 -0.974331
-0.865247 0.423706 -0.340035
2.71965e-06 0.11123 -1.04616
5.22485e-06 0.0964943 -0.419238
-0.864304 0.448179 0.29426
-0.864031 0.461562 0.928556
8.42215e-06 0.100283 0.207688
3.14211e-06 0.107179 0.834613
-0.870678 0.605538 0.0185563
-0.495038 1.11844 0.06
5.7899e-06 0.755898 -0.9025
6.09698e-06 1.06637 -0.260833
2.85122e-06 1.1551 0.380833
-7.71228e-08 1.04983 1.0225
0.838672 0.285285 -0.0643312
0.418239 0.103593 -0.105775
0.888432 0.39268 -0.974331
0.86525 0.423702 -0.340035
0.864303 0.448166 0.29426
0.864024 0.461549 0.928556
0.870675 0.605524 0.0185563
0.495019 1.11841 0.06
-0.889079 0.236164 -1.64161
-0.897599 0.256845 -1.01025
-0.88737 0.543979 -0.938416
-0.887037 0.489504 -1.57715
0.88908 0.23597 -1.64161
0.887036 0.489494 -1.57715
0.88737 0.543974 -0.938416
0.897614 0.256646 -1.01025
-0.408531 0.113503 -1.67367
0.408724 0.113503 -1.67367
0.411122 0.109875 -1.04616
-0.410925 0.109875 -1.04616
-0.416915 0.711514 -1.55453
-0.42515 0.754768 -0.9025
0.425149 0.754759 -0.9025
0.416906 0.711515 -1.55453
-0.405748 0.225074 -2.07783
-0.400748 0.457332 -2.02505
0.400754 0.457332 -2.02506
0.405754 0.225074 -2.07782
-0.844396 0.274929 -0.379637
-0.839285 0.293262 0.250974
-0.870963 0.623621 0.337547
-0.870274 0.586476 -0.300434
0.844396 0.274918 -0.379637
0.870274 0.586472 -0.300434
0.870963 0.623612 0.337547
0.839258 0.293256 0.250974
-0.416782 0.102905 -0.419238
0.416786 0.102905 -0.419238
0.41977 0.104283 0.207688
-0.419763 0.104283 0.207688
-0.486272 1.02886 -0.260833
-0.496472 1.13082 0.380833
0.496477 1.13084 0.380833
0.486263 1.02884 -0.260833
-0.849317 0.307554 0.881584
-0.859952 0.311423 1.5236
-0.885674 0.631181 1.62492
-0.866605 0.630466 0.975528
0.849316 0.307545 0.881584
0.866604 0.63046 0.975528
0.885675 0.631178 1.62492
0.859891 0.31143 1.5236
-0.40752 0.10936 0.834613
0.407512 0.10936 0.834613
0.409055 0.137645 1.46238
-0.409091 0.137643 1.46238
-0.394853 1.0377 1.0225
-0.366974 0.859405 1.67294
0.366967 0.859415 1.67294
0.394851 1.03771 1.0225
-0.411709 0.304157 2.05725
0.411681 0.304157 2.05723
0.375825 0.633771 2.07045
-0.37584 0.633771 2.07044
-0.809283 0.170328 -1.96814
-0.61125 0.111175 -1.99037
-0.822183 0.109961 -1.82982
-0.808454 0.225 1.79119
-0.627343 0.141913 1.77809
-0.801872 0.177435 1.61827
-0.802339 0.502298 -1.88503
-0.59625 0.589686 -1.89706
-0.845122 0.621472 -1.70458
-0.732343 0.705 1.98017
-0.519743 0.814671 2.01467
-0.722658 0.800944 1.82458
0.61125 0.111177 -1.99037
0.809334 0.170328 -1.96819
0.821935 0.110207 -1.82982
0.627308 0.141926 1.77807
0.808481 0.225 1.79124
0.801828 0.177446 1.61827
0.59625 0.589667 -1.89704
0.802332 0.502298 -1.88503
0.845118 0.621468 -1.70458
0.519735 0.814652 2.01465
0.732155 0.705 1.97999
0.722651 0.800945 1.82458
-0.821229 0.123777 -0.889431
-0.826928 0.122366 -0.575969
-0.830912 0.196783 -0.713821
-0.624726 0.102851 -0.7327
-0.836879 0.129565 0.677881
-0.829036 0.13312 0.364419
-0.818125 0.226127 0.543715
-0.632652 0.105722 0.52115
-0.831316 0.690013 -0.742083
-0.857895 0.638385 -0.600546
-0.826456 0.712601 -0.42125
-0.663195 0.840763 -0.581667
-0.799947 0.795888 0.862083
-0.852802 0.721676 0.679102
-0.807442 0.775934 0.54125
-0.642423 0.947396 0.701667
0.821151 0.123845 -0.889431
0.624727 0.102851 -0.7327
0.827018 0.122263 -0.575969
0.830919 0.196769 -0.713821
0.836909 0.12951 0.677881
0.632655 0.105722 0.52115
0.829017 0.133118 0.364419
0.818116 0.226101 0.543715
0.831301 0.69 -0.742083
[...]
POINT_DATA 3682
SCALARS point_scalars float 1
LOOKUP_TABLE default
-60.9547
-44.4919
-39.7366
-35.8916
-61.282
-44.4542
-39.5941
-35.8401
-33.4777
-31.1898
-40.5027
-45.8364
-33.4176
-31.2057
-40.4739
-45.818
-54.2193
-131.415
-51.3786
-31.5036
-42.5901
-36.6209
-32.2126
-54.2193
-99.3782
-49.0525
-31.147
-45.5395
-33.8476
-32.0023
-11.4829
-109
-36.3521
-38.8832
-45.2383
-35.6256
-31.478
-60.4171
-73.2622
-47.4906
-45.7074
-37.604
-35.6725
-33.9085
-9.87518
-76.1808
-34.5357
-33.3107
-37.465
-32.7908
-30.6282
103.755
-30.8289
-30.3229
159.936
-30.8284
-30.3464
7.36096
-69.2161
-71.7626
-57.1269
-34.5174
-31.8502
-31.1707
-10.3857
-75.8838
-34.527
-33.1838
-39.01
-32.7033
-30.1684
103.956
-30.7741
-29.9197
163.612
-31.1254
-29.8102
7.43918
-69.2283
-70.7422
-57.1009
-33.4675
-31.8563
-30.5011
-54.8238
-131.706
-51.1273
-31.5008
-42.5623
-36.544
-32.1376
-54.8238
-99.1913
-48.9112
-32.5344
-45.451
-33.7526
-31.3682
-11.0892
-109.03
-36.3398
-38.8686
-45.1836
-32.2091
-31.4112
-60.2049
-73.2739
-47.4939
-45.6872
-37.7201
-35.1658
-33.5851
-39.9565
-150.96
-47.0328
-39.006
-40.2991
-34.9015
-8.42355
-55.4562
-30.7988
-44.5207
-39.6537
-46.2318
-38.8937
-32.5732
-55.4968
-44.4861
-31.0809
-33.7628
-38.2266
-34.6591
-35.5632
-47.624
10.3548
-64.714
-31.0588
-33.7582
-34.6534
-47.6378
-54.6315
-54.733
-52.5015
-31.3947
205.744
-35.3879
-35.3809
-34.9755
-96.8321
-38.8649
-38.7984
-33.4218
-41.4348
-22.8856
-32.5658
-206.53
-77.1844
-45.354
-42.8001
-35.7475
-29.6551
-27.221
-73.8705
-35.9249
-31.0776
-40.8315
-204.804
-32.4903
-76.9031
-42.7128
-45.2891
-35.7323
-27.2564
-29.5513
-73.9044
-31.0421
-35.8554
-40.801
-42.4547
-30.9616
-33.2875
-37.5529
-35.5676
-32.0335
-32.1526
-35.0472
-36.487
-35.0836
-46.2083
-0.011592
-45.6836
-38.0945
-47.5402
-61.5868
-42.3144
-37.5835
-30.9497
-33.2659
-35.6467
-35.0573
-32.0488
-32.1601
-36.505
0.00596202
-35.0816
-46.2232
-45.6626
-61.5674
-38.0844
-47.4903
-87.6554
192.158
-80.6062
196.378
-53.4385
-52.3686
-42.3964
-28.8911
-33.9697
-26.3807
-36.9177
-33.2448
-53.7099
131.923
-54.9985
-39.6127
-35.3492
-26.854
-39.6935
-42.4256
-87.6687
192.251
-53.491
-52.4399
-42.3414
-28.7825
-36.807
-33.2137
-55.0882
-39.6191
-39.6708
-42.4175
-32.8332
-33.8097
-43.9489
-34.1896
-39.8745
-35.6294
-35.1075
-32.9147
-34.5824
-36.1174
-39.4948
-81.3411
-2.53157
-39.4054
-83.0615
-50.876
-32.8174
-33.8173
-43.9973
-34.1812
-35.1053
-32.8776
-39.4962
-81.3164
-88.9254
-46.5913
-41.5861
-84.3217
-88.8234
-84.2752
-41.5832
-46.6475
-82.3552
-83.4238
-40.3661
-40.2893
-56.8568
-12.4933
-12.5325
-56.8688
154.695
143.066
143.006
153.854
-32.3332
-33.1681
-38.7128
-37.9692
-32.3126
-37.9688
-38.7137
-33.1623
-34.863
-34.8764
-33.9084
-33.9006
-49.7288
-70.4701
-70.463
-49.2833
-30.4583
-40.4278
-45.8159
-36.8879
-30.4525
-36.8565
-45.7227
-40.3685
-36.2627
-36.2803
-34.3884
-34.4169
-50.9125
-36.0429
-36.0292
-50.8931
-30.1565
-30.0349
-29.3582
-29.4331
-2.64526
-188.18
-109.139
-49.1369
-44.536
-40.0977
-28.4911
-19.1408
-68.8482
-35.9302
-32.5995
-38.2677
-187.259
-2.60176
-109.027
-44.2447
-49.0916
-40.0657
-19.0482
-28.4711
-68.9244
-32.5584
-35.9719
-38.2551
-41.1614
-31.1198
-33.4085
-35.9146
-30.9543
-31.7961
-31.7004
-34.654
-35.3726
-37.2174
-44.1682
-31.7902
-45.7485
-41.6172
-46.0434
-52.3021
-40.9983
-35.9486
-31.0821
-33.3631
-31.023
-34.6765
-31.7939
-31.7119
-35.3578
-32.0969
-37.2137
-44.1693
-45.7316
-52.2831
-41.6008
-46.032
-37.4627
-36.5201
-116.935
164.034
-150.152
-150.082
-105.433
104.817
-58.526
-41.4288
-51.1952
-50.451
-41.5289
-37.4456
-45.5593
-30.7416
-40.4203
-40.3794
-35.0889
-35.8646
-31.4428
-36.822
-35.3552
-32.7228
2.24983
2.25243
-54.4596
63.1617
-68.5022
-42.0301
-55.2891
-45.5664
-30.7835
-30.767
-32.8793
-27.2028
-43.5693
-45.1131
-42.1707
-44.9383
-37.4255
-37.5832
-116.793
164.218
-58.2856
-42.909
-50.9564
-50.5253
-41.4765
-37.3476
-45.4764
-30.6776
-31.5924
-38.4901
-35.3178
-32.6135
-68.49
-42.0617
-55.3612
-45.5767
-43.5502
-45.1096
-42.1562
-44.9317
-30.715
-31.6864
-32.4028
-32.9235
-33.6099
-34.1931
-38.9621
-33.6027
-37.9165
-37.9274
-37.8296
-36.868
-33.3821
-36.1643
-34.8016
-34.5061
-35.8742
-35.8757
-35.1696
-36.8306
-47.2117
-47.7899
-43.2053
-60.2613
8.62413
8.57476
10.8247
-8.15946
-64.1353
-64.1325
-73.7627
-57.012
-30.6989
-31.6575
-32.3813
-32.9341
-33.6008
-34.1903
-38.9662
-33.5935
-33.3823
-36.1545
-34.7974
-34.4923
-47.2342
-47.7714
-43.2108
-60.2548
-65.1072
-54.4552
-55.3813
-48.7488
-65.1043
-54.5571
-55.4665
-48.8883
-63.5231
-52.6355
-52.6483
-45.0785
-46.0627
-33.5227
-33.5227
-15.5724
203.729
202.02
188.91
203.696
-33.8396
-34.7201
-35.3577
-37.3745
-33.8287
-34.7103
-35.3556
-37.372
-34.58
-34.9303
-33.7966
-34.5819
-93.4256
-87.5069
-90.5437
-93.4314
-40.1698
-37.9912
-39.9732
-34.963
-40.1186
-37.8919
-39.9209
-34.8974
-33.3082
-33.4202
-33.3989
-38.2897
-38.1396
-41.6741
-41.6729
-45.6117
-25.1994
-24.2411
-25.192
-25.066
-105.292
169.585
-110.783
53.1255
-85.4812
-79.3435
-42.58
-32.2948
-36.2036
-37.8334
-40.0258
-34.7342
-113.288
129.212
-54.748
67.2347
-87.9565
-60.0579
-44.9931
-30.7045
-33.4201
-29.276
-44.9793
-37.4977
-111.078
51.4952
-105.152
170.055
-85.3184
-79.4858
-36.1916
-37.7031
-42.5555
-32.2122
-39.9842
-34.7129
-54.7232
67.3173
-113.216
129.376
-87.9611
-60.1722
-33.3959
-29.2052
-44.9306
-30.6426
-44.9047
-37.4802
-48.4871
-39.7705
-31.7184
-33.5968
-39.9666
-32.0938
-38.2474
-36.0219
-33.6346
-37.1306
-32.8784
-33.082
-32.7203
-32.6248
-34.3379
-36.3539
-39.9629
-23.2182
-37.138
-36.7954
-41.4995
-63.2059
-2.92708
-17.7503
-40.3502
-50.7757
-38.257
-37.3655
-42.9057
-55.2456
-66.366
-56.5361
-48.2555
-39.9334
-38.2987
-36.0406
-31.7104
-33.6167
-39.9442
-32.071
-33.6535
-37.1957
-34.3465
-36.3613
-32.8754
-33.097
-32.7202
-32.633
-39.965
-23.2396
-2.89373
-17.7741
-37.1442
-36.7913
-41.511
-63.2218
-40.3276
-50.7459
-66.3581
-56.5333
-38.2482
-37.3461
-42.9013
-55.2262
-88.6955
-85.4502
192.994
181.078
-81.2683
-81.2871
195.371
195.248
-64.7917
-48.6344
-63.3862
-45.0821
-41.3259
-43.3134
-29.2509
-29.2328
-34.0971
-34.1175
-27.6652
-27.5806
-36.5123
-37.4536
-37.217
-33.3494
-54.2846
-54.3299
131.737
131.79
-46.9224
-63.8341
-51.8211
-24.2586
-35.5226
-35.5159
-27.7432
-27.8075
-42.4644
-36.2887
-46.3263
-38.978
-88.648
-85.4297
181.104
193.1
-64.6997
-49.0499
-63.452
-45.585
-43.2418
-41.2707
-29.1488
-29.1433
-36.3771
-37.4122
-37.1171
-33.3213
-63.8465
-46.992
-24.2705
-51.8299
-36.2356
-42.4147
-38.9668
-46.3202
-32.8118
-33.2103
-34.1778
-33.7047
-45.3485
-42.8324
-33.1256
-35.6485
-40.0831
-40.0781
-35.4958
-35.4975
-33.9777
-36.6566
-31.8336
-34.7342
-34.4117
-34.4111
-36.1919
-36.1592
-39.1311
-39.189
-78.0388
-75.0904
-5.00946
-5.00999
-39.3507
-39.3644
-81.043
-81.044
-50.9089
-50.9062
-32.7925
-33.2271
-34.1872
-33.7127
-42.8645
-45.4111
-33.1135
-35.6453
-36.6531
-33.9756
-31.8051
-34.6967
-39.1934
-39.1338
-75.0649
-78.538
-99.9643
-63.3631
-65.1756
-110.647
-40.9203
-39.5274
-49.0967
-46.7916
-36.785
-45.4731
-48.2145
-38.0273
-101.977
-119.971
-64.3362
-65.5468
-99.736
-110.511
-65.1392
-63.1815
-101.916
-65.5452
-64.3521
-119.822
-36.7902
-38.0307
-48.2968
-45.5469
-40.8277
-48.3891
-49.3136
-39.5262
-107.705
-106.536
-63.8437
-61.424
-108.043
-61.4887
-63.8581
-106.558
-37.645
-38.002
-45.2074
-43.8815
-37.5705
-43.6532
-45.1953
-37.9966
-47.9372
-59.7094
-47.3417
-55.5152
-19.1879
7.89246
-17.9155
-32.9515
-19.2234
-32.9742
-17.9115
7.88546
-47.8648
-55.512
-47.3435
-59.7214
119.073
170.801
201.165
98.9698
88.5968
64.3323
187.367
148.713
88.7944
148.831
187.364
64.3021
119.115
103.02
201.118
171.087
-31.8974
-32.052
-33.7702
-32.7943
-32.3858
-33.6619
-34.2235
-32.8072
-42.379
-43.0092
-36.9271
-36.2998
-39.8074
-34.8602
-36.4308
-42.7379
-31.8549
-32.7808
-33.7579
-32.0192
-39.8099
-42.7513
-36.427
-34.8535
-42.3621
-36.2935
-36.9268
-43.0097
-32.3834
-32.7914
-34.2043
-33.6603
-34.6811
-36.7349
-34.7799
-33.1054
-34.703
-33.1196
-34.7809
-36.7409
-33.5352
-34.8803
-34.16
-32.9263
-33.5188
-32.9142
-34.1593
-34.8792
-58.0029
-61.7377
-83.0118
-9.46086
-52.2704
-72.2326
-88.0598
-57.7721
-52.2527
-57.7561
-88.0545
-72.2285
-57.7831
-9.42709
-83.0174
-61.9802
-31.9263
-35.6604
-34.9778
-33.5684
-39.4268
-44.2577
-39.0407
-34.8934
-42.1202
-45.2498
-41.1639
-46.076
-41.1729
-35.7578
-35.1124
-40.3363
-31.978
-33.562
-34.8846
-35.7296
-41.1569
-40.3024
-35.0614
-35.7399
-42.0406
-46.0004
-41.1116
-45.2472
-39.3542
-34.8659
-38.996
-44.2028
-34.0841
-36.5514
-37.5925
-36.8333
-34.1243
-36.6418
-37.6229
-36.5441
-37.1692
-35.3618
-33.3428
-32.7953
-37.2116
-32.8377
-33.3643
-35.3879
-51.2082
-48.6177
-45.6993
-56.9275
-34.8664
-32.9558
-38.2549
-41.2309
-34.836
-41.2168
-38.2497
-32.9446
-51.1966
-56.9245
-45.6963
-48.6034
-35.0457
-36.2666
-26.1716
-31.0812
-35.0159
-31.0098
-26.0556
-36.2171
-30.7023
-27.7999
-26.6427
-30.6381
-30.7653
-30.6993
-26.7536
-27.8561
-34.8208
-145.229
-131.05
-48.2608
-47.9535
-34.539
-33.2843
-13.0988
-59.7194
-36.0095
-33.8232
-37.0763
-144.915
-35.123
-131.373
-47.8631
-48.2235
-34.4912
-12.8499
-33.2189
-59.6005
-33.7594
-36.0141
-36.6329
-35.2545
-31.8088
-33.6771
-34.0664
-30.2011
-31.5053
-31.482
-33.7975
-37.7259
-38.8125
-42.6691
-45.9691
-45.7935
-43.4507
-45.7872
-48.5281
-35.1993
-34.075
-31.7556
-33.6131
-30.2303
-33.8212
-31.5027
-31.4948
-37.7082
-45.9099
-38.7992
-42.68
-45.7724
-48.5257
-43.4344
-45.7692
-38.7694
-39.4552
-116.187
95.9537
-148.426
-148.414
-123.417
-98.2176
-53.2362
-42.7327
-50.0629
-48.8462
-39.8961
-38.3397
-44.4209
-32.5098
-40.3884
-40.3656
-35.7915
-37.4765
-32.5425
-33.4675
-35.1369
-32.0568
-2.03376
-1.59493
-51.9251
53.3228
-62.4279
-47.7884
-55.5971
-52.1878
-30.7855
-30.7785
-31.7973
-29.0075
-44.3018
-44.8081
-43.4683
-44.658
-38.7128
-38.1309
-116.036
96.0788
-52.8477
-41.302
-49.4788
-48.6926
-39.8509
-38.0974
-44.3256
-32.4367
-32.6326
-33.0546
-34.0739
-31.8261
-62.4544
-47.8396
-55.636
-52.2096
-44.2743
-44.7881
-43.4509
-44.6384
-30.7776
-31.3609
-32.1753
-32.1276
-33.6728
-33.8946
-35.5059
-33.5283
-38.1342
-38.1397
-38.3876
-37.8656
-34.0354
-35.3827
-34.6444
-34.6074
-35.6607
-35.6597
-35.7739
-35.9567
-47.4733
-47.9213
-45.4654
-53.696
9.73378
9.7265
13.1954
1.71482
-64.5742
-64.5753
-68.581
-60.3947
-30.755
-31.3348
-32.1488
-32.1291
-33.6664
-33.8909
-35.5046
-33.5206
-34.032
-35.3747
-34.6399
-34.5976
-47.479
-47.8965
-45.4792
-53.6562
-58.6341
-54.6585
-55.0444
-51.3926
-58.679
-54.7697
-55.1379
-51.5391
-57.4377
-52.5266
-52.5323
-48.4435
-39.8567
-31.9822
-31.983
-23.3
204.398
205.091
201.232
204.379
-34.5894
-34.9982
-35.4426
-36.3634
-34.5804
-34.9902
-35.437
-36.3587
-34.8647
-34.5874
-34.6143
-34.8659
-96.5466
-96.3341
-93.9229
-96.545
-39.375
-38.3895
-39.3655
-38.7957
-39.3206
-38.3085
-39.3065
-38.7191
-33.249
-33.4212
-33.3972
-35.8958
-39.677
-41.5193
-41.5167
-43.5932
-23.5411
-23.3862
-22.8962
-23.4573
-19.7076
-35.9142
-113.028
113.118
-201.589
-172.046
-136.451
-43.7876
-90.4402
-66.2706
-82.0445
-76.6584
-47.9548
-43.2764
-46.5871
-34.8749
-44.5942
-41.336
-37.611
-39.948
-41.0227
-29.604
-39.3873
-35.5845
-26.6021
-30.1969
-112.204
83.6848
-28.0074
-14.813
-45.7557
21.0286
-72.4587
-74.5467
-85.3154
-62.3285
-35.7457
-36.5698
-40.742
-32.027
-31.6629
-30.8786
-32.2346
-30.0868
-39.3454
-42.3126
-42.6743
-38.9374
-201.114
-171.68
-137.205
-43.2647
-19.6077
-35.8704
-112.982
113.356
-90.1839
-66.0756
-81.8419
-76.6049
-44.4829
-41.2631
-37.5613
-39.7889
-47.8925
-43.2084
-46.5268
-34.7931
-41.0221
-29.6099
-39.3495
-35.5927
-28.1183
-14.7796
-45.718
21.2101
-26.5777
-30.5051
-111.876
83.6981
-72.5219
-74.5686
-85.3479
-62.3683
-31.65
-30.8641
-32.2048
-30.0445
-35.7008
-36.5254
-40.6867
-31.9868
-39.3113
-42.3167
-42.6512
-38.9173
-45.7275
-38.957
-48.4099
-39.9729
-30.9764
-30.9948
-31.5714
-32.4975
-33.2765
-33.4458
-35.8378
-32.2664
-37.173
-37.5251
-38.6727
-36.5483
-33.0501
-41.8258
-35.0179
-38.2247
-32.1669
-32.0169
-32.7046
-32.3604
-31.76
-32.7507
-32.4772
-32.1983
-34.5473
-36.056
-34.7127
-35.3515
-35.5112
-38.2271
-38.8021
-30.7634
-35.7474
-34.5941
-35.2195
-36.0468
-45.2486
-46.6997
-43.9039
-53.1448
-10.52
5.5548
0.864326
-7.01924
-45.8296
-45.3484
-43.3048
-47.7177
-39.8515
-36.9966
-38.0683
-37.8433
-46.5435
-47.4827
-45.092
-51.4344
-57.0934
-63.1624
-65.4792
-60.1422
-46.0354
-42.387
-48.1867
-40.0937
-37.2051
-37.5446
-38.7081
-36.5734
-30.9412
-30.991
-31.5637
-32.5123
-33.244
-33.432
-35.8192
-32.2429
-33.1079
-42.1935
-35.0451
-38.3585
-34.5648
-36.0606
-34.7224
-35.3597
-32.1822
-32.004
-32.7071
-32.3757
-31.7692
-32.7549
-32.4803
-32.2093
-35.514
-38.2524
-38.8193
-30.7938
-10.5574
5.54635
0.957308
-6.99418
-35.7484
-34.592
-35.2174
-36.0429
-45.2504
-46.7242
-43.9192
-53.1676
-45.8111
-45.3382
-43.2739
-47.7946
-57.0811
-63.083
-65.4754
-60.1308
-39.8374
-36.9858
-38.0562
-37.828
-46.5691
-47.5418
-44.8815
-51.3779
-104.52
-73.8521
-88.3416
-86.3847
188.839
196.006
191.671
189.245
-91.9987
-71.0262
-80.6474
-80.655
198.664
199.75
195.325
195.317
-52.5093
-53.8952
-57.0077
-51.263
-51.6687
-52.658
-57.2555
-48.3292
-43.5957
-41.4036
-41.7653
-42.8149
-29.9447
-27.3741
-29.0077
-28.9351
-34.4771
-33.5605
-33.9962
-34.008
-28.1959
-25.2397
-26.759
-26.706
-36.2165
-37.3916
-36.8425
-36.6416
-33.0095
-33.3801
-35.0006
-33.167
-54.7085
-51.2173
-53.6342
-53.6022
77.7343
167.88
130.317
130.994
-54.8196
-55.2146
-50.4101
-58.8164
-43.3503
-36.0526
-46.7444
-31.5887
-34.245
-36.5984
-35.4047
-35.4008
-26.7394
-26.6771
-27.0561
-27.0956
-39.9902
-40.1251
-41.3173
-37.1184
-43.5584
-42.0138
-44.3006
-40.6066
-104.522
-73.8235
-88.3204
-86.4071
188.982
195.984
189.32
191.79
-52.4785
-53.9707
-56.9389
-51.5499
-51.775
-52.6915
-57.477
-48.4074
-43.5373
-41.3495
-42.7558
-41.7124
-29.8656
-27.2411
-28.8983
-28.8322
-36.1135
-37.2829
-36.6881
-36.5687
-32.9565
-33.3525
-34.842
-33.1358
-54.9449
-55.2998
-58.8655
-50.5042
-43.3609
-36.0535
-31.5969
-46.7518
-39.9889
-40.0842
-37.0793
-41.2573
-43.5491
-41.9954
-40.5979
-44.2892
-32.6258
-33.2521
-32.8955
-33.0174
-33.4323
-34.1263
-33.9377
-33.7002
-41.5258
-46.8394
-44.6261
-43.4683
-33.8869
-34.4656
-33.6434
-34.863
-37.6222
-42.1536
-39.9112
-39.9119
-36.3156
-35.3403
-35.6207
-35.6213
-34.9628
-35.2851
-34.5155
-35.8293
-34.0071
-32.0009
-32.4083
-33.7207
-34.0606
-34.3038
-34.3365
-34.3375
-36.515
-36.7696
-36.2609
-36.2353
-41.2924
-38.4301
-39.2643
-39.6344
-70.4503
-88.2415
-82.2218
-77.526
4.24732
-8.63185
-3.22089
-3.24592
-23.7964
-58.4746
-39.516
-39.5082
-78.6297
-87.0927
-82.5979
-82.6012
-53.5999
-47.9543
-50.823
-50.8214
-32.6077
-33.2387
-32.8802
-33.0061
-33.4429
-34.1298
-33.9462
-33.7084
-41.5435
-46.9347
-43.5084
-44.6819
-33.8773
-34.4572
-33.6329
-34.8577
-34.9598
-35.2842
-35.8262
-34.5142
-33.9855
-31.9499
-32.374
-33.6823
-41.2941
-38.4302
-39.6397
-39.2663
-70.3982
-88.2498
-77.5095
-82.2829
-100.649
-88.7104
-89.0867
-74.2696
-47.882
-44.9396
-47.2224
-46.209
-40.8816
-39.8776
-44.2939
-42.2543
-103.338
-85.1102
-84.7808
-72.4546
-100.503
-88.5928
-89.0105
-74.1761
-103.612
-85.0812
-84.7409
-72.4263
-40.8652
-39.9011
-44.3096
-42.2794
-47.779
-44.9289
-47.4814
-46.267
-95.6181
-81.608
-82.0392
-71.845
-95.583
-81.842
-82.0896
-71.9505
-40.18
-38.5712
-42.4389
-40.3133
-40.0496
-38.5026
-42.354
-40.2826
-55.4892
-59.6157
-55.3095
-56.015
-17.3155
-8.44054
-17.8461
-7.54057
-17.3283
-8.46838
-17.8666
-7.55298
-55.4753
-59.6691
-55.3111
-56.0214
165.836
96.3024
175.379
192.156
143.759
104.509
165.199
142.732
104.518
143.799
142.78
165.138
92.5607
162.546
191.778
174.975
-31.9882
-32.1236
-32.6221
-32.6997
-32.9356
-32.9467
-33.2713
-33.4927
-38.5807
-40.436
-37.6007
-38.9173
-37.4744
-39.6471
-36.6308
-38.436
-31.9705
-32.1028
-32.5992
-32.6834
-37.4732
-39.6516
-36.628
-38.441
-38.5733
-40.4328
-37.5976
-38.9158
-32.9338
-32.9459
-33.2645
-33.4863
-34.3378
-35.424
-34.5075
-35.234
-35.4388
-34.3566
-35.2402
-34.5182
-34.1228
-33.5636
-34.214
-33.7735
-33.5516
-34.1154
-33.7655
-34.2103
-73.3108
-31.2389
-62.1589
-39.3416
-61.2415
-68.7744
-72.5139
-77.9352
-68.7663
-61.2216
-77.9311
-72.5016
-31.109
-72.7665
-38.8744
-62.0464
-31.4181
-32.7477
-32.6681
-31.3554
-41.2642
-39.5866
-40.9266
-38.7449
-46.4615
-46.496
-44.268
-43.9065
-38.1385
-36.9007
-36.5747
-35.8147
-31.4474
-32.7516
-32.6265
-31.3351
-38.1134
-36.8754
-36.5383
-35.7793
-46.4243
-46.4253
-44.1802
-43.882
-41.2224
-39.5398
-40.8668
-38.7114
-36.4774
-36.3482
-37.3474
-36.183
-36.5093
-36.3573
-37.4407
-36.1648
-35.1947
-34.5162
-34.2487
-33.7288
-35.228
-34.5641
-34.2748
-33.7558
-52.232
-53.8193
-48.7153
-50.7492
-34.7013
-36.599
-35.7126
-37.4531
-34.6831
-36.5827
-35.7023
-37.4411
-52.2243
-53.8136
-48.7084
-50.6676
-31.1977
-31.1626
-29.6589
-28.8378
-31.0702
-31.1125
-28.7723
-29.5618
-29.1443
-30.0029
-28.5491
-29.4399
-30.07
-29.2219
-29.5153
-28.6256
-119.746
76.2527
-135.782
34.3038
-96.8187
-104.827
-43.852
-38.5762
-39.5687
-40.6943
-38.9079
-36.5446
-92.4633
78.4755
-40.4637
43.46
-85.4114
-46.2909
-39.5645
-32.3055
-33.5912
-31.5581
-40.5804
-36.283
-136.596
37.7211
-119.409
76.6447
-96.3055
-104.841
-39.5004
-40.1445
-43.818
-38.4901
-38.7003
-36.5143
-40.4135
42.7546
-91.8807
78.7013
-85.3675
-46.2853
-33.55
-31.5291
-39.4955
-32.2504
-40.4619
-36.236
-40.9877
-37.4997
-31.6442
-33.3217
-35.9318
-32.124
-36.4014
-35.4541
-31.5168
-32.9169
-32.2206
-32.6658
-32.1621
-31.3437
-33.9092
-34.7239
-37.086
-29.6338
-36.3195
-38.6
-41.8303
-52.2141
-20.0463
-50.4804
-43.8051
-48.3821
-42.0491
-41.3222
-44.0063
-49.5224
-51.9066
-51.7415
-40.8474
-37.549
-36.4562
-35.4788
-31.5981
-33.329
-35.879
-32.0838
-31.6064
-32.9733
-33.9286
-34.7459
-32.2149
-32.6767
-32.1656
-31.3651
-37.088
-29.6256
-20.06
-50.5816
-36.3184
-38.5945
-41.834
-52.1606
-43.7874
-48.3183
-51.889
-51.7224
-42.0346
-41.3073
-43.9947
-49.5076
-117.08
106.29
-114.172
92.3168
-114.028
-118.807
168.23
157.512
-125.287
-101.523
-125.301
-118.406
-105.356
-105.362
77.3247
76.9744
-61.6636
-59.7895
-43.3774
-42.6469
-55.3692
-49.4438
-55.1036
-46.6364
-46.1958
-33.2671
-42.4461
-32.0169
-45.0799
-46.0999
-30.8342
-30.6561
-36.2789
-38.0102
-36.2478
-37.959
-35.1092
-35.1232
-35.9442
-35.9195
-33.5796
-31.6488
-35.3563
-36.8372
-37.3942
-35.032
-33.534
-32.5805
-57.1387
58.0376
-57.1349
58.0228
-54.4917
-54.4785
65.1866
64.9163
-68.7349
-65.8328
-44.0921
-38.6223
-50.0929
-59.5583
-53.3624
-38.6241
-31.8501
-29.4313
-31.8364
-29.3958
-32.9078
-32.9024
-27.3115
-27.3424
-44.7492
-42.1729
-43.21
-46.0286
-43.5964
-41.1536
-46.7075
-43.607
-116.957
106.45
-113.922
92.3521
-113.883
-118.65
157.662
168.448
-61.4146
-59.7157
-45.6907
-43.2528
-55.1609
-49.4812
-55.1621
-46.7811
-46.1185
-33.1982
-42.1818
-31.946
-46.0159
-45.0104
-30.7674
-30.5941
-33.555
-31.6468
-36.3952
-36.7515
-36.8162
-35.0047
-33.242
-32.5013
-68.734
-65.8468
-44.1431
-38.6465
-59.5672
-50.2279
-38.6364
-53.3881
-44.7252
-42.1577
-43.2049
-46.0094
-41.1483
-43.5472
-43.5953
-46.6991
-31.5112
-31.9889
-32.4617
-32.2722
-32.3869
-32.6945
-32.913
-32.8209
-35.8345
-32.8666
-35.2807
-34.4464
-39.2152
-38.5795
-33.123
-34.1586
-38.4338
-37.5095
-38.4452
-37.518
-37.992
-37.9915
-36.8695
-36.8721
-33.4571
-33.4301
-36.1697
-36.0195
-34.2404
-35.5202
-33.9992
-35.0983
-35.2653
-36.3143
-35.267
-36.3129
-35.0505
-35.05
-36.7725
-36.7673
-45.1006
-53.6703
-45.4673
-52.7607
-43.1174
-43.1365
-60.9546
-59.1015
10.5418
0.490765
10.5538
0.511909
10.1537
10.0787
-8.19706
-8.18338
-68.024
-60.0155
-68.0216
-60.0088
-73.5667
-73.5638
-57.0337
-57.0287
-31.4792
-31.9934
-32.4402
-32.2779
-32.3632
-32.6762
-32.9261
-32.8332
-35.8294
-32.8549
-35.2801
-34.4405
-38.5839
-39.2182
-33.112
-34.1505
-33.457
-33.4284
-36.1615
-36.0069
-35.5149
-34.2379
-33.9878
-35.0829
-45.1201
-53.7284
-45.5301
-52.7571
-43.1479
-43.1214
-59.0884
-60.9458
-65.2781
-64.744
-58.1158
-51.7996
-51.3416
-58.7126
-48.9571
-48.5853
-65.2642
-64.7516
-58.1253
-52.0015
-58.7604
-51.4452
-48.6948
-49.1308
-63.5855
-63.5921
-57.5562
-48.5616
-57.5672
-48.576
-45.0972
-45.0936
-46.3351
-46.3346
-41.9431
-25.4743
-25.4733
-41.9436
-16.2248
-16.2236