# vtk DataFile Version 2.0
tet_velo
ASCII
DATASET UNSTRUCTURED_GRID
POINTS 29498 float
-0.722399 0.175 -1.935
-0.575 0.275 1.96899
-0.752748 0.585 -1.785
-0.415 0.815 1.99401
0.722404 0.175 -1.935
0.575 0.275 1.96899
0.745 0.555 -1.78899
0.415 0.815 1.99401
-0.708601 0.172999 -0.63367
-0.686501 0.179299 0.66766
-0.717995 0.739496 -0.52533
-0.602185 0.812935 0.73434
0.706027 0.175575 -0.63367
0.686576 0.179226 0.66766
0.730749 0.737415 -0.52799
0.605822 0.809156 0.73301
-1.41237 -0.151608 -3.00988
-1.41737 -0.0946858 -1.98514
-1.38354 -0.0934381 -0.682861
-1.30826 -0.0960154 0.627568
-1.20871 -0.0335736 1.93053
-1.19232 0.0169098 2.95861
-1.21141 0.0599917 3.98045
-1.4228 0.0942503 -2.95043
-1.43072 0.16983 -1.93009
-1.38846 0.190024 -0.635874
-1.2867 0.193385 0.661894
-1.14685 0.25307 1.95688
-1.15398 0.302383 2.9844
-1.19272 0.345136 4.0076
-1.43578 0.55827 -2.81952
-1.45047 0.635064 -1.79689
-1.38969 0.749603 -0.530973
-1.22465 0.802817 0.731744
-1.0417 0.820547 1.99836
-1.09885 0.866919 3.02753
-1.17285 0.91402 4.05734
-1.41037 1.35152 -2.65491
-1.40779 1.43835 -1.63889
-1.37039 1.56774 -0.385892
-1.2961 1.66347 0.857955
-1.2264 1.71199 2.11114
-1.21325 1.74446 3.12758
-1.23172 1.78229 4.15275
-0.705929 -0.150533 -3.01314
-0.716063 -0.0890696 -1.98948
-0.703228 -0.101237 -0.682715
-0.679326 -0.106062 0.632535
-0.620519 -0.0241706 1.93947
-0.614092 0.0232657 2.96462
-0.62955 0.0623733 3.98384
-0.710276 0.0875634 -2.9521
-0.597402 0.309538 2.98935
-0.62263 0.347469 4.01012
-0.721903 0.530423 -2.81549
-0.554031 0.866551 3.02653
-0.61337 0.91392 4.05697
-0.713157 1.33283 -2.65078
-0.717418 1.42148 -1.6342
-0.705714 1.56264 -0.383272
-0.675716 1.66586 0.85704
-0.642541 1.7129 2.10793
-0.637365 1.74383 3.12443
-0.651999 1.78142 4.15039
0.723887 -0.154041 -3.01397
0.713299 -0.0892032 -1.98974
0.697576 -0.0997273 -0.682874
0.663274 -0.105984 0.632426
0.583634 -0.0242914 1.9394
0.545722 0.0229961 2.96447
0.532634 0.0618896 3.98358
0.731854 0.0813664 -2.95321
0.513647 0.309326 2.98923
0.51221 0.346997 4.00988
0.736054 0.515319 -2.81786
0.458512 0.866189 3.02637
0.48592 0.913304 4.05668
0.699182 1.32378 -2.65279
0.687253 1.41308 -1.63628
0.647158 1.55798 -0.385014
0.573517 1.66327 0.855854
0.510565 1.71123 2.10719
0.496124 1.74254 3.12385
0.496443 1.78024 4.14985
1.43358 -0.158851 -3.01178
1.42458 -0.0972822 -1.98641
1.39043 -0.0926737 -0.683766
1.31689 -0.0963629 0.627014
1.2042 -0.0341157 1.9302
1.14915 0.0161562 2.95819
1.13178 0.0588883 3.97986
1.44436 0.0829304 -2.95284
1.4392 0.1642 -1.93185
1.39943 0.190611 -0.637134
1.30818 0.192514 0.661243
1.16521 0.252611 1.95664
1.10878 0.301685 2.98404
1.10399 0.344033 4.00704
1.45046 0.53616 -2.82355
1.45474 0.611057 -1.80151
1.40521 0.744306 -0.534397
1.24253 0.798972 0.729948
1.05248 0.819276 1.99783
1.03995 0.865826 3.02702
1.06671 0.91262 4.05667
1.40033 1.33546 -2.65868
1.38383 1.42378 -1.64272
1.32369 1.5591 -0.389129
1.21575 1.65845 0.855674
1.11842 1.70863 2.10963
1.0887 1.74179 3.12638
1.08753 1.77985 4.15163
-0.744628 0.38 -1.86705
2.5034e-06 0.17252 -1.93748
-0.723499 0.166 -1.28434
-0.489575 0.545 1.97607
0 0.28167 1.96232
-0.632987 0.224912 1.31833
-0.003874 0.582005 -1.799
-0.782865 0.709742 -1.15517
0 0.787774 1.96678
-0.467964 0.773339 1.36418
0.743116 0.365 -1.87141
0.723503 0.166001 -1.28434
0.489534 0.545 1.97603
0.632989 0.224911 1.31833
0.80118 0.709514 -1.15849
0.469381 0.771047 1.36351
-0.694029 0.179671 0.016995
-0.870842 0.456248 -0.5795
-0.00128664 0.171199 -0.63367
-0.812288 0.496117 0.701
3.7497e-05 0.172723 0.66766
-0.692679 0.808805 0.104505
0.00637673 0.887621 -0.52666
0.00181887 0.998922 0.733675
0.693965 0.179737 0.016995
0.870825 0.456495 -0.58083
0.812355 0.494191 0.700335
0.698021 0.803021 0.10251
-0.851627 0.418124 -1.21975
-0.84085 0.476182 0.06075
-0.745769 0.520559 1.34125
-0.00064207 0.162354 -1.28434
-0.000624574 0.172517 0.016995
1.87485e-05 0.214859 1.31833
-0.00193575 0.3725 -2.02441
0 0.545 1.98337
0.00125136 0.714019 -1.15683
0.0040978 1.05723 0.103507
0.000909437 0.776358 1.36384
0.85306 0.410748 -1.22141
0.840985 0.475343 0.0597525
0.74585 0.519595 1.34092
-1.07656 0.172415 -1.93254
-0.719231 0.0429652 -1.96224
-0.716337 0.131282 -2.44355
-0.860925 0.264035 1.96293
-0.59776 0.125415 1.95423
-0.586201 0.292269 2.47917
-1.10161 0.610032 -1.79094
-0.737325 0.557712 -2.30025
-0.735083 1.00324 -1.7096
-0.72835 0.817774 1.99618
-0.484515 0.840775 2.51027
-0.52877 1.26395 2.05097
0.717852 0.0428984 -1.96237
0.727129 0.128183 -2.44411
1.0808 0.1696 -1.93342
0.579317 0.125354 1.95419
0.544323 0.292163 2.47911
0.870106 0.263805 1.96282
0.740527 0.535159 -2.30343
0.716127 0.984042 -1.71264
1.09987 0.583028 -1.79525
0.436756 0.840595 2.51019
0.462782 1.26312 2.0506
0.733741 0.817138 1.99592
-1.04853 0.181511 -0.634772
-0.705914 0.0358808 -0.658192
-0.986602 0.186342 0.664777
-0.682913 0.0366185 0.650097
-1.05384 0.74455 -0.528152
-0.711855 1.15107 -0.454301
-0.913416 0.807876 0.733042
-0.63895 1.2394 0.79569
0.701802 0.037924 -0.658272
1.05273 0.183093 -0.635402
0.674925 0.036621 0.650043
0.997378 0.18587 0.664452
0.688953 1.1477 -0.456502
1.06798 0.740861 -0.531194
0.58967 1.23621 0.794432
0.924174 0.804064 0.731479
-1.41487 -0.123147 -2.49751
-1.41758 -0.028679 -2.98015
-1.05915 -0.151071 -3.01151
-1.40045 -0.0940619 -1.334
-1.42404 0.0375719 -1.95761
-1.06671 -0.0918777 -1.98731
-1.3459 -0.0947267 -0.0276464
-1.386 0.0482928 -0.659368
-1.04338 -0.0973376 -0.682788
-1.25849 -0.0647945 1.27905
-1.29748 0.0486846 0.644731
-0.993795 -0.101039 0.630051
-1.20052 -0.00833191 2.44457
-1.17778 0.109748 1.9437
-0.914613 -0.0288721 1.935
-1.20187 0.0384507 3.46953
-1.17315 0.159647 2.97151
-0.903208 0.0200878 2.96162
-1.20206 0.202564 3.99403
-0.920479 0.0611825 3.98214
-1.42676 0.13204 -2.44026
-1.42929 0.32626 -2.88498
-1.06654 0.0909068 -2.95126
-1.40959 0.179927 -1.28298
-1.4406 0.402447 -1.86349
-1.33758 0.191704 0.0130096
-1.38908 0.469813 -0.583424
-1.21678 0.223227 1.30938
-1.25568 0.498101 0.696819
-1.15041 0.277727 2.47064
-1.09427 0.536809 1.97762
-1.17335 0.32376 3.496
-1.12641 0.584651 3.00597
-0.875689 0.305961 2.98687
-1.18278 0.629578 4.03247
-0.907674 0.346303 4.00886
-1.44313 0.596667 -2.30821
-1.42307 0.954897 -2.73722
-1.07884 0.544347 -2.81751
-1.42008 0.692333 -1.16393
-1.42913 1.03671 -1.71789
-1.30717 0.77621 0.100386
-1.38004 1.15867 -0.458433
-1.13317 0.811682 1.36505
-1.26037 1.23314 0.794849
-1.07028 0.843733 2.51294
-1.13405 1.26627 2.05475
-1.13585 0.890469 3.54244
-1.15605 1.30569 3.07756
-0.826441 0.866735 3.02703
-1.20229 1.34816 4.10505
-0.893109 0.91397 4.05716
-1.40908 1.39494 -2.1469
-1.06176 1.34217 -2.65285
-1.38909 1.50305 -1.01239
-1.06261 1.42992 -1.63654
-1.33324 1.6156 0.236031
-1.03805 1.56519 -0.384582
-1.26125 1.68773 1.48455
-0.985906 1.66466 0.857497
-1.21982 1.72822 2.61936
-0.934469 1.71245 2.10954
-1.22248 1.76338 3.64017
-0.925305 1.74415 3.12601
-0.941861 1.78186 4.15157
-0.710996 -0.119801 -2.50131
-0.708103 -0.0314848 -2.98262
0.00897865 -0.152287 -3.01356
-0.709645 -0.0951534 -1.3361
-0.00138175 -0.0891364 -1.98961
-0.691277 -0.10365 -0.0250899
-0.00282567 -0.100482 -0.682794
-0.649923 -0.0651163 1.286
-0.00802613 -0.106023 0.63248
-0.617305 -0.000452418 2.45205
-0.0184429 -0.024231 1.93943
-0.621821 0.0428195 3.47423
-0.605747 0.166402 2.97699
-0.0341848 0.0231309 2.96455
-0.62609 0.204921 3.99698
-0.0484581 0.0621315 3.98371
-0.716089 0.308993 -2.88379
0.010789 0.0844649 -2.95265
-0.610016 0.328504 3.49973
-0.575716 0.588045 3.00794
-0.0418775 0.309432 2.98929
-0.618 0.630695 4.03354
-0.0552102 0.347233 4.01
-0.71753 0.931624 -2.73314
0.00707577 0.522871 -2.81668
-0.5837 0.890235 3.54175
-0.595698 1.30519 3.07548
-0.0477592 0.86637 3.02645
-0.632684 1.34767 4.10368
-0.0637249 0.913612 4.05682
-0.715288 1.37715 -2.14249
-0.00698733 1.3283 -2.65179
-0.711566 1.49206 -1.00874
-0.0150827 1.41728 -1.63524
-0.690715 1.61425 0.236884
-0.0292782 1.56031 -0.384143
-0.659128 1.68938 1.48249
-0.0510997 1.66456 0.856447
-0.639953 1.72837 2.61618
-0.065988 1.71207 2.10756
-0.644682 1.76262 3.63741
-0.0706202 1.74318 3.12414
-0.0777782 1.78083 4.15012
0.718593 -0.121622 -2.50186
0.72787 -0.0363372 -2.98359
1.07873 -0.156446 -3.01287
0.705438 -0.0944653 -1.33631
1.06894 -0.0932427 -1.98808
0.680425 -0.102856 -0.025224
1.044 -0.0962005 -0.68332
0.623454 -0.0651376 1.28591
0.990081 -0.101173 0.62972
0.564678 -0.000647661 2.45193
0.893915 -0.0292035 1.9348
0.539178 0.0424428 3.47403
0.529684 0.166161 2.97685
0.847437 0.0195761 2.96133
0.522422 0.204443 3.99673
0.832208 0.0603889 3.98172
0.733954 0.298343 -2.88554
1.08811 0.0821484 -2.95303
0.512928 0.328161 3.49955
0.486079 0.587758 3.0078
0.811215 0.305506 2.98663
0.499065 0.63015 4.03328
0.808098 0.345515 4.00846
0.717618 0.919549 -2.73533
1.09326 0.525739 -2.82071
0.472216 0.889747 3.54152
0.477318 1.30436 3.07511
0.749232 0.866007 3.02669
0.491181 1.34677 4.10326
0.776314 0.912962 4.05667
0.693218 1.36843 -2.14454
1.04976 1.32962 -2.65574
0.667205 1.48553 -1.01065
1.03554 1.41843 -1.6395
0.610337 1.61062 0.23542
0.985426 1.55854 -0.387072
0.542041 1.68725 1.48152
0.894631 1.66086 0.855764
0.503345 1.72688 2.61552
0.814495 1.70993 2.10841
0.496284 1.76139 3.63685
0.79241 1.74216 3.12511
0.791986 1.78004 4.15074
1.42908 -0.128067 -2.4991
1.43897 -0.0379604 -2.98231
1.4075 -0.0949779 -1.33509
1.43189 0.0334589 -1.95913
1.35366 -0.0945183 -0.0283761
1.39493 0.0489685 -0.66045
1.26054 -0.0652393 1.2786
1.31253 0.0480756 0.644128
1.17667 -0.00897975 2.44419
1.18471 0.109248 1.94342
1.14047 0.0375222 3.46903
1.12897 0.158921 2.97111
1.11788 0.201461 3.99345
1.44178 0.123565 -2.44235
1.44741 0.309545 -2.8882
1.41932 0.177405 -1.28449
1.44697 0.387628 -1.86668
1.35381 0.191562 0.0120548
1.40232 0.467459 -0.585765
1.2367 0.222562 1.30894
1.27535 0.495743 0.695596
1.137 0.277148 2.47034
1.10885 0.535943 1.97724
1.10639 0.322859 3.49554
1.07437 0.583756 3.00553
1.08535 0.628327 4.03186
1.4526 0.573608 -2.31253
1.4254 0.93581 -2.74111
[...]
POINT_DATA 29498
VECTORS point_vectors float
-4.88156 -4.74322 10.2353
0.188258 0.416921 1.42919
-5.66907 2.89986 11.0718
-0.149617 -0.101142 1.00384
4.65216 -4.65992 9.91212
-0.193443 0.417226 1.44731
2.26709 1.10824 4.42432
0.150997 -0.0973017 0.990994
0.00116473 0.000678487 0.028097
-0.000264591 0.000562338 0.0654481
0 0 0
0.000268661 0.000162716 0.00064585
0 0 0
0.000396896 0.000565154 0.0678501
-4.10888e-17 2.59072e-18 -5.56322e-17
-0.00240345 0.00135344 0.00616124
-0.468865 -0.190042 19.7994
-1.17433 -0.616824 20.1949
-0.456885 -0.435079 21.2148
0.276995 0.0664564 21.2708
0.842294 0.464324 20.9148
0.951871 0.440185 20.4499
0.66673 0.20231 20.4893
-0.574062 -0.129978 19.7146
-1.52596 -0.445842 20.1769
-0.61138 -0.485799 21.2986
0.413812 -0.0983017 21.4522
1.30714 0.32652 20.1835
1.23615 0.177058 19.982
0.932723 -0.00820904 20.6545
-0.67274 0.0635842 19.6848
-1.65261 0.156176 20.2339
-1.05497 -0.288552 21.295
0.145401 -0.636453 21.3658
1.1074 -0.825958 19.4572
0.848654 -0.748024 20.171
0.3563 -0.523957 20.5049
-0.536294 0.357353 19.8553
-0.914216 0.624774 20.3008
-0.748366 0.366777 21.0052
-0.157804 -0.117239 21.1781
0.139767 -0.382506 20.8665
0.191738 -0.427697 20.5824
0.161677 -0.320189 20.2273
-0.432607 -0.392389 19.367
-2.17229 -3.24817 19.5917
-0.208891 -0.0658244 20.7057
0.0595187 0.479008 19.6775
0.315776 1.21067 17.1172
0.637161 1.2956 16.7572
0.493467 1.0151 17.5276
-0.54425 -0.312322 19.1363
1.27073 1.18542 10.2271
1.92019 0.720778 13.099
-0.751611 0.121676 18.8365
1.00561 -0.518108 10.3461
0.793131 -0.464622 14.8766
-0.522285 0.7457 19.4447
-1.01869 1.651 20.0939
-1.03996 1.315 21.2109
-0.217422 -0.0204671 21.4422
0.0461962 -0.484831 20.9362
0.0942945 -0.530759 20.6466
0.0818584 -0.296133 20.7469
0.437167 -0.384892 19.3783
2.17222 -3.30159 19.6223
0.192478 -0.0627845 20.5546
-0.0514883 0.46887 19.499
-0.262735 1.1549 16.6022
-0.409345 1.3424 16.4689
-0.421732 1.17415 17.0647
0.555318 -0.302141 19.1606
-0.9854 1.15379 7.95364
-1.84998 0.93047 12.4163
0.758971 0.0978967 18.8562
-0.804737 -0.444432 8.02402
-0.841551 -0.357872 12.8588
0.519795 0.752181 19.4227
1.01635 1.71674 20.0773
1.03281 1.45282 21.2225
0.200889 0.0122448 21.4829
-0.0231172 -0.484458 20.9721
-0.0667904 -0.546515 20.7237
-0.133299 -0.301101 20.8643
0.464167 -0.184229 19.8076
1.15572 -0.609523 20.2025
0.450866 -0.434809 21.2059
-0.276351 0.0573045 21.2668
-0.85159 0.467889 20.9059
-0.94874 0.491989 20.4053
-0.661761 0.257348 20.7424
0.565389 -0.128688 19.7344
1.50204 -0.451073 20.1858
0.606876 -0.482519 21.2805
-0.393282 -0.109995 21.434
-1.27339 0.282306 20.3281
-1.31743 0.213907 19.765
-1.00764 0.005846 20.963
0.67217 0.0480627 19.6912
1.64193 0.126091 20.2304
1.03325 -0.285255 21.279
-0.127473 -0.605219 21.4539
-1.09355 -0.82219 19.536
-0.887093 -0.743306 19.9087
-0.413397 -0.541969 20.7841
0.544529 0.36131 19.8457
0.942789 0.651965 20.2905
0.78654 0.400599 21.0179
0.175681 -0.108336 21.2166
-0.128013 -0.417675 20.888
-0.156898 -0.442935 20.7264
-0.179357 -0.353866 19.9137
-3.15789 -0.301968 4.59034
-0.065702 -7.51398 10.6895
0.0280413 0.000335748 0.244599
-0.00779685 -0.000103769 -0.00111494
0.000468604 0.0150206 0.0789458
0.00404505 0.0150066 0.334822
-0.000736839 0.0697378 0.170398
-0.281189 -0.0108673 1.09187
3.37473e-05 0.607745 -0.469172
0 0 0
2.66519 -0.281534 4.21459
-0.0271378 5.33165e-06 0.227343
0.00758096 -0.000140219 -0.00109476
-0.00451198 0.0149615 0.333741
0.427019 0.08447 1.64844
0 0 0
0 0 0
0 0 0
0 0 0
0 0 0
-2.58665e-05 3.72086e-05 0.00629223
0.0134936 0.0108658 0.0491676
0.000386378 0.0312115 0.069769
-2.97081e-05 -0.00528652 0.0282072
0 0 0
0 0 0
0 0 0
-0.0146232 0.0120021 0.0523164
-0.00651435 -0.00600458 0.0970556
0 0 0
0 0 0
4.9393e-07 7.60699e-08 -2.80677e-05
6.85758e-08 -1.06886e-08 -7.7942e-06
-2.01815e-09 2.15025e-07 3.54454e-06
-0.0127789 0.0349765 0.474289
2.90669e-06 0.00297598 -0.00269459
8.82733e-07 7.78247e-06 4.98742e-05
-3.66161e-06 0.000923058 0.055738
-0.000162242 -0.00161461 -0.0426394
0.0174138 -0.0174029 0.242933
0 0 0
0 0 0
-2.89411 -1.24447 19.8285
-3.50555 -4.86652 19.0908
-1.43434 -1.0017 18.1645
1.43376 1.26792 13.7907
0.127387 1.13277 10.2881
0.755809 1.01472 6.82827
-3.30019 0.571241 20.0141
-2.27418 0.791424 17.365
-2.13134 2.70774 19.8483
1.15766 -0.414444 9.77469
0.563544 -0.479723 5.61409
0.0372927 -0.793817 20.1399
3.50072 -4.9504 19.1048
1.4475 -0.991796 18.193
2.88729 -1.25263 19.8339
-0.0745525 1.08453 9.95694
-0.543993 0.872755 5.65068
-1.45074 1.26475 14.0782
2.30681 0.693973 17.3349
2.1975 2.88684 19.7956
3.36365 0.454241 20.0024
-0.383671 -0.448444 4.45437
-0.034505 -0.750156 19.4151
-1.16284 -0.405825 9.89052
-0.208273 -0.792189 19.7495
0.447693 0.221765 14.8231
0.526442 0.591711 16.3484
0.158039 0.439206 13.9299
-1.68646 -1.06716 20.1318
-2.5557 1.97689 21.3282
0.865848 0.30251 13.8303
-0.35985 -0.203189 21.1945
-0.449852 0.226313 14.3381
0.227942 -0.798339 19.7715
-0.154171 0.430681 13.7337
-0.541714 0.552596 16.78
2.58982 2.11158 21.2926
1.64281 -1.00967 20.3697
0.314004 -0.191477 20.8939
-0.788754 0.256468 14.2367
-0.794646 -0.378959 19.8485
-0.523254 -0.170633 19.7561
-0.484275 -0.27797 19.6162
-0.97334 -0.649026 20.9263
-1.37062 -0.543337 20.1793
-1.76773 -1.35836 20.014
-0.0409963 -0.175909 21.2688
-0.524839 -0.46211 21.2571
-0.22782 -0.490789 21.4895
0.588671 0.279185 21.1894
0.345293 0.00603148 21.3479
0.329585 0.388856 21.142
0.932236 0.468405 20.665
1.09472 0.449114 20.6738
0.851494 1.09196 20.1132
0.86869 0.351884 20.6525
1.1395 0.363419 20.225
1.02663 0.977261 19.5643
0.742128 0.128985 20.4882
0.647033 0.568128 19.5527
-1.05812 -0.260638 19.7319
-0.633657 -0.0713604 19.6822
-0.61361 -0.220574 19.4689
-1.26945 -0.576623 20.9999
-1.68373 -0.188104 20.1795
-0.0569773 -0.318139 21.4297
-0.814562 -0.462673 21.3456
0.897937 0.142905 20.9464
0.453805 -0.365329 21.3671
1.34205 0.274953 20.0917
1.55182 -0.193942 19.2658
1.10893 0.0259679 19.7433
1.39478 -0.348588 19.6922
1.67205 0.917745 16.7727
0.894268 -0.259803 20.8281
1.1864 0.299486 18.8112
-1.18987 0.13528 19.7529
-0.673851 0.252545 19.7305
-0.801114 0.0849192 19.3101
-1.49116 -0.0180784 20.9579
-1.33516 0.538818 20.271
-0.48443 -0.487357 21.5649
-1.04335 0.170346 21.1404
0.720382 -0.752136 20.4983
-0.169286 -0.298872 21.3713
1.03929 -0.820219 19.7889
0.290734 -0.650681 20.9503
0.658417 -0.601606 20.5345
0.380049 -0.627466 20.5416
1.157 -0.744379 16.5326
0.229879 -0.50486 20.5023
0.695848 -0.46891 18.2225
-0.769975 0.532647 19.9829
-0.57717 0.54532 19.6611
-0.914314 0.552468 20.6936
-1.07167 1.06998 20.2152
-0.456755 0.120217 21.1896
-0.960552 0.74057 21.1097
0.0363104 -0.298093 21.0496
-0.205042 -0.0828934 21.3069
0.182622 -0.426845 20.7122
0.099318 -0.465053 20.8936
0.10066 -0.339721 20.7438
0.152952 -0.464291 20.6504
0.122771 -0.366623 20.1229
-0.97771 -1.09761 18.9375
-0.483248 -0.36678 19.2692
0.00442106 -0.50668 19.1267
-1.04314 -1.10547 21.905
0.000775301 -5.04121 19.5451
-0.0420378 0.211755 19.9885
0.0336471 -0.494385 19.6953
0.193056 0.84569 18.0417
-0.00992347 0.0272697 17.1437
0.46947 1.34394 17.106
-0.00932449 0.574575 13.3647
0.846903 1.18824 17.155
0.91692 1.40886 13.1418
-0.0372602 0.767863 12.6541
1.15532 0.882682 15.3128
0.0546498 1.19256 12.321
-0.655613 -0.13685 18.9474
0.012534 -0.413535 18.7462
1.60603 1.13318 12.8718
1.88546 0.265708 7.48583
0.0579723 -0.29247 0.805152
2.11544 0.175797 12.2546
0.0513559 0.185236 3.31351
-0.685535 0.597615 19.0134
0.00499912 0.181404 18.2021
1.05612 -0.562793 13.9333
0.212812 -0.766648 20.0731
0.110265 -0.298462 2.74153
0.109859 -0.436702 20.2836
0.307467 -1.09854 7.89772
-0.828543 1.31736 19.5785
-0.00712174 0.993761 19.1796
-1.09142 1.55689 20.6332
-0.0291437 2.30083 19.9316
-0.605292 0.602197 21.6014
-0.0546968 2.30929 21.2694
-0.0340623 -0.339536 21.1588
-0.0245762 0.110009 21.5794
0.0816636 -0.520639 20.7417
-0.00383961 -0.459734 21.05
-0.0255761 -0.484212 20.6632
0.0214452 -0.56712 20.7282
-0.0244925 -0.275633 20.5436
0.979858 -1.08739 18.9494
0.49226 -0.36652 19.2891
0.475959 -0.26844 19.6319
1.01001 -1.10529 21.8807
1.76355 -1.36019 20.0233
0.0405617 0.201386 19.8068
0.204848 -0.482654 21.4847
-0.172318 0.816929 17.6914
-0.339461 0.398341 21.143
-0.354292 1.28104 16.5608
-0.843097 1.15497 19.9862
-0.651695 1.25599 16.4773
-0.634712 1.29215 11.764
-0.96152 1.13167 19.3331
-1.08237 1.06601 14.7442
-0.598142 0.703467 18.9971
0.668023 -0.145649 18.9682
0.603906 -0.229597 19.4904
-1.35861 1.08256 10.9789
-1.76012 0.204352 5.09174
-1.67111 1.16758 15.4806
-2.14588 0.328613 10.3226
-1.5089 0.461056 16.4986
0.688488 0.590032 19.0058
0.796778 0.0691724 19.3273
-0.890919 -0.378091 11.3642
-0.209076 -0.757553 19.5271
-1.15981 -0.72697 14.9303
-0.142685 -0.466315 18.5844
-0.746092 -0.458809 16.7751
0.829932 1.34787 19.5542
0.582712 0.551103 19.6462
1.06512 1.6325 20.6216
1.0932 1.12396 20.2
0.583079 0.698449 21.6684
0.988538 0.811997 21.1236
0.0411923 -0.339938 21.1962
0.219327 -0.0616663 21.3463
-0.0533197 -0.527115 20.7863
-0.0794428 -0.46559 20.9155
0.0146083 -0.514315 20.702
-0.137198 -0.489225 20.5614
-0.0485647 -0.306897 20.5498
0.788399 -0.372207 19.8568
0.512984 -0.169711 19.774
0.959718 -0.643788 20.9203
1.35009 -0.539885 20.1874
0.0434386 -0.182221 21.2583
0.520556 -0.463094 21.2474
-0.592754 0.276068 21.1908
-0.333535 -0.0043695 21.3353
-0.95262 0.494263 20.6385
-1.086 0.434753 20.6777
-0.928089 0.4272 20.6531
-1.21621 0.397269 20.0021
-0.817637 0.146155 20.7944
1.03609 -0.257704 19.752
0.629013 -0.0739693 19.6955
1.24879 -0.574835 20.991
1.6661 -0.20297 20.1761
0.0656027 -0.320572 21.4067
0.80552 -0.456777 21.3239
-0.866105 0.107467 21.0949
-0.409469 -0.368275 21.5098
-1.36285 0.297453 19.99
-1.50833 -0.205205 19.4195
-1.17778 0.143066 19.6319
-1.49084 -0.325495 19.3326
-0.9796 -0.249775 21.1644
1.18138 0.105849 19.7517
0.677716 0.245229 19.7248
1.48806 -0.0436618 20.9576
1.37482 0.542883 20.2606
0.485106 -0.469551 21.5362
1.07739 0.170258 21.149
-0.693264 -0.760302 20.6845
0.192737 -0.308393 21.4024
-1.05448 -0.820602 19.5902
-0.279977 -0.679879 20.9717
-0.724075 -0.542822 20.2314
-0.413801 -0.679985 20.5578
-0.246606 -0.535363 20.2273
0.787405 0.545706 19.9718
0.950336 0.584393 20.6989
0.492755 0.15221 21.2233
-0.0213257 -0.309192 21.0727
-0.173549 -0.453281 20.7445
-0.165604 -0.383418 20.753
-0.947154 -0.353803 19.7891
-1.22374 -1.10635 18.5644
-0.973595 -0.640604 19.4939
-1.35361 -0.55129 19.1624
-0.545315 -0.264166 19.5513
-2.26453 -1.41448 19.9315
-1.11976 -0.621534 20.9679
0.0574112 -0.260954 17.1194
-1.01756 -1.10865 21.3403
-1.65061 -1.41517 21.6414
-0.159316 -0.661222 21.2859
-0.0417165 -0.226235 21.331
0.192749 0.253681 13.7887
0.115979 -0.00845807 21.3097
0.280961 0.0418345 17.2612
0.46466 0.49143 19.6003
0.760232 0.2384 21.0912
0.158308 0.698726 11.4594
0.611865 0.79612 20.7051
0.915195 1.0081 14.4398
1.14292 1.32588 17.815
1.14791 0.441164 20.493
0.481494 1.32463 11.9289
1.00285 1.08029 19.6337
1.6305 1.06493 15.7152
1.36163 1.04299 18.3238
0.972666 0.181601 20.453
1.21255 1.20906 15.2153
1.10548 0.89019 19.4574
1.46387 0.682054 17.285
0.937459 0.44669 18.8523
-1.14617 -0.108982 19.7176
-1.97604 -0.388227 17.5229
-1.83093 0.289625 19.02
-0.715756 -0.0927912 19.3524
-3.52962 -0.372687 19.8554
-1.46692 -0.347615 21.0168
-2.47342 -0.0635536 21.3749
-0.704586 -0.82661 19.7527
-0.183694 -0.466314 21.566
-0.58941 -0.896199 17.1523
0.8069 0.37088 14.0951
1.08651 -0.272087 20.3627
1.27669 0.288914 9.62668
1.51058 0.357651 8.40841
1.50717 -0.278443 19.5024
1.08347 0.0749464 3.29036
1.25281 -0.602286 14.0576
1.96301 0.0627522 15.0406
1.12993 -0.183659 19.4814
1.88552 0.392721 11.0198
1.05847 -0.73511 17.378
1.2338 -0.222387 18.6086
-1.05912 0.426976 19.8551
-1.47652 1.68666 18.7046
-0.881175 0.892282 19.8113
-0.747184 0.409675 19.4319
-1.92151 1.22754 20.1094
-1.29466 0.396506 20.7949
-2.14057 1.96658 20.7425
-1.08605 0.962441 20.6948
-1.75624 0.561454 21.3113
-0.648973 -0.0656135 21.3908
-1.42048 0.762829 22.1411
-0.583605 0.31105 21.3827
-0.352765 -0.307709 21.6386
0.14618 -0.51576 21.2069
0.00899559 -0.643576 19.9839
0.0101152 -0.334236 21.1159
0.13098 -0.801231 21.0198
0.348602 -0.641914 20.769
0.0818739 -0.831829 20.1417
0.143142 -0.481363 20.7597
0.284515 -0.752256 20.7212
0.342704 -0.52871 20.529
0.0892388 -0.707916 19.4439
0.132627 -0.429989 20.6515
0.195087 -0.518573 20.4274
1.23487 -1.10425 18.5907
-0.00035143 -1.61241 18.3109
-0.000277423 -1.62196 16.882
0.00724738 -0.5011 18.9649
-0.0156565 -7.6608 19.4373
-0.0963165 -0.276877 16.6381
0.0887987 -1.77102 22.2417
-0.0416578 -0.0147517 10.5922
-0.193303 0.243293 13.5144
-4.106e-05 -0.215576 17.9837
-0.0308298 0.072549 9.62175
-0.157391 0.668106 11.153
-0.010935 0.383028 14.9171
-0.00903652 0.396457 5.91313
-0.323714 1.20657 10.8976
-0.0161827 0.638154 13.151
-0.0274265 -0.203452 0.347271
-0.0264332 0.290797 5.97136
-0.972751 1.1435 13.4279
0.0155159 0.765936 12.2966
-0.00318377 0.223294 3.27886
0.0537765 0.691721 7.87128
1.97158 -0.447489 17.5729
-0.00907303 1.60535 14.9531
0.00705422 -0.214816 18.4218
-0.894733 0.0802964 2.341
-0.0118436 0.0550022 0.128133
0.271484 -0.469675 -1.72032
-1.71413 0.572524 8.56385
0.193884 -0.411054 5.25328
0.243863 -0.371848 1.07099
1.51037 1.7315 18.6325
-0.0161042 1.83926 19.305
-0.00135832 0.835536 18.5451
-0.0346205 4.18011 19.5822
2.155 2.04483 20.7504
-0.0595106 2.30374 20.4622
-0.0564458 4.84041 20.4932
1.44396 0.845102 22.0129
-0.0495572 1.08121 21.9058
-0.0210116 -0.015762 19.3573
-0.0349755 -0.61197 19.2595
-0.0111483 -0.299561 21.2233
-0.00851526 -0.591685 17.3029
-0.0609922 -0.808201 19.7897
-0.00367625 -0.515216 20.8585
0.0164871 -0.584668 17.6737
-0.121238 -0.650951 18.3432
-0.00720922 -0.523124 20.7126
-0.00485064 -0.469704 17.2184
0.929366 -0.353197 19.8097
0.968214 -0.627401 19.5128
1.34194 -0.54251 19.1998
0.538709 -0.259033 19.569
2.25354 -1.41496 19.9387
1.10788 -0.619127 20.9606
0.993508 -1.10075 21.3389
1.64478 -1.43721 21.6441
0.138413 -0.66375 21.2715
0.0451817 -0.234584 21.3196
-0.130658 0.000768577 21.3002
-0.269048 0.00796894 17.5295
-0.472078 0.488857 19.6571
-0.747019 0.218403 21.1211
-0.607097 0.825818 20.6243
-0.934939 0.98787 14.8375
-1.13728 1.34698 17.7481
-1.17914 0.464338 20.448
-0.971084 1.17233 19.4506
-1.61189 1.16687 15.0861
-1.33099 1.21011 17.3667
-1.04483 0.295977 20.3429
-1.04137 0.972315 18.9079
-1.55303 0.848347 15.7291
-1.24639 0.600143 16.6805
1.13159 -0.117768 19.7267
1.83058 0.248494 19.0143
0.709839 -0.0982345 19.37
3.53156 -0.443335 19.8667
1.44252 -0.362872 21.0043
2.46392 -0.1025 21.3746
0.719359 -0.813545 20.0265
0.19529 -0.458918 21.5332
0.614883 -0.950482 17.6611
-0.810691 0.309728 14.7598
-1.04231 -0.279087 20.5197
-1.26499 0.30792 9.89478
-1.52978 0.384634 8.7178
-1.53258 -0.262847 19.313
-1.23357 -0.549684 12.9366
-1.99354 0.214246 13.0363
-1.21113 -0.137029 19.1263
-1.07454 -0.743646 16.1424
-1.58261 -0.0501037 16.1002
1.07569 0.420433 19.8419
0.893047 0.918301 19.7895
0.750953 0.398141 19.4251
2.00076 1.2741 20.0892
1.33203 0.399324 20.8045
1.12711 1.03296 20.6949
1.81949 0.595063 21.3241
0.689338 -0.0609798 21.4191
0.600969 0.374066 21.4247
0.374444 -0.295944 21.6657
-0.14131 -0.536826 21.2324
0.0160962 -0.332989 21.1227
-0.0985633 -0.816299 20.9721
-0.327826 -0.686258 20.7792
-0.118506 -0.49925 20.7435
-0.198038 -0.785472 20.7981
-0.334391 -0.569161 20.6864
-0.0313812 -0.454337 20.6717
-0.129368 -0.467259 20.8052
-1.15806 -0.622867 19.3597
-1.19704 -1.30038 21.5095
0.246971 -0.00293057 20.1222
0.787884 0.979435 18.3683
1.31196 1.24956 17.9988
1.33934 0.868045 18.2055
-1.70963 -0.214528 18.9842
-2.27538 -0.759294 21.5972
0.35888 -0.339313 16.344
1.05745 0.648473 10.8833
1.91651 0.213503 12.7994
1.60423 -0.144539 16.1994
-1.38938 0.86397 19.4418
-1.86706 0.884021 20.8504
-1.1011 0.114365 21.7983
0.0252452 -0.65216 21.2112
0.204733 -0.803088 20.7825
0.201077 -0.674585 20.6765
0.00179018 -1.77555 17.667
0.00443154 -0.550036 14.0103
-0.0447781 -0.0230013 9.72741
-0.00835007 0.308248 7.32944
-0.0503348 0.245079 5.9305
0.00914705 0.536474 7.57717
-0.00459041 -0.581044 15.592
0.0146361 -0.111113 -2.77932
0.15457 -0.309497 -0.329381
-0.0156592 2.70538 17.9264
-0.0339085 3.44603 20.2334
-0.0539742 1.73959 21.7938
0.00563009 -0.466677 16.6032
-0.00216457 -0.674027 18.1458
0.00508195 -0.583598 16.7437
1.14596 -0.611273 19.3792
1.16355 -1.30239 21.5078
-0.254543 -0.0127739 20.1735
-0.78955 0.985745 18.3705
-1.27541 1.3364 17.4604
-1.39922 1.01123 16.9089
1.6936 -0.252343 19.0236
2.24866 -0.781992 21.6003
-0.317356 -0.375215 16.8628
-1.07948 0.624216 11.3669
-1.8654 0.291739 11.538
-1.69691 0.038379 14.4858
1.41961 0.871111 19.408
1.91841 0.928787 20.861
1.16093 0.170085 21.8539
0.0123984 -0.651457 21.2967
-0.150544 -0.840686 20.7807
-0.0877248 -0.728221 20.6397
-3.98254 -0.853658 3.66478
-0.276826 -8.49989 10.4044
0.0274066 -0.0103451 0.409684
0.110217 -0.0391468 0.261315
-0.0436492 0.0029783 0.0414297
-0.0142593 0.050233 0.404446
-0.587882 0.00148703 1.10061
-0.00543891 0.0325917 0.0806099
-0.234956 0.160544 1.1073
-0.010841 0.00114141 -0.00478892
-0.231637 0.24828 0.0564239
-0.000429469 -0.000741204 0.00301968
0.704642 -8.50646 7.66937
3.30144 -0.681593 2.75243
-0.0277219 -0.011084 0.356054
0.0421458 0.00447873 0.0448376
-0.109053 -0.0404756 0.25903
0.0153997 0.0514055 0.414937
0.0140598 0.0793517 0.199306
2.02183e-16 1.68386e-17 2.59671e-16
0.761568 0.491995 2.62964
0.231601 0.251205 0.0503473
0.0110617 0.0011729 -0.00498007
0.000924303 -0.00169962 0.00633973
0.0227521 -0.00149476 0.163466
0 0 0
0.000455415 0.000734757 0.015024
0.00233998 0.000516821 0.0241056
-0.00188028 0.0236219 0.246279
0 0 0
0 0 0
0 0 0
-0.0936383 0.00471761 0.293168
0.000173478 -0.00059202 0.00618881
5.41558e-06 7.96501e-06 0.000110119
-0.0360962 0.0210964 0.0660171
0 0 0
0.00903054 0.0195087 0.080327
0 0 0
0.00383448 -0.00752251 0.0193849
-0.0220177 -0.00151003 0.158141
-1.16351e-18 3.81007e-19 1.25175e-17
0 0 0
-0.000650377 0.00065215 0.0160381
0.0010221 0.0230432 0.242798
0 0 0
0 0 0
0 0 0
0.159868 0.00803678 0.494886
0.0348742 0.0113356 0.0483996
-0.000122387 -0.000554101 0.00494117
0 0 0
0 0 0
-0.00375798 -0.00637883 0.0175885
-0.00343243 0.00781577 0.0323386
0 0 0
-0.160897 -0.0735964 0.803946
-0.105445 -0.164488 0.145071
-0.000162495 -0.000906436 0.0216131
0 0 0
-0.000432611 -0.000920484 0.00709808
0 0 0
0 0 0
0 0 0
0 0 0
0.000324817 -0.0458798 -0.0181138
0.000355268 0.000611846 0.00380689
0.00476271 0.00410975 0.0795398
0.0214656 3.04687 3.1123
-5.34824e-07 0.000310376 0.0017131
0 0 0
-0.000357801 0.000274409 0.0018286
-0.000120216 0.084465 -0.0755401
-6.67413e-07 4.76393e-07 -6.30056e-05
0 0 0
0.0010691 -0.000802836 -0.0168645
0.162704 -0.311255 0.249781
0.0339292 -0.018292 0.172661
0 0 0
0.000354698 -0.000756734 0.00584594
0 0 0
0 0 0
-0.00453094 0.00422628 0.082365
-0.000317091 0.000545696 0.00340645
0.00157336 0.001223 0.0081518
0 0 0
-0.0011512 -0.00086045 -0.0174483
0 0 0
0 0 0
0 0 0
0 0 0
0 0 0
8.57586e-07 -1.23316e-07 -5.47459e-05
-6.88382e-08 1.10403e-08 5.90459e-06
0 0 0
0 0 0
1.09816e-08 -1.56369e-09 -1.67098e-06
0 0 0
0.00699437 0.0143801 0.0664036
0.00308008 0.00221559 0.0881899
0.000134522 0.000478261 0.00286073
-0.000964754 0.256964 1.12502
1.90243e-05 -0.00619739 0.0723297
2.30269e-05 0.00114749 -0.00239989
0 0 0
0 0 0
0 0 0
0 0 0
0 0 0
0 0 0
-0.00642188 0.00421555 0.160302
-0.00233073 0.00518184 0.0243068
-0.152934 -0.0957615 0.492578
-0.11161 -0.0471165 0.50661
-0.0721346 -0.0134344 0.276208
0 0 0
1.30875e-18 4.80629e-18 6.90935e-17
0.000329643 0.000642653 0.0065865
0 0 0
0.0244662 0.0644121 0.223263
0 0 0
0 0 0
0.0176546 0.0105053 0.0764539
0.000401793 -8.15686e-06 0.00127549
0.00270216 -0.00120482 0.013751
-0.0012954 -0.000921572 0.0151042
0 0 0
0 0 0
8.58494e-19 6.60338e-21 1.74018e-17
0 0 0
0 0 0
0 0 0
0.00216346 0.00520362 0.0710019
-0.00225805 0.00549965 0.075664
0 0 0
0 0 0
0.432766 -0.577916 1.17128
0 0 0
-0.0985968 0.431925 0.406075
0.303472 1.09947 0.584021
-0.128662 -0.0374538 0.000410944
0.128849 -0.0383843 0.000827926
-0.00538918 0.00149594 -0.00312356
0.00535071 0.00150063 -0.00313208