# vtk DataFile Version 2.0
tri_press
ASCII
DATASET UNSTRUCTURED_GRID
POINTS 3682 float
-0.722399 0.175 -1.935
-0.575 0.275 1.96899
-0.752748 0.585 -1.785
-0.415 0.815 1.99401
0.722404 0.175 -1.935
0.575 0.275 1.96899
0.745 0.555 -1.78899
0.415 0.815 1.99401
-0.708601 0.172999 -0.63367
-0.686501 0.179299 0.66766
-0.717995 0.739496 -0.52533
-0.602185 0.812935 0.73434
0.706027 0.175575 -0.63367
0.686576 0.179226 0.66766
0.730749 0.737415 -0.52799
0.605822 0.809156 0.73301
-1.41237 -0.151608 -3.00988
-1.41737 -0.0946858 -1.98514
-1.38354 -0.0934381 -0.682861
-1.30826 -0.0960154 0.627568
-1.20871 -0.0335736 1.93053
-1.19232 0.0169098 2.95861
-1.21141 0.0599917 3.98045
-1.4228 0.0942503 -2.95043
-1.43072 0.16983 -1.93009
-1.38846 0.190024 -0.635874
-1.2867 0.193385 0.661894
-1.14685 0.25307 1.95688
-1.15398 0.302383 2.9844
-1.19272 0.345136 4.0076
-1.43578 0.55827 -2.81952
-1.45047 0.635064 -1.79689
-1.38969 0.749603 -0.530973
-1.22465 0.802817 0.731744
-1.0417 0.820547 1.99836
-1.09885 0.866919 3.02753
-1.17285 0.91402 4.05734
-1.41037 1.35152 -2.65491
-1.40779 1.43835 -1.63889
-1.37039 1.56774 -0.385892
-1.2961 1.66347 0.857955
-1.2264 1.71199 2.11114
-1.21325 1.74446 3.12758
-1.23172 1.78229 4.15275
-0.705929 -0.150533 -3.01314
-0.716063 -0.0890696 -1.98948
-0.703228 -0.101237 -0.682715
-0.679326 -0.106062 0.632535
-0.620519 -0.0241706 1.93947
-0.614092 0.0232657 2.96462
-0.62955 0.0623733 3.98384
-0.710276 0.0875634 -2.9521
-0.597402 0.309538 2.98935
-0.62263 0.347469 4.01012
-0.721903 0.530423 -2.81549
-0.554031 0.866551 3.02653
-0.61337 0.91392 4.05697
-0.713157 1.33283 -2.65078
-0.717418 1.42148 -1.6342
-0.705714 1.56264 -0.383272
-0.675716 1.66586 0.85704
-0.642541 1.7129 2.10793
-0.637365 1.74383 3.12443
-0.651999 1.78142 4.15039
0.723887 -0.154041 -3.01397
0.713299 -0.0892032 -1.98974
0.697576 -0.0997273 -0.682874
0.663274 -0.105984 0.632426
0.583634 -0.0242914 1.9394
0.545722 0.0229961 2.96447
0.532634 0.0618896 3.98358
0.731854 0.0813664 -2.95321
0.513647 0.309326 2.98923
0.51221 0.346997 4.00988
0.736054 0.515319 -2.81786
0.458512 0.866189 3.02637
0.48592 0.913304 4.05668
0.699182 1.32378 -2.65279
0.687253 1.41308 -1.63628
0.647158 1.55798 -0.385014
0.573517 1.66327 0.855854
0.510565 1.71123 2.10719
0.496124 1.74254 3.12385
0.496443 1.78024 4.14985
1.43358 -0.158851 -3.01178
1.42458 -0.0972822 -1.98641
1.39043 -0.0926737 -0.683766
1.31689 -0.0963629 0.627014
1.2042 -0.0341157 1.9302
1.14915 0.0161562 2.95819
1.13178 0.0588883 3.97986
1.44436 0.0829304 -2.95284
1.4392 0.1642 -1.93185
1.39943 0.190611 -0.637134
1.30818 0.192514 0.661243
1.16521 0.252611 1.95664
1.10878 0.301685 2.98404
1.10399 0.344033 4.00704
1.45046 0.53616 -2.82355
1.45474 0.611057 -1.80151
1.40521 0.744306 -0.534397
1.24253 0.798972 0.729948
1.05248 0.819276 1.99783
1.03995 0.865826 3.02702
1.06671 0.91262 4.05667
1.40033 1.33546 -2.65868
1.38383 1.42378 -1.64272
1.32369 1.5591 -0.389129
1.21575 1.65845 0.855674
1.11842 1.70863 2.10963
1.0887 1.74179 3.12638
1.08753 1.77985 4.15163
-0.744628 0.38 -1.86705
2.5034e-06 0.17252 -1.93748
-0.723499 0.166 -1.28434
-0.489575 0.545 1.97607
0 0.28167 1.96232
-0.632987 0.224912 1.31833
-0.003874 0.582005 -1.799
-0.782865 0.709742 -1.15517
0 0.787774 1.96678
-0.467964 0.773339 1.36418
0.743116 0.365 -1.87141
0.723503 0.166001 -1.28434
0.489534 0.545 1.97603
0.632989 0.224911 1.31833
0.80118 0.709514 -1.15849
0.469381 0.771047 1.36351
-0.694029 0.179671 0.016995
-0.870842 0.456248 -0.5795
-0.00128664 0.171199 -0.63367
-0.812288 0.496117 0.701
3.7497e-05 0.172723 0.66766
-0.692679 0.808805 0.104505
0.00637673 0.887621 -0.52666
0.00181887 0.998922 0.733675
0.693965 0.179737 0.016995
0.870825 0.456495 -0.58083
0.812355 0.494191 0.700335
0.698021 0.803021 0.10251
-0.851627 0.418124 -1.21975
0.85306 0.410748 -1.22141
-0.00064207 0.162354 -1.28434
0.00125136 0.714019 -1.15683
-0.00193575 0.3725 -2.02441
-0.84085 0.476182 0.06075
0.840985 0.475343 0.0597525
-0.000624574 0.172517 0.016995
0.0040978 1.05723 0.103507
-0.745769 0.520559 1.34125
0.74585 0.519595 1.34092
1.87485e-05 0.214859 1.31833
0.000909437 0.776358 1.36384
0 0.545 1.98337
-0.706218 0.2775 -1.87373
-0.361198 0.172772 -1.93723
-0.728044 0.165405 -1.60967
-0.567944 0.41 2.00819
-0.2875 0.281624 1.96237
-0.616354 0.237595 1.64366
-0.739913 0.4825 -1.81725
-0.378311 0.584468 -1.79297
-0.787383 0.666948 -1.47008
-0.392675 0.68 1.92543
-0.2075 0.809685 1.98869
-0.398983 0.75167 1.67909
0.361203 0.172764 -1.93724
0.703215 0.27 -1.87366
0.728064 0.16539 -1.60967
0.2875 0.281715 1.96227
0.567944 0.41 2.00819
0.616365 0.237586 1.64366
0.370563 0.579534 -1.80503
0.737525 0.46 -1.82367
0.799552 0.658718 -1.47374
0.2075 0.809685 1.9887
0.392871 0.68 1.92563
0.399397 0.75023 1.67876
-0.718237 0.167312 -0.959003
-0.698985 0.178665 -0.308338
-0.865398 0.276785 -0.606585
-0.355203 0.17158 -0.63367
-0.652949 0.208901 0.992993
-0.689087 0.180663 0.342328
-0.813549 0.305631 0.68433
-0.341959 0.178557 0.66766
-0.756745 0.730934 -0.840248
-0.855616 0.628471 -0.552415
-0.718564 0.787378 -0.210413
-0.37309 0.848121 -0.525995
-0.537185 0.795248 1.04926
-0.794625 0.698221 0.71767
-0.650885 0.814323 0.419423
-0.334449 0.974461 0.734008
0.718241 0.167312 -0.959003
0.351393 0.175342 -0.63367
0.698885 0.178767 -0.308338
0.865579 0.277459 -0.60725
0.652782 0.209069 0.992993
0.342221 0.178146 0.66766
0.68906 0.180692 0.342328
0.813421 0.30473 0.683998
0.773132 0.730632 -0.84324
0.383622 0.842636 -0.527325
0.85602 0.624572 -0.55441
0.725172 0.781006 -0.21274
0.539704 0.792204 1.04826
0.338899 0.974195 0.733343
0.795136 0.694697 0.716673
0.655317 0.809484 0.41776
-0.829231 0.399062 -1.5434
-0.373282 0.37625 -1.99257
-0.000319784 0.164129 -1.61091
-0.000966623 0.27251 -1.89652
-0.847371 0.292062 -1.25204
-0.362071 0.163595 -1.28434
-0.685499 0.532779 1.65866
-0.244787 0.545 1.98214
9.37424e-06 0.244926 1.64032
0 0.413335 2.03132
-0.744563 0.372736 1.32979
-0.316484 0.214859 1.31833
-0.00131132 0.664067 -1.47791
-0.00290488 0.477253 -1.99166
-0.860949 0.563933 -1.18746
-0.390807 0.713477 -1.156
0.000454718 0.772847 1.66531
0 0.666387 1.96482
-0.753638 0.646949 1.35271
-0.233527 0.776469 1.36401
0.826467 0.387874 -1.54641
0.37059 0.36875 -1.99087
0.847193 0.288374 -1.25287
0.36143 0.163595 -1.28434
0.685532 0.532298 1.65848
0.244767 0.545 1.98215
0.744555 0.372253 1.32962
0.316504 0.214859 1.31833
0.859866 0.560131 -1.18995
0.401216 0.713155 -1.15766
0.753936 0.645321 1.35221
0.235145 0.776045 1.36368
-0.839317 0.291988 0.0388725
-0.346909 0.176929 0.016995
-0.879693 0.437186 -0.899625
-0.855865 0.466215 -0.259375
-0.000964357 0.162593 -0.959003
-0.000955609 0.172414 -0.308338
-0.826404 0.48615 0.380875
-0.767029 0.508338 1.02113
-0.000293538 0.17262 0.342328
2.81227e-05 0.192176 0.992993
-0.822909 0.670566 0.0826275
-0.393139 1.03071 0.104006
0.00381404 0.763121 -0.841744
0.00523726 1.04576 -0.211576
0.00295834 1.05398 0.418591
0.00136416 0.843934 1.04876
0.839289 0.291633 0.0383738
0.346428 0.176611 0.016995
0.881362 0.433621 -0.901121
0.847499 0.465919 -0.260539
0.82661 0.484767 0.380044
0.772127 0.506893 1.02063
0.823365 0.666113 0.0811312
0.400845 1.0297 0.103009
-0.820561 0.284781 -1.57653
-0.885309 0.303343 -0.929314
-0.870394 0.580902 -0.869936
-0.832337 0.523216 -1.50674
0.820138 0.279187 -1.57804
0.832676 0.510065 -1.51008
0.870436 0.578543 -0.872181
0.88591 0.302205 -0.930062
-0.361634 0.16417 -1.61029
0.361317 0.164169 -1.61029
0.3569 0.164588 -0.959003
-0.358507 0.164589 -0.959003
-0.384559 0.664542 -1.474
-0.373308 0.761258 -0.840996
0.384889 0.760898 -0.842492
0.385889 0.66426 -1.47583
-0.36724 0.275005 -1.92581
-0.375796 0.479876 -1.95665
0.370577 0.468626 -1.96142
0.365897 0.271255 -1.88386
-0.852429 0.284351 -0.283856
-0.826098 0.298977 0.361601
-0.809188 0.684604 0.400149
-0.839109 0.649441 -0.234894
0.852486 0.28452 -0.284438
0.833613 0.642302 -0.236639
0.809568 0.680564 0.398902
0.826021 0.298349 0.361186
-0.350135 0.176096 -0.308338
0.348989 0.175821 -0.308338
0.344321 0.177385 0.342328
-0.34443 0.177751 0.342328
-0.421576 1.01634 -0.210994
-0.377447 1.02989 0.419007
0.383512 1.02923 0.418176
0.431532 1.01476 -0.212158
-0.764002 0.355222 1.00706
-0.708924 0.391368 1.65116
-0.673774 0.663474 1.66888
-0.784282 0.650738 1.03519
0.763991 0.354481 1.00681
0.784544 0.648497 1.03444
0.673791 0.662661 1.66862
0.708951 0.391127 1.65107
-0.329858 0.192174 0.992993
0.329905 0.192179 0.992993
0.302002 0.245019 1.64199
-0.301992 0.245019 1.64199
-0.266855 0.826175 1.04901
-0.220514 0.771285 1.6722
0.221322 0.77132 1.67204
0.269483 0.826264 1.04851
-0.266144 0.411667 2.03132
0.266134 0.411667 2.03132
0.226134 0.673193 1.94761
-0.226144 0.673193 1.94761
-0.688874 0.22625 -1.87893
-0.541799 0.17313 -1.93687
-0.725621 0.169803 -1.77233
-0.566397 0.3425 1.98351
-0.43125 0.281601 1.96239
-0.602348 0.249627 1.80632
-0.746361 0.53375 -1.80116
-0.56553 0.585133 -1.78938
-0.781673 0.637581 -1.62754
-0.306105 0.7475 1.86199
-0.31125 0.809666 1.98868
-0.418886 0.79523 1.83655
0.541804 0.173122 -1.93688
0.687867 0.2225 -1.87939
0.725627 0.169802 -1.77233
0.43125 0.281738 1.96225
0.566338 0.3425 1.98346
0.602348 0.249627 1.80632
0.557782 0.574848 -1.80459
0.743148 0.5075 -1.80821
0.77463 0.609213 -1.63137
0.31125 0.809667 1.98868
0.306103 0.7475 1.86199
0.418901 0.794317 1.83638
-0.712232 0.171342 -0.796336
-0.700553 0.179071 -0.471004
-0.852214 0.192284 -0.620128
-0.531992 0.172109 -0.63367
-0.656753 0.207072 0.830326
-0.687503 0.180272 0.504994
-0.799705 0.217625 0.675995
-0.513566 0.180255 0.66766
-0.735085 0.73293 -0.682789
-0.847774 0.714468 -0.538873
-0.730584 0.775742 -0.367871
-0.544691 0.792105 -0.525663
-0.571338 0.805745 0.891799
-0.687019 0.749885 0.726005
-0.628987 0.816081 0.576881
-0.493347 0.943758 0.734174
0.712237 0.171341 -0.796336
0.527866 0.177148 -0.63367
0.700462 0.179165 -0.471004
0.852582 0.193128 -0.62046
0.656746 0.20708 0.830326
0.513715 0.180052 0.66766
0.687455 0.180321 0.504994
0.799593 0.217181 0.675829
0.750114 0.732197 -0.685615
[...]
POINT_DATA 3682
SCALARS point_scalars float 1
LOOKUP_TABLE default
40.9831
-28.5756
-37.7902
-22.5718
39.2608
-28.6001
-14.6477
-22.5642
-36.5704
-35.5209
-33.8388
-44.6497
-35.7976
-35.5478
-34.5763
-44.6699
40.9831
-91.0337
-60.3796
-34.4918
-31.5417
-25.9607
-23.4033
40.9831
-91.0337
-43.6829
-34.768
-29.2908
-25.9607
-23.4033
20.124
-45.874
-46.5744
-41.814
-26.3918
-23.6096
-23.6096
-43.2885
-40.9854
-53.7184
-41.7221
-28.3724
-22.5618
-22.5618
40.9831
-103.933
-37.5491
-34.517
-28.3897
-23.4033
-22.5277
40.9831
-23.4033
-22.5277
185.543
-22.4868
-22.4868
81.5283
-40.7686
-75.3855
-52.739
-22.5618
-22.5618
-22.5618
39.2608
-105.06
-37.6518
-34.4995
-28.5066
-23.1784
-22.5542
39.2608
-22.5542
-22.5542
157.603
-22.2981
-22.3319
35.7664
-38.8393
-98.6345
-53.0176
-22.5534
-22.5534
-22.5534
39.2608
-54.7128
-60.1086
-34.5118
-31.5764
-26.061
-23.4217
39.2608
-54.7128
-43.6038
-34.7806
-29.3788
-25.9675
-23.4217
21.8045
-46.3838
-46.1537
-42.338
-26.343
-22.7338
-23.6094
-31.621
-38.4764
-67.6699
-49.3393
-23.4344
-22.5534
-22.5534
-25.2725
-136.794
-50.1028
-22.6014
-24.2191
-28.7084
-23.5203
-39.1304
-21.5347
-33.0081
-13.642
-49.7947
-22.5928
-28.7536
-41.9747
-33.0235
-30.9119
-42.3798
-37.2057
-35.9205
-33.7724
-57.0151
10.0514
-48.4131
-30.8314
-42.6306
-35.9422
-56.5913
-45.7791
-45.6713
-59.9293
-16.9321
209.335
-38.9647
-39.0348
-31.7315
-81.4997
-31.9469
-31.9437
-30.1785
-33.0992
-18.2029
1.65238
-54.8495
-70.0646
-24.4454
-24.8247
-30.7315
-33.5179
-26.3534
-39.6921
-22.8404
-21.9742
-26.9011
68.3096
12.4876
-69.2186
-24.9395
-24.4468
-30.6172
-26.1655
-31.0859
-34.2886
-21.978
-22.8303
-26.9726
-40.0911
-32.0136
-40.2961
-37.2239
-31.9919
-31.1584
-35.4076
-33.6321
-32.0492
-44.2595
-63.1121
0.79455
-38.0493
-39.3404
-50.2073
-48.829
-39.9174
-36.5709
-31.8359
-40.2591
-32.0622
-33.6736
-31.2155
-35.4405
-34.0545
-1.09122
-44.3199
-62.0389
-38.1058
-48.8062
-39.0101
-50.1242
-65.2784
192.864
-85.681
147.042
-46.3799
-60.0081
-31.2727
-19.8502
-27.9149
-18.3616
-31.1229
-29.8026
-33.4663
118.739
-46.5543
-22.2125
-26.9881
-20.5544
-34.2955
-32.9719
-66.3165
189.275
-46.7154
-58.5506
-31.1037
-19.8598
-31.1367
-29.861
-47.0273
-22.7042
-34.2882
-32.9815
-34.8405
-31.5901
-43.8114
-40.1178
-45.8861
-32.9857
-36.6288
-34.4687
-32.0898
-32.9884
-45.2041
-74.8069
0.216664
-102.233
-66.3982
-37.2637
-34.7612
-31.452
-43.6434
-38.0766
-36.6584
-34.5833
-45.201
-74.5998
-58.5019
-38.0831
-43.6909
-58.2724
-59.211
-60.3298
-44.19
-38.0843
-92.2274
-87.6245
-44.6072
-45.2101
-35.7474
-11.3356
-12.4275
-35.6863
80.9406
120.756
134.524
96.1308
-36.201
-34.382
-40.3219
-45.1465
-35.915
-43.6092
-40.3159
-34.3881
-32.7903
-32.5639
-31.9133
-31.982
-91.1693
-62.1391
-62.0766
-93.6724
-33.8408
-32.1333
-30.3197
-32.8206
-33.8105
-32.8256
-30.2593
-32.1161
-32.487
-32.5675
-28.1337
-28.2513
-37.361
-26.7865
-26.8017
-37.3607
-20.266
-20.278
-21.5009
-21.5087
46.3762
53.696
-101.983
-26.9793
-26.4677
-29.4679
-24.9365
-20.0504
-31.9747
-22.4773
-22.5273
-23.4046
38.0545
57.6985
-104.742
-26.6074
-27.004
-29.5535
-11.4225
-30.3837
-28.7736
-22.5191
-22.4776
-24.0641
-39.9515
-33.08
-37.9703
-36.7923
-35.5027
-32.7904
-35.9755
-34.7322
-32.0928
-48.2329
-53.2481
-18.5263
-40.5071
-44.3563
-47.5011
-48.1263
-39.9109
-35.8779
-32.8127
-37.684
-35.4782
-34.651
-32.6344
-36.0024
-32.2153
-18.6494
-45.9094
-53.0478
-40.6039
-48.1941
-44.5479
-47.6178
-24.1782
-30.7232
-65.6421
169.559
-10.3019
-44.9107
-122.576
59.9324
-59.5789
-43.4456
-47.7909
-56.3801
-22.8885
-22.6692
-27.3253
-20.9919
-24.4399
-24.4996
-26.0177
-21.4356
-29.4935
-29.2553
-30.0143
-29.2508
-23.811
-23.8347
-35.9878
19.4081
-36.1195
-35.2077
-48.7461
-29.3535
-21.439
-21.4401
-23.9384
-21.1051
-30.04
-35.5219
-34.1618
-33.1051
-17.2542
-34.2589
-64.4928
169.002
-59.0893
-43.2133
-47.8875
-55.4525
-22.8781
-22.6629
-27.3074
-20.9839
-29.5568
-29.3035
-30.0277
-29.3276
-41.741
-36.6699
-49.3009
-29.8418
-30.0628
-35.5077
-33.8121
-33.1266
-31.3119
-31.2255
-32.9232
-31.2234
-41.8418
-42.7649
-46.0403
-40.5748
-37.375
-36.9736
-41.2877
-34.4874
-35.6003
-36.7063
-36.0225
-35.7602
-33.5411
-33.5729
-32.6552
-33.7016
-59.77
-53.4141
-53.6455
-65.7502
8.48435
7.62601
12.0269
-18.2064
-48.505
-48.54
-56.6745
-41.1892
-31.1828
-31.2129
-32.8229
-31.1197
-41.9102
-43.0868
-46.266
-41.6761
-35.6096
-36.7682
-36.0621
-35.8507
-59.1584
-53.2647
-53.4532
-65.4274
-54.7491
-45.9849
-45.6563
-38.2231
-55.4168
-46.3799
-46.2498
-39.122
-71.0062
-60.5724
-59.594
-51.7584
-24.1704
-18.2332
-18.4242
-9.41324
204.216
170.571
184.291
203.539
-37.2673
-39.7405
-37.5099
-40.8249
-37.2143
-39.558
-37.696
-40.9464
-31.7391
-32.1142
-31.7328
-31.6292
-80.1677
-95.0504
-71.6777
-80.1999
-34.0324
-31.5587
-33.1283
-32.1531
-34.0197
-31.5596
-33.1239
-32.1308
-29.2872
-30.071
-30.0973
-31.2398
-29.9861
-33.0631
-33.0687
-34.7211
-18.7129
-18.2071
-18.724
-18.714
-77.9566
153.567
-154.995
56.0009
-58.4458
-82.532
-28.2719
-21.5858
-26.6646
-22.641
-33.213
-29.1294
-53.2386
107.752
-37.7747
29.2938
-48.9475
-38.5998
-27.2349
-22.0387
-23.9154
-21.9699
-28.6757
-26.7317
-138.53
69.9944
-80.9871
150.686
-57.7272
-81.3653
-26.7615
-22.6997
-28.2566
-21.596
-33.1766
-28.6447
-37.1798
40.4299
-53.2097
114.939
-53.6339
-38.0105
-23.9375
-21.9626
-27.1779
-22.0279
-28.8863
-26.7746
-33.2964
-43.6206
-34.0837
-32.3357
-50.2468
-37.6072
-40.7283
-34.2402
-34.2034
-32.0084
-32.9777
-31.7232
-34.2702
-37.0401
-32.7017
-34.0008
-42.8529
-23.9531
-44.5396
-44.5344
-55.5646
-85.7411
-5.70453
-16.4398
-33.3737
-38.4444
-39.5745
-35.7261
-49.5952
-55.2386
-55.7672
-41.3264
-33.3937
-43.1581
-40.3462
-33.9009
-33.8493
-32.1341
-50.1041
-37.4818
-34.1657
-32.2507
-32.6567
-34.0565
-32.9771
-31.7202
-34.2959
-37.1401
-43.4376
-25.9092
-7.87036
-14.2638
-44.6778
-44.5667
-53.4657
-86.1816
-33.3748
-38.4106
-55.7997
-41.3731
-39.3558
-35.7882
-49.5216
-55.0856
-63.2863
-62.3574
153.651
177.405
-89.252
-86.8086
82.196
95.3746
-58.017
-38.2146
-72.3762
-51.1481
-31.9102
-30.5689
-19.9722
-19.9415
-27.8615
-27.8601
-18.9915
-19.0004
-30.4581
-32.1058
-30.7894
-29.4193
-33.9882
-34.0003
114.896
122.679
-41.8205
-54.0385
-27.6449
-17.0596
-26.8895
-26.8962
-20.7495
-20.7506
-34.3547
-35.918
-35.0844
-29.8279
-63.3055
-63.7131
178.624
153.528
-58.3562
-38.5544
-70.1387
-50.1993
-30.5305
-31.8161
-19.9665
-19.9337
-30.4577
-32.182
-30.8458
-29.5358
-54.9213
-42.1027
-17.6483
-27.7969
-35.7908
-34.0947
-29.8355
-35.0812
-35.4454
-34.5167
-31.9699
-31.5973
-39.6602
-44.8571
-37.9021
-41.986
-45.4825
-45.8984
-33.0054
-32.8256
-35.6132
-38.3056
-33.91
-34.0008
-32.0069
-32.0629
-32.9102
-32.9578
-42.3182
-45.8087
-86.9146
-66.3663
-2.85383
-3.459
-99.1416
-97.9913
-65.6337
-65.6082
-37.2862
-37.3294
-35.188
-34.5162
-31.7511
-31.5023
-45.5257
-39.5574
-37.3102
-39.6303
-38.3014
-35.6211
-34.0709
-34.0119
-44.2664
-42.5472
-66.1507
-87.562
-95.282
-60.7938
-56.2482
-71.9377
-45.6746
-47.8567
-38.2937
-38.8257
-42.1151
-42.441
-38.8066
-44.9228
-44.7042
-58.202
-54.3997
-51.1243
-95.4243
-73.1617
-56.5924
-60.8487
-47.5269
-54.0527
-54.861
-55.9252
-44.5833
-45.1531
-38.7516
-43.2167
-45.2628
-39.0747
-38.7634
-47.8708
-127.102
-135.965
-72.4008
-67.2302
-125.526
-66.0585
-70.9085
-128.264
-39.6868
-40.9608
-51.2782
-47.8422
-39.9646
-48.5101
-51.921
-41.2368
-39.3558
-31.8332
-25.1286
-36.4157
-23.0402
7.78954
-11.3897
-26.4888
-25.1266
-27.4955
-11.7219
6.48703
-38.3865
-36.3276
-25.1543
-32.2191
112.202
160.776
145.912
58.1787
21.9668
15.7368
181.382
146.835
52.2923
154.646
186.511
19.3889
100.605
107.378
153.196
159.766
-35.0385
-33.2818
-37.3762
-39.0371
-33.3227
-35.3041
-36.5664
-33.1997
-46.9452
-51.6215
-39.3361
-37.5213
-50.0229
-41.982
-41.7233
-55.3801
-34.866
-39.0338
-36.973
-33.0865
-49.7785
-55.0631
-40.7606
-43.5139
-47.0698
-37.5189
-39.4843
-51.5862
-33.3156
-33.1868
-36.6168
-35.3385
-33.6092
-34.4764
-32.1343
-31.5696
-33.2901
-31.4191
-32.0024
-34.2361
-32.7106
-32.6314
-31.6524
-31.255
-32.7228
-31.3086
-31.7294
-32.6652
-32.9493
-73.9448
-94.5403
-17.8496
-51.6828
-56.7007
-70.5596
-59.9039
-51.6916
-59.7052
-70.5263
-56.7319
-32.128
-15.8129
-95.1459
-73.7535
-35.3997
-30.9013
-31.1455
-37.5181
-29.413
-27.6182
-33.014
-32.7075
-24.6131
-33.7807
-34.3659
-27.2687
-40.2221
-35.3264
-33.7983
-36.4227
-35.1911
-37.5422
-31.1023
-30.9106
-40.3482
-36.0497
-33.6292
-35.4464
-24.5686
-27.2458
-34.4415
-34.2019
-29.4298
-32.7723
-32.9944
-27.5931
-34.2234
-33.7703
-31.1346
-30.0419
-34.2246
-30.0897
-31.1606
-33.8168
-27.6819
-26.2205
-29.4481
-29.4583
-27.5215
-29.2081
-29.4257
-26.1834
-41.0168
-35.3807
-34.8266
-41.1329
-23.7308
-24.2706
-29.9142
-29.7907
-23.7577
-29.7982
-29.918
-24.2776
-40.6306
-41.2066
-34.8276
-35.3557
-23.8424
-21.7834
-18.7651
-21.1815
-23.9149
-21.1895
-18.7664
-21.8085
-22.4978
-21.1172
-18.9742
-20.946
-22.5001
-20.9547
-18.9776
-21.1138
29.5199
63.2272
-132.779
-27.9516
-27.8071
-28.5326
-29.0393
-11.6787
-41.1144
-22.6579
-22.5618
-23.3118
67.6833
30.7442
-115.593
-27.9209
-27.9765
-28.6075
-5.6642
-19.0209
-44.6952
-22.5534
-22.6478
-23.3093
-38.2189
-34.9974
-36.332
-36.7466
-38.2931
-33.4571
-36.0527
-35.0417
-32.3106
-41.6393
-39.1116
-26.2146
-42.3201
-44.4602
-46.2354
-45.7417
-38.3276
-35.8227
-34.1839
-35.6382
-38.3896
-35.0732
-33.4125
-36.0819
-33.4154
-26.9364
-41.1523
-39.577
-42.371
-45.7654
-44.6701
-46.2882
-9.2203
-33.2842
-72.3189
117.305
-105.438
-107.524
-158.909
-160.7
-54.5545
-46.4429
-48.5471
-53.3129
-22.8514
-22.7035
-26.3342
-21.5814
-24.2687
-24.2981
-24.7114
-22.6609
-28.7632
-28.6144
-29.1439
-28.98
-24.2006
-24.1726
-29.3863
-7.60641
-37.2024
-37.2072
-47.1282
-33.8866
-21.6592
-21.6633
-22.5004
-21.9732
-31.662
-34.4149
-34.4919
-33.8201
-20.975
-27.9296
-79.2866
114.775
-54.1374
-46.1818
-48.4062
-52.7857
-22.8444
-22.6899
-26.2994
-21.5835
-28.8075
-28.6553
-29.1656
-29.0426
-40.3102
-39.9331
-49.1614
-35.0578
-31.6334
-34.4123
-34.1615
-33.9261
-31.1117
-30.767
-30.6418
-31.0089
-42.271
-42.5848
-43.7477
-41.276
-37.3209
-37.0997
-38.871
-35.6154
-35.7894
-36.2068
-35.9254
-35.7362
-33.7477
-33.771
-33.1008
-34.3972
-58.6257
-55.1848
-54.8865
-61.2983
9.19492
9.08661
13.4325
-1.07555
-48.4454
-48.4528
-52.2825
-44.4348
-31.0062
-30.7063
-30.5441
-30.9242
-42.4242
-42.8767
-43.8601
-41.7016
-35.7991
-36.2359
-36.0333
-35.6703
-58.0849
-54.8943
-54.4633
-60.8948
-49.3229
-45.94
-45.6293
-42.4514
-49.7564
-46.1046
-46.0809
-42.9792
-64.9874
-60.3051
-59.8059
-55.5741
-20.2946
-17.2607
-17.3461
-12.9936
197.145
192.33
206.368
200.664
-38.4356
-39.449
-38.1511
-39.5941
-38.4329
-39.3618
-38.2906
-39.6716
-31.7441
-31.8623
-31.7071
-31.6864
-81.2072
-87.4031
-75.9382
-81.1861
-32.6217
-31.8381
-32.4479
-32.1447
-32.6603
-31.8452
-32.4422
-32.0672
-29.6887
-30.0871
-30.1001
-30.5792
-31.5061
-33.0901
-33.0925
-34.1525
-18.3343
-18.2912
-18.1294
-18.3316
26.9993
-18.2928
-100.9
142.427
82.9007
38.1772
-55.5627
-24.3378
-81.3492
-65.6698
-58.5285
-76.0452
-25.6748
-22.9842
-26.7602
-22.4963
-25.6241
-24.5863
-25.4848
-23.8082
-29.6664
-30.3127
-33.5693
-29.4061
-31.3524
-32.2893
-68.7053
90.4746
-24.986
-25.1164
-31.1369
-19.2477
-41.2077
-39.6976
-43.5779
-39.3693
-22.1031
-22.6799
-26.3553
-22.4141
-22.3751
-21.6932
-21.7314
-21.9095
-25.4726
-28.4651
-27.0478
-26.6824
77.7273
55.9396
-137.137
75.61
36.1829
-8.18668
-101.911
142.185
-79.6889
-64.9588
-57.4973
-75.6746
-25.7292
-24.7095
-25.5843
-23.9885
-25.6868
-22.9841
-26.7542
-22.5004
-29.7003
-30.1816
-33.5685
-29.1509
-22.9985
-25.1004
-29.5585
-10.6332
-31.9591
-28.0563
-70.47
91.9707
-29.3274
-42.8889
-44.2449
-39.0071
-22.3679
-21.6939
-21.7491
-21.917
-22.0755
-22.6663
-26.296
-22.4049
-25.4485
-28.4597
-27.0652
-26.7574
-41.4351
-41.4161
-34.2772
-42.2801
-32.4098
-31.5865
-32.3827
-32.0806
-39.4538
-41.0741
-43.0439
-38.8562
-37.0451
-37.3186
-38.6432
-35.6337
-31.4597
-30.5793
-33.7465
-32.0287
-31.8569
-31.4475
-31.9207
-31.3347
-35.7465
-35.2947
-34.8089
-35.1317
-33.9899
-33.4898
-33.1855
-34.3225
-33.1912
-33.7651
-40.1467
-29.0042
-46.1983
-43.1765
-44.2487
-44.555
-64.7261
-61.8712
-59.5641
-75.139
-7.45519
6.08742
-1.38252
-3.58067
-38.9488
-36.8709
-35.6523
-38.4436
-43.0771
-37.3261
-39.0122
-37.9164
-48.6952
-51.764
-49.2678
-52.5799
-49.1377
-48.7395
-53.0257
-44.2366
-41.2255
-41.2058
-34.2829
-41.9774
-36.2531
-36.7762
-38.3428
-34.9493
-32.2079
-31.4341
-32.1688
-31.8978
-39.3882
-41.0515
-42.9634
-38.7974
-31.49
-30.6351
-33.7394
-32.1668
-34.0175
-33.529
-33.1644
-34.4285
-31.7831
-31.4766
-31.8947
-31.5338
-35.7707
-35.3144
-34.8354
-35.2193
-34.6292
-36.0077
-41.2802
-31.0529
-9.7038
4.35378
-3.57734
-5.60594
-45.9491
-43.4492
-44.1322
-45.7849
-63.9609
-61.0164
-58.7384
-74.1864
-39.038
-36.855
-35.8047
-38.4985
-49.1377
-48.7582
-53.0306
-44.2698
-43.1051
-37.4267
-38.929
-38.0987
-48.7014
-51.6249
-49.1486
-52.5172
-58.0677
-61.3039
-64.4854
-63.7017
189.043
192.706
177.278
190.805
-98.3272
-77.6497
-86.8831
-85.6573
139.668
159.685
148.209
151.351
-46.8743
-46.1028
-51.3952
-42.6006
-58.5638
-60.5741
-65.5532
-55.2375
-29.111
-33.3792
-31.6671
-30.807
-20.4907
-19.2487
-20.0047
-19.7783
-26.9116
-29.0247
-27.8897
-27.8814
-19.5097
-18.1149
-18.5398
-18.5447
-31.0204
-31.3288
-30.6951
-31.2901
-29.4846
-29.9847
-30.2099
-29.6115
-37.3763
-28.2302
-33.3424
-33.345
49.4887
152.784
115.565
118.304
-48.0725
-46.0277
-43.6713
-48.8053
-25.0822
-19.9048
-24.6865
-19.5007
-25.6004
-28.4751
-26.9432
-26.9464
-20.9621
-19.3188
-20.6653
-20.6654
-34.2263
-33.8573
-33.7596
-34.409
-32.9756
-33.0199
-34.1789
-31.357
-59.1994
-61.6576
-65.4064
-65.2803
189.211
194.757
192.571
176.014
-47.1303
-46.4759
-51.6938
-42.8986
-57.2377
-59.2293
-63.7699
-54.0588
-29.1062
-33.3339
-30.7942
-31.4494
-20.4646
-19.263
-20.0014
-19.7731
-31.0383
-31.3359
-30.6889
-31.3352
-29.5455
-30.0278
-30.2589
-29.7042
-48.4703
-46.4727
-50.374
-44.3382
-25.5712
-20.2161
-20.0347
-24.9899
-34.1309
-33.847
-34.3987
-34.0295
-32.9903
-33.0275
-31.37
-34.1752
-34.4168
-35.6915
-35.4169
-34.4494
-31.4384
-31.6851
-31.7232
-31.5589
-48.0853
-35.9544
-42.019
-44.9835
-40.2985
-39.9869
-39.0866
-40.8176
-43.9104
-48.284
-45.7924
-46.0165
-33.5517
-32.4269
-33.0069
-32.9094
-36.2608
-36.9386
-36.2526
-37.3228
-36.7608
-32.5226
-34.142
-34.4392
-32.3063
-31.8373
-32.0391
-32.0696
-33.3758
-32.0635
-32.9823
-33.0072
-48.9921
-42.2644
-42.6959
-45.8509
-70.5525
-78.5448
-80.5313
-70.049
6.21914
-5.6001
-0.556568
-0.853541
-45.5325
-109.449
-102.114
-98.5609
-61.603
-68.6699
-66.2638
-66.269
-38.9517
-35.8322
-37.2616
-37.2777
-34.3198
-35.6366
-35.2606
-34.4138
-31.315
-31.5373
-31.5695
-31.4462
-48.6883
-35.6423
-45.4621
-41.6624
-40.7202
-38.341
-37.9317
-38.0073
-36.3059
-37.0063
-37.3511
-36.2691
-36.925
-32.6368
-34.3496
-34.498
-48.8746
-42.3542
-45.0696
-42.3326
-70.0477
-78.4058
-69.9116
-80.5778
-55.8376
-58.0133
-59.0477
-66.486
-36.3554
-54.347
-31.9746
-38.9578
-43.2179
-44.5577
-42.9953
-44.1451
-51.816
-55.7288
-60.4871
-58.4869
-58.5497
-58.1458
-59.9462
-66.0739
-51.9688
-59.7463
-62.4472
-60.5957
-43.8644
-44.9365
-42.9695
-44.6153
-36.4454
-54.4701
-32.1883
-38.929
-112.374
-88.1514
-92.356
-80.6891
-103.645
-85.1957
-88.0497
-77.7042
-43.939
-42.5815
-47.1756
-45.059
-44.5415
-43.0233
-47.9387
-45.6248
-39.2819
-37.0386
-34.4372
-31.0069
-16.7691
-9.21274
-14.6808
-6.57335
-18.1035
-10.615
-15.4999
-7.50538
-38.9473
-36.9779
-34.4483
-31.0249
115.94
51.3457
124.8
57.3525
121.698
71.8981
156.678
131.324
93.7406
133.426
142.062
155.823
70.2207
114.105
86.3778
130.196
-36.0082
-36.7854
-35.7519
-36.6861
-34.0795
-34.0959
-34.3491
-34.9291
-40.7754
-44.5936
-39.3097
-41.3825
-44.971
-48.8759
-43.3661
-45.4759
-35.7833
-36.5747
-35.4418
-36.3051
-43.524
-47.6649
-41.5417
-44.0459
-40.1599
-44.2238
-39.285
-41.2745
-34.0853
-34.1193
-34.3577
-34.9454
-32.6041
-33.4464
-32.2888
-32.9374
-33.1619
-32.311
-32.6984
-32.0847
-32.2407
-31.8392
-31.9503
-31.6633
-31.8938
-32.3
-31.744
-32.0208
-87.3081
-39.5738
-104.219
-95.3735
-59.159
-59.4263
-63.9954
-64.4661
-59.4457
-58.9015
-64.358
-63.8866
-31.6137
-90.7469
-93.9634
-106.952
-34.1824
-38.6628
-30.7108
-33.7694
-30.2177
-32.5833
-32.1553
-33.2104
-28.9234
-29.8274
-30.3049
-32.2358
-32.9119
-34.306
-34.5046
-33.119
-34.1511
-38.6497
-30.7073
-33.786
-32.8865
-34.2679
-34.4232
-33.1011
-28.9121
-29.8124
-30.2325
-32.2748
-30.2319
-32.5228
-32.1459
-33.1427
-32.2488
-33.0618
-31.532
-32.746
-32.4514
-33.1026
-31.6084
-32.8115
-27.4916
-28.3528
-27.9701
-29.196
-27.4593
-28.7486
-27.9878
-29.2447
-37.4434
-39.2498
-36.2367
-37.3208
-25.303
-26.7603
-26.8336
-28.2948
-25.318
-26.7749
-26.8448
-28.3089
-37.3788
-39.2799
-36.2299
-37.3792
-20.9685
-21.212
-19.9373
-19.6086
-21.2456
-20.9805
-19.6202
-19.9348
-21.3379
-21.7424
-21.0413
-20.4997
-21.7511
-21.3526
-20.5108
-21.0501
-95.9718
135.636
-164.257
77.4951
-93.249
-114.255
-28.3839
-24.9294
-26.3923
-25.1583
-29.9319
-27.9993
-55.5869
51.5441
-40.1135
9.94655
-34.8204
-38.4395
-22.9776
-22.4889
-22.3022
-22.2942
-24.0431
-23.8152
-166.066
81.4645
-95.8895
115.514
-102.684
-115.255
-26.5273
-25.0295
-28.3905
-24.9924
-29.9774
-28.1381
-36.4061
10.4783
-58.9988
61.9965
-37.5201
-36.4268
-22.299
-22.2875
-22.9773
-22.4879
-24.0834
-23.9062
-41.2341
-39.7847
-33.4263
-33.1704
-41.0657
-36.1573
-37.8178
-35.0539
-36.8694
-34.2132
-32.188
-32.9521
-34.2047
-39.6763
-33.5323
-36.738
-33.0996
-28.5497
-48.6908
-47.2707
-53.7317
-45.02
-18.5498
-22.2555
-40.6979
-40.922
-45.6648
-41.9575
-47.0187
-49.2402
-49.9646
-44.9098
-41.2691
-39.6019
-37.8035
-34.3067
-33.1545
-32.9064
-40.5898
-35.9233
-36.8207
-34.1887
-33.4926
-36.8497
-32.1454
-32.6828
-34.217
-39.6886
-34.4684
-29.6768
-20.3773
-22.932
-48.2422
-47.4091
-53.0983
-43.205
-40.8344
-40.9867
-49.8869
-44.8079
-45.9346
-42.102
-47.1973
-49.2738
-89.4328
128.551
-77.946
99.9348
-68.3573
-60.3588
167.384
166.226
-166.073
-81.311
-170.718
-71.9268
-126.506
-122.749
45.6044
72.0588
-60.4898
-63.2285
-40.726
-46.2695
-53.1179
-43.8344
-61.2853
-52.1454
-26.5054
-21.7399
-26.5166
-21.5468
-27.5152
-27.2142
-21.1416
-20.8621
-24.8969
-22.8799
-24.9447
-23.1155
-26.0779
-26.0594
-21.5284
-21.537
-31.9325
-29.2588
-30.3952
-29.6529
-29.9531
-30.8284
-29.4744
-29.1575
-29.8517
-9.91366
-29.2784
-6.06216
-37.2146
-37.0313
16.7894
18.9845
-45.0846
-33.9002
-41.0508
-31.4263
-46.0288
-45.9898
-30.1237
-27.6048
-23.2329
-20.7036
-23.2785
-20.6956
-24.1108
-24.1094
-21.254
-21.2491
-31.3418
-30.2879
-36.9185
-35.1717
-34.4284
-34.2693
-34.4124
-31.4823
-96.0689
128.567
-82.5568
106.116
-67.9226
-59.0613
164.26
164.773
-59.8232
-62.6
-40.6804
-45.856
-53.1236
-44.0318
-60.2256
-51.3472
-26.4782
-21.7424
-26.4696
-21.5262
-27.1994
-27.4969
-21.1482
-20.8547
-31.9495
-29.3417
-30.4158
-29.6966
-29.9645
-30.8552
-29.531
-29.4093
-51.1129
-35.182
-42.0506
-32.816
-49.5804
-47.8013
-28.5057
-30.8615
-33.1416
-30.3509
-36.9747
-34.8413
-34.4291
-34.5038
-31.5155
-34.4445
-31.7524
-31.3594
-31.621
-31.2223
-34.042
-34.1882
-31.3492
-31.2326
-44.1824
-40.274
-43.7117
-42.1302
-46.5875
-45.4615
-39.7741
-41.3176
-38.9462
-35.8069
-38.7271
-35.3463
-41.1678
-41.324
-34.4592
-34.3273
-35.4296
-36.3392
-37.1315
-36.1615
-35.8265
-36.6092
-36.196
-35.4126
-33.0766
-34.3436
-33.0641
-34.4285
-32.6508
-32.6682
-33.7138
-33.7368
-57.167
-66.9504
-51.691
-56.8679
-52.7725
-54.4111
-69.8856
-62.3253
11.2683
-0.396074
10.1843
-0.171451
11.2143
10.5086
-18.2092
-17.8604
-52.3973
-44.5664
-52.4283
-44.5831
-56.6889
-56.6932
-41.168
-41.1927
-31.5808
-31.2293
-31.5652
-31.2
-33.8965
-34.0977
-31.2218
-31.1535
-44.1732
-40.3541
-43.8907
-42.7869
-45.6632
-46.7185
-40.001
-42.8959
-35.4709
-36.2118
-37.1454
-36.2442
-36.631
-35.8791
-36.1606
-35.5939
-56.4977
-66.4895
-51.6481
-56.6477
-53.7504
-52.3122
-61.8937
-69.4315
-55.5631
-54.7108
-50.5042
-42.3364
-42.5314
-49.8811
-38.2764
-38.1052
-55.8429
-55.2068
-50.7632
-42.7953
-50.3032
-43.1499
-38.4558
-39.0339
-71.5631
-70.6416
-65.901
-55.9436
-64.712
-55.1449
-51.5663
-51.9386
-24.5214
-24.5432
-21.3246
-14.6418
-14.9031
-21.4872