# vtk DataFile Version 2.0
tet_velo
ASCII
DATASET UNSTRUCTURED_GRID
POINTS 29498 float
-0.735 0.145 -1.92276
-0.675 0.265 2.08454
-0.717697 0.665 -1.885
-0.565 0.815 2.02188
0.735 0.145 -1.92276
0.675 0.265 2.08454
0.717697 0.665 -1.885
0.565 0.815 2.02188
-0.794504 0.105496 -0.586994
-0.808091 0.111909 0.748773
-0.738139 0.786341 -0.582707
-0.704753 0.853854 0.719587
0.794504 0.105496 -0.586994
0.808092 0.111908 0.748773
0.73813 0.786332 -0.582707
0.704789 0.85389 0.719587
-1.4806 -0.221678 -2.97783
-1.48949 -0.192183 -1.92263
-1.52719 -0.218161 -0.585993
-1.52127 -0.212014 0.757376
-1.43542 -0.108564 2.09458
-1.41129 -0.0474541 3.15256
-1.42064 -0.0103073 4.2054
-1.47999 0.0851757 -2.97099
-1.48531 0.132471 -1.91944
-1.52934 0.120853 -0.589317
-1.50857 0.121933 0.743815
-1.3804 0.212371 2.07458
-1.37561 0.270819 3.13209
-1.40226 0.308723 4.18602
-1.47199 0.66312 -2.9479
-1.46518 0.70913 -1.89496
-1.48268 0.79225 -0.587665
-1.42921 0.830292 0.717264
-1.29652 0.823911 2.0252
-1.32999 0.880173 3.0841
-1.38163 0.933033 4.14343
-1.47022 1.609 -2.93844
-1.46703 1.66824 -1.89051
-1.46427 1.76495 -0.594067
-1.44427 1.83083 0.695165
-1.41133 1.8496 1.99196
-1.40422 1.86999 3.04061
-1.41658 1.90536 4.09629
-0.737158 -0.215172 -2.97999
-0.733715 -0.183083 -1.92578
-0.770705 -0.226114 -0.58557
-0.791182 -0.217733 0.761607
-0.734102 -0.0794276 2.10197
-0.71903 -0.0266512 3.15758
-0.727637 0.000958673 4.20831
-0.741537 0.086608 -2.97165
-0.69764 0.291534 3.13623
-0.717745 0.318956 4.18821
-0.737487 0.646056 -2.94376
-0.663209 0.88227 3.08344
-0.706012 0.936089 4.14329
-0.736096 1.59748 -2.93434
-0.733108 1.6574 -1.88601
-0.736851 1.76409 -0.59135
-0.736232 1.83653 0.694839
-0.723922 1.85063 1.98963
-0.720813 1.86867 3.03829
-0.729807 1.90444 4.0946
0.746022 -0.215172 -2.97999
0.763653 -0.183083 -1.92578
0.792775 -0.226113 -0.585571
0.773795 -0.217732 0.761607
0.683441 -0.0794267 2.10197
0.661407 -0.0266493 3.15758
0.655805 0.000961958 4.20831
0.730808 0.0866079 -2.97165
0.641376 0.291535 3.13623
0.643986 0.318959 4.18821
0.720264 0.646056 -2.94376
0.604526 0.882273 3.08344
0.628053 0.936093 4.14329
0.728806 1.59749 -2.93434
0.729944 1.6574 -1.88601
0.718139 1.7641 -0.59135
0.680859 1.83654 0.694838
0.640631 1.85064 1.98963
0.633212 1.86868 3.03829
0.636062 1.90445 4.0946
1.4908 -0.221677 -2.97783
1.50911 -0.192183 -1.92263
1.54478 -0.218157 -0.585993
1.52361 -0.212007 0.757376
1.41926 -0.10856 2.09457
1.37347 -0.0474487 3.15256
1.36141 -0.0103003 4.2054
1.47482 0.0851757 -2.97099
1.48653 0.132469 -1.91944
1.53442 0.120857 -0.589317
1.52197 0.121944 0.743815
1.39341 0.212374 2.07458
1.34581 0.270824 3.13209
1.34333 0.30873 4.18602
1.45906 0.663119 -2.9479
1.46182 0.709127 -1.89496
1.48361 0.792253 -0.587665
1.43959 0.830326 0.717263
1.30756 0.823922 2.0252
1.29695 0.880181 3.0841
1.31808 0.933042 4.14343
1.46237 1.609 -2.93844
1.462 1.66825 -1.89051
1.44782 1.76496 -0.594068
1.40137 1.83085 0.695164
1.34549 1.84962 1.99196
1.32886 1.87001 3.04061
1.33088 1.90538 4.09629
-0.765292 0.405 -1.94282
0 0.129581 -1.93818
-0.780668 0.109332 -1.25488
-0.61625 0.54 2.04946
0 0.228077 2.12146
-0.742992 0.187008 1.41666
0 0.777919 -1.99792
-0.769108 0.76686 -1.23385
0 0.894034 2.10091
-0.686276 0.885827 1.37073
0.765284 0.405 -1.94282
0.780668 0.109332 -1.25488
0.616444 0.54 2.04965
0.742077 0.187923 1.41666
0.769089 0.766842 -1.23385
0.686258 0.885809 1.37073
-0.803276 0.106724 0.0808899
-0.857314 0.445919 -0.58485
0 0.102697 -0.586994
-0.873388 0.482881 0.73418
3.5298e-07 0.109538 0.748773
-0.714091 0.812742 0.06844
-4.24366e-06 1.09443 -0.582707
1.80283e-05 1.26858 0.719587
0.803276 0.106724 0.0808899
0.857311 0.445914 -0.58485
0.873389 0.482899 0.73418
0.714074 0.812726 0.06844
-0.854987 0.425459 -1.24437
-0.862207 0.4644 0.074665
-0.872939 0.511441 1.39369
0 0.109107 -1.25488
1.7649e-07 0.103331 0.0808899
1.7649e-07 0.151929 1.41666
0 0.405 -2.26128
0 0.54 2.26398
-2.12183e-06 0.900098 -1.23385
6.89233e-06 1.28523 0.06844
9.01416e-06 1.11166 1.37073
0.854987 0.425457 -1.24437
0.862206 0.464407 0.074665
0.872942 0.511449 1.39369
-1.11015 0.138735 -1.9211
-0.734357 -0.0190415 -1.92427
-0.738268 0.115804 -2.44721
-1.0277 0.238685 2.07956
-0.704551 0.0927862 2.09326
-0.68632 0.278267 2.61038
-1.09144 0.687065 -1.88998
-0.727592 0.655528 -2.41438
-0.725403 1.1612 -1.8855
-0.930759 0.819456 2.02354
-0.614105 0.848635 2.55266
-0.644461 1.33282 2.00576
0.749326 -0.0190414 -1.92427
0.732904 0.115804 -2.44721
1.11077 0.138735 -1.9211
0.67922 0.0927866 2.09326
0.658188 0.278268 2.61038
1.03421 0.238687 2.07956
0.71898 0.655528 -2.41438
0.723821 1.1612 -1.8855
1.08976 0.687064 -1.88998
0.584763 0.848636 2.55266
0.602816 1.33282 2.00576
0.936278 0.819461 2.02354
-1.16192 0.113174 -0.588155
-0.782604 -0.0603087 -0.586282
-1.15833 0.116921 0.746294
-0.799637 -0.0529122 0.75519
-1.11041 0.789295 -0.585186
-0.737495 1.27522 -0.587028
-1.06698 0.842073 0.718425
-0.720492 1.34519 0.707213
0.793639 -0.0603083 -0.586282
1.16446 0.113177 -0.588155
0.790944 -0.0529121 0.75519
1.16503 0.116926 0.746294
0.728135 1.27521 -0.587028
1.11087 0.789292 -0.585186
0.692824 1.34521 0.707213
1.07219 0.842108 0.718425
-1.48504 -0.20693 -2.45023
-1.48029 -0.0682509 -2.97441
-1.10888 -0.218425 -2.97891
-1.50834 -0.205172 -1.25431
-1.4874 -0.0298564 -1.92103
-1.1116 -0.187633 -1.9242
-1.52423 -0.215087 0.0856914
-1.52826 -0.048654 -0.587655
-1.14895 -0.222137 -0.585782
-1.47835 -0.160289 1.42598
-1.51492 -0.0450406 0.750596
-1.15623 -0.214874 0.759492
-1.42336 -0.0780093 2.62357
-1.40791 0.0519032 2.08458
-1.08476 -0.093996 2.09827
-1.41597 -0.0288807 3.67898
-1.39345 0.111683 3.14232
-1.06516 -0.0370527 3.15507
-1.41145 0.149208 4.19571
-1.07414 -0.00467429 4.20686
-1.48265 0.108823 -2.44521
-1.47599 0.374148 -2.95944
-1.11076 0.0858918 -2.97132
-1.50732 0.126662 -1.25438
-1.47525 0.4208 -1.9072
-1.51895 0.121393 0.0772494
-1.50601 0.456551 -0.588491
-1.44449 0.167152 1.4092
-1.46889 0.476112 0.730539
-1.37801 0.241595 2.60333
-1.33846 0.518141 2.04989
-1.38894 0.289771 3.65906
-1.3528 0.575496 3.1081
-1.03663 0.281177 3.13416
-1.39195 0.620878 4.16473
-1.06 0.313839 4.18712
-1.46859 0.686125 -2.42143
-1.47111 1.13606 -2.94317
-1.10474 0.654588 -2.94583
-1.47393 0.75069 -1.24131
-1.4661 1.18869 -1.89274
-1.45595 0.811271 0.0647994
-1.47348 1.2786 -0.590866
-1.36287 0.827101 1.37123
-1.43674 1.33056 0.706214
-1.31325 0.852042 2.55465
-1.35392 1.33676 2.00858
-1.35581 0.906603 3.61377
-1.3671 1.37508 3.06236
-0.996599 0.881222 3.08377
-1.39911 1.4192 4.11986
-1.04382 0.934561 4.14336
-1.46862 1.63862 -2.41448
-1.10316 1.60324 -2.93639
-1.46565 1.7166 -1.24229
-1.10007 1.66282 -1.88826
-1.45427 1.79789 0.0505486
-1.10056 1.76452 -0.592708
-1.4278 1.84022 1.34356
-1.09025 1.83368 0.695002
-1.40777 1.8598 2.51629
-1.06763 1.85012 1.9908
-1.4104 1.88768 3.56845
-1.06252 1.86933 3.03945
-1.07319 1.9049 4.09544
-0.735436 -0.199128 -2.45288
-0.739347 -0.0642821 -2.97582
0.00443196 -0.215172 -2.97999
-0.75221 -0.204598 -1.25567
0.0149691 -0.183083 -1.92578
-0.780944 -0.221924 0.0880185
0.0110351 -0.226113 -0.58557
-0.762642 -0.14858 1.43179
-0.00869357 -0.217733 0.761607
-0.726566 -0.0530394 2.62978
-0.0253308 -0.0794272 2.10197
-0.723333 -0.0128463 3.68294
-0.708335 0.132441 3.1469
-0.0288117 -0.0266502 3.15758
-0.722691 0.159957 4.19826
-0.0359161 0.000960315 4.20831
-0.739512 0.366332 -2.95771
-0.00536436 0.0866079 -2.97165
-0.707692 0.305245 3.66222
-0.680425 0.586902 3.10983
-0.0281322 0.291535 3.13623
-0.711879 0.627523 4.16575
-0.0368794 0.318958 4.18821
-0.736791 1.12177 -2.93905
-0.00861147 0.646056 -2.94376
-0.684611 0.90918 3.61336
-0.692011 1.37547 3.06086
-0.0293419 0.882271 3.08344
-0.71791 1.42026 4.11894
-0.03898 0.936091 4.14329
-0.734602 1.62744 -2.41017
-0.0036453 1.59749 -2.93434
-0.73498 1.71075 -1.23868
-0.00158194 1.6574 -1.88601
-0.736542 1.80031 0.0517445
-0.00935602 1.76409 -0.59135
-0.730077 1.84358 1.34224
-0.0276867 1.83653 0.694839
-0.722368 1.85965 2.51396
-0.0416456 1.85064 1.98963
-0.72531 1.88656 3.56644
-0.0438009 1.86868 3.03829
-0.0468721 1.90444 4.0946
0.754837 -0.199127 -2.45288
0.738415 -0.064282 -2.97582
1.11841 -0.218424 -2.97891
0.778214 -0.204598 -1.25567
1.13638 -0.187633 -1.9242
0.783285 -0.221923 0.0880185
1.16878 -0.222135 -0.585782
0.728618 -0.14858 1.43179
1.1487 -0.21487 0.759492
0.672424 -0.053038 2.62978
1.05135 -0.0939934 2.09827
0.658606 -0.0128437 3.68294
0.651391 0.132443 3.1469
1.01744 -0.037049 3.15507
0.649895 0.159961 4.19826
1.00861 -0.00466916 4.20686
0.725536 0.366332 -2.95771
1.10281 0.0858918 -2.97132
0.642681 0.305247 3.66222
0.622951 0.586904 3.10983
0.993593 0.28118 3.13416
0.636019 0.627526 4.16575
0.993659 0.313844 4.18712
0.724535 1.12177 -2.93905
1.08966 0.654588 -2.94583
0.616289 0.909183 3.61336
0.618869 1.37548 3.06086
0.950736 0.881227 3.08377
0.632058 1.42027 4.11894
0.973068 0.934568 4.14336
0.729375 1.62745 -2.41017
1.09559 1.60325 -2.93639
0.724042 1.71075 -1.23868
1.09597 1.66283 -1.88826
0.699499 1.80032 0.0517444
1.08298 1.76453 -0.592709
0.660745 1.84359 1.34224
1.04111 1.8337 0.695001
0.636921 1.85966 2.51396
0.993062 1.85013 1.9908
0.634637 1.88656 3.56644
0.981035 1.86934 3.03945
0.983472 1.90491 4.09544
1.49996 -0.20693 -2.45023
1.48281 -0.0682506 -2.97441
1.52694 -0.20517 -1.25431
1.49782 -0.0298569 -1.92103
1.5342 -0.215082 0.0856913
1.5396 -0.04865 -0.587655
1.47144 -0.160284 1.42598
1.52279 -0.0450315 0.750596
1.39637 -0.0780044 2.62357
1.40634 0.0519071 2.08458
1.36744 -0.0288745 3.67898
1.35964 0.111688 3.14233
1.35237 0.149215 4.19571
1.48068 0.108822 -2.44521
1.46694 0.374148 -2.95944
1.51048 0.126663 -1.25438
1.47418 0.420798 -1.9072
1.5282 0.121401 0.0772493
1.50902 0.456555 -0.588491
1.45769 0.167159 1.4092
1.48078 0.476135 0.730539
1.36961 0.241599 2.60333
1.35048 0.518148 2.04989
1.34457 0.289777 3.65906
1.32138 0.575503 3.1081
1.33071 0.620886 4.16473
1.46044 0.686123 -2.42143
1.46072 1.13606 -2.94317
1.47272 0.75069 -1.24131
1.46191 1.18869 -1.89274
[...]
POINT_DATA 29498
VECTORS point_vectors float
-1.15569 -1.80599 5.1418
0.381913 0.11461 1.45539
-2.0234 1.39267 3.74889
-0.0769298 -0.0404615 -0.011986
1.156 -1.80338 5.13516
-0.385367 0.165016 1.51441
1.96312 1.35285 3.65405
0.0759862 -0.0556118 0.00602056
0.000113867 3.36538e-05 0.0115861
0.00502491 0.0037624 0.17641
0 0 0
0 0 0
-0.000104932 3.39971e-05 0.0115781
-0.00372406 0.0028194 0.142072
0 0 0
0 0 0
-0.681926 -0.311077 19.8382
-1.22486 -0.708736 20.5807
-0.448886 -0.337608 21.2995
0.144771 -0.0409367 21.4809
0.707636 0.241594 21.2985
0.947129 0.280983 20.9235
0.739516 0.184988 20.5675
-0.847279 -0.211599 19.7117
-1.72046 -0.573395 20.5502
-0.66346 -0.392973 21.3613
0.0871203 -0.189223 21.5595
0.965115 0.0585038 21.3425
1.14941 0.0792371 20.9939
0.866945 0.0700421 20.6954
-0.901445 0.140374 19.6307
-2.02625 0.248179 20.4439
-1.10593 -0.166424 21.3831
-0.214676 -0.254564 21.6915
0.810019 -0.511669 21.3397
1.01961 -0.581232 20.9739
0.694259 -0.457566 20.4937
-0.530544 0.410192 19.9408
-0.871306 0.674541 20.3854
-0.80062 0.463252 21.0824
-0.260386 0.03537 21.4234
0.168084 -0.317684 21.2507
0.322359 -0.437116 20.9872
0.330358 -0.478627 20.7634
-0.738055 -0.80927 19.1918
-1.57954 -3.09186 21.1024
-0.307185 -0.577433 21.6443
0.16327 0.279512 20.9432
0.536426 1.21463 17.4065
0.905372 1.45609 17.25
0.7566 0.986404 18.1374
-0.984856 -0.581565 18.7356
1.48773 1.2479 9.36035
1.77341 0.720809 12.0672
-1.10359 0.322906 18.4275
0.85977 -0.702186 7.98517
1.11131 -0.710682 12.8944
-0.476385 0.780256 19.5607
-0.927181 1.59731 20.1989
-1.06822 1.42858 21.1304
-0.308309 0.216249 21.8591
0.117797 -0.489662 21.3582
0.230425 -0.679848 21.0742
0.228041 -0.545186 20.8096
0.740951 -0.794765 19.2078
1.65948 -3.00318 21.0767
0.325398 -0.576565 21.709
-0.12986 0.274733 20.7423
-0.421307 1.24257 17.0884
-0.729925 1.49525 16.7776
-0.679618 1.18351 17.6081
0.9795 -0.59329 18.7137
-1.37211 1.23891 8.45235
-1.80501 0.918627 11.5042
1.09888 0.329387 18.3942
-0.702388 -0.691082 6.74059
-1.1092 -0.819876 11.5996
0.474815 0.783317 19.5569
0.925704 1.60255 20.1976
1.07172 1.46399 21.1278
0.302905 0.229867 21.9023
-0.0909324 -0.519845 21.3702
-0.186848 -0.739617 21.0129
-0.252575 -0.564388 20.9304
0.67542 -0.311091 19.8444
1.2003 -0.677163 20.5857
0.465269 -0.34064 21.2884
-0.134848 -0.037959 21.4858
-0.723017 0.269763 21.314
-1.00058 0.338836 20.8743
-0.753558 0.247688 20.6754
0.846264 -0.208104 19.7026
1.7162 -0.573452 20.5554
0.664778 -0.393071 21.3569
-0.0829119 -0.185505 21.5473
-0.972947 0.0643934 21.3567
-1.20497 0.110039 20.9786
-0.883934 0.136178 20.7886
0.908291 0.142966 19.623
2.03433 0.251647 20.4469
1.10419 -0.164781 21.3886
0.210815 -0.252347 21.6961
-0.819808 -0.52059 21.3687
-1.08446 -0.629893 20.9311
-0.776136 -0.532427 20.4627
0.531023 0.415082 19.9404
0.875013 0.677461 20.3869
0.810359 0.474579 21.087
0.268326 0.0386692 21.4511
-0.169665 -0.354941 21.2628
-0.310298 -0.489047 20.9484
-0.289634 -0.466143 20.7221
-1.93195 -0.00945395 2.52241
-2.98278e-05 -0.0189094 0.156045
-0.0148431 -0.00375699 0.669534
-0.025927 -0.021919 -0.0164192
0.00217095 0.0131507 0.0462171
0.00531678 0.0142013 0.281661
-0.000273883 0.215275 0.607367
0 0 0
0.00482084 0.0216967 -0.0485264
0 0 0
1.9222 -0.0082367 2.51053
0.0164761 -0.00344766 0.666218
0.0243986 -0.0214275 -0.0149186
-0.00496824 0.00883752 0.29129
0 0 0
0 0 0
0.000494184 0.00016827 0.0547204
-0.000517811 0.000440785 0.0211081
-2.44801e-07 1.49881e-07 0.000520296
0 0 0
-1.52353e-05 7.38263e-05 0.00999185
0 0 0
2.08622e-05 0.022853 0.0515879
-2.59132e-05 -0.000348942 0.00400864
-0.00041414 0.00018672 0.0547201
0.00050963 0.000450292 0.0208387
3.72248e-18 -1.13541e-18 5.71997e-17
0 0 0
-0.000974341 -0.000626063 0.0401327
2.81047e-05 0.000288033 0.00407144
0.00204024 0.00532481 0.0457465
-5.00098e-08 -7.36567e-07 4.27443e-05
3.41639e-08 -6.69578e-08 -3.11417e-05
7.30588e-05 0.000442175 0.00643432
0.000354574 -0.242568 0.285564
0.00819361 -0.0326015 -0.00525259
1.86603e-05 0.00137536 0.0125032
-3.75642e-06 0.00036168 0.00429192
0.000568916 0.000440957 -2.83768e-05
0.000970088 -0.000630401 0.0399016
-2.88764e-05 0.000295446 0.00415491
-0.00205219 0.00533769 0.0459738
-3.25358 -1.67685 20.6599
-2.3855 -4.79363 21.5644
-2.72262 -2.12483 17.6451
1.40222 0.613656 16.1824
0.346432 1.1923 9.8867
0.744095 0.725756 6.32503
-3.9665 0.937645 20.421
-3.46657 1.50543 16.7877
-2.13168 2.84539 20.1949
1.09856 -0.434779 13.2228
-0.374615 -0.233897 2.92055
0.581325 -0.741819 17.4985
2.51173 -4.67874 21.4646
2.72926 -2.15255 17.6102
3.25421 -1.67398 20.6535
-0.238461 1.19749 9.4487
-0.698214 0.7478 5.81066
-1.44422 0.626541 16.4096
3.47655 1.53766 16.7154
2.13393 2.85412 20.195
3.99513 0.95063 20.4277
0.297513 -0.352312 2.96952
-0.579143 -0.78676 16.7002
-1.1217 -0.592161 13.7121
-0.626937 -0.717076 21.4723
-0.053435 -0.346688 16.9898
0.35173 -0.171672 20.4796
0.283865 0.373496 15.3434
-1.65537 -0.610516 20.9885
-2.88985 1.82036 21.118
-0.208971 -0.24243 18.9387
-0.184864 0.103455 20.3019
0.0660043 -0.355023 17.1789
0.635495 -0.717212 21.4809
-0.23939 0.368222 15.145
-0.338849 -0.172842 20.5807
2.92557 1.87579 21.0814
1.657 -0.610221 20.9995
0.0969503 0.0947598 19.8087
0.225226 -0.271556 19.1178
-1.04566 -0.556675 20.0488
-0.751768 -0.286101 19.7948
-0.741273 -0.496838 19.5816
-0.822546 -0.535789 21.1471
-1.45482 -0.670905 20.5705
-1.69377 -1.53623 20.6929
-0.161119 -0.185778 21.4453
-0.563071 -0.390211 21.3256
-0.409455 -0.534249 21.5194
0.436841 0.113446 21.4696
0.112011 -0.120861 21.4961
0.233065 0.0274769 21.645
0.82901 0.292786 21.21
0.845486 0.186089 21.3604
0.959105 0.711901 20.6807
0.926262 0.231981 20.8916
1.07978 0.16486 21.0608
1.26845 0.813144 20.3525
0.814205 0.133905 20.6649
0.846491 0.52207 21.1179
-1.41939 -0.39954 19.8933
-0.89985 -0.0913593 19.6376
-0.944258 -0.395099 19.3247
-1.15209 -0.503318 21.2209
-1.99552 -0.243158 20.4993
-0.287817 -0.298397 21.4943
-0.876862 -0.357089 21.397
0.519493 -0.0538994 21.6027
-0.05285 -0.28864 21.6516
1.09726 0.0816293 21.1224
1.00921 -0.253825 21.2578
1.21106 -0.0307657 20.7201
1.22038 -0.244228 20.8223
1.70914 0.499363 17.8111
0.969956 -0.285639 20.4131
1.22732 0.163914 19.8417
-1.55043 0.221541 19.7778
-0.736505 0.359473 19.7679
-1.09236 0.194045 19.1494
-1.56103 0.00933241 21.1675
-1.41774 0.677705 20.3788
-0.664608 -0.249138 21.6057
-1.10723 0.241571 21.2378
0.325974 -0.342696 21.6722
-0.291541 -0.0975907 21.617
0.907981 -0.544686 21.1504
0.381458 -0.462728 21.3518
1.00964 -0.500728 20.7767
0.542484 -0.576797 21.0238
1.27336 -0.650162 18.561
0.547544 -0.616023 20.8062
1.09023 -0.684489 19.8464
-0.721481 0.568747 20.0899
-0.565811 0.590233 19.7549
-0.874442 0.611172 20.7661
-1.00098 1.09917 20.2973
-0.579794 0.271195 21.3335
-0.9996 0.817828 21.1443
-0.00532956 -0.167429 21.3841
-0.294742 0.0995406 21.6479
0.248825 -0.399471 21.1197
0.170015 -0.417385 21.311
0.308969 -0.400274 20.8438
0.319218 -0.596402 20.9604
0.198765 -0.450363 20.4814
-1.47449 -2.04048 19.1628
-0.831552 -0.733132 18.9967
0.00921803 -1.16864 18.7419
-0.664745 -1.20489 21.9265
0.0228291 -3.59862 22.0427
-0.0725259 -0.193606 21.2394
-0.00164461 -0.586048 21.1105
0.383769 0.772479 19.1055
-0.00373904 0.145486 19.4463
0.687004 1.32703 17.625
0.0460109 0.794299 14.3047
0.94983 1.32305 17.8154
1.24689 1.51214 14.0568
0.0885741 1.18758 13.968
1.12733 0.945876 15.3778
0.10655 1.81083 15.2569
-1.10304 -0.202011 18.4234
-0.0141371 -0.948345 17.8233
1.81836 1.0359 10.832
1.3587 0.111564 5.94635
-0.0612071 0.176392 1.05014
1.97997 0.323734 11.4962
0.0229982 1.09022 6.33774
-0.799015 0.812323 19.0235
-0.0168934 0.487892 17.382
1.23508 -0.920804 10.8691
0.61844 -1.02398 20.0066
-0.0456451 0.38506 -3.38817
0.507533 -0.858401 20.5969
0.0351941 -1.34733 2.80084
-0.74085 1.29194 19.7264
-0.00251606 1.01427 19.3484
-0.983349 1.48592 20.701
-0.00179249 2.17346 20.1091
-0.819384 0.949239 21.7613
-0.022272 2.393 21.036
-0.00826271 -0.270087 21.6347
-0.0159946 0.388518 22.1555
0.175934 -0.583318 21.2086
0.011202 -0.521649 21.5271
0.271519 -0.746343 20.8576
0.018899 -0.867274 21.066
0.0457435 -0.74215 20.0427
1.48599 -1.97437 19.1993
0.834745 -0.736642 18.9914
0.741881 -0.486287 19.5926
0.698427 -1.18777 21.8789
1.69033 -1.46176 20.6715
0.0867154 -0.19436 21.251
0.42356 -0.529744 21.5121
-0.327003 0.791305 18.8492
-0.230257 0.038009 21.6557
-0.559182 1.38098 16.9525
-0.961405 0.813759 20.5587
-0.865425 1.44768 17.2963
-1.08446 1.56206 13.645
-1.2718 0.90028 20.3849
-1.06912 1.14482 14.9503
-0.832499 0.623424 20.9883
1.10141 -0.204648 18.3879
0.950397 -0.399205 19.3095
-1.80651 1.14051 10.5206
-1.31763 0.126458 4.92879
-1.78905 0.644836 17.1563
-2.21216 0.502651 9.75703
-1.27675 0.231 18.9353
0.794172 0.822703 19.0097
1.09599 0.198331 19.124
-1.25978 -0.971476 9.70423
-0.58685 -1.07466 19.2135
-1.30258 -0.698437 17.0305
-0.480845 -0.900587 20.7101
-1.15415 -0.65321 18.8685
0.739765 1.2978 19.7242
0.567173 0.594976 19.7517
0.97881 1.50485 20.6977
1.00173 1.1033 20.2977
0.818743 1.00553 21.7953
1.00478 0.840776 21.145
0.0188046 -0.288482 21.6612
0.302981 0.114935 21.6798
-0.143874 -0.617738 21.2331
-0.157817 -0.445142 21.3219
-0.234956 -0.791267 20.8267
-0.296504 -0.637505 20.9926
-0.205066 -0.488095 20.4457
1.02646 -0.53216 20.0732
0.744563 -0.281545 19.7934
0.833371 -0.515785 21.137
1.42763 -0.663701 20.5767
0.176646 -0.190027 21.4494
0.56782 -0.393621 21.316
-0.44192 0.117791 21.4833
-0.108323 -0.121537 21.4913
-0.868967 0.331505 21.2164
-0.864116 0.201501 21.3716
-0.987512 0.315083 20.7748
-1.13123 0.215189 21.0178
-0.833286 0.196847 20.7704
1.41904 -0.400802 19.8961
0.90546 -0.0959931 19.6295
1.15209 -0.503382 21.2205
2.00407 -0.245432 20.5034
0.289145 -0.295089 21.4929
0.877258 -0.356453 21.4032
-0.514126 -0.051842 21.601
0.0523296 -0.283892 21.6633
-1.13992 0.0987228 21.1159
-1.02851 -0.250704 21.2873
-1.31111 -0.0126947 20.5228
-1.29074 -0.250482 20.7953
-1.0689 -0.296018 20.3853
1.56575 0.226337 19.7706
0.740386 0.363996 19.7678
1.56389 0.0109337 21.1733
1.42537 0.683065 20.3818
0.661471 -0.246552 21.6067
1.11642 0.245332 21.2444
-0.330373 -0.343932 21.6887
0.29785 -0.0981298 21.6369
-0.955673 -0.567909 21.1568
-0.393021 -0.488236 21.3681
-1.05249 -0.543674 20.7513
-0.553197 -0.627215 21.0443
-0.55286 -0.6453 20.6771
0.724465 0.57185 20.0899
0.881091 0.61763 20.7683
0.596307 0.286667 21.3522
0.0056715 -0.180837 21.4061
-0.252708 -0.433455 21.1181
-0.323547 -0.446138 20.8634
-1.19076 -0.510507 19.9941
-2.00718 -2.23419 18.5546
-1.36173 -1.06932 19.7305
-2.05441 -0.953372 19.2225
-0.842616 -0.455744 19.463
-2.34916 -1.7218 20.6995
-1.00022 -0.540443 21.1744
-0.56339 -0.775503 18.402
-0.881984 -0.915292 21.4529
-1.32673 -1.05872 21.774
-0.48464 -0.630091 21.5686
-0.235581 -0.25983 21.4589
0.102976 -0.0572147 15.5492
-0.0987296 -0.27412 21.5972
-0.164072 -0.409813 20.92
0.32991 -0.047221 21.3997
0.469628 0.0292133 21.5223
0.41304 0.709137 12.0716
0.602934 0.368108 21.4594
0.828428 0.152931 18.1683
1.24563 0.71787 19.2032
1.00269 0.217067 21.1377
0.715619 1.2586 11.7767
1.1097 0.761137 20.4676
1.52868 0.508261 17.4598
1.43925 0.698033 19.322
1.13689 0.0962971 20.5711
1.36868 1.18599 14.4199
1.26647 0.822558 20.4004
1.60111 0.397275 18.4127
0.991018 0.387352 20.1717
-1.54891 -0.153349 19.8054
-3.64751 -0.577881 16.4982
-2.43194 0.561103 18.964
-1.085 -0.111868 19.1585
-4.29109 -0.482318 20.509
-1.41089 -0.329459 21.2339
-2.34841 -0.0151096 21.6565
-0.956495 -0.626904 20.3354
-0.450488 -0.333224 21.5828
-0.83538 -0.699451 19.7977
0.00102252 -0.289851 18.2638
0.465849 -0.245247 21.6498
0.718643 0.107168 16.9802
1.21737 0.0634288 11.7854
1.13658 -0.271698 21.0679
-0.00431249 -0.170514 2.30304
1.08943 -0.548001 16.5985
1.84371 -0.229369 17.0962
1.14635 -0.255553 20.7219
1.88279 0.268828 9.04884
1.25784 -0.660281 19.2889
1.40407 -0.268569 19.5974
-1.12538 0.560821 19.9291
-1.60576 1.94598 18.9027
-0.818753 0.895273 19.9024
-0.82733 0.538994 19.4587
-1.93786 1.42394 20.2862
-1.31431 0.478799 20.9172
-2.04106 1.84888 20.8811
-1.03189 0.993211 20.7589
-1.75155 0.555875 21.3628
-0.758382 0.0542086 21.519
-2.1892 0.829876 21.8265
-0.730766 0.520303 21.5339
-0.427214 -0.0502892 21.9352
0.118313 -0.286558 21.5666
0.575203 -0.512951 19.0475
0.0159322 -0.22319 21.504
0.391912 -0.70695 21.4357
0.473146 -0.526784 21.2353
0.479375 -0.842098 19.1
0.239903 -0.492131 21.167
0.601007 -0.814211 21.1968
0.536124 -0.526899 20.8183
0.578507 -1.08355 20.1197
0.385813 -0.580197 21.0253
0.536426 -0.702429 20.2158
2.00933 -2.19866 18.573
0.0321914 -3.43606 18.6489
-0.0144012 -5.12675 14.6775
-0.00176441 -1.12439 18.3866
0.00505607 -3.6039 21.3379
0.585861 -0.790256 18.5879
0.000925676 -1.24488 21.707
-0.000837568 -0.217868 13.3392
-0.0887899 -0.0560758 15.5601
-0.00385214 -0.230664 20.1351
-0.0109106 0.142149 11.465
-0.390658 0.710948 11.7566
0.0147757 0.585581 16.7729
0.0697087 0.513153 5.91421
-0.572227 1.30884 10.9531
0.075022 0.857577 14.1053
0.0448181 -0.542996 0.414003
0.0259591 0.871802 7.59024
-1.31951 1.3028 14.0004
0.101378 1.57147 14.6894
0.0171346 0.705289 3.38123
0.122358 1.56224 11.8074
3.66207 -0.585523 16.4232
-0.0272634 3.77903 12.8448
-0.0132007 -0.257959 17.3524
-0.0689443 -0.155419 2.04775
-0.05412 0.547218 -3.38708
-0.0995403 0.131054 -4.45254
-2.02539 0.385301 7.8807
0.0929937 -0.42936 -0.369496
-0.0612492 0.00806371 0.547943
1.60334 1.96362 18.8893
-0.00241069 1.73511 19.495
-0.00846573 1.15904 18.4962
-0.0051659 4.29553 20.098
2.04151 1.8688 20.8775
-0.00949954 2.14482 20.5537
-0.0229401 4.58547 19.8194
2.22846 0.85823 21.4782
-0.0247357 1.75266 22.0819
0.0123318 -0.0616446 16.7643
-0.63199 -0.551877 18.219
4.57876e-05 -0.286555 21.8315
0.0514097 -0.531066 10.6944
-0.437805 -0.91064 18.0966
0.0145453 -0.623922 21.3472
0.101945 -0.692309 13.3379
-0.507298 -1.14225 19.6361
0.0288963 -0.747369 20.7565
0.0511804 -0.792208 15.8058
1.17789 -0.508336 20.0077
1.36229 -1.03347 19.7468
2.06601 -0.961014 19.2069
0.844275 -0.462619 19.4584
2.31506 -1.65322 20.6788
1.00004 -0.53707 21.17
0.888831 -0.895529 21.4289
1.33344 -1.05776 21.7716
0.498989 -0.623195 21.5618
0.240274 -0.261964 21.4638
0.109602 -0.275111 21.592
0.17334 -0.410125 20.9698
-0.321399 -0.0405307 21.4011
-0.469888 0.0294659 21.5258
-0.605653 0.415095 21.3797
-0.835123 0.154248 18.3606
-1.26855 0.799499 18.9633
-1.0422 0.248925 21.134
-1.12201 0.850132 20.4321
-1.59539 0.590419 17.0348
-1.5084 0.850374 18.588
-1.19904 0.181815 20.4699
-1.25536 0.952547 20.4156
-1.62436 0.509929 17.7365
-1.02776 0.467419 19.2496
1.5627 -0.156246 19.8033
2.45777 0.572134 18.9343
1.08873 -0.117255 19.1336
4.30294 -0.485758 20.5049
1.41278 -0.329416 21.2373
2.35066 -0.0160207 21.6585
0.96316 -0.627938 20.3753
0.450177 -0.328559 21.5839
0.84244 -0.700485 19.8826
-0.000692188 -0.297987 18.4749
-0.468445 -0.240812 21.6721
-0.706182 0.0487313 17.2618
-1.29676 0.0744221 12.2965
-1.19332 -0.275875 21.0708
-1.21631 -0.561595 16.2106
-1.96503 -0.241379 16.1739
-1.24492 -0.213121 20.2577
-1.31357 -0.746325 18.0764
-1.46913 -0.222282 18.6747
1.13275 0.568273 19.9285
0.818495 0.899748 19.9016
0.829459 0.549837 19.4461
1.94276 1.43463 20.2837
1.32298 0.484495 20.9215
1.03501 1.0052 20.7597
1.77359 0.567848 21.3652
0.77177 0.0574458 21.5331
0.745978 0.548401 21.5577
0.439262 -0.0467101 21.9665
-0.121773 -0.296738 21.5879
-0.00739674 -0.233796 21.5336
-0.386286 -0.75241 21.4643
-0.502601 -0.565586 21.2372
-0.228207 -0.535851 21.1769
-0.62693 -0.889804 20.808
-0.552423 -0.598074 20.8506
-0.359818 -0.641191 21.0263
-0.535446 -0.759124 20.2417
-1.68949 -1.05583 19.4883
-1.0659 -0.992993 21.5978
-0.105671 -0.352154 21.4998
0.796687 0.32753 20.3543
1.35041 0.723403 19.2212
1.44609 0.64236 19.5702
-2.52013 -0.27518 18.8942
-1.96487 -0.715303 21.7777
-0.327749 -0.394305 19.0284
0.563847 0.0561101 15.8959
1.4139 -0.0984023 15.1925
1.66601 -0.0788526 16.979
-1.48267 1.06606 19.542
-1.75814 0.948243 20.9767
-1.24931 0.215986 21.8792
0.159043 -0.408716 21.7557
0.457033 -0.755158 21.245
0.670909 -0.83115 20.9412
0.0113359 -4.47263 17.2874
-0.000997556 -0.566192 14.6784
-0.00609347 -0.0576381 11.9831
0.0407108 0.41947 8.29633
0.0999854 0.224412 6.29132
0.0881348 1.1499 9.0325
-0.0249288 -0.995873 11.4985
-0.151505 -0.255547 -3.63409
0.0168777 0.112243 -2.46461
-0.0110357 3.13898 18.1638
-0.0108753 3.17621 20.4471
-0.0275081 2.55523 19.7827
0.0232794 -0.654418 13.1216
0.0951747 -0.499022 12.2404
0.0609538 -1.14492 14.7189
1.68762 -1.04024 19.5016
1.07935 -0.978183 21.5768
0.118266 -0.349198 21.5096
-0.802338 0.354906 20.261
-1.38041 0.8498 18.7452
-1.44914 0.75391 19.0521
2.54427 -0.281922 18.8666
1.96599 -0.716185 21.7805
0.336525 -0.400163 19.1504
-0.578963 0.0349966 16.1973
-1.46862 -0.0908132 14.4337
-1.71824 -0.111942 16.1371
1.48855 1.08175 19.5287
1.76534 0.957682 20.9761
1.27822 0.222134 21.8999
-0.161598 -0.431709 21.7759
-0.467229 -0.829443 21.2543
-0.684536 -0.92147 20.7126
-2.88201 -1.1771 3.65456
-0.000452175 -0.0266915 0.196881
-0.0419482 -0.0277666 0.755849
-0.000657894 -0.008167 0.000915547
-0.00034485 0.0166312 0.0509753
-0.0645505 0.156666 0.852523
-2.10361 0.510534 2.81855
-0.00320915 0.0146493 0.0438988
-0.217728 0.0126818 0.821552
-0.00472181 -0.00372138 -0.00354842
-0.0266169 0.0267751 -0.040248
-0.0171482 -0.0170906 0.0391829
0.000424814 -0.0266982 0.196855
2.89326 -1.1761 3.66442
0.0422573 -0.0274626 0.755441
0.00546107 0.0192691 0.0540956
5.4858e-05 -0.00773813 0.00185155
0.0723324 0.159487 0.888743
0.00249146 0.0114381 0.0338254
2.08992 0.508234 2.81318
0.21809 0.0129911 0.823492
0.0345387 0.0162491 -0.0300988
0.00431758 -0.00384065 -0.00296039
0.0187051 -0.018492 0.0417242
0.0209141 -0.0240196 0.672504
0.000126283 -8.77299e-05 0.00896316
-0.00516792 0.00159284 0.0953078
0 0 0
0.0110358 0.0102645 0.16085
0.00424281 0.00765362 0.227516
0.00703305 -0.0143437 0.162297
0 0 0
-0.0937483 -0.0772736 0.285295
-3.32966e-05 -2.01714e-05 0.00374273
0 0 0
-0.0313859 0.0255413 0.0779539
0 0 0
-0.00130515 0.0747576 0.322801
0 0 0
0.00437807 -0.00197583 0.0225526
-0.0209879 -0.0233878 0.672404
0 0 0
-0.000114571 -8.49398e-05 0.00903691
0.00520596 0.00167686 0.0955067
-0.0153408 0.00442125 0.154854
9.83458e-06 4.34016e-06 0.00068044
-0.00377873 0.0080039 0.228048
-0.0072635 -0.0143848 0.166178
0.0937368 -0.0773392 0.285372
0.0315388 0.0257029 0.0790494
3.38556e-05 -1.84395e-05 0.00383057
-3.51082e-18 5.04782e-18 5.04305e-17
0 0 0
-0.00430449 -0.00197824 0.0224468
0.00152863 0.0746599 0.323492
0 0 0
-0.0210334 -0.0147102 0.285661
-1.93619 -0.248669 1.10921
-6.6251e-09 -3.04741e-05 0.0018006
0 0 0
-0.00118396 -0.000108694 0.0477461
-1.26212e-06 -8.95438e-07 4.82287e-05
0.00802625 0.000512743 0.0286191
-0.109523 -0.0286506 -0.0259377
0.000132252 0.000549883 0.00918326
0.000563738 -0.00506531 -0.00108655
1.36521e-18 4.82391e-18 4.3195e-17
0.00839955 0.00597641 0.125448
0.0183138 0.305247 0.11422
8.04215e-05 0.019128 0.114283
0 0 0
-0.00736708 0.00181022 0.0240199
0.00851273 0.0223449 -0.0104111
0.000316655 0.00098393 -0.00347035
0.0906099 0.0571085 0.803463
-0.000624159 -0.000136599 3.43934e-05
1.87174 -0.250381 1.08622
0.0211511 -0.014661 0.28716
1.22094e-06 -9.00673e-07 4.80265e-05
0.00120198 -6.44808e-05 0.0482457
0.093713 -0.0199513 -0.0206072
-0.00806085 0.000499421 0.028675
-0.00137325 0.00319516 0.0405678
0 0 0
0.00684917 0.00166698 0.0222229
0 0 0
0.000878573 -0.000207741 0.000120639
-0.0904922 0.0553877 0.806147
-0.000353783 0.00150225 0.0688462
0 0 0
0.000693254 0.000630967 0.053346
-1.03491e-06 3.37354e-05 0.000671757
5.40662e-07 -1.10262e-05 0.0018835
-4.48057e-08 -3.42801e-08 4.19259e-05
2.3187e-05 7.87467e-05 0.0018499
0.0025318 0.00411973 0.128666
9.86601e-09 -1.40565e-08 -6.99741e-06
0 0 0
0.00356738 0.0129294 0.0806881
-0.00425334 0.00827178 0.095802
0 0 0
1.56539e-05 0.103268 0.326634
6.33282e-05 0.00118134 0.12383
4.26771e-05 -0.00188325 0.00961093
0 0 0
0.000360163 0.00157226 0.0687808
-0.000474322 0.000341524 0.0402774
9.03143e-07 2.9905e-05 0.000593366
-2.35543e-05 8.07338e-05 0.00186251
-0.00254927 0.0040589 0.129273
0.00431347 0.00826116 0.095897
-0.00346698 0.0125755 0.0786513