# vtk DataFile Version 2.0
tri_press
ASCII
DATASET UNSTRUCTURED_GRID
POINTS 3682 float
-0.735 0.145 -1.92276
-0.675 0.265 2.08454
-0.717697 0.665 -1.885
-0.565 0.815 2.02188
0.735 0.145 -1.92276
0.675 0.265 2.08454
0.717697 0.665 -1.885
0.565 0.815 2.02188
-0.794504 0.105496 -0.586994
-0.808091 0.111909 0.748773
-0.738139 0.786341 -0.582707
-0.704753 0.853854 0.719587
0.794504 0.105496 -0.586994
0.808092 0.111908 0.748773
0.73813 0.786332 -0.582707
0.704789 0.85389 0.719587
-1.4806 -0.221678 -2.97783
-1.48949 -0.192183 -1.92263
-1.52719 -0.218161 -0.585993
-1.52127 -0.212014 0.757376
-1.43542 -0.108564 2.09458
-1.41129 -0.0474541 3.15256
-1.42064 -0.0103073 4.2054
-1.47999 0.0851757 -2.97099
-1.48531 0.132471 -1.91944
-1.52934 0.120853 -0.589317
-1.50857 0.121933 0.743815
-1.3804 0.212371 2.07458
-1.37561 0.270819 3.13209
-1.40226 0.308723 4.18602
-1.47199 0.66312 -2.9479
-1.46518 0.70913 -1.89496
-1.48268 0.79225 -0.587665
-1.42921 0.830292 0.717264
-1.29652 0.823911 2.0252
-1.32999 0.880173 3.0841
-1.38163 0.933033 4.14343
-1.47022 1.609 -2.93844
-1.46703 1.66824 -1.89051
-1.46427 1.76495 -0.594067
-1.44427 1.83083 0.695165
-1.41133 1.8496 1.99196
-1.40422 1.86999 3.04061
-1.41658 1.90536 4.09629
-0.737158 -0.215172 -2.97999
-0.733715 -0.183083 -1.92578
-0.770705 -0.226114 -0.58557
-0.791182 -0.217733 0.761607
-0.734102 -0.0794276 2.10197
-0.71903 -0.0266512 3.15758
-0.727637 0.000958673 4.20831
-0.741537 0.086608 -2.97165
-0.69764 0.291534 3.13623
-0.717745 0.318956 4.18821
-0.737487 0.646056 -2.94376
-0.663209 0.88227 3.08344
-0.706012 0.936089 4.14329
-0.736096 1.59748 -2.93434
-0.733108 1.6574 -1.88601
-0.736851 1.76409 -0.59135
-0.736232 1.83653 0.694839
-0.723922 1.85063 1.98963
-0.720813 1.86867 3.03829
-0.729807 1.90444 4.0946
0.746022 -0.215172 -2.97999
0.763653 -0.183083 -1.92578
0.792775 -0.226113 -0.585571
0.773795 -0.217732 0.761607
0.683441 -0.0794267 2.10197
0.661407 -0.0266493 3.15758
0.655805 0.000961958 4.20831
0.730808 0.0866079 -2.97165
0.641376 0.291535 3.13623
0.643986 0.318959 4.18821
0.720264 0.646056 -2.94376
0.604526 0.882273 3.08344
0.628053 0.936093 4.14329
0.728806 1.59749 -2.93434
0.729944 1.6574 -1.88601
0.718139 1.7641 -0.59135
0.680859 1.83654 0.694838
0.640631 1.85064 1.98963
0.633212 1.86868 3.03829
0.636062 1.90445 4.0946
1.4908 -0.221677 -2.97783
1.50911 -0.192183 -1.92263
1.54478 -0.218157 -0.585993
1.52361 -0.212007 0.757376
1.41926 -0.10856 2.09457
1.37347 -0.0474487 3.15256
1.36141 -0.0103003 4.2054
1.47482 0.0851757 -2.97099
1.48653 0.132469 -1.91944
1.53442 0.120857 -0.589317
1.52197 0.121944 0.743815
1.39341 0.212374 2.07458
1.34581 0.270824 3.13209
1.34333 0.30873 4.18602
1.45906 0.663119 -2.9479
1.46182 0.709127 -1.89496
1.48361 0.792253 -0.587665
1.43959 0.830326 0.717263
1.30756 0.823922 2.0252
1.29695 0.880181 3.0841
1.31808 0.933042 4.14343
1.46237 1.609 -2.93844
1.462 1.66825 -1.89051
1.44782 1.76496 -0.594068
1.40137 1.83085 0.695164
1.34549 1.84962 1.99196
1.32886 1.87001 3.04061
1.33088 1.90538 4.09629
-0.765292 0.405 -1.94282
0 0.129581 -1.93818
-0.780668 0.109332 -1.25488
-0.61625 0.54 2.04946
0 0.228077 2.12146
-0.742992 0.187008 1.41666
0 0.777919 -1.99792
-0.769108 0.76686 -1.23385
0 0.894034 2.10091
-0.686276 0.885827 1.37073
0.765284 0.405 -1.94282
0.780668 0.109332 -1.25488
0.616444 0.54 2.04965
0.742077 0.187923 1.41666
0.769089 0.766842 -1.23385
0.686258 0.885809 1.37073
-0.803276 0.106724 0.0808899
-0.857314 0.445919 -0.58485
0 0.102697 -0.586994
-0.873388 0.482881 0.73418
3.5298e-07 0.109538 0.748773
-0.714091 0.812742 0.06844
-4.24366e-06 1.09443 -0.582707
1.80283e-05 1.26858 0.719587
0.803276 0.106724 0.0808899
0.857311 0.445914 -0.58485
0.873389 0.482899 0.73418
0.714074 0.812726 0.06844
-0.854987 0.425459 -1.24437
0.854987 0.425457 -1.24437
0 0.109107 -1.25488
-2.12183e-06 0.900098 -1.23385
0 0.405 -2.26128
-0.862207 0.4644 0.074665
0.862206 0.464407 0.074665
1.7649e-07 0.103331 0.0808899
6.89233e-06 1.28523 0.06844
-0.872939 0.511441 1.39369
0.872942 0.511449 1.39369
1.7649e-07 0.151929 1.41666
9.01416e-06 1.11166 1.37073
0 0.54 2.26398
-0.770112 0.275 -1.95276
-0.3675 0.130067 -1.93769
-0.773394 0.111606 -1.58882
-0.629551 0.4025 2.05093
-0.3375 0.235827 2.11371
-0.733638 0.201362 1.7506
-0.747567 0.535 -1.91998
-0.358849 0.756829 -1.97683
-0.763412 0.73594 -1.55943
-0.585026 0.6775 2.03007
-0.2825 0.870909 2.07779
-0.651999 0.876775 1.69631
0.3675 0.130049 -1.93771
0.770159 0.275 -1.9528
0.773394 0.111606 -1.58882
0.3375 0.235817 2.11372
0.629644 0.4025 2.05102
0.733634 0.201366 1.7506
0.358849 0.756469 -1.97647
0.747566 0.535 -1.91998
0.763433 0.735961 -1.55943
0.2825 0.870898 2.07778
0.585014 0.6775 2.03006
0.651998 0.876773 1.69631
-0.790096 0.104904 -0.920935
-0.798896 0.106104 -0.253052
-0.878494 0.249415 -0.585922
-0.396019 0.106563 -0.586994
-0.749239 0.175761 1.08272
-0.807646 0.107354 0.414832
-0.884521 0.275504 0.741477
-0.395566 0.127683 0.748773
-0.762423 0.7854 -0.90828
-0.834831 0.634682 -0.583778
-0.72613 0.799557 -0.257133
-0.424443 1.05113 -0.582707
-0.70499 0.879316 1.04516
-0.848491 0.698078 0.726883
-0.706015 0.829891 0.394013
-0.433369 1.22322 0.719587
0.790094 0.104906 -0.920935
0.396988 0.104623 -0.586994
0.798896 0.106104 -0.253052
0.878515 0.249401 -0.585922
0.746203 0.178797 1.08272
0.404286 0.110243 0.748773
0.807646 0.107354 0.414832
0.884538 0.275505 0.741477
0.762426 0.785403 -0.90828
0.424437 1.05113 -0.582707
0.834829 0.634678 -0.583778
0.726114 0.799541 -0.257133
0.704982 0.879308 1.04516
0.433394 1.22321 0.719587
0.848482 0.698091 0.726883
0.706026 0.829902 0.394013
-0.847271 0.41523 -1.59359
-0.382646 0.405 -2.20313
0 0.114893 -1.59653
0 0.26729 -2.21464
-0.852196 0.267396 -1.24962
-0.390334 0.109107 -1.25488
-0.820605 0.52572 1.72158
-0.308125 0.54 2.22285
8.8245e-08 0.18018 1.76906
0 0.384039 2.26508
-0.867496 0.349224 1.40518
-0.371496 0.151906 1.41666
-1.06092e-06 0.855291 -1.61589
0 0.59146 -2.18843
-0.854379 0.59616 -1.23911
-0.384555 0.87632 -1.23385
4.50708e-06 0.998243 1.73582
0 0.717017 2.20878
-0.877694 0.698634 1.38221
-0.343134 1.07562 1.37073
0.847272 0.415229 -1.59359
0.382642 0.405 -2.20306
0.852203 0.267395 -1.24962
0.390334 0.109107 -1.25488
0.820576 0.525725 1.72167
0.308222 0.54 2.22256
0.867495 0.349686 1.40518
0.371038 0.151952 1.41666
0.854363 0.596149 -1.23911
0.384543 0.875964 -1.23385
0.877609 0.698629 1.38221
0.343134 1.07562 1.37073
-0.897283 0.253291 0.0777774
-0.398097 0.112109 0.0808899
-0.856358 0.435689 -0.914608
-0.86081 0.455159 -0.255093
0 0.10245 -0.920935
8.8245e-08 0.103011 -0.253052
-0.86011 0.473641 0.404423
-0.885752 0.497161 1.06394
2.64735e-07 0.103657 0.414832
2.64735e-07 0.127359 1.08272
-0.834414 0.661704 0.0715525
-0.452555 1.24001 0.06844
-3.18275e-06 0.93508 -0.90828
1.32433e-06 1.23405 -0.257133
1.24603e-05 1.29677 0.394013
1.35212e-05 1.20952 1.04516
0.897282 0.253294 0.0777774
0.40138 0.105544 0.0808899
0.856102 0.435686 -0.914608
0.860807 0.45516 -0.255093
0.860108 0.473653 0.404423
0.885752 0.497174 1.06394
0.834396 0.661694 0.0715525
0.452558 1.24001 0.06844
-0.843521 0.271198 -1.59121
-0.857801 0.271552 -0.917771
-0.837242 0.606145 -0.911444
-0.845948 0.56558 -1.57651
0.843511 0.271197 -1.5912
0.84595 0.565575 -1.57651
0.837586 0.606136 -0.911444
0.857016 0.27155 -0.917771
-0.378917 0.114827 -1.59267
0.378917 0.114827 -1.59267
0.393793 0.10245 -0.920935
-0.393793 0.103967 -0.920935
-0.371702 0.835018 -1.58766
-0.376813 0.900441 -0.90828
0.376803 0.900367 -0.90828
0.371696 0.834734 -1.58766
-0.375073 0.271145 -2.16061
-0.370747 0.56323 -2.16155
0.370745 0.56323 -2.16155
0.375071 0.271145 -2.16061
-0.891699 0.249448 -0.254072
-0.893762 0.262968 0.409627
-0.831631 0.67498 0.399218
-0.835471 0.648617 -0.256113
0.891702 0.249446 -0.254072
0.83547 0.648615 -0.256113
0.831623 0.674985 0.399218
0.893744 0.262983 0.409627
-0.397455 0.108542 -0.253052
0.399186 0.10508 -0.253052
0.403772 0.106015 0.414832
-0.397752 0.118054 0.414832
-0.459561 1.18769 -0.257133
-0.452616 1.25092 0.394013
0.45263 1.25092 0.394013
0.459556 1.18769 -0.257133
-0.876635 0.32331 1.07333
-0.826437 0.375862 1.73609
-0.802959 0.688067 1.70894
-0.894485 0.683501 1.05455
0.876647 0.323545 1.07333
0.894383 0.683512 1.05455
0.802887 0.688064 1.70899
0.82634 0.376093 1.73614
-0.387771 0.143218 1.08272
0.387542 0.127373 1.08272
0.354269 0.179564 1.75983
-0.354498 0.179563 1.75983
-0.34775 1.17391 1.04516
-0.312817 0.971827 1.71607
0.312817 0.971827 1.71607
0.347768 1.1739 1.04516
-0.322812 0.393269 2.22385
0.322861 0.393269 2.22384
0.295361 0.697259 2.17505
-0.295312 0.697259 2.17506
-0.76281 0.21 -1.94801
-0.55125 0.132297 -1.93546
-0.761231 0.121269 -1.75579
-0.625926 0.33375 2.04138
-0.50625 0.251228 2.09831
-0.689394 0.248106 1.91757
-0.72569 0.6 -1.89555
-0.538273 0.739408 -1.95941
-0.749307 0.709223 -1.72221
-0.57464 0.74625 2.0256
-0.42375 0.843647 2.05053
-0.617812 0.855199 1.85909
0.55125 0.132269 -1.93549
0.762986 0.21 -1.94819
0.761387 0.121113 -1.75579
0.50625 0.251146 2.09839
0.625906 0.33375 2.04136
0.689395 0.248105 1.91757
0.538273 0.739281 -1.95928
0.72489 0.6 -1.89475
0.749332 0.709247 -1.72221
0.42375 0.843641 2.05052
0.574643 0.74625 2.02561
0.617812 0.8552 1.85909
-0.792303 0.105197 -0.753964
-0.796701 0.105799 -0.420023
-0.872848 0.159281 -0.586458
-0.59574 0.105073 -0.586994
-0.750516 0.171984 0.915744
-0.807167 0.110333 0.581803
-0.878463 0.177628 0.745125
-0.606202 0.111049 0.748773
-0.745392 0.780981 -0.745493
-0.818578 0.726558 -0.583243
-0.732197 0.793012 -0.41992
-0.617512 0.991176 -0.582707
-0.707464 0.869177 0.882373
-0.787835 0.781572 0.723235
-0.70556 0.842049 0.5568
-0.619468 1.13935 0.719587
0.792303 0.105197 -0.753964
0.59574 0.105073 -0.586994
0.796701 0.105799 -0.420023
0.872837 0.159285 -0.586458
0.745491 0.177009 0.915744
0.606202 0.111049 0.748773
0.805917 0.111583 0.581803
0.878467 0.17763 0.745125
0.745385 0.780975 -0.745493
0.617507 0.991178 -0.582707
0.818603 0.726567 -0.583243
0.732166 0.79298 -0.41992
0.70746 0.869174 0.882373
[...]
POINT_DATA 3682
SCALARS point_scalars float 1
LOOKUP_TABLE default
-97.7854
-34.4102
-57.0376
-30.4311
-97.7762
-35.4249
-57.164
-31.6956
-39.1637
-43.8974
-48.3063
-45.5866
-39.1445
-44.138
-48.3917
-45.7852
2.91461
-81.3664
-40.1496
-45.5364
-43.8837
-34.6436
-30.035
27.6988
-84.0329
-36.7203
-44.1061
-43.0574
-30.4493
-30.0046
46.531
-83.8087
-41.5607
-37.6649
-41.6706
-29.734
-29.556
10.0044
-65.8243
-62.768
-57.5036
-37.0333
-30.2033
-30.2033
46.4825
-113.973
-38.8715
-45.0673
-34.6436
-30.4172
-29.341
77.7582
-29.742
-28.324
152.95
-28.4621
-25.9256
7.76524
-59.8425
-46.0087
-62.8486
-33.373
-28.445
-26.7815
23.0723
-113.03
-39.1592
-45.2774
-35.6793
-30.939
-29.7846
78.8858
-30.3526
-29.3251
155.762
-29.5966
-27.7142
9.48695
-58.0081
-44.6347
-63.4138
-36.8421
-42.5372
-42.5372
3.19974
-81.4381
-40.0865
-45.6945
-44.7047
-35.6424
-30.9184
27.897
-84.0705
-36.7918
-44.2137
-44.1302
-31.2578
-30.7724
48.4903
-83.8873
-41.6231
-37.9237
-38.9432
-40.6116
-41.1933
10.2278
-65.557
-61.4443
-57.7176
-37.0842
-42.5372
-42.5372
-57.1774
-92.9669
-47.6238
-30.6864
-33.515
-38.0038
-68.7285
-46.9157
-28.2574
-44.6444
-57.4428
-47.4942
-31.7156
-37.5631
-46.9282
-45.0201
-37.9751
-38.024
-39.8178
-37.1942
-41.5097
-50.2949
2.33624
-64.6306
-38.0113
-38.0813
-37.4308
-50.3888
-51.081
-51.139
-47.988
-16.6684
208.013
-40.5278
-40.642
-38.9279
-86.1344
-45.0126
-45.5769
-39.0464
-39.9622
-22.7887
-73.967
-96.3223
-68.9046
-31.8397
-33.5184
-42.1829
-46.4009
-76.1234
-55.6942
-30.6998
-28.1868
-37.4149
-96.2255
-76.0321
-68.8439
-34.2666
-32.8206
-42.8086
-77.8256
-46.5129
-55.6816
-29.006
-31.8075
-38.0621
-36.9162
-37.4928
-36.6718
-39.5067
-37.7308
-40.4119
-43.7865
-42.8522
-38.4973
-40.6882
-51.6256
-5.15956
-50.7814
-37.1743
-46.4005
-61.8216
-36.9219
-39.4584
-37.4892
-36.7404
-38.0889
-42.2801
-40.4941
-44.0917
-38.5399
-5.04945
-40.7444
-51.6977
-51.0585
-61.905
-37.5077
-46.5287
-80.8957
166.351
-64.5414
173.041
-49.2082
-47.9441
-43.8132
-27.787
-36.4588
-27.7254
-42.6006
-38.6885
-39.7313
152.25
-52.2482
-23.6079
-32.4755
-23.1135
-48.2183
-40.3593
-80.9308
166.322
-49.2727
-47.7447
-44.8359
-29.2539
-43.1181
-38.9488
-52.29
-23.6317
-48.7789
-40.5469
-39.2072
-38.7766
-41.091
-40.0142
-43.0858
-38.6244
-38.5874
-44.1862
-40.7211
-41.6968
-43.6355
-78.3423
7.22525
-66.5131
-78.7204
-51.1961
-39.3099
-38.6617
-41.0699
-40.0979
-38.7538
-44.5609
-43.7489
-78.3808
-76.3015
-38.5565
-41.1372
-78.222
-76.3147
-78.2997
-41.1732
-38.612
-65.8608
-66.0217
-42.4973
-42.587
-40.6875
-1.90956
-1.97722
-41.8198
152.312
125.661
125.77
152.478
-38.0159
-39.4449
-41.0244
-43.1062
-38.0915
-43.1873
-41.2054
-39.5977
-38.3929
-38.2333
-40.6272
-40.856
-63.4549
-71.8503
-71.9082
-63.3924
-41.3172
-44.3471
-43.378
-45.7605
-41.7257
-46.1169
-44.3659
-45.3306
-39.8734
-41.5297
-37.3074
-36.7457
-51.1591
-33.1454
-33.4863
-51.2741
-29.548
-30.3349
-28.684
-26.9993
-76.7241
-104.97
-83.4431
-32.8713
-33.8077
-38.0598
-42.6138
-61.5232
-67.9547
-30.6238
-28.7814
-33.8273
-104.836
-75.9603
-83.5009
-34.6961
-33.9167
-38.9913
-61.9546
-43.1561
-68.101
-29.8079
-31.8113
-34.7308
-38.9513
-37.2867
-36.7178
-38.8261
-43.9123
-41.6473
-45.1604
-43.9065
-43.682
-43.5527
-50.6655
-38.7106
-48.6438
-42.1635
-45.1414
-56.3453
-38.8683
-38.7767
-37.2747
-36.7801
-44.6911
-43.9866
-41.5269
-45.2694
-43.7564
-38.9878
-43.6262
-50.7349
-48.8955
-56.6191
-42.3518
-45.303
-70.7871
-55.476
-92.2972
96.8836
-95.0098
-94.9004
-77.8016
43.5
-54.3586
-40.2789
-47.4673
-47.7725
-31.2651
-30.6047
-35.6583
-29.4067
-33.4766
-33.9294
-35.544
-30.0353
-39.416
-36.8327
-41.0734
-37.9704
-64.6198
-64.5511
-52.0966
52.9169
-52.2288
-39.9305
-53.4545
-31.6535
-28.1631
-28.6124
-29.746
-25.4883
-41.4416
-48.187
-46.8439
-42.2057
-65.8012
-55.7916
-92.2944
97.1937
-54.3194
-40.8368
-47.5004
-47.5493
-32.2535
-31.6538
-36.6987
-30.3185
-40.2957
-37.7526
-41.4639
-38.1938
-52.2465
-39.9237
-53.4934
-31.6624
-41.9246
-48.5062
-47.3406
-42.4747
-37.8107
-38.8845
-38.659
-38.2959
-37.3225
-39.1174
-37.8521
-39.1984
-39.7305
-39.7035
-41.2632
-38.9061
-39.9542
-36.8459
-36.5669
-42.6803
-41.617
-41.6286
-41.4938
-43.4005
-51.3941
-48.7371
-47.8761
-63.7131
0.661133
0.682797
14.0194
-21.7547
-63.8166
-63.8611
-72.0293
-57.7912
-37.8239
-38.9191
-38.7468
-38.3314
-37.3887
-39.1674
-37.8706
-39.273
-40.2354
-37.1085
-36.7406
-43.0114
-51.4808
-48.8513
-47.9812
-63.7628
-62.8826
-50.2326
-51.7154
-44.8803
-62.9192
-50.2974
-51.7664
-44.954
-54.9158
-48.0802
-47.9635
-44.7227
-29.9722
-18.1528
-18.1731
-5.52847
193.502
182.878
188.72
193.429
-39.8798
-40.3355
-39.9863
-41.7004
-39.9902
-40.4324
-40.1245
-41.8156
-38.8793
-38.6382
-39.693
-38.8589
-84.6129
-86.5192
-79.4421
-84.6408
-47.1346
-43.8823
-46.1132
-43.4024
-47.9434
-44.4285
-46.681
-43.8428
-38.0248
-38.9518
-39.0409
-40.3363
-35.7697
-39.9592
-40.0049
-44.6924
-24.0257
-24.9293
-22.3466
-25.705
-87.0412
87.523
-79.6931
10.0993
-74.5451
-67.9241
-36.5257
-30.1132
-36.4712
-30.6045
-45.0615
-36.9831
-82.3619
66.0938
-57.6839
51.7479
-68.2103
-44.5523
-35.284
-28.9635
-30.193
-27.5063
-42.1264
-34.4414
-79.4962
11.0583
-87.0265
86.5489
-74.5258
-67.9633
-37.157
-31.3694
-37.5348
-30.8776
-46.0545
-38.2125
-57.3527
49.8886
-82.4631
66.7354
-68.2362
-45.2728
-30.7274
-28.9076
-36.3836
-30.0744
-42.9964
-34.9364
-36.3916
-41.2741
-37.1985
-37.8366
-36.1414
-37.448
-40.8864
-38.562
-39.3723
-38.5192
-40.7977
-40.6287
-39.853
-40.6939
-41.9649
-42.9064
-41.3098
-15.7598
-39.0571
-42.0679
-47.4803
-73.6177
5.37424
-25.459
-47.6614
-52.08
-36.9095
-40.5143
-44.7418
-57.4762
-67.3909
-57.2662
-36.5393
-41.1705
-40.8466
-38.4407
-37.2391
-37.7929
-35.9433
-37.531
-39.8285
-40.2531
-41.5357
-43.8481
-40.9333
-40.5108
-40.0242
-41.0581
-41.3395
-15.8
5.29396
-26.0283
-39.0991
-42.1384
-47.5588
-73.6649
-47.9531
-52.2416
-67.4578
-57.3623
-37.0949
-40.8027
-44.8769
-57.5619
-78.4537
-81.82
155.365
157.452
-65.1151
-65.2179
169.774
169.828
-59.8572
-42.9335
-54.3495
-43.8443
-43.9733
-43.2477
-28.6929
-27.3914
-36.7084
-36.505
-28.0994
-28.885
-40.8093
-45.7974
-39.045
-38.1523
-40.019
-40.1809
152.238
151.684
-46.3269
-65.4524
-33.4098
-12.6426
-32.6653
-32.8432
-25.3796
-23.6714
-48.1359
-45.7803
-45.088
-36.4169
-78.4787
-81.8697
157.286
155.37
-59.8872
-43.0877
-54.2253
-44.1542
-44.2481
-44.9914
-29.7616
-29.0026
-41.2296
-46.5491
-39.8591
-37.9844
-65.5139
-46.3551
-12.6431
-33.4269
-46.1857
-48.9113
-36.6651
-45.2323
-38.5613
-39.5132
-38.456
-39.5897
-39.8733
-41.6991
-39.1105
-41.2569
-42.9791
-43.0129
-38.5651
-38.5186
-38.8133
-39.0837
-42.8848
-45.8939
-40.6921
-40.8052
-41.333
-41.7489
-42.8015
-43.5568
-79.798
-75.7311
4.9046
4.81203
-63.8246
-63.8387
-77.0195
-77.0546
-50.9537
-51.0117
-38.6515
-39.6367
-38.3274
-39.4639
-41.6431
-39.9726
-39.1968
-41.3397
-39.2752
-38.9705
-43.2657
-46.2628
-43.6532
-42.9406
-75.7795
-79.8244
-81.2976
-57.4108
-61.337
-92.355
-34.666
-37.2864
-44.0222
-41.4517
-41.0973
-46.6374
-45.4106
-38.274
-77.8399
-88.1376
-63.8477
-63.9485
-81.3857
-92.3548
-61.3718
-57.4278
-78.1737
-63.9955
-63.8904
-88.1219
-41.1548
-38.347
-45.4564
-46.6467
-34.2859
-41.689
-44.131
-37.1349
-81.8501
-78.6923
-55.2353
-55.5394
-81.7944
-55.4243
-55.1669
-78.5548
-40.17
-41.1597
-44.6335
-42.8211
-40.2242
-42.2099
-44.4062
-41.1757
-59.5119
-39.8907
-30.8139
-53.1411
-21.1166
12.1602
-7.21633
-23.643
-21.2043
-23.5477
-7.23796
12.1877
-59.2196
-53.3134
-30.8536
-39.7707
11.7053
87.7304
172.311
18.4536
49.2225
54.7041
183.319
90.0412
50.1288
90.5106
183.111
54.9165
10.4019
20.8141
172.309
87.931
-34.739
-38.6107
-39.4957
-38.3845
-40.7363
-37.9008
-39.6119
-39.2745
-42.2996
-46.8611
-40.8912
-35.6386
-45.9296
-40.3612
-41.7162
-48.3398
-34.7856
-38.4652
-39.5895
-38.6779
-46.0012
-48.4313
-41.813
-40.4315
-42.4239
-35.7617
-41.0323
-46.9831
-40.8513
-39.3789
-39.7452
-38.0856
-37.971
-38.8309
-38.5829
-37.971
-37.9212
-37.9621
-38.5552
-38.7863
-41.7529
-41.5237
-39.6103
-39.1859
-42.0399
-39.2068
-39.6235
-41.6683
-62.1338
-69.7596
-85.971
-21.9159
-56.3588
-71.1697
-81.7494
-59.9383
-56.4901
-60.0111
-81.7799
-71.2132
-61.3986
-21.947
-85.996
-69.863
-43.9122
-38.969
-42.3556
-41.7163
-37.4139
-36.0019
-46.3837
-44.3266
-35.5506
-45.5054
-48.092
-35.6407
-47.0623
-40.7633
-44.5636
-47.7323
-44.6535
-42.031
-42.7911
-39.4259
-47.3389
-48.1024
-45.0004
-41.0825
-36.6787
-36.7239
-48.9036
-46.1501
-38.4183
-45.027
-47.1785
-37.0206
-44.6219
-43.1699
-40.0849
-37.984
-44.9477
-38.3759
-40.3223
-43.5837
-38.5436
-35.9622
-38.1223
-37.9877
-37.7506
-38.468
-38.0398
-35.6624
-55.3271
-46.748
-44.8405
-57.7587
-31.2743
-29.8522
-35.9222
-38.0162
-32.0002
-38.378
-36.043
-30.1328
-55.486
-57.8085
-44.9157
-46.9574
-31.5344
-30.1164
-25.8685
-29.8047
-32.389
-30.5747
-27.1056
-30.6349
-29.8009
-26.701
-25.2756
-30.3702
-28.6526
-29.3997
-23.4702
-25.4851
-85.8258
-107.392
-90.7892
-33.6908
-34.455
-34.8327
-47.5034
-47.3137
-81.7834
-30.8241
-29.3408
-32.1489
-107.265
-85.8086
-90.6846
-35.4354
-34.7444
-35.8002
-49.3861
-47.917
-81.6968
-30.4381
-32.0319
-33.1832
-39.5859
-37.9415
-38.5726
-38.5357
-51.1382
-42.4365
-44.5437
-44.4108
-47.3696
-45.5207
-49.7332
-59.2584
-47.2103
-44.6418
-45.0522
-49.5913
-39.5629
-38.498
-37.928
-38.6031
-51.9078
-44.7197
-42.2777
-44.6378
-47.4556
-59.3536
-45.6031
-49.817
-47.4428
-49.7831
-44.885
-45.2237
-57.173
-55.4603
-101.721
52.3052
-93.4572
-93.4066
-85.2023
-135.218
-50.4734
-43.8511
-46.7296
-47.5104
-31.0185
-30.5186
-33.0081
-29.7539
-33.4441
-33.6746
-35.045
-31.0155
-37.9296
-37.5239
-40.1853
-37.8936
-68.6903
-68.7672
-59.8054
-49.6995
-51.1651
-42.6834
-51.0863
-38.7984
-28.188
-28.4379
-28.911
-26.4436
-42.8541
-46.0438
-45.4813
-43.9008
-57.4484
-55.6649
-101.724
52.0471
-50.4003
-43.5974
-46.6947
-47.3216
-32.0264
-31.5619
-34.0697
-30.6543
-38.1731
-37.6773
-40.1587
-37.6585
-51.2005
-42.661
-51.1258
-38.7971
-43.2706
-46.3886
-45.8946
-44.2181
-37.8515
-38.632
-38.2388
-38.0946
-37.5965
-38.473
-37.6051
-38.8457
-39.816
-39.801
-40.3523
-39.3707
-38.3673
-36.6581
-36.97
-40.2329
-41.5302
-41.5488
-41.0679
-42.2612
-51.038
-49.5768
-49.4505
-54.5349
2.05446
2.04157
10.0443
-9.70659
-64.1804
-64.2056
-68.3232
-60.7729
-37.877
-38.6708
-38.3064
-38.1339
-37.6611
-38.5234
-37.6439
-38.9119
-38.6215
-36.8896
-37.1687
-40.534
-51.1301
-49.6763
-49.5475
-54.6158
-56.1762
-50.6698
-51.4323
-47.7215
-56.22
-50.7314
-51.4873
-47.7889
-50.5271
-48.0439
-47.9913
-45.598
-23.0352
-17.0844
-17.0906
-11.3491
207.019
201.506
199.271
206.972
-40.1527
-40.5128
-40.3239
-41.01
-40.265
-40.6171
-40.4495
-41.1254
-38.9285
-38.7795
-39.294
-38.9179
-85.7186
-88.9075
-85.6613
-85.7343
-45.6287
-44.5046
-45.6067
-44.4676
-46.2808
-45.0614
-46.1756
-44.964
-38.5538
-39.012
-39.0692
-39.5508
-37.7021
-39.9502
-40.0016
-42.2013
-22.7745
-23.5173
-22.337
-23.7814
-73.3411
-67.1554
-107.381
51.9177
-100.238
-95.3953
-88.1003
-115.17
-76.4037
-62.8023
-70.9269
-67.9673
-32.28
-31.4927
-34.2393
-30.7085
-33.9298
-33.6562
-35.6008
-31.8147
-42.0103
-40.8658
-45.4581
-38.1364
-42.9776
-52.2034
-84.5117
25.098
-77.9991
-67.1506
-65.5706
-13.7056
-63.4003
-54.0086
-60.5971
-51.0002
-30.7103
-30.6905
-32.6458
-29.6388
-28.5067
-28.2218
-28.9184
-27.5911
-35.5708
-39.4961
-39.2838
-35.7115
-100.13
-95.3058
-87.963
-115.271
-69.8418
-74.7213
-107.453
51.3172
-76.4233
-62.8053
-70.8768
-67.9351
-34.7235
-34.2597
-36.1946
-32.6778
-33.2835
-32.4715
-35.261
-31.5461
-42.9828
-41.1281
-46.4953
-38.9567
-78.742
-68.2612
-66.1967
-12.6883
-43.0521
-52.4413
-84.2767
24.4441
-63.4285
-54.0282
-60.6326
-51.1243
-29.4567
-28.9606
-29.6133
-28.7941
-31.8529
-31.7612
-33.7821
-30.6516
-36.3298
-40.059
-40.0319
-36.2792
-37.6559
-37.9612
-35.4528
-39.9011
-37.7757
-37.2751
-37.3621
-37.62
-36.7062
-36.96
-36.66
-37.1908
-39.31
-39.5974
-40.0524
-39.004
-38.9143
-36.9291
-38.6473
-38.1496
-40.7684
-39.2286
-40.9621
-40.4095
-45.1245
-41.881
-41.1422
-42.835
-42.8174
-41.9727
-42.279
-43.5451
-40.9531
-38.5332
-40.796
-26.8465
-42.0496
-39.7922
-39.7648
-41.4515
-51.3735
-51.6233
-50.0598
-58.6873
-15.1168
-1.08892
2.47603
-15.512
-49.895
-49.5493
-49.7143
-52.7588
-38.8322
-37.0002
-36.2952
-38.3429
-45.5751
-47.5216
-45.9156
-50.5865
-61.2134
-63.2011
-65.232
-59.4174
-37.4814
-38.4396
-35.6508
-39.8104
-39.2465
-39.5488
-40.1491
-38.8386
-37.7627
-37.2793
-37.3227
-37.6008
-36.7756
-37.0261
-36.7419
-37.275
-39.5945
-37.3114
-39.0581
-38.7356
-42.9871
-41.8581
-41.512
-43.123
-40.9828
-39.27
-41.1323
-40.3867
-45.3997
-42.1461
-41.3696
-43.1254
-40.9587
-38.5644
-40.8235
-26.9746
-14.5098
-1.14807
2.43759
-15.8711
-42.1147
-39.8447
-39.8127
-41.5152
-51.4396
-51.702
-50.1335
-58.7467
-50.16
-49.8457
-49.9976
-53.067
-61.3079
-63.2672
-65.3141
-59.5055
-39.127
-37.3086
-36.5988
-38.6177
-45.7229
-47.6442
-46.0471
-50.6958
-90.9098
-70.8712
-79.5606
-81.5576
142.726
187.34
159.48
171.294
-70.7467
-59.4927
-64.7223
-64.7417
122.849
175.844
164.188
163.775
-48.676
-49.7316
-53.7878
-45.8491
-47.8186
-48.0549
-50.66
-45.4582
-39.0111
-47.0079
-43.8965
-43.7271
-28.8528
-26.1505
-28.2272
-27.556
-36.1095
-37.1132
-36.5409
-36.4394
-28.8241
-26.3404
-27.6464
-28.0925
-41.8896
-43.2632
-41.7834
-43.8309
-38.2919
-38.9143
-38.6854
-38.5665
-46.3588
-35.3398
-39.6868
-39.7501
125.192
175.485
152.74
153.358
-53.1012
-51.9667
-48.5327
-57.6927
-26.6561
-20.4875
-28.4329
-18.1214
-31.0617
-33.9788
-32.5355
-32.6304
-24.2185
-22.4325
-23.9149
-22.9102
-48.5593
-47.102
-48.7282
-47.1624
-40.9962
-40.1334
-42.7066
-38.3307
-90.9553
-70.9169
-79.5908
-81.5973
143.079
187.97
171.141
159.93
-48.7353
-49.7981
-53.8297
-45.9585
-47.5996
-47.8866
-50.5057
-45.0545
-40.0567
-47.9499
-44.7431
-44.9194
-29.9528
-27.8973
-29.4797
-29.1075
-42.3807
-43.8036
-42.2383
-44.4389
-39.2831
-38.9731
-39.306
-38.3005
-53.1405
-52.013
-57.7448
-48.5667
-26.6579
-20.5283
-18.1407
-28.4571
-49.1074
-47.6659
-47.652
-49.3793
-41.2248
-40.2721
-38.5461
-42.8712
-39.0588
-39.5928
-38.849
-39.3856
-38.5265
-38.7915
-38.5454
-39.2564
-39.2043
-42.5552
-40.5159
-41.3845
-39.6307
-40.1965
-39.518
-40.5329
-42.1439
-44.2243
-43.0626
-43.065
-38.7181
-38.52
-38.5979
-38.5777
-37.453
-39.3854
-38.6654
-38.7494
-43.0563
-43.637
-43.48
-45.0477
-41.6341
-40.0554
-40.7066
-40.7692
-42.9171
-40.9779
-41.5631
-41.7524
-45.4598
-42.4439
-43.1329
-43.6663
-72.7161
-81.7644
-80.7755
-76.3618
12.7881
1.09445
6.44824
6.42917
-32.9598
-81.9815
-61.0718
-61.0373
-75.7179
-82.0152
-77.9116
-77.9308
-54.6882
-47.785
-51.1548
-51.1818
-39.1562
-39.701
-38.9419
-39.4991
-38.5094
-38.7718
-38.4711
-39.0655
-39.1514
-42.6349
-41.3009
-40.5817
-39.7108
-40.2854
-39.6026
-40.6161
-37.6235
-39.5372
-38.9249
-38.8253
-43.4017
-44.0413
-43.857
-45.42
-45.5695
-42.5587
-43.771
-43.2568
-72.7569
-81.7983
-76.4095
-80.821
-87.4504
-75.1753
-77.3521
-66.9942
-37.7933
-36.4966
-40.4049
-39.2489
-40.9451
-39.3927
-44.0729
-41.4664
-85.652
-73.2973
-81.4056
-73.4645
-87.4655
-75.1756
-77.3718
-67.0143
-85.7545
-73.3766
-81.4461
-73.4434
-40.9753
-39.4407
-44.0703
-41.4923
-37.8461
-36.1633
-40.6333
-39.3463
-72.3401
-66.6996
-65.4471
-60.504
-72.5147
-66.8394
-65.592
-60.4349
-42.0584
-41.6405
-43.648
-42.807
-42.1163
-41.7863
-43.3609
-42.8494
-48.1511
-40.8292
-40.9415
-37.7818
-7.73413
3.45352
-7.33981
1.94514
-7.78699
3.35197
-7.36626
1.65453
-48.8333
-42.7593
-41.3463
-37.8857
124.081
120.36
153.567
167.535
96.0484
90.3265
141.248
145.368
90.3502
97.0607
144.35
141.18
120.1
124.616
167.068
153.748
-37.6948
-37.7383
-38.249
-38.5879
-39.6546
-39.4914
-39.5215
-39.1206
-39.1392
-42.9754
-39.6094
-41.9759
-42.6546
-44.5798
-42.1248
-43.3356
-37.7674
-37.8134
-38.3327
-38.6712
-42.7311
-44.6591
-42.2069
-43.4241
-39.3328
-43.1193
-39.8039
-42.1303
-39.7974
-39.645
-39.6583
-39.2754
-38.1307
-38.5011
-38.4776
-38.4537
-38.3288
-38.0376
-38.3854
-38.1694
-41.5249
-40.5765
-40.6601
-39.9401
-40.7029
-41.6809
-40.361
-40.6728
-67.1168
-34.2388
-77.3297
-64.5
-66.2993
-70.2121
-73.5881
-75.1535
-70.2766
-66.3725
-75.2037
-73.6372
-34.3538
-67.0555
-64.4955
-77.3568
-40.4172
-40.7879
-41.0368
-42.1194
-40.2717
-44.6954
-44.1401
-46.5254
-38.9261
-43.2678
-43.1991
-45.9771
-46.1273
-43.6042
-46.4263
-46.6374
-40.8631
-41.1299
-41.4432
-42.5084
-46.4378
-43.9625
-46.8017
-47.0076
-39.9759
-44.2284
-44.1943
-46.8486
-41.2728
-45.6521
-45.1443
-47.4329
-39.1631
-41.1949
-39.2285
-40.9064
-41.4498
-43.0062
-40.2748
-41.6266
-37.1973
-37.8816
-36.952
-37.7541
-36.6928
-36.8516
-36.6316
-37.4435
-51.465
-54.4189
-47.969
-50.9912
-31.669
-33.6806
-32.9035
-34.6387
-32.0842
-34.0893
-33.1609
-34.9281
-51.6038
-54.525
-48.0969
-51.0796
-29.875
-30.026
-29.1331
-29.046
-30.7495
-30.6197
-29.8688
-30.0439
-28.6498
-29.4974
-27.3074
-28.8295
-28.1155
-27.0072
-27.1674
-25.4011
-99.3632
-11.2048
-96.1608
-92.8795
-81.3572
-83.6825
-34.6922
-31.7635
-36.1636
-32.7167
-37.7181
-38.5488
-81.9397
12.144
-70.6086
12.8553
-74.4888
-63.9966
-32.6199
-29.3659
-29.8891
-28.5008
-35.5227
-32.2955
-96.0993
-91.5621
-99.4254
-10.8666
-81.5735
-83.701
-36.8925
-33.6231
-35.6972
-32.6782
-38.6953
-39.3264
-70.2654
13.0268
-81.6108
12.4478
-74.8334
-64.1974
-30.7581
-29.6513
-33.8253
-30.4826
-36.576
-33.1006
-35.5742
-39.9301
-36.5698
-37.6661
-37.9505
-35.9906
-39.2083
-38.3628
-44.2325
-44.4121
-40.8735
-41.9649
-43.7744
-45.9283
-42.5722
-47.4802
-41.787
-39.3523
-42.0936
-45.0399
-48.3836
-59.5994
-28.3003
-48.2357
-48.6167
-49.3822
-41.8818
-44.3062
-44.3951
-49.5496
-56.3309
-56.1694
-35.46
-39.8624
-39.1664
-38.3127
-36.7266
-37.637
-38.0494
-36.0534
-44.9656
-45.3681
-42.2916
-47.2669
-40.9058
-41.7623
-43.9735
-46.3195
-41.8447
-39.4063
-28.4202
-50.1198
-42.1569
-45.1124
-48.4546
-59.6159
-48.8689
-49.6247
-56.4425
-56.2913
-42.0646
-44.5498
-44.5516
-49.6927
-108.205
55.1244
-90.8733
41.399
-92.3423
-89.8598
97.6444
95.9502
-86.3337
-134.081
-86.2332
-133.926
-78.201
-78.1689
33.4472
34.557
-56.3246
-55.6875
-40.4565
-41.4164
-51.6748
-44.2421
-51.0618
-45.0702
-33.6007
-30.1771
-32.593
-29.8402
-35.8155
-35.5909
-29.6118
-29.351
-35.1484
-31.2466
-35.516
-31.7622
-35.6973
-35.544
-30.0175
-30.2759
-42.7786
-38.6149
-37.3675
-37.1275
-40.0464
-42.6757
-37.7199
-38.3949
-61.1364
-38.0069
-61.338
-36.9793
-52.3889
-52.471
44.7185
44.7982
-58.6413
-45.2749
-44.3125
-31.5447
-50.2586
-58.7428
-36.4419
-27.9894
-28.8322
-26.5616
-29.1477
-27.423
-29.7634
-29.914
-25.8892
-25.2047
-43.3269
-39.503
-48.1349
-48.508
-46.4562
-46.9255
-44.4941
-39.9427
-108.314
54.6907
-90.8188
41.0535
-92.3386
-89.8843
96.0634
97.555
-56.2664
-55.5895
-40.8168
-41.9728
-51.6885
-44.3562
-50.9046
-44.4759
-34.6399
-31.0045
-33.6937
-30.7887
-36.6585
-36.8438
-30.4542
-30.299
-43.4213
-38.9726
-37.7812
-38.0129
-40.4184
-43.2486
-38.2391
-37.8159
-58.679
-45.2584
-44.3114
-31.0408
-58.7911
-50.2793
-28.227
-36.3813
-43.9002
-39.9222
-48.4682
-48.7311
-47.3438
-47.0133
-40.2532
-44.7337
-37.8466
-37.7673
-38.9259
-39.0481
-37.4353
-39.0673
-38.1029
-38.6038
-37.1078
-38.1464
-38.5241
-39.7744
-37.5418
-38.0731
-38.7636
-39.7059
-40.2695
-39.2872
-40.2564
-39.2482
-41.2176
-41.2279
-38.9149
-38.8948
-38.1425
-42.3135
-35.572
-38.2506
-37.1678
-35.9597
-42.695
-42.1324
-41.2617
-42.2471
-41.195
-42.3831
-41.4439
-41.4845
-43.3227
-43.4984
-50.2413
-56.8725
-48.1971
-52.3355
-47.3771
-48.2981
-66.3033
-61.8666
8.39922
-10.2039
8.40792
-10.3967
13.1771
13.2046
-21.8625
-21.7435
-67.258
-60.5038
-67.3012
-60.5508
-71.8799
-71.9012
-57.6933
-57.7195
-37.9574
-37.7719
-39.0073
-39.0618
-37.5127
-39.1682
-38.1113
-38.7852
-37.1869
-38.2147
-38.5561
-39.8362
-38.1798
-37.4073
-38.8413
-39.7776
-38.3633
-42.6494
-35.7455
-38.5421
-36.0561
-37.3469
-43.0262
-42.4613
-50.3302
-56.9507
-48.3111
-52.4275
-48.3963
-47.4882
-61.9087
-66.3943
-62.1067
-63.4493
-55.0644
-46.8789
-48.2468
-56.8649
-44.4604
-45.26
-62.1531
-63.4863
-55.1065
-46.9658
-56.9145
-48.2978
-45.3145
-44.55
-54.4549
-54.4193
-50.6114
-45.7692
-50.5179
-45.5136
-44.7706
-44.6918
-30.4278
-30.3441
-24.5727
-12.835
-12.845
-24.6388
-6.24562
-6.26724
189.983
192.983
177.318