# vtk DataFile Version 2.0
tri_press
ASCII
DATASET UNSTRUCTURED_GRID
POINTS 3682 float
-0.747757 0.265 -2.065
-0.772273 0.385 2.145
-0.765 0.548656 -2.085
-0.689497 1.015 2.115
0.725 0.265 -2.06386
0.747872 0.385 2.145
0.735 0.554444 -2.085
0.615 1.04765 2.145
-0.830511 0.230418 -0.661667
-0.84552 0.263581 0.741667
-0.865256 0.829528 -0.685
-0.817716 0.962604 0.715
0.806771 0.230853 -0.660907
0.821119 0.264129 0.742047
0.830094 0.85394 -0.675
0.760035 0.988283 0.735
-1.54768 -0.120026 -3.1831
-1.55645 -0.0311826 -2.05913
-1.60962 -0.047796 -0.656707
-1.61041 -0.0487357 0.74464
-1.5563 0.035586 2.14694
-1.5472 0.116498 3.27033
-1.56112 0.195601 4.39441
-1.55003 0.115952 -3.19219
-1.55969 0.23946 -2.06817
-1.62968 0.25469 -0.666131
-1.6142 0.27433 0.734862
-1.52886 0.362361 2.13693
-1.53443 0.443262 3.26132
-1.56074 0.52114 4.38594
-1.56252 0.520377 -3.21173
-1.57807 0.637573 -2.0884
-1.65328 0.838158 -0.688414
-1.59887 0.946518 0.710164
-1.48307 1.01205 2.11081
-1.52109 1.09342 3.23997
-1.5698 1.17327 4.36765
-1.58937 1.31493 -3.24098
-1.60401 1.45915 -2.11788
-1.63668 1.69227 -0.715281
-1.64145 1.88432 0.686774
-1.62035 2.00279 2.09041
-1.61799 2.07693 3.21567
-1.63213 2.14918 4.34179
-0.763883 -0.106257 -3.18075
-0.755109 -0.0117716 -2.05649
-0.804272 -0.0574372 -0.653565
-0.823232 -0.0591615 0.748667
-0.790728 0.0435378 2.15158
-0.788782 0.124501 3.2758
-0.80196 0.201983 4.40015
-0.768005 0.118886 -3.18999
-0.789455 0.455032 3.26856
-0.80874 0.529216 4.39254
-0.777649 0.485797 -3.2096
-0.784313 1.10401 3.24874
-0.825078 1.18278 4.37545
-0.794935 1.2933 -3.23774
-0.802724 1.43957 -2.11402
-0.838091 1.69286 -0.710088
-0.863395 1.89898 0.693567
-0.862962 2.01757 2.09821
-0.865167 2.08944 3.22351
-0.877098 2.1601 4.34925
0.771252 -0.101404 -3.17786
0.775752 -0.00935256 -2.05441
0.815925 -0.0548862 -0.651522
0.812373 -0.0564254 0.750784
0.761678 0.0467766 2.15429
0.731805 0.133069 3.28316
0.716472 0.213722 4.41008
0.751859 0.123425 -3.18759
0.700709 0.465569 3.27787
0.693104 0.542435 4.40389
0.751648 0.492909 -3.20715
0.640319 1.12498 3.26746
0.653576 1.19998 4.3903
0.781595 1.30548 -3.23179
0.786704 1.45369 -2.107
0.764577 1.71056 -0.699822
0.703615 1.91911 0.707985
0.649068 2.03872 2.11522
0.633206 2.10952 3.24008
0.628876 2.17845 4.36435
1.55274 -0.107628 -3.17605
1.56149 -0.0206099 -2.05263
1.61323 -0.0360652 -0.648845
1.61014 -0.0358223 0.75469
1.54505 0.0504141 2.15944
1.5044 0.136695 3.2875
1.48548 0.21977 4.41468
1.53277 0.128552 -3.18568
1.53399 0.251123 -2.06182
1.60719 0.269633 -0.656941
1.60006 0.291032 0.748162
1.51181 0.381357 2.15359
1.46913 0.467308 3.28221
1.45814 0.547937 4.40871
1.5334 0.537279 -3.20461
1.54166 0.657634 -2.08065
1.61221 0.871616 -0.671233
1.54721 0.984498 0.739414
1.41557 1.05523 2.14886
1.40114 1.1311 3.27297
1.41213 1.20664 4.39613
1.56788 1.33954 -3.22851
1.575 1.48719 -2.10335
1.55953 1.72623 -0.695093
1.49452 1.92256 0.714086
1.42424 2.04279 2.12222
1.39861 2.11544 3.24711
1.39233 2.18498 4.37103
-0.76933 0.406828 -2.08795
-0.0113785 0.251835 -2.07759
-0.797287 0.239556 -1.36333
-0.739993 0.7 2.13911
-0.0122005 0.344944 2.18506
-0.820456 0.312731 1.44333
-0.015 0.649756 -2.18321
-0.857019 0.730983 -1.385
-0.0372485 1.07885 2.17752
-0.779655 1.01485 1.415
0.744585 0.409722 -2.08902
0.783269 0.230543 -1.36238
0.690714 0.716325 2.15428
0.799298 0.309762 1.44352
0.839214 0.760859 -1.38
0.733634 1.06408 1.44
-0.84295 0.242065 0.04
-0.895269 0.529973 -0.673334
-0.0118699 0.214622 -0.661287
-0.8873 0.613092 0.728333
-0.0122005 0.246675 0.741857
-0.847528 0.902108 0.015
-0.017581 1.16234 -0.68
-0.0288406 1.45713 0.725
0.818823 0.242613 0.04057
0.869043 0.542396 -0.667953
0.862631 0.626206 0.738523
0.80255 0.928597 0.03
-0.859155 0.4684 -1.37417
0.878973 0.476059 -1.37119
-0.0116242 0.231672 -1.36286
-0.0162905 0.909956 -1.3825
-0.0131892 0.408275 -2.17892
-0.888781 0.571533 0.0275
0.866427 0.584301 0.035285
-0.0120352 0.20904 0.040285
-0.0232108 1.43495 0.0225
-0.865836 0.656546 1.42917
0.881222 0.671265 1.44176
-0.0122005 0.307154 1.44343
-0.0330446 1.29361 1.4275
-0.0247245 0.708162 2.22777
-0.75776 0.335914 -2.07569
-0.379568 0.252181 -2.07753
-0.783289 0.241511 -1.71417
-0.802287 0.5425 2.18821
-0.392237 0.34619 2.18381
-0.808817 0.336413 1.79417
-0.770184 0.477742 -2.0895
-0.39 0.631353 -2.16625
-0.816158 0.644968 -1.735
-0.734228 0.8575 2.14654
-0.363373 1.06822 2.16756
-0.748952 1.0293 1.765
0.356811 0.252189 -2.07696
0.734398 0.337361 -2.07604
0.762263 0.239643 -1.71312
0.367836 0.308578 2.22142
0.769844 0.550662 2.20019
0.79649 0.324476 1.79426
0.36 0.635283 -2.16729
0.744322 0.482083 -2.09154
0.808366 0.678911 -1.7325
0.288876 1.07149 2.16951
0.669701 0.881987 2.16648
0.687322 1.06887 1.7925
-0.825472 0.223414 -1.0125
-0.839155 0.233817 -0.310833
-0.871843 0.375719 -0.6675
-0.430707 0.203488 -0.661477
-0.818821 0.302323 1.0925
-0.842997 0.254061 0.390833
-0.879091 0.431996 0.735
-0.41829 0.276268 0.741762
-0.862405 0.781522 -1.035
-0.884325 0.681781 -0.679167
-0.859327 0.868753 -0.335
-0.502558 1.11821 -0.6825
-0.797478 0.98752 1.065
-0.879791 0.80149 0.721667
-0.833942 0.933675 0.365
-0.532411 1.42813 0.72
0.804815 0.220903 -1.01165
0.407062 0.203515 -0.661097
0.815011 0.234519 -0.310168
0.848851 0.381153 -0.66443
0.796921 0.300233 1.09279
0.425739 0.212842 0.741952
0.818749 0.254593 0.391308
0.855598 0.438306 0.740285
0.832197 0.804942 -1.0275
0.464263 1.12416 -0.6775
0.859257 0.703012 -0.671477
0.818921 0.893868 -0.3225
0.742889 1.02224 1.0875
0.469644 1.4308 0.73
0.852036 0.827596 0.736762
0.782922 0.960069 0.3825
-0.841534 0.437614 -1.73106
-0.391259 0.407551 -2.17784
-0.0115014 0.237762 -1.72023
-0.0122839 0.330055 -2.15303
-0.850761 0.353978 -1.36875
-0.404456 0.226644 -1.3631
-0.851488 0.678273 1.78414
-0.382359 0.704081 2.21298
-0.0122005 0.324582 1.81424
-0.0184625 0.526553 2.31678
-0.865472 0.484639 1.43625
-0.416328 0.291507 1.44338
-0.0156452 0.83919 -1.78285
-0.0140946 0.529015 -2.31671
-0.860911 0.599692 -1.37958
-0.436655 0.894874 -1.38375
-0.0351465 1.10686 1.80251
-0.0309865 0.893505 2.17553
-0.859082 0.835698 1.42208
-0.40635 1.27516 1.42125
0.865747 0.442891 -1.7301
0.365698 0.408998 -2.19362
0.867748 0.353301 -1.36679
0.385822 0.226625 -1.36262
0.823668 0.693795 1.79802
0.332995 0.712244 2.21568
0.879953 0.490514 1.44264
0.393549 0.26402 1.44348
0.88231 0.618459 -1.3756
0.411462 0.895365 -1.38125
0.828698 0.867674 1.44088
0.350295 1.27326 1.43375
-0.878724 0.40037 0.03375
-0.437141 0.206256 0.0401425
-0.856418 0.499187 -1.02375
-0.893942 0.550753 -0.322917
-0.0117471 0.211522 -1.01207
-0.0119526 0.215958 -0.310501
-0.889707 0.592312 0.377917
-0.863997 0.634819 1.07875
-0.0121179 0.211122 0.391071
-0.0122005 0.299989 1.09264
-0.888103 0.746794 0.02125
-0.552833 1.40345 0.01875
-0.0169357 0.971742 -1.03125
-0.0203959 1.36119 -0.32875
-0.0260257 1.45812 0.37375
-0.0309426 1.43032 1.07625
0.85555 0.406994 0.0379275
0.413179 0.206257 0.0404275
0.881673 0.509228 -1.01957
0.863182 0.563349 -0.316334
0.865328 0.605254 0.386904
0.88379 0.648736 1.09014
0.86292 0.770665 0.0326425
0.504383 1.4112 0.02625
-0.828814 0.344946 -1.72261
-0.850859 0.367087 -1.01813
-0.868478 0.639721 -1.02938
-0.846865 0.538717 -1.73303
0.859004 0.345331 -1.72161
0.868624 0.550271 -1.7313
0.855451 0.658314 -1.02354
0.883288 0.369963 -1.01561
-0.392012 0.235784 -1.7172
0.371316 0.235762 -1.71667
0.391636 0.19179 -1.01186
-0.412823 0.191858 -1.01229
-0.413327 0.827641 -1.75893
-0.439037 0.949317 -1.03313
0.408859 0.928052 -1.02938
0.385731 0.828259 -1.75768
-0.385414 0.332985 -2.18189
-0.39063 0.503379 -2.28813
0.362849 0.505549 -2.28878
0.361254 0.333708 -2.12386
-0.875398 0.387987 -0.316875
-0.879379 0.415947 0.384375
-0.884699 0.774518 0.371458
-0.887561 0.714962 -0.328958
0.85231 0.394019 -0.313251
0.861481 0.737035 -0.319417
0.857973 0.799378 0.384702
0.855898 0.422489 0.389106
-0.433935 0.204849 -0.310667
0.410129 0.204869 -0.310335
0.428301 0.191866 0.39119
-0.451388 0.193917 0.390952
-0.550365 1.30617 -0.331875
-0.547172 1.42489 0.369375
0.492527 1.43203 0.378125
0.507543 1.31412 -0.325625
-0.861341 0.461488 1.08563
-0.867349 0.513569 1.78915
-0.833095 0.846599 1.77457
-0.870112 0.811773 1.07188
0.880326 0.467841 1.09146
0.828968 0.837459 1.08882
0.801597 0.874831 1.79526
0.842939 0.520588 1.79614
-0.422594 0.287508 1.09257
0.399004 0.258446 1.09271
0.380692 0.279157 1.80425
-0.404282 0.324476 1.8042
-0.414814 1.41587 1.07063
-0.384861 1.10195 1.78376
0.319585 1.09998 1.79751
0.357946 1.41659 1.08188
-0.387298 0.534527 2.30406
0.350415 0.538608 2.30554
0.310935 0.887746 2.22245
-0.372866 0.875503 2.22283
-0.750871 0.300457 -2.06846
-0.563662 0.25366 -2.0762
-0.768911 0.249868 -1.88958
-0.797778 0.46375 2.1771
-0.582255 0.356371 2.17363
-0.802808 0.348444 1.96958
-0.769205 0.513199 -2.08886
-0.5775 0.583503 -2.11912
-0.792381 0.598614 -1.91
-0.722721 0.93625 2.14163
-0.526435 1.05284 2.15251
-0.728561 1.03149 1.94
0.540905 0.253681 -2.07532
0.727511 0.30118 -2.06776
0.748715 0.247238 -1.88849
0.557854 0.355057 2.17494
0.770032 0.467831 2.18377
0.77834 0.348579 1.96963
0.5475 0.586472 -2.11775
0.742457 0.518264 -2.09106
0.76813 0.613124 -1.90875
0.451938 1.06002 2.1577
0.645385 0.964819 2.15878
0.659299 1.0664 1.96875
-0.828023 0.226884 -0.837084
-0.834526 0.232425 -0.48625
-0.839168 0.309073 -0.664584
-0.633647 0.210876 -0.661572
-0.848397 0.266726 0.917083
-0.842826 0.260254 0.56625
-0.859116 0.349383 0.738333
-0.667324 0.199088 0.741714
-0.864015 0.80571 -0.86
-0.878375 0.757447 -0.682083
-0.86338 0.850229 -0.51
-0.729431 1.06492 -0.68375
-0.807843 0.975308 0.89
-0.86398 0.88966 0.718333
-0.826322 0.948632 0.54
-0.685362 1.21596 0.7175
0.804265 0.227406 -0.836276
0.610067 0.210883 -0.661002
0.810711 0.232866 -0.485538
0.816313 0.311752 -0.662668
0.87557 0.215631 0.917416
0.65019 0.184963 0.741999
0.818561 0.260734 0.566678
0.836616 0.352089 0.741166
0.833268 0.831564 -0.85125
0.685759 1.06621 -0.67625
0.85101 0.781644 -0.673238
0.825294 0.87469 -0.49875
[...]
POINT_DATA 3682
SCALARS point_scalars float 1
LOOKUP_TABLE default
-61.6937
-49.6166
-19.6591
-39.4992
-80.096
-48.4918
5.98738
-37.0891
-40.0081
-39.8586
-56.6325
-49.0183
-37.4514
-25.3528
-57.4547
-48.3466
-30.2172
-109.347
-39.9271
-45.4937
-48.9111
-45.5057
-40.4909
31.9676
-114.061
-42.2324
-45.4149
-48.5676
-44.8673
-39.9082
62.1211
-90.3474
-51.7104
-46.2511
-43.9834
-42.412
-38.5351
61.5876
-48.0047
-99.3155
-55.0998
-38.5623
-39.6756
-38.5926
80.7181
-119.631
-40.1862
-42.3506
-48.5214
-39.6748
-38.8511
80.7181
-38.9472
-38.7731
176.641
-37.1672
-38.4235
147.854
-41.772
-74.3931
-60.5355
-36.1891
-35.6236
-35.9385
75.0482
-106.765
-38.0533
-42.6276
-47.4406
-39.1107
-38.6747
75.0482
-38.5994
-38.5446
176.403
-36.1813
-37.9676
148.265
-38.6047
-86.1386
-59.3501
-34.8878
-34.4761
-33.8169
-42.7918
-77.1475
-36.8618
-34.3782
-46.1915
-44.1014
-39.6079
32.551
-80.2832
-37.9705
-34.3782
-45.5565
-42.4746
-39.3289
71.5628
-52.3133
-50.4088
-44.4166
-42.6958
-41.948
-38.8189
57.6691
-42.7868
-98.6685
-54.5826
-37.7105
-36.7691
-36.7691
-27.3242
-119.141
-43.5203
-41.335
-43.2746
-38.3104
112.484
-50.0888
-32.0827
-44.5544
-9.15938
-47.949
-39.3068
-40.3496
-55.9469
-45.5942
-40.0945
-44.7056
-43.0871
-45.4022
-44.1414
-55.6708
26.2005
-64.6822
-37.7411
-41.5756
-38.9919
-55.6256
-44.765
-56.0162
-49.9119
-0.87126
177.907
-43.9964
-42.6883
-43.1244
-94.1287
-41.0002
-47.7058
-37.8059
-39.1021
-32.7001
-36.6701
-134.13
-61.0537
-45.539
-45.0463
-42.0903
-16.9337
98.1559
-46.5387
-41.6964
-34.0343
-39.664
-136.456
-25.5581
-68.3009
-44.1072
-43.627
-45.6634
98.0819
3.12253
-44.6828
-33.4514
-38.7582
-38.5766
-42.9837
-39.5982
-42.0164
-41.9429
-38.4525
-40.7869
-45.459
-43.1884
-40.4193
-48.5237
-57.5311
9.58665
-45.8087
-45.7991
-52.3809
-61.1978
-47.1273
-41.6849
-37.4125
-37.9542
-43.7632
-45.4943
-36.2402
-32.8641
-44.1366
11.5397
-46.74
-58.3901
-45.9169
-58.8643
-43.7735
-52.1195
-58.9624
149.963
-69.4417
191.077
-43.8216
-48.6992
-44.9539
-36.8663
-40.431
-36.9327
-40.4795
-38.6066
-25.7928
195.311
-47.7012
-8.50159
-34.233
-29.8828
-41.654
-40.4135
-73.536
148.673
-52.006
-49.7307
-44.0188
-36.0592
-45.015
-38.2616
-59.4558
-9.33139
-46.8909
-39.9211
-41.7579
-41.4563
-35.3506
-45.0938
-42.2486
-41.5744
-44.4663
-39.5617
-47.0545
-38.9934
-48.3758
-85.3274
25.7542
-64.7741
-77.3539
-52.7312
-39.2307
-40.349
-49.854
-41.8133
-41.2149
-44.1152
-47.5355
-87.1142
-58.454
-37.7668
-38.6088
-61.749
-71.885
-67.8721
-47.4626
-51.5382
-68.4014
-69.5178
-44.16
-43.5699
-26.7946
11.702
11.7513
-26.8443
163.865
187.985
193.007
156.653
-41.6287
-42.284
-47.1952
-49.7468
-38.4575
-48.1958
-45.2566
-37.9472
-40.8681
-40.2559
-45.8178
-47.8361
-76.8203
-68.7871
-69.99
-81.1648
-38.5233
-42.2961
-43.467
-43.4483
-43.5349
-43.8135
-43.1447
-45.8475
-39.2687
-39.4691
-39.4864
-41.294
-54.6967
-35.3546
-34.9924
-54.0249
-38.5963
-38.4551
-33.1661
-34.8561
-43.5357
-144.003
-86.0463
-47.2075
-46.6677
-46.7571
-9.33244
61.0981
-67.5142
-40.6228
-35.5237
-38.9983
-137.064
-42.1212
-87.6367
-46.3184
-45.5046
-44.0136
66.2673
5.06859
-38.561
-34.3872
-38.0944
-37.2167
-41.3495
-39.6323
-40.9221
-40.8701
-50.2269
-41.0549
-44.416
-46.1142
-49.1746
-51.6446
-57.7733
-68.8597
-47.4433
-47.2416
-50.7432
-53.118
-40.3543
-40.3184
-37.1904
-37.0602
-65.1062
-48.0265
-34.8666
-26.7753
-51.1386
-56.4455
-51.2648
-58.7488
-47.0011
-52.761
-46.3159
-49.6699
-37.1257
-19.1563
-95.9042
141.798
-121.926
-120.393
-87.9818
90.0952
-51.8963
-39.8051
-43.6323
-47.1371
-42.9894
-41.6211
-46.3302
-37.768
-43.709
-43.8965
-40.7852
-38.7155
-42.3512
-37.2718
-39.9419
-37.6295
107.448
105.855
-41.3913
117.71
-58.2039
-39.0385
-49.7366
-20.7105
-32.9251
-32.3895
-34.3483
-28.4352
-42.3932
-45.0032
-43.2884
-43.3175
-16.3925
-5.54734
-55.7668
151.002
-54.841
-44.7319
-50.8281
-49.0064
-41.6245
-39.0154
-44.1757
-37.3378
-44.2972
-40.076
-43.498
-38.6757
-51.1575
-48.1682
-63.3051
-23.0332
-41.8444
-46.0954
-45.3555
-42.1019
-39.7091
-39.7924
-41.3211
-40.4215
-43.4688
-46.3098
-44.6248
-45.1193
-42.837
-42.6902
-42.6069
-42.1092
-45.1275
-45.1297
-44.6767
-44.0185
-43.3777
-44.2078
-49.1106
-41.4273
-56.4989
-53.5829
-51.3575
-67.4916
23.638
23.7887
36.3625
-5.06983
-63.8481
-63.5711
-70.4491
-58.942
-37.9365
-36.5703
-38.3801
-38.659
-39.4878
-43.6472
-41.0546
-41.6867
-36.9759
-41.396
-40.2286
-39.829
-57.0895
-53.4725
-51.4887
-67.9372
-54.0832
-44.4312
-45.832
-41.2735
-63.5294
-54.0156
-57.0474
-49.2854
-57.8537
-49.4962
-49.9922
-44.2484
-13.8669
-2.48249
-2.81681
10.9052
166.412
178.616
196.16
169.131
-42.4758
-44.9689
-44.2319
-46.1607
-40.7089
-42.4973
-41.7645
-44.8137
-42.5083
-41.6079
-44.2925
-41.9737
-93.3165
-108.213
-85.5142
-93.2187
-40.6376
-40.7115
-41.7755
-40.0632
-48.2867
-45.8794
-48.6171
-45.0269
-40.0065
-39.1386
-38.5282
-38.4355
-35.9076
-39.4782
-39.2662
-44.5732
-34.4167
-34.1916
-30.6965
-33.62
-89.9617
97.0108
-90.0313
53.7869
-58.3862
-66.5499
-47.8288
-38.8955
-42.0886
-40.004
-41.7664
-41.5573
-91.6729
144.587
-36.1273
107.815
-56.0144
-32.3391
-44.1253
-37.4782
-34.3897
-34.2091
-41.8903
-36.4933
-90.8414
70.6806
-77.1102
103.525
-69.5228
-68.3824
-40.9278
-39.2749
-44.4848
-38.6176
-46.9489
-40.7402
-35.8869
103.939
-49.4367
145.86
-52.1431
-32.6645
-34.1942
-32.3484
-42.7643
-36.6684
-41.242
-36.101
-41.0124
-42.6285
-40.5543
-40.125
-42.4236
-41.7041
-43.5801
-41.1988
-37.95
-38.9687
-41.8022
-44.664
-42.8766
-42.6033
-48.6425
-41.3785
-40.2029
-8.15073
-47.1334
-49.6183
-53.2796
-80.9677
20.6655
-21.3104
-44.5338
-54.4306
-46.5832
-44.5952
-49.2816
-60.5142
-63.8516
-57.5956
-54.3583
-43.6036
-43.6993
-40.639
-37.6592
-39.0162
-40.3354
-38.1489
-42.9002
-41.0131
-48.1808
-45.6736
-37.1567
-40.5925
-36.3231
-46.7721
-48.7051
-5.45586
21.0317
-18.7305
-45.1336
-47.8168
-52.5883
-84.3429
-45.3934
-55.0525
-63.0872
-58.4544
-44.3053
-44.423
-48.4988
-59.8947
-59.3383
-59.3557
155.982
170.271
-68.9427
-69.6474
175.253
179.171
-51.8052
-40.2707
-56.7329
-42.8281
-43.2884
-44.5073
-37.29
-36.2988
-39.3987
-40.6985
-37.8122
-37.6233
-38.7901
-40.6705
-37.9174
-41.6987
-25.5235
-25.6705
199.151
200.691
-41.2258
-58.422
-17.6355
1.7283
-34.5635
-34.367
-30.7023
-32.0191
-43.0586
-41.6128
-46.2845
-37.1813
-72.9187
-75.7409
170.265
144.056
-60.4692
-47.1548
-57.8358
-43.7635
-43.7122
-45.4796
-36.7094
-35.2042
-43.1569
-47.7847
-38.4279
-39.2349
-72.6157
-51.2434
0.925801
-18.008
-46.3941
-44.4746
-36.7966
-45.5298
-41.6851
-42.0068
-41.0258
-41.7483
-36.3149
-36.2061
-43.2723
-47.0352
-42.3249
-42.1009
-41.3501
-41.0883
-43.321
-45.5932
-39.0785
-41.3299
-47.7981
-48.4545
-39.2173
-39.3318
-48.2189
-49.1168
-103.328
-74.6344
22.2204
22.2579
-57.138
-59.8565
-75.7701
-75.65
-53.3498
-53.0192
-39.0427
-38.7269
-40.1432
-40.4345
-48.7558
-49.9559
-39.8748
-44.8054
-42.9389
-39.4871
-44.1191
-44.0764
-48.0381
-46.7007
-75.2414
-100.98
-87.9484
-51.7634
-52.7147
-98.7286
-41.7292
-43.9923
-40.6683
-39.3916
-48.8453
-41.508
-41.1542
-46.3701
-81.7578
-94.086
-55.3503
-63.3137
-79.4755
-61.677
-61.9523
-58.0723
-42.2956
-70.077
-67.3352
-52.8374
-48.9168
-42.6257
-50.4132
-51.5492
-39.5904
-45.7381
-48.461
-40.9349
-88.0953
-88.7265
-57.4739
-54.6155
-87.6865
-56.4955
-58.091
-89.1819
-42.788
-43.365
-44.055
-43.8599
-42.6853
-41.8953
-43.657
-43.4347
-23.0282
-25.5709
-14.5942
-40.7578
-20.1369
33.0014
9.1549
-12.3931
-19.662
-15.0257
8.6286
33.399
-29.0685
-40.1991
-14.6974
-26.751
43.2244
141.432
168.87
86.8294
110.553
113.373
189.82
153.033
106.676
150.672
187.865
114.249
35.9325
89.0111
170.508
134.208
-40.6477
-40.9458
-43.1845
-43.4791
-42.0336
-43.7568
-42.8055
-41.2603
-48.3536
-50.7537
-46.1052
-45.3426
-53.5382
-47.0743
-46.5801
-52.3703
-37.2852
-39.5865
-40.4196
-38.1346
-52.644
-52.1177
-44.9357
-44.3067
-47.5718
-41.9788
-44.0949
-50.175
-35.0731
-37.5246
-40.0857
-38.6026
-40.2799
-41.9338
-41.6689
-40.4685
-39.3953
-39.1116
-41.2364
-41.6355
-45.4837
-48.8472
-43.4411
-36.9587
-45.9294
-39.1476
-44.1255
-49.3445
-89.0232
-73.0303
-107.719
-5.75731
-56.0665
-69.4129
-83.2725
-62.272
-55.612
-62.5775
-83.3905
-69.1086
-92.4499
-5.88226
-107.295
-74.04
-42.5088
-38.0933
-39.6953
-43.2379
-48.0351
-47.0447
-40.2681
-41.1838
-42.3731
-42.6548
-41.9692
-45.3998
-45.7914
-44.789
-40.6532
-43.249
-54.413
-40.8547
-44.4097
-41.9338
-45.8035
-46.188
-46.1069
-41.1376
-41.0098
-43.5918
-46.2506
-43.1454
-44.4172
-47.3732
-48.0238
-44.0338
-47.0236
-40.6167
-38.247
-37.2831
-50.0934
-38.6071
-38.5218
-42.6421
-43.2843
-40.872
-39.3246
-41.5713
-43.7134
-42.1738
-40.8926
-41.2922
-50.9454
-49.2772
-45.0605
-59.0522
-35.1135
-34.2859
-36.3308
-38.9366
-34.6671
-38.3523
-36.0936
-34.2519
-50.8984
-58.8415
-44.6753
-48.022
-40.3568
-39.1734
-35.4804
-38.0302
-40.0254
-37.5092
-34.6178
-39.1659
-35.6487
-29.4522
-31.6576
-37.1653
-36.8151
-37.8428
-32.7614
-30.9756
-50.2046
-129.687
-116.264
-48.7596
-47.5092
-50.6229
-16.3399
40.5007
-58.9679
-40.3614
-37.1372
-39.1456
-138.367
-54.8764
-94.0569
-46.7722
-47.2654
-46.5543
45.9813
6.87212
-34.589
-35.2657
-38.3779
-37.3536
-40.5239
-39.7584
-40.2025
-40.2092
-45.4937
-41.3494
-42.2476
-42.0278
-53.232
-53.7977
-56.9727
-77.1955
-48.2337
-48.3535
-49.9489
-50.7971
-38.6016
-39.2547
-37.3872
-36.8816
-32.2511
-42.1305
-32.9537
-23.2036
-55.4351
-78.6845
-54.271
-58.7096
-47.7175
-50.2957
-48.5025
-49.1131
-34.7256
-24.0421
-95.3103
74.9945
-118.474
-118.723
-101.188
54.3217
-47.9424
-40.923
-43.4396
-45.561
-41.0318
-41.5626
-46.3719
-38.3328
-43.3752
-43.2929
-44.2963
-40.3914
-38.8715
-37.1329
-39.5846
-37.9788
110.505
108.848
-16.2107
123.567
-54.6651
-45.9598
-50.0637
-34.9425
-32.411
-32.0327
-34.9437
-27.9707
-43.1606
-44.8675
-43.8872
-45.8603
-13.9265
-6.11958
-65.6164
76.4154
-50.6304
-47.278
-49.9092
-48.6121
-39.2512
-39.2752
-43.8849
-37.7008
-41.4367
-40.1074
-42.6012
-39.0631
-54.8103
-51.181
-62.4108
-37.0053
-43.4439
-46.4387
-45.2393
-44.9931
-40.0134
-39.6772
-40.939
-40.4583
-44.1784
-45.4261
-44.2503
-45.0881
-43.2063
-43.1765
-43.9583
-42.528
-45.5992
-44.9851
-44.8108
-46.0966
-43.4219
-43.6416
-44.8794
-43.0959
-56.1996
-54.6036
-53.708
-60.7348
25.4393
25.4261
33.9771
13.9039
-64.4222
-64.4516
-67.3148
-61.6904
-38.619
-38.3847
-38.2535
-38.2385
-40.5004
-42.5501
-40.7627
-42.1019
-37.9661
-40.2417
-39.3045
-38.0989
-56.6236
-54.5109
-53.4984
-60.3456
-47.6981
-44.5956
-45.2316
-43.2783
-59.8949
-55.0232
-56.0538
-51.8848
-53.1505
-49.8252
-49.9895
-47.1204
-7.10154
-1.31197
-1.3509
5.28421
174.607
178.373
171.402
175.375
-43.0568
-44.3907
-44.6303
-45.0929
-41.5805
-42.7443
-42.9031
-43.7281
-42.8665
-41.5896
-43.952
-42.665
-94.1451
-102.113
-89.0422
-93.9616
-41.5638
-40.9404
-41.4383
-40.2171
-48.8276
-46.3712
-48.362
-46.38
-39.7854
-38.6634
-38.4201
-38.3937
-37.2997
-39.2292
-39.1087
-41.5092
-33.3172
-32.3921
-31.9822
-32.6866
-38.4644
-45.2366
-109.228
32.14
-141.621
-127.223
-106.105
53.6499
-66.4229
-56.282
-59.0208
-65.0216
-46.5709
-44.4663
-48.1336
-40.1325
-45.0911
-44.2933
-44.2992
-42.7624
-43.4069
-44.0412
-41.8649
-41.9608
-12.6024
-18.2659
-78.8491
87.1511
86.3852
98.6155
-7.26617
97.3248
-59.3426
-49.1301
-49.9011
-35.1746
-41.1362
-41.6126
-44.7763
-38.173
-34.6775
-33.5569
-34.2113
-33.7362
-38.7642
-40.5004
-40.8529
-37.738
-141.126
-130.052
-107.403
70.6806
-35.5374
-18.7871
-53.7831
39.9696
-75.94
-60.4272
-71.5919
-67.9711
-45.2426
-43.7768
-47.2293
-40.5875
-44.7157
-42.9672
-45.2846
-39.4707
-44.8799
-43.1553
-47.4442
-41.4322
86.9776
99.0636
-7.74535
103.587
3.30091
-4.96517
-61.2108
89.1243
-43.201
-47.0316
-47.6062
-38.6337
-33.9748
-32.8573
-34.1629
-32.0568
-38.5827
-38.9182
-43.2864
-37.3474
-37.6865
-39.5757
-40.1562
-36.7272
-42.9588
-37.6013
-41.8306
-42.5273
-39.4395
-39.6996
-39.9529
-39.7973
-41.4613
-42.616
-42.3535
-41.8288
-41.5095
-42.2848
-42.7848
-41.5374
-43.1811
-37.8082
-38.0628
-38.6608
-41.9049
-40.4542
-41.6569
-42.1066
-45.2882
-44.959
-43.5303
-45.8211
-43.5821
-44.1362
-44.7588
-41.9705
-44.7376
-34.3863
-40.7621
-25.1555
-49.8677
-47.2991
-47.5828
-49.2706
-57.4566
-57.3643
-55.2428
-65.1183
-10.1253
19.3665
18.7831
-6.11802
-46.779
-45.093
-45.1163
-47.87
-46.3267
-45.373
-46.2043
-45.2055
-51.5783
-53.2288
-50.7534
-56.2431
-55.4899
-62.6804
-62.057
-59.1862
-44.8593
-41.6255
-54.913
-44.4452
-41.1217
-42.0909
-42.6917
-41.1328
-37.2368
-37.7371
-37.3423
-38.3497
-37.4123
-38.5891
-38.0666
-37.8975
-50.3303
-40.51
-43.5998
-41.9793
-47.4579
-45.0496
-44.615
-44.602
-36.8067
-36.586
-36.9641
-38.0161
-30.0701
-35.5655
-34.9264
-39.4211
-47.2437
-44.8573
-47.8156
-21.5951
-8.42904
19.4667
19.8841
-3.38678
-48.7053
-45.0086
-45.6432
-47.4519
-58.3377
-58.0978
-55.671
-66.9767
-46.3516
-44.6865
-46.0745
-48.2545
-54.3355
-62.2711
-61.1421
-59.4843
-44.96
-42.5273
-43.8936
-43.4523
-51.0906
-52.9068
-50.6413
-55.6579
-68.9084
-57.8077
-59.1471
-59.0028
146.952
157.118
151.252
142.334
-77.28
-63.3181
-69.1743
-69.511
191.841
185.797
187.285
186.154
-43.6691
-44.1415
-46.3943
-42.4578
-48.0444
-49.1411
-52.1614
-45.6957
-46.0349
-41.6868
-44.4229
-44.8309
-37.3506
-35.7976
-36.2813
-36.8119
-38.488
-40.7764
-39.6953
-40.3486
-37.7049
-35.8125
-37.2423
-37.0762
-40.2082
-40.5336
-39.2525
-40.5766
-36.435
-39.0854
-38.0029
-40.9982
-32.7058
-19.5475
-25.5743
-25.5962
146.614
209.415
196.863
196.522
-48.6897
-46.7548
-44.2491
-51.4369
-14.0391
-4.96834
-13.6934
-3.88703
-34.3194
-34.6146
-34.3238
-34.2216
-29.9823
-30.4152
-29.9021
-30.7186
-42.7354
-40.8261
-42.351
-40.1949
-41.5509
-39.9063
-43.0355
-38.5887
-70.7856
-68.5342
-73.5
-74.9108
143.808
158.259
144.79
145.09
-51.4266
-52.9384
-56.3106
-49.0209
-49.436
-49.9347
-53.2341
-46.669
-43.7219
-45.8412
-43.9031
-44.7177
-36.7747
-34.8544
-35.7894
-35.8641
-44.2228
-45.4043
-43.6885
-46.9267
-38.4837
-38.6034
-38.1298
-38.7158
-61.4094
-58.0086
-67.1237
-54.1813
-15.2908
-5.45076
-4.71786
-14.3061
-45.8586
-48.2239
-46.6173
-45.7468
-40.851
-39.5667
-38.134
-42.4506
-41.4037
-42.3868
-41.843
-41.7642
-40.8794
-41.9956
-41.2186
-41.7102
-38.9201
-39.7915
-35.7171
-35.7462
-45.1605
-45.0834
-44.2782
-46.0056
-43.5059
-41.2783
-42.7535
-42.4258
-41.8431
-41.5275
-41.5171
-41.3785
-44.4804
-44.29
-43.8915
-44.9792
-41.04
-39.9114
-39.3717
-40.1218
-52.5842
-45.2046
-47.284
-47.6652
-40.8041
-38.5143
-38.5501
-39.1323
-49.6016
-47.237
-48.2423
-49.0622
-76.1213
-90.6085
-91.1779
-78.8313
31.6904
18.3199
24.9073
24.1854
-28.4646
-103.006
-63.7356
-64.0857
-73.761
-81.4676
-76.9613
-76.8756
-56.1499
-48.4292
-53.4279
-52.7337
-38.5175
-39.9658
-39.3292
-39.0522
-39.4821
-41.1469
-40.2314
-40.4489
-45.1314
-48.8814
-49.419
-49.8666
-41.7885
-42.2834
-40.6194
-43.3881
-40.6153
-41.7694
-41.9219
-40.4938
-43.3564
-44.3451
-44.132
-44.1805
-49.3404
-46.1292
-47.5865
-47.4974
-77.2555
-90.8963
-79.4433
-92.4874
-65.2163
-57.7394
-59.0004
-56.473
-38.5734
-40.4168
-39.0133
-37.1144
-39.0414
-42.8771
-38.4592
-37.4601
-69.7679
-62.3141
-60.6807
-63.6468
-73.4767
-71.9673
-72.2992
-67.3165
-55.0034
-58.253
-72.612
-71.2777
-48.2494
-45.1298
-50.2441
-47.4021
-53.0764
-47.2134
-46.0227
-50.2094
-77.2614
-67.5011
-68.8017
-62.024
-78.3481
-68.8502
-69.7467
-63.1479
-44.19
-45.8592
-40.671
-43.4773
-42.9134
-45.6613
-39.7785
-42.5769
-32.077
-29.643
-25.8353
-22.3162
2.47638
16.1067
6.14881
18.3611
3.75315
18.0864
5.42904
17.5073
-31.6445
-29.2464
-25.7738
-22.6843
136.28
139.317
159.561
161.545
165.467
164.184
178.035
196.843
158.35
176.233
199.64
191.342
160.693
155.396
156.285
148.55
-40.8949
-41.6177
-41.6234
-42.3933
-42.0212
-42.4882
-42.0699
-42.7973
-46.8903
-48.1093
-46.3151
-47.67
-49.7445
-51.3703
-48.3228
-49.5225
-37.9428
-38.2551
-38.7618
-39.1865
-48.0823
-50.2439
-46.4578
-48.1449
-44.7944
-46.6262
-44.0329
-45.8442
-37.2502
-37.357
-38.3333
-38.6187
-40.5552
-40.9792
-40.9431
-40.9832
-40.4722
-39.7015
-40.7124
-40.1753
-51.3474
-43.3636
-46.9529
-41.6381
-46.5304
-54.3336
-43.8233
-48.0242
-105.662
-46.0685
-95.5933
-53.2071
-64.7808
-65.9518
-71.9774
-73.0154
-66.367
-65.2662
-73.0905
-73.0957
-41.9768
-110.126
-56.686
-94.2127
-38.6348
-39.2735
-38.6065
-38.6716
-47.1022
-41.6791
-42.7622
-38.3327
-43.8738
-42.8196
-43.9786
-43.3434
-43.5729
-44.173
-42.7803
-42.53
-43.2962
-44.9181
-43.3607
-43.964
-44.2898
-44.6039
-45.1839
-43.5522
-42.8027
-42.5182
-43.4805
-43.6463
-43.6367
-46.1192
-45.9426
-48.881
-39.6662
-40.7512
-38.1498
-39.0451
-39.9256
-42.9025
-38.652
-39.698
-37.6865
-40.4586
-39.3356
-40.0972
-40.2585
-41.4638
-41.1311
-42.1683
-56.0077
-57.1204
-50.5705
-53.9743
-34.9263
-35.8386
-34.9238
-36.0312
-34.6572
-35.4616
-34.6583
-35.6792
-54.8602
-56.7889
-49.7126
-53.2949
-38.8146
-38.937
-38.4457
-38.2509
-38.8402
-38.6221
-38.0019
-38.0678
-32.2456
-35.8548
-31.2437
-34.2524
-36.9827
-34.0238
-35.6513
-32.7447
-109.575
-5.34842
-105.511
-10.4762
-86.7371
-83.8651
-49.4055
-41.7543
-46.8138
-43.2759
-48.1752
-44.8288
-70.9458
76.2747
4.23129
75.0073
-72.9378
-33.9169
-43.2861
-37.8149
-34.7377
-36.4367
-40.6801
-36.2474
-104.533
27.0095
-60.752
-12.6979
-79.5201
-84.1871
-47.4155
-42.5294
-46.3653
-41.0395
-44.6721
-43.7049
6.74637
70.2973
-43.4765
79.2198
-41.5698
-20.1849
-34.2591
-34.9211
-41.3303
-36.56
-39.6409
-35.2633
-40.9224
-42.2962
-39.9813
-39.891
-41.1521
-40.6881
-41.4269
-40.5422
-45.0375
-52.499
-41.9107
-42.2695
-42.4264
-45.654
-42.8879
-51.9349
-49.0613
-47.6673
-50.3438
-53.0641
-55.6694
-68.4331
-30.0696
-95.2538
-46.7246
-48.7345
-47.7888
-46.3743
-49.6778
-53.1062
-54.5137
-51.9902
-39.7931
-42.0305
-41.2012
-39.7798
-36.9753
-38.5186
-37.5194
-37.1269
-63.884
-62.1271
-45.1408
-54.4306
-34.9374
-39.484
-32.2949
-42.8933
-50.5307
-47.6427
-31.1033
-85.1835
-50.1
-52.1993
-55.8677
-71.8228
-47.0452
-48.5747
-54.0262
-51.8445
-46.7739
-46.1629
-49.4375
-52.4785
-107.397
59.18
-86.1385
82.8645
-98.4842
-94.4015
147.144
147.505
-102.423
38.7058
-102.864
64.1504
-88.084
-88.5882
97.0331
100.589
-52.0935
-53.0511
-39.012
-41.4491
-46.75
-41.3212
-50.0604
-44.6719
-45.9782
-38.5733
-46.2291
-38.451
-46.6578
-45.9593
-37.4238
-37.8863
-44.397
-41.1101
-44.9657
-40.8043
-40.9025
-41.0623
-38.8345
-38.8751
-42.2163
-42.6246
-37.4758
-37.0438
-38.2148
-40.1743
-37.3332
-40.3938
-8.65555
119.688
-8.1794
119.61
-41.7454
-42.0526
113.466
112.533
-64.6083
-34.1145
-40.6728
-25.8012
-45.8637
-54.9641
-23.5328
-16.59
-34.6285
-30.2058
-34.824
-28.5022
-34.3248
-34.3199
-28.5289
-29.4183
-42.3244
-41.2397
-44.2711
-47.8857
-42.7891
-43.0625
-46.5619
-40.939
-61.6829
63.1442
-66.2497
87.0505
-58.1066
-54.2541
152.649
142.879
-57.1087
-55.639
-45.4317
-44.1385
-54.521
-48.1834
-51.8739
-46.5535
-44.0427
-37.9429
-43.6397
-37.5888
-43.8818
-44.1428
-36.9758
-37.3822
-46.8091
-42.6792
-40.9931
-38.8276
-42.5035
-45.946
-38.4037
-39.6545
-59.0223
-37.7457
-51.1425
-30.7372
-70.6708
-55.5849
-19.2616
-25.2562
-42.3616
-39.8853
-46.2779
-49.3512
-46.1191
-44.3329
-40.0453
-45.2141
-40.3715
-39.9201
-41.0252
-38.1851
-40.8501
-40.9228
-40.2936
-39.9271
-43.6651
-43.4764
-45.6952
-46.891
-44.6151
-45.8083
-44.3379
-46.0464
-43.1508
-42.2766
-43.2468
-42.0736
-42.0364
-41.9118
-42.0837
-41.9607
-44.228
-46.3269
-45.2558
-44.7157
-44.1509
-44.9386
-43.6255
-44.9139
-44.9968
-41.6987
-45.7064
-42.9446
-48.9082
-48.8547
-40.9357
-42.1685
-54.2536
-62.9962
-52.1595
-57.5236
-51.469
-51.6424
-70.131
-64.7692
31.0203
13.0126
31.8189
12.3876
35.4893
35.5281
-4.92956
-5.32316
-66.4115
-61.3712
-66.1447
-61.1792
-70.2571
-70.1311
-59.0006
-58.8943
-37.7568
-38.4193
-36.8218
-35.3115
-38.3654
-37.6482
-38.7083
-37.9784
-39.4252
-39.5346
-42.864
-44.08
-41.6567
-40.996
-40.6254
-42.9096
-37.6523
-36.9031
-41.5797
-41.4595
-40.9692
-39.6318
-39.9005
-40.6556
-54.5456
-63.9635
-52.3196
-57.465
-51.5992
-50.5773
-64.8673
-70.5082
-53.5311
-54.4317
-46.864
-42.8452
-43.7619
-49.123
-41.1578
-41.2863
-62.4263
-65.2891
-58.0975
-50.7721
-62.2596
-52.9183
-49.752
-49.0282
-57.6625
-57.9518
-52.89
-46.4526
-53.4724
-46.9101
-44.2257
-44.0046
-13.8821
-14.0073
-8.30511
3.35907
3.01723
-8.49231
9.85177
10.2739
166.738
165.807
176.456
177.036
190.409
192.871
167.775