# vtk DataFile Version 2.0
tet_velo
ASCII
DATASET UNSTRUCTURED_GRID
POINTS 29498 float
-0.725 0.415 -1.98216
-0.814323 0.505 2.065
-0.725 0.875 -1.95125
-0.720235 1.005 1.975
0.725 0.415 -1.98216
0.814322 0.505 2.065
0.725 0.875 -1.95125
0.72023 1.005 1.975
-0.822535 0.377239 -0.633107
-0.831999 0.42755 0.715947
-0.815798 1.01072 -0.6425
-0.800664 1.04051 0.66625
0.822536 0.377238 -0.633107
0.831998 0.42755 0.715947
0.81582 1.01074 -0.6425
0.800653 1.0405 0.66625
-1.5244 0.0822482 -3.03782
-1.5314 0.113429 -1.97472
-1.60112 0.100834 -0.624625
-1.62226 0.135753 0.733582
-1.60638 0.200438 2.08436
-1.60416 0.232453 3.15081
-1.60922 0.253749 4.21106
-1.51984 0.355844 -3.03686
-1.52439 0.405732 -1.97816
-1.61227 0.398668 -0.635904
-1.62167 0.426493 0.709977
-1.58955 0.477542 2.053
-1.59529 0.507814 3.11888
-1.60654 0.530598 4.18045
-1.52018 0.87268 -3.02361
-1.52341 0.923257 -1.96325
-1.6054 1.00825 -0.64847
-1.59526 1.02841 0.663453
-1.53171 1.01599 1.979
-1.56534 1.04622 3.04655
-1.59702 1.07967 4.11461
-1.54097 1.7268 -3.03405
-1.54916 1.78642 -1.97972
-1.57979 1.87191 -0.678011
-1.59472 1.91216 0.615013
-1.5892 1.91206 1.91714
-1.5931 1.91916 2.97235
-1.6061 1.94013 4.03602
-0.750154 0.0855433 -3.04042
-0.736352 0.118261 -1.97851
-0.797729 0.0891622 -0.624116
-0.820064 0.136159 0.738677
-0.813262 0.216793 2.09327
-0.815829 0.243043 3.15685
-0.821467 0.258793 4.21456
-0.750993 0.354456 -3.03766
-0.817431 0.517385 3.12386
-0.823723 0.534448 4.18309
-0.751631 0.853319 -3.01863
-0.793494 1.04363 3.04575
-0.820089 1.07855 4.11444
-0.759143 1.71555 -3.02912
-0.75971 1.77685 -1.97429
-0.785011 1.87236 -0.674738
-0.805424 1.91545 0.61462
-0.808318 1.91025 1.91434
-0.813792 1.91565 2.96955
-0.825213 1.93722 4.03398
0.762842 0.0855456 -3.04042
0.778049 0.118262 -1.97851
0.824747 0.0891618 -0.624116
0.826795 0.136158 0.738677
0.811676 0.216793 2.09327
0.780571 0.243043 3.15685
0.762779 0.258794 4.21456
0.741609 0.354458 -3.03766
0.762925 0.517384 3.12386
0.750703 0.534447 4.18309
0.740232 0.853322 -3.01863
0.729926 1.04362 3.04575
0.734205 1.07855 4.11444
0.78892 1.71556 -3.02912
0.800689 1.77685 -1.97429
0.801387 1.87236 -0.674738
0.777777 1.91545 0.61462
0.751147 1.91025 1.91434
0.740936 1.91565 2.96955
0.735475 1.93722 4.03398
1.53329 0.082254 -3.03782
1.55138 0.113434 -1.97472
1.61743 0.100837 -0.624625
1.63392 0.135753 0.733582
1.61185 0.200437 2.08436
1.58057 0.232453 3.15081
1.55958 0.253749 4.21106
1.51042 0.355851 -3.03685
1.5185 0.405739 -1.97816
1.6113 0.398673 -0.635904
1.62942 0.426491 0.709977
1.59631 0.477542 2.053
1.56208 0.507813 3.11888
1.5457 0.530598 4.18045
1.50808 0.872688 -3.02361
1.51594 0.92327 -1.96325
1.60213 1.00827 -0.64847
1.59879 1.0284 0.663453
1.53239 1.01598 1.979
1.52164 1.04622 3.04655
1.52312 1.07967 4.11461
1.56427 1.72681 -3.03405
1.57893 1.78643 -1.97972
1.59086 1.87192 -0.678011
1.57256 1.91216 0.615013
1.54111 1.91206 1.91714
1.5272 1.91916 2.97235
1.52166 1.94013 4.03602
-0.80212 0.645 -2.04382
0 0.410119 -1.98704
-0.783774 0.386114 -1.30763
-0.749922 0.755 2.00264
-5.06639e-07 0.447604 2.1224
-0.83831 0.451126 1.39047
0 0.894725 -1.97097
-0.800804 0.973265 -1.29688
-2.5034e-06 1.03607 2.00607
-0.754749 1.01705 1.32063
0.802175 0.645 -2.04388
0.783869 0.386018 -1.30763
0.749852 0.755 2.00258
0.838302 0.451133 1.39047
0.800797 0.973259 -1.29688
0.754758 1.01707 1.32063
-0.826132 0.40353 0.04142
-0.874416 0.69398 -0.637803
7.16204e-07 0.321261 -0.633107
-0.86287 0.734029 0.691099
-2.66637e-07 0.305871 0.715947
-0.798033 1.01542 0.011875
1.08297e-05 1.2799 -0.6425
-5.55698e-06 1.52613 0.66625
0.826122 0.403539 0.04142
0.874415 0.69399 -0.637803
0.862865 0.734025 0.691099
0.798027 1.01541 0.011875
-0.886298 0.66949 -1.30225
-0.868508 0.714004 0.0266475
-0.862651 0.744514 1.35555
3.58102e-07 0.335414 -1.30763
2.24784e-07 0.315546 0.04142
-3.86638e-07 0.291155 1.39047
0 0.645 -2.17053
-1.50502e-06 0.755 2.01888
5.41484e-06 1.03354 -1.29688
2.63635e-06 1.51518 0.011875
-4.03019e-06 1.44762 1.32063
0.886298 0.669495 -1.30225
0.868505 0.714008 0.0266475
0.862652 0.744512 1.35555
-1.12469 0.410366 -1.98016
-0.730676 0.266631 -1.98034
-0.737996 0.384728 -2.50991
-1.20193 0.491271 2.059
-0.813792 0.360896 2.07913
-0.815877 0.511192 2.59443
-1.1242 0.899129 -1.95725
-0.738316 0.86416 -2.48494
-0.742355 1.32592 -1.96277
-1.12597 1.01049 1.977
-0.756865 1.02431 2.51037
-0.764277 1.45762 1.94467
0.751525 0.266631 -1.98034
0.733305 0.384729 -2.50991
1.12175 0.41037 -1.98016
0.812999 0.360896 2.07913
0.788623 0.511192 2.59443
1.20532 0.491271 2.059
0.732616 0.864161 -2.48494
0.762844 1.32593 -1.96277
1.12047 0.899135 -1.95725
0.725078 1.02431 2.51037
0.735689 1.45762 1.94467
1.12631 1.01049 1.977
-1.2174 0.387954 -0.634505
-0.810132 0.233201 -0.628611
-1.22683 0.427021 0.712962
-0.826031 0.281854 0.727312
-1.2106 1.00949 -0.645485
-0.800405 1.44154 -0.658619
-1.19796 1.03446 0.664852
-0.803044 1.47798 0.640435
0.823642 0.2332 -0.628611
1.21692 0.387955 -0.634505
0.829397 0.281854 0.727312
1.23071 0.42702 0.712962
0.808603 1.44155 -0.658619
1.20897 1.00951 -0.645485
0.789215 1.47797 0.640435
1.19972 1.03445 0.664851
-1.5279 0.0978386 -2.50627
-1.52212 0.219046 -3.03734
-1.13728 0.0838958 -3.03912
-1.56626 0.107132 -1.29967
-1.52789 0.25958 -1.97644
-1.13388 0.115845 -1.97662
-1.61169 0.118294 0.0544785
-1.6067 0.249751 -0.630264
-1.19943 0.0949982 -0.62437
-1.61432 0.168096 1.40897
-1.62197 0.281123 0.72178
-1.22116 0.135956 0.736129
-1.60527 0.216445 2.61758
-1.59797 0.33899 2.06868
-1.20982 0.208615 2.08881
-1.60669 0.243101 3.68093
-1.59972 0.370133 3.13484
-1.21 0.237748 3.15383
-1.60788 0.392174 4.19575
-1.21535 0.256271 4.21281
-1.52211 0.380788 -2.50751
-1.52001 0.614262 -3.03023
-1.13541 0.35515 -3.03726
-1.56833 0.4022 -1.30703
-1.5239 0.664495 -1.9707
-1.61697 0.41258 0.0370367
-1.60884 0.70346 -0.642187
-1.60561 0.452017 1.38149
-1.60846 0.727449 0.686715
-1.59242 0.492678 2.58594
-1.56063 0.746764 2.016
-1.60091 0.519206 3.64966
-1.58031 0.777015 3.08271
-1.20636 0.512599 3.12137
-1.60178 0.805137 4.14753
-1.21513 0.532523 4.18177
-1.52179 0.897969 -2.49343
-1.53057 1.29974 -3.02883
-1.13591 0.863 -3.02112
-1.56441 0.965755 -1.30586
-1.53628 1.35484 -1.97148
-1.60033 1.01833 0.00749165
-1.5926 1.44008 -0.66324
-1.56349 1.0222 1.32123
-1.59499 1.47028 0.639233
-1.54852 1.0311 2.51278
-1.56045 1.46403 1.94807
-1.58118 1.06295 3.58058
-1.57922 1.48269 3.00945
-1.17942 1.04492 3.04615
-1.60156 1.5099 4.07532
-1.20855 1.07911 4.11453
-1.54506 1.75661 -2.50689
-1.15005 1.72117 -3.03159
-1.56447 1.82917 -1.32887
-1.15443 1.78163 -1.97701
-1.58725 1.89203 -0.031499
-1.1824 1.87213 -0.676375
-1.59196 1.91211 1.26608
-1.20007 1.9138 0.614817
-1.59115 1.91561 2.44475
-1.19876 1.91116 1.91574
-1.5996 1.92964 3.50419
-1.20345 1.9174 2.97095
-1.21566 1.93867 4.035
-0.743253 0.101902 -2.50947
-0.750573 0.219999 -3.03904
0.00634416 0.0855445 -3.04042
-0.767041 0.103712 -1.30131
0.0208485 0.118262 -1.97851
-0.808897 0.11266 0.0572805
0.013509 0.089162 -0.624116
-0.816663 0.176476 1.41597
0.00336575 0.136159 0.738677
-0.814545 0.229918 2.62506
-0.000792943 0.216793 2.09327
-0.818648 0.250918 3.6857
-0.81663 0.380214 3.14036
-0.017629 0.243043 3.15685
-0.822595 0.396621 4.19882
-0.0293437 0.258794 4.21456
-0.751312 0.603888 -3.02814
-0.00469156 0.354457 -3.03766
-0.820577 0.525916 3.65348
-0.805463 0.780505 3.08481
-0.0272531 0.517384 3.12386
-0.821906 0.8065 4.14876
-0.0365098 0.534447 4.18309
-0.755387 1.28444 -3.02388
-0.00569974 0.853321 -3.01863
-0.806792 1.06109 3.58009
-0.803643 1.47964 3.00765
-0.031784 1.04363 3.04575
-0.822651 1.50789 4.07421
-0.042942 1.07855 4.11444
-0.759426 1.7462 -2.50171
0.0148883 1.71555 -3.02912
-0.77236 1.8246 -1.32452
0.0204896 1.77685 -1.97429
-0.795218 1.8939 -0.030059
0.00818779 1.87236 -0.674738
-0.806871 1.91285 1.26448
-0.0138236 1.91545 0.61462
-0.811055 1.91295 2.44195
-0.0285855 1.91025 1.91434
-0.819502 1.92643 3.50177
-0.0364281 1.91565 2.96955
-0.0448691 1.93722 4.03398
0.770446 0.101904 -2.50947
0.752226 0.220002 -3.03904
1.14807 0.0838998 -3.03912
0.801398 0.103712 -1.30131
1.16472 0.115848 -1.97662
0.825771 0.11266 0.0572804
1.22109 0.0949992 -0.62437
0.819236 0.176476 1.41597
1.23036 0.135956 0.736129
0.796123 0.229918 2.62506
1.21176 0.208615 2.08881
0.771675 0.250918 3.6857
0.771748 0.380214 3.14036
1.18057 0.237748 3.15383
0.756741 0.396621 4.19882
1.16118 0.256271 4.21281
0.740921 0.60389 -3.02814
1.12602 0.355154 -3.03726
0.756814 0.525916 3.65348
0.746425 0.780505 3.08481
1.1625 0.512599 3.12137
0.742454 0.8065 4.14876
1.1482 0.532523 4.18177
0.764576 1.28444 -3.02388
1.12416 0.863005 -3.02112
0.732065 1.06109 3.58009
0.735431 1.47964 3.00765
1.12578 1.04492 3.04615
0.73484 1.50789 4.07421
1.12866 1.07911 4.11453
0.794804 1.7462 -2.50171
1.1766 1.72118 -3.03159
0.801038 1.82461 -1.32452
1.18981 1.78164 -1.97701
0.789582 1.8939 -0.0300591
1.19612 1.87214 -0.676375
0.764462 1.91285 1.26448
1.17517 1.9138 0.614816
0.746041 1.91295 2.44195
1.14613 1.91116 1.91574
0.738205 1.92643 3.50177
1.13407 1.9174 2.97095
1.12857 1.93867 4.035
1.54234 0.0978441 -2.50627
1.52186 0.219052 -3.03734
1.58441 0.107135 -1.29967
1.53494 0.259587 -1.97644
1.62567 0.118295 0.0544784
1.61437 0.249755 -0.630264
1.62288 0.168095 1.40897
1.63167 0.281122 0.721779
1.59621 0.216445 2.61758
1.60408 0.33899 2.06868
1.57007 0.243101 3.68093
1.57132 0.370133 3.13484
1.55264 0.392174 4.19575
1.51446 0.380795 -2.50751
1.50925 0.614269 -3.03023
1.5649 0.402206 -1.30703
1.51722 0.664504 -1.9707
1.62036 0.412582 0.0370366
1.60672 0.703473 -0.642187
1.61287 0.452016 1.38149
1.61411 0.727446 0.686715
1.5792 0.492678 2.58594
1.56435 0.746763 2.016
1.55389 0.519206 3.64966
1.54186 0.777014 3.08271
1.53441 0.805136 4.14753
1.51201 0.897979 -2.49343
1.53618 1.29975 -3.02883
1.55903 0.965771 -1.30586
1.54743 1.35485 -1.97148
1.60046 1.01834 0.00749157
1.59649 1.4401 -0.663241
1.56559 1.02219 1.32123
1.58567 1.47028 0.639233
1.52701 1.0311 2.51278
1.53675 1.46402 1.94807
[...]
POINT_DATA 29498
VECTORS point_vectors float
-4.15875 -5.12604 8.92486
0.628482 0.210802 2.26122
-2.47435 2.92822 4.65659
0.0413899 -0.318248 0.707369
4.12077 -5.10456 8.88042
-0.622464 0.107847 2.13179
2.46777 2.92471 4.64477
0.0183356 -0.312424 0.600324
0.0334353 -0.0343173 0.583837
-0.00910932 0.000329962 0.142249
0.0043345 0.00458715 0.0822497
0.0114913 0.0228569 0.0874227
-0.0339639 -0.0353582 0.582675
0.00901946 0.000387299 0.140549
-0.00439542 0.0045279 0.0850643
-0.0112112 0.0223012 0.0849951
-0.622216 -0.266893 19.8318
-1.26741 -0.629026 20.4506
-0.555652 -0.388993 21.3047
0.0268703 -0.132793 21.5153
0.675516 0.0838032 21.5021
1.01742 0.187709 21.0842
0.996403 0.187801 20.5981
-0.683938 -0.193929 19.7416
-1.55758 -0.486925 20.3927
-0.680055 -0.449472 21.3611
0.00690671 -0.242331 21.5884
0.772354 -0.0955383 21.5398
1.21661 -0.0274954 21.0181
1.06602 0.135076 20.7648
-0.734053 0.03322 19.6923
-1.73703 0.067002 20.2826
-1.14358 -0.315905 21.3167
-0.25424 -0.396137 21.6391
0.541946 -0.500483 21.5894
0.955338 -0.550598 21.3363
0.665899 -0.460153 20.8967
-0.506115 0.268464 19.8751
-0.969429 0.522647 20.2429
-1.05999 0.372283 21.0352
-0.482573 -0.0329207 21.4855
0.00527693 -0.338167 21.4587
0.31287 -0.516153 21.3456
0.459131 -0.805709 20.4049
-0.610729 -0.593543 19.2207
-2.4424 -3.61347 20.38
-0.542488 -0.541598 20.8008
0.215416 0.00616869 17.6244
1.19197 1.19572 16.2281
1.81163 1.70405 18.1382
1.61789 1.06886 17.9469
-0.740633 -0.441191 18.9474
2.53202 1.01959 13.7094
2.28678 0.877383 17.156
-0.817017 0.147208 18.7526
0.974799 -0.578464 9.68812
2.21054 -1.22556 14.4923
-0.456282 0.578865 19.4858
-1.09884 1.56149 19.82
-1.76326 1.87051 20.9597
-0.819126 0.408188 22.0203
-0.314088 -0.362853 21.7171
0.00590478 -0.86212 21.5165
0.034551 -0.719947 20.8508
0.616396 -0.581513 19.2285
2.45149 -3.30669 20.3782
0.571502 -0.529663 21.0718
-0.183144 -0.0249075 17.6702
-1.23022 1.03768 15.8716
-1.86986 1.6779 17.3873
-1.72441 1.1878 16.6058
0.735708 -0.44285 18.9326
-2.41975 0.903159 11.5476
-2.43702 1.06606 15.4255
0.806844 0.153009 18.7327
-0.148396 -0.649883 5.46663
-2.06821 -0.934756 11.0384
0.466502 0.566523 19.5012
1.12042 1.49326 19.8419
1.75508 1.82352 20.9602
0.802605 0.455922 22.0209
0.335491 -0.232415 21.7264
0.0258623 -0.684412 21.4683
-0.0631976 -0.690303 20.9643
0.615889 -0.259706 19.838
1.23879 -0.617825 20.4479
0.551623 -0.390489 21.2803
-0.0149323 -0.146895 21.4942
-0.636408 0.0418314 21.493
-1.00414 0.158754 21.1107
-1.06421 0.181561 20.5574
0.68317 -0.198868 19.7355
1.57686 -0.501556 20.3936
0.678906 -0.456153 21.3582
0.00320477 -0.249164 21.5736
-0.713149 -0.130467 21.5178
-1.21783 -0.0955426 21.0725
-1.13333 0.138266 20.8114
0.737345 0.0329631 19.6831
1.75766 0.0728499 20.2817
1.14461 -0.31674 21.315
0.259692 -0.38942 21.62
-0.464391 -0.493244 21.5539
-0.8914 -0.571742 21.4157
-0.656312 -0.440908 20.8471
0.49925 0.260387 19.8847
0.942179 0.501969 20.2523
1.04038 0.367955 21.0269
0.489602 -0.0233053 21.475
0.0324112 -0.312908 21.456
-0.261054 -0.513459 21.4461
-0.379551 -0.883551 20.1215
-4.91121 -0.303723 6.57124
-0.00350218 -0.467886 1.0676
0.0412739 -0.0623945 0.911979
0.0494897 -0.0770163 0.204329
-0.0202658 -0.0569068 -0.0359025
0.016245 0.0182984 0.450224
-0.000301148 0.281826 0.820542
-0.542846 -0.322253 1.48967
-0.0089989 0.00709151 -0.0100081
0 0 0
4.92839 -0.303423 6.59682
-0.038493 -0.0624753 0.921065
-0.0340495 -0.112675 0.186533
-0.0178672 0.0145498 0.44238
0.541556 -0.320546 1.48882
0 0 0
-0.00194335 0.00625984 0.339507
0.000352117 0.00245112 0.0757786
-8.39773e-06 -0.00011174 0.00550045
4.88603e-20 -1.31218e-17 -7.43124e-17
0 0 0
0 0 0
-1.75974e-06 0.00979197 0.0187112
-0.000180064 1.37398e-05 0.0254887
0.00197345 0.0062942 0.336829
-0.000354954 0.00236341 0.0756485
0 0 0
0 0 0
-0.0060152 -0.00757353 0.106962
0.000686161 0.0109946 0.0702293
0.00050888 0.00044963 0.00874936
0 0 0
0 0 0
0 0 0
-0.000569083 0.470949 0.498769
0 0 0
0 0 0
-7.18573e-06 0.000361391 0.00644977
-0.00151387 0.00122439 -0.000964261
0.00600506 -0.00745335 0.105898
-0.000680675 0.0109299 0.0699574
-0.000474563 0.000373481 0.00843397
-3.15579 -1.30063 20.3718
-3.93538 -5.41641 20.345
-2.01953 -1.4618 17.6716
1.39281 0.0787121 21.0005
1.39118 0.826092 10.2014
1.60793 0.469535 9.80931
-3.53703 0.55658 20.0485
-2.34765 0.875786 17.166
-2.32868 2.66139 19.4546
0.952352 -0.751093 19.6989
0.34055 -0.843893 6.1667
0.119932 -0.289063 12.8244
3.95245 -5.11006 20.3601
2.0102 -1.46825 17.6477
3.17335 -1.31423 20.3669
-1.43202 0.612269 9.78475
-1.33365 0.0484489 8.02865
-1.29775 -0.00942026 20.9464
2.33711 0.883871 17.135
2.33913 2.58126 19.4685
3.56719 0.571477 20.0364
0.174223 -1.0158 3.48346
-0.0925778 -0.0721529 11.138
-0.80475 -0.74089 19.467
-0.521315 -0.615221 21.6515
0.0977448 -0.182361 13.17
0.247647 -0.190173 21.4175
0.313982 -0.249689 8.24322
-1.91879 -0.937465 21.6542
-4.27067 2.05457 20.9852
-0.229752 -0.796504 21.0715
-0.535207 0.263127 16.6434
-0.087909 -0.199464 13.6519
0.517818 -0.617734 21.6409
-0.272428 -0.244697 8.43387
-0.232117 -0.204054 21.4067
4.20235 1.98076 21.0144
1.91669 -0.9373 21.6382
0.387881 0.387414 15.627
0.240561 -0.785304 21.055
-1.009 -0.461764 19.9767
-0.653077 -0.230411 19.7867
-0.672679 -0.436148 19.5748
-0.964553 -0.555919 21.062
-1.45429 -0.595538 20.4265
-1.91741 -1.43346 20.4291
-0.240158 -0.259635 21.4499
-0.585984 -0.415807 21.3545
-0.559684 -0.493457 21.5995
0.337311 -0.0106616 21.5564
0.0374631 -0.176261 21.563
0.0843915 -0.0394331 21.6886
0.862039 0.142108 21.3418
0.732653 -0.00154171 21.524
1.04705 0.451352 21.5847
0.970845 0.0818562 21.1063
1.14336 0.0782188 21.0274
1.44008 0.605019 21.0983
1.04348 0.180238 20.7333
1.06 0.344807 21.2649
-1.18271 -0.345228 19.8608
-0.73147 -0.0846495 19.6876
-0.777197 -0.303818 19.4048
-1.20327 -0.508016 21.0932
-1.75313 -0.23784 20.3396
-0.302616 -0.353207 21.5018
-0.884217 -0.460838 21.3689
0.372328 -0.158083 21.6231
-0.0528069 -0.345481 21.6398
0.998265 -0.0676701 21.3588
0.73911 -0.307165 21.6036
1.152 -0.144244 21.2306
1.09081 -0.289574 21.1795
1.95646 0.220483 20.729
0.895231 -0.194642 20.8233
1.73149 0.161051 20.5105
-1.30027 0.0746989 19.7733
-0.637223 0.194709 19.7675
-0.840962 0.0953361 19.3177
-1.54738 -0.121294 20.9291
-1.39464 0.432538 20.2224
-0.693958 -0.409707 21.5787
-1.27916 0.0986927 21.1828
0.135251 -0.4292 21.666
-0.478448 -0.217773 21.599
0.783133 -0.516782 21.4801
0.201742 -0.49275 21.4752
1.21645 -0.534869 20.806
0.601569 -0.568087 21.1777
1.53773 -0.95354 20.3996
0.520136 -0.72102 20.4494
1.68534 -0.895963 19.6814
-0.749387 0.41282 19.984
-0.531078 0.421979 19.6911
-1.10129 0.504553 20.6358
-1.14993 0.965443 20.0562
-0.819652 0.162938 21.3718
-1.47308 0.860627 21.0731
-0.2123 -0.211516 21.5034
-0.675568 0.0953926 21.7288
0.160633 -0.457975 21.3341
-0.0971792 -0.417001 21.5478
0.369733 -0.487824 21.0247
0.235299 -0.657499 21.2592
0.285134 -0.555928 21.3449
-1.36933 -1.69359 18.7999
-0.679768 -0.557411 19.078
0.0100507 -0.813861 18.8397
-1.3578 -1.4839 21.8555
0.0688034 -5.61385 20.3298
-0.0765898 -0.155876 18.9185
-0.0006528 -0.754939 17.3887
0.559875 0.523522 16.4243
-0.0902972 -0.152469 11.1796
1.45414 1.3809 17.1243
-0.110498 0.595993 6.33627
1.77225 1.36968 16.8582
2.16127 1.46601 16.178
-0.129025 1.19149 9.47122
1.97715 0.999646 17.5533
0.127199 2.03193 13.5946
-0.826191 -0.161993 18.7706
-0.0067783 -0.590316 18.4303
2.50048 1.11763 15.8016
2.17521 -0.195626 11.188
0.297926 0.27581 -0.21662
2.4225 0.140063 16.2551
0.251338 1.83213 5.82926
-0.664416 0.543913 19.0993
-0.010133 0.246965 18.1535
1.78103 -0.957028 12.1243
0.569906 -1.20351 17
0.50971 1.47022 -4.5099
0.448083 -1.61504 18.4546
0.715597 2.57486 -4.17761
-0.771698 1.09429 19.4711
0.0111727 0.740507 19.2454
-1.42527 1.72504 20.318
0.0414656 2.30447 19.5305
-1.50424 1.23987 21.9723
0.0206705 3.59525 20.5688
-0.44758 -0.122591 21.8601
-0.0441407 1.15005 22.5255
-0.169707 -0.578237 21.6639
-0.108261 0.2874 21.3677
0.221849 -1.05072 21.0408
-0.132862 -0.440391 19.9708
-0.208806 -0.677153 19.2198
1.38725 -1.61911 18.8624
0.681199 -0.553578 19.0805
0.670552 -0.431575 19.5783
1.37402 -1.42188 21.8086
1.87256 -1.35133 20.432
0.089845 -0.1651 19.1334
0.559199 -0.49876 21.5707
-0.550872 0.461663 16.2675
-0.0739551 -0.0629275 21.6626
-1.46471 1.21095 16.4728
-1.00346 0.369188 21.5515
-1.79123 1.39359 15.6894
-2.14475 1.38911 14.4253
-1.48036 0.561946 21.0466
-2.11136 1.16134 16.0016
-1.18639 0.322846 21.2776
0.815763 -0.162015 18.7514
0.775686 -0.304019 19.3958
-2.48637 1.1907 14.1834
-1.74276 -0.437019 8.27686
-1.98451 0.214287 20.3886
-2.43719 0.127521 13.7257
-1.89546 0.176602 20.378
0.665702 0.541798 19.1016
0.837538 0.0942633 19.298
-1.37092 -0.717738 8.14442
-0.106607 -0.952843 14.0325
-1.36832 -0.885782 19.8283
-0.395119 -1.69284 16.1304
-1.85705 -1.16713 19.3781
0.789651 1.05307 19.4979
0.531907 0.410483 19.7019
1.43235 1.67933 20.3277
1.13735 0.917609 20.0755
1.49007 1.26518 21.9653
1.44451 0.839485 21.0653
0.436105 -0.058016 21.8533
0.678364 0.121244 21.7249
0.19524 -0.397658 21.6639
0.138435 -0.353368 21.5319
-0.198717 -0.912311 21.0073
-0.203501 -0.603714 21.1553
-0.229809 -0.473651 22.0195
0.982368 -0.44969 19.9945
0.649529 -0.229287 19.7867
0.954248 -0.551511 21.0385
1.43755 -0.592443 20.4242
0.241117 -0.263549 21.4343
0.580509 -0.416017 21.3425
-0.316055 -0.037658 21.5283
-0.026629 -0.187663 21.5473
-0.829487 0.0974074 21.3478
-0.684459 -0.0433199 21.5096
-1.00322 0.0324677 21.1275
-1.11998 0.0417022 21.0594
-1.10209 0.170433 20.7078
1.19539 -0.35529 19.8536
0.732377 -0.0855444 19.6793
1.20695 -0.511472 21.0946
1.77605 -0.242976 20.337
0.30372 -0.357354 21.4903
0.882555 -0.463491 21.3636
-0.343367 -0.180133 21.594
0.0642162 -0.348266 21.6132
-0.945782 -0.122747 21.3771
-0.668921 -0.336734 21.5694
-1.19546 -0.188349 21.359
-1.0817 -0.329736 21.2451
-0.85764 -0.181596 20.8759
1.30753 0.0781208 19.7653
0.63127 0.195631 19.7733
1.55157 -0.120586 20.9357
1.37452 0.424871 20.2213
0.693238 -0.407079 21.5646
1.26737 0.101423 21.1737
-0.105787 -0.425358 21.6245
0.484152 -0.214848 21.5849
-0.703415 -0.548919 21.4751
-0.143621 -0.47501 21.4613
-1.18391 -0.670708 20.8758
-0.540073 -0.587166 21.2604
-0.620471 -0.67553 20.4339
0.731968 0.398621 19.9899
1.07276 0.49349 20.6315
0.82087 0.169652 21.3611
0.227386 -0.19377 21.4688
-0.107821 -0.41409 21.2939
-0.30829 -0.467789 21.0305
-1.11153 -0.419738 19.9143
-1.6905 -1.68705 18.2845
-1.32097 -0.93309 19.5708
-1.76358 -0.715781 19.1931
-0.71239 -0.383764 19.4927
-2.51993 -1.47329 20.3856
-1.0832 -0.548492 21.1034
-0.485757 -0.79647 16.1905
-1.21659 -0.950216 21.4048
-1.51547 -0.911043 21.6249
-0.556419 -0.521057 21.6582
-0.249035 -0.298632 21.4784
0.197214 -0.120877 10.193
-0.19425 -0.231699 21.6258
-0.0532924 -0.389308 21.5227
0.169308 -0.0943218 21.6054
0.375023 -0.081033 21.5982
0.432023 0.290805 8.73851
0.525297 0.207763 21.7248
0.737543 -0.0330569 21.3538
1.27912 0.300103 21.3374
0.935278 0.0368444 21.3505
1.74312 1.10598 13.7139
1.33675 0.562385 21.377
1.70268 0.124474 20.9896
1.75425 0.434786 20.7028
1.09932 -0.048454 21.1757
2.13741 1.21775 16.3017
1.72907 0.579651 20.563
2.00131 0.250019 20.3483
1.41851 0.277264 20.8894
-1.30302 -0.13941 19.7869
-2.36357 -0.404888 17.1217
-1.94541 0.315309 19.0108
-0.853072 -0.129051 19.3146
-3.6117 -0.469267 20.1856
-1.4165 -0.400184 21.0705
-2.58898 -0.324106 21.2824
-0.957266 -1.03993 21.7209
-0.44309 -0.425209 21.5465
-0.951081 -1.04181 21.4201
0.193097 -0.494626 20.9126
0.335207 -0.303841 21.6923
0.438034 -0.645534 20.3143
1.36887 -0.335171 19.9475
0.961129 -0.30302 21.4675
1.00112 -0.693663 6.58723
1.13952 -0.861006 20.0887
1.8496 -0.443616 20.4315
1.23375 -0.361359 20.9623
2.84651 0.241162 13.5772
1.74274 -0.919242 19.8519
1.86489 -0.590668 19.7199
-1.03098 0.337482 19.8666
-1.37233 1.41179 18.7232
-0.839482 0.719079 19.7559
-0.701685 0.334033 19.4757
-2.02662 1.11908 19.9328
-1.43943 0.287453 20.7525
-2.78405 2.09401 20.2881
-1.37815 0.989786 20.5398
-2.27092 0.345559 21.3339
-0.903119 -0.087496 21.5085
-2.68124 0.182965 20.4284
-1.17053 0.496863 21.6014
-0.80293 -0.332741 21.999
-0.108238 -0.360032 21.5907
0.349618 0.107013 13.5033
-0.316189 -0.212345 21.662
0.0365713 -0.799927 21.6752
0.414184 -0.567021 21.4145
0.186356 -0.680126 15.131
0.063292 -0.545091 21.473
0.64024 -1.03253 21.2875
0.610644 -0.527654 21.512
0.840244 -1.44962 17.3884
0.316096 -0.759397 21.1826
0.477687 -1.13416 21.2228
1.69525 -1.66238 18.3293
0.0355074 -2.58766 17.9942
-0.00824629 -2.51815 15.9469
0.00153751 -0.745623 18.6242
0.00869707 -8.1706 20.2773
0.613947 -0.851654 16.768
0.032943 -2.2187 21.4247
-0.00791776 -0.185984 7.19943
-0.204151 -0.129828 10.6587
-0.0281724 -0.300835 13.6401
-0.0602144 -0.0169002 3.5503
-0.448135 0.242776 8.64229
-0.0868438 -0.0326127 8.25535
-0.11745 0.00352096 0.483592
-1.63909 0.817313 12.5077
-0.179602 0.556173 7.81134
-0.191785 -0.392515 -0.16638
0.0185961 0.772706 4.56046
-2.13223 1.26603 14.9251
0.0669932 1.75791 10.9968
0.352734 1.54102 1.89844
0.175058 1.8915 9.64591
2.35639 -0.408537 17.0874
-0.0134808 1.69246 15.0106
-0.00925856 -0.218124 18.1511
-0.547163 -1.08069 4.81432
0.30408 0.380938 -3.73934
0.954077 -0.122136 -2.87383
-2.67727 0.0852269 10.4208
0.957555 2.65044 -5.53581
0.657909 2.50111 -0.47879
1.37472 1.38327 18.7396
0.0246645 1.52872 19.1386
0.00218059 0.759679 18.6863
0.0333764 4.33662 18.935
2.779 2.02924 20.3053
0.0276154 2.71953 19.9688
0.0205749 6.19678 18.5805
2.6564 0.20012 20.3139
-0.0202091 2.86967 22.5907
-0.0254488 0.125873 6.05083
-0.439539 0.247721 12.1291
-0.0670744 0.360228 21.7624
-0.865276 0.870957 -0.276218
-0.0617328 -0.366551 12.5646
-0.14642 -0.03115 20.5562
-0.338231 0.313655 -0.109889
-0.711429 -1.28438 15.1993
-0.205785 -0.856911 19.0903
-0.164833 0.201797 2.2489
1.10428 -0.417789 19.9165
1.31021 -0.90622 19.592
1.76531 -0.722187 19.175
0.713823 -0.382135 19.4886
2.46255 -1.40796 20.3883
1.07615 -0.548273 21.0938
1.20274 -0.925805 21.3703
1.51711 -0.913433 21.6255
0.559708 -0.52858 21.6382
0.250467 -0.302688 21.4628
0.197419 -0.248035 21.5998
0.0579612 -0.396069 21.5123
-0.155188 -0.113358 21.5969
-0.348607 -0.107712 21.5667
-0.504042 0.163403 21.6862
-0.702085 -0.0715908 21.3448
-1.21355 0.209633 21.2953
-0.894598 -0.012605 21.3585
-1.30404 0.489221 21.3169
-1.62622 0.0474682 20.77
-1.79143 0.418346 20.4172
-1.12684 -0.104055 21.2392
-1.78888 0.616397 20.5943
-2.12553 0.316829 20.1226
-1.56825 0.281006 20.8198
1.31759 -0.144691 19.778
1.94692 0.319368 18.9801
0.849372 -0.131509 19.3042
3.63995 -0.468885 20.1806
1.42058 -0.401186 21.0701
2.59393 -0.320906 21.2803
0.953638 -1.04246 21.7061
0.443593 -0.425485 21.5324
0.949153 -1.03524 21.4013
-0.176071 -0.50343 20.9285
-0.304618 -0.313723 21.6573
-0.396756 -0.635487 20.2342
-1.23343 -0.390373 19.8281
-0.896273 -0.339902 21.4856
-0.943434 -0.823324 19.5583
-1.80532 -0.437979 19.8826
-1.19379 -0.455781 21.0939
-1.81294 -1.01463 19.4071
-1.94722 -0.703177 19.6778
1.01927 0.334729 19.8721
0.837025 0.69568 19.7736
0.697359 0.332288 19.4771
1.99254 1.07338 19.9474
1.4233 0.288453 20.7477
1.35521 0.948452 20.5451
2.24122 0.342682 21.3187
0.903365 -0.0843666 21.4944
1.16632 0.511308 21.5916
0.811794 -0.316009 21.9812
0.132992 -0.347017 21.5485
0.332257 -0.172819 21.645
0.0668256 -0.731774 21.5741
-0.34996 -0.554742 21.4115
-0.0066619 -0.468358 21.461
-0.456808 -0.963306 21.3327
-0.596094 -0.657317 21.7602
-0.272738 -0.769538 21.3268
-0.369341 -1.26769 21.678
-1.51816 -0.866436 19.3546
-1.36426 -0.916758 21.5026
-0.121968 -0.277618 21.6324
0.663938 0.103 21.5978
1.57912 0.382274 21.2063
1.99027 0.432385 20.2098
-1.99849 -0.251486 18.9974
-1.98323 -0.913811 21.654
-0.238902 -0.805637 21.2128
0.703287 -0.306621 20.5722
1.65067 -0.462991 20.2597
1.77747 -0.389988 20.7823
-1.32332 0.738262 19.4075
-2.18269 0.77499 20.6897
-1.58899 -0.0853923 21.9441
-0.276925 -0.574263 21.8577
0.294698 -0.925854 21.5868
0.772617 -1.15537 21.2496
0.0165699 -2.72148 17.0913
0.00138255 -0.632531 9.37944
-0.0349232 -0.0472125 5.06057
-0.00604821 -0.00583826 0.519491
-0.279423 -0.106372 2.32414
0.114303 1.65173 5.9561
-0.0109515 -0.610024 14.8656
0.218986 -0.142509 -1.80547
0.971057 2.28239 -1.99726
0.0145616 2.1958 17.8741
0.0236655 3.97388 19.5149
-0.010778 0.924728 9.12135
-0.11332 -0.118009 2.89257
-0.900138 0.225701 -0.591478
-0.110241 -1.10462 2.15069
1.50961 -0.856067 19.3655
1.35678 -0.908293 21.4799
0.130191 -0.290578 21.6228
-0.633482 0.0598312 21.5628
-1.53997 0.298263 21.1192
-2.09221 0.467144 20.0407
1.99993 -0.251997 18.9721
1.98358 -0.917116 21.6559
0.24517 -0.804964 21.2014
-0.661237 -0.330861 20.5385
-1.4836 -0.505392 19.8874
-1.95002 -0.364594 20.1495
1.31129 0.723392 19.4209
2.14993 0.755005 20.6871
1.58821 -0.075705 21.9265
0.308358 -0.546136 21.8062
-0.134677 -0.835582 21.5006
-0.693624 -1.19371 21.2353
-2.94976 -1.65845 4.21287
0 0 0
0.00824802 -0.0330934 0.427857
0.293915 -0.289566 1.71471
-0.0259306 -0.0250686 -0.0177879
0.0865328 0.0163441 1.00896
-3.09183 1.00108 2.19696
-0.120611 1.40622 1.73996
-0.853451 -0.138206 2.39036
0.153282 -0.194083 0.418994
-0.0276909 -0.00294121 0.00165005
-0.00629818 -0.0058769 0.151988
0 0 0
2.95113 -1.66221 4.22151
-0.00606584 -0.0321652 0.428479
0.00301652 -0.037254 -0.0237687
-0.233337 -0.382368 1.63855
-0.098476 -0.00851031 0.961728
0.119451 1.40823 1.74355
3.09116 0.996524 2.18184
0.852037 -0.137609 2.39021
0.0166091 0.00662583 -0.0156154
-0.111312 -0.232912 0.362083
0.00515452 -0.00641565 0.12257
-1.01898 -0.741069 9.25368
0.00621867 -0.00360436 0.429643
0.000967901 -0.00254045 0.0457443
5.07575e-05 -6.5936e-06 0.00132632
0 0 0
-0.0044194 0.00851699 0.482022
-1.04745e-05 7.22734e-05 0.000748724
0 0 0
-0.254241 -0.172827 0.572303
4.66034e-05 0.00022369 0.00800582
0 0 0
-0.0127869 0.0114958 0.023968
0 0 0
0 0 0
0 0 0
0.0534022 0.0144937 0.56224
1.00257 -0.739373 9.23113
-0.00157033 -0.000182535 0.0396622
-0.00635846 -0.00424378 0.427931
-0.00097231 -0.00257645 0.0454214
0 0 0
-0.00126376 -0.000110174 0.0399481
0.00469704 0.00921415 0.47873
4.22593e-06 2.8594e-05 0.000301954
0.251413 -0.170753 0.571721
0.0130919 0.0117742 0.0245733
-4.53874e-05 0.000216454 0.00806844
0 0 0
0 0 0
-0.0587774 0.0158382 0.556718
0 0 0
0 0 0
-0.11567 -0.094566 1.00648
0 0 0
0 0 0
0.00392946 -5.54076 4.67013
-0.00801935 -0.0205617 0.45088
0.0293588 -0.0109603 0.264901
0.00571322 -0.000881218 0.0443973
-0.0610605 -0.0129337 0.0190619
5.08379e-19 -9.17846e-19 -6.92402e-17
-0.11435 -0.215322 0.131673
0.000473141 0.00055739 0.0110737
0 0 0
0 0 0
-6.60421e-05 0.0212967 0.0947059
-0.0307273 -0.0601847 0.349976
-0.00241212 0.00112321 0.00684967
0 0 0
-0.000563495 0.00043836 -0.000807942
0.00233544 0.00234975 0.032453
-0.00417433 -0.00275061 0.00858345
0 0 0
0.116041 -0.0928623 1.00566
-0.0305442 -0.0122727 0.301921
0.00801431 -0.0207642 0.452304
0.0336708 -0.0356855 0.0136932
-0.00531356 -0.00179276 0.0423745
0 0 0
-0.000487387 0.000460245 0.0111682
0.00239329 0.00111252 0.00678192
0.0303365 -0.0590935 0.344247
0.0026516 -0.00210778 0.00747862
-0.00219798 0.00209495 0.0313945
8.30923e-05 0.00248243 0.0271784
0 0 0
0 0 0
0.000573824 0.00886457 0.0693797
0 0 0
0 0 0
0.000207894 0.00315048 0.0207652
0.000809214 0.00602439 0.036394
0 0 0
-8.7348e-19 -1.72695e-18 6.00153e-17
0 0 0
-0.0256707 0.0432653 0.979899
0 0 0
0.000582163 0.0896447 0.223525
-6.8495e-07 1.79069e-05 0.000547995
-0.0008803 -0.00233113 0.0385304
-0.000546675 -3.18808e-05 0.0102248
-8.36429e-05 0.00247412 0.0271652
-2.07669e-18 -1.44905e-17 1.15061e-16
-0.000578134 0.00879054 0.0693328
-0.000203784 0.00309974 0.0204574
-0.000776238 0.00576913 0.035556
0.0221993 0.0442949 0.976718
0 0 0
-0.0203378 -0.026277 0.241417
-0.0156624 -0.00718036 0.0785278
0.0125292 -0.00960295 0.241397
-0.00824394 -0.029988 0.163169
2.37029e-06 8.46307e-05 0.00159988
0.000328549 0.000949147 0.00657041
5.55722e-06 0.000466619 0.00482828
0 0 0
0 0 0
0.0037034 0.00806666 0.0408354
0.0449629 0.0177628 0.406053
0.00265007 -0.00229197 0.0384634
-0.016594 -0.0369678 0.326407
0.0168596 -0.0371898 0.333063
0.033558 -0.00935205 0.177623