# vtk DataFile Version 2.0
tri_press
ASCII
DATASET UNSTRUCTURED_GRID
POINTS 3682 float
-0.725 0.415 -1.98216
-0.814323 0.505 2.065
-0.725 0.875 -1.95125
-0.720235 1.005 1.975
0.725 0.415 -1.98216
0.814322 0.505 2.065
0.725 0.875 -1.95125
0.72023 1.005 1.975
-0.822535 0.377239 -0.633107
-0.831999 0.42755 0.715947
-0.815798 1.01072 -0.6425
-0.800664 1.04051 0.66625
0.822536 0.377238 -0.633107
0.831998 0.42755 0.715947
0.81582 1.01074 -0.6425
0.800653 1.0405 0.66625
-1.5244 0.0822482 -3.03782
-1.5314 0.113429 -1.97472
-1.60112 0.100834 -0.624625
-1.62226 0.135753 0.733582
-1.60638 0.200438 2.08436
-1.60416 0.232453 3.15081
-1.60922 0.253749 4.21106
-1.51984 0.355844 -3.03686
-1.52439 0.405732 -1.97816
-1.61227 0.398668 -0.635904
-1.62167 0.426493 0.709977
-1.58955 0.477542 2.053
-1.59529 0.507814 3.11888
-1.60654 0.530598 4.18045
-1.52018 0.87268 -3.02361
-1.52341 0.923257 -1.96325
-1.6054 1.00825 -0.64847
-1.59526 1.02841 0.663453
-1.53171 1.01599 1.979
-1.56534 1.04622 3.04655
-1.59702 1.07967 4.11461
-1.54097 1.7268 -3.03405
-1.54916 1.78642 -1.97972
-1.57979 1.87191 -0.678011
-1.59472 1.91216 0.615013
-1.5892 1.91206 1.91714
-1.5931 1.91916 2.97235
-1.6061 1.94013 4.03602
-0.750154 0.0855433 -3.04042
-0.736352 0.118261 -1.97851
-0.797729 0.0891622 -0.624116
-0.820064 0.136159 0.738677
-0.813262 0.216793 2.09327
-0.815829 0.243043 3.15685
-0.821467 0.258793 4.21456
-0.750993 0.354456 -3.03766
-0.817431 0.517385 3.12386
-0.823723 0.534448 4.18309
-0.751631 0.853319 -3.01863
-0.793494 1.04363 3.04575
-0.820089 1.07855 4.11444
-0.759143 1.71555 -3.02912
-0.75971 1.77685 -1.97429
-0.785011 1.87236 -0.674738
-0.805424 1.91545 0.61462
-0.808318 1.91025 1.91434
-0.813792 1.91565 2.96955
-0.825213 1.93722 4.03398
0.762842 0.0855456 -3.04042
0.778049 0.118262 -1.97851
0.824747 0.0891618 -0.624116
0.826795 0.136158 0.738677
0.811676 0.216793 2.09327
0.780571 0.243043 3.15685
0.762779 0.258794 4.21456
0.741609 0.354458 -3.03766
0.762925 0.517384 3.12386
0.750703 0.534447 4.18309
0.740232 0.853322 -3.01863
0.729926 1.04362 3.04575
0.734205 1.07855 4.11444
0.78892 1.71556 -3.02912
0.800689 1.77685 -1.97429
0.801387 1.87236 -0.674738
0.777777 1.91545 0.61462
0.751147 1.91025 1.91434
0.740936 1.91565 2.96955
0.735475 1.93722 4.03398
1.53329 0.082254 -3.03782
1.55138 0.113434 -1.97472
1.61743 0.100837 -0.624625
1.63392 0.135753 0.733582
1.61185 0.200437 2.08436
1.58057 0.232453 3.15081
1.55958 0.253749 4.21106
1.51042 0.355851 -3.03685
1.5185 0.405739 -1.97816
1.6113 0.398673 -0.635904
1.62942 0.426491 0.709977
1.59631 0.477542 2.053
1.56208 0.507813 3.11888
1.5457 0.530598 4.18045
1.50808 0.872688 -3.02361
1.51594 0.92327 -1.96325
1.60213 1.00827 -0.64847
1.59879 1.0284 0.663453
1.53239 1.01598 1.979
1.52164 1.04622 3.04655
1.52312 1.07967 4.11461
1.56427 1.72681 -3.03405
1.57893 1.78643 -1.97972
1.59086 1.87192 -0.678011
1.57256 1.91216 0.615013
1.54111 1.91206 1.91714
1.5272 1.91916 2.97235
1.52166 1.94013 4.03602
-0.80212 0.645 -2.04382
0 0.410119 -1.98704
-0.783774 0.386114 -1.30763
-0.749922 0.755 2.00264
-5.06639e-07 0.447604 2.1224
-0.83831 0.451126 1.39047
0 0.894725 -1.97097
-0.800804 0.973265 -1.29688
-2.5034e-06 1.03607 2.00607
-0.754749 1.01705 1.32063
0.802175 0.645 -2.04388
0.783869 0.386018 -1.30763
0.749852 0.755 2.00258
0.838302 0.451133 1.39047
0.800797 0.973259 -1.29688
0.754758 1.01707 1.32063
-0.826132 0.40353 0.04142
-0.874416 0.69398 -0.637803
7.16204e-07 0.321261 -0.633107
-0.86287 0.734029 0.691099
-2.66637e-07 0.305871 0.715947
-0.798033 1.01542 0.011875
1.08297e-05 1.2799 -0.6425
-5.55698e-06 1.52613 0.66625
0.826122 0.403539 0.04142
0.874415 0.69399 -0.637803
0.862865 0.734025 0.691099
0.798027 1.01541 0.011875
-0.886298 0.66949 -1.30225
0.886298 0.669495 -1.30225
3.58102e-07 0.335414 -1.30763
5.41484e-06 1.03354 -1.29688
0 0.645 -2.17053
-0.868508 0.714004 0.0266475
0.868505 0.714008 0.0266475
2.24784e-07 0.315546 0.04142
2.63635e-06 1.51518 0.011875
-0.862651 0.744514 1.35555
0.862652 0.744512 1.35555
-3.86638e-07 0.291155 1.39047
-4.03019e-06 1.44762 1.32063
-1.50502e-06 0.755 2.01888
-0.776968 0.53 -2.0264
-0.3625 0.417019 -1.98014
-0.763996 0.390948 -1.6449
-0.8148 0.63 2.0665
-0.407162 0.460202 2.1098
-0.827598 0.476781 1.72774
-0.751327 0.76 -1.9853
-0.3625 0.889917 -1.96617
-0.771394 0.932624 -1.62406
-0.74114 0.88 1.99488
-0.360119 1.031 2.001
-0.752028 1.02556 1.64781
0.3625 0.417004 -1.98016
0.77701 0.53 -2.02644
0.763951 0.390992 -1.6449
0.407161 0.460121 2.10988
0.81489 0.63 2.06659
0.827523 0.476855 1.72774
0.3625 0.889921 -1.96617
0.751094 0.76 -1.98507
0.771394 0.932625 -1.62406
0.360114 1.03107 2.00107
0.740989 0.88 1.99474
0.75119 1.02473 1.64781
-0.868015 0.316816 -0.97037
-0.824175 0.390543 -0.295843
-0.854048 0.532823 -0.635455
-0.430832 0.310121 -0.633107
-0.837899 0.436593 1.05321
-0.828287 0.416318 0.378683
-0.857338 0.575838 0.703523
-0.440839 0.317031 0.715947
-0.814608 0.9983 -0.969688
-0.863292 0.861442 -0.640152
-0.807569 1.01372 -0.315313
-0.461739 1.253 -0.6425
-0.771881 1.02295 0.993438
-0.843653 0.893211 0.678674
-0.793084 1.0217 0.339063
-0.511154 1.50495 0.66625
0.868003 0.316828 -0.97037
0.431761 0.308264 -0.633107
0.824171 0.390546 -0.295843
0.854034 0.532835 -0.635455
0.837783 0.436709 1.05321
0.448883 0.300943 0.715947
0.828286 0.416318 0.378683
0.857337 0.575835 0.703523
0.814595 0.998288 -0.969688
0.461754 1.253 -0.6425
0.863293 0.861454 -0.640152
0.807572 1.01373 -0.315313
0.771928 1.02301 0.993438
0.511133 1.50493 0.66625
0.843661 0.893213 0.678674
0.793081 1.0217 0.339063
-0.863959 0.657245 -1.67304
-0.40106 0.645 -2.13331
1.79051e-07 0.359567 -1.64734
0 0.527559 -2.1697
-0.872217 0.527802 -1.30494
-0.391887 0.31026 -1.30763
-0.826659 0.749757 1.6791
-0.374962 0.755 2.05629
-4.46639e-07 0.28498 1.75643
-1.00583e-06 0.601302 2.17031
-0.866129 0.59782 1.37301
-0.419155 0.329298 1.39047
2.70742e-06 0.97397 -1.63392
0 0.769862 -2.03334
-0.866768 0.821377 -1.29956
-0.400399 1.02588 -1.29688
-3.26679e-06 1.24872 1.66335
-2.00421e-06 0.895533 2.06111
-0.827641 0.880784 1.33809
-0.377377 1.43861 1.32063
0.863977 0.657248 -1.67307
0.401088 0.645 -2.13331
0.872224 0.527756 -1.30494
0.391935 0.309692 -1.30763
0.826654 0.749756 1.67906
0.374925 0.755 2.05561
0.866133 0.597823 1.37301
0.419151 0.319903 1.39047
0.866745 0.821377 -1.29956
0.400401 1.02588 -1.29688
0.827627 0.88079 1.33809
0.377377 1.43862 1.32063
-0.856314 0.55427 0.0340338
-0.438176 0.309316 0.04142
-0.871065 0.681735 -0.970029
-0.871904 0.703992 -0.305578
5.37153e-07 0.329259 -0.97037
4.70494e-07 0.316947 -0.295843
-0.865354 0.724017 0.358873
-0.866324 0.739272 1.02332
-2.09266e-08 0.307935 0.378683
-3.26638e-07 0.293324 1.05321
-0.853486 0.874818 0.0192613
-0.515665 1.4986 0.011875
8.12226e-06 1.09352 -0.969688
6.73301e-06 1.46596 -0.315313
-1.46031e-06 1.52227 0.339063
-4.79358e-06 1.51383 0.993438
0.856316 0.554272 0.0340338
0.439193 0.30728 0.04142
0.871064 0.681743 -0.970029
0.871904 0.703999 -0.305578
0.865356 0.724016 0.358873
0.866325 0.739269 1.02332
0.853475 0.874814 0.0192613
0.51566 1.49859 0.011875
-0.85021 0.528901 -1.65897
-0.869713 0.531706 -0.970199
-0.868769 0.836863 -0.969858
-0.836539 0.790689 -1.64855
0.852894 0.528878 -1.65898
0.836645 0.790689 -1.64856
0.86875 0.836872 -0.969858
0.869698 0.531685 -0.970199
-0.377193 0.326309 -1.64612
0.377217 0.326357 -1.64612
0.401602 0.30851 -0.97037
-0.401577 0.309395 -0.97037
-0.38145 0.967575 -1.62899
-0.404146 1.07855 -0.969688
0.404158 1.09346 -0.969688
0.381451 0.967574 -1.62899
-0.38178 0.52878 -2.10214
-0.38178 0.764931 -2.03462
0.381794 0.764931 -2.0346
0.381794 0.52878 -2.10199
-0.855482 0.543396 -0.300711
-0.855493 0.56572 0.368778
-0.834268 0.876864 0.348968
-0.858323 0.868097 -0.310445
0.855473 0.543404 -0.300711
0.858325 0.868105 -0.310445
0.833363 0.876411 0.348968
0.855491 0.565721 0.368778
-0.434533 0.30966 -0.295843
0.435398 0.307929 -0.295843
0.445056 0.302074 0.378683
-0.441795 0.3086 0.378683
-0.517109 1.43261 -0.315313
-0.513733 1.50242 0.339063
0.513724 1.50241 0.339063
0.517116 1.43261 -0.315313
-0.869077 0.589305 1.03827
-0.849077 0.61391 1.70342
-0.802553 0.880392 1.66345
-0.840703 0.884026 1.00838
0.869091 0.589305 1.03827
0.840705 0.884026 1.00838
0.802511 0.880395 1.66344
0.849069 0.613911 1.7034
-0.417577 0.320101 1.05321
0.417575 0.309774 1.05321
0.413156 0.322827 1.74209
-0.413159 0.338677 1.74209
-0.388856 1.50212 0.993438
-0.368748 1.24297 1.65558
0.368745 1.24298 1.65558
0.38885 1.50212 0.993438
-0.391062 0.615651 2.14938
0.391043 0.615651 2.14939
0.367519 0.887766 2.04954
-0.36754 0.887766 2.05345
-0.729716 0.4725 -1.98301
-0.54375 0.411757 -1.9854
-0.746524 0.400948 -1.81353
-0.815252 0.5675 2.06644
-0.610742 0.484676 2.08532
-0.820686 0.491166 1.89637
-0.739669 0.8175 -1.96978
-0.54375 0.88487 -1.96112
-0.75099 0.906606 -1.78766
-0.73213 0.9425 1.98638
-0.540177 1.02175 1.99175
-0.74058 1.01973 1.81141
0.54375 0.411741 -1.98542
0.729587 0.4725 -1.98288
0.746155 0.401317 -1.81353
0.610741 0.484663 2.08534
0.815254 0.5675 2.06644
0.820656 0.491195 1.89637
0.54375 0.884872 -1.96112
0.739815 0.8175 -1.96993
0.75098 0.906595 -1.78766
0.540172 1.02179 1.99179
0.732078 0.9425 1.98634
0.740538 1.01969 1.81141
-0.821223 0.37108 -0.801738
-0.823361 0.383885 -0.464475
-0.835398 0.456478 -0.634281
-0.642914 0.311218 -0.633107
-0.834529 0.432491 0.884579
-0.827572 0.424504 0.547315
-0.85041 0.498823 0.709735
-0.670176 0.304777 0.715947
-0.817698 1.007 -0.806094
-0.840678 0.936648 -0.641326
-0.812052 1.01259 -0.478906
-0.67601 1.20634 -0.6425
-0.77891 1.02437 0.829844
-0.825461 0.968511 0.672462
-0.791744 1.02597 0.502656
-0.684547 1.33001 0.66625
0.821197 0.371105 -0.801738
0.642915 0.311218 -0.633107
0.82336 0.383886 -0.464475
0.835386 0.456486 -0.634281
0.834536 0.432484 0.884579
0.67002 0.305087 0.715947
0.827577 0.424499 0.547315
0.850423 0.498815 0.709735
0.817718 1.00703 -0.806094
0.67602 1.20634 -0.6425
0.840677 0.936659 -0.641326
0.812059 1.0126 -0.478906
0.778972 1.02443 0.829844
0.684462 1.32985 0.66625
[...]
POINT_DATA 3682
SCALARS point_scalars float 1
LOOKUP_TABLE default
-60.7084
-54.268
-68.2035
-43.7681
-60.3405
-51.6843
-67.8985
-39.3013
-40.74
-37.1002
-61.7631
-51.6126
-40.484
-36.4951
-61.2754
-50.6796
18.5766
-87.0376
-40.536
-36.8034
-48.3951
-51.5894
-51.5894
18.5766
-84.8098
-41.0363
-38.0445
-51.2434
-51.5894
-51.5894
29.4561
-78.7533
-48.7014
-46.5883
-45.8009
-48.8751
-48.8751
-71.5747
-54.2267
-91.6052
-56.9187
-41.1061
-42.5787
-42.5787
153.41
-134.276
-42.34
-40.1212
-52.6583
-43.1572
-42.0044
153.262
-42.5357
-42.0201
179.228
-42.2387
-41.2019
-25.3742
-53.3525
-69.382
-58.1813
-39.8523
-40.2115
-40.3367
152.036
-114.735
-42.5562
-39.3833
-50.4264
-41.1442
-41.0194
154.397
-40.7485
-41.0194
180.927
-37.2585
-39.3625
-25.1642
-53.7
-72.2943
-57.7961
-36.9733
-35.14
-33.3879
18.9425
-86.6286
-40.2787
-36.3263
-46.0968
-48.7333
-48.7333
18.9425
-84.3252
-40.7417
-37.3978
-48.488
-48.7333
-48.7333
29.8241
-78.723
-48.3488
-45.7841
-42.3528
-45.9691
-45.9691
-71.2157
-53.3301
-90.9424
-56.0851
-38.1152
-38.0444
-37.6403
-22.2157
-57.2458
-44.8804
-46.6713
-41.8998
-44.8673
-79.7895
-38.4668
-33.5767
-44.4504
-21.6642
-45.0589
-43.2246
-43.9474
-38.1397
-42.6274
-37.2253
-43.9044
-44.6002
-41.0548
-39.6249
-53.4277
20.6517
-60.3507
-36.7142
-43.5769
-40.2811
-52.8798
-48.7015
-48.4881
-65.0795
-0.163617
201.901
-41.9134
-41.4179
-38.5916
-99.3804
-46.8571
-45.1708
-45.5636
-40.1822
-36.8837
-41.3419
-83.4404
-72.3342
-48.5222
-43.6601
-46.8027
-27.9495
-74.068
-40.0204
-45.3698
-37.9709
-42.4253
-85.3315
-40.9219
-71.8063
-41.9943
-45.443
-45.4941
-74.0093
-27.498
-39.8317
-31.8305
-41.9147
-39.5854
-48.7225
-38.3515
-41.0134
-44.6782
-49.3051
-37.4504
-38.5073
-40.659
-43.4265
-49.867
-58.2669
5.54722
-47.0868
-45.6177
-49.0317
-56.235
-48.7319
-44.4797
-37.9775
-40.7181
-48.3267
-39.5937
-36.8451
-37.8265
-43.1956
5.64891
-49.4859
-57.787
-45.8412
-55.6443
-44.7644
-48.8651
-56.6462
188.236
-88.0965
78.2517
-46.7183
-59.5125
-46.3066
-40.0007
-53.2175
-37.8359
-46.3851
-45.8738
-22.7637
155.819
-48.5619
-6.87253
-33.841
-34.8409
-45.2882
-43.2621
-56.4542
188.302
-46.5763
-59.6694
-43.9186
-37.4458
-44.9984
-42.9027
-48.4138
-6.6169
-43.5199
-41.8483
-39.0567
-38.4513
-45.5511
-43.3055
-51.6907
-40.8591
-40.9006
-42.913
-39.1459
-43.1227
-46.7696
-87.5364
24.559
-78.7668
-71.2893
-51.4509
-38.5652
-37.8576
-45.4584
-42.9003
-40.2858
-41.816
-46.2533
-87.0991
-59.3785
-49.8996
-45.9502
-52.828
-59.4456
-52.7325
-45.7432
-49.7801
-85.6644
-85.3955
-49.8917
-49.5505
-26.884
13.5344
14.0718
-26.7975
74.6539
149.758
150.032
73.8716
-39.8612
-38.6749
-43.6768
-49.4351
-39.4725
-48.993
-43.0559
-38.0803
-40.3197
-40.0599
-38.6084
-39.4794
-75.2608
-64.5183
-64.0819
-74.7833
-41.9751
-46.8842
-44.5153
-45.1672
-40.8199
-43.9588
-41.874
-44.7669
-44.0889
-42.5171
-48.8908
-51.6087
-51.959
-35.8679
-33.5177
-51.2213
-40.8668
-38.9524
-35.877
-39.9422
-20.2449
-76.4651
-78.7946
-52.0827
-44.8933
-46.9542
-27.7829
-55.6346
-57.704
-45.5229
-39.2961
-41.994
-78.5926
-20.7923
-78.5543
-42.6727
-49.1829
-45.1477
-55.5666
-27.2663
-57.5395
-33.7371
-41.1146
-38.4924
-44.9282
-38.8742
-40.4585
-44.3207
-37.2367
-37.0216
-38.1209
-40.771
-57.4032
-54.5659
-60.0956
-57.0726
-48.3612
-47.9303
-47.5897
-56.9172
-44.5934
-44.118
-38.5672
-40.18
-36.6054
-39.785
-36.4089
-37.4787
-56.9174
-56.8904
-54.1397
-59.6206
-47.3087
-55.9412
-47.0642
-46.8462
-27.2454
-41.2094
-74.8167
177.497
-64.6478
-64.4491
-100.321
45.332
-58.7317
-34.6735
-45.1992
-49.564
-46.3041
-46.1119
-46.4796
-41.3194
-42.4993
-41.8196
-47.2685
-40.37
-45.4212
-43.4743
-46.0702
-43.1502
-80.1663
-80.1828
-39.492
124.629
-40.5837
-41.7404
-46.3329
-16.1639
-36.0438
-31.8937
-33.7136
-33.077
-42.7387
-45.723
-44.5938
-46.0183
-26.8196
-40.8565
-75.034
177.621
-58.2466
-34.891
-45.1306
-51.5038
-42.9342
-42.3538
-43.5248
-38.4281
-44.1479
-42.4413
-44.8231
-43.9272
-40.4416
-41.6374
-46.1817
-16.039
-40.5214
-44.217
-42.7926
-44.307
-37.5908
-36.855
-37.9028
-37.8005
-42.1646
-46.3956
-42.921
-43.7176
-44.6866
-44.5894
-47.6769
-42.6904
-39.4299
-42.9318
-40.9365
-41.4943
-40
-39.5025
-39.3455
-38.646
-56.1212
-51.3669
-49.7405
-66.87
17.9861
18.0288
31.4772
-9.50988
-59.7167
-59.7246
-64.953
-55.8891
-37.1507
-36.2888
-37.4052
-37.163
-41.8544
-46.0477
-42.6457
-43.3512
-38.7065
-42.1176
-40.2486
-40.5876
-55.6171
-50.671
-49.2123
-66.3345
-51.3863
-47.6061
-49.3105
-50.2075
-51.2813
-47.4203
-49.1086
-49.9578
-74.8536
-63.5903
-63.4988
-56.7502
-11.3378
-2.01221
-1.85883
11.9125
200.739
193.114
146.007
200.843
-40.362
-42.645
-41.3196
-43.8956
-39.871
-42.193
-40.7711
-43.3937
-38.6552
-39.5342
-38.0119
-38.3299
-96.5668
-124.599
-81.6772
-96.3794
-47.1453
-46.3796
-46.1769
-44.6199
-45.1091
-44.8499
-44.4395
-43.2063
-48.6719
-45.7339
-45.3963
-44.2358
-35.4508
-41.0695
-40.2166
-46.6691
-38.3745
-36.7131
-36.4814
-36.627
-80.1469
77.0141
-103.218
62.1634
-64.8985
-87.5018
-46.0166
-41.408
-49.0602
-41.9876
-46.1994
-51.1943
-76.8958
136.882
-45.9653
102.408
-49.3176
-31.1508
-45.1308
-41.1486
-36.3765
-39.5014
-43.2804
-37.6783
-101.977
62.3204
-79.748
76.7748
-64.8764
-86.0314
-48.7252
-41.065
-43.3497
-39.1657
-44.4319
-50.3885
-45.8769
102.532
-76.9672
136.995
-49.1595
-31.0379
-32.8235
-33.642
-41.8269
-37.2388
-40.5332
-34.9538
-53.2765
-48.1516
-38.845
-39.5532
-42.1845
-40.2269
-47.6262
-42.1737
-45.3846
-47.3295
-37.6336
-39.0123
-38.4704
-39.2509
-40.3678
-41.0997
-46.6352
-6.65469
-46.9507
-49.975
-53.3049
-83.7047
18.368
-22.8318
-45.6952
-48.3975
-46.0386
-44.8095
-45.9861
-56.3908
-59.2105
-54.8299
-53.1428
-48.3827
-47.5116
-41.9095
-38.4658
-39.2173
-41.9203
-39.8913
-44.2712
-47.1732
-38.9346
-39.3059
-37.0422
-38.0517
-37.83
-38.5582
-46.3891
-8.61985
18.38
-22.5877
-46.6365
-49.5616
-52.8441
-83.1261
-44.4788
-47.3685
-58.7202
-54.1805
-45.2506
-43.8126
-45.3064
-55.7436
-57.8485
-55.1028
180.179
151.297
-86.972
-86.7644
85.7173
85.5154
-51.6619
-45.8172
-70.5124
-52.5615
-47.0029
-45.6993
-40.005
-40.0231
-52.7201
-52.6777
-39.1091
-37.777
-45.4246
-46.3553
-44.6546
-48.2449
-23.7079
-23.658
154.096
154.316
-46.2557
-50.1938
-16.3721
2.74795
-34.8029
-33.3033
-34.872
-37.3233
-44.7638
-45.1411
-48.4834
-37.5898
-57.746
-54.9856
151.748
180.246
-51.3669
-45.6092
-70.4613
-52.4245
-43.1751
-44.6786
-37.3944
-37.0321
-44.2958
-44.6821
-45.1111
-50.2286
-50.0536
-46.0675
3.33038
-16.2287
-43.6828
-42.6113
-35.8716
-47.4487
-39.4357
-38.7571
-39.1373
-38.4567
-46.7485
-45.8261
-41.3502
-45.7613
-51.0561
-50.9932
-40.7474
-40.5757
-39.7094
-41.9999
-41.7711
-43.7578
-38.9147
-39.437
-43.5663
-43.0953
-45.6692
-48.3993
-114.396
-71.6685
22.2976
22.3266
-73.6487
-73.4241
-69.9181
-69.7016
-51.8199
-51.4171
-38.9963
-38.2124
-38.7097
-37.235
-45.6709
-46.6745
-40.9546
-45.3414
-41.3743
-39.1055
-40.7089
-42.6087
-47.9239
-45.1182
-71.2647
-114.026
-83.7991
-52.6044
-51.4346
-73.1283
-43.6071
-41.9909
-48.5749
-39.3095
-51.5881
-45.1486
-48.6119
-44.429
-66.9862
-79.2454
-50.0565
-47.9897
-83.4642
-72.9232
-51.2807
-52.3298
-66.8098
-47.8499
-50.0111
-78.4955
-51.2238
-44.1342
-48.382
-44.9817
-43.3005
-39.3268
-48.2684
-41.7405
-79.0713
-107.38
-73.3146
-66.206
-76.5361
-65.577
-73.5791
-106.15
-49.3562
-47.4234
-55.8185
-43.4121
-49.5088
-44.2252
-55.8052
-47.4435
-50.4807
-22.0742
-12.6665
-41.1765
-18.9845
29.1953
9.64429
-10.6608
-17.1886
-10.8066
9.85184
28.981
-50.4201
-41.1464
-12.5753
-21.9431
78.2846
164.454
194.641
48.6834
95.4472
129.185
144.213
129.656
95.513
129.768
144.168
129.245
78.0167
47.9742
194.776
164.538
-39.4084
-38.2928
-40.8551
-41.697
-37.5466
-39.503
-39.8411
-37.8793
-47.3703
-48.0079
-43.0742
-42.9002
-54.3376
-46.2844
-44.8953
-51.5759
-39.0851
-41.3473
-40.4099
-37.8565
-53.8924
-51.0872
-44.4355
-45.8988
-46.5762
-42.1772
-42.5201
-47.4313
-36.9273
-37.3257
-39.2963
-38.8407
-41.3104
-42.5565
-39.4775
-38.4358
-41.0133
-37.9858
-39.2192
-42.4115
-38.526
-39.1072
-37.6
-36.4157
-39.5657
-37.3246
-38.0989
-39.6727
-97.0082
-74.6666
-124.896
-10.8922
-53.074
-63.8589
-79.9656
-60.7013
-52.3273
-60.1199
-79.77
-63.6136
-96.3683
-10.8139
-124.712
-74.2175
-36.6667
-44.6035
-44.8184
-40.416
-45.8501
-46.8491
-47.9303
-45.8349
-43.7232
-43.7776
-45.6862
-45.8793
-46.3564
-42.9182
-45.0898
-45.1036
-36.0792
-39.5665
-43.5932
-43.5222
-45.3291
-43.6201
-43.6724
-41.9669
-40.3855
-42.7494
-43.6239
-41.6161
-43.6313
-44.3826
-45.998
-43.8975
-38.5087
-39.6202
-44.3836
-44.4222
-38.7449
-42.0249
-44.1523
-39.3173
-50.9491
-47.7201
-48.5913
-44.477
-50.8424
-47.1975
-48.2102
-48.001
-50.7582
-49.0525
-47.2968
-55.7283
-37.3762
-35.1964
-36.3058
-40.4932
-33.8072
-38.3771
-35.266
-32.7051
-49.7159
-55.3667
-46.7153
-47.6337
-42.4199
-41.1316
-38.4183
-41.2686
-40.7324
-38.4347
-36.5372
-40.5865
-35.577
-32.9242
-36.8983
-37.9247
-40.7627
-41.3333
-38.6232
-36.4226
-37.9178
-73.7279
-111.932
-51.9413
-47.6268
-48.0661
-44.4479
-33.3393
-81.529
-45.0852
-40.3293
-41.5697
-74.3664
-38.1327
-111.016
-45.1421
-49.161
-45.9204
-33.1098
-43.9953
-81.2639
-35.5677
-40.5971
-37.7451
-42.1445
-39.4529
-40.468
-43.4844
-39.0846
-37.1004
-37.9454
-39.394
-61.8549
-57.7263
-60.5277
-84.9516
-50.5502
-49.661
-48.5783
-54.9918
-41.9
-43.2544
-39.1777
-40.1998
-38.461
-38.6714
-36.4864
-37.3163
-61.4266
-84.1871
-57.2731
-60.0445
-49.5383
-53.998
-48.7773
-47.7748
-27.7183
-28.6334
-110.982
132.978
-22.495
-20.7378
-101.078
40.2148
-50.4783
-41.5986
-44.5856
-46.6332
-46.7205
-46.569
-47.9714
-41.9184
-42.1262
-41.8058
-44.3944
-41.345
-45.1306
-44.144
-45.788
-43.2211
-82.5997
-82.6102
-51.7631
7.24634
-37.3047
-40.0294
-45.1908
-24.6138
-34.8067
-32.7598
-33.6715
-33.1569
-43.4805
-45.1206
-44.6294
-44.2708
-27.2861
-28.069
-110.35
133.01
-50.2269
-41.8067
-44.5823
-46.8852
-43.3794
-42.9498
-44.5961
-38.9429
-43.9051
-43.0867
-44.6482
-42.9448
-36.6793
-39.9244
-45.1299
-24.5247
-41.4895
-43.4623
-42.8111
-42.4634
-37.4179
-37.2974
-37.5677
-36.6215
-42.9239
-45.0562
-42.6235
-43.8963
-44.8083
-44.7821
-45.7952
-43.616
-40.2062
-41.8802
-40.9853
-41.2133
-39.6356
-39.4361
-39.4109
-39.5969
-55.1452
-52.6321
-51.7144
-59.0978
20.4517
20.4565
27.7741
6.41298
-60.2464
-60.0741
-62.5874
-58.1047
-36.9428
-36.752
-37.0652
-36.0591
-42.6053
-44.7194
-42.3256
-43.5487
-39.4558
-41.0868
-40.2598
-40.3803
-54.6224
-52.0287
-51.1737
-58.5512
-49.6255
-48.342
-49.3035
-48.3654
-49.4152
-48.1379
-49.116
-48.1159
-70.7503
-64.3822
-64.3874
-60.3211
-5.62083
-0.607417
-0.53297
6.27871
201.46
199.922
180.601
201.536
-41.0618
-42.2925
-41.6132
-42.8483
-40.5676
-41.8202
-41.0922
-42.3504
-38.6494
-39.0291
-38.2461
-38.5199
-98.0851
-110.843
-89.3519
-97.9874
-47.0597
-46.9031
-46.5784
-46.3484
-45.2
-45.2836
-44.8661
-44.7839
-46.6516
-45.4204
-45.4011
-44.8574
-37.4076
-40.5066
-40.022
-44.4189
-37.6105
-36.7453
-37.3521
-36.6455
-22.0842
-26.4569
-96.5393
43.1596
-87.1838
-87.3951
-78.3699
36.6536
-77.2186
-65.9575
-68.1879
-82.4209
-49.1687
-45.7388
-46.2908
-42.9245
-44.057
-43.2152
-46.8525
-42.4687
-46.5232
-46.5078
-46.1272
-49.7774
-5.49837
-34.1019
-100.692
103.733
-63.1514
-83.9533
-65.4759
34.3854
-46.5407
-40.0201
-46.7878
-33.6735
-45.4102
-45.8417
-46.0859
-41.8169
-38.7908
-37.0865
-37.1478
-38.8927
-42.2974
-41.5628
-42.8484
-40.1633
-95.422
-84.0171
-78.4445
35.6149
-22.2198
-26.0781
-96.13
43.2346
-76.514
-65.4598
-67.8878
-81.1755
-42.0223
-41.9938
-44.9332
-41.1941
-46.2519
-42.2924
-43.2126
-40.3134
-44.9384
-45.2682
-44.5053
-49.6912
-58.1214
-83.9852
-65.4138
33.8616
-4.63683
-34.084
-99.8172
104.01
-46.4025
-39.8755
-46.8379
-33.5603
-32.4777
-31.5485
-32.2979
-32.1957
-41.2182
-42.0265
-42.3169
-38.1663
-39.0453
-39.21
-40.0593
-37.303
-62.5847
-19.4687
-52.7932
-48.2274
-38.8608
-38.0979
-38.5313
-38.2967
-40.6812
-41.5085
-40.479
-40.6235
-44.6136
-44.5883
-46.2223
-43.3808
-47.554
-42.7733
-47.1015
-49.8289
-37.6807
-37.3999
-37.6011
-37.3142
-38.2164
-38.9324
-38.2997
-38.9606
-40.6863
-40.6265
-40.2977
-40.9829
-50.8303
-42.2967
-48.1571
-23.8227
-52.2887
-47.9665
-47.8211
-50.0808
-59.5911
-57.4879
-55.6236
-67.7706
-12.8827
14.2777
15.29
-5.14181
-47.6299
-46.439
-46.6379
-47.7524
-46.5218
-44.3012
-46.7216
-45.223
-49.1495
-50.4884
-47.9594
-52.547
-56.2304
-58.6682
-58.8346
-56.6745
-62.0667
-19.5604
-52.7904
-48.2383
-44.44
-44.4455
-46.0046
-43.1393
-38.5206
-37.6895
-38.1527
-37.9441
-40.397
-41.2051
-40.2006
-40.3052
-46.6848
-42.012
-46.1284
-48.8327
-39.5985
-39.7694
-39.234
-39.7413
-37.0662
-36.8081
-37.0034
-36.6167
-37.5534
-38.229
-37.635
-38.2485
-50.3429
-42.1449
-47.8758
-23.7973
-12.2813
14.3345
15.2166
-4.94289
-51.8842
-47.6047
-47.4716
-49.6828
-59.1165
-56.9965
-55.1527
-67.2863
-46.4924
-45.0758
-45.4048
-46.4999
-55.3926
-58.2914
-58.2875
-56.063
-45.667
-43.4673
-45.9177
-44.3009
-48.2483
-49.6842
-47.3082
-51.8646
-62.5483
-54.6784
-57.2717
-55.5794
187.333
193.626
196.828
174.362
-102.095
-78.3839
-86.8912
-87.0331
39.3878
147.952
90.0354
89.7709
-46.2033
-47.1765
-47.6526
-45.7855
-54.9952
-62.118
-65.3321
-55.6925
-46.2307
-46.7032
-46.6992
-46.0832
-41.0999
-38.8086
-40.0884
-40.017
-53.8349
-50.7249
-53.1988
-53.3189
-39.1061
-36.2522
-38.3002
-37.5973
-46.2518
-46.3665
-45.9184
-46.2423
-44.9486
-46.3694
-45.1651
-46.774
-28.8989
-16.5399
-22.8291
-22.7985
144.519
153.132
155.228
155.369
-47.6005
-49.269
-47.6183
-48.5965
-10.8897
-3.80101
-11.5284
-2.50826
-33.7093
-34.3241
-34.352
-33.5103
-34.2833
-35.6
-34.3594
-36.0853
-44.8596
-45.6858
-45.1227
-45.2709
-44.5286
-41.9409
-46.9202
-39.6647
-62.2609
-54.616
-57.0711
-55.4076
187.42
193.712
174.505
196.783
-46.0864
-47.0137
-47.4551
-45.6582
-56.51
-62.079
-65.4443
-55.7705
-43.5606
-44.5052
-43.6288
-44.3518
-38.184
-36.8451
-37.5794
-37.2964
-44.925
-44.9126
-44.6167
-44.723
-42.8634
-44.9081
-47.5107
-43.1853
-47.4519
-49.0963
-48.4209
-47.4686
-10.6752
-3.58608
-1.96171
-11.3351
-43.0757
-43.9298
-43.6613
-43.1647
-42.9165
-40.8261
-38.1532
-45.6565
-38.3536
-39.6965
-39.2468
-38.9447
-38.1612
-38.6208
-38.7807
-38.3266
-45.0714
-48.5868
-46.0441
-45.4305
-43.5088
-42.9957
-42.2664
-44.4635
-49.515
-53.9219
-51.4286
-51.4076
-41.6836
-40.1308
-40.8684
-40.7701
-40.8912
-41.0577
-40.2951
-41.4706
-42.0623
-43.5523
-42.3884
-43.3016
-39.2373
-38.5214
-39.1799
-39.3735
-40.6982
-43.7602
-43.0855
-42.9672
-48.1708
-45.3159
-46.2264
-47.5566
-76.6629
-93.459
-100.844
-78.3801
30.8601
17.9704
23.9671
24.0116
-34.0092
-116.256
-78.206
-78.1881
-67.6878
-75.805
-71.057
-70.9491
-53.8991
-49.1189
-51.6209
-51.4028
-37.86
-39.2069
-38.7815
-38.4252
-37.508
-38.1238
-38.2453
-37.5568
-44.7872
-48.4665
-45.2901
-45.8961
-43.1234
-42.567
-41.8661
-44.0519
-40.2381
-40.4787
-40.8472
-39.6855
-41.0609
-42.3711
-41.3125
-42.1782
-47.6481
-44.8067
-47.0617
-45.6878
-76.1484
-93.181
-77.984
-100.441
-64.1864
-61.9011
-58.057
-56.6667
-51.5449
-48.7078
-44.9261
-47.9408
-46.1489
-47.4257
-45.6632
-46.1122
-60.6327
-51.8209
-53.9758
-51.9509
-63.444
-62.0616
-58.0153
-56.9445
-60.5433
-51.7073
-53.8642
-51.8817
-45.9236
-47.1345
-45.4994
-45.9476
-51.4055
-48.4164
-44.977
-47.7048
-96.0349
-85.2386
-85.8268
-75.1972
-95.7648
-84.8186
-85.3015
-74.7568
-49.1165
-49.1693
-51.1407
-50.4234
-48.1558
-49.2634
-50.634
-50.3705
-33.7863
-28.7314
-24.8729
-21.0499
6.02355
17.4539
7.20108
19.1696
3.36974
15.4134
8.76916
19.4885
-33.6811
-28.6302
-24.7966
-20.9349
79.4197
88.9972
136.758
68.2558
143.824
136.79
151.196
146.966
136.925
144.077
147.44
151.495
89.8427
77.8864
73.2228
137.442
-39.4332
-40.0404
-39.6211
-40.5469
-38.1629
-38.6899
-38.5809
-39.1682
-43.0098
-44.2648
-42.8094
-46.112
-49.8999
-51.4102
-47.4575
-48.8997
-39.0495
-39.6808
-39.2065
-40.1549
-49.4715
-50.958
-47.0272
-48.4432
-42.2446
-43.6155
-42.1804
-45.5734
-37.573
-38.0716
-38.0112
-38.5695
-39.9615
-41.1411
-39.6569
-40.5734
-40.9112
-39.6715
-40.3557
-39.3303
-38.7146
-38.3418
-38.8567
-37.7882
-39.5217
-40.0283
-39.1169
-39.7152
-108.826
-40.9905
-98.1447
-66.2046
-60.0387
-61.1398
-67.8683
-67.6908
-60.669
-59.4703
-67.3722
-67.4529
-40.4292
-107.816
-65.8751
-97.5432
-43.6166
-40.9103
-43.6723
-41.4165
-45.5879
-46.5066
-47.0945
-46.3402
-44.6697
-43.8679
-45.1695
-44.4328
-45.4222
-44.6866
-45.1465
-44.4948
-42.4466
-39.9187
-42.686
-40.3435
-44.2094
-43.5973
-43.8235
-43.3132
-41.7511
-41.1943
-42.5729
-42.065
-43.2478
-44.5702
-44.8057
-44.5097
-44.4391
-42.7039
-44.3036
-44.1685
-45.3495
-44.1216
-40.8146
-43.1848
-52.3554
-45.7822
-51.6472
-52.0514
-51.7919
-52.0332
-51.5271
-49.5863
-52.1691
-53.505
-50.1
-51.9378
-35.9267
-36.5658
-35.3074
-36.4887
-33.0276
-34.0023
-33.3164
-34.4887
-51.3068
-52.8216
-49.2315
-51.3629
-41.1985
-41.563
-39.7914
-39.9254
-40.4171
-38.9673
-38.1453
-36.8562
-34.8475
-36.3992
-35.4803
-36.5468
-40.6412
-39.7641
-40.0606
-38.7772
-108.719
69.0306
-110.412
32.2938
-80.6733
-74.3488
-46.7168
-44.3276
-49.9116
-43.233
-45.9406
-51.806
-100.102
75.9326
-77.0053
42.7154
-63.5111
-52.1658
-45.2927
-41.8761
-37.966
-40.3843
-42.5006
-39.5584
-107.252
31.2748
-108.299
69.2958
-80.3846
-73.4329
-47.4141
-41.3085
-44.2289
-42.2034
-43.9165
-50.4203
-77.1979
42.9689
-100.028
76.173
-63.3084
-52.0913
-33.7795
-34.6592
-41.4149
-37.4415
-39.1162
-35.8648
-43.8325
-47.3541
-39.0643
-39.7283
-41.1609
-39.8256
-46.5767
-42.6296
-36.0639
-50.3068
-37.3304
-37.7927
-37.2635
-38.5657
-39.9002
-40.5697
-54.8137
-47.0089
-53.7351
-54.7098
-57.1759
-73.5444
-30.4579
-78.8054
-47.7676
-49.309
-47.9212
-47.3966
-47.9607
-50.6475
-55.0234
-53.7522
-43.4951
-47.136
-46.4075
-42.3638
-38.7457
-39.452
-40.8902
-39.5264
-35.4252
-49.6701
-39.029
-39.7905
-36.7143
-37.094
-36.637
-37.9119
-54.4097
-45.8142
-29.1256
-78.0362
-53.3432
-54.2716
-56.7129
-73.0557
-46.7201
-48.2422
-54.1936
-52.7371
-47.1279
-46.4511
-47.1657
-49.8621
-105.19
126.638
-99.0851
89.4238
-72.9745
-77.8599
180.667
159.297
-84.3208
39.9047
-84.3941
39.5651
-106.793
-106.36
47.6378
46.6535
-54.1767
-65.4663
-36.19
-36.793
-47.7963
-42.7724
-57.6059
-45.9237
-48.0913
-42.0804
-47.8921
-41.7441
-46.7229
-46.2071
-41.319
-41.3149
-45.0815
-41.8458
-44.4926
-41.2746
-47.2667
-47.5673
-40.7762
-40.4595
-45.5782
-44.8196
-44.1055
-42.0939
-45.2386
-45.4222
-44.4725
-45.5834
-53.7375
19.2393
-53.7001
19.1257
-40.1878
-40.1853
128.786
128.828
-45.6515
-27.6885
-45.7602
-24.4233
-46.4351
-46.6138
-19.5256
-13.7266
-35.5653
-36.0585
-32.252
-32.0204
-34.4776
-33.0716
-32.8117
-34.8748
-43.2557
-41.9447
-45.491
-46.2224
-44.1811
-44.8483
-49.8151
-43.4918
-104.795
126.779
-97.566
89.8667
-72.9744
-76.8864
159.429
180.799
-53.8682
-64.7571
-36.2576
-37.0452
-47.6344
-42.7528
-55.2723
-48.6267
-44.7486
-39.1686
-44.2799
-38.4161
-43.1842
-43.7933
-38.5081
-38.1663
-44.2162
-43.41
-43.0478
-41.0663
-44.0539
-44.0736
-43.6585
-43.0075
-45.5094
-27.5568
-45.6016
-24.5511
-46.4723
-46.2846
-13.6752
-19.3859
-41.0833
-39.7279
-43.9956
-44.7121
-43.2177
-42.2091
-41.5946
-48.2331
-37.9429
-37.0991
-37.4527
-35.8246
-38.1775
-37.6864
-38.0913
-37.6235
-41.1492
-41.9663
-44.6905
-46.4546
-42.4304
-43.5598
-42.6293
-44.9161
-45.8467
-43.6702
-45.7925
-43.5369
-47.6484
-47.6418
-42.6595
-42.5881
-39.3428
-39.7927
-43.0581
-42.8819
-40.1694
-41.7876
-40.9342
-42.1235
-39.7582
-39.9451
-39.2884
-39.5352
-39.2854
-39.5064
-39.0184
-38.8237
-54.0545
-63.4749
-49.9502
-55.3334
-48.8811
-50.8265
-70.3161
-63.5171
26.0642
6.67355
25.9991
6.67587
31.1214
30.9554
-10.5946
-10.5657
-61.7198
-57.7801
-61.4525
-56.8153
-64.7171
-64.5884
-55.8196
-55.6286
-37.5051
-36.6586
-36.8957
-35.1578
-37.7096
-37.1607
-37.5558
-36.8607
-40.8682
-41.6364
-44.3715
-46.0869
-43.2719
-42.1683
-42.2713
-44.5407
-38.6491
-39.0205
-42.2936
-42.0063
-41.0838
-39.4953
-40.054
-41.1951
-53.5558
-62.974
-49.4161
-54.7273
-50.3182
-48.3301
-62.9628
-69.8082
-51.6417
-50.7209
-48.3853
-47.3038
-49.3281
-49.2429
-49.0217
-49.6952
-51.5117
-50.638
-48.1727
-47.1456
-49.0598
-49.0093
-49.5294
-48.723
-74.6028
-74.668
-69.4745
-59.2115
-69.3999
-59.1528
-56.5242
-56.5015
-11.7486
-11.7009
-7.128
4.07526
4.2646
-7.00632
11.3665
11.4449
200.922
179.9
197.193
197.224