# vtk DataFile Version 2.0
tet_velo
ASCII
DATASET UNSTRUCTURED_GRID
POINTS 29498 float
-0.619403 0.075 -1.735
-0.899682 0.095 1.655
-0.805 0.594661 -1.325
-0.775 0.625 1.85049
0.619407 0.075 -1.735
0.899682 0.095 1.655
0.805 0.594661 -1.325
0.775 0.625 1.85049
-0.721462 0.073034 -0.605
-0.821243 0.0733461 0.525
-0.779879 0.589653 -0.266503
-0.800147 0.630034 0.791993
0.721465 0.0730332 -0.605
0.821245 0.0733452 0.525
0.779884 0.589658 -0.266503
0.800094 0.629981 0.791993
-1.35743 -0.192941 -2.77474
-1.37306 -0.1913 -1.89938
-1.46405 -0.193262 -0.767533
-1.57656 -0.192894 0.378706
-1.65187 -0.179842 1.51177
-1.66927 -0.169603 2.39307
-1.67001 -0.161545 3.26338
-1.36545 0.0700853 -2.59545
-1.38028 0.0715478 -1.7279
-1.47729 0.0723592 -0.609963
-1.59532 0.0774247 0.514409
-1.66948 0.0893851 1.63372
-1.68485 0.0993191 2.514
-1.68272 0.107259 3.38665
-1.44581 0.591541 -2.21679
-1.50601 0.591944 -1.34629
-1.53276 0.595892 -0.277094
-1.58366 0.624311 0.787031
-1.59964 0.62657 1.85759
-1.65092 0.635382 2.74084
-1.6766 0.644152 3.62501
-1.52073 1.37471 -1.70257
-1.55257 1.3788 -0.84277
-1.57139 1.39428 0.203238
-1.58633 1.42103 1.23383
-1.60617 1.43703 2.28059
-1.63069 1.44396 3.14195
-1.65726 1.45068 4.01831
-0.628776 -0.190624 -2.77936
-0.63794 -0.188459 -1.90611
-0.705684 -0.192811 -0.76663
-0.782677 -0.19522 0.387745
-0.839727 -0.177418 1.52757
-0.859306 -0.167833 2.40379
-0.864051 -0.16068 3.26958
-0.624993 0.0723616 -2.59687
-0.885029 0.101266 2.52285
-0.879845 0.108114 3.39133
-0.690775 0.593151 -2.20795
-0.856719 0.635508 2.73942
-0.880085 0.644502 3.62471
-0.761495 1.3742 -1.69383
-0.790075 1.37748 -0.833138
-0.798894 1.39287 0.209044
-0.803117 1.42236 1.23314
-0.817247 1.43844 2.27561
-0.839872 1.44468 3.13698
-0.865718 1.45114 4.0147
0.752127 -0.190625 -2.77936
0.693228 -0.18846 -1.90611
0.753395 -0.192813 -0.76663
0.834278 -0.195223 0.387745
0.880228 -0.17742 1.52757
0.820316 -0.167836 2.40379
0.775693 -0.160686 3.26958
0.758341 0.0723607 -2.59687
0.798629 0.101263 2.52285
0.758609 0.108109 3.39133
0.804297 0.59315 -2.20795
0.753456 0.635504 2.73942
0.733672 0.644495 3.62471
0.760506 1.3742 -1.69383
0.746698 1.37748 -0.833138
0.751251 1.39286 0.209044
0.763154 1.42234 1.23314
0.757596 1.43842 2.27561
0.741345 1.44467 3.13698
0.720437 1.45113 4.0147
1.46082 -0.192945 -2.77474
1.41117 -0.191303 -1.89938
1.49012 -0.193271 -0.767533
1.61074 -0.192907 0.378706
1.67636 -0.17985 1.51177
1.63871 -0.169612 2.39307
1.59072 -0.161557 3.26338
1.4609 0.0700826 -2.59545
1.38359 0.0715466 -1.7279
1.47111 0.0723494 -0.609963
1.59876 0.0774053 0.514409
1.66915 0.0893786 1.63372
1.62331 0.0993106 2.514
1.57575 0.107247 3.38665
1.51781 0.591538 -2.21679
1.49568 0.591943 -1.34629
1.51541 0.59588 -0.277094
1.5767 0.62426 0.787031
1.58756 0.626554 1.85759
1.56921 0.63537 2.74084
1.5435 0.644137 3.62501
1.51614 1.3747 -1.70257
1.50946 1.37879 -0.84277
1.52097 1.39426 0.203238
1.54143 1.421 1.23383
1.54342 1.437 2.28059
1.5315 1.44394 3.14195
1.51334 1.45065 4.01831
-0.668139 0.334831 -1.48594
1.99676e-06 0.0716594 -1.73834
-0.671684 0.072766 -1.17
-0.835038 0.36 1.75044
0 0.0711701 1.67883
-0.865601 0.0790344 1.09
0 0.553887 -1.28423
-0.839463 0.639181 -0.795752
0 0.608497 1.83399
-0.836071 0.676015 1.32124
0.668158 0.334831 -1.48595
0.671687 0.0727653 -1.17
0.834983 0.36 1.75039
0.865595 0.0790412 1.09
0.839452 0.63917 -0.795752
0.836073 0.676017 1.32124
-0.771356 0.0731867 -0.04
-0.870141 0.331344 -0.435752
1.75527e-06 0.0706017 -0.605
-0.831166 0.35169 0.658497
1.09035e-06 0.0706291 0.525
-0.771083 0.590913 0.262745
2.43991e-06 0.894755 -0.266503
-2.6517e-05 0.672902 0.791993
0.771359 0.0731851 -0.04
0.870149 0.331346 -0.435752
0.831163 0.351663 0.658497
0.77113 0.590961 0.262745
-0.888783 0.333087 -0.982876
-0.849051 0.341517 0.111372
-0.890057 0.355845 1.20562
1.87601e-06 0.0705196 -1.17
1.42281e-06 0.070618 -0.04
5.45173e-07 0.0705812 1.09
9.98378e-07 0.334831 -1.89821
0 0.36 1.93853
1.21995e-06 0.661271 -0.795752
-1.20385e-05 0.905275 0.262745
-1.32585e-05 0.668026 1.32124
0.888783 0.333088 -0.982876
0.849038 0.341504 0.111372
0.890057 0.355832 1.20562
-0.999843 0.0732739 -1.73145
-0.628671 -0.0567297 -1.82056
-0.622198 0.0736808 -2.16594
-1.28458 0.0921925 1.64436
-0.869705 -0.041209 1.59128
-0.892356 0.0981328 2.08892
-1.1555 0.593302 -1.33564
-0.747888 0.593906 -1.76648
-0.797538 0.986071 -1.07907
-1.18732 0.625785 1.85404
-0.815859 0.630254 2.29495
-0.796123 1.03172 2.06305
0.656317 -0.0567302 -1.82056
0.688874 0.0736803 -2.16594
1.0015 0.0732733 -1.73145
0.889955 -0.04121 1.59128
0.849156 0.0981314 2.08892
1.28442 0.0921893 1.64436
0.804649 0.593906 -1.76648
0.775849 0.986068 -1.07907
1.15034 0.593302 -1.33564
0.764228 0.630252 2.29495
0.766298 1.03171 2.06305
1.18128 0.625777 1.85404
-1.09937 0.0726966 -0.607481
-0.713573 -0.0598885 -0.685815
-1.20828 0.0753854 0.519705
-0.80196 -0.0609371 0.456373
-1.15632 0.592773 -0.271799
-0.789387 0.991264 -0.0287297
-1.1919 0.627173 0.789512
-0.801632 1.0262 1.01257
0.73743 -0.05989 -0.685815
1.09629 0.0726913 -0.607481
0.827761 -0.060939 0.456373
1.21 0.0753753 0.519705
0.765567 0.991261 -0.0287297
1.14765 0.592769 -0.271799
0.781624 1.02616 1.01257
1.1884 0.62712 0.789512
-1.36524 -0.19212 -2.33706
-1.36144 -0.0614277 -2.6851
-0.993103 -0.191782 -2.77705
-1.41855 -0.192281 -1.33346
-1.37667 -0.059876 -1.81364
-1.0055 -0.18988 -1.90275
-1.5203 -0.193078 -0.194413
-1.47067 -0.0604514 -0.688748
-1.08487 -0.193037 -0.767082
-1.61421 -0.186368 0.945236
-1.58594 -0.0577347 0.446558
-1.17962 -0.194057 0.383226
-1.66057 -0.174722 1.95242
-1.66067 -0.0452283 1.57274
-1.2458 -0.17863 1.51967
-1.66964 -0.165574 2.82822
-1.67706 -0.035142 2.45353
-1.26429 -0.168718 2.39843
-1.67637 -0.0271433 3.32501
-1.26703 -0.161113 3.26648
-1.37287 0.0708165 -2.16167
-1.40563 0.330813 -2.40612
-0.995222 0.0712234 -2.59616
-1.42879 0.0719535 -1.16893
-1.44315 0.331746 -1.53709
-1.5363 0.0748919 -0.0477767
-1.50503 0.334126 -0.443528
-1.6324 0.0834049 1.07406
-1.58949 0.350868 0.65072
-1.67716 0.0943521 2.07386
-1.63456 0.357978 1.74565
-1.68378 0.103289 2.95033
-1.66788 0.367351 2.62742
-1.28494 0.100292 2.51843
-1.67966 0.375705 3.50583
-1.28128 0.107686 3.38899
-1.47591 0.591742 -1.78154
-1.48327 0.983124 -1.95968
-1.06829 0.592346 -2.21237
-1.51939 0.593918 -0.81169
-1.52929 0.98537 -1.09453
-1.55821 0.610102 0.254968
-1.55208 0.995087 -0.0369282
-1.59165 0.625441 1.32231
-1.58499 1.02267 1.01043
-1.62528 0.630976 2.29921
-1.6029 1.0318 2.06909
-1.66376 0.639767 3.18292
-1.6408 1.03967 2.94139
-1.25382 0.635445 2.74013
-1.66693 1.04741 3.82166
-1.27834 0.644327 3.62486
-1.53665 1.37675 -1.27267
-1.14111 1.37445 -1.6982
-1.56198 1.38654 -0.319766
-1.17132 1.37814 -0.837954
-1.57886 1.40766 0.718536
-1.18514 1.39358 0.206141
-1.59625 1.42903 1.75721
-1.19472 1.4217 1.23349
-1.61843 1.4405 2.71127
-1.21171 1.43773 2.2781
-1.64398 1.44732 3.58013
-1.23528 1.44432 3.13947
-1.26149 1.45091 4.01651
-0.633358 -0.189542 -2.34273
-0.626885 -0.0591311 -2.68811
0.0616757 -0.190624 -2.77936
-0.671812 -0.190635 -1.33637
0.0276438 -0.18846 -1.90611
-0.74418 -0.194016 -0.189442
0.0238558 -0.192812 -0.76663
-0.811202 -0.186319 0.957658
0.0258005 -0.195222 0.387745
-0.849517 -0.172625 1.96568
0.0202503 -0.177419 1.52757
-0.861679 -0.164257 2.83668
-0.872167 -0.0332836 2.46332
-0.0194948 -0.167835 2.40379
-0.871948 -0.0262831 3.33045
-0.044179 -0.160683 3.26958
-0.657884 0.332756 -2.40241
0.0666736 0.0723611 -2.59687
-0.882437 0.10469 2.95709
-0.870874 0.368387 2.63113
-0.0432 0.101264 2.52285
-0.879965 0.376308 3.50802
-0.0606177 0.108111 3.39133
-0.726135 0.983676 -1.95089
0.0567611 0.593151 -2.20795
-0.868402 0.640005 3.18206
-0.848296 1.0401 2.9382
-0.0516313 0.635506 2.73942
-0.872902 1.04782 3.8197
-0.0732067 0.644499 3.62471
-0.775785 1.37584 -1.26348
-0.000494835 1.3742 -1.69383
-0.794484 1.38518 -0.312047
-0.0216884 1.37748 -0.833138
-0.801006 1.40762 0.721091
-0.0238216 1.39287 0.209044
-0.810182 1.4304 1.75438
-0.0199817 1.42235 1.23314
-0.82856 1.44156 2.7063
-0.0298254 1.43843 2.27561
-0.852795 1.44791 3.57584
-0.0492634 1.44468 3.13698
-0.0726404 1.45113 4.0147
0.722677 -0.189543 -2.34273
0.755234 -0.0591322 -2.68811
1.10647 -0.191785 -2.77705
0.723311 -0.190637 -1.33637
1.0522 -0.189882 -1.90275
0.793837 -0.194018 -0.189442
1.12176 -0.193042 -0.767082
0.857253 -0.186322 0.957658
1.22251 -0.194065 0.383226
0.850272 -0.172628 1.96568
1.2783 -0.178635 1.51967
0.798005 -0.164261 2.83668
0.809473 -0.0332867 2.46332
1.22952 -0.168724 2.39843
0.767151 -0.0262884 3.33045
1.1832 -0.161121 3.26648
0.781319 0.332756 -2.40241
1.10962 0.0712216 -2.59616
0.778619 0.104686 2.95709
0.776043 0.368383 2.63113
1.21097 0.100287 2.51843
0.746141 0.376302 3.50802
1.16718 0.107678 3.38899
0.782401 0.983674 -1.95089
1.16105 0.592344 -2.21237
0.743564 0.64 3.18206
0.747401 1.04009 2.9382
1.16133 0.635437 2.74013
0.727054 1.04781 3.8197
1.13859 0.644316 3.62486
0.753602 1.37584 -1.26348
1.13832 1.37445 -1.6982
0.748974 1.38517 -0.312047
1.12808 1.37813 -0.837954
0.757202 1.4076 0.721091
1.13611 1.39356 0.206141
0.760375 1.43038 1.75438
1.15229 1.42167 1.23349
0.749471 1.44154 2.7063
1.15051 1.43771 2.2781
0.730891 1.4479 3.57584
1.13642 1.4443 3.13947
1.11689 1.45089 4.01651
1.436 -0.192124 -2.33706
1.46086 -0.061431 -2.6851
1.45065 -0.192287 -1.33346
1.39738 -0.0598782 -1.81364
1.55043 -0.193089 -0.194414
1.48061 -0.0604608 -0.688748
1.64355 -0.186378 0.945236
1.60475 -0.0577509 0.446558
1.65754 -0.174731 1.95242
1.67276 -0.0452355 1.57274
1.61472 -0.165585 2.82822
1.63101 -0.0351508 2.45354
1.58323 -0.0271552 3.32501
1.42224 0.0708146 -2.16167
1.48935 0.33081 -2.40612
1.42735 0.071948 -1.16893
1.43964 0.331745 -1.53709
1.53493 0.0748774 -0.0477768
1.49326 0.334115 -0.443529
1.63395 0.083392 1.07406
1.58773 0.350832 0.65072
1.64623 0.0943446 2.07386
1.62835 0.357966 1.74565
1.59953 0.103279 2.95033
1.59626 0.36734 2.62742
1.55963 0.375692 3.50583
1.50674 0.591741 -1.78154
1.51697 0.983118 -1.95968
1.50555 0.593912 -0.81169
[...]
POINT_DATA 29498
VECTORS point_vectors float
-5.95396 -9.22835 12.3272
0.352249 0.70106 5.09708
-2.20314 1.36476 4.11748
0.254072 -0.583835 2.68506
5.95017 -9.22704 12.3224
-0.351208 0.701114 5.09346
2.2103 1.37108 4.12283
-0.247241 -0.591114 2.68523
0 0 0
-0.00847445 -0.00100035 0.497109
0.0217803 0.0123844 0.0735327
0.078968 0.109977 0.298075
0 0 0
0.00842294 -0.000987573 0.496919
-0.0217699 0.0123677 0.0733945
-0.0778995 0.108521 0.292666
-0.516723 -0.191119 19.7501
-1.18702 -0.678531 20.0087
-0.724763 -0.469013 21.1531
-0.147093 -0.0881056 21.098
0.22081 0.0514826 21.1446
0.513055 0.172881 20.9718
0.523126 0.259182 20.7567
-0.725439 -0.159152 19.6327
-1.77614 -0.619616 20.0024
-0.773342 -0.347592 21.2372
-0.151772 -0.0984783 21.1005
0.292601 0.025523 21.1476
0.60399 0.0895327 20.9589
0.623059 0.0929052 20.4396
-1.07584 0.207716 19.6666
-1.74792 0.219275 20.5843
-0.65925 -0.110257 21.2215
-0.124218 -0.079384 21.1934
0.468945 -0.147647 21.1522
0.642395 -0.160624 20.8667
0.600549 -0.146281 21.3755
-0.813678 0.585693 20.181
-0.821074 0.457009 20.7777
-0.406042 0.13256 21.0839
-0.00602245 -0.091223 21.0986
0.256892 -0.296303 20.9487
0.282874 -0.320573 20.8463
0.275363 -0.324001 20.7883
-0.460301 -0.462664 19.2199
-1.60794 -2.99392 19.1255
-0.0205476 -0.606755 21.512
-0.25919 -0.00331741 19.2229
0.0459821 0.466135 18.9868
0.494148 1.16755 19.1661
0.651479 1.00785 19.9604
-0.711644 -0.436256 18.731
1.06872 1.18418 11.9197
1.38637 1.02418 13.7747
-1.59361 0.95485 17.9311
1.78057 -0.607039 13.4587
1.32653 -0.696515 16.3486
-0.900598 1.53569 19.8478
-1.22612 1.53134 20.9242
-0.70226 0.587159 21.5747
-0.0629444 -0.163915 21.4283
0.173338 -0.611268 21.0814
0.249525 -0.693932 20.8554
0.392668 -0.581974 19.7416
0.494099 -0.402282 19.3137
1.66587 -2.76591 19.1657
0.188009 -0.650255 21.0034
0.252709 -0.024615 19.7863
-0.0823171 0.444749 19.0976
-0.418211 1.17195 18.9289
-0.508694 1.1634 18.5484
0.803487 -0.380556 18.9314
-0.709487 1.13627 9.70752
-1.24805 1.09674 12.2483
1.59946 0.749274 18.2945
-1.41252 -0.747912 10.1614
-1.41252 -0.661248 12.7427
0.899784 1.53709 19.8476
1.21352 1.61689 20.9176
0.700648 0.647744 21.6138
0.0660688 -0.16438 21.4522
-0.147002 -0.628531 21.114
-0.209995 -0.738909 20.8476
-0.290877 -0.54789 20.1147
0.503814 -0.177024 19.7879
1.16214 -0.632074 20.0197
0.724796 -0.440374 21.1249
0.151639 -0.098054 21.0824
-0.21534 0.039176 21.153
-0.536397 0.178761 20.9809
-0.581416 0.266898 20.7585
0.695644 -0.129172 19.7089
1.76857 -0.615139 20.0059
0.776361 -0.351461 21.2424
0.155479 -0.098169 21.0991
-0.292217 0.0288883 21.1538
-0.643458 0.113861 20.9785
-0.744373 0.0894965 20.632
1.02112 0.168149 19.74
1.78637 0.234427 20.5832
0.66471 -0.115991 21.2372
0.124136 -0.0802178 21.1945
-0.473862 -0.150448 21.1605
-0.728774 -0.235363 20.8726
-0.648843 -0.190565 21.5445
0.816012 0.589754 20.1794
0.857644 0.486645 20.7916
0.430418 0.132774 21.1052
0.0125287 -0.105233 21.1215
-0.262018 -0.316478 20.9474
-0.307724 -0.354526 20.7701
-0.310477 -0.352071 20.7625
0 0 0
-2.6908e-05 -0.0594199 0.366956
-0.0281933 0.00320673 0.125195
0.00431178 -0.0071897 0.0350843
-0.000344423 0.0518859 0.224719
-0.00857106 0.0130099 0.748225
0 0 0
-0.066203 -0.129233 0.649535
-0.000750791 0.0176149 -0.0278878
0.163087 0.156104 1.10919
0 0 0
0.0281123 0.00319017 0.125259
-0.00472222 -0.00622764 0.0353329
0.0083825 0.0129347 0.734504
0.066011 -0.128393 0.645803
-0.163108 0.158565 1.1161
-6.22239e-05 9.1761e-06 0.000594223
0.000750155 0.00311009 0.0146798
0 0 0
0.000612875 0.00514952 0.0482414
1.77312e-09 -5.5856e-09 -2.84979e-06
0.079097 0.0956362 0.227536
1.17847e-05 0.0209446 0.0922368
0 0 0
7.1247e-05 1.05353e-05 0.000681993
-0.000708444 0.00312957 0.0151399
-0.000614922 0.00512351 0.0480267
-0.0800202 0.096794 0.230494
-5.09138e-05 9.77296e-05 0.00154664
0.00226324 0.00448032 0.0373591
0 0 0
2.43732e-07 8.39377e-08 -1.86217e-05
9.73429e-09 1.34013e-09 -3.4033e-06
3.16299e-08 -7.49072e-08 -4.49481e-05
-0.00564752 1.65863 1.2975
0 0 0
2.03285e-20 -9.05095e-18 -1.93021e-17
-1.3403e-05 0.0154152 0.0422502
-6.03016e-05 -0.00234354 -0.0271115
4.98296e-05 9.59386e-05 0.00153987
-0.00216654 0.00427944 0.0359158
0 0 0
-3.27221 -1.92763 19.0226
-2.61801 -4.81707 18.569
-1.86769 -1.38751 17.483
0.528709 0.141365 21.3527
-0.0049468 0.537294 13.6599
0.80614 1.01744 9.49033
-3.76776 0.940302 20.7804
-3.69492 2.79548 17.0743
-2.3929 2.43727 21.1069
0.996441 -0.262306 20.5642
1.10764 -0.543475 9.23557
0.430048 -0.911044 20.1195
2.68345 -4.57024 18.6285
1.87724 -1.19954 17.755
3.26567 -1.91625 19.0322
-0.0337144 0.548274 14.166
-0.565185 0.969143 7.70172
-0.526145 0.14024 21.3538
3.66943 2.327 17.4515
2.36745 2.55081 21.0855
3.8216 0.96259 20.7861
-0.790228 -0.653969 7.28084
-0.419235 -0.909572 19.9767
-1.00782 -0.260044 20.504
-0.633932 -0.471255 20.9995
-0.898433 -0.0229858 14.1251
-0.1021 -0.0647811 20.7759
-0.455416 0.113066 12.7338
-0.598829 -0.452486 21.1246
-1.94428 0.566039 21.5922
-0.106214 -0.0833323 20.6264
-0.0720495 -0.0776142 20.5802
0.910353 -0.0736956 14.3318
0.637144 -0.462411 20.9607
0.490367 0.131737 13.1257
0.106072 -0.0686255 20.7989
1.99382 0.641691 21.3169
0.570661 -0.473885 20.9542
0.0567448 -0.0634204 20.429
0.102205 -0.081117 20.5777
-0.817089 -0.39775 19.7642
-0.61433 -0.175197 19.6979
-0.548577 -0.322259 19.4915
-1.24967 -0.809962 20.7466
-1.50505 -0.69347 19.9715
-1.60782 -1.4889 19.5816
-0.330763 -0.190005 21.138
-0.761133 -0.427863 21.2001
-0.662751 -0.856357 21.5419
-0.00330475 -0.0253752 21.1711
-0.158517 -0.114027 21.0837
-0.136542 -0.156725 21.1831
0.406019 0.120431 21.114
0.243596 0.0402675 21.1575
0.284077 0.153416 21.2941
0.56903 0.171835 20.77
0.566811 0.132466 20.9519
0.72767 0.481794 20.8794
0.582038 0.17306 20.6151
0.75538 0.407945 20.6726
-1.19036 -0.334401 19.6559
-0.94191 -0.0550246 19.5729
-0.786531 -0.271413 19.2684
-1.55959 -0.639921 21.0375
-2.0595 -0.176943 20.2789
-0.356464 -0.18094 21.1583
-0.684292 -0.210614 21.2675
0.0271734 -0.0420985 21.1773
-0.148 -0.0879827 21.154
0.499518 0.0723939 21.0548
0.4031 -0.0395351 21.2255
0.655202 0.0706046 20.8409
0.685036 -0.062087 20.9338
1.02498 0.271796 20.9589
0.625584 -0.0808429 21.1086
1.02873 0.185868 20.6738
-1.58932 0.276546 19.9394
-1.09963 0.50643 19.9032
-1.46841 0.42806 18.9979
-1.21353 0.0100128 21.1821
-1.27364 0.450022 20.7469
-0.327431 -0.108658 21.1757
-0.588682 0.0421398 21.1707
0.141297 -0.0902681 21.2524
-0.0672978 -0.084887 21.1958
0.624661 -0.192157 21.0269
0.379972 -0.280093 21.0011
0.711648 -0.222172 20.29
0.523573 -0.315111 20.7655
1.12963 -0.430638 20.5827
0.410119 -0.353514 20.5748
1.03835 -0.295984 19.6862
-0.884083 0.57912 20.4951
-0.960468 0.997927 20.044
-0.625306 0.269417 20.9822
-1.08033 0.854757 20.8808
-0.193158 0.0168441 21.1101
-0.570472 0.264109 21.2938
0.154199 -0.202839 21.0313
-0.0248099 -0.145087 21.252
0.284423 -0.320789 20.8139
0.275336 -0.473415 20.982
0.341723 -0.25941 20.3933
0.351521 -0.494691 20.6646
0.442543 -0.464073 20.1827
-0.904541 -1.14603 18.8521
-0.570777 -0.477579 18.9683
0.0573303 -0.578684 18.9664
-0.317912 -2.30065 22.2391
0.0507329 -4.3131 19.47
-0.277463 -0.11341 20.2699
0.00130699 -0.463522 19.8213
-0.136479 0.0417083 18.9558
0.0121036 -0.0636166 17.6941
0.301262 1.01492 19.0631
0.00660052 0.276491 16.3917
0.627934 1.15574 19.2497
0.687981 1.22544 15.3133
-0.0226446 0.730996 16.3598
1.01878 1.01711 16.886
-0.00405059 1.02292 16.1365
-1.18187 -0.0377985 18.1479
0.0901207 -0.556376 18.1937
1.26765 1.14306 13.5829
1.41293 0.306994 8.53985
-0.0717097 -0.0257822 2.26426
1.53649 0.354945 13.0297
0.135154 0.489009 4.73798
-1.37272 1.82377 18.9122
0.193634 1.85293 16.4749
1.80426 -0.748714 15.7833
0.665253 -1.04471 20.0679
0.0318515 -0.237752 -0.414243
0.526493 -0.849284 19.8085
0.170452 -1.0257 3.77046
-1.13756 1.75071 20.397
-0.00107079 2.13686 19.6209
-1.1192 1.11099 21.3884
-0.0487396 2.68749 20.7433
-0.307677 0.167414 21.527
-0.03634 1.20569 22.057
0.0792648 -0.444797 21.2594
-0.00546617 -0.120276 21.7036
0.25142 -0.678899 20.9373
-0.00551887 -0.581205 21.2161
0.167465 -0.69212 20.817
0.0100252 -0.792714 21.0123
0.0583058 -0.230363 20.2322
0.939538 -0.997028 18.9939
0.62861 -0.416816 19.1314
0.549647 -0.273197 19.5707
0.420532 -2.41197 22.0835
1.54744 -1.33077 19.653
0.255457 -0.172671 20.4708
0.685051 -0.801609 21.4878
0.130019 0.0226537 19.3151
0.148581 -0.155981 21.177
-0.301782 1.01307 19.068
-0.286698 0.136552 21.3563
-0.508449 1.19542 18.4068
-0.416903 1.28387 13.8549
-0.744359 0.528011 20.8362
-0.950084 1.06657 15.3735
-0.811892 0.628159 20.0118
1.24612 -0.0619674 18.4203
0.784358 -0.260402 19.3824
-0.994697 1.18208 11.1011
-1.17745 0.250427 5.52937
-1.14375 0.440265 20.2227
-1.62176 0.389989 9.72052
-1.13243 0.434622 19.8884
1.41148 1.66679 19.0193
1.39869 0.350527 19.1952
-1.67544 -0.890753 11.7406
-0.584987 -1.09631 20.0016
-1.31981 -0.371897 19.0677
-0.574908 -1.00374 18.5374
-1.22893 -0.299558 18.4148
1.12631 1.78948 20.3915
0.960437 1.0023 20.0421
1.12444 1.20752 21.4063
1.12147 0.919846 20.8985
0.305632 0.188537 21.5603
0.598026 0.291198 21.3264
-0.0646639 -0.453829 21.2831
0.0342537 -0.143616 21.2681
-0.213623 -0.715263 20.9636
-0.258364 -0.491278 21.0012
-0.0828662 -0.742799 20.9029
-0.364245 -0.538886 20.6592
-0.518319 -0.50999 19.6566
0.789954 -0.352397 19.8073
0.604395 -0.158822 19.76
1.22437 -0.755469 20.722
1.46203 -0.662177 19.9883
0.332813 -0.187281 21.1237
0.761509 -0.419536 21.1857
0.00898131 -0.0363737 21.1553
0.162619 -0.116349 21.0781
-0.40526 0.117241 21.0956
-0.23869 0.0400718 21.157
-0.606404 0.200642 20.8041
-0.595477 0.14919 20.9731
-0.69644 0.170593 20.7505
1.13018 -0.291371 19.7139
0.881717 -0.0372065 19.6832
1.56087 -0.640891 21.0394
2.07166 -0.1809 20.2786
0.354999 -0.180245 21.1642
0.682945 -0.218327 21.2769
-0.0232563 -0.0456442 21.1678
0.147847 -0.0886902 21.1544
-0.51297 0.0864196 21.0665
-0.406464 -0.0402432 21.2311
-0.725869 0.0960689 20.8365
-0.763555 -0.0592665 20.9099
-0.727851 -0.059197 21.3198
1.52292 0.242202 19.9709
1.05047 0.464285 19.9389
1.23702 0.0163174 21.2043
1.31714 0.491074 20.765
0.331767 -0.111866 21.1796
0.611667 0.0367782 21.1897
-0.14211 -0.0914903 21.2585
0.0671894 -0.0867595 21.2055
-0.652816 -0.205432 21.0175
-0.395043 -0.292402 21.0133
-0.780034 -0.26147 20.4766
-0.594504 -0.363248 20.7874
-0.432119 -0.366365 20.3992
0.902947 0.605074 20.4945
0.65511 0.280401 21.0027
0.201479 0.00666184 21.1244
-0.157904 -0.221883 21.0296
-0.305682 -0.364545 20.8375
-0.375877 -0.311854 20.5295
-0.998878 -0.383213 19.7006
-1.27752 -1.33516 18.3023
-0.967718 -0.69077 19.3715
-1.6382 -0.715204 18.8892
-0.670463 -0.313454 19.377
-2.25195 -1.72839 19.3759
-1.42886 -0.767679 20.8779
-0.114553 -1.03843 17.6108
-1.48566 -1.93335 21.127
-2.59501 -2.12172 22.3729
-0.712531 -0.807016 21.779
-0.357124 -0.197749 21.1377
-0.700129 0.0774524 12.4371
-0.287716 -0.329087 21.3317
-0.219942 -0.0665123 20.4198
-0.132085 -0.1123 21.0073
-0.00105182 -0.0466085 21.1673
-0.0430508 -0.0110474 12.7315
-0.0375906 -0.09644 21.165
-0.0259453 -0.0580007 21.1159
0.402698 0.171261 21.3734
0.467314 0.096885 21.0455
0.407239 1.23817 14.2953
0.578694 0.380421 21.1649
0.887589 0.26484 20.999
0.902325 0.407552 20.9704
0.614623 0.114741 20.7965
0.861673 1.21091 16.1922
0.824966 0.468486 20.9002
1.09573 0.267661 20.5975
0.871622 0.232017 20.9076
-1.53602 -0.0885542 19.6914
-3.87031 0.379191 15.7717
-2.76311 0.817894 19.0677
-1.17598 -0.0473665 18.9999
-5.15768 -0.434619 19.3985
-1.48542 -0.258638 21.2024
-1.70269 -0.0519641 21.9787
-0.548731 -0.29437 20.2257
-0.32748 -0.137414 21.1713
-0.179384 -0.373153 20.7139
-0.114111 -0.0115042 19.8727
0.0797227 -0.0515461 21.2438
0.252244 -0.0498201 20.9105
0.817777 0.077339 20.565
0.59643 -0.045596 21.0573
0.425624 0.0977501 4.55774
1.12249 -0.387147 20.6841
1.25491 0.00789611 20.3867
0.716532 -0.0769302 20.5425
1.67354 0.518123 11.5046
1.0574 -0.328439 20.595
1.11294 -0.0744703 20.1545
-1.3412 0.568943 20.2857
-1.97738 2.83751 19.6426
-1.10971 1.05661 20.4803
-1.37476 0.982841 19.5046
-1.93048 1.05803 20.9843
-0.933098 0.203055 21.059
-2.53729 1.22328 21.6973
-0.877172 0.538303 21.1697
-0.978844 0.00176775 21.5169
-0.309121 -0.0310736 21.1684
-0.88719 0.216396 20.9717
-0.266271 0.0561504 21.2998
-0.115931 -0.136584 21.452
0.169979 -0.177077 21.1397
0.283672 -0.606396 20.4662
0.162868 -0.339952 21.1522
0.498937 -0.602342 21.1535
0.471177 -0.333027 20.8997
0.610739 -1.00971 20.1727
0.344625 -0.520664 20.8373
0.641239 -0.652362 20.8928
0.481018 -0.350255 20.7585
0.786867 -0.936255 19.6482
0.340394 -0.492184 20.5647
0.780459 -0.504083 20.0542
1.32431 -1.20121 18.5024
0.0794343 -1.66591 18.2997
0.166698 -2.62249 15.4088
0.0700346 -0.590949 18.6015
0.029253 -6.81994 21.1769
-0.132935 -1.40626 18.6734
-0.0153744 -1.6914 22.4596
0.0167979 -0.061637 11.4848
0.730907 0.0978493 12.7643
0.0126782 -0.166638 18.7258
0.00416684 -0.00162163 9.79646
0.049374 -0.0329416 13.284
0.00595094 0.0560907 16.9342
-0.000199806 0.188123 9.17888
-0.320859 1.23726 13.8722
-0.00374543 0.61256 16.2228
-0.0992029 -0.530605 1.76021
-0.0400777 0.385487 9.26986
-0.606181 1.44165 14.7651
-0.0450635 0.874413 15.6592
0.0467416 0.22584 2.67472
0.0317303 0.91341 10.3414
3.62949 0.162428 16.4741
0.0796862 6.80075 17.0934
0.150217 -0.00927902 16.8897
-0.0637164 -0.0202286 2.71613
-0.0618268 0.474737 -1.19185
0.207061 -0.0476274 -3.86043
-1.55115 0.38982 7.59612
0.179435 -0.635897 1.81423
0.13702 -0.658877 0.652664
2.01389 2.76157 19.6632
-0.0216189 2.54402 20.1877
0.079157 2.75811 18.4225
-0.0394608 4.1606 20.2846
2.59891 1.34819 21.6868
-0.055962 2.42384 21.6703
-0.0375399 2.31104 20.2643
0.833798 0.297801 20.6036
-0.0170621 0.358369 21.8435
-0.00856161 -0.286139 11.9324
-0.291598 -0.609855 20.2932
-0.00595313 -0.394328 21.4105
0.00682008 -0.521425 13.0114
-0.551529 -1.03275 19.9645
-0.00632876 -0.736835 21.2272
0.0428452 -0.991983 14.6671
-0.825858 -1.02971 18.847
0.0320349 -0.864429 20.2184
0.0874784 -1.10673 16.0182
0.961594 -0.352598 19.7634
0.952739 -0.617619 19.4813
1.56836 -0.657081 19.0545
0.672941 -0.272882 19.456
2.22721 -1.62111 19.4247
1.39338 -0.732874 20.8576
1.50959 -1.74137 21.0675
2.61021 -2.1221 22.3786
0.722902 -0.783508 21.7541
0.358098 -0.195717 21.1345
0.303382 -0.316779 21.3146
0.223972 -0.0643793 20.4085
0.128788 -0.135188 21.1735
0.00336684 -0.0488241 21.1559
0.0261379 -0.0922266 21.2291
0.0285998 -0.0587554 21.1208
-0.394494 0.153765 21.4082
-0.471956 0.106058 21.0447
-0.577067 0.379525 21.1559
-0.941128 0.318823 20.7499
-0.934353 0.496322 20.7487
-0.668909 0.158986 20.7749
-0.862082 0.604361 20.4046
-1.30012 0.464724 19.7101
-0.972272 0.531517 19.9494
1.47024 -0.074572 19.7594
2.58203 0.713817 19.2504
1.11241 -0.0396997 19.2046
5.18664 -0.435779 19.3928
1.50289 -0.263561 21.2157
1.70502 -0.0659594 21.9752
0.527635 -0.279961 20.0525
0.328795 -0.140093 21.1741
0.166715 -0.37741 20.6009
0.111603 -0.00880292 19.867
-0.0802928 -0.0525798 21.2449
-0.255942 -0.0431749 20.8612
-0.821943 0.0826876 20.5123
-0.630139 -0.0484251 21.0588
-1.23267 -0.397164 20.3461
-1.45374 0.094639 19.7018
-0.819023 -0.0707054 20.5819
-1.40897 -0.335994 19.0051
-1.29746 -0.0685929 18.9263
1.33443 0.562856 20.2869
1.12341 1.10149 20.4765
1.35867 0.92204 19.5522
1.97271 1.11303 21.0067
0.969505 0.213451 21.0855
0.922473 0.584696 21.1952
1.03102 0.0105296 21.5572
0.32012 -0.0317154 21.181
0.278102 0.0686676 21.3228
0.121249 -0.141148 21.4686
-0.17511 -0.178989 21.1475
-0.154577 -0.350835 21.1689
-0.493975 -0.641543 21.1586
-0.489394 -0.352984 20.9025
-0.329913 -0.547245 20.8579
-0.63376 -0.751428 20.948
-0.550685 -0.369674 20.9706
-0.312774 -0.558994 20.6802
-0.586684 -0.595955 20.9065
-1.25952 -0.761858 19.1677
-2.08553 -2.219 21.5493
-0.276468 -0.245472 21.1987
-0.0233969 -0.0834206 21.2214
0.755708 0.344309 21.2202
0.958384 0.3843 20.6967
-2.50207 -0.101347 18.6545
-2.37529 -0.631261 22.1445
-0.115778 -0.139087 20.0606
0.0329815 0.0342743 20.5298
1.1203 0.0677367 20.0316
1.16701 0.0671481 20.521
-1.92279 1.37903 20.0741
-1.43114 0.330065 21.3754
-0.490544 -0.0975671 21.4722
0.255397 -0.378195 21.3923
0.620909 -0.626402 20.9381
0.616209 -0.566398 20.675
0.110918 -2.13467 17.3022
0.0135721 -0.477055 13.8941
0.0103832 -0.0248014 10.162
-0.000748798 0.0340446 9.15405
-0.0201624 0.371278 8.67447
-0.0519292 0.755864 9.84657
0.356857 1.67697 10.4135
-0.0358607 -0.177847 -2.99712
0.169314 0.0563223 -2.03054
0.0244005 3.94337 19.4263
-0.0667852 5.16799 20.6432
-0.0156621 0.296945 14.8611
-0.000721023 -0.523839 12.9396
0.010017 -0.748793 13.9178
0.0559006 -1.02698 15.162
1.22083 -0.640271 19.2865
2.04006 -2.06372 21.4679
0.281659 -0.258083 21.2795
0.0221461 -0.0867333 21.2687
-0.763866 0.371736 21.1545
-0.979534 0.565011 20.2572
2.309 -0.122002 18.8918
2.37278 -0.63569 22.1403
0.107508 -0.130691 19.9954
-0.0334491 0.0381635 20.5093
-1.19584 0.10199 19.6689
-1.491 0.0546596 19.0743
1.90711 1.34502 20.0867
1.47939 0.342597 21.3961
0.511884 -0.102775 21.5022
-0.258359 -0.401386 21.4084
-0.619613 -0.716251 20.949
-0.633172 -0.674912 20.8149
-1.16551 -0.340632 1.46599
0.0686818 -0.449545 0.671216
-0.00713793 -0.00663093 0.163096
0.0220941 0.000484462 0.0595555
-0.00164665 0.0302199 0.185209
-0.0131706 0.0765045 1.89611
0 0 0
-0.00181022 0.013656 0.0490204
-0.480634 -0.054189 2.27416
0.0303481 -0.0105406 0.175054
-0.0108234 -0.00139991 0.00581665
0.0535423 -0.104931 0.400592
-0.0684622 -0.451043 0.671678
1.16212 -0.344096 1.45873
0.00726855 -0.00659218 0.163392
0.00182601 0.0300661 0.184781
-0.0219523 0.000645589 0.0593091
0.0132901 0.076371 1.89605
0.0017813 0.0135326 0.04859
0 0 0
0.481753 -0.05611 2.27737
0.0106683 -0.00128856 0.00559706
-0.0487041 -0.0161866 0.176742
-0.0533649 -0.105986 0.40296
-0.0141517 0.000718535 0.0859334
-5.50306e-05 3.26675e-06 0.000435794
0 0 0
0 0 0
0.0221079 -0.0288215 1.4766
-0.0141457 0.00405537 0.175409
0 0 0
0 0 0
0.00883588 -0.011929 0.177604
0.0042542 0.00496864 0.0351122
0.128777 0.101158 0.337473
-0.0821834 0.0483819 0.437072
0.102353 0.203426 0.789591
0 0 0
0.0471135 0.0405649 0.100984
0.155047 -0.0533634 0.330708
0.0140979 0.000715001 0.0859068
0 0 0
4.43051e-05 2.64445e-06 0.000352401
2.34051e-18 -8.8321e-18 -4.35246e-17
-0.0220228 -0.0287924 1.47394
0 0 0
0.0141655 0.00406036 0.175655
0 0 0
-0.00880483 -0.0113302 0.172162
0.0841165 0.0500977 0.449499
-0.00424432 0.00496174 0.0351034
-0.12938 0.101518 0.339068
-0.102804 0.204008 0.788487
-0.154917 -0.052981 0.329887
0 0 0
-0.0471061 0.0405517 0.101046
-0.00432586 -0.000563799 0.0225037
-3.32857 3.55541 2.74658
4.17227e-06 -2.5643e-06 0.000324888
0.0137477 -0.465647 0.347366
-0.00095726 0.00278958 0.0371446
5.84348e-06 9.15099e-07 -9.62114e-05
0 0 0
-0.0192031 0.00132606 -0.00324407
2.2136e-08 -3.23522e-08 -1.03683e-05
-0.000465756 -0.0280331 -0.00870344
0 0 0
-2.82382e-06 -3.83114e-07 -0.00031912
9.68084e-05 0.0315065 0.0748576
1.51472e-06 0.00113294 0.00615625
0 0 0
0 0 0
0 0 0
0 0 0
0 0 0
0 0 0
3.31721 3.55039 2.74034
0.00386609 -0.000519928 0.0207054
-5.48142e-06 8.634e-07 -9.05564e-05
0.000965814 0.00270074 0.0378788
0.0193236 0.00136423 -0.0032552
0 0 0
2.80074e-06 -3.62534e-07 -0.000308328
0 0 0
0 0 0
0 0 0
0 0 0
0 0 0
0.0171529 0.0693836 0.454199
0 0 0
0.000119799 0.00107799 0.00910708
0.000822254 0.00309281 0.017832
-2.93994e-08 6.37172e-09 2.61089e-06
9.79029e-09 -3.79306e-09 -1.63923e-06
0.0044412 0.0110741 0.0822719
-0.118648 0.0167516 0.543743
-3.19117e-09 -4.54954e-10 2.04733e-06
3.99493e-09 -3.72956e-08 -1.58005e-05
0.0687452 0.139046 0.761036
0.191296 0.0208936 0.488636
-3.85733e-06 0.0361167 0.080988
0 0 0
-1.14704e-05 0.00583477 -0.0272657
0 0 0
0 0 0
-0.0170031 0.0690422 0.453849
-0.000119761 0.00105722 0.00909018
-0.000821311 0.00307031 0.0178667
-0.00439938 0.0109702 0.081495
0.118589 0.0166045 0.544504
-0.191285 0.0210308 0.488668
-0.0681136 0.138532 0.759009
-1.62742 -0.391388 3.4103
-0.00138754 -0.000168116 0.0334741
3.60233e-05 0.00458548 0.028044
0 0 0
0.000972615 0.0175397 0.103382
0.0158461 0.0269728 0.0919597
0 0 0
0.00835857 0.135792 0.835796
-0.0784378 -0.0319076 0.437218