# vtk DataFile Version 2.0
tri_press
ASCII
DATASET UNSTRUCTURED_GRID
POINTS 3682 float
-0.666461 0.235 -2.155
-0.655 0.355 2.22405
-0.705 0.731802 -2.005
-0.655 1.015 2.14171
0.666461 0.235 -2.155
0.655 0.355 2.22405
0.705 0.731759 -2.005
0.655 1.015 2.14171
-0.761896 0.175745 -0.695317
-0.776216 0.197604 0.764367
-0.800587 0.938455 -0.622764
-0.770338 1.01927 0.759473
0.761897 0.175744 -0.695317
0.77625 0.19757 0.764367
0.80059 0.938429 -0.622764
0.770358 1.01928 0.759473
-1.42569 -0.18517 -3.32273
-1.4325 -0.134963 -2.18601
-1.49884 -0.17153 -0.72432
-1.50895 -0.165825 0.752953
-1.43456 -0.0559204 2.21595
-1.41174 0.0184578 3.35911
-1.41801 0.0734797 4.49037
-1.42366 0.138011 -3.27558
-1.43095 0.217281 -2.14731
-1.51521 0.20204 -0.700692
-1.50967 0.209291 0.752896
-1.39688 0.310907 2.201
-1.38567 0.38291 3.34306
-1.40427 0.437862 4.47684
-1.44095 0.729279 -3.15952
-1.4614 0.806733 -2.02805
-1.54335 0.943959 -0.634235
-1.51118 0.999593 0.754098
-1.39649 1.02151 2.1494
-1.38602 1.0906 3.29467
-1.40508 1.15638 4.44094
-1.46904 1.75106 -3.04368
-1.48485 1.84812 -1.92381
-1.51644 2.0041 -0.555096
-1.52048 2.11522 0.796921
-1.49054 2.1673 2.16644
-1.4674 2.20772 3.288
-1.45727 2.25861 4.42582
-0.694075 -0.176335 -3.32773
-0.682173 -0.122219 -2.19329
-0.742022 -0.184438 -0.723342
-0.770759 -0.174333 0.762743
-0.719424 -0.0327541 2.23307
-0.699703 0.0350005 3.37072
-0.703327 0.0821519 4.49709
-0.692564 0.138384 -3.27712
-0.675034 0.399984 3.35264
-0.691669 0.446039 4.48191
-0.705596 0.699483 -3.14995
-0.675193 1.09286 3.29313
-0.69226 1.15918 4.44061
-0.722353 1.73124 -3.03421
-0.730023 1.82966 -1.91337
-0.758943 2.00122 -0.548807
-0.776033 2.12127 0.796167
-0.763204 2.16958 2.16105
-0.744944 2.20774 3.28262
-0.73472 2.25863 4.42191
0.721742 -0.176344 -3.32773
0.721758 -0.122222 -2.19329
0.765637 -0.184443 -0.723342
0.748836 -0.174356 0.762743
0.671314 -0.0327632 2.23307
0.690476 0.0349932 3.37072
0.709292 0.0821438 4.49709
0.708096 0.138372 -3.27712
0.689764 0.399979 3.35264
0.710575 0.446032 4.48191
0.720014 0.699458 -3.14995
0.689526 1.09285 3.29313
0.710063 1.15918 4.44061
0.758794 1.73122 -3.03421
0.767806 1.82964 -1.91337
0.762048 2.0012 -0.548807
0.727184 2.12127 0.796167
0.695511 2.16958 2.16105
0.695649 2.20773 3.28262
0.704935 2.25863 4.4219
1.44475 -0.185191 -3.32273
1.44968 -0.134978 -2.18601
1.50905 -0.171547 -0.72432
1.5009 -0.165859 0.752952
1.41628 -0.0559435 2.21595
1.40927 0.0184404 3.35911
1.42531 0.0734622 4.49037
1.43011 0.137986 -3.27558
1.42413 0.217262 -2.14731
1.51184 0.202025 -0.700692
1.51468 0.209258 0.752896
1.40658 0.310888 2.201
1.40196 0.382896 3.34306
1.42267 0.437846 4.47684
1.44581 0.729237 -3.15952
1.45354 0.806685 -2.02805
1.53796 0.943929 -0.634235
1.51435 0.999581 0.754098
1.4056 1.0215 2.1494
1.4015 1.09059 3.29467
1.4221 1.15637 4.44094
1.4974 1.75102 -3.04368
1.51058 1.84808 -1.92381
1.51497 2.00407 -0.555096
1.48102 2.1152 0.796921
1.437 2.16729 2.16644
1.42603 2.2077 3.288
1.43064 2.25859 4.42582
-0.711411 0.483401 -2.10568
0 0.212678 -2.17732
-0.727155 0.192396 -1.42516
-0.684883 0.685 2.21276
0 0.328269 2.25078
-0.744023 0.247887 1.49421
0 0.837312 -2.11053
-0.796797 0.879132 -1.31388
0 1.08892 2.21563
-0.740065 1.04453 1.45059
0.711452 0.48338 -2.10572
0.727102 0.192449 -1.42516
0.684884 0.685 2.21276
0.744008 0.247902 1.49421
0.796832 0.879132 -1.31388
0.740067 1.04453 1.45059
-0.772352 0.183379 0.034525
-0.877317 0.5571 -0.65904
3.5298e-07 0.154518 -0.695317
-0.873892 0.608438 0.76192
1.69694e-05 0.163935 0.764367
-0.789763 0.983164 0.068355
1.77017e-06 1.24269 -0.622764
9.54626e-06 1.42433 0.759473
0.772046 0.183685 0.034525
0.877314 0.557087 -0.65904
0.873895 0.608424 0.76192
0.789767 0.983147 0.068355
-0.886386 0.52025 -1.36952
0.886387 0.520233 -1.36952
1.7649e-07 0.127255 -1.42516
8.85084e-07 0.976125 -1.31388
0 0.48339 -2.37496
-0.884877 0.582769 0.05144
0.884866 0.582755 0.05144
8.66118e-06 0.155944 0.034525
5.65821e-06 1.43006 0.068355
-0.87606 0.646719 1.4724
0.876086 0.646712 1.4724
8.48469e-06 0.196493 1.49421
4.77313e-06 1.27125 1.45059
0 0.685 2.2702
-0.663883 0.3592 -2.10529
-0.33323 0.213134 -2.17687
-0.710413 0.200093 -1.79008
-0.679823 0.52 2.22829
-0.3275 0.328056 2.25099
-0.733511 0.267444 1.85913
-0.718248 0.607601 -2.06538
-0.3525 0.822298 -2.09551
-0.779482 0.83405 -1.65944
-0.676269 0.85 2.18356
-0.3275 1.07474 2.20145
-0.706061 1.03829 1.79615
0.33323 0.21312 -2.17688
0.663397 0.35919 -2.1048
0.710411 0.200095 -1.79008
0.3275 0.328119 2.25093
0.679823 0.52 2.22829
0.733066 0.267889 1.85913
0.3525 0.822282 -2.09551
0.718242 0.607569 -2.06538
0.779498 0.834028 -1.65944
0.3275 1.07477 2.20148
0.676123 0.85 2.18342
0.70607 1.0383 1.79615
-0.7546 0.173996 -1.06024
-0.763757 0.182928 -0.330396
-0.864953 0.343749 -0.677178
-0.379761 0.167504 -0.695317
-0.798756 0.184109 1.12929
-0.77211 0.192666 0.399446
-0.85623 0.387433 0.763144
-0.393469 0.170032 0.764367
-0.805441 0.915543 -0.968323
-0.875809 0.766206 -0.640902
-0.798571 0.964206 -0.277204
-0.459418 1.20882 -0.622764
-0.756015 1.03272 1.10503
-0.871129 0.838362 0.760697
-0.781237 1.0024 0.413914
-0.47448 1.40043 0.759473
0.757145 0.17145 -1.06024
0.380329 0.16637 -0.695317
0.763657 0.183029 -0.330396
0.864951 0.343743 -0.677178
0.798756 0.18411 1.12929
0.393571 0.169878 0.764367
0.772007 0.192768 0.399446
0.856233 0.387416 0.763144
0.805463 0.915532 -0.968323
0.459396 1.20876 -0.622764
0.875804 0.766184 -0.640902
0.798582 0.964191 -0.277204
0.755998 1.03269 1.10503
0.474465 1.40037 0.759473
0.871134 0.838354 0.760697
0.781246 1.0024 0.413914
-0.874056 0.501826 -1.7376
-0.355706 0.483396 -2.33621
8.8245e-08 0.191508 -1.80124
0 0.348034 -2.34587
-0.875275 0.356323 -1.39734
-0.363577 0.133963 -1.42516
-0.81828 0.66586 1.84258
-0.342442 0.685 2.25276
4.24234e-06 0.229342 1.87249
0 0.506634 2.34259
-0.875973 0.447303 1.4833
-0.372007 0.20954 1.49421
4.42542e-07 0.918834 -1.71221
0 0.660351 -2.32311
-0.885695 0.699691 -1.3417
-0.398398 0.963558 -1.31388
2.38657e-06 1.13499 1.83311
0 0.88696 2.24198
-0.844097 0.845626 1.4615
-0.37003 1.24251 1.45059
0.874325 0.501806 -1.73762
0.355726 0.483385 -2.33621
0.875275 0.356341 -1.39734
0.363551 0.133093 -1.42516
0.818275 0.665856 1.84258
0.342442 0.685 2.25276
0.875973 0.447307 1.4833
0.372008 0.212331 1.49421
0.885695 0.699682 -1.3417
0.398417 0.963552 -1.31388
0.843997 0.845619 1.4615
0.370036 1.24253 1.45059
-0.867874 0.363444 0.0429825
-0.386106 0.169792 0.034525
-0.884924 0.538675 -1.01428
-0.881957 0.569934 -0.3038
2.64735e-07 0.122629 -1.06024
4.50708e-06 0.155915 -0.330396
-0.880453 0.595604 0.40668
-0.877387 0.627579 1.11716
1.28153e-05 0.157167 0.399446
1.2727e-05 0.14919 1.12929
-0.88334 0.805976 0.0598975
-0.491847 1.40055 0.068355
1.32763e-06 1.06357 -0.968323
3.71419e-06 1.37909 -0.277204
7.60224e-06 1.43674 0.413914
7.1597e-06 1.38756 1.10503
0.867881 0.363508 0.0429825
0.386313 0.169244 0.034525
0.884904 0.53866 -1.01428
0.881952 0.569921 -0.3038
0.880451 0.595589 0.40668
0.877387 0.627568 1.11716
0.883227 0.805906 0.0598975
0.491868 1.40057 0.068355
-0.862996 0.357762 -1.76384
-0.878441 0.361373 -1.03726
-0.874107 0.723734 -0.991301
-0.867843 0.653646 -1.69852
0.862994 0.357765 -1.76385
0.867849 0.653626 -1.69853
0.874097 0.72372 -0.991301
0.878453 0.361378 -1.03726
-0.348404 0.200464 -1.79566
0.348391 0.200462 -1.79566
0.37225 0.126287 -1.06024
-0.372262 0.132161 -1.06024
-0.375449 0.912388 -1.68582
-0.399345 1.0295 -0.968323
0.399356 1.02947 -0.968323
0.375458 0.912386 -1.68582
-0.344468 0.353617 -2.32991
-0.354103 0.633976 -2.27763
0.354113 0.63396 -2.27755
0.344478 0.353612 -2.32984
-0.86716 0.353223 -0.317098
-0.86363 0.374649 0.403063
-0.878842 0.822973 0.410297
-0.880237 0.786422 -0.290502
0.867164 0.353251 -0.317098
0.880237 0.786406 -0.290502
0.878774 0.822927 0.410297
0.863633 0.374674 0.403063
-0.382477 0.169562 -0.330396
0.382826 0.168797 -0.330396
0.389762 0.16992 0.399446
-0.389224 0.171039 0.399446
-0.502236 1.35789 -0.277204
-0.488552 1.41127 0.413914
0.488566 1.41126 0.413914
0.497426 1.34825 -0.277204
-0.876662 0.425162 1.12322
-0.815702 0.483651 1.85086
-0.799893 0.847813 1.81937
-0.863976 0.82974 1.1111
0.876662 0.425152 1.12322
0.863966 0.829735 1.1111
0.799879 0.84781 1.81937
0.815727 0.483653 1.85086
-0.380054 0.178037 1.12929
0.380071 0.176761 1.12929
0.349754 0.256478 1.86581
-0.349754 0.228966 1.86581
-0.377597 1.36672 1.10503
-0.348765 1.12525 1.81463
0.348768 1.12526 1.81463
0.37761 1.36671 1.10503
-0.334971 0.513317 2.31908
0.334971 0.513317 2.31908
0.334971 0.86848 2.24974
-0.334971 0.86848 2.24952
-0.68757 0.2971 -2.15254
-0.499846 0.216688 -2.17331
-0.696469 0.209515 -1.97254
-0.676679 0.4375 2.23544
-0.49125 0.345033 2.23402
-0.709172 0.296306 2.04159
-0.713647 0.669702 -2.03721
-0.52875 0.796416 -2.06962
-0.761519 0.802204 -1.83222
-0.673533 0.9325 2.17054
-0.49125 1.05488 2.18159
-0.686466 1.03258 1.96893
0.499846 0.216653 -2.17335
0.687542 0.297095 -2.15251
0.696464 0.20952 -1.97254
0.49125 0.344973 2.23408
0.676635 0.4375 2.23539
0.709146 0.296332 2.04159
0.52875 0.796469 -2.0697
0.71358 0.669664 -2.03715
0.76129 0.801934 -1.83222
0.49125 1.05487 2.18158
0.673679 0.9325 2.17068
0.686472 1.03259 1.96893
-0.758071 0.175048 -0.877777
-0.76584 0.176323 -0.512856
-0.832651 0.250133 -0.686248
-0.577373 0.158536 -0.695317
-0.795118 0.183225 0.946827
-0.776075 0.193223 0.581906
-0.831074 0.285093 0.763755
-0.585567 0.182368 0.764367
-0.810896 0.934881 -0.795543
-0.85261 0.859536 -0.631833
-0.80005 0.951802 -0.449984
-0.675911 1.16546 -0.622764
-0.7652 1.02802 0.932253
-0.840361 0.938631 0.760085
-0.776253 1.0113 0.586694
-0.651055 1.26714 0.759473
0.75807 0.175048 -0.877777
0.573852 0.165578 -0.695317
0.765846 0.176317 -0.512856
0.832648 0.250131 -0.686248
0.79512 0.183222 0.946827
0.585699 0.182147 0.764367
0.776166 0.193132 0.581906
0.831067 0.285081 0.763755
0.810889 0.934843 -0.795543
0.675848 1.1653 -0.622764
0.852615 0.859516 -0.631833
0.800072 0.951797 -0.449984
0.765229 1.02803 0.932253
[...]
POINT_DATA 3682
SCALARS point_scalars float 1
LOOKUP_TABLE default
-67.5706
-39.0397
-24.7167
-35.7607
-67.3248
-39.0443
-24.7946
-35.7223
-40.8292
-36.955
-61.6465
-50.2252
-40.6726
-37.008
-61.5985
-50.2336
1.24307
-70.4499
-57.0979
-35.0448
-44.1647
-38.4082
-35.4785
24.9349
-65.8
-40.4643
-35.0448
-42.8032
-36.2521
-35.1087
58.2463
-62.8148
-50.3785
-45.2806
-40.4822
-34.9345
-34.79
-6.78159
-52.2919
-88.2809
-59.8343
-36.3619
-35.1488
-33.8654
101.056
-109.842
-41.8059
-37.434
-41.4128
-35.4785
-35.1823
101.056
-35.1823
-34.5489
148.19
-33.1508
-33.6313
-10.4095
-36.6499
-88.0101
-58.9034
-33.9083
-31.954
-31.3513
101.422
-106.186
-41.7814
-37.5289
-41.2351
-35.4817
-35.1722
101.422
-35.1722
-34.5435
146.799
-33.1138
-33.6023
-6.0665
-36.4735
-86.2094
-58.9273
-33.5571
-31.7055
-30.8805
-8.34089
-70.7539
-55.1529
-35.0744
-44.0621
-38.3727
-35.4817
24.8089
-65.4564
-40.3503
-35.0744
-43.206
-36.2284
-35.0922
57.5875
-62.8795
-50.307
-45.252
-40.426
-34.9067
-34.7658
-16.7862
-52.1872
-88.9981
-59.8214
-36.2795
-35.1075
-33.8168
9.91594
-105.864
-51.4546
-35.2796
-36.1627
-46.8922
-50.1818
-44.2114
-29.3466
-45.722
10.0721
-51.4526
-35.2459
-47.1966
-44.4263
-45.7156
-37.7529
-43.2526
-43.4175
-40.9029
-39.7647
-55.1269
-7.10072
-64.3194
-37.7323
-43.1772
-40.5441
-55.0699
-61.1626
-61.2447
-62.9923
-4.959
202.436
-42.8973
-42.8915
-37.8795
-88.5236
-49.6612
-49.6636
-47.6265
-40.634
-27.5854
32.2081
-108.857
-68.4085
-36.6012
-37.455
-45.4696
-11.9169
-51.151
-52.7497
-35.6798
-30.8067
-39.1953
-108.43
32.3434
-68.0345
-37.6321
-36.5593
-45.0296
-51.1612
-12.0141
-52.7925
-30.7761
-35.6494
-39.1637
-49.248
-37.02
-40.6897
-42.8912
-37.9512
-36.7494
-35.4876
-39.4605
-45.7306
-49.1518
-58.1128
-15.5637
-48.6115
-44.666
-52.5732
-61.3392
-53.6778
-42.6627
-36.9606
-40.5889
-37.7624
-39.5383
-36.7477
-35.4311
-45.5146
-15.9383
-49.0763
-57.9727
-48.569
-61.3586
-44.6394
-52.6031
-90.3175
180.103
-58.3394
171.682
-60.6291
-60.0047
-44.6005
-32.1609
-43.9164
-30.7614
-49.7919
-47.8735
-27.6776
138.898
-60.4156
-11.1802
-33.9555
-25.3046
-48.0482
-41.3952
-90.4919
180.145
-60.733
-63.4809
-44.5321
-32.1155
-49.7975
-49.1377
-60.4638
-11.0126
-48.1332
-41.3929
-40.0292
-37.6919
-49.8608
-42.5123
-58.2768
-38.5708
-41.8418
-43.14
-39.2212
-48.1437
-47.3353
-78.8447
22.4851
-80.894
-75.9681
-53.3197
-40.0266
-37.6355
-49.8238
-42.4717
-41.9101
-43.2545
-47.325
-79.196
-91.0077
-51.2995
-48.1095
-72.1709
-91.1894
-72.2938
-48.0801
-51.2869
-58.9165
-58.4177
-58.1042
-57.4127
-30.4219
12.0412
11.6857
-30.4023
160.652
119.51
118.877
160.929
-39.5007
-39.3687
-46.0965
-48.4456
-39.4729
-48.3785
-46.1437
-39.3971
-37.9383
-37.8732
-38.3922
-38.3227
-88.6243
-68.7742
-68.8379
-83.1711
-42.654
-45.7591
-43.1148
-46.6327
-42.6713
-46.4814
-43.0204
-45.6735
-48.7839
-49.1603
-43.4133
-44.4555
-54.0575
-34.9333
-34.9291
-54.0593
-33.9115
-33.8842
-31.2644
-31.3068
26.9332
-113.817
-85.8887
-37.128
-38.0691
-42.8721
-14.5457
-34.1864
-57.8496
-35.9779
-32.2112
-37.1267
-113.466
27.1481
-85.6888
-38.2959
-37.1428
-42.6257
-33.6409
-14.5798
-57.8242
-32.1347
-35.9558
-37.0849
-51.5094
-39.5452
-39.6164
-42.1071
-43.5782
-36.7476
-33.1883
-37.6859
-60.563
-53.8409
-59.8693
-69.3022
-49.8802
-47.6656
-51.1751
-55.4525
-49.2499
-42.0406
-39.3495
-39.4658
-43.6022
-37.7608
-36.7728
-33.1772
-60.2805
-69.4449
-53.7449
-59.7018
-49.8835
-55.4605
-47.6697
-51.1775
24.7889
-5.05393
-66.0674
110.401
-109.608
-108.327
-79.5283
51.0828
-56.8531
-53.2753
-59.3265
-47.55
-36.3321
-35.5783
-40.9545
-33.4357
-36.4343
-36.4907
-40.3274
-33.1974
-45.8717
-59.1551
-50.0227
-47.196
-51.2704
-51.2616
-40.8234
65.6236
-47.8855
-39.9103
-55.9907
-21.0855
-30.1564
-30.1411
-31.7422
-24.0795
-42.3522
-48.5165
-46.3503
-43.0669
24.236
-5.01324
-66.1235
110.125
-57.7113
-53.4349
-59.3422
-50.7376
-36.2944
-35.5424
-40.9005
-33.3992
-46.1755
-59.5496
-50.0534
-47.3141
-48.0058
-39.7124
-56.0885
-20.9148
-42.3283
-48.5055
-46.3971
-43.0557
-37.1678
-37.8187
-38.6898
-37.6241
-41.8979
-45.5968
-45.3722
-42.5321
-43.3201
-43.2931
-51.2395
-40.2826
-38.6189
-42.9952
-40.6808
-41.5123
-40.1029
-40.2149
-38.5737
-43.4459
-57.1846
-55.0138
-51.6418
-63.9638
-8.20901
-8.42209
17.1724
-50.1084
-63.692
-63.7038
-70.3851
-59.8068
-37.1299
-37.7969
-38.6892
-37.659
-41.8127
-45.5232
-45.2828
-42.4729
-38.5025
-42.3954
-41.0655
-41.4067
-57.0924
-55.027
-51.6136
-63.9421
-77.1619
-61.4112
-60.4142
-53.085
-77.2421
-61.5005
-60.4877
-53.1419
-47.9154
-62.5082
-65.5078
-62.4888
-16.7113
-6.92096
-6.80472
8.66396
199.283
190.712
185.246
199.343
-41.3403
-42.6912
-42.7112
-44.8039
-41.3407
-42.67
-42.736
-44.7951
-37.8242
-37.9194
-38.2049
-37.794
-85.6454
-94.3693
-81.2978
-85.6398
-49.1518
-49.3254
-49.9349
-47.6643
-49.1094
-49.326
-49.9449
-47.6698
-45.6798
-47.4817
-48.0145
-51.9795
-36.5249
-40.7469
-40.7475
-46.087
-29.296
-29.7238
-26.6575
-29.2534
-76.4744
121.141
-79.598
85.2441
-84.0094
-61.5701
-41.363
-34.4374
-40.7876
-34.8546
-46.8744
-44.3275
-61.3919
78.9891
-44.608
66.9382
-60.1388
-36.1304
-40.716
-33.3281
-32.2611
-30.3564
-41.4747
-35.8732
-79.3833
85.3882
-76.7374
121.711
-84.1211
-61.005
-40.4467
-34.8505
-41.3171
-34.4161
-46.6283
-43.3836
-44.5772
66.8991
-61.4627
78.6766
-60.2163
-35.7643
-32.2497
-30.3002
-40.6777
-33.2914
-41.4243
-35.8671
-52.7138
-56.3151
-37.9804
-37.17
-45.6329
-39.6794
-51.2597
-39.9996
-38.8378
-48.1303
-38.13
-37.4146
-38.3878
-40.4664
-37.7306
-43.7369
-48.8184
-4.20426
-48.1547
-48.9113
-52.8816
-78.1235
9.23724
-44.6591
-48.5684
-55.4994
-45.3852
-44.0199
-49.1691
-58.6391
-65.2804
-59.8691
-52.8221
-56.7095
-50.8444
-39.7788
-37.9461
-37.2545
-45.4294
-39.6241
-38.8575
-47.499
-37.957
-43.9773
-38.1542
-37.455
-38.404
-40.4706
-48.7446
-4.60235
8.87638
-45.8864
-48.0809
-48.822
-52.7725
-77.7147
-48.2814
-55.4685
-65.3209
-59.8745
-45.3707
-44.2612
-49.1987
-58.6886
-93.0511
-84.3849
177.847
159.886
-58.7378
-58.4135
174.044
174.197
-74.6063
-53.7222
-45.1777
-63.2227
-45.0631
-43.903
-33.7683
-32.1343
-43.7546
-44.1914
-32.0933
-32.0563
-48.1391
-51.3771
-50.7617
-45.3856
-28.1873
-28.1657
135.585
135.531
-51.7853
-74.8649
-21.7602
0.186388
-34.2407
-34.2375
-27.2234
-27.2716
-45.5402
-48.0967
-46.8205
-37.4397
-93.218
-84.5348
159.899
177.868
-74.7332
-53.8497
-43.6638
-62.182
-43.8033
-44.9941
-33.7403
-32.0912
-48.1652
-51.3293
-50.9822
-45.1495
-74.9963
-51.8233
0.281573
-21.6587
-48.1429
-45.5089
-37.4401
-46.8187
-39.7809
-40.0215
-37.6041
-38.0211
-50.8163
-48.7538
-40.8931
-44.8894
-58.2188
-58.0528
-38.4564
-38.4525
-40.5227
-43.6731
-42.7608
-44.1392
-38.9442
-38.9546
-49.1578
-49.8895
-47.1689
-48.2778
-85.5713
-73.3024
20.4995
20.3897
-80.9515
-80.3917
-74.6359
-74.6534
-53.4113
-53.4154
-39.7714
-40.044
-37.5897
-37.8735
-48.7241
-50.7723
-40.8578
-44.8407
-43.7476
-40.5645
-42.7897
-44.2196
-48.266
-47.1579
-73.4745
-86.6795
-61.0216
-71.1255
-76.9718
-74.2642
-48.5092
-45.3686
-53.7118
-53.9998
-52.8486
-49.5761
-52.6175
-46.1765
-62.9656
-63.5956
-76.9006
-62.256
-61.0164
-74.4662
-77.0734
-71.3053
-63.1328
-62.496
-76.9908
-63.6742
-52.7535
-46.106
-52.6658
-49.6394
-48.0643
-54.2802
-53.7921
-45.2506
-81.3616
-79.2975
-45.945
-50.0619
-80.9815
-50.2548
-45.7417
-79.3606
-50.968
-51.0038
-62.5886
-61.2284
-51.219
-61.5615
-63.089
-51.5744
-45.145
-29.0688
-17.7022
-41.4246
-29.207
15.5838
6.75398
-9.45433
-29.1192
-10.2761
6.83793
15.4173
-45.1007
-41.4087
-17.633
-29.0423
43.9838
113.502
187.436
43.7758
45.6484
77.066
177.624
97.0478
44.8689
97.2203
177.723
77.2215
43.9869
50.0807
187.52
113.797
-38.619
-38.3929
-41.0605
-41.0387
-37.5848
-39.5213
-41.2265
-38.6087
-48.3414
-50.6462
-44.6242
-42.4097
-53.4614
-45.031
-44.9045
-52.442
-38.5331
-40.9819
-41.0434
-38.3829
-53.3411
-52.3936
-44.8808
-44.963
-48.3396
-42.9549
-44.6468
-50.6628
-37.5994
-38.6148
-41.2464
-39.5564
-40.516
-40.1678
-37.8271
-37.2134
-39.9168
-37.2249
-37.8447
-40.1241
-37.1955
-38.4277
-38.0938
-37.7697
-37.1938
-37.8046
-38.1287
-38.3439
-86.0638
-69.5911
-93.8875
-48.4045
-56.1811
-69.409
-79.9978
-63.1197
-56.1887
-63.1205
-80.0334
-69.428
-85.8779
-48.641
-93.6853
-69.5112
-43.3724
-48.2423
-47.8821
-40.446
-42.2411
-41.1646
-51.0232
-51.31
-39.5171
-43.9582
-46.9779
-40.8896
-48.335
-42.9408
-47.9077
-47.7285
-43.4028
-40.4297
-47.8977
-48.2993
-48.4016
-47.7714
-47.912
-42.9214
-39.4865
-40.8094
-46.9716
-43.9109
-42.2721
-51.3546
-50.971
-41.1153
-41.0038
-43.6641
-49.8705
-57.5841
-41.3285
-58.2955
-49.4581
-43.9439
-40.8695
-40.1641
-45.5504
-45.8795
-41.4172
-44.6376
-45.9299
-40.5517
-53.848
-48.6899
-46.3413
-60.0075
-33.4017
-31.8575
-36.7511
-38.932
-33.3834
-38.9227
-36.7499
-31.8506
-53.8932
-60.0148
-46.3434
-48.6842
-35.0017
-33.8885
-31.3249
-34.4294
-35.0219
-34.4063
-31.2909
-33.8721
-32.8302
-26.2824
-28.5585
-33.6402
-32.8648
-33.6722
-28.6122
-26.3373
-11.6183
-110.51
-108.258
-38.4036
-38.2367
-41.3527
-17.2184
-24.7789
-45.4234
-36.2566
-33.6379
-36.208
-109.997
-11.3369
-108.103
-38.369
-38.3703
-41.377
-24.6003
-17.2296
-45.8139
-33.5946
-36.2064
-36.0611
-42.789
-39.6183
-40.1309
-41.9251
-36.6312
-36.9735
-34.9707
-37.4511
-64.1865
-57.4951
-60.2279
-83.9278
-49.8256
-49.2131
-50.6354
-51.9604
-42.5753
-41.7811
-39.3534
-39.9535
-36.6828
-37.5341
-37.0256
-34.9886
-64.1864
-83.8355
-57.4049
-60.0617
-49.8316
-51.9694
-49.2197
-50.6456
16.6288
2.13269
-43.8993
54.014
-108.364
-106.705
-92.8062
-172.304
-53.1955
-50.1777
-57.1451
-49.7171
-35.8669
-35.5085
-39.233
-33.9422
-36.197
-36.218
-37.8491
-35.0059
-44.9823
-53.5833
-49.8575
-46.7908
-49.9007
-49.89
-50.421
-50.4157
-46.7931
-42.0712
-51.2998
-29.5784
-29.7238
-29.7142
-31.4175
-24.8515
-43.9066
-47.0911
-45.9842
-44.4976
16.7099
2.28782
-44.1132
54.1168
-53.8534
-49.5403
-57.0791
-50.3162
-35.8291
-35.4751
-39.1792
-33.9134
-45.1686
-54.0502
-49.955
-47.0873
-46.9483
-42.3142
-51.4479
-29.7822
-43.8916
-47.0872
-45.9838
-44.4741
-37.3871
-38.5905
-38.2903
-37.7268
-42.5268
-44.2983
-44.1412
-42.7216
-43.469
-43.4901
-46.0666
-41.5837
-39.7304
-42.2341
-40.9201
-40.3844
-39.8392
-39.9408
-39.4412
-39.9186
-56.6906
-55.0155
-53.2332
-58.1611
-7.34864
-7.43013
6.97944
-28.1605
-64.1119
-64.1179
-67.2723
-61.6628
-37.3526
-38.5519
-38.282
-37.6965
-42.447
-44.2251
-44.0608
-42.6543
-39.5726
-41.4654
-40.7066
-40.4252
-56.6258
-54.9881
-53.1838
-58.1009
-67.4071
-61.7289
-60.7693
-56.6755
-67.4925
-61.8151
-60.8466
-56.7525
-60.2258
-62.3813
-64.5262
-63.701
-10.8916
-5.98269
-5.68609
2.5133
205.531
200.205
198.789
205.563
-42.0153
-42.7594
-42.9281
-43.745
-42.0153
-42.7485
-42.9357
-43.7399
-37.8611
-37.804
-38.0333
-37.8553
-87.7727
-89.9471
-85.3351
-87.7437
-50.1409
-49.3097
-50.2907
-49.2203
-50.1429
-49.3113
-50.2938
-49.2285
-45.9734
-46.9385
-47.2226
-50.6245
-38.4029
-40.6417
-40.6416
-43.0973
-27.8132
-27.6032
-27.49
-27.8626
32.2334
27.8599
-55.1782
56.7802
-108.93
-108.55
-96.5502
-80.8984
-76.79
-61.5107
-83.4143
-64.2744
-36.6988
-36.4231
-39.5196
-34.8197
-37.8598
-36.7716
-38.3835
-36.2802
-43.8769
-45.4672
-48.06
-44.4655
-11.2395
-9.56018
-49.5594
41.7401
-36.651
-53.9474
-52.1327
-19.1709
-53.2254
-50.4366
-59.0338
-41.9291
-35.8866
-35.6675
-39.2829
-33.8677
-31.6102
-30.5753
-31.1838
-30.5175
-38.0321
-40.5935
-40.3859
-37.1106
-108.941
-108.002
-96.2591
-80.0296
32.3511
27.4148
-56.4945
56.5174
-76.5388
-62.0504
-83.4591
-63.7198
-38.0668
-36.8912
-38.3866
-36.3671
-36.6466
-36.4096
-39.4588
-34.7943
-43.5506
-45.3415
-47.5772
-43.7269
-36.5524
-53.946
-52.1053
-19.8889
-11.2759
-9.58614
-49.5966
42.1106
-53.0846
-50.4938
-59.081
-41.9116
-31.5804
-30.5469
-31.1658
-30.474
-35.9396
-35.6288
-39.3128
-33.8385
-37.9908
-40.5614
-40.3459
-37.101
-56.0402
-53.6379
-52.0057
-51.2759
-38.4977
-36.7451
-37.3208
-37.2691
-39.9288
-41.2849
-42.1385
-40.0366
-42.7782
-43.2158
-45.5509
-41.1082
-41.8991
-50.2022
-34.6936
-43.6841
-36.6101
-36.7841
-37.4852
-37.0636
-33.2645
-37.5396
-37.5098
-37.3901
-38.4658
-40.369
-37.7367
-40.4806
-55.3169
-40.8132
-49.4235
-22.4396
-51.3094
-47.257
-48.8919
-49.0951
-58.7815
-57.5895
-55.5814
-65.5453
-26.859
-10.4222
0.92032
-30.4627
-49.6788
-48.0662
-48.3876
-51.8286
-45.8551
-43.5904
-45.1368
-43.882
-51.7832
-53.8172
-51.4411
-55.1123
-59.1052
-63.0553
-63.6199
-61.1074
-53.0492
-55.6538
-52.7476
-52.1327
-42.4491
-43.0851
-45.2939
-40.8715
-38.3616
-36.7177
-37.2724
-37.2853
-39.8157
-41.1931
-41.9909
-39.9628
-41.8538
-50.0406
-34.6839
-43.2481
-38.6496
-40.4419
-38.2123
-40.6169
-36.6084
-36.7726
-37.5021
-37.1016
-33.2275
-37.4612
-37.4775
-37.3853
-55.0756
-40.6906
-49.285
-22.3895
-26.9927
-10.6775
0.635125
-31.0641
-51.2291
-47.1813
-48.8084
-49.0068
-58.635
-57.48
-55.4564
-65.3878
-49.6579
-48.0425
-48.3069
-51.7571
-59.1338
-63.0684
-63.661
-61.1159
-45.8497
-43.5168
-44.9897
-43.9413
-51.7982
-53.8484
-51.4687
-55.1334
-73.3753
-86.9571
-91.8182
-87.3127
150.902
192.646
179.951
172.316
-67.7578
-49.096
-58.5248
-58.2507
157.092
182.823
173.501
173.408
-60.3799
-60.8619
-66.9891
-56.6867
-52.4576
-64.0679
-48.9789
-64.0824
-42.9094
-46.6715
-44.9227
-44.2662
-32.8616
-30.8143
-32.8112
-32.4344
-43.7286
-44.9021
-43.8768
-44.031
-31.5052
-30.7007
-31.0417
-31.0259
-49.5907
-49.2722
-49.9044
-50.4485
-47.8731
-47.4899
-50.9675
-45.5827
-33.9231
-22.501
-27.6459
-27.6399
98.3226
168.169
135.138
137.903
-59.4885
-60.1904
-55.1507
-67.1798
-15.1956
-9.28225
-16.2543
-5.22063
-32.8082
-35.0371
-34.0298
-34.0292
-24.7932
-25.4836
-25.942
-25.9759
-47.0924
-49.1495
-47.0108
-48.5909
-41.9836
-40.9414
-43.7167
-39.2509
-73.3661
-87.1667
-91.9739
-87.4438
150.941
192.693
172.326
179.909
-60.4937
-60.9541
-67.0909
-56.7977
-58.6781
-66.0151
-51.1195
-63.2543
-42.8591
-46.5793
-44.1843
-44.8547
-32.8213
-30.7686
-32.9003
-32.3839
-49.6067
-49.2737
-49.9261
-50.4113
-48.3986
-48.6888
-51.8281
-46.7896
-59.5276
-60.2557
-67.2679
-55.1939
-14.9075
-8.94752
-5.17042
-16.1045
-47.187
-49.2004
-48.647
-47.1068
-41.9747
-40.9402
-39.237
-43.7189
-39.309
-40.7016
-39.9216
-40.1069
-37.6886
-37.7568
-37.6134
-38.0437
-47.7274
-51.1824
-50.3747
-49.1918
-42.5472
-42.6021
-41.6104
-43.6269
-57.5933
-60.149
-58.1329
-58.2363
-39.3273
-38.1343
-38.5625
-38.5661
-41.3263
-42.3603
-41.1127
-42.734
-43.2419
-45.2012
-43.0361
-43.2363
-38.5962
-38.5086
-39.0849
-39.2143
-46.6801
-49.4296
-48.1957
-48.374
-49.3746
-45.9632
-47.8111
-48.1281
-71.7788
-82.8929
-81.7627
-75.7312
23.024
16.3299
21.7516
21.8003
-65.0384
-92.8937
-81.1256
-80.9818
-73.2652
-78.946
-75.6876
-75.6981
-57.0075
-49.5595
-53.3204
-53.3231
-39.3088
-40.7027
-39.9181
-40.1205
-37.6633
-37.7034
-37.5859
-38.2106
-47.6505
-51.1993
-49.1519
-50.3335
-42.497
-42.5712
-41.573
-43.5826
-41.4457
-42.4018
-42.8095
-41.169
-43.2469
-45.2038
-43.0805
-43.4045
-49.3707
-45.9456
-48.1359
-47.8049
-72.0004
-83.0283
-75.9824
-82.3193
-76.1844
-87.7412
-92.6619
-84.1027
-51.5808
-49.7679
-52.0329
-51.0293
-48.3866
-47.8581
-49.7732
-48.2934
-62.8884
-64.1267
-80.0302
-78.9684
-76.0626
-87.9076
-92.8309
-84.2518
-62.9878
-64.2709
-80.1524
-79.0723
-48.3484
-47.7989
-49.7944
-48.2632
-51.5696
-49.596
-52.152
-50.9983
-67.8665
-59.7709
-58.7354
-50.9979
-67.5388
-59.196
-58.354
-50.3658
-57.8296
-58.3036
-59.6172
-58.5102
-57.8222
-58.2131
-60.0183
-56.7028
-36.0598
-32.7077
-29.0033
-25.7815
5.42814
13.8263
6.31502
16.8846
5.38054
13.36
6.33282
16.6522
-36.058
-32.6467
-28.9859
-25.723
147.062
132.694
170.633
173.978
104.203
100.649
143.928
132.228
100.699
104.198
131.991
144.098
132.917
147.784
173.998
170.347
-38.7612
-39.4976
-39.5781
-40.2591
-38.8152
-38.944
-39.7295
-40.0113
-45.6304
-47.5087
-44.7655
-46.6543
-48.6247
-50.4075
-46.4114
-48.19
-38.7359
-39.4568
-39.56
-40.2274
-48.5466
-50.326
-46.3559
-48.138
-45.6626
-47.5397
-44.8261
-46.7077
-38.84
-38.9697
-39.7536
-40.0455
-37.2502
-38.8379
-37.7398
-38.2938
-38.7203
-37.2526
-38.2612
-37.7164
-37.89
-37.6412
-38.6892
-37.5123
-37.566
-38.1843
-37.7379
-38.6734
-99.3684
-58.0552
-93.4443
-82.6606
-64.1374
-67.1084
-71.2425
-72.3898
-67.1516
-64.2092
-72.35
-71.3553
-63.0447
-96.4098
-80.5189
-88.594
-41.26
-42.5052
-45.1701
-42.5149
-43.3743
-46.1729
-45.4624
-48.7071
-41.8515
-42.4635
-43.4382
-44.2646
-48.4476
-45.5242
-47.0234
-45.111
-41.2782
-42.5103
-45.1936
-42.5356
-48.1746
-45.5868
-46.9125
-45.0616
-41.8591
-42.3886
-43.3221
-44.0435
-43.2407
-46.0498
-45.3871
-48.6121
-50.0121
-48.4388
-48.9412
-48.5088
-49.7053
-48.6044
-49.2847
-49.1351
-42.7196
-43.4271
-43.6459
-44.1667
-44.3882
-44.4811
-44.3328
-44.9593
-54.7547
-57.2123
-50.2982
-52.741
-33.5851
-35.3474
-34.53
-36.0843
-33.5777
-35.3412
-34.5265
-36.0756
-54.8811
-57.216
-50.3013
-52.746
-34.2723
-33.994
-33.9957
-33.0765
-33.9788
-34.2478
-33.0345
-33.9665
-30.7407
-32.5818
-28.9305
-31.6724
-32.6209
-30.7923
-31.7131
-28.9881
-46.5644
35.1073
-99.3958
-48.884
-74.9602
-83.0198
-40.2946
-35.5994
-39.9037
-36.2322
-43.0561
-42.0763
-51.787
21.0302
-49.67
-1.84559
-62.48
-50.0285
-38.9029
-33.709
-32.5023
-32.7787
-38.4979
-34.8285
-99.0487
-48.5471
-46.4326
34.4235
-74.9476
-82.7401
-39.9348
-36.2191
-40.2142
-35.5759
-43.1118
-41.5229
-49.6502
-1.92146
-51.8102
21.262
-62.5623
-49.9823
-32.4769
-32.7578
-38.8551
-33.6709
-38.4605
-34.7928
-49.7409
-51.9102
-38.8481
-40.3259
-41.0112
-38.9851
-43.8737
-41.0824
-44.4108
-43.5022
-37.1219
-37.0168
-36.2311
-34.7093
-37.4271
-36.0077
-56.7645
-59.0445
-53.7981
-53.7454
-56.7221
-69.1896
-42.1759
-87.7799
-49.6797
-51.1946
-47.9885
-47.1616
-50.155
-53.4178
-55.4517
-53.83
-48.2283
-51.4502
-44.1908
-40.3767
-38.7151
-39.7892
-40.7418
-38.8706
-44.4199
-43.6359
-37.4544
-36.2963
-37.1432
-37.0561
-36.2387
-34.7351
-56.6424
-58.3968
-42.0099
-87.5361
-53.7028
-53.622
-56.5884
-69.0716
-49.679
-51.2691
-55.4575
-53.8322
-47.9749
-47.1865
-50.1634
-53.4329
-47.9882
38.5219
-43.1098
54.3602
-69.2072
-63.7404
111.397
105.812
-94.2942
-154.929
-93.9378
-151.215
-79.4273
-79.4876
46.8743
38.9709
-68.4589
-53.2351
-53.4501
-57.6325
-65.5065
-55.9054
-48.0266
-57.7251
-39.1502
-34.7793
-39.4998
-34.0756
-40.9866
-40.9188
-34.129
-33.5696
-38.0074
-35.2927
-37.9791
-35.3161
-40.3217
-40.2363
-33.3446
-33.3029
-50.5631
-44.7856
-47.4477
-58.9275
-52.5797
-49.2754
-51.9775
-45.3297
-50.8706
-35.4867
-50.8689
-35.5357
-41.1744
-41.1707
73.8441
73.7869
-56.374
-35.9395
-46.6266
-19.8955
-52.9601
-59.5357
-25.0261
-17.6772
-31.0877
-26.4057
-31.067
-26.3627
-31.7869
-31.7828
-24.3663
-24.4028
-42.9389
-40.9534
-48.1656
-49.6686
-45.2456
-47.2726
-45.7942
-40.9431
-48.9468
38.3258
-43.2144
54.0631
-69.2415
-63.8035
105.429
111.584
-68.6832
-54.2538
-53.8913
-58.0184
-65.6206
-56.0115
-51.1458
-55.1025
-39.0964
-34.7545
-39.4063
-34.0362
-40.8567
-40.9333
-34.1042
-33.5356
-50.7301
-45.3868
-48.0025
-59.7874
-52.6449
-49.2871
-52.4073
-45.6305
-56.5254
-35.9959
-46.7115
-22.2471
-59.7557
-53.0178
-17.0488
-24.9662
-42.8999
-40.941
-48.1751
-49.6622
-47.3126
-45.2418
-40.929
-45.7864
-37.8209
-37.2522
-37.9167
-37.7783
-38.5506
-38.7764
-37.3869
-38.3807
-42.9916
-41.3441
-46.0889
-45.2083
-45.2913
-45.7524
-41.6887
-43.6794
-46.0465
-41.4764
-45.9251
-41.4126
-51.1503
-51.5211
-40.2952
-40.3043
-39.107
-38.3145
-43.3576
-42.3643
-40.244
-41.2158
-41.0484
-42.1901
-39.143
-40.4322
-39.2108
-40.5301
-38.6312
-38.5659
-43.0249
-43.4505
-54.513
-61.9587
-53.1731
-59.383
-51.0469
-51.6715
-66.2602
-61.7838
5.59528
-24.7622
5.44472
-24.8999
16.7399
16.6667
-50.1246
-50.1851
-66.2821
-61.6314
-66.2975
-61.641
-70.1371
-70.1454
-59.9405
-59.9446
-37.7974
-37.2431
-37.9129
-37.7601
-38.546
-38.7722
-37.3758
-38.207
-42.8873
-41.2741
-46.0144
-45.136
-45.673
-45.1929
-41.6306
-43.6175
-39.0074
-38.2741
-42.6489
-42.493
-41.9757
-40.2706
-41.011
-42.0041
-54.4381
-61.8401
-53.1934
-59.4007
-51.6226
-51.0156
-61.7632
-66.1892
-78.0974
-76.9081
-67.8174
-57.0717
-55.8737
-66.8318
-53.4327
-53.0357
-78.1789
-76.992
-67.9082
-57.1624
-66.9159
-55.9345
-53.09
-53.4978
-47.5594
-47.716
-57.4434
-62.1279
-54.748
-64.5452
-62.6256
-62.9571
-16.8579
-16.8278
-12.1155
0.714051
0.697028
-12.0188
8.22321
8.15378