# vtk DataFile Version 2.0
tet_velo
ASCII
DATASET UNSTRUCTURED_GRID
POINTS 29498 float
-0.715 0.115 -2.11122
-0.749547 0.335 2.105
-0.773271 0.705 -1.905
-0.665 1.0723 2.015
0.715 0.115 -2.10541
0.755 0.335 2.10216
0.745 0.735 -1.89976
0.665 1.0723 2.015
-0.752215 0.162634 -0.705813
-0.788843 0.210855 0.699594
-0.805198 0.89545 -0.598333
-0.76406 1.01284 0.708334
0.753353 0.163314 -0.702887
0.786989 0.216345 0.699637
0.786462 0.915562 -0.59484
0.756217 1.02442 0.71008
-1.47288 -0.336269 -3.24384
-1.47533 -0.252356 -2.15991
-1.50238 -0.20256 -0.751981
-1.52126 -0.159774 0.676195
-1.49803 -0.0634203 2.08582
-1.4905 0.0153603 3.17809
-1.49456 0.0884397 4.25488
-1.48093 0.00372868 -3.17627
-1.48464 0.102086 -2.10316
-1.51595 0.170099 -0.714111
-1.52513 0.220282 0.684264
-1.47903 0.31715 2.07521
-1.48037 0.394763 3.16598
-1.49231 0.466973 4.24586
-1.5133 0.653782 -3.01325
-1.53181 0.745693 -1.93606
-1.55488 0.899593 -0.614298
-1.51229 1.00196 0.700926
-1.43004 1.07268 2.02464
-1.45765 1.14793 3.11993
-1.48933 1.22252 4.21595
-1.54523 1.72233 -2.84205
-1.55399 1.82912 -1.77942
-1.55937 1.99018 -0.490154
-1.54369 2.12837 0.778203
-1.51812 2.2245 2.0687
-1.51272 2.29226 3.13389
-1.5208 2.36177 4.21951
-0.721056 -0.328205 -3.2482
-0.717543 -0.242795 -2.16745
-0.740436 -0.204853 -0.749523
-0.768577 -0.165864 0.689076
-0.756517 -0.0555683 2.10753
-0.753052 0.0213319 3.19284
-0.756544 0.0919754 4.26354
-0.726161 0.00833237 -3.17616
-0.752677 0.401489 3.17825
-0.759097 0.470568 4.25244
-0.754317 0.643216 -2.99905
-0.734589 1.14995 3.11821
-0.760936 1.22486 4.21579
-0.783724 1.71627 -2.82829
-0.789767 1.82339 -1.76457
-0.797557 1.99261 -0.480875
-0.79402 2.13589 0.778142
-0.781239 2.22969 2.06244
-0.778797 2.29568 3.12754
-0.785613 2.36474 4.21501
0.756823 -0.321625 -3.24357
0.746334 -0.240493 -2.16271
0.768486 -0.20245 -0.746717
0.781458 -0.161169 0.689495
0.757141 -0.0534853 2.10606
0.734631 0.0237305 3.19193
0.724403 0.0953385 4.26332
0.749052 0.0169331 -3.1712
0.716071 0.403179 3.17711
0.711047 0.473658 4.25215
0.749165 0.661216 -2.99423
0.681819 1.15193 3.11797
0.691111 1.22823 4.21583
0.738742 1.73189 -2.82448
0.740733 1.83959 -1.76096
0.735102 2.00652 -0.47797
0.712682 2.14601 0.780096
0.688982 2.23652 2.06364
0.682722 2.30129 3.12843
0.681268 2.37012 4.21582
1.50359 -0.321099 -3.23518
1.49677 -0.241809 -2.15146
1.52415 -0.193201 -0.746409
1.5401 -0.149776 0.677874
1.51104 -0.0570219 2.08471
1.48442 0.0215399 3.17718
1.47112 0.0958678 4.25483
1.49532 0.0224963 -3.16712
1.48306 0.115868 -2.09389
1.51787 0.18152 -0.708131
1.5345 0.23135 0.685916
1.49291 0.322211 2.07361
1.46384 0.400025 3.16483
1.45534 0.473996 4.2457
1.49988 0.684601 -3.00422
1.5033 0.78079 -1.92699
1.53423 0.926511 -0.607811
1.50702 1.0191 0.703954
1.43066 1.07919 2.02503
1.42259 1.15393 3.1199
1.4298 1.23012 4.21632
1.49776 1.75179 -2.83465
1.50169 1.85915 -1.77242
1.49753 2.01626 -0.484482
1.46984 2.14799 0.782112
1.43551 2.23848 2.07119
1.42322 2.30398 3.1358
1.42093 2.37289 4.22124
-0.775839 0.41 -2.03981
0 0.111374 -2.11194
-0.745723 0.126701 -1.40852
-0.768472 0.70365 2.1212
0.0027265 0.345133 2.09345
-0.841952 0.20017 1.4023
-0.0141355 0.799134 -1.98151
-0.823069 0.83406 -1.25167
0 1.11785 2.06055
-0.748451 1.07649 1.36167
0.768414 0.425 -2.041
0.746396 0.126937 -1.40415
0.771752 0.70365 2.12033
0.841897 0.204769 1.4009
0.803072 0.862622 -1.2473
0.744129 1.08188 1.36254
-0.770297 0.186976 -0.00310993
-0.872389 0.529042 -0.652073
0.000569067 0.196556 -0.70435
-0.873775 0.611846 0.703964
-0.00092729 0.22997 0.699615
-0.789224 0.958739 0.0550001
-0.00936802 1.27425 -0.596587
-0.00392136 1.46921 0.709207
0.765485 0.194515 -0.00162506
0.87376 0.539438 -0.648863
0.874483 0.620381 0.704858
0.773453 0.972103 0.05762
-0.868285 0.469521 -1.33009
-0.878017 0.570444 0.0259451
-0.886698 0.657748 1.38198
0.000284534 0.152728 -1.40633
-0.000179111 0.221406 -0.0023675
0.000899603 0.239149 1.4016
-0.00706775 0.4175 -2.28729
0.00136325 0.70365 2.24187
-0.0117518 0.951949 -1.24948
-0.00664469 1.45436 0.0563101
-0.00196068 1.30191 1.3621
0.871848 0.482219 -1.32572
0.879112 0.579909 0.0279975
0.886688 0.662016 1.38172
-1.09982 0.108543 -2.10719
-0.716272 -0.0638976 -2.13934
-0.72058 0.0616662 -2.64369
-1.11429 0.326075 2.0901
-0.753032 0.139716 2.10626
-0.751112 0.368244 2.64162
-1.15254 0.725346 -1.92053
-0.763794 0.674108 -2.45203
-0.781519 1.26419 -1.83479
-1.04752 1.07249 2.01982
-0.699795 1.11113 2.56661
-0.72312 1.65099 2.03872
0.730667 -0.0627467 -2.13406
0.732026 0.0659665 -2.63831
1.09903 0.115434 -2.09965
0.756071 0.140757 2.10411
0.735536 0.36909 2.63964
1.12396 0.328605 2.08789
0.747082 0.698108 -2.447
0.742867 1.28729 -1.83036
1.12415 0.757895 -1.91338
0.67341 1.11211 2.56648
0.676991 1.65441 2.03932
1.04783 1.07574 2.02002
-1.13408 0.166367 -0.709962
-0.746326 -0.0211094 -0.727668
-1.15699 0.215569 0.691929
-0.77871 0.0224954 0.694335
-1.18004 0.897521 -0.606316
-0.801377 1.44403 -0.539604
-1.13818 1.0074 0.70463
-0.77904 1.57436 0.743238
0.760919 -0.019568 -0.724802
1.13561 0.172417 -0.705509
0.784223 0.0275876 0.694566
1.16074 0.223847 0.692776
0.760782 1.46104 -0.536405
1.16034 0.921036 -0.601326
0.73445 1.58521 0.745088
1.13162 1.02176 0.707017
-1.47411 -0.294313 -2.70187
-1.47691 -0.16627 -3.21005
-1.09697 -0.332237 -3.24602
-1.48886 -0.227458 -1.45594
-1.47999 -0.0751352 -2.13153
-1.09644 -0.247576 -2.16368
-1.51182 -0.181167 -0.0378928
-1.50917 -0.0162304 -0.733046
-1.12141 -0.203707 -0.750752
-1.50964 -0.111597 1.38101
-1.5232 0.0302541 0.68023
-1.14492 -0.162819 0.682636
-1.49427 -0.02403 2.63196
-1.48853 0.126865 2.08051
-1.12727 -0.0594943 2.09667
-1.49253 0.0519 3.71649
-1.48544 0.205062 3.17204
-1.12178 0.0183461 3.18547
-1.49343 0.277706 4.25037
-1.12555 0.0902075 4.25921
-1.48278 0.0529072 -2.63971
-1.49711 0.328755 -3.09476
-1.10354 0.00603052 -3.17622
-1.5003 0.136092 -1.40863
-1.50823 0.423889 -2.01961
-1.52054 0.195191 -0.0149235
-1.53542 0.534846 -0.664205
-1.50208 0.268716 1.37974
-1.51871 0.611119 0.692595
-1.4797 0.355956 2.6206
-1.45454 0.694915 2.04992
-1.48634 0.430868 3.70592
-1.46901 0.771344 3.14296
-1.11652 0.398126 3.17212
-1.49082 0.844747 4.2309
-1.1257 0.46877 4.24915
-1.52255 0.699737 -2.47466
-1.52926 1.18805 -2.92765
-1.13381 0.648499 -3.00615
-1.54335 0.822643 -1.27518
-1.5429 1.28741 -1.85774
-1.53359 0.950775 0.0433139
-1.55713 1.44488 -0.552226
-1.47117 1.03732 1.36278
-1.52799 1.56517 0.739564
-1.44384 1.1103 2.57229
-1.47408 1.64859 2.04667
-1.47349 1.18522 3.66794
-1.48519 1.72009 3.12691
-1.09612 1.14894 3.11907
-1.50506 1.79215 4.21773
-1.12513 1.22369 4.21587
-1.54961 1.77572 -2.31074
-1.16448 1.7193 -2.83517
-1.55668 1.90965 -1.13479
-1.17188 1.82625 -1.772
-1.55153 2.05927 0.144025
-1.17847 1.99139 -0.485514
-1.53091 2.17644 1.42345
-1.16885 2.13213 0.778173
-1.51542 2.25838 2.60129
-1.14968 2.22709 2.06557
-1.51676 2.32702 3.6767
-1.14576 2.29397 3.13072
-1.1532 2.36326 4.21726
-0.719299 -0.2855 -2.70783
-0.723608 -0.159936 -3.21218
0.0178834 -0.324915 -3.24589
-0.72899 -0.223824 -1.45849
0.0143953 -0.241644 -2.16508
-0.754506 -0.185358 -0.0302232
0.0140247 -0.203651 -0.74812
-0.762547 -0.110716 1.3983
0.00644058 -0.163517 0.689286
-0.754785 -0.0171182 2.65019
0.000312388 -0.0545268 2.1068
-0.754798 0.0566537 3.72819
-0.752865 0.21141 3.18555
-0.00921054 0.0225312 3.19239
-0.757821 0.281272 4.25799
-0.0160706 0.0936569 4.26343
-0.740239 0.325774 -3.08761
0.0114456 0.0126327 -3.17368
-0.755887 0.436028 3.71534
-0.743633 0.775722 3.14823
-0.0183027 0.402334 3.17768
-0.760016 0.847716 4.23411
-0.024025 0.472113 4.25229
-0.76902 1.17974 -2.91367
-0.00257599 0.652216 -2.99664
-0.747762 1.18741 3.667
-0.756693 1.72282 3.12288
-0.026385 1.15094 3.11809
-0.773274 1.7948 4.2154
-0.0349122 1.22655 4.21581
-0.786745 1.76983 -2.29643
-0.0224907 1.72408 -2.82639
-0.793662 1.908 -1.12272
-0.024517 1.83149 -1.76277
-0.795789 2.06425 0.148633
-0.0312277 1.99957 -0.479422
-0.787629 2.18279 1.42029
-0.0406688 2.14095 0.779119
-0.780018 2.26268 2.59499
-0.0461287 2.23311 2.06304
-0.782205 2.33021 3.67128
-0.0480376 2.29848 3.12799
-0.0521722 2.36743 4.21542
0.751578 -0.281059 -2.70314
0.752937 -0.152346 -3.20739
1.13021 -0.321362 -3.23937
0.75741 -0.221472 -1.45472
1.12155 -0.241151 -2.15709
0.774972 -0.18181 -0.028611
1.14632 -0.197825 -0.746563
0.7693 -0.107327 1.39778
1.16078 -0.155473 0.683685
0.745886 -0.0148774 2.649
1.13409 -0.0552536 2.09539
0.729517 0.0595345 3.72762
0.725351 0.213455 3.18452
1.10953 0.0226352 3.18456
0.717725 0.284498 4.25773
1.09776 0.0956031 4.25907
0.749108 0.339074 -3.08272
1.12219 0.0197147 -3.16916
0.713559 0.438418 3.71463
0.698945 0.777553 3.14754
1.08995 0.401602 3.17097
0.701079 0.850943 4.23399
1.08319 0.473827 4.24893
0.743954 1.19655 -2.90936
1.12452 0.672909 -2.99923
0.686465 1.19008 3.6669
0.682271 1.72661 3.1232
1.0522 1.15293 3.11893
0.68619 1.79917 4.21582
1.06046 1.22918 4.21607
0.739738 1.78574 -2.29272
1.11825 1.74184 -2.82957
0.737918 1.92306 -1.11946
1.12121 1.84937 -1.76669
0.723892 2.07627 0.151063
1.11632 2.01139 -0.481226
0.700832 2.19127 1.42187
1.09126 2.147 0.781104
0.685852 2.26891 2.59603
1.06225 2.2375 2.06741
0.681995 2.33571 3.67212
1.05297 2.30264 3.13211
1.0511 2.37151 4.21853
1.50018 -0.281454 -2.69332
1.49946 -0.149301 -3.20115
1.51046 -0.217505 -1.44894
1.48991 -0.0629702 -2.12267
1.53213 -0.171489 -0.0342677
1.52101 -0.00584054 -0.72727
1.52557 -0.103399 1.38129
1.5373 0.040787 0.681895
1.49773 -0.017741 2.63095
1.50198 0.132594 2.07916
1.47777 0.0587039 3.716
1.47413 0.210782 3.171
1.46323 0.284932 4.25026
1.48919 0.0691823 -2.6305
1.4976 0.353549 -3.08567
1.50046 0.148694 -1.40101
1.49318 0.448329 -2.01044
1.52618 0.206435 -0.0111077
1.52605 0.554016 -0.657971
1.51371 0.27678 1.37976
1.52076 0.625223 0.694935
1.47838 0.361118 2.61922
1.46179 0.7007 2.04932
1.45959 0.437011 3.70526
1.44321 0.776978 3.14236
1.44257 0.852059 4.23101
1.50159 0.732696 -2.46561
1.49882 1.2182 -2.91944
1.51876 0.853651 -1.2674
1.50249 1.31997 -1.84971
[...]
POINT_DATA 29498
VECTORS point_vectors float
-1.74161 -2.84028 5.22183
0.134717 0.119117 0.363944
-1.2523 0.429301 2.75706
-0.192312 -0.171355 0.282567
0.808266 -2.33767 5.30292
-0.129792 0.117165 0.355627
1.19331 0.89323 2.11273
0.195343 -0.174009 0.290098
0.00099328 0.0218749 0.331587
-0.00915894 0.00711315 0.219794
0 0 0
0 0 0
-0.0014192 0.0344124 0.44583
0 0 0
0 0 0
0 0 0
-0.531957 -0.357348 19.8891
-1.15359 -0.894087 20.5588
-0.247693 -0.557475 21.4811
0.199445 -0.263654 21.5516
0.786548 0.0173701 21.5403
1.09782 0.0897554 21.3587
1.1099 -0.0438055 20.7297
-0.72811 -0.313342 19.7801
-1.72598 -0.837635 20.4971
-0.51856 -0.736411 21.5653
0.0831754 -0.444939 21.6411
0.908126 -0.270109 21.6333
1.26283 -0.226686 21.2217
1.13696 -0.126893 21.2333
-0.972173 0.012294 19.6303
-2.07636 -0.0386585 20.5297
-1.22293 -0.48514 21.5363
-0.386602 -0.500741 21.7423
0.359669 -0.721669 21.6471
0.674614 -0.792979 21.4386
0.591326 -0.594315 21.0372
-0.667416 0.40018 19.9656
-1.02687 0.626914 20.4582
-0.897516 0.386541 21.18
-0.386372 0.00494577 21.4837
-0.0210682 -0.246731 21.3921
0.16407 -0.412011 21.2294
0.204756 -0.49397 20.5591
-0.490712 -0.696501 19.4538
-1.33514 -3.11505 20.9378
0.352822 0.0217354 21.6602
0.501119 0.26128 20.7455
0.798152 1.39536 19.0778
1.34466 1.72456 18.153
1.33179 1.24117 18.2144
-0.756039 -0.685146 18.9794
1.8599 1.18499 9.96973
2.16495 0.98646 14.0182
-1.24244 0.194677 18.2738
0.143331 -0.861076 8.36825
1.16603 -1.52149 14.8681
-0.621701 0.894674 19.5103
-1.1225 1.64004 20.1463
-1.24356 1.47278 21.3681
-0.464891 0.297829 21.8523
-0.136716 -0.23246 21.5644
0.00758423 -0.423097 21.0241
0.0154841 -0.442728 21.1409
0.515261 -0.690465 19.4603
1.37795 -3.00968 20.9419
-0.390968 -0.0168246 21.6493
-0.507314 0.242688 20.7001
-0.785763 1.3946 19.0176
-1.28903 1.74458 18.0721
-1.28547 1.3525 18.0997
0.783181 -0.668811 19.0045
-1.74549 1.20499 9.01824
-2.18164 1.23521 12.9639
1.23653 0.230483 18.2618
-0.0435369 -0.861671 6.84763
-1.08095 -1.4611 12.7566
0.590999 0.917743 19.4944
1.07688 1.67167 20.1442
1.20001 1.6057 21.3816
0.438638 0.346087 21.8778
0.148 -0.19789 21.5995
-0.00685638 -0.415773 21.1048
0.00337079 -0.419738 21.0521
0.535899 -0.347163 19.8959
1.14255 -0.875645 20.5669
0.287361 -0.555752 21.4727
-0.182467 -0.269467 21.537
-0.767358 0.0148923 21.5422
-1.10198 0.0953375 21.3482
-1.12243 -0.0189833 20.7765
0.742918 -0.305282 19.7759
1.76426 -0.839934 20.4993
0.529143 -0.738752 21.5698
-0.0780012 -0.441756 21.6328
-0.886212 -0.274187 21.6368
-1.27804 -0.23574 21.2407
-1.21898 -0.155707 20.9969
0.982843 0.0377311 19.6152
2.17034 0.0422589 20.5074
1.26755 -0.473179 21.5509
0.398076 -0.489586 21.7559
-0.348289 -0.713448 21.645
-0.653179 -0.831336 21.4792
-0.747009 -0.715823 20.6425
0.667061 0.428257 19.9561
1.01722 0.677491 20.4545
0.927393 0.442633 21.1943
0.397678 0.0206843 21.5211
0.0357448 -0.254664 21.4272
-0.149736 -0.408225 21.1088
-0.0820377 -0.395916 20.9828
-1.01176 -0.12627 1.28816
-0.000717973 -0.078014 0.464817
0.0119571 0.0120904 0.574664
0.0110127 -0.0911419 0.0673286
0 0 0
0.00418803 0.071271 1.4881
0.00269515 0.416229 0.991911
-0.0774234 -0.0506775 0.2593
0.00225678 0.0538828 -0.175689
0.00182948 0.00155327 0.00957251
0.83806 -0.129026 1.36867
-0.00314039 0.0122391 0.578262
-0.0101723 -0.0882392 0.0622761
-0.00684779 0.073252 1.20464
0.0958505 -0.0643096 0.31813
-0.00434627 0.00372383 0.0228885
-0.00513616 0.0110813 0.167655
-3.72126e-05 0.000661708 0.0232565
8.489e-06 0.000121113 0.00306246
-6.63945e-06 0.000981143 0.00479431
-8.63991e-09 -3.136e-07 -1.41154e-05
0 0 0
4.28276e-05 0.0371572 0.0846199
5.33525e-05 -0.000562686 0.00930582
0.00258303 -0.00339938 0.11118
1.31596e-05 0.00030891 0.0131975
1.67123e-07 0.0011031 0.00578591
0 0 0
7.83896e-06 2.1698e-05 -0.000272319
-0.000144722 0.00143989 0.0142745
0 0 0
1.40963e-07 5.96532e-07 1.30378e-05
0 0 0
1.33917e-06 2.80106e-05 0.000730233
-0.0270281 0.0135119 0.107801
0 0 0
0 0 0
-1.31186e-06 0.00646434 0.04659
8.30461e-06 0.00158655 -0.00411917
0 0 0
7.3181e-05 0.00173548 0.0145806
0 0 0
-3.22075 -2.15064 20.4531
-2.19545 -5.05881 21.3148
-2.04671 -2.04572 17.9721
1.39786 0.145673 18.4342
0.502624 1.49742 10.8611
1.20536 0.628275 6.75337
-4.04146 0.326863 20.5363
-3.83392 1.41683 16.5651
-2.57861 2.64636 19.9155
0.567846 -0.662603 18.0895
-0.689723 -0.680314 4.08801
-0.185012 -0.414419 20.2434
2.29152 -4.97637 21.2662
2.06804 -2.015 18.0038
3.29475 -2.16512 20.4284
-0.515196 1.49091 10.7859
-1.13518 0.64467 6.16815
-1.38661 0.103141 18.5479
3.7389 1.57714 16.5816
2.44163 2.75344 19.8813
4.25711 0.590781 20.465
0.827726 -0.657291 3.25193
0.201661 -0.399076 20.2187
-0.550627 -0.666359 18.1455
-0.122284 -1.22057 20.8462
0.481 0.478052 16.4736
0.170292 -0.471325 19.659
0.270315 0.318205 15.1293
-1.98703 -1.20034 21.7761
-3.6384 1.93948 21.7582
-0.469829 -0.618688 20.4194
-0.886411 0.175783 21.5712
-0.480853 0.451137 16.5596
0.132965 -1.22703 20.7345
-0.217104 0.309795 14.9453
-0.169472 -0.460084 19.645
3.61512 2.23625 21.7173
2.12325 -1.2188 21.6705
0.856942 0.226464 21.4819
0.504858 -0.616941 20.4401
-0.89166 -0.616842 20.0567
-0.630862 -0.34282 19.8343
-0.555841 -0.516847 19.689
-0.723746 -0.799708 21.2859
-1.40988 -0.908438 20.5478
-1.45734 -1.73511 20.6337
0.0214163 -0.385806 21.519
-0.39649 -0.672106 21.5092
0.131702 -0.629022 21.6875
0.433064 -0.137487 21.646
0.14069 -0.375137 21.572
0.429829 -0.284427 21.6051
0.968392 0.0907575 21.4127
0.86401 -0.106865 21.6096
1.15321 0.417506 21.2031
1.14782 0.0510308 21.1001
1.19704 -0.0511232 21.2784
1.51274 0.527263 20.9776
1.15442 -0.10735 20.9533
1.23944 0.329435 21.2397
-1.25829 -0.564256 19.894
-0.86261 -0.183797 19.6697
-0.81883 -0.510528 19.4215
-1.14966 -0.874024 21.4152
-2.05583 -0.489294 20.5458
-0.165764 -0.585744 21.5754
-0.899426 -0.703022 21.5527
0.4097 -0.345323 21.7773
-0.13006 -0.531405 21.7376
1.12897 -0.239537 21.449
0.757772 -0.581056 21.6339
1.37742 -0.371704 21.1616
1.09 -0.565444 21.4062
1.85901 -0.00434844 18.7372
0.888404 -0.587863 21.0783
1.79964 -0.196161 18.9963
-1.64991 0.0379919 19.8323
-0.863245 0.322513 19.7517
-1.20426 0.0597809 19.1069
-1.71076 -0.3183 21.2583
-1.56474 0.523238 20.431
-0.779341 -0.500126 21.7072
-1.29489 0.10563 21.3654
-0.00874591 -0.546226 21.7855
-0.51086 -0.179556 21.653
0.541919 -0.793869 21.5263
0.0317559 -0.461447 21.4949
0.809154 -0.756595 21.3035
0.309371 -0.588074 21.2189
0.85998 -0.906775 19.5981
0.345134 -0.688793 20.8057
1.27356 -1.24905 19.3848
-0.863096 0.578775 20.1529
-0.715463 0.64874 19.7434
-1.05231 0.537052 20.8735
-1.17911 1.04421 20.3411
-0.670474 0.215471 21.419
-1.15685 0.797775 21.3044
-0.160307 -0.149645 21.4308
-0.457272 0.128576 21.6805
0.0712072 -0.344491 21.3109
-0.0718706 -0.268545 21.4689
0.162303 -0.378749 21.0259
0.088093 -0.430497 21.1137
0.084286 -0.476555 21.2108
-1.02965 -1.67221 19.3709
-0.641406 -0.737553 19.1649
0.0167096 -0.896586 19.2021
-0.128385 -0.972244 22.4807
0.0163785 -4.00457 21.7026
0.466813 0.20751 21.0449
-0.00493308 0.121203 20.9703
0.58616 0.576858 19.9708
-0.00313734 0.293382 19.2542
1.04616 1.59258 19.0132
0.00353858 1.21488 17.0905
1.42082 1.53739 18.5155
1.65133 1.87163 14.1692
0.00292879 1.83828 17.1242
1.85105 1.31184 15.0405
0.0753464 2.45446 17.3568
-1.06601 -0.396379 18.4851
0.0132508 -0.970843 18.4136
2.13914 1.02106 12.3138
1.29288 -0.532417 5.97295
0.00830982 0.937006 3.98756
2.00243 -0.289738 12.4352
0.123081 2.45618 8.89774
-0.963712 0.882838 18.8725
-0.00395532 0.42369 17.1577
0.680672 -1.10912 11.13
0.0177588 -0.845568 20.9296
-0.0443092 1.40452 -5.25118
-0.009988 -0.951667 18.7826
-0.00169983 1.24432 -0.481121
-0.911001 1.35659 19.7287
-0.0212231 1.18791 19.2567
-1.28644 1.67129 20.6987
-0.0452459 2.38194 19.9249
-0.87418 0.893138 21.8325
-0.0977922 2.6122 21.3871
-0.234661 -0.057037 21.6596
-0.0285347 0.597755 22.0659
-0.077174 -0.350064 21.5416
-0.0064684 -0.0806505 21.5811
0.0547352 -0.553653 20.3139
0.0196812 -0.35796 21.4776
0.00449032 -0.471972 21.2296
1.05407 -1.6279 19.4225
0.672035 -0.712565 19.2046
0.565495 -0.509861 19.7014
0.125811 -1.02027 22.4257
1.48228 -1.69098 20.627
-0.494957 0.180402 21.0319
-0.0878593 -0.6635 21.6895
-0.576921 0.569119 19.9169
-0.409033 -0.30337 21.601
-1.01092 1.60413 18.877
-1.14748 0.394844 21.2157
-1.4004 1.5912 18.335
-1.57003 1.89637 13.9967
-1.52421 0.559061 20.9227
-1.8319 1.4828 14.5386
-1.28501 0.395296 20.995
1.09079 -0.374774 18.4926
0.831693 -0.505358 19.4238
-2.13452 1.15185 11.33
-1.17258 -0.512841 5.00255
-1.88307 0.0917775 18.2758
-1.92293 -0.26188 10.5131
-1.85713 -0.0987442 18.4475
0.944865 0.918258 18.8665
1.2 0.088189 19.0961
-0.530781 -1.04461 8.96541
0.0629687 -0.821302 19.8428
-0.871479 -0.930167 19.2296
-0.0290726 -0.953835 19.0424
-1.24719 -1.31173 18.9795
0.860426 1.40245 19.7119
0.687878 0.671948 19.7337
1.22861 1.75972 20.6779
1.14937 1.10481 20.3329
0.830805 0.976662 21.8548
1.15058 0.877227 21.3148
0.229613 -0.026411 21.6619
0.462906 0.162254 21.7058
0.0802254 -0.321663 21.5288
0.0824937 -0.265879 21.4229
-0.0253909 -0.483878 20.754
-0.0789334 -0.44588 21.1782
-0.0854101 -0.482226 21.2051
0.877352 -0.598126 20.0649
0.643932 -0.333605 19.8339
0.749934 -0.780481 21.2771
1.42018 -0.890901 20.5542
0.00885494 -0.396084 21.5172
0.416412 -0.676981 21.507
-0.42144 -0.14416 21.6357
-0.132956 -0.373844 21.5507
-0.965413 0.0920437 21.4146
-0.844985 -0.116408 21.6096
-1.20774 0.0493444 21.0564
-1.20295 -0.0520493 21.2851
-1.16381 -0.0737453 21.0054
1.2658 -0.547693 19.8973
0.872115 -0.17277 19.6567
1.17561 -0.880016 21.4253
2.13823 -0.478831 20.543
0.172129 -0.582315 21.5742
0.919808 -0.708562 21.5685
-0.40342 -0.3448 21.7735
0.135947 -0.527175 21.7393
-1.13017 -0.247519 21.4486
-0.742294 -0.578765 21.6412
-1.46646 -0.334744 21.0873
-1.11732 -0.594906 21.4277
-0.990224 -0.674808 20.7614
1.70272 0.0828275 19.7936
0.869354 0.349318 19.7363
1.77169 -0.280634 21.2602
1.59636 0.59563 20.4243
0.808819 -0.506671 21.7213
1.35229 0.149823 21.3817
0.0219563 -0.540256 21.7859
0.517264 -0.164641 21.6941
-0.533239 -0.813188 21.5407
-0.0256763 -0.470657 21.5287
-0.793954 -0.785507 21.3724
-0.250939 -0.602348 21.2338
-0.264603 -0.642163 21.1213
0.867576 0.620351 20.1379
1.06829 0.597162 20.8775
0.67748 0.247162 21.4458
0.16325 -0.148544 21.4692
-0.0456702 -0.328753 21.2961
-0.0611859 -0.317198 21.3623
-1.0757 -0.623746 19.9812
-1.45202 -1.97971 18.7672
-1.05931 -1.05843 19.7623
-1.76186 -1.12276 19.268
-0.696351 -0.529266 19.532
-2.18174 -2.08015 20.583
-0.934491 -0.841914 21.3409
0.370954 -0.304395 19.1424
-0.534558 -1.20372 21.7418
-1.26569 -1.85729 22.0848
0.140064 -0.956053 21.7555
-0.0742418 -0.519894 21.5401
0.39964 0.431545 15.7854
0.33945 -0.417667 21.6153
0.118834 -0.825197 20.2706
0.381079 -0.462111 20.9821
0.413457 -0.246643 21.7069
0.297638 0.437693 13.6368
0.674482 -0.0337213 21.584
0.527938 -0.155725 19.627
1.34448 0.332563 20.0774
1.09303 -0.0481319 21.4329
1.02349 1.51126 12.8161
1.35298 0.554587 20.9543
1.68321 0.0816726 19.0321
1.74214 0.339268 19.8807
1.28041 -0.187774 21.0943
1.84926 1.34524 13.8204
1.69043 0.695449 20.6056
2.16359 0.0692071 18.6514
1.48138 0.13666 19.9924
-1.56603 -0.319269 19.8121
-3.45256 -0.914068 16.4912
-2.6484 0.324348 18.9591
-1.05944 -0.274495 19.1914
-4.39353 -0.978788 20.5168
-1.51262 -0.647632 21.3872
-2.73067 -0.681057 21.7916
-0.763443 -1.34686 21.0696
-0.456858 -0.638413 21.6628
-1.12935 -1.02625 20.9825
0.0638377 -0.412889 18.9664
0.246072 -0.506985 21.8106
0.124557 -0.330121 19.4606
1.16226 -0.27495 16.6704
0.972894 -0.609999 21.4461
0.103005 -0.923517 3.03243
0.568372 -0.887704 19.2455
1.44675 -0.527027 18.5407
1.11505 -0.667895 21.2233
1.86438 -0.020868 8.73692
0.9931 -1.11541 19.925
1.80674 -1.14769 18.59
-1.28937 0.491284 19.961
-1.84189 1.9725 18.8695
-0.972692 0.923933 19.9513
-0.981971 0.52843 19.3949
-2.2297 1.22187 20.2672
-1.54969 0.316811 20.9707
-2.98938 2.20029 20.5484
-1.27413 1.00202 20.8164
-2.12626 0.469399 21.5791
-0.910581 -0.0464773 21.6214
-2.33469 0.78773 22.4985
-0.835988 0.453143 21.6327
-0.740089 -0.0973578 21.9749
-0.182031 -0.322134 21.628
-0.251521 -0.274968 20.8833
-0.204211 -0.124638 21.5618
-0.124466 -0.542785 21.6303
0.185584 -0.528101 21.4097
-0.120893 -0.566028 20.499
0.00424487 -0.347418 21.2817
0.164791 -0.776346 21.2623
0.413123 -0.557749 21.1225
0.24159 -0.898635 18.701
0.065454 -0.473055 21.3948
0.01853 -0.551711 22.0595
1.48332 -1.93609 18.8066
0.0267878 -2.52387 18.8707
0.0291734 -3.63154 16.0652
0.00963441 -0.969446 18.7799
-0.0248753 -5.75517 23.6836
-0.406062 -0.38681 19.2403
-0.00787938 -0.859684 22.8373
0.0143126 0.375905 11.7606
-0.379107 0.425465 15.6366
-0.00395781 0.266522 19.8439
-0.000739049 0.209298 11.1159
-0.252712 0.451761 13.4301
0.00284009 0.591394 18.0312
0.0159568 0.923644 8.63432
-0.967273 1.53217 12.5455
0.0158798 1.45272 17.0856
0.0184353 -0.205346 2.15459
0.0131654 1.47618 10.0949
-1.81898 1.4203 13.6021
0.0404515 2.33423 16.9698
0.0513892 1.47695 4.6353
0.0994755 2.4431 13.4141
3.46171 -0.806861 16.4586
-0.0458241 4.17854 12.8024
0.00799973 -0.539604 17.5874
-0.0265213 -0.867556 2.54383
-0.0458342 0.80388 -4.88824
0.119168 0.30955 -2.96038
-1.67245 0.0864925 7.0281
-0.154423 1.31572 -2.61359
0.127906 2.53573 -2.15853
1.77536 2.04349 18.86
-0.0355896 1.91574 19.4725
-0.0199561 1.35736 18.2558
-0.0630254 4.42369 19.3588
2.89383 2.38732 20.481
-0.069248 2.633 20.4563
-0.111704 5.6485 20.9656
2.3857 0.949284 22.2654
-0.0526654 1.61694 22.1243
-0.0349903 0.618538 19.7827
0.22012 -0.286672 20.63
-0.0171447 0.0879841 21.7521
-0.0144419 0.0336217 14.022
0.158118 -0.539106 20.2977
-0.012147 -0.205202 21.6507
-0.0189092 -0.40161 16.315
-0.209242 -0.885265 18.4395
-0.00905536 -0.504555 21.0747
0.0233474 -0.588925 16.7677
1.08461 -0.599448 19.9917
1.07632 -1.01903 19.7742
1.77795 -1.11283 19.2666
0.719284 -0.522946 19.54
2.18905 -2.04868 20.5711
0.956164 -0.842182 21.3384
0.578444 -1.21385 21.72
1.32572 -1.87589 22.1208
-0.0995104 -0.975838 21.7785
0.0922437 -0.525319 21.5376
-0.308236 -0.449608 21.6123
-0.0995903 -0.83023 20.1751
-0.359067 -0.467948 20.9904
-0.403625 -0.247034 21.6967
-0.66105 -0.0509594 21.5973
-0.52787 -0.170249 19.6555
-1.33719 0.303529 20.0815
-1.08721 -0.0556916 21.431
-1.35375 0.559811 20.9168
-1.68174 0.0955687 18.7095
-1.76289 0.409957 19.484
-1.35639 -0.170922 21.0333
-1.7023 0.722352 20.5856
-2.19874 0.0807099 18.3127
-1.53421 0.218605 19.5394
1.59944 -0.302402 19.7944
2.64697 0.417071 18.9199
1.06959 -0.254666 19.1903
4.595 -0.896852 20.4535
1.57376 -0.64401 21.4065
2.87773 -0.62471 21.7379
0.780829 -1.37126 20.9974
0.46953 -0.6409 21.6742
1.19488 -0.991224 20.8702
-0.0734257 -0.435378 19.0206
-0.23608 -0.505009 21.8104
-0.109202 -0.332945 19.4815
-1.15443 -0.289748 16.8657
-0.97938 -0.627598 21.4412
-0.56207 -0.850976 18.9243
-1.48313 -0.532269 17.5966
-1.15705 -0.650097 21.1869
-0.999962 -1.16704 19.0896
-1.87462 -1.02964 18.0339
1.30814 0.55316 19.9442
0.93928 0.96769 19.9422
0.97794 0.571255 19.378
2.21964 1.35239 20.2486
1.58877 0.380699 20.968
1.26266 1.06878 20.8184
2.18854 0.599079 21.5907
0.944784 -0.0239768 21.6461
0.838688 0.524551 21.661
0.761381 -0.0725072 22.0073
0.186784 -0.321434 21.6502
0.210527 -0.112043 21.5671
0.143206 -0.547698 21.6537
-0.168154 -0.544343 21.4167
0.00321622 -0.365522 21.2545
-0.175938 -0.823513 21.2751
-0.495792 -0.531963 20.7859
-0.0588775 -0.512131 21.3357
-0.00403369 -0.62497 21.4304
-1.39278 -1.15036 19.501
-0.728424 -1.53492 21.948
0.337654 -0.682579 21.3005
0.632338 -0.133889 20.6907
1.60235 0.395993 19.805
1.96786 0.396937 19.64
-2.52715 -0.54743 18.9114
-2.07418 -1.3427 22.1499
-0.214602 -0.962461 19.8765
0.396631 -0.122587 18.2133
1.30197 -0.570618 17.5513
1.54317 -0.636094 19.027
-1.69761 1.01399 19.5445
-2.28789 0.84494 20.9549
-1.42131 0.117768 21.9702
-0.283257 -0.350474 21.7866
0.00575859 -0.647443 21.4648
0.526654 -0.899801 20.826
0.0299364 -3.18144 17.8413
0.00664481 -0.0462927 14.9201
0.00954039 0.303881 11.1588
0.00723697 0.391279 10.4541
0.0216399 0.891935 9.14047
0.0498043 1.79152 10.4696
0.00940648 -1.10933 12.3063
-0.0167026 -0.110081 -1.65219
0.160344 1.95234 -1.40641
-0.0566606 3.33044 18.0449
-0.0988712 4.51212 19.5828
-0.0767661 2.96763 21.4695
-0.0152645 -0.0478268 16.6149
-0.0214447 -0.0179173 15.3041
0.010705 -0.723818 15.9722
1.41977 -1.12742 19.5213
0.78988 -1.54622 21.9419
-0.308283 -0.700349 21.3121
-0.624584 -0.146057 20.689
-1.60443 0.401505 19.606
-1.94762 0.408643 19.4824
2.55696 -0.487939 18.8716
2.1489 -1.32768 22.2634
0.22232 -0.969564 19.7735
-0.388313 -0.135655 18.2525
-1.30193 -0.548003 17.1918
-1.61008 -0.560415 18.057
1.68366 1.09649 19.5251
2.32829 0.97383 20.9295
1.47983 0.192602 22.0045
0.303517 -0.341681 21.8309
0.0115113 -0.661889 21.4804
-0.389524 -0.965195 21.402
-1.65085 -0.280736 1.69453
-0.00692387 -0.176555 0.898889
0.0153814 -8.65255e-05 0.246325
0.0483615 -0.0332336 0.128049
0 0 0
0.29018 0.245877 3.03398
-1.86988 -0.192617 2.61586
0 0 0
-0.0810502 -0.0188367 0.255249
-0.0214264 -0.0274397 -0.000773305
-0.0578205 0.0203504 -0.0798088
-0.0119797 -0.0128232 0.141897
0.00825206 -0.106602 0.56224
1.23894 -0.509051 1.55148
-0.0129813 0.00187567 0.277784
0 0 0
-0.0474244 -0.0294056 0.127301
-0.227039 0.198992 2.53179
0.00587858 0.045648 0.109007
0 0 0
0.354116 0.0245183 1.01194
0.0613209 0.0189611 -0.0773999
0.020582 -0.025966 -0.000597535
0.00913532 -0.00965857 0.106231
-0.000430842 0.045074 0.572553
-0.0204958 0.0283126 0.640427
0 0 0
5.56168e-05 2.75195e-05 0.000680115
-0.000626023 0.000788554 0.104388
-0.0128071 0.0209017 0.465156
0 0 0
0.000970355 0.00109989 0.0354537
-0.0984585 -0.0790333 0.29184
-0.00171341 0.0104315 0.127421
0 0 0
-0.0616136 0.0616092 0.168716
0 0 0
0.00386191 0.0205348 0.0899112
0 0 0
0.0181532 0.00497627 0.10659
0.00207525 0.044958 0.576076
-9.43052e-05 6.58732e-05 0.00156677
0.0140669 0.0270335 0.57682
7.29385e-05 -0.00471867 0.27021
0.00769816 0.000128381 0.326263
-0.000784228 0.00105245 0.0342114
0.010043 0.00848885 0.239813
0 0 0
0.0834996 -0.0766235 0.466155
0.0626824 0.0750295 0.209092
0.00114797 0.00620529 0.0804792
0 0 0
0 0 0
-0.0293123 -0.00652784 0.183596
-0.00569178 0.0297092 0.131903
0 0 0
0 0 0
-0.101857 0.0102944 0.052866
5.75975e-06 5.70348e-06 -2.92795e-05
0 0 0
-0.00225086 -0.00498704 0.0722067
0 0 0
0.00574423 -0.000830012 0.0415138
0 0 0
0 0 0
0 0 0
0.000599752 0.000664769 0.0275611
1.83506e-05 2.44634e-05 0.000680138
0.00711408 0.884391 0.682142
-0.000693517 0.115357 0.432515
-0.00284504 -0.0127338 0.0833452
-0.0471297 0.00515209 0.0838588
0.00313528 -0.0211688 -0.000790261
0 0 0
0 0 0
-0.00228305 0.000413225 -0.00198157
0.173174 0.0192763 0.0712506
0 0 0
0 0 0
0 0 0
0 0 0
-0.005442 -0.000803619 0.0384103
-1.76649e-05 2.58693e-05 0.000718291
-0.00203545 0.00170814 0.0874286
0.145396 0.0243928 0.257691
0.00589683 -0.0290201 0.266785
0.00240557 0.000420426 -0.00203376
-9.25482e-19 2.29816e-18 2.38507e-17
0 0 0
0 0 0
0.00323855 -0.00600066 0.0508227
-0.000196665 0.00167088 0.0176363
7.28732e-05 0.000614307 0.0111433
1.14798e-20 6.94638e-19 1.59079e-17
-0.000198041 0.0040972 0.0237986
-0.000752103 0.00510082 0.0889641
-1.33825e-19 9.63429e-19 5.05665e-17
-4.26746e-20 -3.30309e-18 -3.19114e-17
0 0 0
-0.138048 0.129058 1.25812
-3.18703e-05 0.055951 0.115662
6.00327e-05 0.0469635 0.155797
2.26529e-05 0.000860468 0.0154249
1.1407e-05 -0.00183247 0.00869425
-0.000353816 3.86201e-05 0.00823753
0 0 0
0 0 0
0.000327673 0.00278664 0.0309134
0.000100661 0.00392511 0.0233185
0.00193045 0.00813399 0.0794319
0.110711 0.112934 1.02922
-0.0136104 0.0497598 0.228609
0 0 0
-0.00132376 -0.001088 0.011579
7.20682e-06 -4.85292e-05 0.000667694
0 0 0
-1.96277e-19 -4.35499e-18 -9.32829e-17
3.33244e-05 0.00696746 0.0597552
0 0 0
0.00372451 0.0208128 0.0834523
0 0 0
0.0129135 0.0452628 0.295836
0.00137089 0.000409782 0.00909405
0 0 0
1.03393e-19 -2.94782e-19 -1.25825e-18
8.65745e-19 1.18296e-18 5.16243e-18
0.00144065 0.00103653 0.0223819
-0.000472454 0.000422265 0.00929601
0.00413321 0.00261561 0.0790402
-0.00166259 0.00118479 0.0409432
0.000833423 0.00102469 0.039197