# vtk DataFile Version 2.0
tri_press
ASCII
DATASET UNSTRUCTURED_GRID
POINTS 3682 float
-0.84274 0.405 -2.175
-0.896639 0.485 2.125
-0.812778 0.825 -2.105
-0.805 0.845 2.07281
0.845 0.405 -2.17594
0.845 0.485 2.17877
0.812778 0.825 -2.105
0.805 0.845 2.07281
-0.85196 0.440413 -0.741667
-0.856737 0.480269 0.691667
-0.827711 0.849192 -0.712397
-0.830681 0.861422 0.680207
0.851815 0.424852 -0.72437
0.856154 0.447179 0.7272
0.827706 0.849188 -0.712397
0.830686 0.861427 0.680207
-1.67916 0.18676 -3.31901
-1.68048 0.205873 -2.18626
-1.68812 0.242591 -0.750578
-1.6965 0.283981 0.692837
-1.7205 0.301775 2.12923
-1.73411 0.30764 3.2654
-1.74133 0.314026 4.39592
-1.67735 0.392446 -3.30147
-1.67699 0.410417 -2.17334
-1.68671 0.444841 -0.747916
-1.69103 0.479988 0.679873
-1.71181 0.487027 2.10604
-1.72798 0.493394 3.24104
-1.73679 0.502079 4.3732
-1.66436 0.809097 -3.25299
-1.65421 0.826746 -2.12154
-1.66554 0.851563 -0.72425
-1.66435 0.865472 0.66853
-1.65287 0.856917 2.06543
-1.68885 0.865468 3.19376
-1.71444 0.879268 4.32797
-1.65511 1.43339 -3.22
-1.65159 1.44969 -2.09675
-1.6535 1.46435 -0.713576
-1.65534 1.46591 0.658159
-1.65841 1.45926 2.03911
-1.67102 1.4601 3.15772
-1.68891 1.46844 4.28645
-0.843132 0.182248 -3.31954
-0.840668 0.199502 -2.18672
-0.846356 0.235142 -0.743528
-0.853381 0.280301 0.709004
-0.883477 0.30165 2.1521
-0.898459 0.305836 3.28373
-0.90514 0.310722 4.41025
-0.845289 0.388976 -3.30049
-0.899416 0.490699 3.25542
-0.903565 0.498251 4.38537
-0.835662 0.807151 -3.24526
-0.862165 0.859044 3.19873
-0.884435 0.873766 4.33472
-0.824021 1.43209 -3.21166
-0.819883 1.44882 -2.08772
-0.821159 1.46339 -0.706622
-0.82394 1.46322 0.661587
-0.828225 1.45385 2.04062
-0.840545 1.45398 3.15982
-0.857323 1.46255 4.29003
0.83526 0.178913 -3.31616
0.847436 0.1952 -2.18245
0.852753 0.220484 -0.727193
0.854574 0.255726 0.740014
0.837546 0.292544 2.19403
0.802532 0.298419 3.31657
0.782253 0.302432 4.43562
0.827313 0.387086 -3.29882
0.795953 0.485794 3.2873
0.77911 0.490997 4.40944
0.817002 0.805887 -3.24403
0.792961 0.855276 3.21371
0.783727 0.867493 4.35248
0.835535 1.42901 -3.20806
0.838564 1.4459 -2.08429
0.840729 1.45987 -0.702407
0.837618 1.45874 0.667195
0.828499 1.44864 2.04822
0.818078 1.44804 3.17001
0.806345 1.45583 4.30254
1.67536 0.178609 -3.31026
1.6866 0.195252 -2.17492
1.69548 0.218102 -0.72281
1.69883 0.246707 0.742309
1.68358 0.2783 2.19312
1.65302 0.289795 3.32236
1.62964 0.296433 4.4437
1.66735 0.386755 -3.29566
1.67948 0.404323 -2.16738
1.69017 0.423892 -0.724625
1.69496 0.442649 0.725491
1.67998 0.467546 2.16804
1.64715 0.478726 3.29509
1.62586 0.486174 4.41861
1.65414 0.805042 -3.24873
1.65593 0.824088 -2.1189
1.66937 0.844024 -0.71588
1.67241 0.850767 0.685243
1.65173 0.84413 2.08902
1.63593 0.85373 3.22609
1.62485 0.865337 4.3631
1.66802 1.42652 -3.21191
1.67038 1.44291 -2.08873
1.67378 1.45611 -0.703642
1.67141 1.45558 0.671307
1.66137 1.44753 2.05631
1.65133 1.44731 3.1793
1.64112 1.45447 4.31189
-0.802822 0.615 -2.11506
0.00113001 0.391178 -2.18929
-0.878385 0.391672 -1.45833
-0.819778 0.665 2.06786
-0.0258195 0.456787 2.1801
-0.861117 0.498205 1.40833
0 0.827388 -2.10739
-0.824497 0.841348 -1.4087
0 0.84692 2.07473
-0.832161 0.867531 1.37651
0.80366 0.615 -2.11524
0.877735 0.385598 -1.45016
0.786113 0.665 2.0869
0.860914 0.455752 1.45299
0.824515 0.841367 -1.4087
0.832164 0.867534 1.37651
-0.851997 0.462693 -0.025
-0.853036 0.644802 -0.727032
-7.2645e-05 0.224721 -0.733018
-0.851791 0.670845 0.685937
-0.000291255 0.239717 0.709434
-0.829212 0.855323 -0.016095
-2.15673e-06 1.08693 -0.712397
2.6513e-06 1.38747 0.680207
0.851969 0.438031 0.00141501
0.851622 0.63702 -0.718383
0.851843 0.654303 0.703703
0.829207 0.855318 -0.016095
-0.874246 0.629901 -1.43352
0.874289 0.62601 -1.42943
0.000528685 0.241037 -1.45424
-1.07837e-06 0.890689 -1.4087
0.000565007 0.615 -2.12972
-0.851972 0.657824 -0.0205475
0.85192 0.645661 -0.00734001
-0.00018195 0.231405 -0.0117925
2.47283e-07 1.38342 -0.016095
-0.852226 0.667923 1.39242
0.852008 0.659651 1.41475
-0.0130554 0.249258 1.43066
1.32565e-06 0.914523 1.37651
-0.0129097 0.665 2.09169
-0.781379 0.51 -2.10363
-0.420805 0.394605 -2.18563
-0.859742 0.399156 -1.81667
-0.819394 0.575 2.05762
-0.461229 0.454709 2.16873
-0.852236 0.518245 1.76667
-0.823006 0.72 -2.12524
-0.406389 0.822873 -2.10287
-0.822163 0.8367 -1.75685
-0.817195 0.755 2.07514
-0.4025 0.845993 2.0738
-0.828687 0.866372 1.72466
0.423065 0.394714 -2.18599
0.782264 0.51 -2.10352
0.859535 0.397131 -1.81305
0.40959 0.466826 2.1835
0.765151 0.575 2.08243
0.852113 0.47122 1.81588
0.406389 0.823065 -2.10306
0.823239 0.72 -2.12514
0.822168 0.836705 -1.75685
0.4025 0.845995 2.07381
0.800172 0.755 2.08447
0.828682 0.866367 1.72466
-0.850091 0.431123 -1.1
-0.852473 0.451058 -0.383333
-0.851956 0.542879 -0.734349
-0.47823 0.22814 -0.737343
-0.861178 0.486986 1.05
-0.852071 0.473776 0.333333
-0.852118 0.57663 0.688802
-0.48776 0.241501 0.70055
-0.826206 0.845373 -1.06055
-0.851514 0.752567 -0.719714
-0.828456 0.852252 -0.364246
-0.460443 1.06123 -0.712397
-0.831412 0.864468 1.02836
-0.851702 0.771366 0.683072
-0.829944 0.85837 0.332056
-0.538967 1.3717 0.680207
0.850029 0.419971 -1.08726
0.474343 0.227843 -0.728694
0.85274 0.430594 -0.361478
0.853386 0.530102 -0.721377
0.860449 0.449551 1.09009
0.479345 0.24062 0.718317
0.852036 0.444631 0.364308
0.8579 0.54879 0.715452
0.826202 0.845368 -1.06055
0.458145 1.05664 -0.712397
0.852821 0.749682 -0.71539
0.828455 0.852251 -0.364246
0.831413 0.864469 1.02836
0.53895 1.37166 0.680207
0.851692 0.763079 0.691955
0.829948 0.858373 0.332056
-0.853542 0.622451 -1.77429
-0.401128 0.615 -2.10607
0.00082935 0.271568 -1.82177
0.000847511 0.503089 -2.07157
-0.869564 0.510786 -1.44592
-0.438928 0.247836 -1.45629
-0.851971 0.666461 1.73014
-0.416344 0.665 2.12608
-0.0194374 0.283459 1.80538
-0.0193646 0.560894 2.07721
-0.855581 0.583064 1.40038
-0.437086 0.249206 1.4195
-5.39183e-07 0.890563 -1.75804
0.000282504 0.721194 -2.08649
-0.850027 0.735625 -1.42111
-0.412249 0.861295 -1.4087
6.62825e-07 0.882083 1.72562
-0.00645487 0.75596 2.09793
-0.8518 0.767727 1.38446
-0.41608 0.911246 1.37651
0.853702 0.620505 -1.77233
0.402112 0.615 -2.10654
0.86992 0.505804 -1.43979
0.439132 0.247718 -1.4522
0.851975 0.662326 1.75082
0.386601 0.665 2.09659
0.856041 0.557702 1.43387
0.423929 0.24931 1.44182
0.850033 0.733688 -1.41906
0.412257 0.860753 -1.4087
0.851804 0.763593 1.39563
0.416083 0.911517 1.37651
-0.852153 0.560174 -0.0227737
-0.482965 0.233297 -0.0183962
-0.849935 0.637352 -1.08027
-0.851729 0.651313 -0.37379
0.00022802 0.231803 -1.09363
-0.000127297 0.231327 -0.372405
-0.851804 0.664335 0.332695
-0.852068 0.669384 1.03918
-0.000236602 0.233279 0.348821
-0.00667331 0.24757 1.07005
-0.851816 0.762185 -0.0183213
-0.538875 1.36791 -0.016095
-1.61755e-06 0.866134 -1.06055
-9.54725e-07 1.36966 -0.364246
1.44929e-06 1.38824 0.332056
1.98848e-06 1.28696 1.02836
0.852045 0.541796 -0.0029625
0.476587 0.233331 -0.00518873
0.849936 0.631515 -1.07391
0.85167 0.64134 -0.362862
0.851743 0.649982 0.348182
0.852616 0.656977 1.05923
0.851812 0.756114 -0.0117175
0.538853 1.36787 -0.016095
-0.855895 0.510393 -1.79548
-0.850564 0.526697 -1.09014
-0.850119 0.741311 -1.07041
-0.848739 0.727812 -1.76557
0.855902 0.507902 -1.79269
0.84881 0.726844 -1.76459
0.849926 0.738396 -1.06723
0.850568 0.51837 -1.08058
-0.429867 0.271773 -1.81922
0.431098 0.271686 -1.81741
0.432502 0.231802 -1.09045
-0.432472 0.231808 -1.09682
-0.409319 0.856472 -1.75745
-0.413053 0.869225 -1.06055
0.413055 0.868841 -1.06055
0.409323 0.85635 -1.75745
-0.410967 0.506545 -2.10483
-0.403759 0.720597 -2.11879
0.404251 0.720597 -2.11853
0.412589 0.506545 -2.10446
-0.853396 0.550856 -0.378562
-0.852149 0.568396 0.333014
-0.851652 0.766723 0.332375
-0.851561 0.757325 -0.369018
0.853403 0.535605 -0.36217
0.852873 0.753176 -0.363554
0.851645 0.759543 0.340119
0.852304 0.546627 0.356245
-0.479361 0.233192 -0.377869
0.47418 0.233158 -0.366942
0.478749 0.23541 0.356564
-0.486379 0.235367 0.341077
-0.568713 1.35268 -0.364246
-0.540285 1.37253 0.332056
0.540266 1.37249 0.332056
0.568756 1.35277 -0.364246
-0.856481 0.579311 1.04459
-0.85202 0.579032 1.7484
-0.845181 0.761364 1.7274
-0.849005 0.76693 1.03377
0.858141 0.554221 1.07466
0.848537 0.760729 1.04379
0.851917 0.759296 1.73774
0.852016 0.566351 1.78335
-0.4328 0.247522 1.06002
0.425931 0.247618 1.08007
0.41676 0.284686 1.81063
-0.449158 0.279462 1.78602
-0.41571 1.26148 1.02836
-0.40929 0.886577 1.72514
0.409291 0.88632 1.72514
0.415713 1.26201 1.02836
-0.438787 0.567947 2.08215
0.398096 0.567947 2.08491
0.394551 0.75548 2.09855
-0.409422 0.75548 2.09865
-0.809497 0.4575 -2.13675
-0.631772 0.396434 -2.18368
-0.872732 0.380587 -1.99583
-0.855595 0.53 2.08889
-0.678934 0.454097 2.16262
-0.896982 0.479078 1.94583
-0.821189 0.7725 -2.11842
-0.609583 0.819295 -2.0993
-0.820966 0.834346 -1.93092
-0.813763 0.8 2.07664
-0.60375 0.845953 2.07376
-0.823543 0.862386 1.89873
0.634033 0.396609 -2.18421
0.810971 0.4575 -2.13707
0.872746 0.380587 -1.99449
0.627295 0.472052 2.185
0.811452 0.53 2.13698
0.870088 0.456579 1.99732
0.609583 0.819557 -2.09956
0.821212 0.7725 -2.11827
0.820983 0.834362 -1.93092
0.60375 0.845996 2.07381
0.805328 0.8 2.08138
0.823501 0.862344 1.89873
-0.870097 0.416696 -0.920833
-0.85198 0.445973 -0.5625
-0.851995 0.491627 -0.738008
-0.717806 0.228855 -0.739505
-0.864373 0.478212 0.870833
-0.852044 0.479383 0.5125
-0.85206 0.529633 0.690234
-0.732129 0.241124 0.696108
-0.827319 0.847643 -0.886472
-0.851122 0.806635 -0.716056
-0.828084 0.850723 -0.538321
-0.660903 0.988864 -0.712397
-0.831049 0.862947 0.854282
-0.850934 0.821265 0.681639
-0.830308 0.859892 0.506131
-0.695823 1.13856 0.680207
0.852169 0.421164 -0.905816
0.711921 0.228662 -0.726532
0.851856 0.428144 -0.542924
0.851875 0.47784 -0.722873
0.861702 0.444965 0.908646
0.71911 0.24118 0.722759
0.852075 0.447925 0.545754
0.856439 0.498279 0.721326
0.827316 0.84764 -0.886472
0.661936 0.990936 -0.712397
[...]
POINT_DATA 3682
SCALARS point_scalars float 1
LOOKUP_TABLE default
-7.78301
-42.3065
-96.2239
-43.9304
-7.60945
-42.2115
-95.8988
-43.8302
-36.0929
-38.1106
-49.1128
-46.2574
-36.5172
-36.9203
-49.1571
-46.0708
-29.3982
-125.877
-38.6702
-38.7711
-45.9502
-41.5763
-40.5839
-29.3982
-125.877
-40.5368
-38.0992
-45.9502
-41.5763
-40.5839
-70.2504
-161.413
-46.2139
-42.4815
-45.6438
-41.5763
-43.4089
-103.165
-160.9
-47.9474
-53.9354
-45.2744
-43.364
-44.0295
106.065
-47.5953
-35.952
-43.2501
-40.1155
-37.8096
-37.8096
106.065
-38.2289
-37.8096
137.215
-38.6222
-38.6222
-42.2921
-130.594
-87.6296
-55.6533
-42.0199
-41.8264
-36.8995
106.548
-58.5798
-39.2707
-39.1781
-40.9173
-37.6339
-37.6339
106.548
-38.1747
-37.6339
136.844
-38.5717
-38.303
-42.3995
-137.971
-77.3011
-57.29
-42.0763
-38.9967
-37.017
-30.0405
-125.416
-39.4532
-36.8657
-43.5045
-41.5599
-41.5599
-30.0405
-125.416
-36.6062
-38.7751
-43.5045
-41.5599
-41.5599
-70.1786
-158.459
-46.371
-42.4938
-45.3947
-41.5599
-41.5599
-102.69
-156.197
-48.9568
-54.7929
-45.2522
-43.5318
-43.5318
-19.0476
13.6181
-49.1387
-44.6232
-25.0855
-36.6511
-118.529
-32.3148
-43.276
-45.2767
-21.8715
-49.1115
-41.5466
-41.4162
-32.1948
-45.4172
-39.3644
-38.608
-46.7232
-40.2199
-37.194
-51.9764
51.1881
-59.2457
-38.9885
-38.3814
-40.112
-52.007
-44.859
-44.9357
-66.6543
-14.203
198.774
-42.8435
-42.5625
-38.4026
-87.6285
-38.0038
-38.2117
-37.7359
-42.6412
-30.1207
13.2643
36.5576
-71.5039
-44.6633
-33.6588
-33.1189
-29.3894
-85.3961
-54.9355
-44.5647
-39.1574
-43.1175
37.9203
10.7575
-70.2961
-32.3878
-39.2601
-32.0519
-86.6832
-29.8054
-54.9301
-39.4361
-43.0027
-43.6391
-27.21
-38.8693
-36.6471
-45.6276
-37.3375
-38.595
-39.0071
-37.1329
-27.8222
-42.9414
-56.4978
31.0058
-45.2654
-41.8506
-48.6364
-56.8677
-27.6232
-45.3505
-38.8642
-36.8353
-37.0131
-37.2781
-38.1806
-38.4253
-27.4883
31.5407
-42.6978
-56.6206
-44.9846
-57.4247
-41.6959
-48.672
-70.872
197.934
-100.652
201.964
-46.5322
-59.598
-37.5797
-34.0185
-35.7739
-30.2533
-37.6006
-37.9003
-53.374
192.435
-41.3013
-19.0941
-42.5743
-33.8227
-39.1025
-44.1417
-70.4567
198.053
-46.3684
-59.5631
-38.167
-33.905
-39.5676
-38.2045
-41.3361
-18.9041
-39.2264
-44.0926
-40.8369
-37.9313
-32.6509
-43.0764
-51.2696
-40.47
-41.2527
-39.6095
-38.2407
-36.4813
-45.9966
-76.5403
6.24638
-138.567
-67.8442
-46.6042
-40.5067
-37.8823
-33.0136
-42.9618
-40.9903
-39.5139
-45.7814
-77.6775
-75.5884
-30.9417
-33.7524
-65.4091
-74.903
-65.0474
-33.718
-31.3392
-98.092
-97.6746
-48.4264
-48.6605
-52.8126
-0.938808
-0.62188
-52.6526
199.257
176.724
177.354
199.247
-40.4561
-39.7463
-43.3359
-47.7805
-40.4169
-47.6627
-43.2272
-39.4167
-39.7057
-39.6053
-37.8631
-37.8637
-129.607
-61.4949
-61.7895
-125.526
-38.489
-36.2226
-38.7716
-41.0924
-38.57
-40.8675
-38.7903
-37.1031
-36.262
-36.3796
-38.4185
-39.2
-48.5334
-42.7864
-42.7718
-48.492
-34.2397
-33.9347
-36.6534
-37.3609
24.7323
40.3744
-121.084
-45.3741
-36.774
-43.3285
-44.2523
-67.4666
-87.4566
-44.6259
-38.232
-44.0272
31.4572
24.091
-116.015
-36.1129
-40.2909
-43.963
-69.0065
-44.351
-87.2412
-38.3287
-43.7539
-43.898
-39.7392
-37.9901
-36.1665
-43.779
-40.1277
-38.1315
-38.4809
-38.729
-36.3149
-46.8685
-55.845
-29.6391
-46.5089
-43.5125
-47.0265
-51.5199
-36.1881
-43.2085
-38.332
-36.4591
-41.8971
-38.3748
-37.6107
-37.5971
-35.9065
-26.5886
-46.7856
-55.9121
-46.4236
-51.2284
-43.096
-47.03
-7.37923
-18.9645
-119.904
184.52
22.3579
22.9719
-113.282
181.299
-54.7406
-43.092
-47.4869
-53.7021
-44.6386
-44.5213
-41.0676
-36.3112
-28.5255
-28.052
-30.8045
-27.0284
-35.3208
-36.3139
-37.2761
-38.1041
-119.747
-119.55
-72.0466
104.724
-40.8131
-27.669
-39.4304
-22.949
-41.4456
-41.546
-42.2483
-37.0712
-44.4035
-46.7881
-40.5924
-45.1387
-10.1083
-20.9119
-119.195
184.318
-54.0637
-43.7827
-47.2608
-53.9098
-40.6941
-42.1156
-41.9711
-36.1169
-31.4944
-36.4789
-41.1657
-38.0719
-40.6829
-27.5158
-39.46
-22.7308
-44.3573
-47.3192
-40.4676
-45.1044
-39.5191
-38.9991
-40.0529
-37.526
-37.4932
-40.2479
-36.8434
-41.6485
-46.4798
-46.3358
-50.0232
-43.4689
-39.6558
-40.9708
-40.6258
-40.5859
-37.217
-37.2527
-36.911
-36.299
-54.4533
-50.493
-48.6812
-61.131
48.0577
48.3974
14.0104
29.3123
-59.1278
-59.1614
-62.881
-55.9791
-39.1704
-38.6102
-39.7032
-37.5209
-37.4223
-40.0476
-35.8129
-41.586
-39.5074
-40.8223
-40.2452
-40.5902
-54.4323
-50.7755
-48.5778
-61.8529
-54.1932
-45.9559
-42.8512
-37.0328
-54.1783
-45.8983
-42.9042
-37.0054
-71.4452
-64.6767
-64.6009
-57.2654
-29.4811
-15.6305
-15.5337
-2.0579
198.478
202.438
201.641
198.404
-41.7946
-43.3604
-42.0084
-44.2914
-41.4325
-43.0485
-41.7436
-44.0924
-38.2927
-39.0858
-38.1233
-38.2651
-85.3194
-106.821
-76.3214
-85.5368
-37.2681
-37.7506
-38.4647
-38.6824
-37.1729
-38.0144
-38.6123
-38.9784
-39.0923
-37.8556
-37.8985
-36.9981
-42.8291
-43.1885
-43.1467
-43.0637
-31.7256
-29.9791
-31.5982
-31.4273
-123.281
185.025
-113.324
190.709
-74.0323
-91.1715
-40.8335
-36.5822
-37.5691
-34.9088
-35.5659
-42.1258
-107.668
164.765
-87.4373
79.7093
-61.528
-52.944
-40.6802
-37.1713
-41.0459
-37.6064
-39.2344
-42.9604
-112.97
190.981
-121.661
185.062
-73.2645
-90.5749
-35.9244
-33.9335
-43.1874
-36.1762
-35.103
-40.596
-87.2749
90.1975
-107.119
164.853
-61.1775
-52.7558
-41.084
-37.775
-41.7223
-37.289
-39.3847
-42.9549
-30.182
-38.2808
-39.6531
-38.6685
-39.961
-39.1688
-48.7234
-42.3337
-37.9782
-36.0033
-39.1508
-37.6134
-39.25
-39.9965
-36.6915
-36.1271
-34.2768
-9.9624
-37.9361
-46.6883
-51.6231
-82.8647
4.18636
16.0547
-42.2464
-52.444
-42.3722
-41.6127
-44.9654
-53.4549
-58.2934
-59.9797
-29.9072
-39.4781
-48.2425
-42.1785
-39.5339
-38.8322
-37.2946
-39.2491
-37.8704
-36.1701
-36.7462
-36.2312
-38.7902
-37.7771
-38.8038
-40.2806
-34.1711
-9.64892
4.81194
18.5148
-37.2525
-46.5909
-51.5619
-83.3919
-42.1585
-52.249
-58.519
-59.6315
-42.1676
-41.763
-44.928
-53.2899
-74.0475
-68.3511
200.047
194.923
-99.9328
-99.6953
200.016
200.205
-56.812
-38.6744
-70.7338
-52.6261
-36.9385
-38.5116
-33.8858
-35.8428
-36.4584
-36.9674
-32.0584
-31.6252
-37.6858
-36.2485
-36.8235
-40.057
-54.1263
-54.0593
197.926
197.835
-35.3204
-49.5215
-33.0683
-8.66557
-42.664
-42.6496
-34.7421
-34.8387
-38.3935
-39.8121
-44.693
-43.7629
-73.5173
-67.9606
194.847
199.66
-56.3561
-38.8888
-70.5996
-52.6799
-38.5398
-37.7918
-33.7008
-34.912
-38.0348
-34.105
-36.9644
-40.851
-49.4172
-35.4053
-8.4352
-32.889
-40.1119
-38.395
-43.7322
-44.632
-40.9774
-40.3111
-38.5229
-37.7809
-31.6352
-33.1714
-41.5719
-45.1638
-50.6803
-50.7917
-40.2526
-40.1988
-40.4386
-42.2207
-38.9807
-40.4028
-38.196
-38.1654
-36.4107
-36.474
-44.5422
-47.0828
-95.6122
-67.3533
4.86582
5.02761
-137.009
-138.244
-66.4365
-66.5575
-47.0153
-46.9876
-40.7176
-39.9686
-38.4287
-37.7468
-33.343
-32.0312
-41.4946
-45.0161
-42.0285
-40.1436
-38.9821
-40.1464
-46.8361
-44.436
-67.5425
-96.2903
-130.638
-55.8137
-56.2775
-124.151
-40.8493
-37.8738
-37.8002
-40.4121
-39.3871
-34.233
-36.2568
-36.9367
-94.8319
-115.093
-51.1581
-47.3782
-128.202
-123.127
-56.0904
-55.3164
-94.4716
-47.3306
-51.0566
-114.393
-39.1723
-36.0076
-36.2639
-34.3081
-37.1714
-40.5331
-37.8532
-36.3185
-109.906
-113.978
-70.8973
-65.7147
-110.206
-65.3869
-70.9453
-113.302
-42.6814
-49.5239
-56.1834
-47.5841
-44.174
-48.4864
-56.2328
-49.6788
-95.2827
-35.6496
-30.5292
-75.045
-10.0087
11.9194
-4.27505
-14.5314
-8.71191
-14.246
-4.15417
12.1298
-95.0638
-74.9184
-30.4464
-35.4612
184.487
184.398
201.506
186.921
82.5797
102.474
197.509
180.402
82.5504
180.422
197.229
101.528
184.504
187.147
201.619
183.627
-38.3835
-40.2073
-41.9531
-40.2023
-38.6927
-39.8837
-41.0669
-39.6288
-43.884
-46.9752
-43.1787
-41.4717
-50.9158
-43.7233
-45.0392
-50.4457
-38.5592
-40.2359
-41.7062
-39.9307
-50.858
-50.2628
-44.7996
-43.6336
-43.7452
-41.1765
-42.9808
-46.8144
-38.1893
-39.2749
-40.7672
-39.4811
-41.812
-43.2613
-38.9675
-38.0287
-41.6452
-37.7969
-38.8552
-43.1262
-36.7513
-36.8626
-38.028
-37.3002
-36.4689
-37.3909
-38.0436
-36.8333
-90.4698
-69.1842
-104.95
37.8141
-51.6212
-61.8731
-73.7568
-56.8754
-51.4444
-57.6136
-73.9345
-61.9558
-88.7895
37.7766
-105.172
-70.2622
-40.033
-37.1416
-38.1337
-40.1484
-41.7082
-40.762
-36.6475
-35.998
-41.347
-39.8147
-37.8838
-40.7604
-44.0383
-41.0209
-39.1822
-41.5327
-40.1526
-40.1798
-38.4768
-37.4354
-43.6776
-41.8515
-39.4799
-41.2814
-42.1437
-41.8849
-37.8101
-40.2113
-44.7689
-31.7476
-36.5968
-42.1793
-36.3428
-36.2305
-36.9511
-36.1852
-36.3854
-36.4433
-37.0401
-36.2824
-40.9834
-32.0782
-39.5232
-41.3735
-43.8878
-36.8894
-39.4743
-33.0293
-50.8777
-46.9533
-43.6021
-56.858
-41.0915
-41.8415
-43.1752
-44.132
-41.0777
-44.1249
-43.1438
-41.8674
-50.9733
-56.8307
-43.5567
-46.8251
-37.2597
-30.1709
-31.7609
-36.3037
-36.9672
-36.0285
-31.3415
-29.7343
-37.2485
-37.8452
-32.7935
-36.8823
-37.2122
-36.7403
-32.8489
-37.9191
37.6952
58.2163
-122.687
-42.4954
-39.9214
-45.7017
-53.5262
-36.6996
-137.897
-44.3921
-39.687
-44.3485
59.7111
36.9471
-124.663
-37.6339
-41.6724
-45.4186
-37.2235
-53.6185
-137.785
-39.6824
-43.8357
-44.0869
-38.6828
-37.2719
-36.069
-37.4373
-38.3226
-37.74
-38.2231
-41.998
-43.8128
-48.0729
-53.921
-55.3822
-45.9759
-45.0344
-46.9174
-47.8758
-35.5095
-39.9834
-37.5746
-36.464
-39.9446
-39.3638
-36.8697
-37.3482
-43.6116
-54.4286
-48.1185
-54.0188
-45.8278
-47.3821
-44.6888
-46.7298
-8.21509
-33.353
-184.433
161.285
17.0298
17.2623
-42.8787
121.31
-49.413
-44.1409
-48.1799
-50.9499
-44.648
-44.5539
-46.115
-37.4438
-26.2089
-25.3691
-27.8595
-23.6231
-37.1216
-36.4282
-36.9406
-37.2382
-124.624
-124.875
-107.003
16.8175
-36.2756
-29.5098
-36.6132
-26.1163
-42.2233
-42.1131
-42.5575
-40.0878
-43.8665
-45.7055
-42.5095
-45.9157
-10.8988
-35.7804
-184.228
160.977
-48.1532
-44.4661
-47.8026
-51.1636
-41.0935
-41.855
-47.9395
-36.8576
-34.5148
-37.4762
-41.7564
-37.2035
-36.167
-29.37
-36.6307
-25.8858
-43.8253
-45.9428
-42.507
-45.8981
-39.607
-39.2
-39.6858
-37.2501
-38.011
-39.3177
-38.0656
-40.3611
-46.6885
-46.6159
-48.2535
-45.6889
-39.9405
-40.5764
-40.4228
-39.9074
-37.2157
-37.2288
-36.8734
-36.8207
-53.3798
-51.3813
-50.498
-55.5399
50.1311
50.3179
25.8424
62.5042
-59.3055
-59.321
-60.9927
-57.5198
-39.0949
-38.8641
-39.3427
-37.0542
-37.7822
-39.0896
-36.8432
-39.9505
-39.7965
-40.4709
-40.108
-39.9534
-53.5084
-50.8474
-50.4333
-55.8727
-49.0313
-45.7005
-43.9153
-40.7984
-49.0516
-45.616
-43.9858
-40.9269
-68.7449
-66.147
-66.104
-61.5492
-21.2506
-14.6216
-14.5713
-8.06877
198.456
202.057
198.29
198.529
-42.3026
-43.2931
-42.4299
-43.5198
-41.9681
-42.8894
-42.189
-43.3238
-38.3756
-38.6761
-38.2714
-38.3604
-87.0419
-95.9151
-81.1543
-87.135
-37.5866
-37.8762
-38.1887
-38.2959
-37.562
-38.0823
-38.3763
-38.6856
-38.2609
-37.7768
-37.8312
-37.3565
-42.9011
-42.775
-42.7502
-42.4359
-30.565
-29.9324
-30.7965
-30.396
10.7623
7.1385
-163.501
158.997
48.8932
28.6935
-36.7128
126.694
-96.6119
-60.8878
-72.1019
-82.658
-44.6002
-44.7662
-45.4989
-37.7454
-35.3192
-31.1975
-34.0809
-34.0896
-33.5678
-34.7955
-34.5992
-40.3751
-24.2655
-38.5514
-168.802
150.973
-69.2142
-106.868
-118.577
12.7815
-66.5561
-46.8056
-58.8971
-53.3094
-44.7275
-44.497
-46.4536
-37.8513
-38.3151
-40.3211
-40.3366
-38.3291
-43.7806
-42.7483
-40.5462
-43.4937
50.5276
29.6823
-37.0463
126.545
7.02692
4.8989
-163.788
157.964
-95.7104
-60.0594
-71.1724
-82.1014
-34.8259
-29.6892
-33.0513
-32.8408
-39.1531
-40.1323
-47.8493
-37.0323
-36.6303
-35.9707
-33.0398
-40.4632
-70.1385
-106.893
-118.532
16.9496
-24.7733
-40.3793
-168.412
150.437
-66.3615
-46.6068
-57.7153
-53.1197
-38.4189
-40.3487
-40.4283
-38.5704
-43.374
-42.433
-47.556
-37.5703
-44.0143
-42.7017
-41.5533
-43.5404
-32.8353
-34.75
-28.6328
-26.4089
-38.3928
-39.1726
-39.314
-37.1759
-36.4056
-37.069
-38.1381
-38.0816
-45.061
-46.029
-47.4259
-44.1781
-38.9595
-36.4648
-37.6574
-36.7629
-38.3586
-38.8173
-38.8666
-36.9532
-38.6878
-39.3774
-39.1605
-38.8296
-37.2398
-37.1997
-36.8513
-36.5934
-30.5493
-27.0236
-31.7197
-17.9508
-44.9111
-41.2684
-40.5266
-45.1661
-56.6579
-55.7837
-54.1164
-64.4933
7.67429
44.4824
10.9251
37.5644
-45.4771
-46.2411
-44.1841
-48.955
-42.3834
-41.3704
-42.1473
-41.3901
-47.9559
-48.9707
-47.6467
-50.2843
-55.8555
-58.7302
-57.3713
-58.959
-35.4203
-35.2191
-28.2312
-26.6741
-44.6962
-45.8045
-46.9767
-44.0508
-38.5202
-39.1963
-39.1893
-37.9265
-36.6682
-37.081
-35.3635
-38.17
-38.2163
-36.4032
-37.4689
-36.8751
-37.4096
-37.2991
-36.894
-36.7775
-37.9021
-38.3969
-38.4885
-36.4096
-37.8868
-38.9759
-38.3518
-39.6118
-30.1167
-26.6854
-31.6049
-17.3987
9.60002
44.7507
12.4481
40.3193
-44.7278
-41.0662
-39.9462
-45.0184
-56.8761
-55.8569
-54.1826
-64.7928
-45.5074
-46.2213
-44.1315
-49.3505
-57.2024
-58.8113
-57.8717
-58.656
-42.2875
-41.2942
-42.0071
-41.5947
-47.954
-49.5019
-47.7073
-50.2927
-87.5649
-61.0309
-72.6781
-69.6117
192.792
197.782
199.177
196.265
-127.893
-82.9059
-100.308
-100.199
202.969
201.943
200.578
200.623
-46.9683
-46.1862
-51.1746
-42.075
-56.7408
-62.129
-64.0244
-55.7971
-38.3415
-37.3685
-37.1841
-38.0509
-35.6731
-32.6767
-33.6734
-34.8515
-33.4021
-38.3561
-35.9073
-36.1795
-30.5946
-30.0299
-30.8399
-30.5922
-37.4596
-37.6894
-37.496
-37.1474
-38.0175
-37.8633
-37.3089
-38.6901
-61.6922
-39.6836
-53.4838
-53.4593
159.533
195.772
205.921
206.166
-40.6091
-41.9724
-38.0465
-44.7833
-20.5629
-17.6239
-25.4777
-13.5929
-42.377
-42.7617
-42.6025
-42.5946
-35.2451
-32.6957
-33.9981
-34.1892
-39.4826
-38.77
-38.5391
-39.4872
-44.5819
-43.6498
-44.2541
-44.0572
-86.9582
-60.7203
-72.1779
-69.1989
192.693
197.702
196.336
199.09
-46.5806
-46.1529
-50.7853
-42.0196
-56.7897
-62.0816
-63.9128
-55.8138
-39.5046
-37.4674
-38.3572
-37.974
-35.0385
-32.6641
-33.5598
-34.2435
-40.4224
-38.6104
-38.1995
-35.4456
-38.2325
-38.0869
-37.4958
-39.1564
-40.6739
-41.9887
-44.7472
-38.0875
-20.3397
-17.4802
-13.3871
-25.293
-39.6593
-39.0004
-39.8362
-38.6938
-44.5316
-43.6008
-44.0199
-44.1912
-40.424
-41.3073
-40.9816
-40.5636
-37.6788
-38.1408
-38.1698
-37.8653
-34.3643
-34.2859
-32.2323
-33.0813
-42.431
-43.2202
-42.284
-44.0668
-50.959
-53.5043
-51.1385
-51.1981
-41.4637
-39.6656
-40.4349
-40.398
-40.8917
-41.6212
-40.8119
-41.7183
-40.4258
-39.0721
-39.2593
-40.0264
-37.5884
-38.0166
-38.2334
-38.2178
-36.3403
-36.7038
-36.4606
-36.4748
-47.059
-45.078
-45.1298
-46.6402
-68.3323
-82.1236
-83.7078
-71.6749
10.1746
2.5575
6.33982
6.40095
-92.6828
-124.902
-136.281
-136.181
-65.1608
-71.2823
-67.4417
-67.5026
-52.8497
-44.2087
-46.7553
-46.7351
-40.0633
-40.9207
-40.6397
-40.2857
-37.6355
-38.0982
-38.1097
-37.8099
-34.1479
-34.463
-33.318
-32.7017
-42.5159
-43.1485
-42.1767
-43.8563
-40.5528
-41.2981
-41.479
-40.5557
-40.3312
-39.2599
-39.2351
-39.8223
-46.8154
-44.9793
-46.5103
-45.0857
-70.6122
-82.5208
-71.8993
-85.2151
-91.6325
-75.7764
-75.2632
-64.7037
-30.6077
-34.7259
-34.7904
-31.2982
-34.0973
-35.3448
-33.9206
-33.3826
-80.2428
-63.5341
-66.823
-56.0462
-90.7629
-75.0737
-74.607
-64.1109
-79.8266
-63.2939
-66.4487
-55.9291
-34.0065
-34.9636
-33.9485
-33.476
-31.2338
-36.1586
-35.1248
-31.6443
-129.251
-95.9824
-99.4023
-80.6273
-128.377
-95.4233
-99.0734
-80.3191
-46.0746
-48.624
-49.7998
-49.7824
-46.3328
-49.0396
-49.7285
-49.9476
-66.9346
-52.4195
-54.7092
-41.936
-4.83052
2.47072
-4.54257
2.23909
-4.44032
2.91239
-4.27677
2.48633
-66.7825
-52.2354
-54.5862
-41.7673
194.042
200.26
199.656
199.77
168.598
146.968
192.565
198.003
148.435
169.016
197.925
192.405
200.199
193.869
200.066
199.678
-40.0388
-39.7456
-40.8842
-40.9692
-39.4593
-39.4948
-40.0145
-40.0785
-42.9067
-44.0328
-42.7819
-43.8613
-47.3639
-49.3732
-46.3354
-47.5789
-39.963
-39.8953
-40.7761
-40.9341
-47.2437
-49.3238
-46.198
-47.4769
-42.6766
-43.9185
-42.6004
-43.7028
-39.1001
-39.1166
-39.6845
-39.7787
-39.2463
-40.6013
-38.9846
-40.0497
-40.4635
-39.1752
-39.9587
-38.903
-37.306
-37.8157
-38.1088
-37.6789
-37.7526
-37.2761
-37.6981
-38.0657
-125.777
-42.3039
-118.863
-132.596
-57.2682
-59.5848
-63.9564
-64.6426
-59.7808
-57.8876
-64.8252
-64.3233
-42.6572
-116.979
-132.892
-119.469
-38.238
-39.5298
-38.0463
-38.7422
-37.5565
-35.8894
-36.6857
-35.9202
-38.3232
-39.0362
-38.7281
-39.1481
-41.5071
-41.6593
-40.4898
-40.7587
-38.2451
-39.4944
-38.2036
-38.772
-41.3457
-41.219
-40.6632
-40.5021
-39.8601
-38.9132
-38.7887
-38.3187
-38.7524
-36.328
-37.4565
-36.9453
-36.1365
-36.1398
-36.4738
-36.3605
-36.2802
-36.2516
-36.6189
-36.4475
-36.8664
-39.5414
-37.3347
-40.6165
-37.6913
-40.5963
-38.0308
-40.5221
-49.1476
-55.7052
-45.7506
-47.58
-42.026
-42.815
-42.7433
-43.3787
-42.0293
-42.8075
-42.7256
-43.3543
-49.047
-55.9508
-45.6372
-47.5385
-35.8364
-34.1337
-34.0995
-33.1087
-33.9075
-35.3954
-32.9692
-33.8967
-37.12
-37.3931
-35.5422
-35.7824
-37.2689
-37.4205
-37.0183
-35.7151
-137.087
157.387
-38.5078
140.513
-128.53
-113.404
-47.9853
-38.4185
-37.679
-37.1358
-39.833
-51.0842
-147.894
95.8316
-136.152
24.9933
-91.1804
-91.4289
-46.0878
-38.3694
-39.8144
-37.6671
-43.8265
-42.3966
-38.852
142.329
-138.4
156.11
-126.897
-113.718
-36.2194
-36.4803
-45.3992
-37.7825
-44.1312
-46.0216
-136.04
24.0369
-147.535
94.5505
-90.9058
-91.367
-39.8237
-37.7688
-46.5529
-38.2608
-43.6896
-42.1668
-40.3213
-33.7272
-38.1019
-39.934
-38.251
-37.5213
-44.1327
-44.2681
-40.1217
-43.8852
-38.3964
-36.3432
-38.5422
-38.4052
-36.7374
-35.4199
-37.8732
-25.2011
-43.5391
-49.4087
-53.3766
-67.5203
-14.1733
-46.7457
-45.5545
-48.0105
-44.0906
-42.8621
-45.7505
-48.6999
-51.2747
-50.9448
-36.1685
-29.7675
-43.8507
-44.4664
-38.4386
-40.2061
-35.2977
-37.5757
-40.7501
-47.9436
-37.2415
-36.5747
-37.8969
-36.0686
-37.5013
-39.4294
-37.5865
-24.0427
-13.2708
-43.5088
-43.3363
-49.3446
-53.5267
-68.4488
-45.2602
-48.1945
-51.1224
-51.4354
-43.9557
-42.9866
-45.5628
-48.5392
-177.595
161.817
-179.015
160.186
-122.268
-117.38
184.55
181.254
-41.9156
121.874
-42.1067
121.776
-114.062
-114.01
183.969
184.103
-54.893
-60.5659
-42.2606
-47.5792
-51.2796
-43.0069
-59.4303
-49.7308
-46.2505
-37.4719
-46.2042
-37.4992
-40.8719
-40.9408
-36.2658
-36.4175
-30.2492
-27.5344
-29.2308
-27.7516
-31.0165
-31.5204
-28.1705
-27.8479
-35.6235
-32.4888
-36.7265
-34.7005
-37.1008
-37.0961
-36.9513
-40.5651
-109.342
17.9909
-109.289
16.7815
-73.7942
-73.6904
92.0506
93.9037
-44.8126
-37.3405
-31.6309
-19.4041
-36.5192
-42.6654
-28.7468
-18.2055
-41.8835
-39.4451
-41.9319
-39.4383
-42.1139
-42.1273
-36.889
-37.3133
-43.0483
-44.5655
-43.7022
-50.0542
-39.5361
-40.9781
-45.8404
-44.6078
-178.06
161.603
-178.445
159.332
-121.378
-116.636
181.472
183.669
-54.2666
-60.1503
-41.9573
-48.5286
-50.7682
-42.9209
-59.0388
-49.9486
-47.9773
-36.7775
-47.5283
-37.2407
-41.9228
-41.9253
-36.014
-36.3786
-31.0993
-39.4422
-37.1008
-35.1526
-37.9022
-35.1286
-37.0898
-39.7299
-44.7678
-37.184
-31.7392
-19.0543
-42.6777
-36.5542
-17.9582
-28.5448
-42.8037
-44.5734
-43.9841
-50.2477
-41.4962
-39.643
-44.5896
-45.7917
-39.8068
-37.4491
-39.305
-37.0217
-40.2181
-39.8357
-37.5706
-37.377
-38.1811
-39.0387
-38.5598
-42.2559
-37.171
-36.7957
-40.8717
-42.5241
-47.9389
-45.4197
-47.7682
-45.2842
-49.8489
-49.9533
-43.4342
-43.3644
-39.688
-39.3121
-41.2262
-40.7852
-40.1947
-41.0072
-40.3672
-40.8034
-36.8313
-36.7637
-36.8759
-36.8043
-36.9044
-36.8926
-36.2753
-36.3006
-52.5561
-59.9395
-48.875
-52.789
-47.2528
-49.4496
-64.7229
-58.8876
22.4485
62.2461
22.7327
62.5516
13.3231
13.4299
33.5296
33.385
-60.3736
-57.9638
-60.4343
-57.9642
-62.6278
-62.6629
-56.1582
-56.1468
-39.5564
-36.8191
-38.9496
-36.5777
-39.8089
-39.5409
-37.7059
-37.2971
-35.9952
-38.8785
-37.9693
-41.9591
-35.8253
-35.9559
-40.8229
-42.3914
-39.2936
-39.6541
-41.0062
-40.7378
-40.7253
-39.8421
-40.4467
-40.8516
-52.5496
-60.0025
-48.958
-53.5511
-49.5159
-47.7399
-59.2406
-65.6833
-55.5756
-52.6815
-50.6898
-41.4104
-39.3125
-46.2525
-37.3026
-36.7078
-55.4402
-52.6613
-50.4691
-41.4822
-46.3571
-39.47
-36.6722
-37.2875
-70.7536
-70.8368
-67.0405
-60.2009
-67.143
-60.1451
-56.9619
-56.9954
-29.7612
-29.7191
-22.4825
-9.67139
-9.56295
-22.3922
-3.08638
-3.02285
200.911
195.051
201.763
201.798
201.913
201.904
194.672