# vtk DataFile Version 2.0
tet_velo
ASCII
DATASET UNSTRUCTURED_GRID
POINTS 29498 float
-0.710469 0.215 -2.225
-0.617087 0.295 2.325
-0.71866 0.685 -2.105
-0.635 0.905 2.22155
0.702506 0.215 -2.225
0.605 0.295 2.32464
0.718654 0.685 -2.105
0.635 0.905 2.22152
-0.749003 0.172006 -0.708333
-0.73088 0.185668 0.808334
-0.803942 0.871502 -0.662817
-0.761817 0.930597 0.779367
0.739688 0.171982 -0.708453
0.720195 0.18564 0.808094
0.803954 0.871518 -0.662827
0.761756 0.930538 0.779347
-1.46983 -0.164905 -3.42617
-1.47095 -0.119244 -2.24269
-1.48923 -0.145408 -0.724102
-1.45457 -0.146273 0.809478
-1.36907 -0.0726432 2.32932
-1.3483 -0.0241523 3.51899
-1.35721 0.0112227 4.69721
-1.46712 0.132242 -3.39293
-1.47177 0.202884 -2.21758
-1.50187 0.195908 -0.713475
-1.44989 0.196039 0.797347
-1.3292 0.261147 2.30288
-1.31971 0.307717 3.4915
-1.34061 0.343405 4.67214
-1.46937 0.683407 -3.30556
-1.48502 0.752616 -2.12714
-1.53945 0.876578 -0.673806
-1.47659 0.915339 0.774262
-1.34585 0.913514 2.22903
-1.32699 0.957719 3.42078
-1.34251 1.00255 4.61346
-1.46861 1.63376 -3.23044
-1.47963 1.71888 -2.06316
-1.50021 1.85296 -0.633976
-1.49117 1.93912 0.779174
-1.44949 1.96704 2.20915
-1.41769 1.98775 3.37809
-1.40075 2.01911 4.56265
-0.73141 -0.159465 -3.43099
-0.722818 -0.110587 -2.24972
-0.745395 -0.157351 -0.723209
-0.741698 -0.153861 0.818816
-0.685174 -0.0553063 2.34569
-0.665998 -0.0123214 3.53007
-0.670082 0.0168024 4.7036
-0.727609 0.130239 -3.39443
-0.637226 0.319765 3.50064
-0.654825 0.348398 4.67695
-0.726261 0.655501 -3.29637
-0.640725 0.957333 3.41925
-0.654056 1.00301 4.61309
-0.719581 1.61563 -3.22136
-0.724783 1.70226 -2.05316
-0.748715 1.85038 -0.627958
-0.760064 1.94395 0.778415
-0.740689 1.96794 2.20393
-0.71547 1.98649 3.37287
-0.699062 2.01791 4.55884
0.721747 -0.159469 -3.43102
0.722328 -0.110593 -2.24976
0.733401 -0.157372 -0.723324
0.696411 -0.153885 0.818605
0.623062 -0.0553159 2.34541
0.653656 -0.0123314 3.52985
0.681358 0.0167896 4.70342
0.718608 0.130237 -3.39444
0.658412 0.319758 3.50042
0.687297 0.348386 4.67678
0.731223 0.6555 -3.29638
0.671679 0.957325 3.41913
0.695286 1.003 4.61296
0.771816 1.61562 -3.22139
0.779194 1.70226 -2.05319
0.766151 1.85037 -0.627997
0.721437 1.94392 0.778362
0.684245 1.96792 2.20387
0.685582 1.98648 3.37279
0.698348 2.01789 4.55874
1.45636 -0.164916 -3.42624
1.45995 -0.119259 -2.24278
1.47423 -0.145445 -0.724301
1.42624 -0.146321 0.809133
1.33614 -0.0726718 2.32888
1.34066 -0.0241774 3.51859
1.36793 0.0111946 4.69687
1.45474 0.132236 -3.39298
1.45784 0.202879 -2.21763
1.49134 0.195874 -0.713645
1.44493 0.195984 0.797025
1.32889 0.261124 2.30245
1.33818 0.307695 3.49112
1.36992 0.343378 4.67182
1.47168 0.683404 -3.30559
1.48305 0.752618 -2.12717
1.53932 0.876566 -0.673882
1.48111 0.915269 0.774119
1.35571 0.913485 2.22883
1.35475 0.957695 3.42053
1.38049 1.00252 4.6132
1.51467 1.63375 -3.23051
1.52425 1.71887 -2.06323
1.51558 1.85293 -0.634065
1.46464 1.93907 0.779056
1.40959 1.967 2.20901
1.39683 1.98771 3.37792
1.40341 2.01907 4.56245
-0.748583 0.45 -2.19902
-0.0039815 0.222482 -2.21752
-0.739387 0.183852 -1.46667
-0.671069 0.6 2.3183
-0.00604349 0.301882 2.31794
-0.678155 0.236162 1.56667
-3.01003e-06 0.784876 -2.20488
-0.807408 0.824358 -1.38391
0 0.993846 2.31038
-0.732572 0.951962 1.50046
0.742836 0.45 -2.19726
0.730767 0.183821 -1.46673
0.664331 0.6 2.31741
0.667297 0.235621 1.56637
0.807403 0.824358 -1.38391
0.73254 0.951931 1.50043
-0.742979 0.175799 0.0500001
-0.864351 0.521754 -0.685575
-0.00465723 0.160698 -0.708393
-0.861437 0.558132 0.79385
-0.00534238 0.181625 0.808214
-0.785676 0.903846 0.058275
5.77467e-06 1.10394 -0.662822
-3.07011e-05 1.34536 0.779357
0.732983 0.17577 0.0498201
0.864313 0.52175 -0.68564
0.861459 0.558089 0.79372
0.785683 0.903856 0.05826
-0.882126 0.485877 -1.42529
-0.866116 0.539943 0.0541375
-0.88303 0.579066 1.53356
-0.00431937 0.181057 -1.4667
-0.0049998 0.168635 0.0499101
-0.00569293 0.224784 1.56652
-0.00199226 0.45 -2.4339
-0.00302175 0.6 2.4453
1.38232e-06 0.950024 -1.38391
-1.24632e-05 1.34378 0.0582675
-1.53505e-05 1.18264 1.50045
0.884931 0.485875 -1.42532
0.86617 0.53992 0.05404
0.887256 0.579044 1.5334
-1.09112 0.208942 -2.22129
-0.716643 0.0522066 -2.23736
-0.719039 0.17262 -2.80971
-0.973146 0.278074 2.31394
-0.65113 0.119847 2.33535
-0.627156 0.307383 2.91282
-1.10184 0.718808 -2.11607
-0.72246 0.67025 -2.70068
-0.721722 1.19363 -2.07908
-0.990423 0.909257 2.22529
-0.637862 0.931166 2.8204
-0.687844 1.43647 2.21274
0.712417 0.0522035 -2.23738
0.710557 0.172618 -2.80972
1.08017 0.208939 -2.22132
0.614031 0.119842 2.33502
0.631706 0.307379 2.91253
0.966943 0.278062 2.31354
0.724938 0.67025 -2.70069
0.748924 1.19363 -2.07909
1.10085 0.718809 -2.11608
0.65334 0.931163 2.82033
0.659623 1.43646 2.21269
0.995353 0.909243 2.22518
-1.12544 0.183957 -0.710904
-0.747199 0.00732715 -0.715771
-1.09039 0.190853 0.80284
-0.736289 0.0159035 0.813575
-1.1717 0.87404 -0.668312
-0.776329 1.36094 -0.645387
-1.1192 0.922968 0.776814
-0.76094 1.43727 0.778891
0.736545 0.00730529 -0.715889
1.11551 0.183928 -0.711049
0.708303 0.0158777 0.813349
1.08256 0.190812 0.802559
0.785052 1.36094 -0.645412
1.17164 0.874042 -0.668354
0.741596 1.43723 0.778855
1.12143 0.922903 0.776733
-1.47039 -0.142075 -2.83443
-1.46848 -0.0163314 -3.40955
-1.10062 -0.162185 -3.42858
-1.48009 -0.132326 -1.48339
-1.47136 0.0418199 -2.23013
-1.09689 -0.114916 -2.24621
-1.4719 -0.145841 0.042688
-1.49555 0.0252497 -0.718788
-1.11731 -0.15138 -0.723656
-1.41182 -0.109458 1.5694
-1.45223 0.0248826 0.803412
-1.09814 -0.150067 0.814147
-1.35868 -0.0483977 2.92416
-1.34914 0.0942521 2.3161
-1.02712 -0.0639747 2.33751
-1.35275 -0.00646482 4.1081
-1.334 0.141782 3.50525
-1.00715 -0.0182368 3.52453
-1.34891 0.177314 4.68468
-1.01365 0.0140125 4.7004
-1.46944 0.167563 -2.80526
-1.46825 0.407825 -3.34924
-1.09736 0.131241 -3.39368
-1.48682 0.199396 -1.46553
-1.47839 0.47775 -2.17236
-1.47588 0.195973 0.0419358
-1.52066 0.536243 -0.693641
-1.38955 0.228593 1.55011
-1.46324 0.555689 0.785804
-1.32446 0.284432 2.89719
-1.33753 0.587331 2.26596
-1.33016 0.325561 4.08182
-1.32335 0.632718 3.45614
-0.978468 0.313741 3.49607
-1.34156 0.672975 4.6428
-0.997718 0.345901 4.67455
-1.4772 0.718012 -2.71635
-1.46899 1.15859 -3.268
-1.09782 0.669454 -3.30096
-1.51224 0.814597 -1.40047
-1.48232 1.23575 -2.09515
-1.50802 0.895959 0.0502278
-1.51983 1.36477 -0.653891
-1.41122 0.914427 1.50165
-1.48388 1.42723 0.776718
-1.33642 0.935616 2.8249
-1.39767 1.44028 2.21909
-1.33475 0.980132 4.01712
-1.37234 1.47274 3.39944
-0.98386 0.957526 3.42002
-1.37163 1.51083 4.58806
-0.998285 1.00278 4.61328
-1.47412 1.67632 -2.6468
-1.0941 1.62469 -3.2259
-1.48992 1.78592 -1.34857
-1.1022 1.71057 -2.05816
-1.49569 1.89604 0.0725987
-1.12446 1.85167 -0.630967
-1.47033 1.95308 1.49416
-1.12562 1.94153 0.778794
-1.43359 1.9774 2.79362
-1.09509 1.96749 2.20654
-1.40922 2.00343 3.97037
-1.06658 1.98712 3.37548
-1.0499 2.01851 4.56074
-0.727114 -0.135026 -2.84036
-0.72951 -0.0146129 -3.41271
-0.00483164 -0.159467 -3.43101
-0.734106 -0.133969 -1.48647
-0.000244723 -0.11059 -2.24974
-0.743547 -0.155606 0.0478034
-0.00599696 -0.157362 -0.723267
-0.713436 -0.104583 1.58225
-0.0226435 -0.153873 0.81871
-0.675586 -0.0338138 2.93788
-0.0310559 -0.0553111 2.34555
-0.66804 0.00224052 4.11684
-0.651612 0.153722 3.51536
-0.00617095 -0.0123264 3.52996
-0.662454 0.1826 4.69027
0.00563782 0.016796 4.70351
-0.726935 0.39287 -3.3454
-0.00450076 0.130238 -3.39443
-0.646025 0.334082 4.0888
-0.638975 0.638549 3.45995
0.0105933 0.319762 3.50053
-0.654441 0.675705 4.64502
0.0162358 0.348392 4.67686
-0.722921 1.13556 -3.25886
0.00248121 0.6555 -3.29637
-0.64739 0.980172 4.01617
-0.678097 1.47191 3.39606
0.0154773 0.957329 3.41919
-0.676559 1.51046 4.58597
0.0206149 1.003 4.61302
-0.722182 1.65894 -2.63726
0.0261175 1.61562 -3.22137
-0.736749 1.77632 -1.34056
0.0272052 1.70226 -2.05317
-0.754389 1.89716 0.0752286
0.00871791 1.85038 -0.627977
-0.750376 1.95594 1.49117
-0.0193134 1.94393 0.778389
-0.728079 1.97722 2.7884
-0.0282217 1.96793 2.2039
-0.707266 2.0022 3.96586
-0.014944 1.98649 3.37283
-0.000357045 2.0179 4.55879
0.722038 -0.135031 -2.84039
0.720177 -0.0146162 -3.41273
1.08905 -0.162193 -3.42863
0.727865 -0.133982 -1.48654
1.09114 -0.114926 -2.24627
0.714906 -0.155628 0.0476404
1.10381 -0.151408 -0.723812
0.659736 -0.1046 1.58201
1.06132 -0.150103 0.813869
0.638359 -0.0338237 2.93763
0.979602 -0.0639939 2.33714
0.667507 0.00222913 4.11663
0.656034 0.153713 3.51513
0.997159 -0.0182544 3.52422
0.684328 0.182588 4.6901
1.02465 0.0139921 4.70014
0.724915 0.392868 -3.34541
1.08668 0.131236 -3.39371
0.672855 0.334072 4.0886
0.665046 0.638542 3.45978
0.998298 0.313727 3.49577
0.691292 0.675693 4.64487
1.02861 0.345882 4.6743
0.75152 1.13556 -3.25888
1.10145 0.669452 -3.30099
0.683483 0.980162 4.01605
0.67863 1.4719 3.39596
1.01322 0.95751 3.41983
0.696817 1.51044 4.58585
1.03789 1.00276 4.61308
0.775505 1.65894 -2.63729
1.14324 1.62469 -3.22595
0.772672 1.77631 -1.34059
1.15172 1.71056 -2.05821
0.743794 1.89715 0.0751826
1.14086 1.85165 -0.631031
0.702841 1.95592 1.49111
1.09304 1.9415 0.778709
0.684914 1.9772 2.78833
1.04692 1.96746 2.20644
0.691965 2.00218 3.96576
1.04121 1.9871 3.37535
1.05088 2.01848 4.56059
1.45816 -0.142087 -2.83451
1.45555 -0.0163403 -3.40961
1.46709 -0.132352 -1.48354
1.45889 0.04181 -2.23021
1.45023 -0.145883 0.0424162
1.48278 0.0252145 -0.718973
1.38119 -0.109496 1.56901
1.43558 0.0248319 0.803079
1.3384 -0.0484246 2.92374
1.33251 0.0942262 2.31567
1.3543 -0.0064914 4.10773
1.33942 0.141759 3.50486
1.36893 0.177286 4.68434
1.45629 0.167557 -2.80531
1.46321 0.40782 -3.34929
1.47459 0.199376 -1.46564
1.47044 0.477748 -2.1724
1.46813 0.195929 0.0416899
1.51533 0.53622 -0.693763
1.38691 0.228554 1.54974
1.46302 0.555627 0.785572
1.33354 0.28441 2.89678
1.3423 0.587305 2.26564
1.35405 0.325537 4.08147
1.34647 0.632695 3.45582
1.37521 0.672948 4.64251
1.47737 0.718011 -2.71638
1.49317 1.15858 -3.26805
[...]
POINT_DATA 29498
VECTORS point_vectors float
-3.33492 -6.56187 8.57009
0.056918 0.371271 1.06785
-1.53255 0.932284 2.56484
-0.0766072 -0.184102 0.274593
6.09602 -8.57846 10.614
-0.0575577 0.185843 0.621782
1.55021 0.899765 2.59683
0.0752803 -0.184893 0.275393
8.68597e-05 2.04251e-05 0.00279084
0.000401798 7.71949e-05 0.00502594
0 0 0
0 0 0
-8.1169e-18 2.05962e-18 2.88031e-16
-0.00104275 0.00112309 0.0339927
0 0 0
0 0 0
-0.524801 -0.253752 19.8151
-1.29719 -0.754086 20.4333
-0.436559 -0.390141 21.3706
0.162551 -0.065481 21.5283
0.814398 0.321563 21.3595
0.952515 0.443752 21.1085
0.897689 0.161037 20.9899
-0.64606 -0.1739 19.7088
-1.78881 -0.619501 20.3684
-0.577569 -0.452606 21.4226
0.15697 -0.224504 21.6157
1.11911 0.0885679 21.3191
1.38561 0.0163514 20.8775
1.12753 0.0188733 20.913
-0.734687 0.0711144 19.6392
-1.9901 0.203822 20.3637
-1.02697 -0.253328 21.3642
-0.162389 -0.340171 21.6828
0.778337 -0.604083 21.3404
1.04229 -0.607752 20.9444
0.808363 -0.563776 20.4252
-0.501829 0.35771 19.9023
-0.912575 0.64909 20.3725
-0.828894 0.407834 21.0891
-0.284144 -0.0146227 21.4496
0.132451 -0.342545 21.2891
0.228611 -0.41543 21.0403
0.215944 -0.287705 20.9218
-0.455967 -0.490943 19.3646
-1.89174 -3.4815 20.4161
-0.375906 -0.380874 21.5389
0.182992 0.308283 20.6253
0.579881 1.25039 18.535
0.88162 1.484 18.4897
1.10179 0.869241 16.4855
-0.635435 -0.376102 19.0703
1.66468 1.38087 10.6546
1.77368 1.04327 11.7493
-0.787643 0.137371 18.7384
1.2008 -0.731751 7.34822
1.10869 -0.229358 14.6993
-0.440889 0.694426 19.5087
-0.927803 1.62128 20.1794
-1.09341 1.37652 21.1157
-0.363844 0.202469 21.8353
0.0336169 -0.448107 21.37
0.0964243 -0.599393 21.2762
0.115983 -0.642396 20.0948
0.452581 -0.491031 19.3674
1.86488 -3.47968 20.3904
0.356013 -0.394986 21.5265
-0.155712 0.298675 20.1988
-0.449919 1.22162 18.0501
-0.853019 1.50462 18.4244
-1.10687 0.85965 16.664
0.635428 -0.373578 19.0637
-1.71442 1.42332 10.8982
-1.75427 1.00858 12.2529
0.788426 0.137577 18.7503
-1.36676 -0.773938 8.72248
-1.08691 -0.315312 15.2507
0.46475 0.666518 19.5385
0.981147 1.54996 20.1984
1.09577 1.34534 21.1211
0.368501 0.225068 21.8534
-0.0185856 -0.453448 21.3846
-0.0848756 -0.618278 21.2694
-0.11692 -0.644246 20.1036
0.523636 -0.255682 19.8106
1.31017 -0.775464 20.4273
0.434715 -0.395361 21.3782
-0.168446 -0.0654041 21.5421
-0.846183 0.356114 21.3806
-0.962646 0.45758 21.0817
-0.891545 0.146633 20.967
0.650045 -0.177514 19.6929
1.8342 -0.648869 20.3425
0.57402 -0.459829 21.4255
-0.153044 -0.226305 21.6117
-1.12944 0.0970494 21.313
-1.34819 0.00868794 20.9899
-1.10584 -0.01979 21.2322
0.73291 0.072959 19.6476
1.99892 0.213408 20.3566
1.023 -0.25219 21.3705
0.163344 -0.335646 21.683
-0.777185 -0.603522 21.3579
-1.03158 -0.582668 21.0047
-0.793556 -0.507236 20.5487
0.495975 0.347192 19.9206
0.899327 0.613818 20.383
0.817129 0.394777 21.0904
0.29205 -0.0112061 21.4632
-0.12729 -0.354294 21.2831
-0.217162 -0.416947 21.0163
-0.210061 -0.289965 20.912
-1.9439 -0.0253084 1.97552
-0.00053999 -0.0247919 0.111852
0.0192457 -0.000613001 0.558614
0.0037803 -0.038963 0.00237688
0.000834608 0.00980222 0.0525217
0.00219668 0.00322589 0.0865726
0.000193672 0.0538522 0.132359
-0.0892197 -0.0593862 0.355623
0.00594079 0.0640724 -0.202354
0 0 0
1.47369 -0.0314544 1.53188
-0.000628141 0.00221761 0.46756
0.00191407 -0.0348382 0.00316098
-0.00181709 0.00134518 0.0376385
0.0960947 -0.063953 0.375597
0 0 0
0 0 0
3.76569e-05 -0.000141099 0.00446867
3.49242e-06 -3.37724e-05 0.0123271
0 0 0
0.000162937 0.00121767 0.0578144
0 0 0
0.000817676 0.0113425 0.0254615
4.43489e-06 -0.00198297 0.0236932
0 0 0
-2.61959e-05 -9.44817e-05 0.00307679
5.03159e-19 2.27497e-17 1.41807e-16
0 0 0
0 0 0
-1.62902e-05 0.000846311 0.00955599
0 0 0
-1.02169e-07 1.50761e-07 -5.08959e-05
2.07104e-05 0.000145584 0.0548408
1.02823e-05 0.000195616 0.00457589
-0.00843003 -0.0142098 0.0160389
0.00396273 -0.0804234 -0.0247074
3.07923e-05 0.00192655 0.0181393
-1.94262e-06 0.00119794 0.00855056
5.12822e-05 0.000966343 -0.00290115
0 0 0
2.01496e-05 0.00101729 0.0110763
-0.000791904 0.00282296 0.0295525
-3.59939 -1.75271 20.0782
-3.02484 -5.64418 20.2997
-1.76575 -1.32306 18.0002
1.39755 0.820931 14.6719
0.426981 1.19064 11.7628
0.954668 0.762889 7.23996
-4.1059 0.850637 20.1981
-2.70126 0.888358 16.9075
-2.21214 2.97783 19.9754
1.11846 -0.440646 15.7893
-0.380819 -0.864447 3.65072
0.366902 -0.66635 17.6519
2.92648 -5.6956 20.1996
1.76373 -1.33616 17.9702
3.72184 -1.83204 20.0026
-0.302452 1.13186 11.2445
-0.979431 0.813144 7.37298
-1.3913 0.865732 14.3678
2.69319 0.870742 16.936
2.25032 2.85709 19.979
4.13168 0.891901 20.153
0.266745 -0.867111 4.27365
-0.374059 -0.646551 17.2346
-1.1272 -0.476067 16.0433
-0.374984 -0.573329 20.2205
0.0542883 -0.117615 16.7633
0.310459 -0.0856241 18.2206
0.468498 0.302931 14.8176
-1.64579 -0.735433 21.4443
-2.79732 1.71513 21.0732
-0.0949371 -0.434874 19.5961
-0.535039 -0.0128961 20.5634
-0.0142037 -0.12969 16.549
0.367843 -0.548813 20.0393
-0.397927 0.326043 14.3464
-0.319675 -0.0842797 17.9297
2.75536 1.66047 21.108
1.64441 -0.730287 21.4445
0.545186 0.0036695 20.4685
0.1133 -0.445617 19.6688
-0.932067 -0.493044 19.913
-0.594473 -0.223864 19.7769
-0.541401 -0.35109 19.611
-0.890419 -0.613692 21.1623
-1.56604 -0.731892 20.4132
-1.86424 -1.6711 20.3665
-0.113997 -0.220561 21.4572
-0.517833 -0.441806 21.3974
-0.334869 -0.472539 21.5497
0.478358 0.12069 21.514
0.158979 -0.151079 21.5725
0.27083 0.0591358 21.5796
0.959893 0.379715 21.0919
0.965468 0.240883 21.3802
0.977223 0.848178 20.7398
0.866619 0.367677 20.7281
1.18637 0.233084 21.0124
1.21585 1.03278 20.8462
1.0073 0.0908888 21.1317
1.09368 0.708723 21.0583
-1.1984 -0.363151 19.7483
-0.700158 -0.078533 19.6643
-0.690841 -0.27593 19.4259
-1.18724 -0.574891 21.2641
-2.00908 -0.243206 20.3629
-0.18596 -0.350162 21.532
-0.810641 -0.426889 21.3997
0.608741 -0.0760495 21.5465
0.0205968 -0.336395 21.6567
1.27019 0.127399 21.1141
1.08974 -0.313441 21.2352
0.973768 0.178645 20.947
1.3149 -0.294912 20.7459
1.73116 0.745011 17.4432
1.03617 -0.532762 20.2234
1.45982 0.541356 16.3305
-1.415 0.159526 19.6978
-0.66332 0.285643 19.7374
-0.85582 0.0988628 19.2351
-1.49696 -0.0537036 21.1507
-1.43186 0.641918 20.3341
-0.622082 -0.33309 21.5823
-1.10918 0.158376 21.2212
0.329883 -0.424948 21.6472
-0.305663 -0.169778 21.6013
0.912455 -0.633628 21.1785
0.321562 -0.515359 21.3553
0.887467 -0.558919 20.5705
0.457386 -0.606062 21.0632
1.48154 -0.917724 17.5344
0.372888 -0.3736 20.5737
0.972016 -0.912395 18.7996
-0.732756 0.534881 20.0568
-0.531497 0.524834 19.6994
-0.915751 0.560519 20.7762
-1.03113 1.09387 20.2778
-0.604713 0.199519 21.3754
-1.0443 0.77063 21.1421
-0.0259001 -0.210595 21.3844
-0.343129 0.0683671 21.6254
0.218872 -0.426368 21.1963
0.0978129 -0.426303 21.3206
0.352935 -0.494617 20.7387
0.240677 -0.60232 21.1116
0.19431 -0.468769 21.2687
-1.12102 -1.41067 19.0025
-0.553306 -0.454599 19.2171
-0.00186536 -0.658271 19.0959
-0.883608 -1.13573 21.9132
-0.0122303 -4.47511 20.9367
-0.0660021 -0.0207678 20.916
-0.0002021 -0.624044 20.9164
0.403612 0.750439 19.2786
0.00225445 0.137925 18.999
0.765799 1.40778 18.3036
0.0150578 0.896511 16.0629
0.589025 1.42521 19.3711
1.32697 1.66036 15.1213
0.0177807 1.75097 16.6935
1.43773 0.956257 14.1174
-0.0178298 1.34304 16.459
-0.722629 -0.172532 18.8836
-0.00841131 -0.520877 18.6402
1.92956 1.24179 11.593
2.02154 0.140595 6.77993
-0.0112726 0.879838 4.38203
1.67747 0.518438 11.1668
-0.062314 1.18243 10.5593
-0.666752 0.615292 19.0375
0.00452323 0.21957 18.0635
1.24168 -0.901879 8.98829
0.450341 -1.07004 18.9309
-0.120771 0.540366 -5.25591
0.27315 -1.01779 19.0651
-0.115079 -0.0233604 -0.506556
-0.732963 1.27679 19.6349
0.0167151 0.905544 19.312
-0.996544 1.46328 20.6818
0.0422327 2.2359 20.0608
-0.884017 0.937944 21.7458
0.0204192 2.32162 20.9702
-0.0608313 -0.259052 21.6065
-0.0170482 0.483585 22.102
0.0882292 -0.540787 21.2509
-0.00610357 -0.376879 21.4926
0.119569 -0.517533 21.3537
0.00205839 -0.571539 21.4834
0.00567949 -0.355508 21.5418
1.11467 -1.41617 19.0103
0.553675 -0.448778 19.2161
0.541054 -0.359568 19.6067
0.833142 -1.14674 21.9183
1.84363 -1.69676 20.3141
0.0647007 -0.0355464 20.6531
0.337018 -0.484555 21.5571
-0.336693 0.753143 19.1741
-0.275206 0.0902209 21.5181
-0.667286 1.41787 17.6832
-0.956361 0.944164 20.6341
-0.547496 1.44423 19.377
-1.3246 1.67426 15.1593
-1.20554 1.0526 20.7136
-1.43672 0.941665 14.458
-1.07543 0.706296 21.1922
0.72295 -0.173029 18.8777
0.693233 -0.281053 19.4071
-1.96504 1.19967 11.8116
-2.06143 0.10951 7.54787
-1.71137 0.690681 17.7272
-1.64929 0.446447 11.708
-1.42913 0.494672 16.7734
0.684822 0.590724 19.084
0.852082 0.0973143 19.2416
-1.2787 -0.908211 10.0746
-0.439779 -1.08341 18.9567
-1.42728 -0.921495 18.2716
-0.264058 -1.0039 19.1413
-0.941147 -0.968566 19.3385
0.770534 1.21044 19.6708
0.537049 0.500966 19.7178
1.0152 1.40988 20.6906
1.02792 1.03589 20.2943
0.882519 0.945044 21.7506
1.03558 0.742662 21.1469
0.0623035 -0.255334 21.5949
0.353869 0.082685 21.6321
-0.0646923 -0.537427 21.2845
-0.0888986 -0.429513 21.3323
-0.120038 -0.525967 21.3763
-0.237833 -0.603617 21.1442
-0.199215 -0.480951 21.256
0.935357 -0.498 19.9099
0.593043 -0.224797 19.7632
0.8972 -0.62988 21.1802
1.58394 -0.754621 20.395
0.111466 -0.229706 21.4635
0.51995 -0.448104 21.401
-0.494433 0.134222 21.5313
-0.165456 -0.152105 21.5798
-0.978959 0.409227 21.0772
-0.995702 0.255553 21.366
-0.868578 0.379551 20.714
-1.18159 0.2272 21.0072
-0.998695 0.0634217 21.0996
1.21409 -0.375586 19.7203
0.701969 -0.077917 19.6639
1.20347 -0.594631 21.2786
2.05587 -0.239709 20.3487
0.191058 -0.353002 21.5331
0.815506 -0.427363 21.409
-0.606203 -0.0744849 21.5501
-0.0140878 -0.336203 21.6551
-1.26531 0.122542 21.1168
-1.09768 -0.31289 21.2458
-0.935987 0.183963 20.9373
-1.28375 -0.315859 20.9438
-1.01285 -0.567416 20.633
1.41057 0.163115 19.703
0.65684 0.27749 19.7514
1.50523 -0.0514263 21.1591
1.39988 0.613468 20.345
0.616968 -0.32808 21.5837
1.09721 0.157275 21.2208
-0.328515 -0.420394 21.6556
0.310449 -0.170096 21.6128
-0.911147 -0.622941 21.1697
-0.322773 -0.526454 21.3579
-0.814362 -0.505077 20.6781
-0.467867 -0.607007 21.0793
-0.365357 -0.354775 20.5916
0.723713 0.507153 20.0738
0.904246 0.535626 20.7801
0.608221 0.201992 21.3743
0.0274756 -0.212476 21.4115
-0.210075 -0.424776 21.1892
-0.332778 -0.526571 20.75
-1.08326 -0.459864 19.8325
-1.39758 -1.49063 18.5412
-1.14545 -0.869093 19.5408
-1.62229 -0.709852 19.1041
-0.630222 -0.330475 19.5197
-2.55348 -1.8543 20.2564
-1.04367 -0.626715 21.2148
-0.62772 -0.433813 17.9576
-0.912564 -0.987048 21.5213
-1.37531 -1.25441 21.7773
-0.322148 -0.55821 21.4472
-0.149236 -0.295751 21.4968
0.267635 0.0834587 15.2039
-0.00960585 -0.195712 21.5775
0.0367697 -0.279221 19.0151
0.361108 -0.000579323 20.653
0.561388 0.0401252 21.5666
0.449566 0.685017 12.7496
0.63821 0.44864 21.2603
0.79131 0.236743 16.0354
1.28904 0.896129 18.7934
1.13943 0.256287 21.0875
0.868526 1.5213 13.4278
1.16275 0.88656 20.8667
1.69471 0.76166 16.2215
1.4732 0.974312 18.8727
0.898731 0.287275 20.8968
1.23185 1.35138 15.6092
0.876486 0.5786 21.6176
1.54509 0.251363 19.4472
1.27675 0.625039 18.6944
-1.3624 -0.157262 19.7084
-2.42061 -0.525404 17.0931
-2.09935 0.359096 18.8843
-0.809654 -0.1078 19.2806
-4.46648 -0.475781 20.0503
-1.39738 -0.361011 21.2536
-2.27804 -0.190016 21.7092
-0.686302 -0.823096 20.4559
-0.376203 -0.416807 21.5917
-0.904208 -0.844695 20.6922
0.171362 -0.101285 17.6732
0.521735 -0.291032 21.5498
0.689778 -0.0632135 17.8297
1.39282 0.0317754 12.8361
1.2569 -0.34739 21.0183
0.613229 -0.422312 2.906
1.14808 -0.72621 17.0774
1.95688 -0.191507 15.3497
1.17545 -0.29034 20.2538
2.18321 0.671972 9.58862
1.47111 -0.906506 18.0393
1.36279 -0.0120477 15.6808
-1.088 0.499656 19.8648
-1.45885 1.7248 18.748
-0.841036 0.898112 19.8528
-0.744115 0.443784 19.4223
-1.99699 1.40326 20.1932
-1.309 0.401611 20.9043
-2.06368 1.84317 20.897
-1.06136 0.951555 20.7613
-1.7535 0.469741 21.3124
-0.761024 -0.0239618 21.5142
-2.34084 0.693597 21.9557
-0.787993 0.473366 21.5314
-0.479181 -0.154725 21.9125
0.0771927 -0.345753 21.5401
0.297093 -0.489607 19.1914
-0.0489673 -0.240089 21.5133
0.2582 -0.724508 21.288
0.431525 -0.613833 21.2229
0.319658 -0.79783 18.3975
0.161318 -0.509687 21.2252
0.498173 -0.939334 20.9681
0.462549 -0.694819 20.9948
0.360228 -1.08715 19.5492
0.149666 -0.444244 21.0484
0.323019 -0.695694 19.8194
1.39347 -1.49346 18.5286
-0.00338479 -2.1764 18.3217
-0.0139835 -2.41016 16.2657
-0.00716079 -0.601899 18.8367
-0.0237549 -6.61361 22.6543
0.672927 -0.438046 17.8616
-0.00528991 -1.58641 22.2191
0.00856835 -0.223212 13.4438
-0.238787 0.0738008 14.8079
0.00102295 -0.207178 19.6265
0.00946778 0.172635 11.3917
-0.395747 0.638691 12.2355
0.0134767 0.513808 17.2726
0.024092 0.588676 7.98066
-0.772159 1.50902 13.0837
0.0231724 1.05922 16.2564
0.0190925 0.0535027 2.53114
0.00716488 1.49099 10.5992
-1.22652 1.33927 15.7201
0.0147807 1.93932 17.3193
-0.102601 1.62397 6.51977
-0.0400719 1.26274 13.5091
2.41302 -0.531381 17.084
0.0207898 2.03339 14.0191
-0.000917606 -0.257896 18.2104
-0.749255 -0.398524 3.28795
-0.0333307 1.37256 -4.96943
-0.107855 0.308319 -3.09252
-2.18524 0.623478 10.4854
-0.123157 -0.353167 -3.68216
-0.0819456 0.810598 5.23427
1.46848 1.66032 18.8002
0.0259101 1.714 19.4079
0.0163525 0.824473 18.6409
0.0395281 4.3207 19.8243
2.07303 1.79581 20.9092
0.0342828 2.09403 20.5529
0.0304592 4.2432 19.8733
2.3171 0.65918 21.8877
-0.00653144 1.79071 22.0119
-0.00767844 0.229858 18.011
-0.350636 -0.46968 18.6521
-0.0120031 -0.185668 21.7327
0.00310372 -0.354753 11.3671
-0.311773 -0.804685 18.3314
-0.00128161 -0.449078 21.2555
0.0137929 -0.94488 13.8798
-0.351016 -1.08273 19.597
0.00203331 -0.604886 21.3469
0.000465167 -1.12496 17.7791
1.0804 -0.467536 19.8194
1.14408 -0.880042 19.5313
1.63167 -0.718682 19.0718
0.634227 -0.338683 19.5047
2.5848 -1.90814 20.2061
1.05172 -0.631676 21.233
0.917282 -1.01142 21.5443
1.39266 -1.26113 21.8293
0.332201 -0.553768 21.3892
0.14604 -0.29775 21.5054
0.0106104 -0.192217 21.5578
-0.0357703 -0.258871 18.7582
-0.368695 0.0236017 20.4161
-0.571346 0.0483118 21.5827
-0.625274 0.508255 21.1545
-0.764841 0.239477 15.7626
-1.25251 0.99888 18.1769
-1.14937 0.269604 21.0788
-1.13412 0.975826 20.6996
-1.7205 0.758787 16.3471
-1.46346 0.965482 18.9122
-0.895755 0.290429 20.8389
-0.855985 0.602673 21.5874
-1.51447 0.178697 20.0559
-1.25228 0.600484 18.9828
1.38056 -0.158271 19.6914
2.0887 0.354044 18.8869
0.807027 -0.109371 19.2729
4.56587 -0.465778 19.9676
1.4182 -0.362341 21.2677
2.26977 -0.177555 21.7265
0.677187 -0.827595 20.2919
0.384291 -0.417161 21.6006
0.898539 -0.835543 20.7219
-0.165066 -0.102686 17.5675
-0.517107 -0.290382 21.5611
-0.675804 -0.0856341 17.9495
-1.4097 0.0165202 12.7869
-1.23911 -0.348571 21.0384
-1.15882 -0.760844 17.7212
-1.92338 -0.184137 15.9764
-1.12815 -0.290615 20.3092
-1.44714 -0.930035 18.7778
-1.33011 -0.065844 16.1885
1.07459 0.485857 19.8824
0.842065 0.854201 19.8785
0.746311 0.430708 19.4383
1.97077 1.34583 20.2006
1.28949 0.392316 20.9072
1.05138 0.912396 20.7678
1.72761 0.461133 21.3127
0.758349 -0.0219178 21.5157
0.790649 0.478821 21.5356
0.49252 -0.153404 21.9233
-0.0790469 -0.350437 21.5476
0.0520208 -0.244036 21.5147
-0.250019 -0.740566 21.2506
-0.43324 -0.625115 21.2027
-0.153009 -0.534611 21.2297
-0.502938 -0.937442 20.995
-0.491108 -0.695937 21.0195
-0.137824 -0.453224 21.0795
-0.314707 -0.67934 19.8665
-1.39657 -0.889799 19.3401
-1.04298 -1.12908 21.7264
0.0490693 -0.246256 20.9829
0.822678 0.416581 19.5943
1.40379 0.973781 18.7284
1.20507 0.421127 20.4791
-1.99097 -0.228102 18.8608
-1.87906 -0.772927 21.9711
-0.125132 -0.540074 18.7306
0.614535 0.197731 15.8859
1.61106 -0.186154 14.7436
1.72953 -0.301897 18.2334
-1.46081 0.991854 19.4084
-1.81166 0.86117 20.9752
-1.27367 0.124877 21.8381
0.0566471 -0.477586 21.7238
0.38408 -0.837839 21.1587
0.380119 -0.878352 20.7795
-0.0106347 -2.42968 17.5391
0.0049461 -0.750089 15.0432
0.00559511 -0.0203738 11.7828
0.0153798 0.392003 9.36114
0.0270982 0.977591 9.33997
-0.0365656 1.78762 12.0333
0.00335093 -0.885511 14.6793
-0.0386411 0.234578 -2.97417
-0.120546 0.892263 -0.554962
0.0375512 2.71882 17.9747
0.0286041 3.09029 20.6376
0.00433645 3.02685 20.3683
0.00247763 -0.463176 13.5946
0.0136778 -0.0835586 12.1558
0.0247653 -0.69818 14.6066
1.40638 -0.904068 19.317
1.06544 -1.15211 21.765
-0.0417341 -0.231823 20.8262
-0.80932 0.452732 19.0959
-1.39548 1.02198 18.5701
-1.17818 0.3966 20.7717
1.98889 -0.231787 18.8411
1.89015 -0.780757 21.9743
0.123026 -0.535509 18.5786
-0.598443 0.208355 15.857
-1.6303 -0.194919 15.1179
-1.71107 -0.32231 18.8332
1.45141 0.961176 19.4336
1.7879 0.828919 20.9802
1.26895 0.126202 21.8399
-0.0548522 -0.486959 21.7202
-0.387029 -0.851849 21.1608
-0.359506 -0.86023 20.8708
0 0 0
-0.0956131 -0.446884 0.728498
-0.055575 0.00482976 0.83508
0.00345196 -0.0324813 0.00155788
-0.00327322 0.0126046 0.0630204
-6.30951e-05 0.00287562 0.0228943
-1.22012 0.241506 1.61386
-0.00552696 0.0828511 0.190983
-0.127348 0.0240121 0.458029
-0.0111446 -0.0134669 0.000835899
-0.136061 0.0127575 -0.0836895
-0.00963015 -0.0310206 0.150163
0.167485 -1.09264 1.06146
0 0 0
0.0705379 0.00738587 0.708353
0.00373374 0.0123343 0.0612734
-0.00626601 -0.0357315 0.00445357
0.000119561 0.000696985 0.00533169
0.00300047 0.0989047 0.224731
1.04973 0.19428 1.41101
0.129723 0.0254181 0.468033
0.143904 0.00668982 -0.0738305
0.0132548 -0.0178166 0.00134767
0.0121436 -0.0304102 0.143504
0.0222808 -0.0540419 0.475612
0 0 0
0.000241365 -0.000487314 0.103018
0 0 0
0.000828032 0.00572756 0.0892991
0 0 0
-0.00447516 -0.00235903 0.221686
0 0 0
-0.0821631 -0.0593521 0.298736
-0.00213968 -0.00766627 0.165651
0 0 0
-0.0372735 0.0251527 0.0663629
0 0 0
0.000777231 0.00297528 0.0105859
0 0 0
0.0499589 0.00250273 0.219006
-0.00779883 -0.0456588 0.432674
0 0 0
-6.4505e-18 1.17141e-18 1.94697e-16
-0.000232846 -9.62328e-05 0.146712
-0.00274557 0.00891696 0.125366
0 0 0
-0.000888559 0.000359647 0.0120752
0.00385951 -0.00336593 0.190473
0.0838898 -0.0596642 0.30738
0.0362304 0.0237379 0.0631346
0.00227944 -0.00867579 0.163491
0 0 0
0 0 0
-0.0238173 0.000736362 0.106413
-0.000740197 0.00283883 0.0102342
0 0 0
-0.00916634 -0.014475 0.179088
-0.299836 -0.353376 0.280488
-0.000127718 -0.00359307 0.0652844
0 0 0
0 0 0
4.66824e-08 1.96658e-07 -3.34077e-05
0.000514508 -0.000171437 0.00305084
-0.0576084 -0.042835 -0.00230392
0.000597653 0.0133155 0.0669426
0 0 0
0.00126127 0.00391618 0.0482265
0 0 0
-0.00603985 1.34008 1.04719
8.21158e-05 0.00745222 0.035462
-0.00427846 -0.00909895 0.196656
-0.00693691 0.00321458 0.0351322
0 0 0
0 0 0
0 0 0
-0.00237206 -0.000357817 0.0004586
0.378653 -0.480118 0.375444
0 0 0
-2.95958e-07 2.21535e-07 -4.03103e-05
0 0 0
0.0620997 -0.0438555 -0.00183751
-0.00102839 -0.000417755 0.00617867
0 0 0
-8.88996e-05 0.000406169 0.00495853
0.00677114 0.00308288 0.0335499
0 0 0
0.00238116 -0.000378069 0.000668034
0 0 0
0.000547838 0.0064245 0.175729
0 0 0
0 0 0
7.94114e-06 0.00102553 0.0210775
0.000182256 -0.00558518 0.0710863
0 0 0
0.000262518 0.00245347 0.0175552
0.00136316 0.00257064 0.150448
-3.09866e-05 0.00605356 0.127224
0 0 0
0.00437157 0.0119717 0.079462
-0.0775524 0.054905 0.619592
0 0 0
0.000534579 0.0592185 0.171914
-1.04828e-05 0.000342759 0.0210453
3.31637e-07 -0.000169411 0.0013013
7.07662e-18 -3.40403e-19 -1.85221e-16
-0.000601354 0.00782814 0.182626
0 0 0
-7.1907e-06 0.00104803 0.0208085
-0.000258597 0.00236548 0.0172273
-0.000192387 0.0032579 0.141156
0.0995348 0.0428488 0.695651
-0.0045339 0.0123394 0.0789513
0 0 0
-0.0548146 -0.0466948 0.337518
0 0 0
0 0 0
0.000199436 0.000800274 0.068331
0.000330576 0.00627273 0.0747865
0.00157149 0.0167018 0.270548
0.00492801 0.0169748 0.0883594
0 0 0
0.00292174 0.0356981 0.195313
0 0 0
0.00374749 -0.00369393 0.0392387
-0.000945473 -0.000443022 0.00779632
0.0016464 -0.000720223 0.0129095
0.00244201 -0.00813278 0.102288
-0.00404797 -0.0137293 0.174698
0 0 0
0 0 0
0 0 0
0 0 0
0 0 0
0 0 0
0.000618904 0.00276854 0.01033
-0.000345317 0.00190446 0.00706977