# vtk DataFile Version 2.0
tet_velo
ASCII
DATASET UNSTRUCTURED_GRID
POINTS 29498 float
-0.765 0.145 -2.00082
-0.633163 0.225 2.245
-0.721485 0.505 -2.045
-0.695 0.873538 2.085
0.765 0.145 -2.00029
0.642751 0.225 2.245
0.720873 0.505 -2.045
0.695 0.873538 2.085
-0.7739 0.118821 -0.585547
-0.759019 0.116423 0.829727
-0.856042 0.771232 -0.668334
-0.834879 0.881743 0.708333
0.776853 0.119064 -0.585193
0.765114 0.11672 0.829903
0.855463 0.77106 -0.668334
0.834777 0.881845 0.708333
-1.5738 -0.239407 -3.07354
-1.56571 -0.161712 -1.9568
-1.56621 -0.179691 -0.540546
-1.52707 -0.204044 0.883487
-1.43373 -0.140284 2.3004
-1.40916 -0.0823928 3.42034
-1.41615 -0.0302198 4.53434
-1.56883 0.0220056 -3.1096
-1.56572 0.131532 -1.99706
-1.58207 0.147812 -0.588293
-1.53118 0.138698 0.823964
-1.39953 0.200635 2.23347
-1.38521 0.257014 3.35286
-1.40392 0.308301 4.4681
-1.55304 0.490468 -3.17081
-1.55262 0.596134 -2.05661
-1.63655 0.786505 -0.674139
-1.5933 0.86778 0.705596
-1.45236 0.881626 2.08879
-1.41644 0.933061 3.20976
-1.42149 0.987687 4.33122
-1.54923 1.37458 -3.29167
-1.55606 1.50401 -2.18328
-1.59274 1.71431 -0.81331
-1.60418 1.87184 0.54834
-1.56715 1.94263 1.91869
-1.52755 1.98075 3.02787
-1.50006 2.02343 4.14513
-0.793507 -0.233073 -3.0759
-0.775164 -0.150385 -1.96031
-0.776402 -0.193138 -0.539961
-0.768344 -0.220586 0.888422
-0.705298 -0.131869 2.30896
-0.681086 -0.0770802 3.42615
-0.682474 -0.0291504 4.53772
-0.791343 0.0177534 -3.11026
-0.653367 0.263752 3.35766
-0.669999 0.309559 4.47066
-0.774104 0.451387 -3.16597
-0.67763 0.931596 3.20902
-0.682379 0.986796 4.33109
-0.757165 1.34736 -3.28689
-0.75434 1.47815 -2.17803
-0.789972 1.70723 -0.810134
-0.820009 1.87765 0.548004
-0.805997 1.94611 1.91604
-0.773543 1.98141 3.02523
-0.747346 2.0233 4.14322
0.753316 -0.233045 -3.07556
0.771102 -0.150332 -1.95989
0.77687 -0.19294 -0.539643
0.74483 -0.22035 0.888598
0.669853 -0.131783 2.30902
0.716763 -0.0770063 3.42621
0.755863 -0.0290655 4.53779
0.743032 0.0177637 -3.10993
0.722349 0.263802 3.35769
0.761232 0.309634 4.47072
0.740549 0.451383 -3.16581
0.736625 0.931637 3.20905
0.764644 0.986863 4.33114
0.811281 1.34736 -3.28677
0.830328 1.47814 -2.17794
0.823242 1.70723 -0.810057
0.773834 1.8777 0.548068
0.731624 1.94618 1.9161
0.735569 1.98149 3.02529
0.753882 2.02338 4.14329
1.53518 -0.239342 -3.07293
1.55448 -0.161606 -1.95613
1.56477 -0.179395 -0.540008
1.51945 -0.203661 0.883815
1.42873 -0.140055 2.30057
1.44618 -0.0822134 3.42048
1.48588 -0.0300392 4.53449
1.52772 0.0220345 -3.10902
1.55502 0.131561 -1.99639
1.58245 0.148061 -0.587782
1.54068 0.139089 0.824259
1.42041 0.200823 2.2336
1.44423 0.257163 3.35297
1.48767 0.308466 4.46824
1.52832 0.49046 -3.17044
1.55065 0.596079 -2.05632
1.63851 0.786471 -0.673916
1.59729 0.868003 0.705738
1.4642 0.881771 2.08888
1.46611 0.933189 3.20985
1.49684 0.987836 4.33134
1.59449 1.37458 -3.2914
1.61597 1.50401 -2.18306
1.61935 1.71434 -0.813132
1.57056 1.87195 0.548488
1.51237 1.94277 1.91882
1.50034 1.9809 3.02801
1.51046 2.02358 4.14528
-0.720086 0.325 -1.99975
0 0.112842 -2.03271
-0.815154 0.0862069 -1.29318
-0.675538 0.549269 2.17646
0.004794 0.239763 2.23024
-0.717317 0.149486 1.53736
-0.00030601 0.61437 -2.15437
-0.855451 0.704803 -1.35667
0 0.98804 2.1995
-0.795466 0.908167 1.39667
0.71969 0.325 -1.9994
0.813753 0.0892052 -1.29274
0.678335 0.549269 2.17446
0.728412 0.14638 1.53745
0.855433 0.705295 -1.35667
0.795411 0.908214 1.39667
-0.765832 0.118249 0.12209
-0.878367 0.445026 -0.62694
0.00147663 0.0761862 -0.58537
-0.884051 0.499083 0.76903
0.00304751 0.0770078 0.829815
-0.852976 0.834002 0.02
-0.000289918 1.07062 -0.668334
-5.109e-05 1.34925 0.708333
0.771178 0.117698 0.122355
0.877772 0.445062 -0.626763
0.88412 0.499282 0.769118
0.85265 0.833982 0.02
-0.89162 0.385013 -1.32493
-0.876229 0.472055 0.071045
-0.886848 0.524176 1.46702
0.000738314 0.081358 -1.29296
0.00226207 0.0773765 0.122222
0.00392076 0.159343 1.53741
-0.000153005 0.325 -2.25639
0.002397 0.549269 2.31061
-0.000297964 0.895223 -1.35667
-0.000170504 1.33205 0.02
-2.5545e-05 1.20247 1.39667
0.891666 0.385031 -1.3247
0.875901 0.472172 0.0711775
0.886848 0.524276 1.46706
-1.16536 0.138266 -1.99894
-0.770082 -0.00269271 -1.98057
-0.778171 0.0813767 -2.55554
-1.01635 0.212818 2.23924
-0.669231 0.0465654 2.27698
-0.643265 0.244376 2.80133
-1.13705 0.550567 -2.0508
-0.747795 0.478193 -2.60549
-0.737913 0.991574 -2.11152
-1.07368 0.877582 2.08689
-0.686315 0.902567 2.64701
-0.750499 1.40983 2.00052
0.768051 -0.00266602 -1.98009
0.754016 0.0813818 -2.55511
1.16001 0.138281 -1.99834
0.656302 0.0466086 2.27701
0.68255 0.244401 2.80135
1.03158 0.212912 2.2393
0.730711 0.478191 -2.60541
0.7756 0.991568 -2.11147
1.13576 0.55054 -2.05066
0.715812 0.902588 2.64703
0.713312 1.40986 2.00055
1.0796 0.877655 2.08694
-1.17799 0.133317 -0.58692
-0.775151 -0.0371584 -0.562754
-1.1451 0.12756 0.826846
-0.763682 -0.0520816 0.859074
-1.2463 0.778868 -0.671236
-0.823007 1.23923 -0.739234
-1.21409 0.874761 0.706965
-0.827444 1.3797 0.628169
0.776861 -0.0369383 -0.562418
1.17965 0.133563 -0.586487
0.754972 -0.0518149 0.859251
1.1529 0.127904 0.827081
0.839352 1.23915 -0.739195
1.24699 0.778765 -0.671125
0.804305 1.37977 0.628201
1.21603 0.874924 0.707036
-1.56976 -0.200559 -2.51517
-1.57131 -0.1087 -3.09157
-1.18365 -0.23624 -3.07472
-1.56596 -0.170701 -1.24868
-1.56572 -0.0150902 -1.97693
-1.17044 -0.156049 -1.95856
-1.54664 -0.191867 0.171471
-1.57414 -0.0159393 -0.564419
-1.17131 -0.186414 -0.540254
-1.4804 -0.172164 1.59194
-1.52913 -0.0326732 0.853726
-1.14771 -0.212315 0.885955
-1.42144 -0.111339 2.86037
-1.41663 0.0301754 2.26694
-1.06951 -0.136077 2.30468
-1.41266 -0.0563063 3.97734
-1.39718 0.0873107 3.3866
-1.04512 -0.0797365 3.42325
-1.41003 0.139041 4.50122
-1.04931 -0.0296851 4.53603
-1.56728 0.0767686 -2.55333
-1.56093 0.256237 -3.1402
-1.18009 0.0198795 -3.10993
-1.57389 0.139672 -1.29268
-1.55917 0.363833 -2.02683
-1.55663 0.143255 0.117836
-1.60931 0.467159 -0.631216
-1.46536 0.169666 1.52872
-1.56224 0.503239 0.76478
-1.39237 0.228825 2.79316
-1.42595 0.541131 2.16113
-1.39456 0.282658 3.91048
-1.40083 0.595037 3.28131
-1.01929 0.260383 3.35526
-1.4127 0.647994 4.39966
-1.03696 0.30893 4.46938
-1.55283 0.543301 -2.61371
-1.55113 0.932522 -3.23124
-1.16357 0.470927 -3.16839
-1.59459 0.691319 -1.36537
-1.55434 1.05007 -2.11994
-1.61492 0.827142 0.0157281
-1.61464 1.25041 -0.743725
-1.52283 0.874703 1.39719
-1.59874 1.36981 0.626968
-1.4344 0.907343 2.64927
-1.50976 1.41213 2.00374
-1.41896 0.960374 3.77049
-1.472 1.45691 3.11882
-1.04704 0.932328 3.20939
-1.46078 1.50556 4.23818
-1.05193 0.987241 4.33115
-1.55265 1.43929 -2.73748
-1.1532 1.36097 -3.28928
-1.5744 1.60916 -1.4983
-1.1552 1.49108 -2.18066
-1.59846 1.79308 -0.132485
-1.19136 1.71077 -0.811722
-1.58566 1.90723 1.23352
-1.21209 1.87475 0.548172
-1.54735 1.96169 2.47328
-1.18657 1.94437 1.91737
-1.51381 2.00209 3.5865
-1.15055 1.98108 3.02655
-1.1237 2.02336 4.14418
-0.784336 -0.191729 -2.51811
-0.792425 -0.10766 -3.09308
-0.0200956 -0.233059 -3.07573
-0.775783 -0.171762 -1.25014
-0.00203112 -0.150359 -1.9601
-0.772373 -0.206862 0.17423
0.00023375 -0.193039 -0.539802
-0.736821 -0.176228 1.59869
-0.0117569 -0.220468 0.88851
-0.693192 -0.104475 2.86756
-0.0177227 -0.131826 2.30899
-0.68178 -0.0531153 3.98194
-0.667226 0.0933361 3.39191
0.0178389 -0.0770433 3.42618
-0.676236 0.140204 4.50419
0.0366943 -0.0291079 4.53776
-0.782723 0.23457 -3.13812
-0.0241553 0.0177585 -3.1101
-0.661683 0.286656 3.91416
-0.665498 0.597674 3.28334
0.0344912 0.263777 3.35767
-0.676189 0.648177 4.40088
0.0456168 0.309596 4.47069
-0.765634 0.899375 -3.22643
-0.0167777 0.451385 -3.16589
-0.680005 0.959196 3.77006
-0.725586 1.45651 3.11713
0.0294974 0.931617 3.20904
-0.714863 1.50505 4.23716
0.0411324 0.986829 4.33112
-0.755752 1.41276 -2.73246
0.0270582 1.34736 -3.28683
-0.772156 1.59269 -1.49408
0.0379938 1.47814 -2.17798
-0.80499 1.79244 -0.131065
0.0166351 1.70723 -0.810095
-0.813003 1.91188 1.23202
-0.0230877 1.87768 0.548036
-0.78977 1.96376 2.47064
-0.0371868 1.94615 1.91607
-0.760444 2.00236 3.58423
-0.0189866 1.98145 3.02526
0.00326821 2.02334 4.14326
0.762209 -0.191689 -2.51772
0.748174 -0.107641 -3.09275
1.14425 -0.236194 -3.07425
0.773986 -0.171636 -1.24977
1.16279 -0.155969 -1.95801
0.76085 -0.206645 0.174478
1.17082 -0.186168 -0.539825
0.707341 -0.176066 1.59881
1.13214 -0.212005 0.886207
0.693308 -0.104395 2.86761
1.04929 -0.135919 2.30479
0.736313 -0.0530359 3.982
0.719556 0.0933977 3.39195
1.08147 -0.0796099 3.42335
0.758547 0.140284 4.50426
1.12087 -0.0295523 4.53614
0.74179 0.234573 -3.13787
1.13537 0.0198991 -3.10948
0.741791 0.286718 3.91421
0.729487 0.59772 3.28337
1.08329 0.260482 3.35533
0.762938 0.648248 4.40093
1.12445 0.30905 4.46948
0.775915 0.899372 -3.22629
1.13443 0.470922 -3.16813
0.750634 0.95925 3.7701
0.736097 1.45656 3.11717
1.10137 0.932413 3.20945
0.759263 1.50512 4.23722
1.13074 0.98735 4.33124
0.820804 1.41275 -2.73235
1.20288 1.36097 -3.28909
0.826785 1.59268 -1.494
1.22315 1.49107 -2.1805
0.798538 1.79247 -0.130995
1.22129 1.71079 -0.811594
0.752729 1.91194 1.23208
1.1722 1.87483 0.548278
0.733597 1.96383 2.4707
1.122 1.94448 1.91746
0.744726 2.00243 3.58429
1.11796 1.98119 3.02665
1.13217 2.02348 4.14429
1.54483 -0.200474 -2.51453
1.53145 -0.108654 -3.09097
1.55962 -0.170501 -1.24807
1.55475 -0.0150225 -1.97626
1.54211 -0.191528 0.171904
1.57361 -0.0156669 -0.563895
1.47409 -0.171858 1.59219
1.53007 -0.032286 0.854037
1.43746 -0.111134 2.86052
1.42457 0.0303842 2.26708
1.46603 -0.0561263 3.97749
1.4452 0.0874746 3.38673
1.48677 0.139213 4.50137
1.54137 0.0767977 -2.55271
1.52802 0.256247 -3.13973
1.56874 0.139811 -1.29209
1.55284 0.36382 -2.02636
1.56157 0.143575 0.118239
1.61048 0.467266 -0.630849
1.48055 0.169956 1.52893
1.56899 0.503546 0.764999
1.43232 0.228993 2.79328
1.44231 0.541297 2.16124
1.46595 0.282814 3.91061
1.45517 0.595176 3.28141
1.49226 0.648151 4.39979
1.53948 0.54327 -2.61338
1.5614 0.932521 -3.23092
[...]
POINT_DATA 29498
VECTORS point_vectors float
-3.2598 -3.39846 5.8369
-0.265129 0.406077 1.36067
-3.06146 1.03513 3.67373
0.05876 -0.0458269 0.229644
3.27583 -3.41791 5.88594
0.215546 0.389924 1.40222
2.98976 1.002 3.57704
-0.0592231 -0.0394936 0.222878
0.00213281 9.2753e-05 0.0910205
0.00609842 2.63188e-05 0.0533609
-0.159904 -0.125973 1.05379
0.0623584 0.18688 0.643567
-0.00258428 0.000120523 0.111235
-0.00185587 8.37138e-05 0.018175
0.153604 -0.124223 1.03086
-0.0518782 0.163291 0.545395
-0.634204 -0.27489 19.8756
-1.27343 -0.687805 20.5892
-0.358026 -0.379005 21.3867
0.188878 -0.0429884 21.5786
0.744234 0.31454 21.3603
0.936325 0.304938 21.1161
0.851854 0.105393 20.8955
-0.709857 -0.2172 19.7941
-1.66299 -0.54183 20.4859
-0.565633 -0.481661 21.4402
0.11233 -0.211447 21.6663
1.02852 0.13356 21.4254
1.22803 0.074594 21.2684
1.07535 0.00972698 21.2038
-0.739854 -0.00206415 19.6807
-1.88478 0.00873385 20.2972
-1.12279 -0.30398 21.3964
-0.251686 -0.298956 21.7374
0.737667 -0.474343 21.5537
1.02068 -0.530728 21.2729
0.858246 -0.458568 20.7395
-0.478824 0.277754 19.8383
-0.982676 0.600733 20.1638
-0.99544 0.471 21.0357
-0.40844 0.0740544 21.5109
0.117856 -0.279364 21.4253
0.347599 -0.415234 21.2464
0.412312 -0.470329 20.7297
-0.689685 -0.726342 19.2748
-1.85685 -3.65904 21.2386
-0.21276 -0.192341 20.641
0.158779 0.257317 20.5006
0.271328 1.20749 18.3734
0.689281 1.51349 17.5327
0.961939 0.783959 16.8667
-0.787208 -0.532181 19.0239
1.10885 1.68947 9.49078
1.65342 0.757078 11.4015
-0.864691 -0.0165401 18.7978
1.52423 -0.199164 8.57965
1.37188 -0.461876 13.8037
-0.44004 0.528485 19.4088
-1.19207 1.79201 19.6502
-1.47791 1.72232 20.9359
-0.603354 0.466594 22.0422
0.0702391 -0.44963 21.5965
0.232538 -0.718656 21.263
0.165754 -0.522028 21.1354
0.67687 -0.726692 19.2452
1.83937 -3.67092 21.2521
0.214258 -0.194111 20.6455
-0.133876 0.26836 20.3813
-0.185975 1.1524 18.0104
-0.727227 1.4837 17.8731
-0.956799 0.794416 17.8024
0.770894 -0.55759 18.9623
-1.39175 1.82847 11.0944
-1.57943 0.702615 12.5909
0.839048 -0.0106868 18.7425
-1.66772 -0.245608 10.3884
-1.31573 -0.433633 15.6871
0.458203 0.506994 19.4372
1.23206 1.6404 19.7166
1.48231 1.63746 20.9545
0.600288 0.500796 22.0771
-0.0575573 -0.464695 21.6251
-0.224808 -0.720473 21.2807
-0.164 -0.516093 21.1231
0.640421 -0.281737 19.8483
1.28483 -0.705418 20.6068
0.372876 -0.392485 21.3732
-0.197042 -0.0456463 21.5841
-0.743551 0.329333 21.3707
-0.901891 0.283333 21.1492
-0.824261 -0.00938732 20.8555
0.725758 -0.223299 19.7606
1.6868 -0.556374 20.4965
0.567865 -0.48614 21.433
-0.107154 -0.211371 21.6611
-0.99304 0.119331 21.4465
-1.13689 0.0704921 21.1846
-1.05232 -0.0873719 21.1168
0.739415 -0.00450264 19.662
1.89062 0.0096902 20.2995
1.11904 -0.302335 21.393
0.255441 -0.296397 21.735
-0.725008 -0.455046 21.5476
-0.988383 -0.492684 21.22
-0.738086 -0.414588 20.8702
0.475345 0.268405 19.863
0.953929 0.559228 20.2044
0.971848 0.451866 21.0326
0.423107 0.0816457 21.5308
-0.118296 -0.288317 21.4341
-0.353137 -0.42845 21.251
-0.422318 -0.462181 20.7377
0 0 0
6.33818e-05 -0.0114399 0.0745109
-0.0320034 0.00795231 0.677631
-0.0143389 0.00263835 0.00773425
-0.00254954 -0.00656871 0.0068026
-0.0292708 0.0168604 0.32293
0.0102255 1.47437 1.30941
-0.216701 -0.168359 0.890267
0 0 0
0.049581 0.0414863 0.396503
0 0 0
0.0259086 0.00628812 0.556782
0.00904943 0.00184112 0.0119749
0.0177986 0.00813191 0.179919
0.193663 -0.153975 0.827474
-0.0492662 0.0423211 0.388074
0.000470643 -7.47843e-05 0.0440455
2.73472e-05 -2.22885e-05 0.00602849
3.20356e-05 -2.79515e-05 0.0083774
-0.000903504 0.00307243 0.0177876
0 0 0
0.0375259 0.116302 0.724944
0.0017934 0.0900059 0.195044
4.8484e-05 -0.000355257 0.00660314
0.000211322 6.77533e-05 0.0449017
-2.76992e-05 -2.37899e-05 0.0058047
0.00100027 0.00343676 0.0197509
-0.0357946 0.114976 0.732281
-4.16898e-05 -0.000104891 0.00160815
-4.26555e-05 0.00474975 0.0286067
0 0 0
0 0 0
0 0 0
0 0 0
-0.000299806 -0.0278666 0.0188958
-0.0165792 0.390423 -0.295121
-0.000122756 0.00165602 0.00947964
-0.000208925 0.0188738 0.13739
6.14737e-06 2.97061e-05 -1.04967e-06
7.49544e-05 -0.000173898 0.00290326
5.45772e-05 0.00401301 0.0251189
0 0 0
-3.30267 -1.60127 20.4121
-3.05775 -5.97484 21.5873
-2.19184 -1.6745 17.9408
1.3494 1.10569 16.2675
-0.190575 1.2539 10.6927
-0.016504 1.10345 6.1423
-4.13122 0.317047 19.7054
-2.49605 0.160224 17.143
-2.94412 3.23701 18.8126
1.17019 -0.312764 17.795
0.386855 0.145808 4.6168
0.57393 -0.752918 19.0838
3.0375 -5.98256 21.6064
2.20463 -1.74962 17.8217
3.34034 -1.63494 20.4004
0.252528 1.17405 10.1982
-0.199067 1.16325 6.84096
-1.35301 1.03801 16.6777
2.49447 0.157245 17.0642
2.94858 2.99133 18.9148
4.14719 0.318706 19.6952
-0.503614 0.153037 5.69112
-0.631318 -0.763707 18.3078
-1.15368 -0.308469 17.9566
-0.294292 -0.813267 21.2526
-0.00659068 0.110035 13.7911
0.243426 -0.0897593 19.748
0.353585 0.234812 14.4868
-1.79556 -0.758552 21.7366
-3.4638 1.80459 21.0637
-0.410998 -0.540595 21.3689
-0.895875 0.081813 21.5374
0.0066951 0.107108 13.8321
0.303104 -0.815315 21.2576
-0.333072 0.241804 14.2501
-0.252538 -0.105738 19.9035
3.42342 1.70275 21.0886
1.78463 -0.752724 21.7296
0.872362 0.134934 21.3023
0.417899 -0.541009 21.4008
-1.02312 -0.503039 20.0512
-0.678639 -0.248573 19.8321
-0.702416 -0.464361 19.6257
-0.814644 -0.574794 21.2642
-1.46366 -0.641282 20.5444
-1.89377 -1.64118 20.7539
-0.0899188 -0.220946 21.5242
-0.462081 -0.456695 21.4105
-0.189717 -0.469209 21.6337
0.4945 0.17105 21.5688
0.150106 -0.138663 21.5989
0.278457 0.0344204 21.657
0.842744 0.382114 21.3332
0.900637 0.268009 21.4345
0.870271 0.857798 20.9681
0.922916 0.300544 20.5387
1.11022 0.16978 21.2912
1.19588 1.09546 20.5788
0.963571 0.0565669 21.0508
0.973818 0.841353 21.0172
-1.21467 -0.386606 19.9201
-0.727343 -0.106291 19.7234
-0.812601 -0.364758 19.4638
-1.14148 -0.578834 21.3096
-1.87506 -0.285296 20.3828
-0.20922 -0.368029 21.572
-0.863791 -0.465019 21.4452
0.580607 -0.0272037 21.7187
-0.0483691 -0.325522 21.7552
1.16651 0.163873 21.2547
1.01468 -0.269476 21.6111
1.35876 0.0685746 20.1949
1.22539 -0.295964 21.3601
1.47006 0.995323 16.8855
1.16701 -0.40432 20.8584
1.362 0.447754 16.8363
-1.31604 0.0033003 19.7637
-0.634541 0.184458 19.7485
-0.867467 -0.000693292 19.2929
-1.62287 -0.149789 21.1107
-1.51717 0.495408 20.1758
-0.71471 -0.331764 21.6262
-1.25699 0.174794 21.2149
0.256781 -0.348392 21.7687
-0.416442 -0.107021 21.668
0.939131 -0.53582 21.3588
0.335276 -0.439704 21.4791
1.04191 -0.552225 20.8067
0.577818 -0.550674 21.1152
1.39943 -0.631719 18.6959
0.495602 -0.603272 20.8464
1.14757 -0.743144 19.9365
-0.729992 0.439577 19.9256
-0.502481 0.388983 19.6326
-1.08605 0.597358 20.6427
-1.21658 1.08871 19.9662
-0.758843 0.282388 21.3635
-1.32131 0.92972 21.052
-0.0969292 -0.134452 21.5219
-0.526569 0.204415 21.7528
0.230548 -0.404641 21.2485
0.106432 -0.385586 21.4767
0.294295 -0.401468 21.078
0.290197 -0.555775 21.0542
0.187822 -0.413516 20.8665
-1.50354 -1.91074 19.0572
-0.746959 -0.627834 19.134
-0.020091 -1.03971 18.8345
-0.609196 -0.96637 21.9175
0.00022489 -4.00333 22.7237
-0.0586973 -0.00335002 20.4518
-0.00750613 -0.301276 19.0377
0.264258 0.794102 19.4186
-0.0145102 0.259411 18.9006
0.403399 1.327 18.2788
-0.0412753 0.59019 15.5663
0.453118 1.64635 18.0974
0.910129 1.77547 14.2352
-0.0207972 1.11525 14.2248
1.30768 0.770518 14.1341
-0.0227464 1.3119 13.1516
-0.857356 -0.313136 18.8049
-0.0289729 -0.8117 18.3948
1.65244 1.40219 11.058
1.66103 0.754449 6.88253
0.0913345 0.268066 -1.10552
1.93386 0.349284 10.5459
-0.168934 1.08498 8.52191
-0.637387 0.38225 19.0568
-0.0208424 -0.0185551 18.0918
1.58672 -0.617064 10.8612
0.584811 -1.15005 20.0242
-0.107017 -0.0856212 -2.07615
0.507827 -1.03262 20.1175
-0.145164 -1.47339 2.03152
-0.794855 1.09057 19.2912
0.0192725 0.659271 19.1873
-1.3473 1.85427 20.4347
0.0898121 2.60538 19.322
-1.27257 1.30215 21.7902
0.0461853 3.00622 20.6019
-0.132985 -0.147777 21.8702
-0.0289267 0.992333 22.4832
0.156764 -0.588516 21.3875
-0.00824388 -0.445444 21.7877
0.30502 -0.771938 21.1146
-0.00256843 -0.838098 21.2053
0.00300265 -0.989263 20.771
1.49973 -1.99044 19.016
0.732763 -0.64241 19.086
0.706709 -0.482217 19.5965
0.610618 -0.96117 21.9273
1.90724 -1.6718 20.7563
0.0646938 -0.0123085 20.3726
0.196377 -0.475435 21.6295
-0.223007 0.763157 19.0848
-0.274882 0.04843 21.6413
-0.379836 1.30326 18.2215
-0.857132 0.889321 20.8594
-0.554768 1.47338 18.529
-1.04368 1.71761 14.6361
-1.22533 1.05514 20.512
-1.28704 0.779367 15.166
-0.946944 0.693245 20.9918
0.840419 -0.332524 18.7495
0.82046 -0.395415 19.412
-1.77798 1.18529 11.7994
-1.84074 0.701537 8.95005
-1.44671 0.7539 18.0081
-1.78887 0.225608 12.1981
-1.27769 0.357657 18.1149
0.639101 0.380436 19.0709
0.873608 -0.00211743 19.2499
-1.55453 -0.609081 12.721
-0.588722 -1.14184 20.0693
-1.2664 -0.690611 19.8805
-0.511674 -1.00927 20.1557
-1.13479 -0.665507 20.1778
0.825912 1.0315 19.3503
0.508326 0.371216 19.6604
1.37437 1.7511 20.4551
1.19792 0.98044 20.0053
1.27143 1.32218 21.7905
1.29642 0.878485 21.0524
0.130483 -0.146878 21.9012
0.533574 0.228148 21.7841
-0.148265 -0.595985 21.4038
-0.111104 -0.391207 21.4931
-0.303808 -0.775095 21.1098
-0.286361 -0.564981 21.0377
-0.193371 -0.410371 20.8648
1.03247 -0.519029 20.048
0.686883 -0.255419 19.8022
0.826786 -0.582681 21.2649
1.47981 -0.661437 20.5629
0.10334 -0.230488 21.5184
0.467595 -0.468503 21.3988
-0.496972 0.16523 21.5606
-0.152405 -0.140723 21.6036
-0.834157 0.350855 21.3092
-0.879819 0.258782 21.4179
-0.841337 0.240407 20.6222
-1.06612 0.153964 21.3486
-0.93829 -0.0483796 20.9861
1.25226 -0.391113 19.9043
0.734625 -0.111068 19.6998
1.1481 -0.586737 21.312
1.89398 -0.289691 20.3807
0.212288 -0.37034 21.5606
0.859375 -0.463749 21.4433
-0.564209 -0.0418716 21.7056
0.0549849 -0.323218 21.7462
-1.09855 0.134353 21.2698
-0.984872 -0.233548 21.4375
-1.1588 0.0346376 20.5949
-1.19642 -0.268441 21.3837
-1.05149 -0.349813 21.0048
1.3285 0.00632612 19.7533
0.633392 0.179807 19.7546
1.62164 -0.149176 21.1109
1.48538 0.472121 20.1976
0.718552 -0.329459 21.6187
1.23615 0.171304 21.2097
-0.255156 -0.339205 21.7587
0.425536 -0.108912 21.6789
-0.900643 -0.490448 21.3612
-0.336226 -0.443118 21.4845
-0.959802 -0.509371 20.8411
-0.574489 -0.536727 21.1148
-0.495056 -0.583473 20.8918
0.712097 0.41306 19.962
1.0614 0.566132 20.6489
0.762636 0.284761 21.3644
0.104845 -0.138581 21.5415
-0.23162 -0.414604 21.2562
-0.293496 -0.405513 21.0725
-1.1325 -0.454237 19.9792
-1.86037 -1.91462 18.5216
-1.36564 -1.02162 19.7045
-1.80173 -0.829549 19.2908
-0.767501 -0.415777 19.5312
-2.57347 -1.74291 20.6143
-0.987065 -0.595897 21.2861
-0.489108 -0.345093 15.0823
-0.782977 -0.937474 21.6862
-1.30182 -1.24346 22.0858
-0.176126 -0.620146 21.5883
-0.153736 -0.320953 21.5364
0.0361018 0.100077 13.7628
0.0538081 -0.212739 21.6178
0.0671877 -0.402869 20.2543
0.319223 -0.0332561 21.1274
0.53519 0.0662535 21.5979
0.118904 0.707894 12.4901
0.605253 0.486167 21.5215
0.767912 0.537977 17.9929
1.15047 1.00415 19.5022
1.03268 0.285708 21.2005
0.136523 1.39115 12.1094
1.01127 0.947858 20.635
1.53243 1.07574 17.4255
1.391 1.12259 19.2828
1.23599 0.188294 20.1821
0.782023 1.58791 14.8734
1.00486 0.858758 20.936
1.62528 0.645251 19.6261
1.15332 0.675155 19.3582
-1.3433 -0.196309 19.8152
-2.55501 -0.939168 17.195
-1.96998 0.0631175 18.9122
-0.868698 -0.205082 19.3429
-4.31025 -0.769839 20.0363
-1.44124 -0.397649 21.2401
-2.61979 -0.383401 21.6814
-0.868338 -1.05573 21.6268
-0.447037 -0.432075 21.6171
-1.14084 -0.787702 21.7539
0.095911 -0.22773 19.699
0.470481 -0.255529 21.7579
0.463544 -0.332408 20.0429
1.49368 0.391417 15.2293
1.19698 -0.253252 21.2254
0.344393 0.799414 3.11476
1.23328 -0.491304 18.0924
2.05564 0.191082 17.0292
1.2556 -0.371589 20.7722
2.17277 0.668767 8.70216
1.42715 -0.749526 19.4401
1.56333 -0.0443952 16.5444
-1.07297 0.345581 19.8058
-1.49232 1.21898 18.3783
-0.839909 0.715493 19.6627
-0.702331 0.308447 19.438
-2.32535 1.24553 19.7427
-1.51356 0.384667 20.812
-2.8257 2.33071 20.7448
-1.34816 1.11618 20.5717
-2.05383 0.467411 21.3238
-0.891661 0.00484885 21.5498
-2.77577 0.669073 22.1969
-1.04083 0.616309 21.5543
-0.647264 -0.0637039 22.0255
0.00296155 -0.275826 21.6571
0.262187 -0.389863 20.2112
-0.124487 -0.142992 21.6772
0.372893 -0.651519 21.637
0.485941 -0.516324 21.374
0.538238 -0.867148 19.1878
0.215394 -0.486549 21.343
0.539992 -0.828277 21.5546
0.575129 -0.511119 20.9927
0.552789 -1.20551 19.8619
0.350969 -0.596318 21.1728
0.528412 -0.811879 20.4794
1.85124 -1.99959 18.4587
-0.0326713 -3.38865 18.2977
-0.0542027 -3.44473 15.6113
-0.0183216 -0.926399 18.5879
0.00797378 -3.53907 19.825
0.502593 -0.329808 15.0165
-0.00233359 -0.97208 20.6155
-0.00813137 -0.0492092 9.96302
-0.0462926 0.0825908 13.6801
-0.00943988 -0.122429 18.6709
-0.0274439 0.305426 10.56
-0.0989766 0.652705 12.1922
-0.0108207 0.609632 17.0861
-0.0741939 0.218154 6.11283
-0.169557 1.36789 12.2119
-0.0419105 0.497485 14.6461
0.066605 -1.42087 -3.03944
0.0560032 0.8721 6.6107
-0.910057 1.39528 15.3989
-0.00861986 1.64623 14.015
0.0464098 -0.165512 0.904486
-0.162206 1.23285 10.7455
2.56747 -0.953148 17.0688
-0.0408012 0.801197 14.1899
-0.0247759 -0.478773 18.0842
-0.452086 0.834688 3.79827
0.0265103 0.212148 -1.39054
-0.102108 -1.57518 -5.21969
-1.98954 0.538385 10.7657
-0.25852 -1.30428 0.123593
-0.142464 -0.399836 3.30334
1.50001 1.18196 18.4402
0.0507017 1.5238 18.8869
0.00450422 0.582918 18.6444
0.0945888 5.52254 18.0331
2.82945 2.21453 20.7736
0.0567791 2.76098 20.219
0.045787 4.83116 18.9663
2.79352 0.679012 22.1069
-0.0110737 2.71495 22.0608
-0.0075816 0.464745 15.5135
-0.354627 -0.386167 19.6705
-0.0163079 -0.0525896 22.1149
0.00345706 -0.49811 10.7292
-0.548987 -0.870017 19.0618
-0.00481434 -0.621298 21.6978
-0.0158458 -0.979489 14.9009
-0.57246 -1.18763 19.9489
-0.0004853 -0.699527 21.1203
-0.0181435 -0.825849 16.9953
1.14821 -0.46928 19.98
1.38459 -1.07253 19.6789
1.8336 -0.879839 19.232
0.775625 -0.446454 19.4841
2.60568 -1.78295 20.609
0.99453 -0.609768 21.284
0.783584 -0.943573 21.6889
1.30222 -1.25166 22.0933
0.186608 -0.625338 21.5761
0.161305 -0.330885 21.5239
-0.0500936 -0.219514 21.6227
-0.0505292 -0.413169 20.3045
-0.318305 -0.0286062 21.0878
-0.524328 0.0699313 21.5978
-0.598116 0.506517 21.4434
-0.769344 0.505867 18.2874
-1.13302 1.01432 19.405
-1.00242 0.246538 21.1903
-1.00458 0.92885 20.6279
-1.52791 0.936283 18.0482
-1.388 0.943014 20.1663
-1.07507 0.150954 20.4713
-1.00356 0.731194 20.9629
-1.64063 0.50216 19.8253
-1.08063 0.589985 20.5474
1.367 -0.203514 19.7889
1.99764 0.066805 18.8604
0.872511 -0.209791 19.2922
4.35509 -0.784697 20.0223
1.44353 -0.397863 21.242
2.61515 -0.380481 21.6888
0.869864 -1.05135 21.6196
0.447215 -0.429637 21.617
1.14642 -0.782508 21.7525
-0.0898494 -0.246712 19.7869
-0.461409 -0.247995 21.7648
-0.461518 -0.348966 20.1525
-1.48892 0.367201 15.6284
-1.12507 -0.249488 21.2453
-1.2097 -0.531837 18.9288
-1.90183 0.114246 18.32
-1.12306 -0.311394 21.0401
-1.36017 -0.748733 20.2178
-1.48713 -0.120921 17.7431
1.05878 0.335727 19.823
0.83968 0.666256 19.6999
0.701373 0.303914 19.4429
2.25856 1.14948 19.7782
1.48579 0.373711 20.8123
1.32145 1.02482 20.5907
2.00985 0.443244 21.326
0.895588 0.00622841 21.5477
1.04612 0.624525 21.5554
0.665906 -0.0502178 22.0549
-0.000995893 -0.279944 21.6711
0.120911 -0.142935 21.6943
-0.380753 -0.671041 21.6121
-0.48357 -0.520601 21.3802
-0.215099 -0.50318 21.339
-0.53772 -0.814902 21.5471
-0.56244 -0.504198 20.9619
-0.353976 -0.601123 21.175
-0.52936 -0.772662 20.5209
-1.57792 -0.968195 19.499
-0.96192 -1.09816 21.8827
0.098542 -0.301761 21.2761
0.759334 0.530304 20.3364
1.2681 1.02628 19.5721
1.29412 0.760939 20.1975
-2.00147 -0.439077 18.9918
-2.02707 -0.937475 22.1274
-0.260121 -0.798276 20.6959
0.805273 0.264264 18.316
1.6496 0.23921 16.3849
1.88194 0.096295 17.7869
-1.3897 0.686639 19.2663
-2.25303 0.929769 20.87
-1.50036 0.18807 21.8829
-0.00108743 -0.358759 21.937
0.473516 -0.7406 21.4867
0.628241 -0.856294 21.2498
-0.0481727 -3.74048 17.0995
-0.00600715 -0.363035 11.0179
-0.00607543 -0.0615674 9.71816
0.00829054 0.465592 8.32788
-0.0345429 -0.266192 5.97063
0.0156842 1.09699 7.09781
-0.0499063 -1.65332 14.2246
0.0638382 -0.818627 -4.54754
-0.211986 -1.7238 -2.31613
0.0356813 2.05722 17.2653
0.0533943 4.18469 20.3748
-0.0110371 3.47805 18.23
0.0169107 -0.500652 12.2129
-0.0042466 -0.541133 12.2324
-0.0252551 -1.30957 15.8098
1.60956 -1.01723 19.4461
0.963101 -1.10687 21.887
-0.0867835 -0.307581 21.2598
-0.743748 0.533342 20.2676
-1.2529 0.950359 19.8529
-1.3083 0.638373 20.3881
2.04533 -0.460129 18.9262
2.02482 -0.942401 22.1339
0.278928 -0.801957 20.7296
-0.800685 0.230167 18.5203
-1.63424 0.163449 17.561
-1.81644 0.0312245 19.1267
1.37647 0.656811 19.3004
2.20486 0.889257 20.871
1.51157 0.193328 21.8796
-0.00508484 -0.366594 21.9641
-0.475549 -0.740102 21.4771
-0.63101 -0.811644 21.2749
0 0 0
-0.0205524 -0.0222169 0.205788
-0.0346289 -0.0366331 0.951736
-0.000138863 5.47868e-05 -5.40526e-05
-0.0486833 0.0086995 0.0347001
-0.0839407 0.126626 0.570761
-1.60559 0.0536511 1.42691
-0.468691 1.03328 1.01128
-0.293156 0.113694 0.712301
-0.0318421 0.0130059 -0.0179852
-0.00526647 0.012554 -0.010627
0.0551667 -0.000340915 0.46968
0.0201997 -0.0221878 0.209002
-8.56003e-17 1.36322e-17 -7.35373e-17
0.0526442 -0.0425447 1.10607
0.0471874 0.00354915 0.0239455
0.00188121 0.00101129 -0.000638075
0.120897 0.162939 0.74686
0.433027 0.95299 0.919114
1.59562 0.0519052 1.41958
0.275116 0.110015 0.67128
0.00528999 0.0234636 -0.0172838
0.0333811 0.0153074 -0.0192882
-0.0552573 0.00170866 0.460444
0.00329049 0.004096 0.144349
-0.000970149 0.00174346 0.0702179
0 0 0
0 0 0
-0.00263922 0.0166871 0.302284
0.00217922 -0.000365228 0.0486385
-0.00471874 0.00290722 0.0359411
0 0 0
-0.140222 -0.112279 0.514199
-5.42828e-06 0.00011227 0.00392503
-0.0240391 0.00669249 0.507405
0 0 0
0.0525215 0.071567 0.422395
0.00504226 0.0513345 0.177896
0.123333 0.161436 0.580274
0.108778 0.0166789 0.532865
-0.00305745 0.00424504 0.157398
0 0 0
-0.000543618 9.3506e-05 0.0933097
0 0 0
0.000764829 0.0214248 0.350778
0 0 0
-0.000329862 -6.64081e-05 0.0121064
0.00370075 0.001934 0.0281768
0.150624 -0.123501 0.574071
0 0 0
8.97506e-06 8.22574e-05 0.00391465
0.024348 0.00650074 0.515019
-0.0594618 0.0797393 0.432162
-0.0996306 0.00722003 0.525884
-0.00517263 0.0521735 0.177505
-0.0636833 0.125899 0.526248
-0.0104402 -0.0349727 0.41148
-0.479357 -0.292928 0.283482
0 0 0
-0.000658774 -0.0271341 0.00549619
-0.00290551 -0.00139511 0.129801
0 0 0
0.00122162 0.000107826 0.00493517
-0.144063 0.0541613 -0.0465247
2.52727e-19 -1.35577e-18 -2.61538e-17
0.00148265 -0.00323793 -0.00187271
0.000506209 0.00176811 0.0137366
0 0 0
0 0 0
-4.9114e-05 0.0732299 0.264985
0 0 0
-0.0105216 0.00680798 0.0444737
0 0 0
0 0 0
0 0 0
-0.000355179 -0.000624229 0.00244306
0.5222 -0.319657 0.311545
0.0320641 -0.0259204 0.250795
0 0 0
0.00230099 -0.000605421 0.0975591
0.124852 0.0524005 -0.0456739
-0.000594676 -0.000106398 0.00216538
0 0 0
-0.000597376 0.00216698 0.0167441
0.0108886 0.00696288 0.0456364
0 0 0
0.000346467 -0.00069146 0.0027546
0 0 0
2.46916e-19 4.58276e-18 4.38334e-17
0 0 0
0.00166929 -0.00410954 0.0494608
0.000127492 0.00242721 0.035265
0 0 0
-2.82377e-05 1.24675e-05 0.00987972
3.86138e-05 0.00196483 0.00756063
-0.000156984 0.00340099 0.0283684
0 0 0
-0.000561275 0.0135465 0.262762
0.00018792 0.00201523 0.00902925
-0.0730505 0.0954142 1.0003
0.000805949 0.00402615 0.0446263
-0.0019949 0.186269 0.457483
2.68956e-05 0.00159119 0.0378359
0.000102077 -0.00653499 0.0462808
0 0 0
0 0 0
-0.00243524 -0.00738099 0.0845815
-0.000118559 0.00239328 0.034753
-3.77044e-05 0.00190909 0.00750965
0.00013274 0.0032862 0.0263141
0.0664034 0.095617 0.969722
-0.000155965 0.00181032 0.00841561
-0.0318268 -0.0254035 0.543193
-0.00112479 -0.000824514 0.00711236
0 0 0
-0.00019913 -0.00949939 0.0634974
0 0 0
2.25953e-05 0.000464362 0.00280155
0 0 0
0 0 0
0.000267068 0.00251001 0.0285603
0.000563511 0.0035429 0.0157973
0 0 0
0.00336275 -0.000518051 0.0200676
-0.000214072 -1.58064e-05 0.00170217