# vtk DataFile Version 2.0
tet_velo
ASCII
DATASET UNSTRUCTURED_GRID
POINTS 29498 float
-0.735 0.255 -2.31542
-0.785 0.365 2.26473
-0.745 0.725 -2.14478
-0.715 1.005 2.21448
0.735 0.255 -2.31542
0.785 0.365 2.26473
0.745 0.725 -2.14478
0.715 1.005 2.21449
-0.831282 0.212051 -0.788703
-0.855345 0.241322 0.738013
-0.829962 0.913296 -0.691693
-0.805857 0.992524 0.761393
0.831102 0.212232 -0.788703
0.855317 0.24135 0.738013
0.829979 0.913313 -0.69169
0.80586 0.992527 0.7614
-1.54528 -0.135906 -3.5508
-1.55277 -0.0855403 -2.35892
-1.62249 -0.108602 -0.830296
-1.64818 -0.097371 0.713142
-1.60778 -0.00812308 2.24301
-1.59507 0.0564677 3.44101
-1.60004 0.108841 4.62769
-1.54163 0.164144 -3.49195
-1.54704 0.239714 -2.30811
-1.63333 0.235277 -0.793815
-1.64672 0.251217 0.727105
-1.57895 0.33566 2.24281
-1.57684 0.39858 3.43977
-1.59147 0.450633 4.62885
-1.54625 0.716559 -3.35358
-1.55309 0.790407 -2.1667
-1.62926 0.918606 -0.7026
-1.61105 0.978549 0.756282
-1.53007 1.00969 2.22179
-1.55103 1.06999 3.4218
-1.58147 1.12852 4.62275
-1.56842 1.66472 -3.2014
-1.57758 1.75591 -2.02554
-1.60524 1.90169 -0.58531
-1.61353 2.01128 0.839048
-1.5991 2.06998 2.28004
-1.59534 2.11202 3.45751
-1.60262 2.16016 4.65043
-0.758911 -0.128324 -3.55555
-0.746524 -0.0745289 -2.36584
-0.807011 -0.119835 -0.829365
-0.840254 -0.105025 0.722452
-0.813999 0.00657803 2.25928
-0.806422 0.066884 3.45205
-0.811395 0.114063 4.63408
-0.759508 0.164319 -3.49341
-0.796414 0.409597 3.44888
-0.807449 0.455662 4.63367
-0.763621 0.690395 -3.34448
-0.776437 1.07133 3.42034
-0.802418 1.13022 4.62244
-0.774161 1.64706 -3.19239
-0.776363 1.73934 -2.01562
-0.800483 1.89853 -0.579329
-0.816978 2.01609 0.838333
-0.813581 2.07228 2.27492
-0.812194 2.11252 3.4524
-0.817924 2.16047 4.64671
0.776937 -0.128294 -3.55555
0.788222 -0.0744858 -2.36584
0.836325 -0.119709 -0.829365
0.836634 -0.10498 0.722452
0.788749 0.00659131 2.25929
0.772703 0.0668984 3.45205
0.766454 0.114083 4.63409
0.757697 0.164336 -3.49341
0.760029 0.409606 3.44888
0.758623 0.455678 4.63368
0.758923 0.690407 -3.34448
0.735972 1.07134 3.42034
0.747286 1.13024 4.62245
0.800499 1.64709 -3.19239
0.810301 1.73937 -2.01562
0.808024 1.89856 -0.579326
0.781458 2.01611 0.838337
0.75455 2.0723 2.27493
0.74837 2.11254 3.4524
0.74812 2.16049 4.64672
1.55852 -0.135836 -3.5508
1.57321 -0.0854414 -2.35891
1.63922 -0.108419 -0.830293
1.65333 -0.0972735 0.713145
1.60123 -0.00808232 2.24301
1.57301 0.0565045 3.44101
1.56257 0.108882 4.6277
1.53762 0.164194 -3.49195
1.54163 0.239777 -2.30811
1.63218 0.235466 -0.793812
1.65411 0.251302 0.72711
1.58676 0.335688 2.24282
1.5568 0.398608 3.43978
1.55163 0.45067 4.62886
1.53853 0.716596 -3.35358
1.54546 0.790438 -2.1667
1.62517 0.918689 -0.702595
1.61509 0.978601 0.756291
1.53486 1.00971 2.2218
1.52596 1.07002 3.42181
1.53498 1.12855 4.62276
1.58836 1.66477 -3.20139
1.60098 1.75596 -2.02553
1.60857 1.90175 -0.585304
1.58508 2.01133 0.839056
1.55077 2.07002 2.28006
1.53887 2.11206 3.45752
1.53756 2.16021 4.65044
-0.789052 0.49 -2.27915
0 0.249298 -2.32112
-0.797739 0.218928 -1.55206
-0.79989 0.685 2.28949
0 0.343512 2.28622
-0.840062 0.283271 1.50137
0 0.766948 -2.18673
-0.827133 0.8588 -1.41824
0 1.06754 2.27702
-0.791584 1.02992 1.48794
0.789055 0.49 -2.27915
0.797759 0.218908 -1.55206
0.799814 0.685 2.28942
0.840107 0.283226 1.50137
0.827093 0.85876 -1.41824
0.79159 1.02992 1.48795
-0.846223 0.223777 -0.025345
-0.89591 0.562674 -0.740198
-9.01574e-05 0.199971 -0.788703
-0.892742 0.616923 0.749703
-1.41429e-05 0.21598 0.738013
-0.821491 0.956491 0.03485
8.48732e-06 1.24296 -0.691692
1.76753e-06 1.48769 0.761397
0.84607 0.22393 -0.025345
0.895917 0.562772 -0.740197
0.892743 0.616939 0.749707
0.821496 0.956496 0.034855
-0.882066 0.526337 -1.48515
-0.894195 0.589798 0.00475252
-0.88556 0.650961 1.49465
-4.50787e-05 0.209144 -1.55206
-5.21501e-05 0.208602 -0.025345
-7.07145e-06 0.25208 1.50137
0 0.49 -2.45667
0 0.685 2.43786
4.24366e-06 0.951159 -1.41824
5.12743e-06 1.48499 0.0348525
8.83767e-07 1.27821 1.48794
0.882063 0.526386 -1.48515
0.8942 0.589855 0.00475502
0.885561 0.650969 1.49466
-1.14102 0.247357 -2.31176
-0.740762 0.0902355 -2.34063
-0.747254 0.209659 -2.90442
-1.18198 0.35033 2.25377
-0.799499 0.185789 2.26201
-0.790707 0.387298 2.8568
-1.14905 0.757704 -2.15574
-0.754311 0.707698 -2.74463
-0.760681 1.23217 -2.0802
-1.12254 1.00734 2.21814
-0.745719 1.03817 2.81741
-0.764291 1.53864 2.2447
0.761611 0.0902571 -2.34063
0.746348 0.209668 -2.90442
1.13831 0.247389 -2.31176
0.786874 0.185796 2.26201
0.772514 0.387303 2.8568
1.18588 0.350344 2.25377
0.751962 0.707704 -2.74463
0.777651 1.23218 -2.0802
1.14523 0.757719 -2.15574
0.725486 1.03817 2.81742
0.734775 1.53865 2.24471
1.12493 1.00735 2.21815
-1.2323 0.223664 -0.791259
-0.819146 0.0461079 -0.809034
-1.25103 0.246269 0.732559
-0.8478 0.0681482 0.730233
-1.22961 0.915951 -0.697147
-0.815222 1.40591 -0.635511
-1.20845 0.985536 0.758838
-0.811418 1.50431 0.799863
0.833713 0.0462612 -0.809034
1.23164 0.223849 -0.791258
0.845976 0.0681849 0.730233
1.25471 0.246326 0.732562
0.819001 1.40594 -0.635508
1.22757 0.916001 -0.697142
0.793659 1.50432 0.799869
1.21048 0.985564 0.758846
-1.54903 -0.110723 -2.95486
-1.54346 0.0141189 -3.52138
-1.1521 -0.132115 -3.55318
-1.58763 -0.0970713 -1.59461
-1.5499 0.0770866 -2.33351
-1.14965 -0.0800346 -2.36238
-1.63534 -0.102987 -0.0585767
-1.62791 0.0633373 -0.812055
-1.21475 -0.114219 -0.82983
-1.62798 -0.052747 1.47808
-1.64745 0.0769228 0.720124
-1.24422 -0.101198 0.717797
-1.60143 0.0241723 2.84201
-1.59337 0.163769 2.24291
-1.21089 -0.000772525 2.25115
-1.59756 0.0826541 4.03435
-1.58596 0.227524 3.44039
-1.20075 0.0616758 3.44653
-1.59576 0.279737 4.62827
-1.20572 0.111452 4.63089
-1.54433 0.201929 -2.90003
-1.54394 0.440351 -3.42277
-1.15057 0.164231 -3.49268
-1.59018 0.237495 -1.55096
-1.55006 0.51506 -2.2374
-1.64002 0.243247 -0.0333547
-1.63129 0.576941 -0.748207
-1.61284 0.293438 1.48496
-1.62889 0.614883 0.741694
-1.5779 0.36712 2.84129
-1.55451 0.672673 2.2323
-1.58416 0.424606 4.03431
-1.56394 0.734287 3.43078
-1.18663 0.404088 3.44432
-1.58647 0.789577 4.6258
-1.19946 0.453148 4.63126
-1.54967 0.753483 -2.76014
-1.55733 1.19064 -3.27749
-1.15494 0.703477 -3.34903
-1.59117 0.854506 -1.43465
-1.56534 1.27316 -2.09612
-1.62015 0.948577 0.0268408
-1.61725 1.41015 -0.643955
-1.57056 0.994117 1.48904
-1.61229 1.49491 0.797665
-1.54055 1.03984 2.82179
-1.56458 1.53983 2.25092
-1.56625 1.09926 4.02228
-1.57319 1.59101 3.43965
-1.16373 1.07066 3.42107
-1.59204 1.64434 4.63659
-1.19195 1.12937 4.6226
-1.573 1.71032 -2.61347
-1.17129 1.65589 -3.19689
-1.59141 1.8288 -1.30542
-1.17697 1.74763 -2.02058
-1.60938 1.95649 0.126869
-1.20286 1.90011 -0.58232
-1.60631 2.04063 1.55955
-1.21525 2.01368 0.83869
-1.59722 2.091 2.86878
-1.20634 2.07113 2.27748
-1.59898 2.13609 4.05397
-1.20377 2.11227 3.45496
-1.21027 2.16032 4.64857
-0.752717 -0.101426 -2.9607
-0.759209 0.0179975 -3.52448
0.00901328 -0.128309 -3.55555
-0.776768 -0.0971822 -1.5976
0.0208488 -0.0745073 -2.36584
-0.823633 -0.11243 -0.0534567
0.0146569 -0.119772 -0.829365
-0.827127 -0.0492237 1.49087
-0.00180996 -0.105003 0.722452
-0.81021 0.036731 2.85567
-0.012625 0.00658467 2.25929
-0.808908 0.0904737 4.04307
-0.801418 0.23824 3.45046
-0.0168594 0.0668912 3.45205
-0.809422 0.284863 4.63388
-0.0224704 0.114073 4.63408
-0.761565 0.427357 -3.41895
-0.000905494 0.164327 -3.49341
-0.801932 0.43263 4.04127
-0.786425 0.740464 3.43461
-0.0181925 0.409602 3.44888
-0.804934 0.792944 4.62806
-0.0244131 0.45567 4.63368
-0.768891 1.16873 -3.26844
-0.00234914 0.690401 -3.34448
-0.789428 1.10078 4.02139
-0.794315 1.59193 3.43637
-0.0202323 1.07134 3.42034
-0.810171 1.64535 4.63458
-0.0275663 1.13023 4.62245
-0.775262 1.6932 -2.604
0.0131693 1.64707 -3.19239
-0.788423 1.81894 -1.29747
0.0169694 1.73936 -2.01562
-0.80873 1.95731 0.129502
0.00377051 1.89855 -0.579328
-0.81528 2.04419 1.55663
-0.0177599 2.0161 0.838335
-0.812887 2.0924 2.86366
-0.0295156 2.07229 2.27493
-0.815059 2.1365 4.04956
-0.0319116 2.11253 3.4524
-0.034902 2.16048 4.64671
0.78258 -0.10139 -2.9607
0.767317 0.0180208 -3.52448
1.16773 -0.132065 -3.55317
0.812273 -0.0970975 -1.5976
1.18072 -0.0799636 -2.36238
0.83648 -0.112345 -0.0534562
1.23777 -0.114064 -0.829829
0.812692 -0.0491944 1.49087
1.24498 -0.101127 0.717799
0.780726 0.0367449 2.85567
1.19499 -0.000745507 2.25115
0.769579 0.0904905 4.04307
0.766366 0.238252 3.45047
1.17285 0.0617015 3.44653
0.762539 0.284881 4.63388
1.16451 0.111483 4.63089
0.75831 0.427371 -3.41895
1.14766 0.164265 -3.49268
0.759326 0.432642 4.04128
0.748001 0.740473 3.43461
1.15842 0.404107 3.44433
0.752954 0.792959 4.62806
1.15513 0.453174 4.63127
0.779711 1.16875 -3.26843
1.14873 0.703502 -3.34903
0.741629 1.10079 4.0214
0.742171 1.59194 3.43637
1.13097 1.07068 3.42107
0.747703 1.64536 4.63458
1.14113 1.1294 4.62261
0.8054 1.69323 -2.604
1.19443 1.65593 -3.19689
0.809162 1.81896 -1.29747
1.20564 1.74767 -2.02057
0.794741 1.95733 0.129506
1.2083 1.90015 -0.582315
0.768004 2.04421 1.55663
1.18327 2.01372 0.838697
0.75146 2.09242 2.86367
1.15266 2.07116 2.27749
0.748245 2.13651 4.04956
1.14362 2.1123 3.45496
1.14284 2.16035 4.64858
1.56586 -0.110639 -2.95486
1.54807 0.0141792 -3.52137
1.60622 -0.09693 -1.5946
1.55742 0.0771678 -2.33351
1.64628 -0.102846 -0.058574
1.6357 0.0635237 -0.812053
1.62728 -0.0526779 1.47808
1.65372 0.0770142 0.720128
1.58712 0.0242111 2.84201
1.59399 0.163803 2.24291
1.56779 0.0826935 4.03436
1.56491 0.227556 3.44039
1.5571 0.279776 4.62828
1.53962 0.201986 -2.90003
1.53807 0.440395 -3.42276
1.5869 0.237622 -1.55096
1.54354 0.515108 -2.2374
1.64314 0.243384 -0.0333513
1.62867 0.577077 -0.748203
1.62043 0.293495 1.48496
1.6346 0.614951 0.7417
1.57178 0.367148 2.8413
1.56081 0.672697 2.23231
1.55422 0.424639 4.03432
1.54138 0.734314 3.43079
1.54331 0.789612 4.62581
1.54199 0.753517 -2.76014
1.56345 1.19068 -3.27749
1.58531 0.854564 -1.43465
1.57322 1.2732 -2.09611
1.62013 0.948645 0.0268483
1.61687 1.41022 -0.643949
[...]
POINT_DATA 29498
VECTORS point_vectors float
-6.49451 -7.6812 11.6263
0.146062 0.217719 0.712739
-1.76921 0.827638 2.79328
-0.0501868 -0.184456 0.204517
6.49608 -7.67959 11.6213
-0.142149 0.154776 0.598671
1.76882 0.827417 2.79426
0.00587896 0.00801752 0.0671045
0.0714746 -0.0278332 1.64232
0.0284656 -5.42484e-05 1.23775
-0.000655367 0.00693815 0.108533
0.00104558 0.00246235 0.00797057
-0.0736883 -0.0300158 1.62428
-0.0343788 -0.0042376 1.22951
0.000667625 0.00689438 0.108816
-0.00107546 0.00254562 0.00800283
-0.477065 -0.215467 19.8894
-1.15185 -0.652796 20.3948
-0.473069 -0.47858 21.3527
0.0962489 -0.164523 21.584
0.666355 0.142181 21.4835
0.862624 0.215055 21.2163
0.901414 -0.133003 21.035
-0.574058 -0.170644 19.7951
-1.61093 -0.591241 20.3503
-0.598669 -0.547415 21.4239
0.115707 -0.266457 21.6551
0.825966 -0.0596182 21.5794
1.12913 -0.0933412 21.3066
1.15723 -0.32486 21.3393
-0.704356 0.0269808 19.6823
-1.86378 0.0195645 20.3573
-1.18718 -0.377605 21.4112
-0.214115 -0.409945 21.7454
0.602953 -0.49688 21.5747
1.0127 -0.638024 21.1163
0.741736 -0.343359 21.2857
-0.549858 0.321876 19.9011
-1.00373 0.56117 20.3693
-0.972947 0.356527 21.2053
-0.327209 -0.0556661 21.5837
0.131519 -0.366865 21.4133
0.240287 -0.400671 21.2434
0.261547 -0.284444 20.8204
-0.416856 -0.461353 19.4366
-1.83288 -3.2318 20.2091
-0.2798 -0.465169 21.5429
0.233001 0.242191 20.7943
0.808207 1.27927 19.2933
1.16556 1.53232 18.7389
1.12796 1.00892 18.4332
-0.588711 -0.395467 19.146
1.7611 1.40044 12.9104
2.33496 1.189 13.3057
-0.789938 0.0909183 18.8323
1.26309 -0.560211 10.5797
1.20593 -0.755238 16.7305
-0.509878 0.679662 19.4679
-1.15888 1.62153 20.0109
-1.61365 1.74734 21.3132
-0.458845 0.183448 22.0529
0.0081783 -0.483762 21.5307
0.161747 -0.699199 21.4388
0.199943 -0.625326 20.9442
0.419181 -0.451057 19.4557
1.87206 -3.02993 20.205
0.249894 -0.460729 21.4899
-0.263086 0.234815 20.7578
-0.820365 1.07738 18.8321
-1.16221 1.22303 18.4888
-1.17604 1.1055 16.2267
0.584258 -0.388178 19.1342
-1.14656 0.885537 9.63123
-1.71407 1.09678 11.9612
0.783443 0.0922013 18.8281
-0.754175 0.0838434 7.28365
-1.4748 -0.611854 14.624
0.518609 0.666578 19.4872
1.17221 1.55494 20.0293
1.60443 1.73123 21.3107
0.4336 0.216091 22.0647
-0.0505676 -0.418229 21.5006
-0.212504 -0.640626 21.4574
-0.219304 -0.596388 20.4784
0.463475 -0.2116 19.8781
1.12617 -0.637024 20.4038
0.460417 -0.487752 21.3359
-0.104655 -0.177509 21.5557
-0.611304 0.0776007 21.4407
-0.863567 0.181838 21.1713
-0.845694 -0.00339378 21.0494
0.568717 -0.17697 19.778
1.6139 -0.593178 20.3377
0.594426 -0.55185 21.4154
-0.116236 -0.271765 21.6318
-0.720213 -0.110547 21.5088
-1.00537 -0.0599536 21.0916
-0.84351 -0.142583 21.4631
0.70239 0.0298713 19.672
1.87472 0.0215925 20.3487
1.18622 -0.37875 21.4078
0.209838 -0.397902 21.7166
-0.50821 -0.443355 21.5394
-0.809968 -0.549248 20.984
-0.624112 -0.422736 21.1606
0.541513 0.318983 19.9056
0.983916 0.547414 20.374
0.960851 0.357743 21.1978
0.324436 -0.0412864 21.5649
-0.119455 -0.336191 21.3667
-0.273356 -0.343059 21.3502
-0.276206 -0.326402 20.9647
-2.08466 -0.102104 2.30786
-0.000256184 -0.112421 0.727122
0.00187658 -0.00215344 0.0523159
0.134595 -0.0631492 0.485324
-0.00919026 0.00701288 0.0307777
0.0254474 0.0742066 1.7502
-0.000205474 0.235688 0.499395
-0.454266 -0.271472 1.32855
-0.0794666 0.0805494 -0.0738645
0.0240421 0.0477254 0.203237
2.09303 -0.101457 2.32076
-0.00193433 -0.00216109 0.0525455
-0.0701481 -0.0587219 0.343565
-0.0478734 0.0531658 1.71407
0.45168 -0.269717 1.32218
-0.0269698 0.0538649 0.200488
0.0207869 -0.000607637 0.859453
-0.0010734 0.00145496 0.287813
-3.97431e-05 -0.000359281 0.0553323
0.00192515 0.0338092 0.228952
0 0 0
0.000293729 0.000768246 0.00271603
-3.64239e-05 0.0236411 0.0484783
-5.01444e-05 -0.00103977 0.0168862
-0.00968439 -0.000918725 1.23276
0.00105534 0.00108962 0.286926
-0.00192537 0.0336845 0.226859
-0.000278062 0.000728893 0.00257769
-0.00335569 -0.00592659 0.120574
0.00297931 0.0377466 0.263483
0.000718936 0.00193942 0.0177249
-1.15599e-05 -0.000467758 0.0104688
0 0 0
-0.000237421 0.000597848 0.00894935
-0.000361987 0.184032 0.217558
-0.140809 -0.00176979 -0.00445629
-3.18387e-05 0.00528522 0.0278764
-0.000127675 0.0173621 0.138243
-4.63013e-06 0.000195528 -0.000421255
0.00335031 -0.00593897 0.120371
-0.00295781 0.0375728 0.263467
-0.000711686 0.00204037 0.0174907
-3.07793 -1.50658 20.1282
-3.07246 -5.25341 20.084
-1.66602 -1.25694 18.0961
1.42706 0.262881 20.2371
0.754458 1.37274 12.761
1.18372 1.09617 8.75007
-3.78964 0.38865 20.2543
-2.64534 0.816015 16.9965
-2.46632 2.73267 19.7063
1.01266 -0.482361 19.2671
0.3753 -0.441979 5.73464
0.418392 -0.661153 18.439
3.13218 -4.99154 20.055
1.66289 -1.2575 18.0816
3.0909 -1.52257 20.1109
-0.778357 1.07496 11.843
-0.617961 0.237871 6.80187
-1.22734 0.137329 20.0571
2.63772 0.823251 16.9785
2.47359 2.64733 19.7222
3.81061 0.394832 20.2528
-0.215989 0.641712 3.74443
-0.560559 -0.51862 17.6175
-0.883517 -0.310447 19.0093
-0.472758 -0.875888 21.6667
0.087219 -0.174704 17.431
0.326179 -0.29158 21.4895
0.374024 0.286465 16.0351
-1.94881 -0.998701 21.7629
-4.1983 2.07205 21.427
-0.228355 -0.694968 21.0905
-0.331579 0.165931 19.1437
-0.0904809 -0.193502 17.6694
0.466745 -0.880532 21.6487
-0.41047 0.27351 15.9739
-0.327618 -0.308557 21.4988
4.15854 2.04266 21.4224
1.94675 -1.00323 21.7495
0.214228 0.241237 18.5787
0.220709 -0.677503 21.0706
-0.813941 -0.424519 19.9623
-0.537281 -0.205292 19.8505
-0.507587 -0.336667 19.663
-0.85953 -0.615123 21.0689
-1.36003 -0.634558 20.3802
-1.69357 -1.45696 20.3024
-0.156635 -0.325319 21.5155
-0.53572 -0.500764 21.3779
-0.353061 -0.591684 21.5622
0.379219 -0.00663185 21.5652
0.0996482 -0.198168 21.5922
0.25054 -0.0687635 21.7073
0.827448 0.19452 21.3694
0.759967 0.0580142 21.5372
0.98491 0.504805 21.4722
1.00195 0.302492 20.6624
1.00262 0.105558 21.176
1.24867 0.691695 21.165
1.02932 -0.228931 21.1872
0.851884 0.254129 21.6822
-1.09258 -0.347027 19.8235
-0.654755 -0.0982061 19.739
-0.64175 -0.271805 19.5199
-1.13549 -0.623804 21.1392
-1.74943 -0.301175 20.3787
-0.215535 -0.410064 21.5687
-0.861748 -0.557565 21.4217
0.454751 -0.158983 21.6754
-0.00490265 -0.395747 21.7329
1.03694 -0.0346163 21.3651
0.809978 -0.318459 21.6388
0.993027 0.0462952 20.8353
1.08435 -0.334516 21.1819
1.78334 0.327148 19.942
0.997532 -0.360469 21.3319
1.6645 0.334573 18.1195
-1.34163 0.0719039 19.7694
-0.678989 0.231493 19.7526
-0.828028 0.0540259 19.3116
-1.55544 -0.219767 21.0406
-1.46391 0.457111 20.3339
-0.70474 -0.440307 21.6924
-1.27406 0.0895562 21.3131
0.229911 -0.420789 21.7212
-0.360687 -0.205599 21.7123
0.801038 -0.537824 21.3989
0.293833 -0.473437 21.4801
0.669677 -0.533006 21.2449
0.556914 -0.503982 21.1846
1.25272 -0.822478 20.2245
0.417903 -0.319079 21.1745
1.09229 -0.683459 19.3761
-0.817803 0.472064 20.0605
-0.606889 0.499182 19.6803
-1.09017 0.51032 20.7771
-1.19601 1.02022 20.2139
-0.673878 0.167136 21.5034
-1.35729 0.816415 21.2889
-0.0562098 -0.236989 21.4768
-0.415111 0.0154959 21.8126
0.266589 -0.417038 21.3552
0.0794238 -0.429581 21.5236
0.399431 -0.594357 20.5692
0.244108 -0.602622 21.3684
0.266955 -0.522232 21.4171
-0.989486 -1.29132 19.0979
-0.476097 -0.44085 19.3008
0.00594295 -0.574024 19.1917
-0.830079 -1.30272 21.905
0.0282269 -4.67028 20.6018
0.024564 -0.0634702 20.9433
-0.00377805 -0.677784 21.0138
0.523624 0.668859 19.8134
-0.0246545 0.058761 18.5212
1.01179 1.48809 19.2967
-0.202358 0.89513 15.1842
1.32236 1.35039 18.5648
1.59901 1.72388 15.6056
-0.344852 1.28511 14.9194
1.85789 1.11779 15.5767
-0.267303 1.74524 15.8916
-0.695365 -0.208914 18.9526
-0.00406899 -0.506858 18.7936
1.78202 1.34494 15.3692
1.77221 0.197556 8.80597
-0.24544 0.500436 2.08237
2.02585 0.328575 14.3365
0.550026 1.89201 8.54365
-0.731972 0.571753 19.0483
-0.00761777 0.177534 18.1938
1.62074 -0.955418 12.7405
0.521328 -0.99766 19.4733
0.986871 -0.414575 -3.00397
0.386941 -1.08892 18.4785
0.374269 -0.535807 0.948527
-0.842812 1.2377 19.5622
0.0084972 0.938925 19.2083
-1.4443 1.74377 20.4955
0.0332276 2.37288 19.7336
-1.11126 0.988589 22.0726
0.00401894 3.32222 21.1779
-0.11672 -0.277611 21.7512
-0.0340358 0.488769 22.38
0.108145 -0.583788 21.3486
-0.0377646 -0.374258 21.8691
0.0740951 -0.545303 21.6139
0.0230707 -0.650205 21.7573
-0.0304496 -0.435403 21.6272
1.00088 -1.24298 19.1421
0.47349 -0.426078 19.2998
0.503474 -0.337573 19.6813
0.821686 -1.26619 21.8647
1.62882 -1.3613 20.3021
-0.050381 -0.0692072 20.97
0.350423 -0.591502 21.5406
-0.56634 0.636648 19.5795
-0.26504 -0.0823441 21.6786
-0.921513 1.07962 18.6974
-0.922817 0.392972 21.3142
-1.23973 1.34374 18.8365
-1.36966 1.38178 14.1519
-1.19316 0.539359 21.2303
-1.46332 1.28029 13.641
-1.06318 0.365927 21.1958
0.688067 -0.211483 18.9345
0.640519 -0.2726 19.5122
-1.82697 1.37882 11.7732
-0.525947 0.320915 4.08293
-1.57067 0.119702 19.577
-1.78128 0.515019 11.2539
-1.43597 -0.0676114 18.7319
0.724043 0.56025 19.0558
0.826462 0.0569861 19.3042
-1.57726 -1.01969 9.98737
-0.592911 -0.759692 18.8883
-1.10655 -0.509162 19.6949
-0.711826 -1.06019 18.014
-1.53759 -0.846757 17.6612
0.857237 1.20616 19.5852
0.602607 0.481217 19.6966
1.44009 1.70778 20.5042
1.18599 0.979728 20.2264
1.09673 1.02514 22.077
1.34392 0.810481 21.281
0.0796903 -0.26197 21.7414
0.40609 0.0405547 21.8131
-0.129754 -0.513925 21.4484
-0.095995 -0.381357 21.5026
-0.00158356 -0.519155 21.7989
-0.31248 -0.570772 21.4856
-0.221962 -0.507113 21.5602
0.798476 -0.417223 19.9546
0.521921 -0.21064 19.8321
0.847393 -0.618355 21.0499
1.33287 -0.626473 20.3929
0.151934 -0.330376 21.4996
0.527016 -0.507093 21.3675
-0.378362 -0.0245137 21.5344
-0.1041 -0.209271 21.5655
-0.73922 0.110303 21.3433
-0.679903 -0.00374258 21.4767
-0.814733 0.092496 21.0007
-0.950666 0.0529139 21.1667
-0.844343 -0.0734472 21.257
1.09263 -0.349193 19.8044
0.655184 -0.0996455 19.7214
1.13213 -0.630009 21.1312
1.76259 -0.30682 20.375
0.211855 -0.414665 21.5484
0.859117 -0.562908 21.4164
-0.42917 -0.173678 21.611
0.0079403 -0.39444 21.6914
-0.876415 -0.0968377 21.3567
-0.68104 -0.311915 21.5675
-0.923867 -0.116324 21.0596
-0.944324 -0.30311 21.1601
-0.749134 -0.314893 21.293
1.34469 0.0717422 19.7593
0.674905 0.230275 19.7592
1.55698 -0.220352 21.04
1.45348 0.451238 20.3341
0.700042 -0.434021 21.6775
1.26717 0.0923552 21.3068
-0.214017 -0.396942 21.6575
0.360357 -0.19489 21.697
-0.645559 -0.468063 21.3243
-0.26495 -0.422492 21.4745
-0.794114 -0.564134 21.6688
-0.42021 -0.430241 21.1764
-0.412105 -0.354378 21.3476
0.806871 0.462319 20.0698
1.06908 0.504396 20.7705
0.674514 0.174012 21.5008
0.0466975 -0.220164 21.4933
-0.258256 -0.372823 21.317
-0.544942 -0.664413 20.45
-0.960115 -0.410441 19.9047
-1.27995 -1.34402 18.6414
-1.02456 -0.765112 19.6185
-1.46702 -0.668462 19.2205
-0.563844 -0.310664 19.5921
-2.29111 -1.62525 20.2392
-0.984643 -0.613772 21.0881
-0.541302 -0.771447 18.642
-0.950334 -1.02187 21.4013
-1.32053 -1.19317 21.6935
-0.382763 -0.720729 21.6592
-0.186714 -0.350981 21.5312
0.283453 0.0706356 16.0904
-0.016816 -0.315682 21.661
-0.0177129 -0.570957 21.5792
0.316833 -0.173612 21.6822
0.415652 -0.057916 21.6051
0.62432 0.584642 13.8456
0.573728 0.183616 21.7262
0.747755 -0.026414 20.9109
1.25488 0.427558 21.1556
0.956073 0.105086 21.3529
1.12346 1.55924 14.02
1.19208 0.648106 21.1678
1.66513 0.305196 20.331
1.5374 0.520123 20.7454
0.997487 0.174394 20.7489
1.68811 1.54477 15.8868
1.36792 0.537854 20.8868
1.50818 0.154609 20.273
1.18478 0.260606 20.4058
-1.24581 -0.173536 19.776
-2.22731 -0.435608 17.3556
-2.02265 0.242941 18.9736
-0.749956 -0.14352 19.3895
-3.80031 -0.660635 20.1677
-1.37831 -0.493886 21.1433
-2.52944 -0.549561 21.3965
-0.980475 -1.15609 21.5782
-0.410647 -0.50487 21.6429
-1.0239 -1.02612 21.685
0.200337 -0.475526 20.6805
0.391116 -0.312443 21.7454
0.415697 -0.43073 20.3644
1.35443 -0.119391 19.0866
1.01405 -0.303319 21.4063
0.597816 -0.0794459 4.92057
1.13267 -0.648698 19.4487
1.66272 -0.301891 20.0762
0.87763 -0.278873 21.0632
2.07099 0.637688 13.2656
1.43129 -0.857525 19.861
1.37184 -0.515791 19.088
-1.11482 0.382121 19.9095
-1.52676 1.62659 18.7288
-0.935529 0.839471 19.8296
-0.769657 0.378412 19.4216
-2.13585 1.14959 20.1145
-1.46844 0.267491 20.8653
-2.93298 2.07643 20.3703
-1.36306 0.984735 20.7122
-2.24956 0.387846 21.4924
-0.851508 -0.0557642 21.6364
-2.47083 0.380619 21.0543
-0.947084 0.427942 21.764
-0.587374 -0.247101 22.0933
0.0232341 -0.347057 21.6263
0.406432 -0.357706 18.4627
-0.101665 -0.25871 21.6703
0.252313 -0.712823 21.6131
0.445381 -0.551525 21.3275
0.415199 -0.844414 19.1501
0.18664 -0.505682 21.2811
0.551161 -0.918504 21.1996
0.492564 -0.776318 20.9162
0.483615 -1.11794 19.4004
0.145378 -0.462629 21.3844
0.41046 -0.655584 20.3548
1.28076 -1.32038 18.6674
0.0231616 -1.86965 18.5085
-0.00488115 -2.06491 16.5446
-0.00230133 -0.582741 18.9677
4.83902e-05 -6.96724 21.9123
0.551743 -0.802043 18.9762
0.0049742 -1.70043 22.1394
-0.00884126 -0.219185 12.8649
-0.303657 0.0610914 16.189
-0.0135233 -0.229645 19.4873
-0.0316044 0.0995605 10.4823
-0.691755 0.53989 13.5642
-0.0605173 0.492685 16.4401
-0.415461 0.627508 6.69247
-0.924829 0.920291 12.749
-0.387435 0.963089 14.9303
-1.18586 -0.135854 1.38432
-0.762771 1.07955 8.11597
-1.59681 1.65571 13.2488
-0.193902 1.72038 14.6068
0.561886 1.44308 3.97389
0.141362 1.81863 12.2176
2.22635 -0.435526 17.3451
-0.00901424 1.93296 14.5496
-0.0035163 -0.247158 18.3736
0.491807 -0.0512849 1.98901
0.234768 0.118926 -1.80456
1.73135 -0.535268 -3.08338
-1.6593 0.801903 9.50532
0.436723 -0.774071 -3.73574
0.637058 0.721556 1.73341
1.52599 1.59251 18.7519
0.0139854 1.78731 19.2309
0.00576397 0.818284 18.5982
0.0282066 4.34203 19.2097
2.92363 2.02715 20.3797
0.0172316 2.79679 20.1475
0.00510533 6.32309 19.5966
2.44988 0.412194 20.8411
-0.0276434 2.07813 22.5371
-0.0178524 -0.0511445 13.0007
-0.546652 -0.306529 17.905
-0.0298054 -0.150517 21.8595
-0.0885576 -0.30856 8.91553
-0.479044 -0.538285 18.7983
-0.0531503 -0.500477 21.7184
-0.355524 -0.898279 13.0467
-0.66622 -1.10288 19.0442
0.0588668 -0.808254 21.5304
-0.175587 -1.18844 17.5137
0.944889 -0.407988 19.894
1.0109 -0.741099 19.6538
1.46812 -0.672189 19.1971
0.558835 -0.31145 19.5903
2.25126 -1.57132 20.2383
0.974838 -0.616715 21.0743
0.939201 -1.00056 21.3716
1.31873 -1.19863 21.6883
0.384676 -0.721355 21.633
0.178764 -0.357065 21.5187
0.00467181 -0.323594 21.6432
0.0143965 -0.578981 21.5801
-0.325195 -0.188651 21.6543
-0.401777 -0.0777056 21.5583
-0.582957 0.151182 21.6447
-0.728276 -0.0656911 20.8714
-1.13226 0.293938 20.9169
-0.836431 0.0147479 21.3666
-1.06175 0.454697 21.0901
-1.31186 0.134519 20.0269
-1.39095 0.346036 20.6448
-0.8693 -0.0119143 21.0301
-1.28287 0.679417 21.27
-1.69431 0.160383 18.9703
-1.32019 0.214952 19.6721
1.24573 -0.180035 19.764
2.02701 0.250244 18.9573
0.753986 -0.144154 19.3786
3.82952 -0.666969 20.1612
1.38487 -0.49831 21.1402
2.53395 -0.549633 21.3951
0.976465 -1.16041 21.5588
0.406633 -0.50309 21.6273
1.01434 -1.01572 21.6606
-0.196504 -0.488522 20.7187
-0.362825 -0.305511 21.6765
-0.417018 -0.382835 20.3014
-1.11368 -0.0932008 18.8249
-0.817937 -0.31295 21.4412
-0.84127 -0.325401 18.9228
-1.39967 -0.213052 19.3693
-0.909911 -0.362279 21.3771
-1.31854 -0.718245 18.8047
-1.48151 -0.494048 18.7859
1.10534 0.379638 19.9156
0.927554 0.808362 19.8464
0.766808 0.374012 19.4305
2.10717 1.11928 20.1198
1.45711 0.269333 20.8603
1.34557 0.95508 20.7144
2.23361 0.388216 21.4804
0.850564 -0.0529004 21.6274
0.94558 0.446646 21.7626
0.581899 -0.226912 22.0824
-0.024374 -0.329359 21.5972
0.0832011 -0.234164 21.6462
-0.245876 -0.617215 21.5137
-0.385722 -0.464845 21.2474
-0.177987 -0.444363 21.2886
-0.496746 -0.870111 21.2942
-0.590014 -0.710291 21.0072
0.0571323 -0.378589 21.6221
-0.53069 -0.678058 20.0636
-1.23562 -0.749454 19.425
-1.10984 -1.1187 21.5363
0.0117168 -0.433262 21.6936
0.706477 0.0854786 21.4387
1.45156 0.535315 20.775
1.40965 0.370664 20.7262
-1.87198 -0.300662 18.9701
-1.89125 -1.11853 21.7895
-0.27688 -0.852021 21.1149
0.649362 -0.17292 20.0265
1.55822 -0.274845 19.4145
1.68289 -0.37828 19.7746
-1.4699 0.815954 19.4407
-2.21637 0.719103 20.8147
-1.44513 -0.029218 22.0772
-0.0199753 -0.485853 21.863
0.388959 -0.822447 21.4265
0.582574 -0.869175 21.0318
0.0120245 -2.12393 17.706
-0.00146796 -0.860951 15.2327
-0.016623 -0.0126069 11.0251
-0.0884742 0.39394 8.162
-0.931217 0.485139 7.23096
0.183993 1.58173 9.29033
-0.00519053 -0.594277 15.0708
0.503763 -0.417527 -2.04051
0.816219 0.231859 -2.78299
0.0169705 2.62272 17.8911
0.0187999 4.14943 19.462
-0.0163519 2.05519 14.9704
-0.0212738 -0.279852 9.63441
-0.344783 -0.440118 10.8235
-0.0972582 -1.08608 13.9327
1.22279 -0.732288 19.4298
1.1123 -1.10726 21.5023
-0.0141152 -0.441544 21.6801
-0.702469 0.0494088 21.3492
-1.23186 0.321894 20.4981
-1.57124 0.434573 20.2572
1.87788 -0.299969 18.954
1.89238 -1.12482 21.7922
0.27714 -0.855565 21.1147
-0.622994 -0.176313 19.9928
-1.09166 -0.168434 18.7582
-1.63843 -0.303729 19.2671
1.45556 0.800247 19.4571
2.19026 0.709197 20.8111
1.44568 -0.0196906 22.0687
-0.00945426 -0.459103 21.8204
-0.335445 -0.66448 21.3762
-0.547563 -0.805981 21.3158
0 0 0
0.00564058 -0.195654 0.64539
-0.0402365 -0.0353382 1.04588
0.145313 -0.0190753 0.464084
-0.0115423 0.0160708 0.0627135
0.0621774 0.130919 2.08726
-0.859645 0.0480645 0.99271
-0.0203926 0.145081 0.30358
-0.262762 -0.0470846 0.797478
-0.0324684 -0.0510447 0.0203578
-0.0179706 0.000468306 -0.00423282
0.0102131 -0.00136998 0.163003
-0.00579217 -0.197018 0.649907
0 0 0
0.0402539 -0.0351591 1.04591
-0.00574714 0.0103403 0.0435653
-0.0995194 -0.0473698 0.353196
-0.093726 0.0950212 2.01285
0.0202113 0.144525 0.302854
0.863595 0.0486102 0.999017
0.262959 -0.0465468 0.796996
-0.017831 0.0239248 -0.0258988
0.0589842 0.00110162 -0.0225331
-0.0240513 0.0111175 0.154714
0.0403817 -0.0533677 1.22777
0.0467698 -0.0131073 1.4428
0 0 0
0.000474495 3.14126e-05 0.0144793
0.0522613 0.0449204 0.482606
0.00751191 0.0112802 0.457731
0.000491643 0.00854356 0.115152
0.00135397 0.000583805 0.0463793
-0.0384552 -0.0645985 0.275517
0 0 0
0.000851086 0.00308485 0.0152535
-0.0344904 0.0364783 0.086783
0.00501508 0.0112663 0.0416863
0.00410978 0.0169825 0.06648
0.00151425 0.00379793 0.0121337
0.0148282 -0.00271773 0.0619399
-0.0493298 -0.0789897 1.21022
-0.000337726 3.60747e-05 0.00862674
-0.0509623 -0.015211 1.47127
0 0 0
-0.0514174 0.0349965 0.416871
-0.0018312 0.000550485 0.045338
-0.00914937 0.00978321 0.455209
-0.000513331 0.00820153 0.114356
0.0384336 -0.0646398 0.275395
0.0340573 0.0366192 0.086808
0 0 0
-0.000806564 0.00292443 0.0145448
-0.00524175 0.0118205 0.0409914
-0.0153214 -0.00261835 0.0619508
-0.00417634 0.0172695 0.0660272
-0.0015563 0.00392148 0.0124642
6.96672e-18 9.36222e-18 -1.48297e-16
-0.447025 0.572224 0.516476
-0.000102986 -0.00865172 0.143133
-0.0023764 -1.01299 0.585129
0 0 0
0.00143451 -0.00296525 0.0668212
0 0 0
-0.0478685 -0.00463307 -0.0062031
-0.00296626 0.00496516 0.0446705
0 0 0
0.000483354 0.0014247 0.015914
0.0029087 0.00173256 0.0326239
-0.00263213 0.81612 0.697276
-8.72876e-06 0.00359034 0.0153106
0 0 0
-0.0157473 0.0096096 0.0535959
-0.041275 0.023015 -0.0069252
-0.00100953 0.000555832 -0.00571558
0 0 0
-0.0030864 0.000980978 -0.00230213
0.446554 0.572477 0.516755
0 0 0
-0.00154243 -0.0029719 0.0669581
0 0 0
0.0478379 0.0112401 -0.0305053
0 0 0
-0.00348423 0.00140356 0.0269267
-0.000473396 0.00133659 0.0154924
0.0156743 0.00961893 0.0536249
0 0 0
0.00198828 0.000985419 -0.00196473
0 0 0
0.00012708 0.0056991 0.0711564
0.000634736 0.00012531 0.0209427
-0.00141519 -0.00180907 0.0779715
0.000298213 0.00364563 0.0364899
-1.91285e-08 -2.04531e-06 0.000185731
0 0 0
0.00349366 0.0549204 0.354862
-0.00122469 0.00774872 0.0874947
0 0 0
-0.000151577 0.000722297 0.0129319
0.000888906 0.0137691 0.0503664
-0.0638036 0.110028 0.940982
0 0 0
-1.8027e-05 0.00935589 0.024624
-0.00014393 0.00117151 0.071375
-0.000152316 -0.00101838 0.00440057
-0.000735396 0.000123937 0.0209033
-0.000129098 0.00564447 0.0718178
0.00141197 -0.00186989 0.0782504
-0.000311907 0.00380049 0.0385377
-0.0034854 0.0546435 0.353133