# vtk DataFile Version 2.0
tet_velo
ASCII
DATASET UNSTRUCTURED_GRID
POINTS 29498 float
-0.710545 0.095 -2.085
-0.579406 0.215 2.325
-0.685 0.613647 -2.005
-0.46553 0.945 2.245
0.715 0.095 -2.08592
0.597884 0.225 2.335
0.685 0.613671 -2.005
0.465526 0.945 2.245
-0.686931 0.114901 -0.615
-0.648844 0.149275 0.855
-0.758658 0.870912 -0.588334
-0.708248 1.00411 0.828333
0.700809 0.113486 -0.61228
0.681631 0.136958 0.86136
0.758635 0.870907 -0.588334
0.708235 1.00411 0.828333
-1.41794 -0.350808 -3.2497
-1.41323 -0.260211 -2.09458
-1.37812 -0.233828 -0.622946
-1.29611 -0.221721 0.859333
-1.20854 -0.178189 2.33188
-1.20014 -0.141568 3.49143
-1.22 -0.103049 4.64291
-1.42318 -0.0281185 -3.22927
-1.42467 0.0881453 -2.08004
-1.39757 0.143906 -0.619244
-1.29597 0.169149 0.846091
-1.1665 0.199165 2.3079
-1.17771 0.234606 3.4666
-1.21428 0.274615 4.61989
-1.41822 0.579309 -3.17318
-1.4227 0.69217 -2.02154
-1.44778 0.890042 -0.597192
-1.3374 0.990392 0.823068
-1.12256 0.96524 2.24824
-1.16271 0.995642 3.4076
-1.22465 1.04104 4.56867
-1.40774 1.65357 -3.13081
-1.41115 1.78682 -1.9875
-1.42031 1.99584 -0.580648
-1.39742 2.14575 0.814215
-1.34162 2.19104 2.22117
-1.31683 2.20779 3.36468
-1.32029 2.23644 4.51971
-0.714301 -0.349211 -3.25293
-0.70819 -0.254833 -2.09915
-0.684722 -0.249475 -0.621194
-0.645495 -0.237096 0.868049
-0.602354 -0.17221 2.34621
-0.600399 -0.139723 3.50167
-0.614059 -0.105449 4.6495
-0.71799 -0.035102 -3.23014
-0.595197 0.236009 3.4749
-0.61722 0.271355 4.62511
-0.710636 0.543877 -3.16617
-0.582345 0.986319 3.40757
-0.632654 1.03424 4.56969
-0.70032 1.62858 -3.12375
-0.700826 1.76308 -1.97972
-0.722155 1.98879 -0.575697
-0.736894 2.15054 0.814351
-0.719838 2.19076 2.21821
-0.704698 2.20361 3.36184
-0.70641 2.23175 4.51801
0.701386 -0.349767 -3.25278
0.708543 -0.255408 -2.09896
0.701578 -0.251917 -0.618603
0.678842 -0.244776 0.873568
0.61954 -0.169485 2.35392
0.595601 -0.137666 3.50769
0.592668 -0.10519 4.65412
0.69715 -0.0354204 -3.23029
0.560999 0.239254 3.48078
0.568098 0.271917 4.6295
0.692758 0.543651 -3.16617
0.505343 0.987057 3.41032
0.531566 1.03417 4.57292
0.712388 1.62795 -3.12325
0.718094 1.76246 -1.97923
0.690776 1.98798 -0.575022
0.610353 2.14938 0.815304
0.529835 2.18948 2.21954
0.51287 2.20239 3.36365
0.515856 2.23056 4.52024
1.4114 -0.352222 -3.24893
1.41986 -0.261852 -2.09343
1.40496 -0.238576 -0.618538
1.34794 -0.232208 0.868072
1.25445 -0.179231 2.34352
1.21804 -0.140672 3.50183
1.21334 -0.103588 4.65158
1.41042 -0.0290948 -3.22901
1.42813 0.0872825 -2.07987
1.41749 0.140502 -0.615632
1.34487 0.157584 0.85416
1.21264 0.199814 2.31926
1.17733 0.236639 3.4765
1.18341 0.27451 4.62815
1.4076 0.57857 -3.1729
1.42409 0.691726 -2.02145
1.45286 0.888813 -0.59595
1.35081 0.985934 0.825975
1.13196 0.962525 2.2525
1.11573 0.995266 3.41349
1.14165 1.04011 4.57503
1.41524 1.65215 -3.12968
1.41996 1.78538 -1.98632
1.38937 1.99394 -0.579053
1.29252 2.14312 0.816452
1.1828 2.18818 2.22418
1.14602 2.20512 3.36851
1.14292 2.23387 4.52424
-0.722351 0.354323 -2.06958
0.00222749 0.0913623 -2.0891
-0.701104 0.102584 -1.35
-0.498553 0.58 2.26108
0.00923899 0.273313 2.27669
-0.624878 0.171384 1.59
0 0.704934 -2.09627
-0.7705 0.790951 -1.29667
-1.99676e-06 0.947839 2.24784
-0.617497 1.00516 1.53667
0.726088 0.354336 -2.07155
0.710146 0.102001 -1.3491
0.497994 0.585 2.25629
0.659091 0.161646 1.59818
0.77049 0.790961 -1.29667
0.617503 1.00518 1.53667
-0.670627 0.129348 0.12
-0.864393 0.492906 -0.601667
0.00693869 0.120924 -0.61364
-0.869054 0.576693 0.841667
0.0163936 0.157349 0.85818
-0.736015 0.940073 0.12
-1.16238e-05 1.08122 -0.588334
-6.27816e-06 1.27068 0.828333
0.691853 0.124589 0.12454
0.864323 0.492196 -0.600307
0.869033 0.570533 0.844847
0.735975 0.940048 0.12
-0.874639 0.423615 -1.32333
-0.866532 0.5348 0.12
-0.880502 0.578346 1.56333
0.00458309 0.107637 -1.34955
0.0116661 0.130706 0.12227
0.0128163 0.174054 1.59409
0.00111374 0.354329 -2.32863
0.0046185 0.5825 2.31374
-5.81188e-06 0.879639 -1.29667
-8.95096e-06 1.29753 0.12
-4.13746e-06 1.07289 1.53667
0.874648 0.423266 -1.32288
0.866523 0.531365 0.12227
0.879812 0.577767 1.56742
-1.06761 0.0915726 -2.08252
-0.709368 -0.0799167 -2.09208
-0.714267 0.029949 -2.65757
-0.872954 0.207083 2.31645
-0.59088 0.0213952 2.3356
-0.587301 0.225505 2.89995
-1.05385 0.652908 -2.01327
-0.697818 0.578762 -2.58558
-0.692913 1.18836 -1.99236
-0.794045 0.95512 2.24662
-0.523937 0.965659 2.82629
-0.592684 1.56788 2.2316
0.711772 -0.080204 -2.09244
0.706075 0.0297898 -2.65811
1.07156 0.0911412 -2.08289
0.608712 0.0277576 2.34446
0.579441 0.232127 2.90789
0.905262 0.212407 2.32713
0.688879 0.578661 -2.58558
0.701547 1.18807 -1.99211
1.05454 0.652699 -2.01323
0.485435 0.966029 2.82766
0.497681 1.56724 2.23227
0.798741 0.953763 2.24875
-1.04225 0.129403 -0.617122
-0.685827 -0.0672871 -0.618097
-0.972406 0.159212 0.850546
-0.647169 -0.0439105 0.861524
-1.10322 0.880477 -0.592763
-0.740406 1.42985 -0.582016
-1.02282 0.997251 0.825701
-0.722571 1.57732 0.821342
0.701194 -0.0692155 -0.615442
1.05915 0.126994 -0.613956
0.680236 -0.0539086 0.867464
1.01325 0.147271 0.85776
0.724705 1.42944 -0.581678
1.10575 0.87986 -0.592142
0.659294 1.57674 0.821819
1.02952 0.995021 0.827154
-1.41558 -0.30551 -2.67214
-1.42056 -0.189463 -3.23949
-1.06612 -0.35001 -3.25131
-1.39567 -0.247019 -1.35876
-1.41895 -0.086033 -2.08731
-1.06071 -0.257522 -2.09687
-1.33712 -0.227774 0.118194
-1.38785 -0.0449609 -0.621095
-1.03142 -0.241651 -0.62207
-1.25232 -0.199955 1.59561
-1.29604 -0.0262861 0.852712
-0.970804 -0.229409 0.863691
-1.20434 -0.159879 2.91166
-1.18752 0.010488 2.31989
-0.905445 -0.175199 2.33904
-1.21007 -0.122309 4.06717
-1.18893 0.0465189 3.47902
-0.900269 -0.140646 3.49655
-1.21714 0.0857834 4.6314
-0.917029 -0.104249 4.64621
-1.42392 0.0300134 -2.65466
-1.4207 0.275595 -3.20123
-1.07058 -0.0316102 -3.22971
-1.41112 0.116026 -1.34964
-1.42369 0.390157 -2.05079
-1.34677 0.156527 0.113423
-1.42268 0.516974 -0.608218
-1.23123 0.184157 1.577
-1.31668 0.579771 0.83458
-1.17211 0.216886 2.88725
-1.14453 0.582203 2.27807
-1.196 0.254611 4.04325
-1.17021 0.615124 3.4371
-0.886455 0.235308 3.47075
-1.21947 0.657829 4.59428
-0.91575 0.272985 4.6225
-1.42046 0.635739 -2.59736
-1.41298 1.11644 -3.152
-1.06443 0.561593 -3.16967
-1.43524 0.791106 -1.30936
-1.41692 1.23949 -2.00452
-1.39259 0.940217 0.112938
-1.43404 1.44294 -0.58892
-1.22998 0.977816 1.53565
-1.36741 1.56807 0.818642
-1.14263 0.980441 2.82792
-1.23209 1.57814 2.2347
-1.19368 1.01834 3.98814
-1.23977 1.60171 3.38614
-0.872526 0.99098 3.40759
-1.27247 1.63874 4.54419
-0.928653 1.03764 4.56918
-1.40944 1.72019 -2.55916
-1.05403 1.64107 -3.12728
-1.41573 1.89133 -1.28408
-1.05599 1.77495 -1.98361
-1.40886 2.07079 0.116784
-1.07123 1.99232 -0.578173
-1.36952 2.16839 1.51769
-1.06716 2.14814 0.814283
-1.32923 2.19941 2.79293
-1.03073 2.1909 2.21969
-1.31856 2.22211 3.9422
-1.01077 2.2057 3.36326
-1.01335 2.2341 4.51886
-0.711246 -0.302022 -2.67604
-0.716146 -0.192157 -3.24153
-0.00645765 -0.349489 -3.25285
-0.696456 -0.252154 -1.36017
0.000176552 -0.255121 -2.09905
-0.665109 -0.243286 0.123428
0.00842794 -0.250696 -0.619898
-0.623924 -0.204653 1.60713
0.0166734 -0.240936 0.870808
-0.601377 -0.155967 2.92394
0.00859284 -0.170847 2.35007
-0.607229 -0.122586 4.07558
-0.597798 0.0481429 3.48828
-0.002399 -0.138695 3.50468
-0.615639 0.0829526 4.63731
-0.0106953 -0.10532 4.65181
-0.714313 0.254388 -3.19815
-0.0104197 -0.0352612 -3.23022
-0.606208 0.253682 4.05001
-0.588771 0.611164 3.44124
-0.017099 0.237632 3.47784
-0.624937 0.652796 4.5974
-0.0245611 0.271636 4.62731
-0.705478 1.08623 -3.14496
-0.0089387 0.543764 -3.16617
-0.607499 1.01028 3.98863
-0.643521 1.59496 3.38471
-0.0385006 0.986688 3.40895
-0.669532 1.633 4.54385
-0.0505443 1.0342 4.5713
-0.700573 1.69583 -2.55173
0.00603399 1.62826 -3.1235
-0.71149 1.87594 -1.27771
0.00863435 1.76277 -1.97948
-0.729525 2.06966 0.119327
-0.0156896 1.98839 -0.57536
-0.728366 2.17065 1.51628
-0.0632706 2.14996 0.814827
-0.712268 2.19718 2.79002
-0.0950014 2.19012 2.21888
-0.705554 2.21768 3.93992
-0.095914 2.203 3.36274
-0.0952768 2.23116 4.51912
0.704965 -0.302588 -2.67587
0.699268 -0.192594 -3.24154
1.05639 -0.350995 -3.25085
0.705061 -0.253662 -1.35878
1.0642 -0.25863 -2.09619
0.69021 -0.248346 0.127482
1.05327 -0.245246 -0.618571
0.649191 -0.20713 1.61375
1.01339 -0.238492 0.87082
0.60757 -0.153576 2.93081
0.936995 -0.174358 2.34872
0.594135 -0.121428 4.08091
0.5783 0.0507938 3.49424
0.906822 -0.139169 3.50476
0.580383 0.0833633 4.64181
0.903006 -0.104389 4.65285
0.694954 0.254116 -3.19823
1.05379 -0.0322576 -3.22965
0.564548 0.255585 4.05514
0.533171 0.613156 3.44555
0.869166 0.237947 3.47864
0.549832 0.653043 4.60121
0.875755 0.273214 4.62882
0.702573 1.0858 -3.14471
1.05018 0.561111 -3.16953
0.518455 1.01061 3.99162
0.509107 1.59472 3.38698
0.810536 0.991162 3.4119
0.523711 1.63236 4.54658
0.836608 1.03714 4.57398
0.715241 1.6952 -2.55124
1.06381 1.64005 -3.12647
0.704435 1.87522 -1.27712
1.06903 1.77392 -1.98277
0.650565 2.06868 0.120141
1.04007 1.99096 -0.577038
0.570094 2.16943 1.51742
0.951434 2.14625 0.815878
0.521353 2.19593 2.79159
0.856317 2.18883 2.22186
0.514363 2.21647 3.94194
0.829445 2.20376 3.36608
0.829386 2.23221 4.52224
1.41563 -0.307037 -2.67118
1.41091 -0.190658 -3.23897
1.41241 -0.250214 -1.35598
1.42399 -0.087285 -2.08665
1.37645 -0.235392 0.124767
1.41123 -0.0490371 -0.617085
1.30119 -0.20572 1.6058
1.3464 -0.0373122 0.861116
1.23625 -0.159951 2.92267
1.23355 0.0102917 2.33139
1.21569 -0.12213 4.0767
1.19769 0.0479838 3.48916
1.19838 0.0854613 4.63986
1.41927 0.0290939 -2.65444
1.40901 0.274738 -3.20095
1.42281 0.113892 -1.34775
1.42611 0.389504 -2.05066
1.38118 0.149043 0.119264
1.43518 0.514658 -0.605791
1.27876 0.178699 1.58671
1.34784 0.571759 0.840068
1.19499 0.218227 2.89788
1.1723 0.58117 2.28588
1.18037 0.255575 4.05232
1.14653 0.615953 3.44499
1.16253 0.657312 4.60159
1.41584 0.635148 -2.59718
1.41142 1.11536 -3.15129
1.43848 0.79027 -1.3087
1.42202 1.23855 -2.00389
[...]
POINT_DATA 29498
VECTORS point_vectors float
-3.36359 -6.90932 10.5945
-0.283927 0.288766 1.59629
-1.1309 0.639433 1.7034
-0.0757749 0.0487526 0.241692
1.3889 -4.4024 6.60714
0.230414 0.279672 1.36892
1.12817 0.633186 1.69993
0.064792 0.0757842 0.225067
-0.000321858 0.000373743 0.0470514
-3.31326e-19 -4.2742e-19 -9.68764e-17
0 0 0
0.0191148 0.0324306 0.0875345
-0.000131968 0.000169537 0.0238604
0.000773259 0.00207119 0.115528
0 0 0
-0.0192771 0.0325658 0.0879991
-0.527161 -0.299197 19.8319
-1.23684 -0.900968 20.5376
-0.292901 -0.481909 21.4103
0.205601 -0.0863234 21.5535
0.751196 0.538728 21.2305
0.94037 0.728407 20.5398
0.728576 0.511765 20.6766
-0.6689 -0.235632 19.7231
-1.86233 -0.798431 20.4317
-0.526891 -0.650247 21.5068
0.146397 -0.29175 21.5751
1.19636 0.587902 19.8019
1.35791 0.437489 20.0822
1.0011 0.337771 19.7416
-0.785013 0.0547975 19.5916
-2.25266 0.271677 20.3128
-1.31089 -0.265524 21.4325
-0.223217 -0.310154 21.8605
1.07736 -0.640315 20.2662
1.1471 -0.674387 20.8004
0.805916 -0.544102 20.5542
-0.4884 0.386162 19.9006
-0.849461 0.701181 20.345
-0.74966 0.525151 21.0564
-0.207129 0.0277065 21.4471
0.153762 -0.314783 21.2221
0.223855 -0.398683 20.9051
0.193058 -0.360028 20.727
-0.471346 -0.598441 19.4286
-1.28412 -3.09069 21.0031
0.0302987 -0.21081 21.7033
0.12438 0.305421 20.64
0.040277 1.08274 19.2193
0.366387 1.39816 17.9364
0.687136 0.642522 16.9728
-0.672308 -0.551954 19.0532
0.948707 1.66256 10.0799
1.36515 0.596586 10.9568
-0.894312 0.0915314 18.6046
1.60393 -0.682375 9.18018
0.995342 -0.342556 14.996
-0.396708 0.693471 19.5532
-0.781969 1.49346 20.1317
-0.804764 1.306 21.1316
-0.218507 0.16509 21.7327
0.0788013 -0.438834 21.3472
0.175342 -0.515463 20.9851
0.0847282 -0.417219 20.4453
0.467525 -0.619489 19.4113
1.28173 -3.09445 21.0407
-0.0113999 -0.222188 21.7413
-0.144646 0.279321 20.863
-0.0659912 1.08814 19.1578
-0.345143 1.42125 17.8036
-0.68934 0.627109 16.5993
0.64244 -0.546234 19.0008
-0.865522 1.56764 9.20993
-1.36963 0.565047 10.186
0.870974 0.103709 18.566
-1.40115 -0.683785 6.92265
-1.03484 -0.250483 13.4557
0.399405 0.688949 19.5584
0.793759 1.47702 20.1393
0.789236 1.34578 21.1279
0.211853 0.213734 21.7685
-0.0612813 -0.44779 21.3462
-0.148654 -0.620559 20.9735
-0.0426466 -0.456292 20.443
0.525541 -0.30587 19.8196
1.23085 -0.907835 20.5421
0.282603 -0.471919 21.3899
-0.181597 -0.088294 21.5097
-0.737857 0.48134 21.2432
-0.948345 0.697118 20.5685
-0.726229 0.516704 20.679
0.671195 -0.23765 19.7109
1.85327 -0.802347 20.4393
0.519 -0.633279 21.4774
-0.129054 -0.283724 21.5975
-1.157 0.44421 20.4907
-1.36517 0.442372 20.0299
-1.02587 0.356855 19.2628
0.791577 0.0538623 19.5827
2.24879 0.266312 20.3183
1.29886 -0.263394 21.4291
0.217239 -0.305472 21.8437
-1.06259 -0.635998 20.3153
-1.21869 -0.696783 20.6379
-0.827421 -0.615897 20.4512
0.489955 0.382416 19.9032
0.850266 0.694659 20.3486
0.763546 0.548473 21.0665
0.220227 0.0358554 21.4808
-0.148078 -0.355928 21.2458
-0.237712 -0.461259 20.9382
-0.192477 -0.397992 20.7239
-0.933298 -0.0624429 1.01916
0.000473143 -0.0305003 0.275371
-0.00910878 0.00441085 0.148694
-0.0612909 0.0143759 -0.0233785
-0.00567819 -0.0711552 -0.0388945
-0.0084686 0.00880268 0.110338
0.00473684 0.111112 0.25807
-0.100695 -0.0258148 0.295176
-0.0086052 0.122207 -0.179949
0.00870452 -0.00523804 0.0511966
0.982507 0.104277 1.01698
0.00781607 0.00429234 0.159151
0.065815 0.0197608 -0.0308857
0.0252353 0.015815 0.285865
0.10193 -0.0257208 0.295648
-0.00888505 -0.00518121 0.0514745
7.42658e-05 0.00109115 0.0558209
3.82388e-07 1.44229e-05 0.00186865
-0.0022985 0.000226599 0.145762
0 0 0
0 0 0
0.00789038 0.0185815 0.0654289
0.00015019 0.0285762 0.0655995
1.23868e-07 -0.000734485 0.00568336
-0.00053132 0.0011686 0.0795043
-1.82514e-07 2.01725e-05 0.00211222
0 0 0
-0.00787857 0.0185518 0.0651152
-0.000144938 -0.000575539 0.0171953
0 0 0
0.0637968 0.0552623 0.348511
-3.46069e-08 3.3031e-07 1.66254e-05
-6.19403e-05 0.000859237 0.0805054
0.000123306 0.00285227 0.0587327
-0.00219875 0.105895 0.186216
0.00254666 0.0499908 -0.0311156
2.55746e-05 0.0026832 0.0239033
-4.34337e-05 0.0140786 0.120486
-7.59842e-06 0.000372644 -0.00113767
0.000150598 -0.000481653 0.0172067
-1.74677e-07 9.36794e-06 5.67172e-05
-0.062994 0.052799 0.343861
-3.55163 -2.2064 20.2865
-2.10737 -5.15215 21.2776
-1.94068 -1.77945 18.0227
0.588376 1.57466 10.4117
-0.392416 1.10913 12.1053
-0.261159 0.915877 6.17022
-4.6019 1.07233 19.8441
-2.90937 0.939555 16.7271
-1.98338 2.90975 19.8176
1.11772 -0.147101 9.7135
0.556534 -0.323077 4.50632
0.181911 -0.866677 20.8626
2.12154 -5.20046 21.2619
1.94572 -1.78483 17.9907
3.53341 -2.19233 20.3078
0.40718 1.10136 11.7219
0.292919 0.842219 5.7114
-0.798881 1.51055 11.4335
2.90521 0.966118 16.6507
1.99886 2.87997 19.8252
4.61154 1.07798 19.8559
-0.429157 -0.260847 3.7324
-0.127293 -0.878757 20.9092
-1.14017 -0.126591 9.85095
-0.0633524 -0.51495 17.5273
0.0235889 0.0938703 15.315
0.02176 0.308617 11.6161
0.0300841 0.294581 13.5252
-2.17344 -0.779348 21.0146
-2.30631 2.0424 21.128
-0.00531166 -0.0878052 18.9587
-0.420775 0.0792512 22.324
-0.0434072 0.0960801 15.5432
0.091565 -0.57928 18.1426
-0.0656641 0.30496 14.2057
-0.0535536 0.300194 14.6501
2.32515 2.12925 21.1118
2.16379 -0.778037 21.0288
0.423732 0.10117 22.3632
0.0369311 -0.148196 19.2752
-0.909683 -0.582577 19.9678
-0.607892 -0.286163 19.7682
-0.542478 -0.448988 19.6532
-0.762679 -0.746159 21.2804
-1.54717 -0.913546 20.4865
-1.5268 -1.77811 20.6377
-0.02208 -0.292473 21.468
-0.380779 -0.57615 21.4612
-0.0347352 -0.46515 21.5951
0.498202 0.239581 21.4914
0.221738 -0.187206 21.6363
0.287292 0.126198 21.3306
0.874558 0.595824 20.9652
0.969533 0.602277 20.7414
0.56181 1.02682 20.4038
0.729879 0.60062 20.8139
1.09909 0.692464 20.6161
0.83475 1.12549 20.592
0.837572 0.473693 20.8224
0.635236 0.816491 20.9651
-1.24851 -0.476615 19.7769
-0.750915 -0.11433 19.6214
-0.735775 -0.388804 19.4205
-1.20811 -0.815241 21.4253
-2.28473 -0.358253 20.3549
-0.159842 -0.515325 21.6406
-0.927428 -0.594443 21.519
0.708014 0.163836 20.9091
-0.0132104 -0.349943 21.5663
1.2891 0.53148 19.8514
1.46081 0.107022 18.7349
1.11577 0.418175 20.3685
1.50752 0.0345819 19.232
1.30236 1.40852 14.7165
1.12557 -0.248573 18.4504
1.22084 0.55333 15.2158
-1.52251 0.179749 19.6276
-0.689418 0.298889 19.6994
-0.945096 0.0660917 19.1508
-1.78033 -0.0290704 21.2323
-1.45774 0.76199 20.2878
-0.828606 -0.342971 21.7473
-1.19842 0.37686 21.2399
0.514638 -0.489092 21.5403
-0.295249 -0.0770788 21.6859
1.14363 -0.697954 20.5143
0.358961 -0.553562 21.3532
1.01511 -0.612763 20.5379
0.472313 -0.690859 20.8859
1.72287 -0.638606 16.7664
0.326743 -0.427885 20.6226
0.882514 -0.648589 19.2163
-0.688225 0.572405 20.0451
-0.494554 0.535326 19.7181
-0.858492 0.660789 20.7474
-0.927354 1.07951 20.2434
-0.517693 0.284466 21.3835
-0.844286 0.832263 21.1191
0.0167359 -0.180255 21.3564
-0.239193 0.091012 21.5777
0.216201 -0.359409 21.0949
0.122434 -0.386829 21.2883
0.222661 -0.341146 20.7005
0.214355 -0.50073 20.955
0.166988 -0.397778 20.6523
-1.07518 -1.62276 19.3036
-0.583265 -0.614436 19.2098
-0.000292412 -0.802712 19.1908
-0.242521 -0.957401 22.178
0.0103504 -3.3981 21.7215
0.103127 0.0619277 21.0592
0.00276422 -0.133588 21.6089
0.0737153 0.678648 19.9015
-0.0131129 0.270983 20.4552
0.221023 1.19522 19.3689
-0.00773241 0.660385 18.235
0.0576864 1.49439 18.4427
0.532305 1.70662 14.6434
-0.00501349 1.11104 16.411
1.02614 0.619554 13.9648
0.002748 1.00804 15.2105
-0.819731 -0.308278 18.7014
-0.0131875 -0.817353 18.5175
1.39745 1.38855 11.4583
1.96721 0.728383 5.40847
-0.0323803 0.14625 2.89913
1.56031 0.19275 9.35674
0.0911532 0.790048 9.28461
-0.670647 0.653917 19.0296
-0.0116552 0.175239 17.8518
1.6623 -0.930522 11.799
0.35907 -1.0463 20.5747
0.200288 -0.695631 0.51474
0.259113 -0.781723 20.551
0.100348 -1.30424 6.31716
-0.626184 1.19064 19.6869
0.00208656 0.85818 19.3747
-0.84507 1.42954 20.647
0.0120391 1.94511 20.0151
-0.543226 0.821111 21.6472
-0.0292718 1.87364 21.0917
-0.0125039 -0.232946 21.5511
-0.0169414 0.295639 21.8654
0.147521 -0.52491 21.2001
0.0161933 -0.465858 21.3445
0.146534 -0.612344 20.73
0.0220107 -0.662092 20.9813
-0.0150541 -0.531499 20.6052
1.05688 -1.65468 19.2885
0.573398 -0.63164 19.1623
0.535307 -0.459943 19.6326
0.268421 -0.95206 22.1734
1.51471 -1.7683 20.662
-0.104502 0.0382794 21.1845
0.0430985 -0.45986 21.5936
-0.104882 0.670994 19.9906
-0.290452 0.0863949 21.4238
-0.219955 1.19947 19.2851
-0.598087 1.00643 20.5021
-0.0406287 1.49466 18.3186
-0.47286 1.71421 14.4017
-0.848739 1.14708 20.5824
-1.02949 0.596078 13.3927
-0.639092 0.793557 20.7712
0.790819 -0.307109 18.6492
0.764443 -0.421271 19.3976
-1.33438 1.45521 10.9857
-1.81034 0.721705 3.88612
-1.33545 1.40392 14.2022
-1.57962 0.267699 8.18804
-1.24917 0.57348 14.5526
0.669829 0.658961 19.025
0.955682 0.075102 19.141
-1.7681 -0.977426 9.64719
-0.249672 -1.09323 20.7848
-1.76083 -0.630453 15.3443
-0.239421 -0.834261 20.5437
-0.916473 -0.552328 17.8862
0.636809 1.17881 19.6955
0.498457 0.53207 19.7188
0.840821 1.43738 20.6462
0.930763 1.06582 20.2475
0.510147 0.893165 21.6893
0.849811 0.875515 21.1213
0.0210914 -0.236516 21.555
0.249407 0.116444 21.6277
-0.119772 -0.537321 21.2071
-0.0968814 -0.421284 21.331
-0.113921 -0.506573 20.7579
-0.196734 -0.469689 21.0217
-0.133025 -0.394281 20.5623
0.941717 -0.590794 19.9624
0.603202 -0.27718 19.7604
0.749499 -0.730772 21.2729
1.53108 -0.905834 20.5027
0.0179746 -0.280088 21.4532
0.375869 -0.560283 21.4412
-0.471038 0.194785 21.517
-0.189374 -0.183635 21.5878
-0.843445 0.551558 21.0132
-0.966825 0.493914 20.9996
-0.740388 0.587226 20.8378
-1.11363 0.699544 20.6247
-0.840139 0.501218 20.8224
1.26443 -0.491739 19.7684
0.756749 -0.124769 19.6147
1.19011 -0.809748 21.4088
2.27519 -0.366023 20.3649
0.165216 -0.493816 21.611
0.920228 -0.585033 21.5025
-0.663795 0.0634747 21.4707
0.0264723 -0.337058 21.6405
-1.27239 0.430246 20.2428
-1.41283 0.022181 19.286
-1.12843 0.45028 20.412
-1.56067 0.0752646 18.831
-1.16573 -0.199586 17.5461
1.53487 0.181875 19.6239
0.689694 0.300335 19.7032
1.77411 -0.0327811 21.2298
1.45425 0.7551 20.2927
0.812254 -0.339832 21.7355
1.21402 0.387645 21.2452
-0.511487 -0.47927 21.5662
0.305049 -0.0740478 21.7247
-1.15735 -0.701109 20.4207
-0.355826 -0.598357 21.3689
-1.10269 -0.656911 20.5199
-0.491199 -0.752285 21.0617
-0.310138 -0.51222 20.6067
0.689428 0.566782 20.0497
0.866221 0.671859 20.7481
0.539554 0.31899 21.3947
-0.00571196 -0.195278 21.4115
-0.19934 -0.410982 21.1246
-0.164156 -0.356659 20.6869
-1.10066 -0.571072 19.8715
-1.42338 -1.83116 18.7266
-1.10035 -1.05394 19.6788
-1.7045 -0.99084 19.1897
-0.651236 -0.428445 19.5219
-2.30339 -2.12813 20.5219
-0.95893 -0.819944 21.3655
-0.147753 -0.308042 18.1571
-0.549775 -1.03932 21.6355
-1.04248 -1.60612 21.354
0.0319024 -0.579561 20.7548
-0.0520488 -0.404942 21.5546
0.0531259 0.186694 13.9556
0.168577 -0.17413 21.4456
0.0289806 0.0866457 14.5167
0.229844 0.198217 18.4469
0.622396 0.202979 21.423
-0.292946 0.625811 12.7483
0.42544 0.609614 21.0091
-0.124669 1.07002 9.09958
0.524362 1.39142 16.8609
1.10373 0.581107 20.5581
-0.0762274 1.2784 13.1536
0.649508 1.10771 20.2442
0.955981 1.40347 13.3394
1.0073 1.4443 17.3787
0.870879 0.512476 20.5441
0.223284 1.68681 15.7804
0.723529 0.820626 20.8427
1.46827 0.872514 16.7269
0.975031 0.792248 17.9242
-1.49688 -0.236477 19.627
-2.6965 -0.791397 16.9606
-2.26668 0.357601 18.702
-0.852792 -0.192432 19.2209
-5.12699 -0.749153 19.8782
-1.6396 -0.530824 21.4192
-2.70996 -0.158385 21.6152
-0.647405 -1.02947 18.3049
-0.470773 -0.538761 21.75
-1.18456 -0.680207 20.0357
0.0851327 0.781434 13.2351
0.807518 -0.0725658 20.558
1.28438 0.403649 14.5158
0.777066 0.24416 4.4299
1.54611 -0.0181592 19.2172
0.59309 0.404883 1.72213
1.46603 -0.347632 14.1932
2.19129 0.369831 13.3869
1.42085 0.0183403 20.224
2.46946 0.548813 7.76921
1.28036 -0.763461 17.8478
1.34821 -0.0321507 13.8876
-1.11015 0.567726 19.8211
-1.40851 1.72877 18.7831
-0.749326 0.857156 19.8546
-0.755427 0.473989 19.3838
-1.93421 1.53319 20.0814
-1.39295 0.589055 20.8687
-1.91601 2.0458 20.722
-0.92703 1.00639 20.7074
-1.75275 0.840047 21.3037
-0.811367 0.153156 21.5887
-1.70263 1.25507 22.4058
-0.594588 0.512663 21.5217
-0.393722 -0.0210229 21.9566
0.130514 -0.353835 21.575
0.0427407 -0.613482 21.7616
-0.00116223 -0.214017 21.4476
0.308635 -0.762063 21.413
0.463183 -0.647395 21.1177
0.263123 -0.982732 21.0037
0.186109 -0.458556 21.1695
0.479944 -0.832239 21.1408
0.478039 -0.617498 20.706
0.342087 -0.923806 20.4464
0.142835 -0.410111 20.6883
0.292928 -0.604804 20.5868
1.41595 -1.8485 18.7365
0.00119914 -2.51619 18.8256
-0.0223324 -3.40599 16.1878
-0.00517798 -0.80871 18.8539
0.00685346 -4.55195 23.6528
0.15212 -0.314797 18.0338
0.00797409 -0.816002 22.393
-0.010582 0.0989172 13.2711
-0.0761059 0.188511 14.5035
-0.00526283 0.0664478 20.8938
-0.0292451 0.281362 12.3459
0.232885 0.617229 13.0168
-0.00933275 0.495674 19.3369
-0.000713783 0.31167 8.91588
0.115845 1.25745 12.8395
-0.00399284 0.727956 18.1394
-0.015044 -1.18135 -1.48118
-0.0341519 1.01852 10.4774
-0.196002 1.70928 15.4675
0.0105062 1.49577 15.5613
0.00786936 -0.324672 4.3034
0.0669065 1.02717 12.1587
2.70307 -0.81639 16.8813
-0.0356751 2.26963 13.7635
-0.0226096 -0.422153 18.0845
-0.468233 0.332676 1.19118
-0.00614654 -0.108303 -0.582914
0.19753 -1.12945 -4.36633
-2.51735 0.507071 6.41774
0.269923 -1.93896 4.14211
0.140599 -0.0108207 5.5902
1.41348 1.72631 18.7838
0.00750853 1.55118 19.4469
-0.00412605 0.903306 18.6174
0.0120535 4.07668 19.6069
1.91564 2.05672 20.7185
-0.00635041 1.94673 20.5399
-0.0368706 3.98622 20.7244
1.71921 1.38629 22.4792
-0.0291513 1.22182 21.8339
-0.0268212 0.333504 22.5348
-0.0340193 -0.632133 21.533
0.000523659 -0.232286 21.5842
-0.00384898 -0.750389 19.7955
-0.219014 -1.00581 20.6975
0.028641 -0.562166 21.2352
0.0224297 -1.14183 19.6722
-0.341608 -0.955311 20.5942
0.000752841 -0.589854 20.3845
0.0357381 -0.892725 20.5229
1.10798 -0.583607 19.8658
1.09279 -1.05841 19.6845
1.72673 -1.0199 19.1607
0.642947 -0.439972 19.4963
2.29414 -2.1093 20.5354
0.940374 -0.808981 21.3477
0.536396 -1.0139 21.6255
1.05759 -1.60108 21.5226
-0.0217776 -0.612381 21.0002
0.06372 -0.387108 21.5147
-0.161643 -0.196251 21.5132
-0.0473299 -0.044628 16.225
-0.271261 0.132544 19.3904
-0.593583 0.150232 21.5764
-0.451306 0.568157 21.1394
-0.172549 1.16894 11.8951
-0.647856 1.35366 17.4113
-1.09309 0.561116 20.6189
-0.685651 1.09805 20.2607
-1.02516 1.46419 13.637
-1.02624 1.46037 17.3028
-0.857836 0.513637 20.6125
-0.736923 0.8044 20.9374
-1.55777 0.889335 15.8792
-0.9799 0.761797 17.5423
1.50939 -0.245135 19.6197
2.2907 0.368177 18.6747
0.854073 -0.194587 19.2021
5.10205 -0.748312 19.9088
1.62386 -0.534423 21.4089
2.70939 -0.162689 21.6207
0.687546 -1.03104 18.6819
0.469456 -0.518338 21.7497
1.17853 -0.673394 20.0938
-0.0832447 0.623759 14.3078
-0.762505 -0.155813 21.071
-1.28054 0.391156 14.6982
-0.823081 0.257001 5.13972
-1.52639 -0.028142 19.2251
-1.42617 -0.272322 13.2237
-2.17211 0.419278 12.2497
-1.48523 0.0740776 20.1919
-1.37471 -0.806919 16.2384
-1.39221 0.0179176 12.809
1.11004 0.567727 19.8275
0.750283 0.851307 19.8607
0.754674 0.480203 19.3822
1.92945 1.51123 20.0852
1.39892 0.593428 20.8714
0.929864 1.01791 20.7056
1.78337 0.872712 21.2991
0.842848 0.173343 21.6113
0.599822 0.552132 21.5513
0.39918 -0.0114657 21.9988
-0.129798 -0.366095 21.5983
0.0193783 -0.215045 21.4918
-0.279044 -0.814927 21.4189
-0.445014 -0.696675 21.1261
-0.17183 -0.507613 21.2131
-0.503279 -0.915097 20.6244
-0.494873 -0.680857 20.4882
-0.146792 -0.577783 20.5659
-0.2791 -0.688851 20.5629
-1.39065 -1.06912 19.4111
-0.634735 -1.33997 21.8986
0.180487 -0.138799 19.4542
0.327569 0.834179 17.2683
0.741331 1.36997 17.365
0.886955 0.995109 18.2469
-2.21949 -0.450128 18.7349
-2.11417 -1.05303 21.6944
-0.0935657 -0.2567 15.5148
0.705058 0.978852 8.66548
1.52974 0.534635 9.83145
1.84982 0.269384 16.2399
-1.38577 1.02254 19.3734
-1.82291 1.14442 20.8715
-1.20974 0.449582 21.8972
0.116822 -0.472171 21.7439
0.399441 -0.825765 21.1727
0.422928 -0.837575 20.357
-0.0229629 -3.08553 17.8823
-0.00267106 -0.1587 15.6097
-0.0106047 0.149028 12.5663
-0.0141233 0.351651 11.2729
-0.0491473 0.248836 9.47562
-0.00821325 1.30084 11.0187
-0.0555576 -1.23749 13.8516
0.0802733 -0.791031 -4.11108
0.321427 -2.09408 -1.63049
8.12064e-05 2.6371 18.0445
-0.00837703 3.1843 20.3954
-0.0540228 2.70192 22.787
-0.0128665 -0.515885 20.6158
0.0108104 -0.888689 19.8355
0.0100106 -0.768076 19.6256
1.37678 -1.07932 19.411
0.645579 -1.31303 21.8907
-0.188581 -0.192202 19.984
-0.420072 0.796073 18.2519
-0.809721 1.38073 17.4455
-0.890273 1.01182 18.129
2.24048 -0.453784 18.7012
2.11382 -1.06185 21.695
0.120733 -0.313872 16.1074
-0.784993 1.01738 10.1426
-1.43744 0.524642 9.37373
-1.96433 0.330629 14.6362
1.38628 1.02348 19.3733
1.82782 1.15212 20.8704
1.26683 0.492587 21.939
-0.113463 -0.513933 21.7566
-0.3811 -0.894529 21.2363
-0.378923 -0.885492 20.3292
-1.1009 -0.393908 1.20102
-0.00392855 -0.1211 0.618674
-0.0153127 0.00368129 0.145391
-0.0193928 -0.0046202 -0.00676387
-0.280404 -0.0376654 0.127754
0 0 0
0 0 0
-0.0238772 0.228447 0.438814
-0.265974 0.187629 1.018
-0.0169346 0.00698653 -0.00718818
-0.045652 0.157663 -0.138776
-0.000473721 -0.000556791 0.00239491
0.00888978 -0.114061 0.593538
0.556954 -0.173806 0.631616
0.0190517 0.00549508 0.199399
0.169633 -0.0312145 0.0792134
0.0213665 -0.00352381 -0.00784019
0.0103574 0.00807349 0.0582202
0.0234281 0.229026 0.439831
0 0 0
0.265675 0.187265 1.01699
0.027844 0.168079 -0.146752
0.0187024 0.00835681 -0.00786608
0.000388305 -0.000492296 0.00217319
-0.000722669 0.00264516 0.257509
0.000144287 0.00246221 0.0802021
0 0 0
-0.000234545 0.000828712 0.0370955
-0.00967672 0.00321709 0.0719594
0 0 0
-0.00652905 0.00840039 0.113957
0 0 0
0 0 0
-0.0168965 -0.0144545 0.361535
0 0 0
-0.00488815 0.00504993 0.0145479
0.029162 0.0301756 0.122397
0.0416424 0.0765745 0.266166
0.00427592 0.00958259 0.0250076
0.00844959 -0.00653019 0.0442477
-0.000371997 0.00455232 0.28614
0.000109902 0.000311575 0.0165299
-0.000227811 0.00168501 0.0594614
0 0 0
0.00861389 0.00182863 0.0797584
-3.99368e-05 -4.13175e-05 0.00455935
-7.75347e-05 0.00185782 0.0687961
8.09943e-05 0.000136092 0.00215556
0 0 0
0.00442931 0.00472851 0.0134609
0.0171657 -0.0142757 0.366033
0 0 0
-0.0288371 0.0299541 0.120791
-0.00841439 -0.00647169 0.0437624
-0.047199 0.0878336 0.302781
-0.0043454 0.00975017 0.0253205
0 0 0
-0.406999 -0.041512 0.179481
6.58449e-07 -8.46411e-06 -0.00027924
-0.00559137 -1.46902 0.452779
0 0 0
-0.00040277 0.000219431 0.0119249
0.00585101 0.00127162 0.02518
-0.0556094 0.0336129 -0.0232377
0 0 0
0 0 0
0.00507601 0.0140713 0.0847819
-0.0138966 0.0122392 0.197599
0.0413607 2.34791 1.67848
9.32439e-05 0.0121159 0.055581
-5.40092e-05 -0.000112836 0.00148502
-0.0115424 0.00546612 0.0518779
0 0 0
0 0 0
0.0160225 0.00381651 0.114107
-0.000109072 7.03894e-06 -3.97421e-05
0.563952 -0.0427554 0.247036
3.74978e-17 -1.74966e-17 2.31917e-16
0.000699575 0.0004524 0.0211494
0 0 0
0.0583169 0.0368753 -0.0257537
-0.00703093 0.00123448 0.0304941
0.0106532 0.0136246 0.191665
-0.00750913 0.0195878 0.121219
0.0117028 0.00552133 0.052525
5.63159e-05 -0.000115108 0.0015198
0.0001029 8.35412e-06 -4.29798e-05
-0.0159391 0.00388045 0.113331
9.82224e-20 -9.67266e-18 -1.00752e-16
0 0 0
0.000231538 -0.000399783 0.00516798
0 0 0
0 0 0
-0.000238486 0.00235917 0.0694196
-1.84178e-06 0.00043941 0.00205712
0.000201132 0.00312327 0.0200832
0.000175196 0.00099342 0.0499475
-5.15425e-06 4.11835e-05 0.00178589
0.0216613 0.0612886 0.304432
-0.00497515 0.00928192 0.0738753
0 0 0
0.00107616 0.0802321 0.246023
0.000148436 0.000190065 0.126888
-4.19133e-05 -0.000398887 0.00496137
0 0 0
6.61304e-19 1.72327e-17 1.55539e-16
-0.000230546 -0.000357671 0.00533056
0 0 0
1.85803e-06 0.000387411 0.00180049
-3.67228e-05 0.00110003 0.00767173
0.00570091 0.0107772 0.0842834
-0.0217965 0.0605549 0.297032
-0.017509 -0.0142749 0.126923
-0.0589416 -0.0398318 0.29386
-3.28373e-18 -2.85574e-18 -6.19477e-17
0 0 0
0 0 0