# vtk DataFile Version 2.0
tet_velo
ASCII
DATASET UNSTRUCTURED_GRID
POINTS 29498 float
-0.772875 0.125 -2.075
-0.661541 0.235 2.185
-0.715 0.685 -2.00764
-0.739376 0.925 2.135
0.772839 0.125 -2.075
0.661504 0.235 2.185
0.715 0.685 -2.00761
0.739372 0.925 2.135
-0.795404 0.102026 -0.655
-0.716727 0.180259 0.765
-0.808857 0.850732 -0.62676
-0.801169 0.914919 0.75412
0.794459 0.102935 -0.655
0.77326 0.123689 0.765
0.808845 0.850721 -0.62674
0.801103 0.914855 0.75413
-1.5675 -0.284089 -3.2068
-1.56297 -0.235112 -2.08647
-1.56295 -0.233189 -0.665454
-1.49488 -0.182455 0.763433
-1.43641 -0.119717 2.18511
-1.4291 -0.0777375 3.30869
-1.43646 -0.0368698 4.42625
-1.56241 0.046036 -3.18718
-1.55915 0.115023 -2.07112
-1.57716 0.127904 -0.65772
-1.49735 0.184089 0.759203
-1.42192 0.234115 2.17335
-1.4194 0.276255 3.29638
-1.43261 0.319148 4.41522
-1.53966 0.671395 -3.13696
-1.52635 0.739587 -2.01929
-1.58879 0.855037 -0.632558
-1.559 0.916152 0.751403
-1.48485 0.94063 2.13888
-1.45568 0.983866 3.26353
-1.45262 1.03207 4.38868
-1.5358 1.7076 -3.09104
-1.5345 1.78907 -1.97923
-1.55961 1.91368 -0.605185
-1.57247 2.00332 0.760427
-1.55367 2.04958 2.13488
-1.52862 2.08296 3.24755
-1.5085 2.12247 4.36843
-0.793078 -0.280713 -3.20932
-0.777873 -0.229425 -2.09015
-0.784147 -0.250074 -0.664957
-0.734468 -0.1941 0.768381
-0.704609 -0.119257 2.19376
-0.695489 -0.0796027 3.31455
-0.697158 -0.0413212 4.42965
-0.793389 0.0439901 -3.18795
-0.679983 0.274094 3.30122
-0.691675 0.31455 4.41778
-0.772923 0.648616 -3.13211
-0.707429 0.976557 3.26275
-0.705387 1.02579 4.38851
-0.759284 1.69181 -3.08625
-0.751446 1.7744 -1.97395
-0.775153 1.90926 -0.602003
-0.798413 2.00306 0.76005
-0.792147 2.04575 2.13216
-0.771206 2.0773 3.24483
-0.752324 2.11646 4.36646
0.752844 -0.282387 -3.20931
0.779663 -0.230469 -2.09014
0.787649 -0.256542 -0.664956
0.762943 -0.232205 0.768382
0.693275 -0.133969 2.19376
0.729875 -0.0910543 3.31456
0.762368 -0.0536959 4.42965
0.739208 0.0430021 -3.18794
0.734849 0.26648 3.30122
0.765958 0.303649 4.41778
0.727326 0.647799 -3.13209
0.7565 0.970787 3.26275
0.770563 1.01644 4.38852
0.779304 1.68929 -3.08623
0.795827 1.77194 -1.97394
0.793651 1.90585 -0.60199
0.764876 1.99769 0.760059
0.743294 2.03864 2.13217
0.747233 2.06895 3.24484
0.759064 2.10699 4.36646
1.53029 -0.288612 -3.20678
1.55683 -0.239327 -2.08646
1.57061 -0.248995 -0.665447
1.53141 -0.235736 0.763437
1.4547 -0.156645 2.18511
1.46862 -0.104998 3.30869
1.50109 -0.0629059 4.42626
1.51837 0.0429503 -3.18716
1.55023 0.113174 -2.07111
1.57975 0.119168 -0.657711
1.54317 0.128635 0.759208
1.44813 0.202473 2.17335
1.46859 0.253534 3.29638
1.50267 0.295431 4.41522
1.50481 0.668801 -3.13693
1.52274 0.73819 -2.01925
1.58869 0.85179 -0.632533
1.56831 0.896392 0.751416
1.49791 0.920109 2.13889
1.49563 0.965871 3.26353
1.51252 1.01145 4.38868
1.5493 1.7019 -3.09101
1.56666 1.78328 -1.9792
1.5727 1.90565 -0.605161
1.54679 1.99095 0.760444
1.51691 2.03367 2.13489
1.51143 2.06511 3.24756
1.51781 2.10295 4.36844
-0.770404 0.405 -2.06779
-1.80006e-05 0.121211 -2.07879
-0.797014 0.100638 -1.365
-0.766671 0.58 2.22621
-1.85072e-05 0.264576 2.15542
-0.732543 0.16422 1.475
0 0.759155 -2.08178
-0.793604 0.799541 -1.3172
-1.99676e-06 0.983856 2.19386
-0.784698 0.934384 1.44456
0.770533 0.405 -2.06792
0.796991 0.100626 -1.365
0.766665 0.58 2.22623
0.732536 0.16419 1.475
0.793579 0.799517 -1.31718
0.784673 0.934363 1.44457
-0.785859 0.111349 0.0549999
-0.870966 0.476379 -0.64088
-0.000472839 0.141929 -0.655
-0.879366 0.547589 0.75956
0.0282666 0.143749 0.765
-0.805328 0.88314 0.0636801
-5.96819e-06 1.08239 -0.62675
-3.32574e-05 1.32653 0.754125
0.785549 0.111622 0.0549999
0.87101 0.476828 -0.64087
0.880475 0.519272 0.759565
0.805299 0.883113 0.063695
-0.888314 0.440689 -1.3411
-0.870458 0.511984 0.05934
-0.896307 0.563794 1.45978
-0.00024542 0.10278 -1.365
0.0138969 0.145564 0.0549999
0.0141241 0.128554 1.475
-9.0003e-06 0.405 -2.28487
-1.0252e-05 0.58 2.32229
-2.98409e-06 0.900711 -1.31719
-1.96128e-05 1.32983 0.0636875
-1.76271e-05 1.10786 1.44456
0.888295 0.440914 -1.34109
0.872697 0.49805 0.0593475
0.896499 0.549636 1.45978
-1.16601 0.120012 -2.07306
-0.775374 -0.0522126 -2.08257
-0.783132 0.0844951 -2.63147
-1.04173 0.234557 2.17918
-0.683075 0.0578716 2.18938
-0.670762 0.254547 2.74311
-1.12067 0.712294 -2.01346
-0.743962 0.666808 -2.56988
-0.733223 1.2297 -1.9908
-1.11211 0.932815 2.13694
-0.723402 0.950778 2.69888
-0.765761 1.48538 2.13358
0.776251 -0.0527346 -2.08257
0.756024 0.0840011 -2.63147
1.16153 0.119087 -2.07305
0.67739 0.0505155 2.18938
0.698176 0.25074 2.74311
1.05482 0.218737 2.17918
0.721163 0.666399 -2.56985
0.755413 1.22847 -1.99077
1.11887 0.711595 -2.01343
0.747936 0.947893 2.69888
0.741333 1.48182 2.13358
1.11864 0.922555 2.13694
-1.18628 0.114965 -0.65636
-0.789775 -0.074024 -0.659979
-1.10704 0.182174 0.762101
-0.725597 -0.0069206 0.766691
-1.19882 0.852885 -0.629659
-0.792005 1.38 -0.614381
-1.18008 0.915535 0.752762
-0.799791 1.45899 0.757085
0.791054 -0.0768032 -0.659978
1.1871 0.111052 -0.656356
0.768102 -0.0542579 0.766691
1.15822 0.126162 0.762104
0.801248 1.37829 -0.614365
1.19877 0.851256 -0.629636
0.782989 1.45627 0.757094
1.1847 0.905623 0.752773
-1.56523 -0.2596 -2.64663
-1.56495 -0.119027 -3.19699
-1.18029 -0.282401 -3.20806
-1.56296 -0.23415 -1.37596
-1.56106 -0.0600442 -2.07879
-1.17042 -0.232268 -2.08831
-1.52891 -0.207822 0.0489896
-1.57005 -0.0526423 -0.661587
-1.17355 -0.241631 -0.665206
-1.46564 -0.151086 1.47427
-1.49611 0.000816863 0.761318
-1.11467 -0.188278 0.765907
-1.43275 -0.0987272 2.7469
-1.42916 0.057199 2.17923
-1.07051 -0.119487 2.18943
-1.43278 -0.0573037 3.86747
-1.42425 0.0992588 3.30253
-1.06229 -0.0786701 3.31162
-1.43453 0.141139 4.42074
-1.06681 -0.0390955 4.42795
-1.56078 0.0805296 -2.62915
-1.55104 0.358715 -3.16207
-1.1779 0.0450131 -3.18756
-1.56815 0.121464 -1.36442
-1.54275 0.427305 -2.0452
-1.53725 0.155996 0.0507412
-1.58298 0.491471 -0.645139
-1.45963 0.209102 1.46628
-1.52817 0.550121 0.755303
-1.42066 0.255185 2.73487
-1.45338 0.587372 2.15612
-1.426 0.297702 3.8558
-1.43754 0.630061 3.27995
-1.04969 0.275174 3.2988
-1.44262 0.675611 4.40195
-1.06214 0.316849 4.4165
-1.533 0.705491 -2.57812
-1.53773 1.1895 -3.114
-1.15629 0.660005 -3.13453
-1.55757 0.797312 -1.32592
-1.53042 1.26433 -1.99926
-1.57389 0.885595 0.0594223
-1.5742 1.38436 -0.618872
-1.52192 0.928391 1.44514
-1.56573 1.45974 0.755915
-1.47027 0.962248 2.70121
-1.51926 1.4951 2.13688
-1.45415 1.00797 3.8261
-1.49215 1.53342 3.25554
-1.08155 0.980211 3.26314
-1.48056 1.57727 4.37855
-1.07901 1.02893 4.3886
-1.53515 1.74834 -2.53513
-1.14754 1.69971 -3.08864
-1.54705 1.85138 -1.29221
-1.14297 1.78173 -1.97659
-1.56604 1.9585 0.0776213
-1.16738 1.91147 -0.603594
-1.56307 2.02645 1.44765
-1.18544 2.00319 0.760239
-1.54115 2.06627 2.69122
-1.17291 2.04766 2.13352
-1.51856 2.10272 3.80799
-1.14991 2.08013 3.24619
-1.13041 2.11947 4.36744
-0.785475 -0.255069 -2.64973
-0.793234 -0.118361 -3.19863
-0.0201169 -0.28155 -3.20931
-0.78101 -0.23975 -1.37755
0.000895188 -0.229947 -2.09014
-0.759307 -0.222087 0.0517118
0.00175107 -0.253308 -0.664957
-0.719538 -0.156679 1.48107
0.0142377 -0.213153 0.768381
-0.700049 -0.0994297 2.75416
-0.0056667 -0.126613 2.19376
-0.696324 -0.0604619 3.8721
-0.687736 0.0972456 3.30789
0.0171932 -0.0853285 3.31456
-0.694417 0.136614 4.42371
0.0326047 -0.0475085 4.42965
-0.783156 0.346303 -3.16003
-0.0270905 0.0434961 -3.18794
-0.685829 0.294322 3.8595
-0.693706 0.625325 3.28198
0.0274329 0.270287 3.30122
-0.698531 0.670171 4.40315
0.0371414 0.309099 4.41778
-0.766104 1.17021 -3.10918
-0.0227985 0.648207 -3.1321
-0.706408 1.00117 3.82563
-0.739318 1.52693 3.25379
0.0245354 0.973672 3.26275
-0.728855 1.57112 4.37748
0.0325882 1.02112 4.38851
-0.755365 1.7331 -2.5301
0.01001 1.69055 -3.08624
-0.7633 1.84183 -1.28798
0.0221903 1.77317 -1.97394
-0.786783 1.95616 0.0790238
0.00924901 1.90756 -0.601996
-0.79528 2.02441 1.44611
-0.0167687 2.00038 0.760055
-0.781677 2.06153 2.6885
-0.0244265 2.0422 2.13216
-0.761765 2.09688 3.80564
-0.0119868 2.07312 3.24484
0.00337033 2.11173 4.36646
0.766254 -0.256428 -2.64973
0.746026 -0.119692 -3.19862
1.14157 -0.2855 -3.20805
0.783656 -0.243505 -1.37755
1.16825 -0.234898 -2.0883
0.775296 -0.244373 0.0517128
1.17913 -0.252768 -0.665202
0.728109 -0.183087 1.48107
1.14717 -0.233971 0.76591
0.711575 -0.112512 2.75416
1.07399 -0.145307 2.18943
0.746122 -0.0723751 3.8721
0.732362 0.0877128 3.30789
1.09925 -0.0980263 3.31162
0.764163 0.124977 4.42372
1.13173 -0.0583009 4.42795
0.733267 0.3454 -3.16002
1.12879 0.0429762 -3.18755
0.750404 0.285065 3.8595
0.745674 0.618633 3.28199
1.10172 0.260007 3.2988
0.768261 0.660045 4.40315
1.13432 0.29954 4.4165
0.753315 1.16855 -3.10916
1.11607 0.6583 -3.13451
0.763531 0.993614 3.82563
0.751866 1.51987 3.2538
1.12607 0.968329 3.26314
0.764814 1.56172 4.37749
1.14154 1.01395 4.3886
0.787565 1.73062 -2.53008
1.1643 1.69559 -3.08862
0.794739 1.8389 -1.28796
1.18124 1.77761 -1.97657
0.779263 1.95177 0.0790346
1.18317 1.90575 -0.603575
0.754085 2.01817 1.44611
1.15583 1.99432 0.760252
0.745263 2.05379 2.6885
1.1301 2.03615 2.13353
0.753149 2.08797 3.80565
1.12933 2.06703 3.2462
1.13844 2.10497 4.36745
1.54356 -0.26397 -2.64662
1.52433 -0.122831 -3.19697
1.56372 -0.244161 -1.37595
1.55353 -0.0630767 -2.07878
1.55101 -0.242365 0.048995
1.57518 -0.0649135 -0.661579
1.49305 -0.19619 1.47427
1.53729 -0.0535507 0.761322
1.46166 -0.130821 2.7469
1.45141 0.0229143 2.17923
1.48486 -0.0839521 3.86747
1.4686 0.0742678 3.30254
1.50188 0.116262 4.42074
1.5343 0.078062 -2.62913
1.51159 0.355875 -3.16204
1.56499 0.116171 -1.36441
1.53648 0.425682 -2.04518
1.56146 0.123901 0.0507483
1.58422 0.485479 -0.645122
1.49565 0.165554 1.46628
1.55574 0.512513 0.755312
1.45836 0.228004 2.73487
1.47302 0.561291 2.15612
1.48563 0.274482 3.8558
1.48211 0.609702 3.27996
1.5076 0.653441 4.40195
1.51378 0.703495 -2.57809
1.52705 1.18535 -3.11397
1.55572 0.79499 -1.32589
1.5447 1.26074 -1.99923
[...]
POINT_DATA 29498
VECTORS point_vectors float
-5.57097 -6.02201 10.2114
-0.216254 0.448564 1.14251
-1.95709 2.40744 4.1463
0.0653631 -0.0500305 0.539775
5.53222 -6.02974 10.199
0.193364 0.448338 1.1758
1.95045 2.37479 4.0865
-0.0646721 -0.0499336 0.537337
0.0102438 0.010502 0.197309
0 0 0
-0.0376264 -0.0289975 0.130993
0.0271155 0.0517561 0.144983
-0.0103813 0.0111446 0.208416
-0.00901893 -0.0107632 0.332045
0.0362112 -0.0282473 0.127067
-0.0273298 0.0526089 0.147765
-0.577677 -0.274644 19.8809
-1.18567 -0.669787 20.5611
-0.365753 -0.33104 21.3684
0.069202 -0.105566 21.5306
0.66252 0.264964 21.4451
0.877365 0.32963 21.0925
0.81148 0.135493 20.8534
-0.719162 -0.197409 19.781
-1.64691 -0.529574 20.4923
-0.55575 -0.433374 21.4112
-0.00978172 -0.231051 21.6398
0.856793 0.0838397 21.4614
1.14599 0.0916716 21.1586
1.03497 0.0505478 21.1321
-0.7948 0.0912325 19.6742
-1.94031 0.227599 20.425
-1.07412 -0.234725 21.389
-0.230272 -0.2197 21.7049
0.646214 -0.359156 21.5155
0.98473 -0.451154 21.2335
0.825804 -0.377687 20.828
-0.487737 0.367539 19.9623
-0.834831 0.615733 20.4002
-0.775462 0.430233 21.0925
-0.259136 0.0344889 21.4661
0.163489 -0.281758 21.3715
0.32493 -0.356038 21.1916
0.328317 -0.374989 20.7588
-0.602274 -0.641336 19.3478
-1.64457 -3.07076 20.8114
-0.187894 -0.256712 21.8764
0.0400208 0.0996028 19.4177
0.248954 1.16353 17.815
0.521713 1.41307 17.2756
0.854189 0.734836 16.9405
-0.784992 -0.519258 19.0077
0.822964 1.71754 8.68829
1.50446 0.700991 10.8431
-1.01866 0.237236 18.6327
1.57819 -0.484261 10.4149
1.242 -0.473568 15.2519
-0.429633 0.717295 19.6285
-0.820797 1.45484 20.1805
-1.02362 1.40467 21.1584
-0.300968 0.235524 21.8637
0.13228 -0.458983 21.449
0.23087 -0.62366 21.1549
0.126665 -0.51924 20.4793
0.571417 -0.647427 19.3522
1.63735 -3.04049 20.8241
0.196733 -0.262413 21.9257
-0.031346 0.0718514 20.6116
-0.240598 1.17705 18.2306
-0.600632 1.42292 17.7867
-0.843526 0.772694 18.1021
0.768697 -0.54838 18.9244
-1.00932 1.87566 10.175
-1.44787 0.680783 12.237
0.974303 0.245868 18.5475
-1.72868 -0.502309 11.7468
-1.2313 -0.491403 16.2234
0.436859 0.708832 19.6384
0.851967 1.39453 20.1963
1.03604 1.37667 21.1631
0.302624 0.245276 21.8882
-0.121503 -0.466429 21.4571
-0.216065 -0.640012 21.1456
-0.132981 -0.518616 20.4899
0.573512 -0.280826 19.8589
1.18992 -0.680516 20.5566
0.365926 -0.332186 21.362
-0.073681 -0.0786398 21.5092
-0.636259 0.26652 21.4408
-0.838143 0.334228 21.0797
-0.76714 0.0617497 20.7468
0.739576 -0.210255 19.7445
1.66731 -0.543486 20.4951
0.556148 -0.435369 21.4041
0.00852494 -0.206167 21.5904
-0.81843 0.0952436 21.4807
-1.06964 0.109604 21.1387
-1.00862 -0.0374649 21.034
0.804996 0.0981669 19.6582
1.94942 0.231961 20.4335
1.07002 -0.236073 21.3919
0.220314 -0.221124 21.7043
-0.649645 -0.34086 21.5232
-0.98296 -0.408192 21.2
-0.742489 -0.32744 20.923
0.486696 0.365873 19.969
0.826624 0.589207 20.4057
0.770912 0.421133 21.0951
0.267209 0.0295185 21.4774
-0.171415 -0.298442 21.3455
-0.318559 -0.358361 21.1991
-0.331764 -0.402739 20.7738
-2.68143 0.0288656 3.06722
-0.000141099 -0.0567693 0.620485
-0.000607562 -0.00192607 0.0730562
0.0185652 0.0122264 0.0639656
0.00012405 -0.0171367 -0.0220492
7.24899e-19 1.33797e-19 1.27008e-17
-0.0014282 0.0605584 0.171981
-0.109025 -0.0284237 0.260082
0.000875904 0.0227783 -0.0430049
0.144968 0.0795678 0.481285
2.71106 0.0246726 3.10429
0.000661579 -0.00212384 0.0819035
-0.0183822 0.0114938 0.0639414
0 0 0
0.106205 -0.0291647 0.252708
-0.144588 0.080327 0.483448
0.000536255 0.0472926 1.26674
0.00043043 -0.00170997 0.0320688
-5.79322e-06 0.000144236 0.0125542
0 0 0
4.25175e-05 -0.000355866 0.0166409
0.00423694 0.00857886 0.0303292
0.00116817 0.0207092 0.0434153
-1.4814e-06 -0.00298427 0.0318101
0.000422976 0.0464351 1.26528
-0.000411163 -0.00160268 0.0307704
0.00047432 0.00265498 0.0146123
-0.00454636 0.00921168 0.0327015
-9.54931e-05 -0.000586943 0.00689419
8.52914e-07 0.00155107 0.00888665
0.000376623 0.0042462 0.0504695
-1.18065e-06 -5.0794e-05 0.0189189
1.01637e-07 -3.19914e-07 -5.08177e-05
3.67939e-05 0.000632005 0.0105174
0 0 0
-0.00771307 0.218541 -0.16516
-0.000109686 0.00121836 0.00969745
-1.55095e-05 0.00107776 0.00845259
4.14088e-05 0.00128221 -0.00325068
8.53935e-05 -0.000522907 0.00614714
0.00018316 0.0199247 0.113499
-0.000758904 0.00700763 0.0860348
-3.17136 -1.57043 20.4138
-2.79644 -5.08836 21.0202
-2.15027 -1.67627 17.9995
1.1937 0.767671 15.7377
-0.0419863 1.1739 10.245
-0.353163 1.13318 5.72611
-3.87178 1.0247 20.2589
-2.89419 1.27123 17.0232
-1.90541 2.67904 20.027
1.07092 -0.393432 19.5801
0.598469 -0.11551 6.82547
0.35858 -0.828173 20.782
2.78496 -5.04079 21.0198
2.16006 -1.74291 17.8901
3.19105 -1.593 20.4053
0.0209892 1.21549 10.7582
0.19134 1.2815 6.51071
-1.19052 0.74336 16.389
2.92576 1.3549 16.8426
1.94424 2.58999 20.039
3.89565 1.03625 20.264
-0.72186 -0.131958 7.71663
-0.375501 -0.834184 20.5269
-1.06656 -0.390485 19.585
-0.262917 -0.734365 21.2633
0.0162447 0.14531 16.0359
0.0043124 -0.091917 17.7116
0.112489 0.12817 10.8641
-1.79618 -0.696141 21.6512
-2.74338 1.93098 21.1191
-0.278077 -0.383005 20.8607
-0.575769 0.065483 21.9343
-0.0217232 0.138332 16.3585
0.266212 -0.732442 21.2678
-0.0861163 0.133812 14.2104
-0.0726315 -0.21145 19.7713
2.73479 1.88007 21.1346
1.789 -0.698154 21.6488
0.556214 0.073918 21.7582
0.266249 -0.376653 20.8479
-0.947656 -0.504925 20.0563
-0.663224 -0.245443 19.8164
-0.650028 -0.451445 19.637
-0.815695 -0.548155 21.1968
-1.43393 -0.629585 20.5249
-1.64391 -1.49638 20.5609
-0.120398 -0.198353 21.4447
-0.479371 -0.421494 21.3826
-0.204332 -0.428912 21.5801
0.345796 0.0755676 21.5848
0.0257748 -0.185502 21.5665
0.148792 -0.0646043 21.4942
0.756368 0.338747 21.3462
0.766642 0.193535 21.4411
0.798851 0.759973 20.853
0.863228 0.2823 20.7595
1.04953 0.19069 21.2763
1.15011 0.976402 20.4003
0.923224 0.0930205 20.9927
0.906071 0.80979 20.843
-1.22176 -0.374236 19.9099
-0.783681 -0.0538452 19.6795
-0.819454 -0.350973 19.4383
-1.13956 -0.541459 21.2765
-1.91082 -0.180614 20.4593
-0.253737 -0.349139 21.4834
-0.821109 -0.414154 21.4132
0.379341 -0.0894384 21.7008
-0.115517 -0.254725 21.7211
1.03786 0.144858 21.2674
0.83188 -0.198065 21.4997
1.23499 0.045387 20.5347
1.14843 -0.218471 21.2772
1.31719 0.884805 16.7809
1.10011 -0.343614 20.9818
1.26194 0.408526 16.7482
-1.41213 0.180327 19.799
-0.685691 0.305891 19.7998
-0.976682 0.156538 19.2407
-1.52464 -0.0341458 21.16
-1.32268 0.621474 20.3675
-0.680621 -0.263962 21.5941
-1.10507 0.228401 21.2337
0.220605 -0.246882 21.706
-0.309071 -0.0700732 21.623
0.845279 -0.432255 21.26
0.335375 -0.383219 21.3978
0.903031 -0.459529 20.8858
0.527512 -0.481669 21.0435
1.38074 -0.6852 20.1243
0.424511 -0.451582 20.8841
1.14521 -0.707893 20.0472
-0.681627 0.511305 20.114
-0.520621 0.540844 19.7928
-0.854019 0.554636 20.7802
-0.917918 1.00273 20.2917
-0.556401 0.235527 21.397
-0.971786 0.789487 21.1711
-0.00372058 -0.152128 21.4238
-0.313655 0.106496 21.6437
0.267962 -0.378493 21.2126
0.134027 -0.384307 21.4134
0.340983 -0.391223 20.9231
0.275711 -0.529648 21.0396
0.222159 -0.446427 20.8313
-1.23553 -1.64022 19.2445
-0.709747 -0.590659 19.1541
-0.0128592 -0.924944 18.9937
-0.64924 -1.26408 22.1986
0.00358155 -3.73866 21.5244
-0.0296336 -0.0109884 20.6755
-0.000308396 -0.285157 21.8934
0.170583 0.618122 18.4466
0.000820309 -0.0668459 19.4775
0.351257 1.26741 17.884
0.00701613 0.613276 16.3519
0.547872 1.512 18.0073
0.699113 1.71156 13.7298
0.0176002 0.991128 15.0969
1.18098 0.715501 13.8872
0.00822031 1.43445 14.2758
-0.987497 -0.177893 18.6857
-0.040045 -0.796243 18.3522
1.46509 1.3106 10.1049
1.58808 0.511263 6.35414
0.0472555 0.539092 -0.812943
1.73691 0.191373 10.3631
-0.124803 1.09477 8.34301
-0.73591 0.723122 19.1371
-0.0256455 0.396488 17.7887
1.50427 -0.794124 12.2186
0.634543 -1.07066 20.1907
-0.133607 -0.241637 -1.32178
0.409077 -0.96903 20.2663
-0.0883475 -1.70596 3.83282
-0.671299 1.17142 19.7737
0.00506397 0.904637 19.4023
-0.952629 1.44595 20.6376
0.0342141 1.94066 20.0577
-0.766173 0.926676 21.7781
0.0197757 2.28843 21.065
-0.00400449 -0.223665 21.701
-0.0149208 0.473659 22.111
0.18875 -0.556918 21.3088
0.00348379 -0.489293 21.5763
0.218714 -0.664722 20.8879
0.00381498 -0.792686 21.0229
0.00208212 -0.798411 20.7923
1.20895 -1.67704 19.2545
0.688012 -0.624753 19.1199
0.641599 -0.465382 19.621
0.652711 -1.24946 22.1828
1.63323 -1.4972 20.5697
0.0363974 -0.0455616 21.303
0.210466 -0.418574 21.5686
-0.191356 0.636295 19.4529
-0.135185 -0.0618665 21.5816
-0.377467 1.25487 18.2536
-0.771218 0.734112 21.0629
-0.653581 1.38923 18.5978
-0.822183 1.71057 14.2716
-1.13239 0.907053 20.433
-1.16162 0.757315 15.1261
-0.874182 0.688008 20.8665
0.954924 -0.171673 18.5837
0.824435 -0.380816 19.3831
-1.50608 1.19685 11.2565
-1.76122 0.554603 7.96117
-1.3061 0.725765 17.9061
-1.67935 0.160632 11.6656
-1.19694 0.374683 18.2069
0.729109 0.733423 19.115
0.980627 0.158894 19.1857
-1.47812 -0.732458 13.575
-0.640742 -1.08055 20.194
-1.30602 -0.656236 20.4008
-0.409445 -0.946763 20.2918
-1.1302 -0.650626 20.1961
0.690282 1.13819 19.7855
0.526318 0.533898 19.7982
0.967815 1.41655 20.6439
0.921676 0.960969 20.3082
0.773783 0.939807 21.7859
0.971302 0.771154 21.1694
0.00365407 -0.229286 21.7041
0.318369 0.115713 21.6599
-0.178142 -0.566846 21.3073
-0.146393 -0.394814 21.4267
-0.217225 -0.662618 20.9054
-0.286542 -0.536772 21.0434
-0.221149 -0.44535 20.8352
0.94635 -0.510697 20.0409
0.668915 -0.255649 19.7931
0.812862 -0.550591 21.1895
1.43669 -0.646246 20.5298
0.104897 -0.186172 21.4458
0.473942 -0.424009 21.3728
-0.342848 0.0870789 21.5643
-0.0236666 -0.162386 21.5377
-0.734498 0.331029 21.3486
-0.720235 0.19485 21.4336
-0.790265 0.254104 20.8564
-0.986272 0.2015 21.256
-0.887879 0.0121424 20.8904
1.24511 -0.384118 19.8948
0.797099 -0.064475 19.6594
1.14309 -0.55156 21.2757
1.93384 -0.195801 20.4669
0.242822 -0.335573 21.474
0.81723 -0.420741 21.4232
-0.352036 -0.0704028 21.6863
0.103293 -0.253619 21.7017
-0.980319 0.147646 21.326
-0.808727 -0.177625 21.5218
-1.07645 0.0443866 20.8807
-1.11685 -0.187823 21.2328
-1.02093 -0.281865 21.0744
1.43498 0.188585 19.7773
0.688588 0.304569 19.7968
1.5251 -0.0340248 21.1657
1.31082 0.602592 20.3715
0.670151 -0.267301 21.5929
1.09911 0.221535 21.235
-0.226238 -0.237199 21.7036
0.307451 -0.082229 21.6416
-0.831369 -0.400892 21.2941
-0.360965 -0.397751 21.4136
-0.863929 -0.419304 20.8443
-0.553953 -0.47521 21.1084
-0.458045 -0.458496 20.9192
0.677739 0.496807 20.1227
0.84607 0.543138 20.7811
0.570473 0.236106 21.4
0.0011639 -0.151431 21.4503
-0.268518 -0.368922 21.2277
-0.335055 -0.422811 20.9292
-1.11816 -0.446643 19.9696
-1.68746 -1.8138 18.6223
-1.18971 -0.915063 19.7128
-1.75965 -0.804068 19.2907
-0.758002 -0.405895 19.5058
-2.33097 -1.67324 20.5154
-1.00967 -0.569027 21.234
-0.560338 -0.846205 18.4816
-0.852282 -0.974087 21.5899
-1.45131 -1.20646 22.0854
-0.195518 -0.561212 21.613
-0.195727 -0.296373 21.4476
0.0875058 0.155566 13.8297
0.0203712 -0.228772 21.5198
0.0169087 -0.445293 19.9076
0.15725 -0.115995 20.1829
0.3575 -0.00747251 21.6448
0.129997 0.514838 10.548
0.47603 0.323439 21.324
0.462782 0.238356 17.1325
1.05393 0.832399 18.9888
0.914741 0.289124 21.2268
-0.0108086 1.28984 11.6588
0.925364 0.870181 20.4402
1.37687 0.808229 16.9725
1.30087 0.960782 19.337
1.13217 0.152162 20.3894
0.807125 1.4607 14.5362
1.03315 0.932661 20.6871
1.55265 0.614885 18.691
1.06419 0.656498 19.4579
-1.41595 -0.108303 19.8151
-2.96436 -0.50579 16.8811
-2.20549 0.515148 18.9903
-0.963126 -0.0969809 19.2562
-4.24044 -0.368097 20.2524
-1.4165 -0.315511 21.264
-2.40811 -0.0774389 21.6713
-0.773276 -0.972873 21.1134
-0.447455 -0.384202 21.5476
-1.03915 -0.748941 21.4362
-0.0455835 -0.152725 18.9304
0.315752 -0.183166 21.7352
0.475197 -0.152047 20.1139
1.24025 0.230132 16.2971
1.04166 -0.211964 21.2221
0.246831 0.747624 2.89249
1.23816 -0.542624 19.9518
1.83504 0.103813 16.6495
1.14658 -0.27682 21.0152
1.93181 0.457379 8.0807
1.42161 -0.725181 20.1862
1.46278 -0.127918 16.512
-1.06481 0.519761 19.9498
-1.42177 1.73662 18.9764
-0.752349 0.832475 19.9525
-0.772665 0.500245 19.4821
-1.80925 1.35338 20.2207
-1.28159 0.435521 20.8889
-2.02772 1.93595 20.6841
-0.985504 0.93927 20.7382
-1.76563 0.611771 21.3189
-0.757731 0.0695702 21.532
-2.12206 0.941492 22.4917
-0.709637 0.493335 21.5416
-0.449173 -0.0482483 21.9662
0.0736037 -0.233909 21.5835
0.188969 -0.551886 21.1972
-0.0287917 -0.190912 21.5654
0.383251 -0.590351 21.563
0.481859 -0.467348 21.3081
0.428733 -0.971144 20.8039
0.229953 -0.473536 21.2456
0.539803 -0.808483 21.3675
0.545188 -0.535362 20.951
0.431093 -1.14669 20.1929
0.243943 -0.468437 20.9828
0.43082 -0.688724 20.5116
1.67105 -1.86111 18.589
-0.0188882 -2.7289 18.6707
-0.0622248 -3.55984 15.7551
-0.0184562 -0.875708 18.6224
0.00283357 -4.90771 22.7935
0.573606 -0.84814 18.6847
0.000422554 -1.23975 22.4719
-0.00282682 0.0688627 14.0366
-0.0927045 0.151408 15.2295
-0.00320394 -0.107437 20.6648
-0.00130672 -0.0374667 11.3584
-0.282528 0.62064 12.3638
0.00434625 0.372257 18.0931
0.00799201 0.297807 6.39853
-0.103471 1.34913 12.5384
0.0104921 0.450617 15.4833
0.0518265 -1.25977 -2.5971
0.0635018 0.868087 7.54225
-0.901316 1.33975 15.3699
0.0194871 1.45936 15.1365
0.0337327 -0.16387 0.379985
-0.115624 1.32302 11.2975
2.97848 -0.522445 16.7391
-0.0740927 3.00757 13.7046
-0.0360891 -0.320278 17.8305
-0.352502 0.78009 3.37081
0.0229103 0.198382 -1.05192
-0.154199 -1.13477 -5.07698
-1.82863 0.40394 10.0011
-0.206367 -1.61453 1.26438
-0.133107 -0.529336 3.36176
1.43075 1.726 18.9755
0.0197759 1.59625 19.5205
-0.00645041 1.04422 18.6519
0.03849 3.78735 19.8589
2.04217 1.89786 20.6942
0.0273031 2.06515 20.4855
0.0245777 4.64271 20.2164
2.14198 0.94787 22.4991
-0.00582326 1.64177 22.0643
-0.0101726 0.336212 20.1197
-0.218857 -0.554902 20.9414
-0.00663113 -0.206918 21.7859
0.00778367 -0.656675 15.6485
-0.439628 -0.973208 20.6788
0.00598773 -0.631679 21.2789
-0.0148554 -1.21077 17.9177
-0.438945 -1.1379 20.2217
0.00413062 -0.737956 20.8374
-0.0101095 -0.911685 19.1919
1.11916 -0.457913 19.9651
1.19829 -0.947955 19.7026
1.79742 -0.866571 19.2314
0.757723 -0.430954 19.4653
2.32885 -1.68755 20.5147
1.00875 -0.576776 21.2274
0.838113 -0.963684 21.5806
1.44347 -1.21244 22.0775
0.204447 -0.554199 21.6156
0.186472 -0.290269 21.4448
0.000524005 -0.227765 21.5194
0.0012823 -0.456771 20.4182
-0.156779 -0.149121 21.0854
-0.332701 0.00720746 21.6155
-0.449047 0.300657 21.5358
-0.481103 0.189956 18.1599
-1.0345 0.806319 19.4765
-0.865137 0.270344 21.2269
-0.900703 0.83166 20.593
-1.37731 0.723339 17.9153
-1.32656 0.802667 20.5012
-0.98031 0.155427 20.6838
-1.01247 0.809681 20.7415
-1.54986 0.481364 19.0312
-0.99954 0.622859 20.8637
1.4516 -0.124231 19.7899
2.25437 0.543608 18.9292
0.971672 -0.105991 19.1925
4.26825 -0.373272 20.2351
1.41711 -0.324194 21.2774
2.41069 -0.0799151 21.6769
0.774348 -0.968715 21.1361
0.437087 -0.379826 21.5508
1.02576 -0.747755 21.4384
0.0655023 -0.174642 19.3384
-0.313513 -0.179608 21.7421
-0.462666 -0.164313 20.186
-1.24086 0.212804 16.6378
-0.999787 -0.188266 21.2939
-1.22395 -0.553213 20.236
-1.74766 0.0971074 17.9271
-1.04775 -0.208508 21.1926
-1.34573 -0.674929 20.3549
-1.43522 -0.14282 17.5983
1.06611 0.516406 19.9544
0.759015 0.810561 19.9642
0.772814 0.50746 19.4668
1.79831 1.31026 20.2313
1.27449 0.427739 20.8901
0.98754 0.907898 20.745
1.75086 0.595538 21.3176
0.761285 0.0606456 21.5349
0.719558 0.501621 21.5463
0.454111 -0.0505567 21.9821
-0.0773394 -0.246309 21.5871
0.0257226 -0.201238 21.5778
-0.390532 -0.605154 21.5752
-0.493406 -0.468204 21.285
-0.230755 -0.495762 21.2516
-0.549645 -0.802513 21.3493
-0.563471 -0.546924 21.0112
-0.246617 -0.475077 20.9887
-0.435402 -0.673675 20.5195
-1.4974 -0.91606 19.4987
-1.07535 -1.10315 21.786
0.0701277 -0.322492 21.1253
0.566089 0.293644 19.6849
1.1524 0.909882 19.2178
1.28841 0.788377 19.8275
-2.25196 -0.219919 18.9817
-1.98871 -0.723787 21.9976
-0.293249 -0.74411 20.0136
0.420411 0.246145 17.7067
1.42817 0.15817 16.5899
1.69805 0.0408215 17.3079
-1.35039 0.991618 19.5388
-1.78299 0.924631 20.8977
-1.23959 0.246425 21.8803
0.11106 -0.346726 21.8122
0.509459 -0.721631 21.3508
0.606173 -0.802254 20.9288
-0.0309941 -3.34899 17.5249
-0.00132094 -0.632796 16.7106
-0.00523411 0.0468438 12.5975
0.00495459 0.283311 9.93604
0.0636568 -0.209201 6.40237
0.0514022 1.0132 7.91916
-0.0969983 -0.932162 13.008
0.0111098 -0.742494 -4.56116
-0.243036 -1.46008 -1.85421
0.00415699 2.80427 18.2485
0.0242322 3.17868 20.2389
-0.00710543 3.10605 22.3801
0.00473343 -0.478963 16.6775
0.00278129 -0.805571 16.6437
-0.0046398 -1.13177 17.7964
1.52195 -0.970849 19.4525
1.06247 -1.09481 21.77
-0.0378512 -0.319235 21.3098
-0.558132 0.257452 20.4142
-1.16913 0.831352 20.0407
-1.29354 0.688477 20.257
2.316 -0.239321 18.8894
1.98095 -0.734601 21.9718
0.301793 -0.730106 20.2639
-0.430284 0.1728 18.3397
-1.47316 0.11908 17.8062
-1.67227 0.0671777 18.687
1.35456 0.988011 19.536
1.76662 0.901876 20.8994
1.24522 0.242295 21.881
-0.116971 -0.356629 21.8268
-0.521047 -0.726223 21.3662
-0.611509 -0.769321 20.9549
-3.47299 -0.712227 2.22
-0.0536488 -0.125135 0.782378
-0.0194648 -0.0154985 0.46335
-0.0319271 0.0302413 -0.00359801
-0.186873 0.0222781 -0.0283339
-0.00277616 0.00980587 0.0405629
0 0 0
0.0264397 0.122083 0.399971
-0.182164 0.0269544 0.836983
-0.0190012 -5.33021e-05 -0.000588348
-0.0116469 0.00214678 0.00561454
0.0737636 0.0263132 0.658358
0.0531948 -0.126331 0.792664
3.47446 -0.720685 2.22572
0.0239037 -0.0144404 0.483358
0.00849036 0.000513084 -6.14788e-06
0.0318222 0.0283853 -0.00392076
0.00326707 0.0105601 0.0427659
0.00635832 0.0991517 0.280701
0 0 0
0.17669 0.0258143 0.811889
0.0121944 0.00196837 0.00582148
0.0184928 0.000255353 0.000415669
-0.0731245 0.0262082 0.660949
0.0111393 0.120416 1.2049
0.00449269 0.0109275 0.580049
0 0 0
0 0 0
0 0 0
0.0156757 0.0041533 0.926957
0 0 0
0.000203662 -0.000281948 0.0389796
-0.385257 -0.216039 0.816874
-0.00117412 -0.00366743 0.0388678
0.00219929 0.00472422 0.0312139
-0.0386156 0.025938 0.0723245
0.0106117 0.0139516 0.0553622
0.00071943 0.00395256 0.0124871
0.018814 0.0368258 0.11424
0.0863024 0.00989683 0.467869
-0.0279049 0.10398 1.28586
-1.10507e-08 4.33275e-06 0.000224084
-0.00436655 0.0105137 0.580309
0 0 0
0 0 0
0 0 0
-0.00482063 0.00764103 0.931301
0 0 0
0.366429 -0.208131 0.787544
0.0386569 0.0254727 0.0713413
0.00126095 -0.00394587 0.0414026
-0.00222914 0.00479536 0.0318824
-0.0106952 0.0141057 0.0559084
-0.0863408 0.0102178 0.46729
0 0 0
-0.0198052 0.0387653 0.121941
-0.120335 -0.0530155 0.650033
-1.79192 -0.806302 0.747879
0 0 0
0 0 0
-0.00384014 -0.005825 0.18242
-7.08007e-05 -8.10295e-06 0.00269065
0.00448121 0.000973054 0.0327977
-0.0330124 0.0116338 -0.00511372
0 0 0
0.000495574 -0.0173788 -0.00638624
0 0 0
-0.000536313 0.00696242 0.120644
0 0 0
0.00032154 0.0121254 0.063569
-7.11908e-05 -0.000286757 0.00243871
-0.0475227 0.0468588 0.18982
0.000460091 0.0304224 -0.00613711
-3.24755e-06 4.29139e-05 -0.000891029
0.0260135 0.0525368 0.341158
-0.000399003 -0.000211295 0.000599002
1.48847 -0.779643 0.74763
0.118595 -0.0525233 0.641964
6.58371e-05 -8.02073e-06 0.00271039
0.00384011 -0.00578397 0.183245
0.0322765 0.0114046 -0.00486433
-0.0032541 0.000665682 0.0239288
4.63235e-05 0.00208241 0.0329217
0 0 0
0.0446305 0.0435618 0.173807
7.05028e-05 -0.000285989 0.00236474
0.00038575 -0.000211434 0.00061075
-0.0306897 0.0618424 0.412279
0 0 0
0 0 0
0.0108425 -0.0347136 0.222222
0.000191012 0.0155826 0.162839
0 0 0
4.87605e-08 -2.27016e-07 -2.67181e-05
0 0 0
7.07161e-05 0.00346269 0.0313413
-1.98956e-08 3.79041e-08 7.15297e-06
-3.3814e-08 -1.04387e-06 0.000429423
0.00113763 0.0117066 0.0511157
-0.0888131 0.0915937 1.06025
-7.65034e-06 0.00656239 0.0516621
2.11412e-05 0.0856294 0.195817
1.27699e-05 0.000178628 0.0183948
7.25823e-06 -4.69364e-05 0.00117074
0 0 0
0 0 0
-0.0106976 -0.0338218 0.219093
-0.000206952 0.00952969 0.0989594
0.000872451 0.0398611 0.176515
-2.91852e-05 0.00180812 0.0162107
0.0894468 0.0927093 1.06625
-0.000563575 0.00570222 0.0249182
-0.173147 -0.0981189 0.953202