# vtk DataFile Version 2.0
tet_velo
ASCII
DATASET UNSTRUCTURED_GRID
POINTS 29498 float
-0.740987 0.125 -2.005
-0.559371 0.175 2.045
-0.745 0.520401 -1.965
-0.735 0.735 1.90422
0.740988 0.125 -2.005
0.565 0.185 2.04709
0.745 0.520403 -1.965
0.735 0.735 1.90422
-0.705508 0.116607 -0.655
-0.654024 0.124219 0.695
-0.849278 0.699545 -0.67526
-0.827461 0.752594 0.61448
0.710703 0.116622 -0.654304
0.664295 0.124368 0.696393
0.849271 0.699539 -0.67526
0.827462 0.752596 0.61448
-1.51899 -0.200669 -3.0467
-1.50689 -0.147628 -1.99075
-1.46983 -0.149758 -0.639138
-1.39778 -0.156794 0.724579
-1.31498 -0.125225 2.07721
-1.29665 -0.0974769 3.13817
-1.30257 -0.0709981 4.18989
-1.5191 0.0458943 -3.04848
-1.51687 0.119236 -1.99911
-1.48958 0.136642 -0.65932
-1.40703 0.135165 0.685848
-1.3 0.162158 2.02679
-1.28351 0.189062 3.08688
-1.29487 0.215792 4.14058
-1.52441 0.508731 -3.03505
-1.54377 0.580424 -1.98312
-1.59696 0.706121 -0.684418
-1.54617 0.74545 0.60995
-1.43758 0.741454 1.90976
-1.36044 0.764684 2.97201
-1.3326 0.79365 4.03525
-1.52274 1.319 -3.06056
-1.53631 1.40345 -2.01774
-1.56532 1.53297 -0.738608
-1.56849 1.61733 0.527429
-1.52704 1.6456 1.80708
-1.47302 1.66007 2.851
-1.42512 1.68041 3.90762
-0.762664 -0.198742 -3.0505
-0.751893 -0.142975 -1.99628
-0.724888 -0.159498 -0.638117
-0.68617 -0.164779 0.732629
-0.630527 -0.118975 2.09107
-0.605976 -0.093667 3.14768
-0.603413 -0.0699881 4.19555
-0.757223 0.0412084 -3.0496
-0.576572 0.192805 3.0947
-0.589288 0.216455 4.1449
-0.754891 0.482467 -3.02749
-0.634971 0.762342 2.97104
-0.612544 0.792226 4.03527
-0.74611 1.30186 -3.05305
-0.751767 1.38775 -2.00948
-0.781957 1.52956 -0.73357
-0.802525 1.62058 0.526993
-0.781456 1.64643 1.80306
-0.735391 1.65921 2.84701
-0.691741 1.67938 3.9048
0.735644 -0.198693 -3.05034
0.727881 -0.142946 -1.99608
0.705247 -0.159413 -0.63746
0.656494 -0.163831 0.733847
0.600239 -0.112958 2.0927
0.687825 -0.0890141 3.14896
0.751692 -0.0668962 4.19654
0.743457 0.0412358 -3.04952
0.713069 0.197773 3.09594
0.770334 0.219507 4.14584
0.758693 0.48249 -3.02743
0.767402 0.764391 2.97163
0.791315 0.7943 4.03596
0.801111 1.30194 -3.05291
0.813001 1.38782 -2.00934
0.802844 1.52965 -0.733401
0.762144 1.62074 0.527215
0.734861 1.64682 1.80336
0.747392 1.65994 2.84741
0.771971 1.68038 3.90529
1.48958 -0.200534 -3.04632
1.48414 -0.147517 -1.99026
1.4542 -0.14948 -0.638022
1.38046 -0.154924 0.726525
1.30824 -0.11794 2.0797
1.36681 -0.0903817 3.14039
1.43629 -0.0655621 4.19176
1.50161 0.0459827 -3.04822
1.50763 0.119284 -1.99884
1.489 0.136765 -0.65838
1.41232 0.136314 0.687641
1.31528 0.169878 2.02921
1.38538 0.19624 3.08899
1.45356 0.221118 4.14236
1.52656 0.508805 -3.03486
1.54513 0.580457 -1.98299
1.59876 0.706174 -0.684077
1.54598 0.745659 0.610609
1.44786 0.743338 1.91068
1.45889 0.768395 2.97327
1.48953 0.797452 4.03663
1.56959 1.31919 -3.06022
1.58484 1.40362 -2.01741
1.58118 1.53319 -0.73821
1.53766 1.61774 0.52795
1.49455 1.64649 1.80776
1.49023 1.66157 2.85185
1.50388 1.68239 3.90862
-0.750439 0.322701 -1.99245
5.06639e-07 0.124015 -2.00599
-0.738164 0.105887 -1.33
-0.712294 0.455 2.03972
0.0028145 0.237369 1.98868
-0.610977 0.14533 1.37
0 0.556343 -2.00094
-0.860977 0.673811 -1.32013
0 0.80156 1.97078
-0.810869 0.773436 1.25935
0.750561 0.322702 -1.99257
0.740759 0.105898 -1.32965
0.713905 0.46 2.03956
0.622967 0.146365 1.37174
0.861011 0.673847 -1.32013
0.810874 0.773441 1.25935
-0.677396 0.122783 0.02
-0.884678 0.408076 -0.66513
0.00259734 0.116693 -0.654652
-0.806101 0.438407 0.65474
0.00513542 0.125232 0.695697
-0.837765 0.725465 -0.03039
-3.53507e-06 0.958495 -0.67526
7.0596e-07 1.20888 0.61448
0.685188 0.122806 0.021045
0.884674 0.408081 -0.664782
0.806172 0.438482 0.655437
0.837767 0.725468 -0.03039
-0.890553 0.365388 -1.32507
-0.862767 0.423241 -0.00519502
-0.88078 0.446703 1.31468
0.00129892 0.103471 -1.32983
0.00386638 0.124143 0.0205225
0.00397496 0.15501 1.37087
2.5332e-07 0.322701 -1.92745
0.00140725 0.4575 2.12446
-1.76753e-06 0.756832 -1.32013
-1.41455e-06 1.22601 -0.03039
3.5298e-07 0.861877 1.25935
0.890552 0.365391 -1.32489
0.86274 0.423281 -0.00467253
0.880687 0.449241 1.31555
-1.12893 0.122118 -2.00206
-0.74644 -0.00898735 -2.00064
-0.749105 0.0831042 -2.5273
-0.929684 0.168579 2.0359
-0.594949 0.0280125 2.06803
-0.567972 0.183903 2.56985
-1.14438 0.550413 -1.97406
-0.749946 0.501434 -2.49624
-0.748383 0.954075 -1.98724
-1.08629 0.738227 1.90699
-0.684985 0.748671 2.43763
-0.758228 1.19072 1.85364
0.734434 -0.00897295 -2.00054
0.742222 0.0831179 -2.52726
1.12431 0.122142 -2.00192
0.58262 0.0360211 2.0699
0.639034 0.191387 2.57151
0.94014 0.177439 2.03815
0.751847 0.501447 -2.49621
0.779 0.954111 -1.98717
1.14506 0.55043 -1.974
0.751201 0.749696 2.43792
0.734931 1.19091 1.85379
1.09143 0.739169 1.90745
-1.09755 0.126624 -0.65716
-0.715198 -0.0214457 -0.646558
-1.03053 0.129692 0.690424
-0.670097 -0.0202802 0.713815
-1.22312 0.702833 -0.679839
-0.815617 1.11455 -0.704415
-1.18681 0.749022 0.612215
-0.814993 1.18659 0.570737
0.707975 -0.0213954 -0.645882
1.09985 0.126694 -0.656342
0.660394 -0.0197314 0.71512
1.03831 0.130341 0.692017
0.826058 1.11459 -0.704331
1.22401 0.702857 -0.679669
0.794803 1.18667 0.570848
1.18672 0.749128 0.612545
-1.51294 -0.174148 -2.51872
-1.51905 -0.0773874 -3.04759
-1.14083 -0.199706 -3.0486
-1.48836 -0.148693 -1.31494
-1.51188 -0.0141958 -1.99493
-1.12939 -0.145301 -1.99351
-1.4338 -0.153276 0.0427206
-1.47971 -0.00655816 -0.649229
-1.09736 -0.154628 -0.638627
-1.35638 -0.14101 1.40089
-1.4024 -0.0108149 0.705213
-1.04197 -0.160787 0.728604
-1.30581 -0.111351 2.60769
-1.30749 0.0184668 2.052
-0.972751 -0.1221 2.08414
-1.29961 -0.0842375 3.66403
-1.29008 0.0457927 3.11253
-0.951313 -0.095572 3.14293
-1.29872 0.0723971 4.16524
-0.952989 -0.0704931 4.19272
-1.51799 0.0825653 -2.5238
-1.52176 0.277313 -3.04176
-1.13816 0.0435513 -3.04904
-1.50322 0.127939 -1.32922
-1.53032 0.34983 -1.99112
-1.44831 0.135903 0.0132638
-1.54327 0.421382 -0.671869
-1.35351 0.148661 1.35632
-1.4766 0.440307 0.647899
-1.29175 0.17561 2.55684
-1.36879 0.451806 1.96828
-1.28919 0.202427 3.61373
-1.32197 0.476873 3.02945
-0.93004 0.190934 3.09079
-1.31374 0.504721 4.08792
-0.942078 0.216124 4.14274
-1.53409 0.544578 -2.50908
-1.52358 0.913867 -3.0478
-1.13965 0.495599 -3.03127
-1.57037 0.643273 -1.33377
-1.54004 0.991935 -2.00043
-1.57157 0.725786 -0.037234
-1.58114 1.11954 -0.711513
-1.49187 0.743452 1.25985
-1.55733 1.18139 0.568689
-1.39901 0.753069 2.44088
-1.48231 1.19352 1.85842
-1.34652 0.779167 3.50363
-1.41673 1.21238 2.91151
-0.997706 0.763513 2.97153
-1.37886 1.23703 3.97144
-0.972572 0.792938 4.03526
-1.52953 1.36122 -2.53915
-1.13443 1.31043 -3.05681
-1.55081 1.46821 -1.37817
-1.14404 1.3956 -2.01361
-1.5669 1.57515 -0.10559
-1.17364 1.53126 -0.736089
-1.54776 1.63146 1.16726
-1.18551 1.61896 0.527211
-1.50003 1.65283 2.32904
-1.15425 1.64602 1.80507
-1.44907 1.67024 3.37931
-1.1042 1.65964 2.849
-1.05843 1.67989 3.90621
-0.757278 -0.170858 -2.52339
-0.759943 -0.0787668 -3.05005
-0.0135098 -0.198718 -3.05042
-0.73839 -0.151236 -1.3172
-0.0120061 -0.14296 -1.99618
-0.705529 -0.162139 0.0472563
-0.00982015 -0.159456 -0.637788
-0.658348 -0.141877 1.41185
-0.0148377 -0.164305 0.733238
-0.618251 -0.106321 2.61938
-0.0151439 -0.115966 2.09188
-0.604695 -0.0818275 3.67161
-0.591274 0.0495691 3.12119
0.0409246 -0.0913405 3.14832
-0.596351 0.0732333 4.17022
0.0741395 -0.0684421 4.19604
-0.756057 0.261838 -3.03854
-0.00688308 0.0412221 -3.04956
-0.58293 0.20463 3.6198
-0.605771 0.477574 3.03287
0.0682483 0.195289 3.09532
-0.600916 0.504341 4.09008
0.0905233 0.217981 4.14537
-0.7505 0.892164 -3.04027
0.00190096 0.482479 -3.02746
-0.623757 0.777284 3.50315
-0.685181 1.21078 2.90902
0.0662154 0.763367 2.97133
-0.652142 1.2358 3.97003
0.0893857 0.793263 4.03562
-0.748938 1.34481 -2.53127
0.0275009 1.3019 -3.05298
-0.766862 1.45865 -1.37152
0.0306171 1.38778 -2.00941
-0.792241 1.57507 -0.103289
0.0104439 1.52961 -0.733486
-0.79199 1.63351 1.16503
-0.0201902 1.62066 0.527104
-0.758424 1.65282 2.32503
-0.0232974 1.64663 1.80321
-0.713566 1.6693 3.3759
0.00600018 1.65958 2.84721
0.040115 1.67988 3.90505
0.731762 -0.17082 -2.52321
0.73955 -0.0787288 -3.04993
1.11261 -0.199614 -3.04833
0.716564 -0.15118 -1.31677
1.10601 -0.145231 -1.99317
0.680871 -0.161622 0.0481935
1.07972 -0.154447 -0.637741
0.628367 -0.138394 1.41327
1.01848 -0.159377 0.730186
0.644032 -0.100986 2.62083
0.954237 -0.115449 2.0862
0.719759 -0.0779551 3.67275
0.700447 0.0543795 3.12245
1.02732 -0.0896979 3.14468
0.761013 0.0763055 4.17119
1.09399 -0.0662291 4.19415
0.751075 0.261863 -3.03847
1.12253 0.0436092 -3.04887
0.741702 0.20864 3.62089
0.740235 0.481082 3.03378
1.04922 0.197007 3.09246
0.780825 0.506903 4.0909
1.11195 0.220312 4.1441
0.779902 0.892215 -3.04017
1.14263 0.495647 -3.03114
0.779358 0.779345 3.50379
0.757397 1.21217 2.90952
1.11315 0.766393 2.97245
0.781643 1.23734 3.97063
1.14042 0.795876 4.03629
0.807056 1.34488 -2.53112
1.18535 1.31056 -3.05656
0.807923 1.45873 -1.37137
1.19892 1.39572 -2.01337
0.782494 1.5752 -0.103093
1.19201 1.53142 -0.735806
0.748503 1.63378 1.16529
1.1499 1.61924 0.527583
0.741126 1.65338 2.32538
1.11471 1.64666 1.80556
0.759681 1.67016 3.37635
1.11881 1.66076 2.84963
1.13793 1.68139 3.90696
1.48686 -0.174026 -2.51829
1.49559 -0.0772758 -3.04727
1.46917 -0.148499 -1.31414
1.49588 -0.0141166 -1.99455
1.41733 -0.152202 0.0442515
1.4716 -0.00635741 -0.648201
1.34435 -0.136432 1.40311
1.39639 -0.00930476 0.707083
1.33752 -0.104161 2.61005
1.31176 0.0259689 2.05446
1.40155 -0.0779719 3.66608
1.37609 0.0529293 3.11469
1.44492 0.0777778 4.16706
1.50462 0.0826333 -2.52353
1.51409 0.277394 -3.04154
1.49832 0.128025 -1.32861
1.52638 0.34987 -1.99092
1.45066 0.13654 0.0146308
1.54388 0.42147 -0.671228
1.3638 0.153096 1.35843
1.47915 0.440987 0.649125
1.35033 0.183059 2.5591
1.38157 0.456608 1.96995
1.41947 0.208679 3.61567
1.42213 0.482318 3.03113
1.47154 0.509285 4.08949
1.53584 0.544631 -2.50893
1.54807 0.913995 -3.04754
[...]
POINT_DATA 29498
VECTORS point_vectors float
-2.04082 -5.05732 8.82398
0.0215185 0.646196 2.75691
-2.52184 0.896288 3.68454
-0.0137455 -0.140847 0.131084
2.0619 -5.07612 8.83139
-0.0361871 0.516663 2.16351
2.52091 0.893681 3.68164
0.0141465 -0.140624 0.130166
0.00551124 0.00114346 0.0926831
8.96579e-05 9.55224e-06 0.00188398
-0.0343427 -0.0386246 0.24139
0.0044026 0.0101182 0.0343593
-0.00969535 0.00179431 0.160851
0 0 0
0.0341343 -0.0383027 0.239813
-0.0044693 0.0102846 0.0349355
-0.577934 -0.242265 19.8393
-1.24675 -0.695996 20.4558
-0.349033 -0.487642 21.3633
0.220588 -0.199281 21.5217
0.958045 0.218231 21.4842
1.35093 0.382524 20.8689
1.0296 0.21867 20.7785
-0.656088 -0.179585 19.7685
-1.58172 -0.544053 20.3675
-0.55 -0.612358 21.4046
0.174994 -0.408764 21.6225
1.22013 -0.095211 21.5068
1.62026 0.0903357 21.0472
1.14718 0.109153 20.9177
-0.709396 0.00494914 19.6834
-1.70146 -0.00807748 20.2444
-1.10022 -0.41509 21.2698
-0.300183 -0.505033 21.5691
0.561512 -0.742248 21.5441
1.09301 -0.900678 21.1404
0.973313 -0.76148 20.3599
-0.51128 0.259873 19.8444
-1.02124 0.540919 20.1611
-1.07102 0.381564 20.9491
-0.57412 -0.0167681 21.3797
-0.107633 -0.341703 21.337
0.164969 -0.521881 21.1523
0.375664 -0.618093 20.4909
-0.597371 -0.590179 19.2792
-2.04864 -3.48056 20.8057
-0.110626 -0.0272702 20.7368
0.248199 0.314876 19.5059
0.633083 1.37058 18.7607
0.955933 1.81431 18.2753
0.947385 1.62041 19.4184
-0.692199 -0.432749 19.041
1.82691 1.89655 11.6809
1.85067 1.58238 15.0939
-0.822125 0.0340723 18.7943
1.09428 -0.684769 4.48911
1.51197 -0.354769 8.84452
-0.492426 0.577739 19.3982
-1.23668 1.75148 19.6361
-1.81502 1.85397 20.8277
-0.952874 0.511194 21.8671
-0.487046 -0.236533 21.6616
-0.153723 -0.720631 21.3939
-0.116245 -0.810596 20.1507
0.584526 -0.588997 19.2664
2.04344 -3.7065 20.9318
0.123105 -0.034066 20.5298
-0.233916 0.303312 19.2263
-0.562758 1.33787 18.1743
-1.18404 1.78161 18.9624
-1.00511 1.12431 20.0732
0.68518 -0.440545 19.0252
-2.17346 1.76988 14
-1.93299 0.97637 15.8829
0.825008 0.0341737 18.7988
-1.25346 -0.804278 8.1293
-1.83774 -0.40792 13.9064
0.506368 0.558377 19.4235
1.26618 1.63636 19.6825
1.80741 1.78312 20.8402
0.950432 0.553772 21.8955
0.509137 -0.198734 21.692
0.150514 -0.720453 21.3804
0.0840897 -0.769187 20.4302
0.583958 -0.257661 19.8258
1.28613 -0.74834 20.4672
0.344354 -0.498942 21.3764
-0.213477 -0.212645 21.5222
-0.973083 0.222387 21.487
-1.24254 0.303945 20.8937
-0.997922 0.0722993 20.5414
0.668115 -0.187434 19.7451
1.60905 -0.563002 20.3659
0.550533 -0.615185 21.4036
-0.171234 -0.408094 21.6185
-1.19287 -0.116091 21.5114
-1.43297 -0.018254 21.0647
-1.10798 -0.0610345 20.6387
0.706313 0.00410065 19.6856
1.69816 -0.00849414 20.2468
1.09712 -0.414097 21.2693
0.302988 -0.506689 21.5702
-0.55381 -0.727881 21.544
-0.998046 -0.719217 21.141
-0.781766 -0.4228 20.8344
0.503701 0.249117 19.8667
0.972469 0.502506 20.1811
1.05462 0.368878 20.9489
0.586483 -0.00992271 21.3898
0.1166 -0.340552 21.34
-0.167366 -0.520314 21.1546
-0.321648 -0.674879 20.7143
-2.07579 -0.288574 2.03053
-0.00279784 -0.0385034 0.462885
-0.00116332 0.00085225 0.0896541
0.00476353 -0.0438278 0.0334909
-2.42994e-05 -0.0226866 0.0723831
0.0100801 0.000296173 0.120869
-4.1967e-05 0.208171 0.311459
-0.148833 -0.0222855 0.500943
-0.00151091 0.0654943 -0.140371
0.0150384 0.00658093 0.138215
2.06117 -0.278647 2.01407
0.00180815 0.00124941 0.131155
-0.00619643 -0.0603257 0.0468738
-0.0115501 0.00244655 0.152965
0.149654 -0.0223149 0.503762
-0.0146722 0.00649412 0.135649
0.000501862 3.79071e-05 0.00954015
0.000413375 -0.00175702 0.0237343
-0.000322142 0.00107227 0.0381772
0 0 0
0 0 0
0.00532606 0.0115893 0.0496442
0.00167951 0.0305681 0.062288
7.41912e-05 -0.00337276 0.0420397
-0.00100402 7.14296e-05 0.0186138
-0.000415651 -0.00176314 0.0238777
0 0 0
-0.00531843 0.0115683 0.0496573
0 0 0
0 0 0
0.000155108 0.000687656 0.0147328
-4.69352e-09 5.35292e-08 1.38472e-05
1.30001e-07 -4.64194e-08 -1.93452e-05
0 0 0
0 0 0
-0.00336376 -0.237561 -0.123795
-5.21182e-06 0.000757283 0.00365136
0.000279618 0.0590029 0.425701
0 0 0
0 0 0
4.76849e-19 -7.45418e-18 -6.00697e-17
-0.000174894 0.0010176 0.0176276
-3.06915 -1.55484 20.1614
-3.13528 -5.35144 21.247
-1.87395 -1.44012 17.8837
1.62202 0.946447 15.1052
0.456677 1.36783 12.7425
0.795325 1.33915 8.22913
-3.62349 0.339775 19.8366
-2.36337 0.498102 17.1286
-2.60207 2.91565 19.0582
0.938957 -0.724064 17.7097
-0.117328 -0.728139 2.99365
-0.194854 -0.519037 14.1858
3.08686 -5.53103 21.4322
1.87544 -1.45746 17.8511
3.10884 -1.57919 20.1552
-0.376591 1.33367 12.0642
-1.14644 1.47601 9.30108
-1.63999 0.879701 15.1805
2.36692 0.497672 17.1373
2.63964 2.74667 19.1238
3.6251 0.343957 19.8385
-0.143974 -0.896919 4.78512
0.182873 -0.484696 13.3615
-0.931533 -0.739847 17.8751
0.0471466 -0.821454 19.5519
0.132951 0.239187 13.8337
0.426414 -0.048692 16.9036
0.398747 0.253639 13.0359
-1.74838 -1.08425 21.6513
-3.95862 1.76695 20.9179
-0.358935 -0.938468 20.5038
-0.864246 0.101998 18.2637
-0.135486 0.231506 13.6081
-0.0376519 -0.826777 19.6163
-0.392534 0.249908 12.8699
-0.426065 -0.070709 17.1573
3.92983 1.68209 20.9313
1.7455 -1.08108 21.6504
0.710698 0.170356 17.3501
0.360581 -0.938513 20.5057
-0.953821 -0.470857 19.9747
-0.616719 -0.219067 19.8084
-0.627813 -0.392216 19.6044
-0.884571 -0.680842 21.1722
-1.39588 -0.643363 20.4202
-1.82247 -1.57366 20.4738
-0.0256739 -0.331978 21.4357
-0.452767 -0.560586 21.3781
-0.0669074 -0.478259 21.5866
0.55686 -0.0153723 21.6005
0.219268 -0.299153 21.5621
0.415297 0.030872 21.3097
1.16632 0.321157 21.3115
1.10834 0.129153 21.5434
1.1476 0.927494 20.8958
1.25127 0.43101 20.9512
1.52574 0.262754 21.0389
1.47195 0.998563 20.7393
1.13945 0.135583 20.8449
1.06991 0.541267 21.2796
-1.1391 -0.346516 19.8727
-0.683651 -0.0915798 19.7238
-0.731207 -0.312496 19.4576
-1.20586 -0.669848 21.209
-1.72432 -0.300183 20.3039
-0.136047 -0.521109 21.5173
-0.852202 -0.584379 21.3698
0.590502 -0.286583 21.6688
-0.0312098 -0.539719 21.6224
1.46867 -0.0175876 21.2842
1.01719 -0.562182 21.5137
1.66897 0.0190236 20.5757
1.66119 -0.496254 20.8536
2.2898 0.94444 17.2295
1.45247 -0.47971 20.337
1.63729 0.260439 19.0901
-1.23014 0.0231987 19.7816
-0.640325 0.167433 19.7489
-0.827176 0.0243197 19.3209
-1.54499 -0.208196 20.9767
-1.42959 0.410074 20.1704
-0.707203 -0.503508 21.4793
-1.28454 0.0260065 21.1123
0.0855829 -0.594863 21.6377
-0.567592 -0.30127 21.5067
0.85845 -0.849848 21.3217
0.0738723 -0.615136 21.4619
1.13547 -0.800969 21.2071
0.446065 -0.851863 21.2888
1.53982 -0.911949 17.1751
0.430925 -0.72134 20.8278
1.45632 -1.17387 17.8847
-0.77011 0.424401 19.9201
-0.533619 0.410117 19.6276
-1.11927 0.502076 20.5914
-1.26022 1.02718 19.9519
-0.873159 0.184761 21.2553
-1.52361 0.863331 20.9627
-0.323812 -0.187467 21.4066
-0.788605 0.1599 21.5859
0.0439822 -0.448458 21.2761
-0.281899 -0.367038 21.4652
0.207909 -0.559905 20.974
0.0395243 -0.694965 21.2667
0.105189 -0.784736 21.262
-1.33024 -1.63775 18.9022
-0.640949 -0.520977 19.1692
-0.0150816 -0.784449 18.9101
-0.571464 -0.96251 22.1439
-0.0316943 -5.24348 21.5042
0.0807439 0.118108 19.6919
-0.00654889 -0.329708 17.8716
0.482781 0.676296 18.9358
0.00112027 0.0587003 16.6169
0.830314 1.67704 18.8832
0.000140044 0.899528 15.7234
1.25574 1.97891 18.4114
1.32529 2.00171 16.3887
-0.0672765 1.49777 15.6938
1.26627 1.78456 17.9501
-0.0345568 2.17954 16.4168
-0.771576 -0.234749 18.8303
-0.0132408 -0.624498 18.5519
2.07186 1.74276 13.7621
2.19095 0.899555 5.5479
-0.194522 0.674882 5.29501
2.85549 0.963189 10.748
-0.480453 2.36728 11.7964
-0.65262 0.427102 19.0435
0.00167619 0.088945 18.1814
1.77941 -0.502989 7.31622
0.0165906 -1.17284 13.9944
-0.234939 1.09076 -4.17932
0.241243 -1.25379 14.5136
-0.622848 1.9174 -0.309404
-0.831608 1.11511 19.3016
0.0241778 0.749392 19.1512
-1.51192 1.86764 20.2791
0.0674118 2.54987 19.2781
-1.64982 1.3975 21.7556
0.0419337 3.53103 20.4136
-0.656895 0.0766115 21.769
-0.0390976 1.3941 22.1526
-0.350133 -0.45606 21.5494
-0.0352886 0.434789 20.1075
-0.0597835 -0.773026 20.7169
-0.000288412 -0.173976 19.4049
0.0289395 -0.508775 18.5467
1.30993 -1.70859 18.8513
0.633575 -0.526735 19.1543
0.629227 -0.401399 19.5861
0.571541 -0.942968 21.8761
1.88612 -1.67536 20.4744
-0.0734117 0.106569 19.4403
0.0479738 -0.45633 21.5791
-0.462225 0.662684 18.6516
-0.418045 0.0584742 21.2652
-0.9254 1.70533 19.1036
-1.1542 0.971617 20.7555
-1.36774 1.68237 19.1294
-1.6412 1.93385 17.2737
-1.50225 0.865335 20.6328
-1.32368 1.23674 18.6808
-1.12082 0.448731 21.1493
0.767197 -0.232287 18.822
0.735769 -0.322209 19.4408
-2.25117 1.33112 14.6908
-2.46657 0.469727 8.65258
-2.17139 0.378985 19.3591
-2.47912 0.153262 14.6505
-1.38524 -0.0276893 20.8508
0.669234 0.41293 19.0722
0.828219 0.0229224 19.3232
-1.99134 -1.03932 10.6696
-0.164939 -1.20615 16.0654
-1.46296 -0.972386 19.5553
-0.477442 -1.28234 18.242
-1.25259 -1.11853 19.9433
0.85628 1.06704 19.3401
0.541183 0.39169 19.6592
1.5338 1.76885 20.308
1.22921 0.938157 19.9969
1.6495 1.42105 21.7611
1.50437 0.825821 20.9664
0.669081 0.118807 21.8234
0.812469 0.185447 21.6126
0.3596 -0.445535 21.5642
0.299516 -0.360836 21.4814
0.0322569 -0.789659 20.9131
-0.0456686 -0.687353 21.2598
-0.215421 -0.70556 20.9137
0.986032 -0.501232 19.9471
0.624861 -0.232661 19.7914
0.893543 -0.713033 21.1923
1.43524 -0.676426 20.4198
0.0216372 -0.343534 21.4433
0.447815 -0.568785 21.3866
-0.571095 -0.0143781 21.6056
-0.221917 -0.304676 21.5646
-1.1263 0.28602 21.3058
-1.10296 0.1073 21.5423
-1.07519 0.211317 21.0513
-1.37495 0.159252 21.082
-1.10612 -0.0236778 20.5923
1.16108 -0.359702 19.8462
0.688871 -0.095694 19.7118
1.21249 -0.679709 21.2156
1.74125 -0.300862 20.3014
0.138777 -0.519868 21.5139
0.849869 -0.583426 21.3682
-0.576411 -0.294665 21.6684
0.033538 -0.536851 21.618
-1.38696 -0.0807446 21.2729
-0.990603 -0.553349 21.5134
-1.36438 -0.149724 20.8786
-1.45855 -0.446022 20.9071
-1.19488 -0.281538 20.5356
1.22523 0.0232866 19.7871
0.626674 0.160905 19.7714
1.54188 -0.207101 20.9758
1.38053 0.398271 20.1743
0.709201 -0.505278 21.4777
1.27104 0.0236603 21.1107
-0.0868447 -0.588058 21.6369
0.575224 -0.305505 21.5122
-0.81223 -0.75473 21.3481
-0.0693957 -0.623428 21.4716
-1.03214 -0.793918 21.0776
-0.442836 -0.792633 21.2507
-0.384854 -0.580771 20.9176
0.745053 0.397091 19.9504
1.07826 0.48535 20.5955
0.877993 0.187933 21.2558
0.332272 -0.186736 21.4142
-0.0410584 -0.446059 21.277
-0.224484 -0.549799 20.9627
-1.03771 -0.427133 19.9382
-1.595 -1.62988 18.4429
-1.24204 -0.906432 19.6031
-1.63089 -0.744191 19.2371
-0.683954 -0.357055 19.5249
-2.41544 -1.67679 20.3413
-1.04517 -0.690593 21.1855
-0.0656576 -0.303609 16.607
-0.828415 -1.11708 21.6473
-1.47773 -1.53635 22.0357
0.0438938 -0.614951 21.1713
-0.0670662 -0.433527 21.4795
0.315185 0.138734 12.9993
0.205434 -0.209075 21.3984
0.286124 -0.346265 17.8088
0.50856 -0.0175253 19.8122
0.589887 -0.141282 21.6516
0.614947 0.490444 12.5274
0.733361 0.373704 21.2153
0.689149 0.185341 15.5543
1.44848 1.02125 18.8783
1.36141 0.212426 21.2687
0.907056 1.73702 14.5432
1.40239 1.06793 20.8172
1.96274 0.983161 16.766
1.87151 1.16437 19.1226
1.52068 0.361596 20.754
1.57902 1.92384 16.7783
1.59358 1.11169 20.6007
2.16618 0.764461 17.8153
1.39343 0.628389 19.6491
-1.25346 -0.181933 19.7932
-2.29698 -0.603529 17.157
-1.86601 0.143361 18.9857
-0.795028 -0.156964 19.363
-3.83668 -0.679626 19.9271
-1.41166 -0.457294 21.1252
-2.55004 -0.438227 21.4769
-0.698672 -1.25823 21.1499
-0.405093 -0.598021 21.5161
-1.02803 -1.24313 21.2985
0.275671 -0.388043 17.9477
0.395444 -0.525811 21.6632
0.227424 -0.579159 19.2905
1.54028 -0.0502585 15.0169
1.34112 -0.571609 21.3367
0.927559 0.0261871 3.04502
1.20206 -0.913689 17.2992
2.39706 -0.123593 16.2137
1.65532 -0.467306 20.0349
2.93368 1.2356 9.114
1.7216 -0.990758 17.0963
2.08451 -0.608348 18.5392
-1.05422 0.296572 19.8148
-1.45273 1.30414 18.4528
-0.881706 0.722572 19.6507
-0.70147 0.308145 19.4508
-2.19307 1.12059 19.8195
-1.47979 0.259321 20.7321
-3.0269 2.27469 20.4951
-1.46381 1.03381 20.4931
-2.20409 0.267365 21.2148
-0.959504 -0.166372 21.4098
-3.21331 0.344434 21.1529
-1.27139 0.531039 21.4514
-0.972653 -0.320258 21.868
-0.244027 -0.441573 21.5303
-0.244426 -0.237084 15.7586
-0.469987 -0.131656 21.5519
-0.207757 -0.849062 21.6381
0.292503 -0.728846 21.3044
-0.183719 -0.735117 13.8227
-0.125574 -0.527223 21.4168
0.381396 -1.14352 20.696
0.572761 -0.830851 20.9795
0.213202 -1.34728 14.521
0.113685 -0.806894 21.1425
0.545792 -1.16394 19.9035
1.58769 -1.67472 18.4
-0.0341149 -2.61573 18.0626
-0.0130898 -2.36094 16.1642
-0.0127884 -0.731482 18.7443
-0.0196507 -7.50584 22.7839
0.0681895 -0.293857 16.2176
-0.0184682 -1.29546 20.904
0.000492813 0.0141311 8.89036
-0.321239 0.134355 12.8364
-0.00306276 -0.135569 16.8021
-0.00197906 0.0506431 9.17442
-0.618744 0.424624 12.1112
0.00143903 0.480249 15.9357
-0.0183647 0.630026 8.17925
-1.07355 1.79629 14.937
-0.0165015 1.294 16.1005
0.0276509 0.207353 2.97346
-0.127921 1.60201 11.5086
-1.7296 1.57118 17.5746
-0.0368869 1.97834 17.037
-0.329878 1.69586 8.54477
-0.384889 2.28483 14.8113
2.29721 -0.604101 17.1375
0.00377802 1.25108 14.859
-0.00153327 -0.31634 18.2591
-1.18981 -0.161973 4.39997
0.011332 0.611855 -3.82199
-0.208383 0.336061 -1.96462
-2.74761 0.699011 12.4167
-0.545312 1.18253 -3.81075
-0.537087 2.58829 5.44229
1.47361 1.23244 18.5328
0.0427242 1.57486 18.9117
0.0238717 0.605891 18.6254
0.0687404 4.71596 18.3839
3.02138 2.15469 20.5184
0.0604686 2.90157 19.9175
0.0337313 5.66253 18.4185
3.22277 0.35545 21.0482
-0.014836 3.28567 22.2108
-0.00615813 0.081559 5.40595
0.197289 -0.213052 14.856
-0.0407783 0.935041 21.9567
-0.0488114 0.453203 -1.3428
0.156895 -0.76559 14.7051
-0.0116024 0.11436 19.6082
0.140459 1.40818 -2.40243
-0.357339 -1.40857 17.6077
0.00644721 -0.525651 19.4686
0.228589 0.240359 3.20096
1.0677 -0.453736 19.9102
1.25989 -0.947505 19.5729
1.64361 -0.759963 19.2131
0.688699 -0.371634 19.502
2.47644 -1.75324 20.3357
1.05257 -0.713936 21.203
0.802097 -1.12876 21.6915
1.47995 -1.53729 22.0334
-0.058267 -0.595976 21.0869
0.0671844 -0.441439 21.4774
-0.214954 -0.177019 21.3568
-0.282827 -0.362464 17.9327
-0.508712 -0.000671148 19.7424
-0.58925 -0.148889 21.6523
-0.723784 0.405185 21.0738
-0.678656 0.178298 15.8243
-1.46204 1.03163 18.6846
-1.29007 0.164755 21.2704
-1.41394 0.968432 20.7908
-1.98603 0.690811 18.0664
-1.76523 0.779356 20.1534
-1.32562 0.117225 20.8655
-1.60937 0.881557 20.7207
-2.05723 0.407788 19.7442
-1.19823 0.332415 21.2256
1.26231 -0.183285 19.7839
1.86447 0.142034 18.9905
0.79458 -0.157119 19.3561
3.87395 -0.685426 19.9262
1.41285 -0.456503 21.1251
2.54666 -0.437179 21.4749
0.700383 -1.25747 21.1562
0.40328 -0.592093 21.5147
1.02848 -1.242 21.3022
-0.272764 -0.402944 18.0477
-0.390187 -0.521888 21.6607
-0.220373 -0.594595 19.3739
-1.53282 -0.0798098 15.3198
-1.22912 -0.524833 21.3335
-1.16834 -0.979869 18.9024
-2.19988 -0.394105 18.9406
-1.33209 -0.5961 20.9035
-1.42125 -0.899166 19.9452
-1.77318 -0.769449 20.0659
1.01662 0.287117 19.8374
0.877498 0.674133 19.7002
0.702115 0.297971 19.4738
2.15006 1.04954 19.8552
1.4555 0.250956 20.731
1.44893 0.972988 20.5073
2.17257 0.249989 21.2159
0.964887 -0.167924 21.4115
1.28155 0.542522 21.4573
0.995097 -0.311317 21.888
0.246194 -0.443302 21.5352
0.491179 -0.12351 21.569
0.223517 -0.851773 21.6114
-0.294842 -0.70555 21.3063
0.129634 -0.526635 21.4172
-0.417976 -1.11097 20.7724
-0.543323 -0.798072 20.9439
-0.134432 -0.801117 21.0777
-0.521586 -1.0738 20.5927
-1.4262 -0.856618 19.3998
-1.03487 -1.35818 21.8638
0.301484 -0.273972 20.3105
0.832579 0.314387 19.1932
1.72174 1.13096 19.1066
1.92989 1.04469 19.0762
-1.86663 -0.330789 18.9973
-2.15052 -1.00717 22.0096
-0.0316454 -0.998017 19.6854
0.530699 -0.0404971 17.0605
1.9529 -0.146993 15.3853
2.50265 0.057512 16.7292
-1.38047 0.683736 19.3146
-2.30046 0.733333 20.7494
-1.73177 -0.0810671 21.7805
-0.520378 -0.568352 21.7878
0.0518967 -1.02894 21.3236
0.525626 -1.27828 20.2295
-0.023649 -2.63978 17.2372
-0.00380193 -0.370169 10.8585
0.00147798 0.00234859 8.71261
8.81871e-05 0.360978 8.65362
0.000237695 0.911586 9.96614
-0.314991 2.06948 13.2769
-0.00310526 -0.956256 14.5736
0.0122055 -0.169015 -2.49492
-0.402158 0.895879 0.204194
0.0404448 2.08686 17.5207
0.0442657 4.29691 19.7313
0.000894838 1.99399 10.1753
-0.0142541 0.612577 0.221447
0.064585 0.206884 -2.09611
-0.00905139 -0.0896923 2.0246
1.44796 -0.885014 19.3613
1.02867 -1.38562 21.8953
-0.306899 -0.258022 20.2008
-0.818596 0.318073 19.0082
-1.74096 0.939685 19.5728
-1.91188 0.759396 20.4912
1.87383 -0.33453 18.9845
2.15138 -1.00933 22.0114
0.0358151 -1.00029 19.7226
-0.536129 -0.0642305 17.2448
-1.93841 -0.294683 17.502
-2.2123 -0.286953 18.5451
1.37089 0.653342 19.3521
2.25003 0.701805 20.7527
1.74416 -0.0783465 21.7863
0.535572 -0.567718 21.7915
-0.0673637 -1.02744 21.4856
-0.55503 -1.164 20.6092
-1.15794 -0.25684 1.45751
-0.0224661 -0.0380192 0.45036
0.0410994 -0.0176586 0.388026
0.0138659 -0.0238321 -0.00193728
-0.143361 0.000546276 0.0463111
-0.0049509 0.0110027 0.149728
-1.01063 0.0755062 1.35072
-0.0324387 0.145264 0.320731
-0.373653 0.0337294 1.12194
-0.0131491 -0.0580403 0.0178105
-0.0714414 0.018482 -0.0599068
0.00140285 -0.0598245 0.474948
0.0228041 -0.0402845 0.466726
1.12987 -0.247976 1.4225
-0.0398788 -0.021261 0.405301
0.172832 -0.00740424 0.0310276
-0.0103008 -0.0179134 -0.00152737
0 0 0
0.0326633 0.14438 0.31844
1.02535 0.0741556 1.3664
0.373979 0.0333562 1.12219
0.0716639 0.0199384 -0.0628988
0.0135428 -0.0662376 0.0184838
-0.00186048 -0.0592902 0.47251
0.0021469 0.000981687 0.149452
0.00368797 0.000543921 0.0575558
0 0 0
0.00319767 0.00080137 0.0371189
0.0109863 -0.00699027 0.131623
3.37455e-05 2.17853e-06 0.000668097
0 0 0
0.000121262 8.75984e-06 0.00265622
-0.190251 -0.156649 0.599146
0.000174424 -0.00303275 0.0375632
0.00254172 0.00511603 0.0473009
-0.0426112 0.0206716 0.0597646
0.00240302 0.00557026 0.0225952
0.00217145 0.0116855 0.0443956
0.00576251 0.0132297 0.0485837
0.0130986 -0.00962341 0.176077
-0.00127231 0.000601436 0.0934784
-0.00298571 0.000758175 0.0347941
-0.00207641 0.000313853 0.0329849
0 0 0
0 0 0
0 0 0
-8.62936e-05 4.75388e-06 0.00154626
0 0 0
0.187347 -0.154146 0.589474
0.0494799 0.024149 0.0688301
-0.00017547 -0.00306388 0.038045
-0.00243746 0.00507684 0.0485011
-0.00235452 0.00545845 0.0220378
-0.0127633 -0.0099018 0.173395
-0.00227006 0.0122109 0.046412
-0.00581096 0.0133543 0.0490422
-0.110168 -0.0467094 0.486892
-0.11118 -0.0965558 0.0322561
0 0 0
0 0 0
0 0 0
-5.53239e-07 -5.20512e-08 -1.15712e-05
0.000481603 0.000141911 0.00662145
-0.016101 -0.0126603 0.00141589
0 0 0
0.00285582 -0.0289163 -0.0131105
0.000906775 0.00348485 0.0764287
0 0 0
0.000634252 0.498405 0.247493
4.58728e-05 0.00519177 0.0189957
0 0 0
0 0 0
0.000937664 -0.00127179 -8.86219e-05
-2.51524e-05 0.000180321 -0.0030072
0.00645631 0.0137813 0.158785
0 0 0
0.112275 -0.0957032 0.0323191
0.104012 -0.0444159 0.467802
5.42573e-07 -5.01104e-08 -1.16089e-05
0 0 0
0.0160986 -0.0130031 0.00130771
-0.00104751 0.000241941 0.0149044
-1.38208e-18 1.337e-18 2.36634e-17
-0.00138625 0.00378247 0.085324
0 0 0
0 0 0
0 0 0
-0.00572214 0.0123632 0.13994
0 0 0
0.000983226 4.52589e-05 0.0154377
0.00107872 -0.00938594 0.0737427
0 0 0
1.42681e-11 -9.64534e-10 -1.66881e-06
-7.62768e-08 3.86926e-08 9.9029e-06
0 0 0
-0.00459971 0.00832041 0.150269
4.22274e-07 -1.48469e-07 -6.66926e-05
-1.88136e-05 0.000148433 0.00305116
0.00157542 0.0131158 0.0589162
-0.0915241 0.0545523 1.20344
0 0 0
-0.00013059 0.0562704 0.127271
4.39515e-05 0.00131777 0.0588584
0 0 0
-0.000876644 4.17752e-05 0.0136157
0 0 0
-0.00123907 -0.0101003 0.0791392
-1.18316e-18 3.48896e-18 4.19198e-17
0 0 0
0.00446823 0.00802395 0.14628
0.0915981 0.0568053 1.19673
-0.00155869 0.013018 0.0585211
-0.0793542 -0.0380826 0.308178
-0.070371 -0.0406371 0.301835
0.00115515 -0.00232382 0.0527977
0.00256004 -0.017903 0.132019
0 0 0
0.000106212 0.000373521 0.00700837
0 0 0
0.000239917 0.00186876 0.00892099
-0.00135504 0.00325375 0.113668
0 0 0
0.0303636 0.00652396 0.272597
0 0 0
0 0 0
0 0 0