# vtk DataFile Version 2.0
tri_press
ASCII
DATASET UNSTRUCTURED_GRID
POINTS 3682 float
-0.740987 0.125 -2.005
-0.559371 0.175 2.045
-0.745 0.520401 -1.965
-0.735 0.735 1.90422
0.740988 0.125 -2.005
0.565 0.185 2.04709
0.745 0.520403 -1.965
0.735 0.735 1.90422
-0.705508 0.116607 -0.655
-0.654024 0.124219 0.695
-0.849278 0.699545 -0.67526
-0.827461 0.752594 0.61448
0.710703 0.116622 -0.654304
0.664295 0.124368 0.696393
0.849271 0.699539 -0.67526
0.827462 0.752596 0.61448
-1.51899 -0.200669 -3.0467
-1.50689 -0.147628 -1.99075
-1.46983 -0.149758 -0.639138
-1.39778 -0.156794 0.724579
-1.31498 -0.125225 2.07721
-1.29665 -0.0974769 3.13817
-1.30257 -0.0709981 4.18989
-1.5191 0.0458943 -3.04848
-1.51687 0.119236 -1.99911
-1.48958 0.136642 -0.65932
-1.40703 0.135165 0.685848
-1.3 0.162158 2.02679
-1.28351 0.189062 3.08688
-1.29487 0.215792 4.14058
-1.52441 0.508731 -3.03505
-1.54377 0.580424 -1.98312
-1.59696 0.706121 -0.684418
-1.54617 0.74545 0.60995
-1.43758 0.741454 1.90976
-1.36044 0.764684 2.97201
-1.3326 0.79365 4.03525
-1.52274 1.319 -3.06056
-1.53631 1.40345 -2.01774
-1.56532 1.53297 -0.738608
-1.56849 1.61733 0.527429
-1.52704 1.6456 1.80708
-1.47302 1.66007 2.851
-1.42512 1.68041 3.90762
-0.762664 -0.198742 -3.0505
-0.751893 -0.142975 -1.99628
-0.724888 -0.159498 -0.638117
-0.68617 -0.164779 0.732629
-0.630527 -0.118975 2.09107
-0.605976 -0.093667 3.14768
-0.603413 -0.0699881 4.19555
-0.757223 0.0412084 -3.0496
-0.576572 0.192805 3.0947
-0.589288 0.216455 4.1449
-0.754891 0.482467 -3.02749
-0.634971 0.762342 2.97104
-0.612544 0.792226 4.03527
-0.74611 1.30186 -3.05305
-0.751767 1.38775 -2.00948
-0.781957 1.52956 -0.73357
-0.802525 1.62058 0.526993
-0.781456 1.64643 1.80306
-0.735391 1.65921 2.84701
-0.691741 1.67938 3.9048
0.735644 -0.198693 -3.05034
0.727881 -0.142946 -1.99608
0.705247 -0.159413 -0.63746
0.656494 -0.163831 0.733847
0.600239 -0.112958 2.0927
0.687825 -0.0890141 3.14896
0.751692 -0.0668962 4.19654
0.743457 0.0412358 -3.04952
0.713069 0.197773 3.09594
0.770334 0.219507 4.14584
0.758693 0.48249 -3.02743
0.767402 0.764391 2.97163
0.791315 0.7943 4.03596
0.801111 1.30194 -3.05291
0.813001 1.38782 -2.00934
0.802844 1.52965 -0.733401
0.762144 1.62074 0.527215
0.734861 1.64682 1.80336
0.747392 1.65994 2.84741
0.771971 1.68038 3.90529
1.48958 -0.200534 -3.04632
1.48414 -0.147517 -1.99026
1.4542 -0.14948 -0.638022
1.38046 -0.154924 0.726525
1.30824 -0.11794 2.0797
1.36681 -0.0903817 3.14039
1.43629 -0.0655621 4.19176
1.50161 0.0459827 -3.04822
1.50763 0.119284 -1.99884
1.489 0.136765 -0.65838
1.41232 0.136314 0.687641
1.31528 0.169878 2.02921
1.38538 0.19624 3.08899
1.45356 0.221118 4.14236
1.52656 0.508805 -3.03486
1.54513 0.580457 -1.98299
1.59876 0.706174 -0.684077
1.54598 0.745659 0.610609
1.44786 0.743338 1.91068
1.45889 0.768395 2.97327
1.48953 0.797452 4.03663
1.56959 1.31919 -3.06022
1.58484 1.40362 -2.01741
1.58118 1.53319 -0.73821
1.53766 1.61774 0.52795
1.49455 1.64649 1.80776
1.49023 1.66157 2.85185
1.50388 1.68239 3.90862
-0.750439 0.322701 -1.99245
5.06639e-07 0.124015 -2.00599
-0.738164 0.105887 -1.33
-0.712294 0.455 2.03972
0.0028145 0.237369 1.98868
-0.610977 0.14533 1.37
0 0.556343 -2.00094
-0.860977 0.673811 -1.32013
0 0.80156 1.97078
-0.810869 0.773436 1.25935
0.750561 0.322702 -1.99257
0.740759 0.105898 -1.32965
0.713905 0.46 2.03956
0.622967 0.146365 1.37174
0.861011 0.673847 -1.32013
0.810874 0.773441 1.25935
-0.677396 0.122783 0.02
-0.884678 0.408076 -0.66513
0.00259734 0.116693 -0.654652
-0.806101 0.438407 0.65474
0.00513542 0.125232 0.695697
-0.837765 0.725465 -0.03039
-3.53507e-06 0.958495 -0.67526
7.0596e-07 1.20888 0.61448
0.685188 0.122806 0.021045
0.884674 0.408081 -0.664782
0.806172 0.438482 0.655437
0.837767 0.725468 -0.03039
-0.890553 0.365388 -1.32507
0.890552 0.365391 -1.32489
0.00129892 0.103471 -1.32983
-1.76753e-06 0.756832 -1.32013
2.5332e-07 0.322701 -1.92745
-0.862767 0.423241 -0.00519502
0.86274 0.423281 -0.00467253
0.00386638 0.124143 0.0205225
-1.41455e-06 1.22601 -0.03039
-0.88078 0.446703 1.31468
0.880687 0.449241 1.31555
0.00397496 0.15501 1.37087
3.5298e-07 0.861877 1.25935
0.00140725 0.4575 2.12446
-0.738722 0.22385 -1.99173
-0.370493 0.124674 -2.00533
-0.741281 0.113738 -1.6675
-0.618051 0.315 2.02458
-0.278278 0.237353 1.98567
-0.571477 0.173862 1.7075
-0.758537 0.421551 -1.98954
-0.3725 0.550546 -1.99514
-0.818219 0.612336 -1.64257
-0.704212 0.595 1.95253
-0.3675 0.794851 1.96407
-0.794198 0.775481 1.58179
0.370494 0.124544 -2.00546
0.738538 0.223851 -1.99155
0.743646 0.112676 -1.66733
0.283907 0.238991 1.99008
0.623847 0.3225 2.02772
0.578081 0.181585 1.70942
0.3725 0.550545 -1.99514
0.75863 0.421552 -1.98963
0.818221 0.612341 -1.64257
0.3675 0.794831 1.96405
0.704557 0.5975 1.95199
0.794191 0.775475 1.58179
-0.725894 0.107189 -0.9925
-0.690769 0.120378 -0.3175
-0.84044 0.239668 -0.660065
-0.351925 0.11571 -0.654826
-0.626231 0.141044 1.0325
-0.66563 0.123581 0.3575
-0.822921 0.234884 0.67487
-0.325056 0.123503 0.695348
-0.850926 0.682477 -0.997695
-0.883354 0.561999 -0.670195
-0.843477 0.712461 -0.352825
-0.476664 0.933066 -0.67526
-0.821245 0.765096 0.936915
-0.868235 0.621228 0.63461
-0.832887 0.739304 0.292045
-0.505051 1.16338 0.61448
0.729792 0.107199 -0.991978
0.357117 0.115725 -0.654478
0.697265 0.120394 -0.316629
0.841192 0.2406 -0.659543
0.622659 0.156338 1.03407
0.335349 0.123532 0.696045
0.67472 0.123608 0.358719
0.823808 0.237138 0.675915
0.850798 0.682351 -0.997695
0.476647 0.933045 -0.67526
0.883348 0.561998 -0.670021
0.8435 0.712485 -0.352825
0.821246 0.765096 0.936915
0.505049 1.16338 0.61448
0.86828 0.621271 0.634958
0.832895 0.739313 0.292045
-0.876826 0.344044 -1.65876
-0.375219 0.322701 -2.05172
0.000649716 0.110768 -1.66791
3.7998e-07 0.223358 -1.92749
-0.896437 0.235638 -1.32753
-0.368432 0.10347 -1.32991
-0.856781 0.450852 1.6772
-0.355443 0.45625 2.10964
0.00339473 0.185585 1.67977
0.00211088 0.347435 2.03715
-0.861643 0.296017 1.34234
-0.303501 0.154988 1.37044
-8.83767e-07 0.680715 -1.66054
1.2666e-07 0.439522 -2.12034
-0.89288 0.5196 -1.3226
-0.430489 0.745071 -1.32013
1.7649e-07 0.844722 1.61507
0.000703625 0.62953 2.05244
-0.885651 0.61007 1.28701
-0.405434 0.860587 1.25935
0.876816 0.344046 -1.65873
0.375281 0.322701 -2.05172
0.896437 0.235645 -1.32727
0.371029 0.103471 -1.32974
0.857145 0.454621 1.67755
0.357656 0.45875 2.10987
0.861049 0.297803 1.34364
0.313471 0.155032 1.37131
0.892877 0.519619 -1.32251
0.430505 0.745059 -1.32013
0.885633 0.611341 1.28745
0.405437 0.860642 1.25935
-0.834152 0.240977 0.00740248
-0.337534 0.121925 0.0202612
-0.896839 0.386732 -0.995098
-0.87386 0.415659 -0.335163
0.00194813 0.104456 -0.992239
0.00323186 0.123577 -0.317065
-0.850671 0.430824 0.324773
-0.88169 0.442555 0.984708
0.0045009 0.124705 0.35811
0.00455519 0.134858 1.03328
-0.876589 0.587515 -0.0177925
-0.52053 1.17903 -0.03039
-2.6513e-06 0.797188 -0.997695
-2.47481e-06 1.12106 -0.352825
-3.54297e-07 1.2319 0.292045
5.2947e-07 0.880438 0.936915
0.834795 0.242628 0.00818622
0.345291 0.121947 0.0207837
0.89683 0.386736 -0.994836
0.873849 0.415681 -0.334727
0.850672 0.430882 0.325382
0.881681 0.443862 0.985491
0.876598 0.587547 -0.0175313
0.520483 1.17894 -0.03039
-0.870306 0.229744 -1.66313
-0.896312 0.24899 -0.993799
-0.895488 0.536705 -0.996396
-0.872977 0.470575 -1.65066
0.870561 0.229748 -1.66303
0.87312 0.470586 -1.65065
0.895487 0.536715 -0.996266
0.896311 0.248998 -0.993407
-0.369463 0.111953 -1.6677
0.370762 0.110729 -1.66762
0.36384 0.104457 -0.992108
-0.359944 0.104456 -0.99237
-0.401495 0.66759 -1.65155
-0.427565 0.793878 -0.997695
0.427569 0.793754 -0.997695
0.401502 0.667638 -1.65155
-0.372856 0.223604 -2.02104
-0.37386 0.430536 -2.11164
0.37389 0.430537 -2.11159
0.372887 0.223604 -2.021
-0.837477 0.240232 -0.326331
-0.828614 0.237891 0.341136
-0.872141 0.604236 0.308409
-0.879704 0.574623 -0.343994
0.838285 0.241468 -0.325678
0.879706 0.574639 -0.343776
0.872142 0.604261 0.308714
0.829422 0.239822 0.342051
-0.343583 0.121111 -0.317282
0.350057 0.12113 -0.316847
0.340311 0.122758 0.358414
-0.331286 0.122732 0.357805
-0.513188 1.08523 -0.352825
-0.519281 1.18419 0.292045
0.519266 1.18416 0.292045
0.513018 1.0849 -0.352825
-0.863724 0.288665 1.0086
-0.835273 0.305508 1.69235
-0.84434 0.602535 1.62949
-0.876465 0.602785 0.960811
0.863893 0.289614 1.00978
0.87708 0.60344 0.961203
0.843977 0.604421 1.62967
0.835824 0.310151 1.69348
-0.313973 0.13484 1.03289
0.324093 0.134875 1.03368
0.298689 0.186294 1.69459
-0.29089 0.186248 1.69364
-0.409582 0.879414 0.936915
-0.386467 0.84433 1.59843
0.386469 0.844328 1.59843
0.409584 0.879536 0.936915
-0.316861 0.331217 2.06753
0.320782 0.334967 2.06869
0.362578 0.613515 2.03241
-0.361472 0.612265 2.03248
-0.745651 0.174425 -2.00416
-0.55574 0.124751 -2.00525
-0.742521 0.117982 -1.83625
-0.54227 0.245 1.98835
-0.418825 0.235104 1.98641
-0.55615 0.183705 1.87625
-0.755639 0.470976 -1.98114
-0.55875 0.545377 -1.98998
-0.795781 0.58054 -1.80378
-0.720505 0.665 1.92928
-0.55125 0.782077 1.9513
-0.776599 0.767241 1.743
0.555741 0.124586 -2.00541
0.745537 0.174425 -2.00405
0.743213 0.117943 -1.83616
0.424454 0.255404 1.97517
0.548111 0.25375 1.99109
0.569714 0.185119 1.87825
0.55875 0.545385 -1.98998
0.755628 0.470978 -1.98113
0.795839 0.5806 -1.80378
0.55125 0.782362 1.95158
0.720687 0.66625 1.92902
0.776591 0.767233 1.743
-0.716084 0.111515 -0.82375
-0.694871 0.12176 -0.48625
-0.811313 0.158968 -0.657533
-0.5287 0.116191 -0.654913
-0.62311 0.149649 0.86375
-0.659766 0.123961 0.52625
-0.794685 0.151445 0.684935
-0.4895 0.12394 0.695174
-0.85174 0.692649 -0.836478
-0.872501 0.633864 -0.672728
-0.846395 0.70602 -0.514043
-0.688686 0.867737 -0.67526
-0.824933 0.759425 0.775698
-0.854469 0.690221 0.624545
-0.829844 0.74562 0.453263
-0.688256 1.00199 0.61448
0.720631 0.111527 -0.823141
0.533893 0.116207 -0.654391
0.700715 0.121778 -0.485466
0.812295 0.160438 -0.656923
0.628141 0.155689 0.865231
0.499812 0.123969 0.696219
0.669505 0.12399 0.527556
0.797289 0.154134 0.686154
[...]
POINT_DATA 3682
SCALARS point_scalars float 1
LOOKUP_TABLE default
-89.0287
-47.909
-9.82832
-43.3594
-88.9919
-48.6422
-9.88897
-43.2187
-37.7249
-39.6191
-49.6901
-43.9304
-37.5208
-39.6951
-49.6993
-43.9423
-25.861
-82.895
-57.4876
-38.4224
-51.5743
-42.343
-41.6365
-25.861
-79.5436
-37.9152
-32.9906
-50.9084
-42.1864
-40.416
50.6473
-56.9095
-45.3318
-39.0647
-46.394
-43.1285
-40.7732
9.10517
-42.5802
-64.4306
-53.5025
-42.9161
-43.5366
-39.618
31.0703
-144.631
-37.6436
-41.0472
-48.3346
-40.831
-40.2489
31.0703
-40.4817
-40.1329
173.592
-39.6455
-40.1329
108.881
-27.4607
-44.9005
-57.5845
-38.7714
-37.8238
-37.4847
30.9181
-150.702
-37.6375
-41.4613
-49.9977
-40.6761
-40.4848
30.9181
-40.511
-40.0982
182.755
-39.984
-39.6372
40.4504
-32.2458
-46.3681
-57.9312
-38.2323
-37.681
-37.8299
-25.5532
-82.4905
-57.2112
-38.864
-51.2597
-42.2512
-41.5332
-25.5532
-79.5112
-37.9064
-33.3587
-50.6675
-42.1079
-42.1079
47.7865
-56.9873
-45.3208
-39.0719
-46.3916
-42.8658
-40.6615
-13.6054
-42.7604
-64.5835
-53.9532
-42.833
-43.3935
-41.2812
-25.7276
-187.902
-54.9499
-42.3518
-42.2197
-45.203
6.27837
-57.7491
-36.74
-43.9195
-26.2143
-54.9552
-42.1606
-43.8708
-57.7725
-43.9122
-34.7326
-39.9974
-41.18
-32.9459
-39.6122
-50.6689
16.8522
-50.6929
-34.6242
-39.9821
-32.9787
-50.6549
-61.2429
-61.2277
-58.7558
-10.2127
197.883
-39.1585
-39.095
-36.1831
-101.77
-44.0828
-44.0774
-43.4811
-40.5948
-37.6469
-24.7132
-187.499
-69.2086
-43.1224
-44.4896
-44.5738
-16.3347
-1.67767
-40.675
-41.6315
-36.5289
-42.2348
-187.974
-24.8032
-68.8539
-44.3574
-42.7393
-43.0234
-1.59195
-17.1837
-40.7165
-36.3911
-41.624
-42.062
-46.0585
-34.809
-36.9521
-40.3908
-38.8121
-35.8497
-35.0102
-39.4563
-46.4746
-43.7792
-53.3484
0.705276
-42.957
-38.8404
-46.8585
-52.7696
-46.1517
-40.367
-34.7803
-36.9637
-37.2521
-39.2609
-35.7956
-35.1554
-46.4196
0.577181
-43.765
-53.2278
-42.9863
-52.7983
-38.8569
-46.8538
-69.5325
198.325
-82.5573
198.378
-60.6432
-57.057
-46.2702
-39.913
-42.719
-38.7902
-43.7824
-43.7552
-18.3567
178.164
-62.4047
-18.9798
-38.4275
-33.8406
-45.1238
-40.925
-69.5193
198.261
-60.6391
-57.1451
-46.1865
-39.814
-44.0151
-43.6013
-62.4001
-19.0133
-45.1761
-40.9443
-35.9115
-35.825
-48.8405
-39.5607
-48.2092
-36.8427
-38.2066
-39.8718
-37.2048
-42.7496
-43.5455
-90.215
12.7283
-35.3608
-73.4959
-41.183
-35.8339
-35.7887
-48.8707
-39.5472
-38.1621
-39.8426
-43.5152
-90.1663
-66.4835
-50.0348
-48.1341
-59.0784
-66.2217
-59.1918
-48.1763
-50.0621
-81.6718
-80.0177
-47.4802
-47.475
-20.8847
-1.11059
-1.14928
-20.9106
187.809
183
183.099
187.805
-35.7428
-35.9904
-41.6094
-44.6316
-35.7088
-44.5909
-41.5975
-35.9571
-36.3338
-36.3028
-36.8825
-36.9194
-50.6819
-67.0812
-67.1904
-50.6106
-39.188
-47.5369
-46.5943
-39.115
-39.1543
-39.1151
-46.5067
-47.4544
-42.2755
-42.1377
-42.9416
-43.0808
-42.1255
-38.1603
-38.1269
-42.1449
-40.9464
-40.7539
-38.4437
-38.5725
-35.9426
-177.546
-92.074
-45.903
-45.4874
-48.3139
-12.3151
5.24419
-41.9796
-42.4607
-38.0027
-43.1027
-177.908
-35.6888
-91.8561
-44.7863
-45.037
-47.7509
5.32702
-12.6075
-42.009
-37.8636
-42.3613
-43.0051
-42.4382
-35.2973
-35.2954
-39.4682
-40.2485
-37.1465
-37.6459
-39.2815
-46.0685
-46.5976
-52.0764
-41.3937
-42.9736
-41.0156
-45.2685
-50.3671
-42.6089
-39.4261
-35.2417
-35.2197
-40.4989
-39.2465
-37.2234
-37.893
-46.0731
-41.4266
-46.5926
-52.0705
-42.9864
-50.4087
-41.0286
-45.2775
-39.4202
-20.0381
-66.7225
174.231
-186.07
-187.224
-111.229
144.122
-64.0564
-49.1609
-59.7696
-55.3187
-42.1859
-40.8716
-48.811
-40.2479
-43.3949
-43.4034
-42.5555
-40.5101
-46.1418
-41.3588
-40.5815
-44.0454
2.66307
2.74266
-16.6181
74.7336
-39.6749
-56.2834
-66.2584
-30.8034
-36.6942
-36.6355
-38.2443
-32.8119
-42.1118
-44.162
-45.207
-41.3104
-38.4773
-21.0077
-66.4232
177.692
-64.0686
-49.1243
-59.783
-55.4236
-42.0116
-40.434
-48.4741
-40.1285
-48.9623
-41.5788
-41.8762
-43.4174
-39.6691
-56.2995
-66.2542
-30.8499
-42.1069
-44.1645
-45.2566
-41.2894
-34.4864
-35.1725
-34.5057
-35.3135
-38.5791
-41.4869
-44.0748
-39.8919
-40.997
-40.9934
-45.0287
-38.1777
-32.3942
-34.7853
-37.3849
-32.3234
-39.5687
-39.3636
-38.2575
-41.9445
-52.3431
-48.7474
-46.8658
-66.4946
14.0801
14.1397
23.8369
-4.72918
-50.9046
-50.9174
-61.6419
-40.7022
-34.4517
-35.02
-34.4235
-35.277
-38.5753
-41.4696
-43.9874
-39.8711
-32.4586
-34.809
-37.4351
-32.388
-52.3332
-48.7343
-46.8439
-66.5189
-72.268
-61.0478
-61.7798
-53.3303
-72.2056
-61.0365
-61.7665
-53.3346
-68.2892
-58.1518
-58.2971
-52.2991
-16.4445
-12.5756
-12.6954
-1.6819
197.508
198.81
197.776
197.46
-37.9587
-39.4847
-38.6646
-40.48
-37.9624
-39.4658
-38.5629
-40.4393
-36.0959
-36.2495
-36.5152
-36.0785
-98.7678
-85.9558
-89.1574
-99.5358
-47.7769
-44.0693
-44.2904
-41.9341
-47.757
-44.0483
-44.2502
-41.8944
-44.7032
-43.551
-43.4891
-43.1531
-39.0789
-40.939
-40.954
-40.9983
-38.4694
-38.7488
-33.6912
-38.4098
-72.8441
170.612
-107.777
121.45
-64.5376
-77.4383
-51.4101
-41.6842
-42.8514
-42.5788
-49.3624
-43.1372
-57.8558
154.87
-18.2988
82.7234
-49.82
-26.5983
-47.2805
-39.5361
-37.1906
-37.5887
-45.2278
-38.5467
-108.137
121.142
-73.0183
169.708
-64.0018
-75.8045
-42.7554
-42.5597
-51.0434
-41.4851
-48.7907
-42.925
-18.4196
83.0404
-57.9462
155.498
-49.899
-26.6014
-37.1223
-37.417
-47.1646
-39.4562
-45.1538
-38.5128
-49.5707
-46.6724
-34.2207
-35.6316
-44.6478
-35.519
-44.2935
-37.5457
-38.325
-41.0654
-35.1301
-36.505
-35.4478
-35.8524
-38.0204
-41.3345
-48.2782
-20.3755
-43.682
-44.4281
-48.289
-80.6145
7.90489
-21.9794
-40.4762
-44.1845
-40.1996
-38.9677
-43.9225
-55.7446
-59.8175
-42.2319
-49.6484
-46.7066
-44.3017
-37.5146
-34.2669
-35.5922
-44.5632
-35.5076
-38.8748
-40.8126
-37.9865
-41.6466
-34.9866
-36.4724
-35.5511
-35.9528
-48.2665
-20.3331
8.06886
-21.578
-43.6312
-44.4016
-48.2277
-79.8543
-40.4826
-44.1928
-59.7787
-42.2476
-40.2083
-38.9793
-43.9149
-55.7424
-67.6364
-67.0888
187.194
198.812
-81.8926
-81.7534
197.794
197.742
-73.3042
-52.482
-66.5108
-51.4927
-46.8455
-47.0914
-40.3048
-38.2568
-42.6891
-42.7761
-38.989
-38.9349
-41.2205
-48.799
-43.0122
-45.1745
-18.6728
-18.7781
184.561
184.662
-54.0542
-73.6654
-20.4957
-12.2246
-38.2786
-38.258
-35.6628
-35.8186
-47.6327
-41.2324
-41.6645
-39.4975
-67.7481
-67.1146
198.789
187.172
-73.3442
-52.4946
-66.6952
-51.4678
-47.033
-46.9544
-40.1999
-38.1548
-41.1384
-48.5595
-42.7989
-45.5263
-73.5655
-54.0565
-12.2459
-20.4354
-41.146
-47.6368
-39.4974
-41.6861
-35.8929
-36.0284
-35.8164
-36.1933
-49.401
-48.2082
-37.9019
-41.5753
-48.0295
-48.0284
-36.7326
-36.7187
-37.9046
-39.4891
-39.8937
-39.2591
-37.1153
-37.1342
-42.6793
-42.6127
-42.8235
-44.3669
-87.9788
-77.6713
9.78537
9.74369
-39.4657
-38.5628
-72.4945
-72.433
-41.6613
-41.6762
-35.8661
-35.8644
-35.7836
-36.1574
-48.2436
-49.4423
-37.915
-41.5484
-39.4635
-37.8548
-39.8377
-39.1986
-44.3402
-42.7994
-77.718
-88.1139
-75.6715
-73.4005
-72.5097
-72.7141
-45.0968
-44.5078
-53.2778
-51.1872
-44.8118
-56.5174
-53.6751
-44.1052
-56.7887
-61.2643
-71.0766
-62.7017
-75.669
-72.3806
-72.4789
-73.5976
-56.9277
-62.6751
-71.0084
-61.2269
-44.8047
-44.0233
-53.6734
-56.5127
-45.0486
-51.2376
-53.285
-44.406
-101.97
-110.292
-67.885
-64.6475
-102.215
-64.8806
-67.8408
-110.365
-43.4834
-44.8585
-52.1213
-50.2387
-43.5257
-50.2007
-52.1715
-44.8441
-20.6679
-27.4162
-17.0922
-17.6986
-23.2927
21.0241
-4.12622
-26.8224
-23.1412
-26.8512
-4.0979
20.9656
-20.6859
-17.8615
-16.8041
-27.4314
89.0984
173.296
198.11
175.647
104.375
77.3423
196.74
176.537
104.503
180.39
196.707
77.2069
88.0987
174.054
198.068
173.011
-34.3846
-34.2996
-37.9149
-37.9884
-35.5408
-37.6755
-37.7917
-34.8643
-42.3724
-45.5271
-39.994
-38.4102
-47.7395
-41.6812
-41.1556
-47.735
-34.3888
-37.9903
-37.9236
-34.2985
-47.7018
-47.703
-41.1304
-41.6603
-42.3816
-38.4229
-39.9466
-45.5099
-35.5932
-34.5981
-37.7157
-37.7268
-36.6027
-38.0121
-36.1366
-35.2595
-36.5554
-35.2367
-36.1235
-38.0033
-37.6969
-38.1696
-36.4269
-35.6839
-37.6953
-35.7566
-36.4461
-38.2082
-63.7971
-73.1758
-88.9476
-5.4063
-52.8449
-61.5155
-86.2338
-60.15
-52.8286
-60.1659
-86.1142
-61.4989
-64.3511
-5.24019
-89.3091
-73.1914
-41.0657
-41.9149
-41.9065
-33.1267
-53.0346
-49.8012
-48.2377
-49.4844
-46.0918
-45.0673
-48.0881
-47.2283
-40.5691
-35.8744
-42.0165
-42.3327
-40.6998
-33.191
-41.8482
-41.4547
-40.581
-42.305
-42.0034
-36.0123
-46.0928
-46.7837
-48.1615
-44.9577
-52.657
-49.4694
-48.1217
-49.5072
-40.2412
-41.8082
-43.1501
-42.2368
-40.4962
-42.0516
-43.0914
-42.0636
-43.0052
-42.5687
-44.7185
-47.5422
-43.284
-46.6663
-44.6933
-42.6466
-47.2456
-42.7233
-41.291
-41.3597
-37.4886
-37.8681
-38.8856
-39.6884
-37.4024
-39.6912
-38.8834
-37.8371
-47.2457
-41.3774
-41.3054
-42.7451
-44.1636
-41.2342
-38.8502
-40.6843
-43.9035
-40.6094
-38.8231
-41.1592
-39.3526
-34.3731
-35.6922
-39.1473
-39.4711
-39.2115
-35.8285
-34.553
-49.0953
-156.721
-124.731
-46.8145
-44.691
-51.8285
-8.03366
11.6002
-30.2315
-43.7494
-39.9346
-43.4149
-156.765
-48.8595
-124.719
-44.6398
-45.4733
-49.8661
11.2775
-8.0718
-30.3125
-39.7933
-43.6541
-43.291
-39.632
-36.6067
-35.5562
-38.8128
-43.4754
-38.1068
-39.3148
-39.422
-48.6279
-48.0105
-51.4414
-55.8564
-43.229
-42.687
-44.5059
-47.0787
-39.4457
-38.7579
-36.5816
-35.4325
-44.4781
-39.4707
-38.2503
-39.7932
-48.6458
-55.3404
-48.0102
-51.4534
-43.2449
-47.0803
-42.6995
-44.5151
-34.445
-20.3131
-66.7504
105.929
-176.941
-175.756
-129.748
-91.8522
-58.9779
-51.9898
-58.7316
-54.8878
-42.1865
-42.1397
-48.5849
-40.7256
-42.2866
-42.2278
-44.1372
-42.0172
-46.3752
-42.1556
-40.967
-44.3508
5.3229
4.81381
-9.89359
26.0951
-46.3407
-58.8617
-66.2462
-41.6569
-36.8781
-36.8764
-38.2913
-33.767
-42.6366
-43.7734
-44.2428
-42.8305
-34.5486
-21.123
-66.6315
108.774
-59.0186
-51.9701
-58.7511
-54.9145
-42.1113
-41.8616
-48.202
-40.6436
-45.4123
-42.3025
-41.5832
-43.085
-46.2875
-58.9001
-66.2291
-41.6762
-42.6278
-43.7773
-44.2534
-42.7457
-34.6153
-34.872
-34.1103
-35.0447
-39.317
-40.787
-41.2453
-39.9827
-41.1167
-41.1114
-42.6705
-39.5734
-32.4865
-33.114
-35.9834
-29.6186
-39.6292
-39.442
-38.901
-40.8971
-51.2739
-49.7649
-48.8026
-57.9164
16.1102
16.1387
22.9947
7.95314
-50.836
-50.8626
-56.0428
-45.6111
-34.5246
-34.7555
-34.0317
-34.9609
-39.3107
-40.7723
-41.1942
-39.9702
-32.5393
-33.1776
-36.0223
-29.6161
-51.2603
-49.7511
-48.7843
-57.9253
-67.5157
-61.1068
-61.453
-56.4927
-67.4835
-61.0941
-61.4382
-56.4856
-62.7605
-58.4827
-58.4893
-55.2809
-13.9471
-10.9032
-10.9322
-6.19581
197.991
197.579
197.682
197.974
-38.7867
-39.3383
-38.9208
-39.5689
-38.7207
-39.3078
-38.8336
-39.5215
-36.1596
-36.1654
-36.2933
-36.1532
-100.836
-99.5392
-96.9328
-100.857
-46.6868
-44.1097
-44.1502
-42.804
-46.6643
-44.1045
-44.1482
-42.7727
-43.819
-43.5051
-43.477
-43.2826
-40.0603
-40.7576
-40.7666
-40.7689
-37.886
-39.2012
-35.0346
-37.8006
-26.5843
-35.2611
-78.7888
95.4984
-191.494
-177.593
-127.215
-22.887
-78.7275
-65.3501
-66.1862
-73.5254
-44.9801
-42.5199
-49.1772
-42.2048
-45.0339
-43.8716
-45.6169
-43.326
-45.1545
-44.8094
-48.0622
-42.5087
-16.0475
-17.3901
-50.589
95.8241
0.0257268
-0.0651535
-7.43068
30.1618
-45.3627
-37.8565
-46.6838
-31.9641
-42.0939
-40.9057
-45.9981
-39.9603
-36.8932
-36.4506
-36.8636
-36.7034
-42.9318
-41.799
-44.0914
-39.5277
-191.925
-178.26
-127.587
-28.0952
-26.4294
-34.879
-79.026
89.7625
-78.1241
-65.7702
-65.8878
-72.038
-45.0127
-43.8516
-45.618
-42.4574
-44.1656
-42.3895
-49.1051
-41.9736
-44.0608
-46.7372
-47.8195
-41.5471
-0.0212291
0.215006
-7.51651
30.2092
-16.6021
-18.3978
-50.8329
96.2615
-45.4506
-37.8334
-46.7373
-32.0042
-36.7448
-36.3119
-36.7749
-36.5123
-41.9895
-40.946
-45.9138
-39.9077
-42.8573
-41.7559
-44.0534
-39.494
-45.2059
-47.2067
-47.9789
-46.2481
-34.7481
-34.7723
-34.0728
-35.2126
-35.9637
-37.7304
-38.8538
-36.0402
-39.9769
-40.7998
-41.8544
-38.8665
-36.9455
-40.6776
-36.9403
-39.9367
-36.4334
-35.5201
-35.2294
-36.2403
-35.9726
-33.2385
-35.1029
-33.1679
-39.3431
-39.4806
-38.6822
-40.4829
-44.9773
-52.5223
-47.8169
-34.5978
-45.1761
-42.5494
-43.6526
-44.0916
-53.3546
-53.0557
-50.4021
-64.238
-17.4386
10.078
5.57869
-9.69879
-42.8377
-43.3106
-41.789
-44.3399
-39.8906
-37.1803
-39.4006
-38.6626
-46.0606
-47.8313
-45.5061
-51.2153
-53.3446
-51.8762
-56.5985
-49.3667
-45.2681
-47.2523
-48.1153
-46.2858
-39.9584
-40.7727
-41.8435
-38.8384
-34.7022
-34.7548
-34.102
-35.1698
-35.9337
-37.7396
-38.8504
-36.0291
-37.5663
-37.9036
-38.5498
-39.2251
-39.1914
-39.2707
-38.6206
-40.816
-36.4737
-35.4072
-34.8681
-36.1822
-36.1695
-33.428
-35.2711
-33.1736
-44.9389
-52.5147
-47.7794
-34.5665
-17.318
10.2296
5.76659
-9.2496
-45.1653
-42.5326
-43.6417
-44.0746
-53.1992
-53.0094
-50.3242
-63.8536
-42.861
-43.3326
-41.8096
-44.3712
-53.4494
-51.8754
-56.6553
-49.3828
-39.9073
-37.1896
-39.4121
-38.6804
-46.0616
-47.8214
-45.5003
-51.2085
-62.4137
-74.1646
-68.1797
-68.0616
190.76
197.927
193.812
197.611
-97.2613
-73.8708
-83.0558
-83.0642
203.143
198.755
198.285
198.265
-60.2722
-60.9651
-67.2156
-56.0752
-56.3235
-57.5778
-61.1857
-54.1167
-47.1548
-46.9012
-46.5181
-46.4591
-40.3218
-38.9644
-40.1541
-39.1356
-42.1642
-43.9208
-42.7062
-42.7324
-39.089
-38.499
-38.8395
-38.7749
-42.8781
-43.9507
-42.2532
-46.1284
-43.9622
-43.6225
-43.3502
-44.26
-18.7035
-17.7232
-18.3734
-18.5919
135.572
190.504
185.281
185.379
-64.6733
-61.8656
-58.0867
-68.8099
-24.2227
-15.3067
-20.4131
-15.3318
-38.2444
-38.7972
-38.38
-38.3672
-33.2272
-34.0025
-34.4095
-34.5055
-45.5926
-44.2893
-45.3569
-43.3561
-40.8738
-41.0532
-41.2933
-40.413
-62.8934
-73.9669
-68.1239
-68.0681
190.997
197.889
197.516
193.759
-60.2751
-60.9585
-67.2204
-56.0763
-56.3136
-57.5288
-61.2789
-54.1333
-47.1803
-46.7988
-46.334
-46.5813
-40.1922
-38.881
-40.0665
-38.9893
-43.542
-43.991
-42.3803
-45.948
-43.736
-43.5219
-43.1732
-44.3046
-64.6682
-61.855
-68.7937
-58.0903
-24.2536
-15.4081
-15.3643
-20.4333
-45.6565
-44.2403
-43.327
-45.5378
-40.9304
-41.0729
-40.4236
-41.3152
-35.4437
-36.5758
-35.9236
-35.9968
-35.6048
-35.9876
-35.7763
-35.9491
-46.984
-50.7114
-49.2758
-48.5922
-39.7361
-39.5417
-38.8561
-40.4993
-46.8501
-50.0992
-48.2243
-48.1687
-37.395
-36.4753
-36.8257
-36.8179
-37.936
-38.4059
-38.3789
-38.3157
-38.9176
-41.4409
-39.7538
-39.5773
-37.6936
-36.8227
-37.1757
-37.1891
-42.4504
-42.9518
-42.7552
-42.7177
-45.1086
-41.9776
-43.2959
-44.0023
-81.609
-95.9755
-92.6806
-83.3892
19.042
5.40434
12.0654
12.059
-21.3817
-60.4214
-36.3083
-36.0408
-67.0552
-81.0957
-73.0808
-73.1147
-41.0314
-41.1613
-41.3849
-41.392
-35.38
-36.5417
-35.8719
-35.8663
-35.5594
-35.9632
-35.7408
-35.9088
-46.9578
-50.7289
-48.629
-49.3242
-39.7161
-39.5288
-38.8521
-40.4796
-37.9664
-38.3228
-38.2795
-38.2849
-39.0015
-41.4271
-39.698
-39.4916
-45.083
-41.9418
-43.9734
-43.2688
-81.715
-95.7952
-83.3335
-92.6725
-63.0643
-65.3036
-67.3162
-73.3328
-50.1756
-51.0812
-50.2901
-49.7462
-48.4319
-45.3546
-50.4762
-47.8304
-56.2495
-54.63
-64.226
-66.5235
-63.1423
-64.9592
-67.0956
-73.0911
-56.4262
-54.7197
-64.273
-66.4761
-48.4382
-45.3474
-50.4693
-47.8695
-50.227
-50.9852
-50.3144
-49.7949
-93.6474
-80.1751
-81.8094
-71.5042
-94.3255
-78.3813
-81.4781
-71.6091
-47.0893
-46.1691
-49.2349
-47.8037
-47.0767
-46.1448
-49.2421
-47.8001
-20.494
-22.7289
-19.4455
-20.3096
-9.81927
4.16777
-7.23492
5.6796
-9.81206
4.13341
-7.26822
5.61718
-20.5799
-22.7303
-19.4651
-20.2541
168.556
185.59
182.145
197.415
179.488
142.308
194.227
187.081
142.443
179.682
187.156
194.192
185.707
169.445
197.38
182.141
-35.0629
-35.7181
-35.817
-36.5643
-35.7081
-35.8111
-35.9699
-36.4699
-40.9639
-42.7269
-40.5898
-42.2869
-44.6155
-46.442
-42.9341
-44.5476
-35.1178
-35.7293
-35.826
-36.5855
-44.5763
-46.3923
-42.9012
-44.5149
-40.9638
-42.7175
-40.5734
-42.2649
-35.6728
-35.8558
-35.8573
-36.4301
-36.025
-36.8069
-36.0163
-36.5727
-36.7763
-35.9779
-36.5468
-35.9846
-37.399
-36.6971
-37.0289
-36.4922
-36.7283
-37.43
-36.5239
-37.0521
-70.0228
-33.7961
-68.4813
-42.719
-61.188
-63.3169
-72.0071
-70.9881
-63.2597
-61.2093
-70.8278
-72.0541
-33.7955
-69.814
-41.9668
-68.575
-38.7624
-38.1599
-40.7783
-39.7067
-49.2998
-48.4004
-47.184
-48.2414
-47.0982
-45.9882
-47.1838
-47.2063
-39.7005
-38.8197
-39.7716
-39.1255
-38.9497
-38.1925
-40.5238
-39.6513
-39.7316
-38.7752
-39.8876
-39.0758
-47.0826
-45.9081
-47.067
-47.0674
-49.2083
-48.0283
-47.2476
-48.5373
-41.9916
-41.8999
-42.6174
-42.5278
-41.7678
-41.8255
-42.4424
-42.4313
-42.3021
-43.2323
-42.6937
-44.233
-42.494
-43.4
-42.8427
-44.1837
-41.8407
-42.0982
-41.9923
-42.0446
-37.6101
-38.287
-38.1848
-38.7888
-37.5575
-38.2524
-38.1552
-38.7782
-41.862
-42.1161
-42.0125
-42.0622
-41.2759
-41.3935
-40.5566
-39.6356
-41.2023
-41.1525
-39.7345
-40.4424
-38.091
-39.0387
-37.2441
-38.4021
-39.1343
-38.2354
-38.5023
-37.3877
-91.0573
42.8538
-122.279
26.6484
-82.303
-96.5466
-50.1301
-44.6056
-46.6707
-45.0507
-52.3833
-43.2163
-43.2459
71.1962
-5.66705
35.65
-51.2393
-25.9015
-46.1652
-40.3615
-37.3345
-39.0499
-45.2139
-39.3455
-122.623
25.4394
-91.4424
40.3563
-82.0455
-96.5472
-47.7816
-44.1581
-49.914
-44.6921
-52.1348
-42.5634
-5.71223
35.5733
-43.545
71.289
-51.3302
-25.8697
-37.2136
-38.9143
-46.0081
-40.2463
-45.1324
-39.2541
-43.7891
-43.1418
-34.4071
-35.9416
-37.7228
-34.6458
-40.9894
-37.888
-40.7493
-39.8504
-36.3565
-37.4844
-35.8433
-42.0874
-38.4264
-39.9824
-45.8232
-40.0465
-45.762
-47.2584
-49.6383
-66.0106
-26.5289
-53.0231
-41.9586
-44.8589
-41.7163
-40.5734
-44.0321
-49.1888
-51.4554
-48.3767
-44.015
-43.343
-40.9203
-37.8416
-34.3886
-35.8822
-37.5856
-34.6336
-40.8511
-40.3026
-38.4541
-40.4355
-36.2455
-37.5308
-36.0932
-42.0383
-45.8281
-40.0886
-26.5764
-53.1476
-45.7603
-47.2458
-49.5969
-66.3271
-41.9716
-44.8615
-51.4588
-48.3866
-41.7288
-40.5892
-44.043
-49.1828
-72.689
92.9466
-59.2821
110.028
-69.2914
-63.8722
176.837
176.238
-128.396
-63.9947
-128.504
-47.0215
-110.765
-110.791
150.131
156.631
-71.0919
-64.0118
-51.0658
-49.4675
-66.1607
-55.7851
-59.6846
-52.796
-49.5196
-41.0107
-45.5157
-39.4317
-49.4447
-47.5687
-40.5493
-39.8239
-44.5771
-42.6761
-44.5069
-42.2546
-42.5157
-42.602
-40.7603
-40.6971
-49.181
-47.5024
-41.9159
-41.4797
-41.5611
-44.7721
-42.9639
-44.8232
-9.64116
24.4058
-9.56327
24.0027
-17.0641
-16.7828
76.481
78.8531
-47.7887
-32.9889
-58.4498
-40.7898
-61.0367
-74.5254
-29.6492
-29.0713
-37.7619
-34.5201
-37.7249
-34.2963
-38.1305
-38.1183
-33.1428
-33.2474
-43.2778
-40.1529
-43.2586
-45.209
-45.1077
-44.0488
-42.8059
-40.4766
-72.5412
90.9107
-59.3602
115.221
-68.9722
-63.6325
179.907
176.461
-71.3756
-64.0375
-51.1242
-49.4794
-66.1726
-55.7877
-59.7013
-52.8275
-49.1509
-40.9369
-45.1805
-39.3355
-47.1595
-49.1824
-40.4759
-39.7319
-49.858
-49.0507
-40.9594
-41.7174
-41.2053
-44.2749
-42.519
-44.646
-47.8244
-32.9976
-58.4464
-40.8126
-74.4696
-61.0513
-29.0855
-29.6962
-43.2273
-40.1869
-43.263
-45.2161
-44.0482
-45.0569
-40.4309
-42.8788
-33.923
-34.8683
-34.5916
-35.475
-34.4256
-34.6333
-35.2466
-35.4843
-40.473
-37.9942
-42.4065
-41.571
-44.2117
-44.1888
-39.1008
-40.7156
-42.4766
-39.4093
-42.4786
-39.3978
-44.9063
-44.9263
-38.1291
-38.1183
-35.2005
-28.9563
-36.7996
-33.9127
-38.0389
-37.8482
-32.1641
-32.0694
-38.8477
-40.7324
-38.811
-40.9863
-38.2296
-38.2532
-41.8836
-42.115
-49.7044
-60.8397
-47.0922
-54.3148
-46.2142
-47.2831
-70.1115
-62.9606
19.7449
4.98699
19.7605
4.95917
23.0924
23.1185
-4.89594
-4.86862
-56.2395
-46.6408
-56.2629
-46.6297
-61.6475
-61.6002
-40.8871
-40.8978
-33.9443
-34.8082
-34.2746
-35.3761
-34.3725
-34.4907
-35.1877
-35.4287
-40.3325
-37.9987
-42.3878
-41.5589
-44.1022
-44.1122
-39.092
-40.6938
-35.2747
-28.8996
-36.8267
-33.9164
-37.866
-38.0769
-32.2394
-32.3819
-49.6719
-60.8365
-47.0784
-54.3125
-47.2589
-46.1937
-62.9834
-70.1226
-72.0494
-71.5719
-67.3031
-56.6668
-57.3682
-67.4987
-53.3483
-53.4501
-71.9978
-71.5024
-67.2859
-56.6634
-67.4688
-57.3643
-53.452
-53.3548
-68.1967
-68.1764
-62.3478
-54.9966
-62.2544
-54.9969
-52.3714
-52.3687
-16.4394
-16.27
-15.552
-8.29193
-8.46986
-15.3329
-2.08418
-2.3087
198.074
197.413
198.666