# vtk DataFile Version 2.0
tri_press
ASCII
DATASET UNSTRUCTURED_GRID
POINTS 3682 float
-0.713936 0.345 -2.245
-0.887803 0.555 2.465
-0.749307 0.635 -2.415
-0.845 0.944239 2.335
0.713936 0.345 -2.245
0.887803 0.555 2.465
0.749307 0.635 -2.415
0.845 0.944239 2.335
-0.805854 0.381038 -0.675
-0.845912 0.468935 0.895
-0.868414 0.825289 -0.831667
-0.862057 0.890114 0.751667
0.805839 0.381052 -0.675
0.845916 0.468931 0.895
0.868414 0.825289 -0.831667
0.862058 0.890115 0.751667
-1.5396 0.0625854 -3.42891
-1.5424 0.141472 -2.16757
-1.61654 0.192774 -0.597919
-1.67444 0.264245 0.969053
-1.71013 0.347941 2.53848
-1.71871 0.4109 3.79871
-1.71821 0.473074 5.061
-1.53474 0.244808 -3.50912
-1.53808 0.340208 -2.24632
-1.63218 0.399114 -0.674075
-1.68654 0.469193 0.896975
-1.72151 0.548808 2.46897
-1.7281 0.611183 3.72939
-1.7255 0.673769 4.99124
-1.55149 0.585849 -3.67328
-1.57066 0.681574 -2.41103
-1.6772 0.822214 -0.829692
-1.70233 0.88881 0.752592
-1.70361 0.949062 2.33368
-1.72051 1.01128 3.59355
-1.727 1.07659 4.85324
-1.59028 1.17703 -3.90949
-1.60929 1.27959 -2.64524
-1.6583 1.41634 -1.05958
-1.69321 1.51221 0.528956
-1.70586 1.5796 2.11448
-1.71326 1.63493 3.37843
-1.72021 1.69556 4.63958
-0.750257 0.063692 -3.42805
-0.733975 0.143992 -2.16632
-0.791568 0.183502 -0.598087
-0.831313 0.262788 0.967367
-0.858686 0.351101 2.53554
-0.867422 0.412383 3.79672
-0.868394 0.473108 5.05984
-0.746898 0.241267 -3.50886
-0.879719 0.612437 3.72774
-0.876108 0.673474 4.99036
-0.758315 0.566124 -3.67492
-0.872446 1.00914 3.59381
-0.879003 1.07499 4.8533
-0.777442 1.1656 -3.91111
-0.784773 1.2699 -2.64704
-0.821436 1.41568 -1.06066
-0.850412 1.51354 0.529086
-0.860336 1.57854 2.11541
-0.867275 1.63317 3.37936
-0.874587 1.69398 4.64026
0.772168 0.0636941 -3.42805
0.770594 0.143995 -2.16632
0.82099 0.183511 -0.598087
0.854835 0.262787 0.967368
0.880491 0.3511 2.53554
0.858948 0.412383 3.79672
0.84244 0.473108 5.05984
0.756521 0.241268 -3.50886
0.85108 0.612437 3.72774
0.835989 0.673474 4.99036
0.76989 0.566125 -3.67493
0.834934 1.00914 3.59381
0.826248 1.07499 4.8533
0.829076 1.1656 -3.91111
0.843473 1.2699 -2.64704
0.850702 1.41568 -1.06066
0.842603 1.51354 0.529086
0.834945 1.57854 2.11541
0.827771 1.63317 3.37936
0.819777 1.69398 4.64026
1.55306 0.06259 -3.42891
1.55664 0.141479 -2.16757
1.62984 0.192787 -0.597919
1.6896 0.264247 0.969053
1.72358 0.34794 2.53848
1.71262 0.4109 3.79872
1.69519 0.473075 5.061
1.53532 0.244811 -3.50912
1.52852 0.340212 -2.24632
1.62608 0.399127 -0.674075
1.6875 0.469194 0.896975
1.72197 0.548807 2.46897
1.70806 0.611183 3.72939
1.69026 0.673769 4.99124
1.55371 0.585851 -3.67328
1.56194 0.681575 -2.41103
1.66942 0.822219 -0.829692
1.69868 0.888813 0.752592
1.698 0.949061 2.33368
1.69014 1.01128 3.59355
1.67891 1.07659 4.85324
1.63202 1.17704 -3.90948
1.65257 1.2796 -2.64524
1.67837 1.41634 -1.05958
1.68468 1.51222 0.528956
1.68095 1.5796 2.11448
1.67446 1.63493 3.37843
1.66646 1.69556 4.63958
-0.734501 0.49 -2.33288
0 0.342756 -2.24724
-0.781431 0.341483 -1.46
-0.841829 0.74962 2.37543
0 0.549292 2.47071
-0.884366 0.494459 1.68
0 0.665183 -2.44518
-0.825849 0.747133 -1.62333
0 0.943789 2.33455
-0.855279 0.918927 1.54333
0.73447 0.49 -2.33285
0.781442 0.341472 -1.46
0.841829 0.74962 2.37543
0.884373 0.494452 1.68
0.825835 0.747119 -1.62333
0.855275 0.918923 1.54333
-0.825922 0.424948 0.11
-0.899847 0.603163 -0.753333
-7.2835e-06 0.28126 -0.675
-0.8722 0.679525 0.823334
2.12117e-06 0.281273 0.895
-0.865722 0.858188 -0.04
0 1.09071 -0.831667
3.89858e-07 1.51872 0.751667
0.825919 0.424951 0.11
0.899846 0.603171 -0.753333
0.872809 0.679523 0.823334
0.865723 0.858189 -0.04
-0.823623 0.546582 -1.54167
0.823659 0.546585 -1.54167
-3.64175e-06 0.311311 -1.46
0 1.02514 -1.62333
0 0.49 -2.41289
-0.891488 0.641344 0.035
0.891489 0.641347 0.035
-2.58117e-06 0.281267 0.11
1.94929e-07 1.52919 -0.04
-0.885773 0.714572 1.61167
0.885773 0.714571 1.61167
1.06059e-06 0.348956 1.68
1.94929e-07 1.14907 1.54333
0 0.74962 2.25411
-0.721012 0.4175 -2.28573
-0.356968 0.342759 -2.24724
-0.751482 0.339443 -1.8525
-0.878391 0.65231 2.43379
-0.443902 0.549278 2.47072
-0.876006 0.534808 2.0725
-0.761465 0.5625 -2.3935
-0.374653 0.663818 -2.44382
-0.774782 0.67827 -2.01917
-0.855736 0.846929 2.36754
-0.4225 0.944086 2.33485
-0.851198 0.932641 1.93917
0.356968 0.342755 -2.24724
0.720954 0.4175 -2.28567
0.751485 0.33944 -1.8525
0.443902 0.549306 2.47069
0.878611 0.65231 2.43401
0.876025 0.534789 2.0725
0.374653 0.6638 -2.4438
0.761468 0.5625 -2.3935
0.774779 0.678268 -2.01917
0.4225 0.944099 2.33486
0.85563 0.846929 2.36743
0.8512 0.932644 1.93917
-0.807432 0.347471 -1.0675
-0.81589 0.40299 -0.2825
-0.855822 0.490615 -0.714167
-0.427079 0.282852 -0.675
-0.882387 0.46445 1.2875
-0.835947 0.446912 0.5025
-0.899022 0.554247 0.859167
-0.468997 0.283019 0.895
-0.849844 0.788923 -1.2275
-0.870308 0.707315 -0.7925
-0.867376 0.842047 -0.435833
-0.485786 1.06115 -0.831667
-0.859148 0.905 1.1475
-0.870338 0.786424 0.7875
-0.863911 0.874172 0.355833
-0.555271 1.4529 0.751667
0.807315 0.347588 -1.0675
0.427067 0.282855 -0.675
0.815882 0.402998 -0.2825
0.855787 0.490639 -0.714167
0.882391 0.464446 1.2875
0.469 0.28302 0.895
0.835948 0.446911 0.5025
0.899143 0.554337 0.859167
0.849636 0.788716 -1.2275
0.485786 1.06116 -0.831667
0.870313 0.707321 -0.7925
0.867378 0.842049 -0.435833
0.859148 0.905001 1.1475
0.555271 1.4529 0.751667
0.87034 0.786273 0.7875
0.863913 0.874174 0.355833
-0.785667 0.518291 -1.93727
-0.367251 0.49 -2.41078
-1.82088e-06 0.330007 -1.85362
0 0.416378 -2.32796
-0.80197 0.444032 -1.50083
-0.390717 0.311311 -1.46
-0.870873 0.732096 1.99355
-0.420914 0.74962 2.37547
5.30293e-07 0.387515 2.07535
0 0.649456 2.45825
-0.888317 0.604516 1.64583
-0.442183 0.358231 1.68
0 0.958443 -2.03426
0 0.577592 -2.47797
-0.820285 0.646858 -1.5825
-0.412925 1.00803 -1.62333
9.74646e-08 1.01276 1.93894
0 0.846704 2.25307
-0.8754 0.81675 1.5775
-0.42764 1.13731 1.54333
0.785577 0.518293 -1.93726
0.367235 0.49 -2.41133
0.801968 0.444028 -1.50083
0.390719 0.311311 -1.46
0.870877 0.732095 1.99355
0.420914 0.74962 2.37547
0.888317 0.604512 1.64583
0.442187 0.357984 1.68
0.820275 0.646852 -1.5825
0.412917 1.00803 -1.62333
0.875526 0.816747 1.5775
0.427637 1.13731 1.54333
-0.872132 0.526432 0.0725
-0.448042 0.282948 0.11
-0.845081 0.574873 -1.1475
-0.89984 0.622254 -0.359167
-5.46263e-06 0.286737 -1.0675
-4.93233e-06 0.281263 -0.2825
-0.876095 0.660435 0.429167
-0.885678 0.697049 1.2175
-2.29997e-07 0.28127 0.5025
1.59088e-06 0.311581 1.2875
-0.870205 0.745566 -0.00249997
-0.551775 1.43151 -0.04
0 1.05954 -1.2275
9.74646e-08 1.36302 -0.435833
2.92394e-07 1.52451 0.355833
2.92394e-07 1.37796 1.1475
0.872127 0.526437 0.0725
0.448039 0.282948 0.11
0.845081 0.574878 -1.1475
0.89984 0.622259 -0.359167
0.876083 0.660435 0.429167
0.885678 0.697047 1.2175
0.87021 0.74557 -0.00249997
0.551784 1.43153 -0.04
-0.779338 0.430766 -1.89489
-0.828624 0.468066 -1.1075
-0.840412 0.680542 -1.1875
-0.806672 0.604679 -1.97822
0.779363 0.430764 -1.89488
0.806677 0.604676 -1.97821
0.840412 0.680541 -1.1875
0.828598 0.46807 -1.1075
-0.373843 0.330022 -1.85306
0.373844 0.33002 -1.85306
0.396818 0.286737 -1.0675
-0.396824 0.286738 -1.0675
-0.393789 0.955759 -2.02671
-0.423566 1.05625 -1.2275
0.423562 1.05639 -1.2275
0.393785 0.955759 -2.02671
-0.362109 0.416939 -2.34566
-0.370952 0.570046 -2.47604
0.370944 0.570046 -2.47604
0.362102 0.416939 -2.3457
-0.863965 0.50853 -0.320833
-0.883291 0.541483 0.465833
-0.870532 0.766126 0.3925
-0.870246 0.726435 -0.3975
0.86395 0.508542 -0.320833
0.870251 0.726441 -0.3975
0.870538 0.766053 0.3925
0.883342 0.541533 0.465833
-0.437554 0.282912 -0.2825
0.437547 0.282912 -0.2825
0.458519 0.282985 0.5025
-0.458519 0.282985 0.5025
-0.546844 1.30246 -0.435833
-0.550027 1.43522 0.355833
0.550027 1.43521 0.355833
0.546834 1.30244 -0.435833
-0.888403 0.589373 1.2525
-0.899856 0.628413 2.03302
-0.868572 0.83184 1.96636
-0.871848 0.800785 1.1825
0.888402 0.589369 1.2525
0.871666 0.800783 1.1825
0.868574 0.831838 1.96636
0.899856 0.628411 2.03302
-0.432569 0.326271 1.2875
0.432573 0.326169 1.2875
0.443044 0.387365 2.07393
-0.443042 0.387377 2.07393
-0.429334 1.37462 1.1475
-0.42507 1.01274 1.93905
0.425069 1.01274 1.93905
0.429333 1.37466 1.1475
-0.432408 0.650883 2.45616
0.432408 0.650883 2.45618
0.421707 0.846817 2.36839
-0.421707 0.846817 2.36839
-0.711286 0.38125 -2.25918
-0.535452 0.343108 -2.24689
-0.73426 0.340671 -2.04875
-0.892297 0.603655 2.45859
-0.665852 0.549272 2.47073
-0.884363 0.542446 2.26875
-0.756473 0.59875 -2.40534
-0.56198 0.651417 -2.43142
-0.760377 0.654968 -2.21708
-0.853305 0.895584 2.35421
-0.63375 0.944083 2.33484
-0.849193 0.939535 2.13708
0.535452 0.343106 -2.24689
0.712485 0.38125 -2.26038
0.734252 0.340678 -2.04875
0.665852 0.549313 2.47069
0.892254 0.603655 2.45855
0.884381 0.542427 2.26875
0.56198 0.651343 -2.43134
0.756473 0.59875 -2.40534
0.76029 0.65488 -2.21708
0.63375 0.944103 2.33486
0.853517 0.895584 2.35442
0.849196 0.939538 2.13708
-0.800839 0.370058 -0.87125
-0.810838 0.392048 -0.47875
-0.830827 0.435832 -0.694583
-0.640675 0.283528 -0.675
-0.88255 0.448292 1.09125
-0.840898 0.457954 0.69875
-0.866724 0.514463 0.877083
-0.703575 0.283737 0.895
-0.857491 0.805469 -1.02958
-0.870058 0.766651 -0.812083
-0.868205 0.833978 -0.63375
-0.733749 1.05652 -0.831667
-0.860765 0.89772 0.949584
-0.867794 0.839067 0.769584
-0.865098 0.884258 0.55375
-0.708975 1.17213 0.751667
0.800836 0.370062 -0.87125
0.640666 0.283528 -0.675
0.810833 0.392054 -0.47875
0.830819 0.435843 -0.694583
0.882548 0.448294 1.09125
0.703577 0.283738 0.895
0.840899 0.457954 0.69875
0.866755 0.514521 0.877083
0.857497 0.805474 -1.02958
0.73367 1.05636 -0.831667
0.870059 0.766653 -0.812083
0.868211 0.833983 -0.63375
0.860765 0.897719 0.949584
0.708975 1.17213 0.751667
0.867805 0.838997 0.769584
0.865102 0.884261 0.55375
-0.728102 0.45375 -2.30965
-0.739723 0.52625 -2.35493
-0.761316 0.504145 -2.13508
-0.550876 0.49 -2.38808
-0.178484 0.342757 -2.24724
[...]
POINT_DATA 3682
SCALARS point_scalars float 1
LOOKUP_TABLE default
-104.251
-47.7666
-4.18102
-47.1635
-104.143
-43.8711
-4.1259
-44.0942
-39.4634
-29.9599
-42.0932
-40.3441
-39.4153
-29.8503
-42.0285
-40.2508
5.8814
-71.2859
-41.7672
-45.2176
-48.7931
-47.3952
-46.2684
5.8814
-67.8697
-43.1612
-36.4098
-44.0491
-46.2684
-46.2684
-6.44412
-100.283
-42.8788
-39.2842
-43.2977
-46.2684
-46.2684
-6.44412
-99.5125
-32.8563
-45.4288
-39.4637
-48.4604
-46.2684
144.633
-106.011
-39.1474
-46.1469
-47.9766
-39.2545
-39.2545
158.603
-39.0881
-38.3967
158.603
-37.8234
-37.8234
141.367
-35.9556
-20.6881
-53.4402
-40.7206
-45.6307
-37.8234
152.825
-102.057
-39.0398
-42.5533
-43.745
-35.8994
-35.8994
158.68
-35.8994
-34.6559
158.68
-34.7299
-34.7299
141.419
-36.0154
-24.0574
-53.4367
-40.2425
-42.1117
-34.7299
5.88376
-70.0708
-41.6837
-44.7468
-45.0693
-43.4115
-42.4782
5.88376
-67.8388
-43.0821
-36.3606
-40.8089
-42.4782
-42.4782
-6.41367
-100.257
-42.7961
-39.185
-40.5913
-42.4782
-42.4782
-6.41367
-99.4578
-32.9005
-45.3827
-38.0909
-45.4703
-42.4782
-69.0187
-161.403
-36.5925
-43.5658
-27.0696
-35.8026
171.895
-38.3131
-37.3774
-42.5506
-69.1639
-36.5822
-39.9235
-34.9136
-38.2501
-42.3498
-36.5125
-43.7608
-41.1948
-38.1741
-41.9113
-45.4316
19.0938
-63.6059
-36.4196
-43.6834
-38.1083
-45.3232
-34.8651
-34.8287
-48.5395
-30.0277
69.6002
-41.0913
-40.9867
-38.1486
-119.116
-39.1171
-38.499
-37.9442
-41.4531
-31.3051
-75.3626
-147.171
-52.4695
-43.6017
-36.4084
-37.2977
-49.0016
147.72
-54.679
-45.627
-37.3621
-39.7282
-147.29
-75.4886
-52.4333
-30.9727
-40.1645
-35.4857
147.247
-49.0237
-54.6337
-36.4306
-41.9944
-39.0773
-18.0163
-37.1996
-42.827
-41.063
-37.8088
-36.1813
-34.6796
-44.1592
-29.6471
-43.1506
-48.0225
6.57985
-41.3155
-38.6873
-42.8631
-57.0621
-18.0411
-41.0333
-37.1225
-42.7621
-37.4326
-43.9519
-36.0519
-34.5881
-29.5074
6.55392
-43.0749
-47.8675
-41.1613
-57.204
-38.5895
-42.7672
-46.846
85.5228
-70.2016
47.2339
-34.1402
-45.4164
-38.0926
-35.5146
-35.3886
-30.5739
-37.5145
-37.7718
-58.7389
197.66
-36.2546
-30.7728
-39.8779
-30.8053
-40.678
-42.4
-46.6838
85.8154
-34.1207
-45.3894
-36.6701
-30.9734
-36.7684
-37.1925
-36.2091
-30.7632
-40.2402
-42.6961
-37.5256
-37.4659
-23.5019
-41.8083
-42.983
-38.8865
-38.9269
-38.6838
-39.1989
-40.7597
-42.2233
-87.9156
-5.06538
16.6973
-74.7935
-47.2221
-37.4314
-37.4178
-23.4565
-41.7039
-38.8131
-38.4152
-42.1209
-87.9144
-47.1548
-26.5457
-28.7839
-47.4242
-47.1778
-47.3784
-28.4565
-26.5857
-66.1048
-66.0676
-40.6629
-40.6871
-62.2956
-10.574
-10.5963
-62.3417
49.4183
190.569
190.614
49.3783
-38.6416
-36.75
-39.9761
-44.057
-38.5578
-43.9419
-39.8697
-36.6268
-38.2189
-38.1837
-38.5755
-38.6627
-27.7161
-61.7624
-61.7018
-27.837
-37.9005
-38.0941
-38.1203
-39.1423
-37.5774
-38.88
-36.9263
-36.5114
-39.7706
-39.48
-36.2113
-38.0308
-49.3978
-40.1612
-40.3455
-49.6503
-36.026
-31.6535
-32.7333
-36.0339
-81.0335
-127.914
-71.4968
-46.7737
-38.6774
-40.1774
-35.2531
146.03
-80.4587
-46.9389
-37.9244
-40.2576
-127.884
-79.9793
-71.4012
-34.9326
-43.0319
-37.5727
146.297
-35.2396
-80.3431
-35.385
-43.3616
-38.8859
-51.0384
-37.9278
-40.8764
-40.4206
-44.7108
-35.6537
-31.968
-47.5692
-35.3753
-43.016
-46.4499
-22.0737
-40.4176
-39.3991
-40.5313
-45.4003
-50.902
-40.3827
-37.8332
-40.8125
-44.2813
-47.1477
-35.5095
-31.8977
-35.3196
-22.0306
-42.9429
-46.3532
-40.2976
-45.3827
-39.299
-40.4438
-66.3931
-63.6806
-65.8374
82.5423
-151.349
-152.078
-101.36
21.4488
-41.0247
-32.1107
-34.5631
-42.1443
-42.567
-44.4744
-40.6419
-36.8785
-31.9274
-26.6579
-33.3634
-25.5821
-41.5536
-37.0401
-36.7202
-37.3024
170.968
169.576
-75.7774
209.436
-38.6161
-32.721
-38.1788
-30.4636
-36.7761
-35.8233
-39.376
-29.7252
-40.8766
-41.821
-40.937
-44.4903
-66.9754
-63.9267
-65.7961
82.4251
-41.0952
-32.0778
-34.5336
-42.124
-39.0441
-40.8276
-38.3976
-33.3884
-40.1799
-36.4457
-35.9053
-36.5154
-38.6799
-32.9271
-38.1217
-30.4426
-40.5549
-41.6559
-40.5902
-44.7953
-36.7964
-36.2376
-37.1637
-36.4437
-44.3445
-42.71
-43.8852
-43.1477
-41.1181
-41.1051
-42.8323
-39.8749
-37.3247
-38.1232
-38.9422
-37.6365
-42.0714
-41.9891
-40.3429
-42.9075
-46.4845
-44.0772
-43.5492
-62.2273
16.3233
16.2735
7.92313
35.3687
-62.2244
-62.258
-66.8658
-55.622
-36.7129
-36.1297
-37.0698
-36.3731
-44.2737
-42.6321
-43.7946
-43.0541
-37.2669
-38.0465
-38.8107
-37.2844
-46.3604
-43.9768
-43.4455
-62.0435
-41.2872
-34.4086
-35.1763
-30.3601
-41.3638
-34.3575
-35.1422
-30.3575
-55.6517
-47.7642
-47.7452
-43.9708
-42.2996
-30.1492
-30.1495
-16.7944
63.8046
32.0721
124.864
64.0096
-38.8809
-41.0168
-39.4101
-41.715
-38.7797
-40.914
-39.3048
-41.6115
-37.9949
-38.3067
-38.4392
-37.9705
-111.205
-87.3856
-89.496
-111.146
-38.5638
-38.1669
-40.1548
-38.7235
-37.5878
-37.4866
-39.6173
-38.3077
-36.7728
-38.0865
-37.7388
-39.2077
-40.3318
-41.6456
-41.8744
-43.4886
-32.4159
-31.9979
-31.1662
-30.6833
-66.3636
32.539
-95.7332
4.51811
-48.0611
-60.4206
-41.4558
-37.2123
-38.2259
-35.7962
-37.3858
-39.71
-67.9437
173.161
-54.2586
196.648
-49.7653
-60.9864
-40.1421
-36.9895
-38.5853
-36.4255
-38.477
-40.6294
-95.6902
4.62259
-66.266
32.5132
-48.068
-60.3815
-35.0372
-29.5992
-39.0063
-34.2627
-35.6918
-37.6483
-54.2264
196.637
-67.895
173.223
-49.7074
-60.937
-38.2602
-34.0257
-38.1227
-33.7374
-37.4805
-40.6667
-23.5263
-35.3407
-37.9078
-37.2563
-51.13
-40.1267
-43.0167
-39.3074
-37.5255
-38.4881
-36.5559
-37.2098
-36.2738
-40.8887
-40.4356
-41.4008
-30.7018
-14.8911
-39.3186
-44.6853
-45.632
-74.5534
-0.934485
11.4249
-40.1004
-54.6973
-39.0667
-38.7838
-41.4941
-51.8882
-56.2909
-59.8507
-23.5553
-35.3155
-42.9968
-39.2723
-37.9216
-37.2054
-50.9656
-40.039
-37.153
-38.1168
-40.3045
-41.2024
-36.4287
-37.0919
-36.0868
-40.2971
-30.5197
-14.8881
-0.930939
11.564
-39.2799
-44.5846
-45.5045
-74.1533
-39.8837
-54.5305
-56.2478
-59.9381
-38.9516
-38.5867
-41.3927
-51.7735
-46.6924
-47.0365
61.431
128.442
-69.267
-69.2373
60.6332
60.4667
-39.6954
-30.2567
-52.2308
-41.1482
-38.4196
-38.0208
-35.7062
-35.6036
-35.31
-36.3844
-33.2831
-29.862
-37.7059
-37.5907
-38.1351
-38.0677
-58.3835
-58.56
195.902
196.03
-31.6276
-40.5654
-41.6235
-19.0134
-39.8896
-40.0586
-30.2822
-32.1984
-38.4433
-40.2213
-44.5743
-41.213
-46.7023
-46.8483
128.573
61.4984
-39.6524
-30.2596
-52.1998
-41.1215
-36.7
-36.9279
-31.3193
-31.4463
-37.2046
-36.4972
-37.709
-36.9938
-40.8475
-31.6838
-18.9964
-41.6231
-39.9224
-37.6867
-41.5232
-44.7885
-38.0107
-36.8801
-37.6009
-37.777
-25.5573
-25.4597
-39.8919
-43.3212
-42.6092
-42.6196
-38.7342
-38.717
-37.7175
-39.3055
-38.2802
-38.6061
-39.0579
-39.1011
-40.5864
-40.4386
-40.8446
-43.083
-111.498
-71.3137
-6.35304
-6.36043
12.3259
12.2769
-72.5707
-72.5495
-47.4708
-47.5633
-37.9229
-36.7729
-37.5617
-37.7142
-25.353
-25.5739
-39.7989
-43.2093
-39.1956
-37.5983
-38.022
-38.3248
-42.9746
-40.7427
-71.258
-110.444
-68.1901
-39.7755
-40.8511
-65.9822
-53.4022
-47.6185
-30.2791
-30.6188
-37.5309
-32.5908
-30.8127
-40.6407
-72.052
-67.9675
-41.3091
-39.4322
-68.0882
-65.9117
-40.7991
-39.6471
-71.9875
-39.5638
-41.4418
-67.9374
-37.497
-40.5837
-30.8316
-32.7211
-53.2975
-30.6162
-30.2653
-47.4876
-87.8405
-101.117
-54.8136
-48.0969
-87.8007
-48.0722
-54.7885
-100.549
-45.6114
-42.7591
-43.3423
-38.0569
-45.6479
-38.0931
-43.3576
-42.7679
-40.7575
-39.2512
-42.2732
-87.3395
-25.0286
5.63521
-17.3699
-22.0009
-24.9837
-22.01
-17.3756
5.61547
-40.9271
-89.2982
-42.3108
-39.2316
-23.7814
60.8285
61.5928
20.7733
176.085
207.867
121.548
115.242
176.019
115.357
121.707
207.957
-23.8881
22.1288
61.4643
60.7546
-38.7919
-37.4636
-39.4357
-41.4768
-35.9341
-37.8775
-38.0448
-36.6138
-39.5336
-42.1573
-40.042
-38.7514
-45.5524
-44.2529
-42.4687
-44.5409
-38.704
-41.3886
-39.3419
-37.378
-45.4485
-44.4268
-42.3621
-44.1528
-39.4314
-38.6272
-39.9391
-42.0572
-35.7857
-36.5064
-37.9384
-37.7084
-38.558
-39.7437
-38.1316
-36.5288
-38.4779
-36.4715
-38.1117
-39.7282
-38.7498
-40.3145
-38.2689
-36.497
-38.9199
-36.5854
-38.3011
-40.3762
-51.5697
-67.5685
-87.6004
30.9129
-48.4818
-64.9358
-86.2649
-56.509
-48.389
-56.3824
-86.2225
-64.9354
-51.688
30.813
-87.5015
-67.4127
-42.5419
-37.2104
-38.1726
-38.9803
-40.3387
-41.4232
-38.341
-38.0219
-39.7427
-39.08
-38.3248
-40.4601
-39.5945
-37.9823
-39.3221
-40.8797
-42.0182
-38.3876
-37.7145
-36.6653
-39.4351
-40.6381
-38.9581
-37.6673
-37.9648
-38.3064
-37.439
-38.4988
-37.854
-36.8192
-37.3028
-39.0475
-39.0215
-42.7524
-39.155
-37.2604
-38.8026
-36.7416
-38.9387
-42.6453
-37.8399
-33.2187
-36.6612
-37.9657
-41.1225
-39.2976
-37.2639
-35.2629
-48.498
-49.5837
-43.6714
-56.9264
-39.2297
-39.0256
-40.5235
-42.1459
-38.5017
-42.4001
-40.7591
-39.0076
-48.5848
-56.9831
-43.8114
-50.0409
-37.4811
-30.4966
-33.3466
-37.0168
-33.9497
-33.6661
-31.0388
-23.909
-34.1308
-29.4478
-30.5295
-33.4667
-37.2651
-36.8668
-32.2122
-31.6202
-95.1206
-118.143
-94.3956
-47.5477
-41.0225
-43.2126
-12.9346
115.801
-84.3673
-47.62
-40.6662
-40.8735
-118.313
-94.8938
-94.3185
-37.3696
-43.7447
-40.071
115.842
-12.7598
-84.3631
-37.5326
-44.3431
-38.9437
-41.7369
-38.5687
-40.0791
-38.6012
-38.4444
-34.5603
-30.6587
-37.8138
-38.7364
-42.6739
-44.9481
-32.3894
-40.2885
-39.8401
-40.5215
-43.1366
-41.6914
-38.6348
-38.4618
-40.0165
-38.0762
-37.662
-34.4247
-30.5775
-38.6841
-32.3286
-42.6033
-44.8642
-40.1925
-43.0811
-39.7404
-40.427
-67.2208
-67.7225
-93.7779
42.0211
-124.684
-125.104
-135.691
-2.33338
-39.2479
-34.0189
-35.3934
-39.8947
-43.4279
-44.0673
-44.6663
-37.6051
-29.1951
-26.1045
-32.5493
-25.0783
-36.7362
-36.9202
-36.1698
-37.882
170.589
170.51
94.9877
189.86
-37.6787
-34.5709
-38.2894
-31.5275
-36.2482
-35.6672
-40.0349
-34.3429
-41.1306
-42.1892
-41.7144
-47.9688
-67.5266
-67.9766
-93.7319
43.9421
-39.1028
-33.9968
-35.3713
-39.882
-39.8163
-40.4228
-41.6721
-34.2825
-35.6804
-36.169
-35.3181
-36.8985
-37.7497
-34.4601
-38.2325
-31.4368
-40.8844
-42.0033
-41.4389
-48.2375
-36.7434
-36.4209
-36.7745
-35.8765
-44.3363
-42.8636
-43.4602
-43.0994
-41.1756
-41.1694
-41.965
-40.5174
-38.0741
-38.108
-38.2169
-38.0179
-41.9503
-41.9094
-41.0475
-43.1421
-45.9853
-44.6972
-44.5211
-53.371
18.2653
18.2264
13.9584
27.9782
-63.0085
-63.0303
-64.6193
-60.5027
-36.6544
-36.3224
-36.6814
-35.7897
-44.262
-42.7848
-43.3939
-43.0124
-38.0188
-38.044
-38.0692
-38.0547
-45.8699
-44.5933
-44.415
-53.2491
-37.4571
-34.6056
-35.0396
-32.684
-37.3637
-34.549
-35.0084
-32.6911
-51.6281
-48.3311
-48.3205
-46.1685
-37.2298
-30.0298
-30.0293
-23.2614
64.276
51.8391
92.5068
64.471
-40.0293
-41.2225
-40.4366
-41.6744
-39.9256
-41.1188
-40.3307
-41.5697
-38.1111
-38.1675
-38.2268
-38.099
-115.975
-122.551
-101.341
-115.963
-39.4372
-38.5237
-39.6526
-38.6742
-38.723
-37.8754
-39.0749
-38.1683
-37.3835
-38.0252
-37.8465
-38.4913
-40.7551
-41.4793
-41.6075
-42.4445
-32.0634
-31.4551
-31.1691
-30.8282
-76.5695
-69.841
-96.0042
17.3384
-154.994
-153.388
-125.774
-38.9948
-58.8164
-47.6335
-49.815
-56.9203
-45.4251
-41.6653
-43.1441
-37.9208
-37.7141
-34.4559
-40.0516
-35.9628
-38.3646
-40.4582
-37.3309
-39.7634
-29.4443
-60.2504
-87.8335
131.19
141.375
165.377
114.712
178.212
-68.6446
-45.8421
-52.3592
-55.7696
-46.2838
-44.906
-43.3797
-38.0091
-37.1331
-37.6783
-37.8683
-37.0332
-39.2852
-39.3825
-38.9727
-41.3931
-154.953
-153.647
-125.709
-39.0278
-76.1378
-70.5348
-96.0975
17.7699
-58.7752
-47.5967
-49.8296
-56.8806
-33.28
-28.4815
-35.4359
-29.7431
-41.7407
-38.2279
-40.0967
-34.9168
-36.1963
-38.8067
-35.5788
-37.7681
142.033
165.988
114.968
178.066
-29.4451
-60.3072
-87.7931
131.215
-68.5864
-45.7311
-52.3057
-55.752
-35.4507
-36.9961
-37.2645
-35.6529
-42.5778
-41.261
-40.642
-34.5934
-38.3279
-38.9175
-38.1392
-41.2911
-55.8568
-29.4958
-20.1144
-32.0116
-37.5758
-37.075
-37.5033
-36.5665
-41.8733
-43.7332
-45.7599
-40.9296
-40.981
-41.0615
-42.1964
-40.0601
-39.3958
-37.5181
-37.5838
-38.1264
-36.1216
-36.266
-36.4026
-36.2228
-33.0774
-36.2658
-35.503
-38.2184
-46.5738
-42.449
-41.8528
-44.7022
-33.0268
-30.9573
-31.037
-16.88
-43.2419
-43.0083
-40.9698
-44.362
-47.8124
-46.8122
-46.7478
-59.11
-1.82164
12.7089
3.20086
11.012
-41.0391
-41.5105
-40.6473
-47.0196
-39.0389
-38.3964
-38.8738
-38.6649
-41.3361
-43.2299
-42.2502
-47.3568
-49.4139
-61.2074
-53.037
-58.0752
-55.9656
-29.5013
-20.1316
-31.9854
-40.9414
-41.0404
-42.1726
-40.0262
-37.5008
-36.9971
-37.4252
-36.5024
-41.8093
-43.6663
-45.6989
-40.8465
-39.0175
-37.0236
-37.2032
-37.7536
-46.1141
-42.3237
-41.6852
-44.5622
-35.9813
-36.1466
-36.2742
-36.0924
-33.002
-36.1882
-35.3812
-38.2383
-32.8915
-31.0713
-30.9555
-16.8643
-1.83942
12.6304
3.188
10.9493
-43.1669
-42.9318
-40.9038
-44.2735
-47.6704
-46.6757
-46.6084
-58.8243
-40.8949
-41.3546
-40.4593
-47.06
-49.7326
-61.253
-53.0409
-58.1314
-38.9424
-38.3079
-38.7529
-38.5477
-41.2416
-43.1322
-42.1513
-47.2693
-54.6197
-43.9278
-46.6595
-47.0866
91.4843
70.1358
73.6688
101.081
-81.9749
-61.7838
-69.9322
-69.915
41.4348
40.2073
71.95
71.9982
-34.0617
-34.2017
-36.6829
-32.1431
-43.9581
-46.7771
-48.2931
-42.9813
-39.0568
-37.8445
-38.2394
-38.0134
-36.3203
-33.4193
-35.5924
-35.5292
-34.4312
-36.1618
-35.2962
-35.8092
-26.0945
-32.2908
-31.4824
-29.8087
-37.2109
-37.849
-37.5979
-36.9222
-37.3486
-38.1165
-37.8188
-37.8496
-84.0529
-47.1816
-58.2927
-58.398
203.548
169.695
197.225
197.302
-37.1634
-35.5843
-33.5819
-39.3107
-30.4958
-30.2881
-36.8552
-24.0585
-39.4771
-40.103
-39.8593
-39.9554
-30.4313
-31.0067
-30.1844
-31.6245
-40.7165
-40.4212
-39.7201
-40.4668
-43.1408
-41.9595
-43.2623
-41.7235
-54.5225
-44.1735
-46.596
-46.8297
91.4854
70.2773
101.221
73.725
-34.0422
-34.171
-36.5752
-32.136
-43.9315
-46.7528
-48.2646
-42.9529
-37.2818
-36.6432
-36.6396
-36.7815
-32.3092
-29.5654
-31.0778
-31.0987
-36.4324
-37.1352
-36.9843
-36.0242
-36.7948
-37.615
-37.4324
-37.0274
-37.1123
-35.5448
-39.2935
-33.5989
-30.4833
-30.2848
-24.0533
-36.8495
-40.3227
-39.9327
-40.0969
-39.1451
-43.4389
-42.2437
-42.0459
-43.5215
-37.3762
-38.2494
-38.0915
-37.5562
-37.0717
-37.7757
-37.4767
-37.5641
-33.9123
-28.3334
-24.2087
-24.3972
-42.2525
-40.9692
-41.0448
-42.6564
-43.2121
-43.2891
-42.9056
-42.9107
-39.3334
-38.5382
-38.8506
-38.8423
-38.9968
-39.2835
-38.2078
-39.1674
-37.896
-38.8025
-38.4797
-38.686
-39.7408
-38.751
-39.1289
-39.1514
-41.7165
-39.9428
-40.7384
-40.6639
-42.8494
-41.8278
-41.5972
-42.7223
-73.2976
-106.266
-109.05
-78.7863
0.930629
-10.8157
-5.35638
-5.36193
32.3667
-21.9714
15.8679
15.817
-70.224
-80.8657
-74.0661
-74.0576
-51.0399
-44.7887
-47.1388
-47.1979
-37.282
-38.1512
-37.999
-37.4559
-37.0128
-37.739
-37.4336
-37.5096
-33.8627
-28.2952
-24.3276
-24.1924
-42.1504
-40.8651
-40.7777
-42.5467
-38.8754
-39.176
-39.0555
-38.0908
-37.3475
-38.4582
-38.2184
-38.4122
-42.7463
-41.7252
-42.6171
-41.4955
-73.1193
-106.171
-78.757
-108.556
-52.8336
-47.5327
-46.7602
-46.8361
-26.0735
-40.6279
-27.8958
-26.5406
-29.9612
-32.7208
-29.5552
-27.1245
-54.6809
-48.1596
-46.9875
-43.4774
-52.7704
-47.5501
-46.7938
-46.8931
-54.6317
-48.1133
-46.8856
-43.4447
-29.7291
-32.662
-29.6151
-26.8697
-26.1047
-40.4604
-27.8805
-26.5833
-77.0982
-63.4091
-67.9779
-58.1658
-77.0564
-63.3701
-67.9424
-58.1314
-37.7595
-42.8515
-40.6552
-42.0711
-37.7883
-42.8715
-40.6781
-42.0879
-85.7503
-62.3457
-59.2641
-50.0977
-13.0153
-6.06761
-14.19
-8.16385
-13.0173
-6.0678
-14.1885
-8.171
-85.8519
-62.3299
-59.4034
-50.1121
35.4713
25.7939
53.55
68.333
174.251
200.718
161.428
194.485
200.706
174.27
194.58
161.509
25.7532
35.4885
68.1861
53.377
-38.3856
-39.2879
-38.4376
-39.134
-36.5838
-36.7288
-36.7469
-37.2336
-39.5205
-40.5711
-39.5327
-40.3949
-44.5687
-44.7985
-43.5649
-43.5141
-38.3032
-39.2013
-38.3501
-39.0462
-44.4568
-44.6779
-43.4525
-43.4023
-39.4103
-40.4674
-39.4242
-40.2924
-36.4584
-36.5909
-36.6318
-37.1114
-37.8087
-38.7068
-37.8567
-38.5219
-38.6722
-37.7653
-38.4956
-37.8201
-39.2967
-38.1346
-38.8724
-38.0542
-38.2396
-39.4024
-38.1276
-38.939
-85.5534
1.95443
-59.2071
3.49525
-56.1076
-58.8086
-65.8028
-68.7378
-58.7524
-56.0038
-68.7019
-65.743
1.83394
-85.3934
3.32798
-60.0799
-37.7197
-39.3047
-37.828
-38.0178
-39.2674
-37.7235
-38.328
-37.7414
-38.6965
-38.1876
-38.0704
-37.9242
-39.6255
-39.0361
-39.7602
-38.8048
-37.3652
-38.9
-37.4205
-37.726
-39.3864
-38.7943
-39.4925
-38.5271
-37.1609
-37.0616
-36.8088
-36.9795
-37.3133
-36.0884
-36.7997
-36.4292
-39.5966
-39.4446
-38.8147
-40.2885
-39.2254
-39.2308
-38.3998
-40.0606
-35.5939
-36.9196
-35.6521
-36.7121
-38.0112
-38.9223
-37.1513
-38.0944
-52.6341
-56.1482
-46.3304
-48.1587
-39.3441
-40.3369
-40.0015
-40.7673
-39.3133
-40.4577
-40.1963
-41.0364
-52.9053
-56.3213
-46.5163
-48.3126
-36.7825
-35.6456
-35.9973
-34.9634
-29.5347
-33.1433
-30.5063
-32.0708
-33.364
-33.2243
-31.2821
-32.0359
-36.4453
-36.2086
-35.8178
-34.2373
-90.2306
-23.9321
-117.905
-69.2099
-70.615
-81.2218
-42.522
-38.6617
-44.6136
-37.937
-39.9982
-41.4519
-88.1618
149.996
97.233
167.403
-74.3959
-79.4842
-42.3447
-39.5384
-38.5121
-37.6886
-39.8263
-40.613
-117.873
-69.2861
-90.4003
-23.861
-70.51
-81.165
-40.3613
-34.3025
-39.5028
-35.4267
-37.4792
-38.4662
97.1368
167.374
-88.1238
150.04
-74.3101
-80.4149
-37.1158
-34.8661
-39.9598
-35.9862
-38.2293
-39.6776
-52.8698
-48.4793
-38.3361
-37.8526
-44.0936
-39.5546
-41.9289
-39.4269
-43.7113
-43.3744
-35.739
-36.743
-34.7976
-36.7371
-40.6714
-44.1172
-36.7574
-30.2617
-40.0288
-44.7604
-45.975
-57.4872
-22.0416
-26.2865
-40.0054
-43.9825
-39.531
-39.371
-39.848
-45.1022
-46.913
-46.3767
-52.7602
-48.3968
-41.902
-39.3243
-38.2479
-37.6808
-44.0282
-39.4669
-43.2342
-42.9363
-40.4555
-43.9016
-35.5964
-36.5823
-34.6725
-36.4138
-36.7161
-30.1837
-22.0042
-26.2123
-39.9707
-44.6748
-45.872
-57.472
-39.8654
-43.9583
-46.8154
-46.5087
-39.4242
-39.2589
-39.7517
-45.0247
-92.3526
35.3906
-88.8031
74.7699
-65.7813
-66.3853
73.2738
98.1007
-134.4
2.3613
-134.235
2.91354
-99.2713
-101.099
2.35204
1.923
-40.7268
-45.1893
-31.2098
-35.2697
-37.2168
-32.3479
-44.7057
-39.3304
-44.7797
-37.7532
-44.1501
-37.6466
-40.9779
-40.5224
-36.9464
-36.8538
-35.2298
-30.9132
-32.1089
-24.5815
-33.0431
-34.1302
-27.5521
-23.6041
-39.8854
-39.5715
-36.9616
-37.2243
-37.0026
-36.0899
-37.2514
-37.9342
92.5815
189.498
99.3364
189.31
-63.4498
-63.7213
209.217
210.289
-38.4945
-38.9275
-32.9415
-25.4663
-34.7532
-40.0305
-34.9721
-25.7145
-39.1735
-35.14
-39.2659
-33.5641
-39.2742
-39.2993
-29.5489
-31.0564
-39.9337
-43.5764
-41.2836
-47.0343
-39.8167
-41.1853
-47.1223
-43.2131
-92.3778
35.1393
-88.7704
75.0075
-65.732
-66.3494
98.2278
73.2253
-40.6361
-45.1614
-31.1898
-35.2272
-37.1478
-32.3549
-44.6857
-39.2915
-41.7444
-34.5002
-41.2418
-34.2715
-38.3214
-38.6665
-33.5342
-33.3714
-38.5938
-38.2092
-36.3945
-36.761
-36.3284
-35.132
-36.5848
-36.909
-38.5719
-38.9043
-33.158
-25.5256
-40.1089
-34.7687
-25.7052
-34.9515
-39.4777
-43.7844
-41.0789
-47.1372
-40.8981
-39.3574
-43.5114
-47.4316
-37.0799
-35.8711
-36.4341
-36.031
-37.3526
-36.9065
-36.2357
-36.3967
-45.3274
-42.2227
-41.6652
-43.7577
-45.5113
-42.4227
-42.2424
-43.7227
-41.9954
-40.4109
-41.9848
-40.3964
-42.8039
-42.808
-39.8442
-39.8367
-37.0045
-37.9726
-38.3262
-38.1229
-38.6653
-38.7876
-38.0216
-37.7262
-41.1744
-43.239
-41.103
-43.1461
-40.2882
-40.3195
-42.8821
-42.828
-45.5109
-55.5114
-43.0974
-50.2798
-42.8792
-44.0793
-65.1447
-59.211
11.465
23.3393
11.4289
23.2543
7.35895
7.34345
34.2388
34.1565
-63.002
-60.696
-63.0158
-60.7639
-66.1918
-66.194
-55.9658
-55.9723
-36.9956
-35.7991
-36.3266
-35.9276
-37.2612
-36.8072
-36.1732
-36.3185
-45.2463
-42.1407
-41.5997
-43.6682
-42.3484
-45.4015
-42.1515
-43.6245
-36.8749
-38.3157
-38.226
-38.033
-38.6592
-38.5226
-37.6125
-37.2736
-45.3922
-55.3647
-42.9971
-50.1755
-43.9706
-42.7779
-59.0726
-64.9931
-41.0981
-41.3639
-37.0727
-32.5973
-32.8606
-38.1765
-30.3362
-30.4957
-41.0781
-41.4862
-36.9851
-32.6135
-38.084
-32.874
-30.502
-30.3264
-55.4148
-55.4005
-50.8149
-45.4329
-50.793
-45.4159
-43.9167
-43.9249
-42.3097
-42.3336
-37.2673
-23.5391
-23.5413
-37.2652
-16.9512
-16.9556
42.3815
89.8161
58.1399
58.1679
122.586