# vtk DataFile Version 2.0
tet_velo
ASCII
DATASET UNSTRUCTURED_GRID
POINTS 29498 float
-0.735 0.225 -2.01667
-0.671123 0.325 2.115
-0.720463 0.755 -1.925
-0.625 1.06843 2.065
0.725 0.225 -2.01884
0.675 0.325 2.11008
0.713209 0.755 -1.925
0.605 1.075 2.08097
-0.771617 0.200424 -0.639447
-0.76338 0.220702 0.737777
-0.780212 0.951047 -0.595
-0.749485 1.05662 0.735
0.76624 0.200426 -0.642534
0.762671 0.220663 0.733773
0.77024 0.954767 -0.589677
0.742172 1.06944 0.745647
-1.49031 -0.205009 -3.12309
-1.49292 -0.144206 -2.03891
-1.51175 -0.156747 -0.661046
-1.48664 -0.156501 0.725409
-1.41546 -0.0859632 2.10397
-1.39979 -0.0272688 3.19162
-1.40974 0.0252327 4.27261
-1.48964 0.124637 -3.09237
-1.49297 0.209684 -2.0132
-1.52171 0.22064 -0.644305
-1.48359 0.233326 0.728187
-1.38134 0.302008 2.09799
-1.37929 0.359539 3.18562
-1.40144 0.411409 4.26842
-1.48468 0.737414 -3.01945
-1.48587 0.819127 -1.93932
-1.52506 0.961546 -0.602542
-1.47381 1.04219 0.730397
-1.35521 1.07228 2.06857
-1.37008 1.12739 3.16144
-1.4038 1.18314 4.25369
-1.48621 1.78649 -2.9433
-1.48946 1.88772 -1.86973
-1.50218 2.05419 -0.546328
-1.49567 2.18951 0.767227
-1.46799 2.26156 2.09203
-1.45472 2.30515 3.16851
-1.45598 2.35178 4.25495
-0.745532 -0.197028 -3.12563
-0.738107 -0.13226 -2.04277
-0.75834 -0.165864 -0.659924
-0.757148 -0.166443 0.731999
-0.710629 -0.076361 2.11509
-0.7004 -0.0201994 3.20008
-0.70826 0.0288382 4.27845
-0.747148 0.124881 -3.0928
-0.688441 0.367994 3.19411
-0.705152 0.415315 4.27387
-0.742214 0.711177 -3.01327
-0.683758 1.12948 3.16451
-0.711492 1.18551 4.25683
-0.739823 1.76824 -2.93662
-0.739699 1.87034 -1.86214
-0.756208 2.05115 -0.540431
-0.768079 2.19739 0.769835
-0.760968 2.26762 2.0924
-0.75272 2.30881 3.16886
-0.752539 2.35465 4.25589
0.734279 -0.196081 -3.12625
0.745876 -0.131739 -2.04435
0.764984 -0.165213 -0.66205
0.746363 -0.165704 0.729337
0.688988 -0.0755173 2.11237
0.683535 -0.018059 3.20069
0.686367 0.0318761 4.28103
0.723542 0.125614 -3.09345
0.66712 0.370446 3.19594
0.675333 0.418648 4.27737
0.721046 0.71208 -3.01296
0.636872 1.13429 3.17295
0.656764 1.18985 4.26282
0.746118 1.77076 -2.93446
0.751944 1.87339 -1.85924
0.740161 2.0559 -0.53577
0.697655 2.20402 0.776652
0.653657 2.27414 2.10045
0.645771 2.31457 3.17642
0.649958 2.3598 4.26241
1.47981 -0.202488 -3.12343
1.49288 -0.141986 -2.04015
1.51654 -0.153516 -0.66231
1.49028 -0.152432 0.72446
1.41577 -0.0820566 2.10387
1.39361 -0.0220643 3.19477
1.39411 0.0316015 4.27819
1.46952 0.126917 -3.09256
1.48076 0.211732 -2.01398
1.51816 0.224617 -0.644306
1.49212 0.239122 0.729499
1.3933 0.306583 2.10051
1.37172 0.365453 3.19119
1.37901 0.418337 4.27564
1.46595 0.740143 -3.01802
1.47454 0.822058 -1.937
1.51639 0.969287 -0.595371
1.47154 1.05708 0.743666
1.34535 1.08324 2.0862
1.33803 1.13669 3.17555
1.35724 1.1918 4.26496
1.48834 1.79178 -2.93883
1.49449 1.89405 -1.86392
1.48481 2.06345 -0.537458
1.4365 2.20182 0.779763
1.37786 2.27387 2.10668
1.35942 2.31629 3.18255
1.36041 2.36191 4.2674
-0.751122 0.49 -1.99423
-0.005 0.215507 -2.02725
-0.759498 0.206523 -1.32806
-0.679744 0.696715 2.12168
0.00193849 0.322866 2.11467
-0.713829 0.276273 1.42639
-0.003627 0.865577 -2.03558
-0.788424 0.89111 -1.26
-0.00999999 1.09911 2.10038
-0.691489 1.06677 1.4
0.742039 0.49 -1.99485
0.752547 0.205786 -1.33069
0.671462 0.7 2.12699
0.715251 0.276415 1.42193
0.779703 0.892862 -1.25734
0.681983 1.08061 1.41331
-0.769838 0.208224 0.049165
-0.8791 0.575736 -0.617223
-0.00268826 0.199541 -0.64099
-0.886781 0.63866 0.736389
-0.000354538 0.218638 0.735775
-0.752446 0.99143 0.0700001
-0.00498624 1.11235 -0.592338
-0.00365636 1.36043 0.740324
0.766769 0.208231 0.04562
0.873434 0.577597 -0.616105
0.885411 0.645049 0.73971
0.743533 0.999428 0.077985
-0.874566 0.532868 -1.29403
-0.879859 0.607198 0.0595825
-0.886229 0.667687 1.41319
-0.00384413 0.199401 -1.32937
-0.0015214 0.20806 0.0473925
0.000791977 0.26615 1.42416
-0.0043135 0.49 -2.27762
-0.00403075 0.698357 2.25849
-0.00430662 0.996175 -1.25867
-0.0043213 1.37257 0.0739926
-0.00682817 1.19042 1.40665
0.880529 0.533798 -1.29401
0.8742 0.611323 0.0618025
0.886174 0.672525 1.41762
-1.11398 0.217342 -2.01494
-0.736553 0.04637 -2.02972
-0.741074 0.17494 -2.55473
-1.02623 0.313504 2.1065
-0.690876 0.124319 2.11504
-0.679782 0.346497 2.65455
-1.10317 0.787063 -1.93216
-0.731339 0.733088 -2.46913
-0.730081 1.31267 -1.89357
-0.990104 1.07035 2.06679
-0.654379 1.09896 2.61476
-0.692984 1.66803 2.0787
0.735438 0.0466304 -2.0316
0.724271 0.175307 -2.55615
1.10288 0.218366 -2.01641
0.681994 0.124741 2.11122
0.67106 0.347723 2.65301
1.03415 0.315792 2.10529
0.717128 0.73354 -2.46898
0.732576 1.3142 -1.89212
1.09388 0.788529 -1.931
0.620936 1.10464 2.62696
0.629329 1.67457 2.09071
0.975174 1.07912 2.08359
-1.14666 0.210532 -0.641876
-0.764979 0.0172801 -0.649685
-1.12348 0.227014 0.732982
-0.760264 0.0271297 0.734888
-1.15263 0.956296 -0.598771
-0.76821 1.5011 -0.567716
-1.11165 1.0494 0.732698
-0.758782 1.62701 0.752417
0.765612 0.0176069 -0.652292
1.1422 0.212522 -0.64342
0.754517 0.0274793 0.731555
1.1274 0.229892 0.731636
0.7552 1.50533 -0.562723
1.14331 0.962027 -0.592524
0.719914 1.63673 0.76115
1.10686 1.06326 0.744656
-1.49162 -0.174607 -2.581
-1.48997 -0.040186 -3.10773
-1.11792 -0.201018 -3.12436
-1.50233 -0.150476 -1.34998
-1.49294 0.0327392 -2.02606
-1.11551 -0.138233 -2.04084
-1.49919 -0.156624 0.0321812
-1.51673 0.0319466 -0.652676
-1.13504 -0.161306 -0.660485
-1.45105 -0.121232 1.41469
-1.48511 0.0384128 0.726798
-1.1219 -0.161472 0.728704
-1.40762 -0.056616 2.6478
-1.3984 0.108022 2.10098
-1.06304 -0.0811621 2.10953
-1.40476 -0.00101806 3.73212
-1.38954 0.166135 3.18862
-1.05009 -0.0237341 3.19585
-1.40559 0.218321 4.27052
-1.059 0.0270355 4.27553
-1.4913 0.167161 -2.55279
-1.48716 0.431026 -3.05591
-1.11839 0.124759 -3.09258
-1.50734 0.215162 -1.32875
-1.48942 0.514406 -1.97626
-1.50265 0.226983 0.0419412
-1.52339 0.591093 -0.623424
-1.43246 0.267667 1.41309
-1.4787 0.637757 0.729292
-1.38031 0.330773 2.6418
-1.36827 0.687142 2.08328
-1.39037 0.385474 3.72702
-1.37469 0.743466 3.17353
-1.03387 0.363766 3.18986
-1.40262 0.797273 4.26105
-1.0533 0.413362 4.27114
-1.48528 0.778271 -2.47939
-1.48545 1.26195 -2.98137
-1.11345 0.724296 -3.01636
-1.50547 0.890336 -1.27093
-1.48767 1.35342 -1.90453
-1.49944 1.00187 0.0639271
-1.51362 1.50787 -0.574435
-1.41451 1.05723 1.39948
-1.48474 1.61585 0.748812
-1.36264 1.09983 2.61501
-1.4116 1.66692 2.0803
-1.38694 1.15526 3.70756
-1.4124 1.71627 3.16498
-1.02692 1.12844 3.16298
-1.42989 1.76746 4.25432
-1.05765 1.18432 4.25526
-1.48784 1.8371 -2.40651
-1.11302 1.77736 -2.93996
-1.49582 1.97095 -1.20803
-1.11458 1.87903 -1.86593
-1.49892 2.12185 0.11045
-1.12919 2.05267 -0.54338
-1.48183 2.22554 1.42963
-1.13187 2.19345 0.768531
-1.46135 2.28336 2.63027
-1.11448 2.26459 2.09222
-1.45535 2.32847 3.71173
-1.10372 2.30698 3.16868
-1.10426 2.35322 4.25542
-0.741819 -0.164644 -2.5842
-0.74634 -0.0360737 -3.10921
-0.00562625 -0.196554 -3.12594
-0.748224 -0.149062 -1.35135
0.00388468 -0.132 -2.04356
-0.757744 -0.166153 0.0360374
0.00332181 -0.165538 -0.660987
-0.733888 -0.121402 1.42354
-0.00539227 -0.166073 0.730668
-0.705514 -0.0482802 2.65759
-0.0108204 -0.0759392 2.11373
-0.70433 0.00431944 3.73926
-0.69442 0.173897 3.19709
-0.0084323 -0.0191292 3.20038
-0.706706 0.222076 4.27616
-0.0109464 0.0303571 4.27974
-0.744681 0.418029 -3.05303
-0.011803 0.125247 -3.09312
-0.696796 0.391654 3.73399
-0.686099 0.748739 3.17931
-0.0106602 0.36922 3.19502
-0.708322 0.800412 4.26535
-0.0149098 0.416981 4.27562
-0.741019 1.23971 -2.97494
-0.010584 0.711628 -3.01311
-0.697625 1.1575 3.71067
-0.718239 1.71915 3.16669
-0.0234431 1.13188 3.16873
-0.732016 1.77008 4.25636
-0.0273642 1.18768 4.25983
-0.739761 1.81929 -2.39938
0.00314763 1.7695 -2.93554
-0.747953 1.96075 -1.20128
0.00612253 1.87187 -1.86069
-0.762143 2.12427 0.114702
-0.00802322 2.05353 -0.538101
-0.764523 2.23251 1.43112
-0.0352121 2.20071 0.773243
-0.756844 2.28822 2.63063
-0.0536553 2.27088 2.09643
-0.75263 2.33173 3.71238
-0.0534745 2.31169 3.17264
-0.0512904 2.35723 4.25915
0.740078 -0.16391 -2.5853
0.728911 -0.0352335 -3.10985
1.10704 -0.199284 -3.12484
0.75543 -0.148476 -1.3532
1.11938 -0.136863 -2.04225
0.755674 -0.165458 0.0336432
1.14076 -0.159364 -0.66218
0.717676 -0.120611 1.42085
1.11832 -0.159068 0.726899
0.686262 -0.0467881 2.65653
1.05238 -0.078787 2.10812
0.684951 0.00690855 3.74086
0.675328 0.176193 3.19832
1.03857 -0.0200616 3.19773
0.68085 0.225262 4.2792
1.04024 0.0317388 4.27961
0.722294 0.418847 -3.05321
1.09653 0.126265 -3.09301
0.671226 0.394547 3.73666
0.651996 0.752365 3.18445
1.01942 0.367949 3.19357
0.666048 0.804251 4.2701
1.02717 0.418492 4.27651
0.733582 1.24142 -2.97371
1.0935 0.726112 -3.01549
0.646818 1.16207 3.71788
0.641322 1.72443 3.17468
0.98745 1.13549 3.17425
0.653361 1.77483 4.26262
1.007 1.19083 4.26389
0.749031 1.82208 -2.39685
1.11723 1.78127 -2.93664
0.746052 1.96465 -1.1975
1.12322 1.88372 -1.86158
0.718908 2.12996 0.120441
1.11248 2.05968 -0.536614
0.675656 2.23908 1.43855
1.06708 2.20292 0.778208
0.649714 2.29435 2.63844
1.01576 2.274 2.10357
0.647865 2.33719 3.71941
1.0026 2.31543 3.17948
1.00518 2.36086 4.2649
1.48634 -0.172237 -2.58179
1.47466 -0.0377853 -3.108
1.50471 -0.147751 -1.35123
1.48682 0.0348729 -2.02706
1.50341 -0.152974 0.0310754
1.51735 0.0355503 -0.653308
1.45303 -0.117244 1.41417
1.4912 0.0433451 0.72698
1.40469 -0.0520604 2.64932
1.40454 0.112263 2.10219
1.39386 0.00476863 3.73648
1.38266 0.171694 3.19298
1.38656 0.224969 4.27691
1.47514 0.169324 -2.55327
1.46773 0.43353 -3.05529
1.49946 0.218174 -1.32914
1.47765 0.516895 -1.97549
1.50514 0.23187 0.0425966
1.51727 0.596952 -0.619838
1.44271 0.272853 1.415
1.48183 0.648103 0.736583
1.38251 0.336018 2.64585
1.36933 0.694912 2.09335
1.37536 0.391895 3.73341
1.35487 0.751073 3.18337
1.36812 0.805069 4.2703
1.47025 0.781101 -2.47751
1.47714 1.26596 -2.97842
1.49547 0.895672 -1.26619
1.48452 1.35805 -1.90046
1.49396 1.01318 0.0741476
[...]
POINT_DATA 29498
VECTORS point_vectors float
-1.32211 -1.47864 3.11819
0.0547437 0.627542 2.0783
-3.29258 2.34283 5.04234
-0.206585 -0.403893 1.15917
6.62232 -10.7456 16.703
-0.128207 0.334614 1.33944
3.02409 2.06473 4.4635
0.230032 -0.347366 1.08888
0.0114293 0.00042963 0.454971
0.106678 0.056378 1.11447
0 0 0
-1.44455e-17 -2.18087e-17 -7.86076e-17
-0.00550172 0.00212456 0.215197
-0.107151 -0.0890199 1.35659
0 0 0
-0.00913243 0.0148449 0.0551274
-0.590054 -0.27951 19.8639
-1.19839 -0.735612 20.5127
-0.401497 -0.396262 21.3474
0.137897 -0.0926602 21.4835
0.683833 0.28718 21.3536
0.912868 0.311427 20.9445
0.771821 0.20041 20.7659
-0.72634 -0.224586 19.7462
-1.73153 -0.628823 20.4754
-0.602848 -0.497513 21.4297
0.088019 -0.256853 21.5924
0.998896 0.0927393 21.3784
1.17617 0.0973446 21.0274
0.953529 0.0252283 20.9461
-0.86767 0.0875403 19.639
-2.00781 0.242246 20.4199
-1.15761 -0.190346 21.3576
-0.280941 -0.288586 21.7003
0.687 -0.585219 21.4443
0.859118 -0.652053 21.1212
0.709301 -0.428333 20.4467
-0.525058 0.396235 19.9537
-0.815229 0.631514 20.425
-0.693965 0.436774 21.0316
-0.224006 0.0367624 21.4052
0.116048 -0.251752 21.224
0.237038 -0.359187 20.9734
0.193306 -0.335107 20.6816
-0.620782 -0.692056 19.3279
-1.62523 -3.04671 20.7476
-0.227589 -0.370545 21.7501
0.202242 0.266678 21.293
0.457125 1.18814 20.046
0.711068 1.39425 18.9945
0.689609 0.946859 18.4649
-0.796425 -0.559507 18.9551
1.15619 1.54543 10.1244
1.66285 1.0253 12.8095
-1.07294 0.225261 18.4623
0.768839 -0.866966 10.5302
1.10503 -0.899581 15.3264
-0.469102 0.781505 19.6246
-0.793229 1.4137 20.2765
-0.799446 1.22092 21.1046
-0.268401 0.181788 21.7326
0.0208716 -0.377434 21.3791
0.135998 -0.441219 20.9448
0.0661802 -0.369864 20.5703
0.606362 -0.686967 19.3094
1.61311 -3.01929 20.7146
0.207025 -0.371846 21.7639
-0.203158 0.244557 21.3122
-0.433877 1.15284 19.9752
-0.673467 1.36514 18.9035
-0.678594 0.965667 18.2792
0.783956 -0.572549 18.9291
-1.04086 1.43832 9.37305
-1.66377 1.06356 11.8458
1.06216 0.229279 18.4182
-0.649113 -0.790253 9.24494
-1.07271 -0.860196 14.0011
0.471425 0.781312 19.6311
0.795497 1.39903 20.2825
0.783499 1.23076 21.1063
0.25682 0.21492 21.7497
-0.0257841 -0.37232 21.3686
-0.122554 -0.461672 20.9101
-0.0687985 -0.359837 20.6304
0.589654 -0.282942 19.8472
1.20883 -0.7432 20.5118
0.40796 -0.391526 21.3397
-0.127514 -0.101268 21.468
-0.669927 0.279623 21.3578
-0.910856 0.303895 20.9498
-0.768987 0.19973 20.8377
0.736221 -0.230168 19.7278
1.78372 -0.659708 20.4632
0.586257 -0.494138 21.4315
-0.0767874 -0.266294 21.5801
-0.965862 0.0677411 21.3695
-1.17307 0.0762162 21.0233
-0.997868 0.0293379 20.8884
0.876486 0.0941258 19.6266
2.04913 0.267756 20.4112
1.15749 -0.196059 21.3633
0.289358 -0.275495 21.6941
-0.669463 -0.582301 21.4315
-0.862037 -0.669729 21.1287
-0.785005 -0.462451 20.2355
0.523679 0.39575 19.9587
0.805951 0.625448 20.4287
0.689619 0.444658 21.0368
0.218695 0.0396649 21.4245
-0.111212 -0.267752 21.2424
-0.222238 -0.371955 20.8852
-0.103249 -0.298745 20.7565
-0.529058 -0.0293944 0.813291
4.25069e-05 -0.0426017 0.221463
-0.0115501 -0.0110838 0.312778
-0.00811086 -0.00598605 0.00143129
-0.00180908 0.00622748 0.0164845
-0.00496683 0.0103097 0.243871
1.11035e-05 0.0594048 0.163918
-0.362018 -0.0837882 1.18089
-0.0265161 0.0863302 -0.246456
0 0 0
0.534995 -0.0669324 0.919579
0.0200618 -0.00588381 0.255834
0.00538076 -0.00389353 0.000130503
0.00363006 0.00818379 0.200277
0.299705 -0.0768323 0.968006
-0.00534375 0.00161444 0.0227832
0.0292678 0.0196254 0.989733
-3.49343e-05 -0.000470993 0.00587134
0 0 0
0 0 0
-3.40505e-05 0.000311278 0.0144974
0 0 0
-9.19678e-05 0.0282094 0.0599255
-8.36748e-05 -0.00319077 0.0447321
-0.0363223 0.00727294 1.09237
-3.19012e-05 -0.00180502 0.0240351
0 0 0
0 0 0
-0.000737316 -0.00101709 0.0398176
0 0 0
0.0023904 0.00414442 0.0565707
5.43421e-06 -1.24063e-05 0.000882403
1.32994e-05 5.72472e-05 0.0064652
0 0 0
0.00202669 -0.131031 0.22473
-0.00827931 0.00286171 -0.0151722
3.61735e-05 0.00228937 0.0219773
-9.22952e-06 0.0103499 0.0740573
-4.25016e-06 0.000763401 -0.00230012
0.00362538 -0.00390298 0.101132
7.33821e-06 0.000408 0.00350557
0 0 0
-3.25999 -1.72739 20.3672
-2.59844 -4.94032 21.0108
-2.21834 -1.82287 17.919
1.32295 0.839919 16.1637
0.313086 1.38898 13.9058
0.397953 1.2247 6.92753
-4.09738 0.985253 20.2253
-3.36554 1.27764 16.7969
-1.89942 2.60742 20.1727
1.02845 -0.534552 17.1351
0.12963 -0.53539 6.21528
0.095326 -0.755894 21.2424
2.49994 -4.84199 20.8716
2.21323 -1.86178 17.88
3.37073 -1.82107 20.2755
-0.288593 1.30501 13.6438
-0.296528 1.11703 6.44421
-1.29978 0.772858 16.3673
3.35123 1.31208 16.7284
1.89044 2.59733 20.1684
4.18224 1.07755 20.1559
0.00333916 -0.414214 5.59493
-0.0697431 -0.737877 21.2791
-1.00854 -0.48038 16.767
-0.381966 -0.845285 21.3914
-0.0113138 -0.0277972 18.2005
0.241445 -0.280902 19.5991
0.473298 0.356593 16.7578
-2.00059 -0.618766 21.2931
-2.18084 1.87975 21.0124
-0.404812 -0.429243 20.3859
-0.504727 0.110837 22.2935
0.0983586 -0.0381308 18.296
0.320768 -0.792667 21.2742
-0.457514 0.302688 16.6195
-0.232867 -0.28926 19.647
2.16922 1.91305 21.0102
2.02396 -0.645316 21.2311
0.484373 0.132021 22.3451
0.454677 -0.404351 20.5412
-0.940723 -0.532966 20.0205
-0.671912 -0.271714 19.802
-0.652058 -0.487976 19.6078
-0.843786 -0.61262 21.1628
-1.47948 -0.731316 20.4875
-1.61758 -1.55284 20.5369
-0.10553 -0.235215 21.4314
-0.520108 -0.471926 21.377
-0.272816 -0.505618 21.5645
0.405108 0.0948443 21.508
0.112589 -0.187879 21.5199
0.249348 -0.0174357 21.6318
0.809882 0.351274 21.2032
0.836446 0.222299 21.4232
0.814171 0.746573 21.1029
0.942387 0.256057 20.7302
1.06138 0.201876 21.1033
1.15265 0.83897 20.9338
0.871714 0.12145 20.9302
0.734019 0.544 21.7257
-1.27103 -0.414879 19.8493
-0.8249 -0.114419 19.6487
-0.826169 -0.405089 19.4257
-1.19214 -0.616269 21.2852
-2.00546 -0.241993 20.452
-0.220511 -0.38805 21.5032
-0.905636 -0.430931 21.4171
0.504193 -0.0874228 21.6635
-0.0863157 -0.334276 21.7105
1.13154 0.129701 21.1992
1.00198 -0.330183 21.2911
1.32969 -0.0214296 20.5761
1.2143 -0.344542 21.077
1.63147 0.696728 17.8303
0.979034 -0.428531 20.4625
1.35634 0.370514 18.6939
-1.55396 0.194791 19.7637
-0.732194 0.335294 19.7668
-1.02986 0.137443 19.2014
-1.57479 0.00687702 21.1358
-1.34718 0.65973 20.4036
-0.750876 -0.288732 21.6136
-1.07961 0.298964 21.1852
0.277922 -0.377643 21.7143
-0.323353 -0.068144 21.5802
0.825164 -0.638471 21.2329
0.268536 -0.445368 21.3368
0.84192 -0.544672 20.991
0.404756 -0.514902 20.9111
1.13928 -0.887922 19.0378
0.339619 -0.425241 20.8209
1.13182 -0.785424 19.2554
-0.700516 0.561467 20.1423
-0.548173 0.570553 19.7987
-0.794411 0.555663 20.7688
-0.887409 0.984091 20.3542
-0.496573 0.24628 21.3114
-0.816742 0.766258 21.0912
-0.0128304 -0.142167 21.3078
-0.265468 0.102227 21.5486
0.183101 -0.329591 21.1013
0.101165 -0.330877 21.2568
0.195041 -0.29779 20.8608
0.184453 -0.449392 20.8919
0.114724 -0.388902 20.7865
-1.24576 -1.65196 19.1852
-0.70017 -0.642321 19.142
-0.00674924 -0.943312 18.9712
-0.660894 -1.21648 21.9877
0.0143059 -4.27264 21.4232
0.00393164 -0.024664 21.4674
0.00850394 -0.554887 21.3293
0.362814 0.698692 20.8196
-0.00492815 0.160986 20.0097
0.567848 1.33301 19.7282
-0.0233077 0.80594 17.5869
0.736286 1.32048 19.5906
0.973176 1.76078 16.1888
-0.0432269 1.13494 17.153
1.10927 1.0504 15.5356
-0.000605754 1.56061 17.1406
-1.02896 -0.251873 18.6068
-0.00922297 -0.836176 18.3499
1.60591 1.18725 11.4726
1.64652 0.0809724 6.26632
0.0365789 0.220075 1.37651
1.67586 0.0707232 11.8974
0.106935 0.827343 5.95943
-0.811292 0.837393 19.0458
-0.0202875 0.368832 17.4928
1.0101 -1.03986 12.8857
0.230708 -0.903618 20.8902
0.0963507 -0.121357 0.0637631
0.197274 -0.76919 20.0554
0.0722166 -1.16705 4.3192
-0.689106 1.20027 19.8359
0.00378416 0.990634 19.4328
-0.809503 1.30849 20.6917
0.00988985 1.88903 20.2326
-0.609573 0.800337 21.5982
-0.00484135 1.78913 21.0698
-0.0632725 -0.193941 21.5281
-0.0134151 0.341633 21.8646
0.0803037 -0.476872 21.3053
0.00324999 -0.376878 21.3233
0.119402 -0.572001 20.4177
0.0158284 -0.562884 20.919
-0.00707147 -0.529155 20.7286
1.23637 -1.6364 19.1834
0.686368 -0.648597 19.1173
0.642496 -0.489552 19.6073
0.622872 -1.22722 21.9853
1.62094 -1.55761 20.5107
-0.0139069 -0.0383886 21.4802
0.277949 -0.490852 21.5709
-0.356787 0.683944 20.7924
-0.241501 -0.025557 21.6224
-0.512289 1.29112 19.3972
-0.80222 0.737138 21.0679
-0.732707 1.31753 19.4213
-0.912937 1.70337 15.8339
-1.14883 0.835182 20.9219
-1.07437 1.0672 15.2383
-0.768982 0.557909 21.5795
1.0047 -0.249955 18.5731
0.82872 -0.406017 19.3929
-1.57614 1.2086 10.7051
-1.48767 0.0493408 5.3093
-1.61063 0.728517 17.569
-1.61068 0.0545246 10.6196
-1.37049 0.402131 18.205
0.806692 0.843069 19.0391
1.02602 0.138825 19.1774
-0.948203 -1.01134 11.4791
-0.217569 -0.898594 20.7553
-1.12904 -0.906042 18.7015
-0.221755 -0.763548 20.2212
-1.10162 -0.798802 19.1709
0.691222 1.19363 19.8433
0.54693 0.56778 19.8041
0.803187 1.30539 20.6948
0.881786 0.96879 20.3599
0.580473 0.845371 21.6072
0.811406 0.77787 21.0866
0.0663534 -0.182131 21.5307
0.259089 0.114026 21.5742
-0.0875696 -0.463457 21.2231
-0.0887943 -0.337237 21.2599
-0.10372 -0.559349 20.5969
-0.175546 -0.457616 20.885
-0.100193 -0.376991 20.7373
0.941 -0.535047 20.0255
0.674214 -0.274719 19.7932
0.858589 -0.616169 21.1659
1.50142 -0.752211 20.4862
0.106112 -0.243085 21.4278
0.514612 -0.469073 21.3723
-0.400171 0.0805904 21.4867
-0.0988956 -0.19932 21.4961
-0.800189 0.340403 21.2054
-0.821272 0.192615 21.4128
-0.958696 0.24272 20.6911
-1.05515 0.193677 21.1093
-0.870471 0.122707 21.0228
1.28996 -0.427462 19.8271
0.834342 -0.123048 19.6356
1.20724 -0.628922 21.315
2.07646 -0.242241 20.4429
0.220414 -0.394917 21.4907
0.890971 -0.440497 21.4232
-0.489328 -0.103876 21.6507
0.100634 -0.336887 21.7003
-1.1104 0.111294 21.1987
-0.968459 -0.338057 21.2695
-1.33067 -0.0118333 20.5313
-1.20968 -0.367109 21.0864
-1.0286 -0.459164 20.3371
1.58142 0.210241 19.744
0.732943 0.341801 19.7636
1.58913 0.0148549 21.1606
1.34866 0.669367 20.4064
0.755661 -0.281161 21.6046
1.07723 0.306184 21.1897
-0.269149 -0.372377 21.7067
0.321258 -0.0604831 21.5955
-0.802268 -0.639705 21.2291
-0.264117 -0.450494 21.3293
-0.833993 -0.562624 20.9052
-0.372216 -0.545419 20.8733
-0.286277 -0.393176 20.8775
0.697233 0.559502 20.1472
0.788547 0.558365 20.7722
0.498853 0.25613 21.3111
0.00835987 -0.142061 21.333
-0.16533 -0.324984 21.0944
-0.13947 -0.300799 20.8994
-1.11069 -0.510724 19.9327
-1.6721 -1.8754 18.651
-1.19849 -1.00294 19.6691
-1.84385 -0.907837 19.2295
-0.761086 -0.461599 19.4971
-2.32524 -1.79745 20.4864
-1.03334 -0.646217 21.2163
-0.466914 -0.819625 19.7676
-0.863419 -1.01761 21.5179
-1.42922 -1.28924 21.9824
-0.260245 -0.654638 21.6413
-0.165007 -0.33387 21.4731
0.236187 0.17261 17.049
0.0190064 -0.255578 21.5963
0.0559525 -0.508662 20.2463
0.346903 -0.140688 21.1498
0.46162 0.0143694 21.591
0.48796 0.735154 14.9965
0.536676 0.338829 21.5404
0.639482 0.270295 17.6151
1.13591 0.849918 19.7542
1.02411 0.290598 21.1676
0.49668 1.53091 14.8277
0.977922 0.823657 20.9401
1.49029 0.737074 17.0549
1.30111 0.868594 19.3746
1.2173 0.137474 20.4611
1.19064 1.26541 14.937
1.04963 0.869452 21.204
1.66515 0.557991 18.4084
0.984067 0.455064 19.5534
-1.49135 -0.192278 19.7725
-3.25375 -0.723674 16.6933
-2.3317 0.464811 18.9503
-0.998681 -0.155963 19.2265
-4.41329 -0.566418 20.2185
-1.49855 -0.348283 21.2653
-2.42319 0.0196905 21.594
-0.958669 -0.957539 20.8234
-0.477149 -0.428212 21.6042
-1.20711 -0.746297 20.7182
0.0237269 -0.241383 18.1367
0.452116 -0.275273 21.7021
0.587703 -0.193425 18.5503
1.3115 0.0413115 13.1114
1.17133 -0.345218 21.0922
0.268761 0.191935 2.65889
1.0327 -0.732934 18.4875
1.73517 -0.199107 16.441
1.09911 -0.374629 20.9129
1.77159 0.0997615 8.73691
1.08867 -0.867317 19.4795
1.47252 -0.374813 17.912
-1.11542 0.563423 19.956
-1.51329 1.87977 19.048
-0.754789 0.850821 19.9945
-0.80819 0.515274 19.4758
-1.81918 1.39738 20.2922
-1.2431 0.479588 20.8802
-1.72788 1.81599 20.8038
-0.879852 0.893833 20.7385
-1.62843 0.730294 21.2512
-0.756026 0.125849 21.4935
-1.80165 1.23115 22.3686
-0.605888 0.494645 21.4616
-0.443443 -0.00645458 21.8887
0.0526943 -0.279868 21.5261
-0.0390709 -0.535053 21.8625
-0.0349219 -0.174936 21.419
0.23816 -0.607968 21.4535
0.365068 -0.491 21.2
0.144524 -0.842685 21.1349
0.148363 -0.398755 21.0878
0.382299 -0.748257 21.1066
0.53517 -0.439298 20.6561
0.269655 -0.901929 19.9163
0.138195 -0.409892 20.9078
0.202827 -0.517703 20.7135
1.65934 -1.87614 18.6396
-0.00041773 -2.71133 18.5162
-0.0244929 -3.57359 15.7109
-0.00364872 -0.942597 18.6536
0.00642451 -6.25494 23.2735
0.485228 -0.89891 20.0574
0.0115868 -1.55132 22.4071
0.00785766 -0.133555 13.5378
-0.193202 0.147132 16.9873
0.0010776 -0.159055 20.4594
-0.00981398 0.210129 12.3049
-0.482083 0.719908 14.8029
-0.00410056 0.551203 18.84
-0.0525505 0.552665 9.01004
-0.437527 1.47526 14.4622
-0.0365173 0.82895 17.2494
-0.100613 -0.875283 -0.325534
-0.0489008 1.04046 9.48271
-1.16318 1.26545 14.6303
-0.0312819 1.63448 17.1377
0.0190323 0.303223 2.1032
0.0404997 1.4126 12.981
3.26128 -0.746142 16.6047
-0.0388727 3.3545 12.7411
-0.0214189 -0.380304 17.7421
-0.0578587 0.23243 2.21624
-0.0537317 0.652521 -1.88971
0.252083 -0.26885 -4.24584
-1.58994 0.144038 7.86925
0.0438152 -0.432152 2.9732
0.15009 -0.284518 1.19024
1.50471 1.87722 19.0461
0.00694022 1.62633 19.6533
-0.00531438 1.21835 18.5245
0.00533248 3.84811 20.1031
1.71654 1.82113 20.8095
-0.000384288 1.77887 20.609
-0.0157302 3.77034 20.4444
1.76728 1.30562 22.4036
-0.0195244 1.26704 21.7828
-0.0276303 0.462462 22.3227
0.0377234 -0.538181 21.8939
-0.00828076 -0.166636 21.5699
-0.0203678 -0.533105 19.3874
-0.109805 -0.819959 21.1487
0.000269865 -0.490054 21.2754
-0.0141545 -0.855862 20.0775
-0.258477 -0.903946 19.9372
-0.0114064 -0.500694 20.6151
0.00493731 -0.809476 19.3687
1.11333 -0.520192 19.9324
1.20024 -1.00102 19.6554
1.8616 -0.922977 19.1801
0.757689 -0.47284 19.4814
2.34842 -1.83663 20.4382
1.05138 -0.657289 21.2254
0.87796 -1.02555 21.5251
1.42656 -1.30557 22.0715
0.256497 -0.613298 21.6258
0.161504 -0.334561 21.4657
-0.0124886 -0.252451 21.5778
-0.0684046 -0.487891 20.202
-0.333394 -0.144619 21.1299
-0.451031 -0.0032557 21.5787
-0.524101 0.33356 21.5277
-0.65774 0.233805 17.7714
-1.1207 0.819341 19.6854
-1.0079 0.265795 21.1638
-0.96434 0.809539 20.9104
-1.45299 0.709956 16.8705
-1.29163 0.892307 19.1412
-1.24345 0.140789 20.4067
-1.04646 0.878179 21.2592
-1.62967 0.572229 18.3316
-1.00735 0.473923 19.1527
1.52693 -0.190766 19.7483
2.3594 0.492276 18.8974
1.0013 -0.15502 19.2044
4.57811 -0.54945 20.0976
1.51971 -0.349679 21.3003
2.45312 0.0203873 21.6404
0.885082 -0.984842 20.6197
0.478826 -0.43364 21.5971
1.24791 -0.71947 20.7719
0.00715382 -0.256042 18.1258
-0.433942 -0.285296 21.6947
-0.571064 -0.188407 18.6061
-1.26949 0.0763634 13.0589
-1.13936 -0.362366 21.0859
-1.00446 -0.680464 18.0299
-1.74464 -0.183942 15.5574
-1.10194 -0.382989 20.8472
-1.0841 -0.896815 19.1074
-1.46918 -0.319523 17.2797
1.1182 0.57182 19.9564
0.752608 0.842117 20.0007
0.807201 0.523339 19.4661
1.80879 1.40433 20.2893
1.24264 0.489802 20.8872
0.87189 0.891899 20.742
1.62556 0.748329 21.2513
0.75854 0.137095 21.4971
0.601518 0.515056 21.4714
0.436398 0.0155754 21.9013
-0.0537178 -0.281523 21.5443
0.0338384 -0.175066 21.4325
-0.223556 -0.614121 21.4532
-0.349122 -0.510028 21.1924
-0.143329 -0.415466 21.1282
-0.35025 -0.747155 21.1788
-0.58113 -0.442128 20.534
-0.127279 -0.436195 20.8478
-0.188627 -0.556348 20.5532
-1.47128 -1.01035 19.4776
-1.05769 -1.18345 21.7221
0.104051 -0.362725 21.3652
0.718874 0.300173 20.6233
1.24966 0.920454 19.584
1.35382 0.712661 19.8409
-2.32408 -0.322859 18.8931
-2.0955 -0.815593 22.0427
-0.294362 -0.73618 19.0281
0.623301 0.224672 16.0481
1.51093 -0.105383 15.372
1.55335 -0.182949 17.1031
-1.41505 1.02512 19.5853
-1.63405 0.972573 20.9055
-1.20114 0.383656 21.8109
0.0422905 -0.381478 21.7011
0.330001 -0.693663 21.2457
0.507113 -0.726533 20.996
-0.00963011 -3.34255 17.542
0.00635463 -0.79509 15.6162
-0.00245905 0.0498669 12.3496
-0.0142382 0.474222 10.4586
-0.105132 0.274821 8.99856
-0.01488 0.984386 9.59941
-0.03249 -1.24023 13.0022
0.0778652 -0.325301 -4.22806
0.186271 0.156086 -0.65221
0.00110414 3.07459 18.4255
-0.00535481 2.80624 20.5297
-0.0380796 2.8933 22.7618
-0.0223469 -0.373496 21.2695
-0.028398 -0.629909 20.1124
-0.000319546 -1.04219 19.6135
1.47379 -1.02855 19.4561
1.07407 -1.18091 21.7559
-0.094808 -0.341037 21.3337
-0.713195 0.289211 20.5655
-1.22251 0.897324 19.4441
-1.33212 0.717732 19.7602
2.34128 -0.321985 18.8448
2.09752 -0.824623 22.1222
0.287117 -0.768044 18.9378
-0.612245 0.220273 16.0673
-1.4359 -0.0776268 14.757
-1.54334 -0.16465 16.2516
1.40824 1.03411 19.5808
1.62385 0.981135 20.911
1.21237 0.417771 21.8183
-0.0449024 -0.381131 21.7116
-0.310689 -0.700393 21.2629
-0.428433 -0.74565 21.0562
-1.76594 -0.670019 2.38816
0.00757852 -0.125855 0.515452
-0.0343339 0.0014689 0.361884
0.0174337 -0.0101439 0.0513312
-0.0127449 0.011805 0.0417744
-0.0764148 0.0906195 0.705693
0 0 0
-0.0223221 0.202673 0.493839
-0.118054 0.0625163 0.505026
-0.00304656 -0.000311807 -0.00156405
-0.0868577 -0.0145864 0.0389731
-0.00450941 -0.00431395 0.0476622
-0.0121304 -0.139193 0.543722
1.49902 -0.527279 1.25903
0.0254192 0.000630894 0.180399
0.0111639 0.0122722 0.0417475
-0.0123606 -0.0166348 0.0436581
0.0883081 0.119334 0.758669
0.0218487 0.139737 0.362097
0 0 0
0.303764 0.11289 1.21959
0.0900523 0.0430995 -0.0633304
4.06099e-18 -4.24766e-19 -2.02699e-18
0.00249135 -0.00281318 0.0228739
-0.0188612 0.00378802 0.519488
0.0158517 0.00193689 0.607638
0.0009651 -0.00731772 0.182193
0 0 0
-0.00165651 0.00748879 0.107581
0.06571 0.00906609 1.28535
-0.137742 0.0848249 0.503913
7.65119e-06 6.90068e-06 0.00034276
-0.211992 -0.0458789 0.41041
-0.00128648 -0.00450735 0.0549962
0 0 0
-0.0164685 0.00917655 0.028093
0 0 0
0.0329248 0.0787474 0.31794
0 0 0
0.0071432 -0.00426445 0.049054
0.0164805 0.00382124 0.287485
0 0 0
-0.0104422 -8.7484e-05 0.390997
-0.00141458 -0.00660452 0.164777
-8.50052e-05 0.00692883 0.11166
0 0 0
-0.0622237 0.0135045 1.1242
0.125367 0.0656835 0.463741
0.620163 -0.367713 1.10798
0.0247843 0.0133536 0.0413102
0.00179053 -0.00580645 0.0649412
0 0 0
0 0 0
-0.00545252 -0.00319273 0.0371669
-0.0263505 0.0851267 0.383721
0 0 0
-0.033025 -0.0207109 0.349291
-0.656423 -0.419786 0.401814
0 0 0
0.000160129 -0.268051 0.107628
0 0 0
4.44012e-05 -1.28886e-05 0.000963647
0 0 0
-0.0125253 0.0016487 -0.00159601
0 0 0
-0.00681057 -0.0277959 -0.00128973
0 0 0
0 0 0
6.1429e-05 0.00291922 0.000717692
-0.00011012 0.00309405 0.0206918
-0.00318232 -0.0521612 0.312042
-0.00581088 0.00306792 0.0358146
-0.00981459 0.0520908 -0.0323731
0 0 0
0.00450589 0.00103713 0.0457271
-0.00125919 0.000217751 -0.000764425
0.5134 -0.343256 0.308667
0.0406622 -0.0295911 0.437625
-4.37694e-05 -1.30911e-05 0.00101154
0.00136289 0.00100325 0.051397
0.0100054 7.76664e-06 -0.000890855
0 0 0
0 0 0
0 0 0
0.00713997 0.00368191 0.043274
0.00388535 -0.0177094 0.173505
0.000795278 -0.00010549 0.000955876
-0.00669551 0.00159895 0.0693826
-0.000122952 0.00756565 0.203069
5.16688e-06 1.30065e-06 0.000115361
-0.00145491 -0.0156724 0.145188
0 0 0
0.000112464 -0.000120843 0.0164937
2.68739e-08 3.6915e-08 7.47546e-06
0 0 0
0.000644216 0.00758675 0.0758531
-4.194e-05 0.000384244 0.0125139
-9.16023e-06 0.00027208 0.00464813
0.00225247 0.0153512 0.0874064
-0.00903866 0.0152566 0.16101
0 0 0
-0.000456183 0.0218374 0.0505762
-0.000156319 0.000117883 0.0827898
-9.82184e-06 -0.000674954 0.00610604
-6.63449e-06 1.57041e-06 0.00014765
9.88253e-05 0.00717356 0.186407
-2.65716e-18 -6.13834e-18 3.38238e-17
0 0 0
0 0 0
-0.000748015 0.0098466 0.0989906
0.00728086 0.0126127 0.132651
-0.00564814 0.0401762 0.236964
-0.0442555 -0.0330997 0.421
-0.00177455 -0.00148655 0.0214967
0.00440555 -0.0200776 0.127384
0 0 0
0.000232166 0.00162867 0.362011
-0.000599108 0.00861188 0.136172
0.000485921 0.00943768 0.185022
0 0 0
-4.13789e-05 0.000609379 0.00953449
0.00711914 0.0184205 0.0971146