# vtk DataFile Version 2.0
tri_press
ASCII
DATASET UNSTRUCTURED_GRID
POINTS 3682 float
-0.735 0.225 -2.01667
-0.671123 0.325 2.115
-0.720463 0.755 -1.925
-0.625 1.06843 2.065
0.725 0.225 -2.01884
0.675 0.325 2.11008
0.713209 0.755 -1.925
0.605 1.075 2.08097
-0.771617 0.200424 -0.639447
-0.76338 0.220702 0.737777
-0.780212 0.951047 -0.595
-0.749485 1.05662 0.735
0.76624 0.200426 -0.642534
0.762671 0.220663 0.733773
0.77024 0.954767 -0.589677
0.742172 1.06944 0.745647
-1.49031 -0.205009 -3.12309
-1.49292 -0.144206 -2.03891
-1.51175 -0.156747 -0.661046
-1.48664 -0.156501 0.725409
-1.41546 -0.0859632 2.10397
-1.39979 -0.0272688 3.19162
-1.40974 0.0252327 4.27261
-1.48964 0.124637 -3.09237
-1.49297 0.209684 -2.0132
-1.52171 0.22064 -0.644305
-1.48359 0.233326 0.728187
-1.38134 0.302008 2.09799
-1.37929 0.359539 3.18562
-1.40144 0.411409 4.26842
-1.48468 0.737414 -3.01945
-1.48587 0.819127 -1.93932
-1.52506 0.961546 -0.602542
-1.47381 1.04219 0.730397
-1.35521 1.07228 2.06857
-1.37008 1.12739 3.16144
-1.4038 1.18314 4.25369
-1.48621 1.78649 -2.9433
-1.48946 1.88772 -1.86973
-1.50218 2.05419 -0.546328
-1.49567 2.18951 0.767227
-1.46799 2.26156 2.09203
-1.45472 2.30515 3.16851
-1.45598 2.35178 4.25495
-0.745532 -0.197028 -3.12563
-0.738107 -0.13226 -2.04277
-0.75834 -0.165864 -0.659924
-0.757148 -0.166443 0.731999
-0.710629 -0.076361 2.11509
-0.7004 -0.0201994 3.20008
-0.70826 0.0288382 4.27845
-0.747148 0.124881 -3.0928
-0.688441 0.367994 3.19411
-0.705152 0.415315 4.27387
-0.742214 0.711177 -3.01327
-0.683758 1.12948 3.16451
-0.711492 1.18551 4.25683
-0.739823 1.76824 -2.93662
-0.739699 1.87034 -1.86214
-0.756208 2.05115 -0.540431
-0.768079 2.19739 0.769835
-0.760968 2.26762 2.0924
-0.75272 2.30881 3.16886
-0.752539 2.35465 4.25589
0.734279 -0.196081 -3.12625
0.745876 -0.131739 -2.04435
0.764984 -0.165213 -0.66205
0.746363 -0.165704 0.729337
0.688988 -0.0755173 2.11237
0.683535 -0.018059 3.20069
0.686367 0.0318761 4.28103
0.723542 0.125614 -3.09345
0.66712 0.370446 3.19594
0.675333 0.418648 4.27737
0.721046 0.71208 -3.01296
0.636872 1.13429 3.17295
0.656764 1.18985 4.26282
0.746118 1.77076 -2.93446
0.751944 1.87339 -1.85924
0.740161 2.0559 -0.53577
0.697655 2.20402 0.776652
0.653657 2.27414 2.10045
0.645771 2.31457 3.17642
0.649958 2.3598 4.26241
1.47981 -0.202488 -3.12343
1.49288 -0.141986 -2.04015
1.51654 -0.153516 -0.66231
1.49028 -0.152432 0.72446
1.41577 -0.0820566 2.10387
1.39361 -0.0220643 3.19477
1.39411 0.0316015 4.27819
1.46952 0.126917 -3.09256
1.48076 0.211732 -2.01398
1.51816 0.224617 -0.644306
1.49212 0.239122 0.729499
1.3933 0.306583 2.10051
1.37172 0.365453 3.19119
1.37901 0.418337 4.27564
1.46595 0.740143 -3.01802
1.47454 0.822058 -1.937
1.51639 0.969287 -0.595371
1.47154 1.05708 0.743666
1.34535 1.08324 2.0862
1.33803 1.13669 3.17555
1.35724 1.1918 4.26496
1.48834 1.79178 -2.93883
1.49449 1.89405 -1.86392
1.48481 2.06345 -0.537458
1.4365 2.20182 0.779763
1.37786 2.27387 2.10668
1.35942 2.31629 3.18255
1.36041 2.36191 4.2674
-0.751122 0.49 -1.99423
-0.005 0.215507 -2.02725
-0.759498 0.206523 -1.32806
-0.679744 0.696715 2.12168
0.00193849 0.322866 2.11467
-0.713829 0.276273 1.42639
-0.003627 0.865577 -2.03558
-0.788424 0.89111 -1.26
-0.00999999 1.09911 2.10038
-0.691489 1.06677 1.4
0.742039 0.49 -1.99485
0.752547 0.205786 -1.33069
0.671462 0.7 2.12699
0.715251 0.276415 1.42193
0.779703 0.892862 -1.25734
0.681983 1.08061 1.41331
-0.769838 0.208224 0.049165
-0.8791 0.575736 -0.617223
-0.00268826 0.199541 -0.64099
-0.886781 0.63866 0.736389
-0.000354538 0.218638 0.735775
-0.752446 0.99143 0.0700001
-0.00498624 1.11235 -0.592338
-0.00365636 1.36043 0.740324
0.766769 0.208231 0.04562
0.873434 0.577597 -0.616105
0.885411 0.645049 0.73971
0.743533 0.999428 0.077985
-0.874566 0.532868 -1.29403
0.880529 0.533798 -1.29401
-0.00384413 0.199401 -1.32937
-0.00430662 0.996175 -1.25867
-0.0043135 0.49 -2.27762
-0.879859 0.607198 0.0595825
0.8742 0.611323 0.0618025
-0.0015214 0.20806 0.0473925
-0.0043213 1.37257 0.0739926
-0.886229 0.667687 1.41319
0.886174 0.672525 1.41762
0.000791977 0.26615 1.42416
-0.00682817 1.19042 1.40665
-0.00403075 0.698357 2.25849
-0.738216 0.3575 -2.0006
-0.37 0.215627 -2.02659
-0.748216 0.214795 -1.67236
-0.68976 0.510857 2.13267
-0.334592 0.334637 2.10413
-0.701832 0.291281 1.77069
-0.702379 0.6225 -1.9262
-0.362045 0.847304 -2.0173
-0.778246 0.846857 -1.5925
-0.635733 0.882572 2.0767
-0.3175 1.09798 2.0969
-0.6416 1.05096 1.7325
0.36 0.215638 -2.02766
0.728745 0.3575 -2.00207
0.74002 0.214146 -1.67476
0.338469 0.334316 2.10199
0.688471 0.5125 2.13377
0.705689 0.290144 1.766
0.354791 0.847208 -2.01721
0.694556 0.6225 -1.92686
0.770026 0.847501 -1.59117
0.2975 1.09909 2.10271
0.616131 0.8875 2.08188
0.617232 1.05155 1.74714
-0.774135 0.194896 -0.983753
-0.772993 0.202058 -0.295141
-0.864584 0.368467 -0.628335
-0.387238 0.199812 -0.640218
-0.719584 0.267508 1.08208
-0.770178 0.210893 0.393471
-0.885996 0.399223 0.737083
-0.382014 0.219376 0.736776
-0.786643 0.923404 -0.9275
-0.872904 0.785015 -0.606112
-0.765826 0.970735 -0.2625
-0.418688 1.08387 -0.593669
-0.72331 1.06452 1.0675
-0.869189 0.873167 0.735694
-0.745037 1.01809 0.4025
-0.43988 1.33514 0.737662
0.767568 0.194932 -0.98661
0.381862 0.199812 -0.641762
0.768768 0.202065 -0.298457
0.859051 0.369404 -0.629319
0.720085 0.267415 1.07785
0.381297 0.219372 0.734774
0.768239 0.210928 0.389697
0.886189 0.401782 0.736742
0.777505 0.926348 -0.923508
0.409228 1.08676 -0.591008
0.867087 0.788807 -0.602891
0.7503 0.970511 -0.255846
0.715366 1.07831 1.07948
0.429413 1.33524 0.742985
0.863943 0.882319 0.742678
0.736107 1.02769 0.411816
-0.861719 0.511434 -1.64413
-0.377718 0.49 -2.24624
-0.00442206 0.205474 -1.67831
-0.00465675 0.352754 -2.21258
-0.862363 0.369695 -1.31104
-0.381671 0.199457 -1.32872
-0.831094 0.682201 1.76744
-0.341887 0.697536 2.2507
0.00136523 0.292601 1.76942
-0.00104613 0.510612 2.27012
-0.886987 0.47198 1.41979
-0.356519 0.266184 1.42527
-0.00396681 0.954011 -1.64712
-0.00397025 0.677789 -2.16143
-0.884407 0.711989 -1.27701
-0.396365 0.98049 -1.25933
-0.00841408 1.08089 1.75352
-0.00701537 0.898735 2.19009
-0.856054 0.867229 1.4066
-0.349159 1.1768 1.40333
0.871266 0.511899 -1.64443
0.368863 0.49 -2.24698
0.869664 0.369792 -1.31235
0.374351 0.199459 -1.33003
0.831533 0.686262 1.7723
0.333715 0.699179 2.25075
0.885292 0.47447 1.41977
0.358022 0.266116 1.42304
0.885901 0.71333 -1.27568
0.387698 0.980759 -1.258
0.851251 0.87657 1.41546
0.337577 1.17555 1.40998
-0.8675 0.386385 0.0543738
-0.385555 0.208392 0.0482787
-0.882483 0.554302 -0.955626
-0.87963 0.591467 -0.27882
-0.0032662 0.193176 -0.985181
-0.00210483 0.200362 -0.296799
-0.877694 0.622929 0.397986
-0.894112 0.653174 1.07479
-0.000937969 0.211729 0.391584
0.000218719 0.240552 1.07997
-0.876674 0.829575 0.0647913
-0.463297 1.35183 0.0719963
-0.00464643 0.943266 -0.925504
-0.00465377 1.28312 -0.259173
-0.00398883 1.38586 0.407158
-0.00524226 1.29291 1.07349
0.862258 0.388891 0.0537112
0.382502 0.208389 0.0465062
0.876179 0.555698 -0.955059
0.873794 0.59446 -0.277151
0.872069 0.628186 0.400756
0.893952 0.658787 1.07866
0.870689 0.836287 0.0698938
0.45316 1.35311 0.0759888
-0.852043 0.363598 -1.65825
-0.874207 0.378888 -0.969689
-0.872485 0.73769 -0.941563
-0.86583 0.667244 -1.61831
0.863753 0.363646 -1.6596
0.874795 0.667915 -1.6178
0.865638 0.739756 -0.939283
0.872237 0.379402 -0.970835
-0.375836 0.205547 -1.67534
0.367176 0.205543 -1.67654
0.378064 0.193192 -0.985896
-0.384412 0.193176 -0.984467
-0.379205 0.94075 -1.61981
-0.394482 1.00515 -0.926502
0.385162 1.00551 -0.924506
0.371245 0.940944 -1.61915
-0.373859 0.355127 -2.18336
-0.369881 0.650144 -2.13508
0.361827 0.650144 -2.13642
0.364431 0.355127 -2.18426
-0.86753 0.376682 -0.286981
-0.865435 0.39846 0.395728
-0.855776 0.842793 0.400243
-0.87595 0.807876 -0.27066
0.862131 0.378409 -0.287804
0.869905 0.813055 -0.266499
0.869023 0.860156 0.406286
0.860442 0.402227 0.395227
-0.387798 0.201299 -0.29597
0.383583 0.201299 -0.297628
0.382598 0.212484 0.39064
-0.38448 0.212492 0.392527
-0.460216 1.2563 -0.260836
-0.460174 1.36066 0.404829
0.449724 1.36105 0.409487
0.450761 1.25907 -0.257509
-0.895915 0.450831 1.07844
-0.822607 0.491419 1.76907
-0.81575 0.874901 1.74997
-0.876821 0.857434 1.07115
0.895882 0.453663 1.07826
0.872498 0.866906 1.07907
0.81496 0.882035 1.75972
0.824096 0.493485 1.76915
-0.369193 0.240581 1.08102
0.36959 0.240523 1.07891
0.348245 0.293507 1.76771
-0.345556 0.293621 1.77005
-0.362865 1.27606 1.07049
-0.333329 1.07563 1.74301
0.317539 1.0761 1.75033
0.353418 1.27535 1.07648
-0.33824 0.510735 2.26788
0.336092 0.511556 2.26739
0.315608 0.893118 2.15112
-0.329694 0.890654 2.15309
-0.722368 0.29125 -1.9944
-0.5525 0.218127 -2.02381
-0.742536 0.218969 -1.84452
-0.675773 0.417929 2.11917
-0.502858 0.367717 2.07167
-0.692857 0.301761 1.94285
-0.714643 0.68875 -1.92882
-0.541254 0.80173 -1.97173
-0.757713 0.809287 -1.75875
-0.606711 0.975501 2.0472
-0.47125 1.09744 2.09519
-0.617382 1.04377 1.89875
0.5425 0.220409 -2.02316
0.712627 0.29125 -1.99621
0.733566 0.218518 -1.8468
0.506735 0.357462 2.07823
0.678013 0.41875 2.1182
0.696328 0.301588 1.93804
0.534 0.801576 -1.97158
0.70708 0.68875 -1.92913
0.749579 0.809213 -1.75808
0.45125 1.09624 2.10103
0.584411 0.98125 2.05527
0.592531 1.04469 1.91405
-0.774324 0.196212 -0.8116
-0.772059 0.201487 -0.467294
-0.839739 0.273626 -0.633891
-0.579235 0.200503 -0.639833
-0.721262 0.264325 0.90993
-0.765031 0.217546 0.565624
-0.867553 0.28853 0.73743
-0.573161 0.21911 0.737276
-0.783834 0.937631 -0.76125
-0.840459 0.874982 -0.600556
-0.771898 0.95977 -0.42875
-0.61697 1.0525 -0.594335
-0.737166 1.06134 0.90125
-0.819271 0.969859 0.735347
-0.742981 1.03308 0.56875
-0.632167 1.27085 0.736331
0.768376 0.196208 -0.814572
0.573861 0.200499 -0.642148
0.767256 0.201494 -0.470495
0.834199 0.274139 -0.635926
0.720806 0.264611 0.905812
0.572438 0.219109 0.734274
0.763724 0.217526 0.561735
0.865885 0.290495 0.735258
0.773426 0.940112 -0.756592
0.607731 1.05676 -0.590342
[...]
POINT_DATA 3682
SCALARS point_scalars float 1
LOOKUP_TABLE default
-67.6142
-39.074
-47.2765
-35.6204
-71.8818
-37.7662
-42.496
-34.0773
-38.7879
-45.0872
-52.4295
-53.3717
-38.4725
-42.0917
-52.2292
-53.8258
27.7528
-89.9935
-38.4994
-36.2513
-41.2008
-35.4155
-32.0551
56.036
-89.9935
-39.097
-40.6731
-39.3549
-34.6845
-31.5044
50.7999
-92.3668
-44.1336
-44.1288
-39.8135
-32.5547
-31.5569
-13.5209
-55.9986
-78.4119
-62.3414
-37.5052
-35.557
-33.9906
12.2493
-79.6264
-39.5217
-44.4594
-38.4877
-33.3337
-31.2895
107.966
-31.4662
-31.2895
167.225
-31.3583
-30.9485
-40.5365
-46.117
-71.6187
-65.7633
-36.0598
-31.8472
-31.8472
72.0907
-86.3662
-39.2143
-41.2801
-36.7613
-31.6287
-30.612
111.043
-31.0868
-30.612
163.798
-30.815
-30.266
-57.3531
-46.0615
-75.8307
-66.4942
-32.4893
-31.0306
-31.0306
-86.3662
-93.6681
-37.7615
-36.3652
-40.504
-38.5024
-31.7432
53.1329
-103.219
-38.054
-34.9757
-38.7971
-34.0017
-31.074
62.7325
-90.6915
-44.0241
-44.7669
-38.9825
-31.9839
-31.0728
-33.8997
-58.3944
-77.4984
-61.9526
-34.6978
-33.0368
-33.0368
-21.6379
-133.075
-50.4206
-33.5489
-32.5354
-39.8776
-51.049
-45.8036
-29.7603
-45.3217
-13.6038
-51.8361
-32.644
-39.3949
-47.1499
-45.0708
-36.7328
-40.075
-42.1809
-38.816
-40.0206
-55.5287
17.585
-67.246
-35.8016
-39.1254
-38.7584
-54.7804
-56.3978
-58.4825
-57.1474
-23.4115
200.899
-40.6385
-39.8222
-37.8187
-95.0957
-47.4631
-47.3676
-38.1095
-41.2187
-21.8474
10.3528
-134.336
-73.4512
-34.6385
-34.7358
-40.4005
6.12027
-41.0074
-57.7833
-33.0941
-30.2439
-37.3843
-132.988
15.1882
-76.7894
-34.2504
-33.98
-40.1974
-39.783
10.8626
-57.9143
-29.6518
-32.1797
-36.9364
-46.494
-37.3373
-38.9432
-41.4769
-38.8728
-37.1759
-35.2464
-40.0629
-31.7178
-42.9131
-58.6611
12.401
-51.5958
-44.552
-51.0639
-65.3818
-47.3158
-41.4015
-36.9547
-37.9082
-38.6961
-40.0193
-36.9333
-35.4212
-31.7079
12.8107
-42.5953
-57.3297
-50.897
-65.3729
-44.8037
-50.5754
-89.0483
177.894
-75.9381
134.187
-56.079
-55.5504
-42.4955
-30.1333
-35.8767
-22.5262
-47.5046
-38.5422
-44.3594
193.887
-56.145
-27.0408
-35.5754
-25.0176
-47.7852
-41.8771
-95.6172
179.562
-57.175
-55.7263
-41.9331
-28.9252
-46.5123
-38.3572
-58.1131
-27.0709
-46.9681
-41.706
-37.8942
-37.4411
-43.7485
-40.7012
-48.5092
-39.5612
-39.0596
-44.0933
-39.0244
-39.9367
-45.9621
-88.9602
-1.96054
-29.5068
-83.9475
-51.7741
-37.1552
-37.2698
-45.0391
-39.7509
-38.3969
-44.0808
-45.4136
-88.9094
-87.6821
-47.1923
-41.7184
-91.7492
-95.5848
-96.4709
-42.0488
-49.2236
-74.4579
-74.5884
-47.7885
-47.7239
-43.5977
-8.29534
-7.9943
-43.6439
139.493
163.617
159.585
141.489
-38.2901
-36.6706
-42.3787
-46.4614
-37.4268
-45.8141
-43.7104
-35.6371
-39.0308
-38.8937
-38.59
-38.7356
-35.9683
-77.8231
-77.0579
-36.977
-42.8338
-42.4493
-41.4177
-45.8744
-42.9288
-46.2704
-41.1104
-42.0835
-39.9202
-39.9072
-37.2298
-37.4484
-52.3165
-35.7948
-35.6306
-52.088
-30.2026
-29.2975
-28.5505
-29.5838
-17.6331
-132.603
-105.925
-35.8416
-36.7204
-40.7911
-0.306401
-52.3834
-59.6724
-33.9738
-32.2114
-34.5828
-133.995
-28.8751
-116.441
-36.2799
-35.9819
-39.3197
-49.6329
1.38851
-59.3182
-31.0467
-33.0392
-33.7777
-41.6836
-37.4991
-38.4756
-40.4868
-39.9246
-36.1841
-36.88
-41.0472
-33.1591
-46.3317
-57.7661
-2.48207
-52.5656
-49.2055
-49.2894
-62.0889
-41.7402
-40.3425
-37.096
-37.6255
-42.2317
-40.4976
-35.7226
-36.4119
-33.283
-1.99971
-46.3932
-58.9451
-52.6338
-62.2322
-50.3873
-48.5511
-4.49627
-9.28506
-93.9361
103.792
-133.422
-133.388
-96.5725
51.4079
-59.2965
-48.0466
-55.0478
-53.5283
-33.7805
-33.0814
-39.1235
-31.4935
-33.1851
-32.9436
-34.495
-27.2447
-43.203
-39.0985
-47.1501
-38.8605
-50.367
-49.9397
-42.0931
99.2633
-54.7784
-36.1204
-54.6127
-33.8979
-29.8917
-29.5391
-32.8039
-27.2895
-41.2365
-48.7252
-45.5167
-43.0574
0.299821
-1.97935
-83.3315
110.088
-61.4627
-48.6506
-56.0693
-53.821
-32.9642
-32.0952
-38.5877
-31.0273
-42.2571
-38.9683
-44.9949
-38.578
-56.5136
-37.4155
-57.1432
-34.1904
-40.8785
-48.5628
-44.7463
-42.6881
-37.1454
-36.3307
-37.0891
-36.9081
-39.2909
-41.0017
-41.2451
-40.4369
-41.9921
-41.9688
-45.6441
-40.3999
-36.9586
-41.0803
-37.4933
-41.9059
-40.0157
-39.9895
-38.8466
-41.007
-56.7711
-53.2839
-51.1716
-70.702
16.0089
16.5203
6.87447
6.19882
-66.6804
-66.6379
-75.8484
-59.3054
-36.9044
-35.9847
-36.3771
-36.6342
-38.3976
-40.1587
-40.1896
-39.5017
-37.0231
-41.1582
-36.7395
-41.9965
-56.3931
-52.6247
-50.6843
-70.4858
-66.6394
-56.4451
-56.3785
-48.3018
-71.7228
-58.0931
-58.0256
-50.4278
-64.992
-56.712
-56.8155
-51.5265
-33.7254
-24.0834
-24.0919
-12.8583
197.282
163.913
188.269
197.334
-39.1228
-40.7815
-39.983
-42.656
-38.3086
-39.9923
-39.3825
-42.0346
-37.7027
-38.7331
-38.0801
-37.6323
-94.7296
-82.3602
-91.7027
-94.4797
-47.6776
-47.6191
-48.5459
-45.8009
-47.067
-47.1806
-48.2847
-45.4798
-37.2043
-38.2446
-38.1503
-38.984
-37.7011
-41.4251
-41.3225
-45.8256
-25.3651
-22.7967
-24.6381
-23.8791
-100.848
55.8355
-96.9447
34.5788
-84.8915
-73.5792
-38.8778
-31.5346
-36.5449
-31.0214
-42.5596
-38.5347
-89.4161
54.8921
-44.9554
92.2981
-77.4399
-48.0343
-39.4504
-31.3576
-33.1141
-29.7481
-40.4868
-36.1574
-96.6092
48.2843
-89.372
59.0092
-93.784
-74.2642
-36.0931
-30.4
-38.4368
-31.0795
-42.1362
-38.3051
-44.9285
96.6934
-78.9161
59.1938
-74.479
-48.5248
-32.8759
-28.7662
-39.0985
-30.6118
-40.2029
-35.8098
-49.9589
-46.7698
-37.6213
-38.3594
-40.8928
-38.3894
-45.0924
-39.7625
-41.9901
-39.6672
-36.2716
-38.2809
-34.1213
-40.6359
-38.7641
-41.048
-39.2592
-15.8668
-41.2478
-45.195
-51.6816
-79.5793
2.48173
2.16726
-48.2286
-53.2644
-44.7511
-45.1508
-48.0293
-62.0132
-71.0362
-58.9343
-53.5156
-46.9675
-45.1025
-39.6427
-36.7802
-38.1379
-39.9734
-37.4255
-41.3456
-39.6414
-38.6263
-41.1476
-35.4026
-38.0144
-33.5952
-40.6641
-39.3503
-15.4738
2.32311
2.05385
-41.1529
-44.6984
-51.302
-79.2467
-48.3341
-52.938
-70.9338
-58.8525
-43.5122
-45.5136
-48.2908
-61.0593
-88.6969
-89.2649
154.5
154.028
-75.5389
-75.6141
140.555
140.557
-64.786
-48.8561
-63.3709
-50.1395
-42.8019
-42.132
-30.1225
-30.1796
-36.1287
-36.1433
-26.1005
-24.9761
-44.7236
-49.7623
-39.104
-38.113
-42.791
-42.9029
186.985
188.385
-45.9263
-69.3667
-36.2501
-17.873
-35.6223
-35.539
-26.627
-27.4872
-44.2227
-48.0819
-46.4069
-38.2949
-95.4807
-96.1284
152.649
156.316
-69.5954
-50.5854
-63.6034
-50.2596
-41.6392
-42.3062
-29.0712
-29.1611
-44.466
-49.0489
-39.0191
-37.8637
-74.9763
-48.5717
-17.8198
-36.3785
-48.1499
-43.6958
-38.1214
-46.2251
-38.1788
-37.4828
-38.325
-37.7812
-44.2658
-42.6137
-39.1548
-42.7632
-48.3118
-48.2753
-39.4331
-39.3723
-37.814
-40.8044
-43.4526
-44.4603
-38.8933
-38.9596
-39.9547
-39.9392
-45.5257
-46.5884
-77.0392
-85.2154
-3.67457
-3.21329
-31.4574
-31.6432
-82.7729
-82.5772
-51.9822
-51.8685
-37.3664
-36.7903
-38.1586
-37.623
-43.3475
-46.4312
-38.3323
-42.1522
-40.6298
-37.072
-43.4919
-44.5863
-45.8789
-44.0603
-85.0073
-77.3462
-90.8436
-64.5075
-65.6838
-100.121
-40.0963
-41.1745
-48.6196
-49.5225
-40.0989
-43.7596
-47.1477
-40.8179
-78.9354
-90.0875
-67.3739
-66.9811
-82.3209
-89.3123
-70.523
-68.2525
-68.2395
-74.0306
-72.9251
-79.6289
-39.8472
-40.2319
-49.5492
-45.3333
-39.517
-50.4919
-50.8004
-40.1528
-99.1776
-96.7312
-64.5586
-61.1695
-99.6325
-61.8419
-64.6692
-96.7114
-44.3059
-45.486
-51.222
-48.8649
-44.2759
-48.6263
-51.1392
-45.4813
-50.5336
-41.9697
-34.3012
-43.654
-4.15865
5.70453
-14.3407
-24.8208
-3.97335
-24.6354
-14.3067
5.49861
-50.7847
-43.5926
-34.3162
-42.4905
10.5589
82.8706
162.206
58.2921
50.2493
95.6919
180.523
80.9978
53.3121
82.3017
182.624
99.4043
6.08364
57.9233
161.897
84.9347
-37.6314
-37.3654
-39.266
-39.1553
-33.4226
-36.2333
-38.6457
-36.7571
-46.8567
-50.1623
-42.0398
-40.2704
-50.2162
-42.2552
-42.8861
-51.7102
-36.7371
-38.2894
-38.4188
-36.6154
-50.3193
-51.3564
-42.2914
-41.4908
-45.9345
-39.7713
-41.4288
-49.8407
-32.9872
-36.1174
-37.9044
-35.4323
-38.928
-40.2426
-38.6439
-37.7667
-38.6844
-37.5193
-38.5764
-40.1963
-38.2179
-38.7712
-37.9356
-36.9522
-38.5397
-37.2058
-38.0112
-38.8255
-40.5118
-78.9603
-82.1531
6.56378
-61.2481
-74.9479
-90.5316
-65.7191
-61.7035
-65.4805
-90.3786
-74.8153
-40.5236
6.65208
-82.8518
-78.5629
-40.8331
-43.0503
-45.391
-41.3382
-39.5369
-39.153
-48.5576
-52.9907
-39.2186
-43.0764
-46.268
-39.2941
-48.9781
-42.1121
-46.4864
-47.6307
-41.6615
-41.4198
-44.9158
-43.4079
-50.5259
-47.3701
-46.5311
-42.0217
-39.2659
-38.6802
-45.3784
-42.7948
-39.0684
-52.5612
-47.9006
-38.6598
-40.6491
-41.0371
-39.0379
-38.8765
-41.5145
-38.7288
-38.9934
-41.0558
-39.4497
-34.9323
-37.3039
-38.6002
-40.3516
-39.0538
-37.467
-35.2739
-58.3398
-47.7935
-46.0183
-59.2243
-33.5362
-33.0039
-37.8932
-39.2326
-33.0861
-38.8758
-37.7986
-32.8955
-58.5155
-59.0879
-45.9065
-47.4206
-33.9701
-29.011
-25.349
-31.4819
-32.7128
-31.0218
-24.0801
-28.3596
-30.7584
-27.2545
-26.1521
-30.8865
-31.5575
-31.4866
-27.4733
-27.9556
-57.7268
-89.778
-137.259
-38.3717
-37.2831
-38.8583
-25.4158
-44.493
-63.4636
-35.6953
-34.2111
-34.1337
-95.2576
-54.939
-108.811
-36.6818
-38.2493
-37.2152
-45.4592
-17.3676
-61.0423
-32.7453
-34.8424
-34.2334
-40.2843
-37.9811
-38.4293
-39.7808
-43.9339
-38.1304
-42.1519
-42.8145
-41.306
-49.2712
-60.2013
-31.0789
-53.2641
-51.7274
-50.7158
-57.8671
-40.0778
-39.6082
-37.579
-37.7988
-46.3768
-40.9437
-37.5321
-40.4723
-41.5267
-32.8859
-49.6724
-60.5777
-53.2935
-58.5228
-52.8994
-50.8869
-14.1485
-20.9111
-57.3023
58.6929
-135.081
-133.799
-115.231
-76.5649
-54.2091
-48.8089
-54.3997
-52.0558
-33.6447
-33.3518
-37.6958
-31.878
-32.739
-32.6127
-33.9254
-29.5168
-40.6258
-39.6096
-45.5932
-39.0244
-51.1938
-51.6062
-54.0013
-75.8477
-50.618
-40.4575
-51.5736
-37.7247
-29.891
-29.4739
-32.0002
-28.1292
-43.2355
-46.7674
-45.254
-44.9857
-8.72916
-9.86444
-33.9125
58.2281
-55.7987
-49.5774
-55.3467
-52.6476
-32.7904
-32.4455
-36.9109
-31.3701
-40.0732
-39.3041
-43.8413
-38.662
-51.3313
-41.9328
-53.4742
-38.1402
-43.2569
-46.5209
-44.4113
-44.2291
-36.2211
-36.0652
-36.8448
-36.6279
-39.6386
-40.4595
-40.37
-40.1816
-42.1299
-42.1181
-43.8707
-41.1771
-38.3362
-39.5956
-37.7647
-39.8611
-40.0192
-40.0045
-39.3093
-40.9719
-55.9317
-54.2825
-53.9149
-61.1587
16.7307
16.7863
12.7324
15.066
-67.2001
-67.1157
-71.5506
-63.2095
-36.2475
-35.7335
-35.9786
-36.3105
-38.6954
-39.5635
-39.338
-39.2168
-38.253
-39.5363
-37.6349
-39.7143
-55.5744
-53.5149
-54.0593
-60.7331
-60.8482
-56.3032
-56.6643
-52.2282
-63.9439
-58.3529
-58.3134
-53.7737
-60.687
-57.0135
-57.0613
-54.1887
-28.486
-23.5156
-23.5177
-18.9549
196.227
182.679
200.954
198.364
-39.9106
-40.6597
-40.3943
-41.4935
-39.1986
-39.9389
-39.6202
-40.6242
-37.7921
-37.8519
-37.9197
-37.7572
-95.0868
-92.0651
-94.2463
-94.9672
-48.6308
-47.4576
-47.798
-47.1825
-48.1328
-47.0719
-47.9687
-46.8982
-37.6738
-38.1487
-38.0997
-38.5662
-39.2789
-41.2899
-41.2456
-43.3437
-23.6308
-22.9135
-22.7714
-22.3401
-1.64003
1.99531
-81.8145
70.4337
-136.711
-133.957
-115.609
-90.5285
-86.7812
-65.4937
-82.5029
-73.5773
-35.2061
-34.0976
-37.2589
-32.2592
-35.611
-34.3063
-36.0453
-31.8382
-38.9802
-41.4809
-42.9041
-39.0828
2.37392
-2.08849
-58.2691
41.9082
-41.2733
-47.234
-47.4022
-61.7885
-58.8207
-56.3778
-62.4388
-51.3614
-33.505
-32.9507
-39.5423
-31.9444
-30.9609
-30.0303
-31.7114
-29.9356
-36.292
-39.1229
-39.3833
-36.6157
-131.467
-133.518
-114.583
-95.0977
0.874139
8.60287
-50.5639
71.4172
-90.5289
-68.3863
-89.2665
-75.2111
-35.1052
-33.8232
-35.5843
-31.2867
-34.7538
-33.3468
-36.8623
-31.6385
-38.5646
-40.9529
-42.4033
-38.6966
-39.9008
-46.4953
-46.9853
-56.3629
8.05155
5.88222
-39.2567
46.5885
-55.908
-57.8371
-62.491
-51.8854
-30.076
-29.4709
-31.3735
-28.9202
-32.4743
-31.975
-38.5308
-31.2298
-35.5678
-38.7515
-39.2661
-36.2585
-44.153
-46.1841
-52.1927
-46.0402
-37.2069
-37.9845
-37.2944
-37.9242
-38.6219
-39.2133
-39.5384
-38.624
-41.0549
-41.7608
-43.2636
-40.4885
-38.6636
-38.4736
-41.5247
-39.1106
-36.7605
-36.399
-36.5802
-38.0309
-34.3814
-35.992
-31.7737
-39.0386
-40.2152
-40.0237
-39.3488
-41.0467
-30.7294
-34.2838
-38.1636
-20.903
-44.246
-41.7786
-41.8033
-44.2316
-58.0477
-58.2969
-54.9254
-69.9669
8.75459
14.6535
8.92973
10.7954
-52.544
-50.2992
-50.0158
-52.7768
-46.8152
-42.7966
-44.3574
-44.8674
-50.1646
-52.0238
-50.4758
-55.6509
-64.4263
-66.3016
-68.368
-62.2603
-44.348
-46.9699
-54.547
-46.4483
-40.9387
-41.715
-43.2238
-40.3823
-36.8099
-37.6096
-36.6456
-37.6576
-37.5969
-38.249
-38.5169
-37.6464
-38.608
-38.3266
-40.2026
-39.0526
-40.1476
-39.987
-39.2473
-41.1238
-36.6653
-36.0802
-36.2633
-37.6818
-34.4609
-36.3048
-31.3546
-39.8957
-30.6566
-35.3412
-38.517
-20.6391
8.96608
14.7858
9.5446
11.0746
-43.7373
-41.0689
-41.5809
-43.5761
-58.3824
-56.7226
-54.234
-71.2084
-51.8009
-50.008
-49.2592
-52.7818
-64.7974
-66.1638
-68.3496
-62.183
-47.2016
-42.9205
-43.8091
-45.1752
-49.0785
-51.4282
-49.802
-55.0966
-106.157
-75.7116
-89.1794
-89.1323
156.866
191.357
167.059
177.823
-85.0315
-69.7401
-75.768
-75.8124
105.555
155.719
136.842
136.89
-55.66
-56.4222
-59.8924
-52.6205
-54.6449
-56.2168
-59.022
-52.7063
-40.6812
-44.8135
-42.7178
-42.3208
-31.0147
-28.1335
-30.1633
-30.2306
-35.0049
-36.6196
-36.0773
-35.9103
-24.8411
-22.6069
-24.1756
-23.3342
-47.1735
-47.6368
-47.0972
-50.4817
-38.7542
-38.3819
-38.8366
-38.3646
-41.1787
-38.3594
-43.353
-43.492
187.478
189.831
192.531
192.497
-55.6862
-56.2522
-50.8019
-62.0723
-29.899
-25.1657
-32.0304
-22.409
-34.2265
-36.3577
-35.5362
-35.4938
-26.5167
-24.9817
-25.7563
-26.6377
-46.3703
-49.0161
-45.7405
-48.7447
-42.2837
-41.6338
-44.0804
-39.9923
-110.648
-81.4584
-96.0941
-95.4333
155.815
194.047
177.604
168.415
-56.6613
-57.6694
-62.5187
-53.4743
-54.8831
-56.373
-59.2355
-52.8441
-40.1646
-44.3628
-41.8059
-42.1764
-30.2081
-26.3504
-29.0813
-29.0316
-45.8544
-46.7427
-46.396
-49.5807
-38.5262
-38.2403
-38.7096
-38.1285
-58.8888
-57.958
-64.8877
-53.3851
-30.1253
-25.142
-22.3927
-32.2115
-45.7121
-48.4693
-48.2735
-45.213
-42.0743
-41.503
-39.8192
-43.8922
-37.4824
-38.5263
-38.0564
-37.7062
-37.1941
-37.5902
-37.5146
-37.4838
-42.7654
-44.7618
-44.0984
-43.2749
-40.6368
-40.8412
-39.885
-41.6171
-47.0082
-49.7973
-48.4459
-48.4298
-39.8512
-39.5994
-39.5109
-39.4729
-38.5114
-39.619
-38.5566
-39.8096
-43.2513
-44.878
-43.8133
-44.3991
-38.8321
-38.5675
-38.9643
-38.9975
-40.3444
-39.5238
-39.9453
-39.9363
-48.2644
-44.1643
-45.8135
-46.2724
-81.305
-92.5544
-87.2116
-87.5488
0.595041
-8.31341
-2.05109
-2.06917
-10.7019
-59.7354
-29.1875
-29.4381
-79.9136
-87.7531
-83.6959
-83.6107
-55.5266
-48.5981
-51.849
-51.7763
-36.6903
-37.7552
-37.2815
-36.9722
-36.9677
-37.4677
-37.338
-37.3077
-41.7899
-48.3104
-44.338
-45.5816
-39.6027
-39.948
-39.0701
-40.7355
-37.4332
-38.963
-39.3824
-37.8067
-43.3373
-44.7219
-43.7481
-44.4532
-47.9439
-43.4377
-45.567
-44.9554
-81.6739
-92.9163
-87.7164
-88.0596
-96.8102
-88.2062
-88.4898
-74.472
-49.4618
-44.0806
-45.528
-44.7367
-40.7275
-40.8703
-43.1204
-42.2827
-95.4508
-84.1
-90.0608
-77.5576
-104.36
-94.5218
-95.8687
-79.7572
-94.4842
-86.5739
-96.6272
-86.5159
-40.9629
-40.9661
-44.7698
-42.4719
-51.4661
-43.8179
-49.2331
-47.228
-84.3432
-73.8314
-75.0356
-68.1299
-84.2996
-74.1657
-75.1977
-68.3664
-47.4326
-46.4042
-48.795
-48.0776
-47.3322
-46.3682
-48.6953
-48.0257
-45.1961
-45.64
-43.2396
-40.4742
-12.5258
-2.61532
-12.9931
-5.3259
-11.8536
-2.77242
-13.126
-5.04836
-45.4345
-45.4393
-43.2677
-40.5964
128.786
119.313
154.67
137.908
100.49
162.127
154.036
179.153
151.874
113.368
178.082
150.017
121.187
131.194
139.266
153.965
-37.9204
-38.2697
-38.2894
-38.7466
-36.4116
-35.6912
-37.1482
-37.1504
-41.9788
-44.7228
-41.6403
-46.5199
-45.9419
-48.4804
-44.4013
-46.5591
-37.0509
-37.3541
-37.4386
-37.8529
-45.3649
-48.0562
-43.8099
-45.9284
-43.7507
-46.6149
-42.0318
-44.5586
-35.3834
-34.7439
-36.3685
-36.2806
-38.7101
-39.2838
-39.0981
-39.2401
-39.1474
-38.5204
-39.1409
-38.9537
-38.4428
-38.3235
-38.7702
-38.2196
-38.5264
-38.5915
-38.3781
-38.8779
-46.677
-14.2452
-55.7275
-32.2565
-72.1394
-73.9864
-81.5939
-80.8598
-73.7797
-71.7716
-80.4376
-81.1768
-14.5841
-46.599
-32.8172
-56.9295
-42.5147
-42.2896
-43.5389
-43.0773
-40.5088
-42.2002
-42.793
-45.1697
-40.3543
-41.0121
-41.8168
-42.7112
-47.3936
-45.4219
-47.2336
-44.6822
-42.4715
-41.652
-43.6263
-43.3735
-47.5055
-45.7613
-47.4651
-44.8183
-39.9129
-40.6717
-41.3704
-42.3115
-40.088
-41.8096
-42.3627
-44.661
-39.8384
-40.2946
-39.5694
-39.9509
-39.8306
-40.3264
-39.5083
-39.9345
-36.6546
-37.94
-36.7413
-37.5629
-37.0039
-37.9749
-36.8716
-37.7989
-52.7507
-55.6066
-49.1513
-52.1416
-34.3881
-35.9069
-35.7043
-36.9386
-34.1753
-35.6742
-35.5865
-36.749
-52.4582
-55.4101
-48.9617
-51.9985
-31.2184
-30.5423
-30.084
-28.6047
-29.7904
-30.5551
-27.4404
-29.0602
-28.6222
-29.4936
-27.6942
-28.8802
-30.3648
-29.5522
-29.8894
-28.7994
-95.8633
37.0454
-120.538
-46.4316
-94.6363
-101.09
-37.8988
-34.5861
-39.777
-35.9612
-40.4846
-40.8798
-64.9514
45.653
-51.0692
11.6952
-69.5485
-54.087
-40.2712
-32.7244
-31.8976
-32.4409
-38.226
-33.8279
-120.899
-57.8077
-75.2888
38.5122
-90.2411
-101.691
-38.0888
-36.0357
-37.5568
-33.5036
-39.8304
-39.2723
-52.3703
13.1341
-58.5627
48.4635
-63.6383
-53.2492
-31.6241
-31.283
-38.4071
-31.7476
-38.0938
-33.3032
-40.4344
-43.7159
-37.331
-38.299
-38.8836
-38.3904
-42.256
-39.5065
-40.7323
-40.1997
-34.3984
-38.18
-27.8225
-42.2928
-39.4329
-41.727
-39.1774
-12.3222
-43.1121
-48.8443
-53.5917
-73.8412
-0.408525
-11.6163
-51.0325
-54.8332
-47.6672
-49.5189
-48.4731
-53.4121
-62.461
-60.0944
-40.1702
-43.7628
-42.1871
-39.311
-36.6558
-38.0325
-38.0991
-37.3609
-42.5797
-41.8566
-39.0545
-42.4146
-33.6227
-37.7475
-27.4206
-42.7514
-38.9956
-12.6595
-0.266773
-11.4939
-43.1027
-48.78
-53.985
-75.4787
-52.1924
-54.9996
-62.5241
-60.4161
-47.3672
-50.5547
-47.25
-52.9057
-71.7186
60.3656
-51.3351
49.2067
-97.3052
-92.0641
95.8239
109.166
-115.285
-108.538
-115.311
-106.241
-96.6063
-96.5961
52.6425
53.1876
-62.523
-59.9368
-48.6884
-48.1235
-58.21
-52.897
-56.8525
-50.9667
-37.5401
-31.9378
-38.2836
-31.6912
-39.1353
-39.2294
-31.4739
-31.5191
-34.6231
-30.7375
-34.4607
-30.1009
-34.4086
-34.7045
-27.8824
-27.4683
-51.52
-40.7207
-40.7379
-38.6206
-45.9821
-48.6931
-39.1178
-38.8611
-48.9562
-71.385
-49.0972
-71.4334
-42.5204
-42.5289
89.19
106.426
-62.2718
-45.9252
-42.1836
-29.0827
-48.8046
-61.5539
-38.059
-29.447
-31.8723
-28.4223
-31.7614
-27.966
-32.928
-32.8923
-27.0918
-27.3644
-42.338
-40.3187
-48.0892
-49.2601
-44.3084
-46.7275
-45.4303
-41.0349
-42.5227
61.4543
-34.4756
50.8565
-88.8741
-83.2937
113.346
99.7567
-66.0247
-61.1327
-49.6683
-48.5162
-61.0293
-52.6951
-57.2998
-51.2188
-36.9111
-31.4168
-37.8561
-31.074
-38.656
-38.6479
-31.0318
-31.0248
-50.7948
-40.1459
-41.2951
-38.4833
-45.8455
-46.9512
-38.9053
-38.5381
-66.517
-46.5277
-43.6122
-29.4244
-64.9271
-51.3907
-29.5737
-38.3385
-42.162
-39.7299
-47.7653
-49.0575
-46.2286
-43.9148
-40.7315
-45.0891
-36.8122
-37.3919
-36.4443
-36.5687
-37.2574
-36.9585
-36.9588
-36.9425
-40.064
-39.0484
-40.6692
-41.6305
-41.1727
-41.0253
-39.6769
-41.166
-43.6915
-40.9936
-43.6797
-40.9559
-45.6623
-45.6629
-40.3399
-40.3158
-36.4158
-38.3789
-40.4264
-41.1778
-36.401
-38.7259
-41.7002
-41.9967
-39.3349
-40.9693
-39.2947
-40.9792
-38.8305
-38.8568
-40.953
-40.9577
-54.3565
-64.2783
-52.5741
-58.1896
-50.8152
-51.2938
-73.8244
-68.0649
11.4557
14.3942
11.8521
14.5895
6.58065
6.60141
6.68771
6.64181
-70.8185
-63.1266
-70.7465
-63.0501
-75.6466
-75.5419
-59.4289
-59.3774
-36.3502
-37.129
-35.9138
-36.3271
-36.4207
-36.3198
-36.6762
-36.6814
-38.9611
-38.2285
-39.8547
-40.9588
-40.1616
-40.1523
-38.8539
-40.437
-36.3222
-38.5466
-40.1938
-41.1937
-38.1484
-35.7896
-41.7442
-41.9216
-54.2061
-64.2898
-52.2115
-57.8404
-50.9332
-50.0261
-67.7152
-74.1262
-66.4499
-67.1308
-60.5442
-52.5329
-51.5571
-61.353
-48.4139
-47.9647
-71.3529
-72.6744
-63.2856
-54.2275
-64.5743
-53.1884
-50.089
-50.683
-64.8184
-64.8784
-60.2381
-53.7786
-60.3521
-53.8655
-51.4485
-51.4105
-33.6837
-33.6912
-29.2137
-19.3897
-19.3615
-29.2279
-13.4456
-13.3885