# vtk DataFile Version 2.0
tet_velo
ASCII
DATASET UNSTRUCTURED_GRID
POINTS 29498 float
-0.729193 0.325 -2.295
-0.755 0.465 2.50533
-0.745 0.986003 -2.355
-0.715 1.29388 2.375
0.729193 0.325 -2.295
0.755 0.465 2.50533
0.745 0.986003 -2.355
0.715 1.29388 2.375
-0.752788 0.356674 -0.69489
-0.80077 0.363961 0.90522
-0.806952 1.16058 -0.778334
-0.78198 1.24823 0.798333
0.752572 0.35689 -0.69489
0.800979 0.363752 0.90522
0.806971 1.1606 -0.778334
0.782773 1.24903 0.798333
-1.50306 -0.138428 -3.52238
-1.5027 -0.0670889 -2.25168
-1.52421 -0.0409321 -0.650967
-1.55265 -0.0385475 0.954468
-1.53469 0.0293564 2.55558
-1.52688 0.092892 3.82823
-1.53014 0.152251 5.09727
-1.50231 0.232783 -3.56081
-1.50411 0.319794 -2.29267
-1.53227 0.368133 -0.696517
-1.55729 0.379846 0.901748
-1.5184 0.451269 2.49835
-1.51653 0.514165 3.77067
-1.52582 0.572355 5.04047
-1.51063 0.948862 -3.63109
-1.52297 1.03318 -2.36198
-1.56666 1.16976 -0.781806
-1.54983 1.24227 0.796706
-1.49376 1.29424 2.37733
-1.50442 1.35397 3.65061
-1.52279 1.41245 4.9242
-1.52352 2.12006 -3.75413
-1.53332 2.21646 -2.48853
-1.5536 2.36274 -0.915958
-1.55785 2.48394 0.651561
-1.54539 2.56452 2.22438
-1.54002 2.61849 3.49049
-1.54239 2.6722 4.76151
-0.744298 -0.135556 -3.52389
-0.737876 -0.0613275 -2.25389
-0.750764 -0.0455523 -0.650671
-0.78362 -0.0500619 0.957431
-0.773247 0.0334186 2.56076
-0.767813 0.0960086 3.83174
-0.770681 0.153275 5.0993
-0.742666 0.229855 -3.56128
-0.761766 0.518709 3.77357
-0.768783 0.573899 5.04201
-0.747412 0.92818 -3.62819
-0.751894 1.35539 3.65015
-0.767956 1.41349 4.9241
-0.753193 2.10555 -3.75126
-0.758058 2.20261 -2.48537
-0.777315 2.3586 -0.914055
-0.788803 2.48691 0.651333
-0.784714 2.56742 2.22275
-0.781449 2.62023 3.48886
-0.78327 2.67336 4.76033
0.751452 -0.1355 -3.52389
0.746995 -0.0612653 -2.25389
0.767652 -0.0454038 -0.650671
0.789325 -0.0501383 0.957431
0.758274 0.0333968 2.56076
0.750351 0.0960261 3.83174
0.747903 0.153324 5.0993
0.747158 0.229891 -3.56128
0.742797 0.518726 3.77356
0.7431 0.573949 5.04201
0.755009 0.928212 -3.62819
0.728545 1.35544 3.65015
0.735621 1.41357 4.9241
0.780538 2.10565 -3.75126
0.785779 2.20273 -2.48537
0.779985 2.3588 -0.914055
0.757389 2.48721 0.651332
0.737338 2.56766 2.22275
0.733092 2.6204 3.48886
0.73316 2.6735 4.76033
1.50786 -0.138292 -3.52238
1.50643 -0.0669274 -2.25168
1.53354 -0.0406502 -0.650967
1.56048 -0.03848 0.954468
1.53253 0.0293589 2.55558
1.51669 0.0929533 3.82823
1.51172 0.152365 5.09727
1.50332 0.23289 -3.56081
1.50016 0.3199 -2.29267
1.53118 0.368474 -0.696517
1.56266 0.379986 0.901748
1.52424 0.451257 2.49835
1.50716 0.514226 3.77067
1.50522 0.572474 5.04047
1.51454 0.948962 -3.63109
1.52054 1.03326 -2.36198
1.56392 1.17009 -0.781806
1.55171 1.24302 0.796706
1.49638 1.29443 2.37733
1.48968 1.35411 3.65061
1.49523 1.41262 4.9242
1.54598 2.12026 -3.75413
1.55348 2.2167 -2.48853
1.55369 2.36314 -0.915959
1.53203 2.48449 0.651561
1.50583 2.56498 2.22438
1.49674 2.61884 3.49049
1.49533 2.6725 4.76151
-0.799484 0.655501 -2.38739
0 0.321347 -2.29865
-0.751425 0.330402 -1.49495
-0.74972 0.87944 2.45488
0 0.471012 2.49932
-0.819631 0.372734 1.70528
0 1.0401 -2.4091
-0.810186 1.1075 -1.56667
0 1.32356 2.40468
-0.759367 1.28193 1.58667
0.799495 0.655501 -2.3874
0.751391 0.330436 -1.49495
0.749304 0.87944 2.45447
0.819728 0.372637 1.70528
0.810122 1.10744 -1.56667
0.759434 1.282 1.58667
-0.773705 0.363391 0.105165
-0.87889 0.758627 -0.736612
-0.000108257 0.350687 -0.69489
-0.889625 0.806098 0.851777
0.000104403 0.354456 0.90522
-0.800966 1.21091 0.00999999
9.89924e-06 1.64986 -0.778334
0.000396547 1.72206 0.798333
0.773705 0.363391 0.105165
0.878933 0.758745 -0.736612
0.889619 0.80639 0.851777
0.799354 1.2093 0.00999999
-0.868202 0.707064 -1.53081
-0.884324 0.782362 0.0575825
-0.862139 0.842769 1.64597
-5.41287e-05 0.325465 -1.49495
-1.92723e-06 0.352706 0.105165
5.22015e-05 0.357985 1.70528
0 0.655501 -2.54982
0 0.87944 2.47162
4.94962e-06 1.20112 -1.56667
0.000203223 1.72205 0.00999999
0.000198273 1.72214 1.58667
0.868206 0.707123 -1.53081
0.884322 0.782567 0.0575825
0.875595 0.842915 1.64597
-1.11665 0.322397 -2.29384
-0.733535 0.131836 -2.27444
-0.735929 0.277428 -2.92814
-1.1367 0.458134 2.50184
-0.764123 0.249209 2.53305
-0.758383 0.491855 3.13945
-1.13399 1.00959 -2.35849
-0.746206 0.957091 -2.99159
-0.751529 1.59431 -2.42019
-1.10438 1.29406 2.37616
-0.733447 1.32463 3.01257
-0.749857 1.93065 2.29887
0.738094 0.131867 -2.27444
0.738175 0.277445 -2.92814
1.11468 0.32245 -2.29384
0.756637 0.249198 2.53305
0.748898 0.491863 3.13945
1.13962 0.458128 2.50184
0.750005 0.957108 -2.99159
0.765389 1.59437 -2.42019
1.13277 1.00963 -2.35849
0.721772 1.32466 3.01257
0.726169 1.93077 2.29887
1.10569 1.29415 2.37616
-1.14253 0.362403 -0.695704
-0.751776 0.155561 -0.67278
-1.17903 0.371904 0.903484
-0.792195 0.15695 0.931326
-1.18681 1.16517 -0.78007
-0.792133 1.75959 -0.846194
-1.16591 1.24525 0.79752
-0.785391 1.86757 0.724833
0.760112 0.155743 -0.67278
1.14188 0.362682 -0.695704
0.795152 0.156807 0.931326
1.18182 0.371869 0.903484
0.793478 1.7597 -0.846194
1.18545 1.16534 -0.78007
0.770081 1.86812 0.724833
1.16724 1.24603 0.79752
-1.50288 -0.102759 -2.88703
-1.50268 0.0471773 -3.5416
-1.12368 -0.136992 -3.52314
-1.51346 -0.0540105 -1.45132
-1.5034 0.126353 -2.27218
-1.12029 -0.0642082 -2.25279
-1.53843 -0.0397398 0.151751
-1.52824 0.1636 -0.673742
-1.13749 -0.0432422 -0.650819
-1.54367 -0.00459557 1.75502
-1.55497 0.170649 0.928108
-1.16814 -0.0443047 0.95595
-1.53078 0.0611242 3.1919
-1.52654 0.240313 2.52697
-1.15397 0.0313875 2.55817
-1.52851 0.122571 4.46275
-1.52171 0.303529 3.79945
-1.14735 0.0944503 3.82998
-1.52798 0.362303 5.06887
-1.15041 0.152763 5.09829
-1.50321 0.276288 -2.92674
-1.50647 0.590822 -3.59595
-1.12249 0.231319 -3.56104
-1.51819 0.343963 -1.49459
-1.51354 0.676486 -2.32733
-1.54478 0.373989 0.102615
-1.54947 0.768949 -0.739161
-1.53784 0.415557 1.70005
-1.55356 0.811058 0.849227
-1.51747 0.482717 3.13451
-1.50608 0.872756 2.43784
-1.52118 0.54326 4.40557
-1.51048 0.934067 3.71064
-1.13915 0.516437 3.77212
-1.5243 0.9924 4.98234
-1.1473 0.573127 5.04124
-1.5168 0.991019 -2.99653
-1.51708 1.53446 -3.69261
-1.12902 0.938521 -3.62964
-1.54482 1.10147 -1.57189
-1.52815 1.62482 -2.42525
-1.55825 1.20602 0.00745031
-1.56013 1.76625 -0.848882
-1.5218 1.26826 1.58702
-1.55384 1.86311 0.724134
-1.49909 1.32411 3.01397
-1.51958 1.92938 2.30085
-1.5136 1.38321 4.28741
-1.52222 1.98623 3.57055
-1.12816 1.35468 3.65038
-1.53259 2.04232 4.84286
-1.14537 1.41297 4.92415
-1.52842 2.16826 -3.12133
-1.13835 2.11281 -3.75269
-1.54346 2.2896 -1.70224
-1.14569 2.20954 -2.48695
-1.55573 2.42334 -0.132199
-1.16546 2.36067 -0.915007
-1.55162 2.52423 1.43797
-1.17333 2.48543 0.651447
-1.54271 2.59151 2.85743
-1.16505 2.56597 2.22356
-1.54121 2.64534 4.126
-1.16074 2.61936 3.48967
-1.16283 2.67278 4.76092
-0.741087 -0.0984415 -2.88889
-0.743482 0.0471499 -3.54258
0.00357677 -0.135528 -3.52389
-0.74432 -0.0534399 -1.45228
0.00455947 -0.0612964 -2.25389
-0.767192 -0.0478071 0.15338
0.00844397 -0.0454781 -0.650671
-0.778433 -0.00832169 1.7591
0.0028525 -0.0501001 0.957431
-0.77053 0.0647136 3.19625
-0.00748658 0.0334077 2.56076
-0.769247 0.124642 4.46552
-0.76479 0.307359 3.80265
-0.0087314 0.0960174 3.83174
-0.769732 0.363587 5.07065
-0.0113889 0.1533 5.0993
-0.745039 0.579017 -3.59473
0.00224615 0.229873 -3.56128
-0.765274 0.546304 4.40779
-0.75683 0.937048 3.71186
-0.00948474 0.518718 3.77356
-0.768369 0.993695 4.98305
-0.0128412 0.573924 5.04201
-0.750302 1.51687 -3.68972
0.00379888 0.928196 -3.62819
-0.759925 1.38444 4.28712
-0.766672 1.98781 3.5695
-0.0116749 1.35541 3.65015
-0.775613 2.04342 4.84221
-0.0161671 1.41353 4.9241
-0.755625 2.15408 -3.11832
0.0136727 2.1056 -3.75126
-0.767686 2.2806 -1.69971
0.0138604 2.20267 -2.48537
-0.783059 2.42275 -0.131361
0.00133473 2.3587 -0.914055
-0.786759 2.52717 1.43704
-0.0157072 2.48706 0.651332
-0.783082 2.59383 2.8558
-0.0236882 2.56754 2.22275
-0.78236 2.64679 4.12459
-0.0241784 2.62032 3.48886
-0.0250551 2.67343 4.76033
0.749223 -0.0983828 -2.88889
0.749305 0.0471951 -3.54258
1.12966 -0.136896 -3.52314
0.757324 -0.0533345 -1.45228
1.12671 -0.0640963 -2.25279
0.778488 -0.0477711 0.15338
1.15059 -0.043027 -0.650819
0.773799 -0.00837075 1.7591
1.1749 -0.0443091 0.95595
0.754312 0.0647115 3.19625
1.1454 0.0313779 2.55817
0.749127 0.124675 4.46552
0.746574 0.307376 3.80265
1.13352 0.0944897 3.82998
0.745502 0.363637 5.07066
1.12981 0.152845 5.09829
0.751084 0.579051 -3.59473
1.12524 0.23139 -3.56104
0.742948 0.546337 4.40779
0.735671 0.937081 3.71186
1.12498 0.516476 3.77212
0.739361 0.993759 4.98305
1.12416 0.573212 5.04124
0.767774 1.51693 -3.68972
1.13478 0.938587 -3.62964
0.732083 1.3845 4.28712
0.730818 1.98792 3.5695
1.10911 1.35477 3.65038
0.734391 2.04354 4.84221
1.11542 1.41309 4.92415
0.783158 2.15419 -3.11832
1.16326 2.11296 -3.75269
0.782882 2.28076 -1.69971
1.16963 2.20972 -2.48695
0.768687 2.423 -0.131361
1.16684 2.36097 -0.915007
0.747363 2.52744 1.43704
1.14471 2.48585 0.651447
0.735215 2.59403 2.8558
1.12158 2.56632 2.22356
0.733126 2.64695 4.12459
1.11492 2.61962 3.48967
1.11425 2.673 4.76092
1.50715 -0.102609 -2.88703
1.50559 0.047299 -3.5416
1.51999 -0.0537888 -1.45132
1.5033 0.126486 -2.27218
1.54701 -0.0395651 0.15175
1.53236 0.163912 -0.673742
1.5465 -0.00456051 1.75502
1.56157 0.170753 0.928108
1.52461 0.0611561 3.1919
1.52838 0.240308 2.52697
1.5142 0.122659 4.46275
1.51192 0.30359 3.79945
1.50847 0.36242 5.06887
1.50174 0.276395 -2.92674
1.50893 0.590926 -3.59595
1.51567 0.344187 -1.49459
1.51035 0.676578 -2.32733
1.54692 0.37423 0.102615
1.54755 0.769282 -0.739162
1.54345 0.415622 1.70005
1.55719 0.811505 0.849227
1.5157 0.482741 3.13451
1.51031 0.872842 2.43784
1.50619 0.54335 4.40557
1.49842 0.934169 3.71064
1.50022 0.992546 4.98234
1.51754 0.991109 -2.99653
1.53026 1.53461 -3.69261
1.54223 1.10167 -1.57189
1.53701 1.62498 -2.42525
1.55782 1.20656 0.00745021
1.55881 1.76661 -0.848882
1.52405 1.26872 1.58702
[...]
POINT_DATA 29498
VECTORS point_vectors float
-2.51438 -2.91787 8.54114
0.374623 0.340805 1.37387
-5.39255 3.53776 6.57056
-0.0176389 -0.0501002 0.094612
2.51605 -2.91282 8.54091
-0.34419 0.417631 1.47084
5.39383 3.54512 6.57101
0.000227449 -0.0543806 0.124426
0.0169141 0.0026868 0.336252
0.0291008 -0.036801 0.212747
0 0 0
0 0 0
-0.0157246 0.00300116 0.328399
-0.0284024 -0.0374184 0.220428
0 0 0
0 0 0
-0.596057 -0.388555 19.9172
-1.17504 -0.851364 20.8351
-0.295756 -0.416356 21.5481
0.124019 -0.140333 21.7275
0.712793 0.124184 21.7093
1.01949 0.280701 21.1639
1.0413 0.241378 20.9595
-0.700566 -0.295311 19.779
-1.7938 -0.834604 20.7926
-0.464352 -0.57363 21.651
0.0918069 -0.28784 21.7865
0.829153 -0.144796 21.7941
1.26219 -0.0216378 21.438
1.13443 -0.131895 21.3221
-0.750462 0.0218452 19.6541
-2.05962 0.128462 20.4302
-1.21689 -0.4488 21.6639
-0.237924 -0.412128 21.8425
0.342867 -0.581567 21.7722
0.848072 -0.647605 21.7634
0.708369 -0.580307 21.4401
-0.40025 0.252127 19.9316
-0.841433 0.555646 20.2958
-0.896803 0.421521 21.2269
-0.377742 0.0406128 21.6862
-0.0278508 -0.152245 21.5651
0.176386 -0.376509 21.1116
0.152247 -0.281102 20.8068
-0.549578 -0.77178 19.412
-1.58296 -2.87055 21.4888
-0.0919612 -0.205452 21.7449
0.196576 0.0669664 21.4202
0.924465 1.09527 20.7199
1.63931 1.67628 19.501
1.53972 1.26803 19.1814
-0.720527 -0.645657 19.0012
2.26065 0.954762 12.409
1.99354 0.897457 15.7201
-0.75066 0.123516 18.8268
0.210646 -1.36885 6.39239
0.905015 -0.875991 10.6626
-0.316802 0.447717 19.6678
-0.81821 1.30774 19.986
-1.12537 1.47634 21.3218
-0.413409 0.274885 21.9118
-0.0806574 -0.127847 21.751
0.115476 -0.405645 21.4339
0.185298 -0.438555 21.4224
0.557278 -0.766753 19.4317
1.60223 -2.8456 21.4741
0.107103 -0.20508 21.738
-0.155455 0.0790254 21.432
-0.817356 1.2175 20.7096
-1.52517 1.69408 19.1548
-1.55247 1.43502 18.8679
0.72873 -0.644348 18.9839
-2.14007 1.31682 12.6334
-1.95087 0.763144 16.0483
0.759335 0.122115 18.8387
-0.815711 -1.36954 8.78495
-1.12426 -1.32784 12.9904
0.331769 0.439712 19.6807
0.840196 1.27329 20.003
1.1391 1.47165 21.3269
0.436497 0.279578 21.941
0.136239 -0.189166 21.7632
0.00993639 -0.455534 21.7247
0.0228597 -0.510114 21.7859
0.594577 -0.380366 19.9132
1.17211 -0.836741 20.8527
0.310679 -0.415901 21.5437
-0.110563 -0.13202 21.7337
-0.731646 0.193019 21.7397
-0.99887 0.331322 21.3414
-1.0374 0.202791 20.5237
0.699243 -0.290896 19.762
1.80773 -0.836536 20.7856
0.470733 -0.569074 21.6604
-0.0896241 -0.269153 21.8152
-0.880436 -0.0799143 21.8394
-1.3324 0.0551719 21.3398
-1.29666 -0.0585534 20.9887
0.756165 0.018483 19.6506
2.07141 0.127744 20.442
1.22991 -0.450999 21.6765
0.23721 -0.414084 21.8807
-0.468986 -0.582286 21.8759
-1.05359 -0.69776 21.4616
-1.02594 -0.581111 21.0947
0.402568 0.244629 19.9404
0.841201 0.540067 20.3062
0.907024 0.419256 21.2335
0.393684 0.026161 21.7065
0.0187316 -0.204406 21.6091
-0.206731 -0.480075 21.0974
-0.230697 -0.318511 20.7485
-1.60078 -0.35614 2.68064
0.000106991 -0.00672181 0.0652614
0.0756314 -0.0418373 0.537031
-0.0546194 -0.12141 0.0169057
0.0179256 0.0553183 0.149832
0.0792676 -0.0172095 1.49088
0.000880998 1.60819 1.76345
-0.29859 -0.314987 1.01987
0.0233352 -0.0046307 -0.000894871
0.000631282 0.000905574 0.0132073
1.63311 -0.363867 2.72001
-0.0755249 -0.04073 0.540876
0.0510017 -0.0610848 0.0112969
-0.059635 -0.00438834 1.50192
0.297257 -0.314278 1.01529
-0.000646462 0.000905686 0.0135121
-0.00269502 0.0024336 0.583587
0 0 0
0 0 0
0.000610942 0.00238872 0.034328
1.56721e-05 7.11387e-06 0.00290311
0.00484231 0.0139205 0.0436084
0.000136362 0.357621 0.635793
1.80859e-06 1.4499e-06 0.000665332
0.00585358 0.00396612 0.585718
0 0 0
-0.000659689 0.00271511 0.0362063
0 0 0
-9.08138e-05 -0.000611825 0.00337987
0 0 0
0 0 0
9.2995e-08 3.46756e-08 1.02871e-05
-2.52515e-07 -2.15381e-07 -7.16788e-05
-7.84006e-08 -7.62406e-08 -8.39502e-06
0.00196557 0.340212 0.369632
0 0 0
2.44303e-05 3.98419e-05 0.000291008
-2.81417e-06 1.76098e-05 0.00140777
1.9219e-05 1.16419e-07 0.000867254
9.43583e-05 -0.000632903 0.00349769
0 0 0
0 0 0
-3.13923 -1.93609 21.178
-2.52905 -4.31538 22.1523
-2.18252 -2.15122 17.9096
1.31686 0.0315465 19.3216
1.33187 1.13208 14.9069
1.42353 0.396779 7.95225
-4.17751 0.763494 20.3183
-2.43205 0.802336 17.0891
-2.02028 2.51529 19.5968
0.417411 -0.5285 18.5345
-0.387748 -1.13811 2.79829
-0.0470454 -0.336328 20.0627
2.55905 -4.27825 22.135
2.19558 -2.1459 17.9103
3.1598 -1.952 21.1845
-1.16636 1.30631 14.9861
-1.45745 0.900241 8.33975
-1.38643 0.192025 19.5557
2.4418 0.79691 17.1171
2.03694 2.47441 19.6121
4.19351 0.772468 20.3232
0.205883 -0.995487 4.718
0.0681146 -0.557013 19.9435
-0.613196 -0.555879 18.8489
-0.108459 -0.843317 21.2511
0.474303 0.0592284 16.9107
0.176248 -0.265553 20.5047
0.419191 0.0122943 17.1744
-1.89407 -1.19261 21.685
-3.712 2.32752 21.8241
-0.278675 -0.574786 20.0891
-0.656253 0.145972 20.918
-0.454477 0.0492065 17.0816
0.115692 -0.837731 21.2522
-0.364133 0.0301262 17.2508
-0.166478 -0.237985 20.5686
3.71474 2.30998 21.8338
1.90596 -1.20171 21.6871
0.646025 0.162597 20.6081
0.279096 -0.580171 20.1448
-0.999917 -0.686197 20.1536
-0.673836 -0.359625 19.8267
-0.630011 -0.567817 19.6802
-0.682264 -0.62056 21.4035
-1.47901 -0.883779 20.8287
-1.55182 -1.63647 21.0453
-0.0727117 -0.264818 21.6379
-0.355352 -0.501521 21.6112
-0.114395 -0.438225 21.7146
0.37302 -0.0164095 21.7334
0.115232 -0.21688 21.7475
0.201234 -0.101217 21.8131
0.898673 0.238508 21.5819
0.806521 -0.00589219 21.731
0.961867 0.464011 21.7206
1.04252 0.235991 20.9406
1.18706 0.0882232 21.1384
1.42284 0.610558 21.5306
1.10048 0.0570608 21.4012
1.51583 0.509596 21.6423
-1.39496 -0.604046 19.9056
-0.740087 -0.149777 19.7036
-0.780789 -0.462793 19.4153
-1.00126 -0.707924 21.5037
-2.18407 -0.409075 20.6162
-0.151077 -0.410495 21.7074
-0.79096 -0.644062 21.7045
0.404685 -0.197682 21.8546
-0.0301344 -0.372335 21.8714
1.11691 -0.0914284 21.6003
0.688093 -0.452224 21.8238
1.30319 -0.019111 21.8251
1.17508 -0.445956 21.1905
1.97082 0.277124 19.8107
1.06993 -0.431627 19.5371
1.40663 -0.145371 19.5862
-1.47967 0.106167 19.6961
-0.577106 0.223062 19.7845
-0.818241 0.0959612 19.2698
-1.67613 -0.223486 21.2358
-1.41284 0.582071 20.2772
-0.627623 -0.447549 21.8231
-1.37309 0.182995 21.4578
0.0543547 -0.471468 21.8435
-0.437075 -0.158458 21.7602
0.611753 -0.626431 21.7043
0.0306297 -0.378068 21.636
0.8064 -0.523936 21.4638
0.334235 -0.592371 22.0366
1.02591 -0.852666 19.9633
0.543039 -0.535406 21.4943
0.957876 -0.78221 18.6854
-0.624327 0.416224 20.0239
-0.402813 0.357265 19.7971
-0.939543 0.596509 20.741
-0.906471 0.907953 20.1569
-0.655316 0.221658 21.5421
-1.11915 0.834565 21.3029
-0.171545 -0.0760363 21.6274
-0.385384 0.125313 21.7941
0.0562588 -0.206201 21.505
-0.0154606 -0.182484 21.6254
0.251671 -0.402408 21.3113
0.135531 -0.380988 21.5488
0.172629 -0.435425 21.039
-1.24849 -1.98377 19.3917
-0.635501 -0.714042 19.198
0.00384613 -1.00004 19.1102
-0.515476 -0.850429 22.1693
0.00593616 -4.0467 22.0172
0.0564436 -0.0497301 21.4553
0.0100686 -0.396494 20.9911
0.473624 0.472417 21.3681
0.0180268 -0.0646492 19.6364
1.17908 1.34642 20.461
0.0795106 1.10312 17.9519
1.40661 1.29108 19.0448
2.076 1.63688 17.2459
0.0798213 2.15487 17.8685
2.02469 1.20526 16.8651
0.0255076 1.35102 17.0206
-0.795078 -0.281243 18.7792
0.00379258 -0.855048 18.5601
2.60435 1.30301 14.6604
1.38375 -0.652942 6.43291
0.350873 1.40368 4.89505
1.34451 0.0353323 12.4335
0.0096477 2.00262 8.87964
-0.508869 0.465689 19.2504
0.00322342 0.2016 18.2811
1.40942 -1.38915 11.0982
0.123506 -0.74197 20.6669
-0.929917 2.33938 -5.18943
0.326527 -0.739351 20.7649
-0.101428 0.393459 4.82906
-0.552849 0.887876 19.6735
0.00701048 0.566588 19.5365
-1.04833 1.48082 20.5351
0.0207153 1.78208 19.7744
-0.75988 0.791023 21.9299
0.0104076 2.43629 21.2923
-0.23768 0.0200254 21.8187
0.00530257 0.531735 22.0406
-0.0108764 -0.27441 21.6615
0.0463607 -0.0512511 21.681
0.116863 -0.356689 21.1606
0.106242 -0.368028 21.0115
0.114827 -0.542251 21.2701
1.26373 -1.96563 19.4113
0.646915 -0.705886 19.2065
0.637006 -0.570867 19.6924
0.531259 -0.845047 22.1557
1.55189 -1.61565 21.0438
-0.0310206 -0.0444729 21.4611
0.136844 -0.440448 21.7118
-0.405651 0.50988 21.3816
-0.178378 -0.0815752 21.8314
-1.07067 1.5421 20.4117
-0.958584 0.580885 21.7548
-1.38791 1.58885 18.3115
-1.9188 1.76863 16.6438
-1.32868 0.83758 21.5774
-1.96157 1.29315 16.8362
-1.50498 0.75073 21.1654
0.80401 -0.28062 18.7854
0.78654 -0.463042 19.4179
-2.35413 1.57806 14.8886
-1.74659 -0.123654 7.4272
-2.06944 0.394739 19.7666
-1.00547 0.201444 13.1096
-1.78553 -0.605826 20.1458
0.521114 0.459129 19.262
0.822051 0.0947222 19.2803
-1.60934 -1.7249 11.5513
-0.217973 -1.08091 20.7435
-1.36425 -0.923807 19.8094
-0.522434 -1.2833 18.0294
-0.981576 -0.552914 20.6054
0.571754 0.868332 19.6907
0.408261 0.349177 19.8073
1.05914 1.44838 20.5492
0.914089 0.885915 20.1728
0.775645 0.801349 21.9463
1.12927 0.830196 21.3114
0.275937 0.00375242 21.8516
0.409375 0.129644 21.8284
0.0674195 -0.389841 21.6707
0.0370969 -0.233577 21.6094
-0.155506 -0.692386 20.9529
-0.120332 -0.474656 21.7141
-0.135644 -0.446778 21.1875
0.999142 -0.678212 20.1416
0.672427 -0.353897 19.8131
0.695508 -0.618985 21.4011
1.47843 -0.874924 20.8333
0.077415 -0.261943 21.6591
0.366301 -0.495417 21.6096
-0.380707 0.0239376 21.7869
-0.108143 -0.199583 21.7662
-0.929323 0.319161 21.543
-0.83795 0.0747551 21.7715
-1.27429 0.373113 20.8082
-1.1739 0.197474 21.2765
-1.14891 0.0759019 20.8018
1.3948 -0.598715 19.8892
0.737972 -0.147262 19.6876
1.00833 -0.709585 21.507
2.20415 -0.413528 20.6106
0.157876 -0.404274 21.7263
0.799342 -0.64 21.7138
-0.415647 -0.16291 21.9015
0.0292077 -0.362893 21.905
-1.19056 0.0239025 21.5634
-0.791543 -0.40395 21.8965
-1.20356 -0.019514 21.3823
-1.36477 -0.39443 21.4157
-1.6349 -0.183833 21.4153
1.4856 0.103596 19.698
0.572967 0.223634 19.8002
1.68492 -0.22393 21.2519
1.40586 0.572537 20.2927
0.634915 -0.4498 21.8447
1.382 0.184631 21.4693
-0.0920876 -0.472135 21.904
0.449146 -0.171366 21.7998
-0.789947 -0.638517 21.6566
-0.0738871 -0.435337 21.7544
-1.01679 -0.673631 21.4251
-0.373308 -0.696262 21.5451
-0.695548 -0.583566 20.8911
0.627438 0.405088 20.0346
0.942889 0.587015 20.7487
0.672752 0.215519 21.5575
0.184073 -0.0974035 21.7142
-0.075473 -0.279653 21.4998
-0.330766 -0.413995 21.2889
-1.22523 -0.672842 20.0283
-1.64689 -2.19728 18.7738
-1.25921 -1.23677 19.8499
-1.93791 -1.13932 19.2318
-0.711233 -0.545867 19.5495
-2.1835 -1.87272 21.1338
-0.819181 -0.685128 21.4671
-0.1002 -0.436536 19.5864
-0.596743 -0.84508 21.7447
-0.904779 -1.19877 22.0102
-0.0627126 -0.5877 21.7447
-0.0894542 -0.341594 21.6704
0.385814 0.0514746 16.8259
0.0503236 -0.250686 21.7274
0.0935758 -0.488923 20.6438
0.230943 -0.20449 21.6347
0.427275 -0.107003 21.8127
0.608952 0.379911 16.1307
0.521073 0.147328 21.8921
0.628717 -0.0751214 20.2367
1.23268 0.331297 21.1684
1.05557 0.113441 21.5598
1.6448 1.33951 16.2127
1.19632 0.637893 21.4607
1.64111 0.119642 19.6123
1.85198 0.573073 20.384
1.22784 0.095331 21.6715
2.32715 1.54691 16.0134
1.1632 0.488849 22.0416
1.98252 0.44336 18.5285
1.46123 0.182112 20.6142
-1.56305 -0.2505 19.7432
-2.70959 -0.740208 16.8727
-2.06606 0.336294 18.8474
-0.86476 -0.226132 19.26
-4.51151 -0.891671 20.7893
-1.40103 -0.593049 21.466
-2.55327 -0.582554 21.5621
-0.648645 -1.13079 20.4676
-0.340374 -0.464011 21.806
-0.809918 -0.939668 20.9157
0.122354 -0.283556 19.3833
0.29574 -0.372673 21.9177
0.11241 -0.422287 19.2716
0.981548 -0.386579 17.6354
0.980234 -0.490662 21.6254
0.318268 -1.43173 3.03857
0.532311 -0.729572 18.7699
1.62475 -0.524023 19.2928
1.1503 -0.255277 21.6417
2.36962 -0.227749 13.1742
1.29425 -1.20937 19.6162
1.27788 -0.699632 18.0483
-0.99757 0.426837 19.8413
-1.15483 1.30107 18.8962
-0.655329 0.65798 19.848
-0.604432 0.352696 19.5121
-1.91008 1.28003 20.0145
-1.51908 0.407826 20.9076
-2.41588 2.06767 20.4113
-1.07758 0.978177 20.6687
-2.17463 0.624357 21.6571
-0.864505 -0.0314231 21.7484
-1.61035 0.544515 22.0423
-0.775179 0.433741 21.7438
-0.624457 -0.079324 21.9577
-0.17192 -0.256292 21.7267
-0.288383 -0.0820533 20.3382
-0.164314 -0.0601878 21.741
-0.0768935 -0.426592 21.801
0.200618 -0.450576 21.644
0.0261558 -0.505771 20.3002
0.0402172 -0.295935 21.5154
0.25007 -0.751889 21.9164
0.445159 -0.726576 20.6057
0.390151 -0.754217 20.2984
0.220687 -0.432999 21.1156
0.404892 -0.663589 22.541
1.65804 -2.17734 18.7742
0.0069882 -2.95083 18.8677
0.00514911 -3.5388 16.1944
0.00149247 -0.967977 18.795
0.00320667 -5.72427 23.4339
0.117738 -0.446568 19.704
0.00944979 -1.18583 22.4467
0.00656863 -0.0113423 11.0931
-0.351933 0.0559519 16.9567
0.0124875 -0.223575 20.0463
0.0257827 0.0186892 11.1817
-0.512051 0.427518 16.1326
0.0373823 0.347307 18.9893
0.138924 0.918177 9.29001
-1.49891 1.64553 16.157
0.093945 1.53093 17.904
0.424638 0.302113 3.02935
0.1933 2.08528 12.6712
-1.88497 1.85635 16.3455
-0.0563543 2.42216 17.6889
0.203169 2.5241 9.04902
0.0175777 1.67682 12.9501
2.72004 -0.735718 16.8997
0.0111933 1.52366 14.9697
0.00550997 -0.372118 18.2413
-0.320051 -0.850364 3.64865
-0.166209 0.789752 -3.60913
-0.664049 1.69828 -2.5958
-2.2811 -0.0284323 12.0443
-0.868033 1.00755 -2.11855
-0.247284 2.66496 -0.184831
1.16905 1.27907 18.9148
0.0108749 1.16084 19.4295
0.00874667 0.661742 18.934
0.0254475 3.95011 19.0785
2.42788 2.03982 20.4266
0.0190461 2.15318 20.3535
0.0112284 6.15197 21.3641
1.64331 0.563359 22.0281
-0.000453857 1.3179 22.1798
0.020807 0.589237 18.7783
0.309008 -0.1259 19.9963
0.0212569 0.183865 21.8933
0.278316 -0.0539664 13.3451
0.00940379 -0.809987 20.285
0.0737876 -0.22018 21.682
0.673015 -0.0828267 16.1415
-0.241151 -1.16039 20.6443
-0.00357429 -0.653322 21.6639
0.252311 -0.84554 17.1114
1.2239 -0.665774 20.0121
1.25958 -1.22133 19.8654
1.94439 -1.13734 19.231
0.717844 -0.548054 19.548
2.18809 -1.86199 21.1324
0.826901 -0.683203 21.4641
0.612504 -0.840897 21.7366
0.909745 -1.19744 22.0139
0.0838681 -0.582863 21.7523
0.0958939 -0.333613 21.688
-0.0272611 -0.244778 21.7344
-0.0818085 -0.476291 20.6689
-0.212118 -0.181083 21.683
-0.429676 -0.0658713 21.8506
-0.496312 0.195295 21.9254
-0.632492 -0.0113919 20.3812
-1.26172 0.473699 21.2197
-1.09125 0.190614 21.5819
-1.24248 0.774569 21.4844
-1.78256 0.316758 19.6969
-1.78492 0.746824 20.1262
-1.36145 0.276973 20.9802
-1.30839 0.742756 21.7208
-1.90713 0.352767 19.6817
-1.64569 -0.131762 20.5244
1.56529 -0.252968 19.733
2.06873 0.33449 18.858
0.870315 -0.224468 19.2649
4.53582 -0.89236 20.7977
1.4093 -0.591994 21.471
2.56243 -0.588407 21.5654
0.650601 -1.13109 20.4593
0.345386 -0.463118 21.8252
0.817676 -0.941952 20.9096
-0.124793 -0.272558 19.4783
-0.327598 -0.349093 21.9769
-0.143075 -0.434509 19.3957
-1.14792 -0.259247 18.0031
-1.13207 -0.391934 21.6358
-0.875989 -0.759716 19.0812
-1.91481 -0.43606 19.5324
-1.3519 -0.3873 21.4545
-1.28337 -0.930973 20.1806
-1.13007 -0.426293 18.5367
0.993678 0.421644 19.8528
0.661166 0.642036 19.8664
0.607162 0.343755 19.5253
1.89932 1.24507 20.0286
1.51918 0.405632 20.9188
1.08594 0.961907 20.6776
2.18496 0.621376 21.6649
0.88192 -0.0353498 21.7703
0.799143 0.437226 21.7661
0.648794 -0.0906579 21.9982
0.167842 -0.287962 21.8006
0.194598 -0.0780614 21.78
0.0269969 -0.54993 21.8808
-0.267445 -0.550234 21.6635
-0.0282026 -0.372087 21.5638
-0.326784 -0.954743 22.1849
-0.538512 -0.665837 21.1746
-0.340083 -0.784417 20.5395
-0.267179 -0.858541 22.3057
-1.56778 -1.26629 19.565
-0.699248 -0.99555 21.901
0.106881 -0.35976 21.6201
0.633962 0.0481178 21.4343
1.49504 0.464852 20.9322
1.70368 0.680149 19.9028
-2.25499 -0.459453 18.8196
-1.76282 -1.15349 21.9309
-0.116404 -0.636492 19.705
0.487783 -0.191217 18.6486
1.34937 -0.566517 18.6314
2.09452 -1.08215 19.1157
-1.17836 0.78937 19.4372
-2.11544 0.973105 20.8056
-1.21688 0.14203 22.0718
-0.308332 -0.248269 21.8832
0.0708278 -0.559699 21.5972
0.463739 -0.740048 22.4216
0.00507252 -3.36903 17.8072
0.0144812 -0.470662 15.0913
0.0127476 -0.0288988 10.8472
0.0560871 0.21798 10.5016
0.206965 1.20505 10.3645
0.270014 2.40275 14.5359
0.0112008 -1.05623 14.3827
-0.30935 0.275342 -0.636413
-1.20124 3.38337 -2.78628
0.0178658 1.8834 18.2547
0.0223706 3.71094 19.6956
0.00206144 1.72362 21.2661
0.0607568 0.231662 17.4796
0.383535 -0.162611 14.8003
0.346663 -1.176 16.6014
1.5774 -1.26082 19.5609
0.71365 -0.991708 21.8957
-0.0860496 -0.349216 21.6472
-0.618304 0.108242 21.4849
-1.58625 0.647454 20.9561
-1.76955 0.607744 19.9223
2.25804 -0.459302 18.8305
1.76647 -1.15352 21.9331
0.120878 -0.632951 19.7351
-0.515663 -0.16027 18.8829
-1.60111 -0.397473 18.7859
-2.31088 -0.469099 17.9529
1.17796 0.770945 19.4579
2.11338 0.959116 20.8151
1.24088 0.143334 22.0957
0.32174 -0.290617 21.945
-0.152522 -0.715753 21.6823
-0.387859 -1.01777 22.2387
-1.58779 -0.731899 2.38664
-0.00312339 -0.0148632 0.0985818
0.0241168 -0.00665646 0.564676
0.0281937 -0.0823873 0.17093
0.0125417 0.0731082 0.188063
0.124745 -0.0121593 0.642721
-2.95579 0.158103 2.51732
-1.01842 5.29182 3.3493
-0.650562 -0.166169 2.00184
-0.132396 -0.29616 0.147174
-0.0121899 0.00485162 -0.00737777
0.000608623 0.000557275 0.0177939
0.00316711 -0.0148603 0.0983096
1.58828 -0.731691 2.38741
-0.0257678 -0.00683727 0.554227
0.0187886 0.07891 0.201341
-0.0292168 -0.0540144 0.168166
-0.117305 -0.000732149 0.704525
1.0353 5.30821 3.37144
2.93985 0.153534 2.50245
0.651524 -0.166531 1.99718
0.022505 -0.00619962 0.00241265
0.0755932 -0.17668 0.130105
-0.000714184 0.000691282 0.0188851
0.0154764 0.0148034 0.204728
0.00295472 0.00351484 0.616456
-2.7281e-19 1.59061e-18 2.04115e-16
0.0017117 0.00010236 0.0131377
0.0189259 0.0127839 1.10208
0.00343752 -0.00356515 0.417833
0 0 0
0.000790805 0.000101865 0.0151449
-0.171678 -0.135204 0.345973
0.000325683 0.00244762 0.0183704
0 0 0
-0.23519 0.389188 0.786121
0.000127331 0.000205895 0.00187093
0.00023211 0.00112263 0.00802883
0 0 0
0.0321172 0.0147253 0.336648
-0.0148051 0.0145878 0.202484
-0.00164202 0.000101112 0.0131055
-0.0013282 0.00503405 0.622774
0 0 0
-0.00458844 0.0185922 1.10605
-0.000640069 0.000101201 0.0151134
-0.00034571 -0.00139282 0.418583
0 0 0
0.173703 -0.135147 0.344881
0.241045 0.400029 0.804454
-0.000342876 0.00257361 0.0192055
6.24507e-18 -1.60272e-17 -4.52955e-17
-0.000323588 0.000521368 0.0047661
-0.027864 0.0140058 0.34849
-0.000216271 0.00104105 0.00718483
0 0 0
-3.52012e-05 -5.4948e-05 0.000615818
-0.386151 -0.241536 0.146527
-4.27414e-08 -5.69287e-08 1.30528e-05
-0.00270357 -0.447637 0.147969
-5.87223e-05 -0.0011398 0.0102059
-7.91411e-07 -4.29969e-09 -5.70349e-06
0.000184842 -0.000192637 0.00585171
0.000766332 -0.00534608 0.000174213
0 0 0
0.136416 -0.226412 0.143119
6.19661e-05 -8.637e-05 0.00518958
3.01308e-05 6.07823e-06 0.000622135
-0.00154971 1.88253 0.272356
1.54841e-05 0.00265371 0.0144269
-0.0115443 -0.035069 0.128435
-0.00743268 0.000128203 0.00456676
0.000580823 -0.00103033 9.25192e-05
0.00322874 -0.00154391 0.0500546
0.000593395 0.000678316 0.0217667
0.000295462 9.50802e-06 0.00672668
0.385875 -0.237976 0.146533
0.000121509 -0.000190456 0.00211428
6.84403e-07 -2.89869e-09 -4.99613e-06
5.64556e-05 -0.00107351 0.00966788
0.00180705 -0.00204943 7.78593e-05
-0.000220653 -2.21312e-05 0.00663756
-2.40367e-05 7.54962e-06 0.00076168
-5.8178e-05 1.26862e-06 0.00533499
0.00770904 0.000131635 0.00472806
0.011401 -0.0345582 0.126674
-5.5333e-05 -2.51793e-06 0.00691865
-0.000680331 0.000932106 0.0230407
-0.00017581 0.000683137 0.00863274
0.00142187 9.66597e-05 0.021762
-0.00561131 -0.0168879 0.161595
0 0 0
0 0 0
-6.50081e-08 -9.4549e-08 -2.29118e-05
0 0 0
0.00109186 0.0020073 0.0444598
-4.01363e-08 -2.36019e-08 -9.27698e-06
-3.3681e-08 -2.41736e-08 -4.83373e-06
0.000338947 0.001846 0.00784255
0.0565657 0.0183256 0.50757
0.000287439 0.0641946 0.0957662
8.05424e-05 0.00149165 0.0145943
-1.33877e-06 5.09569e-06 0.000921372
1.38215e-05 1.55412e-06 0.00142465
-0.00127044 9.49443e-05 0.021681
0.000186594 0.000730154 0.00881659
0.00562118 -0.0167811 0.161483
0 0 0
0 0 0
-0.00114362 0.00244271 0.0462382
-0.0481266 0.0208975 0.377931
-0.000319803 0.00175883 0.0075201