# vtk DataFile Version 2.0
tet_velo
ASCII
DATASET UNSTRUCTURED_GRID
POINTS 29498 float
-0.695 0.125 -2.04054
-0.665 0.285 2.03903
-0.705 0.691878 -1.845
-0.578869 0.975 2.045
0.695 0.125 -2.04054
0.665 0.285 2.03903
0.705 0.691878 -1.845
0.57887 0.975 2.045
-0.751559 0.111774 -0.680683
-0.774027 0.13264 0.679174
-0.75559 0.878886 -0.548333
-0.732571 0.992285 0.748334
0.751543 0.11179 -0.680683
0.773992 0.132675 0.679174
0.755585 0.87888 -0.548333
0.732611 0.992323 0.748334
-1.43086 -0.313253 -3.16499
-1.43689 -0.251481 -2.10241
-1.4755 -0.254187 -0.740924
-1.47752 -0.241392 0.633284
-1.40539 -0.137288 1.99585
-1.38615 -0.0647731 3.06367
-1.39587 -0.00888589 4.12178
-1.43056 0.0282275 -3.08994
-1.43599 0.112012 -2.03426
-1.48454 0.131514 -0.685069
-1.47394 0.148401 0.669814
-1.36044 0.24285 2.02022
-1.35734 0.313098 3.08715
-1.38199 0.369222 4.14732
-1.4354 0.669455 -2.9221
-1.443 0.750685 -1.86381
-1.48464 0.890665 -0.557693
-1.44305 0.970886 0.743948
-1.30483 0.984978 2.05128
-1.32843 1.05172 3.12082
-1.37214 1.11858 4.19118
-1.44518 1.74603 -2.71785
-1.4516 1.84502 -1.66902
-1.46465 2.0035 -0.383393
-1.45731 2.1265 0.888617
-1.42604 2.18313 2.17491
-1.41294 2.2226 3.22511
-1.41814 2.27337 4.28857
-0.706544 -0.306689 -3.16907
-0.700887 -0.2414 -2.10836
-0.735493 -0.263896 -0.740126
-0.759211 -0.251749 0.641272
-0.713617 -0.116107 2.00981
-0.701013 -0.0500563 3.07314
-0.708914 -0.00177379 4.12727
-0.707771 0.0279074 -3.09119
-0.683313 0.328249 3.09497
-0.701529 0.375701 4.15146
-0.711799 0.645297 -2.91428
-0.660471 1.0518 3.11956
-0.69728 1.11968 4.19092
-0.717251 1.72888 -2.71012
-0.720214 1.82852 -1.66051
-0.735687 1.99987 -0.378262
-0.746291 2.13251 0.888001
-0.736504 2.18524 2.17051
-0.728383 2.22191 3.22072
-0.731614 2.27255 4.28538
0.722158 -0.306685 -3.16907
0.726942 -0.241395 -2.10836
0.756259 -0.263879 -0.740126
0.748419 -0.251722 0.641272
0.674934 -0.116096 2.00981
0.661183 -0.0500462 3.07314
0.659968 -0.00176126 4.12727
0.711267 0.0279097 -3.09119
0.644386 0.328255 3.09497
0.649881 0.375712 4.15146
0.712967 0.645299 -2.91428
0.614358 1.05181 3.11956
0.635105 1.11969 4.19092
0.732839 1.72889 -2.71012
0.736606 1.82853 -1.66051
0.726719 1.99988 -0.378262
0.685964 2.13252 0.888001
0.640839 2.18526 2.17051
0.632601 2.22192 3.22072
0.635633 2.27257 4.28538
1.44439 -0.313243 -3.16499
1.45183 -0.251468 -2.10241
1.48958 -0.254156 -0.740924
1.48179 -0.241344 0.633284
1.39606 -0.137258 1.99584
1.36243 -0.064748 3.06367
1.3566 -0.00885925 4.12178
1.43292 0.0282347 -3.08994
1.43415 0.112019 -2.03426
1.48621 0.131542 -0.685069
1.48551 0.148454 0.669814
1.37388 0.242874 2.02022
1.33946 0.313119 3.08715
1.34158 0.369247 4.14733
1.43462 0.669461 -2.9221
1.43925 0.750687 -1.86381
1.48329 0.890679 -0.557693
1.45033 0.970939 0.743948
1.31326 0.985003 2.05128
1.30203 1.05174 3.12082
1.32088 1.11861 4.19118
1.45713 1.74604 -2.71785
1.46197 1.84504 -1.66902
1.45466 2.00352 -0.383394
1.40898 2.12654 0.888617
1.34886 2.18316 2.17491
1.32946 2.22263 3.22511
1.32957 2.2734 4.28857
-0.728521 0.408439 -1.97129
0 0.115612 -2.04993
-0.732938 0.108728 -1.36061
-0.656089 0.63 2.07617
0 0.22002 2.10401
-0.763369 0.164964 1.3591
0 0.764581 -1.9177
-0.755403 0.81049 -1.19667
5.06639e-07 0.979981 2.04998
-0.688582 1.0165 1.39667
0.728719 0.408439 -1.97149
0.732948 0.108718 -1.36061
0.656106 0.63 2.07619
0.76338 0.164953 1.3591
0.755389 0.810476 -1.19667
0.688591 1.01651 1.39667
-0.763017 0.121983 -0.000754952
-0.867357 0.49533 -0.614508
-8.20283e-06 0.0736461 -0.680683
-0.876045 0.562462 0.713754
-1.73224e-05 0.0992035 0.679174
-0.75897 0.950475 0.1
-2.66023e-06 1.1498 -0.548333
1.97833e-05 1.31282 0.748334
0.763012 0.121988 -0.000754952
0.867357 0.495335 -0.614508
0.876042 0.562499 0.713754
0.758911 0.950415 0.1
-0.857549 0.451884 -1.27864
-0.878609 0.528896 0.0496225
-0.879272 0.596231 1.37788
-4.10142e-06 0.0798466 -1.36061
-1.27626e-05 0.0926934 -0.000754952
-8.66118e-06 0.111762 1.3591
0 0.408439 -2.23141
2.5332e-07 0.63 2.18574
-1.33011e-06 0.900628 -1.19667
8.56152e-06 1.31805 0.1
1.0145e-05 1.14096 1.39667
0.857551 0.451887 -1.27864
0.878588 0.528917 0.0496225
0.879038 0.59625 1.37788
-1.06549 0.118506 -2.0374
-0.697944 -0.0582001 -2.07445
-0.701386 0.0764537 -2.56587
-1.01272 0.263925 2.02962
-0.689308 0.0844467 2.02442
-0.674157 0.306624 2.567
-1.074 0.721282 -1.85441
-0.708399 0.668587 -2.37964
-0.712607 1.2602 -1.75276
-0.941851 0.979989 2.04814
-0.61967 1.0134 2.58228
-0.657686 1.58012 2.10776
0.710971 -0.0581976 -2.07445
0.703134 0.0764548 -2.56587
1.06457 0.118509 -2.0374
0.669967 0.084452 2.02442
0.654693 0.306628 2.567
1.01944 0.263937 2.02962
0.708984 0.668588 -2.37964
0.720803 1.2602 -1.75276
1.07212 0.721283 -1.85441
0.596614 1.0134 2.58228
0.609855 1.58013 2.10776
0.946067 0.980002 2.04814
-1.11805 0.121644 -0.682876
-0.743526 -0.0760608 -0.710405
-1.12398 0.140521 0.674494
-0.766619 -0.0595547 0.660223
-1.12011 0.884776 -0.553013
-0.745639 1.43938 -0.463298
-1.08781 0.981585 0.746141
-0.739431 1.5624 0.818167
0.753901 -0.0760443 -0.710405
1.11887 0.121666 -0.682876
0.761206 -0.0595238 0.660223
1.12975 0.140564 0.674494
0.741152 1.43938 -0.463298
1.11944 0.88478 -0.553013
0.709287 1.56242 0.818167
1.09147 0.981631 0.746141
-1.43388 -0.282367 -2.6337
-1.43071 -0.142513 -3.12747
-1.0687 -0.309971 -3.16703
-1.45619 -0.252834 -1.42167
-1.43644 -0.0697343 -2.06834
-1.06889 -0.246441 -2.10539
-1.47651 -0.247789 -0.0538199
-1.48002 -0.0613361 -0.712996
-1.1055 -0.259041 -0.740525
-1.44146 -0.18934 1.31456
-1.47573 -0.0464951 0.651549
-1.11837 -0.24657 0.637278
-1.39577 -0.10103 2.52976
-1.38291 0.0527811 2.00803
-1.0595 -0.126697 2.00283
-1.39101 -0.0368295 3.59273
-1.37174 0.124162 3.07541
-1.04358 -0.0574147 3.06841
-1.38893 0.180168 4.13455
-1.05239 -0.00532984 4.12452
-1.43328 0.07012 -2.5621
-1.43298 0.348841 -3.00602
-1.06917 0.0280674 -3.09057
-1.46027 0.121763 -1.35967
-1.43949 0.431349 -1.94904
-1.47924 0.139958 -0.00762749
-1.48459 0.51109 -0.621381
-1.41719 0.195626 1.34502
-1.4585 0.559644 0.706881
-1.35889 0.277974 2.55369
-1.33264 0.613914 2.03575
-1.36967 0.34116 3.61724
-1.34288 0.68241 3.10399
-1.02033 0.320673 3.09106
-1.37707 0.743901 4.16925
-1.04176 0.372461 4.14939
-1.4392 0.71007 -2.39295
-1.44029 1.20774 -2.81997
-1.0736 0.657376 -2.91819
-1.46382 0.820675 -1.21075
-1.4473 1.29785 -1.76642
-1.46384 0.930776 0.0931275
-1.47465 1.44708 -0.470543
-1.37394 0.977932 1.39761
-1.45018 1.54869 0.816282
-1.31663 1.01835 2.58605
-1.36544 1.58405 2.11309
-1.35029 1.08515 3.656
-1.37069 1.63716 3.17297
-0.99445 1.05176 3.12019
-1.39514 1.69597 4.23988
-1.03471 1.11913 4.19105
-1.44839 1.79553 -2.19344
-1.08122 1.73746 -2.71398
-1.45813 1.92426 -1.02621
-1.08591 1.83677 -1.66477
-1.46098 2.065 0.252612
-1.10017 2.00168 -0.380828
-1.44167 2.15481 1.53176
-1.1018 2.1295 0.888309
-1.41949 2.20286 2.70001
-1.08127 2.18418 2.17271
-1.41554 2.24798 3.75684
-1.07066 2.22225 3.22291
-1.07488 2.27296 4.28698
-0.703716 -0.274045 -2.63871
-0.707158 -0.139391 -3.13013
0.00780673 -0.306687 -3.16907
-0.71819 -0.252648 -1.42424
0.0130274 -0.241398 -2.10836
-0.747352 -0.257822 -0.0494268
0.0103829 -0.263887 -0.740126
-0.736414 -0.183928 1.32554
-0.0053958 -0.251736 0.641272
-0.707315 -0.0830815 2.54148
-0.0193414 -0.116101 2.00981
-0.704963 -0.025915 3.6002
-0.692163 0.139096 3.08405
-0.0199146 -0.0500512 3.07314
-0.705221 0.186964 4.13936
-0.0244728 -0.00176753 4.12727
-0.709785 0.336602 -3.00274
0.00174809 0.0279085 -3.09119
-0.692421 0.351975 3.62321
-0.671892 0.690025 3.10727
-0.0194636 0.328252 3.09497
-0.699404 0.74769 4.17119
-0.0258237 0.375707 4.15146
-0.714525 1.18709 -2.8122
0.000584116 0.645298 -2.91428
-0.678876 1.08574 3.65524
-0.694427 1.63685 3.17014
-0.0230567 1.0518 3.11956
-0.714447 1.69612 4.23815
-0.0310876 1.11969 4.19092
-0.718733 1.7787 -2.18532
0.00779368 1.72889 -2.71012
-0.727951 1.9142 -1.01939
0.00819583 1.82853 -1.66051
-0.740989 2.06619 0.254869
-0.00448413 1.99987 -0.378262
-0.741398 2.15887 1.52926
-0.0301637 2.13252 0.888001
-0.732443 2.20357 2.69561
-0.0478323 2.18525 2.17051
-0.729998 2.24723 3.75305
-0.0478907 2.22191 3.22072
-0.0479907 2.27256 4.28538
0.72455 -0.27404 -2.63871
0.716713 -0.139387 -3.13013
1.08327 -0.309964 -3.16703
0.7416 -0.252637 -1.42424
1.08938 -0.246432 -2.10539
0.752339 -0.257801 -0.0494268
1.12292 -0.259017 -0.740525
0.711677 -0.183909 1.32554
1.11511 -0.246533 0.637278
0.668059 -0.0830711 2.54148
1.0355 -0.126677 2.00283
0.660576 -0.0259037 3.60021
0.652785 0.139105 3.08405
1.01181 -0.0573971 3.06841
0.654925 0.186976 4.13936
1.00828 -0.00531025 4.12452
0.712117 0.336604 -3.00274
1.0721 0.0280722 -3.09057
0.647134 0.351984 3.62321
0.629372 0.690032 3.10727
0.991924 0.320687 3.09106
0.642493 0.747702 4.17119
0.99573 0.37248 4.14939
0.722903 1.18709 -2.8122
1.07379 0.65738 -2.91819
0.624732 1.08575 3.65524
0.62348 1.63687 3.17014
0.958196 1.05178 3.12019
0.635369 1.69613 4.23815
0.977994 1.11915 4.19105
0.734722 1.77871 -2.18532
1.09499 1.73747 -2.71398
0.731662 1.9142 -1.01939
1.09929 1.83678 -1.66477
0.706342 2.0662 0.254869
1.09069 2.0017 -0.380828
0.663402 2.15889 1.52926
1.04747 2.12953 0.888309
0.63672 2.20359 2.69561
0.994852 2.18421 2.17271
0.634117 2.24724 3.75305
0.98103 2.22228 3.22291
0.982603 2.27298 4.28698
1.44811 -0.282356 -2.6337
1.43866 -0.142504 -3.12746
1.4707 -0.252812 -1.42167
1.44299 -0.0697249 -2.06834
1.48569 -0.24775 -0.0538199
1.48789 -0.0613067 -0.712996
1.43892 -0.189301 1.31456
1.48365 -0.0464451 0.651549
1.37924 -0.101003 2.52976
1.38497 0.0528083 2.00803
1.35951 -0.0368036 3.59273
1.35095 0.124186 3.07541
1.34909 0.180194 4.13455
1.43354 0.0701267 -2.5621
1.43377 0.348848 -3.00602
1.46018 0.12178 -1.35967
1.4367 0.431353 -1.94904
1.48586 0.139998 -0.00762757
1.48475 0.511111 -0.621381
1.4297 0.195664 1.34502
1.46792 0.559696 0.706881
1.35667 0.277997 2.55369
1.34357 0.613939 2.03575
1.34052 0.341183 3.61724
1.32075 0.682432 3.10399
1.33123 0.743926 4.16925
1.43693 0.710074 -2.39295
1.44588 1.20775 -2.81997
1.46127 0.820683 -1.21075
[...]
POINT_DATA 29498
VECTORS point_vectors float
-0.466565 -1.5165 2.85533
0.154023 0.0704899 0.303069
-1.42076 0.908491 2.49689
-0.239392 -0.125534 0.221399
0.467649 -1.51519 2.85335
-0.157513 0.0705923 0.294099
1.34163 0.85106 2.33911
0.286444 -0.164136 0.269765
0.00165947 0.00100086 0.0948331
0.0045412 0.0109341 0.511003
0 0 0
0.00381063 0.00642582 0.029222
-0.00180853 0.000980862 0.0942968
-0.00511863 0.0119665 0.529514
0 0 0
-0.00397188 0.0066956 0.0305347
-0.550613 -0.299279 19.8331
-1.22078 -0.84697 20.4357
-0.415172 -0.497856 21.4038
0.16553 -0.139644 21.5561
0.810398 0.200099 21.466
1.15726 0.282483 21.0686
0.987033 0.149715 20.6166
-0.740922 -0.262669 19.7092
-1.83999 -0.772403 20.4203
-0.669797 -0.631816 21.4864
0.108575 -0.345263 21.6808
1.13001 -0.095939 21.4472
1.37872 -0.0356278 20.9999
1.04556 0.029612 20.8505
-0.978108 0.133758 19.5706
-2.1984 0.237825 20.4462
-1.31852 -0.28531 21.4725
-0.296332 -0.401474 21.7834
0.568852 -0.823961 21.4972
0.902906 -0.899101 21.1562
0.696923 -0.691996 20.4441
-0.615207 0.469631 19.9772
-0.899203 0.679222 20.477
-0.761135 0.441535 21.1572
-0.248707 -0.0149368 21.4457
0.0369884 -0.280712 21.2745
0.164253 -0.391609 21.0152
0.117996 -0.445586 20.7656
-0.512576 -0.649681 19.3789
-1.46597 -3.06822 20.5441
-0.169928 -0.462389 21.9806
0.191912 0.214542 21.6095
0.667425 1.35509 19.0628
1.10582 1.71057 18.4773
0.935961 1.36629 19.36
-0.743721 -0.58286 18.9399
1.93894 1.1977 9.62232
2.15635 0.848693 12.917
-1.15239 0.327936 18.2873
0.19588 -1.00595 7.5969
0.688391 -1.36111 12.6864
-0.539685 0.965921 19.6037
-0.888721 1.51122 20.2879
-0.886545 1.31815 21.342
-0.271885 0.148525 21.6851
-0.0695479 -0.289183 21.3743
0.0599538 -0.438262 20.9175
0.00786136 -0.308324 20.9853
0.52221 -0.636322 19.3975
1.4985 -2.95954 20.5503
0.17378 -0.459432 21.9804
-0.181419 0.225107 21.5789
-0.58879 1.36942 18.8141
-1.01748 1.70507 18.1179
-0.905501 1.50701 19.1074
0.748522 -0.582409 18.9453
-1.86631 1.15696 8.80555
-2.26605 1.039 11.6904
1.15361 0.329068 18.2931
-0.0776213 -0.91574 5.89534
-0.596717 -1.35656 10.8908
0.550341 0.95162 19.6138
0.902 1.49323 20.2933
0.885169 1.3331 21.3422
0.270188 0.167671 21.7064
0.0805439 -0.268242 21.3833
-0.0504286 -0.434651 20.8697
-0.0574009 -0.304754 21.1814
0.545173 -0.295228 19.8418
1.20648 -0.829963 20.443
0.429065 -0.494731 21.3969
-0.1595 -0.145694 21.5507
-0.804342 0.197451 21.4659
-1.1842 0.300984 21.0452
-0.996887 0.196391 20.6938
0.744615 -0.260789 19.7032
1.8462 -0.776296 20.417
0.670349 -0.632247 21.4838
-0.104465 -0.342442 21.6618
-1.10667 -0.104473 21.4505
-1.40695 -0.0319859 20.9929
-1.10705 -0.0154955 20.7887
0.974667 0.134593 19.5672
2.20969 0.24159 20.4444
1.32059 -0.285999 21.4722
0.294964 -0.398054 21.7766
-0.562666 -0.813263 21.523
-0.927168 -0.937996 21.1497
-0.777478 -0.793661 20.2857
0.614075 0.462227 19.9846
0.89498 0.670157 20.4815
0.764943 0.448206 21.1608
0.256648 -0.00961811 21.4611
-0.0196948 -0.297121 21.2702
-0.148163 -0.397269 20.9597
-0.0570522 -0.367347 20.9053
-0.501861 0.02104 0.564627
5.52095e-05 -0.0135547 0.084377
-0.00452647 0.000552027 0.0919973
-0.0104136 -0.0560246 0.00919497
7.66865e-05 0.0210098 0.0755597
0.00246684 0.0346691 0.811992
-3.09311e-06 0.0209031 0.0570091
-0.255304 -0.106057 0.515172
0.00193731 0.0136239 -0.0389982
0.00471422 -0.00544712 0.0675776
0.52569 0.0160659 0.592933
0 0 0
0.0109843 -0.0570387 0.00915451
-0.00453606 0.0336748 0.812488
0.255748 -0.105776 0.515768
-0.00473966 -0.00534789 0.0672009
-0.0010724 0.00239004 0.12111
-0.000979573 -0.00031433 0.0378504
0 0 0
0.00122228 0.0113163 0.0677876
0.000605559 0.00301108 0.145232
0.00427257 0.0543659 0.172244
0.000591315 0.0272495 0.0618132
-1.07886e-05 -0.00339413 0.0493047
0.000972357 0.00239698 0.121035
0.000950365 -0.000361303 0.0370402
-0.0012201 0.0113027 0.0675025
-0.00402578 0.0528347 0.169213
0 0 0
-0.000292504 0.00620024 0.080481
0.0223818 0.0180928 0.177965
4.25454e-05 -0.000228145 0.0067895
-2.64999e-05 0.000129595 0.00750635
0.000731356 0.00274121 0.0626647
-0.000198094 0.151032 0.120581
0 0 0
-0.000940921 0.0169891 0.24563
-1.81733e-06 0.00895675 0.12885
2.30378e-06 0.00078071 -0.00222109
0 0 0
0.000287607 0.00614947 0.080041
-0.0210156 0.0168087 0.166818
-3.5991 -2.17683 20.1663
-2.31123 -5.0431 20.917
-2.11251 -1.84653 17.7216
1.58512 0.640552 15.9401
0.520245 1.33717 10.5833
1.32641 0.529622 6.10218
-4.3105 1.03852 20.3852
-3.56831 1.81862 16.5934
-2.01792 2.6478 20.1126
0.693837 -0.794481 15.2284
-0.721981 -0.886894 3.80745
-0.223245 -0.577898 20.8121
2.41306 -4.92381 20.7975
2.11481 -1.8399 17.7324
3.61357 -2.18985 20.1588
-0.461161 1.29579 10.1436
-1.24522 0.461076 5.676
-1.5835 0.616559 16.2213
3.56946 1.8182 16.5979
2.02788 2.61809 20.1202
4.32425 1.05306 20.3841
0.76177 -0.861139 3.37054
0.227381 -0.542744 20.4871
-0.699483 -0.798931 15.4113
-0.410164 -1.01477 20.9886
0.0159824 -0.0928812 17.6242
0.328308 -0.225004 19.5277
0.195676 0.33036 16.1504
-2.1965 -0.757257 21.5482
-2.79866 2.21505 21.6046
-0.347988 -0.472579 20.376
-0.600942 0.0242742 22.2057
-0.0184636 -0.0908308 17.733
0.407586 -1.01765 21
-0.191907 0.335156 16.0422
-0.328193 -0.243583 19.6619
2.80243 2.2376 21.6021
2.19712 -0.759009 21.531
0.566903 0.0297836 22.0104
0.356716 -0.480434 20.4466
-0.918141 -0.562405 19.9603
-0.640155 -0.291176 19.786
-0.572901 -0.465983 19.6181
-0.866828 -0.741796 21.1563
-1.50328 -0.864526 20.4323
-1.55351 -1.67954 20.4492
-0.0975761 -0.307661 21.5098
-0.539126 -0.5819 21.4441
-0.234877 -0.603846 21.6348
0.468033 0.0269957 21.6256
0.139906 -0.246495 21.5932
0.292228 -0.0506655 21.6956
0.973201 0.245163 21.29
0.979341 0.101474 21.5104
1.07939 0.728418 21.1678
1.06202 0.318223 21.1182
1.31491 0.130869 21.0585
1.44017 0.820416 20.6421
1.02153 0.0906621 20.7504
1.01358 0.468226 21.2395
-1.31193 -0.490451 19.793
-0.901025 -0.140853 19.5922
-0.806191 -0.429236 19.3778
-1.28082 -0.778619 21.3154
-2.25997 -0.354908 20.4463
-0.247871 -0.498276 21.6018
-1.01348 -0.573797 21.5073
0.55014 -0.198268 21.7452
-0.0809828 -0.457288 21.7835
1.28471 -0.0921846 21.2571
1.03379 -0.576102 21.404
1.43162 -0.192742 20.7991
1.22358 -0.656497 21.0637
2.04032 0.307438 18.2041
1.03241 -0.607752 20.3659
1.54296 -0.192505 19.9383
-1.70167 0.232272 19.7253
-0.835595 0.417117 19.7432
-1.17151 0.198143 19.036
-1.77009 -0.0920802 21.1739
-1.47384 0.714344 20.422
-0.80427 -0.373715 21.7303
-1.20399 0.271814 21.3284
0.228509 -0.560437 21.7747
-0.353785 -0.140609 21.6174
0.685657 -0.857247 21.4485
0.125516 -0.512305 21.3628
0.831837 -0.815129 20.7094
0.269569 -0.585858 21.0543
0.970618 -1.04099 19.2034
0.241604 -0.475222 20.9735
1.06367 -1.27261 19.4141
-0.790462 0.621311 20.1707
-0.64003 0.708708 19.7957
-0.911608 0.610328 20.8615
-0.964449 1.05779 20.3981
-0.514333 0.213666 21.3707
-0.894813 0.779 21.2481
-0.0697923 -0.176208 21.3083
-0.290581 0.0481906 21.5565
0.0749062 -0.33138 21.1171
-0.0186321 -0.313812 21.2984
0.0930932 -0.34843 20.9684
0.111923 -0.446523 20.8664
0.00265893 -0.325432 20.9848
-1.05142 -1.56209 19.1919
-0.631956 -0.642939 19.1272
0.00715358 -0.851591 19.1105
-0.594085 -1.30362 22.01
0.0255167 -3.99289 21.0908
0.0489311 -0.0579335 21.7631
0.000596193 -0.610912 22.0073
0.387746 0.676454 20.4083
0.00295106 0.0572313 20.5025
0.889982 1.54496 18.8371
0.0059157 1.04401 15.6718
1.3078 1.68575 18.6111
1.57327 1.65743 14.6915
0.00526863 1.37531 14.7271
1.57761 1.16403 15.8156
0.0429398 2.27013 16.0611
-1.02796 -0.254671 18.4207
0.000430844 -0.818015 18.4134
2.28769 1.06631 11.3125
1.47809 -0.403053 6.69816
0.0350552 0.253136 1.82246
1.94464 0.00675069 12.0509
0.112978 2.36464 7.43999
-0.897397 1.00698 18.9455
0.00103448 0.557676 17.2553
0.550393 -1.07794 10.3638
-0.106121 -0.828454 20.8319
0.0236078 1.66855 -6.359
-0.0346283 -0.899454 19.8345
-0.00129763 0.575354 -1.75352
-0.73474 1.34627 19.8776
0.00650537 1.21259 19.4061
-0.974683 1.5311 20.7434
0.012268 2.0326 20.1479
-0.563345 0.717427 21.7468
-0.0088276 1.98568 21.3824
-0.129865 -0.149241 21.5044
-0.0110663 0.320859 21.7827
-0.024527 -0.391332 21.3187
-0.00020898 -0.205722 21.3172
0.0189636 -0.524284 20.4483
0.0137784 -0.474159 20.7123
-0.000184418 -0.217401 21.1174
1.06292 -1.53196 19.235
0.639293 -0.629754 19.15
0.57252 -0.45978 19.6308
0.620696 -1.31548 21.9695
1.54982 -1.63048 20.4473
-0.0457712 -0.0563133 21.7717
0.250644 -0.609546 21.6211
-0.362485 0.692133 20.3184
-0.293004 -0.0469294 21.6965
-0.813116 1.58216 18.6558
-1.07398 0.783058 21.0878
-1.26339 1.77426 18.296
-1.4803 1.65172 14.3251
-1.44383 0.865086 20.6397
-1.5539 1.31591 15.5403
-1.04364 0.525212 21.1763
1.03235 -0.25365 18.4234
0.812166 -0.435771 19.3759
-2.28546 1.16959 10.6273
-1.29405 -0.24689 5.44117
-2.07398 0.393581 17.7236
-1.8591 0.0146793 10.4039
-1.59981 -0.120755 19.3818
0.900337 0.995256 18.9565
1.16879 0.197624 19.0357
-0.462115 -1.04009 8.58679
0.218634 -0.765542 20.6094
-0.967699 -1.06089 18.2873
0.0295989 -0.920013 19.7648
-1.04915 -1.32501 19.2562
0.746802 1.32891 19.8856
0.643661 0.700974 19.803
0.97743 1.52459 20.7441
0.966762 1.04038 20.4036
0.550681 0.747111 21.7595
0.897212 0.78804 21.2493
0.138515 -0.13248 21.4993
0.296123 0.0631387 21.5756
0.0361222 -0.374727 21.2936
0.0349902 -0.313053 21.3212
-0.000864845 -0.526695 20.5163
-0.104597 -0.453104 20.857
0.00594015 -0.317313 20.9518
0.907233 -0.54831 19.9652
0.641654 -0.287004 19.7863
0.868638 -0.726188 21.1497
1.49386 -0.849118 20.4344
0.107479 -0.310421 21.5069
0.542589 -0.578871 21.4401
-0.463124 0.019384 21.6186
-0.136481 -0.250736 21.5766
-0.989904 0.260605 21.2871
-0.973569 0.094945 21.5067
-1.11457 0.362364 21.0665
-1.34157 0.14566 21.0359
-1.02933 0.130615 20.8258
1.3127 -0.488939 19.7905
0.897513 -0.139567 19.5917
1.2834 -0.779829 21.3144
2.27225 -0.355414 20.443
0.24959 -0.494696 21.5916
1.01022 -0.575109 21.506
-0.542389 -0.19744 21.7409
0.0825182 -0.451726 21.7824
-1.28613 -0.0949818 21.2534
-1.01521 -0.568144 21.4199
-1.49527 -0.163047 20.6038
-1.25913 -0.666149 21.0382
-1.10565 -0.701451 20.2236
1.70371 0.233803 19.7197
0.835348 0.413108 19.7481
1.77532 -0.0924866 21.1745
1.4716 0.710186 20.4246
0.802735 -0.370818 21.7266
1.21289 0.276376 21.3335
-0.22849 -0.553469 21.7639
0.361237 -0.14036 21.6358
-0.683839 -0.867579 21.4608
-0.121117 -0.528493 21.3705
-0.843088 -0.862725 20.6496
-0.251581 -0.617046 21.1083
-0.202253 -0.470472 21.0683
0.787248 0.613657 20.1772
0.911677 0.609578 20.8632
0.524044 0.225501 21.388
0.0819353 -0.180214 21.3418
-0.0653801 -0.341146 21.1204
-0.0563844 -0.313411 21.081
-1.09706 -0.572475 19.896
-1.49792 -1.82345 18.6272
-1.08186 -0.998897 19.6472
-1.80152 -0.974049 19.1215
-0.694084 -0.457346 19.4832
-2.34801 -2.05459 20.3605
-1.05523 -0.783451 21.2338
-0.492658 -0.763998 19.4784
-0.810954 -1.15688 21.5254
-1.37657 -1.59764 21.9599
-0.231216 -0.816767 21.6971
-0.162367 -0.416625 21.5359
0.156941 0.179755 16.3291
0.0782611 -0.299065 21.6504
0.0496988 -0.555902 19.8727
0.388638 -0.155029 21.2858
0.511896 -0.08084 21.6916
0.354959 0.614387 13.9393
0.620795 0.27342 21.6473
0.716508 0.235224 18.0859
1.39627 0.799878 19.2995
1.18009 0.0972607 21.2624
1.03313 1.45189 12.3758
1.29028 0.779243 20.8374
1.78765 0.432928 17.3421
1.7882 0.623546 19.5815
1.32237 0.0222516 20.7887
1.79149 1.40252 15.0038
1.59743 0.960721 20.7063
2.00193 0.268258 18.687
1.26173 0.169241 20.6228
-1.6364 -0.217575 19.6964
-3.35866 -0.527868 16.3096
-2.62393 0.658895 18.8227
-1.0459 -0.172149 19.1374
-5.02774 -0.636873 20.2298
-1.62074 -0.51973 21.3189
-2.79937 -0.221134 21.6233
-1.03891 -1.12077 20.5512
-0.519261 -0.542989 21.7137
-1.28249 -0.781652 21.3438
0.0904018 -0.232804 17.8855
0.478286 -0.455726 21.7487
0.495054 -0.393161 18.3088
1.37548 -0.306801 12.9736
1.1547 -0.622603 21.2448
0.345007 -0.964981 2.96821
0.684553 -1.00076 17.6742
1.71444 -0.589957 17.56
1.11632 -0.568129 21.2427
1.95085 -0.205824 9.23508
0.958792 -1.23004 19.722
1.52258 -0.835853 19.0822
-1.2423 0.651648 19.9516
-1.60437 2.13169 19.0634
-0.850913 0.961277 20.0336
-0.953894 0.663135 19.3851
-1.94273 1.43221 20.3022
-1.42172 0.49683 20.9204
-2.2898 2.17543 20.5284
-1.02333 0.986494 20.8283
-1.83696 0.745777 21.4981
-0.793626 0.0656175 21.5981
-1.65427 0.978316 22.451
-0.606571 0.418534 21.5755
-0.489635 -0.0963148 21.8855
-0.0340784 -0.360125 21.5251
-0.248989 -0.464996 21.5461
-0.117953 -0.180537 21.4161
-0.0130364 -0.630021 21.4773
0.215551 -0.566336 21.2247
-0.18081 -0.708921 20.9837
0.0278298 -0.379443 21.1842
0.145377 -0.739035 21.421
0.477606 -0.513909 20.6431
0.0916596 -0.870496 19.7968
0.0666437 -0.431388 21.1235
0.0866967 -0.632966 20.9223
1.4996 -1.78584 18.6586
0.0139858 -2.38207 18.7157
0.00198156 -3.30342 15.8266
0.00156371 -0.86648 18.7521
0.015002 -5.73161 22.4111
0.50808 -0.816997 19.4126
0.00840477 -1.63617 22.4258
0.00121472 -0.17566 13.4974
-0.159924 0.182393 16.3288
-0.00141437 -0.165856 21.166
0.0116988 0.0804082 11.4007
-0.350956 0.597796 13.6692
0.00696116 0.488045 17.8384
-0.0294024 0.671511 6.41645
-0.925689 1.43475 11.6919
0.0038666 1.16935 14.9516
-0.00369048 -0.135406 1.20424
0.0250078 0.675745 7.85165
-1.74914 1.49487 14.6737
0.0188328 2.04792 16.1609
0.09435 0.960388 3.9228
0.106249 2.30875 11.995
3.36036 -0.526531 16.3213
0.00189748 4.23022 13.051
0.00190036 -0.362186 17.5734
-0.213691 -0.915246 2.40987
-0.0184342 1.38792 -5.05953
0.130895 0.737447 -3.1917
-1.84786 -0.0317205 8.05269
-0.0521428 0.872921 -3.9511
0.131244 1.63556 -0.246247
1.61311 2.10585 19.073
0.00989832 1.7407 19.7129
0.00597759 1.44435 18.3907
0.013606 3.84662 19.8357
2.28927 2.16608 20.5328
0.0044405 2.20253 20.5879
-0.0101997 4.74335 21.3424
1.66953 1.02353 22.4726
-0.0106097 1.12459 21.9392
-0.0211953 0.533407 21.9878
0.250798 -0.460281 21.2852
-0.00664951 -0.0493581 21.505
-0.0232866 -0.081031 17.9402
0.222296 -0.650297 20.6181
-0.00949761 -0.3304 21.3186
-0.0200263 -0.480927 18.775
-0.0552888 -0.858076 19.5395
-0.0165578 -0.504885 20.5391
-0.00692008 -0.538148 17.694
1.10144 -0.559977 19.8941
1.08412 -0.976541 19.6601
1.8053 -0.97844 19.1195
0.700149 -0.455522 19.4927
2.32641 -2.00774 20.3611
1.05431 -0.778393 21.2265
0.824895 -1.14814 21.5104
1.39294 -1.59427 21.9621
0.244204 -0.810667 21.6899
0.166332 -0.419785 21.5296
-0.0720068 -0.305843 21.6471
-0.0466369 -0.571152 19.9697
-0.385448 -0.157221 21.2855
-0.502374 -0.0886521 21.678
-0.620038 0.293986 21.6047
-0.724674 0.209065 18.2906
-1.38983 0.824635 19.1583
-1.18603 0.107294 21.2612
-1.29051 0.835377 20.7787
-1.7774 0.442551 16.9128
-1.8219 0.716726 19.066
-1.36901 0.075504 20.7459
-1.6076 1.01711 20.6633
-2.01572 0.339484 18.0302
-1.32199 0.246987 20.0896
1.63761 -0.216968 19.6944
2.6265 0.660851 18.8192
1.04356 -0.172111 19.14
5.06159 -0.63902 20.2262
1.62452 -0.521349 21.3182
2.79913 -0.229648 21.5917
1.03751 -1.12394 20.5518
0.51603 -0.539062 21.7094
1.27938 -0.76454 21.3012
-0.086627 -0.255935 18.0468
-0.470603 -0.450733 21.7528
-0.481439 -0.415273 18.5236
-1.38053 -0.296162 13.2678
-1.15712 -0.627517 21.2365
-0.645562 -0.987904 17.048
-1.75316 -0.614372 16.6935
-1.14414 -0.556264 21.2153
-0.980685 -1.26882 19.3775
-1.58321 -0.750692 18.4696
1.24052 0.646564 19.9559
0.853585 0.947687 20.0403
0.953881 0.658295 19.3945
1.93625 1.41753 20.308
1.42363 0.497171 20.9227
1.02322 0.983252 20.8282
1.85053 0.755753 21.5012
0.804063 0.0691406 21.6087
0.612267 0.441546 21.592
0.501571 -0.0894234 21.9066
0.0387658 -0.369457 21.5379
0.125624 -0.180683 21.4245
0.0403048 -0.635742 21.4804
-0.221579 -0.590769 21.2384
-0.0160888 -0.393906 21.2328
-0.118347 -0.742839 21.5067
-0.482433 -0.593523 20.6608
-0.0633368 -0.463515 20.9774
-0.060603 -0.699078 20.7082
-1.42639 -1.05644 19.3883
-0.985558 -1.35571 21.7443
0.141673 -0.458446 21.4819
0.754503 0.25645 20.5033
1.61153 0.724603 19.3424
1.8229 0.66292 19.8077
-2.52026 -0.348026 18.7042
-2.16775 -1.07307 21.9258
-0.335115 -0.754207 19.0073
0.735656 0.135148 16.2203
1.49546 -0.526567 15.7908
1.70314 -0.4997 17.9506
-1.55345 1.19564 19.6027
-2.00644 1.05968 20.8738
-1.16547 0.283924 21.9294
-0.128388 -0.437243 21.6952
0.064967 -0.714429 21.3643
0.331497 -0.911225 21.156
0.0143005 -2.98858 17.6669
0.0162528 -0.916137 15.8819
0.00173578 0.0493175 11.7356
0.0274761 0.31335 8.99644
-0.00637084 0.634743 6.91158
0.096442 1.59043 10.2187
0.00340422 -0.787626 12.4567
-0.00181549 0.409359 -1.99876
0.16489 0.889804 -2.21315
0.0150392 3.32692 18.4437
0.00446816 3.68689 19.8925
-0.0230584 2.32888 22.7735
-0.0214381 -0.0593144 19.8886
-0.0330479 -0.133066 18.4544
-0.019935 -0.711557 18.4142
1.42404 -1.04452 19.4071
1.01631 -1.34356 21.7293
-0.13237 -0.464825 21.4927
-0.750516 0.260949 20.44
-1.61008 0.778197 19.0312
-1.83113 0.715933 19.3165
2.52029 -0.349769 18.7032
2.16755 -1.07297 21.9243
0.341141 -0.764415 19.084
-0.73169 0.108411 16.4292
-1.47174 -0.541328 15.1823
-1.73816 -0.491799 17.1424
1.55071 1.18458 19.6122
2.0046 1.0577 20.8763
1.18518 0.304818 21.9461
0.136794 -0.441448 21.7074
-0.0502539 -0.720569 21.3785
-0.269966 -0.92059 21.0305
0 0 0
-0.0222974 -0.0653158 0.395225
-0.0343926 0.00618209 0.235337
0.0459033 -0.0398982 0.0888469
0.00647627 0.00740409 0.024644
0.0471639 0.117172 0.481753
-0.252283 0.0681959 0.242461
-0.0075498 0.124621 0.360516
-0.412906 -0.068353 1.13556
-0.00887075 -0.00417805 -0.0101395
-0.0368201 0.0119639 -0.0414339
-0.0347679 -0.0229189 0.0695749
0.0199962 -0.0609721 0.367743
0 0 0
0.0349089 0.00564677 0.229832
-0.00685063 0.00616789 0.0181374
-0.0452547 -0.0400669 0.0877967
-0.0464713 0.118413 0.485677
0.00724586 0.123692 0.358008
0.249048 0.0665085 0.237851
0.413422 -0.0697558 1.13329
0.0364355 0.0125678 -0.042914
0.00352366 0.000574539 -0.00488853
0.0343412 -0.0226578 0.0689262
0.00681694 -0.00597467 0.524711
0.00206598 0.00149926 0.0974525
-0.000420637 -0.000513905 0.0313822
0 0 0
0.0101187 0.0132427 0.42966
-0.000208877 0.000240249 0.0253062
-0.00230902 0.00580767 0.0753435
0.00228848 0.00183359 0.233976
-0.146974 -0.0985674 0.385898
-0.000762451 0.000433945 0.0208278
0 0 0
-0.0377589 0.0506625 0.124513
0 0 0
0.00223127 0.0095056 0.0502965
0.00565465 0.0110689 0.0387893
0.00238056 -0.00154176 0.0204328
-0.00929908 3.81086e-05 0.482474
4.43385e-18 -2.95403e-18 -1.46602e-16
-0.00209208 0.00148767 0.0948591
0.000414938 -0.000537292 0.0314442
-0.00967878 0.0118407 0.435433
-0.00182714 0.00176647 0.107389
0.000166662 0.000213378 0.0229992
0.00228426 0.00574641 0.0749058
0.146039 -0.0977112 0.385189
0.038079 0.0510354 0.125536
0.000766353 0.000354714 0.020228
0 0 0
0 0 0
-0.00232546 -0.00150583 0.0199232
-0.00218269 0.00951375 0.0503781
-0.0053813 0.0105604 0.0370963
-0.000842895 -0.000489172 0.00941331
-0.692003 0.151535 0.413619
-0.000743085 -0.00579337 0.322032
8.65897e-06 9.28e-05 -2.95694e-05
0 0 0
-0.00087485 -0.000151616 0.027676
0.00135626 -0.00144603 0.00715641
0 0 0
0 0 0
-0.000151679 -0.0157867 -0.00458913
0.0020179 0.00944383 0.101485
0.00118903 0.00162867 0.0182454
0.00122724 0.975306 0.504244
-2.46426e-08 0.000810007 0.00448898
0 0 0
-0.0779662 0.0224722 0.243
0 0 0
0 0 0
0.00761825 -0.0109145 0.106707
-0.00142444 0.000469068 -0.00163138
0.698736 0.155243 0.417363
0.000781009 -0.000443799 0.00872291
-0.000868213 -0.00141024 0.0813468
0 0 0
0 0 0
-0.00126825 -0.00134622 0.00667358
0 0 0
-0.00205896 0.00965242 0.104203
0.0807098 0.022511 0.245496
0 0 0
0.00140444 0.000466156 -0.00161853
-0.00673852 -0.00911362 0.0897513
0.00176095 0.0108697 0.246898
0.000277303 0.00016473 0.0101687
-0.0139129 -0.0221893 0.246679
-0.00124633 0.0105058 0.120659
-1.70792e-05 0.000481238 0.0184339
0 0 0
0.000801412 0.0104107 0.103686
-0.00258908 0.00694551 0.078987
0.000194728 0.000759269 0.0837223
-3.71447e-05 0.00047831 0.0149014
0.00161643 0.0106633 0.0827675
-0.00319609 0.00867299 0.123878
1.85029e-05 0.0135545 0.0405068
8.14705e-06 0.0338254 0.140193
-6.14735e-06 0.000561216 0.0298049
-1.41841e-06 -0.00111713 0.00564366
-0.000262058 0.000152412 0.0090996
-0.00165324 0.0107742 0.243647
0.0139587 -0.023264 0.247157
0.00123938 0.0102918 0.119941
-0.000808277 0.0104226 0.103738
0.0026235 0.00713109 0.0807162
0.00321009 0.00873551 0.124162
-0.00163653 0.0092587 0.0723732