# vtk DataFile Version 2.0
tri_press
ASCII
DATASET UNSTRUCTURED_GRID
POINTS 3682 float
-0.695 0.125 -2.04054
-0.665 0.285 2.03903
-0.705 0.691878 -1.845
-0.578869 0.975 2.045
0.695 0.125 -2.04054
0.665 0.285 2.03903
0.705 0.691878 -1.845
0.57887 0.975 2.045
-0.751559 0.111774 -0.680683
-0.774027 0.13264 0.679174
-0.75559 0.878886 -0.548333
-0.732571 0.992285 0.748334
0.751543 0.11179 -0.680683
0.773992 0.132675 0.679174
0.755585 0.87888 -0.548333
0.732611 0.992323 0.748334
-1.43086 -0.313253 -3.16499
-1.43689 -0.251481 -2.10241
-1.4755 -0.254187 -0.740924
-1.47752 -0.241392 0.633284
-1.40539 -0.137288 1.99585
-1.38615 -0.0647731 3.06367
-1.39587 -0.00888589 4.12178
-1.43056 0.0282275 -3.08994
-1.43599 0.112012 -2.03426
-1.48454 0.131514 -0.685069
-1.47394 0.148401 0.669814
-1.36044 0.24285 2.02022
-1.35734 0.313098 3.08715
-1.38199 0.369222 4.14732
-1.4354 0.669455 -2.9221
-1.443 0.750685 -1.86381
-1.48464 0.890665 -0.557693
-1.44305 0.970886 0.743948
-1.30483 0.984978 2.05128
-1.32843 1.05172 3.12082
-1.37214 1.11858 4.19118
-1.44518 1.74603 -2.71785
-1.4516 1.84502 -1.66902
-1.46465 2.0035 -0.383393
-1.45731 2.1265 0.888617
-1.42604 2.18313 2.17491
-1.41294 2.2226 3.22511
-1.41814 2.27337 4.28857
-0.706544 -0.306689 -3.16907
-0.700887 -0.2414 -2.10836
-0.735493 -0.263896 -0.740126
-0.759211 -0.251749 0.641272
-0.713617 -0.116107 2.00981
-0.701013 -0.0500563 3.07314
-0.708914 -0.00177379 4.12727
-0.707771 0.0279074 -3.09119
-0.683313 0.328249 3.09497
-0.701529 0.375701 4.15146
-0.711799 0.645297 -2.91428
-0.660471 1.0518 3.11956
-0.69728 1.11968 4.19092
-0.717251 1.72888 -2.71012
-0.720214 1.82852 -1.66051
-0.735687 1.99987 -0.378262
-0.746291 2.13251 0.888001
-0.736504 2.18524 2.17051
-0.728383 2.22191 3.22072
-0.731614 2.27255 4.28538
0.722158 -0.306685 -3.16907
0.726942 -0.241395 -2.10836
0.756259 -0.263879 -0.740126
0.748419 -0.251722 0.641272
0.674934 -0.116096 2.00981
0.661183 -0.0500462 3.07314
0.659968 -0.00176126 4.12727
0.711267 0.0279097 -3.09119
0.644386 0.328255 3.09497
0.649881 0.375712 4.15146
0.712967 0.645299 -2.91428
0.614358 1.05181 3.11956
0.635105 1.11969 4.19092
0.732839 1.72889 -2.71012
0.736606 1.82853 -1.66051
0.726719 1.99988 -0.378262
0.685964 2.13252 0.888001
0.640839 2.18526 2.17051
0.632601 2.22192 3.22072
0.635633 2.27257 4.28538
1.44439 -0.313243 -3.16499
1.45183 -0.251468 -2.10241
1.48958 -0.254156 -0.740924
1.48179 -0.241344 0.633284
1.39606 -0.137258 1.99584
1.36243 -0.064748 3.06367
1.3566 -0.00885925 4.12178
1.43292 0.0282347 -3.08994
1.43415 0.112019 -2.03426
1.48621 0.131542 -0.685069
1.48551 0.148454 0.669814
1.37388 0.242874 2.02022
1.33946 0.313119 3.08715
1.34158 0.369247 4.14733
1.43462 0.669461 -2.9221
1.43925 0.750687 -1.86381
1.48329 0.890679 -0.557693
1.45033 0.970939 0.743948
1.31326 0.985003 2.05128
1.30203 1.05174 3.12082
1.32088 1.11861 4.19118
1.45713 1.74604 -2.71785
1.46197 1.84504 -1.66902
1.45466 2.00352 -0.383394
1.40898 2.12654 0.888617
1.34886 2.18316 2.17491
1.32946 2.22263 3.22511
1.32957 2.2734 4.28857
-0.728521 0.408439 -1.97129
0 0.115612 -2.04993
-0.732938 0.108728 -1.36061
-0.656089 0.63 2.07617
0 0.22002 2.10401
-0.763369 0.164964 1.3591
0 0.764581 -1.9177
-0.755403 0.81049 -1.19667
5.06639e-07 0.979981 2.04998
-0.688582 1.0165 1.39667
0.728719 0.408439 -1.97149
0.732948 0.108718 -1.36061
0.656106 0.63 2.07619
0.76338 0.164953 1.3591
0.755389 0.810476 -1.19667
0.688591 1.01651 1.39667
-0.763017 0.121983 -0.000754952
-0.867357 0.49533 -0.614508
-8.20283e-06 0.0736461 -0.680683
-0.876045 0.562462 0.713754
-1.73224e-05 0.0992035 0.679174
-0.75897 0.950475 0.1
-2.66023e-06 1.1498 -0.548333
1.97833e-05 1.31282 0.748334
0.763012 0.121988 -0.000754952
0.867357 0.495335 -0.614508
0.876042 0.562499 0.713754
0.758911 0.950415 0.1
-0.857549 0.451884 -1.27864
0.857551 0.451887 -1.27864
-4.10142e-06 0.0798466 -1.36061
-1.33011e-06 0.900628 -1.19667
0 0.408439 -2.23141
-0.878609 0.528896 0.0496225
0.878588 0.528917 0.0496225
-1.27626e-05 0.0926934 -0.000754952
8.56152e-06 1.31805 0.1
-0.879272 0.596231 1.37788
0.879038 0.59625 1.37788
-8.66118e-06 0.111762 1.3591
1.0145e-05 1.14096 1.39667
2.5332e-07 0.63 2.18574
-0.708808 0.26672 -2.00296
-0.3475 0.111884 -2.05366
-0.720081 0.110752 -1.70058
-0.680569 0.4575 2.07762
-0.3325 0.251376 2.07265
-0.737977 0.20119 1.69907
-0.714541 0.550159 -1.90593
-0.3525 0.747342 -1.90046
-0.744448 0.76543 -1.52083
-0.593318 0.8025 2.03642
-0.289434 0.975683 2.04568
-0.627703 0.98973 1.72083
0.3475 0.112171 -2.05337
0.708822 0.26672 -2.00298
0.720136 0.110698 -1.70058
0.3325 0.251414 2.07262
0.680524 0.4575 2.07758
0.738059 0.201108 1.69907
0.3525 0.747332 -1.90045
0.714676 0.550159 -1.90606
0.744456 0.765439 -1.52083
0.289435 0.975481 2.04548
0.591846 0.8025 2.03495
0.627713 0.989738 1.72083
-0.748859 0.103641 -1.02065
-0.753371 0.120795 -0.340719
-0.857398 0.279582 -0.647596
-0.37313 0.098018 -0.680683
-0.76301 0.15449 1.01914
-0.765058 0.130775 0.339209
-0.85826 0.330939 0.696464
-0.388738 0.11249 0.679174
-0.760548 0.849739 -0.8725
-0.842952 0.702847 -0.581421
-0.754522 0.911922 -0.224167
-0.434423 1.1276 -0.548333
-0.709071 1.00289 1.0725
-0.842651 0.796545 0.731044
-0.74442 0.970029 0.424167
-0.434107 1.28822 0.748334
0.748798 0.103702 -1.02065
0.373027 0.098199 -0.680683
0.753268 0.120899 -0.340719
0.857397 0.279589 -0.647596
0.76292 0.15458 1.01914
0.386933 0.116047 0.679174
0.765079 0.130754 0.339209
0.858271 0.33096 0.696464
0.760516 0.849707 -0.8725
0.434417 1.12759 -0.548333
0.842942 0.702844 -0.581421
0.754515 0.911915 -0.224167
0.709059 1.00288 1.0725
0.434133 1.28821 0.748334
0.84264 0.796568 0.731044
0.744422 0.970031 0.424167
-0.846653 0.430162 -1.62496
-0.36426 0.408439 -2.19306
-2.05071e-06 0.0876905 -1.70527
0 0.262025 -2.2224
-0.850593 0.280306 -1.31963
-0.366471 0.0958265 -1.36061
-0.778406 0.613116 1.72703
-0.328044 0.63 2.16312
-4.33059e-06 0.190227 1.73156
1.2666e-07 0.42501 2.2406
-0.867911 0.380598 1.36849
-0.381689 0.144195 1.3591
-6.65057e-07 0.837736 -1.55719
0 0.58651 -2.14579
-0.846788 0.631187 -1.23765
-0.377702 0.883592 -1.19667
5.3258e-06 1.01916 1.72332
3.7998e-07 0.804991 2.14342
-0.814571 0.806367 1.38728
-0.344286 1.12274 1.39667
0.846648 0.430163 -1.62506
0.364359 0.408439 -2.19305
0.850595 0.280303 -1.31963
0.366472 0.0899141 -1.36061
0.778392 0.613125 1.72704
0.328053 0.63 2.16181
0.86796 0.380601 1.36849
0.381686 0.145173 1.3591
0.846686 0.631181 -1.23765
0.377694 0.883578 -1.19667
0.813445 0.806381 1.38728
0.344301 1.12276 1.39667
-0.866605 0.302543 0.0244338
-0.379186 0.111995 -0.000754952
-0.862451 0.473607 -0.946574
-0.875121 0.512113 -0.282443
-6.15212e-06 0.059786 -1.02065
-1.04827e-05 0.0826847 -0.340719
-0.877492 0.545679 0.381688
-0.888927 0.579347 1.04582
-1.50425e-05 0.0987829 0.339209
-1.29918e-05 0.0976284 1.01914
-0.849753 0.755167 0.0748113
-0.461158 1.29762 0.1
-1.99517e-06 0.978849 -0.8725
2.95064e-06 1.27228 -0.224167
1.41724e-05 1.32567 0.424167
1.49641e-05 1.24498 1.0725
0.86661 0.302547 0.0244338
0.379147 0.112047 -0.000754952
0.862439 0.473611 -0.946574
0.875109 0.512126 -0.282443
0.877489 0.545708 0.381688
0.88893 0.579374 1.04582
0.849769 0.755176 0.0748113
0.461146 1.29761 0.1
-0.841617 0.273513 -1.66277
-0.851076 0.291929 -0.983611
-0.842074 0.659147 -0.909537
-0.857003 0.590673 -1.5729
0.841613 0.273511 -1.66282
0.856825 0.59067 -1.57295
0.841277 0.659145 -0.909537
0.851059 0.291933 -0.983611
-0.356986 0.103366 -1.70292
0.356986 0.104063 -1.70292
0.37112 0.0824837 -1.02065
-0.371128 0.0822917 -1.02065
-0.365101 0.827508 -1.53901
-0.377749 0.956974 -0.8725
0.377742 0.956954 -0.8725
0.365097 0.827502 -1.53901
-0.35588 0.264372 -2.18265
-0.35838 0.568334 -2.13426
0.35843 0.568334 -2.13421
0.35593 0.264372 -2.18259
-0.863918 0.290104 -0.311581
-0.863339 0.316288 0.360449
-0.848609 0.777059 0.402927
-0.847092 0.729377 -0.253305
0.863924 0.290108 -0.311581
0.847105 0.729384 -0.253305
0.84861 0.777075 0.402927
0.863359 0.316294 0.360449
-0.374929 0.107464 -0.340719
0.374844 0.107609 -0.340719
0.381198 0.117731 0.339209
-0.381332 0.117503 0.339209
-0.468153 1.25333 -0.224167
-0.45353 1.30471 0.424167
0.45354 1.30471 0.424167
0.468163 1.25336 -0.224167
-0.87654 0.364074 1.03248
-0.779228 0.419049 1.71305
-0.763944 0.804434 1.72393
-0.836116 0.79187 1.05916
0.876542 0.364094 1.03248
0.834945 0.791896 1.05916
0.763911 0.804441 1.72393
0.779165 0.419051 1.71305
-0.384355 0.135015 1.01914
0.384337 0.12836 1.01914
0.357093 0.189814 1.71531
-0.357094 0.192444 1.71531
-0.355281 1.22627 1.0725
-0.31686 1.01234 1.72208
0.316868 1.01224 1.72208
0.355308 1.22626 1.0725
-0.330272 0.441255 2.22485
0.330277 0.441255 2.2248
0.308744 0.803745 2.15151
-0.308739 0.803745 2.15074
-0.710504 0.19586 -2.03035
-0.52125 0.112462 -2.05308
-0.714735 0.110681 -1.87056
-0.675248 0.37125 2.06079
-0.49875 0.249716 2.07431
-0.705702 0.238882 1.86905
-0.70135 0.621018 -1.86704
-0.52875 0.722951 -1.87607
-0.731129 0.735059 -1.68292
-0.599162 0.88875 2.05378
-0.434152 0.969346 2.03935
-0.595603 0.974682 1.88292
0.52125 0.112453 -2.05309
0.710673 0.19586 -2.03052
0.714745 0.110671 -1.87056
0.49875 0.250337 2.07369
0.675681 0.37125 2.06122
0.705702 0.238881 1.86905
0.52875 0.72294 -1.87606
0.701151 0.621018 -1.86684
0.731131 0.735061 -1.68292
0.434153 0.969073 2.03907
0.599102 0.88875 2.05372
0.595592 0.97467 1.88292
-0.747253 0.110664 -0.850665
-0.749321 0.119429 -0.510701
-0.858325 0.168755 -0.66414
-0.561753 0.106079 -0.680683
-0.765469 0.146614 0.849156
-0.770081 0.131169 0.509191
-0.837302 0.22121 0.687819
-0.579119 0.127091 0.679174
-0.764492 0.870735 -0.710417
-0.809239 0.79585 -0.564877
-0.75548 0.895828 -0.38625
-0.643214 1.09966 -0.548333
-0.727216 1.00398 0.910417
-0.799609 0.900414 0.739689
-0.738779 0.98144 0.58625
-0.616317 1.20621 0.748334
0.747219 0.110697 -0.850665
0.561703 0.106159 -0.680683
0.749291 0.119459 -0.510701
0.858325 0.168762 -0.66414
0.760457 0.151626 0.849156
0.579085 0.127116 0.679174
0.770197 0.131053 0.509191
0.837285 0.221241 0.687819
0.764499 0.870743 -0.710417
[...]
POINT_DATA 3682
SCALARS point_scalars float 1
LOOKUP_TABLE default
-81.2652
-40.9447
-31.7096
-33.397
-81.1908
-41.0562
-34.1984
-33.3283
-41.4909
-39.9842
-60.6665
-50.6023
-41.302
-40.2089
-60.078
-50.6192
-75.9462
-104.971
-42.2609
-38.9913
-49.8633
-40.3642
-35.382
3.59973
-122.148
-42.3353
-38.174
-41.9327
-36.4935
-35.0855
53.925
-102.57
-48.9097
-44.9994
-39.1297
-34.5381
-34.598
-25.5258
-59.9978
-83.8852
-53.3292
-36.4362
-33.5121
-33.5121
18.8016
-138.442
-41.6901
-39.6857
-45.4305
-37.1376
-35.0485
18.8016
-35.0228
-34.9401
151.026
-32.3279
-33.8962
-29.0863
-40.0262
-86.9315
-60.0509
-31.664
-33.5121
-29.7565
18.8588
-138.325
-41.4943
-39.7943
-45.3436
-37.1072
-35.0681
18.8588
-34.996
-34.91
150.911
-31.4249
-34.0024
-28.7881
-40.5448
-86.923
-60.0315
-31.6379
-30.8288
-29.1595
-75.8789
-104.472
-42.095
-38.9973
-49.693
-40.8029
-35.3344
3.65115
-121.66
-42.1901
-38.1417
-41.8346
-36.1604
-34.8883
53.4961
-102.539
-48.7893
-44.9704
-39.0618
-34.4433
-34.5459
-28.1936
-60.0101
-83.8716
-53.2627
-36.3339
-33.4029
-33.4029
0.436846
-124.172
-51.1001
-35.8575
-39.7577
-44.693
-49.3343
-40.6597
-29.9516
-43.4469
0.2979
-48.2573
-35.7529
-44.7305
-40.6814
-43.4033
-39.393
-43.1519
-43.4949
-42.0777
-39.8332
-55.5991
-16.2041
-62.2039
-39.3628
-43.1013
-42.0655
-55.5837
-55.255
-55.3957
-53.4449
-4.79209
200.16
-43.8521
-43.8603
-38.5259
-87.8672
-52.8958
-52.8003
-45.6975
-37.2495
-30.7207
-3.70248
-130.55
-74.5824
-37.9478
-39.7802
-49.597
3.9882
-44.6248
-57.7126
-35.013
-30.1508
-35.585
-130.633
-2.31921
-73.9417
-39.9108
-37.8486
-49.4159
-44.6804
3.80911
-57.7148
-30.1557
-34.8924
-35.5465
-44.7975
-38.7956
-41.3401
-42.5855
-40.8034
-37.5835
-38.6814
-40.9017
-50.8022
-48.8127
-59.2221
-19.1853
-47.4283
-45.2687
-53.1789
-60.6522
-44.5954
-42.5557
-38.7108
-41.275
-40.8409
-40.5753
-37.5556
-38.6555
-50.8407
-19.1257
-48.6804
-59.2148
-47.3451
-60.6513
-45.2434
-53.1908
-89.8995
177.167
-72.6523
187.314
-55.6609
-52.4008
-43.0886
-32.9276
-44.9286
-34.9472
-49.9598
-45.5463
-25.6958
154.597
-53.9439
-10.4448
-32.3898
-28.9401
-48.283
-38.0168
-89.875
177.224
-55.8875
-52.7247
-42.9594
-32.8265
-49.8913
-45.8684
-54.0165
-10.5023
-48.1578
-38.0106
-41.9106
-38.5912
-42.2818
-44.0245
-51.4479
-41.379
-42.9616
-45.0894
-38.1787
-44.133
-49.3311
-81.067
19.8985
-86.6237
-74.54
-47.5803
-41.8798
-38.6642
-42.3327
-43.9856
-42.9656
-45.0468
-49.518
-81.0308
-88.9808
-42.3506
-44.6326
-92.5992
-88.8304
-92.6452
-44.5534
-42.4703
-72.2536
-71.3015
-49.2262
-49.0911
-29.6212
14.3737
14.3856
-29.6536
166.962
109.262
109.053
167.054
-40.9018
-41.4874
-47.9317
-49.5328
-40.849
-49.4656
-47.9693
-41.4771
-40.3673
-40.2742
-38.0398
-38.0101
-87.1553
-69.9939
-69.9932
-87.1409
-43.5682
-45.3614
-41.982
-48.2482
-43.5222
-48.1311
-41.8861
-45.2355
-42.8384
-43.1098
-45.0684
-45.6106
-47.9538
-33.0727
-33.052
-47.9526
-35.1849
-35.1584
-31.0943
-31.2154
1.34374
-137.821
-105.566
-39.1303
-40.2689
-43.7567
-0.278325
-53.7329
-68.8036
-34.9281
-30.8895
-33.8723
-137.677
1.83947
-105.132
-40.2611
-39.2095
-43.6488
-56.441
-1.32795
-68.6759
-30.8116
-34.805
-33.805
-42.301
-40.1472
-41.7819
-41.7184
-42.3174
-38.3202
-38.7201
-40.9589
-62.5653
-53.9946
-59.5383
-67.9148
-51.057
-48.5398
-51.5766
-56.2623
-41.9977
-41.5854
-40.034
-41.6497
-41.6421
-40.6925
-38.3348
-38.7192
-62.4562
-67.8406
-53.7282
-59.5218
-51.0883
-56.1356
-48.5895
-51.5971
5.71456
3.44187
-119.122
120.089
-122.905
-122.522
-91.1605
85.9576
-58.7766
-45.145
-54.7854
-51.996
-36.9236
-34.4814
-39.7999
-33.7794
-39.8168
-39.8599
-41.3423
-35.7049
-50.1801
-43.1218
-48.2308
-44.4353
-48.2384
-48.2361
-37.3444
30.2039
-50.6747
-40.9567
-51.7301
-18.9632
-29.8687
-29.9269
-31.0207
-26.2638
-39.339
-46.2314
-45.4478
-39.5709
5.02238
3.43512
-118.91
119.852
-58.5259
-50.4845
-55.0748
-50.5775
-36.827
-34.3726
-39.6709
-33.7075
-50.1858
-43.1947
-48.1994
-44.4974
-50.7061
-41.0005
-51.8017
-19.1507
-39.3003
-46.2175
-45.3947
-39.5731
-38.6684
-37.2851
-41.0927
-38.7376
-41.9376
-45.1858
-42.7932
-43.6674
-42.9742
-42.9895
-47.1309
-42.4201
-40.2734
-43.7964
-42.4211
-41.059
-40.0099
-40.1508
-38.8157
-40.895
-57.1856
-55.9216
-52.6743
-65.3575
-15.6942
-15.7031
11.6819
-47.6611
-61.9279
-61.9256
-67.9978
-55.3548
-38.6237
-37.265
-41.0367
-38.7387
-41.8877
-45.1151
-42.7533
-43.6139
-40.2546
-43.792
-42.4201
-41.0379
-57.1683
-56.0293
-52.7563
-65.3285
-67.581
-55.8823
-54.7078
-49.6724
-67.6264
-56.0672
-54.8098
-49.8097
-58.9233
-52.7701
-53.3516
-48.2521
-15.2371
-6.07413
-5.98906
7.5635
196.846
202.69
157.211
196.714
-42.4055
-43.8788
-43.6275
-46.2163
-42.3985
-43.8653
-43.636
-46.2514
-38.5992
-39.1918
-38.139
-38.6281
-86.5443
-92.3028
-81.6241
-86.5381
-48.7435
-50.9462
-51.593
-49.6197
-48.6238
-50.876
-51.4678
-49.5611
-47.5899
-45.2672
-46.4443
-44.7269
-34.1969
-37.4028
-37.4003
-41.3804
-31.5547
-32.8859
-29.656
-31.4652
-126.21
147.052
-93.7823
87.8227
-86.7433
-72.9854
-40.7274
-35.2967
-43.1843
-36.2159
-47.1039
-46.7165
-98.502
53.3646
-40.6775
22.1757
-84.2934
-38.0738
-40.198
-33.2771
-31.4585
-30.0802
-40.2789
-33.8566
-94.1867
88.3772
-125.773
148.452
-86.485
-72.0554
-43.25
-36.1827
-40.6125
-35.2502
-46.9865
-46.0891
-40.7813
22.2841
-98.438
53.3982
-84.3012
-38.085
-31.4258
-29.9165
-40.1152
-33.1602
-40.1971
-33.8289
-41.4017
-48.0301
-39.9316
-39.4576
-42.0327
-41.2562
-45.8685
-41.4824
-42.2367
-41.9638
-40.3178
-37.8469
-39.9337
-40.2329
-38.8789
-41.3684
-47.792
3.16244
-46.682
-49.557
-53.9692
-79.6569
6.71021
-47.3348
-48.1289
-49.8168
-46.7357
-46.3148
-51.0166
-59.8413
-65.443
-55.565
-41.4224
-48.0308
-45.8214
-41.5146
-39.86
-39.3809
-41.9134
-41.1975
-42.2012
-41.473
-38.941
-41.1187
-40.3041
-37.8462
-39.9245
-40.1936
-47.726
3.55749
6.70342
-47.2887
-46.6229
-49.473
-53.9309
-79.7495
-47.9044
-49.8238
-65.4393
-55.568
-46.7604
-46.3707
-51.0513
-59.8317
-89.2677
-89.4322
170.394
147.185
-72.0063
-72.0739
183.323
183.295
-67.3854
-49.9975
-59.1114
-47.9787
-43.9336
-42.8435
-34.4325
-32.7523
-45.306
-45.5455
-34.8662
-34.8452
-47.3639
-53.0736
-44.4089
-46.7625
-26.1678
-26.2001
155.762
155.773
-45.455
-66.541
-20.0047
2.80955
-32.6275
-32.6163
-29.6453
-29.7599
-45.3158
-49.2399
-42.27
-34.898
-89.1822
-89.4486
147.429
170.517
-67.3471
-50.3476
-58.9803
-48.8331
-42.7236
-43.8
-34.3831
-32.6641
-47.3129
-52.9639
-44.8535
-46.4775
-66.5982
-45.5262
2.4446
-20.037
-49.239
-45.1375
-34.8859
-42.265
-41.4042
-40.3979
-38.8033
-37.7142
-41.8898
-42.3298
-42.464
-46.2071
-50.8785
-50.5546
-40.9807
-41.1146
-41.7371
-45.0822
-44.6994
-46.1106
-38.2306
-38.0949
-44.3649
-44.0325
-48.6758
-49.5607
-85.709
-75.2733
18.9456
18.8279
-85.7774
-85.7848
-73.3673
-73.3678
-47.7474
-47.7326
-41.3694
-40.4178
-38.7612
-37.7457
-42.3447
-42.0616
-42.4236
-46.1628
-45.0941
-41.7359
-44.6594
-46.0467
-49.4264
-48.6998
-75.2917
-85.7058
-122.458
-63.8287
-68.1032
-125.309
-41.3344
-42.4353
-50.3541
-50.8755
-52.6561
-46.3243
-48.4644
-44.1243
-77.1166
-113.691
-66.6289
-65.7675
-121.969
-125.011
-68.1303
-63.7431
-77.1146
-65.807
-66.6892
-113.586
-52.5273
-44.0754
-48.5405
-46.3886
-41.0909
-51.5251
-50.5712
-42.2779
-97.5834
-91.9077
-59.0682
-58.2323
-97.2519
-58.3227
-58.8408
-92.0846
-44.18
-46.6989
-48.1098
-49.8298
-44.3894
-46.5703
-48.8067
-46.5844
-51.3256
-28.7961
-16.3512
-37.4927
-42.1816
10.4479
6.51964
-6.94938
-43.6464
-7.06211
6.65053
10.4061
-51.3803
-37.5106
-16.345
-28.8593
104.021
129.589
197.584
105.367
49.1113
59.9194
147.07
90.3988
53.4509
90.1969
147.143
60.5155
103.942
105.709
197.564
131.957
-39.8161
-40.1369
-42.564
-42.16
-39.5522
-40.7767
-42.1194
-39.065
-49.9913
-52.982
-45.8428
-44.3661
-54.2374
-45.9077
-46.3362
-53.4767
-39.7273
-42.1083
-42.5388
-40.0975
-54.1619
-53.4152
-46.3354
-45.8439
-50.0926
-44.3707
-45.8599
-53.0183
-39.5525
-39.053
-42.121
-40.7661
-40.8385
-42.1534
-39.1819
-38.5957
-40.6743
-38.5602
-39.0826
-42.2374
-38.6848
-39.0928
-38.088
-37.4965
-38.6928
-37.4927
-37.9332
-39.0629
-84.6156
-71.9853
-90.5214
-48.2814
-58.005
-67.5079
-80.1174
-66.1724
-57.9774
-66.1672
-80.1163
-67.5068
-84.0731
-48.1352
-90.3338
-71.9772
-40.0943
-45.7596
-48.0674
-41.3856
-41.618
-40.1779
-52.2839
-53.4176
-38.738
-43.0146
-46.531
-39.8521
-50.2506
-43.8672
-51.3941
-46.8942
-39.923
-41.3519
-48.0039
-45.7423
-50.3163
-46.8878
-51.3594
-43.8805
-38.6503
-39.82
-46.405
-42.8914
-41.5037
-53.3067
-52.1562
-40.0662
-41.8514
-40.1217
-44.3861
-43.5147
-41.6852
-44.0924
-44.4347
-40.6101
-44.9769
-41.7763
-46.2747
-46.8507
-45.0352
-46.3449
-47.2556
-41.7034
-54.0736
-43.9324
-41.5637
-55.4244
-32.1122
-31.146
-34.3503
-36.1328
-32.0673
-36.1151
-34.3428
-31.1286
-54.0388
-55.4285
-41.56
-44.1312
-36.3654
-36.2375
-33.6543
-34.7713
-36.2604
-34.7286
-33.6051
-36.2321
-32.1973
-27.4776
-30.4686
-33.3469
-32.3376
-33.4286
-30.5659
-27.613
-39.5399
-133.624
-131.334
-40.6961
-40.6106
-42.3556
-7.52482
-11.9807
-79.5248
-34.4968
-31.5019
-32.9509
-133.603
-39.3469
-130.901
-40.5454
-40.7242
-42.2696
-21.4361
-9.8023
-79.2984
-31.4326
-34.3744
-32.9047
-42.0154
-41.7342
-41.4908
-41.2594
-42.6885
-38.8433
-39.68
-40.708
-63.7066
-57.5379
-59.6432
-77.7881
-50.1873
-50.053
-50.9099
-53.0192
-41.7664
-41.094
-41.5798
-41.3175
-43.2425
-40.6365
-38.8924
-39.7499
-62.9425
-76.4662
-57.0906
-59.559
-50.2059
-53.0178
-50.0491
-50.9194
-0.929316
0.261193
-79.4966
63.2685
-122.122
-122.28
-106.881
1.64946
-53.8796
-47.9128
-53.3035
-51.351
-36.4636
-35.0677
-38.01
-34.3964
-39.3494
-39.3573
-40.6764
-37.2743
-45.7651
-43.5034
-46.9809
-44.4285
-49.0121
-49.019
-45.5973
-72.1484
-45.9796
-39.3708
-49.6645
-27.7186
-29.901
-29.9469
-30.617
-26.2605
-41.4442
-44.989
-43.8641
-41.7471
-0.623674
0.265433
-79.1343
62.6411
-53.1439
-47.6655
-52.6643
-49.053
-36.3687
-34.9811
-37.8333
-34.3166
-45.7956
-43.542
-46.8155
-44.5087
-46.0324
-39.5213
-49.8768
-27.8435
-41.4245
-44.9544
-43.7948
-41.7212
-38.7387
-38.5127
-40.112
-39.0729
-42.4976
-44.0354
-42.9234
-43.4113
-43.2093
-43.1768
-45.2685
-42.8519
-41.237
-42.86
-42.0858
-41.5672
-39.8743
-39.953
-39.152
-38.962
-54.7468
-57.6033
-54.1886
-59.8523
-16.2063
-16.2678
0.0881981
-32.9392
-62.1583
-62.149
-65.2458
-59.058
-38.7025
-38.4869
-40.1501
-39.0557
-42.4465
-43.9837
-42.8749
-43.3529
-41.2203
-42.8521
-42.0766
-41.5502
-54.7726
-57.4855
-54.206
-59.8331
-60.3343
-55.8026
-54.8318
-52.2673
-60.4312
-55.9656
-54.9527
-52.4183
-56.0469
-52.9407
-53.2279
-51.1068
-9.86418
-6.04803
-6.01036
2.24692
202.399
205.594
187.183
202.439
-42.938
-43.8822
-43.8633
-45.0294
-42.9378
-43.8854
-43.8713
-45.053
-38.6302
-38.6049
-38.3387
-38.4986
-87.5738
-90.2427
-84.5405
-87.5725
-52.5713
-51.0815
-53.3424
-51.1989
-52.4312
-50.9968
-53.229
-51.1593
-46.3527
-45.4231
-45.8428
-44.9625
-35.6238
-37.312
-37.3102
-39.1722
-30.9788
-31.6641
-30.3301
-30.9247
2.63308
-8.45665
-63.5388
74.9659
-138.156
-125.764
-112.229
15.0141
-88.0129
-65.6757
-83.27
-73.5094
-38.5979
-37.3854
-39.013
-36.0386
-40.4103
-39.7891
-42.327
-37.547
-46.1258
-52.5144
-48.6971
-47.215
1.01707
1.83365
-52.3452
45.0772
-48.9491
-46.3844
-46.1555
-41.7523
-62.0967
-55.1427
-68.3546
-44.8439
-34.9352
-34.5735
-37.7003
-33.9001
-30.3944
-29.8863
-30.8128
-29.4172
-34.6748
-37.0558
-38.3418
-34.4234
-138.17
-124.98
-112.482
15.8526
4.1081
-8.8846
-62.255
72.014
-87.4494
-65.1247
-82.8807
-72.749
-40.3412
-39.8038
-42.4685
-37.542
-38.5026
-37.2882
-38.9174
-35.9683
-46.0113
-52.3121
-48.5906
-46.8145
-50.1115
-46.4014
-46.3685
-41.6571
0.644325
1.84157
-52.4367
45.7326
-61.9802
-55.1552
-68.3515
-44.8165
-30.3193
-29.9241
-30.7703
-29.2837
-34.84
-34.4527
-37.9856
-33.8028
-34.6239
-37.023
-38.2816
-34.3891
-44.0397
-43.978
-40.0165
-47.2834
-39.0206
-38.2673
-39.3192
-39.0518
-41.2223
-41.5316
-41.777
-41.1511
-42.3842
-42.6829
-44.251
-42.1849
-40.7333
-42.0677
-41.9639
-41.2935
-37.6642
-37.265
-39.2048
-37.6799
-37.7783
-39.4721
-38.7948
-39.2107
-40.9446
-40.3753
-39.3333
-41.6827
-58.5592
-44.2431
-50.9888
-20.6708
-51.0733
-46.6874
-48.0308
-49.2151
-59.6547
-58.1982
-56.753
-66.9331
-28.7324
-16.8351
-6.26046
-34.5446
-50.0926
-46.129
-47.5387
-49.2962
-46.0456
-44.8479
-46.3157
-45.2275
-52.3336
-53.8469
-52.4507
-56.2832
-59.9325
-61.644
-63.1198
-58.2982
-43.5929
-47.2901
-40.1369
-47.1462
-42.2834
-42.7128
-44.2214
-42.1638
-38.9409
-38.1985
-39.2389
-38.9698
-41.1492
-41.4777
-41.7262
-41.085
-39.731
-42.1623
-41.9082
-41.3154
-40.5906
-40.3042
-39.523
-41.1318
-37.6459
-37.2474
-39.1814
-37.6681
-37.7519
-39.4486
-38.7796
-39.1671
-58.4535
-44.3194
-50.9567
-21.0512
-28.7906
-16.8134
-6.14285
-34.306
-50.8811
-46.5919
-47.9201
-49.1032
-59.6711
-58.2228
-56.7228
-66.9781
-50.1245
-46.1042
-47.4379
-49.312
-59.9048
-61.649
-63.1182
-58.297
-45.9957
-44.8468
-46.3197
-45.2342
-52.3622
-53.9737
-52.4543
-56.2868
-109.202
-77.1496
-89.5547
-90.1296
157.75
191.695
174.807
165.935
-79.8898
-65.0479
-72.4403
-72.5684
145.663
196.333
185.066
185.065
-55.377
-55.8199
-60.4781
-52.4329
-52.3619
-52.3215
-55.4078
-50.3314
-41.5141
-45.587
-43.4184
-42.9555
-33.0168
-32.3393
-33.36
-33.0431
-42.243
-49.6266
-45.1229
-45.1581
-35.2844
-34.001
-35.0048
-34.9965
-49.2988
-50.4544
-48.3711
-52.2449
-44.4576
-46.0886
-44.7675
-45.3006
-31.1275
-19.982
-25.6836
-25.692
109.943
153.349
154.953
155.042
-52.6685
-54.6258
-48.7398
-60.2113
-13.754
-8.03243
-15.3793
-2.71326
-31.8171
-33.0169
-32.4631
-32.4578
-28.2916
-29.305
-29.0995
-29.1653
-46.8088
-49.4651
-46.8451
-48.7123
-38.6863
-37.6426
-39.9872
-36.3475
-109.157
-77.1692
-89.4929
-90.1366
157.823
191.637
166.462
174.911
-55.688
-56.0298
-60.5446
-52.7896
-51.5466
-53.2156
-54.3905
-51.3843
-41.3922
-45.4706
-42.8307
-43.2844
-32.9796
-32.2438
-33.2753
-32.9446
-49.2381
-50.3834
-48.3101
-52.1585
-44.2724
-46.5218
-44.8383
-46.2639
-52.7427
-54.712
-60.292
-48.8064
-13.901
-7.956
-2.76616
-15.4159
-46.7774
-49.3372
-48.7653
-46.6163
-38.6763
-37.6386
-36.3391
-39.9825
-41.7069
-41.8674
-41.6288
-41.0681
-38.5599
-38.5079
-38.3589
-38.1914
-43.5048
-43.6431
-41.9825
-41.2404
-43.8915
-43.8741
-43.2192
-45.0033
-49.1622
-48.8913
-51.5553
-51.469
-42.3442
-40.3178
-41.2607
-41.337
-42.563
-43.3657
-42.1243
-43.9851
-42.2598
-47.563
-44.9616
-44.4831
-38.4629
-37.9998
-38.2291
-38.1825
-44.0305
-44.5858
-44.1636
-44.0447
-50.8999
-47.5472
-49.1446
-49.4205
-75.3483
-84.6691
-83.3062
-78.1286
18.6109
15.0415
19.718
19.6622
-73.0594
-89.5668
-87.4367
-87.4447
-71.2433
-78.2009
-73.9317
-73.932
-51.0569
-44.0168
-47.4746
-47.4771
-41.6708
-41.8503
-41.5919
-41.0592
-38.5817
-38.6388
-38.3885
-38.2338
-43.5035
-43.7331
-41.2745
-42.0501
-43.8448
-43.8458
-43.1805
-44.9627
-42.5619
-43.3726
-43.9903
-42.1254
-42.2324
-47.5012
-44.9189
-44.4323
-51.0297
-47.639
-49.6136
-49.1417
-75.3875
-84.6496
-78.1007
-83.3006
-110.589
-88.1694
-89.2756
-76.1877
-42.2626
-41.8251
-45.5714
-42.3395
-45.4378
-45.5351
-44.4144
-43.8382
-110.905
-90.3271
-90.4355
-76.3174
-110.41
-87.9711
-89.1616
-76.0813
-110.957
-90.3517
-90.4466
-76.3084
-45.3638
-45.4206
-44.4841
-43.7844
-42.3163
-41.8375
-45.8348
-42.4531
-81.9154
-72.4722
-71.7884
-64.2062
-81.1195
-71.4677
-71.5431
-64.4437
-48.6387
-47.8674
-47.8315
-49.9165
-48.46
-47.8784
-47.2706
-49.7874
-35.1974
-33.4377
-27.4893
-25.0756
9.58967
14.1033
8.75921
17.0308
9.99356
14.0752
8.32449
16.9232
-35.242
-33.4863
-27.5209
-25.1065
157.301
159.374
168.309
181.201
61.1277
82.4462
133.335
151.348
82.1014
60.1484
151.356
133.176
159.489
157.632
181.207
168.423
-40.6844
-41.4979
-41.1739
-41.7128
-41.3948
-39.9955
-41.0937
-41.3996
-47.3534
-49.0633
-46.2897
-48.1136
-49.6879
-51.6257
-47.6894
-49.3431
-40.629
-41.4472
-41.1336
-41.6684
-49.6161
-51.5602
-47.636
-49.1988
-47.3769
-49.1174
-46.3093
-48.1527
-41.3809
-39.9842
-41.0974
-41.3958
-39.8998
-41.2036
-39.4631
-40.8617
-41.094
-39.8134
-40.7515
-39.408
-38.3444
-38.0167
-38.1161
-37.8045
-38.0054
-38.3197
-37.7748
-38.0604
-86.4212
-71.6647
-86.3779
-84.1285
-65.712
-67.9087
-72.6061
-72.1565
-67.9054
-65.7178
-72.1546
-72.6333
-71.576
-86.4132
-84.1223
-86.3926
-43.0777
-41.578
-45.9126
-44.3845
-42.3879
-46.2149
-44.6043
-49.8239
-41.1651
-41.4036
-42.4164
-43.5255
-49.1934
-47.9435
-48.0547
-47.1486
-43.0264
-41.5277
-45.8684
-44.3439
-49.0255
-48.0016
-47.9535
-47.1067
-41.1101
-41.3122
-42.3122
-43.4342
-42.2652
-46.0948
-44.4758
-49.7007
-42.579
-42.8296
-43.0938
-44.0095
-41.4662
-42.1944
-44.3636
-44.4155
-43.4646
-45.1355
-45.0908
-46.8928
-43.5672
-45.7446
-45.6184
-48.3713
-48.4663
-51.7099
-44.9959
-47.5984
-32.2723
-33.4261
-32.8571
-33.8641
-32.2478
-33.404
-32.841
-33.8477
-48.466
-51.7125
-44.9934
-47.5889
-35.2028
-35.4675
-34.8463
-35.0406
-35.4414
-35.1606
-35.0139
-34.8139
-30.6542
-32.3542
-30.1723
-31.82
-32.4615
-30.8128
-31.9201
-30.3229
-73.5462
37.1813
-122.944
-24.968
-117.67
-99.8084
-40.1561
-36.8399
-43.2494
-37.539
-42.3628
-45.4031
-71.6766
41.1236
-60.8432
24.1814
-74.6149
-58.9251
-37.6548
-33.4397
-31.4435
-31.5251
-37.0808
-32.6417
-122.707
-25.0395
-72.9575
34.7278
-117.183
-99.4525
-43.3137
-37.443
-40.0376
-36.7531
-42.2525
-45.3149
-61.1714
31.4963
-71.9164
44.8671
-74.5663
-58.5786
-31.3883
-31.3961
-37.5664
-33.3078
-36.9706
-32.586
-41.3955
-43.6279
-39.886
-40.3748
-42.1753
-40.7047
-42.7364
-41.7517
-41.097
-41.662
-38.8321
-38.5502
-38.9642
-38.882
-39.6523
-42.3046
-57.5985
-71.8973
-53.7611
-54.1397
-56.8935
-71.5967
-55.8886
-74.864
-50.528
-52.1354
-49.3941
-49.4232
-51.2797
-54.6887
-56.8521
-53.7613
-41.1255
-43.3555
-42.5629
-41.6431
-39.7837
-40.2711
-41.9962
-40.5948
-40.6687
-41.3934
-39.5818
-41.819
-38.8425
-38.5387
-38.9598
-38.8535
-57.3477
-73.8448
-56.1537
-74.2979
-53.5093
-53.9687
-56.7895
-71.659
-50.5645
-52.1199
-56.8573
-53.7236
-49.5243
-49.4206
-51.2193
-54.6935
-76.138
50.0545
-68.4638
49.8279
-124.797
-117.713
128.324
106.889
-108.298
-4.8216
-108.731
-4.63173
-91.8283
-91.7415
92.7385
92.8504
-60.7709
-57.9516
-48.9632
-45.4538
-58.9605
-51.271
-54.4393
-49.0465
-38.4276
-35.1658
-37.1305
-33.5215
-39.9779
-39.6416
-34.3634
-33.3476
-41.4836
-37.7805
-41.7878
-37.7916
-41.5236
-41.4616
-35.6593
-35.6545
-53.4738
-47.3786
-44.6445
-43.2956
-46.5147
-51.3836
-43.8524
-45.2665
-44.3095
-79.4698
-44.3481
-79.6624
-37.4484
-37.4537
55.705
55.6833
-59.8325
-36.422
-47.1133
-19.748
-48.2488
-57.9533
-23.4324
-14.992
-30.6459
-27.1122
-30.625
-27.0033
-31.0777
-31.0685
-26.5847
-26.6675
-40.8361
-37.6069
-46.4004
-45.7841
-44.2369
-46.1388
-41.6259
-37.6196
-75.4335
45.3581
-68.2728
49.6982
-124.588
-117.532
106.652
127.9
-60.4728
-57.802
-51.2451
-49.8637
-58.8306
-52.1697
-53.8687
-49.8518
-38.3303
-35.0955
-36.833
-33.4335
-39.4827
-39.8667
-34.3181
-33.2434
-53.3581
-47.6448
-44.5952
-43.4974
-46.4832
-51.3042
-44.0356
-45.4292
-59.8679
-36.4684
-47.1912
-19.8326
-58.0105
-48.3206
-15.2395
-23.5452
-40.7725
-37.5809
-46.3867
-45.7619
-46.1239
-44.1105
-37.5921
-41.6158
-39.7121
-38.5176
-39.0134
-37.3302
-40.5145
-40.2977
-38.3968
-38.1189
-42.1421
-42.1284
-44.6891
-45.5825
-42.5529
-43.3131
-42.8239
-44.7319
-44.5428
-42.7016
-44.6644
-42.5952
-46.9152
-46.8438
-42.3064
-42.3222
-40.3296
-40.4278
-44.0221
-43.7427
-41.3786
-43.5328
-41.2596
-42.1538
-39.2566
-39.0237
-39.4623
-39.5792
-38.8943
-38.8658
-41.1094
-40.9311
-56.2079
-63.1011
-55.2263
-61.5898
-53.2359
-52.8801
-69.0278
-65.0106
-0.923158
-32.3529
-0.942636
-32.2455
11.0485
10.9985
-46.9161
-46.817
-64.7986
-58.6876
-64.7972
-58.6916
-67.9046
-67.903
-55.3425
-55.3448
-39.6708
-38.4722
-38.4446
-37.3234
-40.4853
-40.2296
-38.3803
-38.1218
-42.1086
-42.0695
-44.6262
-45.5113
-43.2665
-42.5051
-42.7735
-44.6732
-40.3128
-40.4034
-44.0203
-43.7389
-43.5375
-41.3711
-41.2311
-42.1534
-56.2047
-63.1045
-55.2474
-61.6628
-52.9663
-53.2259
-65.0343
-69.0285
-67.8228
-67.0919
-60.751
-52.536
-51.2529
-59.5702
-50.2703
-49.1758
-67.8733
-67.1365
-60.8434
-52.7601
-59.6611
-51.3545
-49.2775
-50.4358
-58.7922
-58.9292
-54.6343
-51.5095
-55.5412
-50.8768
-48.0875
-48.6823
-15.4495
-15.4427
-11.4116
1.2128
1.30441
-11.3827
7.20798
7.19873
201.386
175.874
201.824