# vtk DataFile Version 2.0
tri_press
ASCII
DATASET UNSTRUCTURED_GRID
POINTS 3682 float
-0.769056 0.215 -1.985
-0.711513 0.365 2.165
-0.806867 0.785 -1.935
-0.725548 0.975 2.055
0.76905 0.215 -1.985
0.711508 0.365 2.165
0.806862 0.785 -1.935
0.725542 0.975 2.055
-0.796754 0.218121 -0.601667
-0.811455 0.234239 0.781667
-0.840212 0.908785 -0.605
-0.801045 0.960058 0.725
0.796743 0.218127 -0.601667
0.811449 0.23424 0.781667
0.840197 0.908775 -0.605
0.801025 0.960043 0.725
-1.57533 -0.168014 -3.06501
-1.57825 -0.123305 -1.9797
-1.5946 -0.115501 -0.594991
-1.59054 -0.0971469 0.800455
-1.53115 -0.00309308 2.18607
-1.51252 0.0611419 3.2758
-1.5173 0.109105 4.35734
-1.57753 0.150404 -3.05918
-1.58285 0.208428 -1.9797
-1.60349 0.228247 -0.605368
-1.58931 0.242002 0.773767
-1.50177 0.330699 2.14912
-1.49164 0.393325 3.23811
-1.50579 0.44135 4.32138
-1.59459 0.763387 -3.03256
-1.6136 0.820598 -1.95088
-1.63413 0.910354 -0.6129
-1.58939 0.947529 0.721299
-1.50797 0.977758 2.0603
-1.49524 1.03896 3.15148
-1.50702 1.09584 4.24336
-1.60617 1.74521 -3.03273
-1.61607 1.81033 -1.95903
-1.6233 1.90385 -0.638346
-1.609 1.96997 0.670843
-1.57884 2.01041 1.99209
-1.55888 2.04857 3.06695
-1.54938 2.09532 4.153
-0.777165 -0.164587 -3.06845
-0.775784 -0.118011 -1.98472
-0.792174 -0.120414 -0.594318
-0.807667 -0.102003 0.807197
-0.766128 0.0155933 2.19786
-0.749227 0.0748425 3.2838
-0.751543 0.116739 4.36197
-0.775978 0.149745 -3.06024
-0.728145 0.407363 3.2447
-0.741207 0.448577 4.32487
-0.78863 0.749015 -3.02597
-0.731129 1.04184 3.15042
-0.741535 1.0988 4.24313
-0.799445 1.7363 -3.02621
-0.807189 1.80235 -1.95185
-0.818518 1.90346 -0.634015
-0.817791 1.97323 0.670324
-0.801367 2.01118 1.98837
-0.785338 2.04826 3.06324
-0.775847 2.09528 4.15031
0.798538 -0.164587 -3.06845
0.787884 -0.11801 -1.98472
0.800893 -0.120411 -0.594318
0.789149 -0.102002 0.807197
0.725451 0.0155933 2.19786
0.746001 0.0748419 3.2838
0.764529 0.116738 4.36197
0.79898 0.149744 -3.06024
0.747981 0.407362 3.2447
0.767338 0.448575 4.32487
0.811143 0.749013 -3.02597
0.752835 1.04184 3.15042
0.769619 1.0988 4.24313
0.813573 1.73629 -3.02621
0.812903 1.80235 -1.95185
0.800987 1.90345 -0.634016
0.77435 1.97322 0.670324
0.754637 2.01118 1.98837
0.757156 2.04825 3.06324
0.765935 2.09528 4.15031
1.59183 -0.168016 -3.06501
1.58432 -0.123306 -1.9797
1.59823 -0.1155 -0.594991
1.58281 -0.0971478 0.800455
1.5147 -0.00309414 2.18607
1.51336 0.0611403 3.27581
1.5302 0.109102 4.35734
1.59248 0.150402 -3.05918
1.58122 0.208426 -1.9797
1.60275 0.228247 -0.605368
1.593 0.241999 0.773767
1.50861 0.330698 2.14912
1.50969 0.393323 3.23811
1.52982 0.441348 4.32138
1.60865 0.763383 -3.03256
1.6113 0.820593 -1.95088
1.63143 0.910342 -0.6129
1.59176 0.947514 0.721298
1.51565 0.977754 2.0603
1.51501 1.03896 3.15148
1.53269 1.09584 4.24336
1.61689 1.74521 -3.03273
1.61775 1.81032 -1.95903
1.60634 1.90384 -0.638347
1.57333 1.96995 0.670843
1.54162 2.01041 1.99209
1.53562 2.04856 3.06695
1.54098 2.09531 4.153
-0.814325 0.5 -1.98636
-3.01003e-06 0.211225 -1.98877
-0.785832 0.213634 -1.29333
-0.755608 0.67 2.14708
-2.5034e-06 0.322173 2.20783
-0.796167 0.264936 1.47333
-2.5034e-06 0.86164 -2.01164
-0.847644 0.870997 -1.27
-3.01003e-06 1.03294 2.11294
-0.789655 0.993887 1.39
0.814368 0.5 -1.98641
0.787841 0.211619 -1.29333
0.755596 0.67 2.14707
0.796974 0.264124 1.47333
0.8476 0.870958 -1.27
0.789656 0.993894 1.39
-0.805729 0.224556 0.09
-0.868109 0.563453 -0.603333
-5.49377e-06 0.19189 -0.601667
-0.890835 0.597148 0.753333
-3.38087e-06 0.192434 0.781667
-0.824177 0.93797 0.0600001
-7.26892e-06 1.24811 -0.605
-1.01615e-05 1.36768 0.725
0.805748 0.224531 0.09
0.868121 0.563451 -0.603333
0.89083 0.597141 0.753333
0.824172 0.93797 0.0600001
-0.894485 0.531727 -1.28167
0.894501 0.531726 -1.28167
-4.2519e-06 0.212303 -1.29333
-4.88616e-06 0.978018 -1.27
-2.75671e-06 0.5 -2.27261
-0.88455 0.580301 0.075
0.884547 0.580296 0.075
-4.43732e-06 0.191145 0.09
-8.71523e-06 1.38287 0.0600001
-0.883208 0.633574 1.43167
0.88321 0.633571 1.43167
-2.94213e-06 0.26694 1.47333
-6.58579e-06 1.20435 1.39
-2.75671e-06 0.67 2.29634
-0.797886 0.3575 -1.99188
-0.38453 0.211248 -1.98875
-0.780896 0.210864 -1.63917
-0.744358 0.5175 2.16684
-0.355758 0.332799 2.1972
-0.789882 0.278926 1.81917
-0.816263 0.6425 -1.96635
-0.403435 0.834351 -1.98435
-0.843061 0.843804 -1.6025
-0.726935 0.8225 2.0874
-0.362776 1.021 2.101
-0.758211 0.985053 1.7225
0.384523 0.211245 -1.98876
0.797892 0.3575 -1.99189
0.780686 0.211069 -1.63917
0.355753 0.332827 2.19717
0.74435 0.5175 2.16683
0.791154 0.277649 1.81917
0.40343 0.834351 -1.98435
0.816273 0.6425 -1.96636
0.843074 0.843822 -1.6025
0.362769 1.021 2.101
0.726929 0.8225 2.0874
0.758206 0.985054 1.7225
-0.801216 0.205954 -0.9475
-0.802908 0.219671 -0.255833
-0.844458 0.384774 -0.6025
-0.401875 0.198016 -0.601667
-0.799438 0.25396 1.1275
-0.808614 0.229376 0.435833
-0.863837 0.409347 0.7675
-0.412316 0.200163 0.781667
-0.845661 0.891624 -0.9375
-0.870733 0.744405 -0.604167
-0.83212 0.923303 -0.2725
-0.474862 1.18796 -0.605
-0.808025 0.989647 1.0575
-0.870907 0.791086 0.739167
-0.812862 0.949265 0.3925
-0.483631 1.33008 0.725
0.801257 0.205907 -0.9475
0.401865 0.198017 -0.601667
0.802903 0.219671 -0.255833
0.844454 0.384778 -0.6025
0.799401 0.253992 1.1275
0.41231 0.200163 0.781667
0.808608 0.229376 0.435833
0.863852 0.409334 0.7675
0.845629 0.891597 -0.9375
0.474851 1.18796 -0.605
0.87073 0.744399 -0.604167
0.832119 0.923307 -0.2725
0.808028 0.989656 1.0575
0.483614 1.33008 0.725
0.870904 0.791081 0.739167
0.812864 0.949272 0.3925
-0.888609 0.515863 -1.63402
-0.407164 0.5 -2.20782
-3.63097e-06 0.212146 -1.64105
-2.88337e-06 0.355613 -2.29645
-0.873904 0.37268 -1.2875
-0.392918 0.212311 -1.29333
-0.849238 0.651787 1.78937
-0.377805 0.67 2.27604
-2.72276e-06 0.290955 1.84058
-2.63005e-06 0.496086 2.28762
-0.870696 0.449255 1.4525
-0.398085 0.266923 1.47333
-3.69478e-06 0.941712 -1.64082
-2.63005e-06 0.68082 -2.27311
-0.8943 0.701362 -1.27583
-0.423825 0.964126 -1.27
-4.79791e-06 1.06705 1.75147
-2.88337e-06 0.851471 2.20322
-0.872159 0.813731 1.41083
-0.394831 1.18216 1.39
0.888608 0.515863 -1.63404
0.407183 0.5 -2.20782
0.873716 0.371672 -1.2875
0.393918 0.212311 -1.29333
0.849231 0.651785 1.78937
0.377797 0.67 2.27604
0.870704 0.448847 1.4525
0.398486 0.264496 1.47333
0.894298 0.701342 -1.27583
0.423797 0.964132 -1.27
0.872134 0.813732 1.41083
0.394825 1.18231 1.39
-0.861686 0.394155 0.0825
-0.407609 0.198365 0.09
-0.870111 0.54759 -0.9425
-0.87635 0.571877 -0.264167
-4.87284e-06 0.18514 -0.9475
-4.96555e-06 0.192026 -0.255833
-0.888567 0.588724 0.414167
-0.884045 0.615361 1.0925
-3.90909e-06 0.192298 0.435833
-3.1615e-06 0.242957 1.1275
-0.880269 0.772088 0.0675
-0.506044 1.34832 0.0600001
-6.07754e-06 1.04187 -0.9375
-7.99207e-06 1.35936 -0.2725
-9.43838e-06 1.38295 0.3925
-8.37366e-06 1.30965 1.0575
0.861686 0.394144 0.0825
0.407609 0.198365 0.09
0.870075 0.547588 -0.9425
0.876346 0.571874 -0.264167
0.888561 0.588719 0.414167
0.884046 0.615356 1.0925
0.880265 0.772086 0.0675
0.506033 1.34832 0.0600001
-0.869334 0.36509 -1.63659
-0.877312 0.381734 -0.945
-0.872889 0.71874 -0.94
-0.891776 0.671931 -1.61826
0.869092 0.364586 -1.6366
0.891774 0.671921 -1.61827
0.872434 0.718727 -0.94
0.877319 0.381231 -0.945
-0.388724 0.212147 -1.64011
0.389221 0.212147 -1.64011
0.396143 0.185324 -0.9475
-0.395649 0.185324 -0.9475
-0.41363 0.921654 -1.62166
-0.421967 1.00434 -0.9375
0.421946 1.00432 -0.9375
0.413614 0.921643 -1.62166
-0.395847 0.356556 -2.21919
-0.405299 0.66166 -2.18396
0.405306 0.66166 -2.18393
0.395853 0.356556 -2.21919
-0.853075 0.389463 -0.26
-0.864816 0.400724 0.425
-0.877986 0.782786 0.403333
-0.877139 0.759066 -0.268333
0.853069 0.389461 -0.26
0.877136 0.759062 -0.268333
0.877987 0.782785 0.403333
0.864817 0.400715 0.425
-0.404742 0.198191 -0.255833
0.404736 0.198191 -0.255833
0.409623 0.199936 0.435833
-0.409627 0.199936 0.435833
-0.516548 1.32033 -0.2725
-0.499275 1.34807 0.3925
0.499262 1.34807 0.3925
0.516593 1.32044 -0.2725
-0.871396 0.432474 1.11
-0.842575 0.483378 1.80427
-0.816585 0.818115 1.75594
-0.865566 0.796167 1.075
0.871279 0.432269 1.11
0.865567 0.796162 1.075
0.816583 0.818116 1.75593
0.842572 0.483174 1.80427
-0.401907 0.242947 1.1275
0.402104 0.242947 1.1275
0.377119 0.290275 1.82987
-0.376921 0.290276 1.82987
-0.397679 1.28425 1.0575
-0.378803 1.05188 1.73699
0.378797 1.05188 1.73699
0.397666 1.28424 1.0575
-0.366781 0.506793 2.28425
0.366775 0.506793 2.28427
0.370283 0.836986 2.17785
-0.37029 0.836986 2.17786
-0.786403 0.28625 -1.99137
-0.576793 0.211267 -1.98873
-0.777705 0.210203 -1.81208
-0.731387 0.44125 2.16937
-0.533635 0.348254 2.18175
-0.756195 0.316465 1.99208
-0.816984 0.71375 -1.95609
-0.605151 0.806375 -1.95638
-0.833053 0.822491 -1.76875
-0.72581 0.89875 2.07077
-0.544162 1.00237 2.08237
-0.741221 0.979368 1.88875
0.576787 0.211264 -1.98874
0.786385 0.28625 -1.99136
0.77748 0.210423 -1.81208
0.53363 0.348351 2.18165
0.731386 0.44125 2.16937
0.756192 0.316464 1.99208
0.605146 0.806378 -1.95638
0.816968 0.71375 -1.95608
0.832962 0.822405 -1.76875
0.544156 1.00238 2.08238
0.725825 0.89875 2.07079
0.741325 0.979478 1.88875
-0.792665 0.218357 -0.774583
-0.800721 0.218006 -0.42875
-0.82243 0.300536 -0.602083
-0.604017 0.198663 -0.601667
-0.797501 0.252045 0.954583
-0.810037 0.231804 0.60875
-0.843212 0.31901 0.774583
-0.620012 0.200949 0.781667
-0.844057 0.901325 -0.77125
-0.86221 0.829964 -0.604583
-0.836167 0.916045 -0.43875
-0.686994 1.10728 -0.605
-0.803915 0.974232 0.89125
-0.852754 0.883961 0.732084
-0.806705 0.954412 0.55875
-0.677715 1.21582 0.725
0.792651 0.218365 -0.774583
0.604008 0.198664 -0.601667
0.800716 0.218005 -0.42875
0.822448 0.300527 -0.602083
0.797394 0.252148 0.954583
0.620006 0.200949 0.781667
0.810035 0.231801 0.60875
0.84321 0.319007 0.774583
0.844049 0.901322 -0.77125
0.686981 1.10728 -0.605
0.862215 0.829963 -0.604583
0.836163 0.916046 -0.43875
0.80391 0.974233 0.89125
0.677714 1.21585 0.725
0.852741 0.88395 0.732084
[...]
POINT_DATA 3682
SCALARS point_scalars float 1
LOOKUP_TABLE default
-126.01
-36.9614
-82.1042
-38.6451
-126.095
-36.8255
-81.9119
-38.6419
-35.3933
-41.761
-54.1109
-47.0888
-35.3705
-42.3949
-54.102
-47.1321
-17.5014
-105.653
-35.2429
-39.3296
-40.8402
-36.463
-32.1335
36.4329
-125.543
-35.6011
-38.5504
-40.3345
-33.4344
-31.8405
16.2056
-103
-46.5124
-43.272
-38.6
-34.955
-32.1153
-20.4429
-71.9793
-76.951
-56.5924
-37.2686
-39.026
-39.026
1.75064
-149.944
-36.9531
-45.3956
-39.7029
-31.6217
-30.277
109.113
-30.6628
-29.7568
155.659
-31.1138
-30.413
-5.94132
-56.5124
-76.3061
-62.5518
-36.0168
-32.3649
-31.1455
7.31007
-147.955
-36.8313
-46.1946
-39.0059
-31.505
-30.1625
109.369
-30.5683
-30.0192
152.655
-31.0457
-30.3238
-5.95745
-56.5219
-76.1849
-63.5246
-35.7001
-31.7534
-31.0781
-45.208
-105.38
-35.2201
-39.721
-40.479
-36.3309
-32.0292
36.2655
-125.702
-35.5882
-38.5341
-40.2233
-33.8505
-31.9891
16.3699
-102.468
-46.5121
-43.2745
-38.5159
-34.8581
-32.0383
-20.7124
-71.9236
-76.7236
-56.7246
-37.2198
-38.9736
-38.9736
-59.8623
-111.025
-48.8868
-35.1742
-28.1596
-37.3916
-38.9935
-47.0472
-31.8123
-46.872
-59.8887
-48.4772
-35.0749
-37.4179
-47.0558
-46.8543
-36.4062
-37.4995
-40.6994
-40.0523
-45.6197
-53.7757
-7.8623
-65.959
-36.3939
-37.4908
-40.0345
-53.6711
-53.4406
-53.4806
-51.1594
-7.25522
203.19
-40.5127
-40.4959
-38.2266
-84.8587
-42.5659
-42.5299
-34.8857
-42.7593
-25.1272
-72.1119
-124.133
-71.6372
-36.0139
-32.0632
-42.3858
-63.7971
-43.105
-60.7626
-36.1574
-31.9133
-39.6998
-124.132
-71.3755
-71.5721
-31.9402
-35.9859
-42.2812
-43.0773
-65.7495
-60.78
-31.8735
-36.0706
-39.6511
-46.2056
-35.7252
-35.6315
-40.4054
-36.9115
-37.8188
-38.5891
-45.0172
-43.1363
-42.2581
-55.116
-13.9489
-48.0649
-42.2029
-51.1081
-62.3307
-46.1388
-40.4006
-35.699
-35.6187
-36.8941
-44.9931
-37.8104
-38.5682
-43.1278
-13.9376
-42.2496
-55.1834
-48.0348
-62.3262
-42.1995
-51.1364
-80.6135
173.351
-70.6871
127.467
-52.4102
-51.0471
-43.9366
-30.0903
-32.585
-20.5113
-41.5581
-35.1379
-35.576
175.639
-52.6904
-16.0452
-36.4215
-28.3878
-45.6751
-43.5135
-80.5884
173.349
-52.5294
-51.0456
-43.8796
-29.9913
-41.5225
-35.1638
-52.7219
-16.0434
-45.6464
-43.5121
-38.0794
-37.7602
-43.8713
-38.9232
-43.5055
-38.2701
-40.9645
-39.6982
-40.0675
-37.6929
-45.8876
-77.6937
20.8967
-99.6643
-72.3863
-53.5236
-38.0662
-37.7523
-43.8708
-38.91
-40.9535
-39.6518
-45.8352
-77.6805
-78.5024
-47.1343
-43.5953
-77.8925
-78.4321
-77.8712
-43.5779
-47.1283
-71.8842
-71.8588
-43.9216
-43.9128
-39.9643
3.98366
4.00887
-39.9753
115.164
139.774
140.007
116.266
-36.5167
-39.1966
-45.0802
-45.0639
-36.5012
-45.0603
-45.0806
-39.1865
-37.7121
-37.7036
-39.5409
-39.5514
-94.0295
-66.9118
-66.899
-94.1344
-38.3455
-43.7324
-41.586
-40.8115
-38.2832
-40.7782
-41.533
-43.6789
-37.6085
-37.5729
-33.5126
-33.5852
-53.5665
-36.9511
-36.9387
-53.5622
-29.0016
-28.8616
-30.3156
-30.3896
-85.46
-137.008
-99.8071
-36.9506
-35.2321
-40.2262
-62.9107
-52.9247
-72.726
-37.1485
-33.0457
-37.3754
-136.956
-85.3906
-98.7792
-35.1003
-36.5857
-40.0772
-52.8624
-62.9858
-72.6313
-32.983
-37.0696
-37.3249
-37.9565
-35.2425
-35.1812
-38.9145
-38.7804
-38.6953
-38.4335
-45.7849
-48.4428
-47.2214
-55.957
-56.0105
-46.2789
-44.3257
-49.3875
-55.4806
-37.9198
-38.9021
-35.2247
-35.1649
-38.7065
-45.7445
-38.7107
-38.4175
-48.4427
-56.192
-47.2119
-56.0038
-46.3289
-55.4877
-44.3346
-49.3888
-64.88
-57.4153
-124.778
121.222
-116.868
-116.828
-87.4554
28.67
-57.4259
-43.2083
-51.5349
-50.0847
-35.2418
-35.2188
-39.8109
-31.0615
-29.3814
-29.2958
-30.6297
-23.7769
-38.8954
-36.1562
-40.8216
-35.757
-41.2173
-41.2532
-38.0573
5.15103
-53.7864
-43.2015
-51.6803
-27.8836
-31.6982
-31.6839
-34.0832
-29.1284
-43.8246
-49.7016
-45.7947
-45.4101
-65.093
-56.8736
-124.773
121.198
-57.1965
-44.083
-51.7146
-50.0977
-35.2095
-35.1294
-39.7213
-30.992
-38.5666
-36.0437
-40.7781
-35.7477
-53.6548
-43.205
-51.7287
-27.8719
-43.8397
-49.7236
-45.7617
-45.395
-35.9089
-37.2842
-37.1469
-37.0347
-36.4048
-39.2013
-38.033
-38.238
-40.5898
-40.5878
-42.8929
-39.1778
-39.11
-41.3203
-40.5926
-39.9122
-46.065
-46.0549
-41.9399
-40.2458
-54.7448
-52.9239
-49.2403
-63.1774
-11.4042
-11.3774
25.6043
-83.0979
-65.3347
-65.1838
-69.5316
-59.8194
-35.8912
-37.2706
-37.1354
-37.0247
-36.3959
-39.1932
-38.0288
-38.2254
-39.0892
-41.3111
-40.5857
-39.887
-54.6072
-52.8958
-49.0711
-63.1521
-63.5505
-53.5138
-53.1196
-49.5197
-63.5506
-53.5985
-53.1528
-49.5411
-59.366
-51.3075
-51.3048
-44.8061
-20.1776
-9.85897
-9.87398
5.14666
192.389
188.506
203.147
192.429
-39.0124
-39.6905
-41.1983
-42.4762
-38.9982
-39.6767
-41.1862
-42.4519
-38.0733
-37.9529
-38.8489
-38.0688
-83.4678
-90.5186
-77.4456
-83.4687
-44.9644
-42.0422
-43.7648
-40.6918
-44.9282
-41.9869
-43.7415
-40.6535
-33.7863
-34.9736
-34.9709
-36.128
-38.7982
-42.8823
-42.8791
-47.5408
-27.5734
-21.0549
-26.7038
-27.4576
-117.64
70.5898
-91.466
12.6099
-77.2109
-71.7457
-40.0574
-30.7159
-32.8754
-29.2762
-43.5712
-35.7022
-110.061
97.9449
-42.1417
6.39029
-73.2687
-45.95
-39.076
-31.2533
-34.2438
-30.4707
-40.4814
-37.7044
-91.4566
12.8185
-117.872
70.5516
-77.0419
-71.6837
-32.7643
-29.1432
-39.9531
-30.6273
-43.5753
-35.6735
-42.1817
6.31309
-109.99
97.9513
-73.2689
-45.921
-34.2218
-30.4008
-39.0036
-31.1802
-40.4296
-37.6856
-48.5316
-43.5688
-35.8299
-37.0534
-37.341
-35.9599
-42.7027
-38.3376
-37.6063
-37.0971
-38.4996
-38.8435
-39.0812
-38.6025
-41.4521
-40.2193
-45.4607
-16.7749
-40.3694
-44.2075
-49.3097
-76.0099
7.85146
-64.1113
-43.4317
-54.0963
-43.8323
-42.6368
-47.4738
-58.2989
-65.3412
-58.8395
-48.5192
-43.5857
-42.7031
-38.3298
-35.8105
-37.0408
-37.3239
-35.9454
-37.5337
-37.0569
-41.4364
-40.1895
-38.4892
-38.8336
-39.0756
-38.5441
-45.4395
-16.7547
7.86099
-64.016
-40.3665
-44.1943
-49.3079
-76.0796
-43.3998
-54.0837
-65.3322
-58.8308
-43.8337
-42.6226
-47.4821
-58.2784
-80.2633
-79.2771
163.861
166.828
-71.3693
-71.3581
119.943
119.68
-62.3529
-47.8477
-59.5204
-44.7431
-44.2835
-42.9437
-29.2938
-30.1357
-32.8633
-32.9656
-23.5097
-23.3303
-39.5407
-43.9079
-36.2062
-34.5643
-36.0554
-36.0716
170.998
171.168
-49.0899
-61.9684
-27.0645
-6.63839
-36.5934
-36.5876
-29.1391
-29.2047
-45.8374
-44.4304
-48.2315
-39.5643
-80.213
-79.27
166.998
163.915
-62.273
-47.8574
-59.3369
-44.7555
-42.8908
-44.2226
-29.1622
-30.0577
-39.4649
-43.9079
-36.1491
-34.6749
-61.9866
-49.0924
-6.67798
-27.0618
-44.406
-45.7916
-39.5557
-48.2266
-37.2075
-39.1635
-37.3878
-38.3372
-45.1239
-43.4054
-37.5446
-41.1941
-43.864
-43.8521
-38.131
-38.1267
-39.8493
-42.9112
-38.9713
-40.198
-39.932
-39.9381
-37.6809
-37.6629
-45.8565
-45.3417
-84.9767
-71.0231
16.1671
16.206
-98.6721
-98.6814
-71.3545
-71.3491
-53.5059
-53.5101
-37.1931
-39.1515
-37.3796
-38.3289
-43.3944
-45.1305
-37.5299
-41.1849
-42.9051
-39.8384
-38.923
-40.1702
-45.3407
-45.85
-71.0158
-84.9684
-108.932
-61.2053
-63.6924
-122.683
-36.8821
-37.619
-48.7895
-46.7597
-44.1802
-48.6915
-49.2922
-38.7039
-93.8017
-119.464
-62.9687
-60.7795
-108.844
-122.588
-63.6532
-61.0735
-93.8627
-60.7894
-62.9775
-119.426
-44.1839
-38.7016
-49.3029
-48.695
-36.8611
-46.7202
-48.8269
-37.612
-94.0523
-89.1482
-59.606
-58.6664
-94.053
-58.5989
-59.5983
-89.1384
-41.8033
-42.848
-44.9926
-43.8865
-41.8126
-43.7958
-44.9925
-42.8472
-51.8906
-36.0941
-21.6311
-38.3529
-25.8993
20.4139
2.38364
-21.8912
-25.9053
-21.8357
2.3805
20.427
-51.9052
-38.4667
-21.6327
-36.1079
47.0897
108.873
181.688
-11.6031
37.0447
8.31546
191.425
109.466
36.8826
109.468
191.498
20.2775
47.1037
-10.7727
181.897
108.954
-35.3698
-36.3225
-38.2883
-36.8749
-38.751
-39.5436
-39.9514
-38.2445
-46.3375
-48.1108
-43.0577
-42.3157
-48.7824
-40.2227
-41.6546
-48.5863
-35.3522
-36.8617
-38.2746
-36.3084
-48.7655
-48.7444
-41.6423
-40.2113
-46.347
-42.3143
-43.0451
-48.1173
-38.7593
-38.2311
-39.9399
-39.5347
-37.473
-39.0093
-37.8311
-36.6514
-37.4603
-36.6401
-37.8266
-39.0056
-40.6544
-41.7885
-38.7415
-37.7063
-40.6687
-37.7156
-38.7464
-41.7965
-84.2159
-67.9322
-90.082
-76.7158
-56.472
-68.8043
-76.3526
-60.1973
-56.4504
-60.1799
-76.3511
-68.8019
-83.8414
-76.7614
-90.0867
-67.9353
-37.0311
-38.5834
-40.1562
-39.6449
-40.3997
-39.9487
-44.2636
-43.7051
-38.2149
-44.5452
-45.8552
-39.5574
-44.1779
-40.0736
-41.7364
-46.758
-37.0322
-39.6369
-40.114
-38.493
-44.2091
-46.7394
-41.7029
-40.0394
-38.1395
-39.4884
-45.809
-44.5079
-40.2864
-43.7254
-44.2354
-39.8503
-39.4084
-40.2047
-36.155
-36.0524
-39.3104
-36.0086
-36.1356
-40.1904
-35.8473
-31.3176
-33.9979
-35.6536
-35.9215
-35.6367
-33.9901
-31.3637
-55.2042
-49.8633
-47.6255
-59.498
-35.2349
-34.1469
-38.976
-41.0543
-35.2029
-41.0366
-38.971
-34.1372
-55.176
-59.4945
-47.6273
-49.8578
-31.3921
-25.7248
-24.0735
-30.6859
-31.2809
-30.6072
-23.9017
-25.6237
-31.5857
-29.5228
-28.1538
-31.3041
-31.6604
-31.3695
-28.2489
-29.5744
-108.288
-154.067
-126.744
-36.376
-36.133
-39.1315
-63.7648
-51.8721
-76.9846
-37.9584
-34.8518
-36.2902
-153.838
-108.175
-126.913
-36.0009
-36.2375
-38.993
-51.7369
-63.996
-77.0634
-34.7751
-37.9356
-36.24
-35.8453
-35.2572
-35.1976
-37.3878
-41.4033
-39.887
-39.0822
-46.8083
-54.3516
-50.6687
-55.5281
-68.0086
-46.313
-46.1054
-48.0664
-50.4631
-35.8201
-37.3696
-35.2351
-35.1791
-40.6743
-46.8045
-39.954
-39.1918
-54.3359
-68.0142
-50.658
-55.5503
-46.3393
-50.4703
-46.0811
-48.0984
-60.5656
-58.246
-118.471
48.7445
-112.301
-112.28
-99.1536
-49.0555
-52.7598
-45.4203
-50.3352
-49.3695
-35.3483
-35.2262
-37.5863
-31.8695
-28.593
-28.5379
-29.6442
-26.6317
-37.7239
-36.564
-39.8013
-35.9785
-39.7505
-39.7914
-37.2121
-44.3978
-50.4378
-44.788
-50.1774
-37.4473
-31.7805
-31.7729
-32.8388
-30.1325
-45.2584
-48.4701
-45.9479
-46.0807
-60.6246
-57.7536
-118.469
48.5902
-52.3242
-46.2327
-50.4604
-49.4072
-35.2456
-35.1296
-37.4782
-31.7869
-37.8517
-36.4155
-39.8396
-35.965
-50.4381
-44.7758
-50.2065
-37.4597
-45.2378
-48.4543
-45.9121
-46.0758
-36.1595
-36.9623
-36.6749
-36.6504
-36.9128
-38.2049
-37.482
-37.803
-40.6465
-40.6458
-41.6947
-39.8606
-39.484
-40.762
-40.2556
-39.8384
-46.2121
-46.2073
-43.2291
-43.6153
-54.1221
-53.5486
-52.0162
-57.4954
-9.65905
-9.65081
13.7208
-56.3611
-65.8552
-65.8555
-68.1136
-62.621
-36.1456
-36.9482
-36.667
-36.6394
-36.904
-38.1844
-37.475
-37.7922
-39.4648
-40.7469
-40.2459
-39.8263
-53.9263
-53.5084
-51.8627
-57.4614
-57.6825
-53.4704
-53.4599
-50.6092
-57.7099
-53.5254
-53.4953
-50.6453
-54.9713
-51.2439
-51.2423
-47.9454
-13.8067
-7.83117
-7.9747
-1.42451
198.789
201.341
201.824
198.775
-39.692
-40.1012
-40.9593
-41.3064
-39.6764
-40.0841
-40.9444
-41.2867
-38.1843
-37.9201
-38.5418
-38.182
-84.4876
-87.5194
-81.1066
-84.489
-44.2509
-42.304
-43.0419
-41.4585
-44.2219
-42.2602
-43.0106
-41.4236
-34.3189
-34.9383
-34.9361
-35.4396
-40.5285
-42.6739
-42.6734
-45.0103
-24.7696
-21.7418
-27.3104
-24.6696
-79.0457
-66.4684
-122.737
28.5964
-128.36
-120.097
-106.449
-51.5828
-84.6647
-63.685
-74.5398
-71.2036
-35.4477
-35.2888
-37.7294
-31.7458
-33.5281
-30.8228
-33.1749
-30.2631
-42.2678
-39.6975
-43.6927
-37.4523
-63.093
-61.8224
-116.297
43.3449
-47.7234
-42.2574
-41.9173
-49.4826
-69.4572
-58.0389
-67.7803
-51.5584
-36.5061
-35.5727
-39.5892
-32.238
-32.2934
-31.682
-33.0295
-30.8742
-38.3517
-41.5858
-40.0361
-38.7283
-128.48
-120.099
-106.445
-52.619
-77.1078
-66.851
-123.038
28.293
-82.6663
-63.4804
-74.4418
-71.1218
-33.4014
-30.7016
-33.0811
-29.981
-35.3007
-35.2196
-37.6105
-31.6484
-42.2682
-39.8897
-43.7043
-37.5314
-47.5504
-42.2733
-41.968
-49.5098
-64.2288
-61.7161
-116.416
43.3084
-69.4462
-58.0869
-67.8052
-51.5544
-32.2312
-31.6564
-33.0002
-30.8144
-36.4216
-35.4852
-39.5061
-32.1563
-38.3026
-41.5438
-39.9838
-38.7008
-42.9598
-43.0113
-49.7629
-42.4119
-35.4715
-35.8279
-35.723
-36.7343
-35.3917
-35.9326
-36.0045
-35.6745
-40.0099
-40.3916
-41.9402
-39.0512
-36.7246
-36.4227
-37.2161
-36.803
-38.3181
-37.5906
-38.0742
-38.2151
-38.4601
-38.8486
-38.9143
-37.9596
-44.6168
-45.6199
-42.7463
-42.9048
-44.5232
-42.4485
-46.8605
-29.6091
-44.3115
-40.5505
-41.2232
-43.3871
-56.0924
-55.107
-52.0895
-63.247
-26.0757
-9.89687
-0.172315
-33.6879
-46.9693
-48.7834
-46.2654
-52.2238
-42.924
-41.7734
-43.0925
-41.7155
-50.1045
-52.5658
-50.1522
-53.9387
-59.7837
-64.4023
-64.3548
-60.7863
-42.8837
-43.2772
-49.3818
-42.4062
-40.0022
-40.3883
-41.9378
-39.0442
-35.4483
-35.8079
-35.6983
-36.7183
-35.3773
-35.9215
-35.9924
-35.6599
-36.7153
-36.4719
-37.1278
-36.7717
-44.5801
-45.6037
-42.7266
-42.878
-38.3179
-37.5802
-38.0644
-38.207
-38.4377
-38.8235
-38.9082
-37.9246
-44.506
-42.4627
-46.841
-29.6228
-26.2673
-10.0012
-0.105716
-33.6682
-44.3026
-40.5423
-41.2184
-43.3751
-56.035
-55.1205
-52.0854
-63.2444
-46.9752
-48.8077
-46.2163
-52.2197
-59.765
-64.3977
-64.3507
-60.785
-42.9276
-41.767
-43.0915
-41.7074
-50.1023
-52.5402
-50.1604
-53.9239
-98.5693
-71.4653
-80.7642
-80.0133
149.62
184.655
172.981
168.573
-78.1022
-65.2413
-70.9555
-70.9502
81.0369
165.975
116.689
116.431
-52.0244
-53.0126
-56.6039
-49.3808
-50.6591
-51.2864
-54.9432
-47.646
-41.6168
-44.9718
-43.9729
-43.3869
-30.795
-29.2111
-29.3791
-30.4111
-31.5482
-33.3006
-32.6773
-32.6882
-21.0685
-20.6167
-21.2383
-21.1291
-41.3452
-41.8072
-40.3815
-43.2519
-35.4827
-35.1195
-35.6204
-34.9421
-39.9596
-27.4167
-35.8574
-35.8653
119.55
197.18
176.819
176.739
-52.3426
-52.8589
-50.6516
-56.6015
-21.3778
-12.5584
-21.036
-12.118
-35.3738
-37.4473
-36.4894
-36.4866
-28.7719
-27.6298
-28.5645
-28.6074
-45.9404
-44.6989
-47.2664
-45.0282
-44.1859
-43.1076
-45.7471
-41.3566
-98.526
-71.4494
-80.7392
-79.9963
149.678
184.705
168.786
173.064
-52.1739
-53.1242
-56.6138
-49.4364
-50.6628
-51.281
-54.9301
-47.6403
-41.5431
-44.9287
-43.3319
-43.9163
-30.7231
-29.0908
-29.2534
-30.338
-41.3132
-41.7593
-40.3253
-43.2477
-35.4839
-35.1144
-35.4671
-34.9228
-52.3865
-52.8907
-56.6285
-50.706
-21.3722
-12.5513
-12.1241
-21.0306
-45.9054
-44.6779
-45.0064
-47.2281
-44.1756
-43.1013
-41.3441
-45.7398
-37.5462
-38.5735
-37.5963
-38.6971
-37.4146
-37.9274
-37.3602
-38.0814
-40.0712
-47.8349
-44.3352
-43.5953
-38.5736
-39.2955
-38.1054
-39.9157
-45.0381
-41.6626
-43.9976
-43.9956
-38.651
-38.0504
-38.2327
-38.2306
-40.7234
-41.1272
-40.3437
-41.6826
-40.0475
-40.0031
-39.2682
-40.0352
-40.9019
-39.3972
-40.0261
-40.0292
-38.6129
-36.9546
-37.6876
-37.6787
-47.3778
-44.0161
-45.9721
-45.6321
-71.1666
-81.9375
-80.1639
-74.4643
25.8632
10.5165
19.757
19.7691
-95.9475
-96.2542
-99.5894
-99.5919
-71.0185
-74.5933
-72.1517
-72.15
-56.5976
-50.4493
-53.5439
-53.5344
-37.5329
-38.5605
-37.5816
-38.6848
-37.4055
-37.921
-37.352
-38.0734
-40.0674
-47.8431
-43.5937
-44.3382
-38.5611
-39.2835
-38.0906
-39.9044
-40.7116
-41.1162
-41.6729
-40.3322
-40.0017
-39.9618
-39.2202
-39.9946
-47.2905
-43.9813
-45.589
-45.9547
-71.1414
-81.9314
-74.4553
-80.1538
-95.0396
-77.8128
-79.2808
-69.6459
-47.8504
-41.5178
-47.1135
-46.4169
-44.2013
-40.962
-46.4419
-43.4081
-94.5396
-76.7297
-78.4412
-69.2845
-94.8037
-77.6885
-79.1948
-69.593
-94.4838
-76.7002
-78.4358
-69.2727
-44.1852
-40.9329
-46.4207
-43.3896
-47.8753
-41.4991
-47.1787
-46.4136
-80.397
-71.9613
-71.7648
-64.5825
-80.3809
-71.925
-71.7545
-64.5779
-43.7395
-44.824
-41.8586
-44.0175
-43.7232
-44.816
-41.8456
-44.0123
-44.227
-41.4574
-37.7748
-33.1985
-5.4085
8.29562
-2.76703
11.1837
-5.27819
8.35499
-2.81371
11.1573
-44.2374
-41.4557
-37.7956
-33.1975
105.009
77.3041
147.391
109.433
119.18
93.3517
159.664
164.75
93.58
119.444
164.896
159.654
77.5738
104.956
109.028
147.528
-36.0164
-36.1353
-36.882
-37.0248
-38.9094
-39.1295
-39.2555
-39.4952
-44.5214
-46.0772
-44.0498
-45.5498
-44.7675
-47.1217
-42.9864
-45.0518
-36.0002
-36.1209
-36.8673
-37.0098
-44.7574
-47.1208
-42.9798
-45.0545
-44.5239
-46.0814
-44.0466
-45.5475
-38.8968
-39.1221
-39.2442
-39.4851
-37.3861
-37.8282
-37.5956
-37.9544
-37.8198
-37.376
-37.9479
-37.5873
-40.2171
-39.2764
-39.7454
-38.9177
-39.2873
-40.2296
-38.9268
-39.754
-88.6206
-82.7848
-91.3716
-97.3877
-63.6428
-65.9814
-68.6673
-69.7256
-65.9735
-63.6232
-69.7201
-68.6543
-82.7194
-88.7676
-97.4204
-91.4309
-37.9725
-38.4989
-38.9979
-38.686
-41.9883
-43.4976
-44.0731
-44.2971
-40.0233
-41.0737
-42.1985
-43.4185
-40.9585
-42.3763
-41.9223
-40.2619
-37.9002
-38.4607
-38.9246
-38.6342
-40.9264
-42.351
-41.8839
-40.2317
-39.9607
-41.0215
-42.146
-43.3741
-41.9032
-43.4563
-44.016
-44.2824
-37.4889
-38.5011
-36.9501
-37.6613
-37.4486
-38.4692
-36.909
-37.6338
-33.1637
-33.7754
-33.3129
-34.2958
-33.2543
-33.8407
-33.3376
-34.1491
-54.0907
-56.3837
-50.7523
-53.5499
-35.6049
-37.2249
-36.7547
-38.1148
-35.5897
-37.2094
-36.7458
-38.1032
-54.0875
-56.3775
-50.7488
-53.5479
-30.0936
-28.9749
-29.1442
-26.3796
-28.8322
-29.9898
-26.1955
-29.0064
-30.3204
-30.721
-29.7608
-30.1651
-30.7887
-30.3919
-30.2399
-29.8614
-129.652
53.8742
-113.55
-29.8018
-105.093
-94.9396
-38.2
-32.4373
-37.3391
-32.3486
-41.1827
-37.3094
-107.559
25.4233
-55.671
-20.0542
-84.8521
-55.8834
-39.1099
-33.0541
-34.0064
-32.3751
-37.9744
-36.1444
-113.594
-29.9149
-130.129
53.5962
-104.846
-95.0484
-37.3106
-32.2143
-38.0733
-32.3299
-41.0193
-37.2387
-55.7573
-20.3001
-107.567
24.805
-84.8664
-55.8099
-33.9624
-32.3171
-39.033
-32.969
-37.9136
-36.1062
-37.211
-40.4929
-35.2425
-36.6641
-35.5131
-35.2168
-39.5885
-37.914
-37.9441
-38.8138
-38.5259
-39.8092
-38.8128
-37.2199
-42.2578
-42.2516
-47.9185
-42.4921
-45.8192
-48.1037
-51.885
-67.4985
-36.3054
-71.6613
-44.9692
-49.9656
-45.7612
-43.6278
-48.5817
-51.9362
-55.7353
-55.0652
-37.1821
-40.4663
-39.5775
-37.9011
-35.2224
-36.6481
-35.4945
-35.2022
-37.8619
-38.5114
-42.2295
-42.2088
-38.5391
-39.8125
-38.8287
-37.1144
-47.9146
-42.4497
-36.3235
-71.7417
-45.819
-48.0878
-51.8597
-67.416
-45.0245
-49.9747
-55.7895
-55.1162
-45.7776
-43.6539
-48.9507
-51.93
-117.59
48.583
-119.824
40.2804
-126.196
-120.463
123.176
112.841
-102.038
-59.2065
-102.03
-58.3911
-87.9801
-87.9749
44.0379
43.2483
-59.413
-57.9186
-44.4424
-43.4874
-55.6158
-48.2134
-53.9864
-46.7735
-37.5635
-31.7107
-39.0332
-32.11
-39.8247
-39.8375
-30.7736
-31.2778
-30.714
-27.6428
-30.651
-27.4582
-30.7982
-30.822
-24.1853
-24.086
-42.708
-36.4182
-38.5013
-36.0009
-39.4011
-42.4558
-35.8889
-35.8363
-39.1989
-49.3256
-39.2149
-49.2075
-38.1094
-38.0883
7.83774
8.11761
-58.9448
-42.0799
-47.3811
-33.4672
-49.9004
-55.5456
-30.9736
-23.6638
-32.7874
-30.1456
-32.7734
-30.1089
-34.1295
-34.1247
-29.1306
-29.1604
-43.9662
-42.5636
-47.8701
-51.3752
-45.8885
-46.6527
-47.631
-43.4195
-117.629
48.475
-119.944
40.2517
-126.208
-120.441
112.841
123.238
-59.1917
-57.7788
-45.1692
-43.7714
-55.5239
-48.5448
-53.9424
-46.8482
-37.4525
-31.6188
-38.9344
-32.0308
-39.7567
-39.7312
-30.7003
-31.2167
-42.6574
-36.3296
-38.3362
-35.9468
-39.2801
-42.4805
-35.8583
-35.8337
-58.9264
-42.0825
-47.3897
-33.4379
-55.5757
-49.9208
-23.6514
-30.9499
-43.9382
-42.5351
-47.8739
-51.3529
-46.6272
-45.8582
-43.4007
-47.6172
-36.0868
-36.2611
-37.7558
-37.283
-36.6289
-37.7512
-36.9255
-37.3352
-36.6916
-36.5791
-38.7942
-39.5226
-37.7312
-38.3527
-37.4687
-39.143
-41.6474
-39.7093
-41.6468
-39.7063
-42.8601
-42.8592
-39.1328
-39.1311
-39.3224
-39.0574
-41.8679
-40.5316
-39.9719
-41.351
-39.994
-39.8086
-43.0621
-43.5304
-43.053
-43.518
-41.886
-41.8901
-40.2626
-40.2554
-51.7843
-60.0805
-50.94
-55.7752
-49.1279
-48.1115
-65.1598
-61.2294
11.4728
-43.9667
11.4852
-43.9141
23.7716
23.7932
-83.0558
-83.0512
-67.6012
-62.2046
-67.5987
-62.2019
-69.3393
-69.337
-59.7839
-59.7819
-36.0709
-36.2474
-37.7398
-37.2734
-36.6169
-37.7382
-36.9149
-37.326
-36.6822
-36.5676
-38.7891
-39.512
-38.349
-37.7261
-37.4558
-39.1314
-39.3106
-39.0518
-41.8621
-40.5154
-41.3458
-39.9622
-40.0494
-39.7837
-51.8743
-60.055
-50.9669
-55.7486
-48.0576
-49.1289
-61.2127
-65.1358
-63.5626
-63.4891
-57.9825
-50.4434
-50.4511
-57.347
-49.203
-49.5755
-63.5501
-63.4947
-58.0245
-50.4984
-57.3716
-50.4794
-49.5925
-49.2309
-59.4951
-59.4923
-55.1622
-47.9946
-55.1565
-47.9863
-44.8757
-44.8758
-20.4604
-20.4603
-15.505
-4.11605
-4.1136
-15.5001
4.44997