# vtk DataFile Version 2.0
tet_velo
ASCII
DATASET UNSTRUCTURED_GRID
POINTS 29498 float
-0.895 0.095 -2.3917
-0.764615 0.155 2.315
-0.845 0.491833 -2.335
-0.846783 0.885 2.445
0.895 0.095 -2.39115
0.76462 0.155 2.315
0.845 0.491092 -2.335
0.846778 0.885 2.445
-0.873401 0.0931377 -0.8228
-0.849602 0.0934749 0.7461
-0.829758 0.607052 -0.741667
-0.848975 0.756731 0.851667
0.873402 0.0931378 -0.822433
0.849605 0.0934746 0.746284
0.829888 0.60669 -0.741667
0.848969 0.756481 0.851667
-1.75278 -0.228683 -3.69882
-1.75003 -0.178135 -2.43394
-1.73241 -0.183006 -0.86568
-1.70482 -0.203428 0.697662
-1.65178 -0.16542 2.2655
-1.63366 -0.0991221 3.52836
-1.63227 -0.0239869 4.79496
-1.74998 0.0157606 -3.66178
-1.74555 0.0793793 -2.39421
-1.7257 0.0993539 -0.821173
-1.69901 0.114237 0.749673
-1.63413 0.173399 2.32224
-1.61878 0.240674 3.58543
-1.62164 0.311787 4.85122
-1.72734 0.465693 -3.59448
-1.70692 0.52389 -2.32784
-1.69238 0.627369 -0.738139
-1.69764 0.75721 0.853302
-1.67704 0.872532 2.44253
-1.63951 0.934146 3.70469
-1.62467 0.989957 4.96653
-1.70784 1.22397 -3.47518
-1.69658 1.30222 -2.20492
-1.68717 1.45299 -0.607269
-1.68514 1.63839 0.995648
-1.67718 1.79634 2.59302
-1.66053 1.88459 3.86269
-1.64281 1.94986 5.12722
-0.889756 -0.218283 -3.69711
-0.888501 -0.163751 -2.4315
-0.87544 -0.183365 -0.865888
-0.86203 -0.219791 0.694629
-0.819892 -0.182055 2.26013
-0.801092 -0.109465 3.52472
-0.797906 -0.0296605 4.79287
-0.891091 0.0208412 -3.66119
-0.778651 0.233679 3.58243
-0.785089 0.308548 4.84965
-0.873808 0.453251 -3.59744
-0.796296 0.93933 3.70521
-0.784131 0.993135 4.96667
-0.856752 1.21009 -3.47811
-0.847481 1.28633 -2.20816
-0.83918 1.44324 -0.60921
-0.838119 1.641 0.995928
-0.832783 1.80586 2.59476
-0.817178 1.89376 3.86443
-0.79996 1.9568 5.1285
0.858644 -0.218421 -3.69676
0.876739 -0.163791 -2.43106
0.863047 -0.183389 -0.865558
0.829775 -0.219809 0.694812
0.778855 -0.182068 2.26019
0.820554 -0.109491 3.52478
0.850976 -0.0297037 4.79294
0.856584 0.0206473 -3.66085
0.836156 0.23366 3.58247
0.863462 0.308507 4.84972
0.841939 0.452829 -3.59727
0.866007 0.939301 3.70524
0.879946 0.993085 4.96673
0.845621 1.20975 -3.47798
0.84835 1.28599 -2.20806
0.852295 1.44297 -0.60913
0.85561 1.6408 0.995994
0.859 1.80573 2.59482
0.869582 1.89366 3.86449
0.883088 1.95671 5.12857
1.72623 -0.228995 -3.69819
1.74128 -0.178333 -2.43323
1.72366 -0.183144 -0.865122
1.6825 -0.203521 0.698003
1.62839 -0.165476 2.26568
1.64852 -0.0991929 3.5285
1.67909 -0.0240852 4.79512
1.7253 0.0153548 -3.66117
1.74546 0.0791 -2.39351
1.72659 0.099166 -0.820643
1.69533 0.114123 0.74998
1.63453 0.173359 2.32237
1.65919 0.240612 3.58554
1.68972 0.311692 4.85136
1.70628 0.464998 -3.5941
1.709 0.523107 -2.32754
1.6968 0.626862 -0.737907
1.7 0.756896 0.85345
1.68571 0.872438 2.44262
1.69411 0.934059 3.70479
1.7105 0.989843 4.96666
1.69906 1.22335 -3.4749
1.69964 1.3016 -2.20469
1.701 1.45248 -0.607083
1.70355 1.63802 0.995802
1.70579 1.79609 2.59315
1.71328 1.88439 3.86283
1.72441 1.94967 5.12737
-0.845897 0.293417 -2.33925
0 0.0909301 -2.39549
-0.859392 0.118877 -1.60725
-0.848935 0.52 2.42324
2.5034e-06 0.211895 2.25811
-0.798532 0.132814 1.53055
0 0.526718 -2.37026
-0.848019 0.560083 -1.53833
-2.5034e-06 0.888142 2.44814
-0.846146 0.819132 1.64833
0.845431 0.293046 -2.33851
0.859396 0.118874 -1.60679
0.848929 0.52 2.42323
0.798526 0.132824 1.53064
0.84803 0.559477 -1.53833
0.846147 0.819014 1.64833
-0.861503 0.0933047 -0.03835
-0.872623 0.350095 -0.782234
7.98904e-07 0.0904599 -0.822617
-0.850072 0.425103 0.798883
1.80986e-06 0.090739 0.746192
-0.780444 0.622969 0.0549999
6.52096e-05 1.09919 -0.741667
-2.96643e-06 1.18698 0.851667
0.861505 0.0933046 -0.038075
0.87264 0.349914 -0.78205
0.850067 0.424978 0.798975
0.780447 0.622604 0.0549999
-0.850411 0.321756 -1.57279
-0.778459 0.387599 0.00832498
-0.849319 0.472551 1.58944
3.99452e-07 0.0904018 -1.60702
1.30438e-06 0.0905995 -0.0382125
2.15663e-06 0.146567 1.5306
0 0.293231 -2.46177
0 0.52 2.56093
3.26048e-05 0.883689 -1.53833
3.11216e-05 1.31307 0.0549999
-2.73491e-06 0.920819 1.64833
0.850417 0.32148 -1.57256
0.778463 0.387446 0.00846249
0.849319 0.472489 1.58949
-1.32028 0.0871897 -2.39295
-0.89175 -0.0343754 -2.4116
-0.893046 0.0579206 -3.02644
-1.19937 0.1642 2.31862
-0.792254 -0.0135277 2.28756
-0.771633 0.194339 2.94872
-1.27596 0.507862 -2.33142
-0.859404 0.472542 -2.96622
-0.84624 0.889082 -2.27158
-1.26191 0.878766 2.44376
-0.821539 0.912165 3.07511
-0.839783 1.34543 2.51988
0.885869 -0.0343957 -2.41111
0.875792 0.0578236 -3.026
1.32023 0.08705 -2.39233
0.771738 -0.0135342 2.2876
0.800388 0.19433 2.94873
1.19958 0.164179 2.31868
0.84347 0.47196 -2.96613
0.846675 0.888541 -2.27153
1.277 0.507099 -2.33127
0.856392 0.91215 3.07512
0.852889 1.34537 2.51991
1.26624 0.878719 2.44381
-1.29955 0.0962458 -0.821987
-0.87442 -0.0451136 -0.844344
-1.27431 0.103856 0.747887
-0.855816 -0.0631579 0.720365
-1.26107 0.617211 -0.739903
-0.834469 1.02515 -0.675438
-1.27331 0.75697 0.852484
-0.843547 1.19886 0.923797
0.868224 -0.0451256 -0.843996
1.29999 0.0961519 -0.821538
0.83969 -0.0631672 0.720548
1.27247 0.103799 0.748132
0.841092 1.02483 -0.675398
1.26334 0.616776 -0.739787
0.852289 1.19864 0.92383
1.27449 0.756689 0.852558
-1.75141 -0.203409 -3.06638
-1.75138 -0.106461 -3.6803
-1.32127 -0.223483 -3.69797
-1.74122 -0.18057 -1.64981
-1.74779 -0.0493777 -2.41407
-1.31927 -0.170943 -2.43272
-1.71861 -0.193217 -0.084009
-1.72905 -0.0418261 -0.843427
-1.30392 -0.183185 -0.865784
-1.6783 -0.184424 1.48158
-1.70192 -0.0445956 0.723668
-1.28342 -0.211609 0.696146
-1.64272 -0.132271 2.89693
-1.64296 0.00398951 2.29387
-1.23584 -0.173738 2.26282
-1.63297 -0.0615545 4.16166
-1.62622 0.0707757 3.55689
-1.21738 -0.104294 3.52654
-1.62696 0.1439 4.82309
-1.21509 -0.0268237 4.79391
-1.74776 0.04757 -3.02799
-1.73866 0.240727 -3.62813
-1.32053 0.0183009 -3.66148
-1.73563 0.0893666 -1.60769
-1.72624 0.301635 -2.36103
-1.71236 0.106795 -0.0357499
-1.70904 0.363361 -0.779656
-1.66657 0.143818 1.53596
-1.69832 0.435723 0.801488
-1.62646 0.207036 2.95383
-1.65558 0.522966 2.38238
-1.62021 0.27623 4.21832
-1.62914 0.58741 3.64506
-1.19872 0.237176 3.58393
-1.62316 0.650872 4.90888
-1.20337 0.310168 4.85044
-1.71713 0.494792 -2.96116
-1.71759 0.844831 -3.53483
-1.30058 0.459472 -3.59596
-1.69965 0.57563 -1.53299
-1.70175 0.913057 -2.26638
-1.69501 0.692289 0.0575815
-1.68978 1.04018 -0.672704
-1.68734 0.814871 1.64791
-1.69139 1.1978 0.924475
-1.65827 0.903339 3.07361
-1.67711 1.33444 2.51777
-1.63209 0.962052 4.33561
-1.65002 1.40937 3.78369
-1.2179 0.936738 3.70495
-1.63374 1.46991 5.04688
-1.2044 0.991546 4.9666
-1.70221 1.2631 -2.84005
-1.2823 1.21703 -3.47664
-1.69188 1.37761 -1.40609
-1.27203 1.29428 -2.20654
-1.68616 1.54569 0.19419
-1.26318 1.44812 -0.608239
-1.68116 1.71736 1.79433
-1.26163 1.63969 0.995788
-1.66886 1.84047 3.22786
-1.25498 1.8011 2.59389
-1.65167 1.91723 4.49496
-1.23886 1.88918 3.86356
-1.22139 1.95333 5.12786
-0.889128 -0.191017 -3.06431
-0.890424 -0.0987207 -3.67915
-0.0155561 -0.218352 -3.69693
-0.88197 -0.173558 -1.6487
-0.00588106 -0.163771 -2.43128
-0.868735 -0.201578 -0.0856291
-0.00619656 -0.183377 -0.865723
-0.840961 -0.200923 1.47738
-0.0161276 -0.2198 0.694721
-0.810492 -0.14576 2.89242
-0.0205186 -0.182062 2.26016
-0.799499 -0.0695627 4.15879
-0.789872 0.0621069 3.55358
0.00973056 -0.109478 3.52475
-0.791497 0.139444 4.82126
0.0265351 -0.0296821 4.79291
-0.88245 0.237046 -3.62931
-0.0172535 0.0207442 -3.66102
-0.78187 0.271113 4.21604
-0.787473 0.586504 3.64382
0.0287524 0.233669 3.58245
-0.78461 0.650841 4.90816
0.0391865 0.308528 4.84968
-0.86528 0.83167 -3.53777
-0.0159342 0.45304 -3.59735
-0.790214 0.966232 4.33594
-0.806737 1.41654 3.78482
0.0348554 0.939315 3.70523
-0.792046 1.47497 5.04758
0.0479071 0.99311 4.9667
-0.852116 1.24821 -2.84313
-0.00556527 1.20992 -3.47804
-0.84333 1.36479 -1.40869
0.000434618 1.28616 -2.20811
-0.838649 1.54212 0.193359
0.00655744 1.4431 -0.60917
-0.835451 1.72343 1.79534
0.0087453 1.6409 0.995961
-0.824981 1.84981 3.2296
0.0131085 1.80579 2.59479
-0.808569 1.92528 4.49646
0.026202 1.89371 3.86446
0.0415637 1.95675 5.12853
0.867691 -0.191106 -3.06391
0.857614 -0.0988868 -3.6788
1.29244 -0.223708 -3.69747
0.869893 -0.17359 -1.64831
1.30901 -0.171062 -2.43215
0.846411 -0.201599 -0.0853726
1.29335 -0.183267 -0.86534
0.804315 -0.200939 1.4775
1.25614 -0.211665 0.696407
0.799704 -0.14578 2.89248
1.20362 -0.173772 2.26293
0.835765 -0.0695973 4.15886
0.828355 0.0620843 3.55362
1.23453 -0.104342 3.52664
0.857219 0.139402 4.82133
1.26503 -0.0268945 4.79403
0.849262 0.236738 -3.62906
1.29094 0.018001 -3.66101
0.849809 0.271083 4.21609
0.851081 0.58648 3.64386
1.24767 0.237136 3.58401
0.871704 0.650796 4.90822
1.27659 0.3101 4.85054
0.84378 0.831291 -3.53762
1.27411 0.458913 -3.59568
0.872976 0.966193 4.33598
0.867794 1.41648 3.78487
1.28006 0.93668 3.70502
0.881517 1.4749 5.04765
1.29522 0.991464 4.96669
0.846986 1.24787 -2.84302
1.27234 1.21655 -3.47644
0.850322 1.36448 -1.40859
1.274 1.2938 -2.20638
0.853952 1.54188 0.193432
1.27665 1.44772 -0.608107
0.857305 1.72327 1.79541
1.27958 1.63941 0.995898
0.864291 1.84969 3.22966
1.28239 1.80091 2.59399
0.876335 1.92518 4.49653
1.29143 1.88902 3.86366
1.30375 1.95319 5.12797
1.73375 -0.203664 -3.06571
1.72577 -0.10682 -3.67968
1.73247 -0.180739 -1.64918
1.74337 -0.0496167 -2.41337
1.70308 -0.193333 -0.0835596
1.72512 -0.0419892 -0.842882
1.65544 -0.184499 1.48184
1.68892 -0.0446988 0.723991
1.63845 -0.132335 2.89709
1.63146 0.00394115 2.29402
1.6638 -0.0616391 4.16181
1.65385 0.0707095 3.55702
1.6844 0.143803 4.82324
1.73538 0.0472274 -3.02734
1.71579 0.240176 -3.62764
1.73602 0.089133 -1.60708
1.72723 0.301103 -2.36053
1.71096 0.106645 -0.0353316
1.71169 0.363014 -0.779275
1.66493 0.143741 1.53617
1.69767 0.43551 0.801715
1.64686 0.206985 2.95395
1.66012 0.522898 2.38249
1.67445 0.276152 4.21845
1.67665 0.587336 3.64517
1.70011 0.650767 4.90901
1.70764 0.494052 -2.96082
1.70267 0.844172 -3.5345
1.7029 0.574985 -1.53273
[...]
POINT_DATA 29498
VECTORS point_vectors float
-3.92774 -3.68529 11.1508
0.0677243 0.477111 2.12979
-6.03376 1.05543 9.03817
0.43114 0.111975 1.95267
3.87965 -3.66679 11.1309
-0.13771 0.41182 2.11094
5.92538 1.02522 8.91755
-0.428767 0.117652 1.94684
-0.07985 -0.0359422 2.02408
0.0283428 -0.00783688 0.328508
0 0 0
0.0612761 0.522327 1.26258
0.0796699 -0.0365585 2.01714
-0.0284213 -0.00798646 0.326251
0 0 0
-0.0623956 0.520965 1.24629
-0.468143 -0.176788 19.9443
-1.00547 -0.472656 20.5081
-0.323674 -0.337378 21.2762
0.0871023 -0.134299 21.4626
0.516214 0.0436716 21.3977
0.758928 0.124397 21.1253
0.730566 -0.0224835 20.4547
-0.523739 -0.132501 19.8803
-1.23346 -0.407503 20.5072
-0.419343 -0.362083 21.3161
0.067251 -0.197771 21.4495
0.56356 -0.0860836 21.4405
0.916245 -0.0409164 21.3309
1.06072 -0.197848 21.2235
-0.598915 -0.00455657 19.8218
-1.5033 -0.0907532 20.4942
-0.698662 -0.36902 21.3521
-0.0769659 -0.272809 21.5171
0.450001 -0.287687 21.3948
0.816075 -0.38197 20.9837
0.632692 -0.344712 20.3409
-0.561365 0.239595 19.8955
-1.14623 0.440578 20.4794
-0.843693 0.137167 21.2586
-0.148611 -0.103856 21.4759
0.219453 -0.288468 21.2181
0.362794 -0.380884 20.767
0.294367 -0.296693 20.8655
-0.477202 -0.388737 19.4778
-2.07656 -3.02848 20.9442
-0.179407 -0.0107096 20.86
0.125109 0.229797 20.7878
0.665827 0.914179 20.1151
0.991359 1.33124 19.2492
0.844437 1.02709 19.1097
-0.579497 -0.326226 19.3124
1.44109 1.44095 10.966
1.33199 0.695642 11.2311
-0.703907 0.00472538 19.0539
1.33033 -0.344115 11.0493
0.637189 -0.484372 15.1201
-0.603282 0.590405 19.3181
-2.07489 2.22456 20.0178
-2.22119 1.3488 21.5235
-0.176568 -0.0324853 21.8933
0.216774 -0.542345 21.3619
0.211804 -0.69368 20.5432
0.401401 -0.543097 21.1564
0.474708 -0.407366 19.4545
2.05766 -3.04703 20.9521
0.193449 -0.00663958 20.8393
-0.110959 0.22327 20.7243
-0.627804 0.906252 19.7966
-1.03426 1.31439 19.3929
-0.958833 0.944849 18.7968
0.573742 -0.3357 19.274
-1.28028 1.42147 12.3249
-1.26791 0.707017 13.9524
0.698884 0.00993763 19.0133
-1.36117 -0.239079 13.336
-0.436988 -0.296704 16.4812
0.600422 0.597787 19.3102
2.07562 2.22188 20.0189
2.18795 1.29154 21.5235
0.180175 -0.0318323 21.8833
-0.22247 -0.524987 21.356
-0.173417 -0.666802 20.6174
-0.509551 -0.594309 20.9091
0.468597 -0.175375 19.9204
1.01602 -0.481152 20.5042
0.318783 -0.339691 21.2783
-0.0995594 -0.129224 21.4552
-0.524839 0.0443697 21.3954
-0.802072 0.15624 21.0277
-0.83845 0.0164529 20.6097
0.529253 -0.139151 19.8593
1.22719 -0.40608 20.5099
0.416211 -0.366236 21.3203
-0.069578 -0.197213 21.4506
-0.557952 -0.0923777 21.4362
-0.832921 -0.0130348 20.8783
-0.753182 -0.0977919 21.0234
0.602793 -0.00360744 19.811
1.49699 -0.0904628 20.4946
0.694981 -0.368185 21.3528
0.0761046 -0.273632 21.5143
-0.433898 -0.281792 21.3356
-0.728434 -0.365852 20.8247
-0.740899 -0.259224 20.6654
0.564561 0.23891 19.8892
1.14234 0.438068 20.4792
0.833744 0.134757 21.2558
0.144779 -0.102744 21.4671
-0.210526 -0.276221 21.2363
-0.34043 -0.369936 20.849
-0.331166 -0.282514 20.6862
-2.3756 -0.12374 4.40335
8.79936e-06 -0.000910357 0.0101775
0.0591221 0.290678 1.41988
0.109465 0.00110014 0.952533
-0.00057681 0.00423853 0.0271831
0.1162 -0.0173272 1.16488
5.0477e-05 0.0353245 0.0407795
-0.0032667 0.00497661 0.260117
-0.00173978 -0.00434996 0.00987766
0.0318132 0.106971 0.676062
2.23457 -0.123051 4.07865
-0.0613346 0.288913 1.4223
-0.106998 0.00213896 0.942258
-0.117513 -0.0185031 1.16712
0.0032871 0.0048582 0.259922
-0.0332069 0.109178 0.680328
0.000654259 0.000193775 0.0534471
0.0221614 0.071045 0.613189
-3.60851e-08 -9.69771e-07 0.000251398
-0.0132363 0.00952034 0.11884
-1.22821e-09 2.26775e-09 2.26166e-06
0.000328033 0.044057 0.0990649
-6.3857e-06 0.0457481 0.116104
-6.24474e-06 -7.05135e-05 0.000145022
-0.000640301 0.000194285 0.0532743
-0.0220029 0.0712844 0.617935
0.0123871 0.00953557 0.118125
-0.000284565 0.0445611 0.0996194
0 0 0
1.23561e-05 0.000157953 0.000606717
1.60437e-06 2.37698e-05 0.000323138
0 0 0
-9.31072e-11 -1.13839e-09 4.23033e-07
-1.23508e-06 6.30335e-05 0.000452604
-0.000955826 0.230884 0.146158
-0.00751316 0.0109708 -0.00998284
-0.000199548 0.0153595 0.0779257
-1.20634e-05 0.00277083 0.0694682
0 0 0
3.75236e-19 -2.38674e-18 -5.97575e-17
-1.1497e-05 0.000149996 0.000568449
-1.40952e-06 2.1001e-05 0.000290444
-2.30722 -1.08952 20.5695
-3.07327 -4.59554 21.4414
-1.74145 -1.08514 18.431
0.989502 0.0940261 20.3614
0.845016 0.96623 15.0603
0.760789 0.986272 8.80936
-3.15448 -0.0823682 20.5052
-2.28533 0.189536 17.6117
-4.52924 3.28469 19.5817
0.621091 -0.367875 21.1454
0.973441 0.111385 8.71059
0.652725 -0.565638 19.7572
3.0556 -4.63432 21.5007
1.73159 -1.12738 18.3716
2.30563 -1.09236 20.5712
-0.814352 0.949928 14.6756
-0.842943 0.917415 9.38429
-0.973752 0.0848527 20.3448
2.28835 0.212607 17.5183
4.53435 3.28146 19.5851
3.14702 -0.0856764 20.5081
-1.0948 0.24009 10.0863
-0.626995 -0.56207 19.974
-0.601857 -0.366007 21.1503
-0.295844 -0.698782 21.6619
0.00925298 0.102912 16.5839
0.22942 -0.294068 21.2766
0.315003 0.152919 15.896
-0.938788 -0.903816 21.7366
-3.27481 -0.709871 15.6111
-0.149998 -0.419263 21.4771
0.383881 0.47592 17.0072
-0.00873709 0.0993018 16.446
0.296915 -0.7006 21.6597
-0.32796 0.145991 15.5701
-0.231115 -0.291046 21.2573
3.24407 -0.697279 15.8868
0.942398 -0.898761 21.7402
-0.328009 0.428276 17.3171
0.146571 -0.417821 21.5029
-0.771518 -0.340545 20.067
-0.500328 -0.151033 19.9
-0.526972 -0.265065 19.7409
-0.673059 -0.45288 21.0755
-1.125 -0.447756 20.5071
-1.55833 -1.13756 20.5696
-0.0900969 -0.233777 21.3852
-0.370617 -0.350033 21.2975
-0.1873 -0.419706 21.4448
0.3001 -0.0513055 21.4521
0.075225 -0.172167 21.4574
0.222177 -0.0818791 21.5114
0.660245 0.111903 21.2712
0.538642 -0.0125289 21.4151
0.7632 0.296742 21.3756
0.807262 0.106063 20.7703
0.81064 0.0624813 21.1134
1.10418 0.574165 20.8582
0.961521 -0.100409 20.797
0.931813 0.455949 20.9589
-0.933755 -0.268441 20.0045
-0.574307 -0.0779534 19.8659
-0.602869 -0.209075 19.6347
-0.831892 -0.431749 21.1402
-1.44088 -0.269656 20.4781
-0.124278 -0.27102 21.4037
-0.563552 -0.388421 21.3562
0.308617 -0.134023 21.4664
-0.00444172 -0.260056 21.4935
0.770944 -0.0477259 21.2806
0.535249 -0.221602 21.4468
0.813125 -0.0791018 20.9081
0.996208 -0.219686 21.4775
1.30094 0.302008 20.1305
0.81571 -0.355889 21.3247
1.10324 0.293665 19.4498
-1.09327 -0.021911 19.9145
-0.599664 0.115392 19.8415
-0.743144 -0.00930209 19.4859
-1.13688 -0.292059 21.1677
-1.40801 0.254598 20.4763
-0.350627 -0.352148 21.4692
-0.868196 -0.139824 21.3188
0.183045 -0.246085 21.48
-0.144016 -0.170826 21.5252
0.605232 -0.32083 21.1554
0.335114 -0.329251 21.303
0.645488 -0.423048 21.0164
0.56252 -0.385383 20.9422
1.11569 -0.504332 20.7416
0.395083 -0.413719 20.7685
0.586772 -0.49832 19.677
-0.90011 0.400418 20.057
-0.647367 0.385769 19.6417
-1.03815 0.309054 20.9395
-1.64362 0.982802 20.3314
-0.489738 0.0120394 21.4375
-1.3852 0.392829 21.419
0.0822526 -0.217273 21.4028
-0.20859 -0.0694385 21.6425
0.34622 -0.353138 21.1831
0.246515 -0.401059 21.2978
0.281306 -0.353516 20.872
0.361754 -0.43067 21.0469
0.447578 -0.505888 21.1148
-1.18288 -1.22121 19.1324
-0.538892 -0.365249 19.3857
-0.00855452 -0.570301 19.1121
-0.540138 -0.402952 21.735
-0.0204032 -5.4415 22.1479
-0.0590694 0.153201 20.7026
-0.00400375 -0.392345 16.6445
0.452381 0.592796 20.3693
0.00157254 -0.0412754 16.956
0.850905 1.18441 19.7412
-0.00413401 0.663187 15.8385
1.08573 1.22394 19.1606
1.173 1.48502 16.0578
-0.0286251 1.02332 14.6291
1.14332 0.912213 14.7378
-0.168753 1.25431 13.6354
-0.653813 -0.189182 19.1322
-0.0163794 -0.499411 18.7871
1.55423 0.921287 11.4736
0.616135 0.545826 5.76007
0.0609116 -0.144048 1.53822
1.09165 0.171604 11.307
0.00726812 0.798394 6.48219
-0.703373 0.337504 19.0621
-0.0105257 0.0182387 18.4623
1.3523 -0.328643 14.9177
0.780129 -0.94438 20.0102
0.000809989 -1.01298 2.92134
0.404482 -0.683042 20.1124
-0.0874548 -1.29557 6.81899
-1.23701 1.37751 19.1756
-0.00636147 0.78439 18.9319
-2.08226 1.6044 21.0109
0.000809258 4.01146 19.4615
-1.05016 0.61845 22.1604
0.035206 4.91705 21.0131
0.0913235 -0.341946 21.6067
0.0021327 -0.136027 21.1555
0.223323 -0.646826 21.1566
-0.00613819 -0.661836 21.5037
0.269819 -0.631054 20.7623
-0.030392 -1.02491 21.3638
0.0048691 -0.247177 21.0456
1.18571 -1.25092 19.1016
0.535353 -0.37617 19.3473
0.533252 -0.281872 19.7279
0.565228 -0.418194 21.8225
1.573 -1.1683 20.5782
0.074254 0.151042 20.6257
0.176431 -0.425103 21.4512
-0.433218 0.598028 20.1929
-0.233706 -0.0608059 21.4789
-0.824269 1.15299 19.657
-0.777939 0.334914 21.3208
-0.937598 1.33379 20.3504
-1.19957 1.40356 16.6852
-1.07081 0.496675 20.7726
-1.14241 0.981106 15.4137
-0.853755 0.22422 20.4952
0.648204 -0.195263 19.0863
0.606461 -0.218143 19.6174
-1.33928 1.00427 13.2208
-0.883901 0.418852 8.4819
-1.26607 0.129511 20.7571
-1.06598 0.0695305 13.9238
-0.76209 0.03393 19.5193
0.698069 0.346923 19.0372
0.751945 -0.0123777 19.4672
-1.1703 -0.453279 15.319
-0.921847 -0.856061 20.2341
-1.00386 -0.57418 21.0341
-0.378654 -0.604991 20.1553
-0.605007 -0.409248 20.1025
1.23524 1.38583 19.1685
0.646448 0.3892 19.6359
2.08326 1.58317 21.0139
1.64194 0.979188 20.333
1.04302 0.593998 22.1377
1.36111 0.379135 21.4139
-0.0952183 -0.332694 21.5973
0.203699 -0.0723986 21.6303
-0.222574 -0.621304 21.2173
-0.246732 -0.381022 21.3094
-0.306212 -0.615904 20.7769
-0.370309 -0.42885 20.8534
-0.468457 -0.487689 20.9031
0.79078 -0.341556 20.0844
0.505862 -0.159022 19.8771
0.663338 -0.458234 21.0723
1.12684 -0.450757 20.5034
0.0908899 -0.226941 21.3843
0.367201 -0.353182 21.3003
-0.313819 -0.0402348 21.4589
-0.0820406 -0.174045 21.4537
-0.670328 0.106369 21.259
-0.541247 -0.0181718 21.418
-0.711228 0.0351528 21.121
-0.829102 0.0948382 21.0334
-0.822308 -0.0287748 20.7903
0.938415 -0.2796 19.9907
0.577898 -0.0726599 19.8469
0.835449 -0.433546 21.1407
1.43097 -0.268309 20.482
0.123832 -0.272505 21.4023
0.561695 -0.392364 21.3596
-0.305985 -0.133672 21.4667
0.00385827 -0.259464 21.4983
-0.742428 -0.0458021 21.248
-0.523329 -0.220961 21.4146
-0.86987 -0.0791493 20.8534
-0.811101 -0.166491 20.7627
-0.683493 -0.244922 20.9601
1.10351 -0.0243807 19.9038
0.60579 0.120226 19.8315
1.13626 -0.292403 21.1631
1.40368 0.253027 20.4775
0.348263 -0.351657 21.4654
0.855953 -0.136588 21.3179
-0.181862 -0.247141 21.4775
0.142054 -0.166436 21.5154
-0.586673 -0.32444 21.1991
-0.329013 -0.324906 21.2947
-0.6636 -0.370143 20.9174
-0.461843 -0.373028 20.7255
-0.326446 -0.338993 20.7181
0.903081 0.401127 20.0526
1.03135 0.304176 20.9387
0.476233 0.00917731 21.4311
-0.0803471 -0.206105 21.3874
-0.337911 -0.338512 21.0625
-0.254675 -0.318064 20.8177
-0.855215 -0.311968 20.0283
-1.44276 -1.22203 18.8196
-1.0373 -0.62411 19.7633
-1.35657 -0.532174 19.5512
-0.568732 -0.234084 19.6794
-1.93839 -1.1792 20.5783
-0.746268 -0.451181 21.1204
-0.328852 0.328163 17.2868
-0.674907 -0.718418 21.4137
-0.918892 -0.920204 21.589
-0.190965 -0.562152 21.5321
-0.100464 -0.251064 21.3948
0.00488916 0.23624 16.0155
0.0529934 -0.202404 21.4682
0.0929618 -0.422085 21.4432
0.271135 -0.174653 21.488
0.302377 -0.0945672 21.4455
0.73697 0.52152 14.5799
0.497773 0.092579 21.4777
0.550882 -0.0924886 20.6332
0.927164 0.231635 21.059
0.705574 0.0452291 21.2781
1.04934 1.30993 15.4863
0.974023 0.459559 21.159
1.26526 0.199113 20.3522
1.26062 0.481502 20.5691
0.861207 0.0345388 20.8666
1.33463 1.03119 15.814
1.18515 0.53829 20.6098
1.33184 0.352815 20.6489
1.09055 0.428981 21.1678
-1.03353 -0.153708 19.9717
-2.16803 -0.636044 17.8019
-1.78528 -0.00127085 19.2802
-0.692631 -0.131576 19.5349
-2.94688 -0.71247 20.5871
-1.01685 -0.376852 21.1454
-1.66579 -0.69057 21.5996
-0.579192 -0.792287 21.7876
-0.233448 -0.344909 21.4386
-0.360919 -0.721273 21.2514
0.0224101 -0.392544 21.1912
0.236342 -0.224466 21.4916
0.234345 -0.301564 21.2241
0.761864 -0.189654 20.6242
0.798307 -0.225801 21.4354
-0.0829555 0.387508 3.18655
0.894749 -0.465433 20.8313
1.35881 -0.0974854 19.6691
0.773893 -0.287221 20.9732
1.54662 0.395899 10.9196
1.21889 -0.519006 20.4095
0.84115 -0.214814 19.8672
-1.0518 0.217647 19.9565
-1.90714 1.29831 18.2578
-1.18212 0.75598 19.7218
-0.757697 0.232484 19.5071
-2.54384 0.750004 20.3635
-1.23174 0.0538514 21.0534
-3.40981 0.31159 19.4077
-1.57976 0.66973 21.0219
-1.58854 -0.299483 21.5943
-0.516195 -0.185464 21.4835
-0.779712 0.212203 14.7442
-0.772112 0.152782 21.6825
-0.282534 -0.224625 21.7735
0.123266 -0.233303 21.4554
0.716129 0.0366831 18.3468
0.0853366 -0.25677 21.4791
0.399667 -0.476424 21.4364
0.415192 -0.409266 21.2645
0.718563 -0.838488 20.0096
0.310023 -0.529208 20.8775
0.452911 -0.68173 21.375
0.406917 -0.410089 20.9138
0.59167 -0.819057 20.6456
0.287386 -0.437794 20.8349
0.450546 -0.524019 20.2276
1.44622 -1.26031 18.7679
-0.0227809 -2.09278 18.1813
-0.0292204 -2.06962 16.5818
-0.0114904 -0.522525 18.9168
-0.00957509 -5.90592 21.6887
0.348453 0.336017 17.1744
-0.0109847 -1.04303 19.1375
0.00161117 -0.0950452 7.92393
-0.0038777 0.222772 15.7479
-0.00207335 -0.202939 16.4508
0.00643628 0.00531888 8.99502
-0.741802 0.52203 14.172
0.00482164 0.448982 16.1623
-0.0211443 0.523213 8.42528
-1.05318 1.24454 15.511
-0.0286949 0.796508 15.2422
-0.0422792 -0.118175 1.54373
-0.00771172 0.665187 8.78753
-1.15426 1.28284 16.5212
-0.12597 1.38414 13.0263
-0.114487 0.476302 4.85615
-0.114379 1.09379 9.71863
2.1541 -0.647733 17.7245
-0.0283087 0.625198 15.0681
-0.0129805 -0.286159 18.5962
-0.0471391 0.327093 4.43004
-0.0798146 -0.363245 1.82789
0.251071 -1.3916 -3.14717
-1.42129 0.233647 12.0824
-0.264051 -2.0604 5.94211
-0.0306194 -0.108265 5.70618
1.8998 1.31971 18.227
-0.00530697 2.24507 18.4501
-0.0171776 0.495709 18.524
0.00116193 7.25582 17.9801
3.40837 0.305514 19.5139
0.0126115 3.5203 20.661
-0.000133103 1.13776 2.48195
0.834313 0.164222 15.0601
0.0113177 1.50881 22.4412
-0.00619255 -0.245728 3.36135
-0.673144 4.2283e-05 18.5969
-0.00512757 -0.468447 21.2673
-0.0287507 -0.759281 11.5508
-0.681898 -0.811718 20.2715
-0.0145797 -0.771355 21.3499
-0.0244951 -1.11346 16.7809
-0.579409 -0.781802 20.4541
-0.0195413 -0.798439 20.832
-0.00372221 -0.839217 14.4008
0.865283 -0.317921 20.0294
1.0522 -0.651968 19.7468
1.37781 -0.551504 19.5195
0.573007 -0.24395 19.6637
1.94634 -1.19487 20.5807
0.746858 -0.456421 21.1194
0.665704 -0.72701 21.4271
0.919293 -0.921941 21.5882
0.187176 -0.566603 21.5341
0.0985756 -0.251492 21.3966
-0.0754311 -0.196266 21.4731
-0.0948451 -0.424035 21.4425
-0.282308 -0.158631 21.4452
-0.307238 -0.0913128 21.449
-0.515362 0.126171 21.4213
-0.548198 -0.0941055 20.6135
-0.93489 0.25039 20.9546
-0.697752 0.0440864 21.2498
-0.96198 0.457332 21.1436
-1.2105 0.144872 20.6199
-1.18425 0.39644 20.5649
-0.826865 0.0318279 20.981
-0.96233 0.635872 20.7998
-1.39268 0.17382 20.1805
-0.801769 0.159722 19.9439
1.04901 -0.166531 19.9585
1.81109 -0.00300852 19.2459
0.697966 -0.141786 19.5165
2.94391 -0.716484 20.5923
1.01143 -0.374662 21.1464
1.66424 -0.687103 21.5929
0.579837 -0.791353 21.7849
0.234507 -0.346451 21.4371
0.36318 -0.718601 21.2702
-0.0250782 -0.390415 21.1819
-0.235264 -0.224615 21.4868
-0.235459 -0.297696 21.2431
-0.740492 -0.192118 20.6249
-0.744334 -0.210042 21.2241
-0.834112 -0.504273 21.1513
-1.18992 -0.199446 20.6943
-0.832426 -0.2897 20.6857
-0.88629 -0.515545 20.1741
-0.866617 -0.399335 19.9392
1.05586 0.222867 19.9501
1.18469 0.760579 19.7176
0.757495 0.238501 19.4947
2.53492 0.745179 20.3632
1.22466 0.0525189 21.0516
1.56958 0.658843 21.0215
1.56359 -0.294643 21.5875
0.508169 -0.181685 21.4808
0.760423 0.143597 21.671
0.273963 -0.222818 21.7816
-0.121021 -0.225288 21.4607
-0.0859388 -0.249375 21.4741
-0.394486 -0.455552 21.4377
-0.406906 -0.360452 21.2709
-0.330282 -0.499656 20.965
-0.469851 -0.589223 21.2543
-0.377676 -0.352167 20.9064
-0.240711 -0.422517 20.8747
-0.327095 -0.475709 20.4781
-1.20598 -0.598373 19.6462
-0.759928 -0.844246 21.4936
0.114112 -0.293684 21.4963
0.584265 -0.00203425 21.3296
1.1818 0.356349 20.7596
1.34683 0.467332 21.0356
-1.61315 -0.342427 19.3751
-1.32124 -0.873907 21.6746
-0.0215083 -0.577892 21.2194
0.337973 -0.227352 20.8194
1.07186 -0.140298 20.1608
1.34522 -0.072246 19.9211
-1.60183 0.529062 19.4556
-1.98322 0.0590046 21.2944
-0.95965 -0.322195 21.8201
0.145327 -0.298348 21.593
0.534545 -0.616811 21.3437
0.595436 -0.573793 20.6715
-0.026183 -2.20297 17.4968
-0.000755629 -0.247117 8.94077
0.00413056 -0.0583022 8.2172
0.00399831 0.450365 8.18268
-0.066454 0.479347 8.57587
-0.146301 1.35084 9.65565
-0.0254748 -1.03425 15.4315
0.100375 -0.390271 -2.98994
-0.0998301 -0.925414 0.384663
-0.0146783 2.38335 16.6877
0.00471953 3.61062 17.4159
0 0 0
-0.0148171 -0.477995 6.92785
-0.0445335 -1.12471 14.6542
-0.0847188 -1.18957 17.9114
1.21653 -0.615156 19.6256
0.755817 -0.848853 21.4984
-0.126273 -0.292883 21.5018
-0.596377 0.0219613 21.2176
-1.15772 0.328527 20.8148
-1.16609 0.531975 20.6727
1.63993 -0.353516 19.3511
1.32101 -0.874009 21.6729
0.0224249 -0.580867 21.2301
-0.334102 -0.228294 20.8186
-1.03245 -0.184715 20.5551
-1.14236 -0.182959 20.32
1.60754 0.538181 19.4412
1.96809 0.0607736 21.2903
0.942641 -0.318364 21.8158
-0.147503 -0.292395 21.6058
-0.523614 -0.578861 21.3261
-0.518769 -0.55646 20.5299
-1.76148 -0.252808 2.92389
8.47673e-05 -0.00108477 0.0110133
-0.163738 0.230453 3.71267
0.124523 0.00519348 0.511034
-0.0132185 0.0189448 0.174652
0.0600901 -0.0192797 0.77231
-2.78168 -0.13813 5.03524
-0.0103829 0.0393898 0.0441187
-0.0228347 -0.00465662 0.433802
0.135523 0.0711394 1.2739
-0.028609 -0.0131405 0.0782928
0.0302046 0.0968225 0.622917
-0.000114913 -0.00156988 0.0159148
1.62302 -0.22902 2.69753
0.163861 0.226627 3.67099
0.0103842 0.0184831 0.167629
-0.120595 0.00493379 0.501942
-0.0607916 -0.0196847 0.767444
0.0100145 0.0377965 0.0423027
2.77807 -0.133103 4.99684
0.0255059 -0.00810746 0.457399
0.0232988 -0.00962624 0.0693707
-0.133445 0.0725226 1.26589
-0.0308584 0.0983217 0.624352
-0.0345395 0.13196 1.4927
-0.0254957 0.0309989 0.60785
-0.0241335 0.0431974 0.194659
0 0 0
0.00899748 0.0740516 0.260625
0.0107697 -0.00137251 0.250712
-0.00155574 -0.00150908 0.0263103
0 0 0
-0.0109091 -0.0178488 0.194146
0.0366284 0.108401 0.956226
0 0 0
-0.0831756 0.0245776 0.118567
0.143863 0.301789 0.897302
-0.0589946 0.0759708 0.457169
0.00699723 0.0915592 0.139539
0.0155138 -0.00457587 0.02991
0.034462 0.13173 1.49184
0 0 0
0.0254999 0.0309811 0.607954
0.0222441 0.0395052 0.177891
-0.00948788 0.0755395 0.261946
7.53397e-18 9.07613e-19 -1.20904e-16
-0.0106569 -0.00135742 0.249059
0.00158207 -0.001523 0.0269158
0.0100614 -0.0164676 0.189649
0.0847718 0.0249362 0.120928
-0.0353581 0.108695 0.957068
0 0 0
-0.146824 0.30444 0.894496
-0.0155259 -0.0045504 0.0298335
0.0575801 0.0761735 0.451727
-0.00695738 0.0910796 0.136387
0 0 0
0 0 0
3.19284e-11 1.37511e-08 8.33077e-07
0 0 0
-1.71481e-18 -4.12795e-18 -2.70825e-17
0 0 0
-0.0265186 0.00700607 0.629858
-0.0600243 -0.0105964 -0.0128867
0 0 0
-0.000135932 -0.000795671 -0.000398604
0 0 0
-4.29523e-18 -2.97787e-18 -2.35231e-17
-1.03515e-05 0.0248229 0.00567333
0.00217435 1.38654 3.85539
8.47388e-07 3.99012e-06 0.000184245
-0.00645616 0.0039949 0.0353315
0 0 0
-5.69879e-05 -0.000243596 0.00260579
8.05568e-07 1.54289e-05 0.000145276
4.04748e-18 5.50812e-19 5.11158e-18
0 0 0
0 0 0
0 0 0
0 0 0
0.062858 -0.0123014 -0.0146055
0.0265761 0.00698767 0.626611
0 0 0
0 0 0
0.00648433 0.00402198 0.0355018
-7.58062e-07 3.63682e-06 0.000166255
0 0 0
-7.44215e-07 1.4263e-05 0.000134731
0 0 0
0 0 0
0 0 0
0 0 0
3.0496e-12 8.89156e-12 -2.55426e-08
6.41434e-11 1.16217e-10 -3.41776e-07
0 0 0
0 0 0
1.69321e-09 -9.93107e-10 -4.74523e-06
-6.04817e-06 0.000394117 0.00747849
0 0 0
0.189842 0.134958 1.39687
0 0 0
-0.00015923 0.0802033 0.339175
-1.08107e-05 -0.000361692 0.00328881
-1.00741e-05 0.000976633 -0.00246037
3.70828e-18 3.24882e-20 -5.47254e-17
1.13071e-17 -2.88851e-17 -2.2409e-16
0 0 0
0 0 0
0 0 0
0 0 0
-0.189495 0.134958 1.39258
0 0 0
0 0 0
0 0 0
0 0 0
1.32928e-08 2.48939e-07 7.6881e-06
0 0 0
0 0 0
0 0 0
0 0 0
0 0 0
0 0 0
0.0208043 0.00905053 0.529912
5.59971e-05 0.000499865 0.0114339
7.31671e-08 9.88217e-09 9.59735e-07