# vtk DataFile Version 2.0
tri_press
ASCII
DATASET UNSTRUCTURED_GRID
POINTS 3682 float
-0.735 0.255 -1.76291
-0.786515 0.305 1.765
-0.694704 0.805 -1.665
-0.762398 0.975 1.775
0.735 0.255 -1.76291
0.786515 0.305 1.765
0.694704 0.805 -1.665
0.762398 0.975 1.775
-0.80686 0.216979 -0.58694
-0.811341 0.246335 0.58903
-0.797402 0.9418 -0.518333
-0.782699 0.961199 0.628333
0.806846 0.216992 -0.58694
0.811352 0.246325 0.58903
0.797411 0.941809 -0.518333
0.782701 0.961201 0.628333
-1.52579 -0.124334 -2.72426
-1.52728 -0.0933756 -1.79522
-1.57965 -0.112708 -0.618491
-1.59741 -0.10053 0.564134
-1.58457 -0.053117 1.74136
-1.57938 -0.0200786 2.67283
-1.57938 0.00785868 3.5998
-1.5181 0.196115 -2.68584
-1.51744 0.245934 -1.76
-1.58629 0.235759 -0.588974
-1.5963 0.247822 0.58469
-1.57513 0.292545 1.75628
-1.57337 0.324758 2.68734
-1.57637 0.352642 3.61526
-1.50107 0.805143 -2.60077
-1.49072 0.854882 -1.67372
-1.57341 0.939299 -0.522674
-1.57508 0.957169 0.6263
-1.55528 0.9772 1.77791
-1.56234 1.00877 2.71018
-1.57078 1.03984 3.64283
-1.50974 1.8033 -2.49521
-1.51177 1.86255 -1.57255
-1.5433 1.95068 -0.430998
-1.56412 2.00384 0.704235
-1.56578 2.03062 1.84609
-1.56678 2.05296 2.76939
-1.56963 2.07922 3.69884
-0.761722 -0.120486 -2.72615
-0.744149 -0.0876077 -1.79798
-0.788811 -0.122051 -0.618121
-0.80605 -0.102869 0.567838
-0.796616 -0.0464771 1.74783
-0.793553 -0.0155601 2.67722
-0.794245 0.0100416 3.60234
-0.762191 0.194724 -2.68642
-0.790213 0.329411 2.69096
-0.792772 0.354682 3.61718
-0.748209 0.784993 -2.59715
-0.782035 1.00907 2.7096
-0.789346 1.0403 3.64271
-0.74194 1.79109 -2.49162
-0.736001 1.85182 -1.5686
-0.761056 1.94966 -0.428618
-0.781748 2.00597 0.703949
-0.784575 2.03093 1.84405
-0.785659 2.05261 2.76735
-0.787849 2.07894 3.69736
0.743916 -0.120483 -2.72615
0.771117 -0.0876041 -1.79798
0.807022 -0.122042 -0.618121
0.803725 -0.102874 0.567838
0.786909 -0.0464793 1.74783
0.780529 -0.0155613 2.67722
0.777621 0.0100409 3.60234
0.721684 0.194726 -2.68642
0.776618 0.32941 2.69096
0.775326 0.354682 3.61718
0.71134 0.784995 -2.59715
0.768768 1.00907 2.7096
0.772333 1.0403 3.64271
0.774977 1.79109 -2.49162
0.791647 1.85183 -1.5686
0.796532 1.94966 -0.428618
0.784576 2.00598 0.703949
0.776963 2.03093 1.84405
0.775416 2.05261 2.76735
0.775491 2.07894 3.69736
1.50775 -0.124327 -2.72426
1.53591 -0.0933667 -1.79522
1.58887 -0.112696 -0.618491
1.59846 -0.100534 0.564134
1.58117 -0.0531215 1.74136
1.57042 -0.0200809 2.67283
1.56555 0.00785723 3.5998
1.48489 0.196121 -2.68584
1.50931 0.245941 -1.76
1.58469 0.235775 -0.588974
1.59839 0.247817 0.58469
1.57707 0.29254 1.75628
1.56546 0.324756 2.68734
1.56231 0.352641 3.61526
1.47186 0.805149 -2.60077
1.48483 0.854889 -1.67372
1.57244 0.939313 -0.522674
1.57688 0.957172 0.6263
1.55734 0.977198 1.77791
1.55475 1.00877 2.71018
1.55713 1.03984 3.64283
1.53633 1.80331 -2.49521
1.5551 1.86256 -1.57255
1.57275 1.95069 -0.430998
1.56929 2.00385 0.704235
1.56143 2.03063 1.84609
1.559 2.05296 2.76939
1.5591 2.07922 3.69884
-0.761859 0.53 -1.76096
0 0.233155 -1.78475
-0.79125 0.215669 -1.17493
-0.801596 0.64 1.79714
0 0.26095 1.80905
-0.800061 0.274534 1.17702
0 0.849019 -1.70902
-0.78125 0.908597 -1.09167
0 1.01758 1.81758
-0.779257 0.974808 1.20167
0.761929 0.53 -1.76103
0.791268 0.215651 -1.17493
0.801555 0.64 1.7971
0.80006 0.274536 1.17702
0.78122 0.908567 -1.09167
0.779256 0.974807 1.20167
-0.807289 0.233468 0.00104499
-0.865278 0.579389 -0.552637
-6.8594e-06 0.191914 -0.58694
-0.852097 0.603767 0.608682
5.19723e-06 0.215849 0.58903
-0.790576 0.952025 0.055
4.59664e-06 1.26445 -0.518333
1.09582e-06 1.47802 0.628333
0.807303 0.233455 0.00104499
0.865259 0.579401 -0.552637
0.852029 0.603763 0.608682
0.790601 0.95205 0.055
-0.891774 0.554695 -1.1333
0.891781 0.5547 -1.1333
-3.4297e-06 0.205948 -1.17493
2.29832e-06 0.999906 -1.09167
0 0.53 -1.99134
-0.856308 0.591578 0.0280225
0.85624 0.591582 0.0280225
-8.31083e-07 0.207257 0.00104499
2.84623e-06 1.46071 0.055
-0.895516 0.621884 1.18934
0.895515 0.621881 1.18934
2.59862e-06 0.218543 1.17702
5.47909e-07 1.42418 1.20167
0 0.64 1.97262
-0.753903 0.3925 -1.76741
-0.3675 0.233934 -1.78398
-0.778415 0.220044 -1.46892
-0.80268 0.4725 1.78969
-0.393257 0.261639 1.80836
-0.797036 0.28602 1.47101
-0.725511 0.6675 -1.71021
-0.347352 0.843634 -1.70363
-0.754592 0.873414 -1.37833
-0.788153 0.8075 1.79223
-0.381199 1.01129 1.81129
-0.783158 0.987234 1.48833
0.3675 0.233919 -1.78399
0.756819 0.3925 -1.77033
0.778253 0.220207 -1.46892
0.393257 0.261646 1.80835
0.802671 0.4725 1.78969
0.797042 0.286013 1.47101
0.347352 0.843632 -1.70363
0.725345 0.6675 -1.71004
0.754515 0.873337 -1.37833
0.381199 1.01134 1.81134
0.78811 0.8075 1.79218
0.783132 0.987209 1.48833
-0.802408 0.212971 -0.880933
-0.807754 0.224544 -0.292948
-0.85204 0.390199 -0.569788
-0.408869 0.193575 -0.58694
-0.813478 0.252658 0.883023
-0.809008 0.240209 0.295038
-0.850872 0.415475 0.598856
-0.413706 0.215016 0.58903
-0.794706 0.930579 -0.805
-0.847938 0.768893 -0.535485
-0.79378 0.946704 -0.231667
-0.462336 1.2304 -0.518333
-0.781278 0.968303 0.915
-0.835897 0.791732 0.618508
-0.786984 0.956958 0.341667
-0.505636 1.44818 0.628333
0.802465 0.212914 -0.880933
0.408859 0.193575 -0.58694
0.807736 0.224562 -0.292948
0.851993 0.390226 -0.569788
0.813486 0.25265 0.883023
0.413714 0.215016 0.58903
0.808952 0.240265 0.295038
0.850818 0.41548 0.598856
0.794679 0.930551 -0.805
0.462365 1.23045 -0.518333
0.847899 0.768887 -0.535485
0.793783 0.946706 -0.231667
0.781276 0.968301 0.915
0.505663 1.44823 0.628333
0.835913 0.791756 0.618508
0.786983 0.956957 0.341667
-0.881471 0.542347 -1.44713
-0.380929 0.53 -1.96326
-1.71485e-06 0.218072 -1.47984
0 0.381578 -1.91319
-0.881014 0.385182 -1.15411
-0.395627 0.205948 -1.17493
-0.870636 0.630942 1.49324
-0.400798 0.64 1.9481
1.29931e-06 0.236807 1.49303
0 0.450475 1.95336
-0.854302 0.448209 1.18318
-0.400029 0.218543 1.17702
1.14916e-06 0.934856 -1.40034
0 0.689509 -1.93614
-0.894366 0.731646 -1.11248
-0.390624 0.993779 -1.09167
2.73955e-07 1.36287 1.50962
0 0.82879 1.90072
-0.833438 0.798346 1.1955
-0.389628 1.41173 1.20167
0.881427 0.54235 -1.44716
0.380965 0.53 -1.96328
0.881005 0.385176 -1.15411
0.395632 0.205948 -1.17493
0.870627 0.630941 1.49322
0.400777 0.64 1.94811
0.854193 0.448209 1.18318
0.400031 0.218543 1.17702
0.895902 0.731634 -1.11248
0.390611 0.993757 -1.09167
0.833484 0.798344 1.1955
0.389628 1.41172 1.20167
-0.850652 0.403097 0.0145337
-0.410347 0.206959 0.00104499
-0.886293 0.567042 -0.842966
-0.860176 0.585484 -0.262307
-5.14455e-06 0.191983 -0.880933
-3.84524e-06 0.199017 -0.292948
-0.852706 0.597673 0.318352
-0.851605 0.612825 0.899011
2.18308e-06 0.209771 0.295038
3.89792e-06 0.217147 0.883023
-0.845024 0.782592 0.0415113
-0.508464 1.43272 0.055
3.44748e-06 1.10156 -0.805
3.72144e-06 1.38406 -0.231667
1.97102e-06 1.47871 0.341667
8.21864e-07 1.45889 0.915
0.850595 0.403107 0.0145337
0.41035 0.206959 0.00104499
0.886275 0.56705 -0.842966
0.860149 0.585491 -0.262307
0.852647 0.597672 0.318352
0.851541 0.612822 0.899011
0.845018 0.782615 0.0415113
0.508475 1.43273 0.055
-0.878766 0.388841 -1.45802
-0.883356 0.391683 -0.861949
-0.852064 0.74612 -0.823983
-0.883984 0.699573 -1.41273
0.87868 0.388838 -1.45804
0.883995 0.699567 -1.41275
0.852067 0.746119 -0.823983
0.883423 0.391686 -0.861949
-0.381563 0.218089 -1.47438
0.381566 0.218089 -1.47438
0.399526 0.191983 -0.880933
-0.39953 0.191983 -0.880933
-0.368988 0.9322 -1.38934
-0.394661 1.07664 -0.805
0.394659 1.07664 -0.805
0.368982 0.932041 -1.38934
-0.374215 0.387039 -1.81533
-0.364141 0.678505 -1.88167
0.364158 0.678505 -1.88167
0.374232 0.387039 -1.81533
-0.85153 0.396555 -0.277627
-0.850501 0.409416 0.306695
-0.84202 0.787942 0.330009
-0.846403 0.775704 -0.246987
0.85148 0.396573 -0.277627
0.846364 0.775703 -0.246987
0.841923 0.787914 0.330009
0.850443 0.409425 0.306695
-0.41014 0.199202 -0.292948
0.410137 0.199202 -0.292948
0.412843 0.209366 0.295038
-0.412837 0.209366 0.295038
-0.499491 1.35975 -0.231667
-0.51071 1.44777 0.341667
0.510722 1.44779 0.341667
0.499467 1.35968 -0.231667
-0.856008 0.43663 0.891017
-0.847231 0.460354 1.48212
-0.837531 0.802923 1.49079
-0.833112 0.790414 0.907006
0.856076 0.436626 0.891017
0.833129 0.790413 0.907006
0.837455 0.802922 1.49078
0.847257 0.460354 1.48211
-0.402849 0.217147 0.883023
0.402855 0.217147 0.883023
0.396644 0.235821 1.48202
-0.396643 0.235821 1.48202
-0.390488 1.44424 0.915
-0.385413 1.32619 1.49898
0.385414 1.32619 1.49898
0.39049 1.44424 0.915
-0.397028 0.461487 1.9385
0.397017 0.461487 1.93776
0.390988 0.818145 1.87926
-0.390999 0.818145 1.87925
-0.754708 0.32375 -1.77542
-0.55125 0.238328 -1.77958
-0.758218 0.236012 -1.61591
-0.797651 0.38875 1.7804
-0.589886 0.262391 1.80761
-0.787788 0.299497 1.618
-0.707785 0.73625 -1.68528
-0.521028 0.832223 -1.69222
-0.733712 0.84827 -1.52167
-0.787806 0.89125 1.79614
-0.571799 1.00375 1.80375
-0.7819 0.990239 1.63167
0.55125 0.238185 -1.77973
0.754656 0.32375 -1.77536
0.758287 0.235943 -1.61591
0.589886 0.262414 1.80759
0.79714 0.38875 1.77989
0.787803 0.299483 1.618
0.521028 0.832088 -1.69209
0.70778 0.73625 -1.68528
0.733723 0.848282 -1.52167
0.571799 1.00384 1.80384
0.788237 0.89125 1.79657
0.781882 0.990221 1.63167
-0.80615 0.213459 -0.733936
-0.80785 0.220218 -0.439944
-0.835118 0.300755 -0.578364
-0.613409 0.194187 -0.58694
-0.81222 0.249687 0.736026
-0.810405 0.243042 0.442034
-0.835997 0.32846 0.593943
-0.619794 0.216136 0.58903
-0.798778 0.938913 -0.661667
-0.825843 0.856933 -0.526909
-0.795758 0.944419 -0.375
-0.683016 1.1924 -0.518333
-0.78195 0.964712 0.771667
-0.814801 0.879217 0.623421
-0.783544 0.957781 0.485
-0.659206 1.23477 0.628333
0.806155 0.213454 -0.733936
0.613403 0.194182 -0.58694
0.807834 0.220234 -0.439944
0.835092 0.300773 -0.578364
0.812271 0.249635 0.736026
0.6198 0.216136 0.58903
0.810374 0.243073 0.442034
0.83596 0.328465 0.593943
0.798763 0.938898 -0.661667
0.683114 1.19258 -0.518333
0.825856 0.856948 -0.526909
0.795758 0.944419 -0.375
0.781952 0.964714 0.771667
[...]
POINT_DATA 3682
SCALARS point_scalars float 1
LOOKUP_TABLE default
-125.403
-57.7107
-32.9016
-45.0632
-127.067
-55.9348
-32.9349
-41.6737
-44.711
-38.037
-68.5757
-46.431
-44.5647
-37.7037
-68.2554
-45.7536
-27.1711
-108.836
-43.4022
-37.7829
-54.0302
-48.241
-46.9427
-32.0073
-114.26
-43.2729
-37.9629
-52.9922
-49.3411
-43.8907
20.9859
-94.5218
-52.846
-42.6699
-49.8604
-47.3219
-42.7156
-18.384
-59.9716
-118.01
-56.161
-45.5068
-43.3501
-42.7962
36.1513
-141.377
-47.0352
-38.5209
-50.868
-45.48
-43.4632
36.1513
-44.2461
-42.6946
142.51
-41.6645
-42.231
-23.1285
-29.5742
-111.45
-60.4477
-40.0575
-38.8254
-39.6003
30.1018
-130.847
-46.8972
-38.2562
-49.6437
-44.3082
-42.0676
30.1018
-42.5575
-41.7427
142.527
-38.4513
-40.8518
-21.41
-29.5141
-110.625
-59.8634
-37.6995
-35.4733
-35.0359
-30.9606
-108.63
-43.2227
-37.4046
-52.5731
-46.4327
-45.2486
-28.677
-106.479
-43.0973
-37.555
-51.1682
-47.2496
-42.222
29.8507
-94.1994
-52.581
-42.0466
-47.227
-44.0616
-40.8068
-18.3586
-64.5291
-117.476
-55.4432
-42.8232
-40.0013
-39.396
-12.9391
-131.348
-59.2621
-49.4194
-48.7146
-43.1008
-28.2895
-57.8555
-32.4981
-44.0396
-12.4152
-59.0437
-46.8359
-42.3619
-57.7303
-42.5811
-38.89
-47.9456
-50.402
-39.9433
-40.4407
-54.9292
-12.993
-69.1895
-38.6934
-47.7178
-39.4472
-54.4871
-68.527
-68.3692
-61.9978
3.93419
201.992
-43.1315
-42.7867
-41.6517
-101.52
-47.4169
-46.2048
-45.8831
-46.4617
-39.5883
-11.0649
-132.419
-87.1136
-54.1323
-50.3906
-46.9695
-7.70821
-40.8851
-55
-48.8122
-36.8805
-46.2586
-128.255
-22.7889
-86.9092
-49.4516
-51.5146
-46.0032
-40.7708
-7.54419
-54.9278
-32.9026
-45.9326
-43.9175
-49.2817
-41.6139
-44.2981
-49.4963
-39.5538
-37.9697
-38.3393
-40.1179
-63.1883
-55.1203
-60.8199
-17.9436
-44.2915
-42.4663
-50.5439
-61.389
-49.1573
-49.4472
-41.44
-44.1766
-39.0901
-39.9635
-37.7054
-37.8826
-62.9219
-18.0923
-54.8462
-60.4463
-43.3216
-60.8277
-41.8385
-50.0066
-106.197
186.177
-82.05
182.369
-66.337
-60.4393
-51.4021
-41.1079
-49.0405
-42.2362
-44.9767
-45.6971
-17.6021
127.27
-69.584
-5.20757
-36.2891
-37.6745
-42.8214
-48.0179
-105.837
186.075
-66.1783
-60.1473
-49.6027
-39.1655
-44.0668
-45.3996
-69.542
-5.1162
-41.3811
-46.8658
-39.9335
-40.8768
-58.2246
-45.3026
-55.4043
-45.644
-41.3752
-38.4686
-40.8926
-42.3577
-49.7055
-90.6962
24.9385
-62.8584
-82.531
-56.93
-39.6421
-40.7766
-58.0098
-45.0289
-40.9588
-37.7614
-49.3077
-90.3019
-100.211
-58.2212
-56.5111
-92.2188
-99.9025
-92.0411
-56.2553
-58.212
-79.9603
-79.3313
-54.3276
-54.4155
-22.7098
14.7753
14.7298
-22.6109
163.504
121.316
120.797
163.494
-41.93
-38.8331
-46.0812
-51.6729
-41.6942
-51.3461
-45.7872
-38.4722
-44.7883
-44.7252
-40.2424
-40.3546
-76.3746
-71.0119
-70.5047
-75.9863
-37.1627
-49.4459
-50.6554
-41.0976
-36.781
-40.1979
-48.4574
-48.0354
-42.0841
-41.8676
-48.8579
-49.3306
-56.1418
-38.7138
-36.7057
-55.4876
-42.6718
-41.898
-37.1834
-40.2408
-18.4541
-125.881
-99.1758
-55.9191
-53.022
-49.9186
-10.299
-41.6086
-52.6695
-47.5134
-38.9719
-46.9116
-125.686
-33.1888
-98.2664
-51.5937
-53.8636
-48.6278
-41.4611
-10.1351
-52.5558
-35.503
-44.3176
-43.9413
-52.4839
-43.263
-43.6438
-48.1432
-39.4336
-38.0843
-38.1321
-39.5554
-71.5935
-60.8828
-64.2148
-96.9915
-45.0196
-44.358
-48.194
-52.4063
-52.3261
-48.0308
-43.102
-43.5977
-39.0576
-39.3301
-37.7874
-37.7034
-71.2649
-96.3073
-60.5851
-63.8766
-44.2239
-51.671
-43.7008
-47.5876
-10.5424
-0.855612
-105.664
134.678
-132.095
-131.527
-99.0149
100.451
-69.1897
-54.8652
-64.2458
-59.1462
-51.6977
-48.5999
-53.3667
-41.6215
-49.2049
-48.7233
-47.8497
-43.7078
-45.291
-48.3808
-44.1324
-45.2018
-32.6853
-32.6257
-26.0203
28.7954
-60.0001
-58.7106
-69.897
-17.5889
-34.5654
-31.9625
-33.1561
-34.6961
-44.5998
-43.6864
-43.5436
-48.6322
-10.1386
-1.02388
-105.071
134.565
-68.8917
-54.7765
-64.0908
-58.8877
-49.433
-45.8362
-51.0491
-39.5988
-44.456
-47.6372
-43.2296
-44.731
-59.8722
-58.5394
-69.7042
-17.4987
-42.7748
-42.511
-42.1022
-47.1195
-40.3571
-38.2097
-39.2271
-39.9394
-45.9538
-50.55
-50.2894
-46.3891
-50.1382
-50.1105
-52.9901
-48.6239
-39.0808
-40.9787
-40.5342
-39.3652
-40.3653
-40.2838
-40.6328
-41.1841
-57.5862
-52.2872
-51.8912
-68.2153
-14.0573
-13.9824
13.1262
-41.4648
-67.8987
-67.5963
-75.3602
-62.7764
-40.1715
-37.9897
-38.9578
-39.7957
-45.7585
-50.3024
-50.0778
-46.1416
-38.5898
-40.39
-40.064
-38.7286
-57.1752
-51.8198
-51.4649
-67.6647
-80.1089
-67.7428
-69.009
-62.0086
-79.8992
-67.5747
-68.9152
-61.8559
-70.6368
-61.5655
-61.402
-57.9547
-7.76758
1.50525
1.5664
15.8979
198.812
185.352
166.15
198.875
-41.2705
-44.1354
-42.3568
-45.4478
-40.9594
-43.8281
-41.9698
-45.0779
-41.4289
-44.1429
-41.0202
-41.3741
-98.2368
-90.3613
-91.6893
-98.0331
-48.2339
-47.7275
-43.0555
-36.5318
-46.7963
-46.6232
-41.7886
-35.5243
-49.1562
-45.8862
-45.7391
-43.9093
-40.8066
-46.7238
-46.0873
-51.5753
-40.2358
-42.7936
-38.5957
-39.2378
-119.206
132.159
-96.9342
170.463
-97.9599
-79.9837
-52.1287
-42.9657
-48.5485
-44.156
-48.5144
-48.5692
-77.9262
92.6534
-30.6383
66.653
-82.483
-30.7795
-51.3452
-41.1188
-36.3986
-38.7491
-47.4912
-42.2487
-95.894
155.58
-115.393
130.647
-97.9863
-79.5097
-47.9156
-43.134
-50.3393
-41.6639
-47.277
-47.8752
-30.5989
64.6984
-77.6335
91.4512
-82.5759
-30.7144
-33.9255
-34.5468
-48.7577
-38.1795
-45.274
-39.7163
-57.8646
-52.526
-41.3881
-43.6505
-49.5062
-42.9851
-52.1464
-47.641
-36.8931
-41.9506
-38.2594
-39.5683
-38.5501
-38.2924
-40.1062
-40.8093
-60.174
-0.907574
-55.666
-53.5042
-56.1006
-83.7147
7.55185
-46.1668
-42.8906
-51.637
-43.5356
-41.5926
-48.2407
-59.5368
-65.2171
-59.0323
-57.7389
-52.3879
-52.0976
-47.6081
-41.1612
-43.5299
-49.2052
-42.7619
-36.4902
-41.6027
-39.9775
-40.6288
-37.916
-39.3968
-38.1453
-37.8181
-59.9255
-0.61999
7.49946
-46.2457
-55.421
-53.2019
-55.751
-83.3025
-41.935
-50.6852
-64.7031
-58.4393
-42.9877
-40.8596
-47.7475
-58.9271
-102.12
-104.332
163.736
144.262
-81.3719
-81.0288
171.865
173.097
-77.1115
-60.2374
-68.9957
-56.6144
-50.2947
-53.0528
-42.7725
-40.5512
-48.9876
-49.2081
-42.4668
-42.0121
-47.9722
-46.0935
-43.6716
-49.157
-18.8221
-18.7847
128.607
122.607
-63.0282
-83.0123
-14.6923
4.03914
-37.1661
-36.1633
-37.0926
-38.7731
-47.1738
-41.4475
-52.1804
-43.3391
-101.673
-104.109
144.579
164.952
-76.96
-60.0913
-68.5809
-56.4331
-50.9717
-48.6884
-42.1314
-37.9967
-46.7385
-44.9878
-43.417
-48.7967
-82.7776
-62.8865
4.30582
-14.6295
-40.3921
-45.4346
-41.7957
-51.3232
-40.8464
-39.3419
-43.3235
-40.335
-58.8469
-56.0041
-43.2745
-47.8733
-55.0845
-55.1422
-45.4704
-45.4367
-39.9606
-43.1151
-37.796
-39.7524
-40.7047
-40.7603
-42.3025
-42.1954
-45.4656
-50.2039
-98.0344
-78.5134
21.9781
21.6592
-61.1504
-61.0539
-80.3368
-80.1097
-56.677
-56.3096
-40.5815
-39.0097
-43.2604
-40.2288
-55.7419
-58.6772
-43.0189
-47.5732
-42.7126
-39.5648
-37.2458
-38.876
-49.8379
-44.829
-78.0901
-97.5039
-106.14
-73.6667
-78.6831
-118.066
-50.3516
-49.7084
-61.5296
-58.4245
-61.8303
-62.5507
-62.7147
-52.17
-69.4717
-91.1866
-81.5455
-78.3732
-99.9088
-116.359
-78.4884
-73.5682
-69.1687
-77.4117
-81.2817
-90.9736
-61.5517
-51.9454
-62.5679
-62.3771
-50.1525
-58.2901
-61.3756
-49.4959
-96.1686
-98.3992
-70.1659
-68.1669
-95.5862
-67.8064
-69.9193
-97.8533
-51.2981
-52.7033
-57.4852
-55.1375
-51.4164
-55.3173
-57.5927
-52.7372
-36.7036
-24.1366
-9.42403
-27.6089
-60.0287
11.5623
12.6161
-14.0229
-59.6776
-13.3731
13.0139
11.5743
-36.5955
-27.5703
-9.38458
-24.0605
107.623
131.898
181.873
138.005
64.6066
58.0909
151.495
111.076
64.6173
110.397
151.655
57.7745
106.653
137.631
182.415
130.131
-42.485
-40.2595
-42.2362
-44.4799
-38.092
-39.4218
-40.6276
-38.6999
-45.72
-48.5882
-43.8753
-41.9558
-58.4553
-49.2017
-46.4845
-53.9731
-42.27
-44.2468
-41.9414
-40.0141
-58.1325
-53.5771
-46.1511
-48.9316
-45.1462
-41.3301
-43.4295
-48.125
-37.7076
-38.3935
-40.2739
-38.9812
-46.4504
-48.4834
-43.9481
-42.2964
-46.3393
-42.168
-43.9176
-48.4721
-39.2804
-40.4603
-40.7527
-39.3124
-39.4771
-39.4668
-40.8093
-40.5262
-96.1578
-74.4575
-92.4282
-39.091
-55.9527
-73.5434
-89.6151
-62.8442
-55.3001
-62.3293
-89.4073
-73.2858
-95.9383
-39.0016
-92.2347
-74.012
-37.5109
-49.3081
-42.2139
-38.6926
-50.8475
-52.8152
-47.2014
-45.3877
-49.8862
-45.8011
-48.7984
-52.5974
-43.4142
-40.2882
-38.95
-42.8133
-37.092
-38.132
-41.0279
-48.2293
-42.6411
-41.6973
-37.9419
-39.597
-47.1518
-50.1774
-47.1571
-44.0278
-49.2877
-44.3828
-45.9125
-50.7853
-40.4874
-41.1067
-43.8756
-43.3642
-40.2249
-42.9438
-43.7501
-41.014
-47.7048
-47.8265
-49.0368
-48.0733
-48.5861
-48.6511
-49.2111
-48.1741
-50.8816
-50.0401
-51.8957
-62.1725
-38.6458
-34.5956
-41.7674
-46.9353
-35.8963
-44.8906
-40.892
-32.982
-50.0207
-61.8439
-51.4303
-48.8801
-44.1888
-44.0192
-43.0928
-42.7479
-42.7576
-41.5668
-42.8343
-43.42
-36.9992
-34.0395
-38.0191
-38.7008
-40.6995
-41.3073
-39.4453
-36.549
-57.1965
-145.609
-118.874
-57.5735
-55.9237
-50.7352
-15.6813
-40.7449
-49.6063
-46.6121
-40.2215
-45.4353
-146.296
-61.8989
-118.489
-54.2424
-55.6544
-49.3501
-40.8134
-15.664
-49.43
-37.0005
-43.2531
-42.332
-46.224
-43.911
-43.5002
-46.8957
-38.764
-38.06
-37.8934
-38.6755
-70.592
-64.4627
-66.3491
-86.3976
-45.7078
-45.4021
-47.2033
-49.5453
-46.0794
-46.7658
-43.7575
-43.3282
-38.4035
-38.4133
-37.7434
-37.5042
-70.2676
-86.1292
-64.1529
-66.0247
-44.9735
-48.8073
-44.7373
-46.5624
-17.3186
-3.38178
-59.6813
77.3995
-132.004
-131.88
-113.789
25.0006
-62.9055
-57.1499
-62.0697
-59.0506
-50.3864
-48.5869
-52.7393
-42.8841
-49.0432
-48.8025
-47.8798
-45.6934
-44.2778
-42.6419
-43.3993
-44.9315
-29.5889
-29.5923
-33.028
-12.6603
-61.8953
-59.3724
-67.1953
-35.3481
-33.6176
-32.2004
-32.8168
-33.1847
-44.3029
-43.8351
-43.7592
-45.1834
-18.7095
-3.8473
-60.1372
78.0224
-62.7021
-56.9526
-61.5919
-58.8303
-47.9972
-45.9166
-50.1967
-40.7902
-43.5205
-41.9112
-42.5101
-44.3175
-61.6547
-59.2115
-66.8773
-35.1732
-42.6694
-42.5467
-42.337
-43.653
-39.5011
-38.5565
-38.6617
-39.288
-46.9137
-49.1285
-48.8761
-47.0893
-50.4208
-50.4027
-51.6186
-49.3313
-39.5828
-40.425
-40.1546
-39.6728
-40.4551
-40.4134
-40.2817
-40.7781
-56.2925
-53.3679
-53.1703
-60.9419
-13.4089
-13.4316
1.61552
-28.2167
-68.9355
-68.7786
-72.2011
-65.9829
-39.3092
-38.3516
-38.4243
-39.1228
-46.6975
-48.892
-48.6567
-46.8522
-39.0817
-39.8933
-39.6514
-39.0652
-55.8715
-52.9171
-52.7368
-60.4802
-73.7232
-68.1363
-68.7256
-64.5592
-73.529
-67.9724
-68.5854
-64.4116
-65.8173
-61.8311
-61.7564
-59.7051
-1.52644
3.26416
3.24842
8.85964
204.305
200.4
189.603
204.333
-42.2442
-43.5756
-42.8132
-44.1585
-41.9084
-43.2539
-42.446
-43.8016
-41.5938
-42.9348
-41.2804
-41.5652
-99.9582
-99.7949
-97.1524
-99.8617
-49.4452
-48.9321
-44.7642
-41.9604
-48.1072
-47.7358
-43.5194
-40.8405
-47.2042
-45.9045
-45.8309
-44.8198
-43.5664
-46.3697
-46.0397
-49.0175
-39.8997
-42.0859
-38.2166
-39.3825
-19.6225
-7.55359
-71.9293
98.8488
-129.697
-134.043
-111.907
62.1432
-94.7072
-76.6851
-95.1549
-81.9848
-54.8686
-53.2203
-54.4439
-44.9517
-51.2157
-49.8839
-48.7728
-46.7191
-49.1416
-45.5744
-47.8363
-46.8373
-9.19793
-1.71072
-43.2633
44.8067
-41.7615
-36.6976
-38.9024
-15.1356
-58.1535
-54.8384
-74.1603
-38.4702
-47.9921
-49.1991
-49.7898
-42.5237
-37.918
-35.726
-36.5831
-37.7745
-46.2949
-45.1939
-46.6689
-45.6616
-127.397
-130.235
-110.53
78.5456
-25.9274
-6.27272
-73.6937
92.7002
-94.2075
-76.3264
-95.3369
-81.5666
-50.0527
-49.1646
-48.0187
-45.817
-52.5896
-51.2241
-52.4133
-43.3212
-48.0089
-44.7048
-46.6889
-46.0829
-41.1127
-36.6282
-38.889
-15.1395
-8.97869
-1.68029
-43.2025
45.1897
-58.203
-54.7418
-74.0131
-38.4928
-33.9772
-32.1541
-33.5927
-33.2541
-44.9865
-46.4169
-47.0286
-39.8933
-43.6714
-43.1281
-44.411
-43.0443
-52.2686
-52.341
-55.3366
-50.2982
-42.4244
-41.1069
-41.058
-42.5018
-43.8849
-45.0667
-45.6455
-43.5156
-48.9984
-49.7922
-50.884
-48.2419
-39.9551
-48.2488
-37.4735
-42.4934
-38.1182
-38.058
-37.796
-38.8922
-38.1602
-38.6264
-38.433
-38.2481
-39.8518
-40.2327
-39.8822
-40.4316
-71.5396
-60.6652
-63.5643
-27.6968
-57.5637
-52.4487
-55.3116
-54.3922
-62.5817
-59.1738
-58.2935
-70.0582
-34.4077
-15.6246
-5.18925
-32.7676
-44.5925
-43.9514
-43.5645
-47.5994
-43.3676
-41.6148
-42.9411
-42.0222
-49.4209
-51.3862
-49.4777
-55.0398
-55.0421
-66.0313
-63.0909
-61.5837
-52.2449
-52.2744
-55.2643
-50.1656
-48.9162
-49.7569
-50.8389
-48.1911
-42.2584
-40.9223
-40.8501
-42.3567
-43.8225
-44.9117
-45.4495
-43.3076
-39.5518
-47.6133
-36.9659
-42.066
-39.6606
-40.1143
-39.739
-40.2655
-37.8376
-37.8224
-37.4787
-38.6812
-37.7213
-38.1523
-38.0035
-37.7759
-71.1966
-60.4914
-63.2914
-27.4539
-34.0285
-15.4677
-4.93794
-32.6006
-57.2777
-52.1877
-55.0508
-54.1066
-62.2307
-58.7877
-57.9303
-69.678
-43.7188
-42.8947
-42.6054
-46.5838
-54.3481
-65.5972
-62.5442
-61.0098
-42.7276
-40.9884
-42.3517
-41.3505
-48.8354
-50.8877
-48.958
-54.3517
-115.129
-90.3985
-103.058
-105.193
167.082
198.258
184.262
172.984
-89.3021
-75.5766
-81.9637
-81.807
164.179
172.497
180.997
180.948
-65.9045
-67.1077
-71.8945
-62.2312
-59.8187
-61.0003
-64.1823
-58.1668
-52.4635
-49.8665
-50.8532
-52.1453
-41.3714
-40.751
-42.3765
-40.3078
-48.4358
-49.7535
-48.9949
-49.1155
-42.6762
-42.2311
-42.4441
-42.1976
-44.4267
-45.9079
-47.4152
-45.5309
-45.4728
-45.8232
-44.5889
-47.0738
-22.026
-12.7791
-17.9818
-17.9646
81.1217
158.674
127.398
125.404
-70.2185
-69.8484
-66.3176
-74.6754
-10.446
-1.4507
-9.71824
-2.11011
-33.5429
-38.42
-36.4355
-35.8261
-36.2225
-38.5629
-37.188
-38.0998
-43.4581
-42.3805
-45.2319
-41.6397
-49.1071
-47.2302
-49.9057
-45.9324
-114.604
-90.1392
-102.663
-104.886
166.708
198.253
173.061
184.254
-65.754
-66.9399
-71.7365
-62.0739
-59.5173
-60.7583
-63.855
-57.9257
-50.4177
-48.2685
-50.2287
-49.1545
-39.2853
-39.2614
-41.4127
-37.7839
-43.5369
-44.9261
-45.848
-44.5216
-45.0969
-45.6021
-44.3143
-46.7479
-70.0629
-69.8215
-74.3715
-66.2971
-10.2984
-1.36359
-2.07186
-9.63865
-41.9749
-41.0548
-40.4238
-43.7415
-47.7497
-46.3094
-44.5721
-48.8984
-39.4906
-40.4798
-40.3565
-39.6714
-40.4564
-41.1765
-42.1642
-40.5446
-53.5219
-60.4619
-58.64
-57.1919
-45.7492
-44.7547
-44.2536
-46.3689
-54.4178
-56.3778
-55.3407
-55.3739
-47.2597
-44.6439
-45.5657
-45.5471
-40.8781
-41.8744
-40.7947
-42.0928
-38.9818
-37.234
-38.2918
-39.0981
-40.988
-40.9292
-40.8222
-40.8517
-41.7303
-43.0898
-42.3609
-42.3067
-50.7836
-47.2502
-48.5559
-49.6193
-78.4445
-95.1859
-94.3988
-83.6218
21.6883
22.6274
23.5391
24.0868
-51.9066
-76.2155
-62.865
-62.8072
-78.8553
-86.6774
-82.0494
-81.9326
-59.7768
-54.0184
-56.8732
-56.6741
-39.215
-40.1845
-40.0852
-39.3569
-40.3326
-41.0983
-42.0852
-40.4438
-53.3113
-60.2687
-56.9618
-58.4301
-45.4891
-44.4644
-43.988
-46.0845
-40.4363
-41.4739
-41.6751
-40.3838
-38.3111
-36.3409
-37.6145
-38.3442
-50.363
-46.8704
-49.2373
-48.1777
-77.9988
-94.8815
-83.1882
-93.7744
-114.579
-100.123
-100.608
-86.496
-58.6184
-55.5012
-59.3094
-58.6729
-58.235
-55.6211
-59.4109
-55.5254
-90.9386
-86.1084
-98.1568
-91.5288
-113.334
-100.011
-100.201
-86.4388
-90.6468
-86.0776
-97.9966
-91.2529
-57.9906
-55.3884
-59.2397
-55.2425
-58.5735
-55.1908
-59.1798
-58.5743
-87.2357
-79.7004
-80.8007
-73.7443
-86.4355
-79.1071
-80.2635
-73.2155
-53.735
-53.5284
-54.9343
-54.7511
-53.8539
-53.579
-55.0849
-54.8213
-26.3321
-25.6882
-20.4308
-18.6708
7.41735
14.1124
11.0517
19.803
7.51626
14.2783
10.9398
19.6708
-26.241
-25.6119
-20.371
-18.5792
157.99
168.301
162.007
167.162
107.182
101.615
128.762
124.255
101.093
108.085
124.114
129.209
170.202
156.45
169.644
162.134
-41.5077
-42.4094
-41.3821
-42.524
-38.4717
-38.6623
-39.1224
-39.2436
-44.5929
-47.1707
-44.5721
-45.3233
-52.58
-53.7345
-49.629
-50.9291
-41.2784
-42.1816
-41.1318
-42.2792
-52.2622
-53.3996
-49.313
-50.5839
-44.07
-46.8696
-44.2354
-44.7231
-38.1244
-38.2804
-38.7826
-38.8671
-44.3638
-46.2769
-43.8076
-45.1254
-46.2314
-44.2719
-45.0802
-43.7404
-40.2613
-39.8893
-40.5065
-40.1146
-40.0322
-40.3763
-40.219
-40.5868
-104.118
-62.1152
-86.0311
-61.6675
-64.3473
-68.3835
-74.0704
-77.1951
-67.8781
-63.7695
-76.8623
-73.6103
-61.8623
-103.588
-61.5628
-85.8524
-36.7919
-37.9868
-39.621
-37.6589
-50.4788
-48.9339
-49.9717
-47.7626
-51.6349
-48.7538
-52.4801
-49.7855
-41.9777
-41.2649
-41.359
-40.3628
-36.3986
-37.5263
-39.9925
-37.2277
-41.054
-40.4541
-40.3589
-39.4735
-49.2393
-46.5526
-50.304
-47.7943
-48.8938
-47.6079
-48.4616
-46.5052
-41.9954
-41.4083
-42.8455
-42.2062
-41.7079
-41.2073
-42.6092
-42.0456
-48.3595
-48.6386
-48.9154
-49.4862
-48.9093
-49.2229
-49.2711
-49.8964
-55.5131
-57.9215
-54.1997
-56.3489
-36.7065
-40.3266
-37.8683
-40.7455
-34.4284
-37.9697
-36.3174
-39.017
-54.7408
-57.307
-53.4542
-55.8204
-42.7107
-43.0483
-42.6819
-42.5432
-42.1068
-41.6499
-41.9142
-42.0162
-35.9506
-37.5554
-37.0105
-38.0261
-40.7475
-39.5551
-40.6665
-39.478
-82.9446
43.6401
-115.879
-14.4943
-100.775
-97.0904
-53.9465
-46.7607
-49.8549
-47.5455
-49.804
-47.7374
-46.9508
28.6302
-38.8669
-7.6446
-63.3825
-42.1082
-48.1452
-41.7626
-38.4079
-40.2169
-48.2504
-42.4312
-115.308
-15.7099
-83.473
46.0038
-96.1642
-96.7002
-48.8092
-46.3272
-52.1728
-45.0681
-48.3543
-46.6969
-38.7021
-5.49722
-46.9041
29.4922
-63.1595
-41.8832
-35.5061
-36.3323
-45.1666
-38.7168
-45.4647
-39.4198
-52.5219
-51.2418
-42.2427
-45.3585
-45.165
-43.0653
-49.5161
-46.9549
-38.1421
-40.9398
-37.8215
-39.0287
-38.051
-38.0187
-39.2591
-40.006
-66.2318
-93.4889
-61.6319
-59.669
-61.2518
-75.473
-91.5436
-103.217
-44.2796
-47.7565
-44.9656
-43.7741
-46.9668
-52.6017
-53.7423
-51.4604
-52.3754
-51.1022
-49.4013
-46.8435
-42.0478
-45.2192
-44.9997
-42.8606
-37.7237
-40.6176
-39.0486
-39.7638
-37.4791
-38.7946
-37.6464
-37.556
-65.932
-92.9825
-90.4333
-103.036
-61.3399
-59.3602
-60.9208
-75.1438
-43.4955
-46.8989
-53.0501
-50.6631
-44.3531
-43.0659
-46.3823
-51.9568
-66.6415
80.1002
-58.8542
70.0764
-113.431
-97.6832
137.406
128.93
-113.276
49.0131
-112.591
46.9626
-98.8606
-98.6432
82.9528
82.5203
-70.9904
-68.2091
-56.3488
-55.0239
-68.9677
-61.4204
-63.3811
-56.8569
-53.7355
-44.122
-51.528
-42.474
-53.2839
-53.2533
-42.4149
-41.0109
-48.2106
-46.1465
-47.824
-45.5536
-47.8151
-47.9823
-43.6981
-43.4325
-45.1812
-48.6201
-49.4504
-44.349
-44.2343
-44.8428
-44.0784
-46.3487
-35.5756
-16.3202
-35.5664
-16.5401
-26.6196
-26.6095
46.0969
45.7365
-73.2838
-35.0375
-63.9515
-33.1953
-66.103
-73.9934
-21.6588
-14.9913
-34.4926
-35.096
-32.442
-32.2978
-33.7804
-32.8763
-34.2806
-35.6004
-45.133
-45.965
-42.8268
-45.8351
-45.095
-42.3595
-49.3776
-48.2661
-67.8421
86.5499
-58.8622
69.8376
-112.418
-97.3728
128.699
136.762
-70.8184
-67.8997
-56.2685
-54.8961
-68.8296
-61.2751
-63.0862
-56.6358
-51.4584
-42.4805
-48.8555
-40.0164
-50.8661
-51.1179
-41.0588
-38.4244
-44.2142
-48.0473
-48.5171
-43.8202
-43.1172
-43.9028
-43.646
-45.8513
-73.0752
-35.0014
-63.7854
-32.9361
-73.766
-65.9276
-14.9411
-21.6298
-43.3394
-43.9293
-41.6806
-44.6161
-41.1008
-43.5116
-46.4105
-48.0595
-39.9139
-41.3853
-38.1546
-38.852
-39.656
-38.9702
-41.1192
-39.6721
-47.2285
-45.1143
-51.1879
-49.7846
-49.8335
-51.2228
-45.3435
-47.6277
-51.3672
-49.0759
-51.2361
-49.0535
-52.8936
-52.9153
-48.6451
-48.6342
-39.1821
-38.9072
-41.3789
-40.6047
-40.0958
-41.1183
-39.0965
-39.8304
-40.1821
-40.6931
-40.1062
-40.6065
-40.5982
-40.6325
-41.1776
-41.1305
-55.6187
-65.0967
-50.7902
-56.9457
-50.0105
-52.957
-71.029
-65.3576
1.46835
-25.3832
1.50517
-25.2976
12.4059
12.3424
-40.6704
-40.6303
-70.6315
-65.0491
-70.3528
-64.7328
-74.9696
-74.8367
-62.6806
-62.5119
-39.693
-41.2304
-37.8799
-38.667
-39.3998
-38.6829
-40.9839
-39.5221
-47.034
-44.8918
-50.9524
-49.5288
-51.0047
-49.6252
-45.1031
-47.3707
-38.714
-38.3718
-40.8134
-39.9757
-40.6306
-39.6367
-38.484
-39.1629
-55.2174
-64.6791
-50.3486
-56.454
-52.5484
-49.5611
-64.8603
-70.535
-79.2977
-80.8663
-73.0712
-63.821
-65.2196
-74.3501
-61.7669
-62.1692
-79.0854
-80.6384
-72.8871
-63.6712
-74.1631
-65.1134
-62.0189
-61.6101
-70.6392
-70.5216
-65.325
-59.2728
-65.1328
-59.1374
-57.8132
-57.8669
-7.99574
-7.98005
-3.55863
5.54891
5.71877
-3.51418
15.5808
15.1796
197.458
186.576