# vtk DataFile Version 2.0
tet_velo
ASCII
DATASET UNSTRUCTURED_GRID
POINTS 29498 float
-0.658096 0.135 -1.865
-0.716109 0.225 1.825
-0.772057 0.655 -1.675
-0.695 0.895 1.91423
0.658101 0.135 -1.865
0.716114 0.225 1.825
0.772069 0.655 -1.675
0.695 0.895 1.91425
-0.753979 0.0884543 -0.635
-0.790345 0.101426 0.595
-0.802566 0.791194 -0.47859
-0.763871 0.858185 0.71782
0.753716 0.088723 -0.635
0.790351 0.101425 0.595
0.802575 0.791196 -0.478583
0.763756 0.858067 0.717833
-1.4132 -0.248456 -2.91147
-1.4253 -0.214743 -1.94092
-1.49437 -0.245869 -0.710055
-1.52929 -0.244871 0.527572
-1.494 -0.157696 1.75901
-1.48084 -0.091737 2.73235
-1.48521 -0.0394056 3.70052
-1.41772 0.066018 -2.82855
-1.43065 0.119793 -1.86167
-1.50964 0.104425 -0.637334
-1.53242 0.110673 0.590021
-1.47096 0.197844 1.815
-1.46526 0.262449 2.78786
-1.47764 0.313755 3.75713
-1.46716 0.652301 -2.65327
-1.50979 0.704265 -1.685
-1.55039 0.795535 -0.483567
-1.52165 0.846161 0.715486
-1.45504 0.893637 1.91756
-1.45779 0.95572 2.89182
-1.47591 1.01132 3.86651
-1.5124 1.62098 -2.41561
-1.53509 1.68795 -1.45237
-1.55115 1.80013 -0.261823
-1.54181 1.89518 0.921482
-1.51913 1.96003 2.11238
-1.50852 2.00769 3.07635
-1.50819 2.05676 4.04737
-0.673211 -0.240037 -2.91364
-0.673616 -0.203271 -1.94408
-0.735164 -0.253056 -0.709629
-0.776495 -0.251907 0.531821
-0.751991 -0.14395 1.76644
-0.741295 -0.0811279 2.73739
-0.744862 -0.0332399 3.70344
-0.671019 0.0685145 -2.82921
-0.728217 0.274121 2.79202
-0.739216 0.320164 3.75933
-0.711014 0.633569 -2.64911
-0.722304 0.960278 2.89116
-0.738647 1.01543 3.86637
-0.752739 1.60776 -2.4115
-0.771453 1.67519 -1.44784
-0.787219 1.79737 -0.259092
-0.786418 1.8993 0.92116
-0.773796 1.96355 2.11005
-0.76604 2.01018 3.07402
-0.765502 2.05894 4.04568
0.749058 -0.240001 -2.91364
0.719442 -0.203212 -1.94408
0.764394 -0.252879 -0.709628
0.771626 -0.251875 0.531822
0.7232 -0.143946 1.76644
0.725257 -0.0811235 2.73739
0.729329 -0.0332342 3.70345
0.747567 0.0685336 -2.82921
0.721579 0.274122 2.79202
0.727588 0.320167 3.75934
0.776974 0.633579 -2.64911
0.713892 0.960275 2.89117
0.723175 1.01543 3.86638
0.765609 1.60777 -2.41149
0.760576 1.6752 -1.44784
0.751302 1.79737 -0.259086
0.731895 1.89928 0.921169
0.71526 1.96353 2.11006
0.713583 2.01017 3.07403
0.715303 2.05893 4.04569
1.47446 -0.248375 -2.91147
1.45184 -0.214616 -1.94092
1.5084 -0.245635 -0.710051
1.53025 -0.244797 0.527578
1.48349 -0.157682 1.75902
1.47066 -0.0917258 2.73236
1.47186 -0.039393 3.70053
1.47035 0.0660744 -2.82854
1.4296 0.119871 -1.86166
1.50568 0.104666 -0.637329
1.53619 0.110712 0.590029
1.47637 0.197845 1.81501
1.46338 0.262453 2.78787
1.46767 0.313762 3.75715
1.50723 0.652334 -2.65326
1.50136 0.70429 -1.685
1.54003 0.795595 -0.483556
1.5212 0.846097 0.715505
1.45863 0.893613 1.91759
1.45308 0.955711 2.89184
1.46142 1.01132 3.86653
1.5198 1.62102 -2.4156
1.51939 1.68798 -1.45236
1.51454 1.80014 -0.26181
1.49247 1.89515 0.9215
1.46713 1.96 2.1124
1.45937 2.00767 3.07637
1.45906 2.05675 4.04739
-0.689378 0.395 -1.7443
2.5034e-06 0.115302 -1.8847
-0.741642 0.0761224 -1.25
-0.736619 0.56 1.90068
2.5034e-06 0.200706 1.84929
-0.766261 0.15018 1.21
5.99027e-06 0.7122 -1.7322
-0.82729 0.763076 -1.0768
0 0.967928 1.98717
-0.765702 0.912859 1.31603
0.689412 0.395 -1.74433
0.741568 0.0762019 -1.25
0.736493 0.56 1.90056
0.766231 0.150214 1.21
0.827299 0.763075 -1.07679
0.765708 0.912864 1.31604
-0.773526 0.093577 -0.02
-0.861152 0.439824 -0.556795
-0.000131845 0.0865558 -0.635
-0.89003 0.479806 0.65641
3.21462e-06 0.0906097 0.595
-0.78063 0.822102 0.119615
4.80484e-06 0.851596 -0.478587
-5.72578e-05 1.18796 0.717827
0.773599 0.0935082 -0.02
0.861158 0.439959 -0.556792
0.890035 0.479746 0.656417
0.780622 0.822088 0.119625
-0.859458 0.417412 -1.1634
-0.85116 0.459815 0.0498075
-0.887911 0.519903 1.26301
-6.46708e-05 0.07366 -1.25
-6.43152e-05 0.0875007 -0.02
2.85901e-06 0.127081 1.21
4.24683e-06 0.395 -2.06021
1.2517e-06 0.56 2.07554
5.39755e-06 0.859136 -1.07679
-2.62265e-05 1.163 0.11962
-2.86289e-05 1.06073 1.31603
0.859455 0.41748 -1.1634
0.851141 0.459853 0.0498125
0.888111 0.519873 1.26302
-1.04437 0.127396 -1.86333
-0.665856 -0.0341357 -1.90454
-0.664558 0.101757 -2.34711
-1.09354 0.211422 1.82
-0.73405 0.0405251 1.79572
-0.722163 0.24956 2.30851
-1.14092 0.679633 -1.68
-0.741535 0.644284 -2.16206
-0.771755 1.16509 -1.56142
-1.07502 0.894319 1.9159
-0.708652 0.927639 2.40269
-0.734398 1.42928 2.01214
0.688772 -0.034106 -1.90454
0.702834 0.101767 -2.34711
1.04385 0.127436 -1.86333
0.719657 0.0405271 1.79572
0.718846 0.249561 2.30851
1.09624 0.211423 1.82
0.774522 0.644289 -2.16206
0.766323 1.1651 -1.56142
1.13671 0.679645 -1.68
0.704446 0.927638 2.40271
0.70513 1.42927 2.01215
1.07682 0.894307 1.91592
-1.13181 0.0964396 -0.636167
-0.744572 -0.0823009 -0.672315
-1.16138 0.106049 0.59251
-0.78342 -0.0752403 0.56341
-1.17648 0.793365 -0.481079
-0.794892 1.29428 -0.368841
-1.14276 0.852173 0.716653
-0.775144 1.37874 0.81949
0.759055 -0.0820779 -0.672314
1.1297 0.0966947 -0.636164
0.780989 -0.0752249 0.563411
1.16327 0.106068 0.592515
0.776939 1.29428 -0.368835
1.1713 0.793395 -0.48107
0.747825 1.37867 0.819501
1.14248 0.852082 0.716669
-1.41925 -0.2316 -2.4262
-1.41546 -0.0912191 -2.87001
-1.04321 -0.244247 -2.91255
-1.45984 -0.230306 -1.32549
-1.42798 -0.0474751 -1.90129
-1.04946 -0.209007 -1.9425
-1.51183 -0.24537 -0.0912416
-1.502 -0.0707221 -0.673695
-1.11477 -0.249463 -0.709842
-1.51165 -0.201284 1.14329
-1.53086 -0.0670993 0.558796
-1.15289 -0.248389 0.529696
-1.48742 -0.124716 2.24568
-1.48248 0.0200738 1.787
-1.123 -0.150823 1.76272
-1.48302 -0.0655713 3.21643
-1.47305 0.0853558 2.7601
-1.11107 -0.0864324 2.73487
-1.48142 0.137175 3.72883
-1.11504 -0.0363227 3.70198
-1.42419 0.0929053 -2.34511
-1.44244 0.35916 -2.74091
-1.04437 0.0672663 -2.82888
-1.47014 0.112109 -1.2495
-1.47022 0.412029 -1.77333
-1.52103 0.107549 -0.0236567
-1.53001 0.44998 -0.560451
-1.50169 0.154258 1.20251
-1.52704 0.478417 0.652753
-1.46811 0.230146 2.30143
-1.463 0.54574 1.86628
-1.47145 0.288102 3.2725
-1.46152 0.609084 2.83984
-1.09674 0.268285 2.78994
-1.47677 0.662537 3.81182
-1.10843 0.31696 3.75823
-1.48848 0.678283 -2.16913
-1.48978 1.13664 -2.53444
-1.08909 0.642935 -2.65119
-1.53009 0.7499 -1.08428
-1.52244 1.19611 -1.56868
-1.53602 0.820848 0.115959
-1.55077 1.29783 -0.372695
-1.48835 0.869899 1.31652
-1.53173 1.37067 0.818484
-1.45641 0.924679 2.40469
-1.48709 1.42684 2.01497
-1.46685 0.98352 3.37916
-1.48315 1.48171 2.98409
-1.09004 0.957999 2.89149
-1.49205 1.53404 3.95694
-1.10728 1.01337 3.86644
-1.52375 1.65447 -1.93399
-1.13257 1.61437 -2.41355
-1.54312 1.74404 -0.857096
-1.15327 1.68157 -1.4501
-1.54648 1.84766 0.32983
-1.16918 1.79875 -0.260458
-1.53047 1.92761 1.51693
-1.16412 1.89724 0.921321
-1.51383 1.98386 2.59437
-1.14646 1.96179 2.11121
-1.50836 2.03223 3.56186
-1.13728 2.00894 3.07519
-1.13685 2.05785 4.04653
-0.673414 -0.221654 -2.42886
-0.672115 -0.0857612 -2.87142
0.0379232 -0.240019 -2.91364
-0.70439 -0.228164 -1.32686
0.0229129 -0.203242 -1.94408
-0.75583 -0.252482 -0.0889042
0.0146148 -0.252967 -0.709629
-0.764243 -0.197928 1.14913
-0.0024344 -0.251891 0.531821
-0.746643 -0.112539 2.25191
-0.0143956 -0.143948 1.76644
-0.743079 -0.0571839 3.22041
-0.734756 0.0964964 2.7647
-0.00801873 -0.0811257 2.73739
-0.742039 0.143462 3.73139
-0.00776688 -0.033237 3.70344
-0.691016 0.351042 -2.73916
0.0382739 0.0685241 -2.82921
-0.733716 0.297142 3.27568
-0.72526 0.6172 2.84159
-0.00331902 0.274122 2.79202
-0.738931 0.667796 3.81285
-0.00581404 0.320165 3.75934
-0.731876 1.12066 -2.53031
0.0329805 0.633574 -2.64911
-0.730475 0.987853 3.37876
-0.744172 1.48523 2.98259
-0.00420605 0.960277 2.89116
-0.752074 1.53718 3.95603
-0.00773571 1.01543 3.86638
-0.762096 1.64147 -1.92967
0.00643496 1.60777 -2.41149
-0.779336 1.73628 -0.853467
-0.00543848 1.67519 -1.44784
-0.786819 1.84834 0.331034
-0.0179585 1.79737 -0.259089
-0.780107 1.93143 1.5156
-0.0272616 1.89929 0.921164
-0.769918 1.98687 2.59203
-0.029268 1.96354 2.11005
-0.765771 2.03456 3.55985
-0.0262284 2.01018 3.07403
-0.0250992 2.05894 4.04569
0.73425 -0.221607 -2.42886
0.748312 -0.0857339 -2.87142
1.11176 -0.244188 -2.91255
0.741918 -0.228045 -1.32685
1.08564 -0.208914 -1.9425
0.76801 -0.252377 -0.0889032
1.1364 -0.249257 -0.709839
0.747413 -0.19791 1.14913
1.15094 -0.248336 0.5297
0.724229 -0.112535 2.25191
1.10334 -0.150814 1.76273
0.727293 -0.0571789 3.22042
0.723418 0.0964994 2.76471
1.09796 -0.0864247 2.73487
0.728458 0.143466 3.73139
1.10059 -0.0363136 3.70199
0.762271 0.351056 -2.73916
1.10896 0.067304 -2.82888
0.724583 0.297145 3.27568
0.717735 0.617199 2.8416
1.09248 0.268287 2.78995
0.725381 0.667797 3.81286
1.09763 0.316965 3.75824
0.771292 1.12068 -2.5303
1.1421 0.642956 -2.65119
0.718534 0.987851 3.37878
0.713737 1.48522 2.9826
1.08349 0.957993 2.89151
0.719239 1.53718 3.95604
1.0923 1.01337 3.86645
0.763093 1.64149 -1.92966
1.14271 1.6144 -2.41355
0.755939 1.73628 -0.853461
1.13999 1.68159 -1.4501
0.741598 1.84833 0.331042
1.13292 1.79875 -0.260448
0.723577 1.93141 1.51561
1.11218 1.89722 0.921335
0.714422 1.98685 2.59205
1.0912 1.96177 2.11123
0.714443 2.03455 3.55986
1.08648 2.00892 3.0752
1.08718 2.05784 4.04654
1.46315 -0.231495 -2.42619
1.47241 -0.0911503 -2.87
1.48012 -0.230125 -1.32549
1.44072 -0.0473724 -1.90129
1.51933 -0.245216 -0.0912363
1.50704 -0.070484 -0.67369
1.50687 -0.20124 1.1433
1.53322 -0.0670429 0.558804
1.47707 -0.124704 2.24569
1.47993 0.0200815 1.78701
1.47126 -0.0655594 3.21645
1.46702 0.0853634 2.76012
1.46976 0.137185 3.72884
1.44998 0.0929727 -2.3451
1.48879 0.359204 -2.7409
1.46764 0.112269 -1.2495
1.46548 0.41208 -1.77333
1.52093 0.107689 -0.0236498
1.52285 0.450131 -0.560442
1.50628 0.154279 1.20252
1.52869 0.478405 0.652767
1.46987 0.230149 2.30144
1.4675 0.545729 1.8663
1.46552 0.288107 3.27251
1.45823 0.609082 2.83986
1.46454 0.66254 3.81184
1.50429 0.678312 -2.16913
1.51352 1.13668 -2.53443
1.5207 0.749942 -1.08428
1.51038 1.19613 -1.56868
1.53062 0.820846 0.115975
[...]
POINT_DATA 29498
VECTORS point_vectors float
-2.49358 -3.83297 5.10107
0.0319681 0.108524 0.3045
-0.716944 0.502613 1.46754
-0.0132278 -0.183867 0.814484
2.49115 -3.82191 5.09319
-0.0428651 0.132636 0.375143
0.72064 0.502933 1.47158
0.0152482 -0.0976278 0.686587
-2.47654e-05 0.00585608 0.163651
0.018514 -0.00214037 0.217472
-0.0767038 -0.0802831 0.382449
0.0125853 0.0123798 0.0372332
0.000403882 0.00568342 0.158662
-0.0162291 -0.000302729 0.199257
0.0786849 -0.0824994 0.388251
-0.01096 0.0107968 0.0325778
-0.627614 -0.296933 19.7661
-1.32214 -0.806502 20.3791
-0.536344 -0.4176 21.2814
0.0163536 -0.163961 21.4059
0.574108 0.0931466 21.3959
0.853566 0.219125 21.1604
0.866826 0.15989 21.0473
-0.828273 -0.214316 19.6582
-1.92541 -0.624987 20.3467
-0.720497 -0.421895 21.3227
-0.101358 -0.302593 21.4853
0.724128 -0.0950201 21.5274
1.0673 -0.0440773 21.1871
1.07247 -0.205746 20.8828
-0.985569 0.156868 19.6453
-1.86724 0.262013 20.5449
-0.954972 -0.136953 21.2266
-0.375329 -0.270398 21.5783
0.492145 -0.508837 21.4438
0.787401 -0.581676 21.0995
0.628764 -0.490943 20.6923
-0.625427 0.494096 20.0579
-0.811566 0.582511 20.5616
-0.636312 0.339154 21.0287
-0.262078 0.0129996 21.314
0.0877093 -0.263834 21.2113
0.243987 -0.379013 21.0275
0.290532 -0.494527 20.7988
-0.574944 -0.661876 19.2178
-1.69833 -3.56869 20.2101
-0.319383 -0.569996 21.9641
0.176184 0.0201522 21.5334
0.670075 1.09409 19.0492
1.02087 1.44524 18.4981
1.10786 1.35527 18.2735
-0.852002 -0.596454 18.6621
1.39228 1.07626 8.37954
1.90169 0.845719 11.4776
-1.32721 0.504086 18.127
0.643169 -1.01111 10.3567
0.82885 -1.02401 14.7578
-0.616651 1.06538 19.6744
-0.878436 1.46397 20.5185
-0.832576 1.08416 21.089
-0.307544 0.239237 21.6315
0.0192222 -0.347734 21.2801
0.143938 -0.559542 21.0913
0.195929 -0.419706 20.6847
0.615599 -0.636512 19.2698
1.77203 -3.32663 20.1855
0.324218 -0.576788 21.9562
-0.174916 0.0276507 21.5384
-0.607172 1.11079 18.8165
-0.993517 1.47393 18.4258
-1.08928 1.38931 18.1641
0.882322 -0.528577 18.814
-1.38419 1.09865 8.3307
-1.92869 0.887648 11.2647
1.35239 0.458241 18.288
-0.61712 -1.01865 10.0658
-0.796644 -1.05133 14.4055
0.62312 1.05545 19.6823
0.871613 1.47947 20.5182
0.823518 1.12404 21.09
0.305445 0.252571 21.6594
-0.00987224 -0.353078 21.288
-0.123792 -0.5724 21.0497
-0.222552 -0.420079 20.7656
0.608463 -0.278141 19.8061
1.29348 -0.765354 20.3791
0.536038 -0.407928 21.2749
-0.0123371 -0.164395 21.4009
-0.588286 0.099581 21.4079
-0.862626 0.23123 21.1714
-0.889604 0.155034 20.9982
0.81772 -0.201613 19.7051
1.93039 -0.628116 20.3452
0.722414 -0.425047 21.3237
0.105311 -0.302953 21.4801
-0.720692 -0.0977004 21.5329
-1.06916 -0.0457746 21.1844
-1.10563 -0.198919 20.821
0.966897 0.142803 19.681
1.90236 0.271908 20.5484
0.962308 -0.140743 21.2294
0.376905 -0.27034 21.5828
-0.492477 -0.506983 21.4427
-0.79168 -0.58955 21.1007
-0.636633 -0.494326 20.6961
0.623971 0.49051 20.0642
0.816164 0.594497 20.5641
0.650973 0.358556 21.0381
0.274909 0.0268775 21.3373
-0.0860913 -0.27711 21.2339
-0.232454 -0.396334 21.0045
-0.267096 -0.48214 20.7517
0 0 0
0.00163379 -0.0220944 0.119235
-0.0288468 0.00920955 0.320242
-0.0646926 -0.059284 0.0095678
0.000121453 0.00452073 0.0280666
0.00991563 0.00910686 0.257492
0 0 0
-0.0108682 -0.0072791 0.0935714
0.00389011 0.162532 -0.14138
0.0554228 -0.0186332 0.605261
0 0 0
0.0285939 0.00921202 0.31578
0.0621861 -0.0561136 0.0103925
-0.00953396 0.00888698 0.256995
0.0110699 -0.00749283 0.0958266
-0.0560205 -0.0194491 0.616166
0.0232979 -0.00297189 0.364724
0.000898456 -0.00119318 0.0362727
0 0 0
0 0 0
2.60973e-06 3.17624e-05 0.00353066
-0.00934805 0.00353325 0.264893
8.01156e-21 2.64606e-19 4.83079e-19
0 0 0
-0.0235289 -0.00312092 0.3682
-0.00118862 -0.00122818 0.0422756
0 0 0
0.00958091 0.00322828 0.264237
0 0 0
-0.000330195 -0.000429067 0.00635506
0 0 0
-1.94773e-08 -3.25654e-08 3.4191e-06
4.90895e-07 9.71313e-06 0.00306301
0 0 0
0.000657601 0.192395 0.513473
0.00824757 -0.250409 -0.0302207
2.26205e-05 0.00411662 0.0455433
-0.000702197 0.11892 0.301219
9.35674e-05 0.00142183 -0.00449014
-6.17995e-18 1.30569e-17 -1.51687e-16
0.000291751 -0.000386749 0.00561028
0 0 0
-3.95476 -2.06728 19.9141
-2.67609 -6.02658 20.2211
-2.34162 -1.99001 17.1832
1.25022 0.157247 17.5788
0.484745 1.1886 11.4318
0.567571 0.654426 5.40033
-3.7178 0.923671 20.6359
-3.82296 2.13535 16.5777
-1.99059 2.62601 20.6355
0.791652 -0.749215 18.4857
-0.147002 -0.667878 6.81546
-0.0285162 -0.625425 21.2757
2.80251 -5.69909 20.1153
2.32399 -1.7996 17.4597
3.96473 -2.07624 19.9068
-0.412091 1.18234 11.1549
-0.572274 0.673548 5.40479
-1.2595 0.159659 17.6459
3.79837 1.92185 16.8588
1.98584 2.64999 20.6365
3.75492 0.948201 20.633
0.171464 -0.668891 6.64792
0.0337307 -0.62765 21.2271
-0.790065 -0.763586 18.5743
-0.557288 -0.766923 21.3999
-0.179395 -0.0948312 16.5644
0.0151699 -0.509777 20.2927
0.476937 0.0245888 15.7968
-1.32625 -0.493979 21.3305
-1.90207 1.33359 20.971
-0.58907 -0.535034 20.2227
-0.660841 0.269174 22.2511
0.184692 -0.111281 16.8853
0.556733 -0.765547 21.3807
-0.476059 0.0301342 15.763
-0.0105063 -0.510854 20.3196
1.91141 1.38613 20.9567
1.33294 -0.50934 21.3002
0.650143 0.27759 22.2286
0.591359 -0.536257 20.2153
-0.99723 -0.56278 19.8996
-0.725912 -0.27416 19.7259
-0.66671 -0.471321 19.5284
-1.00971 -0.683881 21.0854
-1.61926 -0.757919 20.3459
-1.81064 -1.74927 20.218
-0.227285 -0.280569 21.3591
-0.63614 -0.445012 21.2973
-0.42437 -0.596336 21.5443
0.289595 -0.0327184 21.4959
-0.0535362 -0.243356 21.4296
0.126593 -0.227578 21.6207
0.749632 0.164536 21.264
0.640244 -0.000588069 21.4204
0.855775 0.416813 21.3961
0.934927 0.197916 21.0025
0.989779 0.106358 21.0925
1.24731 0.676006 20.3644
1.00931 -0.0138403 20.831
1.37296 0.634477 20.1813
-1.41217 -0.403478 19.7364
-0.96863 -0.0616381 19.5982
-0.928817 -0.395046 19.2373
-1.35346 -0.567226 21.2294
-2.07424 -0.184488 20.4619
-0.403653 -0.378001 21.3656
-0.850946 -0.314899 21.3016
0.292582 -0.206433 21.6202
-0.254578 -0.334618 21.5717
0.928553 -0.0534427 21.2738
0.682476 -0.343659 21.4829
1.09569 -0.0838418 20.9192
0.991719 -0.402952 21.1378
1.65413 0.263491 18.2036
0.886334 -0.37658 21.0703
1.63427 0.0708872 18.3571
-1.59924 0.250204 19.8696
-0.880815 0.436267 19.8205
-1.3252 0.27179 19.0162
-1.36192 0.0411053 21.1273
-1.28588 0.598858 20.5622
-0.744788 -0.230378 21.3909
-0.920775 0.195568 21.1179
0.0897761 -0.373457 21.6408
-0.38112 -0.0906848 21.4672
0.679525 -0.550248 21.2278
0.186255 -0.410175 21.3234
0.874601 -0.611547 20.9842
0.375261 -0.504763 21.1108
0.977852 -1.02687 20.2178
0.365487 -0.565748 20.938
0.889976 -0.929813 20.2409
-0.764737 0.601026 20.2769
-0.690493 0.753742 19.862
-0.738724 0.478874 20.8342
-0.931261 0.967908 20.5549
-0.480765 0.198775 21.2207
-0.781875 0.635276 21.087
-0.0531325 -0.148368 21.2548
-0.298314 0.108771 21.4497
0.141791 -0.361028 21.078
0.0482847 -0.327536 21.2429
0.132652 -0.327709 20.8917
0.159382 -0.476369 20.8826
0.120768 -0.409241 20.4013
-1.19555 -1.69785 18.8858
-0.71269 -0.662302 18.9535
0.0431945 -0.900689 18.8848
-0.741281 -1.67252 22.2649
0.0512233 -4.54058 20.8546
-0.0546012 -0.251885 21.6005
0.00764624 -0.715535 21.9783
0.457065 0.555383 19.9646
0.0011176 -0.0264381 20.6102
0.786161 1.27274 18.479
0.00811108 0.843863 16.2319
1.20081 1.45185 17.7911
1.17517 1.40553 13.447
0.0104707 1.19533 15.3212
1.50271 1.13239 14.8559
0.0292371 1.908 15.6733
-1.15834 -0.163806 18.181
0.0645286 -0.78763 18.0599
1.84907 1.36656 10.5227
1.06353 -0.206935 5.30559
-0.000324953 0.112695 0.722989
1.58278 -0.384702 10.481
0.0155791 0.970459 3.92572
-1.04711 1.21034 18.935
0.0827737 0.854149 16.9311
1.19364 -1.2276 13.3318
0.17505 -0.937655 20.9689
-0.00568198 1.03994 -4.47524
0.135614 -0.802226 20.7006
0.0142455 -0.609809 0.611502
-0.792778 1.42606 20.0459
0.00606737 1.41705 19.4626
-0.827678 1.19357 20.8278
-0.00751232 1.99884 20.4732
-0.6591 0.793874 21.5341
-0.0275087 1.85295 21.0307
-0.0827046 -0.152798 21.4756
-0.0192603 0.419062 21.847
0.077622 -0.459813 21.1679
-0.00296043 -0.318283 21.3814
0.207235 -0.55028 20.9852
0.000426851 -0.676721 20.7403
-0.00613206 -0.515149 20.0165
1.21962 -1.59096 19.021
0.742408 -0.606666 19.0428
0.656506 -0.421851 19.5862
0.785725 -1.65084 22.1926
1.77622 -1.62003 20.2334
0.0524852 -0.25893 21.6411
0.434653 -0.590976 21.5212
-0.441182 0.578539 19.9544
-0.127161 -0.229221 21.6234
-0.736189 1.30045 18.3764
-0.865032 0.459869 21.3019
-1.14549 1.4844 17.7004
-1.14142 1.43351 13.2552
-1.25038 0.696658 20.3438
-1.49665 1.17012 14.7839
-1.37701 0.661787 20.2015
1.17931 -0.151308 18.3721
0.919232 -0.372314 19.3191
-1.84062 1.38035 10.3945
-1.06906 -0.201595 5.12509
-1.67172 0.275332 18.1449
-1.61266 -0.345929 10.151
-1.62719 0.0882242 18.337
1.07133 1.15032 18.9916
1.30156 0.245558 19.0987
-1.188 -1.23696 13.0758
-0.169555 -0.953365 20.8903
-0.982254 -1.03548 20.1391
-0.126675 -0.806592 20.7693
-0.900425 -0.96402 20.1971
0.793583 1.42462 20.0464
0.690132 0.742601 19.8673
0.816717 1.22392 20.826
0.932501 0.982309 20.5537
0.65824 0.835884 21.554
0.792401 0.672545 21.0868
0.0882817 -0.148046 21.4972
0.301041 0.12129 21.4792
-0.0693917 -0.471997 21.1669
-0.0502915 -0.328858 21.2589
-0.189334 -0.56845 20.9698
-0.147947 -0.490115 20.8622
-0.0990053 -0.394238 20.3446
0.96332 -0.51759 19.9364
0.71142 -0.258631 19.7696
0.998723 -0.658907 21.0716
1.58874 -0.739618 20.3511
0.223209 -0.276902 21.3599
0.639503 -0.442087 21.2921
-0.28845 -0.0348736 21.4975
0.0594332 -0.244432 21.4245
-0.756737 0.173111 21.2652
-0.649935 0.00386454 21.4364
-0.945404 0.202214 20.9928
-1.00104 0.114527 21.0861
-1.04159 -0.00758859 20.7537
1.37794 -0.383662 19.7681
0.94253 -0.0521335 19.6499
1.35935 -0.570993 21.2313
2.09249 -0.188261 20.4613
0.405083 -0.378442 21.368
0.853708 -0.320881 21.3043
-0.289823 -0.204896 21.6166
0.255375 -0.334058 21.5691
-0.927409 -0.0558644 21.2724
-0.681189 -0.343635 21.4848
-1.09911 -0.0818061 20.9305
-0.999093 -0.406517 21.1379
-0.905604 -0.381415 21.0425
1.56411 0.233995 19.8947
0.870113 0.419117 19.8393
1.37911 0.0421325 21.1419
1.30209 0.614 20.5624
0.751522 -0.23331 21.3931
0.942356 0.201919 21.1232
-0.089879 -0.37501 21.6419
0.391036 -0.0869209 21.4837
-0.684005 -0.55435 21.228
-0.184892 -0.423667 21.3328
-0.879024 -0.618856 20.9874
-0.381987 -0.529738 21.1146
-0.374553 -0.570066 20.9363
0.765849 0.603712 20.2786
0.748288 0.494399 20.8375
0.49866 0.219676 21.2378
0.0584774 -0.153597 21.2681
-0.138886 -0.377866 21.0702
-0.145067 -0.346677 20.9118
-1.19252 -0.518966 19.8289
-1.6784 -1.91934 18.2461
-1.21094 -1.01186 19.5269
-1.99959 -0.934045 18.9205
-0.793384 -0.453354 19.3877
-2.68359 -2.08176 20.0878
-1.18566 -0.662468 21.1481
-0.685357 -1.01921 18.9215
-1.09877 -1.24306 21.5078
-1.69725 -1.37499 22.0458
-0.459022 -0.689831 21.6365
-0.318621 -0.346882 21.3563
0.201594 -0.0678151 15.7684
-0.116681 -0.402723 21.4951
-0.273155 -0.649234 20.5772
0.132341 -0.375656 21.3963
0.271349 -0.125134 21.5299
0.558179 0.616298 13.2143
0.489482 0.0739029 21.5905
0.602179 -0.220428 18.7994
1.12619 0.370599 19.9976
0.849967 0.0595609 21.2588
0.743161 1.24218 12.2163
1.06473 0.559175 20.9918
1.4299 0.177668 17.602
1.49598 0.513529 19.9104
1.0393 0.033481 21.0777
1.57439 1.53779 14.5415
1.34804 0.647388 20.2775
1.61722 0.272703 18.1752
1.53237 0.416449 19.5862
-1.61087 -0.13092 19.7438
-3.80925 -0.361281 15.6675
-2.64081 0.713325 19.0034
-1.17432 -0.100111 19.046
-5.13725 -0.356663 20.2248
-1.44291 -0.261406 21.2386
-1.93401 0.0549553 21.6987
-0.859105 -0.560262 20.7241
-0.572153 -0.352267 21.3929
-1.24921 -0.68378 21.0057
-0.255105 -0.572931 19.6267
0.198248 -0.319659 21.651
0.194294 -0.500117 19.7615
1.16572 -0.300268 16.5916
0.887214 -0.371418 21.2641
-0.257149 -0.402973 2.24425
0.80697 -0.890455 19.2852
1.57175 -0.49693 18.0556
1.05583 -0.428984 21.2448
1.99334 -0.393287 9.12382
0.970582 -0.971273 20.4888
1.40039 -0.447284 18.0923
-1.19968 0.587984 20.1009
-1.79064 2.35052 19.2187
-0.87208 0.97339 20.1445
-1.05417 0.749889 19.4321
-1.78758 1.25317 20.5878
-1.0903 0.376431 20.9382
-1.70599 1.47901 21.0831
-0.86353 0.788646 20.8573
-1.38068 0.456569 21.1548
-0.728808 0.0694184 21.349
-2.02824 1.2949 21.9994
-0.601526 0.412501 21.3736
-0.581679 0.0153178 21.785
-0.0496152 -0.266356 21.4377
-0.143638 -0.361467 21.8048
-0.0743184 -0.167705 21.3902
0.120485 -0.556425 21.4139
0.271077 -0.484844 21.1799
0.07071 -0.761408 21.1531
0.109962 -0.424407 21.0951
0.36569 -0.713985 21.1926
0.400031 -0.484209 20.7152
0.226643 -0.988621 20.7669
0.244591 -0.440288 21.0323
0.321812 -0.647819 20.5716
1.72072 -1.81992 18.4091
0.0777456 -2.50116 18.3648
0.0744567 -3.47426 15.1812
0.0428693 -0.886185 18.4722
0.0100206 -6.32973 22.2406
0.700434 -1.00925 18.8792
0.0221273 -1.87617 22.5523
0.00164235 -0.172547 13.2663
-0.197673 -0.0735538 15.893
-0.000364693 -0.321701 21.0663
0.00287971 0.0755647 11.7194
-0.539132 0.625654 13.0973
0.00361422 0.46399 17.9849
0.00664673 0.594871 7.30965
-0.681925 1.24351 11.9676
0.00500017 0.868488 15.4387
0.0107499 -0.763732 0.916083
0.00565563 0.688633 7.69145
-1.54155 1.55239 14.4801
0.0171183 1.48436 14.8756
-0.010113 1.35239 3.16284
0.0389833 1.41204 9.85624
3.81414 -0.360732 16.0206
0.111477 5.50631 12.825
0.0953856 -0.242887 17.2077
0.261145 -0.387931 2.18447
0.000366768 0.626807 -3.9898
-0.0196062 0.367625 -4.38106
-1.99639 -0.35928 8.83381
0.025363 0.258115 -2.70097
0.005496 0.93004 -0.0872917
1.81533 2.30468 19.2326
0.000711071 1.94649 19.8746
0.0370339 1.7908 18.3092
-0.009076 4.00895 20.605
1.70096 1.50967 21.0821
-0.0179123 1.7614 20.7696
-0.0335227 3.13987 20.1805
2.08097 1.40684 22.0222
-0.0272774 1.40869 21.7681
-0.0143662 0.634822 22.1557
0.13739 -0.372177 21.7331
-0.00949017 -0.100786 21.5589
-0.00188342 -0.315457 18.4901
-0.0579678 -0.767873 21.0913
0.000604989 -0.471086 21.1343
0.0150722 -0.721389 19.8761
-0.202724 -0.999968 20.7444
0.0139369 -0.446163 21.0822
0.00629412 -0.475864 20.2047
1.14377 -0.486509 19.8702
1.19319 -0.915629 19.5793
1.96118 -0.891217 19.0196
0.787417 -0.40936 19.4382
2.63285 -1.98787 20.1115
1.17934 -0.649891 21.1355
1.11022 -1.19657 21.4745
1.70001 -1.3782 22.0467
0.471729 -0.683317 21.6229
0.318834 -0.344909 21.359
0.120855 -0.405223 21.4909
0.276555 -0.649621 20.5714
-0.129499 -0.37593 21.3953
-0.268402 -0.12908 21.5252
-0.495798 0.0899811 21.5871
-0.59993 -0.220757 18.8616
-1.13775 0.400585 19.8859
-0.857107 0.0669997 21.2593
-1.07581 0.594547 20.8991
-1.44143 0.184208 17.5965
-1.50689 0.532014 19.7843
-1.0485 0.0330316 21.0919
-1.37477 0.683461 20.2162
-1.62972 0.298615 18.057
-1.52834 0.436594 19.5469
1.58303 -0.120413 19.7726
2.56418 0.645985 19.0916
1.15885 -0.096255 19.156
5.17875 -0.360103 20.2121
1.45319 -0.266282 21.2481
1.93735 0.0509978 21.7104
0.848068 -0.562571 20.6228
0.575156 -0.356588 21.3961
1.25699 -0.691377 20.964
0.257449 -0.574301 19.6498
-0.198611 -0.317297 21.6566
-0.1927 -0.505888 19.7799
-1.17869 -0.314555 16.7046
-0.889882 -0.373362 21.2653
-0.80908 -0.896183 19.2155
-1.58145 -0.499726 17.9344
-1.06732 -0.43828 21.254
-0.975746 -0.990756 20.4433
-1.40287 -0.464305 17.8623
1.19423 0.580162 20.1075
0.87285 0.975519 20.144
1.04953 0.723078 19.4653
1.79512 1.27205 20.5894
1.1034 0.385284 20.9456
0.865523 0.812271 20.8553
1.41593 0.473411 21.1532
0.752444 0.0789539 21.359
0.618175 0.45465 21.3881
0.603585 0.0344563 21.8176
0.0499939 -0.272597 21.46
0.0804398 -0.164368 21.394
-0.113948 -0.572007 21.4286
-0.269859 -0.49959 21.1971
-0.105041 -0.433865 21.0988
-0.357619 -0.727687 21.187
-0.4014 -0.509836 20.7087
-0.25941 -0.458315 21.0515
-0.30784 -0.678393 20.5587
-1.58869 -1.04318 19.2234
-1.35921 -1.34557 21.7637
-0.145376 -0.534039 21.4021
0.626067 -0.0275185 20.9602
1.32784 0.462813 19.9954
1.47377 0.48789 20.0368
-2.63623 -0.219635 18.6958
-2.16139 -0.454504 22.2087
-0.604217 -0.668623 19.6401
0.38877 -0.432766 18.6946
1.29986 -0.436599 17.3391
1.70317 -0.461916 17.8644
-1.61153 1.21524 19.7973
-1.47174 0.711882 21.0537
-1.20064 0.317567 21.5724
-0.103331 -0.325742 21.6415
0.231015 -0.652733 21.2599
0.383185 -0.810289 20.9748
0.0702134 -3.15336 17.18
0.010077 -0.918927 15.5059
-0.00120895 -0.0588391 11.934
0.00605437 0.416453 9.23675
0.00934094 0.292534 7.13159
0.00715025 1.55259 9.1424
0.128397 -0.434244 11.7447
-0.0171444 -0.279965 -3.37929
0.00613112 0.622218 -3.64851
0.0226457 3.82016 18.6778
-0.0173313 2.67942 20.9637
-0.0335482 3.67708 22.2624
-0.00406363 -0.226584 19.5828
-0.00394314 -0.437329 18.9418
0.00562531 -0.974037 19.9902
1.56306 -0.967994 19.2996
1.37066 -1.31482 21.7346
0.154242 -0.534046 21.4099
-0.628102 -0.0218525 20.9344
-1.33958 0.48343 19.9371
-1.4893 0.523488 19.8446
2.58028 -0.205851 18.8169
2.16866 -0.455038 22.2136
0.604835 -0.671616 19.5919
-0.38979 -0.437737 18.7516
-1.31123 -0.442289 17.3005
-1.71925 -0.474352 17.6648
1.6001 1.1882 19.8152
1.48573 0.729756 21.0574
1.24754 0.345743 21.5952
0.10837 -0.328431 21.6697
-0.220915 -0.673412 21.2604
-0.38127 -0.830997 21.0136
0 0 0
-0.001919 -0.0391904 0.186173
-0.041087 -0.134484 1.05925
0.00684501 -0.0114003 0.00841154
-0.00970211 0.0194013 0.0964906
-0.000640732 0.0824197 0.762232
-0.671404 0.107856 0.794572
-0.0107806 0.0633328 0.14892
-0.325983 -0.0467562 1.50617
0 0 0
-0.0569919 0.00059161 0.0185108
-0.00588148 -0.0291191 0.269499
0.00116574 -0.0465417 0.211071
0 0 0
0.0446331 -0.137718 1.0927
0.0099401 0.0189157 0.0943788
-0.0128621 -0.00696697 0.0207067
0.00353764 0.0839923 0.767098
0.0104557 0.0605734 0.143104
0.74595 0.120286 0.886815
0.328061 -0.0502874 1.49932
0.0616466 -0.00155865 0.0219776
0 0 0
0.00781284 -0.031196 0.287034
-0.0133017 0.00424356 0.394861
0.00968364 -0.00135957 0.174757
3.29188e-05 9.83461e-05 0.0354289
0.000134302 3.46036e-05 0.00263104
0.000505286 0.00590373 0.0910406
0.0249887 0.00230924 0.373195
0 0 0
-6.63058e-18 -1.74102e-18 -1.30976e-16
-0.148451 -0.130233 0.990317
0 0 0
-0.256579 -0.0703929 0.442492
-0.000706183 7.79388e-07 0.000564179
0.237123 0.305981 1.31031
-0.00136706 0.00627851 0.048271
0.00399344 0.0041672 0.0244173
0.0772437 -0.0154567 0.266762
0.0128509 0.0046145 0.384529
-0.000138419 3.54352e-05 0.00269544
-0.0094242 -0.00107825 0.170396
-2.36922e-05 9.55034e-05 0.0353399
-0.000455341 0.00595242 0.0913663
0 0 0
-0.0255008 -3.96719e-05 0.369652
0 0 0
0.150195 -0.131832 0.998376
0.00114315 7.6653e-07 0.000922906
0 0 0
0.256843 -0.0686214 0.445969
-0.235761 0.305407 1.30914
-0.0813001 -0.0154862 0.281488
0.00136804 0.00625097 0.0482902
-0.0041456 0.0043333 0.02549
-5.26813e-06 -4.77979e-06 6.96583e-05
-0.020172 -0.00124387 0.00630792
-2.3062e-05 -0.0116519 0.168333
0.00139939 -0.36452 0.212278
0 0 0
-2.06037e-07 -1.17296e-07 1.37456e-05
0.00598071 0.00159409 0.0426465
-0.231554 -0.151734 -0.00358885
1.39618e-05 0.000994057 0.00886976
0.00194798 -0.0881719 -0.0582939
0 0 0
0 0 0
1.03094e-05 0.677171 0.537798
1.18699e-06 0.000785706 0.00512135
0 0 0
-0.0178885 0.00303424 0.088853
0 0 0
3.64644e-05 0.00176853 -0.00594229
0.0177844 0.0258642 0.304441
-0.00230737 0.00177758 -0.0070221
0 0 0
1.62383e-05 -1.47347e-05 0.000214714
2.31359e-07 -1.29357e-07 1.51408e-05
0 0 0
0.230153 -0.147225 -0.00226082
-0.00562085 0.00128548 0.0398778
0 0 0
0 0 0
0.0192568 0.00309087 0.0949063
1.25053e-18 -3.87866e-18 5.34006e-17
0.0021423 0.00136888 -0.00582507
-0.0181679 0.0263965 0.312428
-0.00756519 -0.034566 0.317732
0.000554672 4.43961e-05 0.0103377
2.47995e-19 -2.9324e-18 3.15936e-17
-0.000220959 -0.000654357 0.00452443
-8.90403e-09 -2.9338e-07 5.91884e-05
7.62288e-08 2.8889e-06 0.00213138
-0.000710277 -0.000184178 0.0152018
0.0012289 -0.000588291 0.0709665
-1.2982e-08 -1.74704e-07 -3.31881e-05
7.67613e-06 0.000461143 0.00743503
0 0 0
-0.0791296 0.101356 0.264978
1.43378e-05 0.00137822 0.0260642
0.000224322 0.0276325 0.0569983
0.000231015 0.00660444 0.116007
4.59886e-06 -7.40994e-05 0.000390198
-0.000554271 4.43123e-05 0.0103284
0.00759984 -0.0349638 0.317544
0 0 0
0.000236466 -0.000763843 0.00483359
0.000750313 -0.000195368 0.0160155
-0.00123074 -0.000618327 0.0708993
0.08666 0.109685 0.287773
0 0 0
0 0 0
0 0 0
0.000228089 5.13077e-07 0.0121562
-4.75253e-20 1.159e-17 -8.07801e-17