# vtk DataFile Version 2.0
tri_press
ASCII
DATASET UNSTRUCTURED_GRID
POINTS 3682 float
-0.725 0.095 -2.06421
-0.709516 0.155 2.075
-0.752685 0.655 -1.965
-0.696749 0.945 2.025
0.725 0.095 -2.06418
0.715 0.175 2.09183
0.75269 0.655 -1.965
0.696751 0.945 2.025
-0.793716 0.0411229 -0.684473
-0.798288 0.0513889 0.695264
-0.825323 0.84295 -0.635
-0.7985 0.931439 0.695
0.796527 0.0468067 -0.678843
0.810208 0.0564589 0.706494
0.825317 0.84294 -0.635
0.798501 0.931437 0.695
-1.51692 -0.344766 -3.16998
-1.52159 -0.297997 -2.08538
-1.56691 -0.334552 -0.703956
-1.56621 -0.345623 0.687332
-1.50765 -0.276002 2.0696
-1.49169 -0.218418 3.15835
-1.49806 -0.169036 4.23964
-1.51647 0.00454381 -3.13919
-1.5219 0.0776357 -2.06006
-1.58137 0.0638457 -0.689037
-1.56779 0.0638411 0.686066
-1.47872 0.131019 2.05803
-1.47281 0.187202 3.14589
-1.48936 0.235917 4.22889
-1.52985 0.652134 -3.063
-1.54489 0.722922 -1.98126
-1.60501 0.851231 -0.644242
-1.57206 0.91648 0.688743
-1.47342 0.944937 2.02634
-1.47218 0.994634 3.11363
-1.49247 1.04482 4.20322
-1.55186 1.75382 -2.98896
-1.5634 1.84444 -1.91535
-1.5866 1.99737 -0.59473
-1.58759 2.11988 0.714335
-1.56233 2.18506 2.03463
-1.54513 2.22416 3.10757
-1.53961 2.26546 4.19143
-0.744721 -0.335499 -3.17246
-0.735594 -0.284289 -2.08892
-0.776935 -0.343917 -0.701223
-0.792004 -0.353868 0.697101
-0.754113 -0.26191 2.08495
-0.741069 -0.207621 3.16965
-0.745079 -0.162638 4.24735
-0.744431 0.00557319 -3.13956
-0.725224 0.19813 3.15498
-0.738866 0.24215 4.23514
-0.754342 0.62496 -3.05597
-0.725005 0.997618 3.11446
-0.742614 1.04832 4.2052
-0.768413 1.73478 -2.9818
-0.773999 1.82613 -1.90751
-0.796461 1.99318 -0.589525
-0.809958 2.12586 0.715072
-0.799975 2.18997 2.03255
-0.786936 2.22732 3.10568
-0.781071 2.2682 4.19071
0.765787 -0.334422 -3.17119
0.766414 -0.282829 -2.08733
0.800688 -0.33933 -0.695915
0.7914 -0.347943 0.706915
0.729921 -0.248456 2.09811
0.738529 -0.197093 3.17996
0.750009 -0.155035 4.25534
0.755007 0.00617797 -3.13884
0.732611 0.208869 3.16498
0.746704 0.249487 4.24271
0.763154 0.625352 -3.05548
0.723653 1.00234 3.11917
0.739926 1.05354 4.21079
0.78936 1.73572 -2.98059
0.79606 1.827 -1.90638
0.789146 1.99419 -0.588158
0.757204 2.12711 0.716866
0.727675 2.19172 2.03496
0.72575 2.22986 3.10891
0.7319 2.27143 4.19466
1.53235 -0.342155 -3.16687
1.53677 -0.294517 -2.08141
1.58184 -0.327236 -0.694935
1.57617 -0.335212 0.703017
1.50789 -0.25765 2.0897
1.49715 -0.201252 3.17626
1.50615 -0.155125 4.25469
1.52088 0.0063636 -3.13702
1.5174 0.0796712 -2.05779
1.58277 0.0704699 -0.681434
1.58359 0.0725646 0.700526
1.49537 0.149474 2.07752
1.48617 0.203966 3.16287
1.4996 0.249292 4.24319
1.53154 0.6534 -3.06144
1.5383 0.723759 -1.98025
1.6007 0.853619 -0.641486
1.57614 0.919689 0.694061
1.48113 0.950716 2.03377
1.47579 1.00401 3.1238
1.49185 1.05483 4.2143
1.56639 1.75592 -2.98627
1.57597 1.84648 -1.9127
1.57603 1.99976 -0.591512
1.54345 2.12285 0.718541
1.50285 2.18905 2.04009
1.49162 2.22951 3.11441
1.49415 2.27199 4.19948
-0.787002 0.375 -2.06276
0 0.0617079 -2.09749
-0.797459 0.0299601 -1.37434
-0.775622 0.55 2.12249
0.00274199 0.132617 2.1158
-0.798325 0.0587714 1.38513
2.5034e-06 0.742884 -2.05288
-0.81894 0.778911 -1.3
1.01328e-06 1.01446 2.09446
-0.762983 0.953578 1.36
0.78694 0.375 -2.06268
0.801239 0.0304274 -1.37151
0.772789 0.56 2.12533
0.808642 0.0696912 1.39916
0.819061 0.779027 -1.3
0.76296 0.953553 1.36
-0.792281 0.049977 0.00539505
-0.884456 0.442036 -0.659737
0.00140543 0.0609231 -0.681658
-0.884173 0.491414 0.695132
0.00595962 0.0742886 0.700879
-0.818263 0.893546 0.03
-2.94556e-06 1.23419 -0.635
4.51045e-07 1.41139 0.695
0.804884 0.0501162 0.0138251
0.884692 0.444873 -0.656922
0.884334 0.493948 0.700747
0.818261 0.893541 0.03
-0.884897 0.408518 -1.33717
0.884895 0.409937 -1.33576
0.000702717 0.0556122 -1.37293
-2.21085e-07 0.926415 -1.3
1.2517e-06 0.375 -2.27459
-0.886044 0.466725 0.0176975
0.886297 0.469411 0.0219125
0.00368253 0.0648226 0.00961006
-1.24726e-06 1.40904 0.03
-0.893299 0.520707 1.37257
0.892339 0.526974 1.37958
0.00435081 0.0905018 1.39215
7.32162e-07 1.27266 1.36
0.0013715 0.555 2.25746
-0.759541 0.235 -2.06703
-0.3625 0.0617315 -2.09747
-0.781696 0.0420138 -1.71928
-0.749129 0.3525 2.10531
-0.353387 0.132803 2.1064
-0.791608 0.0691983 1.73007
-0.78545 0.515 -2.02949
-0.376341 0.721085 -2.03109
-0.81076 0.741902 -1.6325
-0.742689 0.7475 2.08025
-0.348374 1.0009 2.0809
-0.735654 0.955077 1.6925
0.3625 0.061711 -2.09748
0.761172 0.235 -2.06863
0.783637 0.0421959 -1.71785
0.358871 0.133069 2.12455
0.75054 0.3675 2.11522
0.797588 0.0865786 1.7455
0.376346 0.721092 -2.03109
0.785376 0.515 -2.0294
0.810801 0.741939 -1.6325
0.348376 1.00025 2.08025
0.740636 0.7525 2.08103
0.735654 0.955074 1.6925
-0.79434 0.0367886 -1.02941
-0.791274 0.0472746 -0.339539
-0.842778 0.239734 -0.672105
-0.387003 0.0693269 -0.683066
-0.808006 0.0453814 1.0402
-0.797363 0.048605 0.350329
-0.842975 0.270529 0.695198
-0.385526 0.0841147 0.698071
-0.825745 0.814544 -0.9675
-0.881821 0.655959 -0.647368
-0.822316 0.868771 -0.3025
-0.487548 1.18834 -0.635
-0.782172 0.943939 1.0275
-0.874062 0.727789 0.695066
-0.810621 0.914732 0.3625
-0.499962 1.37284 0.695
0.79599 0.0415097 -1.02518
0.39122 0.0693576 -0.680251
0.799016 0.0501509 -0.332509
0.844054 0.244118 -0.667883
0.820584 0.0519161 1.05283
0.398668 0.0842056 0.703686
0.805704 0.0551298 0.360159
0.842132 0.277773 0.70362
0.825755 0.81455 -0.9675
0.487583 1.18842 -0.635
0.881654 0.657231 -0.645961
0.82235 0.868801 -0.3025
0.782165 0.943929 1.0275
0.499957 1.37283 0.695
0.873859 0.728913 0.697874
0.810631 0.914739 0.3625
-0.882329 0.391759 -1.69997
-0.3935 0.375 -2.246
0.000351359 0.0712097 -1.73521
6.25849e-07 0.218354 -2.19545
-0.887043 0.219239 -1.35576
-0.398378 0.0555656 -1.37363
-0.851406 0.535353 1.74753
-0.387125 0.5525 2.23174
0.0035464 0.0970856 1.75397
0.00205675 0.343808 2.262
-0.880886 0.289739 1.37885
-0.396987 0.0910177 1.38864
1.14116e-06 0.859641 -1.67644
1.87755e-06 0.558942 -2.24154
-0.889381 0.593715 -1.31859
-0.40947 0.933825 -1.3
8.7272e-07 1.12194 1.72723
0.000686258 0.784731 2.16852
-0.855712 0.737142 1.36628
-0.381491 1.23125 1.36
0.882341 0.392468 -1.69922
0.393471 0.375 -2.24608
0.887056 0.220182 -1.35363
0.400971 0.055591 -1.37222
0.85013 0.543487 1.75245
0.38708 0.5575 2.2229
0.876399 0.298333 1.38937
0.406496 0.0911784 1.39565
0.889393 0.594482 -1.31788
0.40953 0.933892 -1.3
0.854763 0.740263 1.36979
0.381481 1.23123 1.36
-0.844065 0.2559 0.0115463
-0.385522 0.0749536 0.00750256
-0.887579 0.425277 -0.998454
-0.885192 0.454381 -0.32102
0.00105408 0.0656268 -1.02729
0.00254398 0.0628839 -0.336024
-0.885974 0.47907 0.356415
-0.885653 0.50606 1.03385
0.00482107 0.0667846 0.355244
0.00515521 0.0835774 1.04651
-0.88176 0.694939 0.0238488
-0.521743 1.37652 0.03
-1.58332e-06 1.07648 -0.9675
-2.09641e-06 1.36007 -0.3025
-3.98108e-07 1.42218 0.3625
5.91603e-07 1.36983 1.0275
0.844725 0.260196 0.0178688
0.395507 0.0750208 0.0117176
0.887553 0.427405 -0.996339
0.885469 0.457142 -0.317505
0.886188 0.481679 0.36133
0.885848 0.510461 1.04016
0.881616 0.696144 0.0259563
0.521745 1.37652 0.03
-0.882764 0.22712 -1.70962
-0.895009 0.230409 -1.01393
-0.884016 0.618104 -0.982977
-0.871525 0.554357 -1.66623
0.883646 0.227591 -1.70853
0.871631 0.554741 -1.66586
0.883897 0.619194 -0.981919
0.892224 0.233011 -1.01076
-0.380439 0.0676186 -1.72724
0.381736 0.0674921 -1.72653
0.399969 0.0657991 -1.02624
-0.397267 0.0635326 -1.02835
-0.392906 0.848587 -1.65447
-0.411067 1.04581 -0.9675
0.411094 1.04576 -0.9675
0.392938 0.848706 -1.65447
-0.378 0.226677 -2.14848
-0.384921 0.536971 -2.18469
0.384908 0.536971 -2.18446
0.377985 0.226677 -2.14824
-0.843491 0.247782 -0.330279
-0.844357 0.262796 0.353372
-0.879706 0.712261 0.359457
-0.88189 0.675499 -0.31176
0.844687 0.252008 -0.325007
0.881727 0.676734 -0.310002
0.879547 0.713434 0.361915
0.844079 0.268659 0.360744
-0.386256 0.0721542 -0.337782
0.393355 0.0722073 -0.334267
0.398104 0.0775809 0.357702
-0.386541 0.077501 0.352787
-0.520599 1.31433 -0.3025
-0.519614 1.3922 0.3625
0.519613 1.3922 0.3625
0.520628 1.3144 -0.3025
-0.875634 0.28057 1.03702
-0.842893 0.32112 1.7388
-0.825694 0.742321 1.72001
-0.867151 0.724284 1.03067
0.878012 0.286768 1.0465
0.866727 0.726478 1.03383
0.824425 0.746382 1.72248
0.841055 0.332916 1.74898
-0.396576 0.0841186 1.04336
0.40729 0.0842033 1.04967
0.382684 0.0977371 1.74973
-0.375187 0.0970796 1.74202
-0.39037 1.33985 1.0275
-0.364933 1.08886 1.70987
0.364928 1.08862 1.70987
0.390366 1.33971 1.0275
-0.370256 0.348154 2.23017
0.372976 0.355654 2.23277
0.367728 0.768615 2.16844
-0.36775 0.766115 2.16863
-0.750133 0.165 -2.07348
-0.54375 0.0617398 -2.09747
-0.768452 0.0534026 -1.89174
-0.72466 0.25375 2.08549
-0.531451 0.133149 2.10145
-0.756314 0.106347 1.90253
-0.77051 0.585 -1.99869
-0.564513 0.698961 -2.00896
-0.79698 0.713709 -1.79875
-0.724417 0.84625 2.05732
-0.522561 0.964675 2.04468
-0.721721 0.955558 1.85875
0.54375 0.0617244 -2.09746
0.750767 0.165 -2.07409
0.768963 0.0539536 -1.89101
0.536935 0.136865 2.12536
0.730186 0.27125 2.10094
0.766113 0.120971 1.91866
0.564518 0.699118 -2.00912
0.769836 0.585 -1.998
0.797076 0.713801 -1.79875
0.522564 0.964843 2.04484
0.723252 0.84875 2.05757
0.72172 0.955555 1.85875
-0.792831 0.040153 -0.85694
-0.790864 0.0458294 -0.512006
-0.829036 0.135034 -0.678289
-0.583738 0.0684673 -0.68377
-0.799886 0.0516457 0.867731
-0.794965 0.0528576 0.522796
-0.82683 0.15786 0.695231
-0.583787 0.0839923 0.696667
-0.825831 0.829044 -0.80125
-0.862982 0.754159 -0.641184
-0.824076 0.856117 -0.46875
-0.699806 1.10238 -0.635
-0.790734 0.938087 0.86125
-0.849652 0.8363 0.695033
-0.80512 0.923645 0.52875
-0.666982 1.18764 0.695
0.795455 0.0449614 -0.85201
0.588828 0.0681734 -0.679547
0.79762 0.0486298 -0.505676
0.82967 0.140772 -0.673363
0.807748 0.0618349 0.879661
0.597358 0.0844923 0.70509
0.806012 0.0577384 0.533326
0.827752 0.166325 0.705057
0.825829 0.829038 -0.80125
0.69981 1.1024 -0.635
0.862865 0.754775 -0.640481
[...]
POINT_DATA 3682
SCALARS point_scalars float 1
LOOKUP_TABLE default
-149.793
-42.8374
-51.1214
-42.948
-150.458
-42.4528
-50.6793
-42.9836
-43.7942
-35.9861
-62.0695
-53.6226
-41.8522
-35.1796
-62.0525
-53.6727
-136.576
-98.1631
-42.5217
-36.902
-48.9312
-41.8112
-35.752
-13.557
-96.8714
-42.7368
-35.8541
-45.9441
-37.1255
-36.0691
32.3473
-86.7847
-54.0461
-48.5495
-45.3594
-41.2844
-36.6617
-29.3395
-74.1333
-91.552
-62.3013
-50.5503
-42.9424
-42.9424
14.8752
-203.176
-43.1997
-36.7791
-44.423
-36.8783
-33.6693
143.567
-34.6474
-33.4626
164.893
-36.213
-34.9739
11.7509
-39.2528
-82.5676
-66.8402
-47.5722
-38.2872
-37.5051
14.9265
-130.838
-42.0599
-37.1929
-43.6426
-37.2985
-33.0703
143.604
-34.7302
-33.5795
163.308
-36.2461
-35.1565
8.81868
-42.526
-82.6947
-66.9659
-45.999
-38.3349
-37.8447
-145.356
-98.3415
-42.4898
-35.7144
-47.8126
-41.8488
-35.8568
-14.2565
-96.4227
-42.599
-35.9461
-45.8874
-38.8776
-36.1576
30.5909
-87.6037
-54.0061
-48.6213
-45.3925
-41.4431
-36.7371
-40.8664
-74.3108
-91.391
-62.3081
-50.5178
-42.981
-42.981
-80.9837
-177.354
-63.3243
-40.4767
-36.3228
-44.2266
-30.5462
-57.7146
-38.6338
-51.7603
-81.4806
-61.7203
-40.5181
-42.6748
-57.7356
-51.7829
-37.0787
-46.5977
-45.704
-41.9342
-39.8216
-55.4181
-31.9862
-73.8631
-37.2829
-46.5299
-42.0453
-55.3792
-64.6093
-64.3827
-66.9219
-1.5619
202.597
-42.979
-43.0799
-39.5766
-94.0624
-50.8817
-50.8393
-39.8924
-49.7235
-35.3103
-34.9159
-212.189
-83.1033
-39.4642
-38.6146
-51.9355
-64.417
-53.9002
-67.4575
-41.1672
-38.2937
-47.3587
-212.234
-37.4948
-83.7792
-38.3751
-39.4226
-51.0117
-50.559
-64.4812
-67.53
-38.3231
-41.4865
-47.4463
-55.3718
-38.5328
-43.2602
-45.2152
-42.752
-37.6314
-36.9012
-38.7102
-59.3596
-52.2601
-58.045
-39.4105
-51.6651
-47.5292
-55.1376
-68.8217
-55.2118
-45.0663
-38.8465
-43.2025
-40.6064
-38.6946
-38.1706
-36.8206
-59.299
-39.5756
-52.2384
-58.0538
-51.7078
-68.8488
-47.5874
-55.1765
-81.752
184.617
-91.4102
173.304
-65.0287
-65.9967
-48.7268
-35.6785
-41.4818
-28.3021
-50.7201
-40.4656
-22.7194
151.455
-64.398
-14.8901
-42.2993
-36.5507
-51.098
-50.3953
-81.9197
184.563
-64.4532
-65.9252
-48.5439
-35.8759
-50.386
-40.6685
-64.3555
-14.5982
-51.1074
-50.3957
-40.0083
-39.1014
-56.087
-44.0279
-53.5993
-41.9167
-42.3471
-43.0633
-38.9662
-38.9061
-48.1902
-82.5028
9.79285
-90.1046
-83.6675
-61.9736
-40.1359
-39.129
-55.9641
-44.0982
-42.4423
-43.0331
-48.2309
-82.5427
-82.5117
-60.2726
-55.4827
-71.9639
-83.5642
-71.9896
-55.407
-60.4519
-89.0263
-89.0482
-53.081
-53.1972
-29.3138
-0.700903
-0.6264
-29.1878
153.471
135.026
134.371
153.409
-40.8863
-39.2927
-47.7823
-49.7735
-40.965
-49.8145
-47.8509
-39.4882
-41.283
-41.2417
-38.4575
-38.4433
-86.6042
-76.1168
-76.1226
-86.6488
-43.8549
-50.923
-48.3706
-47.3552
-43.7747
-47.3704
-48.3583
-50.351
-39.8418
-39.0133
-42.8268
-42.5159
-61.9938
-43.0542
-43.0498
-61.9865
-32.8623
-32.8474
-36.8386
-36.7731
-52.3936
-224.222
-105.87
-40.4188
-40.7395
-46.1218
-56.8067
-21.986
-72.9825
-42.5597
-38.8454
-44.1015
-224.254
-53.3474
-105.89
-40.466
-40.1185
-45.4813
-22.1386
-56.3337
-73.0951
-38.8772
-42.5378
-44.1195
-46.162
-40.674
-42.2375
-44.159
-30.3104
-35.7782
-35.713
-38.2418
-63.1232
-56.3233
-59.538
-92.1231
-53.0219
-50.5131
-54.2608
-59.3257
-47.5421
-43.8415
-40.0959
-42.1682
-31.9438
-38.278
-35.1497
-35.8346
-63.0661
-92.1052
-56.3111
-59.5242
-53.068
-59.3259
-50.5583
-54.3063
-64.1619
-76.8374
-94.4848
138.531
-188.943
-188.976
-114.933
153.102
-76.9688
-57.3864
-64.0134
-64.9248
-39.9302
-40.8864
-44.9505
-36.0281
-36.9492
-36.9793
-38.9386
-29.9604
-43.0584
-43.0265
-48.7387
-41.4271
-33.3225
-33.3879
-29.7291
64.642
-61.7058
-56.289
-64.2927
-28.4521
-38.6877
-38.6018
-40.4545
-36.8245
-50.3953
-52.3177
-50.9463
-52.5858
-64.793
-77.9512
-94.5406
138.579
-77.033
-58.6069
-62.8603
-64.6247
-39.9506
-40.8571
-44.9579
-36.1566
-47.2613
-44.5705
-48.7527
-41.5594
-61.6727
-56.2738
-64.1757
-28.5579
-50.4044
-52.3598
-50.9709
-52.5694
-38.7533
-36.885
-39.0488
-38.6203
-44.7597
-48.8281
-49.72
-44.9676
-45.5743
-45.5077
-49.1249
-43.6923
-39.1106
-44.7246
-42.1039
-42.8979
-39.7112
-39.7447
-39.1776
-38.1042
-57.052
-55.2691
-51.2468
-66.7514
-31.525
-31.4528
-9.26975
-55.8387
-73.02
-73.0083
-78.8308
-68.1391
-39.0374
-38.1583
-39.2614
-38.8364
-44.7097
-48.8116
-49.3901
-45.0135
-39.2257
-44.8139
-42.1669
-43.1341
-57.0685
-55.2946
-51.1746
-66.744
-78.064
-64.9568
-63.7575
-59.2632
-77.9596
-64.6998
-63.6192
-59.3196
-77.5222
-66.7732
-66.7743
-59.4723
-15.3888
-4.07876
-6.29617
14.3174
201.556
172.81
196.021
201.58
-41.2698
-43.4176
-42.6749
-45.296
-41.3953
-43.5082
-42.7875
-45.3727
-39.5025
-40.5788
-39.111
-39.5035
-92.5232
-96.9565
-88.6068
-92.567
-52.5574
-50.6168
-51.5333
-48.0624
-52.7488
-50.4762
-51.5459
-48.4859
-40.6323
-40.0126
-40.0986
-39.6174
-45.3369
-49.8373
-49.8353
-55.2965
-35.3651
-30.0272
-36.1539
-35.3854
-96.9451
130.137
-115.387
142.716
-78.5834
-85.687
-44.8819
-35.0528
-40.543
-34.1891
-52.5598
-44.4903
-87.8681
99.4487
-37.8321
100.165
-68.2694
-39.6897
-45.5083
-36.8719
-40.8147
-37.3147
-48.0458
-44.3404
-115.402
142.725
-96.8688
130.249
-80.762
-85.94
-40.2733
-33.9222
-44.8645
-35.017
-51.6621
-44.7062
-37.6372
95.8884
-88.1203
99.4392
-68.2888
-39.7529
-40.8316
-37.3577
-45.5575
-36.9567
-48.0445
-44.3446
-62.7714
-52.9992
-39.867
-40.5821
-48.0749
-41.6673
-48.6904
-42.9455
-43.8717
-40.7943
-38.4775
-37.9708
-38.5329
-34.075
-38.4894
-37.6928
-57.5158
-21.9722
-53.4368
-51.0495
-53.5878
-74.4624
-18.4156
-62.806
-49.525
-63.2529
-47.6238
-47.5783
-51.2634
-63.7948
-71.8127
-66.6497
-62.4089
-52.7769
-48.4056
-42.8648
-39.9446
-40.4702
-47.4263
-41.7133
-43.3288
-39.7673
-38.5017
-37.9369
-38.5514
-38.0053
-38.5015
-36.6265
-57.4544
-21.9556
-18.3718
-62.7192
-53.3853
-51.0822
-53.6197
-74.476
-49.5819
-63.2325
-71.8226
-66.6079
-47.6879
-47.6493
-51.3134
-63.8444
-81.6976
-81.4716
149.757
170.243
-90.5703
-90.5715
168.11
167.594
-79.7256
-58.782
-75.9312
-58.7935
-49.9418
-48.3223
-32.283
-35.6677
-41.8329
-41.6451
-29.7282
-29.8117
-48.3189
-51.556
-40.1002
-41.3868
-24.2986
-24.2032
150.792
150.854
-60.392
-77.6444
-22.5291
-1.29813
-42.4942
-42.4952
-36.6151
-36.5955
-50.4281
-49.2822
-55.7781
-46.0163
-81.6788
-81.5686
170.435
149.677
-79.3726
-58.733
-75.8803
-58.7366
-48.3286
-49.4961
-32.688
-35.8259
-48.4789
-52.2952
-40.2282
-41.6683
-77.5976
-60.3157
-1.01416
-22.5972
-49.4264
-50.387
-46.036
-55.7752
-40.3869
-39.6624
-40.0352
-38.6313
-56.3048
-55.2215
-42.2475
-46.4497
-53.5284
-53.5497
-41.8073
-41.7874
-40.5631
-44.7323
-43.5721
-44.7266
-38.8262
-38.8271
-39.2816
-38.8184
-48.0369
-48.9728
-87.3658
-78.014
7.75112
7.90436
-85.2985
-85.3593
-81.8472
-81.8557
-62.0497
-62.0433
-40.5217
-39.8797
-40.0195
-38.6617
-55.0607
-56.6835
-42.3373
-46.5031
-44.8056
-40.6449
-43.6069
-44.7975
-49.0517
-48.1081
-78.0106
-87.312
-97.3246
-80.7076
-78.042
-94.7254
-46.9861
-49.8238
-59.1774
-57.3825
-57.536
-59.4424
-59.6391
-50.9166
-85.7729
-90.3108
-76.8758
-66.0598
-97.2124
-94.7904
-78.0022
-79.1851
-86.1156
-65.9896
-76.7846
-90.4327
-57.5052
-50.7785
-59.6058
-59.4101
-46.3658
-56.7638
-59.1141
-49.0135
-112.486
-113.854
-77.1422
-74.3002
-112.431
-74.165
-77.1068
-113.842
-47.8544
-48.9263
-59.3056
-58.163
-48.2068
-58.259
-59.3504
-49.0938
-44.1188
-34.1789
-17.2648
-31.755
-76.7279
-11.7007
10.0009
-19.0973
-76.9706
-19.1557
10.5258
-11.7429
-43.8405
-31.6681
-16.9628
-34.1379
139.594
119.855
166.41
144.813
51.3563
92.8271
175.099
131.583
51.0915
131.542
175.593
92.9567
138.92
143.918
166.83
120.05
-40.6392
-39.4034
-41.6943
-43.098
-37.567
-39.9348
-40.9115
-38.6978
-50.9497
-51.6637
-44.9981
-44.6441
-54.7328
-47.4578
-45.7854
-52.796
-40.708
-43.159
-41.782
-39.5917
-54.7398
-52.8646
-45.8762
-47.4895
-51.0306
-44.7171
-45.0797
-51.7648
-37.6104
-39.0296
-41.0598
-39.9644
-42.2533
-43.5791
-40.4666
-39.4675
-42.2297
-39.4771
-40.4445
-43.5323
-37.8966
-39.0475
-39.0206
-38.223
-37.9216
-38.1322
-39.0087
-39.0546
-78.7567
-69.9319
-95.0627
-55.7223
-60.7857
-77.5403
-87.0007
-64.1228
-60.7765
-64.073
-87.003
-77.5446
-78.679
-55.4461
-95.0452
-69.9272
-29.5757
-46.9483
-48.0502
-39.878
-45.3166
-44.9725
-51.5384
-51.3048
-45.0427
-50.2743
-51.8157
-45.1448
-50.9769
-45.1101
-48.6334
-50.8456
-30.4269
-40.7924
-48.1824
-47.6587
-51.0251
-50.9007
-48.7343
-45.1999
-45.0314
-45.1729
-51.565
-50.2365
-45.0356
-52.8014
-52.0711
-45.0384
-36.3729
-37.9245
-39.7174
-40.9416
-36.4726
-41.4473
-39.7648
-38.0774
-42.1482
-39.2831
-40.906
-43.3291
-42.3959
-42.6094
-40.8047
-39.4628
-58.2536
-58.2423
-55.3774
-67.5827
-41.6136
-40.6039
-45.5195
-47.9579
-41.6299
-47.9543
-45.5226
-40.6124
-58.2586
-67.5646
-55.3777
-58.2453
-35.7232
-31.1168
-30.9888
-34.7421
-35.5629
-34.9014
-31.2188
-31.2409
-37.5231
-36.9703
-36.0236
-36.4788
-37.466
-36.3922
-35.9407
-36.9564
-92.0319
-156.183
-112.827
-41.5952
-42.2082
-44.8249
-49.5786
-25.4827
-70.5669
-42.4384
-39.8656
-42.8731
-156.185
-93.6839
-112.891
-42.4422
-41.1925
-44.5562
-25.4416
-48.9103
-70.5461
-39.9198
-42.4682
-42.8995
-43.6294
-41.0586
-41.6066
-43.6397
-33.3106
-36.1328
-35.9953
-38.0208
-62.8055
-58.8289
-60.6539
-73.1981
-53.3883
-52.2567
-53.9325
-56.1932
-43.2903
-42.8607
-40.7527
-41.6864
-33.0203
-38.0148
-36.6735
-35.2339
-62.7633
-73.1711
-58.8111
-60.6276
-53.436
-56.2063
-52.3047
-53.9823
-88.4552
-77.601
-119.758
72.0946
-182.187
-182.208
-140.266
41.5344
-68.4967
-60.5064
-63.6973
-63.9726
-40.1734
-40.7269
-42.5549
-36.903
-36.4964
-36.5694
-37.504
-32.2123
-43.9855
-41.5503
-47.736
-42.1727
-32.2726
-32.3578
-30.9115
6.13143
-61.913
-56.7204
-61.104
-45.0993
-38.6701
-38.6722
-39.6961
-38.2487
-51.0317
-52.1294
-51.2901
-53.4144
-86.2255
-77.5226
-120.096
72.0231
-65.7562
-60.9974
-62.7551
-63.947
-40.1828
-40.7198
-42.7265
-37.0635
-41.3588
-44.73
-45.6668
-41.912
-61.8813
-56.7438
-61.0896
-45.1222
-51.0384
-52.1651
-51.3801
-53.4161
-37.2715
-37.9236
-37.5599
-38.4037
-45.5144
-47.5598
-47.8149
-45.6173
-45.6627
-45.6301
-46.886
-44.8406
-40.5183
-43.3271
-41.9339
-42.2385
-39.792
-39.8138
-39.6206
-38.7521
-56.4499
-55.3176
-53.1902
-60.9463
-31.7174
-31.7046
-18.9449
-43.1554
-73.6726
-73.6599
-76.4881
-71.1004
-38.5108
-38.1556
-37.6777
-38.8927
-45.4341
-47.5273
-47.6756
-45.6276
-40.6561
-43.432
-42.0125
-42.44
-56.4386
-55.3243
-53.0786
-60.9327
-70.4023
-65.0138
-64.0658
-61.1438
-70.2028
-64.8212
-63.7973
-61.1552
-71.7781
-66.9029
-66.8498
-62.8572
-11.0617
-2.16691
-2.55343
7.75231
197.413
187.74
205.795
197.45
-41.9904
-43.1999
-42.7644
-44.0479
-42.1069
-43.3036
-42.8746
-44.1399
-39.5598
-40.0722
-39.3192
-39.5559
-93.6786
-97.2112
-91.2581
-93.6991
-51.203
-50.6914
-51.0169
-49.389
-51.3909
-50.6613
-51.0313
-49.5375
-40.2679
-39.9163
-39.9591
-39.5819
-47.3939
-49.705
-49.7015
-52.5804
-35.3228
-33.1195
-35.8412
-35.396
-42.5011
-59.8533
-145.869
110.15
-255.486
-192.595
-145.158
14.7557
-85.2124
-76.7391
-81.1525
-83.7837
-39.8334
-39.7086
-42.6255
-36.0751
-39.6071
-37.6224
-39.0439
-35.9515
-49.5839
-47.0097
-55.0807
-45.3919
-64.28
-68.6841
-103.879
43.8158
-41.0263
-38.2798
-40.7737
36.4016
-74.2223
-65.1384
-70.7353
-49.7037
-41.2973
-41.3096
-43.8842
-37.5625
-38.4677
-38.4687
-39.6756
-37.4316
-45.1613
-48.6204
-47.592
-46.1183
-255.528
-192.654
-145.247
14.9965
-45.338
-60.7271
-147.481
110.113
-85.1134
-79.4005
-82.5148
-84.1198
-39.3584
-37.4903
-38.8852
-35.5886
-39.6068
-39.7036
-42.5782
-35.9945
-47.0964
-53.4282
-52.9473
-46.0562
-39.5184
-38.8841
-40.3773
29.7292
-64.2011
-68.8017
-103.809
43.5899
-74.4313
-65.0722
-70.7775
-49.9564
-38.5014
-38.5162
-39.6885
-37.474
-41.7144
-41.384
-43.9783
-37.668
-45.1843
-48.6169
-47.6011
-46.1169
-50.2337
-56.143
-60.1889
-53.4005
-39.9228
-38.9191
-39.889
-40.068
-42.7783
-43.8867
-44.7773
-42.2941
-44.842
-45.2828
-46.6323
-44.0716
-39.3654
-44.0738
-44.99
-41.4427
-36.8521
-36.0873
-38.9514
-38.0133
-36.2234
-37.93
-37.865
-35.4266
-38.2946
-39.4795
-38.8111
-38.0125
-63.2502
-57.2797
-58.9902
-48.2956
-54.2324
-50.3769
-52.9006
-51.6016
-58.7103
-57.5296
-56.0281
-65.0507
-54.5822
-34.9854
-29.6995
-51.7838
-52.5916
-52.0897
-49.5306
-55.9845
-48.8443
-46.1552
-47.5275
-47.4993
-54.6354
-55.3643
-53.3074
-59.5345
-62.7323
-71.4488
-70.4678
-69.3091
-50.2508
-56.426
-60.3957
-52.7343
-44.6618
-45.1894
-46.4845
-43.9719
-39.8488
-37.723
-40.2034
-39.8684
-42.7244
-43.8456
-44.5986
-42.3002
-36.0766
-44.2851
-42.0622
-40.0246
-38.2581
-39.52
-38.8891
-38.0459
-36.7741
-36.7637
-38.8558
-37.8861
-36.2293
-37.9157
-37.8698
-34.171
-63.1889
-57.231
-58.929
-48.1813
-54.8368
-34.9652
-29.7393
-51.4249
-54.2186
-50.3664
-52.8713
-51.6194
-58.7048
-57.5482
-56.05
-65.0504
-52.6429
-52.1145
-49.6422
-55.9615
-62.74
-71.4517
-70.4845
-69.3799
-48.9034
-46.2209
-47.5904
-47.5649
-54.6805
-55.3941
-53.3526
-59.5435
-74.9591
-89.7633
-84.5146
-83.4274
170.782
191.985
169.495
181.222
-102.175
-83.5823
-91.1403
-91.1339
162.404
179.612
171.503
171.396
-64.7142
-64.9771
-71.2189
-59.7483
-65.4823
-66.2229
-70.5191
-62.0569
-46.7758
-51.6442
-49.3989
-48.3896
-35.9705
-35.6199
-34.2323
-35.9671
-40.5956
-41.1429
-41.5786
-41.5311
-28.7875
-28.2321
-28.6212
-28.7432
-50.666
-50.7001
-49.3364
-50.921
-40.8461
-40.1939
-40.0916
-40.9131
-26.4947
-19.0296
-23.0468
-22.973
110.081
179.914
156.98
156.953
-64.9972
-63.773
-61.7923
-69.6754
-22.4027
-7.24409
-18.6756
-9.61744
-41.0836
-43.7095
-42.3752
-42.3759
-36.3263
-36.7566
-36.6852
-36.6662
-50.8348
-51.8084
-51.0167
-50.3958
-51.0318
-49.9915
-52.9648
-48.0185
-75.1099
-89.8754
-85.3457
-83.5454
170.713
192.006
181.296
169.477
-63.8038
-64.5992
-70.7752
-59.3419
-65.3639
-66.4192
-70.4503
-61.9916
-46.7987
-51.2613
-48.3498
-48.9817
-36.0791
-35.7059
-34.7006
-35.8299
-50.2831
-50.2987
-49.0656
-50.6768
-41.0901
-40.3342
-40.2601
-41.1527
-64.8709
-63.676
-69.5838
-61.748
-22.045
-9.44446
-8.29257
-18.8528
-50.8664
-51.7404
-50.4739
-50.9843
-51.0294
-49.996
-48.0204
-52.9697
-39.5587
-40.5903
-40.1899
-39.8405
-38.8997
-39.3184
-39.5674
-38.8407
-52.772
-58.4405
-56.2194
-55.4222
-44.4621
-43.6914
-43.0274
-45.1378
-51.1451
-56.5922
-53.6054
-53.5952
-42.7659
-41.1478
-41.9285
-41.9132
-42.2487
-42.543
-41.3749
-43.4634
-42.7419
-45.6203
-43.153
-43.2383
-39.0486
-38.9419
-38.9078
-38.9022
-38.3607
-39.5521
-39.1561
-38.8076
-50.0142
-46.5787
-47.9824
-48.7136
-74.0274
-88.7151
-85.9468
-79.8031
2.20046
14.1674
9.17159
9.22223
-73.5251
-96.7903
-88.1271
-88.4545
-81.0787
-86.1427
-82.9963
-82.9987
-64.8412
-58.4835
-61.8875
-61.8818
-39.7131
-40.7273
-40.2938
-40.0001
-38.9394
-39.3371
-39.5894
-38.868
-52.4855
-58.3394
-55.2577
-56.1972
-44.5107
-43.7738
-43.1079
-45.2093
-42.3214
-42.6458
-43.5577
-41.4804
-42.8322
-45.7874
-43.2293
-43.3581
-49.9631
-46.6464
-48.7694
-48.0423
-74.1705
-88.7277
-79.8027
-85.9186
-73.5388
-82.4726
-80.0835
-93.5872
-62.1103
-55.0959
-59.2132
-57.7585
-56.1681
-54.1156
-57.9061
-55.3461
-73.4768
-68.0269
-77.6611
-77.638
-73.566
-84.2529
-80.2975
-94.0203
-73.4999
-67.9593
-77.8042
-77.6776
-56.1248
-54.05
-57.8631
-55.2368
-61.8041
-54.1231
-59.419
-58.3339
-100.708
-87.7564
-89.8598
-81.4764
-100.718
-87.8924
-89.8615
-81.4794
-52.8825
-50.4178
-56.0998
-53.3276
-53.0416
-50.7912
-56.1044
-53.395
-33.3735
-34.0394
-26.1791
-26.1286
-7.87949
-8.63214
2.45174
4.43288
-8.06536
-8.60752
2.26636
4.60363
-33.2215
-33.9331
-26.1164
-26.0469
143.997
153.015
154.973
166.049
123.418
99.4957
155.485
139.723
102.827
123.297
140.133
155.391
153.096
143.978
165.653
154.835
-40.4187
-41.2286
-40.6054
-41.491
-38.8689
-39.0502
-39.4853
-39.9066
-47.7227
-49.3834
-46.0914
-47.9323
-50.3331
-51.6628
-47.9706
-49.2784
-40.4952
-41.2887
-40.7414
-41.5945
-50.3636
-51.7015
-48.0134
-49.344
-47.7922
-49.4354
-46.1616
-48.0021
-39.0256
-39.1523
-39.7598
-40.016
-40.9752
-42.0744
-40.5501
-41.5869
-41.9976
-40.9131
-41.5513
-40.5306
-38.4687
-38.2238
-38.6455
-38.459
-38.1911
-38.4592
-38.4359
-38.6189
-93.1705
-68.7272
-87.9201
-82.7171
-68.7975
-73.5875
-77.7682
-79.7527
-73.595
-68.799
-79.7661
-77.7763
-68.6947
-93.2447
-82.7411
-87.9605
-43.8943
-39.5469
-46.1647
-44.1498
-47.4349
-51.4875
-50.3565
-53.566
-46.9193
-48.1475
-48.4381
-49.5496
-48.3135
-47.5174
-48.1811
-46.3166
-43.6979
-41.1865
-47.0061
-43.8308
-48.3754
-47.5595
-48.303
-46.2546
-46.935
-48.136
-48.4448
-49.5368
-47.2248
-50.9684
-49.9642
-53.447
-40.3064
-38.9418
-40.0166
-39.4782
-39.2776
-38.1812
-40.0588
-38.8826
-41.9181
-43.6528
-42.2343
-42.3564
-42.1492
-43.3772
-41.9617
-42.0329
-62.7045
-64.2687
-58.8614
-61.7153
-41.9087
-43.4997
-42.6804
-44.3834
-41.9184
-43.5087
-42.6671
-44.3925
-62.6926
-64.1846
-58.8556
-61.8052
-34.2307
-33.4852
-32.3667
-31.2661
-33.3639
-34.1337
-31.3301
-32.5043
-37.1142
-36.8876
-36.6805
-36.5213
-36.8121
-37.0614
-36.444
-36.6204
-137.703
125.969
-150.579
30.2277
-98.9326
-112.619
-43.3737
-36.7208
-40.7769
-37.9515
-46.2766
-43.2717
-96.5772
13.6082
-43.7651
11.4801
-86.2546
-53.0835
-44.1007
-38.6213
-40.3227
-37.9717
-44.4685
-42.9857
-150.546
29.7022
-138.247
125.553
-98.9704
-112.446
-40.8184
-37.255
-42.8288
-36.7751
-45.9113
-43.3761
-43.6457
11.2928
-96.4427
13.2061
-86.3959
-52.8145
-40.344
-38.0151
-44.1676
-38.7029
-44.4735
-42.9993
-47.3455
-47.8891
-40.0725
-41.7004
-43.7751
-41.2356
-45.2583
-43.29
-25.348
-35.8268
-35.8467
-37.6484
-36.8815
-33.746
-38.2812
-37.6671
-60.3714
-76.4775
-57.0051
-55.5023
-57.0882
-67.1443
-82.9064
-90.0715
-52.1321
-55.0931
-50.7668
-50.8186
-52.7361
-57.4456
-59.7985
-58.9015
-46.4529
-47.5199
-44.8856
-43.2126
-39.7317
-41.8347
-43.5758
-41.2644
-29.1199
-35.3638
-38.2989
-37.393
-35.9734
-37.5613
-36.8853
-33.9803
-60.32
-76.4258
-82.8743
-89.9297
-56.9906
-55.5012
-57.089
-67.1174
-52.1734
-55.1132
-59.796
-58.9027
-50.8136
-50.9069
-52.786
-57.4536
-131.987
94.8362
-107.416
59.8897
-93.0253
-91.4056
129.964
140.312
-138.868
3.92303
-138.912
4.09161
-114.211
-114.216
148.302
147.057
-79.8479
-74.2709
-57.1431
-57.9744
-70.4031
-58.3765
-69.2963
-61.2617
-42.4553
-35.9983
-43.4374
-37.1989
-44.997
-44.9644
-35.3027
-36.2622
-37.952
-33.3569
-37.8742
-33.4708
-39.0402
-39.1005
-30.0587
-30.1226
-49.0637
-43.5767
-44.79
-41.6115
-47.2116
-49.3871
-40.9256
-41.963
-33.4847
0.185785
-33.3585
0.107541
-30.4224
-30.3857
67.0533
66.9985
-63.7556
-47.7903
-58.2565
-39.6843
-61.3889
-66.055
-31.1441
-23.9052
-39.6292
-37.9336
-39.6356
-37.9646
-40.5002
-40.5026
-36.7924
-36.7822
-50.2203
-50.6976
-51.6659
-55.6607
-50.8117
-50.8512
-55.5279
-50.3567
-132.343
93.741
-107.52
59.7153
-93.0971
-91.4882
140.269
129.962
-78.9562
-73.73
-56.9692
-57.7522
-69.7753
-57.1911
-69.1007
-61.1627
-42.4501
-36.1128
-43.5123
-37.2914
-44.9433
-44.9903
-35.5012
-36.3474
-50.5588
-45.08
-46.9702
-43.3155
-47.1227
-50.2611
-41.1849
-42.2294
-63.7359
-47.7649
-58.2105
-39.6945
-65.9774
-61.333
-24.1583
-31.2502
-50.2148
-50.6696
-51.7055
-55.5917
-50.88
-50.7863
-50.3326
-55.5322
-38.649
-39.4233
-38.9271
-37.8636
-39.1721
-38.9234
-39.0297
-38.3765
-46.181
-43.7848
-49.7268
-48.1039
-49.3381
-50.1988
-43.9179
-46.1096
-46.8015
-44.7288
-46.725
-44.6872
-49.0748
-49.1996
-43.6659
-43.6434
-39.5856
-38.3983
-44.5534
-44.852
-40.9484
-43.3331
-41.64
-44.1337
-39.4798
-38.6469
-39.5027
-38.6787
-39.1352
-39.1353
-37.9897
-38.1368
-55.16
-62.9462
-53.7705
-59.8111
-50.035
-53.5654
-68.197
-65.4721
-21.8771
-45.0502
-21.8502
-44.9562
-9.90212
-9.7264
-56.3441
-55.8924
-75.3593
-70.459
-75.373
-70.4509
-78.5106
-78.5096
-68.0907
-68.0893
-39.984
-39.2318
-38.6203
-38.0516
-39.3509
-39.1484
-39.1708
-38.4341
-46.0186
-43.8088
-49.6451
-48.1051
-49.9676
-48.8634
-43.9577
-46.1396
-39.6121
-38.8268
-44.6339
-44.9622
-43.4032
-41.0092
-41.9733
-44.2617
-55.2084
-62.9483
-53.8232
-59.8053
-53.7669
-49.9414
-65.4609
-68.193
-78.1815
-77.3003
-70.5948
-60.9276
-61.2057
-69.5187
-59.0837
-59.5673
-78.1108
-77.1854
-70.3847
-60.7933
-69.3545
-61.1803
-59.6137
-59.0442
-77.6321
-77.592
-71.5526
-62.7024
-71.4722
-62.6558
-59.3728
-59.3938
-15.7621
-15.5557
-13.5749
4.57447
3.19953
-12.3538
13.2254