# vtk DataFile Version 2.0
tri_press
ASCII
DATASET UNSTRUCTURED_GRID
POINTS 3682 float
-0.665716 0.215 -1.895
-0.701343 0.335 1.965
-0.665 0.715 -1.70269
-0.579452 1.025 1.915
0.659347 0.215 -1.895
0.694992 0.335 1.965
0.656006 0.715 -1.705
0.598315 0.995 1.905
-0.71741 0.215182 -0.608333
-0.758951 0.225516 0.678333
-0.712999 0.894848 -0.496793
-0.669986 0.983684 0.709103
0.71105 0.215179 -0.608333
0.754482 0.223628 0.678333
0.712792 0.88435 -0.501667
0.677148 0.961269 0.701667
-1.36765 -0.16995 -2.93887
-1.37075 -0.110051 -1.94258
-1.40901 -0.105645 -0.653574
-1.43556 -0.103138 0.652136
-1.40716 -0.0275114 1.94255
-1.39606 0.0365358 2.94577
-1.39914 0.0928117 3.93627
-1.36557 0.12956 -2.87286
-1.36711 0.208719 -1.88542
-1.41228 0.23529 -0.612178
-1.42852 0.247194 0.668676
-1.37408 0.324672 1.94346
-1.37425 0.386829 2.9452
-1.38719 0.441495 3.93818
-1.36492 0.69478 -2.71715
-1.36532 0.772267 -1.72572
-1.40079 0.906776 -0.507541
-1.36299 0.980143 0.705162
-1.28624 1.03035 1.92462
-1.32305 1.08449 2.92811
-1.36159 1.13784 3.9332
-1.3701 1.64846 -2.54544
-1.37144 1.7407 -1.56642
-1.37893 1.88696 -0.375314
-1.36765 2.0078 0.798233
-1.34634 2.08412 1.9897
-1.34717 2.13306 2.96946
-1.36163 2.18177 3.96608
-0.680309 -0.167118 -2.94518
-0.671858 -0.104322 -1.95131
-0.703211 -0.115658 -0.653737
-0.738484 -0.118276 0.66101
-0.722758 -0.0250327 1.95897
-0.717641 0.036386 2.95611
-0.721227 0.0893621 3.94136
-0.68132 0.126023 -2.87563
-0.708102 0.38622 2.95281
-0.71564 0.437601 3.94124
-0.681563 0.670042 -2.70834
-0.665518 1.07752 2.92348
-0.697592 1.13154 3.93016
-0.68138 1.62926 -2.53702
-0.679622 1.72151 -1.55718
-0.688947 1.87725 -0.370808
-0.688477 2.00414 0.794905
-0.67762 2.07911 1.98125
-0.680127 2.12674 2.96103
-0.692165 2.17532 3.95934
0.67721 -0.169477 -2.94638
0.687372 -0.105611 -1.95186
0.719548 -0.11736 -0.654282
0.73382 -0.121401 0.660368
0.690103 -0.0281822 1.95807
0.658508 0.0285996 2.95361
0.643574 0.0789065 3.93795
0.66506 0.12419 -2.87684
0.643408 0.376611 2.94967
0.634998 0.425765 3.93736
0.662867 0.667781 -2.71041
0.61685 1.05846 2.91716
0.627147 1.11616 3.92508
0.689551 1.6231 -2.54008
0.696481 1.71414 -1.56066
0.692599 1.86628 -0.375183
0.670919 1.98866 0.789458
0.650721 2.06117 1.97519
0.644889 2.1094 2.95521
0.642662 2.1595 3.95404
1.36361 -0.176233 -2.94188
1.37587 -0.115592 -1.945
1.41772 -0.113429 -0.656332
1.4387 -0.114868 0.6487
1.39386 -0.0412578 1.93831
1.35422 0.018323 2.93991
1.33376 0.0714185 3.92928
1.35068 0.123843 -2.87601
1.35812 0.203439 -1.88807
1.40897 0.226222 -0.615604
1.43524 0.231789 0.664078
1.3795 0.306931 1.93786
1.33615 0.365007 2.93811
1.32178 0.417648 3.93036
1.34775 0.687939 -2.72159
1.35495 0.76466 -1.73077
1.39964 0.888729 -0.51509
1.37665 0.948073 0.694474
1.30764 0.991032 1.91169
1.29788 1.05048 2.91688
1.30508 1.10822 3.92341
1.37575 1.63556 -2.55158
1.38332 1.72547 -1.57333
1.38274 1.86543 -0.383789
1.35806 1.97853 0.787915
1.32879 2.0505 1.97831
1.31888 2.10006 2.95837
1.31751 2.1511 3.95579
-0.696225 0.465 -1.82971
-0.0031845 0.216971 -1.89303
-0.692816 0.213838 -1.25167
-0.638813 0.68 1.93842
-0.0031755 0.33066 1.96934
-0.740808 0.269597 1.32167
-0.00449702 0.781699 -1.77054
-0.724993 0.840918 -1.09974
0.00943151 1.0148 1.9148
-0.65367 1.03329 1.31205
0.688686 0.465 -1.83101
0.686491 0.213797 -1.25167
0.657509 0.665 1.94586
0.7347 0.269351 1.32167
0.720887 0.836163 -1.10333
0.664155 1.00456 1.30333
-0.737548 0.220982 0.035
-0.791698 0.555015 -0.552563
-0.00317994 0.212687 -0.608333
-0.792193 0.6046 0.693718
-0.00223437 0.219893 0.678333
-0.692131 0.939905 0.106155
-0.000103079 1.21742 -0.49923
0.00358111 1.39756 0.705385
0.731336 0.220833 0.035
0.785712 0.549765 -0.555
0.790014 0.592449 0.69
0.698363 0.926202 0.1
-0.804287 0.510007 -1.1757
0.813761 0.507382 -1.1775
-0.00318222 0.211707 -1.25167
-0.00230005 0.926516 -1.10154
-0.00384076 0.465 -2.11656
-0.785284 0.579808 0.0705775
0.78293 0.571107 0.0675
-0.00270716 0.219559 0.035
0.00173901 1.38503 0.103077
-0.806746 0.6423 1.31686
0.8126 0.628724 1.3125
-0.00270493 0.258578 1.32167
0.00650631 1.19863 1.30769
0.00312801 0.6725 2.02328
-0.629218 0.34 -1.8106
-0.33445 0.217804 -1.8922
-0.680298 0.213387 -1.57333
-0.698776 0.5075 1.98041
-0.352259 0.336214 1.96379
-0.740078 0.283296 1.64333
-0.686483 0.59 -1.77207
-0.334749 0.77189 -1.76016
-0.712382 0.795344 -1.40122
-0.61323 0.8525 1.9308
-0.28501 1.01334 1.90834
-0.606581 1.01917 1.61353
0.328081 0.217782 -1.89222
0.622881 0.34 -1.81187
0.67397 0.213347 -1.57333
0.345908 0.319804 1.9802
0.696223 0.5 1.9754
0.734029 0.282992 1.64333
0.325754 0.771894 -1.76132
0.678137 0.59 -1.7738
0.70666 0.793795 -1.40417
0.303873 1.01184 1.91684
0.631487 0.83 1.929
0.635922 1.00447 1.60417
-0.705254 0.214369 -0.93
-0.729616 0.215945 -0.286667
-0.781849 0.371451 -0.580448
-0.360069 0.214386 -0.608333
-0.73772 0.259716 1
-0.750398 0.221101 0.356667
-0.796209 0.40474 0.686026
-0.381636 0.220618 0.678333
-0.721876 0.870763 -0.798268
-0.768956 0.733235 -0.524678
-0.702462 0.917273 -0.195319
-0.426268 1.19557 -0.498012
-0.66088 1.00754 1.01058
-0.761643 0.809419 0.701411
-0.678977 0.959713 0.407629
-0.425829 1.37588 0.707244
0.698929 0.21433 -0.93
0.353711 0.21438 -0.608333
0.72326 0.21594 -0.286667
0.773395 0.369965 -0.581667
0.731731 0.25935 1
0.376692 0.220624 0.678333
0.744026 0.221114 0.356667
0.78936 0.399483 0.684167
0.71944 0.862857 -0.8025
0.427454 1.1931 -0.500448
0.763804 0.724333 -0.528333
0.705823 0.905522 -0.200833
0.667139 0.979401 1.0025
0.43823 1.37515 0.703526
0.762293 0.791215 0.695833
0.689165 0.945145 0.400833
-0.798183 0.487504 -1.50271
-0.350033 0.465 -2.05782
-0.00318336 0.213245 -1.57235
-0.00351263 0.340985 -2.01938
-0.800136 0.361923 -1.21369
-0.347999 0.211714 -1.25167
-0.783955 0.66115 1.62764
-0.317842 0.67625 2.00722
-0.00294021 0.280925 1.6455
-2.3745e-05 0.50158 2.06969
-0.797887 0.455949 1.31926
-0.371756 0.25858 1.32167
-0.00339854 0.864588 -1.43604
-0.00416889 0.623349 -2.01103
-0.80592 0.675463 -1.13772
-0.363647 0.911348 -1.10064
0.00796891 1.04508 1.61125
0.00627976 0.843651 2.00447
-0.762675 0.837797 1.31446
-0.323582 1.17597 1.30987
0.806312 0.486191 -1.50425
0.342423 0.465 -2.05844
0.809527 0.36059 -1.21458
0.341654 0.211701 -1.25167
0.780306 0.646862 1.62918
0.330318 0.66875 2.01593
0.802119 0.449038 1.31708
0.365997 0.258576 1.32167
0.815033 0.671773 -1.14042
0.359294 0.910972 -1.10244
0.778883 0.816641 1.30792
0.335331 1.17564 1.30551
-0.777657 0.392274 0.0527888
-0.370267 0.21999 0.035
-0.800341 0.532511 -0.864134
-0.788084 0.567411 -0.240993
-0.00318108 0.212034 -0.93
-0.00294355 0.213179 -0.286667
-0.782205 0.592204 0.382148
-0.814444 0.62345 1.00529
-0.00247076 0.220013 0.356667
-0.00246965 0.239263 1
-0.765855 0.77343 0.0883662
-0.44499 1.36205 0.104616
-0.00120156 1.04361 -0.800384
0.000817968 1.34822 -0.198076
0.00266006 1.39599 0.404231
0.00504371 1.36071 1.00654
0.771474 0.388799 0.05125
0.364416 0.219994 0.035
0.799394 0.528573 -0.86625
0.784176 0.560436 -0.24375
0.780763 0.581778 0.37875
0.815692 0.610586 1.00125
0.76153 0.759096 0.08375
0.452757 1.36103 0.101539
-0.791509 0.350961 -1.53802
-0.802436 0.373511 -0.897067
-0.77588 0.700197 -0.831201
-0.802506 0.632731 -1.45196
0.799259 0.350295 -1.53879
0.806814 0.630886 -1.45421
0.770222 0.694415 -0.834375
0.8053 0.371531 -0.898125
-0.341225 0.213433 -1.57284
0.334868 0.213422 -1.57284
0.347795 0.212027 -0.93
-0.354147 0.212041 -0.93
-0.349198 0.855987 -1.41863
-0.360099 1.02682 -0.799326
0.357819 1.02501 -0.801442
0.342524 0.8556 -1.4201
-0.342242 0.340493 -2.01104
-0.342391 0.606675 -2.01308
0.334089 0.606675 -2.01374
0.335252 0.340493 -2.00954
-0.780901 0.381288 -0.26383
-0.780537 0.401705 0.369407
-0.763704 0.791402 0.394889
-0.767259 0.75326 -0.218156
0.77121 0.379994 -0.265208
0.762098 0.74143 -0.222292
0.759697 0.774048 0.389792
0.773577 0.397561 0.367708
-0.366213 0.215098 -0.286667
0.360111 0.215091 -0.286667
0.370548 0.220321 0.356667
-0.375945 0.220318 0.356667
-0.459144 1.32584 -0.196698
-0.437884 1.37392 0.40593
0.447956 1.37301 0.402532
0.463692 1.32424 -0.199455
-0.806729 0.435504 1.00264
-0.783367 0.481724 1.63549
-0.741852 0.845148 1.62058
-0.776326 0.815969 1.00793
0.806814 0.428538 1.00063
0.787891 0.79675 1.00188
0.755618 0.823321 1.61667
0.77634 0.474519 1.63626
-0.376174 0.239263 1
0.371061 0.239262 1
0.355953 0.281121 1.64442
-0.362008 0.280638 1.64442
-0.328392 1.34498 1.00856
-0.304296 1.03985 1.61239
0.319602 1.03925 1.60771
0.337848 1.34441 1.00452
-0.335051 0.50454 2.0864
0.338113 0.50079 2.0851
0.317096 0.836826 1.99312
-0.301426 0.848076 1.99087
-0.663732 0.2775 -1.86907
-0.500083 0.211548 -1.89845
-0.673997 0.213203 -1.73417
-0.70483 0.42125 1.97747
-0.526801 0.332971 1.96703
-0.72586 0.303999 1.80417
-0.679191 0.6525 -1.74083
-0.499874 0.752577 -1.74056
-0.696762 0.763243 -1.55195
-0.591848 0.93875 1.91841
-0.432231 1.01067 1.90317
-0.583078 1.01214 1.76426
0.493714 0.211561 -1.89844
0.657064 0.2775 -1.86938
0.667628 0.213204 -1.73417
0.52045 0.308933 1.99107
0.700509 0.4175 1.9751
0.711565 0.311942 1.80417
0.49088 0.752536 -1.74225
0.670579 0.6525 -1.74291
0.6897 0.762764 -1.55458
0.451094 1.00836 1.91586
0.610621 0.9125 1.91272
0.619121 1.00174 1.75458
-0.711296 0.214811 -0.769167
-0.723518 0.215559 -0.4475
-0.782481 0.27689 -0.594391
-0.538766 0.21473 -0.608333
-0.758416 0.232536 0.839167
-0.753992 0.22399 0.5175
-0.796733 0.305552 0.68218
-0.57128 0.221094 0.678333
-0.717503 0.882871 -0.647531
-0.747272 0.817189 -0.510736
-0.708064 0.906394 -0.346056
-0.620786 1.14751 -0.497403
-0.665521 0.995701 0.85984
-0.726971 0.90213 0.705257
-0.674219 0.971436 0.558366
-0.57289 1.22975 0.708174
0.704934 0.214809 -0.769167
0.532407 0.214726 -0.608333
0.717157 0.215557 -0.4475
0.777439 0.274964 -0.595
0.753535 0.231061 0.839167
0.566099 0.221102 0.678333
0.750042 0.221583 0.5175
0.789878 0.302577 0.68125
0.716196 0.873683 -0.652083
0.619642 1.13776 -0.501058
0.744081 0.807233 -0.515
0.709418 0.895046 -0.35125
0.672694 0.970886 0.852083
[...]
POINT_DATA 3682
SCALARS point_scalars float 1
LOOKUP_TABLE default
-90.5709
-45.9798
-33.1856
-35.378
-69.9172
-44.554
-28.5689
-35.0332
-37.2169
-36.2789
-62.789
-44.4252
-37.2988
-34.7483
-61.5979
-43.4144
-82.3309
-125.572
-42.9067
-35.9903
-45.9812
-43.7476
-41.5503
-82.3309
-125.572
-38.7833
-35.105
-45.0894
-43.4105
-37.2304
62.4248
-86.0939
-51.4398
-38.2593
-43.5125
-38.8307
-36.7581
-15.8182
-53.3787
-98.6354
-53.6439
-35.3131
-35.3131
-35.3131
51.6997
-144.4
-37.9632
-38.1714
-43.9938
-39.3458
-39.3458
51.6997
-39.3458
-36.3177
159.369
-35.5722
-35.7341
8.67895
-24.4128
-91.9649
-53.4946
-35.3131
-35.3131
-35.3131
0.422731
-8.95062
-38.3052
-37.6549
-42.1642
-38.3615
-36.7016
7.03786
-36.8078
-35.3371
159.5
-34.5576
-33.7461
-16.4844
-25.1199
-93.9579
-54.6037
-32.8946
-32.223
-31.4945
0.422731
-9.64505
-47.9158
-37.265
-42.3131
-42.3665
-40.4018
7.01939
-9.5919
-38.2337
-34.6816
-42.6912
-40.4225
-36.3452
7.229
-79.2818
-51.0133
-37.039
-41.6021
-36.9509
-35.304
-16.6087
-54.8404
-96.4431
-52.4703
-34.3689
-35.2782
-34.8526
-4.42194
-132.836
-52.2935
-37.0776
-39.3173
-39.2888
-22.5164
-47.3267
-33.3838
-41.9221
18.9199
-53.3811
-36.0482
-39.8687
-49.0677
-42.7109
-32.3537
-42.5976
-38.7021
-33.4881
-39.585
-50.3361
-10.4962
-58.3993
-31.3498
-41.4871
-32.2466
-49.8684
-57.8702
-61.1854
-56.1304
15.0306
194.747
-38.2052
-37.4748
-34.4986
-82.9955
-43.0781
-45.2194
-41.4389
-35.8422
-28.5766
29.1442
-132.714
-76.0968
-41.6365
-40.4287
-43.9596
-8.07931
-23.2851
-49.2379
-36.9611
-33.1267
-36.0151
-133.05
37.5507
-77.263
-41.3589
-40.1487
-45.14
-22.7905
-1.87285
-49.3821
-32.1118
-36.009
-36.6184
-41.9292
-34.2838
-39.3279
-38.104
-37.9455
-32.6015
-34.4195
-39.5057
-65.6568
-49.3745
-56.4368
-20.9577
-42.5921
-39.1698
-46.4458
-55.3437
-42.6278
-38.1557
-34.254
-38.728
-38.2741
-39.4211
-31.888
-29.3964
-64.6845
-20.0475
-48.2102
-55.3072
-42.8103
-54.9484
-37.9773
-45.903
-86.4551
173.747
-77.2841
181.731
-57.3327
-54.6216
-44.455
-33.742
-42.7466
-32.3416
-41.2083
-41.6264
-6.63944
155.164
-58.6984
5.88559
-33.1575
-26.9309
-43.1719
-36.8159
-92.456
176.596
-60.2479
-54.9162
-43.0946
-31.8603
-44.1837
-40.9445
-62.0499
5.18197
-44.0457
-36.9122
-34.7325
-33.952
-48.7371
-40.2731
-44.8925
-36.0266
-35.795
-40.9124
-35.8834
-40.3384
-43.6048
-73.9436
33.8243
-98.0796
-67.2897
-46.7495
-34.1635
-33.7869
-50.4521
-39.5248
-34.9839
-41.5626
-42.6018
-73.5435
-89.1429
-48.0387
-52.1539
-83.0495
-94.2887
-84.1419
-52.3323
-49.0811
-75.9502
-76.176
-44.1001
-43.8901
-11.972
26.781
26.3258
-12.1125
171.012
122.334
123.693
175.161
-36.9615
-33.2107
-40.3431
-46.7051
-36.1715
-45.494
-39.437
-32.1883
-35.5108
-35.4288
-35.2314
-35.4046
-95.0402
-61.5111
-60.8173
-94.561
-40.9958
-43.5623
-41.5629
-41.8588
-41.3021
-42.0908
-41.3749
-43.5358
-40.1253
-39.9983
-41.7525
-44.3445
-47.9058
-33.8157
-33.6199
-48.2912
-36.1432
-35.1976
-30.7236
-32.9071
23.2676
-149.035
-107.555
-43.5872
-42.2587
-44.2392
-16.8253
-29.0094
-52.0589
-37.7936
-33.2091
-34.8184
-145.378
37.6061
-108.411
-43.0564
-42.0165
-40.989
-28.2755
-11.0808
-51.8536
-32.0765
-35.8015
-35.2188
-38.8589
-35.3565
-38.1458
-37.4233
-47.6236
-33.8428
-34.9336
-39.4326
-66.3224
-55.626
-59.5528
-91.3965
-43.6788
-41.9745
-45.1256
-49.3089
-39.1306
-37.4496
-35.2478
-37.8958
-48.916
-39.3409
-32.7763
-28.063
-65.3288
-96.3015
-54.4676
-58.5235
-43.5776
-48.3794
-41.0045
-44.4106
8.08257
-10.5954
-104.973
119.056
-134.085
-136.291
-96.8936
148.231
-61.5997
-46.1612
-56.4568
-53.052
-40.3318
-37.3762
-44.5598
-35.3423
-39.9766
-39.8062
-39.2363
-33.258
-44.4779
-39.2831
-40.2832
-40.9341
-26.6564
-26.7216
-14.0916
4.38307
-48.9956
-55.3586
-57.3066
-8.45497
-33.382
-32.8811
-33.0809
-27.167
-38.9139
-43.6374
-42.476
-38.3578
38.0181
-5.17931
-87.4806
118.861
-62.7821
-47.1482
-58.6947
-53.5501
-38.8075
-36.121
-42.4946
-33.8173
-42.8445
-39.9289
-44.2867
-40.3297
-50.3925
-56.8967
-58.8498
-9.64988
-39.244
-42.8683
-42.6146
-38.7426
-33.2183
-32.0247
-33.7837
-33.2686
-40.3883
-45.1835
-43.7025
-41.2649
-38.4999
-38.5674
-41.2826
-36.999
-33.9434
-34.6519
-33.9547
-37.6783
-39.5903
-39.5384
-37.449
-41.8182
-53.5457
-49.479
-47.2542
-60.6684
-12.9063
-12.3577
19.2405
-65.1179
-57.9115
-57.8156
-62.3045
-53.798
-32.7352
-31.2502
-33.0881
-32.9267
-39.6529
-44.1805
-43.0298
-40.5112
-30.9107
-33.8636
-32.9133
-37.0801
-52.2924
-47.7271
-47.2374
-59.6746
-69.0606
-57.8038
-57.8926
-52.9477
-75.2517
-60.5115
-61.5175
-55.2217
-64.8013
-55.4704
-56.0201
-49.7188
2.50257
12.602
12.9368
28.0782
194.245
187.043
162.313
194.018
-35.8942
-39.229
-37.0791
-40.1902
-35.2148
-38.5261
-36.2749
-39.5129
-34.369
-35.279
-34.8979
-34.3076
-81.1647
-92.7357
-74.5239
-80.994
-43.7813
-42.3446
-43.3023
-43.3684
-44.9208
-44.9133
-45.1694
-43.3082
-41.5609
-41.613
-41.2347
-41.2927
-33.7015
-36.0413
-36.0857
-39.3589
-30.9723
-32.05
-28.1119
-29.1369
-123.123
117.803
-96.3756
124.968
-85.9651
-75.1407
-44.8817
-36.6802
-40.3608
-37.0499
-44.0913
-44.8512
-82.1813
70.1215
-20.498
55.9621
-64.5936
-24.451
-41.0158
-34.8743
-33.1932
-31.9686
-39.3834
-34.5684
-96.4127
123.376
-115.083
114.816
-90.4914
-75.442
-39.7306
-36.1454
-42.5793
-35.8497
-44.3748
-41.2392
-20.4031
55.4999
-70.3461
70.9302
-64.3836
-25.0318
-32.6936
-29.9136
-40.4054
-33.352
-39.2081
-34.3675
-46.5165
-42.9386
-35.881
-34.9617
-43.0227
-38.0988
-40.5641
-36.3865
-40.1873
-39.2155
-32.0075
-34.6595
-32.3193
-37.7932
-37.0928
-42.1223
-56.5211
8.41282
-49.3191
-48.1928
-51.8079
-75.5288
9.69955
-64.043
-42.4968
-49.1254
-38.9591
-40.5223
-43.8576
-52.8555
-57.6711
-54.0517
-47.7853
-43.2744
-40.702
-36.3693
-35.4116
-34.7814
-43.6554
-37.2596
-40.2668
-39.0117
-36.9489
-42.0534
-31.515
-34.3055
-30.5263
-40.6069
-56.7164
7.60641
9.27021
-65.6678
-48.6346
-46.9928
-50.3677
-73.7925
-42.6127
-49.5289
-56.6863
-53.9494
-37.9869
-39.7664
-42.7743
-51.7879
-86.884
-86.9858
164.053
153.538
-77.0586
-77.3102
182.231
182.676
-69.8102
-50.8395
-63.3883
-48.4325
-43.854
-43.6235
-35.4145
-33.7205
-42.4383
-43.5557
-33.8104
-32.9673
-41.9476
-47.3873
-41.1724
-42.2204
-7.66556
-7.67951
140.83
141.687
-55.6564
-68.9005
-4.95293
19.0288
-33.3812
-33.2664
-27.7742
-29.6888
-42.4359
-43.4037
-40.59
-34.8229
-93.2134
-90.5238
154.553
166.618
-72.9558
-53.7923
-63.6886
-48.6913
-42.7237
-43.5297
-34.1179
-31.7018
-42.4815
-47.0881
-40.8702
-40.8844
-74.152
-57.6775
18.7341
-5.26222
-43.9199
-42.1415
-34.7496
-40.7622
-35.799
-34.064
-34.793
-34.3537
-48.8846
-50.0667
-37.9059
-42.88
-44.7342
-44.605
-35.9078
-35.8846
-33.8584
-37.299
-40.9145
-41.1864
-35.7353
-35.8016
-40.3869
-40.217
-42.0925
-45.1146
-84.8677
-67.0635
32.3627
31.9743
-96.6048
-96.3227
-66.0473
-65.8035
-47.0379
-47.235
-35.1067
-33.1153
-34.6245
-34.1817
-50.7643
-50.0286
-37.2065
-41.9638
-36.592
-32.9617
-41.3324
-40.7864
-43.9072
-41.0212
-66.4094
-84.1176
-127
-69.2506
-69.7635
-115.917
-46.0787
-42.6605
-51.9533
-49.6422
-56.6712
-57.2739
-53.5529
-45.7429
-70.1796
-92.5112
-68.3425
-64.546
-116.39
-104.021
-73.5813
-71.7483
-62.11
-65.5769
-75.0689
-79.7451
-55.8016
-45.059
-55.9946
-58.6753
-44.7133
-52.1002
-55.1096
-43.113
-98.4685
-97.0559
-64.4965
-61.7718
-98.3426
-62.2493
-64.7191
-97.5091
-40.0499
-41.1602
-49.5378
-47.5028
-39.881
-47.0793
-49.3658
-41.0644
-26.8095
-18.025
0.961034
-14.9832
-77.1519
16.9898
26.556
3.84703
-73.5968
2.35604
25.7885
16.993
-26.4159
-14.9996
0.887288
-18.6814
106.013
108.896
184.824
174.749
33.8578
61.1776
168.268
103.964
35.4007
106.283
168.053
57.4463
112.431
183.801
184.055
107.766
-37.1145
-34.5494
-36.9086
-39.0538
-32.2195
-32.5532
-34.8754
-32.8633
-42.4084
-45.6353
-38.7162
-35.4989
-53.8699
-44.0937
-41.619
-49.5872
-36.5026
-38.2472
-36.1603
-33.8841
-52.4789
-47.9637
-40.752
-43.1184
-41.393
-34.4467
-38.0354
-44.5244
-30.5066
-31.8618
-34.0394
-31.0136
-35.808
-36.8519
-35.1781
-34.2201
-35.691
-33.8947
-35.1246
-36.8439
-36.1507
-37.339
-34.7054
-33.3043
-36.463
-33.6364
-34.7682
-37.3965
-89.7688
-66.4911
-91.64
-61.5521
-50.4093
-61.5148
-72.8379
-57.0821
-49.4311
-56.162
-72.603
-61.3583
-86.8777
-60.4778
-91.6247
-65.2797
-39.9785
-41.1291
-43.329
-36.5754
-44.8603
-44.7742
-46.0652
-47.9246
-39.0521
-40.6873
-43.4204
-44.2747
-42.1159
-37.9943
-43.0767
-43.1766
-41.1662
-37.3946
-42.7182
-42.7136
-41.9187
-43.1793
-43.9458
-36.8347
-38.3105
-42.4138
-44.1923
-40.7601
-42.4181
-46.8546
-46.0805
-42.5825
-43.1838
-41.9199
-41.3547
-40.2912
-43.342
-40.1689
-41.1481
-41.8508
-41.0644
-39.0156
-41.2699
-41.0239
-41.8595
-42.5639
-41.9158
-39.3071
-47.6207
-42.9116
-39.5944
-53.9111
-33.5337
-33.154
-34.0194
-35.9726
-32.9517
-36.0751
-33.9419
-32.8598
-46.8076
-53.96
-39.658
-44.101
-37.6812
-34.8949
-33.5388
-36.3182
-37.2648
-35.5199
-32.3515
-34.0984
-32.6287
-27.1109
-28.7756
-34.1146
-34.3362
-35.4612
-30.5843
-29.2389
-30.7002
-146.102
-147.348
-45.2268
-43.5047
-44.0476
-23.894
-25.6773
-54.63
-37.0145
-33.1922
-34.0526
-137.362
-7.9449
-154.822
-43.1505
-43.4503
-42.3624
-24.6293
-20.6971
-51.3184
-32.9203
-36.747
-34.4866
-38.5341
-35.8501
-37.556
-37.1476
-41.7279
-36.8239
-34.2932
-39.1952
-64.507
-59.1156
-61.2218
-76.8997
-44.0649
-43.4194
-44.6688
-46.1599
-38.7059
-37.1605
-35.75
-37.6349
-44.0889
-39.0311
-35.4091
-28.4993
-63.0693
-74.2293
-57.5295
-59.9823
-43.4053
-45.4303
-42.8822
-43.829
9.02177
-11.8161
-82.6727
88.5368
-132.664
-132.892
-111.627
46.2968
-56.2832
-48.8117
-55.1782
-52.3885
-38.3829
-37.3337
-44.144
-35.8051
-39.584
-39.4306
-39.6188
-35.196
-40.2817
-37.7746
-39.2822
-39.6295
-24.1561
-24.1141
-19.2616
-20.8528
-48.5329
-50.312
-55.0318
-24.4231
-33.4149
-33.209
-33.5751
-28.7276
-40.8549
-42.8387
-42.1598
-41.2596
30.6447
-0.581808
-75.6414
88.7903
-57.5318
-49.8449
-57.3239
-53.0792
-37.0986
-35.9524
-41.9696
-34.3658
-39.9
-38.9246
-43.6956
-39.5312
-51.196
-52.6891
-56.2491
-26.4833
-40.9307
-43.1942
-42.5061
-41.5422
-32.3272
-32.2958
-33.1007
-32.9102
-41.2903
-44.0596
-42.943
-42.0245
-38.634
-38.66
-39.8713
-37.7438
-33.5154
-33.625
-33.3508
-35.4483
-39.5841
-39.5526
-38.3807
-41.149
-52.4734
-49.2941
-49.3326
-55.2516
-11.399
-11.1022
6.12217
-28.2399
-58.2974
-58.2806
-60.1631
-56.5228
-31.4718
-31.266
-32.2663
-32.4265
-40.2831
-42.9388
-42.0567
-40.9704
-31.8996
-32.5553
-32.2806
-33.0652
-51.3297
-48.7894
-49.2721
-54.5101
-62.4901
-57.8526
-57.9502
-54.6837
-66.6006
-60.7667
-61.3877
-58.3231
-60.2814
-56.0329
-56.2684
-53.1047
8.73295
14.4148
14.6798
21.2816
197.147
182.747
201.642
197.18
-36.8476
-38.6507
-37.8111
-39.3029
-36.0639
-38.0443
-36.9316
-38.6154
-34.4783
-34.5686
-34.635
-34.449
-82.5608
-87.1183
-79.0336
-82.4494
-43.9428
-42.5852
-43.3341
-43.1116
-44.8651
-45.3057
-45.2405
-43.87
-41.4264
-41.5522
-41.3576
-41.3494
-34.8087
-35.8764
-35.893
-37.5462
-29.5182
-29.1066
-28.5526
-28.3844
31.2255
15.4633
-122.684
99.2102
-133.959
-135.127
-111.978
29.9839
-88.6493
-67.9866
-81.7427
-75.1716
-42.4178
-41.2738
-45.9273
-37.4627
-41.5619
-40.1386
-40.1028
-38.1826
-45.6421
-43.7695
-44.3484
-45.0031
-8.86648
-9.69153
-68.1668
47.4205
-24.3747
-25.9769
-21.9931
-30.2085
-52.686
-48.0153
-55.3713
-34.4139
-37.009
-37.3127
-42.2988
-35.4702
-33.0976
-33.2566
-33.143
-32.2167
-35.5183
-37.2487
-38.0045
-35.0019
-133.671
-136.662
-112.208
31.2993
41.8158
35.2865
-93.6981
94.6347
-88.8596
-69.1878
-86.863
-75.7917
-42.645
-40.264
-41.2352
-37.3951
-40.9167
-39.5665
-43.3343
-36.547
-42.872
-42.5697
-44.9258
-43.7661
-24.0435
-26.0077
-22.3773
-29.9706
-3.72354
-4.43859
-58.5318
50.1057
-51.5572
-48.408
-55.4217
-34.6159
-31.906
-32.4839
-32.5852
-30.3862
-35.392
-36.1315
-41.1524
-34.0137
-35.7902
-37.5184
-38.1346
-34.9515
-40.5454
-43.8513
-43.918
-42.4411
-34.5242
-34.0041
-35.1897
-34.6616
-38.7875
-39.8267
-40.1199
-38.6812
-37.832
-38.2953
-39.3205
-37.0788
-42.4994
-38.0249
-39.946
-38.274
-33.4471
-32.1779
-31.6378
-34.1338
-34.4772
-34.4228
-32.3883
-35.6221
-39.4266
-39.6219
-38.1853
-41.3707
-68.6496
-63.5355
-60.8927
-31.8634
-52.4259
-46.9023
-49.4404
-48.8856
-58.0408
-54.9288
-54.3005
-64.1245
-36.9171
-15.4991
-1.69035
-38.4189
-43.297
-41.8787
-43.0523
-45.9547
-40.8047
-36.8912
-38.8953
-40.0097
-45.5859
-48.149
-45.9187
-49.4674
-53.4091
-56.9415
-56.3822
-55.6557
-41.3709
-44.6213
-44.8641
-42.9098
-37.8616
-38.3541
-39.4214
-37.0949
-34.2513
-33.8197
-34.9176
-34.4132
-38.4653
-39.1543
-39.9105
-37.9902
-42.4325
-38.409
-39.1215
-38.5322
-39.3168
-39.5417
-38.0667
-41.3092
-32.3695
-31.548
-30.7465
-33.6405
-29.3478
-30.0393
-29.8023
-33.534
-68.0702
-63.4122
-60.4641
-32.4887
-40.5536
-15.521
-2.87943
-37.3237
-51.1772
-45.8764
-48.4511
-47.7014
-56.9082
-53.8244
-52.7013
-62.994
-43.5139
-42.2281
-42.7961
-45.3793
-51.7024
-56.8759
-55.9277
-55.5487
-39.902
-35.7063
-37.7998
-38.2458
-45.0765
-46.8759
-44.8076
-48.7303
-99.3353
-77.7274
-86.2666
-87.1064
143.713
188.369
163.662
169.544
-86.19
-70.4286
-77.2264
-77.3327
178.78
186.804
181.536
181.202
-56.865
-57.6129
-62.4773
-53.5649
-53.8293
-54.9994
-58.6012
-51.2621
-44.4203
-44.172
-44.18
-44.2558
-34.7539
-32.4768
-34.3338
-33.9211
-40.9644
-41.7836
-42.4041
-42.8206
-32.6268
-33.4682
-33.1555
-32.519
-41.0042
-41.5973
-41.6096
-41.0725
-41.4997
-41.6654
-41.352
-41.8081
-10.2402
-2.76663
-6.77041
-6.79492
129.451
152.396
146.461
150.402
-58.7395
-57.8638
-57.1488
-62.3839
-0.0280269
9.72389
0.39438
12.9286
-33.0748
-33.2635
-33.2358
-33.1606
-26.6021
-27.6562
-26.8713
-27.9786
-42.7011
-43.1599
-42.6903
-43.3806
-37.3586
-36.3083
-38.1897
-35.6205
-94.3715
-82.8707
-92.9841
-91.8389
144.056
188.696
170.798
163.98
-59.3792
-60.7154
-66.2063
-56.2246
-54.1986
-55.2517
-58.6412
-51.5901
-42.5406
-44.6008
-42.9296
-43.3664
-32.9645
-30.4691
-32.7893
-32.0564
-43.5374
-44.5297
-42.9566
-43.5787
-40.746
-41.1123
-40.8942
-40.8394
-61.2766
-61.4262
-66.1769
-60.2543
-0.889893
9.83475
12.3601
-0.0172956
-43.1718
-44.7663
-44.1916
-42.9955
-37.4665
-36.3896
-35.6625
-38.2947
-34.2648
-35.2963
-35.4688
-34.5737
-33.6389
-34.1947
-34.05
-34.0658
-45.6525
-50.4886
-48.9659
-49.3423
-41.0078
-39.9732
-38.8381
-41.7975
-42.9625
-47.2646
-44.8736
-44.8085
-36.4278
-35.9585
-36.0056
-35.9914
-34.9713
-36.4251
-34.6759
-36.3926
-39.3474
-42.5771
-41.3395
-40.8229
-36.6215
-35.4039
-35.8534
-35.8863
-40.9112
-41.0471
-40.4207
-40.3527
-45.5011
-41.5967
-42.8669
-44.3181
-68.4577
-78.7331
-79.2146
-70.0782
28.6387
33.0602
33.6481
33.4513
-87.5902
-97.2259
-98.6553
-98.5603
-64.6207
-70.6828
-67.0435
-66.9938
-50.6781
-42.757
-46.8686
-46.9365
-33.6157
-34.6073
-34.6122
-33.6939
-33.3908
-34.0883
-33.8638
-33.8958
-46.2459
-52.5218
-50.6317
-50.4752
-40.0816
-39.0197
-37.9977
-40.9068
-34.1056
-35.7087
-35.7839
-33.7989
-40.5145
-43.0858
-41.9068
-41.0231
-44.751
-40.7742
-43.1234
-41.8356
-67.1191
-78.491
-69.0274
-78.2995
-99.7421
-88.2343
-87.3377
-79.2819
-47.1349
-47.6815
-48.9722
-48.9247
-53.5405
-49.4893
-55.5555
-50.9513
-87.3836
-78.8548
-85.8689
-75.9274
-102.425
-93.5539
-94.0947
-83.1111
-82.7007
-78.0638
-88.2109
-81.4502
-53.9829
-49.197
-56.8607
-50.9986
-48.7174
-48.4462
-51.5173
-49.5535
-84.9197
-75.2999
-76.6304
-69.0276
-85.0314
-75.5081
-76.9158
-69.2893
-43.6788
-42.2835
-46.2303
-44.4685
-43.4223
-42.1088
-45.9941
-44.295
-15.9202
-16.791
-9.36745
-9.27816
20.1627
20.7214
25.6582
30.2236
19.9343
20.7124
24.0619
29.668
-16.1051
-17.0312
-9.40936
-9.46356
136.271
172.934
168.105
184.158
87.9306
86.5936
135.673
135.406
87.4472
88.6757
134.801
141.564
178.313
138.611
181.296
173.172
-36.1398
-37.4954
-36.4496
-37.3713
-32.6863
-33.0159
-33.3507
-33.4135
-39.6175
-42.1365
-38.6445
-41.0928
-47.4307
-49.3293
-44.5122
-45.8632
-35.5641
-36.7297
-35.621
-36.613
-46.2301
-48.0205
-43.4288
-44.6944
-38.6742
-41.2257
-37.7754
-40.2385
-31.9215
-31.5823
-32.6505
-32.4374
-35.2486
-35.8687
-35.4496
-35.7363
-35.8186
-35.1209
-35.6867
-35.3322
-36.0108
-34.8324
-35.5272
-34.6374
-35.0852
-36.1724
-34.814
-35.6414
-91.7507
-87.5077
-91.3563
-94.4213
-57.2278
-59.373
-64.2626
-64.1524
-58.5731
-56.1304
-63.7856
-63.5633
-86.9288
-90.3473
-93.8307
-90.6634
-40.8111
-40.4979
-41.5714
-40.6381
-44.6952
-43.8652
-43.6268
-46.6798
-41.5239
-40.5208
-42.4075
-41.5651
-42.3508
-41.1267
-42.9103
-41.2202
-41.1112
-42.561
-41.8722
-40.8776
-42.8765
-40.9949
-43.3631
-41.0302
-40.938
-40.2292
-42.2122
-41.5867
-42.7454
-43.6932
-43.6212
-46.391
-39.8285
-40.8496
-40.8635
-40.2985
-39.7219
-40.7643
-40.6686
-40.1732
-40.3087
-40.0448
-42.3302
-40.9632
-42.983
-44.9137
-43.9944
-42.8643
-49.0988
-51.1642
-43.5047
-47.2343
-33.5213
-34.0573
-33.5946
-34.2097
-33.1749
-33.8803
-33.4763
-34.0651
-49.6608
-51.3861
-43.9179
-47.4472
-36.462
-36.2598
-35.9769
-35.0501
-35.3336
-35.6383
-34.061
-35.0557
-30.296
-32.2426
-29.0107
-31.2928
-34.0705
-32.4951
-33.3175
-31.3519
-97.4292
106.465
-120.073
27.286
-124.101
-101.282
-45.6384
-38.7613
-41.7649
-39.506
-44.746
-42.6776
-61.7025
29.7761
-30.0886
-0.919386
-62.0357
-37.2365
-40
-35.3936
-33.1657
-33.8898
-37.6365
-33.8792
-119.333
27.3858
-83.042
102.069
-118.53
-100.954
-42.637
-40.6816
-43.5607
-37.4219
-42.2353
-40.7234
-29.4765
1.31645
-55.9217
28.2753
-60.8371
-37.5217
-32.3228
-32.2041
-39.1469
-33.5474
-37.2746
-33.3794
-41.2991
-39.6596
-36.3316
-35.5018
-39.5218
-37.6637
-38.4807
-36.4805
-44.7945
-44.7972
-31.7661
-35.9065
-32.7868
-37.0629
-37.7207
-41.7404
-61.6334
-88.3941
-56.2512
-54.7811
-56.8373
-70.4032
-88.7138
-108.129
-43.1525
-44.9241
-41.9579
-41.9348
-43.9198
-47.4658
-49.5519
-48.2172
-41.9035
-39.9062
-38.5738
-36.4839
-35.929
-35.3634
-39.6421
-37.2677
-49.9077
-45.2454
-37.4098
-41.8108
-30.0639
-35.4485
-29.7855
-35.8319
-60.4699
-86.4542
-87.6079
-107.831
-55.2629
-53.4922
-55.0771
-68.4338
-43.1713
-44.4284
-48.7054
-47.5587
-41.0056
-40.9487
-43.6469
-46.7249
-89.6027
91.0521
-77.4847
60.031
-111.625
-99.2946
105.34
119.598
-111.925
50.414
-112.699
70.6853
-97.0281
-97.0955
161.253
160.477
-69.0075
-61.2933
-48.7796
-46.4864
-61.7043
-52.5526
-56.9625
-49.7832
-44.6364
-36.7394
-44.8729
-35.8965
-44.4273
-44.685
-35.589
-35.568
-38.7623
-36.4599
-39.9228
-35.8562
-39.0937
-39.3128
-33.9311
-33.3718
-45.1418
-43.2506
-40.786
-39.7014
-40.6986
-39.9856
-40.5556
-41.9356
-23.2675
-20.5117
-23.1788
-20.494
-14.2524
-14.2604
29.8371
27.9106
-57.4048
-28.8483
-59.4551
-21.827
-56.6823
-60.6303
-13.6269
-3.80632
-33.4823
-30.0153
-33.2072
-28.5431
-33.1403
-32.9823
-26.7618
-28.083
-40.0592
-37.1461
-43.2891
-45.2256
-41.6158
-43.0901
-40.323
-36.9297
-93.0524
80.3059
-65.7416
63.2528
-96.5526
-80.6068
121.212
102.983
-70.9769
-62.0076
-50.6442
-47.0883
-64.3891
-54.693
-57.463
-50.2566
-42.6955
-35.8473
-41.6669
-34.6376
-42.5978
-42.5105
-34.5494
-34.0928
-45.1266
-41.6269
-41.8349
-39.7121
-43.1583
-42.1436
-40.2663
-40.806
-58.769
-29.7552
-59.7486
-23.9649
-62.8455
-59.1512
-4.85932
-14.5993
-40.0571
-37.7609
-43.158
-44.4624
-43.1876
-41.6409
-37.0848
-41.0769
-33.7075
-33.9215
-31.8848
-33.1584
-34.1316
-33.4107
-33.3964
-33.3709
-41.2442
-39.7667
-45.4048
-44.6651
-43.0549
-44.7685
-40.0477
-42.9032
-39.6699
-37.5372
-39.7429
-37.5987
-41.2746
-41.2331
-36.9614
-36.9651
-32.6085
-34.4633
-34.8415
-35.7641
-33.0686
-34.5525
-37.6134
-37.8925
-38.386
-41.2447
-38.3289
-41.1819
-37.4335
-37.4635
-41.7177
-41.699
-52.0088
-59.2229
-47.6712
-53.3186
-46.4217
-48.3084
-63.3187
-58.2659
5.43345
-29.6593
5.25615
-28.841
18.678
18.8268
-64.5244
-64.0997
-59.5313
-56.2805
-59.4107
-56.3267
-62.1688
-62.0841
-53.756
-53.7905
-33.0642
-33.4751
-31.0085
-32.7573
-33.441
-32.5273
-33.0404
-33.0337
-40.68
-38.8907
-44.5202
-43.6647
-44.0174
-42.7166
-39.0232
-41.982
-30.394
-32.1331
-33.7697
-34.4384
-33.7428
-31.7173
-37.7434
-36.5165
-50.1724
-58.2314
-46.4192
-52.2064
-47.1021
-46.1449
-57.3591
-62.1587
-69.4243
-68.7081
-62.5747
-54.2347
-55.2799
-62.2396
-52.4269
-53.3032
-74.3353
-75.3314
-66.6508
-57.0611
-66.6509
-59.3561
-55.5285
-55.3213
-64.7622
-64.8377
-59.5204
-52.3035
-60.0085
-52.4886
-49.7074
-49.6341
2.16729
2.15732
6.71039
19.4898
18.9676
6.52857
27.8824
27.402
183.017
192.761
185.761
186.546
168.718