# vtk DataFile Version 2.0
tet_velo
ASCII
DATASET UNSTRUCTURED_GRID
POINTS 29498 float
-0.853769 0.155 -1.905
-0.624464 0.355 2.315
-0.625 0.741347 -2.125
-0.651943 0.935 2.225
0.853768 0.155 -1.905
0.624392 0.355 2.315
0.625 0.741305 -2.125
0.651862 0.935 2.225
-0.820537 0.178464 -0.498333
-0.812224 0.177009 0.908334
-0.774262 0.946179 -0.675
-0.764941 0.992428 0.775
0.820525 0.178451 -0.498333
0.812617 0.176567 0.908334
0.771383 0.943299 -0.675
0.765066 0.992593 0.775
-1.65679 -0.274395 -2.96231
-1.64143 -0.203299 -1.81962
-1.61552 -0.182026 -0.41407
-1.57159 -0.171453 0.982756
-1.45168 -0.0534829 2.38757
-1.41366 0.0164927 3.52666
-1.41687 0.0600375 4.67241
-1.64017 0.062717 -3.05673
-1.62341 0.153688 -1.9093
-1.60969 0.195963 -0.495326
-1.55948 0.191192 0.914752
-1.39521 0.292091 2.3279
-1.37315 0.359025 3.4676
-1.39281 0.404187 4.61194
-1.54297 0.712138 -3.25773
-1.47301 0.802595 -2.1121
-1.55142 0.94899 -0.668582
-1.52302 0.970332 0.778008
-1.39733 0.948989 2.2207
-1.3713 1.01418 3.35861
-1.38494 1.07914 4.49596
-1.48423 1.79438 -3.52666
-1.45797 1.89362 -2.37454
-1.48344 2.02736 -0.916969
-1.50112 2.08956 0.54994
-1.47517 2.0917 2.00706
-1.44687 2.10923 3.15823
-1.42865 2.15098 4.30031
-0.875644 -0.274874 -2.95951
-0.846624 -0.201373 -1.81554
-0.820333 -0.191367 -0.414617
-0.814121 -0.179567 0.977278
-0.728165 -0.0191067 2.37799
-0.694922 0.0403646 3.52016
-0.69492 0.0721287 4.66865
-0.879652 0.0557319 -3.05587
-0.65466 0.382544 3.46224
-0.673753 0.414728 4.6091
-0.799195 0.685031 -3.26309
-0.655271 1.01402 3.35947
-0.666451 1.08031 4.49614
-0.725244 1.77866 -3.53196
-0.691875 1.88028 -2.38037
-0.717611 2.02747 -0.920488
-0.750761 2.09447 0.550362
-0.74295 2.0894 2.01007
-0.718971 2.10436 3.16124
-0.699276 2.14709 4.3025
0.735096 -0.275233 -2.95951
0.819344 -0.201566 -1.81554
0.813056 -0.191547 -0.414617
0.768669 -0.179911 0.977278
0.649032 -0.0192481 2.37799
0.687209 0.0402218 3.52016
0.72362 0.0719365 4.66865
0.703563 0.0554235 -3.05587
0.691905 0.382449 3.46224
0.73027 0.414559 4.6091
0.647252 0.684619 -3.26309
0.703681 1.01393 3.35947
0.739581 1.08014 4.49614
0.766282 1.7778 -3.53196
0.79925 1.87926 -2.38038
0.800582 2.02639 -0.920488
0.758802 2.09388 0.550362
0.725263 2.08911 2.01007
0.732676 2.1041 3.16124
0.75401 2.14683 4.3025
1.53737 -0.275329 -2.9623
1.61474 -0.204169 -1.81962
1.61281 -0.1828 -0.41407
1.55038 -0.172077 0.982756
1.41786 -0.0538807 2.38757
1.41475 0.0161316 3.52666
1.44743 0.0596126 4.67241
1.51032 0.0617666 -3.05673
1.61097 0.152622 -1.9093
1.61468 0.194896 -0.495326
1.56618 0.190631 0.914752
1.40715 0.291786 2.3279
1.4087 0.358734 3.4676
1.44796 0.403801 4.61194
1.44059 0.710938 -3.25773
1.4759 0.800947 -2.1121
1.56389 0.946168 -0.668582
1.53504 0.969847 0.778007
1.41672 0.948771 2.2207
1.42005 1.01391 3.35861
1.45728 1.07876 4.49596
1.52086 1.79267 -3.52666
1.54979 1.89166 -2.37454
1.56062 2.02539 -0.916969
1.52245 2.08839 0.54994
1.47718 2.09105 2.00706
1.47297 2.10868 3.15823
1.48962 2.15041 4.30031
-0.771378 0.448174 -2.04699
-5.06639e-07 0.158306 -1.90169
-0.822916 0.180969 -1.20167
-0.651426 0.645 2.28322
-3.60012e-05 0.288593 2.38141
-0.780223 0.204126 1.61167
0 0.812042 -2.19572
-0.741204 0.885336 -1.4
-4.05014e-05 1.00726 2.29726
-0.728914 0.984186 1.5
0.769844 0.448152 -2.04546
0.823232 0.18064 -1.20167
0.651376 0.645 2.28325
0.779902 0.204386 1.61167
0.741229 0.88534 -1.4
0.728978 0.984311 1.5
-0.818093 0.176024 0.205
-0.892479 0.562321 -0.586667
-6.18604e-06 0.19294 -0.498333
-0.886329 0.584719 0.841667
0.000196448 0.195629 0.908334
-0.784392 0.984094 0.05
-0.00143938 1.27345 -0.675
6.20923e-05 1.40023 0.775
0.818074 0.176006 0.205
0.889 0.560875 -0.586667
0.886399 0.58458 0.841667
0.782049 0.981771 0.05
-0.875372 0.505247 -1.30083
-0.897317 0.57352 0.1275
-0.871924 0.614859 1.55583
-3.34634e-06 0.181127 -1.20167
9.5131e-05 0.194307 0.205
8.02234e-05 0.210389 1.61167
-2.5332e-07 0.448163 -2.46512
-3.82513e-05 0.645 2.42118
-0.000719691 0.955616 -1.4
-0.000688644 1.41631 0.05
1.07955e-05 1.23758 1.5
0.875375 0.504514 -1.30083
0.89746 0.572728 0.1275
0.871928 0.61479 1.55583
-1.23859 0.154344 -1.90715
-0.850197 -0.0231865 -1.86027
-0.86671 0.105366 -2.48043
-1.00984 0.323545 2.32145
-0.676315 0.167947 2.3465
-0.639562 0.368772 2.88862
-1.04901 0.771971 -2.11855
-0.712098 0.713189 -2.69404
-0.658438 1.31081 -2.25269
-1.02464 0.941994 2.22285
-0.653607 0.97451 2.79223
-0.697446 1.5122 2.11754
0.836556 -0.023283 -1.86027
0.778665 0.105212 -2.48043
1.23237 0.153811 -1.90715
0.636712 0.167876 2.3465
0.658148 0.368724 2.88862
1.01577 0.323393 2.32145
0.636126 0.712962 -2.69405
0.712125 1.31028 -2.25269
1.05045 0.771126 -2.11855
0.677772 0.974467 2.79223
0.688562 1.51206 2.11754
1.03429 0.941885 2.22285
-1.21511 0.187213 -0.49683
-0.820435 -0.00645159 -0.456475
-1.18585 0.1841 0.911543
-0.813173 -0.00127912 0.942806
-1.16284 0.947584 -0.671791
-0.745936 1.48682 -0.797744
-1.14398 0.98138 0.776504
-0.757851 1.54345 0.662681
0.81679 -0.00654771 -0.456475
1.2176 0.186674 -0.49683
0.790643 -0.00167173 0.942806
1.1894 0.183599 0.911543
0.785983 1.48484 -0.797744
1.16764 0.944734 -0.671791
0.761934 1.54324 0.662681
1.15005 0.98122 0.776504
-1.64911 -0.238847 -2.39096
-1.64848 -0.105839 -3.00952
-1.26622 -0.274635 -2.96091
-1.62847 -0.192663 -1.11684
-1.63242 -0.0248059 -1.86446
-1.24403 -0.202336 -1.81758
-1.59355 -0.17674 0.284343
-1.6126 0.00696838 -0.454698
-1.21793 -0.186696 -0.414343
-1.51164 -0.112468 1.68516
-1.56554 0.00986944 0.948754
-1.19286 -0.17551 0.980017
-1.43267 -0.0184951 2.95711
-1.42345 0.119304 2.35773
-1.08992 -0.0362948 2.38278
-1.41526 0.0382651 4.09953
-1.3934 0.187759 3.49713
-1.05429 0.0284287 3.52341
-1.40484 0.232112 4.64217
-1.05589 0.0660831 4.67053
-1.63179 0.108202 -2.48302
-1.59157 0.387427 -3.15723
-1.25991 0.0592245 -3.0563
-1.61655 0.174825 -1.20231
-1.54821 0.478141 -2.0107
-1.58459 0.193577 0.209713
-1.58056 0.572476 -0.581954
-1.47735 0.241641 1.62133
-1.54125 0.580762 0.84638
-1.38418 0.325558 2.89775
-1.39627 0.62054 2.2743
-1.38298 0.381606 4.03977
-1.37223 0.6866 3.4131
-1.01391 0.370785 3.46492
-1.38887 0.741663 4.55395
-1.03328 0.409458 4.61052
-1.50799 0.757366 -2.68492
-1.5136 1.25326 -3.3922
-1.17108 0.698584 -3.26041
-1.51222 0.875792 -1.39034
-1.46549 1.34811 -2.24332
-1.53722 0.959661 0.0547129
-1.51743 1.48818 -0.792775
-1.46018 0.95966 1.49935
-1.51207 1.52995 0.663974
-1.38432 0.981582 2.78965
-1.43625 1.52035 2.11388
-1.37812 1.04666 3.92728
-1.40909 1.5617 3.25842
-1.01329 1.0141 3.35904
-1.40679 1.61506 4.39813
-1.02569 1.07972 4.49605
-1.4711 1.844 -2.9506
-1.10474 1.78652 -3.52931
-1.4707 1.96049 -1.64575
-1.07492 1.88695 -2.37746
-1.49228 2.05846 -0.183514
-1.10052 2.02741 -0.918728
-1.48815 2.09063 1.2785
-1.12594 2.09202 0.550151
-1.46102 2.10047 2.58264
-1.10906 2.09055 2.00856
-1.43776 2.13011 3.72927
-1.08292 2.1068 3.15974
-1.06396 2.14904 4.30141
-0.861134 -0.238124 -2.38752
-0.877648 -0.109571 -3.00769
-0.0702743 -0.275054 -2.95951
-0.833479 -0.19637 -1.11508
-0.0136399 -0.201469 -1.81554
-0.817227 -0.185467 0.28133
-0.0036388 -0.191457 -0.414617
-0.771143 -0.0993367 1.67763
-0.0227264 -0.179739 0.977278
-0.711543 0.010629 2.94908
-0.0395664 -0.0191774 2.37799
-0.694921 0.0562466 4.0944
-0.674791 0.211454 3.4912
-0.00385654 0.0402932 3.52016
-0.684336 0.243429 4.63887
0.0143498 0.0720326 4.66865
-0.839424 0.370381 -3.15948
-0.0880443 0.0555777 -3.05587
-0.664206 0.398636 4.03567
-0.654965 0.698282 3.41086
0.0186224 0.382496 3.46224
-0.670102 0.747519 4.55262
0.0282584 0.414644 4.6091
-0.76222 1.23184 -3.39752
-0.0759717 0.684825 -3.26309
-0.660861 1.04716 3.9278
-0.687121 1.55919 3.26035
0.024205 1.01398 3.35947
-0.682863 1.6137 4.39932
0.0365654 1.08023 4.49614
-0.70856 1.82947 -2.95617
0.0205189 1.77823 -3.53196
-0.704743 1.95387 -1.65043
0.0536873 1.87977 -2.38037
-0.734186 2.06097 -0.185063
0.0414855 2.02693 -0.920488
-0.746855 2.09194 1.28022
0.00402071 2.09418 0.550362
-0.73096 2.09688 2.58566
-0.00884338 2.08926 2.01007
-0.709123 2.12573 3.73187
0.0068529 2.10423 3.16124
0.0273673 2.14696 4.3025
0.77722 -0.238399 -2.38752
0.719329 -0.109905 -3.00769
1.13623 -0.275281 -2.96091
0.8162 -0.196556 -1.11508
1.21704 -0.202867 -1.81758
0.790862 -0.185729 0.28133
1.21294 -0.187173 -0.414343
0.70885 -0.0995795 1.67763
1.15952 -0.175994 0.980017
0.66812 0.0104868 2.94908
1.03345 -0.0365644 2.38278
0.705414 0.0560792 4.0944
0.689557 0.211335 3.4912
1.05098 0.0281767 3.52341
0.726945 0.243248 4.63887
1.08553 0.0657746 4.67053
0.675407 0.370021 -3.15948
1.10694 0.0585951 -3.0563
0.711087 0.398504 4.03567
0.697793 0.698191 3.41086
1.0503 0.370591 3.46492
0.734925 0.747351 4.55262
1.08911 0.40918 4.61052
0.706767 1.23121 -3.39752
1.04392 0.697779 -3.26041
0.721631 1.04704 3.9278
0.718179 1.55902 3.26035
1.06187 1.01392 3.35904
0.746796 1.61349 4.39932
1.09843 1.07945 4.49605
0.782766 1.82853 -2.95617
1.14357 1.78524 -3.52931
0.799916 1.95282 -1.65043
1.17452 1.88546 -2.37746
0.779692 2.06014 -0.185063
1.1806 2.02589 -0.918728
0.742032 2.0915 1.28022
1.14062 2.09114 0.550151
0.72897 2.09661 2.58566
1.10122 2.09008 2.00856
0.743343 2.12547 3.73187
1.10282 2.10639 3.15974
1.12182 2.14862 4.30141
1.57606 -0.239749 -2.39096
1.52385 -0.106781 -3.00952
1.61378 -0.193484 -1.11684
1.61285 -0.0257735 -1.86446
1.5816 -0.177439 0.284343
1.61375 0.00604787 -0.454698
1.48412 -0.112979 1.68516
1.55828 0.00927697 0.948754
1.41631 -0.0188746 2.95711
1.41251 0.118952 2.35773
1.43109 0.0378721 4.09953
1.41172 0.187433 3.49713
1.4477 0.231707 4.64217
1.56064 0.107194 -2.48302
1.47546 0.386353 -3.15723
1.61282 0.173759 -1.20231
1.54344 0.476784 -2.0107
1.59043 0.192764 0.209713
1.58928 0.570532 -0.581954
1.48667 0.241208 1.62133
1.55061 0.580239 0.84638
1.40792 0.32526 2.89775
1.41194 0.620278 2.2743
1.42833 0.381267 4.03977
1.41437 0.686319 3.4131
1.45262 0.741279 4.55395
1.45825 0.755943 -2.68492
1.48072 1.25181 -3.39219
1.5199 0.873557 -1.39034
1.51285 1.3463 -2.24332
1.54947 0.958007 0.0547128
1.56226 1.48578 -0.792775
[...]
POINT_DATA 29498
VECTORS point_vectors float
-3.09084 -4.98784 17.8262
0.043174 0.0518692 0.145076
-0.464753 0.795475 1.76158
0.00898076 -0.107544 0.241141
3.141 -5.10181 17.8504
-0.0404583 0.0506637 0.138537
0.465629 0.800086 1.77059
-0.0100206 -0.104118 0.237518
-0.043473 0.0109196 1.13963
-0.00637992 -0.0879523 1.42375
0 0 0
0 0 0
0.0393583 0.0108486 1.13329
0.0108188 -0.087394 1.45967
0 0 0
0 0 0
-0.680333 -0.363915 20.0361
-0.954638 -0.629076 20.8686
-0.282751 -0.313161 21.3899
0.137784 0.00998043 21.5308
0.65971 0.335951 21.3407
0.842494 0.494325 21.1313
0.77001 0.204803 20.5792
-0.790143 -0.265591 19.9009
-1.40651 -0.581446 20.7728
-0.463789 -0.411402 21.4474
0.123899 -0.0890538 21.5952
0.970988 0.223839 21.3777
1.14256 0.233802 21.0877
0.826991 0.158297 20.6781
-0.788662 0.0606966 19.6942
-2.05576 0.219296 20.3245
-1.15924 -0.224879 21.4924
-0.0932201 -0.227383 21.7099
0.866748 -0.380662 21.4388
0.987156 -0.470642 21.2354
0.851927 -0.383533 20.3474
-0.380257 0.274867 19.9174
-0.775797 0.62056 20.2104
-0.861683 0.5458 21.0545
-0.296301 0.0645101 21.4957
0.192525 -0.298723 21.4234
0.345707 -0.403561 21.1185
0.308222 -0.391636 20.7774
-0.865401 -1.04743 19.4828
-0.9344 -2.01086 21.7323
0.00552556 -0.302679 21.5163
0.0614576 0.184491 20.8496
0.0563064 1.30264 16.9261
0.446406 1.44989 17.0442
0.895171 0.796137 15.1672
-1.11597 -0.779713 18.9728
1.12738 1.65729 7.99756
1.55287 0.770639 9.76711
-0.953371 0.140161 18.7691
1.47852 -0.324692 9.3112
1.21577 -0.371759 15.0312
-0.289578 0.467845 19.655
-0.715341 1.30344 19.8995
-0.964746 1.55393 21.0421
-0.340422 0.297055 21.9323
0.149883 -0.516367 21.4782
0.252344 -0.680224 21.09
0.0789518 -0.502585 20.808
0.827741 -1.15967 19.3732
0.899602 -2.04825 21.7794
-0.00362277 -0.293129 21.4719
-0.0444777 0.185133 20.7174
0.151677 1.17443 16.1672
-0.439858 1.44606 16.9581
-0.874518 0.794757 15.5828
1.08378 -0.954627 18.6592
-1.16164 1.57727 8.98525
-1.49216 0.689171 11.1899
0.880337 0.152368 18.4507
-1.63038 -0.29441 10.994
-1.25854 -0.466584 16.0306
0.301794 0.460042 19.6659
0.757807 1.23484 19.9311
1.0095 1.41766 21.0637
0.339824 0.294557 21.93
-0.144805 -0.512761 21.4849
-0.266767 -0.678416 21.0949
-0.0953129 -0.483868 20.7304
0.734378 -0.406047 19.9853
0.969312 -0.658369 20.8758
0.284398 -0.321514 21.3804
-0.138554 0.00516482 21.517
-0.681011 0.367093 21.3464
-0.841335 0.485637 21.1191
-0.773833 0.174118 20.5388
0.868003 -0.311499 19.7759
1.42426 -0.598233 20.7842
0.459559 -0.410226 21.4356
-0.119246 -0.0954445 21.5917
-0.949703 0.208221 21.3827
-1.07128 0.227586 21.1459
-0.700241 0.114396 21.0068
0.82839 0.0759325 19.6007
2.05631 0.211825 20.3303
1.13898 -0.2193 21.48
0.0987768 -0.218463 21.7036
-0.840753 -0.361507 21.4321
-0.96446 -0.436092 21.1319
-0.744124 -0.316038 20.5882
0.377991 0.264321 19.9327
0.745483 0.546043 20.2467
0.806471 0.483007 21.0339
0.296778 0.069612 21.4962
-0.192658 -0.292452 21.4131
-0.354061 -0.375302 21.1506
-0.370743 -0.400601 20.7288
-0.00927224 0.000118065 0.0153336
5.78434e-05 -0.00663934 0.303564
-0.0137208 -0.0112904 0.968219
0 0 0
-0.000895145 0.0143597 0.0291137
-0.0427132 0.0476256 0.711809
-0.000273964 0.169374 0.434035
-0.428546 -0.136572 0.720585
-0.000601795 0.0172226 -0.0410327
4.74899e-18 3.07598e-18 2.51136e-17
0 0 0
0.018123 -0.0137217 0.961653
0 0 0
0.039982 0.0475824 0.679566
0.458456 -0.144746 0.760912
0 0 0
-0.0995189 0.0283534 1.21006
-0.00615975 0.019888 0.406369
-9.82307e-06 -0.000523357 0.0443138
0.0112072 0.0584014 0.31313
0 0 0
0.00212015 0.00614674 0.022663
-8.50406e-05 0.0653984 0.164432
-6.77835e-05 -0.00101579 0.0199263
0.0936628 0.0278474 1.21828
0.0082106 0.0231529 0.420585
-0.0108219 0.0589429 0.312193
0 0 0
0 0 0
1.83798e-05 0.0102746 0.0740376
0 0 0
1.45469e-08 8.10558e-08 7.15336e-06
-3.24395e-09 2.76858e-08 9.65981e-06
-3.91188e-07 -1.14245e-06 -0.000134855
0 0 0
0 0 0
-0.000219171 0.000545494 0.003677
7.63841e-05 0.000803478 0.0231852
-4.05986e-06 -0.000124749 0.000588195
0 0 0
0.00171808 0.014804 0.115306
0 0 0
-2.3772 -1.40191 21.1328
-1.48118 -3.08566 22.3262
-2.9072 -2.40281 18.7758
1.32743 1.10807 15.3767
-0.199266 1.17086 7.35411
0.113626 0.759067 3.94228
-4.23388 1.17593 19.859
-2.90862 1.03176 16.9961
-1.75856 2.58993 19.4218
1.38546 -0.087787 17.102
0.55296 0.0455023 4.83767
0.670636 -0.85699 18.7826
1.42995 -3.17394 22.4191
3.12338 -3.01342 18.3659
2.41132 -1.43431 21.1422
0.311062 0.999725 6.55742
-0.192921 0.823028 4.39683
-1.31872 1.08853 15.6312
2.92252 1.22817 16.5749
1.8111 2.40457 19.4856
4.2282 1.17597 19.8598
-0.647218 0.0705995 5.72888
-0.684246 -0.846738 18.6374
-1.36774 -0.105988 17.4454
-0.362792 -0.73665 21.6507
0.0268039 -0.0719614 17.243
0.207177 0.0239745 20.5916
-0.163603 0.296061 16.1739
-1.97427 -0.709396 21.7451
-2.91921 2.43542 21.2719
-0.0263008 -0.322685 20.5985
-0.505837 0.0402949 21.7374
-0.0142421 -0.0612347 17.1652
0.355287 -0.728236 21.6406
0.169573 0.273558 15.8518
-0.204128 0.00864824 20.6477
2.86455 2.16186 21.3219
1.93213 -0.712849 21.7453
0.502883 0.054124 21.758
0.0460572 -0.333609 20.7235
-0.957639 -0.55797 20.3579
-0.748553 -0.329231 19.9531
-0.841635 -0.634376 19.8257
-0.572882 -0.465641 21.2544
-1.18738 -0.625459 20.8259
-1.21582 -1.21147 21.1388
-0.0666662 -0.154101 21.4697
-0.377471 -0.379937 21.4115
-0.170636 -0.432057 21.5311
0.381111 0.174058 21.4701
0.119092 -0.0454465 21.5473
0.158771 0.0394829 21.5829
0.796402 0.396338 21.1048
0.84322 0.297106 21.3215
0.803168 0.863432 20.6235
0.758489 0.404235 20.9479
1.04736 0.314782 21.2124
0.934385 0.999646 20.5034
0.872526 0.190604 20.4304
0.737392 0.708721 21.1252
-1.20224 -0.450586 20.1539
-0.844446 -0.102229 19.7472
-1.02097 -0.463585 19.5532
-0.896059 -0.528022 21.3093
-1.85399 -0.283286 20.5993
-0.149683 -0.253927 21.5495
-0.784983 -0.426611 21.4969
0.512053 0.0632043 21.6434
0.0568353 -0.185567 21.6962
1.11004 0.236903 21.1947
1.0344 -0.10745 21.382
1.14013 0.122347 20.6461
1.13657 -0.151598 21.3198
1.50834 0.889785 17.202
0.826977 -0.182135 20.88
1.39465 0.312 19.0698
-1.44061 0.143859 19.7649
-0.571236 0.25598 19.7651
-0.938885 0.0911666 19.2886
-1.66668 -0.0701018 21.1588
-1.34636 0.669876 20.1561
-0.602474 -0.253838 21.7066
-1.24787 0.331211 21.2788
0.406981 -0.259439 21.7001
-0.285741 -0.0901561 21.6736
0.985882 -0.444243 21.2306
0.447685 -0.435221 21.4345
0.986973 -0.417214 21.2161
0.584986 -0.552267 21.0364
1.59772 -0.544078 19.2193
0.432878 -0.413734 20.8605
1.41489 -0.739919 19.3488
-0.578259 0.452399 19.9813
-0.378067 0.366928 19.7907
-0.893253 0.669903 20.6127
-0.815744 0.939452 20.0504
-0.636174 0.319916 21.3854
-0.989556 0.944652 21.0755
-0.0121779 -0.149521 21.4871
-0.351756 0.165128 21.7023
0.280031 -0.407274 21.2117
0.184382 -0.431041 21.4392
0.298702 -0.356597 21.028
0.297373 -0.561263 20.9158
0.153755 -0.449652 21.0339
-1.4245 -2.11378 20.1
-1.02798 -0.968521 19.2332
-0.105518 -1.76733 18.8913
-0.192566 -0.725134 21.8942
-0.0163493 -1.86619 22.4251
0.0296104 -0.0573174 21.1247
-0.00287912 -0.146134 20.8701
0.0196905 0.650284 19.1333
-0.00430781 0.138217 19.9587
0.157474 1.35326 16.6432
-0.0468908 0.592447 14.4453
0.20905 1.42728 17.6957
0.609094 1.75053 12.5472
-0.0349609 0.632453 13.1091
1.22323 0.832328 12.1113
-0.0516611 1.05057 13.6427
-1.14828 -0.304781 18.6986
-0.205678 -1.53586 17.7838
1.96127 1.30564 9.95772
1.79443 0.64919 6.50491
0.156902 -1.72228 -3.54132
1.62398 0.220922 10.409
-0.0762729 0.90421 6.72303
-0.556695 0.533498 19.2511
-0.150456 0.302289 17.8379
1.80083 -0.522785 11.9331
0.693708 -1.0075 19.2989
-0.0262756 -0.639511 -0.122212
0.578798 -0.944187 19.7842
-0.0460543 -1.66038 4.18486
-0.506533 0.871832 19.6527
0.0129276 0.56561 19.5166
-0.876417 1.52861 20.4239
0.0780425 1.71718 19.7518
-0.777946 1.05524 21.7651
0.0903915 2.25909 20.9527
-0.0172944 -0.235058 21.7866
-0.00125776 0.561378 22.1139
0.201432 -0.618338 21.3124
-0.000978654 -0.557959 21.6101
0.249329 -0.766753 20.9308
-0.00535846 -0.820853 21.1995
0.00656887 -0.886492 20.8063
1.37894 -2.33346 20.1042
0.972178 -1.14903 19.0254
0.861526 -0.716435 19.7213
0.182778 -0.711766 21.8919
1.22626 -1.28059 21.1828
-0.0257812 -0.0524159 20.9592
0.165599 -0.429486 21.5303
0.0440289 0.605772 18.7489
-0.167287 0.0508861 21.5871
-0.0730178 1.27252 15.8409
-0.751316 0.976151 20.3655
-0.236782 1.40486 17.7486
-0.678161 1.72739 12.7101
-0.936365 1.00168 20.4872
-1.17677 0.833131 12.7311
-0.735775 0.667546 21.1024
1.10142 -0.307726 18.2884
1.06668 -0.602625 19.3503
-1.88541 1.24683 11.0449
-1.91436 0.664668 7.54867
-1.51798 0.774246 17.8481
-1.63649 0.133271 11.2494
-1.40286 0.281672 18.9907
0.532845 0.540884 19.2117
0.994998 0.106043 19.1377
-1.7117 -0.51763 13.3774
-0.699415 -0.967192 19.4593
-1.4911 -0.548224 19.8778
-0.562817 -0.903387 19.9332
-1.36352 -0.660602 19.493
0.532285 0.843368 19.6813
0.380453 0.360809 19.802
0.924833 1.41505 20.4582
0.814014 0.837222 20.0924
0.79095 1.00278 21.7362
0.979581 0.850958 21.0684
0.0149752 -0.231996 21.7886
0.350308 0.162532 21.6937
-0.202017 -0.615924 21.3116
-0.188997 -0.428022 21.4408
-0.261648 -0.748637 20.9414
-0.293584 -0.546431 20.9003
-0.157302 -0.443133 21.0603
1.00402 -0.628636 20.3444
0.797346 -0.372617 19.8857
0.567067 -0.472833 21.2608
1.20581 -0.654734 20.8383
0.0634123 -0.161434 21.4689
0.375503 -0.386199 21.3965
-0.390212 0.176948 21.4982
-0.117322 -0.0585055 21.5347
-0.80275 0.402917 21.1007
-0.850585 0.299151 21.315
-0.758945 0.369256 20.9551
-1.01156 0.311832 21.2112
-0.768538 0.136813 20.6705
1.32629 -0.49366 20.1169
0.894146 -0.132253 19.6551
0.891817 -0.53263 21.3139
1.87172 -0.288135 20.6024
0.152374 -0.259037 21.5439
0.767748 -0.424698 21.4864
-0.502008 0.054723 21.6342
-0.0491244 -0.187015 21.6874
-1.0747 0.21594 21.1933
-0.996735 -0.111886 21.3945
-1.03859 0.0697138 20.8106
-1.08905 -0.139165 21.2728
-0.726087 -0.152135 21.098
1.49451 0.165726 19.6902
0.581586 0.266135 19.7455
1.64212 -0.0704541 21.1585
1.29928 0.616656 20.1909
0.604025 -0.248573 21.689
1.17694 0.310184 21.2581
-0.394253 -0.24873 21.6844
0.286113 -0.0845171 21.6587
-0.950826 -0.41155 21.2099
-0.445421 -0.42541 21.4319
-0.906434 -0.414344 21.1903
-0.580957 -0.507096 21.0447
-0.456757 -0.384119 20.8584
0.564688 0.420401 20.0086
0.852572 0.593444 20.6331
0.621135 0.296785 21.3667
0.00674946 -0.147041 21.4837
-0.266827 -0.400105 21.183
-0.328606 -0.355793 20.9908
-1.09508 -0.50808 20.2425
-2.08454 -2.44646 19.5636
-1.25922 -1.07783 20.2252
-1.95928 -0.970853 19.7804
-0.941084 -0.570632 19.6797
-1.69562 -1.35882 21.1553
-0.734265 -0.521921 21.2691
-0.0832688 -0.510385 19.5536
-0.50524 -0.731284 21.5026
-0.941305 -1.02456 21.8241
-0.226845 -0.573984 21.61
-0.127139 -0.221319 21.5014
-0.136209 0.127472 16.5093
0.00343985 -0.191367 21.5609
-0.0138986 -0.333364 21.1105
0.20691 0.0145136 21.3884
0.446054 0.126703 21.5417
-0.329621 0.568824 12.1247
0.449439 0.407636 21.4575
0.585037 0.57364 18.7688
1.04601 1.08845 18.6765
0.981877 0.328038 21.1813
0.123304 1.31257 10.2438
0.93274 0.902977 20.811
1.36441 1.02902 16.3168
1.20166 0.957596 18.7513
1.0662 0.219568 20.7669
1.1825 1.37236 13.4232
0.836766 1.0627 20.6811
1.43954 0.804804 18.3753
1.06592 0.510083 20.0972
-1.44946 -0.180783 19.9411
-3.86034 -0.893269 17.0471
-2.13784 0.373624 18.9641
-1.03999 -0.191107 19.3304
-4.08492 -0.651687 20.6314
-1.33504 -0.430758 21.32
-2.88947 -0.183572 21.5926
-0.862881 -0.929037 21.4412
-0.33279 -0.332439 21.6458
-0.867523 -0.617304 21.1517
0.227909 0.0204181 19.493
0.517881 -0.112782 21.6824
0.802289 0.0814978 18.9859
1.48283 0.505629 14.4425
1.1325 -0.174029 21.2367
0.365176 0.650464 2.4337
1.40921 -0.355038 18.2763
1.80937 0.21509 16.0125
1.1923 -0.261442 20.9619
2.11338 0.579747 9.45311
1.36334 -0.660021 19.3638
1.55805 -0.236126 18.8834
-0.960122 0.457325 19.8238
-1.10404 1.31996 18.9128
-0.586195 0.639428 19.8201
-0.612365 0.370397 19.5371
-1.75954 1.39133 19.8388
-1.43808 0.5544 20.7901
-2.0558 2.3091 20.3634
-0.977043 1.05119 20.5366
-1.97057 0.834425 21.4079
-0.804775 0.0889958 21.6176
-1.95548 0.987931 22.4061
-0.762633 0.611982 21.5423
-0.401468 -0.0887586 22.0073
0.144604 -0.269817 21.6266
0.463482 -0.564425 19.9358
-0.0275344 -0.196359 21.6559
0.499082 -0.703302 21.5897
0.553584 -0.525608 21.2371
0.635512 -0.952265 19.2819
0.256313 -0.521896 21.2263
0.598713 -0.855769 21.4179
0.627831 -0.499664 20.7931
0.560132 -1.12287 19.6706
0.304633 -0.534795 21.1991
0.495237 -0.684784 20.4048
2.09713 -2.88383 19.4356
-0.0881537 -3.6428 20.4489
-0.277821 -9.47373 17.164
-0.160413 -1.74634 18.37
-0.0101084 -1.70207 21.0415
0.102525 -0.482865 19.4128
-0.00434592 -0.449327 21.8139
0.000889246 0.0379541 13.8672
0.130413 0.114698 16.3003
-0.00522604 -0.0346008 20.2523
-0.00440177 0.131606 13.1611
0.3562 0.494829 11.4989
-0.0125579 0.349864 17.5893
-0.0526967 0.358224 4.99819
-0.0523978 1.238 9.96892
-0.0603335 0.570025 13.8341
0.0274606 -0.788508 -2.83173
0.0158655 -0.549607 2.90259
-1.26285 1.33835 13.5231
-0.0126236 1.17926 14.1339
0.0702948 -1.57287 -1.56986
-0.063967 0.97739 10.1829
4.08636 -1.07813 16.3009
-0.244393 2.83819 13.8469
-0.174971 -0.530032 17.3969
-0.424656 0.630367 2.96664
-0.0037946 0.161635 -0.117244
-0.0568306 -1.29004 -2.69797
-2.01422 0.569875 10.5929
-0.0816795 -1.72277 1.5218
-0.0955705 -0.336336 3.62416
1.10174 1.31953 18.9102
0.0390507 1.10611 19.4585
-0.0259076 0.706041 18.9132
0.0821738 3.71984 19.1035
2.09157 2.14968 20.4247
0.0849729 2.01424 20.2836
0.0848264 4.84219 20.8011
1.92655 0.946716 22.5516
0.025122 1.69438 21.9612
-0.00475652 0.354213 19.6272
-0.476024 -0.554504 19.8878
-0.0026287 -0.214491 21.926
-0.000432063 -0.779628 13.4513
-0.635585 -0.948812 19.4514
-0.00182903 -0.690842 21.3802
-0.00869209 -1.10469 16.2707
-0.548034 -1.09674 19.8409
-0.0102953 -0.654975 20.8591
-0.046579 -1.03797 18.589
1.15473 -0.585715 20.2347
1.34957 -1.2533 20.1899
2.17919 -1.20299 19.6167
0.977391 -0.68794 19.5289
1.73101 -1.42512 21.1843
0.728403 -0.534711 21.2725
0.493914 -0.73867 21.5212
0.934106 -1.02221 21.8371
0.219783 -0.567574 21.5991
0.125872 -0.229722 21.5016
-0.0140476 -0.190659 21.5643
0.0251941 -0.348544 21.1494
-0.208031 0.022431 21.3264
-0.450287 0.126564 21.5564
-0.432105 0.457424 21.346
-0.588748 0.552595 18.8891
-1.012 1.16203 18.2733
-0.974874 0.316323 21.1817
-0.922585 0.962374 20.7062
-1.34739 0.952535 16.8827
-1.20625 0.901509 19.0389
-0.983336 0.18843 20.8285
-0.846505 1.02029 20.7359
-1.46529 0.678921 18.9826
-1.06795 0.471096 20.0434
1.54001 -0.215865 19.8634
2.30642 0.478194 18.7708
1.1111 -0.220636 19.1031
4.13519 -0.652153 20.624
1.33341 -0.428296 21.3189
2.861 -0.186983 21.6118
0.848067 -0.924188 21.4627
0.334719 -0.331903 21.6363
0.886174 -0.61229 21.2251
-0.214276 -0.0112742 19.6847
-0.503152 -0.111039 21.6799
-0.773832 0.0460926 19.2126
-1.47771 0.512976 14.8629
-1.08608 -0.170431 21.2519
-1.39223 -0.397645 19.0704
-1.71881 0.166982 17.0167
-1.05945 -0.245499 21.0189
-1.29336 -0.576625 19.7877
-1.45879 -0.225898 19.3226
0.962575 0.452466 19.8304
0.594134 0.597119 19.857
0.605515 0.39146 19.5012
1.71456 1.27451 19.889
1.37141 0.490484 20.8006
0.981821 0.948802 20.5623
1.87841 0.735851 21.3921
0.774319 0.0858256 21.5907
0.751069 0.560562 21.5225
0.400663 -0.0828223 21.9972
-0.140072 -0.259904 21.6193
0.0248797 -0.192749 21.6548
-0.499461 -0.69621 21.5893
-0.546493 -0.50337 21.2093
-0.258877 -0.512633 21.2347
-0.604649 -0.824003 21.3753
-0.610725 -0.505396 20.8071
-0.307677 -0.51939 21.1932
-0.473608 -0.636312 20.5037
-1.60916 -1.10876 20.0323
-0.657255 -0.8733 21.6267
0.0159322 -0.255999 21.4988
0.544393 0.495211 20.574
1.12882 1.05319 18.5191
1.13015 0.928852 19.7301
-2.37853 -0.400461 19.2017
-1.75328 -0.964535 21.9796
-0.187306 -0.497103 20.4276
0.706201 0.478256 17.6971
1.59797 0.319768 16.0853
1.59118 0.178972 17.5766
-1.13888 0.810426 19.4466
-1.95272 1.18738 20.7058
-1.24146 0.28188 21.9952
0.191359 -0.411215 21.8822
0.589409 -0.786125 21.2832
0.613453 -0.869553 21.0254
-0.141918 -5.58598 19.9466
0.00107931 -0.0422701 15.6634
-0.00297254 0.0416955 13.4069
-0.0119217 0.180133 9.72183
-0.0419741 -0.0769598 4.28228
0.0421321 -0.227227 6.25813
-0.381842 -1.71442 10.6683
0.0193469 -0.438044 -2.35375
-0.139655 -1.89357 -1.95502
-0.000671244 2.03236 18.3023
0.0925974 3.50304 19.871
0.0318959 2.6811 22.3706
-0.0028393 -0.632257 15.3657
-0.00652887 -0.876315 14.9105
-0.0179758 -1.25167 17.0101
1.72914 -1.29474 19.9438
0.644972 -0.876528 21.6397
-0.0171464 -0.261129 21.4761
-0.527475 0.533296 20.327
-1.10936 1.05421 18.4367
-1.15527 0.849145 19.8776
2.618 -0.407219 18.9517
1.74697 -0.959458 21.991
0.218175 -0.517052 20.5452
-0.702626 0.447456 17.9112
-1.57399 0.287854 16.8645
-1.54027 0.096669 18.5377
1.1371 0.807587 19.4482
1.89691 1.08037 20.7288
1.21009 0.263902 21.9556
-0.192671 -0.402873 21.8765
-0.588475 -0.76412 21.2814
-0.636708 -0.803431 20.928
-0.393604 -0.229642 0.710802
-0.0191225 -0.0153906 0.481275
-0.0533606 0.0149591 0.994772
-0.000205183 0.000128281 0.000254776
-0.0175624 0.0108141 0.0308171
0.036005 0.136924 0.409402
-0.400071 0.11548 0.651403
-0.0130391 0.0900997 0.241666
-0.0660079 0.030377 0.256228
-0.0037472 0.00121733 -0.000632118
-0.00651401 0.0321929 -0.0499049
0.00917401 -0.00450597 0.0993161
0.0214952 -0.0157249 0.484261
0.393266 -0.229157 0.701402
0.0564841 0.0139824 0.980197
0.0169341 0.0102433 0.0302821
0.000233756 0.000135518 0.000241103
-0.0343462 0.141515 0.431801
0.0133511 0.092675 0.248764
0.397883 0.115602 0.649635
0.0654631 0.030202 0.254555
0.00397102 0.0339824 -0.0523118
0.00366168 0.00141967 -0.000596128
-0.0097593 -0.00434618 0.104053
7.34341e-05 0.00926967 1.19233
-0.0686232 0.0167193 1.11442
-0.000476216 0.00130676 0.0185733
0 0 0
-0.0380247 0.0415026 0.650015
-0.10947 0.0504128 1.55669
0 0 0
0 0 0
-0.263904 -0.175761 0.518205
0.000290728 0.00674853 0.0747292
0 0 0
-0.0400805 0.0617003 0.162837
0 0 0
0.0032837 0.00946921 0.0345559
0 0 0
0.0165174 -0.00192488 0.0943163
0.00276762 0.0114574 1.18191
0 0 0
0.0610352 0.0148932 1.11335
0.000317014 0.00108567 0.0148712
0.0405182 0.0407914 0.658995
0 0 0
0.104247 0.0446656 1.51594
0 0 0
0.309267 -0.213701 0.613725
0.0443172 0.0674252 0.178412
-0.00179424 0.0112625 0.0694285
0 0 0
-4.11878e-18 5.67255e-18 2.29807e-17
-0.0162629 -0.0019407 0.09347
-0.00329601 0.00951156 0.034685
0 0 0
-0.000402833 -0.00182836 0.019341
-0.162516 -0.0499206 0.119424
3.17622e-09 1.50714e-08 1.05979e-06
0 0 0
-6.17381e-05 -0.000397539 0.0303518
0 0 0
0 0 0
0 0 0
-3.66546e-06 0.00015551 0.00290284
0 0 0
-2.46901e-18 -2.11364e-17 -1.877e-16
0 0 0
-0.000930783 0.478426 0.301594
-0.000570518 0.00748495 0.0402787
0.00326853 -0.0315227 0.188758
0 0 0
-0.000134194 0.00840294 -0.00100122
0 0 0
0.0155636 0.00748521 0.103206
-0.000769237 -0.00234389 0.00628078
0.13786 -0.0290514 0.102942
2.08675e-05 -0.000436722 0.0044789
0 0 0
6.71959e-05 -0.000198086 0.0275031
0 0 0
0 0 0
0.000184056 2.52101e-05 0.00213705
0 0 0
0 0 0
-0.00327988 -0.03178 0.192098
0.000762013 -0.00236057 0.00623153
-0.0158002 0.00767531 0.104323
-7.26411e-05 0.00290905 0.0212087
0 0 0
-0.00738656 -0.0160186 0.343775
-0.00430056 0.0314221 0.277457
-1.1952e-08 -2.49158e-07 -1.199e-05
-1.20444e-08 7.58595e-08 2.27272e-05
0.00630287 0.0309259 0.175804
5.05867e-05 0.00119512 0.0109577
-7.50156e-10 4.9427e-09 1.72585e-06
0 0 0
0.00203471 0.00839972 0.0375446
0.0112933 0.00584741 0.167187
4.0329e-06 0.00284436 0.00558129
-8.73271e-06 0.00603098 0.0322745
0.000130142 -0.000184744 0.00968916
-0.000280984 -0.00424416 0.0224157
0 0 0
7.83598e-05 0.0025525 0.0196378
-0.0011228 -0.0129604 0.148072
0.00438787 0.0345228 0.300663
-0.00568861 0.0273614 0.157808
-4.82724e-05 0.00116855 0.0106555
-0.0105421 0.00527691 0.14643
-0.00202285 0.0150782 0.0677594
0 0 0
-0.0976816 -0.10193 0.460009
0 0 0
-0.00203237 -0.00649256 0.0666368
-0.000280626 0.00136335 0.0124804
0.000690983 0.00370207 0.0203686
-1.99812e-05 0.00237979 0.017254
0.000347028 0.00111518 0.00393831
0 0 0
0 0 0
0 0 0
0.00384264 -0.000887324 0.0238487
0 0 0
0 0 0
0 0 0
0 0 0
0 0 0
0 0 0
0 0 0
0 0 0
0 0 0
0 0 0
6.38625e-18 -3.88019e-18 -6.98407e-17
0 0 0
0 0 0
-1.65482e-16 1.31955e-16 -1.57128e-16
0 0 0
0 0 0