# vtk DataFile Version 2.0
tri_press
ASCII
DATASET UNSTRUCTURED_GRID
POINTS 3682 float
-0.727758 0.225 -2.025
-0.689308 0.285 2.025
-0.745 0.515 -1.94676
-0.625 0.845 1.9679
0.727758 0.225 -2.025
0.689305 0.285 2.025
0.745 0.515 -1.94676
0.625 0.845 1.96789
-0.786421 0.17352 -0.675
-0.7933 0.173825 0.675
-0.818793 0.738793 -0.641873
-0.776926 0.846926 0.663013
0.786413 0.173527 -0.675
0.793305 0.173817 0.675
0.818807 0.738807 -0.641877
0.776927 0.846927 0.663007
-1.50922 -0.104512 -3.10042
-1.51425 -0.0468059 -2.03849
-1.55013 -0.0837983 -0.687324
-1.53797 -0.106596 0.672923
-1.46284 -0.0388264 2.02485
-1.44473 0.0192138 3.09053
-1.45518 0.0690924 4.14927
-1.50924 0.120036 -3.07752
-1.51562 0.20779 -2.02052
-1.56361 0.200534 -0.67813
-1.53455 0.193083 0.66832
-1.42036 0.259276 2.01157
-1.41734 0.315761 3.07661
-1.44196 0.364616 4.13683
-1.51772 0.512277 -3.01906
-1.53185 0.596344 -1.96019
-1.58466 0.753141 -0.648555
-1.52448 0.831476 0.659884
-1.38281 0.850844 1.97238
-1.39856 0.902649 3.03929
-1.43727 0.954911 4.10677
-1.52888 1.26117 -2.96528
-1.53907 1.36918 -1.91317
-1.55731 1.55332 -0.616163
-1.54722 1.69972 0.671119
-1.50956 1.77043 1.9686
-1.49103 1.80915 3.02169
-1.49121 1.85068 4.08425
-0.744207 -0.0957435 -3.10333
-0.736683 -0.0332672 -2.04274
-0.771899 -0.0963359 -0.686756
-0.785523 -0.121029 0.678625
-0.738382 -0.0287757 2.03482
-0.725629 0.0261103 3.09729
-0.733222 0.0716182 4.15319
-0.744383 0.119214 -3.07842
-0.707277 0.324041 3.08219
-0.725457 0.367382 4.13978
-0.750197 0.47863 -3.01348
-0.691902 0.902896 3.03839
-0.724361 0.955533 4.10658
-0.755758 1.23698 -2.95977
-0.760973 1.34576 -1.90709
-0.782744 1.54671 -0.612502
-0.793662 1.70569 0.670678
-0.779203 1.77468 1.96545
-0.766505 1.81082 3.01855
-0.7654 1.85154 4.08197
0.759699 -0.0957409 -3.10333
0.761696 -0.0332649 -2.04274
0.788355 -0.0963314 -0.686756
0.771307 -0.121033 0.678624
0.701747 -0.0287773 2.03482
0.696957 0.0261095 3.09729
0.701706 0.0716178 4.15318
0.74987 0.119216 -3.07842
0.683364 0.32404 3.08219
0.693774 0.367382 4.13977
0.756054 0.478633 -3.01348
0.660433 0.902896 3.03838
0.681745 0.955533 4.10657
0.783625 1.23699 -2.95977
0.788964 1.34577 -1.9071
0.775188 1.54671 -0.612505
0.72776 1.70569 0.670673
0.68203 1.77468 1.96545
0.675293 1.81082 3.01855
0.680203 1.85154 4.08197
1.52127 -0.104506 -3.10042
1.52671 -0.0467988 -2.03849
1.56072 -0.0837904 -0.687326
1.5395 -0.1066 0.672919
1.45438 -0.03883 2.02485
1.42969 0.0192121 3.09053
1.43119 0.0690914 4.14927
1.51159 0.120042 -3.07752
1.51196 0.207797 -2.02052
1.56436 0.200545 -0.678133
1.54549 0.193079 0.668316
1.43389 0.259273 2.01157
1.40983 0.31576 3.07661
1.41861 0.364616 4.13682
1.51995 0.512284 -3.01906
1.52801 0.596353 -1.96019
1.58319 0.753157 -0.64856
1.53105 0.831479 0.659874
1.39108 0.850842 1.97237
1.38214 0.902648 3.03928
1.40271 0.95491 4.10676
1.55126 1.26118 -2.96528
1.5584 1.36919 -1.91317
1.54834 1.55334 -0.61617
1.49444 1.69973 0.67111
1.431 1.77043 1.96859
1.41166 1.80915 3.02168
1.41269 1.85068 4.08424
-0.691411 0.37 -1.94091
0 0.238202 -2.0118
-0.783108 0.173242 -1.35
-0.685028 0.565 2.02432
-1.49012e-06 0.296503 2.0135
-0.770909 0.199808 1.35
0 0.647482 -2.07924
-0.843361 0.688361 -1.29432
0 0.918018 2.04091
-0.742206 0.887206 1.31546
0.690954 0.37 -1.94045
0.783108 0.173242 -1.35
0.685027 0.565 2.02432
0.770905 0.199808 1.35
0.843334 0.688334 -1.29432
0.742215 0.887215 1.31545
-0.78987 0.173663 0
-0.830176 0.456157 -0.658437
-4.03177e-06 0.170909 -0.675
-0.837646 0.510375 0.669007
2.89464e-06 0.171071 0.675
-0.795735 0.790735 0.01057
7.07013e-06 0.906959 -0.641875
7.0596e-07 1.25463 0.66301
0.789857 0.173674 0
0.830175 0.456167 -0.658438
0.837709 0.510372 0.669003
0.795731 0.790731 0.010565
-0.843134 0.413078 -1.32216
0.843169 0.413084 -1.32216
-2.01589e-06 0.170736 -1.35
3.53507e-06 0.851232 -1.29432
0 0.37 -2.11211
-0.830557 0.483266 0.00528499
0.830556 0.48327 0.00528249
-5.68568e-07 0.171003 0
3.88805e-06 1.22987 0.0105675
-0.855302 0.537688 1.33273
0.855303 0.537686 1.33272
7.0226e-07 0.192052 1.35
3.5298e-07 1.04759 1.31545
-7.45058e-07 0.565 2.14808
-0.679124 0.2975 -1.9525
-0.363879 0.242678 -2.00732
-0.777333 0.17722 -1.6875
-0.676633 0.425 2.01413
-0.344655 0.299807 2.01019
-0.75226 0.220252 1.6875
-0.739579 0.4425 -1.96521
-0.3725 0.577368 -2.00913
-0.814094 0.621594 -1.62054
-0.651111 0.705 1.99221
-0.3125 0.903084 2.02598
-0.698137 0.880637 1.64168
0.363879 0.242425 -2.00758
0.679284 0.2975 -1.95266
0.777517 0.177037 -1.6875
0.344652 0.299839 2.01016
0.676588 0.425 2.01408
0.752258 0.220252 1.6875
0.3725 0.577312 -2.00907
0.739548 0.4425 -1.96518
0.8141 0.6216 -1.62054
0.3125 0.903074 2.02597
0.651189 0.705 1.99228
0.698072 0.880573 1.64167
-0.78483 0.173316 -1.0125
-0.788143 0.173594 -0.3375
-0.829497 0.304239 -0.666718
-0.393177 0.172287 -0.675
-0.7781 0.19082 1.0125
-0.791575 0.173754 0.3375
-0.833484 0.333094 0.672003
-0.396588 0.17257 0.675
-0.82139 0.70389 -0.968095
-0.849751 0.610108 -0.650155
-0.80828 0.76578 -0.315652
-0.440899 0.885889 -0.641874
-0.758397 0.865897 0.989235
-0.829334 0.689675 0.66601
-0.785047 0.817547 0.336792
-0.476705 1.22726 0.663012
0.784829 0.173315 -1.0125
0.39317 0.172286 -0.675
0.788131 0.173605 -0.3375
0.829504 0.304242 -0.666719
0.778096 0.190822 1.0125
0.396599 0.172554 0.675
0.791572 0.173755 0.3375
0.833481 0.333108 0.672002
0.821311 0.703811 -0.968098
0.440898 0.885865 -0.641876
0.849741 0.610112 -0.650158
0.808278 0.765778 -0.315656
0.758395 0.865895 0.989228
0.476718 1.22729 0.663008
0.829319 0.68965 0.666005
0.785042 0.817542 0.336786
-0.827883 0.391539 -1.63154
-0.345706 0.37 -2.05013
-1.00794e-06 0.17078 -1.6809
0 0.304101 -2.11214
-0.847875 0.29316 -1.33608
-0.391555 0.170736 -1.35
-0.801876 0.551344 1.67853
-0.342515 0.565 2.12975
-3.93928e-07 0.219847 1.68175
-1.11759e-06 0.430752 2.14962
-0.856303 0.368748 1.34136
-0.385454 0.192052 1.35
1.76753e-06 0.803051 -1.68678
0 0.508741 -2.14969
-0.845245 0.550719 -1.30824
-0.421679 0.833755 -1.29432
1.7649e-07 0.962709 1.67818
-3.72529e-07 0.741509 2.08247
-0.835771 0.712447 1.32409
-0.371103 1.02536 1.31545
0.827881 0.391542 -1.63131
0.345477 0.37 -2.05019
0.847876 0.293163 -1.33608
0.391553 0.170736 -1.35
0.801599 0.551343 1.67852
0.342513 0.565 2.12976
0.856304 0.368747 1.34136
0.385453 0.192052 1.35
0.845246 0.550709 -1.30824
0.421669 0.833748 -1.29432
0.835714 0.712451 1.32409
0.371108 1.02537 1.31545
-0.835838 0.315653 0.0026425
-0.394883 0.172438 0
-0.845503 0.434617 -0.990298
-0.829205 0.469711 -0.326576
-3.02383e-06 0.17078 -1.0125
-2.30017e-06 0.170959 -0.3375
-0.828 0.496821 0.337146
-0.855308 0.524032 1.00087
1.16303e-06 0.171047 0.3375
1.79845e-06 0.179103 1.0125
-0.847475 0.654165 0.00792749
-0.486706 1.18798 0.0105687
5.3026e-06 0.883548 -0.968096
5.47909e-06 1.08723 -0.315654
2.297e-06 1.26747 0.336789
5.2947e-07 1.18315 0.989231
0.835843 0.315654 0.00264125
0.39488 0.172436 0
0.845504 0.434625 -0.990299
0.829199 0.469718 -0.326578
0.828023 0.496821 0.337143
0.855308 0.524029 1.00086
0.847464 0.654161 0.00792374
0.486687 1.18794 0.0105662
-0.831532 0.29533 -1.65952
-0.845282 0.303999 -1.0014
-0.846336 0.574097 -0.979196
-0.831388 0.49661 -1.62604
0.831927 0.295331 -1.6594
0.831381 0.496604 -1.62592
0.846337 0.574098 -0.979198
0.845286 0.304005 -1.0014
-0.377717 0.170781 -1.6842
0.377716 0.170781 -1.6842
0.392379 0.170779 -1.0125
-0.392384 0.170779 -1.0125
-0.397089 0.786469 -1.65366
-0.415536 0.868629 -0.968096
0.415538 0.868603 -0.968097
0.397084 0.78648 -1.65366
-0.354792 0.300801 -2.05298
-0.359103 0.475621 -2.09363
0.358988 0.475621 -2.09381
0.354678 0.300801 -2.05299
-0.831423 0.310568 -0.332038
-0.83695 0.323229 0.337323
-0.838287 0.671861 0.336969
-0.85129 0.633475 -0.321114
0.831418 0.310576 -0.332039
0.851284 0.633477 -0.321117
0.838301 0.67186 0.336964
0.836946 0.323239 0.337322
-0.394028 0.172365 -0.3375
0.394023 0.172365 -0.3375
0.395734 0.172507 0.3375
-0.395729 0.172516 0.3375
-0.469785 1.0489 -0.315653
-0.493449 1.23111 0.33679
0.493449 1.23111 0.336787
0.469797 1.04891 -0.315655
-0.856492 0.355424 1.00668
-0.80478 0.396874 1.68301
-0.775058 0.708724 1.6601
-0.831059 0.695549 0.995051
0.856491 0.355421 1.00668
0.83106 0.69555 0.995046
0.775055 0.708725 1.6601
0.804787 0.396874 1.68301
-0.391051 0.179103 1.0125
0.391054 0.179103 1.0125
0.365052 0.219742 1.68462
-0.365054 0.219742 1.68462
-0.379783 1.16839 0.989233
-0.341801 0.954493 1.65993
0.341804 0.954494 1.65993
0.379786 1.16841 0.989229
-0.343585 0.427876 2.14504
0.343582 0.427876 2.14506
0.327507 0.723255 2.07987
-0.327507 0.723255 2.08004
-0.716864 0.26125 -2.00217
-0.545818 0.185005 -2.065
-0.769576 0.184079 -1.85625
-0.676758 0.355 2.01335
-0.516981 0.345612 1.96439
-0.716852 0.256558 1.85625
-0.742594 0.47875 -1.95629
-0.55875 0.552446 -1.98421
-0.788457 0.577207 -1.78365
-0.637005 0.775 1.979
-0.46875 0.87171 1.99461
-0.670416 0.871666 1.80479
0.545818 0.184972 -2.06503
0.716724 0.26125 -2.00203
0.769662 0.183994 -1.85625
0.516978 0.344388 1.96561
0.676124 0.355 2.01272
0.714289 0.259118 1.85625
0.55875 0.55269 -1.98445
0.742647 0.47875 -1.95634
0.788405 0.577155 -1.78365
0.46875 0.87176 1.99465
0.637124 0.775 1.97911
0.670404 0.871654 1.80478
-0.785781 0.173263 -0.84375
-0.787278 0.173561 -0.50625
-0.851223 0.217248 -0.670859
-0.589777 0.172948 -0.675
-0.779251 0.188771 0.84375
-0.792429 0.173798 0.50625
-0.863452 0.22843 0.673502
-0.59493 0.173224 0.675
-0.813142 0.714392 -0.804984
-0.833179 0.673904 -0.646014
-0.817232 0.755982 -0.478763
-0.663552 0.879753 -0.641874
-0.76818 0.85693 0.826124
-0.814211 0.773841 0.664512
-0.780776 0.832026 0.499903
-0.634702 1.05287 0.663013
0.785777 0.173265 -0.84375
0.589772 0.172947 -0.675
0.787268 0.17357 -0.50625
0.851217 0.217255 -0.67086
0.779248 0.188773 0.84375
0.594933 0.173224 0.675
0.79243 0.173794 0.50625
0.86347 0.228424 0.673501
0.813143 0.714393 -0.804987
0.663539 0.879709 -0.641876
0.8331 0.673873 -0.646017
0.817232 0.755982 -0.478766
0.768178 0.856928 0.826117
0.634642 1.05275 0.663008
[...]
POINT_DATA 3682
SCALARS point_scalars float 1
LOOKUP_TABLE default
16.1837
-36.3414
-15.992
-33.0752
16.2697
-36.2737
-16.0759
-32.9683
-34.4503
-36.1501
-33.9819
-46.6574
-34.4413
-36.1463
-33.9803
-46.6271
0.900525
-92.3383
-33.0282
-34.521
-51.1538
-36.3414
-32.0002
0.900525
-94.692
-44.9607
-34.3696
-45.0996
-33.4486
-32.0002
0.900525
-83.1011
-36.1709
-40.4709
-39.48
-33.6066
-32.0002
-6.68396
-62.4643
-43.2201
-55.1939
-36.6545
-33.5463
-31.1763
97.3217
-138.717
-34.93
-36.7048
-36.4663
-32.9963
-31.7999
97.3217
-31.847
-31.7999
172.803
-31.3053
-31.2159
112.173
-62.2602
-25.124
-62.2808
-33.3141
-29.3366
-29.2684
97.3032
-111.461
-34.9079
-37.063
-36.344
-32.9332
-31.7495
97.3032
-31.9134
-31.7495
172.571
-31.0141
-30.8241
112.099
-62.7708
-24.6318
-63.5908
-32.4695
-29.0933
-28.3787
0.723212
-92.7481
-33.0288
-34.5244
-51.1051
-36.2737
-31.9339
0.723212
-94.6651
-44.9372
-34.3837
-45.0802
-33.1721
-31.9339
0.723212
-83.55
-36.1791
-40.5226
-39.7595
-33.5124
-31.9339
-6.69102
-63.16
-43.1075
-56.1962
-35.778
-33.4447
-31.0885
10.73
-82.2799
-48.4783
-34.0283
-35.0212
-40.3719
82.139
-55.3213
-27.211
-44.6852
12.5002
-48.4557
-33.9254
-40.3491
-55.2695
-44.6458
-32.6126
-36.7118
-39.5414
-36.1918
-38.126
-46.5752
11.7354
-69.2687
-32.6036
-36.8589
-36.1838
-46.5436
-52.8196
-52.787
-61.1627
-27.1975
180.351
-37.5628
-37.5535
-35.1124
-79.5278
-45.7551
-45.7036
-41.5437
-37.7605
-26.3357
32.2347
-114.538
-66.9067
-35.1508
-35.9448
-48.3599
0.358003
123.124
-67.569
-33.4896
-28.881
-38.257
-114.696
32.997
-66.737
-35.8844
-35.068
-48.3586
123.091
0.553115
-67.4183
-28.8735
-33.3722
-38.1873
-38.5748
-32.0002
-35.1729
-38.6217
-37.7855
-33.778
-34.3808
-37.761
-37.3014
-36.6409
-46.4891
0.762556
-44.8838
-39.7617
-47.0369
-64.2238
-38.5652
-38.6178
-31.994
-35.1813
-37.7748
-37.7578
-33.7679
-34.3576
-37.2739
0.699972
-36.6631
-46.4888
-44.8785
-64.1899
-39.7836
-47.0201
-77.8614
175.483
-94.1367
96.2929
-52.7457
-58.9693
-44.4263
-29.9295
-41.7241
-31.8122
-43.9532
-41.6331
-52.3377
187.267
-53.5313
-31.9537
-33.2783
-24.6167
-48.4041
-38.8315
-77.6883
176.02
-52.7053
-58.9614
-44.3166
-29.8082
-43.901
-41.626
-53.5038
-31.9509
-48.3647
-38.7946
-34.7215
-34.5819
-39.5816
-36.1976
-47.0657
-35.9713
-36.8253
-38.7323
-35.8815
-40.3018
-41.7034
-72.1665
-8.88758
7.74675
-87.5774
-48.9959
-34.7108
-34.5776
-39.5599
-36.1795
-36.8197
-38.7095
-41.6903
-72.0967
-79.6327
-39.2977
-39.1328
-74.9804
-79.4684
-74.8898
-39.1101
-39.2763
-89.6497
-89.6304
-45.7198
-45.7259
-55.7065
-15.8373
-15.8348
-55.7138
131.173
178.924
179.154
131.498
-34.0281
-34.9897
-40.9583
-39.5423
-34.0151
-39.5389
-40.9533
-34.9792
-35.3182
-35.3148
-35.4632
-35.4681
-8.88224
-76.0015
-75.9891
-8.89086
-38.4626
-46.5635
-42.1711
-38.6057
-38.442
-38.6046
-42.0744
-46.4853
-39.6744
-39.6715
-42.6882
-42.7057
-50.0252
-33.7424
-33.7245
-50.0181
-32.1756
-32.1288
-28.5374
-28.7064
47.1837
-32.6617
-97.6479
-35.9663
-36.3567
-40.6692
-4.88328
80.6163
-72.1599
-33.6002
-30.2066
-35.5666
-32.7084
41.6882
-97.6406
-36.4015
-35.892
-40.5724
80.7707
-4.88098
-72.4233
-30.0963
-33.4614
-35.4777
-38.027
-33.2525
-33.0882
-36.7784
-39.9876
-33.6979
-33.878
-37.8249
-33.9932
-35.2709
-42.3977
-21.052
-46.213
-41.7641
-46.5341
-53.6029
-38.0186
-36.7725
-33.2476
-33.0881
-39.9271
-37.8192
-33.6871
-33.8863
-33.9846
-21.0524
-35.2728
-42.3897
-46.2323
-53.5392
-41.7966
-46.5042
20.6397
2.46359
-105.772
155.342
-100.461
-100.563
-90.4002
87.3107
-58.6053
-42.8631
-51.7195
-53.9848
-34.7713
-33.2933
-38.4795
-30.973
-35.2564
-35.2261
-38.7081
-32.6635
-46.0939
-39.7544
-43.0484
-41.3117
104.02
103.79
-85.4706
167.195
-56.1284
-46.7837
-56.737
-37.4586
-27.7501
-27.6812
-30.3911
-22.9604
-41.3326
-45.1293
-46.4716
-41.0013
22.1326
3.26187
-106.449
155.785
-58.58
-42.8461
-51.6827
-54.1168
-34.6077
-33.1906
-38.3674
-30.8955
-46.07
-39.7375
-43.0003
-41.2995
-55.9774
-46.7795
-56.6721
-37.4563
-41.2878
-45.0768
-46.4192
-40.9859
-32.8698
-32.4641
-33.3021
-33.6447
-35.2151
-37.5113
-39.5658
-35.0724
-39.3515
-39.3495
-42.6763
-37.3745
-34.9549
-38.0224
-36.6916
-35.9714
-38.018
-38.0162
-36.8407
-40.0301
-46.467
-47.4987
-43.7325
-65.4825
8.77068
8.78055
1.0252
21.2353
-68.8657
-68.8695
-79.6474
-58.1367
-32.8636
-32.4566
-33.2916
-33.6387
-35.2409
-37.598
-39.4641
-35.0543
-34.9468
-38.0191
-36.6853
-35.9612
-46.4576
-47.473
-43.7124
-65.3861
-63.3778
-52.8035
-52.8668
-44.7358
-63.3116
-52.7663
-52.8388
-44.709
-73.2393
-60.6528
-60.6484
-53.1252
-38.8919
-29.0758
-28.8975
-18.5703
172.64
173.547
200.497
172.68
-36.0405
-36.4771
-37.5968
-38.9486
-36.0305
-36.4684
-37.5874
-38.9382
-35.0203
-35.3147
-35.2866
-35.0181
-75.5893
-27.0568
-92.2255
-75.5185
-49.257
-45.023
-47.0803
-42.6191
-49.1827
-44.9717
-47.0355
-42.5817
-42.2432
-41.5722
-41.5687
-40.8922
-35.6199
-38.0279
-38.0269
-42.1522
-27.7548
-28.6948
-25.6092
-27.6663
-108.82
148.587
-116.331
100.476
-75.1159
-73.6737
-39.8484
-32.5252
-39.5673
-33.6615
-49.3398
-46.0511
-88.9915
152.662
-93.9134
140.712
-72.1238
-57.2789
-38.6006
-30.746
-30.7183
-28.014
-40.9689
-34.6472
-116.304
100.543
-108.71
149.863
-75.0992
-73.6507
-39.5283
-33.6066
-39.7195
-32.4456
-49.2564
-45.9481
-93.9449
140.768
-89.2795
152.715
-72.0638
-57.2954
-30.6727
-27.8341
-38.4865
-30.6391
-40.8778
-34.6137
-38.6738
-42.8707
-32.8831
-34.0525
-41.6363
-33.9656
-41.6127
-36.5211
-38.2659
-38.6338
-33.5826
-34.6469
-35.1503
-35.394
-36.467
-39.8957
-38.2369
-24.3361
-36.9525
-38.3724
-42.8532
-55.5146
-6.54853
5.06476
-41.5732
-51.0562
-40.7882
-39.5187
-43.3227
-57.5544
-68.1915
-58.3692
-38.6611
-42.8612
-41.6077
-36.5176
-32.8725
-34.037
-41.6179
-33.9558
-38.2485
-38.628
-36.4625
-39.8913
-33.5744
-34.6403
-35.1342
-35.4021
-38.209
-24.3117
-6.55105
5.15965
-36.9236
-38.3548
-42.8621
-55.4734
-41.586
-51.0347
-68.1785
-58.3566
-40.749
-39.5002
-43.3155
-57.5333
-79.7281
-76.2803
172.638
188.938
-94.2574
-94.247
166.572
166.801
-64.271
-44.5805
-70.167
-51.3647
-45.596
-43.7624
-30.9437
-29.3614
-41.897
-41.9071
-32.1509
-32.1212
-41.5102
-50.3587
-40.5827
-43.013
-53.9557
-53.9472
170.223
169.657
-45.067
-63.1125
-41.9915
-23.4249
-33.4442
-33.4378
-26.156
-26.3251
-45.9193
-44.454
-43.207
-36.4477
-79.5168
-76.1836
188.885
173.041
-64.187
-44.5522
-70.1569
-51.3578
-43.6499
-45.4999
-30.8715
-29.2156
-41.4728
-50.2867
-40.5774
-43.0028
-63.0893
-45.0445
-23.4261
-41.9997
-44.4083
-45.8359
-36.4392
-43.2156
-34.3518
-34.953
-34.7349
-34.8151
-39.3648
-39.6495
-35.055
-37.2127
-46.8277
-46.8309
-35.8466
-35.8447
-35.9486
-38.0047
-38.5341
-38.3007
-35.8005
-35.8029
-40.1909
-40.1892
-41.0134
-41.1248
-37.9668
-84.2676
-11.1825
-11.185
4.51102
4.55806
-85.0777
-85.087
-49.2384
-49.2441
-34.3407
-34.9448
-34.7312
-34.8105
-39.6265
-39.3425
-35.0381
-37.2023
-38.0001
-35.9436
-38.5126
-38.288
-41.1177
-41.0023
-84.2595
-38.0051
-103.378
-61.1692
-64.1507
-105.882
-39.6706
-40.8647
-44.642
-43.7922
-35.1832
-45.8361
-44.739
-37.5285
-82.1735
-95.7006
-63.0542
-62.8277
-103.427
-105.747
-64.072
-61.1172
-82.5427
-62.8502
-63.0068
-95.8152
-35.1636
-37.4024
-44.714
-45.8215
-39.6571
-43.7669
-44.6145
-40.8447
-92.5399
-98.2633
-72.7299
-63.1933
-92.5393
-63.1775
-72.7244
-98.2877
-39.5123
-42.4728
-52.804
-47.5765
-39.5199
-47.5876
-52.8071
-42.4753
-71.8393
-44.8914
-39.7006
-82.8537
-22.8065
-0.990971
-20.1118
-30.5894
-22.807
-30.6213
-20.1128
-0.988081
-71.7289
-82.8076
-39.7062
-44.8996
145.253
164.725
164.832
98.3398
118.043
159.01
193.045
160.5
117.985
159.8
193.026
159.638
147.962
98.5053
164.868
164.97
-32.955
-33.0793
-35.3228
-34.6228
-33.2742
-35.9198
-36.0605
-33.4649
-42.1992
-43.5489
-38.6697
-38.2043
-40.5532
-36.3688
-37.9652
-43.786
-32.9497
-34.6091
-35.3127
-33.0718
-40.5472
-43.7796
-37.9578
-36.3364
-42.1418
-38.2064
-38.6613
-43.535
-33.2416
-33.4564
-36.0509
-35.9056
-34.9949
-37.1981
-35.1943
-33.6714
-34.9894
-33.6657
-35.1923
-37.1963
-35.7928
-36.7659
-35.1856
-33.9329
-35.799
-33.9392
-35.1878
-36.7683
-28.0671
-68.6864
-26.8175
17.2574
-54.5281
-77.0085
-91.6316
-61.8681
-54.4964
-61.7504
-91.6159
-77.0423
-28.0531
17.2473
-26.876
-68.6701
-37.2969
-40.6727
-42.0653
-35.7408
-40.2658
-39.4548
-49.8774
-49.5526
-38.1043
-44.1307
-48.3041
-38.4061
-41.8581
-37.0504
-43.2474
-44.4777
-37.2922
-35.731
-42.0284
-40.6385
-41.8524
-44.469
-43.2055
-37.0388
-37.9929
-38.2921
-48.2227
-44.0546
-40.1006
-49.4567
-49.803
-39.333
-39.1247
-39.9329
-40.8257
-40.2075
-39.1096
-40.2
-40.8233
-39.9314
-39.2946
-38.9239
-42.3852
-44.3523
-39.4412
-44.3647
-42.3908
-38.9447
-50.7313
-46.494
-42.4586
-58.2504
-31.9844
-30.4293
-35.8737
-37.3695
-31.9191
-37.3565
-35.8724
-30.4063
-50.7065
-58.2256
-42.4564
-46.4455
-35.6791
-32.9208
-29.6561
-31.7207
-35.1394
-31.6552
-29.562
-32.8858
-30.1319
-24.9401
-27.0281
-30.8554
-30.2566
-30.9432
-27.1894
-25.1137
42.6761
-36.9699
-93.138
-36.1613
-36.7547
-37.3079
-10.1725
53.0191
-68.9279
-33.5525
-31.1048
-34.4851
-36.918
39.6188
-93.1867
-36.7773
-36.0891
-37.0781
53.0238
-10.224
-68.8356
-30.9858
-33.4417
-34.381
-36.73
-32.8637
-33.9921
-35.6058
-40.403
-35.2963
-34.632
-37.6915
-33.2726
-34.488
-37.7509
-31.0452
-46.4348
-44.0989
-46.5727
-49.8519
-36.7205
-35.5989
-32.8617
-33.9834
-40.4435
-37.6896
-35.2895
-34.6338
-33.2585
-31.0305
-34.4852
-37.7393
-46.4386
-49.6548
-44.119
-46.4847
15.7029
2.8915
-86.1794
115.664
-82.2443
-82.2376
-52.623
-55.8362
-52.8453
-46.0733
-50.5613
-50.9603
-34.4422
-33.5036
-36.2448
-31.6454
-35.0851
-35.0691
-36.9375
-33.3374
-42.407
-40.1509
-42.4608
-40.9931
83.8311
83.6046
-31.7062
126.331
-54.232
-51.2513
-56.5259
-45.4493
-27.3723
-27.3378
-30.0313
-24.2725
-42.7269
-44.3021
-45.1626
-42.8401
17.4332
4.85016
-88.3245
116.32
-52.8181
-46.0518
-50.5301
-50.9451
-34.3477
-33.402
-36.1338
-31.5646
-42.3822
-40.1311
-42.4221
-40.9769
-54.3378
-51.2026
-56.4632
-45.4343
-42.6957
-44.2213
-45.1095
-42.8158
-32.0115
-33.1839
-32.6163
-33.0967
-35.6012
-37.2147
-38.7587
-35.6651
-39.503
-39.5021
-40.9445
-38.2186
-35.4128
-37.0444
-36.2127
-36.1132
-38.1109
-38.11
-37.4478
-39.0089
-46.4056
-46.8487
-44.9215
-54.4198
10.8793
10.8836
6.45136
18.7669
-69.2606
-69.2591
-74.6555
-63.995
-32.0046
-33.1748
-32.6071
-33.0896
-35.6481
-37.4635
-38.7824
-35.6898
-35.4043
-37.0407
-36.2051
-36.1063
-46.3835
-46.8203
-44.8946
-54.3747
-58.0317
-52.8312
-52.8848
-48.302
-57.9834
-52.7959
-52.855
-48.2749
-66.7628
-61.0909
-61.0888
-56.7438
-33.0949
-27.7536
-27.7482
-22.6411
180.529
176.949
182.476
180.582
-36.7997
-36.9816
-37.7841
-38.1966
-36.7905
-36.9755
-37.7749
-38.1871
-35.0993
-35.1502
-35.1878
-35.0982
-77.3428
-52.7979
-92.2656
-77.4023
-48.5975
-45.4276
-46.1019
-43.9961
-48.5339
-45.3766
-46.051
-43.9534
-41.8834
-41.5764
-41.5746
-41.0574
-36.4048
-37.8105
-37.811
-39.6289
-26.9463
-27.4621
-25.8924
-26.8227
46.5468
26.96
-79.0054
125.208
-108.292
-120.737
-91.8204
-93.0048
-75.4399
-61.8684
-71.5944
-67.1582
-35.4746
-35.1795
-37.0004
-33.1816
-35.806
-35.5365
-37.8518
-34.3097
-44.5123
-48.7331
-50.7498
-47.4875
-1.57998
1.95769
-91.8997
121.385
99.8341
121.969
-53.6804
135.816
-70.7363
-61.2128
-70.0415
-58.4672
-33.5418
-33.3249
-36.3504
-31.5537
-29.4886
-28.161
-29.6911
-28.1187
-36.8448
-39.8017
-40.0342
-36.0258
-108.279
-120.862
-91.8463
-91.58
49.9563
28.1396
-82.5029
123.554
-75.4756
-62.1545
-71.6734
-67.1721
-35.7582
-35.4945
-37.8013
-34.252
-35.3932
-35.0949
-36.8769
-33.116
-44.5805
-48.7131
-50.6809
-47.4858
100.732
121.89
-53.7748
135.832
-1.49017
2.27286
-92.4884
121.44
-70.8546
-61.2103
-69.9903
-58.5211
-29.3847
-28.0603
-29.6386
-27.9562
-33.4084
-33.2192
-36.2296
-31.5167
-36.7599
-39.7476
-39.9498
-35.9782
-38.3912
-40.0346
-37.8571
-40.926
-33.0434
-32.5838
-32.5114
-33.293
-34.8508
-34.9661
-39.7081
-34.3668
-37.9146
-39.0602
-40.093
-37.3751
-36.5262
-38.3377
-38.2549
-38.0728
-33.278
-32.9391
-33.1277
-34.0852
-34.5006
-34.6335
-34.8352
-33.9994
-37.6934
-37.963
-37.1299
-38.7859
-35.4407
-41.509
-37.7415
-32.238
-36.0735
-36.9289
-36.2979
-37.324
-45.3021
-46.2544
-44.4153
-56.882
-6.07235
5.40206
-3.14228
4.11067
-45.4003
-44.9539
-43.2789
-46.3342
-40.3706
-39.1214
-39.8444
-40.4695
-46.578
-47.7153
-44.7867
-51.816
-57.3892
-67.8629
-65.7003
-62.8242
-38.3776
-40.0219
-37.8497
-40.9148
-37.9096
-39.0574
-40.0886
-37.3713
-33.0362
-32.5771
-32.5028
-33.2866
-34.858
-34.9808
-39.7129
-34.3664
-36.534
-38.3204
-38.2616
-38.0657
-37.6879
-37.9604
-37.1255
-38.7832
-33.2671
-32.9304
-33.1184
-34.0775
-34.4602
-34.6233
-34.8241
-34.0091
-35.3984
-41.5093
-37.7164
-32.1826
-6.0719
5.40478
-3.1464
4.14071
-36.0799
-37.0205
-36.2852
-37.3343
-45.3075
-46.2355
-44.4188
-56.8773
-45.4602
-44.9387
-43.2976
-46.36
-57.2748
-67.8492
-65.6248
-62.8237
-40.4204
-39.109
-39.9625
-40.4482
-46.5574
-47.6956
-44.7748
-51.7864
-87.5996
-69.7992
-79.0318
-76.6475
169.49
174.728
176.158
175.175
-105.755
-82.7436
-94.2037
-94.1989
43.8914
170.145
145.284
145.079
-52.5756
-52.8778
-58.8689
-48.1281
-56.9609
-60.1303
-63.8612
-54.8474
-41.2458
-47.325
-45.0046
-44.1782
-30.6622
-28.9346
-30.5469
-29.449
-40.4407
-42.5895
-41.7445
-41.7497
-32.344
-30.2766
-31.9712
-31.9529
-43.5699
-44.7606
-42.6248
-47.785
-41.5287
-41.6339
-40.8843
-42.3025
-64.4238
-44.888
-52.7446
-52.742
176.468
198.898
179.079
177.277
-55.2638
-53.0136
-48.9365
-58.6614
-34.3361
-30.509
-36.7395
-27.8671
-31.7468
-34.7
-33.3512
-33.348
-23.8667
-25.1798
-25.1074
-25.2133
-47.2749
-48.4189
-47.9915
-46.6365
-39.585
-38.2901
-40.7694
-37.2992
-87.2003
-69.7048
-78.8329
-76.5192
170.308
174.649
175.219
176.603
-52.5342
-52.8388
-58.8103
-48.0938
-56.9506
-60.1245
-63.853
-54.84
-41.1328
-47.2432
-44.0687
-44.9036
-30.5693
-28.7974
-30.4487
-29.3119
-43.5172
-44.7086
-42.58
-47.7245
-41.5193
-41.6287
-40.8779
-42.2942
-55.2194
-52.986
-58.6173
-48.9128
-34.3303
-30.5046
-27.8654
-36.7378
-47.2232
-48.3794
-46.6037
-47.9186
-39.5723
-38.285
-37.294
-40.7566
-34.5018
-35.3394
-34.5088
-34.8599
-34.1715
-34.8519
-34.5858
-34.672
-37.5996
-41.8512
-39.456
-39.5862
-35.8245
-36.2457
-35.6624
-36.6528
-44.7539
-49.8362
-47.039
-47.0405
-36.6271
-35.5957
-35.9904
-35.9894
-36.7893
-37.1125
-36.4583
-37.1291
-35.6414
-41.4576
-38.467
-38.6936
-36.2771
-35.575
-35.9007
-35.902
-40.2864
-40.6823
-40.2651
-40.264
-42.6997
-40.1588
-41.3793
-41.1563
-79.4629
-72.5121
-52.6438
-82.335
-3.83694
-14.3588
-9.71643
-9.71185
18.2472
-5.66526
6.88809
6.95143
-83.8121
-92.2157
-86.9635
-86.9823
-53.3379
-45.2233
-49.0433
-49.0421
-34.4908
-35.3289
-34.4975
-34.8504
-34.1663
-34.8488
-34.5816
-34.6674
-37.584
-41.8274
-39.5643
-39.434
-35.8093
-36.2308
-35.6428
-36.64
-36.7794
-37.1037
-37.1231
-36.4556
-35.628
-41.4274
-38.4446
-38.6733
-42.6837
-40.1475
-41.1491
-41.3657
-79.3351
-72.5014
-82.3241
-52.6333
-91.191
-78.5996
-80.2102
-70.1924
-39.135
-35.9986
-41.754
-39.3107
-38.6048
-38.2657
-41.6325
-39.4316
-81.1997
-73.7013
-75.2427
-67.8298
-90.8561
-78.4985
-79.9912
-70.1088
-81.2277
-73.6183
-75.1535
-67.7925
-38.5809
-38.2436
-41.611
-39.409
-39.1164
-35.9771
-41.7323
-39.2888
-102.526
-83.5502
-92.9347
-78.9921
-102.524
-83.5247
-92.9175
-78.9782
-44.5393
-43.5186
-48.3152
-46.4652
-44.5471
-43.5239
-48.322
-46.4698
-68.0746
-55.1528
-55.1749
-47.5382
-20.194
-11.3931
-19.6069
-13.0028
-20.1858
-11.3906
-19.6155
-13.0046
-68.0739
-55.1556
-55.1671
-47.5541
182.458
62.1404
166.588
101.39
170.437
160.126
193.722
180.746
160.214
170.376
180.706
193.811
64.6102
182.438
101.338
166.878
-33.8514
-33.9476
-34.1183
-34.4761
-34.6605
-35.2146
-35.0424
-35.4637
-40.9611
-42.2772
-39.4054
-40.8242
-39.093
-41.3075
-38.1101
-40.3648
-33.8382
-33.9344
-34.1059
-34.4614
-39.0898
-41.3104
-38.103
-40.3561
-40.9591
-42.2707
-39.401
-40.8147
-34.6514
-35.1994
-35.0339
-35.4532
-34.7784
-35.8578
-34.9629
-35.6738
-35.8543
-34.774
-35.6712
-34.9592
-35.8881
-35.1133
-35.6907
-35.0931
-35.1189
-35.8929
-35.0977
-35.6942
-27.3562
1.55333
-22.4555
-0.00707275
-65.7535
-72.2058
-77.9985
-81.5837
-72.1963
-65.7222
-81.5763
-77.9803
1.55968
-27.3658
-0.0014064
-22.5324
-38.5682
-36.0266
-40.6004
-38.542
-42.7899
-47.0446
-46.0568
-49.4874
-40.554
-41.6742
-42.8561
-44.1219
-40.0095
-38.0538
-41.2492
-37.9359
-38.5493
-36.0093
-40.5721
-38.5212
-40.0077
-38.0418
-41.2182
-37.9387
-40.4433
-41.5819
-42.7541
-44.0279
-42.7148
-46.9671
-45.973
-49.4136
-39.0989
-39.6289
-40.2982
-40.0317
-39.0939
-39.6254
-40.2937
-40.0295
-41.3817
-43.6941
-42.1877
-43.5824
-41.4014
-43.7341
-42.202
-43.5959
-51.2137
-53.9745
-46.3197
-49.4917
-32.0772
-34.035
-33.5676
-35.1638
-32.0472
-34.0101
-33.5565
-35.1516
-51.2311
-53.9728
-46.3163
-49.4875
-32.2388
-32.9742
-31.5332
-32.0612
-32.9304
-32.1737
-32.018
-31.4786
-27.9472
-29.8798
-27.1669
-29.0243
-30.0164
-28.1351
-29.1795
-27.3454
-64.1869
140.884
-115.154
104.314
-96.5858
-88.758
-37.269
-40.3025
-38.6854
-37.2138
-41.425
-38.7477
-84.0156
99.2953
-37.2556
94.6612
-78.14
-54.3354
-36.7998
-31.2616
-30.8289
-30.1718
-37.3579
-33.2796
-115.229
104.559
-64.489
138.65
-96.6648
-88.7824
-38.5479
-38.147
-37.0946
-39.9269
-41.2948
-38.6658
-37.3363
94.8623
-84.2928
98.8463
-78.4432
-54.172
-30.7408
-30.046
-36.7111
-31.2703
-37.2548
-33.2044
-39.8468
-38.4981
-32.777
-34.0292
-39.1181
-33.324
-37.8986
-35.7012
-39.77
-38.7841
-32.9836
-35.2149
-33.0864
-36.1564
-36.6946
-40.1993
-34.6677
-30.7343
-34.6499
-37.7918
-41.6388
-43.4413
-22.5348
-18.8301
-44.2629
-48.1595
-41.2226
-42.5457
-43.738
-50.3947
-52.9281
-52.8762
-39.8381
-38.4891
-37.8917
-35.7006
-32.7734
-34.0229
-39.1229
-33.322
-39.7641
-38.7543
-36.6892
-40.1882
-32.9625
-35.2082
-33.0772
-36.1448
-34.6529
-30.7626
-22.5406
-18.9072
-34.6391
-37.7891
-41.6311
-43.3681
-44.2686
-48.1676
-52.8748
-52.8401
-41.3963
-42.5604
-43.6932
-50.3568
-88.8138
118.782
-92.4506
118.593
-104.422
-100.492
156.178
156.691
-63.0716
-72.3561
-63.892
-72.6197
-93.7024
-93.7483
91.3161
91.3026
-59.7024
-59.3547
-43.2628
-45.0952
-57.7895
-47.2305
-58.1764
-50.4974
-36.8843
-32.4531
-36.0511
-31.5678
-39.0687
-38.3787
-31.3815
-30.7811
-37.1779
-33.6057
-37.153
-33.5695
-38.7619
-38.7722
-32.7363
-32.7161
-45.2601
-45.1704
-40.328
-40.1123
-41.5174
-47.2539
-40.3873
-42.5733
-51.2724
139.483
-51.1127
139.629
-88.4524
-88.3544
170.752
172.58
-60.0928
-48.5385
-46.2657
-40.3022
-50.908
-60.5283
-39.4068
-33.2493
-29.7975
-25.306
-29.7734
-25.1459
-30.4341
-30.4232
-23.705
-23.8085
-43.0553
-38.6198
-44.5495
-46.793
-45.6032
-45.9078
-43.7041
-38.9807
-92.2071
119.256
-93.9714
118.638
-104.337
-100.823
157.04
156.259
-59.6703
-59.3493
-43.2415
-45.0817
-57.7345
-47.2017
-58.3491
-50.4854
-36.7735
-32.3855
-35.9352
-31.4753
-38.2656
-38.9502
-31.3133
-30.693
-45.198
-45.1564
-40.2943
-40.1019
-41.4696
-47.1981
-40.3768
-42.5607
-60.0138
-48.5407
-46.2605
-40.349
-60.6234
-50.8755
-33.1973
-39.4055
-42.9876
-38.5993
-44.554
-46.7728
-45.8729
-45.5455
-38.9634
-43.6872
-32.4547
-33.075
-32.8301
-33.4109
-33.1888
-33.4416
-33.5826
-33.7743
-38.9714
-34.8076
-36.6247
-37.3805
-40.5384
-38.9623
-34.751
-35.599
-40.7657
-38.0723
-40.7635
-38.0703
-42.6403
-42.6415
-37.3412
-37.3402
-35.3313
-34.961
-38.1151
-38.1077
-36.4627
-37.2999
-35.9041
-36.2506
-37.3411
-38.9394
-37.3771
-38.9378
-36.8259
-36.8271
-39.9769
-39.9772
-45.0749
-54.2246
-45.2553
-53.9162
-43.6726
-43.7316
-67.6158
-64.3154
3.98188
14.4617
3.98612
14.4665
0.37414
0.376443
20.474
20.4732
-72.9605
-63.6438
-72.9205
-63.6928
-79.0508
-79.0897
-58.1278
-58.1232
-32.4497
-33.0683
-32.8233
-33.4036
-33.1799
-33.4303
-33.5768
-33.768
-38.982
-34.8106
-36.4141
-37.4372
-38.8264
-40.5155
-34.7364
-35.5768
-35.3266
-34.9519
-38.1159
-38.0959
-37.2978
-36.4487
-35.8937
-36.2408
-45.0707
-54.2043
-45.2357
-53.8869
-43.7185
-43.6544
-64.0788
-67.5516
-63.7656
-63.2166
-58.4167
-48.2066
-48.3707
-58.0896
-44.7158
-44.7498
-63.6912
-63.1575
-58.3635
-48.176
-58.0535
-48.3471
-44.7239
-44.6883
-73.1933
-73.1904
-66.2535
-56.6096
-66.2493
-56.6057
-53.064
-53.0657
-39.0054
-39.006
-34.0268
-24.1257
-24.1236
-34.0243
-18.9314
-18.937
172.256
170.107
179.813
179.798
198.886
198.804