# vtk DataFile Version 2.0
tet_velo
ASCII
DATASET UNSTRUCTURED_GRID
POINTS 29498 float
-0.572412 0.075 -2.105
-0.72586 0.165 1.975
-0.725 0.552372 -1.935
-0.485 1.195 2.00943
0.572407 0.075 -2.105
0.725855 0.165 1.975
0.725 0.552373 -1.935
0.485 1.195 2.00943
-0.646631 0.0819307 -0.745
-0.718793 0.0909178 0.615
-0.781356 0.902938 -0.62019
-0.696713 1.1125 0.69462
0.646799 0.0817577 -0.745
0.718782 0.0909241 0.615
0.78141 0.902992 -0.62019
0.69671 1.1125 0.69462
-1.25324 -0.444311 -3.23423
-1.26505 -0.320932 -2.16433
-1.31589 -0.313657 -0.803161
-1.3512 -0.347504 0.567102
-1.34642 -0.309103 1.92904
-1.35416 -0.234172 3.00269
-1.37186 -0.143183 4.0694
-1.26438 -0.103668 -3.16548
-1.28251 0.0570649 -2.10051
-1.34225 0.114608 -0.748136
-1.35866 0.126188 0.608307
-1.31923 0.180872 1.96155
-1.34289 0.256151 3.03456
-1.37281 0.343521 4.10274
-1.33348 0.508576 -3.01529
-1.40056 0.661685 -1.94845
-1.4427 0.933292 -0.626883
-1.34845 1.10922 0.691484
-1.18816 1.19595 2.01392
-1.27898 1.26276 3.0888
-1.36134 1.33591 4.16427
-1.3822 1.66499 -2.82398
-1.41696 1.85292 -1.76391
-1.43769 2.16955 -0.456993
-1.41156 2.45563 0.840184
-1.37004 2.63329 2.14757
-1.37418 2.72261 3.20863
-1.40737 2.79591 4.27916
-0.586048 -0.434828 -3.23715
-0.590886 -0.304358 -2.16858
-0.634491 -0.327153 -0.80259
-0.680571 -0.375307 0.572815
-0.694307 -0.328595 1.93902
-0.710511 -0.248635 3.00947
-0.727331 -0.153966 4.07332
-0.583559 -0.107733 -3.16637
-0.725633 0.245301 3.04015
-0.739909 0.334892 4.1057
-0.636351 0.460914 -3.0097
-0.671969 1.26024 3.0879
-0.740638 1.33285 4.16408
-0.683363 1.62824 -2.81845
-0.713204 1.81623 -1.75782
-0.741587 2.15469 -0.453324
-0.744334 2.46121 0.839744
-0.731308 2.64227 2.14443
-0.74188 2.72876 3.20548
-0.772354 2.79944 4.27688
0.683753 -0.434846 -3.23715
0.631174 -0.304394 -2.16858
0.674068 -0.327267 -0.802591
0.723378 -0.375327 0.572815
0.717287 -0.328599 1.93902
0.634271 -0.248641 3.00947
0.58514 -0.153974 4.07332
0.689526 -0.107742 -3.16637
0.586643 0.245297 3.04015
0.551079 0.334886 4.1057
0.73412 0.460914 -3.0097
0.499565 1.26024 3.0879
0.503588 1.33284 4.16408
0.71787 1.62824 -2.81845
0.707488 1.81623 -1.75782
0.676412 2.1547 -0.453324
0.609549 2.46121 0.839743
0.540549 2.64226 2.14443
0.511683 2.72875 3.20548
0.493442 2.79943 4.27688
1.33744 -0.444353 -3.23423
1.29523 -0.321003 -2.16433
1.34454 -0.313807 -0.803161
1.3961 -0.34756 0.567102
1.37729 -0.309118 1.92904
1.30554 -0.234187 3.00269
1.25156 -0.143201 4.0694
1.34137 -0.103692 -3.16548
1.28389 0.057031 -2.10051
1.34326 0.114457 -0.748137
1.38086 0.126143 0.608307
1.33751 0.180866 1.96155
1.2581 0.256141 3.03456
1.21433 0.343505 4.10275
1.3992 0.508571 -3.01528
1.39512 0.661696 -1.94845
1.43244 0.933284 -0.626883
1.35263 1.10919 0.691484
1.18351 1.19595 2.01392
1.15501 1.26276 3.0888
1.15352 1.33589 4.16427
1.40921 1.66498 -2.82398
1.40396 1.85292 -1.76391
1.37372 2.16955 -0.456994
1.29291 2.45562 0.840184
1.20046 2.63328 2.14757
1.15951 2.72259 3.20863
1.14022 2.7959 4.27916
-0.625534 0.313686 -1.99683
-2.5034e-06 0.0720555 -2.10794
-0.609194 0.0787926 -1.425
-0.62055 0.68 2.00733
-2.5034e-06 0.208425 1.93157
-0.728888 0.121398 1.295
0 0.659535 -2.04216
-0.811116 0.785592 -1.2776
0 1.19142 2.00585
-0.611486 1.17438 1.35203
0.625554 0.313686 -1.99685
0.609848 0.0781337 -1.425
0.620595 0.68 2.00738
0.731184 0.119096 1.295
0.811142 0.78562 -1.2776
0.611463 1.17436 1.35203
-0.682744 0.086392 -0.065
-0.845223 0.492434 -0.682595
8.40109e-05 0.0707035 -0.745
-0.864733 0.601711 0.65481
-5.64992e-06 0.0707912 0.615
-0.741819 1.0105 0.037215
2.68686e-05 1.18734 -0.62019
-1.7649e-06 1.41361 0.69462
0.682759 0.086372 -0.065
0.84522 0.492375 -0.682595
0.864729 0.601713 0.65481
0.741825 1.01051 0.037215
-0.868429 0.40306 -1.3513
-0.859989 0.547073 -0.0138925
-0.892995 0.640856 1.32351
4.07538e-05 0.0705094 -1.425
3.91805e-05 0.0707464 -0.065
-4.07666e-06 0.0718721 1.295
-1.2517e-06 0.313686 -2.08085
-1.2517e-06 0.68 2.08662
1.34343e-05 0.925629 -1.2776
1.25519e-05 1.40564 0.037215
-8.8245e-07 1.32434 1.35203
0.868428 0.403031 -1.3513
0.859983 0.547044 -0.0138925
0.893217 0.640856 1.32351
-0.92746 0.0660325 -2.10276
-0.581649 -0.114679 -2.13679
-0.577986 -0.0163667 -2.63569
-1.02255 0.172936 1.96827
-0.710084 -0.0817977 1.95701
-0.725746 0.20515 2.50758
-1.06278 0.607028 -1.94173
-0.680676 0.506643 -2.47235
-0.719102 1.1843 -1.84641
-0.836581 1.19548 2.01167
-0.578485 1.22762 2.54867
-0.608154 1.91864 2.07693
0.60179 -0.114697 -2.13679
0.630966 -0.0163709 -2.63569
0.928149 0.0660155 -2.10276
0.721571 -0.0817994 1.95701
0.656249 0.205149 2.50758
1.03168 0.172933 1.96827
0.72956 0.506643 -2.47235
0.716244 1.1843 -1.84641
1.06006 0.607034 -1.94173
0.492283 1.22762 2.54867
0.512775 1.91863 2.07693
0.834256 1.19547 2.01167
-0.994442 0.0982692 -0.746568
-0.640561 -0.122611 -0.773795
-1.03873 0.108553 0.611653
-0.699682 -0.142195 0.593908
-1.11203 0.918115 -0.623537
-0.761472 1.52882 -0.536757
-1.02258 1.11086 0.693052
-0.720524 1.78686 0.767182
0.660433 -0.122755 -0.773795
0.995031 0.0981073 -0.746568
0.72108 -0.142201 0.593908
1.04982 0.108534 0.611653
0.728911 1.52884 -0.536757
1.10693 0.918138 -0.623537
0.65313 1.78685 0.767182
1.02467 1.11085 0.693052
-1.25914 -0.382621 -2.69928
-1.25881 -0.27399 -3.19985
-0.919645 -0.439569 -3.23569
-1.29047 -0.317294 -1.48375
-1.27378 -0.131933 -2.13242
-0.927966 -0.312645 -2.16646
-1.33355 -0.33058 -0.118029
-1.32907 -0.0995248 -0.775649
-0.975192 -0.320405 -0.802876
-1.34881 -0.328303 1.24807
-1.35493 -0.110658 0.587704
-1.01589 -0.361405 0.569959
-1.35029 -0.271638 2.46586
-1.33282 -0.0641159 1.94529
-1.02036 -0.318849 1.93403
-1.36301 -0.188677 3.53604
-1.34852 0.0109893 3.01863
-1.03233 -0.241404 3.00608
-1.37234 0.100169 4.08607
-1.04959 -0.148574 4.07136
-1.27344 -0.0233017 -2.63299
-1.29893 0.202454 -3.09038
-0.923967 -0.105701 -3.16593
-1.31238 0.0858363 -1.42432
-1.34153 0.359375 -2.02448
-1.35046 0.120398 -0.0699149
-1.39247 0.52395 -0.68751
-1.33895 0.15353 1.28493
-1.35356 0.617703 0.649895
-1.33106 0.218511 2.49806
-1.2537 0.688412 1.98773
-1.35785 0.299836 3.56865
-1.31093 0.759457 3.06168
-1.03426 0.250726 3.03736
-1.36708 0.839715 4.13351
-1.05636 0.339207 4.10422
-1.36702 0.58513 -2.48187
-1.35784 1.08678 -2.91963
-0.984914 0.484745 -3.01249
-1.42163 0.797488 -1.28767
-1.40876 1.2573 -1.85618
-1.39557 1.02125 0.0323001
-1.4402 1.55142 -0.541938
-1.26831 1.15259 1.3527
-1.38 1.78242 0.765834
-1.23357 1.22936 2.55136
-1.2791 1.91462 2.08075
-1.32016 1.29934 3.62654
-1.32658 1.99269 3.14871
-0.975472 1.2615 3.08835
-1.38436 2.06591 4.22171
-1.05099 1.33438 4.16417
-1.39958 1.75896 -2.29394
-1.03278 1.64662 -2.82121
-1.42733 2.01123 -1.11045
-1.06508 1.83458 -1.76087
-1.42463 2.31259 0.191595
-1.08964 2.16212 -0.455158
-1.3908 2.54446 1.49388
-1.07794 2.45842 0.839964
-1.37211 2.67795 2.6781
-1.05068 2.63778 2.146
-1.39078 2.75926 3.74389
-1.05803 2.72568 3.20705
-1.08986 2.79768 4.27802
-0.588467 -0.369593 -2.70286
-0.584804 -0.27128 -3.20176
0.0488522 -0.434837 -3.23715
-0.612689 -0.315756 -1.48559
0.0201439 -0.304376 -2.16858
-0.657531 -0.35123 -0.114888
0.0197886 -0.32721 -0.80259
-0.687439 -0.351951 1.25592
0.0214032 -0.375317 0.572815
-0.702409 -0.288615 2.47424
0.0114899 -0.328597 1.93902
-0.718921 -0.201301 3.54139
-0.718072 -0.00166728 3.02481
-0.03812 -0.248638 3.00947
-0.73362 0.0904631 4.08951
-0.0710953 -0.15397 4.07332
-0.609955 0.17659 -3.08804
0.0529832 -0.107738 -3.16637
-0.732771 0.290097 3.57293
-0.698801 0.752771 3.06403
-0.0694947 0.245299 3.04015
-0.740273 0.83387 4.13489
-0.0944149 0.334889 4.1057
-0.659857 1.04458 -2.91407
0.0488842 0.460914 -3.0097
-0.706304 1.29654 3.62599
-0.706925 1.9945 3.14669
-0.0862019 1.26024 3.0879
-0.756496 2.06614 4.22048
-0.118525 1.33284 4.16408
-0.698284 1.72224 -2.28814
0.0172535 1.62824 -2.81845
-0.727396 1.98546 -1.10557
-0.00285803 1.81623 -1.75782
-0.742961 2.30795 0.19321
-0.0325875 2.1547 -0.453324
-0.737821 2.55174 1.49209
-0.0673922 2.46121 0.839744
-0.736594 2.68552 2.67496
-0.0953796 2.64227 2.14443
-0.757117 2.7641 3.74118
-0.115099 2.72876 3.20548
-0.139456 2.79943 4.27688
0.657463 -0.36962 -2.70286
0.686639 -0.271294 -3.20176
1.0106 -0.439599 -3.23569
0.652621 -0.315831 -1.48559
0.9632 -0.312699 -2.16646
0.698723 -0.351297 -0.114888
1.00931 -0.320537 -0.802876
0.720332 -0.351963 1.25592
1.05974 -0.361443 0.569959
0.675779 -0.28862 2.47424
1.04729 -0.318858 1.93403
0.609706 -0.201308 3.54139
0.610457 -0.00167174 3.02481
0.969907 -0.241414 3.00608
0.568109 0.0904557 4.08951
0.918351 -0.148588 4.07136
0.711823 0.176586 -3.08804
1.01545 -0.105717 -3.16592
0.568861 0.290092 3.57293
0.543104 0.752768 3.06403
0.922372 0.250719 3.03736
0.527333 0.833864 4.13489
0.882702 0.339196 4.10422
0.725995 1.04458 -2.91407
1.06666 0.484743 -3.01249
0.501577 1.29654 3.62599
0.505624 1.9945 3.14669
0.827289 1.2615 3.08835
0.498515 2.06613 4.22048
0.828556 1.33437 4.16417
0.712679 1.72224 -2.28814
1.06354 1.64661 -2.82121
0.69195 1.98547 -1.10557
1.05572 1.83458 -1.76087
0.642981 2.30795 0.19321
1.02506 2.16212 -0.455159
0.575049 2.55174 1.49209
0.951228 2.45841 0.839964
0.526116 2.68551 2.67496
0.870504 2.63777 2.146
0.502563 2.76409 3.74118
0.835597 2.72567 3.20705
0.816832 2.79766 4.27802
1.31633 -0.382678 -2.69928
1.3394 -0.274022 -3.19985
1.31989 -0.317405 -1.48375
1.28956 -0.131986 -2.13242
1.37032 -0.330684 -0.118029
1.3439 -0.0996753 -0.775649
1.38669 -0.328339 1.24807
1.38848 -0.110708 0.587704
1.34141 -0.271652 2.46586
1.3574 -0.0641259 1.94529
1.27855 -0.188694 3.53604
1.28182 0.010977 3.01863
1.23294 0.100152 4.08607
1.31263 -0.0233306 -2.63299
1.37029 0.20244 -3.09038
1.31358 0.0857439 -1.42432
1.33951 0.359363 -2.02448
1.36206 0.1203 -0.0699149
1.38785 0.523871 -0.68751
1.35918 0.153504 1.28493
1.36675 0.617667 0.649895
1.2978 0.218503 2.49806
1.26051 0.688407 1.98773
1.23621 0.299823 3.56865
1.20656 0.759448 3.06168
1.18392 0.8397 4.13351
1.39716 0.585134 -2.48187
1.40421 1.08678 -2.91963
1.41378 0.79749 -1.28767
1.39954 1.25731 -1.85618
[...]
POINT_DATA 29498
VECTORS point_vectors float
-7.07701 -11.1718 13.3629
0.00103776 0.225995 0.76341
-5.09956 1.16841 5.93408
0.250594 -0.029143 1.08535
7.0919 -11.1582 13.3656
-0.0023676 0.233158 0.781892
5.10291 1.16672 5.93186
-0.233592 -0.0448502 1.08559
-0.000118234 -9.76235e-06 0.00960312
0.0143402 0.0121969 0.472108
0 0 0
0.00965402 0.0172601 0.0538688
7.31457e-05 -2.24759e-05 0.0064777
-0.0133289 0.0118628 0.470503
0 0 0
-0.00976863 0.0174491 0.0546665
-0.522888 -0.344486 19.7665
-1.38964 -1.12945 20.3077
-0.446561 -0.586689 21.6234
0.0540657 -0.142309 21.6396
0.497605 0.262535 21.6158
0.787129 0.421998 21.3904
0.842844 0.478481 20.883
-0.722758 -0.304815 19.6126
-2.36454 -1.10897 20.1029
-0.715928 -0.772857 21.7928
-0.0370821 -0.349095 21.7885
0.877613 0.162514 21.585
1.15981 0.278088 21.2201
1.06279 0.211941 20.6106
-0.986882 0.00632677 19.447
-2.53012 0.190023 20.2373
-1.54405 -0.3096 21.6623
-0.375073 -0.304816 22.0537
0.671407 -0.706934 21.6708
0.907918 -0.761313 21.2879
0.882572 -0.643536 20.8432
-0.646987 0.504069 19.8846
-0.998118 0.793763 20.4185
-0.744389 0.516489 21.2303
-0.214936 0.0642936 21.5107
0.0593047 -0.237908 21.3429
0.167628 -0.284857 21.2182
0.176719 -0.284997 21.0274
-0.387798 -0.599874 19.4131
-1.57377 -3.48444 19.9729
-0.142349 -0.349311 22.1286
0.105236 0.10058 21.7125
0.274759 0.7932 21.3885
0.539347 1.15231 20.7594
0.564309 1.35828 19.4919
-0.558753 -0.600715 18.9289
0.362118 1.5637 8.08307
2.20673 0.963509 11.6709
-0.940006 -0.0301665 18.3251
1.32224 -0.714881 13.6679
1.0184 -1.0086 19.68
-0.550491 0.926192 19.4265
-0.981034 1.71191 20.1191
-0.858152 1.33686 21.3651
-0.243258 0.203168 21.7705
0.0470922 -0.265321 21.4559
0.158984 -0.497666 21.2988
0.0951928 -0.321895 20.8691
0.427194 -0.566534 19.4318
1.66372 -3.31425 19.9496
0.135742 -0.389767 22.1561
-0.119699 0.0879748 21.6889
-0.292552 0.796468 21.4123
-0.462052 1.1645 20.3684
-0.241512 1.78721 18.0668
0.629489 -0.556287 19.0435
0.494901 1.27042 4.82465
-2.01004 1.46682 8.76377
1.03901 -0.0365384 18.4837
-1.15401 -0.579096 8.9774
-1.22523 -1.17294 14.6413
0.569257 0.902685 19.4461
0.976455 1.71973 20.1168
0.809801 1.44366 21.3572
0.221837 0.239976 21.8012
-0.0246566 -0.282996 21.5066
-0.107317 -0.452862 21.2236
-0.0478555 -0.335908 20.8726
0.516043 -0.302098 19.8128
1.35594 -1.08236 20.3295
0.452021 -0.583798 21.6114
-0.0419902 -0.130785 21.6267
-0.49707 0.250352 21.6107
-0.815284 0.465409 21.4039
-0.877521 0.648044 20.9007
0.704911 -0.271189 19.6763
2.3628 -1.10953 20.101
0.71804 -0.774372 21.7882
0.0461707 -0.338099 21.793
-0.864396 0.148941 21.5968
-1.23749 0.376118 20.9969
-1.34712 0.467659 20.558
0.954985 0.0031509 19.5064
2.54094 0.199038 20.2342
1.56413 -0.316026 21.6758
0.374308 -0.304515 22.0526
-0.676521 -0.717867 21.6661
-0.947572 -0.875267 21.3234
-0.975997 -0.782602 20.6571
0.64086 0.489869 19.8994
1.00313 0.805687 20.4141
0.770302 0.570748 21.2499
0.230065 0.0699621 21.5584
-0.0632803 -0.261194 21.3636
-0.134541 -0.347139 21.2874
-0.176172 -0.348414 21.0164
-3.56351 -0.613989 1.21331
0.055213 -3.70489 1.58022
-0.00395528 0.00150081 0.0575319
-0.00298462 0.00259149 -0.0038769
0.00114801 -0.0116286 -0.0138286
-0.00557832 0.00102709 0.116557
0.0042959 2.3679 2.25174
-0.37075 -0.0979967 1.21559
0.00368954 0.0256553 0.0156671
0.0201904 0.0144989 0.0900301
3.56769 -0.620488 1.21935
0.00468082 0.00177329 0.0668617
0.00319978 0.0025731 -0.00404568
0.007218 0.00254168 0.160312
0.367584 -0.0968328 1.20489
-0.019835 0.0141391 0.0892854
-0.000978814 0.00111057 0.0551636
0.000217468 0.000308081 0.0130607
0 0 0
-0.000376077 0.00260093 0.00946738
1.36231e-08 1.04395e-08 2.94832e-06
0.00773906 0.020467 0.0606172
3.16107e-05 0.0569582 0.124483
6.87134e-06 -0.000811886 0.0189733
0.000757486 0.000763963 0.0386536
-0.000202281 0.000309783 0.0133141
0.000365325 0.0025279 0.0092058
-0.0077915 0.0205776 0.0609808
-0.00268558 -0.011415 0.114324
7.1186e-05 0.00332678 0.018222
0.00173727 0.00635254 0.0341875
1.38569e-07 -3.0337e-08 1.1335e-06
-5.57657e-08 4.54864e-09 3.82576e-06
1.14157e-07 -4.81796e-07 -4.28627e-05
-0.00012815 -0.158491 0.0706037
0 0 0
4.21771e-07 0.00219964 0.0161387
-1.17831e-05 0.0355629 0.173752
2.48128e-05 -0.000944908 0.00554006
0.00269141 -0.0115149 0.114687
-7.08263e-05 0.00331135 0.0181473
-0.00241949 0.00871369 0.0469367
-4.33466 -3.03152 19.1686
-2.77406 -5.79537 19.5064
-1.53465 -1.76 17.7367
1.00313 1.06149 15.4899
0.0721693 1.11936 15.8739
-0.250912 0.987427 5.59637
-4.84442 0.646031 19.7931
-3.01743 0.503997 16.1685
-2.65015 3.13668 19.562
1.18915 -0.115552 15.0592
0.890023 -0.0916139 7.69793
0.0515097 -0.595511 21.7371
2.83215 -5.65765 19.5283
1.59434 -1.60416 17.9254
4.32482 -2.97324 19.1883
-0.0784573 1.14381 16.004
0.695715 0.843878 4.2979
-1.04055 1.05195 16.1808
3.06516 0.425149 16.5689
2.65009 3.15378 19.5581
4.88018 0.65772 19.7864
-0.634611 -0.0641336 5.52726
-0.0179674 -0.589973 21.7217
-1.18836 -0.131782 14.979
0.00964823 -0.467175 16.9249
0.0684307 0.0482463 17.4615
0.0474414 0.00753598 16.9844
0.124685 0.229358 17.2869
-2.40105 -0.883446 21.8994
-2.74071 2.30367 21.5547
-0.271474 -0.253846 20.0951
-0.562556 0.271314 22.3959
-0.0534196 0.0249979 17.7299
-0.00373058 -0.472262 16.9507
-0.116795 0.230353 17.5337
-0.0475808 -0.0285066 17.3677
2.74972 2.50223 21.5169
2.41862 -0.907578 21.8452
0.533684 0.309225 22.4657
0.298278 -0.335259 20.4617
-0.906927 -0.655922 19.8221
-0.612922 -0.351599 19.7016
-0.505609 -0.484358 19.5906
-1.07683 -1.04404 21.344
-1.84621 -1.21929 20.2162
-1.72638 -2.06471 20.1373
-0.134898 -0.332757 21.6033
-0.526594 -0.689932 21.6927
-0.209042 -0.608636 21.8797
0.247867 0.0425864 21.69
0.0533241 -0.246328 21.6974
0.164388 -0.0668776 21.7044
0.67791 0.390463 21.4645
0.693837 0.267715 21.6788
0.522779 0.564838 21.6261
0.872466 0.387887 21.1097
1.036 0.45616 21.1958
0.752727 0.927189 21.0244
0.953049 0.369357 20.6917
0.948237 0.841564 20.6268
-1.38996 -0.616719 19.5639
-0.870064 -0.207485 19.5094
-0.707786 -0.454291 19.3251
-1.75791 -1.12971 21.6243
-2.72168 -0.496654 20.1373
-0.267751 -0.546485 21.7931
-1.14183 -0.683763 21.7986
0.285469 -0.111334 21.846
-0.193164 -0.364743 21.912
1.04793 0.200283 21.3796
1.09966 -0.23479 21.2029
1.36138 0.0828548 21.1974
1.35553 -0.404726 21.3594
1.60296 0.954699 17.7641
1.12332 -0.42448 20.6815
1.6547 0.746608 20.5438
-1.78914 0.104421 19.478
-0.893439 0.38613 19.5927
-1.07758 -0.00579419 18.9352
-2.17145 -0.0618742 21.317
-1.70482 0.813982 20.2992
-0.98669 -0.361553 21.9477
-1.3526 0.449702 21.4096
0.2351 -0.446158 22.0232
-0.397283 -0.00138379 21.809
0.784612 -0.721982 21.4531
0.17159 -0.44461 21.5289
0.799689 -0.745736 21.2956
0.370629 -0.533226 21.1947
1.08313 -0.968367 20.6417
0.353217 -0.469525 20.8931
0.995324 -0.852152 20.4993
-0.860035 0.702558 20.0758
-0.663172 0.717185 19.667
-0.949362 0.716088 20.8547
-1.07747 1.19337 20.287
-0.473905 0.308384 21.4632
-0.886037 0.892743 21.2973
-0.0328081 -0.110815 21.4672
-0.214136 0.13012 21.6303
0.103029 -0.245489 21.1612
0.0662746 -0.26296 21.3689
0.18389 -0.238561 21.0414
0.127395 -0.384813 21.2983
0.16689 -0.3482 21.0032
-0.827052 -1.46469 19.1161
-0.457166 -0.638104 19.2041
0.0415138 -0.729298 19.2519
-0.664512 -1.59058 22.4698
0.0567335 -4.93509 20.0743
0.0101182 -0.035027 21.8336
0.0219584 -0.496548 21.0539
0.196508 0.341974 21.6336
0.00297381 0.0227627 20.083
0.307997 0.960963 20.8522
0.00703355 0.587485 19.0851
0.687987 1.36803 19.7947
0.303728 1.56865 15.5784
-0.0152009 0.806995 17.0583
0.923803 1.54305 15.7698
0.0690372 1.60679 13.3051
-0.728414 -0.422181 18.613
0.0398826 -0.726005 18.6843
1.55592 1.45166 9.79574
1.15889 0.711865 6.27979
-0.254155 -1.39572 -3.59443
2.14485 -0.146959 12.4333
0.483349 -0.547351 1.84142
-0.855249 0.7952 18.702
0.0916088 0.00547254 17.6659
1.29332 -1.21075 16.8552
0.244935 -0.819863 21.3374
0.254776 -0.45861 4.31623
0.152374 -0.569447 21.0878
0.128601 -1.40562 9.88727
-0.79968 1.46067 19.624
0.0144389 1.15408 19.2009
-0.999652 1.66638 20.7301
-0.00438995 2.33023 19.932
-0.545167 0.717052 21.7112
-0.0337976 2.00635 21.3562
-0.0476013 -0.113674 21.6266
-0.025165 0.322524 21.8722
0.0919632 -0.332892 21.3266
-0.00604591 -0.300638 21.4561
0.0866254 -0.343125 21.2458
0.0400642 -0.391978 21.336
-0.0308881 -0.383558 20.9837
0.880853 -1.38965 19.1756
0.521761 -0.600842 19.2783
0.506304 -0.459104 19.6423
0.673836 -1.56999 22.3796
1.69026 -1.91995 20.1769
-0.031507 -0.0682444 21.8724
0.234714 -0.615936 21.8584
-0.211641 0.334216 21.6219
-0.156675 -0.0852663 21.6895
-0.264038 0.981015 20.643
-0.534346 0.548304 21.6323
-0.398003 1.55009 18.4041
0.126353 1.47575 14.0364
-0.705134 0.992782 20.9085
-0.541225 2.04728 14.1405
-0.912677 0.94043 20.8515
0.817712 -0.386123 18.7473
0.719981 -0.421533 19.3791
-1.21369 1.68919 7.97717
-0.383273 0.731852 1.98644
-1.27034 1.2846 14.2925
-2.41396 -0.263685 7.40751
-1.9506 0.885947 16.2044
0.905539 0.766901 18.8043
1.05852 -0.00273792 19.0883
-1.03995 -1.08372 13.0508
-0.149342 -0.860015 21.3011
-1.32171 -0.919009 17.8616
-0.112452 -0.677767 21.3597
-0.99723 -0.984895 19.9523
0.814426 1.44387 19.6335
0.67042 0.701339 19.6817
0.974854 1.72064 20.7191
1.07807 1.20461 20.2826
0.491083 0.80654 21.7525
0.895623 0.952228 21.313
0.0479614 -0.103114 21.6469
0.236006 0.169839 21.6981
-0.0543171 -0.333343 21.23
-0.0522471 -0.252966 21.4092
-0.0348605 -0.34319 21.2134
-0.161502 -0.508521 21.3015
-0.0944157 -0.331348 20.884
0.867878 -0.600167 19.8776
0.600365 -0.306653 19.7518
1.07108 -1.0236 21.3194
1.82107 -1.19104 20.2267
0.142925 -0.334714 21.5892
0.541937 -0.692728 21.6828
-0.246427 0.051201 21.6881
-0.0253207 -0.250007 21.6879
-0.685609 0.398631 21.4647
-0.673377 0.25232 21.6668
-0.957687 0.54584 20.9248
-1.08906 0.556955 21.1251
-0.993994 0.569698 20.7138
1.35081 -0.587274 19.6119
0.83991 -0.184649 19.5657
1.75928 -1.13111 21.6162
2.73336 -0.498352 20.132
0.275296 -0.538926 21.7758
1.14379 -0.690844 21.8057
-0.283344 -0.109493 21.8548
0.193361 -0.35898 21.9294
-1.093 0.221861 21.3716
-1.1 -0.257218 21.3274
-1.60119 0.21171 20.1866
-1.51119 -0.322333 20.5507
-1.44556 -0.466978 20.6193
1.73364 0.10027 19.5357
0.879278 0.36969 19.6363
2.1907 -0.0625977 21.3307
1.71904 0.827497 20.2959
0.991286 -0.364132 21.9537
1.41346 0.488366 21.4285
-0.235524 -0.449467 22.0205
0.418718 0.0105289 21.8538
-0.813207 -0.787129 21.3426
-0.179877 -0.467397 21.5647
-0.964116 -0.867432 21.2289
-0.357069 -0.598472 21.0983
-0.213775 -0.442742 21.1982
0.857723 0.697233 20.0786
0.965625 0.75343 20.8544
0.502174 0.341172 21.478
0.0438166 -0.121218 21.5045
-0.0849553 -0.28904 21.1456
-0.154306 -0.3323 21.107
-1.15097 -0.682842 19.6887
-1.15171 -1.68956 18.5634
-0.978454 -1.06664 19.5224
-1.63512 -1.0664 18.8376
-0.584408 -0.485049 19.4729
-2.64492 -2.63743 19.8485
-1.35863 -1.14215 21.4868
-0.34045 -0.836613 19.6263
-0.931367 -1.5163 21.777
-1.45737 -2.29082 20.4406
-0.0606118 -0.707872 21.4817
-0.143571 -0.425642 21.6745
0.0899337 0.180483 16.9176
0.0394298 -0.237089 21.7499
0.0578058 -0.156424 16.7338
0.241311 -0.112065 20.9383
0.306158 -0.0345622 21.7849
0.181085 0.433487 16.581
0.315208 0.169738 21.7558
0.107776 0.412426 16.3543
0.738936 0.829533 20.1367
0.877694 0.342832 21.4527
0.138139 1.25583 15.6767
0.660255 0.717812 21.4176
1.12841 0.934949 16.7532
1.22973 0.956322 20.2228
1.14287 0.446637 21.1512
0.808279 1.74415 15.5604
1.03608 1.03308 20.8213
1.81503 0.866244 18.5351
1.15731 0.849943 20.7316
-1.66918 -0.354612 19.4331
-2.44597 -1.09762 16.5135
-2.55995 0.227328 18.434
-0.869292 -0.284287 19.0979
-6.02205 -1.0955 19.2219
-2.15377 -0.645858 21.5754
-3.36063 -0.268594 21.836
-0.700881 -1.20609 19.1414
-0.581866 -0.58307 21.9144
-1.3732 -0.815467 21.214
0.0006587 0.503459 15.8897
0.374885 -0.217011 21.8982
0.828363 0.0813187 17.6549
1.13053 0.466147 9.16574
1.19774 -0.309166 21.2877
0.0584237 1.0133 1.50611
1.05377 -0.642491 18.6498
1.7293 0.0686522 17.6197
1.37713 -0.450577 21.2014
2.21391 0.0546493 9.80578
1.16658 -0.955514 20.7332
1.69531 -0.237829 20.3858
-1.36067 0.664982 19.7834
-1.80847 2.04444 18.4396
-0.90231 1.04504 19.8694
-0.973651 0.591678 19.2095
-2.3069 1.59418 20.0247
-1.64462 0.660797 20.9462
-2.57843 2.48069 20.5282
-1.06381 1.1046 20.8376
-2.007 0.967145 21.5624
-0.884376 0.232723 21.7402
-1.6777 1.26859 22.5265
-0.5301 0.497773 21.5832
-0.491712 0.081545 22.0857
-0.0362705 -0.246038 21.7174
-0.109264 -0.334847 22.0446
-0.0472557 -0.137344 21.5794
0.151635 -0.528954 21.6269
0.284814 -0.50732 21.3995
0.166932 -0.728393 21.5057
0.102004 -0.324291 21.2689
0.326312 -0.668032 21.1697
0.336343 -0.479016 21.1903
0.29412 -0.774011 21.3006
0.146716 -0.361696 21.1131
0.211218 -0.478804 21.2643
1.20898 -1.55813 18.6384
0.0688358 -1.86592 18.7538
0.0673047 -2.43038 16.7312
0.0407575 -0.74539 19.0012
0.0599254 -8.69601 20.05
0.324545 -0.922698 20.4231
0.0327136 -2.10813 23.0502
-0.0106662 -0.0560089 8.80218
-0.0748481 0.170105 17.1061
0.0135837 -0.113174 20.5125
-0.00628156 0.101003 11.5807
-0.175647 0.432329 16.7991
0.000114938 0.243168 19.405
0.0223148 0.485128 9.14393
0.00526727 1.22903 14.8094
0.0164261 0.561658 18.401
-0.168769 -0.601665 -2.81709
-0.08916 0.29083 6.76632
-0.502175 1.95031 14.0324
0.054653 1.06627 14.2302
-0.243362 -1.41119 -1.31998
0.504074 1.75078 8.32404
2.48238 -1.03329 16.8212
0.151648 1.24979 13.6163
0.0702172 -0.518813 18.1774
0.0771042 0.963529 0.456765
0.0855442 0.161257 2.26545
-0.0408825 -1.2831 -2.28341
-1.79086 0.319144 5.06848
0.273863 -1.3167 8.03613
0.524443 -1.64273 -0.0620467
1.82567 1.97172 18.5032
0.0116055 1.90413 19.4001
0.0492696 1.12524 18.1957
-0.00611756 4.89257 19.0424
2.57186 2.55261 20.502
-0.0381228 2.30324 20.6007
-0.0704305 4.74939 21.1179
1.70741 1.45111 22.612
-0.0373819 1.09131 21.8659
-0.0389317 0.655976 22.7075
0.129875 -0.329497 22.134
-0.0103741 -0.124056 21.6892
-0.00871971 -0.539195 21.8111
-0.0923858 -0.731025 21.5396
-0.00804215 -0.428592 21.2828
0.0320867 -0.911056 21.3339
-0.243368 -0.862532 21.4604
-0.000251899 -0.497769 21.2189
0.0340843 -1.05155 20.8243
1.089 -0.645485 19.7645
0.971643 -0.956592 19.5818
1.60471 -1.01094 18.9689
0.594822 -0.439252 19.5333
2.61527 -2.52959 19.8703
1.36354 -1.1312 21.465
0.967142 -1.4816 21.7347
1.47513 -2.30405 20.5063
0.0911933 -0.741924 21.5891
0.163503 -0.429505 21.6593
-0.0192468 -0.250079 21.7355
-0.0540147 -0.191725 17.0461
-0.220789 -0.147451 21.0868
-0.286497 -0.0427694 21.772
-0.309427 0.153404 21.7507
-0.119788 0.392057 16.7127
-0.763186 0.791496 20.3569
-0.900055 0.365658 21.4456
-0.660066 0.743896 21.4193
-1.01992 1.14712 14.8839
-1.0284 1.19748 18.796
-1.24453 0.693438 20.8716
-0.987537 1.1436 20.9107
-1.74577 1.17043 14.8352
-1.32657 1.05558 17.493
1.62307 -0.332757 19.4862
2.45999 0.176907 18.5974
0.876612 -0.268809 19.2122
6.04229 -1.10625 19.2023
2.16084 -0.651391 21.579
3.38176 -0.275095 21.843
0.688704 -1.20547 19.0393
0.581209 -0.5799 21.9121
1.37556 -0.815423 21.2119
0.00630927 0.446987 16.2006
-0.371524 -0.218211 21.9199
-0.826943 0.071292 17.6609
-1.16842 0.461629 9.43212
-1.29301 -0.252137 20.8691
-1.14143 -0.473129 16.7078
-1.67553 0.37473 12.6309
-1.60706 -0.427945 20.6441
-1.31284 -1.17403 18.4529
-1.99485 -0.0918162 15.442
1.34477 0.645457 19.8015
0.904633 1.03462 19.8747
0.970395 0.55295 19.2745
2.31597 1.61739 20.0171
1.68045 0.694008 20.9428
1.06978 1.15159 20.8329
2.08308 1.03851 21.5776
0.931516 0.268523 21.7816
0.542432 0.557385 21.6163
0.513671 0.102312 22.1504
0.0426293 -0.264157 21.7601
0.0505583 -0.127355 21.6012
-0.127342 -0.556808 21.6531
-0.279402 -0.558017 21.4079
-0.0977772 -0.332653 21.3154
-0.28796 -0.772943 21.3158
-0.35068 -0.597865 21.2866
-0.0962725 -0.351192 21.2067
-0.161883 -0.547562 21.0095
-1.2888 -1.11588 19.1997
-1.07476 -2.01688 22.3796
0.158156 -0.284608 20.9456
0.365214 0.193488 20.5446
0.909416 0.891883 20.1176
1.43985 1.21905 20.1516
-2.29432 -0.618517 18.353
-2.88712 -1.22485 21.9936
-0.170605 -0.491932 17.2956
0.455026 1.24331 13.7778
1.29694 0.350727 13.7843
1.93167 -0.161375 18.9056
-1.7171 1.19555 19.232
-2.25939 1.28115 20.8786
-1.27712 0.545326 22.0632
-0.0450074 -0.299938 21.885
0.260232 -0.630089 21.4202
0.357293 -0.661551 21.355
0.0753961 -2.25518 17.9568
0.00351067 -0.762791 11.7757
-0.00827152 0.0788267 10.156
-0.00478386 0.211299 11.0528
0.0253644 0.147269 8.21646
-0.0915589 0.847624 6.18994
0.1132 -1.41125 14.524
-0.047134 -0.203779 -1.11382
0.510482 -1.94477 -2.32847
0.0470547 3.12583 17.498
-0.0394017 4.22045 19.8223
-0.0802674 2.73779 22.9493
-0.0207554 -0.220863 22.1833
0.00561733 -0.729124 21.6088
0.0432261 -0.834466 21.3086
1.28946 -1.04993 19.2942
1.13664 -1.99615 22.3238
-0.144074 -0.342375 21.2726
-0.369827 0.156722 20.8907
-0.886496 0.98057 19.9447
-1.29457 1.50794 17.8278
2.23167 -0.588133 18.5288
2.87597 -1.23226 21.9497
0.175596 -0.503571 17.3978
-0.460046 1.20093 14.0723
-1.17606 0.449404 10.8069
-2.17291 -0.0719268 14.2169
1.70463 1.14871 19.2817
2.2907 1.34307 20.8633
1.33908 0.618288 22.122
0.0577012 -0.315771 21.9412
-0.235767 -0.659872 21.4444
-0.31001 -0.748538 21.3076
-0.121857 -0.0566151 0.0420683
-0.634967 -3.55708 1.74636
-0.013353 0.00224916 0.107784
-0.0318808 0.00727643 -0.0281507
-0.049967 0.00781822 0.0378007
-0.0723641 0.0538445 0.688033
-1.18873 0.0460957 0.909304
-0.267936 0.707546 0.70556
-0.364539 -0.000474887 1.06786
-0.0150938 0.0220253 -0.0116753
0.0120387 0.006196 0.097559
0.000686007 -0.000147622 0.0034209
0.640222 -3.59109 1.76152
0.132708 -0.061507 0.04593
0.014415 0.00244353 0.118291
0.0541835 0.0089946 0.0417077
0.0303438 0.00682707 -0.0264361
0.0776884 0.0605195 0.731724
0.297355 0.787746 0.781934
1.20957 0.0472857 0.924699
0.364964 -0.000267933 1.06875
-0.00391634 0.00446371 0.0989224
0.0157184 0.0198628 -0.0114234
-0.000823569 -0.000204709 0.00422501
0.0041203 -0.000595902 0.0734425
0 0 0
0 0 0
0 0 0
9.07735e-18 -3.48899e-18 1.03016e-16
-0.00452824 0.00247412 0.253029
-0.00928737 0.0119796 0.166103
0 0 0
-0.165974 -0.181627 0.572272
-4.91146e-05 0.000181013 0.00322908
0 0 0
-0.00752839 0.00839804 0.0203588
0.0119206 0.0158619 0.0595682
0.0722946 0.102642 0.30434
0.00991857 0.0216582 0.0704463
0.00986009 -0.000760807 0.0457758
-0.00415507 -0.000533266 0.0790392
0 0 0
0 0 0
0 0 0
0 0 0
0 0 0
0.00417832 0.00243338 0.239821
0.00928077 0.01213 0.166116
0.16926 -0.184842 0.581303
0.00744201 0.00839233 0.0204212
5.96044e-06 2.17335e-05 0.000380865
0 0 0
-0.0119021 0.0157258 0.059789
-0.00972378 -0.000762196 0.0451597
-0.0754643 0.107332 0.320768
-0.00993496 0.0216545 0.0705656
0 0 0
-0.149294 -0.0701281 0.0118845
3.91224e-07 -1.1098e-06 -2.91989e-06
4.69341e-05 -0.0186782 0.000920532
0 0 0
-4.2621e-07 -1.25577e-08 -1.47197e-06
0 0 0
0 0 0
0 0 0
0.00013325 0.00162118 -0.000488282
2.35907e-05 0.00103579 0.0091918
0 0 0
-0.00101063 1.12896 0.435823
-5.13024e-07 0.0173033 0.0583432
-0.00016206 -0.000551836 0.00417741
-0.0138178 0.00574211 0.0404392
3.11489e-05 0.000667492 -2.62168e-05
2.13594e-05 -0.000174092 0.000830784
0 0 0
0.00116006 -0.00115459 0.00705016
0.152101 -0.0707241 0.0109495
0 0 0
3.80239e-07 -1.20639e-08 -1.30759e-06
0 0 0
0 0 0
0 0 0
0 0 0
-2.81801e-05 0.00134706 0.0118333
0.0135878 0.00565043 0.0398194
0.000164601 -0.000557153 0.00423443
-0.00109182 -0.00112617 0.00685722
0 0 0
-0.0227412 0.0692697 0.696848
0 0 0
-3.00213e-06 -3.50133e-05 0.000890045
-0.000775328 0.00472966 0.0492667
-1.0298e-07 3.9837e-08 7.86761e-07
-6.09202e-08 2.46657e-08 2.86019e-06
2.61761e-06 0.000439104 0.00198513
-0.0014386 0.0126176 0.0643375
-2.99549e-08 1.71021e-08 4.11658e-06
0 0 0
0.00451712 0.0141827 0.0762157
-0.0168359 0.0202225 0.121639
-4.35862e-06 0.0351169 0.0940058
1.13029e-07 0.0915637 0.258587
0 0 0
4.2481e-06 -0.000538122 0.00434236
0 0 0
0.0227689 0.0691928 0.69505
2.84491e-06 -3.37926e-05 0.00084414
0.000778173 0.00474686 0.0494099
-2.68295e-06 0.000449774 0.00203474
0.00159077 0.0139199 0.0711009
0.0166208 0.0199827 0.12001
-0.0044689 0.0140592 0.0756277
0 0 0
0 0 0
-0.0017662 0.00264222 0.0697751
0.023518 -0.0921803 0.797152
-0.00484395 0.0226454 0.362601
-1.62245e-07 4.46552e-05 0.000345099
0.00155232 0.0125921 0.107285