# vtk DataFile Version 2.0
tri_press
ASCII
DATASET UNSTRUCTURED_GRID
POINTS 3682 float
-0.572412 0.075 -2.105
-0.72586 0.165 1.975
-0.725 0.552372 -1.935
-0.485 1.195 2.00943
0.572407 0.075 -2.105
0.725855 0.165 1.975
0.725 0.552373 -1.935
0.485 1.195 2.00943
-0.646631 0.0819307 -0.745
-0.718793 0.0909178 0.615
-0.781356 0.902938 -0.62019
-0.696713 1.1125 0.69462
0.646799 0.0817577 -0.745
0.718782 0.0909241 0.615
0.78141 0.902992 -0.62019
0.69671 1.1125 0.69462
-1.25324 -0.444311 -3.23423
-1.26505 -0.320932 -2.16433
-1.31589 -0.313657 -0.803161
-1.3512 -0.347504 0.567102
-1.34642 -0.309103 1.92904
-1.35416 -0.234172 3.00269
-1.37186 -0.143183 4.0694
-1.26438 -0.103668 -3.16548
-1.28251 0.0570649 -2.10051
-1.34225 0.114608 -0.748136
-1.35866 0.126188 0.608307
-1.31923 0.180872 1.96155
-1.34289 0.256151 3.03456
-1.37281 0.343521 4.10274
-1.33348 0.508576 -3.01529
-1.40056 0.661685 -1.94845
-1.4427 0.933292 -0.626883
-1.34845 1.10922 0.691484
-1.18816 1.19595 2.01392
-1.27898 1.26276 3.0888
-1.36134 1.33591 4.16427
-1.3822 1.66499 -2.82398
-1.41696 1.85292 -1.76391
-1.43769 2.16955 -0.456993
-1.41156 2.45563 0.840184
-1.37004 2.63329 2.14757
-1.37418 2.72261 3.20863
-1.40737 2.79591 4.27916
-0.586048 -0.434828 -3.23715
-0.590886 -0.304358 -2.16858
-0.634491 -0.327153 -0.80259
-0.680571 -0.375307 0.572815
-0.694307 -0.328595 1.93902
-0.710511 -0.248635 3.00947
-0.727331 -0.153966 4.07332
-0.583559 -0.107733 -3.16637
-0.725633 0.245301 3.04015
-0.739909 0.334892 4.1057
-0.636351 0.460914 -3.0097
-0.671969 1.26024 3.0879
-0.740638 1.33285 4.16408
-0.683363 1.62824 -2.81845
-0.713204 1.81623 -1.75782
-0.741587 2.15469 -0.453324
-0.744334 2.46121 0.839744
-0.731308 2.64227 2.14443
-0.74188 2.72876 3.20548
-0.772354 2.79944 4.27688
0.683753 -0.434846 -3.23715
0.631174 -0.304394 -2.16858
0.674068 -0.327267 -0.802591
0.723378 -0.375327 0.572815
0.717287 -0.328599 1.93902
0.634271 -0.248641 3.00947
0.58514 -0.153974 4.07332
0.689526 -0.107742 -3.16637
0.586643 0.245297 3.04015
0.551079 0.334886 4.1057
0.73412 0.460914 -3.0097
0.499565 1.26024 3.0879
0.503588 1.33284 4.16408
0.71787 1.62824 -2.81845
0.707488 1.81623 -1.75782
0.676412 2.1547 -0.453324
0.609549 2.46121 0.839743
0.540549 2.64226 2.14443
0.511683 2.72875 3.20548
0.493442 2.79943 4.27688
1.33744 -0.444353 -3.23423
1.29523 -0.321003 -2.16433
1.34454 -0.313807 -0.803161
1.3961 -0.34756 0.567102
1.37729 -0.309118 1.92904
1.30554 -0.234187 3.00269
1.25156 -0.143201 4.0694
1.34137 -0.103692 -3.16548
1.28389 0.057031 -2.10051
1.34326 0.114457 -0.748137
1.38086 0.126143 0.608307
1.33751 0.180866 1.96155
1.2581 0.256141 3.03456
1.21433 0.343505 4.10275
1.3992 0.508571 -3.01528
1.39512 0.661696 -1.94845
1.43244 0.933284 -0.626883
1.35263 1.10919 0.691484
1.18351 1.19595 2.01392
1.15501 1.26276 3.0888
1.15352 1.33589 4.16427
1.40921 1.66498 -2.82398
1.40396 1.85292 -1.76391
1.37372 2.16955 -0.456994
1.29291 2.45562 0.840184
1.20046 2.63328 2.14757
1.15951 2.72259 3.20863
1.14022 2.7959 4.27916
-0.625534 0.313686 -1.99683
-2.5034e-06 0.0720555 -2.10794
-0.609194 0.0787926 -1.425
-0.62055 0.68 2.00733
-2.5034e-06 0.208425 1.93157
-0.728888 0.121398 1.295
0 0.659535 -2.04216
-0.811116 0.785592 -1.2776
0 1.19142 2.00585
-0.611486 1.17438 1.35203
0.625554 0.313686 -1.99685
0.609848 0.0781337 -1.425
0.620595 0.68 2.00738
0.731184 0.119096 1.295
0.811142 0.78562 -1.2776
0.611463 1.17436 1.35203
-0.682744 0.086392 -0.065
-0.845223 0.492434 -0.682595
8.40109e-05 0.0707035 -0.745
-0.864733 0.601711 0.65481
-5.64992e-06 0.0707912 0.615
-0.741819 1.0105 0.037215
2.68686e-05 1.18734 -0.62019
-1.7649e-06 1.41361 0.69462
0.682759 0.086372 -0.065
0.84522 0.492375 -0.682595
0.864729 0.601713 0.65481
0.741825 1.01051 0.037215
-0.868429 0.40306 -1.3513
0.868428 0.403031 -1.3513
4.07538e-05 0.0705094 -1.425
1.34343e-05 0.925629 -1.2776
-1.2517e-06 0.313686 -2.08085
-0.859989 0.547073 -0.0138925
0.859983 0.547044 -0.0138925
3.91805e-05 0.0707464 -0.065
1.25519e-05 1.40564 0.037215
-0.892995 0.640856 1.32351
0.893217 0.640856 1.32351
-4.07666e-06 0.0718721 1.295
-8.8245e-07 1.32434 1.35203
-1.2517e-06 0.68 2.08662
-0.56759 0.194343 -2.01953
-0.286207 0.0721675 -2.10783
-0.591552 0.0761476 -1.765
-0.687133 0.4225 2.0051
-0.362931 0.174037 1.96596
-0.749429 0.121143 1.635
-0.680239 0.433029 -1.97089
-0.3625 0.627111 -2.00974
-0.785745 0.686669 -1.6063
-0.525487 0.9375 1.98109
-0.2425 1.19326 2.00769
-0.537032 1.17348 1.68073
0.286202 0.0719483 -2.10805
0.567606 0.194343 -2.01955
0.591837 0.0758575 -1.765
0.362926 0.173956 1.96604
0.687141 0.4225 2.00511
0.75025 0.120318 1.635
0.3625 0.627688 -2.01032
0.680299 0.43303 -1.97095
0.785744 0.686669 -1.6063
0.2425 1.19325 2.00768
0.525342 0.9375 1.98095
0.537026 1.17347 1.68073
-0.626464 0.0818097 -1.085
-0.664683 0.0841657 -0.405
-0.84169 0.239301 -0.713798
-0.325473 0.0719181 -0.745
-0.730055 0.0999427 0.955
-0.700957 0.0884668 0.275
-0.867461 0.308466 0.634905
-0.363663 0.0723273 0.615
-0.802502 0.850531 -0.948893
-0.842612 0.712347 -0.651393
-0.759613 0.954747 -0.291488
-0.448252 1.16031 -0.62019
-0.656375 1.14572 1.02332
-0.825841 0.879667 0.674715
-0.720798 1.06304 0.365918
-0.413421 1.39318 0.69462
0.627215 0.0810542 -1.085
0.325597 0.0719185 -0.745
0.664755 0.0840887 -0.405
0.841491 0.239326 -0.713798
0.730077 0.099916 0.955
0.363653 0.0723273 0.615
0.700953 0.088465 0.275
0.867469 0.308461 0.634905
0.802521 0.85055 -0.948893
0.448287 1.1603 -0.62019
0.842569 0.712311 -0.651393
0.759613 0.954747 -0.291488
0.656377 1.14572 1.02332
0.413419 1.39318 0.69462
0.826292 0.879893 0.674715
0.720791 1.06303 0.365918
-0.826007 0.358373 -1.67406
-0.312768 0.313686 -2.05394
1.91252e-05 0.0706574 -1.76647
-1.87755e-06 0.192871 -2.08461
-0.854917 0.240926 -1.38815
-0.304577 0.0705445 -1.425
-0.834424 0.660428 1.66542
-0.310275 0.68 2.07334
-3.29003e-06 0.0922638 1.61329
-1.87755e-06 0.444213 2.1303
-0.894817 0.381127 1.30926
-0.364446 0.0823434 1.295
6.71715e-06 0.850597 -1.65988
-6.25849e-07 0.486611 -2.09829
-0.866571 0.594326 -1.31445
-0.405551 0.912171 -1.2776
-4.41225e-07 1.24519 1.67894
-6.25849e-07 0.935712 2.02068
-0.769041 0.907619 1.33777
-0.305744 1.31275 1.35203
0.825994 0.358359 -1.67407
0.312776 0.313686 -2.05417
0.854988 0.240582 -1.38815
0.304944 0.0705445 -1.425
0.834405 0.660428 1.66545
0.310297 0.68 2.07334
0.894661 0.379976 1.30926
0.36559 0.0823235 1.295
0.866572 0.594325 -1.31445
0.405578 0.912139 -1.2776
0.768896 0.907608 1.33777
0.305731 1.31275 1.35203
-0.862412 0.27121 -0.0394462
-0.344571 0.0721312 -0.065
-0.869712 0.447747 -1.01695
-0.854607 0.519753 -0.348244
6.23823e-05 0.0705338 -1.085
6.15957e-05 0.0707247 -0.405
-0.859887 0.574392 0.320459
-0.884367 0.621283 0.989161
1.67653e-05 0.070769 0.275
-4.86329e-06 0.0708134 0.955
-0.846606 0.80164 0.0116612
-0.453578 1.37342 0.037215
2.01515e-05 1.03674 -0.948893
1.97102e-05 1.32326 -0.291488
5.39348e-06 1.42037 0.365918
-1.32367e-06 1.38083 1.02332
0.862393 0.271197 -0.0394462
0.344613 0.0721313 -0.065
0.869712 0.447703 -1.01695
0.8546 0.519709 -0.348244
0.859882 0.574378 0.320459
0.884558 0.621284 0.989161
0.846594 0.801622 0.0116612
0.453581 1.3734 0.037215
-0.796945 0.217635 -1.71953
-0.862033 0.264054 -1.05097
-0.867103 0.646006 -0.982919
-0.821454 0.513678 -1.64018
0.79686 0.217463 -1.71954
0.821471 0.513678 -1.64019
0.867102 0.646004 -0.982919
0.861956 0.263824 -1.05097
-0.295392 0.0706613 -1.76574
0.295573 0.0706613 -1.76574
0.314193 0.0705966 -1.085
-0.313925 0.0705966 -1.085
-0.384026 0.835769 -1.63309
-0.398108 1.00436 -0.948893
0.398148 1.00433 -0.948893
0.384039 0.835764 -1.63309
-0.299487 0.193607 -2.07445
-0.337634 0.45982 -2.07101
0.337638 0.45982 -2.07105
0.299489 0.193607 -2.07444
-0.858816 0.251873 -0.376622
-0.864972 0.28982 0.297729
-0.842781 0.843932 0.343188
-0.846241 0.757809 -0.319866
0.858796 0.251834 -0.376622
0.846236 0.757794 -0.319866
0.842651 0.843862 0.343188
0.864989 0.2898 0.297729
-0.335022 0.0720247 -0.405
0.335105 0.0720249 -0.405
0.354129 0.0722377 0.275
-0.354113 0.0722376 0.275
-0.464571 1.29418 -0.291488
-0.441213 1.39873 0.365918
0.441218 1.39873 0.365918
0.464597 1.29418 -0.291488
-0.896176 0.36372 0.972081
-0.891975 0.401813 1.65021
-0.706525 0.922559 1.67308
-0.812795 0.882363 1.00624
0.896188 0.363147 0.972081
0.814644 0.882357 1.00624
0.70663 0.922554 1.67309
0.889572 0.401238 1.65022
-0.361923 0.0710338 0.955
0.362489 0.0710337 0.955
0.364258 0.0975151 1.62414
-0.363689 0.0976674 1.62414
-0.327051 1.36755 1.02332
-0.274122 1.24007 1.67983
0.274116 1.24008 1.67983
0.327043 1.36756 1.02332
-0.336603 0.433356 2.11818
0.336611 0.433356 2.11818
0.276398 0.936606 2.01347
-0.276388 0.936606 2.01348
-0.546689 0.134671 -2.03895
-0.42931 0.0721445 -2.10786
-0.582475 0.0750811 -1.935
-0.706544 0.29375 1.99009
-0.544396 0.170051 1.96995
-0.743609 0.137107 1.805
-0.704939 0.4927 -1.95526
-0.54375 0.592588 -1.97522
-0.758368 0.622516 -1.77065
-0.496844 1.06625 1.98686
-0.36375 1.19286 2.00729
-0.502675 1.1759 1.84508
0.429305 0.0718967 -2.1081
0.546653 0.134672 -2.03892
0.58254 0.0750104 -1.935
0.544391 0.169769 1.97023
0.706547 0.29375 1.9901
0.743595 0.137116 1.805
0.54375 0.592581 -1.97521
0.704936 0.492701 -1.95526
0.758389 0.622539 -1.77065
0.36375 1.19288 2.00731
0.496864 1.06625 1.98688
0.502665 1.17589 1.84508
-0.635049 0.0833686 -0.915
-0.655647 0.0830584 -0.575
-0.791756 0.136818 -0.729399
-0.488301 0.0724255 -0.745
-0.721273 0.0985814 0.785
-0.709965 0.0896019 0.445
-0.826382 0.183064 0.624953
-0.540107 0.0838635 0.615
-0.794041 0.878847 -0.784541
-0.835112 0.819206 -0.635791
-0.769818 0.928175 -0.455839
-0.663851 1.12972 -0.62019
-0.676819 1.12939 0.858971
-0.748225 0.989559 0.684668
-0.707185 1.0862 0.530269
-0.585974 1.31466 0.69462
0.635332 0.0830808 -0.915
0.488404 0.0724259 -0.745
0.655761 0.0829388 -0.575
0.791738 0.136745 -0.729399
0.721253 0.0985967 0.785
0.540018 0.0840251 0.615
0.70994 0.0896218 0.445
0.826376 0.183067 0.624953
0.794093 0.878898 -0.784541
0.663888 1.12972 -0.62019
0.835127 0.81922 -0.635791
[...]
POINT_DATA 3682
SCALARS point_scalars float 1
LOOKUP_TABLE default
22.5869
-43.2294
-37.5467
-40.1622
22.052
-43.5613
-37.6468
-40.316
-44.4724
-37.1964
-70.4531
-59.4421
-44.3527
-37.1562
-70.0013
-59.5144
22.5869
-135.837
-58.0551
-36.3986
-63.7707
-42.8076
-37.42
22.5869
-116.981
-53.0664
-36.0153
-62.6511
-38.0016
-35.8669
15.6019
-84.3501
-61.5283
-52.4313
-44.7963
-37.6639
-37.1433
-40.157
-46.4874
-90.5308
-69.5311
-40.4595
-40.4595
-40.0801
-153.064
-181.545
-45.5633
-37.2276
-43.5231
-36.2675
-34.3493
-153.064
-34.9011
-34.1354
161.23
-39.5699
-39.294
-0.129408
-36.9835
-81.4166
-67.878
-40.5966
-40.0801
-39.294
22.052
-181.445
-45.1585
-36.8315
-44.14
-36.7458
-32.7584
22.052
-34.8836
-32.795
150.449
-39.3077
-39.0251
-0.811051
-36.987
-81.4079
-67.8845
-40.8374
-40.4116
-39.0251
22.052
-135.2
-58.3352
-36.6701
-63.0709
-43.1651
-36.9691
22.052
-116.487
-53.054
-36.0533
-62.9801
-37.7968
-35.3613
19.8142
-84.1899
-61.6721
-52.4168
-44.9937
-38.666
-40.0406
-40.6939
-46.4636
-88.7471
-69.3979
-40.6003
-40.6003
-40.4116
57.1306
-98.0466
-68.0179
-37.2408
-34.0747
-41.3927
68.1569
-65.8274
-38.6118
-52.4941
56.7423
-68.0793
-37.5423
-42.0298
-65.8738
-52.6017
-38.1561
-48.6105
-46.4421
-41.3163
-37.8771
-62.7172
-12.6924
-75.3655
-38.1869
-48.5946
-41.3945
-62.7432
-77.4163
-77.4603
-73.2824
-9.82644
200.078
-45.0281
-45.0638
-38.4163
-93.5414
-53.2794
-53.5563
-41.238
-52.5894
-36.1553
93.3456
-102.182
-100.925
-37.2969
-36.5499
-49.2056
1.58117
64.9382
-61.3285
-37.7316
-38.7951
-45.8171
-100.099
93.0071
-100.951
-36.8282
-37.6364
-49.9048
65.1676
2.57546
-61.2783
-38.8745
-37.9544
-45.9368
-51.8477
-40.1398
-47.3553
-45.7202
-37.9949
-36.9606
-35.8734
-37.4752
-61.8276
-55.5181
-65.4131
-23.4752
-56.6002
-53.679
-59.8988
-71.5453
-51.9942
-45.7075
-40.0593
-47.352
-37.962
-37.4603
-37.018
-35.9228
-61.8619
-23.4678
-55.5106
-65.4482
-56.7014
-71.5761
-53.69
-59.9151
-82.4179
188.486
-104.97
179.241
-79.7311
-71.4293
-52.6753
-36.3663
-43.7825
-28.7941
-49.1947
-41.9493
-37.7909
184.551
-79.0772
-18.451
-44.4275
-36.9139
-53.7972
-52.6299
-82.4312
188.37
-79.8343
-71.4173
-52.9632
-36.5615
-49.4291
-41.9456
-79.0781
-18.4899
-53.9403
-52.6694
-40.1569
-38.1605
-59.7541
-45.7695
-55.8201
-41.2359
-42.7835
-46.8867
-37.3771
-39.6087
-53.0459
-85.9219
11.2286
-65.8673
-89.8218
-63.1941
-40.2022
-38.1607
-59.776
-45.789
-42.8263
-47.0501
-53.0776
-85.8904
-91.7709
-57.99
-63.018
-70.0014
-91.7983
-69.9774
-63.0389
-58.0275
-102.136
-102.167
-54.7883
-54.7876
-38.2164
5.91176
5.96431
-38.1541
177.139
187.008
186.991
177.261
-42.0354
-39.1831
-51.6155
-53.4255
-42.0518
-53.4515
-51.6377
-39.2224
-40.6728
-40.6593
-37.0996
-37.0845
-69.3681
-82.6037
-82.6212
-69.3912
-44.6803
-56.1968
-47.7293
-54.2898
-44.8314
-54.6635
-47.9388
-56.4069
-39.9039
-39.893
-44.1934
-43.5683
-62.4563
-44.5023
-44.5507
-62.4849
-32.3807
-32.9702
-36.9425
-36.8222
87.495
-42.0999
-164.238
-38.617
-39.6901
-47.2069
-14.1008
48.2009
-60.6496
-38.8314
-39.2122
-41.8471
-45.0934
87.3332
-163.971
-40.071
-38.9828
-47.5275
48.0438
-16.9682
-60.6574
-39.3577
-39.0065
-42.0042
-48.1857
-42.2242
-45.6432
-44.7523
-37.3506
-36.7748
-36.175
-37.6701
-71.7436
-60.9577
-66.9964
-81.2422
-58.8733
-55.9234
-58.9951
-66.1909
-48.2277
-44.7256
-42.2051
-45.5775
-37.3572
-37.6106
-36.8046
-36.197
-71.8742
-81.1698
-61.0297
-67.0503
-58.961
-66.232
-56.0715
-59.0316
89.8209
32.6459
-112.037
154.926
-99.2658
-95.6242
-141.767
153.313
-79.8542
-58.7582
-79.87
-69.7231
-36.9955
-37.7364
-43.2633
-36.3855
-34.441
-34.5442
-38.5712
-30.2608
-44.5996
-44.5715
-47.9503
-42.3342
66.0056
66.439
-40.2486
163.452
-66.2836
-58.3683
-76.2567
-30.9781
-38.6217
-38.6586
-41.3506
-37.2732
-49.9044
-55.0641
-52.6072
-53.1942
89.2012
32.2666
-111.861
154.978
-79.8229
-58.7254
-79.9838
-69.7258
-37.3247
-37.9839
-43.5899
-36.6536
-44.6404
-44.506
-48.1008
-42.457
-66.3016
-58.3661
-76.3195
-30.9919
-50.0397
-55.1677
-52.7473
-53.2546
-38.8821
-37.5053
-38.9265
-38.0659
-48.705
-50.5497
-56.8017
-46.246
-46.2771
-46.2724
-50.5503
-43.4632
-37.342
-45.3558
-41.6695
-43.7426
-37.7928
-37.7863
-37.4686
-38.5801
-64.4586
-61.0061
-59.1196
-78.243
-15.4358
-15.4342
3.661
-40.5366
-74.4055
-74.414
-81.9686
-68.9215
-38.9037
-37.6031
-38.9885
-38.046
-48.715
-50.5529
-56.8521
-46.2601
-37.4091
-45.4331
-41.7218
-43.8665
-64.489
-61.0236
-59.1713
-78.2245
-95.6912
-78.1701
-77.4449
-65.9882
-95.7475
-78.2485
-77.472
-66.0189
-86.8222
-72.9084
-72.9266
-63.1628
-25.145
-11.6902
-11.6946
6.50905
197.496
200.414
205.19
197.541
-42.3101
-45.5944
-43.9095
-48.447
-42.35
-45.6241
-43.9487
-48.4832
-38.3589
-39.5314
-37.7273
-38.3586
-84.5667
-87.8088
-101.476
-84.5768
-55.8942
-50.6924
-55.2615
-49.5357
-56.1859
-50.9459
-55.4658
-49.7099
-42.3893
-41.2901
-41.3124
-40.5261
-48.2501
-52.5692
-52.5879
-57.5441
-36.254
-32.9157
-37.064
-36.3471
-124.843
159.014
-139.634
145.754
-100.435
-100.044
-45.6323
-35.111
-41.1421
-32.6123
-59.6308
-44.6906
-95.0826
149.204
-46.2318
145.977
-68.4209
-40.3069
-44.0203
-36.8169
-41.3056
-37.2192
-46.9341
-44.7893
-139.687
146.387
-124.243
158.987
-100.399
-100.074
-41.364
-33.1666
-46.0215
-35.5611
-60.04
-45.488
-45.5828
145.728
-94.8759
149.195
-68.3989
-40.1299
-41.3605
-37.3147
-44.2712
-36.987
-47.1067
-44.8601
-54.7207
-53.449
-40.8191
-40.1981
-53.8709
-43.2519
-49.6202
-42.8228
-41.0711
-40.131
-37.6645
-36.9832
-37.6799
-37.3026
-37.1926
-38.4429
-65.0747
-7.8202
-56.1698
-54.3194
-59.5322
-87.8492
-1.56682
-46.7478
-55.0196
-60.5239
-52.3227
-54.2653
-56.3464
-69.4543
-76.8658
-66.665
-54.7953
-53.4629
-49.6125
-42.8092
-40.8244
-40.1764
-53.8683
-43.2476
-41.2792
-40.0633
-37.1881
-38.4343
-37.675
-37.0446
-37.7199
-37.3733
-65.1562
-7.65768
-1.53114
-47.0404
-56.1715
-54.3321
-59.5757
-87.8856
-55.1716
-60.5671
-76.8772
-66.6973
-52.2773
-54.3099
-56.3708
-69.4971
-89.0557
-75.6811
188.83
188.407
-104.46
-104.503
180.589
180.58
-92.9114
-65.192
-84.6252
-62.2109
-56.1356
-50.0852
-34.0686
-36.9703
-43.6679
-43.5796
-29.8622
-30.2501
-47.8876
-51.4034
-41.7606
-42.7074
-38.5879
-38.5744
186.104
186.071
-66.9839
-85.1759
-29.6546
-4.62955
-44.4299
-44.4556
-36.9353
-36.8772
-51.753
-53.9906
-57.3958
-48.4253
-89.1682
-75.6337
188.441
188.854
-92.7959
-65.2425
-84.6304
-62.2188
-50.3491
-56.3744
-34.4697
-37.0935
-48.0683
-51.7967
-41.7635
-42.5654
-85.2088
-67.002
-4.73219
-29.6551
-54.0613
-51.9335
-48.4674
-57.4275
-41.7943
-39.5835
-39.1406
-37.4421
-59.145
-60.6165
-43.9664
-48.9225
-55.5877
-55.5861
-41.0586
-41.0519
-40.3611
-46.8657
-45.2474
-50.7368
-37.3195
-37.317
-39.7345
-39.7304
-52.1182
-53.7692
-85.2772
-92.3772
9.79677
9.82956
-64.3622
-64.3836
-88.6207
-88.6318
-63.0413
-63.0547
-41.8295
-39.6259
-39.1353
-37.466
-60.6034
-59.1723
-43.9849
-48.9444
-46.9029
-40.4029
-45.385
-50.9171
-53.8033
-52.1534
-92.4119
-85.2787
-122.476
-85.8776
-94.8708
-111.708
-52.4897
-54.9322
-65.626
-64.0118
-61.9061
-68.2932
-66.3818
-56.8669
-81.3834
-106.739
-93.187
-70.4372
-121.956
-111.501
-94.8964
-85.7871
-81.3135
-70.4274
-93.2382
-106.276
-61.9607
-56.9661
-66.4013
-68.2866
-52.4582
-64.0331
-65.663
-54.9464
-149.346
-140.359
-86.2673
-82.2398
-149.329
-82.2176
-86.2927
-140.388
-48.6033
-50.3327
-62.7821
-60.2279
-48.6073
-60.2262
-62.781
-50.3377
-41.5495
-37.7965
-25.8051
-45.5052
-47.0807
3.1946
3.91423
-19.837
-47.2022
-20.1985
3.91082
3.15101
-41.8368
-45.3818
-25.8093
-37.7991
128.812
159.703
196.131
148.938
119.027
149.181
200.277
149.389
118.931
149.448
200.305
149.114
128.47
147.31
196.125
159.723
-42.4992
-39.8099
-43.9466
-44.7531
-36.9044
-38.5708
-41.2296
-38.3191
-55.6335
-57.6022
-47.2604
-44.5225
-60.611
-49.5085
-49.0619
-60.4968
-42.5145
-44.765
-43.9806
-39.8477
-60.7142
-60.4995
-49.0929
-49.5255
-55.6793
-44.5642
-47.299
-57.6166
-36.9206
-38.3732
-41.2683
-38.6133
-42.1877
-43.3189
-39.4574
-38.7877
-42.1745
-38.8209
-39.4547
-43.3126
-36.9902
-37.41
-37.6225
-37.6045
-36.9979
-37.4685
-37.6196
-37.4125
-87.4141
-84.3229
-86.9833
-41.5784
-65.8314
-81.4261
-101.492
-72.9011
-65.8164
-72.9333
-101.502
-81.4387
-87.3827
-41.5494
-86.8256
-84.3432
-34.1854
-47.2088
-48.6867
-40.3931
-46.0454
-44.1075
-53.1477
-50.7054
-43.452
-50.372
-54.2722
-43.8967
-55.9522
-47.6993
-53.2617
-53.905
-34.1829
-40.5278
-48.8687
-47.3171
-56.0794
-54.0388
-53.4184
-47.8385
-43.6448
-44.1979
-54.4586
-50.5286
-46.3786
-50.9498
-53.552
-44.4679
-37.5726
-38.5349
-40.8695
-41.4214
-37.6209
-41.4135
-40.8693
-38.5287
-43.672
-39.4901
-42.4684
-43.6822
-43.4446
-43.7371
-42.3813
-39.3387
-63.034
-57.221
-57.454
-68.331
-41.3691
-41.3234
-48.2584
-48.9157
-41.4492
-48.9827
-48.2788
-41.3497
-63.0808
-68.3454
-57.4691
-57.2718
-35.3601
-30.4059
-33.0793
-35.0974
-35.7883
-35.5119
-33.3028
-30.6551
-37.5483
-37.285
-37.0432
-37.1357
-37.4148
-36.9635
-36.9878
-37.2386
24.3341
34.9225
-170.455
-40.9709
-42.5132
-43.2305
-26.1542
24.3227
-63.6071
-39.8516
-40.0801
-40.4565
37.234
23.8662
-170.319
-42.8526
-41.337
-43.5685
24.2601
-26.3208
-63.6757
-40.4116
-40.0258
-40.6104
-46.5068
-43.4942
-43.0099
-44.5326
-37.4931
-36.5183
-35.2493
-37.8628
-70.579
-65.3425
-68.3593
-89.0584
-59.611
-57.352
-58.858
-62.2436
-46.4024
-44.4576
-43.5038
-42.7772
-37.4898
-37.7777
-36.4938
-35.24
-70.866
-89.1172
-65.9795
-68.2805
-59.6959
-62.3075
-57.4409
-58.9146
78.2853
47.9301
-61.3355
130.04
-97.4971
-104.769
-202.879
58.349
-73.4165
-62.9747
-77.7569
-68.6966
-37.2249
-37.1242
-39.7655
-36.5445
-34.0641
-34.1507
-36.1061
-32.2762
-42.5349
-41.3612
-44.8739
-40.9589
59.3663
59.3396
-10.9289
112.808
-65.035
-63.0256
-69.5242
-44.3274
-38.5994
-38.6145
-39.9658
-37.5273
-51.0676
-53.7261
-52.372
-53.1759
77.7
47.8129
-62.0611
129.842
-73.4285
-63.0452
-77.8529
-68.7184
-37.5355
-37.4297
-40.1085
-36.8179
-42.9614
-41.1229
-45.1789
-41.3713
-65.1417
-63.0521
-69.6001
-44.3638
-51.1746
-53.8368
-52.5011
-53.2495
-38.3531
-37.7222
-38.7253
-38.0448
-48.6365
-49.3453
-53.2276
-47.0209
-46.4419
-46.4396
-48.3433
-44.9032
-39.3433
-43.4567
-41.1058
-42.4284
-37.8416
-37.8381
-37.5906
-38.1995
-63.3705
-61.7688
-60.7615
-69.8624
-13.6082
-13.6523
-2.57104
-28.4543
-75.1543
-75.1596
-78.5539
-72.1079
-38.3816
-37.7918
-38.7799
-38.06
-48.6327
-49.3492
-53.2299
-47.035
-39.4148
-43.5413
-41.1699
-42.5096
-63.3973
-61.7906
-60.7913
-69.8846
-86.2484
-77.7228
-77.2913
-70.8077
-86.2953
-77.7791
-77.3239
-70.8421
-79.6292
-73.2527
-73.2597
-67.7576
-17.9149
-10.0286
-10.0295
-1.02685
199.868
199.416
202.39
199.88
-43.3981
-45.4288
-44.4815
-46.5686
-43.4342
-45.4621
-44.5191
-46.6043
-38.4223
-38.9605
-37.9561
-38.4219
-89.6808
-86.525
-102.723
-89.6911
-54.1994
-51.6797
-55.3615
-51.1706
-54.5115
-51.9288
-55.6347
-51.3768
-41.7432
-41.2858
-41.2985
-40.7815
-50.424
-52.5195
-52.5292
-55.1637
-36.1694
-35.3975
-36.2367
-36.2172
87.4384
91.2278
-60.6921
135.479
-140.592
-98.3033
-198.497
104.552
-119.258
-88.7896
-112.007
-99.6325
-37.6998
-37.0816
-40.7765
-36.0187
-38.015
-35.3241
-38.6
-33.8672
-48.2072
-45.5163
-60.4578
-45.8826
-5.57388
18.7173
-68.1899
107.706
57.071
64.9815
-11.4142
97.2453
-63.2703
-58.192
-66.2201
-46.7064
-38.1928
-37.8882
-41.2183
-37.0088
-38.9689
-38.6873
-39.9668
-37.5674
-43.5
-48.3857
-46.6722
-45.1747
-139.722
-92.9567
-198.418
105.652
87.2848
90.9071
-60.0574
135.351
-119.143
-88.6695
-112.018
-99.7566
-38.3405
-35.5606
-38.8259
-34.2809
-38.0509
-37.4143
-41.1374
-36.3681
-48.603
-46.013
-60.9003
-46.4215
57.2344
65.0617
-11.9185
97.3039
-6.31898
18.6363
-68.5211
107.612
-63.1845
-58.214
-66.1792
-46.603
-39.0716
-38.7434
-40.0286
-37.6601
-38.3974
-38.1015
-41.4846
-37.2049
-43.6088
-48.4927
-46.8224
-45.2649
-50.1498
-54.9426
-50.3235
-52.7378
-40.9345
-39.3589
-39.947
-40.1155
-47.6153
-47.4424
-52.8225
-43.3824
-45.3416
-45.9594
-47.6123
-44.113
-36.6585
-46.1463
-38.5154
-41.2515
-36.5301
-36.9763
-37.9455
-36.9617
-36.1488
-35.4683
-36.8676
-36.0695
-37.2754
-37.7057
-37.2725
-37.8899
-73.7609
-55.3106
-65.196
-30.7674
-58.3391
-52.8228
-55.5174
-55.0669
-66.1461
-64.8588
-62.9724
-74.3787
-35.5784
-18.8742
-11.4265
-35.0928
-57.5879
-55.8061
-55.621
-58.2745
-55.712
-48.3484
-52.4323
-54.1844
-59.5095
-60.197
-57.6432
-64.213
-69.4899
-73.3342
-74.2948
-69.3383
-50.1968
-54.9847
-50.3392
-52.7698
-45.3258
-45.9493
-47.6009
-44.1001
-40.9716
-39.3011
-39.9493
-40.0121
-47.6052
-47.4416
-52.8247
-43.3703
-36.6342
-46.0688
-38.638
-41.1511
-37.2479
-37.696
-37.2598
-37.8785
-36.5701
-37.0442
-38.0093
-37.0377
-36.1834
-35.5282
-36.9139
-36.1208
-73.8911
-56.1681
-65.262
-30.7039
-35.614
-18.9382
-11.4264
-35.0411
-58.2776
-52.8247
-55.5456
-55.0581
-66.1926
-64.8916
-62.9774
-74.4072
-57.6831
-55.9071
-55.7418
-58.3474
-69.5183
-73.3511
-74.3157
-69.3622
-56.2717
-48.382
-52.4026
-54.2996
-59.5329
-60.2126
-57.6628
-64.2261
-99.2518
-88.2651
-85.7923
-79.3403
176.61
193.827
189.644
188.343
-117.356
-95.2274
-104.679
-104.707
166.845
191.146
179.655
179.81
-79.8944
-79.0497
-91.7486
-70.6827
-70.6193
-72.3611
-77.7311
-66.4507
-47.6647
-57.2381
-54.5772
-51.4711
-36.3908
-36.2879
-35.6853
-36.2791
-41.5332
-44.3016
-43.6458
-43.5985
-27.945
-30.5569
-29.0257
-29.2457
-48.4188
-49.89
-48.4367
-50.1566
-42.512
-41.3731
-41.4793
-42.3781
-39.153
-31.9586
-37.4944
-37.588
175.255
202.372
185.95
185.971
-78.634
-77.7941
-71.7483
-87.3426
-24.8773
-14.5688
-24.642
-11.3289
-42.7346
-46.2619
-44.4194
-44.4325
-37.071
-37.1058
-36.9314
-36.901
-52.9777
-54.7824
-53.093
-54.3075
-52.8368
-52.5797
-55.0397
-50.463
-98.4112
-88.3448
-85.8654
-79.2996
176.599
193.775
188.3
189.554
-80.0149
-79.1465
-91.7794
-70.737
-70.6228
-72.3542
-77.7291
-66.4493
-48.0072
-57.4411
-51.7452
-54.8768
-36.6223
-36.4342
-35.9455
-36.4584
-48.6055
-50.1286
-48.6238
-50.4621
-42.5152
-41.3875
-41.4794
-42.3399
-78.6803
-77.8186
-87.361
-71.7555
-24.8955
-14.5864
-11.3898
-24.6631
-53.1162
-54.9894
-54.4698
-53.2417
-52.8891
-52.6089
-50.5066
-55.0774
-38.9118
-41.6256
-40.475
-39.8345
-38.0732
-38.2416
-38.5849
-37.7059
-57.7491
-62.4398
-59.4437
-60.1124
-45.9474
-45.5775
-44.4779
-47.1807
-52.9565
-59.2446
-55.8185
-55.8178
-42.228
-40.3071
-41.1472
-41.1438
-42.2141
-43.4336
-41.3536
-44.3982
-45.1562
-48.4849
-45.8523
-48.5831
-37.4128
-37.513
-37.3557
-37.3553
-39.0938
-40.1325
-39.6484
-39.6461
-56.5636
-50.3296
-52.3692
-53.441
-88.4608
-82.7455
-83.9334
-92.1211
8.298
11.9406
10.7984
10.8172
-53.3449
-80.0447
-65.8208
-65.8385
-85.5786
-94.9976
-89.5486
-89.5545
-66.0478
-60.4192
-63.1652
-63.172
-38.9605
-41.668
-40.5184
-39.8806
-38.0703
-38.2423
-38.5822
-37.7174
-57.774
-62.4661
-60.1303
-59.467
-45.9636
-45.6024
-44.4957
-47.2015
-42.2603
-43.4742
-44.4391
-41.3963
-45.2832
-48.6688
-46.0048
-48.7399
-56.5998
-50.3668
-53.4734
-52.4009
-88.5065
-82.7406
-92.1473
-83.9981
-110.898
-94.2662
-90.9633
-80.6196
-56.9691
-56.4484
-60.6485
-58.7283
-64.3586
-59.3988
-64.369
-61.0695
-84.2778
-68.2013
-72.4183
-72.016
-110.749
-94.3002
-91.0293
-80.566
-84.0941
-68.1987
-72.3835
-72.066
-64.4886
-59.3803
-64.388
-60.973
-57.0296
-56.4563
-60.7145
-58.7561
-114.973
-102.19
-103.485
-92.6463
-115.044
-102.242
-103.091
-92.6573
-54.1304
-51.9588
-58.009
-55.1912
-54.1252
-51.9623
-58.0054
-55.1917
-42.062
-37.3342
-38.7792
-34.2267
1.73268
3.45583
2.84619
8.29388
1.9137
3.50182
2.86947
8.34036
-41.9638
-37.1507
-38.7457
-34.1954
169.738
168.114
184.642
180.608
168.607
172.634
189.477
186.85
172.546
168.288
186.792
189.454
168.278
169.744
180.783
184.705
-41.1197
-42.1937
-41.9835
-42.9275
-38.0358
-38.5612
-39.4348
-40.0642
-50.1152
-54.7942
-49.2462
-51.5945
-53.7946
-55.8896
-50.9925
-53.3655
-41.1284
-42.1999
-42.0057
-42.9458
-53.8126
-55.9193
-51.0157
-53.3974
-50.131
-54.8296
-49.2792
-51.6423
-38.0762
-38.6006
-39.4724
-40.1053
-40.4942
-41.6555
-39.8771
-40.8954
-41.6405
-40.4765
-40.8863
-39.8678
-37.116
-36.9435
-37.2216
-37.284
-36.9148
-37.1111
-37.2619
-37.2163
-80.6564
-58.9246
-80.7472
-66.3943
-77.2471
-79.3126
-87.1394
-86.3447
-79.333
-77.2878
-86.3576
-87.1683
-58.9425
-80.6598
-66.4297
-80.7619
-43.4138
-39.5774
-47.454
-45.132
-52.161
-57.1784
-55.7837
-53.1914
-46.057
-47.2924
-48.7854
-49.8223
-54.5777
-54.4103
-54.6468
-53.3556
-43.6533
-39.6717
-47.6499
-45.2599
-54.7918
-54.6079
-54.8951
-53.6056
-46.1672
-47.489
-49.0224
-50.0207
-52.4162
-57.5142
-55.8776
-53.7323
-39.854
-39.1422
-41.247
-39.8314
-39.8241
-39.1328
-41.2454
-39.8256
-43.247
-45.5265
-43.6233
-43.8637
-43.0897
-44.1356
-43.3952
-43.3886
-62.008
-64.6146
-59.6744
-62.8417
-42.7495
-44.6028
-44.4513
-46.4077
-42.7983
-44.6609
-44.4946
-46.454
-62.044
-64.6429
-59.7035
-62.8616
-33.491
-31.9945
-33.0197
-31.0085
-32.6165
-34.0652
-31.53
-33.5434
-37.1069
-36.9523
-36.9387
-37.2018
-36.8047
-37.0018
-37.0893
-36.8511
-62.5695
146.895
-220.563
3.54492
-140.312
-154.976
-42.4501
-36.3803
-41.5837
-36.5139
-48.158
-44.4827
-79.0894
82.3037
-17.8889
85.6891
-71.5791
-38.5497
-41.3827
-37.7579
-40.1573
-37.8581
-42.9197
-41.3688
-220.006
1.63196
-67.4242
146.885
-139.396
-154.78
-41.8376
-36.9718
-42.8036
-36.7494
-48.4737
-44.7223
-18.4713
85.5068
-79.2269
82.2013
-71.5776
-39.2907
-40.2422
-38.0008
-41.5697
-37.9134
-43.1001
-41.4712
-48.1418
-48.4603
-42.4194
-42.0083
-53.8238
-43.6659
-46.5789
-43.4085
-36.7152
-36.9897
-37.7389
-36.9925
-36.4018
-35.8593
-37.1954
-37.8286
-67.2357
-81.311
-60.6023
-62.4072
-63.9472
-79.6023
-58.6388
-86.0783
-57.7249
-60.6465
-55.4826
-55.8953
-56.7272
-62.0287
-65.4806
-64.6906
-48.3277
-48.4685
-46.5457
-43.4166
-42.4513
-42.0032
-53.5919
-43.6892
-36.7048
-37.0422
-37.1652
-37.7666
-37.6985
-37.0447
-36.4178
-35.8748
-67.3374
-81.4042
-58.32
-86.1938
-60.7111
-62.1163
-64.0294
-79.6334
-57.8306
-60.709
-65.5123
-64.7698
-55.5666
-56.0633
-56.7667
-62.0779
-62.4946
137.896
-56.2413
118.853
-112.689
-109.249
153.747
152.556
-196.887
79.7974
-197.047
74.3304
-139.39
-139.349
153.458
151.899
-82.9157
-81.145
-62.306
-59.3242
-94.4194
-70.2527
-75.4854
-64.6198
-40.051
-35.8598
-40.7158
-37.1391
-43.596
-43.502
-36.044
-36.3947
-36.7342
-31.7956
-36.865
-31.8963
-38.868
-38.8183
-30.7323
-30.8953
-47.5039
-44.586
-45.485
-41.745
-47.1787
-49.0547
-42.431
-43.3192
-14.5752
104.203
-15.5511
104.24
-41.0269
-40.9983
156.55
156.867
-71.1504
-47.5947
-66.8961
-39.0768
-72.2109
-74.1221
-34.9479
-26.4962
-39.9413
-37.51
-39.9722
-37.5528
-41.3388
-41.3514
-37.2814
-37.2573
-49.8825
-49.3339
-54.3498
-56.4998
-51.4455
-53.4415
-55.291
-50.9321
-62.5566
137.803
-57.336
118.813
-112.453
-108.859
152.467
153.85
-82.8386
-81.0322
-62.3939
-59.3344
-94.4814
-70.3257
-75.4931
-64.6278
-40.3948
-36.2184
-41.0062
-37.3331
-43.8315
-43.9322
-36.3465
-36.6278
-47.7522
-44.6133
-45.58
-41.6763
-47.2805
-49.1811
-42.4617
-43.3353
-71.1436
-47.5862
-66.8731
-39.1196
-74.2045
-72.1613
-26.5064
-34.9482
-50.0129
-49.4102
-54.4731
-56.5888
-53.5762
-51.5928
-50.9907
-55.3504
-39.1094
-38.7252
-38.3572
-37.3941
-39.3053
-38.6415
-38.3502
-37.8674
-53.7248
-45.7423
-52.6941
-49.964
-55.787
-57.399
-45.2044
-47.7076
-48.1519
-44.6817
-48.1484
-44.6752
-50.44
-50.442
-43.4579
-43.4549
-37.2893
-38.9492
-45.4561
-46.2653
-39.9994
-43.3929
-42.1512
-45.5705
-37.5128
-38.1739
-37.5073
-38.1677
-37.4617
-37.4635
-38.5562
-38.5529
-62.659
-72.2951
-59.0742
-66.6783
-58.5741
-60.2416
-81.6316
-75.4378
-4.89939
-30.2489
-4.88296
-30.3042
3.77031
3.80384
-40.9269
-40.8661
-77.9156
-71.3672
-77.9237
-71.3805
-81.8795
-81.8846
-68.7576
-68.7669
-39.1428
-38.7412
-38.4166
-37.5224
-39.3616
-38.7028
-38.4021
-37.7757
-53.7318
-45.7505
-52.6897
-49.9738
-57.4611
-55.7866
-45.2174
-47.723
-37.3536
-39.0108
-45.5303
-46.3516
-43.4476
-40.0492
-42.2804
-45.6995
-62.6842
-72.3191
-59.0954
-66.6999
-60.2974
-58.6181
-75.4516
-81.6557
-95.3436
-94.6665
-89.3068
-70.7197
-70.9917
-86.0213
-65.8071
-66.2133
-95.4004
-94.7129
-89.3847
-70.7533
-86.0442
-71.0138
-66.238
-65.8423
-86.9027
-86.9184
-79.2696
-67.5415
-79.2862
-67.5468
-63.2024
-63.1978
-25.1938
-25.1994
-19.3755
-3.24368
-3.24658
-19.316
5.57542
5.57633
197.672
199.382
198.579
198.571
203.903
203.916
199.463
197.667