# vtk DataFile Version 2.0
tri_press
ASCII
DATASET UNSTRUCTURED_GRID
POINTS 3682 float
-0.585 0.185 -2.07571
-0.742947 0.285 1.985
-0.705 0.905 -1.92962
-0.645 1.285 1.93031
0.585 0.185 -2.07571
0.742947 0.285 1.985
0.705 0.905 -1.92962
0.645 1.285 1.93031
-0.707192 0.14879 -0.72214
-0.803284 0.13868 0.63143
-0.783894 1.13056 -0.642977
-0.741955 1.23529 0.643667
0.707297 0.148685 -0.72214
0.804094 0.137871 0.63143
0.783921 1.13059 -0.642977
0.741938 1.23527 0.643667
-1.30597 -0.362927 -3.16679
-1.31808 -0.297632 -2.11074
-1.41585 -0.326745 -0.755436
-1.50217 -0.352402 0.613334
-1.49108 -0.259766 1.96977
-1.48147 -0.177127 3.03138
-1.48618 -0.106197 4.0827
-1.30851 0.0743507 -3.1178
-1.32147 0.168366 -2.06906
-1.43512 0.170774 -0.726785
-1.51214 0.159904 0.621517
-1.46787 0.257496 1.96508
-1.46764 0.338808 3.02574
-1.48157 0.407689 4.07925
-1.36178 0.892743 -3.00105
-1.40917 0.982781 -1.94954
-1.4914 1.14281 -0.65289
-1.47822 1.22259 0.639022
-1.40334 1.2832 1.93696
-1.43528 1.35967 3.00039
-1.47202 1.43011 4.06469
-1.42192 2.27262 -2.87624
-1.45128 2.3852 -1.83476
-1.48774 2.57222 -0.559803
-1.49416 2.72915 0.700726
-1.47963 2.82907 1.97638
-1.48043 2.89374 3.01933
-1.49405 2.95681 4.07631
-0.613415 -0.353646 -3.17111
-0.607354 -0.283484 -2.11704
-0.684235 -0.336126 -0.754591
-0.76538 -0.368342 0.621794
-0.760325 -0.248942 1.98456
-0.755719 -0.168558 3.04141
-0.761641 -0.101871 4.08851
-0.610455 0.0741091 -3.11913
-0.751464 0.349608 3.03402
-0.761848 0.412864 4.08363
-0.652549 0.860873 -2.99277
-0.725705 1.36437 2.99906
-0.758247 1.43398 4.0644
-0.700638 2.24978 -2.86806
-0.721476 2.36307 -1.82574
-0.752782 2.56584 -0.554368
-0.76583 2.73453 0.700074
-0.760818 2.83467 1.97172
-0.763771 2.89769 3.01467
-0.776089 2.95983 4.07293
0.695141 -0.353684 -3.17111
0.665305 -0.283525 -2.11704
0.736228 -0.336297 -0.754591
0.785202 -0.368904 0.621794
0.742163 -0.249156 1.98456
0.71222 -0.168727 3.04141
0.694841 -0.102056 4.08851
0.686346 0.0740877 -3.11913
0.695007 0.349495 3.03402
0.68314 0.4127 4.08363
0.718686 0.860859 -2.99277
0.660285 1.36428 2.99906
0.665099 1.43384 4.0644
0.73251 2.24973 -2.86806
0.733147 2.36304 -1.82574
0.725602 2.56579 -0.554368
0.699225 2.73444 0.700074
0.672914 2.83456 1.97172
0.663062 2.89756 3.01467
0.656601 2.95969 4.07293
1.37209 -0.363025 -3.16679
1.35145 -0.297746 -2.11074
1.44406 -0.327079 -0.755436
1.52205 -0.353211 0.613333
1.4902 -0.260309 1.96977
1.45178 -0.177532 3.03138
1.42862 -0.106589 4.0827
1.35939 0.0742855 -3.1178
1.31744 0.168311 -2.06906
1.43074 0.17054 -0.726785
1.52103 0.15907 0.621517
1.47569 0.257035 1.96508
1.43275 0.338471 3.02574
1.4145 0.407333 4.07925
1.40037 0.892696 -3.00105
1.3977 0.982762 -1.94954
1.47776 1.14275 -0.65289
1.47766 1.22228 0.639022
1.40411 1.2829 1.93696
1.38894 1.3594 3.00039
1.38948 1.42979 4.06469
1.44458 2.27253 -2.87624
1.45192 2.38511 -1.83476
1.45633 2.57209 -0.559803
1.43368 2.72895 0.700726
1.40051 2.82882 1.97638
1.38562 2.89347 3.01933
1.37851 2.95651 4.07631
-0.682574 0.545 -2.04024
0 0.181803 -2.07891
-0.647687 0.165304 -1.39893
-0.762316 0.785 2.026
0 0.282658 1.98734
-0.818345 0.166611 1.30822
0 1.008 -2.03262
-0.76396 1.03729 -1.2863
0 1.3278 1.97311
-0.712758 1.27942 1.28699
0.682621 0.545 -2.04029
0.647705 0.165286 -1.39893
0.762332 0.785 2.02601
0.818308 0.166648 1.30822
0.763955 1.03729 -1.2863
0.712751 1.27942 1.28699
-0.768086 0.130888 -0.045355
-0.894648 0.639675 -0.682558
5.23964e-05 0.173239 -0.72214
-0.881096 0.686984 0.637548
0.00040482 0.184156 0.63143
-0.76252 1.18252 0.000344992
1.34396e-05 1.37068 -0.642977
-8.48732e-06 1.55814 0.643667
0.768566 0.130408 -0.045355
0.894649 0.639636 -0.682558
0.881138 0.686571 0.637548
0.762526 1.18253 0.000344992
-0.855946 0.592338 -1.34261
0.855946 0.592318 -1.34261
2.61982e-05 0.199639 -1.39893
6.71979e-06 1.0977 -1.2863
0 0.545 -2.17622
-0.893117 0.66333 -0.022505
0.893148 0.663104 -0.022505
0.000228608 0.178698 -0.045355
2.47613e-06 1.55816 0.000344992
-0.866586 0.735992 1.2976
0.866503 0.735785 1.2976
0.00020241 0.220863 1.30822
-4.24366e-06 1.55819 1.28699
0 0.785 2.07877
-0.574409 0.365 -1.9986
-0.2925 0.181786 -2.07892
-0.621194 0.170302 -1.73732
-0.780092 0.535 2.03296
-0.371473 0.282999 1.987
-0.804455 0.201996 1.64661
-0.690257 0.725 -1.9814
-0.3525 0.957018 -1.98164
-0.748924 0.985591 -1.60796
-0.738945 1.035 2.01344
-0.3225 1.31746 1.96277
-0.687394 1.29073 1.60865
0.2925 0.181781 -2.07893
0.574409 0.365 -1.9986
0.62122 0.170276 -1.73732
0.371473 0.283005 1.98699
0.78009 0.535 2.03296
0.805568 0.200884 1.64661
0.3525 0.957035 -1.98166
0.690389 0.725 -1.98153
0.748925 0.985592 -1.60796
0.3225 1.31749 1.9628
0.73894 1.035 2.01344
0.687393 1.29073 1.60865
-0.672867 0.16162 -1.06053
-0.739251 0.138227 -0.383748
-0.844684 0.372351 -0.702349
-0.340047 0.188061 -0.72214
-0.802674 0.160786 0.969823
-0.789587 0.130882 0.293038
-0.859069 0.404393 0.634489
-0.378056 0.208186 0.63143
-0.77643 1.08643 -0.964638
-0.857229 0.894097 -0.662768
-0.773195 1.15653 -0.321316
-0.438658 1.34405 -0.642977
-0.731749 1.26175 0.965328
-0.841519 0.976133 0.640608
-0.752126 1.20879 0.322006
-0.44385 1.54245 0.643667
0.672909 0.161578 -1.06053
0.340146 0.188021 -0.72214
0.739515 0.137963 -0.383748
0.844736 0.372279 -0.702349
0.802672 0.160789 0.969823
0.378629 0.208253 0.63143
0.788676 0.131793 0.293038
0.858981 0.404038 0.634489
0.776432 1.08643 -0.964638
0.438662 1.34402 -0.642977
0.857235 0.894087 -0.662768
0.773216 1.15655 -0.321316
0.731737 1.26174 0.965328
0.443838 1.54245 0.643667
0.841565 0.975935 0.640608
0.752116 1.20878 0.322006
-0.840019 0.568669 -1.69143
-0.341287 0.545 -2.14538
1.30991e-05 0.199476 -1.73892
0 0.363402 -2.15195
-0.821067 0.378821 -1.37077
-0.32383 0.191352 -1.39893
-0.827527 0.760496 1.6618
-0.381158 0.785 2.08109
0.000101205 0.225105 1.64778
0 0.533829 2.18695
-0.843081 0.451301 1.30291
-0.409071 0.225714 1.30822
3.35989e-06 1.08437 -1.65946
0 0.776499 -2.1318
-0.876291 0.814815 -1.31446
-0.381976 1.08537 -1.2863
-2.12183e-06 1.55819 1.63005
0 1.0564 2.07963
-0.820606 1.00771 1.2923
-0.356381 1.54802 1.28699
0.840016 0.568659 -1.69145
0.341311 0.545 -2.14538
0.821061 0.378802 -1.37077
0.323866 0.191329 -1.39893
0.827583 0.760393 1.66181
0.381166 0.785 2.08109
0.843062 0.451217 1.30291
0.409255 0.225719 1.30822
0.87629 0.814803 -1.31446
0.381981 1.08538 -1.2863
0.820644 1.0076 1.2923
0.356373 1.54802 1.28699
-0.851444 0.386687 -0.03393
-0.362253 0.198143 -0.045355
-0.865299 0.616006 -1.01259
-0.894813 0.651503 -0.352532
3.92973e-05 0.203774 -1.06053
0.000140502 0.175972 -0.383748
-0.890558 0.675157 0.307522
-0.877172 0.711488 0.967575
0.000316714 0.181431 0.293038
0.000303615 0.217186 0.969823
-0.851102 0.934567 -0.01108
-0.466004 1.53983 0.000344992
1.00797e-05 1.17108 -0.964638
7.95785e-06 1.53098 -0.321316
-3.0056e-06 1.55814 0.322006
-6.36549e-06 1.55819 0.965328
0.851381 0.386493 -0.03393
0.3626 0.198146 -0.045355
0.8653 0.615977 -1.01259
0.894816 0.65137 -0.352532
0.890709 0.674837 0.307522
0.877171 0.711178 0.967575
0.851182 0.934487 -0.01108
0.466006 1.53983 0.000344992
-0.801674 0.371911 -1.71437
-0.835198 0.386527 -1.03656
-0.869776 0.849967 -0.988611
-0.847683 0.769908 -1.64969
0.801668 0.371901 -1.71438
0.847426 0.769902 -1.6497
0.869838 0.849958 -0.988611
0.835232 0.386481 -1.03656
-0.308165 0.189118 -1.73812
0.308183 0.189099 -1.73812
0.33877 0.196799 -1.06053
-0.3387 0.196821 -1.06053
-0.367238 1.04256 -1.63371
-0.386958 1.15671 -0.964638
0.386974 1.15671 -0.964638
0.367241 1.04276 -1.63371
-0.316894 0.364201 -2.13059
-0.346894 0.750749 -2.07627
0.346905 0.750749 -2.07625
0.316905 0.364201 -2.13058
-0.848172 0.379465 -0.36814
-0.855278 0.395529 0.30028
-0.845479 0.954934 0.314764
-0.850869 0.912683 -0.336924
0.848144 0.379344 -0.36814
0.850887 0.912626 -0.336924
0.84551 0.954779 0.314764
0.855187 0.395263 0.30028
-0.351152 0.193097 -0.383748
0.351376 0.193078 -0.383748
0.370624 0.203182 0.293038
-0.370165 0.203144 0.293038
-0.480814 1.49891 -0.321316
-0.454882 1.54105 0.322006
0.454877 1.54105 0.322006
0.480825 1.4989 -0.321316
-0.850006 0.432067 0.968699
-0.82524 0.493151 1.6542
-0.799642 1.02135 1.63522
-0.840309 0.984422 0.966451
0.849777 0.431719 0.968699
0.840348 0.984261 0.966451
0.799436 1.0213 1.63523
0.825224 0.493108 1.65421
-0.405256 0.22049 0.969823
0.405752 0.220491 0.969823
0.390364 0.231316 1.64719
-0.390272 0.231309 1.64719
-0.363681 1.54781 0.965328
-0.339441 1.54851 1.61935
0.339437 1.54852 1.61935
0.363669 1.54781 0.965328
-0.376316 0.534415 2.1733
0.37632 0.534415 2.17326
0.351833 1.0457 2.06792
-0.351829 1.0457 2.06792
-0.580158 0.275 -2.03761
-0.43875 0.181791 -2.07892
-0.60871 0.172038 -1.90651
-0.764 0.41 2.01146
-0.55721 0.283288 1.98671
-0.767092 0.250107 1.8158
-0.698009 0.815 -1.95589
-0.52875 0.934589 -1.95921
-0.73714 0.955473 -1.76879
-0.698654 1.16 1.97856
-0.48375 1.30611 1.95142
-0.674635 1.2963 1.76948
0.43875 0.181785 -2.07892
0.580168 0.275 -2.03762
0.608733 0.172015 -1.90651
0.55721 0.283305 1.9867
0.764112 0.41 2.01157
0.767089 0.25011 1.8158
0.52875 0.934592 -1.95921
0.69801 0.815 -1.95589
0.737147 0.955481 -1.76879
0.48375 1.30611 1.95142
0.699179 1.16 1.97908
0.674618 1.29628 1.76948
-0.701126 0.144109 -0.891336
-0.729816 0.136914 -0.552944
-0.818088 0.239495 -0.712245
-0.514218 0.187229 -0.72214
-0.797529 0.155184 0.800626
-0.799668 0.131549 0.462234
-0.817234 0.278508 0.63296
-0.575595 0.203583 0.63143
-0.785342 1.11368 -0.803807
-0.827829 1.01596 -0.652872
-0.778587 1.14359 -0.482146
-0.647079 1.30891 -0.642977
-0.736843 1.24851 0.804497
-0.801038 1.11036 0.642137
-0.746991 1.22199 0.482836
-0.61935 1.44177 0.643667
0.718483 0.126751 -0.891336
0.514282 0.187231 -0.72214
0.729642 0.137088 -0.552944
0.818207 0.239387 -0.712245
0.797526 0.155186 0.800626
0.576088 0.20361 0.63143
0.799646 0.131571 0.462234
0.821082 0.276182 0.63296
0.785288 1.11362 -0.803807
0.647049 1.30882 -0.642977
0.82783 1.01596 -0.652872
0.778583 1.14358 -0.482146
0.736843 1.24851 0.804497
0.619336 1.44176 0.643667
0.801067 1.11026 0.642137
[...]
POINT_DATA 3682
SCALARS point_scalars float 1
LOOKUP_TABLE default
-95.773
-53.4034
-73.8979
-42.0663
-95.689
-53.5099
-73.9853
-41.9312
-53.8126
-39.3977
-77.9057
-50.8529
-53.8246
-41.6448
-77.8483
-50.8732
-113.403
-135.463
-82.8838
-49.4015
-56.0299
-53.8014
-45.1431
-113.403
-134.866
-83.2199
-47.7234
-50.8483
-47.0357
-45.1431
26.2856
-118.203
-63.3614
-48.3081
-45.9949
-44.0361
-44.0361
-76.0675
-50.2036
-108.634
-56.6092
-48.7068
-43.1406
-42.2329
-35.6101
-113.403
-61.5225
-44.0821
-53.6288
-46.8872
-44.7576
129.034
-44.6219
-44.67
154.517
-39.4823
-38.7413
-65.2592
-49.0257
-101.389
-53.897
-45.0689
-46.3478
-38.9352
1.24512
-113.361
-72.6646
-43.6085
-53.5945
-46.7958
-44.7233
128.423
-44.5852
-44.6932
153.712
-38.6952
-37.5102
-64.6677
-49.1511
-101.467
-54.1561
-44.9786
-45.805
-38.84
-113.361
-135.522
-82.2398
-49.5453
-55.9876
-54.1139
-45.1098
-113.361
-134.92
-83.0235
-46.6004
-50.8348
-46.5902
-45.1098
30.5107
-118.426
-63.5029
-48.3541
-45.8661
-43.917
-43.917
-76.1659
-50.2001
-108.938
-56.6039
-48.6088
-44.2754
-40.6614
17.3379
-202.256
-67.1612
-47.0884
-50.6273
-48.4616
-67.537
-43.7365
-33.6865
-48.8992
17.7903
-66.617
-47.022
-48.2858
-43.7226
-48.8388
-44.6455
-54.7647
-50.0854
-46.3389
-48.3941
-60.9421
6.16262
-57.9429
-44.7433
-54.6486
-46.3952
-61.0055
-63.898
-63.9221
-77.7852
-8.70465
202.155
-46.8574
-46.9362
-45.0896
-93.1554
-49.9777
-49.844
-47.5336
-46.2481
-42.1877
27.6442
-201.149
-102.628
-50.3797
-51.749
-56.1456
10.0646
-75.8907
-61.7989
-44.4954
-36.0087
-46.5314
-201.066
28.118
-102.676
-51.7073
-50.3324
-56.1305
-75.6745
9.89681
-61.8083
-35.8987
-44.3802
-46.4381
-50.0706
-45.1418
-55.879
-49.6924
-47.1117
-43.1064
-39.2094
-46.6727
-50.7188
-58.7012
-69.2718
-4.54342
-49.5827
-47.733
-54.7052
-55.9559
-49.0582
-49.7783
-44.9389
-55.6299
-47.0131
-46.6522
-43.2587
-39.3229
-50.661
-4.60229
-58.6594
-69.4297
-49.5775
-55.9598
-47.7701
-54.7278
-106.333
187.926
-108.708
141.324
-66.479
-75.7155
-50.2727
-42.4269
-52.836
-45.1461
-48.6819
-47.6822
-48.7452
177.38
-60.6276
-13.403
-42.8804
-36.0907
-50.5107
-46.4602
-106.443
188.1
-66.4982
-75.6902
-50.1581
-42.3872
-48.3419
-47.6731
-60.6353
-13.3964
-50.4382
-46.4405
-44.0645
-44.5294
-51.9831
-49.8367
-59.4159
-46.6953
-45.434
-50.4566
-45.3431
-45.0741
-52.5139
-86.1296
16.3637
-100.261
-70.1355
-50.6391
-44.1771
-44.5341
-51.9523
-49.8675
-45.5421
-50.4402
-52.5723
-86.1557
-115.321
-48.5522
-57.1607
-89.4055
-115.279
-89.3962
-57.0828
-48.9822
-107.078
-107.065
-57.7307
-57.7274
-46.2669
8.89534
8.87031
-46.2671
141.097
152.508
152.549
141.108
-46.6549
-42.561
-49.0669
-55.9942
-46.7007
-56.0272
-49.1223
-42.7856
-46.1011
-46.0994
-44.7544
-44.735
-99.2012
-65.9364
-65.9473
-99.3135
-47.9769
-52.8381
-47.8545
-48.4503
-47.852
-48.4286
-47.7473
-52.7518
-45.2784
-45.245
-53.3617
-53.3486
-50.1969
-44.1197
-44.072
-50.1916
-44.9231
-44.9116
-37.0769
-37.1966
52.0503
-145.316
-154.171
-51.6161
-52.3726
-51.5323
-24.6755
-56.5614
-82.9385
-42.6876
-37.9919
-45.2864
-145.206
52.5757
-154.196
-52.2024
-51.5707
-51.4436
-56.5806
-24.3161
-82.9807
-37.8881
-42.5382
-45.162
-56.783
-47.6609
-55.8717
-49.2602
-51.2181
-42.4454
-34.4226
-47.1823
-69.6463
-65.1331
-73.6113
-63.984
-49.8352
-49.3269
-52.4637
-53.7427
-59.8855
-49.5335
-47.0908
-55.6074
-49.929
-47.1124
-42.967
-35.2989
-69.4833
-59.9645
-65.0873
-73.7564
-49.8484
-53.7472
-49.3741
-52.4876
16.5256
10.4242
-116.211
142.425
-212.744
-212.594
-142.701
92.363
-81.7792
-56.8773
-66.5038
-72.9326
-48.6181
-46.2095
-48.4219
-42.7467
-50.9296
-50.923
-52.2264
-45.5097
-48.7594
-48.3332
-47.7685
-47.9032
-64.3887
-64.525
-63.8192
71.9523
-46.6475
-43.1457
-54.1774
-21.4165
-34.5079
-34.4368
-42.2594
-31.8333
-47.6625
-50.054
-49.4577
-47.2077
16.9347
11.716
-116.088
142.373
-81.6539
-56.7718
-66.4804
-72.879
-48.5586
-46.1242
-48.3393
-42.6925
-48.6818
-48.1211
-47.3754
-47.8635
-46.7499
-42.8977
-54.1853
-21.4124
-47.5927
-50.0286
-49.3916
-47.1765
-41.0287
-43.6588
-43.4816
-44.5045
-54.5387
-55.5679
-57.106
-51.8873
-49.9119
-49.9128
-53.5456
-48.4278
-44.7224
-46.4129
-45.3359
-46.1659
-48.4215
-48.4255
-46.2161
-45.3081
-64.9878
-57.4981
-56.2483
-71.9079
3.9412
3.91225
23.4062
-47.3349
-57.5513
-57.5517
-63.1898
-53.8363
-41.1162
-43.8076
-43.5216
-44.5073
-54.3856
-55.5019
-56.8778
-51.8684
-44.7617
-46.4595
-45.4172
-46.2422
-65.0841
-57.5333
-56.2965
-71.9547
-79.2192
-65.0793
-62.7215
-56.7923
-79.2046
-65.1156
-62.7337
-56.8402
-90.7307
-77.2867
-77.2787
-67.5149
-24.5335
-9.93305
-9.93331
3.37056
199.655
188.507
199.251
199.751
-45.2631
-48.2513
-45.9165
-49.2191
-45.3665
-48.3089
-45.9998
-49.2838
-44.9727
-45.6811
-44.9754
-44.947
-92.6345
-115.096
-79.2876
-92.6504
-51.7942
-49.2047
-50.9128
-48.8877
-51.691
-49.0012
-50.8125
-48.7882
-49.5497
-47.5788
-47.5753
-46.0313
-44.4984
-46.3174
-46.3073
-48.2025
-42.1942
-42.3708
-41.5615
-42.1716
-122.723
124.634
-143.327
109.134
-112.883
-104.771
-50.542
-44.6981
-52.9156
-45.4903
-54.9538
-53.2303
-110.776
114.248
-70.9142
97.6704
-73.0175
-50.6667
-46.6645
-39.7461
-44.8552
-34.3869
-46.913
-45.5774
-143.348
109.215
-122.715
124.034
-112.841
-104.766
-52.876
-45.4691
-50.4733
-44.667
-54.8192
-53.2256
-72.1151
97.3642
-110.866
114.339
-73.0222
-50.7249
-44.7666
-34.2324
-46.5467
-39.627
-46.8086
-45.5124
-46.051
-56.3601
-45.167
-45.8887
-64.7842
-49.569
-52.4234
-47.7158
-49.0859
-46.0164
-42.0726
-44.347
-41.6954
-56.9669
-45.4471
-45.4672
-57.6123
-4.61257
-58.144
-57.6201
-61.4452
-97.9734
13.8899
-49.3611
-49.2184
-49.9775
-48.2007
-46.6134
-51.9949
-60.012
-60.3832
-52.685
-46.4188
-56.3144
-52.4995
-47.743
-45.4206
-45.8279
-64.151
-49.516
-48.8184
-45.9473
-45.456
-45.4354
-42.291
-44.3944
-41.9992
-57.5277
-57.5573
-4.6516
13.8765
-48.8164
-58.0751
-57.6208
-61.4977
-98.3152
-49.2243
-49.9934
-60.39
-52.6842
-48.2534
-46.6253
-52.0549
-60.0298
-111.962
-101.232
176.422
172.617
-108.217
-108.216
141.129
140.811
-83.4434
-56.0489
-88.6347
-65.5565
-51.3779
-48.616
-42.166
-40.9089
-52.9895
-52.9927
-45.1638
-45.1601
-47.4239
-51.6773
-46.2242
-49.7036
-46.7178
-46.8078
168.209
168.107
-58.0448
-73.1743
-28.751
-2.47733
-43.1969
-43.171
-36.3728
-36.4403
-49.6319
-50.611
-48.1748
-45.0471
-111.939
-101.24
172.697
176.529
-83.4247
-56.1691
-88.6034
-65.5393
-48.5181
-51.268
-42.1238
-40.8457
-47.1116
-51.5224
-46.2
-49.7202
-73.1523
-58.0597
-2.47745
-28.7529
-50.5655
-49.5359
-45.0168
-48.1637
-45.0219
-43.2641
-44.9919
-44.4531
-49.9675
-54.8838
-48.1231
-52.2695
-58.9731
-58.9654
-46.5203
-46.5301
-43.7569
-46.9285
-48.157
-47.6951
-45.1989
-45.1921
-45.0932
-45.0787
-50.5762
-53.6611
-101.287
-73.8164
14.5064
14.6146
-96.5507
-96.5704
-69.3142
-69.3202
-50.5599
-50.5574
-45.1109
-43.4215
-44.9914
-44.4669
-54.8299
-50.2781
-48.1697
-52.2966
-46.9979
-43.9205
-48.151
-47.6768
-53.7052
-50.6404
-73.8364
-101.352
-132.331
-83.5423
-80.7577
-112.646
-68.8418
-61.3889
-56.2241
-55.1677
-65.0224
-53.0678
-56.9334
-56.4918
-112.316
-114.926
-76.2487
-61.5564
-132.437
-112.664
-80.7461
-83.5086
-112.334
-61.5507
-76.2543
-114.835
-64.9461
-56.3811
-56.9403
-53.0128
-68.3182
-55.2022
-56.3392
-60.5223
-142.955
-143.017
-90.2267
-85.4885
-142.979
-85.4063
-90.2161
-143.027
-52.5569
-53.2561
-67.0143
-63.2561
-52.2711
-63.2255
-67.0162
-53.2265
-77.1881
-33.3959
-25.1098
-72.7297
-23.9725
21.0794
2.11524
-12.2834
-23.5305
-12.2861
2.11631
21.1007
-77.2812
-72.63
-25.1129
-33.3979
107.795
139.61
186.865
103.207
79.8258
110.302
190.296
127.12
80.0109
127.019
190.457
110.537
107.702
103.179
186.812
139.728
-48.3317
-44.1004
-46.4557
-50.6322
-40.6641
-43.5516
-44.4099
-42.7162
-50.3245
-53.9398
-47.8901
-46.5287
-63.6744
-53.9946
-50.5761
-58.7666
-48.1901
-50.6239
-46.5331
-44.1406
-63.6986
-58.8152
-50.6253
-53.9823
-50.3859
-46.5933
-48.0364
-53.99
-41.1132
-42.856
-44.5381
-43.6979
-47.5579
-48.2594
-45.5346
-44.2565
-47.4932
-44.2541
-45.5632
-48.2858
-45.1159
-46.0481
-44.8401
-44.2143
-45.0682
-44.1809
-44.8335
-46.0458
-98.4526
-80.7142
-112.767
-45.5946
-56.3342
-62.5988
-78.3163
-65.0454
-56.345
-65.0832
-78.3262
-62.6039
-102.882
-45.4998
-112.768
-80.8082
-57.0024
-47.0907
-47.9632
-52.7505
-51.1889
-49.7991
-51.3864
-52.2871
-45.5072
-48.2663
-52.1428
-47.3777
-48.6776
-45.6739
-49.772
-50.4617
-57.1912
-52.9569
-47.7993
-46.6693
-48.7081
-50.4334
-49.7101
-45.6935
-45.3838
-47.2788
-52.0405
-48.187
-51.1677
-51.8658
-51.2552
-49.7213
-44.0548
-45.2268
-46.0634
-46.6278
-43.9668
-46.5786
-46.0544
-45.2164
-53.1332
-52.3922
-49.6027
-50.1295
-53.2321
-50.0965
-49.6065
-52.407
-50.9099
-48.8021
-48.1953
-53.626
-48.6068
-42.7485
-44.6784
-45.7058
-48.0923
-45.6647
-44.6625
-42.5799
-50.9187
-53.6256
-48.1889
-48.79
-45.8644
-45.5539
-42.2707
-42.2171
-45.8348
-42.1602
-42.249
-45.5501
-37.8615
-32.3521
-41.3435
-41.4326
-37.9919
-41.5139
-41.3698
-32.448
7.17414
-104.636
-176.364
-52.7658
-53.0036
-53.0794
-36.4707
-52.8185
-102.988
-42.5966
-39.1325
-44.2585
-104.417
7.7197
-176.413
-53.011
-52.7041
-53.0246
-52.9212
-37.0078
-102.98
-39.0183
-42.447
-44.1142
-59.0753
-48.0833
-56.7831
-50.2531
-50.8093
-41.282
-35.2504
-46.9895
-79.9137
-70.7887
-76.1839
-90.8998
-50.2363
-50.0913
-51.5656
-52.1398
-63.4012
-50.5648
-47.6655
-56.5961
-48.2632
-47.0177
-42.0153
-36.5471
-79.7521
-90.4003
-70.7487
-76.2423
-50.2513
-52.1557
-50.1235
-51.5884
16.1063
19.8107
-87.1151
103.805
-213.698
-213.433
-187.596
-27.1566
-72.7598
-61.8842
-66.9995
-70.5572
-47.3669
-46.5821
-48.8685
-43.3234
-50.4969
-50.4938
-51.3658
-47.3293
-48.9724
-43.5188
-48.867
-48.4949
-78.7681
-78.5904
-61.9538
-6.63175
-45.2873
-42.4246
-52.9685
-27.6753
-34.0658
-34.0275
-36.8731
-32.0179
-48.3024
-49.574
-49.1933
-48.0221
17.8964
14.8947
-85.5638
103.808
-72.5682
-61.8409
-66.9128
-69.9649
-47.2992
-46.5096
-48.7797
-43.2658
-48.7747
-43.3015
-48.3676
-48.4353
-45.2588
-42.3948
-52.9747
-27.6649
-48.2439
-49.5231
-49.1204
-47.9714
-41.064
-43.8929
-43.4202
-44.8017
-54.8942
-54.92
-55.2134
-53.2041
-50.0319
-50.0285
-51.5286
-49.5404
-46.1451
-46.2322
-46.0295
-46.8816
-48.3734
-48.3745
-46.911
-47.3185
-62.8847
-59.1191
-58.7063
-66.1048
4.79309
5.07716
18.443
-13.2803
-57.857
-57.8554
-60.4384
-55.7051
-41.5364
-44.0039
-43.4273
-44.809
-54.7424
-54.8382
-55.0348
-53.1442
-46.1617
-46.2922
-46.1231
-46.9787
-62.9573
-59.1623
-58.757
-66.1878
-69.2466
-64.432
-63.387
-59.6997
-69.2521
-64.463
-63.4022
-59.7373
-83.9098
-77.6174
-77.6144
-72.3804
-16.0108
-8.96032
-8.9606
-3.04217
202.404
200.525
200.922
202.702
-45.9941
-47.6238
-46.4421
-48.1239
-46.0845
-47.692
-46.5262
-48.1939
-45.0463
-45.322
-44.9756
-45.0415
-93.2415
-103.896
-85.3028
-93.2477
-50.6407
-49.5437
-50.3194
-49.194
-50.5128
-49.3852
-50.1991
-49.086
-48.475
-47.5364
-47.5339
-46.7171
-45.3283
-46.2779
-46.2717
-47.1804
-42.2485
-42.651
-42.5699
-42.2367
48.1906
14.6335
-88.616
80.2982
-177.87
-216.333
-190.754
-3.14412
-121.067
-90.8996
-106.98
-102.928
-50.7785
-49.6262
-49.5774
-45.442
-52.0366
-51.0943
-52.2003
-47.9439
-56.1072
-56.7971
-57.0794
-53.2268
-3.12064
14.1574
-116.588
92.742
-64.2612
-65.9024
-78.6066
15.0061
-70.9527
-51.8118
-72.458
-53.6296
-43.4605
-45.6417
-47.0503
-40.9196
-36.9518
-35.1673
-38.1862
-34.853
-45.9446
-47.1636
-46.6375
-46.0567
-177.809
-216.212
-190.811
-3.02024
46.7693
14.6328
-88.698
79.4174
-121.069
-90.743
-106.903
-102.98
-52.0114
-51.081
-52.1685
-47.9342
-50.7305
-49.5728
-49.5089
-45.4073
-56.3516
-56.682
-57.0016
-53.214
-63.6546
-66.1077
-78.3444
15.1135
-3.05978
14.0416
-116.541
92.7062
-70.8325
-51.8202
-72.4565
-53.6551
-36.8473
-35.0606
-38.0974
-34.7158
-43.3247
-45.5411
-46.9396
-40.8113
-45.836
-47.081
-46.5351
-45.9774
-49.1669
-52.8598
-40.4665
-54.7731
-46.5641
-43.0615
-44.7191
-46.1072
-56.5086
-54.8769
-65.0088
-51.9314
-49.8412
-49.4947
-51.2287
-48.7513
-47.2976
-46.7492
-49.5742
-46.5257
-43.1632
-42.378
-42.0102
-44.4241
-35.1552
-42.7682
-40.9329
-50.4141
-46.2341
-48.0205
-45.9396
-46.3721
-62.9416
-43.0153
-57.3109
-22.267
-61.4926
-56.8061
-58.541
-58.3043
-71.4903
-67.0706
-65.0223
-79.4761
-23.0674
1.86985
6.25529
-26.6871
-49.5696
-49.8546
-49.3811
-49.5105
-48.4729
-46.9223
-47.9326
-48.382
-53.499
-55.975
-53.5414
-57.373
-56.0126
-56.8341
-58.1053
-54.2509
-45.7113
-52.3758
-40.8545
-54.4812
-49.978
-49.5461
-51.3288
-48.8082
-46.3872
-42.907
-44.5994
-46.0024
-56.2085
-54.7131
-64.4045
-51.8085
-47.3309
-46.5806
-48.7166
-46.4513
-46.1997
-48.0132
-45.9358
-46.3405
-43.4517
-42.8685
-42.0859
-44.4765
-35.7092
-42.7914
-41.2171
-49.3675
-62.9907
-42.9788
-57.2433
-22.2394
-31.1445
1.96218
6.40916
-25.796
-61.4561
-56.755
-58.4797
-58.2857
-71.6663
-67.1932
-65.1149
-79.7727
-49.5766
-49.8361
-49.3789
-49.5122
-56.013
-56.8371
-58.1098
-54.2532
-48.5199
-46.9574
-47.9797
-48.4073
-53.5222
-56.0082
-53.5753
-57.4061
-111.761
-91.3161
-109.013
-103.134
171.788
193.877
185.371
179.64
-122.429
-98.5916
-108.489
-108.483
125.352
168.191
139.834
140.649
-66.5356
-65.5987
-73.9813
-60.4131
-74.4055
-76.6907
-81.7874
-70.3658
-48.7465
-52.551
-50.9043
-49.6495
-42.5834
-42.1901
-42.778
-41.9056
-53.265
-50.8442
-52.665
-52.6646
-45.1804
-43.8761
-45.4802
-45.4798
-48.3528
-48.8442
-47.7468
-49.9784
-47.7329
-47.6384
-46.8793
-48.6092
-73.4039
-35.1734
-48.3266
-48.3689
140.454
192.288
172.87
171.681
-57.0827
-62.1659
-57.2301
-65.3893
-17.0832
-11.5309
-20.413
-7.73853
-42.0548
-43.7007
-42.976
-42.9621
-32.8166
-38.5961
-36.1927
-36.2342
-49.8111
-51.1804
-49.9486
-50.5433
-46.6065
-46.388
-47.2955
-45.6958
-111.865
-91.2875
-109.05
-103.252
171.86
194.094
180.266
185.475
-66.5356
-65.6324
-73.9756
-60.4668
-74.3722
-76.6747
-81.7561
-70.3457
-48.663
-52.43
-49.5474
-50.7751
-42.5352
-42.1587
-42.7437
-41.8598
-47.8883
-48.5787
-47.4373
-49.6922
-47.7167
-47.6319
-46.8615
-48.6113
-57.0812
-62.1769
-65.3786
-57.1871
-17.0726
-11.5284
-7.7374
-20.4046
-49.7417
-51.1118
-50.4839
-49.8575
-46.5832
-46.3735
-45.6718
-47.2808
-43.6333
-44.6449
-44.4718
-43.6235
-44.5221
-44.712
-44.7148
-44.4515
-54.4094
-54.6209
-51.1835
-52.438
-50.811
-48.9412
-48.969
-50.8977
-56.0932
-63.1582
-59.2568
-59.2539
-47.4673
-46.095
-46.6667
-46.6741
-45.5982
-45.5476
-44.4342
-46.2796
-49.189
-48.8821
-48.5032
-49.834
-45.7041
-45.0998
-45.2938
-45.2906
-44.9034
-45.4721
-45.0829
-45.075
-54.2329
-50.7119
-51.7131
-52.6581
-77.9959
-89.9495
-95.1816
-79.3528
22.4847
8.1766
15.5306
15.4618
-85.1776
-112.605
-98.66
-98.6873
-66.5048
-74.3085
-69.9521
-69.9543
-52.1156
-49.3926
-50.6423
-50.641
-43.7525
-44.7576
-44.5731
-43.7576
-44.5247
-44.7097
-44.7151
-44.4611
-54.2375
-54.649
-52.3921
-51.1773
-50.8206
-48.9865
-49.0067
-50.9259
-45.6896
-45.6331
-46.3735
-44.5763
-49.2353
-48.812
-48.4966
-49.8208
-54.2926
-50.7751
-52.7001
-51.782
-77.8332
-89.9735
-79.3797
-95.2079
-122.104
-117.672
-114.368
-97.5701
-47.9902
-46.1434
-52.1111
-48.4245
-57.8588
-57.6511
-58.8675
-56.6764
-91.8756
-77.5276
-97.7315
-84.1545
-122.056
-117.659
-114.316
-97.5555
-92.0168
-77.5464
-97.686
-84.0808
-57.7999
-57.5927
-58.8677
-56.6227
-48.232
-47.6638
-52.3627
-49.1299
-121.588
-106.282
-107.73
-96.679
-121.591
-106.269
-107.721
-96.6545
-56.7726
-54.4085
-61.3437
-58.5283
-56.7888
-54.3809
-61.3573
-58.5177
-58.0298
-47.9386
-45.7709
-36.6885
3.86156
14.2408
2.76534
12.4241
3.8658
14.1976
2.76549
12.6123
-58.2841
-48.0381
-45.8424
-36.7134
136.327
125.577
162.616
141.907
133.237
132.32
164.695
162.011
132.291
133.264
162.08
164.742
125.582
136.153
141.897
162.7
-46.1339
-47.8714
-45.6948
-47.3825
-42.2094
-42.1357
-42.9911
-43.1541
-48.5779
-50.309
-47.779
-49.6378
-57.015
-58.3836
-53.8248
-54.9479
-46.1867
-47.8778
-45.7666
-47.4335
-57.0337
-58.4227
-53.8548
-54.9884
-48.6318
-50.3683
-47.8353
-49.6939
-42.4596
-42.4077
-43.1764
-43.3428
-45.9352
-46.8381
-45.4763
-46.2797
-46.8451
-45.9129
-46.2879
-45.4735
-45.0619
-44.6124
-44.9373
-44.5589
-44.5814
-45.047
-44.5404
-44.9268
-109.213
-80.3525
-101.322
-96.0481
-63.3055
-63.0093
-69.5872
-67.809
-63.0174
-63.3924
-67.8176
-69.6022
-80.27
-109.532
-96.0207
-101.385
-47.9601
-51.5411
-47.4761
-48.0074
-51.5847
-53.6795
-52.1942
-53.1501
-47.2723
-47.2181
-48.2537
-48.4297
-48.8906
-46.4597
-50.0978
-47.4252
-48.0731
-52.1419
-47.1264
-47.9708
-48.8851
-46.4493
-50.0594
-47.3979
-47.1355
-47.112
-48.1487
-48.3419
-51.4971
-53.6093
-52.0936
-53.0762
-45.5543
-44.9848
-45.6923
-45.1647
-45.5064
-44.9492
-45.6626
-45.1418
-53.7197
-53.3777
-52.9818
-51.124
-53.7933
-53.3192
-52.992
-51.1052
-50.1364
-51.4299
-49.1747
-50.4512
-43.7105
-44.8224
-43.5739
-44.5413
-43.6519
-44.7668
-43.5372
-44.5039
-50.1304
-51.4273
-49.1684
-50.4482
-44.7175
-45.03
-43.4347
-45.3625
-45.0131
-44.7425
-45.3598
-43.4123
-35.0279
-38.3589
-36.6089
-39.1893
-38.4916
-35.1776
-39.2791
-36.7017
-78.2181
88.2096
-193.131
-4.3627
-140.82
-140.951
-50.3798
-47.5044
-53.0491
-48.0555
-51.2645
-52.5271
-115.356
64.4147
-96.9389
29.6971
-101.521
-78.0034
-45.5831
-39.2939
-40.2367
-37.7963
-45.1343
-46.5742
-193.168
-4.14043
-78.361
88.3929
-140.913
-140.961
-52.9951
-48.1141
-50.3126
-47.4723
-51.2571
-52.5077
-96.9255
30.0459
-114.859
64.465
-101.492
-78.1124
-40.0978
-37.6751
-45.4217
-39.1165
-45.0091
-46.4364
-54.3055
-55.0913
-47.7853
-47.3519
-70.1771
-50.8667
-50.0605
-48.7048
-56.4664
-44.3707
-40.5348
-44.7208
-39.1675
-43.8133
-45.5959
-46.7063
-69.403
-57.4263
-65.405
-64.3771
-68.2594
-89.5956
-35.4897
-87.6518
-49.2782
-50.5208
-49.8184
-48.9254
-51.4477
-54.3869
-54.808
-52.0615
-53.6974
-55.7891
-50.4444
-48.7288
-47.5909
-47.0627
-70.1939
-50.6936
-56.1228
-44.2191
-45.6176
-46.613
-41.4178
-44.8279
-39.8348
-44.2559
-69.2546
-57.2521
-35.3225
-67.912
-65.3419
-64.3673
-68.3185
-90.5572
-49.2981
-50.532
-54.8188
-52.0675
-49.874
-48.9672
-51.4874
-54.406
-76.4637
92.8038
-90.5619
98.34
-114.447
-115.467
141.54
142.755
-186.957
-16.9182
-186.996
-16.652
-142.668
-142.674
94.9567
95.3404
-83.3012
-83.4735
-55.0731
-60.3561
-74.3661
-60.2646
-78.756
-67.6653
-48.8762
-43.4409
-47.9327
-42.2743
-48.8299
-47.8875
-42.8863
-42.279
-51.6081
-47.4859
-51.5953
-47.4763
-52.3233
-52.3276
-45.4983
-45.494
-49.7505
-50.9503
-47.21
-46.8275
-46.9274
-50.0836
-47.1466
-48.8436
-54.5522
17.5724
-54.4057
17.4277
-69.7911
-69.9266
82.1767
83.1172
-57.8091
-36.9656
-51.1695
-22.9161
-52.9793
-56.0771
-26.9563
-15.844
-37.1816
-32.9584
-37.1473
-32.8706
-42.2311
-42.3141
-31.9696
-32.0215
-47.9294
-46.5093
-50.2789
-49.6526
-48.906
-50.0534
-47.9841
-46.5146
-76.1173
93.184
-90.2363
98.4093
-114.416
-115.204
142.635
141.54
-83.2472
-83.3772
-54.9714
-60.6429
-74.3298
-60.2642
-78.6328
-67.7841
-48.7952
-43.3867
-47.833
-42.1965
-47.7981
-48.7539
-42.8395
-42.2137
-49.6621
-50.945
-46.9362
-46.7668
-46.7629
-48.6132
-47.0943
-48.8356
-57.8723
-36.97
-51.1741
-22.9096
-56.0231
-52.9447
-15.843
-26.9506
-47.8527
-46.4628
-50.256
-49.6416
-49.9975
-48.8378
-46.4824
-47.961
-42.6985
-44.6172
-42.5411
-44.4533
-43.8688
-43.1313
-43.9597
-44.2986
-58.6438
-52.4186
-56.1508
-54.8116
-59.0071
-56.5723
-51.3478
-52.7768
-51.1946
-49.4057
-51.2568
-49.3701
-53.4631
-53.4491
-48.3852
-48.3986
-44.1836
-49.9376
-46.5134
-46.3679
-44.2038
-45.9929
-50.1315
-45.2505
-46.7528
-47.3808
-46.7515
-47.376
-46.164
-46.1629
-45.285
-45.2789
-61.7144
-72.1163
-55.9655
-61.2285
-55.0548
-57.5616
-76.0497
-68.1646
15.3315
-15.7607
15.3921
-15.6199
22.778
22.796
-46.979
-46.9451
-59.9666
-55.4048
-59.9678
-55.4041
-63.0438
-63.0514
-53.7912
-53.7908
-42.7445
-44.6149
-42.6505
-44.5023
-43.869
-43.221
-43.9821
-44.3141
-58.2924
-52.3595
-56.0583
-54.7735
-56.4187
-58.6284
-51.3284
-52.7625
-44.2861
-50.0336
-46.5698
-46.4064
-46.0719
-44.315
-50.2832
-45.2865
-61.786
-72.2579
-56.0003
-61.2857
-57.6094
-55.1085
-68.2044
-76.111
-79.8638
-77.7194
-71.4712
-60.3117
-59.05
-67.3012
-56.5639
-57.0273
-79.851
-77.7117
-71.4693
-60.3761
-67.3149
-59.0575
-57.0499
-56.6493
-90.5615
-90.5565
-83.4071
-71.8874
-83.3958
-71.8813
-67.3319
-67.3334
-24.711
-24.7127
-16.9807
-4.37826
-4.37892
-16.9818
3.10931
3.11064
198.082
193.139
187.732
188.041
196.898