# vtk DataFile Version 2.0
tet_velo
ASCII
DATASET UNSTRUCTURED_GRID
POINTS 29498 float
-0.665165 0.265 -1.915
-0.785439 0.205 1.875
-0.695781 0.755 -1.785
-0.615 1.005 1.89602
0.705 0.265 -1.91044
0.746208 0.205 1.875
0.735 0.750259 -1.785
0.645 1.005 1.89928
-0.736568 0.213688 -0.651667
-0.756711 0.213637 0.611667
-0.721522 0.891002 -0.557993
-0.741391 1.02113 0.669014
0.75011 0.213626 -0.648627
0.743971 0.213501 0.613187
0.759067 0.88924 -0.556907
0.775505 1.02059 0.671187
-1.39455 -0.106878 -2.95628
-1.40757 -0.0750386 -1.96007
-1.46333 -0.114054 -0.696008
-1.48825 -0.14927 0.57521
-1.49508 -0.168309 1.83986
-1.50759 -0.162307 2.83899
-1.52203 -0.144131 3.83262
-1.39102 0.197223 -2.90485
-1.4011 0.24964 -1.91243
-1.46467 0.2354 -0.655205
-1.47967 0.232142 0.605233
-1.46759 0.216898 1.86312
-1.48877 0.222919 2.86178
-1.50975 0.239709 3.85655
-1.39931 0.761461 -2.79148
-1.41529 0.809732 -1.79702
-1.45429 0.914806 -0.564426
-1.45401 1.01364 0.665503
-1.36637 1.01184 1.89876
-1.42371 1.0126 2.89934
-1.47507 1.02181 3.90012
-1.40062 1.73329 -2.64858
-1.41223 1.80498 -1.65981
-1.4258 1.95188 -0.438412
-1.43095 2.09683 0.775189
-1.42428 2.16438 1.99688
-1.43333 2.17989 2.98626
-1.4574 2.18709 3.9831
-0.673743 -0.0990365 -2.9573
-0.676826 -0.0628916 -1.96211
-0.72877 -0.123877 -0.694398
-0.755933 -0.163868 0.580645
-0.775538 -0.180857 1.84852
-0.792522 -0.172396 2.8452
-0.806037 -0.151915 3.83664
-0.670939 0.197907 -2.9045
-0.788485 0.21424 2.86723
-0.800045 0.232755 3.85989
-0.678995 0.737475 -2.7863
-0.727436 1.00775 2.89983
-0.771643 1.01773 3.9011
-0.67542 1.71238 -2.64337
-0.683917 1.78311 -1.65415
-0.693753 1.94164 -0.434578
-0.705877 2.10094 0.77591
-0.712266 2.16974 1.99556
-0.724154 2.1826 2.98494
-0.746707 2.18808 3.98244
0.742707 -0.0998324 -2.95412
0.733816 -0.0631132 -1.95833
0.746256 -0.12403 -0.691512
0.738297 -0.164029 0.582349
0.728164 -0.180937 1.84932
0.674622 -0.172512 2.84648
0.642 -0.152098 3.83832
0.738166 0.196742 -2.90148
0.661714 0.214158 2.86855
0.636456 0.232587 3.86163
0.747523 0.734871 -2.78467
0.644133 1.00764 2.90211
0.638829 1.01754 3.90317
0.773974 1.71049 -2.64168
0.772136 1.78124 -1.65257
0.773032 1.94032 -0.432816
0.752284 2.1002 0.778011
0.711216 2.16931 1.99788
0.689732 2.18225 2.98725
0.673341 2.18774 3.98466
1.4585 -0.108636 -2.95041
1.45185 -0.0761085 -1.95369
1.47667 -0.114733 -0.690649
1.47662 -0.149727 0.579046
1.45414 -0.168587 1.84263
1.40809 -0.162618 2.84205
1.37232 -0.144546 3.83613
1.45286 0.194861 -2.89929
1.43849 0.248081 -1.90614
1.48048 0.234517 -0.649927
1.4812 0.23167 0.609147
1.44532 0.216696 1.86599
1.39549 0.222659 2.86499
1.36506 0.239319 3.86018
1.46482 0.757314 -2.78766
1.4582 0.805081 -1.79376
1.49273 0.912403 -0.560686
1.49379 1.01271 0.669878
1.392 1.01153 1.90362
1.36809 1.01229 2.9037
1.35948 1.02137 3.90425
1.49984 1.72982 -2.64501
1.50013 1.80162 -1.6564
1.50413 1.94944 -0.434718
1.48327 2.09537 0.779396
1.43508 2.16347 2.00143
1.4077 2.17915 2.99079
1.3907 2.18638 3.98751
-0.711434 0.51 -1.88096
0.0199175 0.25391 -1.92381
-0.699056 0.241155 -1.28333
-0.736266 0.605 1.92156
-0.0196155 0.262508 1.81749
-0.764741 0.215652 1.24333
0.0196095 0.826656 -1.85903
-0.762221 0.87657 -1.1715
0.015 1.06292 1.95557
-0.716651 1.05152 1.28252
0.749356 0.507629 -1.87708
0.721476 0.245392 -1.27953
0.761029 0.605 1.95256
0.735926 0.218414 1.24409
0.799596 0.872312 -1.17095
0.749579 1.05212 1.28523
-0.746624 0.213678 -0.02
-0.84265 0.552345 -0.60483
0.00677119 0.211114 -0.650147
-0.834881 0.617384 0.64034
-0.00637017 0.211054 0.612427
-0.744955 0.969564 0.05551
0.0187725 1.19502 -0.55745
0.0170573 1.42865 0.6701
0.747027 0.213577 -0.01772
0.876317 0.551433 -0.602767
0.868702 0.617047 0.642187
0.779215 0.966844 0.05714
-0.881985 0.531173 -1.22742
-0.835159 0.584864 0.017755
-0.883597 0.611192 1.26293
0.0133443 0.226891 -1.28143
0.000200508 0.211093 -0.01886
-0.0129928 0.247845 1.24371
0.0197635 0.508815 -2.16553
-0.00230776 0.605 2.16338
0.019191 0.994882 -1.17123
0.0179149 1.40914 0.056325
0.0160286 1.3856 1.28388
0.847973 0.529531 -1.22524
0.869235 0.58424 0.01971
0.854498 0.611023 1.26466
-1.03313 0.25732 -1.91371
-0.670996 0.101054 -1.93855
-0.668052 0.231454 -2.40975
-1.12651 0.210949 1.86906
-0.780488 0.0120713 1.86176
-0.786962 0.20962 2.37111
-1.05553 0.782366 -1.79101
-0.687388 0.746237 -2.28565
-0.689849 1.26905 -1.71958
-0.990687 1.00842 1.89739
-0.671218 1.00637 2.39793
-0.663633 1.58737 1.94579
0.719408 0.100943 -1.93438
0.721583 0.230871 -2.40596
1.07174 0.256541 -1.90829
0.737186 0.0120314 1.86216
0.703961 0.209579 2.37177
1.09576 0.210848 1.87049
0.741262 0.742565 -2.28484
0.753568 1.26575 -1.71879
1.0966 0.77767 -1.78938
0.644567 1.00632 2.4007
0.678108 1.58715 1.94858
1.0185 1.00827 1.90145
-1.10062 0.224544 -0.653436
-0.732669 0.0449059 -0.673032
-1.11819 0.22289 0.60845
-0.756322 0.0248842 0.596156
-1.08791 0.902904 -0.56121
-0.707638 1.41632 -0.496286
-1.0977 1.01738 0.667258
-0.723634 1.56104 0.722462
0.748183 0.0447979 -0.670069
1.1153 0.224071 -0.649277
0.741134 0.0247361 0.597768
1.11259 0.222586 0.611167
0.76605 1.41478 -0.494862
1.1259 0.900822 -0.558796
0.763895 1.5604 0.724599
1.13465 1.01665 0.670532
-1.40106 -0.0909585 -2.45817
-1.39278 0.0451723 -2.93056
-1.03414 -0.102957 -2.95679
-1.43545 -0.0945462 -1.32804
-1.40433 0.0873005 -1.93625
-1.0422 -0.0689651 -1.96109
-1.47579 -0.131662 -0.0603994
-1.464 0.0606731 -0.675607
-1.09605 -0.118965 -0.695203
-1.49166 -0.15879 1.20754
-1.48396 0.0414359 0.590221
-1.12209 -0.156569 0.577927
-1.50134 -0.165308 2.33943
-1.48133 0.0242943 1.85149
-1.13531 -0.174583 1.84419
-1.51481 -0.153219 3.33581
-1.49818 0.0303062 2.85039
-1.15006 -0.167351 2.8421
-1.51589 0.0477891 3.84459
-1.16403 -0.148023 3.83463
-1.39606 0.223431 -2.40864
-1.39516 0.479342 -2.84817
-1.03098 0.197565 -2.90467
-1.43288 0.24252 -1.28382
-1.40819 0.529686 -1.85473
-1.47217 0.233771 -0.0249863
-1.45948 0.575103 -0.609816
-1.47363 0.22452 1.23418
-1.46684 0.622891 0.635368
-1.47818 0.219908 2.36245
-1.41698 0.614368 1.88094
-1.49926 0.231314 3.35917
-1.45624 0.617762 2.88056
-1.13863 0.21858 2.8645
-1.49241 0.63076 3.87834
-1.1549 0.236232 3.85822
-1.4073 0.785596 -2.29425
-1.39996 1.24737 -2.72003
-1.03915 0.749468 -2.78889
-1.43479 0.862269 -1.18072
-1.41376 1.30736 -1.72842
-1.45415 0.964223 0.0505386
-1.44004 1.43335 -0.501419
-1.41019 1.01274 1.28213
-1.44248 1.55524 0.720346
-1.39504 1.01222 2.39905
-1.39532 1.58811 1.94782
-1.44939 1.01721 3.39973
-1.42852 1.59625 2.9428
-1.07557 1.01018 2.89958
-1.46624 1.60445 3.94161
-1.12336 1.01977 3.90061
-1.40643 1.76914 -2.1542
-1.03802 1.72283 -2.64598
-1.41902 1.87843 -1.04911
-1.04807 1.79404 -1.65698
-1.42837 2.02436 0.168388
-1.05978 1.94676 -0.436495
-1.42761 2.13061 1.38603
-1.06841 2.09889 0.77555
-1.4288 2.17214 2.49157
-1.06827 2.16706 1.99622
-1.44536 2.18349 3.48468
-1.07874 2.18125 2.9856
-1.10205 2.18759 3.98277
-0.675285 -0.080964 -2.4597
-0.672341 0.0494353 -2.9309
0.034482 -0.0994344 -2.95571
-0.702798 -0.0933842 -1.32825
0.0284948 -0.0630024 -1.96022
-0.742351 -0.143873 -0.0568763
0.00874327 -0.123953 -0.692955
-0.765735 -0.172363 1.21458
-0.00881759 -0.163949 0.581497
-0.78403 -0.176627 2.34686
-0.0236871 -0.180897 1.84892
-0.799279 -0.162155 3.34092
-0.790503 0.0209222 2.85621
-0.0589501 -0.172454 2.84584
-0.803041 0.04042 3.84826
-0.0820187 -0.152006 3.83748
-0.674967 0.467691 -2.8454
0.0336132 0.197324 -2.90299
-0.794265 0.223497 3.36356
-0.75796 0.610993 2.88353
-0.0633855 0.214199 2.86789
-0.785844 0.625243 3.88049
-0.0817944 0.232671 3.86076
-0.677207 1.22493 -2.71484
0.0342642 0.736173 -2.78549
-0.749539 1.01274 3.40046
-0.725795 1.59517 2.94239
-0.0416512 1.00769 2.90097
-0.759175 1.60291 3.94177
-0.0664067 1.01764 3.90213
-0.679668 1.74774 -2.14876
0.0492771 1.71143 -2.64253
-0.688835 1.86237 -1.04437
0.0441096 1.78217 -1.65336
-0.699815 2.02129 0.170666
0.0396395 1.94098 -0.433697
-0.709071 2.13534 1.38573
0.0232038 2.10057 0.776961
-0.71821 2.17617 2.49025
-0.000524921 2.16953 1.99672
-0.73543 2.18534 3.48369
-0.0172106 2.18242 2.9861
-0.0366828 2.18791 3.98355
0.738262 -0.0814728 -2.45622
0.740437 0.0484547 -2.9278
1.1006 -0.104234 -2.95227
0.740036 -0.0935715 -1.32492
1.09283 -0.0696108 -1.95601
0.742277 -0.14403 -0.0545813
1.11146 -0.119381 -0.691081
0.733231 -0.172483 1.21583
1.10746 -0.156878 0.580698
0.701393 -0.176725 2.3479
1.09115 -0.174762 1.84598
0.658311 -0.162305 3.3424
0.668168 0.0208227 2.85751
1.04135 -0.167565 2.84426
0.639228 0.0402441 3.84997
1.00716 -0.148322 3.83722
0.742845 0.465807 -2.84308
1.09551 0.195801 -2.90039
0.649085 0.223372 3.36509
0.652924 0.6109 2.88533
1.0286 0.218408 2.86677
0.637643 0.625064 3.8824
1.00076 0.235953 3.86091
0.760748 1.22268 -2.71318
1.10617 0.746093 -2.78616
0.641481 1.01259 3.40264
0.666933 1.59495 2.94468
1.00611 1.00996 2.90291
0.656085 1.60264 3.94391
0.999156 1.01946 3.90371
0.773055 1.74586 -2.14713
1.13691 1.72015 -2.64335
0.772584 1.86078 -1.04269
1.13614 1.79143 -1.65448
0.762658 2.02026 0.172597
1.13858 1.94488 -0.433767
0.73175 2.13475 1.38795
1.11777 2.09779 0.778703
0.700474 2.17578 2.49257
1.07315 2.16639 1.99966
0.681537 2.18499 3.48596
1.04872 2.1807 2.98902
1.03202 2.18706 3.98609
1.45517 -0.0923721 -2.45205
1.45568 0.0431125 -2.92485
1.46426 -0.0954207 -1.32217
1.44517 0.0859864 -1.92991
1.47665 -0.13223 -0.0558015
1.47857 0.0598921 -0.670288
1.46538 -0.159157 1.21084
1.47891 0.0409718 0.594097
1.43111 -0.165603 2.34234
1.44973 0.0240543 1.85431
1.3902 -0.153582 3.33909
1.40179 0.0300204 2.85352
1.36869 0.0473869 3.84816
1.44567 0.221471 -2.40271
1.45884 0.476087 -2.84347
1.45948 0.241299 -1.27803
1.44834 0.526581 -1.84995
1.48084 0.233094 -0.0203899
1.4866 0.57346 -0.605307
1.46326 0.224183 1.23757
1.4875 0.62219 0.639512
1.4204 0.219677 2.36549
1.41866 0.614115 1.8848
1.38027 0.230989 3.36259
1.38179 0.617473 2.88435
1.36227 0.630347 3.88222
1.46151 0.781198 -2.29071
1.48233 1.24356 -2.71633
1.47546 0.858742 -1.17722
1.47917 1.30335 -1.72508
1.49326 0.962556 0.0545958
[...]
POINT_DATA 29498
VECTORS point_vectors float
-3.96437 -5.46398 8.40752
0.614942 0.856243 7.93368
-0.801591 0.436959 1.25139
-0.0509395 -0.0549744 0.0248983
4.08393 -7.49939 9.59356
-0.290902 0.524664 6.83363
2.36761 1.3915 3.75093
0.134415 -0.174081 0.11897
-0.00370349 0.00181388 0.0436525
0.0383004 -0.0224037 0.490986
0 0 0
0 0 0
0.003407 0.00097437 0.0944233
0.000352708 -7.03233e-05 0.00816732
0 0 0
0 0 0
-0.612103 -0.338662 19.7958
-1.31538 -0.887207 20.3523
-0.525011 -0.508844 21.3445
0.00120201 -0.183702 21.4552
0.496131 0.11504 21.459
0.758923 0.270692 21.2601
0.790582 0.211262 20.907
-0.787487 -0.266307 19.6398
-1.92201 -0.734744 20.2875
-0.676777 -0.580159 21.4478
-0.0500552 -0.339991 21.5582
0.670845 -0.0721756 21.5795
1.01674 0.0307717 21.3039
1.12913 -0.067311 20.7705
-0.946048 0.0866706 19.558
-2.24367 0.205573 20.294
-1.30743 -0.39533 21.4217
-0.452276 -0.384505 21.672
0.395246 -0.627569 21.6116
0.76721 -0.65106 21.4041
0.758348 -0.49588 20.9672
-0.621832 0.440025 19.9032
-0.995236 0.688863 20.3576
-0.939942 0.499907 21.1053
-0.387681 0.0767064 21.4353
-0.00248122 -0.216915 21.3974
0.175486 -0.378928 21.2325
0.209134 -0.601733 20.6612
-0.572368 -0.692698 19.2361
-1.62433 -3.41591 20.4139
-0.353082 -0.663531 21.7109
0.0264551 -0.088127 21.4479
0.448376 0.697052 21.4551
0.79697 1.02475 20.9587
0.879353 1.22023 20.5267
-0.788674 -0.577438 18.7868
1.47398 1.25608 13.948
1.63462 0.930696 14.9326
-1.08148 0.256775 18.3083
0.181669 -0.714309 6.393
1.41226 -0.738255 12.511
-0.540837 0.923155 19.4522
-1.01977 1.70858 20.0673
-1.2102 1.66504 21.22
-0.407618 0.414092 21.7707
-0.0845776 -0.182506 21.4885
0.0828794 -0.451477 21.2708
0.0738182 -0.474297 21.3268
0.605381 -0.665781 19.2843
1.76225 -3.13028 20.4784
0.310664 -0.755686 21.7403
0.0136084 -0.0199439 21.5137
-0.322834 0.847114 21.4829
-0.603239 1.31627 21.0531
-0.606501 1.59019 20.1284
0.850388 -0.560572 18.8581
-1.10605 1.61557 12.6684
-1.47139 1.52251 14.6706
1.13397 0.231388 18.4183
-0.631768 -0.966648 5.67066
-1.72564 -0.918567 9.71436
0.602839 0.857232 19.5244
1.08254 1.58015 20.0967
1.23395 1.55767 21.2336
0.454517 0.354328 21.8063
0.152332 -0.27653 21.5135
0.00804185 -0.555056 21.2857
-0.0478845 -0.595453 21.3116
0.608632 -0.323166 19.8332
1.22904 -0.798664 20.4027
0.575893 -0.540914 21.3277
-0.00479666 -0.149122 21.5373
-0.541413 0.216812 21.4971
-0.823827 0.409286 21.3057
-0.873113 0.376377 20.8249
0.78206 -0.253425 19.6949
1.79057 -0.685141 20.3578
0.780654 -0.605779 21.4372
0.0118117 -0.294099 21.6736
-0.773859 0.0290332 21.5987
-1.21049 0.181118 21.2917
-1.62296 0.178443 20.296
0.93696 0.0664661 19.6205
2.07681 0.11741 20.3412
1.32866 -0.340821 21.4185
0.378294 -0.408682 21.7448
-0.562162 -0.648068 21.6243
-1.00901 -0.767361 21.3192
-0.829289 -0.547077 21.2835
0.616472 0.386928 19.9444
0.98218 0.620825 20.3837
0.910437 0.435402 21.11
0.39061 0.0277813 21.4228
-0.00104244 -0.286229 21.4018
-0.206601 -0.442117 21.1925
-0.205219 -0.58523 20.9213
-0.999374 -0.0359733 1.09221
0.000374663 -0.0083708 0.0571378
-0.0103223 -0.00154511 0.0772828
0.0112334 -0.0715935 0.0254166
0.000820677 0.00293819 0.0393457
0.00794969 0.120177 1.85365
0.0105748 0.521275 0.961276
-0.384695 -0.14347 0.870829
0.0124074 0.00852683 -0.012599
0 0 0
0.936107 -0.0647038 1.15911
0.019615 -0.000460806 0.264428
-0.0549099 -0.0338182 0.143054
0.00231009 0.0100552 0.185918
0.129156 -0.0524786 0.408863
0 0 0
0.00781007 -0.00298573 0.27495
4.75201e-05 6.66674e-06 0.00137596
-2.39942e-06 -1.61014e-07 0.000151248
0 0 0
1.6013e-06 3.95713e-08 8.08983e-05
0 0 0
-0.000685969 0.0311778 0.0667455
0.000400756 3.63304e-05 0.0271144
-0.000736272 -0.000228625 0.0563876
-3.34193e-05 -4.58856e-05 0.00173477
0 0 0
0 0 0
-0.00498275 -0.00659374 0.111552
0 0 0
0 0 0
-0.000210917 -0.000327215 0.00882413
9.23776e-07 3.10962e-08 0.000131193
0.00147015 0.00158439 0.0305483
0.0449404 -0.108009 0.409555
0.203593 -0.311102 0.0466601
-0.00324189 0.00419983 0.0582522
0.000226554 0.00752517 0.0530943
0.000971935 -0.00132381 0.0122648
0 0 0
0 0 0
-8.80984e-18 1.40134e-17 1.96997e-16
-3.73228 -2.14225 19.7947
-2.52014 -5.58375 20.3926
-2.16162 -1.82419 17.5541
1.10321 0.321166 20.2927
0.609888 0.920781 18.4531
0.974648 1.00449 11.7012
-4.33582 0.994791 19.9412
-3.23101 1.40123 16.5444
-2.29369 2.85876 19.7626
0.692201 -0.411819 16.4932
-0.813963 -0.667831 2.40914
-0.0866209 -0.34441 19.3557
2.81029 -5.18911 20.5737
2.24352 -1.7702 17.7374
3.41359 -1.86104 20.1634
-0.383496 1.05381 18.0822
-0.696023 1.29128 10.2764
-1.17441 0.554124 19.9516
3.3161 1.28078 16.7742
2.40871 2.62252 19.7965
3.98722 0.609161 20.2144
0.645942 -0.992365 2.86984
0.172187 -0.645863 19.5822
-0.958782 -0.502066 17.4446
-0.303437 -0.661014 20.8138
-0.458659 -0.326943 17.8547
0.143195 -0.239008 19.9649
0.127461 0.00887566 16.9713
-1.92896 -1.19916 21.2023
-3.6532 2.5084 21.2545
-0.586257 -0.559332 20.5476
-0.977312 0.385062 21.7264
0.162594 -0.515447 18.1631
0.69464 -0.976525 21.4138
-0.0388279 0.0925174 16.777
-0.137384 -0.162451 19.962
3.66099 2.26954 21.3638
2.00765 -1.04363 21.4477
1.03171 0.243124 21.8825
0.502612 -0.690814 20.913
-0.979004 -0.599351 19.9019
-0.719636 -0.316624 19.7032
-0.650265 -0.51039 19.5583
-1.00069 -0.794233 21.1054
-1.62553 -0.853525 20.3307
-1.75272 -1.79665 20.2441
-0.219722 -0.321951 21.398
-0.606025 -0.55136 21.3874
-0.422329 -0.628349 21.5964
0.231008 -0.0520649 21.5348
-0.0224301 -0.273366 21.4857
0.0638101 -0.177957 21.602
0.659075 0.201778 21.3421
0.569694 0.0247584 21.4834
0.612309 0.350083 21.6291
0.833343 0.281771 21.0289
0.913672 0.161886 21.2534
0.960453 0.632836 21.2769
1.00254 0.12992 20.6819
0.991977 0.635194 21.1238
-1.38691 -0.509723 19.7137
-0.899253 -0.129718 19.576
-0.884508 -0.40399 19.2718
-1.42559 -0.796105 21.2966
-2.2717 -0.317833 20.2766
-0.301891 -0.45701 21.4807
-0.954555 -0.580119 21.4618
0.26201 -0.220515 21.6607
-0.224416 -0.43768 21.6565
0.886051 -0.00241785 21.409
0.688809 -0.408309 21.5754
1.05545 0.086162 21.0845
1.03578 -0.374691 21.3001
1.50778 0.455672 20.2767
1.02747 -0.243979 21.1287
1.65971 0.313407 20.1486
-1.64309 0.168823 19.6361
-0.81693 0.345408 19.6989
-1.13205 0.145166 19.0466
-1.86322 -0.118171 21.1577
-1.57107 0.677804 20.3019
-0.865282 -0.431765 21.5987
-1.34951 0.223172 21.2562
-0.0480834 -0.44953 21.7308
-0.540734 -0.0778845 21.5953
0.567873 -0.672243 21.4877
0.035433 -0.406899 21.4588
0.966775 -0.655269 21.1508
0.343527 -0.532301 21.1954
0.955307 -0.797564 19.6684
0.579992 -0.617035 20.5419
1.34308 -0.977538 20.0921
-0.845916 0.606448 20.0625
-0.65128 0.671704 19.6887
-1.04525 0.648995 20.7566
-1.11932 1.14154 20.233
-0.684226 0.287106 21.3681
-1.1478 0.937824 21.1746
-0.163988 -0.0884792 21.363
-0.456949 0.220573 21.5767
0.0831681 -0.306014 21.2209
-0.0461673 -0.237616 21.3841
0.189234 -0.318758 20.9925
0.149905 -0.409274 21.0482
-0.00534784 -0.353984 21.7738
-1.20211 -1.72717 18.9833
-0.680456 -0.663878 19.0032
0.0308304 -0.902555 18.9117
-0.670239 -1.60999 22.0451
0.0965015 -4.67245 21.0958
-0.146577 -0.286304 21.4971
-0.000192007 -0.803881 21.1399
0.238652 0.253635 21.4622
0.0284485 -0.129651 20.2233
0.642616 0.93303 21.2361
0.0877162 0.701436 20.3164
0.95693 1.07291 20.6676
1.10056 1.3345 19.4697
0.133885 1.28359 20.0866
1.13975 1.14099 19.3306
0.188498 1.59431 20.1231
-0.992133 -0.243368 18.4229
0.0524265 -0.819013 18.1417
1.91541 1.58874 15.4108
1.31875 -0.368188 7.3957
0.314199 0.837022 7.51154
2.11699 0.287165 12.739
0.252355 1.50072 9.76233
-0.864748 0.89945 18.8393
0.0777819 0.466086 17.3551
1.44622 -0.969176 10.6832
0.130299 -0.780425 20.4223
-0.621445 1.37946 -6.06544
0.252199 -1.05789 19.2591
-0.854537 1.62794 -5.14768
-0.794381 1.40192 19.6412
0.0339477 1.16639 19.2437
-1.16909 1.74292 20.5696
0.0723775 2.33293 19.8682
-0.808812 1.0607 21.7572
0.0855548 2.65788 21.1609
-0.184348 0.0085533 21.6055
0.0371617 0.686799 21.9301
-0.0170378 -0.2995 21.415
0.0743421 -0.0959366 21.5645
0.146297 -0.550888 20.9776
0.0719299 -0.439478 21.3667
0.11385 -0.528431 21.3127
1.24874 -1.63587 19.083
0.731352 -0.644258 19.0746
0.652962 -0.470728 19.6011
0.713105 -1.49772 21.9083
1.7347 -1.62634 20.3217
0.124138 -0.317921 21.526
0.477628 -0.744808 21.5617
-0.127563 0.418668 21.4737
-0.0564885 -0.128872 21.7117
-0.455647 1.16975 21.1683
-0.608371 0.522954 21.669
-0.6847 1.40939 20.5266
-0.801555 1.64578 18.4102
-0.949337 0.881638 21.1838
-0.831312 1.6562 18.8456
-0.904809 0.946934 21.0096
1.04873 -0.237278 18.5425
0.875076 -0.392732 19.3321
-1.4598 2.00467 14.7149
-1.59531 0.103737 5.36618
-1.76053 0.944102 19.5108
-2.53554 1.12773 10.6597
-1.58427 0.607924 19.7325
0.913223 0.843801 18.9487
1.12331 0.127592 19.141
-1.45935 -0.988362 7.98354
-0.110402 -1.02481 19.6912
-1.40407 -0.876752 18.2585
-0.180266 -1.35038 18.705
-1.86171 -1.17829 18.674
0.882925 1.30598 19.6956
0.682117 0.622528 19.7293
1.23126 1.64863 20.5949
1.14778 1.03281 20.2663
0.85604 0.987105 21.7607
1.14672 0.843362 21.194
0.240764 -0.0608632 21.6586
0.472576 0.160235 21.6249
0.0960651 -0.411252 21.4268
0.061717 -0.335426 21.416
-0.0393059 -0.668916 21.0215
-0.118887 -0.51171 21.0932
-0.0169975 -0.411052 21.5056
0.950075 -0.555897 19.9649
0.714725 -0.298877 19.7585
0.974784 -0.73897 21.0549
1.53189 -0.775832 20.3888
0.259832 -0.342854 21.4581
0.685659 -0.592996 21.3724
-0.275581 0.0302552 21.5769
0.0116428 -0.233051 21.5823
-0.711574 0.325945 21.3763
-0.648232 0.139141 21.5335
-0.898178 0.402559 20.8996
-1.04369 0.34431 21.2082
-1.30039 0.292958 20.4924
1.34051 -0.473446 19.7984
0.877702 -0.134641 19.6423
1.35145 -0.744997 21.1867
2.05152 -0.325406 20.3426
0.367146 -0.459665 21.5579
1.05945 -0.546579 21.4536
-0.390344 -0.125775 21.7113
0.145169 -0.416795 21.7624
-1.05507 0.134611 21.4434
-0.845985 -0.355577 21.6005
-1.21124 0.168629 21.1985
-1.3381 -0.336709 21.252
-1.29165 -0.217393 20.9622
1.58928 0.1272 19.7228
0.808464 0.323461 19.7519
1.79406 -0.150436 21.0625
1.50377 0.576162 20.3272
0.844961 -0.397409 21.662
1.31904 0.194344 21.2619
-0.0761139 -0.512127 21.7691
0.510564 -0.129074 21.6319
-0.794834 -0.723727 21.5383
-0.11167 -0.506595 21.4917
-1.14486 -0.677234 21.2003
-0.409142 -0.666082 21.2262
-0.603613 -0.708046 20.5445
0.834982 0.549601 20.1044
1.01982 0.569775 20.7646
0.689518 0.257804 21.385
0.148834 -0.153234 21.4076
-0.0894483 -0.382977 21.2345
-0.171557 -0.414324 21.0549
-1.21975 -0.578615 19.8033
-1.62315 -1.89932 18.3314
-1.19952 -1.04902 19.5313
-1.9121 -0.964563 18.9941
-0.779102 -0.488654 19.4143
-2.54363 -2.13163 20.0863
-1.21258 -0.814901 21.1864
-0.53743 -1.21522 19.8862
-1.03153 -1.32471 21.5112
-1.70313 -1.69616 21.8721
-0.386649 -0.663754 21.7104
-0.261706 -0.399846 21.4343
-0.139684 -0.0518633 16.9225
-0.129607 -0.347104 21.5585
-0.00701496 -0.399623 20.1242
0.131418 -0.211156 21.281
0.238651 -0.139516 21.5954
0.404863 0.347194 17.4201
0.312572 0.0401753 21.6919
0.468245 -0.0911517 20.0788
0.857288 0.385789 21.3358
0.775212 0.12264 21.3646
0.847905 1.17411 18.8428
0.795759 0.518416 21.4677
1.33993 0.390637 20.1368
1.22228 0.595117 21.001
0.930653 0.150503 21.2913
1.43885 1.3386 18.0391
1.09707 0.692962 20.9231
1.47277 0.513619 20.0483
1.33957 0.536147 20.8812
-1.59459 -0.204978 19.6204
-3.09965 -0.530785 16.3959
-2.46715 0.493987 18.716
-1.05818 -0.170134 19.0809
-4.83539 -0.565877 19.6811
-1.73127 -0.506421 21.3096
-2.98596 -0.228716 21.7583
-0.655103 -1.11189 20.0314
-0.547778 -0.542251 21.5739
-1.28469 -0.985957 20.9506
-0.0196222 -0.418691 18.6707
0.158067 -0.386588 21.7518
0.140057 -0.13353 18.9868
1.22678 -0.0597651 16.5099
0.877687 -0.412661 21.5485
0.205888 -1.13104 3.36154
0.675188 -0.704663 18.7521
1.65419 -0.242154 18.9164
1.13914 -0.391947 21.4732
2.38903 -0.0486309 10.9626
1.24261 -0.912826 19.9513
1.73443 -0.165419 20.0987
-1.2547 0.558571 19.8615
-1.66269 2.03237 18.7238
-0.909107 0.975359 19.8751
-0.949473 0.589479 19.32
-2.13836 1.44368 20.0852
-1.55301 0.470211 20.8637
-2.64933 2.33681 20.4608
-1.22483 1.10017 20.709
-2.21214 0.653121 21.3998
-0.957737 0.0468854 21.521
-2.47297 1.11994 22.1883
-0.818577 0.582606 21.5498
-0.786941 0.025797 21.8923
-0.189553 -0.252868 21.5742
-0.214578 -0.2146 20.6577
-0.201703 -0.0539171 21.5008
-0.109014 -0.4888 21.6214
0.15369 -0.46331 21.3393
-0.0714436 -0.449357 19.9604
0.042158 -0.345675 21.2772
0.227807 -0.743607 21.6201
0.358978 -0.541144 21.2826
0.372387 -0.984323 19.4332
0.202429 -0.537195 21.2455
0.40176 -0.852172 21.232
1.69574 -1.81504 18.489
0.0562619 -2.5989 18.3604
0.0775689 -3.35905 15.4067
0.0562823 -0.931124 18.545
0.132843 -6.36924 22.3841
0.582604 -1.10524 19.6937
0.0463504 -1.77835 22.2549
-0.0652855 -0.289261 12.6743
0.0136921 -0.102704 16.895
6.8113e-05 -0.382198 20.4081
0.0504558 -0.00381419 12.5999
-0.100791 0.589567 17.0308
0.0623401 0.296997 20.2292
0.133558 0.645965 13.5815
-0.597389 1.46064 18.1675
0.130428 0.979979 20.0916
0.346797 0.160084 4.63846
0.209538 1.28874 15.5969
-1.11635 1.76801 18.2606
0.165608 1.46559 20.1724
0.18474 2.02979 9.57253
0.338621 1.9128 16.0523
3.18928 -0.586671 16.7023
0.105791 3.37816 13.4967
0.0357447 -0.304036 17.5287
-0.444261 -0.663249 2.76957
0.0170407 0.676494 -4.22021
-0.399168 0.199902 -2.27922
-2.59755 0.549383 8.91926
-0.665662 1.90832 -6.47355
0.208 1.50126 2.31657
1.71154 1.8494 18.8876
0.0631302 1.87729 19.4189
0.0619274 1.29329 18.3453
0.0947519 4.38479 19.3564
2.69501 2.23092 20.4497
0.0721111 2.53577 20.3466
0.100287 5.49905 20.131
2.47212 0.981207 22.3396
0.0661682 1.70217 22.0042
0.0670679 0.907278 20.3813
0.303191 -0.390947 20.8753
0.0501419 0.127292 21.6967
0.29923 0.0104291 13.8445
0.134285 -0.785619 19.4248
0.0798892 -0.228058 21.5016
0.435103 -0.357061 13.2643
-0.307707 -1.2085 18.9839
0.0920311 -0.559965 21.3466
0.475988 -0.750512 12.4707
1.17997 -0.534285 19.8764
1.19717 -0.970412 19.6208
1.89217 -0.901326 19.136
0.767218 -0.46878 19.4787
2.38825 -1.84769 20.2907
1.16805 -0.765618 21.1094
1.01336 -1.2204 21.3938
1.63489 -1.48593 21.716
0.550821 -0.882204 21.6883
0.319359 -0.419285 21.5041
0.165299 -0.405292 21.6215
0.175988 -0.526952 20.4565
-0.123998 -0.162102 21.3852
-0.318545 -0.04326 21.644
-0.332946 0.214382 21.732
-0.678342 0.201499 19.6442
-0.874564 0.598918 21.2393
-0.891314 0.280225 21.411
-0.804081 0.759486 21.4453
-1.55177 0.771399 19.4466
-1.29494 0.998163 20.8288
-1.05472 0.274705 21.1284
-1.02596 0.927038 21.1088
-1.62287 1.10702 18.6248
-1.22378 0.917348 20.7291
1.50145 -0.209998 19.7311
2.39292 0.420779 18.8998
1.06029 -0.169043 19.1743
4.28427 -0.656569 20.1802
1.63281 -0.492976 21.1658
2.81966 -0.358201 21.4722
1.05766 -0.981233 20.858
0.583716 -0.504771 21.6479
1.21168 -0.902825 20.9011
-0.0947817 -0.38867 19.4601
-0.342043 -0.371473 21.7987
-0.283605 -0.391735 19.2853
-1.38424 0.029183 17.1008
-1.13122 -0.360478 21.5912
-1.06001 -0.762716 17.8902
-2.02693 -0.0857768 17.0551
-1.36543 -0.347645 21.4512
-1.66822 -1.07405 18.786
-2.04796 0.0879627 17.9328
1.2153 0.496108 19.9225
0.934418 0.895724 19.9237
0.958383 0.544351 19.3895
2.0937 1.23954 20.1345
1.51126 0.40851 20.844
1.21672 1.01957 20.7081
2.12885 0.60795 21.4154
0.944811 0.0251822 21.5558
0.825109 0.531882 21.554
0.772814 -0.0586838 21.959
0.148678 -0.32509 21.6206
0.215377 -0.135562 21.5254
0.0409861 -0.675022 21.6753
-0.276631 -0.593986 21.3737
-0.0269477 -0.441014 21.2924
-0.29723 -0.951494 21.6169
-0.466464 -0.66653 21.0993
-0.194088 -0.665874 21.2098
-0.344023 -1.04046 21.4401
-1.51157 -1.07114 19.2715
-1.28515 -1.53065 21.7917
-0.0571362 -0.367358 21.3827
0.439903 0.00820601 21.3567
1.07737 0.530529 21.1506
1.28947 0.617698 21.159
-2.43332 -0.319226 18.6568
-2.51242 -1.05207 22.0747
-0.28267 -0.855979 19.0719
0.214886 -0.0498533 18.1114
1.36177 -0.30162 17.7988
1.85525 -0.0992837 19.3863
-1.59309 1.1144 19.4296
-2.25197 1.04915 20.8268
-1.51392 0.300625 21.8592
-0.302866 -0.270272 21.8018
0.0103355 -0.596559 21.5207
0.42807 -0.947478 21.2508
0.0837109 -3.16451 17.1655
-0.0177085 -0.754689 13.9804
-0.0239315 -0.0953371 12.2314
0.115515 0.426455 12.7851
0.19584 0.904007 14.7151
0.175615 1.78761 16.1522
0.113429 -0.741189 12.9955
0.213976 -0.593017 -1.2064
-0.0591494 0.811783 -1.83516
0.117315 3.16257 18.05
0.0797268 3.99373 19.841
0.0678595 3.22065 21.9818
0.114885 -0.0142922 17.8806
0.441567 0.0382504 13.3002
0.399493 -0.840879 13.204
1.49398 -0.996684 19.4215
1.25308 -1.37021 21.5495
0.143646 -0.488411 21.4922
-0.522937 0.250572 21.2667
-1.14883 0.838308 21.0701
-1.42029 1.11759 20.7765
2.38642 -0.332879 18.8391
2.27991 -1.03279 21.7568
0.390619 -0.743495 19.8738
-0.609725 -0.0840428 18.1429
-1.70867 -0.042337 17.0435
-2.3341 -0.00902211 17.2377
1.58565 0.970543 19.5194
2.21709 0.932408 20.8048
1.48188 0.235074 21.9011
0.269727 -0.399051 21.8513
-0.116748 -0.810527 21.5299
-0.47067 -1.14865 21.3962
-2.54452 -1.01892 3.06049
-0.00151125 -0.0349069 0.159602
-0.0414999 -0.00959987 0.302828
0 0 0
0.0176067 0.0693539 0.687951
0.0724386 0.218272 3.75095
-0.642044 0.145786 0.695922
-0.0135047 0.0734754 0.154515
-0.60274 -0.085265 1.70865
-0.0271204 -0.0678901 0.0117319
-0.0121362 0.00662266 -0.0143715
0 0 0
-0.00258015 -0.0169133 0.0790238
2.06851 -0.699596 2.2953
0.0595471 0.00435821 0.488609
0 0 0
0 0 0
-0.534662 0.441604 3.99719
0.0259979 0.144777 0.24352
3.54879e-16 4.24875e-17 4.26166e-16
0.438523 -0.0563994 1.43016
0.0240743 -0.00125359 -0.0020806
0.00222716 -0.0193581 0.0126976
0 0 0
-0.00665696 -0.00334082 0.0872865
0.000670738 -0.000324369 0.183704
0 0 0
0 0 0
0.0671935 -0.0252599 0.942166
0.0134952 -0.00395162 0.385561
0 0 0
0 0 0
-0.0829679 -0.0546562 0.216859
1.1243e-19 -3.89115e-18 -4.55856e-17
0 0 0
-0.0154105 0.0172878 0.0417244
0 0 0
0.000122799 0.000575933 0.00295691
2.61891e-18 4.45705e-18 1.81453e-17
0.00493631 0.00165869 0.0492571
-0.00404477 -0.00238708 0.0693732
0 0 0
-0.000355547 -0.000236135 0.0842429
0 0 0
0.0220852 0.0140488 0.278787
0 0 0
-0.000533081 -4.68286e-05 0.0322327
0 0 0
0 0 0
0.013794 0.0165975 0.0428473
0 0 0
0 0 0
0 0 0
-0.00468405 0.00116701 0.0564503
-0.000208502 0.000799899 0.00606984
0 0 0
-0.383507 -0.187036 1.69399
-0.899851 0.197095 0.576939
-0.00033635 -0.000235995 0.0118778
-0.0318159 0.0489847 0.109605
-0.00645603 -0.00401736 0.120682
0 0 0
0.047219 0.0252202 0.32761
-0.0240208 -0.0440939 0.00471728
2.94531e-06 3.81856e-06 0.000126821
0 0 0
0.00151494 0.00261424 0.0473727
0.0260538 0.0048099 0.354251
0.000791525 2.39132 2.09526
0 0 0
-0.0833936 -0.224218 1.20467
0 0 0
0.0277866 -0.0241586 -0.000136529
0.0347463 -0.0140152 0.120795
0 0 0
0.00193481 -0.00241128 0.024449
0.122004 -0.0784224 0.099465
0.184114 -0.104881 0.808161
0 0 0
0 0 0
0.026374 -0.0255644 0.000862887
-0.000362062 0.000297358 0.00271736
0 0 0
0 0 0
0 0 0
0.0253661 -0.0631415 0.418142
-9.38656e-05 -0.00236057 0.0227702
-0.00824897 0.0181307 0.203673
0 0 0
0 0 0
0.0478658 -0.0478795 0.499136
0 0 0
-0.000255114 -0.000409524 0.0116459
-4.32563e-07 3.66564e-08 0.000118336
0 0 0
0 0 0
2.36671e-06 7.41791e-08 0.000155391
0 0 0
0 0 0
-0.0203411 0.0270317 0.254422
0 0 0
0.0026799 0.206984 0.637935
0.000197513 0.00109158 0.0279061
0.000621298 -0.00132775 0.0231272
0 0 0
0 0 0
0 0 0
-1.03135e-18 1.13165e-18 6.05443e-17
0 0 0
-0.0168172 0.0173114 0.355383
0.0328005 0.0308311 0.33488
3.25718e-07 -1.77937e-05 -0.00011407
-0.627064 -0.285019 1.86147
0 0 0
0.000139834 -0.000128794 0.120998
0 0 0
0 0 0
0 0 0
0 0 0
-0.0103616 0.169785 0.813035
-2.07589e-17 -7.93518e-18 1.25385e-16
0 0 0
0.00228407 0.012713 0.101582
0 0 0
-2.17352e-05 -1.5721e-05 0.000725157
0 0 0
0 0 0
0 0 0
0 0 0
0 0 0
0 0 0
0 0 0
0 0 0
0 0 0
0.0349231 0.0224733 0.778494
0 0 0
0 0 0
0 0 0
0 0 0
0 0 0
0 0 0
0.00343367 -0.00668827 -0.0015879
-0.0606046 -0.0438746 -0.0138392
0.0995344 -0.040994 -0.0109872
0 0 0
0.00758582 0.00575369 0.0243957
-0.00174189 0.000269854 0.00124783
0.00219001 0.000381274 0.00159817
-0.070996 0.0990608 0.289558
0.113648 0.131258 0.410932
0.00867838 0.0136182 0.261156
-0.0101706 0.011434 0.272165
0.0038864 -0.0014468 0.0365641
-0.00244781 -0.00130615 0.0337959
-0.00466173 -0.0362632 0.110924
0.0399166 -0.0651738 0.156335
0.00223932 -0.00402758 0.0247089