# vtk DataFile Version 2.0
tet_velo
ASCII
DATASET UNSTRUCTURED_GRID
POINTS 29498 float
-0.698829 0.145 -1.965
-0.605 0.225 2.04839
-0.714284 0.525 -1.835
-0.425 0.815 2.01365
0.698832 0.145 -1.965
0.605 0.225 2.04839
0.71429 0.525 -1.835
0.425 0.815 2.01365
-0.732271 0.106948 -0.627204
-0.73543 0.09918 0.710593
-0.770882 0.774693 -0.552117
-0.655369 0.852274 0.730767
0.732273 0.106948 -0.627204
0.737914 0.0966966 0.710593
0.770884 0.774691 -0.552117
0.655413 0.852316 0.730767
-1.41617 -0.231853 -3.04705
-1.42319 -0.166319 -1.99881
-1.42899 -0.193709 -0.65959
-1.38139 -0.216616 0.690679
-1.27605 -0.140637 2.03083
-1.25586 -0.0853865 3.08363
-1.2755 -0.0438195 4.12799
-1.42192 0.0359664 -3.00179
-1.43264 0.132842 -1.95955
-1.44342 0.135879 -0.631015
-1.36637 0.11809 0.70246
-1.20833 0.186043 2.03204
-1.21426 0.239153 3.08407
-1.25639 0.280766 4.13023
-1.43064 0.520158 -2.89586
-1.44896 0.614281 -1.85135
-1.46284 0.785112 -0.56025
-1.30979 0.834895 0.726956
-1.09429 0.825785 2.0191
-1.15558 0.875102 3.0734
-1.2376 0.926278 4.12841
-1.42478 1.41667 -2.77826
-1.43223 1.53156 -1.74196
-1.42879 1.71358 -0.468673
-1.37652 1.83213 0.792784
-1.30646 1.86925 2.06665
-1.2902 1.89217 3.10414
-1.3086 1.92682 4.15315
-0.701169 -0.226549 -3.05059
-0.700747 -0.156562 -2.00397
-0.716715 -0.207909 -0.658896
-0.71782 -0.230503 0.697621
-0.656682 -0.122383 2.04296
-0.647495 -0.0731243 3.09186
-0.663462 -0.0387421 4.13276
-0.704356 0.0312238 -3.00288
-0.629314 0.252196 3.09086
-0.656999 0.285411 4.13382
-0.710228 0.482078 -2.88907
-0.582642 0.873995 3.07231
-0.649562 0.926063 4.12818
-0.709091 1.39148 -2.77154
-0.716315 1.5083 -1.73457
-0.731933 1.70886 -0.464214
-0.723057 1.83801 0.792249
-0.692024 1.87076 2.06283
-0.684526 1.89081 3.10032
-0.699038 1.92528 4.15038
0.720833 -0.226626 -3.05059
0.719054 -0.156616 -2.00397
0.733262 -0.208218 -0.658896
0.710516 -0.232179 0.697621
0.616236 -0.123029 2.04296
0.574294 -0.073626 3.09186
0.559924 -0.0392835 4.13276
0.715501 0.031178 -3.00288
0.537777 0.251863 3.09086
0.53633 0.284934 4.13382
0.720438 0.482041 -2.88907
0.474514 0.873744 3.07231
0.504564 0.925656 4.12818
0.724561 1.39137 -2.77154
0.721221 1.50819 -1.73457
0.6821 1.70872 -0.464214
0.598517 1.83778 0.792248
0.525417 1.87046 2.06283
0.508896 1.89045 3.10032
0.509134 1.92487 4.15038
1.43673 -0.232061 -3.04705
1.43848 -0.166522 -1.99881
1.44773 -0.194434 -0.65959
1.39912 -0.21896 0.690678
1.27478 -0.142257 2.03083
1.21194 -0.0865804 3.08363
1.19158 -0.0449585 4.12799
1.43311 0.0358241 -3.00179
1.43413 0.13275 -1.95955
1.45172 0.135465 -0.631015
1.3923 0.115659 0.70246
1.2315 0.184656 2.03204
1.16657 0.238159 3.08407
1.16005 0.279729 4.13023
1.43945 0.520041 -2.89586
1.44879 0.614217 -1.85135
1.46484 0.784968 -0.56025
1.32393 0.834063 0.726955
1.10539 0.824896 2.0191
1.08809 0.87432 3.0734
1.11616 0.925381 4.12841
1.43679 1.41642 -2.77826
1.43196 1.53131 -1.74196
1.38499 1.71324 -0.468673
1.27586 1.83161 0.792783
1.16826 1.86857 2.06665
1.13403 1.8914 3.10414
1.13162 1.92598 4.15315
-0.723681 0.335 -1.91712
1.49012e-06 0.141889 -1.96811
-0.721767 0.119757 -1.2961
-0.572673 0.52 2.08869
0 0.193635 2.07975
-0.713455 0.11885 1.37949
3.01003e-06 0.615602 -1.9256
-0.815028 0.722291 -1.19356
0 0.826743 2.02539
-0.580893 0.874345 1.37221
0.723717 0.335 -1.91716
0.721796 0.11973 -1.2961
0.572676 0.52 2.0887
0.712138 0.120167 1.37949
0.815031 0.722289 -1.19356
0.580906 0.874357 1.37221
-0.724245 0.11267 0.0416949
-0.814633 0.440821 -0.58966
9.93411e-07 0.133829 -0.627204
-0.862601 0.475727 0.72068
0.00124218 0.114085 0.710593
-0.716558 0.816916 0.089325
9.4775e-07 0.984694 -0.552117
2.1866e-05 1.1908 0.730767
0.724246 0.11267 0.0416949
0.814379 0.44082 -0.58966
0.862155 0.474506 0.72068
0.716577 0.816932 0.089325
-0.837277 0.38791 -1.24483
-0.819333 0.458274 0.0655099
-0.896633 0.497864 1.37585
1.24176e-06 0.130553 -1.2961
0.000621587 0.133312 0.0416949
0.00062109 0.121103 1.37949
2.25008e-06 0.335 -2.05069
0 0.52 2.16245
1.97889e-06 0.820416 -1.19356
1.14069e-05 1.24405 0.089325
1.0933e-05 0.991918 1.37221
0.843493 0.38791 -1.24483
0.819007 0.457663 0.0655099
0.896641 0.497253 1.37585
-1.06574 0.138921 -1.96227
-0.699788 -0.00578088 -1.98449
-0.701592 0.0881119 -2.48394
-0.906667 0.205521 2.04022
-0.630841 0.0513084 2.04568
-0.617157 0.238598 2.56963
-1.08162 0.56964 -1.84317
-0.712256 0.503539 -2.36204
-0.715299 1.01665 -1.78478
-0.759646 0.820392 2.01638
-0.503821 0.844497 2.54298
-0.558512 1.34288 2.03824
0.708943 -0.00580798 -1.98449
0.707167 0.088089 -2.48394
1.06648 0.138875 -1.96227
0.610618 0.0509855 2.04568
0.571389 0.238431 2.56963
0.918251 0.204828 2.04022
0.717364 0.503521 -2.36204
0.717755 1.0166 -1.78478
1.08154 0.569608 -1.84317
0.449757 0.844372 2.54298
0.475208 1.34273 2.03824
0.765197 0.819948 2.01638
-1.08785 0.121414 -0.629109
-0.724493 -0.0504803 -0.64305
-1.0509 0.108635 0.706527
-0.726625 -0.0656613 0.704107
-1.11686 0.779903 -0.556184
-0.751408 1.24178 -0.508165
-0.982577 0.843584 0.728861
-0.689213 1.34514 0.761508
0.732767 -0.050635 -0.64305
1.09199 0.121207 -0.629109
0.724215 -0.0677413 0.704107
1.06511 0.106178 0.706527
0.726492 1.2417 -0.508165
1.11786 0.779829 -0.556184
0.626965 1.34505 0.761508
0.98967 0.843189 0.728861
-1.41968 -0.199086 -2.52293
-1.41905 -0.0979431 -3.02442
-1.05867 -0.229201 -3.04882
-1.42609 -0.180014 -1.3292
-1.42791 -0.0167389 -1.97918
-1.06197 -0.161441 -2.00139
-1.40519 -0.205162 0.0155445
-1.43621 -0.0289149 -0.645302
-1.07285 -0.200809 -0.659243
-1.32872 -0.178626 1.36075
-1.37388 -0.0492626 0.696569
-1.04961 -0.223559 0.69415
-1.26595 -0.113012 2.55723
-1.24219 0.0227028 2.03143
-0.966366 -0.13151 2.03689
-1.26568 -0.064603 3.60581
-1.23506 0.0768831 3.08385
-0.951677 -0.0792554 3.08775
-1.26595 0.118473 4.12911
-0.969482 -0.0412808 4.13038
-1.42728 0.084404 -2.48067
-1.42628 0.278062 -2.94883
-1.06314 0.0335951 -3.00234
-1.43803 0.134361 -1.29528
-1.4408 0.373561 -1.90545
-1.4049 0.126985 0.0357226
-1.45313 0.460496 -0.595632
-1.28735 0.152067 1.36725
-1.33808 0.476492 0.714708
-1.2113 0.212598 2.55806
-1.15131 0.505914 2.02557
-1.23532 0.259959 3.60715
-1.18492 0.557127 3.07874
-0.921786 0.245674 3.08747
-1.247 0.603522 4.12932
-0.956694 0.283088 4.13202
-1.4398 0.567219 -2.3736
-1.42771 0.968412 -2.83706
-1.07043 0.501118 -2.89247
-1.4559 0.699697 -1.2058
-1.4406 1.07292 -1.79666
-1.38631 0.810004 0.0833526
-1.44581 1.24935 -0.514462
-1.20204 0.83034 1.37303
-1.34315 1.33351 0.75987
-1.12494 0.850443 2.54625
-1.20038 1.34752 2.04288
-1.19659 0.90069 3.60091
-1.22289 1.38364 3.08877
-0.869113 0.874548 3.07286
-1.2731 1.42655 4.14078
-0.943582 0.926171 4.1283
-1.4285 1.47411 -2.26011
-1.06694 1.40407 -2.7749
-1.43051 1.62257 -1.10532
-1.07427 1.51993 -1.73827
-1.40265 1.77285 0.162055
-1.08036 1.71122 -0.466443
-1.34149 1.85069 1.42972
-1.04979 1.83507 0.792516
-1.29833 1.88071 2.5854
-0.999241 1.87 2.06474
-1.2994 1.9095 3.62865
-0.987365 1.89149 3.10223
-1.00382 1.92605 4.15177
-0.700958 -0.191555 -2.52728
-0.702763 -0.0976624 -3.02674
0.00983163 -0.226588 -3.05059
-0.708731 -0.182235 -1.33144
0.00915314 -0.156589 -2.00397
-0.717268 -0.219206 0.0193622
0.00827343 -0.208064 -0.658896
-0.687251 -0.176443 1.37029
-0.00365221 -0.231341 0.697621
-0.652088 -0.0977538 2.56741
-0.0202233 -0.122706 2.04296
-0.655478 -0.0559332 3.61231
-0.638404 0.0895359 3.09136
-0.0366006 -0.0733751 3.09186
-0.660231 0.123334 4.13329
-0.051769 -0.0390128 4.13276
-0.707292 0.256651 -2.94598
0.00557256 0.0312009 -3.00288
-0.643157 0.268803 3.61234
-0.605978 0.563095 3.08159
-0.0457685 0.252029 3.09086
-0.653281 0.605737 4.131
-0.0603347 0.285173 4.13382
-0.709659 0.93678 -2.83031
0.00510506 0.482059 -2.88907
-0.616102 0.900029 3.60025
-0.633584 1.3824 3.08632
-0.054064 0.873869 3.07231
-0.6743 1.42567 4.13928
-0.072499 0.925859 4.12818
-0.712703 1.44989 -2.25305
0.00773518 1.39143 -2.77154
-0.724124 1.60858 -1.09939
0.00245299 1.50824 -1.73457
-0.727495 1.77343 0.164017
-0.0249166 1.70879 -0.464214
-0.70754 1.85438 1.42754
-0.0622698 1.8379 0.792249
-0.688275 1.88079 2.58158
-0.0833038 1.87061 2.06283
-0.691782 1.90804 3.62535
-0.0878152 1.89063 3.10032
-0.0949519 1.92507 4.15038
0.719943 -0.191621 -2.52728
0.718167 -0.0977242 -3.02674
1.07878 -0.229344 -3.04882
0.726158 -0.182417 -1.33144
1.07877 -0.161569 -2.00139
0.721889 -0.220199 0.0193622
1.09049 -0.201326 -0.659243
0.663376 -0.177604 1.37029
1.05482 -0.225569 0.69415
0.595265 -0.0983275 2.56741
0.945507 -0.132643 2.03689
0.567109 -0.0564547 3.61231
0.556035 0.0891183 3.09136
0.893117 -0.0801032 3.08775
0.548127 0.122825 4.13329
0.875755 -0.042121 4.13038
0.717969 0.25661 -2.94598
1.0743 0.0335011 -3.00234
0.537054 0.268398 3.61234
0.506145 0.562803 3.08159
0.852174 0.245011 3.08747
0.520447 0.605295 4.131
0.848188 0.282332 4.13202
0.7225 0.936706 -2.83031
1.07994 0.501041 -2.89247
0.489539 0.8997 3.60025
0.491705 1.3821 3.08632
0.7813 0.874032 3.07286
0.506849 1.42526 4.13928
0.810362 0.925518 4.1283
0.722891 1.44978 -2.25305
1.08068 1.40389 -2.7749
0.70166 1.60845 -1.09939
1.07659 1.51975 -1.73827
0.640308 1.77325 0.164017
1.03355 1.71098 -0.466444
0.561967 1.85412 1.42754
0.937187 1.8347 0.792516
0.517156 1.88046 2.58158
0.846841 1.86951 2.06474
0.509015 1.90766 3.62535
0.821465 1.89093 3.10223
0.820375 1.92542 4.15177
1.43761 -0.199291 -2.52293
1.43492 -0.0981185 -3.02442
1.4431 -0.180478 -1.3292
1.43631 -0.0168861 -1.97918
1.42342 -0.206697 0.0155445
1.44972 -0.0294845 -0.645302
1.33695 -0.180608 1.36075
1.39571 -0.0516502 0.696569
1.24336 -0.114419 2.55723
1.25314 0.0211998 2.03143
1.20176 -0.0657694 3.60581
1.18926 0.0757892 3.08385
1.17582 0.117385 4.12911
1.43362 0.0842869 -2.48067
1.43628 0.277932 -2.94883
1.44292 0.134107 -1.29528
1.44146 0.373483 -1.90545
1.42201 0.125562 0.0357225
1.45828 0.460216 -0.595633
1.3119 0.150158 1.36725
1.35811 0.474861 0.714708
1.19904 0.211408 2.55806
1.16845 0.504776 2.02557
1.16331 0.258944 3.60715
1.12733 0.556239 3.07874
1.1381 0.602555 4.12932
1.44412 0.567129 -2.3736
1.43812 0.968229 -2.83706
[...]
POINT_DATA 29498
VECTORS point_vectors float
-3.04661 -4.89121 7.65459
0.174403 0.0194753 0.262923
-1.74819 0.336031 2.43833
-0.499806 -0.0776077 -0.216107
3.08071 -5.07157 7.72781
-0.176392 0.0195836 0.265031
1.70618 0.33132 2.38013
0.502891 -0.074621 -0.221531
-0.0016871 0.0039727 0.0780171
0 0 0
-0.0155098 -0.012028 0.0566063
0 0 0
0.00230928 0.00345503 0.0939219
-1.79705e-17 -1.13576e-17 1.30907e-16
0.0159342 -0.0123567 0.0574979
0 0 0
-0.535037 -0.247609 19.8049
-1.22732 -0.73627 20.3389
-0.463558 -0.465292 21.2647
-0.0310925 -0.223843 21.4628
0.855678 0.319329 21.4594
1.25442 0.452815 20.8376
0.90677 0.312683 20.7521
-0.661777 -0.195523 19.7139
-1.68502 -0.584286 20.2838
-0.643417 -0.534581 21.3208
-0.156466 -0.361357 21.5756
1.30718 0.12806 21.034
1.58186 0.189218 20.5251
1.08227 0.10594 20.8066
-0.801361 0.0206599 19.6251
-1.90082 0.0928661 20.26
-1.20207 -0.288541 21.2756
-0.409678 -0.322092 21.7087
0.875188 -0.850795 19.3639
1.04405 -0.936306 20.6961
0.845954 -0.859106 20.3261
-0.593239 0.385199 19.8471
-0.986804 0.668447 20.3102
-0.897258 0.47432 21.0367
-0.369108 0.0607682 21.3866
0.00555008 -0.301982 21.2468
0.177571 -0.484328 20.9633
0.18305 -0.460937 20.7354
-0.504403 -0.545789 19.3372
-1.7989 -3.3432 20.2227
-0.344707 -0.396139 21.568
0.0267924 -0.194262 20.7316
0.374371 1.26765 17.7678
0.867893 1.71373 17.2302
0.865173 1.47598 18.6744
-0.645389 -0.45023 19.0374
2.09666 1.33193 9.16839
2.09363 0.931889 13.0478
-0.913806 0.0455294 18.6341
0.387567 -0.662775 5.03301
0.852258 -0.954611 10.9527
-0.564109 0.774066 19.383
-1.12111 1.7684 19.9916
-1.27204 1.57972 21.0778
-0.426004 0.298698 21.7031
-0.103248 -0.27661 21.3055
0.0694874 -0.588758 21.0701
0.140274 -0.493305 20.9985
0.5136 -0.530277 19.3564
1.82681 -3.23373 20.2344
0.333882 -0.361343 21.5325
-0.0241014 -0.2036 20.7506
-0.292522 1.23015 17.4347
-0.69774 1.70711 16.4411
-0.823551 1.76245 17.8935
0.654496 -0.449303 19.0506
-1.94165 1.33372 7.346
-2.05626 1.28677 12.1129
0.92541 0.0461829 18.6448
-0.0982604 -0.0993494 1.78353
-0.636976 -0.997571 7.38891
0.571077 0.764526 19.3854
1.1249 1.76215 19.9932
1.24361 1.70269 21.0713
0.392834 0.357676 21.7617
0.12641 -0.238272 21.3582
-0.0410122 -0.621158 20.9434
-0.25578 -0.485255 21.3135
0.530042 -0.244972 19.8223
1.21742 -0.726356 20.3422
0.464812 -0.456876 21.2584
0.0361271 -0.225661 21.4557
-0.856012 0.317528 21.4594
-1.28576 0.535843 20.7735
-0.934452 0.392206 20.9057
0.660086 -0.191837 19.7202
1.68427 -0.584123 20.2798
0.642731 -0.528334 21.317
0.152182 -0.349805 21.5576
-1.25728 0.0822709 21.163
-1.69187 0.231485 20.0274
-1.23103 -0.0128521 20.8435
0.796859 0.0216791 19.6339
1.9023 0.0953666 20.264
1.19438 -0.28715 21.2785
0.404168 -0.317574 21.698
-0.85894 -0.856826 19.5974
-1.14476 -0.898249 20.2732
-0.983511 -1.05481 20.2006
0.589684 0.382069 19.8527
0.986541 0.669983 20.3095
0.921797 0.512822 21.0429
0.390238 0.0817633 21.4218
0.014227 -0.317951 21.2565
-0.158244 -0.527629 20.9216
-0.099 -0.376735 20.7432
-4.47411 0.157708 3.5316
3.3181e-05 -0.00991349 0.113033
0 0 0
-0.0310638 -0.0966592 0.0104425
-0.00209632 -0.0935151 0.22606
-0.0127964 0.0222222 0.24733
0.000112292 0.072442 0.165027
-0.30104 -0.0923709 1.39385
0.00114218 0.303653 -0.398942
0 0 0
4.68318 0.184815 3.74904
0 0 0
0.0319077 -0.0968606 0.0103309
0.0152537 0.019467 0.20432
0.300063 -0.0910995 1.39213
0 0 0
0.000302844 -5.92472e-05 0.00645078
0 0 0
0 0 0
-0.00992584 0.0116449 0.0446825
0 0 0
0 0 0
1.48293e-05 0.0333609 0.0785664
-1.76406e-05 -0.0014875 0.00860677
0 0 0
0 0 0
0.00534623 0.00578136 0.0255874
0 0 0
0 0 0
-0.000118978 0.00199523 0.010041
0.00228538 0.00576461 0.104945
0 0 0
0 0 0
4.89566e-05 0.00186953 0.0549641
0 0 0
-0.00100166 -0.094943 0.00492926
7.96353e-06 0.000827275 0.0043689
1.49812e-05 0.0158378 0.150224
-1.10798e-05 0.00370795 -0.0106722
0.00199977 -0.000132573 0.0857771
9.72693e-05 0.00167307 0.00835168
-0.00229339 0.00537854 0.105735
-3.21485 -1.61334 20.0044
-2.94874 -5.38343 20.1441
-1.81106 -1.44816 17.9244
1.44436 0.864807 11.3722
0.13553 1.10964 9.13414
1.23962 0.600293 5.73004
-3.98738 0.345271 20.0325
-2.859 0.544301 16.8844
-2.58409 3.17158 19.5311
-0.276519 -1.12152 5.73213
-0.789271 -0.5011 0.331232
-0.0635919 -0.37987 16.0409
2.88877 -5.22011 20.1585
1.8165 -1.43315 17.9445
3.21789 -1.61448 19.9884
-0.0902834 1.05861 8.88018
-1.09835 0.518598 4.95668
-1.46961 0.84089 11.8092
2.86327 0.542127 16.91
2.58696 3.16153 19.5341
3.99973 0.348685 20.0149
0.795341 -0.328617 -0.81833
0.0338608 -0.316322 14.8611
0.238154 -1.11561 5.93797
-0.24329 -0.703184 20.6664
-0.0717371 0.187149 15.8175
-0.378073 -0.339947 18.4759
0.373913 -0.273689 15.0925
-1.8796 -0.85038 21.3707
-3.14566 1.92816 21.0012
0.275041 0.578921 16.4484
-0.587661 0.145507 20.8587
0.0992753 0.215631 15.9058
0.235562 -0.70364 20.6932
-0.402353 -0.305387 15.1506
0.392627 -0.364089 18.8683
3.2021 2.11092 20.9729
1.86893 -0.856621 21.3448
0.245868 0.211245 19.0079
-0.233253 0.514551 16.701
-0.888829 -0.486146 19.9
-0.58943 -0.237768 19.7708
-0.547876 -0.373522 19.6148
-0.939399 -0.695522 21.0382
-1.46351 -0.694802 20.2938
-1.73144 -1.5784 20.2234
-0.201536 -0.31104 21.3179
-0.552536 -0.506663 21.292
-0.31619 -0.529824 21.4904
0.381593 0.0241084 21.6371
-0.0783347 -0.295782 21.5204
0.0224694 -0.255509 21.5404
1.06676 0.391684 21.2307
1.11463 0.294312 21.2977
0.963989 0.977479 20.7044
1.22218 0.523404 20.8063
1.42676 0.370403 20.8691
1.3349 1.01115 20.6681
0.977821 0.252202 20.824
0.94934 0.603595 21.1206
-1.19774 -0.365668 19.757
-0.741135 -0.116417 19.6518
-0.700663 -0.325472 19.4335
-1.28061 -0.654684 21.1193
-1.9262 -0.31267 20.2567
-0.309668 -0.442489 21.3824
-0.908686 -0.524196 21.3196
0.502676 -0.17019 21.8058
-0.32621 -0.357138 21.6379
1.47473 0.147512 20.6917
1.33997 -0.337832 19.5251
1.60634 0.0459522 20.1936
1.69715 -0.470502 19.9143
2.16194 0.782539 15.974
1.29183 -0.576137 20.4602
1.53425 0.0515002 19.2586
-1.37574 0.0842246 19.7126
-0.761218 0.258386 19.6866
-0.942246 0.0388514 19.2086
-1.62455 -0.120941 21.0416
-1.50015 0.575318 20.2599
-0.836663 -0.399224 21.5477
-1.26139 0.209522 21.1473
0.288279 -0.573604 21.3657
-0.472447 -0.108919 21.6002
0.983605 -0.9615 20.1841
0.0830204 -0.587232 21.4027
1.0242 -0.855319 20.8987
0.368004 -0.742763 21.1364
1.15007 -1.0698 14.4989
0.424884 -0.758944 20.6507
1.24998 -0.892267 18.257
-0.836075 0.564074 19.9911
-0.617854 0.571954 19.6319
-0.996898 0.595522 20.6944
-1.15854 1.12024 20.1743
-0.662739 0.285296 21.3009
-1.15031 0.869994 21.0763
-0.139165 -0.155951 21.34
-0.409526 0.148738 21.5354
0.104555 -0.409493 21.1151
-0.0556807 -0.341898 21.2782
0.248196 -0.425829 20.8297
0.145887 -0.584526 20.9628
0.0494403 -0.449662 20.6749
-1.10459 -1.45921 19.0019
-0.565129 -0.511467 19.2084
0.0141272 -0.715716 19.0491
-0.874325 -1.53546 21.9912
0.00634942 -4.06362 20.9915
-0.131256 -0.201722 20.7991
-0.00489168 -0.39393 20.9758
0.229569 0.582649 19.3402
-0.00200678 -0.219094 20.4195
0.62462 1.48646 17.8109
-0.000977056 0.86142 16.6197
1.14729 1.69963 17.6134
1.32593 1.71141 14.1805
0.025038 1.32496 15.2807
1.37654 1.31164 16.0981
0.0403325 2.11097 15.9686
-0.795563 -0.274688 18.7755
0.00905606 -0.660669 18.5563
2.17995 1.27733 11.8177
1.64425 0.152356 5.01443
0.129567 0.0326795 2.11846
2.52887 0.290197 11.2027
0.285131 2.12203 8.40032
-0.797253 0.631773 18.8861
0.00578316 0.133093 17.7663
1.05786 -1.10892 8.68772
0.192622 -0.985234 19.5774
0.127261 1.19665 -5.30685
0.226022 -0.983637 20.5156
0.36185 0.0466652 -0.745037
-0.885772 1.37954 19.4906
0.00760935 1.03184 19.1212
-1.1988 1.65591 20.5396
0.00497577 2.42923 19.7894
-0.900681 1.01602 21.7145
-0.0734823 2.77816 20.9309
-0.207364 -0.0728586 21.4972
-0.0535009 0.537861 21.8958
-0.0194565 -0.437966 21.2368
-0.0304306 -0.132073 21.4103
0.0939081 -0.665819 20.8
-0.0125982 -0.596884 21.0911
-0.0159177 -0.4376 20.5314
1.11277 -1.42456 19.032
0.573638 -0.505914 19.2221
0.551632 -0.357371 19.6276
0.855705 -1.50358 21.9692
1.70425 -1.52113 20.2309
0.137274 -0.195185 20.8349
0.318352 -0.526422 21.4775
-0.19665 0.582205 19.1381
-0.0196686 -0.26756 21.5455
-0.465671 1.40917 17.0994
-0.947692 1.02805 20.5932
-1.02998 1.89046 16.8222
-1.1642 1.69273 12.8314
-1.29877 1.21034 20.1411
-1.33181 1.63126 15.2471
-0.917015 0.869652 20.3985
0.80282 -0.27276 18.7864
0.699277 -0.321322 19.4407
-2.06063 1.51616 10.8541
-1.31465 0.589363 2.09739
-2.2201 1.05256 14.0966
-2.53263 0.415524 7.86454
-1.82115 0.382583 16.4876
0.801557 0.617436 18.9055
0.937764 0.0363809 19.2226
-1.04668 -0.583747 5.85012
-0.0569125 -0.949989 16.7861
-1.05248 -1.08135 12.2417
-0.0351214 -1.03949 17.7579
-1.11754 -0.88664 14.9324
0.8899 1.36731 19.4956
0.618188 0.56415 19.6418
1.18552 1.6949 20.5314
1.15819 1.11817 20.1745
0.885985 1.14601 21.7902
1.17987 0.94409 21.0804
0.201281 -0.0375595 21.5307
0.418983 0.201911 21.5882
0.0617301 -0.410126 21.3166
0.0866294 -0.300665 21.3109
-0.0794274 -0.695284 20.855
-0.0936665 -0.580179 21.0955
-0.0633248 -0.497174 20.7907
0.878099 -0.471409 19.9122
0.581796 -0.232841 19.7855
0.940657 -0.688616 21.0343
1.44685 -0.68855 20.2983
0.204908 -0.308838 21.3147
0.552833 -0.502276 21.2882
-0.377389 0.0180911 21.6409
0.0844923 -0.298237 21.4969
-1.08345 0.445723 21.1437
-1.09863 0.26652 21.335
-1.3319 0.635293 20.7002
-1.46007 0.458683 20.7984
-1.00818 0.340708 20.9887
1.18692 -0.363672 19.7634
0.736423 -0.113613 19.6589
1.28297 -0.651845 21.1163
1.92711 -0.310736 20.2507
0.313331 -0.434372 21.3714
0.902488 -0.519188 21.319
-0.483432 -0.173806 21.7914
0.319159 -0.347749 21.6252
-1.49826 0.162458 20.5055
-1.30542 -0.365976 19.7519
-1.72617 0.182638 19.7466
-1.82504 -0.485638 19.3294
-1.46523 -0.71922 20.4808
1.36603 0.0845669 19.7242
0.75939 0.254049 19.6973
1.62469 -0.118573 21.0484
1.50279 0.577926 20.2616
0.827742 -0.391197 21.5395
1.29335 0.225764 21.1554
-0.272614 -0.57437 21.4693
0.487659 -0.101398 21.6341
-1.0023 -0.956208 19.8618
-0.0402561 -0.631205 21.4523
-1.1059 -0.927929 20.5979
-0.350408 -0.839646 21.2197
-0.387552 -0.787347 20.5869
0.833741 0.56096 19.9932
1.01443 0.617046 20.6924
0.695773 0.331249 21.3332
0.145407 -0.156306 21.377
-0.087303 -0.428436 21.1331
-0.280274 -0.512897 20.9319
-1.01068 -0.447467 19.8371
-1.40154 -1.51759 18.5898
-1.07884 -0.848504 19.5601
-1.55763 -0.73532 19.1748
-0.618251 -0.350065 19.5297
-2.37873 -1.72219 20.1377
-1.11129 -0.694813 21.0829
-0.57799 -1.03939 18.0562
-0.984999 -1.15142 21.3917
-1.58673 -1.38194 21.7022
-0.247165 -0.617168 21.4707
-0.242992 -0.382924 21.3454
0.123085 -0.00783756 14.8632
-0.084196 -0.311386 21.388
-0.0507289 -0.378173 19.4789
-0.0463564 -0.400337 20.6708
0.467108 -0.0556394 21.7505
-0.000405134 0.638827 11.9601
0.507813 0.366746 21.482
0.691448 0.184091 14.6008
1.31064 1.17844 17.5106
1.32064 0.316662 21.0559
0.761582 1.37759 11.4244
1.20929 1.03555 20.592
1.76017 0.80078 14.3677
1.79035 1.07292 17.7221
1.43418 0.376125 20.6234
1.60114 1.5461 15.0463
1.48653 1.06947 20.4537
2.02958 0.582414 17.1189
1.27726 0.441102 19.6023
-1.34066 -0.202606 19.7085
-2.5008 -0.75134 17.1335
-2.17107 0.187966 18.8655
-0.837623 -0.178541 19.2895
-4.11559 -0.707476 19.933
-1.51864 -0.46256 21.1248
-2.5975 -0.284592 21.5668
-0.79302 -1.01166 20.4728
-0.541472 -0.510121 21.4997
-0.980561 -0.847835 19.2645
-0.498912 0.461166 16.1445
0.441346 -0.321357 21.4145
0.876689 0.0457466 11.0068
0.758646 -1.02165 5.07104
1.46594 -0.457362 19.5248
0.267164 -0.38324 1.95982
0.538909 -0.977229 11.3594
2.04761 -0.490095 13.8009
1.6198 -0.351271 19.4944
2.49945 0.402891 8.6517
1.29584 -1.16026 16.7669
1.74513 -0.595891 18.7412
-1.19499 0.46797 19.8119
-1.69877 1.76411 18.5005
-0.94328 0.919176 19.7758
-0.836937 0.430093 19.3357
-2.25186 1.34923 20.0381
-1.43628 0.405924 20.8093
-2.51858 2.04071 20.6946
-1.2393 1.0432 20.6479
-1.98297 0.584325 21.232
-0.919776 0.0444973 21.4687
-2.41622 1.05176 22.3603
-0.818525 0.547969 21.471
-0.648517 -0.0595617 21.8824
-0.104767 -0.357109 21.555
-0.0288412 -0.230778 18.2612
-0.173858 -0.137773 21.4326
-0.119333 -0.627309 20.807
0.245578 -0.672034 21.3222
-0.0497883 -0.654058 17.6402
0.0531471 -0.455585 21.1786
0.353462 -0.966037 20.5907
0.421261 -0.747772 20.9549
0.308057 -1.04352 19.8551
0.227 -0.624467 21.0439
0.324454 -0.877446 20.503
1.40991 -1.5019 18.6194
0.0240459 -2.29529 18.4012
0.00778506 -2.73977 16.1036
0.00857885 -0.706564 18.8548
0.00273545 -5.29774 22.7515
0.594937 -1.04815 18.4637
-0.000560694 -1.44643 22.0725
1.12877e-05 0.102156 13.2647
-0.108102 -0.0043488 14.9583
-0.00313334 -0.225522 20.3368
-0.00644142 -0.237821 13.2815
0.0365058 0.629727 11.896
-0.000615594 0.372706 18.5513
-0.00709673 0.57693 7.71055
-0.601001 1.27292 10.7146
0.00193375 1.00762 15.9602
-0.00860781 -0.0628734 1.68174
0.100262 0.972749 9.4384
-1.47959 1.76131 14.1699
0.0367085 1.79924 16.0943
0.200225 1.26336 5.69359
0.261332 2.10812 12.8303
2.50042 -0.739157 17.1583
0.0140501 2.18596 13.2811
0.0104894 -0.421993 18.0544
-0.188546 -0.22048 1.28034
-0.0516522 0.793686 -4.66763
0.152656 0.611616 -3.28311
-2.56313 0.823708 5.99687
0.338385 0.504464 -3.20021
0.324569 1.66811 1.53044
1.70726 1.74546 18.5154
0.00818372 1.89057 19.1956
0.00971251 0.932288 18.3181
0.00278527 4.62012 19.1489
2.51058 2.09301 20.6878
-0.022065 2.47801 20.3004
-0.0721138 5.20344 19.583
2.54496 1.226 22.218
-0.0900594 1.79719 22.0625
-0.0350761 0.264286 17.8267
-0.0903088 -0.227075 17.0178
-0.0458677 0.0744772 21.6071
-0.0307971 0.0518634 10.1026
0.0719145 -0.549358 15.7874
-0.0216624 -0.323872 21.4275
-0.047738 -0.382641 12.3141
-0.0980572 -1.02754 16.7078
-0.0156008 -0.602348 21.2317
-0.0148933 -0.413624 14.2762
0.99717 -0.448517 19.851
1.0787 -0.827769 19.5729
1.55208 -0.731091 19.1839
0.620068 -0.346418 19.5367
2.35998 -1.68349 20.1299
1.10807 -0.691589 21.0784
0.998804 -1.13367 21.3718
1.61974 -1.40279 21.7044
0.259885 -0.621628 21.5046
0.249101 -0.382148 21.3314
0.0850084 -0.313605 21.3837
0.0557732 -0.393498 19.6171
0.065315 -0.418579 20.7895
-0.454176 -0.0628319 21.7394
-0.509622 0.384152 21.4774
-0.760069 0.171778 15.2269
-1.29829 1.19938 17.3839
-1.34683 0.353902 20.9627
-1.18918 1.17517 20.5034
-1.74409 0.865874 13.2723
-1.74054 1.32484 17.0268
-1.54934 0.511737 20.5054
-1.40581 1.22986 19.7481
-2.17267 0.820158 15.046
-1.42255 0.746389 17.7411
1.33514 -0.199266 19.712
2.16058 0.182417 18.8808
0.832404 -0.177097 19.2979
4.12173 -0.71 19.9115
1.52255 -0.457031 21.1254
2.60174 -0.273116 21.5753
0.780814 -1.01139 20.4919
0.536316 -0.49768 21.485
0.995498 -0.859509 19.4626
0.500631 0.377827 16.6039
-0.423873 -0.351659 21.6271
-0.900071 0.0663619 11.3613
-0.794657 -0.97728 5.44729
-1.48661 -0.447458 19.1517
-0.36347 -0.951933 9.42064
-2.06522 -0.410053 10.7286
-1.81199 -0.30545 18.8074
-1.20741 -1.17082 13.645
-2.07005 -0.234507 15.6386
1.19148 0.464943 19.8178
0.940973 0.909883 19.7816
0.833297 0.428124 19.3521
2.25088 1.35115 20.0388
1.45419 0.417543 20.8145
1.24154 1.07014 20.6439
2.03584 0.618258 21.2346
0.965469 0.0620586 21.4952
0.85612 0.642059 21.5271
0.686064 -0.024189 21.954
0.122367 -0.366717 21.5712
0.197178 -0.115521 21.4633
0.128965 -0.572544 20.1267
-0.190496 -0.729087 21.3437
-0.00113156 -0.442584 21.2388
-0.322891 -1.03168 20.007
-0.437581 -0.901701 21.0059
-0.133923 -0.637906 20.8291
-0.275313 -0.931066 20.5097
-1.28453 -0.824544 19.3856
-1.20614 -1.30274 21.576
-0.0309809 -0.368167 20.9611
0.730783 0.395021 19.5251
1.53979 1.11672 17.7651
1.8547 0.923999 18.29
-1.96941 -0.39802 18.9186
-2.19014 -0.972199 21.7778
-0.259832 -0.553776 18.3862
0.347333 0.412214 10.6365
1.34455 -0.696466 10.2038
2.073 -0.344034 15.3857
-1.55047 0.928348 19.3487
-2.07325 0.884684 20.8624
-1.49627 0.264448 21.8615
-0.273374 -0.434633 21.7815
0.0583212 -0.807497 21.0397
0.490039 -1.03876 20.5962
0.0141077 -2.6167 17.5423
-0.00149406 -0.702936 15.1565
-0.00285693 -0.0281276 12.8915
0.00422623 0.329737 10.6508
-0.0098244 0.575894 8.1997
0.198138 1.67464 11.2666
0.0112762 -1.31587 13.8582
0.0127446 0.271248 -2.82319
0.307127 0.707264 -1.99503
0.0106822 2.92719 17.6352
-0.0239324 3.80896 20.1513
-0.0623938 2.92197 21.3528
-0.0205313 -0.0794426 12.7551
-0.0345587 -0.139145 11.2444
-0.0534553 -0.778882 13.8702
1.2831 -0.806469 19.4002
1.22739 -1.30093 21.554
0.0379521 -0.378059 21.0366
-0.741112 0.40921 19.5911
-1.50688 1.25781 17.1876
-1.8511 1.12015 17.1128
1.96124 -0.400307 18.9352
2.22074 -0.95147 21.7998
0.270486 -0.574045 18.5544
-0.376645 0.393083 11.5197
-1.19247 -0.782412 8.71136
-2.2217 -0.0828637 13.0685
1.54593 0.920397 19.3577
2.09536 0.912526 20.8638
1.57497 0.307928 21.9101
0.28963 -0.424278 21.4608
-0.0410467 -0.76192 20.1823
-0.412014 -1.04527 20.135
-0.562204 -0.251395 0.524198
0.175112 -0.305285 0.649857
-0.0189498 -0.00882071 0.440411
0.00648137 -0.0170013 0.00276202
-0.0161797 0.0592466 0.282051
-0.0304352 0.09098 0.445868
-0.0920091 0.029743 0.103217
-0.013621 0.080071 0.164969
-0.352768 -0.0178377 1.17647
-0.0332828 -0.00937188 -0.00392029
-0.201227 0.183624 -0.261464
-0.00467722 -0.00233925 -0.000561864
-0.183637 -0.31989 0.647398
0.578456 -0.259254 0.541176
0.0181883 -0.00940771 0.437223
0.0159943 0.0590898 0.28278
-0.00645434 -0.0168071 0.00275265
0.029999 0.0889789 0.460883
0.0117741 0.0680537 0.140566
0.02 0.0061401 0.0222457
0.350609 -0.0149285 1.17403
0.200685 0.186944 -0.268751
0.031823 -0.00890222 -0.00400436
0.00487758 -0.00242289 -0.000627503
-0.00395191 -0.00476447 0.589001
0 0 0
0 0 0
-6.78114e-05 0.00012598 0.00715977
-0.0833777 0.0435432 0.995703
0 0 0
-0.0289494 0.00421144 0.148684
0 0 0
-0.248619 -0.199862 0.910967
-0.000365631 -0.00511788 0.0707002
0 0 0
-0.0377781 0.0188455 0.0572447
0 0 0
0 0 0
0 0 0
0.00904837 -0.00405121 0.029058
0.00554901 -0.00273109 0.495292
5.92374e-05 0.000124817 0.00710155
0 0 0
-8.59361e-19 6.577e-19 8.21551e-18
0.0838959 0.0391776 0.963675
0 0 0
0 0 0
0.0180962 0.00576149 0.0872103
0.250237 -0.201585 0.914519
0.0408092 0.02019 0.0611138
0.000331843 -0.00542611 0.0689357
0 0 0
0 0 0
-0.00786035 -0.00357855 0.025435
0 0 0
0 0 0
-0.0369906 -0.0211581 0.277338
0 0 0
-9.27928e-08 -5.36062e-07 4.05249e-05
-0.000220264 -0.0935409 -0.0366426
-0.000768465 0.00177849 0.0248215
0 0 0
0.0135576 -0.0237831 0.049541
-0.106791 -0.121997 -0.00238603
1.10456e-08 8.39593e-06 7.55538e-05
1.21007e-05 -0.0467891 -0.00491743
0.00289526 0.00463333 0.160713
-0.000122611 0.000578165 0.016839
-0.00158203 0.814831 0.403464
-0.000484518 0.069757 0.275029
-0.00477337 -0.00458946 0.168929
-0.00618751 0.0052951 0.0300145
-8.78187e-05 -0.000765526 -0.00197772
0 0 0
0.0177874 -0.02901 0.186285
-0.00186487 0.000511976 -0.00215001
0 0 0
0.0121172 -0.00624339 0.087918
0 0 0
0.00514255 0.0123453 0.130639
0.113567 -0.130872 -0.00382173
-0.0132896 -0.023183 0.0485386
0.000161719 0.00057569 0.0167327
-0.00346886 0.00105522 0.14345
0.00592853 0.00509238 0.0286673
0.00467381 -0.00391046 0.140441
0.00188746 0.000523845 -0.00218136
-0.0176861 -0.0291148 0.186613
0 0 0
0 0 0
0 0 0
-2.34759e-05 0.000347824 0.00423944
-8.97718e-09 -1.05551e-06 0.000226437
-4.98691e-10 -3.1609e-09 -9.811e-07
-0.000491566 0.00847012 0.0289986
0 0 0
0 0 0
9.76138e-09 5.63678e-08 1.64102e-05
0.00680845 0.0311575 0.115276
-0.0307501 0.0395214 0.419502
0 0 0
0.00234412 0.0964065 0.194813
-2.79119e-07 -0.00149926 0.0404763
3.51027e-05 0.000729861 -0.00226656
0 0 0
0 0 0
0 0 0
1.65282e-05 0.000276277 0.00338608
0.000654296 0.0100637 0.0335644
0 0 0
0.0319805 0.0405936 0.432344
-0.00668028 0.0308315 0.113582
-0.038362 -0.0219585 0.264749
-0.0163179 -0.00813078 0.0802388
-0.000378917 0.000216076 0.0449802
-0.000103282 -0.00393179 0.0493844
0 0 0
0.0011925 0.00631954 0.0523448
0 0 0
0.0210212 0.12763 0.339871
-0.00134851 -0.00148482 0.329715
-0.00129248 0.0481666 0.290273
0 0 0
-0.00292711 -0.0158353 0.0218268
-2.12248e-05 -4.20723e-06 0.000116419
2.31566e-05 -4.5342e-06 0.000127741
-2.52155e-05 -6.9348e-06 0.000693613
2.41677e-05 -6.62929e-06 0.000656838
-2.75685e-05 1.57789e-05 0.00682482
1.89102e-05 1.60586e-05 0.00701465
0.000675456 -0.000946231 0.0865898
-0.000841555 -0.000922051 0.08483
-1.41564e-07 -6.86421e-08 -2.42963e-05