# vtk DataFile Version 2.0
tet_velo
ASCII
DATASET UNSTRUCTURED_GRID
POINTS 29498 float
-0.675 0.125 -2.14616
-0.665 0.275 2.16098
-0.685 0.655 -2.0067
-0.595 0.955 2.10363
0.675 0.125 -2.14616
0.665 0.275 2.16098
0.685 0.655 -2.0067
0.595 0.955 2.10363
-0.730696 0.115971 -0.710447
-0.756075 0.137259 0.725267
-0.763079 0.863079 -0.63659
-0.729485 0.959485 0.73352
0.730696 0.115971 -0.710447
0.756075 0.137259 0.725267
0.763054 0.863054 -0.63659
0.729504 0.959504 0.73352
-1.40475 -0.303106 -3.30092
-1.4085 -0.235312 -2.17862
-1.44685 -0.234505 -0.741214
-1.45309 -0.223804 0.709399
-1.39394 -0.128944 2.14792
-1.37803 -0.0598787 3.27566
-1.38644 -0.00409365 4.39332
-1.40357 0.0222223 -3.25477
-1.40825 0.11375 -2.13964
-1.45862 0.137458 -0.715
-1.45216 0.152057 0.71555
-1.35693 0.239805 2.14145
-1.35438 0.306952 3.26827
-1.37535 0.362759 4.38807
-1.40907 0.631373 -3.14407
-1.41996 0.720643 -2.02623
-1.47798 0.87213 -0.646307
-1.4352 0.942885 0.728967
-1.31395 0.963301 2.11015
-1.33257 1.02727 3.23968
-1.36901 1.09167 4.37005
-1.42148 1.67057 -3.02734
-1.43105 1.77668 -1.91932
-1.4529 1.94103 -0.560673
-1.4505 2.06183 0.783839
-1.42173 2.11951 2.14318
-1.40861 2.16044 3.25263
-1.41153 2.21101 4.37584
-0.693168 -0.297764 -3.30515
-0.684252 -0.226471 -2.1848
-0.717535 -0.244954 -0.740385
-0.742289 -0.23411 0.717692
-0.705519 -0.111814 2.16242
-0.694822 -0.0480736 3.2855
-0.70143 0.00135573 4.39902
-0.693127 0.0200643 -3.25608
-0.680137 0.319331 3.27638
-0.695554 0.367783 4.39236
-0.696431 0.603873 -3.13596
-0.662573 1.02719 3.23837
-0.693388 1.09233 4.36978
-0.701188 1.65198 -3.01932
-0.70512 1.75926 -1.91049
-0.728096 1.93747 -0.555346
-0.742248 2.067 0.7832
-0.732507 2.12123 2.13861
-0.724018 2.15977 3.24807
-0.725574 2.21022 4.37253
0.703956 -0.297767 -3.30515
0.70785 -0.226472 -2.1848
0.737884 -0.244955 -0.740386
0.735396 -0.23411 0.717692
0.674036 -0.111814 2.16242
0.663837 -0.0480729 3.2855
0.663784 0.00135686 4.39902
0.692811 0.0200622 -3.25608
0.649855 0.319331 3.27638
0.655319 0.367784 4.39236
0.697205 0.60387 -3.13596
0.625121 1.02719 3.23837
0.642678 1.09233 4.36978
0.730445 1.65197 -3.01932
0.737451 1.75926 -1.91049
0.727336 1.93747 -0.555346
0.686313 2.06701 0.7832
0.64592 2.12123 2.13861
0.638824 2.15978 3.24807
0.641589 2.21022 4.37253
1.41284 -0.303112 -3.30092
1.42003 -0.235318 -2.17862
1.4595 -0.234508 -0.741214
1.45816 -0.223801 0.709399
1.38735 -0.128942 2.14792
1.36045 -0.0598768 3.27566
1.35669 -0.00409156 4.39332
1.40149 0.0222159 -3.25477
1.40398 0.113742 -2.13964
1.45897 0.137453 -0.715
1.46222 0.152062 0.71555
1.3688 0.239806 2.14145
1.34137 0.306954 3.26827
1.3442 0.362761 4.38807
1.40761 0.631364 -3.14407
1.4159 0.720631 -2.02623
1.47601 0.872111 -0.646307
1.44072 0.9429 0.728967
1.32076 0.963306 2.11015
1.31105 1.02728 3.23968
1.32707 1.09167 4.37005
1.44504 1.67056 -3.02734
1.45407 1.77667 -1.91932
1.44967 1.94102 -0.560673
1.40575 2.06183 0.783839
1.35144 2.11952 2.14318
1.33405 2.16044 3.25263
1.33384 2.21102 4.37584
-0.721298 0.39 -2.11773
0 0.106256 -2.1649
-0.713673 0.109661 -1.4283
-0.697025 0.615 2.19933
0 0.26981 2.16617
-0.729285 0.187381 1.44312
0 0.727688 -2.07939
-0.762913 0.797913 -1.32165
0 0.996477 2.14511
-0.695234 0.990234 1.41858
0.721292 0.39 -2.11772
0.713673 0.109661 -1.4283
0.697008 0.615 2.19931
0.72928 0.187386 1.44312
0.762933 0.797933 -1.32165
0.69523 0.99023 1.41858
-0.747955 0.122045 0.00741005
-0.874295 0.489525 -0.673518
0 0.110192 -0.710447
-0.873149 0.548372 0.729394
0 0.136442 0.725267
-0.751626 0.916626 0.048465
-1.23754e-05 1.12581 -0.63659
9.54626e-06 1.36624 0.73352
0.747955 0.122045 0.00741005
0.874293 0.489513 -0.673518
0.873139 0.548381 0.729394
0.75162 0.91662 0.048465
-0.89042 0.439763 -1.37497
-0.875896 0.518948 0.0279375
-0.884613 0.581686 1.43085
0 0.103467 -1.4283
0 0.118688 0.00741005
0 0.176648 1.44312
0 0.39 -2.32706
0 0.615 2.33686
-6.18768e-06 0.904284 -1.32165
-1.41455e-06 1.35968 0.048465
4.77313e-06 1.2047 1.41858
0.890396 0.439756 -1.37497
0.875893 0.518947 0.0279375
0.884616 0.581691 1.43085
-1.04163 0.119375 -2.1429
-0.679626 -0.0507355 -2.16548
-0.684063 0.0725322 -2.70112
-1.01096 0.257402 2.15122
-0.68526 0.0815929 2.1617
-0.672568 0.297165 2.71868
-1.05248 0.687822 -2.01646
-0.690716 0.629436 -2.57133
-0.69506 1.20713 -1.95859
-0.954476 0.959151 2.10689
-0.628787 0.991095 2.671
-0.663753 1.53811 2.12112
0.691425 -0.0507361 -2.16548
0.683906 0.0725311 -2.70112
1.03949 0.119371 -2.1429
0.669518 0.0815931 2.1617
0.657427 0.297166 2.71868
1.0169 0.257403 2.15122
0.691102 0.629435 -2.57133
0.711225 1.20713 -1.95859
1.05045 0.687815 -2.01646
0.61006 0.991096 2.671
0.62046 1.53812 2.12112
0.95788 0.959153 2.10689
-1.09466 0.126714 -0.712723
-0.724115 -0.0644915 -0.725416
-1.10412 0.144658 0.720408
-0.749182 -0.0484257 0.72148
-1.12053 0.867605 -0.641449
-0.745587 1.40028 -0.595968
-1.08234 0.951185 0.731244
-0.735867 1.51324 0.75836
0.73429 -0.0644917 -0.725416
1.09483 0.126712 -0.712723
0.745735 -0.0484255 0.72148
1.10915 0.14466 0.720408
0.745195 1.40026 -0.595968
1.11953 0.867583 -0.641449
0.707909 1.51326 0.75836
1.08511 0.951202 0.731244
-1.40662 -0.269209 -2.73977
-1.40416 -0.140442 -3.27785
-1.04896 -0.300435 -3.30304
-1.42767 -0.234908 -1.45992
-1.40837 -0.0607809 -2.15913
-1.04637 -0.230891 -2.18171
-1.44997 -0.229154 -0.0159075
-1.45273 -0.0485238 -0.728107
-1.08219 -0.23973 -0.7408
-1.42352 -0.176374 1.42866
-1.45263 -0.0358732 0.712474
-1.09769 -0.228957 0.713546
-1.38598 -0.0944113 2.71179
-1.37543 0.0554303 2.14469
-1.04973 -0.120379 2.15517
-1.38223 -0.0319862 3.83449
-1.36621 0.123537 3.27197
-1.03643 -0.0539761 3.28058
-1.38089 0.179332 4.3907
-1.04393 -0.00136896 4.39617
-1.40591 0.0679861 -2.69721
-1.40632 0.326797 -3.19942
-1.04835 0.0211433 -3.25543
-1.43344 0.125604 -1.42732
-1.41411 0.417197 -2.08294
-1.45539 0.144757 0.000275051
-1.4683 0.504794 -0.680653
-1.40454 0.195931 1.4285
-1.44368 0.547471 0.722258
-1.35566 0.273378 2.70486
-1.33544 0.601553 2.1258
-1.36487 0.334855 3.82817
-1.34348 0.667112 3.25397
-1.01726 0.313141 3.27232
-1.37218 0.727213 4.37906
-1.03545 0.365271 4.39022
-1.41452 0.676008 -2.58515
-1.41528 1.15097 -3.08571
-1.05275 0.617623 -3.14001
-1.44897 0.796387 -1.33627
-1.42551 1.24866 -1.97278
-1.45659 0.907508 0.04133
-1.46544 1.40658 -0.60349
-1.37457 0.953093 1.41956
-1.44285 1.50236 0.756403
-1.32326 0.995287 2.67491
-1.36784 1.54141 2.12666
-1.35079 1.05947 3.80486
-1.37059 1.59385 3.24615
-0.997573 1.02723 3.23902
-1.39027 1.65134 4.37295
-1.0312 1.092 4.36992
-1.42627 1.72362 -2.47333
-1.06134 1.66127 -3.02333
-1.44198 1.85885 -1.24
-1.06809 1.76797 -1.91491
-1.4517 2.00143 0.111583
-1.0905 1.93925 -0.558009
-1.43611 2.09067 1.46351
-1.09638 2.06442 0.783519
-1.41517 2.13998 2.6979
-1.07712 2.12037 2.14089
-1.41007 2.18573 3.81423
-1.06631 2.16011 3.25035
-1.06855 2.21062 4.37418
-0.68871 -0.262118 -2.74497
-0.693147 -0.13885 -3.28061
0.00539394 -0.297766 -3.30515
-0.700893 -0.235713 -1.46259
0.011799 -0.226472 -2.1848
-0.729912 -0.239532 -0.0113466
0.0101746 -0.244954 -0.740386
-0.723904 -0.172962 1.44006
-0.00344661 -0.23411 0.717692
-0.700171 -0.0799439 2.72396
-0.0157417 -0.111814 2.16242
-0.698126 -0.0233589 3.84226
-0.687479 0.135629 3.28094
-0.0154925 -0.0480732 3.2855
-0.698492 0.184569 4.39569
-0.0188229 0.00135629 4.39902
-0.694779 0.311969 -3.19602
-0.000157759 0.0200633 -3.25608
-0.687845 0.343557 3.83437
-0.671355 0.673261 3.25738
-0.0151412 0.319331 3.27638
-0.694471 0.730058 4.38107
-0.0201177 0.367783 4.39236
-0.69881 1.12793 -3.07764
0.000386765 0.603871 -3.13596
-0.677981 1.05976 3.80407
-0.693295 1.59348 3.24322
-0.0187261 1.02719 3.23837
-0.709481 1.65128 4.37115
-0.0253552 1.09233 4.36978
-0.703154 1.70562 -2.4649
0.0146281 1.65197 -3.01932
-0.716608 1.84837 -1.23292
0.0161654 1.75926 -1.91049
-0.735172 2.00224 0.113927
-0.000379888 1.93747 -0.555346
-0.737377 2.09412 1.46091
-0.0279675 2.06701 0.7832
-0.728262 2.1405 2.69334
-0.0432931 2.12123 2.13861
-0.724796 2.185 3.8103
-0.0425967 2.15977 3.24807
-0.0419926 2.21022 4.37253
0.705903 -0.262119 -2.74497
0.698384 -0.138852 -3.28061
1.0584 -0.300439 -3.30304
0.722867 -0.235713 -1.46259
1.06394 -0.230895 -2.18171
0.73664 -0.239532 -0.0113466
1.09869 -0.239731 -0.7408
0.704716 -0.172962 1.44006
1.09678 -0.228955 0.713545
0.668936 -0.0799434 2.72396
1.03069 -0.120378 2.15517
0.663811 -0.023358 3.84226
0.656846 0.135629 3.28094
1.01214 -0.0539749 3.28058
0.659551 0.18457 4.39569
1.01023 -0.00136735 4.39617
0.695008 0.311966 -3.19602
1.04715 0.0211391 -3.25543
0.652587 0.343557 3.83437
0.637488 0.673261 3.25738
0.995614 0.313143 3.27232
0.648998 0.730059 4.38107
0.999758 0.365272 4.39022
0.713825 1.12792 -3.07764
1.05241 0.617617 -3.14001
0.633899 1.05976 3.80407
0.631973 1.59348 3.24322
0.968084 1.02723 3.23902
0.642133 1.65128 4.37115
0.984876 1.092 4.36992
0.733948 1.70561 -2.4649
1.08774 1.66127 -3.02333
0.732393 1.84836 -1.23292
1.09576 1.76796 -1.91491
0.706825 2.00224 0.113927
1.08851 1.93925 -0.55801
0.666117 2.09412 1.46091
1.04603 2.06442 0.783519
0.642372 2.1405 2.69334
0.998678 2.12038 2.14089
0.640207 2.185 3.8103
0.986435 2.16011 3.25035
0.987713 2.21062 4.37418
1.41644 -0.269215 -2.73977
1.40717 -0.140448 -3.27785
1.43977 -0.234913 -1.45992
1.412 -0.0607878 -2.15913
1.45883 -0.229154 -0.0159075
1.45924 -0.0485274 -0.728107
1.42275 -0.176372 1.42866
1.46019 -0.0358695 0.712474
1.3739 -0.0944096 2.71179
1.37807 0.0554318 2.14469
1.35857 -0.0319842 3.83449
1.35091 0.123539 3.27197
1.35044 0.179335 4.3907
1.40273 0.0679789 -2.69721
1.40455 0.32679 -3.19942
1.43148 0.125597 -1.42732
1.40994 0.417186 -2.08294
1.4606 0.144757 0.000274961
1.46749 0.504782 -0.680653
1.41551 0.195934 1.4285
1.45147 0.547481 0.722258
1.35509 0.27338 2.70486
1.34478 0.601556 2.1258
1.34279 0.334858 3.82817
1.32621 0.667115 3.25397
1.33564 0.727215 4.37906
1.41176 0.675997 -2.58515
1.42632 1.15096 -3.08571
1.44596 0.796371 -1.33627
1.43499 1.24865 -1.97278
1.45837 0.907506 0.0413299
1.46284 1.40657 -0.60349
1.38074 0.953103 1.41956
[...]
POINT_DATA 29498
VECTORS point_vectors float
-2.25287 -7.22552 9.93756
0.136733 0.221857 0.61162
-1.62516 1.5795 2.85448
-0.055428 -0.109191 0.117406
2.21234 -7.24917 10.0029
-0.13831 0.219965 0.609555
1.61978 1.57839 2.84996
0.0553606 -0.108415 0.115924
0.0019776 0.00117016 0.0827055
0.00828736 0.00565273 0.154186
0 0 0
0 0 0
-0.00206676 0.00114697 0.0837083
-0.0106983 0.00542508 0.19048
0 0 0
0 0 0
-0.53966 -0.314179 19.805
-1.33728 -0.943384 20.4728
-0.33967 -0.492229 21.4672
0.255193 -0.135826 21.6044
0.887978 0.188083 21.4446
1.11427 0.181118 21.0666
0.933726 0.0135742 20.9135
-0.696928 -0.241881 19.6902
-2.02103 -0.863368 20.3717
-0.565235 -0.659001 21.5297
0.214629 -0.367012 21.7257
1.15364 -0.140658 21.4616
1.33437 -0.168391 21.2739
1.14832 -0.209979 21.1324
-0.850231 0.0895957 19.5667
-2.34718 0.28974 20.3613
-1.35064 -0.401251 21.4718
-0.314485 -0.507313 21.8041
0.542833 -0.841968 21.4216
0.826085 -0.786611 21.3701
0.848773 -0.728644 20.4495
-0.556074 0.423779 19.907
-0.943369 0.707058 20.38
-0.903135 0.494204 21.1185
-0.343267 0.0148638 21.4719
0.0239465 -0.289092 21.3343
0.170388 -0.393627 21.0985
0.119076 -0.365566 20.8764
-0.473017 -0.609544 19.3677
-1.48402 -3.42731 20.6754
-0.0452985 -0.353337 21.863
0.299469 0.335255 21.2129
0.741922 1.36889 19.0665
1.22744 1.5048 17.981
1.18919 0.931299 17.5719
-0.648482 -0.522381 18.9654
1.90632 1.37156 10.381
1.96453 1.05975 13.2754
-0.952659 0.150893 18.4712
0.603068 -0.922739 7.87464
1.01176 -0.768458 14.8779
-0.455245 0.779367 19.5313
-0.891371 1.58249 20.1284
-1.09549 1.51742 21.1801
-0.34633 0.260904 21.7824
-0.0694915 -0.289284 21.4118
0.0451249 -0.467948 21.0087
-0.0374571 -0.398309 20.5522
0.479242 -0.60148 19.3832
1.51491 -3.31762 20.6587
0.0522767 -0.361278 21.8523
-0.290472 0.340049 21.2054
-0.678363 1.39499 18.9608
-1.14567 1.58604 17.963
-1.16619 1.04737 17.3872
0.650187 -0.519599 18.9687
-1.78908 1.39579 9.96324
-2.00525 1.22959 12.3021
0.953622 0.15181 18.4734
-0.37511 -0.849417 6.03102
-0.915801 -0.750191 13.2958
0.46566 0.764429 19.5479
0.915528 1.54627 20.1435
1.09521 1.51919 21.1795
0.34119 0.294388 21.793
0.0800155 -0.267681 21.432
-0.0380204 -0.469344 20.9897
-0.0144034 -0.395112 20.7404
0.541549 -0.312451 19.8115
1.32033 -0.932645 20.4747
0.34918 -0.49202 21.4599
-0.250259 -0.139254 21.6034
-0.884431 0.193509 21.4482
-1.13213 0.182542 21.0484
-0.93917 0.0422079 20.9529
0.699676 -0.243283 19.6892
2.03404 -0.874988 20.3672
0.567168 -0.661487 21.5281
-0.208702 -0.365652 21.715
-1.12951 -0.149454 21.4691
-1.34324 -0.166556 21.2919
-1.20601 -0.239797 21.0549
0.848792 0.0896544 19.5656
2.35996 0.295727 20.3566
1.35454 -0.40304 21.4733
0.312027 -0.504692 21.7995
-0.536573 -0.83378 21.4527
-0.841313 -0.818536 21.3497
-0.928382 -0.815039 20.2794
0.549872 0.413815 19.9175
0.933051 0.686948 20.3852
0.904971 0.497601 21.1203
0.354475 0.0255239 21.4849
-0.00288347 -0.310263 21.326
-0.152246 -0.401097 21.0345
-0.0483093 -0.304612 21.0313
-0.504745 -0.00599861 0.584947
-0.000205731 -0.0711544 0.381939
-0.0294048 0.00634649 0.247782
0.0545088 -0.153158 0.204169
-0.000113501 0.00596482 0.0226907
0.00879929 0.00569099 0.228018
-2.69255e-07 0.117368 0.26939
-0.276637 -0.0814668 0.641393
-0.000704857 0.0245875 -0.0659759
0 0 0
0.496333 -0.00596709 0.574401
0.029192 0.00630541 0.248702
-0.0535643 -0.15357 0.202363
-0.00901365 0.005644 0.228002
0.278214 -0.0821457 0.643561
0 0 0
0.00193563 0.00113577 0.177489
7.71848e-06 8.13689e-05 0.00554661
-1.45639e-06 2.23509e-05 0.00678936
0.000104477 0.000713537 0.00398637
0 0 0
0 0 0
-1.54211e-05 0.0163733 0.031242
-2.17974e-05 -0.00287433 0.0835408
-0.00180742 0.00113979 0.177912
-8.13196e-06 8.25821e-05 0.00556405
-0.00010337 0.00070633 0.00393367
0 0 0
0 0 0
4.50698e-05 0.00171403 0.0156279
0.0047324 0.00866087 0.0946671
-6.51704e-06 5.96609e-06 0.0153169
-8.11962e-07 1.21739e-05 0.00287395
0 0 0
1.56447e-06 -0.0301856 0.0430905
-0.00409725 -0.120585 0.0399399
-1.97464e-05 0.000725984 0.00810659
9.08951e-07 0.0156614 0.139937
-2.75493e-05 0.00412395 -0.0102697
0 0 0
-4.46312e-05 0.00169678 0.0154833
-0.00469939 0.00861986 0.0940598
-4.04669 -2.43365 19.8996
-2.33741 -5.78605 20.8767
-1.93361 -1.71406 17.6954
1.59912 0.558348 15.9407
0.634168 1.36956 11.8653
1.33863 0.867949 7.00051
-4.7648 1.2603 19.956
-2.97608 1.31585 16.5528
-2.08045 2.91364 19.889
0.675235 -0.678838 15.0276
-0.603862 -0.860314 3.44655
-0.114262 -0.521211 19.4403
2.36443 -5.60433 20.8323
1.93689 -1.71181 17.6983
4.07511 -2.46386 19.8906
-0.592572 1.34719 11.6339
-1.28026 0.838165 6.68132
-1.604 0.536973 16.1995
2.97555 1.31402 16.5568
2.10161 2.8463 19.903
4.7915 1.28167 19.9476
0.663474 -0.801603 2.87422
0.0969208 -0.497362 18.9818
-0.691085 -0.675558 15.2213
-0.181167 -0.787808 19.6395
0.00916561 -0.0464554 16.1126
0.48762 -0.155286 18.5615
0.32172 0.423154 15.3652
-2.31333 -1.03678 21.155
-3.10018 2.29555 21.1856
-0.338294 -0.549401 19.6343
-0.728691 0.103223 21.8091
-0.00456737 -0.0582457 16.2724
0.18381 -0.788448 19.6369
-0.315557 0.425157 15.3362
-0.484818 -0.1668 18.681
3.1005 2.3006 21.187
2.31337 -1.0398 21.1422
0.705529 0.118 21.6809
0.347505 -0.56562 19.7238
-0.951429 -0.598689 19.9214
-0.621507 -0.291848 19.7609
-0.543402 -0.457026 19.5924
-0.837621 -0.777797 21.2874
-1.66118 -0.958931 20.436
-1.66025 -1.88749 20.4606
-0.0211381 -0.303105 21.5553
-0.444643 -0.588906 21.4962
-0.142035 -0.557622 21.6732
0.55517 0.0274083 21.621
0.243241 -0.248214 21.6398
0.403499 0.0090345 21.67
1.0401 0.247816 21.3269
1.0401 0.0587978 21.5287
1.13045 0.744232 20.9393
1.19091 0.172536 20.6695
1.24756 -0.00900619 21.2921
1.51888 0.858075 20.5597
1.05502 -0.100806 21.0394
1.2493 0.521812 21.124
-1.32259 -0.496861 19.7255
-0.802345 -0.113129 19.5842
-0.771119 -0.420564 19.3754
-1.2427 -0.815418 21.439
-2.44052 -0.354148 20.3506
-0.162263 -0.525242 21.6537
-0.938679 -0.670958 21.536
0.640859 -0.237165 21.7068
0.001448 -0.556076 21.7398
1.32246 -0.127168 21.2428
1.06062 -0.627333 21.2756
1.628 -0.102163 20.3403
1.2185 -0.583209 21.3703
1.85425 0.515892 17.3345
1.15138 -0.848988 20.4831
1.56868 0.316507 17.5863
-1.62124 0.208336 19.6199
-0.75594 0.342275 19.6988
-0.994083 0.0960496 19.0899
-1.80049 -0.135507 21.2313
-1.53315 0.733148 20.3395
-0.851365 -0.492162 21.741
-1.32965 0.260034 21.2823
0.190408 -0.621921 21.7538
-0.44194 -0.160922 21.6747
0.668715 -0.893043 21.4401
0.121731 -0.530967 21.4114
0.72705 -0.647713 21.2313
0.293767 -0.624125 21.0406
0.984084 -1.08078 18.7484
0.210299 -0.362746 21.2002
0.988386 -1.33496 19.0492
-0.766129 0.599459 20.0674
-0.562987 0.584492 19.7153
-0.978406 0.639862 20.7771
-1.01641 1.11252 20.2665
-0.64942 0.252961 21.4211
-1.06866 0.879839 21.1916
-0.119138 -0.174683 21.3675
-0.406529 0.128821 21.5925
0.0952799 -0.383576 21.1749
-0.0300872 -0.322124 21.3642
0.127213 -0.390516 21.043
0.12116 -0.487813 20.9447
-0.00448493 -0.349253 21.229
-1.05551 -1.60921 19.095
-0.565953 -0.590225 19.1287
0.00452574 -0.764562 19.1346
-0.398993 -1.15879 22.3112
0.0273453 -4.44395 21.4018
0.134858 -0.0104994 21.4517
-0.00332017 -0.412738 21.485
0.498486 0.774754 20.0442
0.000750082 0.262251 19.9062
1.01124 1.56597 19.0286
0.00749257 1.14526 16.5352
1.09683 1.55543 19.1198
1.63488 1.65908 15.1286
0.0207381 1.6857 16.4289
1.57443 1.0776 15.3593
0.0384472 2.08488 16.9536
-0.843685 -0.224697 18.5884
-0.00229727 -0.729013 18.4956
2.11863 1.06145 11.4014
1.87909 -0.406729 6.58163
0.014517 1.6386 4.77539
1.85315 0.234452 12.2539
0.0969491 1.93261 10.7707
-0.73911 0.756565 18.9765
0.000707968 0.256704 17.7662
0.764766 -0.845863 10.2594
0.0334166 -0.864373 19.8813
0.0605304 1.65355 -7.06018
-0.00694292 -0.978081 19.0445
0.00775456 0.965736 -2.11377
-0.704001 1.28881 19.6863
0.0125367 0.962484 19.3325
-1.03481 1.58091 20.5996
0.0269409 2.08917 19.9915
-0.764066 0.947225 21.7671
-0.00107977 2.41148 21.1054
-0.14161 -0.125303 21.5835
-0.0136858 0.511642 21.914
-0.021575 -0.398694 21.3454
-0.00152603 -0.193 21.445
0.00916839 -0.530706 20.7864
0.0137117 -0.466919 20.9058
-8.00885e-05 -0.161697 21.5385
1.06517 -1.58119 19.1298
0.569633 -0.580684 19.1433
0.543222 -0.450991 19.6053
0.420348 -1.16576 22.2671
1.65883 -1.83333 20.4564
-0.131668 -0.0146481 21.4658
0.159089 -0.565627 21.6584
-0.472893 0.78026 19.9611
-0.402017 0.00933738 21.6683
-0.944629 1.58953 18.8054
-1.12965 0.78569 20.8599
-1.07392 1.65969 18.9704
-1.56247 1.72845 15.0915
-1.50904 0.889198 20.579
-1.53936 1.19774 15.1586
-1.27786 0.571215 21.0261
0.846714 -0.223266 18.5877
0.777668 -0.4305 19.363
-2.12214 1.18328 11.0462
-1.82414 -0.278872 5.75349
-1.88051 0.587208 16.9778
-1.75143 0.248436 10.8222
-1.60216 0.389509 17.1466
0.748523 0.744395 18.9965
0.993933 0.0957035 19.0893
-0.6088 -0.926055 8.29043
0.0395462 -0.85003 19.6192
-1.01929 -1.08093 18.0175
0.0205654 -1.02713 18.6762
-0.97905 -1.37669 18.87
0.727266 1.25686 19.7067
0.568048 0.572858 19.7285
1.04395 1.55996 20.6047
1.01994 1.07672 20.2756
0.755187 0.982988 21.7824
1.06981 0.882679 21.1917
0.1477 -0.112942 21.5768
0.412832 0.150537 21.6113
0.0335264 -0.375438 21.3354
0.0458578 -0.32091 21.3892
-0.0513651 -0.532048 20.946
-0.114868 -0.497031 20.9241
0.0135872 -0.341755 21.2122
0.945794 -0.594311 19.9338
0.62566 -0.291125 19.7659
0.837621 -0.769125 21.2782
1.65748 -0.948485 20.4284
0.0324307 -0.30712 21.5527
0.451413 -0.587853 21.4935
-0.550884 0.0186861 21.6177
-0.236845 -0.252951 21.6323
-1.04668 0.251754 21.3272
-1.03263 0.0500183 21.5275
-1.22432 0.183574 20.6203
-1.25745 -0.00251053 21.2713
-1.06427 -0.0689891 21.0875
1.32868 -0.501429 19.7198
0.800679 -0.114858 19.5838
1.24653 -0.821245 21.4397
2.46136 -0.354826 20.3467
0.164622 -0.522556 21.6466
0.937526 -0.673325 21.5366
-0.628321 -0.239493 21.7057
0.00258401 -0.550104 21.7462
-1.32126 -0.131148 21.2413
-1.04109 -0.619911 21.2961
-1.67497 -0.0909535 20.2685
-1.24644 -0.594533 21.3388
-1.22076 -0.918023 20.3357
1.62435 0.21068 19.6151
0.753274 0.335159 19.708
1.80747 -0.137218 21.2331
1.52364 0.718809 20.345
0.849061 -0.490666 21.7407
1.33477 0.262909 21.285
-0.191412 -0.617785 21.7496
0.450977 -0.159769 21.6914
-0.664557 -0.901612 21.4424
-0.108205 -0.537722 21.4173
-0.72986 -0.65046 21.2842
-0.27059 -0.646955 21.0845
-0.184374 -0.384501 21.3197
0.760358 0.5812 20.0759
0.973056 0.629272 20.7797
0.658105 0.26389 21.4357
0.130954 -0.176918 21.4015
-0.0731946 -0.374761 21.1915
-0.0590177 -0.334329 21.1962
-1.1216 -0.59536 19.831
-1.4068 -1.79773 18.5592
-1.09965 -1.03642 19.5917
-1.76796 -0.992329 19.0018
-0.657825 -0.445443 19.4722
-2.60534 -2.34961 20.2761
-1.03323 -0.81772 21.3715
-0.330031 -0.531659 18.603
-0.726741 -1.15974 21.6965
-1.1134 -1.46505 21.3508
-0.129778 -0.719844 21.5221
-0.0819082 -0.421782 21.5849
0.172542 0.131835 15.1851
0.143167 -0.281158 21.6795
0.135501 -0.423998 18.5517
0.520016 -0.0698482 20.8605
0.60789 -0.0925162 21.6747
0.511375 0.663655 13.31
0.732327 0.333564 21.415
0.812633 0.159785 17.0435
1.4417 0.74659 19.013
1.25065 0.118274 21.2315
1.05574 1.55464 13.2472
1.35065 0.796981 20.599
1.88316 0.438319 17.0494
1.70034 0.785385 18.9684
1.54354 0.0458395 20.3021
1.56549 1.30984 15.3711
1.37522 0.747569 20.8475
1.83254 0.0549805 19.0196
1.38344 0.478046 19.2336
-1.58316 -0.223725 19.5924
-2.71685 -0.662831 16.6372
-2.40148 0.482644 18.6403
-0.916963 -0.163997 19.1488
-5.61233 -0.61653 19.7683
-1.60948 -0.579303 21.4212
-2.84673 -0.387817 21.6693
-0.670315 -1.26042 19.36
-0.452373 -0.651305 21.7081
-1.32333 -0.967072 20.5519
0.261685 -0.224677 17.1845
0.514632 -0.532331 21.6691
0.482122 -0.24288 17.5284
1.33276 -0.256908 13.2244
1.24253 -0.636512 20.8177
0.426359 -0.690876 3.30512
0.683765 -0.975565 17.3427
1.84528 -0.648849 15.7275
1.0766 -0.53612 21.1385
1.89203 0.237747 9.33234
1.09916 -1.33336 19.1711
1.57472 -0.394283 16.9333
-1.20249 0.603507 19.8478
-1.49967 1.91871 18.7905
-0.822609 0.912713 19.873
-0.815343 0.532664 19.3657
-2.0181 1.5098 20.1419
-1.50931 0.501005 20.882
-2.24951 2.11968 20.5515
-1.09818 1.05398 20.7119
-2.08597 0.742244 21.3813
-0.927033 0.0305197 21.6202
-2.19719 1.10732 22.5159
-0.773868 0.527809 21.5747
-0.627612 -0.0883507 21.9704
-0.0706193 -0.375666 21.5836
-0.156531 -0.454662 20.8449
-0.156705 -0.163163 21.4745
-0.0403395 -0.631856 21.5452
0.234203 -0.6269 21.3055
-0.110626 -0.687215 20.0018
0.0341319 -0.401256 21.2409
0.205121 -0.833991 21.5236
0.485193 -0.577651 20.655
0.108482 -0.908591 19.57
0.0338781 -0.436403 21.3216
0.0957129 -0.643473 20.3863
1.4059 -1.76833 18.5949
0.0136229 -2.39148 18.6025
-0.0012933 -2.79204 16.1114
-0.00034051 -0.765916 18.808
-0.0011789 -6.2647 22.7392
0.3434 -0.550845 18.6904
0.00292171 -1.32055 22.4787
-0.00281046 -0.0650826 12.1214
-0.169204 0.129903 15.2191
-0.00368126 -0.0532211 20.4473
-0.000872025 0.244119 11.397
-0.500655 0.658569 13.1727
0.00266293 0.684648 17.8483
-0.00267822 0.815672 8.10504
-0.970708 1.58743 12.8638
0.00882928 1.43193 16.5858
-0.0146367 0.0980519 2.2809
0.00886823 1.88833 10.767
-1.54464 1.41639 15.2059
0.00863901 2.26415 17.2621
0.0760286 1.54894 5.71146
0.0865677 1.97384 14.1781
2.71973 -0.661652 16.6391
0.00129594 2.78239 13.6536
-0.000100458 -0.362226 17.9735
-0.349661 -0.687218 2.80055
-0.00464384 1.37527 -5.42094
0.107128 0.721444 -2.4604
-1.85985 0.353011 8.6167
-0.0437227 1.23365 -5.69818
0.118143 1.43926 2.13229
1.51486 1.87662 18.8094
0.0195785 1.66507 19.4656
0.005761 1.03497 18.5342
0.0321498 4.17926 19.5788
2.25598 2.09517 20.559
0.0148054 2.2224 20.4327
-0.00218469 5.12539 20.3361
2.22726 1.1632 22.539
-0.0269707 1.54918 22.0079
-0.0181941 0.516612 20.2515
0.119597 -0.446906 20.4624
-0.00782977 -0.0163582 21.586
-0.021007 -0.114454 14.6527
0.126166 -0.634737 19.2945
-0.00923888 -0.315289 21.3293
-0.0211293 -0.533651 16.2151
-0.0946903 -0.955656 19.2276
-0.0170609 -0.478837 20.9368
-0.00435073 -0.827569 17.3674
1.12527 -0.591436 19.8335
1.10381 -1.01621 19.6081
1.77522 -1.00025 18.9892
0.663391 -0.445861 19.475
2.58604 -2.30665 20.2806
1.03341 -0.812996 21.3658
0.740028 -1.1504 21.6805
1.11362 -1.46682 21.3313
0.148137 -0.728856 21.5761
0.0877027 -0.425734 21.5792
-0.137571 -0.287109 21.6756
-0.131453 -0.431546 18.6291
-0.514617 -0.0729642 20.881
-0.59885 -0.101333 21.6648
-0.729084 0.346875 21.371
-0.817549 0.146641 17.2288
-1.43684 0.762765 18.8908
-1.25024 0.114386 21.217
-1.34933 0.82845 20.567
-1.88033 0.449034 16.8019
-1.72896 0.857267 18.5912
-1.58437 0.0587903 20.2554
-1.37933 0.798647 20.8108
-1.84416 0.122837 18.4476
-1.42356 0.552097 18.8196
1.58816 -0.226335 19.5871
2.40313 0.483261 18.6361
0.917545 -0.164479 19.1465
5.65868 -0.621167 19.7533
1.61307 -0.58305 21.4235
2.85152 -0.394726 21.6559
0.667017 -1.26169 19.3388
0.451651 -0.647427 21.7072
1.33126 -0.964618 20.573
-0.258879 -0.245368 17.3211
-0.504309 -0.527266 21.6759
-0.472422 -0.26512 17.7216
-1.33607 -0.245462 13.4952
-1.2408 -0.639419 20.7901
-0.674779 -0.948857 16.8581
-1.88689 -0.669785 15.0856
-1.11173 -0.527331 21.0825
-1.11369 -1.32455 18.7078
-1.61351 -0.308947 16.4337
1.19526 0.592806 19.859
0.826676 0.884335 19.8847
0.817236 0.526059 19.3779
2.00617 1.46422 20.1507
1.50603 0.497342 20.8833
1.09535 1.03684 20.7152
2.09092 0.746667 21.3822
0.941486 0.0373002 21.6294
0.779435 0.548377 21.5879
0.640828 -0.0798653 21.991
0.0759999 -0.382557 21.5947
0.162554 -0.155328 21.4938
0.0567026 -0.63073 21.452
-0.220285 -0.634844 21.3014
-0.0206725 -0.412415 21.2858
-0.188252 -0.837153 21.6296
-0.516646 -0.581457 20.6342
-0.0338334 -0.468582 21.1711
-0.0763718 -0.706224 20.1365
-1.40713 -1.07992 19.3062
-0.876313 -1.35954 21.9581
0.196361 -0.389289 21.0831
0.880536 0.279385 19.8725
1.64807 0.807734 18.9857
1.60421 0.439566 19.9318
-2.32307 -0.381388 18.5588
-1.84017 -1.16574 21.4475
-0.126779 -0.790439 18.0001
0.650575 0.170779 15.7201
1.46941 -0.584194 14.7061
1.57003 -0.369905 16.4641
-1.47236 1.08406 19.4112
-2.04511 1.07523 20.8358
-1.42681 0.309255 21.9532
-0.174859 -0.426023 21.7787
0.0866817 -0.729302 21.3815
0.282635 -0.925029 21.351
0.010051 -2.75157 17.637
0.00378021 -0.483138 14.486
-0.00296698 0.0609459 11.2439
0.00126802 0.490623 9.53385
-0.00220442 0.930122 8.98638
0.0720886 1.78927 11.0855
0.000592395 -0.897239 13.9188
0.0113498 0.295184 -2.20786
0.138673 1.33914 1.88726
0.0240234 2.89481 18.0746
0.0129091 3.48518 20.045
-0.0252843 3.01535 22.3784
-0.0138947 -0.180005 17.0834
-0.0284082 -0.0810811 15.4896
-0.0148053 -0.674983 16.1098
1.40714 -1.07121 19.3167
0.901777 -1.355 21.9477
-0.186994 -0.399432 21.1579
-0.875438 0.282577 19.8298
-1.64266 0.848461 18.7332
-1.6116 0.496134 19.5009
2.32511 -0.383596 18.5524
1.83798 -1.1686 21.4193
0.12942 -0.8007 18.0702
-0.653423 0.143541 15.9137
-1.45926 -0.577663 14.3458
-1.59174 -0.347883 15.7663
1.46915 1.06701 19.4272
2.03674 1.06437 20.8383
1.45225 0.322383 21.9728
0.188657 -0.427645 21.7991
-0.0690572 -0.730762 21.3841
-0.231059 -0.925578 21.2074
0 0 0
-0.00241478 -0.181751 0.933993
-0.00867911 -0.00164162 0.0904676
0.0629851 -0.0382837 0.088152
0.00413074 0.104041 0.374093
-0.00744375 0.111016 0.649145
0 0 0
-0.00829497 0.0740351 0.172063
-0.0963097 0.0271278 0.312027
-0.0439824 -0.0796449 -0.00876691
-0.0136416 0.00131178 -0.0135167
-0.0263748 -0.0347891 0.102314
0.00411292 -0.181995 0.931983
0 0 0
0.00877429 -0.00169148 0.091104
-0.00648013 0.112757 0.39952
-0.0630015 -0.0393369 0.0877517
0.00772356 0.111519 0.6482
0.00837072 0.0746677 0.174053
0 0 0
0.0975985 0.0275752 0.316296
0.0133564 0.00144566 -0.0141169
0.0440176 -0.0795271 -0.00866681
0.0221291 -0.0182961 0.0566792
-0.000752537 0.00144895 0.154825
0.000375586 0.00038434 0.0175166
0 0 0
0 0 0
0.0156789 0.011318 0.366904
0.00117218 0.00349076 0.19821
0 0 0
0 0 0
-0.0209795 -0.0118402 0.0473254
-0.0029408 -0.00285011 0.109604
0 0 0
-0.0386981 0.0358939 0.0877963
0 0 0
0.000562212 0.00164087 0.00682957
0 0 0
0.0129544 -0.00136204 0.112788
0.000786488 0.00149163 0.156022
0 0 0
-0.000396 0.000392819 0.0178848
0 0 0
-0.015702 0.0112466 0.367742
0 0 0
-0.00116961 0.00349235 0.198295
0 0 0
0.0219951 -0.0124101 0.0493722
0.03922 0.0360915 0.0884257
0.00296227 -0.00288241 0.109697
0 0 0
0 0 0
-0.0128328 -0.00129725 0.110974
-0.000381158 0.00112481 0.00461665
0 0 0
-0.0131259 -0.00942654 0.119725
-0.246162 -0.0259394 0.0883758
-3.78132e-06 1.35835e-05 0.00892074
-2.56267e-05 -0.0481644 0.0217191
0 0 0
-1.24916e-06 -1.3908e-07 -0.00010557
0.00835115 -0.00825166 0.053856
-0.195418 -0.171602 0.0713962
0 0 0
-0.000400444 -0.0217958 -0.00350275
0.000890222 0.00423712 0.0481459
0 0 0
6.0234e-05 0.388517 0.263906
0.000104158 0.217349 0.587812
0.0019645 -0.0545839 0.552654
-0.00313956 0.00165807 0.0120503
0 0 0
0 0 0
0 0 0
-0.0020353 0.00033398 -0.00143601
0.248024 -0.0272332 0.089526
0.0130221 -0.00936334 0.118725
1.00908e-06 -1.25353e-07 -8.93247e-05
0 0 0
0.198453 -0.17702 0.0727003
-0.00768424 -0.00770563 0.0499009
0 0 0
-0.000848205 0.00404612 0.0458763
0.00236091 0.00125248 0.00911028
-0.00215719 -0.0519635 0.515948
0.00206417 0.000345592 -0.00147446
0 0 0
0 0 0
0 0 0
0 0 0
3.98537e-06 0.000686227 0.00560628
0 0 0
0 0 0
7.69792e-05 0.00209067 0.0184892
-0.00168611 0.00384247 0.0440508
1.09309e-07 4.09274e-07 3.11775e-05
-8.48534e-07 0.000135546 0.002251
0.000559895 0.00299886 0.0167675
-0.0373366 0.0359821 0.575507
0 0 0
-4.86128e-05 0.142986 0.37816
-2.13261e-06 0.00106554 0.0386649
-1.97916e-05 -0.00475902 0.0225037
0 0 0
5.18443e-05 0.000498831 0.00792832
0 0 0
-4.10378e-06 0.00069459 0.00567545
-7.93479e-05 0.00216317 0.0190727
0.00216101 0.00521404 0.0591564
0.0374467 0.0362567 0.57943
-0.000587068 0.00310444 0.0172871
0 0 0
-0.0244742 -0.0274055 0.288022
0 0 0
-0.00232495 -0.0221167 0.106075
7.07195e-20 -2.71466e-18 -7.61108e-17
0.000212405 0.00540277 0.04419
0.000165533 0.00241456 0.0548327
0 0 0
-0.000176847 0.00248034 0.061651
0 0 0
0 0 0
0 0 0
4.7629e-07 5.19808e-07 -5.81548e-05
-3.69149e-07 4.78525e-07 -6.11147e-05
0 0 0
0 0 0
0 0 0
0 0 0
4.27987e-05 2.29595e-05 0.0015496
-4.27591e-05 2.32023e-05 0.00156395
0.000434197 0.000461348 0.00774096
-0.000450829 0.000462486 0.00776428
2.09935e-05 0.000151833 0.00162862
-3.07651e-05 0.000199098 0.00214711
0 0 0
0 0 0