# vtk DataFile Version 2.0
tet_velo
ASCII
DATASET UNSTRUCTURED_GRID
POINTS 29498 float
-0.705796 0.335 -2.155
-0.715 0.445 2.22645
-0.725 0.604635 -2.205
-0.685 1.025 2.12421
0.705796 0.335 -2.155
0.715 0.445 2.22645
0.725 0.604635 -2.205
0.685 1.025 2.12421
-0.819964 0.260567 -0.694517
-0.828291 0.291975 0.765967
-0.84714 0.88023 -0.76193
-0.815681 1.00223 0.68114
0.819967 0.260563 -0.694517
0.828292 0.291973 0.765967
0.84727 0.88036 -0.76193
0.815763 1.00231 0.68114
-1.51368 -0.0310276 -3.28152
-1.52107 0.0383027 -2.12011
-1.59992 -0.00757153 -0.659175
-1.6091 -0.00847444 0.805264
-1.53497 0.0980785 2.26649
-1.51394 0.181882 3.42935
-1.52137 0.253329 4.58953
-1.50936 0.203776 -3.31278
-1.51624 0.311236 -2.15327
-1.61772 0.295629 -0.695725
-1.60852 0.308803 0.763388
-1.49542 0.412454 2.22127
-1.48753 0.494275 3.38388
-1.50802 0.564643 4.54463
-1.51835 0.599903 -3.37041
-1.53276 0.704023 -2.21018
-1.63594 0.89131 -0.764509
-1.6023 0.984465 0.679932
-1.47705 1.03023 2.12594
-1.47842 1.10749 3.28927
-1.50569 1.18305 4.45283
-1.5456 1.38082 -3.46996
-1.56033 1.51292 -2.31233
-1.59937 1.73232 -0.872305
-1.60909 1.90489 0.56397
-1.5805 1.9985 2.00418
-1.56064 2.05802 3.16218
-1.55535 2.12147 4.32384
-0.739513 -0.0190402 -3.28264
-0.72277 0.0557409 -2.12175
-0.794195 -0.0241874 -0.658955
-0.821837 -0.0218891 0.807465
-0.772238 0.11263 2.27034
-0.755577 0.19216 3.43196
-0.760673 0.258021 4.59104
-0.738743 0.204326 -3.31313
-0.733933 0.505893 3.38603
-0.750859 0.569502 4.54577
-0.745217 0.55996 -3.36826
-0.726531 1.10907 3.28893
-0.750214 1.18494 4.45276
-0.757315 1.35296 -3.46783
-0.761998 1.48632 -2.30999
-0.79692 1.72593 -0.870891
-0.82056 1.91184 0.563801
-0.810417 2.00314 2.00297
-0.795532 2.06003 3.16097
-0.789615 2.12276 4.32296
0.758924 -0.0190223 -3.28264
0.769502 0.05575 -2.12175
0.821754 -0.0241816 -0.658955
0.802719 -0.0218848 0.807465
0.729047 0.112634 2.27034
0.736596 0.192168 3.43196
0.748246 0.258034 4.59104
0.738037 0.204341 -3.31313
0.730171 0.505898 3.38603
0.745476 0.569514 4.54577
0.744424 0.55998 -3.36826
0.719476 1.10908 3.28893
0.739852 1.18496 4.45276
0.80191 1.353 -3.46783
0.815781 1.48638 -2.30999
0.811313 1.726 -0.870891
0.771018 1.91189 0.563801
0.732952 2.00318 2.00297
0.72976 2.06006 3.16097
0.73675 2.12279 4.32296
1.52562 -0.0309808 -3.28152
1.54092 0.0383451 -2.12011
1.61324 -0.00753166 -0.659175
1.60481 -0.00844762 0.805263
1.52062 0.0980947 2.26649
1.5048 0.181903 3.42935
1.51312 0.253357 4.58953
1.50366 0.203823 -3.31278
1.50761 0.311286 -2.15327
1.61478 0.295687 -0.695725
1.61567 0.308838 0.763388
1.50651 0.412465 2.22127
1.4921 0.494293 3.38388
1.50621 0.564671 4.54463
1.51218 0.599961 -3.37041
1.52378 0.704101 -2.21018
1.63136 0.891461 -0.764509
1.60692 0.984566 0.679931
1.48574 1.03026 2.12594
1.47898 1.10752 3.28927
1.49867 1.18309 4.45283
1.58082 1.38091 -3.46996
1.59901 1.51302 -2.31233
1.60763 1.73245 -0.872306
1.57009 1.90499 0.56397
1.51916 1.99858 2.00418
1.50462 2.05808 3.16218
1.50731 2.12152 4.32384
-0.736226 0.469818 -2.20083
0 0.283786 -2.20621
-0.791717 0.268947 -1.42476
-0.695711 0.735 2.17104
0 0.385643 2.28581
-0.84626 0.293873 1.49621
0 0.641948 -2.24231
-0.860781 0.817143 -1.48347
0 1.06943 2.16864
-0.789014 1.05229 1.40267
0.736261 0.469818 -2.20086
0.791753 0.26891 -1.42476
0.695905 0.735 2.17123
0.84624 0.293893 1.49621
0.860806 0.817169 -1.48347
0.789054 1.05233 1.40267
-0.801498 0.2989 0.035725
-0.873785 0.570398 -0.728223
1.7649e-06 0.217059 -0.694517
-0.877198 0.6471 0.723553
7.0596e-07 0.212847 0.765967
-0.830952 0.940769 -0.040395
6.50537e-05 1.12546 -0.76193
4.10089e-05 1.47622 0.68114
0.801498 0.2989 0.035725
0.873805 0.570462 -0.728223
0.877214 0.647141 0.723553
0.830945 0.940762 -0.040395
-0.887611 0.520108 -1.45411
-0.86708 0.608749 -0.00233501
-0.895275 0.69105 1.44944
8.8245e-07 0.245938 -1.42476
1.23543e-06 0.217521 0.035725
3.5298e-07 0.204464 1.49621
0 0.469818 -2.36722
0 0.735 2.27288
3.25268e-05 0.962374 -1.48347
5.30313e-05 1.45091 -0.040395
2.05044e-05 1.2932 1.40267
0.88761 0.52014 -1.45411
0.867101 0.608801 -0.00233501
0.895275 0.69107 1.44944
-1.11102 0.323118 -2.15414
-0.714283 0.19537 -2.13837
-0.72227 0.269663 -2.73406
-1.10521 0.428727 2.22386
-0.743619 0.278815 2.2484
-0.724467 0.475446 2.80624
-1.12888 0.654329 -2.20759
-0.735108 0.582298 -2.78663
-0.743499 1.04548 -2.25749
-1.08103 1.02761 2.12507
-0.705766 1.06704 2.70657
-0.747708 1.51407 2.06359
0.737649 0.195375 -2.13837
0.721917 0.26967 -2.73406
1.1067 0.323143 -2.15414
0.722024 0.278817 2.2484
0.722585 0.475449 2.80624
1.11076 0.428733 2.22386
0.734712 0.582308 -2.78663
0.77039 1.04551 -2.25749
1.12439 0.654368 -2.20759
0.702238 1.06704 2.70657
0.708976 1.51409 2.06359
1.08537 1.02763 2.12507
-1.21884 0.278098 -0.695121
-0.807079 0.11819 -0.676736
-1.21841 0.300389 0.764677
-0.825064 0.135043 0.786716
-1.24154 0.88577 -0.76322
-0.82203 1.30308 -0.816411
-1.20899 0.993346 0.680536
-0.818121 1.45703 0.62247
0.82086 0.118191 -0.676736
1.21737 0.278125 -0.695121
0.815506 0.135044 0.786716
1.22198 0.300406 0.764677
0.829292 1.30318 -0.816411
1.23932 0.885911 -0.76322
0.79339 1.4571 0.62247
1.21134 0.993437 0.680536
-1.51737 0.00363754 -2.70081
-1.51152 0.0863744 -3.29715
-1.1266 -0.0250339 -3.28208
-1.5605 0.0153656 -1.38964
-1.51866 0.17477 -2.13669
-1.12192 0.0470218 -2.12093
-1.60451 -0.00802299 0.0730445
-1.60882 0.144029 -0.67745
-1.19706 -0.0158794 -0.659065
-1.57203 0.044802 1.53588
-1.60881 0.150164 0.784326
-1.21547 -0.0151818 0.806364
-1.52446 0.13998 2.84792
-1.51519 0.255266 2.24388
-1.1536 0.105354 2.26842
-1.51766 0.217605 4.00944
-1.50074 0.338078 3.40661
-1.13476 0.187021 3.43066
-1.5147 0.408986 4.56708
-1.14102 0.255675 4.59029
-1.5128 0.257506 -2.73303
-1.51386 0.401839 -3.3416
-1.12405 0.204051 -3.31295
-1.56698 0.303433 -1.4245
-1.5245 0.50763 -2.18173
-1.61312 0.302216 0.0338312
-1.62683 0.593469 -0.730117
-1.55197 0.360628 1.49233
-1.60541 0.646634 0.72166
-1.49147 0.453364 2.80257
-1.48624 0.721341 2.1736
-1.49778 0.529459 3.96425
-1.48297 0.800884 3.33658
-1.11073 0.500084 3.38496
-1.50686 0.873849 4.49873
-1.12944 0.567073 4.5452
-1.52556 0.651963 -2.7903
-1.53198 0.99036 -3.42019
-1.13178 0.579931 -3.36934
-1.58435 0.797666 -1.48735
-1.54655 1.10847 -2.26126
-1.61912 0.937887 -0.0422889
-1.61765 1.31182 -0.818407
-1.53967 1.00735 1.40294
-1.60569 1.44468 0.621951
-1.47773 1.06886 2.70761
-1.52878 1.51436 2.06506
-1.49205 1.14527 3.87105
-1.51953 1.58276 3.22573
-1.10247 1.10828 3.2891
-1.53052 1.65226 4.38833
-1.12795 1.184 4.45279
-1.55297 1.44687 -2.89115
-1.15146 1.36689 -3.46889
-1.57985 1.62262 -1.59232
-1.16117 1.49962 -2.31116
-1.60423 1.8186 -0.154167
-1.19814 1.72913 -0.871598
-1.59479 1.95169 1.28408
-1.21483 1.90836 0.563886
-1.57057 2.02826 2.58318
-1.19546 2.00082 2.00357
-1.558 2.08974 3.74301
-1.17809 2.05902 3.16158
-1.17248 2.12211 4.3234
-0.731142 0.0183504 -2.7022
-0.739128 0.0926428 -3.29789
0.00970525 -0.0190312 -3.28264
-0.758482 0.0157768 -1.39035
0.0233661 0.0557454 -2.12175
-0.808016 -0.0230383 0.0742551
0.0137793 -0.0241845 -0.658955
-0.797037 0.0453705 1.5389
-0.00955905 -0.021887 0.807465
-0.763907 0.152395 2.85115
-0.0215951 0.112632 2.27034
-0.758125 0.225091 4.0115
-0.744755 0.349027 3.409
-0.00949051 0.192164 3.43196
-0.755766 0.413761 4.56841
-0.00621357 0.258027 4.59104
-0.74198 0.382143 -3.34069
-0.000352897 0.204333 -3.31313
-0.742396 0.537697 3.9659
-0.730232 0.807483 3.33748
-0.00188132 0.505895 3.38603
-0.750536 0.877223 4.49926
-0.00269172 0.569508 4.54577
-0.751266 0.956458 -3.41804
-0.000396541 0.55997 -3.36826
-0.738372 1.14701 3.87084
-0.761031 1.58455 3.22495
-0.00352781 1.10908 3.28893
-0.769914 1.65385 4.38786
-0.00518101 1.18495 4.45276
-0.759657 1.41964 -2.88891
0.0222973 1.35298 -3.46783
-0.779459 1.60613 -1.59044
0.0268914 1.48635 -2.30999
-0.80874 1.81888 -0.153545
0.00719689 1.72596 -0.870891
-0.815488 1.95749 1.28338
-0.0247711 1.91187 0.563801
-0.802974 2.03158 2.58197
-0.0387326 2.00316 2.00297
-0.792573 2.09139 3.74197
-0.0328859 2.06004 3.16097
-0.0264326 2.12277 4.32296
0.764213 0.0183638 -2.7022
0.748481 0.0926592 -3.29789
1.14227 -0.0250016 -3.28208
0.795628 0.0157842 -1.39035
1.15521 0.0470475 -2.12093
0.812236 -0.0230332 0.0742551
1.21749 -0.0158566 -0.659065
0.765883 0.0453745 1.5389
1.20377 -0.0151662 0.806364
0.732822 0.152401 2.85115
1.12483 0.105364 2.26842
0.742421 0.225101 4.0115
0.733383 0.349033 3.409
1.1207 0.187035 3.43066
0.746861 0.413774 4.56841
1.13068 0.255696 4.59029
0.74123 0.38216 -3.34069
1.12085 0.204082 -3.31295
0.737823 0.537706 3.9659
0.724823 0.80749 3.33748
1.11114 0.500096 3.38496
0.742664 0.877236 4.49926
1.12584 0.567093 4.5452
0.773167 0.956491 -3.41804
1.1283 0.579971 -3.36934
0.729664 1.14702 3.87084
0.724618 1.58457 3.22495
1.09923 1.1083 3.2891
0.738301 1.65387 4.38786
1.11926 1.18402 4.45279
0.808845 1.41969 -2.88891
1.19136 1.36696 -3.46889
0.813547 1.60619 -1.59044
1.20739 1.4997 -2.31116
0.791166 1.81895 -0.153545
1.20947 1.72922 -0.871598
0.751985 1.95754 1.28338
1.17055 1.90844 0.563885
0.731356 2.03162 2.58197
1.12605 2.00088 2.00357
0.733255 2.09142 3.74197
1.11719 2.05907 3.16158
1.12203 2.12215 4.3234
1.53327 0.00368212 -2.70081
1.51464 0.0864212 -3.29715
1.57708 0.0154067 -1.38964
1.52426 0.174816 -2.13669
1.60902 -0.00798964 0.0730444
1.61401 0.144078 -0.67745
1.56272 0.0448235 1.53588
1.61024 0.150195 0.784325
1.51271 0.139999 2.84792
1.51356 0.25528 2.24388
1.50896 0.21763 4.00944
1.49845 0.338098 3.40661
1.50966 0.409014 4.56708
1.50563 0.257555 -2.73303
1.50792 0.401892 -3.3416
1.56119 0.303487 -1.4245
1.51569 0.507694 -2.18173
1.61522 0.302263 0.0338311
1.62307 0.593574 -0.730117
1.56109 0.360652 1.49233
1.6113 0.646702 0.721659
1.49931 0.453379 2.80257
1.49612 0.721362 2.1736
1.49916 0.529482 3.96425
1.48554 0.800907 3.33658
1.50244 0.87388 4.49873
1.51798 0.652031 -2.7903
1.5465 0.990436 -3.42018
1.57757 0.797781 -1.48735
1.56139 1.10856 -2.26126
1.61914 0.938014 -0.042289
1.6195 1.31195 -0.818407
1.54633 1.00741 1.40294
[...]
POINT_DATA 29498
VECTORS point_vectors float
-2.24882 -3.37415 4.52272
0.123214 0.0274294 0.289257
-1.2671 0.614237 1.56157
-0.128039 -0.145116 0.115968
2.27547 -3.40834 4.53049
-0.123959 0.0246517 0.287181
1.25586 0.610921 1.5492
0.127184 -0.140551 0.108719
0.157904 -0.0578769 1.46677
-0.0655138 -0.36079 1.00403
-0.0446663 -0.0629922 0.24955
0.000617612 0.00162364 0.00507796
-0.159358 -0.0589643 1.46376
0.0770182 -0.361337 1.01941
0.0463786 -0.0652372 0.258546
-0.000801867 0.00211092 0.00661137
-0.604445 -0.262462 19.847
-1.34563 -0.682456 20.4588
-0.490613 -0.419811 21.3417
0.0127363 -0.180622 21.5867
0.807549 0.104295 21.5522
1.08573 0.162238 21.2607
1.09871 -0.173455 21.1545
-0.621979 -0.191614 19.7383
-1.68579 -0.537404 20.3555
-0.621282 -0.481638 21.386
-0.034775 -0.287423 21.6522
0.964581 -0.138428 21.6258
1.33487 -0.263795 21.4619
1.32372 -0.395612 21.2032
-0.625472 -0.0259227 19.7055
-1.79114 -0.0380657 20.1751
-1.16195 -0.321385 21.2954
-0.387578 -0.371416 21.7006
0.525048 -0.621117 21.651
0.90454 -0.755111 21.3658
0.763788 -0.393342 21.3322
-0.461243 0.198411 19.8187
-1.03445 0.527372 20.125
-1.10162 0.39292 20.9849
-0.510265 0.0431248 21.5174
0.0162674 -0.288383 21.5195
0.293319 -0.490242 21.4694
0.346281 -0.61183 20.5541
-0.568313 -0.538735 19.2272
-2.3261 -4.08298 20.8914
-0.437055 -0.447732 20.8979
0.0817913 -0.157367 19.3816
1.08115 1.42823 15.3105
1.92992 1.75544 16.3384
2.0456 1.30033 15.9867
-0.621157 -0.406292 19.0544
2.36416 0.720199 11.2586
2.46056 1.04343 13.3145
-0.617643 -0.0654213 19.0242
1.01065 -1.09443 9.16985
1.3018 -1.13912 15.4028
-0.421792 0.415566 19.3879
-1.36482 1.82825 19.4672
-1.76647 1.77024 20.7349
-0.798186 0.537788 22.0832
-0.140646 -0.328432 21.571
0.0573023 -0.636752 21.3307
0.00747241 -0.540252 20.6512
0.578777 -0.518783 19.2483
2.4549 -3.77915 20.7635
0.44418 -0.433074 21.0259
-0.0953909 -0.154165 19.1757
-0.935472 1.42034 14.4277
-1.91868 1.77803 16.2148
-2.04366 1.3003 15.8208
0.62542 -0.405939 19.0517
-2.35945 0.71213 11.117
-2.45404 1.04084 13.2106
0.617777 -0.0649066 19.0266
-0.933089 -1.08373 8.72638
-1.2992 -1.10413 15.2475
0.433178 0.405938 19.4003
1.37099 1.68924 19.5422
1.77138 1.72498 20.7509
0.789589 0.595799 22.1222
0.178553 -0.294932 21.6283
-0.0283571 -0.624353 21.4243
-0.026311 -0.540895 20.7519
0.602756 -0.25983 19.8536
1.30717 -0.657273 20.4699
0.486621 -0.417996 21.3347
-0.0114601 -0.18429 21.5799
-0.814817 0.115048 21.5622
-1.08545 0.155156 21.2636
-1.10436 -0.14941 21.1607
0.627143 -0.198651 19.7322
1.71772 -0.55037 20.3509
0.621723 -0.484894 21.391
0.0354617 -0.286529 21.6543
-0.93568 -0.142591 21.6237
-1.3241 -0.266332 21.4587
-1.33139 -0.384036 21.1931
0.627554 -0.0251805 19.7079
1.827 -0.0379431 20.1714
1.16572 -0.324388 21.2995
0.382854 -0.36803 21.7021
-0.510444 -0.602427 21.6259
-0.890969 -0.740455 21.3649
-0.769912 -0.399166 21.2648
0.455327 0.190833 19.8398
1.00953 0.494309 20.1463
1.09189 0.386769 20.9853
0.527622 0.046081 21.5322
0.0058748 -0.298629 21.5287
-0.287154 -0.48686 21.4647
-0.290911 -0.648821 20.6315
-1.25 -0.403164 1.54081
0.00178417 -0.111941 0.201246
-0.0114417 0.000518432 0.169079
0 0 0
-0.00173384 -0.00593239 -0.00795449
0.00515583 0.0261927 0.537404
0 0 0
-0.241435 -0.151307 1.11325
-0.00134473 0.0255807 -0.061917
0.00164009 0.00157248 0.0154168
1.24858 -0.40112 1.53884
0.0115863 0.000542985 0.171028
0 0 0
-0.00533442 0.0257542 0.535893
0.242137 -0.152467 1.12179
-0.00185648 0.0017966 0.0174037
0.00390008 0.00656953 0.395581
0 0 0
-3.10087e-05 -0.00280256 0.0557769
0 0 0
0 0 0
0.00813936 0.0288327 0.118239
-1.87277e-06 0.00101624 0.00187983
-2.161e-05 -0.000434562 0.0235668
-0.0039382 0.00656818 0.395541
0 0 0
0 0 0
-0.00806661 0.0288334 0.116921
-3.14843e-05 -0.000108128 0.00164372
0 0 0
0.00285168 0.00475251 0.128525
-9.43087e-05 -0.00120506 0.0344871
-7.9334e-06 -0.000194461 0.0305799
9.97541e-08 -2.11069e-07 0.000108022
-0.0506313 -3.63487 3.30756
0 0 0
5.82874e-05 0.000811316 0.00533774
-7.47512e-06 0.0217778 0.140233
-1.09935e-05 0.00103531 -0.00193163
3.09102e-05 -0.000106233 0.00161318
9.87277e-19 -1.75907e-17 -1.01908e-16
-0.00291406 0.00470606 0.128826
-3.41018 -1.47492 20.1287
-3.87859 -6.63757 21.1239
-1.87928 -1.37426 17.7769
1.73345 0.138397 18.6723
1.13605 0.956323 6.75206
1.50523 0.207438 6.58156
-3.75374 0.0569543 19.5843
-1.94369 -0.0674214 17.5028
-3.24752 3.20603 18.4311
0.716489 -0.684233 17.6997
-0.544201 -0.742725 3.24335
0.124229 -0.532004 16.7835
4.05715 -6.37621 20.8891
1.88216 -1.37307 17.7744
3.44819 -1.50737 20.1258
-1.02636 0.920805 5.98485
-1.48095 0.169426 6.47658
-1.71252 0.113264 18.7334
1.94344 -0.0667739 17.5023
3.25434 3.03003 18.5186
3.78809 0.0624198 19.5695
0.578233 -0.729508 3.03049
-0.141194 -0.51476 15.6629
-0.707891 -0.702002 17.7888
-0.424484 -0.722394 21.7062
-0.312002 -0.0245691 13.9506
0.0560092 -0.305812 21.0751
0.400086 -0.651535 12.2743
-1.81775 -0.902718 21.5038
-3.83891 1.61245 20.3891
-0.562887 -0.685715 21.0035
-0.719923 0.312075 18.351
0.330456 -0.00561337 14.5947
0.4239 -0.722378 21.7021
-0.429492 -0.68999 11.8612
-0.0545579 -0.309636 21.1074
3.81042 1.56732 20.4559
1.82353 -0.910116 21.4971
0.51768 0.426639 16.9645
0.562411 -0.684167 21.0301
-1.02746 -0.502491 19.9752
-0.620038 -0.228638 19.7962
-0.650932 -0.421325 19.5661
-0.941276 -0.587976 21.1314
-1.51873 -0.631616 20.4082
-2.09202 -1.67025 20.4751
-0.210972 -0.299613 21.4736
-0.549974 -0.437531 21.3635
-0.415166 -0.496389 21.5784
0.374247 -0.0215897 21.6553
-0.000555884 -0.225212 21.6063
0.0454673 -0.156623 21.695
1.03195 0.154969 21.4111
0.920695 -0.000439921 21.6174
1.3162 0.595878 21.3018
1.21202 0.150795 20.621
1.23115 0.00609852 21.2975
1.61431 0.721205 20.801
1.23989 -0.240535 21.2909
1.49306 0.513049 20.0391
-1.16589 -0.35965 19.8074
-0.630388 -0.114099 19.7168
-0.676999 -0.309612 19.4362
-1.20706 -0.554103 21.1608
-1.75541 -0.306063 20.272
-0.297714 -0.400788 21.5065
-0.861059 -0.492634 21.3487
0.406946 -0.206362 21.7891
-0.170577 -0.379418 21.7023
1.15498 -0.133877 21.4899
0.857889 -0.454201 21.641
1.27693 -0.00858895 21.0414
1.19117 -0.420105 21.3491
2.17248 0.156641 19.4737
1.04363 -0.395671 21.2684
1.91385 0.265857 17.3112
-1.17816 -0.0301742 19.7202
-0.581688 0.111157 19.7481
-0.720019 -0.0504454 19.3773
-1.59695 -0.173973 20.9909
-1.46452 0.372069 20.1126
-0.798626 -0.401468 21.576
-1.31272 0.0761768 21.1319
0.0566105 -0.429541 21.7839
-0.547597 -0.135629 21.6578
0.725184 -0.706148 21.5137
0.167202 -0.472774 21.505
0.770028 -0.57573 21.4445
0.464377 -0.576924 21.2677
1.20311 -0.959846 18.7777
0.438745 -0.506256 21.1401
1.31012 -1.13903 18.7188
-0.757916 0.372669 19.8922
-0.484599 0.278738 19.6305
-1.16303 0.510241 20.6267
-1.31955 1.01214 19.8631
-0.891551 0.236303 21.3534
-1.52107 0.856968 20.9531
-0.210895 -0.146024 21.5515
-0.683173 0.203884 21.768
0.145671 -0.441198 21.2896
-0.0681844 -0.357476 21.5374
0.289867 -0.515289 20.9622
0.207775 -0.51084 21.0984
0.0564764 -0.398766 21.9061
-1.42547 -1.7153 18.7462
-0.594409 -0.473817 19.1377
0.00842534 -0.748967 18.8793
-0.826992 -1.2556 21.5591
0.0698074 -5.47942 22.0032
-0.140691 -0.127622 19.6821
0.00463699 -0.678893 18.2332
0.414409 0.492367 17.2181
-0.00118167 -0.167458 15.3409
1.44721 1.45456 15.8907
-0.00933237 0.758263 8.96549
1.76694 1.33547 15.6577
2.31057 1.55234 13.9953
-0.00851256 1.88829 10.2047
2.28252 1.29077 14.2222
0.036697 1.81475 13.8627
-0.629824 -0.236081 19.0166
-0.000578973 -0.537083 18.6425
2.54891 1.02563 13.1027
2.02652 -0.814692 6.40769
0.0094132 0.326014 -1.21273
1.98793 -0.133846 14.4439
0.0312749 1.87911 8.39084
-0.541797 0.229443 19.1388
0.00077911 -0.0934485 18.4997
1.30388 -1.13666 11.1595
0.308395 -1.09869 18.869
0.042508 1.46039 -5.61773
0.220703 -1.16463 17.6785
0.0346462 1.09704 0.453508
-0.838534 0.961572 19.1539
0.0188378 0.510754 19.1539
-1.52343 1.81259 20.3729
0.0717777 2.77884 19.0685
-1.67003 1.51652 21.7812
0.0259703 3.3042 20.1797
-0.319034 -0.0756164 21.8728
-0.0390486 1.21998 22.5554
-0.0573465 -0.461646 21.483
-0.0387684 -0.00357727 21.8659
0.0724721 -0.729588 21.6252
-0.00234644 -0.461225 21.788
-0.0087789 -0.369169 22.3798
1.4392 -1.64514 18.8453
0.601606 -0.464709 19.1454
0.648549 -0.412843 19.5705
0.869875 -1.25848 21.793
2.02367 -1.55081 20.466
0.141621 -0.124771 19.7035
0.422954 -0.49919 21.5598
-0.376189 0.474263 16.5156
-0.0427602 -0.155421 21.6764
-1.38865 1.48492 15.386
-1.32115 0.642157 21.2133
-1.75533 1.37614 15.5797
-2.30929 1.56745 13.7156
-1.63132 0.760973 20.6243
-2.28433 1.29723 14.0811
-1.51486 0.5358 19.9273
0.6325 -0.236147 19.0145
0.682012 -0.312245 19.4318
-2.55743 1.04175 12.9487
-1.96946 -0.813274 6.06293
-2.15499 0.149148 19.4719
-1.97856 -0.117638 14.3181
-1.91477 0.272794 17.254
0.548248 0.226943 19.153
0.721299 -0.0495199 19.3781
-1.27465 -1.14687 10.8033
-0.225546 -1.07105 18.065
-1.19216 -0.953771 18.708
-0.209155 -1.18625 17.3963
-1.30303 -1.15343 18.649
0.856619 0.936832 19.1849
0.488118 0.275987 19.6488
1.54838 1.74633 20.3883
1.30461 0.937569 19.8962
1.67322 1.56929 21.7907
1.50678 0.841474 20.9573
0.32531 -0.0612654 21.9096
0.69913 0.238646 21.7971
0.0890249 -0.441492 21.5408
0.0764555 -0.342674 21.555
-0.0555048 -0.723159 21.6285
-0.198785 -0.497456 21.0236
-0.0427105 -0.43073 22.0413
1.01022 -0.492939 19.9968
0.621611 -0.23048 19.7975
0.933977 -0.580249 21.1229
1.50865 -0.623949 20.4107
0.209697 -0.300999 21.4748
0.549573 -0.437306 21.3613
-0.378237 -0.0244225 21.666
0.00199117 -0.2279 21.6041
-1.03491 0.161813 21.4133
-0.915397 -0.00298479 21.6162
-1.24285 0.1654 20.5978
-1.22041 0.0075003 21.2981
-1.24257 -0.223213 21.3044
1.17794 -0.366789 19.7982
0.634808 -0.119357 19.7171
1.21274 -0.559408 21.1686
1.79053 -0.310856 20.271
0.299029 -0.400401 21.5078
0.862728 -0.494931 21.3564
-0.399856 -0.210889 21.7773
0.169972 -0.37893 21.6989
-1.13647 -0.142478 21.4982
-0.838575 -0.450125 21.6473
-1.27244 -0.0115397 21.0342
-1.19833 -0.431261 21.358
-1.05048 -0.392663 21.2297
1.18981 -0.0288557 19.7135
0.577199 0.109669 19.7614
1.60805 -0.176045 20.9979
1.44686 0.360858 20.1238
0.799182 -0.400506 21.5736
1.30956 0.0766015 21.1302
-0.0562501 -0.428589 21.7777
0.554919 -0.14236 21.6682
-0.714123 -0.703868 21.4941
-0.149131 -0.481644 21.5425
-0.746207 -0.560286 21.4243
-0.451189 -0.585143 21.3318
-0.411419 -0.501302 21.2459
0.737635 0.355955 19.9157
1.14791 0.494259 20.6328
0.906894 0.242401 21.3565
0.221812 -0.151663 21.542
-0.133329 -0.434139 21.2823
-0.232952 -0.528859 21.0217
-1.1044 -0.438457 19.8806
-1.62134 -1.61562 18.3086
-1.33392 -0.978189 19.5271
-1.61658 -0.668809 19.1638
-0.67668 -0.386323 19.5252
-2.72839 -1.69164 20.3318
-1.05722 -0.59115 21.1609
-0.476623 -0.594424 14.4862
-1.0439 -0.995306 21.5304
-1.4787 -1.06222 21.8411
-0.398854 -0.563699 21.6345
-0.243716 -0.340252 21.4872
0.125977 -0.00592894 12.1476
-0.130692 -0.283391 21.6026
-0.0269201 -0.502256 21.1958
0.0580938 -0.232862 21.4746
0.420987 -0.117701 21.7407
0.0644497 0.268723 8.02456
0.591663 0.206934 21.7435
0.733872 -0.00474517 20.4841
1.60263 0.432417 20.1922
1.12067 0.0340707 21.4179
1.72894 1.09653 11.0379
1.5558 0.665267 20.8502
1.91587 0.0779392 18.9731
1.93031 0.475237 19.6194
1.27953 0.110047 20.8163
2.24441 1.21139 14.1641
1.59516 0.413336 20.8089
2.05043 -0.0106539 20.1367
1.72659 0.501381 18.2648
-1.19167 -0.207919 19.7452
-1.97462 -0.769386 17.5426
-1.70443 -0.0620004 18.9815
-0.72981 -0.168821 19.3745
-3.8077 -0.760795 19.8297
-1.41733 -0.425438 21.1005
-2.52432 -0.390147 21.4685
-0.887168 -1.08178 21.6126
-0.498855 -0.471002 21.5426
-1.20248 -0.977293 21.5237
-0.057494 -0.50976 20.4141
0.286201 -0.349189 21.8598
0.195228 -0.466878 19.7929
1.34911 -0.384837 16.7944
1.04292 -0.517384 21.5095
0.216214 -0.803378 3.27675
0.824847 -0.910148 18.7336
1.74588 -0.676478 17.4278
0.983923 -0.44131 21.4226
2.24997 -0.0612947 9.452
1.39597 -1.10956 19.2657
1.58959 -1.03376 18.5583
-1.0091 0.258887 19.7566
-1.3709 0.903458 18.3615
-0.869208 0.610269 19.5652
-0.615967 0.17663 19.4764
-2.36736 1.07685 19.6228
-1.49023 0.259272 20.766
-2.9702 2.10597 20.8056
-1.47168 1.01645 20.5135
-2.15312 0.307758 21.1622
-0.991923 -0.0593191 21.5069
-3.39711 0.259955 20.7962
-1.27473 0.605399 21.5442
-0.87086 -0.127566 22.0512
-0.145297 -0.298933 21.6615
0.321836 -0.193739 17.2419
-0.268871 -0.134733 21.7131
0.0170847 -0.651724 21.6768
0.346946 -0.586846 21.4619
0.125802 -0.754967 18.4898
0.050618 -0.463027 21.4325
0.362135 -0.877887 21.5093
0.521427 -0.677815 21.0911
0.299723 -1.14201 18.6499
0.134472 -0.554282 21.8381
0.273348 -0.695426 20.5884
1.6293 -1.57221 18.3574
0.0524882 -2.70953 17.8766
-0.000892455 -2.31826 16.2376
0.00630562 -0.649657 18.7498
0.00870582 -6.10213 20.7299
0.519659 -0.62156 15.3849
0.0109946 -1.35789 19.9225
-0.00644052 -0.28039 9.36802
-0.124794 -0.00460254 12.224
-0.00234209 -0.306784 16.315
0.00108396 -0.070529 7.06609
0.00425116 0.20487 7.03135
0.00196117 0.158753 11.9618
-0.0183144 0.147751 1.31256
-1.67191 1.07346 10.5145
-0.0263199 0.67835 8.86876
-0.0144345 -0.307484 -0.397893
-0.00466515 1.46256 4.37109
-2.26936 1.25075 13.9095
0.0245215 2.14594 10.8393
0.0348515 1.80073 2.72862
0.0315753 1.83557 11.8131
1.97602 -0.769197 17.5401
-0.000807925 0.0385636 15.524
7.66601e-05 -0.312604 18.5327
-0.170112 -0.825364 3.12664
0.00947732 0.960221 -4.69183
0.0699646 1.52232 -2.70455
-2.21374 -0.0562817 9.14087
0.0249255 1.3188 -4.2516
0.0537383 2.10478 -0.654756
1.38498 0.88412 18.4162
0.0350006 1.39068 18.693
0.00824454 0.348048 18.7484
0.0641377 6.0791 17.2772
2.96 2.0165 20.8045
0.0373378 2.82399 20.1185
0.020781 4.61938 17.3484
3.42296 0.239787 20.5758
-0.0273493 3.39559 22.1631
0.00496031 0.285828 9.9184
-0.459232 -0.148137 15.7712
-0.0352188 0.230306 21.9127
-0.0601732 0.117647 5.17187
-0.0575026 -0.717419 17.5377
-0.0235976 -0.187532 21.8832
-0.0549052 -0.378017 9.28727
-0.272288 -1.12845 18.2124
-0.00137501 -0.572852 21.964
0.00286419 -1.04698 14.4261
1.09892 -0.437669 19.8865
1.32001 -0.947076 19.5549
1.62376 -0.671868 19.1565
0.680011 -0.384959 19.5231
2.66443 -1.63252 20.3338
1.05489 -0.589536 21.1586
1.04897 -0.971297 21.4938
1.4814 -1.06741 21.8521
0.407515 -0.567006 21.6329
0.243912 -0.339629 21.4901
0.132794 -0.284622 21.6048
0.029529 -0.503336 21.2024
-0.0568598 -0.231419 21.4458
-0.415443 -0.12079 21.7353
-0.59463 0.229567 21.668
-0.730929 -0.0156401 20.575
-1.60765 0.456021 19.9805
-1.1079 0.029973 21.426
-1.5788 0.702245 20.6833
-1.89412 0.0645061 19.0097
-1.92727 0.495286 19.5268
-1.29115 0.113488 20.8029
-1.62645 0.409703 20.781
-2.05582 -0.00509123 20.0997
-1.73575 0.517188 18.1723
1.20383 -0.212949 19.7426
1.70708 -0.0622436 18.9769
0.732037 -0.169075 19.3765
3.86092 -0.769538 19.8133
1.42452 -0.428123 21.1126
2.53694 -0.392892 21.4792
0.8846 -1.0888 21.6095
0.499792 -0.470502 21.5467
1.20153 -0.976205 21.5178
0.0586309 -0.51953 20.487
-0.285459 -0.348957 21.8518
-0.186772 -0.469944 19.8471
-1.33951 -0.396541 16.9528
-1.02877 -0.516891 21.5137
-0.811951 -0.903347 18.7291
-1.73773 -0.687783 17.367
-0.96153 -0.412382 21.4019
-1.3862 -1.12779 19.1526
-1.59448 -1.01929 18.4957
1.00059 0.250721 19.7671
0.855765 0.564717 19.5994
0.612724 0.166819 19.4893
2.31076 1.01815 19.6607
1.47751 0.254397 20.7661
1.44996 0.964573 20.5248
2.13519 0.304476 21.1608
1.00331 -0.0623582 21.508
1.29521 0.624399 21.5553
0.889546 -0.122279 22.0749
0.154663 -0.303511 21.6681
0.279962 -0.123144 21.7308
0.00157398 -0.660425 21.6749
-0.345843 -0.595074 21.4293
-0.0522481 -0.460954 21.4315
-0.364629 -0.907745 21.5368
-0.590013 -0.693986 20.9859
-0.131459 -0.60843 21.9033
-0.260063 -0.726326 20.3443
-1.47277 -0.856999 19.3461
-1.24358 -1.04725 21.6653
-0.0656822 -0.356749 21.4713
0.706339 0.119203 21.2406
1.78684 0.460975 20.2049
2.07064 0.219048 20.1285
-1.71746 -0.36458 19.0129
-1.98534 -0.920352 21.837
-0.330593 -0.901595 20.8291
0.552316 -0.192017 19.3457
1.51062 -0.611725 18.0222
1.8471 -0.640326 18.5286
-1.297 0.508422 19.2212
-2.29044 0.755188 20.83
-1.75572 0.0559333 21.8513
-0.237712 -0.393408 21.9324
0.177815 -0.766938 21.4796
0.678852 -1.02097 20.9142
0.0254505 -2.67426 17.0609
-0.00945276 -0.394492 8.99232
-0.00234218 -0.0782902 7.40893
-4.45713e-05 0.00702 3.2207
-0.0114976 -0.0265886 2.63533
0.0227381 1.97745 6.50134
-0.000857818 -1.06659 15.7701
0.013373 0.393334 -2.0158
0.0773616 1.70753 -0.737443
0.0265931 1.55903 17.2586
0.0353862 3.90273 20.0189
-0.0115389 2.39343 11.7192
-0.0151386 -0.0836772 6.92248
-0.066091 0.115797 7.21431
-0.0282401 -0.761351 10.7918
1.46647 -0.847978 19.3628
1.24298 -1.03245 21.6309
0.0691452 -0.358695 21.4725
-0.706365 0.12659 21.1587
-1.79835 0.473792 20.1229
-2.08319 0.218894 20.1003
1.72383 -0.364447 19.0075
1.98939 -0.928602 21.8548
0.331594 -0.902754 20.8437
-0.55154 -0.21262 19.4778
-1.48836 -0.613002 18.0372
-1.8535 -0.635086 18.4422
1.28472 0.48746 19.2532
2.26359 0.731304 20.8264
1.77618 0.0610694 21.8579
0.242639 -0.395162 21.9388
-0.155572 -0.763504 21.4614
-0.6385 -1.07994 21.0228
-1.32171 -0.525013 1.45945
-0.00061249 -0.0453143 0.185232
-0.0260723 -0.157159 0.949674
0.0518421 -0.0575267 0.10111
-0.0104483 -0.0151694 -0.014007
0.0393256 0.0101764 0.203995
-0.396924 -0.0512707 0.46714
0 0 0
-0.399628 0.0467125 1.21043
-0.00918626 -0.0466727 0.00108668
-0.0423122 0.0286665 -0.0681756
-0.0410462 -0.0841253 0.382119
0.000433238 -0.043506 0.178662
1.40113 -0.552272 1.53876
0.0247717 -0.146718 0.889831
0.00872235 -0.015141 -0.0139508
-0.0516357 -0.0592395 0.100282
-0.0369597 0.00935432 0.190692
0 0 0
0.392542 -0.0508033 0.46199
0.403661 0.047502 1.22257
0.0393196 0.031339 -0.0737584
0.0101213 -0.0469737 0.000358321
0.0399445 -0.0826631 0.379509
0 0 0
0.022771 -0.0116826 0.501105
-3.50276e-18 2.90233e-18 -5.29032e-17
0 0 0
0.00916973 0.0172136 0.682343
-0.00175415 0.00253403 0.0668027
0 0 0
0 0 0
-0.0294761 -0.0633379 0.229027
1.7515e-05 -4.56544e-05 0.00058398
-0.000663127 0.00726073 0.147629
-0.0295128 0.00724811 0.0250085
0 0 0
0.000269593 0.00413216 0.0139696
0.00365035 0.00951716 0.0302199
0.0142132 0.00411527 0.179764
0 0 0
-1.09385e-19 8.69431e-20 -3.33149e-17
-0.0227861 -0.0117048 0.50061
0 0 0
-0.00886884 0.016981 0.681989
0 0 0
0.00162498 0.00231624 0.0621858
0 0 0
0.0291612 -0.0627981 0.226723
0.0289067 0.00717162 0.0247663
-1.83689e-05 -4.84783e-05 0.000615811
0.000644091 0.00730788 0.148047
0 0 0
-0.0143383 0.00417762 0.180197
-0.000351435 0.00484293 0.0163295
-0.00363834 0.00948983 0.0300527
-0.0428547 -0.0150267 0.210751
-0.560016 -1.18149 1.34065
1.79098e-06 7.40399e-06 -0.000260074
0 0 0
-4.46361e-05 -0.000155222 0.0030276
0.00166637 -0.000949172 0.0225852
0 0 0
0 0 0
2.96614e-05 0.00278864 0.0152108
-5.68456e-05 -0.00202077 -0.000327266
0.00186074 0.00056203 0.0288024
9.56021e-06 9.15147e-07 0.000926551
-0.000572624 0.043374 0.117432
1.87887e-05 0.0109594 0.0522128
-2.3158e-05 -6.4927e-05 0.000673019
-0.00684732 0.00434463 0.0305383
-0.000206141 -0.00167196 -0.000230858
0 0 0
0.00337903 0.00347181 0.0698702
-0.00252237 0.000652883 -0.00190973
0.647984 -1.08854 1.0808
0.0456448 -0.0161129 0.224299
-0.00163083 -0.000941563 0.0224839
4.45492e-05 -0.000155637 0.00303022
0 0 0
0 0 0
-1.14157e-05 1.01827e-06 0.00105029
-0.00185979 0.000553907 0.0288048
0.00687556 0.00436396 0.0306743
2.42176e-05 -6.7831e-05 0.000702621
0.00248864 0.000639562 -0.00189453
-0.00342666 0.00354812 0.0703502
0 0 0
0 0 0
4.96672e-05 -0.00122291 0.0153924
0 0 0
-1.57436e-05 -0.000316858 0.0101929
0 0 0
-1.06109e-18 -2.329e-17 -1.20947e-16
-0.00131906 0.00911542 0.11065
-5.12744e-06 -0.000130013 0.0191579
-6.44908e-07 -1.53418e-06 0.000179379
0.00407902 0.069275 0.314717
-0.0668313 0.0651317 0.578851
-5.53618e-06 0.000157751 0.00157004
-6.31409e-05 0.130556 0.256011
-1.03073e-05 9.63941e-05 0.00293662
-1.80226e-05 -0.0047969 0.0308368
0 0 0
0 0 0
-4.70801e-05 -0.0012222 0.0153469
0 0 0
0 0 0
0.00131768 0.00910812 0.110583
0.0666068 0.0651279 0.578049
-0.00404291 0.0688787 0.315211
-0.0228851 -0.00897367 0.122125
-0.0725837 -0.020773 0.330931
0.00259024 -0.00288607 0.0680924
-0.00253181 -0.0221015 0.173459
0 0 0
0.000336715 0.00313654 0.028325
0 0 0