# vtk DataFile Version 2.0
tet_velo
ASCII
DATASET UNSTRUCTURED_GRID
POINTS 29498 float
-0.718215 0.215 -1.995
-0.695 0.295 2.08422
-0.785 0.671964 -1.835
-0.64179 0.895 2.045
0.718367 0.215 -1.995
0.695 0.295 2.08419
0.785 0.672048 -1.835
0.641761 0.895 2.045
-0.771976 0.180167 -0.63526
-0.789252 0.18182 0.72448
-0.819641 0.828687 -0.541667
-0.783546 0.914674 0.751667
0.772077 0.180168 -0.63527
0.789445 0.181677 0.72446
0.819038 0.828149 -0.541667
0.783362 0.914538 0.751667
-1.49379 -0.144912 -3.09847
-1.50122 -0.103055 -2.03728
-1.5354 -0.127289 -0.675821
-1.53277 -0.136361 0.699
-1.46797 -0.064383 2.06158
-1.45193 -0.0126539 3.12829
-1.4619 0.0262663 4.18479
-1.49797 0.139407 -3.04234
-1.50754 0.202269 -1.9884
-1.54938 0.198917 -0.639867
-1.53258 0.196256 0.714647
-1.43076 0.262127 2.06446
-1.4279 0.312065 3.13023
-1.45062 0.350819 4.18889
-1.52776 0.667497 -2.91145
-1.55728 0.727876 -1.85477
-1.58646 0.839474 -0.551499
-1.53242 0.897469 0.747063
-1.40214 0.902137 2.0516
-1.41436 0.948734 3.12012
-1.44894 0.994939 4.1895
-1.55004 1.56864 -2.76503
-1.5656 1.64607 -1.71829
-1.57604 1.77688 -0.436558
-1.55994 1.8782 0.830867
-1.52291 1.92118 2.1133
-1.50447 1.94761 3.16149
-1.50375 1.98137 4.22362
-0.727449 -0.138358 -3.10276
-0.727585 -0.093146 -2.04353
-0.760717 -0.136308 -0.674987
-0.77988 -0.146308 0.707389
-0.73962 -0.0484975 2.07625
-0.727892 -0.00154711 3.13824
-0.735052 0.0315334 4.19055
-0.726616 0.139382 -3.04366
-0.711245 0.323824 3.13843
-0.728258 0.355787 4.19324
-0.749864 0.644655 -2.90324
-0.699727 0.949202 3.1188
-0.729085 0.99606 4.18922
-0.77121 1.5522 -2.75692
-0.783959 1.63013 -1.70935
-0.798622 1.7729 -0.431168
-0.801665 1.88336 0.830217
-0.786216 1.92367 2.10867
-0.773406 1.94777 3.15687
-0.77187 1.98125 4.22026
0.772079 -0.138421 -3.10276
0.753753 -0.0931844 -2.04353
0.777887 -0.136353 -0.674996
0.769726 -0.146419 0.707371
0.70682 -0.0485447 2.07623
0.704396 -0.00159601 3.13822
0.709483 0.0314685 4.19054
0.771429 0.139338 -3.04367
0.692902 0.32379 3.13842
0.702724 0.355728 4.19322
0.790068 0.644618 -2.90324
0.673405 0.949167 3.11879
0.691711 0.995999 4.18921
0.786799 1.55204 -2.75692
0.783806 1.62994 -1.70935
0.76894 1.77267 -0.43117
0.728991 1.88319 0.830214
0.688209 1.92356 2.10867
0.682042 1.94768 3.15687
0.685966 1.98115 4.22025
1.53077 -0.145085 -3.09848
1.51725 -0.103225 -2.03728
1.54575 -0.127475 -0.675837
1.53536 -0.13657 0.698972
1.4607 -0.0645194 2.06155
1.44005 -0.0127775 3.12826
1.44233 0.0261237 4.18476
1.5295 0.139248 -3.04235
1.50708 0.202078 -1.98841
1.54911 0.198679 -0.639881
1.54215 0.196035 0.714622
1.44304 0.262018 2.06442
1.423 0.311961 3.1302
1.43151 0.350685 4.18887
1.55348 0.667322 -2.91145
1.55321 0.727627 -1.85477
1.58153 0.838902 -0.551504
1.53658 0.897194 0.747053
1.40873 0.902023 2.05159
1.3999 0.948625 3.12011
1.41756 0.994801 4.18948
1.56153 1.56832 -2.76504
1.56099 1.64569 -1.7183
1.54666 1.77644 -0.436564
1.49851 1.87786 0.830859
1.44117 1.92095 2.11329
1.4231 1.94741 3.16148
1.42311 1.98118 4.2236
-0.786921 0.443482 -1.95031
7.59959e-05 0.196534 -2.01347
-0.768746 0.173933 -1.31513
-0.708261 0.595 2.10448
0 0.29247 2.08674
-0.771091 0.209445 1.40435
0 0.774161 -1.93716
-0.839671 0.787676 -1.18833
-1.44839e-05 0.965838 2.11584
-0.748292 0.940461 1.39833
0.787533 0.443524 -1.95085
0.768873 0.173933 -1.31514
0.709477 0.595 2.10569
0.77111 0.209451 1.40432
0.83723 0.78531 -1.18833
0.747988 0.940196 1.39833
-0.769944 0.191663 0.04461
-0.847748 0.504427 -0.588463
5.02398e-05 0.178825 -0.635265
-0.86993 0.548247 0.738073
9.63968e-05 0.179752 0.72447
-0.802969 0.873056 0.105
-0.000301813 1.03874 -0.541667
-9.2032e-05 1.3042 0.751667
0.770003 0.19168 0.0445949
0.847587 0.504159 -0.588468
0.870003 0.548108 0.738063
0.802919 0.873062 0.105
-0.878944 0.473955 -1.25173
-0.85502 0.526337 0.074805
-0.893185 0.571623 1.40134
6.31179e-05 0.1716 -1.31513
7.33183e-05 0.193409 0.0446025
4.81984e-05 0.200215 1.40434
3.7998e-05 0.443503 -2.25792
-7.24196e-06 0.595 2.23925
-0.000150907 0.90184 -1.18833
-0.000196923 1.30232 0.105
-5.32579e-05 1.08577 1.39833
0.878893 0.473841 -1.25173
0.855341 0.526133 0.0747975
0.893268 0.571554 1.40133
-1.11288 0.208635 -1.9917
-0.7229 0.060927 -2.01926
-0.722415 0.177191 -2.51933
-1.06288 0.278564 2.07434
-0.71731 0.123251 2.08024
-0.703122 0.309412 2.61133
-1.17114 0.69992 -1.84488
-0.767432 0.658309 -2.36912
-0.784479 1.15105 -1.77218
-1.02197 0.898568 2.0483
-0.670758 0.922101 2.5819
-0.714003 1.40934 2.07684
0.73606 0.0609078 -2.01927
0.744898 0.177169 -2.51933
1.11272 0.208539 -1.9917
0.70091 0.123228 2.08021
0.693951 0.309395 2.6113
1.06902 0.278509 2.07431
0.787534 0.658333 -2.36912
0.784403 1.15099 -1.77218
1.1691 0.699838 -1.84488
0.657583 0.922083 2.5819
0.664985 1.40928 2.07684
1.02524 0.898511 2.04829
-1.16068 0.189542 -0.637564
-0.766347 0.0219292 -0.655123
-1.16092 0.189038 0.719564
-0.784566 0.0177559 0.715934
-1.20305 0.834081 -0.546583
-0.809131 1.3008 -0.486417
-1.15798 0.906072 0.749365
-0.792606 1.39902 0.790942
0.774982 0.0219073 -0.655133
1.16059 0.189423 -0.637575
0.779585 0.0176293 0.715916
1.1658 0.188856 0.719541
0.793989 1.30041 -0.486419
1.20028 0.833526 -0.546586
0.756176 1.39886 0.79094
1.15997 0.905866 0.74936
-1.4975 -0.123983 -2.56787
-1.49588 -0.00275264 -3.07041
-1.11062 -0.141635 -3.10061
-1.51831 -0.115172 -1.35655
-1.50438 0.0496074 -2.01284
-1.1144 -0.0981003 -2.0404
-1.53408 -0.131825 0.0115894
-1.54239 0.0358138 -0.657844
-1.14806 -0.131799 -0.675404
-1.50037 -0.100372 1.38029
-1.53268 0.029948 0.706824
-1.15633 -0.141334 0.703194
-1.45995 -0.0385184 2.59494
-1.44937 0.0988721 2.06302
-1.10379 -0.0564402 2.06892
-1.45691 0.00680624 3.65654
-1.43991 0.149706 3.12926
-1.08991 -0.00710048 3.13326
-1.45626 0.188542 4.18684
-1.09848 0.0288998 4.18767
-1.50276 0.170838 -2.51537
-1.51287 0.403452 -2.9769
-1.11229 0.139394 -3.043
-1.52846 0.200593 -1.31414
-1.53241 0.465073 -1.92158
-1.54098 0.197587 0.0373902
-1.56792 0.519195 -0.595683
-1.48167 0.229192 1.38955
-1.5325 0.546863 0.730855
-1.42933 0.287096 2.59734
-1.41645 0.582132 2.05803
-1.43926 0.331442 3.65956
-1.42113 0.6304 3.12517
-1.06957 0.317945 3.13433
-1.44978 0.672879 4.1892
-1.08944 0.353303 4.19106
-1.54252 0.697687 -2.38311
-1.5389 1.11807 -2.83824
-1.13881 0.656076 -2.90735
-1.57187 0.783675 -1.20313
-1.56144 1.18697 -1.78653
-1.55944 0.868472 0.0977818
-1.58125 1.30818 -0.494029
-1.46728 0.899803 1.39933
-1.54618 1.38784 0.788965
-1.40825 0.925435 2.58586
-1.46252 1.41166 2.08245
-1.43165 0.971837 3.65481
-1.45941 1.44817 3.14081
-1.05704 0.948968 3.11946
-1.47634 1.48815 4.20656
-1.08901 0.9955 4.18936
-1.55782 1.60735 -2.24166
-1.16063 1.56042 -2.76098
-1.57082 1.71147 -1.07743
-1.17478 1.6381 -1.71382
-1.56799 1.82754 0.197154
-1.18733 1.77489 -0.433863
-1.54142 1.89969 1.47208
-1.1808 1.88078 0.830542
-1.51369 1.9344 2.63739
-1.15456 1.92243 2.11099
-1.50411 1.96449 3.69256
-1.13894 1.94769 3.15918
-1.13781 1.98131 4.22194
-0.727517 -0.115752 -2.57314
-0.727032 0.000512022 -3.07321
0.0223151 -0.13839 -3.10276
-0.744151 -0.114727 -1.35926
0.0130836 -0.0931652 -2.04353
-0.770299 -0.141308 0.0162012
0.00858495 -0.136331 -0.674991
-0.75975 -0.0974026 1.39182
-0.00507732 -0.146363 0.70738
-0.733756 -0.0250223 2.60725
-0.0163998 -0.0485211 2.07624
-0.731472 0.0149931 3.66439
-0.719568 0.161138 3.13834
-0.0117478 -0.00157156 3.13823
-0.731655 0.19366 4.19189
-0.0127849 0.0315009 4.19054
-0.73824 0.392018 -2.97345
0.0224066 0.13936 -3.04366
-0.719751 0.339805 3.66583
-0.705486 0.636513 3.12862
-0.00917136 0.323807 3.13842
-0.728672 0.675923 4.19123
-0.0127669 0.355757 4.19323
-0.760537 1.09843 -2.83008
0.020102 0.644636 -2.90324
-0.714406 0.972631 3.65401
-0.736566 1.44849 3.13784
-0.013161 0.949184 3.1188
-0.750478 1.48865 4.20474
-0.0186871 0.996029 4.18921
-0.777584 1.59116 -2.23313
0.0077942 1.55212 -2.75692
-0.79129 1.70152 -1.07026
-7.63651e-05 1.63003 -1.70935
-0.800143 1.82813 0.199525
-0.0148405 1.77279 -0.431169
-0.793941 1.90352 1.46945
-0.0363373 1.88327 0.830216
-0.779811 1.93572 2.63277
-0.0490034 1.92361 2.10867
-0.772638 1.96451 3.68857
-0.0456817 1.94772 3.15687
-0.0429522 1.9812 4.22026
0.762916 -0.115803 -2.57315
0.771754 0.000458311 -3.07321
1.15142 -0.141753 -3.10062
0.76582 -0.114769 -1.35926
1.1355 -0.0982045 -2.04041
0.773806 -0.141386 0.0161877
1.16182 -0.131914 -0.675417
0.738273 -0.0974818 1.3918
1.15255 -0.141495 0.703172
0.705608 -0.0250704 2.60722
1.08376 -0.0565321 2.06889
0.706939 0.0149362 3.66438
0.698649 0.161097 3.13832
1.07222 -0.00718675 3.13324
0.706104 0.193598 4.19188
1.07591 0.0287961 4.18765
0.780749 0.391978 -2.97345
1.15047 0.139293 -3.04301
0.697813 0.339759 3.66582
0.683153 0.636478 3.1286
1.05795 0.317876 3.13431
0.697218 0.675863 4.19121
1.06712 0.353207 4.19105
0.788434 1.09833 -2.83008
1.17177 0.65597 -2.90735
0.682558 0.972583 3.654
0.677724 1.44842 3.13783
1.03665 0.948896 3.11945
0.688839 1.48858 4.20473
1.05464 0.9954 4.18934
0.785302 1.59099 -2.23314
1.17416 1.56018 -2.76098
0.776373 1.7013 -1.07026
1.1724 1.63781 -1.71383
0.748965 1.82793 0.199522
1.1578 1.77456 -0.433867
0.7086 1.90337 1.46944
1.11375 1.88052 0.830536
0.685126 1.93562 2.63277
1.06469 1.92225 2.11098
0.684004 1.96441 3.68856
1.05257 1.94754 3.15917
1.05454 1.98116 4.22193
1.52401 -0.124155 -2.56788
1.53014 -0.00291854 -3.07041
1.5315 -0.11535 -1.35656
1.51217 0.0494264 -2.01285
1.54056 -0.132023 0.0115674
1.54743 0.0356019 -0.657859
1.49803 -0.100545 1.38026
1.53876 0.0297326 0.706797
1.45037 -0.0386485 2.5949
1.45187 0.0987493 2.06298
1.44119 0.00667311 3.65651
1.43152 0.149592 3.12923
1.43692 0.188405 4.18682
1.51829 0.170663 -2.51538
1.54149 0.403285 -2.9769
1.52809 0.200378 -1.31414
1.53014 0.464852 -1.92159
1.54563 0.197357 0.0373705
1.56532 0.51879 -0.595692
1.4926 0.229027 1.38952
1.53937 0.546615 0.730837
1.43302 0.28699 2.59731
1.42588 0.58202 2.05801
1.42725 0.331323 3.65953
1.41145 0.630293 3.12515
1.42454 0.672743 4.18918
1.55334 0.697475 -2.38311
1.5575 1.11782 -2.83825
1.56737 0.783265 -1.20314
[...]
POINT_DATA 29498
VECTORS point_vectors float
-3.57906 -5.65242 9.16392
0.279866 0.152854 0.756927
-1.91127 1.20945 3.77099
-0.00550611 -0.0203992 0.0311306
3.61976 -5.67884 9.20696
-0.288333 0.16411 0.798207
1.9163 1.21352 3.77047
0.00527873 -0.0200514 0.0305923
0.00482733 0.00494987 0.132524
0.0360538 -0.0481842 0.72566
0 0 0
0 0 0
-0.00481374 0.00514507 0.135994
-0.0358067 -0.0484145 0.703577
0 0 0
0 0 0
-0.575112 -0.242919 19.8415
-1.20556 -0.676123 20.4202
-0.442899 -0.423092 21.2496
0.0655666 -0.159999 21.4231
0.714062 0.167304 21.3906
1.03991 0.238772 21.062
0.935892 0.111191 20.5094
-0.70027 -0.191214 19.7491
-1.62167 -0.546759 20.4106
-0.59168 -0.487716 21.3083
0.0217448 -0.283206 21.5056
0.978607 -0.0372427 21.4698
1.24492 -0.0154665 21.0632
1.02369 0.0113992 20.7524
-0.853262 0.0710625 19.6912
-1.72622 0.0735069 20.4447
-1.02242 -0.297799 21.2414
-0.290311 -0.362189 21.5985
0.627049 -0.70708 21.4852
0.988185 -0.727504 21.1798
0.694592 -0.579005 20.6592
-0.592977 0.375077 19.9568
-0.919822 0.549601 20.4332
-0.84046 0.333288 21.0519
-0.3581 -0.0191286 21.3842
0.0305067 -0.305212 21.2782
0.22544 -0.485974 21.059
0.253269 -0.603402 20.6442
-0.5781 -0.598208 19.2706
-1.81406 -3.44376 20.5351
-0.175318 -0.354446 21.4942
0.121213 0.045003 20.6826
0.597834 1.26531 18.6973
1.07881 1.65198 18.5086
0.876604 1.15235 19.0073
-0.758791 -0.491975 18.9178
1.99962 1.40558 10.8463
2.04887 0.906598 14.007
-1.08287 0.219576 18.4798
0.766697 -0.975537 7.53912
1.12593 -1.03012 12.4993
-0.608529 0.877744 19.4945
-1.0787 1.57997 20.2559
-1.22321 1.37785 21.0748
-0.498278 0.28825 21.7582
-0.120464 -0.319874 21.3599
0.0279639 -0.576142 21.2964
0.0198196 -0.487395 20.8448
0.596846 -0.568502 19.3234
1.90435 -3.34832 20.488
0.174135 -0.352329 21.4807
-0.115809 0.0488171 20.6682
-0.526852 1.25354 18.4557
-1.02364 1.64797 18.3695
-0.848116 1.21515 18.886
0.789411 -0.457732 18.9777
-1.94847 1.40777 10.4014
-2.09667 0.996259 13.4213
1.1 0.210754 18.5559
-0.710458 -0.925255 6.58964
-1.08202 -1.01958 11.4645
0.612818 0.861468 19.5053
1.07902 1.58056 20.2556
1.21668 1.44836 21.0687
0.494213 0.319449 21.7955
0.141917 -0.296523 21.3801
-0.00859618 -0.555102 21.2377
-0.0638014 -0.485358 21.0163
0.569249 -0.233816 19.8512
1.19196 -0.653767 20.4281
0.448253 -0.425285 21.2458
-0.0578397 -0.163725 21.4196
-0.713151 0.176443 21.3987
-1.05153 0.252358 21.0486
-0.938813 0.137291 20.5584
0.686334 -0.180087 19.7762
1.62706 -0.551513 20.4134
0.594141 -0.489851 21.3089
-0.016777 -0.284324 21.5006
-0.958004 -0.0477548 21.4675
-1.25058 -0.0121431 21.0647
-1.023 0.0257981 20.7986
0.832162 0.0628292 19.7219
1.73376 0.074463 20.4495
1.0256 -0.299067 21.2466
0.288809 -0.359559 21.6021
-0.624698 -0.69714 21.4828
-1.00467 -0.752459 21.1677
-0.745082 -0.639975 20.5489
0.591007 0.373328 19.9629
0.922502 0.55293 20.4331
0.862135 0.345781 21.0569
0.378838 -0.00527852 21.4098
-0.0178006 -0.323275 21.302
-0.200007 -0.500974 21.0693
-0.19947 -0.534197 20.7725
-1.06909 -0.253062 2.00776
0.000184751 -0.0229791 0.176899
-0.0167804 0.0060485 0.573495
-0.00105833 -0.0377144 0.0235539
0 0 0
0.000124308 0.014362 0.34194
-4.67834e-05 0.0429803 0.136941
-0.108931 -0.0807722 0.442951
-0.000595573 0.0823173 -0.112523
0.00202456 -0.00284329 0.0427642
1.23188 -0.295963 2.31948
0.0166564 0.00600635 0.571438
0.00169637 -0.0433642 0.0269679
-0.000122898 0.0143592 0.342151
0.0650408 -0.0484498 0.261761
-0.00401232 -0.00495615 0.0714699
0.000453213 0.000507748 0.0556168
0 0 0
3.50037e-06 0.000918959 0.016917
2.23385e-18 -1.56467e-17 -9.1197e-17
2.45916e-05 -0.00304022 0.119539
0 0 0
0.0028766 0.0256992 0.0566638
1.05246e-05 -0.00391051 0.0383448
-0.000756813 0.000317903 0.0690897
0 0 0
0 0 0
1.30384e-17 -1.89232e-17 -8.6863e-17
-0.00153188 -0.00208538 0.0516151
0 0 0
0.000268942 0.00165338 0.0202109
3.9873e-08 -2.78964e-07 5.99432e-05
0 0 0
2.1387e-09 -2.00417e-07 -7.54315e-06
-8.92484e-05 -0.00551498 0.0889486
-0.000427195 -0.0383362 0.0210745
-0.000206128 0.0031348 0.0252724
2.75033e-05 0.0369261 0.206205
0.00050244 0.00604687 -0.0116085
0.00148251 -0.00202111 0.050224
0 0 0
-0.000287419 0.00177378 0.0218175
-3.22074 -1.573 20.2631
-2.90479 -5.63069 20.6553
-2.16603 -1.68227 17.7158
1.53921 0.539167 17.9396
0.427846 1.33746 11.2062
1.40104 0.895814 7.26807
-3.45073 0.440443 20.4659
-3.5011 1.31554 16.9195
-2.34879 2.6543 20.1822
0.986701 -0.720172 16.567
-0.464766 -0.938195 3.92489
-0.12076 -0.588224 18.4889
3.01013 -5.50616 20.5951
2.16248 -1.60655 17.8183
3.23298 -1.57713 20.2653
-0.363213 1.31239 10.8841
-1.35646 0.867563 7.03296
-1.52842 0.515494 18.093
3.46997 1.2317 17.0715
2.34942 2.65564 20.1829
3.46761 0.446468 20.4669
0.552355 -0.925018 3.46745
0.104761 -0.555617 17.599
-0.984886 -0.713147 16.7199
-0.38344 -0.814885 21.4048
0.0801668 0.027239 16.2602
0.119612 -0.302562 20.2568
0.222944 0.0615904 15.8524
-1.68406 -0.825589 21.4414
-2.91588 1.71818 20.989
-0.401058 -0.629003 20.3546
-0.891283 0.00615805 21.5839
-0.0745742 0.0227029 16.4478
0.383903 -0.815091 21.4034
-0.222943 0.0600325 15.7537
-0.117533 -0.307622 20.3517
2.95412 1.80463 20.9673
1.68953 -0.837007 21.4154
0.813381 0.0495132 21.0181
0.400633 -0.630323 20.387
-0.923004 -0.471164 19.9675
-0.645674 -0.234788 19.7964
-0.628474 -0.416985 19.5777
-0.877495 -0.589253 21.0673
-1.43363 -0.640979 20.4124
-1.79126 -1.58384 20.3706
-0.168131 -0.288417 21.3544
-0.533163 -0.468233 21.2717
-0.289516 -0.555077 21.4763
0.350685 -0.00578285 21.5184
0.0395974 -0.231992 21.4446
0.143479 -0.156043 21.5649
0.898242 0.238025 21.2758
0.841445 0.0820455 21.4636
0.983341 0.656187 21.0529
1.0101 0.181406 20.9888
1.15854 0.108568 21.1421
1.32805 0.738325 20.8479
0.999014 0.0517894 20.629
0.917547 0.458855 21.3528
-1.22092 -0.361811 19.859
-0.798463 -0.10654 19.6907
-0.786157 -0.338556 19.4161
-1.13599 -0.566499 21.1699
-1.69472 -0.245545 20.4395
-0.27611 -0.40783 21.3901
-0.809274 -0.458743 21.2821
0.422785 -0.154729 21.6473
-0.118761 -0.376644 21.5909
1.17865 -0.0148501 21.2427
0.950579 -0.414098 21.417
1.32074 -0.135777 20.9067
1.24938 -0.463335 21.0166
1.97993 0.366557 18.9491
1.02326 -0.402127 20.4852
1.52168 -0.018191 20.2792
-1.40766 0.104852 19.8664
-0.782649 0.293826 19.792
-1.06912 0.120119 19.2111
-1.40069 -0.144828 21.0478
-1.34008 0.474096 20.4243
-0.709113 -0.358433 21.4702
-1.09515 0.0938059 21.139
0.17948 -0.491703 21.661
-0.403539 -0.182607 21.5163
0.848362 -0.738185 21.238
0.160947 -0.519166 21.372
0.993043 -0.700356 20.6824
0.416616 -0.608159 21.1023
1.18697 -0.951917 18.9824
0.445449 -0.662274 20.6735
1.24898 -1.30143 19.382
-0.800062 0.515447 20.1228
-0.680486 0.606641 19.7393
-0.922465 0.457504 20.7656
-1.10259 0.984261 20.3484
-0.633186 0.176441 21.2923
-1.10204 0.712144 21.0968
-0.126718 -0.180998 21.3233
-0.443048 0.0921195 21.5433
0.122541 -0.408745 21.1558
-0.0306602 -0.354869 21.3161
0.216972 -0.422235 20.8416
0.149536 -0.524031 20.8913
0.0260066 -0.32027 21.2099
-1.26967 -1.59907 18.9584
-0.649076 -0.557949 19.1256
0.0134733 -0.823404 18.9261
-0.634302 -1.25927 22.0082
0.00744867 -4.48723 21.4333
0.00336926 -0.112822 20.8585
-0.00126079 -0.377374 20.8225
0.315164 0.507171 19.5657
-0.00106395 -0.0411783 19.2525
0.833288 1.49551 18.778
0.00206406 0.843616 16.0285
1.15955 1.51613 18.877
1.5683 1.72596 15.2972
0.00649078 1.38125 16.1068
1.46016 1.11288 16.2703
0.0550443 2.00482 16.7491
-0.968142 -0.231861 18.587
0.0510286 -0.69722 18.3612
2.19758 1.12664 12.2631
2.09404 -0.179872 7.58175
0.00933594 0.558472 3.04653
2.17164 0.2669 13.2896
0.0548162 1.99526 8.80872
-0.918791 0.802395 18.9367
0.035748 0.375016 17.422
0.937212 -0.944556 10.0402
0.140273 -1.14961 19.7697
0.0943942 1.71998 -6.69706
0.10826 -1.08788 19.912
0.0788654 0.995995 -4.90687
-0.914825 1.39755 19.7309
0.00580592 1.21625 19.218
-1.1358 1.43485 20.6498
5.76811e-05 2.28914 20.1151
-0.980382 0.96145 21.6875
-0.0429169 2.5798 20.8992
-0.237669 -0.121881 21.567
-0.0390797 0.651103 22.0329
-0.0349925 -0.45176 21.2823
-0.0309849 -0.0938732 21.6438
0.0655419 -0.639711 20.9276
-0.0189046 -0.521464 21.2655
-0.00242327 -0.283815 21.3218
1.29499 -1.51547 18.997
0.672413 -0.530802 19.1749
0.633626 -0.401126 19.6032
0.649558 -1.26299 22.0454
1.75054 -1.49459 20.3679
-0.00332617 -0.112331 20.8687
0.299251 -0.552197 21.4658
-0.297414 0.509133 19.4417
-0.141443 -0.154301 21.5673
-0.764356 1.4971 18.3713
-0.986388 0.704043 20.9359
-1.13963 1.55573 18.7288
-1.51986 1.71902 15.1637
-1.34674 0.786392 20.8337
-1.43518 1.17876 16.1474
-0.94293 0.497334 21.3801
0.986548 -0.222579 18.6688
0.788258 -0.336662 19.4529
-2.22113 1.18246 11.7765
-2.03106 -0.165121 7.00489
-1.9943 0.402901 18.7832
-2.22894 0.376339 12.5719
-1.55029 0.0160726 20.02
0.929184 0.783281 18.9643
1.04292 0.105846 19.271
-0.886422 -0.923684 9.01413
-0.0536938 -1.10204 19.6041
-1.23531 -0.9689 18.5272
-0.0896901 -1.12424 19.6891
-1.26432 -1.36918 19.2755
0.917329 1.38409 19.7345
0.68056 0.595553 19.7469
1.12628 1.46074 20.6443
1.10314 0.987486 20.3489
0.973063 1.03502 21.7121
1.11765 0.751881 21.0961
0.240317 -0.0984405 21.5784
0.460401 0.118454 21.5917
0.0575195 -0.440835 21.3049
0.0545543 -0.360806 21.3381
-0.0284839 -0.651769 20.911
-0.118216 -0.531683 20.9621
-0.00739701 -0.372892 21.1881
0.905895 -0.448089 20.0024
0.639072 -0.224202 19.813
0.879833 -0.573091 21.0529
1.41745 -0.63206 20.4182
0.166555 -0.292139 21.3592
0.535604 -0.469293 21.2636
-0.348044 -0.00856553 21.5183
-0.0328078 -0.235528 21.4351
-0.903937 0.251656 21.2805
-0.836591 0.0790866 21.4632
-1.03036 0.198226 20.9647
-1.16841 0.115705 21.1394
-1.00179 0.0736816 20.678
1.19291 -0.346967 19.8807
0.77844 -0.09693 19.723
1.14082 -0.570534 21.1686
1.70606 -0.251051 20.4483
0.276204 -0.409014 21.3918
0.810331 -0.464329 21.2919
-0.416159 -0.156279 21.6384
0.118011 -0.375591 21.5933
-1.17204 -0.0217969 21.2426
-0.932699 -0.411989 21.4225
-1.35035 -0.124869 20.8703
-1.26246 -0.478181 21.0143
-1.06482 -0.457056 20.3964
1.38556 0.100355 19.8822
0.777734 0.282874 19.8095
1.4057 -0.14369 21.0534
1.34693 0.477567 20.4255
0.70925 -0.358056 21.4732
1.11852 0.0909993 21.1447
-0.177831 -0.486817 21.6576
0.417591 -0.18697 21.5339
-0.8493 -0.744218 21.2398
-0.151956 -0.543272 21.3901
-1.00433 -0.728388 20.6411
-0.39952 -0.644894 21.1478
-0.411322 -0.681635 20.749
0.798998 0.512794 20.1249
0.931449 0.466833 20.766
0.661514 0.193562 21.3132
0.140455 -0.180422 21.3458
-0.109807 -0.430441 21.1435
-0.240728 -0.37048 20.7616
-1.08379 -0.440192 19.9027
-1.6744 -1.76697 18.3867
-1.2107 -0.90907 19.5469
-1.7732 -0.793471 19.1917
-0.716659 -0.395185 19.4972
-2.4189 -1.7098 20.3312
-1.02005 -0.594426 21.1129
-0.377197 -0.626024 17.6572
-0.923934 -1.06881 21.4738
-1.42166 -1.22252 21.8605
-0.288303 -0.673759 21.5252
-0.224184 -0.36416 21.3683
0.169005 0.0717436 15.4799
-0.0340122 -0.34312 21.4742
-0.0566777 -0.555556 20.513
0.1788 -0.245594 21.2734
0.381772 -0.0783526 21.578
0.278531 0.481445 13.3021
0.496331 0.180752 21.537
0.630893 0.0765137 19.3979
1.28787 0.666917 20.0232
1.07451 0.135185 21.2486
0.970878 1.54129 13.3394
1.20584 0.756669 20.9251
1.79234 0.468223 18.7592
1.644 0.606633 20.1021
1.21313 0.0441556 20.8669
1.7119 1.33573 15.2734
1.46562 0.876506 20.7021
2.0028 0.341617 18.9713
1.17643 0.266178 20.7963
-1.34906 -0.167273 19.8518
-3.14611 -0.578103 16.7845
-2.28636 0.357587 19.1351
-0.968915 -0.137767 19.2541
-3.72048 -0.537971 20.3512
-1.32015 -0.370654 21.1296
-2.13271 -0.341555 21.5166
-0.782122 -0.996864 21.2492
-0.461092 -0.460325 21.4396
-1.13911 -0.934255 21.1011
0.0450998 -0.388344 19.5551
0.362926 -0.362434 21.6756
0.476736 -0.357338 18.6247
1.52429 -0.120685 15.7523
1.13937 -0.462306 21.251
0.771123 -0.797582 3.9159
0.997396 -0.975991 18.2039
1.95387 -0.347105 18.3697
1.12934 -0.511106 21.2158
2.30616 0.177879 10.4527
1.16635 -1.20006 19.8782
1.651 -0.658768 19.5583
-1.14018 0.437382 19.9842
-1.85165 1.94609 18.8709
-0.958447 0.895871 19.9578
-0.923989 0.498163 19.4301
-1.98188 1.1016 20.333
-1.24813 0.271189 20.8608
-2.28297 1.72712 20.7791
-1.12873 0.872595 20.7364
-1.80437 0.402869 21.2134
-0.810214 -0.0438747 21.4186
-2.51256 0.859528 22.2019
-0.833593 0.451076 21.4486
-0.650211 -0.135833 21.8366
-0.0733628 -0.356621 21.4886
-0.264459 -0.456446 20.1444
-0.1782 -0.186926 21.4716
-0.00524483 -0.711227 21.4273
0.27802 -0.620265 21.252
-0.0725996 -0.776584 18.9261
0.0695528 -0.461346 21.1818
0.285642 -0.840133 21.463
0.407754 -0.5526 21.104
0.310838 -1.0846 19.3487
0.288709 -0.528939 20.9366
0.223862 -0.798322 21.0718
1.68046 -1.68247 18.4826
0.0285471 -2.65473 18.2486
0.0581175 -3.26487 15.5074
0.0203815 -0.822367 18.6915
-0.0297886 -5.26174 22.6422
0.386207 -0.648758 17.7917
-0.00369631 -1.29549 22.0971
0.00345274 0.0304422 12.7256
-0.169348 0.0694682 15.5199
-0.00110826 -0.165034 19.6802
0.00173052 -0.0095746 12.0368
-0.268116 0.47289 13.1117
0.00236602 0.339326 17.4353
-0.00171968 0.655099 7.2336
-0.897491 1.53953 12.9896
0.00573265 1.11981 16.0306
-0.00563165 -0.157594 1.43034
0.00514396 1.00917 9.21302
-1.69445 1.37497 15.1304
0.0439572 1.9861 16.7271
0.0354943 0.968394 4.92736
0.0561053 1.97823 13.2263
3.12019 -0.562234 16.943
0.0813133 3.78916 12.9158
0.0383816 -0.290602 17.7185
-0.699172 -0.779153 3.61324
-0.00284825 1.19378 -4.61477
0.0817683 0.421207 -3.0246
-2.32261 0.243133 9.85574
0.124104 1.40325 -5.32968
0.0674498 1.62233 1.44337
1.84996 1.90936 18.9026
0.00511909 2.00425 19.4813
0.0162688 1.27815 18.2537
-0.000756534 4.18425 20.1066
2.28599 1.75881 20.7795
-0.0138366 2.23529 20.4426
-0.0372646 4.37962 19.2112
2.63376 0.913629 22.1149
-0.0482333 1.95846 22.0198
-0.0146419 0.360002 17.6421
0.153735 -0.397942 19.0806
-0.0302046 0.1053 21.7178
-0.0390696 0.046845 9.58816
0.107387 -0.749527 18.3797
-0.0208014 -0.263211 21.4266
0.00367154 -0.549144 12.3098
-0.275842 -1.07652 19.0918
-0.010324 -0.522693 21.6298
-0.00549299 -0.468673 13.4195
1.0572 -0.421817 19.9392
1.20178 -0.86917 19.5654
1.7423 -0.774417 19.2396
0.717508 -0.378046 19.5338
2.38697 -1.65452 20.3339
1.02252 -0.59108 21.097
0.937535 -1.04808 21.4446
1.42398 -1.22057 21.8584
0.301807 -0.67183 21.5316
0.224547 -0.36419 21.3717
0.0418769 -0.345254 21.471
0.0624952 -0.557588 20.5544
-0.174715 -0.244386 21.2659
-0.376322 -0.082005 21.572
-0.494526 0.195521 21.5148
-0.631591 0.0655962 19.5387
-1.28735 0.686057 19.9194
-1.07454 0.134989 21.2484
-1.2126 0.793507 20.8862
-1.79314 0.474734 18.6946
-1.66077 0.652356 19.8934
-1.24715 0.0527824 20.8188
-1.45956 0.914931 20.7566
-1.98544 0.355154 18.9487
-1.20936 0.304897 20.5433
1.3297 -0.163516 19.8737
2.22937 0.331631 19.1793
0.963424 -0.136239 19.2952
3.72592 -0.539308 20.3442
1.32417 -0.374729 21.1382
2.14096 -0.346363 21.526
0.77991 -1.00065 21.2242
0.458524 -0.461184 21.4488
1.14135 -0.93441 21.0984
-0.0426284 -0.401699 19.6535
-0.3562 -0.359488 21.6766
-0.469862 -0.371786 18.7
-1.52059 -0.134647 15.9356
-1.13662 -0.464713 21.2556
-0.991244 -0.971729 17.9728
-1.99437 -0.360842 18.0054
-1.14547 -0.511425 21.2189
-1.20915 -1.18889 19.3803
-1.68582 -0.614378 19.2335
1.134 0.431676 19.9936
0.957868 0.888381 19.9619
0.914301 0.478247 19.4567
1.98557 1.10679 20.331
1.26262 0.273426 20.8642
1.13172 0.88977 20.7352
1.84792 0.420275 21.2103
0.831615 -0.0489915 21.4349
0.861695 0.497803 21.4793
0.680912 -0.134187 21.8625
0.0754731 -0.368388 21.5122
0.19453 -0.180558 21.4753
0.0323723 -0.733534 21.3804
-0.267063 -0.648616 21.2879
-0.0402537 -0.482385 21.2117
-0.282974 -0.906981 21.1507
-0.424146 -0.578274 21.0874
-0.22501 -0.59832 21.1694
-0.206232 -0.849318 20.9012
-1.45095 -0.897551 19.4074
-1.10329 -1.18465 21.659
-0.00468246 -0.451765 21.3039
0.609429 0.1414 20.8193
1.57071 0.718864 19.8885
1.74081 0.651086 19.9659
-2.18662 -0.28919 19.038
-1.8502 -0.841186 21.9394
-0.287203 -0.809615 20.2197
0.61733 -0.0148879 18.3662
1.73461 -0.348028 17.1165
1.8696 -0.245194 18.473
-1.57286 0.927761 19.6326
-1.82845 0.672566 20.9184
-1.37789 0.13971 21.7323
-0.196153 -0.454844 21.7001
0.129788 -0.808287 21.3754
0.425999 -0.952624 21.2021
0.057727 -3.10227 17.1691
0.00891163 -0.416942 14.2595
0.000956214 0.0299969 11.7552
0.00236916 0.258172 9.68501
-0.000164231 0.601352 7.944
0.041156 1.46822 10.7833
0.0689835 -0.805006 12.8817
0.000141666 0.178388 -2.30319
0.10001 0.817604 -0.70854
0.018065 3.55724 18.0401
-0.0130459 3.17576 20.3653
-0.0447638 3.63014 20.8138
-0.0210554 -0.0344624 12.0419
-0.0904931 0.0706851 10.1814
-0.083436 -0.695275 13.0391
1.43729 -0.861542 19.4408
1.11387 -1.16627 21.6354
0.0122711 -0.452469 21.3128
-0.607852 0.146206 20.7702
-1.57668 0.739805 19.7545
-1.7285 0.663697 19.9396
2.1597 -0.291257 19.0874
1.85292 -0.845418 21.9448
0.292548 -0.811563 20.2416
-0.620736 -0.0355714 18.522
-1.73316 -0.347285 16.9355
-1.89459 -0.236237 18.0568
1.56304 0.907604 19.6418
1.84252 0.68421 20.9177
1.43056 0.147305 21.7654
0.217165 -0.469622 21.7105
-0.09681 -0.840858 21.3081
-0.415146 -1.02115 20.9669
-0.366152 -0.111171 0.464443
-0.00219213 -0.0499519 0.231181
-0.0228564 -0.0416489 0.683467
0.0415108 -0.0129911 0.104567
0 0 0
-0.0214221 0.194435 1.39658
-1.22658 0.0296927 1.94446
-0.00719544 0.056954 0.17005
-0.11903 0.0421254 0.446517
0.000856216 -0.00788487 0.00662738
-0.0429423 -0.000517181 -0.0145756
-0.0334323 -0.0441227 0.144414
0.00398315 -0.0520358 0.237215
0.501315 -0.154328 0.635845
0.0226461 -0.0412458 0.681222
0 0 0
-0.041242 -0.0129771 0.104056
0.0208833 0.191223 1.37619
0.00698657 0.0541743 0.161232
1.27546 0.0270108 2.02516
0.124509 0.0430717 0.467117
0.0432317 -0.000582619 -0.0149225
-0.000794514 -0.00723753 0.00608139
0.0328203 -0.0430137 0.144513
0.0108646 -0.00677203 0.413221
0.00741827 0.00630782 0.273102
2.52018e-05 -0.000628041 0.00832226
0.000685589 0.000671793 0.0148438
0.00210647 0.0127683 0.343518
-0.00805741 -5.74252e-05 0.779944
0 0 0
0.00135639 -0.00157707 0.0686369
-0.0777422 -0.0615612 0.246839
-0.000705596 -0.00656762 0.0617113
0 0 0
-0.024557 0.00784253 0.0328735
0 0 0
0.000432441 0.0023445 0.00814282
0 0 0
0.0842054 -0.00748666 0.327035
-0.0108406 -0.00675802 0.413743
-0.000680423 0.000668791 0.0147499
-0.00753366 0.00659948 0.279408
-3.93407e-05 -0.000571908 0.00726992
-0.00203348 0.0128083 0.34331
-0.00132103 -0.0015692 0.0683027
0.00669867 0.00157722 0.778073
0 0 0
0.0794733 -0.0617026 0.250931
0.0213583 0.00677981 0.0285154
0.000608771 -0.0059508 0.0555469
0 0 0
0 0 0
-0.0835737 -0.00824866 0.326605
0 0 0
0 0 0
0 0 0
-0.325399 0.00562022 0.215786
-7.59886e-06 -0.000857983 0.0235587
5.81182e-06 -0.0127726 0.00716312
0 0 0
2.29834e-07 -6.3878e-07 6.32592e-05
0 0 0
-0.035597 -0.0273299 0.00899917
1.01168e-07 2.43235e-05 0.000501178
0 0 0
0 0 0
-1.88344e-07 -2.97837e-07 -1.09749e-05
-0.00371119 1.62358 1.19774
-1.08101e-05 0.00865887 0.0535123
-0.00308964 -0.00971942 0.181783
-0.00938868 0.00534844 0.0445747
0 0 0
0 0 0
0.0120806 -0.000802707 0.0907588
0 0 0
0.330965 0.00303887 0.220376
0 0 0
-1.73515e-07 -6.08432e-07 5.98064e-05
0 0 0
0.035529 -0.0273788 0.00894294
0 0 0
1.388e-06 -2.21328e-06 -8.15717e-05
0 0 0
0.0082746 0.00471114 0.0393343
0.00346309 -0.010928 0.198043
0 0 0
-0.0116422 -0.000850928 0.0877088
-1.92644e-05 8.8669e-05 0.0018762
0.00161686 -0.000154438 0.0450227
0.0101807 -0.00679991 0.0959657
0 0 0
5.44262e-07 1.93255e-06 0.000675356
1.616e-05 0.00288016 0.0814199
0 0 0
-0.000624262 0.00607992 0.11474
0 0 0
0 0 0
0.000614248 0.0100245 0.0506419
-0.210704 0.213848 1.07683
5.41922e-05 0.00469629 0.0467111
-0.00306126 0.0764321 0.180324
-1.2321e-05 0.00632077 0.140289
2.90177e-06 0.000130663 0.000969067
-0.00164139 -0.000159219 0.0448746
6.01704e-05 0.000293609 0.00596811
-0.0118328 -0.00704228 0.106884
0 0 0
0 0 0
0.000609371 0.00612499 0.114939
0.205559 0.210803 1.06186
-0.000659974 0.0101904 0.051294
2.52433e-17 1.66051e-17 -1.73044e-16
-0.0289312 -0.0355034 0.431403
0 0 0
0.000111245 -0.0106948 0.0491518
0 0 0
0.000336924 0.00320174 0.0393561
-0.00016642 0.000891114 0.0155441
1.4441e-05 0.000364203 0.00182915
0.000215562 0.000482312 0.0120154
0.000528786 0.0225504 0.108001
0.00748204 0.00180207 0.0346346
0.00391352 -0.00782861 0.0351628
-0.00158894 -0.00268502 0.0576768