# vtk DataFile Version 2.0
tri_press
ASCII
DATASET UNSTRUCTURED_GRID
POINTS 3682 float
-0.718215 0.215 -1.995
-0.695 0.295 2.08422
-0.785 0.671964 -1.835
-0.64179 0.895 2.045
0.718367 0.215 -1.995
0.695 0.295 2.08419
0.785 0.672048 -1.835
0.641761 0.895 2.045
-0.771976 0.180167 -0.63526
-0.789252 0.18182 0.72448
-0.819641 0.828687 -0.541667
-0.783546 0.914674 0.751667
0.772077 0.180168 -0.63527
0.789445 0.181677 0.72446
0.819038 0.828149 -0.541667
0.783362 0.914538 0.751667
-1.49379 -0.144912 -3.09847
-1.50122 -0.103055 -2.03728
-1.5354 -0.127289 -0.675821
-1.53277 -0.136361 0.699
-1.46797 -0.064383 2.06158
-1.45193 -0.0126539 3.12829
-1.4619 0.0262663 4.18479
-1.49797 0.139407 -3.04234
-1.50754 0.202269 -1.9884
-1.54938 0.198917 -0.639867
-1.53258 0.196256 0.714647
-1.43076 0.262127 2.06446
-1.4279 0.312065 3.13023
-1.45062 0.350819 4.18889
-1.52776 0.667497 -2.91145
-1.55728 0.727876 -1.85477
-1.58646 0.839474 -0.551499
-1.53242 0.897469 0.747063
-1.40214 0.902137 2.0516
-1.41436 0.948734 3.12012
-1.44894 0.994939 4.1895
-1.55004 1.56864 -2.76503
-1.5656 1.64607 -1.71829
-1.57604 1.77688 -0.436558
-1.55994 1.8782 0.830867
-1.52291 1.92118 2.1133
-1.50447 1.94761 3.16149
-1.50375 1.98137 4.22362
-0.727449 -0.138358 -3.10276
-0.727585 -0.093146 -2.04353
-0.760717 -0.136308 -0.674987
-0.77988 -0.146308 0.707389
-0.73962 -0.0484975 2.07625
-0.727892 -0.00154711 3.13824
-0.735052 0.0315334 4.19055
-0.726616 0.139382 -3.04366
-0.711245 0.323824 3.13843
-0.728258 0.355787 4.19324
-0.749864 0.644655 -2.90324
-0.699727 0.949202 3.1188
-0.729085 0.99606 4.18922
-0.77121 1.5522 -2.75692
-0.783959 1.63013 -1.70935
-0.798622 1.7729 -0.431168
-0.801665 1.88336 0.830217
-0.786216 1.92367 2.10867
-0.773406 1.94777 3.15687
-0.77187 1.98125 4.22026
0.772079 -0.138421 -3.10276
0.753753 -0.0931844 -2.04353
0.777887 -0.136353 -0.674996
0.769726 -0.146419 0.707371
0.70682 -0.0485447 2.07623
0.704396 -0.00159601 3.13822
0.709483 0.0314685 4.19054
0.771429 0.139338 -3.04367
0.692902 0.32379 3.13842
0.702724 0.355728 4.19322
0.790068 0.644618 -2.90324
0.673405 0.949167 3.11879
0.691711 0.995999 4.18921
0.786799 1.55204 -2.75692
0.783806 1.62994 -1.70935
0.76894 1.77267 -0.43117
0.728991 1.88319 0.830214
0.688209 1.92356 2.10867
0.682042 1.94768 3.15687
0.685966 1.98115 4.22025
1.53077 -0.145085 -3.09848
1.51725 -0.103225 -2.03728
1.54575 -0.127475 -0.675837
1.53536 -0.13657 0.698972
1.4607 -0.0645194 2.06155
1.44005 -0.0127775 3.12826
1.44233 0.0261237 4.18476
1.5295 0.139248 -3.04235
1.50708 0.202078 -1.98841
1.54911 0.198679 -0.639881
1.54215 0.196035 0.714622
1.44304 0.262018 2.06442
1.423 0.311961 3.1302
1.43151 0.350685 4.18887
1.55348 0.667322 -2.91145
1.55321 0.727627 -1.85477
1.58153 0.838902 -0.551504
1.53658 0.897194 0.747053
1.40873 0.902023 2.05159
1.3999 0.948625 3.12011
1.41756 0.994801 4.18948
1.56153 1.56832 -2.76504
1.56099 1.64569 -1.7183
1.54666 1.77644 -0.436564
1.49851 1.87786 0.830859
1.44117 1.92095 2.11329
1.4231 1.94741 3.16148
1.42311 1.98118 4.2236
-0.786921 0.443482 -1.95031
7.59959e-05 0.196534 -2.01347
-0.768746 0.173933 -1.31513
-0.708261 0.595 2.10448
0 0.29247 2.08674
-0.771091 0.209445 1.40435
0 0.774161 -1.93716
-0.839671 0.787676 -1.18833
-1.44839e-05 0.965838 2.11584
-0.748292 0.940461 1.39833
0.787533 0.443524 -1.95085
0.768873 0.173933 -1.31514
0.709477 0.595 2.10569
0.77111 0.209451 1.40432
0.83723 0.78531 -1.18833
0.747988 0.940196 1.39833
-0.769944 0.191663 0.04461
-0.847748 0.504427 -0.588463
5.02398e-05 0.178825 -0.635265
-0.86993 0.548247 0.738073
9.63968e-05 0.179752 0.72447
-0.802969 0.873056 0.105
-0.000301813 1.03874 -0.541667
-9.2032e-05 1.3042 0.751667
0.770003 0.19168 0.0445949
0.847587 0.504159 -0.588468
0.870003 0.548108 0.738063
0.802919 0.873062 0.105
-0.878944 0.473955 -1.25173
0.878893 0.473841 -1.25173
6.31179e-05 0.1716 -1.31513
-0.000150907 0.90184 -1.18833
3.7998e-05 0.443503 -2.25792
-0.85502 0.526337 0.074805
0.855341 0.526133 0.0747975
7.33183e-05 0.193409 0.0446025
-0.000196923 1.30232 0.105
-0.893185 0.571623 1.40134
0.893268 0.571554 1.40133
4.81984e-05 0.200215 1.40434
-5.32579e-05 1.08577 1.39833
-7.24196e-06 0.595 2.23925
-0.745061 0.329241 -1.96515
-0.359069 0.197005 -2.01299
-0.76451 0.173437 -1.65507
-0.713431 0.445 2.10615
-0.3475 0.285482 2.09373
-0.765144 0.220124 1.74428
-0.792393 0.557723 -1.89909
-0.3925 0.741501 -1.90452
-0.827657 0.745142 -1.51167
-0.675336 0.745 2.07505
-0.320902 0.952886 2.10289
-0.703977 0.926666 1.72167
0.359221 0.196871 -2.01313
0.746006 0.329262 -1.96598
0.764649 0.173437 -1.65507
0.3475 0.285612 2.09359
0.713325 0.445 2.10603
0.764929 0.220351 1.74426
0.3925 0.74142 -1.90439
0.792405 0.557786 -1.89906
0.827815 0.745379 -1.51167
0.320873 0.952793 2.10279
0.675265 0.745 2.07499
0.703976 0.926699 1.72167
-0.772927 0.174485 -0.975195
-0.770938 0.185938 -0.295325
-0.848131 0.323163 -0.611862
-0.386408 0.178606 -0.635263
-0.775334 0.20047 1.06442
-0.779641 0.186698 0.384545
-0.861632 0.349013 0.731277
-0.394719 0.180504 0.724475
-0.826819 0.805344 -0.865
-0.873993 0.686706 -0.565065
-0.812079 0.851646 -0.218333
-0.439833 0.993434 -0.541667
-0.770713 0.932361 1.075
-0.861994 0.749088 0.74487
-0.794277 0.894884 0.428333
-0.474626 1.27505 0.751667
0.77304 0.174485 -0.975203
0.386508 0.178607 -0.635268
0.771026 0.185939 -0.295338
0.848133 0.323013 -0.611869
0.77537 0.200472 1.06439
0.394876 0.180505 0.724465
0.77973 0.186673 0.384528
0.863376 0.348067 0.731262
0.82677 0.805366 -0.865
0.439391 0.993489 -0.541667
0.873961 0.686478 -0.565068
0.812416 0.852043 -0.218333
0.770558 0.932249 1.075
0.474481 1.27506 0.751667
0.862053 0.749008 0.744865
0.794264 0.894923 0.428333
-0.859384 0.458718 -1.60102
-0.393442 0.443492 -2.20466
6.95569e-05 0.171248 -1.6643
5.69969e-05 0.320018 -2.20056
-0.861662 0.323944 -1.28343
-0.384342 0.1716 -1.31513
-0.834009 0.583312 1.75291
-0.354134 0.595 2.21918
2.40992e-05 0.215922 1.74554
-3.62098e-06 0.443735 2.23615
-0.86663 0.390534 1.40285
-0.385521 0.200215 1.40434
-7.54533e-05 0.851061 -1.56274
1.8999e-05 0.608832 -2.15542
-0.893923 0.630815 -1.22003
-0.419911 0.879381 -1.18833
-3.38709e-05 1.00605 1.75709
-1.08629e-05 0.780419 2.15329
-0.863674 0.756042 1.39984
-0.374173 1.05646 1.39833
0.859388 0.458683 -1.60129
0.393785 0.443513 -2.20449
0.860553 0.323887 -1.28343
0.384468 0.1716 -1.31513
0.833769 0.583277 1.75351
0.354735 0.595 2.21909
0.866675 0.390503 1.40283
0.385579 0.200214 1.40433
0.893941 0.629576 -1.22003
0.41854 0.879853 -1.18833
0.863754 0.755875 1.39983
0.373968 1.05731 1.39833
-0.853525 0.338479 0.0597075
-0.386831 0.188746 0.0446062
-0.873691 0.489191 -0.920098
-0.853274 0.515382 -0.256829
5.66789e-05 0.171972 -0.975199
6.17791e-05 0.186119 -0.295331
-0.858178 0.537292 0.406439
-0.895536 0.559935 1.06971
8.48576e-05 0.18658 0.384536
7.22976e-05 0.189842 1.0644
-0.867515 0.718956 0.0899025
-0.49211 1.26874 0.105
-0.00022636 0.932762 -0.865
-0.000249368 1.19347 -0.218333
-0.000144477 1.3264 0.428333
-7.2645e-05 1.22441 1.075
0.853593 0.338446 0.0596962
0.386931 0.188759 0.0445987
0.873568 0.489 -0.920101
0.853305 0.515146 -0.256836
0.858306 0.53712 0.40643
0.895528 0.559831 1.0697
0.867565 0.718815 0.0898988
0.491893 1.26875 0.105
-0.846241 0.326592 -1.62804
-0.85772 0.33312 -0.947646
-0.878863 0.648686 -0.892549
-0.880042 0.594269 -1.55634
0.845236 0.326575 -1.62818
0.880086 0.593681 -1.55648
0.879357 0.647865 -0.892551
0.857438 0.333025 -0.947652
-0.371706 0.171253 -1.65968
0.371845 0.171253 -1.65968
0.385266 0.171973 -0.975201
-0.385152 0.171972 -0.975197
-0.406205 0.824629 -1.53721
-0.414941 0.909042 -0.865
0.413954 0.909119 -0.865
0.40552 0.825256 -1.53721
-0.376256 0.32463 -2.14685
-0.392971 0.583277 -2.10493
0.393143 0.583309 -2.10484
0.376503 0.32464 -2.14738
-0.850144 0.331163 -0.276077
-0.857289 0.343891 0.395492
-0.864522 0.733906 0.417386
-0.87003 0.702469 -0.237581
0.850178 0.331072 -0.276087
0.870103 0.702317 -0.237584
0.864641 0.733828 0.417382
0.857128 0.343935 0.395479
-0.386032 0.18485 -0.295328
0.386136 0.184851 -0.295334
0.390436 0.185567 0.384532
-0.390302 0.18557 0.384541
-0.474648 1.14844 -0.218333
-0.495403 1.29596 0.428333
0.495303 1.29614 0.428333
0.474395 1.14863 -0.218333
-0.873466 0.377784 1.06706
-0.827264 0.417767 1.7486
-0.796057 0.750521 1.73729
-0.878552 0.743751 1.07235
0.873455 0.377697 1.06704
0.878568 0.743599 1.07235
0.795951 0.750437 1.73759
0.827254 0.417751 1.74888
-0.39005 0.189842 1.06441
0.390175 0.189842 1.0644
0.36654 0.219101 1.7449
-0.366511 0.219102 1.74491
-0.382996 1.20134 1.075
-0.347537 0.9944 1.73938
0.34742 0.994579 1.73938
0.382801 1.20173 1.075
-0.350817 0.444367 2.21932
0.351117 0.444367 2.21919
0.337804 0.762709 2.18085
-0.337518 0.762709 2.18107
-0.7302 0.272121 -1.97864
-0.538642 0.197047 -2.01295
-0.754383 0.181198 -1.82503
-0.703546 0.37 2.09452
-0.52125 0.278574 2.10064
-0.738906 0.248728 1.91425
-0.793389 0.614843 -1.87174
-0.58875 0.711943 -1.87497
-0.807232 0.709457 -1.67333
-0.666531 0.82 2.06799
-0.481346 0.935805 2.0858
-0.678681 0.916631 1.88333
0.538794 0.196871 -2.01313
0.730139 0.272131 -1.97844
0.754529 0.181198 -1.82503
0.52125 0.278954 2.10024
0.703363 0.37 2.09431
0.738361 0.249279 1.91422
0.58875 0.712051 -1.87501
0.793465 0.614917 -1.87179
0.807653 0.709959 -1.67333
0.481317 0.935731 2.08573
0.666623 0.82 2.06811
0.678735 0.916716 1.88333
-0.774905 0.174872 -0.805228
-0.768816 0.185694 -0.465293
-0.852617 0.230383 -0.623561
-0.579348 0.179075 -0.635261
-0.774839 0.198599 0.894448
-0.781814 0.186892 0.554513
-0.859684 0.248295 0.727878
-0.592018 0.181097 0.724478
-0.82262 0.816405 -0.703333
-0.862559 0.765568 -0.553366
-0.815618 0.839924 -0.38
-0.648397 0.948381 -0.541667
-0.777645 0.924033 0.913333
-0.847624 0.844308 0.748268
-0.788929 0.904797 0.59
-0.64413 1.12495 0.751667
0.775013 0.174872 -0.805236
0.579449 0.179075 -0.635269
0.768907 0.185698 -0.465304
0.852524 0.230381 -0.62357
0.774886 0.198596 0.894426
0.592157 0.181097 0.724463
0.781968 0.186795 0.554494
0.858701 0.248727 0.727861
[...]
POINT_DATA 3682
SCALARS point_scalars float 1
LOOKUP_TABLE default
-77.5082
-43.3223
-63.3914
-35.8476
-78.16
-43.3914
-62.6123
-35.8412
-37.6741
-36.5298
-42.0512
-49.8132
-37.6778
-36.5491
-41.9032
-49.8294
-47.884
-98.456
-37.0249
-39.3157
-48.1245
-42.0534
-37.1902
75.2466
-84.3697
-37.0342
-37.6023
-46.2106
-38.8356
-36.319
78.8117
-63.624
-39.6263
-45.3628
-41.0271
-37.5989
-36.319
-45.0845
-58.8019
-68.8218
-58.9291
-38.0194
-35.7876
-34.9202
84.4942
-136.219
-38.1929
-37.1796
-45.4545
-38.6011
-36.3278
170.065
-36.3284
-36.1929
154.648
-34.7434
-35.6112
-19.4011
-43.6181
-57.6976
-60.5943
-33.706
-32.0431
-32.4306
91.5207
-121.34
-38.2553
-37.2649
-45.412
-38.5759
-36.3278
155.668
-36.3064
-36.1009
155.204
-34.5908
-35.7284
-17.1929
-43.2778
-58.7347
-63.2163
-33.0402
-31.8655
-32.1636
-39.4012
-97.3803
-37.0756
-39.4292
-47.4352
-41.9367
-37.0086
77.0125
-84.1688
-37.0862
-38.0779
-46.0732
-38.2081
-36.2994
68.4881
-64.3209
-39.638
-45.4817
-41.0517
-36.9522
-36.2994
-44.6911
-57.1478
-68.2704
-59.9887
-35.9342
-35.7809
-34.8332
-56.7355
-109.307
-51.7673
-37.7379
-42.0367
-41.9231
-54.2014
-50.8236
-29.4811
-43.5945
-57.738
-51.7882
-37.7307
-41.9234
-49.9715
-43.6468
-31.6684
-34.9095
-39.1976
-37.4729
-37.9151
-51.8929
18.1122
-64.797
-31.5145
-34.8606
-37.9033
-51.9257
-54.6187
-54.6058
-54.9167
-18.1889
210.207
-37.0971
-37.0635
-32.5022
-91.5734
-47.5369
-47.4981
-42.3999
-36.8829
-31.4235
-35.5736
-117.016
-72.4332
-40.1959
-42.1512
-48.6006
-42.11
-54.5259
-46.0483
-37.6423
-31.0769
-38.1613
-119.724
-36.8003
-72.5049
-42.1346
-40.1674
-48.5556
-54.3531
-42.4716
-46.2696
-31.0476
-37.6095
-38.101
-40.2036
-33.5239
-35.1437
-38.6739
-39.6255
-33.3348
-34.96
-37.8681
-36.2302
-38.4194
-51.0142
6.78284
-47.545
-41.876
-50.8225
-62.7144
-40.2185
-38.6736
-33.5731
-35.2035
-39.6083
-37.8815
-33.4345
-35.0218
-36.1078
6.95688
-38.4126
-50.9298
-47.353
-62.7379
-41.9801
-50.7226
-72.4279
180.623
-72.702
159.016
-54.7822
-54.3972
-45.6025
-34.6415
-43.3398
-35.4237
-45.597
-42.5769
-33.7749
142.343
-55.3152
-24.2323
-33.7383
-29.0997
-50.3563
-38.0488
-72.4572
180.56
-54.7613
-54.441
-45.5417
-34.6144
-45.5799
-42.5864
-55.2415
-24.3129
-50.322
-38.0516
-33.9142
-32.419
-43.5408
-36.2142
-44.9636
-34.8253
-37.2154
-43.2902
-34.6975
-40.7947
-42.3652
-86.3372
-0.429496
-14.7894
-85.3988
-46.0483
-33.9044
-32.4147
-43.5745
-36.1449
-37.2209
-43.2732
-42.3443
-86.7187
-71.1562
-42.9514
-40.6205
-71.3003
-70.9348
-71.0584
-40.5889
-42.967
-73.1159
-73.215
-44.4771
-44.4652
-35.4913
-7.77098
-7.66036
-35.476
145.291
107.524
107.432
140.286
-33.9306
-34.5173
-40.4382
-41.4346
-33.8973
-41.4153
-40.4564
-34.5332
-34.4228
-34.4211
-34.4269
-34.417
-23.7881
-75.9331
-76.0164
-25.0013
-42.2624
-48.399
-43.1145
-43.3282
-42.2585
-43.3596
-43.0685
-48.3437
-40.6668
-40.6694
-44.263
-44.2365
-46.9392
-34.2488
-34.2404
-47.1329
-36.357
-36.339
-33.4852
-33.5229
-25.0242
-139.674
-97.6646
-41.3525
-42.5095
-46.829
-50.2481
-42.6013
-52.9035
-37.1294
-32.5349
-36.5861
-140.255
-25.9229
-97.3062
-42.4733
-41.3091
-46.8214
-43.5379
-50.1077
-53.4676
-32.5025
-37.0914
-36.5498
-40.4526
-34.3593
-36.4803
-38.0709
-41.82
-33.9011
-34.1489
-38.008
-36.5469
-40.3112
-48.2812
-15.6586
-48.2744
-45.0086
-50.1611
-55.408
-40.4946
-38.0737
-34.3345
-36.582
-41.8863
-38.0395
-33.9351
-33.9816
-36.4464
-15.612
-40.2721
-48.3681
-48.3484
-55.4598
-45.1031
-50.3661
-45.9257
-53.851
-81.7583
131.7
-116.225
-116.467
-86.225
132.708
-59.4193
-45.8908
-53.7491
-53.0673
-39.3807
-37.6052
-42.0637
-35.0537
-41.9722
-41.9642
-43.2283
-36.0605
-46.3369
-41.7659
-44.5495
-42.4237
-61.1732
-60.9542
-42.1827
75.5331
-54.1554
-41.6436
-56.4244
-30.8009
-29.9788
-29.9586
-31.8907
-27.1551
-40.3412
-46.2548
-46.9611
-39.8271
-45.5906
-54.2548
-81.7454
131.351
-59.4481
-45.9077
-53.7244
-53.1105
-39.3574
-37.5552
-41.9678
-35.034
-46.3701
-41.7722
-44.5332
-42.4125
-54.2938
-41.4583
-56.219
-30.8643
-40.3497
-46.1606
-46.9186
-39.8151
-31.2913
-31.837
-32.0595
-32.1035
-34.6801
-36.48
-38.1673
-35.3309
-39.1001
-39.1011
-42.5273
-35.926
-36.8483
-39.1802
-37.4694
-37.6507
-37.923
-37.9295
-35.7506
-40.3368
-52.1554
-51.0866
-46.6107
-68.7159
15.4876
15.518
12.0208
7.36883
-64.1652
-64.1888
-74.552
-54.3333
-31.2228
-31.8818
-31.9166
-32.0833
-34.7128
-36.4802
-38.184
-35.3045
-36.7809
-39.2978
-37.5514
-37.6765
-52.2467
-51.2965
-46.5745
-68.7701
-62.6343
-54.8638
-55.2398
-47.4143
-62.6177
-54.8257
-55.2009
-47.4122
-63.3658
-54.9701
-55
-49.0667
-26.905
-19.7572
-19.7821
-9.97283
201.931
176.598
157.824
201.982
-35.3052
-36.7406
-37.198
-39.1501
-35.276
-36.7528
-37.2698
-39.1173
-32.543
-32.6732
-32.4615
-32.5443
-89.593
-57.9416
-92.4161
-89.7474
-51.5931
-46.2787
-49.5098
-44.8532
-51.5507
-46.2628
-49.4571
-44.8115
-43.1856
-42.4524
-42.4553
-41.7515
-35.6356
-37.2181
-37.198
-40.4831
-32.8208
-34.3695
-30.0129
-32.7852
-83.5079
120.231
-89.5287
89.2713
-72.7723
-72.507
-43.4747
-36.6954
-44.3333
-37.2115
-49.0507
-45.4527
-67.9138
69.8501
-44.6303
28.4705
-61.2028
-38.7455
-40.795
-35.0031
-32.1363
-31.8382
-41.7208
-35.1365
-89.8829
83.9993
-83.7809
119.814
-72.92
-72.581
-44.4531
-37.1979
-43.419
-36.6797
-48.9892
-45.483
-44.6345
30.4796
-68.0979
69.7341
-61.0909
-38.7767
-32.124
-31.8054
-40.7721
-34.9741
-41.6889
-35.1217
-41.2834
-43.4818
-33.5048
-33.9606
-39.2426
-34.4247
-42.0475
-35.5488
-41.2623
-40.3526
-34.1208
-34.0743
-34.8962
-41.3343
-35.6272
-40.2618
-39.9473
-18.3066
-37.9923
-39.9814
-45.2133
-71.9912
-0.0766545
-1.65871
-45.4263
-48.9653
-41.8757
-41.122
-44.316
-59.512
-68.9455
-54.8032
-41.2756
-43.499
-42.0412
-35.5514
-33.504
-33.9572
-39.2593
-34.34
-41.2619
-40.3418
-35.6397
-40.2696
-34.1712
-34.0931
-35.0171
-41.3404
-39.9438
-18.2242
-0.0529906
-1.61923
-38.0116
-39.964
-45.1876
-71.4023
-45.5598
-48.9002
-68.9707
-54.8195
-42.0285
-41.1735
-44.2818
-59.5558
-72.097
-72.6277
152.318
134.063
-73.4463
-73.439
144.248
143.958
-63.7163
-47.6898
-62.121
-48.5525
-47.6771
-44.1475
-36.057
-34.5655
-43.5064
-43.5064
-35.8799
-35.8581
-43.3662
-52.1744
-41.6924
-43.9424
-34.2777
-34.2852
132.987
133.528
-46.1892
-63.7221
-30.1512
-16.9267
-33.8633
-33.859
-30.2115
-30.2517
-46.3987
-47.7425
-41.4676
-36.3402
-71.8939
-72.7351
134.326
151.559
-63.7687
-47.6622
-62.473
-48.5815
-44.1026
-47.6241
-36.0384
-34.546
-43.3525
-52.1534
-41.6954
-43.954
-63.6275
-46.083
-16.9108
-30.1935
-47.6318
-46.3592
-36.3367
-41.4635
-33.7752
-34.3287
-32.5751
-32.3738
-42.9486
-42.9813
-34.9705
-38.2186
-44.9262
-44.5855
-34.7465
-34.7482
-35.5464
-38.7871
-42.8716
-42.9987
-34.6426
-34.6374
-40.7648
-40.7675
-41.8391
-42.1886
-58.8473
-83.9234
-2.68684
-2.69017
-19.8929
-19.9197
-83.0987
-83.1146
-46.2745
-46.285
-33.7448
-34.3474
-32.5726
-32.3809
-43.2555
-42.9414
-34.9039
-38.16
-38.7803
-35.6175
-42.8605
-42.9919
-42.2221
-41.8919
-83.9904
-57.4864
-88.0296
-62.9208
-63.0631
-81.8473
-41.8927
-38.4921
-47.756
-47.1215
-38.5816
-45.255
-46.7749
-37.794
-59.8544
-76.6468
-62.5185
-64.8524
-87.7686
-81.8018
-63.0417
-62.9174
-60.6074
-64.5636
-62.4327
-76.4633
-38.595
-37.7553
-46.7636
-45.2807
-41.9427
-47.1053
-47.7465
-38.4972
-90.8307
-88.4533
-62.5336
-60.8668
-90.9803
-60.9227
-62.5708
-88.6303
-41.2714
-42.4058
-49.1169
-47.362
-41.2655
-47.3329
-49.0945
-42.4174
-51.2114
-35.3143
-27.4429
-42.6152
-18.2041
8.9576
-12.2426
-26.398
-18.0509
-26.2917
-12.2612
8.98286
-51.2468
-42.5861
-27.4906
-35.4549
88.4708
108.051
171.88
58.2867
27.1726
85.3473
139.158
95.3791
27.3446
95.3214
139.2
85.615
89.018
58.8356
171.619
108.697
-34.4905
-32.5233
-35.1
-34.694
-33.0121
-35.9831
-35.4152
-33.7723
-47.8676
-45.9408
-39.0015
-39.3228
-43.0938
-37.1067
-38.9151
-46.1217
-34.3877
-34.6535
-35.1049
-32.4414
-43.1803
-46.1628
-38.9488
-37.09
-48.0116
-39.4335
-39.067
-45.55
-33.2369
-33.7427
-35.4471
-36.0393
-34.9022
-35.8519
-32.6215
-32.0032
-34.903
-31.9857
-32.6232
-35.8551
-35.3552
-35.7293
-32.4183
-32.1347
-35.3112
-32.1289
-32.4139
-35.7206
-45.6659
-73.4489
-55.0986
6.03105
-56.8355
-73.7676
-91.6912
-63.0369
-56.8742
-63.0881
-91.6962
-73.7871
-45.875
5.97943
-54.86
-73.2946
-43.4883
-42.6126
-44.0955
-39.1537
-44.3993
-43.0669
-51.8648
-52.2569
-39.8994
-44.3073
-49.8273
-41.5151
-44.4569
-38.4354
-45.7547
-47.7022
-43.5592
-39.2034
-44.0691
-42.6067
-44.8593
-47.5142
-45.7053
-38.4676
-39.9075
-41.4373
-49.7737
-44.2658
-44.3875
-52.2562
-51.8305
-42.9813
-40.3143
-40.3027
-41.7416
-41.4813
-40.336
-41.4997
-41.7442
-40.306
-46.5492
-43.3505
-43.3284
-44.6471
-46.4962
-44.6275
-43.3247
-43.3978
-52.1191
-44.2577
-40.7246
-54.4324
-33.2763
-31.9201
-35.8995
-37.2059
-33.2427
-37.2006
-35.8971
-31.9105
-52.2099
-54.4448
-40.7354
-44.2244
-38.9301
-36.3592
-35.2508
-36.1227
-38.908
-36.1014
-35.2361
-36.341
-34.1694
-28.5946
-31.1666
-35.2405
-34.1986
-35.2608
-31.2101
-28.6612
-38.6117
-111.478
-105.593
-42.1064
-42.9834
-44.7924
-55.8694
-23.7141
-73.9003
-36.8116
-34.0727
-36.1179
-111.302
-39.6847
-105.64
-43.0819
-42.2135
-44.7369
-23.7343
-55.4481
-74.4548
-34.046
-36.7727
-36.0338
-39.2767
-35.7929
-37.4292
-37.7781
-43.3013
-34.5646
-33.8374
-38.1551
-39.8498
-40.8052
-45.4352
-38.4174
-48.9926
-47.4691
-49.8946
-52.1078
-39.2872
-37.7818
-35.7868
-37.4635
-43.461
-38.1972
-34.575
-33.6612
-39.8401
-38.3517
-40.6706
-45.3041
-49.0236
-52.0767
-47.5446
-50.0439
-52.6005
-54.611
-82.6172
63.6104
-110.678
-110.748
-95.87
-16.4428
-55.5967
-47.7203
-53.106
-52.1742
-38.4956
-37.2502
-40.1903
-35.5926
-42.1101
-42.1209
-46.162
-37.3812
-43.5224
-42.1729
-43.2889
-42.0216
-56.9843
-56.8502
-47.4823
-44.293
-53.2968
-45.5618
-54.655
-39.5175
-29.6665
-29.6497
-31.6149
-26.4152
-41.8728
-44.7629
-45.2289
-41.4715
-53.516
-55.6258
-82.6652
63.482
-55.6217
-47.7356
-53.1129
-52.2029
-38.4831
-37.188
-40.134
-35.5787
-43.5322
-42.1698
-43.2802
-42.0219
-53.9776
-44.5151
-54.53
-39.5216
-41.825
-44.8539
-45.2199
-41.4617
-31.843
-31.8656
-32.3625
-31.9179
-34.5681
-35.6364
-36.9113
-35.2491
-39.1934
-39.1943
-40.6412
-37.527
-37.1844
-38.1491
-37.4406
-37.1519
-38.0098
-38.0127
-36.0422
-40.1098
-52.24
-51.3978
-49.554
-58.4325
17.6069
17.5507
16.8886
14.5801
-64.8018
-64.8055
-69.8666
-58.9503
-31.6376
-31.8735
-31.9237
-31.8758
-34.5497
-35.5963
-36.9417
-35.2059
-37.2495
-38.2754
-37.3693
-37.1811
-52.3826
-51.3713
-49.553
-58.4285
-58.4503
-54.8154
-54.781
-51.1833
-58.4429
-54.7829
-54.7629
-51.1526
-58.5646
-54.9596
-54.9753
-51.7348
-22.3591
-18.5746
-18.5715
-14.6153
205.997
202.567
192.31
206.354
-36.1399
-36.9466
-37.1099
-37.9396
-36.0583
-36.9429
-37.1032
-37.935
-32.5146
-32.5987
-32.5293
-32.5159
-91.4209
-78.361
-94.2164
-91.4181
-49.8606
-46.847
-48.2352
-46.1651
-49.8022
-46.8199
-48.1906
-46.1198
-43.1587
-42.4211
-42.4228
-41.9121
-35.8711
-36.9472
-36.944
-38.4791
-31.7835
-32.8743
-30.113
-31.7571
-31.5499
-44.4301
-84.4322
51.614
-128.493
-116.541
-102.012
-73.7247
-82.2807
-66.9767
-73.8142
-72.4347
-40.7039
-39.6502
-41.7327
-37.4488
-42.6214
-42.1098
-45.8838
-38.1654
-48.0372
-47.3248
-49.7744
-46.137
-46.4655
-48.4563
-83.33
37.101
-51.5229
-54.4517
-49.752
-32.6809
-47.4673
-52.5819
-49.7291
-43.4768
-37.3497
-37.6741
-39.8965
-35.6351
-31.6257
-30.3182
-31.5722
-31.0918
-37.2373
-39.2845
-40.7771
-36.1558
-130.637
-117.311
-102.646
-56.9517
-32.8215
-45.2962
-85.2897
50.6918
-82.4042
-67.015
-73.0026
-72.483
-42.5635
-42.0963
-45.8691
-38.145
-40.6506
-39.6089
-41.7031
-37.4162
-48.0541
-47.3537
-49.5678
-46.1548
-51.6256
-54.2991
-49.7595
-32.9766
-46.5623
-48.8385
-83.448
37.1517
-47.8958
-52.7529
-49.985
-43.633
-31.604
-30.2965
-31.551
-31.0322
-37.3199
-37.6374
-39.8644
-35.6036
-37.0317
-39.1875
-40.7428
-36.1339
-41.0101
-43.425
-39.3952
-42.6698
-33.3014
-32.4975
-33.3062
-33.8513
-35.3799
-35.0317
-35.847
-34.7637
-38.3784
-38.9613
-40.1232
-37.0537
-38.8599
-39.9631
-40.703
-39.9936
-34.0174
-31.8725
-32.8495
-33.8522
-34.1153
-35.9869
-35.3124
-38.6078
-37.8519
-37.9669
-36.0763
-40.0128
-35.5211
-38.3708
-38.9123
-28.9699
-39.3144
-37.4452
-37.7387
-39.066
-49.8724
-51.7287
-47.9596
-61.1298
-1.42395
12.3621
4.61656
5.09818
-47.7666
-46.6373
-46.4868
-48.0359
-43.9444
-40.4488
-42.2438
-41.2467
-50.6383
-50.8031
-48.4356
-54.5138
-59.9482
-63.6007
-66.2037
-59.4387
-41.0294
-43.4411
-39.4105
-42.6859
-38.3795
-38.9602
-40.1459
-37.0541
-33.2937
-32.5037
-33.4603
-33.8509
-35.4644
-35.0754
-35.8908
-34.7538
-38.8492
-39.965
-40.6866
-39.9801
-37.8717
-37.9755
-36.0908
-40.0223
-34.0392
-31.9379
-33.272
-33.8825
-34.0651
-36.0665
-35.245
-38.8971
-35.518
-38.8001
-38.9588
-28.9055
-1.13687
12.4023
4.58594
5.43927
-39.3252
-37.4422
-37.746
-39.0651
-49.8066
-51.7549
-47.8925
-61.0676
-47.7883
-46.5156
-46.5944
-48.0881
-60.0442
-63.6133
-66.2179
-59.4365
-43.9998
-40.5734
-42.4021
-41.2854
-50.639
-50.8389
-48.5913
-54.5487
-74.4791
-67.907
-71.5798
-72.278
162.648
197.809
173.329
170.588
-78.8145
-67.9753
-73.1163
-73.1029
151.047
159.502
151.151
150.4
-54.5583
-54.7779
-57.9736
-51.6084
-53.8284
-54.8011
-58.1091
-51.2004
-43.5224
-48.8676
-46.762
-44.792
-34.9216
-33.9365
-35.49
-34.462
-43.3931
-43.0656
-43.368
-43.3692
-35.4762
-35.0075
-35.5723
-35.5615
-45.6185
-45.785
-44.4975
-47.9562
-42.5961
-42.5266
-41.9365
-43.615
-37.55
-29.9296
-33.7963
-33.7714
127.334
145.087
134.516
134.617
-56.0799
-55.4153
-50.3503
-58.6858
-27.2678
-21.6622
-27.5398
-20.6138
-32.6342
-34.811
-33.7505
-33.7475
-28.7876
-29.6533
-29.6986
-29.7237
-48.4164
-51.2833
-48.7605
-50.3169
-38.8044
-37.5905
-39.5643
-37.0744
-74.2233
-67.9247
-71.4303
-72.3705
162.84
197.722
170.741
173.128
-54.5086
-54.7406
-57.9396
-51.5847
-53.877
-54.8408
-58.1036
-51.2363
-43.4438
-48.8282
-44.7414
-46.6982
-34.8946
-33.898
-35.4683
-34.4417
-45.5934
-45.7747
-44.4732
-47.9392
-42.5995
-42.5219
-41.9402
-43.6219
-55.9013
-55.3471
-58.6904
-50.328
-27.2748
-21.779
-20.6728
-27.5548
-48.3912
-51.231
-50.223
-48.7376
-38.8701
-37.578
-37.0677
-39.5795
-33.2817
-34.5411
-33.8357
-34.0516
-32.1523
-32.5241
-32.3082
-32.5637
-40.3534
-44.7142
-43.262
-43.529
-35.7215
-36.6294
-35.4831
-37.0956
-43.4254
-46.868
-44.9844
-44.0814
-35.1738
-33.7712
-34.91
-34.9117
-37.2722
-37.2556
-36.3523
-37.8272
-40.9106
-43.9215
-42.9952
-43.4284
-35.1674
-33.4185
-34.6794
-34.6765
-40.2921
-41.4826
-40.7819
-40.7835
-44.2753
-40.6943
-42.1821
-42.2989
-82.7999
-86.7518
-70.3376
-86.254
5.75958
-5.32231
-0.997907
-0.994812
-4.5011
-38.4488
-18.5374
-13.1724
-80.4231
-89.3161
-84.7857
-84.788
-50.1049
-43.0991
-46.1177
-46.118
-33.2692
-34.5427
-33.7982
-34.0672
-32.1422
-32.524
-32.3031
-32.5638
-40.2528
-44.7553
-43.6117
-43.2616
-35.6893
-36.5742
-35.4489
-36.9973
-37.2633
-37.335
-37.8241
-36.4438
-40.9059
-43.8869
-42.9789
-43.4022
-44.2426
-40.6771
-42.3359
-42.1654
-82.933
-87.1302
-86.2877
-70.0094
-76.9341
-70.6375
-71.896
-71.7665
-43.4262
-42.557
-45.0354
-42.7199
-40.4663
-39.199
-43.513
-41.4999
-68.0747
-69.222
-72.0953
-70.5573
-76.6813
-70.3785
-71.6275
-71.8856
-68.4696
-68.9822
-72.0802
-70.2822
-40.4391
-39.3099
-43.3651
-41.8294
-43.4421
-42.5321
-45.0307
-42.7232
-80.2783
-73.0012
-73.478
-67.2932
-80.4976
-73.1081
-73.5742
-67.9497
-44.0764
-42.9514
-46.4048
-44.7852
-44.0614
-42.9488
-46.3829
-44.7699
-39.1556
-35.9108
-35.0861
-32.705
-11.8204
-3.29261
-12.9649
-4.71267
-11.7158
-3.09728
-12.8635
-4.65522
-39.0447
-35.9303
-35.0442
-32.9288
132.896
142.881
143.986
148.731
84.6939
82.5378
115.506
125.325
82.0868
85.0558
126.158
115.445
139.775
134.138
148.344
140.956
-33.4924
-34.1077
-33.8292
-34.4444
-34.2131
-34.6838
-34.3961
-34.9637
-40.9487
-40.6596
-39.7914
-41.4097
-40.8085
-43.2159
-39.6831
-41.9166
-33.4626
-34.039
-33.808
-34.3918
-40.7596
-43.2024
-39.6454
-41.9187
-41.0008
-40.6837
-39.7863
-41.4758
-34.2152
-34.6935
-34.4252
-34.9991
-34.2829
-34.8068
-33.4591
-34.7495
-34.8071
-34.2794
-34.7483
-33.4581
-35.015
-34.2738
-34.5388
-33.2642
-34.2603
-35.0032
-33.255
-34.5314
-38.479
-10.3315
-41.8374
-21.2675
-66.8217
-72.7745
-78.7024
-80.9683
-72.8934
-66.9043
-81.0157
-78.7683
-10.6955
-39.089
-21.3853
-41.3699
-42.0246
-41.152
-42.5987
-42.5119
-45.8225
-48.6947
-48.1191
-51.5629
-41.8113
-42.3981
-43.6181
-44.4118
-44.7652
-41.4325
-45.213
-42.7076
-42.0223
-41.1476
-42.5875
-42.5043
-44.7674
-41.5046
-45.2038
-42.6913
-41.782
-42.3453
-43.577
-44.3631
-45.7557
-48.6229
-48.0676
-51.5139
-40.5459
-40.1759
-41.382
-40.7247
-40.5404
-40.1817
-41.3842
-40.7279
-44.4471
-44.8882
-43.7605
-43.9946
-44.3986
-44.8532
-43.7516
-43.9774
-48.0811
-50.6445
-44.0953
-46.6178
-33.1113
-34.5558
-34.0324
-35.2787
-33.097
-34.5434
-34.0262
-35.2732
-48.0494
-50.6908
-44.0641
-46.61
-36.4866
-36.5848
-36.2927
-36.2425
-36.5732
-36.4494
-36.2178
-36.2741
-32.6861
-34.5142
-31.5014
-34.1927
-34.5502
-32.7273
-34.2278
-31.5408
-80.3247
46.6205
-109.098
9.56903
-95.7383
-92.1579
-42.581
-38.5927
-44.5102
-41.4219
-45.5308
-46.4495
-79.9315
29.6714
-57.4914
-4.53767
-54.682
-56.156
-38.9985
-35.0666
-32.5722
-33.5299
-38.9697
-34.447
-109.437
11.8947
-81.2589
46.459
-94.8662
-92.1958
-44.5015
-41.413
-42.5421
-38.5729
-45.5094
-46.5025
-57.5081
-4.54127
-79.1855
29.6754
-55.632
-56.3675
-32.5431
-33.5028
-38.9604
-35.031
-38.9754
-34.4257
-40.0669
-40.9902
-35.0523
-34.4592
-36.9153
-34.9625
-39.3427
-36.4246
-44.4583
-40.6273
-33.7307
-35.013
-34.3347
-41.3517
-35.7981
-40.2963
-37.5279
-30.1064
-39.0473
-41.3449
-45.0758
-62.3858
-14.1416
-20.2868
-46.5483
-49.7196
-46.1225
-44.8261
-48.3599
-52.947
-56.0394
-53.2557
-40.143
-41.0032
-39.3484
-36.4258
-34.9774
-34.4542
-36.9719
-35.0896
-44.596
-40.6563
-35.8226
-40.3398
-33.7792
-35.0399
-34.803
-41.4737
-37.4692
-29.926
-13.9026
-20.4569
-39.0655
-41.3799
-45.1896
-62.4288
-46.7595
-49.7524
-56.0589
-53.4597
-46.4288
-44.7929
-48.7692
-53.0883
-83.6456
60.4155
-82.5409
50.3428
-82.2414
-79.464
124.274
126.528
-99.6503
2.50744
-99.8803
2.72728
-86.9805
-87.1204
86.7662
84.5046
-62.9331
-60.4337
-46.4453
-46.4593
-57.0329
-50.9875
-56.8575
-49.9107
-41.2733
-36.8463
-40.1469
-35.7264
-42.5474
-41.8373
-35.7036
-35.0448
-46.0124
-37.643
-46.0151
-37.6197
-43.3462
-43.3511
-36.0334
-36.0252
-50.308
-44.9742
-42.6641
-41.636
-43.7092
-47.9591
-41.6986
-43.884
-49.0916
-30.2681
-49.0008
-30.2093
-42.1723
-42.2014
75.9576
75.8674
-61.3244
-42.0423
-43.8896
-35.6029
-50.1227
-59.9762
-32.9576
-28.4483
-31.5109
-27.8505
-31.499
-27.7919
-31.9049
-31.898
-27.5293
-27.5592
-42.7894
-38.3007
-46.976
-45.7166
-45.7909
-48.0069
-41.954
-38.3744
-84.0675
60.4307
-82.5923
49.738
-82.2139
-79.3065
126.849
124.095
-62.9704
-60.4728
-46.4419
-46.4807
-57.0214
-50.9637
-56.9122
-49.9467
-41.2333
-36.823
-40.0765
-35.6991
-41.7348
-42.4623
-35.6884
-35.0196
-50.3141
-44.9942
-42.6627
-41.648
-43.6956
-47.957
-41.6973
-43.8835
-61.0516
-42.4338
-43.9281
-35.2643
-59.8412
-50.2031
-28.5708
-33.0827
-42.7763
-38.3088
-46.8542
-45.5188
-47.7051
-45.7153
-38.3614
-41.9407
-31.9141
-31.6547
-32.1303
-31.8916
-32.6647
-33.5857
-31.9345
-32.3504
-35.5657
-34.7063
-36.5131
-36.8061
-38.9623
-37.761
-34.8403
-36.1048
-40.5052
-37.4406
-40.5143
-37.4427
-42.5114
-42.521
-35.905
-35.9066
-36.2812
-38.1402
-39.3839
-38.3711
-36.728
-38.1978
-38.4856
-37.4235
-36.0169
-40.0928
-36.0243
-40.0966
-35.7398
-35.7364
-40.3274
-40.3291
-49.4831
-59.8662
-48.6038
-56.2024
-46.3795
-46.48
-72.5875
-65.6464
13.788
12.3157
13.9819
12.3299
11.2969
11.2947
7.06918
6.88468
-69.334
-59.2825
-69.3472
-59.2772
-74.4349
-74.4485
-54.3157
-54.3182
-31.9414
-31.6184
-32.1947
-31.9021
-32.4581
-33.5141
-31.9105
-32.3425
-35.6097
-34.7268
-36.4618
-36.7851
-37.7239
-38.9794
-34.8069
-36.0862
-36.2828
-38.2102
-39.5313
-38.4571
-38.2835
-36.7835
-38.5226
-37.4517
-49.5186
-59.8706
-49.4279
-56.2334
-46.4917
-46.2876
-65.7065
-72.6663
-62.8146
-62.5207
-58.5367
-51.4574
-50.9426
-59.378
-47.5866
-47.0197
-62.7959
-62.4784
-58.5369
-51.4196
-59.3591
-50.9236
-47.0199
-47.5791
-62.8403
-62.8649
-58.7229
-51.7631
-58.7616
-51.789
-49.1595
-49.1329
-27.129
-27.1486
-23.826
-16.3419
-16.3615
-23.8579
-10.4173
-10.4267
189.218
181.903
175.157