# vtk DataFile Version 2.0
tet_velo
ASCII
DATASET UNSTRUCTURED_GRID
POINTS 29498 float
-0.764671 0.335 -2.015
-0.755096 0.365 2.005
-0.781031 0.795 -1.955
-0.675 1.14936 1.965
0.755588 0.335 -2.025
0.761695 0.365 2.005
0.778193 0.795 -1.955
0.685 1.145 1.96297
-0.832851 0.273628 -0.675
-0.831965 0.281323 0.665
-0.806377 0.97381 -0.648333
-0.768289 1.08919 0.658333
0.831975 0.270648 -0.681667
0.834555 0.280105 0.661667
0.809239 0.973777 -0.64901
0.774021 1.08629 0.65698
-1.56581 -0.059785 -3.08445
-1.57288 -0.0158691 -2.02555
-1.61522 -0.0603199 -0.684384
-1.61071 -0.0815725 0.663523
-1.55683 -0.0277132 2.00527
-1.54212 0.0313433 3.06701
-1.54737 0.0894896 4.12365
-1.56531 0.244785 -3.06493
-1.57041 0.31498 -2.00999
-1.62106 0.296328 -0.67578
-1.60184 0.299123 0.661313
-1.52237 0.361499 1.99621
-1.51996 0.420009 3.05757
-1.53596 0.475701 4.11547
-1.57073 0.796313 -3.0176
-1.57584 0.862266 -1.96264
-1.6002 0.988871 -0.65143
-1.55323 1.08237 0.657425
-1.46399 1.14677 1.96947
-1.48796 1.19989 3.03208
-1.52174 1.24996 4.09544
-1.57873 1.75885 -2.97161
-1.58109 1.84893 -1.92103
-1.58305 2.01446 -0.621285
-1.56684 2.17302 0.671245
-1.54097 2.27975 1.97172
-1.53524 2.33877 3.02381
-1.54313 2.38816 4.08327
-0.775167 -0.0487727 -3.08911
-0.769576 -0.000528548 -2.03125
-0.81144 -0.0705813 -0.685996
-0.823324 -0.0960276 0.666483
-0.787701 -0.0303871 2.01191
-0.778816 0.0296969 3.07117
-0.783531 0.0876487 4.12556
-0.776376 0.247562 -3.06758
-0.766652 0.42028 3.06076
-0.777782 0.474993 4.11664
-0.781676 0.769668 -3.01473
-0.741748 1.20148 3.03025
-0.769428 1.25092 4.09415
-0.788096 1.73766 -2.96876
-0.788986 1.82742 -1.91766
-0.794744 2.00598 -0.619692
-0.79228 2.1766 0.669711
-0.78037 2.28529 1.96811
-0.77749 2.34287 3.0202
-0.783326 2.39089 4.0803
0.786192 -0.0493914 -3.09572
0.793538 -0.00131821 -2.03935
0.828325 -0.0728843 -0.692093
0.8149 -0.0975013 0.663043
0.765199 -0.0311556 2.0106
0.748794 0.0282953 3.06961
0.743914 0.0858202 4.12355
0.77572 0.247196 -3.07392
0.735055 0.418712 3.05944
0.735758 0.473014 4.11472
0.779661 0.769392 -3.01794
0.710048 1.1986 3.02842
0.725213 1.24849 4.09213
0.789708 1.7369 -2.9715
0.792183 1.82659 -1.91996
0.784642 2.00469 -0.621833
0.758864 2.17446 0.667541
0.73377 2.28262 1.96589
0.729368 2.34021 3.01794
0.731209 2.3884 4.07798
1.57367 -0.0612995 -3.09634
1.58334 -0.0178007 -2.03868
1.62597 -0.0641496 -0.694992
1.61497 -0.0850974 0.656703
1.55429 -0.0305576 2.00126
1.52507 0.0280393 3.06318
1.51625 0.0857181 4.11936
1.56205 0.243683 -3.07621
1.56197 0.313809 -2.02294
1.62184 0.292512 -0.685975
1.61364 0.295265 0.654889
1.53745 0.358292 1.99273
1.50688 0.41633 3.05406
1.50426 0.471664 4.11135
1.56453 0.795435 -3.02492
1.56792 0.861652 -1.96859
1.60081 0.986724 -0.656782
1.5652 1.07739 0.65277
1.47982 1.14073 1.96527
1.47387 1.19459 3.0281
1.48746 1.24519 4.0912
1.57799 1.75716 -2.97741
1.58091 1.84708 -1.92613
1.57383 2.01172 -0.626007
1.54188 2.16884 0.666625
1.50534 2.27468 1.96712
1.49476 2.33366 3.01918
1.4961 2.3833 4.07854
-0.795227 0.565 -2.00738
-0.00454152 0.31395 -2.04105
-0.823734 0.279341 -1.345
-0.763449 0.75718 2.0334
0.0032995 0.318704 2.0513
-0.831937 0.284755 1.335
-0.00141901 0.886687 -2.04669
-0.847245 0.937946 -1.30167
0.005 1.18918 2.00598
-0.756741 1.15437 1.31167
0.789655 0.565 -2.01276
0.813443 0.283163 -1.35333
0.770682 0.755 2.03132
0.843026 0.277651 1.33333
0.846732 0.937405 -1.30201
0.764252 1.15039 1.30998
-0.832507 0.277376 -0.005
-0.862968 0.623719 -0.661667
-0.000437968 0.243735 -0.678333
-0.859685 0.685254 0.661667
0.001295 0.256157 0.663334
-0.781657 1.02582 0.005
0.00143091 1.29958 -0.648672
0.00286616 1.53316 0.657657
0.833631 0.275011 -0.00999999
0.869172 0.622213 -0.665338
0.865762 0.683197 0.659323
0.786229 1.02463 0.00398499
-0.894297 0.594359 -1.32333
-0.860973 0.654487 -5.55112e-17
-0.88568 0.721217 1.32333
-0.00248974 0.258592 -1.34917
0.000428518 0.24944 -0.00749999
0.00229725 0.262052 1.33417
-0.00298026 0.565 -2.20336
0.00414975 0.75609 2.12264
5.95266e-06 1.0134 -1.30184
0.00214854 1.51988 0.00449249
0.00393308 1.51646 1.31082
0.896821 0.593606 -1.32767
0.867207 0.652705 -0.0030075
0.885431 0.719099 1.32165
-1.16754 0.32499 -2.01249
-0.767124 0.167236 -2.02313
-0.770524 0.291281 -2.54129
-1.13873 0.36325 2.00061
-0.771398 0.167306 2.00845
-0.760874 0.39264 2.53288
-1.17844 0.828633 -1.95882
-0.781354 0.782334 -2.48486
-0.785008 1.31121 -1.93633
-1.06949 1.14806 1.96723
-0.708374 1.17542 2.49762
-0.727685 1.71732 1.96656
0.774563 0.166841 -2.03217
0.765654 0.291098 -2.54946
1.15878 0.324405 -2.02397
0.763447 0.166922 2.0078
0.748375 0.391856 2.53222
1.14957 0.361646 1.99886
0.778927 0.782196 -2.48647
0.785188 1.3108 -1.93748
1.17305 0.828326 -1.96179
0.697524 1.1718 2.4957
0.709385 1.71381 1.96443
1.08241 1.14287 1.96412
-1.22696 0.284978 -0.67539
-0.822145 0.101523 -0.680498
-1.2169 0.290223 0.663156
-0.827644 0.0926477 0.665742
-1.20329 0.981341 -0.649882
-0.80056 1.48989 -0.634013
-1.16076 1.08578 0.657879
-0.780285 1.63289 0.664022
0.83015 0.098882 -0.68688
1.22691 0.28158 -0.683821
0.824727 0.0913017 0.662355
1.2241 0.287685 0.658278
0.796941 1.48923 -0.635422
1.20503 0.98025 -0.652896
0.766443 1.63037 0.662261
1.16961 1.08184 0.654875
-1.56934 -0.0378271 -2.555
-1.56556 0.0925002 -3.07469
-1.17049 -0.0542788 -3.08678
-1.59405 -0.0380945 -1.35497
-1.57164 0.149556 -2.01777
-1.17123 -0.00819883 -2.0284
-1.61297 -0.0709462 -0.0104301
-1.61814 0.118004 -0.680082
-1.21333 -0.0654506 -0.68519
-1.58377 -0.0546429 1.3344
-1.60628 0.108775 0.662418
-1.21702 -0.0888 0.665003
-1.54948 0.00181505 2.53614
-1.5396 0.166893 2.00074
-1.17227 -0.0290502 2.00859
-1.54474 0.0604165 3.59533
-1.53104 0.225676 3.06229
-1.16047 0.0305201 3.06909
-1.54167 0.282595 4.11956
-1.16545 0.0885691 4.12461
-1.56786 0.279883 -2.53746
-1.56802 0.520549 -3.04127
-1.17085 0.246173 -3.06625
-1.59574 0.305654 -1.34288
-1.57313 0.588623 -1.98631
-1.61145 0.297725 -0.00723377
-1.61063 0.6426 -0.663605
-1.56211 0.330311 1.32876
-1.57754 0.690744 0.659369
-1.52117 0.390754 2.52689
-1.49318 0.754133 1.98284
-1.52796 0.447855 3.58652
-1.50396 0.809947 3.04482
-1.14331 0.420144 3.05917
-1.52885 0.862829 4.10546
-1.15687 0.475347 4.11605
-1.57329 0.829289 -2.49012
-1.57473 1.27758 -2.99461
-1.1762 0.782991 -3.01617
-1.58802 0.925569 -1.30703
-1.57847 1.3556 -1.94184
-1.57672 1.03562 0.00299753
-1.59163 1.50166 -0.636358
-1.50861 1.11457 1.31345
-1.56003 1.62769 0.664335
-1.47598 1.17333 2.50077
-1.50248 1.71326 1.97059
-1.50485 1.22492 3.56376
-1.5116 1.76933 3.02794
-1.11486 1.20069 3.03116
-1.53244 1.81906 4.08936
-1.14558 1.25044 4.0948
-1.57991 1.80389 -2.44632
-1.18341 1.74826 -2.97019
-1.58207 1.93169 -1.27116
-1.18504 1.83817 -1.91935
-1.57494 2.09374 0.02498
-1.1889 2.01022 -0.620488
-1.55391 2.22638 1.32148
-1.17956 2.17481 0.670478
-1.53811 2.30926 2.49776
-1.16067 2.28252 1.96991
-1.53919 2.36346 3.55354
-1.15637 2.34082 3.022
-1.16323 2.38952 4.08178
-0.772371 -0.0246506 -2.56018
-0.775771 0.0993944 -3.07835
0.00551281 -0.0490821 -3.09241
-0.790508 -0.0355549 -1.35862
0.011981 -0.000923381 -2.0353
-0.817382 -0.0833044 -0.00975617
0.00844274 -0.0717328 -0.689044
-0.805512 -0.0632074 1.3392
-0.00421204 -0.0967645 0.664763
-0.783258 -0.000345108 2.54154
-0.0112508 -0.0307714 2.01125
-0.781174 0.0586728 3.59837
-0.772734 0.224988 3.06597
-0.0150108 0.0289961 3.07039
-0.780657 0.281321 4.1211
-0.0198088 0.0867345 4.12456
-0.779026 0.508615 -3.04115
-0.000328106 0.247379 -3.07075
-0.772217 0.447636 3.5887
-0.7542 0.810882 3.0455
-0.0157984 0.419496 3.0601
-0.773605 0.862958 4.1054
-0.0210119 0.474003 4.11568
-0.784886 1.25367 -2.99174
-0.00100756 0.76953 -3.01634
-0.755588 1.2262 3.5622
-0.759619 1.77217 3.02522
-0.0158496 1.20004 3.02933
-0.776377 1.8209 4.08723
-0.0221076 1.2497 4.09314
-0.788541 1.78254 -2.44321
0.000806269 1.73728 -2.97013
-0.791865 1.9167 -1.26868
0.00159852 1.827 -1.91881
-0.793512 2.09129 0.0250099
-0.00505069 2.00533 -0.620762
-0.786325 2.23094 1.31891
-0.016708 2.17553 0.668626
-0.77893 2.31408 2.49415
-0.0233003 2.28396 1.967
-0.780408 2.36688 3.55025
-0.0240609 2.34154 3.01907
-0.0260586 2.38964 4.07914
0.789865 -0.0253548 -2.56753
0.780956 0.0989022 -3.08482
1.17993 -0.0553454 -3.09603
0.810932 -0.0371013 -1.36572
1.18844 -0.00955943 -2.03901
0.821613 -0.0851928 -0.0145249
1.22715 -0.0685169 -0.693542
0.79005 -0.0643285 1.33682
1.21493 -0.0912994 0.659873
0.756997 -0.00143018 2.5401
1.15975 -0.0308566 2.00593
0.746354 0.0570578 3.59658
0.741925 0.223504 3.06452
1.13693 0.0281673 3.06639
0.739836 0.279417 4.11914
1.13008 0.0857692 4.12146
0.777691 0.508294 -3.04593
1.16889 0.245439 -3.07506
0.735407 0.445863 3.58708
0.722552 0.808657 3.04393
1.12097 0.417521 3.05675
0.730486 0.86075 4.10343
1.12001 0.472339 4.11304
0.784685 1.25314 -2.99472
1.17209 0.782413 -3.02143
0.717631 1.22354 3.56028
0.719708 1.76941 3.02318
1.09196 1.1966 3.02826
0.728211 1.81844 4.08505
1.10634 1.24684 4.09166
0.790945 1.78175 -2.44573
1.18385 1.74703 -2.97446
0.788412 1.91564 -1.2709
1.18655 1.83684 -1.92305
0.771753 2.08957 0.022854
1.17924 2.0082 -0.62392
0.746317 2.22854 1.31672
1.15037 2.17165 0.667083
0.731569 2.31142 2.49191
1.11955 2.27865 1.9665
0.730289 2.36431 3.54796
1.11206 2.33694 3.01856
1.11366 2.38585 4.07826
1.57851 -0.0395501 -2.56751
1.56786 0.0911918 -3.08628
1.60465 -0.0409751 -1.36683
1.57265 0.148004 -2.03081
1.62047 -0.0746235 -0.0191443
1.6239 0.114181 -0.690484
1.58463 -0.0578275 1.32898
1.6143 0.105084 0.655796
1.53968 -0.00125916 2.53222
1.54587 0.163867 1.997
1.52066 0.0568787 3.59127
1.51597 0.222185 3.05862
1.51025 0.278691 4.11536
1.56201 0.278746 -2.54958
1.56329 0.519559 -3.05057
1.5919 0.303161 -1.35446
1.56494 0.587731 -1.99576
1.61774 0.293888 -0.0155432
1.61133 0.639618 -0.671379
1.57554 0.326778 1.32381
1.58942 0.686329 0.653829
1.52217 0.387311 2.52339
1.50864 0.749512 1.979
1.50557 0.443997 3.5827
1.49037 0.805461 3.04108
1.49586 0.858429 4.10127
1.56622 0.828543 -2.49675
1.57126 1.2763 -3.00117
1.58436 0.924188 -1.31268
[...]
POINT_DATA 29498
VECTORS point_vectors float
-1.73173 -2.97546 4.91224
0.170793 0.108621 0.573716
-1.5312 1.24551 2.50387
-0.0833807 -0.147492 0.0840539
1.09131 -1.79013 2.90387
-0.203103 0.0882899 0.618766
1.49415 1.21623 2.48142
0.0710369 -0.0750584 0.0161915
0.0891908 -0.045716 1.59048
0.0600282 -0.0721763 1.86444
0 0 0
0 0 0
-0.0912966 -0.0489905 1.60521
-0.069398 -0.0419077 1.93182
0 0 0
0 0 0
-0.652025 -0.318407 19.8797
-1.2552 -0.727089 20.5352
-0.490837 -0.450229 21.3883
0.0092385 -0.195028 21.6002
0.663609 0.130826 21.644
1.03549 0.282971 21.446
1.09581 0.219243 20.4227
-0.747572 -0.228465 19.7806
-1.67378 -0.57149 20.4951
-0.614472 -0.498818 21.462
-0.0219912 -0.320649 21.6776
0.843107 -0.117904 21.765
1.35648 -0.0645916 21.2801
1.22184 0.180383 20.9752
-0.835467 0.0215698 19.7063
-1.86634 0.0549394 20.4173
-1.19239 -0.365232 21.4131
-0.43129 -0.439655 21.7589
0.407332 -0.663333 21.7781
0.861244 -0.720359 21.4633
0.640471 -0.67047 20.9446
-0.579473 0.329951 19.9235
-0.978832 0.561108 20.3632
-0.963522 0.405273 21.1014
-0.460019 0.029105 21.5396
-0.00547059 -0.278102 21.5079
0.178928 -0.450218 21.2562
0.251398 -0.534282 20.6243
-0.663391 -0.708016 19.2709
-1.88057 -3.34355 20.7746
-0.484661 -0.537132 21.8148
0.0099805 -0.00687401 21.4236
0.618057 1.16764 20.5718
1.15912 1.75406 20.0489
1.02043 1.36317 19.3966
-0.86352 -0.605462 18.8695
2.36269 1.37647 11.9844
2.39991 1.29978 15.2862
-1.09531 0.147053 18.4887
0.279415 -1.32486 7.52113
1.45013 -1.86486 15.5549
-0.552512 0.730421 19.4932
-1.10144 1.5868 20.0207
-1.43729 1.6612 21.1351
-0.596111 0.448207 21.9258
-0.185991 -0.249543 21.6857
-0.0480514 -0.525868 21.3192
0.151293 -0.666581 20.8767
0.65244 -0.693807 19.271
1.90375 -3.25735 20.7137
0.453241 -0.556958 21.8559
-0.0496217 -0.00528915 21.4145
-0.669999 1.05194 20.462
-1.22491 1.65415 19.9119
-1.02901 1.355 19.2735
0.854992 -0.598293 18.8738
-2.18052 0.956487 10.491
-2.52494 1.36353 13.8529
1.08057 0.149503 18.485
0.603085 -0.886131 3.64038
-1.29038 -1.70428 12.1054
0.546443 0.728617 19.4911
1.09115 1.58473 20.0122
1.41643 1.71363 21.1163
0.552235 0.502198 21.9193
0.137642 -0.139506 21.654
0.00196217 -0.400531 21.2553
-0.113376 -0.604367 20.8459
0.640043 -0.309603 19.8741
1.23851 -0.728021 20.5289
0.491505 -0.470764 21.3642
-0.0119597 -0.220663 21.5717
-0.624775 0.0684073 21.6221
-1.0276 0.224849 21.4992
-1.14654 0.215271 20.4241
0.737324 -0.227871 19.7738
1.68952 -0.587971 20.4761
0.627258 -0.517336 21.4519
0.0238773 -0.340869 21.656
-0.745896 -0.195379 21.7225
-1.27684 -0.141639 21.3335
-1.18844 0.190305 21.1319
0.826428 0.0212442 19.7056
1.87837 0.0560113 20.4051
1.20859 -0.362105 21.4029
0.433067 -0.432683 21.7295
-0.268602 -0.624731 21.698
-0.693545 -0.728879 21.5692
-0.778909 -0.648013 20.6406
0.571366 0.330667 19.9173
0.970276 0.564737 20.35
0.966513 0.423884 21.0871
0.460814 0.0458966 21.5165
0.0377262 -0.222703 21.4797
-0.150592 -0.387247 21.2676
-0.145294 -0.503318 20.7473
-0.243549 -0.0178513 0.372041
-0.000434625 -0.00853157 0.0595218
-0.0334195 -0.018492 0.626318
-0.0181307 -0.0996301 0.0271732
-0.00356492 0.0153544 0.0647032
0.0596002 0.0269731 1.46881
-0.00170669 0.409442 0.555528
-0.799208 -0.67348 2.05392
-0.00732651 0.0036404 -0.00550532
0 0 0
0.61842 -0.0444596 0.758088
0.0283097 -0.00256861 0.541934
0.0363969 -0.258796 0.0337641
-0.0931755 -0.0360324 2.26566
0.841543 -0.695484 2.11212
0 0 0
0.0648277 -0.0227889 1.55289
0.000818773 0.000421117 0.0465896
-1.52336e-05 0.000284613 0.0317768
0 0 0
0 0 0
0 0 0
-0.000140899 0.0349764 0.0616097
-0.000278106 -4.8741e-05 0.01475
-0.0582645 -0.027428 1.6501
-0.00062901 0.000774508 0.0445949
0 0 0
0 0 0
0 0 0
3.75356e-05 0.000638076 0.00524495
0.000270971 0.00119868 0.0175808
0 0 0
-2.39446e-06 4.42572e-07 0.000336533
-0.000233401 0.00027782 0.01492
-0.000148959 -0.0102163 0.00559594
0 0 0
-2.21112e-05 0.00043078 0.0037736
4.8849e-05 0.0024023 0.0226883
-0.000562423 -0.000377583 0.0132216
0.000185292 -0.00189422 0.0177139
-9.37277e-05 0.00201181 0.016225
-0.000781163 0.00280198 0.0530683
-3.30295 -1.57573 20.4297
-2.9597 -5.26215 20.8981
-2.35387 -1.83047 17.672
1.53574 0.260302 19.8288
0.706797 1.35888 13.6982
1.48821 0.755912 7.77493
-3.80894 0.50346 20.338
-3.19659 0.966185 16.7705
-2.50257 2.7844 19.8218
0.581544 -0.619762 18.1287
-0.681084 -1.12341 3.46651
-0.104615 -0.620975 19.529
3.04673 -5.28988 20.7347
2.30657 -1.80216 17.6585
3.34341 -1.60684 20.3636
-0.785522 1.18473 13.1643
-1.37237 0.159902 6.8224
-1.40134 0.0736962 19.8616
3.17143 0.976608 16.7634
2.48162 2.77627 19.8044
3.84703 0.532249 20.2943
1.14919 -1.00547 0.427792
0.0549463 -0.333864 18.7342
-0.337618 -0.615038 17.9498
-0.447211 -0.746921 21.7475
-0.300806 -0.151233 17.8305
0.150742 -0.341007 21.027
0.325788 0.00724677 16.7045
-1.92155 -1.11954 21.6984
-3.99754 2.09707 21.1922
-0.668621 -0.80676 20.5507
-0.955996 0.313298 20.7942
0.26365 -0.199325 18.1462
0.482273 -0.79379 21.7601
-0.363038 0.0222938 16.6608
-0.166242 -0.375741 21.0537
4.0116 2.1988 21.1411
1.96048 -1.09126 21.6824
0.817482 0.37825 20.1474
0.671968 -0.807096 20.5988
-1.00895 -0.536685 20.0486
-0.702183 -0.282898 19.8341
-0.728013 -0.507301 19.6017
-0.923676 -0.625899 21.1722
-1.46571 -0.672646 20.5181
-1.79571 -1.58311 20.5543
-0.208972 -0.31603 21.5197
-0.551696 -0.45634 21.4205
-0.434596 -0.52069 21.6252
0.279997 -0.0520471 21.7032
0.0045675 -0.238656 21.6166
0.0789427 -0.136295 21.7718
0.871814 0.23372 21.5471
0.770553 0.0224641 21.7133
0.877629 0.562146 21.7538
0.937379 0.210389 21.3546
1.19596 0.103836 21.3679
1.37164 0.834245 21.4154
1.15882 0.199813 20.699
1.03047 0.582396 21.3713
-1.26619 -0.405026 19.9149
-0.827403 -0.129575 19.6929
-0.869982 -0.410393 19.421
-1.18728 -0.577572 21.2654
-1.84897 -0.307269 20.4642
-0.284407 -0.417585 21.565
-0.864168 -0.522736 21.4574
0.324067 -0.224538 21.8342
-0.171538 -0.435906 21.7556
1.11556 -0.0731447 21.5522
0.775828 -0.460299 21.8307
1.35533 -0.188385 21.4337
1.21533 -0.481689 21.3683
2.11516 0.370727 19.7254
0.885755 -0.313501 21.2535
1.9035 0.236216 20.1395
-1.44716 0.0693773 19.8302
-0.748789 0.242713 19.7827
-1.04389 0.079902 19.2351
-1.57236 -0.151868 21.1048
-1.45305 0.48716 20.3564
-0.810341 -0.453663 21.6616
-1.30076 0.148051 21.2654
-0.0610125 -0.496698 21.878
-0.590878 -0.14785 21.6905
0.666442 -0.72209 21.6327
0.050761 -0.454425 21.6158
1.11277 -0.678894 21.3122
0.458185 -0.634656 21.4383
1.09161 -1.00765 19.8748
0.476097 -0.953832 20.3678
1.58986 -1.22895 19.4122
-0.80341 0.477741 20.0778
-0.618505 0.525422 19.7162
-1.0277 0.515241 20.7472
-1.15982 0.98887 20.2286
-0.753371 0.242203 21.4133
-1.29886 0.850032 21.1605
-0.214013 -0.145064 21.5798
-0.568213 0.20348 21.7407
0.0810624 -0.363313 21.4303
-0.115116 -0.287963 21.6226
0.199874 -0.366668 21.1967
0.0830627 -0.515112 21.3032
0.148793 -0.59411 21.2019
-1.39444 -1.84841 19.025
-0.750061 -0.661377 19.0858
-0.00107906 -1.00919 18.8663
-0.962601 -1.40856 22.0605
0.0181969 -4.62983 21.3003
-0.193862 -0.189666 21.5326
-0.00781934 -0.8574 21.3437
0.271191 0.36422 20.9698
-0.0215049 -0.136676 19.991
0.912381 1.47468 20.3875
-0.0801033 0.902051 18.3387
1.47122 1.74492 19.3555
1.85228 1.95002 15.9522
-0.0551459 1.59077 17.9315
1.90659 1.48428 16.1067
0.0359602 2.5521 17.1595
-1.06739 -0.271603 18.6023
-0.00249419 -0.833211 18.2529
2.53518 1.36435 14.1752
1.36659 -0.509968 6.80205
0.0566821 0.57224 3.59761
2.5471 -0.243995 13.0459
0.134333 2.38992 7.27221
-0.855602 0.718794 18.971
-0.0058386 0.295126 17.567
1.306 -1.3774 10.5858
0.0985331 -1.10019 21.0551
0.240679 1.96774 -5.1655
0.0408172 -1.37433 18.9429
0.58167 2.43883 -2.8623
-0.842317 1.23668 19.607
-0.00224698 1.00282 19.2217
-1.32742 1.63633 20.487
-0.00289621 2.35101 19.7648
-1.09193 1.12987 21.8309
-0.0367999 3.01954 20.9796
-0.320338 0.0124588 21.8106
-0.047702 0.865196 22.1462
-0.128568 -0.400818 21.6037
-0.0874019 -0.0300594 21.6748
-0.00970855 -0.606787 20.7462
-0.133317 -0.322459 21.752
-0.112487 -0.65234 20.5667
1.38231 -1.80254 19.0436
0.738042 -0.651473 19.0901
0.713956 -0.49972 19.6115
0.945252 -1.37416 22.0215
1.76561 -1.53203 20.5194
0.156324 -0.204746 21.5386
0.436224 -0.550824 21.5993
-0.330171 0.318986 20.8697
-0.101268 -0.157643 21.7479
-0.923064 1.29801 20.2275
-0.877553 0.460205 21.6923
-1.56222 1.7435 19.1293
-1.87984 1.69969 15.4082
-1.3555 0.754973 21.4881
-2.01433 1.50116 14.9564
-1.06145 0.492798 21.4953
1.05063 -0.265652 18.6062
0.862407 -0.405141 19.4125
-2.44392 1.35416 12.9395
-0.78066 -0.40688 4.49422
-2.03093 0.19479 19.2636
-2.32898 -0.153434 10.668
-2.01974 0.192644 19.6872
0.843249 0.715335 18.9657
1.02951 0.0778485 19.2254
-0.766488 -1.24084 6.22947
-0.00840122 -0.690654 20.2933
-0.765121 -0.959825 19.1633
-0.0680224 -1.19861 17.8077
-1.4399 -1.53066 19.3276
0.834488 1.23311 19.6035
0.611711 0.521607 19.7125
1.30968 1.65271 20.4706
1.14869 0.988638 20.2171
1.05998 1.18531 21.8322
1.29903 0.882191 21.1447
0.271898 0.0797581 21.7774
0.556823 0.244794 21.7222
0.0713222 -0.259865 21.6061
0.113571 -0.205897 21.583
-0.0318032 -0.451006 20.8025
-0.0883551 -0.413817 21.3494
-0.246257 -0.561255 21.2617
0.98572 -0.529566 20.0556
0.691095 -0.27958 19.8303
0.923247 -0.63767 21.1366
1.45715 -0.679883 20.5033
0.210234 -0.337456 21.5057
0.561747 -0.476083 21.3992
-0.273606 -0.0958176 21.6714
-0.00232904 -0.261107 21.5864
-0.832052 0.160927 21.5663
-0.707613 -0.0492418 21.6814
-0.98854 0.157914 21.346
-1.15222 0.0416047 21.4164
-1.16749 0.202788 20.778
1.26334 -0.409025 19.8993
0.816391 -0.131347 19.6861
1.20158 -0.595365 21.2461
1.86981 -0.310406 20.4464
0.290909 -0.433475 21.5527
0.882467 -0.534668 21.4449
-0.299278 -0.263727 21.7817
0.178933 -0.448508 21.72
-1.00701 -0.171445 21.5539
-0.641642 -0.498646 21.7843
-1.35659 -0.26722 21.5124
-1.09817 -0.547514 21.4253
-0.954722 -0.338352 21.0056
1.44573 0.0671172 19.8212
0.73975 0.241913 19.7805
1.58483 -0.149784 21.0932
1.45353 0.491933 20.3385
0.816759 -0.449013 21.6442
1.31033 0.162289 21.2503
0.106226 -0.479392 21.7845
0.597522 -0.133366 21.6654
-0.485083 -0.706089 21.6165
0.0241916 -0.391276 21.5724
-0.961407 -0.798665 21.5095
-0.337511 -0.583706 21.5491
-0.383439 -0.826605 20.3978
0.796532 0.47692 20.0689
1.02653 0.526734 20.7318
0.758672 0.258728 21.4024
0.213648 -0.117943 21.544
-0.0579334 -0.295506 21.4153
-0.155237 -0.351527 21.2164
-1.1303 -0.484137 19.9888
-1.78983 -1.99628 18.4605
-1.29545 -1.02017 19.6671
-1.89659 -0.890747 19.2254
-0.801403 -0.482618 19.5265
-2.43711 -1.72447 20.5293
-1.0292 -0.620537 21.2174
-0.877956 -0.960028 19.2844
-1.02195 -1.0059 21.5566
-1.46428 -1.11756 21.9613
-0.412922 -0.59506 21.7122
-0.242753 -0.348556 21.5358
0.122754 -0.0148237 16.7546
-0.128784 -0.303522 21.6721
-0.0633173 -0.520327 21.3102
0.151069 -0.21669 21.6107
0.307665 -0.118582 21.76
0.503818 0.294802 15.3131
0.388146 0.116846 21.8857
0.552176 -0.110017 20.5584
1.25532 0.526264 21.1819
1.02902 0.0964802 21.5449
1.287 1.58758 14.8266
1.14864 0.739177 21.4944
1.90314 0.262521 20.0651
1.80915 0.680814 20.7336
1.14064 0.00635968 21.3978
2.06339 1.6849 15.2868
1.48482 0.971324 21.2653
2.33264 0.363738 19.6077
1.40597 0.43483 20.9009
-1.40301 -0.206972 19.8482
-3.10984 -0.703132 16.7173
-2.28789 0.307078 19.0148
-1.02028 -0.194226 19.2549
-4.11623 -0.591361 20.3479
-1.41995 -0.451589 21.2513
-2.4244 -0.445284 21.5985
-0.784336 -1.0549 21.3552
-0.493702 -0.506985 21.6243
-1.25825 -1.16591 21.0265
0.0471389 -0.591075 20.0638
0.199808 -0.404615 21.9317
-0.0958913 -0.492232 19.5889
1.32852 -0.361959 18.0033
1.03502 -0.475449 21.6519
0.307195 -1.19139 3.20062
0.719046 -0.93332 19.3424
1.81988 -0.535792 19.1967
1.4237 -0.525078 21.1586
2.4517 -0.0818578 9.59951
1.36099 -1.17465 20.0926
2.16497 -0.850169 18.8781
-1.14899 0.405894 19.9403
-1.69268 1.75016 18.7522
-0.897787 0.807207 19.8759
-0.875231 0.426378 19.4338
-2.11857 1.17189 20.1671
-1.43623 0.331518 20.8733
-2.69908 1.95328 20.4386
-1.29422 0.964241 20.6818
-2.21783 0.431949 21.3974
-0.990524 -0.0174924 21.5808
-2.76156 0.849891 21.9319
-0.973016 0.552865 21.6003
-0.886876 -0.0447947 22.0062
-0.241575 -0.29216 21.7255
-0.283941 -0.168724 20.3458
-0.294743 -0.0788164 21.6993
-0.0761941 -0.595063 21.844
0.243593 -0.546526 21.4858
-0.121046 -0.81608 20.3856
0.00475667 -0.411487 21.4277
0.303002 -0.974955 21.3413
0.47408 -0.537835 21.4646
0.317652 -1.36135 18.1956
0.158212 -0.65153 21.2927
0.186375 -0.750822 21.9491
1.76589 -1.9492 18.4673
0.00565833 -2.96797 18.3059
-0.0192029 -3.41738 15.4626
-0.000303082 -0.94241 18.5932
-0.00845528 -6.06174 22.4446
0.85613 -0.885329 19.2424
0.00808929 -1.93722 22.2924
-0.0243865 -0.306358 13.1843
-0.150554 -0.037469 16.933
-0.0167704 -0.382056 20.1113
-0.0214862 0.0114601 11.682
-0.592585 0.20384 15.2362
-0.0408691 0.226868 18.8417
-0.137139 0.724799 9.41793
-1.30293 1.27413 13.9937
-0.10192 1.21188 18.0805
-0.299594 -0.150215 2.26182
-0.185272 0.968025 9.6342
-2.02955 1.64707 14.6902
-0.00367756 2.13532 17.2837
0.0723442 1.8509 3.93495
0.0851465 2.47101 12.2159
3.05875 -0.681695 16.7106
-0.0103007 2.44059 13.5851
-0.00514796 -0.395371 17.6958
-0.0792179 -1.74474 2.10334
0.0146718 0.325778 -3.85805
0.804507 0.238441 -2.53543
-2.05054 -0.115288 6.56105
0.601196 1.75721 -2.76996
0.841018 3.32234 -1.91099
1.67582 1.74232 18.7448
-0.00194178 1.80802 19.3017
-0.00494471 1.07764 18.3789
-0.00370245 4.44832 19.3834
2.67694 1.97709 20.4075
-0.0197136 2.58294 20.1359
-0.0356174 6.28708 19.5993
2.78317 0.926571 21.9327
-0.0385916 2.072 22.1354
-0.0488534 0.879902 18.725
0.199486 -0.0675392 19.9454
-0.0621882 0.245076 21.9199
-0.342011 0.0412824 13.6784
0.102867 -0.435942 19.4515
-0.0902581 -0.163409 21.7084
-0.633575 -0.147114 14.7968
-0.184871 -1.03412 16.8867
-0.160912 -0.556499 21.2536
-0.23255 0.03816 13.1219
1.11114 -0.481852 19.9896
1.27638 -0.996914 19.6702
1.87205 -0.888251 19.2003
0.788873 -0.477599 19.5257
2.41177 -1.70424 20.4847
1.03373 -0.634907 21.1881
1.01678 -1.01598 21.507
1.47525 -1.16307 21.9484
0.432555 -0.640531 21.6998
0.246863 -0.36522 21.5235
0.116781 -0.330863 21.6586
0.0805138 -0.558189 21.3154
-0.17102 -0.246606 21.5958
-0.293136 -0.162319 21.7131
-0.402606 0.0669048 21.8315
-0.539312 -0.186525 20.7053
-1.20426 0.377842 21.0565
-0.953491 0.0102013 21.5442
-1.12738 0.631987 21.4734
-1.74308 0.0705671 19.7488
-1.8175 0.568367 20.5612
-1.17287 -0.0546057 21.4295
-1.57702 0.957002 21.3127
-2.34421 0.300059 19.3094
-1.51358 0.350805 20.6653
1.40631 -0.211046 19.8414
2.27494 0.310704 18.9855
1.0049 -0.192463 19.2518
4.15877 -0.592902 20.286
1.44031 -0.460448 21.2333
2.44879 -0.431971 21.5657
0.849143 -1.06519 21.4097
0.503131 -0.514126 21.6103
1.26494 -1.13767 21.0243
-0.0428935 -0.624498 20.1213
-0.159077 -0.428724 21.8536
0.147613 -0.497411 19.5479
-1.10803 -0.483575 17.9385
-0.869654 -0.537808 21.6459
-0.350849 -0.817966 18.6169
-1.60565 -0.643045 18.3662
-1.32089 -0.620986 21.3063
-1.30549 -1.21244 19.3201
-2.1187 -1.114 18.4331
1.1409 0.407971 19.9297
0.888721 0.804585 19.8695
0.861162 0.423877 19.4248
2.10885 1.17887 20.1431
1.44218 0.340376 20.8555
1.28665 0.97964 20.665
2.23537 0.463066 21.3753
0.997797 -0.00485678 21.5635
0.972063 0.595857 21.5953
0.88932 -0.0189113 21.9804
0.269339 -0.251699 21.6525
0.282963 -0.0263101 21.6683
0.161644 -0.452494 21.7639
-0.133316 -0.492104 21.4734
0.00753108 -0.307655 21.3709
-0.168625 -0.812678 21.2948
-0.395321 -0.591952 21.4875
-0.110616 -0.553211 21.3149
-0.163385 -0.855661 22.4733
-1.60028 -1.03909 19.5013
-1.20764 -1.08736 21.7173
-0.068099 -0.379338 21.6357
0.526941 0.0382908 21.5789
1.56143 0.660295 20.8195
1.94266 0.637985 20.4738
-2.29821 -0.354629 18.9643
-1.98271 -0.870187 22.107
-0.247981 -0.89287 20.5226
0.423421 -0.286353 19.3438
1.5389 -0.548245 18.4193
1.93303 -0.625243 19.6791
-1.55558 0.873185 19.4874
-2.15557 0.773766 20.8378
-1.62449 0.168292 21.947
-0.389845 -0.303793 21.9796
0.0969584 -0.764355 21.6822
0.532215 -1.033 21.0597
0.00327328 -3.48723 17.1827
-0.000585005 -1.06262 14.8648
-0.0218591 -0.0918728 11.8191
-0.057424 0.184427 10.5068
-0.211499 0.798558 9.03914
0.0362708 1.99291 10.6066
-0.0138979 -1.10057 13.3342
0.217356 -0.19104 -0.224655
0.900876 2.99006 -2.70444
-0.00387801 2.95637 17.872
-0.0190208 3.82207 19.5539
-0.0401101 3.11612 20.9187
-0.0988851 0.155842 17.1553
-0.479771 -0.0212447 14.5425
-0.293401 -0.805701 12.6447
1.57027 -1.01545 19.4961
1.20841 -1.10922 21.6797
0.0716257 -0.420462 21.6411
-0.522144 -0.0292543 21.5027
-1.50021 0.495239 20.6243
-1.97572 0.618665 20.3769
2.2757 -0.353488 18.936
2.01752 -0.881766 22.1075
0.279815 -0.899886 20.5569
-0.385932 -0.372765 19.3985
-1.22044 -0.687949 17.8004
-1.9571 -0.687531 18.7831
1.53913 0.871312 19.4726
2.15417 0.794607 20.8082
1.64144 0.196103 21.9397
0.410619 -0.239086 21.907
0.0424258 -0.579732 21.657
-0.420752 -0.978218 21.2029
-0.582241 -0.238161 0.585992
-0.00342191 -0.0439635 0.214595
-0.0745704 -0.0489667 1.00228
0.0624478 -0.0286562 0.114164
-0.00159869 0.015371 0.0818717
0.0616538 0.126081 1.78468
-1.81903 -0.00623064 2.89057
-0.133861 1.05162 1.37136
-0.570012 -0.0568424 2.13486
-0.00631422 -0.0398796 0.0222388
-0.0180839 0.000808923 -0.00269148
0.00815303 0.00346216 0.109945
0.00327727 -0.0235061 0.106474
0.511461 -0.205656 0.716306
0.0379139 -0.0238243 0.576129
-0.0022073 0.0250996 0.0697233
-0.0935795 -0.0569345 0.151815
-0.159162 0.181684 2.25638
0.130626 1.00392 1.32526
1.94757 0.14955 2.8298
0.54917 -0.038992 2.05309
0.0100906 0.0107044 -0.0137583
0.0186068 -0.0754074 0.0215972
-0.00615124 0.0010372 0.0842215
-0.0615031 -0.0180277 0.565184
0.0734001 -0.0420398 1.67196
0.00858334 0.000825004 0.505584
0 0 0
0.0781911 0.0355569 2.12364
0.0664781 -0.0255825 1.84813
-0.00159088 0.0174615 0.302421
0 0 0
-0.124042 -0.0949732 0.260354
0.000319923 0.00158019 0.0392077
0 0 0
-0.00858062 0.00813606 0.017746
0 0 0
0 0 0
0 0 0
0.00502362 0.000740796 0.0789215
0.0305443 -0.00647541 0.28885
-0.000183169 3.08985e-05 0.00323797
-0.0782025 -0.0439189 1.70536
-0.00966507 -0.000823531 0.452649
-0.0777853 0.024712 1.84169
-0.000926106 6.96291e-05 0.01371
-0.0987073 -0.00727889 1.70716
-0.000169514 0.0137096 0.343002
0.0320636 -0.0229936 0.0649999
0.0145861 0.014166 0.0314689
-0.000191272 0.00199112 0.0369816
-6.05263e-18 1.68286e-17 8.82178e-17
0 0 0
-0.00765921 0.00076648 0.0694364
0 0 0
0 0 0
-0.0157456 -0.00820692 0.100912
0 0 0
7.38843e-05 -0.00858059 0.110437
-0.0169672 -1.64016 0.692811
-0.000467322 0.000145728 0.0445424
0 0 0
0 0 0
-0.0104183 -0.0177031 0.00101337
-0.000326017 0.00161214 0.0145723
-0.0389623 -0.152624 0.100984
7.02424e-05 0.000315629 0.00736205
0.000178168 8.66083e-05 0.00473866
0 0 0
-2.77898e-05 0.00613207 0.0356873
-0.00490656 -0.0232591 0.123446
-0.00350109 0.000701033 0.00690656
-0.0228326 -0.095353 0.00394032
-0.00936419 -0.00561942 0.0554076
2.55029e-18 1.64502e-17 2.33208e-16
-1.15388e-05 -0.000516861 0.0121394
0.0430397 -0.0205229 0.0149218
0.0298202 -0.0174536 0.185669
0 0 0
0.000854696 0.00130387 0.075644
0.000511888 -0.0316999 0.00325516
-0.00554171 -0.0041123 0.0654176
-0.000953855 0.00024005 0.0153719
-0.000828421 0.00463129 0.133747
0.00211545 0.000400945 0.00427002
0.00257356 -0.0168749 0.0908451
-0.000902628 -0.000626518 0.0157356
0 0 0
0.00107223 0.014766 0.255342
0 0 0
0.00131925 -0.00175635 0.0155891
0.000112783 0.00125355 0.0134705
7.63996e-05 -0.0005985 0.0185461
2.07906e-07 3.98138e-07 0.000195976
-3.36674e-19 -5.20489e-18 -4.03241e-17
-0.00693465 0.0158946 0.173689
-0.000136982 0.000405302 0.0196823
-3.44401e-05 3.82826e-05 0.0030565
0 0 0
-0.00910091 0.0141278 0.147789
0 0 0
-2.60167e-05 0.0371007 0.100901
-2.58075e-05 5.47449e-05 0.00305997
-0.000307767 -0.000172059 0.0118019
-0.00134548 1.86331e-05 0.0234918
-0.00127444 0.0044405 0.106574
-0.00257944 -0.00355329 0.029963
-0.00012059 0.00172151 0.0175196
0 0 0
0.00264768 0.00509521 0.0762906
0.0082119 0.0130806 0.13286
0 0 0
-0.0638446 -0.0469522 0.467429
-0.0399035 -0.0237747 0.24788
0.00594927 -0.000640101 0.071059
0.000926165 -0.00470073 0.0221597
0.00236689 0.0165771 0.467756
8.16853e-05 0.000917411 0.00548105
0.00136369 0.0335071 0.488883
0 0 0