# vtk DataFile Version 2.0
tri_press
ASCII
DATASET UNSTRUCTURED_GRID
POINTS 3682 float
-0.807722 0.265 -2.495
-0.789035 0.315 2.545
-0.805 0.896668 -2.385
-0.755 0.955 2.44221
0.807716 0.265 -2.495
0.789029 0.315 2.545
0.805 0.896668 -2.385
0.755 0.955 2.44222
-0.849752 0.233408 -0.815
-0.860293 0.233305 0.865
-0.853567 0.981346 -0.77593
-0.845859 1.00975 0.83314
0.849746 0.233408 -0.815
0.860287 0.233305 0.865
0.853564 0.981342 -0.775927
0.845849 1.00974 0.833147
-1.64914 -0.117366 -3.8253
-1.65201 -0.101539 -2.50971
-1.68167 -0.123127 -0.827876
-1.68388 -0.124579 0.868232
-1.6372 -0.0720691 2.55127
-1.62412 -0.0469609 3.87275
-1.62926 -0.0366765 5.18333
-1.6472 0.229807 -3.7958
-1.64951 0.258391 -2.48796
-1.68817 0.245998 -0.819924
-1.6828 0.238969 0.854492
-1.61054 0.279823 2.52388
-1.6066 0.303058 3.84436
-1.62054 0.314391 5.15726
-1.64636 0.902142 -3.71689
-1.64848 0.930268 -2.40612
-1.68907 0.984421 -0.786437
-1.67203 0.994099 0.828216
-1.58902 0.964282 2.44925
-1.59546 0.986412 3.77267
-1.61686 1.00907 5.097
-1.65336 1.97016 -3.65186
-1.65752 2.00639 -2.3517
-1.67217 2.06414 -0.755022
-1.67487 2.09081 0.826373
-1.65787 2.07936 2.4238
-1.64732 2.07551 3.7255
-1.64655 2.08474 5.04209
-0.819939 -0.114502 -3.82988
-0.813112 -0.0970976 -2.51638
-0.839057 -0.129943 -0.826979
-0.85376 -0.127675 0.8772
-0.823286 -0.0523971 2.56695
-0.813619 -0.0334335 3.88339
-0.817425 -0.0297745 5.18949
-0.820286 0.229077 -3.79721
-0.800833 0.316125 3.85314
-0.811763 0.320295 5.1619
-0.819431 0.888474 -3.70812
-0.791976 0.985833 3.77126
-0.810253 1.0096 5.0967
-0.820741 1.96156 -3.64318
-0.821136 1.99866 -2.34215
-0.834961 2.06396 -0.74926
-0.846884 2.09451 0.825684
-0.842239 2.07881 2.41886
-0.834738 2.07314 3.72057
-0.833146 2.08281 5.03851
0.823032 -0.114502 -3.82988
0.830644 -0.097098 -2.51638
0.85182 -0.129943 -0.826979
0.843862 -0.127675 0.877201
0.796907 -0.0523975 2.56695
0.796165 -0.0334342 3.88339
0.80036 -0.0297755 5.18949
0.813445 0.229077 -3.79721
0.78933 0.316125 3.85314
0.79669 0.320294 5.16191
0.812835 0.888473 -3.70812
0.777434 0.985832 3.77127
0.7908 1.0096 5.09671
0.837503 1.96156 -3.64318
0.843441 1.99866 -2.34215
0.840519 2.06395 -0.749257
0.816671 2.09451 0.825689
0.790245 2.07881 2.41887
0.786838 2.07314 3.72058
0.790503 2.08281 5.03851
1.65084 -0.117368 -3.8253
1.66003 -0.101541 -2.50971
1.68908 -0.123129 -0.827874
1.68333 -0.124582 0.868235
1.62942 -0.0720707 2.55127
1.61468 -0.0469626 3.87276
1.61641 -0.036679 5.18334
1.64094 0.229805 -3.7958
1.64645 0.258389 -2.48795
1.68813 0.245995 -0.819922
1.68846 0.238965 0.854496
1.61832 0.279821 2.52389
1.60389 0.303056 3.84437
1.60989 0.314389 5.15727
1.64017 0.902139 -3.71689
1.64543 0.930266 -2.40611
1.68821 0.984415 -0.786431
1.67599 0.994089 0.828225
1.59471 0.964278 2.44927
1.58918 0.98641 3.77268
1.60173 1.00907 5.09701
1.66677 1.97015 -3.65185
1.67392 2.00639 -2.3517
1.67542 2.06413 -0.755016
1.65148 2.0908 0.826382
1.61709 2.07935 2.42381
1.60662 2.07551 3.72551
1.60791 2.08474 5.0421
-0.803796 0.580834 -2.43744
-2.98023e-06 0.261141 -2.49886
-0.829049 0.248892 -1.655
-0.782146 0.635 2.50373
-3.01003e-06 0.312855 2.54715
-0.862556 0.23626 1.705
0 0.971412 -2.45974
-0.853374 0.963097 -1.58047
0 0.99043 2.47765
-0.839096 1.02104 1.63768
0.803786 0.580834 -2.43743
0.829097 0.248837 -1.655
0.782142 0.635 2.50374
0.859057 0.239753 1.705
0.853374 0.963097 -1.58046
0.839093 1.02104 1.63768
-0.855006 0.233373 0.0250001
-0.88211 0.607377 -0.795465
-2.99017e-06 0.247965 -0.815
-0.890415 0.621527 0.84907
-3.0001e-06 0.252141 0.865
-0.850063 0.995897 0.028605
-1.76753e-06 1.34968 -0.775928
-4.94962e-06 1.59441 0.833143
0.855 0.233373 0.0250001
0.88211 0.607375 -0.795463
0.886421 0.621522 0.849074
0.85006 0.995894 0.02861
-0.895165 0.594105 -1.61773
0.895165 0.594104 -1.61773
-2.9852e-06 0.261751 -1.655
-8.83767e-07 1.0867 -1.58046
-1.49012e-06 0.580834 -2.57949
-0.881902 0.614452 0.0268025
0.881904 0.614448 0.026805
-2.99513e-06 0.250026 0.0250001
-3.35858e-06 1.59775 0.0286075
-0.873094 0.628263 1.67134
0.873066 0.628261 1.67134
-3.00507e-06 0.270207 1.705
-2.47481e-06 1.19166 1.63768
-1.50502e-06 0.635 2.54378
-0.795438 0.422917 -2.4559
-0.403862 0.26115 -2.49885
-0.818968 0.256364 -2.075
-0.775726 0.475 2.5145
-0.394519 0.312577 2.54742
-0.819161 0.282265 2.125
-0.818745 0.738751 -2.42556
-0.4025 0.911829 -2.40016
-0.846587 0.947283 -1.98273
-0.786933 0.795 2.49133
-0.3775 0.985219 2.47243
-0.82005 1.01102 2.03994
0.403857 0.261144 -2.49886
0.795479 0.422917 -2.45594
0.818976 0.256349 -2.075
0.394513 0.313173 2.54683
0.77576 0.475 2.51454
0.81995 0.28147 2.125
0.4025 0.911829 -2.40016
0.818742 0.738751 -2.42556
0.846585 0.947281 -1.98273
0.3775 0.985235 2.47245
0.786799 0.795 2.49121
0.82 1.01097 2.03995
-0.847119 0.233431 -1.235
-0.852378 0.233391 -0.395
-0.89428 0.406218 -0.805233
-0.416726 0.256989 -0.815
-0.862901 0.233305 1.285
-0.857633 0.233355 0.445
-0.895948 0.417119 0.857035
-0.419955 0.263108 0.865
-0.854464 0.973215 -1.1782
-0.875817 0.798351 -0.785698
-0.851956 0.988763 -0.373663
-0.508815 1.32957 -0.775929
-0.843631 1.01655 1.23541
-0.875043 0.81909 0.841105
-0.847976 1.00284 0.430873
-0.560959 1.57813 0.833142
0.847113 0.233431 -1.235
0.41672 0.25699 -0.815
0.852372 0.233391 -0.395
0.894274 0.406218 -0.805232
0.862895 0.233305 1.285
0.419949 0.263108 0.865
0.857627 0.233355 0.445
0.89585 0.416165 0.857037
0.854463 0.973214 -1.1782
0.5088 1.32955 -0.775928
0.875817 0.798349 -0.785695
0.851953 0.988759 -0.373658
0.843623 1.01654 1.23542
0.560959 1.57815 0.833145
0.874991 0.820058 0.84111
0.847974 1.00284 0.430878
-0.89247 0.58747 -2.02758
-0.401899 0.580834 -2.52754
-2.98272e-06 0.264924 -2.07693
-2.23517e-06 0.420987 -2.59069
-0.891259 0.421499 -1.63637
-0.414526 0.261658 -1.655
-0.849245 0.631632 2.08754
-0.391074 0.635 2.54407
-3.00755e-06 0.281514 2.12607
-2.25753e-06 0.473928 2.55912
-0.870403 0.432262 1.68817
-0.43128 0.270346 1.705
-4.41883e-07 1.04313 -2.0201
-7.45058e-07 0.776123 -2.57499
-0.883589 0.778601 -1.5991
-0.426687 1.05775 -1.58046
-1.23741e-06 1.1332 2.05766
-7.52509e-07 0.812715 2.49497
-0.868241 0.824652 1.65451
-0.419549 1.18381 1.63768
0.892469 0.587469 -2.02758
0.401892 0.580834 -2.52756
0.891224 0.421471 -1.63637
0.414547 0.261658 -1.655
0.849241 0.63163 2.08754
0.39107 0.635 2.54407
0.870214 0.434007 1.68817
0.429527 0.270339 1.705
0.883559 0.778601 -1.5991
0.426686 1.05775 -1.58046
0.868231 0.824649 1.65451
0.419545 1.18384 1.63768
-0.894599 0.41084 0.0259013
-0.418341 0.260026 0.0250001
-0.8822 0.600741 -1.2066
-0.881687 0.610914 -0.384331
-2.98768e-06 0.25373 -1.235
-2.99265e-06 0.249013 -0.395
-0.881491 0.617989 0.437936
-0.893554 0.624895 1.2602
-2.99762e-06 0.251056 0.445
-3.00258e-06 0.263816 1.285
-0.87527 0.809818 0.0277038
-0.566936 1.58063 0.0286062
-1.32565e-06 1.12623 -1.1782
-2.56306e-06 1.57247 -0.373661
-4.1541e-06 1.59778 0.430875
-3.71222e-06 1.46449 1.23541
0.894593 0.41084 0.0259026
0.418335 0.260026 0.0250001
0.882193 0.60074 -1.2066
0.881687 0.610912 -0.384329
0.881492 0.617985 0.437939
0.893554 0.624891 1.26021
0.875264 0.809812 0.0277075
0.56693 1.58063 0.0286087
-0.887785 0.422208 -2.05129
-0.895278 0.420945 -1.2208
-0.876347 0.786481 -1.1924
-0.895384 0.758676 -2.00516
0.887739 0.422194 -2.05129
0.895384 0.758676 -2.00516
0.876346 0.78648 -1.1924
0.895249 0.420931 -1.2208
-0.409194 0.264788 -2.07596
0.409202 0.264789 -2.07596
0.419709 0.253707 -1.235
-0.419702 0.253706 -1.235
-0.414594 1.01003 -2.00142
-0.426736 1.09179 -1.1782
0.426734 1.09175 -1.1782
0.414593 1.01007 -2.00142
-0.402881 0.421952 -2.53995
-0.402199 0.757437 -2.49552
0.402196 0.757437 -2.49557
0.402874 0.421952 -2.53997
-0.894439 0.408529 -0.389666
-0.894849 0.414191 0.441468
-0.875004 0.814378 0.434404
-0.875585 0.804105 -0.378997
0.894434 0.408529 -0.389665
0.875587 0.804103 -0.378994
0.874972 0.814857 0.434409
0.894813 0.413707 0.44147
-0.417535 0.258504 -0.395
0.417529 0.258504 -0.395
0.419152 0.261548 0.445
-0.419158 0.261548 0.445
-0.583048 1.54544 -0.373662
-0.564742 1.58097 0.430874
0.564739 1.58097 0.430877
0.583044 1.54544 -0.373659
-0.889582 0.429839 1.2726
-0.847807 0.453631 2.10627
-0.851072 0.809826 2.06374
-0.892316 0.820145 1.24781
0.889594 0.43071 1.2726
0.892326 0.82014 1.24781
0.851067 0.809825 2.06375
0.847803 0.454503 2.10627
-0.430714 0.263954 1.285
0.429834 0.263947 1.285
0.41202 0.281616 2.12554
-0.412899 0.281615 2.12554
-0.421241 1.45769 1.23541
-0.398525 1.13136 2.0488
0.398523 1.13135 2.04881
0.421234 1.45769 1.23541
-0.392796 0.474464 2.55953
0.392792 0.474464 2.55953
0.384285 0.803858 2.52881
-0.384287 0.803858 2.52881
-0.780441 0.343958 -2.45431
-0.605792 0.262602 -2.4974
-0.814943 0.259083 -2.285
-0.788221 0.395 2.53559
-0.591777 0.335738 2.52426
-0.738379 0.364351 2.335
-0.822098 0.81771 -2.41551
-0.60375 0.905205 -2.39354
-0.839227 0.935409 -2.18387
-0.774152 0.875 2.46996
-0.56625 0.982676 2.46989
-0.8005 0.995986 2.24108
0.605786 0.262532 -2.49747
0.780433 0.343958 -2.45431
0.814951 0.25907 -2.285
0.591771 0.332537 2.52746
0.788217 0.395 2.53559
0.738358 0.364366 2.335
0.60375 0.905208 -2.39354
0.822117 0.81771 -2.41553
0.839224 0.935406 -2.18387
0.56625 0.982708 2.46993
0.774133 0.875 2.46995
0.800398 0.995884 2.24109
-0.848433 0.233422 -1.025
-0.851065 0.2334 -0.605
-0.895576 0.308033 -0.810116
-0.639436 0.232804 -0.815
-0.861593 0.233309 1.075
-0.858947 0.233346 0.655
-0.896875 0.315835 0.861018
-0.647877 0.2327 0.865
-0.854118 0.977383 -0.977064
-0.86984 0.892422 -0.780814
-0.852906 0.985198 -0.574796
-0.724045 1.24117 -0.77593
-0.844806 1.01321 1.03427
-0.865127 0.916757 0.837123
-0.846933 1.00631 0.632006
-0.700248 1.28762 0.833141
0.848427 0.233422 -1.025
0.63943 0.232804 -0.815
0.851059 0.2334 -0.605
0.895572 0.308032 -0.810116
0.861587 0.233309 1.075
0.647871 0.2327 0.865
0.858941 0.233346 0.655
0.896944 0.315297 0.861019
0.854118 0.977383 -0.977061
0.72481 1.2427 -0.775927
0.869838 0.89242 -0.780811
0.852902 0.985195 -0.574793
0.8448 1.0132 1.03428
0.700242 1.28762 0.833146
[...]
POINT_DATA 3682
SCALARS point_scalars float 1
LOOKUP_TABLE default
-69.0595
-44.1177
-108.792
-43.9553
-69.2075
-44.7333
-109.028
-44.2831
-38.9831
-38.8214
-56.3298
-48.5343
-38.986
-38.8635
-56.4772
-48.5811
-62.6368
-139.723
-39.194
-40.2317
-36.5869
-43.5062
-43.5062
-74.7857
-157.02
-39.6014
-40.6391
-41.5931
-44.0553
-41.2858
-83.0186
-132.561
-50.2929
-46.5062
-46.063
-42.6097
-38.6348
-85.8745
-80.5801
-105.836
-57.3139
-46.8558
-44.4608
-43.0325
-64.3835
-57.2647
-38.7771
-39.1509
-40.3588
-40.4427
-41.2858
-58.1454
-41.2858
-41.2858
120.795
-38.0987
-38.0987
8.00136
-69.4431
-95.5089
-61.3941
-45.135
-40.7498
-39.5257
-63.5444
-57.4621
-38.7779
-39.1664
-42.04
-41.248
-41.7046
-60.62
-41.7046
-41.7046
121.381
-38.4383
-38.4383
4.81346
-69.4949
-95.8143
-61.3873
-44.1857
-40.6911
-39.7556
-63.1045
-140.119
-39.2096
-40.2646
-37.2313
-44.0409
-41.7046
-74.9181
-157.095
-39.6249
-40.6803
-42.0485
-44.2999
-41.7046
-83.1518
-132.961
-50.3906
-46.5474
-46.3402
-43.0682
-38.9995
-86.0743
-80.7291
-105.989
-57.3285
-46.9198
-44.6512
-43.3499
-59.5774
-226.574
-50.6071
-41.8185
-34.4852
-50.808
-85.0331
-43.9016
-41.7297
-49.7991
-59.9618
-50.609
-42.3253
-49.9923
-43.9012
-49.7936
-38.0603
-41.9929
-40.6824
-41.312
-40.5178
-52.2789
32.0083
-63.7629
-38.0645
-42.0318
-41.2404
-52.1078
-50.6032
-50.6227
-62.3138
-7.98964
204.753
-42.5233
-42.5061
-38.1003
-91.0483
-46.0149
-46.148
-40.8542
-47.3617
-32.4224
-36.7066
-213.262
-80.3698
-42.5623
-37.7
-43.0454
-64.1277
-100.732
-63.8008
-43.1829
-40.8475
-48.0598
-213.361
-36.844
-80.1873
-38.8772
-43.1064
-43.2745
-100.751
-64.2631
-63.8229
-40.8129
-43.6069
-48.1324
-42.004
-37.05
-40.4786
-40.1725
-41.6422
-37.6508
-41.5096
-39.7039
-41.9431
-46.1012
-55.5236
10.6553
-49.7854
-43.9642
-48.7247
-60.6143
-41.9728
-40.177
-37.0554
-40.5056
-41.7244
-39.7237
-37.6684
-41.5139
-41.9483
10.748
-46.1686
-55.6096
-49.8052
-60.6088
-43.9763
-48.7986
-82.6896
184.826
-91.1113
158.355
-51.1975
-60.5874
-45.2154
-34.3276
-39.8344
-30.3871
-45.6004
-41.9783
-37.4032
188.798
-48.2008
-16.8783
-45.1532
-38.3803
-45.951
-48.4869
-82.7235
184.928
-51.2181
-60.5902
-45.5218
-35.6155
-45.7084
-42.0797
-48.2092
-16.8737
-46.0438
-48.433
-40.408
-37.7824
-41.0095
-42.7826
-47.5579
-38.6666
-41.7892
-45.302
-38.6592
-40.2909
-46.3226
-75.6457
20.3607
-126.036
-71.6519
-51.7246
-40.4124
-37.7881
-41.0305
-42.8245
-41.8079
-45.375
-46.1543
-75.5921
-84.432
-41.3133
-41.6026
-73.3836
-84.45
-73.4308
-41.6198
-41.3342
-90.6075
-90.6113
-46.3469
-46.3427
-46.3479
8.19134
8.21555
-46.3496
157.874
152.639
152.243
157.964
-40.5321
-40.234
-44.0127
-46.7868
-40.556
-46.8744
-44.0406
-40.2505
-38.1935
-38.1975
-38.3291
-38.3193
-110.15
-62.8752
-62.7753
-110.175
-44.0758
-44.4631
-46.1075
-47.4418
-44.1479
-47.4861
-46.3443
-44.8292
-40.9288
-40.9679
-40.4777
-40.1192
-53.6371
-45.4058
-45.3419
-53.5938
-34.0947
-35.4769
-38.3818
-37.9743
-19.9422
-95.6365
-115.32
-45.3516
-40.7301
-38.733
-87.7962
-105.673
-87.6689
-43.5116
-40.1288
-46.5229
-95.7641
-18.8485
-115.307
-41.7148
-45.891
-39.2384
-105.794
-88.0927
-88.2004
-40.2992
-43.8558
-46.6626
-39.9945
-38.4355
-39.6342
-39.5219
-39.8153
-37.8853
-41.1973
-39.2062
-50.7676
-50.0804
-56.7981
-91.555
-48.0512
-45.7209
-47.1802
-52.3959
-39.9912
-39.5267
-38.4396
-39.6584
-39.8777
-39.2293
-37.8776
-41.2268
-50.8521
-93.8441
-50.1755
-56.9109
-48.0535
-52.4423
-45.74
-47.2503
-55.8264
-67.255
-122.962
158.303
-233.674
-233.676
-122.415
83.2554
-61.725
-41.3522
-50.6026
-57.5414
-41.8834
-42.349
-44.6906
-36.6783
-35.0648
-36.1174
-37.9968
-31.2081
-42.8344
-44.1595
-45.7198
-44.8309
-90.8578
-90.8853
-54.0757
135.62
-50.4061
-39.1217
-45.993
-25.3737
-41.4264
-41.3085
-43.451
-38.1602
-48.8018
-50.0497
-47.2507
-49.7724
-54.9995
-67.2255
-123.072
158.403
-61.8262
-41.3718
-50.6222
-57.5381
-42.4101
-42.8087
-45.0774
-37.2712
-41.9204
-44.5178
-45.5579
-44.911
-50.4217
-39.1407
-46.0048
-25.3697
-48.8363
-50.0765
-47.3101
-49.7237
-37.3336
-36.7265
-39.3699
-37.6126
-41.0862
-43.3338
-41.1907
-42.6
-40.5708
-40.5732
-43.1954
-39.5894
-41.6627
-42.3081
-41.5854
-43.7508
-40.4741
-40.4849
-39.3251
-39.6691
-56.9572
-50.6691
-49.6174
-61.6917
30.8524
30.8736
36.5819
-22.8866
-63.3816
-63.3697
-66.6952
-61.3266
-37.337
-36.7374
-39.3821
-37.619
-41.1189
-43.3823
-41.2208
-42.6432
-41.6364
-42.2542
-41.6424
-43.7954
-57.1974
-50.7395
-49.2112
-61.5985
-62.8046
-51.115
-49.8809
-44.1568
-62.8291
-51.1351
-49.8983
-44.1744
-74.4134
-61.9516
-61.9546
-53.1371
-23.4491
-10.346
-10.341
5.56337
196.884
199.975
202.644
196.948
-41.5175
-42.7371
-42.0659
-43.9277
-41.5153
-42.7566
-42.0601
-43.8778
-38.0304
-38.2093
-38.2597
-38.0335
-88.338
-109.842
-79.5362
-88.3312
-44.9825
-45.7372
-45.8961
-46.9766
-45.1986
-45.8827
-46.0083
-47.0694
-41.3253
-41.0741
-41.1417
-40.9348
-46.7088
-47.7288
-47.6805
-48.3955
-32.5566
-31.8013
-37.3797
-33.7474
-128.981
146.306
-123.884
99.191
-83.4014
-87.8344
-43.5918
-36.8968
-38.9662
-35.0771
-44.634
-40.6972
-108.714
137.111
-64.3478
44.0071
-67.1345
-50.6102
-45.826
-38.3112
-42.9763
-39.0313
-47.044
-46.0714
-123.894
99.219
-129.083
146.427
-83.3941
-87.8218
-39.5833
-36.3425
-44.0069
-37.5309
-44.8974
-41.1344
-64.4738
46.3704
-108.734
137.177
-67.1622
-50.6199
-42.977
-39.2391
-46.1388
-38.6465
-47.2106
-46.0245
-40.8135
-45.2901
-39.4199
-37.7865
-40.6132
-40.535
-42.536
-38.9428
-43.6661
-41.4581
-39.4171
-37.9593
-40.4287
-42.6016
-38.8899
-39.8938
-42.0606
-9.66996
-43.5187
-47.1159
-50.1447
-73.5602
24.037
-59.7261
-48.046
-59.1175
-43.5391
-44.7077
-45.8098
-54.6286
-61.5778
-64.1049
-40.8318
-45.2911
-42.5403
-38.9468
-39.4419
-37.7908
-40.6374
-40.5631
-43.7512
-41.5029
-38.9034
-39.9197
-39.4445
-37.9709
-40.4494
-42.6358
-42.0787
-9.64293
24.1449
-59.8451
-43.5627
-47.1892
-50.2484
-73.5611
-48.0805
-59.0159
-61.5153
-64.056
-43.5807
-44.7468
-45.8513
-54.6601
-84.0988
-79.6274
184.227
171.4
-91.1518
-91.1572
155.575
155.592
-63.8836
-44.2969
-73.0584
-51.4823
-44.8027
-45.636
-34.2786
-36.5173
-40.1065
-39.8869
-30.7791
-32.392
-45.6697
-44.2816
-42.3462
-41.6115
-39.1368
-39.1448
177.807
177.905
-42.0433
-59.0672
-30.5644
-3.91784
-45.2766
-45.2101
-38.6111
-38.3458
-46.0526
-48.5523
-49.6968
-47.3139
-84.1174
-79.6647
171.502
184.342
-63.9051
-44.3101
-73.0615
-51.4853
-45.9108
-45.1415
-35.6128
-37.2909
-45.7545
-44.6007
-42.4102
-41.8232
-59.0879
-42.0607
-3.90063
-30.5638
-48.6177
-46.209
-47.2538
-49.6503
-40.5091
-40.2421
-37.8435
-37.9482
-41.1051
-41.0411
-41.5812
-44.253
-47.2388
-47.236
-38.5562
-38.5586
-41.1331
-42.6454
-44.6322
-46.0394
-38.5843
-38.5789
-40.4499
-40.4735
-44.8764
-46.4342
-92.2248
-69.4667
17.7257
17.7556
-122.458
-122.462
-69.8369
-69.8323
-52.2089
-52.1916
-40.5229
-40.2482
-37.848
-37.9556
-41.0618
-41.1258
-41.613
-44.3118
-42.6656
-41.1488
-44.7011
-46.104
-46.541
-44.858
-69.4811
-92.1893
-127.454
-63.0579
-63.6978
-128.102
-40.361
-40.7641
-44.1841
-44.114
-46.5129
-41.0278
-43.1707
-41.8804
-101.305
-118.302
-61.0616
-54.7705
-127.462
-128.094
-63.7207
-63.0644
-101.299
-54.7846
-61.0868
-118.351
-46.5696
-41.9151
-43.1895
-41.0399
-40.3814
-44.131
-44.2007
-40.7908
-122.889
-122.978
-74.1771
-70.0119
-122.881
-70.0149
-74.1811
-122.985
-41.5955
-42.991
-52.7698
-48.3003
-41.5928
-48.2987
-52.7671
-43.0342
-70.7945
-35.8602
-24.7056
-55.2866
-41.4865
34.7216
3.49797
-16.2253
-41.3676
-16.2124
3.5093
34.7343
-70.8487
-55.3155
-24.7074
-35.859
111.998
158.038
193.632
71.9201
69.0688
117.11
193.7
149.135
69.889
149.309
193.776
117.165
111.97
71.9214
193.69
158.139
-39.4521
-39.4168
-41.6227
-41.4368
-39.7888
-41.1091
-41.2853
-39.333
-44.6926
-47.0295
-43.1667
-42.358
-51.0954
-44.1679
-44.1508
-47.8641
-39.4774
-41.472
-41.6395
-39.4332
-51.1967
-48.4298
-44.1832
-44.2224
-44.7484
-42.4033
-43.1513
-47.04
-39.8087
-39.348
-41.2849
-41.1519
-38.441
-39.4412
-38.128
-37.5097
-38.4454
-37.5146
-38.1305
-39.4436
-38.5551
-39.2299
-38.1925
-37.6072
-38.5393
-37.5987
-38.1892
-39.2226
-81.9276
-66.914
-106.888
-21.2808
-52.294
-65.4508
-77.306
-58.7579
-52.3542
-58.7432
-77.2994
-65.4428
-81.9074
-21.2935
-106.882
-66.8923
-42.037
-45.3012
-46.2484
-43.1536
-41.4932
-44.2091
-44.6346
-43.8298
-46.1675
-47.1187
-45.4491
-45.1723
-46.3751
-43.7795
-48.2064
-47.7325
-42.086
-43.1934
-46.3385
-45.3794
-46.3819
-47.7696
-48.3016
-43.8045
-46.4165
-45.5353
-45.6376
-47.2214
-41.894
-44.4998
-44.887
-44.6157
-39.4945
-39.6905
-41.198
-44.7825
-39.5283
-44.8695
-41.238
-39.7047
-39.9569
-38.6215
-41.5375
-41.4224
-39.4083
-41.1195
-41.4099
-38.1875
-55.5723
-52.6862
-48.7789
-62.3264
-43.6187
-43.3139
-46.9405
-47.9454
-43.6416
-47.8977
-46.8832
-43.2651
-55.6057
-62.3001
-48.7444
-52.6098
-38.3183
-31.8565
-31.9828
-36.6978
-39.105
-37.2898
-33.3357
-33.2685
-39.2584
-38.1305
-38.0528
-37.9717
-39.0066
-37.5106
-37.6674
-37.8695
-6.70216
-74.232
-168.28
-45.2307
-37.6924
-35.8441
-94.0316
-88.0294
-111.545
-43.8835
-40.6264
-46.0352
-74.4027
-6.52806
-168.348
-38.3144
-45.7177
-36.3992
-88.9852
-94.1532
-111.58
-40.9034
-44.2579
-46.2512
-38.7809
-38.2632
-39.0651
-39.0037
-39.5611
-38.1058
-39.875
-38.928
-54.7204
-52.6922
-56.7185
-70.9901
-48.0229
-46.9815
-48.5326
-50.1566
-38.7811
-39.008
-38.2675
-39.0817
-39.6115
-38.9577
-38.1294
-39.916
-54.8428
-71.3193
-52.8053
-56.8601
-48.0283
-50.2223
-47.017
-48.5822
-75.3753
-77.0097
-157.169
106.069
-235.405
-235.438
-159.936
-49.9686
-56.0764
-46.2392
-49.8453
-54.5794
-42.0817
-41.9704
-43.7463
-37.9177
-34.4343
-35.0479
-36.3196
-33.5446
-41.8069
-46.9647
-46.7569
-45.303
-88.6775
-88.5409
-67.5688
-0.950776
-45.8075
-40.2495
-45.9285
-33.2314
-41.5077
-41.434
-42.7329
-38.6493
-48.956
-49.7135
-48.0818
-51.5664
-76.3527
-84.0212
-157.231
106.148
-56.0337
-46.2606
-49.864
-54.5785
-42.593
-42.4566
-44.1918
-38.3512
-41.395
-47.5214
-46.1878
-45.2195
-45.812
-40.2422
-45.9358
-33.2318
-48.9752
-49.7195
-48.1149
-51.4737
-37.4621
-37.4997
-38.1977
-37.371
-41.5054
-42.5728
-41.5663
-42.3665
-40.6784
-40.6796
-41.4522
-40.2474
-41.1556
-41.5123
-40.9991
-42.7136
-40.5529
-40.5586
-39.7888
-40.113
-56.5986
-51.009
-51.2142
-56.2316
31.8615
31.9031
40.7266
8.60134
-63.6948
-63.688
-65.0717
-62.4515
-37.4652
-37.5067
-38.207
-37.3772
-41.5415
-42.616
-41.6012
-42.4085
-41.1046
-41.3846
-41.234
-42.5009
-55.8281
-51.0739
-50.7919
-55.9766
-55.7441
-50.9328
-50.0636
-47.0548
-55.7652
-50.9525
-50.0817
-47.0741
-67.9628
-62.2205
-62.222
-57.4293
-15.4724
-8.55473
-8.55004
-1.1858
200.896
201.426
205.686
200.931
-42.197
-42.6891
-42.3763
-43.1376
-42.1886
-42.6863
-42.3597
-43.1077
-38.0815
-38.1186
-38.1472
-38.0832
-90.3666
-98.996
-84.7191
-90.3648
-44.9091
-45.8848
-46.0612
-47.5924
-45.0739
-46.0228
-46.1865
-47.7088
-41.1258
-40.9056
-40.9421
-41.3283
-47.2185
-47.463
-47.4335
-47.6625
-32.2866
-31.6862
-35.7458
-32.9672
-28.3497
-44.4176
-140.492
108.97
-159.183
-227.643
-163.088
1.86629
-94.2715
-69.2538
-82.1036
-84.2075
-43.4355
-42.019
-43.4419
-38.1164
-39.3081
-36.1901
-38.0981
-37.0249
-44.6457
-41.5397
-44.0099
-40.9915
-81.4199
-63.9737
-143.903
101.967
-111.954
-86.5091
-74.464
-61.9277
-74.1848
-56.8792
-65.9816
-55.7074
-43.2591
-42.7741
-44.8518
-39.0819
-40.3129
-41.1106
-41.7603
-39.7969
-47.3384
-48.3766
-47.1223
-47.2235
-159.461
-227.668
-163.103
1.82674
-29.6451
-44.5706
-140.371
108.936
-94.2361
-69.3264
-82.0589
-84.1738
-40.3468
-37.4221
-38.967
-38.2453
-43.9856
-42.5589
-43.9132
-38.5641
-45.1244
-43.2937
-44.2674
-41.4485
-111.383
-86.464
-74.4151
-62.8737
-81.71
-63.4211
-143.933
102.109
-74.2006
-56.8972
-66.006
-55.714
-40.374
-41.021
-41.7588
-39.8977
-43.6522
-43.2177
-45.2125
-39.4133
-47.3845
-48.4346
-47.2514
-47.1953
-41.6959
-40.2453
-40.6645
-44.0503
-38.3502
-37.0738
-38.2798
-37.5696
-40.1838
-40.8043
-40.5011
-40.4982
-40.053
-40.3028
-41.231
-39.5007
-40.4144
-42.5222
-43.1423
-41.591
-38.0571
-37.292
-38.3862
-37.7502
-41.3916
-41.6674
-40.6876
-42.2359
-39.4187
-40.2568
-39.2487
-39.6232
-47.8135
-39.6104
-43.3817
-27.8725
-47.8138
-44.4838
-44.9304
-46.8121
-56.2454
-54.1763
-52.3098
-63.7875
-31.0897
26.8561
23.9454
-15.1413
-49.2539
-50.0342
-48.5511
-54.461
-44.8255
-43.1906
-43.729
-44.194
-48.0629
-49.5344
-46.9722
-51.4475
-57.2748
-62.7251
-60.7349
-63.5092
-41.7092
-40.2608
-40.6137
-44.0501
-40.0581
-40.3063
-41.2355
-39.5048
-38.3543
-37.0781
-38.2945
-37.5736
-40.2095
-40.8336
-40.5268
-40.5264
-40.4811
-42.5911
-43.241
-41.6589
-39.4408
-40.2728
-39.2644
-39.6438
-38.0721
-37.3077
-38.4159
-37.7635
-41.4136
-41.6668
-40.7104
-42.2563
-47.8427
-39.6234
-43.4023
-27.8747
-30.7469
26.9119
24.0663
-14.9301
-47.8931
-44.5404
-44.9876
-46.8845
-56.3248
-54.3133
-52.4069
-63.826
-49.2817
-50.0545
-48.5741
-54.456
-57.2913
-62.7097
-60.7327
-63.4845
-44.8425
-43.1803
-43.7729
-44.1889
-48.1382
-49.6047
-47.027
-51.5109
-98.0891
-71.8228
-83.5802
-81.1522
180.655
192.018
186.159
180.08
-103.849
-81.8132
-90.9751
-90.9783
125.754
186.491
155.088
155.102
-50.9924
-51.2551
-56.6841
-47.0926
-59.48
-61.4376
-66.382
-55.6525
-45.1729
-45.1695
-45.0114
-45.4177
-35.6228
-33.28
-34.0706
-35.3984
-38.9637
-40.5761
-39.9317
-39.8154
-30.4669
-30.8254
-29.2595
-30.4314
-45.4845
-45.5983
-46.7146
-44.3511
-43.8454
-41.3882
-43.0354
-41.7735
-44.8019
-30.1103
-37.8638
-37.8704
172.963
197.623
184.183
184.277
-46.8876
-49.2656
-44.3815
-52.5918
-20.8393
-13.5442
-23.661
-10.8934
-44.2544
-46.0704
-45.21
-45.1703
-38.8577
-37.4373
-38.5151
-38.3538
-46.5691
-45.6907
-45.9154
-46.6268
-49.0272
-48.0692
-48.9551
-48.0123
-98.1368
-71.8516
-83.6072
-81.19
180.78
192.133
180.164
186.284
-51.0128
-51.2761
-56.703
-47.1167
-59.4798
-61.4411
-66.3847
-55.6557
-45.5182
-45.435
-45.7086
-45.3333
-36.5683
-34.6634
-35.4192
-36.4303
-45.5454
-45.7551
-46.8326
-44.51
-43.9745
-41.4787
-43.118
-41.9231
-46.8991
-49.2786
-52.6099
-44.3938
-20.8335
-13.5387
-10.883
-23.6577
-46.6478
-45.7934
-46.7025
-46.0358
-48.9802
-48.0122
-47.9689
-48.9074
-40.0819
-40.8713
-40.4776
-40.3321
-37.7277
-37.9136
-37.7869
-37.837
-40.959
-42.0737
-41.0054
-41.0198
-42.7137
-42.7076
-42.2321
-43.4225
-45.191
-50.0329
-47.4617
-47.4603
-39.0592
-38.3925
-38.6348
-38.636
-41.6518
-41.9049
-41.6193
-42.163
-44.5483
-46.1109
-44.9876
-45.685
-38.954
-38.4284
-38.6394
-38.6365
-39.9553
-40.6256
-40.3261
-40.3383
-47.6278
-44.984
-45.4533
-46.8231
-67.5679
-84.5774
-81.6424
-73.1555
27.9022
13.2188
19.6748
19.6882
-82.456
-121.629
-125.138
-125.154
-68.8785
-75.1446
-71.1879
-71.1853
-57.1623
-49.7896
-51.8337
-51.839
-40.0894
-40.873
-40.4857
-40.3356
-37.7337
-37.9181
-37.7919
-37.8434
-40.9837
-42.0917
-41.0409
-41.0261
-42.7564
-42.7419
-42.2689
-43.4715
-41.6845
-41.9112
-42.1823
-41.6379
-44.6192
-46.1945
-45.0631
-45.7553
-47.3551
-44.8971
-46.771
-45.3759
-67.5132
-84.5655
-73.1056
-81.611
-101.494
-84.124
-84.3919
-73.2404
-41.1753
-40.8463
-42.3676
-41.3159
-41.622
-42.4099
-40.9513
-41.1773
-84.9607
-69.0633
-77.1504
-66.6983
-101.532
-84.1396
-84.4101
-73.2667
-84.9952
-69.1057
-77.1918
-66.7229
-41.6407
-42.4389
-40.9674
-41.1974
-41.1962
-40.8672
-42.3778
-41.3367
-103.959
-89.9126
-91.0616
-80.8953
-103.965
-89.912
-91.0672
-80.8986
-45.8911
-44.2634
-48.5994
-46.871
-45.888
-44.2591
-48.5956
-46.8813
-53.6979
-48.685
-41.7745
-37.6696
0.207172
14.138
2.35543
13.4989
0.241422
14.1874
2.38125
13.5376
-53.795
-48.6951
-41.7784
-37.6765
158.186
134.544
175.554
157.139
154.152
124.552
162.271
159.647
125.645
154.305
159.52
162.464
134.602
158.332
157.186
175.659
-40.0883
-40.5497
-40.5062
-41.0232
-39.9394
-40.2818
-40.2012
-40.5965
-43.7277
-44.8344
-43.2678
-44.4073
-47.1082
-48.2473
-45.3922
-46.3412
-40.111
-40.5763
-40.5257
-41.05
-47.1828
-48.3481
-45.4637
-46.4572
-43.7668
-44.8691
-43.2914
-44.417
-39.959
-40.3003
-40.2119
-40.6116
-38.0819
-38.5146
-37.9808
-38.3942
-38.5184
-38.0861
-38.3974
-37.985
-38.5959
-38.2641
-38.4613
-38.1207
-38.2535
-38.5845
-38.1123
-38.4535
-95.1669
-86.2524
-103.11
-117.737
-58.2461
-61.2783
-65.0271
-67.4382
-61.3523
-58.2335
-67.4304
-65.0038
-86.383
-95.0526
-117.773
-103.061
-43.7926
-43.2324
-45.3833
-44.3273
-44.2204
-44.3225
-44.6288
-44.3924
-45.8104
-46.6947
-45.8499
-46.161
-48.3132
-45.3879
-49.0839
-46.5776
-43.8643
-43.3047
-45.4632
-44.3954
-48.3574
-45.4251
-49.1423
-46.6328
-46.1067
-46.8973
-46.1067
-46.3551
-44.6022
-44.6917
-44.9822
-44.7879
-41.2825
-40.3208
-41.6365
-40.6589
-41.3189
-40.3511
-41.6874
-40.6917
-39.9186
-40.747
-40.303
-41.0778
-39.4625
-40.3631
-40.0031
-40.785
-55.4678
-61.4038
-51.1878
-52.8359
-44.2643
-45.607
-45.3381
-46.4638
-44.2098
-45.5548
-45.2654
-46.3987
-55.4058
-61.3468
-51.1436
-52.8012
-35.393
-34.4872
-34.0101
-31.8397
-35.7985
-36.4069
-33.6104
-35.4298
-38.81
-38.7217
-38.4458
-37.9708
-38.3269
-38.506
-37.4037
-38.1712
-144.794
110.632
-164.874
53.3653
-127.046
-119.029
-39.7734
-39.9478
-38.6515
-39.548
-41.2032
-39.3222
-135.092
70.509
-84.6128
-9.50658
-96.6263
-74.0559
-45.8387
-39.79
-41.947
-39.3434
-46.3337
-45.061
-164.794
53.2562
-144.701
110.469
-127.058
-119.021
-39.1431
-40.4777
-40.2487
-40.3462
-41.5696
-39.8413
-84.6297
-9.08192
-135.102
70.3905
-96.5901
-74.0931
-42.051
-39.5745
-46.1648
-40.1144
-46.554
-45.1202
-39.7389
-41.0511
-38.3932
-38.1207
-39.8972
-39.5987
-40.2578
-38.8559
-42.1113
-39.2965
-38.5114
-38.2507
-40.0826
-42.1571
-38.7702
-39.3973
-48.7464
-61.2584
-48.5729
-50.8853
-53.4788
-67.3542
-67.06
-91.9754
-47.252
-50.3147
-45.3047
-45.7365
-45.2206
-49.3851
-53.492
-53.2828
-39.751
-41.0531
-40.2619
-38.86
-38.4109
-38.1245
-39.9191
-39.6233
-42.128
-39.3401
-38.7896
-39.4247
-38.5871
-38.2658
-40.1054
-42.2074
-48.812
-61.322
-66.3096
-92.9552
-48.652
-50.9843
-53.5871
-67.4669
-47.2345
-50.3701
-53.5461
-53.3434
-45.3528
-45.737
-45.2847
-49.4675
-147.131
110.108
-152.947
103.166
-126.219
-120.971
159.165
154.641
-160.73
-27.3047
-160.741
-27.2972
-122.443
-122.446
67.9392
67.8856
-62.1899
-66.5633
-42.5283
-44.6934
-56.1725
-46.7105
-63.3553
-52.5647
-43.5846
-37.9874
-44.0041
-38.3707
-44.461
-44.9356
-36.7295
-36.9805
-36.6516
-34.167
-37.3355
-35.3227
-38.2188
-37.979
-31.5129
-32.3794
-44.0922
-40.5486
-45.0874
-45.0803
-46.5391
-44.279
-51.8114
-41.8967
-69.4157
10.946
-69.4265
10.9284
-54.3359
-54.3343
141.296
141.991
-53.501
-42.0587
-41.5483
-27.3667
-42.8749
-49.6023
-30.3212
-20.6711
-42.4646
-38.674
-42.3833
-38.8158
-43.3842
-43.3429
-38.2817
-38.1754
-47.3909
-48.9458
-48.506
-54.1745
-47.114
-47.3896
-50.8662
-48.8266
-146.963
110.18
-152.929
103.382
-126.257
-121.036
154.734
159.27
-62.2522
-66.5727
-42.5498
-44.7008
-56.1826
-46.7342
-63.3542
-52.5626
-44.054
-38.3761
-44.4131
-38.7261
-45.3105
-44.8584
-37.3104
-37.521
-44.0236
-40.7971
-45.2805
-45.2629
-46.6205
-44.3743
-51.9122
-41.9445
-53.5164
-42.0672
-41.5602
-27.3597
-49.6124
-42.8885
-20.6616
-30.319
-47.462
-48.9124
-48.5327
-54.1832
-47.4357
-47.1952
-48.781
-50.7981
-38.1785
-37.3404
-38.2199
-37.436
-39.498
-39.4561
-37.4361
-37.5118
-40.9169
-41.2703
-42.6143
-43.8612
-40.8961
-41.4787
-42.0601
-43.2789
-41.3171
-40.0859
-41.3196
-40.0884
-43.1049
-43.1037
-39.55
-39.5512
-41.4342
-42.3928
-42.3615
-42.5386
-41.4927
-41.9029
-43.4844
-43.996
-39.6754
-40.0209
-39.6841
-40.0329
-39.3134
-39.3094
-39.6601
-39.6677
-49.9049
-60.1201
-48.5539
-54.8191
-47.6919
-49.8925
-64.0977
-61.234
39.5465
7.78819
39.5205
7.66327
36.1806
36.1676
-22.2264
-22.2154
-64.2232
-62.6998
-64.2144
-62.6818
-66.3874
-66.3837
-61.5864
-61.5727
-38.191
-37.3451
-38.2328
-37.4453
-39.5108
-39.4681
-37.4414
-37.5191
-40.9466
-41.3049
-42.6565
-43.9138
-41.5107
-40.9245
-42.0999
-43.327
-41.479
-42.3855
-42.3781
-42.5049
-41.9548
-41.5483
-43.5391
-44.0084
-50.7361
-60.0966
-48.5952
-54.8498
-50.2971
-47.6517
-61.1904
-64.0406
-63.3058
-61.9685
-56.4568
-47.1452
-46.2677
-54.4474
-44.2261
-43.7278
-63.3295
-61.9933
-56.4774
-47.1634
-54.4672
-46.2877
-43.747
-44.2425
-74.3439
-74.346
-67.6494
-57.031
-67.6527
-57.0338
-52.9662
-52.9646
-23.6296
-23.6303
-17.945
-3.29286
-3.28506
-17.9422
5.04983
5.0557
195.649
197.105
197.529
197.558