# vtk DataFile Version 2.0
tet_velo
ASCII
DATASET UNSTRUCTURED_GRID
POINTS 29498 float
-0.715 0.085 -1.9931
-0.653794 0.175 2.115
-0.705 0.645 -2.08455
-0.72358 1.035 2.085
0.715 0.085 -1.9931
0.653789 0.175 2.115
0.705 0.645 -2.08454
0.736817 1.035 2.085
-0.717293 0.0923055 -0.623733
-0.725822 0.0933741 0.745633
-0.763152 0.826959 -0.6947
-0.736688 0.924301 0.69515
0.716933 0.0926637 -0.623733
0.725834 0.093359 0.745633
0.765298 0.824692 -0.694693
0.741544 0.920333 0.695154
-1.45611 -0.34464 -3.06271
-1.45147 -0.277178 -1.95901
-1.45268 -0.272568 -0.590176
-1.45048 -0.288081 0.774539
-1.41346 -0.234354 2.14303
-1.39762 -0.164557 3.24502
-1.39535 -0.0912406 4.35017
-1.45318 -0.0115675 -3.10107
-1.45114 0.0749281 -1.99514
-1.45696 0.105452 -0.622313
-1.45041 0.11175 0.748666
-1.39898 0.181611 2.1211
-1.38454 0.251876 3.22338
-1.38581 0.32209 4.32786
-1.44927 0.616389 -3.18354
-1.45206 0.699237 -2.07845
-1.48536 0.838026 -0.691667
-1.46657 0.926535 0.696571
-1.43885 1.02567 2.08297
-1.40298 1.09157 3.1844
-1.38854 1.15209 4.28558
-1.4484 1.66996 -3.29184
-1.45196 1.76924 -2.18369
-1.46578 1.93148 -0.790261
-1.46562 2.08766 0.607581
-1.44816 2.21499 2.00079
-1.42746 2.29416 3.1085
-1.40833 2.35934 4.21191
-0.730029 -0.338406 -3.06139
-0.721764 -0.267233 -1.95709
-0.72181 -0.276901 -0.590434
-0.730946 -0.302836 0.771951
-0.701963 -0.243303 2.1385
-0.684238 -0.169819 3.24195
-0.679783 -0.094394 4.34839
-0.727418 -0.0123327 -3.10066
-0.663377 0.249406 3.22085
-0.667554 0.320773 4.32652
-0.72214 0.593589 -3.18607
-0.676708 1.09597 3.18481
-0.665317 1.15468 4.28566
-0.715665 1.65235 -3.29434
-0.715123 1.75157 -2.18644
-0.728631 1.92378 -0.791922
-0.732695 2.08903 0.607782
-0.718978 2.22074 2.00222
-0.700071 2.29987 3.10992
-0.682178 2.36366 4.21295
0.712125 -0.338762 -3.06139
0.71642 -0.267374 -1.95708
0.719161 -0.276894 -0.590434
0.708414 -0.303004 0.771951
0.665083 -0.243449 2.1385
0.704727 -0.170105 3.24195
0.733805 -0.0948585 4.34839
0.710411 -0.0126334 -3.10066
0.72112 0.249185 3.22085
0.746928 0.320321 4.32652
0.713097 0.593189 -3.18606
0.753517 1.09561 3.18481
0.765209 1.1541 4.28566
0.743508 1.65133 -3.29434
0.751717 1.75032 -2.18644
0.749989 1.92203 -0.791918
0.740901 2.08708 0.607785
0.743994 2.21928 2.00222
0.754903 2.29875 3.10993
0.767423 2.36267 4.21295
1.43696 -0.345597 -3.06271
1.44231 -0.277971 -1.95901
1.44637 -0.273421 -0.590174
1.43358 -0.289056 0.774541
1.39344 -0.234991 2.14303
1.41442 -0.165336 3.24503
1.4436 -0.092282 4.35017
1.43648 -0.0125062 -3.10106
1.44529 0.0740195 -1.99513
1.45431 0.10422 -0.62231
1.44809 0.110309 0.748668
1.40203 0.18111 2.1211
1.4269 0.251165 3.22338
1.45546 0.321052 4.32786
1.44183 0.615191 -3.18353
1.45177 0.697767 -2.07844
1.4874 0.834706 -0.691659
1.47172 0.922308 0.696575
1.45715 1.02437 2.08297
1.4644 1.0905 3.1844
1.47826 1.15081 4.28558
1.47227 1.66787 -3.29183
1.4819 1.76674 -2.18368
1.48521 1.92817 -0.790253
1.4769 2.08407 0.607586
1.47543 2.21216 2.0008
1.48186 2.2919 3.1085
1.49136 2.35734 4.21191
-0.73223 0.365 -2.06106
0 0.0828395 -1.99526
-0.718855 0.0859442 -1.30842
-0.626011 0.605 2.03732
-2.5034e-06 0.241317 2.04868
-0.72154 0.102455 1.43032
0 0.709418 -2.14896
-0.762045 0.763948 -1.38962
0.0066185 0.971368 2.02137
-0.710091 0.959608 1.39008
0.732225 0.365 -2.06105
0.718744 0.0860545 -1.30842
0.629914 0.605 2.03461
0.721536 0.102455 1.43032
0.763336 0.763033 -1.38962
0.715384 0.95387 1.39008
-0.721178 0.0932188 0.06095
-0.832749 0.459632 -0.659217
-0.000179944 0.0907263 -0.623733
-0.849534 0.508838 0.720392
5.86218e-06 0.0908882 0.745633
-0.74973 0.87544 0.000225067
0.00107299 0.97391 -0.694697
0.00242826 1.22418 0.695152
0.72121 0.093184 0.06095
0.832707 0.458678 -0.659213
0.849728 0.506846 0.720393
0.753263 0.872355 0.000230074
-0.869061 0.412316 -1.34902
-0.831665 0.484235 0.0305875
-0.881002 0.556919 1.4102
-8.9972e-05 0.0835051 -1.30842
-8.70409e-05 0.0908696 0.06095
1.67939e-06 0.101277 1.43032
0 0.365 -2.14068
0.003308 0.605 2.16647
0.000536497 0.858525 -1.38962
0.00175063 1.23783 0.000227571
0.00452338 1.06875 1.39008
0.869136 0.411839 -1.34902
0.831571 0.482762 0.03059
0.881022 0.555923 1.4102
-1.08307 0.0799641 -1.99412
-0.718382 -0.0911164 -1.97509
-0.721209 0.0363336 -2.54688
-1.02639 0.178305 2.11805
-0.677879 -0.0341516 2.12675
-0.658586 0.212203 2.66792
-1.07853 0.672119 -2.0815
-0.71357 0.619294 -2.63531
-0.710061 1.19828 -2.1355
-1.08122 1.03034 2.08398
-0.700144 1.06549 2.63491
-0.721279 1.62787 2.04361
0.71571 -0.0911871 -1.97509
0.712705 0.0361833 -2.54688
1.08015 0.0795097 -1.99412
0.659436 -0.0342247 2.12675
0.687454 0.212093 2.66792
1.02791 0.178055 2.11805
0.709049 0.619094 -2.6353
0.728359 1.19766 -2.13549
1.07838 0.671384 -2.08149
0.745167 1.06531 2.63491
0.740406 1.62714 2.04361
1.09698 1.02968 2.08398
-1.08713 0.0988786 -0.623023
-0.719551 -0.0922977 -0.607084
-1.08811 0.102562 0.74715
-0.728384 -0.104731 0.758792
-1.12426 0.832492 -0.693184
-0.745892 1.37537 -0.743311
-1.10163 0.925418 0.695861
-0.734692 1.50666 0.651466
0.718047 -0.0921153 -0.607084
1.08562 0.0984416 -0.623022
0.717124 -0.104822 0.758792
1.08696 0.101834 0.747151
0.757643 1.37336 -0.743306
1.12635 0.829699 -0.693176
0.741222 1.50371 0.651469
1.10663 0.92132 0.695864
-1.45379 -0.310909 -2.51086
-1.45464 -0.178104 -3.08189
-1.09307 -0.341523 -3.06205
-1.45207 -0.274873 -1.2746
-1.4513 -0.101125 -1.97708
-1.08662 -0.272205 -1.95805
-1.45158 -0.280325 0.0921814
-1.45482 -0.0835584 -0.606245
-1.08724 -0.274735 -0.590305
-1.43197 -0.261218 1.45878
-1.45044 -0.0881657 0.761603
-1.09071 -0.295459 0.773245
-1.40554 -0.199456 2.69403
-1.40622 -0.0263715 2.13206
-1.05771 -0.238829 2.14077
-1.39649 -0.127899 3.7976
-1.39108 0.0436594 3.2342
-1.04093 -0.167188 3.24349
-1.39058 0.115425 4.33901
-1.03757 -0.0928173 4.34928
-1.45216 0.0316803 -2.5481
-1.45122 0.302411 -3.1423
-1.0903 -0.0119501 -3.10087
-1.45405 0.0901899 -1.30872
-1.4516 0.387083 -2.0368
-1.45369 0.108601 0.0631764
-1.47116 0.471739 -0.65699
-1.42469 0.14668 1.43488
-1.45849 0.519142 0.722619
-1.39176 0.216744 2.67224
-1.41892 0.603643 2.10203
-1.38518 0.286983 3.77562
-1.39376 0.671721 3.20389
-1.02396 0.250641 3.22212
-1.38718 0.737092 4.30672
-1.02668 0.321432 4.32719
-1.45067 0.657813 -2.631
-1.44884 1.14317 -3.23769
-1.08571 0.604989 -3.1848
-1.46871 0.768631 -1.38506
-1.45201 1.23424 -2.13107
-1.47596 0.88228 0.00245185
-1.47557 1.38475 -0.740964
-1.45271 0.976105 1.38977
-1.46609 1.5071 0.652076
-1.42092 1.05862 2.63368
-1.44351 1.62033 2.04188
-1.39576 1.12183 3.73499
-1.41522 1.69286 3.14645
-1.03985 1.09377 3.18461
-1.39843 1.75572 4.24874
-1.02693 1.15339 4.28562
-1.45018 1.7196 -2.73776
-1.08203 1.66115 -3.29309
-1.45887 1.85036 -1.48697
-1.08354 1.7604 -2.18507
-1.4657 2.00957 -0.0913398
-1.0972 1.92763 -0.791091
-1.45689 2.15132 1.30419
-1.09916 2.08834 0.607681
-1.43781 2.25457 2.55465
-1.08357 2.21787 2.00151
-1.41789 2.32675 3.66021
-1.06377 2.29701 3.10921
-1.04525 2.3615 4.21243
-0.725897 -0.302819 -2.50924
-0.728724 -0.175369 -3.08102
-0.00895195 -0.338584 -3.06139
-0.721787 -0.272067 -1.27376
-0.00267189 -0.267303 -1.95708
-0.726378 -0.289869 0.0907582
-0.00132402 -0.276898 -0.590434
-0.716455 -0.27307 1.45523
-0.0112663 -0.30292 0.771951
-0.693101 -0.206561 2.69023
-0.0184403 -0.243376 2.1385
-0.682011 -0.132107 3.79517
-0.673808 0.0397933 3.2314
0.0102444 -0.169962 3.24195
-0.673669 0.11319 4.33745
0.0270109 -0.0946263 4.34839
-0.724779 0.290628 -3.14336
-0.00850383 -0.012483 -3.10066
-0.665466 0.28509 3.77368
-0.670043 0.672689 3.20283
0.0288713 0.249296 3.22085
-0.666436 0.737725 4.30609
0.0396868 0.320547 4.32652
-0.718903 1.12297 -3.24021
-0.0045216 0.593389 -3.18607
-0.671012 1.12532 3.73524
-0.688389 1.69792 3.14737
0.0384046 1.09579 3.18481
-0.673747 1.75917 4.2493
0.0499463 1.15439 4.28566
-0.715394 1.70196 -2.74039
0.0139214 1.65184 -3.29434
-0.721877 1.83767 -1.48918
0.0182974 1.75095 -2.18644
-0.730663 2.0064 -0.0920702
0.0106786 1.92291 -0.79192
-0.725837 2.15488 1.305
0.00410267 2.08805 0.607783
-0.709525 2.2603 2.55607
0.0125083 2.22001 2.00222
-0.691125 2.33176 3.66144
0.0274161 2.29931 3.10993
0.0426223 2.36316 4.21295
0.714273 -0.303068 -2.50923
0.711268 -0.175698 -3.08102
1.07454 -0.342179 -3.06205
0.717791 -0.272134 -1.27376
1.07937 -0.272673 -1.95805
0.713788 -0.289949 0.0907586
1.08277 -0.275158 -0.590304
0.686748 -0.273227 1.45523
1.071 -0.29603 0.773246
0.684905 -0.206777 2.69023
1.02926 -0.23922 2.14077
0.719266 -0.132482 3.79517
0.712924 0.0395403 3.2314
1.05957 -0.16772 3.24349
0.740367 0.112731 4.33745
1.08871 -0.0935703 4.34928
0.711754 0.290278 -3.14336
1.07344 -0.0125698 -3.10086
0.734024 0.284753 3.77368
0.737318 0.6724 3.20283
1.07401 0.250175 3.22212
0.756069 0.737213 4.30609
1.10119 0.320686 4.32719
0.728303 1.12226 -3.2402
1.07746 0.60419 -3.1848
0.759363 1.12486 3.73524
0.75421 1.69718 3.14737
1.10896 1.09306 3.18461
0.766316 1.75839 4.2493
1.12174 1.15246 4.28562
0.747613 1.70083 -2.74039
1.10789 1.6596 -3.29308
0.750853 1.83618 -1.48918
1.11681 1.75853 -2.18506
0.745445 2.00456 -0.0920666
1.1176 1.9251 -0.791085
0.742448 2.15318 1.305
1.1089 2.08558 0.607686
0.749449 2.25902 2.55607
1.10971 2.21572 2.00151
0.761163 2.33071 3.66144
1.11838 2.29533 3.10921
1.12939 2.36001 4.21243
1.43964 -0.311784 -2.51086
1.43672 -0.179052 -3.08188
1.44434 -0.275696 -1.27459
1.4438 -0.101976 -1.97707
1.43998 -0.281238 0.0921832
1.45034 -0.0846007 -0.606242
1.41351 -0.262023 1.45879
1.44084 -0.0893736 0.761604
1.40393 -0.200163 2.69403
1.39774 -0.0269406 2.13206
1.42901 -0.128809 3.7976
1.42066 0.0429146 3.2342
1.44953 0.114385 4.33901
1.44088 0.0307566 -2.5481
1.43915 0.301342 -3.1423
1.4498 0.0891195 -1.30872
1.44853 0.385893 -2.03679
1.4512 0.107264 0.0631788
1.47086 0.469463 -0.656985
1.42506 0.145709 1.43488
1.4599 0.516308 0.722622
1.41447 0.216137 2.67224
1.42959 0.602737 2.10203
1.44118 0.286108 3.77562
1.44565 0.670831 3.20389
1.46686 0.735932 4.30672
1.4468 0.656479 -2.63099
1.45705 1.14153 -3.23768
1.46959 0.766237 -1.38505
1.46683 1.23225 -2.13106
[...]
POINT_DATA 29498
VECTORS point_vectors float
-5.74577 -8.23313 17.1422
0.255707 0.484479 2.72945
-8.18165 6.0013 7.10408
0.347093 -0.624843 8.21156
5.69364 -8.22603 17.197
-0.336292 0.44849 2.86918
8.2492 6.07369 7.02496
-0.429066 -0.467585 8.4185
0 0 0
0.0015676 0.00181737 0.0856645
-0.00750628 -0.00425143 0.0182878
-1.69319e-17 -2.75732e-17 -9.85784e-17
0 0 0
-0.00151518 0.00184082 0.0842128
0.0670676 -0.0377464 0.163852
0 0 0
-0.637504 -0.312652 19.8366
-1.25881 -0.741867 20.6325
-0.4056 -0.328446 21.3554
0.0872828 -0.0260949 21.5076
0.659898 0.330082 21.3326
0.872385 0.38083 20.841
0.736014 0.180165 20.724
-0.746178 -0.217107 19.7188
-1.81588 -0.625107 20.5397
-0.592347 -0.408695 21.4295
0.02968 -0.181266 21.6162
0.956876 0.112254 21.3861
1.16207 0.034191 21.1653
0.957889 0.0425948 20.9461
-0.733123 0.106233 19.6251
-2.00663 0.337135 20.2539
-1.14891 -0.145531 21.3445
-0.249909 -0.216764 21.679
0.605059 -0.485644 21.3676
0.776289 -0.594308 21.025
0.654323 -0.475631 20.4957
-0.398625 0.329845 19.9223
-0.734309 0.635601 20.2663
-0.703515 0.501073 20.9607
-0.254547 0.0822331 21.318
0.106922 -0.236272 21.221
0.203487 -0.350094 20.9649
0.156096 -0.304076 20.6741
-0.638592 -0.727522 19.3085
-1.62341 -2.93747 21.1103
-0.381286 -0.373248 21.8522
0.0236183 0.0982442 21.4996
0.423933 1.07743 20.4972
0.642648 1.29646 18.5077
0.741865 0.812078 18.1469
-0.775538 -0.548591 18.9378
1.59093 1.14626 9.56951
1.68278 0.667103 11.5697
-0.794386 0.161652 18.7397
0.638568 -1.1779 12.9065
0.672668 -1.02948 16.3459
-0.312439 0.551091 19.6397
-0.674205 1.36084 20.0545
-0.758212 1.22599 20.9542
-0.244694 0.301453 21.6462
0.0272973 -0.333412 21.3257
0.100922 -0.43773 21.0446
0.11393 -0.37111 20.464
0.628898 -0.728617 19.3031
1.61868 -2.95336 21.1275
0.380161 -0.371316 21.8509
-0.0123448 0.0957516 21.4438
-0.402145 1.04995 20.2846
-0.706378 1.28894 18.8194
-0.784971 0.663616 18.6425
0.767161 -0.560244 18.9135
-1.77008 1.13091 10.8201
-1.53642 0.50389 12.9465
0.783396 0.164182 18.7231
-0.864356 -1.09549 15.0192
-0.767719 -0.874833 18.1925
0.320716 0.541703 19.6475
0.706758 1.32208 20.0629
0.769448 1.20703 20.9544
0.241445 0.300531 21.6421
-0.0425829 -0.324856 21.3186
-0.117729 -0.40828 21.0814
-0.105555 -0.367203 20.4825
0.635475 -0.324232 19.8274
1.26184 -0.766979 20.6393
0.408474 -0.339755 21.3499
-0.0911377 -0.0309577 21.5142
-0.653795 0.327915 21.3284
-0.857628 0.366937 20.8424
-0.718201 0.12616 20.6531
0.758967 -0.223612 19.6964
1.82955 -0.640989 20.5404
0.595046 -0.414409 21.4263
-0.0283493 -0.186973 21.6083
-0.92408 0.0913277 21.3746
-1.09087 0.0457797 21.082
-0.934421 -0.0375248 20.868
0.731974 0.106912 19.6245
2.01179 0.335191 20.2583
1.14312 -0.145323 21.3436
0.246846 -0.212857 21.6684
-0.56933 -0.451939 21.3602
-0.741968 -0.542772 21.0272
-0.530836 -0.373204 20.5807
0.395876 0.323678 19.9312
0.726352 0.616665 20.2764
0.695137 0.485975 20.9581
0.250902 0.082344 21.318
-0.104116 -0.226937 21.2049
-0.224423 -0.314051 20.985
-0.191922 -0.329282 20.751
-1.05177 0.0415823 1.77461
0.00281871 -0.0409603 0.512533
-0.0035614 0.00120484 0.3768
-0.00402344 -0.0033806 -0.00335654
-0.000553038 0.000585393 0.00322911
-0.0285153 0.142185 0.790916
0.000872708 0.220903 0.635328
-0.0719675 -0.0111561 0.192201
-0.0480818 0.186886 -0.189327
0.0155179 0.00389598 0.131934
1.05146 0.0444775 1.77872
0.00377303 0.0012188 0.374561
0.00249908 -0.00250074 -0.00208314
0.0237275 0.137928 0.782566
0.0556582 -0.00835351 0.149109
-0.0384197 0.0103734 0.301794
0.000638394 9.77983e-05 0.0187942
0 0 0
0 0 0
0 0 0
0 0 0
0 0 0
-8.23518e-05 0.0211345 0.0650504
-0.00024035 -0.00203843 0.0201601
-0.000622164 8.62014e-05 0.0178388
0 0 0
0 0 0
0 0 0
-0.000602501 -0.000822561 0.0237646
0 0 0
0.0153312 0.011527 0.150227
0 0 0
0 0 0
-3.04229e-19 1.42781e-18 7.92796e-17
0 0 0
-0.000164901 -0.00270143 -0.000906693
-1.1859e-05 0.00682278 0.0532526
-1.95254e-05 0.0111481 0.075379
-0.000334577 0.000807286 -0.00241318
0.000758766 -0.00107687 0.029965
0 0 0
-0.0178038 0.013635 0.175315
-3.38382 -1.77961 20.5257
-2.78303 -4.91996 21.4071
-2.19137 -1.91871 17.8162
1.38332 0.686441 17.2015
0.468698 1.19462 13.8876
0.755285 0.823432 7.14218
-4.02103 1.11406 19.8741
-2.29184 0.822517 17.2125
-1.74976 2.6654 19.6564
0.788385 -0.790588 20.2474
0.580238 -0.784775 11.3537
0.0838306 -0.665719 21.442
2.78077 -4.94308 21.4182
2.18698 -1.94142 17.7879
3.40846 -1.80877 20.5156
-0.497838 1.12259 13.5206
-0.909165 0.783736 7.80874
-1.30074 0.654106 17.1162
2.29311 0.828736 17.1893
1.76319 2.59601 19.6739
4.01481 1.10577 19.8777
-0.670569 -0.644621 12.3362
-0.104465 -0.633959 21.4196
-0.731751 -0.748614 20.3499
-0.313263 -0.575657 20.271
-0.00922599 -0.0745262 16.4511
0.102435 -0.169692 18.9761
0.315348 0.136299 16.1169
-1.81945 -0.612012 21.0699
-1.98228 1.78243 20.8577
-0.36448 -0.34319 20.3968
-0.542604 0.219979 22.2947
0.00982273 -0.0777211 16.3969
0.312047 -0.575632 20.229
-0.321272 0.132258 15.9419
-0.102772 -0.1751 18.9324
1.97888 1.73634 20.8735
1.80828 -0.613392 21.071
0.537925 0.220281 22.2763
0.358655 -0.332255 20.3707
-1.03478 -0.582561 20.0351
-0.687459 -0.268578 19.7867
-0.679668 -0.490082 19.6124
-0.812603 -0.545126 21.2328
-1.50693 -0.742935 20.5955
-1.66749 -1.57869 20.7335
-0.134982 -0.16965 21.4465
-0.487277 -0.38305 21.4051
-0.330108 -0.394715 21.5588
0.387963 0.171834 21.5291
0.0645949 -0.104337 21.5356
0.117349 0.0273374 21.6468
0.796381 0.386646 21.2617
0.814851 0.253143 21.3752
0.745611 0.717471 21.3842
0.848217 0.297451 20.814
1.03601 0.192014 21.0936
0.997541 0.834688 20.6559
0.852821 0.117524 20.8677
0.808405 0.586998 21.0052
-1.34497 -0.437163 19.8289
-0.761597 -0.0642352 19.642
-0.836983 -0.383137 19.3641
-1.19447 -0.540877 21.3356
-2.11545 -0.200583 20.3818
-0.238952 -0.299824 21.5119
-0.864047 -0.370623 21.4145
0.516997 0.00847263 21.6847
-0.106935 -0.245036 21.6658
1.12453 0.127775 21.1467
0.930864 -0.289756 21.3721
1.3049 0.0135501 20.4149
1.14711 -0.356345 21.1351
1.68645 0.623279 17.4032
0.949064 -0.45833 20.6873
1.29054 0.242768 17.6946
-1.35781 0.218698 19.6576
-0.582999 0.291602 19.7566
-0.862125 0.1324 19.2255
-1.60944 0.126137 21.1339
-1.27688 0.705367 20.2203
-0.728803 -0.224289 21.5635
-1.07438 0.36344 21.1249
0.281102 -0.328258 21.6475
-0.329161 -0.0275247 21.5504
0.742135 -0.559214 21.2211
0.2428 -0.396994 21.2902
0.786875 -0.550235 20.9087
0.358177 -0.479681 20.9462
1.01928 -0.936698 20.2366
0.316695 -0.411322 20.6792
0.827967 -0.831487 20.2928
-0.586843 0.495649 20.0334
-0.396646 0.448081 19.784
-0.763839 0.617518 20.6605
-0.778159 0.973044 20.1643
-0.53324 0.321517 21.2457
-0.798976 0.805976 20.9818
-0.033412 -0.108793 21.3003
-0.291591 0.193323 21.4723
0.162876 -0.311641 21.0739
0.0859015 -0.310769 21.2487
0.176469 -0.283833 20.7717
0.151963 -0.434484 20.8651
0.122581 -0.389706 20.6563
-1.2777 -1.814 19.2758
-0.71795 -0.681832 19.1039
-0.00907418 -0.994606 18.9329
-0.766357 -1.06777 22.0769
0.000311829 -3.77927 21.5877
-0.176525 -0.113716 21.597
-0.00391211 -0.494274 21.6293
0.20499 0.606926 21.1618
-0.00884262 0.00989259 20.5504
0.553524 1.22192 19.6413
-0.0258022 0.868907 19.1913
0.835547 1.39286 18.1448
1.12443 1.38122 14.769
-0.0344223 1.18181 17.2055
1.09586 0.828965 15.0519
-0.0320721 1.6102 15.3793
-0.832503 -0.186051 18.6838
-0.00900459 -0.843732 18.3959
1.77035 0.99012 11.0853
1.5546 -0.461057 7.0496
0.0277523 0.656728 2.14815
1.62146 -0.183695 11.1038
-0.0873219 1.18267 7.87448
-0.540602 0.573608 19.1903
-0.00612796 0.231838 18.1397
0.948669 -1.19129 14.6506
0.18694 -0.822276 21.1621
0.00616252 -0.0617778 1.90933
0.154585 -0.722142 20.8313
0.042136 -1.26562 7.4212
-0.51236 1.00539 19.6853
0.00649213 0.689436 19.5125
-0.737795 1.31315 20.5814
0.0191764 1.72681 19.9436
-0.583682 0.919573 21.4597
0.016141 1.75414 20.8776
-0.0524191 -0.140017 21.5023
-0.00242252 0.476289 21.7762
0.0729506 -0.42436 21.1893
-0.00853536 -0.34144 21.3368
0.0913208 -0.503757 20.6203
-0.0118241 -0.511124 20.8772
0.00220597 -0.533202 20.6357
1.27392 -1.83076 19.2693
0.706579 -0.677728 19.0932
0.671173 -0.499467 19.5933
0.768111 -1.07314 22.0886
1.67096 -1.60662 20.7368
0.17605 -0.117502 21.5344
0.333427 -0.398691 21.5597
-0.199887 0.598244 20.9712
-0.113424 0.0351763 21.6454
-0.547681 1.1707 19.5257
-0.723304 0.72894 21.3343
-0.865932 1.27243 18.4507
-1.25815 1.32368 15.3195
-0.993984 0.806295 20.6264
-1.1113 0.65505 15.5877
-0.844988 0.528892 20.9785
0.819667 -0.190356 18.6599
0.842558 -0.398791 19.3381
-1.78619 0.859884 11.5945
-1.65181 -0.470822 8.3048
-1.60017 0.461062 18.2262
-1.58209 -0.103622 12.7918
-1.21899 0.168937 18.7022
0.545017 0.566678 19.1986
0.862604 0.131628 19.2188
-0.983868 -1.10019 16.4975
-0.223973 -0.793916 21.0552
-0.972605 -0.822186 20.3877
-0.15758 -0.691004 20.672
-0.861982 -0.742593 20.2355
0.533554 0.976378 19.7015
0.402739 0.438699 19.79
0.750252 1.29237 20.5832
0.785292 0.94469 20.1746
0.588253 0.902555 21.452
0.797017 0.786996 20.9776
0.0430001 -0.135746 21.4979
0.289965 0.194612 21.4626
-0.0912317 -0.409835 21.1974
-0.0920145 -0.294341 21.2464
-0.0894748 -0.495399 20.6421
-0.162762 -0.411653 20.8703
-0.136036 -0.381836 20.714
1.03789 -0.59488 20.0272
0.692489 -0.278925 19.7723
0.821647 -0.555871 21.2356
1.51968 -0.757159 20.5942
0.141347 -0.183057 21.4361
0.486168 -0.390285 21.4047
-0.385535 0.153158 21.5229
-0.0591231 -0.118469 21.5271
-0.782943 0.343836 21.2626
-0.802259 0.24049 21.3688
-0.81217 0.24877 20.8629
-0.996364 0.190615 21.1078
-0.835283 0.0486351 20.7942
1.35927 -0.44807 19.8192
0.767898 -0.0682063 19.6324
1.19821 -0.548845 21.336
2.12346 -0.203688 20.3848
0.242331 -0.304871 21.5055
0.860092 -0.374413 21.4169
-0.505034 -0.00955241 21.6683
0.10935 -0.245534 21.6573
-1.0645 0.10638 21.1578
-0.877501 -0.285514 21.3779
-1.1459 -0.0162535 20.7374
-1.07065 -0.320735 21.0644
-0.844228 -0.369049 20.7781
1.36295 0.218808 19.6568
0.58399 0.287192 19.7638
1.60487 0.121219 21.1367
1.26433 0.68678 20.2259
0.722896 -0.225026 21.5596
1.06569 0.351686 21.1213
-0.264587 -0.315828 21.6251
0.325397 -0.0255445 21.5404
-0.693244 -0.507469 21.2082
-0.236111 -0.376232 21.2861
-0.70289 -0.4976 20.8331
-0.379527 -0.43722 20.9925
-0.361851 -0.436409 20.7746
0.58416 0.479026 20.0441
0.755344 0.597079 20.6659
0.532945 0.312365 21.2438
0.0259367 -0.105437 21.2992
-0.166486 -0.299601 21.0438
-0.174908 -0.285456 20.7923
-1.19018 -0.54037 19.9475
-1.68571 -2.06584 18.6657
-1.25541 -1.07229 19.7234
-1.86942 -0.952043 19.1822
-0.753397 -0.445188 19.4851
-2.39068 -1.80174 20.6828
-0.992925 -0.579009 21.2806
-0.553729 -0.571788 19.0442
-0.818601 -0.848868 21.5686
-1.28466 -1.08879 21.877
-0.31646 -0.484202 21.5632
-0.188475 -0.238502 21.4508
0.122846 0.0514213 15.7534
-0.0926343 -0.164364 21.5672
0.025713 -0.30662 19.4732
0.178208 -0.0620635 21.1571
0.457115 0.0957914 21.5928
0.277117 0.66389 15.1372
0.429709 0.416203 21.6587
0.786345 0.339909 18.2548
1.1177 0.821799 19.9744
0.975937 0.286294 21.1334
0.704032 1.27193 14.1118
0.897095 0.795309 20.9477
1.56143 0.61761 17.7791
1.41862 0.877094 19.9046
1.14379 0.16807 20.3871
1.15214 1.28227 15.285
1.0393 0.827211 20.5596
1.56924 0.354695 18.7719
1.03062 0.518064 19.5682
-1.46704 -0.135651 19.6897
-2.58843 -0.662838 16.9857
-1.99593 0.431997 18.8106
-0.887904 -0.11651 19.2261
-4.63127 -0.495228 20.0889
-1.52743 -0.30149 21.3212
-2.46902 0.246739 21.6869
-0.739815 -0.77337 19.7553
-0.454031 -0.346948 21.5707
-1.12987 -0.714485 20.5935
-0.0794826 -0.194972 17.8338
0.474236 -0.211182 21.699
0.496894 -0.477324 20.2532
1.38664 -0.123616 15.4851
1.10152 -0.339219 21.1748
0.246728 -0.501408 2.92324
0.865991 -0.886805 20.2989
1.76434 -0.456894 17.1275
1.09371 -0.369549 20.9689
1.70498 -0.34807 9.10444
0.999493 -0.944559 20.4062
1.32799 -0.397297 17.5864
-0.938025 0.506552 19.843
-1.10542 1.42695 18.906
-0.611185 0.748425 19.8661
-0.629787 0.437047 19.4912
-1.66607 1.39624 20.005
-1.23095 0.577327 20.7999
-1.64884 1.93608 20.7965
-0.82821 0.94425 20.6213
-1.56196 0.771909 21.1366
-0.787397 0.171741 21.4318
-1.86029 1.42461 22.1967
-0.607541 0.546408 21.355
-0.451589 0.0493284 21.8447
0.0432625 -0.242008 21.4896
-0.0191292 -0.452944 21.8349
-0.0517482 -0.127494 21.4218
0.213549 -0.542909 21.3753
0.332707 -0.456847 21.158
0.115879 -0.758813 21.2873
0.125406 -0.385407 21.0949
0.344066 -0.690221 21.1129
0.420203 -0.415968 20.7812
0.126024 -0.87525 20.6517
0.155848 -0.414383 20.8464
0.243786 -0.550522 20.4519
1.68115 -2.09374 18.6526
-0.0129687 -2.85533 18.7129
-0.0286181 -3.51112 15.9301
-0.00649219 -0.945583 18.6627
0.0156492 -5.21738 23.0599
0.557125 -0.579823 19.0171
-0.0018701 -1.27219 22.4052
-0.00537298 -0.0825777 13.2081
-0.12503 0.0451297 15.5799
-0.00365469 -0.225766 20.9815
-0.0094128 0.0665132 12.7574
-0.287291 0.640345 14.9156
-0.00683864 0.455001 20.1071
-0.0577703 0.704425 9.49743
-0.802879 1.2079 14.3529
-0.0304106 0.992257 18.1077
-0.0446671 -0.17002 1.6069
-0.0514116 1.187 10.4116
-1.19386 1.14486 15.7634
-0.0410569 1.35543 16.6044
-0.0597366 0.79832 3.28
-0.126165 1.57195 12.2495
2.59406 -0.668279 16.9246
-0.0120603 1.62206 15.0203
-0.00657648 -0.281304 18.0799
-0.248329 -0.467319 3.70178
-0.102335 0.46167 -0.824282
0.0410912 0.455402 -4.3167
-1.59833 -0.484987 10.405
-0.0293672 -0.827905 5.72104
-0.0691482 -0.321576 3.52246
1.11079 1.40457 18.9248
0.0118374 1.24987 19.5255
0.00183926 0.766678 18.889
0.0254364 3.81559 19.4687
1.66497 1.90025 20.798
0.0195517 1.75074 20.5081
0.017455 3.33256 20.3175
1.85823 1.38656 22.1855
0.00845357 1.36307 21.592
-0.00268371 0.560035 22.4767
0.00323783 -0.437481 21.8249
-0.00538589 -0.109653 21.5682
-0.0178029 -0.516368 20.9242
-0.1533 -0.714259 21.2608
-0.0142983 -0.451116 21.1413
-0.0354279 -0.788965 21.0798
-0.191544 -0.827432 20.7089
-0.00194272 -0.458308 20.7202
-0.0340382 -0.701087 20.2861
1.20625 -0.555038 19.9318
1.26505 -1.09084 19.7054
1.88555 -0.974638 19.1525
0.75593 -0.451344 19.472
2.40101 -1.82873 20.6874
0.996848 -0.59219 21.2831
0.821914 -0.860358 21.5687
1.28356 -1.09286 21.861
0.31835 -0.484242 21.5557
0.186466 -0.249447 21.4449
0.0923052 -0.166051 21.5665
-0.0259942 -0.306926 19.4284
-0.182124 -0.0599566 21.096
-0.456606 0.0904473 21.5881
-0.432304 0.430791 21.6511
-0.778178 0.319092 18.217
-1.07611 0.766952 19.851
-0.939276 0.25816 21.124
-0.883945 0.769574 20.9357
-1.51197 0.485891 18.1715
-1.38433 0.779238 20.4355
-1.05338 0.148489 20.5008
-1.0523 0.744754 20.5874
-1.58016 0.274892 18.8834
-0.993467 0.439921 20.5064
1.48022 -0.140291 19.6804
2.00138 0.433335 18.7981
0.88631 -0.117073 19.2156
4.64011 -0.498701 20.0891
1.52852 -0.306239 21.3266
2.46152 0.234051 21.6862
0.736527 -0.772623 19.7661
0.450242 -0.346618 21.5749
1.11612 -0.71149 20.623
0.0787273 -0.200116 17.8807
-0.457173 -0.211144 21.6836
-0.482996 -0.461255 20.262
-1.3209 -0.134512 15.7349
-1.02304 -0.316904 21.168
-0.808007 -0.807724 20.5449
-1.6056 -0.413736 18.2771
-0.971977 -0.345989 21.2087
-0.948805 -0.833789 20.5851
-1.24492 -0.451984 18.7263
0.935117 0.499391 19.8522
0.618257 0.732809 19.8771
0.63002 0.43494 19.4924
1.66266 1.35749 20.0134
1.21961 0.561994 20.7973
0.826965 0.91751 20.6248
1.55052 0.751363 21.1375
0.779069 0.165065 21.4235
0.606685 0.536635 21.351
0.445512 0.0490295 21.8326
-0.0399698 -0.227609 21.4797
0.0418747 -0.122654 21.412
-0.214391 -0.510987 21.358
-0.334104 -0.43198 21.1298
-0.134792 -0.359408 21.1001
-0.339233 -0.651523 21.1005
-0.425808 -0.410204 20.7684
-0.172703 -0.385965 20.8451
-0.25516 -0.480593 20.4288
-1.56379 -1.07264 19.492
-1.01364 -0.963918 21.7958
-0.0168489 -0.225725 21.2598
0.668457 0.439475 20.794
1.28247 0.83304 20.1694
1.32361 0.715954 20.1542
-2.196 -0.317917 18.8011
-2.06919 -0.627468 21.9001
-0.207631 -0.642112 18.3622
0.786516 0.0666566 17.4247
1.47387 -0.32767 16.5601
1.51346 -0.453992 16.5339
-1.1805 0.906446 19.4345
-1.59354 1.10075 20.8498
-1.21388 0.466317 21.6984
0.0359132 -0.326329 21.6573
0.295652 -0.630434 21.2154
0.388202 -0.724542 20.9563
-0.0217321 -3.50357 17.6272
0.00325595 -0.48489 15.8474
-0.00906966 -0.0181485 12.6267
-0.0175234 0.372946 11.625
-0.0895498 0.718697 10.0091
-0.0809724 1.52171 10.6406
-0.0166922 -1.22355 14.1322
0.200378 0.390248 -3.86391
-0.0474831 0.210042 -0.926372
0.010743 2.05661 18.3297
0.0165354 2.87431 20.6026
0.0125644 3.11491 22.5541
-0.00838273 -0.353261 21.5237
-0.0183681 -0.593569 20.9991
-0.00621954 -1.02413 20.7756
1.57517 -1.09587 19.4705
1.01561 -0.968499 21.7984
0.0162025 -0.222911 21.2294
-0.663382 0.441335 20.6233
-1.25374 0.799475 20.1837
-1.35452 0.654822 20.276
2.21037 -0.325125 18.7715
2.06727 -0.625793 21.9025
0.205786 -0.640285 18.3946
-0.770889 0.0506611 17.5453
-1.39064 -0.344191 17.5335
-1.45471 -0.39356 17.6863
1.1797 0.895958 19.4414
1.58416 1.07096 20.851
1.19824 0.454704 21.685
-0.0411466 -0.312873 21.6391
-0.297253 -0.587399 21.206
-0.43174 -0.640218 20.9747
-1.82955 -1.04064 2.47164
1.10457 -5.06305 13.0655
-0.0354381 0.000981815 0.3044
-0.094702 -0.0907834 -0.00108154
0 0 0
0.0756336 0.255416 1.03541
-6.34938 0.863831 4.04613
-0.120082 1.55096 1.81126
-0.213392 0.11968 1.10117
-0.00314507 0.000325931 -0.00188984
-0.105076 -0.0154811 0.0411661
-0.00139965 -0.0295582 0.213102
-0.520872 -4.0706 12.1051
1.82371 -1.03871 2.46085
0.0348183 0.000807338 0.303722
0 0 0
0.0863624 -0.10721 0.0017785
-0.0919065 0.247399 1.02568
0.118945 1.54362 1.80434
6.14022 0.816579 3.69716
0.204791 0.120255 1.07774
0.100641 0.00510209 0.00548553
0.00327226 -0.000124051 -0.00153389
-0.00232572 -0.0208901 0.156798
0.0129111 -0.000193816 0.207612
0 0 0
0 0 0
0 0 0
-0.00213254 0.00867713 0.327538
0.0050664 -0.000191856 0.0817904
0 0 0
0 0 0
-0.387024 -0.241239 0.886713
-0.000661726 -0.00256127 0.0172713
0 0 0
-0.0117201 0.00415792 0.0114286
0.0239871 0.0282207 0.150807
0.0102457 0.0775565 0.22736
0 0 0
0.00248596 -0.00130796 0.0164192
-0.01256 -0.000164229 0.203872
0 0 0
0 0 0
0 0 0
0.000971957 0.00843811 0.324976
0 0 0
-0.00508952 -0.000183523 0.0809355
9.39995e-18 8.8933e-19 1.28852e-16
0.38534 -0.24647 0.894237
0.0122099 0.00433895 0.0119394
0.000678526 -0.00260949 0.0174938
0 0 0
-0.0195666 0.0221902 0.115787
-0.00219392 -0.00112328 0.0142442
-0.00891892 0.0692897 0.20107
0 0 0
-0.0476999 -0.0300077 0.282473
0 0 0
0 0 0
-0.000651346 -0.347099 0.209381
-0.000118029 -0.000172302 0.00392364
-2.99588e-07 -1.34955e-06 6.65162e-05
0.00335915 -0.00227195 0.0177689
-0.00991961 -0.00457002 -0.00107205
-2.87489e-05 0.000211742 0.000642646
-0.0494538 -0.14167 -0.0168425
0 0 0
5.02949e-05 3.07788e-05 0.00190784
-0.000287686 0.0245997 0.00510941
2.71617e-06 0.103365 0.490137
0 0 0
-0.0118403 0.0100277 0.074681
-0.000156373 0.000295365 -0.000176742
0 0 0
0 0 0
-0.000347306 -0.00084648 0.00343693
0 0 0
0.050273 -0.0311378 0.294793
4.51678e-07 -1.20668e-06 6.1566e-05
0.000124453 -0.000182533 0.00413094
0.0114161 -0.00688904 -0.00147075
-0.00317355 -0.00246408 0.0167543
-6.14565e-05 3.02389e-05 0.00188236
0 0 0
0.0118724 0.010074 0.0750028
0 0 0
6.49168e-05 -0.00052381 0.00216272
0 0 0
0 0 0
0 0 0
0.0051913 -0.00396446 0.0434502
0 0 0
0 0 0
0 0 0
0 0 0
-0.000780893 0.0100445 0.209379
0 0 0
0 0 0
0.000153446 0.00179578 0.0102558
-0.0018723 0.00263267 0.0278063
0.000691204 0.00105231 0.0177015
-7.34276e-05 0.0740077 0.186551
-4.44032e-05 0.000570031 0.0783221
-0.000108514 -0.00070608 0.0037117
0 0 0
0 0 0
-0.00554143 -0.00432482 0.0464644
0 0 0
0 0 0
0.000978893 0.0104797 0.232921
0.00262826 0.003816 0.0401927
-4.34522e-05 0.0038519 0.0218918
-0.0385946 -0.0505346 0.467911
-1.29104 0.110418 3.05701
0.00102803 -0.00157827 0.0464085
0 0 0
0 0 0
-0.000658472 0.00298951 0.0710391
0 0 0
0.00282682 0.0294627 0.118161
0 0 0
0.0063429 0.0176568 0.105218
0 0 0
0.0120731 -0.0146566 0.129039
6.40149e-06 5.90838e-06 -0.000161807
-7.73531e-06 6.25467e-06 -0.000176195
0 0 0
-2.40765e-18 1.06689e-21 3.80532e-17
0 0 0
0 0 0
0 0 0
0 0 0
0 0 0
0 0 0
-0.0411858 0.0881354 0.444494
0.030681 0.0875291 0.439768
-0.230845 -1.18904 1.04111
0.241814 -1.17751 1.01633
6.16898e-17 -1.71211e-17 -1.63291e-17
0 0 0
0 0 0
0 0 0
0 0 0
0.0101209 0.00385834 -0.00238468
0 0 0
0 0 0
-0.00642316 4.45466e-05 0.00871488