# vtk DataFile Version 2.0
tri_press
ASCII
DATASET UNSTRUCTURED_GRID
POINTS 3682 float
-0.698354 0.205 -1.895
-0.695 0.265 1.97588
-0.72367 0.495 -1.905
-0.71405 0.605 1.985
0.698355 0.205 -1.895
0.695 0.265 1.97588
0.72367 0.495 -1.905
0.714063 0.605 1.985
-0.768502 0.153734 -0.604707
-0.781368 0.15975 0.685587
-0.847901 0.659104 -0.608333
-0.852714 0.70379 0.688333
0.768494 0.153743 -0.604707
0.781371 0.159747 0.685587
0.847958 0.659157 -0.608333
0.852695 0.703763 0.688333
-1.49442 -0.0618108 -2.92841
-1.49493 -0.0295373 -1.89362
-1.54709 -0.0624655 -0.603492
-1.55446 -0.0655196 0.685354
-1.49454 0.000876068 1.97537
-1.47849 0.0298335 3.00963
-1.48529 0.0402704 4.04487
-1.49038 0.139304 -2.93112
-1.49354 0.195027 -1.89563
-1.56659 0.178555 -0.604264
-1.56419 0.168777 0.686531
-1.46845 0.21601 1.97778
-1.46065 0.242171 3.01213
-1.47694 0.254479 4.04715
-1.50289 0.504147 -2.93832
-1.52261 0.559146 -1.9031
-1.62602 0.664515 -0.607389
-1.6207 0.681065 0.688776
-1.49667 0.622413 1.98437
-1.47781 0.646778 3.01845
-1.48906 0.675772 4.05245
-1.52922 1.16722 -2.94434
-1.54772 1.23644 -1.90817
-1.59428 1.34526 -0.610386
-1.61891 1.39397 0.688768
-1.59623 1.37069 1.98648
-1.56789 1.35733 3.02252
-1.55034 1.36502 4.05721
-0.733098 -0.058158 -2.928
-0.717202 -0.0231585 -1.89302
-0.760383 -0.0758239 -0.603572
-0.781408 -0.0709951 0.684548
-0.743221 0.0277715 1.97397
-0.727897 0.0476098 3.00868
-0.730829 0.0485615 4.04432
-0.729227 0.13625 -2.93099
-0.70894 0.259062 3.01134
-0.722736 0.261134 4.04674
-0.736157 0.477284 -2.93911
-0.720497 0.643357 3.01858
-0.731458 0.674481 4.05248
-0.745815 1.15039 -2.94512
-0.752783 1.2214 -1.90902
-0.791142 1.34425 -0.610904
-0.825852 1.39972 0.68883
-0.821303 1.36921 1.98692
-0.798756 1.35268 3.02296
-0.782419 1.36099 4.05754
0.742047 -0.0581515 -2.928
0.741528 -0.0231538 -1.89302
0.775513 -0.0758173 -0.603572
0.76607 -0.0709966 0.684548
0.712342 0.0277705 1.97397
0.737797 0.0476089 3.00868
0.759988 0.0485607 4.04432
0.730707 0.136256 -2.93099
0.739037 0.259061 3.01134
0.762063 0.261133 4.04674
0.744246 0.47729 -2.93911
0.743835 0.643355 3.01858
0.761731 0.67448 4.05248
0.804779 1.1504 -2.94512
0.819951 1.22141 -1.90902
0.820943 1.34426 -0.610904
0.784108 1.39973 0.68883
0.743612 1.36921 1.98692
0.74158 1.35268 3.02296
0.751062 1.36099 4.05753
1.49606 -0.0617943 -2.92841
1.50028 -0.0295201 -1.89362
1.55052 -0.062451 -0.603492
1.54842 -0.0655217 0.685354
1.48624 0.000873155 1.97537
1.49173 0.0298315 3.00963
1.51341 0.0402686 4.04487
1.48458 0.139321 -2.93112
1.48331 0.195048 -1.89563
1.56083 0.178576 -0.604264
1.56755 0.168769 0.686531
1.47927 0.216007 1.97778
1.48826 0.242169 3.01213
1.5131 0.254477 4.04715
1.50435 0.504167 -2.93832
1.51656 0.559175 -1.9031
1.62179 0.664562 -0.607389
1.62192 0.681047 0.688776
1.50311 0.622405 1.98437
1.49788 0.646774 3.01845
1.51627 0.675769 4.05245
1.57831 1.16725 -2.94434
1.59909 1.23647 -1.90817
1.61521 1.34529 -0.610386
1.5858 1.39398 0.688767
1.53534 1.37068 1.98648
1.52012 1.35733 3.02252
1.5226 1.36501 4.05721
-0.719258 0.35 -1.90825
5.06639e-07 0.184555 -1.91545
-0.762829 0.149966 -1.24985
-0.714432 0.435 1.99035
0 0.235514 2.00537
-0.771697 0.178862 1.33073
0 0.602093 -2.01209
-0.861181 0.652447 -1.25667
6.49691e-06 0.722265 2.10227
-0.881217 0.75223 1.33667
0.719315 0.35 -1.9083
0.763386 0.14941 -1.24985
0.714456 0.435 1.99036
0.771711 0.178849 1.33073
0.861173 0.652437 -1.25667
0.881208 0.75221 1.33667
-0.776802 0.154875 0.04044
-0.837509 0.406419 -0.60652
-3.9059e-06 0.166586 -0.604707
-0.867021 0.43177 0.68696
1.93641e-06 0.176534 0.685587
-0.852417 0.683557 0.04
2.86813e-05 0.978591 -0.608333
-9.46129e-06 1.2433 0.688333
0.776823 0.154854 0.04044
0.837532 0.40645 -0.60652
0.867019 0.431755 0.68696
0.852583 0.683716 0.04
-0.859 0.37821 -1.25326
0.859009 0.378225 -1.25326
-1.69963e-06 0.153798 -1.24985
1.43406e-05 0.832169 -1.25667
2.5332e-07 0.35 -2.13679
-0.844903 0.419095 0.04022
0.844866 0.419102 0.04022
-9.84744e-07 0.168012 0.04044
9.60999e-06 1.28009 0.04
-0.878673 0.433385 1.3337
0.878676 0.433377 1.3337
9.68207e-07 0.182705 1.33073
-1.48219e-06 1.00094 1.33667
3.24845e-06 0.435 2.14385
-0.707583 0.2775 -1.9004
-0.349177 0.180248 -1.91975
-0.750596 0.157478 -1.57243
-0.71057 0.35 1.98897
-0.3475 0.247334 1.99355
-0.772693 0.182587 1.65331
-0.728368 0.4225 -1.91353
-0.361835 0.575457 -1.98546
-0.820719 0.602017 -1.58083
-0.718395 0.52 1.99183
-0.357022 0.685743 2.06574
-0.828157 0.709139 1.66083
0.349178 0.176531 -1.92347
0.70757 0.2775 -1.90039
0.750445 0.157631 -1.57243
0.3475 0.247455 1.99342
0.710489 0.35 1.98888
0.772699 0.182581 1.65331
0.361835 0.575477 -1.98548
0.728387 0.4225 -1.91355
0.820848 0.602146 -1.58083
0.357035 0.685733 2.06573
0.718496 0.52 1.99192
0.828582 0.709552 1.66083
-0.768936 0.148579 -0.92728
-0.771542 0.155415 -0.282133
-0.831404 0.265878 -0.605613
-0.381333 0.166001 -0.604707
-0.77226 0.173579 1.00816
-0.782206 0.154192 0.363013
-0.858338 0.278688 0.686273
-0.387247 0.175014 0.685587
-0.86613 0.667365 -0.9325
-0.845546 0.534182 -0.607427
-0.850476 0.671648 -0.284167
-0.477145 0.925265 -0.608333
-0.875051 0.736096 1.0125
-0.822084 0.548888 0.687647
-0.851094 0.692203 0.364167
-0.528349 1.17752 0.688333
0.769177 0.14834 -0.92728
0.381327 0.166001 -0.604707
0.771445 0.155512 -0.282133
0.831402 0.265902 -0.605613
0.771895 0.173943 1.00816
0.38725 0.175015 0.685587
0.782226 0.154172 0.363013
0.858339 0.278679 0.686273
0.866149 0.66738 -0.9325
0.477529 0.925945 -0.608333
0.845562 0.534212 -0.607427
0.850854 0.67202 -0.284167
0.875155 0.736191 1.0125
0.52838 1.17761 0.688333
0.82209 0.548875 0.687647
0.85135 0.692451 0.364167
-0.837415 0.364105 -1.58075
-0.359629 0.35 -2.04577
-5.96496e-07 0.156978 -1.58265
3.7998e-07 0.267277 -2.07132
-0.853636 0.264088 -1.25156
-0.381415 0.153798 -1.24985
-0.86266 0.434193 1.66202
-0.357215 0.435 2.12934
4.84103e-07 0.184715 1.66805
1.62423e-06 0.335257 1.82536
-0.860602 0.306124 1.33222
-0.385848 0.182952 1.33073
7.17032e-06 0.740391 -1.63438
1.2666e-07 0.476047 -2.16682
-0.862832 0.515329 -1.25496
-0.430583 0.806527 -1.25667
2.50736e-06 0.860362 1.71947
4.87268e-06 0.578633 2.1664
-0.887745 0.592808 1.33518
-0.440609 0.956754 1.33667
0.837444 0.364113 -1.58078
0.359658 0.35 -2.04177
0.853638 0.263817 -1.25156
0.381692 0.153798 -1.24985
0.862566 0.434189 1.66203
0.35723 0.435 2.12937
0.860595 0.306113 1.33222
0.385856 0.182952 1.33073
0.862833 0.515331 -1.25496
0.430593 0.806282 -1.25667
0.887732 0.592794 1.33518
0.440603 0.957181 1.33667
-0.836195 0.274314 0.04033
-0.385042 0.168163 0.04044
-0.862404 0.392314 -0.92989
-0.841162 0.412757 -0.28315
-2.80277e-06 0.155029 -0.92728
-2.44532e-06 0.167284 -0.282133
-0.847291 0.425433 0.36359
-0.887991 0.432578 1.01033
4.75835e-07 0.168728 0.363013
1.45231e-06 0.180753 1.00816
-0.852602 0.553297 0.04011
-0.543471 1.21636 0.04
2.1511e-05 0.893739 -0.9325
1.91456e-05 1.16061 -0.284167
7.4354e-08 1.28777 0.364167
-5.47174e-06 1.141 1.0125
0.83621 0.274296 0.04033
0.385046 0.168163 0.04044
0.862397 0.392338 -0.92989
0.84126 0.412776 -0.28315
0.847255 0.425429 0.36359
0.887985 0.432566 1.01033
0.852652 0.553373 0.04011
0.543506 1.21633 0.04
-0.833088 0.270794 -1.57659
-0.859369 0.272082 -0.928585
-0.865848 0.524045 -0.931195
-0.841329 0.468914 -1.58079
0.833025 0.270659 -1.5766
0.841325 0.468916 -1.58081
0.865849 0.524067 -0.931195
0.85936 0.271957 -0.928585
-0.365296 0.155969 -1.57754
0.365435 0.155969 -1.57754
0.382969 0.155029 -0.92728
-0.382834 0.155029 -0.92728
-0.396209 0.720985 -1.60761
-0.42726 0.868304 -0.9325
0.427293 0.868047 -0.9325
0.396214 0.721302 -1.60761
-0.354403 0.272389 -2.03417
-0.360732 0.449273 -2.09451
0.360746 0.449273 -2.09479
0.354418 0.272389 -2.03286
-0.834295 0.269848 -0.282642
-0.842185 0.279042 0.363302
-0.854451 0.559647 0.363878
-0.84912 0.543762 -0.283658
0.834305 0.269849 -0.282642
0.84917 0.543824 -0.283658
0.854524 0.559701 0.363878
0.842211 0.279019 0.363302
-0.383286 0.166884 -0.282133
0.383286 0.166884 -0.282133
0.38722 0.169445 0.363013
-0.387216 0.169446 0.363013
-0.523071 1.09634 -0.284167
-0.546915 1.21895 0.364167
0.547062 1.2192 0.364167
0.52343 1.09696 -0.284167
-0.870194 0.300942 1.00925
-0.854721 0.328062 1.65767
-0.867809 0.556404 1.66143
-0.895095 0.580294 1.01142
0.870082 0.300932 1.00925
0.895085 0.580276 1.01142
0.866837 0.556397 1.66143
0.854708 0.328056 1.65767
-0.388265 0.179594 1.00816
0.388271 0.179593 1.00816
0.366678 0.186353 1.66068
-0.366674 0.186345 1.66068
-0.433485 1.09481 1.0125
-0.398816 0.840706 1.69015
0.398819 0.840701 1.69015
0.433473 1.09514 1.0125
-0.352357 0.342629 2.0906
0.352365 0.342629 2.09014
0.357132 0.549316 2.13924
-0.357118 0.549316 2.13921
-0.700783 0.24125 -1.89551
-0.523765 0.190184 -1.90982
-0.731802 0.173912 -1.73371
-0.703423 0.3075 1.98306
-0.52125 0.250394 1.99049
-0.744945 0.212695 1.81459
-0.729483 0.45875 -1.91273
-0.542753 0.547516 -1.95752
-0.777765 0.554079 -1.74292
-0.719155 0.5625 1.99135
-0.535536 0.654309 2.03431
-0.771577 0.657543 1.82292
0.523766 0.190329 -1.90967
0.700848 0.24125 -1.89558
0.731775 0.17394 -1.73371
0.52125 0.249513 1.99137
0.703388 0.3075 1.98303
0.744848 0.212791 1.81459
0.542753 0.547525 -1.95753
0.729538 0.45875 -1.91278
0.7778 0.554113 -1.74292
0.535549 0.654331 2.03433
0.719208 0.5625 1.99139
0.772158 0.658111 1.82292
-0.771997 0.147878 -0.765993
-0.768777 0.155819 -0.44342
-0.819288 0.200138 -0.60516
-0.571747 0.166207 -0.604707
-0.798423 0.145055 0.846873
-0.784948 0.15381 0.5243
-0.842944 0.207674 0.68593
-0.58027 0.175458 0.685587
-0.854639 0.660859 -0.770417
-0.848104 0.597333 -0.60788
-0.849214 0.665402 -0.44625
-0.694111 0.855361 -0.608333
-0.863212 0.719272 0.850417
-0.824117 0.619699 0.68799
-0.864848 0.710941 0.52625
-0.678859 0.917312 0.688333
0.772414 0.147462 -0.765993
0.571743 0.166207 -0.604707
0.768786 0.155811 -0.44342
0.819298 0.200147 -0.60516
0.799061 0.144417 0.846873
0.580272 0.175458 0.685587
0.784976 0.153782 0.5243
0.842954 0.207664 0.68593
0.854112 0.660328 -0.770417
[...]
POINT_DATA 3682
SCALARS point_scalars float 1
LOOKUP_TABLE default
-76.2282
-46.5646
1.27766
-40.4766
-76.2094
-46.5349
1.13514
-40.4353
-35.5994
-35.0543
-40.1675
-34.5209
-35.609
-34.5959
-40.0926
-34.3278
-69.1736
-63.8177
-52.038
-36.1032
-54.8572
-45.1566
-41.7352
1.89267
-61.0369
-47.3211
-40.9999
-53.0949
-43.1143
-40.9054
41.9233
-61.4451
-41.0653
-32.6274
-47.085
-41.8274
-40.5011
18.1916
-55.4583
-42.0893
-40.0648
-43.703
-40.0367
-39.8317
43.758
-112.135
-35.6563
-34.9907
-49.7095
-41.3829
-40.788
43.758
-40.6588
-40.5956
159.026
-39.6843
-39.5097
107.604
-25.4739
-31.6176
-56.3001
-38.9092
-38.8269
-39.0491
35.4036
-111.83
-35.3155
-34.3378
-49.3255
-41.3763
-40.7863
35.4036
-40.9607
-40.604
158.686
-39.7097
-39.4758
107.686
-38.7244
-39.2532
-56.1075
-37.1386
-38.4509
-38.498
-68.7798
-63.5264
-51.9924
-32.4478
-54.6502
-45.1379
-41.739
7.5419
-61.0266
-47.2848
-41.7554
-52.9765
-43.0876
-40.8952
41.7825
-61.3622
-40.9022
-32.5997
-46.9467
-41.8343
-40.4824
18.0152
-50.1933
-41.9909
-42.1002
-42.7762
-39.9729
-39.8293
-1.07258
-95.1974
-53.9246
-42.4248
-45.432
-42.1103
26.4334
-59.0766
-34.3068
-46.8455
-1.1909
-54.0114
-42.3921
-42.0324
-59.0791
-46.6335
-33.0339
-37.2498
-37.5522
-29.1605
-37.7334
-44.2034
26.0418
-54.3086
-32.9894
-37.2299
-29.0055
-44.2043
-56.3702
-56.3556
-54.9441
-16.7557
167.192
-35.7608
-35.7518
-34.6987
-107.353
-44.8807
-44.8464
-44.088
-34.5948
-39.6691
-30.8107
-112.68
-72.3071
-43.9436
-47.242
-53.0544
3.83427
38.4693
-63.2131
-41.9001
-36.5484
-46.1484
-116.082
-32.2761
-72.121
-47.2337
-43.9218
-52.9839
38.3321
3.71437
-63.3526
-36.5063
-41.8685
-46.0993
-43.1602
-33.1256
-35.8707
-37.2828
-35.254
-35.3277
-32.0517
-37.4888
-46.6534
-38.2856
-42.953
3.0903
-39.3079
-30.6471
-39.1959
-53.9182
-43.0838
-37.2611
-33.0992
-35.8585
-39.5476
-37.4751
-35.211
-31.8855
-46.644
2.99482
-38.2532
-43.1107
-39.438
-53.9236
-30.3157
-39.7098
-68.0582
151.303
-69.7511
171.59
-55.2886
-55.0132
-52.7809
-40.0953
-53.3129
-48.051
-43.5945
-43.8377
-14.2957
176.954
-57.5754
-26.5181
-33.061
-38.2124
-45.5794
-35.7538
-68.2077
151.508
-55.2965
-54.9557
-52.7304
-40.081
-43.5136
-43.8541
-57.5354
-26.8256
-45.5357
-35.7246
-33.9512
-34.4023
-46.6745
-35.3387
-45.1882
-34.8431
-34.3691
-44.4149
-36.3043
-39.9585
-38.6337
-93.7413
-4.14407
-16.5342
-80.7926
-39.883
-33.9211
-34.3706
-46.6631
-35.3539
-34.3472
-44.7016
-38.608
-93.7487
-64.6418
-45.7577
-46.8789
-70.1677
-64.621
-70.2309
-46.8636
-45.7524
-71.3249
-71.0924
-44.9475
-44.9836
-23.9762
-14.8317
-14.6825
-24.1197
128.683
166.837
166.598
133.392
-33.5884
-32.4931
-36.4477
-38.063
-33.5889
-38.104
-36.525
-32.4404
-34.5854
-34.5603
-35.842
-35.886
-32.0025
-69.7904
-69.6469
-32.1243
-42.4937
-53.1814
-50.6171
-44.3273
-42.8175
-44.4519
-50.5495
-53.0806
-39.9485
-40.0262
-52.9764
-52.989
-41.0026
-34.0447
-34.0094
-41.0128
-42.4649
-42.4573
-39.6248
-39.6543
-50.0699
-140.053
-77.8853
-45.4127
-46.9766
-50.8053
8.98613
38.2096
-38.0083
-41.9081
-38.0662
-41.1635
-141.665
-57.2567
-78.1972
-46.949
-45.3933
-50.7587
38.2488
8.85192
-38.1371
-38.013
-41.8637
-41.129
-41.6091
-33.8512
-35.2471
-36.8471
-51.2128
-33.0087
-32.5135
-37.374
-44.3872
-39.1439
-40.628
-31.2598
-36.4524
-32.1654
-41.3274
-47.0414
-41.6246
-36.8378
-33.8312
-35.2371
-49.9523
-37.1803
-32.8318
-31.9218
-44.3849
-30.8258
-39.1199
-40.6847
-36.6152
-46.912
-31.9762
-40.9481
-5.15394
5.87418
-64.7452
127.769
-99.92
-100.215
-77.9187
86.8483
-63.9629
-47.3868
-55.6137
-54.5093
-42.8735
-42.1313
-48.4286
-40.1642
-45.7231
-45.6978
-48.1123
-43.4904
-45.6244
-40.2777
-42.571
-43.3385
28.0019
28.6174
0.00782227
78.8854
-73.0944
-49.9832
-58.8571
-38.5482
-35.2868
-35.2102
-33.4429
-35.2113
-49.2627
-43.4913
-45.6244
-38.4761
-5.3052
5.81074
-64.7628
125.923
-63.9099
-47.5274
-55.6518
-54.5007
-42.8429
-42.1005
-48.3655
-40.147
-45.5571
-40.177
-42.4551
-43.3419
-72.7194
-49.912
-58.8225
-38.9826
-49.1175
-43.4979
-45.5557
-38.4791
-33.1507
-33.6336
-32.8051
-33.9356
-36.7608
-37.7172
-45.9624
-35.256
-37.5273
-37.516
-42.8008
-35.6631
-31.6653
-29.1435
-33.9804
-38.8283
-37.6943
-37.6931
-38.0258
-38.7423
-44.0392
-42.8069
-40.7307
-62.9118
20.2768
20.7857
12.5143
16.7818
-53.8744
-53.8625
-66.149
-45.3497
-33.1338
-33.5795
-32.7652
-33.899
-36.7439
-37.6895
-45.9438
-35.2588
-31.6108
-29.0405
-33.8682
-38.8969
-44.1205
-42.9302
-40.7003
-62.931
-72.2362
-55.8263
-56.942
-50.1889
-72.1959
-55.8205
-56.9168
-50.1794
-62.3296
-55.0672
-55.0392
-49.2335
-18.6448
-19.3434
-19.3841
-11.1652
165.391
173.296
201.206
164.626
-34.7575
-35.6283
-35.2066
-36.9924
-34.7422
-35.6341
-35.198
-36.9764
-34.6336
-34.496
-35.2739
-34.6172
-107.066
-76.8733
-95.671
-107.063
-48.6331
-44.4035
-45.2205
-44.1288
-48.5906
-44.3535
-45.1976
-44.135
-47.3725
-44.0191
-44.0283
-41.7414
-33.201
-34.8405
-34.8359
-36.5631
-39.796
-40.5098
-39.1229
-39.7757
-66.8827
130.819
-85.6731
32.1671
-60.4661
-72.0832
-50.2682
-41.5182
-47.7294
-46.4793
-53.9698
-53.1018
-60.4505
138.877
5.20986
98.5101
-68.7624
-39.0162
-46.6937
-40.2398
-34.7923
-38.288
-48.4166
-35.5382
-85.7448
36.9891
-66.8971
130.117
-60.3502
-71.8339
-47.7228
-46.5409
-50.2518
-41.5031
-53.8234
-53.0632
5.04154
99.9294
-60.4586
139.18
-68.8552
-38.8982
-34.7469
-38.2546
-46.6392
-40.2249
-48.385
-35.5703
-44.2465
-44.5189
-32.6231
-34.0898
-46.9739
-33.6552
-42.4328
-35.4398
-39.496
-39.8573
-34.1865
-35.2743
-31.1838
-44.574
-37.4821
-39.2903
-47.1172
-28.0093
-45.1668
-37.2887
-40.0397
-71.4283
-7.69823
-4.63072
-41.5069
-43.3473
-36.289
-32.8464
-37.4907
-53.514
-60.2414
-46.9332
-44.2338
-44.5025
-42.4019
-35.4162
-32.6089
-34.0651
-46.9584
-33.6482
-41.3396
-40.1913
-37.4388
-39.3428
-34.0827
-35.198
-30.9853
-45.3167
-47.0811
-27.7747
-6.74141
-4.1673
-45.1528
-37.3077
-40.0566
-71.5833
-41.6286
-43.5769
-60.1255
-46.9493
-36.2266
-32.9752
-37.7403
-53.375
-65.7201
-69.9308
144.608
161.855
-70.3832
-70.3692
161.239
160.522
-72.695
-49.2487
-62.9423
-49.1391
-53.0922
-51.8253
-40.702
-39.9385
-53.4996
-53.5143
-41.9324
-41.8475
-42.7576
-47.6763
-41.5557
-47.0601
-15.7461
-15.8572
181.989
181.799
-50.7166
-73.3769
-28.3553
-21.8732
-33.3108
-33.3021
-39.1806
-39.1976
-48.683
-44.8521
-37.7167
-34.4973
-65.772
-70.0767
161.305
146.449
-72.695
-49.2657
-62.8463
-49.0933
-51.7558
-53.0315
-40.6646
-39.9204
-42.5668
-47.5806
-41.605
-47.0575
-73.3092
-50.6912
-21.6485
-28.5668
-44.8806
-48.694
-34.4825
-37.7152
-33.814
-33.7235
-34.2426
-34.9698
-46.4002
-46.8494
-34.3526
-36.4524
-45.1624
-45.1816
-34.8299
-34.7917
-33.2698
-35.3578
-43.7156
-44.741
-36.0956
-36.1915
-39.9678
-39.9929
-37.7374
-38.5569
-84.133
-79.7756
-7.34023
-7.70238
-13.9501
-14.0873
-79.6227
-79.6007
-40.0628
-40.0688
-33.8086
-33.7093
-34.2144
-34.9318
-46.8333
-46.3934
-34.3597
-36.47
-35.3834
-33.2275
-43.9747
-44.9249
-38.5678
-37.7632
-79.1799
-84.2306
-67.0241
-71.0437
-72.2878
-67.3748
-48.2894
-46.4201
-49.8395
-48.492
-44.8846
-50.9901
-50.6037
-45.684
-55.8423
-62.5211
-72.2711
-77.0998
-67.0544
-67.3945
-72.2638
-71.0368
-55.8422
-76.9063
-72.2228
-62.5331
-44.8888
-45.6769
-50.5865
-50.9594
-48.2513
-48.5371
-49.8404
-46.4019
-91.1136
-80.336
-62.69
-62.8696
-91.9365
-62.8213
-62.6565
-80.5055
-41.9027
-42.7233
-49.2978
-48.5779
-41.9205
-48.5809
-49.3206
-42.7412
34.1136
-42.289
-20.8088
-0.283009
-34.1496
7.66533
-13.5753
-33.3541
-34.1992
-32.7189
-13.5752
8.53654
33.9587
-0.3187
-20.9088
-42.526
59.8885
129.944
168.603
74.8243
124.391
94.619
198.212
139.538
124.555
140.435
198.156
94.4764
59.1168
70.8859
169.431
128.185
-32.6379
-32.8492
-34.6228
-34.3866
-29.5024
-31.2072
-34.3946
-32.9484
-36.9893
-39.4957
-36.3783
-36.1765
-38.9023
-36.1601
-36.8551
-40.6116
-32.6235
-34.3826
-34.6246
-32.8512
-38.9787
-40.5908
-36.8635
-36.1712
-36.7806
-36.0923
-36.4
-39.5817
-29.2975
-32.9191
-34.3851
-31.1504
-34.8911
-35.6497
-34.464
-33.7774
-34.8718
-33.7536
-34.4492
-35.6379
-36.8047
-37.927
-35.1835
-34.4228
-36.9135
-34.4742
-35.2024
-37.9411
-56.2004
-67.1293
-71.6408
14.4322
-49.887
-65.1155
-93.623
-57.8436
-49.715
-57.7617
-93.5933
-65.0939
-56.1897
14.3871
-71.5314
-67.3454
-56.435
-41.751
-43.4114
-40.8391
-51.411
-49.3518
-48.2428
-46.8281
-44.276
-49.4836
-48.7212
-47.5415
-33.1986
-36.0432
-44.601
-44.9604
-52.9953
-41.1689
-43.4019
-41.5425
-33.2527
-44.9858
-44.6202
-36.0803
-44.2211
-47.4932
-48.7021
-49.4802
-51.4513
-46.7151
-48.1811
-49.2985
-39.7581
-38.8075
-41.6935
-41.1823
-39.8923
-41.2537
-41.7154
-38.8237
-48.0438
-47.9234
-47.2545
-46.6508
-48.048
-46.6712
-47.2553
-47.8433
-45.2423
-40.5465
-36.7949
-45.5769
-35.9884
-33.6674
-33.6248
-36.4008
-35.9734
-36.3864
-33.6154
-33.6189
-45.1361
-45.5706
-36.7891
-40.5514
-46.7128
-44.1906
-40.2218
-40.5334
-46.6937
-40.5215
-40.1871
-44.1765
-39.5647
-36.6807
-39.4694
-40.1712
-39.5872
-40.1881
-39.487
-36.7052
-70.8465
-139.698
-96.0614
-45.9874
-47.1507
-49.7602
6.80745
33.7483
-18.9468
-41.1986
-38.7087
-39.9663
-140.075
-70.256
-96.4242
-47.0445
-45.9669
-49.6638
33.605
6.67114
-19.0406
-38.6835
-41.1527
-39.9418
-39.1206
-34.6539
-34.9515
-36.6493
-38.0749
-36.4885
-32.8606
-37.0714
-42.5449
-39.6428
-39.1622
-41.2269
-34.0761
-32.201
-39.2338
-42.6868
-39.1597
-36.6382
-34.6296
-34.9654
-37.0344
-36.8345
-36.2013
-32.3508
-42.4073
-41.1249
-39.5957
-39.1697
-34.0196
-42.5668
-32.0013
-38.502
-1.28073
-0.717839
-79.4345
99.9778
-96.9567
-97.044
-85.5717
-148.39
-57.7094
-50.4122
-55.4379
-54.0788
-42.6496
-42.4045
-45.3729
-40.7759
-46.429
-46.2665
-46.4421
-44.1527
-43.5604
-41.0706
-42.7636
-42.9392
25.8602
26.1883
14.0597
52.3228
-67.5779
-54.5847
-59.4495
-45.9394
-34.6147
-34.5754
-33.7636
-34.7188
-48.8664
-45.1633
-45.8425
-42.1231
-1.42556
-0.77293
-79.5429
99.8313
-57.707
-50.4569
-55.4904
-54.104
-42.6179
-42.3712
-45.3365
-40.7538
-43.4899
-40.964
-42.6361
-42.9152
-67.298
-54.5255
-59.4339
-46.2846
-48.8242
-45.1411
-45.7609
-42.104
-32.9899
-33.3353
-32.644
-33.7106
-37.062
-37.554
-41.274
-35.6653
-37.5559
-37.5517
-40.3286
-36.4081
-30.5018
-29.1947
-31.5458
-31.1222
-37.6594
-37.6592
-38.0536
-37.8145
-44.3212
-43.556
-42.2993
-54.3013
24.4029
23.6559
19.9746
24.1176
-54.3564
-54.3519
-59.2358
-49.2946
-32.9542
-33.2936
-32.6017
-33.6718
-37.0444
-37.5319
-41.2478
-35.6578
-30.5032
-29.361
-31.5349
-31.0881
-44.3261
-43.6181
-42.286
-54.3295
-61.3831
-56.2272
-56.7415
-53.4839
-61.361
-56.2162
-56.7208
-53.4734
-58.5677
-54.9957
-54.9868
-51.9355
-18.0522
-17.4847
-17.4543
-14.4252
166.909
166.676
196.016
167.026
-35.2375
-35.7871
-35.4969
-36.2929
-35.2324
-35.7825
-35.4912
-36.2785
-34.6854
-34.5474
-34.9635
-34.6776
-108.075
-103.153
-102.175
-108.027
-46.1444
-44.6558
-45.095
-43.8578
-46.1045
-44.6147
-45.067
-43.8374
-45.5944
-44.0634
-44.0678
-42.8402
-33.7188
-34.6616
-34.6598
-35.5767
-39.7071
-39.9671
-39.3462
-39.699
-45.8494
-17.6846
-74.4444
96.1089
-123.345
-104.278
-97.3523
-138.011
-79.0059
-70.6513
-61.9453
-72.086
-44.6985
-43.1764
-46.9707
-42.0763
-47.2116
-46.4304
-47.1606
-45.0402
-53.924
-47.8743
-53.1331
-53.2175
5.27324
7.5962
-66.2908
114.805
32.79
35.6331
19.5297
60.8731
-55.4381
-68.9942
-66.5691
-46.8022
-41.8942
-41.9022
-44.1473
-40.689
-37.4942
-36.036
-35.5436
-37.3117
-43.6446
-47.1906
-47.2914
-39.333
-126.089
-105.403
-99.0077
-139.565
-47.9169
-18.4819
-74.5833
96.2976
-78.9948
-70.4157
-61.7395
-71.9044
-47.1964
-46.4168
-47.1657
-44.9958
-44.6798
-43.1513
-46.9323
-42.0807
-53.8608
-47.8091
-53.0111
-53.1579
32.6795
34.3174
19.5529
62.0225
5.14101
7.51557
-66.3666
114.506
-55.319
-69.4052
-66.6297
-46.8308
-37.4457
-35.9657
-35.4979
-37.2701
-41.8569
-41.8738
-44.1048
-40.6605
-43.5778
-47.7191
-47.2487
-39.2934
-42.5805
-44.9516
-42.3112
-44.178
-33.2798
-33.1068
-32.6158
-33.8389
-35.2653
-36.326
-41.1753
-34.0747
-37.0692
-37.4676
-39.9563
-36.1998
-44.6003
-40.1514
-37.4468
-38.2034
-33.56
-33.8732
-34.6363
-34.9773
-32.3104
-31.9659
-32.3514
-31.3139
-37.3361
-37.597
-37.5772
-37.4264
-46.6122
-47.2193
-47.0108
-36.4919
-38.6828
-38.031
-42.121
-37.2407
-41.8241
-43.4788
-41.5014
-55.135
-11.4684
13.4215
-2.26465
2.33429
-37.8543
-41.3121
-39.673
-41.1934
-32.4186
-28.8683
-34.1897
-29.321
-38.7219
-41.6423
-38.2637
-49.1327
-49.9603
-53.989
-57.3253
-50.6144
-42.5591
-45.0446
-42.2989
-44.1591
-37.0516
-37.4485
-39.9305
-36.1774
-33.2683
-33.0735
-32.5938
-33.8119
-35.2563
-36.3113
-41.1564
-34.0669
-45.4966
-39.6644
-41.01
-40.1001
-37.283
-37.5932
-37.5431
-37.4402
-33.4167
-33.795
-34.5206
-34.8872
-31.8544
-31.8733
-32.1002
-31.4212
-46.6919
-47.1905
-46.983
-36.5346
-11.6843
13.7694
-2.26826
2.48267
-38.6533
-38.0004
-42.0818
-37.2482
-41.9491
-43.5978
-41.5864
-55.4564
-37.8616
-41.4408
-39.7826
-41.3191
-49.8646
-53.9645
-57.2795
-50.6191
-32.1
-28.6996
-34.1221
-29.0657
-38.622
-41.8455
-38.5913
-49.0433
-64.6169
-76.1128
-66.6085
-69.3168
145.268
167.821
148.692
153.39
-73.6096
-66.2685
-69.9237
-69.9255
114.978
179.249
170.066
170.445
-55.0537
-55.5433
-60.327
-52.5243
-54.8456
-55.0972
-58.7379
-51.9134
-51.8296
-50.4662
-52.7982
-52.3077
-40.1733
-39.9038
-40.2368
-40.0011
-50.7027
-49.4847
-53.6489
-53.6685
-42.4554
-41.1481
-48.0104
-48.147
-43.1601
-44.0371
-42.6774
-45.2831
-43.6309
-43.9248
-42.6186
-45.3247
-8.6293
-17.3597
-15.1555
-15.2062
125.928
206.415
181.204
181.172
-58.1785
-57.3118
-54.2767
-63.0618
-30.131
-22.3163
-27.314
-24.5267
-33.7391
-32.8215
-33.1056
-33.1019
-36.6212
-39.0923
-38.5573
-38.5721
-45.5488
-45.4737
-47.0122
-44.5383
-37.0501
-35.1693
-36.5775
-35.0133
-64.5252
-76.086
-66.7756
-69.4242
146.531
168.56
153.069
149.498
-55.0714
-55.5449
-60.3354
-52.5369
-54.8105
-55.0442
-58.667
-51.8625
-51.7812
-50.4245
-52.2514
-52.7443
-40.1575
-39.8905
-40.2253
-39.9851
-43.0586
-43.9741
-42.6108
-45.2034
-43.6449
-43.9383
-42.6498
-45.33
-58.1336
-57.2801
-63.0028
-54.2483
-30.5285
-22.4477
-24.5643
-27.6547
-45.4848
-45.4435
-44.5212
-46.9952
-37.0322
-35.1616
-34.9999
-36.5745
-33.3591
-34.3547
-33.9984
-33.8813
-34.1985
-34.5443
-34.3042
-34.6446
-46.3469
-47.9523
-46.5806
-46.7804
-35.1986
-35.4701
-34.81
-35.8342
-43.6278
-46.9859
-45.1876
-45.1945
-35.1067
-34.5845
-34.8448
-34.8391
-34.0048
-34.7961
-33.8071
-34.8712
-44.0907
-44.6366
-44.0744
-44.6487
-36.9354
-35.6468
-36.2728
-36.2816
-39.5961
-40.7712
-39.9333
-39.9448
-39.5967
-37.7949
-38.2534
-38.741
-77.2606
-103.19
-99.1308
-84.5673
4.6231
-8.16393
-5.49848
-5.82825
3.90018
-41.0176
-14.6422
-14.8654
-73.1544
-88.5241
-80.5414
-80.5298
-42.3115
-38.0017
-39.9233
-39.9217
-33.3228
-34.3314
-33.9797
-33.8587
-34.1688
-34.5192
-34.2745
-34.6099
-46.3282
-47.9434
-46.7661
-46.5716
-35.2106
-35.4827
-34.8205
-35.8497
-33.9707
-34.7895
-34.8731
-33.7681
-44.4025
-44.684
-44.3278
-44.903
-39.5586
-37.7778
-38.7286
-38.2656
-77.2066
-103.22
-84.2614
-98.9563
-61.3849
-62.8933
-65.5327
-77.166
-45.1404
-46.3208
-46.9603
-46.1689
-46.9468
-46.1842
-48.2659
-46.8848
-64.0462
-69.8165
-70.4079
-76.8449
-61.3901
-62.8329
-65.5513
-77.114
-64.0328
-69.8866
-70.4931
-76.8253
-46.9261
-46.1712
-48.2439
-46.8678
-45.1348
-46.3067
-46.9696
-46.1643
-77.6961
-71.8059
-70.8384
-66.9662
-77.4726
-71.5234
-70.7376
-66.8515
-44.7649
-43.3339
-46.7914
-45.0893
-44.7928
-43.3674
-46.8318
-45.1221
-14.4144
-36.0831
-18.4313
-25.7742
-21.0737
-12.2182
-18.4006
-10.3956
-20.5965
-11.5848
-18.26
-10.6266
-14.3458
-36.1077
-18.5549
-26.0423
135.914
77.1491
142.698
129.213
162.255
154.233
164.987
180.042
153.612
162.554
179.888
164.63
83.5666
138.909
128.7
146.427
-33.0926
-33.5573
-33.7326
-33.97
-32.9092
-31.059
-33.3392
-32.6835
-36.1771
-37.0072
-35.8911
-37.0817
-37.5719
-39.0391
-37.1786
-38.3735
-33.0862
-33.5549
-33.7321
-33.9734
-37.6025
-39.0688
-37.2063
-38.4072
-36.1793
-37.1564
-35.9368
-37.1506
-32.8376
-30.9593
-33.3048
-32.6413
-34.38
-34.9193
-34.3419
-34.7319
-34.8953
-34.3542
-34.7115
-34.3152
-36.4116
-35.6033
-36.0438
-35.3126
-35.6411
-36.4567
-35.3538
-36.0744
-63.8786
-15.6164
-51.0354
-17.1868
-59.4577
-64.6293
-75.0151
-76.0964
-64.5999
-59.3178
-76.0718
-74.9162
-15.6297
-63.5691
-17.2559
-51.622
-41.7472
-47.046
-42.7458
-43.0628
-53.7391
-53.4019
-52.8107
-49.7155
-48.9521
-49.7942
-51.2878
-50.5486
-43.2292
-41.1156
-45.3231
-44.7834
-42.1292
-47.8703
-42.7214
-43.389
-43.3608
-41.2578
-45.3958
-44.9207
-48.8202
-49.7372
-51.2139
-50.6157
-53.6349
-53.2585
-52.7363
-49.6394
-39.8954
-40.251
-40.6676
-39.9299
-40.0364
-40.3268
-40.7351
-39.975
-51.0644
-52.9431
-53.2113
-49.1267
-51.0703
-52.9661
-53.22
-49.1345
-42.593
-43.5897
-39.1403
-40.425
-34.3057
-34.4475
-33.6278
-34.1379
-34.2541
-34.4382
-33.6121
-34.1056
-42.6039
-43.5894
-39.1466
-40.4404
-41.8283
-45.7955
-41.1194
-42.9248
-45.926
-41.9218
-42.9237
-41.0608
-39.0073
-39.8879
-39.4614
-39.7987
-39.9122
-39.0385
-39.8226
-39.4784
-77.4518
18.0383
-99.6656
-3.82325
-70.8986
-88.9038
-48.5946
-44.1644
-46.836
-46.4719
-52.1619
-48.2247
-48.396
103.185
44.7418
76.3529
-48.4822
22.2412
-43.0337
-40.3791
-37.1595
-38.9172
-42.8386
-38.6029
-100.187
-5.21363
-77.6848
16.6279
-70.948
-89.84
-46.7543
-46.4555
-48.5491
-44.1658
-52.1756
-48.2553
44.653
76.195
-48.4774
103.085
-48.5013
22.0037
-37.1212
-38.8991
-42.9702
-40.374
-42.75
-38.5452
-43.7648
-41.6967
-32.9079
-34.5613
-41.7623
-33.2054
-39.3182
-35.6651
-58.6103
-41.4726
-30.5267
-36.4833
-32.5112
-28.1
-37.1012
-37.8294
-44.7521
-40.7242
-42.0815
-38.4917
-39.7339
-52.9196
-32.8275
-37.1745
-35.6608
-42.0368
-36.6966
-28.8599
-38.7636
-47.138
-48.4658
-45.5146
-43.7658
-41.6898
-39.3051
-35.6514
-32.8898
-34.5429
-41.7571
-33.1917
-54.485
-41.1309
-36.9764
-37.8257
-30.3199
-36.3333
-32.0922
-27.0647
-44.7375
-40.701
-32.5051
-36.8364
-42.0254
-38.5636
-39.8108
-52.7912
-35.7847
-42.051
-48.3236
-45.3736
-36.4471
-28.8086
-38.36
-46.6895
-80.3036
99.1979
-76.6682
103.512
-65.7729
-63.8532
124.683
138.164
-88.7453
-139.505
-88.9725
-150.515
-78.6003
-78.7009
58.7203
60.1478
-68.1276
-62.9366
-47.6761
-48.1389
-58.3259
-51.6637
-58.4978
-51.3598
-46.0598
-40.979
-44.8862
-40.726
-48.8552
-47.9693
-40.1639
-40.1816
-46.5425
-44.5113
-46.5626
-44.5021
-48.4271
-48.2477
-43.696
-43.702
-46.3242
-46.3126
-40.6613
-40.853
-42.4138
-44.2904
-42.1517
-44.8256
10.8062
49.7518
10.91
49.9521
0.174664
0.232897
87.3779
87.8612
-75.3603
-54.8502
-50.8284
-42.9263
-54.864
-65.6118
-38.4961
-36.7955
-34.1543
-35.864
-34.1243
-35.7399
-33.5875
-33.5786
-35.9581
-35.8414
-50.2991
-40.4635
-44.7714
-41.6295
-47.4351
-44.7
-39.408
-37.2083
-80.4026
99.3556
-76.7612
103.436
-65.7926
-63.8682
141.462
123.723
-68.1006
-62.9016
-47.7985
-48.1722
-58.2579
-51.654
-58.4847
-51.3563
-46.0215
-40.9684
-44.8461
-40.6964
-47.9141
-48.7944
-40.1472
-40.1644
-46.2123
-46.2763
-40.4743
-40.8789
-42.1945
-44.215
-42.1794
-44.8156
-75.1354
-54.9765
-50.7863
-42.3682
-65.5116
-54.833
-36.6444
-38.7474
-50.2565
-40.39
-44.7955
-41.8041
-44.6584
-47.3859
-37.2012
-39.3993
-32.7094
-33.5701
-32.9646
-34.2433
-32.8471
-32.9641
-33.8509
-34.171
-41.1823
-34.8438
-41.3766
-36.4141
-46.1142
-45.8158
-34.8002
-35.6808
-40.2851
-36.3821
-40.2707
-36.3709
-42.6221
-42.6295
-35.7097
-35.7048
-30.6771
-32.2937
-32.9074
-28.837
-32.6144
-35.2855
-39.1673
-37.4255
-37.9864
-37.828
-37.9779
-37.835
-37.9857
-37.992
-38.8595
-38.8669
-42.0414
-55.5672
-40.8557
-51.7123
-40.1612
-40.8299
-65.0227
-60.3047
14.7709
20.7885
14.8565
20.5657
11.4137
11.8582
16.0736
16.0626
-59.3948
-49.5365
-59.3704
-49.5272
-65.9945
-65.9833
-45.4216
-45.4206
-32.7053
-33.5405
-32.9233
-34.1863
-32.8254
-32.9349
-33.8144
-34.1267
-41.1624
-34.8358
-41.3383
-36.4118
-45.8049
-46.0957
-34.7982
-35.6887
-30.6156
-32.356
-33.1066
-28.7052
-35.1867
-32.5617
-39.3539
-37.4388
-42.0631
-55.7404
-40.9719
-51.7198
-40.7839
-40.2079
-60.2836
-65.0964
-72.3749
-72.0341
-60.7774
-53.0487
-53.9414
-62.1309
-50.0625
-50.4068
-72.3385
-71.9904
-60.7635
-53.0501
-62.0959
-53.9211
-50.3939
-50.0571
-62.729
-62.7211
-58.88
-52.0387
-58.8539
-52.0133
-49.3198
-49.3275
-19.0385
-19.1108
-20.4788
-16.8735
-16.9029
-20.5469
-11.8096
-11.7866
160.664
186.022
169.837
170.076
207.43
207.401