# vtk DataFile Version 2.0
tet_velo
ASCII
DATASET UNSTRUCTURED_GRID
POINTS 29498 float
-0.756817 0.285 -1.965
-0.706398 0.375 1.995
-0.805 0.685 -1.99058
-0.577994 1.145 2.015
0.756793 0.285 -1.965
0.706372 0.375 1.995
0.805 0.685 -1.99056
0.577985 1.145 2.015
-0.800048 0.254963 -0.645
-0.81066 0.257544 0.675
-0.852899 0.961901 -0.655387
-0.7824 1.1204 0.679807
0.799909 0.255077 -0.645
0.810756 0.257423 0.675
0.852879 0.961884 -0.655373
0.782282 1.12029 0.679814
-1.55607 -0.14276 -3.02293
-1.56324 -0.0577137 -1.96085
-1.58327 -0.0786476 -0.641239
-1.55734 -0.104779 0.675312
-1.47381 -0.0348716 1.99466
-1.45756 0.0374852 3.05548
-1.47365 0.107552 4.11864
-1.56143 0.147789 -3.03026
-1.572 0.266348 -1.96651
-1.599 0.284369 -0.643949
-1.55131 0.284539 0.677248
-1.42175 0.357988 1.99952
-1.42554 0.42918 3.06056
-1.45942 0.497334 4.12322
-1.58383 0.665055 -3.04917
-1.61105 0.778189 -1.98606
-1.63546 0.98382 -0.653139
-1.53271 1.10611 0.68086
-1.3476 1.15009 2.01349
-1.38848 1.21482 3.0739
-1.45043 1.28165 4.13411
-1.59374 1.63391 -3.06612
-1.60719 1.77632 -2.00073
-1.6129 2.0184 -0.662887
-1.58052 2.22531 0.678233
-1.5261 2.33941 2.01592
-1.50809 2.39998 3.08098
-1.5176 2.45798 4.14285
-0.763437 -0.132973 -3.02195
-0.763572 -0.0420342 -1.95941
-0.787932 -0.0916812 -0.641429
-0.797211 -0.125097 0.673393
-0.749093 -0.0321332 1.99131
-0.740635 0.0391048 3.05321
-0.753184 0.106594 4.11732
-0.764148 0.146257 -3.02995
-0.725276 0.433028 3.05868
-0.74793 0.497211 4.12223
-0.780891 0.625748 -3.05104
-0.694867 1.21439 3.0742
-0.746068 1.28137 4.13418
-0.792275 1.60447 -3.06797
-0.803727 1.74728 -2.00277
-0.820565 2.00854 -0.664117
-0.820516 2.23182 0.678384
-0.798446 2.34568 2.01698
-0.788207 2.40326 3.08204
-0.79542 2.4598 4.14362
0.79862 -0.132966 -3.02194
0.785317 -0.0420141 -1.95941
0.804008 -0.091624 -0.641428
0.790197 -0.125168 0.673394
0.717233 -0.032165 1.99131
0.691055 0.0390779 3.05321
0.683914 0.106563 4.11733
0.796766 0.14626 -3.02994
0.664503 0.433009 3.05868
0.66684 0.497183 4.12223
0.811265 0.625746 -3.05103
0.618639 1.21437 3.0742
0.642647 1.28134 4.13418
0.812213 1.60446 -3.06796
0.808939 1.74727 -2.00276
0.781846 2.00851 -0.664108
0.716536 2.23178 0.67839
0.653443 2.34563 2.01698
0.639802 2.40322 3.08204
0.64081 2.45976 4.14362
1.58733 -0.142748 -3.02292
1.5786 -0.0576799 -1.96084
1.59721 -0.0785982 -0.641234
1.56886 -0.104877 0.675315
1.47278 -0.0349544 1.99466
1.42926 0.0374202 3.05549
1.41799 0.107487 4.11864
1.58604 0.147796 -3.03024
1.57234 0.266367 -1.9665
1.6025 0.284433 -0.643943
1.56901 0.284414 0.677252
1.44036 0.357914 1.99952
1.39589 0.429122 3.06056
1.39501 0.497271 4.12322
1.60492 0.665051 -3.04915
1.60922 0.778182 -1.98604
1.63405 0.983802 -0.653122
1.54175 1.10598 0.680869
1.35553 1.15001 2.01349
1.34068 1.21476 3.0739
1.36317 1.28159 4.13411
1.6096 1.63389 -3.0661
1.60723 1.77629 -2.00071
1.57683 2.01835 -0.662871
1.49478 2.22522 0.678244
1.40529 2.33932 2.01593
1.3757 2.3999 3.08098
1.37292 2.45791 4.14286
-0.793402 0.485 -1.99028
-1.19805e-05 0.252518 -1.99748
-0.797005 0.251409 -1.305
-0.69941 0.76 2.06221
-1.29938e-05 0.336373 2.03363
-0.788855 0.285946 1.335
0 0.833695 -2.13927
-0.864771 0.859272 -1.32298
-4.50015e-06 1.21226 2.08226
-0.718514 1.17102 1.3474
0.791224 0.485 -1.98811
0.796972 0.251418 -1.305
0.699304 0.76 2.06213
0.788836 0.28594 1.335
0.864775 0.859278 -1.32297
0.717176 1.16969 1.34741
-0.799735 0.261873 0.015
-0.864105 0.608432 -0.650193
-6.92034e-05 0.248939 -0.645
-0.865043 0.688974 0.677404
4.7801e-05 0.243866 0.675
-0.824027 1.04753 0.0122101
-9.98737e-06 1.31848 -0.65538
-5.92135e-05 1.52898 0.67981
0.800324 0.261259 0.015
0.864084 0.60848 -0.650187
0.865095 0.688857 0.677407
0.824014 1.04752 0.01222
-0.880926 0.546716 -1.31399
-0.871124 0.648703 0.013605
-0.896179 0.724487 1.3412
-4.0592e-05 0.237514 -1.305
-1.07012e-05 0.251731 0.015
1.74036e-05 0.269506 1.335
-5.99027e-06 0.485 -2.24125
-8.74698e-06 0.76 2.18626
-4.99369e-06 1.07013 -1.32298
-3.46004e-05 1.54447 0.012215
-3.18568e-05 1.42575 1.34741
0.880928 0.54674 -1.31398
0.871121 0.648669 0.01361
0.896197 0.724429 1.3412
-1.16441 0.275674 -1.96576
-0.760194 0.121483 -1.96221
-0.760482 0.215629 -2.49747
-1.06407 0.366494 1.99726
-0.727746 0.171433 1.99315
-0.715837 0.404014 2.52684
-1.20803 0.731594 -1.98832
-0.792946 0.655374 -2.52081
-0.804363 1.21614 -1.99668
-0.962795 1.14754 2.01425
-0.636431 1.17969 2.5446
-0.68822 1.74534 2.01599
0.771055 0.121493 -1.96221
0.776779 0.21563 -2.49747
1.16457 0.275683 -1.96575
0.711802 0.171418 1.99315
0.685438 0.404004 2.52684
1.07337 0.366457 1.99726
0.808132 0.655373 -2.5208
0.80697 1.21613 -1.99666
1.20711 0.731591 -1.9883
0.598312 1.17968 2.5446
0.615714 1.74532 2.01599
0.966756 1.14751 2.01425
-1.19953 0.269666 -0.644475
-0.79399 0.081641 -0.643214
-1.18099 0.271042 0.676124
-0.803936 0.0662236 0.674197
-1.24418 0.972861 -0.654263
-0.836732 1.48522 -0.659752
-1.15755 1.11326 0.680333
-0.801458 1.67611 0.679095
0.801958 0.0817264 -0.643214
1.20121 0.269755 -0.644471
0.800476 0.0661278 0.674197
1.18988 0.270919 0.676126
0.817362 1.4852 -0.659741
1.24346 0.972843 -0.654248
0.749409 1.67603 0.679102
1.16202 1.11313 0.680341
-1.55966 -0.100237 -2.49189
-1.55875 0.00251441 -3.02659
-1.15975 -0.137867 -3.02244
-1.57326 -0.0681806 -1.30104
-1.56762 0.104317 -1.96368
-1.16341 -0.0498739 -1.96013
-1.5703 -0.0917133 0.0170367
-1.59114 0.102861 -0.642594
-1.1856 -0.0851644 -0.641334
-1.51558 -0.0698253 1.33499
-1.55433 0.0898801 0.67628
-1.17728 -0.114938 0.674353
-1.46569 0.00130679 2.52507
-1.44778 0.161558 1.99709
-1.11145 -0.0335024 1.99298
-1.46561 0.0725187 3.58706
-1.44155 0.233332 3.05802
-1.0991 0.038295 3.05435
-1.46654 0.302443 4.12093
-1.11342 0.107073 4.11798
-1.56672 0.207068 -2.49838
-1.57263 0.406422 -3.03971
-1.16279 0.147023 -3.0301
-1.5855 0.275359 -1.30523
-1.59153 0.522268 -1.97629
-1.57516 0.284454 0.0166497
-1.61723 0.634095 -0.648544
-1.48653 0.321264 1.33838
-1.54201 0.695324 0.679054
-1.42364 0.393584 2.53004
-1.38467 0.754037 2.00651
-1.44248 0.463257 3.59189
-1.40701 0.822 3.06723
-1.07541 0.431104 3.05962
-1.45492 0.889492 4.12866
-1.10367 0.497273 4.12272
-1.59744 0.721622 -2.51762
-1.58879 1.14948 -3.05765
-1.18236 0.645401 -3.05011
-1.62325 0.881005 -1.3196
-1.60912 1.27726 -1.9934
-1.58408 1.04496 0.0138605
-1.62418 1.50111 -0.658013
-1.44015 1.1281 1.34718
-1.55661 1.66571 0.679546
-1.36804 1.18245 2.54369
-1.43685 1.74475 2.0147
-1.41946 1.24824 3.604
-1.44829 1.8074 3.07744
-1.04167 1.2146 3.07405
-1.48401 1.86982 4.13848
-1.09825 1.28151 4.13414
-1.60047 1.70512 -2.53343
-1.19301 1.61919 -3.06705
-1.61005 1.89736 -1.33181
-1.20546 1.7618 -2.00175
-1.59671 2.12186 0.00767327
-1.21673 2.01347 -0.663502
-1.55331 2.28236 1.34708
-1.20052 2.22857 0.678308
-1.5171 2.36969 2.54845
-1.16227 2.34254 2.01645
-1.51284 2.42898 3.61191
-1.14815 2.40162 3.08151
-1.15651 2.45889 4.14323
-0.763504 -0.0875037 -2.49068
-0.763792 0.00664203 -3.02595
0.0175916 -0.13297 -3.02195
-0.775752 -0.0668577 -1.30042
0.0108728 -0.0420242 -1.95941
-0.792572 -0.108389 0.0159822
0.00803785 -0.0916526 -0.641428
-0.773152 -0.0786152 1.33235
-0.00350703 -0.125133 0.673393
-0.744864 0.00348579 2.52226
-0.0159303 -0.0321491 1.99131
-0.74691 0.0728494 3.58527
-0.732956 0.236066 3.05594
-0.0247904 0.0390913 3.05321
-0.750557 0.301903 4.11977
-0.0346349 0.106579 4.11732
-0.772519 0.386002 -3.0405
0.016309 0.146258 -3.02995
-0.736603 0.465119 3.59045
-0.710072 0.823708 3.06644
-0.0303864 0.433018 3.05868
-0.746999 0.889289 4.1282
-0.0405454 0.497197 4.12223
-0.786583 1.11511 -3.05951
0.0151867 0.625747 -3.05104
-0.720468 1.24788 3.60419
-0.741537 1.80882 3.07812
-0.038114 1.21438 3.0742
-0.770744 1.87058 4.1389
-0.0517105 1.28135 4.13418
-0.798001 1.67588 -2.53537
0.00996881 1.60447 -3.06797
-0.812146 1.87791 -1.33344
0.00260627 1.74728 -2.00277
-0.82054 2.12018 0.00713351
-0.0193597 2.00852 -0.664112
-0.809481 2.28875 1.34768
-0.0519901 2.2318 0.678387
-0.793327 2.37447 2.54951
-0.0725015 2.34566 2.01698
-0.791813 2.43153 3.61283
-0.0742028 2.40324 3.08204
-0.0773047 2.45978 4.14362
0.791969 -0.0874901 -2.49068
0.797693 0.00664673 -3.02594
1.19298 -0.137857 -3.02243
0.794663 -0.0668191 -1.30042
1.18196 -0.049847 -1.96013
0.797102 -0.108396 0.0159828
1.20061 -0.0851111 -0.641331
0.753715 -0.0786664 1.33235
1.17953 -0.115023 0.674354
0.704144 0.00345645 2.52226
1.09501 -0.0335597 1.99299
0.687484 0.0728205 3.58527
0.677779 0.236043 3.05594
1.06016 0.038249 3.05435
0.675377 0.301873 4.11978
1.05095 0.107025 4.11798
0.804015 0.386003 -3.04049
1.1914 0.147028 -3.03009
0.665671 0.465096 3.59045
0.641571 0.823689 3.06644
1.0302 0.431065 3.05962
0.654743 0.88926 4.1282
1.03093 0.497227 4.12272
0.811739 1.11511 -3.0595
1.20809 0.645398 -3.05009
0.630643 1.24785 3.60419
0.62922 1.8088 3.07812
0.979659 1.21457 3.07405
0.641729 1.87055 4.1389
1.00291 1.28146 4.13415
0.810576 1.67587 -2.53536
1.21091 1.61918 -3.06703
0.795392 1.87789 -1.33344
1.20808 1.76178 -2.00174
0.749191 2.12014 0.00714073
1.17934 2.01343 -0.663489
0.684989 2.2887 1.34769
1.10566 2.2285 0.678317
0.646622 2.37443 2.54951
1.02936 2.34248 2.01645
0.640306 2.43149 3.61283
1.00775 2.40156 3.08151
1.00686 2.45884 4.14324
1.58297 -0.100214 -2.49188
1.58669 0.00252404 -3.02658
1.5879 -0.068139 -1.30104
1.57547 0.104343 -1.96367
1.58303 -0.0917378 0.0170403
1.59985 0.102917 -0.642589
1.52082 -0.0699159 1.33499
1.56893 0.0897684 0.676283
1.45102 0.0012329 2.52508
1.45657 0.16148 1.99709
1.42363 0.0724534 3.58707
1.41258 0.233271 3.05802
1.4065 0.302379 4.12093
1.57919 0.207081 -2.49837
1.59548 0.406423 -3.0397
1.58742 0.2754 -1.30522
1.59078 0.522275 -1.97627
1.58575 0.284423 0.0166544
1.61828 0.634117 -0.648532
1.50468 0.321164 1.33839
1.55538 0.695195 0.67906
1.41813 0.393518 2.53004
1.39794 0.753963 2.00651
1.39545 0.463196 3.59189
1.36829 0.821943 3.06723
1.37909 0.889428 4.12867
1.60707 0.721616 -2.51759
1.60726 1.14947 -3.05763
1.62163 0.880992 -1.31958
1.60822 1.27724 -1.99337
1.5879 1.04489 0.0138734
[...]
POINT_DATA 29498
VECTORS point_vectors float
-2.02605 -3.03588 6.1922
0.0117921 0.114316 0.311766
-5.01127 1.17344 5.77897
-0.000621491 0.0180959 0.0298836
1.99357 -2.95605 6.10287
-0.0117341 0.114393 0.311778
5.07585 1.17203 5.83183
0.00072347 0.0183398 0.0295448
0.0533619 -0.0280266 1.71705
0.0321167 -0.103854 1.41868
-0.0627726 -0.0446337 0.632642
0 0 0
-0.0601165 -0.0327389 1.70528
-0.0278488 -0.112478 1.38741
0.0653163 -0.0485798 0.648864
2.08848e-17 -3.06585e-17 -1.21183e-16
-0.664285 -0.336444 19.9057
-1.25634 -0.728975 20.6345
-0.429468 -0.398033 21.3992
0.0236698 -0.0773462 21.5317
0.539605 0.294378 21.4921
0.84195 0.464172 21.2982
0.836276 0.411989 20.4481
-0.771394 -0.263785 19.8051
-1.68905 -0.614063 20.6003
-0.55856 -0.467453 21.4866
0.00282938 -0.194751 21.6422
0.865011 0.178927 21.5929
1.18676 0.294197 21.1578
1.0837 0.243791 20.5399
-0.830371 -0.0348736 19.698
-1.89576 -0.0164588 20.4211
-1.11766 -0.28756 21.4418
-0.281173 -0.273766 21.8057
0.765542 -0.502505 21.6146
0.998853 -0.53365 21.2834
0.872099 -0.50765 20.6515
-0.591984 0.316194 19.8815
-1.00425 0.572965 20.3394
-0.883444 0.423176 21.1476
-0.278934 0.0199945 21.5792
0.145423 -0.246509 21.3888
0.306703 -0.389259 21.1119
0.279979 -0.34164 20.7422
-0.701318 -0.824056 19.2744
-1.91115 -3.45697 21.3174
-0.262641 -0.269045 21.6753
-0.00839037 0.072011 21.5334
0.243967 1.09084 20.0098
0.463918 1.43879 18.9533
0.564286 1.26835 18.2366
-0.882683 -0.694102 18.8833
0.488392 1.72122 8.34718
1.86137 1.59523 13.0274
-1.05577 -0.0558326 18.5697
1.32699 -0.391576 10.3174
1.57254 -0.854726 17.5443
-0.571427 0.67321 19.3861
-1.25023 1.71449 19.9629
-1.34846 1.57902 21.231
-0.347218 0.248563 21.9792
0.078547 -0.425585 21.5849
0.197817 -0.55015 21.1578
0.305513 -0.560102 20.7249
0.71351 -0.787343 19.2993
1.96022 -3.36698 21.2845
0.265364 -0.285421 21.7865
0.0140164 0.0709888 21.5169
-0.202864 1.07938 19.7913
-0.310721 1.36873 18.7801
-0.410583 1.39556 17.9518
0.897532 -0.676281 18.9147
-0.234486 1.39583 6.55818
-1.91775 1.71893 10.789
1.05507 -0.0493588 18.6203
-1.13025 -0.276498 8.12547
-1.73058 -0.76622 14.7871
0.578837 0.664134 19.3992
1.25433 1.70335 19.9661
1.33623 1.67831 21.2226
0.331896 0.298173 22.0489
-0.0701579 -0.4478 21.6141
-0.182255 -0.55654 21.1168
-0.284919 -0.499625 20.5919
0.656951 -0.324367 19.9151
1.24588 -0.723407 20.6364
0.430885 -0.405026 21.3851
-0.0136977 -0.0858382 21.5238
-0.53165 0.29563 21.4962
-0.852767 0.508093 21.2926
-0.820443 0.446067 20.6679
0.759531 -0.257799 19.8289
1.68842 -0.617909 20.6059
0.556914 -0.466765 21.488
-0.000423588 -0.195059 21.6403
-0.847729 0.163729 21.595
-1.23164 0.318698 21.1641
-1.17857 0.392342 20.54
0.820111 -0.0347098 19.7299
1.89752 -0.0176975 20.4293
1.1195 -0.29117 21.4512
0.276447 -0.270704 21.8095
-0.75912 -0.499674 21.6121
-1.02941 -0.598665 21.2701
-1.1167 -0.499382 20.3346
0.585694 0.316932 19.8928
1.00403 0.575133 20.3405
0.911475 0.449674 21.1504
0.290948 0.026414 21.6174
-0.150499 -0.292565 21.4369
-0.301373 -0.437072 20.9736
-0.225873 -0.384412 20.9378
-2.95742 -0.636853 3.06605
0.000374361 -0.194872 0.835557
-0.0160346 -0.00258025 0.815158
-0.0177902 0.0292514 -0.0126153
-4.07809e-05 0.00420963 0.0130063
-0.00404308 0.0135719 0.380185
-0.000731018 1.69722 1.13418
-0.0336931 -0.0281792 0.162463
4.10699e-05 0.0242616 -0.0490379
0 0 0
1.48522 -0.306271 1.43174
0.0123729 -0.00480245 0.807932
0.0174179 0.0290337 -0.012082
0.0040785 0.012158 0.383071
0.0232674 -0.0191958 0.111823
0 0 0
-0.019537 0.0402731 1.77581
-0.000308616 0.000272004 0.0303752
0 0 0
-0.00148185 0.006509 0.0177264
-2.13954e-05 -0.00133831 0.0238327
0 0 0
5.23918e-05 0.0316239 0.0652101
7.27121e-05 -0.000755681 0.0106072
0.00665231 0.0438393 1.77235
0.000306144 0.00035195 0.0294609
0.0020192 0.00867112 0.0235669
0 0 0
0 0 0
-0.00044649 0.0163029 0.0859639
0 0 0
1.5155e-09 3.77211e-07 -2.32846e-05
-8.01366e-05 -0.000495213 0.0403155
0 0 0
-0.0136023 -0.78847 0.346706
0 0 0
-3.30871e-05 0.000759865 0.00688988
-0.000997454 0.0117877 0.14145
3.79633e-05 -0.00211935 0.0132439
0 0 0
0.000431568 0.0165051 0.0860799
0 0 0
-3.29325 -1.68608 20.7474
-3.05112 -5.57569 21.8575
-2.37916 -2.16251 17.7739
1.25552 0.928514 17.3118
-0.164453 1.33843 11.938
-0.415276 1.21088 5.18148
-3.85513 0.133751 20.2794
-3.01776 0.144489 16.8654
-3.15085 3.10762 19.501
1.32647 0.0697861 14.8414
0.56749 0.237697 4.53484
0.391422 -0.851155 20.5858
3.11825 -5.49293 21.8035
2.39662 -2.10352 17.8414
3.28206 -1.67685 20.7628
0.21576 1.30904 11.5632
0.695192 1.1556 4.39093
-1.26634 0.88783 17.6396
2.99874 0.137949 16.9821
3.15354 3.09231 19.5019
3.85512 0.129872 20.2837
-0.464399 0.266274 3.69081
-0.371641 -0.866632 20.2776
-1.32909 0.0576745 15.0473
-0.342042 -0.711491 21.5994
0.0224466 0.0681021 17.2304
0.0720278 -0.190202 20.7073
0.189861 0.0472665 17.2963
-1.84959 -0.862475 21.81
-3.60363 1.91722 21.4023
-0.404528 -0.302848 20.7173
-0.611409 0.127762 22.2636
-0.0280569 0.0542456 17.3541
0.33957 -0.705118 21.6137
-0.19307 0.0339191 17.1653
-0.0724738 -0.193808 20.8505
3.66253 2.04653 21.3772
1.85224 -0.863707 21.8002
0.59573 0.160539 22.1472
0.414748 -0.316965 20.8111
-1.02445 -0.568978 20.1029
-0.734467 -0.321692 19.8545
-0.744574 -0.560127 19.6282
-0.855674 -0.591045 21.2506
-1.45295 -0.699492 20.6353
-1.82017 -1.61096 20.7857
-0.169058 -0.236299 21.4958
-0.497458 -0.420271 21.4397
-0.313886 -0.455393 21.6202
0.24856 0.0966982 21.6185
0.0159731 -0.137983 21.5649
0.0678228 -0.0590004 21.6965
0.698419 0.393931 21.3914
0.68512 0.27057 21.5582
0.629886 0.707884 21.4072
0.90247 0.336493 21.1677
1.00234 0.380715 21.2371
0.966196 0.866016 21.2212
0.904222 0.275307 20.6099
0.736378 0.651801 21.8461
-1.29688 -0.449124 19.9619
-0.82306 -0.156279 19.7198
-0.900301 -0.488835 19.4319
-1.11231 -0.573765 21.3567
-1.82496 -0.338454 20.5148
-0.238084 -0.348601 21.56
-0.82352 -0.475347 21.4782
0.367588 -0.0176621 21.7807
-0.103889 -0.268297 21.7723
1.01552 0.221004 21.4095
1.01898 -0.177928 21.5019
1.2645 0.214657 21.355
1.29446 -0.178763 21.1816
1.76668 0.86982 18.4555
0.99883 -0.272198 20.6681
1.61587 1.07486 20.6108
-1.42523 -0.00693067 19.8365
-0.759126 0.2041 19.7494
-1.02761 -0.0494757 19.2467
-1.52209 -0.150691 21.1489
-1.50567 0.471184 20.3352
-0.735819 -0.334333 21.7097
-1.20431 0.196796 21.3109
0.245341 -0.311439 21.9121
-0.373131 -0.077401 21.7389
0.885507 -0.542085 21.482
0.332078 -0.411171 21.5165
0.95202 -0.521659 21.28
0.549491 -0.500844 21.2255
1.33929 -0.635114 19.9859
0.55041 -0.557593 20.7092
1.31748 -0.611393 20.0021
-0.838335 0.465671 20.0389
-0.645144 0.488635 19.6538
-1.0125 0.540015 20.77
-1.23806 1.05136 20.1849
-0.619864 0.253154 21.4665
-1.19801 0.834283 21.2317
-0.000641768 -0.16924 21.5598
-0.342244 0.127583 21.7809
0.249405 -0.337785 21.3176
0.158977 -0.352867 21.4818
0.274688 -0.303662 21.0253
0.261726 -0.528502 21.1454
0.323614 -0.560547 20.893
-1.43825 -2.02192 19.1459
-0.782274 -0.785795 19.0947
0.0182996 -1.13948 18.8645
-0.719993 -1.06055 22.1516
0.0289921 -4.8692 22.0024
-0.108999 -0.0363363 21.4774
0.00602492 -0.556665 20.5179
0.182622 0.504873 20.7731
-0.00451183 -0.156991 19.9699
0.264975 1.19958 19.4395
-0.00256162 0.507275 16.438
0.801829 1.51133 18.0365
0.529454 1.85154 13.9562
-0.0742266 0.327605 14.0429
1.42845 1.39432 13.7206
0.132047 0.942377 12.4243
-1.00565 -0.426117 18.6512
0.0391547 -1.00355 18.2516
1.42443 1.49786 10.9878
1.09434 0.912216 5.75199
-0.0384184 -1.79093 -5.20499
2.21316 0.318879 11.995
0.150219 -2.71857 -4.02126
-0.873526 0.53114 18.8799
0.0319109 -0.0744397 17.7115
1.61176 -0.922675 13.1731
0.429676 -1.04562 21.3848
0.0813202 -0.0157968 0.639475
0.425836 -0.795851 20.1369
0.0916839 -1.86606 5.35336
-0.956809 1.26589 19.4345
0.00862304 0.947414 19.0605
-1.35254 1.69786 20.5759
0.00760863 2.70871 19.6536
-0.914452 0.986229 21.9277
-0.0624189 2.92845 21.0804
-0.0366285 -0.19131 21.7992
-0.0364551 0.477615 22.2672
0.157859 -0.532078 21.414
0.00435433 -0.463324 21.651
0.149612 -0.620012 20.7603
0.0300928 -0.636556 21.3129
0.00695895 -0.687679 20.7789
1.46032 -1.94788 19.1786
0.79414 -0.766249 19.1227
0.74581 -0.543022 19.6518
0.730929 -1.05922 22.1342
1.79422 -1.5431 20.7856
0.110104 -0.0460909 21.4728
0.329772 -0.45405 21.6059
-0.172403 0.508401 20.6531
-0.0627533 -0.0579527 21.6917
-0.188903 1.15853 19.1208
-0.623699 0.735012 21.3812
-0.741446 1.55638 17.6632
-0.267322 1.74133 12.8475
-0.973612 0.886698 21.2246
-1.35919 1.52802 12.7063
-0.838116 0.793684 21.8549
1.01877 -0.413548 18.7145
0.90411 -0.472869 19.4543
-1.30189 1.58854 9.22299
-0.794297 0.473509 4.19276
-1.83456 0.972429 18.1362
-2.356 0.407508 9.53622
-1.71085 1.21367 20.2581
0.875603 0.522651 18.9123
1.02472 -0.0464398 19.2857
-1.46871 -0.896519 11.4706
-0.437868 -1.11182 21.0605
-1.43338 -0.602439 18.7876
-0.383401 -0.86474 20.2902
-1.33225 -0.680755 19.7665
0.962635 1.25187 19.448
0.644507 0.475739 19.667
1.34447 1.72774 20.5689
1.23751 1.04585 20.1875
0.910758 1.0881 21.9814
1.22572 0.886981 21.2371
0.0438034 -0.204479 21.8341
0.348356 0.150153 21.8242
-0.139449 -0.53519 21.3985
-0.148048 -0.373315 21.4703
-0.0931505 -0.611837 20.8899
-0.240235 -0.565793 21.2038
-0.336025 -0.625319 20.8691
1.00418 -0.551183 20.1184
0.71988 -0.307104 19.8736
0.861995 -0.59309 21.2347
1.43861 -0.694246 20.6401
0.170955 -0.243538 21.4966
0.499298 -0.4195 21.4293
-0.242117 0.0914897 21.6094
-0.00915685 -0.140102 21.5536
-0.698324 0.417768 21.3943
-0.679376 0.257872 21.5548
-0.92814 0.402964 21.1485
-1.0196 0.417823 21.2461
-0.883264 0.309567 20.8446
1.27413 -0.44079 19.9747
0.814881 -0.15667 19.7448
1.10795 -0.573004 21.357
1.83054 -0.342716 20.5267
0.239835 -0.34737 21.5614
0.822332 -0.480471 21.4844
-0.357558 -0.0209453 21.7738
0.102845 -0.269713 21.7676
-1.02698 0.228943 21.4181
-0.998805 -0.177853 21.5188
-1.34794 0.31407 20.9668
-1.3593 -0.194491 21.1702
-1.18322 -0.254386 20.3619
1.41213 -0.0103968 19.859
0.755495 0.197636 19.7709
1.52283 -0.154456 21.1581
1.50983 0.469848 20.3362
0.733541 -0.333418 21.7119
1.23114 0.205853 21.3192
-0.241223 -0.309141 21.905
0.379731 -0.0777126 21.7724
-0.897121 -0.55705 21.4714
-0.335607 -0.442312 21.5381
-0.927123 -0.630674 21.3907
-0.514895 -0.57969 21.1477
-0.456559 -0.549789 20.9958
0.833179 0.462453 20.0455
1.02945 0.552955 20.77
0.6448 0.257347 21.4984
0.00769443 -0.173895 21.5933
-0.230262 -0.350257 21.3036
-0.26602 -0.401878 21.1231
-1.17035 -0.535187 20.0424
-1.87442 -2.24939 18.5216
-1.36205 -1.12175 19.7658
-1.93494 -1.02989 19.2956
-0.840407 -0.534479 19.5253
-2.4742 -1.80029 20.8041
-0.97144 -0.59574 21.2892
-0.495075 -0.540979 18.3846
-0.870895 -0.923574 21.65
-1.27242 -1.08407 22.0599
-0.283488 -0.561144 21.7074
-0.203491 -0.287891 21.5233
0.129731 0.130749 16.9285
-0.0764577 -0.23176 21.6195
-0.00799087 -0.419217 21.045
0.108895 -0.128235 21.4859
0.300766 0.0490773 21.6984
0.296014 0.51576 14.7067
0.32382 0.247445 21.7019
0.428094 0.247155 19.2871
0.96217 0.86657 20.2333
0.88129 0.340019 21.3598
0.0169651 1.37777 12.6485
0.757018 0.801104 21.1992
1.32593 0.849642 18.1863
1.32096 1.02547 19.903
1.07543 0.242747 21.3474
1.04857 1.55168 12.8188
1.09438 1.0112 21.2849
1.8805 0.951067 18.3833
1.17613 0.863331 21.2284
-1.4022 -0.248802 19.8688
-2.94317 -1.17887 16.9109
-2.29286 0.0139662 19.0054
-1.00704 -0.277605 19.2749
-4.01825 -0.830703 20.506
-1.3584 -0.443925 21.2993
-2.32016 -0.510168 21.7052
-0.7285 -1.05778 21.487
-0.452538 -0.417066 21.6473
-1.18649 -0.780907 21.571
0.057214 -0.184496 19.569
0.381903 -0.175588 21.8811
0.657439 0.212901 18.4366
1.38452 0.64286 13.845
1.15719 -0.174555 21.2954
-0.0664005 1.05961 2.18501
1.23522 -0.308118 17.9274
1.70137 0.181171 17.9404
1.32771 -0.230906 21.124
2.12831 0.437771 8.73166
1.4866 -0.616229 20.1277
1.84239 -0.11287 19.4572
-1.18332 0.357509 19.8982
-1.89738 1.53014 18.3685
-0.986369 0.824912 19.7715
-0.891057 0.344249 19.382
-2.34564 1.16394 20.1169
-1.42029 0.346782 20.9158
-2.90205 1.96469 20.7244
-1.29112 0.987705 20.7373
-2.04836 0.484761 21.4741
-0.847344 0.0541262 21.6395
-2.25685 0.826066 22.6004
-0.796897 0.509232 21.6672
-0.508153 -0.0159886 22.0927
0.0598074 -0.243417 21.7262
0.166565 -0.552376 21.5833
-0.0297517 -0.183907 21.6877
0.36641 -0.629644 21.671
0.469107 -0.452294 21.3426
0.371246 -0.938793 21.2137
0.221385 -0.411264 21.2594
0.627259 -0.767046 21.0529
0.587757 -0.461464 21.002
0.610242 -1.08869 19.6523
0.232346 -0.47643 21.0689
0.299061 -0.541642 21.3907
1.89211 -2.16653 18.5905
0.0303409 -3.14831 18.4838
0.0341011 -3.85426 15.9124
0.035066 -1.15107 18.592
0.00194081 -7.02732 23.8219
0.500724 -0.565266 18.5657
0.0163578 -1.56331 22.0209
-0.00512732 -0.0598392 11.0599
-0.133656 0.10852 16.921
-0.00191422 -0.281929 19.9225
-0.00391812 -0.0988165 11.3837
-0.282908 0.514358 14.4696
-0.00212324 0.274539 18.028
-0.0112297 0.341889 6.62051
0.142222 1.29711 11.9552
-0.030035 0.185506 15.4612
-0.114855 -1.22422 -3.43208
-0.0577378 -1.22223 1.13974
-0.985525 1.60137 12.4143
-0.058331 0.876176 12.4998
-0.0853008 -1.21089 -4.71451
0.141133 -0.888098 4.20151
2.94526 -1.14125 17.0229
0.0391649 0.748467 13.5752
0.0315948 -0.598865 17.8455
0.206626 1.06073 1.66395
0.00249858 0.237018 0.247001
0.0550292 -1.34646 -3.63889
-1.96749 0.419664 6.58728
0.166124 -1.27209 3.14324
0.177094 -2.40493 -2.32044
1.89747 1.50828 18.4133
0.0121082 1.91535 18.972
0.0185395 0.820886 18.268
0.00595658 5.78674 18.8474
2.90963 2.00004 20.7119
-0.0183207 2.68284 20.2773
-0.0471946 5.79165 19.647
2.37101 0.903569 22.5484
-0.0500953 1.87574 22.3043
-0.0213677 0.423302 20.6015
-0.218355 -0.58138 21.1153
-0.00971362 -0.202873 21.9502
0.0211672 -0.751031 18.0647
-0.331147 -0.950829 20.9158
0.0206244 -0.619388 21.5551
0.0274019 -1.16929 19.1688
-0.587253 -1.15054 19.6484
0.0289455 -0.79747 20.8965
0.120482 -1.33612 18.8615
1.13086 -0.519391 20.0695
1.34882 -1.0832 19.7962
1.91611 -1.00445 19.3365
0.838188 -0.516546 19.5629
2.44569 -1.75222 20.8072
0.971124 -0.592822 21.2759
0.884086 -0.908346 21.6228
1.26193 -1.06813 22.0508
0.297462 -0.553369 21.6987
0.204485 -0.285897 21.5253
0.084189 -0.2324 21.6144
0.0153637 -0.418946 21.1162
-0.101798 -0.127783 21.5082
-0.293581 0.0437281 21.69
-0.320536 0.256285 21.6797
-0.43884 0.230258 19.5358
-0.961524 0.872541 20.2055
-0.885242 0.349167 21.3596
-0.749233 0.842097 21.172
-1.31476 0.898478 17.8352
-1.3803 1.1155 19.5914
-1.13721 0.26865 21.156
-1.14245 1.16648 21.1276
-1.93717 1.11628 18.1079
-1.27448 1.00368 21.0565
1.39729 -0.249313 19.8904
2.26331 0.0110537 19.0475
1.00576 -0.272024 19.3146
4.00768 -0.837606 20.5264
1.35974 -0.448106 21.3051
2.32269 -0.51453 21.7037
0.730741 -1.06342 21.4915
0.449611 -0.416723 21.6491
1.18507 -0.775709 21.5873
-0.0558879 -0.220055 19.7686
-0.374567 -0.173695 21.8879
-0.637941 0.180837 18.5803
-1.40018 0.650881 14.2482
-1.17884 -0.180512 21.285
-1.25144 -0.238826 16.8734
-1.70317 0.31814 16.6989
-1.3994 -0.249983 21.0353
-1.60791 -0.669228 19.2434
-1.92979 0.0347498 18.8591
1.17324 0.352263 19.9146
0.982871 0.810638 19.7825
0.888448 0.334215 19.4049
2.34371 1.15959 20.1144
1.43582 0.348085 20.9202
1.29952 1.01187 20.7341
2.09662 0.509853 21.4785
0.871418 0.0601571 21.6547
0.827591 0.582837 21.7063
0.520815 -0.00852235 22.1394
-0.0721979 -0.250888 21.7527
0.0334983 -0.188241 21.711
-0.363572 -0.684043 21.6759
-0.471643 -0.504906 21.374
-0.223776 -0.470496 21.25
-0.648407 -0.848512 21.1073
-0.649728 -0.520082 20.7329
-0.218765 -0.549966 20.9977
-0.317912 -0.630447 21.1373
-1.67882 -1.13763 19.5307
-1.03131 -1.03054 21.8289
-0.00645325 -0.30979 21.5654
0.449116 0.244151 21.1946
1.05633 0.958237 19.7878
1.49394 0.958807 19.8079
-2.2746 -0.566935 19.0318
-1.80343 -0.884048 22.2217
-0.197376 -0.780463 20.5274
0.51132 0.564458 17.6414
1.48158 0.424999 16.248
1.95596 0.0212698 18.9523
-1.65137 0.779832 19.3795
-2.15169 0.765773 20.9561
-1.33596 0.239311 22.0236
0.0876477 -0.354417 21.9694
0.480926 -0.710367 21.4369
0.705835 -0.7695 21.1454
0.0427001 -3.82711 17.3224
0.000541961 -0.577361 12.7888
-0.00584082 -0.0467854 10.823
0.00786452 0.284072 9.20373
-0.129518 -0.541799 3.72053
-0.0718157 -0.167359 3.89264
0.0308696 -1.95087 14.0239
-0.00923349 -0.532386 -2.63265
0.264004 -1.1134 -4.0432
0.0288877 2.7979 16.9014
-0.0168279 4.01028 20.0454
-0.0704512 3.08951 21.6115
-0.000215281 -0.511339 18.9464
0.0211198 -0.847748 18.996
0.0555208 -1.22486 18.2781
1.66979 -1.10408 19.5625
1.03772 -1.00848 21.8078
0.020369 -0.310424 21.5777
-0.448867 0.243818 21.2125
-1.05225 1.00124 19.5693
-1.54342 1.14381 19.609
2.2525 -0.558477 19.0816
1.79191 -0.89726 22.2169
0.207005 -0.781054 20.5944
-0.52153 0.524546 17.8659
-1.46086 0.501306 15.3782
-2.07661 0.181941 17.8681
1.63642 0.759224 19.3964
2.1703 0.78253 20.9494
1.39476 0.258075 22.0645
-0.0923447 -0.373116 22.01
-0.468056 -0.769272 21.4661
-0.671043 -0.885873 21.2835
-4.05843 -1.90208 4.78109
-0.0349341 -0.252401 0.962102
-0.0597595 -0.0109106 0.882736
-0.0407188 0.0115299 -0.0385633
-0.0592126 0.0125244 0.0310237
-0.029408 0.0496119 0.418707
-4.69037 -0.178697 4.78046
-0.691027 1.18392 1.09959
-0.365097 -0.0481238 1.1952
-0.00143516 0.00351418 0.00241998
0.00586464 0.0129376 -0.0161883
0.000472785 -8.6518e-05 0.00316907
0.0403208 -0.243148 0.94794
3.45895 -1.51418 4.40305
0.0567614 -0.0133297 0.879565
0.0750808 0.0159775 0.0408165
0.0422388 0.0132226 -0.0394486
0.0336672 0.0561305 0.485356
0.698305 1.17686 1.10288
3.81751 -0.242946 3.71348
0.368229 -0.0481267 1.20588
-0.00588513 0.0132235 -0.0162752
0.00125798 0.00351926 0.00245275
0 0 0
-0.0371076 -0.038707 1.89932
0.02436 0.00747378 1.43945
0 0 0
0 0 0
0.00139858 0.0140863 0.277838
0.000180991 -1.34037e-05 0.363373
-0.00285747 0.00217542 0.0206364
0.000227811 -0.000421194 0.00940699
-0.157739 -0.197747 0.471842
-0.000380444 0.000845187 0.0187622
0 0 0
-0.0575888 0.0487423 0.12114
0 0 0
0 0 0
0 0 0
0.0188173 0.00123541 0.0870128
0.0342322 -0.0398437 1.90796
0 0 0
-0.0205469 0.00229348 1.78751
0 0 0
0.00277425 0.00909593 0.219865
-0.000236073 -0.000375867 0.0083239
-0.00389458 0.00633117 0.297004
0.00026227 0.000210791 0.00189688
0.183806 -0.219785 0.54628
0.0582965 0.0490954 0.121679
0.000367249 0.00079064 0.0175098
0 0 0
0 0 0
-0.0188061 0.0013998 0.0866375
0 0 0
0 0 0
0 0 0
-0.182604 -0.176105 0.114959
0 0 0
0.0662721 -0.511383 0.161692
-0.00135068 0.000766651 0.0576969
0.000308471 -6.24217e-05 0.00457536
0.0121203 -0.000794284 0.0510638
0 0 0
1.29797e-06 0.000138572 0.00141247
-4.27048e-05 0.0135868 -0.0345263
-0.000459924 0.0120566 0.113843
0.000257604 0.000487676 0.0149455
-0.0507057 0.960012 0.346317
-3.8429e-05 0.00887881 0.0378403
-2.44439e-05 -0.000121353 0.00117141
0 0 0
0 0 0
1.65492e-07 0.000374254 -0.00103917
0.0047545 0.00646969 0.0432236
0 0 0
0.145306 -0.13977 0.0897116
0 0 0
-0.000304604 -6.11874e-05 0.00453622
0.00131002 0.00052222 0.0593936
0 0 0
-0.0116783 -0.000605252 0.0487894
-0.000111833 0.000349714 0.00646717
0.000467262 0.0123061 0.115789
0 0 0
2.35749e-05 -0.000110377 0.00111204
0 0 0
-0.00526438 0.00739715 0.0487275
-0.000595381 0.00335385 0.024452
0.00534322 0.000644455 0.113463
0 0 0
-0.000233423 0.00755092 0.0571179
-3.11691e-05 -0.00010783 0.0828233
0 0 0
0.000225493 0.00448945 0.0181073
-3.44075e-05 0.000225152 0.00143349
0 0 0
0 0 0
0 0 0
-0.0823924 0.0826431 1.33467
2.51747e-19 4.92504e-18 1.92014e-17
0.000826066 0.0755428 0.1914
0.000105982 -0.000572243 0.0246561
0 0 0
-0.00499597 0.000520141 0.0996326
0.000642651 0.0034876 0.0247874
-0.000899474 -0.00103597 0.00629965
0.000317361 0.00706268 0.0530072
-0.000228608 0.00470585 0.0188514
0 0 0
0.162238 0.17415 1.99279
-3.03345e-05 0.000558963 0.00216584
0 0 0
-0.000870406 -0.00243927 0.0303233
0.0281522 -0.00555884 0.181246
-4.06167e-18 1.59079e-17 -7.14592e-17
-2.36678e-05 0.00018364 0.0028832
0 0 0
-0.000262333 0.0045955 0.0228789
0 0 0
-0.00187453 0.0112747 0.186667
0.00167002 0.0195763 0.068918
0.0325196 0.0247744 0.226339
0 0 0
0 0 0
0 0 0
0.00678928 -0.00023447 0.104627
-0.00679564 -0.000217159 0.104096
0.000906269 3.8975e-05 0.0118933
-0.000966488 3.97945e-05 0.0122573
0.00292353 0.000154058 0.051897
-0.00257616 0.00013421 0.0463698