# vtk DataFile Version 2.0
tet_velo
ASCII
DATASET UNSTRUCTURED_GRID
POINTS 29498 float
-0.735 0.225 -2.11713
-0.60907 0.315 2.205
-0.759679 0.775 -1.915
-0.655 1.005 2.06924
0.735 0.225 -2.11713
0.60907 0.315 2.205
0.759679 0.775 -1.915
0.655 1.005 2.06924
-0.734791 0.213232 -0.67642
-0.722443 0.213604 0.76429
-0.805105 0.931985 -0.58692
-0.773358 1.0118 0.74116
0.734791 0.213232 -0.67642
0.722443 0.213603 0.76429
0.805135 0.932016 -0.58692
0.773361 1.0118 0.74116
-1.49573 -0.175253 -3.26167
-1.49443 -0.126056 -2.15421
-1.48629 -0.133423 -0.710593
-1.44778 -0.140875 0.755697
-1.36481 -0.0766696 2.20123
-1.34386 -0.0267998 3.31804
-1.35191 0.0134827 4.41754
-1.49802 0.148112 -3.2011
-1.50157 0.215815 -2.10594
-1.49806 0.229153 -0.684237
-1.44765 0.22813 0.747608
-1.33099 0.288685 2.17147
-1.31968 0.337146 3.28669
-1.33866 0.377092 4.38987
-1.50995 0.761349 -3.04834
-1.52864 0.826626 -1.94853
-1.54976 0.941925 -0.603602
-1.49171 0.998523 0.733343
-1.36881 1.01066 2.08043
-1.34103 1.05599 3.2003
-1.34968 1.10136 4.32164
-1.51143 1.78376 -2.90388
-1.5213 1.8636 -1.82094
-1.53041 1.99275 -0.512532
-1.51559 2.09219 0.7716
-1.47387 2.13903 2.08118
-1.43949 2.16854 3.16659
-1.41842 2.20369 4.27563
-0.74341 -0.170597 -3.26894
-0.741343 -0.118352 -2.16481
-0.73919 -0.140879 -0.70917
-0.731563 -0.150955 0.769936
-0.676039 -0.0647203 2.22612
-0.655482 -0.0184727 3.33493
-0.658344 0.0171895 4.42731
-0.741197 0.146658 -3.20334
-0.62864 0.346258 3.30062
-0.645275 0.380682 4.39724
-0.748121 0.739588 -3.03441
-0.644365 1.05628 3.19807
-0.65202 1.10207 4.32116
-0.749287 1.76841 -2.89011
-0.756337 1.8489 -1.80577
-0.770858 1.989 -0.503386
-0.775801 2.09648 0.770503
-0.755687 2.14125 2.07335
-0.72789 2.1688 3.15876
-0.707811 2.20363 4.26994
0.748416 -0.170593 -3.26894
0.738032 -0.11835 -2.16481
0.7333 -0.140878 -0.709171
0.702098 -0.150955 0.769936
0.631235 -0.0647201 2.22612
0.670246 -0.018472 3.33493
0.703047 0.0171909 4.42732
0.753065 0.146661 -3.20334
0.676144 0.346259 3.30062
0.708898 0.380683 4.39724
0.765522 0.739592 -3.03441
0.691037 1.05628 3.19807
0.714578 1.10207 4.32116
0.775435 1.76842 -2.89011
0.776865 1.84891 -1.80577
0.76262 1.98901 -0.503386
0.72328 2.09648 0.770503
0.689759 2.14125 2.07335
0.693147 2.1688 3.15876
0.707654 2.20363 4.26994
1.49763 -0.175244 -3.26167
1.48977 -0.126047 -2.15421
1.48074 -0.133416 -0.710592
1.43338 -0.140873 0.755697
1.34818 -0.0766685 2.20123
1.3606 -0.0267977 3.31804
1.39378 0.0134857 4.41754
1.50417 0.148122 -3.2011
1.49862 0.215826 -2.10594
1.49708 0.229164 -0.684237
1.45156 0.228132 0.747608
1.34145 0.288686 2.17147
1.35937 0.337148 3.28669
1.39607 0.377095 4.38987
1.52221 0.761361 -3.04834
1.52915 0.826644 -1.94853
1.54998 0.941956 -0.603602
1.49509 0.998531 0.733343
1.37866 1.01067 2.08043
1.37977 1.056 3.2003
1.40605 1.10136 4.32164
1.53376 1.78378 -2.90388
1.5366 1.86362 -1.82094
1.52205 1.99277 -0.512533
1.47406 2.0922 0.7716
1.42338 2.13904 2.08118
1.41276 2.16855 3.16659
1.42063 2.2037 4.27563
-0.810021 0.5 -2.07875
0 0.211426 -2.1307
-0.741253 0.212758 -1.39678
-0.67807 0.66 2.18315
0 0.328284 2.19172
-0.690469 0.239589 1.48465
0 0.858803 -1.9988
-0.803002 0.874103 -1.25096
0 1.05924 2.12348
-0.758924 1.05314 1.4052
0.809869 0.5 -2.07859
0.741254 0.212758 -1.39678
0.678131 0.66 2.18322
0.690469 0.239589 1.48465
0.802653 0.873754 -1.25096
0.758933 1.05315 1.4052
-0.728621 0.213414 0.0439349
-0.853773 0.572609 -0.63167
2.12051e-07 0.210759 -0.67642
-0.844087 0.612701 0.752725
3.5298e-07 0.210997 0.76429
-0.789263 0.971923 0.0771201
1.52045e-05 1.25276 -0.58692
1.41455e-06 1.45199 0.74116
0.728623 0.213412 0.0439349
0.853777 0.572624 -0.63167
0.844627 0.612702 0.752725
0.78926 0.971921 0.0771201
-0.896045 0.536304 -1.32387
-0.846952 0.592655 0.0605275
-0.892998 0.636351 1.44492
1.06026e-07 0.21045 -1.39678
2.82516e-07 0.210876 0.0439349
1.7649e-07 0.236238 1.48465
0 0.5 -2.31236
0 0.66 2.2699
7.60224e-06 0.984224 -1.25096
8.30951e-06 1.44528 0.0771201
7.07277e-07 1.28586 1.4052
0.896042 0.536312 -1.32387
0.846953 0.592663 0.0605275
0.892996 0.636351 1.44492
-1.11828 0.220407 -2.11154
-0.738171 0.053324 -2.14097
-0.738099 0.185829 -2.66023
-0.970031 0.301842 2.18824
-0.642554 0.12514 2.21556
-0.618855 0.330629 2.75281
-1.14416 0.800813 -1.93176
-0.7539 0.757294 -2.47471
-0.758008 1.31195 -1.86038
-1.01191 1.00783 2.07483
-0.649682 1.03064 2.63365
-0.705344 1.57312 2.07129
0.736516 0.053325 -2.14097
0.744032 0.18583 -2.66023
1.11681 0.220413 -2.11154
0.620152 0.12514 2.21556
0.642607 0.330629 2.75281
0.975262 0.301843 2.18824
0.762601 0.757296 -2.47471
0.768272 1.31195 -1.86038
1.14442 0.800822 -1.93176
0.673019 1.03064 2.63365
0.672379 1.57313 2.07129
1.01683 1.00783 2.07483
-1.11642 0.221193 -0.680329
-0.736991 0.0361769 -0.692795
-1.08504 0.220867 0.755949
-0.727003 0.0313244 0.767113
-1.17743 0.936955 -0.595261
-0.787982 1.46049 -0.545153
-1.13253 1.00516 0.737252
-0.774579 1.55414 0.755832
0.734046 0.0361772 -0.692795
1.11594 0.221198 -0.680329
0.712271 0.0313241 0.767113
1.087 0.220868 0.755949
0.783878 1.46051 -0.545153
1.17756 0.936986 -0.595261
0.74832 1.55414 0.755831
1.13423 1.00517 0.737252
-1.49508 -0.150654 -2.70794
-1.49687 -0.0135705 -3.23139
-1.11957 -0.172925 -3.26531
-1.49036 -0.129739 -1.4324
-1.498 0.0448796 -2.13008
-1.11788 -0.122204 -2.15951
-1.46704 -0.137149 0.0225523
-1.49217 0.0478652 -0.697415
-1.11274 -0.137151 -0.709882
-1.4063 -0.108772 1.47846
-1.44772 0.0436274 0.751652
-1.08967 -0.145915 0.762816
-1.35433 -0.0517347 2.75963
-1.3479 0.106008 2.18635
-1.02042 -0.070695 2.21367
-1.34788 -0.00665852 3.86779
-1.33177 0.155173 3.30236
-0.999669 -0.0226362 3.32648
-1.34528 0.195287 4.4037
-1.00513 0.0153361 4.42243
-1.49979 0.181964 -2.65352
-1.50398 0.454731 -3.12472
-1.11961 0.147385 -3.20222
-1.49981 0.222484 -1.39509
-1.5151 0.521221 -2.02724
-1.47285 0.228641 0.0316853
-1.52391 0.585539 -0.64392
-1.38932 0.258407 1.45954
-1.46968 0.613327 0.740475
-1.32534 0.312916 2.72908
-1.3499 0.649674 2.12595
-1.32917 0.357119 3.83828
-1.33035 0.69657 3.2435
-0.974162 0.341702 3.29366
-1.34417 0.739226 4.35575
-0.991968 0.378887 4.39355
-1.5193 0.793988 -2.49843
-1.51069 1.27255 -2.97611
-1.12904 0.750469 -3.04138
-1.5392 0.884276 -1.27606
-1.52497 1.34511 -1.88473
-1.52073 0.970224 0.0648704
-1.54008 1.46734 -0.558067
-1.43026 1.00459 1.40688
-1.50365 1.54536 0.752472
-1.35492 1.03333 2.64037
-1.42134 1.57485 2.08081
-1.34535 1.07868 3.76097
-1.39026 1.61227 3.18345
-0.992695 1.05614 3.19918
-1.38405 1.65253 4.29863
-1.00085 1.10171 4.3214
-1.51636 1.82368 -2.36241
-1.13036 1.77608 -2.897
-1.52585 1.92818 -1.16674
-1.13882 1.85625 -1.81335
-1.523 2.04247 0.129534
-1.15063 1.99087 -0.507959
-1.49473 2.11561 1.42639
-1.1457 2.09433 0.771052
-1.45668 2.15379 2.62389
-1.11478 2.14014 2.07727
-1.42896 2.18612 3.72111
-1.08369 2.16867 3.16268
-1.06312 2.20366 4.27278
-0.742376 -0.144474 -2.71688
-0.742303 -0.0119696 -3.23614
0.00250299 -0.170595 -3.26894
-0.740267 -0.129615 -1.43699
-0.00165546 -0.118351 -2.16481
-0.735377 -0.145917 0.0303825
-0.00294489 -0.140878 -0.709171
-0.703801 -0.107838 1.49803
-0.0147327 -0.150955 0.769936
-0.66576 -0.0415965 2.78052
-0.0224021 -0.0647202 2.22612
-0.656913 -0.000641612 3.88112
-0.642061 0.163893 3.31777
0.00738194 -0.0184724 3.33493
-0.65181 0.198936 4.41228
0.0223512 0.0171902 4.42731
-0.744659 0.443123 -3.11887
0.00593391 0.146659 -3.20334
-0.636957 0.36347 3.84893
-0.636502 0.701267 3.24934
0.0237519 0.346258 3.30062
-0.648647 0.741375 4.3592
0.0318114 0.380682 4.39724
-0.748704 1.254 -2.96226
0.00870078 0.73959 -3.03441
-0.648192 1.07917 3.75961
-0.686127 1.61254 3.17841
0.0233362 1.05628 3.19807
-0.679915 1.65285 4.29555
0.0312789 1.10207 4.32116
-0.752812 1.80865 -2.34794
0.0130739 1.76842 -2.89011
-0.763598 1.91895 -1.15458
0.0102637 1.8489 -1.80577
-0.773329 2.04274 0.133558
-0.00411901 1.98901 -0.503386
-0.765744 2.11886 1.42193
-0.0262603 2.09648 0.770503
-0.741789 2.15502 2.61606
-0.0329644 2.14125 2.07335
-0.71785 2.18621 3.71435
-0.0173715 2.1688 3.15876
-7.82823e-05 2.20363 4.26994
0.743224 -0.144472 -2.71688
0.75074 -0.0119662 -3.23614
1.12302 -0.172918 -3.26531
0.735666 -0.129614 -1.43699
1.1139 -0.122199 -2.15951
0.717699 -0.145916 0.0303825
1.10702 -0.137147 -0.709882
0.666666 -0.107838 1.49803
1.06774 -0.145914 0.762816
0.65074 -0.0415961 2.78052
0.989706 -0.0706943 2.21367
0.686646 -0.000640548 3.88112
0.673195 0.163893 3.31777
1.01542 -0.0226349 3.32648
0.705972 0.198937 4.41228
1.04842 0.0153383 4.42243
0.759294 0.443127 -3.11887
1.12862 0.147391 -3.20222
0.692521 0.363471 3.84893
0.68359 0.701268 3.24934
1.01776 0.341703 3.29366
0.711738 0.741377 4.3592
1.05248 0.378889 4.39355
0.770479 1.25401 -2.96226
1.14387 0.750477 -3.04138
0.702808 1.07917 3.75961
0.692092 1.61254 3.17841
1.0354 1.05614 3.19918
0.711116 1.65285 4.29555
1.06031 1.10172 4.3214
0.77615 1.80866 -2.34794
1.1546 1.7761 -2.897
0.769743 1.91896 -1.15458
1.15673 1.85627 -1.81335
0.74295 2.04275 0.133558
1.14233 1.99089 -0.507959
0.706519 2.11887 1.42193
1.09867 2.09434 0.771051
0.691453 2.15503 2.61605
1.05657 2.14014 2.07727
0.700401 2.18622 3.71435
1.05295 2.16867 3.16268
1.06414 2.20366 4.27278
1.4937 -0.150645 -2.70794
1.5009 -0.0135608 -3.23139
1.48525 -0.129731 -1.4324
1.4942 0.0448895 -2.13008
1.45706 -0.137144 0.0225522
1.48891 0.047874 -0.697415
1.39078 -0.108771 1.47846
1.44247 0.0436296 0.751652
1.35439 -0.0517331 2.75963
1.34482 0.106009 2.18635
1.37719 -0.006656 3.86779
1.35998 0.155175 3.30237
1.39493 0.19529 4.4037
1.5014 0.181974 -2.65352
1.51319 0.454742 -3.12472
1.49785 0.222495 -1.39509
1.51389 0.521235 -2.02724
1.47432 0.228648 0.0316852
1.52353 0.58556 -0.64392
1.39651 0.258409 1.45954
1.47333 0.613331 0.740475
1.35041 0.312917 2.72908
1.36006 0.649676 2.12595
1.37772 0.357121 3.83828
1.36957 0.696572 3.2435
1.40106 0.739229 4.35575
1.52568 0.794003 -2.49843
1.52799 1.27257 -2.97611
1.53957 0.8843 -1.27606
1.53288 1.34513 -1.88473
1.52253 0.970243 0.0648703
1.53601 1.46736 -0.558067
1.43687 1.0046 1.40688
[...]
POINT_DATA 29498
VECTORS point_vectors float
-2.6751 -5.60802 7.08978
-0.318679 0.362989 0.967247
-0.665129 0.853349 2.47384
-0.021307 -0.014813 0.0586995
2.67716 -5.60143 7.09517
0.320514 0.36364 0.967809
0.659963 0.853762 2.47089
0.0213873 -0.0145821 0.0582722
-9.37281e-05 0.00111876 0.0411532
0.039499 -0.00519538 0.192755
0 0 0
0 0 0
8.77159e-05 0.00111771 0.0411452
-0.0394079 -0.00520133 0.192126
0 0 0
0 0 0
-0.563773 -0.301854 19.8534
-1.24566 -0.822102 20.5264
-0.324077 -0.419139 21.4007
0.0884676 -0.119356 21.5113
0.68303 0.377328 21.4619
0.920498 0.382265 21.0109
0.818019 0.245863 21.2872
-0.716867 -0.248768 19.7336
-1.77013 -0.712738 20.4958
-0.444416 -0.584085 21.4765
0.0415696 -0.278843 21.5919
1.04242 0.209307 21.4633
1.2477 0.170984 21.2147
1.169 0.220991 21.4824
-0.891996 0.0807608 19.6566
-1.95684 0.103301 20.5472
-1.18345 -0.411386 21.4566
-0.340558 -0.372874 21.7542
0.700976 -0.534514 21.5952
1.08147 -0.618512 21.3768
1.09327 -0.404024 20.3781
-0.604588 0.411557 19.9672
-0.955347 0.635659 20.4504
-0.899827 0.424186 21.1898
-0.321669 0.0279296 21.53
0.144218 -0.285288 21.4627
0.34628 -0.415718 21.2106
0.31199 -0.440455 20.7724
-0.553446 -0.633423 19.2985
-1.66623 -3.31002 20.7438
-0.247232 -0.217595 21.5479
0.0601461 0.070535 21.02
0.119595 1.11052 19.2879
0.376329 1.4947 18.2191
0.870609 0.931784 16.5765
-0.731078 -0.557796 18.9526
0.478282 1.78028 8.73628
1.75892 1.16953 10.6004
-1.14229 0.287691 18.3586
1.25225 0.0266147 7.07334
1.65956 -0.325327 12.9937
-0.535694 0.862409 19.5725
-0.981043 1.5505 20.2038
-1.23419 1.58815 21.3109
-0.379081 0.275452 21.9888
0.0812154 -0.458989 21.568
0.219588 -0.652018 21.1199
0.0111349 -0.456618 21.2477
0.558147 -0.628747 19.3123
1.6634 -3.32031 20.7493
0.252637 -0.215848 21.5083
-0.0479509 0.0723524 20.8763
-0.0557947 1.06756 18.9101
-0.403269 1.50483 18.228
-0.934307 0.875037 16.9808
0.740656 -0.548392 18.9643
-0.655761 1.88085 9.9012
-1.68631 1.05066 12.4052
1.15102 0.283919 18.4076
-1.36279 0.0322416 8.27329
-1.58279 -0.374919 14.6869
0.548458 0.848861 19.5892
0.992436 1.53018 20.2104
1.23394 1.61005 21.3121
0.369593 0.307254 22.0106
-0.0583061 -0.454502 21.6056
-0.200963 -0.65287 21.127
-0.0123568 -0.454041 21.2514
0.570683 -0.296359 19.8453
1.24363 -0.813981 20.5293
0.322923 -0.417277 21.4089
-0.086086 -0.125259 21.5212
-0.687603 0.400538 21.4665
-0.911688 0.377106 21.0376
-0.822338 0.215007 21.133
0.717072 -0.245935 19.741
1.77882 -0.720753 20.4955
0.438997 -0.584873 21.4806
-0.0394442 -0.276383 21.5919
-1.02538 0.201928 21.474
-1.22112 0.185435 21.2598
-1.07762 0.0868485 21.4549
0.886241 0.0771289 19.6684
1.95457 0.104093 20.5498
1.17944 -0.412516 21.4632
0.33941 -0.368478 21.7562
-0.695632 -0.52345 21.5937
-1.01153 -0.575878 21.4209
-0.962184 -0.401748 20.6138
0.600576 0.396499 19.9803
0.950959 0.618729 20.455
0.907595 0.431144 21.1939
0.334105 0.042333 21.5544
-0.138495 -0.300384 21.4758
-0.348278 -0.414075 21.2058
-0.304383 -0.460361 20.7791
-0.810883 0.0203972 0.956165
2.22373e-05 -0.0148209 0.256661
-0.00609926 0.00227011 0.138953
-0.0602374 0.0971202 -0.0850472
1.85077e-05 -0.0691016 -0.0546765
-0.0103842 0.00955588 0.202252
9.79006e-05 0.0387331 0.141597
-0.193875 -0.0674678 0.378153
3.01416e-05 0.0119953 -0.046452
0.0235428 0.0297941 0.107316
0.775908 0.019007 0.914901
0.00601153 0.00225328 0.138745
0.0594119 0.0976488 -0.0849227
0.0103939 0.00955097 0.202125
0.178992 -0.06253 0.350061
-0.0235244 0.0297908 0.106998
0.00284392 8.70252e-05 0.147717
0.00019073 0.00236432 0.0206425
7.22309e-09 -7.97046e-08 -1.64657e-05
0 0 0
0 0 0
0 0 0
1.5911e-05 0.0236606 0.0474706
-8.49208e-06 -0.000780456 0.0341957
-0.00282503 8.57342e-05 0.147527
-0.000191097 0.0023546 0.0206089
0 0 0
0 0 0
7.75633e-05 -0.00113944 0.0101156
-0.000961449 0.0175316 0.0743519
0.000784306 0.00365794 0.0329809
-5.05547e-08 -9.86597e-08 1.91142e-05
1.80695e-10 -3.6166e-08 -3.18292e-05
0 0 0
-9.35412e-06 -0.161119 0.113636
0 0 0
4.11059e-06 0.0024643 0.0179185
0 0 0
-2.79328e-07 0.000213107 -0.00030365
-7.54416e-05 -0.00111908 0.00992592
0.000957307 0.0174624 0.0741319
-0.000769435 0.00361487 0.0325794
-3.54277 -1.99475 20.3859
-2.63013 -5.33139 21.1448
-2.1296 -1.77483 17.7143
1.17732 1.38966 14.3951
-0.394753 1.24848 11.7377
-0.957802 1.34218 5.2255
-3.89775 0.716796 20.6658
-3.60279 1.78784 16.6083
-2.15756 2.52854 20.1206
1.21733 0.141439 15.7715
0.379547 0.558263 3.19972
0.550612 -0.72626 19.1492
2.6386 -5.343 21.1489
2.13489 -1.76009 17.727
3.55159 -2.00849 20.3818
0.454474 1.17862 11.3167
0.793889 1.39526 5.73974
-1.19868 1.36553 14.578
3.598 1.76191 16.6852
2.16423 2.49783 20.1247
3.89295 0.714575 20.6683
-0.475689 0.509088 3.77736
-0.594318 -0.719539 18.4072
-1.20876 0.124625 16.0376
0.0933893 -0.623635 20.1998
-0.12661 0.161395 16.7054
-0.0497543 -0.100011 18.5622
0.355563 -0.00218109 15.812
-2.10674 -1.18752 21.4994
-3.636 2.22554 21.4479
-0.427043 -0.354391 19.7438
-0.501487 0.253212 20.8119
0.126946 0.158605 16.6261
-0.0958486 -0.624138 20.1895
-0.367762 0.000150791 15.4998
0.0481886 -0.104934 18.6082
3.64518 2.25903 21.4401
2.107 -1.18933 21.5015
0.458879 0.270096 20.5955
0.43167 -0.359068 19.7742
-0.953357 -0.569069 19.9875
-0.666136 -0.290801 19.808
-0.61586 -0.460919 19.5908
-0.806611 -0.66545 21.2435
-1.51277 -0.811108 20.5109
-1.69024 -1.71732 20.5315
-0.0681017 -0.249415 21.4375
-0.386331 -0.514436 21.4393
-0.159355 -0.386653 21.5957
0.361543 0.110661 21.6304
0.0792908 -0.19952 21.5531
0.139548 -0.052159 21.5662
0.793787 0.447936 21.2855
0.86365 0.359484 21.4518
0.665777 0.877926 21.1118
1.03567 0.367908 20.483
1.11275 0.296713 21.1796
1.06782 1.14136 21.2999
0.950835 0.206313 21.5032
0.872698 0.894248 21.3402
-1.28587 -0.4573 19.8589
-0.835245 -0.115674 19.6489
-0.806249 -0.423266 19.3784
-1.09044 -0.711289 21.3934
-2.01458 -0.310674 20.5397
-0.112992 -0.431542 21.5295
-0.822167 -0.634277 21.4735
0.476664 -0.0565996 21.7498
-0.113924 -0.404941 21.7254
1.18502 0.261238 21.2346
1.07762 -0.2447 21.34
1.48562 0.124825 20.2272
1.36413 -0.262819 21.3259
1.40531 1.32171 17.092
1.3845 -0.330307 20.4731
1.46636 0.690264 16.6365
-1.58689 0.170968 19.8364
-0.802274 0.341526 19.772
-1.09613 0.153033 19.1605
-1.56905 -0.215789 21.1851
-1.45262 0.572243 20.4426
-0.754967 -0.436212 21.6755
-1.27276 0.164323 21.3163
0.180048 -0.380387 21.8438
-0.429141 -0.0954595 21.7096
0.935076 -0.591619 21.382
0.319203 -0.440478 21.5481
1.05699 -0.545926 21.2144
0.556953 -0.587319 21.0582
1.53722 -0.508706 17.7862
0.406172 -0.521533 21.1307
1.46147 -0.549433 18.9206
-0.803213 0.583929 20.1622
-0.629818 0.621933 19.7768
-0.994832 0.556543 20.8361
-1.06705 1.03123 20.3496
-0.65063 0.252999 21.4685
-1.13687 0.862146 21.279
-0.0498444 -0.157232 21.4964
-0.377831 0.14098 21.7656
0.243922 -0.402081 21.2593
0.127645 -0.382182 21.5158
0.264348 -0.391701 21.1356
0.305169 -0.546684 21.0034
0.101727 -0.404338 21.1692
-1.15589 -1.64898 19.0939
-0.639768 -0.597037 19.1292
-0.00032589 -0.845092 18.9872
-0.605293 -1.03816 22.1433
-0.00481403 -4.50151 21.4073
-0.101094 -0.00946797 21.1241
-0.00276428 -0.432715 21.1347
0.168692 0.566935 20.2619
-0.00348155 -0.0252989 19.5527
0.20338 1.2254 19.184
-0.0148929 0.474079 16.4949
0.242368 1.55107 19.406
0.450279 1.89445 14.9399
0.00199409 0.847323 15.4107
1.19416 1.05603 13.9246
-0.0778253 1.36327 14.5557
-1.05661 -0.20365 18.526
0.00728554 -0.788658 18.461
1.3117 1.68786 9.73007
1.61527 0.755066 4.78679
0.0829687 -0.191935 -1.55198
2.05855 0.499714 9.67746
-0.1194 0.615777 7.0499
-0.895711 0.922244 18.9722
0.0204437 0.49583 17.3815
1.65346 -0.50648 9.08619
0.673017 -1.1209 19.1514
-0.0770091 -0.778373 -0.895336
0.582503 -1.02498 18.9476
-0.040402 -2.0654 1.95484
-0.80918 1.31588 19.7898
0.0135697 1.10499 19.3547
-1.14714 1.61031 20.6413
0.0183795 2.14609 20.0598
-0.850204 0.967634 21.9264
-0.0121626 2.68596 21.2797
-0.0672461 -0.204199 21.8013
-0.0156424 0.527269 22.2537
0.155697 -0.598515 21.4587
0.00408679 -0.451447 21.7069
0.243542 -0.880484 20.8497
0.00500014 -0.815287 21.2022
0.00222179 -0.961077 21.1501
1.15547 -1.6455 19.1055
0.646958 -0.590109 19.142
0.621035 -0.458368 19.5853
0.607761 -1.03643 22.1438
1.7043 -1.72856 20.53
0.112775 -0.0157963 21.0584
0.164556 -0.382753 21.5956
-0.134774 0.559223 20.1417
-0.136285 -0.0437815 21.5456
-0.175194 1.20737 19.0358
-0.641979 0.919713 21.0823
-0.306922 1.48565 19.5729
-0.565706 1.955 15.6953
-1.07833 1.12876 21.261
-1.3017 0.947698 14.2763
-0.852549 0.829107 21.8005
1.07753 -0.202835 18.5499
0.811361 -0.424235 19.3861
-1.34061 1.59173 10.8056
-1.75403 0.915415 5.89054
-1.43225 1.15194 17.6506
-1.97012 0.441075 11.3872
-1.41665 0.606811 17.5111
0.904367 0.90116 19.0012
1.09436 0.152584 19.1854
-1.58704 -0.532136 10.8597
-0.668936 -1.1144 19.2266
-1.46883 -0.518112 18.3569
-0.559433 -1.00277 19.116
-1.4479 -0.500258 19.1388
0.821404 1.30212 19.7967
0.635568 0.604972 19.7915
1.1503 1.60001 20.6436
1.06529 1.00471 20.3571
0.842016 1.01345 21.9487
1.1397 0.873494 21.2802
0.0739302 -0.194251 21.8097
0.385724 0.160538 21.7895
-0.136396 -0.60307 21.4717
-0.122136 -0.388616 21.4985
-0.242552 -0.884048 20.85
-0.301814 -0.551457 20.9973
-0.0985854 -0.401326 21.1821
0.948185 -0.570998 19.9923
0.667588 -0.282642 19.816
0.803482 -0.662298 21.259
1.52034 -0.804535 20.5003
0.0634149 -0.253483 21.441
0.386188 -0.514874 21.4433
-0.36426 0.111761 21.6338
-0.0818913 -0.200048 21.5568
-0.787244 0.452338 21.291
-0.865307 0.36196 21.4432
-1.00108 0.36234 20.5238
-1.09078 0.291551 21.2296
-0.964845 0.168409 21.3287
1.28959 -0.46522 19.8517
0.825377 -0.106773 19.6677
1.09389 -0.716808 21.3943
2.03428 -0.309219 20.5629
0.115256 -0.425248 21.5299
0.821185 -0.632307 21.4815
-0.470019 -0.0572784 21.7522
0.117734 -0.402527 21.727
-1.16083 0.233922 21.2996
-1.05546 -0.245077 21.3661
-1.40083 0.146541 20.4166
-1.29784 -0.267215 21.3191
-1.25797 -0.325682 20.7292
1.56509 0.171832 19.844
0.79248 0.3312 19.7882
1.57298 -0.222624 21.19
1.43749 0.559051 20.4418
0.753924 -0.435931 21.6745
1.27973 0.160835 21.3213
-0.177532 -0.376968 21.8389
0.436443 -0.0936954 21.7343
-0.922139 -0.556319 21.4041
-0.319685 -0.450014 21.5656
-1.00399 -0.530601 21.1727
-0.560389 -0.579127 21.0911
-0.424194 -0.507953 21.1536
0.79548 0.569547 20.1718
0.992466 0.552263 20.8392
0.66062 0.263741 21.4792
0.0444023 -0.161735 21.5322
-0.229325 -0.399267 21.2445
-0.238117 -0.396135 21.1402
-1.12962 -0.545545 19.933
-1.59893 -1.87132 18.5304
-1.23762 -1.05193 19.5887
-1.86305 -0.931943 19.1104
-0.729964 -0.463502 19.4915
-2.45673 -2.00957 20.5063
-0.957144 -0.718702 21.3201
-0.404373 -0.410091 18.7282
-0.740021 -0.985813 21.6644
-1.02353 -1.30178 22.0512
-0.00351058 -0.451533 21.429
-0.0815457 -0.340327 21.49
0.000826327 0.168676 15.9868
0.039023 -0.15992 21.5357
0.28246 -0.210075 19.1714
0.164361 -0.121734 20.8093
0.426086 0.0448723 21.7042
0.154438 0.560919 13.9394
0.412738 0.381031 21.5506
0.407762 0.562906 16.8901
0.92573 1.18947 19.1078
1.02371 0.40977 21.2552
-0.243742 1.40154 12.8826
0.813522 1.0104 20.9536
1.28171 1.33453 15.6839
1.06989 1.34961 18.6838
1.3797 0.282953 20.1104
0.525274 1.6197 14.5371
0.909019 1.04909 21.594
1.62872 1.0697 18.5216
1.14103 0.732594 18.5268
-1.53934 -0.211834 19.7782
-3.18246 -0.470926 16.5282
-2.53424 0.548238 18.9476
-1.04386 -0.14865 19.1601
-4.5169 -0.561755 20.5168
-1.39773 -0.533828 21.3346
-2.61183 -0.586736 21.5925
-0.529849 -1.45718 20.2781
-0.397946 -0.563371 21.6358
-1.14699 -0.980012 20.5596
-0.0163567 0.170322 17.6197
0.401906 -0.296712 21.7922
0.491403 0.303237 17.8976
1.34852 0.670778 12.6682
1.28878 -0.201229 21.0265
-0.114835 1.33147 1.78589
1.30101 -0.113449 16.8665
2.12507 0.570691 14.7314
1.41771 -0.382072 20.8764
2.03996 0.702529 7.80783
1.68191 -0.616381 18.374
1.73764 0.0890998 16.0443
-1.19779 0.538239 19.9782
-1.65419 1.99245 19.0589
-0.878736 0.91096 19.9856
-0.891773 0.549509 19.4373
-2.00206 1.26508 20.3282
-1.44668 0.35545 20.9219
-2.52397 2.07855 20.4401
-1.18214 1.01106 20.7696
-2.12693 0.59168 21.4806
-0.883916 0.0191194 21.6292
-2.27439 0.825643 22.3021
-0.815451 0.51674 21.681
-0.610836 -0.014136 22.0771
0.00608897 -0.262252 21.7109
0.384026 -0.378672 19.9077
-0.0616505 -0.1742 21.6485
0.326326 -0.640443 21.7231
0.472307 -0.534713 21.4075
0.557 -0.895704 19.5559
0.218196 -0.489178 21.3183
0.521626 -0.892911 21.6584
0.720711 -0.503118 20.8371
0.557066 -1.1725 18.9779
0.249125 -0.566122 21.3059
0.452289 -0.776642 20.4106
1.60502 -1.86305 18.5407
0.000419658 -2.49886 18.4665
0.0136314 -3.10016 15.7798
0.000926054 -0.92953 18.6675
0.00237084 -6.32913 23.3548
0.408331 -0.4091 18.6564
-0.00315497 -1.29828 22.487
-0.00129106 -0.0469081 12.6219
-0.00170298 0.160425 15.8163
-0.00369453 -0.206803 20.0784
0.00208205 0.033372 11.9593
-0.134959 0.540816 13.6042
-0.00293033 0.337069 18.0091
-0.0380432 0.210841 6.87403
0.217913 1.41268 12.9708
-0.00415811 0.231322 15.765
0.0592412 -1.71641 -3.48244
0.0539395 1.00734 6.53502
-0.62675 1.52747 14.7687
0.0200242 1.46531 14.7555
0.0708121 -1.23171 -1.21855
-0.1031 1.36197 11.7079
3.18439 -0.462726 16.5654
0.0283084 4.22648 12.8883
0.00703621 -0.277632 17.7007
0.0519725 1.36182 2.22823
-0.0104579 0.125869 -0.805864
-0.108189 -1.20785 -4.55248
-2.0351 0.84504 8.69399
-0.0857303 -1.59561 -0.211061
-0.118909 -0.67308 2.5596
1.6634 1.95442 19.0868
0.0167982 1.78143 19.5917
0.01865 1.35227 18.4276
0.0163983 3.89024 19.8463
2.52556 2.06617 20.4445
0.00681426 2.38287 20.4174
-0.00923411 5.75803 20.5062
2.30347 0.842972 22.1228
-0.0258879 1.68388 22.2643
-0.0143047 0.470972 19.4201
-0.43789 -0.414494 19.5389
-0.00581808 -0.140915 21.9615
-0.00102589 -0.534441 12.5157
-0.558337 -0.898819 19.3644
0.00759551 -0.627368 21.5496
0.00103924 -0.967821 15.3281
-0.561977 -1.15362 19.1002
0.00257065 -0.566495 21.0672
-0.0193658 -1.05081 17.2479
1.12889 -0.547868 19.933
1.2413 -1.05334 19.5915
1.8559 -0.926055 19.1217
0.73364 -0.46281 19.4874
2.47045 -2.02133 20.5003
0.952094 -0.708266 21.3318
0.745305 -0.983127 21.6662
1.02097 -1.30397 22.0435
0.00559171 -0.444417 21.4162
0.0801612 -0.340141 21.4938
-0.0347336 -0.15116 21.5294
-0.282158 -0.214278 19.189
-0.16112 -0.118413 20.7592
-0.427455 0.0494241 21.7087
-0.399361 0.409376 21.4947
-0.41392 0.552019 17.0068
-0.891412 1.22235 18.8601
-1.01573 0.394001 21.2679
-0.806894 1.02889 20.9527
-1.31241 1.23931 16.4361
-1.08828 1.23253 19.0574
-1.3176 0.28127 20.2309
-0.941363 1.00394 21.6816
-1.7061 0.964419 19.5351
-1.10177 0.660288 19.286
1.53578 -0.198319 19.7921
2.5129 0.537731 18.9773
1.04333 -0.146594 19.1822
4.52795 -0.56407 20.5158
1.40606 -0.537802 21.3369
2.60899 -0.58858 21.5919
0.529682 -1.45984 20.2745
0.401981 -0.562451 21.6406
1.15034 -0.979633 20.5807
0.0156697 0.15461 17.6885
-0.39552 -0.294128 21.8021
-0.483816 0.270211 18.0512
-1.35251 0.665388 12.9787
-1.24798 -0.239817 21.1976
-1.29018 -0.174504 17.611
-2.02116 0.446272 15.8153
-1.30571 -0.334727 21.0545
-1.63861 -0.546078 19.0292
-1.68667 0.00820741 16.9311
1.18275 0.518043 19.9947
0.880931 0.88467 19.9968
0.893836 0.538796 19.4567
1.9886 1.23667 20.3313
1.44323 0.357485 20.9275
1.18159 1.0037 20.7705
2.13738 0.600402 21.4816
0.901178 0.0182669 21.6373
0.822398 0.546344 21.696
0.624749 -0.00471703 22.1017
-0.00810151 -0.266402 21.73
0.0684299 -0.174088 21.6646
-0.323087 -0.655548 21.7346
-0.473966 -0.54405 21.3795
-0.214886 -0.504007 21.3381
-0.521232 -0.885795 21.6408
-0.715493 -0.50325 20.8344
-0.249943 -0.571339 21.3102
-0.439284 -0.749372 20.5085
-1.48598 -1.07821 19.4224
-0.8115 -1.12994 21.9534
0.182213 -0.153272 21.0116
0.53443 0.440231 20.1892
1.02889 1.24654 19.1828
1.24454 0.994765 19.5901
-2.47235 -0.293746 18.817
-1.61303 -1.26408 21.8415
0.018113 -0.735118 18.5866
0.507323 0.733615 16.2207
1.48289 0.63666 13.765
1.94138 0.359665 15.1464
-1.57189 1.05792 19.5989
-2.09404 0.879685 20.8645
-1.40301 0.208513 22.0113
1.35047e-06 -0.334851 21.9826
0.47754 -0.76999 21.4499
0.680219 -0.871397 21.2465
0.00249607 -3.01901 17.4561
-0.00183038 -0.446349 14.9504
-0.000472264 -0.012712 11.9197
-0.000316205 0.302362 9.95804
0.0138275 -0.704601 5.24373
0.0547014 0.605575 6.16088
0.0229737 -0.810645 12.8038
0.0231617 -0.956134 -3.50642
-0.20733 -1.13448 0.274459
0.0193341 3.2525 18.406
0.00527482 3.70615 19.6583
-0.0235169 2.76832 21.2406
0.000717361 -0.385621 15.0593
-0.00150342 -0.734263 14.2611
-0.0121933 -1.40529 16.1897
1.49569 -1.07933 19.4136
0.812317 -1.13303 21.9545
-0.17962 -0.144579 20.9787
-0.524862 0.455528 20.0477
-1.03912 1.22112 19.2702
-1.30734 0.91052 20.3627
2.45858 -0.294926 18.8502
1.6118 -1.26726 21.8338
-0.0156208 -0.741743 18.6171
-0.512096 0.710278 16.3823
-1.50577 0.554018 14.7035
-1.8688 0.235731 16.2148
1.56173 1.02328 19.6181
2.08744 0.875518 20.8651
1.42971 0.223993 22.0272
0.00332927 -0.339197 22.0239
-0.477421 -0.772816 21.4555
-0.709252 -0.847096 21.1907
-1.05081 -0.194816 0.712462
-0.00583617 -0.0459593 0.326667
-0.0261602 0.00530918 0.262898
-0.0472429 0.0365678 -0.0206301
-0.108667 -0.00262772 0.00856565
-0.0778085 0.0898777 0.39353
-0.105732 -0.00120508 0.157235
-0.0358604 0.0856979 0.293327
-0.704123 -0.0345987 1.55863
-0.00922257 0.0038108 -0.00840785
0.00739629 0.0234134 -0.0424952
0.0054938 -0.00291337 0.0793375
0.00561494 -0.0458998 0.327545
1.01855 -0.187911 0.689647
0.0258393 0.0052044 0.262014
0.108924 -0.00268979 0.00863605
0.0470638 0.0365967 -0.0204353
0.0772872 0.089266 0.390937
0.0358482 0.0854047 0.292696
0.112464 -0.00132986 0.16713
0.701357 -0.0351925 1.55461
-0.00754381 0.0233925 -0.0425363
0.0084261 0.00336004 -0.00766756
-0.00554925 -0.00274601 0.078833
-0.0116798 0.0114132 0.135731
0.00220183 0.000156053 0.0976811
0 0 0
0 0 0
-0.00850861 0.00924276 0.236266
0.00837129 -0.000161286 0.210277
0 0 0
0 0 0
-0.138928 -0.0872165 0.341429
0.000868618 0.00848344 0.0595509
0 0 0
-0.0727493 0.071677 0.1684
0 0 0
0.00304719 0.0115363 0.0216145
0 0 0
0.0242049 0.000725648 0.134582
0.0116405 0.0113919 0.135548
0 0 0
-0.0021942 0.00015444 0.0975072
0 0 0
0.00857423 0.00923766 0.236031
0 0 0
-0.00834323 -0.000159298 0.210134
0 0 0
0.128117 -0.08033 0.314718
0.0729788 0.0724256 0.168874
-0.000860198 0.00850056 0.059799
8.16622e-18 -1.63485e-17 -7.01136e-17
0 0 0
-0.0242086 0.000743723 0.134323
-0.00257628 0.013598 0.0240385
4.00861e-18 -8.8507e-18 -2.71642e-17
-0.000253192 -0.000678162 0.00682224
-0.294047 0.113629 0.182894
4.12285e-07 9.0662e-07 -5.32684e-05
4.25444e-05 -0.177142 0.0423176
1.54697e-05 -3.9429e-05 0.00376193
-9.57606e-08 4.61021e-08 -5.34153e-06
0.0070163 0.00567504 0.0554259
0 0 0
0 0 0
0.000101362 -0.0970725 -0.102257
-1.81675e-07 -1.98408e-06 -1.96197e-05
0 0 0
0.000220614 0.0979717 0.0554011
1.34013e-05 0.00906183 0.0459311
-0.00299712 -0.00970664 0.0358056
-0.00428831 0.000561372 0.00841212
-6.67652e-06 0.00355479 -0.000621414
0 0 0
0 0 0
-0.000473269 -0.000126346 0.000234907
0.287919 0.111275 0.180162
0.000253372 -0.00068087 0.00682624
2.60377e-08 1.2938e-08 -1.48836e-06
-1.46932e-05 -3.71098e-05 0.00359343
0 0 0
-0.00711123 0.00575298 0.0562123
0 0 0
8.85829e-07 -9.67561e-06 -9.5742e-05
0.00428021 0.000561703 0.008405
0.00324224 -0.010498 0.0387257
0.000467328 -0.000118338 0.000208261
0 0 0
-0.000763775 0.0115744 0.0680544
0 0 0
0 0 0
-0.00204813 0.0194466 0.0790278
0 0 0
2.01041e-08 -5.1497e-08 -2.07953e-05
-0.000834742 0.0227433 0.053289
-0.000104248 0.0085647 0.0610376
-4.94082e-10 1.71122e-08 2.89731e-05
0 0 0
0.00356839 0.0198763 0.0595946
-0.0435165 0.045169 0.772503
2.53137e-05 0.00374709 0.0123264
9.13386e-06 0.000921069 0.00354658
-5.47781e-06 0.000280753 0.0212763
-5.07853e-05 -0.00385773 0.0190205
0 0 0
0.000763792 0.0115744 0.0681051
-6.39372e-18 -8.52257e-18 1.2752e-16
0.00204475 0.0194225 0.0790136
0.000834708 0.0227435 0.0532714
0.000102528 0.00853881 0.0608875
0.0434446 0.0453713 0.773135
-0.00356067 0.0198238 0.0595755
-5.31976e-05 -8.80342e-05 0.000867329
-0.155284 -0.176431 0.751873
0 0 0
0.000609701 -0.00137824 0.0210999
-8.8436e-05 0.00227345 0.0146787
0.000587325 0.0182175 0.062099
-0.00391558 0.0212972 0.117685
0.0339053 0.15763 0.39402
-2.34747e-06 2.29318e-05 0.000311071
0.00560235 0.0389206 0.141703