# vtk DataFile Version 2.0
tri_press
ASCII
DATASET UNSTRUCTURED_GRID
POINTS 3682 float
-0.745057 0.035 -1.975
-0.73786 0.125 1.875
-0.762944 0.595 -1.785
-0.735 0.785 1.80607
0.745057 0.035 -1.975
0.737858 0.125 1.875
0.76294 0.595 -1.785
0.735 0.785 1.80606
-0.759738 0.0479197 -0.691667
-0.793847 0.0414121 0.591667
-0.77095 0.675654 -0.587977
-0.795627 0.772979 0.609047
0.75975 0.0479077 -0.691667
0.793847 0.0414105 0.591667
0.770936 0.675642 -0.58798
0.795611 0.772965 0.60904
-1.51165 -0.321862 -3.01307
-1.51273 -0.284666 -2.02097
-1.53038 -0.277098 -0.735404
-1.55379 -0.283802 0.567533
-1.52808 -0.232889 1.85456
-1.5173 -0.187265 2.85382
-1.51903 -0.147786 3.83982
-1.51132 -0.0167838 -2.9491
-1.51202 0.0280926 -1.96643
-1.53275 0.0521868 -0.697656
-1.55899 0.0566236 0.578885
-1.51254 0.108162 1.84931
-1.50643 0.152986 2.84736
-1.51359 0.191621 3.83617
-1.51917 0.573966 -2.79693
-1.52505 0.615818 -1.81069
-1.54196 0.689614 -0.60076
-1.56154 0.761505 0.603058
-1.51171 0.787107 1.81464
-1.5063 0.82855 2.81626
-1.51415 0.86877 3.81899
-1.53009 1.51273 -2.63358
-1.53485 1.56591 -1.66026
-1.54385 1.66016 -0.478317
-1.55325 1.75658 0.685027
-1.54853 1.81669 1.86788
-1.5399 1.85145 2.84307
-1.53544 1.88597 3.83638
-0.750015 -0.317377 -3.01864
-0.748898 -0.277902 -2.02909
-0.758583 -0.278432 -0.734315
-0.783972 -0.293747 0.578443
-0.766113 -0.22654 1.87364
-0.756688 -0.182475 2.86677
-0.757727 -0.145641 3.84731
-0.749057 -0.0154322 -2.95081
-0.746151 0.15887 2.85803
-0.753013 0.19405 3.84182
-0.755232 0.56527 -2.78626
-0.745882 0.829828 2.81454
-0.753564 0.870084 3.81862
-0.763172 1.50435 -2.62302
-0.766038 1.55675 -1.64864
-0.771398 1.65595 -0.47131
-0.781826 1.75998 0.684184
-0.783106 1.82022 1.86187
-0.77616 1.85343 2.83707
-0.771644 1.88729 3.83202
0.761147 -0.31738 -3.01864
0.755915 -0.277906 -2.02909
0.769055 -0.278441 -0.734315
0.779819 -0.29375 0.578442
0.744404 -0.226542 1.87363
0.751617 -0.182477 2.86676
0.75873 -0.145644 3.84731
0.760193 -0.0154349 -2.95081
0.751215 0.158869 2.85802
0.759202 0.194047 3.84181
0.765185 0.565268 -2.78626
0.750028 0.829826 2.81453
0.758317 0.870081 3.81861
0.768672 1.50435 -2.62303
0.769735 1.55674 -1.64864
0.773189 1.65594 -0.471314
0.766898 1.75997 0.684179
0.752004 1.82021 1.86186
0.75111 1.85343 2.83707
0.754623 1.88729 3.83201
1.52038 -0.321872 -3.01307
1.51659 -0.284677 -2.02097
1.53494 -0.277116 -0.735406
1.55266 -0.283812 0.567529
1.52015 -0.232895 1.85456
1.51556 -0.18727 2.85382
1.52082 -0.147793 3.83982
1.51851 -0.0167918 -2.9491
1.51114 0.0280836 -1.96643
1.53122 0.0521676 -0.697658
1.56043 0.0566124 0.578881
1.51693 0.108158 1.8493
1.51267 0.152981 2.84735
1.5198 0.191614 3.83616
1.52493 0.573958 -2.79693
1.52332 0.615809 -1.81069
1.53959 0.689594 -0.600765
1.5622 0.761485 0.603048
1.51542 0.787101 1.81463
1.5114 0.828544 2.81625
1.51884 0.868763 3.81898
1.53436 1.51272 -2.63358
1.53692 1.56589 -1.66027
1.54341 1.66014 -0.478324
1.54057 1.75656 0.685018
1.52423 1.81668 1.86787
1.51891 1.85144 2.84306
1.52013 1.88596 3.83637
-0.730408 0.315 -1.85641
0 0.0313496 -1.97865
-0.760994 0.0328637 -1.33333
-0.741226 0.455 1.84533
-1.01328e-06 0.203668 1.79633
-0.789423 0.0596361 1.23333
-1.99676e-06 0.690498 -1.8805
-0.821076 0.689456 -1.18649
0 0.865281 1.88635
-0.775885 0.789561 1.20756
0.730409 0.315 -1.85641
0.760994 0.032863 -1.33333
0.741212 0.455 1.84531
0.789435 0.0596232 1.23333
0.821076 0.689459 -1.18649
0.775853 0.78953 1.20755
-0.769763 0.0516951 -0.05
-0.788349 0.361787 -0.639822
5.63721e-06 0.0314454 -0.691667
-0.835339 0.407196 0.600357
1.01563e-07 0.0316647 0.591667
-0.779062 0.72009 0.010535
-7.37727e-06 0.913237 -0.587978
-8.12558e-06 1.14906 0.609043
0.769755 0.0517021 -0.05
0.788764 0.361775 -0.639823
0.835335 0.407188 0.600353
0.77906 0.72009 0.01053
-0.885167 0.338394 -1.25991
0.885173 0.338388 -1.25991
2.81861e-06 0.0305377 -1.33333
-4.68701e-06 0.878849 -1.18649
-9.98378e-07 0.315 -2.07135
-0.778567 0.384491 -0.0197325
0.778566 0.384481 -0.019735
2.86939e-06 0.0315552 -0.05
-7.75142e-06 1.15809 0.0105325
-0.887998 0.431098 1.22045
0.887995 0.431094 1.22044
-4.55858e-07 0.0509914 1.23333
-4.06279e-06 1.01076 1.20755
-5.06639e-07 0.455 2.10655
-0.672029 0.175 -1.85
-0.372528 0.0313641 -1.97864
-0.713548 0.0734094 -1.65417
-0.738406 0.29 1.85903
-0.368931 0.199206 1.80079
-0.773072 0.0828875 1.55417
-0.692503 0.455 -1.76653
-0.381473 0.661592 -1.85159
-0.805203 0.655421 -1.48574
-0.762758 0.62 1.85035
-0.3675 0.841867 1.86293
-0.758471 0.790309 1.50681
0.372528 0.0313601 -1.97864
0.672027 0.175 -1.85
0.714271 0.0726865 -1.65417
0.368928 0.193989 1.80601
0.738399 0.29 1.85902
0.773034 0.0829244 1.55417
0.381469 0.661843 -1.85184
0.692442 0.455 -1.76647
0.805198 0.655419 -1.48575
0.3675 0.842043 1.86311
0.762999 0.62 1.85058
0.758439 0.790278 1.5068
-0.767772 0.0329854 -1.0125
-0.762637 0.051921 -0.370833
-0.878745 0.152503 -0.665744
-0.383258 0.0328994 -0.691667
-0.79139 0.0507693 0.9125
-0.777279 0.05108 0.270833
-0.824289 0.219456 0.596012
-0.398548 0.0332898 0.591667
-0.828964 0.715506 -0.887233
-0.78477 0.521281 -0.613899
-0.771502 0.694368 -0.288721
-0.426528 0.876543 -0.587978
-0.787984 0.783498 0.908303
-0.825076 0.594884 0.604702
-0.790761 0.749951 0.309791
-0.474823 1.11503 0.609045
0.767773 0.0329844 -1.0125
0.383266 0.0328992 -0.691667
0.762636 0.051921 -0.370833
0.878745 0.152597 -0.665745
0.791381 0.0507763 0.9125
0.398548 0.0332895 0.591667
0.777278 0.0510796 0.270833
0.824284 0.219452 0.59601
0.828962 0.715507 -0.887235
0.4263 0.876112 -0.587979
0.784763 0.521166 -0.613902
0.771489 0.694357 -0.288725
0.787973 0.783488 0.908295
0.474784 1.11498 0.609042
0.825077 0.594878 0.604697
0.790811 0.750003 0.309785
-0.87648 0.326697 -1.55816
-0.365205 0.315 -2.04362
1.4093e-06 0.0314008 -1.65599
-4.99189e-07 0.173175 -2.00647
-0.87409 0.185629 -1.29662
-0.380495 0.0305511 -1.33333
-0.802115 0.443049 1.53289
-0.370613 0.455 2.05939
-7.34568e-07 0.0857547 1.51483
-7.59959e-07 0.329334 2.07012
-0.870833 0.245367 1.22689
-0.394712 0.0509853 1.23333
-3.34188e-06 0.809181 -1.53349
-1.49757e-06 0.502749 -1.97252
-0.894078 0.513925 -1.2232
-0.41054 0.787747 -1.18649
-2.03139e-06 0.892541 1.54695
-2.5332e-07 0.660141 1.94121
-0.884352 0.610329 1.214
-0.387945 0.979265 1.20756
0.876477 0.326694 -1.55816
0.365204 0.315 -2.04362
0.874082 0.185625 -1.29662
0.380498 0.030551 -1.33333
0.802103 0.443047 1.53288
0.370606 0.455 2.05939
0.870873 0.245359 1.22689
0.394717 0.0509855 1.23333
0.894077 0.513923 -1.2232
0.410536 0.78849 -1.18649
0.884337 0.610312 1.214
0.387925 0.979158 1.20755
-0.770458 0.219947 -0.0348663
-0.389156 0.0330742 -0.05
-0.887584 0.35009 -0.949866
-0.781301 0.373139 -0.329777
4.22791e-06 0.0305958 -1.0125
4.2533e-06 0.0314985 -0.370833
-0.777162 0.395844 0.290312
-0.890459 0.419147 0.910401
1.48548e-06 0.0316168 0.270833
-1.77147e-07 0.0379214 0.9125
-0.781839 0.553803 -0.00459875
-0.485867 1.13175 0.0105338
-6.03214e-06 0.888885 -0.887234
-7.56435e-06 1.0648 -0.288723
-7.9385e-06 1.17099 0.309788
-6.09418e-06 1.09457 0.908299
0.770455 0.219945 -0.0348675
0.389157 0.0330738 -0.05
0.88759 0.350081 -0.949868
0.781325 0.373128 -0.329779
0.777171 0.395834 0.290309
0.890451 0.419141 0.910398
0.781835 0.553797 -0.00460251
0.48581 1.13166 0.0105312
-0.862607 0.180314 -1.60616
-0.880357 0.195241 -0.981183
-0.881157 0.516323 -0.918549
-0.886256 0.484462 -1.52195
0.862565 0.180313 -1.60616
0.886256 0.484462 -1.52195
0.881127 0.516316 -0.918551
0.880365 0.195233 -0.981184
-0.376512 0.0314966 -1.65508
0.376513 0.0314965 -1.65508
0.380188 0.0306076 -1.0125
-0.380181 0.0306077 -1.0125
-0.396007 0.742738 -1.50962
-0.39801 0.81296 -0.887233
0.398 0.814752 -0.887234
0.396002 0.742557 -1.50962
-0.368867 0.174087 -1.96953
-0.373339 0.478874 -1.93413
0.373336 0.478874 -1.92913
0.368866 0.174087 -1.96953
-0.768729 0.214161 -0.350305
-0.773774 0.231501 0.280573
-0.776539 0.560884 0.300052
-0.783539 0.537659 -0.309249
0.768737 0.214202 -0.350306
0.783541 0.537602 -0.309252
0.776524 0.560871 0.300047
0.773769 0.231499 0.280571
-0.38621 0.0329814 -0.370833
0.386214 0.0329812 -0.370833
0.39384 0.0332066 0.270833
-0.393839 0.0332066 0.270833
-0.468655 1.02906 -0.288722
-0.490956 1.14461 0.309789
0.490893 1.14451 0.309787
0.468645 1.02906 -0.288724
-0.877341 0.234835 0.911451
-0.794501 0.267684 1.54353
-0.806442 0.615165 1.51985
-0.885373 0.600209 0.909352
0.87734 0.234829 0.911449
0.885451 0.600194 0.909346
0.805616 0.615156 1.51984
0.794515 0.267679 1.54352
-0.395818 0.0379199 0.9125
0.39582 0.03792 0.9125
0.381823 0.0930373 1.5345
-0.381821 0.0930373 1.5345
-0.392881 1.06873 0.908301
-0.377722 0.879552 1.52688
0.377712 0.879624 1.52688
0.392863 1.06448 0.908297
-0.369772 0.309667 2.01264
0.369767 0.309667 2.01276
0.369053 0.64007 1.92226
-0.369057 0.64007 1.92229
-0.676993 0.105 -1.88095
-0.558793 0.031329 -1.97867
-0.750649 0.0328579 -1.81458
-0.745374 0.2075 1.87426
-0.553395 0.203645 1.79636
-0.753769 0.105641 1.71458
-0.723307 0.525 -1.77135
-0.572208 0.626408 -1.81641
-0.790609 0.631746 -1.63537
-0.750085 0.7025 1.82941
-0.55125 0.818045 1.83911
-0.748179 0.789098 1.65644
0.558793 0.0313251 -1.97867
0.676992 0.105 -1.88095
0.750649 0.0328581 -1.81458
0.553393 0.203693 1.79631
0.745358 0.2075 1.87424
0.753443 0.105965 1.71458
0.572204 0.626393 -1.81639
0.723307 0.525 -1.77135
0.790633 0.631774 -1.63537
0.55125 0.818109 1.83917
0.750182 0.7025 1.8295
0.748176 0.789095 1.65643
-0.771068 0.0331397 -0.852083
-0.759555 0.051553 -0.53125
-0.868707 0.0754784 -0.678706
-0.574667 0.0340716 -0.691667
-0.775496 0.0632127 0.752083
-0.781445 0.0503636 0.43125
-0.870232 0.0998521 0.593839
-0.596986 0.0357741 0.591667
-0.82985 0.725473 -0.737605
-0.783971 0.601523 -0.600938
-0.771992 0.685777 -0.438349
-0.632295 0.843212 -0.587977
-0.792353 0.778786 0.758675
-0.826048 0.69178 0.606874
-0.795253 0.763524 0.459419
-0.638733 0.951022 0.609046
0.771069 0.0331385 -0.852083
0.574674 0.034072 -0.691667
0.759554 0.051553 -0.53125
0.8687 0.0755263 -0.678706
0.774838 0.0638699 0.752083
[...]
POINT_DATA 3682
SCALARS point_scalars float 1
LOOKUP_TABLE default
-96.3318
-39.9701
-30.675
-38.4707
-96.2444
-39.9673
-31.1412
-38.4864
-44.9079
-35.5478
-48.0718
-48.0712
-44.9085
-35.5644
-48.0141
-48.1499
9.53757
-135.074
-50.2681
-43.146
-38.0918
-40.4753
-33.0466
9.53757
-115.219
-50.3723
-31.5671
-37.9447
-35.7756
-32.4318
60.0074
-108.852
-55.6245
-42.7948
-38.7703
-34.0163
-32.5632
-66.51
-70.9678
-77.5804
-59.1325
-37.4182
-38.3232
-38.3232
9.53757
9.53757
-47.9698
-36.5422
-38.6499
-33.0466
-32.4318
9.53757
-32.4318
-32.4318
151.254
-31.9939
-31.6879
47.4574
-66.0179
-57.564
-62.1114
-35.7782
-31.9252
-31.1454
9.31567
-143.977
-48.2526
-36.6338
-38.5471
-32.4811
-32.4811
9.31567
-32.4811
-32.4811
151.412
-32.053
-31.7339
53.7899
-66.1631
-57.3018
-62.1324
-35.7865
-31.5987
-31.1771
9.31567
-134.335
-50.228
-43.073
-38.0638
-40.4646
-32.4811
9.31567
-117.497
-50.3595
-31.3803
-37.9111
-35.911
-32.4811
59.6472
-108.957
-55.5507
-42.8851
-38.7399
-34.1343
-32.592
-66.5121
-70.9155
-77.6278
-60.3233
-37.431
-38.3412
-38.3412
19.2663
-137.554
-66.3814
-36.9201
-33.9544
-43.034
-60.5487
-59.0014
-29.2643
-47.121
19.0367
-66.3542
-36.9096
-43.0131
-58.9442
-47.1059
-33.5107
-46.9408
-47.2915
-26.0607
-38.4057
-41.7914
-1.14357
-67.5721
-33.5215
-46.9349
-25.9666
-41.8055
-73.5157
-73.5058
-72.6841
-44.8291
197.076
-32.6405
-32.7883
-37.9251
-89.2862
-51.1769
-51.1443
-41.9711
-42.0586
-23.9371
73.5032
-79.8101
-100.167
-37.2672
-34.7943
-48.2742
51.5108
-74.3089
-69.454
-36.6752
-30.3183
-40.2189
-79.8369
71.6738
-100.329
-34.7544
-37.2293
-48.2457
-76.0905
50.43
-69.4291
-30.3648
-36.701
-40.184
-49.5504
-35.9954
-50.268
-46.3103
-40.9645
-32.3832
-25.7921
-37.9121
-51.0219
-47.0014
-43.7663
-0.648841
-50.7895
-31.7019
-41.3065
-64.3153
-49.5277
-46.3044
-36.0056
-50.2724
-40.8967
-37.9113
-32.3719
-25.6541
-51.0216
-0.817104
-46.9885
-43.7232
-50.7966
-64.3049
-31.8022
-41.3405
-131.377
185.463
-105.495
158.218
-73.2599
-71.1749
-44.1688
-30.8418
-41.9418
-27.1183
-48.5393
-42.6013
-47.1612
170.168
-71.0949
-44.0728
-34.792
-24.8629
-54.5771
-42.9813
-130.756
185.414
-73.2315
-71.1693
-44.1441
-30.8808
-48.5128
-42.6107
-71.0872
-44.2745
-54.5598
-42.997
-32.2704
-36.9064
-57.8029
-36.1968
-56.261
-41.5694
-29.6992
-48.6177
-37.0739
-41.3256
-35.0204
-81.1732
-22.2503
-15.6082
-83.3832
-52.6591
-32.3846
-36.9098
-57.7584
-36.2447
-29.7972
-48.546
-35.1392
-81.2557
-142.975
-55.0153
-58.7227
-114.15
-142.757
-114.057
-58.6655
-55.0054
-105.867
-105.859
-55.2066
-55.2205
-55.4134
-24.117
-24.4482
-55.347
148.494
141.259
141.602
148.515
-36.1531
-28.7318
-31.7823
-37.5542
-36.1996
-37.5728
-31.9094
-28.7518
-40.3636
-40.3643
-36.19
-36.1885
-24.9168
-72.2084
-72.1862
-25.0158
-46.4971
-45.4166
-42.6472
-46.9682
-46.4595
-46.9061
-42.5893
-45.3949
-41.2064
-41.2315
-43.2123
-43.1816
-53.0614
-35.7328
-35.7405
-53.3249
-31.68
-31.594
-29.8104
-29.7571
37.5391
-28.0915
-128.631
-38.7478
-36.0971
-38.2402
48.0103
-56.4219
-95.4581
-38.6372
-32.7867
-38.2147
-28.208
35.6455
-128.164
-36.123
-38.5694
-38.288
-56.3956
48.0333
-95.5208
-32.8112
-38.6541
-38.2057
-48.8767
-38.7249
-46.4726
-44.8234
-41.219
-32.7016
-31.8037
-37.5778
-59.6005
-46.8284
-45.2638
-35.145
-49.4398
-39.1359
-42.8316
-53.7424
-48.8693
-44.8201
-38.7292
-46.4695
-41.2953
-37.5946
-32.6759
-31.5998
-59.6026
-35.0353
-46.8153
-45.1975
-49.4664
-53.7824
-39.2621
-42.8693
55.0192
23.6732
-85.5461
132.989
-117.006
-116.93
-140.057
77.9325
-81.1013
-57.2442
-72.2664
-68.5903
-36.5796
-37.0836
-39.4858
-32.1468
-34.1741
-34.1877
-37.4902
-32.1599
-47.2569
-42.5854
-47.307
-42.8264
-84.8089
-85.3915
-44.7203
124.587
-64.9779
-53.6799
-70.5871
-48.2502
-29.3691
-29.3906
-32.0591
-25.725
-43.3145
-49.8315
-51.556
-45.8206
54.8954
23.3017
-86.7374
132.964
-81.0796
-57.2254
-72.2223
-68.575
-36.5587
-37.0955
-39.4458
-32.1711
-47.3034
-42.5697
-47.2786
-42.8293
-64.9342
-53.7106
-70.5256
-48.2571
-43.3043
-49.816
-51.5244
-45.8181
-34.3887
-32.9568
-32.1703
-35.2582
-52.2814
-46.7254
-53.0058
-40.4925
-47.216
-47.2129
-51.5797
-44.0011
-24.9733
-27.9295
-25.863
-37.4874
-38.3187
-38.3183
-37.556
-39.8377
-42.8488
-42.0232
-37.2017
-57.0618
-0.946975
-1.04152
-12.8346
2.71932
-66.5524
-66.5168
-75.4718
-59.7492
-34.4026
-32.9624
-32.2059
-35.267
-52.2888
-46.7281
-52.6852
-40.4718
-24.8583
-27.9282
-25.9439
-37.3877
-42.8474
-42.1596
-37.2767
-57.0803
-89.544
-73.5577
-72.744
-63.2085
-89.5783
-73.5454
-72.7278
-63.1911
-86.6389
-72.0885
-72.0867
-62.8185
-48.6519
-45.3855
-45.4393
-34.3881
195.827
167.281
188.21
195.382
-31.9964
-33.912
-31.4856
-33.3723
-32.1223
-34.0484
-31.6112
-33.5138
-37.6936
-39.676
-37.291
-37.6938
-89.086
-62.5847
-88.915
-89.3373
-53.1881
-50.1051
-52.445
-48.9684
-53.1909
-50.0763
-52.3927
-48.9107
-42.3413
-42.1419
-42.1494
-41.6662
-37.8236
-42.0837
-42.087
-46.8228
-26.4291
-25.664
-25.8559
-26.4709
-83.8553
126.554
-144.954
106.942
-126.299
-102.996
-38.7788
-32.4098
-38.3529
-31.7643
-45.1867
-44.8103
-111.818
84.2631
-62.1114
134.973
-88.9675
-62.8377
-38.9969
-31.6275
-32.8908
-29.6497
-41.9287
-37.2052
-144.94
106.986
-84.266
126.761
-126.009
-102.98
-38.2976
-31.7747
-38.7996
-32.4553
-45.1637
-44.8286
-62.3743
134.738
-111.88
84.2887
-88.8337
-62.7405
-32.9721
-29.6857
-38.9435
-31.6484
-41.8497
-37.2103
-49.2109
-53.3501
-34.4267
-38.2834
-52.9595
-41.2177
-50.5985
-42.783
-44.7409
-41.264
-28.7216
-34.5876
-26.2417
-40.5202
-36.8015
-39.7978
-57.0475
-34.3868
-49.3226
-40.3899
-40.0321
-64.4288
-14.1792
-1.08767
-48.0875
-53.9127
-29.2246
-41.6224
-32.718
-52.4013
-68.3884
-59.0278
-49.1909
-53.3335
-50.5895
-42.7796
-34.4588
-38.2892
-52.9394
-41.2377
-44.5226
-41.3284
-36.8024
-39.7853
-28.7255
-34.5884
-26.1885
-40.5689
-56.9474
-34.3631
-14.0767
-1.03661
-49.1878
-40.3461
-40.0105
-64.3845
-48.1107
-53.9202
-68.342
-58.5842
-29.3395
-41.6339
-32.8943
-52.4051
-137.294
-127.173
153.705
163.398
-106.342
-106.342
157.712
157.689
-93.0325
-61.7523
-85.2874
-61.5891
-45.0885
-43.082
-31.0255
-30.2655
-42.1205
-42.102
-30.5437
-30.549
-46.6026
-50.825
-41.8944
-43.6137
-48.3867
-48.1788
161.804
161.549
-62.5424
-86.1043
-50.6935
-34.898
-35.1388
-35.1424
-26.9287
-26.8678
-48.3641
-51.3676
-47.3791
-38.8404
-136.474
-126.812
163.679
153.524
-92.9695
-61.7206
-85.2794
-61.3054
-43.0384
-45.0592
-31.0556
-30.3099
-46.5631
-50.7993
-41.9098
-43.6313
-86.1044
-62.5321
-34.8409
-50.4212
-51.3137
-48.3448
-38.8434
-47.3731
-33.5651
-31.7641
-38.3286
-36.3309
-56.8043
-58.4795
-35.8057
-36.5611
-55.8919
-55.8989
-41.2361
-41.2367
-28.5825
-30.2426
-47.4406
-49.6001
-36.8808
-36.8801
-41.3292
-41.3355
-33.7818
-36.0393
-68.3062
-75.9073
-23.5231
-23.5554
-16.3466
-16.0496
-81.3341
-81.3136
-52.8971
-52.9084
-33.6682
-31.8343
-38.3322
-36.3332
-58.4125
-56.7882
-35.8569
-36.608
-30.346
-28.6224
-47.3949
-49.5112
-36.1381
-33.9055
-75.9237
-68.3437
-95.0109
-93.9738
-92.0125
-85.5932
-53.5741
-52.2371
-62.719
-60.2938
-60.4303
-60.9919
-62.9949
-51.1972
-116.989
-100.68
-87.2247
-84.3765
-94.6127
-86.1984
-91.9959
-93.8722
-117.106
-84.3427
-87.2277
-101.182
-60.3823
-51.0591
-62.9878
-61.0195
-53.5691
-60.2658
-62.6928
-52.1977
-142.58
-141.114
-86.2496
-82.2134
-142.531
-82.1913
-86.242
-141.112
-49.3038
-51.2987
-62.447
-59.3015
-49.3128
-59.3149
-62.4499
-51.303
-78.551
-54.7888
-50.1853
-52.2746
-26.1837
-13.2064
-35.0916
-41.1714
-26.5519
-41.3028
-35.1027
-13.0432
-78.6385
-52.6672
-50.1044
-54.7816
134.271
122.139
165.579
80.7946
73.3654
139.378
185.442
120.146
73.1258
120.26
185.351
138.731
134.428
80.8922
165.622
122.204
-38.6144
-32.7283
-33.205
-40.7571
-28.6588
-26.1241
-30.8488
-33.9411
-33.7241
-35.0945
-32.2202
-26.8951
-41.9364
-40.306
-34.4952
-38.6591
-38.6211
-40.7529
-33.3324
-32.7734
-41.8818
-38.7002
-34.6209
-40.2759
-33.7999
-27.0039
-32.3463
-35.2026
-28.5961
-33.9716
-30.9338
-26.0797
-41.0671
-43.7254
-39.0563
-36.3913
-41.0692
-36.4007
-39.0574
-43.7233
-35.2179
-37.3771
-37.0345
-34.7519
-35.2163
-34.7451
-37.0337
-37.379
-60.4331
-61.4834
-61.753
2.73468
-51.1815
-74.6178
-86.7715
-54.0652
-51.1821
-54.0775
-86.8504
-74.5853
-60.324
2.77282
-61.784
-61.5241
-41.3482
-45.2657
-47.8072
-40.1542
-38.7026
-39.3047
-51.6697
-50.4474
-39.2178
-45.786
-52.2694
-39.0424
-46.7406
-35.2648
-50.0592
-51.8452
-41.6727
-40.079
-47.757
-45.2273
-46.787
-51.8354
-49.9924
-35.1948
-39.1669
-38.9896
-52.2787
-45.761
-38.7025
-50.448
-51.5894
-39.2756
-38.9447
-39.8374
-41.7495
-42.3658
-38.8091
-42.3857
-41.756
-39.8401
-38.5531
-37.5943
-42.5973
-44.8929
-38.5646
-44.8941
-42.5853
-37.6225
-53.8097
-49.6575
-46.8359
-59.5523
-34.5745
-32.2766
-38.0215
-41.225
-34.5811
-41.2234
-38.0231
-32.2843
-53.7667
-59.5045
-46.844
-49.6399
-35.1996
-32.3524
-27.8694
-32.1906
-35.2951
-32.2133
-27.8928
-32.3929
-31.7565
-26.9614
-27.6306
-31.5795
-31.7365
-31.5958
-27.572
-26.9195
-30.139
14.3851
-85.4642
-40.0505
-36.7776
-38.196
19.2645
6.75694
-124.858
-38.3942
-35.2596
-37.8223
14.1313
-31.5731
-85.7706
-36.7943
-39.9942
-38.1756
6.73713
19.7068
-124.834
-35.2935
-38.4156
-37.8258
-48.7447
-40.9591
-45.6713
-43.9513
-47.1186
-32.4828
-30.9157
-36.6391
-54.0561
-47.227
-46.078
-56.8769
-48.9119
-44.9671
-45.9171
-50.5293
-48.7389
-43.9496
-40.9609
-45.6682
-47.2921
-36.6659
-32.4551
-30.7947
-53.9912
-56.6888
-47.1997
-46.0198
-48.9419
-50.578
-45.1274
-46.0037
26.5591
19.3766
-38.1251
78.5701
-133.525
-133.479
-202.385
-15.3508
-73.1598
-61.1043
-71.384
-66.5469
-36.5663
-37.1521
-38.0286
-33.1537
-34.0048
-34.0114
-35.7323
-32.8036
-43.3723
-43.0015
-45.3791
-42.7321
-62.762
-63.1573
-48.4604
34.326
-61.7307
-56.2715
-68.2508
-51.8103
-29.1556
-29.1677
-30.5538
-26.774
-45.5967
-48.5352
-48.9221
-45.8696
26.4343
19.6665
-38.1298
78.6453
-73.1279
-61.0758
-71.3363
-66.5296
-36.5519
-37.1539
-37.9979
-33.176
-43.3612
-42.9698
-45.3556
-42.7273
-61.6476
-56.2957
-68.6047
-51.8331
-45.5841
-48.5367
-48.8965
-45.8646
-33.8962
-33.114
-32.7168
-34.4613
-49.7209
-46.7978
-51.2083
-43.6582
-47.2077
-47.2055
-49.0767
-45.8497
-25.3334
-26.72
-24.0607
-28.539
-38.4148
-38.4144
-37.8677
-39.1429
-42.1499
-40.686
-39.1339
-49.1879
-0.929645
-1.45801
-7.59696
2.71814
-67.3585
-67.347
-71.5563
-63.5099
-33.9106
-33.1219
-32.7314
-34.4706
-49.75
-46.796
-51.2345
-43.6537
-25.2121
-26.6769
-24.0456
-28.4446
-42.1586
-40.7219
-39.1763
-49.1079
-80.8316
-73.6612
-73.077
-67.5829
-80.8333
-73.651
-73.0623
-67.572
-78.1657
-71.978
-71.975
-66.8901
-48.5549
-44.8064
-44.8143
-39.7887
195.025
183.608
205.227
195.047
-32.1191
-33.2694
-32.1156
-32.911
-32.2613
-33.4132
-32.2549
-33.056
-37.8919
-38.6743
-37.608
-37.8915
-89.4618
-79.9681
-89.2769
-89.7119
-52.0102
-50.7044
-51.7241
-49.6113
-51.986
-50.6774
-51.6853
-49.5661
-42.1792
-42.0529
-42.0569
-41.9095
-39.8389
-41.9494
-41.951
-44.2922
-24.5695
-25.8913
-22.664
-24.603
71.1456
57.441
-26.1441
88.0445
10.9669
-106.682
-218.592
42.4305
-151.668
-85.5074
-113.551
-98.2354
-37.9415
-36.8368
-37.3754
-33.9514
-35.0962
-34.4649
-36.5099
-32.4841
-39.7247
-49.0972
-46.6484
-45.3683
48.8064
26.6227
-101.471
67.0097
-82.5395
-92.9191
-65.3942
61.353
-75.5783
-68.4367
-74.9555
-66.1399
-37.7973
-36.8742
-37.8159
-32.723
-31.3383
-29.6324
-31.4048
-29.9341
-38.9861
-41.689
-41.267
-38.2261
10.997
-106.659
-218.585
42.4171
67.8037
56.4746
-26.7745
88.4775
-151.601
-85.5493
-113.229
-98.1612
-35.136
-34.453
-36.3096
-32.6317
-37.8233
-36.8241
-37.3664
-33.9728
-39.7737
-49.0971
-46.6315
-45.3609
-83.6235
-93.9362
-66.0774
66.4599
49.2023
26.199
-101.296
66.7122
-75.5608
-68.3969
-74.9009
-66.1036
-31.3672
-29.7047
-31.4203
-29.967
-37.81
-36.8958
-37.7895
-32.7458
-38.9514
-41.6782
-41.2065
-38.2255
-50.8874
-52.9229
-47.1887
-52.1137
-37.1785
-35.0832
-34.8998
-37.062
-47.5701
-51.7909
-50.973
-43.2124
-45.5879
-46.7393
-48.2003
-44.7258
-37.0386
-41.4535
-42.9132
-40.7866
-32.6573
-32.38
-30.4865
-33.5471
-26.5184
-25.2235
-25.6914
-31.5435
-37.7326
-38.1959
-37.2896
-38.7777
-51.7611
-52.2914
-55.6744
-42.0576
-47.0684
-46.7252
-52.2687
-42.9837
-44.512
-43.0551
-41.7964
-51.3351
-5.44176
0.0721723
-7.73203
2.69108
-50.0088
-50.7065
-48.9677
-50.9403
-33.3399
-29.4606
-27.8061
-38.3931
-42.2073
-40.661
-35.9927
-48.3257
-60.2175
-65.3489
-66.9793
-62.399
-50.8762
-52.9036
-47.1658
-52.0981
-45.5809
-46.7349
-48.1925
-44.7206
-37.1857
-35.0962
-34.9159
-37.0681
-47.5715
-51.7853
-50.9606
-43.1982
-37.083
-41.4076
-42.7528
-40.8018
-37.7362
-38.1952
-37.2886
-38.772
-32.6414
-32.378
-30.475
-33.5458
-26.3831
-25.1095
-25.6091
-31.3739
-51.7842
-52.3153
-55.6208
-42.0609
-5.49824
-0.0522202
-7.75476
2.68265
-47.0534
-46.7227
-52.2354
-42.9803
-44.4503
-43.0269
-41.7602
-51.314
-50.0322
-50.6806
-49.0094
-50.9506
-60.2343
-65.2955
-66.945
-62.2674
-33.4278
-29.5006
-27.9476
-38.4122
-42.2306
-40.6935
-36.1045
-48.34
-121.132
-106.487
-133.217
-130.291
171.357
189.768
167.758
184.474
-121.246
-95.1052
-106.46
-106.457
136.924
166.354
156.178
156.584
-73.0076
-73.4116
-81.3301
-66.7222
-69.8023
-71.2441
-76.7725
-65.5888
-41.2163
-49.0822
-44.7173
-43.5667
-31.5806
-29.0827
-30.9571
-30.4396
-39.4583
-42.7862
-41.88
-41.8679
-30.1021
-25.8927
-28.4566
-28.4588
-47.881
-49.3467
-47.4904
-49.5086
-42.8323
-42.3519
-42.2645
-43.0462
-45.97
-47.7357
-47.4814
-47.448
168.965
166.282
166.866
166.756
-71.1275
-71.9255
-65.9985
-77.5157
-45.6012
-44.1361
-48.0522
-39.6434
-33.6069
-36.0663
-34.9466
-34.9409
-25.2345
-25.4984
-25.6927
-25.6413
-53.78
-53.7569
-53.9089
-53.0318
-43.9604
-42.3734
-44.9592
-40.6889
-121.186
-106.491
-132.427
-129.734
171.438
189.71
184.129
167.757
-72.9711
-73.3916
-81.2917
-66.6983
-69.7892
-71.2407
-76.7622
-65.901
-41.186
-49.0803
-43.535
-44.6935
-31.6084
-29.1252
-30.9919
-30.488
-47.8539
-49.3215
-47.4581
-49.4858
-42.839
-42.3617
-42.2743
-43.0574
-71.1208
-71.9103
-77.5116
-65.9877
-45.6812
-44.2588
-39.7813
-47.9605
-53.7714
-53.6975
-52.9955
-53.9199
-43.9517
-42.3764
-40.6809
-44.9558
-31.3685
-32.0965
-32.7476
-31.912
-36.1647
-37.3982
-37.5996
-36.5334
-55.8268
-60.2113
-57.5066
-58.0819
-37.941
-34.876
-35.8566
-36.3631
-53.5289
-59.3575
-56.2482
-56.2531
-42.6223
-40.0818
-41.4463
-41.4462
-28.4935
-30.7778
-28.9376
-29.7472
-47.3363
-48.502
-47.9843
-49.2155
-37.2944
-37.0941
-37.0639
-37.0642
-40.8237
-41.2381
-41.2505
-41.2536
-36.0948
-33.9973
-34.4791
-35.619
-71.4016
-86.7587
-76.9946
-77.8557
-14.5527
-28.4733
-22.8711
-22.853
-4.75042
-40.2713
-15.2437
-14.984
-79.8684
-86.985
-83.2613
-83.3033
-56.5538
-49.5675
-52.7853
-52.8044
-31.4397
-32.2119
-32.8598
-32.0142
-36.1706
-37.399
-37.6029
-36.5354
-55.7546
-60.1905
-58.0254
-57.4763
-37.9503
-34.9825
-35.9084
-36.4128
-28.5806
-30.8883
-29.8394
-29.0072
-47.2324
-48.4338
-47.921
-49.1375
-36.1918
-34.1352
-35.7231
-34.5996
-71.939
-87.0376
-77.9172
-77.0947
-125.768
-143.177
-138.645
-111.747
-53.5015
-54.8119
-57.9699
-55.7863
-57.742
-53.8923
-60.8245
-58.974
-113.558
-105.172
-122.691
-98.9707
-126.692
-143.135
-138.255
-111.625
-113.602
-105.074
-122.567
-98.8459
-57.6163
-53.8338
-60.7916
-58.9124
-53.4924
-54.7888
-57.9459
-55.7791
-120.665
-105.602
-105.912
-93.6909
-120.649
-105.587
-105.909
-93.6825
-54.4466
-52.5322
-58.2824
-55.721
-54.4629
-52.5432
-58.2943
-55.7311
-58.2728
-59.0998
-54.1432
-53.0195
-28.3142
-18.1617
-29.6682
-23.169
-28.3912
-18.0463
-29.8749
-23.079
-58.2637
-58.9761
-54.1048
-52.9263
150.662
130.339
156.551
153.282
112.357
148.004
136.366
156.184
148.516
113.449
155.455
136.243
130.39
150.693
153.322
156.576
-34.6685
-38.2791
-34.6781
-35.9048
-28.6339
-27.4206
-30.4297
-28.5464
-30.6774
-32.4049
-30.9213
-32.8606
-38.7386
-38.5045
-36.8366
-36.6955
-34.7058
-38.2255
-34.7569
-35.9588
-38.7053
-38.506
-36.8754
-36.7505
-30.7948
-32.5504
-31.0407
-32.9885
-28.6618
-27.4062
-30.4721
-28.5654
-39.4774
-41.5511
-39.0312
-40.9173
-41.5508
-39.4791
-40.9185
-39.0349
-36.5023
-35.495
-36.6411
-36.1976
-35.4944
-36.5016
-36.1964
-36.6403
-48.8242
-8.57235
-44.9229
-18.2966
-61.0492
-70.3898
-73.7344
-78.6989
-70.3248
-60.9444
-78.6752
-73.7651
-8.45656
-48.687
-18.1168
-45.0373
-45.7471
-45.8596
-46.1632
-46.9975
-41.2969
-45.5697
-45.1784
-51.6583
-40.5956
-42.3341
-42.8745
-44.9693
-47.2047
-42.0158
-49.684
-47.6917
-45.6556
-45.9463
-46.1135
-46.9679
-47.2041
-42.017
-49.6273
-47.6001
-40.5181
-42.2721
-42.8093
-44.9552
-41.2455
-45.5434
-45.1661
-51.6403
-41.0394
-40.7301
-41.3881
-41.3146
-41.1277
-40.7541
-41.4005
-41.3257
-40.3165
-43.9497
-42.5142
-44.6427
-40.3225
-43.9162
-42.4887
-44.6156
-54.1923
-56.0192
-50.284
-52.8446
-34.3401
-36.3014
-35.3969
-37.1637
-34.3173
-36.3085
-35.4054
-37.1597
-54.2481
-56.3885
-50.0964
-52.8535
-31.764
-31.7208
-31.3539
-31.2412
-31.7404
-31.7377
-31.2448
-31.3778
-29.6882
-31.052
-28.2869
-29.941
-31.0135
-29.6452
-29.9093
-28.2315
-34.9142
116.658
-224.045
71.5655
-118.266
-148.646
-38.0333
-35.1738
-37.2561
-35.6197
-38.2743
-38.1177
-105.18
72.0016
-97.1785
31.5061
-109.597
-87.0909
-38.8422
-33.1793
-34.0846
-32.1094
-38.9086
-36.3353
-223.952
71.5911
-36.7883
117.087
-117.749
-148.541
-37.2644
-35.6631
-38.0279
-35.2152
-38.264
-38.1661
-97.3064
31.153
-105.067
71.7834
-109.736
-87.0803
-34.1083
-32.1245
-38.823
-33.2048
-38.8825
-36.3353
-50.4372
-49.1595
-37.8505
-40.4189
-50.1681
-42.0954
-46.7769
-42.9429
-41.9358
-39.4504
-30.261
-34.1186
-29.9703
-43.9036
-36.046
-42.0023
-61.7212
-43.7567
-51.7986
-43.7003
-43.4845
-54.2023
-24.04
-42.9016
-48.0322
-50.8464
-31.8219
-45.28
-38.2181
-48.382
-51.6195
-54.1485
-50.5114
-49.1507
-46.7707
-42.9412
-37.8547
-40.4245
-50.0999
-42.0959
-42.6326
-39.3788
-36.0498
-42.109
-30.2094
-34.1123
-29.8593
-42.6089
-61.7107
-44.0508
-24.2167
-42.7794
-51.7632
-43.6728
-43.423
-54.1488
-48.0785
-50.8457
-51.6494
-54.1473
-31.8818
-45.3669
-38.2451
-48.3906
-36.2915
77.7108
-34.7804
89.3864
-90.0725
-88.7731
127.371
142.039
-205.109
9.53761
-205.124
9.63825
-140.179
-140.174
87.2478
89.5269
-93.2206
-79.2836
-59.4169
-57.8323
-80.6893
-65.6576
-74.3537
-63.4799
-37.5114
-33.3666
-37.4506
-32.7887
-39.4251
-39.2639
-32.1761
-32.1357
-35.8748
-33.0344
-35.8125
-33.0656
-37.4811
-37.4918
-32.3053
-32.3251
-50.6421
-45.5012
-43.739
-42.4322
-46.2912
-48.9848
-42.573
-43.5961
-61.1473
17.1059
-61.4009
16.8252
-45.665
-45.6946
152.751
152.34
-76.3733
-58.5805
-59.2732
-45.5178
-65.9649
-75.7512
-51.3092
-44.8882
-30.5783
-27.566
-30.5888
-27.6086
-32.1515
-32.1561
-25.9927
-25.9721
-44.502
-41.7224
-50.5804
-48.7185
-48.4839
-52.4781
-48.3239
-43.826
-36.4978
77.8811
-35.0196
89.3546
-91.2705
-89.4724
141.951
127.426
-93.1242
-79.2673
-59.3896
-57.8185
-80.631
-65.6231
-74.3367
-63.4649
-37.4725
-33.3856
-37.4209
-32.8091
-39.2158
-39.3938
-32.1986
-32.1595
-50.7173
-45.5048
-43.7126
-42.4423
-46.2543
-48.9563
-42.5759
-43.6001
-76.4604
-58.5749
-59.3184
-45.5706
-75.751
-65.955
-44.9097
-51.3276
-44.4841
-41.7231
-50.599
-48.7162
-52.4911
-48.4408
-43.824
-48.2917
-33.3402
-35.3437
-32.8114
-33.9193
-32.31
-32.5546
-35.7866
-34.779
-50.118
-43.3654
-52.4682
-43.2425
-52.469
-52.4224
-40.578
-40.4123
-48.8004
-45.5008
-48.797
-45.4981
-51.4921
-51.4951
-43.8141
-43.8131
-25.1365
-29.6108
-24.6761
-32.4952
-25.8345
-25.8021
-39.2289
-36.7672
-37.7836
-39.0516
-37.781
-39.0529
-37.5401
-37.5421
-39.8727
-39.8745
-40.4183
-50.1859
-37.3368
-48.8027
-36.4163
-38.0077
-58.7797
-55.4371
-6.65273
3.78604
-6.69075
3.71001
-13.452
-13.3536
2.95346
2.90005
-70.811
-62.7599
-70.7208
-62.7132
-75.3446
-75.327
-59.6854
-59.6965
-33.3588
-35.3565
-32.8263
-33.9241
-32.3542
-32.586
-35.7948
-34.785
-50.1199
-43.3752
-52.5162
-43.2423
-52.1333
-52.3426
-40.5647
-40.3872
-25.0572
-29.4896
-24.7811
-32.4606
-25.893
-25.8594
-39.1336
-36.6594
-40.4377
-50.2005
-37.3784
-48.6458
-38.0631
-36.5077
-55.4579
-58.8069
-91.0597
-88.1301
-82.208
-67.5127
-67.0631
-79.5374
-63.1002
-63.1751
-91.0793
-88.1472
-82.2003
-67.5039
-79.5386
-67.0444
-63.1598
-63.078
-86.5319
-86.5265
-77.4486
-66.5219
-77.4425
-66.52
-62.4379
-62.4417
-48.7465
-48.7569
-48.61
-40.0404
-40.0509
-48.6177
-34.5263
-34.5373
180.993
202.936