# vtk DataFile Version 2.0
tet_velo
ASCII
DATASET UNSTRUCTURED_GRID
POINTS 29498 float
-0.725 0.215 -2.13272
-0.705227 0.355 2.245
-0.78485 0.775 -2.055
-0.704102 0.995 2.125
0.725 0.215 -2.13283
0.705357 0.355 2.245
0.784795 0.775 -2.055
0.704107 0.995 2.125
-0.782518 0.197557 -0.67348
-0.803702 0.216449 0.78576
-0.837904 0.928303 -0.661667
-0.792599 0.983248 0.731667
0.782572 0.197547 -0.673553
0.804051 0.216187 0.785723
0.838114 0.928548 -0.661667
0.792682 0.983345 0.731667
-1.51723 -0.187568 -3.27514
-1.5228 -0.140764 -2.13414
-1.56099 -0.147288 -0.673193
-1.56789 -0.132283 0.801017
-1.51023 -0.0329296 2.26308
-1.49225 0.0346133 3.40955
-1.49793 0.0849427 4.5459
-1.51947 0.139523 -3.25996
-1.52741 0.205055 -2.12616
-1.57445 0.213182 -0.67804
-1.56839 0.224776 0.776007
-1.47993 0.318075 2.22539
-1.47125 0.383798 3.37093
-1.48693 0.434143 4.50943
-1.54621 0.759784 -3.2111
-1.57392 0.824332 -2.0746
-1.615 0.929974 -0.67141
-1.56884 0.969275 0.727105
-1.47818 0.998524 2.13156
-1.47113 1.06253 3.27983
-1.48781 1.12229 4.42895
-1.56995 1.77671 -3.18737
-1.58563 1.85251 -2.06073
-1.60159 1.96518 -0.678918
-1.59057 2.04287 0.688689
-1.55937 2.08616 2.07119
-1.54007 2.12541 3.19929
-1.53279 2.17384 4.34121
-0.740181 -0.182583 -3.27942
-0.736657 -0.133299 -2.14037
-0.772045 -0.154939 -0.672381
-0.796592 -0.137969 0.809337
-0.757108 -0.0129527 2.27764
-0.741379 0.0491481 3.41943
-0.744727 0.0929154 4.55161
-0.73841 0.138943 -3.26129
-0.72164 0.398723 3.37908
-0.735492 0.441694 4.51374
-0.758763 0.739993 -3.20297
-0.721447 1.06536 3.27851
-0.736176 1.12528 4.42867
-0.778594 1.76427 -3.17933
-0.789994 1.8413 -2.05186
-0.808311 1.96426 -0.673575
-0.811359 2.04688 0.688038
-0.795041 2.08725 2.0666
-0.77998 2.12517 3.1947
-0.772656 2.17383 4.33788
0.776815 -0.18256 -3.27949
0.76208 -0.133289 -2.14046
0.789203 -0.154965 -0.672447
0.781946 -0.138139 0.809301
0.718485 -0.0130154 2.27763
0.733336 0.049106 3.41942
0.748094 0.0928767 4.5516
0.774388 0.138964 -3.26135
0.732399 0.398696 3.37907
0.748763 0.441661 4.51372
0.792446 0.740024 -3.203
0.731609 1.06534 3.2785
0.747813 1.12526 4.42866
0.800965 1.76434 -3.17935
0.801471 1.84139 -2.05188
0.789316 1.96436 -0.673591
0.758634 2.04694 0.688025
0.734768 2.08727 2.06659
0.735206 2.12517 3.19469
0.742267 2.17382 4.33786
1.54562 -0.187508 -3.27527
1.53574 -0.140712 -2.13428
1.56891 -0.147302 -0.673305
1.56365 -0.132493 0.800948
1.49603 -0.0330771 2.26304
1.48985 0.0345173 3.40952
1.50244 0.0848639 4.54587
1.54267 0.139591 -3.26008
1.5245 0.205136 -2.1263
1.57255 0.213233 -0.678147
1.57339 0.224565 0.775946
1.48787 0.317945 2.22536
1.48348 0.383719 3.37091
1.49985 0.434074 4.5094
1.56633 0.759877 -3.21118
1.56906 0.824467 -2.07466
1.60995 0.930226 -0.671457
1.57092 0.969318 0.727075
1.48518 0.998469 2.13154
1.48216 1.06249 3.27981
1.49867 1.12224 4.42893
1.58685 1.77684 -3.18743
1.59038 1.85267 -2.06078
1.58182 1.96535 -0.678956
1.54625 2.04298 0.688658
1.50965 2.0862 2.07117
1.50093 2.12541 3.19926
1.50446 2.17383 4.34118
-0.775703 0.495 -2.11464
0 0.178311 -2.16946
-0.777791 0.182247 -1.4031
-0.751922 0.675 2.23226
6.49989e-05 0.307356 2.29264
-0.786813 0.253376 1.51538
-2.75075e-05 0.860357 -2.14036
-0.845914 0.886189 -1.35833
2.5034e-06 1.05703 2.18703
-0.785629 1.0264 1.42833
0.776049 0.495 -2.11507
0.776706 0.183353 -1.40319
0.751847 0.675 2.23212
0.78716 0.253137 1.51536
0.845645 0.885965 -1.35833
0.784833 1.02561 1.42833
-0.790049 0.210065 0.0561399
-0.88053 0.56293 -0.667574
2.66844e-05 0.172561 -0.673517
-0.884622 0.599848 0.758713
0.000174151 0.180419 0.785742
-0.817601 0.958125 0.035
0.000105178 1.27141 -0.661667
4.13242e-05 1.43358 0.731667
0.79011 0.210068 0.056085
0.880294 0.563048 -0.66761
0.884999 0.599766 0.758695
0.817586 0.958135 0.035
-0.875347 0.528965 -1.38072
-0.882551 0.581389 0.04557
-0.895335 0.637424 1.47186
1.33422e-05 0.171689 -1.40315
0.000100418 0.179461 0.0561125
0.000119575 0.235431 1.51537
-1.37538e-05 0.495 -2.40346
3.37511e-05 0.675 2.38334
3.88351e-05 0.977638 -1.35833
7.3251e-05 1.42067 0.035
2.19138e-05 1.22892 1.42833
0.875334 0.529024 -1.38076
0.882427 0.581407 0.0455425
0.895339 0.637383 1.47185
-1.1262 0.210027 -2.12944
-0.730829 0.0408506 -2.13654
-0.731705 0.176971 -2.697
-1.09258 0.336537 2.23519
-0.731167 0.171024 2.26132
-0.713434 0.376862 2.81204
-1.17938 0.799666 -2.0648
-0.771807 0.757496 -2.62898
-0.787422 1.30815 -2.05343
-1.09114 0.996762 2.12828
-0.712774 1.03018 2.70176
-0.749572 1.54113 2.0958
0.74354 0.0408554 -2.13664
0.749694 0.176982 -2.69709
1.12475 0.210068 -2.12956
0.711921 0.170992 2.26131
0.718878 0.376848 2.81203
1.09661 0.336473 2.23518
0.788621 0.757512 -2.629
0.793133 1.30819 -2.05344
1.17693 0.799734 -2.06483
0.717858 1.03017 2.70175
0.719437 1.54114 2.09579
1.09464 0.996734 2.12827
-1.17848 0.20537 -0.67576
-0.777282 0.021309 -0.672931
-1.18604 0.220612 0.780884
-0.800147 0.0392398 0.797549
-1.22645 0.929139 -0.666539
-0.823107 1.44628 -0.667621
-1.18072 0.976261 0.729386
-0.801979 1.51506 0.709853
0.785887 0.0212911 -0.673
1.17756 0.20539 -0.67585
0.792999 0.0390241 0.797512
1.18872 0.220376 0.780835
0.813715 1.44645 -0.667629
1.22403 0.929387 -0.666562
0.775658 1.51514 0.709846
1.1818 0.976332 0.729371
-1.52001 -0.164166 -2.70464
-1.51835 -0.0240226 -3.26755
-1.1287 -0.185076 -3.27728
-1.54189 -0.144026 -1.40367
-1.5251 0.0321454 -2.13015
-1.12973 -0.137031 -2.13725
-1.56444 -0.139786 0.0639116
-1.56772 0.0329471 -0.675617
-1.16652 -0.151114 -0.672787
-1.53906 -0.0826065 1.53205
-1.56814 0.0462461 0.788512
-1.18224 -0.135126 0.805177
-1.50124 0.000841849 2.83632
-1.49508 0.142573 2.24423
-1.13367 -0.0229412 2.27036
-1.49509 0.059778 3.97773
-1.48175 0.209206 3.39024
-1.11681 0.0418807 3.41449
-1.49243 0.259543 4.52766
-1.12133 0.0889291 4.54875
-1.52344 0.172289 -2.69306
-1.53284 0.449653 -3.23553
-1.12894 0.139233 -3.26062
-1.55093 0.209118 -1.4021
-1.55066 0.514693 -2.10038
-1.57142 0.218979 0.0489834
-1.59472 0.571578 -0.674725
-1.52416 0.271425 1.5007
-1.56861 0.597025 0.751556
-1.47559 0.350936 2.79816
-1.47905 0.6583 2.17847
-1.47909 0.40897 3.94018
-1.47119 0.723166 3.32538
-1.09644 0.39126 3.375
-1.48737 0.778217 4.46919
-1.11121 0.437918 4.51158
-1.56006 0.792058 -2.64285
-1.55808 1.26824 -3.19924
-1.15249 0.749888 -3.20703
-1.59446 0.877153 -1.373
-1.57977 1.33842 -2.06766
-1.59192 0.949624 0.0278471
-1.60829 1.44758 -0.675164
-1.52351 0.983899 1.42933
-1.5797 1.50607 0.707897
-1.47465 1.03053 2.70569
-1.51878 1.54234 2.10137
-1.47947 1.09241 3.85439
-1.5056 1.59397 3.23956
-1.09629 1.06395 3.27917
-1.5103 1.64807 4.38508
-1.11199 1.12378 4.42881
-1.57779 1.81461 -2.62405
-1.17427 1.77049 -3.18335
-1.59361 1.90884 -1.36982
-1.18781 1.8469 -2.0563
-1.59608 2.00402 0.00488539
-1.20495 1.96472 -0.676247
-1.57497 2.06451 1.37994
-1.20096 2.04488 0.688364
-1.54972 2.10578 2.63524
-1.17721 2.08671 2.0689
-1.53643 2.14963 3.77025
-1.16003 2.12529 3.19699
-1.15272 2.17383 4.33955
-0.738419 -0.157941 -2.70989
-0.739296 -0.0218203 -3.27035
0.0183169 -0.182572 -3.27945
-0.754351 -0.144119 -1.40638
0.0127115 -0.133294 -2.14041
-0.784318 -0.146454 0.0684779
0.00857924 -0.154952 -0.672414
-0.77685 -0.0754611 1.54349
-0.00732263 -0.138054 0.809319
-0.749243 0.0180977 2.84854
-0.0193113 -0.0129841 2.27764
-0.743053 0.0710318 3.98552
-0.731509 0.223936 3.39925
-0.00402144 0.0491271 3.41942
-0.74011 0.267305 4.53267
0.00168333 0.0928961 4.5516
-0.748587 0.439468 -3.23213
0.0179887 0.138953 -3.26132
-0.728566 0.420208 3.94641
-0.721543 0.732039 3.32879
0.00537953 0.39871 3.37907
-0.735834 0.783486 4.4712
0.00663538 0.441677 4.51373
-0.768679 1.25213 -3.19115
0.0168416 0.740008 -3.20298
-0.728811 1.09532 3.85359
-0.750713 1.59526 3.2366
0.00508118 1.06535 3.27851
-0.754416 1.64955 4.38327
0.00581845 1.12527 4.42866
-0.784294 1.80278 -2.61559
0.0111853 1.7643 -3.17934
-0.799152 1.90278 -1.36272
0.0057381 1.84134 -2.05187
-0.809835 2.00557 0.0072317
-0.00949732 1.96431 -0.673583
-0.8032 2.06707 1.37732
-0.0263626 2.04691 0.688032
-0.787511 2.10621 2.63065
-0.0301366 2.08726 2.06659
-0.776318 2.1495 3.76629
-0.0223867 2.12517 3.19469
-0.0151943 2.17383 4.33787
0.769448 -0.157925 -2.70997
0.775601 -0.021798 -3.27042
1.16122 -0.185034 -3.27738
0.775642 -0.144127 -1.40645
1.14891 -0.137 -2.13737
0.785575 -0.146552 0.0684266
1.17906 -0.151133 -0.672876
0.750216 -0.0755773 1.54346
1.1728 -0.135316 0.805125
0.72591 0.0180453 2.84852
1.10726 -0.0230462 2.27034
0.740715 0.0709914 3.98551
0.732868 0.223901 3.39924
1.11159 0.0418116 3.41447
0.748428 0.267269 4.53266
1.12527 0.0888703 4.54873
0.783417 0.439494 -3.23218
1.15853 0.139277 -3.26071
0.740581 0.420178 3.9464
0.732004 0.732019 3.32879
1.10794 0.391207 3.37499
0.748288 0.783458 4.47119
1.12431 0.437867 4.51156
0.796706 1.25218 -3.19118
1.17939 0.749951 -3.20709
0.739711 1.0953 3.85358
0.733408 1.59526 3.2366
1.10689 1.06391 3.27916
0.74504 1.64954 4.38326
1.12324 1.12375 4.42879
0.801218 1.80286 -2.61562
1.19391 1.77059 -3.18339
0.795393 1.90287 -1.36274
1.19592 1.84703 -2.05633
0.773975 2.00565 0.00721698
1.18557 1.96485 -0.676273
0.746701 2.06711 1.37731
1.15244 2.04496 0.688341
0.734987 2.10622 2.63064
1.12221 2.08674 2.06888
0.738737 2.1495 3.76627
1.11807 2.12529 3.19697
1.12336 2.17383 4.33952
1.54068 -0.16411 -2.70477
1.54415 -0.0239587 -3.26767
1.55233 -0.144007 -1.40379
1.53012 0.032212 -2.13029
1.56628 -0.139897 0.0638218
1.57073 0.0329658 -0.675726
1.52984 -0.0827848 1.532
1.56852 0.046036 0.788447
1.49294 0.000720092 2.83628
1.49195 0.142434 2.2442
1.49615 0.0596906 3.97769
1.48666 0.209118 3.39022
1.50115 0.259469 4.52763
1.53358 0.172363 -2.69319
1.5545 0.449734 -3.23563
1.54853 0.209185 -1.40222
1.54678 0.514801 -2.10048
1.57297 0.218899 0.0488997
1.59125 0.57173 -0.674802
1.53063 0.271255 1.50065
1.57215 0.596942 0.75151
1.48568 0.350832 2.79814
1.48653 0.658207 2.17845
1.49167 0.408896 3.94016
1.48282 0.723104 3.32536
1.49926 0.778158 4.46916
1.56769 0.792172 -2.64292
1.57659 1.26836 -3.1993
1.5895 0.877347 -1.37306
1.57972 1.33857 -2.06772
[...]
POINT_DATA 29498
VECTORS point_vectors float
-6.46391 -7.54013 9.7966
0.0625728 0.130138 0.347631
-1.39756 0.702864 2.58402
-0.0100315 -0.157575 0.517713
6.49793 -7.5711 9.88758
-0.0634919 0.131177 0.350968
1.39336 0.702666 2.56981
0.00870405 -0.158661 0.519551
0.00830425 0.00900495 0.769125
0.00623136 -0.0143491 0.52396
-0.0101003 -0.00482671 0.274624
0 0 0
-0.00944475 0.00780449 0.77301
-0.00319395 -0.0194114 0.569793
0.0105267 -0.00485358 0.275627
0 0 0
-0.616755 -0.313129 19.8481
-1.26739 -0.749974 20.6059
-0.375847 -0.373986 21.4088
0.130052 -0.0555111 21.5328
0.614671 0.249886 21.3506
0.821032 0.260503 21.3106
0.815902 -0.0136581 21.0731
-0.749439 -0.228605 19.7336
-1.76953 -0.612688 20.5367
-0.540027 -0.447377 21.4894
0.0968701 -0.154809 21.6098
0.847377 0.119748 21.426
1.0753 0.102686 21.3766
1.03086 -0.0805335 21.4008
-0.825262 0.0873435 19.6739
-1.89021 0.173201 20.5071
-1.05308 -0.236954 21.4575
-0.139357 -0.256378 21.7198
0.725061 -0.353763 21.4815
0.965364 -0.46088 21.1622
0.751433 -0.305001 20.9574
-0.507959 0.357601 19.9712
-0.858133 0.591981 20.4284
-0.770669 0.402108 21.1568
-0.232333 0.0195106 21.5148
0.202676 -0.287915 21.4153
0.378197 -0.354574 21.2108
0.379663 -0.393672 20.6766
-0.620321 -0.694131 19.231
-1.7967 -3.50187 21.0284
-0.138026 -0.288946 21.4532
0.224404 0.263536 20.457
0.455071 1.20548 18.103
0.792044 1.55553 17.0241
0.963433 0.801778 15.8831
-0.788166 -0.556964 18.894
1.33166 1.54169 10.5247
1.46676 0.755272 10.4922
-1.02571 0.269646 18.5367
1.44704 -0.492694 10.8151
1.22304 -0.517129 16.5836
-0.464195 0.712993 19.6184
-0.930005 1.50859 20.2053
-1.10235 1.42035 21.3248
-0.247916 0.173818 21.917
0.182067 -0.505437 21.4536
0.279714 -0.643363 21.0771
0.108127 -0.462555 20.5169
0.641049 -0.659859 19.2964
1.82827 -3.32492 20.9647
0.138257 -0.290213 21.459
-0.213551 0.277162 20.436
-0.355702 1.18713 17.5915
-0.775683 1.56717 16.9674
-0.963074 0.796878 15.9394
0.811128 -0.525588 18.9477
-1.34134 1.5213 10.7893
-1.44985 0.731357 10.7149
1.02579 0.273483 18.6188
-1.48261 -0.501604 11.1124
-1.22254 -0.529403 16.7517
0.472061 0.698909 19.6302
0.933099 1.49333 20.2061
1.09795 1.46155 21.3221
0.239154 0.194527 21.9542
-0.16787 -0.51583 21.4619
-0.259214 -0.662227 21.0764
-0.105019 -0.466354 20.5726
0.617945 -0.303292 19.8562
1.24727 -0.735014 20.6109
0.380195 -0.379473 21.402
-0.129404 -0.0546359 21.5316
-0.619359 0.262845 21.3581
-0.824323 0.257908 21.2973
-0.812416 -0.0113144 21.0513
0.741894 -0.225243 19.7544
1.77602 -0.620333 20.5389
0.540923 -0.451535 21.4922
-0.0981781 -0.15312 21.6092
-0.837138 0.115681 21.4337
-1.06115 0.101011 21.3577
-1.04297 -0.0853627 21.3615
0.816245 0.0864797 19.692
1.90198 0.174528 20.5102
1.05949 -0.239838 21.4638
0.137851 -0.259374 21.7258
-0.719892 -0.347483 21.4716
-0.963659 -0.444072 21.1558
-0.723923 -0.298429 20.9845
0.506939 0.351411 19.9782
0.854933 0.58823 20.4301
0.788194 0.415199 21.1603
0.236867 0.0161406 21.5283
-0.211201 -0.302591 21.3742
-0.371452 -0.359682 21.2139
-0.355145 -0.414813 20.7167
-0.819851 -0.13517 1.00472
0.000142019 -0.0159568 0.0831574
-0.000534238 -0.00411731 0.482805
0.0174798 -0.0311439 0.0665459
0.000882586 0.00651509 0.0536851
-0.0209871 0.0399387 0.626131
-0.000194069 0.111705 0.350462
-0.384928 -0.159273 1.22614
0.000182912 0.00976273 -0.0542326
0.00316301 0.001975 0.0134952
0.993197 -0.164044 1.21909
-0.00169118 -0.00233026 0.425967
-0.0183148 -0.030436 0.0673396
0.0222235 0.0414194 0.64377
0.370947 -0.159956 1.19476
-0.0042691 0.00262937 0.0180641
-0.0120163 0.0231163 0.735127
-5.79693e-06 -0.000547769 0.0127795
-9.73962e-09 6.15337e-08 1.46753e-05
-0.000177938 0.00442495 0.0367
0 0 0
0 0 0
6.74208e-05 0.081566 0.157975
7.69828e-05 0.00154704 1.15225
0.0135384 0.0249436 0.733584
-4.96515e-06 -0.0003658 0.0081814
0.000197216 0.00361684 0.0305501
0 0 0
0 0 0
2.74282e-05 0.00103939 0.00915955
0.00135605 0.00436563 0.0381227
1.00521e-08 -1.03119e-07 -1.62309e-05
-1.77121e-06 3.24438e-06 0.00149668
-2.68309e-09 1.20273e-06 4.7777e-05
-0.000474662 0.426767 0.688928
-0.00808778 0.563234 -0.218123
2.67295e-05 0.000543735 0.00655333
-1.15711e-05 0.00567562 0.116406
9.93458e-05 0.00145 -0.00318561
0 0 0
-6.46726e-05 0.000778143 0.00685631
-0.00136693 0.00441697 0.0383931
-3.51025 -1.7881 20.5475
-3.09147 -5.90747 21.3121
-2.28416 -1.86533 17.6603
1.23191 0.647293 17.8834
-0.00156084 1.31075 10.1094
0.196292 1.14136 5.89758
-3.7463 0.754778 20.4428
-3.08724 1.29756 16.991
-2.12688 2.67441 20.0716
1.22411 -0.214137 18.2422
0.408793 -0.14455 5.688
0.53845 -0.829644 20.3832
3.13171 -5.67042 21.1882
2.28669 -1.8082 17.7291
3.52908 -1.8063 20.5498
0.101769 1.26471 9.6637
-0.236382 1.14312 6.02473
-1.22888 0.636841 17.9381
3.06303 1.25604 17.0959
2.12725 2.65316 20.0729
3.76401 0.765017 20.4415
-0.438629 -0.151552 5.83359
-0.555892 -0.828481 19.9744
-1.2186 -0.23495 18.296
-0.342427 -0.763668 21.4469
0.029404 0.0609875 15.8759
0.232479 -0.162741 20.4671
0.316241 0.243451 15.1803
-1.70892 -0.79709 21.6948
-3.03553 1.95676 21.5039
-0.101058 -0.452227 20.234
-0.370515 0.0928066 21.6318
-0.035366 0.0503354 16.121
0.348606 -0.768312 21.43
-0.313968 0.248154 15.0161
-0.23155 -0.163283 20.5053
3.07217 2.01981 21.4951
1.71669 -0.804762 21.6776
0.316622 0.127998 21.328
0.102272 -0.458757 20.2629
-1.02667 -0.557529 20.041
-0.703534 -0.282996 19.8159
-0.681375 -0.489596 19.5643
-0.835658 -0.574373 21.2541
-1.51014 -0.715798 20.5716
-1.77053 -1.66823 20.6868
-0.0942386 -0.199473 21.4918
-0.471591 -0.416675 21.445
-0.234704 -0.471727 21.62
0.372769 0.099626 21.5353
0.108382 -0.109075 21.5509
0.229489 -0.00932477 21.6647
0.748414 0.300248 21.166
0.740212 0.203349 21.411
0.832538 0.650157 21.0777
0.888321 0.279752 20.241
0.93995 0.213262 21.1728
1.07833 0.815832 21.0211
0.92504 -0.0451703 21.238
0.84205 0.590784 21.46
-1.33546 -0.437759 19.8687
-0.818879 -0.0751548 19.6765
-0.860622 -0.404168 19.3737
-1.14386 -0.578547 21.3516
-1.93621 -0.239159 20.5436
-0.188181 -0.305442 21.5503
-0.781896 -0.424298 21.4759
0.424918 -0.0293332 21.6447
0.00688026 -0.230688 21.7112
0.987185 0.116152 21.3502
0.884582 -0.134622 21.4815
1.09069 0.0797393 20.5927
1.12741 -0.189673 21.1624
1.55325 0.657371 18.0475
0.98165 -0.269444 21.12
1.24358 0.334298 16.3282
-1.46426 0.17083 19.8438
-0.691845 0.304263 19.7951
-1.01742 0.166052 19.1815
-1.46636 -0.0524058 21.1803
-1.35964 0.580238 20.4185
-0.59387 -0.289147 21.6642
-1.08166 0.223817 21.3178
0.302562 -0.260207 21.707
-0.267668 -0.0870639 21.6548
0.88429 -0.410259 21.2744
0.377386 -0.382651 21.4033
0.785978 -0.423322 21.1252
0.551248 -0.456438 21.0019
1.40209 -0.572014 19.3015
0.461427 -0.402601 20.9562
1.23818 -0.521439 19.2744
-0.724277 0.514465 20.1166
-0.536033 0.531038 19.7784
-0.88206 0.536091 20.8187
-0.976034 0.986757 20.3302
-0.537947 0.208196 21.4542
-1.02624 0.774465 21.2758
0.0328553 -0.170653 21.4705
-0.273771 0.0860668 21.6818
0.290589 -0.382941 21.1819
0.196359 -0.414836 21.4128
0.366709 -0.390883 20.9111
0.330223 -0.518709 20.9437
0.192199 -0.408849 20.9521
-1.32403 -1.8673 19.0559
-0.704243 -0.625548 19.0625
0.0226547 -0.940939 18.8933
-0.549881 -1.12307 22.279
0.0182339 -4.33956 21.9195
0.030623 -0.00893127 20.78
-0.000944598 -0.277527 20.4745
0.38352 0.628941 19.0015
-0.00135425 0.261636 18.6423
0.54087 1.33804 17.8581
-0.0010248 0.688512 14.3902
0.526826 1.22104 17.939
0.974827 1.814 13.5848
-0.00164603 1.23366 13.6676
1.24965 0.860052 13.0385
-0.00256305 1.23941 14.238
-0.978545 -0.177948 18.5927
0.0290642 -0.774947 18.2829
1.58983 1.23736 11.3001
2.11712 0.320003 6.72266
0.00177022 -0.0633516 -1.51139
1.55684 0.182648 12.1172
-0.0150175 0.965339 6.91122
-0.760215 0.751603 19.0906
0.0323558 0.450606 17.679
1.41652 -0.743042 12.9261
0.640997 -1.00199 19.958
-0.0111655 -0.525374 -0.0222073
0.439365 -0.903452 19.8431
-0.0120709 -1.78717 5.10125
-0.723 1.17776 19.7457
0.00760305 0.933795 19.4094
-1.04404 1.48943 20.6998
0.00826005 2.14692 20.0458
-0.729675 0.831919 21.8793
-0.0223387 2.48293 21.283
0.0505967 -0.277861 21.7438
-0.0090474 0.357753 22.1401
0.23038 -0.603705 21.3389
0.00768457 -0.591644 21.5755
0.247984 -0.74663 20.8879
0.00832458 -0.862036 21.0163
0.00028926 -0.815023 20.9125
1.33429 -1.78167 19.1251
0.726088 -0.592724 19.122
0.689234 -0.473535 19.5865
0.565922 -1.10647 22.2395
1.76637 -1.61118 20.6657
-0.0294606 -0.00431357 20.7921
0.24759 -0.476161 21.612
-0.354809 0.640513 18.7815
-0.230545 -0.00526017 21.664
-0.489964 1.31239 17.4806
-0.827275 0.697345 20.9586
-0.515165 1.22534 17.9442
-0.976241 1.80644 13.5846
-1.08368 0.83031 21.0063
-1.24046 0.850742 13.1772
-0.843299 0.580733 21.4614
0.996581 -0.173935 18.6711
0.865531 -0.399518 19.4042
-1.5853 1.2244 11.6409
-2.14383 0.325222 6.97547
-1.55238 0.620539 18.225
-1.55074 0.165867 12.3001
-1.23732 0.317539 16.5413
0.76086 0.730157 19.1346
1.01493 0.158818 19.2284
-1.41564 -0.744956 13.2846
-0.638546 -1.01231 19.8227
-1.37627 -0.572568 19.4263
-0.434414 -0.90871 19.8333
-1.23622 -0.509773 19.3052
0.726695 1.1599 19.7543
0.536359 0.522057 19.7916
1.04174 1.49469 20.6983
0.975355 0.975886 20.3331
0.734307 0.879242 21.9109
1.03318 0.797182 21.279
-0.0514665 -0.289631 21.761
0.28085 0.0974619 21.7014
-0.21424 -0.61624 21.3413
-0.202987 -0.422109 21.4333
-0.243621 -0.759555 20.8888
-0.337902 -0.540102 20.9471
-0.179098 -0.410802 20.9548
1.01019 -0.537812 20.0574
0.703031 -0.275639 19.8271
0.839863 -0.57472 21.2506
1.49899 -0.709424 20.5706
0.103955 -0.206035 21.4897
0.473426 -0.421427 21.4457
-0.377411 0.103598 21.5493
-0.111662 -0.108954 21.5501
-0.756679 0.32058 21.1649
-0.74059 0.204463 21.413
-0.891958 0.287069 20.2458
-0.927655 0.21165 21.1629
-0.929835 -0.0462965 21.208
1.32293 -0.432355 19.8827
0.811524 -0.0710874 19.697
1.14517 -0.582934 21.3558
1.94552 -0.240402 20.5478
0.18664 -0.303159 21.553
0.786589 -0.42655 21.485
-0.423988 -0.0285154 21.6418
-0.00913085 -0.231538 21.7111
-0.975953 0.113427 21.3655
-0.873795 -0.134084 21.4919
-1.05974 0.0788409 20.6438
-1.11999 -0.191444 21.1571
-0.958435 -0.259528 21.1688
1.45625 0.169841 19.8525
0.688646 0.29771 19.808
1.47248 -0.0549983 21.187
1.35963 0.578939 20.4188
0.593288 -0.290967 21.6686
1.10062 0.222763 21.3243
-0.301138 -0.257749 21.7072
0.270702 -0.0896708 21.6724
-0.876564 -0.402159 21.2603
-0.40019 -0.402085 21.415
-0.769371 -0.409717 21.0722
-0.56339 -0.458111 21.0481
-0.463917 -0.413688 20.9574
0.723028 0.507625 20.1212
0.888148 0.54115 20.819
0.555786 0.215225 21.4688
-0.0371131 -0.171773 21.4869
-0.283975 -0.379049 21.1871
-0.338541 -0.408294 20.9273
-1.1768 -0.542786 19.9769
-1.80656 -2.02339 18.4553
-1.2988 -1.05616 19.651
-1.92143 -0.888969 19.1632
-0.789295 -0.463709 19.4697
-2.56993 -1.89864 20.6485
-0.987608 -0.594178 21.2971
-0.302255 -0.564032 17.5694
-0.830239 -0.979615 21.6572
-1.31408 -1.16167 22.0786
-0.250724 -0.59749 21.7019
-0.146315 -0.255143 21.5119
0.108036 0.154209 15.0544
0.0156329 -0.233819 21.652
4.7803e-05 -0.422971 20.7829
0.275308 -0.0963752 21.4099
0.394098 0.0430198 21.5933
0.29368 0.518559 12.5246
0.512375 0.269583 21.5451
0.574319 0.187889 19.3954
1.07762 0.674467 19.9663
0.894329 0.207771 21.2983
0.395983 1.35097 11.8872
0.951514 0.745818 20.8018
1.3728 0.622673 18.5095
1.16249 0.814267 19.3597
0.998674 0.179246 20.4255
1.18105 1.20776 13.1894
0.975467 0.541639 21.0703
1.61408 0.614953 19.4046
1.03489 0.45748 18.8912
-1.47263 -0.140109 19.814
-3.1454 -0.531991 16.6382
-2.23686 0.453616 19.0126
-1.01159 -0.115299 19.1879
-4.30045 -0.553937 20.4761
-1.38347 -0.371184 21.3085
-2.21492 -0.188644 21.65
-0.831872 -0.873104 21.3654
-0.353636 -0.354348 21.6166
-0.802021 -0.851067 21.2106
0.163763 -0.189216 19.6398
0.406634 -0.136491 21.7297
0.591967 -0.073673 19.3852
1.35387 0.272096 16.8493
1.05216 -0.159888 21.2687
0.280527 0.49791 3.43906
1.28288 -0.447544 19.1329
1.72171 0.0131475 16.849
0.946216 -0.202404 21.1376
1.86814 0.322338 8.98351
1.44647 -0.584026 19.678
1.37705 -0.224488 17.7561
-1.08819 0.492069 19.976
-1.49947 1.73441 18.966
-0.78009 0.812986 19.9658
-0.781926 0.49611 19.4651
-1.89516 1.27094 20.2752
-1.28503 0.403733 20.9436
-2.23685 1.87326 20.731
-1.06542 0.929505 20.8007
-1.82915 0.541839 21.484
-0.702347 0.0516977 21.6033
-1.8039 0.756438 22.4938
-0.685527 0.42441 21.6387
-0.394341 -0.0716837 21.9923
0.1189 -0.240663 21.5997
0.417585 -0.506388 20.7467
0.0219721 -0.221942 21.5956
0.442276 -0.614076 21.5747
0.504238 -0.453004 21.3046
0.538717 -0.933788 20.5969
0.270886 -0.482725 21.2464
0.563564 -0.776022 21.4028
0.583994 -0.494146 20.8598
0.486781 -1.05269 19.8393
0.259155 -0.47693 21.1196
0.406199 -0.586779 20.5655
1.82181 -1.96886 18.5543
0.0399317 -2.97973 18.3846
0.038739 -3.43032 15.5081
0.023331 -0.911145 18.581
0.00189709 -5.51809 23.0417
0.314276 -0.578908 17.8883
0.00481172 -1.02437 22.144
-0.00254296 0.0202477 11.7116
-0.102391 0.157842 15.0852
-0.00231334 -0.038915 19.221
0.000804301 0.228006 10.8341
-0.274052 0.512904 12.2136
0.00339076 0.516032 16.1865
-0.0196561 0.379641 5.67891
-0.355573 1.34235 11.7272
-0.0492239 0.525196 14.1798
-0.00500981 -1.42687 -2.45492
-0.00253221 1.0821 5.76737
-1.19184 1.20445 13.2296
0.00104138 1.39023 13.2893
-0.000325975 -0.820393 -1.07134
-0.00840363 1.15375 10.7444
3.13291 -0.496458 16.778
0.0539908 3.14731 13.5671
0.0341271 -0.291955 17.7678
-0.31013 0.485742 3.54232
0.00623218 0.354369 -0.794059
-0.0271162 -0.324599 -4.32738
-1.86912 0.311687 9.30557
-0.0143945 -1.61382 2.5978
-0.0206046 -0.628216 3.45271
1.50508 1.69909 18.9848
0.00883058 1.66339 19.5162
0.0191323 1.0427 18.6248
0.00676567 4.13087 19.8462
2.23563 1.87864 20.7286
-0.00315859 2.21374 20.5096
-0.0250351 5.37583 20.7937
1.83566 0.782511 22.406
-0.0304994 1.47704 22.2753
-0.00146325 0.0709283 18.895
-0.44804 -0.521943 20.5144
0.000340861 -0.327989 21.8607
0.00712827 -0.864959 15.108
-0.53359 -0.941782 20.4659
0.00919992 -0.711562 21.3599
0.00447627 -1.16005 17.6029
-0.48204 -1.06118 19.7935
0.00508703 -0.655045 20.9618
0.00628251 -1.08873 19.0592
1.16169 -0.533412 19.9851
1.29452 -1.02473 19.6743
1.88928 -0.866846 19.2032
0.786172 -0.443519 19.4909
2.54049 -1.85522 20.6385
0.98345 -0.598075 21.2978
0.842401 -0.972738 21.6367
1.31381 -1.16624 22.0803
0.266585 -0.602333 21.7009
0.148964 -0.261345 21.513
-0.00967187 -0.234828 21.6496
-0.000970539 -0.420689 20.7985
-0.273631 -0.0923615 21.3757
-0.396291 0.0422532 21.5949
-0.512122 0.287812 21.4636
-0.576048 0.183521 19.4838
-1.07281 0.70077 19.8187
-0.893742 0.213717 21.3017
-0.948416 0.781357 20.7611
-1.36922 0.603263 18.6681
-1.16096 0.803289 19.3992
-0.986105 0.183334 20.4554
-0.972199 0.545689 21.082
-1.62586 0.594786 19.4223
-1.03157 0.4451 19.032
1.45753 -0.135174 19.8271
2.19948 0.432428 19.0622
0.999613 -0.115504 19.2308
4.3151 -0.558864 20.469
1.38731 -0.374399 21.3162
2.21902 -0.190031 21.6555
0.838723 -0.8751 21.3274
0.353525 -0.354548 21.626
0.797302 -0.852237 21.1965
-0.164964 -0.194876 19.6792
-0.409013 -0.137359 21.7358
-0.593011 -0.0882641 19.4403
-1.35728 0.256973 16.9829
-1.03859 -0.162293 21.2935
-1.27649 -0.461743 19.2799
-1.70505 -0.00183917 17.1612
-0.918352 -0.193088 21.1708
-1.41064 -0.578638 19.7739
-1.37178 -0.236302 17.9618
1.08094 0.48488 19.9829
0.781269 0.800214 19.9738
0.783479 0.483659 19.4896
1.89009 1.26425 20.2763
1.29391 0.404849 20.9457
1.06751 0.936115 20.7996
1.85548 0.555253 21.488
0.716348 0.0501565 21.6118
0.692442 0.457156 21.655
0.40062 -0.0660734 22.0171
-0.12159 -0.249347 21.6082
-0.0217798 -0.229204 21.617
-0.443548 -0.63238 21.5904
-0.508613 -0.465876 21.2731
-0.269803 -0.504078 21.248
-0.570989 -0.785094 21.4325
-0.613246 -0.510405 20.899
-0.263844 -0.500847 21.1302
-0.401073 -0.594186 20.5376
-1.61332 -1.03435 19.4199
-1.01526 -1.08149 21.8369
0.0397947 -0.323512 21.5439
0.599865 0.230699 20.862
1.22037 0.747833 19.629
1.29044 0.561627 20.2412
-2.3124 -0.254685 18.9131
-1.91431 -0.778178 22.1126
-0.177376 -0.592073 20.3417
0.584253 0.162942 18.7387
1.54316 0.108233 17.8103
1.5248 -0.0625778 17.8443
-1.39838 0.947477 19.5635
-1.8435 0.856037 20.9573
-1.14401 0.182475 21.971
0.170784 -0.354093 21.8349
0.540948 -0.712185 21.3303
0.713622 -0.740458 20.8443
0.0477028 -3.54037 17.2168
0.00340489 -0.236143 13.281
-0.00143983 0.0573062 10.7596
0.000888995 0.309077 8.19513
-0.0169694 -0.634536 4.42477
0.000650019 0.342569 5.89048
0.0470865 -0.725251 13.1305
0.00270879 -0.532908 -4.24768
-0.0240189 -0.805665 0.0175375
0.0168682 2.91639 18.2296
-0.0039076 3.34402 20.1118
-0.0168897 2.02593 21.0432
0.0102681 -0.723926 15.6433
0.0043957 -0.91142 16.5769
0.00222875 -1.333 18.0929
1.59539 -0.999238 19.4471
1.02157 -1.07445 21.8149
-0.0357731 -0.322165 21.5413
-0.598233 0.239978 20.8009
-1.22073 0.756715 19.5724
-1.29444 0.554755 20.2564
2.26349 -0.25231 18.9733
1.91674 -0.782433 22.1195
0.168165 -0.59136 20.3392
-0.588578 0.152971 18.8156
-1.53782 0.0946299 17.9666
-1.51477 -0.0764741 18.1027
1.38804 0.922762 19.5821
1.84855 0.862561 20.9562
1.1674 0.200333 21.9926
-0.175144 -0.364641 21.8557
-0.540407 -0.724531 21.3338
-0.703599 -0.752056 20.8313
-3.30083 -0.850361 4.07524
0.00840911 -0.159523 0.752917
-0.0146236 -0.0132258 0.355682
0.0658161 0.00996084 0.13513
-0.0318576 0.019958 0.0952745
0.0148495 0.26751 1.01531
-2.93517 0.321281 2.37218
-0.00731013 0.038855 0.10369
-0.448634 -0.0702048 1.60378
0.024014 -0.0285099 0.0699407
-0.029102 0.0105335 -0.0206088
0.010966 -0.0126983 0.154397
-0.00730688 -0.154565 0.734745
3.31428 -0.856855 4.09496
0.0161009 -0.0145207 0.390332
0.0324245 0.0204055 0.0981737
-0.0673291 0.0102965 0.1395
-0.0120171 0.263765 1.0084
0.00939642 0.0566688 0.141867
2.95623 0.324304 2.38702
0.450274 -0.0693574 1.60918
0.0293212 0.0105011 -0.0206984
-0.0233685 -0.0266291 0.066981
-0.0117936 -0.0126787 0.159755
-0.0221376 0.0498399 0.569887
6.84565e-05 0.0150756 0.827323
0.000519654 -0.0010994 0.167912
-2.37917e-19 -4.03502e-19 -4.26792e-17
-0.00666127 0.0274011 0.797237
-0.0016305 0.0099162 0.409763
-0.00503407 0.0122712 0.161027
0 0 0
-0.100588 -0.055448 0.196888
2.00409e-19 3.64178e-18 5.16423e-17
0.00510312 0.0109273 0.0440769
-0.108478 0.0983427 0.25995
0 0 0
0.0013581 0.0139977 0.0539981
0 0 0
0.00106188 -0.000360338 0.00593279
0.0211304 0.0451543 0.586072
0 0 0
0.000139417 0.0146987 0.828703
-0.000509768 -0.00189 0.163804
0.00730445 0.0276183 0.792139
0 0 0
0.00195107 0.00999724 0.405194
0.00509926 0.0125431 0.160005
0.0982168 -0.0530038 0.191569
0.100098 0.0905514 0.239088
5.36823e-07 -3.25739e-05 0.001446
-0.00475765 0.0101126 0.0401814
0 0 0
-0.00155189 -0.000512535 0.00865719
-0.00135982 0.0148226 0.0558549
0 0 0
-0.0120513 -0.0103412 0.197921
-1.14605 0.216548 0.791291
-3.94463e-09 -1.30786e-07 9.51328e-06
-0.00117331 -1.79814 1.27951
-0.000571524 -0.00153975 0.0291289
-7.94864e-07 1.22884e-07 4.51221e-05
0.00482089 0.00257494 0.0298619
-0.2274 0.088846 -0.0640639
3.43095e-05 0.00212223 0.0261637
0 0 0
0.00562495 0.0294167 0.248166
-2.2279e-07 -1.79745e-06 -7.01475e-05
-0.000824883 0.147806 0.0760199
-1.62157e-05 0.00864351 0.0697577
-2.7234e-05 -0.000178433 0.00105923
0 0 0
-2.70524e-05 0.0236715 -0.00660153
0 0 0
0.00588643 0.0121996 0.0761824
-0.000928652 -0.000659994 0.00159516
1.24667 0.23663 0.855974
0.0122778 -0.0104589 0.200989
7.67361e-07 1.21913e-07 4.23714e-05
0.000628559 -0.00178154 0.0321932
0.226194 0.087634 -0.0632839
-0.00249063 0.00132182 0.0153119
2.19911e-07 -1.96792e-06 -7.67522e-05
-0.00558304 0.0299768 0.252645
0 0 0
1.1767e-05 -7.7216e-05 0.000462688
0.00109959 -0.000774238 0.00189912
-0.00557454 0.0111195 0.0686241
-0.00177375 0.00906539 0.110447
0 0 0
0.000462283 -0.00248646 0.0165936
1.74366e-06 2.39861e-05 0.000449252
-4.65286e-08 3.8152e-07 5.30878e-05
0 0 0
1.97476e-05 0.00138357 0.0108667
0 0 0
-9.83439e-09 1.39874e-08 5.96888e-06
-3.42919e-10 3.86139e-08 1.03547e-06
0.000515718 0.00259258 0.0140887
0.0260283 0.0342994 0.686279
6.84866e-05 0.00615105 0.0192629
3.02372e-05 0.00217061 0.0137409
-6.734e-06 -4.89564e-05 0.00142641
-1.79062e-05 -0.0016007 0.00756407
0 0 0
0.00184311 0.00996179 0.112322
-0.00016252 -0.000847681 0.00561023
4.5058e-06 3.77123e-05 0.000662351