# vtk DataFile Version 2.0
tri_press
ASCII
DATASET UNSTRUCTURED_GRID
POINTS 3682 float
-0.725 0.215 -2.13272
-0.705227 0.355 2.245
-0.78485 0.775 -2.055
-0.704102 0.995 2.125
0.725 0.215 -2.13283
0.705357 0.355 2.245
0.784795 0.775 -2.055
0.704107 0.995 2.125
-0.782518 0.197557 -0.67348
-0.803702 0.216449 0.78576
-0.837904 0.928303 -0.661667
-0.792599 0.983248 0.731667
0.782572 0.197547 -0.673553
0.804051 0.216187 0.785723
0.838114 0.928548 -0.661667
0.792682 0.983345 0.731667
-1.51723 -0.187568 -3.27514
-1.5228 -0.140764 -2.13414
-1.56099 -0.147288 -0.673193
-1.56789 -0.132283 0.801017
-1.51023 -0.0329296 2.26308
-1.49225 0.0346133 3.40955
-1.49793 0.0849427 4.5459
-1.51947 0.139523 -3.25996
-1.52741 0.205055 -2.12616
-1.57445 0.213182 -0.67804
-1.56839 0.224776 0.776007
-1.47993 0.318075 2.22539
-1.47125 0.383798 3.37093
-1.48693 0.434143 4.50943
-1.54621 0.759784 -3.2111
-1.57392 0.824332 -2.0746
-1.615 0.929974 -0.67141
-1.56884 0.969275 0.727105
-1.47818 0.998524 2.13156
-1.47113 1.06253 3.27983
-1.48781 1.12229 4.42895
-1.56995 1.77671 -3.18737
-1.58563 1.85251 -2.06073
-1.60159 1.96518 -0.678918
-1.59057 2.04287 0.688689
-1.55937 2.08616 2.07119
-1.54007 2.12541 3.19929
-1.53279 2.17384 4.34121
-0.740181 -0.182583 -3.27942
-0.736657 -0.133299 -2.14037
-0.772045 -0.154939 -0.672381
-0.796592 -0.137969 0.809337
-0.757108 -0.0129527 2.27764
-0.741379 0.0491481 3.41943
-0.744727 0.0929154 4.55161
-0.73841 0.138943 -3.26129
-0.72164 0.398723 3.37908
-0.735492 0.441694 4.51374
-0.758763 0.739993 -3.20297
-0.721447 1.06536 3.27851
-0.736176 1.12528 4.42867
-0.778594 1.76427 -3.17933
-0.789994 1.8413 -2.05186
-0.808311 1.96426 -0.673575
-0.811359 2.04688 0.688038
-0.795041 2.08725 2.0666
-0.77998 2.12517 3.1947
-0.772656 2.17383 4.33788
0.776815 -0.18256 -3.27949
0.76208 -0.133289 -2.14046
0.789203 -0.154965 -0.672447
0.781946 -0.138139 0.809301
0.718485 -0.0130154 2.27763
0.733336 0.049106 3.41942
0.748094 0.0928767 4.5516
0.774388 0.138964 -3.26135
0.732399 0.398696 3.37907
0.748763 0.441661 4.51372
0.792446 0.740024 -3.203
0.731609 1.06534 3.2785
0.747813 1.12526 4.42866
0.800965 1.76434 -3.17935
0.801471 1.84139 -2.05188
0.789316 1.96436 -0.673591
0.758634 2.04694 0.688025
0.734768 2.08727 2.06659
0.735206 2.12517 3.19469
0.742267 2.17382 4.33786
1.54562 -0.187508 -3.27527
1.53574 -0.140712 -2.13428
1.56891 -0.147302 -0.673305
1.56365 -0.132493 0.800948
1.49603 -0.0330771 2.26304
1.48985 0.0345173 3.40952
1.50244 0.0848639 4.54587
1.54267 0.139591 -3.26008
1.5245 0.205136 -2.1263
1.57255 0.213233 -0.678147
1.57339 0.224565 0.775946
1.48787 0.317945 2.22536
1.48348 0.383719 3.37091
1.49985 0.434074 4.5094
1.56633 0.759877 -3.21118
1.56906 0.824467 -2.07466
1.60995 0.930226 -0.671457
1.57092 0.969318 0.727075
1.48518 0.998469 2.13154
1.48216 1.06249 3.27981
1.49867 1.12224 4.42893
1.58685 1.77684 -3.18743
1.59038 1.85267 -2.06078
1.58182 1.96535 -0.678956
1.54625 2.04298 0.688658
1.50965 2.0862 2.07117
1.50093 2.12541 3.19926
1.50446 2.17383 4.34118
-0.775703 0.495 -2.11464
0 0.178311 -2.16946
-0.777791 0.182247 -1.4031
-0.751922 0.675 2.23226
6.49989e-05 0.307356 2.29264
-0.786813 0.253376 1.51538
-2.75075e-05 0.860357 -2.14036
-0.845914 0.886189 -1.35833
2.5034e-06 1.05703 2.18703
-0.785629 1.0264 1.42833
0.776049 0.495 -2.11507
0.776706 0.183353 -1.40319
0.751847 0.675 2.23212
0.78716 0.253137 1.51536
0.845645 0.885965 -1.35833
0.784833 1.02561 1.42833
-0.790049 0.210065 0.0561399
-0.88053 0.56293 -0.667574
2.66844e-05 0.172561 -0.673517
-0.884622 0.599848 0.758713
0.000174151 0.180419 0.785742
-0.817601 0.958125 0.035
0.000105178 1.27141 -0.661667
4.13242e-05 1.43358 0.731667
0.79011 0.210068 0.056085
0.880294 0.563048 -0.66761
0.884999 0.599766 0.758695
0.817586 0.958135 0.035
-0.875347 0.528965 -1.38072
0.875334 0.529024 -1.38076
1.33422e-05 0.171689 -1.40315
3.88351e-05 0.977638 -1.35833
-1.37538e-05 0.495 -2.40346
-0.882551 0.581389 0.04557
0.882427 0.581407 0.0455425
0.000100418 0.179461 0.0561125
7.3251e-05 1.42067 0.035
-0.895335 0.637424 1.47186
0.895339 0.637383 1.47185
0.000119575 0.235431 1.51537
2.19138e-05 1.22892 1.42833
3.37511e-05 0.675 2.38334
-0.757115 0.355 -2.13044
-0.3625 0.177996 -2.16975
-0.771144 0.178875 -1.76791
-0.743248 0.515 2.2533
-0.352581 0.313798 2.2862
-0.771209 0.278999 1.88019
-0.779997 0.635 -2.08454
-0.392439 0.828362 -2.10836
-0.838424 0.853636 -1.70667
-0.723001 0.835 2.17362
-0.35205 1.04281 2.17281
-0.749275 1.01511 1.77667
0.3625 0.177766 -2.17004
0.757103 0.355 -2.13053
0.771319 0.17871 -1.76801
0.352711 0.31361 2.28639
0.74322 0.515 2.25317
0.771168 0.279159 1.88018
0.392384 0.829046 -2.10905
0.779966 0.635 -2.08458
0.838578 0.85384 -1.70667
0.352055 1.0429 2.1729
0.722537 0.835 2.17312
0.749459 1.01529 1.77667
-0.782593 0.187464 -1.03829
-0.786342 0.203752 -0.30867
-0.857595 0.367208 -0.670527
-0.396852 0.173847 -0.673498
-0.786926 0.243244 1.15057
-0.792066 0.218067 0.42095
-0.862877 0.398792 0.772237
-0.410309 0.181344 0.785751
-0.844195 0.909532 -1.01
-0.8776 0.754808 -0.66462
-0.827607 0.943069 -0.313333
-0.475158 1.21237 -0.661667
-0.803919 1.01963 1.08
-0.876388 0.810437 0.74519
-0.805238 0.970825 0.383333
-0.475172 1.3662 0.731667
0.782761 0.187328 -1.03837
0.396902 0.173848 -0.673535
0.786395 0.203753 -0.308734
0.857721 0.367154 -0.670582
0.78685 0.243417 1.15054
0.410592 0.181344 0.785733
0.792147 0.218061 0.420904
0.863022 0.398728 0.772209
0.843931 0.909308 -1.01
0.475338 1.21244 -0.661667
0.877327 0.754859 -0.664639
0.828052 0.943544 -0.313333
0.803806 1.01953 1.08
0.475531 1.3668 0.731667
0.876379 0.810325 0.745181
0.8053 0.970907 0.383333
-0.865638 0.511983 -1.74768
-0.387858 0.495 -2.32657
6.6711e-06 0.171178 -1.7863
-6.87689e-06 0.336656 -2.38704
-0.861723 0.355606 -1.39191
-0.388889 0.171693 -1.40312
-0.860355 0.656212 1.85206
-0.375944 0.675 2.3561
9.22869e-05 0.259895 1.90401
4.9375e-05 0.491178 2.37067
-0.878832 0.4454 1.49362
-0.393347 0.235417 1.51538
5.66376e-06 0.96274 -1.74935
-2.06307e-05 0.677678 -2.34967
-0.884777 0.707577 -1.36953
-0.422938 0.955445 -1.35833
1.22086e-05 1.09066 1.80768
1.81273e-05 0.866014 2.28901
-0.888873 0.831913 1.4501
-0.392804 1.19409 1.42833
0.865634 0.512012 -1.74791
0.388018 0.495 -2.32845
0.861733 0.356189 -1.39198
0.38836 0.171693 -1.40317
0.859754 0.656192 1.85198
0.37594 0.675 2.3561
0.878831 0.44526 1.4936
0.39364 0.235417 1.51537
0.884812 0.707494 -1.36955
0.422842 0.955703 -1.35833
0.888698 0.831497 1.45009
0.392427 1.19384 1.42833
-0.861074 0.38334 0.050855
-0.402283 0.180144 0.0561262
-0.880539 0.545948 -1.02415
-0.886061 0.57216 -0.311002
2.00133e-05 0.172152 -1.03833
6.35511e-05 0.179203 -0.308702
-0.882946 0.590619 0.402142
-0.890292 0.618636 1.11529
0.000137284 0.180013 0.420927
0.000146863 0.226839 1.15056
-0.877152 0.783295 0.040285
-0.506172 1.38422 0.035
7.20064e-05 1.06154 -1.01
8.92143e-05 1.39192 -0.313333
5.72876e-05 1.4213 0.383333
3.1619e-05 1.34134 1.08
0.861276 0.383234 0.0508137
0.402415 0.180146 0.0560987
0.880329 0.546036 -1.02419
0.892967 0.572227 -0.311034
0.883289 0.590587 0.402119
0.890354 0.618575 1.11527
0.876997 0.783266 0.0402712
0.506243 1.38423 0.035
-0.854135 0.355303 -1.75779
-0.876269 0.367925 -1.03122
-0.8804 0.726597 -1.01707
-0.876434 0.671289 -1.72717
0.854153 0.355594 -1.75796
0.876428 0.671247 -1.72729
0.879099 0.726646 -1.01709
0.876269 0.368243 -1.03128
-0.375694 0.171196 -1.77711
0.37543 0.171196 -1.77716
0.389829 0.172155 -1.03835
-0.390067 0.172155 -1.03831
-0.407688 0.913764 -1.72801
-0.420918 1.0069 -1.01
0.420976 1.00878 -1.01
0.407613 0.914477 -1.72801
-0.375179 0.345828 -2.31479
-0.390149 0.656339 -2.25027
0.390201 0.656339 -2.25017
0.375259 0.345828 -2.31474
-0.859288 0.375297 -0.309836
-0.861427 0.39134 0.411546
-0.876921 0.796941 0.392738
-0.880823 0.770775 -0.312168
0.859498 0.375194 -0.309884
0.877065 0.769014 -0.312184
0.876148 0.796526 0.392726
0.861748 0.391182 0.411512
-0.398208 0.179714 -0.308686
0.398297 0.17972 -0.308718
0.406502 0.180748 0.420916
-0.406295 0.180747 0.420939
-0.517298 1.35156 -0.313333
-0.49635 1.38656 0.383333
0.496445 1.38663 0.383333
0.517428 1.35161 -0.313333
-0.87505 0.426774 1.13293
-0.846145 0.4802 1.86612
-0.848143 0.833457 1.81436
-0.889674 0.811731 1.09764
0.87506 0.426619 1.13291
0.890024 0.811526 1.09764
0.847232 0.833249 1.81432
0.845747 0.48013 1.86608
-0.397555 0.226827 1.15056
0.397876 0.226827 1.15055
0.373175 0.259251 1.89209
-0.372964 0.259251 1.8921
-0.394541 1.31153 1.08
-0.372427 1.07586 1.79217
0.372241 1.0758 1.79217
0.394394 1.31165 1.08
-0.364263 0.503089 2.37444
0.364326 0.503089 2.37443
0.363998 0.850507 2.26656
-0.363997 0.850507 2.26655
-0.730536 0.285 -2.12106
-0.54375 0.189964 -2.15777
-0.744737 0.200273 -1.95032
-0.732354 0.435 2.25727
-0.528904 0.280723 2.31928
-0.74575 0.309467 2.06259
-0.785266 0.705 -2.07261
-0.588644 0.809043 -2.08904
-0.8219 0.824582 -1.88083
-0.715593 0.915 2.15135
-0.528076 1.02722 2.15722
-0.727325 1.00569 1.95083
0.54375 0.190013 -2.1578
0.730448 0.285 -2.12107
0.743483 0.201532 -1.95042
0.529034 0.278514 2.32149
0.732305 0.435 2.2571
0.745774 0.309568 2.06259
0.588589 0.808542 -2.08854
0.785242 0.705 -2.07265
0.822502 0.825236 -1.88083
0.528081 1.02722 2.15722
0.715607 0.915 2.15134
0.727373 1.00574 1.95083
-0.780684 0.194383 -0.855885
-0.784438 0.200647 -0.491075
-0.83549 0.274666 -0.672004
-0.595291 0.17449 -0.673489
-0.786253 0.238908 0.968165
-0.793004 0.222138 0.603355
-0.834957 0.306787 0.778998
-0.615519 0.18187 0.785755
-0.841843 0.919711 -0.835834
-0.867535 0.846447 -0.663144
-0.832786 0.935716 -0.4875
-0.686454 1.13018 -0.661667
-0.799343 1.00252 0.905833
-0.852869 0.90603 0.738428
-0.798471 0.976589 0.5575
-0.665074 1.2371 0.731667
0.780859 0.194245 -0.855963
0.59534 0.174492 -0.673544
0.784487 0.200647 -0.491144
0.835493 0.274677 -0.672068
0.78461 0.240643 0.968133
0.615775 0.181858 0.785728
0.792758 0.222465 0.603314
0.835033 0.30671 0.778966
0.841978 0.919884 -0.835834
0.686748 1.13054 -0.661667
0.867437 0.846562 -0.663153
[...]
POINT_DATA 3682
SCALARS point_scalars float 1
LOOKUP_TABLE default
-107.598
-38.0226
-63.3632
-37.4348
-109.388
-38.0393
-62.5643
-37.4818
-38.1522
-37.7442
-60.1187
-47.245
-38.157
-37.4182
-60.0321
-47.2618
-82.1925
-80.8265
-38.4815
-37.6238
-40.6373
-36.6209
-33.084
55.1005
-109.612
-39.6732
-38.4674
-40.9694
-35.7293
-33.084
65.9986
-102.102
-49.7529
-41.3039
-41.5988
-35.8441
-32.4722
-57.8278
-70.6137
-88.87
-57.7851
-39.8644
-36.2906
-34.8791
7.06233
-155.742
-38.4372
-41.2948
-37.5008
-36.0237
-31.365
124.362
-31.8382
-30.7035
161.191
-32.1101
-31.31
-47.8583
-61.2823
-90.5527
-61.2836
-37.1138
-33.6736
-31.7093
5.02048
-152.255
-38.456
-41.798
-36.0992
-37.031
-31.4074
123.832
-31.868
-30.782
160.897
-32.1495
-31.3381
-47.1418
-61.6533
-86.2332
-61.2547
-36.6578
-33.4206
-31.7275
-85.3331
-82.787
-38.4268
-37.7413
-40.6726
-36.6365
-33.103
55.0787
-109.433
-39.5323
-38.4853
-40.9578
-35.8064
-33.103
65.9076
-102.256
-49.7834
-41.2321
-41.4596
-35.8716
-32.4915
-56.9773
-71.6431
-88.833
-57.8002
-39.8189
-36.3229
-34.9042
-40.9531
-144.095
-54.2885
-35.6882
-29.2859
-38.0219
-40.3666
-45.8414
-32.6171
-48.8084
-41.1158
-54.7335
-35.7089
-38.0877
-45.9315
-48.6288
-36.1765
-41.7239
-40.0213
-38.4269
-42.3181
-53.746
-8.25094
-67.9749
-36.2664
-41.4592
-38.3729
-53.8696
-55.0289
-54.9608
-57.307
-7.0244
202.404
-40.6873
-40.4898
-36.6671
-85.2986
-45.0877
-45.0915
-36.6679
-43.6948
-24.8112
-21.6083
-158.048
-84.5232
-36.0354
-32.7946
-43.5676
-47.6631
-50.6196
-62.5763
-35.8579
-32.6495
-41.845
-158.299
-21.6701
-85.0205
-32.8105
-36.0458
-43.4751
-50.7808
-47.2845
-62.6661
-32.7142
-35.8918
-41.8576
-46.7418
-36.7666
-39.5641
-39.771
-36.6794
-36.5406
-36.6475
-42.0999
-44.686
-46.787
-57.988
-14.3464
-49.6062
-40.7809
-51.1372
-62.9705
-46.7469
-39.7693
-36.9231
-39.4171
-36.6891
-42.1108
-36.5914
-36.607
-44.5599
-14.5907
-46.5589
-58.1909
-49.675
-63.0144
-40.6748
-51.0938
-84.0614
174.541
-80.6892
131.485
-55.2299
-57.0762
-45.8867
-31.3801
-36.2912
-20.9391
-43.3275
-37.0278
-42.3118
178.493
-52.9961
-15.5302
-37.7347
-28.8659
-46.8315
-44.4738
-84.1469
174.49
-55.1265
-57.0382
-45.8351
-31.4066
-43.3272
-37.0312
-52.944
-15.7206
-46.7887
-44.4587
-38.3057
-36.4099
-46.4788
-42.8589
-45.5227
-37.6854
-39.5292
-41.1338
-38.3231
-37.2347
-45.3229
-77.0855
21.4751
-98.4039
-74.1776
-54.3218
-38.4225
-36.4299
-46.3095
-43.6509
-39.446
-41.0672
-45.3915
-77.0157
-86.2727
-49.9796
-44.6459
-82.0699
-86.5904
-81.9408
-44.2837
-49.8224
-80.4477
-80.4308
-45.2844
-45.3316
-41.2958
4.68859
5.19564
-41.3367
117.248
165.185
164.989
117.283
-39.2783
-37.8194
-43.6022
-48.1393
-39.6561
-48.2691
-43.5051
-37.7934
-37.3478
-37.3713
-37.9507
-37.943
-98.8887
-68.0772
-68.0512
-98.9657
-39.8653
-45.0004
-44.9706
-42.7099
-39.872
-42.8337
-44.9512
-44.7834
-37.0553
-37.0498
-37.4029
-37.4029
-54.751
-38.2309
-38.2481
-54.712
-30.3738
-30.4168
-31.4736
-31.4502
-16.7243
-178.071
-98.1036
-36.6102
-36.2827
-40.3425
-57.4896
-50.948
-71.3981
-37.1354
-33.9236
-38.9072
-178.125
-23.6547
-97.7237
-36.3525
-36.628
-40.3851
-50.452
-55.9074
-72.0298
-33.9409
-37.172
-38.8929
-39.9929
-37.3222
-38.6598
-39.1223
-43.5642
-35.5454
-36.1638
-42.0418
-50.8521
-51.6823
-60.0241
-61.5506
-46.1659
-43.2794
-48.9774
-54.7698
-39.9845
-39.1326
-37.3821
-38.5899
-43.5266
-42.0319
-35.9781
-36.0336
-50.8059
-61.6125
-51.7207
-60.0372
-46.2644
-54.7938
-43.3045
-48.9683
-41.6438
-37.9877
-120.519
126.872
-143.553
-145.795
-102.025
129.377
-65.3988
-50.0926
-54.6654
-56.3175
-35.7802
-35.2309
-41.1416
-32.2581
-30.445
-30.4517
-33.3878
-23.0728
-43.9683
-39.2647
-42.1195
-37.4315
-40.8644
-40.894
-46.7713
80.1964
-53.3814
-41.5657
-51.6098
-27.2787
-32.5209
-32.524
-35.0282
-29.8804
-45.6311
-50.3913
-47.6463
-46.9736
-41.8001
-37.8434
-120.531
126.87
-65.4876
-49.0845
-54.5811
-56.4108
-35.7953
-35.2635
-41.1299
-32.2727
-44.0035
-39.3043
-42.1436
-37.4453
-53.3634
-41.4957
-51.7031
-27.1716
-45.5134
-50.5231
-47.5452
-46.9409
-36.1811
-36.5317
-37.3821
-36.1577
-40.5507
-43.5267
-42.6397
-41.0441
-39.9439
-39.9622
-42.2515
-38.721
-37.7227
-39.3843
-38.8952
-39.276
-42.2526
-42.2646
-39.9081
-41.639
-55.799
-52.3663
-48.8095
-62.5057
-7.69926
-7.65654
24.1067
-78.1125
-65.2304
-65.2363
-68.785
-60.3443
-36.3509
-36.5508
-37.5181
-36.1995
-40.3499
-43.2645
-42.5016
-39.8563
-37.7042
-39.1851
-38.8224
-39.4501
-56.0541
-52.295
-48.9754
-62.6233
-65.7483
-55.2454
-53.8703
-48.3874
-65.7474
-55.173
-53.8002
-48.2405
-67.1987
-57.2421
-57.2262
-50.2619
-24.5459
-9.32342
-9.46324
5.73762
192.007
194.814
199.605
192.055
-39.3188
-41.7264
-40.2055
-42.4854
-39.2811
-43.529
-40.0496
-42.3481
-36.5882
-36.5739
-37.2571
-36.597
-83.8778
-92.2661
-79.2153
-83.8791
-46.2646
-44.1944
-45.4967
-42.2491
-46.2295
-44.1935
-45.4946
-42.2579
-38.125
-36.7623
-36.7628
-36.8481
-39.8901
-43.8761
-43.8719
-48.4091
-26.6718
-22.29
-26.7785
-26.7068
-109.475
71.8351
-106.132
113.92
-87.8645
-80.4692
-40.6763
-31.8842
-35.1352
-30.6215
-44.2468
-38.842
-110.965
98.7736
-51.2618
53.2398
-75.0241
-47.5875
-41.528
-32.3117
-35.3587
-31.5602
-43.8911
-39.1357
-106.075
113.878
-109.338
71.7675
-87.3974
-80.5235
-35.1292
-30.6714
-40.6777
-31.9048
-44.1519
-38.826
-50.9734
49.291
-111.472
98.7103
-74.9074
-47.7437
-35.3648
-31.5734
-41.4087
-32.328
-43.7848
-39.1343
-49.5479
-45.0922
-37.8999
-37.0223
-41.0285
-38.977
-41.9116
-38.3384
-38.9461
-36.8247
-37.3421
-37.3525
-37.1234
-40.507
-39.6015
-41.7618
-45.3557
-16.4901
-44.9938
-47.4276
-52.1333
-77.2736
10.1012
-57.0141
-45.2792
-56.2112
-42.3737
-40.7448
-46.9166
-57.2857
-65.2618
-60.2841
-49.3997
-45.0127
-41.8889
-38.3532
-38.1599
-37.0767
-40.8829
-38.8774
-38.9464
-36.8165
-39.6054
-41.7392
-37.362
-37.3707
-37.1003
-40.5154
-45.1299
-16.5999
10.4209
-56.7405
-44.95
-47.3244
-52.2226
-77.2805
-45.3953
-56.2367
-65.2277
-60.323
-42.2423
-40.7108
-46.8123
-57.294
-84.9702
-82.5998
165.347
166.99
-80.3798
-80.3622
126.416
126.772
-66.9849
-48.3278
-66.8886
-50.1841
-45.5711
-45.9211
-30.5336
-31.0093
-36.6107
-36.6086
-24.0239
-24.0809
-40.8364
-46.4511
-36.9238
-39.0448
-40.7238
-40.7049
168.331
168.288
-47.4267
-63.7208
-29.0458
-5.22501
-37.9083
-37.9057
-29.8249
-29.8073
-47.0466
-44.565
-49.1792
-40.7622
-85.0417
-82.612
166.702
165.048
-67.0221
-48.1704
-66.8744
-50.1272
-45.8874
-45.5387
-30.5772
-31.0334
-40.8364
-46.631
-36.9249
-39.0512
-63.6731
-47.2773
-5.72438
-29.2276
-44.7089
-47.0485
-40.7635
-49.1557
-38.6452
-38.343
-36.3555
-36.9626
-47.8626
-45.0384
-41.2204
-44.8207
-45.4658
-45.4891
-37.5802
-37.5884
-38.5321
-41.0172
-40.4348
-41.8109
-38.2528
-38.2494
-37.2212
-37.2191
-44.4714
-46.571
-85.8034
-71.2778
16.8379
16.7686
-97.6532
-97.7377
-73.1765
-73.1842
-54.5594
-54.5384
-39.2084
-38.3113
-36.3793
-36.9768
-44.8047
-47.7067
-41.3413
-45.0643
-40.946
-38.4486
-40.4395
-41.7959
-47.3265
-44.5345
-71.336
-85.8343
-105.124
-67.5089
-66.4172
-116.638
-40.1926
-41.9726
-48.1408
-49.3132
-48.7662
-46.432
-48.1004
-43.3672
-93.1703
-120.201
-64.8849
-62.1885
-105.543
-116.513
-66.4375
-66.9242
-94.0853
-62.1133
-64.8607
-120.459
-48.7627
-43.2478
-47.9761
-46.1967
-40.0939
-49.1106
-47.9926
-41.8124
-110.066
-102.807
-67.0903
-66.3356
-110.076
-66.2129
-67.1861
-102.719
-41.3805
-42.0914
-50.2562
-49.7047
-41.3984
-49.8893
-50.287
-42.1054
-58.3298
-36.1287
-24.4022
-52.1797
-24.2402
22.1368
3.61038
-19.0415
-24.7196
-18.3588
3.5528
22.0503
-58.5325
-52.0854
-24.4579
-36.2027
94.3616
116.075
183.682
121.016
50.4071
80.3294
185.009
104.195
50.0701
104.07
185.072
79.9374
94.0161
121.645
183.701
115.963
-38.0899
-37.5228
-39.9696
-39.476
-36.4765
-38.0199
-39.0702
-37.6807
-45.3257
-47.989
-41.7993
-40.17
-52.5647
-43.2886
-43.7644
-50.4551
-38.094
-39.0449
-41.4035
-37.8777
-52.3564
-50.7923
-45.5583
-42.6872
-45.1833
-40.0884
-41.7195
-48.0519
-36.6069
-37.6992
-38.9778
-37.96
-37.9336
-38.6989
-36.5142
-36.0774
-37.9702
-36.133
-36.5227
-38.6815
-38.8244
-39.8616
-37.1916
-36.6334
-38.8298
-36.6066
-37.1857
-39.8574
-91.5282
-67.9174
-91.8779
-71.7365
-54.6504
-68.767
-77.5499
-59.8704
-54.6663
-59.5653
-77.5482
-68.7439
-91.378
-71.5846
-91.8808
-67.9934
-41.2411
-40.3084
-41.6086
-39.632
-40.5399
-41.0061
-46.368
-46.3018
-41.0482
-46.2106
-46.8098
-41.3202
-43.1366
-39.5163
-43.4051
-46.9271
-41.2587
-39.6722
-41.5977
-40.3365
-43.2076
-47.2217
-43.4153
-39.7887
-40.9959
-41.2775
-46.8567
-46.0262
-40.5652
-46.3097
-46.3652
-40.9979
-41.4652
-41.6899
-36.8679
-37.107
-41.4531
-37.1108
-36.8681
-41.6587
-36.5216
-33.9829
-38.3548
-40.5151
-36.5296
-40.4908
-38.3509
-33.9807
-54.2863
-52.1245
-48.5878
-60.7059
-36.3741
-35.0428
-40.1388
-42.226
-36.3759
-42.2028
-40.1375
-35.0492
-54.2829
-60.7147
-48.5997
-52.2185
-32.2327
-25.9271
-24.1612
-31.9608
-32.2655
-31.9788
-24.1921
-26.0123
-32.5383
-30.5133
-28.5236
-32.3441
-32.5215
-32.3281
-28.4966
-30.4669
-57.6289
-125.712
-151.659
-37.4235
-37.5248
-39.2607
-61.0171
-46.5258
-85.5841
-37.5767
-35.0982
-37.6393
-126.141
-63.3948
-151.936
-37.5595
-37.4448
-39.2469
-46.3633
-60.5763
-84.9069
-35.1222
-37.6174
-37.6558
-38.937
-37.7138
-38.2043
-38.4924
-43.9878
-35.8149
-36.712
-41.2079
-59.5505
-55.5509
-60.487
-77.2228
-45.8682
-45.6163
-48.2131
-49.4495
-38.9519
-38.5103
-37.7425
-38.1755
-44.3345
-41.25
-35.4479
-36.2503
-59.4457
-76.8919
-55.4705
-60.4406
-45.9367
-49.4803
-45.5897
-48.2109
-41.274
-41.2877
-118.146
69.2953
-141.981
-144.029
-119.466
2.10394
-59.137
-51.5506
-54.2914
-55.7203
-35.9853
-35.5585
-38.5868
-32.8105
-29.649
-29.6558
-31.3736
-25.8669
-38.9847
-38.601
-40.772
-37.5578
-40.2311
-40.3844
-26.9923
-73.7112
-49.2415
-43.3773
-50.7602
-34.7084
-32.6196
-32.6187
-33.5753
-31.1945
-47.1492
-49.7351
-47.99
-48.347
-41.3992
-41.448
-118.386
69.0019
-59.4102
-51.7127
-54.3592
-55.7239
-35.9345
-35.5864
-38.6015
-32.831
-39.0359
-38.5811
-40.8095
-37.5884
-49.2686
-43.5491
-50.8791
-34.5561
-46.8716
-49.7727
-47.9242
-48.2807
-36.1715
-36.3467
-36.8416
-35.9426
-41.0725
-42.4948
-41.986
-41.4914
-40.0288
-40.0266
-40.9295
-39.2523
-38.0892
-38.7924
-38.5874
-38.6318
-42.2634
-42.2705
-41.0014
-44.439
-54.8456
-53.1435
-51.5687
-57.2943
-7.47067
-7.42089
10.1191
-41.3839
-66.5932
-66.5935
-64.7958
-65.4616
-36.3026
-36.3953
-36.9638
-36.005
-40.8209
-42.224
-41.8412
-41.0665
-38.0703
-38.6791
-38.4668
-38.674
-55.0395
-53.2113
-51.7258
-57.3716
-59.7071
-55.2313
-54.6136
-51.1445
-59.6765
-55.1646
-54.5409
-51.0397
-61.9711
-57.3608
-57.3498
-53.5658
-15.3578
-7.48576
-7.57143
-0.4626
198.078
206.117
192.934
198.054
-39.9605
-40.8705
-40.4672
-41.4703
-39.8041
-42.0805
-40.2893
-41.2563
-36.6401
-36.5459
-36.912
-36.6437
-84.9631
-88.0131
-82.8131
-84.956
-45.4988
-44.6998
-45.545
-42.9832
-45.5104
-44.7048
-45.5469
-42.9917
-37.1112
-36.7109
-36.7106
-36.7192
-41.7313
-43.7121
-43.6961
-45.9347
-24.753
-21.745
-27.6574
-24.7753
-27.8405
-36.2722
-122.508
70.698
-157.763
-150.849
-129.286
-6.40485
-90.3797
-73.6576
-80.3425
-81.1493
-36.1678
-35.9234
-38.6818
-32.8115
-33.8034
-31.4372
-33.6929
-31.3493
-41.2821
-45.6131
-44.3591
-40.1616
-46.468
-45.3844
-107.742
58.6869
-57.3103
-49.6232
-52.4393
-62.8361
-69.5205
-55.5918
-69.1917
-52.4078
-36.4412
-35.1728
-40.2564
-33.0686
-33.1226
-32.4589
-33.9686
-31.7517
-40.1975
-43.4629
-42.939
-40.1161
-157.769
-151.547
-129.267
-6.13558
-28.2376
-36.4284
-122.386
70.5505
-89.9319
-73.9356
-79.4759
-81.3171
-33.8331
-31.4492
-33.6852
-31.3982
-36.1807
-35.9384
-38.6613
-32.8338
-41.3071
-45.5507
-44.2555
-40.0827
-57.1439
-49.4154
-52.635
-62.4317
-45.9466
-44.2762
-107.453
58.7381
-69.9296
-55.7132
-69.1992
-52.5032
-33.137
-32.5068
-33.9767
-31.7707
-36.4779
-35.2006
-40.3227
-33.0866
-40.2088
-43.4523
-42.9029
-40.1101
-42.4985
-49.244
-49.3179
-44.8991
-37.2354
-36.39
-37.1926
-36.9537
-39.0975
-40.0725
-40.0707
-39.1719
-39.5694
-39.8581
-40.7866
-38.898
-37.4252
-37.5216
-38.0343
-36.5405
-36.48
-36.7225
-37.0803
-36.7211
-35.9211
-37.4243
-36.9107
-36.2999
-42.12
-42.2269
-40.7476
-44.6151
-46.3723
-40.767
-47.0998
-27.6984
-48.7606
-44.9805
-45.7983
-47.2541
-59.1013
-57.0174
-55.2597
-65.5452
-27.4851
-9.68857
2.35244
-33.7482
-47.9558
-50.1817
-47.6391
-53.1127
-41.7414
-39.8735
-41.5639
-40.5452
-49.9194
-52.2123
-49.1751
-53.8792
-60.4886
-64.3001
-64.6248
-61.6056
-42.51
-48.2783
-49.5128
-44.831
-39.5726
-39.8541
-40.7755
-38.9047
-37.3411
-36.5691
-37.3978
-37.0408
-38.9966
-39.862
-39.9358
-39.029
-37.2503
-37.6213
-38.0279
-36.5322
-42.1233
-42.2407
-40.7525
-44.6493
-36.6413
-36.7492
-37.1186
-36.7609
-35.8887
-37.379
-36.8423
-36.3206
-46.2772
-40.5429
-46.8733
-28.0013
-28.083
-9.91877
2.32295
-34.5738
-48.9907
-44.6605
-45.6963
-47.0765
-59.1894
-57.3105
-55.4072
-65.5946
-47.9086
-50.2832
-47.7025
-53.0848
-60.5026
-64.328
-64.5587
-61.6963
-41.7352
-39.6963
-41.4219
-40.4006
-49.892
-52.1769
-49.1011
-53.8481
-101.997
-73.3932
-84.5211
-83.4155
155.449
183.506
175.028
164.959
-89.5096
-73.6149
-80.4813
-80.4799
114.376
168.877
126.155
126.01
-55.0519
-55.228
-60.2655
-51.5784
-56.9508
-57.2885
-61.5564
-53.439
-43.3154
-47.4869
-45.7909
-45.9813
-32.0155
-29.5431
-30.6641
-31.0876
-35.1442
-37.4167
-36.3733
-36.3721
-20.4985
-21.7309
-21.8345
-21.8805
-42.7751
-43.8808
-41.3599
-44.3782
-37.2246
-36.889
-36.9266
-37.6834
-54.9822
-32.8654
-41.6274
-41.6443
157.461
195.064
169.392
169.537
-52.4763
-53.3914
-49.6511
-57.7585
-20.9207
-11.6741
-22.0541
-9.66754
-36.4264
-38.647
-37.8079
-37.8061
-29.5744
-27.6588
-28.9786
-29.0388
-47.478
-45.7113
-47.4691
-45.4322
-45.2706
-44.0524
-46.6071
-42.4177
-102.089
-73.4221
-84.6089
-83.4782
155.137
183.738
165.006
174.648
-54.9052
-55.148
-60.3115
-51.4623
-56.914
-57.2563
-61.5338
-53.39
-43.2589
-47.48
-45.9373
-45.746
-32.0299
-29.585
-30.7052
-31.1159
-42.7818
-43.8824
-41.3643
-44.4093
-37.2312
-36.89
-36.9295
-37.6881
-52.5119
-53.3275
-57.7114
-49.5331
-20.9595
-11.89
-9.81957
-22.317
-47.399
-45.6934
-45.651
-47.5054
-45.2455
-44.0429
-42.412
-46.5867
-37.8564
-38.8493
-38.4747
-38.2647
-36.2873
-36.5131
-36.3294
-36.622
-44.0162
-47.9858
-47.3096
-45.7031
-41.9403
-42.7144
-42.1071
-43.6937
-43.6775
-47.7098
-45.5448
-45.5561
-38.8006
-36.7919
-37.6135
-37.6175
-39.1629
-39.9249
-38.9601
-40.1708
-40.1209
-41.8546
-40.723
-41.5183
-39.0073
-37.73
-38.3006
-38.2989
-38.5423
-36.828
-37.3135
-37.3115
-46.9137
-43.7034
-44.8339
-45.82
-70.5391
-81.8475
-80.4953
-73.9773
27.8421
12.0933
19.493
19.3193
-98.9304
-96.832
-98.1572
-98.2337
-71.5116
-76.9569
-74.0264
-74.0259
-57.6262
-51.2369
-54.3807
-54.371
-37.9914
-38.9307
-38.76
-38.286
-36.3165
-36.5261
-36.3517
-36.6392
-43.8463
-47.8492
-45.5142
-47.1451
-41.4587
-43.5635
-42.5815
-44.494
-39.0991
-39.8017
-40.0815
-38.9139
-40.1311
-41.8676
-40.7147
-41.4123
-47.0489
-43.669
-46.0274
-44.8668
-70.5897
-81.8286
-73.9365
-80.4835
-98.878
-87.1681
-85.5844
-75.2442
-50.7017
-44.634
-48.8891
-48.7796
-44.5878
-44.2345
-46.1004
-44.7822
-95.9448
-80.285
-81.5837
-71.5963
-98.8905
-87.7219
-85.7273
-75.2515
-96.3157
-80.0793
-81.5397
-71.5251
-44.343
-44.2578
-45.7341
-44.4893
-50.5682
-44.4862
-48.6631
-48.6257
-90.6798
-80.4935
-80.4647
-73.0685
-90.6456
-80.5028
-80.4338
-73.0582
-45.1722
-43.4271
-47.4642
-45.4186
-45.2334
-43.4618
-47.6979
-45.4533
-47.4811
-44.234
-40.061
-34.8217
-6.57007
9.97483
0.807589
11.8856
-5.54931
10.3743
-0.597667
11.8476
-47.3874
-44.323
-39.9158
-35.036
91.6913
109.275
150.173
121.181
124.084
140.679
168.903
170.128
140.94
123.378
170.316
169.355
109.327
91.7426
121.357
150.072
-38.5455
-39.138
-39.1001
-40.1284
-37.6104
-37.4237
-38.0856
-38.1403
-42.9997
-45.0421
-42.1667
-44.0627
-47.548
-50.2288
-46.3336
-47.832
-38.8669
-39.1437
-39.8571
-40.2173
-47.5381
-50.1639
-46.0863
-48.6424
-42.9094
-44.9526
-42.0667
-44.0703
-37.6004
-37.4419
-38.0368
-38.0857
-37.1829
-38.1902
-36.5573
-37.4824
-38.213
-37.2187
-37.4974
-36.5804
-38.6585
-37.7292
-38.1309
-37.44
-37.7177
-38.6534
-37.429
-38.1253
-97.2298
-83.9657
-92.7388
-99.1344
-62.7713
-66.4854
-69.9569
-71.5509
-66.4707
-62.7021
-71.5482
-69.9795
-83.553
-97.1914
-99.198
-92.8218
-39.5545
-40.8463
-40.3624
-40.1965
-42.9564
-44.3403
-45.3762
-46.8246
-43.4552
-44.4376
-45.4953
-46.439
-43.879
-41.571
-43.8573
-42.0094
-39.5557
-40.8503
-40.3606
-40.2185
-43.9671
-41.792
-43.7616
-42.1302
-43.3318
-44.3843
-45.4576
-46.3164
-42.9819
-44.1968
-45.2154
-46.8233
-36.9929
-38.3611
-36.7704
-37.2199
-36.9856
-38.3311
-36.7682
-37.2143
-36.5741
-38.0199
-36.9513
-38.4076
-36.5765
-38.0244
-36.9496
-38.4035
-55.7779
-58.0994
-51.8045
-54.5996
-36.6438
-38.591
-38.0474
-39.4721
-36.6457
-38.6033
-38.039
-39.4809
-55.7846
-58.0609
-51.8064
-54.5426
-31.405
-30.3143
-30.4995
-27.1905
-30.3593
-31.4323
-27.2355
-30.544
-31.5646
-31.9644
-30.6871
-31.2582
-31.9384
-31.5426
-31.2377
-30.6638
-148.319
82.527
-140.812
11.0783
-95.8707
-107.928
-39.0707
-33.3912
-33.9136
-34.5034
-40.7783
-38.2039
-100.679
41.6239
-63.014
-19.2952
-84.2297
-64.4561
-40.7669
-33.6596
-34.9777
-33.0772
-40.2724
-37.2737
-140.84
10.6593
-147.563
81.3324
-95.9958
-107.801
-33.7651
-34.603
-39.0569
-33.4163
-40.8374
-38.207
-62.6141
-19.5376
-100.096
41.66
-84.985
-64.6987
-34.9861
-33.0994
-40.8163
-33.6809
-40.183
-37.2757
-39.7411
-40.7309
-37.5702
-37.4787
-39.1456
-38.3129
-39.9431
-38.3348
-42.6883
-41.8048
-35.8407
-37.5684
-36.5369
-37.3326
-40.1332
-45.7842
-52.3389
-42.5792
-50.5102
-52.3818
-56.3904
-71.305
-35.8494
-86.0493
-45.0859
-49.3265
-44.2591
-42.3609
-47.4009
-50.784
-54.1487
-53.6441
-39.6809
-40.7358
-39.9402
-38.3576
-37.6046
-37.5324
-39.078
-38.264
-42.7336
-41.7642
-40.1145
-45.7836
-36.2528
-37.5542
-36.3733
-37.3601
-52.2842
-42.8381
-36.4737
-86.0095
-50.4913
-52.2159
-56.3286
-71.3016
-45.1925
-49.398
-54.1679
-53.6691
-44.2608
-42.405
-47.3726
-50.7852
-118.406
64.2551
-115.008
59.1287
-118.665
-119.04
131.523
106.958
-121.62
39.2001
-121.857
39.8048
-102.21
-102.205
107.847
108.665
-67.8305
-65.6808
-49.6862
-49.7216
-59.6086
-51.3827
-60.7893
-52.922
-38.5783
-32.7048
-39.6729
-32.9139
-41.0866
-41.312
-32.096
-32.3813
-32.0528
-27.7816
-32.0607
-27.8515
-33.5653
-33.5635
-23.8964
-24.0119
-45.7789
-41.9909
-39.4936
-37.5272
-40.8695
-43.025
-37.208
-38.4563
-39.7351
-84.2139
-39.8124
-80.6683
-47.8086
-47.6975
100.658
101.709
-59.5629
-42.3422
-46.0983
-29.4666
-48.6788
-55.8456
-31.3655
-22.7937
-33.7091
-31.3418
-33.714
-31.3526
-35.0397
-35.0467
-30.2962
-30.2326
-45.951
-44.1328
-48.872
-52.324
-47.3496
-47.1804
-49.7384
-44.4229
-118.407
64.0816
-114.95
58.9922
-118.636
-118.998
106.652
131.375
-68.0403
-65.7716
-49.4088
-49.3851
-60.1644
-51.2234
-61.0932
-52.824
-38.5682
-32.7253
-39.6984
-32.9339
-41.2913
-41.0757
-32.1129
-32.3951
-45.7697
-42.0657
-39.5749
-37.529
-40.8903
-43.0468
-37.217
-38.4732
-59.4694
-42.3937
-45.9436
-29.2701
-55.8045
-48.617
-22.5902
-31.379
-45.6705
-44.0845
-48.9505
-52.3396
-47.6549
-46.9817
-44.3947
-49.6569
-36.87
-35.8484
-37.2148
-36.3218
-37.4623
-37.4713
-36.0739
-36.3454
-41.0456
-40.1626
-43.3101
-43.6773
-42.2836
-42.9683
-39.9285
-42.1163
-40.8545
-39.1905
-40.8457
-39.1923
-42.1447
-42.1519
-38.769
-38.7706
-37.7647
-38.0508
-39.7518
-39.2566
-38.4281
-39.4309
-39.4257
-39.273
-40.8848
-44.625
-40.891
-44.658
-39.9125
-39.9102
-41.8527
-41.8364
-53.0762
-60.8299
-50.3336
-55.1823
-48.1229
-49.5535
-64.9978
-59.894
9.302
-34.6151
9.18174
-34.3198
23.542
23.4199
-76.2154
-75.605
-67.2597
-62.8122
-67.2624
-62.8143
-69.036
-69.0313
-60.7291
-60.7206
-37.1337
-35.939
-37.2302
-36.3563
-37.7044
-37.5372
-36.1236
-36.3785
-40.8524
-39.8399
-43.1389
-43.3248
-42.8341
-42.14
-38.9352
-40.7632
-37.6864
-38.1106
-39.6177
-39.2431
-39.3666
-38.3526
-39.4898
-39.546
-53.3544
-60.9236
-50.322
-55.1221
-49.7884
-48.2635
-60.1271
-65.0908
-66.139
-65.3015
-60.127
-51.3952
-50.3169
-58.7706
-48.233
-48.6003
-66.1467
-65.2895
-60.1222
-51.2839
-58.7272
-50.203
-48.4626
-48.0833
-67.2027
-67.1953
-61.9559
-53.6148
-61.7559
-53.5093
-50.4215
-50.439
-23.9463
-24.3975
-16.8798
-2.78409
-2.84441
-17.0063
5.35873
5.5631
201.217
181.528
191.392