# vtk DataFile Version 2.0
tet_velo
ASCII
DATASET UNSTRUCTURED_GRID
POINTS 29498 float
-0.695 0.215 -2.08442
-0.7509 0.295 2.145
-0.755 0.770663 -1.955
-0.714843 0.995 2.125
0.695 0.215 -2.08442
0.750895 0.295 2.145
0.755 0.770663 -1.955
0.71484 0.995 2.125
-0.750873 0.204427 -0.674613
-0.805567 0.195033 0.735193
-0.811095 0.914923 -0.595
-0.784165 0.976158 0.765
0.750871 0.204427 -0.674613
0.805563 0.195033 0.735193
0.811124 0.914953 -0.595
0.784164 0.976159 0.765
-1.46389 -0.177554 -3.22873
-1.4683 -0.132579 -2.12084
-1.51365 -0.142043 -0.709742
-1.55519 -0.156391 0.711376
-1.53545 -0.0936164 2.12331
-1.52595 -0.0412044 3.23535
-1.52924 0.00173339 4.33973
-1.46503 0.144873 -3.18193
-1.4712 0.206861 -2.07947
-1.52542 0.217243 -0.67807
-1.56142 0.208764 0.727816
-1.51781 0.272383 2.13017
-1.51451 0.323724 3.2415
-1.5244 0.365736 4.34751
-1.49215 0.758613 -3.07434
-1.51866 0.818329 -1.96983
-1.56821 0.922106 -0.602377
-1.55382 0.966739 0.761543
-1.49503 0.995635 2.12995
-1.5036 1.0441 3.24334
-1.52205 1.08934 4.35737
-1.52194 1.77227 -2.95041
-1.53873 1.84461 -1.85335
-1.56147 1.96012 -0.502052
-1.56455 2.05073 0.838514
-1.55036 2.10375 2.19033
-1.54382 2.14003 3.28848
-1.5457 2.17847 4.39707
-0.712537 -0.173093 -3.23195
-0.707972 -0.125257 -2.12552
-0.742398 -0.147586 -0.709114
-0.786278 -0.166176 0.717672
-0.77389 -0.0836331 2.13432
-0.766762 -0.0336825 3.24282
-0.769756 0.00553917 4.34405
-0.710242 0.143565 -3.18292
-0.758981 0.332435 3.24766
-0.767091 0.369815 4.35077
-0.730721 0.738647 -3.06818
-0.750066 1.04665 3.24235
-0.766641 1.09158 4.35716
-0.753265 1.75845 -2.94432
-0.764614 1.83147 -1.84664
-0.785175 1.95681 -0.498008
-0.794722 2.05418 0.838028
-0.788861 2.10647 2.18687
-0.784553 2.14156 3.28502
-0.786063 2.17963 4.39456
0.749625 -0.173089 -3.23195
0.733354 -0.125255 -2.12552
0.767774 -0.147585 -0.709114
0.791279 -0.166175 0.717672
0.7549 -0.0836328 2.13432
0.749062 -0.0336817 3.24282
0.747637 0.0055406 4.34405
0.746057 0.143568 -3.18292
0.742523 0.332435 3.24766
0.743578 0.369816 4.35077
0.764304 0.738651 -3.06818
0.729502 1.04665 3.24235
0.736445 1.09158 4.35716
0.778285 1.75846 -2.94432
0.780204 1.83148 -1.84664
0.774185 1.95682 -0.498008
0.753402 2.05418 0.838028
0.734519 2.10647 2.18687
0.730748 2.14156 3.28502
0.730697 2.17964 4.39456
1.49308 -0.177544 -3.22873
1.48192 -0.13257 -2.12084
1.52658 -0.142036 -0.709742
1.56227 -0.156389 0.711376
1.53097 -0.093615 2.12331
1.51517 -0.0412023 3.23535
1.51084 0.00173631 4.33973
1.48805 0.144883 -3.18193
1.46786 0.206872 -2.07947
1.52272 0.217254 -0.67807
1.56595 0.208766 0.727816
1.52342 0.272384 2.13017
1.50638 0.323726 3.2415
1.50496 0.365738 4.34751
1.51195 0.758626 -3.07434
1.51326 0.818346 -1.96983
1.56148 0.922136 -0.602377
1.5538 0.966745 0.761543
1.49737 0.995637 2.12995
1.49016 1.0441 3.24334
1.49542 1.08934 4.35737
1.54115 1.77229 -2.95041
1.54685 1.84463 -1.85335
1.54779 1.96014 -0.502052
1.52829 2.05075 0.838513
1.50323 2.10376 2.19033
1.49435 2.14004 3.28848
1.49261 2.17848 4.39707
-0.768837 0.492832 -2.06355
0 0.202706 -2.09671
-0.73312 0.19953 -1.37952
-0.753571 0.645 2.1557
-2.47359e-06 0.297483 2.14252
-0.784952 0.238298 1.4401
0 0.830935 -2.01527
-0.807465 0.86721 -1.275
-1.49012e-06 1.04848 2.17848
-0.754901 0.990976 1.445
0.768835 0.492832 -2.06355
0.733119 0.19953 -1.37952
0.753559 0.645 2.15569
0.784934 0.238312 1.4401
0.80748 0.867226 -1.275
0.754903 0.99098 1.445
-0.7735 0.20445 0.03029
-0.855135 0.559675 -0.634807
-8.60092e-07 0.205455 -0.674613
-0.867865 0.585595 0.750097
-1.64906e-06 0.191121 0.735193
-0.807398 0.955308 0.085
1.4742e-05 1.25769 -0.595
-5.69308e-07 1.41687 0.765
0.773498 0.20445 0.03029
0.855133 0.55969 -0.634807
0.867871 0.585596 0.750097
0.807398 0.955309 0.085
-0.886282 0.526253 -1.32726
-0.864976 0.572635 0.057645
-0.894259 0.615298 1.44255
-4.30046e-07 0.198141 -1.37952
-1.25458e-06 0.204909 0.03029
-2.06133e-06 0.216115 1.4401
0 0.492832 -2.31433
-1.98185e-06 0.645 2.27128
7.37101e-06 0.960013 -1.275
7.08635e-06 1.42187 0.085
-1.02971e-06 1.24732 1.445
0.886281 0.526261 -1.32726
0.864976 0.572643 0.057645
0.894256 0.615298 1.44255
-1.0831 0.21093 -2.08195
-0.701486 0.0448717 -2.10497
-0.702621 0.179282 -2.63367
-1.13436 0.283692 2.13759
-0.762395 0.105683 2.13966
-0.754941 0.313717 2.69633
-1.13683 0.794496 -1.96241
-0.742861 0.754655 -2.51159
-0.759807 1.30107 -1.90082
-1.10494 0.995318 2.12747
-0.732454 1.02082 2.68367
-0.751852 1.55074 2.15593
0.714177 0.0448727 -2.10497
0.720528 0.179284 -2.63367
1.08143 0.210936 -2.08195
0.752897 0.105684 2.13966
0.746709 0.313718 2.69633
1.13716 0.283692 2.13759
0.759652 0.754657 -2.51159
0.767602 1.30107 -1.90082
1.13413 0.794505 -1.96241
0.722171 1.02082 2.68367
0.72468 1.55074 2.15593
1.1061 0.995318 2.12747
-1.13815 0.210835 -0.676342
-0.746636 0.0284205 -0.691863
-1.1835 0.201899 0.731505
-0.795922 0.0144287 0.726433
-1.18965 0.918514 -0.598689
-0.798135 1.43586 -0.546504
-1.16899 0.971448 0.763272
-0.789444 1.51517 0.801514
0.759323 0.0284212 -0.691864
1.13679 0.21084 -0.676342
0.798421 0.014429 0.726433
1.18576 0.2019 0.731505
0.792655 1.43588 -0.546504
1.1863 0.918545 -0.598689
0.768783 1.51517 0.801514
1.16898 0.971452 0.763272
-1.4661 -0.155066 -2.67479
-1.46446 -0.0163404 -3.20533
-1.08822 -0.175323 -3.23034
-1.49098 -0.137311 -1.41529
-1.46975 0.0371408 -2.10016
-1.08814 -0.128918 -2.12318
-1.53442 -0.149217 0.000816796
-1.51954 0.0375997 -0.693906
-1.12803 -0.144815 -0.709428
-1.54532 -0.125004 1.41735
-1.55831 0.0261865 0.719596
-1.17073 -0.161284 0.714524
-1.5307 -0.0674104 2.67933
-1.52663 0.0893834 2.12674
-1.15467 -0.0886248 2.12882
-1.52759 -0.0197355 3.78754
-1.52023 0.14126 3.23842
-1.14636 -0.0374434 3.23908
-1.52682 0.183735 4.34362
-1.1495 0.00363628 4.34189
-1.46811 0.175867 -2.6307
-1.47859 0.451743 -3.12814
-1.08763 0.144219 -3.18242
-1.49831 0.212052 -1.37877
-1.49493 0.512595 -2.02465
-1.54342 0.213003 0.0248731
-1.54681 0.569674 -0.640224
-1.53962 0.240574 1.42899
-1.55762 0.587752 0.74468
-1.51616 0.298054 2.68584
-1.50642 0.634009 2.13006
-1.51946 0.34473 3.7945
-1.50906 0.683913 3.24242
-1.13675 0.328079 3.24458
-1.52323 0.727538 4.35244
-1.14575 0.367775 4.34914
-1.5054 0.788471 -2.52208
-1.50704 1.26544 -3.01238
-1.11143 0.74863 -3.07126
-1.54343 0.870218 -1.2861
-1.52869 1.33147 -1.91159
-1.56101 0.944423 0.079583
-1.56484 1.44111 -0.552215
-1.52442 0.981187 1.44575
-1.55918 1.50874 0.800029
-1.49931 1.01987 2.68664
-1.52269 1.54969 2.16014
-1.51283 1.06672 3.80035
-1.52371 1.59207 3.26591
-1.12683 1.04537 3.24284
-1.53388 1.63391 4.37722
-1.14435 1.09046 4.35726
-1.53033 1.80844 -2.40188
-1.1376 1.76536 -2.94736
-1.5501 1.90236 -1.1777
-1.15167 1.83804 -1.85
-1.56301 2.00543 0.168231
-1.17332 1.95846 -0.50003
-1.55745 2.07724 1.51442
-1.17963 2.05245 0.838271
-1.54709 2.12189 2.73941
-1.16961 2.10511 2.1886
-1.54476 2.15925 3.84278
-1.16419 2.14079 3.28675
-1.16588 2.17905 4.39582
-0.710255 -0.149175 -2.67874
-0.711389 -0.0147642 -3.20743
0.0185439 -0.173091 -3.23195
-0.725185 -0.136421 -1.41732
0.0126906 -0.125256 -2.12552
-0.764338 -0.156881 0.00427944
0.012688 -0.147586 -0.709114
-0.780084 -0.124904 1.426
0.0025006 -0.166176 0.717672
-0.770326 -0.0586578 2.68857
-0.00949501 -0.0836329 2.13432
-0.768259 -0.0140716 3.79343
-0.762872 0.149376 3.24524
-0.00885005 -0.0336821 3.24282
-0.768423 0.187677 4.34741
-0.0110593 0.00553988 4.34405
-0.720482 0.441106 -3.12555
0.0179074 0.143566 -3.18292
-0.763036 0.351125 3.79921
-0.754523 0.689541 3.245
-0.00822928 0.332435 3.24766
-0.766866 0.730699 4.35396
-0.0117567 0.369815 4.35077
-0.741993 1.24855 -3.00625
0.0167914 0.738649 -3.06818
-0.758354 1.06912 3.79975
-0.76731 1.5941 3.26368
-0.0102821 1.04665 3.24235
-0.776352 1.63561 4.37586
-0.0150983 1.09158 4.35716
-0.758939 1.79496 -2.39548
0.0125101 1.75846 -2.94432
-0.774894 1.89414 -1.17233
0.00779496 1.83147 -1.84664
-0.789948 2.00549 0.17001
-0.00549473 1.95681 -0.498008
-0.791791 2.08032 1.51245
-0.0206599 2.05418 0.838028
-0.786707 2.12401 2.73594
-0.0271707 2.10647 2.18687
-0.785308 2.1606 3.83979
-0.0269028 2.14156 3.28502
-0.027683 2.17964 4.39456
0.741489 -0.149172 -2.67874
0.747841 -0.0147608 -3.20743
1.12135 -0.175317 -3.23034
0.750564 -0.13642 -1.41732
1.10763 -0.128912 -2.12318
0.779527 -0.15688 0.00427943
1.14718 -0.14481 -0.709428
0.773089 -0.124904 1.426
1.17678 -0.161282 0.714524
0.751981 -0.0586573 2.68857
1.14294 -0.0886239 2.12882
0.74835 -0.0140706 3.79343
0.745792 0.149377 3.24524
1.13212 -0.037442 3.23908
0.745607 0.187678 4.34741
1.12924 0.00363845 4.34189
0.755181 0.441109 -3.12555
1.11705 0.144225 -3.18242
0.74305 0.351126 3.79921
0.736012 0.689542 3.245
1.12445 0.328081 3.24458
0.740011 0.7307 4.35396
1.12427 0.367777 4.34914
0.771295 1.24856 -3.00625
1.13813 0.748638 -3.07126
0.732973 1.06912 3.79975
0.730125 1.5941 3.26368
1.10983 1.04538 3.24284
0.733571 1.63561 4.37586
1.11593 1.09046 4.35726
0.779244 1.79497 -2.39548
1.15972 1.76538 -2.94736
0.777194 1.89415 -1.17233
1.16353 1.83805 -1.85
0.763794 2.0055 0.17001
1.16099 1.95848 -0.50003
0.743961 2.08033 1.51245
1.14085 2.05246 0.838271
0.732634 2.12402 2.73594
1.11887 2.10512 2.1886
0.730722 2.1606 3.83979
1.11255 2.1408 3.28675
1.11165 2.17906 4.39582
1.4875 -0.155057 -2.67479
1.49056 -0.0163307 -3.20533
1.50425 -0.137303 -1.41529
1.47489 0.0371508 -2.10016
1.54443 -0.149212 0.000816748
1.52465 0.0376087 -0.693906
1.54662 -0.125002 1.41734
1.56411 0.0261889 0.719596
1.52307 -0.0674086 2.67933
1.52719 0.0893846 2.12674
1.513 -0.019733 3.78754
1.51077 0.141262 3.23843
1.5079 0.183737 4.34362
1.47795 0.175877 -2.6307
1.5 0.451754 -3.12814
1.49529 0.212063 -1.37877
1.49056 0.512609 -2.02465
1.54433 0.21301 0.024873
1.5421 0.569695 -0.640224
1.54468 0.240575 1.42899
1.55988 0.587756 0.74468
1.5149 0.298055 2.68584
1.51039 0.63401 2.13006
1.50567 0.344732 3.7945
1.49827 0.683915 3.24242
1.50019 0.727541 4.35244
1.5126 0.788486 -2.52208
1.52655 1.26546 -3.01238
1.53737 0.870241 -1.2861
1.53005 1.33149 -1.91159
1.55764 0.944441 0.0795829
[...]
POINT_DATA 29498
VECTORS point_vectors float
-1.79825 -3.68141 7.1142
0.176235 0.345264 1.40832
-2.74046 1.81658 5.32985
0.181741 -0.209399 1.14272
1.8061 -3.69917 7.14062
-0.176545 0.34439 1.40736
2.74147 1.81916 5.33022
-0.183359 -0.207789 1.1428
0.00283021 0.00436267 0.223184
0.0671815 -0.0504389 3.20318
1.50864e-18 1.90149e-17 2.05468e-16
0 0 0
0.000661773 0.00397338 0.187277
-0.0671029 -0.0503827 3.20309
0 0 0
0 0 0
-0.570915 -0.29971 19.8317
-1.23688 -0.804859 20.4974
-0.391623 -0.40204 21.3601
0.0531463 -0.0853169 21.4832
0.533067 0.227163 21.3969
0.773894 0.330697 21.135
0.788007 0.145346 20.513
-0.709944 -0.238622 19.7205
-1.80375 -0.724233 20.4628
-0.534368 -0.514124 21.4511
0.0228613 -0.173354 21.5654
0.756912 0.105626 21.4841
1.00994 0.188472 20.9635
1.00482 0.0095744 20.8667
-0.845365 0.0727353 19.6472
-1.96321 0.125292 20.4523
-1.10035 -0.329675 21.446
-0.168907 -0.266995 21.7094
0.676169 -0.352676 21.4836
0.989898 -0.412652 21.1474
0.695891 -0.33569 20.9905
-0.563849 0.3781 19.9496
-0.942284 0.6161 20.4294
-0.83285 0.392343 21.1746
-0.245635 -0.0273033 21.5004
0.183723 -0.317606 21.3672
0.337493 -0.362757 21.1797
0.345632 -0.383665 20.6684
-0.55291 -0.666141 19.2625
-1.61496 -3.30625 20.7655
-0.215686 -0.313952 21.618
-0.00478622 0.0277649 21.1599
0.345528 1.05089 19.8848
0.638 1.41451 18.5961
0.826782 0.781289 18.0053
-0.714606 -0.566242 18.9271
0.935827 1.90917 11.3947
1.54954 0.901828 13.6892
-0.998018 0.250529 18.512
1.74907 -0.221724 11.5508
1.38815 -0.455597 16.7959
-0.504219 0.791328 19.5725
-0.998915 1.55155 20.1608
-1.21598 1.49507 21.388
-0.305208 0.164063 21.9247
0.125285 -0.507499 21.4638
0.229993 -0.597173 21.0276
0.0942093 -0.461948 20.6558
0.575438 -0.632591 19.3117
1.63477 -3.18738 20.7372
0.213116 -0.311631 21.6395
0.0054601 0.0311911 21.1706
-0.309308 1.05301 19.7374
-0.562849 1.4036 18.5132
-0.789022 0.815796 17.8485
0.73608 -0.535963 18.9721
-0.851785 1.8425 10.9133
-1.55983 0.925496 13.094
1.03854 0.250551 18.5733
-1.68672 -0.230219 10.9506
-1.40982 -0.438398 16.1813
0.515017 0.779535 19.5895
1.00689 1.53727 20.1663
1.21763 1.52109 21.3899
0.302348 0.173637 21.9395
-0.112005 -0.509294 21.4769
-0.198914 -0.613276 21.0377
-0.0894064 -0.469415 20.4555
0.566929 -0.285703 19.8455
1.21996 -0.790234 20.5053
0.409839 -0.404859 21.3511
-0.0474088 -0.0883686 21.4801
-0.535306 0.226926 21.3998
-0.78187 0.331102 21.1211
-0.785074 0.167669 20.5686
0.703904 -0.230387 19.7367
1.81695 -0.730229 20.4644
0.534309 -0.515918 21.4533
-0.0232084 -0.174068 21.5628
-0.74755 0.0977213 21.4921
-1.00911 0.187243 20.9741
-1.0105 0.0297254 20.932
0.830444 0.0633313 19.6742
1.97847 0.131022 20.4559
1.10674 -0.333193 21.4566
0.166296 -0.268197 21.719
-0.676882 -0.346971 21.4811
-0.987503 -0.412263 21.1748
-0.747875 -0.338007 20.9012
0.561089 0.36895 19.9601
0.934631 0.610514 20.4313
0.845424 0.3994 21.1791
0.252363 -0.0328904 21.5133
-0.184817 -0.32531 21.3481
-0.329353 -0.374796 21.17
-0.310918 -0.401242 20.7369
-1.14271 -0.151292 1.64027
3.67125e-05 -0.0519395 0.343578
-0.0161045 0.0021488 0.150928
0.0021324 -0.00690028 0.0127914
-5.14905e-05 0.0011848 0.0100776
-0.0130472 0.0107056 0.272425
6.26829e-06 0.0995204 0.269873
-0.277611 -0.157053 0.671152
-0.000327324 0.0256378 -0.0763642
0 0 0
1.13828 -0.150647 1.63391
0.0161209 0.00215462 0.150933
-0.0022482 -0.0067143 0.0128222
0.0133992 0.0108831 0.273636
0.2797 -0.158083 0.675843
0 0 0
-0.012519 0.0119173 0.665132
0 0 0
0 0 0
-0.00149915 0.0171071 0.0522307
-1.58198e-07 5.43717e-07 -0.000106708
0 0 0
3.40107e-06 0.0799537 0.184358
-7.56497e-07 -0.000204899 0.00492494
0.0125442 0.0118334 0.665284
0 0 0
0.00112976 0.0141132 0.0433236
0 0 0
0 0 0
0 0 0
0.0117555 0.0350228 0.271132
-1.01663e-07 8.5658e-07 -0.000175715
-2.02542e-06 5.15252e-06 0.0138938
0 0 0
-9.28899e-05 -0.0187479 0.0513734
0 0 0
1.18282e-05 0.00120336 0.0124593
-1.01004e-05 0.0128915 0.12121
-8.41845e-06 0.00176723 -0.00312614
0 0 0
0 0 0
-0.0117565 0.0351054 0.27133
-3.47408 -2.00576 20.3229
-2.48895 -5.24294 21.08
-2.15318 -1.81838 17.6797
1.18411 0.635749 19.503
0.200004 1.29237 13.8886
0.220329 1.30094 7.88724
-3.78596 0.727845 20.378
-3.1636 1.41324 16.8073
-2.21616 2.55174 19.979
1.15685 -0.288868 19.5218
0.909968 0.219943 7.03299
0.445528 -0.823663 20.044
2.53435 -5.14893 21.0347
2.1566 -1.77474 17.7354
3.49489 -2.02603 20.3214
-0.177996 1.27805 13.7403
-0.134537 1.29721 7.64813
-1.18126 0.621076 19.5182
3.16462 1.37074 16.9388
2.2194 2.52819 19.9819
3.80849 0.743733 20.3778
-0.863373 0.237796 6.69397
-0.468594 -0.807387 19.6158
-1.14632 -0.292327 19.4701
-0.119643 -0.696674 20.9004
-0.14783 0.0757019 16.8729
0.117216 -0.138808 20.6961
-0.00360847 0.076422 17.1187
-1.77488 -0.971218 21.73
-3.57905 2.04863 21.7071
-0.114473 -0.415616 20.8402
-0.515723 0.0223239 21.1009
0.150393 0.0697348 17.0563
0.116758 -0.696105 20.882
0.00678795 0.0800302 17.1493
-0.116042 -0.143575 20.7241
3.59142 2.09318 21.7032
1.78341 -0.988521 21.7142
0.41869 0.0879456 20.513
0.112391 -0.41033 20.8198
-0.9405 -0.55208 19.9823
-0.655697 -0.275789 19.7872
-0.620068 -0.470796 19.5668
-0.844255 -0.648557 21.2011
-1.52953 -0.80109 20.465
-1.65044 -1.71091 20.5223
-0.132301 -0.217375 21.4225
-0.482415 -0.473283 21.3956
-0.24243 -0.456319 21.5436
0.287855 0.0850257 21.5279
0.0332769 -0.140623 21.5078
0.0804275 -0.0585987 21.5714
0.676543 0.295254 21.2483
0.644266 0.180269 21.4191
0.673077 0.577556 21.428
0.765783 0.286353 20.8784
0.894875 0.273519 21.0728
0.998336 0.718977 20.9938
0.910143 0.0970036 20.7099
0.769697 0.58969 21.5159
-1.28464 -0.448657 19.8191
-0.812772 -0.110313 19.6342
-0.790057 -0.410073 19.3679
-1.1582 -0.680569 21.3478
-2.04227 -0.30299 20.4618
-0.221211 -0.342471 21.4808
-0.824305 -0.508312 21.445
0.347349 -0.0270649 21.6378
-0.0470537 -0.245853 21.6826
0.921703 0.137181 21.336
0.80372 -0.141762 21.5271
1.03734 0.0940762 21.1767
1.07973 -0.151231 20.988
1.45321 0.616197 19.1441
0.935122 -0.265565 21.1093
1.26206 0.478851 19.2684
-1.53603 0.153012 19.7765
-0.748493 0.311864 19.7639
-1.00158 0.145008 19.2004
-1.56444 -0.155442 21.1671
-1.42336 0.554223 20.4055
-0.635871 -0.320934 21.6347
-1.16152 0.154998 21.3253
0.286154 -0.273043 21.6905
-0.276818 -0.130359 21.6443
0.852588 -0.382229 21.2729
0.361994 -0.406162 21.3894
0.87253 -0.418013 20.9426
0.551528 -0.467753 21.0171
1.35018 -0.579416 20.184
0.48158 -0.449517 20.8725
1.32314 -0.506476 19.8862
-0.7692 0.54791 20.138
-0.598945 0.566747 19.7715
-0.973853 0.541972 20.8314
-1.06774 1.02023 20.3203
-0.559838 0.19959 21.4242
-1.09552 0.792269 21.3097
0.0210886 -0.19918 21.4291
-0.311545 0.0321775 21.7026
0.281903 -0.375591 21.206
0.16006 -0.409888 21.4197
0.385511 -0.412493 20.7711
0.312442 -0.535525 21.0282
0.181843 -0.431734 21.0941
-1.14211 -1.69175 19.0845
-0.62796 -0.619855 19.1021
0.0115513 -0.850921 18.9727
-0.560479 -1.20235 22.1147
0.0206281 -4.22521 21.4181
-0.0958966 -0.0995779 21.1644
0.00466329 -0.438892 21.0891
0.210233 0.501358 20.6431
-0.00199009 -0.118275 19.8734
0.423755 1.20216 19.6803
-0.00474976 0.631655 17.0358
0.639977 1.27735 19.6262
0.823615 1.84199 15.7921
-0.00155269 0.826272 16.0961
1.1842 0.843588 15.182
0.0277491 1.4824 15.3079
-0.970881 -0.185872 18.5622
0.0204095 -0.771086 18.46
1.28385 1.26634 12.2681
1.99512 0.814041 7.81168
-0.0303154 0.222835 -0.408705
1.82138 0.294402 12.9113
0.049947 0.385227 6.54619
-0.819913 0.825485 19.0101
0.0309749 0.436476 17.7154
1.57177 -0.61379 13.6171
0.682662 -1.00035 19.8395
0.0352343 -0.694239 -0.749747
0.463089 -0.908229 19.6045
0.0138265 -1.91273 2.78191
-0.786375 1.26054 19.7461
0.012734 1.00205 19.3482
-1.17742 1.6194 20.6698
0.0143508 2.19519 20.0003
-0.788003 0.813895 21.914
-0.0144484 2.64946 21.3967
-0.000416998 -0.285486 21.7055
-0.010722 0.380558 22.1263
0.195654 -0.606128 21.3416
0.00394581 -0.517276 21.5855
0.188149 -0.72393 20.8602
0.00969491 -0.78878 21.1354
-0.00457594 -0.780519 21.0738
1.15721 -1.62658 19.1415
0.650244 -0.588631 19.1489
0.626495 -0.455124 19.5897
0.569932 -1.1932 22.0864
1.64426 -1.64869 20.5095
0.0947522 -0.0996421 21.2028
0.256172 -0.45859 21.531
-0.201294 0.503548 20.6283
-0.0766048 -0.0631783 21.5662
-0.387062 1.20215 19.6146
-0.670253 0.595622 21.3863
-0.610778 1.29401 19.4866
-0.761065 1.81483 15.6859
-1.00611 0.753224 20.9953
-1.13835 0.869859 15.0068
-0.771097 0.623576 21.5483
1.01469 -0.182707 18.6252
0.798202 -0.406898 19.3928
-1.2641 1.29829 11.7339
-1.90232 0.747271 7.29311
-1.44024 0.661848 18.9559
-1.83668 0.323331 12.281
-1.28028 0.502147 18.9494
0.831402 0.79901 19.0465
0.998722 0.142808 19.2387
-1.56244 -0.620658 12.8711
-0.69461 -1.00342 19.424
-1.39009 -0.5722 20.0596
-0.464613 -0.934143 19.5008
-1.34983 -0.520308 19.8082
0.795727 1.24732 19.755
0.602659 0.556978 19.7837
1.17877 1.61644 20.6701
1.06607 1.0027 20.3257
0.789089 0.856418 21.9353
1.10043 0.807121 21.3136
0.00262744 -0.283721 21.7165
0.31723 0.0470285 21.7223
-0.177051 -0.614067 21.3493
-0.160628 -0.426426 21.4305
-0.179875 -0.739099 20.9259
-0.320221 -0.5638 21.0487
-0.16479 -0.436654 21.1017
0.926617 -0.538643 20.0026
0.653812 -0.264956 19.8045
0.850605 -0.637803 21.1921
1.51685 -0.795253 20.4717
0.142432 -0.22848 21.4231
0.486607 -0.4774 21.3919
-0.287673 0.0825303 21.5315
-0.0349398 -0.14343 21.5028
-0.676351 0.304315 21.255
-0.641117 0.180204 21.4247
-0.772193 0.295335 20.8595
-0.898039 0.274969 21.0889
-0.915902 0.119204 20.7737
1.27268 -0.442484 19.8268
0.80581 -0.109435 19.6539
1.16142 -0.684905 21.3521
2.06904 -0.306329 20.4706
0.217001 -0.3416 21.4827
0.828351 -0.513587 21.4562
-0.34855 -0.0290899 21.6356
0.0456052 -0.246897 21.6833
-0.920317 0.138492 21.3395
-0.796947 -0.138408 21.5325
-1.07453 0.102284 21.1132
-1.09744 -0.160445 21.0099
-0.986047 -0.263182 21.0459
1.51633 0.143146 19.7906
0.738695 0.302939 19.7839
1.57343 -0.157308 21.1761
1.42156 0.552322 20.4085
0.634508 -0.321216 21.6415
1.17938 0.15314 21.3322
-0.287904 -0.271267 21.692
0.279526 -0.140497 21.6667
-0.865477 -0.387751 21.272
-0.381422 -0.426444 21.4038
-0.87314 -0.431395 20.9613
-0.560672 -0.477755 21.0589
-0.459908 -0.454397 20.9262
0.764224 0.537075 20.1443
0.974864 0.544224 20.8317
0.580668 0.202577 21.4339
-0.0244981 -0.195855 21.4533
-0.273745 -0.374617 21.2142
-0.349423 -0.439319 20.8265
-1.11115 -0.527924 19.8993
-1.59343 -1.88105 18.4922
-1.22474 -1.05678 19.5968
-1.88684 -0.958024 19.0712
-0.730149 -0.470779 19.475
-2.39241 -2.0048 20.4514
-1.01853 -0.690202 21.2726
-0.315639 -0.709888 19.1382
-0.814345 -1.05482 21.6098
-1.24033 -1.35632 22.1774
-0.157374 -0.531673 21.556
-0.17896 -0.294382 21.4392
-0.0527336 0.0922575 16.705
-0.0426933 -0.236518 21.5362
0.0391823 -0.389363 20.6071
0.132106 -0.106841 21.4397
0.297672 0.0333123 21.5698
0.317391 0.556748 15.1764
0.357958 0.230895 21.6461
0.501465 0.234895 20.2787
0.954154 0.648172 20.9056
0.814277 0.286143 21.2656
0.308071 1.37187 14.9418
0.80721 0.71351 21.1022
1.35629 0.642935 19.9714
1.14897 0.667981 20.829
0.914034 0.196981 21.0087
0.938723 1.27092 15.107
1.01701 0.747628 20.925
1.66767 0.573746 19.1623
0.935164 0.505156 20.7405
-1.49778 -0.196194 19.7404
-3.03595 -0.521988 16.6435
-2.33835 0.48844 18.9258
-0.998409 -0.137054 19.1672
-4.43952 -0.615861 20.266
-1.44168 -0.460573 21.304
-2.47952 -0.421813 21.6236
-0.717595 -1.13895 20.8819
-0.391605 -0.404307 21.5666
-0.854376 -0.790872 21.2722
0.0720757 -0.131919 19.8036
0.363735 -0.139571 21.7293
0.66462 -0.124634 19.9646
1.33078 0.242571 18.2325
0.980683 -0.145437 21.3308
0.384219 0.928735 3.96061
1.28528 -0.470241 20.1473
1.72918 0.087673 18.4955
0.97159 -0.179567 21.4638
1.92753 0.590427 10.2401
1.44364 -0.56259 20.3344
1.53814 -0.123503 18.4687
-1.15621 0.511605 19.961
-1.5718 1.84227 18.9687
-0.855756 0.865046 19.9525
-0.833738 0.50753 19.4509
-2.00383 1.24247 20.2557
-1.40375 0.35878 20.9281
-2.63546 2.10431 20.4771
-1.17785 0.994316 20.7838
-1.97904 0.476012 21.5519
-0.732086 0.00179186 21.5991
-2.04162 0.582613 22.0378
-0.735081 0.407953 21.6693
-0.438002 -0.155485 22.0105
0.114377 -0.277501 21.5899
0.313505 -0.557909 20.15
-0.0114603 -0.231556 21.5763
0.412359 -0.660742 21.5614
0.493874 -0.46925 21.2944
0.509083 -0.963583 20.3359
0.24205 -0.488688 21.2392
0.55657 -0.839841 21.2998
0.56723 -0.523172 20.8903
0.497571 -1.09414 19.6408
0.18939 -0.441152 21.1778
0.418651 -0.625253 20.535
1.61568 -1.84944 18.5687
0.0321597 -2.51414 18.5109
0.0396172 -3.20285 15.7276
0.0120429 -0.910697 18.6739
0.0101609 -5.85488 23.1774
0.319795 -0.738244 19.424
0.00948434 -1.31981 22.3619
0.000790762 -0.0273403 12.7364
0.0582381 0.0950792 16.8478
-0.000285843 -0.229418 20.0476
-0.000871113 -0.0862065 12.6805
-0.309371 0.551286 15.0988
-0.00248659 0.350312 18.554
-0.00900818 0.473272 8.03503
-0.24593 1.36207 14.6765
-0.00711123 0.412082 16.5204
-0.0267668 -1.23691 -2.27894
-0.0355517 0.975357 7.94082
-0.915663 1.28831 14.9576
0.0100943 1.44563 15.6833
-0.0192753 -0.569809 -0.134017
0.0450296 1.39593 12.1897
3.03223 -0.494406 16.7573
0.0532557 3.31279 13.7986
0.0198147 -0.242 17.8292
-0.317319 0.944958 3.72618
0.0079794 0.00559753 -0.562516
0.0463548 -1.02742 -4.83978
-1.89652 0.616037 9.65314
0.0362122 -1.58065 0.392857
0.0550217 -0.735428 2.74161
1.57954 1.78861 19.0112
0.0147586 1.72694 19.5007
0.0228449 1.15571 18.5251
0.0126952 4.09243 19.6596
2.634 2.09835 20.4789
0.00278412 2.47609 20.4609
-0.0167725 5.52171 21.0047
2.05745 0.608739 21.8687
-0.0276247 1.49562 22.2738
-0.000355147 0.206549 18.1271
-0.389295 -0.527646 19.5875
-0.00236171 -0.254814 21.7704
0.000421341 -0.62505 13.9022
-0.499467 -0.97072 20.2265
0.00851913 -0.655833 21.395
0.00117643 -1.10477 16.274
-0.500083 -1.11318 19.4575
0.00829317 -0.698642 20.915
0.0231325 -1.02968 18.1985
1.09802 -0.517453 19.9206
1.2227 -1.03108 19.6159
1.87797 -0.938589 19.1052
0.727306 -0.454058 19.4917
2.3805 -1.9659 20.4417
1.01677 -0.690735 21.2679
0.836677 -1.0402 21.5801
1.24105 -1.36095 22.1777
0.1758 -0.533337 21.5518
0.178085 -0.300617 21.438
0.0506567 -0.239989 21.5277
-0.0368511 -0.391362 20.6094
-0.126196 -0.109741 21.4369
-0.297458 0.0288227 21.569
-0.354587 0.23062 21.6461
-0.50023 0.228918 20.3094
-0.950089 0.658173 20.8589
-0.818244 0.279926 21.2609
-0.802188 0.733252 21.0802
-1.35057 0.655754 19.8732
-1.13806 0.713193 20.6299
-0.95201 0.203293 20.9379
-1.00431 0.787198 20.9917
-1.65047 0.6204 19.134
-0.955023 0.525855 20.4434
1.4827 -0.194401 19.77
2.30897 0.47385 18.9661
0.993345 -0.134975 19.2104
4.46281 -0.620188 20.2571
1.45686 -0.464115 21.316
2.48741 -0.42731 21.6304
0.711354 -1.14625 20.8362
0.39044 -0.406061 21.5763
0.853075 -0.789771 21.2424
-0.071451 -0.137984 19.8348
-0.365841 -0.141878 21.7306
-0.663762 -0.124456 19.9654
-1.32957 0.239402 18.3063
-0.986566 -0.145586 21.3296
-1.296 -0.451635 20.0196
-1.76506 0.113611 18.1373
-1.00622 -0.184533 21.406
-1.50427 -0.561234 20.1942
-1.56126 -0.0949894 18.1175
1.14502 0.498299 19.9764
0.857646 0.844213 19.9625
0.835548 0.49651 19.4701
1.99661 1.22868 20.2554
1.41412 0.358864 20.9303
1.17727 0.994947 20.7845
1.99878 0.491297 21.5542
0.74404 -0.00224849 21.6059
0.743414 0.428979 21.6846
0.450409 -0.152035 22.0299
-0.115594 -0.291124 21.5969
0.0101411 -0.242188 21.5842
-0.404766 -0.679567 21.5809
-0.500103 -0.486829 21.2717
-0.23318 -0.516245 21.2567
-0.565086 -0.864595 21.3654
-0.619504 -0.537777 20.9077
-0.185546 -0.469233 21.1949
-0.416415 -0.654252 20.4247
-1.48582 -1.08832 19.4085
-0.967128 -1.21341 21.8819
0.0190081 -0.293574 21.4095
0.468563 0.226212 21.2846
1.12438 0.750045 20.8731
1.32897 0.643862 20.3261
-2.35862 -0.294914 18.7909
-1.93471 -1.04508 22.1479
-0.227845 -0.658318 20.0173
0.618059 0.265663 19.3516
1.55055 0.142522 19.169
1.64533 0.0294845 18.3715
-1.48799 0.976078 19.557
-2.07741 0.852332 20.9006
-1.19254 0.0861022 21.9909
0.127042 -0.445794 21.8434
0.528393 -0.755273 21.3254
0.711512 -0.759128 20.8534
0.0406273 -3.1371 17.4801
0.00573158 -0.557024 15.0792
-0.00169447 -0.0308577 12.3444
-0.00145492 0.332122 10.4044
-0.0451395 -0.143524 7.18844
-0.0181246 0.731081 7.4692
0.0541539 -0.681939 13.2541
-0.00213649 -0.885247 -3.85908
0.0994746 -0.915585 -0.176149
0.0262761 2.98712 18.2624
0.00167047 4.01767 19.6722
-0.0154514 2.26481 20.5294
0.00388923 -0.516655 15.1619
-0.000109263 -0.796943 15.2862
0.00515528 -1.21965 16.882
1.48255 -1.06585 19.4299
0.982507 -1.20285 21.8577
-0.00841073 -0.299552 21.4289
-0.464103 0.224381 21.2702
-1.11186 0.765251 20.7441
-1.31688 0.690812 20.2975
2.32738 -0.293574 18.8362
1.93209 -1.05315 22.1323
0.227943 -0.657924 19.9973
-0.618947 0.256937 19.4023
-1.542 0.156646 18.9326
-1.66532 0.0560028 17.9574
1.48069 0.956712 19.574
2.08108 0.854725 20.8973
1.20901 0.094906 22.0038
-0.125671 -0.459628 21.8659
-0.526707 -0.774709 21.3355
-0.689703 -0.817047 20.83
-0.420888 -0.233271 0.562586
-0.00643569 -0.0936317 0.510391
-0.023256 -0.0179865 0.52563
0.0455808 0.0160399 0.1217
-0.00465668 0.00232769 0.0127219
-0.00778138 0.204646 0.973753
-1.80003 0.251027 2.12811
-0.0219528 0.240767 0.514085
-0.407618 -0.0590028 1.39343
-0.00205518 0.000636882 -0.00109326
-0.0112256 0.0673768 -0.0622183
0.00353459 0.00249021 0.0193471
0.00639614 -0.094197 0.512178
0.436164 -0.241963 0.583122
0.0229546 -0.0185262 0.526991
0.0045049 0.00225276 0.0123309
-0.0455513 0.0161515 0.1215
0.00772008 0.204026 0.971813
0.0222707 0.239491 0.513296
1.80267 0.252518 2.12995
0.409197 -0.0589309 1.39875
0.0101809 0.0689721 -0.0638683
0.00216683 0.000697313 -0.00116202
-0.00340508 0.00240408 0.0185061
-0.0435733 0.00982525 0.660635
0.0027574 -0.00123424 0.273873
0 0 0
0 0 0
0.00796403 0.00892692 0.124024
-0.0524728 0.0791935 1.47753
0 0 0
0 0 0
-0.0129495 -0.0134427 0.043932
-0.00016853 0.00104642 0.0169903
0 0 0
-0.0339663 0.0415864 0.107605
0 0 0
5.32635e-18 2.59409e-17 9.35402e-17
0 0 0
0.0460544 -0.0028418 0.287659
0.0431856 0.00987441 0.661046
0 0 0
-0.00262293 -0.0011173 0.277185
0 0 0
-0.0101684 0.0103636 0.125179
0 0 0
0.0525266 0.0791512 1.47667
0 0 0
0.0130316 -0.0135496 0.0442474
0.0333862 0.0410847 0.105818
0.000171658 0.00107956 0.0174644
0 0 0
0 0 0
-0.046035 -0.00287457 0.287493
0 0 0
0 0 0
-0.0942029 -0.0484493 0.51012
-0.228162 0.122687 0.134229
1.6271e-07 -5.72781e-05 0.00328178
2.68163e-07 -0.212501 -0.00383403
0 0 0
-1.37769e-07 2.13331e-07 -4.17477e-05
0.00134043 -0.000218955 0.019549
0 0 0
-1.09047e-06 3.9823e-05 0.000297357
-8.13869e-05 0.000858413 -0.00178075
0.00140066 0.00474936 0.0490419
0 0 0
-0.000609117 0.699811 0.48648
6.4263e-06 0.0101518 0.0567129
-0.00448941 -0.115465 0.54179
-0.00675565 0.00131703 0.0116278
0 0 0
0 0 0
0 0 0
-0.000336853 -0.000291324 0.00166513
0.228366 0.122955 0.134406
0.094204 -0.0484457 0.509951
1.92069e-07 3.52517e-07 -6.89832e-05
0 0 0
0 0 0
-0.00134945 -0.000208445 0.0198728
0 0 0
-0.00139948 0.00475973 0.0490117
0.00674003 0.00131815 0.0116183
0.00457811 -0.115912 0.543147
0.000318785 -0.00028197 0.00163194
0 0 0
0 0 0
7.42589e-05 4.84867e-06 0.0048093
1.12676e-17 -2.16261e-17 1.03933e-16
0 0 0
1.01536e-06 3.63186e-06 0.00325738
2.10671e-07 -1.16981e-07 -4.32173e-05
-0.000151928 0.00108555 0.00479052
-0.00236221 0.00627817 0.0363763
7.07678e-08 -1.39053e-06 0.000490902
0 0 0
0 0 0
-0.0105048 0.0269013 0.325104
0.00111935 0.0163351 0.0343381
-1.36377e-07 0.000366658 0.00177131
-2.17489e-06 4.72131e-05 0.0216842
-1.99238e-05 -0.0101363 0.0627684
-7.37823e-05 4.79768e-06 0.0048141
0 0 0
0 0 0
5.69989e-19 2.88231e-18 1.81129e-17
0 0 0
0.0027806 0.00739489 0.0426607
0.0103695 0.0268626 0.323945
0 0 0
-0.0622785 -0.0384054 0.377265
-0.0156714 9.5198e-05 0.0765298
0.0367147 -0.0168926 0.194166
-0.00157647 -0.0110056 0.0638066
0 0 0
9.23445e-05 0.00230587 0.0112498
0 0 0
0 0 0
-0.00733865 0.0097684 0.0985544
0 0 0
0 0 0
0.00100657 0.00091269 0.0196785
-6.84105e-05 -4.31881e-05 0.00237748
6.83863e-05 -4.33627e-05 0.00237814
3.4799e-05 2.45122e-06 0.00336157
-2.87187e-05 2.62944e-06 0.00337709
4.65826e-05 6.23914e-06 0.00224751
-4.77114e-05 6.15226e-06 0.00225039
0.000279084 -6.26559e-05 0.0206634
-0.000272887 -6.24703e-05 0.0206414
0 0 0
0 0 0
0 0 0
0 0 0
-1.14613 -1.34053 0.818664
1.12135 -1.30397 0.795223