# vtk DataFile Version 2.0
tet_velo
ASCII
DATASET UNSTRUCTURED_GRID
POINTS 29498 float
-0.64723 0.095 -2.045
-0.798131 0.195 1.785
-0.704328 0.385 -1.865
-0.765 0.855 1.87458
0.647208 0.095 -2.045
0.798131 0.195 1.785
0.704331 0.385 -1.865
0.765 0.855 1.87458
-0.711666 0.114198 -0.768334
-0.765539 0.143959 0.508333
-0.855504 0.672619 -0.618473
-0.833903 0.78746 0.628053
0.711652 0.114197 -0.768334
0.76553 0.14396 0.508333
0.855463 0.672575 -0.618473
0.8339 0.787456 0.628053
-1.42104 -0.262608 -3.12714
-1.41898 -0.160864 -2.11788
-1.4732 -0.137784 -0.840433
-1.52416 -0.139804 0.443079
-1.5503 -0.104613 1.72104
-1.55809 -0.049491 2.7328
-1.56116 0.0177567 3.73993
-1.41829 -0.0447433 -3.04798
-1.42188 0.0859514 -2.04201
-1.49642 0.14126 -0.770425
-1.54279 0.163166 0.503869
-1.55879 0.207953 1.77603
-1.56576 0.263369 2.78737
-1.56851 0.328638 3.79548
-1.4462 0.345002 -2.88119
-1.48159 0.471912 -1.87397
-1.59997 0.685575 -0.622938
-1.60259 0.790039 0.625962
-1.55974 0.856393 1.87757
-1.57013 0.907376 2.89016
-1.5793 0.963965 3.90313
-1.48738 1.10621 -2.65367
-1.51549 1.25386 -1.65097
-1.57467 1.48324 -0.409702
-1.60794 1.6683 0.825064
-1.60613 1.78338 2.06664
-1.60097 1.84772 3.07
-1.60022 1.90436 4.07969
-0.689056 -0.258786 -3.12909
-0.672371 -0.152575 -2.12072
-0.710374 -0.149709 -0.840052
-0.750663 -0.156037 0.446889
-0.774937 -0.118133 1.7277
-0.781746 -0.0598652 2.73732
-0.784034 0.00999837 3.74255
-0.682754 -0.0509762 -3.04858
-0.791511 0.255019 2.79109
-0.79139 0.322107 3.79746
-0.699927 0.306697 -2.87746
-0.792054 0.904597 2.88956
-0.801147 0.960896 3.90301
-0.72002 1.07955 -2.64998
-0.733943 1.22856 -1.6469
-0.782402 1.47485 -0.407255
-0.817759 1.67104 0.82477
-0.821719 1.78728 2.06454
-0.818948 1.85014 3.06791
-0.819526 1.90542 4.07816
0.711178 -0.258791 -3.12909
0.694457 -0.152578 -2.12072
0.734967 -0.149711 -0.840052
0.776493 -0.156037 0.446889
0.796646 -0.118133 1.7277
0.784162 -0.0598661 2.73732
0.775296 0.0099967 3.74255
0.70372 -0.0509807 -3.04857
0.776223 0.255018 2.79109
0.768755 0.322105 3.79746
0.729694 0.306691 -2.87746
0.761908 0.904597 2.88956
0.757673 0.960894 3.90301
0.796194 1.07953 -2.64998
0.811306 1.22854 -1.6469
0.810676 1.47483 -0.407255
0.782848 1.67103 0.82477
0.758592 1.78727 2.06454
0.749822 1.85014 3.06791
0.74449 1.90541 4.07816
1.43347 -0.262622 -3.12714
1.42387 -0.160877 -2.11788
1.48267 -0.137795 -0.840433
1.54172 -0.139808 0.443079
1.56754 -0.104614 1.72104
1.56306 -0.0494936 2.7328
1.55446 0.0177526 3.73993
1.42529 -0.0447574 -3.04798
1.41011 0.0859354 -2.04201
1.48903 0.141244 -0.770425
1.54568 0.163163 0.503869
1.56366 0.207952 1.77603
1.55771 0.263367 2.78737
1.54925 0.328635 3.79548
1.46223 0.344985 -2.88119
1.47485 0.471887 -1.87397
1.59174 0.685532 -0.622938
1.59827 0.790029 0.625961
1.55452 0.856391 1.87757
1.54494 0.907373 2.89016
1.53898 0.96396 3.90313
1.55081 1.10619 -2.65367
1.57362 1.25383 -1.65097
1.59271 1.48321 -0.409703
1.57666 1.66827 0.825064
1.54963 1.78337 2.06664
1.5358 1.84771 3.07
1.52741 1.90435 4.07969
-0.607515 0.24 -1.88674
-1.10269e-05 0.0943448 -2.04566
-0.689678 0.0943689 -1.40667
-0.815304 0.525 1.86353
0 0.201095 1.77891
-0.771603 0.179711 1.14667
1.49012e-06 0.437529 -1.91753
-0.872456 0.621349 -1.24174
0 0.874499 1.89408
-0.831588 0.853367 1.25132
0.607495 0.24 -1.88673
0.689659 0.0943693 -1.40667
0.815306 0.525 1.86353
0.77026 0.181051 1.14667
0.87249 0.621381 -1.24174
0.831608 0.853386 1.25132
-0.738719 0.128961 -0.13
-0.894977 0.393408 -0.693403
-7.06872e-06 0.104586 -0.768334
-0.818234 0.465709 0.568193
-4.27621e-06 0.144801 0.508333
-0.837491 0.722827 0.00479001
-2.05752e-05 0.970914 -0.618473
-1.27346e-06 1.03152 0.628053
0.738707 0.128963 -0.13
0.895023 0.393386 -0.693403
0.818235 0.465708 0.568193
0.837488 0.722823 0.00479001
-0.879898 0.316704 -1.3242
-0.847196 0.429559 -0.062605
-0.881055 0.495355 1.19899
-9.04779e-06 0.0921628 -1.40667
-5.67247e-06 0.128951 -0.13
-2.13811e-06 0.164305 1.14667
-4.76837e-06 0.24 -1.95238
0 0.525 2.11334
-9.54256e-06 0.700811 -1.24174
-1.09244e-05 1.10851 0.00479001
-6.36731e-07 0.901315 1.25132
0.879896 0.316693 -1.3242
0.847185 0.429547 -0.062605
0.88105 0.495354 1.19899
-1.03456 0.0904757 -2.0435
-0.6598 -0.0287877 -2.08286
-0.664992 0.0220119 -2.54679
-1.17846 0.201477 1.78051
-0.786534 0.0384334 1.75635
-0.794821 0.22501 2.28805
-1.09296 0.428456 -1.86949
-0.702128 0.345849 -2.37123
-0.719136 0.806779 -1.75595
-1.16237 0.855697 1.87608
-0.778527 0.879799 2.38207
-0.793359 1.32114 1.96956
0.670833 -0.0287891 -2.08286
0.675464 0.0220096 -2.54679
1.02866 0.0904677 -2.0435
0.797389 0.0384333 1.75635
0.787177 0.225009 2.28805
1.1809 0.201476 1.78051
0.717013 0.345846 -2.37123
0.757819 0.806772 -1.75595
1.08959 0.428444 -1.86949
0.763454 0.879798 2.38207
0.761796 1.32114 1.96956
1.15976 0.855695 1.87608
-1.10404 0.127729 -0.769379
-0.71102 -0.0177554 -0.804193
-1.15416 0.153563 0.506101
-0.758101 -0.00603902 0.477611
-1.22774 0.679097 -0.620706
-0.818953 1.07373 -0.512864
-1.21825 0.78875 0.627008
-0.825831 1.22925 0.726412
0.72331 -0.0177568 -0.804193
1.10034 0.127721 -0.769379
0.771011 -0.00603852 0.477611
1.1556 0.153562 0.506101
0.83307 1.0737 -0.512864
1.2236 0.679054 -0.620706
0.808374 1.22924 0.726412
1.21609 0.788743 0.627007
-1.42001 -0.211736 -2.62251
-1.41966 -0.153676 -3.08756
-1.05505 -0.260697 -3.12811
-1.44609 -0.149324 -1.47916
-1.42043 -0.0374561 -2.07994
-1.04568 -0.156719 -2.1193
-1.49868 -0.138794 -0.198677
-1.48481 0.00173784 -0.805429
-1.09179 -0.143747 -0.840243
-1.53723 -0.122208 1.08206
-1.53347 0.0116809 0.473474
-1.13741 -0.147921 0.444984
-1.5542 -0.0770518 2.22692
-1.55455 0.0516704 1.74853
-1.16262 -0.111373 1.72437
-1.55963 -0.0158672 3.23637
-1.56192 0.106939 2.76008
-1.16992 -0.0546781 2.73506
-1.56483 0.173198 3.76771
-1.1726 0.0138775 3.74124
-1.42009 0.020604 -2.54499
-1.43224 0.15013 -2.96458
-1.05052 -0.0478597 -3.04828
-1.45915 0.113606 -1.40622
-1.45174 0.278932 -1.95799
-1.5196 0.152213 -0.133278
-1.5482 0.413418 -0.696681
-1.55079 0.18556 1.13995
-1.57269 0.476603 0.564915
-1.56227 0.235661 2.2817
-1.55927 0.532173 1.8268
-1.56713 0.296004 3.29142
-1.56794 0.585372 2.83876
-1.17863 0.259194 2.78923
-1.5739 0.646302 3.84931
-1.17995 0.325373 3.79647
-1.4639 0.408457 -2.37758
-1.46679 0.725608 -2.76743
-1.07306 0.32585 -2.87932
-1.54078 0.578744 -1.24845
-1.49854 0.862884 -1.76247
-1.60128 0.737807 0.001512
-1.58732 1.08441 -0.51632
-1.58117 0.823216 1.25177
-1.60527 1.22917 0.725513
-1.56494 0.881885 2.38387
-1.58293 1.31989 1.97211
-1.57471 0.93567 3.39665
-1.58555 1.37755 2.98008
-1.18109 0.905987 2.88986
-1.58976 1.43416 3.99141
-1.19022 0.962431 3.90307
-1.50143 1.18004 -2.15232
-1.1037 1.09288 -2.65182
-1.54508 1.36855 -1.03033
-1.12472 1.24121 -1.64893
-1.59131 1.57577 0.207681
-1.17854 1.47904 -0.408479
-1.60703 1.72584 1.44585
-1.21285 1.66967 0.824917
-1.60355 1.81555 2.56832
-1.21392 1.78533 2.06559
-1.60059 1.87604 3.57484
-1.20996 1.84893 3.06895
-1.20987 1.90489 4.07892
-0.680714 -0.20568 -2.6249
-0.685905 -0.154881 -3.08883
0.011061 -0.258788 -3.12909
-0.691372 -0.151142 -1.48038
0.0110433 -0.152577 -2.12072
-0.730518 -0.152873 -0.196582
0.0122968 -0.14971 -0.840052
-0.7628 -0.137085 1.08729
0.012915 -0.156037 0.446889
-0.778342 -0.0889992 2.23251
0.0108545 -0.118133 1.7277
-0.78289 -0.0249334 3.23993
-0.786629 0.097577 2.76421
0.00120794 -0.0598657 2.73732
-0.787712 0.166053 3.77
-0.00436885 0.00999754 3.74255
-0.691341 0.127861 -2.96302
0.0104829 -0.0509785 -3.04858
-0.79145 0.288563 3.29427
-0.791783 0.579808 2.84033
-0.00764429 0.255019 2.79109
-0.796268 0.641502 3.85023
-0.0113175 0.322106 3.79746
-0.709974 0.693121 -2.76372
0.0148835 0.306694 -2.87746
-0.796601 0.932747 3.39628
-0.805501 1.37737 2.97873
-0.0150731 0.904597 2.88956
-0.810336 1.43316 3.99058
-0.0217371 0.960895 3.90301
-0.726982 1.15405 -2.14844
0.0380868 1.07954 -2.64998
-0.758172 1.3517 -1.02708
0.0386814 1.22855 -1.6469
-0.80008 1.57294 0.208758
0.0141374 1.47484 -0.407255
-0.819739 1.72916 1.44466
-0.0174553 1.67104 0.82477
-0.820333 1.81871 2.56623
-0.0315633 1.78727 2.06454
-0.819237 1.87778 3.57303
-0.0345631 1.85014 3.06791
-0.0375179 1.90542 4.07816
0.702818 -0.205685 -2.6249
0.707449 -0.154886 -3.08883
1.07233 -0.260706 -3.12811
0.714712 -0.151145 -1.48038
1.05917 -0.156727 -2.1193
0.75573 -0.152874 -0.196582
1.10882 -0.143753 -0.840243
0.786569 -0.137085 1.08729
1.15911 -0.147922 0.444984
0.790404 -0.0889998 2.23251
1.18209 -0.111374 1.72437
0.779729 -0.0249347 3.23993
0.780192 0.0975761 2.76421
1.17361 -0.0546799 2.73506
0.772025 0.166051 3.77
1.16488 0.0138746 3.74124
0.716707 0.127855 -2.96302
1.0645 -0.0478691 -3.04828
0.772489 0.288562 3.29427
0.769065 0.579807 2.84033
1.16697 0.259193 2.78923
0.763214 0.6415 3.85023
1.159 0.32537 3.79647
0.762944 0.693112 -2.76372
1.09596 0.325838 -2.87932
0.75979 0.932745 3.39628
0.755865 1.37737 2.97873
1.15343 0.905985 2.88986
0.751081 1.43315 3.99058
1.14832 0.962427 3.90307
0.80375 1.15404 -2.14844
1.1735 1.09286 -2.65182
0.810991 1.35169 -1.02708
1.19246 1.24118 -1.64893
0.796762 1.57293 0.208757
1.20169 1.47902 -0.408479
0.77072 1.72915 1.44466
1.17975 1.66965 0.824917
0.754207 1.81871 2.56622
1.15411 1.78532 2.06559
0.747156 1.87778 3.57303
1.14281 1.84892 3.06895
1.13595 1.90488 4.07892
1.42867 -0.211749 -2.62251
1.42938 -0.15369 -3.08756
1.45327 -0.149336 -1.47916
1.41699 -0.0374706 -2.07994
1.5122 -0.138802 -0.198677
1.48585 0.00172442 -0.805429
1.55463 -0.122211 1.08206
1.5437 0.0116777 0.473474
1.5653 -0.077054 2.22692
1.5656 0.051669 1.74853
1.55876 -0.0158705 3.23637
1.56039 0.106937 2.76008
1.55186 0.173194 3.76771
1.4177 0.020589 -2.54499
1.44376 0.150114 -2.96458
1.44957 0.11359 -1.40622
1.44248 0.278911 -1.95799
1.51735 0.152204 -0.133278
1.54039 0.413388 -0.696682
1.55467 0.185558 1.13995
1.57198 0.476596 0.564915
1.56069 0.23566 2.2817
1.55909 0.532172 1.8268
1.55348 0.296001 3.29142
1.55133 0.58537 2.83876
1.54411 0.646298 3.84931
1.46854 0.408436 -2.37758
1.50652 0.725586 -2.76743
[...]
POINT_DATA 29498
VECTORS point_vectors float
-6.86681 -5.51615 15.5096
0.155622 0.536988 3.46345
-1.18796 0.311477 1.27278
0.161537 -0.184537 1.1773
6.86944 -5.51346 15.5066
-0.151885 0.539107 3.46944
1.16803 0.306742 1.25369
-0.162681 -0.184429 1.17987
-0.00170099 0.000131389 0.0143396
0.00017874 0.000146937 0.00712963
-0.00680081 -0.0251377 0.574821
0.115193 0.124497 0.472025
0.00168654 0.000130009 0.0142491
-0.0001834 0.000150844 0.00732733
0.00704378 -0.0260438 0.581219
-0.114849 0.123983 0.470758
-0.444592 -0.193823 19.8121
-1.20275 -0.67354 20.0927
-0.57962 -0.581258 21.3194
0.0829999 -0.195423 21.2627
0.474637 -0.000146094 21.2395
0.744556 0.12807 20.9702
0.737032 0.0890146 20.9112
-0.543999 -0.182011 19.7471
-1.58071 -0.570425 20.0345
-0.756111 -0.592038 21.4227
0.0206234 -0.307252 21.2926
0.549599 -0.130197 21.3455
0.85947 -0.043283 21.0779
0.783247 -0.190248 21.0914
-0.727092 -0.0710613 19.6487
-1.8185 -0.117905 20.1188
-0.997543 -0.285531 21.2979
-0.253103 -0.289682 21.3602
0.393869 -0.357438 21.3255
0.659624 -0.438352 20.9811
0.463638 -0.39637 20.6432
-0.732514 0.312923 19.7808
-1.25968 0.579802 20.314
-0.838199 0.295728 21.1093
-0.238356 -0.0345669 21.2474
0.105901 -0.267139 21.0807
0.252031 -0.332458 20.9346
0.278091 -0.397763 20.8044
-0.393469 -0.418329 19.4184
-2.06585 -3.15484 19.0111
0.387973 0.0402757 20.4354
0.393672 0.41641 19.8363
0.59887 0.931049 19.3527
0.890385 1.36918 18.8197
0.925317 1.16676 18.6205
-0.492324 -0.376949 19.2146
1.03275 1.374 10.6707
1.41692 0.793996 12.8862
-0.75237 -0.140222 18.7784
1.26529 -0.702421 12.7726
0.885986 -0.844691 15.5437
-0.778413 0.805791 19.033
-1.78395 2.36628 19.6858
-1.58742 1.52574 21.5697
-0.323259 0.127441 21.6231
0.0420554 -0.408393 21.2238
0.140673 -0.574811 20.9209
0.121262 -0.433835 20.5114
0.404699 -0.398656 19.4455
2.11086 -3.02268 19.0287
-0.445482 -0.0864901 20.9389
-0.404259 0.369452 19.8936
-0.618075 0.894869 19.3613
-0.897503 1.36017 18.8278
-0.91646 1.18746 18.5649
0.505027 -0.37181 19.2348
-0.973337 1.42742 10.1601
-1.42996 0.843267 12.347
0.775218 -0.139729 18.8065
-1.22393 -0.706486 11.8371
-0.887387 -0.873741 14.8478
0.805138 0.748236 19.1113
1.84741 2.08369 19.791
1.57008 1.43837 21.5539
0.320499 0.136952 21.6413
-0.0298601 -0.410011 21.2331
-0.141088 -0.592094 20.9455
-0.141864 -0.435944 20.6122
0.442923 -0.191452 19.8195
1.19754 -0.663588 20.0915
0.588002 -0.573176 21.3093
-0.0699661 -0.201314 21.2499
-0.470312 -0.00811249 21.2492
-0.744738 0.136028 20.9625
-0.742565 0.0827266 20.8899
0.5453 -0.181679 19.7462
1.60797 -0.59082 20.0215
0.756614 -0.601401 21.43
-0.0188952 -0.306546 21.287
-0.546258 -0.132049 21.3444
-0.862254 -0.0445516 21.0761
-0.807267 -0.199175 21.083
0.719881 -0.0704194 19.6587
1.83515 -0.117918 20.1117
1.00951 -0.289813 21.3052
0.25419 -0.29127 21.3618
-0.395661 -0.359315 21.3292
-0.679325 -0.453319 20.9727
-0.450949 -0.393572 20.6431
0.717656 0.292196 19.8144
1.19431 0.515605 20.3436
0.823079 0.290558 21.1021
0.243791 -0.0338177 21.2499
-0.102055 -0.274482 21.0911
-0.256241 -0.337725 20.9665
-0.284056 -0.408139 20.8445
-0.423023 -0.167681 0.293794
-5.31372e-05 -13.9233 8.61541
-0.00887641 0.00361973 0.267556
0.0127817 0.00327169 0.0484268
-8.29564e-05 0.00972656 0.0948973
0.0172234 0.01668 0.185604
0.000139935 0.115779 0.125465
-0.858253 -0.00897086 2.25796
-0.000143485 -0.00110686 0.00449844
0.0792404 0.121895 0.822143
0.421119 -0.166953 0.292536
0.00886858 0.00361777 0.267242
-0.0129084 0.00331185 0.0487808
-0.0119196 0.0156015 0.125747
0.861598 -0.00961546 2.26693
-0.0793591 0.121915 0.821608
-0.00044432 0.00109381 0.0549193
0.00173332 -0.00108162 0.0646394
-1.10883e-06 4.43629e-06 0.00329411
0.0011748 0.00334853 0.0194925
2.40986e-06 3.32656e-05 0.00205886
0.0770942 0.0917983 0.389885
-2.48854e-05 0.0450413 0.120727
-0.000225092 0.00468091 0.0279138
0.000315281 0.00106445 0.0555248
-0.00169911 -0.00109661 0.0641785
-0.00122235 0.00348542 0.0202448
-0.0773644 0.0919689 0.389529
-0.0252657 -0.0187436 0.210948
0 0 0
0 0 0
-9.70965e-07 0.000155183 0.00377665
1.66416e-06 8.44826e-05 0.00414441
0 0 0
8.37834e-07 -0.00214892 0.00105735
-0.0241575 0.117754 -0.0767832
0 0 0
-6.89093e-07 0.00137733 0.0210183
-2.30077e-07 -2.64078e-06 -0.00057543
0.0250001 -0.0185963 0.20911
0 0 0
0 0 0
-2.90583 -1.44365 19.2801
-3.25028 -4.47817 17.9644
-1.26189 -1.01528 18.2859
0.964058 0.0405567 20.4938
0.46821 0.950901 14.1202
0.572192 1.21334 8.31253
-3.8109 -0.104126 19.4574
-2.26834 -0.164035 17.1528
-3.77755 3.7306 18.5122
0.70394 -0.502176 20.5484
0.731137 -0.503245 8.70079
0.12634 -0.731421 20.9478
3.25939 -4.37238 18.0271
1.26957 -1.00189 18.3123
2.93973 -1.46152 19.2577
-0.48925 0.947441 14.3003
-0.534187 1.22244 8.1158
-0.959575 0.0342419 20.5188
2.2825 -0.170848 17.2229
3.81781 3.3955 18.6449
3.85307 -0.103438 19.4401
-0.660026 -0.500333 8.06202
-0.110405 -0.734283 20.9265
-0.707823 -0.49313 20.4976
-0.472121 -1.04959 20.9363
0.104943 0.292302 13.442
0.314261 -0.364682 20.353
0.232131 0.364248 13.5193
-1.5617 -0.808059 21.8963
-3.59259 1.20829 21.8612
-0.433872 -0.504691 21.1879
-0.563967 -0.0097597 21.5338
-0.0929606 0.259578 13.6663
0.46352 -1.04537 20.836
-0.228025 0.35033 13.6404
-0.312055 -0.367658 20.3773
3.47951 1.14349 21.977
1.56974 -0.822237 21.903
0.542532 0.00599172 21.4078
0.433783 -0.504452 21.1693
-0.775328 -0.385796 19.8193
-0.489851 -0.190821 19.7877
-0.454033 -0.298239 19.6343
-1.16373 -0.833092 20.9003
-1.41287 -0.65971 20.043
-1.7293 -1.44263 19.7316
-0.133761 -0.325748 21.3049
-0.683166 -0.601905 21.367
-0.314531 -0.886952 21.773
0.259636 -0.100144 21.3013
0.0482018 -0.264434 21.2622
0.308304 -0.189207 21.3748
0.651278 0.0871307 21.1163
0.504291 -0.0632816 21.2642
0.75588 0.223801 21.2801
0.811948 0.132942 20.9659
0.799088 0.045561 21.0219
1.0754 0.489766 20.6166
0.758802 -0.0567014 21.0142
1.2196 0.365258 20.2001
-0.974505 -0.343242 19.7211
-0.648117 -0.124211 19.675
-0.564429 -0.272461 19.5085
-1.53546 -0.753738 20.9863
-1.80974 -0.358934 20.0627
-0.236891 -0.420689 21.3672
-0.922451 -0.467245 21.3851
0.230084 -0.228208 21.3461
-0.141295 -0.350149 21.3321
0.752529 -0.0741552 21.1914
0.494947 -0.274501 21.3492
0.890658 -0.0981458 20.6988
0.808777 -0.288304 20.9928
1.38442 0.212204 19.867
0.710622 -0.318166 20.9998
1.41906 -0.0168341 18.9183
-1.24963 -0.0831335 19.6898
-0.766198 0.156793 19.6591
-0.831891 -0.102439 19.2605
-1.64442 -0.18236 20.96
-1.67159 0.379161 20.2048
-0.562468 -0.327643 21.3695
-1.05214 0.035575 21.2159
0.0233178 -0.286843 21.3955
-0.28663 -0.146002 21.3411
0.574776 -0.406711 21.1592
0.23229 -0.360701 21.2114
0.704518 -0.475209 20.7393
0.395034 -0.416795 20.9471
1.02213 -0.723303 20.5053
0.31992 -0.473907 20.8125
0.784366 -0.609364 20.4654
-1.05065 0.4891 19.9447
-0.850571 0.537666 19.4189
-1.15246 0.458097 20.8199
-1.72089 1.23859 20.093
-0.524187 0.111566 21.2459
-1.25224 0.648122 21.3316
-0.023793 -0.164741 21.18
-0.301465 0.0226183 21.4184
0.175422 -0.34099 20.9909
0.0903243 -0.359861 21.1473
0.211037 -0.336002 20.6905
0.203049 -0.488302 20.8014
0.170426 -0.415189 20.4337
-0.860682 -1.00837 18.991
-0.440907 -0.396753 19.3096
0.00719453 -0.506788 19.2095
-0.126322 -1.43655 21.9936
0.0317086 -5.30991 18.4727
0.350439 0.38646 19.9569
0.00470721 -0.302523 15.6288
0.483426 0.560432 19.4446
-0.00245037 0.150049 14.3348
0.719322 1.24586 18.9378
-0.0078123 0.543106 13.7381
1.04814 1.38446 17.848
0.946973 1.43494 15.1425
-0.00700689 0.689756 12.801
1.23178 0.985193 14.9316
0.0283649 1.53601 12.3955
-0.624224 -0.299835 18.9616
0.0105424 -0.494781 18.9178
1.44301 1.66435 13.1234
1.13405 0.463702 6.75373
-0.0164865 -0.838939 -1.67317
1.41028 -0.141772 12.4641
0.0143911 0.212043 2.1243
-0.850446 0.404332 18.6683
0.0169889 -0.189572 18.1557
1.44813 -0.863694 14.2444
0.280591 -0.956213 20.8775
0.038817 -0.414369 1.25924
0.337454 -0.74584 20.5159
0.0991447 -1.23141 6.08661
-1.30558 1.6653 19.0093
0.0316129 1.14698 18.5602
-2.00363 2.20122 20.7322
0.13318 3.62681 19.2219
-0.834682 0.683631 21.8012
0.0511447 3.30534 21.8244
-0.0833838 -0.203815 21.4303
-0.0111762 0.352401 21.8887
0.104872 -0.50864 21.0747
-0.00434327 -0.362734 21.3216
0.16617 -0.579316 20.9047
-0.00263633 -0.772954 21.0169
0.00676513 -0.639223 19.9442
0.87632 -0.982068 19.0272
0.452347 -0.383091 19.3375
0.456067 -0.286893 19.647
0.14713 -1.59638 22.0298
1.70868 -1.41001 19.7546
-0.370644 0.33318 20.1666
0.344321 -0.868556 21.7332
-0.493398 0.523109 19.462
-0.291624 -0.200676 21.3782
-0.744669 1.22704 19.005
-0.741887 0.20094 21.306
-1.03247 1.40589 17.8365
-0.917472 1.44001 15.0299
-1.06551 0.478565 20.6329
-1.21685 1.01945 14.82
-1.22167 0.383392 20.2138
0.643019 -0.284153 18.9912
0.568889 -0.276605 19.5128
-1.3869 1.71833 12.3199
-1.09786 0.493233 6.02998
-1.40096 0.241904 19.706
-1.45646 -0.0796575 11.575
-1.40143 0.0403807 18.8353
0.87415 0.373214 18.7704
0.820958 -0.0959678 19.2807
-1.45116 -0.884823 13.6065
-0.257469 -0.971257 20.8584
-1.05815 -0.74285 20.3898
-0.317536 -0.727149 20.6859
-0.795009 -0.664881 20.4568
1.3524 1.51733 19.1275
0.832871 0.492763 19.5013
1.99021 2.04222 20.7548
1.64549 1.08624 20.1438
0.833839 0.68777 21.8042
1.2284 0.619495 21.3167
0.0872792 -0.202391 21.4451
0.306931 0.0322644 21.4337
-0.0927383 -0.516543 21.0751
-0.0870776 -0.370048 21.1672
-0.15505 -0.603562 20.8796
-0.192525 -0.512495 20.8911
-0.152587 -0.41888 20.3144
0.773276 -0.380294 19.8257
0.490612 -0.189972 19.7895
1.15767 -0.820898 20.8975
1.4201 -0.667261 20.0372
0.148338 -0.328489 21.2938
0.684455 -0.60525 21.3685
-0.249535 -0.108895 21.2902
-0.0448514 -0.265476 21.2524
-0.643908 0.0812998 21.1132
-0.500628 -0.061733 21.2701
-0.813488 0.12992 20.9665
-0.799135 0.0564649 21.0187
-0.774976 -0.0640339 21.0003
0.979199 -0.343706 19.7123
0.644514 -0.123144 19.6802
1.5588 -0.774073 20.9959
1.83156 -0.365372 20.0489
0.235815 -0.423294 21.3665
0.925251 -0.473287 21.3936
-0.230563 -0.228165 21.3417
0.139563 -0.350505 21.3333
-0.751752 -0.0772463 21.1871
-0.494637 -0.276969 21.3471
-0.899882 -0.0993389 20.7342
-0.822924 -0.29623 20.9895
-0.704707 -0.319714 21.0014
1.2409 -0.0820703 19.6948
0.765114 0.135589 19.696
1.66001 -0.184192 20.9615
1.61984 0.342695 20.2169
0.565417 -0.331532 21.3737
1.04875 0.0339888 21.2135
-0.0210125 -0.288955 21.3974
0.292644 -0.15029 21.3482
-0.58118 -0.412355 21.1608
-0.232586 -0.373313 21.2102
-0.732739 -0.495399 20.8032
-0.405827 -0.446531 20.9724
-0.312585 -0.470669 20.8137
1.01462 0.443754 19.9901
1.10729 0.440175 20.8099
0.52718 0.112491 21.2493
0.0324672 -0.164095 21.1986
-0.175576 -0.359121 20.9998
-0.207394 -0.353596 20.7002
-0.87614 -0.382494 19.7805
-1.06729 -1.06899 18.6732
-0.899951 -0.665934 19.488
-1.23606 -0.61979 19.1837
-0.507605 -0.285772 19.5718
-2.29247 -1.53456 19.5208
-1.34096 -0.796003 20.9434
0.548966 -0.541035 16.1174
-1.37326 -1.73498 21.3604
-2.60577 -2.17308 21.7512
-0.374361 -1.04889 21.8253
-0.190806 -0.389703 21.3154
0.0319313 0.394197 13.0667
0.14678 -0.357719 21.4936
0.197623 -0.518676 20.2749
0.351255 -0.286309 20.9789
0.244728 -0.170444 21.3198
0.378716 0.52187 13.1303
0.485505 -0.0531613 21.3355
0.460212 -0.280389 20.2689
0.883192 0.153038 20.8999
0.699472 0.0122001 21.1378
0.663277 1.37611 14.3191
0.967703 0.421087 21.0168
1.25396 0.174601 20.2236
1.30696 0.368773 20.5678
0.85462 0.0185876 20.7958
1.24682 1.62031 15.2549
1.16171 0.368762 20.5377
1.35281 0.0985492 19.5891
1.33811 0.183828 19.8962
-1.18683 -0.233009 19.6712
-1.80457 -0.850683 17.4899
-1.87807 -0.12358 18.8743
-0.698227 -0.206839 19.3739
-3.85015 -0.994965 19.2686
-1.69166 -0.480224 20.995
-3.07901 -0.407276 21.4907
-0.971165 -1.06495 22.0697
-0.398366 -0.4256 21.3738
-0.821763 -0.80906 21.5577
0.0649449 -0.559667 20.265
0.120443 -0.305371 21.3868
-0.147736 -0.30913 21.1239
0.95764 -0.154481 19.8112
0.734828 -0.268485 21.1169
0.140525 0.384588 3.05825
0.876623 -0.683121 20.8663
1.37778 -0.291516 19.6334
0.831425 -0.311592 21.0076
1.86882 0.0231388 11.3847
0.877263 -0.691887 20.9392
1.20156 -0.212823 19.5767
-1.26519 0.287773 19.7593
-2.04551 1.55531 17.8054
-1.3223 0.959106 19.5617
-0.924238 0.243202 19.2412
-2.83161 1.14761 19.7269
-1.51432 0.230505 20.8784
-3.92005 2.69615 20.8904
-1.66357 1.06459 20.8519
-1.79476 0.194526 21.5403
-0.642474 -0.0860843 21.3426
-1.73914 0.382387 21.5552
-0.707786 0.301268 21.4685
-0.454768 -0.108205 21.5886
-0.00864182 -0.243199 21.3147
-0.0476232 -0.334044 21.2976
-0.0584601 -0.187387 21.321
0.239017 -0.527253 21.3268
0.336238 -0.431798 21.0528
0.212356 -0.859402 20.9368
0.170018 -0.430529 21.0222
0.408937 -0.671032 20.9818
0.363389 -0.453846 20.6707
0.295157 -0.94197 20.8986
0.236447 -0.420007 20.8688
0.393021 -0.625708 20.3868
1.0717 -1.04137 18.714
0.0176536 -1.46552 18.4426
0.0164401 -1.50073 17.2608
0.00645638 -0.497244 19.0695
0.021303 -8.47427 16.9725
-0.538289 -0.648176 16.3028
0.0123277 -1.94352 20.6764
-0.00347084 0.0486531 5.89877
-0.0102184 0.390424 13.2482
0.00115667 0.0192326 14.3348
-0.00893533 0.121317 6.47589
-0.388307 0.518926 13.295
-0.00565809 0.285628 13.8203
-0.00168294 0.38669 6.88437
-0.668409 1.37186 14.3476
0.000351235 0.547477 13.0878
-0.0329747 -0.74451 -0.0461105
-0.0178539 0.124666 5.53413
-1.2273 1.65265 15.1623
-2.62989e-05 1.08929 12.0141
-0.0134383 0.727666 1.57568
0.0233683 0.78608 7.06881
1.82666 -0.843882 17.5395
0.0347604 0.153165 14.7432
0.0189315 -0.373855 18.5008
-0.0709457 0.393811 2.74823
-0.0184683 0.574598 0.370704
0.0388827 -1.09002 -4.06804
-1.87838 0.0702146 10.7326
0.0652256 -0.657449 2.98894
0.0801621 -0.324507 -0.190031
2.09046 1.40759 17.9978
0.0816093 2.50549 18.4138
0.0532286 0.615001 18.0468
0.101165 6.21826 17.6447
3.90469 2.49416 20.9563
0.0890495 3.91952 20.2894
0.0409091 5.58063 19.6016
1.73919 0.385063 21.5456
-0.0029177 1.43239 22.2674
-0.00770183 0.147739 16.3397
0.0395254 -0.339445 21.2006
-0.00727301 -0.125729 21.5825
-0.00605576 -0.429446 16.8685
-0.186326 -0.859023 20.9044
-0.000816703 -0.504169 21.2213
0.0110848 -0.821586 18.083
-0.255097 -0.961617 20.8934
0.00390502 -0.544086 20.8154
0.0257679 -0.249075 19.3037
0.875372 -0.380645 19.7823
0.901461 -0.657135 19.5077
1.23883 -0.618183 19.1833
0.51073 -0.280939 19.5827
2.29068 -1.52681 19.5247
1.34322 -0.802644 20.9462
1.38828 -1.68339 21.3361
2.63203 -2.20409 21.7684
0.395631 -1.04507 21.8532
0.196706 -0.395652 21.3059
-0.117319 -0.363555 21.5191
-0.197105 -0.515633 20.2331
-0.336828 -0.297378 21.0863
-0.238499 -0.173894 21.305
-0.473566 -0.0582974 21.3442
-0.458067 -0.282905 20.2908
-0.873098 0.131331 21.0043
-0.6914 0.0126289 21.1335
-0.957774 0.39815 21.0764
-1.25661 0.180472 20.1623
-1.30525 0.368241 20.5416
-0.857031 0.0175551 20.8164
-1.16658 0.371758 20.5238
-1.35549 0.165307 19.3251
-1.32849 0.227268 19.8368
1.18689 -0.234623 19.6689
1.87479 -0.124787 18.9041
0.694433 -0.208405 19.3902
3.89292 -1.00852 19.2435
1.72298 -0.491711 21.0006
3.10517 -0.41552 21.5032
0.964641 -1.07591 22.0451
0.39674 -0.428854 21.3767
0.826445 -0.816746 21.5495
-0.0670239 -0.560181 20.2556
-0.123346 -0.302983 21.3897
0.149223 -0.301445 21.0898
-0.954934 -0.155457 19.8037
-0.73978 -0.271473 21.1182
-0.890574 -0.676792 20.7427
-1.39365 -0.248832 19.2368
-0.853733 -0.326955 21.0526
-0.901008 -0.726011 20.8879
-1.24853 -0.16592 19.3027
1.23568 0.258868 19.7966
1.28367 0.853808 19.6427
0.904338 0.234284 19.3167
2.7 1.02657 19.8012
1.48095 0.227476 20.8733
1.58858 0.961297 20.8555
1.76801 0.193809 21.5298
0.648012 -0.0876623 21.3466
0.709733 0.304818 21.4727
0.45938 -0.107844 21.602
0.0152763 -0.248586 21.3277
0.0571855 -0.191147 21.3359
-0.24097 -0.552374 21.337
-0.340058 -0.444638 21.0639
-0.167294 -0.446812 21.0428
-0.428459 -0.701457 20.9657
-0.376573 -0.478046 20.6402
-0.257742 -0.452518 20.8942
-0.390267 -0.638487 20.2643
-1.06967 -0.656159 19.3294
-1.8155 -2.04347 21.5567
0.208437 -0.453621 21.1557
0.528509 -0.159871 20.8293
1.16857 0.338571 20.6355
1.27729 0.192319 20.7864
-1.60269 -0.448256 18.9684
-3.03655 -1.19255 21.7935
-0.134791 -0.822555 20.84
0.12471 -0.393133 20.1909
1.23377 -0.210722 19.6965
1.3124 -0.244836 19.4795
-1.7685 0.656276 19.0979
-2.60799 0.732959 21.0697
-1.05585 -0.0177075 21.6786
-0.0499546 -0.267265 21.5141
0.351456 -0.634562 21.1502
0.37352 -0.67569 20.7559
0.0116507 -1.53726 17.8829
-0.00158267 -0.367061 8.42283
-0.00679307 0.0819029 5.79829
-0.00729034 0.197493 6.69803
-0.00566414 0.066909 6.06249
-0.0111111 1.03983 6.69787
0.0194606 -1.1698 15.8453
-0.00604479 -0.214883 -3.13265
0.049864 -0.67041 -3.46624
0.0991525 2.74306 16.4118
0.0884867 5.66546 19.0453
-0.00135897 1.39804 16.1745
-0.00774962 -0.296691 15.9649
-0.00440863 -0.551264 17.6235
0.0147017 -1.02443 18.5033
1.06863 -0.651301 19.3422
1.82021 -2.01289 21.5397
-0.191631 -0.464387 21.2454
-0.518144 -0.174125 20.9685
-1.16097 0.327818 20.6429
-1.2901 0.217043 20.7603
1.59466 -0.445622 18.9821
3.06338 -1.20693 21.8126
0.129453 -0.820626 20.7772
-0.124262 -0.393545 20.1822
-1.23975 -0.190194 19.5236
-1.37942 -0.188053 18.9845
1.7148 0.606474 19.192
2.54561 0.691591 21.0631
1.06227 -0.0164423 21.6836
0.0505256 -0.269789 21.5346
-0.342526 -0.666333 21.149
-0.37197 -0.709284 20.8032
-0.5041 -0.266278 0.279697
-2.67798 -10.1035 9.12889
-0.0109484 0.016309 0.134077
0.0310987 0.0199549 0.0633701
-0.0120421 0.0170522 0.144404
0.00601794 0.0452579 0.757326
-1.6231 -0.117885 1.19642
-0.0184621 0.116314 0.159335
-0.48129 -0.0693757 0.987539
0.0022933 0.00436417 0.0144216
0 0 0
0.0499057 -0.0154914 0.656295
2.68105 -10.1042 9.13253
0.502954 -0.265186 0.278706
0.0108097 0.0163255 0.134682
0.0120021 0.017084 0.144657
-0.0300088 0.0192488 0.060937
-0.00534537 0.0441301 0.742575
0.0184442 0.114401 0.156812
1.60985 -0.118628 1.18972
0.485946 -0.0670197 0.997924
0 0 0
-0.00243452 0.00436541 0.014169
-0.0500263 -0.0154495 0.656246
-0.0026343 0.00242888 0.0620842
-0.00103719 0.00032703 0.0114402
0.00485897 0.00209093 0.159978
0.00109765 0.000168142 0.00904455
0.0165796 0.0156287 0.403523
0.000420889 0.000809184 0.0436671
0.000211321 0.000713149 0.0189492
0.000370283 9.2764e-05 0.00449755
-0.183825 -0.194979 1.54693
0.00190257 -0.00231959 0.0898848
0.0222044 0.0596686 0.67628
-0.0205306 0.0252564 0.0722184
0.115817 0.130067 0.67449
0 0 0
0.0583395 0.150871 0.553622
0.191883 -0.0324739 0.459482
0.00262597 0.00243214 0.0622079
-0.00109788 0.000168317 0.00904585
0.00105485 0.00032738 0.0113644
-0.00486452 0.00209986 0.159888
-0.0164848 0.0157754 0.40473
-0.000370384 9.2825e-05 0.00450097
-0.000317597 0.000757713 0.0412172
-0.000214873 0.000736594 0.0192952
0.186967 -0.196771 1.53079
0.0240977 0.0299163 0.0852271
-0.00246823 -0.00301982 0.117913
-0.0220417 0.0594761 0.669539
-0.116805 0.131277 0.67658
-0.191911 -0.0330423 0.459467
0 0 0
-0.0583553 0.15087 0.552719
-1.01586e-16 -9.33387e-17 3.36906e-16
0 0 0
-6.34687e-10 8.64633e-07 3.31707e-06
0 0 0
-0.378959 -0.259334 1.27103
0.00385202 0.00122615 0.0283992
6.81517e-06 0.000479269 0.00568603
-0.106461 0.0214416 -0.00384301
-1.86791e-06 0.000218383 0.00432388
-0.00257685 -0.151792 -0.0590192
0.000967149 -0.00165021 0.0425208
0 0 0
0.000502861 1.34219 0.571701
-1.33348e-05 0.0435321 0.103385
-0.00242443 -0.00298375 0.0323106
0 0 0
0 0 0
-8.31319e-06 -9.64404e-05 0.000443612
0 0 0
0 0 0
0 0 0
0 0 0
-0.0038611 0.00123298 0.0284841
0.375872 -0.258075 1.2639
0.094449 0.0192408 -0.00370293
-6.38332e-06 0.000480025 0.00567504
0 0 0
-0.000748688 -0.00128127 0.0336589
0 0 0
0.00121475 -0.0017331 0.0192413
0 0 0
0 0 0
0.0115831 0.0507691 0.34486
0.000521337 8.92729e-05 0.00425261
-9.02409e-06 -2.21112e-05 0.000940902
-3.86227e-18 -7.6977e-18 -6.72407e-17
6.64537e-09 -2.33404e-07 -1.28805e-05
0 0 0
8.62901e-05 0.000584007 0.00302743
-0.00832787 0.00126409 0.0587329
-2.03932e-07 -2.17682e-07 -1.617e-05
0 0 0
0 0 0
0.0241495 0.0274307 0.46428
0.000635832 0.014418 0.0351222
1.59481e-05 0.040262 0.177055
-1.43077e-06 -0.00016949 0.0270905
0 0 0
-0.000526542 8.99858e-05 0.00428767
-0.0116775 0.0513312 0.345054
7.47857e-06 -1.86946e-05 0.000785027
0 0 0
-8.51488e-05 0.000578498 0.0029875
0.00903968 0.00148265 0.0640529
-0.0239167 0.0273807 0.464462
0 0 0
0 0 0