# vtk DataFile Version 2.0
tri_press
ASCII
DATASET UNSTRUCTURED_GRID
POINTS 3682 float
-0.64723 0.095 -2.045
-0.798131 0.195 1.785
-0.704328 0.385 -1.865
-0.765 0.855 1.87458
0.647208 0.095 -2.045
0.798131 0.195 1.785
0.704331 0.385 -1.865
0.765 0.855 1.87458
-0.711666 0.114198 -0.768334
-0.765539 0.143959 0.508333
-0.855504 0.672619 -0.618473
-0.833903 0.78746 0.628053
0.711652 0.114197 -0.768334
0.76553 0.14396 0.508333
0.855463 0.672575 -0.618473
0.8339 0.787456 0.628053
-1.42104 -0.262608 -3.12714
-1.41898 -0.160864 -2.11788
-1.4732 -0.137784 -0.840433
-1.52416 -0.139804 0.443079
-1.5503 -0.104613 1.72104
-1.55809 -0.049491 2.7328
-1.56116 0.0177567 3.73993
-1.41829 -0.0447433 -3.04798
-1.42188 0.0859514 -2.04201
-1.49642 0.14126 -0.770425
-1.54279 0.163166 0.503869
-1.55879 0.207953 1.77603
-1.56576 0.263369 2.78737
-1.56851 0.328638 3.79548
-1.4462 0.345002 -2.88119
-1.48159 0.471912 -1.87397
-1.59997 0.685575 -0.622938
-1.60259 0.790039 0.625962
-1.55974 0.856393 1.87757
-1.57013 0.907376 2.89016
-1.5793 0.963965 3.90313
-1.48738 1.10621 -2.65367
-1.51549 1.25386 -1.65097
-1.57467 1.48324 -0.409702
-1.60794 1.6683 0.825064
-1.60613 1.78338 2.06664
-1.60097 1.84772 3.07
-1.60022 1.90436 4.07969
-0.689056 -0.258786 -3.12909
-0.672371 -0.152575 -2.12072
-0.710374 -0.149709 -0.840052
-0.750663 -0.156037 0.446889
-0.774937 -0.118133 1.7277
-0.781746 -0.0598652 2.73732
-0.784034 0.00999837 3.74255
-0.682754 -0.0509762 -3.04858
-0.791511 0.255019 2.79109
-0.79139 0.322107 3.79746
-0.699927 0.306697 -2.87746
-0.792054 0.904597 2.88956
-0.801147 0.960896 3.90301
-0.72002 1.07955 -2.64998
-0.733943 1.22856 -1.6469
-0.782402 1.47485 -0.407255
-0.817759 1.67104 0.82477
-0.821719 1.78728 2.06454
-0.818948 1.85014 3.06791
-0.819526 1.90542 4.07816
0.711178 -0.258791 -3.12909
0.694457 -0.152578 -2.12072
0.734967 -0.149711 -0.840052
0.776493 -0.156037 0.446889
0.796646 -0.118133 1.7277
0.784162 -0.0598661 2.73732
0.775296 0.0099967 3.74255
0.70372 -0.0509807 -3.04857
0.776223 0.255018 2.79109
0.768755 0.322105 3.79746
0.729694 0.306691 -2.87746
0.761908 0.904597 2.88956
0.757673 0.960894 3.90301
0.796194 1.07953 -2.64998
0.811306 1.22854 -1.6469
0.810676 1.47483 -0.407255
0.782848 1.67103 0.82477
0.758592 1.78727 2.06454
0.749822 1.85014 3.06791
0.74449 1.90541 4.07816
1.43347 -0.262622 -3.12714
1.42387 -0.160877 -2.11788
1.48267 -0.137795 -0.840433
1.54172 -0.139808 0.443079
1.56754 -0.104614 1.72104
1.56306 -0.0494936 2.7328
1.55446 0.0177526 3.73993
1.42529 -0.0447574 -3.04798
1.41011 0.0859354 -2.04201
1.48903 0.141244 -0.770425
1.54568 0.163163 0.503869
1.56366 0.207952 1.77603
1.55771 0.263367 2.78737
1.54925 0.328635 3.79548
1.46223 0.344985 -2.88119
1.47485 0.471887 -1.87397
1.59174 0.685532 -0.622938
1.59827 0.790029 0.625961
1.55452 0.856391 1.87757
1.54494 0.907373 2.89016
1.53898 0.96396 3.90313
1.55081 1.10619 -2.65367
1.57362 1.25383 -1.65097
1.59271 1.48321 -0.409703
1.57666 1.66827 0.825064
1.54963 1.78337 2.06664
1.5358 1.84771 3.07
1.52741 1.90435 4.07969
-0.607515 0.24 -1.88674
-1.10269e-05 0.0943448 -2.04566
-0.689678 0.0943689 -1.40667
-0.815304 0.525 1.86353
0 0.201095 1.77891
-0.771603 0.179711 1.14667
1.49012e-06 0.437529 -1.91753
-0.872456 0.621349 -1.24174
0 0.874499 1.89408
-0.831588 0.853367 1.25132
0.607495 0.24 -1.88673
0.689659 0.0943693 -1.40667
0.815306 0.525 1.86353
0.77026 0.181051 1.14667
0.87249 0.621381 -1.24174
0.831608 0.853386 1.25132
-0.738719 0.128961 -0.13
-0.894977 0.393408 -0.693403
-7.06872e-06 0.104586 -0.768334
-0.818234 0.465709 0.568193
-4.27621e-06 0.144801 0.508333
-0.837491 0.722827 0.00479001
-2.05752e-05 0.970914 -0.618473
-1.27346e-06 1.03152 0.628053
0.738707 0.128963 -0.13
0.895023 0.393386 -0.693403
0.818235 0.465708 0.568193
0.837488 0.722823 0.00479001
-0.879898 0.316704 -1.3242
0.879896 0.316693 -1.3242
-9.04779e-06 0.0921628 -1.40667
-9.54256e-06 0.700811 -1.24174
-4.76837e-06 0.24 -1.95238
-0.847196 0.429559 -0.062605
0.847185 0.429547 -0.062605
-5.67247e-06 0.128951 -0.13
-1.09244e-05 1.10851 0.00479001
-0.881055 0.495355 1.19899
0.88105 0.495354 1.19899
-2.13811e-06 0.164305 1.14667
-6.36731e-07 0.901315 1.25132
0 0.525 2.11334
-0.554216 0.1675 -1.89271
-0.323621 0.0943227 -2.04568
-0.6695 0.093638 -1.72583
-0.813713 0.36 1.83126
-0.399065 0.201162 1.77884
-0.779639 0.192584 1.46583
-0.664661 0.3125 -1.88461
-0.352163 0.427238 -1.90724
-0.795953 0.510736 -1.55337
-0.790924 0.69 1.86983
-0.3825 0.870431 1.89001
-0.810507 0.866396 1.56295
0.323598 0.0943212 -2.04568
0.554151 0.1675 -1.89266
0.66948 0.0936383 -1.72583
0.399065 0.201165 1.77884
0.813725 0.36 1.83127
0.779427 0.192794 1.46583
0.352166 0.427204 -1.9072
0.664729 0.3125 -1.88468
0.795952 0.510732 -1.55337
0.3825 0.8708 1.89038
0.790832 0.69 1.86973
0.810513 0.866402 1.56295
-0.695078 0.109877 -1.0875
-0.720557 0.126215 -0.449167
-0.899212 0.205858 -0.730869
-0.356295 0.108475 -0.768334
-0.776424 0.153982 0.8275
-0.751883 0.136706 0.189167
-0.85457 0.273492 0.538263
-0.383074 0.143775 0.508333
-0.881104 0.664108 -0.930105
-0.891191 0.540989 -0.655938
-0.840266 0.691491 -0.306842
-0.487864 0.94197 -0.618473
-0.834503 0.822171 0.939685
-0.833119 0.63011 0.598123
-0.835096 0.754543 0.316422
-0.488015 1.05162 0.628053
0.695062 0.109877 -1.0875
0.35628 0.108475 -0.768334
0.720543 0.126217 -0.449167
0.899212 0.205855 -0.730869
0.77642 0.15398 0.8275
0.383064 0.143777 0.508333
0.751868 0.136712 0.189167
0.854572 0.273489 0.538263
0.880929 0.66393 -0.930105
0.488056 0.942415 -0.618473
0.891631 0.541175 -0.655938
0.84027 0.691494 -0.306842
0.834504 0.822171 0.939685
0.487987 1.05156 0.628053
0.833089 0.630093 0.598123
0.835097 0.754543 0.316422
-0.796944 0.278352 -1.60547
-0.30376 0.24 -1.94245
-1.00373e-05 0.0916609 -1.72616
-7.89762e-06 0.167172 -1.93917
-0.881038 0.205536 -1.36543
-0.344844 0.0921661 -1.40667
-0.890193 0.510177 1.53126
-0.407652 0.525 2.08328
-1.06905e-06 0.1803 1.46279
0 0.363047 2.08254
-0.858857 0.337533 1.17283
-0.385803 0.164297 1.14667
-4.02622e-06 0.622609 -1.57963
-1.63913e-06 0.338765 -1.99732
-0.87711 0.469027 -1.28297
-0.436233 0.694475 -1.24174
-3.18366e-07 0.893434 1.5727
0 0.69975 2.05279
-0.887258 0.674361 1.22515
-0.415794 0.900114 1.25132
0.797736 0.278347 -1.60546
0.303745 0.24 -1.94245
0.881028 0.205531 -1.36543
0.344825 0.092166 -1.40667
0.890195 0.510177 1.53126
0.407653 0.525 2.08232
0.858904 0.338202 1.17283
0.385129 0.164297 1.14667
0.877106 0.469037 -1.28297
0.43624 0.694125 -1.24174
0.887256 0.67437 1.22515
0.415804 0.900135 1.25132
-0.856584 0.247447 -0.0963025
-0.369306 0.129068 -0.13
-0.89779 0.355056 -1.0088
-0.857105 0.411483 -0.378004
-8.05826e-06 0.103241 -1.0875
-6.3706e-06 0.125751 -0.449167
-0.837911 0.447634 0.252794
-0.861796 0.480532 0.883593
-4.97434e-06 0.136885 0.189167
-3.20716e-06 0.154121 0.8275
-0.850694 0.580368 -0.0289075
-0.499381 1.07693 0.00479001
-1.50589e-05 0.842352 -0.930105
-1.57498e-05 1.07308 -0.306842
-6.09891e-06 1.11268 0.316422
-9.55097e-07 0.901992 0.939685
0.856587 0.247434 -0.0963025
0.369294 0.12907 -0.13
0.897789 0.35504 -1.0088
0.857098 0.411467 -0.378004
0.837904 0.447628 0.252794
0.861797 0.480531 0.883593
0.850694 0.580364 -0.0289075
0.499357 1.0769 0.00479001
-0.775693 0.186518 -1.66565
-0.899244 0.22967 -1.04815
-0.890754 0.50102 -0.969454
-0.809712 0.390763 -1.57942
0.775669 0.186516 -1.66565
0.810232 0.390769 -1.57942
0.890759 0.501009 -0.969454
0.899255 0.229662 -1.04815
-0.334232 0.0916647 -1.726
0.334212 0.0916647 -1.726
0.350324 0.103241 -1.0875
-0.35034 0.103241 -1.0875
-0.394198 0.620952 -1.5665
-0.431997 0.819455 -0.930105
0.431981 0.819435 -0.930105
0.394203 0.620894 -1.5665
-0.31369 0.167336 -1.9299
-0.327962 0.325632 -1.97635
0.327956 0.325632 -1.97647
0.313672 0.167336 -1.92988
-0.858714 0.236244 -0.413586
-0.85489 0.260813 0.22098
-0.842484 0.605528 0.284608
-0.863184 0.556799 -0.342423
0.858184 0.236502 -0.413586
0.863189 0.556783 -0.342423
0.842481 0.605523 0.284608
0.854894 0.260805 0.22098
-0.359694 0.124986 -0.449167
0.359681 0.124986 -0.449167
0.376182 0.136418 0.189167
-0.376194 0.136414 0.189167
-0.507606 1.03742 -0.306842
-0.500249 1.07738 0.316422
0.500204 1.0773 0.316422
0.507593 1.03743 -0.306842
-0.856806 0.321183 0.855546
-0.857617 0.348766 1.49855
-0.895682 0.68218 1.5471
-0.85957 0.650473 0.911639
0.856821 0.321518 0.855546
0.847455 0.650476 0.911639
0.895682 0.682185 1.5471
0.857769 0.349101 1.49855
-0.384287 0.154109 0.8275
0.383946 0.154109 0.8275
0.392097 0.180358 1.46431
-0.392434 0.180358 1.46431
-0.416373 0.900688 0.939685
-0.399147 0.891215 1.56782
0.399152 0.891319 1.56782
0.416376 0.900678 0.939685
-0.403359 0.361524 2.07718
0.403359 0.361524 2.07646
0.395076 0.694875 2.04328
-0.395076 0.694875 2.04328
-0.535772 0.13125 -1.9039
-0.485425 0.0943197 -2.04568
-0.658264 0.09442 -1.88542
-0.805835 0.2775 1.80804
-0.598598 0.200112 1.77989
-0.781372 0.201305 1.62542
-0.690024 0.34875 -1.88033
-0.528246 0.413951 -1.89395
-0.758796 0.456523 -1.70918
-0.777205 0.7725 1.87145
-0.57375 0.890023 1.9096
-0.790646 0.863591 1.71876
0.485403 0.0943181 -2.04568
0.535081 0.13125 -1.90323
0.658244 0.0944194 -1.88542
0.598598 0.200103 1.7799
0.804853 0.2775 1.80706
0.782171 0.200505 1.62542
0.528249 0.41392 -1.89392
0.690523 0.34875 -1.88083
0.758769 0.456493 -1.70918
0.57375 0.890131 1.90971
0.777238 0.7725 1.87148
0.790642 0.863586 1.71876
-0.701433 0.113977 -0.927917
-0.714669 0.121648 -0.60875
-0.900259 0.112618 -0.749601
-0.534043 0.111212 -0.768334
-0.771608 0.148343 0.667917
-0.757323 0.141721 0.34875
-0.847028 0.190239 0.523298
-0.574141 0.144196 0.508333
-0.863756 0.663815 -0.774289
-0.883166 0.611713 -0.637206
-0.841205 0.675375 -0.462658
-0.699641 0.863208 -0.618473
-0.834652 0.805264 0.783869
-0.862962 0.723511 0.613088
-0.832916 0.769418 0.472238
-0.645521 0.888663 0.628053
0.701417 0.113977 -0.927917
0.534029 0.11121 -0.768334
0.714658 0.121646 -0.60875
0.900251 0.112616 -0.749601
0.771606 0.148339 0.667917
0.574132 0.1442 0.508333
0.757307 0.141728 0.34875
[...]
POINT_DATA 3682
SCALARS point_scalars float 1
LOOKUP_TABLE default
-52.4649
-46.0334
28.0147
-41.0916
-52.5194
-45.8036
27.8798
-41.0302
-44.2378
-31.0692
-61.2724
-37.5912
-44.2291
-31.0493
-61.4233
-37.6059
-52.4649
-114.275
-47.6603
-29.9344
-42.2178
-34.6693
-31.9662
-52.4649
-89.4643
-48.4869
-30.075
-45.8034
-33.9383
-32.0933
81.9914
-56.178
-56.0721
-32.1416
-50.5982
-32.1712
-32.1712
20.5034
-55.5155
-73.0691
-37.5915
-43.5481
-40.4714
-40.4714
13.4133
-52.4649
-45.2005
-30.5933
-41.1839
-31.9662
-29.5664
13.4133
-31.4228
-29.4637
164.548
-30.4699
-29.7376
120.53
-27.1909
-79.9047
-49.9971
-38.8133
-36.0342
-32.0996
13.6455
-52.5194
-45.8165
-30.5067
-40.9093
-31.9229
-29.3954
13.6455
-30.8233
-29.3954
164.538
-30.2664
-29.5395
125.606
-24.0769
-78.9523
-49.9948
-36.8055
-35.2149
-31.8129
-52.5194
-113.868
-47.6495
-29.8677
-42.1651
-34.5968
-31.9229
-52.5194
-91.2561
-48.4895
-30.0779
-45.7628
-33.8631
-32.0318
81.4772
-55.3887
-56.157
-32.1857
-50.4352
-32.115
-32.115
20.4021
-55.4952
-72.8363
-37.5924
-43.4857
-40.412
-40.412
81.8414
42.4411
-71.0602
-39.8466
-33.2037
-33.4771
69.9462
-69.5396
-30.9531
-40.8607
81.8419
-71.0523
-39.7808
-33.5193
-69.6076
-40.893
-33.2518
-55.2303
-44.4471
-29.8056
-32.3637
-46.2864
-38.5583
-54.3494
-33.1921
-55.2397
-29.8613
-46.3132
-80.7627
-80.6585
-69.5314
-6.89035
197.25
-35.7819
-35.8021
-34.9684
-84.3269
-34.4416
-34.4236
-33.6158
-40.6352
-22.5106
90.5895
75.2455
-122.615
-43.3902
-37.0937
-35.568
67.5855
78.8075
-33.0133
-37.6976
-32.6029
-45.0427
74.3594
91.4448
-122.518
-37.0674
-43.3102
-35.4547
78.7255
67.0299
-32.9272
-32.5686
-37.591
-45.0219
-51.6852
-36.225
-55.4096
-43.9398
-32.3403
-31.1686
-29.3571
-31.993
-69.3513
-55.6864
-48.5658
-46.6252
-36.5216
-30.5283
-41.4221
-57.2306
-51.6677
-43.9379
-36.2704
-55.4015
-32.3463
-31.9919
-31.1371
-29.3809
-69.1157
-46.8608
-55.7541
-48.6603
-36.4723
-57.2412
-30.5811
-41.4362
-48.3707
190.266
-102.376
194.985
-68.6319
-69.1763
-42.9091
-29.1395
-33.5227
-24.1511
-33.9652
-33.6896
-5.07962
190.043
-78.9026
-21.8291
-35.1629
-27.4826
-35.7811
-40.6
-48.3527
190.258
-68.6303
-69.174
-42.885
-29.0701
-33.9189
-33.6843
-78.0018
-23.1641
-35.7898
-40.5938
-33.819
-34.2902
-64.6156
-40.7578
-53.6967
-38.2935
-33.6316
-28.9201
-32.9635
-32.7675
-38.4311
-71.6689
-6.21101
-83.1182
-70.8939
-47.5627
-33.8246
-34.2877
-64.5761
-40.7756
-33.6482
-28.8474
-38.4624
-71.693
-69.1196
-61.0212
-64.8567
-49.9563
-69.4721
-49.196
-64.799
-60.9795
-105.026
-105.027
-52.876
-52.8799
-8.47042
-12.1066
-11.9247
-8.56594
186.215
193.54
193.437
186.14
-38.3703
-31.6965
-34.8959
-42.6578
-38.3542
-42.7055
-34.9191
-31.6952
-37.5206
-37.5178
-32.3288
-32.3276
-78.3612
-61.2281
-61.2322
-78.4095
-30.4201
-39.4231
-46.5436
-28.6293
-30.4073
-28.0549
-46.5706
-39.3852
-32.5486
-32.5465
-34.2618
-34.2717
-47.1956
-36.022
-36.0123
-47.1924
-29.7037
-29.6568
-29.7672
-29.814
38.6166
13.4133
-44.2763
-47.1801
-41.3867
-37.576
54.9867
84.0152
-15.2869
-39.0024
-36.3731
-42.7473
13.6455
39.3079
-44.5188
-41.38
-47.2673
-37.838
83.5356
54.3155
-15.1544
-36.3191
-38.9923
-42.6898
-47.1993
-42.1765
-49.545
-42.9364
-32.0364
-31.0485
-31.6502
-31.5233
-62.5741
-57.5018
-52.0481
-79.5631
-37.5683
-32.2836
-39.3484
-47.6782
-47.1876
-42.9336
-42.2022
-49.5084
-32.0356
-31.52
-31.0367
-31.6311
-62.7107
-79.9251
-57.6083
-52.2873
-37.7887
-47.6676
-32.2775
-39.3517
84.4164
79.068
-79.8933
164.652
55.9924
56.0327
-148.613
149.256
-82.1235
-59.3633
-68.661
-67.9779
-41.5578
-38.3538
-48.4634
-30.6019
-34.2732
-34.2561
-33.3845
-28.5465
-33.0947
-34.5961
-32.2464
-33.6253
70.7755
70.749
20.8966
137.974
-40.4655
-80.2795
-84.1964
-41.5423
-31.3245
-31.3081
-33.0022
-28.4868
-43.5091
-35.4445
-37.335
-43.0999
84.7203
78.7999
-79.909
164.382
-82.1097
-59.3469
-68.672
-67.9752
-41.4909
-38.2899
-48.3849
-30.5619
-33.144
-34.6221
-32.0827
-33.6265
-40.3865
-80.2223
-84.1758
-41.2564
-43.5034
-35.4492
-37.383
-43.0962
-33.9216
-31.5571
-33.4458
-33.6234
-55.2569
-55.2871
-58.3603
-50.1113
-44.3399
-44.3391
-48.5713
-41.5079
-29.5239
-30.3369
-32.2175
-25.6605
-32.2468
-32.2459
-32.6142
-32.4335
-46.9944
-43.6705
-40.3889
-56.43
-39.8947
-39.6897
-20.519
-61.4077
-57.8447
-57.8455
-63.5788
-50.3749
-33.8375
-31.6388
-33.4017
-33.6128
-55.2668
-55.3132
-58.3393
-50.1507
-29.5514
-30.3776
-32.2377
-25.6858
-47.0764
-43.6495
-40.4267
-56.4438
-52.7858
-76.5863
-81.11
-64.6794
-52.7197
-76.5514
-80.731
-64.5987
-81.2733
-69.5131
-69.5116
-60.4241
-16.5019
-9.37859
-10.8856
3.95508
195.139
195.785
202.096
195.121
-34.751
-37.6442
-34.6762
-37.1063
-34.7639
-37.6604
-34.7037
-37.1333
-34.8133
-36.296
-33.591
-34.813
-81.4895
-89.0846
-76.2301
-81.4902
-40.0908
-34.1438
-34.9472
-32.0441
-40.0711
-34.1013
-34.9549
-31.9687
-33.6818
-33.6474
-33.6455
-33.0448
-37.6345
-40.3356
-40.3317
-44.1262
-25.2945
-22.1282
-25.706
-25.2
-84.5684
148.046
-167.816
158.289
-92.6159
-106.615
-43.9692
-31.828
-35.1131
-32.3883
-38.0139
-34.5063
-46.8506
169.497
21.2718
144.143
-42.0782
-7.37509
-50.1842
-31.0993
-34.2057
-30.4101
-48.8607
-39.6646
-167.824
158.407
-85.1644
147.891
-92.6927
-106.626
-35.0971
-32.3381
-43.9453
-31.7815
-37.9451
-34.4918
21.1778
143.749
-46.7441
169.484
-41.64
-7.62323
-34.1866
-30.3638
-50.0769
-31.0514
-48.8508
-39.6491
-57.7028
-51.2568
-36.864
-36.4709
-54.9694
-49.3937
-47.7732
-40.9722
-30.6327
-32.4897
-31.4897
-31.6349
-30.7155
-28.7718
-32.0683
-32.027
-66.0274
-42.4391
-59.4099
-49.6575
-44.4126
-64.6085
-29.0836
-66.6457
-31.089
-42.9861
-33.0443
-28.942
-36.8244
-51.6576
-58.1225
-50.5035
-57.6677
-51.2466
-47.7692
-40.9721
-36.9515
-36.4689
-54.9552
-49.4742
-30.6322
-32.4876
-32.068
-32.0252
-31.4052
-31.6445
-30.7236
-28.7372
-65.9655
-43.2132
-28.5963
-66.6751
-59.393
-49.6971
-44.4844
-64.7053
-30.3503
-42.9894
-58.0715
-50.5056
-33.0737
-29.0162
-36.8466
-51.6575
-55.8672
-47.7084
186.57
195.257
-103.963
-103.965
189.088
189.058
-51.2311
-66.8975
-81.7056
-59.6451
-41.0298
-44.6137
-28.9202
-29.6011
-33.7332
-33.7382
-26.1
-26.0267
-34.7905
-36.684
-32.9737
-33.9136
-7.08463
-7.04862
197.795
197.734
-70.4569
-60.8039
-24.6654
-8.96429
-35.1993
-35.1934
-27.9828
-28.0228
-43.1173
-32.5737
-43.67
-37.9895
-56.0503
-47.7374
195.314
186.46
-51.2233
-66.838
-81.7051
-59.6408
-44.5984
-41.0068
-28.8476
-29.5469
-34.73
-36.6825
-32.969
-33.9071
-61.5879
-70.436
-7.05038
-25.1651
-32.7819
-43.1208
-37.9814
-43.6634
-35.4135
-31.3217
-35.5081
-32.8606
-63.4697
-64.7937
-39.5933
-41.5296
-53.5602
-53.5618
-38.082
-38.0802
-33.0089
-34.394
-30.1666
-26.3471
-32.8071
-32.8074
-32.7103
-32.7092
-36.6575
-40.3406
-79.7694
-65.4067
-7.2465
-7.08736
-80.545
-80.5855
-68.9606
-68.9582
-47.3679
-47.3684
-35.3973
-31.3909
-35.5038
-32.8606
-64.7492
-63.4277
-39.599
-41.5592
-34.4153
-33.0107
-30.136
-26.121
-40.3756
-36.6824
-65.4277
-79.7987
-65.3378
-61.0458
-51.2883
-95.7738
-50.8634
-57.5317
-65.9529
-65.3836
-61.3586
-75.0077
-67.0875
-58.8882
-33.428
-63.9254
-52.9893
-61.8283
-65.5213
-96.5899
-51.3311
-61.0869
-33.2167
-62.1992
-53.6593
-63.9273
-61.3798
-58.8698
-67.052
-74.913
-50.8508
-65.3296
-65.8857
-57.5101
-137.352
-151.316
-81.5235
-80.2098
-137.115
-80.2109
-81.5232
-151.321
-46.4251
-48.3923
-60.2871
-57.976
-46.4326
-57.9833
-60.289
-48.3948
23.5069
-28.1298
-19.7328
20.3384
-73.3487
-20.9357
1.50183
-33.7211
-73.2329
-32.4342
2.68663
-20.8388
23.7746
20.3216
-19.3318
-28.1827
90.3612
159.181
192.09
139.383
147.33
146.334
201.648
170.379
147.295
170.278
201.631
146.309
90.2896
139.482
192.067
158.848
-49.143
-33.8976
-36.4267
-49.4685
-29.1976
-32.1323
-33.3612
-31.3776
-35.0378
-38.4686
-35.7375
-32.745
-50.3257
-49.9743
-38.9015
-42.5384
-49.3269
-49.5048
-36.4292
-33.7737
-50.3644
-42.5919
-38.9286
-50.0161
-35.0667
-32.7719
-35.7635
-38.497
-29.2188
-31.3903
-33.4172
-32.1433
-40.7069
-41.3646
-36.1105
-34.419
-40.7104
-34.4057
-36.0947
-41.3648
-31.4912
-32.4916
-33.4039
-31.9798
-31.491
-31.9739
-33.4045
-32.4919
-71.7188
-60.091
-87.5552
-60.895
-49.7465
-62.927
-74.1252
-53.6565
-49.7385
-53.6667
-74.1267
-62.9279
-71.7341
-60.921
-87.5428
-60.1589
-30.4753
-37.6056
-32.4798
-25.6916
-41.213
-46.291
-38.5859
-34.7483
-47.2633
-43.8932
-41.8164
-50.351
-32.262
-27.2795
-32.3125
-33.0774
-30.4754
-25.6786
-32.4254
-37.6059
-32.7084
-33.1829
-32.3085
-27.3437
-47.1937
-50.2932
-41.8071
-43.8915
-41.3005
-34.8145
-38.5736
-46.2464
-31.6891
-32.3347
-33.0148
-33.2384
-31.6866
-33.229
-33.0131
-32.3335
-36.5358
-33.8255
-33.7609
-33.51
-36.5514
-33.5367
-33.764
-33.8349
-45.0685
-40.7833
-43.7585
-50.4998
-37.4095
-33.194
-37.5087
-40.9037
-37.3853
-40.8925
-37.5042
-33.184
-45.0446
-50.5005
-43.7559
-40.7744
-35.5455
-29.6996
-24.7228
-30.8734
-35.4694
-30.8251
-24.6245
-29.666
-31.6757
-28.9908
-27.4412
-30.8179
-31.7211
-30.8583
-27.5072
-29.0229
8.97254
13.4133
-52.4649
-49.2213
-43.9237
-38.4008
43.7013
72.894
-8.86285
-40.4714
-39.6255
-42.5665
13.6455
9.6352
-52.5194
-43.9807
-49.2306
-38.3804
71.8435
43.3124
-8.71945
-39.5718
-40.4111
-42.5128
-45.2734
-44.5223
-46.1624
-43.2146
-31.2614
-30.5464
-30.9317
-31.3283
-61.0165
-59.2231
-57.3172
-66.3748
-37.2649
-34.2969
-38.3337
-44.3094
-45.2634
-43.2103
-44.5244
-46.1407
-31.2513
-31.3219
-30.5276
-30.8907
-61.179
-66.461
-59.3581
-57.0686
-37.2785
-44.3079
-34.291
-38.3503
82.3587
83.1427
-35.6417
136.696
46.4633
46.5118
-97.4858
106.304
-75.1882
-65.4384
-77.7618
-68.2169
-40.6705
-39.139
-47.6996
-32.3433
-33.4752
-33.466
-33.3652
-30.6922
-31.9839
-37.0391
-32.4036
-33.8899
69.9142
69.9874
49.1711
90.2065
-53.3728
-73.3136
-78.1501
-48.8252
-31.0403
-31.0322
-31.9056
-29.4778
-42.69
-38.8585
-39.1007
-43.0464
82.4247
82.9852
-37.1548
136.744
-75.1782
-65.4267
-77.5947
-68.2115
-40.605
-39.0718
-47.6322
-32.2811
-31.5577
-37.1897
-32.6496
-33.8378
-53.34
-73.3529
-78.158
-48.597
-42.6976
-38.885
-39.1698
-43.0507
-33.3304
-32.4531
-32.6643
-33.3926
-55.4155
-55.4253
-56.6935
-54.1287
-44.4885
-44.488
-46.2445
-43.3215
-29.6396
-30.0566
-31.2217
-27.9225
-32.3293
-32.3288
-32.3013
-32.3886
-46.1077
-44.7528
-42.0165
-51.3427
-39.1732
-39.001
-28.7311
-50.4333
-56.7011
-56.7025
-60.6646
-50.6883
-33.2562
-32.4209
-32.5153
-33.3683
-55.4271
-55.4367
-56.6826
-54.1632
-29.6931
-30.1007
-31.2606
-27.9575
-46.1656
-44.8153
-42.0535
-51.3514
-67.454
-80.2248
-84.3608
-71.7684
-67.3555
-80.1502
-84.1755
-71.644
-74.8542
-69.562
-69.5616
-64.7734
-18.6781
-7.11468
-7.82089
4.44974
196.91
195.393
199.677
196.903
-35.1544
-36.6986
-35.1307
-36.4651
-35.1702
-36.7169
-35.1575
-36.4887
-34.9208
-35.5115
-34.2957
-34.9208
-83.9367
-87.5898
-79.7888
-83.9349
-37.7476
-34.2951
-34.692
-33.1251
-37.7343
-34.2644
-34.6857
-33.0924
-33.5523
-33.6112
-33.6102
-33.4887
-39.0476
-40.5375
-40.5357
-42.3338
-23.3652
-22.6145
-23.6517
-23.2984
69.2328
87.1516
-14.6391
131.599
6.53858
71.8
-27.264
62.6796
-130.465
-96.3239
-108.524
-107
-45.1422
-42.1857
-47.6941
-34.2537
-39.0272
-35.4805
-35.8843
-34.6997
-36.4881
-34.8185
-36.8304
-34.6665
63.1368
71.102
-43.2378
143.806
81.1967
74.6272
52.983
96.654
-30.729
-37.3401
-39.412
-13.7423
-37.8405
-37.6679
-43.9115
-32.6858
-34.381
-31.9217
-33.1946
-31.3116
-43.4453
-44.5625
-47.8282
-41.9506
6.42848
71.8155
-27.3273
62.879
70.3429
87.7207
-14.8778
131.054
-130.654
-96.2849
-107.74
-106.991
-39.0004
-35.4588
-35.8645
-34.7685
-45.0591
-42.1188
-47.6366
-34.1941
-36.3879
-34.7883
-36.735
-34.637
81.2986
75.1024
53.0287
96.5874
62.358
70.7717
-42.9311
143.838
-30.6007
-37.293
-39.1669
-13.9658
-34.3423
-31.8957
-33.1644
-31.2716
-37.7915
-37.6474
-43.8528
-32.6348
-43.3983
-44.5413
-47.7917
-41.9344
-49.4985
-55.088
-56.3115
-51.1064
-38.5588
-34.9074
-35.9545
-36.1604
-55.604
-54.951
-53.6899
-53.6257
-43.5018
-44.0851
-45.6693
-42.7075
-32.2558
-32.1939
-31.6339
-32.4923
-31.5046
-31.121
-30.7989
-31.3831
-29.8596
-28.9267
-30.1378
-28.9438
-31.7613
-32.1085
-31.7758
-32.0282
-66.4172
-75.0336
-68.2551
-70.3993
-56.1301
-55.4472
-58.1292
-55.556
-49.8903
-47.8258
-45.6823
-56.319
-58.0998
-41.5569
-38.2997
-58.0398
-36.6002
-35.0611
-33.317
-41.4824
-31.3568
-30.6038
-31.9631
-29.38
-40.7551
-42.2165
-38.0135
-47.6089
-50.4475
-59.4723
-56.4227
-55.2464
-49.4842
-55.07
-56.281
-51.094
-43.5006
-44.0836
-45.6664
-42.7068
-38.5959
-34.8792
-36.0911
-36.1644
-55.5727
-54.9543
-53.6797
-53.6346
-32.2584
-32.1984
-31.642
-32.4922
-31.7594
-32.1075
-31.7745
-32.0264
-31.4943
-31.2149
-31.0141
-31.4045
-29.8647
-28.9597
-30.1423
-28.96
-66.5269
-74.475
-68.1598
-69.3561
-58.4505
-41.6222
-38.1047
-57.6991
-56.2063
-55.4958
-58.126
-55.6077
-50.0018
-47.9158
-45.7751
-56.4473
-36.5415
-35.0569
-33.071
-41.4742
-50.4409
-59.4774
-56.4233
-55.244
-31.4037
-30.6459
-32.0005
-29.4085
-40.7621
-42.2557
-38.0326
-47.6352
-64.299
-44.3431
-51.7133
-47.486
183.597
192.017
186.77
193.619
-122.035
-90.2036
-103.175
-103.175
175.843
195.78
193.654
193.617
-69.6767
-71.4077
-51.6508
-77.7765
-68.6478
-69.3667
-74.8636
-64.156
-45.1043
-41.3355
-41.9549
-43.7753
-30.1822
-27.2113
-28.9951
-29.4159
-33.496
-33.6339
-33.5236
-33.5263
-27.4486
-22.2728
-24.6407
-24.5924
-33.0998
-34.2
-34.8153
-34.9728
-33.5493
-33.6674
-33.5789
-33.5983
8.78701
-12.7836
-5.60316
-5.57319
167.657
205.387
196.833
196.811
-81.0121
-79.6669
-75.0659
-77.5794
-29.7932
-14.3885
-33.8594
-12.0705
-34.0635
-36.34
-35.139
-35.1362
-27.6072
-27.0418
-27.3506
-27.396
-36.3246
-35.3531
-40.375
-33.3466
-42.236
-40.2193
-41.9409
-39.2498
-64.087
-45.1297
-51.6763
-47.4455
183.422
191.981
193.684
186.681
-69.6837
-71.3961
-52.0192
-77.7194
-68.6464
-69.3652
-74.8621
-64.1525
-45.0626
-41.315
-43.7555
-41.9312
-30.1292
-27.1308
-28.9262
-29.3485
-33.008
-34.1542
-34.759
-34.979
-33.5506
-33.664
-33.5741
-33.6025
-80.9555
-78.9228
-77.4186
-74.7114
-32.4259
-16.6403
-11.5461
-35.0493
-36.3435
-35.3691
-33.4293
-40.3985
-42.2329
-40.2133
-39.2419
-41.9342
-33.459
-34.4198
-34.5025
-32.7527
-33.9345
-34.6157
-34.7814
-33.5563
-60.7108
-65.1532
-64.3991
-64.6931
-43.9278
-39.0025
-40.1358
-41.0563
-51.1494
-56.8997
-53.7139
-53.7148
-39.728
-37.201
-38.2395
-38.2387
-32.9911
-34.1554
-33.3366
-34.025
-25.1872
-31.4808
-29.6091
-26.9599
-32.9005
-33.2049
-32.9117
-32.912
-32.7217
-32.783
-32.7634
-32.7629
-39.3006
-37.7808
-37.6547
-39.4171
-64.7741
-77.7665
-74.7801
-68.0849
-12.0371
-0.154493
-6.57756
-6.43512
-72.4213
-89.9529
-82.3499
-82.3579
-67.7482
-73.2587
-70.5041
-70.499
-49.128
-45.8944
-47.5264
-47.5262
-33.4565
-34.4288
-34.499
-32.7686
-33.9295
-34.6147
-34.7776
-33.5549
-60.6765
-65.0983
-64.6525
-64.3582
-43.9527
-39.0183
-40.1488
-41.0795
-33.0075
-34.1769
-34.044
-33.3482
-25.2035
-31.3755
-29.5523
-26.8547
-39.3343
-37.8104
-39.4498
-37.6824
-64.8054
-77.7733
-68.1099
-74.8001
-100.723
-78.3103
-62.1036
-62.4887
-60.1208
-60.0192
-63.0268
-62.3141
-65.3528
-61.6546
-67.5999
-64.6879
-56.5612
-48.8469
-48.6871
-45.7951
-100.778
-78.5879
-62.3613
-62.1153
-56.0814
-48.0131
-48.2451
-47.1732
-65.293
-61.6334
-67.5306
-64.6352
-60.0829
-59.9905
-62.9801
-62.2712
-123.525
-106.513
-103.941
-91.4265
-123.521
-106.519
-103.944
-91.4256
-52.0143
-50.1055
-56.0507
-53.2626
-52.0205
-50.1097
-56.055
-53.2644
6.42711
-6.86729
-7.63248
-17.1204
-21.0429
-19.4623
-7.83855
-8.61759
-21.6844
-19.1453
-8.44823
-8.39948
6.35694
-6.95415
-7.68246
-17.6162
176.492
174.824
186.269
187.039
177.431
175.069
196.474
197.53
174.899
177.396
197.492
196.491
174.99
176.337
187.031
186.155
-37.7862
-43.0783
-36.5644
-39.0962
-31.3391
-31.1871
-31.7738
-32.2369
-34.031
-35.5938
-34.717
-35.8602
-44.3906
-43.372
-42.0388
-41.4855
-37.8018
-43.1286
-36.5095
-39.082
-44.4345
-43.4305
-42.077
-41.5285
-34.0551
-35.6182
-34.7394
-35.8835
-31.3287
-31.1764
-31.8312
-32.2338
-37.0156
-39.0108
-36.4014
-37.8839
-39.0086
-37.0126
-37.8813
-36.3977
-32.3597
-31.9727
-32.6081
-32.5179
-31.9687
-32.3587
-32.5169
-32.608
-79.7964
-69.9838
-80.9225
-78.525
-55.6127
-59.9527
-63.3366
-65.7872
-59.9737
-55.6598
-65.7868
-63.3792
-70.0548
-79.8579
-78.5654
-80.9754
-30.4381
-29.3105
-31.4692
-30.417
-40.81
-38.9132
-40.1847
-38.2464
-49.3117
-47.7984
-45.3931
-44.428
-28.5793
-26.5596
-31.7365
-27.9793
-30.4262
-29.2636
-31.4417
-30.3988
-28.5557
-27.0998
-30.7696
-27.7911
-49.2677
-47.8321
-45.3833
-44.4219
-40.7926
-38.8564
-40.1564
-38.206
-32.4938
-32.5043
-32.5545
-32.6506
-32.4915
-32.503
-32.5511
-32.6492
-34.5885
-34.4964
-33.9937
-34.0931
-34.6011
-34.5095
-34.0015
-34.101
-47.0773
-49.1547
-45.3532
-47.0839
-35.0895
-37.4617
-35.442
-36.9921
-35.0792
-37.4487
-35.4337
-36.9821
-47.0785
-49.1597
-45.3468
-47.0843
-31.0384
-30.5536
-29.1199
-27.7285
-30.5
-30.9778
-27.6613
-29.0499
-29.9983
-30.5356
-28.7495
-29.6682
-30.5817
-30.0435
-29.7173
-28.8002
-12.7764
80.7612
13.4133
13.7894
-38.8113
-75.3702
-45.0653
-37.6379
-38.8612
-38.2632
-39.5271
-36.787
-29.6348
135.52
44.9533
119.918
-24.9198
13.2329
-44.373
-33.7024
-36.3932
-33.7241
-45.6251
-39.3497
13.6455
13.2946
-14.2087
80.5258
-39.1439
-75.1486
-38.8392
-38.1579
-44.9746
-37.5269
-39.6912
-36.838
44.9032
119.724
-29.5062
135.755
-24.7366
13.3308
-36.3533
-33.6709
-44.3071
-33.6509
-45.5531
-39.3038
-47.8032
-46.4168
-43.9284
-41.0644
-45.0052
-54.8421
-44.1088
-42.6285
-31.7221
-31.5685
-30.2566
-31.2289
-29.8644
-30.0724
-31.1666
-31.62
-62.1171
-71.9941
-58.8114
-56.4087
-50.5134
-59.983
-80.9014
-76.5902
-34.6512
-44.0875
-33.9224
-32.3001
-36.5232
-45.8277
-48.8598
-46.7212
-47.7896
-46.4075
-44.1041
-42.6294
-43.959
-41.0747
-45.0178
-54.7151
-31.7219
-31.5655
-31.164
-31.6167
-30.273
-31.227
-29.8604
-30.0656
-62.1928
-72.2237
-81.3395
-76.6336
-58.8731
-56.4441
-50.5791
-59.8766
-34.7761
-44.0571
-48.8564
-46.697
-33.9478
-32.4775
-36.542
-45.8376
-10.6127
140.685
-34.4437
140.089
-87.8752
-71.914
161.656
167.981
-85.1038
122.351
-85.1383
122.357
-148.412
-147.896
150.108
150.138
-75.525
-79.7634
-66.35
-57.6771
-59.4361
-76.3143
-73.1969
-62.7459
-48.3469
-32.9437
-45.5427
-32.448
-47.7418
-49.5881
-30.6553
-30.6797
-34.013
-31.8507
-34.0007
-31.8103
-33.3166
-33.3214
-28.4867
-28.4733
-33.0334
-33.2649
-37.1727
-33.5548
-36.2146
-32.7499
-34.6375
-32.6354
49.4407
95.5942
49.0344
95.5819
20.8133
20.7961
142.39
142.342
-51.9507
-26.9324
-79.2945
-56.7431
-81.3181
-77.6025
-36.421
-43.847
-32.2059
-29.8585
-32.194
-29.8333
-33.0456
-33.0405
-28.4643
-28.4888
-44.0162
-42.9608
-34.0587
-36.7486
-41.0626
-34.5323
-43.6276
-41.866
-11.1879
140.539
-34.4278
140.078
-87.7689
-71.9759
167.804
161.354
-75.5276
-79.7574
-66.3015
-57.6661
-59.6162
-76.2889
-73.1976
-62.7409
-48.2828
-32.8787
-45.4605
-32.3892
-49.5114
-47.6635
-30.6103
-30.6412
-33.1188
-33.2531
-37.2188
-33.5564
-36.1505
-32.7356
-34.593
-32.6333
-52.0498
-26.6236
-79.1556
-57.6723
-77.6262
-81.2925
-39.9257
-36.6049
-44.0127
-42.9474
-34.0712
-36.7461
-34.5179
-41.1351
-41.8593
-43.6252
-33.6424
-34.1104
-31.823
-31.6746
-33.555
-32.5359
-33.8329
-32.7927
-55.5848
-52.5043
-58.1109
-54.8823
-58.0663
-58.6049
-49.72
-49.6827
-46.0653
-43.2279
-46.0634
-43.2286
-48.5306
-48.5318
-41.4467
-41.4468
-31.1161
-26.527
-31.6335
-28.5849
-32.1487
-32.4574
-25.5646
-26.2232
-32.16
-32.2882
-32.1593
-32.2869
-32.579
-32.5791
-32.4106
-32.4099
-44.075
-53.6226
-41.2785
-49.2748
-39.2292
-41.5437
-58.3902
-55.108
-30.4381
-51.8457
-30.3632
-51.7778
-20.8548
-20.8056
-61.0573
-61.0802
-59.8676
-50.7783
-59.8724
-50.7791
-63.3203
-63.3189
-50.4242
-50.4247
-33.4905
-34.0835
-31.7931
-31.6913
-33.4453
-32.4795
-33.8187
-32.7895
-55.577
-52.5302
-58.1038
-54.9381
-58.5858
-58.0453
-49.7562
-49.7227
-31.0883
-26.6773
-31.6691
-28.6252
-32.4818
-32.1619
-25.5675
-26.2667
-44.1388
-53.7523
-41.2897
-49.2884
-41.5885
-39.2609
-55.1202
-58.4153
-51.617
-52.3652
-58.6174
-74.3972
-71.4573
-72.9417
-65.2649
-65.068
-51.556
-52.481
-58.6799
-74.3025
-72.6228
-70.9635
-65.0083
-65.1874
-81.3484
-81.3483
-74.9655
-64.6808
-74.9645
-64.6792
-60.3996
-60.4001
-17.351
-17.0809
-24.1042
1.85795
-0.180745
-21.5932
3.49776
3.76657
193.09
197.888
195.226
195.209
201.967
201.963
197.874
193.069
-35.519
-33.9001
-36.9874
-38.2194