# vtk DataFile Version 2.0
tri_press
ASCII
DATASET UNSTRUCTURED_GRID
POINTS 3682 float
-0.675 0.275 -2.0445
-0.697525 0.375 2.125
-0.704736 0.585 -1.955
-0.690154 0.905 2.065
0.655074 0.275 -2.065
0.6975 0.375 2.125
0.70486 0.585 -1.955
0.690159 0.905 2.065
-0.784051 0.206791 -0.654667
-0.800355 0.231328 0.735167
-0.812013 0.803804 -0.615
-0.786512 0.889831 0.725
0.775918 0.201631 -0.668334
0.796252 0.228773 0.728333
0.812079 0.803785 -0.615
0.78671 0.889984 0.725
-1.45158 -0.0639823 -3.15352
-1.45751 -0.0127981 -2.06072
-1.53488 -0.0557895 -0.669109
-1.55526 -0.0537172 0.732354
-1.49449 0.0475569 2.12481
-1.47431 0.121489 3.22177
-1.47814 0.180303 4.3113
-1.44513 0.173113 -3.12327
-1.45115 0.255702 -2.03652
-1.54985 0.235639 -0.655549
-1.55618 0.243828 0.729485
-1.46265 0.340417 2.11153
-1.45226 0.412481 3.20811
-1.46635 0.470774 4.29967
-1.45502 0.58622 -3.05135
-1.47338 0.666289 -1.96545
-1.56905 0.810778 -0.618987
-1.55041 0.874035 0.723801
-1.45597 0.909569 2.0717
-1.44867 0.978514 3.17074
-1.4645 1.04408 4.27088
-1.48048 1.353 -2.98044
-1.49659 1.45504 -1.90071
-1.53489 1.62278 -0.571236
-1.54812 1.74904 0.747455
-1.52723 1.81639 2.07837
-1.50943 1.86403 3.1611
-1.50155 1.91776 4.25507
-0.711589 -0.0544203 -3.16155
-0.695148 0.000610916 -2.0703
-0.762054 -0.0705518 -0.672246
-0.793788 -0.0638277 0.736567
-0.75064 0.064759 2.13487
-0.733578 0.133801 3.22822
-0.735887 0.186448 4.31436
-0.706795 0.173639 -3.12806
-0.713226 0.425713 3.2133
-0.726037 0.476859 4.30173
-0.711948 0.553903 -3.04752
-0.710484 0.980691 3.16857
-0.724709 1.04645 4.26939
-0.722923 1.33093 -2.97648
-0.729413 1.43423 -1.89583
-0.762269 1.6184 -0.5688
-0.784453 1.75451 0.745426
-0.776747 1.81929 2.07336
-0.762685 1.86489 3.15609
-0.754617 1.91829 4.25097
0.714203 -0.0552546 -3.1748
0.71883 -0.000627477 -2.08673
0.77841 -0.0743542 -0.684556
0.771391 -0.0662819 0.729755
0.709099 0.063937 2.13255
0.722515 0.13306 3.22601
0.736215 0.185562 4.31159
0.699711 0.173171 -3.14081
0.721515 0.42523 3.21187
0.737241 0.476096 4.29936
0.719739 0.553614 -3.05383
0.719466 0.980314 3.16742
0.736835 1.04579 4.26728
0.775683 1.33031 -2.98131
0.787903 1.43365 -1.8996
0.785498 1.61778 -0.571789
0.755115 1.75389 0.742958
0.727998 1.81867 2.07115
0.727791 1.8642 3.15373
0.735415 1.91751 4.24828
1.44531 -0.0659585 -3.17709
1.45533 -0.015618 -2.08693
1.53452 -0.0614102 -0.689926
1.54326 -0.0580667 0.719669
1.47689 0.0453021 2.11829
1.46898 0.119667 3.21627
1.47988 0.178393 4.30527
1.42894 0.171722 -3.14568
1.42475 0.253999 -2.0624
1.53626 0.230147 -0.675327
1.55572 0.239787 0.718074
1.46938 0.338689 2.10665
1.46284 0.411031 3.20377
1.47778 0.469077 4.29434
1.45165 0.585288 -3.06547
1.46105 0.665629 -1.97665
1.56182 0.808834 -0.627641
1.55266 0.872263 0.718272
1.46371 0.908432 2.06835
1.46013 0.977343 3.16714
1.47688 1.04258 4.26609
1.52333 1.35163 -2.99068
1.54045 1.4537 -1.90921
1.5516 1.62133 -0.578168
1.52631 1.74757 0.741727
1.4905 1.81497 2.07331
1.48152 1.86253 3.15592
1.48538 1.91611 4.24939
-0.701556 0.43 -2.01144
-0.00996301 0.250489 -2.07926
-0.740817 0.229603 -1.34958
-0.680908 0.64 2.08207
-1.2517e-05 0.340972 2.15903
-0.786585 0.26552 1.43008
6.19888e-05 0.648166 -2.01817
-0.817432 0.753459 -1.285
2.5034e-06 0.963798 2.1238
-0.762053 0.921136 1.395
0.692407 0.43 -2.02244
0.725504 0.228308 -1.36667
0.680945 0.64 2.08212
0.783074 0.265688 1.42667
0.817493 0.753417 -1.285
0.762015 0.921072 1.395
-0.791474 0.219789 0.0402499
-0.868441 0.505297 -0.634834
-0.00406629 0.192438 -0.6615
-0.884077 0.56058 0.730083
-0.0020516 0.208821 0.73175
-0.798476 0.846031 0.055
3.29671e-05 1.03179 -0.615
9.86967e-05 1.24709 0.725
0.786191 0.215096 0.03
0.86817 0.502708 -0.641667
0.883838 0.559378 0.726667
0.79813 0.84562 0.055
-0.8585 0.467649 -1.31729
0.858426 0.466354 -1.32583
-0.00701465 0.218896 -1.35813
4.7478e-05 0.840977 -1.285
-0.00495051 0.43 -2.2571
-0.868907 0.532938 0.047625
0.868481 0.531043 0.0425
-0.00305895 0.200689 0.035125
6.58319e-05 1.23974 0.055
-0.869414 0.60029 1.41254
0.869569 0.599689 1.41083
-0.00103206 0.25277 1.42838
5.06e-05 1.06809 1.395
-5.00679e-06 0.64 2.20348
-0.684192 0.3525 -2.02388
-0.342482 0.251681 -2.07294
-0.723739 0.236471 -1.69704
-0.731945 0.5075 2.14626
-0.348769 0.344254 2.15575
-0.763413 0.298902 1.77754
-0.717952 0.5075 -1.99803
-0.352337 0.633939 -2.00394
-0.784995 0.693141 -1.62
-0.676541 0.7725 2.06454
-0.345076 0.954865 2.11487
-0.732421 0.919385 1.73
0.322555 0.251775 -2.0831
0.670261 0.3525 -2.04024
0.705186 0.236757 -1.71583
0.348744 0.344267 2.15573
0.732271 0.5075 2.14661
0.76189 0.298742 1.77583
0.352461 0.633664 -2.00366
0.713785 0.5075 -2.00387
0.784916 0.692948 -1.62
0.345081 0.954789 2.11479
0.676363 0.7725 2.06437
0.732311 0.91926 1.73
-0.760013 0.220619 -1.00213
-0.788163 0.212889 -0.307208
-0.831346 0.353494 -0.64475
-0.396409 0.194915 -0.658084
-0.784482 0.257412 1.08263
-0.795764 0.225709 0.387708
-0.868266 0.382929 0.732625
-0.406063 0.210356 0.733458
-0.816323 0.780233 -0.95
-0.862152 0.665513 -0.624917
-0.802738 0.822411 -0.28
-0.444183 0.994182 -0.615
-0.775761 0.906961 1.06
-0.876757 0.745936 0.727542
-0.793093 0.86853 0.39
-0.468386 1.21882 0.725
0.745581 0.2201 -1.0175
0.387009 0.194869 -0.664917
0.781888 0.20753 -0.319167
0.830717 0.347833 -0.655
0.78103 0.255863 1.0775
0.402022 0.208952 0.730042
0.791141 0.222015 0.379167
0.846097 0.391049 0.7275
0.816513 0.780328 -0.95
0.444301 0.994277 -0.615
0.862561 0.664465 -0.628333
0.802648 0.822247 -0.28
0.77607 0.907236 1.06
0.468464 1.21866 0.725
0.876842 0.745465 0.725833
0.793021 0.868403 0.39
-0.831762 0.448824 -1.66437
-0.353253 0.43 -2.17562
-0.00848883 0.234495 -1.71869
-0.00745676 0.340245 -2.26415
-0.864075 0.348626 -1.33344
-0.373916 0.218722 -1.35385
-0.844934 0.620145 1.74731
-0.340456 0.64 2.18403
-0.000522288 0.293645 1.7937
-8.76188e-06 0.490486 2.24249
-0.848445 0.432905 1.42131
-0.393808 0.252846 1.42923
5.47334e-05 0.764669 -1.65158
-0.00244426 0.539083 -2.21264
-0.867801 0.610554 -1.30115
-0.408692 0.81821 -1.285
2.65517e-05 0.958229 1.7594
-1.2517e-06 0.801899 2.19141
-0.872865 0.760713 1.40377
-0.381001 1.03127 1.395
0.829382 0.448177 -1.67414
0.343728 0.43 -2.1797
0.86409 0.347331 -1.34625
0.359245 0.219046 -1.3624
0.844974 0.619845 1.74647
0.34047 0.64 2.18448
0.848625 0.432689 1.41875
0.391021 0.253309 1.42752
0.86774 0.609885 -1.30542
0.40877 0.818228 -1.285
0.873062 0.760381 1.40292
0.381033 1.03247 1.395
-0.829958 0.37648 0.0439375
-0.401648 0.201476 0.0376875
-0.870728 0.486473 -0.976063
-0.862297 0.519118 -0.293604
-0.00554047 0.201772 -1.00981
-0.00356262 0.199726 -0.313188
-0.876664 0.546759 0.388854
-0.877228 0.580435 1.07131
-0.00255527 0.207907 0.383438
-0.00154183 0.229489 1.08006
-0.865166 0.705222 0.0513125
-0.479925 1.20432 0.055
4.02225e-05 0.898068 -0.95
4.93995e-05 1.15997 -0.28
8.22643e-05 1.26056 0.39
7.46484e-05 1.17525 1.06
0.829266 0.372105 0.03625
0.395038 0.200948 0.0325625
0.870565 0.484531 -0.98375
0.862053 0.516876 -0.299583
0.876409 0.545211 0.384583
0.877386 0.579534 1.06875
0.868346 0.705852 0.04875
0.479862 1.20421 0.055
-0.811779 0.350563 -1.6807
-0.872917 0.352335 -0.989094
-0.870841 0.632552 -0.963031
-0.838502 0.559027 -1.64218
0.807231 0.349915 -1.69499
0.837607 0.558693 -1.64707
0.871064 0.631566 -0.966875
0.872904 0.34975 -1.00063
-0.358199 0.234823 -1.70787
0.3409 0.235096 -1.71726
0.372585 0.201895 -1.01366
-0.383987 0.201601 -1.00597
-0.380515 0.752831 -1.63579
-0.407341 0.862378 -0.95
0.407413 0.861778 -0.95
0.380616 0.753075 -1.63579
-0.347867 0.346372 -2.18098
-0.352795 0.523292 -2.16129
0.348095 0.523292 -2.1672
0.333142 0.346372 -2.18322
-0.827764 0.366431 -0.300406
-0.833651 0.387435 0.388281
-0.871046 0.725622 0.389427
-0.859458 0.683267 -0.286802
0.827482 0.361224 -0.309375
0.859551 0.682207 -0.289792
0.871184 0.724953 0.387292
0.833058 0.383889 0.381875
-0.398043 0.200166 -0.310198
0.389913 0.20013 -0.316177
0.397456 0.207099 0.381302
-0.403248 0.207131 0.385573
-0.47096 1.11706 -0.28
-0.481474 1.22621 0.39
0.481549 1.2262 0.39
0.471378 1.11783 -0.28
-0.860932 0.414429 1.07697
-0.822265 0.470202 1.76242
-0.84042 0.766606 1.73865
-0.878608 0.742959 1.06566
0.859192 0.413382 1.07313
0.881404 0.742531 1.06438
0.840362 0.76644 1.73824
0.82286 0.470094 1.76115
-0.397506 0.229575 1.08134
0.394061 0.229422 1.07878
0.369882 0.291188 1.78477
-0.371289 0.291276 1.78562
-0.387104 1.14835 1.06
-0.363039 0.944805 1.7447
0.363057 0.944823 1.7447
0.387218 1.14849 1.06
-0.344613 0.498993 2.27346
0.344607 0.498993 2.27357
0.342775 0.7872 2.15735
-0.342766 0.7872 2.15837
-0.679795 0.31375 -2.03439
-0.508741 0.253246 -2.06882
-0.706078 0.249027 -1.87077
-0.712236 0.44125 2.13313
-0.523147 0.353001 2.147
-0.744919 0.3225 1.95127
-0.714831 0.54625 -1.98
-0.528536 0.566332 -1.93633
-0.752049 0.646254 -1.7875
-0.670195 0.83875 2.05162
-0.517615 0.941868 2.10187
-0.712683 0.913588 1.8975
0.488815 0.253387 -2.08405
0.66215 0.31375 -2.0521
0.687873 0.248136 -1.89042
0.523122 0.353041 2.14696
0.712221 0.44125 2.13314
0.74417 0.322395 1.95042
0.52866 0.567094 -1.93709
0.712558 0.54625 -1.98267
0.751967 0.646052 -1.7875
0.51762 0.941758 2.10176
0.670184 0.83875 2.05161
0.712736 0.913631 1.8975
-0.780909 0.204827 -0.828396
-0.785969 0.209978 -0.480938
-0.830548 0.268717 -0.649709
-0.593193 0.194927 -0.656375
-0.782671 0.254118 0.908896
-0.797825 0.228753 0.561438
-0.88308 0.282744 0.733896
-0.608133 0.210993 0.734313
-0.813522 0.791372 -0.7825
-0.841458 0.736846 -0.619958
-0.808732 0.814464 -0.4475
-0.645214 0.933225 -0.615
-0.780942 0.898202 0.8925
-0.849647 0.82689 0.726271
-0.790285 0.879663 0.5575
-0.643493 1.08641 0.725
0.776518 0.195097 -0.842917
0.582963 0.19525 -0.666625
0.778908 0.204576 -0.49375
0.829431 0.261676 -0.661667
0.777718 0.253241 0.902917
0.603832 0.209473 0.729188
0.793008 0.226082 0.55375
0.849049 0.295974 0.727917
0.813712 0.791473 -0.7825
0.645291 0.933234 -0.615
0.841837 0.736384 -0.621667
0.808741 0.814394 -0.4475
0.781508 0.898728 0.8925
0.643012 1.08517 0.725
[...]
POINT_DATA 3682
SCALARS point_scalars float 1
LOOKUP_TABLE default
-26.9049
-34.3955
53.0966
-33.7613
-35.2747
-34.2951
51.732
-33.6445
-38.104
-37.9028
-43.8879
-47.9727
-38.6903
-35.3531
-42.946
-47.7491
-3.88014
-60.4224
-57.6543
-46.8503
-39.4902
-31.8121
-28.8032
-3.44902
-50.1657
-51.1174
-45.7072
-38.4292
-30.0563
-28.7915
72.5397
-45.793
-40.6553
-41.5316
-40.034
-30.5804
-28.7915
30.3127
-40.4572
-54.8248
-56.5745
-36.588
-33.4247
-33.4247
51.1599
-108.854
-40.0953
-39.6483
-36.2625
-27.8738
-26.9659
51.1599
-27.4825
-26.5107
148.546
-27.6747
-26.9503
96.1035
-32.9129
-42.484
-64.385
-31.4418
-31.2457
-31.2457
52.5696
-104.63
-39.9441
-38.6985
-35.3596
-27.7717
-26.8482
52.5696
-27.7885
-26.3627
148.704
-27.61
-26.8234
95.822
-32.444
-43.6987
-64.675
-31.3564
-31.1471
-31.1471
-13.6589
-63.2376
-54.2019
-37.662
-39.4157
-31.6746
-28.7225
-13.6589
-57.2579
-50.1982
-37.662
-38.2553
-29.9478
-28.7105
73.1059
-45.615
-40.5073
-41.3466
-39.8199
-30.4987
-28.7105
28.4415
-40.1827
-50.6615
-56.5154
-35.827
-33.3196
-33.3196
1.00815
-76.7776
-42.6007
-30.5796
-27.2186
-36.518
11.0894
-46.5066
-27.7814
-41.5986
11.0124
-43.4725
-30.4938
-36.4226
-46.4719
-41.661
-32.5383
-38.8147
-40.1852
-37.1757
-38.4031
-47.8947
-3.16052
-66.8445
-32.6329
-38.662
-36.4717
-47.8569
-49.8708
-51.0682
-38.5494
-14.7761
207.337
-34.6473
-34.6417
-35.9644
-83.659
-40.4735
-40.48
-37.2636
-39.222
-23.5803
-0.188577
-93.562
-56.8133
-32.95
-30.0168
-37.6395
20.1541
39.1834
-38.277
-31.4232
-28.3776
-36.8209
-95.3671
14.9719
-55.767
-29.9117
-32.7985
-37.5606
38.3095
24.7818
-37.8774
-28.3084
-31.3261
-36.8105
-34.8436
-32.9857
-36.7835
-39.779
-35.8207
-32.7644
-33.3732
-38.3768
-42.8881
-40.5228
-47.0317
-10.3774
-47.827
-41.7651
-47.7154
-64.1336
-34.8563
-39.7576
-33.6406
-36.5198
-35.6925
-38.3589
-33.1719
-29.6956
-42.4146
-9.87796
-40.3684
-47.0382
-47.907
-64.2174
-41.5704
-47.6883
-50.6698
177.744
-48.3163
204.428
-50.0026
-39.5944
-40.7861
-26.9196
-34.1076
-20.4065
-40.1696
-37.2836
-19.658
91.5489
-51.5852
-20.1225
-33.1622
-24.0296
-41.6106
-39.58
-52.4878
176.508
-51.8046
-39.7416
-40.5011
-26.8226
-40.5115
-37.2064
-51.7259
-20.3468
-41.5814
-39.5807
-32.7672
-35.1835
-42.6865
-34.4705
-37.155
-35.8119
-34.6883
-38.9283
-35.4486
-38.8493
-39.5256
-78.301
7.11031
-43.4784
-79.2256
-50.2435
-32.8867
-35.2423
-43.0147
-34.6658
-34.9844
-38.7989
-39.5891
-78.3866
-44.9372
-42.1403
-42.8791
-50.583
-48.872
-50.2557
-42.9471
-42.633
-50.0953
-50.3689
-37.0207
-37.0305
-25.7762
-7.02249
-7.08758
-25.9904
177.716
74.8459
74.5092
172.507
-32.8557
-33.0177
-40.1582
-38.9475
-33.0169
-39.1163
-40.199
-33.3929
-35.3657
-35.4253
-35.2026
-35.2217
-46.7457
-68.5851
-67.8007
-47.041
-37.7558
-38.9336
-40.6697
-40.385
-37.6495
-40.5631
-40.5747
-38.9481
-38.099
-38.0888
-35.3788
-35.4097
-50.2834
-33.5916
-33.5734
-50.3288
-26.5032
-26.366
-26.8234
-26.9242
-3.01422
-123.283
-72.3429
-33.252
-32.1511
-38.0989
27.2106
71.6481
-28.7446
-32.5214
-29.8108
-34.9804
-129.185
7.15887
-75.7814
-32.0442
-33.1461
-38.0123
71.3429
30.0182
-28.9484
-29.7169
-32.4323
-34.8246
-42.2272
-34.5053
-36.364
-39.9646
-42.0577
-33.612
-28.6575
-39.2613
-42.8028
-42.5932
-47.4886
-32.6461
-49.676
-44.5426
-47.2867
-55.1984
-40.4679
-39.9247
-34.608
-36.6116
-42.1516
-39.0725
-33.5959
-25.0724
-42.4506
-31.7711
-42.4864
-48.442
-49.9494
-55.0535
-44.4386
-47.1682
2.10321
10.9982
-48.0965
143.381
-82.4779
-82.4131
-60.8237
125.406
-49.446
-38.452
-49.9911
-40.4231
-32.0842
-30.7403
-39.7681
-28.0588
-28.1846
-28.0996
-30.858
-22.2178
-41.1582
-35.5473
-38.4793
-36.9503
10.4094
11.1275
-12.7928
38.4073
-46.1782
-43.8504
-53.5879
-29.0334
-27.6956
-27.6595
-30.9933
-25.6899
-38.957
-46.1706
-41.8706
-40.7559
11.6829
15.8775
-49.1489
146.886
-48.5554
-38.6227
-51.5849
-41
-31.9788
-30.6441
-39.6874
-27.9819
-41.4538
-35.3542
-38.8632
-36.7153
-46.1725
-43.6596
-53.5513
-29.2541
-38.8908
-46.1143
-41.8142
-40.7545
-32.4892
-32.9017
-32.0295
-34.3458
-37.6282
-39.5391
-43.3705
-36.0754
-40.0197
-39.9993
-39.5748
-36.7605
-33.7556
-39.6927
-35.0866
-43.6414
-38.2796
-38.2384
-36.551
-39.6819
-47.2079
-48.5706
-43.0124
-62.0925
-4.74974
-4.61129
6.80893
-19.203
-66.515
-66.6263
-72.5245
-58.5944
-32.6263
-33.0285
-32.0834
-34.485
-37.421
-39.3999
-43.0365
-36.1443
-32.5749
-39.2556
-35.2244
-43.3966
-47.3139
-48.6264
-43.0878
-62.0623
-64.0077
-50.1522
-50.0733
-45.1907
-61.0542
-51.939
-50.4895
-45.3834
-42.3474
-38.8915
-38.9332
-36.7707
-19.5854
-14.6105
-14.7934
-7.2864
194.743
206.208
172.984
194.86
-33.3857
-33.8924
-34.6898
-37.1531
-33.463
-34.1467
-34.8277
-37.2412
-35.8169
-35.5021
-35.6628
-35.8244
-81.0277
-71.9281
-82.249
-82.2727
-41.0311
-39.8094
-40.9427
-39.1557
-41.2597
-39.8064
-40.9393
-39.1269
-36.6991
-37.2897
-37.2469
-37.8198
-35.7153
-39.3127
-39.3165
-43.8529
-24.9469
-19.4394
-22.2977
-24.8422
-50.1778
126.308
-65.6694
74.0548
-47.9417
-52.0427
-38.0797
-28.1039
-32.5647
-27.3908
-38.4508
-36.6545
-44.4338
69.7067
-23.2962
55.8252
-45.1453
-32.2434
-40.1471
-28.0096
-30.7632
-28.112
-39.4826
-34.1421
-66.4534
106.436
-51.8253
135.262
-50.0092
-52.2427
-32.4945
-27.2587
-37.9617
-28.0061
-38.3055
-36.6272
-22.9136
56.3626
-44.6292
69.079
-44.9408
-32.2795
-30.7291
-28.0521
-40.0182
-27.9267
-39.4778
-34.1158
-40.3294
-35.9193
-32.2851
-34.6519
-48.1336
-34.0722
-39.467
-36.5201
-36.328
-37.1068
-32.458
-34.6274
-31.6574
-44.989
-36.4772
-39.439
-43.9581
-21.5211
-41.9338
-39.5593
-42.2673
-66.3491
-2.62175
-26.2703
-42.472
-51.0416
-39.6357
-42.16
-43.2665
-55.2333
-64.7832
-58.9117
-41.1011
-35.8926
-39.3991
-36.5777
-32.6066
-34.79
-47.5318
-34.2336
-36.196
-37.0244
-36.4169
-39.3598
-32.6244
-34.6115
-32.6749
-45.1917
-43.7808
-21.4928
-2.16806
-26.3563
-41.6878
-39.707
-42.333
-66.2292
-42.584
-51.0566
-64.7405
-58.9543
-39.7964
-41.8762
-43.2606
-55.1215
-47.625
-52.6847
175.949
157.402
-48.8518
-48.9769
187.072
192.483
-62.1563
-43.2281
-43.9049
-37.2619
-39.5335
-41.4352
-26.0915
-26.6947
-34.5202
-34.5357
-21.9573
-21.8353
-38.3925
-41.1762
-37.2925
-37.3516
-21.1278
-21.2758
92.111
92.9963
-46.4516
-62.2121
-25.8639
-15.9331
-33.3201
-33.3123
-24.9872
-25.0838
-41.2099
-40.4568
-44.081
-36.2592
-51.5749
-52.9391
160.24
177.262
-53.4842
-43.8897
-44.0288
-37.2937
-41.3185
-39.3628
-25.9303
-26.5913
-38.4992
-41.4016
-37.3553
-37.3268
-61.7384
-46.5273
-16.1283
-25.8237
-40.3893
-41.2103
-36.2517
-44.0909
-32.4183
-33.1998
-34.9776
-35.2667
-42.7805
-42.5631
-33.4236
-36.2779
-37.2035
-37.2014
-35.6918
-35.716
-33.6891
-37.0749
-38.6454
-39.4097
-35.3771
-35.3829
-38.7107
-38.7169
-39.9841
-38.8659
-66.4752
-70.8488
4.67484
4.59558
-42.5603
-43.147
-77.116
-76.3974
-50.1726
-50.2133
-32.5243
-33.435
-35.0224
-35.3425
-42.6417
-43.1241
-33.6004
-36.4587
-37.2498
-33.9935
-38.5041
-39.3673
-38.6493
-40.2022
-71.0345
-66.5623
-55.2103
-56.8035
-64.6147
-49.4785
-49.9257
-45.4897
-44.7689
-42.0725
-42.509
-47.7217
-45.621
-41.9033
-37.2905
-46.0762
-62.7291
-56.5699
-59.9068
-50.558
-57.1646
-51.6914
-36.9956
-56.0574
-62.2718
-46.935
-42.4845
-41.6101
-45.8606
-47.6151
-49.1597
-42.7788
-44.8109
-45.1583
-68.8229
-62.2942
-42.8433
-45.4591
-69.8786
-45.2706
-42.8989
-62.3502
-38.1504
-39.5188
-36.9868
-37.5582
-38.6064
-37.604
-36.9881
-39.5554
-37.51
-30.9128
-21.8611
-13.9316
-20.1385
5.11839
-10.7892
-24.9058
-20.3813
-25.0247
-10.9078
5.36144
-37.0047
-13.4202
-21.9426
-31.0637
82.4783
137.959
188.902
97.0069
74.772
46.7541
165.54
131.547
74.2298
133.23
167.083
47.5024
91.2078
86.1871
189.315
143.532
-33.4524
-31.9518
-32.8612
-34.8602
-30.7394
-33.1724
-33.747
-32.4131
-42.8119
-43.5568
-37.1621
-37.3504
-42.6738
-37.5623
-35.966
-42.6135
-33.8643
-34.9223
-32.9778
-32.011
-42.9555
-42.5622
-36.0528
-37.637
-42.7838
-37.6193
-37.2569
-43.6116
-32.0135
-32.7193
-33.9337
-33.6705
-35.9789
-36.7005
-35.3607
-34.17
-36.1096
-34.2866
-35.3751
-36.7102
-36.0616
-36.5421
-35.5777
-34.6086
-36.2084
-34.577
-35.5132
-36.5624
-51.497
-63.4663
-70.2472
-19.4437
-52.9424
-71.1009
-81.3817
-57.7856
-52.7669
-57.6596
-80.2118
-71.3206
-51.8427
-19.1065
-70.131
-63.6247
-46.0162
-37.343
-38.8594
-44.5789
-38.5235
-38.7769
-40.9591
-42.0403
-38.0454
-40.8567
-41.2543
-40.4225
-44.9935
-42.0304
-39.5376
-41.8594
-46.8181
-44.436
-38.9162
-36.9472
-44.725
-41.8167
-39.4385
-41.7526
-37.8578
-40.3198
-41.3317
-40.8207
-38.349
-42.3986
-41.2088
-38.6749
-39.5483
-39.6116
-37.7206
-36.2732
-39.4562
-36.3362
-37.7297
-39.5948
-34.3284
-31.2873
-36.8712
-38.3625
-34.3832
-38.327
-36.8852
-31.333
-57.0767
-45.2621
-43.9244
-58.6125
-31.9122
-30.857
-35.8505
-37.1991
-31.8519
-37.186
-35.8456
-30.8483
-57.2303
-58.6748
-43.9406
-45.2813
-29.4527
-24.1722
-21.5047
-27.8063
-29.3512
-27.7591
-21.3095
-24.0291
-28.7702
-27.394
-24.0652
-27.8334
-28.8566
-27.9156
-24.2001
-27.4378
-9.17956
-72.1712
-83.6589
-33.9345
-33.3792
-36.7137
44.8563
73.3135
-36.7557
-33.3366
-31.1778
-34.4237
-96.4539
-5.78044
-88.6665
-33.281
-33.8309
-36.6158
72.9117
46.4622
-36.6766
-31.0796
-33.2263
-34.3243
-44.2252
-35.7305
-36.9437
-40.0176
-47.0179
-34.421
-32.6614
-39.3163
-44.1392
-43.578
-47.8423
-46.1789
-49.2368
-46.4246
-47.466
-49.8477
-44.3763
-39.985
-35.9077
-37.377
-47.2833
-38.8536
-34.5407
-28.4906
-43.2411
-44.0285
-43.3998
-48.4254
-49.1845
-49.6094
-46.2676
-47.2746
-3.0415
1.96086
-49.6735
84.5876
-78.1154
-78.406
-68.2151
12.2017
-46.761
-39.2067
-48.3341
-41.1916
-31.2705
-30.5294
-35.8404
-28.8755
-27.4072
-27.3653
-29.1138
-23.693
-40.096
-35.4648
-37.1279
-36.8593
9.80348
10.1151
-1.98619
26.1248
-46.528
-45.6091
-50.9354
-36.2883
-27.7121
-27.6951
-29.3783
-26.3492
-40.2776
-43.4179
-41.6762
-40.9449
11.2822
9.43846
-44.4952
91.5178
-47.6366
-39.4347
-49.5715
-41.9196
-31.1468
-30.4386
-35.7499
-28.8134
-39.9772
-35.5461
-37.294
-36.5588
-46.3955
-45.5444
-50.8279
-36.1105
-40.2399
-43.3481
-41.8247
-40.9865
-32.4952
-32.8233
-31.9998
-33.639
-38.2927
-39.1367
-41.6712
-37.3468
-40.1912
-40.2161
-40.2252
-38.5155
-35.2171
-38.6525
-35.7124
-41.9478
-38.3036
-38.2702
-37.2275
-39.8239
-47.4226
-48.4598
-45.0034
-54.0336
-3.81493
-3.5112
2.82536
-9.48382
-66.732
-66.809
-69.9854
-63.6062
-32.9551
-32.9652
-32.1842
-33.8109
-38.1327
-38.9744
-41.4498
-37.4052
-34.4411
-38.107
-35.5013
-41.0313
-47.4524
-48.4608
-44.9974
-54.0435
-56.9168
-49.9586
-49.928
-46.5179
-57.951
-51.4591
-50.6919
-46.7866
-40.0683
-38.641
-38.6498
-37.2325
-17.3283
-14.5736
-14.7178
-11.1447
203.91
206.958
201.107
203.444
-33.9805
-34.106
-34.5692
-35.9785
-34.0342
-33.9402
-34.7492
-35.8104
-35.9333
-35.6951
-36.3066
-35.9483
-83.0533
-79.6574
-83.39
-83.6944
-40.5516
-40.1811
-40.663
-40.1202
-40.53
-40.1775
-40.6676
-40.0868
-37.2241
-37.2858
-37.2566
-37.5179
-37.332
-39.2377
-39.2421
-41.3656
-24.004
-21.0183
-22.7439
-23.918
-1.17155
3.40729
-50.5674
74.2274
-104.082
-86.7697
-77.1816
9.53393
-61.1407
-52.04
-51.3843
-53.9522
-32.9823
-32.8471
-35.9223
-29.2896
-31.2534
-29.1661
-31.0214
-28.2279
-37.6685
-38.6294
-37.8958
-37.291
27.6325
15.4564
-40.2024
75.1667
66.951
16.9247
-3.92637
54.9331
-36.8924
-40.3334
-41.8137
-34.2031
-32.0003
-30.9919
-37.9788
-29.0448
-28.7911
-28.4978
-28.9038
-28.7919
-36.2605
-37.7829
-38.4455
-35.2751
-105.96
-87.0727
-78.4196
-10.5527
15.6777
15.943
-45.6654
80.8384
-63.0439
-49.8197
-53.462
-54.0369
-31.1305
-29.0495
-30.9401
-28.111
-32.8784
-32.6743
-35.826
-29.1994
-37.5858
-38.9544
-37.723
-37.2726
66.9346
17.284
-3.73975
55.8956
29.8486
18.7823
-38.5825
74.4882
-36.5962
-40.4316
-41.4267
-33.6445
-28.712
-28.476
-28.8425
-28.7296
-31.9101
-30.8911
-37.8541
-28.9567
-36.1652
-37.7454
-38.5316
-35.2219
-32.2027
-37.2019
-37.2501
-35.4867
-33.4722
-32.7557
-32.4668
-33.944
-36.4287
-37.1683
-42.334
-35.1985
-39.8497
-39.8792
-40.2953
-37.9742
-36.2911
-35.7566
-35.2193
-36.2057
-33.3604
-32.6822
-32.2315
-33.8851
-31.3236
-34.236
-29.201
-46.5725
-38.7534
-38.2964
-37.3769
-39.7634
-43.0731
-43.7171
-44.0868
-29.6268
-41.5947
-39.9143
-41.087
-40.0225
-47.3873
-47.3996
-44.4841
-56.7232
-18.3798
-6.5493
-5.02774
-17.528
-48.3043
-46.2838
-44.8261
-51.3478
-42.911
-40.5263
-40.5287
-42.1465
-47.3011
-48.1256
-45.7799
-51.1407
-61.0157
-65.9894
-65.2055
-63.1341
-31.1827
-37.3881
-37.9737
-35.4284
-39.9283
-39.9502
-40.3052
-38.0415
-34.0218
-32.952
-32.8564
-34.2219
-36.2954
-37.0552
-41.7153
-35.2358
-36.1594
-35.728
-35.3351
-36.1393
-38.6543
-38.2543
-37.1545
-39.8674
-33.4055
-33.0725
-32.3022
-34.0849
-27.0425
-31.5032
-31.2598
-43.2158
-42.6855
-43.3669
-43.7109
-29.623
-18.2742
-6.25463
-4.57192
-17.5703
-41.4301
-39.8079
-40.8076
-40.1357
-47.7012
-47.4019
-44.5174
-56.7918
-48.396
-46.3948
-44.7848
-51.2695
-60.991
-66.1244
-65.33
-63.1871
-42.7898
-40.2342
-40.34
-41.9628
-47.2563
-48.1276
-45.7906
-51.04
-49.4919
-58.6182
-49.2741
-51.6536
168.611
181.569
177.912
166.579
-53.1953
-44.9577
-48.453
-48.4665
192.778
206.524
201.202
201.963
-50.1887
-50.4559
-57.8843
-44.2035
-39.9072
-39.2449
-41.3878
-38.0162
-40.4528
-41.2396
-40.0141
-41.2682
-27.5438
-26.1102
-26.6995
-26.8695
-32.3942
-35.5153
-34.2007
-34.2074
-20.8518
-19.9336
-20.6758
-20.5999
-39.8994
-39.705
-39.6716
-41.1116
-37.1923
-37.3016
-37.2568
-37.5816
-18.1993
-20.8117
-20.2293
-20.2131
60.5539
123.313
93.4992
93.3601
-52.7289
-50.7576
-48.3536
-57.3436
-23.2526
-15.9536
-23.3606
-16.1473
-31.7983
-34.4074
-33.2258
-33.2228
-25.9419
-22.2642
-24.3614
-24.4227
-41.943
-41.2331
-41.4387
-41.3311
-40.1563
-39.3668
-41.5959
-37.7824
-51.1496
-55.1051
-52.3984
-52.7541
170.029
182.622
171.293
178.04
-51.828
-52.3339
-59.6023
-45.1525
-40.1718
-39.331
-41.5399
-38.1376
-40.3992
-41.2129
-41.0822
-39.7631
-27.4609
-26.031
-26.5726
-26.7677
-40.4057
-39.7737
-39.8488
-41.1156
-37.0636
-37.2319
-37.2797
-37.4821
-52.7954
-51.0456
-57.3641
-48.469
-23.7834
-16.1109
-16.2857
-23.5248
-41.9331
-41.2061
-41.3096
-41.453
-40.1428
-39.36
-37.7706
-41.5958
-32.4496
-32.9756
-32.492
-33.0697
-34.8005
-35.5842
-35.0712
-35.6679
-42.5871
-43.7359
-42.7796
-42.5712
-35.1255
-34.1592
-33.8777
-35.2752
-37.9732
-36.6108
-37.177
-37.1911
-36.2152
-35.5566
-35.7785
-35.8056
-34.8064
-34.8155
-34.1782
-35.7575
-40.269
-38.8251
-38.7729
-39.0131
-35.9465
-35.1289
-35.4276
-35.4317
-39.1945
-38.2511
-38.7927
-38.7918
-40.9073
-38.1006
-39.7777
-39.2112
-75.9251
-78.5855
-75.1795
-72.7778
8.77842
0.436686
6.56289
6.56646
-30.2132
-58.9174
-42.7623
-42.8856
-75.5944
-81.246
-78.0965
-78.2364
-53.9788
-46.7203
-50.1149
-50.1264
-32.5697
-33.0985
-32.576
-33.2336
-34.908
-35.4926
-35.0533
-35.8018
-42.5128
-43.9908
-42.8368
-43.0858
-35.2818
-34.299
-34.0445
-35.4788
-35.0503
-35.0038
-36.0582
-34.4763
-40.2979
-38.7935
-38.6115
-38.9385
-41.057
-38.2046
-39.1546
-39.9252
-75.7829
-79.0482
-72.9752
-74.7117
-49.2609
-45.907
-46.0428
-49.0483
-41.2518
-43.3385
-43.0518
-42.541
-43.2896
-42.2005
-44.7942
-42.7902
-45.88
-47.9962
-52.0956
-59.7554
-52.1872
-49.3598
-50.2245
-46.6099
-46.148
-47.698
-51.9122
-58.3714
-43.364
-42.121
-44.8619
-42.8504
-42.1024
-43.3825
-43.6359
-42.9597
-56.4933
-50.7778
-49.4528
-46.5505
-56.9446
-51.08
-49.6538
-46.7156
-36.4047
-37.72
-36.7566
-37.1966
-36.4098
-37.7691
-36.7677
-37.2151
-25.7516
-28.9873
-23.5659
-26.0698
-14.2645
-3.1869
-12.1196
0.184252
-14.2765
-3.18326
-12.0915
0.0448707
-25.8367
-29.462
-23.7157
-26.3271
155.299
125.428
177.891
183.119
63.9092
50.5656
119.688
84.1931
52.473
60.9815
83.4255
120.702
146.181
166.943
186.67
179.545
-32.5141
-33.3153
-32.6197
-33.1604
-32.7533
-32.5703
-33.1418
-33.1411
-40.1002
-41.7073
-38.5891
-39.9092
-39.1363
-40.526
-37.5259
-38.7537
-32.6961
-33.4946
-32.7708
-33.3124
-39.2747
-40.6451
-37.6536
-38.7782
-40.2472
-41.6688
-38.767
-39.9876
-33.0366
-33.1732
-33.4698
-33.5197
-35.0728
-35.8574
-35.0848
-35.5461
-35.9276
-35.1498
-35.5861
-35.145
-35.7869
-34.9678
-35.3039
-34.7754
-34.9975
-35.8227
-34.755
-35.3232
-56.2748
-35.4774
-55.5967
-42.5312
-60.9096
-65.7839
-69.5859
-75.0544
-65.5882
-60.7825
-73.5035
-69.1882
-35.4957
-57
-42.9748
-56.961
-37.1768
-38.5135
-38.1329
-38.386
-39.258
-38.7457
-39.2091
-39.485
-40.1098
-40.0854
-41.2991
-41.3732
-41.0476
-41.6284
-39.7274
-39.9499
-37.0689
-38.9628
-37.9902
-38.1918
-41.2602
-41.1106
-39.9821
-40.0628
-40.0088
-40.0038
-41.2042
-41.2931
-39.1671
-38.7111
-39.147
-39.5495
-37.5687
-38.5373
-37.6251
-38.4952
-37.4971
-38.5198
-37.6938
-38.5019
-33.9996
-35.9346
-34.8936
-36.3509
-34.0942
-35.9686
-34.9104
-36.3797
-50.5812
-54.2328
-46.8117
-50.0524
-32.2178
-33.8382
-33.4169
-34.8953
-32.1941
-33.8206
-33.4041
-34.8803
-50.6416
-54.3113
-46.8438
-50.0976
-27.4793
-26.8704
-26.2098
-24.7935
-26.743
-27.3704
-24.602
-26.063
-27.3513
-27.3374
-26.0168
-26.5779
-27.4348
-27.4455
-26.6789
-26.119
-49.8396
39.5538
-84.2816
2.37186
-63.1237
-69.2951
-36.4552
-30.4741
-32.9909
-30.607
-39.1612
-35.5206
-39.3569
81.5085
5.23769
74.7609
-31.6285
-39.0067
-38.2712
-29.6875
-30.7328
-29.3324
-36.8092
-33.0293
-86.127
26.9226
-41.3149
47.566
-67.5536
-70.7617
-32.9137
-30.4945
-36.3511
-30.3796
-39.0826
-35.4586
4.91876
74.274
-38.9596
80.5655
-31.7575
-38.9919
-30.6412
-29.1957
-38.2177
-29.5951
-36.5489
-32.9691
-46.1001
-38.3927
-33.8171
-35.3638
-45.6682
-34.678
-40.9251
-37.8338
-44.8101
-40.4496
-31.3013
-35.4713
-25.9333
-53.2467
-37.569
-41.521
-43.1734
-41.2351
-42.5533
-43.0079
-44.7728
-57.5984
-23.2785
-39.9028
-47.9359
-52.8846
-43.8993
-44.742
-45.3903
-49.9768
-51.8694
-57.9328
-49.5825
-37.7527
-41.0513
-37.903
-34.1004
-35.5485
-44.4185
-34.7504
-45.8061
-40.3449
-37.1768
-41.7003
-32.1572
-35.3819
-30.3287
-48.9509
-42.9451
-41.7973
-23.3558
-39.8564
-42.3306
-43.4091
-45.3502
-59.1448
-47.5959
-53.1961
-51.9301
-57.6179
-43.7604
-44.6639
-45.3127
-49.8514
-49.9309
79.0763
-46.1136
96.6924
-48.8408
-47.0704
140.98
140.358
-71.207
37.4144
-71.4124
56.3195
-60.9061
-61.0823
132.926
109.245
-56.7249
-46.5743
-41.1409
-37.8153
-56.7005
-43.3825
-42.8023
-38.4689
-35.6178
-28.8172
-36.6779
-28.8139
-39.3422
-40.1962
-28.0119
-28.0139
-29.7355
-25.5407
-29.6812
-25.4211
-30.9741
-30.9998
-22.434
-22.3548
-42.963
-38.9639
-36.2709
-35.8774
-38.2909
-42.2812
-36.218
-38.1544
-3.49895
30.7371
-3.53391
30.1495
-13.2589
-12.7863
41.277
39.7502
-51.3101
-36.5515
-47.1449
-33.2143
-50.0614
-55.9931
-30.3826
-26.805
-28.9768
-29.4144
-28.954
-29.4003
-30.9332
-30.9838
-26.2085
-26.2495
-40.2824
-37.6902
-42.7744
-45.8124
-41.2757
-41.8574
-42.9928
-39.089
-43.8802
87.5812
-42.2685
102.136
-49.4904
-48.0969
145.499
145.1
-55.682
-46.3051
-41.5882
-37.8866
-58.5956
-44.5139
-43.2204
-38.7458
-35.5226
-28.7382
-36.5977
-28.7279
-40.115
-39.2322
-27.9743
-27.9311
-43.2649
-39.0307
-35.817
-35.859
-38.419
-41.7244
-36.3857
-37.8902
-51.0453
-36.7337
-47.0641
-33.4108
-55.8102
-50.0643
-26.7265
-30.8507
-40.1666
-37.6502
-42.8213
-45.7784
-41.7413
-41.3126
-39.0633
-42.9943
-31.9833
-33.4199
-32.2789
-34.0393
-31.8712
-32.4674
-34.2569
-34.9852
-42.6236
-36.0667
-40.6792
-38.4224
-44.2834
-42.2254
-35.5158
-36.755
-40.1854
-38.3366
-40.2055
-38.3514
-39.5438
-39.5744
-36.7333
-36.7177
-33.674
-42.9264
-38.1656
-41.1253
-34.1574
-36.2993
-44.1383
-42.689
-37.3726
-39.6963
-37.324
-39.6609
-36.565
-36.5421
-39.6476
-39.632
-44.4993
-54.9803
-45.71
-52.6453
-43.4151
-42.8509
-63.8822
-59.5548
1.27458
-11.6591
1.44791
-11.6867
6.58823
6.7751
-17.975
-18.3396
-68.9596
-63.1675
-69.1934
-63.2302
-72.1913
-72.2396
-58.6674
-58.7051
-32.0978
-33.6187
-32.6181
-34.1372
-32.0592
-32.6135
-34.2873
-35.0828
-42.1631
-36.0719
-40.4621
-38.4786
-41.8462
-44.081
-35.5854
-36.8102
-33.6281
-41.2687
-38.3195
-40.7477
-36.3292
-34.4187
-43.8632
-42.4962
-44.5132
-54.8908
-45.7494
-52.674
-42.8529
-43.4837
-59.519
-63.9433
-64.4604
-63.165
-57.6345
-45.7208
-47.1961
-56.2481
-44.9761
-45.2876
-59.8467
-61.7422
-59.5292
-46.3283
-56.5439
-47.4072
-45.5467
-45.1286
-42.5151
-42.4917
-40.503
-37.5165
-40.534
-37.5501
-36.8269
-36.8324
-20.2079
-20.316
-19.383
-12.4703
-12.5865
-19.3475
-8.06491
-8.15267
189.252
188.086
199.271
200.501
174.404
174.817
190.537
190.407
-33.0776