# vtk DataFile Version 2.0
tet_velo
ASCII
DATASET UNSTRUCTURED_GRID
POINTS 29498 float
-0.805 0.095 -2.002
-0.655 0.265 2.17397
-0.695 0.615 -1.88883
-0.545 0.960168 2.145
0.805 0.095 -2.002
0.655 0.265 2.17399
0.695 0.615 -1.88883
0.545 0.960168 2.145
-0.807429 0.0992372 -0.61001
-0.794023 0.119311 0.78198
-0.746262 0.831318 -0.54422
-0.700193 0.950305 0.80039
0.807419 0.0992473 -0.610004
0.793946 0.119387 0.781993
0.747307 0.832363 -0.54422
0.700188 0.9503 0.80039
-1.56855 -0.337831 -3.12629
-1.56799 -0.260699 -2.03167
-1.55895 -0.250694 -0.638455
-1.51113 -0.240505 0.764296
-1.40823 -0.14114 2.15831
-1.38296 -0.0637013 3.25686
-1.394 0.0017654 4.34813
-1.56398 -0.0170667 -3.08674
-1.56134 0.0833349 -1.9973
-1.55657 0.119202 -0.6133
-1.4927 0.137365 0.77496
-1.34793 0.232016 2.15986
-1.34384 0.30768 3.25774
-1.37341 0.372746 4.35056
-1.51667 0.58245 -2.99434
-1.48253 0.679777 -1.90294
-1.49766 0.843647 -0.55124
-1.41774 0.933611 0.797098
-1.26571 0.967377 2.1497
-1.29875 1.03914 3.24954
-1.35264 1.11106 4.34999
-1.47887 1.61077 -2.89136
-1.46252 1.72635 -1.80706
-1.45747 1.90739 -0.470726
-1.43491 2.05072 0.855395
-1.39488 2.12794 2.19222
-1.38319 2.17982 3.27756
-1.39275 2.2389 4.37284
-0.805815 -0.331953 -3.12934
-0.796355 -0.250988 -2.03613
-0.794375 -0.260051 -0.637854
-0.785837 -0.253022 0.77029
-0.718757 -0.126129 2.16879
-0.702864 -0.0532551 3.26397
-0.711872 0.00641843 4.35225
-0.81162 -0.0188581 -3.08768
-0.679195 0.319084 3.26361
-0.70056 0.377235 4.35366
-0.774318 0.555148 -2.98848
-0.645115 1.03943 3.2486
-0.688719 1.11192 4.34979
-0.736466 1.59164 -2.88557
-0.720407 1.70808 -1.80068
-0.726199 1.90288 -0.466877
-0.730111 2.05617 0.854935
-0.715462 2.13071 2.18893
-0.708833 2.18012 3.27427
-0.714715 2.23881 4.37045
0.751448 -0.331824 -3.12934
0.79595 -0.250918 -2.03613
0.798059 -0.25999 -0.637848
0.760983 -0.25295 0.770302
0.666499 -0.126097 2.16881
0.647912 -0.0532167 3.26399
0.646964 0.00647574 4.35226
0.732883 -0.0187491 -3.08768
0.626737 0.31911 3.26362
0.634674 0.377286 4.35367
0.701353 0.555291 -2.98848
0.590053 1.03946 3.24861
0.619209 1.11197 4.3498
0.741378 1.59195 -2.88557
0.751065 1.70845 -1.80067
0.735071 1.90328 -0.466876
0.682968 2.0564 0.854937
0.634174 2.13082 2.18893
0.62706 2.18022 3.27427
0.63348 2.2389 4.37045
1.52661 -0.337495 -3.12628
1.56792 -0.260385 -2.03167
1.56851 -0.250423 -0.638444
1.51063 -0.240344 0.764315
1.39283 -0.141042 2.15834
1.34907 -0.0636006 3.25689
1.34259 0.00189371 4.34815
1.51034 -0.0167267 -3.08673
1.56034 0.0837202 -1.99729
1.56548 0.119591 -0.613291
1.50841 0.137507 0.774977
1.36341 0.232086 2.15989
1.31914 0.307761 3.25777
1.32336 0.372864 4.35058
1.46933 0.582876 -2.99433
1.48521 0.680366 -1.90293
1.5079 0.844683 -0.551237
1.43199 0.933812 0.797105
1.27936 0.967443 2.14971
1.27103 1.03923 3.24955
1.29893 1.11119 4.35001
1.48387 1.61139 -2.89136
1.48899 1.72706 -1.80706
1.46889 1.90811 -0.470723
1.40422 2.05117 0.855399
1.33522 2.12819 2.19223
1.31665 2.18003 3.27757
1.3216 2.2391 4.37285
-0.757375 0.355 -1.95279
0 0.0916798 -2.00532
-0.814115 0.089218 -1.30601
-0.571299 0.612584 2.13078
0 0.243934 2.19505
-0.762861 0.153806 1.47798
0 0.694462 -1.96829
-0.757593 0.760121 -1.21653
0 0.953609 2.13844
-0.648828 0.981468 1.4727
0.756978 0.355 -1.95239
0.814073 0.0892603 -1.306
0.57191 0.612584 2.1314
0.756569 0.160097 1.47799
0.757584 0.760112 -1.21653
0.648856 0.981496 1.4727
-0.802608 0.107392 0.0859849
-0.836787 0.465278 -0.577115
-5.05499e-06 0.0900875 -0.610007
-0.83252 0.534808 0.791185
-3.8185e-05 0.118628 0.781987
-0.728443 0.896027 0.128085
0.000522552 1.08923 -0.54422
-2.47613e-06 1.29255 0.80039
0.802487 0.107513 0.085995
0.836815 0.465805 -0.577112
0.832493 0.534843 0.791192
0.728432 0.896016 0.128085
-0.898523 0.410139 -1.26127
-0.84271 0.500043 0.107035
-0.896297 0.573696 1.47534
-2.52749e-06 0.0877985 -1.306
-2.162e-05 0.106048 0.08599
-1.90925e-05 0.152185 1.47798
0 0.355 -2.09666
0 0.612584 2.17562
0.000261276 0.854822 -1.21653
0.000260038 1.28952 0.128085
-1.23806e-06 1.10829 1.4727
0.898513 0.410403 -1.26126
0.839752 0.500324 0.10704
0.896298 0.573714 1.47534
-1.18317 0.0891674 -1.99965
-0.800678 -0.077994 -2.01906
-0.80831 0.038071 -2.54484
-1.00146 0.248508 2.16692
-0.686878 0.0694357 2.17138
-0.667097 0.292042 2.71879
-1.08876 0.647389 -1.89588
-0.734659 0.585074 -2.43865
-0.707704 1.16154 -1.84475
-0.905355 0.963772 2.14735
-0.595057 0.999801 2.6968
-0.630231 1.54544 2.16696
0.800475 -0.0779589 -2.01906
0.768941 0.0381255 -2.54484
1.18267 0.0893601 -1.99965
0.66075 0.0694514 2.1714
0.640868 0.292055 2.7188
1.0092 0.248543 2.16694
0.698176 0.585145 -2.43865
0.723032 1.16172 -1.84475
1.0901 0.647683 -1.89588
0.567527 0.999815 2.6968
0.589587 1.54549 2.16697
0.912178 0.963805 2.14736
-1.182 0.109219 -0.611655
-0.800902 -0.0804067 -0.623932
-1.14336 0.128338 0.77847
-0.78993 -0.0668554 0.776135
-1.12196 0.837483 -0.54773
-0.736231 1.3671 -0.505549
-1.05897 0.941958 0.798744
-0.715152 1.50324 0.827662
0.802739 -0.0803714 -0.623926
1.18645 0.109419 -0.611647
0.777465 -0.0667816 0.776148
1.15118 0.128447 0.778485
0.741189 1.36782 -0.505548
1.1276 0.838523 -0.547728
0.691578 1.50335 0.827663
1.06609 0.942056 0.798747
-1.56827 -0.299265 -2.57898
-1.56626 -0.177449 -3.10651
-1.18718 -0.334892 -3.12782
-1.56347 -0.255697 -1.33506
-1.56466 -0.0886822 -2.01448
-1.18217 -0.255844 -2.0339
-1.53504 -0.2456 0.0629207
-1.55776 -0.065746 -0.625877
-1.17666 -0.255372 -0.638154
-1.45968 -0.190822 1.46131
-1.50191 -0.0515701 0.769628
-1.14848 -0.246763 0.767293
-1.39559 -0.10242 2.70759
-1.37808 0.0454382 2.15909
-1.06349 -0.133634 2.16355
-1.38848 -0.0309679 3.8025
-1.3634 0.121989 3.2573
-1.04291 -0.0584782 3.26042
-1.38371 0.187256 4.34935
-1.05294 0.00409192 4.35019
-1.56266 0.0331341 -2.54202
-1.54033 0.282692 -3.04054
-1.1878 -0.0179624 -3.08721
-1.55895 0.101268 -1.3053
-1.52194 0.381556 -1.95012
-1.52463 0.128283 0.0808302
-1.52711 0.481424 -0.58227
-1.42031 0.184691 1.46741
-1.45522 0.535488 0.786029
-1.34588 0.269848 2.7088
-1.30682 0.599696 2.15478
-1.35863 0.340213 3.80415
-1.3213 0.67341 3.25364
-1.01152 0.313382 3.26068
-1.36302 0.741904 4.35028
-1.03699 0.374991 4.35211
-1.4996 0.631114 -2.44864
-1.49777 1.09661 -2.94285
-1.1455 0.568799 -2.99141
-1.49009 0.761712 -1.22709
-1.47252 1.20306 -1.855
-1.4577 0.888629 0.122929
-1.47756 1.37552 -0.510983
-1.34173 0.950494 1.4734
-1.42633 1.49217 0.826247
-1.28223 1.00326 2.69962
-1.3303 1.54766 2.17096
-1.32569 1.0751 3.79977
-1.34097 1.60948 3.26355
-0.971933 1.03929 3.24907
-1.37269 1.67498 4.36142
-1.02068 1.11149 4.34989
-1.4707 1.66856 -2.34921
-1.10767 1.60121 -2.88847
-1.46 1.81687 -1.13889
-1.09146 1.71721 -1.80387
-1.44619 1.97905 0.192334
-1.09183 1.90514 -0.468802
-1.4149 2.08933 1.52381
-1.08251 2.05345 0.855165
-1.38904 2.15388 2.73489
-1.05517 2.12932 2.19057
-1.38797 2.20936 3.8252
-1.04601 2.17997 3.27591
-1.05373 2.23885 4.37164
-0.801085 -0.29147 -2.58274
-0.808718 -0.175405 -3.10851
-0.0271838 -0.331888 -3.12934
-0.795365 -0.255519 -1.33699
-0.00020279 -0.250953 -2.03613
-0.790106 -0.256536 0.066218
0.00184211 -0.26002 -0.637851
-0.752297 -0.189575 1.46954
-0.0124271 -0.252986 0.770296
-0.710811 -0.0896919 2.71638
-0.0261289 -0.126113 2.1688
-0.707368 -0.0234184 3.80811
-0.691029 0.132915 3.26379
-0.0274758 -0.0532359 3.26398
-0.706216 0.191827 4.35296
-0.0324542 0.00644709 4.35226
-0.792969 0.268145 -3.03808
-0.0393686 -0.0188036 -3.08768
-0.689877 0.34816 3.80864
-0.662155 0.679259 3.2561
-0.026229 0.319097 3.26361
-0.694639 0.744576 4.35173
-0.0329428 0.377261 4.35367
-0.755392 1.07339 -2.93702
-0.0364829 0.55522 -2.98848
-0.666917 1.07568 3.7992
-0.676974 1.60978 3.26143
-0.0275309 1.03945 3.2486
-0.701717 1.67536 4.36012
-0.0347548 1.11194 4.3498
-0.728437 1.64986 -2.34312
0.00245586 1.59179 -2.88557
-0.723303 1.80548 -1.13378
0.0153287 1.70826 -1.80068
-0.728155 1.97953 0.194029
0.00443607 1.90308 -0.466877
-0.722786 2.09344 1.52193
-0.0235714 2.05629 0.854936
-0.712147 2.15542 2.7316
-0.040644 2.13076 2.18893
-0.711774 2.20946 3.82236
-0.0408864 2.18017 3.27427
-0.0406179 2.23885 4.37045
0.773699 -0.291371 -2.58273
0.742165 -0.175287 -3.10851
1.13903 -0.33466 -3.12781
0.797005 -0.255454 -1.33699
1.18194 -0.255651 -2.0339
0.779521 -0.25647 0.066227
1.18328 -0.255207 -0.638146
0.713741 -0.189524 1.46955
1.1358 -0.246647 0.767308
0.657206 -0.0896569 2.7164
1.02966 -0.133569 2.16357
0.647438 -0.0233705 3.80812
0.637325 0.132947 3.2638
0.998493 -0.0584087 3.26044
0.640819 0.191881 4.35297
0.994779 0.00418473 4.35021
0.717118 0.268271 -3.03808
1.12161 -0.0177379 -3.0872
0.630706 0.348198 3.80865
0.608395 0.679286 3.25611
0.97294 0.313436 3.26069
0.626942 0.744628 4.35174
0.979017 0.375075 4.35213
0.721365 1.07362 -2.93702
1.08534 0.569084 -2.99141
0.604631 1.07572 3.7992
0.608557 1.60984 3.26144
0.93054 1.03934 3.24908
0.626344 1.67544 4.36013
0.959069 1.11158 4.3499
0.746221 1.6502 -2.34312
1.11262 1.60167 -2.88846
0.743068 1.80586 -1.13378
1.12003 1.71775 -1.80387
0.70902 1.97984 0.19403
1.10198 1.9057 -0.468799
0.658571 2.09361 1.52193
1.04359 2.05378 0.855168
0.630617 2.15552 2.7316
0.984698 2.1295 2.19058
0.63027 2.20956 3.82236
0.971855 2.18012 3.27592
0.977541 2.239 4.37165
1.54727 -0.29894 -2.57897
1.51848 -0.177111 -3.10651
1.56821 -0.255404 -1.33505
1.56413 -0.0883325 -2.01448
1.53957 -0.245383 0.0629354
1.56699 -0.0654161 -0.625867
1.45173 -0.190693 1.46133
1.50952 -0.0514184 0.769646
1.37095 -0.102321 2.70761
1.37812 0.0455223 2.15911
1.34583 -0.0308535 3.80252
1.33411 0.12208 3.25733
1.33298 0.187379 4.34936
1.53534 0.0334967 -2.54201
1.48984 0.283075 -3.04053
1.56291 0.101656 -1.30529
1.52277 0.382043 -1.95011
1.53695 0.128549 0.0808432
1.53669 0.482137 -0.582264
1.43591 0.184797 1.46743
1.4702 0.53566 0.786041
1.34128 0.269924 2.70883
1.32138 0.599765 2.1548
1.32125 0.340312 3.80417
1.29509 0.673494 3.25366
1.31114 0.742025 4.35029
1.47727 0.631621 -2.44863
1.4766 1.09713 -2.94285
1.49655 0.762524 -1.22709
1.4871 1.20371 -1.855
1.46995 0.889248 0.122934
[...]
POINT_DATA 29498
VECTORS point_vectors float
-0.732946 -1.45538 3.95853
0.199462 0.0872402 0.643884
-1.11835 1.33089 2.41793
-0.726171 -0.452466 0.396941
0.729934 -1.44907 3.95648
-0.200987 0.0862143 0.648983
1.10987 1.32102 2.40004
0.730882 -0.447687 0.387634
-0.0149194 0.0645987 0.9747
0.172017 -0.17754 1.14931
0 0 0
0 0 0
0.0153161 0.0654911 0.970699
-0.169731 -0.174622 1.13564
0 0 0
0 0 0
-0.542191 -0.276699 19.8873
-1.12881 -0.746328 20.5248
-0.270751 -0.403736 21.3502
0.236674 -0.176865 21.4899
0.884403 0.154759 21.4191
1.13086 0.149997 21.0085
0.955044 0.0294433 20.8237
-0.686405 -0.228627 19.7885
-1.61502 -0.628546 20.4703
-0.489056 -0.564366 21.4004
0.102062 -0.42711 21.5922
1.1423 -0.185651 21.3067
1.35341 -0.238181 21.143
1.13345 -0.198708 20.9915
-0.861062 0.0591891 19.6346
-2.21173 0.211046 20.3976
-1.23573 -0.373138 21.4164
-0.429034 -0.423997 21.7297
0.468292 -0.834991 21.2551
0.770439 -0.821473 21.2942
0.751411 -0.695508 20.4083
-0.561651 0.409244 19.926
-0.912103 0.696732 20.3985
-0.839216 0.46876 21.1092
-0.322134 0.0379585 21.433
0.0256328 -0.268135 21.2954
0.157643 -0.368313 21.0303
0.102319 -0.343675 20.7864
-0.558127 -0.637729 19.4209
-1.42106 -2.95307 20.9337
-0.159561 -0.183483 21.9765
0.281073 0.246354 21.4322
0.641061 1.38647 19.0107
1.1274 1.55419 17.5469
1.13392 0.986125 17.4492
-0.763956 -0.545453 19.0731
1.77321 1.49071 9.51503
1.89633 0.935998 12.3176
-1.06436 0.157766 18.5397
0.641302 -0.901414 8.66738
0.819396 -0.779412 15.2638
-0.500945 0.798934 19.5257
-0.91012 1.61107 20.1543
-1.023 1.43874 21.2112
-0.290518 0.264114 21.6822
-0.0432143 -0.277003 21.3919
0.0620298 -0.45114 20.993
-0.0189704 -0.372382 20.5089
0.534498 -0.656342 19.3996
1.43405 -2.9573 20.9376
0.16191 -0.179083 21.9804
-0.261448 0.258817 21.3689
-0.530924 1.38699 18.6361
-0.970575 1.65763 17.3398
-1.08745 1.17599 17.0604
0.737287 -0.581876 18.9791
-1.5664 1.48053 8.67622
-1.98249 1.18287 10.885
1.00847 0.182044 18.403
-0.407183 -0.824011 6.29808
-0.727259 -0.770231 13.3296
0.502361 0.796019 19.5287
0.937045 1.56948 20.1646
1.02547 1.42389 21.2095
0.289797 0.276292 21.6968
0.0535288 -0.263119 21.4042
-0.0621771 -0.480734 20.972
-0.0296172 -0.36721 20.6837
0.545271 -0.287129 19.8731
1.12942 -0.755702 20.534
0.282479 -0.411667 21.34
-0.236175 -0.177627 21.4909
-0.887717 0.164598 21.4241
-1.16587 0.156773 20.9564
-0.971935 0.093589 20.9088
0.704374 -0.243464 19.7535
1.61986 -0.633042 20.4706
0.487301 -0.562337 21.3942
-0.0985989 -0.414462 21.5758
-1.10918 -0.194419 21.3415
-1.38483 -0.233632 21.1094
-1.21863 -0.219815 20.8528
0.883417 0.080994 19.5799
2.19838 0.208087 20.3989
1.21284 -0.365231 21.4114
0.417264 -0.42069 21.7164
-0.461672 -0.822217 21.31
-0.785317 -0.847488 21.248
-0.828027 -0.78434 20.2382
0.560855 0.406216 19.9281
0.899985 0.674567 20.4003
0.831539 0.457941 21.1069
0.324796 0.0412787 21.4247
-0.00809306 -0.284203 21.2985
-0.139226 -0.379892 20.9839
-0.0454997 -0.316509 20.844
-0.815357 0.0684664 1.01636
-1.73573e-05 -0.00519505 0.080399
-0.111325 0.0547934 0.720431
0 0 0
-0.00111577 -0.0665228 0.00695903
-0.0069591 0.0160476 0.297087
-1.02012e-05 0.0592703 0.165614
-0.160889 -0.0266972 0.279188
-0.00424835 0.340203 -0.414652
0.00511182 -0.0117891 0.0638664
0.716598 0.0634119 0.904954
0.111187 0.0533958 0.714794
0 0 0
0.00299933 0.011489 0.148659
0.162377 -0.0277921 0.281307
-0.00514196 -0.0117308 0.0639507
0.0242899 0.0126186 1.28024
0.000277485 0.00181869 0.0208249
5.4904e-08 2.12762e-06 0.000366891
0.000238907 0.00441969 0.00771794
1.15917e-06 4.805e-06 0.000344202
0 0 0
0.000681796 0.0173299 0.0367923
-4.92572e-06 -0.00146379 0.0293816
0.00766816 0.101141 1.27967
-0.000277837 0.00183039 0.0210193
-0.000225424 0.00415895 0.00726655
0 0 0
3.28828e-05 2.24512e-06 0.00279926
-0.000771729 0.0169999 0.0686693
0.00010977 0.000410137 0.00305041
6.50331e-08 2.35388e-09 6.97442e-05
0 0 0
-3.41328e-06 0.000223613 0.00827316
0 0 0
0 0 0
7.0985e-06 0.00116894 0.00840021
0 0 0
-3.38729e-06 0.000388122 -0.000878086
-2.84752e-05 -1.33098e-06 0.00244831
0 0 0
-0.000103807 0.000393191 0.00290586
-3.1982 -1.81137 20.3266
-2.40911 -4.95143 21.2572
-2.03835 -1.67774 18.173
1.49385 0.76837 14.3557
0.294469 1.36579 10.8027
1.08343 0.79205 6.33676
-4.71317 1.26678 19.9509
-3.09986 1.20478 16.6735
-2.07473 2.92521 19.9064
0.540926 -0.570496 13.8645
-0.52012 -0.774812 3.97742
-0.0660031 -0.477581 20.0572
2.42126 -4.95502 21.2602
2.04867 -1.77776 17.9955
3.20381 -1.81624 20.3173
-0.222584 1.29115 10.3045
-0.979069 0.729585 5.80872
-1.49967 0.758579 14.7522
3.08808 1.3362 16.4348
2.0897 2.86594 19.9192
4.6958 1.26179 19.9537
0.64229 -0.74088 3.0927
0.091741 -0.468869 20.1631
-0.561226 -0.560755 14.2164
-0.0855982 -0.878862 20.7091
-0.220686 0.317669 16.9901
0.234729 -0.286124 18.927
0.487063 0.268977 15.9602
-2.2417 -1.03109 21.1997
-2.97976 2.2004 21.316
-0.516456 -0.276551 19.3445
-0.651633 0.22214 21.9856
0.22281 0.321983 17.0462
0.0985694 -0.885975 20.7673
-0.491279 0.264692 15.6336
-0.241638 -0.311083 19.1213
2.96587 2.16623 21.3158
2.21932 -1.00671 21.2394
0.647781 0.23157 22.0203
0.535416 -0.306874 19.5405
-0.873892 -0.506522 20.0536
-0.615681 -0.252599 19.8365
-0.593303 -0.440259 19.7096
-0.727625 -0.62556 21.2041
-1.37739 -0.704371 20.4834
-1.49513 -1.55624 20.5882
0.00774498 -0.267664 21.4437
-0.382132 -0.516686 21.3675
-0.0435166 -0.430591 21.598
0.51999 -0.0350403 21.5835
0.17724 -0.307084 21.5081
0.411346 -0.0805363 21.5861
1.02277 0.220044 21.3281
1.03007 0.0070053 21.4736
1.12684 0.793201 21.0639
1.17923 0.124357 20.637
1.26548 -0.0649842 21.1574
1.51004 0.943201 20.4435
1.06227 -0.0766877 20.9557
1.22024 0.588104 21.1036
-1.16614 -0.426402 19.9176
-0.779594 -0.111636 19.703
-0.786407 -0.376882 19.4867
-1.10309 -0.664779 21.3225
-2.03447 -0.333905 20.4531
-0.156221 -0.500979 21.4964
-0.837713 -0.593406 21.4427
0.548757 -0.308158 21.6683
-0.154474 -0.535732 21.5988
1.30641 -0.169284 21.1301
1.02381 -0.671404 21.0996
1.57719 -0.186558 20.1547
1.18677 -0.633903 21.2779
1.83848 0.601034 16.68
1.03212 -0.799383 20.5017
1.51988 0.20612 17.4473
-1.54819 0.147643 19.7315
-0.765709 0.32582 19.7459
-1.02649 0.095499 19.1948
-1.68766 -0.162683 21.2523
-1.51701 0.706019 20.3509
-0.855836 -0.448791 21.6363
-1.24054 0.232594 21.2649
0.0775549 -0.576632 21.763
-0.443299 -0.100382 21.6029
0.621688 -0.86424 21.2922
0.0981147 -0.487314 21.392
0.709224 -0.663553 21.1312
0.268424 -0.613079 20.9958
0.949362 -1.04062 18.8482
0.213131 -0.371525 20.9562
0.813086 -1.14763 19.4498
-0.766141 0.58295 20.0848
-0.598392 0.60654 19.729
-0.930667 0.629368 20.7682
-1.01785 1.11226 20.2887
-0.600298 0.258087 21.3632
-1.00673 0.84545 21.1772
-0.110538 -0.146346 21.3409
-0.354443 0.132021 21.5425
0.102335 -0.348828 21.1599
-0.0121404 -0.297871 21.3365
0.130839 -0.360611 20.9204
0.11758 -0.473872 20.9511
0.0179572 -0.347699 20.8441
-1.13066 -1.60889 19.3037
-0.663351 -0.629047 19.2608
-0.0154692 -0.899678 19.0956
-0.516284 -1.00131 22.1433
-0.00854076 -3.54947 21.6789
0.0668968 0.0733235 21.6207
-0.0080434 -0.318452 21.8623
0.459063 0.719979 20.2255
0.00149039 0.241573 20.6967
0.86703 1.57957 18.888
0.0025994 0.996627 16.7376
1.06499 1.56895 18.4905
1.5056 1.76409 14.3009
0.0302299 1.52135 15.6802
1.47837 1.08408 14.8569
0.0838871 2.00387 16.1128
-0.96315 -0.303973 18.6791
-0.041881 -0.823755 18.4596
2.10928 1.12465 10.7561
1.7901 -0.288656 6.18353
0.0067134 1.28516 2.51073
1.61706 0.114176 11.5546
0.143884 1.64784 8.51981
-0.806857 0.75506 18.987
-0.0694398 0.299841 17.5826
0.778202 -0.918153 11.3269
0.0831312 -0.834203 20.6027
0.0593369 1.03209 -5.41392
0.02725 -0.865513 19.895
0.00697978 -0.157294 0.971311
-0.755685 1.3116 19.6869
0.0021898 1.03287 19.3146
-1.01042 1.56159 20.6345
0.0238144 2.1393 20.016
-0.682255 0.885245 21.7051
0.0081477 2.30458 21.1662
-0.111701 -0.10157 21.5316
-0.0152126 0.460609 21.8124
0.0127649 -0.392626 21.3079
-5.34966e-05 -0.212199 21.3978
0.0494986 -0.534413 20.6997
0.00973621 -0.521231 20.8731
-0.00515874 -0.296896 20.9245
1.12048 -1.63602 19.278
0.641529 -0.646196 19.1942
0.587287 -0.465343 19.6627
0.52415 -1.00331 22.1439
1.50069 -1.56253 20.5816
-0.0527176 0.077291 21.6228
0.0544972 -0.437184 21.5961
-0.410533 0.732642 19.9771
-0.416547 -0.0649067 21.5847
-0.738619 1.5984 18.4274
-1.11952 0.894835 20.9438
-1.01572 1.75155 18.1433
-1.34852 1.84091 14.0017
-1.49359 1.01834 20.4983
-1.42428 1.27586 14.4708
-1.24583 0.662844 20.7181
0.919299 -0.310613 18.5479
0.794007 -0.415276 19.4106
-2.10738 1.31638 10.0986
-1.72791 -0.121263 4.81345
-1.88023 0.748878 16.0187
-1.52104 0.120345 9.67556
-1.5726 0.311852 16.6698
0.790903 0.780193 18.9556
1.04304 0.0977816 19.1068
-0.630291 -0.995998 8.93631
-0.00231706 -0.826757 20.592
-1.00485 -1.0447 17.8848
-0.0374431 -0.890347 19.8532
-0.796937 -1.20091 19.3442
0.765818 1.29607 19.6979
0.598248 0.602563 19.7319
1.0227 1.52845 20.6457
1.01696 1.0806 20.2966
0.679387 0.908856 21.7159
1.00169 0.830362 21.1794
0.117569 -0.0896988 21.5315
0.357399 0.150265 21.5495
-0.00171312 -0.377056 21.2779
0.0227091 -0.299032 21.3537
-0.0602325 -0.52702 20.7653
-0.121667 -0.465967 20.9598
-0.0144552 -0.345468 20.8167
0.884629 -0.511918 20.0374
0.624716 -0.265326 19.8138
0.735802 -0.629312 21.2038
1.38095 -0.71051 20.4865
0.00917138 -0.276625 21.4418
0.384571 -0.523905 21.361
-0.521757 -0.0361037 21.5855
-0.175826 -0.307177 21.4982
-1.05158 0.230811 21.3183
-1.02646 0.00361474 21.4725
-1.25341 0.151263 20.5285
-1.29517 -0.0477658 21.1146
-1.08329 -0.0123511 21.0479
1.22196 -0.436452 19.8845
0.813507 -0.128369 19.6463
1.0989 -0.664375 21.3228
2.02888 -0.331976 20.4521
0.16153 -0.492994 21.4833
0.834376 -0.580298 21.4328
-0.536848 -0.308398 21.685
0.155642 -0.523597 21.6122
-1.31697 -0.169911 21.1224
-0.997836 -0.656794 21.1463
-1.63677 -0.168769 20.0218
-1.22574 -0.641411 21.2307
-1.11477 -0.881721 20.3511
1.58594 0.166239 19.697
0.772274 0.335027 19.7328
1.6788 -0.16104 21.2461
1.49378 0.68224 20.3561
0.839172 -0.437414 21.6263
1.2255 0.223291 21.26
-0.0778126 -0.565029 21.7583
0.44492 -0.0988666 21.6112
-0.620062 -0.866574 21.263
-0.0888081 -0.491137 21.3945
-0.714722 -0.688417 21.0842
-0.283176 -0.660384 20.9991
-0.188042 -0.38124 20.9813
0.761869 0.573658 20.0921
0.922328 0.613003 20.7705
0.604352 0.262075 21.3715
0.115041 -0.147183 21.3749
-0.0803724 -0.349337 21.1613
-0.0677673 -0.342337 20.9607
-1.03051 -0.477632 19.9784
-1.51791 -1.76115 18.8258
-1.07796 -0.920292 19.7763
-1.69127 -0.866555 19.3145
-0.687366 -0.421201 19.5856
-2.16449 -1.78838 20.4982
-0.936104 -0.667868 21.2559
-0.484556 -0.276136 19.3697
-0.631926 -0.975802 21.6111
-1.20266 -1.58322 22.1653
0.051226 -0.643244 21.5577
-0.0746175 -0.403748 21.4478
0.153774 0.32695 16.3095
0.22127 -0.229558 21.5539
0.186334 -0.500212 19.5913
0.449494 -0.210315 20.9205
0.537247 -0.173192 21.6284
0.460816 0.657709 13.8894
0.728537 0.270712 21.5712
0.624095 0.265042 17.2026
1.3809 0.923653 18.7342
1.23758 0.076128 21.1368
0.790583 1.54814 12.2568
1.33089 0.849175 20.5467
1.78268 0.592136 15.9011
1.68095 0.880167 18.6773
1.49511 -0.0266267 20.1476
1.55152 1.36493 14.6761
1.44054 0.854699 20.7375
1.80592 0.179631 18.4233
1.32956 0.48216 18.9423
-1.46447 -0.215667 19.7909
-2.97115 -0.6883 16.7918
-2.37902 0.41607 18.7915
-0.947161 -0.195192 19.2976
-4.88705 -0.631467 19.9813
-1.45576 -0.487646 21.3771
-2.68506 -0.460975 21.7632
-0.596242 -1.23218 19.721
-0.460609 -0.610429 21.6112
-1.41126 -0.840646 20.2645
-0.00186193 -0.0858564 16.8905
0.398604 -0.522671 21.6021
0.514997 -0.0249096 16.7263
1.0853 -0.260861 9.87153
1.18147 -0.646869 20.6624
0.210284 -0.509314 2.17649
0.629704 -0.811939 16.7377
1.81402 -0.597985 15.0122
1.05802 -0.593476 21.0081
1.73562 0.0687981 8.65994
0.95814 -1.18793 19.5518
1.3964 -0.440841 16.8714
-1.17775 0.551865 19.8886
-1.577 1.93325 18.8036
-0.842761 0.925529 19.8855
-0.843922 0.496054 19.4235
-2.0406 1.5084 20.1834
-1.43958 0.459894 20.9114
-2.23231 2.13147 20.6021
-1.07064 1.02731 20.7306
-1.95858 0.697683 21.3949
-0.884972 0.0617693 21.545
-1.86981 1.06918 22.4432
-0.698042 0.499946 21.5135
-0.588077 0.0128574 21.8702
-0.10295 -0.307471 21.5421
-0.188082 -0.356236 21.4925
-0.136772 -0.128383 21.4327
-0.029147 -0.557979 21.4982
0.20944 -0.589237 21.2523
-0.0545201 -0.680148 20.7097
0.0536929 -0.389435 21.2295
0.217426 -0.757571 21.4384
0.451004 -0.543067 20.7131
0.106044 -0.891446 20.1008
0.052542 -0.419063 21.0172
0.117816 -0.601138 20.5189
1.50242 -1.83406 18.7573
-0.0262847 -2.61184 18.7815
-0.101396 -3.55513 15.8874
-0.0246401 -0.904388 18.79
-0.00867607 -4.21546 22.2595
0.487884 -0.277376 19.3859
-0.00859432 -1.12288 22.4843
0.000482281 -0.0299513 13.1588
-0.147038 0.332264 16.186
-0.002563 -0.000408982 21.1305
0.00485108 0.226043 12.0917
-0.420411 0.65001 13.3451
0.00488305 0.603078 18.5188
-0.0117717 0.644909 7.48822
-0.654483 1.5402 11.559
0.009393 1.24555 16.457
-0.0136764 -0.146159 0.716572
0.00266196 1.59329 9.14519
-1.50509 1.54388 14.3222
0.0290288 2.07651 16.3261
0.0867789 0.930429 3.25593
0.136503 1.85164 13.055
3.01122 -0.700595 16.4923
-0.114287 2.89657 13.4064
-0.0751894 -0.440522 17.8141
-0.182369 -0.417159 1.86651
-0.000807867 1.40787 -5.39442
0.163116 0.447488 -3.78969
-1.70589 0.214618 7.53287
-0.0197101 0.0269898 -2.23922
0.148385 0.633434 2.01112
1.57086 1.95331 18.7908
0.0110856 1.71539 19.481
-0.0215982 1.12654 18.4384
0.0277687 4.19674 19.6605
2.23774 2.0966 20.6137
0.0181961 2.25212 20.4472
0.0119883 5.1082 20.5565
1.88455 1.10316 22.4448
-0.0189049 1.39308 21.92
-0.0162211 0.614629 21.5663
0.173883 -0.354884 21.3463
-0.00770447 -0.0250608 21.5317
-0.0155298 -0.152078 18.0004
0.0593098 -0.653498 20.4521
-0.00181814 -0.349751 21.3142
-0.00674156 -0.663461 18.8815
-0.104303 -0.926228 19.9709
-0.0156674 -0.460194 20.6516
-0.0018128 -0.77527 19.0848
1.05037 -0.489583 19.9583
1.09182 -0.969966 19.7416
1.73261 -0.926615 19.2339
0.689585 -0.447769 19.536
2.17292 -1.79534 20.4955
0.93804 -0.671149 21.2593
0.634577 -0.982364 21.6084
1.20751 -1.57709 22.1559
-0.0357767 -0.650437 21.5678
0.0840069 -0.411375 21.443
-0.223323 -0.2281 21.5539
-0.181504 -0.520261 19.7213
-0.4491 -0.205784 20.9021
-0.532247 -0.178016 21.6231
-0.736073 0.315126 21.5435
-0.635554 0.237721 17.325
-1.37015 0.976318 18.4737
-1.2564 0.0910116 21.1094
-1.32685 0.926553 20.5084
-1.77363 0.629696 15.4161
-1.72968 1.03718 17.968
-1.56553 0.00593059 20.0439
-1.43784 0.953133 20.6784
-1.8352 0.299534 17.3587
-1.38404 0.58539 18.1781
1.51578 -0.218575 19.7468
2.44732 0.469611 18.6751
0.950731 -0.202143 19.2157
4.88308 -0.630898 19.9813
1.45079 -0.478913 21.373
2.67481 -0.449828 21.7678
0.621916 -1.23656 19.9184
0.458165 -0.596867 21.5949
1.40768 -0.834024 20.4096
0.00821954 -0.14654 17.191
-0.386931 -0.515385 21.6197
-0.4904 -0.073851 17.0961
-1.10745 -0.248129 10.2459
-1.18236 -0.645911 20.6153
-0.628066 -0.781081 16.2407
-1.88389 -0.603568 14.0275
-1.13128 -0.572278 20.8461
-0.974495 -1.15898 18.896
-1.45393 -0.335039 16.088
1.18041 0.555507 19.8876
0.846402 0.910734 19.8923
0.852542 0.523084 19.3915
2.01274 1.45348 20.1909
1.42102 0.449388 20.9085
1.06685 1.00187 20.7359
1.93778 0.683238 21.393
0.883964 0.061189 21.5433
0.70123 0.514218 21.5238
0.5967 0.0204068 21.8826
0.104028 -0.310658 21.5518
0.139683 -0.127676 21.4407
0.0466259 -0.56218 21.5072
-0.198041 -0.600449 21.241
-0.0431901 -0.398555 21.2691
-0.197976 -0.755013 21.5079
-0.472252 -0.531959 20.6881
-0.055041 -0.450182 20.9108
-0.0907431 -0.655277 20.3847
-1.3711 -0.947906 19.5796
-0.763796 -1.21473 21.8625
0.311394 -0.352381 21.2022
0.79668 0.26312 20.129
1.57421 0.935182 18.6808
1.6292 0.552713 19.6048
-2.24875 -0.369695 18.8903
-1.9608 -1.05932 22.4119
-0.146328 -0.900788 18.3071
0.56632 0.504432 14.9729
1.33889 -0.481577 13.239
1.47594 -0.413887 15.7125
-1.52053 1.0791 19.4524
-1.98582 1.00675 20.9106
-1.30736 0.334012 21.8646
-0.169212 -0.334525 21.7182
0.125821 -0.691346 21.3489
0.274745 -0.834887 21.1701
-0.044169 -3.28274 17.7914
-0.000129998 -0.409067 15.6111
0.00126461 0.135519 12.2759
0.0052337 0.403136 10.0261
-0.0190763 0.575124 7.67008
0.0876019 1.51088 9.50458
-0.120749 -1.13822 12.7105
0.00937118 0.374121 -3.49949
0.177812 0.729591 0.392235
-0.0125223 3.03465 18.0812
0.0183824 3.53441 19.9661
-0.0172648 2.6537 22.6005
-0.015053 -0.129684 19.3666
-0.0230428 -0.23272 18.3364
-0.0153349 -0.810892 18.6391
1.40231 -1.01177 19.5394
0.777601 -1.2144 21.8514
-0.309398 -0.354983 21.204
-0.798407 0.285359 20.0133
-1.55507 1.04167 18.22
-1.648 0.663629 18.7481
2.30898 -0.394342 18.7891
1.96634 -1.0541 22.413
0.161104 -0.921913 18.5088
-0.573442 0.453816 15.357
-1.32828 -0.470043 12.6634
-1.51088 -0.391916 14.6792
1.5221 1.09162 19.4443
1.9655 0.977531 20.9176
1.31485 0.338293 21.869
0.171842 -0.335544 21.7184
-0.103786 -0.691769 21.3508
-0.236333 -0.835359 20.9666
-0.52248 -0.0934034 0.596888
-0.0124986 -0.0200292 0.191557
-0.0782194 0.0291398 0.512864
-0.00215858 -0.0122584 -0.00227349
-0.0876245 -0.0654185 0.0907734
0.0110604 0.24882 1.0674
-0.048711 0.0112501 0.0585214
-0.0302593 0.15424 0.393228
-0.0134682 0.00678745 0.0480152
-0.0304518 -0.0135042 -0.00698913
-0.410418 0.18406 -0.32074
-0.0113848 -0.00729549 0.0203672
0.0135231 -0.018939 0.181675
0.52229 -0.0931577 0.596796
0.0773721 0.0283215 0.510189
0.0859861 -0.0662509 0.09115
0.00235 -0.0138847 -0.00250661
-0.00995634 0.225736 0.971353
0.0300089 0.150084 0.382738
0.0397473 0.00918888 0.0477087
0.0150917 0.00807355 0.0557346
0.407657 0.191564 -0.33113
0.0309722 -0.0137446 -0.0070532
0.00872846 -0.00559617 0.0155442
-0.0980874 0.116868 0.744481
0.0112638 0.038883 1.47095
0 0 0
2.41411e-19 7.54634e-19 8.15947e-17
0.00644667 0.0163567 0.303088
0.0727107 0.0412208 1.80861
0 0 0
0 0 0
-0.285179 -0.130413 0.442897
-4.67636e-05 0.000732205 0.00786274
-1.0123e-18 -2.32117e-18 -1.22891e-17
-0.0352359 0.0306402 0.0808102
0.000146016 0.00019811 0.00100969
0.0180819 0.0432079 0.125836
0.00283711 0.00565423 0.0238266
0.0204799 -0.00436416 0.164113
0.0973997 0.116612 0.741938
0 0 0
-0.0113564 0.0388834 1.41289
0 0 0
-0.00603364 0.0165537 0.301043
0 0 0
-0.0628864 0.072271 1.65648
0 0 0
0.285527 -0.127189 0.434005
0 0 0
9.08429e-05 0.00136686 0.0146773
0 0 0
0 0 0
-0.0206496 -0.00412126 0.163424
-0.0178403 0.0426629 0.124313
-0.00280693 0.00555368 0.0235442
-0.000981572 -0.000887628 0.0180018
-0.615021 -0.0253882 0.0742066
5.22297e-08 1.93546e-07 4.67551e-05
0 0 0
-1.91496e-07 8.77853e-05 0.000371677
6.37548e-06 2.16096e-07 -0.000114158
0 0 0
0 0 0
0 0 0
-0.00068616 -0.0856305 -0.0214493
9.28937e-06 5.2319e-05 0.000548705
4.39445e-05 0.000208809 0.00758271
-0.000315912 0.513648 0.3181
5.39229e-05 0.00993248 0.0496961
-8.66724e-05 -0.00383301 0.02753
0 0 0
0 0 0
0 0 0
0 0 0
-0.00163728 0.000323575 -0.00102331
0.479215 0.02261 0.2783
0.000947654 -0.00084947 0.0173899
-3.61639e-06 1.09115e-07 -6.25001e-05
1.84237e-07 7.61727e-05 0.000323244
0 0 0
0 0 0
0 0 0
-5.36773e-06 3.16184e-05 0.000318584
0 0 0
8.62641e-05 -0.00390267 0.0278958
0.00121688 0.000257989 -0.000775562
0 0 0
0 0 0
0 0 0
0 0 0
6.7583e-06 0.000950187 0.00426634
-2.4707e-09 -4.41849e-08 -5.25858e-06
1.90573e-10 -6.32724e-08 -4.34962e-06
0.00219776 0.0252046 0.0805768
-1.16008e-05 0.00026708 0.00250592
1.12927e-05 0.000719821 0.0233732
0 0 0
0.00658841 0.0438756 0.1509
0.00345319 0.0292667 0.365776
-4.10431e-06 0.00165474 0.00537977
-0.000585501 0.340094 1.31965
2.74006e-06 0.000516884 0.0188103
-2.37559e-05 -0.00317583 0.0177466
0 0 0
0 0 0
0 0 0
-1.37824e-05 0.00187214 0.00846556
-0.00238099 0.0242242 0.0775129
1.20232e-05 0.000267023 0.00252529
-0.00373815 0.0308843 0.383867
-0.00721995 0.0484042 0.166617
1.98812e-05 -9.61171e-06 -0.000261763
-7.42851e-05 -9.46922e-05 0.00447522
0 0 0
-4.83759e-05 -0.00957756 0.0330608
0 0 0
0.00052023 0.00957996 0.0371452
0 0 0
0.0604922 0.369995 1.12832
-4.59611e-06 7.63192e-05 0.00116975
4.76519e-18 1.31799e-17 3.82236e-17
0.00450809 -0.00371267 0.0173794
0.00206502 -0.00906937 0.0254165
0 0 0
0 0 0
-1.77619e-06 6.12711e-07 7.57449e-05
2.14724e-06 7.12598e-07 8.88433e-05
0.000276313 0.000157536 0.0110445