# vtk DataFile Version 2.0
tri_press
ASCII
DATASET UNSTRUCTURED_GRID
POINTS 3682 float
-0.805 0.095 -2.002
-0.655 0.265 2.17397
-0.695 0.615 -1.88883
-0.545 0.960168 2.145
0.805 0.095 -2.002
0.655 0.265 2.17399
0.695 0.615 -1.88883
0.545 0.960168 2.145
-0.807429 0.0992372 -0.61001
-0.794023 0.119311 0.78198
-0.746262 0.831318 -0.54422
-0.700193 0.950305 0.80039
0.807419 0.0992473 -0.610004
0.793946 0.119387 0.781993
0.747307 0.832363 -0.54422
0.700188 0.9503 0.80039
-1.56855 -0.337831 -3.12629
-1.56799 -0.260699 -2.03167
-1.55895 -0.250694 -0.638455
-1.51113 -0.240505 0.764296
-1.40823 -0.14114 2.15831
-1.38296 -0.0637013 3.25686
-1.394 0.0017654 4.34813
-1.56398 -0.0170667 -3.08674
-1.56134 0.0833349 -1.9973
-1.55657 0.119202 -0.6133
-1.4927 0.137365 0.77496
-1.34793 0.232016 2.15986
-1.34384 0.30768 3.25774
-1.37341 0.372746 4.35056
-1.51667 0.58245 -2.99434
-1.48253 0.679777 -1.90294
-1.49766 0.843647 -0.55124
-1.41774 0.933611 0.797098
-1.26571 0.967377 2.1497
-1.29875 1.03914 3.24954
-1.35264 1.11106 4.34999
-1.47887 1.61077 -2.89136
-1.46252 1.72635 -1.80706
-1.45747 1.90739 -0.470726
-1.43491 2.05072 0.855395
-1.39488 2.12794 2.19222
-1.38319 2.17982 3.27756
-1.39275 2.2389 4.37284
-0.805815 -0.331953 -3.12934
-0.796355 -0.250988 -2.03613
-0.794375 -0.260051 -0.637854
-0.785837 -0.253022 0.77029
-0.718757 -0.126129 2.16879
-0.702864 -0.0532551 3.26397
-0.711872 0.00641843 4.35225
-0.81162 -0.0188581 -3.08768
-0.679195 0.319084 3.26361
-0.70056 0.377235 4.35366
-0.774318 0.555148 -2.98848
-0.645115 1.03943 3.2486
-0.688719 1.11192 4.34979
-0.736466 1.59164 -2.88557
-0.720407 1.70808 -1.80068
-0.726199 1.90288 -0.466877
-0.730111 2.05617 0.854935
-0.715462 2.13071 2.18893
-0.708833 2.18012 3.27427
-0.714715 2.23881 4.37045
0.751448 -0.331824 -3.12934
0.79595 -0.250918 -2.03613
0.798059 -0.25999 -0.637848
0.760983 -0.25295 0.770302
0.666499 -0.126097 2.16881
0.647912 -0.0532167 3.26399
0.646964 0.00647574 4.35226
0.732883 -0.0187491 -3.08768
0.626737 0.31911 3.26362
0.634674 0.377286 4.35367
0.701353 0.555291 -2.98848
0.590053 1.03946 3.24861
0.619209 1.11197 4.3498
0.741378 1.59195 -2.88557
0.751065 1.70845 -1.80067
0.735071 1.90328 -0.466876
0.682968 2.0564 0.854937
0.634174 2.13082 2.18893
0.62706 2.18022 3.27427
0.63348 2.2389 4.37045
1.52661 -0.337495 -3.12628
1.56792 -0.260385 -2.03167
1.56851 -0.250423 -0.638444
1.51063 -0.240344 0.764315
1.39283 -0.141042 2.15834
1.34907 -0.0636006 3.25689
1.34259 0.00189371 4.34815
1.51034 -0.0167267 -3.08673
1.56034 0.0837202 -1.99729
1.56548 0.119591 -0.613291
1.50841 0.137507 0.774977
1.36341 0.232086 2.15989
1.31914 0.307761 3.25777
1.32336 0.372864 4.35058
1.46933 0.582876 -2.99433
1.48521 0.680366 -1.90293
1.5079 0.844683 -0.551237
1.43199 0.933812 0.797105
1.27936 0.967443 2.14971
1.27103 1.03923 3.24955
1.29893 1.11119 4.35001
1.48387 1.61139 -2.89136
1.48899 1.72706 -1.80706
1.46889 1.90811 -0.470723
1.40422 2.05117 0.855399
1.33522 2.12819 2.19223
1.31665 2.18003 3.27757
1.3216 2.2391 4.37285
-0.757375 0.355 -1.95279
0 0.0916798 -2.00532
-0.814115 0.089218 -1.30601
-0.571299 0.612584 2.13078
0 0.243934 2.19505
-0.762861 0.153806 1.47798
0 0.694462 -1.96829
-0.757593 0.760121 -1.21653
0 0.953609 2.13844
-0.648828 0.981468 1.4727
0.756978 0.355 -1.95239
0.814073 0.0892603 -1.306
0.57191 0.612584 2.1314
0.756569 0.160097 1.47799
0.757584 0.760112 -1.21653
0.648856 0.981496 1.4727
-0.802608 0.107392 0.0859849
-0.836787 0.465278 -0.577115
-5.05499e-06 0.0900875 -0.610007
-0.83252 0.534808 0.791185
-3.8185e-05 0.118628 0.781987
-0.728443 0.896027 0.128085
0.000522552 1.08923 -0.54422
-2.47613e-06 1.29255 0.80039
0.802487 0.107513 0.085995
0.836815 0.465805 -0.577112
0.832493 0.534843 0.791192
0.728432 0.896016 0.128085
-0.898523 0.410139 -1.26127
0.898513 0.410403 -1.26126
-2.52749e-06 0.0877985 -1.306
0.000261276 0.854822 -1.21653
0 0.355 -2.09666
-0.84271 0.500043 0.107035
0.839752 0.500324 0.10704
-2.162e-05 0.106048 0.08599
0.000260038 1.28952 0.128085
-0.896297 0.573696 1.47534
0.896298 0.573714 1.47534
-1.90925e-05 0.152185 1.47798
-1.23806e-06 1.10829 1.4727
0 0.612584 2.17562
-0.745162 0.225 -1.94137
-0.4025 0.0919177 -2.00508
-0.811389 0.0902781 -1.654
-0.628124 0.438792 2.16735
-0.3275 0.247805 2.19117
-0.741963 0.17637 1.82597
-0.716586 0.485 -1.91121
-0.3475 0.682836 -1.95667
-0.743701 0.704965 -1.55268
-0.53549 0.786376 2.11523
-0.2725 0.957975 2.14281
-0.580824 0.954728 1.80885
0.4025 0.0919081 -2.00509
0.745145 0.225 -1.94135
0.811237 0.0904299 -1.654
0.3275 0.247917 2.19107
0.628257 0.438792 2.1675
0.74058 0.177753 1.82599
0.3475 0.682638 -1.95647
0.716544 0.485 -1.91117
0.743808 0.705072 -1.55268
0.2725 0.957973 2.1428
0.535484 0.786376 2.11523
0.580145 0.954049 1.80885
-0.808033 0.0969674 -0.958008
-0.807811 0.100522 -0.262013
-0.830516 0.278053 -0.593563
-0.405574 0.0909486 -0.610009
-0.773838 0.141162 1.12998
-0.799905 0.111762 0.433983
-0.829827 0.318781 0.786583
-0.397189 0.118652 0.781983
-0.754487 0.798279 -0.880373
-0.830965 0.668018 -0.560668
-0.735781 0.862101 -0.208068
-0.424401 1.06334 -0.54422
-0.679451 0.970827 1.13654
-0.822534 0.770645 0.795788
-0.718653 0.927501 0.464238
-0.428707 1.27865 0.80039
0.808034 0.0969657 -0.958003
0.405569 0.0909435 -0.610005
0.807439 0.100895 -0.262004
0.830453 0.278359 -0.593558
0.773726 0.141274 1.12999
0.397132 0.118651 0.78199
0.799727 0.11194 0.433994
0.829833 0.318808 0.786593
0.754483 0.798275 -0.880373
0.423396 1.05976 -0.54422
0.831254 0.668681 -0.560666
0.735753 0.862073 -0.208068
0.679437 0.970813 1.13654
0.42864 1.27852 0.80039
0.822493 0.770648 0.795791
0.718652 0.9275 0.464238
-0.898706 0.382569 -1.60703
-0.378688 0.355 -2.186
-1.26375e-06 0.0884644 -1.65566
0 0.22334 -2.09885
-0.8969 0.249678 -1.28364
-0.407059 0.0878399 -1.306
-0.767785 0.59314 1.80306
-0.285649 0.612584 2.16582
-9.54626e-06 0.176045 1.83651
0 0.428259 2.22897
-0.89408 0.363751 1.47666
-0.38144 0.1523 1.47798
0.000130638 0.802771 -1.59241
0 0.524731 -2.12943
-0.896088 0.58513 -1.2389
-0.378666 0.824471 -1.21653
-6.19032e-07 0.99105 1.80557
0 0.783097 2.13073
-0.781785 0.777582 1.47402
-0.324414 1.09253 1.4727
0.898697 0.382701 -1.60683
0.378489 0.355 -2.18609
0.896895 0.249831 -1.28363
0.407035 0.0878342 -1.306
0.767873 0.593149 1.80337
0.285955 0.612584 2.16577
0.894049 0.366905 1.47667
0.378275 0.153357 1.47799
0.896075 0.585257 -1.23889
0.378923 0.824178 -1.21653
0.781763 0.777605 1.47402
0.324428 1.09258 1.4727
-0.83419 0.297952 0.09651
-0.401963 0.105424 0.0859874
-0.838123 0.437708 -0.91919
-0.838167 0.48266 -0.23504
-3.79124e-06 0.0840174 -0.958005
-1.33375e-05 0.0982639 -0.262008
-0.845941 0.517425 0.44911
-0.896863 0.554252 1.13326
-2.99025e-05 0.11039 0.433988
-2.86388e-05 0.135418 1.12999
-0.831525 0.721009 0.11756
-0.453616 1.27182 0.128085
0.000391914 0.91733 -0.880373
0.000391295 1.25811 -0.208068
0.000128781 1.3013 0.464238
-1.8571e-06 1.24327 1.13654
0.83433 0.297313 0.0965175
0.401955 0.105336 0.0859925
0.838138 0.438104 -0.919188
0.838404 0.483065 -0.235036
0.845663 0.517584 0.449116
0.896863 0.554279 1.13327
0.831907 0.722078 0.117563
0.453944 1.27196 0.128085
-0.894864 0.237339 -1.63052
-0.830982 0.265968 -0.938599
-0.83399 0.616714 -0.899781
-0.896802 0.535065 -1.57985
0.894863 0.237416 -1.63041
0.896792 0.535129 -1.57975
0.833945 0.617171 -0.89978
0.830938 0.266179 -0.938595
-0.404779 0.0886051 -1.65483
0.404768 0.0886043 -1.65483
0.405371 0.0840172 -0.958004
-0.405388 0.0840212 -0.958006
-0.363083 0.774292 -1.57254
-0.375768 0.891548 -0.880373
0.376419 0.891447 -0.880373
0.363211 0.774294 -1.57254
-0.390594 0.22417 -2.12035
-0.363094 0.504865 -2.06926
0.362994 0.504865 -2.06929
0.390494 0.22417 -2.12035
-0.83238 0.287989 -0.248526
-0.836194 0.306274 0.441546
-0.849633 0.757129 0.456674
-0.831486 0.694634 -0.221554
0.832414 0.287825 -0.24852
0.831893 0.695536 -0.221552
0.849739 0.757632 0.456677
0.836258 0.305973 0.441555
-0.403983 0.0977569 -0.262011
0.403982 0.0976996 -0.262006
0.400071 0.110938 0.433991
-0.400122 0.110946 0.433985
-0.468297 1.22615 -0.208068
-0.446569 1.28605 0.464238
0.446691 1.28604 0.464238
0.468537 1.22559 -0.208068
-0.896375 0.345405 1.13162
-0.806485 0.401271 1.81452
-0.732447 0.781979 1.80595
-0.807981 0.760069 1.1349
0.896362 0.34701 1.13163
0.808305 0.760088 1.13491
0.732472 0.781991 1.80611
0.806584 0.402849 1.81468
-0.389235 0.135423 1.12998
0.387615 0.135418 1.12999
0.352888 0.175333 1.83125
-0.35447 0.175332 1.83124
-0.337256 1.22975 1.13654
-0.298457 0.982874 1.80721
0.298464 0.982863 1.80721
0.33726 1.22998 1.13654
-0.306575 0.433525 2.21137
0.306727 0.433525 2.21176
0.279227 0.784736 2.13172
-0.279075 0.784736 2.13168
-0.80565 0.16 -2.00225
-0.60375 0.0920635 -2.00494
-0.810052 0.0907809 -1.828
-0.623555 0.351896 2.15265
-0.49125 0.250285 2.18869
-0.703901 0.215266 1.99997
-0.712845 0.55 -1.90707
-0.52125 0.652252 -1.92608
-0.726762 0.667394 -1.72075
-0.529447 0.873272 2.11932
-0.40875 0.963525 2.14836
-0.552712 0.947248 1.97692
0.60375 0.0920599 -2.00494
0.805784 0.16 -2.00239
0.809676 0.0911576 -1.828
0.49125 0.2504 2.18859
0.623563 0.351896 2.15268
0.703868 0.215298 1.99999
0.52125 0.652256 -1.92609
0.712856 0.55 -1.90708
0.726679 0.667311 -1.72075
0.40875 0.963541 2.14837
0.529325 0.873272 2.1192
0.552341 0.946877 1.97692
-0.807948 0.0978853 -0.784009
-0.806884 0.100616 -0.436011
-0.833061 0.181601 -0.601786
-0.6083 0.0914961 -0.610009
-0.775508 0.138659 0.955979
-0.794855 0.117645 0.607981
-0.832342 0.208838 0.784281
-0.595326 0.119542 0.781982
-0.753391 0.817815 -0.712296
-0.809696 0.760209 -0.552444
-0.739789 0.845477 -0.376144
-0.619207 1.01508 -0.54422
-0.689814 0.960558 0.968466
-0.762053 0.86082 0.798089
-0.711873 0.941353 0.632314
-0.58682 1.15922 0.80039
0.807939 0.0978942 -0.784003
0.608301 0.0914812 -0.610004
0.809654 0.0978461 -0.436004
0.833072 0.181735 -0.601781
0.775306 0.138861 0.955993
0.595278 0.119541 0.781992
0.794791 0.117709 0.607994
0.832365 0.20886 0.784293
0.753423 0.817847 -0.712296
0.619768 1.01489 -0.54422
[...]
POINT_DATA 3682
SCALARS point_scalars float 1
LOOKUP_TABLE default
-98.7748
-38.8725
-45.0565
-34.278
-99.3325
-38.8176
-45.2271
-34.1557
-36.3086
-33.2541
-62.8699
-48.7481
-36.2656
-33.3262
-62.9806
-48.7281
-92.3682
-112.826
-36.3748
-36.201
-44.0099
-38.7857
-38.7857
-92.3682
-112.826
-36.5821
-39.4663
-40.8471
-36.5058
-36.407
81.099
-134.512
-48.1828
-42.6973
-38.6055
-35.1775
-35.6707
-43.1406
-79.9271
-84.5396
-58.177
-35.4941
-34.5345
-34.9768
-56.7351
-155.322
-37.3645
-36.9507
-41.4569
-38.7231
-38.7231
-56.7351
-35.9458
-35.8827
168.792
-33.214
-35.259
8.49776
-44.0777
-84.5451
-58.3839
-32.8458
-32.8458
-33.214
-42.4151
-156.187
-37.2208
-37.0358
-41.1522
-38.6748
-38.6748
-42.4151
-35.9109
-35.6143
168.481
-33.0993
-34.7736
8.76035
-44.8017
-84.781
-58.7364
-32.7597
-32.7597
-31.8708
-92.9865
-112.525
-36.3481
-36.1906
-43.8096
-38.7095
-38.7095
-60.4422
-112.525
-36.5878
-39.5983
-40.6876
-38.7095
-35.7049
80.8086
-134.663
-48.1955
-42.6837
-38.437
-35.1182
-35.6239
-43.3508
-80.0343
-85.0579
-58.159
-35.3791
-34.4238
-34.8771
-18.0545
-113.301
-52.7029
-34.5869
-37.2146
-43.764
-49.4837
-51.3561
-28.9979
-43.7342
-16.0334
-52.6097
-34.5198
-42.7314
-51.1305
-43.6883
-34.4455
-39.217
-40.7168
-33.9334
-39.4606
-53.1536
4.76289
-61.4875
-36.692
-39.2468
-33.9583
-53.1717
-63.0859
-63.0761
-52.1107
-9.02446
201.264
-38.7642
-38.6506
-37.195
-86.15
-52.3699
-52.258
-40.9411
-37.5415
-27.9663
-25.9782
-124.497
-77.0917
-36.4249
-37.7818
-47.4292
2.51927
-52.3839
-60.1913
-34.4593
-30.1638
-35.746
-125.527
-26.1195
-77.0267
-37.7253
-36.3704
-47.2497
-52.3945
2.51988
-60.3145
-30.0913
-34.3812
-35.7006
-46.3611
-35.0912
-37.0515
-40.1152
-41.49
-35.6693
-28.0472
-39.1933
-42.3672
-46.1787
-58.3104
-3.23492
-47.8712
-42.8701
-50.5206
-59.735
-46.3495
-40.1039
-35.0433
-37.0633
-41.6138
-39.1989
-36.9663
-28.0982
-42.2159
-0.966597
-46.234
-58.3538
-47.8274
-59.6968
-42.8514
-50.5488
-108.011
173.156
-68.5099
201.716
-61.9563
-52.2227
-41.5747
-32.0932
-43.3807
-33.4127
-49.4684
-41.2966
-35.0615
168.485
-62.618
-15.4021
-32.9806
-27.3889
-49.8939
-38.2207
-107.966
173.416
-61.9556
-52.2789
-41.4864
-31.9884
-49.3139
-41.1613
-62.3894
-15.5576
-49.8365
-38.198
-36.2425
-36.5741
-45.5858
-39.1591
-45.7113
-38.0729
-38.2269
-46.7036
-38.3455
-41.0033
-44.953
-77.4975
17.1398
-93.9859
-71.9991
-49.2381
-36.1195
-36.8896
-45.5841
-39.1873
-38.2815
-46.6724
-44.9635
-77.5074
-106.781
-46.2783
-46.5691
-112.855
-106.741
-112.839
-46.5798
-46.2768
-70.4756
-70.5855
-45.4541
-45.4604
-37.4905
9.30341
9.72629
-37.5437
147.155
126.838
126.865
147.414
-36.296
-35.4362
-45.5452
-46.0794
-36.3604
-46.0538
-45.8191
-35.5396
-37.6069
-37.5756
-37.7584
-37.7701
-89.3699
-65.7695
-65.7822
-90.6841
-45.8506
-44.2019
-40.8167
-47.79
-45.8672
-47.7834
-40.7357
-44.1244
-40.9329
-40.939
-44.1089
-44.1494
-50.036
-33.611
-33.5786
-49.9917
-35.2653
-35.2178
-30.7569
-30.8959
0.781189
-140.334
-103.658
-37.2597
-38.3236
-43.1188
-7.68053
-57.5448
-44.2424
-34.9414
-31.679
-33.8473
-139.926
0.308585
-103.485
-38.2672
-37.2074
-43.1194
-59.5404
-7.64727
-44.2145
-31.5964
-34.8481
-33.7829
-38.8817
-35.2406
-36.3214
-39.0292
-42.7471
-33.5015
-26.5061
-38.9023
-56.6415
-52.8025
-60.3332
-52.0883
-47.9536
-47.3582
-49.71
-54.2256
-38.8756
-39.0109
-35.4271
-36.3403
-42.7763
-38.9218
-33.5585
-26.5567
-56.4491
-52.1838
-52.9113
-60.3196
-47.9165
-54.1974
-47.3389
-49.6778
-17.0739
-9.55647
-122.574
138.982
-114.533
-114.779
-85.6764
70.634
-61.2987
-48.8246
-60.5951
-52.1566
-36.1479
-34.839
-38.7032
-33.9879
-37.4936
-37.5778
-40.1682
-34.7685
-49.3804
-41.4371
-48.04
-42.0709
-49.9926
-49.9454
-38.8912
65.5367
-60.9503
-44.0037
-61.6513
-27.2525
-29.302
-29.2644
-31.5274
-25.7636
-38.8434
-47.4892
-45.5567
-39.8767
-17.7065
-10.8288
-122.791
139.769
-61.3119
-48.9817
-60.5923
-52.2098
-36.0965
-34.7682
-38.5932
-33.9392
-49.4477
-41.7707
-47.4146
-41.8266
-61.3246
-43.7889
-61.1877
-27.2271
-38.8041
-47.5021
-45.5167
-39.8785
-35.1022
-35.1682
-35.0968
-35.7732
-37.8312
-41.7569
-40.6282
-39.0751
-40.5731
-40.5682
-43.0196
-40.1062
-30.8261
-38.2407
-36.6048
-35.5831
-39.3962
-39.3976
-38.1524
-40.859
-55.7647
-51.2899
-50.3714
-64.2638
4.05609
4.58844
19.9195
-24.2371
-61.2282
-61.2414
-66.9574
-56.0697
-34.7019
-31.9827
-36.2898
-36.2138
-37.8524
-41.791
-40.6398
-39.1079
-30.8769
-38.2566
-36.6539
-35.5812
-55.7964
-51.3316
-50.3305
-64.3282
-79.0806
-62.9263
-62.9288
-55.7682
-79.0488
-62.9214
-62.9172
-55.7598
-58.6254
-52.1066
-52.1398
-47.572
-23.1981
-11.0011
-11.0465
4.24729
197.254
201.718
160.171
197.105
-37.2586
-39.2089
-38.5608
-41.5333
-37.1663
-39.3801
-38.6483
-41.4347
-37.0541
-37.8695
-37.319
-37.1134
-84.3237
-98.506
-78.172
-84.4317
-47.5996
-50.484
-56.0013
-49.076
-47.5036
-50.36
-55.9044
-49.0103
-42.3659
-41.0292
-40.9955
-40.8171
-34.6004
-37.706
-37.6864
-41.9657
-29.5778
-31.78
-28.1881
-29.4556
-134.384
125.807
-91.9293
92.9836
-101.715
-72.3355
-40.621
-35.7342
-41.2155
-35.995
-44.4881
-45.1751
-105.433
97.7644
-43.5862
90.1951
-113.74
-43.8808
-38.4756
-33.2393
-31.7861
-30.2903
-39.1369
-34.2358
-92.1147
82.544
-134.233
126.408
-101.704
-72.3988
-41.1981
-35.9504
-40.4964
-35.6878
-44.4065
-45.1039
-43.5806
90.1123
-105.103
97.8361
-113.794
-44.0448
-31.763
-30.1311
-38.391
-33.1385
-39.0791
-34.2068
-47.4663
-44.784
-35.3147
-36.7414
-39.5886
-36.4957
-42.5839
-39.3024
-44.753
-40.5398
-34.6149
-36.9906
-33.2102
-38.8331
-37.7446
-40.6804
-49.3771
-9.728
-45.0687
-46.3882
-52.248
-82.5787
11.9244
-35.6162
-48.2472
-51.3906
-43.2179
-43.4789
-49.3926
-56.7122
-62.8287
-56.1346
-47.4505
-44.7912
-42.5726
-39.2777
-35.3605
-36.7042
-39.584
-36.5367
-44.8816
-40.5742
-37.7469
-40.6881
-34.4745
-37.0047
-33.2813
-38.8878
-49.4408
-9.8132
11.7253
-35.5505
-45.1066
-46.4472
-52.2806
-82.6874
-48.2482
-51.3612
-62.872
-56.1218
-43.2467
-43.4314
-49.38
-56.7024
-108.061
-107.719
160.782
139.106
-68.775
-68.8555
198.122
198.022
-77.7439
-54.1089
-59.191
-47.4856
-43.6409
-41.6542
-34.9204
-31.5681
-43.5924
-43.6114
-34.2078
-34.1633
-47.0216
-56.7281
-40.9594
-42.8998
-35.3696
-35.2549
158.901
158.58
-52.8032
-78.868
-27.7388
-3.94433
-33.1596
-33.1342
-28.5404
-28.647
-44.9879
-51.5588
-42.7671
-35.4024
-108.022
-107.712
138.636
160.314
-77.7436
-54.1119
-59.2738
-47.5189
-41.5638
-43.541
-34.862
-31.4668
-46.9731
-56.487
-40.9624
-42.8505
-78.7798
-52.8293
-4.81757
-27.8146
-51.4999
-44.8963
-35.3686
-42.8834
-36.4604
-36.1456
-37.3878
-36.8907
-45.9843
-45.3565
-37.3894
-42.0794
-45.6667
-45.6651
-37.9533
-37.9475
-36.3811
-40.8739
-46.2961
-45.2573
-38.2254
-38.2276
-41.0052
-41.0043
-43.5948
-45.5559
-88.9065
-70.0024
15.6792
15.3263
-90.168
-90.3099
-70.7775
-70.7933
-49.3356
-49.2476
-36.5757
-36.023
-37.2053
-36.8795
-45.3659
-45.982
-37.4361
-42.1011
-40.9394
-36.4298
-46.2751
-45.207
-45.644
-43.6392
-70.0631
-89.4599
-114.769
-74.1298
-79.1484
-128.242
-39.005
-39.9901
-54.6242
-53.8129
-51.8835
-52.7931
-54.4806
-41.9608
-34.6485
-116.926
-79.1301
-85.5187
-114.636
-128.151
-79.1228
-74.1307
-34.6526
-85.4224
-79.0893
-116.891
-51.9926
-41.9824
-54.4535
-52.8117
-39.009
-53.8245
-54.6237
-39.9894
-98.4106
-86.8258
-58.6644
-59.5182
-98.4653
-59.5762
-58.7181
-86.9823
-41.7095
-42.9136
-47.5404
-47.541
-41.72
-47.5018
-47.5228
-42.9162
-49.1025
-37.3458
-24.2147
-38.9806
-18.4341
18.3891
2.70036
-17.2653
-18.4162
-16.6679
2.89807
18.2136
-49.1292
-39.8769
-24.1391
-37.3838
93.1831
127.087
197.812
70.8004
64.3398
90.9825
159.947
120.414
64.6598
120.64
163.296
88.9511
93.5844
71.1703
197.701
127.969
-35.6407
-35.4147
-37.4239
-37.4102
-32.3825
-34.4569
-36.9489
-35.1919
-48.0221
-48.7786
-40.8592
-39.7264
-52.938
-41.9907
-41.9192
-51.8807
-35.7076
-37.4422
-37.5136
-35.6553
-52.9289
-51.8432
-42.0155
-42.0256
-48.1212
-39.7805
-40.8987
-48.8542
-32.4711
-33.3348
-36.9077
-34.5034
-38.2664
-39.9559
-37.743
-36.7533
-38.2742
-36.5078
-37.753
-39.9447
-36.9192
-38.0493
-37.2235
-36.1291
-36.9004
-36.1976
-37.2242
-38.0662
-86.0303
-71.1474
-97.4527
-24.1924
-55.7459
-66.0641
-76.707
-59.4683
-55.7701
-59.5072
-76.6454
-66.0527
-85.7278
-23.8139
-97.6437
-71.2234
-41.2012
-46.0055
-47.9353
-36.4698
-41.1049
-40.2083
-53.9481
-59.3133
-37.2093
-42.4561
-46.2103
-38.9448
-47.0524
-37.8708
-52.9585
-48.266
-41.326
-36.491
-47.8766
-45.951
-47.0153
-48.2306
-52.9211
-37.9061
-37.1483
-38.8472
-46.1058
-42.3764
-40.9593
-59.342
-53.8418
-40.0767
-40.5667
-40.832
-40.8566
-40.9861
-40.5923
-41.0098
-40.8507
-40.8336
-41.8693
-40.5587
-42.4672
-43.6537
-41.911
-43.764
-42.4948
-40.5633
-52.6211
-44.8968
-42.1954
-56.244
-32.3909
-31.566
-34.8028
-36.5348
-32.3491
-36.5055
-34.7985
-31.5682
-52.5923
-56.2308
-42.1921
-44.8824
-36.2767
-35.3553
-32.959
-35.5981
-36.224
-35.5563
-32.8963
-35.3159
-32.6864
-27.0743
-29.2862
-33.8005
-32.799
-33.8859
-29.3898
-27.1765
-60.9897
-159.944
-129.586
-37.5218
-38.6331
-40.8612
-18.942
-57.0174
-51.4365
-34.9109
-32.7616
-32.6232
-160.193
-61.445
-129.786
-38.5858
-37.4541
-40.8049
-56.9207
-18.8138
-51.4658
-32.6676
-34.8072
-32.5445
-37.1808
-35.6458
-36.1148
-38.0093
-43.5491
-33.9633
-25.8891
-38.5127
-64.815
-56.8704
-61.3276
-76.3795
-48.1987
-47.9308
-49.3879
-51.2008
-37.1477
-37.9526
-35.2729
-36.0879
-43.6109
-38.5403
-34.0127
-25.9871
-64.55
-76.3464
-57.0605
-61.5785
-48.1473
-51.1712
-47.8887
-49.3907
-13.2419
-3.83634
-6.62611
80.4327
-113.533
-113.592
-98.7657
-74.2289
-56.318
-50.3309
-57.5926
-51.9593
-35.2109
-34.9224
-37.5596
-34.2775
-37.2415
-37.4441
-38.986
-35.4062
-45.1444
-42.9174
-46.4086
-42.7794
-51.807
-51.93
-36.5043
-45.2465
-57.571
-46.7638
-61.0886
-36.3309
-29.0425
-29.0221
-31.4906
-25.8704
-41.1457
-45.8308
-44.3359
-42.0343
-13.9425
-6.09886
-6.35464
79.974
-56.3512
-50.3973
-57.5797
-51.9855
-35.1424
-34.8519
-37.4635
-34.2022
-43.7967
-43.8347
-45.5527
-42.2503
-57.5737
-46.5327
-60.8085
-36.2349
-41.1186
-45.7797
-44.3045
-42.0391
-35.1076
-34.31
-34.6461
-35.1374
-38.4438
-40.294
-39.5834
-39.0675
-40.6836
-40.6812
-41.4594
-40.2133
-32.3177
-36.0566
-35.3963
-31.2917
-39.4439
-39.4444
-38.7042
-40.4734
-54.3108
-52.2264
-52.2849
-58.446
4.56063
4.72953
14.9699
-7.60354
-61.4559
-61.4168
-64.2774
-58.9284
-35.8777
-31.6725
-38.1597
-35.6056
-38.4686
-40.3291
-39.6039
-39.1014
-32.358
-36.0687
-35.5147
-31.3192
-54.3279
-52.267
-52.3161
-58.4871
-70.0635
-63.0101
-63.2184
-57.9093
-70.0441
-63.0044
-63.1972
-57.8994
-55.1364
-52.0724
-52.0859
-49.5931
-16.5416
-9.50839
-9.55804
-3.22805
200.365
201.713
186.961
200.319
-37.9259
-38.9056
-39.0117
-40.1729
-37.8668
-39.2355
-38.5171
-40.0018
-37.1567
-37.7794
-37.0675
-37.183
-85.7236
-91.4611
-82.111
-85.7826
-55.4714
-51.0627
-55.2018
-50.2344
-55.3461
-50.9515
-55.1027
-50.141
-41.5858
-40.9903
-40.9779
-40.5877
-35.9224
-37.5298
-37.5701
-39.5387
-28.5484
-29.3675
-28.2434
-28.4861
-19.4144
-21.8404
-28.4674
90.2665
-133.906
-118.493
-108.965
-71.5242
-89.0577
-67.6101
-94.1936
-72.821
-36.6548
-36.3819
-39.653
-35.8071
-38.0271
-37.4532
-39.7397
-36.7298
-44.6604
-48.7774
-46.1318
-45.8611
1.0903
2.35109
-2.97507
63.6113
-54.2064
-52.2108
-47.1104
5.35407
-60.6588
-59.3169
-97.0898
-49.855
-34.4026
-34.6309
-38.1841
-33.804
-30.8224
-29.6656
-31.5025
-29.4917
-34.6427
-37.1059
-37.6566
-34.7347
-134.496
-119.391
-109.332
-44.8881
-19.7261
-22.2734
-28.4355
90.1007
-88.8999
-67.5822
-94.1737
-72.8409
-37.9693
-37.4035
-39.6954
-36.6729
-36.6015
-36.325
-39.5385
-35.7632
-44.5119
-48.9479
-45.9404
-45.7639
-54.5493
-52.0422
-46.8454
5.77631
1.13258
2.37221
-3.08154
63.7013
-60.6675
-59.0674
-97.093
-50.1169
-30.7466
-29.6138
-31.4765
-29.36
-34.3129
-34.5574
-38.0772
-33.7132
-34.5795
-37.077
-37.6105
-34.7064
-41.4712
-48.7465
-48.9166
-44.0945
-34.7238
-34.4115
-35.0171
-36.0686
-36.615
-37.4026
-37.9877
-36.7055
-39.693
-40.3767
-41.0208
-39.5208
-39.8284
-41.1063
-43.0141
-40.7493
-34.361
-34.6462
-34.8615
-36.4072
-27.0471
-29.0649
-31.2951
-26.9344
-39.054
-39.3043
-38.38
-40.2847
-49.0084
-42.1505
-48.2534
-24.5921
-49.4276
-43.6893
-45.6813
-46.254
-59.3054
-56.8076
-55.9766
-66.8163
-18.5345
2.3729
5.44647
-17.6462
-47.9237
-47.3411
-47.8611
-49.302
-45.6309
-40.1702
-42.9247
-42.7746
-50.0278
-50.7551
-49.6514
-53.637
-58.3339
-60.7485
-61.4799
-58.4433
-41.4582
-48.7926
-48.8801
-44.1052
-39.6797
-40.3685
-41.0124
-39.5052
-35.4718
-34.3588
-34.9838
-36.0026
-36.6311
-37.4201
-37.98
-36.7276
-39.891
-41.2554
-43.2349
-40.8144
-39.0653
-39.3069
-38.3848
-40.2902
-34.3629
-35.8894
-36.1774
-36.4891
-27.0655
-29.1242
-31.3541
-27.0439
-48.9033
-41.8305
-48.3124
-25.3414
-17.071
3.37549
5.61513
-16.4261
-49.4894
-43.7349
-45.7276
-46.3071
-59.3226
-56.8434
-56.0219
-66.8654
-47.8835
-47.3979
-47.7032
-49.2791
-58.3075
-60.7776
-61.4614
-58.429
-45.6002
-40.1756
-42.9244
-42.7298
-50.0187
-50.7785
-49.7333
-53.6562
-145.497
-90.7283
-107.713
-107.464
152.52
193.808
167.562
165.258
-75.9497
-62.8498
-68.6293
-68.6624
192.779
201.684
200.389
200.361
-61.5729
-62.5107
-68.8772
-57.2382
-52.2401
-52.1531
-55.4133
-49.7281
-40.2097
-44.0715
-42.5381
-42.103
-33.5107
-30.7064
-33.3321
-32.0423
-41.6084
-43.9162
-43.447
-43.4565
-34.5224
-32.6685
-33.6132
-33.5472
-48.7602
-49.9951
-47.9446
-52.4759
-41.5769
-41.1575
-40.8439
-42.0228
-39.3846
-29.7659
-35.2267
-35.1332
136.893
168.592
160.966
160.763
-62.8764
-62.6367
-58.3039
-69.7363
-20.3985
-12.9354
-22.2137
-9.45162
-32.1906
-33.7005
-33.0231
-33.0062
-26.9286
-27.7672
-27.6709
-27.7299
-47.6125
-51.1695
-47.0737
-50.9576
-38.936
-37.9095
-40.3356
-36.7389
-145.385
-90.6944
-107.672
-107.435
152.693
193.713
164.877
166.91
-61.5717
-62.5086
-68.8682
-57.2418
-52.297
-52.2029
-55.4795
-49.7927
-40.1039
-44.003
-42.0265
-42.4124
-33.4301
-30.5937
-33.2384
-31.9364
-48.5495
-49.861
-47.8455
-52.3093
-41.3975
-41.0616
-40.8727
-41.8643
-62.3521
-62.6193
-69.6215
-58.2651
-20.4902
-13.039
-9.68551
-22.3618
-47.5519
-51.1062
-50.8367
-46.9886
-38.9162
-37.9111
-36.721
-40.3274
-35.5628
-36.656
-36.3509
-36.2036
-36.1979
-36.8844
-37.0405
-36.6594
-42.511
-50.2095
-45.9473
-45.3846
-39.1775
-39.1904
-38.1711
-40.4865
-44.683
-46.5349
-45.7213
-45.7201
-39.1212
-37.7587
-38.0725
-38.0712
-37.8518
-38.1054
-37.1802
-39.5116
-44.4423
-47.8188
-46.3176
-46.3942
-38.1841
-37.7236
-38.3194
-38.3196
-40.9271
-40.9883
-41.0332
-41.0326
-47.4087
-43.0489
-44.3329
-45.2608
-70.977
-81.8052
-82.9018
-72.986
20.8462
11.2513
16.6848
16.4279
-51.4038
-105.947
-92.6697
-92.708
-69.5141
-74.6844
-71.7043
-71.7077
-52.7836
-44.9659
-49.1478
-49.1899
-35.7155
-36.572
-36.4549
-35.8207
-36.6359
-37.0062
-37.2946
-36.6551
-42.5159
-50.1965
-45.3844
-45.9441
-39.1923
-39.0941
-38.2063
-40.5122
-37.7602
-38.3693
-39.518
-37.2236
-44.4086
-47.7722
-46.2913
-46.3503
-47.3886
-43.0167
-45.3076
-44.3485
-70.9456
-81.8784
-73.0889
-83.1126
-142.379
-105.516
-107.556
-89.1763
-46.8505
-42.2561
-53.5251
-45.8436
-47.8726
-45.3274
-48.8505
-45.742
-142.544
-121.012
-109.311
-91.5777
-142.313
-105.487
-107.513
-89.1455
-142.38
-120.939
-109.321
-91.5251
-47.9047
-45.3512
-48.8784
-45.7554
-46.8434
-42.2646
-53.5192
-45.843
-79.6095
-71.386
-69.4716
-63.7723
-79.7351
-71.4702
-69.5948
-63.8767
-45.2207
-44.3081
-46.3705
-45.5912
-45.1792
-44.3236
-46.3579
-45.5934
-40.8202
-40.547
-34.9805
-33.1893
1.05834
13.0979
3.44699
13.6226
2.43334
13.2568
1.7812
13.2268
-41.0048
-40.649
-35.0071
-33.2196
144.648
155.277
149.239
187.909
118.784
121.277
122.866
142.624
121.225
119.246
142.461
122.935
149.243
145.911
187.935
148.939
-35.7467
-36.389
-36.4966
-36.7933
-35.0735
-34.5682
-35.8777
-35.8
-44.9199
-48.0187
-42.3765
-43.3771
-46.2286
-48.943
-43.8791
-45.737
-35.8113
-36.4352
-36.5775
-36.8538
-46.2446
-48.7791
-43.8949
-45.8374
-45.039
-48.0923
-42.4081
-43.4554
-35.1905
-34.6558
-35.8869
-35.861
-37.2542
-38.4262
-37.294
-37.8031
-38.3998
-37.2142
-37.787
-37.248
-37.6167
-37.4105
-38.0449
-37.2482
-37.4196
-37.6186
-37.2627
-38.0516
-92.2192
-53.7862
-98.2282
-87.0249
-61.0428
-64.4705
-67.4714
-69.0163
-64.4838
-61.0211
-69.0538
-67.4282
-53.6122
-92.4026
-86.7046
-98.1633
-45.5321
-46.0428
-46.2823
-46.1197
-41.9616
-44.391
-43.9924
-48.8154
-39.3856
-40.1145
-41.1816
-42.7396
-48.4447
-45.4024
-51.2897
-43.8254
-45.5863
-46.041
-46.2741
-46.1127
-48.4608
-45.3455
-51.3231
-43.7886
-39.3045
-40.0412
-41.0916
-42.6536
-41.846
-44.3343
-43.9214
-48.6206
-40.8471
-40.7919
-41.0345
-41.0037
-40.8654
-40.7973
-41.0346
-41.0059
-42.3377
-44.5425
-43.8133
-44.5075
-42.3705
-44.5967
-43.8423
-44.5529
-50.7309
-53.8996
-46.0407
-50.0954
-32.5876
-33.8466
-33.4223
-34.372
-32.5431
-33.8189
-33.3526
-34.3536
-50.721
-53.832
-46.0473
-50.0376
-35.5896
-35.615
-35.4072
-34.8139
-35.5873
-35.5411
-34.7647
-35.3519
-30.5733
-32.0099
-29.6044
-30.9688
-32.1299
-30.73
-31.089
-29.7635
-67.6423
81.8286
-120.356
-13.4463
-105.437
-99.9005
-40.239
-36.5184
-40.5403
-36.7196
-42.1624
-42.2843
-31.2823
51.9043
-52.921
0.243501
-31.9817
-49.7458
-37.4607
-33.7105
-31.7808
-32.0406
-35.7943
-32.9062
-120.454
-12.5919
-67.6729
81.8995
-105.303
-99.8737
-40.4861
-36.6671
-40.1277
-36.4692
-42.1053
-42.2451
-52.6075
0.354232
-31.1532
51.9668
-31.9088
-49.694
-31.7348
-31.9342
-37.3645
-33.602
-35.7307
-32.8607
-38.9738
-40.682
-35.2231
-37.2831
-37.3299
-35.8888
-39.9859
-38.4125
-45.5367
-40.8318
-32.393
-36.0464
-30.5512
-29.3379
-37.7003
-40.859
-53.7304
-48.6564
-53.5333
-52.9015
-56.4851
-73.5008
-31.2655
-72.9248
-47.3435
-49.6731
-47.9041
-47.0936
-48.7827
-52.8707
-54.9906
-52.691
-38.9706
-40.6688
-39.9725
-38.404
-35.3419
-37.4676
-37.3065
-35.8942
-45.6039
-40.8643
-37.7185
-40.8786
-32.4752
-36.0794
-30.6154
-29.4455
-53.8184
-48.5415
-30.6058
-73.5879
-53.5998
-52.9905
-56.4476
-73.5048
-47.3139
-49.6287
-54.9694
-52.6801
-47.837
-47.1037
-48.6995
-52.8849
-18.5334
74.3595
-0.969664
69.4756
-125.46
-132.53
134.256
143.613
-100.481
-61.0046
-100.706
-60.1741
-85.938
-86.0016
110.05
110.304
-69.9362
-59.3794
-51.9307
-47.7241
-67.2452
-55.8854
-55.4612
-49.7057
-39.1727
-35.5363
-38.0171
-34.3671
-39.394
-39.073
-34.5366
-34.1028
-39.153
-36.039
-39.128
-35.9955
-40.33
-40.3322
-34.9316
-34.8972
-59.2754
-44.7468
-44.565
-41.104
-46.7312
-51.2399
-41.5093
-42.8115
-41.5516
-49.9383
-40.6819
-38.9835
-39.1522
-39.5007
94.5358
94.5429
-88.2374
-45.8044
-51.9281
-28.5821
-57.1903
-71.7061
-31.7768
-22.2901
-31.5
-27.0642
-31.4904
-26.9782
-31.5412
-31.5316
-26.0089
-26.084
-40.6055
-37.3644
-47.3529
-47.2208
-43.7583
-47.4008
-42.1938
-38.023
-18.2589
73.4689
-0.813186
69.5468
-125.461
-132.771
143.91
135.359
-69.9385
-59.4269
-51.9771
-47.7786
-67.2374
-55.916
-55.5221
-49.753
-39.0836
-35.493
-37.9237
-34.2942
-38.9739
-39.2686
-34.4543
-34.0152
-59.1994
-44.6744
-44.9085
-41.2409
-46.6368
-50.9905
-41.5117
-42.5022
-88.5286
-45.782
-51.818
-28.3675
-71.3508
-57.0437
-22.1199
-31.8236
-40.5588
-37.3405
-47.4298
-47.2083
-47.3299
-43.7045
-38.0085
-42.1767
-34.9101
-36.4931
-35.1035
-35.7454
-35.2255
-35.1515
-36.2911
-35.9586
-38.5445
-37.5269
-41.6774
-41.8638
-40.2499
-41.1618
-38.1347
-40.3887
-41.3443
-40.0718
-41.3415
-40.0644
-43.0188
-43.02
-40.0759
-40.0715
-32.8407
-28.8567
-38.8373
-38.6269
-35.465
-38.0744
-35.6854
-36.2895
-38.6237
-40.4315
-38.625
-40.4328
-38.1044
-38.098
-40.8617
-40.8623
-54.423
-62.372
-50.9437
-55.4232
-49.6109
-51.1327
-67.3245
-61.6759
13.3019
-9.29743
13.4789
-9.14886
19.3268
19.2333
-24.1123
-23.6975
-63.6594
-58.8894
-63.6673
-58.877
-66.7111
-66.7103
-56.1781
-56.1776
-34.904
-36.1047
-30.0728
-35.593
-35.7912
-32.1686
-36.69
-35.8982
-38.5534
-37.5556
-41.703
-41.9065
-41.181
-40.257
-38.166
-40.4205
-32.9038
-28.9081
-38.8584
-38.6325
-38.209
-35.455
-35.6903
-36.2679
-54.4632
-62.4183
-51.0688
-55.46
-51.0952
-49.5819
-61.718
-67.4051
-78.8961
-79.2728
-69.9608
-57.8374
-58.006
-69.9933
-55.3919
-55.5528
-78.87
-79.2431
-69.9472
-57.8319
-69.942
-57.9909
-55.5321
-55.3825
-58.7007
-58.7218
-55.1386
-49.735
-55.1789
-49.7599
-47.5636
-47.5569
-23.384
-23.3664
-17.4774
-4.66191
-4.63042
-17.5534
3.96836
3.92096
197.983
185.458
200.717