# vtk DataFile Version 2.0
tri_press
ASCII
DATASET UNSTRUCTURED_GRID
POINTS 3682 float
-0.719633 0.265 -2.075
-0.695 0.305 2.10951
-0.715 0.823248 -1.915
-0.695 1.0508 2.135
0.719636 0.265 -2.075
0.695 0.305 2.10953
0.715 0.823248 -1.915
0.695 1.0508 2.135
-0.788278 0.201477 -0.680164
-0.775161 0.219716 0.714673
-0.812392 1.00316 -0.565
-0.787151 1.06043 0.785
0.787394 0.202363 -0.680157
0.775145 0.219734 0.714687
0.8124 1.00317 -0.565
0.787176 1.06046 0.785
-1.50283 -0.159827 -3.22744
-1.50575 -0.122643 -2.12953
-1.54957 -0.163639 -0.733534
-1.53723 -0.168407 0.671486
-1.47782 -0.109909 2.06824
-1.46277 -0.0683401 3.16988
-1.46837 -0.0352598 4.26462
-1.4988 0.186331 -3.16356
-1.50216 0.249921 -2.07055
-1.5624 0.227113 -0.683277
-1.53564 0.228253 0.70803
-1.4505 0.281856 2.09616
-1.44418 0.321947 3.19716
-1.45862 0.354825 4.29337
-1.49736 0.830464 -3.02322
-1.50324 0.892558 -1.92835
-1.57822 1.00786 -0.571643
-1.54617 1.04858 0.781885
-1.45369 1.05656 2.13945
-1.44636 1.09423 3.2423
-1.46061 1.1323 4.34574
-1.5087 1.92342 -2.84642
-1.51717 2.00304 -1.75826
-1.54551 2.13456 -0.416094
-1.55204 2.22565 0.916409
-1.52867 2.26247 2.25904
-1.50991 2.28537 3.34818
-1.50111 2.31391 4.44671
-0.744402 -0.152702 -3.23033
-0.730983 -0.112056 -2.13375
-0.773326 -0.176083 -0.732965
-0.778451 -0.175539 0.677159
-0.738716 -0.0987308 2.07816
-0.725852 -0.060776 3.17661
-0.728887 -0.0318919 4.26852
-0.74362 0.185743 -3.16445
-0.708762 0.329963 3.20271
-0.720801 0.357986 4.29631
-0.741301 0.802433 -3.01767
-0.710073 1.09412 3.24141
-0.722349 1.13275 4.34555
-0.741632 1.90471 -2.84093
-0.742629 1.98562 -1.75222
-0.76889 2.13121 -0.412452
-0.78702 2.23018 0.915974
-0.77803 2.26437 2.25593
-0.763376 2.28544 3.34506
-0.754574 2.31376 4.44445
0.743497 -0.152569 -3.23033
0.756034 -0.111851 -2.13375
0.783895 -0.175481 -0.732959
0.758899 -0.1754 0.67717
0.707689 -0.0986977 2.07817
0.722333 -0.0607309 3.17662
0.737138 -0.0318268 4.26853
0.728886 0.185817 -3.16445
0.721072 0.329992 3.20272
0.737569 0.358041 4.29632
0.730195 0.802478 -3.01767
0.720718 1.09414 3.24142
0.736897 1.1328 4.34556
0.779368 1.9048 -2.84093
0.791498 1.98571 -1.75222
0.787467 2.1313 -0.412451
0.755602 2.23027 0.915976
0.727853 2.26444 2.25593
0.727325 2.28551 3.34506
0.734916 2.31383 4.44446
1.49835 -0.159517 -3.22744
1.51342 -0.122187 -2.12953
1.5532 -0.162788 -0.733523
1.52965 -0.168047 0.671505
1.46705 -0.10979 2.06827
1.4641 -0.0682216 3.1699
1.47771 -0.0351146 4.26464
1.48395 0.186551 -3.16356
1.49477 0.250202 -2.07055
1.55971 0.227997 -0.683268
1.53978 0.22855 0.708047
1.45853 0.281923 2.09618
1.45803 0.322035 3.19718
1.4753 0.354951 4.29339
1.48654 0.830611 -3.02322
1.49826 0.892667 -1.92835
1.5768 1.00818 -0.57164
1.54971 1.04879 0.781891
1.46061 1.05662 2.13946
1.45835 1.09431 3.24231
1.4751 1.13242 4.34575
1.53955 1.92362 -2.84641
1.55433 2.00324 -1.75826
1.5595 2.13477 -0.416091
1.52879 2.22585 0.916414
1.49057 2.26263 2.25905
1.48089 2.28552 3.34818
1.48459 2.31407 4.44672
-0.766303 0.544124 -2.04399
1.51992e-06 0.245634 -2.09437
-0.775257 0.211938 -1.37758
-0.734508 0.6779 2.16176
0 0.292134 2.12239
-0.814414 0.183024 1.41209
0 0.892031 -1.98378
-0.814742 0.964249 -1.24
0 1.0913 2.1755
-0.764903 1.07944 1.46
0.766319 0.544124 -2.044
0.775671 0.211526 -1.37758
0.734599 0.6779 2.16186
0.814592 0.182847 1.41211
0.81474 0.964247 -1.24
0.76501 1.07955 1.46
-0.777199 0.215117 0.0172549
-0.895601 0.602317 -0.622582
-0.00044199 0.225505 -0.68016
-0.887789 0.640075 0.749837
-8.33103e-06 0.227642 0.71468
-0.80045 1.03247 0.11
4.24103e-06 1.36673 -0.565
1.27283e-05 1.53093 0.785
0.777154 0.215164 0.017265
0.895594 0.602764 -0.622578
0.887788 0.640097 0.749843
0.800455 1.03248 0.11
-0.887505 0.573221 -1.30879
0.887503 0.573444 -1.30879
-0.000220235 0.246328 -1.37758
2.12051e-06 1.05451 -1.24
7.59959e-07 0.544124 -2.28812
-0.896861 0.621196 0.0636275
0.896867 0.621431 0.0636325
-0.00022516 0.226995 0.01726
8.48469e-06 1.53124 0.11
-0.880785 0.658987 1.43605
0.880797 0.658998 1.43605
-4.16551e-06 0.230112 1.4121
6.36417e-06 1.34565 1.46
0 0.6779 2.22083
-0.752704 0.404562 -2.06923
-0.359816 0.245644 -2.09436
-0.768767 0.217147 -1.72629
-0.746364 0.49145 2.16725
-0.3475 0.287554 2.12696
-0.793948 0.204771 1.7608
-0.74491 0.683686 -1.98375
-0.3575 0.88023 -1.97198
-0.786008 0.914885 -1.5775
-0.711541 0.86435 2.14517
-0.3475 1.08643 2.17063
-0.737877 1.07305 1.7975
0.359819 0.251676 -2.08832
0.752732 0.404562 -2.06925
0.768936 0.216981 -1.72629
0.3475 0.290507 2.12402
0.74643 0.49145 2.16733
0.793726 0.204994 1.76082
0.3575 0.880158 -1.97191
0.744673 0.683686 -1.98351
0.786016 0.914894 -1.5775
0.3475 1.08648 2.17068
0.711535 0.86435 2.14517
0.737822 1.07299 1.7975
-0.780983 0.207491 -1.02887
-0.778059 0.212977 -0.331454
-0.868725 0.388504 -0.651373
-0.383748 0.234715 -0.680162
-0.817415 0.178743 1.06338
-0.777437 0.21616 0.365964
-0.864907 0.41318 0.732255
-0.377045 0.244759 0.714677
-0.823253 0.993389 -0.9025
-0.889627 0.820552 -0.593791
-0.805499 1.01689 -0.2275
-0.482295 1.33715 -0.565
-0.779847 1.07376 1.1225
-0.882437 0.872738 0.767418
-0.793173 1.04583 0.4475
-0.49627 1.50109 0.785
0.78164 0.206837 -1.02887
0.385774 0.229338 -0.680159
0.777968 0.213069 -0.331446
0.868884 0.388869 -0.651368
0.817408 0.178751 1.0634
0.386319 0.226187 0.714683
0.777408 0.21619 0.365976
0.864918 0.41319 0.732265
0.823213 0.993349 -0.9025
0.482265 1.33708 -0.565
0.889608 0.820771 -0.593789
0.805516 1.01691 -0.2275
0.77955 1.07346 1.1225
0.496251 1.50101 0.785
0.882436 0.872754 0.767422
0.793173 1.04583 0.4475
-0.885225 0.558672 -1.67639
-0.383151 0.544124 -2.2575
-0.000109357 0.251264 -1.73597
1.13994e-06 0.394879 -2.28817
-0.887888 0.392579 -1.34319
-0.387738 0.240629 -1.37758
-0.859604 0.668444 1.7989
-0.367254 0.6779 2.20276
-2.08276e-06 0.241508 1.76724
0 0.485017 2.28466
-0.866591 0.421006 1.42407
-0.407209 0.22431 1.4121
1.06026e-06 0.993255 -1.61189
3.7998e-07 0.718077 -2.19931
-0.889884 0.768735 -1.2744
-0.40737 1.04532 -1.24
3.18209e-06 1.15864 1.81775
0 0.884602 2.19451
-0.872429 0.869216 1.44802
-0.382448 1.32019 1.46
0.885182 0.558784 -1.67639
0.38316 0.544124 -2.25759
0.887882 0.392485 -1.34318
0.387725 0.241517 -1.37758
0.859691 0.668449 1.79896
0.367299 0.6779 2.20268
0.866622 0.420923 1.42408
0.407294 0.212773 1.4121
0.889854 0.768846 -1.27439
0.407371 1.04527 -1.24
0.872424 0.869275 1.44803
0.382508 1.32018 1.46
-0.871702 0.400821 0.0404412
-0.377295 0.24389 0.0172575
-0.89334 0.587769 -0.965686
-0.897317 0.611757 -0.279477
-0.000331112 0.247294 -1.02887
-0.000333575 0.225954 -0.33145
-0.893752 0.630636 0.406732
-0.881632 0.649531 1.09294
-0.000116746 0.226777 0.36597
-6.24827e-06 0.22324 1.06339
-0.890598 0.847806 0.0868137
-0.510094 1.5016 0.11
3.18077e-06 1.20006 -0.9025
6.36286e-06 1.49715 -0.2275
1.06065e-05 1.53775 0.4475
9.54626e-06 1.48657 1.1225
0.871784 0.400911 0.0404487
0.38518 0.227647 0.0172625
0.893377 0.588104 -0.965684
0.897327 0.612097 -0.279473
0.893759 0.630764 0.406738
0.881631 0.649547 1.09295
0.890584 0.847916 0.0868163
0.510084 1.50157 0.11
-0.886522 0.398571 -1.70134
-0.896316 0.397238 -0.99728
-0.889977 0.785736 -0.934093
-0.860354 0.72621 -1.62694
0.886047 0.398523 -1.70134
0.860366 0.726266 -1.62695
0.889918 0.785905 -0.934092
0.896322 0.397524 -0.997276
-0.373777 0.247387 -1.73113
0.373772 0.246387 -1.73113
0.390601 0.233683 -1.02887
-0.391049 0.244295 -1.02887
-0.382435 0.986155 -1.5947
-0.406782 1.18781 -0.9025
0.406787 1.18791 -0.9025
0.382436 0.986133 -1.5947
-0.371483 0.399721 -2.26104
-0.370325 0.700882 -2.17186
0.37033 0.700882 -2.17093
0.371489 0.399721 -2.26105
-0.870961 0.394289 -0.305466
-0.869441 0.406432 0.386348
-0.887524 0.860775 0.427116
-0.891195 0.834721 -0.253489
0.871075 0.394519 -0.305459
0.89118 0.834885 -0.253487
0.887505 0.860833 0.427119
0.869469 0.406491 0.386357
-0.382676 0.234993 -0.331452
0.38538 0.228686 -0.331448
0.385742 0.226933 0.365973
-0.377148 0.244368 0.365967
-0.517136 1.46126 -0.2275
-0.506735 1.50845 0.4475
0.506738 1.50843 0.4475
0.517129 1.46123 -0.2275
-0.869674 0.425451 1.07816
-0.851977 0.456228 1.77985
-0.836297 0.866783 1.7982
-0.879195 0.859735 1.10772
0.869708 0.425419 1.07817
0.879204 0.859776 1.10772
0.836289 0.866812 1.79823
0.851819 0.456186 1.77989
-0.397397 0.215231 1.06339
0.397431 0.199562 1.06339
0.377397 0.220055 1.76403
-0.377355 0.230975 1.76402
-0.388009 1.46156 1.1225
-0.364974 1.14454 1.80763
0.365004 1.14447 1.80763
0.388051 1.46164 1.1225
-0.357377 0.488233 2.2707
0.3574 0.488233 2.27069
0.3574 0.874476 2.20532
-0.357377 0.874476 2.20534
-0.729282 0.334781 -2.06523
-0.539724 0.242947 -2.09705
-0.765819 0.219455 -1.90065
-0.727421 0.398225 2.14512
-0.52125 0.288819 2.12569
-0.729657 0.269703 1.93516
-0.733866 0.753467 -1.95329
-0.53625 0.858662 -1.95041
-0.760934 0.879497 -1.74625
-0.706006 0.957575 2.14282
-0.52125 1.07877 2.16297
-0.718831 1.06432 1.96625
0.539727 0.244245 -2.09576
0.7293 0.334781 -2.06524
0.765848 0.219428 -1.90064
0.52125 0.288865 2.12566
0.727451 0.398225 2.14516
0.728432 0.270928 1.93517
0.53625 0.858629 -1.95038
0.733898 0.753467 -1.95332
0.760886 0.879449 -1.74625
0.52125 1.0788 2.163
0.706029 0.957575 2.14285
0.718825 1.06431 1.96625
-0.776146 0.212969 -0.854518
-0.77608 0.214316 -0.505809
-0.8316 0.293441 -0.665768
-0.577029 0.236065 -0.680163
-0.774285 0.221233 0.889028
-0.776521 0.217717 0.540319
-0.833406 0.309762 0.723464
-0.570565 0.243313 0.714675
-0.816841 0.997291 -0.73375
-0.863736 0.918218 -0.579396
-0.809914 1.01099 -0.39625
-0.695368 1.2662 -0.565
-0.785017 1.06861 0.95375
-0.85455 0.976464 0.776209
-0.790612 1.05358 0.61625
-0.669569 1.33648 0.785
0.776082 0.213035 -0.854512
0.58393 0.221159 -0.680158
0.775964 0.214434 -0.505801
0.83203 0.293671 -0.665762
0.774282 0.221237 0.889042
0.581174 0.222076 0.714685
0.776494 0.217744 0.540331
0.833409 0.309773 0.723476
0.816928 0.997379 -0.73375
0.695372 1.2662 -0.565
0.863701 0.918317 -0.579395
0.809914 1.01099 -0.39625
0.785019 1.06862 0.95375
0.669576 1.33646 0.785
[...]
POINT_DATA 3682
SCALARS point_scalars float 1
LOOKUP_TABLE default
-75.94
-42.1801
-32.9807
-41.8085
-75.2714
-41.3924
-33.1439
-41.6912
-38.646
-33.1887
-62.9676
-51.7777
-44.8718
-33.1308
-62.9387
-51.8312
5.35785
-80.1588
-41.0224
-35.7214
-57.4543
-39.5101
-37.1158
49.1243
-71.6765
-42.007
-38.1615
-46.0027
-38.8719
-37.1081
47.5537
-74.9776
-53.7734
-47.5332
-45.5572
-40.9628
-37.819
-30.514
-54.1035
-92.1795
-63.7002
-42.842
-41.4227
-41.4227
-6.64185
-158.558
-35.9126
-34.7552
-42.5795
-38.0328
-35.415
140.065
-36.0878
-35.7383
150.999
-38.5424
-37.5062
-15.4864
-27.6572
-95.4999
-66.3854
-40.9514
-39.622
-39.4446
-17.4112
-110.828
-46.1406
-34.0032
-42.3531
-37.2198
-35.0076
135.746
-35.8069
-35.4019
156.305
-38.475
-36.8081
-15.1555
-30.3477
-94.7728
-66.6885
-40.9032
-39.4438
-39.3847
3.65061
-79.863
-42.6651
-35.6356
-57.6185
-39.1405
-36.7882
49.7404
-71.5463
-42.3874
-38.1357
-45.8607
-39.0436
-37.0364
47.5566
-74.9165
-53.7657
-47.5476
-45.4865
-40.8056
-37.6316
-30.7056
-54.3797
-92.7751
-63.684
-42.7315
-41.3114
-41.3114
-36.2821
-155.027
-54.0048
-39.8852
-33.2011
-45.15
-28.0889
-51.3345
-41.085
-52.435
-35.8514
-53.6389
-39.7069
-45.4396
-51.3555
-52.4295
-37.3879
-45.9747
-41.7664
-42.3541
-37.9323
-55.6033
-29.7824
-69.6667
-37.3438
-46.0588
-42.3551
-55.5588
-59.5584
-59.5213
-57.6231
5.35272
203.017
-43.4858
-43.441
-37.421
-92.3483
-49.136
-49.1344
-42.2744
-46.9775
-31.785
-26.5476
-149.471
-76.9698
-40.3168
-36.947
-57.5811
-33.0985
-33.5735
-50.5245
-40.1841
-39.9087
-46.2657
-142.14
-25.9923
-76.5106
-36.5872
-39.9737
-57.7067
-33.5554
-32.7925
-50.5103
-39.9021
-40.0237
-46.2366
-41.3713
-38.3357
-41.4589
-41.523
-45.5536
-36.9022
-37.9457
-35.4897
-66.0384
-52.1937
-59.4434
-40.8442
-52.3468
-46.391
-53.277
-66.9108
-38.7098
-42.4889
-36.4981
-41.7563
-46.027
-34.805
-36.7839
-37.9245
-65.8917
-40.5873
-52.2084
-59.3991
-52.3553
-66.8855
-46.4107
-53.2809
-92.1749
185.92
-80.9265
111.762
-58.3072
-56.0815
-49.7994
-36.001
-42.8782
-24.9129
-48.9935
-43.0481
-19.4246
143.418
-61.3175
-2.20011
-42.0746
-33.7112
-50.7175
-47.927
-91.9787
186.286
-58.1608
-55.5175
-49.714
-35.7242
-49.0846
-42.8742
-61.3136
-2.5885
-50.708
-47.9284
-40.0909
-37.4724
-51.5924
-44.421
-44.0969
-39.2584
-42.8983
-44.115
-36.7954
-41.0068
-47.2707
-81.4333
12.8817
-102.625
-77.5853
-58.9324
-40.0118
-37.1826
-51.7782
-44.3694
-42.8781
-44.1353
-47.2367
-81.4036
-92.2293
-55.0037
-54.1901
-71.64
-91.753
-71.598
-54.253
-55.3354
-78.1325
-78.4666
-41.5427
-41.65
-22.6899
3.31487
3.30328
-22.6451
152.802
122.632
123.033
151.594
-40.3922
-39.6415
-46.7854
-50.0839
-40.2133
-50.0562
-46.7755
-39.5892
-39.0442
-38.6471
-36.4177
-36.3573
-93.7219
-69.6822
-69.6697
-93.6368
-44.8
-50.8408
-48.6072
-46.4014
-44.8604
-46.3774
-48.5332
-50.7687
-41.5964
-42.3993
-45.9739
-46.9733
-59.4963
-42.7851
-42.7798
-59.5181
-33.9742
-33.5623
-37.1423
-37.2777
-34.7909
-152.8
-98.2903
-40.6872
-40.0421
-43.477
-28.498
-30.2887
-53.3226
-40.9376
-39.4999
-43.7854
-145.62
-34.1133
-97.6991
-39.2339
-40.2612
-43.6042
-30.3692
-28.4647
-53.1637
-39.435
-40.7808
-43.7303
-46.8379
-39.3686
-40.4582
-40.1533
-25.6215
-35.9272
-35.6383
-35.9276
-65.3517
-57.0255
-61.5051
-88.6901
-52.1832
-49.4643
-52.4097
-58.768
-47.6464
-42.7312
-38.3919
-40.9672
-25.2023
-34.7735
-35.9579
-35.6245
-65.3293
-88.6628
-57.0151
-61.4447
-52.225
-58.7569
-49.5044
-52.44
-30.4792
-36.5746
-71.2523
125.751
-157.809
-156.423
-104.197
108.09
-63.1875
-48.148
-57.2819
-54.9737
-40.0313
-39.6769
-46.4961
-37.6838
-34.2039
-34.1543
-38.7616
-26.6445
-50.706
-43.8505
-48.441
-43.8072
-29.0919
-29.0721
-26.1961
34.6672
-51.3769
-58.4405
-59.0496
-18.11
-40.7669
-40.7794
-41.4673
-37.1353
-49.3382
-52.9488
-51.0767
-50.0012
-30.0915
-35.9388
-71.1852
126.103
-62.9941
-46.2282
-57.0135
-54.4582
-39.7775
-39.4991
-46.3316
-37.6637
-51.0196
-44.1239
-48.5607
-43.9737
-51.4236
-58.3771
-59.0567
-18.4088
-49.3154
-52.9693
-51.0756
-49.9976
-37.8803
-37.2326
-39.0408
-37.2041
-43.642
-48.5504
-47.4795
-44.933
-41.5816
-42.0351
-46.1537
-40.7874
-40.4369
-44.1793
-42.461
-42.9412
-37.7702
-36.8668
-36.9237
-35.7347
-57.2513
-55.0578
-51.3874
-65.7233
-31.4689
-31.1204
-5.10831
-61.8251
-69.3008
-69.2832
-73.337
-65.1246
-38.0207
-37.1936
-38.963
-37.1604
-43.7942
-48.5971
-47.6094
-44.9228
-40.4301
-44.188
-42.439
-42.9544
-57.25
-55.037
-51.2281
-65.7011
-72.19
-58.4892
-60.5673
-56.0372
-72.0872
-58.4132
-60.5415
-56.0794
-67.1523
-57.2644
-57.1614
-50.235
-8.18939
3.62987
3.88298
18.173
202.358
197.378
166.23
202.437
-41.7686
-44.0394
-43.2554
-45.2879
-41.7057
-43.9892
-43.2208
-45.2533
-37.3901
-38.1694
-36.9841
-37.3548
-90.7817
-102.325
-83.6648
-90.7998
-50.155
-49.0532
-49.9046
-46.7124
-50.1715
-49.0799
-49.9003
-46.727
-43.1219
-42.3039
-42.4888
-42.107
-43.9562
-47.2297
-47.2263
-51.7204
-33.5464
-29.5727
-33.1246
-33.3595
-69.3864
105.859
-101.597
90.7508
-88.6828
-75.3952
-46.3476
-36.4001
-40.6236
-33.8149
-53.3014
-49.8366
-73.3753
78.0991
-29.0449
29.0407
-65.6337
-30.0999
-46.0969
-37.8355
-41.4255
-38.093
-47.9446
-43.8155
-102.262
84.3882
-69.3488
105.938
-88.3399
-75.0794
-41.96
-33.2989
-46.1814
-36.1164
-52.9025
-51.7759
-29.0103
28.1197
-73.0932
78.1619
-65.5994
-29.9868
-41.4145
-38.0042
-45.9656
-37.6935
-47.8789
-43.8041
-56.4855
-40.3384
-39.0114
-39.3817
-43.8157
-40.6614
-47.0308
-40.1267
-47.4566
-42.8456
-38.4385
-36.2743
-38.8687
-37.9283
-36.1569
-35.4213
-58.2813
-21.7693
-53.0536
-51.0279
-55.1287
-76.4078
-16.7665
-62.7263
-49.1804
-61.5162
-46.2746
-46.9166
-50.1999
-59.3838
-67.9973
-65.3502
-56.9074
-38.4185
-48.0114
-40.2307
-38.705
-37.4668
-44.3228
-40.5492
-47.5598
-43.2422
-36.0406
-34.9666
-38.3798
-36.1542
-38.8263
-37.9645
-58.3094
-21.8659
-16.8555
-62.9287
-53.1089
-51.0162
-55.0849
-76.3959
-49.0348
-61.4731
-67.9525
-65.351
-46.2816
-46.9417
-50.2074
-59.3651
-93.8738
-80.2889
181.35
144.476
-80.2177
-80.2641
134.286
133.047
-71.7577
-54.0095
-64.6814
-48.8394
-50.1122
-49.4206
-35.5899
-36.4653
-43.1287
-44.0248
-28.7454
-28.4228
-46.4109
-50.5163
-42.7452
-45.0492
-19.8781
-19.8779
140.041
139.334
-57.6939
-69.5134
-14.259
9.67967
-42.2615
-42.2687
-34.5595
-34.6871
-50.5187
-48.8159
-52.6475
-44.8098
-93.4618
-80.1922
143.551
181.079
-71.6224
-53.9945
-64.8121
-48.2507
-49.3372
-50.0723
-35.0827
-36.268
-46.4787
-50.6141
-43.0243
-48.4323
-69.4593
-57.7471
9.67991
-14.2292
-48.8179
-50.4885
-44.8105
-52.6307
-40.3727
-39.9516
-38.1523
-36.6386
-52.5399
-52.4703
-42.3296
-46.8166
-43.5158
-43.5937
-39.2011
-39.0885
-41.1861
-44.5636
-44.0514
-45.0973
-36.7253
-36.6747
-41.1753
-41.7107
-47.5882
-49.8313
-93.3969
-74.3075
10.9296
10.9259
-99.4368
-99.2874
-76.0688
-76.0673
-58.9087
-58.9504
-40.2579
-39.9047
-37.7841
-36.732
-52.5618
-52.7791
-42.237
-46.7849
-44.5562
-41.1479
-44.0808
-45.1028
-49.8349
-47.5851
-74.293
-93.3779
-74.4033
-70.6043
-71.783
-71.1657
-42.843
-45.4409
-55.3629
-51.9906
-58.0063
-58.9449
-56.4721
-49.8465
-71.8465
-72.0583
-73.2987
-61.4946
-74.116
-71.2161
-71.6574
-70.3802
-71.6743
-61.4799
-73.2197
-71.9612
-57.9967
-49.9713
-56.5044
-58.8842
-43.96
-51.8176
-55.3968
-45.6846
-101.408
-103.698
-66.6443
-62.7634
-101.704
-62.1219
-66.6163
-103.437
-49.2621
-46.7617
-49.7469
-46.0954
-46.5966
-47.5879
-49.8639
-46.2584
-35.1386
-24.3003
-9.50244
-26.6811
-75.5639
-8.1726
15.8483
-9.2134
-75.4342
-9.41933
15.8267
-8.2823
-34.9709
-26.6662
-9.5516
-24.1778
80.2576
127.068
188.371
103.574
34.4338
32.6375
163.96
100.018
34.5183
100.52
164.367
32.9774
80.4062
104.292
187.933
127.341
-39.2034
-39.0056
-42.1119
-42.7266
-37.6239
-40.7594
-41.5391
-38.7999
-49.6154
-51.3933
-45.0468
-44.1434
-55.8211
-47.4791
-46.1664
-54.5461
-39.0262
-42.6937
-42.0315
-38.8893
-55.8001
-54.6003
-46.1376
-47.4727
-49.6379
-44.1302
-45.0181
-51.3928
-37.5556
-38.7363
-41.5072
-40.7314
-40.706
-40.583
-38.1756
-37.9046
-40.0994
-37.8558
-38.0352
-40.6482
-35.576
-36.6042
-36.913
-36.6458
-35.8685
-36.6964
-36.8781
-36.7714
-82.4818
-70.7572
-99.9163
-58.7001
-58.23
-72.2858
-81.9149
-62.9533
-58.2103
-62.9253
-81.8949
-72.2806
-82.524
-59.3834
-99.9477
-70.7514
-30.1369
-46.1642
-46.4031
-40.9761
-45.0432
-46.6228
-49.9224
-52.0782
-45.4393
-49.8832
-50.7427
-46.4471
-49.0071
-44.4504
-47.2471
-50.9086
-30.1823
-40.9966
-46.4438
-46.2794
-49.2099
-50.9143
-47.2519
-44.4619
-45.338
-46.2981
-50.7255
-49.848
-44.9636
-52.29
-49.8899
-46.4516
-34.4201
-35.5762
-42.2682
-43.1485
-33.8225
-43.7167
-42.5326
-35.6047
-43.9726
-39.8607
-44.2569
-47.2925
-42.3602
-46.7354
-43.5875
-39.2488
-57.7311
-55.6294
-51.9065
-65.1146
-41.8117
-41.4484
-44.1475
-46.293
-41.7906
-46.2849
-44.1546
-41.447
-57.753
-65.1103
-51.8982
-55.6172
-36.6873
-29.1594
-32.7656
-36.7971
-36.1389
-36.577
-32.518
-28.8955
-38.0914
-37.5474
-34.0972
-37.3385
-38.2109
-37.5071
-34.2607
-37.5995
-39.1073
-132.734
-99.0814
-41.5448
-41.2565
-43.0878
-29.4505
-27.5646
-51.0805
-41.7268
-40.5542
-42.7988
-128.618
-38.4653
-97.9365
-39.9869
-40.9822
-42.5486
-25.9663
-29.4427
-50.7989
-40.4415
-41.5901
-42.7185
-37.2491
-44.201
-41.275
-35.3926
-31.698
-35.0255
-34.4452
-34.5221
-64.2362
-60.3853
-62.2579
-73.3093
-51.7151
-51.0597
-52.1226
-54.2949
-42.4874
-47.662
-42.8472
-42.4128
-31.5324
-33.4678
-34.7976
-34.4576
-64.2204
-73.3057
-60.3648
-62.2338
-51.7739
-54.3103
-51.1083
-52.1669
-32.8368
-37.1992
-59.3314
54.6968
-155.134
-157.305
-125.393
51.7794
-57.7438
-50.1117
-56.1134
-53.8903
-39.9532
-39.8377
-44.7171
-38.223
-33.4387
-33.4296
-35.9858
-28.9083
-47.4334
-43.9647
-47.068
-44.3768
-28.5179
-28.5202
-28.7407
-34.3138
-50.0545
-54.627
-57.2317
-34.1694
-41.009
-41.0182
-41.3208
-38.5961
-50.8052
-52.6338
-51.7175
-52.5121
-32.3993
-36.71
-59.2825
54.8864
-57.3962
-48.969
-55.5416
-54.0061
-39.7419
-39.6553
-44.5006
-38.0626
-47.7532
-44.2207
-47.2039
-44.8773
-50.1319
-54.637
-57.2745
-34.6648
-50.8144
-52.6275
-51.7051
-52.5944
-37.6716
-36.9637
-38.0024
-38.2291
-44.8084
-47.1236
-46.6927
-45.3172
-41.7752
-41.939
-42.1862
-41.6911
-41.5237
-43.2651
-42.2939
-42.541
-37.9212
-37.731
-37.2189
-37.1645
-56.2221
-55.1557
-54.8572
-59.8912
-30.7925
-30.6322
-15.7532
-44.0853
-69.6
-69.5889
-71.5274
-67.6067
-37.7084
-36.9476
-37.9348
-38.2866
-44.9211
-47.189
-46.837
-45.3475
-41.5206
-43.2698
-42.2867
-42.5494
-56.1777
-55.1204
-54.8344
-59.8604
-65.0965
-58.8453
-59.8684
-57.4239
-65.0202
-58.7889
-59.8363
-57.4224
-62.0142
-57.5205
-57.4543
-53.6714
-2.10321
4.92421
5.12945
12.4967
205.3
205.598
188.769
205.341
-42.6765
-43.7055
-43.3206
-44.3372
-42.6271
-43.6592
-43.2764
-44.298
-37.429
-37.807
-37.1328
-37.4037
-92.0022
-97.8953
-87.5834
-91.9821
-49.8734
-49.1014
-49.2484
-48.077
-49.8367
-49.1045
-49.2445
-48.0897
-42.7184
-42.2753
-42.3912
-41.8363
-45.3407
-47.0506
-47.0468
-48.8654
-32.3732
-32.4184
-32.6474
-32.26
-31.9895
-27.0037
-74.0517
58.0683
-145.463
-154.832
-122.109
15.4921
-90.236
-71.799
-85.4384
-74.4863
-40.6777
-40.0418
-44.411
-37.1611
-38.4919
-35.3564
-38.5619
-34.7139
-47.6832
-57.712
-55.951
-54.451
-28.4283
-32.4854
-65.1034
30.589
-30.6201
-30.9295
-32.2159
-14.3224
-54.302
-53.6489
-61.7263
-36.5511
-40.2947
-39.8335
-44.6254
-38.0645
-39.5146
-40.3882
-40.5933
-38.5666
-44.8776
-47.4524
-47.0994
-44.9264
-134.271
-153.571
-120.889
3.56307
-31.37
-26.5677
-73.7652
58.6713
-89.6922
-71.6444
-84.8966
-73.9481
-37.7418
-35.2107
-39.2329
-34.085
-40.3101
-39.7759
-44.1421
-36.8921
-47.9812
-58.0231
-55.8818
-55.1912
-30.7884
-30.9379
-32.1002
-14.431
-28.3574
-31.9197
-64.917
30.6712
-54.2238
-53.7063
-61.7064
-36.4095
-39.4845
-40.3957
-40.5755
-38.536
-40.1462
-39.6659
-44.4539
-37.9164
-44.8393
-47.4505
-47.0512
-44.9075
-50.9136
-45.3756
-55.0607
-37.5493
-38.1396
-38.1108
-38.4777
-38.1248
-40.5301
-42.5175
-42.5961
-40.9898
-41.3419
-41.4154
-43.1283
-40.6551
-30.0174
-45.206
-47.1365
-43.7315
-36.2984
-37.0959
-37.6581
-35.7016
-36.5461
-39.3379
-38.3494
-37.6753
-35.4451
-36.9793
-36.0226
-35.271
-67.9394
-63.6144
-62.7096
-55.4913
-54.4432
-50.0876
-52.4724
-51.6311
-60.5003
-58.4851
-58.1441
-66.0376
-57.3402
-34.6419
-29.0027
-51.9926
-52.4241
-52.7036
-52.3211
-57.336
-47.7298
-45.2357
-46.2234
-46.3835
-52.7259
-54.3088
-52.075
-55.739
-63.8034
-68.3596
-67.829
-67.0226
-55.6363
-43.6515
-54.7221
-33.2613
-42.5303
-42.4303
-44.2922
-41.0823
-35.6122
-38.2884
-37.7499
-34.4861
-40.9928
-42.7258
-43.0744
-41.0643
-30.404
-45.179
-47.3172
-44.4322
-34.6978
-34.8983
-35.442
-35.0828
-36.3095
-37.0228
-37.5926
-35.5349
-36.5207
-39.3265
-38.3164
-37.6791
-67.8933
-63.5363
-62.6968
-55.4238
-57.1939
-34.2809
-28.9034
-52.2297
-54.442
-50.1167
-52.501
-51.6317
-60.477
-58.4494
-58.0819
-66.0195
-52.4717
-52.6869
-52.273
-57.3407
-63.7865
-68.3395
-67.8328
-67.008
-47.7583
-45.2492
-46.2369
-46.4092
-52.7371
-54.3025
-52.0831
-55.7154
-85.0093
-81.8503
-92.3237
-87.5932
161.926
198.21
190.085
178.1
-90.8606
-73.3671
-80.6303
-80.6569
100.026
168.015
120.603
118.823
-58.1515
-58.429
-64.114
-54.6409
-55.4531
-56.7557
-59.9973
-52.2299
-48.5226
-50.0801
-49.8984
-49.7112
-36.6751
-34.7922
-36.24
-36.0814
-40.5318
-43.7836
-42.9815
-43.3711
-25.4437
-26.6325
-25.9143
-25.7133
-49.0077
-48.8951
-47.4098
-49.4423
-43.5325
-42.634
-42.399
-43.9533
-23.7434
-13.9491
-19.5815
-19.586
97.3439
151.231
138.785
138.848
-60.438
-61.2165
-59.9486
-65.0116
-8.60552
1.51057
-10.2314
4.63544
-41.7082
-42.9295
-42.1649
-42.1674
-35.1104
-33.9143
-34.3201
-34.3919
-50.8515
-50.5086
-50.8808
-49.9462
-48.6168
-47.5274
-50.0379
-46.0646
-84.7797
-81.7102
-92.0875
-87.4055
162.209
198.334
176.519
190.15
-57.96
-58.3228
-63.9598
-54.5337
-54.9788
-56.3923
-60.1443
-51.3129
-48.3983
-50.1001
-49.6163
-49.8441
-36.7978
-34.5398
-35.8657
-35.8669
-49.1235
-48.9538
-47.4835
-49.5208
-43.5801
-42.789
-42.2956
-45.1685
-60.3001
-61.1977
-64.941
-59.718
-8.42426
1.70308
4.29587
-10.2209
-50.8438
-50.5003
-49.9391
-50.8631
-48.6163
-47.5249
-46.0658
-50.0424
-39.5051
-41.0009
-40.2151
-39.9964
-37.1342
-37.2352
-38.4654
-36.8094
-49.1468
-53.9733
-51.8959
-51.809
-44.6618
-44.2451
-43.3064
-45.4952
-45.9439
-47.3665
-44.0745
-44.0429
-39.9317
-38.678
-39.2597
-39.2163
-42.6763
-43.0934
-42.0946
-43.6541
-43.6934
-45.2048
-43.7473
-44.7435
-36.8123
-36.8615
-36.7717
-36.7636
-38.1755
-42.2114
-41.0085
-41.176
-48.2065
-46.3026
-47.8515
-48.3325
-73.7003
-87.3814
-87.1935
-77.871
5.99844
17.3605
12.3994
12.3919
-86.5382
-104.986
-101.98
-101.914
-75.3397
-80.3394
-77.2179
-77.2138
-62.3413
-55.204
-58.9694
-58.9792
-39.424
-40.9301
-40.1219
-39.9191
-37.1126
-37.2614
-37.4572
-36.9215
-49.3177
-54.0777
-51.9375
-52.1168
-44.6239
-44.1911
-43.238
-45.4557
-42.6518
-43.0665
-43.6455
-42.0668
-43.7107
-45.22
-43.7715
-44.7567
-48.0839
-46.2687
-48.3699
-47.7244
-73.6725
-87.3475
-77.8413
-87.1431
-79.4447
-92.2949
-92.941
-84.3182
-56.5625
-48.1749
-54.0087
-53.4312
-55.7467
-53.4652
-55.694
-53.2122
-74.3221
-68.2989
-75.7923
-72.1127
-79.2839
-91.8462
-92.452
-84.099
-74.2633
-68.2474
-75.7329
-72.1083
-55.8381
-53.5649
-55.7515
-53.2692
-56.9589
-48.6396
-54.1311
-53.6784
-88.0373
-76.8541
-79.3354
-70.8011
-88.5519
-77.1737
-79.4753
-71.0605
-41.0486
-47.8038
-45.1834
-42.4472
-41.438
-45.8713
-45.6906
-42.6328
-26.1321
-25.4444
-20.861
-18.9107
-4.70872
-4.75018
8.65336
7.7386
-4.85592
-4.78427
8.76481
7.74853
-26.0968
-25.3719
-20.8532
-18.8813
139.425
130.097
170.28
146.894
98.0704
92.0598
119.434
134.441
92.1004
98.4967
133.192
120.222
129.641
138.889
145.662
169.696
-39.6338
-40.4946
-40.3672
-41.3744
-39.0316
-39.3052
-39.8254
-40.4679
-46.5538
-48.353
-45.6012
-47.0835
-50.5643
-52.1942
-48.2903
-49.7973
-39.3875
-40.3092
-40.2233
-41.2486
-50.5461
-52.1594
-48.2629
-49.7699
-46.5502
-48.3453
-45.5945
-47.0761
-38.9765
-39.258
-39.7893
-40.4199
-39.1417
-39.5373
-38.5642
-39.0894
-39.328
-38.3112
-38.8879
-38.133
-36.2824
-36.2012
-36.6417
-36.5492
-36.2411
-36.2537
-36.4899
-36.4759
-94.0526
-78.6843
-94.8145
-95.368
-64.3516
-69.0246
-71.8939
-74.0782
-69.0101
-64.3376
-74.0753
-71.8894
-78.6912
-93.9411
-95.1777
-94.7902
-45.743
-42.8105
-45.5468
-44.4136
-48.4624
-51.6435
-50.4695
-51.902
-47.5095
-48.3289
-48.8953
-49.6688
-46.4619
-46.269
-47.8957
-45.6552
-45.8248
-42.8677
-45.61
-44.461
-46.4211
-46.2548
-47.8883
-45.6489
-47.4129
-48.2583
-48.8195
-49.6165
-48.3288
-51.6627
-50.3993
-52.019
-41.8952
-38.339
-43.0097
-41.4169
-42.6412
-38.4017
-44.5854
-42.0945
-43.0883
-48.1273
-43.9615
-44.3555
-43.09
-48.4183
-45.6586
-46.5597
-60.7914
-62.6965
-56.2119
-59.3577
-42.1441
-43.2359
-42.5113
-43.6846
-42.1396
-43.2197
-42.5117
-43.6826
-60.5639
-62.6994
-56.2473
-59.3692
-35.654
-33.6999
-34.5142
-31.5578
-33.2614
-35.3044
-31.1583
-34.1289
-37.7971
-37.611
-35.8075
-36.6901
-37.749
-37.9091
-36.8583
-35.9421
-68.6518
63.5001
-125.321
-21.2337
-86.5233
-102.712
-43.6518
-37.8358
-40.7266
-38.248
-44.312
-42.9645
-62.9005
15.9843
-35.5403
-11.511
-65.0774
-40.9113
-44.7745
-38.6732
-40.6881
-38.4977
-44.9714
-42.3996
-123.475
-19.8764
-68.3303
65.8339
-86.0358
-102.266
-41.4953
-37.2945
-43.3705
-37.3868
-44.2521
-43.9966
-35.4439
-9.40482
-62.6526
16.0561
-64.921
-40.7557
-40.6572
-38.3964
-44.6394
-38.5378
-44.8817
-42.3652
-44.791
-47.504
-38.779
-41.3601
-42.2428
-39.9382
-40.7427
-40.4795
-24.8777
-31.8422
-36.8685
-35.2685
-36.6345
-34.0602
-35.7312
-35.5134
-61.7451
-79.1275
-57.7347
-56.4007
-59.3328
-69.3366
-85.4523
-90.1567
-51.0004
-54.1904
-49.3581
-49.4809
-51.393
-54.7369
-58.1881
-57.9639
-46.2429
-46.732
-44.0254
-41.6081
-38.164
-40.6556
-43.3251
-39.8212
-25.1677
-32.0269
-35.0953
-34.4367
-36.7892
-35.8461
-36.5763
-34.0604
-61.7239
-79.0338
-85.1715
-90.2175
-57.7267
-56.3842
-59.3152
-69.3322
-51.0661
-54.2106
-58.1708
-57.9662
-49.3868
-49.538
-51.4178
-54.7342
-68.9834
62.2644
-60.6799
42.4746
-71.7694
-71.3481
131.021
120.568
-124.865
23.8834
-124.35
27.6518
-103.994
-103.92
65.3269
69.1872
-68.5266
-62.1481
-50.4666
-47.152
-62.6628
-52.5061
-58.1414
-51.2293
-44.4321
-37.2781
-44.7713
-37.7385
-46.5059
-46.5243
-37.1661
-37.5937
-36.6615
-30.6449
-36.9753
-30.4718
-39.4164
-39.0908
-27.4793
-27.3437
-52.5638
-48.0518
-45.4696
-43.3614
-46.766
-51.0313
-43.2989
-44.5864
-29.2302
-30.8092
-29.2369
-30.8168
-26.3527
-26.3488
31.5639
31.7061
-59.2221
-34.3898
-60.7052
-33.6204
-59.19
-59.6695
-21.0655
-12.2247
-41.067
-38.5654
-41.0654
-38.5423
-41.4626
-41.4625
-37.2012
-37.2337
-49.5632
-48.6424
-52.2336
-55.9704
-50.7148
-51.2778
-52.6807
-48.0394
-68.8158
62.6116
-60.4717
43.3107
-71.708
-71.2593
121.04
131.346
-68.2471
-62.0939
-49.9849
-45.1319
-62.4077
-52.2277
-57.7686
-49.9899
-44.1899
-37.0697
-44.587
-37.5712
-46.3672
-46.3363
-37.1123
-37.384
-52.821
-48.897
-45.6411
-44.0113
-46.8749
-51.1834
-43.4053
-45.2622
-59.2265
-34.4047
-60.6312
-33.4693
-59.6811
-59.0155
-12.9262
-20.5874
-49.6147
-48.6179
-52.2552
-55.9672
-51.2744
-50.6935
-48.0305
-52.6796
-38.3174
-37.9276
-37.9276
-36.5947
-39.1979
-38.7842
-37.562
-36.9219
-44.4845
-43.0821
-49.1173
-47.9498
-46.2445
-48.6343
-43.8025
-46.1179
-42.0942
-41.4599
-42.629
-41.5468
-46.4621
-46.2125
-40.7058
-40.7418
-40.5074
-40.5506
-44.0961
-44.32
-41.7624
-43.2525
-42.1373
-43.6705
-37.016
-37.1378
-36.4234
-37.151
-36.8044
-36.9154
-36.0096
-36.0029
-55.996
-63.0804
-53.3608
-59.0119
-52.187
-50.2094
-68.1078
-64.1332
-19.107
-44.816
-19.0263
-44.9505
-5.91028
-5.71906
-60.9757
-61.3918
-70.7888
-67.4366
-70.7874
-67.421
-73.0872
-73.084
-65.0758
-65.071
-38.2567
-38.31
-37.8679
-36.6805
-39.1071
-38.7171
-37.4493
-36.8569
-44.7319
-43.1279
-49.1895
-47.9667
-48.7726
-46.3936
-43.7853
-46.1115
-40.4896
-40.556
-44.0994
-44.3324
-43.2262
-41.7376
-42.1549
-43.682
-56.0735
-63.061
-53.3475
-58.9771
-50.3784
-52.1336
-64.1073
-68.0906
-71.7614
-72.7505
-64.5597
-56.182
-58.1829
-65.6269
-55.6847
-56.2104
-71.6451
-72.6644
-64.45
-56.1453
-65.5687
-58.1912
-56.2493
-55.7276
-66.9482
-66.9359
-61.5837
-53.3268
-61.5318
-53.1924
-50.0614
-50.1311
-8.45816
-8.50577
-4.16031
10.5779
11.2478
-4.25854
17.3629
17.1701
199.404
189.95
197.447
197.19