# vtk DataFile Version 2.0
tri_press
ASCII
DATASET UNSTRUCTURED_GRID
POINTS 3682 float
-0.735 0.255 -2.03317
-0.505 0.295 2.28424
-0.635 0.782405 -1.995
-0.725 0.975 2.0642
0.735 0.255 -2.03317
0.5093 0.295 2.305
0.635 0.782325 -1.995
0.725 0.975 2.0642
-0.74235 0.184316 -0.594033
-0.619688 0.243645 0.845103
-0.79531 0.976913 -0.641933
-0.800997 1.0168 0.711133
0.743735 0.184365 -0.587113
0.6228 0.2434 0.858944
0.79533 0.97688 -0.641933
0.801004 1.01678 0.711133
-1.5009 -0.156583 -3.12088
-1.48874 -0.119344 -2.00313
-1.47587 -0.15378 -0.56128
-1.36591 -0.127626 0.89772
-1.25235 -0.0815512 2.34104
-1.22776 -0.0588666 3.46595
-1.23155 -0.0404228 4.57786
-1.48994 0.175064 -3.13388
-1.48213 0.240786 -2.0256
-1.49136 0.217215 -0.601374
-1.36489 0.243645 0.830101
-1.23177 0.277012 2.25596
-1.2094 0.298141 3.37941
-1.21872 0.317852 4.49424
-1.44804 0.791325 -3.13493
-1.42859 0.857231 -2.0224
-1.53015 0.976439 -0.656989
-1.49888 1.00647 0.701703
-1.39236 0.988036 2.06831
-1.29579 1.00843 3.19209
-1.25512 1.03575 4.31904
-1.42535 1.84524 -3.20475
-1.42417 1.92677 -2.10594
-1.46586 2.05301 -0.768768
-1.49014 2.12118 0.548826
-1.45679 2.12802 1.88586
-1.39801 2.13194 2.98438
-1.34082 2.1475 4.10155
-0.770558 -0.151367 -3.12554
-0.744573 -0.111475 -2.00984
-0.74673 -0.171077 -0.557603
-0.675901 -0.129329 0.912892
-0.594727 -0.0715935 2.36543
-0.563901 -0.0534457 3.48359
-0.558784 -0.0389651 4.58952
-0.767497 0.172778 -3.13484
-0.525595 0.302685 3.39368
-0.538276 0.318308 4.50357
-0.729034 0.760824 -3.12321
-0.592264 1.00348 3.19263
-0.558475 1.03256 4.32138
-0.689741 1.8263 -3.19289
-0.676968 1.90993 -2.09294
-0.713665 2.05124 -0.760343
-0.750655 2.12511 0.549492
-0.735675 2.1268 1.88157
-0.684394 2.12855 2.98033
-0.631561 2.14435 4.09941
0.688088 -0.151382 -3.124
0.729852 -0.111473 -2.0079
0.712635 -0.171077 -0.551078
0.611057 -0.12949 0.924985
0.548224 -0.071657 2.38166
0.656475 -0.0534956 3.49631
0.734686 -0.0390193 4.59936
0.673296 0.172757 -3.13397
0.691196 0.302651 3.40601
0.761045 0.31826 4.5129
0.658349 0.760778 -3.12262
0.763539 1.00345 3.19844
0.793551 1.03251 4.32827
0.760236 1.82626 -3.19141
0.78949 1.90989 -2.09155
0.793734 2.0512 -0.758662
0.75799 2.12508 0.5517
0.734364 2.12676 1.88455
0.752507 2.12851 2.9843
0.784354 2.1443 4.10428
1.42185 -0.156619 -3.11709
1.46167 -0.119359 -1.99829
1.44792 -0.153818 -0.55019
1.32216 -0.127848 0.917045
1.23052 -0.0817109 2.36582
1.30371 -0.0589854 3.48804
1.38881 -0.0405375 4.59641
1.41208 0.17502 -3.13124
1.46615 0.240764 -2.02284
1.48703 0.217204 -0.592031
1.36024 0.243409 0.847915
1.24234 0.276874 2.27998
1.33006 0.298041 3.40036
1.41339 0.317746 4.51187
1.39782 0.791249 -3.13304
1.42863 0.857149 -2.02118
1.53803 0.976394 -0.653604
1.50119 1.00637 0.708253
1.40652 0.987941 2.07747
1.4251 1.00835 3.20464
1.4635 1.03566 4.33269
1.4866 1.84516 -3.20144
1.518 1.9267 -2.10269
1.53616 2.05294 -0.76481
1.50583 2.12111 0.554004
1.46994 2.12793 1.89259
1.47146 2.13185 2.9928
1.49172 2.1474 4.11147
-0.702984 0.518703 -2.03207
0 0.265824 -2.02235
-0.72881 0.229523 -1.3136
-0.646508 0.635 2.20573
0.00215 0.308349 2.28127
-0.578812 0.252854 1.56467
0 0.857707 -2.07034
-0.764322 0.928826 -1.31847
0 1.09946 2.18866
-0.795983 1.02888 1.38767
0.702656 0.518663 -2.03174
0.729712 0.229338 -1.31014
0.640823 0.635 2.20827
0.577771 0.257479 1.58197
0.764375 0.928813 -1.31847
0.795996 1.02888 1.38767
-0.700892 0.194108 0.125535
-0.889598 0.580615 -0.617983
0.000692271 0.199792 -0.590573
-0.87137 0.630222 0.778118
0.00155605 0.213614 0.852024
-0.800734 0.999436 0.0346
9.89924e-06 1.26073 -0.641933
3.53507e-06 1.46153 0.711133
0.698357 0.198793 0.135915
0.889599 0.580622 -0.614523
0.87108 0.630089 0.785038
0.800738 0.999401 0.0346
-0.889244 0.549659 -1.31603
0.889257 0.549642 -1.3143
0.000346136 0.235231 -1.31187
4.94962e-06 1.01027 -1.31847
0 0.518683 -2.31801
-0.89261 0.605418 0.0800675
0.892619 0.605356 0.0852575
0.00112416 0.218804 0.130725
6.71715e-06 1.44543 0.0346
-0.894409 0.632611 1.47617
0.894393 0.632545 1.48482
0.00185303 0.221723 1.57332
1.76753e-06 1.31013 1.38767
0.001075 0.635 2.32257
-0.699631 0.386851 -2.01326
-0.3675 0.26688 -2.02129
-0.736374 0.237792 -1.67339
-0.555824 0.465 2.22505
-0.251425 0.30774 2.27669
-0.541453 0.27438 1.92446
-0.677126 0.650554 -2.02167
-0.3175 0.84118 -2.0538
-0.708527 0.864482 -1.65673
-0.673144 0.805 2.12235
-0.3625 1.08296 2.17216
-0.776767 1.01822 1.72593
0.3675 0.266879 -2.02129
0.700717 0.386831 -2.01434
0.736665 0.23786 -1.67166
0.255725 0.307513 2.2873
0.547361 0.465 2.22894
0.544728 0.275047 1.94349
0.3175 0.841116 -2.05377
0.676797 0.650494 -2.02134
0.708585 0.864467 -1.65673
0.3625 1.08314 2.17234
0.671042 0.805 2.12437
0.776741 1.01818 1.72593
-0.715949 0.226551 -0.953818
-0.726823 0.184011 -0.234249
-0.872193 0.354356 -0.606008
-0.375352 0.183009 -0.592303
-0.591284 0.256216 1.20489
-0.695154 0.184013 0.485319
-0.875707 0.371845 0.811611
-0.324182 0.198398 0.848563
-0.78533 0.958384 -0.9802
-0.879546 0.79731 -0.629958
-0.79814 0.988293 -0.303667
-0.454145 1.23181 -0.641933
-0.801197 1.02555 1.0494
-0.872691 0.841764 0.744626
-0.802035 1.00929 0.372867
-0.496304 1.43078 0.711133
0.71705 0.226525 -0.948628
0.376746 0.183013 -0.588843
0.72861 0.184015 -0.225599
0.87222 0.354717 -0.600818
0.587037 0.263688 1.22046
0.327193 0.198477 0.855484
0.697655 0.18402 0.497429
0.87551 0.372459 0.821991
0.785351 0.958344 -0.9802
0.454162 1.23179 -0.641933
0.879576 0.797307 -0.628228
0.798165 0.988271 -0.303667
0.801203 1.02553 1.0494
0.496344 1.43084 0.711133
0.872586 0.841706 0.748086
0.802169 1.00939 0.372867
-0.881937 0.534181 -1.67405
-0.351492 0.518693 -2.25764
0.000173068 0.241905 -1.66711
0 0.392253 -2.26673
-0.872454 0.389591 -1.31482
-0.364232 0.229635 -1.31274
-0.814074 0.633805 1.84095
-0.322716 0.635 2.30378
0.00200151 0.252446 1.9273
0.0016125 0.471675 2.3013
-0.883924 0.442733 1.52042
-0.28848 0.214669 1.569
2.47481e-06 0.960026 -1.6944
0 0.688195 -2.18868
-0.895583 0.739242 -1.31725
-0.382158 1.00434 -1.31847
8.83767e-07 1.13435 1.78816
0.0005375 0.867231 2.2629
-0.871952 0.830747 1.43192
-0.397991 1.28698 1.38767
0.881946 0.534152 -1.67302
0.351328 0.518673 -2.25746
0.8725 0.38949 -1.31222
0.365029 0.229682 -1.31101
0.812171 0.633772 1.84655
0.320949 0.635 2.30404
0.886116 0.445012 1.5334
0.289812 0.216635 1.57765
0.895582 0.739228 -1.31639
0.38219 1.00433 -1.31847
0.871388 0.830714 1.43624
0.397999 1.28703 1.38767
-0.865754 0.365262 0.102801
-0.355869 0.194485 0.12813
-0.886469 0.565137 -0.967009
-0.891116 0.593017 -0.268958
0.000519203 0.228339 -0.951223
0.000908216 0.199895 -0.229924
-0.884787 0.61782 0.429093
-0.894792 0.631416 1.12714
0.00134011 0.19849 0.491374
0.00170454 0.221602 1.21267
-0.887511 0.822847 0.0573337
-0.499899 1.4215 0.0346
7.42443e-06 1.08694 -0.9802
8.3082e-06 1.39307 -0.303667
5.12611e-06 1.46873 0.372867
2.6513e-06 1.42211 1.0494
0.866071 0.366783 0.110586
0.355249 0.197781 0.13332
0.886426 0.565132 -0.964414
0.891122 0.592989 -0.264633
0.884535 0.617723 0.435148
0.894843 0.631317 1.13493
0.887546 0.822812 0.0599287
0.499914 1.4215 0.0346
-0.861795 0.388221 -1.67372
-0.88717 0.386028 -0.960413
-0.880213 0.759003 -0.973604
-0.884302 0.694898 -1.66539
0.861791 0.388161 -1.67234
0.884457 0.694861 -1.66488
0.880536 0.758989 -0.972307
0.887142 0.385992 -0.956521
-0.365866 0.237801 -1.67025
0.366265 0.237901 -1.66938
0.368621 0.222794 -0.949925
-0.367531 0.222401 -0.95252
-0.349829 0.942941 -1.67557
-0.389904 1.0679 -0.9802
0.38993 1.0679 -0.9802
0.349845 0.942937 -1.67557
-0.359496 0.389552 -2.21403
-0.334496 0.669374 -2.16725
0.334414 0.669344 -2.16943
0.359414 0.389542 -2.19406
-0.868971 0.35981 -0.251604
-0.857325 0.375256 0.457206
-0.88332 0.833915 0.40098
-0.883504 0.810066 -0.286312
0.869141 0.360752 -0.245116
0.883535 0.810046 -0.28415
0.883204 0.833828 0.404007
0.857243 0.376395 0.466289
-0.368491 0.182987 -0.232087
0.369701 0.182991 -0.227762
0.348784 0.183004 0.494402
-0.346747 0.182999 0.488347
-0.497239 1.36709 -0.303667
-0.504507 1.43895 0.372867
0.504524 1.43896 0.372867
0.497268 1.3671 -0.303667
-0.884382 0.439833 1.16602
-0.80479 0.453866 1.8827
-0.824485 0.817874 1.78344
-0.866616 0.827129 1.08827
0.88487 0.440878 1.17769
0.86708 0.827074 1.09216
0.824013 0.817857 1.78624
0.800208 0.455006 1.89502
-0.298773 0.206738 1.20878
0.300995 0.206824 1.21657
0.272769 0.283354 1.93539
-0.269952 0.275331 1.92588
-0.399244 1.3993 1.0494
-0.380245 1.1271 1.75705
0.380249 1.12711 1.75705
0.399251 1.39918 1.0494
-0.287071 0.468337 2.28971
0.288337 0.468337 2.28973
0.341725 0.836116 2.23589
-0.342608 0.836116 2.23578
-0.738687 0.320926 -2.04459
-0.55125 0.255231 -2.03294
-0.73814 0.243943 -1.85328
-0.526186 0.38 2.25042
-0.378212 0.307574 2.27426
-0.498221 0.309696 2.10435
-0.660847 0.716479 -2.01312
-0.47625 0.815094 -2.0277
-0.675693 0.827372 -1.82587
-0.699905 0.89 2.09411
-0.54375 1.03682 2.12602
-0.757036 1.00276 1.89507
0.55125 0.255193 -2.03298
0.738732 0.320916 -2.04463
0.738418 0.243844 -1.85241
0.382512 0.32074 2.27666
0.517445 0.38 2.25608
0.521757 0.290281 2.12424
0.47625 0.815065 -2.02773
0.660795 0.716409 -2.01307
0.67577 0.827373 -1.82587
0.54375 1.03683 2.12603
0.698851 0.89 2.09511
0.757041 1.00276 1.89507
-0.723793 0.21079 -0.773926
-0.734713 0.184037 -0.414141
-0.856496 0.244724 -0.600021
-0.558913 0.183538 -0.593168
-0.603604 0.251812 1.025
-0.670825 0.200425 0.665211
-0.87727 0.242959 0.828357
-0.474262 0.216368 0.846833
-0.793791 0.97112 -0.811067
-0.847613 0.892204 -0.635946
-0.796579 0.982457 -0.4728
-0.669532 1.19397 -0.641933
-0.800929 1.02101 0.880267
-0.858238 0.939978 0.72788
-0.801411 1.01294 0.542
-0.668956 1.2644 0.711133
0.726551 0.209286 -0.767871
0.560314 0.183542 -0.587978
0.736215 0.184147 -0.406356
0.85708 0.24499 -0.593966
0.604947 0.253515 1.0397
0.476472 0.217988 0.857214
0.668345 0.205592 0.678186
0.877258 0.243878 0.840467
0.793825 0.971097 -0.811067
0.669429 1.1937 -0.641933
0.847645 0.892189 -0.635081
0.796601 0.982429 -0.4728
0.800936 1.02099 0.880267
[...]
POINT_DATA 3682
SCALARS point_scalars float 1
LOOKUP_TABLE default
-59.9799
-34.6396
-13.241
-40.0502
-59.9609
-34.1668
-12.8041
-39.5294
-44.2205
-40.2953
-59.9922
-49.9542
-44.3453
-40.1874
-59.9256
-49.8885
-77.5655
-91.8755
-43.2965
-43.1908
-44.1835
-35.9133
-35.2039
51.6355
-95.5965
-41.9238
-42.2245
-43.8834
-35.2039
-33.1113
88.1398
-80.011
-49.7053
-45.7423
-44.0108
-34.5168
-33.8106
-11.1434
-52.8469
-73.3138
-61.3435
-47.9636
-39.7797
-35.0314
61.5108
-158.293
-44.2719
-39.1296
-34.6396
-33.9633
-32.3154
61.5108
-32.1935
-29.6196
160.659
-33.6454
-31.4139
35.9867
-39.3312
-57.6035
-67.5771
-45.962
-34.768
-34.7479
61.9178
-158.194
-44.3136
-38.8364
-34.2967
-33.1445
-31.919
66.1495
-32.4465
-31.351
186.213
-33.2952
-33.0262
56.8933
-39.2232
-58.7937
-67.5347
-45.8668
-34.49
-34.49
-43.8574
-93.0012
-42.6277
-42.969
-44.5893
-33.8272
-33.8272
88.7643
-95.9275
-41.9582
-42.969
-44.5893
-33.8272
-33.8272
88.2034
-80.2395
-49.6296
-45.6625
-43.4752
-34.4414
-33.5019
-10.8675
-52.6598
-73.1382
-61.2703
-47.7191
-39.4439
-35.0949
48.4599
-89.015
-47.7799
-34.1567
-27.4577
-40.2529
-41.23
-50.8728
-35.2925
-51.2372
48.6132
-47.6896
-33.5278
-40.2191
-50.8644
-51.0106
-42.4277
-43.4546
-42.6995
-40.1301
-39.2421
-54.8499
-11.8788
-71.3516
-41.1926
-43.4001
-40.0214
-54.9126
-59.7875
-59.681
-47.6675
-9.44189
206.135
-43.8757
-43.8441
-42.2936
-88.3058
-50.3335
-49.9615
-41.3859
-46.603
-23.2833
40.4918
-93.9596
-71.6245
-33.6273
-30.6913
-40.3335
33.0651
-63.4608
-38.7785
-36.0713
-34.7511
-45.433
-93.6594
40.8432
-71.4173
-29.9725
-33.0302
-38.6993
-64.1088
33.2728
-38.8163
-34.4928
-35.4027
-45.1789
-36.1482
-42.1219
-41.7643
-44.1475
-37.9423
-44.2127
-37.8894
-39.5235
-45.8594
-48.5316
-58.3974
-18.7088
-48.9871
-44.328
-52.9311
-66.556
-35.9504
-44.3299
-42.1046
-41.8124
-37.5281
-39.4338
-44.4072
-38.3661
-45.767
-18.8502
-48.4637
-58.3228
-48.8781
-66.5192
-44.2203
-52.8525
-103.101
173.528
-62.5093
159.574
-55.977
-47.7736
-45.4132
-31.4581
-36.4962
-21.9572
-48.3582
-40.6498
-27.4642
175.749
-62.6569
-16.4242
-39.3738
-29.3171
-51.5378
-47.6926
-102.805
169.27
-55.8757
-47.7262
-44.4787
-30.3567
-47.9957
-40.5664
-62.4658
-16.4312
-51.2795
-47.6526
-41.7432
-42.7551
-45.84
-43.5733
-39.3553
-44.3898
-43.4562
-42.5655
-44.066
-39.0956
-46.8988
-81.1465
16.7788
-74.6173
-80.8681
-59.3595
-41.6651
-42.1188
-45.7079
-43.561
-43.3612
-42.4559
-47.115
-81.1256
-97.2211
-45.9094
-47.3599
-91.2739
-96.7199
-91.3402
-47.6007
-46.2196
-64.7593
-64.6624
-37.4055
-37.6436
-29.4726
8.28033
8.29779
-29.4933
149.084
126.678
124.207
149.028
-41.4654
-41.4861
-47.121
-48.5546
-41.4922
-48.4702
-47.0639
-41.4479
-44.0406
-44.0275
-44.4613
-44.3486
-74.6916
-71.6607
-71.6279
-74.6958
-41.3522
-45.3562
-46.3009
-44.2767
-41.204
-44.0544
-45.7097
-44.2094
-38.6265
-38.4405
-37.088
-37.8392
-59.82
-40.2168
-40.1445
-59.7858
-29.5322
-28.7027
-32.3306
-33.0124
5.09182
-138.549
-95.9173
-34.1584
-34.1268
-37.247
20.6241
-34.0366
-37.7731
-37.5072
-35.6897
-43.0866
-137.521
4.89568
-95.3625
-33.4947
-33.1121
-37.5443
-34.4148
21.043
-37.7799
-35.26
-36.8798
-42.7051
-33.4646
-42.864
-41.8553
-44.2708
-38.3441
-47.0694
-41.3328
-39.5836
-57.8884
-53.7136
-59.359
-61.8729
-49.2602
-47.3515
-51.2423
-56.6832
-33.4286
-44.5587
-42.8072
-41.4119
-38.5182
-39.4002
-46.5289
-42.1594
-57.8629
-61.7031
-53.6428
-59.2779
-49.1686
-56.6056
-47.2534
-51.1554
47.0578
38.681
-75.172
114.323
-89.9368
-89.8848
-72.1424
101.521
-56.8311
-42.4106
-53.2472
-47.9962
-33.7323
-35.1031
-40.0737
-33.5321
-28.5719
-27.9994
-34.2359
-23.191
-43.1442
-38.174
-46.731
-40.1136
-44.6708
-42.6962
-35.4241
111.997
-47.9413
-46.4644
-65.2357
-25.3381
-34.9963
-34.9106
-37.3218
-32.6035
-48.1886
-50.6939
-49.9291
-50.5512
47.4524
34.9448
-75.866
114.909
-56.5414
-42.2344
-53.0913
-47.8713
-33.1069
-34.4749
-39.3473
-32.9773
-40.3155
-38.2583
-46.6123
-40.1946
-48.0255
-46.3769
-65.0905
-25.3257
-47.9842
-50.5592
-49.6921
-50.4817
-42.2852
-36.9806
-40.1223
-42.5038
-42.3182
-45.1058
-43.8814
-43.5125
-42.6528
-42.7096
-34.9385
-44.775
-38.5346
-42.1661
-41.7651
-39.263
-40.1955
-40.5133
-43.514
-39.4418
-56.746
-54.0726
-49.3885
-66.7174
-12.828
-12.7931
12.2441
-40.7805
-70.0811
-70.0772
-75.1796
-65.1371
-42.396
-37.9992
-39.9773
-41.7137
-42.3109
-45.0419
-43.7293
-43.479
-38.6446
-42.0565
-41.6321
-39.3091
-56.7084
-54.0047
-49.5051
-66.6727
-74.6676
-58.1933
-61.0193
-52.0759
-74.5117
-58.0951
-60.8838
-52.1027
-54.2786
-47.5951
-47.5775
-42.5384
-23.2523
-11.1321
-11.1363
5.12159
196.194
199.192
168.171
199.985
-42.6147
-43.6464
-44.5607
-45.3997
-42.5845
-43.6304
-44.5108
-45.4
-42.3378
-44.4822
-37.6652
-41.9013
-86.8238
-98.1088
-82.4885
-86.8155
-52.7254
-49.3718
-51.0536
-46.1813
-52.1221
-49.0605
-50.8328
-45.9964
-38.0474
-40.6662
-40.7641
-39.0015
-42.1024
-46.9526
-46.9327
-52.5024
-26.8738
-22.4108
-27.6238
-25.9291
-103.292
69.8466
-77.2019
96.5438
-88.1386
-68.4381
-39.6538
-32.431
-35.1488
-29.2585
-45.6931
-39.2677
-54.8261
97.4211
-38.606
82.4353
-69.4781
-31.617
-42.3965
-33.733
-37.6367
-33.7701
-46.3284
-41.7527
-77.0809
94.7456
-103.424
70.6038
-87.7584
-68.2525
-34.2037
-28.3842
-38.8876
-31.5135
-44.991
-37.9523
-38.6587
87.1374
-55.115
97.5792
-69.3847
-31.6327
-37.5131
-33.3568
-41.7181
-33.2467
-45.8514
-41.6422
-44.2629
-37.2203
-41.3898
-43.4531
-42.7058
-41.6121
-33.4285
-44.6915
-40.8348
-38.4606
-42.131
-44.5903
-39.2854
-39.2568
-44.3251
-39.2384
-48.5466
-6.15519
-47.4779
-48.5762
-53.5523
-80.0713
3.63202
-43.6803
-45.5056
-59.9331
-45.5788
-43.3873
-50.2624
-60.5931
-67.5268
-63.1459
-44.9943
-37.0472
-33.503
-44.6739
-41.7333
-43.4438
-42.0457
-41.6406
-40.7719
-38.2206
-44.2482
-39.1297
-41.282
-44.8278
-39.1225
-39.2308
-48.6319
-6.19565
3.65782
-43.6302
-47.3759
-48.5319
-53.45
-80.0424
-45.3218
-59.8717
-67.4917
-63.1083
-45.4782
-43.2599
-50.185
-60.5247
-99.9746
-101.839
164.895
165.489
-63.0164
-62.9391
151.591
148.17
-69.1394
-48.2918
-55.0969
-42.2405
-45.5995
-46.3038
-30.1286
-32.9688
-36.5337
-36.7946
-24.8303
-23.9044
-44.0672
-52.568
-38.9797
-39.7818
-27.877
-27.8689
150.802
153.425
-53.6074
-80.2492
-25.9845
-2.6912
-39.6415
-39.6131
-30.5024
-31.1609
-50.3341
-48.1202
-53.2559
-43.3036
-99.5921
-101.759
165.348
158.13
-68.9393
-48.4184
-55.0068
-42.1721
-45.5182
-44.4417
-29.4797
-32.3274
-43.8948
-51.7542
-39.038
-38.827
-80.1006
-53.6237
-2.68365
-26.0054
-47.978
-49.6723
-43.2554
-53.2256
-41.5446
-42.1138
-43.8787
-37.4363
-45.8129
-46.5795
-42.2292
-45.5169
-38.6833
-38.7078
-44.323
-44.3133
-42.1469
-45.0201
-42.0897
-42.1092
-44.3693
-44.013
-38.8971
-38.7876
-48.2373
-48.7274
-93.6493
-74.106
14.2682
14.3252
-74.2762
-74.2722
-79.2402
-79.2421
-59.3629
-59.3499
-41.537
-42.0552
-43.883
-38.2463
-46.3271
-45.8882
-42.2413
-45.4672
-44.9413
-42.1122
-42.0242
-42.0082
-48.3817
-48.1509
-74.0615
-93.6241
-95.8007
-65.0604
-72.8209
-93.8905
-41.464
-43.6658
-50.5692
-46.3357
-52.2213
-53.7741
-52.8353
-44.6628
-41.515
-62.599
-76.7858
-80.6253
-95.8446
-94.5005
-72.639
-64.8841
-41.906
-80.603
-76.62
-62.9665
-52.1605
-44.565
-53.1336
-53.4066
-41.3387
-46.0648
-50.4893
-43.1479
-88.6632
-72.7742
-54.3479
-56.0954
-88.4947
-55.9204
-54.2925
-72.6965
-33.1234
-34.7254
-42.4038
-42.2722
-33.181
-42.404
-42.4202
-34.7046
-40.8561
-31.2537
-23.6889
-36.2096
-35.2801
10.2464
3.14392
-14.7773
-35.3406
-14.7769
3.16619
10.3024
-40.9008
-36.1304
-23.7045
-31.2563
-7.36356
103.038
180.685
113.077
59.3168
99.422
166.786
111.864
59.1766
112.21
164.281
106.255
-6.35913
111.524
182.16
103.679
-41.8323
-40.9138
-42.3368
-42.2324
-43.0757
-40.3537
-43.331
-39.7911
-48.572
-51.5855
-45.9598
-43.4444
-54.1612
-45.3925
-45.4727
-53.0362
-41.3636
-42.2353
-42.3259
-41.3832
-54.1031
-52.8363
-45.4499
-45.3523
-48.4969
-43.3268
-45.9072
-51.4976
-43.0257
-39.5112
-43.2884
-40.1971
-44.258
-44.7586
-44.4171
-43.3254
-44.2229
-43.4026
-44.4314
-44.746
-45.366
-43.9387
-38.009
-38.3508
-45.732
-37.4998
-37.5923
-44.0948
-79.8496
-72.705
-97.4818
-37.5376
-57.8424
-73.7503
-80.4634
-62.6989
-57.757
-62.6437
-80.4549
-73.713
-79.7766
-37.4965
-97.5169
-72.6637
-38.9937
-42.0824
-45.107
-39.4795
-40.909
-40.0065
-52.3448
-53.4012
-43.8608
-48.2148
-51.8054
-41.0425
-47.4694
-40.7713
-47.0416
-48.3699
-39.5441
-39.4254
-44.9663
-42.1283
-47.4354
-48.1707
-46.85
-40.6426
-43.3015
-40.3867
-51.2001
-47.8346
-40.4379
-51.223
-51.6667
-39.2257
-38.9243
-39.4928
-39.2008
-38.8162
-38.9345
-38.7957
-39.1313
-38.9831
-35.0437
-34.2321
-38.3247
-39.1531
-37.0334
-41.0331
-38.7563
-34.7621
-55.4922
-55.5694
-52.6578
-64.8023
-38.7061
-37.4786
-42.4695
-45.5841
-38.5132
-45.5004
-42.4623
-37.4136
-55.4093
-64.7922
-52.7251
-55.5043
-32.9372
-25.3902
-25.4147
-32.9304
-32.3506
-32.2218
-24.2551
-24.7095
-33.6913
-32.6471
-29.6716
-33.3033
-34.1346
-33.8218
-30.4663
-32.9962
-36.2648
-118.131
-121.959
-34.6316
-34.3862
-34.412
6.94502
-18.9163
-49.1178
-38.8536
-37.2443
-41.3373
-117.438
-36.2633
-121.615
-34.1333
-33.9308
-35.022
-18.2173
7.41957
-49.278
-36.7574
-38.1918
-40.8774
-39.7347
-43.7739
-43.4607
-44.2371
-38.908
-43.7056
-42.3574
-39.6523
-61.1431
-56.3703
-59.7115
-74.1903
-49.4777
-49.088
-50.4808
-53.0605
-40.474
-44.5991
-43.704
-43.4189
-39.0647
-39.6008
-43.2103
-42.2872
-61.0498
-74.087
-56.3007
-59.6485
-49.3857
-52.9942
-49.0404
-50.4753
44.9687
42.3537
-41.3119
85.9197
-88.8323
-88.8132
-78.5028
1.83648
-50.7337
-45.6846
-51.2018
-47.912
-33.9477
-34.6375
-37.2948
-33.5013
-27.8914
-27.5467
-30.779
-25.2723
-41.4279
-38.785
-44.5065
-39.6774
-43.995
-42.9567
-37.9283
-34.0222
-49.1842
-46.9087
-64.6162
-35.3129
-35.2342
-35.1982
-36.2749
-33.5469
-50.3017
-50.7687
-50.1273
-51.6006
45.2938
42.7902
-41.6566
86.1382
-50.5073
-45.5961
-51.1251
-47.7761
-33.3097
-33.9872
-36.4396
-33.0227
-41.5731
-39.26
-44.2141
-40.1963
-49.2439
-46.8931
-64.5909
-35.2931
-50.0273
-50.6801
-49.9501
-51.4905
-43.3581
-37.7182
-41.3464
-42.4726
-42.8271
-44.0947
-43.5632
-43.447
-42.7857
-42.8078
-38.0612
-44.6687
-39.132
-41.1363
-41.0512
-39.0989
-39.3496
-39.3081
-39.8389
-39.863
-55.77
-54.4764
-52.5528
-60.071
-12.159
-12.1809
-0.446751
-26.1346
-70.9826
-70.9785
-72.883
-68.4753
-43.7628
-36.4172
-40.4113
-41.5382
-42.7896
-44.0354
-43.4682
-43.4123
-39.0944
-41.0249
-40.9346
-38.9323
-55.7814
-54.4689
-52.9207
-60.0401
-66.0607
-59.0463
-60.4932
-55.2556
-65.9356
-58.9473
-60.3738
-55.1712
-51.2476
-47.6756
-47.6712
-44.1853
-16.7194
-10.0545
-10.0573
-2.24421
203.26
209.664
177.628
204.297
-43.1896
-43.7216
-44.3249
-44.598
-43.1529
-43.7181
-44.3139
-44.5801
-42.4187
-44.821
-37.8425
-42.2001
-87.9299
-93.8087
-84.6737
-87.9197
-51.126
-49.8806
-50.4356
-47.7381
-50.8705
-49.5986
-50.2554
-47.5168
-39.767
-41.3535
-41.3072
-39.5996
-44.0586
-46.6979
-46.6725
-49.2526
-24.8963
-22.6369
-27.1445
-24.2389
25.4588
45.9312
-62.5834
89.835
-108.992
-90.2277
-83.8414
-15.2454
-82.6233
-63.4771
-82.592
-69.3491
-33.8888
-33.6383
-36.3066
-33.2374
-32.0344
-29.5168
-32.5787
-30.0531
-40.8531
-42.1236
-44.385
-39.4812
29.8165
34.5945
-14.4911
76.6115
-60.1271
-51.8947
-45.4313
29.67
-38.7093
-42.8505
-56.3177
-33.2759
-36.7287
-35.471
-40.4843
-34.1865
-35.0607
-34.7857
-36.0675
-34.0591
-44.4203
-46.3942
-46.106
-43.276
-108.339
-90.1137
-83.6642
-10.3977
25.1931
46.4497
-59.9138
90.3874
-82.4495
-63.1574
-82.1331
-69.1186
-31.581
-28.8502
-31.8534
-29.1273
-33.2383
-33.0059
-35.4335
-32.5464
-38.96
-39.0704
-42.7082
-37.5335
-60.8805
-50.7647
-45.5164
30.1343
30.1731
34.6006
-14.2664
76.6818
-38.6728
-42.7994
-56.0476
-33.3725
-34.6961
-34.6279
-35.8824
-33.6979
-36.077
-34.858
-39.8095
-33.6798
-44.1065
-46.1861
-45.7193
-43.1277
-33.9123
-39.3186
-41.8569
-36.8686
-42.5911
-42.203
-41.1466
-42.9751
-41.9265
-41.8719
-41.7981
-41.7517
-44.3233
-43.8589
-38.6325
-45.0226
-38.1092
-37.8566
-41.7055
-37.9591
-47.7595
-41.0297
-42.4045
-44.5858
-39.4155
-37.64
-36.7009
-39.8447
-39.6317
-40.254
-40.4869
-39.4519
-53.3448
-46.9944
-49.1359
-26.5958
-50.6267
-46.542
-48.055
-48.6815
-58.9997
-57.6179
-55.7921
-66.3295
-29.0545
-14.6897
-6.23105
-31.3012
-48.6068
-49.7596
-47.4111
-53.8147
-45.651
-43.2741
-44.9064
-43.7786
-52.029
-53.551
-52.0424
-56.6113
-60.7938
-68.8952
-66.7686
-66.2653
-33.5213
-39.1233
-42.7574
-36.6684
-44.5562
-43.9936
-38.8897
-45.0097
-42.5426
-42.2197
-41.2117
-42.9741
-41.9619
-41.8918
-41.8122
-41.7783
-38.5742
-37.2307
-41.8325
-37.905
-39.4896
-40.1987
-40.3194
-39.2582
-48.4337
-42.1446
-42.4632
-44.7455
-39.9343
-37.8643
-36.2657
-39.7271
-53.4603
-46.9909
-49.1582
-26.5374
-28.9954
-14.6323
-6.19404
-31.2532
-50.5543
-46.4695
-47.9754
-48.6136
-58.9255
-57.5394
-55.6996
-66.2769
-48.5008
-49.5685
-47.2278
-53.7293
-60.7055
-68.8798
-66.7427
-66.2284
-45.5337
-43.1603
-44.8093
-43.678
-51.9739
-53.4716
-51.9812
-56.5489
-107.059
-87.1787
-102.168
-104.402
149.914
185.312
171.516
172.984
-67.0051
-57.9244
-62.6638
-62.6195
171.166
173.132
152.646
157.83
-55.0221
-57.1611
-61.3647
-51.649
-47.9102
-47.5032
-51.3079
-44.7248
-42.3342
-50.0444
-45.5833
-45.7996
-32.9373
-29.1811
-30.6484
-32.5931
-35.3611
-37.5337
-36.4618
-36.6229
-22.2424
-22.1524
-22.9332
-22.356
-47.8777
-48.9145
-45.6959
-51.5411
-40.5181
-39.9391
-39.6832
-42.1688
-29.6249
-27.9892
-27.5196
-27.5156
168.672
172.332
163.649
163.441
-63.194
-61.7132
-57.526
-69.6106
-20.1689
-13.5965
-21.5659
-10.3527
-38.5253
-40.569
-39.4592
-39.4461
-31.4034
-27.8286
-29.4869
-29.9306
-50.7506
-51.7085
-51.164
-50.6161
-48.66
-47.1359
-50.2791
-45.2595
-107.133
-86.9389
-101.809
-104.138
150.928
184.745
171.755
164.612
-54.9078
-57.0555
-61.2027
-51.6
-47.8177
-47.4773
-51.2396
-44.6793
-41.5389
-49.111
-44.9196
-44.5979
-32.0604
-28.1352
-29.779
-31.75
-47.5584
-48.6508
-45.5098
-50.9685
-40.2474
-40.2347
-39.8105
-41.4874
-62.9999
-61.546
-69.488
-57.1607
-20.1667
-13.6059
-10.3521
-21.5768
-50.4841
-51.58
-50.3924
-50.7842
-48.6105
-47.1115
-45.2209
-50.2461
-41.2701
-42.031
-41.6969
-42.0467
-42.5772
-42.8521
-44.3176
-38.0525
-44.5018
-48.3986
-46.0382
-46.0538
-43.5614
-43.6123
-42.8306
-44.4224
-35.8904
-41.4403
-39.1981
-39.2075
-44.76
-44.386
-44.3899
-44.3863
-42.6546
-44.1768
-42.8409
-44.1429
-40.3242
-45.0002
-42.1681
-42.7401
-45.3198
-41.7942
-44.172
-44.0952
-39.7445
-38.6116
-39.0869
-39.0368
-48.3657
-46.2239
-47.4327
-48.0945
-75.7496
-84.9456
-88.1914
-76.8794
18.8411
11.8911
15.826
15.8675
-56.978
-89.2394
-74.7234
-74.729
-78.181
-81.7348
-80.5454
-80.5439
-62.1415
-56.1787
-59.4096
-59.4043
-41.0914
-41.9941
-41.664
-42.0102
-41.8823
-42.3029
-44.3832
-37.2661
-44.3568
-48.3082
-45.8647
-45.8767
-43.5398
-43.5788
-42.8332
-44.3868
-42.5113
-44.0778
-44.0533
-42.7338
-40.3047
-44.8447
-42.044
-42.6462
-48.8262
-46.2071
-48.4309
-47.3127
-75.7314
-84.9356
-76.8524
-88.182
-106.911
-95.8441
-99.479
-79.8948
-45.5966
-45.9633
-44.6447
-45.645
-47.2165
-47.2063
-49.602
-47.2293
-77.2562
-78.774
-97.453
-93.7567
-106.652
-95.364
-99.0573
-79.6244
-77.3659
-78.8528
-97.5399
-93.5601
-47.5176
-47.097
-49.9131
-47.0968
-46.2227
-44.9229
-44.518
-45.9999
-70.6735
-66.6395
-63.5503
-59.4502
-70.5918
-66.4962
-63.4734
-59.3453
-37.2755
-34.5871
-39.9321
-37.8641
-37.4424
-34.626
-40.0583
-37.9451
-33.599
-30.5635
-28.5193
-27.5372
2.63645
8.75915
3.57069
11.7355
2.63647
8.80481
3.72949
11.7847
-33.6074
-30.5901
-28.5247
-27.5537
109.802
151.961
159.581
165.561
128.682
114.649
144.298
131.48
111.342
128.984
131.861
144.297
154.313
118.09
144.278
149.136
-41.0305
-41.5905
-41.6231
-41.7013
-41.4999
-40.7592
-42.0174
-41.6335
-46.3265
-48.4781
-45.9298
-47.9738
-48.7236
-51.1101
-46.7901
-48.4885
-41.0953
-41.6159
-41.6252
-41.7279
-48.6492
-51.0134
-46.7217
-48.3848
-46.2269
-48.3975
-45.8642
-47.7544
-41.4414
-40.6452
-41.9498
-41.7093
-43.799
-44.3282
-43.8811
-44.1739
-44.313
-43.781
-44.1632
-43.8678
-45.8961
-44.6055
-44.3068
-42.6551
-44.4229
-45.8848
-41.9017
-44.1905
-82.4512
-56.1889
-84.9439
-72.0964
-65.7804
-69.5843
-72.2207
-76.1413
-69.5483
-65.7339
-76.1259
-72.1827
-56.0022
-82.3123
-72.1082
-84.9205
-40.7655
-39.7401
-43.1771
-41.8755
-42.1826
-45.4031
-45.5129
-49.9412
-44.5367
-46.2
-46.2113
-47.9486
-45.3136
-43.6445
-45.6892
-42.3531
-40.6855
-39.6328
-42.9109
-41.8156
-45.1103
-43.5423
-45.5535
-42.3423
-43.9044
-45.6575
-45.5333
-47.3721
-41.2926
-44.4259
-44.2648
-48.7167
-38.6918
-38.8632
-38.7277
-38.659
-38.4388
-38.7391
-38.5212
-38.4699
-35.4458
-37.6745
-36.8856
-38.6895
-36.52
-38.8774
-37.1649
-38.8355
-60.4298
-61.3167
-56.6745
-59.7339
-39.0686
-40.844
-39.8613
-41.6061
-38.9811
-40.7516
-39.8118
-41.5794
-60.3966
-61.2922
-56.6294
-59.7115
-31.5592
-29.2746
-29.8823
-27.0893
-28.3135
-30.5815
-26.2524
-29.1569
-32.8716
-33.0542
-31.3042
-32.0875
-33.6076
-33.404
-32.8727
-32.0293
-89.2095
59.7347
-108.026
-50.358
-93.0507
-92.9395
-37.6729
-33.855
-34.7379
-35.1978
-40.8539
-37.5496
-20.764
53.138
-36.0076
19.6771
-37.831
-39.9488
-41.2475
-34.9052
-37.4612
-34.7177
-43.8438
-39.965
-107.809
-49.5907
-89.2386
59.8296
-93.102
-92.4732
-33.6908
-33.9425
-36.5367
-33.1247
-41.0118
-36.2499
-36.106
20.4499
-20.6055
52.8108
-38.0117
-39.9925
-37.1601
-34.2859
-40.6454
-34.3799
-43.3627
-39.7119
-36.2235
-33.1282
-41.7369
-43.8316
-43.3607
-41.9545
-38.989
-44.696
-38.1988
-38.6963
-45.7419
-46.9603
-38.3896
-42.063
-42.2225
-38.9923
-55.2308
-58.6611
-52.9482
-54.0672
-56.6509
-71.7054
-43.7932
-70.6654
-49.187
-51.7607
-47.8538
-47.0124
-50.4169
-54.5215
-57.1678
-55.9899
-36.1564
-33.0582
-39.3584
-44.7023
-41.7537
-43.7458
-43.5358
-42.4379
-38.5497
-38.6852
-41.7914
-38.9377
-45.3603
-46.3338
-37.6802
-42.0757
-55.1882
-58.7079
-43.8514
-70.4957
-52.8773
-53.9855
-56.5424
-71.6299
-49.0526
-51.6795
-57.0855
-55.9138
-47.7696
-46.891
-50.3539
-54.4362
-60.234
68.9724
-23.1656
80.3928
-84.4331
-66.2933
86.6559
115.509
-79.0951
-6.78599
-79.0235
-9.4437
-72.3478
-72.299
96.9188
97.4832
-62.4019
-56.21
-44.6586
-42.3457
-58.3149
-49.5422
-51.4495
-45.1973
-36.4486
-33.3578
-38.4675
-33.962
-40.0768
-40.6407
-33.1729
-33.8817
-31.4705
-27.0636
-31.0182
-26.3018
-34.2058
-34.4421
-23.9887
-23.5176
-53.1477
-42.5128
-39.8865
-38.5249
-44.2135
-50.1795
-39.3751
-41.551
-40.2793
-34.2651
-40.1612
-40.3147
-35.3658
-35.3107
94.0454
96.0748
-67.4026
-37.6662
-52.4903
-28.558
-57.8064
-71.7641
-29.6427
-20.9763
-36.1085
-33.7789
-36.034
-33.5616
-37.4092
-37.3843
-32.4496
-32.6626
-48.0681
-47.9092
-49.401
-53.4455
-49.3746
-49.6122
-53.8461
-47.9839
-58.9744
69.15
-23.2942
80.6257
-85.0747
-66.8327
115.985
86.7234
-62.1524
-56.0023
-44.4043
-42.1878
-58.1369
-49.5382
-51.2907
-45.0646
-35.6336
-32.8517
-37.7002
-33.493
-39.9363
-39.2785
-32.5461
-33.3688
-46.6832
-39.6785
-39.6459
-38.587
-44.829
-49.6385
-39.3821
-41.0311
-67.4468
-37.6591
-52.2987
-28.5444
-71.6572
-57.5087
-20.9653
-29.6487
-47.7544
-47.7797
-49.2525
-53.3251
-49.3731
-49.0429
-47.9029
-54.0274
-41.2466
-42.9694
-38.4958
-37.1173
-41.5336
-40.2955
-43.9132
-38.3266
-42.4631
-42.2586
-44.9231
-45.2215
-43.5211
-44.1226
-42.7964
-44.3347
-37.801
-45.0335
-37.8936
-45.0343
-35.0236
-34.9947
-44.8454
-44.84
-39.3573
-38.1514
-42.7268
-41.5275
-41.0509
-42.6093
-39.4286
-39.6486
-40.3569
-40.6289
-40.3053
-40.5414
-43.5691
-43.5967
-39.3801
-39.3382
-54.9405
-63.0992
-53.4279
-58.0678
-49.7079
-52.6729
-69.6623
-64.3744
-0.24421
-24.8439
-0.205711
-24.7319
11.3895
11.4037
-39.59
-39.5178
-71.6724
-67.8676
-71.621
-67.8582
-74.8355
-74.8192
-65.0796
-65.075
-41.3224
-42.9923
-39.0402
-38.0858
-40.9854
-40.0876
-43.9632
-37.349
-42.4215
-42.2666
-44.8456
-45.1677
-44.0097
-43.319
-42.7775
-44.2924
-39.0104
-38.2504
-42.6434
-41.376
-42.4883
-40.9059
-39.3009
-39.5861
-54.8709
-63.0614
-53.3097
-58.011
-52.6304
-50.0732
-64.3314
-69.6094
-73.9907
-75.6851
-64.2835
-53.7429
-56.3274
-67.6908
-51.192
-52.6004
-73.8078
-75.5154
-64.1562
-53.6794
-67.5642
-56.1889
-52.7314
-51.1516
-54.2565
-54.2197
-51.2147
-44.3755
-51.1412
-44.3851
-42.5396
-42.5428
-23.3706
-23.38
-18.0778
-4.13197
-4.12991
-18.0873
4.50453
4.54162
195.068
181.955
187.581
187.809
166.161