# vtk DataFile Version 2.0
tet_velo
ASCII
DATASET UNSTRUCTURED_GRID
POINTS 29498 float
-0.858559 0.355 -1.605
-0.775 0.455 1.90099
-0.699527 0.635 -1.795
-0.543393 1.455 1.635
0.858559 0.355 -1.605
0.775 0.455 1.9026
0.700066 0.635 -1.795
0.545 1.45542 1.635
-0.807627 0.411413 -0.436337
-0.848188 0.376332 0.732327
-0.73597 0.996821 -0.651667
-0.672402 1.25863 0.491667
0.809093 0.409947 -0.4358
0.848127 0.376393 0.7334
0.737099 0.997195 -0.651667
0.674055 1.25931 0.491667
-1.62698 -0.0844362 -2.42045
-1.62112 0.0649717 -1.49559
-1.58113 0.0946617 -0.326237
-1.56566 0.0220517 0.848204
-1.51756 0.0518883 2.01799
-1.5061 0.155715 2.94495
-1.51567 0.285809 3.86804
-1.62217 0.155272 -2.52464
-1.6142 0.338205 -1.60256
-1.569 0.43251 -0.438201
-1.54604 0.426524 0.7284
-1.46734 0.495969 1.89324
-1.47659 0.601883 2.81983
-1.502 0.724829 3.74375
-1.55478 0.566262 -2.72586
-1.50318 0.737924 -1.80268
-1.49102 1.03803 -0.655597
-1.40985 1.26599 0.489641
-1.30054 1.43934 1.63717
-1.38619 1.53371 2.56455
-1.46282 1.62709 3.49242
-1.49819 1.42836 -3.04701
-1.47203 1.63851 -2.12768
-1.45649 2.00039 -0.988841
-1.42969 2.36839 0.144462
-1.40492 2.64246 1.28349
-1.42155 2.78703 2.2032
-1.45921 2.89412 3.12827
-0.848878 -0.073343 -2.42201
-0.841178 0.0843889 -1.49787
-0.802961 0.0892824 -0.325716
-0.81396 -0.0169779 0.851739
-0.788278 0.0136845 2.024
-0.789525 0.129814 2.94912
-0.800946 0.269407 3.87056
-0.85697 0.152147 -2.52509
-0.787213 0.582563 2.82324
-0.80118 0.712925 3.74569
-0.803207 0.520442 -2.72265
-0.717905 1.53731 2.56422
-0.779612 1.62755 3.49252
-0.749062 1.38976 -3.04381
-0.726107 1.59846 -2.12416
-0.725034 1.98033 -0.986673
-0.722783 2.37294 0.144332
-0.716742 2.65777 1.28186
-0.735175 2.8008 2.20159
-0.766723 2.90374 3.12717
0.767497 -0.0734837 -2.42189
0.820942 0.0840932 -1.49772
0.814481 0.0883422 -0.32521
0.825291 -0.0170999 0.852677
0.767256 0.0137062 2.02526
0.691241 0.129892 2.9501
0.650596 0.26951 3.87132
0.748923 0.152086 -2.52502
0.649426 0.582682 2.8242
0.62278 0.713062 3.74642
0.704027 0.520443 -2.7226
0.572139 1.53758 2.56467
0.588855 1.62775 3.49306
0.74343 1.38981 -3.0437
0.752021 1.59855 -2.12405
0.732252 1.98051 -0.986542
0.683214 2.37323 0.144504
0.638362 2.65806 1.28209
0.621017 2.80106 2.2019
0.6128 2.90395 3.12754
1.56734 -0.0847422 -2.42016
1.61541 0.0644041 -1.49522
1.6022 0.0935054 -0.325377
1.59197 0.021794 0.849702
1.5204 0.0519943 2.01991
1.43906 0.155889 2.94666
1.39 0.28601 3.86948
1.55137 0.1551 -2.52444
1.6163 0.337924 -1.60235
1.58452 0.431352 -0.437476
1.56847 0.426469 0.729782
1.48173 0.496196 1.89511
1.39277 0.602145 2.82145
1.35604 0.725092 3.74512
1.49294 0.566251 -2.72572
1.51028 0.738013 -1.80258
1.50514 1.0381 -0.655335
1.42727 1.26656 0.490149
1.30966 1.43995 1.63788
1.29256 1.53419 2.56553
1.3041 1.62747 3.49348
1.49541 1.42843 -3.04675
1.49651 1.63867 -2.12743
1.469 2.0007 -0.988534
1.40577 2.36887 0.144864
1.34443 2.64298 1.28401
1.32274 2.7875 2.20385
1.31858 2.89453 3.12904
-0.774816 0.495 -1.69577
0 0.337615 -1.62239
-0.864887 0.351412 -1.02067
-0.741944 0.955 1.85074
0 0.438173 1.91862
-0.848333 0.378927 1.31666
0.000269473 0.700991 -1.86099
-0.771299 0.869461 -1.22333
0.0008035 1.48597 1.66576
-0.632287 1.38121 1.06333
0.774879 0.495 -1.69557
0.864875 0.351425 -1.0204
0.748091 0.95521 1.85689
0.848324 0.378936 1.318
0.77263 0.870145 -1.22333
0.633977 1.38182 1.06333
-0.80618 0.415599 0.147995
-0.840772 0.704117 -0.544002
0.000732917 0.281997 -0.436068
-0.829779 0.817482 0.611997
-3.02298e-05 0.262391 0.732863
-0.713546 1.13709 -0.08
0.000564508 1.22524 -0.651667
0.00082631 1.55986 0.491667
0.807646 0.414133 0.1488
0.843 0.703571 -0.543733
0.831609 0.817853 0.612533
0.715174 1.13785 -0.08
-0.886906 0.599558 -1.122
-0.834526 0.760799 0.0339975
-0.833278 0.886241 1.19
0.000366458 0.315847 -1.02053
0.000351343 0.282191 0.148398
-1.51149e-05 0.274439 1.31733
0.000134736 0.495 -1.95315
0.00040175 0.955105 1.92641
0.00041699 0.967641 -1.22333
0.000695409 1.53591 -0.08
0.000814905 1.55545 1.06333
0.886907 0.599286 -1.12187
0.83664 0.760712 0.0344
0.835198 0.886531 1.19067
-1.23638 0.346603 -1.60378
-0.849868 0.219694 -1.55143
-0.857765 0.253573 -2.06504
-1.12117 0.475485 1.89712
-0.781639 0.234342 1.9625
-0.781107 0.518782 2.36212
-1.10135 0.686462 -1.79884
-0.751367 0.577721 -2.25882
-0.712817 1.11673 -1.95958
-0.921968 1.44717 1.63609
-0.630649 1.49615 2.09961
-0.630067 2.05638 1.45843
0.839751 0.219547 -1.55136
0.803741 0.253543 -2.06501
1.23743 0.346462 -1.60367
0.771128 0.234353 1.96393
0.712213 0.518841 2.3634
1.12836 0.475598 1.89885
0.702047 0.577722 -2.2588
0.726043 1.11678 -1.95953
1.10517 0.686507 -1.79879
0.558569 1.4965 2.09984
0.591681 2.05674 1.45854
0.927331 1.44768 1.63644
-1.18831 0.421961 -0.437269
-0.805294 0.250348 -0.381027
-1.19711 0.401428 0.730363
-0.831074 0.179677 0.792033
-1.1135 1.01742 -0.653632
-0.730502 1.48857 -0.81917
-1.04112 1.26231 0.490654
-0.697592 1.81579 0.318
0.811787 0.249144 -0.380505
1.1968 0.420649 -0.436638
0.836709 0.179646 0.793038
1.2083 0.401431 0.731591
0.734676 1.48886 -0.819105
1.12112 1.01765 -0.653501
0.678634 1.81627 0.318085
1.05066 1.26294 0.490908
-1.62405 -0.00973226 -1.95802
-1.62458 0.0354181 -2.47255
-1.23793 -0.0788896 -2.42123
-1.60112 0.0798167 -0.910915
-1.61766 0.201589 -1.54908
-1.23115 0.0746803 -1.49673
-1.5734 0.0583567 0.260983
-1.57507 0.263586 -0.382219
-1.19205 0.091972 -0.325977
-1.54161 0.03697 1.4331
-1.55585 0.224288 0.788302
-1.18981 0.00253692 0.849971
-1.51183 0.103802 2.48147
-1.49245 0.273929 1.95562
-1.15292 0.0327864 2.021
-1.51089 0.220762 3.40649
-1.49134 0.378799 2.88239
-1.14781 0.142764 2.94703
-1.50884 0.505319 3.80589
-1.15831 0.277608 3.8693
-1.61818 0.246739 -2.0636
-1.58848 0.360767 -2.62525
-1.23957 0.15371 -2.52487
-1.5916 0.385358 -1.02038
-1.55869 0.538065 -1.70262
-1.55752 0.429517 0.1451
-1.53001 0.735268 -0.546899
-1.50669 0.461247 1.31082
-1.47794 0.846258 0.60902
-1.47197 0.548926 2.35654
-1.38394 0.967653 1.76521
-1.48929 0.663356 3.28179
-1.43139 1.0678 2.69219
-1.1319 0.592223 2.82153
-1.48241 1.17596 3.61808
-1.15159 0.718877 3.74472
-1.52898 0.652093 -2.26427
-1.52649 0.997312 -2.88644
-1.179 0.543352 -2.72426
-1.4971 0.887975 -1.22914
-1.4876 1.18822 -1.96518
-1.45043 1.15201 -0.0829784
-1.47375 1.51921 -0.822219
-1.3552 1.35266 1.06341
-1.41977 1.81719 0.317052
-1.34337 1.48652 2.10086
-1.35273 2.0409 1.46033
-1.42451 1.5804 3.02849
-1.40387 2.16037 2.38388
-1.05205 1.53551 2.56439
-1.46102 2.26061 3.31035
-1.12122 1.62732 3.49247
-1.48511 1.53344 -2.58735
-1.12363 1.40906 -3.04541
-1.46426 1.81945 -1.55826
-1.09907 1.61848 -2.12592
-1.44309 2.18439 -0.422189
-1.09076 1.99036 -0.987757
-1.41731 2.50542 0.713976
-1.07624 2.37067 0.144397
-1.41323 2.71474 1.74334
-1.06083 2.65011 1.28267
-1.44038 2.84058 2.66574
-1.07836 2.79391 2.2024
-1.11297 2.89893 3.12772
-0.845028 0.00552297 -1.95994
-0.852924 0.0394018 -2.47355
-0.0406904 -0.0734133 -2.42195
-0.822069 0.0868356 -0.911793
-0.0101179 0.0842411 -1.49779
-0.808461 0.0361522 0.263011
0.00576033 0.0888123 -0.325463
-0.801119 -0.00164668 1.43787
0.00566508 -0.0170389 0.852208
-0.788901 0.0717491 2.48656
-0.0105109 0.0136953 2.02463
-0.795235 0.19961 3.40984
-0.788369 0.356188 2.88618
-0.0491418 0.129853 2.94961
-0.801063 0.491166 3.80813
-0.0751748 0.269458 3.87094
-0.830089 0.336294 -2.62387
-0.0540234 0.152116 -2.52506
-0.794196 0.647744 3.28447
-0.752559 1.05994 2.69373
-0.0688937 0.582623 2.82372
-0.790396 1.17024 3.61911
-0.0892 0.712994 3.74605
-0.776134 0.955102 -2.88323
-0.0495901 0.520442 -2.72262
-0.748758 1.58243 3.02837
-0.72654 2.16906 2.38291
-0.0728829 1.53744 2.56445
-0.773167 2.26564 3.30984
-0.0953783 1.62765 3.49279
-0.737584 1.49411 -2.58399
-0.00281557 1.38978 -3.04375
-0.725571 1.78939 -1.55542
0.0129568 1.5985 -2.12411
-0.723908 2.17664 -0.42117
0.00360911 1.98042 -0.986608
-0.719762 2.51535 0.713095
-0.0197845 2.37308 0.144418
-0.725958 2.72928 1.74172
-0.0391898 2.65791 1.28197
-0.750949 2.85227 2.66438
-0.057079 2.80093 2.20174
-0.0769615 2.90384 3.12735
0.79422 0.00530476 -1.95981
0.75821 0.0393009 -2.47346
1.16742 -0.0791129 -2.42103
0.817712 0.0862177 -0.911465
1.21818 0.0742486 -1.49647
0.819886 0.0356211 0.263733
1.20834 0.0909238 -0.325294
0.796273 -0.00169686 1.43897
1.20863 0.00234706 0.851189
0.729249 0.071799 2.48768
1.14383 0.0328502 2.02259
0.670919 0.199701 3.41071
0.670333 0.356287 2.88715
1.06515 0.142891 2.94838
0.636688 0.491286 3.80887
1.0203 0.27776 3.8704
0.726475 0.336264 -2.62381
1.15014 0.153593 -2.52473
0.636103 0.647872 3.28531
0.610782 1.06013 2.69444
1.0211 0.592414 2.82283
0.605817 1.17041 3.61974
0.989409 0.719077 3.74577
0.723729 0.955124 -2.88315
1.09848 0.543347 -2.72416
0.580497 1.58266 3.02887
0.596578 2.16932 2.38329
0.932348 1.53588 2.5651
0.600828 2.26585 3.3103
0.946477 1.62761 3.49327
0.747726 1.49418 -2.58387
1.11942 1.40912 -3.04522
0.742136 1.78953 -1.5553
1.12426 1.61861 -2.12574
0.707733 2.17687 -0.421019
1.10063 1.99061 -0.987538
0.660788 2.51564 0.713296
1.04449 2.37105 0.144684
0.62969 2.72956 1.74199
0.991394 2.65052 1.28305
0.616909 2.85251 2.66472
0.971879 2.79428 2.20288
0.965692 2.89924 3.12829
1.59137 -0.010169 -1.95769
1.55935 0.0351791 -2.4723
1.6088 0.0789548 -0.910297
1.61585 0.201164 -1.54878
1.59708 0.0576497 0.262163
1.59336 0.262429 -0.381427
1.55619 0.0368941 1.43481
1.58022 0.224131 0.789742
1.47973 0.103942 2.48329
1.50107 0.274095 1.95751
1.41453 0.22095 3.40807
1.41591 0.379017 2.88406
1.37302 0.505551 3.8073
1.58383 0.246512 -2.06339
1.52215 0.360676 -2.62508
1.60041 0.384638 -1.01991
1.56329 0.537969 -1.70246
1.57649 0.42891 0.146153
1.54483 0.734726 -0.546406
1.5251 0.461332 1.31244
1.49787 0.846515 0.609965
1.43725 0.54917 2.35828
1.3957 0.968073 1.76649
1.3744 0.663619 3.28328
1.34266 1.06817 2.69349
1.33007 1.17628 3.6193
1.50161 0.652132 -2.26415
1.49417 0.997343 -2.88624
1.50771 0.888057 -1.22896
1.50339 1.18834 -1.96501
1.46621 1.15233 -0.0825932
1.48707 1.5194 -0.821935
1.36847 1.35326 1.06402
[...]
POINT_DATA 29498
VECTORS point_vectors float
-2.904 -3.47569 8.2776
0.275368 0.271852 0.811181
-0.950876 0.24115 1.20525
0.000796225 -0.0474936 0.179273
2.87761 -3.45474 8.20962
-0.27622 0.241981 0.78085
1.01123 0.240902 1.26922
-0.00740622 -0.0428555 0.172968
0.00464454 -0.00448815 0.0701719
0.0397986 -0.080701 0.766375
-0.0691363 -0.0304238 0.0978811
0.0018432 0.00416239 0.0109201
0 0 0
-0.0387937 -0.0781974 0.758903
0.0744237 -0.0325753 0.105744
-0.00166631 0.00377205 0.0102931
-0.739958 -0.430104 20.0434
-1.08928 -0.697736 20.7451
-0.428696 -0.498567 21.384
0.0603018 -0.236712 21.5726
0.719341 0.0634694 21.5946
1.11206 0.162657 21.3824
1.25041 0.0298909 20.7197
-0.797423 -0.34556 19.9251
-1.46519 -0.587753 20.6241
-0.739862 -0.644829 21.4346
-0.101965 -0.453349 21.6598
0.788994 -0.355268 21.7476
1.19401 -0.352607 21.5038
1.15818 -0.398702 21.2373
-0.800323 -0.14758 19.7381
-1.98292 -0.152616 20.1191
-1.69875 -0.345642 21.3027
-0.928024 -0.345563 21.8046
-0.208823 -0.500217 21.8394
0.241761 -0.636394 21.5644
0.520975 -0.70072 21.5521
-0.479561 0.181754 19.7834
-0.953864 0.490856 19.9341
-1.15153 0.659773 20.6913
-0.660767 0.361511 21.2906
-0.262984 0.000587796 21.396
-0.0809643 -0.192162 21.3473
0.0367152 -0.261378 21.1795
-0.970111 -1.18443 19.3585
-1.60822 -2.75506 21.768
-0.474208 -0.15415 19.5584
0.0763457 -0.0137327 20.8902
0.731709 1.20743 20.7814
1.46523 1.72964 19.4695
1.77798 1.37263 16.8057
-1.10455 -0.947238 18.9956
2.06229 0.578592 9.97317
2.6622 1.10646 12.7972
-0.992917 -0.317411 18.726
0.14754 -0.667921 14.2231
0.519614 -1.52232 18.5895
-0.436469 0.367518 19.3459
-1.05798 1.40427 19.2362
-1.34872 1.90709 20.3387
-0.694915 0.947327 21.5887
-0.217637 0.139697 21.5537
-0.0676835 -0.114996 21.5266
0.00326495 -0.311394 21.2874
0.934597 -1.29441 19.277
1.53611 -2.82564 21.8246
0.429467 -0.130548 19.8279
-0.088135 -0.0222846 20.9708
-0.700239 1.19297 20.6213
-1.34056 1.88502 18.5793
-1.6892 1.81049 15.8581
1.06851 -1.07105 18.799
-1.83318 0.487752 6.14673
-2.51028 1.48588 9.60931
0.935592 -0.334858 18.5464
0.230591 -0.538273 8.97636
-0.287883 -1.53972 14.8467
0.433089 0.369913 19.3418
1.07253 1.37317 19.2591
1.34935 1.89198 20.3425
0.676937 0.984509 21.6029
0.189376 0.173799 21.5495
0.0627364 -0.1105 21.501
0.0222827 -0.303381 21.1868
0.763221 -0.467025 20.0212
1.09906 -0.687632 20.7464
0.434295 -0.491169 21.3667
-0.0548599 -0.246363 21.5637
-0.706854 0.0467296 21.5913
-1.19359 0.186883 21.3776
-1.65296 0.197493 20.6023
0.83867 -0.36718 19.8755
1.46461 -0.591704 20.6149
0.741454 -0.638994 21.4219
0.110924 -0.457668 21.6403
-0.748141 -0.365723 21.7349
-1.31824 -0.399077 21.4871
-1.42271 -0.503267 21.3403
0.817959 -0.145443 19.6819
1.95372 -0.155264 20.1194
1.66046 -0.331978 21.2936
0.914604 -0.344396 21.7793
0.221687 -0.481741 21.8011
-0.199879 -0.685368 21.6703
-0.555253 -0.917843 21.3372
0.480015 0.184303 19.7808
0.945358 0.478487 19.9466
1.14021 0.647286 20.692
0.664931 0.381085 21.2971
0.245588 0.00545056 21.4236
0.0807513 -0.196881 21.3922
-0.0318317 -0.242554 21.3282
0 0 0
0 0 0
-0.0175633 0.00879587 0.320297
-0.0213049 -0.155362 0.0595651
-0.00533873 -0.0345293 -0.0417328
0.00987328 0.0330502 1.14562
0 0 0
-0.290434 -0.109275 0.510347
-0.00418418 0.0181106 -0.00773597
0.00942518 0.0264053 0.158898
0 0 0
0.0171369 0.0083682 0.317352
0.0729178 -0.15449 0.025901
-0.0207362 0.030119 1.17706
0.349422 -0.130359 0.608375
-0.0104549 0.0287861 0.166717
0.00850344 -0.00135711 0.118538
0 0 0
0.000133594 -0.00305761 0.0538814
0.00549619 0.0431467 0.10872
-0.000657609 0.00915508 0.341396
0.0026341 0.00724238 0.0164486
-0.000116431 0.0186424 0.0254543
-2.69501e-05 6.68698e-05 0.0131899
0.0128989 0.0126717 0.185372
0 0 0
-0.0054325 0.0422048 0.10813
-0.00196701 0.00616996 0.0149931
-0.000863193 -0.00361904 0.0558783
0.000158451 0.00134519 0.00352099
0.00219999 0.00781944 0.0994134
0 0 0
-6.81567e-05 -0.000149597 0.0216193
1.34789e-08 3.49959e-09 -4.18409e-06
0.00223456 -0.293799 0.0828975
-0.000497057 -0.0146485 0.00141792
0.000794283 0.00216702 0.0147683
0.000184294 0.0103407 0.0833312
-5.4444e-05 -0.000128713 0.00891033
0.000889869 -0.00376705 0.0571678
-0.000252534 0.0020804 0.00541757
-0.00321844 0.00988011 0.135911
-2.6307 -1.35489 20.7685
-2.4873 -4.27351 22.5041
-2.67325 -2.39147 18.4846
1.53985 -0.0284105 19.5626
1.07322 1.37989 13.596
1.38398 0.233692 6.52236
-4.12108 -0.0126277 19.3986
-2.60359 -0.48472 17.0546
-2.66193 2.52779 18.1083
-0.123329 -0.253587 18.6933
-0.306905 -0.171907 7.72321
-0.374431 0.093064 21.8642
2.36711 -4.35532 22.5427
2.74688 -2.72029 18.253
2.62405 -1.35617 20.7613
-1.0527 1.33421 13.3024
-1.05203 0.00577038 4.74534
-1.49663 -0.084738 19.6653
2.62622 -0.471415 16.7082
2.66867 2.46854 18.1461
4.08152 -0.0225596 19.4084
0.518522 0.0331878 5.04706
0.353944 0.133828 21.8666
0.158754 -0.233507 18.7887
-0.300711 -1.09729 21.5492
0.282495 0.265672 8.65494
0.123438 -0.529988 20.9365
0.563931 -0.239545 15.0669
-3.24906 -0.982978 21.5602
-3.53934 2.72326 19.947
-1.45874 -0.520393 21.8225
-1.46721 1.15013 22.4012
-0.401766 0.368345 8.62998
0.335936 -1.10612 21.6413
-0.547074 -0.233522 15.3249
-0.116643 -0.548886 21.0324
3.52745 2.70795 19.9555
3.19093 -0.949301 21.5775
1.45531 1.21241 22.4233
1.4493 -0.508394 21.8186
-1.00604 -0.594136 20.295
-0.765998 -0.391382 19.9803
-0.911304 -0.726889 19.7874
-0.788203 -0.622072 21.195
-1.29066 -0.666769 20.6918
-1.59209 -1.36695 21.0172
-0.192824 -0.367976 21.4969
-0.525415 -0.582205 21.4289
-0.237565 -0.518499 21.6433
0.356337 -0.0937184 21.6439
0.0277739 -0.344325 21.6239
0.157286 -0.16621 21.7647
0.932271 0.125831 21.4977
0.829853 -0.111838 21.6805
0.993912 0.550794 21.6778
1.15517 0.172302 21.0889
1.24269 -0.0366845 21.3447
1.55835 0.757689 21.0073
1.30721 -0.0882353 21.1093
1.92917 0.420459 20.4461
-1.22971 -0.510177 20.127
-0.83337 -0.241626 19.8044
-1.00935 -0.58739 19.559
-1.15015 -0.641853 21.1913
-1.69441 -0.444544 20.4191
-0.371446 -0.564533 21.5529
-1.18681 -0.675002 21.4288
0.283179 -0.39563 21.8439
-0.484272 -0.592342 21.7555
1.0312 -0.360059 21.6028
0.288371 -0.772369 21.8211
1.34003 -0.316477 21.3628
0.786096 -0.766754 21.5939
2.03503 -0.1544 19.904
1.09051 -0.688596 21.2369
1.94526 -0.199517 19.8743
-1.32074 -0.157515 19.7734
-0.692748 0.0746267 19.7228
-0.978065 -0.212172 19.2888
-1.94788 -0.243793 20.912
-1.50597 0.385336 19.9177
-1.38089 -0.408247 21.6623
-1.66114 0.406445 20.9144
-0.535213 -0.362525 21.8583
-0.964214 0.18822 21.6102
0.0527848 -0.577974 21.6962
-0.286502 -0.149338 21.6147
0.495322 -0.714979 21.3744
0.0311484 -0.371905 21.4101
0.143333 -0.808578 21.5946
0.200724 -0.468421 21.2592
0.687305 -1.20874 21.0985
-0.691424 0.31624 19.804
-0.505314 0.260501 19.584
-1.1319 0.627517 20.2829
-1.14384 0.908902 19.6112
-0.961345 0.562643 21.0366
-1.33938 1.13787 20.5656
-0.422311 0.175128 21.4562
-0.74238 0.62583 21.469
-0.160383 -0.0997489 21.289
-0.242518 0.0795707 21.4574
-0.013022 -0.214478 21.1535
-0.0903191 -0.173638 21.493
0.0173616 -0.250557 21.5618
-1.6934 -2.38607 19.7553
-1.05644 -1.06022 19.1634
-0.063128 -1.95594 18.763
-0.901157 -1.04641 21.4478
-0.0280119 -3.08649 22.6297
-0.174928 -0.102834 20.3878
0.0124118 -0.553709 15.9247
0.349996 0.542656 21.0131
-0.00443897 -0.13361 18.7305
1.09542 1.46454 19.9806
-0.0236012 0.842452 17.7348
1.95949 2.00926 18.4719
2.09654 1.54443 15.1163
-0.0120086 1.6455 14.5914
2.39026 1.2605 15.9677
0.193371 1.96734 12.4657
-1.07455 -0.651407 18.7739
-0.110576 -1.63919 17.9934
2.91459 0.412831 11.9588
0.0645899 -1.02876 4.58202
0.151142 0.498303 0.0775698
1.51486 -1.21711 11.0985
0.99455 1.64797 3.27847
-0.704366 0.209944 18.9785
-0.0976817 -0.428067 17.7635
0.397025 -1.2521 17.3218
-0.140665 -0.355576 21.6231
-0.456086 -0.116714 0.510332
-0.00884914 -0.599081 20.8714
-0.236082 -1.0687 6.24543
-0.701539 0.783068 19.1701
-0.0045803 0.471402 19.0963
-1.24833 1.74542 19.7877
0.0179264 2.03408 18.7947
-1.14117 1.67151 21.1523
0.00830536 2.85324 19.9534
-0.399613 0.455725 21.6779
-0.0296419 1.41479 21.7506
-0.110765 -0.00111421 21.4283
-0.0273875 0.252496 21.5862
-0.0435397 -0.191685 21.4378
-0.0364767 -0.121607 21.5541
0.00277668 -0.269706 21.4942
1.64988 -2.57347 19.7524
1.02995 -1.22868 19.0156
0.934226 -0.794746 19.7178
0.89187 -1.06938 21.4214
1.60865 -1.41256 21.0268
0.169221 -0.110373 20.4418
0.240948 -0.535652 21.6422
-0.359121 0.528481 20.995
-0.160201 -0.18014 21.7557
-0.955055 1.49366 19.2963
-0.992743 0.535141 21.6654
-1.89124 2.21387 18.0334
-1.7518 1.66922 12.3983
-1.6202 0.962828 20.7994
-2.52002 1.93483 13.1997
-1.83942 0.524869 20.4679
1.03134 -0.71322 18.5917
1.05911 -0.666857 19.4506
-2.79673 0.839293 7.99151
0.559798 -1.0071 -0.603653
-2.13881 0.0231249 17.8269
-1.08728 -0.879543 4.64812
-2.29526 0.385774 16.6256
0.674683 0.230388 18.9268
0.994796 -0.22719 19.1822
0.13987 -1.2922 11.6095
0.143971 -0.272837 21.6347
-0.156612 -0.693873 19.4417
0.0104256 -0.569244 21.1125
-0.63011 -1.38785 21.409
0.703839 0.777303 19.1782
0.502389 0.261291 19.5812
1.26191 1.71736 19.7993
1.13581 0.878711 19.6326
1.12865 1.70947 21.1519
1.3338 1.12718 20.5662
0.371548 0.488721 21.7026
0.736559 0.658914 21.4758
0.0939517 0.0237642 21.4368
0.219761 0.103757 21.4586
0.00250846 -0.181191 21.2838
0.0731325 -0.143335 21.5215
-0.0436157 -0.314558 21.4537
1.03818 -0.630404 20.2913
0.810501 -0.435951 19.9522
0.786387 -0.613321 21.1874
1.29499 -0.670682 20.6879
0.189976 -0.35975 21.4862
0.521623 -0.576524 21.4185
-0.347415 -0.0983566 21.6262
-0.021781 -0.346205 21.6065
-0.971778 0.133482 21.5101
-0.805053 -0.13779 21.666
-1.26477 0.1808 21.1451
-1.33499 -0.00544575 21.3518
-1.56858 -0.116904 21.0166
1.26062 -0.542503 20.0983
0.853882 -0.260519 19.7547
1.14713 -0.638635 21.1763
1.69429 -0.446722 20.411
0.373259 -0.561363 21.5381
1.16758 -0.659899 21.4154
-0.257186 -0.402147 21.8065
0.474224 -0.57047 21.7276
-1.07558 -0.404305 21.6055
-0.254475 -0.761685 21.7901
-1.49785 -0.382693 21.5559
-0.75989 -0.888684 21.6684
-1.12476 -0.791026 21.1689
1.37241 -0.156773 19.7179
0.699397 0.0817878 19.6942
1.92073 -0.242618 20.8957
1.4759 0.366015 19.9308
1.3507 -0.39774 21.6416
1.63142 0.397112 20.9141
0.53697 -0.355459 21.8332
0.964063 0.194635 21.6068
0.00983604 -0.582422 21.7185
0.295216 -0.132903 21.6075
-0.507274 -0.810796 21.4953
-0.00468508 -0.363305 21.4574
-0.174847 -0.452901 21.0974
0.685636 0.31267 19.8129
1.1233 0.603251 20.2875
0.960642 0.570309 21.0343
0.410594 0.183324 21.4744
0.159989 -0.103232 21.329
-0.00974901 -0.212375 21.1183
-1.10376 -0.561578 20.213
-2.20918 -2.57612 19.189
-1.4512 -1.18317 20.1115
-1.85208 -1.01043 19.6625
-0.996515 -0.673398 19.6536
-2.04284 -1.4437 20.942
-0.956686 -0.655126 21.2163
-0.884292 -0.247565 13.8874
-0.790458 -0.887862 21.5862
-1.23789 -1.20387 21.8435
-0.176375 -0.709556 21.6028
-0.21973 -0.45973 21.5254
0.312285 0.230043 11.5375
-0.0138153 -0.308431 21.5985
0.0967174 -0.750071 20.9962
0.199138 -0.330267 21.546
0.38587 -0.234729 21.7614
0.604274 0.385175 14.3417
0.563641 0.163948 21.8461
0.642832 -0.262189 20.5797
1.43507 0.374775 21.114
1.05072 -0.0766018 21.5344
1.54947 1.46186 14.2935
1.32192 0.666766 21.4723
1.76409 -0.143218 19.7523
1.94929 0.370946 20.9142
1.31853 -0.11143 21.2008
2.46913 1.39356 15.7923
1.63263 0.688507 20.8856
2.11758 -0.0265101 20.0768
2.12697 0.1691 20.2679
-1.32302 -0.343751 19.9418
-2.98079 -1.55752 17.3849
-2.02446 -0.265973 18.9619
-1.00662 -0.404147 19.4076
-3.72833 -1.01367 20.2254
-1.54968 -0.53211 21.0975
-3.51533 -0.455025 21.4578
-1.39873 -1.76854 21.1552
-0.806059 -0.678642 21.6401
-2.37904 -0.825245 21.9643
-0.402827 -0.767477 19.1864
-0.145078 -0.625394 21.8911
-0.709904 -0.21556 20.2213
0.536572 -0.3425 16.123
0.535944 -0.774177 21.7144
-0.788723 -1.27786 1.96034
-0.103223 -0.551412 20.2784
0.935098 -0.855053 18.6227
0.921795 -0.747756 21.5812
0.789294 -1.10245 7.7871
0.538225 -0.989598 21.6828
1.42925 -1.03485 19.8812
-1.0501 0.208302 19.7161
-1.47254 0.867643 18.2813
-0.782925 0.53015 19.5098
-0.730097 0.129181 19.406
-2.19187 0.98761 19.3154
-1.71251 0.451611 20.4452
-2.85107 2.57936 19.7652
-1.30961 1.1194 20.0682
-2.58463 1.04784 20.7945
-1.41534 0.333577 21.369
-3.3557 2.70612 22.1762
-1.15016 1.01631 21.1179
-1.27061 0.508773 21.9198
-0.573907 0.0241046 21.6493
-0.709877 0.48945 22.1068
-0.424626 0.321828 21.5677
-0.357071 -0.0625176 21.7354
-0.127644 -0.265606 21.5183
-0.254705 -0.145849 21.7049
-0.148251 -0.061092 21.3904
-0.0564978 -0.390108 21.5109
0.110463 -0.423959 21.3922
-0.0307826 -0.582502 21.5976
-0.0404025 -0.237309 21.3203
0.155073 -0.549269 21.0293
2.21033 -2.83184 19.0633
-0.07708 -4.30255 19.8183
-0.151706 -6.60548 16.2351
-0.10239 -1.88554 18.3477
-0.00107253 -1.85349 15.5735
0.875126 -0.259945 13.8294
0.000428509 -1.18364 18.7084
0.0116207 -0.202252 5.67569
-0.186015 0.105202 12.3315
0.00151383 -0.343107 17.2536
-0.0127724 0.0362479 9.6107
-0.614825 0.38526 14.2569
-0.0131422 0.222138 18.0402
-0.0503228 0.347407 4.92596
-1.31217 1.35805 12.1045
-0.0343622 1.10873 15.7849
-0.0414093 -0.653322 1.11028
0.0402218 0.826607 5.41269
-2.4103 1.88904 12.8487
0.0219411 2.34076 13.5358
0.716683 1.60065 0.248778
0.445214 1.9445 5.74695
3.09277 -1.76969 16.9565
-0.133295 -0.474108 13.8258
-0.0996187 -1.05665 17.7273
1.03836 -1.28768 -0.208406
-0.363488 0.811972 0.0632366
-0.0231684 1.34001 -4.1104
-0.400375 -0.334507 2.53334
-0.376088 0.0813928 2.42945
0.122876 1.89885 -2.87041
1.44913 0.880694 18.2313
0.00456886 1.07613 18.7853
-0.0388501 0.330055 18.4263
0.031787 4.50144 16.8862
2.8534 2.54934 19.7778
0.0151556 2.54733 19.3942
0.00354298 5.51846 18.3299
3.3658 2.7826 22.1837
-0.0216169 2.61946 21.1503
-0.0341199 2.16004 22.866
0.688733 0.524265 22.1101
-0.0312198 0.680053 21.8224
-0.0308678 0.35462 22.0486
0.249828 -0.0648555 21.7321
-0.0257014 0.0467628 21.4784
-0.0669918 -0.11055 21.6997
0.0565551 -0.480789 21.6384
-0.0328544 -0.226016 21.5949
-0.000717099 -0.581995 21.435
1.14305 -0.594603 20.1988
1.50075 -1.28027 20.0816
1.96209 -1.10236 19.572
1.01494 -0.743983 19.568
2.06211 -1.46647 20.9497
0.95112 -0.65932 21.2066
0.791511 -0.89465 21.5798
1.24587 -1.19623 21.8148
0.198305 -0.723249 21.6236
0.218792 -0.45475 21.512
0.00832381 -0.321734 21.574
-0.0825739 -0.766009 21.0654
-0.19277 -0.349313 21.5995
-0.371196 -0.250689 21.732
-0.564029 0.140989 21.8327
-0.637509 -0.306686 20.7238
-1.42179 0.341354 21.0606
-1.08354 -0.0893333 21.5299
-1.33125 0.713614 21.4509
-1.79121 -0.0697212 18.4674
-2.11853 0.655328 19.6286
-1.41614 -0.086519 21.2976
-1.77945 1.08718 20.1885
-2.51129 0.0350849 16.6517
-2.44325 0.472878 19.3192
1.35824 -0.369312 19.8856
2.06701 -0.272911 18.8433
1.05854 -0.464932 19.2765
3.70599 -1.00956 20.2221
1.53643 -0.529236 21.0832
3.48005 -0.443426 21.4271
1.42684 -1.7312 21.3534
0.791565 -0.651328 21.6155
2.34274 -0.798435 21.9539
0.42033 -0.814839 19.4569
0.155293 -0.611755 21.8609
0.738654 -0.230913 20.4078
-0.482015 -0.392157 16.3255
-0.502601 -0.842863 21.7023
0.119234 -0.409108 19.088
-0.755971 -0.770502 15.1974
-1.08135 -0.934477 21.5085
-0.412889 -1.07776 20.6737
-1.60984 -1.36326 16.7758
1.0549 0.214783 19.7055
0.781311 0.524671 19.5166
0.738879 0.142658 19.3531
2.17043 0.951986 19.3478
1.68654 0.432483 20.4533
1.29881 1.09448 20.0787
2.56084 1.03101 20.7953
1.40524 0.330568 21.3619
1.14906 1.03612 21.1163
1.27363 0.528482 21.925
0.577449 0.0363229 21.6463
0.417517 0.352587 21.5858
0.358999 -0.0356339 21.7372
0.148743 -0.247137 21.5312
0.1251 -0.0317054 21.3856
0.0960443 -0.354741 21.5977
-0.0957183 -0.425262 21.4397
0.0491642 -0.214228 21.455
-0.0908827 -0.559821 20.9386
-1.68259 -1.14842 19.8953
-0.958493 -1.04045 21.7347
0.0964459 -0.449772 21.441
0.729621 -0.00739286 21.5066
1.74014 0.332269 21.0815
2.08539 0.318089 20.2908
-2.06173 -0.702036 19.2506
-2.27638 -1.30499 22.0189
-0.790144 -1.50759 20.3089
-0.0382198 -0.207232 18.0491
0.595991 -0.707723 17.5319
1.18569 -0.780559 19.1425
-1.33321 0.414121 19.1681
-2.48821 1.15742 20.2384
-2.19679 0.888114 21.6579
-0.681956 0.196128 21.8536
-0.196816 -0.238588 21.6274
0.0411714 -0.48454 21.3874
-0.108288 -5.72289 18.6454
0.0098751 -0.376557 8.06402
-0.0089257 -0.06667 7.02599
-0.0184675 0.0587093 8.09609
-0.0581354 0.0364143 4.56449
0.060015 1.67519 4.93092
-0.137099 -3.27071 13.7395
-0.0128338 -0.302828 -2.35483
0.299025 1.4307 -4.61615
-0.0251358 1.5542 17.1078
0.0156966 4.31721 18.9343
-0.0278097 5.68071 22.5033
-0.0329283 0.902368 22.3304
-0.0504177 0.144536 21.8245
-0.0571318 -0.38174 21.4634
1.74687 -1.2656 19.8407
0.964265 -1.04217 21.7182
-0.0781792 -0.477829 21.4986
-0.722663 -0.0380243 21.5069
-1.79302 0.461713 20.6524
-2.36319 0.699726 19.3746
2.16443 -0.734271 19.1158
2.26636 -1.28958 21.9841
0.799312 -1.49924 20.5027
0.0698766 -0.293123 18.3233
-0.45857 -0.619929 15.3022
-1.33032 -1.00512 16.0074
1.34311 0.43064 19.1385
2.46344 1.12201 20.2455
2.19741 0.897033 21.6565
0.681007 0.219379 21.8562
0.213778 -0.200056 21.6353
-0.0317626 -0.490157 21.4307
-2.65719 -2.20046 4.58909
-9.54443e-06 -0.000219724 0.00347804
-0.00632347 -0.00201484 0.168823
0.107829 -0.199979 0.470299
0.00230334 -0.0402419 -0.00606091
0.238659 0.0666645 0.818855
-2.79921e-16 -3.46481e-18 3.43042e-16
-0.165225 0.284203 0.325274
-0.443446 0.212401 1.21262
-0.0587215 -0.0420174 -0.00082006
-0.024674 0.00321944 0.00785012
0.00307455 0.00295418 0.0518837
-3.75961e-06 -0.000183027 0.0028995
2.67978 -2.19739 4.62933
0.00607688 -0.00209163 0.164732
-0.00532137 -0.0227319 -0.00760453
-0.101351 -0.218799 0.458279
-0.245166 0.0598103 0.841744
0.134424 0.23176 0.266045
0 0 0
0.424778 0.202388 1.16288
0.0194105 0.00728859 0.00547585
0.059829 -0.0342242 -0.00656068
-0.00342383 0.00360717 0.0544482
0 0 0
-0.00207476 0.0117856 0.185622
0.00497963 0.00784651 0.175367
-0.00191841 -0.0012189 0.0287796
0.0167723 -0.0201667 0.563403
1.38868e-05 0.0100748 0.265277
-0.0146602 0.0662536 0.281526
-3.52668e-18 4.13014e-19 -7.71988e-17
-0.729853 -0.455992 1.08005
-0.000228295 -0.000213921 0.018451
-9.55778e-05 0.00362284 0.0288396
-0.0709054 0.0322138 0.0608495
0 0 0
0 0 0
0 0 0
0.00221054 0.000499853 0.027738
0 0 0
0.00534672 -0.00299492 0.0708078
-0.00452599 0.00765914 0.215633
-0.00385203 0.00500113 0.147315
-0.0165105 -0.0208207 0.539887
-4.70339e-18 -5.99538e-19 9.67483e-17
0.00403047 0.014545 0.294702
0.000263646 0.00343138 0.0157855
0.552352 -0.24278 0.73072
0.0674589 0.0299421 0.0569879
0.000162843 -7.48618e-05 0.0205581
-0.000445961 0.00567291 0.0393165
0 0 0
-0.00218411 0.000433874 0.0259495
0 0 0
0 0 0
0 0 0
-2.11561 -3.10406 1.43227
0 0 0
-0.0396698 -4.05616 1.83739
0 0 0
0.000107134 -0.000153037 0.0069303
0 0 0
-0.00330615 -0.00724251 0.000415018
-0.000636145 0.00322808 0.0600912
-0.00500653 -0.11191 0.0156102
0.000346881 0.00276099 0.0453454
0 0 0
0.00590954 0.000991338 0.216485
-2.84663e-05 0.01025 0.0384692
-0.0566134 -0.0980475 0.392109
-0.0245213 0.00809277 0.0606082
-0.00134495 0.00261554 -0.00198165
-0.000404562 -0.00130197 0.0317831
0 0 0
0.000251583 -2.48277e-05 0.0029288
2.12158 -3.09195 1.42875
0 0 0
-7.31799e-05 -0.000120718 0.0035515
0 0 0
0.000133899 -0.000486387 2.47378e-05
0 0 0
0 0 0
-0.000336281 0.0024548 0.0438811
0.0264052 0.00866744 0.0649581
0.0576258 -0.100665 0.399359
-0.000221783 -1.65444e-05 0.00228527
0 0 0
0.00738181 0.112628 0.39395
0 0 0
0 0 0
0 0 0
4.67621e-05 -0.000335098 0.0204744
0 0 0
0.0069938 0.0511815 0.128286
0 0 0
1.04461e-07 3.22272e-07 -3.90181e-05
1.53077e-08 5.66409e-09 -5.75843e-06
0.0178881 0.040275 0.0818227
-0.049771 0.0748481 0.423979
0 0 0
-0.000366552 0.334658 0.562357
-6.8209e-05 0.00467042 0.0640123
-4.22724e-05 5.3872e-05 0.0119873
0 0 0
0.019396 0.132107 0.611745
0 0 0
0 0 0
-0.00752852 0.0548816 0.137338
0 0 0
0.049806 0.0760508 0.429801
-0.0196937 0.0441568 0.0885775
-0.000805908 -0.00169772 0.0202776
-0.112378 -0.0532458 0.349297
0 0 0
-0.0049105 -0.0169461 0.0471626
-0.000614924 0.0796201 0.437823
0.00943813 0.0323086 0.0939525
0.00151854 0.0761697 0.233357
0 0 0
-0.00192946 0.00349141 0.0720993
0 0 0
0.000960508 -0.000744062 0.00436915
0.00144404 0.00277323 0.040118
0 0 0
0 0 0
0 0 0