# vtk DataFile Version 2.0
tet_velo
ASCII
DATASET UNSTRUCTURED_GRID
POINTS 29498 float
-0.693369 0.225 -2.005
-0.684783 0.325 2.025
-0.695 0.722875 -1.905
-0.705 1.01131 1.955
0.705 0.215 -1.99919
0.675 0.325 2.03397
0.715 0.715 -1.90575
0.696607 1.005 1.965
-0.765183 0.183657 -0.661667
-0.795508 0.183804 0.681667
-0.780458 0.901145 -0.618333
-0.768095 0.981593 0.668334
0.773029 0.173638 -0.654803
0.799621 0.173712 0.689584
0.784307 0.887105 -0.6155
0.767444 0.973039 0.67475
-1.45321 -0.169655 -3.07763
-1.46028 -0.122367 -2.02455
-1.5153 -0.152777 -0.680028
-1.5406 -0.164071 0.675246
-1.48556 -0.0696038 2.02067
-1.46649 0.00507807 3.07814
-1.47181 0.0649127 4.12738
-1.4487 0.143763 -3.04881
-1.45556 0.215014 -2.00162
-1.52461 0.207583 -0.668155
-1.54165 0.202776 0.669821
-1.45476 0.296173 2.00432
-1.4442 0.369453 3.06115
-1.45929 0.428421 4.11233
-1.44944 0.722237 -2.97493
-1.45921 0.79088 -1.92451
-1.53225 0.913515 -0.629497
-1.52766 0.971413 0.660829
-1.45979 1.01483 1.95677
-1.44627 1.08381 3.01599
-1.45789 1.1476 4.07621
-1.46754 1.70626 -2.90761
-1.47994 1.79303 -1.86636
-1.51146 1.93698 -0.588302
-1.52528 2.05393 0.677131
-1.512 2.12578 1.95537
-1.49816 2.17676 2.99703
-1.4915 2.23081 4.05068
-0.712224 -0.166163 -3.07887
-0.704014 -0.115253 -2.02709
-0.749507 -0.166164 -0.676234
-0.786307 -0.178968 0.685962
-0.747452 -0.0565157 2.03702
-0.730587 0.0142239 3.09057
-0.734474 0.0683184 4.13621
-0.710687 0.139833 -3.048
-0.706836 0.379744 3.07222
-0.722735 0.432052 4.12003
-0.709866 0.692645 -2.96648
-0.70913 1.08471 3.01906
-0.720721 1.14812 4.08005
-0.717737 1.68374 -2.89878
-0.723676 1.77102 -1.85667
-0.751499 1.92792 -0.581156
-0.771085 2.05442 0.679817
-0.766938 2.12569 1.95519
-0.755743 2.17529 2.99698
-0.748934 2.22894 4.05168
0.738755 -0.176277 -3.07389
0.744229 -0.125412 -2.02125
0.779614 -0.176224 -0.669503
0.770497 -0.188107 0.693677
0.689945 -0.0603335 2.04553
0.709069 0.00954456 3.09908
0.725511 0.0622664 4.14446
0.725475 0.129929 -3.04365
0.713078 0.375688 3.08101
0.729971 0.426165 4.12843
0.730359 0.683231 -2.96419
0.721123 1.07885 3.02808
0.734552 1.14164 4.08848
0.768584 1.67347 -2.89526
0.774059 1.76048 -1.85312
0.768115 1.91724 -0.576544
0.744855 2.04489 0.686008
0.725313 2.11731 1.96259
0.725951 2.16737 3.00473
0.732093 2.22115 4.05943
1.47529 -0.190079 -3.06775
1.48367 -0.14307 -2.01359
1.53258 -0.173117 -0.667272
1.53481 -0.181945 0.690202
1.45671 -0.0813596 2.03721
1.44981 -0.00634735 3.09479
1.46294 0.0520208 4.14364
1.46084 0.123497 -3.04001
1.46138 0.194071 -1.99179
1.52884 0.186609 -0.656052
1.54692 0.184558 0.684853
1.45287 0.285522 2.0215
1.44797 0.358671 3.07825
1.46417 0.415772 4.12884
1.46579 0.702376 -2.96876
1.46909 0.77039 -1.9193
1.53278 0.890312 -0.620659
1.5296 0.953213 0.674536
1.4607 1.00078 1.97421
1.45563 1.07094 3.03327
1.46891 1.13405 4.09275
1.51148 1.68563 -2.90003
1.51983 1.77198 -1.85858
1.52378 1.91595 -0.578635
1.50483 2.03489 0.689561
1.47927 2.10879 1.96994
1.47308 2.16068 3.01229
1.47609 2.21503 4.066
-0.73741 0.473937 -1.99823
0.00581551 0.232209 -1.98989
-0.742247 0.191357 -1.33333
-0.714064 0.668155 2.00917
-0.00489148 0.306699 2.04779
-0.76176 0.232788 1.35333
0.00999999 0.779039 -1.96548
-0.763793 0.838074 -1.26167
-0.00419649 1.04957 2.00141
-0.755094 1.015 1.31167
0.75265 0.465 -1.99512
0.741955 0.191378 -1.327
0.702653 0.665 2.01633
0.754087 0.232579 1.36178
0.780028 0.831427 -1.26063
0.753822 1.01082 1.31988
-0.780428 0.183648 0.00999999
-0.846892 0.542401 -0.64
0.00392271 0.157159 -0.658235
-0.849474 0.582699 0.675
0.00205678 0.166094 0.685625
-0.77597 0.943063 0.025
0.00192463 1.26463 -0.616917
-0.000325517 1.47085 0.671542
0.786323 0.173677 0.0173901
0.842985 0.530372 -0.635152
0.845198 0.573376 0.682167
0.777592 0.931789 0.029625
-0.884218 0.508169 -1.2975
-0.848546 0.56255 0.0175
-0.894413 0.625427 1.3325
0.00486911 0.113126 -1.33017
0.00298974 0.161631 0.013695
-0.00141735 0.172499 1.35756
0.00790775 0.469469 -2.20887
-0.00454399 0.666577 2.11319
0.00596231 0.963456 -1.26115
0.000799557 1.46782 0.0273125
-0.00226101 1.40378 1.31577
0.869582 0.497686 -1.29381
0.844336 0.551874 0.0235075
0.894113 0.619188 1.34083
-1.07447 0.220007 -2.00331
-0.698691 0.0548734 -2.01604
-0.702028 0.182416 -2.5265
-1.06977 0.310586 2.01466
-0.716118 0.134242 2.03101
-0.695809 0.352372 2.54861
-1.07711 0.756877 -1.91475
-0.702433 0.70776 -2.43574
-0.709338 1.24695 -1.88083
-1.08239 1.01307 1.95589
-0.707065 1.04801 2.48703
-0.735969 1.5685 1.9551
0.724614 0.0447938 -2.01022
0.715237 0.172464 -2.52142
1.08319 0.204536 -1.99549
0.682472 0.132333 2.03975
0.694039 0.350344 2.55749
1.06394 0.305261 2.02773
0.72268 0.699116 -2.43497
0.744529 1.23774 -1.87943
1.09205 0.742695 -1.91252
0.708865 1.04192 2.49654
0.71096 1.56115 1.9638
1.07865 1.00289 1.9696
-1.14489 0.19562 -0.664911
-0.757345 0.00874654 -0.66895
-1.16858 0.19329 0.675744
-0.790907 0.00241779 0.683815
-1.15635 0.90733 -0.623915
-0.765979 1.41453 -0.599745
-1.14788 0.976503 0.664581
-0.76959 1.51801 0.674075
0.776321 -0.00129289 -0.662153
1.15094 0.180123 -0.655428
0.785059 -0.00719733 0.69163
1.17327 0.179135 0.687218
0.776211 1.40217 -0.596022
1.15854 0.888708 -0.618079
0.75615 1.50897 0.680379
1.14852 0.963126 0.674643
-1.45675 -0.146011 -2.55109
-1.45096 -0.0129462 -3.06322
-1.08272 -0.167909 -3.07825
-1.48779 -0.137572 -1.35229
-1.45792 0.0463234 -2.01308
-1.08215 -0.11881 -2.02582
-1.52795 -0.158424 -0.00239114
-1.51996 0.0274031 -0.674091
-1.13241 -0.159471 -0.678131
-1.51308 -0.116838 1.34796
-1.54112 0.0193524 0.672534
-1.16345 -0.17152 0.680604
-1.47602 -0.0322629 2.54941
-1.47016 0.113284 2.01249
-1.11651 -0.0630598 2.02884
-1.46915 0.0349954 3.60276
-1.45534 0.187265 3.06965
-1.09854 0.00965099 3.08436
-1.46555 0.246667 4.11985
-1.10314 0.0666155 4.1318
-1.45213 0.179388 -2.52521
-1.44907 0.433 -3.01187
-1.07969 0.141798 -3.0484
-1.49009 0.211299 -1.33488
-1.45739 0.502947 -1.96306
-1.53313 0.20518 0.000833448
-1.52843 0.560549 -0.648826
-1.4982 0.249474 1.33707
-1.53465 0.587094 0.665325
-1.44948 0.332813 2.53274
-1.45727 0.655502 1.98055
-1.45175 0.398937 3.58674
-1.44523 0.726633 3.03857
-1.07552 0.374598 3.06669
-1.45859 0.788012 4.09427
-1.09101 0.430237 4.11618
-1.45433 0.756558 -2.44972
-1.45849 1.21425 -2.94127
-1.07965 0.707441 -2.97071
-1.49573 0.852197 -1.277
-1.46957 1.29195 -1.89543
-1.52996 0.942464 0.0156662
-1.52185 1.42525 -0.6089
-1.49372 0.993122 1.3088
-1.52647 1.51267 0.66898
-1.45303 1.04932 2.48638
-1.48589 1.5703 1.95607
-1.45208 1.11571 3.5461
-1.47221 1.63029 3.00651
-1.0777 1.08426 3.01753
-1.4747 1.68921 4.06344
-1.08931 1.14786 4.07813
-1.47374 1.74964 -2.38698
-1.09264 1.695 -2.9032
-1.4957 1.865 -1.22733
-1.10181 1.78203 -1.86151
-1.51837 1.99546 0.0444145
-1.13148 1.93245 -0.584729
-1.51864 2.08985 1.31625
-1.14818 2.05418 0.678474
-1.50508 2.15127 2.4762
-1.13947 2.12573 1.95528
-1.49483 2.20379 3.52385
-1.12695 2.17603 2.997
-1.12022 2.22988 4.05118
-0.708119 -0.140708 -2.55298
-0.711456 -0.0131648 -3.06344
0.0132655 -0.17122 -3.07638
-0.72676 -0.140709 -1.35166
0.0201076 -0.120333 -2.02417
-0.767907 -0.172566 0.0048641
0.0150535 -0.171194 -0.672868
-0.76688 -0.117742 1.36149
-0.00790514 -0.183537 0.689819
-0.73902 -0.0211459 2.5638
-0.0287538 -0.0584246 2.04128
-0.732531 0.0412711 3.61339
-0.718712 0.196984 3.0814
-0.010759 0.0118842 3.09482
-0.728605 0.250185 4.12812
-0.00448129 0.0652924 4.14034
-0.710277 0.416239 -3.00724
0.00739372 0.134881 -3.04583
-0.714785 0.405898 3.59613
-0.707983 0.732225 3.04564
0.00312119 0.377716 3.07662
-0.721728 0.790085 4.10004
0.00361775 0.429109 4.12423
-0.713801 1.18819 -2.93263
0.0102467 0.687938 -2.96533
-0.714926 1.11641 3.54955
-0.732437 1.63 3.00802
0.00599637 1.08178 3.02357
-0.734828 1.68853 4.06586
0.00691548 1.14488 4.08426
-0.720706 1.72738 -2.37772
0.0254233 1.6786 -2.89702
-0.737588 1.84947 -1.21891
0.0251913 1.76575 -1.85489
-0.761292 1.99117 0.0493309
0.00830798 1.92258 -0.57885
-0.769012 2.09006 1.3175
-0.013115 2.04966 0.682913
-0.761341 2.15049 2.47609
-0.0208125 2.1215 1.95889
-0.752339 2.20212 3.52433
-0.0148963 2.17133 3.00086
-0.00842047 2.22504 4.05556
0.741492 -0.150845 -2.54757
0.732115 -0.0231742 -3.05877
1.10702 -0.183178 -3.07082
0.761921 -0.150818 -1.34538
1.11395 -0.134241 -2.01742
0.775055 -0.182165 0.0120868
1.1561 -0.17467 -0.668388
0.730221 -0.12422 1.36961
1.15265 -0.185026 0.691939
0.699507 -0.0253945 2.57231
1.07333 -0.0708465 2.04137
0.71729 0.0359055 3.62177
0.711074 0.192616 3.09004
1.07944 0.00159861 3.09693
0.727741 0.244216 4.13645
1.09423 0.0571436 4.14405
0.727917 0.40658 -3.00392
1.09316 0.126713 -3.04183
0.721524 0.400926 3.60472
0.717101 0.727268 3.05455
1.08052 0.367179 3.07963
0.732261 0.783903 4.10845
1.09707 0.420969 4.12863
0.749471 1.17835 -2.92972
1.09808 0.692804 -2.96647
0.727838 1.11024 3.55828
0.723537 1.62311 3.01641
1.08838 1.0749 3.03068
0.733323 1.68139 4.07396
1.10173 1.13784 4.09061
0.771321 1.71697 -2.37419
1.14003 1.67955 -2.89764
0.771087 1.83886 -1.21483
1.14694 1.76623 -1.85585
0.756485 1.98107 0.0547323
1.14595 1.9166 -0.577589
0.735084 2.0811 1.3243
1.12484 2.03989 0.687785
0.725632 2.14234 2.48366
1.10229 2.11305 1.96627
0.729022 2.19426 3.53208
1.09952 2.16403 3.00851
1.10409 2.21809 4.06272
1.47948 -0.166575 -2.54067
1.46806 -0.0332911 -3.05388
1.50812 -0.158093 -1.34043
1.47253 0.0255008 -2.00269
1.53369 -0.177531 0.0114648
1.53071 0.00674602 -0.661662
1.49576 -0.131652 1.36371
1.54087 0.00130651 0.687527
1.45326 -0.0438535 2.566
1.45479 0.102081 2.02935
1.45637 0.0228367 3.61921
1.44889 0.176162 3.08652
1.46355 0.233896 4.13624
1.46111 0.158784 -2.5159
1.46331 0.412936 -3.00439
1.49511 0.19034 -1.32392
1.46524 0.482231 -1.95554
1.53788 0.185584 0.0144
1.53081 0.53846 -0.638356
1.4999 0.23504 1.35318
1.53826 0.568886 0.679694
1.45042 0.322097 2.54987
1.45679 0.64315 1.99785
1.45607 0.387221 3.60354
1.4518 0.714807 3.05576
1.46654 0.774909 4.11079
1.46744 0.736383 -2.44403
1.48864 1.194 -2.93439
1.50093 0.830351 -1.26998
1.49446 1.27119 -1.88894
[...]
POINT_DATA 29498
VECTORS point_vectors float
-1.86169 -3.25273 5.87242
0.099739 0.0521862 0.211754
-1.11146 0.955185 2.63894
-0.149147 -0.324791 0.261415
1.94608 -3.64897 7.27823
-0.10187 0.0438163 0.220366
1.00724 0.728761 2.26636
0.0930587 -0.186373 0.159157
0.00441515 3.81998e-05 0.0674302
0.0663904 -0.0240993 1.21249
0 0 0
0 0 0
-0.0126363 -0.000704515 0.287312
-0.0880897 -0.0450728 1.30523
-0.0015998 0.00623552 0.0499703
0 0 0
-0.617905 -0.312144 19.8381
-1.28643 -0.81679 20.4884
-0.443022 -0.451819 21.4232
0.103023 -0.164309 21.5728
0.751369 0.10138 21.5554
1.15359 0.229886 21.3111
1.13002 0.132912 20.574
-0.757421 -0.251178 19.7009
-1.8624 -0.71722 20.4062
-0.62248 -0.58279 21.5114
0.0574459 -0.341557 21.639
0.946405 -0.195777 21.6664
1.36243 -0.106893 21.1792
1.15448 0.114414 21.0495
-0.889954 0.064794 19.5946
-2.12707 0.123541 20.3174
-1.28283 -0.403323 21.4803
-0.387519 -0.436342 21.7116
0.397012 -0.648091 21.6708
0.764196 -0.774891 21.4003
0.695781 -0.709968 20.772
-0.577737 0.377964 19.8954
-1.01442 0.657576 20.3006
-1.0214 0.459941 21.1232
-0.458478 0.0355265 21.4724
-0.0229458 -0.255185 21.4892
0.196803 -0.444464 21.3422
0.257917 -0.639383 20.6253
-0.602915 -0.690896 19.2682
-1.81518 -3.31424 20.5752
-0.340473 -0.416797 21.9003
0.129015 0.0678733 21.479
0.95733 1.28844 19.5684
1.42702 1.7668 19.43
1.18441 1.39571 19.3191
-0.766916 -0.563985 18.8939
2.12472 1.10603 10.331
2.37664 1.12138 13.9373
-0.997138 0.182717 18.4432
-0.210113 -0.794918 5.62706
1.21968 -1.64965 12.133
-0.493206 0.73529 19.4757
-1.05004 1.64332 19.8989
-1.48497 1.79919 21.1999
-0.576341 0.409129 21.9048
-0.147469 -0.255399 21.5368
-0.000777262 -0.53908 21.3365
0.018941 -0.502394 21.5158
0.613173 -0.674659 19.2953
1.8257 -3.07832 20.618
0.321462 -0.448615 21.8466
-0.148814 0.077664 21.4859
-0.878513 1.32412 19.1762
-1.42017 1.74017 19.2169
-1.1512 1.41668 19.4525
0.780938 -0.567452 18.9045
-2.12125 1.02387 10.4461
-2.37941 1.07648 14.0895
1.01166 0.169097 18.4641
0.356884 -0.746518 5.2734
-1.21223 -1.56004 12.0659
0.520822 0.723316 19.4945
1.10789 1.58126 19.9284
1.51714 1.76671 21.2138
0.574175 0.436616 21.9248
0.148161 -0.211192 21.5431
-0.00217572 -0.496932 21.3646
-0.0229034 -0.484157 21.7104
0.611718 -0.308804 19.847
1.23341 -0.774832 20.5235
0.443934 -0.433286 21.4023
-0.108575 -0.155829 21.5627
-0.753854 0.12013 21.5592
-1.14507 0.235092 21.2763
-1.14305 0.127346 20.5972
0.761797 -0.255474 19.7155
1.79015 -0.71946 20.464
0.613116 -0.561978 21.4983
-0.061447 -0.334189 21.6196
-0.949143 -0.196032 21.653
-1.32833 -0.126713 21.1986
-1.15209 0.0902025 21.0295
0.892277 0.0503819 19.6149
2.09372 0.0712453 20.3572
1.23446 -0.42783 21.4901
0.356585 -0.440395 21.7058
-0.396336 -0.657967 21.6393
-0.750819 -0.767018 21.3833
-0.692029 -0.677491 20.7169
0.582208 0.355409 19.9174
1.01436 0.619318 20.318
1.02457 0.431562 21.1309
0.471367 0.0367808 21.4893
0.0377536 -0.260261 21.4909
-0.194305 -0.44898 21.3722
-0.19514 -0.691189 20.6386
-0.702026 -0.0613815 1.17002
0 0 0
0.0100036 -0.00311588 0.311839
-0.0182769 -0.0481693 0.00879507
-0.000111885 0.000576663 0.0019613
0.0422251 0.0136298 0.554924
-0.000274689 0.244919 0.449997
-0.0694939 -0.0352509 0.164048
-0.000519197 0.00137879 -0.0030109
0 0 0
0.846595 -0.0364307 1.22333
-7.15158e-05 -0.00954473 0.168685
0.0145406 -0.0441107 0.00838467
-0.035316 0.0139507 0.520298
0.112944 -0.0533994 0.262976
0 0 0
0.0165248 -0.00268424 0.716734
2.73648e-05 5.8901e-05 0.00320102
0 0 0
-6.55234e-19 -1.33034e-17 -1.07379e-16
1.03482e-05 3.33221e-05 0.00268473
0 0 0
0.000485548 0.127048 0.225757
-1.19882e-05 -0.00103772 0.0427553
-0.0135406 -0.00515879 0.521871
-0.000109762 0.00297662 0.0275362
0 0 0
0 0 0
-0.000140388 -0.000157643 0.00324619
0 0 0
-0.00586672 -0.000419034 0.224071
-0.00504547 -0.00104059 0.364044
0 0 0
1.73277e-06 4.87702e-05 0.00427679
-0.00770905 -0.110582 0.087555
0 0 0
0.000899208 0.00448113 0.0215535
-9.70352e-05 0.0370312 0.314965
0 0 0
0 0 0
0 0 0
0.00109524 -0.000952308 0.111467
-3.5742 -1.88858 20.1481
-2.71105 -5.09682 20.7555
-2.13768 -1.82664 17.6702
1.65785 0.211955 18.6311
0.941373 1.36454 12.0771
1.30001 0.464734 6.41581
-4.15497 0.813289 20.038
-3.09817 1.24895 16.5934
-2.38482 2.75458 19.5248
0.556352 -0.770678 19.3187
-0.570069 -0.796319 3.65862
-0.0129042 -0.411156 18.9447
2.72709 -4.83786 20.8943
2.16652 -1.86486 17.709
3.40733 -1.86214 20.3469
-0.84128 1.33441 11.4259
-1.28303 0.353563 6.37968
-1.65617 0.176328 18.5429
3.13621 1.16916 16.671
2.46917 2.62859 19.5796
4.09295 0.622421 20.1739
0.59848 -0.693824 3.19089
-0.0534112 -0.304179 17.824
-0.546038 -0.787159 19.2204
-0.264733 -0.817507 21.4144
-0.000569026 -0.0856366 18.3375
0.274945 -0.333477 20.8475
0.380693 0.0749188 17.5074
-2.10671 -1.07105 21.8656
-4.30402 2.24991 21.5545
-0.540463 -0.707114 21.0788
-0.852875 0.232281 20.3403
-0.00841449 -0.199159 18.9574
0.334719 -0.792877 21.5813
-0.42873 0.0690607 17.3732
-0.2611 -0.343261 20.9888
4.34798 2.09714 21.5743
1.97334 -1.15355 21.8496
0.721854 0.335742 19.2615
0.48278 -0.721871 20.9227
-0.987356 -0.579173 19.981
-0.698695 -0.29934 19.764
-0.662847 -0.495952 19.5733
-0.929073 -0.6948 21.2108
-1.58977 -0.8086 20.4442
-1.79713 -1.70918 20.4567
-0.141069 -0.282588 21.5205
-0.552066 -0.536149 21.452
-0.328817 -0.529492 21.6637
0.390877 -0.038587 21.6686
0.0737425 -0.260207 21.58
0.185141 -0.118253 21.7356
0.954004 0.177412 21.4368
0.860934 -0.0186862 21.617
1.09991 0.560592 21.4648
1.10332 0.192165 21.2355
1.26734 0.0570636 21.2742
1.52651 0.733832 21.2491
1.14225 0.123663 20.8117
1.16306 0.439821 21.4785
-1.33771 -0.462555 19.783
-0.84401 -0.155933 19.61
-0.816923 -0.39269 19.375
-1.28196 -0.730223 21.3284
-2.11893 -0.333366 20.3681
-0.247732 -0.455879 21.5607
-0.953621 -0.595039 21.5037
0.422481 -0.272825 21.7812
-0.138661 -0.458912 21.6983
1.15904 -0.184219 21.4687
0.762264 -0.532216 21.6759
1.39593 -0.281887 21.2213
1.17464 -0.589214 21.2341
2.1164 0.109697 19.4045
1.03375 -0.405555 20.7225
1.78759 -0.256514 20.1758
-1.5913 0.14202 19.6931
-0.760541 0.304904 19.7167
-1.02758 0.102307 19.1443
-1.81109 -0.191147 21.129
-1.54218 0.596113 20.2593
-0.797851 -0.440307 21.6733
-1.39339 0.148709 21.2926
-0.0261408 -0.504941 21.7698
-0.545311 -0.167044 21.6409
0.600395 -0.715576 21.5582
0.0543727 -0.447774 21.5188
0.969981 -0.805755 21.121
0.375745 -0.574566 21.2823
0.931068 -0.90613 19.9758
0.40865 -0.772904 20.5128
1.53525 -1.40591 19.4082
-0.79581 0.5463 20.0317
-0.585697 0.550863 19.693
-1.1092 0.608192 20.7208
-1.15379 1.08089 20.1371
-0.758584 0.24659 21.416
-1.32246 0.924948 21.1981
-0.229531 -0.130881 21.5098
-0.550369 0.180033 21.7038
0.0790123 -0.386701 21.296
-0.0954219 -0.288996 21.527
0.186599 -0.335524 21.1514
0.115859 -0.462525 21.0665
0.00480091 -0.408232 21.7841
-1.25348 -1.74525 19.031
-0.668132 -0.644314 19.1054
0.00372621 -0.918557 18.9463
-0.965131 -1.44809 22.1637
0.0786082 -4.54852 20.879
-0.0699118 -0.124401 21.4266
0.0237398 -0.58151 21.0953
0.490303 0.583569 20.7119
0.00772383 -0.0202104 19.6219
1.17568 1.49023 19.5092
0.00402792 1.06851 15.4505
1.63249 1.70836 18.9675
1.9797 1.67664 15.3448
-0.0120654 1.63414 15.605
1.94342 1.37646 15.4977
0.00101391 2.63665 16.4263
-0.951507 -0.271211 18.5526
0.0135615 -0.766855 18.3557
2.52234 1.22476 12.6478
1.15498 -0.48388 6.05677
-0.0233534 0.48516 3.10095
2.25746 0.041506 12.1569
-0.0132384 2.97663 8.50649
-0.77282 0.725074 18.9462
0.0143673 0.301725 17.6215
0.661279 -1.16348 8.82109
0.18414 -0.912573 19.9299
0.136582 1.79755 -5.5986
0.075535 -1.33991 18.7302
0.204071 2.42213 -4.66549
-0.779696 1.24508 19.557
0.0217516 0.944516 19.2582
-1.34434 1.81148 20.4222
0.0520124 2.33233 19.6471
-1.08227 1.10584 21.8791
0.0273848 3.2305 21.0861
-0.282525 -0.0197452 21.7455
-0.0234051 0.811006 22.1678
-0.0938408 -0.37554 21.4936
-0.0215354 -0.0614992 21.5969
0.0538678 -0.636789 20.9456
-0.0230014 -0.367838 21.6023
-0.0368792 -0.455938 21.7009
1.27204 -1.67049 19.0944
0.679786 -0.642585 19.1238
0.655926 -0.491296 19.6057
0.971988 -1.4172 22.1041
1.69932 -1.56203 20.5072
0.056874 -0.145245 21.4377
0.33946 -0.531577 21.6387
-0.504359 0.639627 20.2842
-0.196047 -0.110403 21.7389
-1.12893 1.4812 19.1368
-1.13223 0.628277 21.3142
-1.62791 1.73179 18.9844
-1.95656 1.6281 15.2651
-1.51765 0.727165 21.2488
-1.93586 1.36021 15.6009
-1.183 0.398713 21.4629
0.965714 -0.279927 18.5728
0.826776 -0.409223 19.3856
-2.49301 1.15669 12.7033
-1.15749 -0.501066 6.24115
-2.06907 0.0526313 19.5313
-2.28938 0.0832851 12.4879
-1.78125 -0.275817 20.2335
0.796066 0.702022 18.9687
1.03629 0.083348 19.1612
-0.576204 -1.08825 8.61761
-0.196015 -0.828258 19.6415
-0.895565 -0.878991 19.8914
-0.0712766 -1.33749 18.4743
-1.59668 -1.48136 19.2251
0.819193 1.20229 19.5815
0.613773 0.534692 19.7092
1.38662 1.75569 20.4448
1.1686 1.02798 20.162
1.09633 1.11232 21.8884
1.33932 0.89875 21.1999
0.272773 0.00105897 21.7549
0.560381 0.187898 21.7098
0.0935128 -0.33548 21.5128
0.100697 -0.267555 21.5153
-0.0537868 -0.614956 20.9597
-0.125831 -0.444195 21.0646
-0.0113004 -0.417153 21.8965
0.969723 -0.569214 20.0243
0.688334 -0.30123 19.7935
0.890968 -0.650673 21.1859
1.51668 -0.78828 20.4928
0.130341 -0.271089 21.526
0.547718 -0.523187 21.4291
-0.40668 -0.0341988 21.6631
-0.0742826 -0.259182 21.5582
-0.953902 0.195075 21.4421
-0.871512 -0.0204288 21.615
-1.11737 0.190656 21.2067
-1.24864 0.0489179 21.2981
-1.14862 0.108094 20.8129
1.33552 -0.476709 19.827
0.847878 -0.16301 19.6306
1.22964 -0.710749 21.312
2.05727 -0.382552 20.4241
0.233622 -0.440986 21.5613
0.906925 -0.59119 21.5091
-0.429099 -0.267709 21.7691
0.115907 -0.454581 21.6883
-1.14747 -0.182792 21.4517
-0.763159 -0.5376 21.6582
-1.3873 -0.288823 21.215
-1.16177 -0.593151 21.2127
-1.00846 -0.382271 20.75
1.574 0.100309 19.7282
0.762494 0.289117 19.7368
1.77 -0.235031 21.1452
1.53226 0.544818 20.2811
0.754748 -0.454425 21.6634
1.37985 0.103462 21.3027
0.0130661 -0.514172 21.7516
0.541643 -0.188165 21.6512
-0.589237 -0.719356 21.5319
-0.0378219 -0.45988 21.5246
-0.951235 -0.811084 21.0816
-0.345944 -0.569657 21.3068
-0.425102 -0.777728 20.6604
0.795027 0.520784 20.0515
1.11001 0.573326 20.7351
0.768583 0.234354 21.423
0.226876 -0.135385 21.4973
-0.0657484 -0.35958 21.2734
-0.157898 -0.343182 21.1464
-1.1847 -0.551362 19.8703
-1.65517 -1.91464 18.4105
-1.2367 -1.02618 19.5777
-1.85483 -0.914077 19.086
-0.753191 -0.470639 19.4733
-2.51123 -1.94484 20.3619
-1.11959 -0.73381 21.2655
-0.900888 -0.980513 19.9149
-1.00092 -1.1155 21.6189
-1.50398 -1.43403 22.1393
-0.264359 -0.624758 21.7401
-0.201566 -0.39096 21.5345
0.220535 0.0152131 17.5585
-0.0344971 -0.291163 21.6626
0.0647326 -0.537997 21.0508
0.27456 -0.213155 21.6396
0.404826 -0.152625 21.723
0.68506 0.606854 14.3267
0.592242 0.158328 21.793
0.749575 -0.170151 19.9714
1.46339 0.477931 20.6212
1.11261 0.0187834 21.439
1.43667 1.43065 13.6338
1.33009 0.68403 21.2519
1.87857 0.170015 19.1658
1.91851 0.4804 20.3767
1.26339 -0.0556163 21.1968
2.1391 1.50969 15.0152
1.72943 0.929083 21.1749
2.2888 0.185369 19.3508
1.46344 0.105074 20.8623
-1.51812 -0.225502 19.7078
-2.94683 -0.648416 16.5352
-2.3404 0.418658 18.8154
-0.979495 -0.176138 19.1857
-4.5098 -0.591077 20.0161
-1.62269 -0.516612 21.291
-2.95796 -0.458903 21.6255
-0.832036 -1.2837 21.2098
-0.4879 -0.543134 21.6294
-1.1955 -1.0082 21.5806
0.0658553 -0.578706 19.945
0.236001 -0.464911 21.8136
-0.0199838 -0.489589 20.3312
1.31513 -0.407997 17.5511
0.996151 -0.561263 21.521
0.137737 -1.04172 2.82473
0.638595 -0.920027 19.6665
1.63446 -0.573547 18.9853
1.23456 -0.631055 21.3381
2.06699 -0.214125 8.52555
1.21043 -1.20049 19.7284
1.88311 -1.0042 19.3087
-1.19249 0.505909 19.8448
-1.55495 1.74992 18.6946
-0.868734 0.857516 19.8064
-0.829399 0.472441 19.394
-2.14434 1.31104 19.9883
-1.60413 0.396586 20.8348
-2.99117 2.35503 20.1859
-1.33999 1.11177 20.6199
-2.3108 0.540591 21.4871
-0.96447 -0.0368199 21.5921
-2.62999 0.601839 21.9658
-0.968734 0.557391 21.6239
-0.799478 -0.121262 21.9744
-0.208177 -0.3109 21.641
-0.081161 -0.175361 19.5738
-0.262743 -0.0991262 21.6251
-0.0822742 -0.579233 21.6708
0.199032 -0.564097 21.4273
0.0139521 -0.586483 19.3866
0.0123667 -0.385671 21.3686
0.245499 -0.791313 21.7282
0.397826 -0.528817 21.3895
0.3406 -1.12094 18.5565
0.171239 -0.636469 21.3976
0.211483 -0.875688 21.8227
1.67057 -1.91588 18.5044
0.0272109 -2.65326 18.3392
-0.00178043 -3.24138 15.6598
0.00859052 -0.907251 18.7047
0.0595758 -6.13753 21.9705
1.01889 -1.07158 20.1189
0.0573939 -2.15472 22.7058
-0.0348677 -0.0309045 12.1469
-0.232246 -0.021026 17.6782
0.00307893 -0.258946 19.744
0.0012788 0.0608237 11.5783
-0.726706 0.681048 13.7865
0.0168761 0.377888 17.4526
-0.0325982 0.777239 6.10002
-1.37948 1.41168 13.2715
-0.0112311 1.29274 15.564
-0.120538 -0.193664 1.89731
-0.0651914 0.74793 8.11492
-2.1232 1.48049 15.0034
0.0123077 2.30834 16.2778
2.48451e-05 1.70597 4.28583
-0.00611224 2.80664 12.4664
2.99365 -0.689092 16.6013
0.0289672 2.60132 13.7302
0.0108727 -0.359274 17.8158
-0.106507 -1.14902 2.75764
0.0373322 0.598532 -4.08192
0.186646 0.302515 -2.24427
-2.07554 -0.265996 8.70966
0.246166 2.73082 -5.05318
0.1253 3.21183 -1.19983
1.60125 1.68969 18.7444
0.0349833 1.68473 19.2846
0.0209099 1.01425 18.4579
0.0798047 4.33006 18.9779
3.04207 2.25127 20.249
0.0444789 2.78993 20.0823
0.047553 6.71426 19.8876
2.58878 0.506406 21.6707
-0.00965402 2.09149 22.2464
-0.0273119 0.465572 15.3342
-0.0441826 -0.0567675 18.5224
-0.0204365 0.182087 21.8096
-0.0972786 0.126943 8.5874
-0.0417103 -0.477461 18.964
-0.0215355 -0.168972 21.6904
-0.142116 -0.286625 11.7255
-0.346344 -1.05145 18.1479
-0.0142232 -0.526241 21.5657
-0.103977 -0.359533 11.0686
1.14623 -0.558821 19.9367
1.22313 -1.00082 19.6356
1.85373 -0.940696 19.1446
0.751641 -0.473465 19.4935
2.38955 -1.83153 20.4642
1.07209 -0.704016 21.234
0.982703 -1.04819 21.5394
1.44815 -1.3551 22.0248
0.32201 -0.630327 21.7439
0.194594 -0.379802 21.5361
0.0402132 -0.290477 21.6552
-0.0406781 -0.509301 21.2072
-0.273079 -0.214085 21.6346
-0.414914 -0.154599 21.7145
-0.614136 0.186203 21.8158
-0.76355 -0.217959 20.0813
-1.49506 0.508157 20.3373
-1.10789 0.0164975 21.4376
-1.34912 0.712539 21.2134
-1.83755 0.115028 19.2931
-1.89762 0.438462 20.3823
-1.28307 -0.0547593 21.1622
-1.76729 0.93032 21.1367
-2.26716 0.169364 19.4492
-1.46942 0.0751487 20.8838
1.51412 -0.261857 19.7528
2.35327 0.366139 18.8698
0.988379 -0.18741 19.2061
4.37478 -0.707602 20.2193
1.55158 -0.543022 21.2927
2.85805 -0.563284 21.6247
0.745498 -1.18315 21.3234
0.445974 -0.540201 21.6269
1.10177 -1.07639 21.4643
-0.0972341 -0.540901 20.0548
-0.24726 -0.463378 21.8035
0.00313882 -0.481094 20.2172
-1.33628 -0.449643 17.4028
-0.98495 -0.564687 21.505
-0.594319 -0.912842 19.6696
-1.6158 -0.581858 19.1841
-1.21419 -0.636173 21.3443
-1.18161 -1.16109 19.7152
-1.86892 -1.03788 19.3667
1.19001 0.469094 19.8709
0.891094 0.818234 19.8255
0.838508 0.44823 19.4159
2.16195 1.21786 20.0333
1.59776 0.348892 20.8484
1.35264 1.05946 20.6411
2.30067 0.463195 21.4988
0.955746 -0.0685806 21.5929
0.985285 0.550871 21.6255
0.818028 -0.137054 21.9754
0.21277 -0.317544 21.6221
0.276726 -0.0844957 21.6302
0.122534 -0.56919 21.6727
-0.195482 -0.55947 21.42
-0.00443717 -0.370656 21.3647
-0.210966 -0.75483 21.748
-0.417322 -0.563782 21.3759
-0.162374 -0.642112 21.4466
-0.157342 -0.889471 21.9983
-1.5125 -1.03249 19.3749
-1.18275 -1.26257 21.8548
0.0478297 -0.383117 21.6255
0.764 0.049203 21.2745
1.72655 0.527466 20.3277
2.01105 0.559313 20.3295
-2.27938 -0.3353 18.7913
-2.28794 -1.15525 22.2327
-0.258027 -0.964821 20.3904
0.347171 -0.352616 19.3126
1.44157 -0.645078 18.2807
1.84874 -0.587419 19.4627
-1.49509 0.948682 19.412
-2.38386 0.96888 20.7429
-1.55527 0.130484 21.972
-0.32205 -0.342123 21.8614
0.0578786 -0.692126 21.5725
0.453185 -1.09744 21.128
0.0299687 -3.16771 17.3258
-0.0196865 -1.34536 15.7912
-0.0302846 -0.0121985 11.4381
0.0171302 0.193141 9.02564
-0.0657541 0.720531 7.18426
0.00614744 2.00647 10.2826
0.0112365 -0.936169 13.5378
0.0346399 -0.138473 -0.493166
0.137944 2.56954 -3.08499
0.049683 2.75287 17.893
0.0654773 4.4311 19.1706
-0.0079809 2.67079 18.2725
-0.0332639 -0.162914 12.7197
-0.120868 0.0443151 10.4131
-0.102625 -0.786943 11.8479
1.4965 -1.02803 19.4324
1.15522 -1.18379 21.7497
-0.0242679 -0.37433 21.6558
-0.794577 0.0391436 21.234
-1.72415 0.515053 20.2111
-2.02409 0.562103 20.3545
2.28497 -0.373864 18.8586
2.14981 -1.14244 22.1513
0.187252 -0.893969 20.5516
-0.34925 -0.356294 19.4437
-1.41542 -0.666977 18.4468
-1.82646 -0.566864 19.5719
1.51738 0.897801 19.4438
2.37739 0.879018 20.7698
1.55537 0.0868674 21.9704
0.343437 -0.346877 21.8732
-0.0259072 -0.667437 21.5547
-0.46152 -1.07348 21.1264
-0.701665 -0.39557 0.605914
1.39733e-17 4.26068e-17 -1.66144e-16
-0.0560747 0.00119956 0.457202
0.0253694 -0.0364524 0.0547438
-0.000623033 0.00489867 0.0131167
0.0816855 0.0271519 0.795246
-0.466745 0.149683 0.601654
-0.0522278 0.260852 0.597122
-0.159378 0.0232959 0.502299
0.000130694 -0.0187906 0.0108785
-0.0100923 0.00154393 -0.00405155
0 0 0
-4.66168e-17 6.06493e-17 -2.81244e-16
0.521041 -0.216855 0.611739
0.0546223 0.00793521 0.451477
-0.00291732 0.0074947 0.0341816
-0.0115447 -0.0205896 0.0215609
-0.0853246 0.0558305 1.00949
0.0870291 0.380327 0.753321
0.125566 0.0105326 0.171291
0.266161 -0.0398659 0.783842
0.00852335 0.00304281 -0.00694031
0.0106322 -0.030026 0.000678668
0 0 0
-0.0240127 -0.0124285 1.29502
0.0111796 -0.00329425 0.293327
0 0 0
0.026596 0.00138375 0.281384
0.290937 0.090392 2.80785
0.0264805 -0.00791292 0.833536
0 0 0
0.0074802 0.000937594 0.122748
-0.0988217 -0.0752004 0.302145
5.23764e-05 0.00118689 0.0107961
0 0 0
-0.0510005 0.069145 0.143394
0 0 0
0.000509471 0.00334861 0.0157493
0 0 0
0.0998864 0.0241234 0.500732
0.000433249 -0.0731163 1.02571
-0.0317967 0.00161969 0.295961
-0.0142332 -0.00134698 0.375723
0 0 0
-0.198356 0.149748 1.75712
-0.00357447 0.00200323 0.107483
-0.0220274 -0.0112154 0.584152
3.50897e-05 0.0001848 0.00587919
0.15021 -0.1208 0.488294
0.0458895 0.060306 0.126637
-7.3348e-05 0.00086321 0.00723731
-0.00171224 0.00398776 0.0136117
0 0 0
-0.202687 0.156252 0.871519
-0.00063799 0.00407414 0.0189161
0 0 0
-0.10198 -0.0970276 0.521725
-0.240919 0.00236621 0.123065
-2.43205e-05 -0.000376667 0.00264934
0.0336615 -2.22217 0.685784
-0.000290032 -9.62192e-05 0.00610764
0.058312 -0.0165412 0.736604
0.055812 -0.00445399 0.302561
0 0 0
0 0 0
-0.00153004 -0.0150522 0.00020637
0.00169798 0.00104529 0.0702413
0.00530058 0.00335429 0.249992
0 0 0
0.000136039 0.0212169 0.0819493
-0.0262187 -0.0761158 0.341888
-0.00465055 0.00257066 0.0127588
0 0 0
-0.00027675 0.00115542 -0.00222684
0 0 0
1.39344e-05 -0.00132909 0.0103622
0.322425 0.0542629 0.161258
0 0 0
-0.00406435 -0.00121078 0.341593
0.00347263 -0.00221001 0.0710416
0 0 0
-0.0648706 -0.00846264 0.316458
-0.00248362 0.00537047 0.263925
-0.000689093 0.000168582 0.0337291
0.00699179 0.00323559 0.0174796
0.0631126 -0.176139 0.881343
-0.000282576 -0.00130622 0.0103225
0.000769631 0.0103454 0.0817257
-0.000319929 0.0028848 0.0343192
0.00901331 0.000107507 0.14251
4.71023e-05 -0.00035189 0.00217537
0 0 0
1.34211e-19 -1.27735e-18 -1.20616e-17
3.19757e-07 -3.2621e-07 -4.33143e-05
0 0 0
3.90214e-18 -7.7468e-18 -4.71563e-17
1.53811e-08 -8.87888e-08 -1.43988e-05
4.62799e-07 1.02872e-06 7.37314e-05
6.60817e-05 0.000566525 0.00231701
-0.13476 0.274397 2.70131
0 0 0
0.00124164 0.0583912 0.203872
-0.000426724 0.0013643 0.0814377
-0.000136739 -0.00102955 0.0141086
-0.00973989 0.000798949 0.165055
3.92573e-06 0.000674362 0.00971709
-0.00681461 -0.0083375 0.0916243
0 0 0
0 0 0
0 0 0
0.096355 0.30546 2.81412
-9.2583e-05 0.000759616 0.00312095
1.57523e-17 1.97238e-17 -1.78168e-16
-0.151295 -0.0642577 0.463037
0.00958426 -0.00548787 0.0640682
-0.000108491 -0.000542154 0.00460194
0.000194194 0.000853308 0.0136401
0.00029923 0.0030791 0.0139472
0 0 0
0.000655298 0.00455431 0.0191567
-0.0154315 -0.0272499 0.244169
0.000283508 0.0017675 0.00873742
0.00796085 0.00754942 0.129282
0.00192338 -0.00670207 0.0389777
-7.31342e-05 -0.000142646 0.00102396