# vtk DataFile Version 2.0
tet_velo
ASCII
DATASET UNSTRUCTURED_GRID
POINTS 29498 float
-0.836664 0.305 -1.775
-0.709253 0.425 2.075
-0.735 0.935 -1.90028
-0.735 1.10486 2.015
0.836664 0.305 -1.775
0.707389 0.425 2.075
0.735 0.935 -1.90028
0.735 1.10486 2.015
-0.799956 0.339237 -0.491667
-0.833922 0.302801 0.791667
-0.808458 1.06508 -0.595187
-0.801246 1.11449 0.709907
0.799468 0.339104 -0.491667
0.833433 0.302047 0.791667
0.808453 1.06507 -0.595187
0.801247 1.11449 0.709907
-1.64936 -0.0999007 -2.7601
-1.63907 -0.0469432 -1.72472
-1.6173 -0.029079 -0.44195
-1.61568 -0.05092 0.836441
-1.5505 0.0197394 2.11884
-1.52561 0.073475 3.15242
-1.52667 0.1116 4.18934
-1.64201 0.241453 -2.81492
-1.63271 0.30516 -1.77716
-1.61392 0.344473 -0.490156
-1.61347 0.32058 0.79489
-1.51681 0.388319 2.08148
-1.50076 0.440531 3.11536
-1.51187 0.478379 4.15157
-1.59933 0.909735 -2.93066
-1.57051 0.971237 -1.8938
-1.60524 1.07305 -0.591964
-1.59422 1.10182 0.711417
-1.52281 1.10843 2.01284
-1.50219 1.15789 3.04582
-1.50799 1.20409 4.07852
-1.57155 1.9866 -3.08791
-1.56134 2.05547 -2.0478
-1.57525 2.15546 -0.738901
-1.58368 2.22259 0.574683
-1.56738 2.25229 1.88335
-1.54896 2.278 2.92299
-1.53642 2.31256 3.95807
-0.847588 -0.0997503 -2.7587
-0.834536 -0.0445522 -1.72267
-0.807874 -0.0311035 -0.442225
-0.825432 -0.062048 0.83369
-0.777802 0.0375873 2.11403
-0.755116 0.0865625 3.14916
-0.754408 0.118312 4.18745
-0.848094 0.237078 -2.81449
-0.728642 0.454615 3.11267
-0.740594 0.484916 4.15014
-0.811556 0.893016 -2.93335
-0.73077 1.16035 3.04625
-0.73623 1.20646 4.07861
-0.776448 1.97574 -3.09057
-0.76255 2.04554 -2.05073
-0.776936 2.15357 -0.740668
-0.793872 2.22586 0.574895
-0.787638 2.25338 1.88486
-0.771763 2.27764 2.9245
-0.758679 2.31227 3.95917
0.778904 -0.0997943 -2.7587
0.811747 -0.0445997 -1.72267
0.806824 -0.0312879 -0.442225
0.802532 -0.0625764 0.83369
0.72275 0.0373868 2.11403
0.749683 0.0864034 3.14916
0.773692 0.118137 4.18745
0.768467 0.237052 -2.81449
0.755205 0.454509 3.11267
0.779639 0.484762 4.15014
0.746114 0.892998 -2.93335
0.766485 1.16027 3.04625
0.787363 1.20633 4.07861
0.80215 1.97569 -3.09057
0.817253 2.04549 -2.05073
0.815856 2.15351 -0.740668
0.792531 2.22578 0.574895
0.774808 2.25327 1.88486
0.780306 2.27752 2.9245
0.793288 2.31213 3.95917
1.59094 -0.100012 -2.7601
1.62124 -0.0470742 -1.72472
1.6163 -0.029428 -0.44195
1.60391 -0.0516852 0.836441
1.52553 0.0192303 2.11884
1.52493 0.0730947 3.15242
1.54612 0.111231 4.18934
1.58285 0.241375 -2.81492
1.62658 0.305089 -1.77716
1.61565 0.344213 -0.490157
1.61586 0.319797 0.79489
1.52205 0.387888 2.08148
1.52392 0.440216 3.11536
1.5485 0.478045 4.15157
1.55618 0.909676 -2.93066
1.5735 0.971199 -1.8938
1.61148 1.07295 -0.591964
1.59956 1.10153 0.711417
1.53426 1.10815 2.01284
1.53541 1.15764 3.04582
1.55676 1.2038 4.07852
1.59476 1.98649 -3.08791
1.60827 2.05536 -2.0478
1.61146 2.15532 -0.738902
1.58983 2.2224 0.574683
1.56551 2.25206 1.88335
1.56397 2.27774 2.92299
1.57382 2.31227 3.95807
-0.8257 0.62 -1.87751
0 0.302131 -1.77787
-0.808667 0.331762 -1.13333
-0.760879 0.76493 2.08375
-0.000932008 0.417009 2.08299
-0.77441 0.361078 1.43333
0 0.981553 -1.94683
-0.809925 1.03823 -1.24773
0 1.18653 2.09667
-0.780596 1.12215 1.36245
0.825893 0.62 -1.8777
0.805734 0.334384 -1.13333
0.760309 0.76493 2.08411
0.772906 0.361029 1.43333
0.809977 1.03829 -1.24773
0.780589 1.12214 1.36245
-0.797724 0.340234 0.15
-0.872642 0.702158 -0.543427
-0.000244141 0.309952 -0.491667
-0.875205 0.708643 0.750787
-0.000244451 0.282878 0.791667
-0.812204 1.09713 0.0573601
-2.47613e-06 1.39997 -0.595187
4.60981e-07 1.62936 0.709907
0.796883 0.340143 0.15
0.87264 0.702089 -0.543427
0.875447 0.708267 0.750787
0.812206 1.09714 0.0573601
-0.889116 0.661079 -1.19053
-0.875463 0.7054 0.10368
-0.896592 0.736787 1.39789
-0.000122071 0.303212 -1.13333
-0.000244296 0.317249 0.15
-0.00058823 0.319204 1.43333
0 0.62 -2.1768
-0.000466004 0.76493 2.14958
-1.23806e-06 1.138 -1.24773
-1.00757e-06 1.61123 0.0573601
2.30491e-07 1.60508 1.36245
0.889115 0.661044 -1.19053
0.875452 0.705178 0.10368
0.896594 0.736598 1.39789
-1.23469 0.30508 -1.77608
-0.8356 0.130224 -1.74884
-0.842379 0.271039 -2.29474
-1.11303 0.406659 2.07824
-0.743527 0.231294 2.09452
-0.718947 0.439807 2.59383
-1.15276 0.953118 -1.89704
-0.773278 0.914008 -2.41682
-0.748775 1.49027 -1.9755
-1.1289 1.10664 2.01392
-0.732885 1.13261 2.53063
-0.761319 1.67912 1.94993
0.824205 0.1302 -1.74884
0.802566 0.271026 -2.29474
1.23162 0.305044 -1.77608
0.715069 0.231193 2.09452
0.731297 0.439755 2.59383
1.11472 0.406444 2.07824
0.740557 0.913999 -2.41682
0.776127 1.49025 -1.9755
1.15425 0.953099 -1.89704
0.750742 1.13257 2.53063
0.754904 1.67907 1.94993
1.13463 1.1065 2.01392
-1.20694 0.341855 -0.490912
-0.803915 0.154067 -0.466946
-1.2237 0.31169 0.793278
-0.829677 0.120376 0.812679
-1.20685 1.06906 -0.593575
-0.792697 1.60932 -0.667928
-1.19773 1.10815 0.710662
-0.797559 1.67017 0.642401
0.803146 0.153908 -0.466946
1.20756 0.341658 -0.490912
0.817983 0.119735 0.812679
1.22465 0.310922 0.793278
0.812154 1.60929 -0.667928
1.20997 1.06901 -0.593575
0.796889 1.67013 0.642401
1.2004 1.10801 0.710662
-1.64422 -0.0734219 -2.24241
-1.64568 0.0707762 -2.78751
-1.24847 -0.0998255 -2.7594
-1.62819 -0.0380111 -1.08334
-1.63589 0.129109 -1.75094
-1.23681 -0.0457477 -1.7237
-1.61649 -0.0399995 0.197246
-1.61561 0.157697 -0.466053
-1.21259 -0.0300912 -0.442088
-1.58309 -0.0155903 1.47764
-1.61458 0.13483 0.815666
-1.22056 -0.056484 0.835066
-1.53805 0.0466072 2.63563
-1.53365 0.204029 2.10016
-1.16415 0.0286633 2.11644
-1.52614 0.0925373 3.67088
-1.51319 0.257003 3.13389
-1.14036 0.0800187 3.15079
-1.51927 0.294989 4.17045
-1.14054 0.114956 4.18839
-1.63736 0.273307 -2.29604
-1.62067 0.575594 -2.87279
-1.24505 0.239266 -2.8147
-1.62332 0.324817 -1.13366
-1.60161 0.638199 -1.83548
-1.6137 0.332527 0.152367
-1.60958 0.708763 -0.54106
-1.56514 0.354449 1.43818
-1.60385 0.7112 0.753153
-1.50879 0.414425 2.59842
-1.51981 0.748374 2.04716
-1.50632 0.459455 3.63346
-1.50148 0.799213 3.08059
-1.1147 0.447573 3.11401
-1.50993 0.841233 4.11505
-1.12623 0.481647 4.15086
-1.58492 0.940486 -2.41223
-1.58544 1.44817 -3.00929
-1.20544 0.901376 -2.93201
-1.58787 1.02214 -1.24288
-1.56593 1.51335 -1.9708
-1.59973 1.08744 0.0597267
-1.59025 1.61426 -0.665432
-1.55851 1.10512 1.36213
-1.58895 1.66221 0.64305
-1.5125 1.13316 2.52933
-1.54509 1.68036 1.94809
-1.50509 1.18099 3.56217
-1.52557 1.71795 2.98441
-1.11648 1.15912 3.04604
-1.5222 1.75832 4.0183
-1.12211 1.20527 4.07857
-1.56644 2.02104 -2.56785
-1.174 1.98117 -3.08924
-1.5683 2.10546 -1.39335
-1.16194 2.0505 -2.04926
-1.57947 2.18903 -0.0821091
-1.1761 2.15452 -0.739785
-1.57553 2.23744 1.22902
-1.18878 2.22423 0.574789
-1.55817 2.26514 2.40317
-1.17751 2.25283 1.88411
-1.54269 2.29528 3.44053
-1.16036 2.27782 2.92375
-1.14755 2.31241 3.95862
-0.841062 -0.0721512 -2.24069
-0.847841 0.0686638 -2.78659
-0.0343418 -0.0997723 -2.7587
-0.821205 -0.0378278 -1.08245
-0.0113947 -0.0445759 -1.72267
-0.816653 -0.0465757 0.195733
-0.000524915 -0.0311957 -0.442225
-0.801617 -0.0122303 1.47386
-0.0114496 -0.0623122 0.83369
-0.766459 0.0620749 2.63159
-0.027526 0.037487 2.11403
-0.754762 0.102437 3.6683
-0.741879 0.270589 3.13091
-0.0027164 0.086483 3.14916
-0.747501 0.301614 4.1688
0.00964172 0.118225 4.18745
-0.829825 0.565047 -2.87392
-0.0398132 0.237065 -2.81449
-0.734618 0.469765 3.63141
-0.729706 0.807483 3.07946
0.0132816 0.454562 3.11267
-0.738412 0.845689 4.11438
0.0195226 0.484839 4.15014
-0.794002 1.43438 -3.01196
-0.032721 0.893007 -2.93335
-0.7335 1.18341 3.56243
-0.751267 1.719 2.98538
0.0178573 1.16031 3.04625
-0.747455 1.75937 4.01889
0.0255665 1.2064 4.07861
-0.769499 2.01064 -2.57065
0.0128507 1.97572 -3.09057
-0.769743 2.09956 -1.3957
0.0273517 2.04552 -2.05073
-0.785404 2.18972 -0.0828867
0.01946 2.15354 -0.740668
-0.790755 2.23962 1.22988
-0.000670623 2.22582 0.574895
-0.779701 2.26551 2.40468
-0.00641506 2.25332 1.88486
-0.765221 2.29496 3.44184
0.00427143 2.27758 2.9245
0.0173042 2.3122 3.95917
0.795325 -0.072197 -2.24069
0.773686 0.0686291 -2.78659
1.18492 -0.0999032 -2.7594
0.809285 -0.0379438 -1.08245
1.21649 -0.045837 -1.7237
0.804678 -0.0469321 0.195733
1.21156 -0.0303579 -0.442088
0.762641 -0.0125948 1.47386
1.20322 -0.0571308 0.835066
0.736216 0.0618951 2.63159
1.12414 0.0283085 2.11644
0.761687 0.10227 3.6683
0.752444 0.270456 3.13091
1.13731 0.0797491 3.15079
0.776665 0.30145 4.1688
1.15991 0.114684 4.18839
0.757291 0.565025 -2.87392
1.17566 0.239214 -2.8147
0.767422 0.469636 3.63141
0.760845 0.80739 3.07946
1.13956 0.447363 3.11401
0.783501 0.845546 4.11438
1.16407 0.481404 4.15086
0.774132 1.43435 -3.01196
1.15115 0.901337 -2.93201
0.776924 1.1833 3.56243
0.773395 1.7189 2.98538
1.15095 1.15896 3.04604
0.790326 1.75923 4.01889
1.17206 1.20506 4.07857
0.809702 2.01059 -2.57065
1.19845 1.98109 -3.08924
0.816555 2.0995 -1.3957
1.21276 2.05042 -2.04926
0.804194 2.18965 -0.0828868
1.21366 2.15441 -0.739785
0.78367 2.23953 1.22988
1.19118 2.22409 0.574789
0.777557 2.2654 2.40468
1.17016 2.25267 1.88411
0.786797 2.29483 3.44184
1.17214 2.27763 2.92375
1.18355 2.3122 3.95862
1.60609 -0.0735431 -2.24241
1.58689 0.0706817 -2.78751
1.61877 -0.0382511 -1.08334
1.62391 0.129007 -1.75094
1.61011 -0.0405566 0.197245
1.61598 0.157392 -0.466053
1.56472 -0.0162275 1.47764
1.60988 0.134056 0.815665
1.52523 0.0461625 2.63563
1.52379 0.203559 2.10016
1.53552 0.092163 3.67088
1.52442 0.256655 3.13389
1.54731 0.294638 4.17045
1.60472 0.273232 -2.29604
1.56951 0.575526 -2.87279
1.62112 0.324651 -1.13366
1.60004 0.638144 -1.83548
1.61575 0.332005 0.152367
1.61356 0.708583 -0.54106
1.56896 0.353843 1.43818
1.60771 0.710663 0.753153
1.52299 0.414052 2.59842
1.52816 0.748018 2.04716
1.53621 0.459131 3.63346
1.52967 0.79893 3.08059
1.55263 0.84092 4.11505
1.56484 0.940437 -2.41223
1.57547 1.44809 -3.00929
1.59249 1.02208 -1.24288
1.59088 1.51328 -1.9708
1.60552 1.08724 0.0597266
1.61147 1.61414 -0.665433
1.56691 1.10484 1.36213
[...]
POINT_DATA 29498
VECTORS point_vectors float
-2.00175 -2.43444 9.9219
0.318034 0.337391 1.19768
-0.979707 0.66973 1.5116
-0.0263499 -0.179876 0.160808
4.22543 -4.95671 16.199
-0.359953 0.374994 1.27643
0.983108 0.669617 1.51658
0.0261194 -0.180636 0.161454
0.0129924 -0.00645451 0.235879
0.050665 0.0425895 2.85694
0 0 0
0 0 0
-0.013339 -0.0075027 0.244713
-0.0359267 -0.0138325 2.65272
0 0 0
0 0 0
-0.777242 -0.441375 20.0348
-1.05428 -0.6724 20.8721
-0.373531 -0.413247 21.4578
0.0899168 -0.167015 21.6464
0.701861 0.132014 21.624
1.05684 0.300948 21.3701
1.11728 0.186518 20.4292
-0.896481 -0.333093 19.8884
-1.48937 -0.627845 20.8262
-0.531561 -0.509057 21.5166
0.0626274 -0.298564 21.7116
0.893398 -0.104266 21.7303
1.36708 -0.0309725 21.258
1.23603 0.205746 21.1332
-0.915904 0.0458392 19.7338
-1.87199 0.111261 20.4848
-1.14168 -0.383385 21.4664
-0.307437 -0.441857 21.7706
0.488428 -0.623608 21.754
0.936265 -0.745863 21.5312
0.788874 -0.589557 20.6832
-0.462044 0.298943 19.9398
-0.864168 0.553666 20.3013
-0.960449 0.450378 21.049
-0.513119 0.031281 21.5388
-0.0621275 -0.293341 21.5378
0.113749 -0.428341 21.3749
0.21575 -0.655326 20.5564
-0.924272 -1.1152 19.3814
-1.51857 -2.49594 21.5936
-0.296246 -0.345188 21.7417
0.0982948 0.0529781 21.5399
0.81336 1.23854 20.437
1.36962 1.78852 19.8827
1.0592 1.26311 19.476
-1.20063 -0.943266 18.7827
2.36048 1.54802 11.6222
2.48489 1.51898 15.1929
-1.21379 0.198861 18.4443
0.135154 -1.21226 5.85089
1.86674 -1.77828 12.0022
-0.396835 0.576531 19.6176
-0.824352 1.38087 19.9685
-1.28201 1.59369 20.971
-0.706431 0.519333 21.962
-0.263717 -0.193304 21.7021
-0.114617 -0.510898 21.4774
0.13266 -0.733021 20.7663
0.887552 -1.19621 19.2982
1.49652 -2.55834 21.6298
0.291475 -0.356441 21.746
-0.0945992 0.0469785 21.5422
-0.710569 1.28144 20.0214
-1.3596 1.79397 19.8983
-1.08279 1.22736 19.5088
1.1865 -1.02217 18.6445
-2.38882 1.56059 12.3568
-2.44703 1.36355 15.7935
1.18803 0.228243 18.3392
-0.289858 -1.37562 7.0941
-1.79382 -1.79681 13.5639
0.405813 0.566921 19.6282
0.852826 1.31189 19.994
1.29089 1.51473 20.9806
0.706484 0.522154 21.9632
0.267712 -0.186371 21.7053
0.10457 -0.506611 21.4534
-0.142989 -0.743806 20.7508
0.798594 -0.470911 20.0124
1.07282 -0.69656 20.8696
0.381344 -0.419994 21.4459
-0.08858 -0.170094 21.6392
-0.715829 0.150112 21.6438
-1.04865 0.310484 21.3609
-1.11247 0.19136 20.4271
0.944457 -0.361416 19.8317
1.49814 -0.635368 20.8322
0.534917 -0.510736 21.5201
-0.0587767 -0.298206 21.7202
-0.879655 -0.108008 21.7347
-1.33825 -0.0487939 21.2496
-1.23699 0.191988 21.071
0.95704 0.0460605 19.6938
1.86333 0.112458 20.4908
1.12775 -0.382495 21.4711
0.302814 -0.434288 21.7769
-0.477869 -0.601128 21.748
-0.921091 -0.686643 21.5277
-0.724082 -0.527678 20.6867
0.461417 0.292453 19.9489
0.846981 0.523367 20.3183
0.937498 0.42603 21.0451
0.509303 0.0326711 21.5374
0.0614055 -0.293476 21.5401
-0.124022 -0.431743 21.3558
-0.171048 -0.652975 20.6035
-0.19968 -0.0174559 0.401186
0.000359402 -0.0747908 0.403461
0 0 0
-0.0128121 -0.106058 0.0295344
0 0 0
0.0275341 0.0143517 0.58246
-2.81328e-05 0.0733472 0.203661
-0.105497 -0.0740811 0.382084
0.000505443 -0.0166237 -0.000658806
0 0 0
0.20323 -0.0188973 0.407426
0 0 0
0.0127222 -0.10473 0.0292638
-0.0273112 0.0161848 0.610624
0.1065 -0.0747386 0.385735
0 0 0
0.0052334 0.000115313 0.284262
-9.35471e-05 -5.23793e-05 0.0660374
6.5787e-06 4.09235e-06 0.00191899
0 0 0
0.000153243 -0.0315901 0.405828
0 0 0
-3.90838e-05 0.0817299 0.150642
-4.94578e-06 -7.35289e-06 0.0087046
-0.00579124 -0.000154906 0.290755
0.000110456 0.000253879 0.0667203
0 0 0
0 0 0
0.000264408 -0.0116828 0.112051
6.93285e-06 0.000701866 0.00731601
0.000227017 0.00141738 0.0472958
1.41392e-08 -2.90266e-07 3.58871e-05
0 0 0
-4.08809e-07 -8.41633e-07 -0.000150051
0 0 0
2.35117e-05 -0.00645805 0.00102472
-2.05704e-05 0.00493461 0.0321856
-3.2921e-06 0.00497271 0.0436806
3.089e-06 -0.000499869 0.00894919
-0.000299678 -0.012404 0.112459
-6.34576e-06 0.000667894 0.00693874
-0.000226801 0.00139568 0.0474894
-2.49509 -1.38363 21.1784
-2.34294 -3.43202 22.0939
-3.07844 -2.82979 18.3817
1.60485 0.257392 19.4051
0.997294 1.39329 13.9703
1.49703 0.802025 7.81889
-3.87594 0.697679 20.394
-3.33626 1.42227 16.8029
-2.00593 2.56984 19.6197
0.751033 -0.885954 19.2636
-0.625923 -1.79704 3.35592
-0.0654349 -0.446182 16.7653
2.2975 -3.52741 22.1577
3.10506 -3.07142 18.2242
2.50448 -1.39336 21.1823
-0.881767 1.39363 13.3445
-1.53944 0.824178 8.19089
-1.60445 0.252591 19.4325
3.35279 1.58011 16.5516
2.03661 2.46461 19.6525
3.86255 0.691147 20.3898
0.529698 -1.79418 3.9825
0.0591979 -0.439797 16.5321
-0.749157 -0.891813 19.3942
-0.299207 -0.778086 21.673
0.190706 -0.0214622 16.5631
0.223076 -0.355181 21.4713
0.394072 0.00762704 18.0526
-1.87567 -1.03749 21.7509
-3.58042 2.2342 20.9656
-0.367659 -0.829732 21.0658
-0.988697 0.0865243 19.8434
-0.191111 -0.0640571 16.7029
0.311747 -0.772237 21.6789
-0.403448 -0.00989419 17.9131
-0.215026 -0.353001 21.4864
3.50374 2.08146 21.0216
1.8726 -1.02888 21.7567
0.984837 0.0921384 19.8272
0.365382 -0.820186 21.0821
-1.04442 -0.623691 20.3592
-0.831037 -0.399311 19.9861
-0.916164 -0.713206 19.7651
-0.698257 -0.550931 21.3
-1.2429 -0.667679 20.8426
-1.42293 -1.26522 21.0895
-0.133807 -0.288888 21.5608
-0.426425 -0.453118 21.4853
-0.264316 -0.446317 21.6598
0.369749 -0.0187208 21.6616
0.0838426 -0.217526 21.6632
0.173822 -0.090521 21.8162
0.91172 0.226417 21.5123
0.825428 0.0223627 21.6831
1.00292 0.555346 21.717
1.01984 0.22309 21.0951
1.21372 0.139666 21.3096
1.34135 0.752448 21.4824
1.17665 0.196132 20.7812
0.982559 0.46209 21.6212
-1.35977 -0.530407 20.1587
-0.940602 -0.175971 19.7762
-1.11389 -0.575977 19.4816
-0.953677 -0.583514 21.3478
-1.81287 -0.366079 20.6847
-0.214412 -0.405429 21.6192
-0.809588 -0.550264 21.5166
0.411027 -0.211581 21.797
-0.0764299 -0.41527 21.7743
1.15632 -0.0575554 21.5392
0.818875 -0.412163 21.8282
1.4014 -0.136563 21.3244
1.2734 -0.462633 21.4418
2.16064 0.464176 19.4226
1.04185 -0.274479 20.9342
1.99531 0.38415 19.7159
-1.4811 0.10995 19.8888
-0.68461 0.250398 19.8213
-1.13372 0.120733 19.2405
-1.58435 -0.157995 21.1714
-1.35879 0.547314 20.2951
-0.71969 -0.460067 21.6981
-1.31779 0.155328 21.2534
0.0702712 -0.48808 21.8309
-0.576303 -0.207275 21.7086
0.721777 -0.695132 21.6273
0.0506687 -0.492559 21.5906
1.16035 -0.75474 21.4287
0.417044 -0.666422 21.4301
1.22336 -1.07567 19.6509
0.484962 -0.85427 20.3534
1.73486 -1.40689 19.7697
-0.677038 0.42859 20.0704
-0.47952 0.426763 19.7912
-0.966752 0.553864 20.6741
-0.935762 0.919162 20.1611
-0.767973 0.243653 21.4093
-1.20458 0.869677 21.0557
-0.262548 -0.151083 21.6023
-0.655107 0.216144 21.7405
0.0367824 -0.382269 21.4457
-0.168959 -0.286019 21.6192
0.21658 -0.453228 21.3215
0.0428308 -0.485156 21.4026
0.146429 -0.591567 21.8327
-1.56531 -2.2393 19.8038
-1.07508 -1.08776 19.0804
-0.04824 -1.78375 18.8084
-0.691873 -0.920592 22.0873
-0.0141326 -3.41412 22.2128
-0.0840657 -0.14162 21.4036
0.0014643 -0.585312 21.2852
0.391835 0.524378 21.1648
-0.00505489 -0.135283 20.4438
1.05121 1.48274 20.148
0.0154759 1.00662 17.824
1.49418 1.68209 19.0005
1.93277 1.97071 16.4206
0.0028149 1.96129 17.8928
1.9762 1.52061 16.2993
-0.0506543 2.59906 17.9078
-1.35197 -0.411707 18.3706
-0.0806923 -1.61706 17.6684
2.41725 1.58108 14.4698
1.6861 -0.398341 6.5755
-0.00314082 0.656158 3.99594
2.75112 -0.112899 13.1128
-0.0984479 2.26498 8.52124
-0.749373 0.668532 19.0947
-0.0872736 0.411378 17.2598
1.50073 -1.1484 8.22651
-0.135919 -0.994094 18.3009
0.0821234 2.1085 -4.51396
0.220618 -1.47936 15.4585
-0.0023273 4.4605 -3.63524
-0.621221 0.96787 19.6653
0.00879995 0.736882 19.4213
-1.06889 1.5244 20.432
0.037709 1.86687 19.7694
-1.13832 1.23344 21.734
0.0447712 2.65653 20.7725
-0.411137 0.0606586 21.854
-0.000755155 1.05841 22.2224
-0.220381 -0.325481 21.6395
-0.00473058 0.103179 21.6884
-0.108265 -0.587776 20.9161
0.00224575 -0.22965 21.5054
-0.0127061 -0.441227 21.2272
1.53715 -2.36774 19.7679
1.05254 -1.1686 18.9722
0.944469 -0.798008 19.6907
0.693598 -0.914077 22.101
1.44317 -1.31127 21.1097
0.0853145 -0.148648 21.4083
0.270707 -0.45156 21.6567
-0.36167 0.537653 21.097
-0.169208 -0.0889511 21.8147
-0.977253 1.52867 19.9415
-1.00508 0.619244 21.7162
-1.5002 1.6613 19.0297
-1.94977 1.96889 16.5845
-1.33231 0.753648 21.4765
-1.95064 1.41034 16.7521
-0.996026 0.459616 21.5462
1.32306 -0.425394 18.2081
1.15746 -0.634898 19.365
-2.42479 1.45476 15.0333
-1.7605 -0.643266 7.38563
-2.11789 0.397722 19.7116
-2.68647 -0.116872 14.5121
-1.92112 0.363113 19.8401
0.739937 0.678159 19.0772
1.14736 0.152731 19.1387
-1.59454 -1.2533 9.81771
0.0742568 -1.02151 18.7339
-1.20093 -1.06537 19.9204
-0.22925 -1.44723 16.5892
-1.78059 -1.29049 19.5956
0.637698 0.939416 19.688
0.480805 0.418176 19.8004
1.1021 1.45864 20.4466
0.932101 0.871702 20.1865
1.14532 1.19483 21.7255
1.18838 0.811325 21.0604
0.410769 0.065686 21.8589
0.655341 0.215168 21.7406
0.224061 -0.327528 21.6474
0.177608 -0.286688 21.6247
0.103021 -0.592239 20.9803
-0.035907 -0.479884 21.4026
-0.142781 -0.564939 21.9029
1.07912 -0.665685 20.3468
0.873308 -0.431717 19.9455
0.695735 -0.560728 21.2969
1.26319 -0.68168 20.8492
0.138481 -0.29245 21.5631
0.43274 -0.454867 21.4794
-0.372371 -0.0155776 21.6763
-0.0802579 -0.220214 21.6643
-0.923516 0.241534 21.5278
-0.827377 0.0334185 21.6938
-1.00164 0.203282 21.0879
-1.19484 0.136144 21.3007
-1.17473 0.191674 20.7491
1.41325 -0.555445 20.1442
0.987326 -0.180578 19.7321
0.951963 -0.586621 21.3545
1.81912 -0.369399 20.6923
0.217261 -0.405773 21.6242
0.80656 -0.54919 21.5177
-0.408634 -0.215438 21.7969
0.0773898 -0.415999 21.7736
-1.12596 -0.0758578 21.5413
-0.813941 -0.419946 21.8372
-1.32241 -0.162934 21.3278
-1.20715 -0.441131 21.4507
-0.948122 -0.199882 20.9782
1.52303 0.10671 19.8774
0.687423 0.25677 19.8136
1.57334 -0.156793 21.1725
1.3282 0.523362 20.3112
0.718107 -0.45495 21.694
1.28894 0.140646 21.2571
-0.0753561 -0.483501 21.8268
0.574383 -0.20802 21.7134
-0.720579 -0.660285 21.6153
-0.0441269 -0.493754 21.5982
-1.16159 -0.709393 21.3414
-0.406681 -0.650771 21.4657
-0.468254 -0.870411 20.4463
0.670457 0.416245 20.0878
0.951266 0.522528 20.677
0.76296 0.235951 21.4042
0.255985 -0.155038 21.5888
-0.0372601 -0.367416 21.431
-0.200333 -0.453097 21.2999
-1.15752 -0.598004 20.2722
-2.18259 -2.64399 19.2968
-1.39267 -1.1763 20.1736
-2.10587 -1.11754 19.7181
-1.03433 -0.670335 19.6133
-1.89784 -1.40386 21.1626
-0.810375 -0.564963 21.3083
-0.488879 -0.526365 19.588
-0.706491 -0.775108 21.6328
-1.04295 -0.991255 21.9464
-0.241009 -0.569554 21.7401
-0.156558 -0.332887 21.5907
0.320554 -0.00235141 16.7767
-0.0351449 -0.270699 21.69
0.0115288 -0.53773 21.4183
0.229359 -0.199978 21.7733
0.40583 -0.105394 21.7324
0.663557 0.49184 15.4441
0.522606 0.18759 21.88
0.704591 -0.131379 20.5332
1.34955 0.50505 21.1533
1.07122 0.116304 21.5038
1.43137 1.61978 15.3786
1.25807 0.736133 21.5349
1.9176 0.282689 19.5224
1.87579 0.658941 20.6495
1.21182 0.0411961 21.2069
1.94961 1.7723 15.5693
1.59789 0.904219 21.2634
2.40998 0.430004 19.6216
1.48496 0.42355 20.6802
-1.50368 -0.261418 20.0159
-4.33823 -1.04311 16.387
-2.41953 0.425231 19.0417
-1.23617 -0.250422 19.2738
-3.72025 -0.710981 20.9382
-1.29851 -0.474137 21.3362
-2.47913 -0.391629 21.6677
-0.808325 -1.0705 21.5594
-0.41703 -0.502819 21.6687
-1.03134 -1.06692 21.5339
0.0546736 -0.533317 20.5389
0.30087 -0.384355 21.8947
0.209099 -0.577736 20.1087
1.40812 -0.440853 18.2419
1.08793 -0.44933 21.6253
0.52572 -1.46952 3.45456
0.910624 -1.10969 19.6979
1.94436 -0.558534 18.9942
1.40468 -0.499825 21.24
2.69434 0.268571 8.99715
1.71696 -1.26405 19.79
2.19434 -0.861483 19.3606
-1.0253 0.415946 19.9491
-1.3724 1.54796 18.9179
-0.705004 0.685458 19.882
-0.790026 0.431937 19.5068
-1.90456 1.22652 20.0556
-1.4311 0.401222 20.8352
-2.41736 2.08337 20.4461
-1.12031 0.958142 20.5856
-2.16061 0.554591 21.328
-0.988577 -0.0478594 21.5942
-3.01523 0.883811 22.5234
-1.03497 0.601299 21.542
-0.876812 -0.179448 22.0429
-0.222675 -0.348851 21.7121
-0.115644 -0.184093 17.866
-0.368193 -0.0778035 21.7265
-0.132386 -0.688394 21.8104
0.228488 -0.576569 21.5256
-0.206233 -0.625098 17.3134
-0.0584313 -0.400887 21.4969
0.270213 -0.987655 21.4093
0.489092 -0.700818 21.5883
0.280462 -1.41401 16.4739
0.0974766 -0.619556 21.3599
0.385849 -1.07679 21.7396
2.18352 -2.85224 19.1861
-0.0485317 -3.77643 19.5186
-0.101369 -6.88806 16.6024
-0.081273 -1.82156 18.2449
-0.00518726 -4.38521 23.1484
0.487582 -0.465986 19.6159
-0.000556511 -1.30583 22.3304
-0.00327755 -0.130687 12.1221
-0.312982 -0.0106421 16.748
0.000703599 -0.327598 20.5127
0.00224241 -0.0890259 13.1582
-0.612707 0.50731 14.9407
0.00320675 0.291402 19.2755
0.0124492 0.818388 7.98057
-1.39859 1.61808 15.2105
0.0182193 1.36916 17.6045
-0.00267602 0.007936 2.51218
0.00144469 1.50135 10.5559
-1.95874 1.68988 15.9123
-0.00758266 2.09592 17.296
-0.0400495 2.3526 5.13365
-0.0745511 2.43202 13.2145
4.43466 -1.13903 15.9114
-0.0956394 3.65201 13.2197
-0.0703336 -0.654539 16.9096
-0.575631 -1.47557 3.73834
0.0258695 0.363379 -3.09106
-0.0997754 0.125825 -1.46936
-2.76903 0.194713 10.3973
-0.00838129 2.45748 -4.21446
-0.125982 4.16705 0.98957
1.37391 1.53979 18.9223
0.024635 1.29823 19.4322
-0.0190372 0.961843 18.6236
0.0514362 3.8407 19.1835
2.42643 2.00351 20.4678
0.0379481 2.1924 20.212
0.0506617 5.5033 19.8635
2.9727 0.850505 22.5248
0.021142 2.27158 21.9467
-0.000521236 0.814377 16.6917
0.106624 -0.179562 17.7234
-0.00324119 0.359361 22.0012
-0.00153888 0.301226 5.49998
0.2059 -0.63473 17.5242
0.000376809 0.0163171 21.7635
0.0535974 0.65495 5.91545
-0.305789 -1.4167 17.2356
0.00800933 -0.571079 21.3658
0.0523171 1.26336 6.41392
1.20498 -0.624552 20.271
1.42398 -1.26352 20.155
2.22004 -1.21403 19.6375
1.06262 -0.748101 19.5455
1.9225 -1.44713 21.1763
0.808934 -0.571059 21.3119
0.706037 -0.78007 21.6372
1.03028 -0.992146 21.9523
0.254749 -0.572014 21.7366
0.15994 -0.334658 21.5966
0.0421183 -0.272218 21.6887
-0.00458899 -0.534835 21.4358
-0.224184 -0.196871 21.7625
-0.404409 -0.107725 21.7377
-0.524543 0.210403 21.881
-0.702843 -0.131552 20.5693
-1.37073 0.557068 20.935
-1.05617 0.109042 21.5012
-1.25555 0.770333 21.5404
-1.89253 0.264293 19.7651
-1.85246 0.636701 20.7011
-1.16309 0.01844 21.2053
-1.59519 0.869973 21.2663
-2.32085 0.377409 19.7792
-1.43159 0.414535 20.7722
1.56752 -0.266154 19.9948
2.48067 0.475629 18.9628
1.27486 -0.27885 19.1439
3.72142 -0.715481 20.9374
1.29584 -0.476581 21.339
2.47103 -0.392903 21.6575
0.811937 -1.06611 21.5746
0.415149 -0.503484 21.6709
1.03076 -1.05824 21.5848
-0.0512877 -0.532845 20.5802
-0.302021 -0.38441 21.8908
-0.204334 -0.593055 20.1997
-1.41061 -0.445877 18.4031
-1.06563 -0.432353 21.6534
-0.911178 -1.13172 20.1301
-1.91178 -0.587033 19.4254
-1.35632 -0.482348 21.1845
-1.62113 -1.18437 20.1946
-2.11715 -0.886851 19.5564
1.01407 0.411037 19.9632
0.705207 0.659992 19.9
0.790366 0.438468 19.4955
1.88263 1.16603 20.0783
1.39846 0.383207 20.8385
1.11372 0.904138 20.5984
2.10153 0.526606 21.3249
0.977241 -0.050574 21.5862
1.02452 0.578152 21.5351
0.873261 -0.179665 22.0421
0.226303 -0.342421 21.6958
0.369538 -0.0788719 21.7266
0.129875 -0.688639 21.8078
-0.237671 -0.58757 21.5408
0.0631005 -0.398297 21.4994
-0.278245 -0.971064 21.3865
-0.493351 -0.687023 21.5027
-0.101027 -0.616769 21.3772
-0.426307 -0.955881 21.5717
-1.7576 -1.20645 19.9751
-0.829423 -0.871136 21.7646
0.0156745 -0.369203 21.7091
0.680987 0.0758512 21.6741
1.63574 0.635067 20.8681
2.03644 0.655496 20.3989
-2.6028 -0.450516 19.2129
-1.72194 -0.937813 22.1154
-0.246486 -0.824676 20.9006
0.479418 -0.328179 19.7064
1.62335 -0.58776 18.1085
2.21246 -0.597916 19.6105
-1.37202 0.869966 19.5227
-2.055 0.901413 20.7816
-1.63178 0.132564 21.9468
-0.385293 -0.44366 21.9662
-0.00971855 -0.827619 21.7623
0.494192 -1.15917 21.0361
-0.0702473 -5.1024 18.62
0.00499876 -0.660381 16.1269
-3.66268e-05 -0.0625326 11.9573
0.0103418 0.184085 10.503
0.0114981 0.902589 8.87596
-0.0239038 2.2185 11.2247
-0.145063 -2.08655 10.348
0.011313 -0.0233873 0.301942
-0.224541 3.41876 -0.815774
0.00531576 2.44361 18.2049
0.0395986 3.68684 19.7554
0.0182279 3.65425 21.4454
-0.000115218 -0.00581687 12.5539
0.0192672 0.116969 5.72328
0.0202639 -1.03558 7.1607
1.82313 -1.31759 19.934
0.82271 -0.872421 21.7687
-0.00913377 -0.368053 21.7037
-0.687698 0.0920875 21.5846
-1.63945 0.642634 20.8439
-2.00668 0.604801 20.4612
2.75692 -0.486016 19.1054
1.71529 -0.941716 22.1169
0.25205 -0.822843 20.9343
-0.479624 -0.33663 19.7812
-1.61147 -0.598959 18.4731
-2.09243 -0.584135 20.0516
1.36957 0.862272 19.5273
2.00922 0.857382 20.7888
1.60645 0.121801 21.9322
0.385665 -0.443586 21.9673
-0.00477518 -0.827193 21.7535
-0.506734 -1.0701 20.9495
-0.793799 -0.163162 2.43918
0.0657974 -0.273037 1.08188
0.00897481 -0.0774177 2.18926
0.019583 -0.0199624 0.0250217
0 0 0
0.0759 0.12765 1.04861
-1.00391 -0.00461028 1.81268
-0.00828914 0.0633644 0.150749
-0.202511 0.00424473 0.752175
-0.0324703 -0.112231 -0.0160528
-0.0656756 -0.020754 -0.00800813
0 0 0
-0.075466 -0.299009 1.17103
0.541699 -0.118306 2.19497
0.00799336 -0.107457 2.6982
0 0 0
-0.0212484 -0.0208345 0.0271108
-0.0545291 0.139253 0.987192
0.00823872 0.0625234 0.149146
0.865708 -0.0127173 1.57909
0.207162 0.00403314 0.760813
0.0658571 -0.0210365 -0.0075931
0.0321154 -0.111834 -0.0158197
0 0 0
0.0371486 0.0244398 0.241087
0.00884168 -0.0039778 0.261957
0 0 0
5.7728e-05 4.89477e-06 0.000779958
0.0493425 0.0229071 0.526897
0.00255044 0.00114188 0.249415
0.00494221 -0.0208731 0.223467
0.00957792 -0.0410254 0.319619
-0.104554 -0.104909 0.28096
-0.000124816 0.000225413 0.0100761
-9.4233e-18 -2.44346e-17 -8.75633e-17
-0.0349055 0.0473003 0.0962316
0 0 0
2.55274e-05 0.000311876 0.0012871
0 0 0
0.0383761 0.0247826 0.26909
-0.0219034 0.00652625 0.371367
-9.52358e-05 7.40133e-06 0.00120589
-0.00889166 -0.00435849 0.26628
0 0 0
-0.0471293 0.0253807 0.532705
-0.0075273 -0.036148 0.314338
-0.00265055 0.000988578 0.254354
-0.00459831 -0.0197601 0.218344
0.10344 -0.103795 0.278203
0.0339599 0.0462738 0.0941339
0.000120338 0.000236122 0.00979254
0 0 0
-5.51059e-18 9.42481e-18 4.68209e-17
-0.038547 0.0247915 0.269007
-4.09795e-05 0.000498482 0.00205319
0 0 0
0 0 0
0 0 0
-9.22787e-08 2.57649e-06 -0.000108733
0.00126167 -0.836265 0.691225
0.000881382 -0.00450338 0.112876
0 0 0
0.00654817 -0.00237463 0.0661903
-0.000294933 -0.00192172 0.000122617
-6.13894e-06 0.000384985 0.0234326
0.000120652 -0.0807027 0.0502695
0.000602463 0.000772538 0.0555637
0.00021445 0.000254752 0.0134095
0 0 0
-2.21608e-06 0.00133807 0.00596967
-0.0103872 -0.0496958 0.325278
-0.0136033 0.00527957 0.0362487
0.000604809 -0.255612 -0.0777146
0 0 0
0.00349504 0.00439655 0.0919629
7.00267e-05 -0.000816537 0.013484
0 0 0
0 0 0
0 0 0
-0.000767343 -0.00758086 0.109105
0.000294849 -0.00185576 0.000120997
-0.00691585 -0.00268562 0.0691649
-0.000114264 0.000158438 0.00784106
-0.0006006 0.000745742 0.0556101
0.0140576 0.00545428 0.0374034
0.0104771 -0.0508062 0.328977
-7.37027e-05 -0.000848344 0.0139879
-0.00321689 0.00419321 0.0900999
0 0 0
0.00023813 1.79922e-05 0.00377465
0 0 0
-0.000263068 0.00275148 0.0282962
-0.000106738 0.00201983 0.0611027
-2.05965e-07 -9.06255e-08 -4.58384e-05
4.98987e-05 0.00284421 0.0191474
0 0 0
1.02777e-06 -2.04071e-07 0.000359728
-8.0139e-07 -1.53594e-06 -0.000172576
0.0126616 0.0691923 0.305034
-0.052192 0.0350784 0.636131
-8.95445e-05 0.00306981 0.00946345
-3.357e-05 0.138959 0.439438
-9.04946e-08 2.40518e-05 0.000704316
5.02791e-06 -0.000677586 0.0237137
-0.000273634 2.12535e-05 0.00432505
0 0 0
-3.54056e-18 -7.17823e-18 4.13045e-17
0.000301844 0.00302892 0.0312574
-4.82755e-05 0.00286786 0.0191074
0 0 0
0.0516935 0.0349991 0.634194
-0.0126223 0.0691263 0.304552
-3.07106e-05 -0.00354963 0.0357132
-0.0373542 -0.0408565 0.337844
0.00848114 -0.00436459 0.095284
0 0 0
0 0 0
0.000243187 0.00382524 0.0226555
0.000240835 0.00108839 0.0144919
0.00062784 0.00511968 0.0231949
-0.00151781 6.17216e-05 0.155986
-6.50522e-05 0.00112826 0.00797879
0.0163101 -0.00262618 0.0871441
0.00413352 -0.00574999 0.0560765