# vtk DataFile Version 2.0
tet_velo
ASCII
DATASET UNSTRUCTURED_GRID
POINTS 29498 float
-0.717287 0.145 -2.115
-0.738909 0.185 2.215
-0.715 0.696527 -2.125
-0.725 0.905 2.22429
0.725 0.145 -2.11362
0.738908 0.185 2.215
0.715 0.695 -2.12945
0.725 0.906857 2.225
-0.758063 0.124765 -0.671667
-0.771621 0.131747 0.771667
-0.804276 0.851961 -0.675237
-0.799344 0.913186 0.774527
0.762404 0.125565 -0.670747
0.772799 0.13314 0.772127
0.803913 0.851199 -0.677967
0.798553 0.913124 0.773517
-1.49078 -0.249779 -3.27012
-1.4904 -0.206009 -2.11248
-1.52158 -0.217985 -0.669509
-1.5315 -0.227353 0.771874
-1.50866 -0.195107 2.2147
-1.50306 -0.165786 3.37166
-1.50698 -0.138153 4.52981
-1.48829 0.0739673 -3.27363
-1.48916 0.136857 -2.11506
-1.53316 0.143187 -0.670724
-1.53699 0.142572 0.772808
-1.49649 0.173043 2.21698
-1.49548 0.201597 3.37407
-1.50419 0.228895 4.53199
-1.49011 0.68932 -3.28197
-1.49596 0.750493 -2.12286
-1.565 0.859816 -0.673989
-1.55961 0.905505 0.775044
-1.49639 0.910275 2.22366
-1.49692 0.936433 3.38049
-1.50833 0.965525 4.53728
-1.50502 1.71804 -3.2901
-1.51406 1.79278 -2.13052
-1.54432 1.91359 -0.678768
-1.5607 2.0021 0.77419
-1.55073 2.03975 2.22557
-1.54021 2.05918 3.38439
-1.53604 2.08147 4.54179
-0.738131 -0.246175 -3.26997
-0.726632 -0.19949 -2.11195
-0.751759 -0.226549 -0.669692
-0.767384 -0.23559 0.77095
-0.754606 -0.191223 2.21314
-0.750038 -0.163488 3.37063
-0.752421 -0.137904 4.52921
-0.737827 0.0713147 -3.27413
-0.744268 0.204639 3.37327
-0.750712 0.229225 4.53156
-0.738034 0.665982 -3.28383
-0.7443 0.935297 3.38071
-0.754577 0.964818 4.53735
-0.741226 1.70198 -3.29176
-0.742765 1.77762 -2.13222
-0.7681 1.90959 -0.679918
-0.789975 2.0055 0.773948
-0.789031 2.04176 2.22596
-0.781204 2.05959 3.38483
-0.777275 2.08145 4.54211
0.742854 -0.246269 -3.26996
0.749399 -0.199344 -2.11111
0.76883 -0.225853 -0.669009
0.76774 -0.234509 0.771328
0.745273 -0.190735 2.21327
0.747746 -0.162838 3.37077
0.752101 -0.137133 4.52934
0.731188 0.0710266 -3.27448
0.743778 0.205333 3.37346
0.749634 0.230049 4.53172
0.730446 0.665194 -3.286
0.737695 0.936479 3.38105
0.744915 0.965775 4.53752
0.774184 1.70152 -3.29354
0.785679 1.77716 -2.13413
0.786076 1.90939 -0.68142
0.763495 2.00575 0.773129
0.740674 2.04247 2.22568
0.737246 2.06042 3.38473
0.73939 2.08227 4.54204
1.49326 -0.249945 -3.27052
1.50202 -0.205833 -2.11202
1.53218 -0.216964 -0.668959
1.536 -0.225574 0.772331
1.50935 -0.193606 2.21506
1.50487 -0.164292 3.37196
1.50844 -0.136591 4.53003
1.48179 0.073469 -3.27469
1.48954 0.136617 -2.11516
1.53515 0.143946 -0.670606
1.54188 0.144423 0.773151
1.50291 0.174697 2.21743
1.49911 0.203223 3.37444
1.50479 0.23055 4.53225
1.48359 0.688151 -3.28536
1.49345 0.749044 -2.12709
1.56347 0.859308 -0.67683
1.56016 0.906416 0.774098
1.49836 0.912701 2.22419
1.49342 0.938562 3.38094
1.50023 0.967363 4.53752
1.53195 1.71727 -3.29334
1.54637 1.79205 -2.13389
1.55684 1.91334 -0.681442
1.53932 2.00267 0.772671
1.51127 2.04109 2.22497
1.50162 2.06076 3.38412
1.50085 2.08305 4.54161
-0.77133 0.420764 -2.17519
0.00385651 0.139903 -2.11941
-0.751765 0.120793 -1.39333
-0.727132 0.545 2.21482
-5.06639e-07 0.182278 2.21772
-0.75275 0.160889 1.49333
0 0.745876 -2.17734
-0.795972 0.810578 -1.40012
0 0.938257 2.25697
-0.784705 0.931626 1.49941
0.775228 0.42 -2.17676
0.747674 0.131311 -1.39218
0.726054 0.545929 2.2141
0.754556 0.160367 1.49356
0.796999 0.810642 -1.40371
0.785755 0.933969 1.49926
-0.767408 0.12569 0.05
-0.861399 0.488363 -0.673452
0.00217086 0.0984602 -0.671207
-0.871849 0.522467 0.773097
0.000588629 0.108942 0.771897
-0.803191 0.883954 0.0496449
-0.000181727 1.12598 -0.676602
-0.000395627 1.39024 0.774022
0.770775 0.126179 0.0506899
0.860534 0.488382 -0.674357
0.870831 0.523132 0.772822
0.799432 0.88036 0.0477749
-0.864756 0.454563 -1.39673
-0.870609 0.505415 0.0498224
-0.894919 0.533733 1.49637
0.00301369 0.0996169 -1.39276
0.00137975 0.0751938 0.0503449
0.000294061 0.135784 1.49345
0.00192825 0.420382 -2.32424
-2.5332e-07 0.545464 2.25125
-9.08633e-05 0.870651 -1.40191
-0.000288677 1.38621 0.0487099
-0.000197814 1.35807 1.49933
0.860654 0.454191 -1.39795
0.863596 0.505757 0.0492324
0.885543 0.53453 1.49641
-1.10323 0.140929 -2.11503
-0.72196 -0.0272451 -2.11347
-0.727557 0.108157 -2.69457
-1.1177 0.179022 2.21599
-0.746758 -0.0031117 2.21407
-0.741588 0.19482 2.79413
-1.10548 0.72351 -2.12393
-0.726517 0.681255 -2.70441
-0.728882 1.23708 -2.12861
-1.1107 0.907638 2.22398
-0.73465 0.920148 2.8025
-0.757016 1.47338 2.22513
0.7372 -0.0271718 -2.11236
0.728094 0.108013 -2.69405
1.10727 0.140808 -2.11439
0.742091 -0.00286765 2.21414
0.741343 0.195167 2.79423
1.12091 0.179848 2.21622
0.722723 0.680097 -2.70772
0.75034 1.23608 -2.13179
1.10423 0.722022 -2.12827
0.731347 0.921668 2.80302
0.732837 1.47466 2.22534
1.11168 0.909779 2.2246
-1.14561 0.133976 -0.671196
-0.754911 -0.0508918 -0.670679
-1.15431 0.13716 0.772237
-0.769503 -0.0519212 0.771308
-1.18464 0.855889 -0.674613
-0.786188 1.38078 -0.677577
-1.17947 0.909345 0.774785
-0.794659 1.45934 0.774237
0.765617 -0.0501442 -0.669878
1.14878 0.134755 -0.670676
0.770269 -0.0506842 0.771727
1.15734 0.138781 0.772639
0.794995 1.38029 -0.679694
1.18369 0.855253 -0.677398
0.781024 1.45944 0.773323
1.17936 0.90977 0.773808
-1.49059 -0.227894 -2.6913
-1.48954 -0.0879057 -3.27188
-1.11445 -0.247977 -3.27005
-1.50599 -0.211997 -1.39099
-1.48978 -0.034576 -2.11377
-1.10852 -0.20275 -2.11221
-1.52654 -0.222669 0.0511825
-1.52737 -0.037399 -0.670117
-1.13667 -0.222267 -0.6696
-1.52008 -0.21123 1.49329
-1.53424 -0.0423904 0.772341
-1.14944 -0.231471 0.771412
-1.50586 -0.180446 2.79318
-1.50258 -0.0110318 2.21584
-1.13163 -0.193165 2.21392
-1.50502 -0.15197 3.95074
-1.49927 0.0179053 3.37287
-1.12655 -0.164637 3.37114
-1.50559 0.045371 4.5309
-1.1297 -0.138029 4.52951
-1.48873 0.105412 -2.69434
-1.4892 0.381644 -3.2778
-1.11306 0.072641 -3.27388
-1.51116 0.140022 -1.39289
-1.49256 0.443675 -2.11896
-1.53507 0.142879 0.0510419
-1.54908 0.501501 -0.672357
-1.51674 0.157808 1.49489
-1.5483 0.524038 0.773926
-1.49599 0.18732 2.79552
-1.49644 0.541659 2.22032
-1.49984 0.215246 3.95303
-1.4962 0.569015 3.37728
-1.11988 0.203118 3.37367
-1.50626 0.59721 4.53463
-1.12745 0.22906 4.53178
-1.49303 0.719906 -2.70242
-1.49756 1.20368 -3.28604
-1.11407 0.677651 -3.2829
-1.53048 0.805154 -1.39843
-1.50501 1.27164 -2.12669
-1.5623 0.88266 0.0505276
-1.55466 1.3867 -0.676378
-1.528 0.90789 1.49935
-1.56016 1.4538 0.774617
-1.49665 0.923354 2.80208
-1.52356 1.47501 2.22462
-1.50262 0.950979 3.95888
-1.51856 1.4978 3.38244
-1.12061 0.935865 3.3806
-1.52218 1.5235 4.53953
-1.13145 0.965171 4.53732
-1.50954 1.75541 -2.71031
-1.12312 1.71001 -3.29093
-1.52919 1.85318 -1.40464
-1.12841 1.7852 -2.13137
-1.55251 1.95784 0.047711
-1.15621 1.91159 -0.679343
-1.55572 2.02093 1.49988
-1.17534 2.0038 0.774069
-1.54547 2.04946 2.80498
-1.16988 2.04076 2.22577
-1.53812 2.07032 3.96309
-1.16071 2.05938 3.38461
-1.15666 2.08146 4.54195
-0.732381 -0.222833 -2.69096
-0.737979 -0.0874303 -3.27205
0.00236154 -0.246222 -3.26997
-0.739195 -0.213019 -1.39082
0.0113837 -0.199417 -2.11153
-0.759572 -0.231069 0.050629
0.00853578 -0.226201 -0.66935
-0.760995 -0.213406 1.49205
0.000177805 -0.235049 0.771139
-0.752322 -0.177356 2.79188
-0.00466657 -0.190979 2.21321
-0.75123 -0.150696 3.94992
-0.747153 0.0205754 3.37195
-0.00114614 -0.163163 3.3707
-0.751567 0.0456607 4.53038
-0.000159884 -0.137518 4.52927
-0.73793 0.368648 -3.27898
-0.00331947 0.0711707 -3.2743
-0.74749 0.216932 3.95241
-0.744284 0.569968 3.37699
-0.000244777 0.204986 3.37336
-0.752645 0.597022 4.53446
-0.000538904 0.229637 4.53164
-0.73963 1.18398 -3.28779
-0.00379385 0.665588 -3.28491
-0.749438 0.950057 3.95903
-0.762752 1.49744 3.38277
-0.00330273 0.935888 3.38088
-0.765926 1.52313 4.53973
-0.0048307 0.965296 4.53744
-0.741995 1.7398 -2.71199
0.0164794 1.70175 -3.29265
-0.755432 1.84361 -1.40607
0.0214572 1.77739 -2.13317
-0.779038 1.95754 0.0470152
0.00898808 1.90949 -0.680669
-0.789503 2.02363 1.49995
-0.0132403 2.00562 0.773539
-0.785118 2.05067 2.8054
-0.0241786 2.04211 2.22582
-0.77924 2.07052 3.96347
-0.0219793 2.06 3.38478
-0.0189429 2.08186 4.54208
0.746127 -0.222806 -2.69053
0.737021 -0.0876209 -3.27222
1.11805 -0.248107 -3.27024
0.759115 -0.212599 -1.39006
1.12571 -0.202588 -2.11156
0.768285 -0.230181 0.0511597
1.15051 -0.221409 -0.668984
0.756507 -0.212622 1.4923
1.15187 -0.230041 0.77183
0.74651 -0.176786 2.79202
1.12731 -0.192171 2.21417
0.749924 -0.149985 3.95005
0.745762 0.0212479 3.37212
1.12631 -0.163565 3.37137
0.750868 0.0464584 4.53053
1.13027 -0.136862 4.52968
0.730817 0.36811 -3.28024
1.10649 0.0722478 -3.27458
0.746706 0.217691 3.95259
0.740736 0.570906 3.37725
1.12145 0.204278 3.37395
0.747275 0.597912 4.53462
1.12721 0.230299 4.53198
0.752315 1.18336 -3.28977
1.10702 0.676672 -3.28568
0.741305 0.951127 3.95928
0.73747 1.49845 3.38289
1.11556 0.93752 3.38099
0.742153 1.52402 4.53978
1.12257 0.966569 4.53752
0.779932 1.73934 -2.71383
1.15307 1.7094 -3.29344
0.785878 1.84327 -1.40777
1.16602 1.7846 -2.13401
0.774785 1.95757 0.0458545
1.17146 1.91136 -0.681431
0.752084 2.02411 1.4994
1.15141 2.00421 0.7729
0.73896 2.05144 2.80521
1.12597 2.04178 2.22533
0.738318 2.07134 3.96339
1.11943 2.06059 3.38443
1.12012 2.08266 4.54182
1.49764 -0.227889 -2.69127
1.48752 -0.0882381 -3.2726
1.5171 -0.211399 -1.39049
1.49578 -0.034608 -2.11359
1.53409 -0.221269 0.0516862
1.53367 -0.0365094 -0.669782
1.52268 -0.20959 1.49369
1.53894 -0.0405754 0.772741
1.50711 -0.178949 2.79351
1.50613 -0.00945465 2.21624
1.50666 -0.150442 3.951
1.50199 0.0194657 3.3732
1.50662 0.0469791 4.53114
1.48566 0.105043 -2.69492
1.48269 0.38081 -3.28002
1.51234 0.140281 -1.39288
1.49149 0.44283 -2.12113
1.53852 0.144184 0.0512723
1.54931 0.501627 -0.673718
1.52239 0.15956 1.49529
1.55102 0.525419 0.773625
1.50101 0.18896 2.79594
1.50063 0.543699 2.22081
1.50195 0.216886 3.95335
1.49627 0.570893 3.37769
1.50251 0.598956 4.53488
1.48852 0.718597 -2.70623
1.50777 1.20271 -3.28935
[...]
POINT_DATA 29498
VECTORS point_vectors float
-7.60219 -9.84575 13.9202
-0.099046 0.640534 2.40994
-4.48607 3.02514 5.93256
0.155679 -0.0617566 0.572455
7.4698 -9.19913 13.7452
0.0838529 0.576942 2.08276
5.00528 3.70588 6.42369
-0.135899 0.0983272 0.386308
0.010908 0.000623843 0.175863
0.0258068 -0.00208636 0.216637
0 0 0
0 0 0
-0.00591003 0.000209124 0.105501
-0.0223567 -0.00287195 0.243509
0 0 0
0 0 0
-0.571462 -0.263771 19.8286
-1.2792 -0.717348 20.5267
-0.482593 -0.382311 21.3831
0.0190504 -0.0580337 21.5888
0.50536 0.295263 21.5477
0.760519 0.45721 21.2791
0.810384 0.0645154 20.7891
-0.700235 -0.193485 19.7275
-1.74084 -0.581159 20.4653
-0.68737 -0.473848 21.4356
-0.0362317 -0.180517 21.6773
0.723106 0.174356 21.6436
1.05846 0.256355 21.3364
1.10136 -0.0349514 21.1894
-0.716799 0.100725 19.6524
-1.92894 0.229191 20.3113
-1.24698 -0.262055 21.3904
-0.273416 -0.246855 21.8025
0.699142 -0.325084 21.6848
1.16231 -0.38724 21.2935
1.00939 -0.306278 21.1824
-0.438596 0.329748 19.9309
-0.838025 0.611074 20.3053
-0.905812 0.504782 21.0802
-0.33548 0.0658784 21.5778
0.182222 -0.306603 21.4999
0.369464 -0.411267 21.3349
0.375951 -0.378012 20.8702
-0.563008 -0.619904 19.2835
-2 -3.29607 20.7162
-0.449222 -0.460299 21.6354
0.0409142 0.0876328 21.0851
0.249597 0.926882 20.2013
0.522321 1.33418 19.7017
0.722137 0.987479 19.626
-0.684233 -0.419854 18.9832
0.955325 2.05455 12.1606
1.59419 0.997852 13.5511
-0.731426 0.176354 18.7952
2.04638 -0.143913 10.2332
1.54854 -0.328759 15.0221
-0.355247 0.581218 19.6167
-0.81751 1.41279 20.0274
-1.21517 1.63965 21.0755
-0.40412 0.359944 21.972
0.158954 -0.515061 21.6504
0.309778 -0.761783 21.3791
0.283075 -0.696783 20.5941
0.565836 -0.610499 19.3043
2.01168 -3.16239 20.7242
0.441599 -0.447231 21.6938
-0.0513143 0.0655336 21.0434
-0.258319 0.743186 19.9626
-0.450158 1.16632 19.5576
-0.727673 0.893871 19.2203
0.679359 -0.425114 18.9724
-0.634447 2.00441 10.7898
-1.40052 0.759084 12.3119
0.715997 0.175985 18.7808
-2.002 0.082266 9.48709
-1.47661 -0.398223 14.1258
0.365292 0.564088 19.6375
0.844955 1.35189 20.0446
1.21609 1.59826 21.076
0.388378 0.394545 21.9727
-0.179157 -0.478122 21.6478
-0.330884 -0.738236 21.3925
-0.295118 -0.692017 20.4885
0.574806 -0.264578 19.8206
1.25743 -0.698574 20.5358
0.490451 -0.374322 21.3694
-0.0393532 -0.0634889 21.5785
-0.460295 0.237118 21.51
-0.715373 0.400207 21.282
-0.786889 0.0979365 20.8877
0.702801 -0.188947 19.7292
1.73318 -0.56952 20.4636
0.669996 -0.470202 21.43
0.0367223 -0.185533 21.6466
-0.630073 0.14076 21.5905
-0.966209 0.200141 21.4042
-1.08635 0.0347215 21.3248
0.713158 0.10446 19.6486
1.91767 0.228723 20.313
1.22738 -0.267353 21.3913
0.286303 -0.244268 21.7699
-0.622296 -0.278501 21.6394
-1.0919 -0.306907 21.3375
-1.01206 -0.245025 21.2589
0.43219 0.321374 19.9399
0.821942 0.587182 20.3181
0.888195 0.491768 21.0718
0.33836 0.0750872 21.5685
-0.185882 -0.286069 21.4737
-0.363635 -0.382545 21.3208
-0.362427 -0.38199 20.9174
-1.1577 -0.10662 1.36207
-0.000278215 -0.525141 0.897143
0.0557881 -0.0380966 0.80069
0 0 0
-0.057323 0.0379502 0.189457
-0.00506945 0.0127649 0.390735
0.0090567 0.176063 0.568241
-0.451212 -0.229074 1.47283
-0.0167095 0.0862111 -0.0248491
0 0 0
1.64943 -0.166257 1.8829
-0.0267304 -0.0161655 0.427002
0 0 0
-0.0086536 0.0138292 0.396888
0.451008 -0.231829 1.46723
0 0 0
0.000850281 -0.000232341 0.0319035
0 0 0
-0.000221801 -0.00131898 0.131568
0 0 0
-0.0014309 0.000847643 0.0427728
0 0 0
0.000410955 0.0350506 0.0632411
3.41897e-06 -1.71016e-06 0.000757972
-0.00447828 -0.00119439 0.14903
-1.38263e-18 7.66448e-18 -1.79046e-16
0 0 0
0 0 0
-0.000446113 -0.00612771 0.0709028
0 0 0
0.0247376 0.040164 0.323181
-2.06141e-05 -0.0039618 0.0748841
-0.000248791 -0.000184011 0.0395876
0 0 0
-1.18438e-19 -2.2642e-17 5.04763e-17
0 0 0
0 0 0
-9.92394e-05 0.00137854 0.0283757
-4.75469e-05 -0.000427352 0.00501577
0 0 0
0 0 0
-0.012928 0.0184995 0.142195
-3.35676 -1.54184 20.4711
-3.43153 -5.31008 20.7773
-1.97598 -1.56712 17.8073
1.08934 0.67331 19.4409
0.186499 1.11631 14.8129
0.199782 1.30198 8.55068
-3.81637 0.894307 20.0919
-2.25859 0.930898 17.2323
-1.90858 2.5769 19.7178
1.14428 -0.261775 18.9479
0.766164 0.445305 5.69919
0.701049 -0.740713 19.0335
3.4764 -5.01949 20.8157
1.9828 -1.57576 17.7974
3.33052 -1.51763 20.5046
-0.156495 0.894408 14.2712
0.240945 0.920514 7.3797
-0.94098 0.565686 19.2951
2.24652 0.927198 17.2056
1.93328 2.47925 19.7365
3.84228 0.890069 20.1214
-0.782039 1.15209 5.17453
-0.800405 -0.608621 18.426
-1.04793 -0.132751 18.7839
-0.513443 -0.741139 21.38
0.154293 -0.209343 16.5901
0.0926053 -0.209934 20.4902
0.401604 0.125968 15.4553
-2.11638 -0.8159 21.5672
-3.35098 2.2741 20.9295
-0.320465 -0.514757 20.4095
-0.677955 0.217149 20.6686
-0.165543 -0.220893 16.8109
0.513844 -0.720671 21.4273
-0.418372 0.0883275 15.3791
-0.086398 -0.23357 20.5436
3.33073 2.19394 20.9538
2.08753 -0.846637 21.5392
0.655642 0.317397 20.3628
0.356207 -0.506227 20.3983
-0.989643 -0.503986 19.9737
-0.645979 -0.23801 19.7888
-0.610303 -0.419714 19.5806
-0.889874 -0.56664 21.1729
-1.4916 -0.684809 20.52
-1.79874 -1.54587 20.5831
-0.198219 -0.197906 21.528
-0.590596 -0.439514 21.4094
-0.410383 -0.498827 21.588
0.258943 0.126724 21.6339
-0.0165339 -0.132094 21.6196
0.0582079 -0.0441297 21.6912
0.660249 0.407232 21.4282
0.592213 0.258321 21.5602
0.552723 0.608232 21.5579
0.757238 0.382708 20.8833
0.924135 0.306295 21.3822
0.939948 0.947796 20.9485
0.955871 0.014782 20.9892
0.838599 0.847921 20.9922
-1.25296 -0.38165 19.8289
-0.734875 -0.0586884 19.6598
-0.774344 -0.338658 19.4099
-1.17543 -0.56146 21.2487
-1.96968 -0.219253 20.3794
-0.322522 -0.337982 21.5743
-0.960459 -0.456311 21.4295
0.301169 -0.010416 21.7573
-0.129705 -0.257833 21.8008
0.939236 0.234936 21.5279
0.798802 -0.106372 21.6811
1.08267 0.233162 20.8815
1.25464 -0.0855985 21.6639
1.31192 0.908627 19.2538
1.29399 -0.254706 21.3628
1.25816 0.647817 19.3642
-1.3547 0.192469 19.7195
-0.597834 0.287028 19.764
-0.825829 0.141203 19.2656
-1.59126 -0.0554077 21.0459
-1.31852 0.609288 20.2583
-0.771383 -0.286269 21.6821
-1.2853 0.26036 21.2248
0.215387 -0.244293 21.8511
-0.398462 -0.0678373 21.7219
0.933896 -0.354113 21.4582
0.375693 -0.387278 21.5474
0.942085 -0.404742 21.1471
0.691454 -0.481062 21.1902
1.61371 -0.560609 20.278
0.573052 -0.402296 20.9741
1.36199 -0.605503 19.9477
-0.659168 0.482175 20.0583
-0.44484 0.455634 19.7732
-0.934449 0.610116 20.696
-0.940957 0.986138 20.1826
-0.671899 0.285275 21.4538
-1.14114 0.902685 21.1451
-0.0356003 -0.138737 21.5509
-0.411417 0.166581 21.7566
0.343866 -0.398214 21.387
0.150517 -0.406971 21.5928
0.497113 -0.51425 20.8108
0.36826 -0.62728 21.3011
0.369562 -0.544622 21.1454
-1.25125 -1.64252 19.0484
-0.62946 -0.52123 19.1174
-0.000480338 -0.797161 19.0023
-0.987769 -1.22242 22.1225
0.0257676 -4.74828 21.198
-0.178287 -0.162609 21.2672
3.13761e-05 -0.718825 20.916
0.16462 0.428911 20.6027
-0.039872 -0.0479542 19.3143
0.306536 1.14489 19.7392
-0.172032 0.42973 17.0284
0.669735 1.59485 19.7073
0.738692 1.69452 15.9314
-0.288651 0.837734 16.4835
1.15816 0.992665 16.5886
-0.0886236 1.15665 13.8015
-0.760434 -0.109595 18.7785
-0.00638354 -0.60302 18.4812
1.41477 1.51448 12.9262
1.91271 1.15574 8.65655
-0.00522635 0.143004 -1.28371
2.06621 0.474322 10.3325
0.0401742 1.02263 7.80876
-0.568615 0.573185 19.1768
-0.00666343 0.27566 18.2785
2.01333 -0.628642 11.7253
0.989776 -1.14421 19.0677
0.120375 -1.06624 -1.49022
0.593086 -1.14699 19.6648
0.227092 -1.49241 2.39199
-0.603555 1.05825 19.671
0.00804346 0.730576 19.4655
-1.03307 1.51834 20.4792
0.0271514 1.87307 19.8706
-0.925429 1.08103 21.876
0.0195526 2.70273 20.9001
-0.0416372 -0.157585 21.8964
-0.0295729 0.701704 22.1896
0.247687 -0.651285 21.4441
-0.027958 -0.542876 21.8346
0.245873 -0.690434 21.3751
-0.0267606 -0.868445 21.4049
-0.0170479 -0.827366 21.3955
1.25552 -1.6091 19.0961
0.628167 -0.520581 19.1224
0.609009 -0.41101 19.5829
0.980437 -1.16798 22.0227
1.77474 -1.47997 20.5798
0.163245 -0.154274 21.3029
0.412123 -0.494213 21.5815
-0.211434 0.399732 20.5063
-0.0630875 -0.0613993 21.6584
-0.265134 0.801582 19.4707
-0.502559 0.509146 21.4809
-0.613426 1.37643 19.3112
-0.541264 1.58689 15.1751
-0.857552 0.833218 20.94
-1.0641 0.826477 15.7661
-0.827204 0.844052 21.0267
0.750015 -0.110287 18.7597
0.779427 -0.348853 19.3979
-1.29403 1.26357 11.6835
-1.66998 1.19785 7.33428
-1.14876 0.830635 19.0527
-1.80201 0.201027 8.61546
-1.20057 0.620717 19.1183
0.572347 0.560288 19.1949
0.821385 0.141164 19.2609
-1.91844 -0.501562 10.9895
-1.0601 -1.02472 18.8061
-1.56382 -0.416643 20.208
-0.680536 -1.13702 19.5328
-1.41666 -0.474555 20.0543
0.62516 1.01236 19.6969
0.449608 0.441736 19.7819
1.04751 1.48739 20.4822
0.929513 0.938511 20.1929
0.916764 1.09038 21.8638
1.12934 0.878508 21.1382
0.0194604 -0.125666 21.9029
0.409212 0.19433 21.7445
-0.268156 -0.607405 21.4516
-0.171087 -0.381729 21.591
-0.230906 -0.67826 21.4575
-0.390178 -0.606193 21.3153
-0.362602 -0.553728 21.2023
0.980767 -0.497263 19.9955
0.647188 -0.232696 19.7889
0.874995 -0.547322 21.1715
1.47688 -0.662523 20.5132
0.20862 -0.201913 21.5032
0.584442 -0.434323 21.4012
-0.254684 0.0907396 21.5965
0.00355504 -0.138413 21.6043
-0.593691 0.332599 21.4299
-0.521016 0.211545 21.5157
-0.755985 0.332955 20.837
-0.866829 0.298464 21.4307
-0.936618 0.066329 21.1062
1.27599 -0.395166 19.8227
0.732572 -0.0573049 19.6573
1.16208 -0.548563 21.244
1.97003 -0.21969 20.3924
0.308717 -0.329883 21.5454
0.939937 -0.448212 21.4255
-0.27449 -0.0279637 21.7111
0.146514 -0.262133 21.753
-0.80757 0.193838 21.5331
-0.702184 -0.0908163 21.6367
-1.0388 0.202303 20.8361
-1.16829 -9.82848e-05 21.8113
-1.28813 -0.154118 21.5075
1.35424 0.193083 19.7084
0.597135 0.281647 19.7704
1.58732 -0.0621173 21.0433
1.2963 0.589302 20.2667
0.754213 -0.290936 21.6589
1.26853 0.258362 21.2167
-0.185903 -0.230053 21.8094
0.409055 -0.0562031 21.7104
-0.852964 -0.308465 21.4413
-0.36601 -0.354691 21.5479
-0.926719 -0.421819 21.027
-0.673783 -0.442528 21.2797
-0.565505 -0.408358 20.9816
0.653353 0.46364 20.0705
0.917325 0.588375 20.6951
0.672988 0.285591 21.4445
0.0318854 -0.113717 21.5669
-0.333266 -0.353998 21.4153
-0.472847 -0.521351 20.8686
-1.12631 -0.47766 19.9196
-1.61352 -1.72684 18.5205
-1.22914 -0.943009 19.6206
-1.75901 -0.817107 19.1524
-0.718821 -0.386352 19.4782
-2.48793 -1.67959 20.5376
-1.04181 -0.583705 21.2053
-0.600095 -0.732597 18.8384
-0.956091 -0.894482 21.5282
-1.34032 -0.970616 21.7778
-0.451071 -0.602168 21.6331
-0.265759 -0.288433 21.5355
0.249017 -0.0496755 15.9301
-0.140255 -0.252361 21.646
-0.110299 -0.455723 20.878
0.100284 -0.12752 21.4096
0.260767 0.0535425 21.6935
0.293201 0.437821 14.8329
0.277629 0.235964 21.7103
0.434189 0.182411 19.7256
0.825357 0.680268 20.9749
0.755924 0.373726 21.4124
0.315671 1.40857 15.6155
0.74242 0.770691 21.3997
1.33625 0.789198 19.4849
1.25314 0.980942 20.9694
0.936298 0.351604 20.7934
0.550603 1.66496 17.3044
0.86212 0.840731 20.9976
1.59573 0.680001 20.2378
1.00496 0.846786 21.143
-1.38558 -0.121009 19.7301
-2.41929 -0.464223 17.103
-1.94424 0.410271 18.9346
-0.860588 -0.0786392 19.2596
-4.18495 -0.423761 20.2471
-1.433 -0.360608 21.1977
-2.42199 -0.144344 21.4057
-0.998357 -1.05457 20.8969
-0.513658 -0.394099 21.6491
-1.11827 -0.88526 21.183
0.0159905 -0.207086 19.3893
0.302698 -0.152529 21.8566
0.410783 -0.249136 19.6711
1.30388 0.318959 17.6063
1.03856 -0.0979784 21.53
0.267789 1.12789 2.9206
1.42337 -0.422438 19.6635
1.96334 0.29332 18.7505
1.21474 -0.0921185 20.9286
2.41423 0.946154 10.8267
1.69979 -0.616673 20.0096
1.70022 0.0592174 16.2125
-0.980171 0.489618 19.8683
-1.20055 1.46751 18.9019
-0.708187 0.768754 19.8685
-0.64533 0.421782 19.4887
-1.80149 1.28863 20.0524
-1.3726 0.439726 20.7899
-2.1286 1.9409 20.4138
-1.05555 0.974859 20.6175
-2.07417 0.702774 21.2856
-0.883729 0.0769261 21.6161
-2.30168 0.778427 22.3539
-0.848507 0.576524 21.6365
-0.604517 -0.0240352 22.053
0.0320895 -0.229599 21.7347
0.264181 -0.208049 19.6303
-0.0771019 -0.155857 21.7303
0.437639 -0.618438 21.8125
0.578969 -0.485938 21.4226
0.766529 -0.968313 19.5995
0.284372 -0.542862 21.4179
0.75272 -0.934552 21.5278
0.611225 -0.655557 21.1552
0.825247 -1.28637 19.6811
0.281167 -0.466348 21.2076
0.596171 -0.765437 20.3391
1.61747 -1.71261 18.5439
0.0138503 -2.55382 18.4121
-0.00403006 -2.6798 16.084
-0.00318694 -0.723532 18.7033
0.0191913 -7.45502 22.5623
0.587834 -0.674058 18.7454
0.0104948 -1.64029 22.0751
0.000867494 -0.246763 11.7015
-0.271861 -0.0497333 16.0255
-0.00348144 -0.364801 19.8883
-0.0943484 0.0764287 10.2014
-0.377548 0.417926 14.6788
-0.0543078 0.227065 18.0368
-0.375105 0.330803 8.37646
-0.13182 1.01537 14.8329
-0.375328 0.316491 16.0837
-0.580983 -0.943968 -1.49454
-0.474061 0.74992 8.05517
-0.536233 1.51916 16.3838
-0.160203 1.27564 15.9355
0.235945 -0.0828188 1.65444
-0.0641402 1.19484 10.1134
2.41699 -0.471794 17.0827
-0.0171563 1.6681 15.0772
-0.00715998 -0.177193 18.2317
0.419295 1.51249 1.49659
0.180844 -0.271419 -0.230294
0.770052 -3.07848 -5.39393
-2.25895 0.858731 9.31078
0.253052 -2.1055 -0.0284873
0.211433 0.15718 3.69991
1.20554 1.432 18.9319
0.0157613 1.36868 19.4609
0.00381954 0.768652 18.8573
0.0363291 3.8094 19.4491
2.1322 1.89596 20.4247
0.0246278 2.14729 20.2634
0.0185959 5.58412 19.5063
2.30749 0.752747 22.324
-0.0124349 1.91145 22.2257
-0.0340032 0.493708 16.5087
-0.359667 -0.0816763 19.085
-0.0328899 -0.0872714 22.019
-0.0871997 -0.591031 10.0491
-0.841049 -0.819629 19.0303
-0.0148942 -0.722652 21.4478
-0.0308145 -1.5651 14.4092
-0.875998 -1.28128 19.4848
0.016895 -1.12998 21.1854
-0.0566398 -1.36851 18.4245
1.12623 -0.47587 19.9227
1.22924 -0.928059 19.6268
1.76748 -0.826005 19.1447
0.721602 -0.392501 19.4677
2.44181 -1.62468 20.5481
1.02703 -0.557188 21.2018
0.953043 -0.876965 21.5036
1.3314 -0.955024 21.757
0.455926 -0.58891 21.6251
0.264833 -0.288754 21.5023
0.133786 -0.251381 21.6237
0.0970746 -0.439682 20.9314
-0.0958807 -0.147478 21.3892
-0.243815 0.0368642 21.6551
-0.279545 0.19849 21.6602
-0.427358 0.126826 19.7632
-0.729605 0.56606 20.8348
-0.654038 0.313692 21.4158
-0.63995 0.62957 21.392
-1.05716 0.665316 19.3188
-1.15463 0.86464 20.9352
-0.912857 0.299082 20.6604
-0.871182 0.816051 21.1152
-1.53053 0.762846 20.2795
-0.991612 0.855669 21.195
1.39002 -0.122992 19.7095
1.94462 0.410389 18.9261
0.858343 -0.0794315 19.2522
4.14193 -0.431436 20.2912
1.42924 -0.36065 21.1831
2.41155 -0.162952 21.3946
0.958079 -1.04002 20.9594
0.501202 -0.387806 21.6259
1.07914 -0.90161 21.1338
0.00606468 -0.234153 19.497
-0.276753 -0.147048 21.8123
-0.374676 -0.210364 19.6622
-1.13759 0.359025 17.4985
-0.906866 -0.0650051 21.5643
-1.27426 -0.246021 19.5242
-1.7605 0.386917 18.4034
-1.1563 -0.154124 20.9263
-1.75367 -0.518355 20.0622
-1.57836 0.000401779 15.5019
0.972763 0.478975 19.8796
0.712064 0.745204 19.885
0.643887 0.41622 19.4989
1.78144 1.23978 20.0619
1.35109 0.433736 20.7923
1.0476 0.935981 20.6214
2.04486 0.676784 21.2827
0.87777 0.0797817 21.5974
0.845392 0.584831 21.6224
0.619696 0.00193177 22.0327
-0.0174746 -0.211421 21.7113
0.0654227 -0.133256 21.7214
-0.424005 -0.557567 21.8006
-0.556733 -0.445276 21.4174
-0.290604 -0.525002 21.4286
-0.732385 -0.884623 21.6583
-0.675152 -0.655196 21.3021
-0.268088 -0.461207 21.2752
-0.62233 -0.765394 20.2633
-1.51465 -0.932643 19.3841
-1.12609 -0.949288 21.6632
-0.124075 -0.336247 21.5308
0.404062 0.215865 21.2685
1.01278 0.892645 20.7725
1.19951 0.811188 20.7566
-2.05091 -0.200942 18.8702
-1.8992 -0.8648 21.9121
-0.334762 -0.728457 20.0588
0.538068 0.158577 18.9337
1.59158 0.256167 18.1414
1.99693 0.285351 20.1622
-1.23422 0.892845 19.4641
-1.8915 0.921026 20.7323
-1.41056 0.266076 21.99
-0.012236 -0.310751 22.0334
0.656152 -0.773932 21.4643
0.81081 -0.873415 20.9733
0.00584786 -2.75945 17.3987
0.00786724 -0.769465 14.2851
-0.0077953 -0.117328 10.8428
-0.0605917 0.22077 9.34733
-0.841924 -0.05711 7.98542
-0.132437 1.3554 8.63632
-0.0112053 -0.736425 14.7162
0.315527 -1.30055 -3.37387
0.97013 -2.60249 -3.64658
0.017729 2.20196 18.2706
0.0225175 3.2248 19.8789
-0.0129417 2.70148 20.6709
-0.0429921 -0.397745 14.3963
-0.114205 -0.772691 12.4179
-0.0531436 -1.23832 15.2503
1.51058 -0.928401 19.3892
1.12263 -0.926944 21.6346
0.11875 -0.328533 21.5158
-0.39994 0.171392 21.2169
-0.835358 0.712748 20.6976
-1.16517 0.813394 20.8677
2.05179 -0.204335 18.864
1.87297 -0.862437 21.888
0.286804 -0.719972 20.1094
-0.502338 0.143895 18.9607
-1.26785 0.334504 17.8817
-2.00982 0.522515 20.0405
1.22849 0.874662 19.4777
1.87 0.906944 20.7273
1.40441 0.259591 21.9618
0.0189385 -0.273178 22.0252
-0.64172 -0.696323 21.4896
-0.744379 -0.841306 20.9162
-2.38264e-16 -5.62214e-17 3.4692e-16
-0.0233462 -0.858213 1.46172
-0.004536 -0.0065949 0.305912
0.00887241 0.0624562 0.0976081
-0.12555 0.0880036 0.382116
-0.0264227 0.0331543 0.447281
-0.469198 0.108148 0.348619
-0.288442 1.96844 2.04107
-0.312489 0.0121272 1.28422
-0.0304399 0.0343312 0.0159965
-0.0188843 0.0533871 -0.0193187
0 0 0
0.0208847 -0.77959 1.33801
0.373263 -0.0823717 0.524035
-0.00341188 -0.00230749 0.233994
0.0435262 0.0537006 0.283004
0.0287437 0.0664843 0.0630571
0.026819 0.0312307 0.440994
0.122098 1.7791 2.00998
1.01781 0.126192 0.709291
0.366997 0.00922091 1.48754
-0.0157047 0.139933 -0.0462344
0.0422331 0.0857344 -0.00147974
0 0 0
0.0501736 0.00379309 0.553322
0.00444575 -0.00386887 0.159869
0 0 0
0.000242003 3.93898e-05 0.00497018
-0.00842555 0.0122349 0.270405
0 0 0
-0.0244343 0.0278522 0.148991
0.00387216 0.00377433 0.113098
-0.68439 -0.53197 1.28421
0 0 0
0 0 0
-0.0936795 0.0569479 0.13622
0.00758573 0.012273 0.0660932
0.00432868 0.034136 0.132164
0 0 0
0.0575622 0.0291429 0.420966
-0.0528495 -0.0187692 0.442291
0 0 0
-0.00230178 -0.00197654 0.108077
0 0 0
0.000633004 0.00644797 0.161548
0 0 0
0 0 0
0.0353678 0.0344585 0.253969
0.687886 -0.493563 1.24604
0.08869 0.0564939 0.131855
-3.48857e-18 9.57129e-18 -1.22476e-16
-3.75999e-18 9.68182e-18 4.85498e-17
-0.00631424 0.0104013 0.0543523
-0.0687043 0.0357009 0.433463
-0.00338226 0.040827 0.16496
0 0 0
0 0 0
-0.514554 -0.35616 0.381596
0 0 0
0 0 0
-0.000215076 -0.00624836 0.0699573
0 0 0
0 0 0
0 0 0
-0.000315613 0.000171581 0.00409186
-0.0165018 -0.00926302 -0.00657625
2.26956e-05 0.000229026 0.00233353
0 0 0
0.0409628 0.361352 0.208247
-7.96151e-05 0.00102092 0.00568334
-0.000947164 -0.00766122 0.0412654
-0.00107339 0.000264123 0.00270797
0 0 0
0 0 0
0 0 0
0.00398366 -0.00322119 0.0346815
0.489801 -0.307776 0.366755
0.0275122 -0.0286027 0.296475
0 0 0
-0.000201094 -0.00872499 0.0940582
0 0 0
0 0 0
0 0 0
0 0 0
0.000338111 8.59687e-05 0.000879475
0.000844558 -0.00720616 0.0399063
-0.00440324 -0.00315418 0.0340944
0 0 0
0 0 0
0 0 0
-0.000161378 -0.00396209 0.0274239
0 0 0
4.09671e-05 0.000105029 0.0119506
0 0 0
0 0 0
-0.000269241 0.00422534 0.0347643
-0.000132911 0.00135323 0.0678706
0 0 0
0 0 0
0.00697967 0.0205276 0.324779
0 0 0
-0.000287314 0.119995 0.356928
1.0967e-08 -7.26535e-07 -5.15679e-05
4.79708e-07 1.29346e-06 -6.22615e-05
0 0 0
0 0 0
0.00113392 -0.00787523 0.0637144
0 0 0
-2.3697e-19 9.46174e-18 6.26607e-17
0.00120842 0.00408643 0.0300975
-0.0148935 0.0346065 0.500216
0 0 0
-4.56405e-05 -0.00171398 0.0111268
-0.158852 -0.0154951 0.539021
0 0 0
-0.000222361 -0.00139372 0.00619308
0 0 0
0 0 0
0 0 0
0.000372836 0.0046002 0.0194031
-0.00010357 0.000533612 0.0101262
1.02748e-05 5.13816e-05 0.000299318
0.00162206 0.0029655 0.0276881
0 0 0
0 0 0
0 0 0
0 0 0
0 0 0
0 0 0
0 0 0
0 0 0
0 0 0
0.00160702 0.00190754 0.101455
-0.000408024 0.00010888 0.0128507
-0.004371 0.00247345 0.0662236
-0.000645005 0.00144702 0.061809
-0.297029 -0.794006 0.713632
0.312053 -0.855801 0.773062
-0.0774697 0.0967268 0.0402167
0 0 0
-0.0582735 -0.00336731 -0.00469438
0.043287 -0.013455 -0.0143036
0 0 0
0 0 0
-0.00897736 0.00745902 0.0483092
0.00847635 0.00703447 0.0459101
0 0 0
0 0 0
-0.408449 0.450147 1.40205
0.407716 0.436662 1.38198
0.0865335 0.0509751 0.69857
-0.119434 0.084712 0.777725
0.00194309 -0.000333936 0.0186445
-0.00194172 -0.000293121 0.0168503
-0.000103191 -2.93983e-05 4.44166e-05