# vtk DataFile Version 2.0
tri_press
ASCII
DATASET UNSTRUCTURED_GRID
POINTS 3682 float
-0.595 0.275 -1.86282
-0.844768 0.315 1.705
-0.745 0.745 -1.55978
-0.725 0.888582 1.745
0.595 0.275 -1.86282
0.844769 0.315 1.705
0.745 0.745 -1.55978
0.725 0.888582 1.745
-0.71856 0.248029 -0.673547
-0.814635 0.248544 0.515727
-0.789296 0.843823 -0.458187
-0.799941 0.908996 0.643407
0.718557 0.248033 -0.673547
0.814695 0.248484 0.515727
0.789297 0.843824 -0.458187
0.799944 0.908998 0.643407
-1.33151 -0.0458768 -2.88084
-1.34505 -0.0206261 -1.96453
-1.44995 -0.0398558 -0.772992
-1.55458 -0.048368 0.436194
-1.59598 -0.00778623 1.62922
-1.60397 0.0217861 2.5528
-1.60708 0.0442722 3.46291
-1.33508 0.226692 -2.76084
-1.34822 0.26575 -1.85411
-1.46832 0.260753 -0.679632
-1.57264 0.258767 0.50274
-1.59815 0.295016 1.6789
-1.60885 0.323432 2.60124
-1.61399 0.345825 3.51421
-1.40075 0.744182 -2.49623
-1.45378 0.781304 -1.58588
-1.52831 0.852949 -0.471174
-1.56649 0.896881 0.637321
-1.53252 0.894298 1.75371
-1.57717 0.920236 2.67968
-1.60883 0.947046 3.60678
-1.4728 1.59377 -2.16525
-1.50523 1.64325 -1.26803
-1.54286 1.73086 -0.181748
-1.56689 1.80198 0.885633
-1.57614 1.82995 1.97283
-1.58986 1.84409 2.87196
-1.61017 1.8626 3.78949
-0.61989 -0.0410922 -2.88649
-0.618204 -0.0135082 -1.97278
-0.69814 -0.0459912 -0.771885
-0.777388 -0.055407 0.447279
-0.811446 0.00146319 1.6486
-0.822746 0.0280844 2.56595
-0.82844 0.0470067 3.47052
-0.615916 0.227138 -2.76258
-0.838073 0.330144 2.61209
-0.83919 0.348361 3.51995
-0.668644 0.729368 -2.48539
-0.81143 0.919835 2.67794
-0.839979 0.947246 3.60641
-0.728367 1.58263 -2.15452
-0.752636 1.63222 -1.25622
-0.778352 1.72772 -0.174628
-0.797464 1.80566 0.884779
-0.808475 1.83189 1.96673
-0.822401 1.84427 2.86587
-0.841972 1.86247 3.78506
0.720371 -0.0410932 -2.88649
0.678488 -0.0135085 -1.97278
0.749437 -0.0459961 -0.771885
0.817737 -0.0554468 0.447279
0.832975 0.00144781 1.6486
0.783498 0.0280726 2.56595
0.748913 0.0469943 3.47052
0.715988 0.227138 -2.76258
0.762054 0.330136 2.61209
0.732814 0.34835 3.51995
0.755107 0.729368 -2.48539
0.718555 0.919829 2.67794
0.708701 0.947236 3.60641
0.753643 1.58263 -2.15452
0.750895 1.63222 -1.25622
0.755033 1.72772 -0.174628
0.748452 1.80566 0.884778
0.727383 1.83188 1.96673
0.711551 1.84426 2.86587
0.695995 1.86246 3.78506
1.41362 -0.04588 -2.88083
1.38119 -0.0206286 -1.96453
1.47709 -0.0398692 -0.772992
1.58416 -0.0484226 0.436194
1.61367 -0.0078246 1.62922
1.57572 0.0217583 2.5528
1.53706 0.0442458 3.46291
1.40389 0.22669 -2.76084
1.346 0.26575 -1.85411
1.46157 0.260748 -0.679632
1.57837 0.258711 0.50274
1.60237 0.294984 1.6789
1.55775 0.323409 2.60124
1.52149 0.345801 3.51421
1.4531 0.744181 -2.49623
1.44192 0.781304 -1.58588
1.51237 0.852948 -0.471174
1.5621 0.896863 0.637321
1.52501 0.894277 1.75371
1.50602 0.920218 2.67968
1.4906 0.947025 3.60678
1.49043 1.59377 -2.16524
1.49569 1.64325 -1.26803
1.51325 1.73085 -0.181749
1.51767 1.80197 0.885633
1.49915 1.82994 1.97283
1.48265 1.84408 2.87196
1.46758 1.86258 3.78949
-0.709208 0.51 -1.75051
0 0.275414 -1.86241
-0.658377 0.259918 -1.26818
-0.822415 0.601791 1.76253
5.06639e-07 0.287029 1.73297
-0.835358 0.276116 1.11036
0 0.79152 -1.6063
-0.803426 0.83069 -1.00898
0 0.821638 1.67806
-0.797863 0.934181 1.1942
0.70927 0.51 -1.75057
0.65838 0.259915 -1.26818
0.822275 0.601791 1.76239
0.835359 0.276115 1.11036
0.803456 0.83072 -1.00898
0.797855 0.934173 1.1942
-0.775668 0.239216 -0.07891
-0.815479 0.545926 -0.565867
-1.70402e-06 0.247385 -0.673547
-0.865208 0.57877 0.579567
3.02146e-05 0.239115 0.515727
-0.785447 0.867238 0.09261
6.34837e-07 1.10767 -0.458187
1.16694e-06 0.944617 0.643407
0.775671 0.239214 -0.07891
0.81547 0.545929 -0.565867
0.865209 0.578741 0.579567
0.785439 0.86723 0.09261
-0.843495 0.527963 -1.13858
0.843496 0.527964 -1.13858
-8.5201e-07 0.258074 -1.26818
3.17418e-07 0.890719 -1.00898
0 0.51 -2.03634
-0.835168 0.562348 0.00685
0.835169 0.562335 0.00685
1.42553e-05 0.239563 -0.07891
9.00889e-07 1.21149 0.09261
-0.894211 0.590281 1.15228
0.894211 0.590266 1.15228
1.53606e-05 0.239163 1.11036
5.8347e-07 0.882877 1.1942
2.5332e-07 0.601791 2.06439
-0.610752 0.3925 -1.76531
-0.2975 0.275772 -1.86205
-0.630284 0.263864 -1.5655
-0.838244 0.458395 1.73842
-0.422384 0.284926 1.73507
-0.839162 0.296458 1.40768
-0.738714 0.6275 -1.66675
-0.3725 0.767174 -1.58195
-0.79768 0.811311 -1.28438
-0.777223 0.745186 1.75728
-0.3625 0.818808 1.67523
-0.77955 0.929501 1.4696
0.2975 0.275745 -1.86208
0.610485 0.3925 -1.76504
0.63019 0.263958 -1.5655
0.422385 0.284926 1.73507
0.838164 0.458395 1.73834
0.839142 0.296479 1.40768
0.3725 0.767375 -1.58216
0.738716 0.6275 -1.66676
0.797711 0.811343 -1.28438
0.3625 0.818094 1.67451
0.777226 0.745186 1.75728
0.77958 0.929531 1.4696
-0.68693 0.255512 -0.970865
-0.748783 0.241954 -0.376228
-0.773072 0.393951 -0.619707
-0.359624 0.247021 -0.673547
-0.84609 0.241236 0.813045
-0.800925 0.238106 0.218408
-0.854887 0.406174 0.547647
-0.409445 0.239545 0.515727
-0.794322 0.835218 -0.733585
-0.815186 0.701274 -0.512027
-0.785027 0.853186 -0.182788
-0.438239 1.06293 -0.458187
-0.798557 0.921243 0.918805
-0.867156 0.761174 0.611487
-0.793319 0.888742 0.368008
-0.426173 0.979211 0.643407
0.68693 0.255512 -0.970865
0.359621 0.247021 -0.673547
0.74878 0.241957 -0.376228
0.773064 0.393956 -0.619707
0.844692 0.242635 0.813045
0.40949 0.239545 0.515727
0.801186 0.237846 0.218408
0.854891 0.406143 0.547647
0.794313 0.835209 -0.733585
0.438134 1.06272 -0.458187
0.815186 0.701278 -0.512027
0.785 0.853159 -0.182788
0.798528 0.921214 0.918805
0.426197 0.979257 0.643407
0.867152 0.761158 0.611487
0.793276 0.888699 0.368008
-0.831486 0.518982 -1.44455
-0.354604 0.51 -1.98963
-4.26005e-07 0.263155 -1.56529
0 0.392707 -1.74434
-0.83668 0.393941 -1.20338
-0.329189 0.258074 -1.26818
-0.89424 0.596036 1.45741
-0.411207 0.601791 2.06538
7.93363e-06 0.250279 1.42167
3.7998e-07 0.44441 2.05447
-0.894576 0.433198 1.13132
-0.417671 0.239163 1.11036
1.58709e-07 0.852568 -1.30764
0 0.65076 -1.98258
-0.849762 0.679327 -1.07378
-0.401713 0.868983 -1.00898
2.91735e-07 0.85672 1.43613
1.2666e-07 0.711715 2.07187
-0.895484 0.762231 1.17324
-0.398931 0.870578 1.1942
0.831477 0.518982 -1.44458
0.354635 0.51 -1.99078
0.836719 0.39394 -1.20338
0.329189 0.258074 -1.26818
0.89424 0.596029 1.45734
0.411138 0.601791 2.06539
0.894576 0.433191 1.13132
0.417687 0.239163 1.11036
0.849738 0.679342 -1.07378
0.401728 0.868958 -1.00898
0.895483 0.76222 1.17324
0.398928 0.870575 1.1942
-0.80093 0.403026 -0.03603
-0.387335 0.240374 -0.07891
-0.846621 0.536945 -0.852225
-0.838416 0.554137 -0.279508
-1.27802e-06 0.2558 -0.970865
6.27564e-06 0.239784 -0.376228
-0.806128 0.570559 0.293208
-0.877476 0.584525 0.865925
2.22349e-05 0.23937 0.218408
2.27876e-05 0.227765 0.813045
-0.83071 0.724994 0.04973
-0.463668 1.18126 0.09261
4.76128e-07 0.978067 -0.733585
7.67863e-07 1.20842 -0.182788
1.03391e-06 1.17886 0.368008
8.75206e-07 0.912801 0.918805
0.800934 0.403018 -0.03603
0.38735 0.240374 -0.07891
0.846621 0.536947 -0.852225
0.838419 0.554132 -0.279508
0.806127 0.570538 0.293208
0.877476 0.584504 0.865925
0.830737 0.724999 0.04973
0.463668 1.18126 0.09261
-0.825438 0.39322 -1.50502
-0.838529 0.395459 -0.911545
-0.846218 0.687101 -0.792905
-0.840988 0.653413 -1.36446
0.825428 0.39322 -1.50504
0.840986 0.653421 -1.36448
0.846218 0.687109 -0.792905
0.838529 0.39546 -0.911545
-0.313344 0.263145 -1.5654
0.313345 0.263147 -1.5654
0.344233 0.2558 -0.970865
-0.344235 0.2558 -0.970865
-0.387107 0.825843 -1.29601
-0.39818 0.93851 -0.733585
0.398189 0.937584 -0.733585
0.387114 0.825695 -1.29601
-0.326052 0.392603 -1.93924
-0.363552 0.63913 -1.9256
0.363567 0.63913 -1.92556
0.326067 0.392603 -1.93748
-0.796435 0.393772 -0.327868
-0.839119 0.398995 0.255808
-0.798808 0.718022 0.330608
-0.836509 0.719914 -0.231148
0.796454 0.393759 -0.327868
0.836507 0.719911 -0.231148
0.798812 0.718012 0.330608
0.839103 0.398985 0.255808
-0.375103 0.240451 -0.376228
0.375109 0.240451 -0.376228
0.398472 0.239856 0.218408
-0.398442 0.239855 0.218408
-0.471513 1.16321 -0.182788
-0.474353 1.1391 0.368008
0.474354 1.1391 0.368008
0.471543 1.16327 -0.182788
-0.876978 0.423428 0.839485
-0.894384 0.445797 1.43254
-0.895183 0.753709 1.4635
-0.882309 0.753057 0.892365
0.876953 0.423402 0.839485
0.882309 0.753045 0.892365
0.895084 0.753703 1.46347
0.894385 0.445793 1.43251
-0.412487 0.227765 0.813045
0.412525 0.227765 0.813045
0.420036 0.250078 1.41467
-0.420027 0.250078 1.41467
-0.399451 0.947377 0.918805
-0.380716 0.843361 1.45287
0.380714 0.843324 1.45287
0.39945 0.947338 0.918805
-0.416796 0.451403 2.02452
0.416761 0.451403 2.0246
0.386819 0.728451 2.01012
-0.386854 0.728451 2.00961
-0.627578 0.33375 -1.83877
-0.44625 0.276354 -1.86147
-0.613501 0.268572 -1.71416
-0.844282 0.386698 1.72449
-0.633576 0.274497 1.7455
-0.840528 0.307167 1.55634
-0.742611 0.68625 -1.61402
-0.55875 0.78303 -1.59781
-0.783263 0.790079 -1.42208
-0.744246 0.816884 1.74427
-0.54375 0.926937 1.78335
-0.7559 0.912666 1.6073
0.44625 0.276306 -1.86151
0.627617 0.33375 -1.83881
0.61449 0.267584 -1.71416
0.633577 0.274497 1.7455
0.844302 0.386698 1.7245
0.840579 0.307116 1.55634
0.55875 0.783087 -1.59787
0.7427 0.68625 -1.61411
0.783235 0.79005 -1.42208
0.54375 0.927021 1.78344
0.744336 0.816884 1.74437
0.755983 0.912749 1.6073
-0.703227 0.251289 -0.822206
-0.729071 0.249592 -0.524888
-0.818324 0.284736 -0.646627
-0.539032 0.247645 -0.673547
-0.821123 0.254129 0.664386
-0.811689 0.239416 0.367068
-0.857814 0.315832 0.531687
-0.614151 0.239823 0.515727
-0.791032 0.838744 -0.595886
-0.832048 0.787452 -0.485107
-0.787426 0.848769 -0.320488
-0.613493 0.952827 -0.458187
-0.799406 0.915276 0.781106
-0.851843 0.844232 0.627447
-0.797961 0.9002 0.505708
-0.592053 0.902096 0.643407
0.703219 0.251297 -0.822206
0.538974 0.247758 -0.673547
0.729064 0.249599 -0.524888
0.818309 0.284745 -0.646627
0.82125 0.254003 0.664386
0.61419 0.23982 0.515727
0.811985 0.239121 0.367068
0.857806 0.315807 0.531687
[...]
POINT_DATA 3682
SCALARS point_scalars float 1
LOOKUP_TABLE default
-74.2156
-48.5739
-20.5651
-40.2129
-74.151
-48.6532
-20.6199
-40.1743
-33.6703
-30.1033
-43.1634
-43.2641
-33.676
-30.1061
-43.2216
-43.3081
-8.81023
-98.8891
-38.7102
-28.3969
-43.3571
-37.1647
-32.0387
24.3872
-99.8582
-32.2612
-29.1949
-47.0458
-34.2335
-30.5449
63.3421
-85.3411
-37.4976
-37.5415
-49.7279
-32.4139
-30.1233
-34.8316
-52.2482
-45.4825
-38.4199
-46.2038
-39.633
-30.1233
73.3598
-108.389
-34.623
-30.6465
-42.4504
-32.0439
-30.5938
73.3598
-30.5938
-28.9989
123.778
-30.1233
-29.3274
5.09574
-46.5233
-83.2073
-52.8489
-37.5232
-36.2332
-29.2176
77.1276
-122.548
-35.7932
-31.3875
-42.7713
-30.5552
-29.6698
77.1276
-30.5552
-28.9703
127.858
-29.3648
-29.2563
2.94298
-42.9722
-83.2661
-53.0613
-37.4906
-30.9994
-28.9313
-8.90003
-98.9684
-38.525
-28.4168
-43.3859
-37.1287
-31.9918
15.9747
-99.9132
-32.302
-29.2096
-47.0585
-34.3004
-30.2443
40.9526
-85.3487
-37.5448
-37.5537
-49.7011
-32.3763
-30.0996
-37.6185
-52.1182
-47.0984
-38.6507
-46.1721
-39.1625
-30.0996
25.2568
-88.0862
-47.2387
-40.7247
-37.6024
-37.5627
-22.6552
-44.6732
-32.2935
-41.6709
25.2318
-47.2059
-40.6858
-37.6343
-44.7085
-41.6805
-29.2416
-31.4029
-32.0063
-27.9285
-31.0722
-45.4781
-18.0901
-45.1026
-29.2539
-31.4106
-27.1845
-45.4715
-53.2387
-53.231
-44.5361
-4.35099
199.411
-33.516
-33.5219
-31.0166
-85.2128
-41.6818
-41.6852
-38.1772
-38.7978
-19.8203
73.5068
-90.7365
-71.3479
-45.0319
-39.9848
-39.5866
-2.72252
-26.8609
-59.761
-38.5246
-32.841
-46.4485
-90.1375
73.2405
-71.2841
-39.954
-44.9778
-39.5937
-27.0202
-2.77893
-59.7067
-32.8429
-38.4878
-46.4129
-35.6856
-30.7734
-34.103
-31.833
-35.327
-29.0069
-28.9758
-30.7757
-39.2121
-33.379
-48.634
-30.5998
-39.9655
-31.5267
-42.4083
-48.4787
-35.671
-31.8217
-30.7582
-34.1167
-35.1031
-30.754
-29.2299
-28.9651
-39.177
-29.9639
-33.4008
-48.5906
-39.9607
-48.4774
-31.5361
-42.3658
-90.7672
160.663
-56.7352
196.554
-53.4269
-45.0048
-47.4544
-28.447
-38.6883
-21.7004
-38.7197
-37.887
-22.9999
37.1687
-52.1259
-18.3072
-35.3153
-29.0078
-41.7584
-38.8273
-90.7225
159.45
-53.4078
-44.9739
-47.4336
-28.4033
-38.7123
-37.9193
-52.118
-18.1492
-41.7757
-38.825
-32.4164
-30.6574
-43.7165
-33.2306
-36.0075
-32.4783
-27.244
-35.2503
-30.7338
-36.2853
-35.8259
-72.3345
12.6366
-105.023
-61.8261
-43.0853
-32.4116
-30.6566
-43.7018
-33.2293
-27.2387
-35.2015
-35.7966
-72.3532
-101.105
-42.4274
-43.7439
-80.1844
-101.106
-80.1633
-43.7565
-42.416
-58.4098
-58.3148
-35.9942
-36.011
-31.042
-1.34858
-1.3755
-30.8072
173.07
37.6715
37.6885
174.262
-31.3315
-27.0722
-27.0091
-37.4569
-31.3232
-37.4695
-27.0477
-27.0681
-32.0121
-32.0125
-30.3988
-30.4057
-83.6091
-58.8612
-58.878
-83.663
-33.2936
-44.4535
-51.0181
-36.5215
-33.2195
-36.394
-51.0287
-44.4402
-36.175
-36.2135
-38.916
-38.9184
-43.0106
-35.368
-35.363
-43.0092
-28.7539
-28.7326
-29.8293
-29.8464
39.9366
-103.799
-96.6184
-48.4784
-43.1756
-43.4587
-3.73014
-22.9133
-60.9805
-39.2865
-34.6033
-45.1672
-103.76
39.7865
-96.9709
-43.1587
-48.3808
-43.4159
-23.0627
-3.68009
-60.7823
-34.5747
-39.2478
-45.1385
-34.2515
-30.7362
-32.0984
-32.2814
-29.7818
-29.5892
-30.4418
-30.7831
-40.8085
-37.3166
-47.1032
-57.374
-42.2762
-37.1323
-42.3789
-49.4896
-34.2356
-32.256
-30.7396
-32.249
-29.88
-30.7556
-29.6088
-30.4579
-40.8067
-57.3816
-37.3541
-47.1127
-42.2826
-49.493
-37.1531
-42.4122
49.4533
1.22002
-91.658
106.615
-87.9743
-87.5742
-68.6905
118.158
-57.5859
-40.7458
-52.7042
-45.757
-42.6732
-39.3886
-48.7839
-30.0428
-38.2391
-38.2199
-38.7996
-28.2716
-37.7618
-40.9289
-38.086
-36.9935
-22.9495
-22.7665
-26.5059
-1.14618
-51.3311
-40.6124
-51.6399
-31.5626
-32.3197
-32.3207
-33.5104
-29.1898
-45.2872
-40.0512
-42.5758
-39.9931
49.3995
1.20521
-91.5703
106.608
-57.5492
-40.7343
-52.694
-45.7359
-42.6264
-39.3559
-48.7487
-30.0157
-37.7828
-41.0557
-38.0894
-37.013
-51.1332
-40.5927
-51.6217
-31.5967
-45.2621
-40.0375
-42.5866
-39.9877
-30.1913
-28.8449
-31.2363
-30.2778
-32.0473
-31.1157
-39.8311
-31.798
-31.8919
-31.8762
-33.1399
-33.0187
-29.7185
-26.7436
-22.5938
-33.5046
-31.0245
-31.0155
-31.0038
-34.0998
-47.0314
-43.2579
-37.1839
-55.7606
-16.8219
-16.3104
3.2628
-59.8469
-46.0676
-46.0665
-53.0773
-44.8059
-30.1944
-28.8629
-31.3732
-30.2836
-32.0607
-31.1249
-39.8393
-31.7978
-29.6341
-26.5465
-22.4759
-33.5519
-47.0199
-43.2614
-37.1819
-55.7773
-65.0066
-53.5897
-53.2095
-47.3547
-65.0198
-53.5808
-53.2003
-47.3432
-50.5252
-44.6412
-44.6062
-39.8307
-15.7738
-9.00003
-9.19776
9.50037
194
196.948
150.291
194.513
-32.2938
-34.1452
-31.0088
-34.7586
-32.2947
-34.1466
-31.0259
-34.7624
-30.926
-31.5021
-30.7381
-30.9257
-83.9046
-98.4561
-72.4863
-83.9852
-43.6272
-40.2483
-42.0683
-36.9332
-43.6215
-40.2492
-42.078
-36.9269
-38.3722
-38.1209
-38.1326
-39.3832
-36.939
-38.698
-38.6991
-40.9767
-23.4492
-19.6817
-21.7703
-23.3488
-92.1658
102.498
-72.0156
93.9762
-98.6622
-61.8381
-46.4936
-30.8527
-39.8761
-31.1274
-42.2266
-38.638
-88.9924
49.0763
-34.9427
3.02019
-74.4586
-41.1584
-48.8018
-30.8764
-34.1007
-29.7489
-50.7788
-37.3694
-71.8167
96.1603
-92.2075
102.364
-98.688
-61.7938
-39.7993
-31.0814
-46.5085
-30.8163
-42.2183
-38.8581
-34.9361
3.4376
-88.7831
48.8634
-74.4343
-41.1898
-34.0903
-29.7459
-48.7794
-30.8464
-50.7681
-37.3547
-41.2905
-36.1328
-30.6452
-31.5294
-43.171
-30.8687
-33.0724
-32.6935
-35.7981
-37.1505
-28.4549
-30.0678
-25.7388
-30.6962
-30.6861
-34.047
-42.87
-27.9395
-37.6383
-35.3029
-40.0962
-60.0467
-9.17127
-61.7443
-37.1513
-43.2837
-23.6229
-36.5568
-32.4938
-52.1985
-55.095
-45.3913
-41.2847
-36.125
-33.0583
-32.6922
-30.6854
-31.5219
-43.1884
-30.8705
-35.4432
-37.3081
-30.6744
-34.0147
-28.4739
-30.0602
-25.7646
-30.6877
-42.8448
-27.7931
-8.97422
-61.83
-37.5796
-35.3009
-40.1127
-59.7855
-37.1291
-43.3016
-55.1054
-45.4225
-23.6381
-36.5789
-32.5102
-52.1972
-96.9741
-83.8681
161.623
117.535
-56.8669
-56.7417
196.046
195.77
-67.7544
-47.0591
-51.6592
-40.1717
-46.2479
-48.5621
-28.6747
-28.935
-38.8237
-38.8319
-24.4463
-24.3518
-37.5849
-41.3991
-38.8692
-38.2317
-24.5808
-24.7387
28.4104
29.1863
-46.5375
-61.9563
-25.3605
-9.44438
-35.0964
-35.0961
-29.1488
-29.1645
-45.2885
-37.4839
-40.8405
-37.1175
-96.928
-83.8578
117.605
163.526
-67.7271
-47.0485
-51.6157
-40.1492
-48.5455
-46.2319
-28.6368
-28.904
-37.5887
-41.3954
-38.935
-38.2465
-61.9558
-46.5118
-9.62251
-25.4164
-37.5034
-45.2335
-37.1142
-40.8374
-31.8846
-30.4048
-31.2117
-30.4247
-42.9498
-44.0168
-31.872
-34.9991
-35.9787
-36.0002
-32.3821
-32.3849
-26.5497
-27.5948
-33.7231
-36.1247
-30.6462
-30.65
-36.2407
-36.2532
-31.2611
-37.7064
-82.4494
-64.7071
9.81652
9.79538
-99.915
-99.6378
-62.0377
-62.05
-43.0293
-43.029
-31.9069
-30.4165
-31.2127
-30.421
-43.9863
-42.9333
-31.8652
-34.9996
-27.6366
-26.7574
-33.7001
-35.8892
-37.7091
-31.3064
-64.7161
-82.5308
-65.5401
-68.8136
-66.808
-95.8093
-41.7487
-42.5869
-47.5132
-45.8445
-39.5193
-46.3757
-47.1756
-38.1878
-79.4576
-85.4495
-63.0982
-60.4008
-65.7059
-95.7811
-66.7777
-68.7855
-79.3538
-60.4656
-63.1038
-85.2429
-39.6399
-38.1901
-47.1791
-46.3455
-41.3547
-45.8384
-47.5024
-42.5983
-79.7163
-68.9701
-50.8018
-53.5216
-79.6538
-53.4969
-50.7528
-68.7841
-33.395
-33.0866
-39.9274
-40.2305
-33.3876
-40.2457
-39.9541
-33.1073
-47.8322
-36.4744
-18.0383
-28.6037
-44.2351
2.33616
5.63636
-27.7179
-44.1442
-27.749
5.58408
2.06791
-47.8597
-28.746
-18.0287
-36.3975
72.8753
96.5043
195.604
159.518
35.1008
-0.333792
142.85
92.8316
35.0784
92.8523
143.36
0.190521
71.704
162.665
195.07
96.4746
-30.4854
-29.788
-32.7302
-30.8481
-27.7935
-22.9037
-30.0868
-30.282
-33.1297
-33.5162
-31.7518
-24.3065
-38.07
-33.3017
-36.2657
-38.8816
-30.4936
-30.8482
-32.7416
-29.528
-38.1045
-38.895
-36.2633
-33.3021
-33.1349
-24.2823
-31.7726
-33.572
-27.8379
-30.227
-30.1007
-22.8234
-31.8515
-32.9981
-31.4702
-30.8757
-31.8535
-30.8819
-31.471
-33.0003
-30.3461
-30.9105
-30.6438
-30.0548
-30.3571
-30.0633
-30.6458
-30.9165
-62.8835
-57.778
-96.7481
-51.5739
-51.624
-53.8586
-71.6193
-53.2166
-51.6585
-53.2221
-71.655
-53.8454
-63.0773
-51.4738
-96.8477
-57.7744
-30.199
-36.9928
-37.2975
-31.8602
-44.2789
-47.4886
-42.7205
-40.4415
-47.4439
-47.3509
-44.4656
-49.2105
-37.6864
-35.2359
-37.1528
-38.2345
-30.276
-31.8602
-37.2762
-37.0445
-37.689
-38.2111
-37.1894
-35.3322
-47.4025
-49.1903
-44.4611
-47.2923
-44.2736
-40.4452
-42.714
-47.4963
-33.0738
-34.0546
-39.249
-39.0537
-33.006
-39.0353
-39.2709
-34.0549
-39.8926
-39.1336
-38.3831
-37.8695
-40.2367
-37.8399
-38.3801
-39.1498
-45.9302
-41.7377
-40.9236
-45.1165
-36.9447
-33.5562
-36.644
-38.756
-36.9314
-38.7519
-36.6436
-33.5547
-45.9292
-45.1161
-40.9241
-41.7114
-32.8283
-29.125
-23.8855
-30.315
-32.735
-30.2821
-23.8002
-29.1005
-31.5735
-29.6176
-25.422
-30.1042
-31.6094
-30.1192
-25.5033
-29.6178
-26.5568
-110.647
-128.889
-49.3571
-46.2656
-44.2483
-11.6075
-14.8367
-56.354
-40.4756
-37.9938
-41.8684
-110.683
-26.9435
-128.231
-46.2461
-49.4065
-44.3392
-14.9535
-11.6244
-56.3159
-37.9709
-40.4391
-41.8458
-34.5221
-32.5017
-33.0929
-32.8694
-29.8041
-30.3833
-30.4198
-30.6542
-42.101
-42.0663
-45.356
-51.5901
-42.6644
-39.4921
-42.5354
-48.5153
-34.5296
-32.8467
-32.5024
-33.3363
-29.82
-30.6383
-30.4224
-30.4298
-42.091
-51.5925
-42.1183
-45.3155
-42.6741
-48.5134
-39.5229
-42.5488
42.0962
6.53221
-28.1976
77.3227
-88.2045
-88.0327
-77.847
118.158
-51.6769
-43.6084
-52.1239
-46.3051
-41.8115
-40.0657
-47.0087
-32.5343
-37.7158
-37.7058
-39.594
-32.1857
-38.3442
-37.2649
-37.7645
-36.3465
-22.2699
-22.0844
-24.9802
-13.2681
-47.4354
-42.8703
-49.1186
-38.9344
-32.2488
-32.2542
-32.9493
-29.9069
-43.3317
-40.6443
-42.538
-40.3791
42.2076
6.77227
-28.3715
77.2198
-51.6432
-43.5815
-52.1098
-46.2793
-41.7683
-40.0266
-47.0198
-32.4936
-38.5213
-37.2068
-37.7636
-36.3613
-47.3347
-42.8031
-49.1486
-38.9861
-43.3142
-40.6503
-42.5394
-40.3727
-29.5604
-28.6941
-29.7719
-29.9585
-31.7105
-31.1039
-34.5585
-30.7353
-31.8557
-31.8451
-32.5544
-32.4852
-29.5957
-25.3478
-21.6104
-32.8592
-31.143
-31.1381
-31.2106
-32.2556
-46.6788
-44.4967
-40.2585
-51.5035
-17.6928
-17.1068
-4.87991
-35.8059
-45.3534
-45.3531
-48.9203
-45.2635
-29.5675
-28.6753
-29.8455
-29.9878
-31.7202
-31.111
-34.5655
-30.737
-29.4271
-24.378
-22.106
-32.9532
-46.6661
-44.5107
-40.2532
-51.507
-57.6563
-53.4103
-53.2472
-49.9657
-57.6567
-53.4021
-53.2397
-49.9576
-47.3136
-44.5741
-44.5531
-42.0464
-10.4086
-5.99752
-6.19774
2.56202
198.441
197.184
202
198.579
-32.9998
-34.5096
-32.5235
-34.1133
-33.0032
-34.512
-32.5327
-34.1201
-30.9851
-31.1519
-30.8702
-30.9848
-85.1081
-91.9871
-78.6177
-85.2178
-42.4484
-41.2052
-41.8752
-38.7552
-42.4474
-41.1145
-41.883
-38.7602
-38.4189
-38.1637
-38.1695
-38.5007
-37.7617
-38.7916
-38.7924
-39.9081
-20.9617
-19.8131
-20.1215
-20.8894
60.1027
58.8615
-25.4838
93.6494
-94.3994
-88.3705
-81.7955
45.3899
-82.1999
-64.1179
-96.691
-64.8871
-46.7324
-43.7837
-49.7543
-34.7522
-41.3945
-39.0903
-41.5393
-34.1829
-41.8219
-38.53
-41.0032
-38.668
-2.22668
1.66766
-39.8133
37.2872
-32.315
-24.0883
-32.2502
-16.6226
-61.4041
-53.5013
-68.1485
-48.7105
-38.5799
-38.9665
-44.0346
-32.7502
-32.7433
-32.5158
-33.4749
-29.9423
-46.4735
-46.5818
-49.6685
-41.6344
-94.2575
-87.5228
-81.4596
48.8334
59.6181
58.7087
-25.3612
93.2741
-82.7445
-64.0095
-96.7802
-64.8425
-41.3727
-39.0571
-41.5078
-34.1409
-46.6573
-43.739
-49.7449
-34.7162
-41.7478
-38.54
-40.9926
-38.7513
-32.5227
-24.1255
-32.3049
-16.6009
-2.25494
2.04537
-39.7777
37.0756
-61.3823
-53.3513
-68.0645
-49.004
-32.729
-32.523
-33.4668
-29.9558
-38.5463
-38.9277
-43.9939
-32.7208
-46.4361
-46.5464
-49.6342
-41.6133
-34.6305
-37.9352
-38.337
-36.1677
-30.2256
-30.2448
-30.4188
-31.1346
-32.1787
-32.3192
-36.8479
-31.1505
-32.0276
-31.831
-32.4739
-32.3499
-28.2942
-43.3093
-34.8627
-38.4877
-28.3933
-29.2286
-28.7924
-29.8261
-29.1277
-29.2691
-28.0573
-29.9078
-30.4685
-30.9012
-30.8619
-32.1131
-40.6946
-40.5552
-41.4983
-36.0218
-34.9475
-31.8995
-33.93
-34.0744
-47.9367
-48.4417
-44.0995
-54.5125
-51.4978
-18.1658
-17.0375
-41.5913
-40.9159
-39.7256
-38.016
-41.8646
-35.0592
-28.1362
-21.9022
-37.2975
-42.4695
-42.5129
-37.4837
-49.4532
-49.2454
-47.3285
-52.6967
-46.9001
-34.6115
-37.9285
-38.3278
-36.1599
-32.0158
-31.8157
-32.4613
-32.3442
-30.2236
-30.2452
-30.4485
-31.1083
-32.2149
-32.3389
-36.8581
-31.1582
-28.5844
-43.0368
-34.6432
-38.4251
-30.4408
-30.8866
-30.8458
-32.0867
-28.5145
-29.2767
-28.7236
-29.8298
-29.1366
-29.2211
-28.0643
-29.9028
-40.6786
-40.5258
-41.4647
-35.9179
-50.5926
-17.1201
-17.0152
-41.1631
-34.961
-31.9247
-34.0107
-34.0606
-47.8956
-48.327
-43.9612
-54.5066
-40.9217
-39.714
-38.0066
-41.8615
-49.2307
-47.3235
-52.6919
-46.8995
-35.0605
-28.089
-21.7703
-37.3262
-42.4629
-42.5163
-37.488
-49.3962
-105.884
-74.9682
-93.5263
-86.5392
129.753
186.674
158.302
155.824
-61.156
-53.6175
-56.7416
-56.6794
196.565
196.57
196.345
196.193
-52.9505
-53.6726
-59.1889
-50.0605
-45.3358
-44.7682
-48.0754
-42.3084
-47.341
-45.0303
-46.9002
-47.9947
-29.2964
-26.0669
-28.5589
-28.5915
-38.8145
-38.3635
-38.7497
-38.7529
-24.4235
-20.6834
-22.7382
-22.684
-38.568
-39.3443
-36.9417
-41.1828
-37.5469
-38.0308
-38.147
-38.2157
-25.6967
-19.9094
-23.2781
-23.3131
11.1273
72.5599
36.77
36.9979
-52.2664
-52.667
-48.9999
-56.373
-24.8059
-13.2546
-21.8421
-13.8648
-34.374
-36.0921
-35.2312
-35.2319
-28.9627
-24.36
-28.8139
-28.9369
-41.9369
-42.1745
-43.9871
-39.4175
-39.3619
-38.5699
-39.852
-37.9868
-105.806
-74.9301
-93.4753
-86.517
129.657
187.179
155.643
157.069
-52.9349
-53.6584
-59.1864
-50.0486
-45.3116
-44.7309
-48.0391
-42.2819
-47.2887
-45.0196
-47.9763
-46.8806
-29.2671
-25.9852
-28.5163
-28.5528
-38.5613
-39.3427
-36.9291
-41.1787
-37.5984
-38.0486
-38.198
-38.2244
-52.2458
-52.6604
-56.3779
-48.9821
-24.6729
-13.2204
-13.8762
-21.8778
-41.9533
-42.1867
-39.3939
-44.0202
-39.3601
-38.5689
-37.9841
-39.8498
-31.994
-32.1688
-32.5129
-31.481
-30.4948
-30.8594
-30.9172
-30.4728
-44.9179
-44.6945
-43.5291
-43.9077
-32.4282
-33.6
-32.5191
-34.0324
-34.2341
-37.8282
-36.0012
-36.0146
-32.8161
-31.932
-32.4107
-32.4123
-25.0882
-29.1625
-26.9996
-27.3753
-34.3256
-36.3039
-34.8698
-35.6404
-30.8754
-30.7355
-30.7129
-30.7149
-34.3867
-38.9417
-36.2525
-36.2587
-36.2336
-35.4037
-34.0439
-36.9249
-62.7796
-80.2019
-76.8847
-68.1898
9.81225
12.7808
11.6746
11.7577
-88.7349
-105.277
-104.77
-104.008
-56.8836
-66.5914
-61.8965
-61.9203
-44.0456
-41.9914
-43.1384
-43.1386
-31.9377
-32.1673
-32.5478
-31.4781
-30.4946
-30.8591
-30.9176
-30.4713
-44.9207
-44.6732
-43.8702
-43.5149
-32.4262
-33.6013
-32.5181
-34.0303
-25.1391
-29.1882
-27.4212
-27.0118
-34.4133
-36.2052
-34.8419
-35.51
-36.2024
-35.3978
-36.9198
-34.0214
-62.7921
-80.2369
-68.2112
-76.9175
-112.993
-101.648
-100.102
-81.2484
-42.3693
-41.2387
-44.7761
-42.5376
-43.2097
-43.6
-44.4318
-43.986
-90.9992
-78.1042
-82.1717
-70.318
-113.068
-101.654
-100.077
-81.2089
-90.9057
-78.1041
-82.1457
-70.3095
-43.2219
-43.5751
-44.3502
-43.9658
-42.3645
-41.202
-44.7662
-42.5217
-63.6366
-59.8555
-57.3748
-55.0846
-63.499
-59.8077
-57.235
-55.0233
-36.0602
-34.1646
-37.8464
-35.96
-36.0691
-34.1805
-37.8659
-35.982
-33.0954
-36.1217
-27.0772
-28.1372
-14.5503
-3.88382
-3.87601
5.94528
-14.4119
-3.65639
-4.04903
5.48442
-33.0638
-35.8878
-27.1701
-27.9493
131.533
172.981
167.403
184.59
42.0219
17.463
68.1942
32.0687
17.5883
42.0924
32.2947
68.3095
173.291
129.343
185.844
169.752
-30.1966
-31.2009
-31.7648
-31.4247
-27.9363
-25.0732
-28.1648
-27.0565
-25.5347
-27.5704
-27.6919
-28.9557
-36.7139
-38.3212
-36.2113
-37.824
-30.3637
-31.1925
-31.734
-31.4135
-36.7162
-38.3331
-36.2203
-37.8143
-25.5388
-27.5913
-27.7327
-29.0252
-27.9429
-25.002
-28.1827
-27.1049
-31.8226
-32.3455
-31.5922
-32.2322
-32.3454
-31.8218
-32.2345
-31.5923
-30.5463
-30.2343
-30.5424
-30.4228
-30.2423
-30.5552
-30.4277
-30.5476
-75.0166
-75.5938
-82.9158
-91.7763
-54.0066
-56.7205
-62.137
-61.1672
-56.732
-54.0249
-61.2232
-62.1382
-75.92
-74.8574
-91.9289
-83.048
-34.1819
-31.2243
-36.3837
-33.0713
-45.031
-43.4501
-45.826
-42.4245
-51.1098
-51.9317
-49.4803
-47.7784
-36.7236
-36.4873
-37.1059
-36.6021
-34.0334
-31.191
-36.4146
-33.0415
-36.6865
-36.4745
-37.0944
-36.2921
-51.0901
-51.9471
-49.4736
-47.7827
-45.0197
-43.4411
-45.8122
-42.4155
-36.701
-34.3568
-38.402
-36.1976
-36.7558
-34.3433
-38.4885
-36.2212
-39.337
-38.8266
-38.884
-38.3629
-39.4086
-38.7377
-38.8991
-38.3596
-43.3786
-44.0633
-41.9522
-43.0646
-34.7113
-35.6412
-35.0963
-36.2839
-34.7056
-35.6359
-35.0935
-36.28
-43.3762
-44.0699
-41.938
-43.0653
-29.6865
-29.1567
-28.7002
-27.1225
-29.1159
-29.6522
-27.0602
-28.6657
-29.7071
-30.1264
-29.3148
-29.6331
-30.1513
-29.7207
-29.6588
-29.3373
-32.248
59.1153
-92.2117
41.0042
-95.4094
-87.9766
-48.4676
-36.6871
-42.6196
-35.4785
-43.7341
-40.0451
-52.55
28.1314
-42.3794
6.98678
-69.2237
-58.8925
-44.0925
-33.6424
-35.0837
-33.5818
-47.0311
-41.3809
-92.0815
39.4301
-28.8984
58.9625
-95.6358
-88.0198
-42.6359
-35.3368
-48.5482
-36.6478
-43.7133
-39.8881
-42.5008
6.727
-52.5454
28.1842
-69.1895
-58.9239
-35.0638
-33.5501
-44.0609
-33.6074
-46.9942
-41.3535
-34.6171
-33.8212
-30.813
-31.2411
-38.4551
-31.3404
-32.8536
-31.9872
-30.1784
-30.54
-28.7114
-30.0581
-29.2655
-30.5604
-30.5961
-31.3157
-40.3694
-47.9508
-39.0849
-39.9369
-44.5969
-54.9681
-52.8263
-63.7015
-39.5931
-44.8337
-34.4446
-37.434
-37.6502
-51.1497
-49.8502
-47.8474
-34.5302
-33.8226
-32.8445
-31.9725
-30.8115
-31.2455
-38.9412
-31.3271
-30.2864
-30.5636
-30.5804
-31.2805
-28.7502
-30.058
-29.2819
-30.584
-40.4099
-47.9155
-52.7477
-64.0463
-39.1757
-39.9602
-44.6487
-55.0207
-39.6027
-44.8386
-49.8695
-47.8471
-34.4434
-37.44
-36.9015
-51.215
-31.985
81.6485
-40.5916
59.9737
-92.5723
-85.5507
94.6745
118.897
-78.3147
7.63533
-77.987
6.87797
-68.4791
-68.3778
118.765
118.824
-68.302
-54.8897
-44.846
-40.4075
-59.7938
-48.6436
-49.298
-42.7725
-48.6947
-33.2564
-44.9414
-32.1844
-47.9775
-49.1042
-30.1035
-30.0057
-40.1613
-33.0007
-40.144
-32.9741
-38.886
-38.893
-28.4906
-28.471
-39.2139
-37.2176
-38.053
-39.7343
-35.8805
-40.5759
-37.418
-37.4985
-28.1653
-13.124
-28.0671
-13.2553
-27.5769
-27.6624
-0.28305
-0.273173
-56.5421
-43.1253
-44.1596
-35.2658
-48.6256
-55.3391
-33.8374
-29.52
-33.0075
-30.4253
-33.0054
-30.4402
-33.5273
-33.5273
-29.6298
-29.6511
-46.8358
-41.6537
-38.9065
-40.3957
-46.0816
-40.0442
-40.2007
-39.4054
-31.8517
81.2261
-41.1434
60.1143
-92.532
-85.4819
118.851
94.5482
-68.2636
-54.8756
-44.8374
-40.395
-59.7828
-48.6322
-49.2738
-42.7549
-48.6598
-33.2178
-44.9164
-32.1473
-49.087
-47.9458
-30.074
-29.9819
-39.2265
-37.2421
-38.1876
-39.7127
-35.8775
-40.5749
-37.4394
-37.5126
-56.6927
-42.7072
-44.1397
-35.223
-55.2691
-48.5678
-29.6226
-33.843
-46.8179
-41.6472
-38.8851
-40.4011
-40.0248
-46.1195
-39.3985
-40.18
-30.3108
-30.6244
-28.9993
-29.7233
-30.0024
-30.7393
-30.5589
-30.142
-36.6566
-30.6201
-33.2813
-32.0286
-41.3915
-38.5236
-31.1251
-32.5042
-32.5252
-32.4295
-32.5087
-32.4237
-33.1269
-33.1398
-33.0683
-33.0697
-26.1319
-30.8794
-22.3537
-35.6257
-23.2242
-22.9767
-32.6389
-34.3095
-31.0932
-32.2132
-31.0859
-32.2074
-30.9726
-30.9756
-34.0854
-34.0864
-41.9762
-52.8547
-37.8046
-50.8936
-34.2406
-38.5453
-56.9091
-54.7693
-6.07662
-34.0422
-6.18159
-33.1993
3.18395
3.23503
-56.2564
-56.7511
-50.4524
-45.9967
-50.3762
-45.9976
-53.2423
-53.2228
-44.822
-44.8218
-30.3646
-30.6237
-28.8783
-29.7052
-30.307
-30.5481
-30.5645
-30.1368
-36.6726
-30.6284
-33.2865
-32.0296
-38.5313
-41.4008
-31.1234
-32.5041
-26.271
-30.862
-22.2162
-35.7463
-23.1638
-23.014
-32.6671
-34.3764
-41.9766
-52.8378
-37.8377
-50.9036
-38.5353
-34.2591
-54.7825
-56.9278
-65.8396
-64.0031
-58.708
-50.1689
-50.1483
-57.0376
-47.4795
-47.3035
-65.8186
-64.0155
-58.7164
-50.1597
-57.0359
-50.1419
-47.3009
-47.4689
-50.6289
-50.6001
-47.487
-42.0803
-47.4467
-42.0498
-39.9687
-39.9859
-16.2675
-16.3108
-13.6377
-1.62682
-1.9536
-13.7852
8.82106
8.64208
193.693
182.27
196.37
196.27