# vtk DataFile Version 2.0
tri_press
ASCII
DATASET UNSTRUCTURED_GRID
POINTS 3682 float
-0.655272 0.225 -1.975
-0.821172 0.175 1.815
-0.695 0.755 -1.75707
-0.700785 0.955 1.865
0.655267 0.225 -1.975
0.822226 0.175 1.815
0.695 0.755 -1.75705
0.701406 0.955 1.865
-0.75263 0.166276 -0.711667
-0.787464 0.170075 0.551667
-0.804735 0.929473 -0.549713
-0.794064 0.983541 0.657643
0.753053 0.1662 -0.711667
0.786965 0.171275 0.551667
0.805695 0.930226 -0.5497
0.794975 0.984038 0.65765
-1.41637 -0.17403 -3.04042
-1.42196 -0.140477 -2.05217
-1.49643 -0.18163 -0.787392
-1.54011 -0.208697 0.488657
-1.5578 -0.213396 1.75439
-1.56634 -0.209018 2.74728
-1.57212 -0.199326 3.73157
-1.41343 0.154474 -2.95157
-1.41922 0.213182 -1.96944
-1.51377 0.192597 -0.715555
-1.54891 0.180531 0.543374
-1.55478 0.174795 1.79834
-1.56822 0.178632 2.79044
-1.57701 0.187869 3.77655
-1.432 0.7687 -2.75818
-1.45287 0.825123 -1.77374
-1.5519 0.938799 -0.558007
-1.55262 0.978459 0.653757
-1.4928 0.962222 1.87056
-1.53811 0.963115 2.86498
-1.57248 0.970828 3.86012
-1.46774 1.82787 -2.51017
-1.48648 1.90242 -1.53411
-1.53003 2.03246 -0.33653
-1.5549 2.12361 0.848983
-1.55523 2.1493 2.04715
-1.56325 2.15145 3.02443
-1.58014 2.15403 4.01346
-0.687357 -0.169058 -3.04403
-0.673458 -0.132091 -2.05744
-0.734152 -0.194292 -0.786683
-0.768698 -0.217761 0.495734
-0.788708 -0.216743 1.76676
-0.801006 -0.21258 2.75568
-0.807644 -0.203035 3.73643
-0.685476 0.151658 -2.95268
-0.815113 0.175676 2.79736
-0.817367 0.184322 3.78022
-0.698899 0.738921 -2.75125
-0.789497 0.959066 2.86387
-0.818723 0.967604 3.85988
-0.717751 1.80726 -2.50332
-0.726015 1.88291 -1.52656
-0.760859 2.02705 -0.331981
-0.78938 2.12723 0.84844
-0.797587 2.1514 2.04325
-0.807306 2.15156 3.02054
-0.823201 2.15342 4.01064
0.717135 -0.168923 -3.04402
0.71481 -0.132024 -2.05744
0.766262 -0.194143 -0.786682
0.795472 -0.216926 0.495735
0.813595 -0.216408 1.76676
0.76759 -0.212292 2.75568
0.737961 -0.202697 3.73643
0.700933 0.151764 -2.95268
0.7443 0.175871 2.79736
0.720914 0.184625 3.78022
0.714044 0.739052 -2.75124
0.700507 0.959241 2.86387
0.696966 0.967892 3.85988
0.765917 1.80757 -2.50331
0.777669 1.88329 -1.52655
0.778776 2.02752 -0.331972
0.752329 2.12768 0.848446
0.719809 2.15178 2.04326
0.703771 2.15192 3.02054
0.692134 2.15378 4.01064
1.43865 -0.173672 -3.04041
1.44171 -0.140158 -2.05217
1.51482 -0.181092 -0.787387
1.56382 -0.207412 0.488659
1.57872 -0.212515 1.75439
1.5447 -0.208317 2.74728
1.51276 -0.198604 3.73157
1.42039 0.154804 -2.95156
1.41199 0.213502 -1.96944
1.51078 0.19309 -0.715549
1.55713 0.181912 0.543377
1.56245 0.175539 1.79834
1.52377 0.179224 2.79044
1.49557 0.188539 3.77656
1.43788 0.769092 -2.75816
1.44504 0.825598 -1.77371
1.54627 0.939741 -0.55799
1.55388 0.979483 0.653766
1.48851 0.962837 1.87056
1.47293 0.963657 2.86498
1.46551 0.971467 3.86012
1.50697 1.82852 -2.51015
1.52409 1.90317 -1.53409
1.54027 2.03336 -0.336514
1.5225 2.12451 0.848994
1.48659 2.15009 2.04715
1.46696 2.15218 3.02444
1.45495 2.15477 4.01347
-0.708544 0.49 -1.89944
-2.5034e-06 0.215814 -1.98419
-0.699117 0.200472 -1.34333
-0.787415 0.565 1.86644
0.000526994 0.161653 1.82835
-0.787781 0.189074 1.18333
0 0.834537 -1.8366
-0.795786 0.888155 -1.15339
0.00031051 1.06564 1.97564
-0.776929 0.998775 1.26132
0.70874 0.49 -1.89963
0.699305 0.200455 -1.34333
0.788083 0.565 1.86627
0.811864 0.165869 1.18333
0.795822 0.888088 -1.15338
0.777339 0.998667 1.26133
-0.763574 0.174648 -0.08
-0.880458 0.547874 -0.63069
0.000211684 0.149464 -0.711667
-0.878999 0.576808 0.604655
-0.000249556 0.150098 0.551667
-0.803477 0.960584 0.053965
0.000480033 1.23829 -0.549707
0.000455552 1.4516 0.657647
0.764351 0.174396 -0.08
0.881797 0.548213 -0.630683
0.880916 0.577657 0.604658
0.804034 0.960831 0.053975
-0.883657 0.518937 -1.24836
0.883698 0.519107 -1.24835
0.00010459 0.170659 -1.34333
0.000240016 0.920068 -1.15338
-1.2517e-06 0.49 -2.18673
-0.884438 0.562341 -0.0130175
0.88519 0.562935 -0.0130125
-1.89358e-05 0.15588 -0.08
0.000467793 1.42821 0.05397
-0.879631 0.570904 1.22233
0.879611 0.571328 1.22233
0.000138719 0.155903 1.18333
0.000383031 1.41547 1.26132
0.000418752 0.565 2.13941
-0.672322 0.3575 -1.92764
-0.327637 0.216378 -1.98362
-0.685649 0.204282 -1.65917
-0.802941 0.37 1.83937
-0.410323 0.16214 1.82786
-0.785201 0.201312 1.49917
-0.717843 0.6225 -1.84433
-0.3475 0.810183 -1.81225
-0.768985 0.845169 -1.45523
-0.759924 0.76 1.88154
-0.350237 1.03147 1.94147
-0.757951 0.995982 1.56316
0.327632 0.216058 -1.98394
0.672112 0.3575 -1.92742
0.685469 0.204544 -1.65917
0.411376 0.161657 1.82834
0.803399 0.37 1.83888
0.785759 0.20172 1.49917
0.3475 0.80973 -1.81179
0.717733 0.6225 -1.8442
0.76902 0.845153 -1.45521
0.350858 1.03914 1.94914
0.760513 0.76 1.8814
0.758611 0.996073 1.56316
-0.715903 0.193344 -1.0275
-0.754742 0.173821 -0.395833
-0.873907 0.328394 -0.671178
-0.37495 0.160387 -0.711667
-0.798792 0.168405 0.8675
-0.774524 0.173357 0.235833
-0.869092 0.355511 0.578161
-0.393552 0.160695 0.551667
-0.803844 0.912398 -0.851553
-0.880901 0.757826 -0.590202
-0.80566 0.946583 -0.247874
-0.464683 1.20899 -0.54971
-0.787198 0.992859 0.959483
-0.873024 0.79842 0.631149
-0.801284 0.974576 0.355804
-0.500037 1.42404 0.657645
0.716061 0.193446 -1.0275
0.373819 0.163458 -0.711667
0.754353 0.174647 -0.395833
0.872602 0.329618 -0.671175
0.798231 0.169755 0.8675
0.393314 0.160773 0.551667
0.792867 0.155626 0.235833
0.870729 0.356072 0.578163
0.803902 0.912301 -0.851538
0.465363 1.20881 -0.549703
0.88081 0.757752 -0.590192
0.805813 0.946477 -0.247863
0.787814 0.993009 0.959488
0.500903 1.4242 0.657648
0.873816 0.798783 0.631154
0.801819 0.974749 0.355813
-0.866136 0.504469 -1.5739
-0.354272 0.49 -2.13191
5.10435e-05 0.201835 -1.66376
-1.87755e-06 0.352907 -2.16478
-0.869462 0.359705 -1.29585
-0.349506 0.188308 -1.34333
-0.872181 0.567952 1.54438
-0.393498 0.565 2.14507
0.000332857 0.161925 1.50584
0.000472873 0.363326 2.19125
-0.865577 0.379989 1.20283
-0.393821 0.160455 1.18333
0.000120008 0.925685 -1.49499
-6.25849e-07 0.662268 -2.08092
-0.892396 0.703546 -1.20088
-0.397773 0.976842 -1.15339
0.000346771 1.38361 1.61848
0.000364631 0.81532 2.09363
-0.870344 0.784839 1.24182
-0.388273 1.39647 1.26132
0.866136 0.504553 -1.57399
0.354369 0.49 -2.13189
0.86947 0.359781 -1.29584
0.349705 0.188008 -1.34333
0.872161 0.568164 1.5443
0.394251 0.565 2.14546
0.865076 0.368599 1.20283
0.406001 0.158153 1.18333
0.892388 0.703597 -1.20086
0.398031 0.976827 -1.15338
0.871101 0.784998 1.24183
0.388861 1.39654 1.26132
-0.880715 0.34014 -0.0465087
-0.381223 0.166412 -0.08
-0.890295 0.533406 -0.939526
-0.883452 0.555108 -0.321854
0.000158137 0.170986 -1.0275
9.63743e-05 0.154754 -0.395833
-0.885374 0.569575 0.295819
-0.874288 0.573856 0.913491
-0.000134246 0.155609 0.235833
-5.54184e-05 0.130816 0.8675
-0.884709 0.781838 0.0204738
-0.504975 1.40134 0.0539675
0.000360025 1.08709 -0.851545
0.000473913 1.3714 -0.247868
0.000461672 1.45178 0.355808
0.000419292 1.44014 0.959485
0.880203 0.340949 -0.0465062
0.383369 0.162731 -0.08
0.890338 0.53366 -0.939519
0.884091 0.555574 -0.321848
0.886001 0.570296 0.295823
0.87531 0.574492 0.913494
0.884983 0.782069 0.0204812
0.505596 1.40121 0.0539725
-0.85017 0.358602 -1.61653
-0.876031 0.35839 -0.983513
-0.879555 0.72111 -0.895539
-0.868643 0.663023 -1.51457
0.850715 0.35864 -1.61658
0.868638 0.663049 -1.5146
0.879517 0.721408 -0.895528
0.875978 0.358494 -0.983509
-0.338572 0.202544 -1.66146
0.338669 0.202118 -1.66146
0.363169 0.181933 -1.0275
-0.362858 0.176456 -1.0275
-0.372636 0.914734 -1.47511
-0.39995 1.06254 -0.851549
0.400559 1.06311 -0.851541
0.372766 0.91115 -1.4751
-0.340955 0.355203 -2.11522
-0.350886 0.642384 -2.07231
0.350935 0.642384 -2.07265
0.341001 0.355203 -2.11529
-0.880519 0.332663 -0.358844
-0.879571 0.345492 0.265826
-0.879679 0.790536 0.325812
-0.886698 0.771779 -0.284864
0.878636 0.334167 -0.358841
0.886659 0.771791 -0.284855
0.880334 0.790893 0.325818
0.880027 0.34623 0.265828
-0.376566 0.166441 -0.395833
0.378485 0.163313 -0.395833
0.388142 0.162152 0.235833
-0.384268 0.169793 0.235833
-0.502966 1.34144 -0.247871
-0.508463 1.4246 0.355806
0.509238 1.42468 0.35581
0.503874 1.3418 -0.247865
-0.860592 0.376715 0.890496
-0.855136 0.374995 1.52177
-0.851719 0.77242 1.55377
-0.870383 0.782507 0.936487
0.861035 0.371532 0.890497
0.871191 0.782923 0.936491
0.852256 0.772499 1.55373
0.855384 0.369299 1.52173
-0.393839 0.139236 0.8675
0.399679 0.146664 0.8675
0.408689 0.16349 1.5025
-0.402072 0.17032 1.5025
-0.392539 1.4241 0.959484
-0.369255 1.35829 1.59082
0.36986 1.35968 1.59082
0.393288 1.42416 0.959486
-0.40191 0.366663 2.14981
0.402814 0.366663 2.1489
0.372555 0.78766 2.05363
-0.371868 0.78766 2.0537
-0.655865 0.29125 -1.94339
-0.491455 0.215589 -1.98441
-0.675191 0.20991 -1.81708
-0.800896 0.2725 1.81602
-0.615747 0.161658 1.82834
-0.786423 0.20492 1.65708
-0.707431 0.68875 -1.80171
-0.52125 0.80391 -1.80598
-0.740478 0.808571 -1.60615
-0.735392 0.8575 1.87831
-0.525511 1.01094 1.92094
-0.738841 0.984964 1.71408
0.49145 0.215415 -1.98458
0.655594 0.29125 -1.94312
0.675207 0.209933 -1.81708
0.616801 0.161672 1.82833
0.802143 0.2725 1.81627
0.787103 0.20525 1.65708
0.52125 0.803872 -1.80592
0.707435 0.68875 -1.8017
0.740499 0.808565 -1.60613
0.526132 1.01106 1.92106
0.736051 0.8575 1.87829
0.739568 0.985095 1.71408
-0.720831 0.193245 -0.869583
-0.749901 0.173833 -0.55375
-0.86036 0.223789 -0.691423
-0.561348 0.168215 -0.711667
-0.798019 0.164348 0.709583
-0.787216 0.165493 0.39375
-0.859988 0.246938 0.564914
-0.590753 0.164895 0.551667
-0.805328 0.921974 -0.700633
-0.859807 0.852144 -0.569958
-0.805201 0.938031 -0.398794
-0.687888 1.17559 -0.549712
-0.790596 0.988165 0.808563
-0.848697 0.898557 0.644396
-0.797673 0.979058 0.506724
-0.660793 1.23127 0.657644
0.735186 0.179194 -0.869583
0.561753 0.168195 -0.711667
0.755561 0.168566 -0.55375
0.854161 0.227243 -0.691421
0.798246 0.164867 0.709583
0.589838 0.166626 0.551667
0.786662 0.166705 0.39375
0.857689 0.249252 0.564915
[...]
POINT_DATA 3682
SCALARS point_scalars float 1
LOOKUP_TABLE default
-41.2346
-60.9728
-14.5771
-45.0915
-41.2858
-54.8308
-14.5756
-42.4996
-46.9498
-37.464
-61.982
-51.8028
-45.9171
-35.3659
-62.0302
-51.2324
-28.7704
-75.4529
-46.9497
-41.4074
-57.5682
-65.4056
-40.0359
23.4749
-76.0191
-44.866
-41.7537
-55.5812
-43.1576
-39.5897
57.5793
-73.8634
-54.0887
-47.1089
-51.9921
-41.8606
-39.6201
-20.8787
-54.288
-90.4358
-62.4191
-51.3103
-43.8488
-41.8089
10.4312
-145.959
-44.2611
-38.5662
-48.2574
-41.3732
-38.5927
10.4312
-39.8282
-38.5927
130.4
-39.8439
-40.044
-1.80847
-35.0841
-93.5593
-62.2987
-51.0351
-41.0044
-40.3682
13.4167
-108.106
-45.3938
-37.0593
-41.4834
-35.8435
-32.6281
13.4167
-34.1697
-31.5166
132.577
-36.3093
-35.8854
-2.15831
-34.8722
-93.8386
-61.8505
-48.8578
-39.5132
-39.201
-78.666
-76.7008
-49.1198
-40.081
-51.5162
-59.3668
-35.4986
20.3748
-75.1196
-44.4983
-40.7049
-50.4395
-38.3365
-34.6527
55.613
-72.8074
-53.9502
-46.5826
-48.659
-37.3873
-36.1356
-21.0744
-55.7112
-89.7288
-61.8038
-49.91
-41.018
-38.5138
4.08091
-108.712
-55.0032
-47.4738
-42.6068
-41.1162
-24.0818
-52.3062
-39.8521
-50.7936
4.44407
-54.9048
-42.9694
-43.8427
-51.9589
-49.4134
-38.765
-46.36
-45.0497
-43.5672
-36.8481
-56.937
-12.4857
-72.0169
-37.821
-46.067
-42.8188
-56.4852
-66.8134
-66.6178
-57.8609
1.75118
194.651
-44.508
-43.8858
-38.1505
-93.0288
-46.219
-44.5395
-41.773
-55.2301
-29.9778
18.9005
-120.153
-75.2306
-53.1881
-47.2715
-43.6263
2.66426
-15.839
-51.7531
-45.9465
-40.4256
-52.5449
-120.703
19.0871
-74.9476
-44.1202
-47.9546
-41.5951
-16.0444
2.75951
-52.0845
-39.4474
-42.0165
-50.523
-43.1054
-40.557
-44.7064
-44.9193
-43.0196
-36.6888
-42.1911
-36.6338
-61.1524
-51.4513
-60.4215
-19.6105
-50.5546
-46.7983
-55.3059
-65.6583
-42.3506
-44.5477
-39.9747
-44.4885
-39.2408
-36.3812
-38.7375
-41.3065
-60.1409
-19.4461
-51.2704
-59.7102
-49.6659
-65.2389
-46.1051
-54.6107
-97.0887
176.085
-62.7292
177.514
-64.6002
-55.2438
-51.547
-38.8921
-41.2427
-27.5714
-43.93
-41.7918
-24.2123
120.585
-67.8674
-9.31551
-46.7989
-36.001
-48.6952
-55.2356
-96.7171
176.019
-64.4489
-55.922
-48.5817
-33.6289
-42.528
-41.6651
-67.6495
-9.30988
-47.0237
-54.633
-41.9599
-38.4465
-54.9091
-45.1017
-45.2835
-40.6674
-44.5699
-42.481
-36.3724
-44.1543
-49.3659
-85.0527
18.7023
-79.2547
-83.2137
-63.2253
-41.3072
-37.8322
-54.728
-44.6689
-43.7966
-41.5656
-48.7843
-84.5806
-95.8858
-52.1706
-56.1105
-80.0479
-95.4783
-79.8116
-55.7087
-52.2053
-66.929
-66.3834
-44.6515
-45.3586
-25.7218
9.96739
10.046
-24.4923
150.108
101.001
101.528
149.973
-42.5816
-42.3735
-48.7781
-50.4848
-41.9419
-49.9692
-48.0533
-41.7632
-40.5735
-40.3166
-36.7371
-36.2053
-85.8081
-73.2979
-72.8785
-85.7074
-41.1006
-48.314
-54.7137
-45.4657
-40.328
-44.5332
-51.8581
-45.4451
-44.5527
-41.9491
-41.0563
-42.7862
-61.7168
-48.9796
-47.9847
-61.2701
-38.3392
-32.1231
-36.8731
-39.6548
12.6301
-150.616
-104.376
-58.9661
-54.0723
-45.2525
-2.4066
-16.5434
-42.7125
-45.5943
-41.0048
-50.357
-151.338
12.4555
-104.296
-49
-53.2382
-42.3072
-16.1814
-2.71282
-42.381
-39.3367
-42.2571
-48.1202
-37.4961
-43.2128
-45.6418
-43.9305
-41.5951
-38.7484
-41.2424
-37.5625
-63.1172
-56.3443
-61.2698
-85.0942
-50.7446
-49.1337
-53.426
-57.436
-39.7414
-43.535
-44.1989
-45.3648
-39.5685
-36.6583
-38.3237
-39.8739
-62.0998
-84.7495
-56.2032
-61.0486
-50.0725
-56.7831
-48.4913
-52.8063
13.8728
4.21518
-55.6777
110.327
-118.247
-120.137
-84.1903
78.7786
-65.7758
-48.1765
-63.1483
-53.7747
-49.3714
-46.2896
-56.6846
-39.4995
-44.6984
-42.4153
-41.3067
-31.7844
-42.4699
-44.5132
-42.0622
-41.4738
-23.0128
-23.3764
-29.1421
63.9447
-54.6339
-54.9836
-66.8802
-19.1037
-40.2718
-39.7563
-40.6767
-39.3136
-52.2535
-51.7286
-50.3137
-54.0924
12.9149
3.81635
-55.4738
110.34
-65.6167
-47.8883
-62.9756
-53.9634
-44.5626
-42.1551
-52.3297
-35.7974
-40.5979
-42.378
-41.2475
-41.8024
-54.251
-55.021
-66.622
-18.8267
-50.5169
-50.5906
-48.7384
-53.235
-39.2311
-37.8269
-40.5613
-38.3008
-45.4001
-48.0763
-49.226
-45.3814
-44.5138
-45.5776
-41.9271
-43.8221
-42.6775
-44.8215
-44.2674
-42.8804
-37.2152
-36.8668
-36.359
-39.4854
-58.6488
-55.6126
-52.6571
-68.938
-13.9385
-13.8392
7.15127
-42.8268
-70.8124
-70.5911
-77.6843
-67.2929
-38.465
-36.353
-39.8552
-37.5864
-45.1162
-47.8565
-48.8965
-45.1142
-41.8855
-44.1572
-43.4495
-42.1396
-58.188
-55.1033
-52.231
-68.0127
-80.8574
-65.7859
-67.2645
-58.7357
-80.7015
-65.624
-67.0357
-58.5893
-61.547
-57.3058
-57.5446
-51.0701
-12.6638
-0.247892
-0.180537
14.5981
201.173
198.321
153.61
201.303
-43.2196
-44.9562
-44.3473
-46.3151
-42.538
-44.2645
-43.73
-45.7433
-38.2816
-39.1924
-37.1297
-38.103
-90.7832
-92.1255
-87.5667
-90.6276
-48.5559
-45.077
-46.7689
-43.1049
-46.4433
-43.458
-45.0933
-41.865
-41.2154
-41.8683
-41.7937
-45.4596
-50.3291
-55.3739
-55.0451
-59.3207
-34.2654
-28.9523
-36.1024
-29.1743
-59.0674
101.234
-89.3856
77.6457
-87.2469
-68.5814
-52.624
-40.1084
-43.8421
-39.7415
-46.1608
-42.8834
-54.0899
73.5918
-29.0534
32.3159
-71.1536
-28.2157
-52.3338
-39.8665
-42.2888
-40.1189
-53.5304
-51.3163
-90.6133
78.7634
-60.7615
101.431
-85.9192
-68.3043
-41.2533
-34.6624
-48.7007
-35.6066
-43.4184
-41.0731
-29.4648
32.3728
-53.8071
73.8561
-71.1843
-28.4767
-41.0813
-38.6199
-48.7242
-36.8066
-51.0389
-49.9955
-49.8548
-44.2328
-41.4928
-40.3528
-47.8999
-43.06
-41.1894
-42.93
-42.4706
-43.8179
-40.9622
-36.7801
-42.5782
-41.9147
-36.2356
-40.0585
-58.6626
-8.41476
-52.1705
-50.6866
-55.1835
-79.1367
-2.21788
-45.5967
-47.7169
-56.9851
-47.8423
-45.9664
-51.7606
-62.9776
-69.3537
-63.8424
-49.6971
-43.7302
-41.3296
-43.7447
-40.807
-40.0199
-48.1977
-42.6332
-40.504
-41.0519
-36.5917
-38.9957
-40.6195
-37.0643
-41.9247
-40.8977
-58.0436
-8.4858
-2.12423
-45.2463
-51.7478
-50.4256
-54.6219
-78.6734
-46.7908
-56.289
-68.9567
-63.4178
-47.1208
-45.2277
-51.0818
-62.4895
-97.8646
-89.3247
173.249
149.066
-64.5562
-63.7397
168.259
168.245
-82.1104
-56.5626
-61.2501
-50.3441
-49.9582
-53.6845
-38.2265
-39.7266
-41.0074
-42.1376
-33.5646
-27.3572
-42.3761
-45.8543
-44.5684
-42.1397
-24.1776
-23.6326
122.304
122.054
-61.2254
-78.9612
-17.2756
4.87578
-47.8883
-47.3009
-35.6857
-37.943
-52.5592
-46.0183
-58.4191
-51.5458
-97.6127
-89.0116
148.909
173.11
-82.016
-56.4147
-60.8864
-50.0087
-50.6729
-47.0736
-32.1145
-36.7982
-41.0511
-43.8247
-43.3175
-41.1744
-78.7863
-60.9389
5.04834
-16.817
-44.7163
-50.2845
-50.7898
-57.9097
-42.3075
-41.9184
-39.2371
-37.1534
-53.8596
-55.8415
-43.7317
-47.1666
-44.7837
-45.9775
-40.7625
-40.5741
-43.3691
-46.2386
-41.0528
-43.9737
-36.5515
-36.2154
-44.5303
-43.1102
-49.022
-50.3086
-89.3057
-78.4001
16.941
17.0062
-79.14
-79.0442
-80.9388
-80.7483
-62.8983
-62.6669
-41.6442
-41.1732
-38.8287
-37.084
-55.5348
-53.7481
-43.1452
-46.7001
-45.483
-42.6219
-40.1848
-43.0076
-49.5376
-48.4583
-77.8085
-88.9682
-61.7755
-83.2152
-81.3297
-58.3558
-44.8189
-49.142
-58.2507
-55.1997
-57.818
-60.8688
-59.4865
-49.5299
-49.57
-52.9124
-81.8706
-69.4864
-63.0608
-58.2671
-81.1751
-83.2008
-48.5939
-69.2522
-81.7381
-52.9121
-56.674
-49.1201
-59.2612
-60.5224
-47.3662
-55.0708
-58.1074
-49.0292
-95.0613
-86.381
-61.281
-63.0475
-94.7285
-62.8262
-61.8941
-85.6482
-42.3911
-41.8974
-50.7582
-48.8152
-41.6723
-49.1724
-50.9441
-42.1392
-31.4674
-25.1514
-13.8699
-29.7681
-69.7462
5.8735
11.5177
-3.12419
-68.871
-3.09481
11.7126
5.798
-30.9265
-29.5804
-13.6929
-25.0138
77.365
96.7325
190.777
53.2839
46.5725
70.7354
143.151
101.291
46.5099
101.394
145.374
69.2985
77.1352
52.7151
190.846
96.9464
-42.6815
-41.0133
-43.533
-44.2045
-41.7106
-43.2533
-43.1098
-40.4005
-50.3689
-52.3942
-45.994
-45.5586
-55.3234
-47.3503
-46.9183
-54.3767
-42.6314
-43.801
-42.917
-40.2417
-55.6231
-53.4377
-46.2587
-47.1477
-49.675
-44.8235
-45.4041
-51.9906
-40.2694
-39.6999
-42.412
-42.4254
-43.0051
-43.3528
-39.2175
-39.0689
-43.6154
-38.5637
-39.0764
-43.7834
-36.9582
-36.4734
-37.0497
-37.0178
-36.513
-37.3351
-37.2037
-36.4111
-86.8263
-73.3059
-91.6466
-41.7387
-59.4673
-75.8674
-85.6492
-65.2274
-58.9386
-64.5486
-85.4231
-75.6491
-86.525
-41.6843
-91.5291
-72.7709
-42.4228
-42.6712
-43.0662
-42.1477
-50.6928
-53.9342
-46.9651
-44.4391
-51.513
-52.5426
-50.2158
-54.4794
-48.8297
-44.3464
-43.9117
-48.2409
-40.8562
-41.2936
-41.7328
-42.6262
-48.0492
-47.0016
-42.6725
-43.5535
-48.4942
-50.8962
-47.9548
-50.4817
-46.8878
-42.3951
-44.9997
-49.8721
-39.3627
-39.8186
-45.1911
-43.7082
-37.7389
-42.3567
-44.6608
-39.2805
-41.8135
-40.8159
-41.0548
-41.0922
-44.7715
-41.9202
-41.7014
-43.1541
-56.2101
-56.1197
-59.1415
-66.6491
-44.6428
-41.3763
-50.7364
-52.725
-43.1891
-51.7619
-50.303
-40.6649
-55.5561
-66.4348
-58.8748
-55.3305
-43.7394
-36.4246
-34.5352
-39.4524
-38.6727
-35.3318
-28.7818
-31.8196
-37.9314
-38.9974
-35.539
-36.8745
-40.2988
-39.9402
-38.0973
-39.7783
-5.64619
-138.888
-123.267
-62.8396
-60.3804
-46.0134
-8.85049
-12.738
-35.2098
-45.2819
-42.2703
-47.7125
-139.415
-5.66674
-123.151
-55.2397
-56.5869
-41.5546
-12.4268
-9.3314
-34.2933
-40.1879
-42.2571
-45.3171
-40.6334
-46.4254
-46.9604
-44.268
-38.2805
-39.3546
-39.644
-37.8553
-62.4779
-59.1012
-61.7475
-72.2957
-51.2215
-50.7853
-52.5344
-54.1828
-43.6991
-43.6175
-45.1156
-46.1664
-36.5626
-36.6819
-37.8942
-38.01
-61.9673
-72.161
-59.1731
-61.7424
-50.6176
-53.5525
-50.1305
-51.9579
11.1398
2.50828
-31.9337
73.6954
-112.636
-114.139
-97.7747
10.5195
-60.2
-50.3149
-61.1519
-54.1157
-48.6034
-46.8764
-53.3733
-41.2211
-43.5891
-42.1999
-41.6017
-34.4905
-41.2551
-42.1888
-41.351
-41.0424
-24.3525
-25.0409
-27.3652
-30.6292
-54.2982
-53.2554
-59.7007
-32.5869
-40.1731
-39.767
-40.1041
-39.7289
-51.9985
-50.6068
-50.9127
-49.881
11.1252
2.9824
-31.9268
73.4645
-60.099
-50.1261
-60.953
-54.0341
-43.8928
-42.5107
-48.715
-36.9979
-43.6663
-41.8338
-42.4891
-42.4653
-53.8203
-53.0905
-59.3744
-32.0328
-50.3794
-49.425
-49.4331
-48.8744
-38.8309
-37.5996
-39.4084
-38.2661
-45.7889
-47.0479
-47.1095
-45.7606
-44.5275
-45.4737
-43.3636
-44.7096
-43.016
-43.9799
-43.9356
-43.186
-37.0277
-36.7977
-37.0616
-36.1507
-57.6558
-56.2338
-55.3074
-62.2564
-12.5936
-12.5074
-2.39301
-24.3904
-71.6054
-71.4962
-74.7105
-69.3123
-38.0134
-37.0683
-38.7071
-37.4942
-45.4671
-46.8189
-46.7551
-45.4375
-42.2721
-43.3628
-43.1395
-42.4634
-57.1955
-55.7628
-54.9999
-61.4883
-72.4838
-66.5726
-67.2592
-62.3194
-72.2976
-66.3966
-67.0254
-62.1423
-62.5617
-57.582
-57.7982
-54.2087
-7.34605
0.762445
0.81148
7.72862
201.303
202.55
174.06
201.355
-43.7931
-44.7307
-44.3908
-45.3803
-43.1784
-44.0809
-43.7806
-44.7707
-38.1426
-38.7598
-37.5464
-38.1141
-92.5591
-92.7912
-90.0304
-92.5227
-47.2385
-45.6506
-46.6499
-44.6879
-45.3579
-43.9742
-44.8943
-43.2032
-41.1525
-41.7492
-41.8185
-43.4998
-52.9221
-55.3102
-55.1432
-57.3234
-32.4606
-30.3087
-33.6159
-29.288
20.058
24.9074
-36.9389
76.5024
-138.406
-116.949
-107.006
-23.938
-87.5484
-70.776
-83.0476
-70.7767
-55.4853
-50.7931
-56.6037
-43.539
-50.3506
-45.6488
-43.741
-42.7316
-44.091
-43.6965
-44.869
-42.8551
1.04358
5.35987
-33.9385
43.4649
-15.8865
-21.244
-23.8087
-5.73287
-48.1677
-53.1003
-61.495
-33.2364
-45.7619
-45.8663
-49.917
-41.2887
-40.5699
-40.3911
-40.9257
-40.3349
-51.6226
-52.7989
-53.1695
-51.817
-138.317
-118.861
-106.454
-23.1764
20.3579
23.3005
-37.2348
75.7183
-87.2897
-70.5737
-81.7119
-70.5251
-45.9982
-43.1344
-41.974
-37.5367
-50.108
-45.5472
-51.7028
-38.6916
-41.2092
-42.4102
-42.4368
-40.9701
-15.644
-21.5125
-23.2276
-6.34755
1.12963
5.33364
-33.6199
43.587
-48.6184
-52.7881
-61.5394
-34.348
-39.3426
-39.7094
-39.7583
-39.189
-42.1667
-41.8409
-46.0941
-37.8255
-49.5391
-50.8898
-50.9338
-50.307
-41.0037
-46.4622
-45.5463
-43.6578
-41.2178
-39.9487
-40.9167
-40.36
-44.6407
-45.0275
-45.937
-43.7283
-44.5977
-44.4312
-44.1171
-44.2074
-42.57
-45.1811
-43.2419
-43.2989
-36.2308
-37.8164
-38.9334
-37.2965
-41.8394
-42.4708
-42.4087
-42.0802
-36.8565
-37.0184
-37.2592
-36.2994
-63.1722
-62.0696
-59.1596
-43.3416
-53.9702
-49.4893
-51.6387
-50.6577
-60.9762
-59.7234
-58.1526
-67.4761
-29.0587
-16.3285
-9.6185
-32.7787
-50.4984
-50.9897
-49.3018
-53.4629
-47.6875
-45.8461
-47.3165
-46.331
-54.429
-55.4047
-53.5586
-59.606
-60.6794
-69.2007
-67.4625
-66.041
-39.0487
-45.9929
-44.4324
-42.9684
-44.1794
-45.1764
-44.5729
-43.5267
-42.1137
-39.1493
-40.3996
-39.8741
-44.238
-44.807
-45.9053
-43.4145
-40.4584
-39.4126
-39.6448
-40.3144
-36.1978
-36.8232
-36.7977
-36.2953
-40.8184
-34.0131
-40.9306
-37.9297
-40.8957
-41.6304
-41.4702
-41.1525
-62.1186
-61.2494
-58.3634
-43.3341
-28.8867
-16.2025
-9.52307
-32.4206
-53.7839
-49.2722
-51.4057
-50.5414
-60.5432
-59.2418
-57.3785
-67.0423
-49.736
-49.9637
-48.4074
-52.6298
-60.0805
-68.8706
-67.0335
-65.6236
-47.0227
-45.1478
-46.6128
-45.6361
-53.7469
-54.7784
-52.8854
-58.9992
-69.6339
-93.6362
-98.5588
-94.4943
151.337
191.632
176.507
168.736
-71.8672
-58.0862
-63.576
-62.9446
161.717
190.924
173.557
173.557
-63.9428
-65.2609
-71.2561
-60.2726
-53.2984
-56.5834
-59.017
-52.7547
-53.4752
-50.6807
-50.8996
-52.2068
-39.6072
-36.7867
-38.2447
-40.119
-40.987
-41.4692
-41.0735
-41.5645
-29.4074
-27.6615
-30.1678
-26.4275
-42.9751
-44.5982
-42.9889
-44.6438
-41.642
-41.8788
-42.4719
-41.6157
-29.7044
-18.0523
-24.1876
-23.9587
88.1587
150.925
119.895
119.552
-68.3764
-67.2374
-63.8728
-72.7715
-14.3861
-3.43367
-12.8946
-2.55726
-42.7434
-47.8775
-47.114
-46.7954
-37.7652
-34.9931
-35.5237
-36.9112
-49.5606
-47.3731
-50.8722
-47.2092
-55.0316
-55.3449
-56.8868
-53.402
-69.2539
-93.5324
-98.2904
-94.0433
151.456
191.634
168.612
176.411
-63.7782
-65.1054
-71.1004
-60.1248
-54.2319
-56.9279
-59.6217
-52.1952
-49.9463
-48.0756
-49.2366
-47.9732
-35.5148
-31.4314
-32.4876
-36.6525
-41.7169
-43.0796
-41.5451
-43.0068
-41.6407
-41.7736
-43.3268
-40.8896
-68.1313
-67.0278
-72.515
-63.6375
-14.3373
-3.38821
-2.45951
-12.9633
-47.9021
-45.7825
-45.7411
-48.943
-54.3234
-54.8752
-52.7222
-56.345
-41.2748
-42.5863
-42.1591
-41.923
-38.3262
-38.3855
-38.7825
-37.9681
-52.9338
-56.2457
-54.2068
-55.5782
-45.1316
-45.0928
-44.3355
-46.033
-43.5545
-48.2199
-45.1017
-45.8087
-42.0678
-39.8881
-40.6784
-40.6571
-44.5488
-44.3956
-43.8406
-45.3437
-42.6583
-42.7644
-41.76
-43.1972
-35.8761
-36.6972
-36.4543
-36.2653
-43.372
-45.4101
-44.4214
-43.6682
-50.8642
-47.5227
-49.1898
-49.9208
-79.0949
-87.9685
-85.3144
-80.7115
14.3702
19.1234
18.1283
18.1362
-59.3624
-91.6335
-79.0447
-78.9697
-80.7896
-85.1705
-82.6677
-82.5654
-65.1767
-61.2818
-63.1517
-63.0418
-40.4652
-41.9149
-41.5422
-41.2463
-37.6973
-37.9894
-38.3248
-37.3773
-52.7057
-56.0623
-55.3377
-54.0577
-44.8541
-44.4799
-43.8561
-45.5801
-43.7427
-43.7325
-44.562
-43.0839
-41.8652
-41.6619
-40.773
-42.2323
-50.3815
-46.9729
-49.2909
-48.6226
-78.3384
-87.7106
-80.1093
-84.8937
-75.3832
-89.4482
-97.5633
-95.1666
-51.3423
-50.2292
-53.9015
-53.021
-57.0188
-54.0855
-58.7488
-55.9534
-67.0721
-76.5999
-86.0526
-84.9569
-73.6632
-87.9396
-97.3386
-95.3918
-66.8256
-76.5412
-85.6039
-84.9139
-56.5467
-53.6115
-58.3817
-55.598
-51.4687
-50.558
-53.7642
-53.0158
-75.587
-67.6374
-65.5391
-62.6458
-74.9894
-67.322
-64.6579
-62.3853
-44.3151
-42.2431
-46.9836
-44.551
-44.8315
-43.0224
-47.1087
-45.8069
-29.8771
-26.6756
-24.8477
-21.2675
3.58702
6.50266
9.59324
13.9296
3.51849
6.66832
9.78143
14.1145
-30.1901
-25.905
-24.0998
-19.8984
136.33
136.375
166.185
165.763
97.1569
62.3238
126.33
110.719
63.7888
97.7299
111.359
126.212
136.977
136.344
165.712
165.963
-41.9152
-42.5988
-42.5764
-43.2408
-41.8188
-42.8204
-42.1197
-42.9825
-48.282
-49.8601
-47.4378
-49.0701
-50.441
-52.8236
-48.4995
-50.5348
-41.0732
-41.9559
-41.7542
-42.57
-50.0991
-52.3128
-48.0423
-49.8143
-47.5778
-49.1706
-46.6974
-48.3771
-40.8332
-41.9237
-41.2872
-42.2502
-40.4256
-41.5343
-39.8753
-40.7124
-41.9549
-40.2048
-40.4772
-39.5198
-36.5559
-36.8309
-36.6443
-36.8885
-36.3242
-35.2619
-36.5944
-36.2814
-93.6961
-62.6095
-90.9994
-76.7249
-67.9425
-71.4877
-75.3494
-78.3099
-71.0561
-67.564
-78.0096
-74.9047
-62.4564
-93.412
-76.5596
-90.8804
-41.8779
-41.7217
-41.5521
-40.8423
-49.5568
-47.4309
-49.1554
-47.4728
-53.9974
-53.7996
-55.3763
-54.3681
-46.4136
-45.7267
-45.365
-44.7574
-40.9247
-40.7393
-40.523
-39.9262
-45.4751
-44.8788
-44.283
-43.8243
-50.7848
-51.1408
-52.3559
-51.7063
-46.3664
-44.5335
-46.3454
-45.1241
-44.1524
-43.5754
-46.3051
-44.632
-41.4574
-41.411
-42.3256
-42.5116
-40.6987
-41.0838
-41.0384
-41.5745
-42.9539
-42.7502
-42.5493
-43.0602
-61.4579
-62.8953
-59.8878
-62.402
-44.6309
-50.2064
-48.0656
-49.6733
-43.4935
-48.9949
-47.3619
-48.7831
-60.8643
-62.5056
-59.4211
-62.0665
-39.4488
-38.641
-38.3511
-36.3458
-33.0338
-34.5323
-29.3918
-31.9879
-37.7677
-36.9001
-36.2424
-36.3271
-39.744
-39.9023
-39.4883
-39.0139
-44.7765
72.9245
-116.308
12.3214
-80.2892
-98.7221
-56.5907
-48.6223
-47.1629
-48.129
-48.449
-44.2076
-27.7509
27.2375
-23.0534
19.1704
-48.0036
-35.4622
-49.5698
-41.4563
-42.4294
-40.5895
-50.8552
-47.8446
-116.13
11.9345
-43.9896
69.751
-81.2332
-98.4993
-43.3332
-42.8793
-51.808
-43.6535
-45.0423
-41.3902
-22.6507
18.7413
-27.4138
27.1607
-46.9535
-33.998
-40.9032
-38.6046
-46.2045
-38.5243
-48.4647
-46.1817
-34.8436
-40.5673
-42.6879
-43.1147
-47.3391
-43.8604
-42.1211
-44.5583
-42.844
-39.4184
-40.6742
-37.1273
-41.4983
-41.6487
-37.6733
-37.7468
-60.3987
-74.0102
-57.2869
-55.6958
-58.5508
-70.0005
-75.9306
-101.491
-50.1558
-53.01
-49.4382
-49.1361
-52.0989
-56.3433
-58.2394
-56.5991
-38.8889
-41.9637
-42.5833
-44.1444
-42.6573
-43.8165
-49.2113
-43.5517
-40.6918
-37.5931
-36.9183
-36.7646
-39.4663
-37.3574
-39.7765
-40.752
-59.1698
-73.2859
-75.1078
-100.923
-56.5268
-55.9326
-58.6222
-69.1694
-49.4082
-52.3173
-57.6566
-55.9726
-48.8617
-48.4396
-51.4442
-55.7545
-35.3918
74.5297
-31.323
64.1249
-56.9841
-54.9068
106.576
113.572
-102.188
-11.2978
-102.522
-12.2422
-85.0009
-84.5582
42.4394
42.0748
-77.6304
-63.7519
-51.2886
-48.2226
-70.7959
-58.5992
-59.6235
-50.9223
-56.396
-41.6099
-50.3084
-41.2028
-55.4811
-55.8949
-39.4319
-39.758
-43.44
-38.7898
-41.1676
-34.5731
-40.9171
-42.0528
-33.5551
-31.2195
-43.4858
-41.7587
-43.215
-43.3442
-41.7787
-42.8019
-42.1427
-41.3848
-26.713
-20.8324
-26.2817
-18.8859
-29.5624
-29.3811
77.1208
76.8177
-63.9898
-37.1646
-58.3451
-24.4232
-63.4145
-68.8219
-22.604
-9.19654
-40.3691
-40.37
-39.7218
-39.8914
-40.965
-40.6076
-39.1751
-39.661
-52.6052
-52.031
-49.8114
-54.3071
-51.4836
-49.194
-54.8339
-53.5941
-34.609
75.1176
-31
64.3144
-56.7233
-54.7577
113.422
106.8
-77.5578
-63.6509
-51.1867
-47.8927
-70.6842
-58.4589
-60.0256
-50.622
-51.4761
-37.0675
-46.1677
-37.4959
-51.807
-51.2242
-35.5127
-36.4455
-41.3839
-40.7341
-44.2778
-42.0151
-40.8682
-41.4887
-43.1443
-40.9757
-63.7047
-36.9051
-58.0345
-24.1532
-68.5558
-63.1509
-8.94455
-22.372
-50.6827
-50.7361
-48.6337
-53.2537
-47.7944
-49.695
-52.7407
-53.988
-40.0667
-39.0345
-39.0037
-37.2666
-40.8455
-40.3406
-38.6581
-37.4782
-46.654
-44.7255
-48.6086
-47.5817
-49.376
-49.2073
-44.7453
-46.197
-42.7048
-44.5302
-43.5098
-44.9013
-41.8306
-42.1615
-43.5283
-43.8124
-42.9594
-42.4212
-45.0999
-44.5572
-43.6817
-44.8534
-42.4406
-43.4102
-37.2558
-36.6617
-36.9664
-36.3674
-36.453
-36.3346
-39.7055
-39.4748
-56.9625
-64.9049
-54.6889
-59.5591
-51.9782
-53.566
-70.7995
-66.9474
-3.83016
-24.8711
-3.74954
-24.7964
7.02189
6.96671
-42.5084
-42.4617
-73.216
-68.5841
-72.9923
-68.3686
-77.4399
-77.3275
-67.1806
-67.0722
-39.3139
-38.4243
-37.6507
-36.7338
-40.0382
-39.612
-38.091
-37.2302
-46.5295
-44.3555
-48.2735
-47.3802
-48.7977
-49.181
-44.3555
-46.0034
-42.1022
-41.5594
-44.456
-43.8362
-44.0361
-42.8876
-41.6211
-42.7008
-56.4663
-64.4611
-54.3287
-58.886
-52.9513
-51.5645
-66.0573
-70.221
-81.1214
-81.8578
-71.6785
-61.9349
-62.7669
-72.0532
-58.5685
-59.0764
-80.9614
-81.7126
-71.5106
-61.7747
-71.823
-62.5856
-58.931
-58.4159
-61.2474
-61.8368
-61.7511
-53.8607
-62.2139
-53.8729
-50.9663
-51.0128
-12.8309
-12.7819
-9.35706
5.38583
5.52663
-9.41486
13.8148
13.8536
198.654
187.257
197.128
197.234
134.688
134.478