# vtk DataFile Version 2.0
tet_velo
ASCII
DATASET UNSTRUCTURED_GRID
POINTS 29498 float
-0.75462 0.235 -2.315
-0.74635 0.325 2.385
-0.797785 0.715 -2.245
-0.726766 0.865 2.285
0.754605 0.235 -2.315
0.746355 0.325 2.385
0.79779 0.715 -2.245
0.726762 0.865 2.285
-0.783656 0.233207 -0.748334
-0.809353 0.234754 0.818333
-0.844057 0.834945 -0.735
-0.827296 0.891857 0.775
0.783653 0.233202 -0.748334
0.808869 0.235236 0.818333
0.844061 0.834947 -0.735
0.827296 0.891858 0.775
-1.55912 -0.0965249 -3.54845
-1.56103 -0.0573308 -2.31781
-1.5825 -0.0565617 -0.749678
-1.59059 -0.0563604 0.829858
-1.55115 0.00161357 2.39895
-1.54023 0.0401908 3.63429
-1.54625 0.0677361 4.86093
-1.56072 0.177052 -3.53382
-1.56538 0.229621 -2.30937
-1.59385 0.245168 -0.752266
-1.59523 0.245338 0.80994
-1.5291 0.296065 2.36813
-1.52575 0.333121 3.60267
-1.5397 0.361058 4.83116
-1.58055 0.701987 -3.48866
-1.60241 0.753126 -2.26187
-1.63843 0.841704 -0.743393
-1.61337 0.878471 0.771067
-1.52406 0.872557 2.29063
-1.52466 0.90755 3.52751
-1.54279 0.943467 4.76513
-1.59774 1.5636 -3.46352
-1.61108 1.62443 -2.24522
-1.62805 1.7185 -0.745118
-1.62692 1.78252 0.742771
-1.60434 1.80278 2.24347
-1.58865 1.81788 3.46301
-1.58369 1.84235 4.69444
-0.767077 -0.0940884 -3.5521
-0.764129 -0.0528271 -2.32314
-0.781344 -0.0625183 -0.748963
-0.801508 -0.0630444 0.837022
-0.777284 0.0162606 2.41147
-0.76821 0.0502373 3.64279
-0.772018 0.0724836 4.86584
-0.764953 0.175126 -3.53495
-0.756557 0.343324 3.60968
-0.767387 0.365251 4.83487
-0.779101 0.685668 -3.48165
-0.754643 0.907032 3.52639
-0.770566 0.943719 4.76489
-0.791957 1.55265 -3.4566
-0.801093 1.61422 -2.23759
-0.818137 1.71668 -0.740516
-0.828333 1.78614 0.742219
-0.820057 1.80332 2.23952
-0.808418 1.8166 3.45907
-0.803528 1.84115 4.69158
0.790051 -0.0940736 -3.5521
0.776302 -0.0528176 -2.32314
0.792867 -0.0624618 -0.748963
0.796359 -0.0627197 0.837022
0.755671 0.0163859 2.41147
0.760687 0.0503349 3.64279
0.768151 0.0725894 4.86585
0.790136 0.175135 -3.53495
0.755807 0.343389 3.60968
0.765529 0.365344 4.83487
0.805214 0.685675 -3.48165
0.747958 0.907081 3.52639
0.760134 0.943799 4.76489
0.816747 1.55267 -3.4566
0.818333 1.61424 -2.23759
0.810661 1.71671 -0.740516
0.782451 1.78619 0.742219
0.75346 1.80338 2.23952
0.749911 1.81667 3.45907
0.753739 1.84123 4.69158
1.57678 -0.0964853 -3.54845
1.5668 -0.0572935 -2.31781
1.5878 -0.0564248 -0.749678
1.59181 -0.055906 0.829858
1.54646 0.00192815 2.39895
1.5387 0.0404233 3.63429
1.54476 0.0679582 4.86093
1.57671 0.177079 -3.53382
1.56264 0.229638 -2.30937
1.59202 0.245245 -0.752266
1.59998 0.245811 0.80994
1.53726 0.296335 2.36813
1.5304 0.333315 3.60267
1.53987 0.361261 4.83116
1.59714 0.70201 -3.48866
1.59992 0.753139 -2.26187
1.635 0.841734 -0.743393
1.61491 0.87864 0.771067
1.52815 0.872731 2.29063
1.52233 0.907704 3.52751
1.53418 0.943643 4.76513
1.61806 1.56365 -3.46352
1.62238 1.62448 -2.24522
1.61856 1.71857 -0.745118
1.58836 1.78263 0.742771
1.54933 1.80291 2.24347
1.53697 1.81803 3.46301
1.53712 1.84252 4.69444
-0.826542 0.475 -2.33034
-7.51019e-06 0.231275 -2.31872
-0.77032 0.232921 -1.53167
-0.770887 0.595 2.36933
2.5034e-06 0.322095 2.38791
-0.809725 0.248003 1.60167
2.5034e-06 0.786781 -2.31678
-0.840569 0.794621 -1.49
-1.99676e-06 0.930952 2.35095
-0.801928 0.903326 1.53
0.82654 0.475 -2.33034
0.770311 0.232919 -1.53167
0.770886 0.595 2.36933
0.810903 0.246827 1.60167
0.840581 0.794629 -1.49
0.801924 0.903324 1.53
-0.796988 0.233497 0.035
-0.886798 0.534076 -0.741667
-1.34454e-06 0.230563 -0.748334
-0.885673 0.563305 0.796667
-0.000241604 0.230645 0.818333
-0.835701 0.863425 0.0200001
1.74618e-06 1.18361 -0.735
-1.41091e-07 1.40709 0.775
0.796871 0.233609 0.035
0.886802 0.534074 -0.741667
0.885602 0.563547 0.796667
0.83571 0.863434 0.0200001
-0.879551 0.504538 -1.51083
-0.889681 0.548691 0.0275
-0.871345 0.579153 1.56583
-4.42736e-06 0.230451 -1.53167
-0.000121474 0.230632 0.035
-0.00011955 0.230737 1.60167
-2.5034e-06 0.475 -2.51661
2.5332e-07 0.595 2.50848
2.12479e-06 0.910054 -1.49
8.02546e-07 1.40951 0.0200001
-1.06892e-06 1.0119 1.53
0.879549 0.504537 -1.51083
0.889692 0.54881 0.0275
0.871339 0.579273 1.56583
-1.16 0.23231 -2.31219
-0.759375 0.0910865 -2.31907
-0.759786 0.205063 -2.92497
-1.13773 0.310533 2.37657
-0.761817 0.17063 2.39824
-0.751454 0.334162 2.99734
-1.2001 0.734063 -2.25343
-0.788443 0.700334 -2.86333
-0.799439 1.16461 -2.24129
-1.12542 0.868778 2.28781
-0.740704 0.886016 2.90569
-0.773412 1.33416 2.26226
0.765454 0.0910912 -2.31907
0.772371 0.205067 -2.92497
1.15862 0.232319 -2.31219
0.751013 0.170693 2.39824
0.751081 0.334194 2.99734
1.14181 0.310667 2.37657
0.801502 0.700338 -2.86333
0.808062 1.16462 -2.24129
1.19885 0.734069 -2.25343
0.73736 0.88604 2.90569
0.740111 1.33419 2.26226
1.12746 0.868866 2.28781
-1.18875 0.239188 -0.7503
-0.7825 0.0853445 -0.748648
-1.20229 0.240046 0.814137
-0.80543 0.0858549 0.827678
-1.24124 0.838325 -0.739197
-0.831097 1.27581 -0.737758
-1.22033 0.885164 0.773034
-0.827814 1.339 0.75861
0.78826 0.08537 -0.748648
1.18784 0.239223 -0.7503
0.802614 0.086258 0.827678
1.20442 0.240523 0.814137
0.827361 1.27583 -0.737758
1.23953 0.83834 -0.739197
0.804873 1.33902 0.75861
1.2211 0.885249 0.773034
-1.56007 -0.0769279 -2.93313
-1.55992 0.0402633 -3.54113
-1.1631 -0.0953067 -3.55028
-1.57177 -0.0569462 -1.53374
-1.5632 0.086145 -2.31359
-1.16258 -0.0550789 -2.32048
-1.58654 -0.0564611 0.0400899
-1.58817 0.0943031 -0.750972
-1.18192 -0.05954 -0.749321
-1.57087 -0.0273734 1.6144
-1.59291 0.094489 0.819899
-1.19605 -0.0597024 0.83344
-1.54569 0.0209022 3.01662
-1.54013 0.148839 2.38354
-1.16422 0.00893709 2.40521
-1.54324 0.0539634 4.24761
-1.53299 0.186656 3.61848
-1.15422 0.045214 3.63854
-1.54297 0.214397 4.84604
-1.15914 0.0701098 4.86339
-1.56305 0.203336 -2.9216
-1.57063 0.439519 -3.51124
-1.16284 0.176089 -3.53438
-1.57961 0.237394 -1.53082
-1.58389 0.491373 -2.28562
-1.59454 0.245253 0.0288369
-1.61614 0.543436 -0.74783
-1.56216 0.270702 1.58904
-1.6043 0.561905 0.790504
-1.52743 0.314593 2.9854
-1.52658 0.584311 2.32938
-1.53272 0.34709 4.21692
-1.5252 0.620336 3.56509
-1.14115 0.338223 3.60618
-1.54124 0.652263 4.79815
-1.15354 0.363155 4.83301
-1.59148 0.727556 -2.87526
-1.58915 1.13279 -3.47609
-1.17983 0.693827 -3.48516
-1.62042 0.797415 -1.50263
-1.60674 1.18878 -2.25354
-1.6259 0.860088 0.013837
-1.63324 1.2801 -0.744255
-1.56871 0.875514 1.53085
-1.62014 1.3305 0.756919
-1.52436 0.890053 2.90907
-1.5642 1.33767 2.26705
-1.53372 0.925509 4.14632
-1.55665 1.36271 3.49526
-1.13965 0.907291 3.52695
-1.56324 1.39291 4.72979
-1.15668 0.943593 4.76501
-1.60441 1.59402 -2.85437
-1.19485 1.55813 -3.46006
-1.61957 1.67147 -1.49517
-1.20609 1.61933 -2.2414
-1.62748 1.75051 -0.00117321
-1.22309 1.71759 -0.742817
-1.61563 1.79265 1.49312
-1.22762 1.78433 0.742495
-1.5965 1.81033 2.85324
-1.2122 1.80305 2.24149
-1.58617 1.83011 4.07872
-1.19853 1.81724 3.46104
-1.19361 1.84175 4.69301
-0.765603 -0.0734577 -2.93762
-0.766015 0.0405188 -3.54352
0.0114869 -0.094081 -3.5521
-0.772736 -0.0576727 -1.53605
0.0060866 -0.0528223 -2.32314
-0.791426 -0.0627813 0.0440295
0.00576145 -0.0624901 -0.748963
-0.789396 -0.0233919 1.62425
-0.00257422 -0.062882 0.837022
-0.772747 0.033249 3.02713
-0.0108065 0.0163233 2.41147
-0.770114 0.0613605 4.25432
-0.762384 0.196781 3.62624
-0.00376149 0.0502861 3.64279
-0.769703 0.218867 4.85036
-0.00193398 0.0725365 4.86585
-0.772027 0.430397 -3.5083
0.0125916 0.17513 -3.53495
-0.761972 0.354288 4.22227
-0.7556 0.625178 3.56803
-0.00037505 0.343356 3.60968
-0.768977 0.654485 4.79988
-0.000928909 0.365298 4.83487
-0.785529 1.11916 -3.46912
0.0130568 0.685671 -3.48165
-0.762605 0.925375 4.14564
-0.78153 1.36182 3.49273
-0.00334218 0.907056 3.52639
-0.787047 1.39244 4.72824
-0.00521606 0.943759 4.76489
-0.796525 1.58344 -2.84709
0.0123948 1.55266 -3.4566
-0.809615 1.66545 -1.48905
0.00862009 1.61423 -2.23759
-0.823235 1.75141 0.000851414
-0.00373821 1.71669 -0.740516
-0.824195 1.79473 1.49087
-0.0229409 1.78616 0.742219
-0.814238 1.80996 2.8493
-0.0332989 1.80335 2.23952
-0.805973 1.82888 4.07532
-0.0292532 1.81664 3.45907
-0.0248948 1.84119 4.69158
0.783177 -0.0734456 -2.93762
0.790093 0.0405306 -3.54352
1.18342 -0.0952794 -3.55028
0.784584 -0.0576397 -1.53605
1.17155 -0.0550555 -2.32048
0.794613 -0.0625907 0.0440295
1.19033 -0.0594433 -0.749321
0.776015 -0.0231669 1.62425
1.19409 -0.0593128 0.83344
0.758179 0.0333604 3.02713
1.15107 0.00915703 2.40521
0.764419 0.0614621 4.25432
0.758247 0.196862 3.62624
1.14969 0.0453791 3.63854
0.76684 0.218967 4.85036
1.15645 0.0702738 4.86339
0.797675 0.430405 -3.5083
1.18342 0.176107 -3.53438
0.760668 0.354366 4.22227
0.751883 0.625235 3.56803
1.1431 0.338352 3.60618
0.762832 0.654572 4.79988
1.1527 0.363302 4.83301
0.81098 1.11917 -3.46912
1.20118 0.693842 -3.48516
0.754046 0.92544 4.14564
0.748935 1.36188 3.49273
1.13514 0.907392 3.52695
0.756936 1.39252 4.72823
1.14716 0.943721 4.76501
0.81754 1.58346 -2.84709
1.2174 1.55816 -3.46006
0.814497 1.66548 -1.48905
1.22036 1.61936 -2.2414
0.796556 1.75145 0.000851318
1.21461 1.71764 -0.742817
0.767955 1.79478 1.49087
1.18541 1.78441 0.742495
0.751685 1.81003 2.8493
1.1514 1.80315 2.24149
0.751825 1.82895 4.07532
1.14344 1.81735 3.46104
1.14543 1.84188 4.69301
1.57179 -0.0768894 -2.93313
1.57675 0.0402967 -3.54113
1.5773 -0.0568591 -1.53374
1.56472 0.0861721 -2.31359
1.5898 -0.0561654 0.0400899
1.58991 0.09441 -0.750972
1.56914 -0.0269889 1.6144
1.5959 0.0949527 0.819899
1.54258 0.0211757 3.01662
1.54186 0.149132 2.38354
1.54173 0.0541907 4.24761
1.53455 0.186869 3.61848
1.54231 0.214609 4.84604
1.56967 0.203358 -2.9216
1.58693 0.439544 -3.51124
1.57733 0.237441 -1.53082
1.58128 0.491388 -2.28562
1.596 0.245528 0.0288368
1.61351 0.543489 -0.74783
1.56862 0.271073 1.58904
1.60745 0.562226 0.790504
1.53383 0.314825 2.9854
1.53271 0.584533 2.32938
1.53513 0.347288 4.21692
1.52636 0.62051 3.56509
1.53703 0.652452 4.79815
1.59853 0.727574 -2.87526
1.6076 1.13283 -3.47609
1.61746 0.797437 -1.50263
[...]
POINT_DATA 29498
VECTORS point_vectors float
-1.99658 -4.24497 8.33537
0.197057 0.4551 1.98183
-3.66426 2.50432 5.69831
0.0128642 -0.11566 0.261389
1.97469 -4.29016 8.39868
-0.182858 0.430305 1.88867
3.69141 2.55936 5.71941
-0.0183866 -0.0864423 0.234571
0.0126423 -0.00049126 0.34189
-0.000171797 -0.00137931 0.582018
-0.0144411 -0.0105604 0.229155
0.00415187 0.00977398 0.0339033
-0.0127204 -0.000525503 0.341641
-0.000619354 -0.00203691 0.553587
0.0144085 -0.0105434 0.229812
-0.00417837 0.00982844 0.0338483
-0.499715 -0.202609 19.8789
-1.14578 -0.602094 20.5073
-0.413688 -0.396005 21.2605
0.0669628 -0.073396 21.4701
0.637462 0.257031 21.3517
0.772519 0.250926 21.0583
1.0143 0.15664 20.4425
-0.556966 -0.142162 19.8193
-1.4893 -0.528693 20.4718
-0.519558 -0.470384 21.3124
0.0890186 -0.142773 21.5444
0.8321 0.1085 21.4077
0.999537 0.0642255 21.4217
1.08992 -0.0599343 21.1791
-0.614165 0.0293571 19.7722
-1.65155 0.0356895 20.3949
-1.01853 -0.346308 21.2881
-0.131705 -0.287589 21.6384
0.73518 -0.32188 21.4546
1.03724 -0.349639 20.9615
0.789841 -0.278945 20.8481
-0.453482 0.255907 19.914
-0.930819 0.513056 20.3288
-0.940283 0.323543 21.0954
-0.285678 -0.0434242 21.5242
0.218287 -0.324359 21.3311
0.39371 -0.422423 20.9881
0.345047 -0.28862 20.8185
-0.482602 -0.472721 19.3794
-1.94288 -3.25936 20.9686
-0.156627 -0.270039 20.446
0.0271144 0.12909 19.8355
0.464904 1.23431 18.1792
0.743803 1.42916 18.5589
0.796171 1.08156 17.8606
-0.599872 -0.3627 19.1285
1.49259 1.48292 12.6209
1.79414 0.894141 13.3588
-0.721163 0.125382 18.9386
1.70455 -0.269398 10.3672
1.34198 -0.146763 15.0672
-0.430297 0.54664 19.5114
-1.13111 1.61614 20.0083
-1.70662 1.64489 21.0925
-0.444459 0.189859 22.0358
0.15562 -0.61871 21.5286
0.306058 -0.858868 20.9768
0.382532 -0.82139 20.2818
0.489998 -0.462962 19.3994
1.95691 -3.19389 20.9581
0.159695 -0.271823 20.5515
-0.0312016 0.129211 19.7807
-0.407816 1.15514 17.7277
-0.72273 1.34535 18.747
-0.974242 1.068 16.4563
0.608082 -0.353701 19.1329
-1.28497 1.52611 12.0283
-1.49568 0.91583 13.148
0.71873 0.126039 18.9649
-1.71467 -0.181034 9.88767
-1.11629 -0.0948544 14.3987
0.441785 0.537526 19.5207
1.14631 1.58882 20.0155
1.71182 1.67151 21.0867
0.442337 0.220496 22.078
-0.137828 -0.631053 21.5486
-0.323723 -0.856289 20.9155
-0.512123 -0.807828 20.0513
0.489924 -0.202461 19.8704
1.13012 -0.598886 20.5181
0.40895 -0.405089 21.2548
-0.0684217 -0.0812551 21.4524
-0.62226 0.245532 21.3368
-0.816137 0.29841 20.9838
-0.930554 0.16141 20.4542
0.544758 -0.141961 19.8176
1.49289 -0.528308 20.4632
0.520632 -0.471912 21.3114
-0.0879675 -0.144095 21.5391
-0.792824 0.0928638 21.4016
-0.98393 0.159492 20.8472
-0.840919 -0.0108803 20.9468
0.604855 0.02956 19.7738
1.65554 0.0392827 20.3897
1.01979 -0.345325 21.2876
0.129439 -0.283574 21.6316
-0.714606 -0.31065 21.4964
-1.00208 -0.365374 20.8567
-0.84262 -0.243389 20.8505
0.44936 0.248773 19.9222
0.925376 0.50635 20.3306
0.947009 0.329627 21.0962
0.297859 -0.0418664 21.5419
-0.221186 -0.331209 21.3407
-0.377845 -0.435009 20.9835
-0.348858 -0.320868 20.8777
-1.72654 -0.378286 2.94503
-0.000142946 -0.0786571 0.488285
0.0125485 -0.0027107 0.184023
0.0695997 -0.04248 0.27137
-0.00674468 0.00768602 0.0453439
-0.00661964 0.108209 1.15227
0.000270981 0.20432 0.539439
-0.152809 -0.136091 0.618639
-0.0305972 0.172778 -0.163051
0.0643453 0.0588948 0.350561
1.72015 -0.378325 2.93853
-0.012519 -0.00271688 0.183676
-0.0605572 -0.0346038 0.245647
0.00715745 0.112418 1.20279
0.153168 -0.136392 0.620113
-0.0674153 0.063034 0.349898
-0.000753457 0.000616512 0.225427
-0.000606668 -9.48033e-05 0.121555
6.20564e-09 4.1108e-09 -1.33108e-05
7.62824e-05 0.00122649 0.00662992
-3.44276e-07 -2.71305e-08 0.000201356
0.0462462 0.0806657 0.210512
7.36406e-05 0.140067 0.254788
-7.66324e-07 -0.000281004 0.00935852
0.000587012 0.000600008 0.226961
0.000603921 -0.00013083 0.121646
-1.78306e-05 0.000294954 0.00159113
-0.0462645 0.0807063 0.210782
0 0 0
-0.000638063 0.0157606 0.103159
0.0118272 0.0296498 0.246696
6.16471e-10 1.73541e-09 -1.57458e-06
-1.73683e-08 -1.5175e-08 2.28325e-05
-0.000177585 0.00112221 0.0337387
-0.000115148 -0.147681 0.146876
-0.0183767 0.0472894 -0.0481124
2.35922e-06 2.78963e-05 0.000984572
0 0 0
0 0 0
0 0 0
0.000621899 0.0161981 0.10451
-0.0119089 0.0310688 0.248545
-2.80453 -1.41385 20.598
-3.03683 -4.95636 21.3978
-1.81234 -1.39915 18.0176
1.31669 0.6561 19.5298
0.406583 1.24893 11.8167
0.781753 1.20635 9.21602
-3.26378 0.31208 20.3874
-2.33193 0.749767 17.4561
-2.51105 2.73221 19.9079
1.25378 -0.201371 18.6161
0.750404 -0.102417 6.17805
0.828056 -0.463644 15.8617
3.06504 -4.8892 21.3812
1.82264 -1.3736 18.0439
2.80996 -1.42252 20.5933
-0.350378 1.15478 11.3352
-0.5945 1.1125 8.87807
-1.25728 0.621419 19.4804
2.3317 0.737299 17.5147
2.52105 2.69057 19.9183
3.26976 0.313391 20.3888
-0.696334 0.175317 5.84959
-0.89764 -0.433118 15.0103
-1.22749 -0.175706 18.6099
-0.294176 -0.754698 21.1976
0.246842 -0.0913811 15.1255
0.202872 -0.0520974 20.7936
0.0783062 0.124806 14.5371
-1.66883 -0.913469 21.4502
-3.97256 1.59055 21.0622
-0.102966 -0.429141 20.3801
-0.222036 0.269489 17.8276
-0.246724 -0.0953485 15.2817
0.294603 -0.754677 21.1903
-0.0828568 0.124787 14.4407
-0.201892 -0.0567729 20.8079
3.98906 1.61465 21.0426
1.67027 -0.921492 21.4462
0.043944 0.426824 16.5478
0.100919 -0.429256 20.3993
-0.874404 -0.417528 19.9921
-0.54018 -0.178985 19.8417
-0.549409 -0.344966 19.6448
-0.761085 -0.513056 21.0628
-1.29633 -0.573092 20.4902
-1.68142 -1.37078 20.5839
-0.154906 -0.245748 21.3908
-0.466843 -0.420773 21.2789
-0.272493 -0.474003 21.4253
0.342295 0.102216 21.4654
0.0706297 -0.0981926 21.4876
0.107984 0.0093245 21.5387
0.750177 0.288137 21.2331
0.740572 0.190942 21.3948
0.877253 0.663949 21.1903
0.798916 0.253717 20.5438
0.879361 0.157882 21.2504
1.05439 0.749739 20.9107
1.15505 0.0678384 20.8222
0.878693 0.640838 21.3424
-1.09053 -0.320307 19.8794
-0.591797 -0.0717961 19.7795
-0.644979 -0.263907 19.5034
-0.959312 -0.52142 21.105
-1.5913 -0.248767 20.4528
-0.200894 -0.319571 21.4437
-0.751797 -0.476339 21.2976
0.447839 -0.00400359 21.5795
0.0112955 -0.2547 21.6233
0.995644 0.124441 21.2507
0.857559 -0.128279 21.4652
0.915922 0.117729 20.6562
1.09512 -0.1386 21.4853
1.5994 0.643221 19.5104
0.931804 -0.24569 21.095
1.2253 0.401126 19.0115
-1.19701 0.0654805 19.8213
-0.568431 0.181719 19.8005
-0.728553 0.04724 19.403
-1.31875 -0.199079 20.9879
-1.31945 0.395138 20.3344
-0.582941 -0.341873 21.5456
-1.16646 0.0467334 21.2007
0.338868 -0.266445 21.6406
-0.266316 -0.173324 21.6135
0.921334 -0.350827 21.2202
0.437094 -0.416717 21.3697
0.765446 -0.427607 20.9583
0.629873 -0.475154 20.958
1.49927 -0.536596 19.536
0.49914 -0.313899 20.6653
0.941026 -0.518872 19.8147
-0.728384 0.4323 20.0263
-0.496764 0.381888 19.7212
-1.00394 0.450224 20.724
-1.14369 0.940951 20.1912
-0.656639 0.148258 21.4116
-1.35784 0.743039 21.1515
0.031223 -0.203852 21.4821
-0.394214 0.036375 21.7345
0.310219 -0.413196 21.2112
0.232608 -0.465314 21.4045
0.48806 -0.559917 20.7808
0.426247 -0.647892 20.9479
0.391567 -0.502029 21.105
-1.19721 -1.49591 19.0163
-0.547728 -0.422217 19.2501
0.0120353 -0.631719 19.0808
-0.616398 -0.817518 21.4778
0.00561119 -4.41289 21.6826
-0.0410995 -0.0497619 20.0012
-0.00185131 -0.422512 18.8745
0.185684 0.579114 18.7102
-0.00764569 -0.0689942 17.1265
0.645122 1.39704 18.4476
-0.0938296 0.654683 13.9479
0.844422 1.02485 18.411
1.20677 1.56398 15.4869
-0.278058 1.02949 15.0444
1.58759 1.05267 14.6347
-0.106752 0.91494 13.7569
-0.665931 -0.175365 18.9889
0.00984486 -0.506725 18.7364
1.79313 1.12049 13.6899
1.91896 0.815404 9.67929
0.277214 -1.26121 -0.0752877
1.78434 0.465039 12.4666
0.208933 0.809361 8.89935
-0.588378 0.447077 19.1909
0.0137183 0.157472 18.3728
1.75422 -0.336592 12.5205
0.972375 -0.996577 18.05
0.490082 -0.734647 -2.27544
0.496338 -0.896935 19.1888
0.0867394 -0.740571 2.07692
-0.809528 1.15264 19.4916
0.00434663 0.740717 19.2666
-1.34911 1.52403 20.5111
0.0111858 2.41658 19.8099
-1.21107 0.950956 22.0266
-0.01813 3.69787 20.6415
-0.0340913 -0.349547 21.8412
-0.0270095 0.526979 22.5227
0.251185 -0.774611 21.339
-0.00944845 -0.609063 21.2252
0.346633 -0.742412 20.2381
0.0321055 -0.928601 20.0453
-0.0145963 -0.729486 20.5279
1.20764 -1.4635 19.0441
0.553038 -0.412455 19.2666
0.546555 -0.343049 19.6613
0.628309 -0.822004 21.5383
1.66281 -1.34937 20.5787
0.0385185 -0.0466412 20.0142
0.271815 -0.474216 21.4159
-0.186084 0.566159 18.5819
-0.112368 0.00751693 21.528
-0.5423 1.27315 18.0586
-0.848567 0.654271 21.1217
-0.759841 1.14994 17.684
-1.0463 1.55941 15.2787
-1.06683 0.713084 20.971
-1.25583 1.17069 13.9292
-0.739032 0.596909 20.9091
0.678676 -0.173932 19.0136
0.649399 -0.263242 19.5183
-1.63351 1.22681 12.6
-1.75998 0.929863 8.7734
-1.55713 0.590904 19.6767
-1.35857 0.485071 12.3216
-1.18426 0.177036 19.7087
0.596908 0.436251 19.212
0.738126 0.0461828 19.4235
-1.76734 -0.293724 12.088
-0.988074 -0.96388 17.9244
-1.47369 -0.496471 19.6769
-0.576545 -0.852469 19.1399
-1.13369 -0.6329 19.2161
0.817571 1.12904 19.5097
0.497606 0.374559 19.7304
1.3519 1.51565 20.5127
1.14179 0.921302 20.1962
1.21656 1.00685 22.0545
1.36823 0.756997 21.1524
0.0432094 -0.352966 21.8756
0.39914 0.0484152 21.7671
-0.254587 -0.766778 21.3663
-0.233236 -0.483499 21.3996
-0.271734 -0.791943 20.3604
-0.457028 -0.681674 21.1118
-0.415521 -0.544309 20.9734
0.861227 -0.413692 19.9856
0.526209 -0.183052 19.8394
0.757719 -0.522797 21.0544
1.28434 -0.570948 20.5003
0.149156 -0.252219 21.3883
0.465255 -0.427799 21.2761
-0.345526 0.0972363 21.4616
-0.0701218 -0.1045 21.4745
-0.747142 0.286982 21.1844
-0.715254 0.177051 21.3829
-0.758829 0.229973 20.8565
-0.897214 0.2282 20.9171
-0.870879 0.0946876 20.751
1.0775 -0.316996 19.8714
0.587148 -0.0648553 19.7779
0.959404 -0.525194 21.1017
1.59776 -0.249308 20.4507
0.200003 -0.322663 21.4387
0.754017 -0.47993 21.2997
-0.437316 -0.00603815 21.5612
-0.00858367 -0.252298 21.611
-0.945933 0.116988 21.2038
-0.820345 -0.127183 21.4837
-1.00857 0.11586 20.6134
-1.06275 -0.0489918 20.7837
-0.827858 -0.104864 21.1105
1.18687 0.0667074 19.8226
0.560241 0.176411 19.809
1.32067 -0.196336 20.9869
1.31241 0.393543 20.3353
0.581498 -0.338534 21.5403
1.17418 0.0470411 21.201
-0.338192 -0.258684 21.6212
0.271282 -0.17913 21.6203
-0.882483 -0.336038 21.2268
-0.436481 -0.407429 21.3942
-0.904439 -0.385976 21.1761
-0.607471 -0.487969 21.0784
-0.607439 -0.270645 20.8
0.72203 0.421299 20.0337
1.00359 0.449263 20.7227
0.671961 0.156907 21.4184
-0.0328825 -0.208818 21.4919
-0.310451 -0.411453 21.2393
-0.580653 -0.57429 20.751
-0.980495 -0.380261 19.9466
-1.46045 -1.51731 18.5808
-1.1482 -0.811311 19.6245
-1.53161 -0.676515 19.2847
-0.598005 -0.315943 19.5717
-2.19119 -1.48724 20.6123
-0.852403 -0.514292 21.0751
-0.0560746 -0.356624 16.6282
-0.749301 -0.798695 21.3868
-0.98166 -1.0006 21.6249
-0.257579 -0.590111 21.4368
-0.176447 -0.27362 21.4101
0.0932874 0.0541247 14.6107
-0.0559291 -0.222517 21.4874
0.0193665 -0.383938 20.881
0.170249 -0.0192145 21.3125
0.397104 0.0586033 21.5097
0.0956052 0.542592 12.678
0.45261 0.357548 21.5011
0.689665 0.341414 20.4179
1.12075 0.690655 20.7765
0.88336 0.2116 21.2135
0.761837 1.4492 14.0436
1.01228 0.772693 20.9084
1.50581 0.649009 19.9233
1.26422 0.746923 20.5671
0.911294 0.183137 20.7566
1.53985 1.07149 15.1347
0.990731 0.577924 21.457
1.29754 0.504381 20.9814
1.11943 0.563512 20.1841
-1.16039 -0.135288 19.8299
-2.23987 -0.452032 17.4095
-1.80309 0.225425 19.1385
-0.716319 -0.113507 19.4218
-3.39462 -0.634475 20.5011
-1.16182 -0.416055 21.0902
-2.02424 -0.487811 21.2968
-0.783381 -1.05063 21.0448
-0.357098 -0.398966 21.512
-0.805863 -0.826283 21.0152
0.205297 -0.19262 20.2099
0.428986 -0.151154 21.6234
0.664589 -0.16841 19.5338
1.44737 0.2632 18.4651
1.03983 -0.126411 21.3532
0.896836 0.556068 5.81434
1.44349 -0.406742 19.2596
1.77872 0.161656 18.9104
0.871322 -0.0988518 20.6619
1.90294 0.779414 13.0449
1.44779 -0.595695 19.7343
1.21324 -0.0299562 18.1289
-0.983348 0.331851 19.9004
-1.45559 1.39137 18.7176
-0.841202 0.709659 19.8003
-0.635244 0.300134 19.5407
-2.00717 1.02566 20.1873
-1.27763 0.213414 20.8255
-2.54609 1.61919 20.6356
-1.28688 0.867111 20.6654
-2.01803 0.26699 21.34
-0.750073 -0.0910653 21.5193
-1.98224 0.0576097 20.1737
-0.957164 0.406236 21.6574
-0.466755 -0.179305 21.9559
0.14944 -0.302055 21.5401
0.711014 -0.110612 16.3309
0.00843319 -0.271928 21.6162
0.50601 -0.667344 21.3504
0.578431 -0.464714 21.2052
0.832052 -0.731191 17.066
0.333388 -0.566327 21.2765
0.757045 -0.837692 21.3364
0.572695 -0.598532 20.9546
0.930909 -0.97868 19.5539
0.301596 -0.532666 21.0308
0.499972 -0.572159 19.9851
1.46761 -1.4841 18.6164
0.0165421 -2.28963 18.2984
0.0181034 -2.33357 16.4278
0.0114161 -0.591108 18.8824
-0.00541219 -5.85983 23.2098
0.0613064 -0.365139 16.8506
0.000362842 -1.04738 20.9856
-0.00445904 -0.0987395 10.7514
-0.09489 0.0554252 14.626
-0.00457012 -0.225721 17.735
-0.00806508 -0.0129557 9.55316
-0.102324 0.519559 12.4624
-0.0196803 0.267574 15.3646
-0.191897 0.419019 6.05416
-0.658044 1.31701 13.6501
-0.213097 0.598231 13.9874
-0.357217 -0.610824 -1.01884
-0.181697 0.00746748 6.1894
-1.16245 1.26994 14.7187
-0.107619 1.33001 13.8999
0.147691 0.278657 4.4099
0.113603 0.910712 10.9844
2.25129 -0.436684 17.466
0.0248396 1.55991 15.0657
0.0143413 -0.225207 18.4607
-0.644108 0.692346 5.38578
0.00807361 -0.286211 -1.79983
1.03899 -2.10949 -4.31163
-1.88999 0.782388 11.6149
-0.216351 -1.58079 -1.45443
0.29762 0.528981 5.39668
1.46105 1.36433 18.7458
0.00802517 1.6137 19.1606
0.0140607 0.634968 18.7881
0.0166532 4.6831 19.609
2.54349 1.61132 20.6362
0.00319482 2.4632 20.1967
-0.0145018 6.03254 16.9519
1.92412 0.0909569 19.6507
-0.038849 2.24068 22.7437
0.00795178 -0.0661727 5.2011
-0.813505 -0.0350483 15.1438
-0.013551 -0.244646 21.8064
-0.0572201 -0.175478 3.25338
-0.862098 -0.661063 16.5194
-0.0085639 -0.795013 21.119
-0.130741 -0.956276 8.31784
-0.847838 -1.03112 19.2278
0.141209 -1.02232 18.7932
-0.0440575 -1.02049 14.3609
0.961065 -0.378657 19.9384
1.13201 -0.793051 19.6522
1.51587 -0.666879 19.3054
0.595692 -0.313903 19.5803
2.181 -1.47213 20.6079
0.850211 -0.521854 21.0696
0.747991 -0.79491 21.3745
0.984392 -1.00155 21.626
0.262475 -0.588813 21.4316
0.170916 -0.277494 21.4081
0.0564803 -0.223518 21.4821
-0.0174898 -0.38481 20.8805
-0.170793 -0.0195877 21.2998
-0.394018 0.0559766 21.5024
-0.449029 0.356603 21.4712
-0.681785 0.330092 20.4405
-1.08096 0.673215 20.6304
-0.854946 0.206021 21.1972
-0.964892 0.737402 20.9188
-1.4068 0.62865 19.8646
-1.26133 0.693437 20.5674
-0.958758 0.237386 20.6959
-0.979647 0.798927 20.9654
-1.598 0.601289 19.5494
-0.932403 0.496727 20.1681
1.15058 -0.13393 19.8342
1.7779 0.215437 19.1713
0.722129 -0.111195 19.4409
3.40811 -0.63557 20.5003
1.16921 -0.416134 21.0906
2.02687 -0.492065 21.3012
0.781745 -1.05369 21.0216
0.356816 -0.397861 21.5122
0.804043 -0.829207 21.0106
-0.202557 -0.197855 20.2357
-0.424084 -0.147609 21.6057
-0.665666 -0.162414 19.5578
-1.39192 0.265533 18.4455
-0.996656 -0.106339 21.2385
-1.3836 -0.340738 19.1703
-1.76084 0.167518 19.2432
-0.943568 -0.190848 20.732
-1.31457 -0.494073 19.5981
-1.22104 -0.144645 19.4457
0.972774 0.326245 19.9076
0.837823 0.689507 19.8134
0.631022 0.294459 19.5573
1.99265 1.00651 20.191
1.27607 0.214334 20.8256
1.2852 0.861737 20.6656
2.03212 0.272042 21.3383
0.759036 -0.0948774 21.524
0.973651 0.431899 21.6759
0.476804 -0.181748 21.9607
-0.154221 -0.308087 21.5398
-0.0119374 -0.28184 21.6284
-0.520882 -0.662104 21.2263
-0.5839 -0.45012 21.2021
-0.332176 -0.590425 21.2439
-0.793922 -0.821992 21.1204
-0.664428 -0.571509 21.1062
-0.246373 -0.549336 21.1066
-0.45849 -0.558955 19.9744
-1.35094 -0.789534 19.4401
-0.837941 -0.889636 21.4935
0.00208289 -0.289719 21.3447
0.58353 0.36194 21.118
1.27473 0.775938 20.4432
1.16832 0.525722 21.2129
-1.78185 -0.27066 19.1251
-1.48662 -0.951606 21.5447
-0.176968 -0.669462 20.5231
0.794038 0.18564 19.4891
1.68708 0.130759 19.3843
1.44035 0.135039 20.3192
-1.31676 0.687172 19.4872
-1.94567 0.548729 20.8249
-1.26094 -0.0279678 21.8933
0.159634 -0.439534 21.7793
0.677087 -0.764413 21.0847
0.869761 -0.752781 20.4371
0.0169136 -2.47265 17.4657
-0.00329937 -0.322676 12.8714
-0.00473414 -0.0613113 9.90222
-0.0258485 0.1917 8.07285
-0.446853 0.0528972 6.26245
0.0733286 1.04188 10.0558
0.0206996 -0.707906 15.1623
0.211321 -0.860342 -3.62951
0.094996 -0.874251 -1.62704
0.0195626 2.32553 17.7632
0.00524203 3.3139 20.0166
-0.00786571 0.185468 3.4241
-0.0062733 0.259996 2.13753
-0.133915 -0.356937 6.16143
0.0406542 -1.25074 10.0154
1.34162 -0.776879 19.4554
0.842985 -0.886946 21.4833
5.47442e-05 -0.290461 21.342
-0.578979 0.358951 21.0777
-1.20337 0.741341 20.3996
-1.25924 0.733605 20.4506
1.76147 -0.267887 19.1559
1.48968 -0.955001 21.5459
0.178311 -0.671943 20.5228
-0.78841 0.179885 19.528
-1.58698 0.165981 19.2697
-1.59455 0.217911 19.6133
1.30158 0.662586 19.5033
1.94011 0.546116 20.824
1.28061 -0.0274071 21.9086
-0.173678 -0.448215 21.7436
-0.667897 -0.749521 20.9917
-0.778111 -0.765632 20.3262
-1.24413 -0.479212 1.6509
-0.012105 -0.125049 0.675789
0.0131282 -0.0115721 0.424799
0.125303 0.011482 0.349366
-0.0181334 0.0169247 0.051802
0.0371688 0.135246 1.1478
-0.00693838 0.00138757 0.00700849
-0.0809813 0.430466 0.670857
-0.0458329 -0.00839644 0.215889
0.0933556 -0.0340617 0.330778
-0.0459663 0.0536456 -0.035335
0.0336936 0.012919 0.261986
0.0122595 -0.123672 0.672648
1.23976 -0.478187 1.64634
-0.0130159 -0.0115723 0.424263
0.0147035 0.0129728 0.0387861
-0.11191 0.0115216 0.324145
-0.0394137 0.131948 1.12676
0.0799994 0.426717 0.667426
0 0 0
0.0461934 -0.00847881 0.21738
0.0293495 0.0937158 -0.0528023
-0.084562 -0.0235812 0.308655
-0.0378315 0.0173698 0.259795
0.0179266 -0.00183537 0.362068
0.00579069 -0.000705855 0.430164
0 0 0
0 0 0
-0.0226251 0.0270816 0.873679
-0.00952569 0.013754 0.621448
-0.016359 0.0234338 0.143091
-3.59181e-18 4.86272e-19 -1.58956e-16
-0.284843 -0.206861 0.685623
-4.36125e-05 0.000847216 0.0213021
0.0280654 0.0616948 0.265771
-0.0456967 0.0330817 0.0802488
0.00764519 0.00901263 0.038789
0.00121481 0.00640639 0.0235707
0.0201048 0.0506134 0.15943
0.031235 0.00477086 0.224699
-0.0179857 -0.00186958 0.362286
0 0 0
-0.00591414 -0.000726655 0.431088
0 0 0
0.0215857 0.0255975 0.867114
0 0 0
0.00932728 0.0136286 0.616944
0.0163545 0.023729 0.14288
0.284787 -0.206851 0.685871
0.0456437 0.0330565 0.0802159
4.48091e-05 0.000871122 0.0219213
-0.0280263 0.0616356 0.266096
-0.00753397 0.00891374 0.0378264
-0.0315546 0.00486484 0.225533
-0.00112173 0.00591957 0.0216468
-0.0202036 0.0508953 0.160144
-0.00721109 -0.00353561 0.147496
-0.0266603 0.00416397 0.0223576
-7.7995e-08 -3.08007e-06 0.000231469
-0.000196846 -0.334697 0.111504
-0.000563231 -0.0219252 0.367616
8.80707e-07 -3.49167e-08 1.6714e-05
0.00766861 0.00445107 0.0699671
-0.109024 0.0364021 -0.0361916
-8.9539e-05 0.000296365 0.00279112
-0.0050035 -0.00527262 -0.00196366
-1.49615e-05 -7.92084e-06 -0.00019503
0.000210425 0.00354811 0.104166
0.000294887 0.523438 0.221931
1.16579e-06 0.00390195 0.0294006
0 0 0
-0.00126237 0.000168556 0.00308609
-0.0010158 0.00312114 -0.000991736
-0.000700833 0.00110885 -0.0239225
0.00137071 0.00242934 0.0158457
0 0 0
0.0251808 0.00396992 0.021135
0.00740173 -0.0036116 0.151653
-9.35715e-07 -3.53838e-08 1.76279e-05
0.00062109 -0.0217017 0.363554
0.125589 0.0818861 -0.0802892
-0.00752422 0.00488746 0.0684607
-0.000948467 0.00358511 0.105517
0 0 0
0.00124666 0.000166763 0.00305222
0 0 0
-5.45527e-18 -2.23463e-18 8.52174e-18
-0.00141826 0.00259292 0.0161858
0 0 0
0 0 0
-0.00012375 -0.0139065 0.103686
-0.00031941 0.00902227 0.0826195
-4.75343e-08 9.83654e-08 0.000114929
-4.30933e-09 -8.00154e-09 7.79047e-06
-0.00154934 0.0359955 0.212153
0.00188961 0.00965087 0.0770658
1.93074e-08 9.48438e-09 -1.79619e-05
-1.59248e-07 7.02847e-08 5.52875e-05
0.00105201 0.0108665 0.0409022
0.0307998 0.0398107 0.381799
0 0 0
-8.87134e-05 0.193272 0.670406
0 0 0
0.000167043 0.00241168 -0.0013845
0 0 0
4.47102e-19 4.91625e-18 4.56868e-17
8.92098e-05 -0.0135324 0.100368