# vtk DataFile Version 2.0
tet_velo
ASCII
DATASET UNSTRUCTURED_GRID
POINTS 29498 float
-0.795965 0.195 -2.165
-0.803308 0.425 2.285
-0.745 0.608037 -2.155
-0.825 0.765 2.24704
0.788804 0.195 -2.165
0.805 0.425 2.28559
0.735 0.605 -2.1606
0.828562 0.765 2.245
-0.805816 0.264263 -0.681667
-0.809991 0.339203 0.801667
-0.808284 0.696975 -0.687653
-0.859254 0.773599 0.779694
0.800205 0.265665 -0.68147
0.861142 0.286793 0.80206
0.803513 0.695659 -0.692067
0.858277 0.772569 0.776467
-1.61155 -0.0729901 -3.33944
-1.604 -0.01393 -2.15883
-1.61596 0.0561298 -0.67518
-1.62737 0.133805 0.81147
-1.6283 0.21831 2.29537
-1.62848 0.26921 3.4772
-1.62848 0.312719 4.65673
-1.60513 0.136571 -3.34118
-1.5961 0.197671 -2.16212
-1.62222 0.271757 -0.681573
-1.64147 0.344139 0.800225
-1.63082 0.41035 2.28105
-1.6312 0.460994 3.46262
-1.63248 0.50759 4.64265
-1.58553 0.556417 -3.33954
-1.56579 0.617688 -2.15894
-1.62443 0.703007 -0.689161
-1.6759 0.769873 0.779205
-1.65512 0.784022 2.2491
-1.64656 0.836375 3.43082
-1.64386 0.894204 4.61305
-1.5938 1.20534 -3.34999
-1.59043 1.26838 -2.17234
-1.61889 1.34866 -0.70718
-1.65768 1.40766 0.754261
-1.67154 1.43824 2.21915
-1.6672 1.46942 3.39624
-1.66044 1.51422 4.57666
-0.815729 -0.0758089 -3.34141
-0.800671 -0.0162409 -2.16106
-0.800097 0.0481502 -0.675634
-0.799817 0.124672 0.812955
-0.809485 0.22739 2.29842
-0.808555 0.273512 3.47907
-0.807032 0.311901 4.65755
-0.815667 0.133011 -3.34279
-0.808621 0.464298 3.46395
-0.809947 0.505866 4.64307
-0.798771 0.550374 -3.33922
-0.819595 0.828735 3.42973
-0.818881 0.888101 4.61226
-0.793447 1.2008 -3.34953
-0.783302 1.26428 -2.17168
-0.800475 1.34686 -0.70724
-0.832194 1.40642 0.752975
-0.845563 1.43223 2.21711
-0.841286 1.4615 3.39427
-0.835023 1.50658 4.57504
0.771226 -0.0778223 -3.34268
0.793808 -0.0172345 -2.16146
0.816264 0.0424465 -0.675764
0.855927 0.0893805 0.813027
0.821155 0.213727 2.2986
0.827422 0.26283 3.47873
0.835971 0.300307 4.6568
0.757635 0.131366 -3.34445
0.825323 0.457186 3.46351
0.833688 0.495641 4.64223
0.744371 0.547938 -3.34267
0.829031 0.823293 3.42839
0.830397 0.879275 4.61104
0.791334 1.19721 -3.3527
0.809013 1.26073 -2.17502
0.825456 1.34271 -0.710325
0.826034 1.40076 0.750402
0.81751 1.4252 2.215
0.817108 1.45343 3.39245
0.819482 1.49751 4.57341
1.57063 -0.0782075 -3.34238
1.5929 -0.0183113 -2.16082
1.62872 0.0414981 -0.676591
1.67705 0.0843017 0.810606
1.65702 0.183949 2.29478
1.65471 0.243751 3.47609
1.66077 0.288304 4.65507
1.55636 0.132245 -3.34485
1.58128 0.195054 -2.16485
1.61873 0.263515 -0.683625
1.68135 0.292498 0.798957
1.65372 0.380915 2.28028
1.65232 0.439755 3.4613
1.65858 0.485324 4.64083
1.54078 0.551331 -3.34557
1.55246 0.613348 -2.16587
1.61651 0.69831 -0.695006
1.68031 0.750472 0.774902
1.66479 0.764675 2.24604
1.65641 0.819411 3.42823
1.6565 0.874729 4.61058
1.58703 1.19774 -3.35599
1.60653 1.26071 -2.17858
1.63552 1.3394 -0.712957
1.65186 1.39489 0.749372
1.64965 1.42261 2.21508
1.64739 1.45218 3.39266
1.64748 1.49551 4.57341
-0.763972 0.401518 -2.15349
-0.00358051 0.176598 -2.1834
-0.837651 0.192871 -1.42333
-0.811218 0.595 2.26308
0.000845999 0.413443 2.29685
-0.792893 0.395858 1.54333
-0.005 0.662423 -2.2137
-0.791874 0.667738 -1.42133
0.00178102 0.784779 2.2658
-0.859407 0.78658 1.51337
0.753952 0.4 -2.15485
0.833265 0.191571 -1.42324
0.812812 0.595 2.26133
0.856581 0.332386 1.54383
0.790805 0.671878 -1.42633
0.860152 0.785517 1.51073
-0.807769 0.301867 0.0600001
-0.863868 0.480619 -0.68466
-0.00280562 0.139065 -0.681568
-0.879135 0.556401 0.79068
0.0255755 0.207767 0.801864
-0.817034 0.718553 0.04602
-0.00238519 0.89576 -0.68986
-0.000488266 1.22893 0.77808
0.804158 0.302744 0.060295
0.858412 0.480662 -0.686768
0.87386 0.529681 0.789263
0.814472 0.717691 0.0422
-0.86554 0.441069 -1.42233
-0.868711 0.51851 0.05301
-0.867702 0.575701 1.52835
-0.00319307 0.154538 -1.42328
0.0113849 0.174807 0.0601475
0.0132107 0.303539 1.54358
-0.00429025 0.400759 -2.30797
0.00131351 0.595 2.27907
-0.00369259 0.778383 -1.42383
-0.00143673 1.20953 0.04411
0.000646375 0.987199 1.51205
0.872196 0.440331 -1.42478
0.863907 0.505172 0.0512475
0.864535 0.562341 1.52728
-1.19603 0.196335 -2.16356
-0.798318 0.0893796 -2.16303
-0.805816 0.164005 -2.7539
-1.21706 0.417675 2.28302
-0.806396 0.326195 2.29171
-0.805964 0.444649 2.87447
-1.1554 0.612863 -2.15697
-0.771886 0.579205 -2.74711
-0.764151 0.936159 -2.16334
-1.24006 0.774511 2.24807
-0.822297 0.796868 2.83839
-0.835282 1.09862 2.23208
0.791306 0.0888827 -2.16323
0.773219 0.163183 -2.75472
1.18504 0.195027 -2.16493
0.813077 0.319364 2.29209
0.815162 0.441093 2.87455
1.22936 0.402957 2.28294
0.739686 0.576469 -2.75164
0.772007 0.932865 -2.16781
1.14373 0.609174 -2.16324
0.828797 0.794146 2.8367
0.823036 1.0951 2.23
1.24668 0.764838 2.24552
-1.21402 0.26801 -0.68162
-0.802957 0.156207 -0.67865
-1.22573 0.341671 0.800946
-0.804904 0.231937 0.807311
-1.21636 0.699991 -0.688407
-0.804379 1.02192 -0.697447
-1.26758 0.771736 0.779449
-0.845724 1.09001 0.766334
0.808234 0.154056 -0.678617
1.20947 0.26459 -0.682547
0.858534 0.188087 0.807544
1.27124 0.289645 0.800508
0.814485 1.01918 -0.701196
1.21001 0.696985 -0.693536
0.842156 1.08666 0.763434
1.26929 0.761521 0.775684
-1.60777 -0.04346 -2.74913
-1.60834 0.0317906 -3.34031
-1.21364 -0.0743995 -3.34042
-1.60998 0.0210999 -1.417
-1.60005 0.0918704 -2.16048
-1.20234 -0.0150855 -2.15994
-1.62167 0.0949675 0.0681451
-1.61909 0.163943 -0.678376
-1.20803 0.05214 -0.675407
-1.62783 0.176057 1.55342
-1.63442 0.238972 0.805847
-1.21359 0.129239 0.812212
-1.62839 0.24376 2.88628
-1.62956 0.31433 2.28821
-1.21889 0.22285 2.29689
-1.62848 0.290965 4.06696
-1.62984 0.365102 3.46991
-1.21852 0.271361 3.47814
-1.63048 0.410154 4.64969
-1.21776 0.31231 4.65714
-1.60062 0.167121 -2.75165
-1.59533 0.346494 -3.34036
-1.2104 0.134791 -3.34199
-1.60916 0.234714 -1.42185
-1.58095 0.40768 -2.16053
-1.63184 0.307948 0.059326
-1.62332 0.487382 -0.685367
-1.63614 0.377244 1.54064
-1.65868 0.557006 0.789715
-1.63101 0.435672 2.87183
-1.64297 0.597186 2.26507
-1.63184 0.484292 4.05263
-1.63888 0.648684 3.44672
-1.21991 0.462646 3.46328
-1.63817 0.700897 4.62785
-1.22121 0.506728 4.64286
-1.57566 0.587053 -2.74924
-1.58967 0.880878 -3.34477
-1.19215 0.553395 -3.33938
-1.59511 0.660348 -1.42405
-1.57811 0.943035 -2.16564
-1.65016 0.73644 0.0450221
-1.62166 1.02584 -0.69817
-1.66551 0.776947 1.51415
-1.66679 1.08876 0.766733
-1.65084 0.810198 2.83996
-1.66333 1.11113 2.23413
-1.64521 0.865289 4.02194
-1.65688 1.1529 3.41353
-1.23308 0.832555 3.43028
-1.65215 1.20421 4.59486
-1.23137 0.891153 4.61265
-1.59212 1.23686 -2.76116
-1.19363 1.20307 -3.34976
-1.60466 1.30852 -1.43976
-1.18687 1.26633 -2.17201
-1.63829 1.37816 0.0235402
-1.20968 1.34776 -0.70721
-1.66461 1.42295 1.48671
-1.24494 1.40704 0.753618
-1.66937 1.45383 2.8077
-1.25855 1.43523 2.21813
-1.66382 1.49182 3.98645
-1.25424 1.46546 3.39526
-1.24773 1.5104 4.57585
-0.8082 -0.0460249 -2.75124
-0.815698 0.0286009 -3.3421
-0.0222517 -0.0768156 -3.34204
-0.800384 0.0159547 -1.41835
-0.00343148 -0.0167377 -2.16126
-0.799957 0.0864111 0.0686604
0.00808343 0.0452984 -0.675699
-0.804651 0.176031 1.55569
0.0280552 0.107026 0.812991
-0.80902 0.250451 2.88875
0.00583502 0.220558 2.29851
-0.807793 0.292707 4.06831
-0.808588 0.368905 3.47151
0.00943339 0.268171 3.4789
-0.80849 0.408883 4.65031
0.0144696 0.306104 4.65717
-0.807219 0.341692 -3.34101
-0.0290162 0.132188 -3.34362
-0.809284 0.485082 4.05351
-0.814108 0.646517 3.44684
0.00835114 0.460742 3.46373
-0.814414 0.696984 4.62766
0.0118704 0.500753 4.64265
-0.796109 0.875588 -3.34437
-0.0272001 0.549156 -3.34095
-0.819238 0.858418 4.02099
-0.830441 1.14512 3.412
0.00471811 0.826014 3.42906
-0.826952 1.19734 4.59365
0.00575836 0.883688 4.61165
-0.788375 1.23254 -2.7606
-0.00105628 1.199 -3.35111
-0.791889 1.30557 -1.43946
0.0128556 1.26251 -2.17335
-0.816335 1.37664 0.0228672
0.0124904 1.34478 -0.708783
-0.838879 1.41933 1.48504
-0.00308027 1.40359 0.751688
-0.843425 1.44687 2.80569
-0.0140263 1.42872 2.21606
-0.838155 1.48404 3.98466
-0.0120891 1.45746 3.39336
-0.00777061 1.50204 4.57422
0.782517 -0.0475284 -2.75207
0.76443 0.0267719 -3.34356
1.17093 -0.0780149 -3.34253
0.805036 0.012606 -1.41861
1.19335 -0.0177729 -2.16114
0.836095 0.0659135 0.0686314
1.22249 0.0419723 -0.676178
0.838541 0.151554 1.55581
1.26649 0.0868411 0.811816
0.824288 0.238278 2.88866
1.23909 0.198838 2.29669
0.831697 0.281569 4.06776
0.826372 0.360008 3.47112
1.24106 0.25329 3.47741
0.83483 0.397974 4.64952
1.24837 0.294306 4.65594
0.751003 0.339652 -3.34356
1.157 0.131805 -3.34465
0.829505 0.476414 4.05287
0.827177 0.64024 3.44595
1.23882 0.448471 3.46241
0.832043 0.687458 4.62663
1.24613 0.490482 4.64153
0.767853 0.872572 -3.34768
1.14258 0.549635 -3.34412
0.829714 0.851284 4.01972
0.82307 1.13836 3.41042
1.24272 0.821352 3.42831
0.82494 1.18839 4.59222
1.24345 0.877002 4.61081
0.800174 1.22897 -2.76386
1.18918 1.19747 -3.35434
0.817235 1.30172 -1.44267
1.20777 1.26072 -2.1768
0.825745 1.37173 0.0200387
1.23049 1.34105 -0.711641
0.821772 1.41298 1.4827
1.23895 1.39782 0.749887
0.817309 1.43931 2.80373
1.23358 1.42391 2.21504
0.818295 1.47547 3.98293
1.23225 1.4528 3.39256
1.23348 1.49651 4.57341
1.58176 -0.0482594 -2.7516
1.5635 0.0270187 -3.34362
1.61081 0.0115934 -1.41871
1.58709 0.0883712 -2.16284
1.65288 0.0628999 0.0670073
1.62373 0.152507 -0.680108
1.66703 0.134125 1.55269
1.6792 0.1884 0.804781
1.65586 0.21385 2.88543
1.65537 0.282432 2.28753
1.65774 0.266027 4.06558
1.65352 0.341753 3.4687
1.65968 0.386814 4.64795
1.56882 0.163649 -2.75485
1.54857 0.341788 -3.34521
1.60001 0.229285 -1.42424
1.56687 0.404201 -2.16536
1.65004 0.278007 0.057666
1.61762 0.480913 -0.689315
1.66753 0.336706 1.53962
1.68083 0.521485 0.786929
1.65302 0.410335 2.87079
1.65926 0.572795 2.26316
1.65545 0.46254 4.05106
1.65437 0.629583 3.44477
1.65754 0.680027 4.6257
1.54662 0.58234 -2.75572
1.5639 0.874533 -3.35078
1.58448 0.655829 -1.43044
1.5795 0.937032 -2.17223
1.64841 0.724391 0.0399483
[...]
POINT_DATA 29498
VECTORS point_vectors float
-4.32762 -3.65858 9.37119
0.274701 0.262206 1.40114
-2.55209 2.31926 4.30994
0.0609139 -0.117182 0.542215
3.53173 -2.80561 7.89535
-0.268408 0.284184 1.43027
3.47504 2.89955 4.6723
-0.0340064 -0.066743 0.336179
0 0 0
0.00709529 -0.0174312 0.211255
-0.0649116 -0.0629289 0.173305
-0.0044307 0.0596751 0.53564
-0.0027707 -0.00255572 0.0191861
-0.0373905 -0.0790943 0.65595
0.0580908 -0.0586964 0.173309
0.0028442 0.0626065 0.501347
-0.49744 -0.158644 19.8713
-1.12328 -0.462554 20.4231
-0.421447 -0.389687 21.1579
0.174787 -0.252333 21.3227
0.693407 -0.0798429 21.1755
0.775238 -0.0975178 21.0436
0.77497 -0.355288 20.8069
-0.527021 -0.104656 19.8189
-1.31803 -0.350992 20.3745
-0.546278 -0.448798 21.1646
0.0822416 -0.343735 21.3774
0.659564 -0.214449 21.2018
0.836485 -0.262219 21.0777
0.800398 -0.447637 20.9626
-0.551446 0.0276868 19.7914
-1.44744 0.0504593 20.2993
-0.89063 -0.32033 21.0866
-0.180999 -0.361111 21.3828
0.529546 -0.337909 21.1722
0.692187 -0.361072 20.6578
0.613461 -0.34837 20.8141
-0.436972 0.218755 19.8575
-0.960109 0.456934 20.2388
-0.937163 0.21033 20.9145
-0.315394 -0.0701814 21.3153
0.247017 -0.329694 21.1373
0.365777 -0.409745 20.7791
0.277702 -0.185157 20.7227
-0.502953 -0.353947 19.3587
-2.92162 -3.87119 20.7647
0.611461 0.0326424 13.9531
1.17957 0.133524 12.7613
1.31929 0.816752 13.5424
1.72223 1.20408 14.8482
1.15205 0.615951 14.0665
-0.564841 -0.232246 19.2032
1.80854 0.778412 12.613
1.15295 0.498543 11.835
-0.578953 0.0777275 19.1254
1.44739 -0.721175 9.67887
0.738191 -0.214516 15.2796
-0.428659 0.436824 19.4451
-1.35726 1.7493 19.8677
-2.03297 1.57447 20.6316
-0.714003 0.307317 22.0506
0.238975 -0.683703 21.2088
0.452372 -0.930472 20.4626
0.1397 -0.617976 20.785
0.488161 -0.35212 19.3365
2.905 -3.87227 20.7402
-0.507009 0.119039 15.2134
-1.24655 -0.138091 15.9529
-1.33304 0.869402 13.8593
-1.68687 1.18734 15.1974
-1.10863 0.599408 14.5849
0.547651 -0.235075 19.1685
-1.76865 0.781913 12.9006
-1.11298 0.507958 12.1201
0.557369 0.0749819 19.0937
-1.42981 -0.696589 9.7287
-0.722985 -0.196411 15.2152
0.425611 0.432474 19.4455
1.38066 1.70252 19.87
2.02087 1.4801 20.6571
0.719196 0.343432 22.053
-0.257124 -0.686925 21.0383
-0.450034 -0.935757 20.4045
-0.154126 -0.628623 20.7522
0.501887 -0.165007 19.8547
1.13616 -0.460026 20.4142
0.414408 -0.382814 21.1436
-0.138197 -0.230662 21.3025
-0.658063 -0.0649852 21.1521
-0.744206 -0.0794695 20.978
-0.753566 -0.328247 20.7607
0.537368 -0.111678 19.7955
1.34211 -0.353392 20.3563
0.534129 -0.449071 21.1635
-0.0699709 -0.315604 21.3476
-0.646479 -0.20039 21.2012
-0.806067 -0.240159 21.0205
-0.782324 -0.44671 20.9512
0.556019 0.0356845 19.7664
1.46692 0.0544289 20.2813
0.891585 -0.324075 21.0868
0.193617 -0.351805 21.3789
-0.528295 -0.332357 21.1734
-0.683022 -0.348293 20.6696
-0.616785 -0.355572 20.8092
0.440213 0.213221 19.8549
0.955191 0.444875 20.2382
0.922507 0.203094 20.9091
0.326234 -0.0654061 21.3198
-0.248252 -0.332575 21.1411
-0.368952 -0.406994 20.7766
-0.282066 -0.189864 20.7202
-3.75925 0.305948 3.87058
-0.0173782 -0.0620357 0.549938
0.0250349 -0.0293257 0.655226
0.0862079 -0.0368044 0.460663
6.27101e-05 0.0407321 0.251563
0 0 0
-0.00270342 0.477212 1.06513
-0.0474439 -0.0186986 0.204823
0.00323352 0.0727418 -0.0490689
0.0348221 0.052252 0.524109
4.09304 0.820775 3.2847
-0.00617629 -0.00742853 0.205578
-0.0953591 -0.0393106 0.477389
-0.298595 0.311815 4.95667
0.0876086 -0.0385577 0.471194
-0.0325805 0.054451 0.600047
0 0 0
0 0 0
2.69567e-07 6.43489e-06 0.000138431
0 0 0
6.51351e-05 0.00275103 0.0273038
0.0026011 0.00671925 0.053352
0.00588948 0.0103944 0.0222539
0.000104561 -0.000718103 0.0208755
0 0 0
1.64019e-19 -5.82039e-18 2.32125e-17
0 0 0
-0.00186871 0.00539156 0.0453923
-0.00498523 -0.0172704 0.123522
0 0 0
0 0 0
0 0 0
0 0 0
0.000148254 0.000940664 0.00739435
-0.0692291 -0.00964741 0.0893268
0 0 0
-0.00155637 0.00710788 0.064168
-7.41773e-05 0.000752987 0.00850881
1.82627e-05 0.000701544 -0.00327699
0.00752227 -0.0279536 0.186342
1.04305e-05 9.9443e-05 0.00266355
0 0 0
-2.6106 -0.992446 20.3548
-4.66018 -5.49115 21.4427
-1.61667 -0.910002 18.2978
1.1735 -0.263404 20.2752
0.834048 0.665811 9.21393
0.989946 0.582673 8.29953
-3.16279 0.540395 20.1169
-1.80618 0.539629 17.8287
-2.74798 3.09911 19.6743
0.785269 -0.601199 20.7802
0.727779 -0.426838 7.59044
0.780595 -0.417821 15.3884
4.64494 -5.42653 21.3856
1.60263 -0.974002 18.1937
2.64244 -1.01391 20.3104
-0.835733 0.704985 9.30203
-1.01167 0.606008 8.39565
-1.15595 -0.264051 20.3695
1.78242 0.561701 17.7181
2.76713 3.01238 19.6374
3.21124 0.535238 20.0618
-0.710678 -0.416908 7.68915
-0.7926 -0.380417 14.8485
-0.777848 -0.59738 20.8229
-0.415342 -0.951376 21.2034
0.814521 -0.323464 5.88879
0.37477 -0.701887 20.5527
0.684462 -0.129554 7.06345
-1.52332 -0.834287 21.2844
-3.60231 1.07279 19.0486
-0.379935 -0.682375 21.5254
-0.493662 0.430848 16.1634
-0.790984 -0.233728 6.47777
0.375863 -0.946795 21.196
-1.00958 -0.860751 11.6405
-0.238285 -0.612822 21.2759
3.56176 0.951417 19.155
1.50743 -0.857591 21.2368
0.480756 0.500436 15.9587
0.415931 -0.647519 21.5023
-0.860956 -0.317526 19.9672
-0.515929 -0.1356 19.8504
-0.53803 -0.235521 19.6439
-0.83909 -0.445397 20.9507
-1.19822 -0.422947 20.399
-1.9069 -1.1617 20.435
-0.105498 -0.339563 21.2811
-0.475566 -0.414224 21.1608
-0.162306 -0.588322 21.4501
0.454508 -0.153949 21.2922
0.150213 -0.309884 21.3598
0.597594 -0.342696 21.0814
0.771665 -0.0174407 20.9138
0.687459 -0.14598 21.1955
1.18889 0.0292859 20.6952
0.679785 -0.0311638 20.4069
0.828345 -0.191626 21.0683
1.32059 0.0332418 20.0617
0.81567 -0.406533 20.8698
0.97169 0.0382093 19.5769
-0.94576 -0.224631 19.897
-0.54129 -0.0337712 19.7844
-0.600328 -0.1811 19.5667
-0.996833 -0.405672 20.9604
-1.43296 -0.144387 20.3283
-0.235523 -0.422846 21.3022
-0.733726 -0.406762 21.1274
0.399593 -0.255291 21.3388
-0.0433252 -0.370023 21.388
0.747519 -0.176617 20.958
0.605667 -0.274283 21.171
0.694536 -0.130998 20.5924
0.761741 -0.339347 21.0183
1.34013 -0.0996451 19.2457
0.728492 -0.406308 20.8777
0.971664 -0.0805813 17.3542
-1.02412 0.0520968 19.8333
-0.512117 0.134479 19.807
-0.639752 0.0547162 19.4926
-1.20859 -0.126647 20.8736
-1.24007 0.350397 20.2371
-0.56623 -0.376884 21.3105
-1.00885 -0.0392819 21.0041
0.226039 -0.331899 21.3448
-0.290966 -0.22591 21.3704
0.655663 -0.381655 21.1132
0.372893 -0.369585 21.1733
0.433526 -0.271451 20.805
0.582422 -0.484541 20.8075
1.00002 -0.62417 20.88
0.429598 -0.254418 20.7134
0.607388 -0.641883 19.8189
-0.722755 0.368808 19.9346
-0.477354 0.310573 19.6569
-0.984321 0.351571 20.6318
-1.29117 0.936393 20.091
-0.687372 0.0620795 21.2098
-1.46487 0.565487 20.9238
0.0289003 -0.224442 21.2758
-0.52433 -0.0107304 21.5953
0.345039 -0.378889 20.9249
0.273657 -0.485496 21.2193
0.323655 -0.493594 20.7391
0.37098 -0.605649 20.839
0.247356 -0.370879 20.7184
-1.28761 -1.20685 18.8556
-0.533897 -0.293097 19.281
-0.0164333 -0.519431 18.9807
-0.510074 -0.553732 18.5532
-0.0147715 -5.30279 21.936
1.05936 -0.0579892 12.8088
0.00145924 0.174424 8.68708
1.17554 0.48802 12.9733
-0.0230641 0.340533 6.72316
1.58753 1.13161 14.5585
0.0300927 0.595951 6.17488
1.36856 0.771079 15.0762
1.79348 1.10316 13.9732
0.00267832 1.78127 8.96054
1.17714 0.569461 12.714
-0.0130044 1.06524 11.6868
-0.597827 -0.100326 19.1163
-0.0200263 -0.364317 18.7813
1.6084 0.461073 13.8472
1.76322 -0.0921985 9.63431
-0.00602671 1.34164 2.18313
0.953569 0.153246 13.1529
-0.000756005 0.939388 7.78846
-0.525749 0.298732 19.2143
-0.0251185 0.157024 18.6054
1.06586 -0.345254 13.0531
0.790491 -1.03448 18.1189
-0.050167 0.0675372 -2.55029
0.355123 -0.755393 19.4747
-0.0174291 -0.0470284 4.98573
-0.881216 1.05996 19.2897
-0.000146255 0.589755 19.1946
-1.51358 1.49023 20.4981
0.0312238 2.81722 19.6337
-1.85333 1.09743 21.9881
0.0541361 3.68595 19.6218
0.0619024 -0.403114 21.5581
-0.00799115 0.418058 18.0637
0.320706 -0.839662 21.0705
-0.00529248 -0.639775 16.9574
0.277419 -0.686156 20.5114
0.0105698 -1.07593 18.3465
-0.008745 -0.796226 19.8177
1.2665 -1.23992 18.8289
0.517906 -0.293597 19.2525
0.546022 -0.257843 19.613
0.521383 -0.578828 19.0004
1.9137 -1.18248 20.4105
-1.02143 -0.0372261 15.2134
0.173098 -0.577266 21.4186
-1.26944 0.619013 14.338
-0.432715 -0.355919 21.3956
-1.55922 1.14304 14.8061
-1.15837 0.0240206 20.8853
-1.33047 0.715461 15.6405
-1.75134 1.08658 14.2607
-1.2863 -0.0031838 20.3879
-1.12742 0.56282 13.1854
-0.951314 -0.00149804 20.2345
0.575928 -0.101866 19.0805
0.611115 -0.20984 19.5297
-1.567 0.407764 14.2398
-1.73058 -0.0896622 9.82029
-1.30707 -0.120806 19.3951
-0.922447 0.175985 13.2482
-0.963122 -0.0893297 17.6849
0.515561 0.296603 19.201
0.653858 0.0563884 19.4502
-1.08735 -0.286366 13.1637
-0.798566 -1.02071 17.7225
-0.988443 -0.605601 20.9576
-0.368352 -0.727466 19.2979
-0.614438 -0.633508 19.836
0.885946 1.03147 19.3008
0.475975 0.308524 19.6582
1.52276 1.43518 20.5179
1.27489 0.899847 20.0902
1.84995 1.07236 21.9557
1.43237 0.525621 20.9243
-0.0868742 -0.395231 21.4708
0.538869 0.00844048 21.6001
-0.357001 -0.831992 20.7988
-0.277555 -0.489886 21.2295
-0.299481 -0.678388 20.5389
-0.374112 -0.620231 20.869
-0.260467 -0.388807 20.6746
0.873697 -0.334782 19.9582
0.528894 -0.145146 19.8388
0.837504 -0.440755 20.9572
1.22009 -0.419526 20.3834
0.109505 -0.328909 21.2553
0.46849 -0.405888 21.1532
-0.423591 -0.124566 21.2764
-0.113421 -0.269257 21.3193
-0.747588 0.00742956 20.8841
-0.674731 -0.13119 21.1903
-0.654712 -0.0122279 20.4308
-0.793281 -0.173233 21.0072
-0.795665 -0.382519 20.83
0.97739 -0.230927 19.867
0.549903 -0.043827 19.7568
1.01111 -0.415789 20.9696
1.45961 -0.154792 20.3172
0.224545 -0.408655 21.2765
0.735108 -0.40683 21.1249
-0.391379 -0.235447 21.3267
0.0607485 -0.350201 21.3707
-0.716822 -0.158058 20.9354
-0.595385 -0.264244 21.1751
-0.667086 -0.114915 20.6121
-0.753902 -0.323235 20.9928
-0.729879 -0.412796 20.8633
1.03786 0.0624451 19.8078
0.514847 0.136527 19.7898
1.23521 -0.126101 20.8729
1.23961 0.34117 20.2279
0.566607 -0.374684 21.2963
0.998029 -0.0420397 21.0032
-0.221157 -0.326822 21.3522
0.303408 -0.219669 21.3706
-0.656939 -0.379165 21.1294
-0.373809 -0.367741 21.1778
-0.447132 -0.269305 20.7908
-0.597557 -0.483747 20.7896
-0.437864 -0.263917 20.7267
0.724007 0.35887 19.9339
0.972857 0.346372 20.634
0.690197 0.0628157 21.202
-0.0259977 -0.219705 21.2852
-0.353582 -0.384432 20.9352
-0.327207 -0.492076 20.7175
-0.896917 -0.285272 19.9392
-1.49808 -1.1064 18.5291
-1.15916 -0.62564 19.5805
-1.37865 -0.494658 19.3784
-0.569179 -0.208311 19.6053
-2.28613 -1.13483 20.392
-0.903167 -0.435372 20.9535
0.421849 -0.294501 9.96522
-0.934786 -0.772089 21.3522
-1.22759 -0.912506 21.4495
-0.217174 -0.77937 21.4016
-0.159035 -0.391935 21.2921
0.566273 -0.175077 6.2819
0.256969 -0.503796 21.244
0.0155771 -0.87747 20.7496
0.498445 -0.533656 20.7986
0.446115 -0.212176 21.317
0.531134 0.321111 7.49911
0.924691 -0.135552 20.9202
0.814779 -0.427776 20.2085
1.21607 -0.137374 20.5072
0.763799 -0.0991822 20.9345
1.35142 0.896988 11.9135
1.32744 0.10828 20.5233
1.36377 -0.187833 20.3612
1.35671 -0.0297646 19.3623
0.683067 -0.100384 20.5735
1.48848 0.616076 14.4617
0.985604 0.0328297 20.7029
1.22618 -0.271934 19.4444
0.996742 -0.00876153 18.2247
-1.01948 -0.0703525 19.8459
-1.86287 -0.300622 17.812
-1.55224 0.200395 19.18
-0.645241 -0.0690986 19.4987
-3.27995 -0.351894 20.2215
-1.12283 -0.255963 20.9205
-1.90504 -0.182437 21.2241
-0.964754 -0.99625 21.1995
-0.393025 -0.439392 21.3097
-0.928855 -0.915352 21.4204
-0.0318107 -0.808261 21.1183
0.329719 -0.31037 21.3573
0.293358 -0.610052 21.2394
1.01022 -0.470397 20.3773
0.763986 -0.273048 21.0049
0.795529 -0.0389829 6.1286
1.03564 -0.650472 20.7699
1.2611 -0.300757 19.5989
0.626799 -0.239131 20.6487
1.36656 0.0903468 13.0678
0.833356 -0.569165 19.9014
0.770334 -0.429754 18.7027
-0.903711 0.266238 19.8711
-1.31911 1.07576 18.626
-0.900252 0.659831 19.6559
-0.578871 0.2344 19.5639
-2.0531 1.01529 20.0506
-1.15881 0.173393 20.7244
-2.55652 1.4904 20.7292
-1.34429 0.727982 20.6189
-1.88867 0.0101035 21.0469
-0.728014 -0.172246 21.275
-2.46169 -0.430261 17.989
-1.15928 0.281254 21.4511
-0.601067 -0.275165 21.6759
0.105353 -0.301649 21.3303
0.851358 0.139832 14.9203
0.00560165 -0.292446 21.478
0.458824 -0.591522 21.2381
0.487038 -0.385739 20.8868
0.724159 -0.768292 16.4856
0.384317 -0.594715 20.9892
0.636741 -0.675206 20.6117
0.28387 -0.33165 20.7043
0.752047 -0.889268 18.6107
0.317097 -0.571585 20.7507
0.447321 -0.543723 19.7546
1.4842 -1.15799 18.4408
-0.0222465 -2.12049 17.855
-0.0429246 -1.80847 16.5455
-0.0179741 -0.468094 18.8554
-0.0120034 -4.58743 19.943
-0.369991 -0.27181 10.3273
0.00600892 -0.573643 15.4254
-0.00166761 0.0629817 1.35699
-0.785502 -0.235816 8.87521
-0.0344084 0.236513 6.92544
-0.00193472 0.115347 1.72966
-0.69532 0.525935 9.25966
0.0237438 0.585802 5.94588
0.00844028 0.288328 2.40491
-1.38949 0.942707 12.1439
0.0210047 0.769065 7.32756
0.0125281 0.168469 1.04289
-0.00187948 1.68124 5.77149
-1.44873 0.561613 14.9402
-0.00375036 1.73244 10.1676
0.00665122 1.73694 4.01732
-0.0058608 1.00185 9.56791
1.84367 -0.316748 17.6641
-0.0577185 1.00619 15.9822
-0.0216454 -0.136382 18.6571
-0.801962 -0.0232541 6.20266
-0.0387501 0.198377 -4.41172
-0.0456929 0.77053 -1.9291
-1.33883 0.0505175 13.2871
-0.0153335 -0.0337322 2.10103
-0.0072508 0.501181 6.25263
1.30996 1.07168 18.609
0.012274 1.66377 18.7874
-0.0128117 0.458992 18.8642
0.00680622 4.97316 19.6408
2.55676 1.46593 20.7971
0.0254695 2.45953 20.2538
0.0584636 3.18524 12.9564
2.48616 -0.42815 18.0933
0.009423 3.06261 21.6848
0 0 0
-0.895164 0.200412 14.4651
-0.00708003 -0.495945 16.3712
0.0109226 0.404516 0.565798
-0.716523 -0.746928 16.0091
0.00148514 -0.69735 16.9445
-0.0184583 -0.930874 6.37778
-0.743892 -0.888633 18.2634
0.00855462 -0.483214 18.878
-0.0133245 -0.566781 9.67711
0.916813 -0.296521 19.9247
1.17035 -0.653867 19.5452
1.40093 -0.519149 19.3192
0.578568 -0.233841 19.5714
2.30224 -1.15744 20.3581
0.904803 -0.435745 20.9661
0.948946 -0.796996 21.3527
1.27488 -0.950678 21.4886
0.209771 -0.76046 21.4013
0.160534 -0.364936 21.2645
-0.191214 -0.482223 21.2974
0.00603138 -0.835878 20.9715
-0.353564 -0.494957 21.3484
-0.427873 -0.187728 21.3026
-0.868975 -0.131902 21.1714
-0.800929 -0.406276 20.9551
-1.18381 -0.13611 20.6396
-0.747623 -0.0765915 20.9092
-1.29503 0.10593 20.6805
-1.33289 -0.193038 20.4107
-1.31765 -0.0622106 19.6438
-0.655702 -0.0837327 20.5971
-0.926882 0.0604379 20.8867
-1.19194 -0.267523 19.4365
-0.970193 -0.0382774 18.8291
1.03062 -0.0834341 19.8091
1.55781 0.195053 19.1206
0.642891 -0.0725033 19.4532
3.31097 -0.346107 20.1464
1.14811 -0.263712 20.922
1.97705 -0.162616 21.2583
0.934306 -1.02054 21.1949
0.397508 -0.433211 21.2876
0.938209 -0.912164 21.3629
0.0871063 -0.743367 21.3243
-0.325016 -0.301734 21.3597
-0.285714 -0.603896 21.2657
-0.995435 -0.475093 20.4924
-0.746767 -0.260762 20.9781
-1.0338 -0.644227 20.8121
-1.23752 -0.313068 19.6681
-0.645328 -0.240487 20.633
-0.819108 -0.55093 19.9375
-0.770901 -0.42043 18.781
0.907141 0.262161 19.8583
0.900058 0.64541 19.6551
0.577838 0.241954 19.5514
2.03652 0.992472 20.032
1.16223 0.174313 20.7264
1.33387 0.709544 20.6202
1.84295 -0.00982449 21.0455
0.730663 -0.172183 21.2663
1.15584 0.274093 21.4348
0.624297 -0.253051 21.6762
-0.101331 -0.299537 21.3408
-0.00304741 -0.282679 21.498
-0.457982 -0.591069 21.2361
-0.489872 -0.383465 20.8976
-0.38917 -0.597777 21.0094
-0.644994 -0.668909 20.6182
-0.271327 -0.309918 20.7143
-0.31492 -0.566103 20.757
-0.452995 -0.546376 19.726
-1.30911 -0.570455 19.4559
-1.02819 -0.842702 21.4191
0.17527 -0.683317 21.1113
0.891661 -0.295436 20.554
1.35935 -0.0429726 20.3436
1.11729 -0.124454 20.0309
-1.57739 -0.145791 19.2015
-1.74892 -0.655115 21.5211
-0.444129 -1.02311 21.0957
0.558682 -0.597697 20.7964
1.24725 -0.456955 20.3025
1.02364 -0.427192 19.7343
-1.22241 0.570569 19.4208
-1.77829 0.409441 20.813
-1.36175 -0.206151 21.617
0.0757339 -0.426296 21.5381
0.613391 -0.67046 21.0515
0.637566 -0.687587 20.1158
-0.0420161 -2.11266 17.0814
0.00862709 -0.193587 5.34275
-0.00615751 0.0590506 1.35172
0.0274215 0.251705 2.05196
0.0283161 0.538686 4.13898
0.00178243 1.72937 7.08704
-0.0460919 -0.544494 15.7673
-0.0147499 -0.184132 -3.06961
-0.00362664 1.01805 2.63779
-0.0100163 1.88888 17.5681
0.00687488 2.80621 19.9292
0 0 0
0.00130782 0.19568 0.25883
-0.0212326 -0.136271 3.22394
-0.0125706 -0.952466 8.30002
1.32319 -0.603526 19.4171
1.05603 -0.876994 21.4345
-0.128466 -0.655768 21.2509
-0.847936 -0.271087 21.0747
-1.32924 -0.0469483 20.4151
-1.05941 -0.103542 20.1616
1.60445 -0.150214 19.1439
1.80302 -0.67087 21.5279
0.437535 -0.992687 21.0932
-0.551363 -0.591607 20.9968
-1.23009 -0.456315 20.4106
-1.001 -0.414048 19.7436
1.21764 0.571841 19.4114
1.77996 0.421057 20.822
1.36047 -0.208081 21.5877
-0.0675425 -0.416154 21.5499
-0.614314 -0.674491 21.0636
-0.636471 -0.680304 20.098
-4.08498 -1.2471 5.79499
-0.00391857 -0.0340748 0.131088
-0.0322937 -0.401892 2.30004
0.0596575 -0.0205914 0.320468
-0.0880803 0.108792 0.299822
0.00582592 -2.27811e-05 0.0371104
-0.198473 0.0286922 0.127507
-0.207416 1.65237 1.8317
-0.172634 -0.103137 1.22026
0.175173 -0.00681679 0.810142
-0.119229 0.0304933 -0.0265971
0.0355167 0.0283362 0.345223
0.00360999 -0.0322588 0.123795
3.31859 -0.914051 5.4805
0.00662925 -0.500568 2.21601
0.0920386 0.111366 0.310853
-0.076646 -0.0200629 0.375863
-0.00236582 0.000477155 0.01857
0.20484 1.95428 2.35596
0.398733 0.083351 0.286133
0.099488 -0.0101618 0.54253
0.109022 0.0273018 -0.023308
-0.170776 -0.011161 0.77944
-0.0344184 0.030269 0.374749
0.00779603 -0.0239301 2.27323
0.00241879 -0.00181805 0.0302509
0 0 0
0 0 0
0 0 0
0 0 0
-0.0469034 -0.0186035 0.521271
0.00299533 0.00743511 0.106088
-0.231786 -0.139866 0.663019
-0.00123524 -0.00389223 0.0147702
-0.000968613 -0.000215654 0.0233566
0 0 0
0.0114675 0.0843382 0.582658
-0.000133789 0.00121327 0.0118892
-0.00422088 0.0413365 0.258798
0.121336 0.0334342 0.708851
0.00637601 0.00149447 1.36898
0 0 0
-0.000353802 -0.000274314 0.00424972
0 0 0
-0.356386 0.0509978 3.32376
0.000961611 0.00845956 0.0374403
0 0 0
0 0 0
0.160546 -0.106334 0.462773
0 0 0
0.000661011 -0.00203542 0.00741879
0.000275766 0.00155651 0.0318285
-0.0131852 0.0804745 0.598208
-0.128949 0.0379862 0.74051
0.000794116 0.01167 0.0936362
0.00280958 0.0428892 0.246654
0 0 0
-0.125277 -0.0241872 0.0368495
1.32534e-05 -0.000218819 0.00823196
0.0365437 -1.94287 0.876756
-0.00511023 -0.00299338 0.145045
0.00032994 -0.000586571 0.011038
0 0 0
-2.34321e-17 -3.22836e-18 1.79037e-19
0.000102784 0.000731294 0.00533695
0 0 0
0.00402646 0.00427686 0.124755
0.00144176 0.00160063 0.0145165
-0.0632442 0.347823 0.067058
0.000668123 0.0526529 0.387046
-0.0802478 -0.0937526 0.569292
-0.0149535 0.00640473 0.0668496
0.000666004 0.00105199 -0.00271558
6.28131e-05 0.00106948 -0.00881893
0.00802057 0.0140942 0.17277
0 0 0
0.0772446 -0.0132865 0.0224325
0 0 0
0 0 0
0.00330543 -0.0014935 0.0714839
0 0 0
0 0 0
-0.00115757 0.00295932 0.0252704
-0.00156402 0.000330591 0.0541588
0.0136177 0.00592839 0.0615665
0.0440888 -0.0432514 0.300671
0 0 0
-0.00729863 0.0114011 0.200986
0 0 0
0 0 0
0.000509675 -0.00927774 0.0355699
-2.04935e-07 -2.34192e-05 0.000565654
-8.37077e-07 -2.1862e-05 0.000387859
0 0 0
-4.4084e-05 0.00020469 0.0103971
0 0 0
0 0 0
0.00501093 0.0113192 0.270424
0.0012543 0.00915111 0.0976612
-0.0711719 0.102916 1.60106
0.000381404 0.00745797 0.0799659
-0.00243036 0.228532 0.376863
3.52827e-05 0.000318423 0.00964853
0 0 0
0 0 0
0 0 0
-0.00147678 -0.00646947 0.0276937
0 0 0
0 0 0
0 0 0
0.0530558 0.122949 1.69157
-0.000861578 0.00962858 0.113602
-0.00464178 0.00515324 0.0559275
-0.00957627 -0.0149458 0.0764554
0.00209414 -0.014886 0.0923511
0 0 0
0 0 0
-0.00130841 -0.00153088 0.0316574
3.16879e-05 -2.32804e-06 0.00241763
-0.00322259 0.0117132 0.152544
0 0 0
0.00161166 0.0119458 0.133279
1.99628e-05 0.000392277 0.00286039
0.0130232 0.0211781 0.209311
-0.0014509 -0.0011672 0.0219474
0.000928422 -0.000882721 0.016475
0.00265727 -0.00270507 0.0348088