# vtk DataFile Version 2.0
tet_velo
ASCII
DATASET UNSTRUCTURED_GRID
POINTS 29498 float
-0.723951 0.305 -1.975
-0.685214 0.345 2.075
-0.745 0.835 -1.83471
-0.660668 1.105 1.965
0.723954 0.305 -1.975
0.685211 0.345 2.075
0.745 0.835 -1.83471
0.660673 1.105 1.965
-0.800916 0.228456 -0.625
-0.798348 0.231445 0.725
-0.782323 0.990434 -0.56814
-0.740785 1.06701 0.69843
0.800923 0.22845 -0.625
0.79844 0.231352 0.725
0.782511 0.99062 -0.56814
0.740775 1.06699 0.69843
-1.49333 -0.104555 -3.04434
-1.50242 -0.0751525 -1.99775
-1.55096 -0.131542 -0.645595
-1.54538 -0.149434 0.723353
-1.47395 -0.0738493 2.07692
-1.4527 -0.0116802 3.13044
-1.45821 0.0391843 4.17113
-1.49322 0.230393 -3.00419
-1.50056 0.285209 -1.96671
-1.55857 0.249321 -0.63079
-1.53688 0.243465 0.712643
-1.43529 0.321837 2.05016
-1.42621 0.382767 3.1025
-1.44357 0.432009 4.14591
-1.50184 0.845457 -2.90047
-1.51053 0.897564 -1.85955
-1.54392 0.997906 -0.580497
-1.49684 1.05492 0.69264
-1.40869 1.10254 1.97329
-1.41123 1.15999 3.02907
-1.43498 1.21092 4.08594
-1.515 1.88492 -2.80762
-1.52036 1.95722 -1.77919
-1.52677 2.08796 -0.527193
-1.51184 2.20257 0.706823
-1.48291 2.27688 1.95969
-1.46958 2.32466 2.98994
-1.46866 2.37028 4.0377
-0.734448 -0.0936237 -3.04972
-0.729701 -0.0602607 -2.0056
-0.778495 -0.140832 -0.644541
-0.793782 -0.159094 0.7339
-0.743298 -0.0633916 2.09536
-0.726623 -0.00335655 3.14295
-0.730757 0.0439358 4.17837
-0.736034 0.233746 -3.00584
-0.704602 0.392628 3.11282
-0.719744 0.437366 4.15137
-0.744361 0.821536 -2.89015
-0.693976 1.16476 3.02741
-0.713965 1.21507 4.08558
-0.755156 1.8674 -2.79742
-0.758361 1.94001 -1.76795
-0.768316 2.08331 -0.520418
-0.767015 2.20743 0.706011
-0.751992 2.28197 1.95389
-0.741956 2.3285 2.98414
-0.739726 2.37341 4.03348
0.759345 -0.0936056 -3.04972
0.764907 -0.0602525 -2.0056
0.79675 -0.14084 -0.644541
0.770609 -0.159155 0.7339
0.696634 -0.0634143 2.09536
0.703064 -0.00337236 3.14295
0.713204 0.0439211 4.17837
0.747669 0.233762 -3.00584
0.698747 0.392617 3.11282
0.711992 0.437353 4.15137
0.749971 0.821559 -2.89015
0.691188 1.16476 3.02741
0.709678 1.21506 4.08558
0.760009 1.86744 -2.79742
0.7617 1.94007 -1.76795
0.752231 2.08337 -0.520418
0.72596 2.20745 0.70601
0.704631 2.28197 1.95389
0.705024 2.3285 2.98414
0.711722 2.3734 4.03348
1.5134 -0.104508 -3.04434
1.52149 -0.07511 -1.99775
1.56166 -0.131534 -0.645595
1.53776 -0.149512 0.723353
1.45467 -0.0739041 2.07692
1.43793 -0.0117165 3.13044
1.44451 0.0391542 4.17113
1.50081 0.230444 -3.00418
1.49915 0.28527 -1.96671
1.55928 0.249363 -0.630791
1.54302 0.243379 0.712643
1.4428 0.321789 2.05016
1.42711 0.382737 3.1025
1.43898 0.431981 4.14591
1.50242 0.845526 -2.90047
1.50499 0.897665 -1.85955
1.54146 0.998078 -0.580497
1.50212 1.05491 0.69264
1.41783 1.10251 1.97329
1.41516 1.15997 3.02907
1.43349 1.2109 4.08594
1.51669 1.88501 -2.80762
1.51926 1.95733 -1.77919
1.51129 2.08806 -0.527193
1.47914 2.20261 0.706823
1.44579 2.27688 1.95969
1.43879 2.32466 2.98994
1.44368 2.37027 4.0377
-0.779152 0.57 -1.94953
1.51992e-06 0.271852 -2.00815
-0.791048 0.238114 -1.3
-0.699956 0.725 2.04701
-1.49012e-06 0.320272 2.09973
-0.770975 0.259029 1.4
0 0.937547 -1.93726
-0.800156 0.949212 -1.20143
2.5034e-06 1.16579 2.02579
-0.717496 1.10277 1.33172
0.779154 0.57 -1.94953
0.791295 0.237869 -1.3
0.700056 0.725 2.04711
0.771304 0.258697 1.4
0.800053 0.949107 -1.20143
0.71749 1.10276 1.33172
-0.7798 0.249783 0.05
-0.880944 0.609445 -0.59657
3.34568e-06 0.214474 -0.625
-0.880066 0.649225 0.711715
4.58273e-05 0.220284 0.725
-0.757965 1.02513 0.065145
9.40659e-05 1.39339 -0.56814
-4.83749e-06 1.52166 0.69843
0.779799 0.249784 0.05
0.880793 0.609535 -0.59657
0.880091 0.649173 0.711715
0.758113 1.02528 0.065145
-0.880503 0.589722 -1.25071
-0.876663 0.629335 0.0575725
-0.88733 0.687113 1.36586
2.4328e-06 0.235179 -1.3
2.45865e-05 0.228477 0.05
2.21686e-05 0.242755 1.4
7.59959e-07 0.57 -2.19753
5.06639e-07 0.725 2.15203
4.7033e-05 1.06748 -1.20143
4.46142e-05 1.51273 0.065145
-1.16705e-06 1.50771 1.33172
0.880501 0.589768 -1.25071
0.876655 0.629354 0.0575725
0.887329 0.687086 1.36586
-1.11225 0.295104 -1.97086
-0.726826 0.12237 -1.9903
-0.729993 0.269373 -2.49042
-1.06025 0.333419 2.06258
-0.714256 0.140804 2.08518
-0.694908 0.368814 2.59391
-1.12776 0.866282 -1.84713
-0.74468 0.828268 -2.36243
-0.75168 1.38751 -1.80133
-1.03468 1.10377 1.96914
-0.677322 1.13488 2.49621
-0.70633 1.69348 1.95944
0.74443 0.122374 -1.9903
0.735811 0.269381 -2.49042
1.11155 0.295135 -1.97086
0.690922 0.140793 2.08518
0.691979 0.368809 2.59391
1.06401 0.333394 2.06258
0.747485 0.828279 -2.36243
0.75335 1.38754 -1.80133
1.12499 0.866333 -1.84713
0.675931 1.13488 2.49621
0.682652 1.69348 1.95944
1.03925 1.10375 1.96914
-1.17974 0.238889 -0.627895
-0.789705 0.0438117 -0.634771
-1.16761 0.237455 0.718821
-0.796065 0.0361753 0.72945
-1.16312 0.99417 -0.574319
-0.775319 1.53687 -0.544279
-1.11881 1.06096 0.695535
-0.7539 1.63722 0.70222
0.798837 0.0438049 -0.634771
1.1801 0.238907 -0.627895
0.784524 0.0360986 0.72945
1.17073 0.237366 0.718821
0.767371 1.53699 -0.544279
1.16199 0.994349 -0.574319
0.733368 1.63722 0.70222
1.12145 1.06095 0.695535
-1.49787 -0.089854 -2.52104
-1.49328 0.0629185 -3.02426
-1.11389 -0.0990896 -3.04703
-1.52669 -0.103347 -1.32167
-1.50149 0.105028 -1.98223
-1.11606 -0.0677066 -2.00168
-1.54817 -0.140488 0.0388793
-1.55477 0.0588895 -0.638193
-1.16473 -0.136187 -0.645068
-1.50967 -0.111642 1.40014
-1.54113 0.0470151 0.717998
-1.16958 -0.154264 0.728627
-1.46332 -0.0427648 2.60368
-1.45462 0.123994 2.06354
-1.10862 -0.0686204 2.08614
-1.45545 0.013752 3.65078
-1.43946 0.185544 3.11647
-1.08966 -0.00751839 3.13669
-1.45089 0.235597 4.15852
-1.09448 0.04156 4.17475
-1.49689 0.257801 -2.48545
-1.49753 0.537925 -2.95233
-1.11463 0.232069 -3.00501
-1.52956 0.267265 -1.29875
-1.50554 0.591387 -1.91313
-1.54773 0.246393 0.0409262
-1.55125 0.623614 -0.605644
-1.48609 0.282651 1.3814
-1.51686 0.649193 0.702641
-1.43075 0.352302 2.57633
-1.42199 0.712188 2.01173
-1.43489 0.407388 3.62421
-1.41872 0.771378 3.06579
-1.06541 0.387698 3.10766
-1.43927 0.821464 4.11592
-1.08166 0.434688 4.14864
-1.50618 0.871511 -2.38001
-1.50842 1.36519 -2.85404
-1.1231 0.833496 -2.89531
-1.52722 0.947735 -1.22002
-1.51544 1.42739 -1.81937
-1.52038 1.02641 0.0560712
-1.53535 1.54293 -0.553845
-1.45276 1.07873 1.33296
-1.50434 1.62874 0.699732
-1.40996 1.13126 2.50118
-1.4458 1.68971 1.96649
-1.42311 1.18545 3.5575
-1.4404 1.74232 3.00951
-1.05261 1.16238 3.02824
-1.45182 1.7906 4.06182
-1.07447 1.21299 4.08576
-1.51768 1.92107 -2.2934
-1.13508 1.87616 -2.80252
-1.52356 2.02259 -1.15319
-1.13936 1.94862 -1.77357
-1.51931 2.14526 0.0898154
-1.14754 2.08563 -0.523805
-1.49738 2.23972 1.33326
-1.13943 2.205 0.706417
-1.47624 2.30077 2.47482
-1.11745 2.27942 1.95679
-1.46912 2.34747 3.51382
-1.10577 2.32658 2.98704
-1.10419 2.37184 4.03559
-0.732075 -0.0769422 -2.52766
-0.735241 0.070061 -3.02778
0.0124483 -0.0936147 -3.04972
-0.754098 -0.100547 -1.32507
0.0176026 -0.0602566 -2.0056
-0.786138 -0.149963 0.0446795
0.00912789 -0.140836 -0.644541
-0.76854 -0.111243 1.41463
-0.0115862 -0.159125 0.7339
-0.73496 -0.0333741 2.61916
-0.0233322 -0.063403 2.09536
-0.72869 0.0202896 3.66066
-0.715612 0.194636 3.12788
-0.0117793 -0.00336446 3.14295
-0.725251 0.240651 4.16487
-0.00877653 0.0439284 4.17837
-0.740198 0.527641 -2.948
0.00581725 0.233754 -3.00584
-0.712173 0.414997 3.63209
-0.699289 0.778696 3.07011
-0.00292755 0.392623 3.11282
-0.716855 0.826217 4.11848
-0.00387605 0.43736 4.15137
-0.749758 1.34447 -2.84378
0.0028048 0.821547 -2.89015
-0.703971 1.18992 3.5565
-0.717966 1.74663 3.00578
-0.00139407 1.16476 3.02741
-0.726846 1.79424 4.05953
-0.00214353 1.21506 4.08558
-0.756758 1.9037 -2.28268
0.00242639 1.86742 -2.79742
-0.763338 2.01166 -1.14418
0.00166974 1.94004 -1.76795
-0.767665 2.14537 0.0927963
-0.00804206 2.08334 -0.520418
-0.759503 2.2447 1.32995
-0.0205271 2.20744 0.70601
-0.746974 2.30523 2.46902
-0.0236804 2.28197 1.95389
-0.740841 2.35095 3.50881
-0.0184658 2.3285 2.98414
-0.014002 2.37341 4.03348
0.762126 -0.0769291 -2.52766
0.753507 0.0700783 -3.02778
1.13637 -0.099057 -3.04703
0.780828 -0.100546 -1.32507
1.1432 -0.0676813 -2.00168
0.78368 -0.149998 0.0446795
1.1792 -0.136187 -0.645068
0.733621 -0.111285 1.41463
1.15419 -0.154333 0.728627
0.699849 -0.0333933 2.61916
1.07565 -0.0686592 2.08614
0.708134 0.0202744 3.66066
0.700906 0.194622 3.12788
1.0705 -0.00754442 3.13669
0.712598 0.240637 4.16487
1.07886 0.0415377 4.17475
0.74882 0.527661 -2.948
1.12424 0.232103 -3.00501
0.70537 0.414985 3.63209
0.694968 0.778687 3.07011
1.06293 0.387677 3.10766
0.710835 0.826205 4.11848
1.07548 0.434667 4.14864
0.75499 1.3445 -2.84378
1.12619 0.833542 -2.89531
0.700433 1.18991 3.5565
0.698106 1.74663 3.00578
1.05318 1.16236 3.02824
0.7107 1.79423 4.05953
1.07159 1.21298 4.08576
0.760855 1.90376 -2.28268
1.13835 1.87623 -2.80252
0.756966 2.01172 -1.14418
1.14048 1.9487 -1.77357
0.739096 2.14541 0.0927962
1.13176 2.08572 -0.523806
0.715296 2.24471 1.32995
1.10255 2.20503 0.706417
0.704828 2.30523 2.46902
1.07521 2.27943 1.95679
0.708373 2.35095 3.50881
1.07191 2.32658 2.98704
1.0777 2.37184 4.03559
1.51744 -0.0898092 -2.52104
1.50711 0.0629679 -3.02426
1.54158 -0.103322 -1.32167
1.51032 0.10508 -1.98223
1.54971 -0.140523 0.0388792
1.56047 0.0589143 -0.638193
1.49622 -0.111708 1.40014
1.54039 0.0469334 0.717998
1.4463 -0.0428103 2.60368
1.44874 0.123942 2.06354
1.44122 0.0137189 3.65078
1.43252 0.18551 3.11647
1.44174 0.235568 4.15852
1.49998 0.257857 -2.48545
1.50161 0.537985 -2.95233
1.52921 0.267317 -1.29875
1.50207 0.591468 -1.91313
1.55115 0.246371 0.0409261
1.55037 0.623721 -0.605644
1.49291 0.282584 1.3814
1.52257 0.649143 0.702641
1.43496 0.352263 2.57633
1.43032 0.712148 2.01173
1.43304 0.407359 3.62421
1.42114 0.771351 3.06579
1.43624 0.82144 4.11592
1.5037 0.871595 -2.38001
1.50955 1.36527 -2.85404
1.52322 0.947872 -1.22002
1.51213 1.4275 -1.81937
1.52179 1.02649 0.0560711
1.52638 1.54307 -0.553845
[...]
POINT_DATA 29498
VECTORS point_vectors float
-1.5122 -1.55005 3.19643
0.104945 0.0927126 0.454537
-1.15762 0.440306 1.88865
-0.0603819 -0.120824 0.108544
1.50246 -1.5369 3.17393
-0.111514 0.0803515 0.44354
1.15331 0.438325 1.88178
0.0686218 -0.113603 0.0882155
0.0224698 0.0276392 0.809999
0.025524 -0.180578 1.09145
0 0 0
0 0 0
-0.0228283 0.0277679 0.809723
-0.0223061 -0.175374 1.02657
1.3159e-18 -5.39753e-18 -7.06485e-17
0 0 0
-0.670398 -0.345736 19.8624
-1.27216 -0.793447 20.5639
-0.44253 -0.403768 21.4373
0.0763444 -0.0928747 21.5898
0.692947 0.212096 21.5764
1.038 0.326605 21.2779
1.03806 0.220043 20.6218
-0.837715 -0.273918 19.7178
-1.84581 -0.689772 20.5398
-0.5824 -0.49927 21.5588
0.0543896 -0.25752 21.6692
0.973058 -0.034855 21.6738
1.35988 0.0468393 21.227
1.16717 0.200935 21.0618
-1.02279 0.0814793 19.63
-2.06714 0.117321 20.5087
-1.17301 -0.328242 21.5542
-0.314666 -0.40062 21.7559
0.50165 -0.677985 21.7263
0.808298 -0.786803 21.4589
0.882415 -0.749552 20.4558
-0.616976 0.405696 19.9728
-0.970053 0.626567 20.4479
-0.874862 0.408766 21.1835
-0.365993 -0.00333332 21.5152
0.00914005 -0.268454 21.4415
0.167928 -0.415399 21.227
0.197165 -0.45547 20.9049
-0.669235 -0.766212 19.2481
-1.85867 -3.33575 20.727
-0.418572 -0.471186 21.9523
0.030076 0.0448972 21.6665
0.645678 1.22913 20.4572
1.09578 1.61997 19.7699
0.846297 1.29395 19.7126
-0.936989 -0.682663 18.7406
2.02279 1.2051 10.7006
2.32914 1.3 14.3125
-1.3016 0.315677 18.2619
0.0299283 -1.10229 6.58278
1.46523 -1.69875 13.6144
-0.560917 0.844581 19.5643
-1.04127 1.60448 20.1668
-1.18873 1.48087 21.4005
-0.471804 0.334319 21.8288
-0.136679 -0.244409 21.5946
-0.0149529 -0.462758 21.2665
0.117184 -0.622295 20.6631
0.676183 -0.740527 19.2652
1.91214 -3.19107 20.6922
0.404926 -0.467017 21.9398
-0.0347581 0.0439268 21.6277
-0.61201 1.21112 20.3056
-1.07987 1.57367 19.6468
-0.839873 1.31602 19.6629
0.950625 -0.675078 18.7639
-1.99396 1.06 10.3389
-2.36038 1.29144 13.963
1.30359 0.313481 18.2735
0.32339 -1.00195 5.4352
-1.40531 -1.60218 12.7942
0.562089 0.842757 19.5663
1.04094 1.60053 20.1676
1.17282 1.511 21.3981
0.452965 0.372914 21.8364
0.12287 -0.205785 21.5904
-0.000969461 -0.423463 21.3067
-0.0995328 -0.601884 20.6205
0.665263 -0.332288 19.861
1.25555 -0.76082 20.5607
0.448906 -0.412422 21.4242
-0.0724933 -0.0993439 21.5705
-0.681292 0.209115 21.583
-1.04384 0.328133 21.2778
-1.05437 0.226354 20.6524
0.831845 -0.267473 19.7269
1.85076 -0.696531 20.5396
0.579012 -0.500261 21.5567
-0.0504874 -0.26587 21.6549
-0.935884 -0.0703964 21.6565
-1.32884 0.00636935 21.2451
-1.16815 0.183923 21.0657
1.02099 0.0768698 19.6338
2.08501 0.121728 20.5064
1.17305 -0.330614 21.5597
0.313426 -0.394605 21.7458
-0.452286 -0.657981 21.6546
-0.744988 -0.76407 21.4698
-0.898067 -0.735893 20.4264
0.61632 0.403327 19.9751
0.966825 0.626883 20.4466
0.876595 0.421482 21.1907
0.378228 0.0255595 21.5242
0.0105348 -0.244338 21.4416
-0.154188 -0.393218 21.2035
-0.143746 -0.450838 21.0507
-0.84165 -0.143811 1.414
6.68297e-05 -0.0480523 0.278805
-0.0179514 -0.0144736 0.661745
0 0 0
-0.00095347 0.00834094 0.0445607
0.0104666 0.0215386 0.401207
-4.4835e-05 0.0569882 0.178381
-0.256239 -0.179141 0.61019
0 0 0
0 0 0
0.837105 -0.143771 1.4073
0.0180808 -0.0161077 0.678432
0 0 0
-0.00995492 0.0188239 0.381037
0.252824 -0.177306 0.603247
0 0 0
0.0112598 0.0100615 1.12491
0.00193931 0.00837575 0.171402
-1.3711e-05 0.000324371 0.0257254
-0.00162773 0.0185364 0.140503
0 0 0
0 0 0
-1.3133e-05 0.00195809 0.00453308
0 0 0
-0.0131544 0.00867097 1.12438
-0.00190047 0.00825062 0.170904
0.00163285 0.0184794 0.142415
0 0 0
-0.000224572 -0.000285338 0.0063391
0.00479927 0.0279889 0.184952
0.00305965 0.00485706 0.124206
-5.69386e-06 -0.000392867 0.0151604
-3.10222e-05 -0.000540568 0.0253197
0 0 0
0 0 0
-0.000930297 -0.00596649 0.00150027
0 0 0
-3.73043e-06 0.000163548 0.00297704
-0.000285959 -0.000855223 0.0185736
0.000217347 -0.000275162 0.00613715
-0.00509913 0.0293291 0.188315
-0.00302721 0.00426641 0.123365
-3.48848 -1.77243 20.4601
-3.03954 -5.34026 20.918
-2.56844 -2.03753 17.5014
1.56321 0.487641 18.4473
0.794224 1.41803 13.5979
1.2933 0.658887 7.1058
-4.07876 0.636314 20.4837
-3.85726 1.69098 16.5803
-2.35328 2.72852 19.9511
0.740583 -0.700628 17.8482
-0.635414 -1.01984 3.11383
-0.0554006 -0.564513 19.2818
3.12536 -5.14031 20.8731
2.57397 -2.02359 17.5307
3.50431 -1.78591 20.4637
-0.757084 1.33475 12.9734
-1.30519 0.45327 6.84697
-1.52698 0.411347 18.4752
3.85139 1.6794 16.6045
2.35068 2.72254 19.9493
4.10748 0.646417 20.4784
0.753225 -1.04741 2.1127
0.0187774 -0.461053 18.7795
-0.659275 -0.69426 17.8921
-0.353578 -0.717624 21.8313
-0.24792 -0.0995056 19.0921
0.145584 -0.247262 21.0053
0.287785 -0.00495441 18.0598
-1.77085 -0.960135 21.8223
-3.61689 2.02404 21.9439
-0.28159 -0.566912 20.1392
-0.832516 0.168653 20.6586
0.23907 -0.100765 19.304
0.352388 -0.719212 21.8283
-0.319299 -0.0141833 17.8012
-0.147151 -0.262822 21.0053
3.63834 2.08976 21.9366
1.77062 -0.96742 21.795
0.759708 0.209007 20.1909
0.28877 -0.568758 20.1628
-1.03248 -0.599739 20.0408
-0.778644 -0.326821 19.774
-0.730471 -0.544881 19.5802
-0.9018 -0.640174 21.2305
-1.55371 -0.77382 20.5575
-1.79545 -1.68383 20.5578
-0.153407 -0.231053 21.5347
-0.536705 -0.460517 21.4858
-0.377768 -0.494166 21.6903
0.355135 0.0448626 21.6641
0.0589163 -0.188097 21.5967
0.105065 -0.0718426 21.7553
0.878471 0.297129 21.4663
0.839553 0.12515 21.6394
0.900419 0.666591 21.5574
1.04628 0.29824 21.1273
1.20767 0.194311 21.3241
1.27738 0.805736 21.4037
1.10404 0.206306 20.858
0.967011 0.540625 21.5776
-1.41881 -0.493871 19.8874
-0.964089 -0.119574 19.6334
-0.935433 -0.435088 19.3308
-1.24265 -0.656741 21.3769
-2.06817 -0.304032 20.5276
-0.215468 -0.369478 21.5924
-0.868175 -0.502171 21.5848
0.441429 -0.158533 21.8108
-0.0879216 -0.371383 21.7565
1.19209 -0.0141152 21.4919
0.900408 -0.444804 21.6578
1.46855 -0.0761721 21.1633
1.31528 -0.534496 21.236
2.06878 0.430371 19.3484
1.14828 -0.403242 20.6444
1.80171 0.118358 20.1452
-1.69161 0.132249 19.8185
-0.836958 0.359533 19.7569
-1.23647 0.18379 19.0782
-1.70226 -0.145012 21.2418
-1.51085 0.598242 20.4206
-0.692008 -0.3991 21.7167
-1.23823 0.184546 21.3851
0.0750761 -0.48814 21.8289
-0.463203 -0.155241 21.6735
0.697967 -0.762468 21.5922
0.0881966 -0.455507 21.5613
1.00508 -0.748892 21.3228
0.384668 -0.605509 21.3541
1.05925 -0.988771 19.882
0.449155 -0.782164 20.5227
1.53567 -1.33725 19.926
-0.814735 0.567817 20.1576
-0.642947 0.623293 19.7837
-0.985747 0.566934 20.8435
-1.10252 1.02833 20.3428
-0.632321 0.200335 21.4432
-1.09646 0.816826 21.312
-0.159462 -0.154247 21.5362
-0.457759 0.141711 21.6752
0.0921291 -0.345002 21.3799
-0.0733672 -0.285717 21.5384
0.186586 -0.340011 21.0999
0.0878121 -0.468524 21.3223
0.162192 -0.565535 21.2483
-1.3633 -1.87718 19.0825
-0.792104 -0.740759 18.9871
0.0121141 -1.05911 18.861
-0.842386 -1.37983 22.097
0.0355855 -4.67589 21.3003
-0.164298 -0.114582 21.7012
0.00446844 -0.820669 21.8845
0.270358 0.508088 21.2608
-0.011176 -0.108599 20.7242
0.874525 1.44267 20.3091
-0.0199457 0.969906 18.0652
1.26767 1.6676 19.805
1.66136 1.78904 16.3864
-0.0137487 1.56278 18.0243
1.72724 1.4102 16.1587
0.0123491 2.44956 17.4738
-1.23954 -0.264858 18.3248
0.0148328 -0.981116 18.0119
2.32418 1.34264 12.9541
1.23507 -0.596731 6.48186
0.0019216 0.615652 3.97278
2.43725 -0.11482 12.1964
0.0287912 2.31044 7.92483
-0.92931 0.912546 18.9545
0.00695863 0.567147 16.9652
1.01405 -1.17559 9.34157
0.0678957 -0.862698 20.52
0.181605 1.98123 -5.22487
0.0890527 -1.22127 18.5945
0.196714 2.31361 -3.98565
-0.829404 1.30843 19.7519
0.00235994 1.13411 19.3401
-1.19377 1.67209 20.7028
0.00223532 2.24564 19.9549
-0.820169 0.861738 21.8018
-0.0182173 2.54843 21.4521
-0.247951 -0.0312947 21.723
-0.0286992 0.656309 22.004
-0.0867728 -0.352249 21.5418
-0.0313577 -0.102895 21.5686
0.00937964 -0.513011 20.765
-0.0414595 -0.346475 21.5634
-0.020641 -0.649064 20.698
1.38208 -1.79553 19.1148
0.806939 -0.718185 19.0102
0.730322 -0.536134 19.5901
0.847251 -1.35835 22.0436
1.74279 -1.57865 20.5534
0.15823 -0.114605 21.6976
0.378182 -0.495442 21.6741
-0.267152 0.488826 21.1411
-0.111262 -0.0764548 21.7457
-0.831871 1.40168 19.8005
-0.912368 0.688149 21.4841
-1.30831 1.68485 19.6876
-1.65949 1.6984 16.1231
-1.28355 0.823494 21.4527
-1.7257 1.39988 16.0093
-0.99781 0.51462 21.6247
1.24938 -0.261256 18.3404
0.937393 -0.431111 19.3388
-2.29635 1.2982 12.6403
-1.03976 -0.647105 5.96957
-2.02551 0.367045 19.2748
-2.37769 -0.0721126 11.6235
-1.83762 0.120816 19.9801
0.928429 0.910047 18.9535
1.23269 0.181599 19.0799
-0.827262 -1.10553 8.2672
-0.0498582 -0.719075 20.2663
-0.929385 -0.962356 19.8103
-0.113059 -1.18024 18.2571
-1.48736 -1.41196 19.9771
0.830391 1.30521 19.7537
0.643042 0.620835 19.7853
1.18722 1.68768 20.6973
1.09997 1.02743 20.3425
0.803506 0.900677 21.8111
1.10179 0.841278 21.3108
0.23004 -0.00172623 21.7191
0.459 0.160664 21.6747
0.0647666 -0.304795 21.5461
0.0823938 -0.260066 21.519
-0.0157224 -0.460266 20.8483
-0.0854627 -0.435097 21.346
-0.213694 -0.566721 21.2533
1.01115 -0.574248 20.0651
0.769912 -0.314182 19.7882
0.911719 -0.634376 21.2111
1.53609 -0.763418 20.5616
0.148499 -0.240403 21.5329
0.536433 -0.464708 21.4723
-0.35236 0.0320244 21.6591
-0.0527638 -0.199312 21.5729
-0.874029 0.288415 21.473
-0.826612 0.0970604 21.6317
-1.0637 0.297723 21.1322
-1.19739 0.17676 21.3376
-1.10991 0.203718 20.8911
1.41488 -0.490766 19.8886
0.955935 -0.120257 19.6423
1.24448 -0.660393 21.3762
2.08588 -0.308153 20.5281
0.213825 -0.374906 21.5886
0.866933 -0.507575 21.5852
-0.428882 -0.173371 21.7927
0.0915518 -0.370379 21.7415
-1.15312 -0.0511956 21.4923
-0.843567 -0.45783 21.6374
-1.45476 -0.103124 21.2124
-1.25942 -0.552629 21.2494
-1.12248 -0.408912 20.6133
1.69137 0.133068 19.8213
0.833862 0.359613 19.7583
1.70916 -0.144781 21.2504
1.51162 0.60238 20.4193
0.690012 -0.398261 21.7085
1.24533 0.192507 21.3888
-0.0537104 -0.479418 21.7956
0.467309 -0.149886 21.6776
-0.627863 -0.740804 21.5883
-0.0658069 -0.441739 21.559
-0.953403 -0.748235 21.3648
-0.336356 -0.588105 21.3876
-0.448884 -0.774059 20.5739
0.813691 0.566753 20.1564
0.990344 0.577311 20.8419
0.63957 0.221757 21.4461
0.166999 -0.140918 21.5193
-0.0794788 -0.319496 21.3724
-0.163542 -0.363086 21.1379
-1.26028 -0.569991 19.9556
-1.86985 -2.17467 18.4035
-1.31869 -1.09839 19.6534
-2.03786 -0.964294 19.1651
-0.844208 -0.526095 19.4564
-2.48681 -1.85919 20.5504
-1.0731 -0.670483 21.3003
-0.686387 -1.0382 20.1313
-0.975937 -1.05546 21.5987
-1.471 -1.24455 22.0093
-0.351436 -0.563453 21.8221
-0.191129 -0.309222 21.5564
0.0485003 0.105275 17.7675
-0.0879892 -0.236305 21.6637
0.0435083 -0.415996 21.2443
0.166877 -0.151413 21.6389
0.390217 -0.0409022 21.7307
0.417761 0.476228 15.704
0.442932 0.238907 21.8311
0.672911 0.0964409 19.9493
1.29929 0.679942 20.8133
1.09007 0.187126 21.4507
1.16906 1.53539 14.9602
1.12256 0.79221 21.3896
1.81786 0.464668 19.0252
1.7282 0.666267 20.6509
1.29993 0.130223 21.0943
1.84228 1.55711 15.5335
1.50958 1.01296 21.2616
2.31093 0.452377 19.3614
1.35786 0.345735 20.8918
-1.61372 -0.190326 19.8261
-3.76567 -0.583763 16.3118
-2.71255 0.523722 18.9479
-1.16496 -0.184084 19.1272
-4.34317 -0.649821 20.4563
-1.53494 -0.474576 21.3681
-2.73855 -0.392904 21.7674
-0.77361 -1.02129 21.4504
-0.406577 -0.443945 21.6652
-0.873971 -0.934093 21.0839
0.0300165 -0.285175 19.3475
0.343067 -0.370838 21.8733
0.252279 -0.390932 19.1991
1.42007 -0.225066 16.0289
1.12163 -0.475841 21.444
0.272914 -1.18916 2.93677
0.76374 -0.913784 18.9495
1.77845 -0.419712 18.5427
1.34559 -0.481724 21.28
2.25044 -0.0833 8.61616
1.43355 -1.23102 19.8774
2.0717 -0.856859 19.3343
-1.24081 0.528642 19.9655
-1.7506 1.97936 18.9333
-0.891254 0.874816 19.9874
-0.967638 0.589143 19.4217
-2.0986 1.31793 20.2608
-1.48259 0.412204 20.9828
-2.8474 2.26318 20.5388
-1.19531 1.02245 20.8188
-2.04725 0.531135 21.6646
-0.839501 -0.0106214 21.6293
-1.9892 0.603197 21.9778
-0.787406 0.470178 21.6155
-0.710532 -0.122733 21.9451
-0.146427 -0.309253 21.6821
-0.236316 -0.234145 20.0682
-0.229516 -0.107942 21.6282
-0.0430301 -0.607583 21.6651
0.211223 -0.567291 21.4194
-0.0862029 -0.69225 19.848
0.0225596 -0.395199 21.3349
0.301778 -0.931329 21.2857
0.430206 -0.548549 21.2289
0.291145 -1.15345 18.1991
0.158007 -0.590919 21.1575
0.231749 -0.801231 21.9829
1.8863 -2.09396 18.4671
0.0323955 -2.9226 18.3929
0.0169944 -4.06918 15.2594
0.0219505 -1.0644 18.4372
0.0192271 -6.66252 22.7192
0.703384 -1.06983 20.4499
0.0127075 -1.80746 22.4739
-0.000137916 -0.403813 14.9375
-0.0566138 0.102601 17.7385
-0.00525723 -0.36531 20.9733
-0.00655277 -0.011807 13.2047
-0.44734 0.428002 15.4076
-0.00612861 0.298393 19.4502
-0.0428439 0.802079 9.14909
-1.14362 1.43544 14.5309
-0.02899 1.21432 17.8996
-0.120025 -0.144589 2.14213
-0.0668248 1.05251 10.0784
-1.83993 1.53189 15.3591
0.0123991 2.12259 17.7324
0.0288111 1.49891 4.19618
0.0197038 2.38724 12.9831
3.74868 -0.584488 16.3641
0.0107831 4.51171 12.2713
0.00857641 -0.402567 17.1435
-0.196374 -1.44836 2.61226
0.0470044 0.224875 -3.81757
0.336653 0.00445201 -2.17115
-2.11284 -0.119382 7.9217
0.296134 2.2344 -3.64304
0.258824 3.08049 -2.11607
1.75056 1.97358 18.9343
0.00254664 1.82403 19.5184
0.00351671 1.35201 18.3262
0.000469958 4.11008 19.5518
2.84163 2.27966 20.528
-0.0103597 2.53936 20.4849
-0.0273728 5.66149 21.3947
1.9815 0.637208 21.813
-0.0254078 1.51934 22.0463
-0.0254464 0.772752 19.1117
0.159939 -0.169337 19.4741
-0.0267355 0.138465 21.8311
-0.110461 -0.0451746 13.171
0.0690914 -0.556017 19.4492
-0.0288782 -0.203322 21.6074
-0.211562 -0.195144 14.7032
-0.266712 -1.04253 17.8267
-0.0343637 -0.550062 21.2304
-0.100329 -0.244797 12.9492
1.23302 -0.551856 19.9801
1.30513 -1.06456 19.6741
2.03251 -0.95762 19.1744
0.842843 -0.517857 19.4665
2.43115 -1.80332 20.5426
1.07527 -0.66692 21.2829
0.985136 -1.03891 21.5628
1.47286 -1.24625 22.0071
0.358264 -0.566833 21.8069
0.189053 -0.315273 21.5554
0.0853458 -0.241262 21.6514
-0.0444083 -0.421434 21.2378
-0.168774 -0.159586 21.6088
-0.386858 -0.0560071 21.7232
-0.443815 0.244306 21.7987
-0.667107 0.0635408 19.9979
-1.30008 0.661378 20.6522
-1.0705 0.155763 21.4511
-1.12629 0.791572 21.375
-1.76088 0.38264 18.9711
-1.71932 0.645864 20.5259
-1.3111 0.109049 21.1063
-1.51995 1.01024 21.3313
-2.28817 0.420903 19.3142
-1.39522 0.337087 20.7538
1.61751 -0.193636 19.8314
2.70969 0.522862 18.945
1.15599 -0.182141 19.1412
4.35868 -0.654405 20.4513
1.53897 -0.477162 21.3717
2.74509 -0.395277 21.7662
0.770692 -1.0241 21.4433
0.403768 -0.449291 21.6601
0.873149 -0.9366 21.0771
-0.0256092 -0.301278 19.4141
-0.32058 -0.376544 21.847
-0.229013 -0.408915 19.2746
-1.3455 -0.282376 16.0642
-1.05387 -0.495724 21.4458
-0.638441 -0.885105 18.853
-1.68918 -0.460509 18.4028
-1.31569 -0.492057 21.3082
-1.3913 -1.23297 19.7784
-2.05721 -0.931921 19.273
1.23969 0.52931 19.9661
0.889028 0.872266 19.9879
0.963083 0.58537 19.4222
2.09472 1.31971 20.2553
1.49299 0.419001 20.9813
1.19354 1.03319 20.8142
2.06556 0.545956 21.6642
0.844707 -0.0043513 21.6289
0.794887 0.499018 21.6236
0.722353 -0.111948 21.9432
0.158385 -0.293441 21.6524
0.227047 -0.0916605 21.6262
0.0786173 -0.564331 21.6358
-0.179623 -0.544764 21.4227
-0.0141148 -0.355324 21.3215
-0.233119 -0.861412 21.2655
-0.414006 -0.562224 21.1806
-0.142611 -0.562938 21.1599
-0.209171 -0.819925 22.1956
-1.66155 -1.12587 19.4571
-1.17761 -1.16678 21.7818
0.00287475 -0.291488 21.6536
0.617967 0.191647 21.5432
1.56197 0.746481 20.5368
1.91613 0.768035 20.4189
-2.58553 -0.354568 18.8906
-2.13913 -1.0427 22.2492
-0.165393 -0.672524 20.1239
0.519473 -0.0714279 18.0313
1.57594 -0.477667 17.3424
2.02664 -0.521154 19.305
-1.60704 1.07004 19.5758
-2.20499 0.930589 20.9789
-1.30261 0.112915 21.9907
-0.295263 -0.36765 21.8839
0.0782138 -0.732786 21.5588
0.462196 -1.08236 21.3043
0.036135 -3.69645 17.2094
0.00074418 -0.988464 16.5206
-0.00488026 -0.0877847 13.1215
-0.0125574 0.205936 11.1422
-0.0646074 0.802312 9.205
0.0206385 1.77321 11.0975
0.0142779 -1.11832 11.5164
0.0801231 -0.24761 0.0762619
0.308102 2.76763 -3.021
0.0026849 3.33274 18.1936
-0.0117776 4.4294 19.5247
-0.0294779 2.30103 20.9763
-0.0339861 0.067229 17.3603
-0.140265 -0.0440231 14.2115
-0.100914 -0.827118 13.0896
1.65237 -1.10241 19.4753
1.18391 -1.15835 21.7586
-0.00364159 -0.29551 21.637
-0.620718 0.182133 21.4826
-1.54715 0.703393 20.4062
-1.91034 0.737197 20.4011
2.57433 -0.351941 18.9034
2.139 -1.0459 22.2525
0.165898 -0.676806 20.1505
-0.505002 -0.101389 18.1033
-1.45697 -0.534211 17.2294
-2.00625 -0.552645 19.1599
1.60063 1.06611 19.574
2.20659 0.940307 20.9713
1.3207 0.123723 21.9953
0.308804 -0.349744 21.873
-0.0289819 -0.671549 21.5205
-0.426007 -1.05092 21.4153
-0.378159 -0.153082 0.714845
0.00899488 -0.282242 0.623234
-0.0607537 -0.111492 1.76243
0.0444973 -0.0620638 0.0812966
-0.000407952 0.0156869 0.0781464
0.0942207 0.142498 0.646562
0 0 0
-0.00194447 0.151756 0.39091
-0.165357 -0.0636526 0.762535
-0.0157304 -0.0866358 0.0098768
-0.0381187 0.00674812 -0.00991206
0 0 0
-0.00820633 -0.279916 0.617116
0.366948 -0.149297 0.699277
0.0592392 -0.109399 1.6563
-0.00260364 0.0154599 0.0784521
-0.0468034 -0.0760548 0.0805412
-0.10306 0.142626 0.658208
0.00214607 0.14998 0.387266
0 0 0
0.164222 -0.063476 0.759012
0.0308797 0.018006 -0.0199527
0.0219947 -0.100469 0.00581487
0 0 0
0 0 0
0.0490406 0.0157035 1.18847
0 0 0
0 0 0
-0.00164141 0.035794 0.740298
0.010729 -0.00338817 1.3437
0 0 0
9.13941e-18 -1.91878e-18 1.59186e-16
0 0 0
0.000477139 0.00197652 0.0294229
0 0 0
-0.0699835 0.0801743 0.209994
0 0 0
0 0 0
-5.7703e-18 -1.36949e-17 -4.46726e-17
0.014075 0.000990237 0.126243
0.0055283 -0.00898424 0.168911
0 0 0
-0.0503365 0.0148166 1.19004
0 0 0
-0.00161524 0.0352918 0.75382
0 0 0
-0.0128893 -0.00591796 1.34627
0 0 0
0 0 0
0.0722036 0.0835412 0.217364
-0.000472407 0.00196073 0.0294673
0 0 0
0 0 0
-0.0148368 0.00110065 0.125879
0 0 0
0 0 0
-0.00190012 -0.0018714 0.0251672
0 0 0
-3.09487e-06 -0.000172939 0.016607
-0.000413069 -0.749759 0.689669
-0.00189213 -0.000274662 0.0497725
0.0013497 -0.0016723 0.0476943
0.060465 -0.00864996 0.348051
1.63676e-18 2.46939e-18 -6.03541e-19
0 0 0
-0.000432517 -0.0040401 0.000394982
3.3667e-18 5.70849e-18 1.17533e-16
5.36719e-06 3.81459e-07 0.000154927
-3.56507e-06 0.0194775 0.00847562
4.97058e-05 0.00791373 0.0427463
-0.0229775 -0.0325588 0.212028
0 0 0
-0.0199813 -0.13457 -0.0260684
-0.00481398 0.00863743 -0.0144386
0 0 0
0.000788296 -0.00187634 0.0412539
0 0 0
0.0019437 -0.00184673 0.0253109
-0.00140257 -0.0016738 0.0477054
0.00184322 -0.00025724 0.0484859
0 0 0
-0.0577074 -0.0125951 0.339537
-6.82771e-06 3.83039e-07 0.000158725
0 0 0
0 0 0
0.0224081 -0.0318203 0.207325
-0.0014578 -0.00182211 0.0410681
0 0 0
-4.40331e-05 0.000239676 0.00253271
0.000803366 -0.000289016 0.0146544
0.000907997 -0.00119851 0.0612862
0.00541908 0.0313203 0.231132
0 0 0
0 0 0
0.000669577 0.0071042 0.0416479
0.000229631 0.0020518 0.0980377
0 0 0
0 0 0
0.00082274 0.00378944 0.0196864
-0.0149826 0.021239 0.416662
-2.26562e-05 0.029528 0.061768
-5.50865e-06 0.00200742 0.0121309
-8.21084e-06 6.83369e-05 0.00196362
-7.06376e-06 -1.86639e-05 0.00174933
-0.000836756 -0.000289041 0.0146048
1.94655e-05 0.000106324 0.00113609
-0.000907749 -0.00124905 0.0613074
-0.00538959 0.0316008 0.232754
-0.000692533 0.00737351 0.0436582
-0.000193858 0.00164821 0.0899535
0.0141172 0.0214788 0.416178
-0.000870421 0.00393716 0.0201748
2.68071e-17 2.70463e-17 -3.86778e-16
-0.030907 -0.0192758 0.149441
-0.00134139 0.00154294 0.0244679
0 0 0
0 0 0
0.000556773 0.00229177 0.0140748
0 0 0
0.000591668 0.00369034 0.0146031
0 0 0
0 0 0
0.00983751 0.00118608 0.0673457
0.000662395 -0.000562505 0.00477937
4.001e-07 2.57822e-07 -4.10623e-05
-6.28606e-07 4.38286e-07 -6.9809e-05
0 0 0
0 0 0
0 0 0
0 0 0
0 0 0
0 0 0
1.69159e-06 2.29679e-07 3.53359e-05
-2.18722e-06 2.58757e-07 3.99545e-05
0 0 0
0 0 0
-0.250231 -1.10547 0.886222
0.276111 -0.749195 0.618476
-0.0924149 0.0933288 0.0831119
0.117553 0.119018 0.10576
-0.000246243 -0.00408775 0.000471357
-0.000562916 -0.00495211 0.00081129