# vtk DataFile Version 2.0
tet_velo
ASCII
DATASET UNSTRUCTURED_GRID
POINTS 29498 float
-0.762924 0.155 -1.895
-0.697871 0.245 2.055
-0.665 0.84884 -1.835
-0.610423 1.295 1.775
0.759453 0.165 -1.905
0.714617 0.255 2.055
0.665 0.847249 -1.835
0.612567 1.295 1.775
-0.781187 0.145053 -0.578333
-0.77432 0.160235 0.738334
-0.713875 1.06463 -0.631667
-0.679028 1.19669 0.571667
0.739636 0.199872 -0.585
0.793289 0.161273 0.735
0.713659 1.06264 -0.631667
0.680192 1.1959 0.571667
-1.50125 -0.375106 -2.86889
-1.50383 -0.297037 -1.86051
-1.50866 -0.303566 -0.540676
-1.48452 -0.319281 0.801882
-1.43175 -0.261408 2.12364
-1.41653 -0.189117 3.14144
-1.41949 -0.112159 4.14193
-1.49026 0.0328571 -2.87797
-1.48865 0.134863 -1.88227
-1.50122 0.159759 -0.584943
-1.47294 0.176887 0.722376
-1.40017 0.248679 2.02193
-1.39739 0.320558 3.03828
-1.41029 0.394003 4.04267
-1.44331 0.805913 -2.86557
-1.41411 0.907722 -1.8666
-1.43857 1.07278 -0.646798
-1.39818 1.19013 0.564903
-1.33068 1.28557 1.78711
-1.36116 1.3503 2.80835
-1.39448 1.4127 3.83127
-1.41118 2.10226 -2.93193
-1.3991 2.22364 -1.94931
-1.40306 2.42524 -0.766659
-1.39919 2.61809 0.391543
-1.38656 2.75907 1.57582
-1.38929 2.83938 2.56186
-1.4013 2.90501 3.57205
-0.771219 -0.360673 -2.87855
-0.766594 -0.273779 -1.87356
-0.773189 -0.300617 -0.541082
-0.759149 -0.332967 0.815191
-0.723974 -0.267155 2.14822
-0.716083 -0.191736 3.15793
-0.719904 -0.112834 4.15115
-0.769768 0.0368561 -2.88207
-0.709113 0.320149 3.05182
-0.717604 0.394817 4.0495
-0.732546 0.781669 -2.85269
-0.684146 1.35546 2.80552
-0.710425 1.417 3.83017
-0.696906 2.08405 -2.91912
-0.684004 2.20509 -1.93494
-0.692829 2.4194 -0.758242
-0.701595 2.62454 0.389685
-0.699601 2.76911 1.56719
-0.703474 2.84839 2.55323
-0.712238 2.91244 3.56556
0.7098 -0.34764 -2.88501
0.742274 -0.254915 -1.88158
0.741079 -0.262413 -0.547088
0.768309 -0.323578 0.811869
0.719763 -0.259193 2.14709
0.694193 -0.184441 3.15686
0.683805 -0.105937 4.1498
0.698525 0.0464401 -2.88829
0.674353 0.32677 3.05113
0.671053 0.401033 4.04835
0.675818 0.786008 -2.85577
0.636875 1.3589 2.80496
0.653474 1.42193 3.82914
0.721558 2.09009 -2.92147
0.730001 2.21016 -1.93678
0.720117 2.42431 -0.7597
0.689585 2.62895 0.388482
0.665071 2.77298 1.56611
0.66054 2.85273 2.55208
0.663037 2.91759 3.56424
1.44758 -0.348271 -2.88039
1.47766 -0.260734 -1.8733
1.48241 -0.248852 -0.550831
1.49765 -0.295602 0.795694
1.44667 -0.247128 2.12046
1.40941 -0.175087 3.13875
1.39392 -0.0981923 4.13899
1.43727 0.0540926 -2.8889
1.47634 0.161388 -1.89489
1.47404 0.215639 -0.59459
1.49082 0.195494 0.716809
1.42609 0.260182 2.01955
1.38588 0.332773 3.03617
1.37745 0.406643 4.04007
1.40761 0.818353 -2.87245
1.41829 0.916295 -1.87206
1.43816 1.09145 -0.651019
1.40673 1.20057 0.562206
1.34326 1.29025 1.78548
1.338 1.35832 2.80659
1.35186 1.42314 3.82894
1.43435 2.11567 -2.93693
1.43947 2.23567 -1.95345
1.42953 2.43709 -0.770041
1.39556 2.6286 0.388749
1.36342 2.76811 1.57336
1.35575 2.84893 2.55933
1.35946 2.91586 3.56928
-0.784458 0.50192 -1.9355
-0.00173551 0.103304 -1.9567
-0.810253 0.111829 -1.23667
-0.706255 0.77 1.96711
0.00837299 0.208191 2.09681
-0.764701 0.174012 1.39667
0 0.890708 -1.87766
-0.676178 0.943474 -1.23333
0.00107199 1.31879 1.79879
-0.658145 1.25927 1.17333
0.777218 0.506124 -1.93499
0.82136 0.11062 -1.245
0.713988 0.775 1.9654
0.779864 0.182225 1.395
0.677248 0.942861 -1.23333
0.660078 1.25915 1.17333
-0.78165 0.148747 0.08
-0.863851 0.60484 -0.605
-0.0207757 0.136005 -0.581667
-0.869284 0.678464 0.655
0.00948457 0.156816 0.736667
-0.695872 1.13008 -0.03
-0.000107842 1.3111 -0.631667
0.000581829 1.48863 0.571667
0.795576 0.151459 0.075
0.856335 0.631254 -0.608333
0.863804 0.678585 0.653333
0.696347 1.12869 -0.03
-0.86478 0.55338 -1.235
-0.868404 0.641652 0.025
-0.88632 0.724232 1.285
-0.0112556 0.115316 -1.24083
-0.00564555 0.146222 0.0775
0.00892878 0.168858 1.39583
-0.000867754 0.504022 -2.06907
0.00472249 0.7725 1.99294
-5.39212e-05 0.980816 -1.23333
0.000236993 1.45886 -0.03
0.000826909 1.48111 1.17333
0.872617 0.568689 -1.23917
0.861321 0.654919 0.0225
0.885608 0.726792 1.28417
-1.12579 0.144931 -1.88863
-0.764759 -0.0593896 -1.88428
-0.766346 0.095928 -2.38854
-1.04902 0.24684 2.03846
-0.710922 -0.0110775 2.10161
-0.703492 0.282575 2.55341
-1.03955 0.878281 -1.8508
-0.698773 0.815254 -2.34384
-0.674502 1.52697 -1.88497
-0.970553 1.29028 1.78106
-0.647285 1.32523 2.29026
-0.655012 2.03205 1.67109
0.750864 -0.0449577 -1.89329
0.728989 0.10572 -2.39665
1.1179 0.163194 -1.89994
0.71719 -0.00209638 2.10105
0.694485 0.290885 2.55306
1.07035 0.257591 2.03727
0.670409 0.816628 -2.34538
0.697501 1.5287 -1.88589
1.04164 0.881772 -1.85353
0.624721 1.32695 2.28998
0.638819 2.03399 1.67056
0.977913 1.29263 1.78024
-1.14121 0.152406 -0.581638
-0.777188 -0.0777822 -0.559708
-1.12363 0.168561 0.730355
-0.766734 -0.0863658 0.776762
-1.07622 1.0687 -0.639232
-0.703352 1.74202 -0.694954
-1.03861 1.19341 0.568285
-0.690312 1.91062 0.480676
0.740357 -0.0312706 -0.566044
1.10684 0.207755 -0.589795
0.780799 -0.0811522 0.773434
1.14206 0.178383 0.725905
0.716888 1.74347 -0.695683
1.07591 1.07704 -0.641343
0.684888 1.91242 0.480074
1.04346 1.19824 0.566936
-1.50254 -0.336071 -2.3647
-1.49576 -0.171124 -2.87343
-1.13624 -0.367889 -2.87372
-1.50625 -0.300302 -1.20059
-1.49624 -0.081087 -1.87139
-1.13521 -0.285408 -1.86704
-1.49659 -0.311424 0.130603
-1.50494 -0.0719038 -0.562809
-1.14093 -0.302092 -0.540879
-1.45814 -0.290345 1.46276
-1.47873 -0.0711971 0.762129
-1.12184 -0.326124 0.808537
-1.42414 -0.225263 2.63254
-1.41596 -0.0063646 2.07278
-1.07786 -0.264282 2.13593
-1.41801 -0.150638 3.64168
-1.40696 0.0657201 3.08986
-1.06631 -0.190427 3.14969
-1.41489 0.140922 4.0923
-1.0697 -0.112496 4.14654
-1.48946 0.08386 -2.38012
-1.46678 0.419385 -2.87177
-1.13001 0.0348566 -2.88002
-1.49494 0.147311 -1.23361
-1.45138 0.521292 -1.87443
-1.48708 0.168323 0.0687167
-1.4699 0.616268 -0.61587
-1.43655 0.212783 1.37215
-1.43556 0.683507 0.643639
-1.39878 0.284618 2.5301
-1.36543 0.767122 1.90452
-1.40384 0.35728 3.54048
-1.37927 0.835427 2.92331
-1.05325 0.320353 3.04505
-1.40239 0.903352 3.93697
-1.06395 0.39441 4.04609
-1.42871 0.856817 -2.36608
-1.42725 1.45409 -2.89875
-1.08793 0.793791 -2.85913
-1.42634 0.990249 -1.2567
-1.4066 1.56568 -1.90795
-1.41838 1.13145 -0.0409473
-1.42082 1.74901 -0.706728
-1.36443 1.23785 1.17601
-1.39869 1.90411 0.478223
-1.34592 1.31793 2.29773
-1.35862 2.02232 1.68147
-1.37782 1.3815 3.31981
-1.37522 2.09484 2.6851
-1.02265 1.35288 2.80693
-1.39789 2.15885 3.70166
-1.05245 1.41485 3.83072
-1.40514 2.16295 -2.44062
-1.05404 2.09316 -2.92553
-1.40108 2.32444 -1.35798
-1.04155 2.21437 -1.94212
-1.40113 2.52167 -0.187558
-1.04795 2.42232 -0.76245
-1.39288 2.68858 0.983683
-1.05039 2.62132 0.390614
-1.38792 2.79923 2.06884
-1.04308 2.76409 1.57151
-1.39529 2.87219 3.06696
-1.04638 2.84389 2.55754
-1.05677 2.90873 3.56881
-0.768906 -0.317226 -2.37606
-0.770493 -0.161908 -2.88031
-0.0307094 -0.354156 -2.88178
-0.769891 -0.287198 -1.20732
-0.0121597 -0.264347 -1.87757
-0.766169 -0.316792 0.137055
-0.0160547 -0.281515 -0.544085
-0.741561 -0.300061 1.48171
0.00458032 -0.328272 0.81353
-0.720029 -0.229445 2.65308
-0.00210544 -0.263174 2.14766
-0.717994 -0.152285 3.65454
-0.712598 0.0642066 3.10488
-0.0109452 -0.188088 3.15739
-0.718754 0.140991 4.10032
-0.0180493 -0.109385 4.15047
-0.751157 0.409262 -2.86738
-0.0356211 0.0416481 -2.88518
-0.713358 0.357483 3.55066
-0.69663 0.837804 2.92867
-0.0173799 0.32346 3.05148
-0.714014 0.905909 3.93984
-0.0232755 0.397925 4.04893
-0.714726 1.43286 -2.8859
-0.0283642 0.783838 -2.85423
-0.697285 1.38623 3.31784
-0.69381 2.10193 2.67937
-0.0236353 1.35718 2.80524
-0.711331 2.16472 3.69786
-0.0284752 1.41946 3.82965
-0.690455 2.14457 -2.42703
0.0123261 2.08707 -2.92029
-0.688417 2.31225 -1.34659
0.0229986 2.20763 -1.93586
-0.697212 2.52197 -0.184278
0.0136437 2.42186 -0.758971
-0.700598 2.69682 0.978437
-0.00600503 2.62675 0.389084
-0.701538 2.80875 2.06021
-0.0172649 2.77104 1.56665
-0.707856 2.88042 3.05939
-0.0214673 2.85056 2.55265
-0.0246006 2.91502 3.5649
0.726037 -0.301278 -2.38329
0.704163 -0.1506 -2.88665
1.07869 -0.347955 -2.8827
0.741677 -0.258664 -1.21433
1.10997 -0.257825 -1.87744
0.754694 -0.292995 0.132391
1.11174 -0.255633 -0.548959
0.744036 -0.291385 1.47948
1.13298 -0.30959 0.803781
0.706978 -0.221817 2.65197
1.08322 -0.25316 2.13377
0.688999 -0.145189 3.65333
0.684273 0.0711648 3.10399
1.0518 -0.179764 3.1478
0.677429 0.147548 4.09907
1.03886 -0.102064 4.14439
0.687172 0.416224 -2.87203
1.0679 0.0502664 -2.8886
0.672703 0.363902 3.54974
0.655614 0.842835 2.92804
1.03011 0.329772 3.04365
0.662264 0.91148 3.93874
1.02425 0.403838 4.04421
0.698688 1.43805 -2.88862
1.04171 0.80218 -2.86411
0.645175 1.39041 3.31705
0.648708 2.10581 2.67852
0.987439 1.35861 2.80578
0.658255 2.16976 3.69669
1.00267 1.42253 3.82904
0.725779 2.15013 -2.42912
1.07795 2.10288 -2.9292
0.725059 2.31723 -1.34824
1.08473 2.22292 -1.94512
0.704851 2.52663 -0.185609
1.07483 2.4307 -0.76487
0.677328 2.70097 0.977296
1.04257 2.62878 0.388615
0.662806 2.81285 2.05909
1.01425 2.77055 1.56973
0.661788 2.88516 3.05816
1.00815 2.85083 2.5557
1.01125 2.91673 3.56676
1.46262 -0.304503 -2.37684
1.44242 -0.147089 -2.88464
1.48003 -0.254793 -1.21206
1.477 -0.0496732 -1.88409
1.49003 -0.272227 0.122432
1.47823 -0.0166066 -0.57271
1.47216 -0.271365 1.45808
1.49424 -0.0500543 0.756252
1.42804 -0.211108 2.62961
1.43638 0.00652721 2.07
1.40167 -0.13664 3.63887
1.39764 0.0788427 3.08746
1.38569 0.154225 4.08953
1.4568 0.10774 -2.39189
1.42244 0.436223 -2.88067
1.47519 0.188513 -1.24474
1.44731 0.538841 -1.88348
1.48243 0.205566 0.0611095
1.4561 0.653546 -0.622805
1.45845 0.227838 1.36818
1.44878 0.698034 0.639508
1.40598 0.296477 2.52786
1.38467 0.775217 1.90251
1.38166 0.369708 3.53812
1.36194 0.845545 2.92138
1.36466 0.914892 3.9345
1.41295 0.867324 -2.37226
1.42098 1.46701 -2.90469
1.42822 1.00387 -1.26154
1.42888 1.57598 -1.91276
1.42245 1.14601 -0.0444066
[...]
POINT_DATA 29498
VECTORS point_vectors float
-2.83603 -3.15388 7.30544
0.0585357 0.156367 0.469432
-2.17314 2.12124 3.85032
0.0198258 -0.109692 0.271721
2.20888 -2.75894 5.67606
-0.209883 0.10694 0.647759
2.26491 2.11494 3.9754
-3.02656e-05 -0.0956316 0.198019
0.0927787 0.00329701 0.901041
0.0562139 -0.00863798 0.838682
-0.0152829 -0.0103113 0.562339
0.0010054 0.00317676 0.01588
0.00136309 0.00447215 0.0140965
-0.0727049 -0.118817 0.547962
0.0176081 -0.0150275 0.536859
-0.000918946 0.0029485 0.0139237
-0.716644 -0.443784 19.9415
-1.1647 -0.842828 20.8064
-0.28465 -0.366612 21.527
0.152793 -0.0939112 21.6854
0.693547 0.255699 21.6575
1.01531 0.372553 21.2746
1.07413 0.306052 20.825
-0.977173 -0.361895 19.7488
-1.93712 -0.789471 20.7228
-0.537229 -0.612086 21.6486
0.0440775 -0.393991 21.8009
1.00042 -0.105283 21.7747
1.45433 0.00833391 21.3518
1.45706 0.190818 20.9157
-1.10542 0.16428 19.5334
-2.43126 0.433848 20.4315
-1.57974 -0.191472 21.5963
-0.652809 -0.326263 21.9258
0.0900149 -0.628988 21.8968
0.51378 -0.895255 21.5761
0.67951 -0.744543 21.5741
-0.451889 0.417076 20.0068
-0.69388 0.638758 20.3816
-0.678719 0.558452 21.0214
-0.388281 0.197402 21.4416
-0.164946 -0.0978553 21.3971
-0.0264831 -0.214829 21.296
0.0853853 -0.247387 21.1828
-0.746578 -0.963591 19.3535
-1.64402 -2.92311 21.3174
-0.201878 -0.231312 21.9997
0.12972 0.122133 21.8442
0.450661 0.996712 21.6409
0.868235 1.44427 20.4258
0.796451 1.41343 20.263
-1.07644 -0.852183 18.7271
1.91642 1.37749 10.0532
2.53514 1.31427 13.0468
-1.25507 0.454202 18.2214
0.00385723 -1.07656 10.5891
0.732844 -1.63102 15.7344
-0.360808 0.69193 19.7615
-0.588756 1.22971 20.1777
-0.652769 1.14194 21.0533
-0.336999 0.467958 21.5947
-0.119981 0.00894885 21.5047
-0.0497469 -0.19878 21.4664
-0.00633402 -0.27629 21.4852
0.716036 -0.978842 19.3047
1.67117 -3.16556 21.322
0.20798 -0.165074 22.1248
-0.173509 0.0872715 21.823
-0.510333 0.941215 21.5875
-0.873344 1.39769 20.1391
-0.827738 1.44076 20.1876
1.01154 -0.874917 18.6003
-1.84978 1.0634 8.83658
-2.63533 1.40613 11.6659
1.18914 0.490045 18.099
0.652517 -0.799208 6.87988
-0.517732 -1.65523 13.3066
0.361178 0.678754 19.7707
0.611308 1.18407 20.1927
0.652168 1.1213 21.0456
0.311297 0.477539 21.5877
0.0889226 0.0324701 21.4958
0.00766065 -0.159175 21.3832
-0.0493381 -0.235684 21.4035
0.739135 -0.4724 19.873
1.2488 -0.893632 20.8081
0.267837 -0.392728 21.5538
-0.154348 -0.123379 21.6584
-0.695141 0.193391 21.6457
-1.03117 0.328934 21.3125
-1.12129 0.29339 20.8274
0.997155 -0.369691 19.6665
2.02993 -0.798515 20.6892
0.529423 -0.66531 21.6777
-0.018345 -0.41467 21.7539
-0.90106 -0.195535 21.7457
-1.4252 -0.0763283 21.3669
-1.49749 0.11312 20.7763
1.1114 0.179091 19.4914
2.40571 0.45091 20.412
1.57793 -0.164611 21.5781
0.656932 -0.311333 21.8754
-0.0117311 -0.577665 21.8203
-0.380818 -0.861299 21.54
-0.705631 -0.6496 21.5818
0.437713 0.401963 20.0206
0.682966 0.608471 20.3841
0.656746 0.537406 21.0053
0.377703 0.201643 21.4294
0.16195 -0.0812359 21.3948
0.0202225 -0.196597 21.2724
-0.0960399 -0.24325 21.2303
-4.59849 0.058145 5.19111
0.00151553 -1.14025 1.93839
0.0983922 -0.0022433 1.43708
-0.0738375 -0.12509 -0.0150776
-0.00622636 0.0469847 0.142844
-0.0165097 0.0257009 0.491895
1.17747e-05 0.416312 1.07717
-0.200589 -0.0717835 0.263279
0 0 0
0.00197632 0.00234301 0.0511481
3.5778 0.15506 3.85319
-0.123478 -0.0739345 1.73427
0.123956 -0.270623 -0.00154198
0.00138433 0.037262 0.348243
0.221161 -0.0792474 0.29132
-0.00208487 0.00292943 0.0491971
0.0737018 -0.0112412 1.12366
-0.000166206 1.49715e-05 0.0103367
2.86799e-05 1.97942e-05 0.00122544
0 0 0
-9.55681e-05 0.000227254 0.00790502
0.00322109 0.0143467 0.0389438
-2.30659e-05 0.117284 0.163796
-0.000131525 0.000742407 0.0230783
-0.160556 0.0355185 5.10002
-0.000566004 0.0061147 0.194967
-0.00157304 0.00756531 0.0469153
-0.00298576 0.0134805 0.0367647
0 0 0
0.0122247 0.0460189 0.305154
0.0261596 0.0152125 0.484563
2.4212e-05 1.46768e-05 0.00045886
1.05155e-07 4.25418e-07 4.07932e-05
8.64466e-08 -1.64108e-07 -9.65018e-06
0 0 0
-0.000650161 -0.00331446 0.000270943
-8.56434e-05 0.00164454 0.0103318
3.16295e-05 0.000784017 0.0100957
-0.00013501 -0.000107147 0.00429378
0 0 0
-0.00666076 0.0303492 0.195469
-0.0284901 0.0140751 0.509434
-3.59963 -1.92866 20.9293
-3.04142 -4.97791 21.7937
-2.75328 -2.41554 17.6328
1.45417 0.564704 17.5153
0.515309 1.31281 16.1838
1.07241 0.785116 6.94015
-4.54767 1.64188 20.3145
-3.42109 2.05138 16.4117
-1.61823 2.49545 19.8314
0.0717679 -0.626184 18.6697
-0.633312 -0.639022 5.93054
-0.30413 -0.113509 21.8172
3.16188 -5.35105 21.7247
2.7313 -2.48602 17.3812
3.81573 -1.93674 20.8053
-0.649406 1.2198 15.8963
-1.13173 0.362809 6.32162
-1.37499 0.322625 17.8705
3.39671 2.17457 16.163
1.61337 2.4138 19.8463
4.49947 1.65039 20.2783
0.694689 -0.180444 4.12543
0.270545 -0.0345927 21.8137
0.043608 -0.558839 18.7404
-0.0301769 -0.920737 21.2659
0.221466 0.158036 18.5117
0.158251 -0.449264 19.7083
0.507523 0.167664 18.0933
-2.78547 -0.69411 21.6158
-2.06731 2.40755 21.2073
-0.941903 -0.497759 20.6227
-0.823824 0.698213 22.1038
-0.190078 0.371051 15.2797
-0.150022 -0.994897 20.2687
-0.570993 0.0556068 18.1838
-0.123778 -0.497469 19.998
2.05 2.34769 21.2021
2.78131 -0.661208 21.6615
0.793618 0.720794 22.0851
0.960095 -0.484828 20.7829
-1.0518 -0.697304 20.2198
-0.816954 -0.432206 19.8509
-0.789087 -0.665754 19.7134
-0.721073 -0.605791 21.4066
-1.51549 -0.859977 20.7733
-1.57492 -1.60026 20.9591
-0.0365869 -0.229846 21.6268
-0.395363 -0.498097 21.5822
-0.161181 -0.391415 21.7138
0.408265 0.0790086 21.7529
0.117815 -0.237009 21.7059
0.218199 -0.0252977 21.8184
0.905663 0.355323 21.5762
0.869138 0.147817 21.7482
0.771227 0.627555 21.7897
0.982177 0.347407 21.2287
1.3202 0.270526 21.4236
1.1989 0.936057 21.1791
1.22213 0.255217 20.8859
1.12447 0.749796 21.1391
-1.58214 -0.59139 19.9594
-1.08911 -0.163137 19.5799
-1.08336 -0.58844 19.322
-1.19063 -0.729081 21.5652
-2.47587 -0.280346 20.5874
-0.192294 -0.498429 21.6877
-1.08004 -0.649798 21.7069
0.444346 -0.242072 21.9613
-0.321396 -0.512812 21.9259
1.23611 -0.0579589 21.5957
0.665626 -0.656115 21.7427
1.50504 -0.106222 21.3829
1.13207 -0.671313 21.4962
2.17506 0.420061 19.0038
1.11047 -0.541675 21.2595
1.98752 0.0447266 19.7993
-1.90012 0.335755 19.6669
-0.768047 0.439938 19.7584
-1.29147 0.289777 18.9636
-2.05152 0.0998793 21.2636
-1.35192 0.828172 20.3115
-1.09677 -0.299035 21.8377
-1.2936 0.570543 21.245
-0.244538 -0.429589 21.9629
-0.652002 0.13243 21.6908
0.325918 -0.750302 21.767
-0.156173 -0.242048 21.6489
0.698797 -0.776395 21.7141
0.0879815 -0.456966 21.426
0.418155 -1.0988 20.4506
0.151343 -0.401734 21.5558
0.757067 -1.27102 20.5065
-0.579429 0.549116 20.1541
-0.438861 0.545829 19.8964
-0.73685 0.652309 20.7194
-0.7071 0.918365 20.2836
-0.555693 0.398308 21.2656
-0.697384 0.843121 21.0437
-0.282759 0.0418824 21.4187
-0.368453 0.325286 21.5211
-0.100688 -0.172455 21.3978
-0.163861 -0.0224242 21.5813
0.0456924 -0.264418 21.3564
-0.0590848 -0.239722 21.5234
0.0528242 -0.383846 21.3885
-1.35814 -2.0858 19.523
-0.879983 -0.95391 19.0707
-0.0440308 -1.36785 18.928
-0.656444 -1.03933 22.2696
-0.0347939 -4.29094 21.9889
-0.00408907 -0.024592 21.8725
-0.00893097 -0.438691 22.0228
0.248444 0.499026 21.8618
-0.0137593 0.0517364 21.2186
0.669638 1.28573 21.092
-0.0414176 0.777392 20.4883
1.18494 1.80436 19.9553
1.37443 1.91527 17.1138
-0.0332121 1.50355 18.6428
1.56559 1.61319 16.8261
-0.0703187 2.54854 16.673
-1.28956 -0.293331 18.1997
-0.0870802 -1.26049 17.8703
2.46377 1.41725 12.0897
0.753679 -1.0797 4.74067
0.0467542 0.0687316 2.1024
2.14434 -0.666029 9.77769
0.158021 2.53993 5.47335
-0.730937 0.898906 19.1457
-0.0531963 0.729006 17.1584
0.65958 -1.57548 14.3924
-0.125959 -0.478486 21.6604
-0.379186 0.994052 -3.03352
0.0674357 -0.864595 21.1125
-0.10529 -0.321293 1.36588
-0.48042 0.980232 19.9073
0.00338536 0.813421 19.6715
-0.676178 1.26223 20.6205
0.0182711 1.48957 20.0709
-0.516289 0.841662 21.4573
0.0102193 1.56529 21.0229
-0.214329 0.209578 21.5493
-0.0149952 0.617305 21.6826
-0.0823901 -0.0999201 21.4931
-0.0278796 0.0901099 21.6585
-0.0390562 -0.243958 21.5131
-0.0342532 -0.167902 21.8093
-0.0362768 -0.373986 21.3926
1.35343 -2.16383 19.4413
0.841353 -0.986126 18.9791
0.802023 -0.71558 19.6318
0.649655 -1.07116 22.4269
1.68077 -1.73355 20.951
-0.0127622 -0.0118725 21.8568
0.112087 -0.346579 21.7777
-0.307216 0.46946 21.8538
-0.22926 -0.071293 21.7854
-0.731654 1.23302 20.9867
-0.799574 0.546848 21.7811
-1.23309 1.88458 19.6548
-1.42189 1.75818 16.5072
-1.25336 0.887785 21.2225
-1.6026 1.62354 16.4675
-1.1473 0.619056 21.201
1.252 -0.296567 18.0351
1.10819 -0.635894 19.206
-2.37921 1.42573 10.7637
-0.12771 -1.22111 2.17205
-2.11125 0.320772 18.287
-1.87249 -0.445635 6.56245
-2.00891 -0.016516 19.3611
0.711251 0.903487 19.1405
1.30156 0.309981 18.8902
-0.403086 -1.28902 11.4453
0.0957082 -0.326506 21.6856
-0.20534 -0.893476 19.5727
-0.135637 -0.721364 20.9756
-0.605006 -1.34867 19.5194
0.488036 0.95253 19.9207
0.431359 0.5336 19.9025
0.692082 1.22486 20.6253
0.700863 0.87794 20.2903
0.502461 0.839369 21.4467
0.677863 0.808498 21.0378
0.179823 0.22762 21.5335
0.350546 0.332997 21.5071
0.0493997 -0.0767391 21.4764
0.142746 0.00843002 21.5688
-0.0126119 -0.210938 21.5041
0.0371045 -0.197169 21.5514
-0.0748936 -0.372071 21.339
1.10969 -0.755445 20.1832
0.845331 -0.448841 19.7942
0.759861 -0.65396 21.4625
1.61989 -0.907355 20.7582
0.0195048 -0.246113 21.6131
0.392117 -0.546616 21.6048
-0.406671 0.0319602 21.7338
-0.10208 -0.274754 21.6644
-0.901289 0.277637 21.5798
-0.82679 0.0597469 21.7219
-1.00095 0.335051 21.2608
-1.32031 0.194086 21.45
-1.23521 0.24483 20.9447
1.66829 -0.604778 19.8797
1.10983 -0.154927 19.5187
1.26485 -0.768887 21.6138
2.50723 -0.233065 20.5499
0.189902 -0.530609 21.6623
1.10585 -0.666886 21.7177
-0.397221 -0.292658 21.9124
0.340124 -0.504658 21.8733
-1.14991 -0.158316 21.5932
-0.535196 -0.655143 21.7146
-1.52142 -0.169053 21.3598
-1.01321 -0.754424 21.5144
-1.1561 -0.52611 21.2712
1.90836 0.362054 19.6381
0.753584 0.444521 19.7593
2.04317 0.132531 21.2517
1.30568 0.79897 20.3128
1.09367 -0.288054 21.8042
1.261 0.56266 21.2243
0.270114 -0.401611 21.8983
0.642783 0.147385 21.6629
-0.196656 -0.70435 21.7327
0.166473 -0.195059 21.6133
-0.575505 -0.760189 21.8092
-0.0537829 -0.382349 21.4102
-0.142327 -0.410364 21.7495
0.568237 0.528801 20.1611
0.714583 0.627056 20.7159
0.538865 0.393744 21.2458
0.271682 0.0537124 21.404
0.0960483 -0.152354 21.3982
-0.0510014 -0.226938 21.3806
-1.27195 -0.683414 20.1081
-1.95931 -2.44995 18.7671
-1.32558 -1.2542 19.9491
-2.2429 -1.24406 19.2615
-0.919787 -0.647861 19.5233
-2.38554 -1.93151 20.9866
-0.941489 -0.68845 21.4838
-0.367461 -0.707223 20.8271
-0.714347 -0.877512 21.7964
-1.18739 -1.33272 22.3116
-0.038196 -0.52667 21.8255
-0.105953 -0.36361 21.6365
0.39681 0.154727 18.031
0.0574094 -0.189261 21.7264
0.203037 -0.635993 20.3164
0.337273 -0.209516 21.5925
0.436067 -0.06999 21.843
0.455626 0.571211 17.432
0.451271 0.277912 21.9017
0.640422 0.0758046 18.8968
1.18159 0.707815 20.8674
1.11258 0.228472 21.5928
0.856781 1.56417 16.2657
0.977996 0.79912 21.5542
1.76817 0.479051 18.37
1.66798 0.835748 21.0494
1.37855 0.211227 21.2286
1.78106 1.78938 16.7387
1.43831 1.04399 21.1525
2.31232 0.412361 19.2149
1.40024 0.539464 20.94
-1.85142 -0.212309 19.7525
-3.81988 -0.471112 15.8926
-2.82343 0.891696 18.639
-1.33353 -0.195704 18.9853
-5.25818 -0.49138 20.6312
-1.77315 -0.517883 21.5438
-3.1915 0.23853 21.6931
-1.04423 -1.29341 19.7585
-0.641824 -0.607192 21.8507
-1.74936 -0.71866 21.5449
-0.18219 -0.309583 17.3171
0.120827 -0.530703 21.8951
-0.36742 -0.43454 19.8297
1.06135 -0.443632 14.5933
0.939145 -0.707578 21.5361
-0.103363 -1.2492 2.42212
0.1766 -0.845148 20.1483
1.47608 -0.845476 17.3895
1.35001 -0.626707 21.5115
1.72346 -0.962727 7.11107
0.778714 -1.24741 19.7232
1.95971 -0.914076 18.3907
-1.10039 0.680186 19.921
-1.19869 1.75727 19.1285
-0.584214 0.754785 20.0322
-0.818913 0.658173 19.4886
-1.64301 1.49353 20.1066
-1.39512 0.743231 20.8126
-1.78565 2.26828 20.447
-0.747186 0.946896 20.6774
-1.7206 1.1449 21.2888
-0.995256 0.346042 21.5682
-1.45268 1.48288 22.1341
-0.540032 0.600324 21.3746
-0.789739 0.322335 21.8846
-0.355188 -0.0723654 21.7003
-0.481148 0.212098 21.9883
-0.246521 0.122241 21.524
-0.237389 -0.214483 21.7339
-0.0116287 -0.361578 21.5924
-0.205201 -0.302234 21.6856
-0.0905856 -0.136267 21.607
-0.0227947 -0.493971 21.5652
0.226913 -0.514916 21.3603
-0.0250525 -0.618681 21.3547
0.000494542 -0.267405 21.7224
0.163826 -0.699743 21.8659
1.96868 -2.5563 18.5856
-0.0483077 -3.26669 18.9596
-0.0881418 -4.2639 15.3831
-0.0497157 -1.36269 18.4767
-0.0376464 -7.20716 23.4976
0.241218 -0.633346 19.4459
-0.0200995 -1.41182 22.9425
0.0295579 0.013816 11.4174
-0.413657 0.179689 17.1724
-0.0054897 -0.143045 21.4296
-0.0419665 0.103339 12.7334
-0.556039 0.506627 17.3272
-0.024003 0.324611 20.8709
-0.074028 0.618016 11.4451
-0.93605 1.41188 15.7586
-0.0385181 1.12197 19.7034
-0.232892 -0.261393 1.85039
-0.0788397 1.13526 10.6602
-1.82311 1.81093 16.2154
-0.0363438 1.85499 17.716
-0.0120947 0.840889 2.60926
0.0776483 2.85988 12.1224
3.80974 -0.450587 15.5713
-0.0904125 3.73445 13.5145
-0.0583054 -0.38401 17.0257
0.255047 -1.70469 0.804027
-0.573119 0.463119 -3.63946
0.370963 1.14034 -2.97518
-1.28237 -0.822529 3.75676
0.0030424 -0.0204447 -1.71975
0.840669 2.32367 -3.70093
1.18669 1.74391 19.1375
0.00930719 1.18023 19.7773
-0.0147735 1.22296 18.7442
0.0275081 3.30941 19.5329
1.78733 2.21122 20.4639
0.01611 1.59343 20.5292
0.0138996 3.83966 20.9803
1.4336 1.47626 22.1113
-0.00379888 1.12571 21.5293
-0.022324 1.1951 22.2401
0.437704 0.251926 21.9558
-0.0228885 0.303738 21.6422
-0.0651027 0.176397 21.8457
0.160862 -0.180962 21.6517
-0.0293182 -0.0747654 21.7329
-0.0948616 -0.173465 21.8485
0.0156401 -0.454545 21.4258
-0.0586358 -0.212502 21.9135
-0.0629972 -0.602213 21.5085
1.33365 -0.720721 20.0572
1.38429 -1.34439 19.8664
2.33583 -1.28905 19.0792
0.933736 -0.69164 19.4398
2.55154 -2.03968 20.9285
1.01205 -0.738635 21.5242
0.71061 -0.935607 21.8771
1.27631 -1.39609 22.2669
-0.114902 -0.528846 21.7615
0.104655 -0.39696 21.6121
-0.0889839 -0.19278 21.6829
-0.230052 -0.669332 19.9623
-0.313666 -0.269813 21.5675
-0.408932 -0.127244 21.8033
-0.478589 0.223006 21.8852
-0.626693 -0.0402547 19.2668
-1.18549 0.55296 20.8947
-1.07522 0.13268 21.5927
-1.01372 0.726054 21.5157
-1.67064 0.301639 18.0875
-1.71212 0.794466 20.7061
-1.41355 0.181456 21.2213
-1.50695 1.04838 21.1288
-2.34944 0.41067 18.5385
-1.50692 0.362152 20.6947
1.90894 -0.184681 19.6869
2.81042 0.942871 18.5653
1.3227 -0.189254 18.8764
5.35579 -0.389518 20.4925
1.83512 -0.479856 21.5447
3.17474 0.281352 21.6812
1.07937 -1.41352 19.5047
0.65797 -0.61355 21.8228
1.74124 -0.688989 21.6118
0.21967 -0.390406 17.6732
-0.0636566 -0.529794 21.845
0.41179 -0.414944 19.9966
-0.890703 -0.539172 14.9697
-0.79416 -0.744839 21.5006
-0.00206923 -0.680972 19.6573
-1.20824 -1.06081 16.0121
-1.24028 -0.691471 21.4867
-0.620095 -1.20091 18.6246
-1.94229 -1.04207 17.2882
1.07053 0.669293 19.9295
0.575339 0.730097 20.0392
0.806351 0.66395 19.4824
1.61611 1.44639 20.1174
1.36178 0.726065 20.8044
0.733814 0.907578 20.6768
1.67972 1.11655 21.2715
0.975275 0.350137 21.5403
0.523989 0.595322 21.3562
0.772535 0.342851 21.8562
0.354717 -0.0447042 21.6688
0.226527 0.143681 21.5113
0.23094 -0.147146 21.6891
0.0394302 -0.303555 21.5723
0.0693242 -0.0973255 21.6098
0.035098 -0.395847 21.5671
-0.195729 -0.463582 21.329
-0.0214062 -0.234246 21.7923
-0.130376 -0.648707 21.885
-1.75417 -1.32342 19.6732
-0.853868 -1.05644 22.0503
0.2037 -0.340138 21.6431
0.691593 0.202364 21.4783
1.47239 0.78242 21.0464
1.98433 0.994891 20.6585
-3.02795 -0.278611 18.6101
-2.34187 -1.19967 21.9218
-0.440023 -0.894653 18.1946
0.331438 -0.0704651 16.3536
1.14164 -0.707346 16.1242
1.78482 -1.01779 17.608
-1.26306 1.12812 19.6037
-1.76794 1.34428 20.7229
-1.30118 0.736049 21.8152
-0.446406 0.0240819 21.848
-0.12421 -0.373502 21.617
0.166568 -0.596989 21.1724
-0.0750688 -4.12226 17.5937
0.00638606 -0.570398 14.5872
-0.000361345 0.0415449 11.8918
-0.0571631 0.249281 12.1415
-0.0942814 0.72708 10.4581
0.0486302 1.81013 11.5666
-0.130642 -0.663494 11.7508
0.143556 0.0848255 -0.984499
0.685165 2.54354 -4.02555
0.00183463 2.42598 18.6878
0.0230965 3.31267 20.0003
-0.00629788 2.44646 22.3165
-0.036506 0.510066 22.0641
-0.0840193 0.045857 21.8273
-0.0549051 -0.420131 21.7809
1.8505 -1.42389 19.5113
0.890577 -1.1347 22.1618
-0.261924 -0.359405 21.5562
-0.694396 0.112197 21.4751
-1.47186 0.671826 20.9935
-2.06874 0.943131 20.4111
3.07788 -0.241444 18.4539
2.46621 -1.1338 21.9565
0.471292 -0.982057 18.2988
-0.268219 -0.164069 16.7665
-0.889932 -0.804028 15.5759
-1.72968 -1.22252 16.2112
1.23702 1.11029 19.6124
1.72806 1.30947 20.7225
1.27618 0.737305 21.7859
0.431211 0.0618571 21.8123
0.131404 -0.274773 21.5819
-0.15421 -0.51276 21.0411
-1.00099 -0.200912 1.72792
-0.108444 -1.33436 3.26014
0.046322 -0.0948618 1.97992
0 0 0
-0.00274247 0.0151338 0.0463237
-0.00525755 0.135711 0.70977
-1.10664 0.347045 1.1314
-0.0842311 0.208897 0.835267
-0.531943 0.0270274 1.1973
-0.00442199 -0.0473288 0.0929602
-0.00946711 0.00297525 -0.00239822
0.00238521 -0.00017616 0.0899609
0.192744 -1.62713 3.63324
1.123 -0.201816 1.24486
0.0252563 0.0268452 2.15296
-0.00949961 0.0465736 0.21836
0 0 0
-0.0240218 0.0941688 0.579402
0.0854036 0.212561 0.845814
1.33664 0.411251 1.39911
0.574721 0.0261416 1.29894
0.00414454 0.00433801 -0.00320387
0.00409683 -0.0799332 0.162476
-0.0027205 0.000850747 0.0866854
0.100363 0.182865 0.788484
0.0880514 -0.0114335 1.13546
-0.000808937 0.0031808 0.0640426
0.000445859 5.21566e-05 0.00367026
-0.0043836 0.0175247 0.613603
0.152049 0.202594 1.4297
-0.0646195 0.0562936 0.201721
0.000431333 0.000212463 0.00839027
0 0 0
-0.00326286 0.00439434 0.143757
0.00122855 0.00698219 0.0257611
-0.142788 0.177699 0.313637
0.00275238 0.00797656 0.0480826
0.0283581 0.0631835 0.272029
0 0 0
7.26262e-05 7.45619e-05 0.00196012
-0.0966063 0.240859 3.32626
-0.000193465 3.23143e-05 0.00204231
-0.181211 0.0880901 4.57132
-0.00538534 -0.0109325 0.223874
0.0042834 0.0145541 0.299342
-0.00087592 0.00027324 0.0113778
-0.241745 -0.122659 4.50824
0.0402197 0.0567088 0.291357
0.0123597 -0.00287689 0.00633124
0.143434 0.180122 0.317507
0.00232495 0.0018342 0.0946139
-0.000910742 0.00543397 0.0204013
-0.00299969 0.00885522 0.0489993
0 0 0
-0.0283657 0.0658553 0.267592
0 0 0
0 0 0
-0.165286 0.10676 0.0977705
1.12474e-06 3.84256e-05 0.000990209
-0.00423252 -1.78576 1.50554
-0.000176761 -0.00340138 0.0408077
0.000197084 5.13501e-05 0.00173818
0.032365 -0.0151731 0.216474
-0.0050159 -0.00884171 0.000492033
0 0 0
0 0 0
0 0 0
0 0 0
-0.00196726 0.238479 0.030418
-9.9099e-05 0.0155646 0.0991954
-0.112873 -0.13468 0.497817
-0.000494199 8.03914e-06 0.000244298
-0.0261228 -0.0228531 0.00191722
-0.000210946 -9.18252e-05 0.00405602
1.11711e-18 1.04674e-18 2.50627e-17
1.22347e-05 -7.87153e-06 0.000590025
0.0992393 0.0632269 0.0581802
0.0334478 -0.022071 0.3076
-0.000640204 0.00016468 0.00574084
0.00134741 -0.0011584 0.0232103
0.00107757 -0.0134494 0.000716074
-0.0289255 -0.0190703 0.229639
0 0 0
0 0 0
0.00106297 1.94328e-05 0.000543716
0.160429 -0.15292 0.551483
0 0 0
0 0 0
-0.00621851 0.0175569 0.197918
0.000253682 2.85735e-05 0.00284537
-6.8239e-19 -3.8114e-18 5.92337e-17
0.0119419 0.0331069 0.177231
0.00124566 0.00239247 0.0458096
5.10172e-06 6.11425e-06 0.000480861
0.00165235 0.00937873 0.0541749
-7.76155e-05 0.000957234 0.0149636
0 0 0
5.53825e-07 -7.8685e-07 -5.27083e-05
0.00329844 0.0152213 0.0544862
0 0 0
-0.000985685 -0.02461 -0.011529
-0.000401551 0.0376113 0.223315
2.8522e-05 0.00332385 0.0680922
-0.000543815 -0.00112257 0.0939279
-0.000952292 8.08739e-05 0.00842714
0.00993943 0.0268047 0.287713
0 0 0
-0.0159412 0.0438609 0.211489
-0.00264917 0.0134006 0.0687525
-3.41835e-05 0.00139296 0.0189152
-2.17974e-18 -4.14453e-18 -6.48863e-17
-0.00154783 0.0067242 0.0254746
0 0 0
-0.1491 -0.0502187 0.552669