# vtk DataFile Version 2.0
tet_velo
ASCII
DATASET UNSTRUCTURED_GRID
POINTS 29498 float
-0.660987 0.255 -2.145
-0.684866 0.325 2.195
-0.605 0.715 -2.08022
-0.645 0.941061 2.145
0.664664 0.255 -2.145
0.688548 0.325 2.195
0.613887 0.715 -2.075
0.654537 0.935 2.145
-0.775895 0.171385 -0.698333
-0.788654 0.189919 0.748333
-0.766198 0.938218 -0.671813
-0.75077 0.98481 0.736593
0.77957 0.171388 -0.698333
0.791922 0.190331 0.748333
0.771601 0.932497 -0.668334
0.757185 0.977865 0.738333
-1.41504 -0.145771 -3.29876
-1.4188 -0.105003 -2.15722
-1.50253 -0.159152 -0.709396
-1.52277 -0.160947 0.746435
-1.45966 -0.0683545 2.19494
-1.43908 -0.0140317 3.33981
-1.44274 0.0206003 4.47858
-1.40298 0.165316 -3.27937
-1.40392 0.239261 -2.14221
-1.51451 0.205527 -0.701887
-1.5202 0.200299 0.742138
-1.42276 0.279826 2.18323
-1.414 0.331312 3.32752
-1.42921 0.366571 4.46754
-1.37848 0.730249 -3.23027
-1.36709 0.803739 -2.09228
-1.49875 0.940996 -0.678171
-1.49165 0.966208 0.733552
-1.39179 0.95292 2.14852
-1.39591 1.00117 3.29449
-1.41952 1.04936 4.44082
-1.39103 1.72942 -3.18484
-1.39679 1.82216 -2.05209
-1.44689 1.9691 -0.651151
-1.47528 2.05136 0.741761
-1.46107 2.06616 2.14341
-1.44847 2.08127 3.27764
-1.44608 2.11182 4.41992
-0.70289 -0.13901 -3.30047
-0.676768 -0.094566 -2.16027
-0.748216 -0.176705 -0.708416
-0.780172 -0.16856 0.751664
-0.736627 -0.0439541 2.20374
-0.720852 0.00227147 3.34585
-0.723662 0.0280713 4.4822
-0.702454 0.162731 -3.27904
-0.700829 0.347169 3.33252
-0.713718 0.372888 4.47032
-0.681621 0.694141 -3.22407
-0.686475 0.999317 3.29395
-0.707041 1.04881 4.44091
-0.671979 1.70601 -3.1789
-0.665248 1.80073 -2.04572
-0.706514 1.96529 -0.647047
-0.742067 2.05535 0.742054
-0.740129 2.06452 2.14116
-0.730496 2.0772 3.27533
-0.72698 2.10821 4.41833
0.683711 -0.139974 -3.29939
0.722521 -0.095085 -2.15993
0.780008 -0.177183 -0.708208
0.765177 -0.168821 0.751806
0.69767 -0.0445011 2.20384
0.699685 0.000629571 3.34605
0.707043 0.025753 4.48254
0.651177 0.161948 -3.27757
0.694226 0.345162 3.33267
0.705253 0.370288 4.47064
0.640031 0.693143 -3.22097
0.684571 0.995283 3.29417
0.702578 1.04539 4.4413
0.73803 1.70352 -3.17627
0.762475 1.79773 -2.043
0.766608 1.9612 -0.644768
0.733894 2.05063 0.743605
0.703669 2.05988 2.14213
0.701622 2.07294 3.27609
0.707898 2.10436 4.41903
1.39448 -0.148319 -3.29628
1.43545 -0.107293 -2.15555
1.51913 -0.161718 -0.708211
1.52081 -0.163415 0.74716
1.44702 -0.07112 2.19537
1.4281 -0.0179567 3.34036
1.43126 0.0157869 4.47935
1.36104 0.162876 -3.27621
1.39507 0.236798 -2.13991
1.51533 0.20209 -0.70024
1.52963 0.196896 0.742989
1.43591 0.276315 2.18354
1.41728 0.326669 3.328
1.42575 0.36125 4.46828
1.34636 0.727248 -3.22501
1.36554 0.80006 -2.08624
1.50276 0.933117 -0.673691
1.50359 0.957016 0.735901
1.40938 0.944376 2.14922
1.40345 0.993758 3.29516
1.41991 1.04266 4.4417
1.44659 1.72429 -3.17991
1.47455 1.8161 -2.04708
1.49765 1.96129 -0.646918
1.47557 2.04249 0.744743
1.43842 2.05736 2.14539
1.42845 2.07307 3.27923
1.43193 2.10428 4.42138
-0.674327 0.485 -2.15394
0.00183848 0.193922 -2.20608
-0.761704 0.169929 -1.42167
-0.684673 0.633031 2.18974
0.00184101 0.295161 2.22484
-0.783899 0.21032 1.47167
0.0044435 0.774598 -2.13721
-0.717444 0.858454 -1.37602
0.00476852 1.01168 2.21865
-0.721836 0.986887 1.4408
0.68048 0.485 -2.1512
0.765409 0.169903 -1.42167
0.689995 0.63 2.18845
0.786651 0.21125 1.47167
0.726653 0.857658 -1.37167
0.731309 0.981881 1.44167
-0.781613 0.181314 0.025
-0.874103 0.554802 -0.685073
0.00183755 0.169013 -0.698333
-0.880301 0.587365 0.742463
0.00163405 0.186184 0.748333
-0.765095 0.968126 0.03239
0.00270134 1.17423 -0.670073
0.00320778 1.37994 0.737463
0.785276 0.18133 0.025
0.877938 0.551943 -0.683333
0.884012 0.584098 0.743333
0.771249 0.962037 0.035
-0.883706 0.519901 -1.39884
-0.887095 0.571083 0.028695
-0.887266 0.610198 1.45623
0.00183802 0.170596 -1.42167
0.0017358 0.177822 0.025
0.00173753 0.197743 1.47167
0.00314099 0.485 -2.36193
0.00330476 0.631515 2.33174
0.00357242 0.917816 -1.37384
0.00295456 1.3767 0.033695
0.00398815 1.22166 1.44123
0.883608 0.518471 -1.39667
0.890805 0.56802 0.03
0.886996 0.607049 1.45667
-1.03245 0.24713 -2.14361
-0.668877 0.080217 -2.15264
-0.68172 0.208865 -2.71202
-1.05381 0.302413 2.18912
-0.710747 0.140523 2.19937
-0.692848 0.336084 2.76376
-0.986046 0.75937 -2.08625
-0.643311 0.704571 -2.65215
-0.635124 1.25787 -2.06297
-1.01839 0.94699 2.14676
-0.665738 0.970189 2.71948
-0.692564 1.50279 2.14308
0.693592 0.0799575 -2.15246
0.657921 0.208474 -2.71129
1.02987 0.245899 -2.14246
0.693109 0.140249 2.19942
0.691387 0.335081 2.76384
1.06223 0.300657 2.18927
0.626959 0.704071 -2.64799
0.688181 1.25636 -2.059
0.989712 0.75753 -2.08062
0.669554 0.965142 2.71959
0.679103 1.49744 2.14357
1.03196 0.939688 2.14711
-1.1452 0.188456 -0.70011
-0.762055 -0.00265987 -0.703375
-1.15443 0.195109 0.745236
-0.784413 0.0106793 0.749999
-1.13248 0.939607 -0.674992
-0.736356 1.45175 -0.65943
-1.12121 0.975509 0.735073
-0.746418 1.52008 0.739324
0.779789 -0.00289715 -0.70327
1.14745 0.186739 -0.699287
0.77855 0.0107551 0.75007
1.16078 0.193613 0.745661
0.769104 1.44685 -0.656551
1.13718 0.932807 -0.671012
0.745539 1.51425 0.740969
1.13039 0.96744 0.737117
-1.41692 -0.125387 -2.72799
-1.40901 0.00977295 -3.28907
-1.05897 -0.14239 -3.29962
-1.46067 -0.132078 -1.43331
-1.41136 0.0671288 -2.14972
-1.04779 -0.0997846 -2.15875
-1.51265 -0.16005 0.0185196
-1.50852 0.0231875 -0.705642
-1.12537 -0.167928 -0.708906
-1.49122 -0.114651 1.47069
-1.52149 0.0196759 0.744286
-1.15147 -0.164754 0.749049
-1.44937 -0.0411931 2.76737
-1.44121 0.105736 2.18909
-1.09815 -0.0561543 2.19934
-1.44091 0.0032843 3.90919
-1.42654 0.15864 3.33366
-1.07996 -0.00588013 3.34283
-1.43598 0.193586 4.47306
-1.0832 0.0243358 4.48039
-1.40345 0.202289 -2.71079
-1.39073 0.447783 -3.25482
-1.05272 0.164024 -3.2792
-1.45921 0.222394 -1.42205
-1.3855 0.5215 -2.11725
-1.51736 0.202913 0.0201252
-1.50663 0.573261 -0.690029
-1.47148 0.240063 1.46269
-1.50593 0.583253 0.737845
-1.41838 0.305569 2.75538
-1.40727 0.616373 2.16588
-1.4216 0.348942 3.89753
-1.40495 0.666241 3.31101
-1.05741 0.339241 3.33002
-1.42437 0.707967 4.45418
-1.07146 0.36973 4.46893
-1.37278 0.766994 -2.66128
-1.38475 1.22983 -3.20756
-1.03005 0.712195 -3.22717
-1.43292 0.872368 -1.38522
-1.38194 1.31295 -2.07219
-1.4952 0.953602 0.0276906
-1.47282 1.45505 -0.664661
-1.44172 0.959564 1.44104
-1.48346 1.50879 0.737656
-1.39385 0.977045 2.72151
-1.42643 1.50954 2.14597
-1.40772 1.02527 3.86766
-1.42219 1.54122 3.28607
-1.04119 1.00024 3.29422
-1.4328 1.58059 4.43037
-1.06328 1.04909 4.44087
-1.39391 1.77579 -2.61847
-1.0315 1.71771 -3.18187
-1.42184 1.89563 -1.35162
-1.03102 1.81144 -2.04891
-1.46108 2.01023 0.0453049
-1.0767 1.96719 -0.649099
-1.46817 2.05876 1.44259
-1.10867 2.05336 0.741907
-1.45477 2.07371 2.71053
-1.1006 2.06534 2.14229
-1.44727 2.09655 3.84878
-1.08948 2.07923 3.27649
-1.08653 2.11002 4.41912
-0.689829 -0.116788 -2.73037
-0.702672 0.0118605 -3.28975
-0.00958948 -0.139492 -3.29993
-0.712492 -0.135635 -1.43434
0.0228764 -0.0948255 -2.1601
-0.764194 -0.172633 0.0216241
0.0158962 -0.176944 -0.708312
-0.758399 -0.106257 1.4777
-0.00749712 -0.168691 0.751735
-0.728739 -0.0208413 2.77479
-0.0194786 -0.0442276 2.20379
-0.722257 0.0151714 3.91402
-0.71084 0.17472 3.33919
-0.0105834 0.00145052 3.34595
-0.71869 0.20048 4.47626
-0.00830962 0.0269122 4.48237
-0.692038 0.428436 -3.25155
-0.0256383 0.162339 -3.2783
-0.707274 0.360028 3.90142
-0.693652 0.673243 3.31324
-0.00330158 0.346165 3.3326
-0.71038 0.710851 4.45562
-0.00423278 0.371588 4.47048
-0.6768 1.20007 -3.20149
-0.0207951 0.693642 -3.22252
-0.696758 1.02407 3.86743
-0.708485 1.53826 3.28464
-0.000952311 0.9973 3.29406
-0.71701 1.57851 4.42962
-0.00223165 1.0471 4.44111
-0.668614 1.75337 -2.61231
0.0330252 1.70476 -3.17758
-0.685881 1.88301 -1.34639
0.0486135 1.79923 -2.04436
-0.724291 2.01032 0.0475036
0.030047 1.96324 -0.645907
-0.741098 2.05994 1.44161
-0.00408677 2.05299 0.74283
-0.735312 2.07086 2.70824
-0.0182298 2.0622 2.14164
-0.728738 2.0927 3.84683
-0.0144367 2.07507 3.27571
-0.00954084 2.10629 4.41868
0.703116 -0.11753 -2.72966
0.667444 0.0109869 -3.28848
1.03909 -0.144147 -3.29783
0.751264 -0.136134 -1.43407
1.07898 -0.101189 -2.15774
0.772593 -0.173002 0.0217995
1.14957 -0.169451 -0.708209
0.731424 -0.106661 1.47782
1.14299 -0.166118 0.749483
0.698678 -0.0219358 2.77494
1.07235 -0.0578105 2.19961
0.703364 0.0131913 3.91429
0.696955 0.172896 3.33936
1.06389 -0.00866356 3.3432
0.706148 0.198021 4.47659
1.06915 0.0207699 4.48095
0.645604 0.427545 -3.24927
1.00611 0.162412 -3.27689
0.699739 0.357725 3.90166
0.689398 0.670222 3.31342
1.05575 0.335915 3.33033
0.703915 0.707841 4.45597
1.0655 0.365769 4.46946
0.689031 1.19833 -3.19862
0.993197 0.710195 -3.22299
0.693574 1.02034 3.86774
0.693096 1.53411 3.28513
1.04401 0.994521 3.29466
0.705238 1.57488 4.43017
1.06124 1.04403 4.4415
0.750253 1.75062 -2.60963
1.09231 1.7139 -3.17809
0.764542 1.87946 -1.34388
1.11851 1.80692 -2.04504
0.750251 2.00592 0.0494188
1.13213 1.96124 -0.645843
0.718781 2.05526 1.44287
1.10473 2.04656 0.744174
0.702646 2.06641 2.70911
1.07104 2.05862 2.14376
0.70476 2.08865 3.84756
1.06503 2.07301 3.27766
1.06991 2.10432 4.42021
1.41496 -0.127806 -2.72591
1.37776 0.00727858 -3.28624
1.47729 -0.134505 -1.43188
1.41526 0.0647527 -2.14773
1.51997 -0.162567 0.0194742
1.51723 0.0201859 -0.704226
1.48392 -0.117268 1.47127
1.52522 0.0167403 0.745074
1.43756 -0.0445383 2.76787
1.44147 0.102597 2.18946
1.42968 -0.00108492 3.90985
1.42269 0.154356 3.33418
1.42851 0.188519 4.47382
1.37805 0.199837 -2.70806
1.3537 0.445062 -3.25061
1.4552 0.219444 -1.42008
1.3803 0.518429 -2.11307
1.52248 0.199493 0.0213742
1.50905 0.567603 -0.686966
1.48277 0.236605 1.46326
1.51661 0.576956 0.739445
1.42659 0.301492 2.75577
1.42264 0.610345 2.16638
1.42152 0.34396 3.89814
1.41036 0.660214 3.31158
1.42283 0.701956 4.45499
1.35595 0.763654 -2.65562
1.39647 1.22577 -3.20246
1.43415 0.866588 -1.37996
[...]
POINT_DATA 29498
VECTORS point_vectors float
-1.32723 -3.30128 5.05971
0.0113892 0.108537 0.248976
-1.14708 2.2071 3.78287
-0.0228444 -0.0755716 0.120395
1.26799 -3.40292 5.35818
-0.0146245 0.0964706 0.222671
1.19166 2.22247 3.74513
0.0197854 -0.0588434 0.0906427
0.00424559 0.00210341 0.271966
-0.00293149 0.00217552 0.319018
-0.00335114 0.000849274 0.0877238
0 0 0
-0.00473483 0.00255839 0.299906
0.00362386 0.00153827 0.30496
0 0 0
0 0 0
-0.564912 -0.278881 19.7974
-1.33743 -0.841459 20.4167
-0.435287 -0.444961 21.3523
0.0918146 -0.0784516 21.4889
0.655016 0.27347 21.3755
0.880107 0.296768 21.1724
0.784163 0.0832931 20.976
-0.680458 -0.194565 19.6643
-1.98379 -0.685835 20.2827
-0.65493 -0.538633 21.4327
0.0574753 -0.189741 21.6013
0.92062 0.117559 21.4338
1.1401 0.10187 21.2621
1.00466 -0.00289465 21.2958
-0.747835 0.0990567 19.5824
-2.28353 0.378298 20.1646
-1.32694 -0.24031 21.407
-0.215714 -0.29024 21.7419
0.79419 -0.476646 21.5589
1.00578 -0.505608 21.2015
0.894273 -0.376716 20.722
-0.473987 0.358765 19.8863
-0.879753 0.696746 20.2822
-0.875083 0.544482 21.0982
-0.280098 0.0308721 21.4946
0.172872 -0.316519 21.3567
0.31091 -0.404517 21.1186
0.266668 -0.344156 20.7688
-0.521329 -0.555038 19.2726
-1.65097 -3.5819 20.5501
-0.15503 -0.468895 21.693
0.0789634 0.121864 20.7234
0.279719 1.2393 18.0591
0.77473 1.49575 17.1503
0.928268 0.77136 16.8391
-0.65562 -0.444123 18.9881
1.27068 1.62677 10.1566
1.55378 0.793639 11.5607
-0.78051 0.153399 18.6352
1.54764 -0.489367 10.0113
1.23602 -0.398224 15.7944
-0.37228 0.66751 19.5456
-0.783301 1.5195 20.0233
-1.0236 1.58015 21.1485
-0.280878 0.233347 21.8835
0.118992 -0.494128 21.424
0.193162 -0.628893 21.0961
0.124628 -0.528068 20.3423
0.512452 -0.565177 19.2541
1.7189 -3.41766 20.5209
0.160229 -0.47764 21.6867
-0.0694263 0.130446 20.6864
-0.191546 1.20406 17.6992
-0.698057 1.50897 17.1523
-0.929282 0.767826 16.622
0.631665 -0.463898 18.9316
-1.23854 1.6326 9.87606
-1.5415 0.797316 11.4451
0.755593 0.172554 18.5736
-1.54893 -0.485466 9.80124
-1.23666 -0.3877 15.6711
0.402639 0.64032 19.5753
0.853194 1.40984 20.0561
1.04681 1.47611 21.1636
0.284891 0.239751 21.889
-0.105906 -0.494122 21.4366
-0.180974 -0.644782 21.0908
-0.123814 -0.531708 20.2836
0.569673 -0.281038 19.7924
1.30566 -0.828076 20.4202
0.45291 -0.443956 21.344
-0.0882375 -0.0770868 21.4881
-0.655324 0.290256 21.3782
-0.884227 0.300361 21.147
-0.77517 0.100432 20.9964
0.695088 -0.204006 19.6309
2.01413 -0.708154 20.2889
0.661151 -0.543375 21.4328
-0.05888 -0.187463 21.5874
-0.907669 0.117952 21.4153
-1.13075 0.109787 21.2448
-1.01363 0.00571703 21.3077
0.771 0.108901 19.5556
2.30568 0.3746 20.1801
1.32002 -0.245859 21.4125
0.202273 -0.283013 21.7392
-0.789201 -0.446072 21.4485
-1.01588 -0.48926 21.1983
-0.902971 -0.37498 20.7156
0.47102 0.340093 19.9001
0.868198 0.62792 20.3041
0.852905 0.496364 21.0833
0.277829 0.0279484 21.4856
-0.166815 -0.331052 21.3543
-0.303594 -0.404887 21.1037
-0.25105 -0.352121 20.7855
-0.4986 0.0235703 0.497592
0.000632903 -0.164864 0.752904
-0.0242401 -0.00206135 0.563388
-0.00612144 -0.00347973 -0.000327799
-5.90028e-06 0.0018795 0.0124216
-0.0260301 0.0524771 0.773941
0.00352758 0.174647 0.468039
-0.168718 0.0208622 0.439534
0.000473587 0.0627678 -0.0951895
0 0 0
0.28923 -0.0288279 0.307565
0.0229849 -0.0024589 0.557567
0.00503558 -0.00258222 -0.000931671
0.0269688 0.0561702 0.790325
0.109544 0.00544136 0.238702
0 0 0
-7.45754e-06 0.00444469 0.369274
-0.00047907 0.000233657 0.0265459
0 0 0
0 0 0
2.61533e-06 1.55715e-05 0.00223301
0 0 0
-0.000296445 0.0919431 0.19842
8.07128e-06 -0.00625317 0.0682519
0.000379527 0.0045195 0.355385
0.000397044 -0.000665661 0.0303551
3.6694e-06 -2.81631e-05 -0.0001803
0 0 0
-0.00293387 -0.00800658 0.0947873
1.81139e-05 0.00151365 0.0133646
0 0 0
-6.13492e-07 -4.68717e-06 0.000372051
-3.74929e-06 0.00178945 0.0653868
9.61714e-07 1.32069e-05 0.000672569
0.0311916 0.280979 0.200921
0 0 0
-7.14044e-05 0.00607495 0.0402622
5.53331e-06 0.0114606 0.109876
0.000102416 0.00084965 -0.00181379
0.00251391 -0.00677062 0.0765069
0.000145692 0.00224158 0.0199242
0 0 0
-3.93579 -1.90067 19.7689
-2.81042 -6.18872 20.4345
-2.03423 -1.48635 17.6795
1.3348 0.860282 16.8929
-0.0132404 1.30707 9.69026
0.224693 1.07845 6.03413
-4.54604 1.46775 19.4808
-2.50558 1.0976 16.9058
-1.83315 2.87079 19.6283
1.26014 -0.220204 16.8479
0.284176 -0.165298 5.03723
0.468425 -0.810127 18.9777
2.91971 -5.87217 20.3566
2.04757 -1.53054 17.5563
3.97005 -1.94334 19.7774
0.0797096 1.24519 9.29306
-0.194832 1.07422 5.95528
-1.33203 0.837332 17.1144
2.51971 1.1997 16.7647
1.90099 2.69551 19.6739
4.57941 1.46571 19.5174
-0.281207 -0.157203 5.00701
-0.497151 -0.800893 18.5705
-1.26219 -0.227168 17.2492
-0.393488 -0.846881 20.8841
-0.0615278 -0.142291 17.4685
0.172492 -0.0888774 20.0178
0.04798 0.210814 15.6831
-2.3494 -0.702033 21.5366
-2.87407 2.40003 21.1677
-0.178782 -0.337902 20.0607
-0.504362 0.0718485 21.5454
0.0490996 -0.166286 17.6758
0.409942 -0.862551 20.8904
-0.0383578 0.214587 15.5654
-0.174471 -0.0933711 20.1157
2.88845 2.23044 21.2121
2.32481 -0.723016 21.5357
0.485473 0.0713754 21.3949
0.166565 -0.352273 20.111
-0.960771 -0.531435 19.9075
-0.628374 -0.238029 19.734
-0.600524 -0.426012 19.5538
-0.911939 -0.708646 21.1663
-1.67781 -0.817432 20.3481
-1.84508 -1.86072 20.3488
-0.147017 -0.248543 21.4474
-0.562132 -0.516871 21.3787
-0.290201 -0.574648 21.5397
0.353175 0.10096 21.5145
0.066149 -0.148441 21.5186
0.141635 -0.0447208 21.6103
0.791406 0.347949 21.2317
0.800245 0.22053 21.4718
0.820275 0.752508 20.9309
0.937301 0.285042 20.4391
1.02716 0.207844 21.2196
1.12659 0.932294 20.8171
0.89441 0.0401992 21.1359
0.826266 0.679722 21.3101
-1.27996 -0.400401 19.6874
-0.735026 -0.0694686 19.6022
-0.722382 -0.323373 19.3607
-1.33618 -0.703452 21.274
-2.35769 -0.202197 20.1958
-0.277326 -0.372489 21.5187
-1.00082 -0.505078 21.439
0.449717 -0.0290862 21.6647
-0.0538596 -0.281926 21.7247
1.07633 0.149432 21.2471
0.98823 -0.196895 21.387
1.24902 0.086782 20.3517
1.19834 -0.24962 21.3484
1.51381 0.788988 17.6966
1.12193 -0.356613 20.9013
1.26209 0.396108 16.7612
-1.45975 0.234384 19.5596
-0.637806 0.288199 19.7005
-0.83792 0.123087 19.1803
-1.87238 0.0296854 21.0768
-1.4484 0.766287 20.1998
-0.769631 -0.310068 21.6876
-1.29092 0.336502 21.2472
0.334544 -0.333887 21.7271
-0.334745 -0.0995958 21.6666
0.950351 -0.518976 21.2617
0.395173 -0.464052 21.4071
0.872668 -0.45741 20.928
0.540217 -0.550806 20.9942
1.44516 -0.693086 19.5873
0.399448 -0.402796 20.8465
1.16038 -0.709978 19.7254
-0.69115 0.554489 20.0121
-0.469876 0.502901 19.7169
-0.959545 0.684692 20.6989
-0.930848 1.09787 20.1461
-0.622245 0.286873 21.4168
-1.0307 0.936156 21.1585
-0.00358229 -0.180743 21.4109
-0.327492 0.120138 21.6546
0.267185 -0.409564 21.1831
0.148794 -0.419768 21.3926
0.313309 -0.41299 20.8907
0.301018 -0.56493 21.0359
0.203699 -0.448587 21.0434
-1.19424 -1.63573 18.9556
-0.588474 -0.499581 19.1303
-0.0119348 -0.745359 18.9748
-0.50281 -1.37212 22.055
0.0299789 -4.19849 21.596
0.00152172 -0.119151 21.0465
-0.00204015 -0.439547 21.3207
0.163412 0.550929 19.5063
-0.00108375 0.0526341 19.5906
0.414699 1.35861 18.2086
-0.00893857 0.695468 15.3296
0.497226 1.33232 18.808
0.971229 1.83421 14.3158
-0.0026178 1.13928 15.2269
1.26094 0.821763 14.1751
0.0338484 1.39992 15.2588
-0.745481 -0.133984 18.7276
-0.0398266 -0.58802 18.4984
1.67246 1.18844 11.1163
2.02822 0.331591 7.47824
-0.0168742 0.306911 -0.015988
1.72004 0.260897 11.6791
0.0255965 1.15841 9.16889
-0.603573 0.659472 19.0511
-0.0365688 0.284152 18.0974
1.55325 -0.668058 12.1254
0.654903 -1.04177 19.4575
0.00694304 -0.0787427 -3.05863
0.403687 -0.959257 19.7456
0.00359433 -1.38357 1.69984
-0.600666 1.15665 19.6304
0.0172139 0.8129 19.3901
-0.955673 1.59217 20.5242
0.0703799 1.95321 19.8805
-0.751136 0.976791 21.8206
0.0695477 2.34612 21.0918
-0.0034339 -0.259997 21.6939
-0.00124228 0.462849 22.0539
0.173852 -0.584336 21.2656
0.00390684 -0.498735 21.5316
0.173033 -0.646762 21.0439
0.00688214 -0.752396 21.0972
0.00137296 -0.678101 21.0942
1.19351 -1.60883 18.9842
0.572942 -0.51731 19.0947
0.601408 -0.437356 19.5417
0.546662 -1.37123 22.0484
1.81864 -1.75759 20.3507
-0.00269895 -0.121146 21.0607
0.302954 -0.579971 21.5289
-0.127945 0.547073 19.2331
-0.143416 -0.0367012 21.6148
-0.358489 1.32425 17.9771
-0.802993 0.810097 20.7872
-0.451475 1.37279 18.7519
-0.924672 1.83086 14.2895
-1.13721 0.985155 20.7689
-1.25053 0.814379 14.0135
-0.827323 0.702836 21.3148
0.72937 -0.132733 18.6411
0.724558 -0.340232 19.3049
-1.6814 1.21511 10.8715
-2.00345 0.345268 7.26827
-1.49888 0.803174 17.6365
-1.71229 0.269335 11.5251
-1.26128 0.404593 16.7209
0.615469 0.655838 19.0553
0.8424 0.126154 19.138
-1.56359 -0.665533 11.9137
-0.639974 -1.06371 19.3769
-1.45937 -0.675185 19.5194
-0.399639 -0.969897 19.7154
-1.167 -0.703607 19.7021
0.660045 1.08725 19.6762
0.486109 0.485083 19.7401
1.01754 1.49935 20.5409
0.933251 0.997028 20.1862
0.762968 0.948888 21.8089
1.03104 0.868679 21.1585
0.00881939 -0.25919 21.6973
0.332667 0.120981 21.651
-0.159324 -0.592096 21.2618
-0.149386 -0.431608 21.3973
-0.168059 -0.651179 21.0995
-0.312034 -0.577581 21.0463
-0.199853 -0.45425 21.0503
0.95147 -0.539333 19.9094
0.632814 -0.242971 19.7128
0.90759 -0.693914 21.1555
1.66866 -0.816426 20.355
0.156662 -0.255757 21.4538
0.566831 -0.520424 21.3746
-0.356636 0.101454 21.5217
-0.0666046 -0.150453 21.5024
-0.792206 0.367273 21.2285
-0.798729 0.236311 21.4169
-0.948664 0.290942 20.4258
-1.02571 0.21088 21.2267
-0.8944 0.0530744 21.1521
1.31134 -0.419857 19.6498
0.747575 -0.0712347 19.5716
1.33565 -0.712995 21.2769
2.39066 -0.214799 20.2065
0.275413 -0.370694 21.5231
0.99954 -0.504304 21.4463
-0.447414 -0.0277522 21.6557
0.049338 -0.273945 21.7181
-1.0673 0.152741 21.2495
-0.965478 -0.189937 21.3841
-1.24892 0.0973708 20.3471
-1.19818 -0.24268 21.3564
-1.14172 -0.352198 20.9052
1.49714 0.244628 19.5371
0.639581 0.285022 19.7074
1.8674 0.0177625 21.0836
1.41622 0.710876 20.223
0.753612 -0.305649 21.6858
1.26104 0.305001 21.2375
-0.334991 -0.330778 21.7115
0.326985 -0.10276 21.6691
-0.95118 -0.499575 21.2609
-0.403326 -0.469112 21.3969
-0.869773 -0.450726 20.8935
-0.553384 -0.563931 21.0304
-0.405205 -0.417448 20.8263
0.678133 0.501011 20.0412
0.929159 0.615583 20.7091
0.620837 0.273958 21.4153
0.00130628 -0.18409 21.4464
-0.261528 -0.413832 21.1648
-0.286624 -0.432645 20.8922
-1.13475 -0.491055 19.7881
-1.62728 -1.70467 18.3081
-1.23929 -0.99487 19.5031
-1.78275 -0.789204 18.9882
-0.694003 -0.410253 19.4684
-2.74291 -2.08615 20.096
-1.12614 -0.736988 21.2285
-0.437367 -0.814289 17.7888
-0.885824 -1.17462 21.5642
-1.59149 -1.50365 22.0511
-0.302082 -0.711473 21.5706
-0.215657 -0.336738 21.4815
0.0807576 0.0713326 16.1124
-0.0369361 -0.298396 21.5723
-0.0636588 -0.482521 20.3669
0.19789 -0.0901913 21.2701
0.395276 0.0407765 21.5733
-0.0193793 0.519951 12.7639
0.430324 0.311511 21.4994
0.576687 0.380628 18.8342
1.1109 0.886075 19.5206
0.976093 0.287384 21.2027
0.32396 1.35431 12.0729
0.956685 0.870995 20.6868
1.49831 0.826456 17.903
1.20978 0.923278 19.1759
1.15904 0.182867 20.3061
0.943523 1.26183 14.4271
0.956315 0.748296 21.0529
1.60698 0.584176 19.47
1.03186 0.549148 19.3136
-1.44935 -0.122505 19.5635
-2.53712 -0.393259 16.852
-2.12385 0.496551 18.6688
-0.867188 -0.106567 19.2108
-5.06154 -0.323624 19.4364
-1.70209 -0.421042 21.2551
-3.09129 0.0684467 21.5285
-0.972724 -1.09574 20.3265
-0.500756 -0.423266 21.6371
-1.20043 -0.738718 20.9048
0.137713 -0.0888562 18.8223
0.440862 -0.197805 21.7042
0.719245 -0.00397904 18.5864
1.43907 0.33125 14.911
1.14315 -0.239022 21.2138
0.305695 0.434209 3.33984
1.2904 -0.51903 18.2125
1.9199 0.0714269 16.6738
1.10407 -0.262744 20.8111
2.04627 0.416901 9.3961
1.49342 -0.737116 19.8383
1.43564 -0.135534 16.8063
-1.06089 0.560688 19.7867
-1.23669 1.63863 18.7892
-0.717434 0.848611 19.8329
-0.67774 0.457225 19.4152
-1.86104 1.55831 19.9331
-1.48395 0.587746 20.7858
-2.05221 2.23992 20.3957
-1.06131 1.08638 20.6323
-1.97487 0.837515 21.3368
-0.85409 0.0895088 21.6039
-2.13204 1.12647 22.4328
-0.737895 0.564225 21.6116
-0.469034 -0.0710274 22.0154
0.109332 -0.299564 21.6043
0.311977 -0.584336 20.2555
-0.0241078 -0.224785 21.5556
0.383756 -0.701919 21.564
0.510957 -0.558759 21.2283
0.477667 -0.937789 19.6141
0.226485 -0.517364 21.2204
0.564957 -0.865599 21.4389
0.583826 -0.547214 20.9029
0.455901 -1.11684 19.8441
0.206844 -0.471729 21.0917
0.400644 -0.670358 20.3289
1.62708 -1.71995 18.2871
0.0136396 -2.54431 18.2952
-0.0565774 -2.68054 15.7279
-0.0248119 -0.702664 18.7138
0.00496078 -5.16818 22.3156
0.436809 -0.870498 18.2381
0.008467 -1.24601 22.0582
-0.00943608 -0.0850159 14.3935
-0.0851409 0.0681405 16.1685
-0.00353853 -0.117511 20.1886
0.000629024 0.0906937 12.3203
0.0427395 0.511055 12.5164
-0.000855599 0.3556 17.6838
-0.0197442 0.447878 5.93851
-0.247719 1.34283 11.8085
-0.00680837 0.521546 15.2442
-0.00302536 -1.3898 -2.06931
-0.0157485 1.16985 7.21572
-0.903988 1.29281 14.3857
0.00149637 1.65197 15.2802
-0.00163533 -0.203423 0.955402
0.0297225 1.27917 12.2138
2.55646 -0.392475 16.6977
-0.0633172 2.29988 14.4929
-0.0409296 -0.226495 18.1484
-0.285397 0.443321 3.29051
0.0115961 0.269683 -2.62453
0.00130188 -0.541802 -4.68076
-2.04495 0.440436 9.19817
0.00762386 -1.44552 -1.60987
0.0212692 -0.13137 3.94276
1.26863 1.58325 18.8295
0.0548275 1.47658 19.4483
0.003139 0.846144 18.744
0.0821438 3.8421 19.4578
2.09277 2.12703 20.4263
0.0671738 2.1617 20.352
0.0802798 4.91885 20.579
2.11719 1.05096 22.482
0.0243277 1.58828 22.0564
-0.00240713 0.345013 20.2159
-0.348787 -0.581463 19.9792
-0.000866517 -0.230888 21.7508
0.00254615 -0.616814 14.0745
-0.487867 -0.92827 19.2892
0.00592983 -0.619648 21.2668
0.00640645 -1.12747 16.3026
-0.457003 -1.12705 19.8021
0.00483374 -0.746777 21.0046
0.00520556 -0.98619 18.5833
1.14496 -0.507844 19.7751
1.24642 -0.99164 19.5082
1.82003 -0.841521 18.9133
0.702446 -0.435159 19.4311
2.69487 -2.02732 20.1192
1.11957 -0.736052 21.2215
0.911713 -1.14862 21.5213
1.59505 -1.51007 22.0489
0.329962 -0.722406 21.5961
0.217526 -0.342006 21.4842
0.0411164 -0.30308 21.571
0.0726688 -0.491573 20.4117
-0.195026 -0.0834446 21.2507
-0.398008 0.0416934 21.5744
-0.428278 0.336239 21.452
-0.593069 0.370245 18.9807
-1.09439 0.920554 19.3497
-0.976597 0.289752 21.2004
-0.953312 0.923149 20.6187
-1.4944 0.825688 17.9725
-1.2078 0.956948 19.0444
-1.17644 0.197945 20.2724
-0.941008 0.789572 21.0971
-1.59585 0.596441 19.4402
-1.03628 0.561662 19.2172
1.50936 -0.128402 19.527
2.17305 0.516617 18.5984
0.870452 -0.12001 19.1649
5.10485 -0.339238 19.4734
1.69846 -0.431838 21.26
3.06516 0.0155589 21.5182
0.991013 -1.08559 20.4203
0.493721 -0.418009 21.6435
1.16675 -0.747346 20.8832
-0.142695 -0.115658 19.0578
-0.439026 -0.192854 21.7017
-0.698484 -0.0383585 18.7581
-1.43619 0.319777 15.2893
-1.13143 -0.230282 21.2332
-1.29953 -0.512223 18.2745
-1.92118 0.0866793 16.674
-1.10689 -0.252811 20.8036
-1.50784 -0.726174 19.8145
-1.44409 -0.120925 16.6865
1.05188 0.539644 19.8114
0.737947 0.805183 19.8659
0.684996 0.455466 19.4181
1.84829 1.45429 19.9751
1.44796 0.54161 20.791
1.04907 1.00226 20.6537
1.93964 0.759507 21.342
0.834423 0.0784044 21.5958
0.737467 0.53716 21.6038
0.466947 -0.0787036 22.0213
-0.113556 -0.30255 21.6072
0.0281667 -0.230134 21.5644
-0.388998 -0.714436 21.5659
-0.519323 -0.559376 21.2
-0.221726 -0.532308 21.235
-0.573884 -0.873724 21.4692
-0.609887 -0.554524 20.9362
-0.209945 -0.485745 21.108
-0.396366 -0.683601 20.2949
-1.47875 -0.972394 19.2921
-1.13956 -1.37516 21.8056
-0.00557166 -0.39604 21.3703
0.537963 0.352672 20.584
1.2726 0.920266 19.5894
1.2468 0.610658 20.0113
-2.12521 -0.214572 18.6716
-2.3693 -0.989276 21.682
-0.335817 -0.673636 19.5187
0.651987 0.363741 17.3822
1.57749 0.127727 16.4094
1.64298 0.00940648 17.5003
-1.27491 0.980539 19.3793
-1.96284 1.20712 20.7012
-1.34 0.347955 21.9672
0.118789 -0.438539 21.8618
0.506914 -0.79406 21.3027
0.58679 -0.857613 20.8719
-0.0150435 -2.89962 17.2047
0.0101667 -0.472724 14.7804
-0.00387341 0.0568081 12.9533
-0.000328762 0.235674 9.5736
-0.0615941 -0.486429 5.24063
-0.00126107 0.899923 7.55057
-0.0594814 -0.448729 14.1258
-0.00258829 -0.582217 -4.45917
0.0286422 -0.557469 -0.406317
0.0399045 2.39234 18.2551
0.0759569 3.4059 19.8797
0.0241929 3.00972 22.341
0.000588068 -0.547049 16.155
0.00472879 -0.696922 15.1281
0.000270762 -1.05285 16.5824
1.49916 -0.998351 19.2629
1.1532 -1.35626 21.7647
0.0168593 -0.405238 21.4107
-0.537765 0.371233 20.4894
-1.2586 0.948019 19.4487
-1.23332 0.635098 20.0073
2.17813 -0.243538 18.5858
2.33494 -0.989964 21.6142
0.342946 -0.671356 19.647
-0.658997 0.326526 17.5584
-1.57764 0.136001 16.5527
-1.65016 0.0266418 17.478
1.28068 0.958533 19.4085
1.95076 1.1152 20.7207
1.31978 0.320748 21.9596
-0.122925 -0.446283 21.8723
-0.517273 -0.802263 21.3247
-0.57657 -0.867687 20.887
0 0 0
0.0331242 -0.311237 1.0916
-0.0326233 -0.205995 1.64371
0.0203344 0.00143981 0.0340477
0 0 0
0.0238924 0.196732 0.798644
0 0 0
-0.0234407 0.230155 0.4971
-0.0618386 0.031313 0.235968
-0.00782179 -0.00825483 -0.00286525
-0.0281819 0.0224433 -0.0329758
0.00458816 -0.00373325 0.0451264
-0.0286325 -0.285532 0.990393
1.30188e-16 -3.79753e-17 1.50306e-16
0.0354 -0.202847 1.69826
0 0 0
-0.00958944 0.00148683 0.0351277
-0.0274822 0.166024 0.793014
0.0322297 0.311026 0.626239
0 0 0
0.0821942 0.0403493 0.306686
0.0272767 0.0219795 -0.0325431
0.00998244 -0.00803611 -0.00607955
-0.00110852 -0.000895787 0.010556
-0.035786 0.0205953 0.638484
0.00482021 0.00216068 0.31594
0 0 0
0 0 0
-0.0218454 0.0317646 0.593036
-0.00685785 0.00403374 0.409171
-0.00113343 0.00866668 0.0927711
-9.47347e-05 0.000136788 0.013605
-0.45117 -0.0939865 0.590596
-0.00269062 -0.00192952 0.0631103
0 0 0
-0.0337985 0.0393924 0.0944832
-1.30979e-17 -1.51434e-17 -7.23324e-17
0.000509366 0.00215227 0.00899982
0 0 0
0.0109366 -0.00241543 0.0565804
0.0300956 0.018647 0.592213
0 0 0
-0.00482396 0.00153769 0.362279
0 0 0
0.0249891 0.0330345 0.581256
0.000143456 0.000162209 0.0166936
0.00937132 0.00572425 0.537952
0.0012037 0.0100024 0.100047
0.344555 -0.0699014 0.41715
0.0423403 0.0502977 0.119772
0.00235177 -0.00135133 0.0628691
0 0 0
0 0 0
-0.0151669 -0.00281067 0.0744766
-7.32063e-05 0.000304058 0.00129115
0 0 0
-0.215245 -0.0417485 0.700803
-0.22524 0.151026 0.152315
0 0 0
0.0223181 -1.05249 0.310087
-0.00204714 -0.0025818 0.131922
0 0 0
0.00158608 -0.000153669 0.00958805
0 0 0
-1.51663e-06 0.000459428 0.0043604
0 0 0
0 0 0
-4.82641e-06 9.60387e-05 0.00551034
0.0273505 0.743605 0.396891
-3.9257e-05 0.0140204 0.0811294
-0.0580296 -0.132992 0.596166
-0.00407073 0.00130537 0.0122666
-3.8147e-06 0.00532546 -0.00140631
0 0 0
0 0 0
-0.000292245 -0.000455894 0.0012223
0.194796 0.133795 0.132513
0.282298 -0.0614345 0.979251
0 0 0
0.00112059 -0.00324977 0.0942119
0 0 0
-0.00143056 -3.74752e-06 0.00862651
1.13178e-05 0.000237965 0.0137223
-1.5987e-18 7.40111e-18 5.5517e-17
0.0076796 0.00251337 0.0233918
0.0181415 -0.0611121 0.278174
0.000389196 -0.000571846 0.00152484
0 0 0
0 0 0
0.00044578 0.000892556 0.0411822
0.00212179 -0.00631858 0.0357551
-0.000321847 0.00145099 0.0252614
0 0 0
0 0 0
0.00019247 0.00159005 0.00994766
-0.00268066 0.0130291 0.121914
7.75675e-08 6.54819e-07 0.000118731
0 0 0
0 0 0
-0.0115355 0.0174244 0.200989
0 0 0
5.95113e-07 0.0170566 0.066483
-5.95688e-05 0.000358089 0.0210361
1.15419e-05 -0.00107949 0.00581399
-0.000404175 0.000900118 0.0407434
0 0 0
0 0 0
0.00055837 0.0020851 0.0369267
-5.76029e-05 0.000492083 0.00307456
0.00314124 0.0164889 0.139116
0.00844102 0.0116149 0.135299
0 0 0
-0.587161 -0.196799 1.79727
0 0 0
0.00483403 -0.00423617 0.0488019
-0.00154192 -0.0106841 0.0504155
9.75441e-19 -2.17651e-18 -5.63058e-17
-0.000151153 0.00229227 0.0158356
-0.000317224 0.00241221 0.024113
1.38212e-05 6.35995e-05 0.000274246
0.000385558 0.00256794 0.0343102
0.00349587 0.0192562 0.0808719
0 0 0
0.000864265 -0.000211787 0.00749591
0 0 0
0 0 0
0 0 0
0 0 0
1.71964e-05 1.84599e-05 0.00224885
-5.93533e-05 4.44727e-05 0.00694263