# vtk DataFile Version 2.0
tri_press
ASCII
DATASET UNSTRUCTURED_GRID
POINTS 3682 float
-0.779743 0.225 -2.145
-0.775 0.305 2.21321
-0.745 0.765 -2.09627
-0.721998 0.975 2.095
0.779742 0.225 -2.145
0.774697 0.305 2.215
0.745 0.765 -2.09627
0.721993 0.975 2.095
-0.798858 0.230971 -0.692263
-0.81779 0.237124 0.760474
-0.825049 0.922717 -0.69918
-0.812075 0.98741 0.69791
0.798751 0.230976 -0.691667
0.817584 0.237128 0.761667
0.825058 0.922726 -0.69918
0.812062 0.9874 0.69791
-1.58617 -0.160277 -3.27772
-1.58377 -0.10712 -2.13773
-1.59849 -0.0993508 -0.683517
-1.60216 -0.101881 0.781885
-1.57247 -0.0592767 2.23705
-1.56517 -0.0241619 3.38165
-1.57019 0.00705684 4.51772
-1.58214 0.150442 -3.27345
-1.58071 0.220106 -2.13956
-1.60506 0.246522 -0.696243
-1.60324 0.249489 0.752037
-1.55245 0.28845 2.19642
-1.55292 0.322572 3.34021
-1.56499 0.353767 4.47811
-1.56847 0.746496 -3.24925
-1.56347 0.814272 -2.11299
-1.61749 0.930884 -0.707621
-1.59926 0.978854 0.69375
-1.52303 0.982024 2.10014
-1.53809 1.01366 3.24596
-1.56135 1.04861 4.39268
-1.56663 1.73883 -3.25508
-1.5691 1.8182 -2.12722
-1.59161 1.94035 -0.739928
-1.60133 2.02682 0.635287
-1.58847 2.06207 2.02307
-1.58181 2.08272 3.15195
-1.58427 2.10904 4.29256
-0.796463 -0.158403 -3.28123
-0.785225 -0.102743 -2.14285
-0.794945 -0.106831 -0.682591
-0.808383 -0.110718 0.78929
-0.79174 -0.0527239 2.24981
-0.787639 -0.0201686 3.3904
-0.791616 0.00797751 4.52291
-0.796352 0.146724 -3.2745
-0.781815 0.32706 3.34741
-0.789844 0.354508 4.48207
-0.783566 0.724799 -3.24227
-0.769511 1.01172 3.24505
-0.789097 1.04732 4.39268
-0.772507 1.72419 -3.24816
-0.769332 1.80454 -2.11961
-0.79036 1.937 -0.735285
-0.809446 2.02996 0.634874
-0.808175 2.06296 2.01935
-0.804275 2.08184 3.14825
-0.805847 2.10792 4.28994
0.774906 -0.158401 -3.2811
0.790009 -0.102741 -2.14268
0.804893 -0.106827 -0.682028
0.808485 -0.110715 0.790333
0.778861 -0.052723 2.25121
0.768068 -0.020168 3.3915
0.765149 0.00797822 4.52376
0.763718 0.146726 -3.27442
0.757376 0.32706 3.34847
0.758322 0.354509 4.48287
0.757888 0.724801 -3.24222
0.738667 1.01172 3.24555
0.748643 1.04732 4.39327
0.804545 1.72419 -3.24803
0.815932 1.80455 -2.11949
0.812612 1.937 -0.73514
0.783719 2.02996 0.635064
0.754715 2.06296 2.01961
0.748591 2.08184 3.1486
0.749473 2.10792 4.29036
1.56714 -0.160273 -3.27739
1.5831 -0.107115 -2.13732
1.6051 -0.099344 -0.682561
1.60817 -0.101877 0.783551
1.57253 -0.0592747 2.23918
1.55462 -0.0241604 3.38355
1.54959 0.007058 4.51932
1.55663 0.150446 -3.27323
1.57527 0.220111 -2.13932
1.60549 0.24653 -0.695438
1.60992 0.249491 0.753573
1.5602 0.288451 2.19849
1.54157 0.322573 3.34202
1.54065 0.353768 4.47963
1.55045 0.7465 -3.24908
1.56228 0.814277 -2.11288
1.61879 0.930893 -0.707329
1.6032 0.978848 0.694315
1.52655 0.982023 2.10093
1.51938 1.01366 3.24704
1.52806 1.04861 4.39386
1.594 1.73884 -3.25479
1.60643 1.81821 -2.12694
1.61004 1.94035 -0.739587
1.58293 2.02682 0.635733
1.54647 2.06206 2.02366
1.53396 2.08271 3.15268
1.53288 2.10903 4.29342
-0.805008 0.495 -2.16327
-5.06639e-07 0.219788 -2.15021
-0.796669 0.220617 -1.41863
-0.789585 0.64 2.19519
-0.000151485 0.300591 2.21851
-0.827398 0.240059 1.48684
0 0.823898 -2.15517
-0.823483 0.882317 -1.39773
-2.47359e-06 1.01349 2.13349
-0.796178 1.01035 1.39646
0.805006 0.495 -2.16327
0.796614 0.220621 -1.41833
0.789496 0.64 2.19615
0.827141 0.240063 1.48833
0.823481 0.882315 -1.39773
0.796172 1.01034 1.39646
-0.810893 0.231478 0.0341051
-0.881021 0.576844 -0.695722
-5.35552e-05 0.227285 -0.691965
-0.882123 0.612267 0.729192
-0.000102962 0.236008 0.76107
-0.818689 0.95519 -0.000635028
4.12509e-06 1.23136 -0.69918
-6.59868e-06 1.38348 0.69791
0.81074 0.23148 0.035
0.881016 0.576851 -0.695424
0.882117 0.612264 0.729788
0.818678 0.955182 -0.000635028
-0.897703 0.535922 -1.40818
0.897703 0.535926 -1.40803
-2.70309e-05 0.214501 -1.41848
2.06254e-06 0.999236 -1.39773
-2.5332e-07 0.495 -2.37881
-0.881402 0.594555 0.016735
0.881397 0.594558 0.0171825
-7.82587e-05 0.228211 0.0345525
-1.2368e-06 1.458 -0.000635028
-0.896595 0.626133 1.44165
0.896592 0.626132 1.44239
-0.000127224 0.23844 1.48759
-4.53614e-06 1.19448 1.39646
-7.69794e-05 0.64 2.35416
-0.801859 0.36 -2.16362
-0.389872 0.219787 -2.15021
-0.790739 0.220275 -1.78182
-0.798634 0.4725 2.22054
-0.387576 0.301868 2.21679
-0.821653 0.252075 1.85003
-0.782114 0.63 -2.13688
-0.3725 0.818514 -2.14978
-0.801181 0.840598 -1.747
-0.773141 0.8075 2.16244
-0.361 1.01143 2.13143
-0.773644 1.00723 1.74573
0.389871 0.219783 -2.15022
0.801841 0.36 -2.1636
0.790713 0.220275 -1.78167
0.387273 0.301868 2.21768
0.798149 0.4725 2.22163
0.821168 0.252282 1.85167
0.3725 0.818493 -2.14976
0.781895 0.63 -2.13666
0.801193 0.84061 -1.747
0.360995 1.01144 2.13144
0.773189 0.8075 2.16302
0.773707 1.0073 1.74573
-0.802594 0.220963 -1.05545
-0.804877 0.231223 -0.329079
-0.862089 0.392832 -0.693993
-0.400637 0.226765 -0.692114
-0.822612 0.238574 1.12366
-0.816912 0.231731 0.397289
-0.891095 0.404126 0.744833
-0.409628 0.235204 0.760772
-0.82904 0.90729 -1.04845
-0.89192 0.769223 -0.697451
-0.821305 0.938389 -0.349908
-0.480644 1.21328 -0.69918
-0.805497 1.00025 1.04718
-0.881979 0.817278 0.713551
-0.816252 0.97217 0.348638
-0.496808 1.36698 0.69791
0.802518 0.220963 -1.055
0.400531 0.226766 -0.691816
0.804749 0.231224 -0.328333
0.862079 0.392816 -0.693545
0.822382 0.238577 1.125
0.409422 0.235206 0.761368
0.816736 0.23173 0.398333
0.891095 0.404073 0.745728
0.828997 0.907248 -1.04845
0.480647 1.21328 -0.69918
0.89193 0.769235 -0.697302
0.8213 0.938386 -0.349908
0.805493 1.00025 1.04718
0.496809 1.367 0.69791
0.881967 0.817271 0.713849
0.816215 0.972136 0.348638
-0.896958 0.515461 -1.78572
-0.402504 0.495 -2.33606
-1.37688e-05 0.213663 -1.78435
-3.7998e-07 0.357394 -2.3597
-0.899508 0.378269 -1.41341
-0.398348 0.214479 -1.41856
-0.864205 0.633067 1.81842
-0.394831 0.64 2.34332
-0.000139354 0.25739 1.85305
-0.000114232 0.470296 2.37889
-0.898741 0.433096 1.46425
-0.413763 0.238298 1.48721
1.03127e-06 0.937278 -1.77645
-1.2666e-07 0.659449 -2.20088
-0.895691 0.709119 -1.40295
-0.411741 0.995574 -1.39773
-3.50487e-06 1.07886 1.76497
-3.97265e-05 0.826743 2.25605
-0.882222 0.81824 1.41905
-0.398091 1.18695 1.39646
0.896958 0.515463 -1.78565
0.402503 0.495 -2.33607
0.899508 0.378273 -1.41318
0.398293 0.21448 -1.41841
0.864044 0.633066 1.81927
0.39471 0.64 2.34339
0.898738 0.433098 1.46536
0.413507 0.2383 1.48796
0.895691 0.70912 -1.40288
0.411741 0.995565 -1.39773
0.881615 0.818238 1.41942
0.398084 1.18695 1.39646
-0.863771 0.404205 0.02542
-0.406257 0.228302 0.0343288
-0.89023 0.556383 -1.05195
-0.881036 0.585699 -0.339493
-4.02931e-05 0.215328 -1.05522
-6.5907e-05 0.227777 -0.328706
-0.881762 0.603411 0.372963
-0.896884 0.6192 1.08542
-9.06104e-05 0.228675 0.397811
-0.000115093 0.237223 1.12433
-0.887304 0.793502 0.00804999
-0.523975 1.43586 -0.000635028
3.09382e-06 1.03809 -1.04845
1.44415e-06 1.41608 -0.349908
-3.91774e-06 1.44326 0.348638
-5.56741e-06 1.30331 1.04718
0.863756 0.404175 0.0260912
0.406102 0.228303 0.0347762
0.890147 0.556388 -1.05173
0.88103 0.585704 -0.339121
0.881756 0.603411 0.373485
0.896884 0.619198 1.08609
0.8873 0.793501 0.00827372
0.52397 1.43586 -0.000635028
-0.898934 0.369135 -1.78377
-0.893455 0.391088 -1.0537
-0.887376 0.72945 -1.0502
-0.895077 0.66956 -1.76636
0.898934 0.369137 -1.78366
0.894884 0.66956 -1.76632
0.887328 0.729455 -1.05009
0.893329 0.391094 -1.05336
-0.39411 0.213635 -1.78308
0.394082 0.213635 -1.78301
0.398821 0.21532 -1.05511
-0.398902 0.215319 -1.05534
-0.39212 0.935179 -1.76172
-0.412132 1.0385 -1.04845
0.412136 1.0385 -1.04845
0.392121 0.935191 -1.76172
-0.396188 0.358697 -2.25985
-0.387502 0.644725 -2.29439
0.387501 0.644725 -2.2944
0.396187 0.358697 -2.25985
-0.862929 0.398519 -0.334286
-0.864775 0.410495 0.385126
-0.884967 0.805553 0.3608
-0.889657 0.781384 -0.344701
0.862917 0.398496 -0.333727
0.889655 0.781388 -0.344514
0.884969 0.805554 0.361062
0.864758 0.410458 0.385909
-0.403448 0.227533 -0.328893
0.403317 0.227534 -0.32852
0.409176 0.228926 0.398072
-0.409356 0.228925 0.39755
-0.536849 1.39365 -0.349908
-0.521087 1.42281 0.348638
0.521126 1.4229 0.348638
0.53682 1.39359 -0.349908
-0.899018 0.428896 1.10454
-0.872112 0.452798 1.83422
-0.848342 0.81287 1.78207
-0.885032 0.809039 1.0663
0.899018 0.428897 1.10555
0.885055 0.809035 1.06664
0.848302 0.812869 1.7825
0.871963 0.452799 1.83547
-0.411355 0.237134 1.12399
0.411124 0.237135 1.12466
0.40039 0.255876 1.85236
-0.400669 0.255781 1.85154
-0.402066 1.2965 1.04718
-0.379546 1.07365 1.75535
0.379539 1.07365 1.75535
0.402056 1.2965 1.04718
-0.391203 0.471398 2.36847
0.390991 0.471398 2.36848
0.377852 0.817122 2.27951
-0.377916 0.817122 2.27946
-0.800269 0.2925 -2.16378
-0.584807 0.219791 -2.15021
-0.787775 0.220104 -1.96341
-0.794708 0.38875 2.22477
-0.581288 0.305494 2.21294
-0.799681 0.277184 2.03162
-0.768255 0.6975 -2.12127
-0.55875 0.808049 -2.13932
-0.784557 0.814266 -1.92163
-0.741717 0.89125 2.12287
-0.541499 1.00713 2.12713
-0.75456 0.997854 1.92036
0.584806 0.219786 -2.15021
0.800256 0.2925 -2.16377
0.787761 0.220104 -1.96333
0.580985 0.305692 2.21408
0.79414 0.38875 2.22603
0.799214 0.27736 2.03333
0.55875 0.80823 -2.1395
0.768242 0.6975 -2.12126
0.784556 0.814265 -1.92163
0.541494 1.00713 2.12713
0.740784 0.89125 2.1222
0.754563 0.997861 1.92036
-0.800749 0.225944 -0.873855
-0.801869 0.231095 -0.510671
-0.858872 0.297702 -0.693128
-0.600584 0.227195 -0.692189
-0.820222 0.237828 0.942066
-0.815326 0.236452 0.578881
-0.892167 0.301763 0.752653
-0.614028 0.235527 0.760623
-0.827207 0.915166 -0.873816
-0.852235 0.842845 -0.698316
-0.822897 0.930272 -0.524544
-0.708508 1.17932 -0.69918
-0.808836 0.993879 0.872546
-0.83881 0.898236 0.705731
-0.815238 0.980864 0.523274
-0.697907 1.26412 0.69791
0.800656 0.225947 -0.873333
0.600478 0.227196 -0.691741
0.801752 0.231098 -0.51
0.85888 0.297664 -0.692606
0.819998 0.237837 0.943333
0.613822 0.235529 0.761518
0.815134 0.236455 0.58
0.892167 0.301687 0.753697
0.827203 0.915163 -0.873816
[...]
POINT_DATA 3682
SCALARS point_scalars float 1
LOOKUP_TABLE default
-129.293
-44.0762
-58.0161
-41.0832
-129.229
-44.0108
-57.9626
-41.0649
-36.0681
-34.3318
-57.2568
-47.9864
-36.0541
-34.3393
-57.2366
-48.0675
-43.0678
-89.8367
-35.8643
-34.3406
-44.1297
-37.7459
-36.001
11.9759
-89.8367
-35.8737
-34.3406
-43.9632
-37.7115
-35.5348
-11.3028
-82.5961
-47.2081
-43.0464
-45.3404
-37.0881
-34.9811
-57.8796
-65.7075
-93.4589
-63.8007
-43.0641
-40.4816
-36.2891
-60.0436
-167.369
-35.8486
-35.5044
-42.499
-36.1631
-34.46
88.5338
-35.0722
-34.4788
171.8
-34.9625
-34.3958
7.82474
-47.2532
-75.9939
-66.2521
-43.7999
-36.6126
-35.3986
-60.0417
-167.511
-35.8376
-35.5282
-42.5047
-36.1738
-34.4585
88.5763
-35.0304
-34.0024
171.786
-34.955
-34.2718
12.432
-49.658
-80.3525
-66.2481
-43.1564
-36.5988
-35.3807
-43.3807
-90.2083
-35.8732
-34.1294
-44.1016
-37.7197
-36.1085
11.8908
-90.2083
-35.8788
-34.1294
-43.9197
-37.6173
-35.5182
-11.139
-82.6369
-47.2014
-43.0631
-45.3454
-36.7725
-34.9662
-57.8185
-68.6438
-93.3906
-63.8027
-42.894
-40.4642
-36.2704
-37.9005
-124.659
-50.9167
-40.8312
-31.2252
-39.6715
-63.2279
-49.9924
-37.1205
-47.838
-37.84
-50.901
-40.7698
-39.7013
-50.0982
-47.8129
-33.4833
-41.128
-38.3292
-38.2086
-34.7355
-52.7738
14.9666
-62.475
-33.3712
-41.1227
-38.289
-52.7717
-54.7769
-54.7674
-55.7186
-14.2755
203.173
-40.0075
-40.0103
-33.9233
-105.593
-45.0976
-45.0895
-38.8369
-43.8258
-28.0673
-32.3575
-129.245
-73.4262
-41.4587
-36.5689
-47.1767
-51.0146
-26.2667
-57.8566
-40.762
-36.0317
-44.9886
-129.231
-32.3751
-73.4003
-36.4936
-41.385
-47.1151
-26.6375
-50.8841
-57.8042
-36.028
-40.7242
-44.9845
-42.6417
-33.822
-37.5051
-37.7157
-36.6532
-33.5543
-35.1314
-34.6851
-47.097
-47.377
-56.3886
6.14831
-47.4553
-44.1009
-49.6297
-61.8084
-42.6184
-37.7074
-33.8156
-37.4981
-36.6649
-34.6896
-33.5734
-35.1109
-47.0898
6.16043
-47.369
-56.3479
-47.4718
-61.8095
-44.1141
-49.7073
-86.1034
185.251
-76.5799
151.391
-53.2048
-54.7171
-46.5148
-33.9405
-39.4022
-21.4443
-43.8614
-39.0886
-36.3357
138.679
-56.1664
-19.4403
-39.5146
-34.0756
-46.6675
-44.574
-86.0862
185.214
-53.1892
-54.705
-46.4788
-33.923
-43.8671
-39.1435
-56.1579
-19.4149
-46.6153
-44.5728
-36.5987
-33.6982
-45.7223
-40.8317
-45.9479
-34.7181
-38.6499
-42.0987
-34.7207
-36.397
-46.3299
-90.8773
10.5238
-99.3567
-81.0159
-50.7973
-36.6025
-33.6956
-45.7263
-40.8268
-38.6571
-42.0965
-46.3387
-90.8704
-83.0769
-45.522
-46.7062
-83.4011
-83.0505
-83.3974
-46.6918
-45.4813
-75.3788
-75.5902
-45.1079
-45.113
-37.8626
4.1487
4.15366
-37.866
157.278
141.849
142.061
156.15
-37.0056
-35.3226
-44.7585
-47.7359
-37.0023
-47.7212
-44.7953
-35.3223
-34.3981
-34.3931
-34.4658
-34.4653
-97.4269
-75.2034
-75.2231
-97.1862
-40.9632
-47.2255
-45.8005
-44.3877
-40.9653
-44.3845
-45.7877
-47.1616
-36.3889
-36.4024
-41.4718
-41.6312
-51.7191
-40.0249
-40.0227
-51.7214
-32.2489
-32.2247
-35.118
-35.1297
-36.0695
-145.389
-98.0045
-42.6448
-38.9028
-43.0355
-48.1412
-41.9693
-70.0893
-40.5627
-36.7827
-42.3904
-145.346
-36.0449
-98.0508
-38.9744
-42.572
-43.0037
-41.8495
-48.1171
-70.1088
-36.7713
-40.5362
-42.3181
-39.926
-34.5544
-36.1067
-37.0019
-38.5706
-32.4578
-32.7887
-34.4814
-53.0543
-52.1059
-57.7611
-64.1653
-47.2632
-45.136
-47.7136
-57.6497
-39.9087
-36.9917
-34.5534
-36.1036
-38.6565
-34.4897
-32.4575
-32.7897
-53.0376
-65.7979
-52.077
-57.7277
-47.3053
-57.6162
-45.1616
-47.8157
-33.6004
-40.3631
-97.912
137.758
-125.326
-125.322
-94.5879
6.12596
-59.2737
-45.8925
-52.0761
-53.2427
-41.0804
-40.653
-43.8536
-34.9818
-32.6177
-32.5885
-35.7092
-24.0554
-43.3896
-37.5599
-42.9081
-39.3462
-94.6612
-94.6076
-47.7423
103.767
-54.2927
-47.6879
-55.0253
-28.9242
-36.6082
-36.6087
-38.0046
-34.0007
-46.9791
-48.1203
-45.8763
-46.6204
-33.5357
-40.4023
-97.9148
137.741
-59.2551
-45.8755
-52.0607
-53.2263
-41.026
-40.6158
-43.8219
-34.971
-43.4249
-37.5838
-42.9294
-39.3802
-54.2908
-47.6538
-54.9994
-28.9171
-46.9601
-48.1127
-45.8365
-46.6059
-33.3883
-33.7339
-35.8923
-33.4993
-39.1442
-43.6278
-42.8707
-40.9639
-38.1738
-38.1692
-42.5548
-36.1081
-37.367
-40.1415
-38.0766
-40.304
-34.7034
-34.7048
-34.9758
-35.4672
-54.5746
-51.0086
-49.9072
-67.235
14.4466
14.4233
22.8886
-34.8453
-62.3261
-62.3264
-70.8542
-56.0028
-33.3903
-33.8293
-35.8857
-33.4976
-39.1367
-43.6199
-42.8223
-40.9578
-37.387
-40.1527
-38.0756
-40.3006
-54.5469
-51.053
-49.9209
-67.2006
-66.2893
-54.1796
-55.3147
-49.0486
-66.2754
-54.1675
-55.3074
-49.0424
-64.1964
-55.6571
-55.5391
-50.171
-26.78
-15.5857
-15.5797
-1.06681
202.087
189.688
172.035
202.063
-38.2831
-40.4902
-39.3904
-42.0327
-38.2844
-40.4889
-39.3957
-42.0394
-33.8597
-34.044
-34.1438
-33.8578
-102.852
-118.239
-92.9578
-102.849
-48.884
-44.5179
-46.0268
-43.0946
-48.8891
-44.5166
-46.0065
-43.0903
-40.6635
-38.9092
-38.9332
-37.5286
-41.5502
-43.9761
-43.9774
-46.8484
-30.3868
-22.5844
-31.968
-30.3637
-103.648
131.329
-95.1782
71.4065
-80.203
-74.8519
-43.9496
-34.4646
-38.1343
-32.7108
-48.2482
-43.7387
-84.1963
108.163
-47.4072
77.5665
-70.2255
-41.2335
-44.6783
-35.452
-38.0836
-35.1093
-44.9948
-41.1549
-95.1691
71.1721
-103.682
131.327
-80.1781
-74.8334
-38.2216
-32.6939
-43.9038
-34.4525
-48.1444
-43.6885
-47.4579
77.5165
-84.1703
108.171
-70.1165
-41.2352
-38.0812
-35.1114
-44.6725
-35.4706
-44.9867
-41.1488
-44.9279
-44.2254
-36.1804
-34.081
-41.9128
-37.0883
-41.9331
-35.6666
-39.7514
-36.4685
-35.0923
-34.1429
-33.361
-39.7709
-34.7205
-35.3973
-47.2892
-9.89101
-45.9824
-47.8931
-52.5134
-81.3809
14.9152
-45.8179
-45.0779
-54.0486
-43.998
-44.0782
-47.076
-60.5509
-68.6039
-56.2888
-44.8859
-44.2124
-41.9262
-35.6605
-36.1786
-34.076
-41.902
-37.0829
-39.7465
-36.4875
-34.7217
-35.4058
-35.0839
-34.1439
-33.3579
-39.8145
-47.3148
-9.88584
14.9008
-45.9186
-45.9674
-47.8808
-52.4889
-81.2082
-45.1696
-54.0509
-68.6021
-56.2891
-44.0279
-44.0752
-47.1346
-60.5348
-84.6764
-86.6873
167.424
173.856
-76.1892
-76.1819
159.916
159.957
-64.1467
-47.8641
-62.9835
-49.0959
-46.902
-46.1704
-32.8366
-34.2382
-39.9946
-40.017
-26.1708
-26.1397
-41.7417
-48.1629
-37.6136
-40.9815
-36.3055
-36.3193
136.426
136.29
-50.5332
-67.4029
-29.6195
-7.39121
-39.6834
-39.6803
-34.1499
-34.1747
-47.0375
-45.3248
-47.7049
-42.0415
-84.653
-86.6668
173.812
167.404
-64.1249
-47.8538
-62.9715
-49.0847
-46.1487
-46.8608
-32.8121
-34.224
-41.8061
-48.207
-37.6355
-41.3745
-67.4027
-50.5284
-7.39246
-29.6486
-45.3155
-47.0304
-42.0404
-47.7046
-36.9108
-36.14
-33.7906
-33.9069
-45.559
-46.0781
-38.7613
-43.2581
-45.721
-45.7457
-34.6265
-34.6254
-37.0726
-40.4712
-41.5802
-42.4758
-34.6575
-34.6575
-36.3547
-36.4
-45.5269
-47.1963
-103.544
-82.4567
9.33594
9.32969
-97.2097
-98.5234
-80.0063
-80.0074
-50.9926
-50.9928
-36.906
-36.1413
-33.7875
-33.9054
-46.0898
-45.5271
-38.7593
-43.2514
-40.4841
-37.0762
-41.5803
-42.475
-47.1913
-45.5456
-82.449
-103.523
-95.9858
-62.1921
-65.5273
-102.989
-42.117
-41.9545
-48.5779
-46.9679
-48.5583
-50.0299
-49.5839
-44.025
-77.7401
-89.5471
-66.6477
-65.1531
-96.1654
-103.021
-65.5081
-62.1694
-77.7725
-65.1531
-66.6404
-89.505
-48.4406
-43.9739
-49.5804
-49.957
-42.0813
-46.9568
-48.5691
-41.9397
-96.8603
-94.6693
-63.9647
-61.5682
-96.8469
-61.5505
-63.8885
-94.6624
-41.1975
-42.5479
-49.9
-47.7999
-41.2066
-47.8148
-49.9063
-42.4019
-48.5958
-35.6913
-27.2439
-46.9872
-33.2594
20.6833
-2.513
-19.166
-33.23
-19.1549
-2.51332
20.7106
-48.5289
-47.0162
-27.236
-35.6877
38.7906
140.437
192.133
13.1598
65.5073
139.01
178.453
128.193
65.5773
128.195
178.356
138.991
38.8145
13.3954
192.119
140.421
-36.162
-36.1518
-38.5853
-38.8687
-32.6464
-36.0592
-37.7747
-35.7257
-46.057
-48.3654
-41.2316
-39.9481
-53.2257
-43.5442
-42.7198
-51.365
-36.157
-38.8628
-38.583
-36.1562
-53.2018
-51.3544
-42.7188
-43.5366
-46.1085
-39.9559
-41.2446
-48.4051
-32.6328
-35.7201
-37.7776
-36.0516
-35.1439
-35.9933
-33.9729
-33.5717
-35.1375
-33.5693
-33.9605
-35.9523
-34.3328
-34.9213
-34.0958
-33.6526
-34.3332
-33.6536
-34.0974
-34.92
-92.816
-73.1809
-115.143
-33.6448
-58.6256
-70.4197
-90.8968
-63.0792
-58.6226
-63.0494
-90.8963
-70.4203
-92.8099
-33.7104
-115.136
-73.1143
-39.9322
-40.7382
-42.5168
-39.7504
-44.5143
-43.6801
-48.6005
-48.0519
-45.0254
-45.8774
-48.3969
-44.0645
-44.773
-41.3019
-43.5792
-45.7213
-40.0563
-39.7611
-42.5149
-40.7436
-44.7763
-45.7008
-43.5725
-41.2954
-45.0258
-44.0429
-48.3977
-45.8624
-44.4714
-48.1234
-48.6208
-43.6534
-35.5316
-35.447
-37.5766
-37.695
-35.5464
-37.7213
-37.5631
-35.4511
-40.7941
-36.4967
-40.9399
-41.8204
-40.789
-41.8027
-40.963
-36.5089
-54.464
-50.2415
-47.0257
-56.0643
-38.8629
-38.0071
-41.6758
-43.5795
-38.8583
-43.5705
-41.6751
-38.0059
-54.4212
-56.0644
-47.0272
-50.3425
-35.1231
-27.1591
-27.3542
-34.5239
-35.1781
-34.51
-27.3215
-27.1344
-35.7289
-34.7997
-32.0613
-35.0691
-35.7701
-35.074
-32.0789
-34.8004
-66.0757
-148.151
-130.966
-43.6527
-40.8234
-43.0172
-49.196
-38.4655
-76.983
-41.2502
-38.4437
-41.5252
-147.281
-66.1781
-131.113
-40.8894
-43.5697
-42.9628
-38.5805
-49.1709
-77.0054
-38.4218
-41.2229
-41.5118
-38.6189
-35.1918
-36.4371
-36.4962
-36.0178
-31.0302
-32.1429
-34.3614
-56.6133
-54.2134
-57.6256
-76.3763
-47.6979
-46.2768
-48.3393
-51.3435
-38.603
-36.487
-35.1826
-36.4681
-36.035
-34.3739
-31.0216
-32.1838
-56.594
-76.3688
-54.196
-57.6011
-47.7585
-51.4082
-46.33
-48.431
-38.2214
-34.9194
-115.251
88.2542
-124.98
-124.976
-107.571
-105.968
-54.5357
-48.0231
-51.1173
-52.1873
-40.9971
-40.552
-43.0899
-35.9965
-31.5886
-31.5737
-33.8089
-26.4893
-41.0917
-38.4069
-41.491
-39.4893
-85.4073
-85.4229
-54.2138
-7.5311
-51.7013
-49.0182
-53.3667
-38.4936
-36.9619
-36.9588
-37.3619
-35.412
-46.8676
-47.6747
-46.365
-49.0716
-38.1588
-34.8245
-115.316
88.2686
-54.5177
-48.0055
-51.1021
-52.1696
-40.9488
-40.5207
-43.0571
-35.9875
-41.12
-38.4303
-41.5114
-39.5151
-51.707
-48.995
-53.3487
-38.5118
-46.8506
-47.6561
-46.3323
-49.0265
-33.0946
-33.2025
-34.9883
-33.43
-40.0995
-42.2435
-41.3699
-41.0301
-38.3293
-38.3271
-40.1478
-37.1479
-37.8017
-39.0856
-38.0579
-38.9063
-34.7313
-34.7319
-34.4738
-35.0676
-53.561
-51.8179
-51.19
-59.757
14.9702
14.9567
23.6308
-7.25066
-62.4417
-62.4416
-66.638
-59.1282
-33.0929
-33.2105
-34.8854
-33.428
-40.0927
-42.2368
-41.3635
-41.0242
-37.8245
-39.1095
-38.0376
-38.9592
-53.5486
-51.843
-51.1999
-59.7003
-59.8487
-54.4364
-55.1795
-51.3006
-59.8372
-54.2674
-55.1188
-51.2919
-59.7208
-55.9303
-55.9268
-53.0501
-20.5451
-14.8927
-14.8901
-7.76338
204.028
200.637
194.342
204.018
-39.232
-40.2957
-39.6617
-40.9048
-39.2353
-40.2979
-39.6675
-40.9099
-33.9074
-33.9148
-34.0013
-33.9062
-104.922
-112.062
-99.1998
-104.919
-46.6977
-44.8248
-45.386
-43.9241
-46.6652
-44.8196
-45.3731
-43.9167
-39.613
-38.8549
-38.8657
-38.1544
-42.6212
-43.858
-43.8579
-45.2049
-28.7597
-25.087
-29.2214
-28.7465
-33.2145
-35.2028
-115.532
75.9005
-135.337
-127.325
-109.73
-81.3458
-84.5088
-65.2259
-78.0447
-74.1243
-41.7142
-41.2266
-43.7124
-35.836
-39.0948
-34.144
-37.2168
-33.7406
-44.5999
-46.1408
-48.3777
-44.9266
-49.7425
-49.7321
-90.9348
59.5605
-52.0322
-67.477
-57.1066
5.75992
-64.1389
-57.9441
-63.0715
-48.288
-40.5673
-41.0164
-43.6596
-36.4311
-36.1489
-36.2225
-37.0988
-35.2196
-43.0376
-46.0101
-44.8094
-42.8914
-135.338
-127.33
-109.725
-81.239
-33.2233
-35.1673
-115.642
75.8907
-84.4721
-65.2054
-78.0195
-74.104
-39.005
-34.0987
-37.2665
-33.7217
-41.631
-41.1615
-43.6884
-35.8103
-44.5536
-46.1766
-48.2997
-44.8845
-47.9708
-67.3214
-57.0787
6.0906
-49.6915
-49.7696
-90.8286
59.6068
-64.1192
-57.9395
-63.0231
-48.2744
-36.1449
-36.2221
-37.0969
-35.2148
-40.5153
-40.9826
-43.6156
-36.4164
-43.0542
-45.9912
-44.8061
-42.8795
-41.5308
-44.0499
-43.3185
-43.556
-33.8379
-33.6921
-34.4664
-33.9163
-37.171
-38.2499
-38.2544
-37.3125
-37.363
-37.9975
-39.463
-36.6281
-36.3877
-36.7298
-38.4097
-36.5586
-33.0197
-32.9654
-33.9895
-33.8987
-33.6458
-36.7821
-30.9235
-38.8367
-34.6196
-34.674
-34.3395
-35.0195
-50.6851
-46.9765
-48.4039
-29.068
-49.445
-45.3187
-46.2852
-47.7809
-57.145
-55.5379
-54.2865
-66.1214
-14.1534
12.3566
14.6431
-13.7859
-47.2687
-47.7798
-46.1047
-52.789
-45.2412
-41.6143
-44.0904
-44.2143
-49.3643
-50.2998
-47.6662
-54.8019
-62.1402
-62.097
-65.1212
-58.7338
-41.5212
-44.0351
-43.28
-43.5417
-37.3545
-37.991
-39.456
-36.6205
-33.8753
-33.6959
-34.4814
-33.9109
-37.1645
-38.2437
-38.2435
-37.3049
-36.4232
-36.7476
-38.4525
-36.5789
-34.6255
-34.6767
-34.3414
-35.0256
-33.151
-32.9676
-34.0048
-33.8996
-33.6632
-36.8195
-30.8956
-38.8921
-50.6663
-46.9792
-48.4131
-29.1085
-14.0948
12.3282
14.9629
-13.8556
-49.4995
-45.3098
-46.2766
-47.7741
-57.1102
-55.4944
-54.2539
-66.0577
-47.2952
-47.7934
-46.1077
-52.8358
-62.1369
-62.0979
-65.1199
-58.7341
-45.2622
-41.625
-44.1121
-44.2202
-49.4494
-50.3602
-47.7378
-54.7945
-95.9217
-74.7569
-85.3662
-86.5046
168.512
199.205
180.093
183.124
-85.7477
-69.6925
-76.4571
-76.4539
129.497
172.952
155.239
155.241
-52.7495
-53.711
-58.0162
-49.987
-54.0315
-55.2825
-58.4459
-51.6524
-45.1875
-48.2764
-46.7372
-46.3191
-34.6768
-32.4319
-33.3873
-33.9864
-37.677
-40.6022
-39.5426
-39.558
-22.3848
-21.1609
-22.9598
-22.9416
-43.4873
-44.2028
-42.6355
-45.6309
-39.205
-38.9857
-38.3037
-39.9887
-40.4553
-31.5094
-36.3144
-36.3164
141.584
140.849
136.529
136.502
-56.1623
-55.6854
-53.1188
-60.7147
-23.1439
-16.9667
-24.9131
-14.1975
-38.6887
-40.523
-39.5749
-39.5746
-34.1217
-34.1895
-34.0527
-34.0569
-45.9471
-46.5657
-47.3852
-45.3919
-45.2568
-44.2067
-46.0522
-43.1985
-95.8891
-74.74
-85.3458
-86.4881
168.508
199.166
183.084
180.058
-52.735
-53.698
-57.9986
-49.9755
-54.0226
-55.3873
-58.4338
-51.6402
-45.1502
-48.2781
-46.2903
-46.6977
-34.6599
-32.4065
-33.3641
-33.9689
-43.4978
-44.2047
-42.6387
-45.6458
-39.251
-38.9795
-38.3416
-40.0898
-56.1494
-55.6775
-60.7073
-53.1147
-23.1244
-16.9532
-14.1938
-24.892
-45.891
-46.5494
-45.419
-47.3384
-45.2531
-44.2072
-43.1963
-46.0516
-36.3216
-37.3972
-36.7462
-36.3971
-33.601
-33.786
-33.6932
-33.7692
-44.607
-47.5977
-45.6248
-45.8865
-40.9153
-40.6977
-39.8647
-42.0302
-44.4488
-47.8852
-45.9001
-45.9028
-35.2726
-34.3401
-34.7229
-34.7212
-38.3025
-39.0033
-37.9297
-39.4448
-41.3368
-42.578
-41.8493
-42.3332
-35.3979
-34.3849
-34.7024
-34.7025
-35.9142
-36.9334
-36.3967
-36.3981
-48.7598
-43.69
-45.86
-46.7714
-78.1193
-98.1544
-96.3238
-86.2633
16.4666
4.96482
10.2463
10.2371
-61.3993
-121.814
-98.3638
-99.4414
-76.1944
-86.705
-80.7687
-80.7683
-53.2636
-48.6389
-50.8235
-50.8236
-36.3253
-37.397
-36.7457
-36.3977
-33.5986
-33.7836
-33.6899
-33.7675
-44.546
-47.6
-45.9113
-45.5959
-40.9094
-40.6932
-39.8594
-42.0243
-38.3048
-39.0103
-39.455
-37.9328
-41.3406
-42.574
-41.8478
-42.3298
-48.7684
-43.695
-46.7735
-45.8783
-78.1112
-98.1473
-86.2581
-96.3187
-96.9844
-81.9766
-83.9465
-72.2244
-45.3516
-46.0747
-46.7464
-45.578
-46.6749
-45.9887
-48.0817
-46.2837
-84.5543
-78.4128
-85.8444
-76.1397
-96.9454
-81.9499
-83.9213
-72.2019
-84.6008
-78.3675
-85.8314
-76.1093
-46.6628
-45.9638
-48.0951
-46.2772
-45.3082
-46.041
-46.7404
-45.5421
-84.5594
-75.245
-76.0474
-68.5859
-84.5488
-75.2312
-76.0377
-68.5743
-44.703
-43.7512
-46.8338
-45.4622
-44.6933
-43.7586
-46.9445
-45.4663
-41.3821
-38.9642
-36.9531
-34.124
-1.15624
9.51899
-1.79496
7.3923
-0.998945
9.51215
-1.79953
7.38675
-41.2636
-38.9517
-36.9626
-34.1316
153.832
153.027
156.865
162.553
129.382
126.739
155.167
135.771
127.199
129.437
135.832
155.266
152.073
153.828
163.198
156.865
-36.6615
-37.1107
-36.9387
-37.8107
-35.1133
-34.6154
-35.8059
-36.0499
-44.321
-46.4199
-41.8432
-44.8262
-47.8698
-50.5483
-44.9731
-47.4323
-36.6595
-37.1096
-36.9359
-37.8052
-47.8543
-50.5271
-44.9663
-47.4216
-44.3494
-46.4693
-41.8622
-44.8572
-35.1122
-34.615
-35.8069
-36.0511
-34.2317
-34.9149
-34.0346
-34.5271
-34.9093
-34.2217
-34.523
-34.0307
-35.06
-34.3252
-34.5764
-34.1441
-34.3243
-35.0598
-34.1447
-34.5762
-103.663
-63.9872
-107.285
-94.3926
-69.7057
-72.0188
-79.2753
-78.4757
-72.0329
-69.7191
-78.4856
-79.2643
-64.1533
-102.81
-94.2881
-107.142
-40.5426
-40.7926
-41.2858
-41.2988
-45.1234
-47.4582
-47.0884
-49.3711
-45.1015
-45.465
-46.0613
-46.5623
-45.3342
-43.7235
-45.2682
-42.7965
-40.5456
-40.7987
-41.286
-41.2993
-45.3284
-43.7106
-45.2594
-42.7898
-45.0906
-45.4521
-46.0449
-46.5521
-45.0954
-47.3924
-47.0377
-49.3266
-36.4193
-35.8863
-36.9756
-36.3905
-36.4369
-35.8991
-36.9927
-36.4023
-39.8056
-42.383
-40.7009
-42.2996
-39.7238
-42.4269
-40.7348
-42.5205
-52.4146
-53.8682
-49.6018
-51.2531
-39.0848
-40.3206
-39.833
-40.9773
-39.0828
-40.3172
-39.8293
-40.9718
-52.4065
-53.8692
-49.6028
-51.2535
-33.8084
-32.294
-32.4045
-29.6456
-32.2731
-33.7925
-29.6145
-32.3805
-35.2615
-35.2352
-34.7728
-34.8428
-35.2415
-35.2933
-34.849
-34.7822
-122.709
18.8723
-116.748
-80.2149
-90.6501
-97.8073
-43.9688
-37.229
-40.255
-35.8561
-44.4952
-41.7536
-85.6749
35.1494
-54.4139
27.1609
-76.8789
-55.9001
-45.6819
-36.9711
-37.7851
-36.1499
-44.3643
-39.9456
-116.735
-80.1826
-122.731
22.7936
-90.9328
-97.8094
-40.1705
-35.856
-43.9412
-37.203
-44.419
-41.6741
-54.5841
27.2151
-85.6934
35.1923
-76.9166
-55.8866
-37.7797
-36.1415
-45.7246
-36.9509
-44.4861
-39.9384
-36.3235
-41.1501
-34.9895
-34.8232
-37.6055
-36.1601
-38.6554
-35.9827
-40.6159
-35.8412
-32.0474
-33.8937
-28.0245
-38.34
-33.9937
-35.0007
-51.0387
-57.9432
-50.7737
-52.983
-55.4402
-69.822
-45.3615
-90.7776
-45.81
-49.7456
-44.9955
-44.9238
-45.6352
-52.983
-57.4021
-56.1571
-36.3528
-41.1374
-38.6463
-35.9741
-35.0661
-34.8171
-37.5904
-36.1589
-40.7839
-35.8604
-33.9977
-35.0119
-32.027
-33.8944
-27.9717
-38.3821
-51.0376
-57.9118
-45.2933
-90.7423
-50.8645
-52.9492
-55.4094
-69.7936
-45.8275
-49.8035
-57.3994
-56.0972
-45.0301
-44.9388
-45.7007
-53.0179
-116.569
86.602
-106.334
79.1151
-100.173
-96.4966
139.462
137.869
-107.914
-98.5175
-107.908
-97.6615
-94.7182
-94.7157
52.9177
52.9799
-60.6553
-60.4999
-46.0373
-46.9359
-56.6197
-48.9346
-56.9381
-50.26
-43.023
-35.6461
-43.1821
-36.1975
-43.724
-43.9477
-34.7993
-34.985
-34.7917
-28.7419
-34.7745
-28.7199
-35.8948
-35.9016
-24.9088
-24.8942
-47.069
-42.2794
-39.1229
-37.6934
-41.642
-44.8977
-38.4472
-40.4526
-56.9335
77.1059
-57.0005
77.3813
-47.1735
-47.1871
126.015
126.004
-59.4368
-43.3483
-49.2309
-32.6075
-52.4669
-58.6065
-32.7445
-23.9948
-37.2013
-35.2148
-37.2004
-35.2179
-38.0091
-38.0085
-34.2167
-34.2197
-45.9053
-45.9742
-46.656
-52.6602
-46.0134
-45.8048
-48.4828
-45.0523
-116.65
86.5721
-106.35
79.1053
-100.171
-96.5087
137.881
139.445
-60.6372
-60.4811
-46.0266
-46.9201
-56.6011
-48.9225
-56.9212
-50.2435
-42.9947
-35.623
-43.1525
-36.1648
-43.9202
-43.6978
-34.7832
-34.9771
-47.0992
-42.2926
-39.132
-37.7176
-41.6491
-44.918
-38.4781
-40.488
-59.4414
-43.3432
-49.1653
-32.5866
-58.6105
-52.4447
-23.9923
-32.725
-45.8838
-45.9555
-46.641
-52.6233
-45.7806
-45.9914
-45.0437
-48.4686
-33.8889
-33.4905
-34.9755
-33.4913
-36.1612
-35.9626
-33.4977
-33.5405
-39.6449
-38.871
-43.4831
-43.5893
-42.3597
-43.2827
-39.9115
-42.1158
-39.9865
-37.014
-39.982
-37.0095
-42.5077
-42.5067
-36.1073
-36.1052
-35.3776
-38.5972
-39.9383
-40.8865
-37.2551
-38.9518
-40.0558
-40.6609
-34.43
-35.0407
-34.4305
-35.0434
-34.9381
-34.9383
-35.4622
-35.4643
-52.7057
-62.8008
-49.286
-57.0144
-49.0532
-50.5455
-69.7273
-64.8921
21.3117
-6.02917
21.2394
-5.75376
21.9082
21.9188
-34.432
-34.4642
-66.3766
-59.0968
-66.3773
-59.097
-70.752
-70.7519
-56.0241
-56.0241
-33.9194
-33.4893
-35.0331
-33.4909
-36.1619
-35.9628
-33.4952
-33.5399
-39.6365
-38.865
-43.478
-43.5818
-43.2195
-42.3373
-39.9053
-42.1096
-35.3764
-38.6259
-39.9508
-40.8901
-38.9551
-37.2501
-40.0524
-40.656
-52.6874
-62.7268
-49.3349
-56.9748
-50.5469
-49.0807
-64.8586
-69.6859
-65.8783
-66.5726
-59.1939
-50.7681
-51.9211
-60.2984
-48.786
-49.348
-65.8732
-66.5614
-59.1787
-50.7583
-60.2909
-51.9147
-49.3427
-48.7788
-64.1878
-64.1845
-59.4117
-52.6274
-59.4049
-52.5301
-50.1761
-50.1172
-26.8059
-26.8013
-21.4271
-9.128
-9.12594
-21.4213
-1.50268
-1.50222
199.739
194.794
192.262