# vtk DataFile Version 2.0
tri_press
ASCII
DATASET UNSTRUCTURED_GRID
POINTS 3682 float
-0.825 0.255 -2.44997
-0.805 0.205 2.45482
-0.805 0.735 -2.36545
-0.795 0.719385 2.285
0.825 0.255 -2.44995
0.805 0.205 2.45482
0.805 0.735 -2.36545
0.795 0.719385 2.285
-0.832459 0.224208 -0.81504
-0.828411 0.204922 0.81989
-0.83967 0.767799 -0.8153
-0.846719 0.772976 0.73485
0.832446 0.22422 -0.815027
0.828411 0.204922 0.819897
0.839656 0.767785 -0.8153
0.846716 0.772973 0.73485
-1.65961 -0.00848593 -3.71806
-1.65822 -0.0118351 -2.44407
-1.66315 -0.0386857 -0.806949
-1.65506 -0.0626036 0.847236
-1.63388 -0.0723186 2.48579
-1.62964 -0.0840043 3.76682
-1.63252 -0.0983329 5.03482
-1.65735 0.248626 -3.70628
-1.6562 0.252189 -2.44155
-1.66638 0.231929 -0.820927
-1.65587 0.209353 0.807331
-1.62391 0.19447 2.42958
-1.6233 0.182097 3.70941
-1.62963 0.168258 4.98017
-1.64913 0.751846 -3.65893
-1.64498 0.75475 -2.39069
-1.67046 0.77214 -0.827861
-1.66754 0.766481 0.728964
-1.62278 0.725579 2.29342
-1.62319 0.712245 3.57675
-1.63118 0.70203 4.86119
-1.64665 1.54624 -3.65164
-1.64702 1.5545 -2.3961
-1.6577 1.57529 -0.86076
-1.665 1.57994 0.656311
-1.65848 1.55668 2.19254
-1.65138 1.53531 3.44993
-1.64839 1.51911 4.7251
-0.832558 -0.00749977 -3.72352
-0.82718 -0.00987128 -2.45204
-0.831197 -0.0427571 -0.805875
-0.829518 -0.0655093 0.857955
-0.816883 -0.0672292 2.50453
-0.813642 -0.0810082 3.77953
-0.815324 -0.0974463 5.04218
-0.832436 0.247468 -3.70796
-0.808973 0.184913 3.7199
-0.813461 0.168736 4.98572
-0.825053 0.743256 -3.64844
-0.808311 0.710157 3.57507
-0.815101 0.700716 4.86083
-0.818255 1.5403 -3.64127
-0.815927 1.54889 -2.38468
-0.825012 1.57406 -0.853874
-0.836561 1.58174 0.655486
-0.83681 1.55654 2.18664
-0.831553 1.534 3.44404
-0.828502 1.51781 4.72082
0.819482 -0.0074997 -3.72351
0.828081 -0.0098694 -2.45203
0.831768 -0.0427495 -0.805863
0.824707 -0.0655081 0.857962
0.809494 -0.0672292 2.50453
0.811636 -0.0810082 3.77954
0.815382 -0.0974463 5.04218
0.814409 0.247467 -3.70795
0.808876 0.184912 3.7199
0.813867 0.168736 4.98573
0.810729 0.743255 -3.64844
0.804942 0.710157 3.57507
0.811321 0.700716 4.86083
0.833369 1.5403 -3.64127
0.839343 1.54889 -2.38468
0.840008 1.57406 -0.853872
0.826751 1.58174 0.655489
0.81052 1.55654 2.18664
0.808325 1.534 3.44404
0.810677 1.51781 4.72082
1.64782 -0.00848646 -3.71804
1.65641 -0.0118333 -2.44404
1.66332 -0.0386778 -0.806928
1.65438 -0.062601 0.847248
1.63323 -0.0723185 2.4858
1.63049 -0.0840042 3.76683
1.63395 -0.0983331 5.03482
1.64324 0.248625 -3.70626
1.65346 0.252187 -2.44153
1.66619 0.231936 -0.820907
1.65831 0.209355 0.807342
1.62824 0.19447 2.42959
1.62625 0.182097 3.70942
1.63144 0.168257 4.98018
1.6392 0.751842 -3.65891
1.64469 0.754743 -2.39068
1.67171 0.772129 -0.827852
1.66953 0.766478 0.728969
1.62509 0.725578 2.29342
1.62261 0.712245 3.57676
1.62895 0.702029 4.86119
1.65986 1.54624 -3.65163
1.66634 1.55449 -2.3961
1.67033 1.57528 -0.860754
1.65862 1.57993 0.656316
1.63885 1.55668 2.19254
1.63243 1.53531 3.44993
1.63289 1.51911 4.72511
-0.740228 0.495 -2.33294
0 0.243104 -2.46186
-0.853125 0.215208 -1.63251
-0.831389 0.462193 2.4013
0 0.201998 2.45782
-0.857451 0.164216 1.63736
0 0.747071 -2.37752
-0.830292 0.759357 -1.59037
0 0.711032 2.27665
-0.831369 0.75669 1.50993
0.74022 0.495 -2.33292
0.853158 0.215175 -1.63249
0.831924 0.462193 2.40183
0.857464 0.164203 1.63736
0.830296 0.75936 -1.59037
0.831346 0.756667 1.50993
-0.831332 0.213668 0.00242496
-0.873391 0.496003 -0.81517
-6.18768e-06 0.150962 -0.815034
-0.874889 0.488949 0.77737
1.7649e-07 0.150838 0.819893
-0.847243 0.774436 -0.0402249
-7.10701e-06 0.832845 -0.8153
-1.41192e-06 1.22553 0.73485
0.831325 0.213675 0.00243497
0.873381 0.496003 -0.815163
0.874899 0.488947 0.777374
0.847243 0.774436 -0.0402249
-0.883852 0.495502 -1.61144
0.883848 0.495501 -1.61143
-3.09384e-06 0.180832 -1.6325
-3.55351e-06 0.797698 -1.59037
0 0.495 -2.42197
-0.874372 0.492476 -0.0189
0.87437 0.492475 -0.018895
-3.0056e-06 0.150906 0.00242996
-4.25947e-06 1.2255 -0.0402249
-0.895807 0.475571 1.57364
0.895807 0.47557 1.57364
8.8245e-08 0.15065 1.63736
-7.0596e-07 0.825264 1.50993
0 0.462193 2.35882
-0.853038 0.375 -2.46188
-0.4125 0.262677 -2.44229
-0.830917 0.24325 -2.04124
-0.856697 0.333596 2.46656
-0.4025 0.204015 2.4558
-0.813208 0.202625 2.04609
-0.777701 0.615 -2.35428
-0.4025 0.692593 -2.32304
-0.822463 0.751995 -1.97791
-0.818841 0.590789 2.3488
-0.3975 0.704369 2.26998
-0.813829 0.738682 1.89746
0.4125 0.262683 -2.44227
0.853128 0.375 -2.46195
0.830914 0.243253 -2.04122
0.4025 0.204017 2.4558
0.856665 0.333596 2.46653
0.813213 0.20262 2.04609
0.4025 0.692455 -2.32291
0.777763 0.615 -2.35434
0.822474 0.752006 -1.97791
0.3975 0.70437 2.26998
0.818841 0.590789 2.3488
0.813827 0.73868 1.89746
-0.853244 0.209256 -1.22377
-0.832595 0.218239 -0.406308
-0.86238 0.355378 -0.815105
-0.433756 0.152538 -0.815037
-0.862379 0.165121 1.22862
-0.829887 0.20928 0.411158
-0.862493 0.341514 0.79863
-0.426992 0.152307 0.819892
-0.8371 0.765696 -1.20284
-0.865777 0.636524 -0.815235
-0.846104 0.773765 -0.427762
-0.427941 0.816526 -0.8153
-0.838914 0.764702 1.12239
-0.866029 0.633575 0.75611
-0.84673 0.773454 0.347313
-0.524702 1.20193 0.73485
0.853219 0.209281 -1.22376
0.433747 0.152538 -0.81503
0.832586 0.218247 -0.406296
0.862369 0.355384 -0.815095
0.86238 0.16512 1.22863
0.426992 0.152307 0.819895
0.829895 0.209272 0.411166
0.862488 0.341518 0.798635
0.837097 0.765694 -1.20284
0.42793 0.816525 -0.8153
0.865778 0.636523 -0.815232
0.846063 0.773724 -0.427762
0.838915 0.764704 1.12239
0.524697 1.20193 0.73485
0.866022 0.633567 0.756112
0.846734 0.773459 0.347313
-0.862169 0.495251 -1.97219
-0.370114 0.495 -2.33849
-1.54692e-06 0.208088 -2.04718
0 0.369052 -2.47223
-0.882866 0.355355 -1.62197
-0.426564 0.182607 -1.6325
-0.857133 0.468882 1.98747
-0.415694 0.462193 2.37107
4.41225e-08 0.171488 2.04759
0 0.332095 2.53376
-0.890121 0.319893 1.6055
-0.428725 0.15065 1.63736
-1.77675e-06 0.778944 -1.98395
0 0.621036 -2.42163
-0.863995 0.627429 -1.60091
-0.415148 0.775972 -1.59037
-3.5298e-07 0.769835 1.89329
0 0.586612 2.35418
-0.865387 0.61613 1.54178
-0.415685 0.8135 1.50993
0.862164 0.495251 -1.97218
0.37011 0.495 -2.33848
0.882866 0.355338 -1.62196
0.426578 0.182601 -1.63249
0.85711 0.468881 1.98774
0.415962 0.462193 2.37104
0.890122 0.319886 1.6055
0.428732 0.15065 1.63736
0.864031 0.627431 -1.6009
0.415146 0.77597 -1.59037
0.865389 0.616118 1.54178
0.415673 0.813498 1.50993
-0.862988 0.348004 -0.00823751
-0.430597 0.152428 0.00242746
-0.894687 0.495753 -1.21331
-0.873979 0.49424 -0.417035
-4.64076e-06 0.156326 -1.22377
-4.59664e-06 0.150938 -0.406302
-0.874605 0.490713 0.379235
-0.896351 0.48226 1.17551
-1.41455e-06 0.150874 0.411162
1.32367e-07 0.150677 1.22863
-0.86603 0.636067 -0.0295624
-0.524803 1.20232 -0.0402249
-5.33026e-06 0.812385 -1.20284
-5.68324e-06 1.08501 -0.427762
-2.83569e-06 1.22821 0.347313
-1.05894e-06 1.19262 1.12239
0.862982 0.348008 -0.00823
0.430593 0.152427 0.00243247
0.894701 0.495752 -1.2133
0.873972 0.494239 -0.417029
0.874607 0.490711 0.379239
0.896351 0.482259 1.17551
0.866022 0.636063 -0.0295599
0.524796 1.20232 -0.0402249
-0.850446 0.365177 -2.00671
-0.890838 0.35773 -1.21854
-0.86461 0.629665 -1.20807
-0.854599 0.621215 -1.97505
0.850438 0.365169 -2.0067
0.854599 0.621215 -1.97504
0.864626 0.629662 -1.20807
0.890841 0.357725 -1.21853
-0.419532 0.212195 -2.04421
0.419539 0.212194 -2.0442
0.421399 0.156321 -1.22376
-0.421398 0.156328 -1.22377
-0.408824 0.749818 -1.98093
-0.417493 0.797011 -1.20284
0.417485 0.79701 -1.20284
0.408823 0.749815 -1.98093
-0.391307 0.372026 -2.46362
-0.386307 0.618018 -2.33112
0.386305 0.618018 -2.33106
0.391305 0.372026 -2.46359
-0.862946 0.35156 -0.411671
-0.862921 0.344669 0.395196
-0.866304 0.634959 0.363274
-0.865891 0.63629 -0.422399
0.862938 0.351564 -0.411663
0.865887 0.636286 -0.422396
0.866296 0.634952 0.363276
0.862915 0.344673 0.395203
-0.432178 0.152481 -0.406305
0.432171 0.152481 -0.406299
0.428789 0.152374 0.411164
-0.428791 0.152374 0.41116
-0.495645 1.04797 -0.427762
-0.525933 1.20449 0.347313
0.52593 1.20449 0.347313
0.495637 1.04797 -0.427762
-0.891573 0.333415 1.20206
-0.842119 0.326745 2.01678
-0.855803 0.60346 1.94247
-0.86625 0.623546 1.14895
0.891573 0.333411 1.20207
0.866263 0.623539 1.14895
0.855796 0.603454 1.9426
0.842108 0.326741 2.01691
-0.421465 0.150678 1.22862
0.421469 0.150678 1.22863
0.415616 0.171815 2.04684
-0.415613 0.171812 2.04684
-0.419523 1.17333 1.12239
-0.406592 0.764833 1.89537
0.406586 0.764834 1.89537
0.419515 1.17334 1.12239
-0.409097 0.332846 2.51278
0.409231 0.332846 2.51277
0.406731 0.5887 2.32909
-0.406597 0.5887 2.32905
-0.838649 0.315 -2.45555
-0.61875 0.263886 -2.44108
-0.830464 0.24662 -2.2456
-0.834616 0.269298 2.46446
-0.60375 0.209848 2.44997
-0.809652 0.203264 2.25045
-0.792147 0.675 -2.36066
-0.60375 0.691766 -2.32222
-0.817497 0.747263 -2.17168
-0.80861 0.655087 2.31859
-0.59625 0.699259 2.26487
-0.805626 0.730245 2.09123
0.61875 0.263876 -2.44108
0.838665 0.315 -2.45555
0.830442 0.246642 -2.24558
0.60375 0.209849 2.44997
0.834582 0.269298 2.46442
0.809663 0.203253 2.25045
0.60375 0.691783 -2.32223
0.801496 0.675 -2.37001
0.817514 0.74728 -2.17168
0.59625 0.699255 2.26487
0.808703 0.655087 2.31868
0.805616 0.730235 2.09123
-0.832602 0.226981 -1.01941
-0.832658 0.221092 -0.610674
-0.84523 0.290888 -0.815073
-0.650642 0.153303 -0.815039
-0.86494 0.165477 1.02426
-0.829166 0.207084 0.615524
-0.846563 0.272663 0.80926
-0.640514 0.152989 0.819891
-0.838773 0.767135 -1.00907
-0.856037 0.703818 -0.815268
-0.845098 0.772993 -0.621531
-0.640055 0.804662 -0.8153
-0.840984 0.767006 0.928619
-0.855713 0.702945 0.74548
-0.846398 0.772889 0.541081
-0.716982 1.05 0.73485
0.83258 0.227004 -1.01939
0.650629 0.153314 -0.815029
0.832658 0.221092 -0.610661
0.845227 0.290893 -0.815061
0.864941 0.165476 1.02426
0.640515 0.152989 0.819896
0.829172 0.207078 0.615531
0.84657 0.27266 0.809266
0.838768 0.76713 -1.00907
0.640045 0.804659 -0.8153
[...]
POINT_DATA 3682
SCALARS point_scalars float 1
LOOKUP_TABLE default
-53.1871
-48.9776
-38.4093
-41.4075
-53.7886
-45.3251
-37.3077
-38.5035
-30.179
-20.6441
-27.2288
-41.8329
-30.1046
-20.617
-27.2173
-41.7781
-5.73147
-130.535
-30.1784
-34.9687
-46.0075
-48.7216
-48.7216
-5.73147
-139.462
-29.2688
-32.7221
-44.1625
-45.9353
-45.9353
29.7261
-135.431
-29.8007
-39.1164
-39.1528
-45.9353
-45.9353
-38.7039
-38.7039
-45.4207
-49.7932
-38.9663
-40.9489
-43.5793
77.6421
-145.514
-35.3413
-30.8172
-47.9937
-48.7216
-37.7762
141.064
-38.4997
-37
110.861
-37.5036
-37.3077
-38.7039
-38.7039
-21.2331
-54.737
-38.7743
-41.0504
-36.6196
77.142
-144.95
-35.3272
-30.3619
-44.3714
-45.0089
-34.1082
141.016
-35.3241
-32.8809
114.439
-34.512
-33.8543
-47.6708
-47.6708
-22.6318
-54.7443
-37.3401
-37.9663
-33.1351
-5.66982
-133.022
-30.1356
-34.7062
-42.7722
-45.0089
-44.9217
-5.66982
-142.377
-29.2487
-32.5031
-40.8844
-42.3118
-42.3118
30.1058
-150.436
-29.7855
-39.0308
-36.7437
-42.3118
-42.3118
-47.6708
-47.6708
-45.3704
-49.8725
-37.8189
-37.3634
-40.2278
56.3326
-121.827
-38.9179
-41.7907
-35.2322
-50.3814
-134.679
-34.3383
-37.3971
-44.2813
56.9309
-38.9218
-38.2539
-49.4877
-34.3679
-44.3565
-32.3783
-29.7158
-37.9432
-35.234
-33.9416
-47.1612
18.4118
-60.4625
-32.3067
-29.691
-35.0979
-47.091
-40.9517
-41.0087
-44.1019
-28.3572
199.439
-36.8265
-36.746
-32.9675
-101.088
-44.3733
-43.7309
-39.0332
-39.0659
-29.2113
20.2751
-62.8981
-44.7527
-46.8059
-41.0317
-35.16
61.353
-67.4053
-56.7123
-41.0264
-35.9773
-39.4846
-62.7343
20.2527
-44.7889
-36.1077
-43.1339
-33.6486
-67.7517
57.7215
-56.7975
-35.1092
-37.4204
-39.0112
-36.4562
-32.0605
-29.2999
-37.2894
-37.4542
-31.403
-29.063
-33.4558
-23.5419
-29.8841
-46.5153
5.67002
-44.508
-38.6359
-43.7805
-56.934
-36.4059
-37.2643
-32.0031
-29.2777
-37.0812
-33.34
-31.2992
-28.9389
-23.5417
5.7195
-29.8619
-46.5133
-44.4725
-56.9656
-38.532
-43.7099
-63.2858
186.574
-60.2588
199.172
-40.1554
-43.7483
-36.4937
-35.5466
-38.9347
-27.2448
-46.1386
-39.4881
-58.4839
177.129
-38.787
-32.0423
-37.9808
-29.683
-41.7307
-40.2231
-63.4422
186.354
-40.2086
-43.6977
-35.088
-31.2441
-45.333
-38.896
-38.8054
-32.0571
-41.328
-40.4353
-34.1988
-32.7571
-33.3744
-34.8479
-40.9746
-34.4004
-36.013
-40.7988
-32.8648
-36.1174
-40.6991
-94.9923
-5.78391
25.6731
-70.792
-50.8649
-34.1351
-32.72
-33.3122
-34.7878
-35.9154
-40.5285
-40.6185
-94.9883
-52.9947
-36.0389
-30.4459
-63.0333
-53.1726
-63.2016
-30.4369
-35.9853
-63.9908
-63.8831
-39.526
-39.5475
-66.4469
-10.9591
-10.9425
-66.5031
196.59
135.267
135.41
196.671
-32.6744
-33.5595
-38.8694
-38.7266
-32.6288
-38.6749
-38.9096
-33.4662
-33.9893
-33.9618
-32.4584
-32.5194
6.9654
-63.6451
-63.6347
7.02079
-40.1068
-34.8208
-37.7131
-42.0107
-39.7685
-41.8489
-36.5582
-33.3683
-36.3859
-36.1386
-38.3434
-39.8321
-51.1413
-38.203
-38.1645
-51.2811
-36.4649
-30.4426
-31.7939
-35.3632
-11.6375
-33.7663
-78.0567
-48.4906
-43.0655
-34.4659
18.852
-41.6255
-90.5512
-41.2243
-36.3697
-38.924
-33.7697
-11.8314
-77.9337
-39.1032
-44.8685
-32.431
-41.3958
48.0891
-90.0561
-33.9085
-37.8737
-37.6374
-31.3788
-30.2735
-29.1253
-36.5021
-38.3757
-30.1569
-24.0658
-32.4962
-21.874
-30.6061
-41.4976
-5.01034
-43.6534
-39.981
-42.6475
-48.6131
-31.3994
-36.465
-30.2272
-29.1004
-38.105
-32.3462
-30.0348
-23.9449
-21.869
-4.95146
-30.596
-41.4779
-43.6068
-48.5889
-39.9023
-42.5713
57.7116
70.1889
-106.377
173.957
-128.012
-128.04
-79.9591
137.393
-42.9556
-34.6544
-39.4422
-42.2327
-43.8266
-41.4113
-36.9404
-36.5477
-37.7726
-34.295
-37.1567
-30.4293
-36.5068
-39.0164
-49.3026
-40.4106
-97.8206
-97.7849
-86.7883
103.083
-42.3694
-27.6578
-37.8422
-32.5721
-36.866
-36.7788
-37.1021
-33.5926
-41.919
-46.3916
-42.0732
-41.6108
58.0524
72.9553
-106.588
174.512
-42.9964
-34.6664
-39.4858
-42.1971
-40.4397
-37.8908
-34.7551
-33.2728
-35.4305
-38.4657
-48.476
-39.6665
-42.4308
-27.6629
-37.8642
-32.594
-41.8258
-46.4265
-41.8348
-41.8337
-32.5391
-31.9681
-33.3706
-32.5032
-29.5187
-29.8244
-29.274
-32.2488
-37.7543
-37.7412
-40.5897
-35.7883
-32.9613
-37.0606
-35.6526
-37.2425
-33.8811
-33.8175
-33.2595
-34.9457
-48.0189
-45.4332
-43.2034
-65.2083
14.3539
14.3858
6.35377
38.3682
-59.7401
-59.7653
-64.4005
-56.4141
-32.4698
-31.8766
-33.3121
-32.4522
-29.4956
-29.7995
-29.2645
-32.2037
-32.8347
-36.941
-35.5201
-37.0709
-47.963
-45.3691
-43.1289
-65.1561
-50.4685
-40.8816
-40.5134
-34.7046
-50.3369
-40.9414
-40.5486
-34.673
-49.3465
-44.2797
-44.274
-41.1683
-40.8039
-29.8072
-29.8079
-16.8342
190.181
200.193
193.143
190.168
-35.6514
-36.3524
-36.6041
-38.4817
-35.5785
-36.28
-36.5198
-38.3977
-32.9306
-33.4767
-32.789
-32.9107
-99.5109
-98.2697
-81.5002
-99.5168
-38.2991
-44.8862
-43.22
-41.34
-37.3762
-44.1604
-42.72
-40.958
-40.3589
-39.2294
-38.8899
-37.4316
-38.9742
-39.3727
-39.5091
-44.2931
-31.9243
-29.0749
-29.0795
-28.0328
-94.5983
191.149
-94.4274
121.909
-46.1311
-60.2014
-32.036
-37.7977
-39.3283
-38.3205
-34.4567
-39.5135
-111.905
145.868
-100.788
60.7899
-59.0179
-64.7091
-38.4571
-36.4036
-36.7974
-35.315
-38.4674
-38.653
-94.3694
121.932
-94.7074
191.108
-46.2413
-60.0989
-36.899
-33.037
-30.0838
-34.5031
-32.9917
-37.8674
-100.848
61.1273
-111.888
145.728
-59.0528
-64.8128
-36.2209
-32.5918
-36.4008
-33.0772
-37.5299
-38.5069
-37.2703
-35.6484
-31.9467
-33.408
-30.3551
-30.9803
-39.474
-35.2318
-39.8209
-36.8938
-32.7525
-32.0428
-32.4774
-38.7912
-32.7952
-34.975
-29.0176
-14.7424
-28.0928
-34.8084
-42.0612
-52.8856
-2.08316
16.0233
-42.5652
-51.2167
-39.0443
-40.0015
-40.7753
-52.1227
-58.8277
-55.1682
-37.2221
-35.6013
-39.4465
-35.2062
-31.907
-33.3696
-30.3381
-30.9454
-39.4601
-36.5669
-32.7124
-34.8075
-32.661
-31.9615
-32.3636
-38.554
-29.0188
-14.7213
-2.0507
16.1361
-28.0888
-34.7735
-42.0278
-52.8997
-42.4504
-51.3442
-58.833
-55.2529
-38.8672
-39.8637
-40.7712
-52.0613
-60.6332
-64.1233
184.892
173.143
-62.2679
-62.2046
193.751
193.749
-49.0271
-34.6021
-49.5953
-40.4038
-35.5825
-37.0587
-35.9565
-35.4202
-38.5364
-39.4571
-32.059
-25.7254
-40.8886
-37.5555
-37.8382
-40.8026
-61.0473
-61.0547
175.957
176.068
-33.0426
-47.6825
-45.0816
-21.0831
-38.0179
-38.0488
-29.2011
-32.7015
-39.2545
-42.6985
-44.1767
-39.5809
-60.805
-64.306
173.21
184.248
-49.0601
-34.606
-49.7783
-40.4486
-35.7385
-34.1518
-30.8112
-31.1965
-40.3926
-36.527
-37.4614
-39.861
-47.7798
-33.0098
-21.0818
-45.1148
-42.4779
-38.5603
-39.7681
-44.4581
-33.7449
-34.0864
-33.2056
-32.5484
-34.6807
-31.7903
-33.7729
-36.3893
-40.7477
-40.7574
-34.3125
-34.298
-34.9494
-37.3321
-40.4648
-41.6782
-32.7609
-32.7941
-36.2138
-36.0768
-40.0003
-40.4625
-65.5898
-73.1084
-7.38468
-7.37002
21.1296
21.2054
-69.1996
-69.2
-50.9861
-51.0675
-33.6915
-34.0112
-33.1743
-32.5019
-31.7489
-34.6246
-33.7194
-36.3282
-37.2415
-34.8528
-40.1553
-41.468
-40.3942
-39.9214
-73.0953
-65.5292
-80.5054
-45.4851
-50.9808
-110.654
-31.6069
-29.5798
-34.7921
-34.293
-27.1785
-31.9601
-34.3081
-28.8808
-98.2258
-115.684
-49.5686
-45.9202
-80.4562
-110.93
-51.0741
-45.4887
-97.0607
-45.9761
-49.6715
-115.963
-27.1867
-28.8727
-34.2261
-31.9426
-31.5852
-34.2979
-34.7899
-29.5687
-91.9053
-86.602
-49.7598
-47.7798
-91.7796
-48.1062
-49.9
-86.643
-36.4278
-40.2942
-41.2241
-38.3211
-36.4421
-38.2826
-41.2186
-40.3078
-103.52
-45.0943
-43.1689
-94.3314
-8.40648
3.1731
-18.2829
-23.1707
-8.36651
-23.1713
-18.2764
3.19915
-103.712
-94.3086
-43.1783
-45.1504
133.195
163.553
194.885
143.254
56.1994
81.9957
179.272
169.471
56.4947
169.888
179.301
82.433
133.155
143.223
194.861
163.381
-30.6872
-32.9106
-35.1244
-31.5881
-31.2524
-34.2488
-35.4934
-33.2814
-41.201
-42.0853
-38.0836
-37.2797
-38.2196
-33.2069
-38.071
-43.3944
-30.6532
-31.5477
-35.0602
-32.8623
-38.201
-43.3344
-37.9958
-33.1621
-41.0282
-37.1296
-37.9995
-42.0117
-31.1409
-33.2088
-35.4128
-34.1297
-34.3192
-35.7063
-33.4219
-32.8525
-34.2833
-32.8096
-33.4053
-35.6931
-31.8032
-33.1272
-32.7131
-32.2112
-31.912
-32.2742
-32.7384
-33.1733
-10.0206
-76.8285
-86.4311
30.9278
-49.5711
-63.1015
-79.7242
-56.7372
-49.5192
-56.6791
-79.7231
-63.1105
-9.93466
31.0239
-84.7591
-76.9255
-39.0569
-41.067
-41.1959
-37.5011
-32.6188
-34.5008
-37.9529
-36.8028
-38.4936
-40.3097
-38.6694
-37.9925
-41.4499
-38.6298
-42.3349
-43.1637
-38.7876
-37.2905
-40.7526
-40.5384
-41.3527
-43.0257
-42.0454
-38.4726
-36.6731
-35.814
-37.8388
-39.8474
-30.6471
-35.7566
-36.9667
-32.4289
-34.9921
-34.9734
-37.5806
-38.451
-34.7665
-37.9636
-37.3693
-34.8812
-37.4729
-36.6305
-40.0713
-39.3062
-39.9535
-40.4101
-40.6292
-38.2655
-50.77
-46.8211
-44.9755
-56.196
-37.218
-36.9783
-39.1256
-40.1535
-36.2394
-40.3166
-39.2681
-36.7938
-50.8623
-56.2483
-45.0992
-47.0709
-40.0891
-34.9983
-31.6186
-36.7638
-36.4929
-33.7898
-28.0772
-29.0131
-33.2425
-32.8967
-28.3936
-33.1105
-36.4097
-36.482
-32.0609
-34.8144
-22.6656
-21.2841
-122.505
-49.0089
-45.025
-42.566
2.67687
-24.335
-151.744
-41.698
-37.7166
-38.933
-21.4393
-22.978
-122.364
-41.3197
-45.3401
-39.7416
-21.7045
6.8869
-155.81
-34.8169
-38.4254
-36.935
-31.1564
-30.4484
-29.1044
-35.1689
-26.649
-27.7104
-20.3411
-29.88
-23.2461
-30.9259
-34.7955
-13.9118
-42.9055
-40.5337
-41.9833
-43.9232
-31.1246
-35.1526
-30.4076
-29.0764
-26.4351
-29.7191
-27.5831
-20.2392
-23.238
-13.8657
-30.9265
-34.771
-42.8317
-43.8234
-40.4699
-41.9237
62.2768
60.5422
-139.603
155.633
-130.753
-130.677
-103.907
53.4951
-43.7483
-36.9468
-39.1254
-40.8169
-41.1415
-41.3542
-39.0068
-36.9128
-36.6777
-34.5292
-36.0862
-32.7628
-42.6458
-41.9602
-51.5774
-42.52
-123.518
-128.622
-125.738
44.8574
-37.6849
-30.8106
-36.4355
-32.6028
-37.3012
-37.3945
-37.2578
-35.5144
-42.524
-45.0725
-43.0676
-43.0265
61.4885
63.5208
-140.814
156.733
-43.7661
-36.9862
-39.1585
-40.779
-37.8543
-37.8293
-36.1992
-33.6047
-41.6221
-41.2717
-50.7301
-41.7083
-37.7295
-30.8296
-36.4747
-32.6264
-42.5284
-45.1425
-42.9751
-43.2571
-31.8964
-32.634
-32.7929
-32.2796
-29.6485
-29.7976
-29.1132
-30.8703
-37.9008
-37.8944
-39.3805
-36.7428
-34.1206
-36.1413
-35.3193
-34.9616
-33.9372
-33.9043
-33.5421
-34.4077
-47.065
-45.6785
-44.4657
-54.1188
17.2955
17.3159
12.4094
27.2782
-60.3132
-60.3281
-62.165
-58.8605
-31.8302
-32.563
-32.7322
-32.2234
-29.6243
-29.7723
-29.0985
-30.8347
-33.987
-36.0165
-35.184
-34.853
-47.0003
-45.6104
-44.3953
-54.0533
-45.2272
-40.9754
-40.8673
-37.313
-45.3234
-41.0343
-40.915
-37.3396
-46.1306
-44.1644
-44.1689
-42.4226
-34.4987
-28.8277
-28.8261
-22.6541
194.086
200.306
197.075
194.109
-36.2008
-36.6866
-36.7933
-37.5918
-36.124
-36.6093
-36.7104
-37.5085
-32.9649
-33.1719
-32.8492
-32.9547
-100.834
-116.514
-89.705
-100.84
-41.6851
-44.6117
-43.7245
-42.4146
-40.901
-43.9195
-43.1531
-41.9307
-40.1504
-39.1279
-38.9504
-38.1812
-39.2278
-39.2138
-39.2869
-39.5742
-30.813
-29.0678
-29.5097
-28.1831
1.73318
31.8159
-110.648
169.379
-46.3973
-88.8233
-129.754
62.4938
-59.7434
-35.2796
-44.1471
-55.429
-49.1119
-45.2589
-39.994
-38.9356
-42.2038
-39.5635
-39.3227
-39.7058
-36.0008
-34.5772
-34.8671
-38.6681
62.4469
79.8941
-137.18
158.007
-51.3929
-103.845
-152.811
-0.986183
-69.8369
-47.9229
-57.1794
-62.2415
-41.339
-41.1582
-40.1386
-36.9303
-35.8828
-36.4996
-36.3293
-35.535
-38.8494
-40.2342
-38.9119
-39.4245
-46.2994
-88.4946
-129.617
62.5669
1.69754
32.1797
-110.417
169.318
-59.7615
-35.3123
-44.2177
-55.4108
-37.6203
-34.9513
-36.0453
-34.4608
-45.4217
-41.7051
-37.2086
-35.7349
-34.1894
-33.3178
-33.3772
-37.0456
-51.197
-102.255
-152.585
-0.538002
104.15
76.2236
-139.87
156.028
-69.8721
-48.0015
-57.2098
-62.3942
-34.2278
-36.2788
-35.6695
-33.6881
-37.8325
-37.5653
-37.4277
-33.4915
-38.0568
-39.9904
-38.1522
-39.2032
-37.165
-33.8273
-37.807
-34.9171
-31.171
-31.8655
-31.5993
-32.6392
-29.1395
-29.3952
-28.871
-30.0577
-37.01
-37.5203
-38.5886
-36.1213
-38.2036
-37.76
-38.8431
-37.3388
-30.9768
-32.2703
-31.8855
-31.7619
-27.0162
-31.1055
-31.2295
-31.6149
-33.0834
-33.7464
-33.0832
-34.1593
-22.2044
-25.4192
-27.491
-17.6143
-30.1031
-29.8491
-28.4212
-32.1842
-45.51
-47.1045
-44.0684
-61.5298
0.920415
10.2626
1.93158
9.97319
-43.9495
-44.9591
-43.3951
-48.4547
-39.3494
-37.8875
-39.0192
-39.2475
-42.9243
-43.9432
-41.7906
-47.8256
-55.4986
-58.7128
-57.502
-56.952
-37.1224
-33.8111
-37.759
-34.8655
-36.9783
-37.5014
-38.5642
-36.0958
-31.1122
-31.7984
-31.5586
-32.5975
-29.1169
-29.3732
-28.8568
-30.0286
-37.8908
-37.3096
-38.4674
-36.9852
-32.9477
-33.6547
-32.9858
-34.0209
-30.8651
-32.1694
-31.7922
-31.6758
-26.8927
-30.9803
-31.1094
-31.4668
-22.2027
-25.4182
-27.5001
-17.5953
0.974673
10.3364
1.97261
10.0317
-30.0823
-29.8258
-28.4119
-32.1572
-45.4998
-47.0634
-44.0447
-61.6285
-43.911
-44.9387
-43.3139
-48.5324
-55.5312
-58.7438
-57.5188
-57.0148
-39.2551
-37.7753
-38.9133
-39.1322
-42.8163
-43.8809
-41.7141
-47.7558
-76.0413
-55.8426
-62.5855
-63.9798
180.008
187.103
186.394
182.326
-68.081
-53.9442
-60.8827
-60.8542
189.68
199.029
196.379
196.342
-40.0049
-40.4986
-44.7319
-36.9434
-42.9301
-44.1962
-46.0862
-41.9383
-36.5919
-36.9104
-36.0623
-36.7676
-36.0576
-34.0621
-35.6145
-35.4875
-38.0818
-39.5913
-38.6763
-39.1665
-28.1861
-29.496
-30.2208
-26.7778
-47.5533
-45.5612
-42.5663
-43.3389
-39.7315
-39.3432
-38.6303
-40.5942
-70.1225
-49.6571
-59.397
-59.3959
150.993
186.639
179.514
179.625
-38.2705
-39.6403
-35.588
-42.6548
-32.4517
-31.3652
-38.1214
-26.6762
-37.4428
-38.5276
-37.9867
-38.0055
-31.4142
-28.8661
-29.4105
-31.5507
-41.7405
-42.2974
-40.4675
-42.7165
-40.7711
-39.7406
-40.6927
-40.0981
-76.1929
-56.192
-62.7483
-64.1522
179.871
186.981
182.301
185.923
-40.0558
-40.5545
-44.8054
-36.9713
-42.8909
-44.173
-46.1838
-42.0075
-34.8437
-35.7882
-35.3984
-34.6428
-32.43
-29.3961
-31.6225
-31.1275
-46.7143
-44.7959
-41.9483
-42.3773
-39.0539
-38.864
-38.1597
-39.841
-38.2871
-39.6669
-42.704
-35.6451
-32.4702
-31.3738
-26.6835
-38.1455
-41.4128
-41.8388
-42.4112
-39.9409
-40.9878
-39.9244
-40.3001
-40.9058
-33.7217
-34.9223
-34.0447
-34.2093
-32.6332
-32.8558
-32.9356
-32.6292
-31.3857
-32.8925
-34.0451
-32.6521
-33.6306
-35.7199
-34.2746
-35.5268
-41.2742
-40.9949
-40.9351
-40.9399
-35.0324
-33.8861
-34.3808
-34.3735
-35.826
-36.3435
-35.4444
-36.6455
-40.0177
-41.0824
-40.6533
-41.1225
-33.0199
-32.7947
-32.8349
-32.852
-35.4701
-36.7901
-36.1583
-36.0881
-41.9378
-39.4776
-40.3989
-40.6928
-84.2842
-98.8204
-97.0844
-81.2504
0.416848
-11.3871
-6.25328
-6.24396
41.308
-10.3016
24.001
24.0322
-67.1194
-75.4052
-70.4196
-70.4208
-53.9395
-47.8544
-50.8863
-50.93
-33.6613
-34.8544
-33.9864
-34.1404
-32.5889
-32.8268
-32.9018
-32.5879
-31.3532
-32.8847
-32.5953
-33.9875
-33.5769
-35.6531
-34.2174
-35.4649
-35.7176
-36.2561
-36.5505
-35.3465
-39.7856
-40.7697
-40.361
-40.8801
-41.8592
-39.3944
-40.6158
-40.3177
-84.2523
-98.8273
-81.2399
-97.0637
-68.9424
-49.5566
-56.7969
-49.1791
-37.0005
-34.4278
-32.6742
-35.3628
-29.6192
-28.8616
-31.4371
-31.0584
-77.094
-61.6426
-63.7947
-54.3852
-69.0721
-49.7115
-56.976
-49.2537
-77.1888
-61.7464
-63.9792
-54.4856
-29.6126
-28.8547
-31.384
-31.0495
-36.9503
-34.3847
-32.6616
-35.3057
-74.1384
-62.429
-63.4678
-55.2368
-74.0535
-62.3117
-63.376
-55.1218
-37.7122
-39.7271
-39.8294
-40.3263
-37.7397
-39.7548
-39.8548
-40.3422
-79.3218
-66.0044
-63.9621
-54.0307
-12.8249
-6.37519
-15.8464
-9.07407
-12.8062
-6.3506
-15.8376
-9.0581
-79.3777
-66.0777
-63.986
-54.0752
196.104
174.088
201.397
193.442
134.427
108.208
159.673
161.143
108.472
134.449
161.151
159.754
174.071
196.024
193.468
201.8
-32.3032
-31.856
-33.29
-33.2497
-33.12
-33.1362
-33.8547
-34.2473
-38.1991
-39.8014
-38.0794
-39.4972
-37.0464
-40.1166
-37.381
-39.7944
-32.2607
-31.8157
-33.2405
-33.2
-37.0016
-40.0739
-37.3223
-39.7363
-38.0719
-39.8657
-38.0125
-39.4286
-33.0279
-33.0314
-33.7719
-34.1528
-33.7372
-34.5426
-33.5518
-34.1779
-34.5162
-33.7038
-34.1567
-33.5228
-32.5468
-32.2291
-32.6336
-32.4577
-32.3013
-32.6177
-32.5107
-32.6816
-10.2839
16.161
-16.135
15.8656
-58.3335
-60.7744
-67.3362
-67.0595
-60.7706
-58.3021
-67.0565
-67.3223
16.2626
-10.1719
15.8553
-15.9793
-40.0475
-40.1078
-40.2391
-40.2865
-34.624
-34.6543
-35.1426
-34.845
-37.9095
-38.08
-37.3655
-38.2771
-42.0665
-40.9561
-42.6135
-42.0494
-39.6969
-39.8167
-39.8342
-39.9629
-41.923
-40.8118
-42.4291
-41.8714
-36.3564
-37.0181
-36.1232
-37.3813
-32.8763
-33.1901
-33.7022
-33.6555
-36.5673
-35.6809
-37.1034
-36.2861
-36.2757
-35.4781
-36.7984
-36.0901
-37.6309
-38.2375
-38.45
-39.0339
-39.5179
-39.8404
-39.7033
-40.1979
-51.4383
-53.4463
-49.0256
-51.1267
-37.4416
-38.3717
-38.0892
-38.8813
-37.1438
-38.2788
-38.0933
-38.9842
-51.5904
-53.5511
-49.2198
-51.2405
-37.1483
-37.0629
-36.1357
-34.6462
-31.5595
-32.8775
-27.3188
-30.1965
-32.1847
-32.3929
-31.1318
-31.437
-35.8215
-35.3525
-35.3675
-34.7622
-120.125
135.516
-126.978
86.288
-78.6978
-86.4788
-40.5052
-41.4524
-41.1737
-42.0191
-33.5245
-39.9093
-133.166
59.3104
-156.619
16.6417
-93.4105
-100.534
-39.6055
-37.6499
-36.588
-36.3845
-38.8412
-38.0589
-126.813
86.2528
-119.99
135.363
-78.5977
-86.3479
-37.9399
-38.1712
-37.7627
-38.0842
-31.5297
-37.5315
-156.71
16.8933
-156.771
62.2205
-92.0391
-100.979
-35.0916
-33.5269
-37.1379
-34.1645
-37.195
-36.9886
-32.0818
-30.0377
-30.4898
-33.1965
-28.9723
-29.5605
-38.2909
-35.1438
-38.1323
-36.3672
-30.6377
-30.7973
-29.339
-30.0473
-32.0047
-33.8356
-26.6403
-13.4602
-28.2285
-34.4473
-40.4095
-35.2248
-6.06609
-4.0436
-42.335
-47.3133
-40.8954
-40.8005
-41.8157
-45.9611
-48.8284
-49.7497
-32.0602
-30.0466
-38.2504
-35.1078
-30.4575
-33.1718
-28.9511
-29.5304
-37.8526
-36.1237
-31.8778
-33.6519
-30.5228
-30.6794
-29.218
-29.854
-26.6558
-13.4251
-6.0165
-3.98835
-28.2325
-34.428
-40.3971
-35.1566
-42.2599
-47.4091
-48.7871
-49.8408
-40.8193
-40.7136
-41.7024
-45.902
-112.105
138.601
-134.127
161.346
-112.943
-111.638
169.108
172.984
-117.879
16.6944
-117.422
16.701
-81.5834
-81.5896
126.224
126.252
-42.2725
-46.5852
-34.1725
-36.6352
-44.8887
-36.5785
-44.557
-40.2138
-39.3069
-37.5977
-39.9908
-36.805
-36.0207
-37.4401
-36.539
-36.5325
-37.6847
-36.7638
-35.3764
-31.6616
-36.7961
-37.6773
-32.6221
-28.8391
-36.2851
-39.4023
-40.5325
-38.9653
-43.2305
-43.0663
-39.399
-40.899
-129.216
-1.66879
-129.21
-1.34381
-88.8803
-88.8447
130.784
130.833
-44.1912
-43.6366
-30.7154
-24.2952
-34.213
-41.1069
-38.1296
-27.7297
-36.9213
-35.7469
-36.8361
-34.7168
-37.0933
-37.0155
-33.1177
-34.083
-41.0076
-40.9099
-44.3923
-48.9759
-41.2613
-42.918
-42.4567
-40.937
-111.91
138.848
-135.511
160.309
-113.214
-111.928
174.025
169.368
-42.3192
-46.6267
-34.1783
-36.6665
-44.9484
-36.6058
-44.4749
-40.3529
-36.4537
-34.5379
-37.1726
-33.3989
-35.2682
-33.8817
-33.4452
-33.1452
-35.2347
-38.2873
-39.9833
-38.4415
-42.5733
-42.0635
-38.798
-39.9838
-44.2518
-43.7008
-30.7178
-24.2969
-41.1488
-34.2437
-27.7405
-38.1653
-40.699
-41.0384
-44.3276
-49.228
-42.7415
-40.9445
-41.1454
-42.6965
-32.2068
-32.4965
-32.7695
-32.0367
-33.2398
-33.4058
-32.66
-32.4156
-29.0415
-30.4428
-28.918
-31.3881
-29.4747
-29.0961
-31.9157
-32.6761
-39.0243
-36.6468
-39.012
-36.634
-40.521
-40.5275
-35.7591
-35.7525
-33.5932
-32.9794
-37.0415
-37.6025
-34.9275
-36.4438
-37.0548
-37.8158
-33.5007
-34.387
-33.4476
-34.3107
-33.2256
-33.2487
-34.9663
-34.9189
-44.9684
-57.2492
-43.1459
-50.5841
-42.794
-43.5059
-70.9334
-60.1936
9.05325
21.7555
9.08687
21.8166
5.56314
5.57934
36.4157
36.4427
-61.0963
-58.4487
-61.1123
-58.4899
-64.0886
-64.0939
-56.3732
-56.3982
-32.1577
-32.4513
-32.6957
-31.968
-33.1868
-33.3402
-32.6133
-32.3386
-29.028
-30.4106
-28.9045
-31.3535
-29.0875
-29.4646
-31.8726
-32.63
-33.4703
-32.8536
-36.9105
-37.4843
-36.3008
-34.8032
-36.8666
-37.6615
-44.9096
-57.1925
-43.0761
-50.5116
-43.4338
-42.7155
-60.1395
-70.8863
-50.6707
-50.1774
-45.1931
-37.3009
-37.0061
-44.7527
-34.8002
-34.5699
-50.6531
-50.092
-45.2854
-37.3307
-44.8194
-37.0533
-34.5329
-34.7889
-49.4223
-49.4753
-46.3416
-42.6066
-46.4379
-42.6133
-41.2003
-41.2005
-41.9967
-42.0008
-36.4889
-23.9891
-23.9864
-36.4953
-17.276
-17.2712
193.213
183.715
196.867
196.907
184.258
184.296
183.718
193.184