# vtk DataFile Version 2.0
tet_velo
ASCII
DATASET UNSTRUCTURED_GRID
POINTS 29498 float
-0.685 0.285 -2.11288
-0.735 0.385 2.22165
-0.719448 0.935 -2.045
-0.635 1.41099 2.005
0.685 0.285 -2.11286
0.735 0.385 2.22165
0.725 0.928186 -2.045
0.635 1.41099 2.005
-0.750168 0.269832 -0.668037
-0.865612 0.204388 0.776807
-0.775828 1.17819 -0.695
-0.726226 1.3154 0.655
0.750165 0.269834 -0.668023
0.866124 0.203876 0.776813
0.777752 1.17187 -0.695
0.727389 1.31244 0.655
-1.43415 -0.245021 -3.21083
-1.44114 -0.164742 -2.09294
-1.49975 -0.194139 -0.645649
-1.57925 -0.265931 0.820734
-1.53665 -0.166403 2.26964
-1.5128 -0.0595128 3.3954
-1.5162 0.0347689 4.50659
-1.43334 0.160885 -3.21099
-1.43987 0.27008 -2.10346
-1.50513 0.286594 -0.674622
-1.5801 0.240808 0.762757
-1.49361 0.3575 2.19342
-1.48419 0.463497 3.31784
-1.50185 0.553591 4.43212
-1.44851 0.913575 -3.18469
-1.46531 1.01709 -2.07324
-1.51264 1.20059 -0.709051
-1.48922 1.30372 0.648415
-1.4087 1.4008 2.01442
-1.43837 1.49902 3.14276
-1.48018 1.58504 4.27234
-1.47298 2.21311 -3.21655
-1.48518 2.34277 -2.1193
-1.50399 2.56526 -0.785864
-1.49941 2.77315 0.52713
-1.48053 2.92288 1.86156
-1.48148 3.01594 2.96087
-1.49644 3.09804 4.08009
-0.700278 -0.235307 -3.21695
-0.695321 -0.1485 -2.10187
-0.734481 -0.199309 -0.644447
-0.819731 -0.29222 0.832726
-0.788891 -0.159138 2.2906
-0.772627 -0.0521947 3.40962
-0.777913 0.0386276 4.51482
-0.699553 0.159218 -3.21287
-0.754634 0.475111 3.32957
-0.770072 0.559578 4.43833
-0.711171 0.877663 -3.17296
-0.720563 1.50838 3.14088
-0.756966 1.59196 4.27193
-0.729011 2.18509 -3.20495
-0.73717 2.31463 -2.10652
-0.75699 2.55378 -0.778161
-0.762508 2.77805 0.526208
-0.753916 2.93203 1.85496
-0.756394 3.02382 2.95428
-0.768531 3.10418 4.0753
0.733384 -0.236976 -3.21693
0.726972 -0.149088 -2.10185
0.779311 -0.199743 -0.644435
0.826237 -0.292813 0.832733
0.737947 -0.159445 2.2906
0.713144 -0.0526422 3.40962
0.701937 0.0379352 4.51482
0.723501 0.157104 -3.21286
0.697373 0.474788 3.32957
0.692563 0.558934 4.43833
0.734249 0.873348 -3.17295
0.66429 1.50795 3.14088
0.678812 1.59121 4.27194
0.750913 2.18104 -3.20494
0.751643 2.31034 -2.10652
0.739613 2.54994 -0.778158
0.711515 2.77534 0.52621
0.688047 2.9303 1.85496
0.682524 3.02245 2.95429
0.681382 3.10288 4.0753
1.46272 -0.248927 -3.21081
1.46123 -0.167532 -2.09292
1.52645 -0.196357 -0.645628
1.59211 -0.267667 0.820747
1.51839 -0.167484 2.26964
1.47096 -0.0607046 3.39541
1.45129 0.0332157 4.50659
1.45036 0.156119 -3.21097
1.4382 0.266374 -2.10344
1.5057 0.283599 -0.674603
1.5904 0.23884 0.762768
1.50181 0.356688 2.19342
1.44973 0.462475 3.31784
1.43715 0.552108 4.43212
1.46231 0.905901 -3.18468
1.46316 1.00816 -2.07323
1.50749 1.19276 -0.709043
1.49424 1.29949 0.648421
1.41648 1.39943 2.01442
1.40379 1.49772 3.14277
1.41387 1.58335 4.27234
1.48949 2.20544 -3.21654
1.49238 2.33479 -2.11929
1.48598 2.55813 -0.785858
1.45691 2.76794 0.527136
1.42497 2.91936 1.86156
1.41489 3.01308 2.96088
1.41432 3.09536 4.0801
-0.764991 0.61 -2.14171
0 0.281464 -2.11641
-0.715411 0.279589 -1.39046
-0.762092 0.897995 2.19042
0 0.351797 2.25485
-0.787691 0.307309 1.49923
0.00277603 1.02088 -2.13429
-0.75038 1.05934 -1.37
0 1.45826 2.05227
-0.694506 1.37709 1.33
0.76652 0.606593 -2.14045
0.715412 0.279588 -1.39044
0.762126 0.897995 2.19045
0.806587 0.288413 1.49923
0.757806 1.05646 -1.37
0.695103 1.37563 1.33
-0.806383 0.238617 0.0543849
-0.856439 0.724012 -0.681518
-1.16694e-06 0.23708 -0.66803
-0.853416 0.759896 0.715903
0.000256321 0.243664 0.77681
-0.755427 1.2512 -0.02
0.000962203 1.40836 -0.695
0.0005813 1.63519 0.655
0.806383 0.238617 0.054395
0.855697 0.720854 -0.681512
0.854803 0.75816 0.715907
0.757352 1.24694 -0.02
-0.881056 0.667006 -1.38023
-0.858896 0.741954 0.0171925
-0.885731 0.828946 1.41461
-5.8347e-07 0.285459 -1.39045
0.000127577 0.239019 0.05439
0.000128161 0.284048 1.49923
0.00138801 0.608296 -2.3772
0 0.897995 2.26072
0.00186911 1.13704 -1.37
0.000771751 1.61002 -0.02
0.00029065 1.62894 1.33
0.881044 0.663723 -1.38022
0.858348 0.739507 0.0171975
0.885788 0.828078 1.41462
-1.06244 0.27754 -2.10817
-0.690161 0.0682501 -2.10737
-0.692276 0.222109 -2.66288
-1.1143 0.37125 2.20753
-0.761945 0.112931 2.25612
-0.744817 0.430056 2.77561
-1.09238 0.976046 -2.05912
-0.71531 0.906331 -2.60898
-0.728309 1.62481 -2.07576
-1.02185 1.4059 2.00971
-0.677782 1.45968 2.57294
-0.694458 2.17151 1.92998
0.705986 0.0679559 -2.10735
0.704251 0.221052 -2.66286
1.0616 0.275687 -2.10815
0.736473 0.112778 2.25613
0.716187 0.429894 2.77561
1.11841 0.370844 2.20754
0.729624 0.900767 -2.60898
0.738321 1.61926 -2.07576
1.09408 0.968172 -2.05911
0.649645 1.45947 2.57294
0.661524 2.17065 1.92998
1.02574 1.40521 2.00971
-1.12765 0.278213 -0.671329
-0.742325 0.0352617 -0.656242
-1.22285 0.222598 0.769782
-0.842672 -0.0439159 0.804767
-1.14423 1.18939 -0.702026
-0.766409 1.86599 -0.736581
-1.10772 1.30956 0.651708
-0.744367 2.04673 0.590604
0.764738 0.0350459 -0.656229
1.12793 0.276717 -0.671313
0.846181 -0.0444686 0.804773
1.22826 0.221358 0.769791
0.758682 1.86091 -0.736579
1.14262 1.18231 -0.702021
0.719452 2.04389 0.590605
1.11081 1.30597 0.65171
-1.43764 -0.204881 -2.65189
-1.43374 -0.0420678 -3.21091
-1.06721 -0.240164 -3.21389
-1.47045 -0.17944 -1.3693
-1.44051 0.0526694 -2.0982
-1.06823 -0.156621 -2.0974
-1.5395 -0.230035 0.0875429
-1.50244 0.0462276 -0.660135
-1.11712 -0.196724 -0.645048
-1.55795 -0.216167 1.54519
-1.57967 -0.0125619 0.791746
-1.19949 -0.279076 0.82673
-1.52473 -0.112958 2.83252
-1.51513 0.0955485 2.23153
-1.16277 -0.162771 2.28012
-1.5145 -0.012372 3.95099
-1.4985 0.201992 3.35662
-1.14272 -0.0558538 3.40251
-1.50902 0.29418 4.46935
-1.14706 0.0366982 4.5107
-1.4366 0.215483 -2.65723
-1.44092 0.53723 -3.19784
-1.06645 0.160052 -3.21193
-1.4725 0.278337 -1.38904
-1.45259 0.643587 -2.08835
-1.54261 0.263701 0.0440677
-1.50889 0.743595 -0.691836
-1.53685 0.299154 1.47809
-1.53466 0.772262 0.705586
-1.4889 0.410499 2.75563
-1.45115 0.879151 2.10392
-1.49302 0.508544 3.87498
-1.46128 0.981259 3.2303
-1.11941 0.469304 3.3237
-1.49102 1.06932 4.35223
-1.13596 0.556585 4.43522
-1.45691 0.965334 -2.62896
-1.46074 1.56334 -3.20062
-1.07984 0.895619 -3.17882
-1.48898 1.10884 -1.39114
-1.47524 1.67993 -2.09627
-1.50093 1.25216 -0.0303179
-1.50831 1.88293 -0.747458
-1.44896 1.35226 1.33142
-1.49432 2.03843 0.587773
-1.42354 1.44991 2.57859
-1.44461 2.16184 1.93799
-1.45928 1.54203 3.70755
-1.45992 2.25748 3.05182
-1.07947 1.5037 3.14182
-1.48831 2.34154 4.17621
-1.11858 1.5885 4.27214
-1.47908 2.27794 -2.66792
-1.10099 2.1991 -3.21075
-1.49458 2.45401 -1.45258
-1.11117 2.3287 -2.11291
-1.5017 2.66921 -0.129367
-1.13049 2.55952 -0.782013
-1.48997 2.84802 1.19434
-1.13096 2.7756 0.526669
-1.481 2.96941 2.41122
-1.11722 2.92746 1.85826
-1.48896 3.05699 3.52048
-1.11893 3.01988 2.95758
-1.13249 3.10111 4.0777
-0.6978 -0.191904 -2.65941
-0.699916 -0.0380447 -3.21491
0.0165528 -0.236142 -3.21694
-0.714901 -0.173904 -1.37316
0.0158255 -0.148794 -2.10186
-0.777106 -0.245764 0.0941395
0.0224147 -0.199526 -0.644441
-0.804311 -0.225679 1.56166
0.00325283 -0.292516 0.83273
-0.780759 -0.105666 2.85011
-0.0254718 -0.159292 2.2906
-0.77527 -0.00678355 3.96222
-0.763631 0.211458 3.3696
-0.0297416 -0.0524184 3.40962
-0.773992 0.299103 4.47657
-0.0379879 0.0382814 4.51482
-0.705362 0.51844 -3.19292
0.0119742 0.158161 -3.21287
-0.762353 0.517345 3.88395
-0.737599 0.991746 3.23522
-0.0286305 0.47495 3.32957
-0.763519 1.07577 4.35513
-0.0387547 0.559256 4.43833
-0.720091 1.53137 -3.18895
0.0115387 0.875505 -3.17296
-0.738765 1.55017 3.70641
-0.738479 2.2661 3.04758
-0.0281367 1.50817 3.14088
-0.762748 2.34807 4.17362
-0.0390767 1.59158 4.27194
-0.733091 2.24986 -2.65574
0.0109512 2.18307 -3.20495
-0.74708 2.4342 -1.44234
0.00723634 2.31248 -2.10652
-0.759749 2.66591 -0.125977
-0.0086885 2.55186 -0.77816
-0.758212 2.85504 1.19058
-0.0254964 2.77669 0.526209
-0.755155 2.97793 2.40462
-0.0329343 2.93117 1.85496
-0.762463 3.064 3.51479
-0.036935 3.02314 2.95428
-0.0435744 3.10353 4.0753
0.730178 -0.193032 -2.65939
0.728443 -0.0399361 -3.2149
1.09805 -0.242951 -3.21387
0.753142 -0.174415 -1.37314
1.0941 -0.15831 -2.09738
0.802774 -0.246278 0.0941488
1.15288 -0.19805 -0.645032
0.782092 -0.226129 1.56167
1.20917 -0.28024 0.82674
0.725545 -0.106044 2.85011
1.12817 -0.163465 2.28012
0.70754 -0.00735349 3.96222
0.705259 0.211073 3.3696
1.09205 -0.0566734 3.40251
0.69725 0.298435 4.47658
1.07661 0.0355754 4.51071
0.728875 0.515226 -3.19291
1.08693 0.156612 -3.21191
0.694968 0.516861 3.88395
0.680832 0.99137 3.23523
1.07355 0.468632 3.32371
0.685687 1.07507 4.35513
1.06486 0.555521 4.43523
0.742581 1.5272 -3.18895
1.09828 0.889624 -3.17881
0.671551 1.54958 3.70641
0.673407 2.2652 3.04758
1.03404 1.50284 3.14182
0.680097 2.34705 4.17362
1.04634 1.58728 4.27214
0.751278 2.24569 -2.65573
1.1202 2.19324 -3.21074
0.745628 2.43014 -1.44234
1.12201 2.32257 -2.11291
0.725564 2.66264 -0.125974
1.1128 2.55403 -0.782008
0.699781 2.85282 1.19059
1.08421 2.77164 0.526673
0.685286 2.97638 2.40462
1.05651 2.92483 1.85826
0.681953 3.06267 3.51479
1.04871 3.01776 2.95758
1.04785 3.09912 4.0777
1.46198 -0.20823 -2.65186
1.45654 -0.0464039 -3.21089
1.49384 -0.181944 -1.36927
1.44972 0.049421 -2.09818
1.55928 -0.232012 0.0875592
1.51608 0.0436211 -0.660115
1.55525 -0.217576 1.54519
1.59125 -0.0144138 0.791757
1.49467 -0.114094 2.83252
1.5101 0.0946017 2.23153
1.46113 -0.0137445 3.951
1.46035 0.200885 3.35662
1.44422 0.292662 4.46936
1.44428 0.211247 -2.6572
1.45633 0.53101 -3.19782
1.47195 0.274986 -1.38902
1.45068 0.637266 -2.08833
1.54805 0.261219 0.0440829
1.50659 0.738177 -0.691823
1.5461 0.297764 1.47809
1.54232 0.769165 0.705594
1.47577 0.409581 2.75563
1.45915 0.878058 2.10392
1.44344 0.507291 3.87498
1.42676 0.980098 3.23031
1.42551 1.06773 4.35223
1.46274 0.957029 -2.62895
1.4759 1.55567 -3.20061
1.48532 1.10046 -1.39113
1.47777 1.67148 -2.09626
1.50086 1.24612 -0.0303111
1.49673 1.87544 -0.74745
1.45536 1.34946 1.33142
1.47558 2.03372 0.587778
[...]
POINT_DATA 29498
VECTORS point_vectors float
-1.06515 -2.82741 6.91098
0.27256 0.238666 1.3446
-2.35321 2.39223 4.99576
-0.0777791 -0.116043 0.0930655
1.04406 -2.84851 6.93824
-0.257219 0.255146 1.31012
2.32887 2.14069 4.32395
0.075264 -0.119532 0.0989153
0 0 0
0.652485 -0.569565 10.4445
-0.103832 -0.10028 0.482712
2.40365e-05 5.73535e-05 0.000297483
0 0 0
-0.320224 -1.07171 6.84583
0.0686893 -0.064483 0.305017
-6.73691e-06 1.60294e-05 8.21856e-05
-0.61337 -0.416413 19.8921
-1.1813 -0.932338 20.701
-0.381966 -0.425463 21.531
0.141529 -0.111679 21.7227
0.695475 0.17772 21.6695
0.972141 0.321335 21.3521
0.991594 0.0820365 21.0181
-0.798449 -0.358968 19.7048
-1.96699 -0.918412 20.6167
-0.598236 -0.613694 21.6515
0.0596871 -0.326576 21.7918
0.935007 -0.152932 21.7972
1.41084 -0.166701 21.4849
1.39857 -0.201466 21.2859
-0.937412 0.0832834 19.5745
-2.24197 0.311324 20.4264
-1.46179 -0.273257 21.5232
-0.510376 -0.410318 21.8772
0.135884 -0.6826 21.8458
0.595651 -0.844267 21.5704
0.528649 -0.61903 21.4111
-0.458966 0.344331 19.9832
-0.693381 0.542484 20.386
-0.659533 0.443418 21.0341
-0.392354 0.122451 21.4549
-0.171558 -0.117644 21.4136
-0.0127992 -0.258666 21.1938
-0.0132849 -0.139851 21.3365
-0.563081 -0.878894 19.4083
-1.25194 -2.77376 21.0615
-0.314007 -0.574718 21.9363
0.158758 0.0488713 22.0056
0.796889 1.05387 21.5078
1.37923 1.56057 20.1044
1.44651 1.07329 18.9624
-0.773326 -0.800311 18.9026
2.47935 0.83602 12.537
2.5651 0.950592 15.1905
-1.04767 0.295271 18.3865
0.0724469 -1.33576 10.5404
0.354713 -1.72894 14.5661
-0.362361 0.621361 19.7256
-0.653239 1.12963 20.206
-0.681503 1.07018 21.0581
-0.333225 0.367748 21.5832
-0.128384 -0.0358682 21.5835
-0.0765913 -0.183066 21.6142
0.183255 -0.26266 21.0633
0.581885 -0.849668 19.4338
1.29514 -2.68346 21.0379
0.311442 -0.549774 21.906
-0.17199 0.0137532 21.9986
-0.720232 1.13518 21.4667
-1.32241 1.74003 19.9314
-1.43843 1.16132 18.2747
0.790194 -0.772419 18.9379
-2.40393 1.14824 11.0479
-2.64255 1.11432 14.4834
1.07123 0.275087 18.4328
-0.0703884 -1.09318 8.19291
-0.345267 -1.83093 12.5241
0.371942 0.610817 19.7321
0.66433 1.12368 20.2072
0.676442 1.08678 21.059
0.317421 0.392908 21.6127
0.132296 -0.037951 21.5339
0.0975607 -0.179442 21.5488
-0.189735 -0.264747 20.9878
0.603341 -0.40996 19.9071
1.16911 -0.901564 20.6975
0.390135 -0.417431 21.5064
-0.121491 -0.128622 21.7185
-0.717778 0.19929 21.6718
-1.00852 0.353478 21.3255
-0.978211 0.151233 21.1655
0.793104 -0.356808 19.7249
1.9658 -0.927002 20.6224
0.59358 -0.611487 21.6487
-0.0275426 -0.326051 21.7886
-0.932796 -0.154501 21.8306
-1.4468 -0.12621 21.4929
-1.54073 -0.217362 20.9091
0.930069 0.0771381 19.5884
2.25885 0.301274 20.431
1.46719 -0.284491 21.5296
0.511542 -0.404461 21.8746
-0.146263 -0.681193 21.8509
-0.613484 -0.902409 21.6715
-0.540899 -0.822435 21.6187
0.46283 0.336365 19.9884
0.696778 0.541264 20.3868
0.665274 0.458113 21.0318
0.407155 0.128538 21.4653
0.171508 -0.124665 21.4121
0.0178233 -0.242777 21.2715
0.00145195 -0.172215 21.3121
-2.49629 -0.170506 2.97183
0.00075872 -0.0536135 0.394715
0.0150545 -0.0225521 0.469859
0.0218847 -0.15458 0.0830428
0.0014328 0.0501281 0.33362
0.00468433 -0.0102856 0.857479
-0.0137626 0.817404 1.25727
-0.234574 -0.0972601 0.480543
0.00225066 0.021882 -0.0210648
0.0018722 0.00187764 0.0388022
2.20369 -0.213611 2.80697
-0.0165379 -0.0218672 0.4618
-0.0210678 -0.14551 0.0822384
-0.0626226 0.0368429 0.42466
0.377152 -0.16941 0.769385
-0.00181385 0.00177502 0.0414214
0.101625 -0.0421951 4.95923
0 0 0
-0.000144375 -0.00122368 0.0363688
0.000167696 0.00238904 0.0143888
-0.00099796 0.0354084 0.209577
0.00181037 0.00454344 0.0122441
0.000323806 0.0369686 0.0704793
3.79846e-05 0.000895807 0.0522997
-0.108839 -0.0638763 4.96405
0 0 0
-0.000125366 0.00159306 0.00863538
-0.00219715 0.00548655 0.0146924
0 0 0
3.99698e-05 0.00106121 0.00671866
0.0203312 -0.00545254 0.177634
-3.28513e-07 -7.47779e-08 -3.62767e-05
-5.88318e-06 0.000145301 0.0170083
1.15284e-06 4.00678e-06 0.000363469
0.00855565 0.288301 0.333792
0.00326035 -0.14788 -0.0371888
0 0 0
7.26385e-06 0.000131929 0.00264349
4.12283e-05 -9.68079e-05 0.0143321
0.000208875 -0.000297929 0.00553322
-8.38265e-06 0.000376098 0.00227141
-0.0199532 -0.00735887 0.182477
-3.56558 -2.36161 20.7703
-2.0393 -4.55613 21.5715
-2.23523 -2.37353 17.7929
1.57641 0.130105 19.4676
1.15803 1.34569 17.1186
1.64035 0.58598 7.91951
-4.2584 1.15677 20.359
-3.28745 1.44848 16.5886
-1.69163 2.30693 19.9838
0.101212 -0.727711 18.8284
-1.1682 -1.2003 5.22525
-0.313772 -0.143422 21.763
2.09843 -4.44936 21.5213
2.2469 -2.33835 17.8508
3.57794 -2.38596 20.7767
-1.00444 1.46058 16.6257
-1.54179 0.713948 7.03013
-1.58707 0.117301 19.4281
3.30033 1.39462 16.6563
1.71761 2.29461 19.9876
4.28285 1.12163 20.364
1.35537 -1.29631 4.34654
0.324585 -0.139999 21.7774
-0.117197 -0.738035 18.9681
-0.329437 -0.724669 21.1702
-0.263656 -0.316112 19.6085
0.193088 -0.377074 21.5971
0.342615 0.0832634 20.9769
-2.59673 -0.691298 21.7528
-2.10246 2.08146 21.0376
-0.783084 -0.692066 21.009
-0.814569 0.537607 22.105
0.265804 -0.309863 19.8505
0.324055 -0.724689 21.1771
-0.357411 -0.0193271 20.9976
-0.108835 -0.398809 21.622
2.12024 2.12183 21.0314
2.58708 -0.719113 21.7355
0.809716 0.571099 22.1279
0.779677 -0.667249 21.0013
-0.954003 -0.703684 20.1166
-0.723985 -0.403083 19.8111
-0.63968 -0.65293 19.659
-0.776408 -0.695433 21.3235
-1.55181 -0.992565 20.6595
-1.44348 -1.70601 20.8078
-0.0958222 -0.229289 21.6394
-0.502423 -0.532643 21.5817
-0.33304 -0.539443 21.7194
0.41007 0.026104 21.7491
0.0866355 -0.228451 21.749
0.16496 -0.0805262 21.858
0.902175 0.290205 21.5154
0.833189 0.0538351 21.7201
0.877003 0.511046 21.8007
1.09549 0.23492 20.5771
1.22492 0.236882 21.3357
1.41509 0.879976 21.3627
1.21267 -0.0499643 21.1923
1.24403 0.571069 21.4703
-1.44094 -0.642365 19.8565
-0.910711 -0.16499 19.5865
-0.862919 -0.573933 19.3431
-1.2257 -0.781163 21.4704
-2.40968 -0.350223 20.5163
-0.226948 -0.450715 21.6905
-1.00577 -0.623554 21.6666
0.420146 -0.259225 21.8997
-0.175795 -0.443621 21.9094
1.22811 -0.135719 21.6844
0.696325 -0.648922 21.8288
1.4515 0.00730358 21.4272
1.20318 -0.662048 21.6536
2.1907 0.205207 19.4771
1.02768 -0.518418 21.3263
2.02499 0.219888 18.4926
-1.66119 0.218502 19.6876
-0.691516 0.351231 19.776
-1.08253 0.202421 19.0782
-1.82312 0.00951743 21.1808
-1.2932 0.696993 20.331
-0.969586 -0.401192 21.8241
-1.2433 0.42526 21.2235
-0.174405 -0.503492 21.8892
-0.572738 0.00682109 21.6586
0.354035 -0.781229 21.7245
-0.127859 -0.292911 21.6284
0.773958 -0.770288 21.7723
0.126843 -0.448254 21.4796
0.558545 -1.17524 21.2917
0.221872 -0.613651 20.8746
0.453342 -1.46966 21.1342
-0.584119 0.468631 20.1498
-0.449764 0.49527 19.8372
-0.736103 0.535121 20.7773
-0.727177 0.843532 20.3149
-0.565366 0.311681 21.2643
-0.706986 0.738238 21.0339
-0.260155 -0.0460184 21.5073
-0.429907 0.235861 21.5578
-0.103807 -0.17435 21.454
-0.184358 -0.0945763 21.6422
0.0499367 -0.159123 21.3712
-0.0517106 -0.217198 21.6885
0.130238 -0.257823 21.241
-1.06083 -1.8872 19.4894
-0.67117 -0.858813 19.1322
0.0100038 -1.1128 19.1629
-0.591219 -1.23517 21.8277
0.0310151 -3.49028 21.4571
-0.0748205 -0.245876 21.8785
0.0175435 -0.816002 22.0328
0.426554 0.473087 22.0407
-0.00469917 0.0569336 22.0464
1.05502 1.34821 21.1512
0.0258652 1.16299 20.7177
0.984004 1.44335 21.0277
2.09012 2.053 16.9626
0.0420924 2.13519 20.0097
2.09078 1.26846 16.6299
0.216701 2.38527 18.8641
-1.02941 -0.377508 18.3982
0.0157978 -1.06906 18.3721
2.49932 1.32492 13.7898
1.37048 -0.841219 6.32172
0.0646394 1.44693 3.37295
1.92565 -0.807105 13.7443
0.239708 2.44716 9.79983
-0.656037 0.75048 19.151
0.0225622 0.386401 17.5313
0.330356 -1.74055 13.4953
-0.0393273 -0.517238 21.6604
-0.0378526 0.710656 -8.19978
0.0761658 -0.613734 21.8916
-0.0150041 2.31239 0.0851496
-0.529154 0.942758 19.8921
0.00534882 0.772425 19.5878
-0.690027 1.14857 20.6345
0.00649493 1.50879 20.1053
-0.537295 0.745568 21.4679
-0.0125488 1.51025 21.0255
-0.198055 0.0904544 21.6475
-0.0171216 0.577896 21.7589
-0.0663845 -0.15514 21.5721
-0.0115755 0.00106387 21.7543
0.0473825 -0.276613 21.1087
-0.01783 -0.233045 21.8856
-0.00134453 -0.292403 20.7667
1.06921 -1.80946 19.5347
0.687021 -0.823792 19.1701
0.629639 -0.630957 19.6827
0.613536 -1.1977 21.818
1.42129 -1.62306 20.786
0.0679546 -0.250523 21.8555
0.33866 -0.534054 21.6924
-0.411397 0.513518 22.0607
-0.148373 -0.115039 21.8376
-1.00043 1.44249 21.1364
-0.89267 0.573526 21.8196
-0.844494 1.67337 20.9457
-1.98192 2.24571 16.6468
-1.49347 1.00479 21.4205
-2.13442 1.41294 15.9403
-1.32523 0.696999 21.5128
1.06022 -0.369054 18.4508
0.867329 -0.57088 19.3672
-2.55919 1.68601 12.5921
-1.2787 -0.353916 5.11519
-2.37146 0.258907 18.7555
-2.06388 -0.807941 11.5287
-2.11374 0.374947 17.8205
0.671814 0.731645 19.1678
1.08679 0.192161 19.0982
-0.267781 -1.73824 11.9717
0.0674972 -0.524236 21.6544
-0.633682 -1.2386 20.6973
0.0157034 -0.635844 21.9875
-0.452074 -1.49927 20.096
0.543181 0.928215 19.8951
0.454144 0.493858 19.8374
0.697197 1.15208 20.6321
0.734315 0.837442 20.3159
0.51811 0.776307 21.4732
0.7112 0.764003 21.0319
0.184399 0.0950613 21.632
0.428692 0.270835 21.5866
0.0550755 -0.158422 21.508
0.174035 -0.0827747 21.6573
-0.0570909 -0.249776 21.0922
0.0484252 -0.213861 21.7461
-0.176607 -0.288135 21.228
0.941757 -0.690686 20.125
0.717472 -0.396491 19.8384
0.76976 -0.674147 21.3024
1.53407 -0.977191 20.6617
0.100894 -0.24177 21.6305
0.503563 -0.529533 21.5704
-0.419155 0.0410242 21.7837
-0.0633902 -0.239335 21.7436
-0.917295 0.313004 21.5256
-0.848794 0.06298 21.7402
-1.20208 0.300689 20.6309
-1.26431 0.248733 21.3724
-1.20332 0.0268404 21.3331
1.42892 -0.640788 19.8731
0.906984 -0.168615 19.6122
1.22098 -0.783321 21.4729
2.41299 -0.362479 20.5229
0.235966 -0.451328 21.6843
0.998549 -0.629728 21.6671
-0.411799 -0.256373 21.922
0.191188 -0.43291 21.907
-1.25907 -0.119285 21.6882
-0.704289 -0.637217 21.8512
-1.55205 0.00840379 21.356
-1.2279 -0.648857 21.727
-1.2359 -0.644591 20.9603
1.65488 0.203818 19.6982
0.691441 0.348743 19.7872
1.82858 0.00166183 21.1882
1.30034 0.69213 20.3336
0.9682 -0.404817 21.8218
1.26638 0.436712 21.2276
0.17325 -0.49395 21.9008
0.582562 0.0111495 21.6858
-0.366295 -0.798276 21.747
0.135055 -0.296514 21.6458
-0.851071 -0.779233 21.6659
-0.126655 -0.480618 21.4296
-0.189555 -0.578286 21.4186
0.587513 0.465407 20.1507
0.743729 0.540629 20.7757
0.577132 0.322777 21.2676
0.266092 -0.0456641 21.5181
0.122538 -0.173099 21.491
-0.0401667 -0.198506 21.3542
-1.19531 -0.724191 19.9841
-1.55462 -2.2632 18.8173
-1.15112 -1.25587 19.8498
-2.05428 -1.29045 19.1344
-0.798053 -0.663 19.5159
-2.19726 -2.14871 20.8315
-0.990589 -0.772955 21.3947
-0.572132 -1.11406 21.1593
-0.774407 -1.01005 21.5702
-1.26129 -1.31371 21.8838
-0.345824 -0.621655 21.8598
-0.174306 -0.350491 21.6468
-0.000961332 -0.123226 19.9212
-0.0750518 -0.280583 21.7569
-0.0100954 -0.483085 21.297
0.223554 -0.197404 21.8968
0.412835 -0.0866136 21.8315
0.753937 0.56281 18.8576
0.483132 0.187367 21.9297
0.710921 -0.172507 20.5142
1.28956 0.47391 21.5372
1.08813 0.115635 21.5842
1.58263 1.57302 16.6926
1.18969 0.717142 21.5633
1.9422 0.117596 19.6091
1.67001 0.809792 20.4865
1.35069 0.0586046 20.8853
1.87565 1.5395 15.5308
1.30056 0.602064 21.348
2.25163 0.122769 19.6882
1.54185 0.526144 19.9584
-1.7278 -0.245405 19.6721
-3.37546 -0.871611 16.1945
-2.54351 0.64832 18.7578
-1.13518 -0.276482 19.0556
-5.1538 -0.727448 20.4627
-1.65597 -0.530733 21.4523
-2.79808 -0.0419684 21.559
-0.877893 -1.20671 19.9613
-0.528416 -0.533055 21.8
-1.54522 -0.872644 21.6176
-0.0184553 -0.499107 19.1546
0.198528 -0.499111 21.968
-0.265704 -0.579052 20.0145
1.00846 -0.669868 16.798
0.987722 -0.722319 21.6358
0.0972129 -1.92357 3.57682
0.112491 -0.986228 20.1425
1.53041 -0.966743 18.782
1.21488 -0.656464 21.3334
1.73416 -0.279685 8.76678
0.838077 -1.46716 20.7354
1.90877 -1.34286 19.1435
-1.0325 0.56529 19.9351
-1.2385 1.65025 19.127
-0.604376 0.705809 20.0214
-0.764403 0.557075 19.4788
-1.64285 1.33486 20.1709
-1.33103 0.582189 20.8207
-1.7279 1.91779 20.5264
-0.755762 0.811744 20.7137
-1.7033 0.958464 21.246
-0.951856 0.208803 21.5766
-1.5537 1.35648 22.1799
-0.581854 0.500402 21.3754
-0.738073 0.180465 21.896
-0.317902 -0.15953 21.6854
-0.470171 0.102827 21.9534
-0.287655 0.00701632 21.6739
-0.230406 -0.274454 21.721
0.0120536 -0.397026 21.5632
-0.250624 -0.280856 21.6906
-0.118153 -0.18329 21.7551
0.0177588 -0.617784 21.7038
0.221181 -0.514058 21.0548
0.093403 -0.666029 20.7127
0.0150054 -0.291181 21.2323
0.201054 -0.627157 21.3441
1.56325 -2.21384 18.8879
0.0298991 -2.64648 19.1848
0.021808 -4.13858 16.1204
0.0115058 -1.13259 18.7799
0.0199259 -5.11409 22.5964
0.57637 -1.10915 21.1919
0.0248695 -1.46695 22.0668
0.0118713 -0.622743 17.1629
-0.00910893 -0.12691 19.9846
-0.0025414 -0.374069 21.9949
-0.0141018 0.163837 17.7676
-0.741497 0.666628 19.0314
0.00346465 0.513188 21.7284
0.0388109 1.06483 13.3889
-1.43744 1.75118 16.4424
0.0341003 1.6086 20.0515
0.0586623 0.198531 2.75564
0.0626142 2.37003 13.195
-1.75691 1.7856 15.3925
0.0858459 2.90345 19.3687
0.324673 2.62454 5.86532
0.230608 2.25953 15.3055
3.3785 -0.888566 16.2989
0.0479274 2.99429 13.4911
0.0241654 -0.525787 17.5303
0.0286989 -1.91972 2.75346
-0.0543466 0.524711 -5.41139
0.10774 2.50975 -1.44209
-1.78492 -0.344704 6.4237
-0.102161 0.0204531 -4.70061
-0.0611507 4.4932 -0.683563
1.25672 1.62886 19.1367
0.00648365 1.19995 19.7422
0.0132076 1.03511 18.7815
0.0135736 3.48728 19.7174
1.73988 1.9173 20.5264
0.000492158 1.5561 20.5545
-0.0149163 3.79607 20.6982
1.56815 1.40833 22.201
-0.0143227 1.04705 21.5366
-0.01596 1.06819 22.2978
0.470586 0.121735 21.9675
-0.014861 0.152295 21.8228
-0.00513053 0.164984 21.7984
0.267912 -0.278372 21.7206
-0.0146453 -0.11221 21.8552
-0.00319755 -0.233826 21.3105
-0.0473314 -0.681691 21.0591
0.0106983 -0.290604 21.2943
0.00456638 -0.54924 20.5624
1.1773 -0.71417 20.0116
1.14468 -1.21 19.8779
2.03309 -1.26817 19.1634
0.793198 -0.645079 19.5236
2.1711 -2.08321 20.8159
0.983944 -0.760831 21.3847
0.782074 -0.986059 21.5458
1.24575 -1.30892 21.8824
0.356289 -0.624025 21.8398
0.180238 -0.351809 21.6431
0.079939 -0.286096 21.7391
0.0161344 -0.48905 21.2868
-0.176765 -0.239823 21.8889
-0.405119 -0.08657 21.8562
-0.480772 0.196849 21.9698
-0.711287 -0.171779 20.7859
-1.3338 0.521631 21.4472
-1.13167 0.143472 21.5849
-1.20789 0.806452 21.5229
-1.98161 0.158644 19.152
-1.73351 1.01267 19.9548
-1.51763 0.14637 20.8768
-1.27046 0.730389 21.4472
-2.41286 0.184022 19.015
-1.63631 0.688094 19.3098
1.71499 -0.253881 19.6927
2.52981 0.61435 18.7923
1.12377 -0.27317 19.0907
5.15546 -0.754009 20.4741
1.65186 -0.54226 21.4589
2.79836 -0.0661465 21.572
0.85478 -1.20106 19.8644
0.53311 -0.529804 21.7932
1.53331 -0.862055 21.5569
0.0445905 -0.46796 19.2529
-0.191698 -0.48636 21.9963
0.267436 -0.575994 20.099
-1.02868 -0.653757 16.9522
-1.02796 -0.746065 21.6167
-0.143101 -0.974838 19.6594
-1.65306 -1.02394 17.9703
-1.29126 -0.646148 21.3771
-0.7953 -1.737 20.8471
-2.0046 -1.44758 18.5565
1.03585 0.559029 19.9415
0.61115 0.701313 20.0235
0.763392 0.54316 19.4889
1.65367 1.32637 20.1713
1.34284 0.584758 20.8241
0.760205 0.821201 20.7099
1.73379 0.979922 21.244
0.971488 0.221881 21.5886
0.576692 0.527702 21.3812
0.750711 0.198047 21.9131
0.319003 -0.157266 21.6983
0.270064 0.0195162 21.6766
0.23707 -0.27827 21.7343
0.0007099 -0.400706 21.5633
0.122761 -0.178662 21.7641
0.0184362 -0.67025 21.8649
-0.201914 -0.500602 21.0912
-0.0102662 -0.322628 21.2198
-0.180401 -0.65166 21.3864
-1.53344 -1.36962 19.5854
-0.97082 -1.17122 21.7638
-0.0345521 -0.365338 21.7979
0.676773 0.0698253 21.8262
1.63659 0.632628 21.0798
1.91722 0.40718 20.5013
-2.69852 -0.552861 18.6241
-2.13146 -1.04459 21.8092
-0.283215 -0.89569 19.4121
0.367335 -0.343876 18.3659
1.23832 -1.00131 17.7545
2.07019 -1.21808 19.2589
-1.29339 1.05396 19.5637
-1.66196 1.09754 20.7499
-1.28115 0.5755 21.8244
-0.415727 -0.0826922 21.8254
-0.123836 -0.410413 21.65
0.0766812 -0.66828 21.8668
0.0379096 -3.53187 18.2773
0.0225583 -1.13334 19.4185
-5.28482e-07 -0.240393 16.9476
-0.00227949 0.463656 15.198
0.0492881 1.35554 12.5661
0.128291 2.45171 13.2617
0.0410334 -1.3162 12.8615
-0.0423863 0.359444 -0.21068
-0.0299995 4.66374 -2.64065
0.0160028 2.45705 18.5831
0.000615524 3.01835 20.1403
-0.0254886 2.44212 22.4211
-0.0105128 0.437516 22.0457
-0.0081408 0.0972911 21.7295
0.0471044 -0.612273 20.9314
1.52074 -1.34406 19.6052
0.976081 -1.15543 21.7454
0.046505 -0.371474 21.7809
-0.681566 0.0721395 21.9297
-1.70304 0.705322 20.8234
-1.89107 0.445811 20.2727
2.6696 -0.558778 18.6816
2.11548 -1.06044 21.8055
0.288951 -0.888534 19.436
-0.365881 -0.327799 18.5202
-1.23219 -1.00665 16.9211
-2.29881 -1.41259 18.4979
1.29104 1.03391 19.5734
1.67406 1.10066 20.7503
1.29723 0.596108 21.8375
0.425516 -0.0765068 21.8438
0.142665 -0.412995 21.6552
-0.0558121 -0.758018 22.0739
-3.82852 -1.86009 4.17699
0.00644876 -0.20132 1.11133
-0.0450314 0.0125058 0.639107
0.0910329 -0.0591187 0.314451
0.00394906 0.0511794 0.27332
0.100537 0.0748569 0.777935
-0.987192 0.149523 1.06724
-0.119324 0.62367 1.13871
-0.118518 -0.00927816 0.349816
-0.0141439 -0.114099 0.138945
-0.0178492 0.00846087 -0.00834521
0.00135324 -0.000373825 0.0517772
0.003773 -0.207642 1.15358
3.57675 -1.73481 3.90808
0.0455604 0.0122219 0.623164
-0.0112253 0.0544925 0.32967
-0.0835045 -0.0440376 0.296528
-0.0645006 0.0757637 0.650814
0.108083 0.560695 1.02034
0.398861 0.0590188 0.426521
0.144573 -0.00756665 0.418723
0.0159735 0.00594498 -0.00621888
0.0126409 -0.112167 0.139925
-0.00131079 -0.000436973 0.0511852
-0.0926243 -0.230644 2.68356
0.0540127 0.00681517 3.21251
0.0050682 -0.0137264 0.16606
0 0 0
-0.00706049 0.00850246 0.315318
-0.338936 0.0643187 3.48078
0 0 0
0.0302484 0.0086825 0.754907
-0.451773 -0.139889 0.344024
0 0 0
1.42312e-05 0.000117532 0.000753407
-0.0525455 0.0428373 0.0947869
0.00109502 0.00255009 0.0175377
0.0107812 0.0453073 0.193768
6.58004e-05 0.000176807 0.000569201
0.0036429 0.00216617 0.102819
0.0818393 -0.236223 2.70842
0 0 0
-0.055813 0.00628826 3.21306
-0.00555389 -0.0156018 0.175978
-0.0368352 -0.00814475 0.830483
0 0 0
0.324403 0.0477049 3.423
-2.28664e-18 -4.5017e-18 -4.11966e-17
0.453107 -0.138693 0.347651
0.0391698 0.0326458 0.0715344
0 0 0
0 0 0
-0.000600608 0.00131775 0.00914672
-0.00347111 0.00203969 0.0984296
-0.0111263 0.0468929 0.193527
-9.87216e-06 2.62778e-05 8.43819e-05
-0.0400512 -0.0462937 0.466172
-1.24993 -0.0650997 0.250433
1.28589e-07 2.32563e-08 2.34487e-05
0.0077185 -0.455268 0.298125
-0.00170723 0.00232769 0.0475828
0 0 0
0.00174455 -0.0167048 0.138309
0 0 0
0.00344787 0.0251197 0.221295
0 0 0
0 0 0
-9.6213e-19 1.33243e-17 5.71845e-17
0.0369639 4.60096 2.7843
5.72776e-05 0.000456034 0.00368513
0 0 0
-0.0325182 0.0038009 0.0620918
0.00516397 -0.0791225 0.0325436
0.000255055 -0.000393851 0.0369521
0.00225364 0.000299573 0.155111
0 0 0
1.2765 -0.0436169 0.244915
0.0428033 -0.0504038 0.474795
2.1752e-06 -1.25997e-07 -4.44703e-05
0.0016819 0.00239221 0.0489092
0 0 0
-0.001219 -0.01089 0.0882513
0 0 0
0 0 0
0.040972 0.00499217 0.078225
0 0 0
1.17932e-18 4.84476e-19 -7.82355e-17
-0.00276661 0.000359316 0.168586
-0.00040934 0.00297806 0.0517263
0 0 0
0 0 0
2.12402e-06 6.55702e-05 0.000884511
0.00126214 -0.0440686 0.169583
-1.31675e-07 -1.06941e-07 7.25391e-05
0.00016449 0.00183393 0.0115887
-0.042948 0.0498904 0.608189
-6.68445e-09 1.77743e-09 5.78135e-07
-1.53126e-06 8.76988e-06 0.000539827
0 0 0
-0.00757166 0.00768462 0.109978
7.12466e-07 -7.0406e-05 -8.32483e-05
-0.000625045 0.102428 0.400394
1.13419e-07 0.000214741 0.00444354
5.62136e-05 -0.000168709 0.0390052
0 0 0
0.000592718 0.00450037 0.0782539
0 0 0
0 0 0
-0.000342474 0.00451143 0.0255591
0.0449212 0.0559746 0.618847
0.00784817 0.00799081 0.113837
0 0 0
3.46331e-18 6.76068e-18 -8.83786e-17
-0.0502175 -0.024156 0.227984
0.0260436 0.00258846 0.368608
0 0 0
0.000224537 0.00087527 0.118026
0.000601653 0.00472951 0.0183512
5.84407e-05 0.0017714 0.0189081
0.00723441 0.028155 0.109032
0.000750081 -0.00155337 0.0678321