# vtk DataFile Version 2.0
tri_press
ASCII
DATASET UNSTRUCTURED_GRID
POINTS 3682 float
-0.759412 0.155 -1.785
-0.665 0.195 1.83516
-0.585 0.485 -1.78122
-0.625 0.644237 1.885
0.759404 0.155 -1.785
0.665136 0.195 1.835
0.585 0.485 -1.78122
0.635 0.644222 1.875
-0.752212 0.144063 -0.57828
-0.737913 0.140224 0.62844
-0.767533 0.707278 -0.559147
-0.763032 0.742523 0.662927
0.752253 0.144062 -0.578333
0.738004 0.140221 0.628333
0.768294 0.704702 -0.56248
0.762693 0.735507 0.65626
-1.52124 -0.150861 -2.76423
-1.50683 -0.0920801 -1.79361
-1.49937 -0.0963909 -0.586967
-1.46416 -0.112263 0.617172
-1.39979 -0.0860263 1.82362
-1.38477 -0.0745362 2.79324
-1.38992 -0.0692918 3.76483
-1.50619 0.0696269 -2.75758
-1.49289 0.153461 -1.78541
-1.50472 0.172411 -0.575841
-1.46119 0.154272 0.632804
-1.36744 0.16564 1.84208
-1.36342 0.175301 2.81158
-1.3788 0.18221 3.78251
-1.43315 0.480779 -2.74778
-1.38667 0.563729 -1.77591
-1.49784 0.714697 -0.555944
-1.47444 0.729685 0.665512
-1.35068 0.663468 1.88499
-1.35336 0.670765 2.85232
-1.37534 0.688628 3.81994
-1.39548 1.2451 -2.72237
-1.38356 1.34106 -1.74831
-1.42817 1.48201 -0.524578
-1.45871 1.54382 0.702417
-1.43958 1.52183 1.92565
-1.41961 1.50313 2.89865
-1.41082 1.50265 3.86836
-0.79386 -0.152556 -2.76401
-0.762918 -0.0909768 -1.79307
-0.752884 -0.111311 -0.588145
-0.741128 -0.121946 0.614035
-0.702283 -0.0722774 1.81889
-0.690609 -0.0669717 2.78927
-0.692557 -0.0679561 3.76167
-0.794755 0.0598672 -2.75797
-0.675032 0.182342 2.8074
-0.685028 0.182302 3.77938
-0.731864 0.445092 -2.75021
-0.665019 0.663325 2.84968
-0.682947 0.683261 3.8174
-0.673045 1.22277 -2.72516
-0.649462 1.32121 -1.75149
-0.689651 1.4782 -0.527447
-0.734447 1.54668 0.700308
-0.733256 1.51844 1.92406
-0.717767 1.49687 2.89704
-0.708174 1.49679 3.86661
0.679934 -0.153108 -2.76474
0.745324 -0.0912809 -1.79347
0.748652 -0.111665 -0.588648
0.724661 -0.122291 0.613363
0.67643 -0.0725347 1.81791
0.681667 -0.0674715 2.78676
0.693705 -0.0687625 3.75834
0.65115 0.0594306 -2.75853
0.674301 0.181955 2.80422
0.690342 0.181517 3.77556
0.613564 0.444546 -2.75092
0.665474 0.662696 2.84342
0.68686 0.68227 3.81244
0.742947 1.22133 -2.72707
0.777508 1.31945 -1.75377
0.779584 1.47559 -0.530826
0.731457 1.54349 0.695531
0.688572 1.51596 1.9184
0.685826 1.49496 2.89153
0.695692 1.49512 3.86159
1.42234 -0.152322 -2.76617
1.48421 -0.0933881 -1.79533
1.49763 -0.0981653 -0.589287
1.46131 -0.114088 0.613908
1.39615 -0.0871504 1.81938
1.3864 -0.0758961 2.78746
1.39689 -0.0710961 3.75804
1.39744 0.0682714 -2.75935
1.4782 0.152177 -1.78706
1.50662 0.170114 -0.578609
1.46975 0.15164 0.628445
1.38209 0.16476 1.83644
1.3743 0.174059 2.80454
1.39025 0.180412 3.77489
1.35303 0.479137 -2.7499
1.38856 0.561859 -1.7783
1.50895 0.710014 -0.561537
1.48403 0.722333 0.655814
1.36795 0.661169 1.87229
1.36418 0.668904 2.84129
1.38559 0.686416 3.81043
1.45719 1.2421 -2.72636
1.49123 1.33748 -1.75302
1.50865 1.47701 -0.53121
1.46822 1.53794 0.693379
1.41447 1.51704 1.91509
1.40054 1.4993 2.88821
1.40595 1.49926 3.85865
-0.624858 0.32 -1.73576
-3.99351e-06 0.148362 -1.79164
-0.761473 0.14387 -1.18164
-0.662076 0.419618 1.87716
6.79791e-05 0.288059 1.74202
-0.743372 0.125697 1.2318
0 0.562388 -1.85861
-0.774821 0.694694 -1.17018
0.005 0.693189 1.92896
-0.76378 0.763144 1.27396
0.624872 0.32 -1.73578
0.761489 0.14387 -1.18167
0.667588 0.419611 1.87252
0.743508 0.125673 1.23167
0.775308 0.693512 -1.17185
0.769609 0.760628 1.26563
-0.745117 0.142089 0.02508
-0.790625 0.425671 -0.568713
2.0457e-05 0.143655 -0.578307
-0.783358 0.441374 0.645683
4.54015e-05 0.142689 0.628387
-0.763403 0.723021 0.05189
0.000380791 0.846841 -0.560813
-0.000169679 1.10581 0.659593
0.745184 0.142086 0.025
0.789913 0.424382 -0.570407
0.782159 0.437864 0.642297
0.764905 0.719516 0.04689
-0.868522 0.372835 -1.17591
0.868526 0.372191 -1.17676
8.23175e-06 0.13792 -1.18165
0.000190395 0.761053 -1.17102
-1.99676e-06 0.32 -1.83036
-0.820942 0.433522 0.038485
0.809792 0.431123 0.035945
3.29292e-05 0.143149 0.02504
0.000105556 1.10958 0.04939
-0.897261 0.430496 1.25288
0.897315 0.428738 1.24865
5.66903e-05 0.122632 1.23173
0.00241516 0.983773 1.2698
0.00253399 0.419615 1.90577
-0.647856 0.2375 -1.7161
-0.379708 0.148412 -1.79159
-0.764585 0.145292 -1.48332
-0.66805 0.307309 1.86067
-0.332466 0.294766 1.73535
-0.708702 0.155832 1.53348
-0.55332 0.4025 -1.70688
-0.2925 0.545642 -1.84186
-0.699433 0.609369 -1.4757
-0.650374 0.531928 1.88791
-0.31 0.684207 1.92247
-0.710291 0.719592 1.57948
0.3797 0.148409 -1.79159
0.648263 0.2375 -1.71651
0.764592 0.14529 -1.48333
0.332602 0.295115 1.73492
0.670577 0.307305 1.85797
0.708881 0.155778 1.53333
0.2925 0.545743 -1.84196
0.553451 0.4025 -1.70701
0.699559 0.608661 -1.47653
0.32 0.685654 1.91893
0.658546 0.531917 1.88101
0.716538 0.716658 1.57032
-0.758337 0.142472 -0.87996
-0.748659 0.143081 -0.2766
-0.789199 0.275976 -0.573497
-0.37741 0.141231 -0.578293
-0.746456 0.127147 0.93012
-0.741546 0.141126 0.32676
-0.86836 0.236937 0.637062
-0.369794 0.139737 0.628413
-0.790276 0.720085 -0.864665
-0.786964 0.570417 -0.56393
-0.762531 0.712213 -0.253628
-0.403775 0.817458 -0.55998
-0.77195 0.761378 0.968445
-0.844039 0.627371 0.654305
-0.762174 0.731729 0.357408
-0.450907 1.06278 0.66126
0.75836 0.142477 -0.88
0.37745 0.141231 -0.57832
0.748716 0.143076 -0.276667
0.789188 0.275169 -0.57437
0.746568 0.127135 0.93
0.369884 0.139737 0.62836
0.741621 0.141127 0.326667
0.868443 0.234862 0.635315
0.791288 0.718593 -0.867165
0.404112 0.81532 -0.561647
0.786507 0.568244 -0.566443
0.765492 0.711001 -0.257795
0.777034 0.75895 0.960945
0.452273 1.06268 0.657927
0.844859 0.622902 0.649278
0.763315 0.727028 0.351575
-0.86353 0.346418 -1.45584
-0.31243 0.32 -1.80369
2.11912e-06 0.13835 -1.48665
-2.99513e-06 0.234181 -1.83064
-0.869673 0.258353 -1.17878
-0.380733 0.137978 -1.18165
-0.810579 0.425057 1.56502
-0.329771 0.419617 1.8371
6.23347e-05 0.138031 1.48688
0.00130098 0.353837 1.94832
-0.899568 0.278097 1.24234
-0.371657 0.122647 1.23177
9.51977e-05 0.703199 -1.51481
-9.98378e-07 0.441194 -1.94328
-0.866714 0.533764 -1.17305
-0.387315 0.760701 -1.1706
0.00370758 0.891096 1.59938
0.00376699 0.556402 1.97656
-0.882269 0.59682 1.26342
-0.380682 0.955342 1.27188
0.86311 0.346095 -1.45627
0.312435 0.32 -1.80367
0.869675 0.25803 -1.17921
0.380749 0.137977 -1.18166
0.812923 0.424174 1.56058
0.335061 0.419613 1.83685
0.8996 0.277205 1.24016
0.371782 0.122647 1.2317
0.866714 0.532851 -1.1743
0.387749 0.760542 -1.17143
0.88606 0.594683 1.25714
0.386012 0.951671 1.26771
-0.779362 0.289639 0.0317825
-0.373623 0.140456 0.02506
-0.868493 0.399253 -0.872313
-0.802826 0.429596 -0.265114
1.43444e-05 0.137554 -0.87998
2.66931e-05 0.143406 -0.276633
-0.78045 0.437448 0.342084
-0.897245 0.435935 0.949283
3.91654e-05 0.14292 0.326713
5.10459e-05 0.123096 0.93006
-0.77486 0.569615 0.0451875
-0.459363 1.07173 0.05064
0.000285593 0.791535 -0.865915
0.000243174 0.990139 -0.255712
-3.20613e-05 1.13039 0.354492
0.00112274 1.05576 0.964695
0.777866 0.286415 0.0304725
0.373689 0.140456 0.02502
0.86852 0.398286 -0.873583
0.80315 0.427752 -0.267231
0.783096 0.434494 0.339121
0.897265 0.433301 0.945473
0.776032 0.569662 0.0414175
0.460548 1.07063 0.04814
-0.862465 0.247926 -1.46958
-0.869772 0.27161 -0.876136
-0.846147 0.550119 -0.868489
-0.839131 0.468132 -1.46577
0.862662 0.247765 -1.4698
0.83869 0.467676 -1.4664
0.845984 0.548697 -0.870374
0.869759 0.271126 -0.876791
-0.38022 0.138416 -1.48498
0.380224 0.138416 -1.48499
0.378443 0.137599 -0.87999
-0.378414 0.1376 -0.87997
-0.339908 0.701005 -1.49526
-0.385446 0.788421 -0.86529
0.386043 0.78834 -0.86654
0.340125 0.70083 -1.49567
-0.346069 0.235841 -1.81282
-0.302465 0.421847 -1.88908
0.302468 0.421847 -1.88963
0.346068 0.235841 -1.81281
-0.784326 0.282785 -0.270857
-0.774459 0.287989 0.334422
-0.808169 0.597853 0.349746
-0.780537 0.569829 -0.259371
0.78465 0.280231 -0.271949
0.781898 0.569267 -0.262513
0.809807 0.595963 0.345348
0.773526 0.285453 0.332894
-0.375515 0.140847 -0.276617
0.375568 0.140848 -0.27665
0.371786 0.140097 0.32669
-0.371709 0.140097 0.326737
-0.437433 0.956321 -0.25467
-0.461506 1.08 0.35595
0.462674 1.07918 0.353033
0.438195 0.954706 -0.256753
-0.899489 0.284448 0.939701
-0.819894 0.292703 1.54925
-0.778165 0.564374 1.57225
-0.89125 0.594384 0.958864
0.899503 0.283124 0.937736
0.891729 0.590684 0.953209
0.779024 0.5633 1.56545
0.820903 0.292255 1.54696
-0.370296 0.123121 0.93009
0.370403 0.12312 0.93003
0.352192 0.146841 1.51011
-0.352062 0.146867 1.51018
-0.381142 1.0343 0.96657
-0.345341 0.878934 1.58943
0.353006 0.878506 1.58485
0.383637 1.03147 0.96282
-0.331118 0.330573 1.85127
0.333831 0.330571 1.85598
0.32753 0.544159 1.90747
-0.319885 0.544165 1.89538
-0.660941 0.19625 -1.70786
-0.56956 0.148518 -1.79148
-0.762926 0.149218 -1.63416
-0.668361 0.251155 1.84975
-0.498733 0.212045 1.81809
-0.680604 0.181663 1.68432
-0.595369 0.44375 -1.77026
-0.43875 0.52165 -1.81787
-0.636616 0.541585 -1.62846
-0.641896 0.588082 1.89067
-0.4675 0.672483 1.912
-0.672239 0.686508 1.73224
0.569552 0.148515 -1.79149
0.660902 0.19625 -1.70783
0.762924 0.149219 -1.63417
0.498869 0.207041 1.82298
0.6695 0.251153 1.84813
0.680692 0.181706 1.68417
0.43875 0.521634 -1.81785
0.595461 0.44375 -1.77035
0.636713 0.541264 -1.62888
0.4775 0.674365 1.90639
0.651053 0.588069 1.88229
0.679908 0.684579 1.72266
-0.756771 0.141771 -0.72912
-0.750436 0.143572 -0.42744
-0.857369 0.166688 -0.575888
-0.565241 0.141787 -0.578287
-0.747995 0.127875 0.77928
-0.739704 0.140701 0.4776
-0.875927 0.152185 0.632751
-0.553778 0.140132 0.628427
-0.781823 0.716601 -0.711906
-0.782289 0.641368 -0.561538
-0.762916 0.70763 -0.406388
-0.595941 0.782942 -0.559563
-0.76407 0.74853 0.815686
-0.797344 0.681851 0.658616
-0.761818 0.736341 0.510168
-0.598186 0.885084 0.662093
0.756803 0.141773 -0.729167
0.565282 0.141786 -0.578327
0.750485 0.143569 -0.4275
0.857338 0.166306 -0.576352
0.748088 0.127877 0.779167
0.553868 0.140131 0.628347
0.73979 0.140696 0.4775
[...]
POINT_DATA 3682
SCALARS point_scalars float 1
LOOKUP_TABLE default
49.1596
-33.8369
48.8377
-32.0188
48.7088
-33.8123
48.4254
-32.148
-31.9115
-27.712
-40.0917
-42.7916
-32.3
-27.436
-39.9393
-42.4721
38.931
-91.1408
-32.1948
-26.7746
-58.3067
-34.0309
-31.6596
38.931
-111.384
-32.1948
-27.1784
-59.159
-31.3437
-30.876
82.5403
-108.405
-42.689
-37.0305
-37.796
-31.2327
-30.1775
43.2857
-72.5517
-42.9576
-46.5388
-39.7421
-31.6272
-31.1184
95.0335
38.931
-32.1901
-27.7078
-33.5657
-34.0309
-29.4578
110.868
-29.4578
-29.4237
166.987
-29.4237
-29.4237
123.06
-34.0357
-32.0243
-62.5956
-34.5679
-29.8463
-29.4033
19.5118
38.2409
-32.6402
-27.4665
-33.4432
-33.99
-29.2712
19.5118
-29.3097
-29.2987
182.04
-29.2987
-29.2987
130.923
-33.2075
-33.7005
-62.9412
-34.4979
-30.4189
-29.3584
38.2409
-90.2238
-32.9667
-26.4632
-57.5906
-33.99
-31.6577
38.2409
-113.134
-32.9667
-26.8642
-59.5475
-31.6577
-30.6011
81.1617
-107.01
-43.9799
-37.1838
-38.0067
-31.5533
-30.011
39.5929
-82.317
-46.304
-43.4349
-39.8464
-32.3948
-31.0616
78.1842
-167.291
-55.211
-30.8101
-27.5559
-40.9671
28.8892
-72.0794
-29.1308
-51.7606
77.7495
-55.1199
-30.8584
-41.0194
-72.4657
-51.9191
-27.3175
-36.7098
-35.7379
-21.2514
-28.389
-40.4816
8.10458
-67.6341
-27.301
-36.8143
-20.7049
-40.5387
-73.2166
-73.2798
-57.923
-36.6744
196.594
-29.0552
-29.0788
-29.236
-91.0714
-50.8942
-50.8199
-37.1022
-43.1851
-23.974
75.7244
-173.506
-86.0237
-31.3392
-28.8107
-44.9933
91.6508
61.0478
-22.3673
-31.2364
-30.0065
-40.7864
-161.145
74.7174
-85.9818
-28.7353
-31.4659
-45.1337
63.859
90.8379
-22.1266
-29.9767
-31.4898
-41.1281
-40.8445
-28.3316
-36.2374
-34.5382
-36.5561
-26.9477
-22.6146
-28.1963
-55.4882
-37.6017
-39.028
-7.39788
-50.777
-34.5052
-40.0691
-61.6648
-40.5796
-34.4454
-28.3892
-36.5345
-36.529
-28.1316
-26.933
-22.3441
-55.5649
-7.62169
-37.5905
-39.0495
-50.5586
-62.1421
-34.8321
-40.3794
-135.385
185.208
-85.0479
190.115
-67.6862
-56.5468
-42.8399
-27.3948
-38.5644
-24.7372
-48.1118
-38.2808
-42.3269
198.802
-83.1647
-43.4705
-34.9996
-22.5812
-57.3899
-44.3842
-134.663
185.608
-67.672
-56.2492
-43.1199
-27.3362
-48.0799
-38.2919
-83.3895
-43.473
-57.1724
-44.4195
-28.8164
-28.743
-53.7442
-29.8467
-43.9659
-31.2696
-26.9437
-47.3834
-28.5884
-34.591
-32.5079
-81.4434
-16.3089
-5.60427
-85.4703
-53.7641
-28.4649
-28.699
-53.7016
-30.0826
-26.938
-47.2203
-32.7
-83.0309
-125.073
-50.4869
-57.3426
-76.1605
-123.031
-75.7242
-57.477
-50.4312
-81.9527
-81.4013
-42.6582
-42.814
-39.1577
-25.4606
-25.8133
-40.6418
174.895
184.15
185.092
179.152
-29.8995
-25.7762
-32.9991
-33.1468
-30.1481
-33.3898
-32.999
-25.8535
-30.5366
-30.4838
-28.1875
-28.2311
-18.2568
-68.2992
-68.3117
-17.8655
-44.4407
-44.9824
-41.4858
-47.2451
-44.0492
-47.118
-41.7583
-45.1443
-35.0452
-35.0357
-40.0006
-39.9737
-53.8285
-35.976
-36.0966
-53.9137
-28.6505
-28.4452
-27.6739
-27.4878
72.189
-68.0348
-118.448
-32.7849
-31.7251
-35.9748
70.0174
62.2627
0.37214
-31.601
-30.6727
-35.8723
-70.8497
71.3458
-118.636
-31.8346
-32.8948
-36.0227
62.0044
69.5882
-0.413059
-30.6576
-31.8128
-36.1769
-36.2404
-29.5999
-35.3975
-33.6917
-33.2743
-27.2018
-26.7292
-27.7874
-46.8852
-39.1461
-37.9984
-25.0184
-48.2228
-39.9264
-44.041
-51.0309
-36.1354
-33.5785
-29.6878
-33.3316
-33.4724
-27.7465
-27.1504
-26.5869
-46.9051
-25.5568
-38.9131
-37.7268
-47.6223
-51.0428
-39.8097
-43.9973
73.2637
91.9079
8.82463
141.186
-167.543
-166.808
-107.773
107.25
-67.64
-46.7755
-63.656
-56.1262
-30.8826
-31.0529
-35.8482
-28.8627
-28.1625
-28.1236
-32.8017
-27.4305
-47.0168
-37.8187
-45.6293
-39.5296
32.178
35.9814
-22.5869
130.736
-59.19
-64.5389
-88.9773
-51.7566
-29.4236
-29.4246
-31.8677
-24.5537
-46.2875
-53.1171
-54.717
-47.1025
72.6008
91.3116
8.54524
140.583
-67.5808
-46.6312
-63.5946
-55.8099
-30.9906
-31.1881
-35.9357
-28.7253
-47.1073
-37.8383
-45.602
-39.5708
-59.1379
-63.8226
-88.8046
-51.7803
-46.6079
-53.361
-54.9617
-47.1274
-27.6953
-27.1087
-26.5763
-28.2321
-36.7206
-36.9584
-45.2256
-32.1974
-35.4204
-35.4255
-39.7928
-33.0954
-18.014
-22.3714
-24.0119
-39.1348
-28.2258
-28.2218
-28.5925
-31.4716
-39.9946
-40.723
-35.2982
-56.2402
4.94575
4.61062
-4.73322
10.2988
-65.9946
-66.2407
-76.1419
-60.4623
-27.7008
-27.1079
-26.5145
-28.174
-36.8452
-37.0255
-45.3382
-32.29
-17.8361
-21.5667
-24.1332
-38.8422
-40.1632
-40.4572
-35.461
-56.4977
-95.335
-70.5349
-77.1211
-60.7138
-95.4185
-70.559
-77.2261
-60.7532
-69.4169
-57.5358
-57.5449
-49.7813
-42.9279
-38.233
-38.0416
-27.0905
192.052
191.036
196.872
192.237
-28.6382
-29.5195
-27.2535
-30.4414
-28.6605
-29.8645
-27.4854
-30.4644
-29.0983
-30.0109
-28.7842
-29.0855
-86.8121
-40.8895
-93.8474
-87.041
-55.5648
-49.5028
-53.1011
-48.6077
-55.5435
-49.4496
-52.9599
-48.5093
-38.2012
-37.4228
-37.4205
-35.9203
-38.5381
-43.4063
-43.4242
-47.9877
-26.4578
-24.8463
-22.3502
-26.4879
-82.3041
160.449
-105.453
130.34
-111.927
-82.4291
-36.6567
-29.6506
-33.9831
-28.6592
-45.7794
-42.1117
-2.24032
151.41
-26.4167
141.634
-13.3356
-36.0626
-35.8008
-28.3675
-32.8508
-27.9989
-41.165
-38.0119
-103.719
146.27
-87.2929
158.998
-110.367
-82.1845
-33.9292
-28.5807
-36.7111
-29.9005
-45.7268
-42.2345
-27.002
144.729
-2.51042
151.28
-13.1468
-36.2787
-32.889
-27.9974
-35.9571
-28.2988
-41.3243
-38.2314
-47.3988
-42.0014
-27.159
-29.7155
-45.8736
-31.8347
-38.9605
-32.2193
-40.7098
-35.6299
-25.0123
-27.8194
-22.7087
-33.2908
-28.2901
-31.5241
-57.7907
-37.353
-44.9481
-34.1455
-35.2665
-55.2925
-15.9569
-4.8787
-48.604
-53.6885
-34.0775
-41.4183
-34.0515
-51.8631
-64.717
-58.6561
-47.2444
-41.7538
-38.8596
-32.1543
-27.3051
-29.6783
-46.1717
-32.0078
-40.3072
-35.6341
-28.243
-31.4819
-25.4522
-27.7635
-22.9824
-33.3954
-57.8482
-37.3366
-16.2813
-4.84814
-44.9892
-34.1786
-35.3795
-54.7793
-48.1706
-54.0316
-64.7448
-58.7204
-33.4554
-41.0933
-33.9757
-51.7634
-132.299
-126.207
178.962
180.143
-84.2369
-84.2566
192.556
192.747
-88.5264
-56.7447
-67.7356
-48.481
-42.8081
-41.9064
-27.4125
-27.5101
-38.8189
-38.8433
-26.8807
-26.8395
-45.5716
-55.2929
-36.6238
-40.3068
-42.5847
-41.997
203.578
204.449
-65.3238
-113.252
-45.1672
-34.7822
-35.2595
-35.2994
-25.395
-25.4751
-49.6154
-52.4167
-48.9426
-39.9897
-131.307
-125.922
180.697
180.606
-88.4873
-56.7085
-67.3285
-48.2708
-42.1897
-42.913
-27.3423
-27.5778
-45.5298
-55.1647
-36.621
-40.3419
-113.37
-65.4475
-34.8873
-45.2492
-52.4671
-50.106
-40.1018
-48.8829
-29.0008
-28.0985
-29.4206
-28.3706
-52.0041
-55.8366
-29.7516
-31.1039
-43.638
-43.6381
-31.062
-31.0598
-26.0723
-28.3717
-46.1397
-48.106
-28.4816
-28.4924
-34.7202
-34.7114
-33.7303
-32.773
-56.2151
-75.1529
-18.5264
-18.7774
-5.63372
-5.68739
-82.4665
-82.5093
-53.8908
-53.8821
-29.2631
-27.8421
-29.374
-28.3279
-55.8601
-52.0183
-29.9287
-31.3379
-27.8999
-26.0168
-45.9275
-47.7612
-33.0036
-33.8635
-75.204
-55.1967
-85.432
-83.7018
-91.9909
-27.1558
-44.5814
-45.4999
-58.9269
-53.7095
-46.8043
-70.1985
-62.9691
-44.4988
-7.06249
5.18821
-104.119
-92.1555
-87.066
-31.0937
-92.0154
-83.6077
-7.16019
-92.3778
-104.269
4.56378
-46.8697
-44.5823
-63.0548
-71.224
-42.286
-53.6283
-58.93
-45.5077
-119.338
-107.197
-68.9523
-67.7432
-118.931
-67.3991
-68.9615
-106.997
-37.9182
-39.5708
-49.4179
-47.4913
-38.0801
-47.7792
-49.411
-39.5922
-17.3284
-48.2785
-43.132
-25.3568
-30.5382
-7.80845
-29.4417
-44.3253
-30.5678
-44.6642
-29.3498
-7.53313
-17.0483
-26.0348
-43.7612
-48.3512
78.404
152.641
190.03
135.008
150.202
140.157
192.768
145.118
149.523
144.668
192.967
137.935
73.2686
134.93
190.223
152.489
-28.8112
-26.7291
-29.1899
-31.316
-23.8695
-22.8497
-27.6754
-26.8206
-38.5212
-34.9653
-28.9791
-26.6568
-35.6263
-33.1052
-30.9871
-35.3386
-28.9065
-31.5691
-29.3664
-26.8343
-35.6728
-35.4807
-31.1836
-33.2189
-38.6702
-26.2983
-29.462
-35.0467
-24.3149
-26.603
-27.7271
-22.8935
-31.2902
-32.839
-29.84
-28.7665
-31.2179
-28.7112
-29.835
-32.84
-27.8761
-28.488
-28.6593
-27.8509
-27.9398
-27.9056
-28.6681
-28.4991
-33.5765
-57.7939
-42.0744
7.80147
-50.8056
-73.8675
-91.3978
-53.4517
-50.7767
-53.496
-91.52
-74.027
-33.643
7.85297
-41.5747
-58.0225
-32.8244
-42.3918
-47.1771
-36.6827
-38.6611
-36.1006
-55.487
-55.4818
-35.8745
-47.6948
-53.9475
-35.753
-42.8527
-40.3621
-50.1335
-55.8452
-32.7024
-36.3244
-47.1033
-42.3944
-42.0894
-56.5384
-49.9846
-40.2358
-36.0502
-35.8731
-54.2847
-48.0645
-38.5317
-55.4813
-55.3123
-36.1579
-31.6338
-31.5363
-36.109
-37.352
-31.5427
-37.3652
-36.1044
-31.5249
-35.3046
-33.1371
-38.5046
-42.9285
-35.206
-42.8238
-38.6743
-33.1708
-52.7656
-50.7337
-48.1373
-59.7837
-34.9297
-31.8961
-38.8353
-42.2388
-34.9082
-42.4202
-38.8978
-31.955
-52.7485
-59.8792
-48.1091
-50.847
-30.6829
-28.0979
-26.391
-29.142
-29.9468
-28.8794
-26.2235
-28.0628
-29.2886
-26.2304
-24.9222
-28.3343
-29.3627
-28.4431
-24.8611
-26.3003
53.3804
38.931
-102.415
-33.4493
-32.4127
-33.8436
61.4642
53.975
14.9779
-31.9027
-31.1424
-33.6126
38.2409
52.8303
-102.752
-32.4407
-33.464
-33.7232
53.6934
61.1519
13.2679
-31.2393
-32.0897
-33.8337
-34.6289
-30.5227
-32.8996
-33.0199
-28.2965
-27.5664
-27.4896
-27.524
-43.4996
-39.6361
-38.3314
-35.8414
-44.8815
-41.0071
-42.2558
-49.0186
-34.6384
-33.0019
-30.8253
-33.0292
-28.4704
-27.5099
-27.474
-27.3286
-43.584
-35.9376
-39.4309
-37.9511
-44.597
-48.9349
-40.839
-42.2786
75.2594
82.6391
37.1805
115.093
-169.493
-168.938
-130.004
9.8855
-60.675
-50.5654
-60.7728
-55.2915
-30.6272
-30.9218
-33.2455
-29.1318
-27.7626
-27.7357
-30.4683
-27.4105
-43.2349
-39.2206
-44.0042
-40.2168
28.9857
29.7449
3.47343
67.2951
-66.6777
-69.4845
-80.7141
-58.5063
-29.247
-29.2427
-30.2085
-28.8707
-49.0532
-52.7924
-53.2187
-48.5104
74.7435
80.7554
36.6696
114.295
-60.6031
-50.4526
-60.7023
-55.1384
-30.8523
-30.9675
-33.3314
-29.1269
-43.3017
-39.2541
-44.0189
-40.2654
-67.2552
-69.9838
-80.7439
-59.6164
-49.4505
-53.136
-53.4959
-48.7183
-27.4505
-27.1661
-26.6445
-27.7894
-36.6275
-36.8053
-40.1508
-34.0967
-35.6367
-35.6464
-37.7308
-34.2559
-19.9344
-22.399
-23.3126
-25.1389
-28.3552
-28.3598
-28.6237
-28.7357
-40.2012
-40.7
-37.4294
-48.614
7.42424
7.23066
1.57258
11.2128
-66.7994
-66.8953
-72.0342
-63.1776
-27.429
-27.1636
-26.5659
-27.7515
-36.7222
-36.8749
-40.2603
-34.1901
-19.9759
-21.7489
-22.8792
-22.8724
-40.4564
-40.5354
-37.5472
-48.7081
-82.3394
-71.9077
-75.2327
-66.0042
-82.4072
-71.9466
-75.302
-66.057
-63.2133
-57.6763
-57.6941
-53.5235
-41.0451
-37.2639
-37.118
-32.0526
194.722
193.421
197.151
194.817
-28.7292
-28.3032
-29.1303
-29.5504
-28.9474
-29.2588
-28.8053
-29.1591
-29.1879
-29.592
-28.9653
-29.1885
-89.9516
-72.2827
-95.3998
-89.9405
-53.2983
-50.228
-51.7374
-49.6884
-52.9804
-50.1663
-51.6735
-49.601
-37.5906
-37.2109
-37.2099
-36.5078
-40.7913
-43.0974
-43.1036
-45.2864
-24.8361
-28.0703
-23.1818
-24.8428
76.7289
70.1826
43.6077
95.3096
-152.455
-164.331
-129.229
30.2193
-107.921
-76.1011
-95.8
-83.6671
-31.6771
-31.0814
-34.1914
-30.0473
-29.8057
-28.7426
-31.9573
-28.6035
-38.676
-49.6492
-47.6981
-43.4113
76.1615
91.6834
9.60943
129.505
68.4069
41.0412
6.6786
62.4822
-2.37849
-44.4937
-17.1489
-34.8715
-31.425
-31.1005
-33.3682
-29.5652
-30.2888
-29.6915
-30.7739
-28.8394
-38.176
-43.3414
-41.1363
-39.3924
-147.514
-164.134
-125.954
40.9122
75.6497
69.5825
44.5613
92.9231
-108.088
-76.0639
-94.8577
-83.667
-29.5797
-28.6943
-31.8851
-28.5308
-31.677
-31.1779
-34.2446
-29.8772
-38.7564
-49.7495
-47.6486
-43.5564
68.3737
47.6573
4.40041
62.8429
75.4959
91.0052
9.35096
128.917
-2.44864
-44.4178
-16.8888
-34.6536
-30.2777
-29.6881
-30.8619
-28.8822
-31.6301
-31.3743
-33.493
-29.5497
-38.4729
-43.6646
-41.3697
-39.7056
-39.0428
-43.4491
-43.4521
-41.3381
-28.8641
-28.0119
-26.9038
-29.0883
-36.964
-36.3101
-39.7723
-33.76
-34.0817
-35.0782
-36.6322
-33.3274
-35.83
-36.6399
-39.5466
-35.951
-27.0392
-27.0081
-26.3122
-27.47
-25.3659
-19.1649
-19.7165
-27.4738
-28.0859
-28.1219
-28.3547
-28.3372
-49.8966
-59.4894
-58.3797
-44.7986
-38.1774
-37.2531
-40.8514
-35.5103
-38.369
-39.499
-37.0898
-47.5673
-15.3701
0.824647
-10.6947
-3.62872
-49.9501
-52.021
-49.5189
-51.5242
-37.6989
-28.1796
-34.4336
-39.2468
-43.8447
-40.4446
-35.6767
-47.8827
-55.5213
-64.5661
-63.9801
-59.6095
-38.6701
-43.2608
-43.2414
-41.1106
-33.9441
-35.0501
-36.5352
-33.2537
-28.9445
-28.0469
-27.1222
-29.0774
-36.4701
-36.5041
-39.7269
-33.9173
-35.748
-36.6396
-39.3407
-35.948
-28.0036
-28.0903
-28.302
-28.2586
-27.0232
-26.9663
-26.177
-27.4276
-25.1759
-18.6166
-19.5059
-26.9593
-50.2461
-59.5768
-58.5332
-44.5205
-15.8948
0.284885
-11.2824
-3.76706
-38.13
-37.2524
-40.8889
-35.4243
-38.2941
-39.6057
-37.1631
-47.4893
-48.6629
-52.1804
-49.3509
-51.9333
-55.4903
-65.0059
-64.1758
-60.8362
-37.5655
-28.8668
-33.9645
-39.3629
-43.453
-40.2503
-35.5726
-47.5856
-104.136
-114.764
-135.775
-131.931
164.835
191.641
181.947
181.115
-94.7927
-76.8311
-84.8671
-84.8567
181.147
189.661
191.86
191.814
-66.1772
-69.2045
-76.005
-61.4408
-56.0681
-56.7518
-61.7397
-52.186
-38.9004
-49.1926
-42.3044
-42.2139
-28.3306
-26.7959
-27.3366
-27.4138
-35.6931
-38.9767
-38.5008
-38.5202
-27.9184
-24.3225
-25.4834
-25.472
-47.4467
-48.9098
-46.6254
-50.7874
-38.8924
-37.7703
-37.4572
-39.1754
-35.0742
-42.7727
-43.3118
-42.6221
187.34
193.931
202.177
202.099
-86.7703
-79.4228
-72.2315
-95.6191
-47.6315
-40.6958
-45.4479
-39.3344
-33.4684
-36.814
-35.0879
-35.1009
-23.125
-22.2737
-22.9717
-22.9604
-56.6635
-55.2959
-55.4523
-55.8296
-45.7809
-43.5599
-46.6441
-42.0322
-105.948
-114.494
-134.645
-131.392
164.657
192.024
181.594
182.956
-66.1464
-69.2041
-75.9935
-61.4168
-55.7357
-56.742
-61.3953
-51.9391
-39.0378
-49.4047
-42.6316
-42.55
-28.2655
-26.8049
-27.2814
-27.3631
-47.4157
-48.8599
-46.588
-50.7661
-38.9201
-37.7716
-37.4169
-39.1972
-86.7522
-79.5687
-95.6529
-72.4625
-47.6413
-40.6061
-39.4147
-45.3379
-56.8364
-54.9686
-55.4844
-56.3816
-45.6382
-43.591
-42.1028
-46.5962
-27.6817
-28.6529
-29.0153
-28.6178
-28.5065
-28.9507
-29.039
-28.5102
-51.2839
-56.7767
-52.829
-54.7683
-30.7836
-29.9689
-29.4491
-30.6125
-41.6931
-46.6326
-43.8646
-43.8539
-32.1009
-30.5883
-31.2377
-31.2431
-25.1219
-26.8278
-26.454
-27.255
-43.7839
-47.7849
-46.7666
-47.8913
-28.5616
-28.6518
-28.562
-28.5652
-33.7794
-35.2939
-34.6526
-34.6457
-33.7681
-31.4311
-33.8174
-32.6172
-71.9134
-85.5104
-73.3047
-80.9955
-11.2182
-22.0462
-16.8183
-16.9328
5.41587
-20.612
-5.32161
-5.31052
-80.8678
-89.7565
-84.774
-84.8045
-57.4804
-50.6539
-53.8139
-53.7982
-27.7795
-28.528
-28.977
-28.3659
-28.4462
-28.9289
-28.993
-28.4672
-51.3037
-56.7936
-54.7411
-52.8444
-30.9465
-30.2005
-29.7049
-30.8115
-25.3203
-27.3186
-26.9842
-26.3795
-43.5075
-47.647
-46.5793
-47.7102
-33.974
-31.5714
-32.8259
-33.8843
-72.2566
-85.4749
-80.958
-72.2169
-120.869
-117.794
-128.979
-105.902
-49.584
-49.9983
-53.1075
-51.3634
-57.3077
-51.246
-61.6433
-56.7598
-6.1928
-34.273
-98.3316
-114.88
-123.463
-116.4
-127.384
-105.447
-6.2054
-33.9683
-98.3224
-114.957
-57.4794
-51.4687
-61.743
-56.8856
-49.4901
-49.9327
-53.0595
-51.3456
-91.3791
-81.6142
-82.8795
-74.8559
-90.5543
-80.8016
-82.8862
-74.3957
-42.1868
-40.5167
-45.1897
-43.1699
-42.4261
-40.6472
-45.3712
-43.2238
-33.1134
-36.5428
-40.8012
-42.968
-31.0893
-20.9567
-30.2282
-21.4473
-31.3198
-21.0549
-30.4731
-21.6941
-33.4141
-38.0675
-40.9792
-43.0834
171.136
168.976
175.915
188.731
170.582
180.113
178.108
196.628
181.441
170.996
196.195
178.712
175.209
173.392
189.398
179.09
-29.1764
-30.7115
-29.3727
-29.7075
-26.0563
-24.3644
-26.8055
-25.7068
-33.0401
-34.2871
-30.3069
-32.7833
-33.4575
-34.1662
-32.1275
-32.9292
-29.129
-30.8632
-29.6466
-29.9442
-33.605
-34.3572
-32.3389
-33.1853
-32.9101
-34.234
-30.4693
-32.9108
-26.4923
-24.6098
-26.9654
-25.8545
-30.167
-31.3049
-29.9302
-30.815
-31.2472
-30.0948
-30.7937
-29.8803
-28.1943
-28.0012
-28.3606
-28.2246
-28.0577
-28.2384
-28.2669
-28.3853
-39.6144
-9.4054
-32.2183
-8.26065
-57.4721
-66.4007
-71.0937
-77.5463
-66.4639
-57.3858
-77.5161
-71.0902
-9.26682
-39.0951
-8.14456
-31.7812
-43.0324
-40.6731
-44.9223
-45.2068
-40.089
-44.8113
-43.3221
-54.2545
-38.4583
-41.2329
-41.7084
-45.0983
-47.9527
-42.9907
-50.541
-47.5316
-42.5984
-40.2781
-44.8891
-44.9025
-47.736
-42.5042
-50.1767
-47.2407
-38.6484
-41.4535
-41.996
-45.4085
-40.116
-44.9071
-43.5239
-54.5008
-35.3129
-34.1461
-35.8637
-34.8718
-35.3106
-34.0659
-35.8574
-34.8611
-36.8577
-41.0034
-39.367
-42.0764
-36.8626
-40.9238
-39.3752
-42.0253
-53.7196
-57.3405
-51.5659
-53.8109
-34.1463
-36.7555
-35.4873
-37.9122
-34.2493
-36.9259
-35.5804
-38.0235
-54.3528
-56.8918
-51.5118
-53.8164
-28.2869
-28.7143
-27.9782
-28.6751
-28.6331
-28.1913
-28.6336
-27.8523
-27.2052
-28.4521
-27.0766
-27.6674
-28.322
-27.2339
-27.4665
-27.3109
2.46876
25.8674
-154.621
31.4875
-111.548
-127.628
-35.8397
-30.8925
-33.4598
-31.7329
-38.747
-35.5162
21.3977
120.612
6.23346
85.1725
-2.13897
-0.436456
-33.5917
-30.1977
-31.8871
-29.8668
-35.7952
-35.6347
-154.914
47.354
2.41042
24.8268
-112.013
-127.639
-33.525
-31.7471
-35.8676
-31.2415
-38.6124
-35.7502
6.0629
84.656
21.4483
120.403
-2.58918
0.180932
-32.1969
-29.9215
-33.7278
-30.1999
-36.0732
-35.9084
-38.3565
-37.5373
-28.684
-30.5327
-32.3897
-29.7416
-35.9256
-32.3428
-35.0092
-31.865
-26.1782
-27.648
-24.4916
-27.2981
-28.0407
-28.374
-47.9879
-39.7025
-42.5646
-36.6143
-36.7544
-43.0757
-27.0689
-24.2123
-45.3454
-49.4487
-40.3324
-40.3663
-41.1809
-47.8331
-50.6395
-51.297
-37.2484
-37.3743
-35.7964
-32.2338
-28.8221
-30.5329
-35.0091
-31.4455
-34.952
-31.7849
-27.9767
-28.2486
-26.2864
-27.5896
-24.3922
-27.2345
-48.1206
-40.175
-27.8244
-24.4925
-42.7399
-36.4747
-36.6915
-42.4562
-44.8812
-49.1038
-50.7512
-51.2276
-40.3706
-40.276
-41.4474
-47.4333
48.5466
125.318
17.0817
120.33
-11.5074
11.5572
144.681
141.173
-129.448
21.5816
-129.034
21.5037
-107.646
-107.521
117.015
117.733
-79.8362
-67.2179
-51.3553
-47.0697
-71.5429
-58.0852
-61.5352
-51.6036
-33.418
-29.1898
-33.2367
-29.2654
-35.9213
-35.784
-29.0443
-28.5068
-30.9517
-28.0718
-30.9105
-28.0402
-32.8605
-32.8803
-27.6646
-27.6474
-53.7791
-44.4844
-40.6034
-37.6517
-43.9173
-48.9845
-38.3557
-40.9212
5.25403
74.2011
4.18096
76.1003
-23.7441
-24.9462
140.151
140.054
-68.9524
-51.4728
-69.0431
-52.1801
-82.2945
-89.7791
-51.4088
-48.6775
-30.2445
-28.219
-30.3231
-28.2805
-31.8182
-31.7914
-25.5747
-25.8348
-47.1933
-43.7178
-54.5381
-51.4834
-51.0802
-56.6254
-49.2035
-44.5498
48.1351
123.695
15.8612
119.542
-12.6389
11.8333
140.512
143.978
-79.7294
-67.1171
-51.2501
-46.8729
-71.4931
-58.0149
-61.2211
-51.3001
-33.5164
-29.3102
-33.3432
-29.4153
-35.8873
-35.9912
-28.87
-28.3824
-53.742
-44.5921
-40.6022
-37.6684
-43.874
-48.9614
-38.3803
-40.9876
-69.112
-51.1143
-70.0601
-52.7675
-89.7147
-82.6446
-49.4122
-51.3652
-47.5371
-43.9713
-54.5376
-51.6041
-56.9011
-51.5141
-44.6806
-49.1957
-26.8667
-28.2572
-26.7509
-27.544
-26.653
-26.7592
-28.4375
-28.0027
-40.125
-33.6787
-40.2432
-34.715
-45.5778
-45.0761
-31.742
-32.6585
-37.508
-33.9655
-37.4946
-33.9683
-39.7516
-39.7566
-32.9953
-33.0031
-20.4001
-24.7626
-26.197
-31.6072
-23.4211
-23.6676
-38.1688
-39.7476
-28.5045
-28.512
-28.4938
-28.51
-28.5728
-28.5745
-31.6275
-31.6241
-37.3429
-48.2634
-37.3259
-47.9484
-35.2259
-35.289
-57.0032
-54.9138
-1.56467
8.40841
-1.61263
8.3671
-5.47216
-5.51232
9.71786
9.77084
-70.1415
-62.1835
-70.3314
-62.4373
-75.5868
-75.6883
-60.1589
-60.1884
-27.0482
-28.2295
-26.8185
-27.5088
-26.6671
-26.6277
-28.3792
-27.9469
-40.3513
-33.819
-40.3106
-34.7367
-45.2134
-45.7073
-31.8886
-32.7725
-20.3298
-24.1223
-24.2226
-31.1181
-23.796
-23.531
-37.6185
-39.4114
-37.4573
-48.4714
-37.3273
-47.9522
-35.4463
-35.2701
-55.0562
-57.1471
-93.4802
-98.8853
-79.2242
-63.8743
-68.9553
-87.4168
-59.9471
-61.9295
-93.526
-98.995
-79.2534
-63.8866
-87.533
-69.0584
-61.9944
-59.9724
-69.2733
-69.2809
-62.8141
-53.143
-62.8226
-53.1518
-49.6658
-49.6502
-42.5531
-43.3394
-42.0924
-33.8938
-34.1653
-41.331
-27.7337
-27.7888
190.421
193.835
190.207
190.303
195.297
195.372
194.026
190.611
-28.5609
-28.2063
-29.282
-29.8282
-27.4619
-27.4591