# vtk DataFile Version 2.0
tet_velo
ASCII
DATASET UNSTRUCTURED_GRID
POINTS 29498 float
-0.817485 0.415 -2.225
-0.805 0.505 2.33772
-0.805 0.705 -2.18116
-0.785 0.875 2.30409
0.817487 0.415 -2.225
0.834788 0.505 2.335
0.805 0.705 -2.18116
0.815 0.875 2.30385
-0.867982 0.390342 -0.704093
-0.872742 0.411419 0.816813
-0.823017 0.78635 -0.686077
-0.814783 0.84145 0.809007
0.868086 0.400168 -0.705
0.872493 0.431528 0.815
0.824379 0.777712 -0.686157
0.817436 0.824102 0.808847
-1.65671 0.195904 -3.43848
-1.6608 0.219265 -2.23223
-1.69714 0.207049 -0.710715
-1.70676 0.220252 0.816037
-1.66823 0.287643 2.33799
-1.64874 0.339173 3.54638
-1.64209 0.381391 4.75077
-1.65324 0.370796 -3.42571
-1.6538 0.405412 -2.22228
-1.69602 0.400456 -0.705674
-1.70087 0.41683 0.813334
-1.64932 0.485605 2.33044
-1.63521 0.53599 3.53849
-1.63378 0.577055 4.74369
-1.64677 0.69585 -3.39301
-1.63833 0.73097 -2.1886
-1.66083 0.787979 -0.689577
-1.65706 0.831095 0.807703
-1.62427 0.87234 2.30727
-1.6203 0.919883 3.51677
-1.6239 0.962595 4.72636
-1.65361 1.22453 -3.36294
-1.65031 1.26774 -2.16228
-1.65341 1.33842 -0.671623
-1.65067 1.40517 0.813606
-1.63869 1.45815 2.30466
-1.63126 1.49732 3.50615
-1.62762 1.53642 4.71297
-0.82603 0.201698 -3.44028
-0.819779 0.227307 -2.23487
-0.852824 0.204873 -0.710751
-0.867126 0.21913 0.818711
-0.833074 0.297488 2.34297
-0.816593 0.34707 3.5496
-0.810977 0.386596 4.75241
-0.827229 0.373202 -3.42634
-0.805525 0.544502 3.54115
-0.804557 0.582296 4.74485
-0.823897 0.686604 -3.38997
-0.795185 0.923912 3.5159
-0.797523 0.966234 4.72583
-0.82752 1.21707 -3.35997
-0.82301 1.25988 -2.15902
-0.825236 1.33497 -0.669753
-0.823824 1.4058 0.813103
-0.813307 1.4599 2.30258
-0.805646 1.49908 3.50403
-0.800854 1.53823 4.71131
0.82545 0.202145 -3.4405
0.840987 0.22911 -2.23513
0.864443 0.213063 -0.711617
0.856377 0.233228 0.817113
0.834554 0.302377 2.34082
0.840834 0.350318 3.54787
0.847764 0.389588 4.75105
0.813998 0.37307 -3.42646
0.840129 0.546513 3.53946
0.84839 0.584717 4.74354
0.806736 0.685735 -3.39006
0.834854 0.924634 3.51499
0.84802 0.967542 4.72481
0.81814 1.21475 -3.36021
0.82306 1.25656 -2.15925
0.825634 1.32985 -0.670054
0.825652 1.4002 0.812699
0.831345 1.45675 2.30206
0.840119 1.49783 3.50338
0.849087 1.53805 4.71055
1.65413 0.196667 -3.43902
1.66979 0.222016 -2.23291
1.70189 0.21738 -0.712221
1.70256 0.238357 0.81343
1.67889 0.299086 2.33465
1.67498 0.346581 3.54336
1.67946 0.387496 4.74818
1.64157 0.37027 -3.42609
1.65128 0.405233 -2.22268
1.69499 0.407079 -0.706963
1.70289 0.433 0.810898
1.67602 0.495251 2.32716
1.67144 0.54178 3.53558
1.67803 0.582161 4.7412
1.63079 0.693399 -3.39331
1.63348 0.726733 -2.18881
1.65958 0.778881 -0.690155
1.66212 0.821556 0.806613
1.65468 0.8744 2.30577
1.66221 0.922348 3.51487
1.67474 0.965459 4.72434
1.64244 1.22006 -3.36346
1.64739 1.26156 -2.16282
1.6528 1.3296 -0.6723
1.65421 1.39608 0.812711
1.65826 1.45303 2.30353
1.66625 1.49529 3.50479
1.67581 1.53623 4.71143
-0.813277 0.56 -2.20511
1.01328e-06 0.369226 -2.27077
-0.888126 0.357279 -1.46455
-0.806512 0.69 2.33242
0.014894 0.476194 2.36517
-0.887264 0.409817 1.57727
0 0.7676 -2.24376
-0.822951 0.754618 -1.43362
0.015 0.881928 2.3109
-0.808949 0.867282 1.55655
0.813593 0.56 -2.20543
0.888063 0.362307 -1.465
0.835676 0.69 2.33021
0.888067 0.433837 1.575
0.824117 0.750784 -1.43366
0.815864 0.849198 1.55635
-0.867813 0.40343 0.05636
-0.854122 0.588346 -0.695085
5.22259e-05 0.290581 -0.704547
-0.847081 0.626434 0.81291
-0.000124851 0.290593 0.815907
-0.818896 0.813896 0.061465
0.000680703 0.980721 -0.686117
0.00132633 1.30903 0.808927
0.867813 0.418324 0.0550001
0.853999 0.58894 -0.695578
0.846892 0.627815 0.811923
0.820863 0.800863 0.061345
-0.886888 0.574173 -1.44908
-0.849653 0.60739 0.0589125
-0.885252 0.658217 1.56691
2.66196e-05 0.290535 -1.46477
-3.63126e-05 0.290585 0.05568
0.00738458 0.254242 1.57613
5.06639e-07 0.56 -2.42283
0.014947 0.69 2.44613
0.000340352 0.876761 -1.43364
0.00100352 1.30212 0.061405
0.00816316 0.952573 1.55645
0.88685 0.57447 -1.44933
0.8495 0.608378 0.0581725
0.885232 0.658908 1.56567
-1.23564 0.410206 -2.22364
-0.818632 0.321153 -2.22993
-0.822357 0.394101 -2.82567
-1.22716 0.495303 2.33408
-0.819037 0.401244 2.34034
-0.805262 0.524751 2.93944
-1.22167 0.717985 -2.18488
-0.814449 0.695802 -2.78556
-0.814005 0.98244 -2.17009
-1.20464 0.87367 2.30568
-0.790093 0.899456 2.90999
-0.799154 1.16745 2.30334
0.829237 0.322055 -2.23006
0.815742 0.394035 -2.82573
1.23439 0.410117 -2.22384
0.834671 0.403689 2.33791
0.837459 0.525756 2.93723
1.2554 0.500125 2.33108
0.805868 0.695368 -2.78561
0.81403 0.98078 -2.17021
1.21924 0.715867 -2.18499
0.824927 0.899817 2.90942
0.823173 1.16587 2.30295
1.23484 0.8747 2.30481
-1.282 0.395399 -0.704884
-0.860403 0.297607 -0.707422
-1.28681 0.414124 0.815074
-0.869934 0.315275 0.817762
-1.24193 0.787165 -0.687827
-0.824126 1.06066 -0.677915
-1.23592 0.836272 0.808355
-0.819303 1.12362 0.811055
0.866265 0.306616 -0.708309
1.28154 0.403623 -0.705981
0.864435 0.332378 0.816057
1.28769 0.432264 0.812949
0.825006 1.05378 -0.678105
1.24198 0.778296 -0.688156
0.821544 1.11215 0.810773
1.23978 0.822829 0.80773
-1.65875 0.207584 -2.83535
-1.65498 0.28335 -3.43209
-1.24137 0.198801 -3.43938
-1.67897 0.213157 -1.47147
-1.6573 0.312338 -2.22726
-1.24029 0.223286 -2.23355
-1.70195 0.213651 0.052661
-1.69658 0.303752 -0.708194
-1.27498 0.205961 -0.710733
-1.68749 0.253948 1.57701
-1.70381 0.318541 0.814685
-1.28694 0.219691 0.817374
-1.65848 0.313408 2.94219
-1.65878 0.386624 2.33422
-1.25065 0.292566 2.34048
-1.64542 0.360282 4.14857
-1.64198 0.437581 3.54243
-1.23267 0.343121 3.54799
-1.63793 0.479223 4.74723
-1.22653 0.383993 4.75159
-1.65352 0.388104 -2.82399
-1.65001 0.533323 -3.40936
-1.24023 0.371999 -3.42602
-1.67491 0.402934 -1.46398
-1.64607 0.568191 -2.20544
-1.69844 0.408643 0.05383
-1.67843 0.594217 -0.697626
-1.6751 0.451217 1.57189
-1.67896 0.623962 0.810518
-1.64227 0.510797 2.93446
-1.6368 0.678973 2.31886
-1.6345 0.556522 4.14109
-1.62776 0.727936 3.52763
-1.22037 0.540246 3.53982
-1.62884 0.769825 4.73502
-1.21917 0.579675 4.74427
-1.64255 0.71341 -2.7908
-1.65019 0.96019 -3.37797
-1.23533 0.691227 -3.39149
-1.64958 0.759475 -1.43909
-1.64432 0.999357 -2.17544
-1.65895 0.809537 0.0590629
-1.65712 1.0632 -0.6806
-1.64067 0.851718 1.55749
-1.65387 1.11813 0.810655
-1.62229 0.896111 2.91202
-1.63148 1.16525 2.30597
-1.6221 0.941239 4.12157
-1.62578 1.2086 3.51146
-1.20775 0.921897 3.51634
-1.62576 1.24951 4.71966
-1.21071 0.964415 4.72609
-1.65196 1.24614 -2.76261
-1.24057 1.2208 -3.36145
-1.65186 1.30308 -1.41695
-1.23666 1.26381 -2.16065
-1.65204 1.3718 0.0709915
-1.23932 1.33669 -0.670688
-1.64468 1.43166 1.55914
-1.23725 1.40548 0.813354
-1.63497 1.47773 2.90541
-1.226 1.45903 2.30362
-1.62944 1.51687 4.10956
-1.21845 1.4982 3.50509
-1.21424 1.53733 4.71214
-0.822905 0.214502 -2.83757
-0.82663 0.28745 -3.43331
-0.000290346 0.201921 -3.44039
-0.836302 0.21609 -1.47281
0.0106039 0.228208 -2.235
-0.859975 0.212002 0.05398
0.00580945 0.208968 -0.711184
-0.8501 0.258309 1.58084
-0.00537446 0.226179 0.817912
-0.824833 0.322279 2.94628
0.000739938 0.299933 2.34189
-0.813785 0.366833 4.15101
-0.811059 0.445786 3.54537
0.0121207 0.348694 3.54873
-0.807767 0.484446 4.74863
0.0183934 0.388092 4.75173
-0.825563 0.529903 -3.40815
-0.00661568 0.373136 -3.4264
-0.805041 0.563399 4.143
-0.800355 0.734207 3.52852
0.0173021 0.545507 3.54031
-0.80104 0.774265 4.73534
0.0219162 0.583506 4.74419
-0.825709 0.951837 -3.37497
-0.0085806 0.68617 -3.39002
-0.796354 0.945073 4.12086
-0.800415 1.21149 3.50997
0.0198342 0.924273 3.51544
-0.799188 1.25223 4.71857
0.0252488 0.966888 4.72532
-0.825265 1.23848 -2.75949
-0.00469 1.21591 -3.36009
-0.824123 1.29742 -1.41438
2.52079e-05 1.25822 -2.15913
-0.82453 1.37038 0.0716751
0.000199319 1.33241 -0.669903
-0.818566 1.43285 1.55784
0.000914183 1.403 0.812901
-0.809477 1.47949 2.90331
0.00901882 1.45832 2.30232
-0.80325 1.51865 4.10767
0.0172367 1.49845 3.50371
0.0241165 1.53814 4.71093
0.833218 0.215627 -2.83781
0.819724 0.287607 -3.43348
1.23979 0.199406 -3.43976
0.852715 0.221087 -1.47337
1.25539 0.225563 -2.23402
0.86041 0.223146 0.052748
1.28317 0.215222 -0.711919
0.845466 0.267803 1.57897
1.27947 0.235793 0.815272
0.837694 0.326348 2.94434
1.25672 0.300732 2.33773
0.844299 0.369953 4.14946
0.840481 0.448415 3.54367
1.25791 0.34845 3.54561
0.848077 0.487153 4.74729
1.26361 0.388542 4.74961
0.810367 0.529403 -3.40826
1.22778 0.37167 -3.42628
0.844259 0.565615 4.1415
0.837491 0.735573 3.52722
1.25578 0.544146 3.53752
0.848205 0.77613 4.73417
1.26321 0.583439 4.74237
0.812438 0.950245 -3.37514
1.21876 0.689567 -3.39168
0.841437 0.946088 4.1199
0.837486 1.21123 3.50918
1.24853 0.923491 3.51493
0.848553 1.2528 4.71768
1.26138 0.966501 4.72457
0.8206 1.23566 -2.75973
1.23029 1.21741 -3.36184
0.824347 1.29321 -1.41465
1.23522 1.25906 -2.16104
0.825643 1.36502 0.0713227
1.23922 1.32973 -0.671177
0.828499 1.42847 1.55738
1.23993 1.39814 0.812705
0.835732 1.47729 2.90272
1.2448 1.45489 2.30279
0.844603 1.51794 4.10697
1.25319 1.49656 3.50409
1.26245 1.53714 4.71099
1.66196 0.209341 -2.83596
1.64785 0.283468 -3.43256
1.68584 0.219698 -1.47256
1.66054 0.313624 -2.22779
1.70223 0.227869 0.0506044
1.69844 0.312229 -0.709592
1.69073 0.268722 1.57404
1.70273 0.335679 0.812164
1.67694 0.322834 2.939
1.67745 0.397169 2.3309
1.67722 0.367039 4.14577
1.67321 0.44418 3.53947
1.67875 0.484828 4.74469
1.64643 0.387751 -2.82439
1.63618 0.531834 -3.4097
1.67314 0.406156 -1.46482
1.64238 0.565983 -2.20575
1.69894 0.420039 0.0519678
1.67729 0.59298 -0.698559
1.68945 0.464125 1.56903
1.68251 0.627278 0.808756
1.67373 0.518515 2.93137
1.66535 0.684825 2.31646
1.67473 0.56197 4.13839
1.66683 0.732064 3.52522
1.67639 0.77381 4.73277
1.63214 0.710066 -2.79106
1.63662 0.956729 -3.37838
1.64653 0.752807 -1.43948
1.64043 0.994146 -2.17582
1.66085 0.800218 0.0582294
1.65619 1.05424 -0.681227
1.6584 0.847978 1.55619
1.65817 1.10882 0.809662
1.65845 0.898374 2.91032
[...]
POINT_DATA 29498
VECTORS point_vectors float
-4.69143 -3.24781 8.55223
0.220893 0.410064 1.41354
-4.92486 3.14419 9.81272
0.201759 -0.416963 1.98351
4.66099 -3.22682 8.50563
-0.271295 0.449575 1.50064
4.90336 3.17482 9.80059
-0.359342 -0.263721 2.68713
0.0345066 -0.039527 0.444852
0 0 0
-0.0337968 -0.0803009 0.280586
0.011476 0.0400905 0.12679
-0.0336759 -0.0379384 0.393673
0.0298433 0.0516119 0.251193
0.0169872 -0.0463088 0.171063
-0.00476118 0.0269609 0.0790572
-0.438162 -0.0954212 19.8697
-1.12388 -0.352004 20.3117
-0.515266 -0.296717 21.0468
-0.0520865 -0.116807 21.3276
0.649272 0.0794611 21.3052
0.895773 0.0274487 21.2924
0.966051 -0.134981 20.9188
-0.460427 -0.0557026 19.8434
-1.22263 -0.198346 20.3116
-0.616658 -0.308365 21.0427
-0.0769972 -0.164682 21.3745
0.688339 -0.0449815 21.3232
0.959614 -0.0647626 21.4221
0.932572 -0.154737 21.0313
-0.495517 0.0354193 19.8262
-1.31647 0.0637758 20.3125
-0.858318 -0.256557 21.0267
-0.186506 -0.224909 21.4441
0.604061 -0.271025 21.3346
0.926359 -0.322495 20.7235
0.706731 -0.181821 20.8368
-0.444844 0.183725 19.8697
-0.979452 0.397589 20.2802
-0.926682 0.148603 20.9262
-0.306394 -0.0681041 21.4068
0.327689 -0.342973 21.2379
0.484671 -0.388071 20.8536
0.354138 -0.21266 20.7192
-0.521651 -0.283771 19.291
-3.29523 -4.0904 19.7567
0.240498 -0.176866 12.5584
-0.250963 -0.158576 10.7781
1.02695 1.11224 10.1374
1.61395 1.37444 14.7907
1.49593 0.733035 13.521
-0.534633 -0.201241 19.2485
1.90481 0.814557 11.7359
1.44816 0.439842 13.0002
-0.594524 0.11903 19.1546
1.8916 -0.483345 11.8182
1.0497 -0.322761 16.0996
-0.474704 0.435091 19.4105
-1.60219 1.87323 20.0321
-2.31797 1.4294 20.5322
-0.627009 0.118575 21.1138
0.294372 -0.792689 20.5195
0.592257 -1.05763 20.1004
0.351736 -0.81801 19.9393
0.524809 -0.281557 19.2868
3.38798 -3.86655 19.7777
-0.251313 -0.14903 12.3201
0.363736 -0.177737 9.04436
-1.07939 1.0155 10.3054
-1.64055 1.3096 15.3863
-1.42703 0.678037 13.881
0.530658 -0.200318 19.2358
-1.90027 0.741 12.3929
-1.37012 0.385459 13.4321
0.587639 0.118945 19.1448
-1.86395 -0.475704 12.6397
-1.02187 -0.380759 16.5939
0.473345 0.434877 19.3985
1.61152 1.87894 20.03
2.33761 1.42591 20.5298
0.619159 0.115863 21.0167
-0.295704 -0.789055 20.7648
-0.626525 -1.02312 20.213
-0.36434 -0.775944 20.01
0.443509 -0.0947591 19.875
1.11481 -0.343611 20.3128
0.519454 -0.297487 21.0483
0.0416477 -0.11905 21.3419
-0.625565 0.0599526 21.2995
-0.882319 0.021306 21.2183
-0.964108 -0.143814 20.86
0.468873 -0.0577462 19.8428
1.22913 -0.199174 20.3138
0.620486 -0.310241 21.0473
0.0731676 -0.167574 21.3802
-0.642574 -0.0527836 21.3183
-0.922877 -0.0656756 21.337
-0.929754 -0.135573 20.9492
0.501685 0.0368202 19.8107
1.32385 0.0596285 20.3114
0.851555 -0.265766 21.0299
0.177183 -0.228532 21.4369
-0.561304 -0.252873 21.3341
-0.872774 -0.297012 20.7041
-0.695218 -0.15529 20.8507
0.446791 0.185471 19.8649
0.987958 0.395497 20.2802
0.930927 0.140381 20.9301
0.303381 -0.0722149 21.4046
-0.317391 -0.334956 21.2266
-0.482265 -0.383728 20.8965
-0.350716 -0.198516 20.7002
-1.34199 0.166889 1.53828
0.000768132 -0.00933612 0.0463044
0.0860339 -0.129778 2.30093
0.129632 -0.00145232 0.646506
-0.000259079 -0.00116744 -0.00431035
0.012129 0.00453357 0.658256
0.000123598 0.0785612 0.276346
-0.0258413 -0.0112231 0.110601
-0.000915989 0.0110883 -0.0429795
0.112745 0.123145 0.667911
1.43136 0.177136 1.63973
-0.0777167 -0.112375 2.00202
-0.226455 -0.0317842 1.0531
-0.0136569 0.0173952 0.726631
0.0406504 -0.019369 0.178341
-0.133496 0.182776 0.838706
-0.00416835 0.0205616 0.453905
0 0 0
1.09728e-08 -4.37218e-08 1.90162e-05
0 0 0
0 0 0
0.00983547 0.0362708 0.115942
0 0 0
2.01307e-06 -0.00221641 0.0320892
-0.00020824 0.0130727 0.15219
0 0 0
0 0 0
-0.0130493 0.0471911 0.154401
0 0 0
0 0 0
0.00344247 0.00918818 0.0755354
-8.94557e-09 2.95193e-07 -2.26419e-05
-2.23677e-09 -1.4318e-07 6.57886e-05
-1.23734e-07 9.22349e-07 0.000343865
0.0188912 0.0528483 0.074582
0.00438261 0.0192737 -0.0068216
-4.54458e-06 0.00528556 0.039179
2.74638e-06 0.00380051 0.0258507
2.55115e-05 0.00113421 -0.00210876
0 0 0
5.52159e-18 -2.14588e-17 -1.49602e-16
-0.00456688 0.0124198 0.0987906
-2.56793 -0.627168 20.1631
-4.81531 -5.76278 19.5111
-1.63036 -0.648066 18.2284
1.34159 0.0775677 20.416
0.66712 0.852437 5.69116
1.29671 0.990464 8.0698
-2.7043 0.338051 20.1996
-1.86148 0.455278 17.987
-2.95477 3.01264 20.1359
1.04295 -0.519915 20.4024
1.20769 -0.212542 8.93317
0.989571 -0.301127 13.3157
5.01612 -5.58156 19.5873
1.63051 -0.651322 18.2011
2.57348 -0.632381 20.163
-0.715911 0.814525 6.3338
-1.28962 0.895305 9.08454
-1.2202 0.0124343 20.7907
1.86069 0.45533 17.9529
2.97009 3.0207 20.1399
2.72169 0.335464 20.2044
-1.31272 -0.153371 9.93481
-1.04174 -0.26202 14.1648
-0.963998 -0.479757 20.6985
-0.589339 -0.624155 21.3696
0.357553 -0.0844433 4.9812
0.0290086 -0.219713 21.232
-0.41937 0.107536 4.17244
-1.34232 -0.685737 21.1146
-3.70209 0.268405 17.191
-0.23737 -0.509669 20.9323
0.618346 1.39785 8.92509
-0.385522 -0.101147 4.68206
0.597258 -0.62773 21.368
0.344468 0.168416 2.45171
-0.0353823 -0.236456 21.2395
3.70502 0.228192 17.0083
1.31556 -0.701573 21.1092
-0.642429 1.43751 8.61584
0.211906 -0.510765 20.9619
-0.803859 -0.21861 19.9305
-0.449429 -0.0765464 19.8564
-0.534456 -0.177948 19.6297
-0.864595 -0.341771 20.8339
-1.19229 -0.286212 20.314
-2.0078 -0.934717 20.2096
-0.279478 -0.23557 21.1997
-0.562408 -0.313628 21.0529
-0.490899 -0.482929 21.2458
0.28801 -0.000838134 21.402
-0.0568336 -0.144235 21.3561
-0.0165387 -0.109028 21.4141
0.838133 0.09299 21.1485
0.679482 0.00368025 21.3147
1.17115 0.367028 20.9754
0.775763 0.104681 20.4283
0.948092 -0.0233087 21.3722
1.54901 0.337805 19.8902
0.947699 -0.158894 20.9843
1.1457 0.262888 19.0799
-0.85961 -0.117025 19.8862
-0.477913 -0.015777 19.8349
-0.560242 -0.101911 19.587
-0.96802 -0.262451 20.8454
-1.26109 -0.0929759 20.3211
-0.361466 -0.282574 21.2329
-0.708969 -0.294338 21.0345
0.289413 -0.0717935 21.4496
-0.116849 -0.203857 21.4122
0.915817 -0.00646257 21.0267
0.688269 -0.155421 21.3506
0.844736 -0.0177648 20.3893
0.938095 -0.174954 21.1615
1.67158 0.223106 19.5045
0.84014 -0.169919 20.8989
1.09836 -0.0293561 18.5494
-0.932856 0.0550539 19.8666
-0.487567 0.111727 19.8457
-0.593487 0.0540818 19.5486
-1.1144 -0.0843045 20.8158
-1.15798 0.268869 20.2901
-0.596414 -0.277388 21.2846
-0.935039 -0.0587627 20.9747
0.234541 -0.20666 21.4578
-0.267145 -0.165774 21.44
0.774141 -0.306971 21.1689
0.472477 -0.344791 21.2655
0.613461 -0.2978 20.7556
0.756831 -0.414636 20.7827
1.38418 -0.610165 20.1952
0.50554 -0.194493 20.7394
0.844098 -0.550621 19.9426
-0.760061 0.312604 19.9695
-0.513891 0.281744 19.6672
-0.967378 0.288524 20.6524
-1.38772 0.862616 20.1677
-0.715958 0.0490755 21.2417
-1.50968 0.404969 20.9037
0.0647646 -0.206546 21.3615
-0.499287 -0.0676251 21.7365
0.446738 -0.398048 21.0526
0.362435 -0.57444 21.3859
0.444958 -0.559591 20.8718
0.579588 -0.734324 21.0895
0.370972 -0.496179 20.4523
-1.3925 -0.996425 18.6168
-0.539281 -0.250495 19.2595
-0.00163139 -0.392977 18.9476
-0.349092 -0.472276 13.759
0.00634561 -5.2486 20.5571
0.154675 -0.0760147 11.7128
0.00109863 -0.054032 6.5002
0.190893 0.0706034 7.41528
0.00358802 -0.358077 3.81637
1.36012 1.3919 13.0803
-0.0616364 -0.0560937 0.809965
1.67317 0.948974 15.2671
1.70721 1.12641 13.1733
0.00851491 -0.382413 2.10244
1.47204 0.586438 13.2606
-0.0444498 0.841503 9.71605
-0.564578 -0.0411054 19.2016
-0.00650729 -0.300949 18.8216
2.04262 0.805378 14.3497
2.31692 0.172994 10.1947
-0.125496 -1.29948 -4.9467
1.32899 0.0600463 13.9459
-0.0533451 0.714274 7.3871
-0.557331 0.274743 19.2397
-0.00922861 0.185187 18.6909
1.71613 -0.484814 13.8264
1.09309 -1.19416 17.5164
-0.165119 -0.67584 -2.70471
0.599408 -0.875481 19.4065
-0.081436 -0.574232 2.96953
-1.0543 1.11018 19.2077
-0.00284739 0.581346 19.0879
-1.63565 1.33646 20.545
-0.000448519 3.18016 19.8987
-2.63172 1.13361 21.9967
1.91856e-05 3.61928 19.0525
0.117343 -0.494766 20.5746
0.000191454 -0.114567 8.28033
0.400808 -1.02841 20.7572
0.00233292 -0.304864 12.5204
0.414015 -0.976321 20.3259
-0.0474922 -1.318 15.7147
-0.0231959 -0.829073 18.2575
1.39349 -0.975374 18.6405
0.539716 -0.251138 19.249
0.535198 -0.178358 19.6303
0.373328 -0.444938 14.2919
1.9618 -0.887005 20.2084
-0.144094 -0.0675877 10.934
0.498157 -0.488188 21.2456
-0.29123 0.0488388 7.64025
-0.00153052 -0.110906 21.4263
-1.42308 1.32789 13.4323
-1.12287 0.316126 21.0221
-1.63042 0.881945 15.9237
-1.71391 1.05977 13.8079
-1.4849 0.299059 20.0538
-1.39857 0.531748 13.6566
-1.10821 0.21131 19.5227
0.559148 -0.0406867 19.1903
0.559235 -0.101023 19.5802
-1.97884 0.715769 15.1966
-2.17174 0.139359 11.1053
-1.58071 0.172335 19.728
-1.25305 0.0117927 14.4686
-1.05178 -0.0799217 19.0634
0.554325 0.27642 19.2295
0.590506 0.0460319 19.5413
-1.68325 -0.468141 14.8163
-1.14159 -1.16784 18.4574
-1.33831 -0.558991 20.3037
-0.606056 -0.818862 19.4514
-0.805374 -0.480497 20.0795
1.05736 1.11707 19.1957
0.515808 0.283378 19.658
1.64401 1.33665 20.5442
1.39917 0.866344 20.1658
2.65877 1.1409 21.9918
1.51585 0.39531 20.9052
-0.119026 -0.498278 20.6462
0.498041 -0.0742832 21.7341
-0.417441 -1.00065 20.8562
-0.366326 -0.544182 21.3698
-0.404422 -0.945512 20.3758
-0.574617 -0.692258 21.0806
-0.370315 -0.455783 20.4993
0.804717 -0.217122 19.9317
0.456325 -0.0770522 19.8589
0.861218 -0.336435 20.8321
1.18983 -0.281787 20.3138
0.282517 -0.237854 21.2001
0.56928 -0.314524 21.057
-0.28554 -0.0123163 21.3921
0.0527364 -0.148774 21.3717
-0.81348 0.0811746 21.115
-0.641696 -0.00618886 21.3083
-0.738839 0.088329 20.4765
-0.909713 -0.0216932 21.2989
-0.947938 -0.139242 20.9028
0.868156 -0.121319 19.8852
0.485347 -0.0165513 19.8238
0.970316 -0.261596 20.8496
1.26948 -0.0968067 20.3231
0.364269 -0.28465 21.2345
0.707474 -0.298658 21.0382
-0.281185 -0.0798455 21.4343
0.112683 -0.20784 21.406
-0.8584 -0.0138122 21.0299
-0.64381 -0.151297 21.3449
-0.795821 -0.0251399 20.3926
-0.886301 -0.148321 21.1465
-0.832204 -0.14157 20.9269
0.942795 0.0551606 19.8575
0.493154 0.111333 19.8395
1.11382 -0.0913884 20.8175
1.16442 0.268368 20.2905
0.586332 -0.282839 21.2825
0.933937 -0.0655786 20.9786
-0.22741 -0.203789 21.4311
0.261345 -0.168213 21.4339
-0.718983 -0.288677 21.1713
-0.455754 -0.330342 21.2531
-0.604931 -0.285927 20.7204
-0.700824 -0.388074 20.774
-0.489901 -0.173358 20.7337
0.767453 0.31237 19.9647
0.973701 0.284275 20.6544
0.717739 0.0412278 21.242
-0.0685157 -0.205998 21.3614
-0.435428 -0.370288 21.0939
-0.47301 -0.540788 20.8336
-0.842778 -0.179166 19.9028
-1.50523 -0.897344 18.4598
-1.12611 -0.457803 19.5307
-1.2944 -0.280767 19.405
-0.550615 -0.137736 19.6016
-2.34587 -0.806222 20.2077
-0.922106 -0.306404 20.8412
0.157544 -0.179543 4.75136
-1.11185 -0.623244 21.1901
-1.25375 -0.581575 21.2222
-0.525365 -0.553733 21.2997
-0.316673 -0.260794 21.2179
0.0205636 0.0381954 5.25142
-0.209994 -0.347748 21.3652
-0.244265 -0.510761 21.3592
0.015837 -0.153555 21.3305
0.288621 -0.0407117 21.421
0.035664 0.00247121 1.64287
0.492776 0.145217 21.4277
0.572411 -0.0177284 21.1304
1.29305 0.23156 20.7309
0.906059 0.0524919 21.0324
1.29673 1.20368 10.3399
1.32884 0.451561 20.6613
1.57246 0.108826 20.3339
1.62546 0.323054 19.6165
0.813148 0.0460152 20.4275
1.95177 0.938079 14.7557
1.14713 0.338859 20.8689
1.53276 0.185926 20.1739
1.12203 0.116766 18.8147
-0.89372 -0.0460963 19.871
-1.84606 -0.16027 17.9976
-1.42474 0.14976 19.3215
-0.587029 -0.0308164 19.5589
-2.77853 -0.129364 20.1681
-1.03891 -0.202146 20.8534
-1.71615 -0.208175 21.117
-0.890416 -0.760332 21.2186
-0.444448 -0.304491 21.2584
-0.912221 -0.798365 21.1785
-0.00954838 -0.366762 20.7736
0.277517 -0.145584 21.4546
0.45177 -0.344602 20.6599
1.27741 -0.254886 20.2221
0.884766 -0.161465 21.105
1.18333 0.225551 7.01268
1.3338 -0.562753 20.3456
1.46145 -0.21468 20.2712
0.756143 -0.161303 20.5331
1.89778 0.334865 13.8453
1.24254 -0.587888 19.7306
0.980195 -0.407777 19.4664
-0.854662 0.216893 19.9185
-1.51476 1.05394 18.6217
-0.995829 0.612099 19.6662
-0.56256 0.17987 19.5984
-2.01816 0.833693 20.1698
-1.07806 0.126449 20.7198
-2.51483 1.13794 20.41
-1.36566 0.597018 20.6584
-1.69711 -0.11206 20.9958
-0.711964 -0.154896 21.2827
-1.2087 -0.190751 11.3761
-1.30232 0.197058 21.5298
-0.501579 -0.302012 21.7052
0.155155 -0.233774 21.4253
1.15734 0.432257 10.8451
0.0655802 -0.341668 21.6018
0.60627 -0.669615 21.2595
0.62809 -0.40552 21.1021
1.00963 -0.806023 15.8161
0.537187 -0.702837 21.0489
0.897158 -0.7743 20.7231
0.496161 -0.439608 20.7812
1.07356 -0.925811 19.1946
0.428972 -0.769523 20.665
0.619655 -0.553859 19.9184
1.50733 -0.891651 18.4596
0.00797312 -1.97119 17.28
-0.00712742 -1.47868 16.2643
-0.00404226 -0.351999 18.8931
0.00709201 -2.74685 11.5878
-0.193974 -0.211552 5.16222
0.0035655 -0.275626 7.93944
0.000643082 -0.0025624 1.11448
-0.00291453 0.0558147 4.31272
0.000146242 -0.0319768 5.14161
0 0 0
-0.0662615 -0.00529042 2.45736
0 0 0
-0.0282361 -0.238438 -0.80302
-1.32954 1.18324 10.7843
0.0362475 -0.625002 0.333794
0.0468376 -1.08121 -5.68764
0.0149989 -0.935658 -2.37209
-1.89995 0.85974 15.4844
0.016148 0.193051 4.23555
0.0303737 -0.605789 -1.62491
-0.0488975 0.777889 8.55158
1.84768 -0.16293 17.9654
-0.0172467 1.11189 15.6949
-0.00737367 -0.091777 18.5482
-1.16477 0.212758 7.56467
0.00558366 0.513247 -3.8742
-0.145268 -0.983151 -3.82058
-1.84109 0.255023 14.8282
-0.063606 -1.6006 -0.609886
-0.0647538 0.183522 5.1594
1.51344 1.05955 18.5986
-0.00555703 1.97161 18.5293
-0.00779679 0.390959 18.804
-0.00160003 4.98491 20.3533
2.52734 1.1213 20.3447
-0.000754458 2.56844 20.2603
0.00373219 1.76412 8.22609
1.09726 -0.136395 10.8983
0.00172866 2.15086 12.9475
0 0 0
-1.18196 0.482595 11.0284
0.0131711 -0.0331791 10.2005
-0.0742254 0.540695 -1.23995
-1.07564 -0.765014 16.5988
-0.0166415 -0.682645 14.6396
-0.0638381 -1.07386 5.20676
-1.07841 -0.890561 19.5301
-0.0330059 -0.608347 16.7369
-0.0152745 -0.815827 10.3629
0.8471 -0.180141 19.9026
1.12236 -0.447726 19.5417
1.30549 -0.287979 19.3931
0.549425 -0.137033 19.5999
2.31106 -0.787202 20.2062
0.919965 -0.301511 20.8421
1.11558 -0.61385 21.1714
1.25711 -0.581402 21.2241
0.529984 -0.558795 21.3007
0.323981 -0.262891 21.2196
0.206761 -0.352909 21.3756
0.255308 -0.524769 21.358
-0.0368111 -0.165121 21.3087
-0.283479 -0.0517846 21.4103
-0.508628 0.119121 21.3485
-0.55253 -0.0631922 21.2136
-1.21467 0.171553 20.8668
-0.860684 0.0372807 21.042
-1.28629 0.396881 20.7059
-1.51903 0.0575922 20.6113
-1.54894 0.281079 19.7901
-0.769097 0.039589 20.4205
-1.08667 0.302257 20.8343
-1.43362 0.133224 20.106
-1.07999 0.0656943 19.293
0.901372 -0.0473797 19.8651
1.44331 0.148426 19.3041
0.582997 -0.0345361 19.5528
2.78751 -0.134162 20.169
1.0422 -0.206242 20.8538
1.71789 -0.222853 21.1296
0.886346 -0.762638 21.2187
0.440938 -0.305242 21.2593
0.881786 -0.803015 21.1761
0.00176232 -0.37595 20.823
-0.267496 -0.149391 21.4288
-0.434629 -0.345611 20.8175
-1.15473 -0.275534 20.6338
-0.822181 -0.153492 21.1039
-1.24529 -0.555002 20.6379
-1.36166 -0.24301 20.6459
-0.743371 -0.162983 20.5045
-1.15044 -0.525942 19.8865
-0.934772 -0.45292 20.0899
0.861811 0.219977 19.9126
1.00496 0.618601 19.6543
0.562482 0.183633 19.5927
2.033 0.836622 20.1727
1.08005 0.121645 20.7224
1.37511 0.593963 20.6589
1.69325 -0.132807 21.0029
0.708213 -0.160449 21.2828
1.30613 0.18641 21.5293
0.491666 -0.317166 21.6946
-0.152044 -0.226469 21.413
-0.0740321 -0.335302 21.5854
-0.59822 -0.614697 21.2877
-0.608783 -0.364231 21.1396
-0.547951 -0.662857 21.072
-0.851849 -0.729943 20.8161
-0.516614 -0.436393 20.7788
-0.445608 -0.745239 20.7196
-0.606335 -0.496359 19.9642
-1.21496 -0.376761 19.4592
-1.17584 -0.615423 21.228
-0.207482 -0.421004 21.3642
0.557112 0.065976 21.2304
1.45985 0.309075 20.4647
1.42765 0.31929 20.4721
-1.41839 -0.0655344 19.3171
-1.5062 -0.484788 21.2515
-0.45779 -0.716893 21.0189
0.560089 -0.204646 20.7025
1.48784 -0.270632 20.1981
1.38235 -0.301645 19.7828
-1.26575 0.478164 19.4683
-1.66466 0.29901 20.8242
-1.36928 -0.317388 21.6175
0.195804 -0.434308 21.5273
0.770978 -0.804432 21.1239
1.08307 -0.719632 19.8238
0.00109788 -1.80289 16.8168
0.000314812 -0.0103884 0.796815
-1.62738e-05 -0.00104172 0.47865
0 0 0
0.084096 -0.895004 -3.26256
0.0370568 -0.261962 0.0990764
-0.00900018 -0.382023 15.7593
0.0188958 -0.289035 -4.81631
-0.0166163 -1.10319 -1.11738
-0.0129124 2.19289 17.2077
0.000684668 2.41796 17.1396
0 0 0
0.0260024 0.646316 -1.14752
0.0182669 0.152362 1.81158
-0.0166076 -1.36127 6.60386
1.21685 -0.376575 19.462
1.17775 -0.609578 21.2108
0.206175 -0.431344 21.3658
-0.558905 0.0286381 21.2273
-1.40172 0.245817 20.579
-1.35228 0.276588 20.397
1.42614 -0.0718721 19.2979
1.50688 -0.489523 21.2567
0.455197 -0.716153 21.0382
-0.528607 -0.232151 20.8514
-1.38047 -0.277986 20.4332
-1.2866 -0.340643 19.7765
1.27807 0.484933 19.4559
1.67279 0.289949 20.8288
1.3568 -0.336442 21.6147
-0.203573 -0.416188 21.52
-0.746509 -0.743514 21.1405
-1.05997 -0.675236 19.95
-1.4948 -0.0946529 1.58494
-0.00476763 -0.0277917 0.12086
-0.55529 -0.294142 4.59639
0.133237 0.0395842 0.408567
-0.0175973 0.000827252 -0.00144486
0.242307 -0.000181259 1.11796
-1.77809 0.46976 2.71873
-0.0232829 0.248853 0.508567
-0.275597 -0.144981 1.71875
0.262986 0.00488848 0.964188
-0.0157574 0.00438291 -0.0199586
0.0649008 0.0363622 0.691488
0.00485273 -0.0284631 0.123428
1.49936 -0.0937037 1.58415
0.534319 -0.27338 4.42381
0.0244202 0.00311628 0.000243631
-0.351983 0.0234001 1.2922
-0.188308 -0.0395074 1.02959
0.0234451 0.247948 0.508211
1.78936 0.479156 2.7203
0.265378 -0.141355 1.67528
0.00803401 -0.00235387 -0.00564261
-0.0326201 0.014212 0.635011
-0.15864 0.141417 1.2068
0.0804063 -0.15387 2.65544
0.00726934 -0.0125704 0.55834
0 0 0
0 0 0
0.00801792 0.0104203 0.574918
-0.00564101 0.020773 0.228887
0 0 0
3.71539e-18 -2.09995e-17 1.09496e-16
-0.175099 -0.141755 0.558923
0 0 0
0.00265651 0.0147038 0.173127
0 0 0
0.0190236 0.0555533 0.1706
5.35046e-05 0.000355083 0.0010183
0.00250734 0.0145994 0.0494213
0.00529906 -0.00310598 0.0473578
-0.0604813 -0.112806 2.04267
0 0 0
-0.00286925 -0.0053098 0.250844
0 0 0
-0.0230614 -0.00128735 0.612022
0 0 0
0.0020773 0.0435182 0.305499
0.00703271 0.0203962 0.0839319
0.162464 -0.129617 0.521156
0 0 0
0 0 0
-0.00135063 0.00988651 0.161512
-0.0158085 0.0426068 0.130615
-0.0169246 -0.00311203 0.113859
-5.039e-05 0.000333617 0.000965703
-0.00894035 0.0363439 0.108613
-0.0230257 -0.0122258 0.290739
-0.139718 0.131169 0.13721
2.58789e-05 -0.0484521 0.42257
-0.0019802 -0.522911 0.343731
0 0 0
-4.49092e-08 -4.61002e-07 3.34694e-05
0 0 0
-0.0140374 0.00158199 -0.00144019
-0.000144835 0.000380471 0.0014494
-0.00125761 -0.0150901 -0.00825288
0.000188116 0.000990312 0.0134486
2.1535e-06 9.38506e-07 0.000290738
0.000302436 0.393816 0.128916
1.84163e-06 1.67143e-05 0.000124276
-9.5031e-05 -0.000189108 0.00098408
-0.00229488 0.00130299 0.0113352
0.000708023 0.00554044 -0.00229659
8.21071e-07 -4.40268e-07 3.06849e-05
0 0 0
0 0 0
0.136951 0.128812 0.134537
0.0215135 -0.012401 0.278901
1.67926e-05 -0.000301181 0.0178271
0 0 0
0.0334254 0.00332344 -0.00312321
-2.39849e-18 3.54286e-20 3.4442e-17
0 0 0
-0.000329799 0.00156714 0.0218846
0.00179843 0.00102933 0.00893866
0.000120925 -0.00023353 0.00115122
0 0 0
0 0 0
1.08007e-06 1.42033e-05 0.000121001
0 0 0
0.00199335 -0.0107536 0.109214
0 0 0
6.97798e-09 -7.16281e-08 1.66008e-05
2.72966e-09 -3.73144e-08 1.37026e-05
0 0 0
0.0015594 0.0240639 0.149875
-9.82355e-09 -1.15595e-07 3.67042e-05
2.66483e-07 -7.70622e-07 0.000153213
7.13771e-05 0.00050224 0.0022423
-0.0525802 0.0574867 0.334508
-3.3028e-06 0.0054535 0.039981
1.15552e-06 0.0120001 0.0283233
5.71993e-07 0.00111837 0.0429998
8.79726e-05 0.00362924 -0.00543018
0 0 0
-0.000149558 0.00217198 0.0186226
-0.00191479 -0.00963757 0.101656
0 0 0
0 0 0
-0.00173001 0.0254521 0.16318
0.0846969 0.084397 0.553354
-1.96521e-05 0.0001359 0.000608752
-0.00178217 -0.000281399 0.0229089
-0.0914658 -0.0889681 0.735284
0.00162162 -0.00714261 0.0848131
0.000244251 -0.00199137 0.00950269
-4.0081e-07 -1.24361e-06 -9.24971e-05
2.31414e-05 0.000125634 0.00130572