# vtk DataFile Version 2.0
tri_press
ASCII
DATASET UNSTRUCTURED_GRID
POINTS 3682 float
-0.781323 0.255 -2.325
-0.781323 0.255 2.345
-0.898793 0.585 -2.395
-0.875 0.929547 2.255
0.781317 0.255 -2.325
0.781317 0.255 2.345
0.898793 0.585 -2.395
0.875 0.929547 2.255
-0.779376 0.256947 -0.768334
-0.798252 0.238071 0.788333
-0.876932 0.685919 -0.845
-0.876855 0.808622 0.705
0.779375 0.256942 -0.768334
0.798248 0.238069 0.788333
0.876932 0.685919 -0.845
0.876855 0.808622 0.705
-1.61007 -0.0152494 -3.52888
-1.61156 0.0279229 -2.28621
-1.61272 0.021032 -0.729374
-1.62541 -0.0182022 0.828807
-1.62268 -0.0166483 2.38576
-1.61946 0.0269033 3.62898
-1.61917 0.0851003 4.87117
-1.6174 0.189119 -3.56627
-1.6241 0.243268 -2.32434
-1.62284 0.261291 -0.768796
-1.63739 0.258703 0.787346
-1.62956 0.284433 2.34302
-1.62202 0.329519 3.58614
-1.62018 0.383507 4.82855
-1.66883 0.565967 -3.6392
-1.71354 0.614668 -2.39698
-1.70422 0.705511 -0.845987
-1.7063 0.814619 0.704538
-1.70029 0.915897 2.25566
-1.66143 0.955548 3.49906
-1.63919 0.99101 4.74255
-1.69973 1.21236 -3.75359
-1.72031 1.27887 -2.51238
-1.72409 1.41105 -0.963543
-1.71923 1.57632 0.583856
-1.70857 1.71799 2.13276
-1.68972 1.79152 3.37412
-1.66969 1.83951 4.61688
-0.782405 -0.00704058 -3.52931
-0.791544 0.0397729 -2.28684
-0.791248 0.0217568 -0.72929
-0.80334 -0.0348101 0.82965
-0.799899 -0.0399223 2.38723
-0.791883 0.0116882 3.62998
-0.789147 0.0765354 4.87175
-0.77689 0.192367 -3.56641
-0.783729 0.317779 3.58696
-0.785148 0.377617 4.82898
-0.816147 0.553778 -3.63837
-0.813312 0.959775 3.49893
-0.796214 0.993057 4.74252
-0.850185 1.19898 -3.75278
-0.870092 1.26365 -2.51148
-0.873014 1.40121 -0.963002
-0.868077 1.57783 0.583791
-0.859204 1.72715 2.1323
-0.842395 1.80069 3.37366
-0.82512 1.84636 4.61654
0.839303 -0.00704141 -3.52931
0.79178 0.0397716 -2.28684
0.789264 0.0217528 -0.72929
0.797887 -0.0348125 0.82965
0.791352 -0.0399231 2.38723
0.830326 0.0116875 3.62998
0.854732 0.0765347 4.87175
0.859176 0.192367 -3.56641
0.846651 0.317779 3.58696
0.866058 0.377616 4.82898
0.895399 0.553777 -3.63837
0.877596 0.959774 3.49893
0.878624 0.993056 4.74252
0.858231 1.19898 -3.75278
0.847662 1.26365 -2.51148
0.843661 1.40121 -0.963002
0.846064 1.57783 0.583791
0.850048 1.72715 2.1323
0.856729 1.80069 3.37365
0.863406 1.84636 4.61654
1.65467 -0.0152515 -3.52888
1.61213 0.0279199 -2.28621
1.60559 0.0210261 -0.729374
1.61637 -0.0182066 0.828807
1.61669 -0.0166506 2.38576
1.64807 0.0269016 3.62898
1.67518 0.0850984 4.87117
1.67395 0.189118 -3.56627
1.6249 0.243266 -2.32434
1.61683 0.261285 -0.768796
1.63143 0.258699 0.787346
1.62848 0.284431 2.34302
1.66374 0.329517 3.58614
1.68755 0.383506 4.82855
1.72184 0.565966 -3.6392
1.71226 0.614668 -2.39698
1.69657 0.705509 -0.845987
1.69989 0.814617 0.704537
1.69993 0.915895 2.25566
1.70448 0.955547 3.49906
1.70788 0.991009 4.74255
1.70577 1.21235 -3.75359
1.69921 1.27887 -2.51238
1.6948 1.41104 -0.963544
1.69582 1.57631 0.583855
1.69812 1.71799 2.13276
1.70088 1.79151 3.37412
1.70358 1.83951 4.61688
-0.822355 0.42 -2.3423
-3.01003e-06 0.253889 -2.32611
-0.786564 0.249759 -1.54667
-0.826164 0.592274 2.298
-3.01003e-06 0.253733 2.34627
-0.786494 0.249829 1.56667
0 0.585708 -2.39571
-0.895196 0.642793 -1.62
0 0.932571 2.25802
-0.876389 0.869546 1.48
0.822357 0.42 -2.3423
0.786516 0.249801 -1.54667
0.826174 0.592274 2.29802
0.786527 0.24979 1.56667
0.895196 0.642793 -1.62
0.876389 0.869546 1.48
-0.781309 0.255014 0.00999999
-0.862754 0.471433 -0.806667
-2.59376e-07 0.221145 -0.768334
-0.879346 0.523347 0.746667
-1.84375e-06 0.221026 0.788333
-0.876755 0.747132 -0.0699999
0 1.01194 -0.845
-3.16101e-08 1.3973 0.705
0.781303 0.255014 0.00999999
0.862757 0.47143 -0.806667
0.879355 0.523346 0.746667
0.876755 0.747132 -0.0699999
-0.890234 0.445716 -1.58333
0.890234 0.445715 -1.58333
-1.63471e-06 0.235785 -1.54667
0 0.90462 -1.62
-1.50502e-06 0.42 -2.34886
-0.871161 0.49739 -0.03
0.871162 0.497388 -0.03
-1.05156e-06 0.221228 0.00999999
-1.58051e-08 1.38538 -0.0699999
-0.894325 0.55781 1.52333
0.894331 0.55781 1.52333
-2.42689e-06 0.238489 1.56667
-1.58051e-08 1.39725 1.48
-1.50502e-06 0.592274 2.28072
-0.795807 0.3375 -2.32762
-0.390663 0.254062 -2.32594
-0.78083 0.255493 -1.93583
-0.823551 0.423637 2.34131
-0.390663 0.25353 2.34647
-0.781315 0.255008 1.95583
-0.867306 0.5025 -2.37538
-0.449396 0.585732 -2.39573
-0.881027 0.597929 -2.0075
-0.842932 0.76091 2.26885
-0.4375 0.93257 2.25802
-0.876301 0.900153 1.8675
0.390657 0.253716 -2.32628
0.795799 0.3375 -2.32761
0.78073 0.255587 -1.93583
0.390657 0.253937 2.34606
0.823553 0.423637 2.34132
0.78131 0.255007 1.95583
0.449396 0.585683 -2.39568
0.872234 0.5025 -2.38031
0.881011 0.597913 -2.0075
0.4375 0.932577 2.25803
0.842933 0.76091 2.26885
0.876301 0.900153 1.8675
-0.792452 0.243871 -1.1575
-0.781309 0.255014 -0.379167
-0.805787 0.371829 -0.7875
-0.397874 0.222675 -0.768334
-0.797897 0.238426 1.1775
-0.781309 0.255014 0.399167
-0.888405 0.355906 0.7675
-0.402604 0.222595 0.788333
-0.877365 0.655657 -1.2325
-0.890526 0.589017 -0.825833
-0.876843 0.716525 -0.4575
-0.519826 1.01165 -0.845
-0.876719 0.839181 1.0925
-0.877192 0.66553 0.725834
-0.876666 0.777738 0.3175
-0.585514 1.39714 0.705
0.792437 0.24388 -1.1575
0.397872 0.222675 -0.768334
0.781303 0.255014 -0.379167
0.80577 0.371834 -0.7875
0.797875 0.238442 1.1775
0.402599 0.222595 0.788333
0.781303 0.255014 0.399167
0.888407 0.355904 0.7675
0.87737 0.655662 -1.2325
0.519829 1.01165 -0.845
0.890528 0.589016 -0.825833
0.876843 0.716525 -0.4575
0.876713 0.839175 1.0925
0.585483 1.39707 0.705
0.877187 0.665525 0.725834
0.876666 0.777738 0.3175
-0.826813 0.432858 -1.96282
-0.411178 0.42 -2.34886
-2.32237e-06 0.244748 -1.93639
-2.25753e-06 0.336945 -2.31218
-0.888042 0.347738 -1.565
-0.393283 0.235785 -1.54667
-0.895568 0.575042 1.91067
-0.413083 0.592274 2.30799
-2.71846e-06 0.246288 1.95647
-2.25753e-06 0.423003 2.37404
-0.889843 0.40382 1.545
-0.393248 0.238489 1.56667
0 0.876342 -2.00785
-7.52509e-07 0.502854 -2.38553
-0.895374 0.544255 -1.60167
-0.447598 0.893402 -1.62
-7.90253e-09 1.39729 1.86901
-7.52509e-07 0.762422 2.28389
-0.876907 0.713678 1.50167
-0.438195 1.39725 1.48
0.826798 0.432858 -1.96282
0.411178 0.42 -2.34886
0.888041 0.347758 -1.565
0.393257 0.235785 -1.54667
0.895568 0.575042 1.91067
0.413086 0.592274 2.30884
0.889841 0.4038 1.545
0.393262 0.238489 1.56667
0.895371 0.544254 -1.60167
0.447598 0.893402 -1.62
0.876907 0.713678 1.50167
0.438195 1.39725 1.48
-0.809846 0.384396 -0.00999999
-0.398349 0.222733 0.00999999
-0.8913 0.458575 -1.195
-0.866898 0.484411 -0.418333
-9.47041e-07 0.226766 -1.1575
-6.5547e-07 0.221204 -0.379167
-0.875223 0.510368 0.358333
-0.895016 0.540578 1.135
-1.44766e-06 0.221253 0.399167
-2.13532e-06 0.23075 1.1775
-0.877323 0.623943 -0.05
-0.60057 1.39064 -0.0699999
0 0.933017 -1.2325
-7.90253e-09 1.26069 -0.4575
-2.37076e-08 1.39722 0.3175
-2.37076e-08 1.39722 1.0925
0.809845 0.384395 -0.00999999
0.398345 0.222733 0.00999999
0.891293 0.458573 -1.195
0.8669 0.484409 -0.418333
0.875259 0.510367 0.358333
0.89503 0.540578 1.135
0.877319 0.62394 -0.05
0.600258 1.39002 -0.0699999
-0.797989 0.342619 -1.94932
-0.888685 0.355964 -1.17625
-0.894704 0.561465 -1.21375
-0.879087 0.523377 -1.98516
0.797971 0.342629 -1.94933
0.879066 0.523377 -1.98516
0.894789 0.561464 -1.21375
0.888685 0.355972 -1.17625
-0.391973 0.244742 -1.93611
0.391957 0.244742 -1.93611
0.391472 0.226766 -1.1575
-0.391486 0.226766 -1.1575
-0.448497 0.859395 -2.00768
-0.443032 0.928104 -1.2325
0.443032 0.928104 -1.2325
0.448497 0.859065 -2.00768
-0.400921 0.337222 -2.31222
-0.430287 0.502677 -2.38551
0.430287 0.502677 -2.38551
0.400917 0.337222 -2.31222
-0.807823 0.37811 -0.39875
-0.811342 0.389043 0.37875
-0.877255 0.644736 0.337917
-0.877381 0.603209 -0.437917
0.807822 0.378107 -0.39875
0.877381 0.603207 -0.437917
0.877255 0.644734 0.337917
0.811342 0.389042 0.37875
-0.398111 0.222704 -0.379167
0.398108 0.222704 -0.379167
0.400421 0.222767 0.399167
-0.400425 0.222767 0.399167
-0.589893 1.26053 -0.4575
-0.593883 1.39557 0.3175
0.593451 1.39471 0.3175
0.589889 1.26053 -0.4575
-0.888761 0.392264 1.15625
-0.820694 0.413728 1.93325
-0.876831 0.737294 1.88908
-0.893775 0.689831 1.11375
0.88876 0.392254 1.15625
0.893774 0.689831 1.11375
0.876831 0.737294 1.88909
0.820693 0.413718 1.93325
-0.396187 0.23075 1.1775
0.396193 0.23075 1.1775
0.39196 0.246284 1.95615
-0.391956 0.246284 1.95615
-0.438311 1.39722 1.0925
-0.437847 1.39729 1.86826
0.437847 1.39729 1.86826
0.438311 1.39722 1.0925
-0.401873 0.42332 2.37399
0.401872 0.42332 2.37399
0.425293 0.761666 2.2691
-0.425291 0.761666 2.26907
-0.782994 0.29625 -2.32074
-0.585993 0.254149 -2.32585
-0.780537 0.255786 -2.13042
-0.796234 0.339318 2.33695
-0.585993 0.253429 2.34657
-0.780472 0.255851 2.15042
-0.890516 0.54375 -2.39266
-0.674095 0.585745 -2.39574
-0.889979 0.591533 -2.20125
-0.860693 0.845229 2.26365
-0.65625 0.930926 2.25638
-0.876258 0.915457 2.06125
0.585987 0.253629 -2.32637
0.782988 0.29625 -2.32074
0.780441 0.255876 -2.13042
0.585987 0.254038 2.34596
0.796239 0.339318 2.33696
0.780545 0.255772 2.15042
0.674095 0.58567 -2.39567
0.889848 0.54375 -2.39199
0.890068 0.591623 -2.20125
0.65625 0.93094 2.25639
0.860692 0.845229 2.26365
0.876258 0.915457 2.06125
-0.781316 0.255007 -0.962917
-0.781309 0.255014 -0.57375
-0.787873 0.316742 -0.777917
-0.596885 0.223291 -0.768334
-0.792459 0.243864 0.982917
-0.781309 0.255014 0.59375
-0.887473 0.274916 0.777917
-0.604023 0.223143 0.788333
-0.876993 0.670633 -1.03875
-0.876835 0.634021 -0.835417
-0.876887 0.701222 -0.65125
-0.779509 1.01104 -0.845
-0.888036 0.83515 0.89875
-0.876811 0.73697 0.715417
-0.87663 0.793049 0.51125
-0.754243 1.149 0.705
0.78131 0.255007 -0.962917
0.596882 0.223291 -0.768334
0.781303 0.255014 -0.57375
0.787868 0.31674 -0.777917
0.792455 0.243862 0.982917
0.604018 0.223143 0.788333
0.781303 0.255014 0.59375
0.887473 0.274914 0.777917
0.876995 0.670634 -1.03875
0.779509 1.01104 -0.845
0.876835 0.63402 -0.835417
0.876887 0.701222 -0.65125
[...]
POINT_DATA 3682
SCALARS point_scalars float 1
LOOKUP_TABLE default
-145.511
-56.1838
-68.3
-54.0263
-145.804
-50.5137
-71.714
-51.0561
-32.8219
-41.6355
-42.4004
-39.7116
-32.6845
-41.3928
-42.2369
-39.244
-10.1318
-177.324
-50.319
-42.26
-56.7563
-54.0786
-54.0184
-10.1318
-163.359
-36.131
-41.1958
-57.1168
-54.5225
-54.0184
59.1924
-95.643
-39.5157
-39.4462
-52.8111
-57.0661
-57.0661
-95.643
-95.643
-47.2817
-46.3374
-51.6275
-54.1857
-54.1857
24.9077
-155.53
-34.0307
-43.5874
-54.259
-46.8224
-45.6041
135.557
-45.6041
-45.6041
141.123
-45.852
-45.852
111.682
-112.944
-31.0253
-52.6532
-57.2126
-51.5398
-49.1605
-47.2853
-155.698
-33.9521
-43.0332
-48.9701
-42.1725
-41.0802
-5.40109
-41.0802
-41.0802
55.9272
-42.5549
-42.5549
109.003
-112.892
-28.0696
-52.5165
-55.5126
-49.5857
-46.3651
-5.40109
-171.568
-50.2607
-41.8089
-51.136
-48.7274
-49.2663
-5.40109
-171.568
-35.9238
-40.5094
-52.4376
-51.7396
-49.2663
55.9272
-98.9718
-39.3696
-38.9761
-50.0174
-52.6004
-52.6004
-98.9718
-98.9718
-47.0392
-46.0779
-49.8164
-51.1683
-51.1683
-78.9404
-109.578
-48.8451
-49.3903
-32.2876
-44.2432
164.394
-45.0178
-43.2816
-42.2786
-88.6101
-48.7331
-45.8577
-42.9829
-44.8127
-41.2682
-31.8927
-35.8912
-39.504
-34.1665
-36.6283
-42.7197
16.9093
-57.3871
-31.7118
-35.7251
-33.2663
-42.4819
-44.9553
-44.5657
-61.5687
-34.0903
169.464
-34.8614
-34.647
-34.635
-106.966
-44.7045
-43.4352
-37.0105
-48.2588
-34.7924
-94.08
-108.055
-67.7022
-53.0916
-45.4053
-38.7274
-67.6894
158.867
-72.4743
-51.3887
-46.2306
-45.1756
-108.079
-94.3942
-67.9782
-38.3278
-47.9907
-36.4892
159.05
-49.7682
-72.295
-44.7668
-47.8168
-43.5524
-43.4015
-32.2825
-33.6169
-38.6461
-41.9734
-29.5594
-28.9459
-36.688
-36.3577
-39.3743
-43.9771
13.5947
-41.8022
-37.0509
-40.3219
-52.397
-43.3157
-38.6033
-32.1355
-33.4521
-41.324
-36.5256
-29.3264
-27.9888
-36.1996
13.6178
-39.2245
-43.781
-41.1836
-52.1619
-36.5183
-40.0056
-58.7286
170.448
-94.8379
161.891
-45.9388
-58.9992
-41.6629
-45.5069
-36.0254
-25.7341
-51.6087
-37.8784
-117.001
206.469
-44.1691
-35.2287
-48.8336
-38.7524
-42.2788
-47.592
-58.2662
170.753
-45.6085
-58.9861
-39.7396
-41.8905
-50.2063
-37.1633
-43.8608
-35.2133
-41.1562
-47.1742
-33.1767
-34.0916
-41.791
-34.9566
-45.7974
-36.0438
-32.561
-42.2383
-34.8213
-36.8898
-39.585
-89.2832
-4.88668
0.123676
-69.4494
-50.6775
-32.962
-34.0246
-41.4485
-34.777
-32.2763
-41.553
-39.3618
-89.0974
-58.1741
-43.2423
-39.759
-58.6297
-58.3267
-58.085
-39.4937
-43.1184
-90.731
-90.741
-44.5773
-44.6056
-112.317
-8.0455
-8.02239
-112.268
156.95
203.167
203.241
156.461
-33.349
-30.2644
-37.2867
-39.871
-33.1691
-39.6928
-36.9788
-29.9874
-35.3612
-35.3093
-34.1421
-34.2392
-36.8299
-60.6326
-60.3768
-36.7612
-42.3685
-38.8501
-43.4998
-41.6351
-41.6497
-41.186
-41.6891
-36.7861
-37.5486
-37.2258
-36.3086
-38.111
-49.2326
-50.4203
-49.4632
-48.9733
-42.2943
-34.4569
-41.6252
-45.1726
-117.315
-106.949
-98.7001
-54.5826
-51.5406
-42.6597
-18.2336
128.643
-96.9296
-51.6568
-46.1591
-48.4867
-106.036
-117.684
-98.7949
-44.8589
-49.0509
-39.3627
126.466
-20.4679
-97.3634
-44.2092
-48.4216
-46.3605
-39.6453
-32.2264
-32.6837
-37.2055
-40.6647
-25.3089
-25.5255
-37.129
-39.2118
-40.6449
-43.2103
-23.0805
-42.2708
-38.1663
-39.6413
-46.3486
-39.5233
-37.1371
-32.083
-32.5176
-40.2595
-36.9005
-25.0414
-24.95
-39.0742
-23.1099
-40.4917
-43.0287
-41.7231
-45.9509
-37.6668
-39.2588
-82.2084
-108.359
-95.4667
166.636
-108.733
-108.54
-131.774
68.781
-61.8523
-45.6639
-46.1116
-55.4107
-56.8133
-50.3834
-47.194
-46.0552
-37.4366
-32.7501
-34.9675
-27.8782
-38.2292
-40.2128
-52.5398
-38.8629
153.491
153.141
74.6493
205.378
-51.4729
-39.5257
-44.5401
-36.5741
-45.14
-43.8427
-44.9945
-41.362
-43.0225
-41.9903
-41.7639
-45.9087
-86.975
-37.4165
-94.9003
166.574
-61.7703
-45.714
-45.8936
-55.3879
-51.9822
-46.7512
-44.4567
-42.9694
-36.6273
-39.393
-51.1143
-37.8953
-51.5296
-39.3409
-44.2831
-36.5411
-41.7581
-41.1776
-40.6916
-45.2219
-32.2079
-31.1307
-32.4838
-33.3818
-34.4461
-37.1956
-44.3647
-34.8922
-39.338
-39.3174
-42.2551
-37.4742
-31.4457
-36.8305
-31.1968
-41.8351
-36.6821
-36.5987
-35.5445
-36.4818
-43.7519
-41.2043
-40.37
-61.8851
16.5398
16.5549
6.36225
27.0572
-56.2719
-56.1961
-62.9347
-53.4059
-32.0476
-30.925
-32.2672
-33.2812
-34.2793
-37.0431
-44.5218
-34.7238
-30.7233
-36.2484
-30.8442
-41.3246
-43.5377
-40.9296
-40.143
-61.5983
-54.0989
-45.3841
-44.3042
-40.6918
-53.5145
-45.0102
-43.9468
-40.4015
-74.8581
-60.9306
-60.9243
-52.3125
-56.314
-34.3815
-34.372
-18.0315
169.367
161.171
188.736
169.444
-33.4969
-35.0246
-33.7012
-37.5431
-33.2851
-34.8314
-33.4545
-37.3262
-34.5126
-35.1174
-34.5427
-34.4793
-105.439
-110.447
-82.0444
-105.393
-40.2347
-48.3126
-43.4137
-43.1898
-38.7817
-46.968
-42.2028
-42.2641
-36.429
-37.3251
-36.9427
-37.004
-48.2507
-48.1559
-47.9312
-49.0151
-42.1797
-35.5498
-36.3846
-38.6894
-94.6011
122.917
-127.698
66.6833
-55.2438
-84.1163
-43.0491
-45.1387
-39.579
-42.9111
-39.0016
-39.0698
-90.6992
196.077
67.0074
202.669
-64.3656
-110.794
-48.058
-45.7591
-46.9723
-45.5782
-44.1058
-50.1619
-127.494
65.6019
-94.509
121.434
-55.7379
-84.1185
-36.4624
-35.2417
-40.032
-39.6947
-36.8358
-36.8892
66.8501
202.669
-90.3773
196.229
-64.0748
-110.646
-45.5531
-42.9246
-45.516
-42.5528
-42.3677
-48.9129
-44.0277
-43.2065
-32.6233
-34.4343
-40.5335
-33.0519
-41.448
-36.6489
-42.1746
-38.6507
-29.6292
-33.1211
-25.183
-43.3069
-35.0627
-36.9101
-38.2417
-13.3378
-39.3219
-39.2432
-41.811
-74.2797
2.5295
16.8882
-41.6591
-46.0915
-36.6322
-39.8927
-38.2163
-51.3654
-55.6585
-50.0458
-43.9093
-43.1612
-41.4097
-36.6019
-32.4415
-34.3556
-40.4418
-32.8759
-41.4409
-38.1809
-34.9402
-36.687
-29.3589
-32.9787
-24.9238
-42.7652
-38.0474
-13.2857
2.55254
16.9815
-39.2319
-39.0827
-41.6254
-74.0155
-41.1934
-45.644
-55.3904
-49.8208
-36.2406
-39.0101
-37.9067
-51.0211
-58.9255
-57.7659
163.399
188.373
-93.8814
-93.8904
158.111
158.393
-57.8554
-41.9177
-71.5103
-50.6207
-39.7042
-43.0869
-43.9627
-45.0625
-35.8528
-36.8673
-34.2017
-27.1239
-42.9505
-38.9559
-37.7142
-37.4668
-119.949
-119.903
203.099
203.112
-39.8979
-50.7009
-58.7546
-20.4857
-49.4171
-48.855
-39.0863
-42.3627
-41.6958
-43.8371
-47.9084
-48.2849
-58.7548
-57.1012
188.552
163.288
-57.3275
-41.6608
-71.5084
-50.5994
-41.195
-37.7007
-37.3207
-41.0298
-41.991
-37.4392
-37.2456
-36.3996
-50.3052
-39.6478
-20.4697
-58.7369
-42.9225
-40.3031
-47.6867
-47.5957
-33.5381
-32.1869
-34.5402
-33.9677
-42.3967
-41.1569
-33.6572
-36.8869
-45.4744
-45.4885
-35.8861
-35.8603
-30.5719
-35.5986
-42.3655
-42.1219
-34.66
-34.7093
-37.0806
-36.9139
-37.6702
-40.4796
-109.967
-69.9062
-5.54551
-5.5362
-0.503523
-0.488653
-67.4222
-67.2871
-50.3377
-50.2093
-33.3449
-31.9434
-34.482
-33.8882
-40.7056
-42.2179
-33.4766
-36.7122
-35.2977
-30.2933
-41.664
-41.4445
-40.2813
-37.4146
-69.5089
-109.859
-94.9028
-58.7078
-56.119
-94.9119
-39.9331
-41.3451
-41.1817
-42.3581
-39.364
-39.8274
-40.0192
-42.0253
-93.3092
-94.8271
-52.0363
-50.6207
-94.9194
-94.6538
-55.5427
-58.3338
-93.4186
-50.4996
-51.4844
-94.0745
-39.2466
-42.1669
-39.7404
-39.6073
-39.8248
-42.1626
-40.8997
-41.2658
-117.613
-130.71
-74.0348
-66.8684
-119.625
-66.8521
-74.0365
-130.75
-40.3317
-42.0283
-51.8644
-48.4821
-40.398
-48.5115
-51.8761
-42.0475
55.4309
-58.1228
-57.1229
85.5471
-24.4755
5.7071
-18.4967
-24.7707
-24.3841
-24.5357
-18.4879
5.71808
54.9042
85.4995
-57.1097
-58.0969
45.31
152.769
160.838
68.0688
200.045
205.187
188.573
178.585
199.488
178.986
188.613
205.178
44.5736
67.9461
161.131
152.079
-32.3661
-32.8031
-33.8475
-33.6562
-23.7422
-26.134
-32.3803
-31.5829
-37.6387
-38.9481
-35.7091
-35.4511
-41.0345
-36.5796
-37.7289
-41.3304
-32.1897
-33.4828
-33.6554
-32.6103
-40.8651
-41.1276
-37.5373
-36.4209
-37.3984
-35.061
-35.4577
-38.6805
-23.4522
-31.3432
-32.1401
-25.8864
-35.4335
-37.2865
-34.9841
-33.796
-35.3605
-33.7083
-34.9551
-37.2632
-33.7568
-35.3363
-34.3768
-33.0071
-33.9313
-33.1256
-34.4168
-35.3995
-76.7317
-67.9873
-106.638
26.3007
-48.3018
-61.474
-79.7241
-55.8639
-47.9325
-55.5471
-79.5997
-61.3519
-76.4066
26.3309
-106.565
-67.7182
-42.4547
-41.7944
-43.1413
-42.8366
-43.1666
-43.6754
-39.6869
-38.7282
-47.9809
-42.1871
-41.2403
-48.0909
-40.1958
-40.0687
-43.2499
-42.7575
-41.9305
-42.4424
-42.2003
-40.8406
-39.4634
-41.873
-42.3289
-39.4731
-45.6214
-45.4154
-39.8187
-40.8444
-40.0296
-37.1528
-38.1895
-40.8529
-37.7608
-36.5981
-37.2342
-38.685
-37.4403
-38.0283
-36.9888
-36.4837
-38.6648
-34.8794
-36.2797
-36.6574
-42.2998
-38.0521
-36.8651
-36.7961
-45.6799
-46.2047
-48.7847
-52.7617
-51.8955
-45.8136
-48.3747
-47.1533
-50.2508
-46.249
-48.0393
-44.9462
-45.2326
-52.639
-48.6206
-45.6655
-46.7305
-34.9263
-36.6841
-45.427
-40.7986
-40.852
-31.9481
-28.6271
-43.1921
-41.0137
-37.7983
-42.3549
-45.8644
-45.7971
-41.6521
-43.4248
-132.455
-91.9313
-148.675
-57.1244
-54.5881
-46.8442
-32.7715
98.1678
-129.899
-53.144
-47.8518
-50.4979
-91.9681
-132.788
-148.543
-48.3805
-51.3778
-42.6459
98.9383
-36.6437
-129.843
-45.289
-50.0348
-47.982
-34.6417
-32.1566
-32.6757
-35.4332
-42.5527
-23.9819
-36.282
-39.4878
-42.1883
-41.4465
-42.6712
-51.394
-38.9363
-38.8394
-39.5281
-44.0216
-34.5127
-35.3435
-32.0157
-32.5215
-42.218
-39.2417
-23.7222
-35.8672
-42.0375
-51.1361
-41.2888
-42.4978
-38.4275
-43.6095
-38.3569
-39.1045
-83.4887
-38.7357
-135.423
136.745
-109.354
-109.261
-180.581
-7.10245
-55.2708
-45.4483
-46.9476
-52.3419
-56.3802
-49.9019
-53.5844
-46.2394
-34.4196
-32.1994
-33.9396
-30.2069
-41.3514
-40.6199
-51.9086
-39.9402
159.909
158.112
114.001
185.769
-46.1883
-41.8472
-44.8641
-41.0896
-44.0537
-43.2752
-44.3854
-41.62
-42.4685
-41.9649
-41.9619
-44.3124
-86.0908
-58.7363
-133.445
135.445
-55.188
-45.4754
-46.8105
-52.3074
-52.0212
-46.2067
-50.1398
-43.0953
-39.9132
-39.6458
-50.4943
-38.8606
-46.3016
-41.6511
-44.6295
-41.0448
-41.3409
-41.0622
-40.9142
-43.4629
-32.1036
-31.5688
-32.1915
-32.6772
-35.0951
-36.4752
-37.9529
-35.036
-39.4628
-39.4524
-40.7726
-38.4006
-34.266
-35.4981
-32.0145
-38.6946
-36.6562
-36.6142
-35.9422
-36.6259
-43.3012
-41.8436
-41.4775
-52.8572
16.8122
16.8215
10.8083
24.7617
-57.124
-57.0619
-59.9493
-55.2441
-31.9329
-31.3766
-31.9839
-32.5554
-34.9276
-36.3153
-37.7934
-34.8671
-33.0703
-34.8354
-31.5076
-37.9909
-43.0763
-41.5942
-41.2454
-52.588
-48.9097
-45.089
-44.5731
-42.1915
-48.4399
-44.7
-44.1958
-41.8596
-67.7398
-61.456
-61.4531
-56.4978
-43.6864
-34.1572
-34.1519
-26.643
169.49
164.233
176.76
169.568
-34.0799
-35.1771
-34.2589
-35.9402
-33.8663
-34.9758
-34.0287
-35.7251
-34.6139
-34.8239
-34.5405
-34.5978
-107.417
-129.915
-92.0721
-107.375
-41.9398
-46.3293
-43.958
-43.8812
-40.5524
-45.0335
-42.7508
-42.8312
-36.7287
-37.1358
-36.9406
-36.8508
-48.1753
-48.259
-48.145
-48.5388
-36.6002
-34.9431
-35.4707
-34.9018
-106.859
-86.852
-139.832
104.396
-107.96
-107.78
-174.86
-7.15908
-78.6894
-67.1865
-56.4352
-78.2105
-56.8947
-53.5975
-46.9615
-46.4272
-48.7972
-41.2513
-41.3339
-44.7809
-40.3059
-37.7544
-39.1507
-39.1926
-41.2938
-17.8358
-124.615
174.31
153.111
153.265
101.387
182.657
-90.5103
-60.6327
-67.8204
-104.585
-51.4677
-51.3762
-53.5014
-46.0548
-46.2239
-45.9134
-45.9281
-45.8392
-45.9565
-43.6359
-44.6896
-48.2819
-110.037
-107.495
-175.139
-8.50462
-107.211
-87.8983
-139.054
103.803
-78.8897
-67.1471
-57.0521
-78.2356
-41.5944
-35.0714
-36.8107
-37.1409
-51.0853
-48.6357
-43.1604
-41.4782
-37.605
-35.893
-36.9131
-36.9591
150.351
155.072
101.338
182.495
-47.8343
-22.1216
-125.468
175.918
-90.374
-60.2272
-67.6267
-104.277
-44.6322
-44.4808
-44.678
-43.7083
-48.0646
-47.7459
-50.2968
-42.8298
-44.1325
-42.2182
-42.9951
-46.8525
-44.8146
-46.2971
-45.7577
-42.1725
-32.2418
-32.2615
-32.4011
-33.4733
-33.1536
-34.0476
-35.7058
-32.9856
-38.1085
-39.017
-40.0028
-37.5043
-39.857
-41.9935
-42.8036
-39.8445
-28.0621
-30.5472
-29.4802
-31.774
-26.5767
-31.8943
-19.0925
-45.2351
-36.7635
-36.706
-35.7267
-36.8872
-37.2514
-38.4083
-37.5371
-19.2294
-39.9749
-38.3319
-39.9586
-39.748
-43.7111
-43.819
-42.7585
-57.7772
7.51641
15.8013
7.1528
18.835
-42.9254
-41.9121
-41.6983
-43.9329
-37.6065
-36.9772
-36.7586
-38.0736
-39.8499
-40.7228
-39.2381
-46.9326
-47.4885
-54.8419
-53.723
-52.7146
-44.6885
-46.1958
-45.6669
-42.1115
-38.0541
-38.985
-39.9627
-37.4594
-32.0968
-32.1088
-32.2302
-33.3773
-32.9873
-33.8819
-35.5677
-32.8126
-39.3002
-41.2715
-42.1043
-39.3149
-36.5653
-36.5823
-35.5867
-36.6983
-27.8159
-30.3271
-29.2175
-31.6056
-25.7186
-30.7767
-18.9667
-44.5157
-37.1068
-38.2254
-37.3609
-19.1459
7.54098
15.8206
7.14683
18.8982
-39.8242
-38.1818
-39.8235
-39.5891
-43.5221
-43.6153
-42.5682
-57.5555
-42.3858
-41.1873
-41.1069
-43.3934
-47.128
-54.6688
-53.4429
-52.4862
-37.0903
-36.4232
-36.2968
-37.473
-39.5051
-40.4281
-38.9253
-46.6022
-73.7944
-49.7311
-58.8653
-58.6881
173.558
169.022
165.94
177.375
-108.884
-84.3548
-94.4993
-94.4999
137.152
160.549
160.648
161.778
-46.2403
-45.699
-50.725
-42.9269
-57.4737
-60.1813
-64.8142
-54.3862
-43.894
-40.3285
-40.6809
-42.5951
-45.9596
-44.6565
-45.5845
-45.2274
-35.6308
-36.2675
-35.8615
-36.408
-26.9585
-31.2493
-29.1009
-25.2128
-52.898
-50.3782
-44.9445
-43.4622
-38.2873
-37.567
-37.5718
-37.6318
-107.93
-75.6503
-118.368
-118.369
208.238
199.298
204.035
204.042
-44.2071
-44.1577
-41.443
-47.0457
-35.7735
-34.7467
-44.3635
-27.6075
-51.7131
-48.4718
-49.0469
-48.7566
-40.763
-37.1157
-38.4594
-40.5983
-41.9606
-42.9671
-41.5395
-43.4386
-46.8101
-47.9326
-47.6364
-47.8144
-73.4324
-48.7639
-58.5151
-58.1527
174.285
169.07
177.621
166.102
-45.9465
-45.3481
-50.3455
-42.648
-57.4577
-60.1713
-64.806
-54.3689
-41.6231
-38.6756
-40.6907
-38.701
-42.7166
-40.7606
-40.7031
-41.3225
-51.4712
-48.9961
-43.8148
-42.0441
-37.4347
-37.0089
-36.9992
-36.7634
-43.9246
-43.8225
-46.7235
-41.1689
-35.7518
-34.7334
-27.5902
-44.3509
-40.8643
-41.7987
-42.4312
-40.2912
-46.2801
-47.6042
-47.3189
-47.2772
-32.8308
-33.4113
-33.465
-32.7232
-33.7701
-34.3391
-34.274
-33.9843
-46.2793
-40.3398
-41.9887
-41.5428
-34.9734
-35.2597
-34.0836
-35.9656
-43.811
-48.7739
-45.7806
-45.7876
-36.6895
-35.5166
-36.012
-35.9991
-31.7775
-33.2446
-31.5311
-33.4787
-41.9213
-42.5925
-42.3048
-42.1678
-35.1486
-34.6593
-34.7975
-34.8209
-36.6931
-37.1621
-36.9495
-36.8657
-39.712
-39.081
-38.3146
-40.1437
-72.7553
-100.786
-106.8
-77.2962
0.618033
-11.3375
-5.0555
-5.05049
19.9014
-34.0342
0.0118918
0.0335291
-66.5654
-74.5619
-68.9224
-68.8592
-51.9074
-49.7311
-50.6052
-50.541
-32.6177
-33.1973
-33.2622
-32.495
-33.6864
-34.2889
-34.2118
-33.9116
-46.3472
-40.0684
-41.1426
-41.7463
-34.7995
-35.0763
-33.9031
-35.7889
-31.4694
-32.977
-33.1884
-31.2536
-41.3369
-41.7881
-41.6115
-41.4923
-39.4879
-38.8603
-39.9346
-38.0838
-72.4745
-100.761
-76.9732
-106.7
-72.7828
-57.5765
-58.6418
-48.8892
-43.6936
-50.6176
-41.8343
-43.0277
-39.0719
-39.1466
-38.9408
-40.5198
-74.3133
-61.6014
-57.789
-52.4215
-72.7499
-57.8947
-58.6433
-48.4684
-72.5906
-61.1755
-57.1657
-51.7845
-38.8573
-38.9864
-38.6969
-40.1649
-43.5557
-50.6426
-41.6133
-42.8842
-104.816
-87.9194
-92.5067
-80.6246
-104.838
-87.9268
-92.5239
-80.6294
-43.9409
-42.8455
-47.3688
-45.1544
-43.9765
-42.8802
-47.3939
-45.1758
-99.2575
-112.483
-114.285
-77.0868
-10.1921
-2.73736
-14.0115
-6.48116
-10.1564
-2.71451
-13.9902
-6.46603
-99.5129
-112.349
-114.189
-77.026
137.429
117.791
161.535
158.6
198.815
206.579
197.951
206.199
206.616
198.58
206.244
198.061
116.986
134.858
158.189
161.24
-33.0161
-33.1644
-33.4985
-33.5508
-29.9206
-28.3611
-31.4116
-30.4291
-36.6591
-37.5188
-37.803
-37.4551
-39.5491
-40.8904
-38.3447
-40.2565
-32.8366
-32.9873
-33.3136
-33.3702
-39.381
-40.709
-38.1711
-40.0706
-36.3165
-37.2107
-37.4943
-37.1711
-29.6511
-28.0839
-31.1536
-30.1454
-34.9508
-35.9369
-34.8917
-35.6708
-35.8876
-34.8857
-35.6319
-34.8369
-34.4582
-33.6715
-34.4636
-33.9604
-33.7916
-34.5666
-34.0477
-34.5364
-96.0673
1.40539
-58.0825
-3.54168
-55.6068
-58.2298
-64.502
-64.5656
-57.9347
-55.2914
-64.361
-64.3083
1.56467
-95.7927
-3.51852
-58.3646
-42.2733
-42.7512
-42.3332
-42.3875
-40.7772
-38.9143
-38.846
-38.1072
-45.2474
-43.8333
-43.2842
-42.3132
-41.8295
-40.5626
-43.0653
-41.966
-41.5444
-42.1257
-41.5052
-41.6773
-41.4209
-40.077
-42.2309
-41.3535
-43.1494
-42.054
-41.4292
-40.7423
-38.2904
-36.8056
-36.8188
-36.3586
-37.9806
-37.2398
-37.8928
-37.2417
-37.5706
-36.9732
-37.5044
-37.0005
-36.3604
-36.6327
-36.0362
-36.323
-38.7375
-38.671
-37.4977
-37.7081
-48.7232
-50.0671
-48.4525
-49.869
-54.9595
-50.5781
-49.9074
-49.1006
-54.0511
-49.4935
-49.1142
-48.3584
-48.3632
-49.8197
-48.1743
-49.6768
-44.2162
-42.3288
-42.5932
-38.7913
-34.6603
-37.557
-30.7987
-34.7766
-42.2548
-42.3215
-40.3779
-41.161
-45.6465
-45.3645
-45.0399
-44.09
-138.596
38.1211
-168.465
-21.3921
-96.4293
-111.655
-46.7978
-48.4922
-45.358
-50.2018
-43.1141
-42.8067
-127.222
180.8
69.8068
162.82
-95.4523
-36.1605
-52.2598
-46.3555
-47.2499
-45.9573
-47.9533
-51.6363
-168.938
-22.0884
-138.568
37.9806
-96.579
-111.687
-40.6116
-43.6164
-42.875
-43.0995
-39.8936
-39.2904
69.5709
162.888
-126.533
177.546
-95.862
-36.5555
-45.4678
-43.6133
-49.3616
-43.4525
-45.6978
-49.8155
-40.6487
-38.8532
-32.2337
-34.0847
-34.8296
-32.2654
-38.5061
-36.1471
-42.8256
-38.7992
-23.5063
-31.6588
-15.2368
-42.5883
-35.1974
-37.7229
-39.4777
-34.6998
-40.5645
-41.064
-42.0079
-60.6327
-15.5768
-55.758
-40.8025
-45.3417
-37.7151
-38.9525
-38.6066
-45.0338
-47.2121
-46.1454
-40.5226
-38.7623
-38.4395
-36.0764
-32.0663
-33.9931
-34.6861
-32.0919
-42.4036
-38.4309
-35.0011
-37.4539
-23.2085
-31.4616
-14.8819
-42.0725
-39.3485
-34.576
-15.6209
-54.8834
-40.4267
-40.8997
-41.8331
-60.4178
-40.2396
-44.8416
-46.8305
-45.7239
-37.2761
-38.383
-38.222
-44.6665
-135.614
125.789
-126.636
141.471
-94.842
-97.8078
160.753
170.37
-178.692
-6.17283
-178.807
-6.53934
-132.183
-132.197
62.3969
62.5281
-60.2847
-63.6161
-44.1617
-47.2309
-51.9467
-43.1781
-60.7967
-51.5383
-47.5445
-45.9756
-54.0489
-45.976
-45.6448
-48.5324
-46.1449
-45.9008
-36.8358
-36.3698
-34.0114
-30.8519
-34.7457
-35.7986
-30.5482
-26.9048
-38.8447
-38.166
-40.9933
-39.4159
-44.2002
-43.5117
-38.4768
-38.3814
107.886
179.208
107.851
179.424
84.4993
84.4364
205.535
205.534
-51.2362
-54.9629
-39.7412
-31.8374
-41.7955
-47.1743
-44.4126
-30.2852
-45.3018
-44.1627
-44.5209
-42.2666
-45.3321
-44.8735
-40.5007
-41.9447
-42.5252
-45.7086
-42.1871
-43.7545
-41.8756
-42.0595
-45.6573
-46.3727
-135.048
124.409
-146.97
136.952
-94.4665
-97.209
170.415
160.43
-60.0438
-63.582
-44.0576
-47.1896
-51.6779
-42.9913
-60.7748
-51.516
-44.0286
-41.9243
-50.6229
-42.5717
-45.7978
-42.8524
-42.6102
-42.5761
-37.2186
-36.6792
-40.0826
-38.6725
-43.0655
-42.0017
-37.6877
-37.2326
-51.2171
-54.9584
-39.5371
-31.9814
-46.9857
-41.5595
-30.2365
-44.3991
-41.2169
-44.612
-41.3352
-43.0873
-41.0979
-40.6774
-45.5883
-45.0547
-32.5043
-33.0458
-31.3135
-32.2595
-32.8043
-32.0666
-33.5706
-33.2315
-36.8099
-33.7534
-38.7853
-37.1423
-42.6786
-42.7132
-34.0413
-35.6949
-40.5276
-38.2
-40.5078
-38.1779
-42.2161
-42.2258
-37.4386
-37.427
-22.5242
-41.3146
-36.5254
-37.7224
-28.7229
-32.962
-42.4
-41.0313
-35.9263
-36.7115
-35.8551
-36.6145
-35.4573
-35.4871
-36.5262
-36.4686
-42.4273
-55.5665
-40.0556
-49.6679
-39.6422
-41.0341
-64.9511
-58.6459
10.2172
24.3417
10.1881
24.3687
6.19264
6.19821
26.9037
26.9209
-58.6858
-54.3973
-58.5655
-54.2761
-62.5883
-62.5274
-53.2627
-53.2012
-32.3182
-32.9392
-31.0796
-32.1169
-32.5989
-31.8412
-33.4771
-33.1228
-36.668
-33.5815
-38.6377
-36.9845
-42.8402
-42.6098
-33.8694
-35.5321
-22.6643
-39.5604
-36.0386
-37.1115
-32.5922
-28.4167
-41.9734
-40.4565
-42.2194
-55.3232
-39.7841
-49.3676
-40.8198
-39.4042
-58.3447
-64.6749
-55.0893
-53.1287
-49.702
-42.556
-41.5903
-47.5767
-40.9209
-40.3238
-54.4957
-52.5618
-49.2586
-42.2393
-47.1476
-41.2747
-40.0378
-40.6304
-74.6689
-74.6701
-67.0181
-55.9678
-67.0152
-55.9585
-52.2471
-52.253
-56.3841
-56.3773
-43.9817
-27.5269
-27.5179
-43.9712
-18.1701
-18.1652
163.972
176.678
161.324
161.684