# vtk DataFile Version 2.0
tet_velo
ASCII
DATASET UNSTRUCTURED_GRID
POINTS 29498 float
-0.710378 0.145 -1.755
-0.822201 0.195 1.835
-0.665 0.405 -1.78195
-0.78179 0.745 1.885
0.706777 0.145 -1.755
0.8186 0.195 1.835
0.665 0.405 -1.78097
0.778189 0.745 1.885
-0.765972 0.143347 -0.558333
-0.819609 0.143651 0.638333
-0.782424 0.596827 -0.559633
-0.854208 0.743015 0.662683
0.762384 0.143334 -0.558333
0.816037 0.143622 0.638333
0.779773 0.595377 -0.55898
0.85148 0.742687 0.66301
-1.48941 -0.143344 -2.72391
-1.48609 -0.0767789 -1.75639
-1.5441 -0.0777938 -0.560354
-1.60572 -0.100622 0.630576
-1.61828 -0.0772764 1.82618
-1.61842 -0.0391599 2.7916
-1.61822 0.00495626 3.76092
-1.478 0.0458478 -2.72802
-1.47244 0.133513 -1.75774
-1.5508 0.163119 -0.556722
-1.62114 0.16715 0.642033
-1.61812 0.193577 1.84256
-1.61964 0.231261 2.80834
-1.62102 0.274013 3.77682
-1.45888 0.38351 -2.74352
-1.44688 0.466299 -1.77444
-1.55947 0.620192 -0.555964
-1.64209 0.733188 0.664391
-1.6044 0.75203 1.8824
-1.61355 0.784108 2.84713
-1.62252 0.822759 3.8115
-1.47602 1.02842 -2.74739
-1.48251 1.13374 -1.77437
-1.53626 1.3192 -0.547722
-1.59785 1.48815 0.684497
-1.6216 1.57575 1.91094
-1.62379 1.61298 2.88351
-1.62499 1.64603 3.85071
-0.745008 -0.137295 -2.72211
-0.724278 -0.0664275 -1.75387
-0.759182 -0.086441 -0.560585
-0.802579 -0.117936 0.627407
-0.814077 -0.0828651 1.82058
-0.815584 -0.0440267 2.78781
-0.816367 8.31417e-05 3.75875
-0.742222 0.0442206 -2.7273
-0.819667 0.228062 2.80522
-0.820041 0.269849 3.77519
-0.72472 0.356703 -2.74642
-0.813521 0.780583 2.84768
-0.822872 0.819826 3.81166
-0.718532 1.00655 -2.75028
-0.712877 1.11138 -1.7776
-0.747575 1.30974 -0.549618
-0.798394 1.49273 0.684872
-0.822491 1.58068 1.9128
-0.824852 1.61514 2.88536
-0.826123 1.64673 3.85207
0.714773 -0.137482 -2.72191
0.737826 -0.0665296 -1.75381
0.779006 -0.0865258 -0.560546
0.81503 -0.117997 0.627434
0.81664 -0.0828995 1.8206
0.802765 -0.0440853 2.78785
0.793639 -1.25374e-05 3.75881
0.693665 0.0440626 -2.72703
0.795465 0.22802 2.80524
0.788427 0.26976 3.77525
0.687092 0.356497 -2.74584
0.780433 0.780526 2.84772
0.779735 0.819723 3.81173
0.771664 1.0061 -2.74979
0.794072 1.11083 -1.77709
0.815844 1.30912 -0.54919
0.810854 1.4923 0.685163
0.787877 1.58043 1.91298
0.779473 1.61495 2.8855
0.775967 1.64654 3.8522
1.45937 -0.143834 -2.72344
1.4837 -0.0772344 -1.75608
1.55006 -0.0782013 -0.560132
1.61266 -0.100849 0.630712
1.62206 -0.0774094 1.82626
1.61013 -0.0393189 2.7917
1.59899 0.00473939 3.76106
1.43655 0.0453556 -2.72743
1.45798 0.132965 -1.75731
1.54176 0.162527 -0.556413
1.61857 0.166912 0.642193
1.61861 0.193484 1.84262
1.60442 0.231127 2.80843
1.59434 0.273807 3.77696
1.42901 0.382894 -2.74253
1.44031 0.465465 -1.77331
1.55435 0.618657 -0.555123
1.63842 0.732606 0.664832
1.59949 0.751863 1.88253
1.58869 0.783934 2.84725
1.58464 0.822522 3.81167
1.52126 1.02751 -2.74646
1.54832 1.13267 -1.77343
1.59138 1.31805 -0.546927
1.60974 1.48732 0.685057
1.59508 1.57523 1.91131
1.58445 1.61256 2.88381
1.57879 1.64564 3.85098
-0.682074 0.275 -1.76286
-0.00180051 0.170234 -1.72977
-0.739265 0.143083 -1.15667
-0.824115 0.47 1.88212
-0.00180051 0.169334 1.86067
-0.828978 0.161252 1.23667
0 0.466864 -1.84332
-0.847556 0.624758 -1.17079
-0.00180051 0.754898 1.8949
-0.86391 0.789918 1.27384
0.679581 0.275 -1.76168
0.735685 0.143063 -1.15667
0.820491 0.47 1.8821
0.826338 0.160291 1.23667
0.855357 0.633158 -1.16998
0.860742 0.789752 1.27401
-0.792777 0.143512 0.04
-0.857203 0.370087 -0.558983
-0.00179436 0.141275 -0.558333
-0.891662 0.443333 0.650508
-0.00178598 0.141133 0.638333
-0.802009 0.653614 0.051525
-0.00132531 0.87173 -0.559307
-0.00136404 0.956915 0.662847
0.789176 0.143513 0.04
0.862329 0.369356 -0.558657
0.888214 0.443155 0.650672
0.799171 0.652577 0.052015
-0.849613 0.322543 -1.16373
-0.816758 0.40671 0.0457625
-0.890481 0.456667 1.25525
-0.00179743 0.147566 -1.15667
-0.00179017 0.141219 0.04
-0.00179324 0.139974 1.23667
-0.000900254 0.275 -1.87593
-0.00180051 0.47 2.00664
-0.000662653 0.668833 -1.17038
-0.00134467 1.03358 0.05177
-0.00158227 0.797513 1.27392
0.85815 0.322178 -1.16332
0.813438 0.406255 0.0460075
0.890558 0.456577 1.25534
-1.09141 0.139256 -1.75637
-0.717328 0.0392862 -1.75444
-0.7263 0.0946103 -2.24115
-1.22016 0.194289 1.83878
-0.818139 0.0560674 1.82779
-0.820934 0.211531 2.32011
-1.05594 0.43565 -1.7782
-0.69486 0.380852 -2.26418
-0.688939 0.758188 -1.77977
-1.1931 0.748515 1.8837
-0.797655 0.762791 2.36634
-0.80214 1.16284 1.8989
0.722301 0.0392352 -1.7544
0.700221 0.0945313 -2.24102
1.08238 0.138982 -1.75615
0.81762 0.0560502 1.8278
0.807032 0.21151 2.32012
1.21861 0.194242 1.83881
0.676046 0.380749 -2.2634
0.729536 0.757913 -1.77903
1.05266 0.435232 -1.77714
0.779311 0.762763 2.36636
0.783033 1.16271 1.89899
1.18884 0.748431 1.88377
-1.15839 0.153233 -0.557528
-0.762577 0.0284528 -0.559459
-1.22037 0.155401 0.640183
-0.811094 0.0128576 0.63287
-1.17095 0.608509 -0.557799
-0.765 0.953286 -0.554626
-1.24815 0.738101 0.663537
-0.826301 1.11787 0.673778
0.770695 0.0284042 -0.55944
1.15207 0.152931 -0.557373
0.815534 0.0128126 0.632884
1.2173 0.155267 0.640263
0.797808 0.952248 -0.554085
1.16706 0.607017 -0.557051
0.831167 1.11749 0.674087
1.24495 0.737647 0.663921
-1.48775 -0.110062 -2.24015
-1.48371 -0.0487483 -2.72596
-1.11721 -0.14032 -2.72301
-1.5151 -0.0772863 -1.15837
-1.47926 0.0283668 -1.75706
-1.10518 -0.0716032 -1.75513
-1.57491 -0.0892078 0.035111
-1.54745 0.0426624 -0.558538
-1.15164 -0.0821174 -0.560469
-1.612 -0.0889491 1.22838
-1.61343 0.033264 0.636305
-1.20415 -0.109279 0.628992
-1.61835 -0.0582181 2.30889
-1.6182 0.0581504 1.83437
-1.21618 -0.0800707 1.82338
-1.61832 -0.0171018 3.27626
-1.61903 0.0960506 2.79997
-1.217 -0.0415933 2.7897
-1.61962 0.139485 3.76887
-1.2173 0.0025197 3.75983
-1.47522 0.0896802 -2.24288
-1.46844 0.214679 -2.73577
-1.11011 0.0450342 -2.72766
-1.51162 0.148316 -1.15723
-1.45966 0.299906 -1.76609
-1.58597 0.165134 0.0426558
-1.55514 0.391655 -0.556343
-1.61963 0.180363 1.2423
-1.63161 0.450169 0.653212
-1.61888 0.212419 2.32545
-1.61126 0.472804 1.86248
-1.62033 0.252637 3.29258
-1.61659 0.507684 2.82773
-1.21965 0.229662 2.80678
-1.62177 0.548386 3.79416
-1.22053 0.271931 3.776
-1.45288 0.424905 -2.25898
-1.46745 0.705967 -2.74545
-1.0918 0.370107 -2.74497
-1.50318 0.543246 -1.1652
-1.46469 0.800021 -1.77441
-1.60078 0.67669 0.0542137
-1.54786 0.969696 -0.551843
-1.62325 0.742609 1.2734
-1.61997 1.11067 0.674444
-1.60898 0.768069 2.36477
-1.613 1.16389 1.89667
-1.61803 0.803433 3.32932
-1.61867 1.19854 2.86532
-1.21354 0.782345 2.84741
-1.62375 1.2344 3.8311
-1.22269 0.821292 3.81158
-1.47926 1.08108 -2.26088
-1.09727 1.01749 -2.74884
-1.50938 1.22647 -1.16105
-1.09769 1.12256 -1.77599
-1.56705 1.40368 0.0683876
-1.14192 1.31447 -0.54867
-1.60972 1.53195 1.29772
-1.19812 1.49044 0.684685
-1.62269 1.59436 2.39722
-1.22204 1.57821 1.91187
-1.62439 1.6295 3.36711
-1.22432 1.61406 2.88444
-1.22555 1.64638 3.85139
-0.734643 -0.101861 -2.23799
-0.743615 -0.0465374 -2.72471
-0.0151176 -0.137389 -2.72201
-0.74173 -0.0764343 -1.15723
0.00677413 -0.0664786 -1.75384
-0.78088 -0.102189 0.0334112
0.00991206 -0.0864834 -0.560565
-0.808328 -0.100401 1.22399
0.00622579 -0.117967 0.627421
-0.814831 -0.0634459 2.30419
0.00128149 -0.0828823 1.82059
-0.815976 -0.0219718 3.27328
-0.817626 0.0920178 2.79651
-0.00640973 -0.044056 2.78783
-0.818204 0.134966 3.76697
-0.0113642 3.53022e-05 3.75878
-0.733471 0.200462 -2.73686
-0.0242784 0.0441416 -2.72717
-0.819854 0.248956 3.2902
-0.816594 0.504323 2.82645
-0.0121012 0.228041 2.80523
-0.821457 0.544838 3.79342
-0.0158071 0.269805 3.77522
-0.721626 0.681628 -2.74835
-0.0188138 0.3566 -2.74613
-0.818196 0.800204 3.32967
-0.819187 1.19786 2.86652
-0.0165437 0.780554 2.8477
-0.824497 1.23328 3.83186
-0.0215687 0.819775 3.81169
-0.715705 1.05896 -2.26394
0.026566 1.00633 -2.75004
-0.730226 1.21056 -1.16361
0.0405976 1.1111 -1.77734
-0.772985 1.40124 0.0676272
0.034134 1.30943 -0.549404
-0.810443 1.53671 1.29884
0.00622969 1.49252 0.685018
-0.823672 1.59791 2.39908
-0.017307 1.58056 1.91289
-0.825488 1.63094 3.36871
-0.0226899 1.61504 2.88543
-0.0250779 1.64663 3.85213
0.726299 -0.102006 -2.23786
0.704219 -0.04671 -2.72447
1.08707 -0.140658 -2.72267
0.758416 -0.0765277 -1.15718
1.11076 -0.071882 -1.75494
0.797018 -0.102261 0.0334442
1.16453 -0.0823635 -0.560339
0.815835 -0.100448 1.22402
1.21384 -0.109423 0.629073
0.809702 -0.0634924 2.30422
1.21935 -0.0801544 1.82343
0.798202 -0.0220489 3.27333
0.799115 0.0919673 2.79655
1.20645 -0.0417021 2.78978
0.791033 0.134874 3.76703
1.19631 0.00236343 3.75994
0.690379 0.20028 -2.73643
1.06511 0.0447091 -2.72723
0.791946 0.24889 3.29025
0.787949 0.504273 2.82648
1.19994 0.229573 2.80683
0.784081 0.544742 3.79349
1.19138 0.271784 3.7761
0.729378 0.681297 -2.74781
1.05805 0.369696 -2.74418
0.780084 0.800124 3.32973
0.779953 1.19774 2.86661
1.18456 0.78223 2.84749
0.777851 1.23313 3.83197
1.18219 0.821122 3.8117
0.782868 1.05846 -2.26344
1.14646 1.0168 -2.74813
0.804958 1.20997 -1.16314
1.1712 1.12175 -1.77526
0.813349 1.40071 0.0679867
1.20361 1.31358 -0.548059
0.799365 1.53637 1.29907
1.2103 1.48981 0.68511
0.783675 1.59769 2.39924
1.19148 1.57783 1.91214
0.77772 1.63074 3.36885
1.18196 1.61375 2.88466
1.17738 1.64609 3.85159
1.47153 -0.110534 -2.23976
1.44796 -0.0492391 -2.72543
1.51688 -0.0777178 -1.1581
1.47084 0.0278651 -1.75669
1.58136 -0.0895252 0.0352902
1.54591 0.042163 -0.558272
1.61736 -0.0891293 1.22849
1.61561 0.0330313 0.636453
1.61609 -0.0583641 2.30898
1.62033 0.0580375 1.83444
1.60456 -0.0172897 3.27638
1.60727 0.095904 2.80006
1.59666 0.139273 3.76901
1.44726 0.0891601 -2.24237
1.43278 0.214125 -2.73498
1.49987 0.147746 -1.15686
1.44915 0.299215 -1.76531
1.58017 0.164719 0.0428902
1.54806 0.390592 -0.555768
1.61859 0.180198 1.24241
1.6285 0.449759 0.653513
1.61152 0.212306 2.32552
1.60905 0.472673 1.86258
1.59938 0.252467 3.29269
1.59655 0.50753 2.82784
1.58949 0.548165 3.79431
1.43466 0.42418 -2.25792
[...]
POINT_DATA 29498
VECTORS point_vectors float
-2.16252 -4.32197 9.72944
0.081526 0.262426 0.851075
-2.67188 1.41801 3.57869
0.10154 -0.493805 1.87019
2.17562 -4.12289 9.28246
-0.0389569 0.232086 0.815195
2.64934 1.35705 3.58619
-0.114027 -0.508177 2.00133
-6.99421e-06 7.6908e-07 0.000137549
0.133577 -0.174396 1.55296
0 0 0
0.438917 0.764309 1.23952
0.000298773 3.3294e-05 0.00430037
-0.124772 -0.188163 1.38893
0 0 0
-0.466922 0.853929 1.38531
-0.528285 -0.198889 19.8362
-1.09995 -0.543043 20.2787
-0.526458 -0.348404 20.9712
-0.138647 -0.160661 21.1051
0.35575 0.0684101 21.1514
0.604165 0.169934 20.8321
0.609632 0.164398 20.7069
-0.590655 -0.155896 19.7765
-1.38111 -0.451914 20.2041
-0.65397 -0.34666 21.0282
-0.180299 -0.17674 21.1328
0.432829 0.0120158 21.1921
0.729964 0.0434708 20.9567
0.616028 -0.0210547 21.1591
-0.610022 -0.027208 19.7087
-1.6328 -0.0600929 20.0567
-0.903776 -0.173826 21.0297
-0.320643 -0.125924 21.1836
0.409868 -0.215396 21.1855
0.663666 -0.294739 20.9148
0.535313 -0.260543 20.8964
-0.528807 0.217903 19.7973
-1.05697 0.508776 20.0908
-0.873238 0.298355 20.8698
-0.29241 0.0783718 21.1029
0.129641 -0.206495 21.0569
0.262024 -0.306723 20.8769
0.308824 -0.316463 20.6566
-0.551596 -0.513507 19.2749
-1.82735 -3.48271 20.6646
-0.229443 -0.267238 19.7793
-0.0521786 -0.0887411 19.407
0.267232 0.922107 18.4712
0.657993 1.37043 18.0066
0.669046 1.06445 18.0907
-0.637143 -0.399319 19.1093
1.10551 1.32197 10.7944
1.30807 0.678965 13.4095
-0.657563 -0.0610993 18.9495
1.38311 -0.803564 12.4463
0.967744 -0.961499 15.1943
-0.504831 0.474491 19.2605
-1.46038 1.98131 19.3407
-1.68835 1.65764 21.0882
-0.342563 0.346035 21.5489
0.105038 -0.375222 21.2356
0.269737 -0.6312 20.8275
0.202913 -0.617097 20.3135
0.539461 -0.526399 19.2473
1.86578 -3.40881 20.6152
0.232524 -0.267421 20.0345
0.0612165 -0.110466 19.4896
-0.261799 0.931286 18.4898
-0.632699 1.38494 17.8624
-0.631388 1.09185 17.8896
0.615297 -0.409175 19.0552
-1.06026 1.38629 9.9828
-1.35283 0.720098 12.6936
0.651276 -0.0597709 18.8981
-1.36107 -0.877759 11.4744
-0.980994 -1.02594 14.6956
0.528912 0.440045 19.312
1.5325 1.79609 19.415
1.6701 1.46135 21.098
0.351318 0.34101 21.5367
-0.0997127 -0.382853 21.2385
-0.258137 -0.640471 20.8453
-0.175427 -0.637359 20.3643
0.534096 -0.208305 19.8212
1.10619 -0.550887 20.2737
0.524714 -0.343781 20.9745
0.142763 -0.160449 21.0968
-0.356734 0.0667043 21.154
-0.617803 0.189604 20.8165
-0.614589 0.154596 20.673
0.589373 -0.159996 19.7566
1.40881 -0.47008 20.195
0.652849 -0.347517 21.0457
0.182524 -0.175096 21.1284
-0.437015 0.016971 21.1968
-0.744443 0.0491423 20.942
-0.639336 -0.036678 21.1536
0.619014 -0.0312439 19.688
1.65976 -0.061374 20.0428
0.901119 -0.176787 21.0438
0.318959 -0.127121 21.1787
-0.419561 -0.219439 21.1927
-0.693211 -0.311445 20.9056
-0.537213 -0.263555 20.8656
0.529201 0.211072 19.8234
1.00609 0.447544 20.1239
0.821357 0.279395 20.8616
0.289535 0.0747533 21.1004
-0.129083 -0.21273 21.0519
-0.263938 -0.311411 20.8985
-0.31182 -0.322374 20.6794
-1.93813 -0.238271 1.50014
3.75637e-05 -0.00364898 0.0279478
-0.0253761 0.00519518 0.258407
0.0904867 0.033369 0.27348
0.00184585 0.0432952 0.25193
-0.0110401 0.0416049 0.929744
0 0 0
-0.819607 -0.279904 3.80262
0.00193412 0.00593702 0.0313273
0.136526 0.110307 1.41479
1.57911 -0.206872 1.2568
0.01702 0.00284321 0.163571
-0.0845744 0.0232281 0.267876
0.00982237 0.0498223 0.696085
1.32113 -0.00720694 4.85717
-0.09278 0.0961395 1.06961
-0.00528871 0.00254291 0.155251
0.0359075 0.0435678 0.50489
-1.14985e-06 7.48848e-07 -0.000135296
0 0 0
6.70046e-08 -4.36058e-08 2.0915e-05
0.298995 0.443625 1.42938
3.73885e-06 0.000737148 0.00169315
9.26319e-05 -0.000400041 0.00191607
0.00421208 0.00151317 0.147903
-0.052128 0.0480995 0.618893
0 0 0
-0.26086 0.408087 1.29008
0 0 0
0 0 0
0.000572287 0.00338838 0.0453076
0 0 0
8.45715e-08 -4.80212e-08 1.39123e-05
1.38252e-07 4.96435e-07 8.52936e-05
-0.000234576 -0.0485391 0.0536719
0 0 0
9.45241e-07 0.000514162 0.00208323
0 0 0
1.03229e-05 -0.00016205 0.000579343
0 0 0
0 0 0
-3.93624e-05 0.000222662 0.00324343
-2.70085 -1.32045 19.9393
-2.65001 -5.37543 21.1938
-1.73621 -1.29775 18.0454
0.824864 0.211809 20.9295
0.271178 1.08988 12.5862
0.458829 1.11534 7.97937
-3.52939 0.0242905 19.3362
-1.91282 0.0115618 17.4075
-2.81739 3.16262 18.2601
0.800762 -0.36561 20.8071
0.836985 -0.74371 8.75215
0.192671 -0.622288 20.9213
2.6549 -5.29479 21.0588
1.72763 -1.36693 17.93
2.75279 -1.36319 19.9083
-0.24455 1.11112 12.5368
-0.372716 1.11721 7.41244
-0.838079 0.227509 20.9235
1.91548 0.0221356 17.317
2.8887 2.88122 18.377
3.5471 0.021241 19.3082
-0.779238 -0.812505 8.0624
-0.179767 -0.625547 20.8468
-0.83069 -0.379679 20.7821
-0.592549 -0.688387 21.3064
-0.349783 0.0617068 13.3674
-0.243387 -0.327493 20.9901
0.0474252 -0.0724235 13.7683
-1.29363 -0.670997 21.4594
-3.37338 1.37038 20.8868
-0.598884 -0.221691 21.3205
-0.628722 0.487731 21.6281
0.43235 0.0885727 13.5795
0.566203 -0.672774 21.2991
-0.0787012 -0.142082 13.889
0.256388 -0.32029 20.9403
3.26014 1.11205 20.9765
1.24282 -0.687754 21.4681
0.64474 0.487754 21.6237
0.591349 -0.226297 21.2833
-0.845182 -0.372324 19.9331
-0.566953 -0.182153 19.8141
-0.60959 -0.327109 19.5722
-0.884138 -0.502817 20.7973
-1.26055 -0.516569 20.2427
-1.7466 -1.3731 20.2222
-0.300924 -0.241333 21.0405
-0.596983 -0.354903 20.9908
-0.427986 -0.564692 21.2434
0.0819219 -0.0530898 21.1878
-0.155319 -0.17012 21.1101
-0.0954834 -0.245924 21.2315
0.5231 0.14683 21.019
0.382886 0.0506911 21.1364
0.565198 0.330057 21.2538
0.645906 0.202317 20.7455
0.639633 0.119496 20.905
0.907154 0.521476 20.6576
0.61283 0.0716715 20.933
0.982521 0.374717 20.0931
-0.99299 -0.28351 19.8374
-0.597643 -0.0988534 19.7299
-0.658034 -0.270627 19.4911
-1.13683 -0.457749 20.8238
-1.5943 -0.296622 20.1131
-0.372821 -0.25442 21.068
-0.787253 -0.288823 21.0521
0.0938194 -0.0833392 21.2439
-0.268487 -0.164942 21.1715
0.622918 0.0409932 21.0978
0.44514 -0.112416 21.1847
0.742556 0.0264728 20.4636
0.728103 -0.141791 20.8942
1.25893 0.317332 20.395
0.706854 -0.169688 21.147
1.1757 0.063988 19.391
-1.0671 -0.0536667 19.7152
-0.579532 0.124001 19.723
-0.719052 -0.020816 19.3707
-1.4188 -0.108637 20.7806
-1.44064 0.351848 20.0186
-0.57544 -0.166986 21.1143
-1.00772 0.089506 20.9588
0.0262194 -0.149097 21.2801
-0.350482 -0.0162929 21.174
0.591752 -0.266739 21.062
0.260454 -0.246986 21.1103
0.656795 -0.323877 20.4611
0.45396 -0.373247 20.7723
1.08087 -0.556626 20.4943
0.345952 -0.312915 20.2932
0.96476 -0.424213 20.109
-0.811827 0.366861 19.8559
-0.567476 0.348898 19.5574
-1.09264 0.461778 20.5554
-1.4445 1.07058 19.7998
-0.58153 0.189975 21.0477
-1.3083 0.742197 21.0096
-0.0549645 -0.0714916 21.115
-0.371943 0.186941 21.3179
0.212605 -0.287836 20.9063
0.128904 -0.30874 21.1093
0.313058 -0.313037 20.7199
0.313429 -0.478894 20.827
0.20553 -0.414299 20.8231
-1.25341 -1.46629 18.8763
-0.59775 -0.473777 19.1989
-0.0170819 -0.723161 18.8905
-0.401332 -0.987979 20.9408
0.0362925 -4.72326 21.6933
-0.166167 -0.106042 19.3899
0.00880004 -0.524624 16.8491
0.0154853 0.283706 18.6689
-0.00289597 -0.212505 16.0016
0.387751 1.18188 17.7775
0.00674755 0.412986 14.1063
0.950141 1.21804 17.4069
0.896945 1.44014 14.8777
0.00986887 0.665345 12.6324
1.06152 0.880612 15.2407
0.0421127 1.23171 12.3139
-0.658984 -0.253831 19.0009
-0.0327169 -0.580339 18.5983
1.52629 1.49851 12.5709
1.60483 0.288305 7.89481
-0.0228991 -0.180865 -0.586253
1.59102 0.193821 13.3052
0.0138801 -0.029729 2.98319
-0.634913 0.27461 18.9839
-0.0278784 -0.0780578 18.3666
1.79882 -1.04145 14.24
0.458248 -0.931263 20.555
0.0239658 -0.422594 1.77922
0.414064 -0.780073 20.835
0.0945819 -0.628323 7.15901
-0.906855 1.10515 19.0542
0.0248569 0.662453 18.9435
-1.71732 2.15618 20.3866
0.09277 2.96244 18.926
-0.988011 0.97287 21.6077
0.125892 3.73454 20.9118
-0.0316213 -0.0852553 21.3726
0.00137011 0.396324 21.9374
0.17853 -0.535831 21.0819
0.00233412 -0.431879 21.4563
0.304095 -0.637349 20.662
0.0132407 -0.742813 20.9705
-0.00209614 -0.622923 20.9754
1.24551 -1.48188 18.8674
0.581621 -0.484422 19.1612
0.613235 -0.341382 19.5542
0.362379 -1.01717 20.8974
1.72922 -1.35322 20.2106
0.190567 -0.0777192 19.5316
0.436018 -0.547342 21.2496
-0.0193695 0.272637 18.7032
0.104518 -0.244557 21.2128
-0.368821 1.19225 17.7399
-0.564274 0.334001 21.2572
-0.904018 1.27431 17.2205
-0.839622 1.44997 14.4438
-0.904489 0.555425 20.6024
-1.0327 0.911839 15.0203
-0.999352 0.425712 20.0609
0.641671 -0.263877 18.954
0.667926 -0.288823 19.4549
-1.54923 1.56836 11.9787
-1.63966 0.288989 6.91191
-1.29899 0.378973 20.0906
-1.64739 0.226137 12.4687
-1.17605 0.148812 19.2512
0.642457 0.271185 18.9972
0.72638 -0.0225171 19.3431
-1.87855 -1.09032 13.7395
-0.462694 -0.94205 20.4225
-1.15121 -0.575395 20.1957
-0.403694 -0.812722 20.3384
-0.971261 -0.486603 19.6264
0.943014 1.01285 19.1343
0.56051 0.327251 19.5834
1.75562 1.89404 20.4496
1.37598 0.91585 19.8789
0.991517 0.909946 21.563
1.22245 0.642851 20.9901
0.03228 -0.0848532 21.3769
0.372132 0.17934 21.3091
-0.168658 -0.544861 21.0924
-0.125057 -0.317356 21.1199
-0.279376 -0.664336 20.6733
-0.307197 -0.498403 20.8222
-0.215388 -0.434407 20.6903
0.855068 -0.387542 19.9174
0.5665 -0.187306 19.7951
0.893555 -0.50631 20.7976
1.27818 -0.532115 20.2374
0.293515 -0.237175 21.0418
0.596722 -0.351404 20.9997
-0.07639 -0.0558778 21.1917
0.158769 -0.168366 21.1042
-0.529292 0.147047 21.0158
-0.386483 0.0552962 21.1487
-0.66836 0.202743 20.7667
-0.656134 0.141982 20.8878
-0.626962 0.0589592 20.9133
1.01679 -0.292739 19.8062
0.606378 -0.102741 19.7075
1.1615 -0.479067 20.8423
1.6263 -0.306388 20.0997
0.361477 -0.251294 21.0698
0.782334 -0.292937 21.0692
-0.0887953 -0.0855032 21.2421
0.267212 -0.165681 21.1674
-0.632608 0.0426449 21.0964
-0.452654 -0.113135 21.1905
-0.763925 0.0303375 20.5212
-0.756064 -0.143913 20.8825
-0.73345 -0.182017 21.1447
1.0884 -0.0545922 19.6913
0.57901 0.121394 19.7273
1.448 -0.111306 20.7921
1.39195 0.321373 20.0437
0.565497 -0.172024 21.115
0.971953 0.0893295 20.9519
-0.0241368 -0.148965 21.287
0.347045 -0.0175652 21.1721
-0.60528 -0.273614 21.0602
-0.264504 -0.256431 21.1118
-0.68173 -0.338826 20.5226
-0.463062 -0.393059 20.7895
-0.342578 -0.313211 20.2577
0.77897 0.334462 19.8942
1.02933 0.413418 20.5612
0.558587 0.18414 21.0334
0.057218 -0.073946 21.1192
-0.211834 -0.296598 20.922
-0.316044 -0.324573 20.6936
-0.919938 -0.339547 19.8889
-1.49446 -1.49462 18.5219
-1.13909 -0.730836 19.5652
-1.38729 -0.609109 19.3113
-0.635467 -0.296611 19.5268
-2.16129 -1.42221 20.1044
-1.01223 -0.493726 20.8086
-0.233438 -0.292534 15.0049
-1.00465 -1.06388 21.1984
-1.62276 -1.24904 21.4644
-0.489437 -0.633714 21.2823
-0.335607 -0.254239 21.05
-0.207451 0.0627063 13.4548
-0.217312 -0.345604 21.1747
-0.292834 -0.428407 21.0842
-0.145642 -0.303591 21.1491
0.0844656 -0.063471 21.2139
-0.119195 0.389541 12.436
0.176677 0.00491605 21.3413
0.204697 -0.0675841 21.0394
0.706132 0.294934 21.1005
0.560823 0.109691 21.0436
0.506095 1.32097 13.7551
0.78625 0.480217 21.0901
1.102 0.333261 20.6369
1.13591 0.433352 20.5922
0.692391 0.127334 20.5726
1.25547 1.40944 14.813
0.927315 0.387535 20.6733
1.22928 0.140312 20.3026
1.07604 0.247676 19.9298
-1.05943 -0.175162 19.7545
-1.89839 -0.738627 17.6272
-1.55993 -0.0369969 19.0283
-0.702512 -0.176534 19.4197
-3.36893 -0.822272 19.6074
-1.32257 -0.349822 20.8373
-2.6185 -0.317441 21.3306
-0.873161 -0.677268 21.4983
-0.482157 -0.229932 21.1016
-0.798697 -0.535804 21.3149
-0.421176 -0.322955 21.1538
0.0582066 -0.130558 21.2689
0.0175641 -0.198072 21.2495
0.93757 -0.0357751 20.6315
0.657865 -0.117481 21.0363
0.490524 0.222153 4.40088
1.00547 -0.498774 20.7523
1.41367 -0.106016 19.9411
0.75651 -0.128228 20.7921
1.8174 0.185056 13.0823
0.951753 -0.534766 20.7402
1.16868 -0.138119 19.2559
-0.99767 0.231351 19.7396
-1.44936 1.02305 18.2141
-0.987013 0.686857 19.515
-0.667821 0.190418 19.3986
-2.36812 1.05148 19.4825
-1.3981 0.244945 20.6496
-3.37756 3.0304 20.7364
-1.56058 1.02874 20.5526
-1.7395 0.190315 21.219
-0.666804 0.0250749 21.1036
-1.97697 0.892542 21.4534
-0.82886 0.437603 21.2647
-0.553145 0.0956653 21.4377
-0.0386757 -0.116822 21.2055
-0.0440354 -0.114267 21.3591
-0.0514076 -0.0877538 21.2523
0.281153 -0.456067 21.3102
0.388555 -0.335643 20.9816
0.325372 -0.817498 20.8523
0.242213 -0.413429 20.9913
0.52831 -0.644111 20.9847
0.401255 -0.43126 20.7257
0.441898 -0.869307 20.976
0.321316 -0.511382 20.5575
0.586225 -0.601774 20.5662
1.47947 -1.54137 18.4687
-0.0103378 -2.51129 18.1207
-0.0365462 -2.57213 16.2785
-0.0190735 -0.676538 18.75
0.0301502 -5.20637 20.0164
0.207632 -0.36026 15.2384
0.0217939 -1.18867 18.7915
0.00270587 -0.161444 8.65168
0.269962 0.104312 13.582
0.00486289 -0.326672 16.0743
-0.0074115 -0.0671894 8.88197
0.159151 0.428316 12.4364
-0.00408631 -0.0130978 14.9194
0.0137488 0.412087 6.71597
-0.440851 1.32511 13.4452
0.00993416 0.347838 13.0688
-0.010573 -0.555175 0.123171
-0.0120769 0.307617 6.12463
-1.22939 1.44576 14.5377
0.0185135 0.971452 12.6055
-0.0357423 0.384244 0.474893
0.029551 0.571311 7.38421
1.90836 -0.752618 17.5276
-0.0383231 0.287442 15.3406
-0.0290591 -0.354478 18.4298
-0.460759 0.182935 3.759
-0.00985742 0.305995 0.456404
-0.0176059 -0.430179 -3.73276
-1.82139 0.185668 12.5675
0.0440454 -1.14337 3.7058
0.0371567 -1.04677 -1.70863
1.46222 0.982785 18.2805
0.0511194 1.63238 18.5384
0.00626815 0.408084 18.5561
0.0748943 4.83013 17.7765
3.38569 2.75198 20.7893
0.12426 3.37344 19.9619
0.159755 5.62142 17.6953
1.93882 0.794536 21.3133
0.0408462 1.92287 22.3433
-0.00929555 -0.277117 14.5627
0.0472658 -0.107008 21.3466
-0.000941123 -0.151772 21.7155
0.0139104 -0.733234 15.0218
-0.323539 -0.814301 20.7089
0.00452197 -0.621655 21.2912
0.0256857 -1.12206 17.2471
-0.478174 -0.911284 20.401
0.0133674 -0.778014 20.718
0.0272658 -0.943886 18.4762
0.935728 -0.352794 19.8679
1.14381 -0.743824 19.5427
1.41191 -0.629 19.2526
0.645162 -0.314458 19.4938
2.16085 -1.43833 20.0894
1.03013 -0.506757 20.8184
1.03301 -1.07115 21.1927
1.68305 -1.31447 21.5012
0.485104 -0.615425 21.3144
0.325274 -0.247587 21.0541
0.211286 -0.324523 21.1686
0.260177 -0.406144 21.0457
0.159019 -0.301402 21.1327
-0.0773242 -0.0677075 21.2079
-0.164901 -0.00233151 21.3507
-0.190498 -0.0666745 21.0303
-0.708108 0.303446 21.1057
-0.566507 0.115794 21.0396
-0.790292 0.493947 21.0759
-1.12658 0.362114 20.5071
-1.166 0.477464 20.4908
-0.70942 0.128912 20.6161
-0.943971 0.440726 20.6002
-1.25258 0.227125 19.8434
-1.08044 0.336493 19.9047
1.07865 -0.182428 19.7286
1.58322 -0.0396255 18.9819
0.710519 -0.180116 19.3882
3.41113 -0.850339 19.5719
1.35531 -0.359718 20.854
2.69648 -0.293225 21.3557
0.838666 -0.671198 21.535
0.469328 -0.23312 21.0995
0.762262 -0.558996 21.2686
0.416751 -0.309806 21.105
-0.0560748 -0.131126 21.2746
-0.0109065 -0.192432 21.2275
-0.971427 -0.0261545 20.599
-0.675369 -0.119989 21.0337
-1.05043 -0.513238 20.6157
-1.46996 -0.072377 19.5051
-0.796514 -0.133652 20.9065
-1.02583 -0.585163 20.1731
-1.24121 -0.082714 19.0649
0.986765 0.221325 19.7578
0.953665 0.61743 19.5704
0.669336 0.187478 19.4045
2.27336 0.940571 19.5441
1.35403 0.225243 20.6433
1.49886 0.907449 20.5698
1.66373 0.154186 21.2228
0.64815 0.0199216 21.0979
0.801752 0.392513 21.2399
0.552589 0.0882502 21.4294
0.0394901 -0.119696 21.2097
0.0543957 -0.0867689 21.2576
-0.280793 -0.475655 21.3259
-0.39397 -0.349541 20.9838
-0.235369 -0.429467 20.9962
-0.531049 -0.688929 20.9722
-0.410698 -0.453533 20.6884
-0.314962 -0.521129 20.6427
-0.568024 -0.626191 20.5876
-1.26004 -0.685084 19.4307
-1.24927 -1.20018 21.3241
-0.238217 -0.402192 21.1725
0.203093 -0.0302199 21.2222
0.986988 0.4509 20.7276
1.06761 0.259397 20.8383
-1.52856 -0.351913 19.108
-2.1821 -0.875072 21.5048
-0.435618 -0.478067 21.0841
0.14351 -0.15688 21.085
1.2497 -0.0743931 20.4343
1.2376 -0.175163 20.1549
-1.33362 0.464086 19.2074
-2.40155 0.779489 20.8168
-1.13881 0.0900585 21.3835
-0.072107 -0.144948 21.4541
0.450138 -0.5857 21.0777
0.508473 -0.644723 20.4187
-0.0207243 -2.68355 17.3583
-0.00109864 -0.417431 9.90712
0.00262266 -0.0888722 8.57706
-0.00277181 0.0284203 7.95555
0.0101632 -0.0466729 6.17996
-0.00998695 0.743736 6.7023
-0.0393199 -1.30998 15.4816
-0.0174743 -0.0960673 -3.67375
0.000328136 -0.964177 -3.0081
0.0399285 1.81712 17.1369
0.0688527 4.65601 19.6561
0.00713495 0.941371 12.2424
-0.00351642 -0.58216 13.8251
0.0210074 -0.870365 16.5805
0.0196015 -1.14911 18.4485
1.27232 -0.708008 19.3986
1.28686 -1.22789 21.3329
0.222201 -0.378865 21.1673
-0.187431 -0.0349046 21.2398
-1.00151 0.473795 20.6775
-1.08899 0.327856 20.7623
1.5662 -0.369627 19.0531
2.26687 -0.890717 21.5388
0.391421 -0.47385 21.0481
-0.130257 -0.148303 21.0677
-1.29042 -0.0531636 20.2437
-1.33947 -0.130112 19.6588
1.31746 0.445804 19.24
2.28764 0.717564 20.8119
1.10371 0.0683265 21.3626
0.0778208 -0.144568 21.4639
-0.446601 -0.61704 21.0894
-0.501262 -0.67481 20.4844
-0.960899 -0.307952 1.01513
-0.00256801 -0.00310378 0.083029
-0.00796292 -0.00534384 0.291117
0.081466 0.0329085 0.290612
0 0 0
0.00460676 0.0185375 0.63373
-1.85412 0.0487567 1.54312
-0.0347643 0.226692 0.369082
-0.672567 0.36567 1.37361
0.0241321 -0.00153359 0.0786888
-0.14118 -0.0201069 0.135004
0.0202938 -0.0356776 0.30694
0.00394008 -0.00304456 0.0435254
1.05328 -0.33213 1.12888
0.00302705 -0.016872 0.334534
0 0 0
-0.0597971 0.0236979 0.222024
-0.0040113 0.0204836 0.608397
0.0459187 0.244822 0.377706
2.4839 0.0611259 2.1503
0.634791 0.338533 1.30553
0.133981 -0.0174778 0.12348
-0.0102386 -0.00194437 0.0248679
-0.0194434 -0.059357 0.450285
-0.00792298 -0.00314654 0.16628
-0.00705386 0.00257704 0.169708
0.000284715 0.00252023 0.0213563
0 0 0
-0.075852 0.015692 0.807091
0.0321093 -0.0470488 0.589538
-0.233417 0.0149526 1.23488
0 0 0
-0.219772 -0.140109 1.94318
0.0864442 0.0109797 0.323723
0.167446 0.299018 2.03315
-0.0568599 0.0121426 0.0974909
0.272415 0.33663 2.41448
-0.0180212 0.00636928 0.173974
0.226329 0.26003 0.388486
0.0918051 0.0338593 0.136024
0.00703905 -0.00232864 0.137923
0 0 0
0.00725254 0.00341091 0.146317
-0.00566791 0.0235571 0.215765
0.0165756 0.00326902 0.281248
0 0 0
-0.00060874 0.00168772 0.379702
0.227337 0.0196066 1.15433
0.246278 -0.130484 2.07461
0.0492211 0.0100366 0.0845143
-0.133238 0.020178 0.790398
-0.149061 0.272978 1.83456
-0.283951 0.357489 2.40592
-0.0741968 0.0290861 0.111131
0.020738 0.01018 0.184219
-0.17366 0.20878 0.30827
-0.0458321 -0.0315054 0.170241
0 0 0
2.70687e-20 2.76816e-18 -5.06215e-17
0 0 0
0 0 0
0 0 0
-0.000173728 0.00418137 0.0680962
0 0 0
4.97561e-07 -1.66858e-06 -0.00014323
-0.00501106 -0.0144324 -0.00635486
0.00119769 0.00498409 0.0829172
0.0001162 8.14178e-05 0.0292686
0.0412524 2.15473 4.49768
-0.000588597 0.0165504 0.0586698
-0.000313572 -0.000351122 0.0114322
-0.0154818 0.038714 0.12273
0.00126888 0.0340127 -0.0343981
-5.31461e-05 -0.000129835 0.00127498
0.000281232 0.00229561 0.024033
-0.0019477 -0.000622379 0.0142035
0 0 0
0.0602019 -0.0440909 0.199006
0 0 0
0 0 0
0 0 0
-4.03583e-05 0.000135892 0.00177673
-5.42039e-05 8.36239e-05 0.0319606
-0.00234693 0.00573913 0.128541
0 0 0
0.000427005 -0.000237451 0.0105889
0.000636659 -0.000169345 0.00517306
0 0 0
0.00145145 0.00560994 0.185512
0 0 0
-0.000167958 0.000862408 0.0201687
-1.52593e-05 0.000323764 0.00222679
-1.75355e-07 2.27594e-07 -1.79846e-05
3.77199e-07 -1.88549e-07 4.79737e-05
0 0 0
0 0 0
3.16804e-07 -1.82183e-07 7.26873e-05
0 0 0
0.000482599 0.00181707 0.00522817
0.0309425 0.0573411 0.448275
0 0 0
-0.00111053 0.0458618 0.188776
0.00137544 -0.00601945 0.0777275
-1.00871e-05 -0.00060976 0.00275097
0 0 0
-0.0017044 0.00616296 0.180281
0 0 0
-4.12731e-05 0.000391393 0.00250702
-4.99825e-18 1.9208e-17 2.75021e-17
0.00105048 0.00338189 0.0458264
-0.0265737 0.0522729 0.410301
-0.0017706 0.00692326 0.0197802
-0.343614 -0.236203 1.27633
-0.00825264 -0.00355334 0.0245615
-1.07985e-19 -3.3286e-18 -6.60612e-17
0 0 0
-0.000374158 0.0016156 0.0195747
6.63431e-06 0.000903141 0.00606127
-0.00092586 0.0177113 0.806459
1.763e-18 7.97133e-18 9.98576e-18
0.00100753 0.000630359 0.0536469