# vtk DataFile Version 2.0
tet_velo
ASCII
DATASET UNSTRUCTURED_GRID
POINTS 29498 float
-0.869504 0.095 -1.695
-0.820403 0.125 1.805
-0.725 0.815 -1.65709
-0.645 1.205 1.53472
0.869504 0.095 -1.695
0.804332 0.075 1.775
0.725 0.815 -1.65709
0.645 1.205 1.53472
-0.831923 0.126214 -0.528334
-0.835343 0.116427 0.638333
-0.754135 1.0008 -0.593153
-0.72438 1.12771 0.470783
0.829962 0.106151 -0.538333
0.828414 0.0793086 0.618333
0.754152 1.00082 -0.593153
0.724364 1.1277 0.470783
-1.66089 -0.41054 -2.5468
-1.65634 -0.337518 -1.65593
-1.62523 -0.319192 -0.487317
-1.60114 -0.352527 0.702226
-1.58082 -0.35898 1.87257
-1.58072 -0.325233 2.77195
-1.58839 -0.274242 3.65521
-1.65483 0.000956408 -2.56312
-1.64737 0.0909833 -1.68339
-1.61366 0.142802 -0.533488
-1.58368 0.145965 0.626375
-1.55031 0.158862 1.77827
-1.56297 0.194472 2.67654
-1.57947 0.242243 3.56299
-1.59241 0.790302 -2.56809
-1.54411 0.873151 -1.6851
-1.5387 1.02782 -0.605035
-1.49076 1.142 0.468649
-1.42737 1.21215 1.55134
-1.49365 1.25019 2.45853
-1.54721 1.28711 3.36409
-1.54114 2.11065 -2.64768
-1.5175 2.21445 -1.77887
-1.50638 2.39717 -0.731633
-1.49324 2.57902 0.294948
-1.48305 2.70619 1.34476
-1.49959 2.76903 2.21895
-1.52922 2.81318 3.11384
-0.862272 -0.408936 -2.55472
-0.855078 -0.333382 -1.66761
-0.828217 -0.330476 -0.489763
-0.820838 -0.382367 0.709011
-0.815114 -0.394932 1.88751
-0.823355 -0.353199 2.78051
-0.832208 -0.295348 3.65807
-0.868678 -0.00410302 -2.56626
-0.825335 0.172056 2.68401
-0.832939 0.224383 3.56438
-0.819334 0.763114 -2.55695
-0.770029 1.24323 2.45324
-0.812971 1.27804 3.35975
-0.768607 2.08708 -2.63705
-0.747185 2.19018 -1.76706
-0.744694 2.38318 -0.725367
-0.746119 2.57692 0.291773
-0.746871 2.70818 1.33515
-0.76405 2.76943 2.20902
-0.789395 2.81085 3.10546
0.787202 -0.413266 -2.55695
0.836919 -0.338916 -1.67041
0.825128 -0.348959 -0.499191
0.819237 -0.414534 0.691536
0.794108 -0.435118 1.86406
0.733682 -0.384748 2.76213
0.699965 -0.32011 3.64385
0.770278 -0.00655202 -2.56752
0.705345 0.141742 2.66618
0.681474 0.200989 3.55089
0.729479 0.761474 -2.5578
0.655412 1.22877 2.44485
0.662001 1.26063 3.34979
0.77052 2.08301 -2.63918
0.779667 2.18635 -1.76907
0.770639 2.37858 -0.727795
0.741081 2.57095 0.288581
0.711199 2.70032 1.33085
0.696842 2.75906 2.20327
0.687845 2.79821 3.09841
1.60409 -0.421161 -2.55229
1.64818 -0.351208 -1.66293
1.63244 -0.350233 -0.503342
1.60994 -0.403951 0.674299
1.57114 -0.421546 1.83675
1.51344 -0.380668 2.74003
1.47456 -0.321188 3.6284
1.58948 -0.0064367 -2.56694
1.64806 0.0831481 -1.68737
1.62248 0.116316 -0.546989
1.5926 0.0982892 0.600631
1.54633 0.0986739 1.74355
1.48329 0.142208 2.64627
1.45247 0.197765 3.53752
1.53661 0.785027 -2.57083
1.55051 0.869737 -1.68686
1.55121 1.01825 -0.609927
1.50332 1.12421 0.459183
1.43056 1.18853 1.5381
1.41706 1.21851 2.44041
1.42019 1.25244 3.34436
1.5463 2.10155 -2.65246
1.54939 2.20552 -1.78356
1.53554 2.38634 -0.737353
1.49794 2.56505 0.287465
1.4587 2.68838 1.33503
1.44272 2.74704 2.20678
1.43717 2.78743 3.0995
-0.849993 0.455 -1.72879
0 0.0612506 -1.72875
-0.882055 0.0792658 -1.11167
-0.847051 0.665 1.78421
-0.00803548 0.0916771 1.79832
-0.832897 0.11569 1.22167
0 0.88336 -1.72545
-0.770185 0.938518 -1.12512
0 1.29122 1.62094
-0.697777 1.17944 1.00275
0.849985 0.455 -1.72878
0.875119 0.0751897 -1.11667
0.85161 0.64 1.7818
0.803248 0.090279 1.19667
0.770185 0.938518 -1.12512
0.697772 1.17944 1.00275
-0.834637 0.120316 0.0549999
-0.897677 0.563508 -0.560743
-0.000980482 0.0624206 -0.533333
-0.899523 0.62207 0.554558
-0.00346448 0.0729016 0.628333
-0.739371 1.06437 -0.061185
8.23707e-06 1.35534 -0.593153
-7.67073e-06 1.60565 0.470783
0.8316 0.090318 0.04
0.8973 0.553485 -0.565743
0.898947 0.603503 0.544558
0.739369 1.06437 -0.061185
-0.895856 0.509254 -1.11839
-0.898869 0.592789 -0.00309253
-0.896346 0.643535 1.11221
-0.000490241 0.0680806 -1.11417
-0.00222248 0.0648867 0.0475
-0.00574998 0.086933 1.20917
0 0.455 -2.01133
-0.00401774 0.6525 1.92333
4.11854e-06 1.00253 -1.12512
2.83174e-07 1.57408 -0.061185
-3.83536e-06 1.57971 1.00275
0.895929 0.504242 -1.12089
0.898245 0.578494 -0.0105925
0.896575 0.621752 1.09971
-1.25844 0.0929917 -1.68919
-0.862291 -0.119191 -1.6813
-0.869091 0.0454485 -2.13063
-1.18536 0.141931 1.79163
-0.817758 -0.134966 1.84626
-0.822869 0.148528 2.2445
-1.13455 0.844076 -1.67109
-0.772167 0.789057 -2.10702
-0.736093 1.50259 -1.71207
-1.03618 1.20858 1.54303
-0.707514 1.22411 1.99398
-0.695935 1.95659 1.43494
0.853212 -0.121958 -1.6827
0.819891 0.044224 -2.13126
1.25878 0.089074 -1.69119
0.79922 -0.180059 1.81953
0.754839 0.108371 2.22059
1.17533 0.0868369 1.75927
0.72724 0.788237 -2.10744
0.752334 1.50067 -1.71308
1.13776 0.842369 -1.67197
0.650206 1.21688 1.98978
0.6781 1.95266 1.43279
1.03778 1.19676 1.53641
-1.22279 0.134508 -0.530911
-0.83007 -0.102131 -0.509048
-1.20951 0.131196 0.632354
-0.828091 -0.13297 0.673672
-1.14642 1.01431 -0.599094
-0.749415 1.69199 -0.65926
-1.10757 1.13486 0.469716
-0.73525 1.85232 0.381278
0.827545 -0.121404 -0.518762
1.22622 0.111233 -0.542661
0.823826 -0.167612 0.654935
1.21051 0.0887989 0.609482
0.762395 1.6897 -0.660474
1.15268 1.00954 -0.60154
0.732722 1.84932 0.379682
1.11384 1.12595 0.464983
-1.65861 -0.374029 -2.10137
-1.65786 -0.204792 -2.55496
-1.26158 -0.409738 -2.55076
-1.64078 -0.328355 -1.07162
-1.65185 -0.123267 -1.66966
-1.25571 -0.33545 -1.66177
-1.61319 -0.335859 0.107454
-1.61945 -0.0881951 -0.510402
-1.22673 -0.324834 -0.48854
-1.59098 -0.355753 1.2874
-1.59241 -0.103281 0.6643
-1.21099 -0.367447 0.705619
-1.58077 -0.342107 2.32226
-1.56557 -0.100059 1.82542
-1.19797 -0.376956 1.88004
-1.58456 -0.299738 3.21358
-1.57185 -0.0653808 2.72425
-1.20204 -0.339216 2.77623
-1.58393 -0.0159998 3.6091
-1.2103 -0.284795 3.65664
-1.6511 0.0459699 -2.12326
-1.62362 0.395629 -2.56561
-1.26175 -0.0015733 -2.56469
-1.63051 0.116893 -1.10844
-1.59574 0.482067 -1.68424
-1.59867 0.144384 0.0464436
-1.57618 0.585313 -0.569262
-1.567 0.152414 1.20232
-1.53722 0.643981 0.547512
-1.55664 0.176667 2.2274
-1.48884 0.685507 1.6648
-1.57122 0.218357 3.11977
-1.52831 0.722329 2.56754
-1.19415 0.183264 2.68027
-1.56334 0.764674 3.46354
-1.2062 0.233313 3.56368
-1.56826 0.831727 -2.12659
-1.56678 1.45047 -2.60789
-1.20587 0.776708 -2.56252
-1.5414 0.950488 -1.14507
-1.53081 1.5438 -1.73198
-1.51473 1.08491 -0.0681933
-1.52254 1.7125 -0.668334
-1.45906 1.17707 1.01
-1.492 1.86051 0.381798
-1.46051 1.23117 2.00494
-1.45521 1.95917 1.44805
-1.52043 1.26865 2.91131
-1.49662 2.00961 2.33874
-1.13184 1.24671 2.45589
-1.53821 2.05014 3.23896
-1.18009 1.28257 3.36192
-1.52932 2.16255 -2.21328
-1.15487 2.09886 -2.64237
-1.51194 2.30581 -1.25525
-1.13234 2.20231 -1.77296
-1.49981 2.48809 -0.218343
-1.12554 2.39018 -0.7285
-1.48814 2.6426 0.819855
-1.11968 2.57797 0.29336
-1.49132 2.73761 1.78186
-1.11496 2.70719 1.33996
-1.51441 2.7911 2.66639
-1.13182 2.76923 2.21398
-1.15931 2.81202 3.10965
-0.858675 -0.371159 -2.11116
-0.865475 -0.206519 -2.56049
-0.0375346 -0.411101 -2.55584
-0.841648 -0.331929 -1.07868
-0.00907941 -0.336149 -1.66901
-0.824528 -0.356421 0.109624
-0.0015446 -0.339717 -0.494477
-0.817976 -0.388649 1.29826
-0.000800435 -0.39845 0.700274
-0.819234 -0.374066 2.33401
-0.0105026 -0.415025 1.87578
-0.827781 -0.324273 3.21929
-0.824345 -0.0905717 2.73226
-0.0448366 -0.368973 2.77132
-0.832573 -0.0354821 3.61123
-0.0661215 -0.307729 3.65096
-0.844006 0.379505 -2.5616
-0.0492001 -0.00532752 -2.56689
-0.829137 0.19822 3.12419
-0.797682 0.707641 2.56862
-0.0599947 0.156899 2.67509
-0.822955 0.751212 3.46207
-0.0757326 0.212686 3.55764
-0.793971 1.4251 -2.597
-0.0449273 0.762294 -2.55737
-0.7915 1.26063 2.9065
-0.767039 2.00633 2.33113
-0.0573082 1.236 2.44905
-0.801183 2.04445 3.23261
-0.0754846 1.26934 3.35477
-0.757896 2.13863 -2.20205
0.000956151 2.08505 -2.63812
-0.74594 2.28668 -1.24621
0.0162408 2.18826 -1.76806
-0.745407 2.48005 -0.216797
0.0129724 2.38088 -0.726581
-0.746495 2.64255 0.813462
-0.00251947 2.57393 0.290177
-0.75546 2.73881 1.77209
-0.0178359 2.70425 1.333
-0.776722 2.79014 2.65724
-0.0336039 2.76424 2.20615
-0.050775 2.80453 3.10194
0.812061 -0.376091 -2.11368
0.77874 -0.209909 -2.56223
1.19565 -0.417214 -2.55462
0.831024 -0.343937 -1.0848
1.24255 -0.345062 -1.66667
0.822183 -0.381746 0.0961725
1.22878 -0.349596 -0.501266
0.806673 -0.424826 1.2778
1.21459 -0.409242 0.682917
0.763895 -0.409933 2.31309
1.18262 -0.428332 1.8504
0.716823 -0.352429 3.20299
0.719514 -0.121503 2.71416
1.12356 -0.382708 2.75108
0.690719 -0.0595603 3.59737
1.08726 -0.320649 3.63612
0.749879 0.377461 -2.56266
1.17988 -0.00649436 -2.56723
0.69341 0.171366 3.10854
0.680379 0.685255 2.55552
1.09432 0.141975 2.65623
0.671738 0.730811 3.45034
1.06697 0.199377 3.54421
0.75 1.42224 -2.59849
1.13304 0.77325 -2.56431
0.658707 1.2447 2.89732
0.676127 1.99391 2.32406
1.03624 1.22364 2.44263
0.674923 2.02942 3.2241
1.04109 1.25654 3.34707
0.775093 2.13468 -2.20412
1.15841 2.09228 -2.64582
0.775153 2.28246 -1.24843
1.16453 2.19593 -1.77631
0.75586 2.47476 -0.219607
1.15309 2.38246 -0.732574
0.72614 2.63563 0.809718
1.11951 2.568 0.288023
0.70402 2.72969 1.76706
1.08495 2.69435 1.33294
0.692344 2.77864 2.65084
1.06978 2.75305 2.20503
1.06251 2.79282 3.09896
1.62613 -0.386185 -2.10761
1.59678 -0.213799 -2.55961
1.64031 -0.35072 -1.08313
1.64812 -0.13403 -1.67515
1.62119 -0.377092 0.0854785
1.62746 -0.116958 -0.525165
1.59054 -0.412749 1.25552
1.60127 -0.152831 0.637465
1.54229 -0.401107 2.28839
1.55874 -0.161436 1.79015
1.494 -0.350928 3.18421
1.49836 -0.11923 2.69315
1.46352 -0.0617116 3.58296
1.61877 0.0383557 -2.12715
1.56304 0.389295 -2.56888
1.63527 0.0997319 -1.11718
1.59929 0.476443 -1.68711
1.60754 0.107302 0.0268212
1.58684 0.567285 -0.578458
1.56947 0.0984815 1.17209
1.54796 0.611247 0.529907
1.51481 0.120441 2.19491
1.48845 0.643601 1.64082
1.46788 0.169987 3.0919
1.45018 0.680357 2.54334
1.43633 0.725105 3.44094
1.54356 0.827382 -2.12884
1.54145 1.44329 -2.61164
1.55086 0.943996 -1.14839
1.54995 1.53763 -1.73521
[...]
POINT_DATA 29498
VECTORS point_vectors float
-0.819211 -0.564869 2.08628
0.126894 0.362989 1.2585
-1.37819 0.831752 2.39177
0.0221007 -0.0315612 0.126
0.825857 -0.567472 2.08695
-0.104158 0.339413 2.2205
1.37329 0.830948 2.38547
-0.0400022 -0.0109264 0.135836
0.001189 0.00697793 0.0910315
-0.0173231 0.00546815 0.943109
0 0 0
0 0 0
-0.0102363 0.0865528 1.19372
-0.00505282 0.0290201 1.92204
0 0 0
0 0 0
-0.83785 -0.479484 20.1805
-1.13014 -0.723232 21.0129
-0.419544 -0.367152 21.712
0.0274693 -0.081349 21.8592
0.396939 0.196647 21.8304
0.617766 0.39277 21.6354
0.848148 0.337593 21.1326
-1.15544 -0.429262 19.9241
-1.70077 -0.6779 20.9515
-0.6376 -0.510083 21.7916
-0.022344 -0.238981 21.902
0.567789 0.0230059 21.9888
0.975545 0.168674 21.8075
1.21942 0.0994883 21.7638
-1.34386 0.14704 19.7091
-2.38793 0.233473 20.659
-1.58244 -0.258059 21.8469
-0.583257 -0.381801 22.1761
0.276517 -0.495773 22.1459
0.693788 -0.544178 21.8269
0.880511 -0.771015 21.4957
-0.588556 0.467215 20.0875
-0.830957 0.695537 20.4796
-0.821456 0.616762 21.1761
-0.524507 0.278736 21.6556
-0.190452 -0.0862178 21.728
0.0108058 -0.230426 21.5922
0.148888 -0.311045 21.394
-1.02426 -1.31826 19.414
-1.62869 -2.69236 21.6918
-0.433768 -0.298281 22.2246
-0.0806397 0.130064 21.844
0.115253 0.683408 21.8909
0.314763 1.07756 21.4564
0.89933 1.49295 21.2736
-1.62576 -1.27878 18.5272
0.689599 1.49597 10.9792
1.97271 1.81395 14.0932
-1.96273 0.704299 17.7525
1.05796 0.159324 10.9312
2.04604 -0.680058 15.7521
-0.494101 0.85138 19.7636
-0.8205 1.44523 20.1702
-0.932649 1.47834 21.1808
-0.52325 0.683424 21.9004
-0.159234 -0.010588 21.9416
-0.0022153 -0.241899 21.8414
0.114734 -0.453252 21.6629
0.961623 -1.40458 19.3567
1.57235 -2.72384 21.6776
0.395601 -0.322482 22.1824
0.0288461 0.0812495 21.9321
-0.148494 0.408589 21.8316
-0.209192 0.509492 21.4664
-0.53208 1.24056 21.3553
1.61851 -1.42944 18.2535
1.21081 0.948334 3.9675
-0.752003 1.23435 7.68984
1.90073 0.785685 17.4317
-1.56506 1.53036 6.53514
-2.30583 -0.208847 11.9441
0.487388 0.851414 19.7579
0.834948 1.40507 20.1803
0.929791 1.46745 21.172
0.498761 0.704501 21.8951
0.119932 0.0213223 21.9608
-0.0238752 -0.224928 21.8553
-0.121286 -0.422199 21.5435
0.839812 -0.511827 20.1444
1.11475 -0.737785 20.9841
0.421944 -0.391916 21.6739
-0.0129993 -0.114278 21.8204
-0.305166 0.0862685 21.7039
-0.490877 0.272431 21.6966
-0.765223 0.420636 21.346
1.19327 -0.463228 19.8612
1.68523 -0.681654 20.9323
0.634284 -0.501732 21.7424
0.0414802 -0.239378 21.8075
-0.396337 -0.00126672 21.8514
-0.711023 0.175253 21.7423
-1.24625 0.22885 22.0706
1.38532 0.154768 19.6264
2.36046 0.231134 20.6443
1.55395 -0.250088 21.8117
0.578889 -0.351073 22.1188
-0.249362 -0.391327 22.0738
-0.667 -0.414659 21.8493
-0.975053 -0.812493 21.6271
0.583725 0.465697 20.0797
0.820171 0.678298 20.4774
0.803866 0.606535 21.1585
0.511597 0.300346 21.6379
0.176298 -0.0561192 21.721
-0.0294995 -0.234772 21.6265
-0.18981 -0.308816 21.4814
-0.562369 -0.0522688 1.07163
8.52235e-06 -0.0239149 0.148237
-0.0297444 0.038799 0.860142
0.0569584 0.00806697 0.192725
-0.028875 0.0160628 0.157844
-0.0153442 0.028398 0.442075
-0.000115931 0.0933251 0.17419
-0.509627 -0.268465 0.75627
-0.00507568 0.00510957 -0.00530905
0.00626642 0.0162424 0.0419159
0.559787 -0.0508842 1.06708
0.0300335 0.0499651 1.03593
-0.0807288 0.0972765 0.336719
0.00295173 0.0135152 0.317779
0.507291 -0.26554 0.749349
-0.00670557 0.0173063 0.0405482
-0.00648615 0.0285166 0.59638
6.38356e-05 0.00171831 0.024091
0.000124947 -0.00103972 0.0423503
4.41543e-06 0.00685368 0.030115
-0.000573127 0.000795322 0.0393547
0 0 0
0.000874246 0.0292199 0.049043
-9.19781e-05 0.000283473 0.0155297
0.00824167 0.095756 2.52716
-0.000118388 0.00299932 0.0411515
2.85586e-06 0.00299653 0.0130249
0 0 0
-9.44057e-05 -0.00221222 0.0185293
5.06609e-05 0.00979014 0.0486332
8.01726e-05 0.000882701 0.00519711
2.00387e-08 -3.44582e-08 6.23976e-06
-2.94061e-07 3.52061e-07 6.73696e-05
-4.80692e-06 5.70962e-07 8.55709e-05
-0.00149606 -0.551925 0.729885
0 0 0
2.47413e-19 -1.29407e-18 -1.8741e-18
-8.78613e-05 0.00676052 0.04473
-0.000410406 -0.00220156 0.0200816
0.000318997 -0.00665699 0.0539073
-2.05214e-05 0.00271756 0.0134885
-0.000144958 0.00220525 0.0124395
-3.12075 -1.60641 21.2778
-2.81787 -4.3744 22.5491
-3.78726 -3.19777 17.9367
0.917897 0.459803 20.6526
0.253633 1.05288 18.3729
0.510766 1.02361 8.10043
-4.64105 1.00343 20.7247
-4.80545 2.70339 16.1865
-2.10139 2.72636 19.6774
0.653101 -0.456903 20.117
0.43418 0.251721 5.40321
-0.348505 -0.241586 22.3594
2.75197 -4.40975 22.5796
3.85651 -3.56679 17.6239
3.09724 -1.60737 21.2489
-0.26502 0.62677 19.0543
0.383 0.308648 4.73186
-0.651304 0.346287 20.465
4.74062 2.96871 15.7341
2.10422 2.66747 19.693
4.60378 0.987252 20.7087
-0.944488 1.29434 3.61842
0.297818 -0.186156 22.3497
-0.721241 -0.278563 19.9703
-0.321288 -0.841352 21.9338
-0.207942 0.23608 16.9205
0.181143 -0.220198 20.7799
0.142385 0.246046 17.662
-2.62238 -0.919245 22.4339
-3.16497 2.89141 21.2821
-0.660333 -0.779706 21.6965
-1.40913 0.907311 22.8712
0.205308 0.155421 18.0455
0.325904 -0.846385 22.0622
-0.16975 0.230675 18.935
-0.203453 -0.246283 21.0584
3.14707 2.8024 21.2908
2.58713 -0.89638 22.4075
1.38001 0.941907 22.8618
0.638859 -0.723806 21.6082
-1.08029 -0.677277 20.4677
-1.0077 -0.489979 20.0387
-1.05419 -0.836854 19.8452
-0.793982 -0.578528 21.4907
-1.45695 -0.753974 21.0057
-1.5496 -1.42316 21.187
-0.150559 -0.210063 21.7689
-0.523934 -0.47969 21.7409
-0.34806 -0.411278 21.9263
0.202504 0.0447989 21.8519
0.00737367 -0.157152 21.8476
0.0726387 0.0056168 21.9235
0.539747 0.29883 21.7524
0.494172 0.14796 21.8649
0.425881 0.469829 21.9905
0.753605 0.451494 21.5283
0.817482 0.32275 21.6683
0.690731 0.717279 21.9253
1.03772 0.339297 21.5696
0.935693 0.778181 21.4248
-1.58698 -0.613852 20.2869
-1.32821 -0.148486 19.7613
-1.50927 -0.73893 19.4268
-1.18592 -0.623548 21.5912
-2.21178 -0.323806 20.8952
-0.278948 -0.380559 21.8611
-1.05715 -0.558464 21.8885
0.227945 -0.0969043 22.0272
-0.237715 -0.366263 22.0751
0.78671 0.109751 21.9241
0.565995 -0.256812 22.1296
1.14411 0.190938 21.4703
1.03659 -0.246205 21.8701
1.41366 0.626001 21.0975
1.32413 -0.307789 21.628
1.89023 0.584581 20.8341
-2.008 0.253638 20.0084
-0.928824 0.47976 19.8762
-1.77671 0.383506 18.9896
-2.07333 -0.0400178 21.447
-1.52051 0.761532 20.4305
-1.07494 -0.367062 22.0902
-1.49726 0.491156 21.4372
-0.127787 -0.402838 22.1977
-0.787003 0.0832459 21.9924
0.510019 -0.542489 21.9939
-0.131558 -0.258973 21.94
0.853499 -0.609813 21.7307
0.195023 -0.474639 21.7604
0.916936 -0.852453 21.5253
0.431131 -0.544246 21.6081
1.27203 -1.01957 20.8676
-0.721635 0.596236 20.253
-0.594853 0.659098 19.9272
-0.885977 0.720892 20.8312
-0.90191 1.03421 20.3382
-0.701029 0.454884 21.4575
-0.923289 0.980912 21.2038
-0.340009 0.0976206 21.6778
-0.515704 0.465449 21.7557
-0.0868462 -0.139508 21.6092
-0.199308 -0.0679384 21.8471
0.0913132 -0.248997 21.5306
-0.0101801 -0.306976 21.7962
0.133477 -0.391941 21.759
-1.62865 -2.35957 19.9954
-1.33563 -1.38871 19.0449
-0.0749441 -2.04833 18.8539
-0.8187 -1.0484 22.442
-0.0337322 -3.7389 22.2462
-0.204197 -0.0250613 22.0663
-0.0188252 -0.618723 21.7261
0.00397833 0.333003 21.8366
-0.045263 -0.0620123 21.1833
0.232193 0.927606 21.5621
-0.187268 0.310523 21.0472
0.52507 1.24459 21.5026
0.639405 1.51088 18.5064
-0.408886 0.481989 20.0921
1.23379 1.99083 18.8915
-0.33007 1.2249 17.3307
-2.14293 -0.465489 17.6875
-0.137636 -2.24043 17.0232
1.1169 2.00282 12.4365
0.556216 1.22787 4.44923
-1.60086 -0.0642612 -1.56814
2.38919 0.429287 11.0342
0.331495 -0.317696 1.4416
-1.02633 1.18091 19.0265
-0.16982 1.29127 15.8185
1.40557 -0.32644 13.7171
-0.00030483 -0.655255 22.0151
0.0462853 -0.0681691 0.576468
0.271661 -0.956103 21.5035
-0.0817686 -0.759244 0.247901
-0.669252 1.18303 19.9134
-0.00366816 1.07642 19.5667
-0.931847 1.57655 20.6352
0.010246 1.83201 19.979
-0.774533 1.15642 21.6978
0.0100139 2.14639 21.1019
-0.312332 0.294182 21.9717
-0.0179866 1.03949 22.0114
-0.059947 -0.115532 21.7308
-0.0311162 0.0488651 22.0309
0.0131564 -0.313989 21.7987
-0.0358609 -0.254272 21.8965
-0.00665634 -0.470593 21.7058
1.57261 -2.50156 19.9341
1.27245 -1.46909 18.8894
1.02074 -0.902076 19.7881
0.787523 -1.06322 22.4079
1.52652 -1.44417 21.1599
0.159443 -0.058549 22.0623
0.320482 -0.413467 21.8882
-0.0705669 0.225808 21.8407
-0.0868827 -0.011837 21.8589
-0.196783 0.476253 21.5796
-0.352611 0.290962 21.8431
-0.321049 0.806161 21.9408
-0.194401 0.614644 16.6635
-0.456426 0.468672 21.8692
-0.532961 1.53017 14.5355
-0.911306 0.907454 21.4241
2.03455 -0.504146 17.3476
1.52702 -0.847297 19.2622
0.905784 1.55552 5.8171
0.698548 1.4443 -0.652732
-0.754157 0.654572 18.5194
-1.66623 0.520709 3.51703
-1.63766 1.26425 18.9232
0.991322 1.21821 18.9686
1.8313 0.427231 18.7849
-1.99227 0.711059 9.58031
-0.00499286 -0.55544 22.0772
-1.09415 -0.318445 20.0719
-0.250297 -0.935501 21.8021
-1.80926 -0.590979 18.8804
0.670045 1.16828 19.9151
0.589507 0.658023 19.9206
0.944387 1.53325 20.6405
0.901488 1.01118 20.3391
0.760977 1.16411 21.6858
0.911018 0.957558 21.186
0.276303 0.319647 21.9738
0.496916 0.488282 21.7392
0.01309 -0.0819319 21.7405
0.164083 -0.0301484 21.8385
-0.0641747 -0.292692 21.7618
-0.0243626 -0.263461 21.7915
-0.141376 -0.429642 21.7997
1.08841 -0.706938 20.4463
1.03105 -0.527697 19.985
0.778095 -0.591917 21.4489
1.43717 -0.765746 20.9815
0.155818 -0.245874 21.7013
0.510029 -0.473839 21.6996
-0.171173 -0.0274394 21.7939
-0.000270427 -0.157869 21.7867
-0.418853 0.132474 21.7153
-0.373283 0.0877126 21.7868
-0.632247 0.341654 21.5522
-0.609202 0.257239 21.796
-1.00748 0.404512 21.7127
1.62287 -0.649637 20.25
1.3955 -0.173376 19.6744
1.16792 -0.625782 21.5528
2.19564 -0.327922 20.8724
0.27911 -0.373304 21.8115
1.03525 -0.555609 21.8431
-0.161938 -0.113591 21.8839
0.246753 -0.360281 21.9973
-0.539956 0.0788509 21.7929
-0.427137 -0.178665 21.9836
-0.974125 0.239171 21.7252
-0.787403 -0.119322 21.8161
-1.32964 -0.131908 22.1199
2.04671 0.258607 19.9622
0.93265 0.48982 19.8445
2.04398 -0.037582 21.4209
1.49748 0.741395 20.4289
1.05294 -0.350511 22.0387
1.46107 0.474159 21.4132
0.14134 -0.350212 22.1338
0.777279 0.0974975 21.9682
-0.471967 -0.416837 21.9734
0.124768 -0.215124 21.9269
-0.895568 -0.526544 21.873
-0.213245 -0.422021 21.7927
-0.451101 -0.543395 21.5667
0.715452 0.587107 20.2484
0.871455 0.706121 20.8238
0.684381 0.449365 21.4398
0.330177 0.121386 21.6781
0.0643666 -0.122176 21.6112
-0.0941975 -0.23053 21.4775
-1.38563 -0.680485 20.3738
-2.45768 -2.95579 19.313
-1.45077 -1.26577 20.2895
-2.55215 -1.2581 19.7365
-1.26141 -0.83596 19.6442
-2.18787 -1.61783 21.2783
-1.00049 -0.650565 21.5679
-0.725283 -0.616341 19.9693
-0.862621 -0.858949 21.895
-1.35655 -1.18624 22.4405
-0.230763 -0.524542 22.1001
-0.210286 -0.30729 21.8114
0.0464171 0.226357 17.0247
-0.0975788 -0.146526 21.9413
0.0202959 -0.525213 21.4102
0.202763 -0.0527988 21.867
0.212122 -0.00192368 21.9419
0.178125 0.439777 18.0329
0.219164 0.201569 21.9812
0.395528 0.075106 20.8035
0.692898 0.527382 21.8488
0.680728 0.257927 21.8255
0.427138 1.29264 18.3436
0.559586 0.629509 21.8378
1.21737 0.537883 20.792
1.03657 0.796898 21.3368
1.0218 0.367819 21.6334
0.93322 1.63641 18.7385
0.826751 0.774765 21.4122
1.5592 0.662542 21.0666
1.48164 1.20724 21.1029
-1.98346 -0.209249 20.1114
-5.82123 -0.614359 15.4744
-3.27287 0.803026 19.0615
-1.83423 -0.291741 19.0484
-4.57474 -0.603257 21.2327
-1.67461 -0.491348 21.6695
-3.47807 -0.268577 22.0304
-0.990631 -1.20368 21.9893
-0.592539 -0.497906 22.0061
-1.52123 -1.04488 22.0959
0.00852291 -0.255707 19.5827
0.120905 -0.282789 22.1587
0.0719917 -0.463769 20.7748
0.977777 0.407027 17.8429
0.822763 -0.246079 21.9621
-0.196328 0.89639 1.4599
0.730729 -0.744223 21.0236
1.43514 0.0193853 19.2249
1.21163 -0.240801 21.6202
1.43036 1.12122 7.67939
1.14585 -0.958092 21.5165
1.95084 -0.232314 20.7968
-1.27126 0.666842 20.0604
-1.56653 2.03328 19.1016
-0.765001 0.888537 20.0862
-1.07802 0.781899 19.5071
-2.01741 1.49617 20.1679
-1.60745 0.666531 20.9823
-2.5202 2.69515 20.3282
-0.975524 1.08402 20.7718
-2.25787 1.13865 21.5457
-1.20293 0.282825 21.8136
-2.59911 2.02309 22.7145
-0.766761 0.726864 21.6195
-1.09386 0.315444 22.3402
-0.420681 -0.101435 22.0136
-0.692531 0.205085 22.6687
-0.338362 0.178236 21.8446
-0.208608 -0.297185 22.1279
0.0513945 -0.371159 21.8558
-0.188108 -0.460825 22.1911
-0.0830145 -0.161628 21.7246
0.146125 -0.567431 21.8715
0.341082 -0.545682 21.7038
0.137917 -0.833819 21.9146
0.0281573 -0.317922 21.5566
0.375066 -0.694981 21.3959
2.41003 -3.1841 19.1691
-0.0649008 -3.9526 19.6688
-0.156193 -7.94163 14.4245
-0.110687 -2.33374 18.0455
-0.0202636 -5.21638 23.9035
0.738916 -0.666678 20.2107
-0.0258135 -1.53542 22.7807
-0.0192395 -0.1916 11.6855
-0.0467568 0.184172 18.0786
-0.0301474 -0.262252 21.5883
-0.0706593 0.101091 13.0739
-0.237891 0.342886 18.7623
-0.085488 0.0776499 20.7253
-0.395365 0.346305 13.8442
-0.230848 0.615879 17.6777
-0.31471 0.380854 20.3402
-1.94849 -0.140374 0.335376
-1.24294 0.400141 11.4704
0.257148 0.933973 15.1266
-0.458241 0.870401 20.5079
-0.40591 -1.08832 -0.401107
-0.496069 1.25498 9.31056
5.98346 -0.672808 14.7085
-0.188445 6.00238 12.0928
-0.174376 -0.744481 15.3615
0.832078 2.44097 -0.725426
-0.482671 1.22996 -0.000213641
0.240542 -1.57631 -2.41623
0.205541 0.586707 1.45735
0.0493952 -0.914163 0.126954
1.63736 -1.94464 -4.06311
1.54673 2.06576 19.0669
0.000848596 1.50232 19.71
-0.0410133 1.67663 18.4216
0.026144 3.90206 19.0831
2.51563 2.64846 20.3397
0.0118287 2.06373 20.4732
0.0243074 5.37737 20.5821
2.58029 2.01973 22.6916
-0.0056094 1.68644 21.8338
-0.0291162 1.8883 23.2181
0.64891 0.252018 22.6598
-0.0267745 0.461393 22.1064
-0.0533835 0.060424 21.9008
0.166237 -0.385261 22.211
-0.0353562 -0.100912 21.8101
-0.0909189 -0.357125 21.6449
-0.143942 -0.77359 22.0527
-0.0313691 -0.379965 21.9457
-0.0191386 -0.988479 21.5529
1.40792 -0.719513 20.357
1.45008 -1.34083 20.2347
2.6511 -1.36693 19.6099
1.27828 -0.92274 19.5199
2.16693 -1.64734 21.27
0.975037 -0.650138 21.5392
0.83931 -0.86045 21.8652
1.34445 -1.18889 22.3921
0.230765 -0.515979 22.0508
0.200238 -0.299849 21.7723
0.0703314 -0.153512 21.8974
-0.0329113 -0.519184 21.4589
-0.184754 -0.0748165 21.8029
-0.175554 -0.0276843 21.8344
-0.220421 0.13676 21.8893
-0.336616 0.0339648 20.6398
-0.486267 0.34108 21.6647
-0.495501 0.161909 21.7359
-0.407397 0.389931 21.753
-0.729195 0.479564 19.7342
-0.647991 0.641386 20.7939
-0.813316 0.356032 21.6646
-0.609808 0.676574 21.5065
-1.02579 0.881187 19.0139
-1.36314 1.4206 20.4009
2.03724 -0.23408 20.0625
3.45064 0.896938 18.8869
1.95678 -0.32457 18.832
4.5439 -0.61058 21.2071
1.65802 -0.49388 21.6342
3.43809 -0.265777 22.0082
0.990778 -1.17981 22.0594
0.581334 -0.494549 21.9521
1.49406 -0.998375 22.037
-0.00583623 -0.245592 19.5627
-0.0760698 -0.253507 22.0528
-0.101019 -0.394445 20.7129
-0.778066 0.608394 17.3928
-0.617417 -0.109482 21.8072
-0.911801 -0.334452 20.0337
-0.893317 0.949371 15.3644
-1.06584 -0.0958047 21.6599
-1.38525 -0.567559 20.5777
-1.91966 0.414756 16.4148
1.26879 0.668678 20.0449
0.762305 0.878144 20.082
1.08012 0.811361 19.4662
1.9971 1.45697 20.1734
1.57889 0.650207 20.9689
0.974424 1.06006 20.7678
2.22678 1.11083 21.5315
1.18446 0.281479 21.7844
0.757685 0.728401 21.6022
1.08241 0.334889 22.3185
0.414006 -0.0692993 21.9926
0.314613 0.209011 21.86
0.184346 -0.247871 22.121
-0.0578635 -0.321539 21.8549
0.0443131 -0.127621 21.7218
-0.151585 -0.524892 21.8953
-0.354265 -0.524039 21.6931
-0.0813284 -0.300447 21.6782
-0.433847 -0.734494 21.6083
-1.9485 -1.3715 20.045
-0.995869 -0.985665 22.1489
0.0598474 -0.252604 21.9437
0.371236 0.180711 21.8906
0.900018 0.672865 21.7565
1.29811 0.850196 21.2238
-3.46327 -0.428293 19.1143
-2.22697 -1.03788 22.6786
-0.328045 -0.789117 20.4971
0.328541 0.221271 18.7116
1.2487 0.178489 18.4958
1.7333 -0.1751 20.078
-1.56401 1.20932 19.6782
-2.23912 1.41304 20.8166
-1.78418 0.716611 22.1694
-0.556217 -0.0263638 22.288
-0.0110659 -0.4519 21.9888
0.267649 -0.685226 21.7516
-0.0895115 -5.85825 18.3991
-0.0117933 -0.805462 15.3593
-0.0386119 -0.0264509 12.13
-0.145507 0.163241 13.3387
-0.829355 0.257836 12.5554
-0.961725 0.599497 9.34907
-0.215945 -1.30957 8.29016
-0.923577 1.28736 -1.25383
0.649563 -2.23161 -3.6622
-0.0275785 2.97363 18.4392
0.020373 4.37499 19.4656
-0.00797538 4.10133 22.9815
-0.0407426 0.668768 22.7827
-0.0785875 -0.113465 21.6886
-0.0600075 -0.677471 21.9503
1.98562 -1.46523 19.9694
0.980984 -0.991352 22.1142
-0.0511591 -0.25538 21.8989
-0.315177 0.106796 21.7488
-0.590316 0.454903 21.586
-0.926125 0.7715 20.7031
3.6445 -0.448828 18.9477
2.21196 -1.03061 22.6293
0.333955 -0.81188 20.7095
-0.280509 0.275025 18.5173
-0.791555 0.827364 15.8525
-1.41185 0.952181 16.1563
1.56334 1.22692 19.657
2.20633 1.37231 20.8172
1.76258 0.710638 22.1427
0.541562 0.0123368 22.2762
-0.00544383 -0.39709 22.005
-0.270419 -0.667102 21.8419
-0.819043 -0.138756 1.30604
-0.00421404 -0.0458912 0.206408
-0.0778817 -0.0330283 1.61114
0.0221697 0.00108327 0.0648224
-0.0217562 0.0218588 0.0847263
-0.0277671 0.051186 0.672521
-1.12047 0.385689 1.31142
-0.0541386 0.444364 0.841632
-0.0699771 -0.00984812 0.206456
0 0 0
-0.00521456 0.00368915 -0.00582168
0.00176337 0.00705486 0.0203639
0.00399574 -0.0458733 0.20609
0.677108 -0.116658 1.10433
0.0154063 -0.0035653 0.399566
0 0 0
-0.0255464 0.00751596 0.0992731
0.0404933 0.0669276 1.41111
0.0537104 0.444998 0.844725
1.12214 0.386658 1.3131
0.0687557 -0.00942654 0.203422
0.000151246 0.00626544 -0.00736174
-0.00316593 0.000915743 0.00360514
-0.00163171 0.0056914 0.0151745
0 0 0
-0.00227585 0.0175002 0.335846
8.62087e-06 0.000182306 0.00084701
0 0 0
-0.0894283 -0.163866 1.94617
-0.00378704 0.039515 0.895407
-0.00551245 0.0218697 0.105625
0 0 0
-0.376052 -0.281537 1.02864
0.00316941 0.0175816 0.117591
0 0 0
-0.0608851 0.0788718 0.152345
0.00338113 0.00902387 0.0223006
0.0660248 0.137398 0.478478
0 0 0
0.0101411 0.00371439 0.0961314
-0.00884122 0.0575698 0.185748
0 0 0
-0.0255782 0.0385775 1.98803
0 0 0
-0.0395171 -0.0652805 0.942547
0 0 0
-0.0147951 0.0614139 2.3026
0 0 0
0.370178 -0.28003 1.02594
0.0653687 0.0854217 0.164521
-0.00331446 0.0211528 0.144112
0 0 0
-0.00353445 0.00953574 0.0223718
-0.0113048 0.0039135 0.0961916
-0.0649115 0.13059 0.441674
0 0 0
0 0 0
-0.816703 -0.0227281 0.505315
-2.35028e-07 -3.7843e-07 1.73457e-05
3.02306e-08 0.000488504 -0.000130686
0 0 0
0.000151625 -4.72581e-06 0.0127884
0.00208654 0.011999 0.0771062
-0.00881268 0.00859493 -0.00267675
0 0 0
0 0 0
0 0 0
0 0 0
-0.000417917 0.234511 0.16077
0 0 0
-0.00183062 -0.00644127 0.0297245
0 0 0
-0.00883646 0.0270179 -0.00953722
-0.000326972 0.00029211 9.72521e-05
0.0914333 0.114387 0.517117
0 0 0
0.858989 -0.0154343 0.526455
0 0 0
-5.23138e-05 -1.21429e-06 0.00279597
1.78266e-05 -0.000186631 0.00391845
0 0 0
-6.74239e-05 0.000584517 0.00319656
0 0 0
0 0 0
0 0 0
0.0016327 -0.00563089 0.0261012
3.52232e-18 2.38871e-18 -2.86085e-17
-0.154736 0.173896 0.762613
-0.00195354 0.00803815 0.044531
0 0 0
9.4023e-06 -0.00248813 0.0261922
2.94327e-05 0.00171052 0.00971512
7.83401e-05 -7.85144e-05 0.0134784
-7.93499e-08 1.62241e-07 4.41379e-05
-3.13624e-05 0.00542101 0.0246175
-1.49181e-05 0.00380704 0.0173126
0 0 0
-0.000868756 0.000760978 0.0337102
0.0123937 0.0336254 0.158335
-0.0483651 0.0611292 0.530902
-6.67793e-05 0.0122685 0.0230064
-0.000716077 0.286723 0.712497
-8.84724e-05 0.00162225 0.0248089
-0.00019614 -0.000662582 0.022312
0 0 0
0 0 0
-5.80922e-05 -0.00329056 0.0346855
5.58144e-05 0.00359081 0.02453
4.47998e-05 0.00849072 0.0383049
6.68008e-05 0.0103659 0.0430021
0.0454688 0.0619393 0.532153
-0.0132451 0.035682 0.167661
0 0 0
-0.0307263 -0.0318118 0.260172
0.00294094 -0.00106585 0.0118773
-0.00509727 -0.0118156 0.12914
-0.000252977 0.00106372 0.00616434
0.0100228 0.0395195 0.132352
-0.00336493 0.013504 0.0735739
0.0882896 0.161768 0.588824
-0.0901085 0.120921 0.431823
0.0948293 0.18417 0.683213
0.00384219 0.00785218 0.0670058
0.0781648 0.0809872 0.546208
0 0 0
0 0 0