# vtk DataFile Version 2.0
tri_press
ASCII
DATASET UNSTRUCTURED_GRID
POINTS 3682 float
-0.869504 0.095 -1.695
-0.820403 0.125 1.805
-0.725 0.815 -1.65709
-0.645 1.205 1.53472
0.869504 0.095 -1.695
0.804332 0.075 1.775
0.725 0.815 -1.65709
0.645 1.205 1.53472
-0.831923 0.126214 -0.528334
-0.835343 0.116427 0.638333
-0.754135 1.0008 -0.593153
-0.72438 1.12771 0.470783
0.829962 0.106151 -0.538333
0.828414 0.0793086 0.618333
0.754152 1.00082 -0.593153
0.724364 1.1277 0.470783
-1.66089 -0.41054 -2.5468
-1.65634 -0.337518 -1.65593
-1.62523 -0.319192 -0.487317
-1.60114 -0.352527 0.702226
-1.58082 -0.35898 1.87257
-1.58072 -0.325233 2.77195
-1.58839 -0.274242 3.65521
-1.65483 0.000956408 -2.56312
-1.64737 0.0909833 -1.68339
-1.61366 0.142802 -0.533488
-1.58368 0.145965 0.626375
-1.55031 0.158862 1.77827
-1.56297 0.194472 2.67654
-1.57947 0.242243 3.56299
-1.59241 0.790302 -2.56809
-1.54411 0.873151 -1.6851
-1.5387 1.02782 -0.605035
-1.49076 1.142 0.468649
-1.42737 1.21215 1.55134
-1.49365 1.25019 2.45853
-1.54721 1.28711 3.36409
-1.54114 2.11065 -2.64768
-1.5175 2.21445 -1.77887
-1.50638 2.39717 -0.731633
-1.49324 2.57902 0.294948
-1.48305 2.70619 1.34476
-1.49959 2.76903 2.21895
-1.52922 2.81318 3.11384
-0.862272 -0.408936 -2.55472
-0.855078 -0.333382 -1.66761
-0.828217 -0.330476 -0.489763
-0.820838 -0.382367 0.709011
-0.815114 -0.394932 1.88751
-0.823355 -0.353199 2.78051
-0.832208 -0.295348 3.65807
-0.868678 -0.00410302 -2.56626
-0.825335 0.172056 2.68401
-0.832939 0.224383 3.56438
-0.819334 0.763114 -2.55695
-0.770029 1.24323 2.45324
-0.812971 1.27804 3.35975
-0.768607 2.08708 -2.63705
-0.747185 2.19018 -1.76706
-0.744694 2.38318 -0.725367
-0.746119 2.57692 0.291773
-0.746871 2.70818 1.33515
-0.76405 2.76943 2.20902
-0.789395 2.81085 3.10546
0.787202 -0.413266 -2.55695
0.836919 -0.338916 -1.67041
0.825128 -0.348959 -0.499191
0.819237 -0.414534 0.691536
0.794108 -0.435118 1.86406
0.733682 -0.384748 2.76213
0.699965 -0.32011 3.64385
0.770278 -0.00655202 -2.56752
0.705345 0.141742 2.66618
0.681474 0.200989 3.55089
0.729479 0.761474 -2.5578
0.655412 1.22877 2.44485
0.662001 1.26063 3.34979
0.77052 2.08301 -2.63918
0.779667 2.18635 -1.76907
0.770639 2.37858 -0.727795
0.741081 2.57095 0.288581
0.711199 2.70032 1.33085
0.696842 2.75906 2.20327
0.687845 2.79821 3.09841
1.60409 -0.421161 -2.55229
1.64818 -0.351208 -1.66293
1.63244 -0.350233 -0.503342
1.60994 -0.403951 0.674299
1.57114 -0.421546 1.83675
1.51344 -0.380668 2.74003
1.47456 -0.321188 3.6284
1.58948 -0.0064367 -2.56694
1.64806 0.0831481 -1.68737
1.62248 0.116316 -0.546989
1.5926 0.0982892 0.600631
1.54633 0.0986739 1.74355
1.48329 0.142208 2.64627
1.45247 0.197765 3.53752
1.53661 0.785027 -2.57083
1.55051 0.869737 -1.68686
1.55121 1.01825 -0.609927
1.50332 1.12421 0.459183
1.43056 1.18853 1.5381
1.41706 1.21851 2.44041
1.42019 1.25244 3.34436
1.5463 2.10155 -2.65246
1.54939 2.20552 -1.78356
1.53554 2.38634 -0.737353
1.49794 2.56505 0.287465
1.4587 2.68838 1.33503
1.44272 2.74704 2.20678
1.43717 2.78743 3.0995
-0.849993 0.455 -1.72879
0 0.0612506 -1.72875
-0.882055 0.0792658 -1.11167
-0.847051 0.665 1.78421
-0.00803548 0.0916771 1.79832
-0.832897 0.11569 1.22167
0 0.88336 -1.72545
-0.770185 0.938518 -1.12512
0 1.29122 1.62094
-0.697777 1.17944 1.00275
0.849985 0.455 -1.72878
0.875119 0.0751897 -1.11667
0.85161 0.64 1.7818
0.803248 0.090279 1.19667
0.770185 0.938518 -1.12512
0.697772 1.17944 1.00275
-0.834637 0.120316 0.0549999
-0.897677 0.563508 -0.560743
-0.000980482 0.0624206 -0.533333
-0.899523 0.62207 0.554558
-0.00346448 0.0729016 0.628333
-0.739371 1.06437 -0.061185
8.23707e-06 1.35534 -0.593153
-7.67073e-06 1.60565 0.470783
0.8316 0.090318 0.04
0.8973 0.553485 -0.565743
0.898947 0.603503 0.544558
0.739369 1.06437 -0.061185
-0.895856 0.509254 -1.11839
0.895929 0.504242 -1.12089
-0.000490241 0.0680806 -1.11417
4.11854e-06 1.00253 -1.12512
0 0.455 -2.01133
-0.898869 0.592789 -0.00309253
0.898245 0.578494 -0.0105925
-0.00222248 0.0648867 0.0475
2.83174e-07 1.57408 -0.061185
-0.896346 0.643535 1.11221
0.896575 0.621752 1.09971
-0.00574998 0.086933 1.20917
-3.83536e-06 1.57971 1.00275
-0.00401774 0.6525 1.92333
-0.855495 0.275 -1.70764
-0.434752 0.0612589 -1.72874
-0.879758 0.0831539 -1.40333
-0.84899 0.395 1.80987
-0.414219 0.106 1.804
-0.828905 0.118089 1.51333
-0.818142 0.635 -1.72358
-0.3625 0.868023 -1.71011
-0.764557 0.893724 -1.39111
-0.72814 0.935 1.64158
-0.3225 1.27009 1.59981
-0.685342 1.20618 1.26874
0.434752 0.0612562 -1.72874
0.854556 0.275 -1.7067
0.876279 0.0811272 -1.40583
0.398148 0.10026 1.76974
0.850114 0.3575 1.80054
0.806022 0.0804075 1.48583
0.3625 0.868008 -1.7101
0.818171 0.635 -1.72361
0.764558 0.893724 -1.39111
0.3225 1.27015 1.59987
0.74293 0.9225 1.65289
0.685026 1.20586 1.26874
-0.830997 0.128732 -0.82
-0.833172 0.123373 -0.236667
-0.861374 0.346574 -0.544538
-0.429349 0.0685227 -0.530833
-0.849024 0.101154 0.93
-0.835729 0.117633 0.346667
-0.866502 0.369714 0.596446
-0.425248 0.0829748 0.633333
-0.785246 0.992746 -0.859138
-0.881011 0.809707 -0.576948
-0.746112 1.03195 -0.327169
-0.450527 1.325 -0.593153
-0.712171 1.15467 0.736768
-0.861855 0.899843 0.512671
-0.732223 1.09639 0.204799
-0.464624 1.57154 0.470783
0.836963 0.106248 -0.8275
0.422507 0.068253 -0.535833
0.830686 0.0983293 -0.249167
0.855714 0.333776 -0.552038
0.823484 0.0771408 0.9075
0.408656 0.0837423 0.623333
0.83144 0.0833805 0.329167
0.856866 0.344813 0.581446
0.785274 0.992774 -0.859138
0.450781 1.32548 -0.593153
0.88206 0.805318 -0.579448
0.746121 1.03195 -0.327169
0.712179 1.15468 0.736768
0.464619 1.57156 0.470783
0.865008 0.892277 0.507671
0.732215 1.09638 0.204799
-0.883419 0.482127 -1.42359
-0.424997 0.455 -1.98022
-0.000245121 0.0661147 -1.42146
0 0.258125 -1.91165
-0.896177 0.29426 -1.11503
-0.441272 0.0648347 -1.11292
-0.894919 0.654268 1.44821
-0.425534 0.65875 1.9329
-0.00689273 0.0888188 1.50374
-0.00602661 0.372089 1.99819
-0.881825 0.379612 1.16694
-0.419323 0.0923564 1.21542
2.05927e-06 0.962014 -1.42529
0 0.66918 -1.95351
-0.888756 0.723886 -1.12176
-0.38509 1.00655 -1.12512
-1.91768e-06 1.50809 1.31185
-0.00200887 0.971862 1.86505
-0.855123 0.911489 1.05748
-0.34889 1.56027 1.00275
0.883437 0.479621 -1.42484
0.424993 0.455 -1.98087
0.896228 0.289716 -1.11878
0.437314 0.065567 -1.11542
0.892306 0.630876 1.44076
0.423796 0.64625 1.93447
0.877072 0.356015 1.14819
0.398749 0.0930841 1.20292
0.889058 0.72138 -1.12301
0.385094 1.00627 -1.12512
0.860581 0.900595 1.05123
0.348884 1.56028 1.00275
-0.863921 0.357969 0.0259537
-0.428366 0.0727302 0.05125
-0.896795 0.536381 -0.839569
-0.898173 0.578148 -0.281918
-0.000735362 0.0656418 -0.82375
-0.00160148 0.0636817 -0.242917
-0.899463 0.607429 0.275733
-0.898934 0.632802 0.833384
-0.00284348 0.07166 0.337917
-0.00460723 0.0808952 0.91875
-0.873196 0.855618 -0.0321388
-0.479098 1.53805 -0.061185
6.17781e-06 1.1793 -0.859138
4.26012e-06 1.51255 -0.327169
-3.69378e-06 1.59745 0.204799
-5.75304e-06 1.6008 0.736768
0.856039 0.338848 0.0147037
0.416558 0.0738629 0.04375
0.896534 0.528864 -0.843319
0.897695 0.565989 -0.288168
0.898745 0.590999 0.266983
0.898558 0.612627 0.822134
0.874884 0.84947 -0.0358888
0.479129 1.53811 -0.061185
-0.887569 0.28463 -1.41346
-0.895952 0.31956 -0.829784
-0.890912 0.753021 -0.849353
-0.887904 0.679443 -1.40735
0.887246 0.282358 -1.41533
0.888619 0.67819 -1.40797
0.891436 0.749266 -0.851228
0.896057 0.309767 -0.835409
-0.438012 0.0646686 -1.4124
0.436033 0.0645261 -1.41365
0.425903 0.0645242 -0.825625
-0.428862 0.0643059 -0.821875
-0.373795 0.951722 -1.4082
-0.381077 1.15749 -0.859138
0.381087 1.15786 -0.859138
0.373797 0.951905 -1.4082
-0.429874 0.266563 -1.87625
-0.393748 0.65209 -1.91258
0.393746 0.65209 -1.91258
0.429872 0.266563 -1.87636
-0.862716 0.352237 -0.259292
-0.865238 0.363828 0.3112
-0.873215 0.880575 0.240266
-0.877087 0.832654 -0.304544
0.855981 0.33626 -0.268667
0.878497 0.827407 -0.307669
0.880285 0.876043 0.235891
0.856502 0.341806 0.298075
-0.428941 0.0704598 -0.239792
0.418925 0.0722731 -0.246042
0.411468 0.0810816 0.333542
-0.425647 0.0801733 0.342292
-0.487282 1.47646 -0.327169
-0.475458 1.56199 0.204799
0.475476 1.56204 0.204799
0.48731 1.47651 -0.327169
-0.890153 0.37443 0.881692
-0.880066 0.387306 1.48077
-0.841289 0.923245 1.35847
-0.864457 0.89319 0.785076
0.857506 0.348711 0.864817
0.8683 0.883098 0.779451
0.849748 0.911548 1.35475
0.874842 0.356758 1.46329
-0.419364 0.0858333 0.924375
0.405612 0.0867564 0.913125
0.398449 0.0962715 1.49479
-0.416771 0.097571 1.50854
-0.355542 1.58122 0.736768
-0.335695 1.49359 1.29029
0.335692 1.49362 1.29029
0.355531 1.58117 0.736768
-0.419877 0.383544 1.97531
0.410972 0.364794 1.97252
0.373148 0.947181 1.82608
-0.374017 0.953431 1.82403
-0.860868 0.185 -1.69969
-0.652128 0.0612813 -1.72872
-0.880673 0.0830354 -1.54917
-0.840702 0.26 1.81344
-0.617311 0.0880466 1.83195
-0.824618 0.121581 1.65917
-0.773479 0.725 -1.69224
-0.54375 0.860046 -1.70214
-0.752557 0.86214 -1.5241
-0.684327 1.07 1.58591
-0.48375 1.24275 1.57247
-0.678508 1.21892 1.40173
0.652128 0.0612787 -1.72872
0.85557 0.185 -1.69439
0.878972 0.0819834 -1.55042
0.60124 0.0748059 1.78519
0.843869 0.21625 1.80442
0.799883 0.0829976 1.63042
0.54375 0.859987 -1.70208
0.773585 0.725 -1.69235
0.75256 0.862143 -1.5241
0.48375 1.24278 1.5725
0.686461 1.06375 1.5863
0.678586 1.219 1.40173
-0.831544 0.127389 -0.674167
-0.832503 0.124838 -0.3825
-0.842784 0.238326 -0.536436
-0.648735 0.0611713 -0.529584
-0.835143 0.115831 0.784167
-0.835527 0.117039 0.4925
-0.847277 0.244893 0.61739
-0.645412 0.0694687 0.635833
-0.78031 1.00739 -0.726145
-0.823318 0.908127 -0.585051
-0.748962 1.01521 -0.460161
-0.666877 1.29199 -0.593153
-0.718524 1.14144 0.603775
-0.785862 1.01015 0.491727
-0.739849 1.1236 0.337791
-0.630785 1.42219 0.470783
0.829856 0.109807 -0.682917
0.639562 0.0605468 -0.537083
0.83026 0.102304 -0.39375
0.840802 0.220982 -0.545186
0.826794 0.0773797 0.762917
0.625846 0.0669031 0.620833
0.829986 0.0812853 0.47375
0.844184 0.211289 0.59989
0.78028 1.00736 -0.726145
[...]
POINT_DATA 3682
SCALARS point_scalars float 1
LOOKUP_TABLE default
-130.186
-63.2145
-71.7488
-55.4668
-128.213
-51.1642
-71.4013
-54.6545
-48.2075
-40.9367
-92.7129
-65.8501
-47.5506
-40.9274
-91.7384
-64.7045
-128.244
-167.021
-47.1569
-41.5728
-62.568
-63.3977
-50.0316
-124.061
-157.773
-49.7228
-42.8116
-59.2012
-53.6317
-48.2848
-24.5135
-120.704
-69.3247
-57.0958
-60.0093
-54.1516
-49.4669
-44.8193
-66.0258
-125.326
-77.7102
-63.2768
-58.8947
-55.2791
-120.733
-175.865
-50.3072
-41.6826
-59.3168
-49.0661
-49.0661
11.8174
-47.2074
-46.5317
116.221
-48.7794
-48.5892
-24.5849
-65.7122
-113.402
-84.2788
-63.1879
-55.1269
-50.0727
-131.445
-180.353
-47.5883
-40.35
-52.2991
-39.0177
-37.2806
38.3157
-35.7653
-33.0457
145.306
-46.9794
-46.5278
-24.435
-65.2952
-121.659
-84.1953
-62.2468
-54.3018
-48.9705
-126.363
-121.961
-46.6281
-39.905
-49.7116
-47.566
-38.91
-76.8422
-146.378
-64.5333
-41.5563
-49.971
-41.1132
-37.8503
-24.9238
-120.765
-68.6854
-54.9848
-57.4011
-48.0843
-42.4057
-44.5994
-65.8092
-123.668
-76.8646
-62.4691
-58.1481
-54.5008
-108.597
-147.167
-68.3812
-55.5172
-45.9594
-46.4966
-39.0099
-58.1763
-49.1828
-58.9122
-107.262
-68.3694
-47.7529
-41.738
-57.5136
-57.7307
-43.4749
-56.9922
-53.1263
-49.1473
-44.6137
-73.0884
-8.94546
-86.3413
-42.3066
-56.1429
-47.4174
-72.1743
-74.1686
-73.7622
-72.334
17.1019
199.924
-51.1616
-50.0365
-46.5828
-117.628
-52.0441
-48.7927
-43.464
-67.0888
-44.3772
-114.334
-152.347
-84.8774
-55.8367
-52.8611
-51.3347
-71.0185
-33.8425
-73.9226
-54.9295
-49.8123
-57.4302
-152.1
-113.302
-86.8159
-44.387
-45.4643
-45.7576
-33.6876
-70.4717
-73.3925
-48.9467
-51.888
-56.2036
-62.106
-44.6905
-51.7076
-52.3377
-45.8467
-42.7609
-44.3386
-43.9136
-86.2402
-68.5188
-82.2619
-18.2151
-61.3196
-57.7146
-66.0691
-79.8956
-61.958
-52.2468
-44.2139
-51.0089
-38.1949
-43.3025
-40.9967
-43.2814
-85.4822
-17.7676
-67.519
-81.3123
-60.1323
-79.3304
-56.2565
-65.1397
-100.057
177.994
-93.6806
177.215
-73.3576
-70.952
-55.9912
-47.6592
-44.2526
-37.7041
-51.024
-44.6711
-9.75254
131.648
-74.7458
3.43224
-55.7251
-49.1349
-55.7492
-67.2746
-99.6924
178.118
-73.1977
-70.9016
-50.5201
-42.2852
-47.4696
-42.66
-74.1269
3.08714
-54.8807
-66.826
-46.5202
-45.959
-63.5643
-53.396
-60.1244
-49.1274
-49.8403
-50.0067
-45.2578
-43.7604
-60.3012
-108.681
36.9572
-105.67
-99.3668
-76.925
-45.7736
-45.6701
-62.9183
-52.3729
-48.5119
-47.3617
-59.1984
-108.068
-97.05
-64.763
-69.0944
-100.598
-96.7946
-100.103
-68.2892
-64.1827
-90.9846
-91.0115
-59.0768
-59.1762
-20.0489
24.1166
24.6327
-19.8621
164.386
117.282
117.353
164.852
-48.0798
-45.5395
-59.1317
-64.4969
-47.5119
-63.4277
-59.1322
-44.6488
-48.1923
-48.0174
-44.3217
-44.8456
-102.946
-90.9191
-90.412
-102.056
-45.5808
-54.8396
-59.4144
-56.2292
-39.4492
-54.3082
-56.1212
-48.6491
-44.6416
-43.1387
-43.0863
-47.0262
-75.0266
-57.8047
-57.2179
-74.6003
-45.5332
-32.0039
-47.6762
-49.0517
-112.306
-158.678
-120.025
-57.9646
-57.4232
-53.5487
-68.5149
-21.1662
-87.2179
-56.2609
-50.9692
-60.6407
-158.295
-109.174
-120.011
-47.5775
-48.5787
-42.2235
-21.0675
-68.1506
-86.6262
-50.1337
-54.5785
-59.4411
-51.6074
-45.7997
-50.1432
-50.7862
-41.3395
-41.9871
-43.1718
-43.1641
-99.6939
-79.5248
-86.3485
-104.956
-62.5085
-62.6294
-65.8274
-73.2575
-50.6096
-50.4929
-45.2407
-48.97
-39.9287
-42.1725
-40.7994
-41.8442
-98.873
-106.009
-78.4955
-85.2572
-61.3619
-72.3674
-61.4719
-64.6866
-115.406
-87.5866
-138.726
125.479
-146.177
-146.034
-112.131
114.585
-76.0918
-65.3897
-71.8786
-69.0612
-55.2786
-55.1687
-58.1882
-47.2887
-49.2493
-44.1285
-44.7178
-38.4182
-47.6517
-46.101
-50.3545
-44.9563
-39.5953
-39.553
-26.8044
49.4016
-61.5104
-63.0152
-70.7473
-16.14
-49.4472
-48.9316
-51.1961
-49.2945
-58.0295
-59.9463
-57.8773
-66.629
-112.101
-86.9147
-138.022
125.527
-76.1288
-66.6557
-71.7881
-69.1526
-45.9721
-49.3292
-51.3124
-41.1131
-41.7693
-45.5438
-46.3021
-42.0511
-60.9302
-62.4173
-70.3388
-15.7313
-56.8251
-58.7295
-56.11
-66.1104
-43.9669
-43.1863
-45.4923
-44.7279
-54.1337
-61.4744
-59.8038
-54.959
-52.792
-52.7639
-56.2167
-51.07
-46.8904
-52.1876
-49.4148
-49.2288
-44.7449
-44.3035
-44.3646
-43.4652
-77.8232
-69.5142
-68.4062
-88.9959
-9.11662
-9.0786
20.7245
-46.996
-85.1358
-84.8773
-91.9733
-81.5726
-43.035
-42.326
-44.1144
-44.3183
-53.3114
-60.5933
-58.9916
-53.9862
-45.2248
-50.5731
-47.9376
-47.1167
-76.965
-68.6356
-67.4451
-88.1011
-85.2266
-73.8772
-74.0847
-67.4717
-84.7269
-73.6168
-73.617
-67.1185
-81.5869
-71.9802
-71.9862
-65.4178
1.6779
15.8735
15.1215
32.1959
197.016
189.778
187.601
197.033
-48.7432
-52.1215
-50.4377
-54.7471
-47.67
-51.0744
-49.2056
-53.6235
-46.4656
-47.7367
-45.8796
-46.3114
-115.981
-126.309
-108.908
-115.733
-53.2902
-51.7091
-53.6878
-51.4286
-49.3402
-47.9577
-50.4613
-48.4312
-43.7751
-44.0901
-42.9767
-43.2957
-61.4479
-67.3183
-67.0796
-72.1945
-45.9571
-42.9451
-47.407
-42.8952
-140.136
105.871
-111.481
80.8349
-92.8675
-89.0772
-56.182
-46.3401
-49.0369
-46.2379
-54.8412
-48.2474
-127.19
72.1623
-37.1789
45.8387
-89.6804
-39.2057
-60.8115
-49.3347
-52.3861
-49.3823
-57.1255
-59.8632
-111.41
80.9231
-140.063
105.422
-93.0857
-89.1458
-43.274
-33.2545
-47.9237
-34.9145
-48.4517
-43.0476
-36.8453
46.3165
-126.626
72.5117
-89.2227
-38.9867
-51.7446
-48.7556
-58.0226
-46.6843
-54.9552
-59.1508
-64.7506
-57.9289
-46.8363
-46.7063
-55.5621
-49.3778
-55.5419
-50.1081
-42.5821
-45.6496
-44.732
-44.062
-45.0242
-43.3469
-43.9759
-44.0621
-76.7607
-1.31389
-68.9988
-66.4944
-73.5939
-112.277
10.2678
-50.8149
-59.7897
-70.6387
-58.0998
-56.8567
-63.0486
-77.11
-84.3622
-77.6873
-64.5531
-57.8098
-55.4256
-49.9239
-45.6761
-46.5953
-54.6544
-48.8359
-35.0987
-42.9932
-43.43
-43.124
-43.1872
-43.2941
-44.0515
-42.3435
-75.9169
-1.05527
10.4339
-50.6253
-68.1864
-65.3627
-72.4453
-111.071
-58.0017
-69.9685
-83.9423
-77.2101
-56.7252
-55.0926
-62.3236
-76.1939
-98.9227
-99.1558
171.551
157.507
-92.6665
-92.6658
177.462
177.357
-84.2863
-66.9495
-79.4593
-64.1921
-55.1836
-57.2928
-47.1612
-48.9999
-43.3524
-45.5992
-42.4672
-33.6992
-52.3732
-52.1687
-44.1114
-45.5858
-11.4047
-11.3297
137.027
137.11
-70.8833
-84.8556
-5.62592
17.777
-56.8032
-56.4694
-48.5584
-49.247
-55.9127
-55.8807
-71.314
-62.3507
-98.0791
-98.7466
157.461
171.652
-84.2176
-66.5929
-79.5212
-64.1982
-53.1192
-49.2972
-38.1159
-46.8989
-49.8449
-47.5501
-43.1011
-42.8462
-84.2852
-70.2415
18.0438
-5.47702
-54.1477
-52.6223
-61.84
-70.9004
-47.1836
-46.0059
-46.9694
-45.4306
-63.9512
-65.0244
-50.5615
-57.7345
-59.8966
-59.9169
-48.952
-48.8568
-47.5914
-53.2874
-48.1591
-52.0895
-44.9376
-45.1772
-44.069
-43.3432
-61.0682
-62.5169
-119.261
-98.7471
34.0499
34.2084
-105.612
-105.463
-97.8519
-97.5822
-76.6028
-76.3943
-46.5328
-45.149
-46.7464
-45.0931
-64.2947
-63.2528
-49.6791
-56.6418
-52.1204
-46.3082
-44.2568
-49.8184
-61.2916
-56.8689
-98.1177
-118.665
-135.27
-81.9445
-85.1529
-137.505
-54.1093
-57.4059
-67.0996
-66.3497
-81.0094
-70.2471
-68.3625
-63.313
-104.098
-135.016
-84.6494
-78.6197
-135.945
-138.153
-85.0166
-81.9317
-103.532
-78.2213
-84.156
-134.412
-80.1249
-62.449
-67.8391
-69.4621
-52.9234
-65.968
-66.7395
-56.7413
-114.257
-110.93
-80.9889
-77.1372
-114.281
-77.3057
-80.9982
-110.889
-53.9921
-55.9384
-65.1262
-62.9943
-54.175
-63.1422
-65.1361
-55.9709
-53.9853
-23.9889
-0.618139
-28.6373
-68.6045
18.4158
29.4048
-10.3074
-68.3173
-9.71889
29.5274
18.821
-53.7108
-28.5115
-0.604055
-23.611
-6.7443
122.766
186.544
116.038
51.6671
53.1647
179.207
102.576
51.8899
102.758
179.325
53.1658
0.348455
116.426
186.525
122.872
-48.0072
-46.0554
-49.5672
-52.0214
-44.1842
-47.1898
-48.1102
-45.0765
-62.7439
-66.6427
-54.0957
-52.5875
-76.1098
-59.4839
-56.1083
-71.1909
-46.9325
-51.211
-48.5702
-44.857
-75.192
-70.2011
-55.0414
-58.4909
-61.9318
-51.2278
-52.7316
-65.7288
-42.6561
-43.6267
-46.9569
-45.7584
-48.3404
-50.8482
-47.5873
-45.6642
-48.2392
-45.2491
-47.4632
-50.7712
-42.1974
-44.0614
-45.641
-43.834
-42.9076
-44.5235
-45.8337
-44.3487
-131.484
-97.6891
-125.158
-46.5778
-74.5162
-90.4944
-106.48
-82.2031
-73.7203
-81.3071
-106.197
-90.2516
-130.557
-45.2415
-124.926
-96.7615
-41.4338
-51.5893
-51.6327
-46.9387
-56.7762
-56.2485
-52.7016
-51.394
-59.3548
-56.7309
-53.7514
-59.6968
-60.044
-51.9341
-52.8469
-58.6089
-40.3561
-44.7278
-48.5732
-48.3694
-58.6948
-57.7249
-50.1026
-50.0243
-57.0518
-54.5115
-50.5397
-55.615
-47.9886
-46.4859
-48.3444
-48.8816
-43.4632
-43.7861
-43.6951
-44.1624
-41.6388
-43.014
-43.0576
-43.2436
-43.8738
-43.4224
-43.1168
-42.4633
-51.4077
-46.2429
-44.6947
-46.7855
-68.7862
-69.6059
-72.1109
-80.7599
-54.2191
-51.7858
-61.7714
-63.5851
-53.4524
-62.7684
-61.5083
-51.379
-67.896
-80.5249
-71.8878
-68.9761
-47.0696
-42.9055
-45.8217
-47.0109
-36.2835
-37.628
-39.9836
-34.2747
-48.9814
-49.2003
-46.74
-44.7957
-50.0678
-48.4962
-48.5398
-49.3665
-117.572
-148.24
-162.178
-61.1173
-61.0297
-56.7331
-75.4612
-31.9607
-87.9527
-55.8869
-52.2576
-57.2238
-147.785
-114.164
-158.059
-50.6964
-51.9844
-45.5861
-31.7866
-75.1482
-87.341
-51.4505
-54.7601
-56.3108
-50.1409
-46.5756
-49.1467
-50.1558
-41.777
-41.6245
-42.5027
-40.6575
-99.142
-85.6493
-88.6084
-123.578
-63.2928
-65.0082
-67.4652
-69.3734
-49.3235
-49.4398
-45.9704
-48.192
-39.9463
-41.4256
-39.8118
-41.2493
-98.2853
-122.527
-84.7722
-87.5371
-62.1577
-68.3773
-63.8602
-66.3842
-113.788
-92.8763
-153.133
18.0274
-146.256
-146.19
-128.417
-131.862
-71.3156
-65.7233
-70.582
-68.1274
-55.8398
-55.1148
-58.3645
-48.5669
-47.4738
-44.423
-45.042
-40.6518
-47.1885
-45.9651
-48.7648
-45.2913
-40.6121
-40.5653
-37.2173
-7.29076
-58.846
-61.3883
-65.0112
-38.2977
-49.2969
-49.0295
-49.904
-49.059
-58.4927
-59.36
-57.8854
-63.487
-109.955
-91.9923
-153.061
18.1758
-71.3401
-65.6742
-70.4175
-68.3805
-47.617
-48.538
-50.6222
-41.7
-41.1133
-42.04
-43.7415
-41.6878
-58.0097
-60.8073
-64.4743
-37.5618
-57.282
-58.1593
-56.6023
-63.1485
-43.6681
-43.279
-44.6927
-43.5788
-55.4946
-58.9933
-58.2854
-55.9244
-52.9958
-52.9604
-54.4416
-52.1412
-48.0198
-50.5522
-49.2149
-49.0885
-44.644
-44.4287
-44.3059
-44.1759
-75.2497
-71.3079
-71.3299
-80.434
-8.48668
-8.09918
7.50723
-22.3362
-86.0691
-85.9348
-88.9662
-83.8859
-42.5716
-40.6871
-43.2696
-43.4496
-54.6275
-58.1437
-57.4625
-55.0104
-46.2742
-48.8475
-47.6161
-47.1741
-74.404
-70.4006
-70.3292
-79.5284
-79.1494
-74.1893
-74.1542
-70.4701
-78.6552
-73.9285
-73.7216
-70.0721
-76.6568
-72.2697
-72.2728
-68.6792
9.19688
17.3663
16.685
25.6668
199.133
189.506
205.449
199.138
-49.8748
-51.6249
-50.7751
-52.7773
-48.745
-50.5293
-49.6029
-51.6402
-46.5781
-47.0801
-46.2473
-46.4951
-117.311
-122.534
-113.453
-117.183
-52.5001
-51.9251
-52.5121
-51.8461
-49.0147
-48.4248
-49.3517
-48.7341
-43.5978
-43.7694
-43.1935
-43.3272
-64.1689
-67.1511
-67.0318
-69.7125
-45.3312
-44.5538
-44.9983
-43.433
-115.021
-115.85
-159.531
-4.40776
-159.557
-147.652
-131.853
-125.573
-99.0581
-80.7159
-88.5718
-87.3768
-57.4001
-55.8532
-57.5192
-47.901
-56.1309
-51.2622
-50.6528
-48.1883
-51.9606
-48.9119
-54.2981
-49.0619
-62.5219
-81.8452
-123.55
18.4411
-34.1699
-38.3372
-44.7112
0.578472
-77.6039
-67.0442
-82.2644
-52.4685
-55.832
-54.8599
-59.1306
-50.9866
-50.2482
-49.5773
-50.8881
-49.4254
-58.7347
-57.7249
-56.7119
-61.74
-159.231
-147.449
-131.718
-125.074
-111.426
-115.039
-158.403
-10.8277
-99.8207
-80.8021
-89.9827
-87.4821
-45.5941
-43.5472
-43.4506
-36.6258
-46.475
-45.866
-47.5363
-37.7644
-43.548
-43.1745
-47.0432
-43.3614
-34.1262
-38.3442
-44.5229
0.615818
-62.1219
-81.2298
-123.031
18.9855
-77.0575
-66.4799
-81.7679
-52.0952
-49.3767
-48.8741
-50.0715
-48.663
-53.3555
-50.5984
-56.9907
-47.9846
-57.0569
-56.5361
-55.6797
-60.9059
-54.2823
-69.7443
-64.0266
-57.3845
-45.1369
-44.2674
-45.9437
-45.0953
-51.0525
-52.7587
-53.2008
-50.2595
-51.937
-52.5872
-54.0246
-51.0442
-38.7209
-50.7139
-42.0808
-47.7165
-42.2362
-43.1149
-43.8475
-43.3476
-43.7105
-45.6296
-44.6857
-43.872
-43.2642
-44.6765
-43.9628
-43.9411
-102.292
-74.4939
-83.2217
-43.6055
-72.933
-64.6791
-68.7342
-67.528
-84.7939
-80.1417
-77.4206
-92.6427
-39.4011
-11.7522
-2.56271
-39.1281
-61.9173
-60.5837
-60.4255
-65.969
-60.2416
-54.3026
-57.7203
-57.3514
-65.2236
-67.4599
-64.421
-72.2936
-78.3726
-83.493
-82.5872
-79.0427
-54.6468
-66.9217
-64.416
-57.4995
-51.8132
-52.5164
-53.8853
-51.0464
-44.5911
-43.2871
-44.8903
-45.6703
-49.9441
-51.998
-52.4215
-49.735
-39.6243
-46.5326
-35.1898
-42.7044
-42.3693
-44.0083
-43.371
-43.1431
-40.0696
-41.6076
-42.6008
-42.637
-42.5846
-43.9788
-43.6922
-42.8293
-101.463
-73.8226
-82.7354
-43.4031
-39.0101
-11.4946
-2.35529
-39.4677
-71.816
-63.7382
-67.8047
-66.5707
-83.8711
-79.2091
-76.3598
-91.6947
-60.7483
-59.4018
-59.1059
-65.0332
-77.5174
-83.1037
-82.0279
-78.5295
-58.8856
-52.7213
-56.3837
-55.6449
-64.271
-66.5282
-63.4774
-71.3803
-117
-90.6119
-99.6051
-99.1235
165.509
189.139
169.531
176.909
-101.549
-87.1407
-93.2636
-93.26
179.108
184.798
177.69
177.62
-72.6635
-73.8118
-78.0505
-69.6193
-70.0336
-71.5674
-74.9225
-67.4278
-57.1093
-54.3758
-55.5276
-56.5532
-47.4287
-46.8877
-47.5678
-48.3558
-44.4707
-44.0235
-43.7153
-44.9012
-37.817
-39.0846
-40.1106
-35.4826
-50.8493
-51.4233
-50.8502
-51.4544
-44.7031
-44.3796
-44.3285
-45.0985
-18.091
-0.337322
-9.99701
-9.93919
97.4821
164.024
134.667
134.598
-75.5163
-73.9302
-71.7964
-79.2472
-5.24986
10.6108
-1.70343
10.9488
-53.3323
-59.9665
-56.196
-56.0199
-49.6743
-48.997
-48.8177
-49.1894
-57.232
-55.4409
-54.648
-55.8708
-67.1083
-67.4646
-69.4125
-64.7408
-116.365
-90.3311
-98.9799
-98.7588
165.424
189.208
176.931
169.631
-72.5666
-73.6187
-77.9324
-69.3269
-70.0012
-71.5694
-74.9727
-67.3693
-50.9472
-49.9072
-51.5677
-49.782
-41.7656
-42.477
-41.451
-44.2894
-47.4537
-47.5437
-47.8058
-47.6362
-42.3963
-42.7912
-42.5765
-42.7644
-74.9515
-73.3592
-78.6251
-71.211
-3.88276
10.9126
10.0581
-1.40736
-55.5583
-52.6502
-54.0188
-52.6739
-66.5801
-67.1242
-64.2531
-68.9882
-45.9522
-47.5657
-46.8538
-46.2711
-45.3408
-46.253
-46.4226
-45.6923
-61.7014
-65.2337
-63.5878
-64.0648
-54.1393
-52.7415
-51.8558
-55.3358
-58.1499
-62.4905
-60.0617
-60.0704
-50.0345
-48.3873
-49.0929
-49.0429
-49.5425
-50.0999
-48.6236
-51.4202
-49.5149
-50.7608
-49.2234
-50.9475
-44.5908
-45.7692
-45.102
-45.2368
-43.5459
-43.6432
-43.9191
-43.5484
-65.212
-56.9261
-57.7826
-61.4092
-101.418
-113.118
-114.135
-102.665
29.6001
36.5129
35.8252
35.9281
-67.3645
-121.623
-105.991
-105.993
-95.4833
-103.898
-99.0047
-98.8703
-79.2542
-74.5958
-76.8909
-76.7873
-44.9723
-46.3976
-46.1475
-45.4674
-45.0199
-46.0195
-46.1821
-45.3557
-60.9517
-64.6979
-63.3816
-62.8314
-53.1645
-51.7019
-50.9221
-54.2839
-48.1756
-48.8398
-50.114
-47.2998
-47.112
-47.8467
-46.1639
-48.4881
-64.0936
-55.8823
-60.2352
-57.123
-100.598
-112.721
-102.053
-113.538
-112.706
-95.2775
-98.2568
-89.4481
-65.069
-60.1673
-64.8732
-64.2489
-72.8299
-69.0099
-69.5208
-66.7126
-114.218
-98.5591
-99.6511
-91.2255
-112.443
-95.2289
-97.6412
-89.2114
-113.455
-98.1013
-99.2777
-90.7887
-72.1349
-68.138
-68.818
-65.8933
-64.6532
-59.3331
-64.4234
-63.8444
-99.3577
-90.1716
-91.8764
-84.7899
-99.3147
-90.2209
-91.885
-84.8261
-58.3884
-57.3785
-61.2754
-59.6048
-58.524
-57.438
-61.3385
-59.6449
-29.4354
-27.6592
-14.9307
-12.1653
13.8832
19.627
23.9545
30.7668
14.6328
20.0594
24.4499
31.0474
-29.1391
-27.5422
-14.778
-12.0464
157.752
169.626
168.253
172.672
101.401
87.196
138.728
130.725
87.4101
101.694
129.447
138.827
170.255
158.008
172.577
168.373
-47.2927
-48.6394
-47.5966
-49.2845
-45.1456
-45.2666
-45.7806
-46.5276
-58.8171
-61.8341
-55.5411
-60.8727
-65.5517
-68.7071
-60.778
-63.4597
-46.6116
-48.096
-46.9927
-48.3047
-64.4485
-68.113
-59.6331
-62.3731
-58.1942
-61.3798
-54.87
-59.0404
-43.9676
-44.3591
-44.9006
-45.1601
-47.5068
-49.1034
-47.5445
-48.654
-48.9664
-47.3125
-48.4966
-47.2826
-43.6575
-43.8471
-44.67
-45.0028
-44.442
-44.1245
-45.5235
-45.0676
-125.282
-76.1652
-123.391
-103.455
-84.0146
-87.3135
-94.6692
-94.9722
-86.9685
-82.862
-94.574
-94.022
-75.3342
-124.098
-101.382
-122.818
-43.6229
-42.1676
-53.2947
-47.2086
-55.2557
-54.9628
-55.0335
-53.1261
-61.5257
-59.2698
-58.2805
-58.3799
-58.3153
-56.5633
-56.0228
-53.5302
-38.0468
-41.6434
-44.4592
-41.6639
-56.724
-54.6693
-54.0675
-51.4158
-57.4336
-56.5402
-54.386
-54.9103
-48.3157
-48.8859
-48.9089
-47.8214
-45.0779
-44.3024
-44.3407
-44.2551
-43.0767
-43.1287
-43.401
-43.1567
-43.212
-42.927
-43.1198
-43.0061
-47.883
-47.3966
-46.2984
-46.3913
-74.2325
-76.4208
-73.1254
-76.0891
-54.5205
-58.5884
-57.3091
-61.1243
-53.9246
-58.0555
-56.8401
-60.5696
-73.7352
-75.9767
-72.6997
-75.7751
-46.1771
-45.6558
-45.8797
-44.4488
-31.9224
-33.3406
-32.7135
-33.8814
-48.4371
-47.0397
-48.1828
-47.8977
-49.0131
-49.2816
-49.236
-49.1824
-165.952
-20.6224
-148.279
-113.931
-129.803
-117.053
-60.7956
-48.87
-55.6296
-49.9037
-55.9391
-52.5944
-97.6182
8.59963
-54.8556
25.7029
-93.6934
-69.602
-58.2273
-51.4009
-52.2577
-50.4659
-59.5773
-57.0556
-148.242
-113.11
-162.754
-21.8817
-130.854
-117.109
-44.8479
-39.2507
-50.2912
-38.7663
-46.6481
-44.0439
-54.3125
25.8076
-97.0251
9.02141
-93.1136
-69.1655
-51.4467
-49.6065
-56.1961
-49.8908
-57.1203
-56.2577
-53.2949
-50.5834
-47.0512
-46.4341
-51.6777
-48.8459
-52.101
-49.348
-40.3327
-44.4491
-43.3383
-41.9229
-43.7376
-42.3536
-42.9005
-43.3741
-87.9019
-121.914
-80.4434
-77.9412
-80.7986
-102.343
-85.4008
-130.616
-61.2337
-65.9644
-62.9187
-61.2246
-64.9241
-70.4817
-74.6758
-70.7425
-52.2603
-50.3436
-51.8894
-49.2788
-46.1611
-46.5874
-50.4949
-47.7986
-39.8915
-41.135
-42.0425
-42.1166
-42.0254
-41.6224
-42.2651
-41.1731
-86.9975
-120.974
-83.8684
-130.051
-79.6144
-76.9776
-79.8984
-101.405
-59.9122
-64.9445
-73.7963
-69.86
-61.7429
-59.9813
-63.7186
-69.5374
-156.482
-3.63478
-140.673
24.545
-137.28
-136.302
129.642
118.61
-127.418
-154.732
-127.33
-147.942
-111.543
-111.518
115.01
115.016
-79.7762
-75.5753
-66.2802
-63.7956
-76.2282
-68.6292
-72.9826
-66.1555
-57.2327
-47.9149
-58.8496
-49.776
-56.901
-59.1596
-47.3222
-47.7844
-47.6607
-44.8664
-43.4317
-37.2779
-43.9293
-45.7085
-40.5714
-35.8549
-49.7932
-46.6688
-49.1141
-44.8368
-50.333
-50.7031
-44.4975
-45.4598
-36.3721
-1.5481
-36.2867
-1.56052
-26.9801
-26.9354
50.7219
50.2928
-69.3774
-40.0471
-70.4183
-39.9559
-69.4418
-73.5266
-19.8081
-11.3947
-50.2937
-49.1879
-49.7787
-48.8117
-51.4873
-51.2686
-49.2578
-49.3551
-56.9074
-61.896
-58.9236
-64.3796
-57.8274
-58.0917
-67.7281
-65.5881
-159.989
0.262599
-140.172
24.753
-136.776
-135.604
118.813
129.484
-79.7054
-75.9259
-66.067
-63.3223
-76.1199
-68.4958
-73.0737
-66.0689
-48.4699
-38.8644
-53.5362
-44.6214
-53.0268
-49.9512
-40.6389
-42.3893
-44.4253
-42.3292
-45.976
-43.3205
-46.8299
-46.0106
-41.9338
-42.3222
-68.9562
-39.5907
-69.7266
-38.5276
-73.0886
-68.8975
-11.0482
-19.3915
-55.6537
-60.8771
-57.8522
-63.1699
-56.6605
-55.875
-64.8391
-67.2493
-45.2194
-44.2111
-44.249
-43.4293
-45.7581
-45.2678
-45.4538
-44.6911
-55.6044
-52.9848
-62.3713
-60.4637
-58.4835
-61.3864
-53.393
-56.9811
-54.1466
-51.9872
-54.1095
-51.9274
-56.0891
-56.1156
-50.9981
-50.9588
-46.9982
-46.8176
-52.3435
-52.0105
-48.2527
-50.8743
-48.1365
-50.4864
-44.3373
-44.3697
-44.0022
-43.8959
-44.2288
-44.3896
-43.5851
-43.3168
-74.9829
-85.7213
-69.2242
-75.8519
-67.445
-69.593
-93.2648
-85.2647
3.6497
-26.8491
4.00623
-26.3433
19.5051
19.5972
-46.1596
-46.1309
-87.6322
-82.8417
-87.3801
-82.5948
-91.6224
-91.505
-81.4197
-81.3005
-44.0001
-43.8765
-43.0755
-43.0522
-44.464
-43.9109
-44.7778
-44.0389
-54.6562
-52.1491
-61.4616
-59.5202
-60.5534
-57.8042
-52.4911
-55.9998
-45.4472
-44.9571
-50.8617
-50.2166
-49.4223
-46.7665
-45.9205
-48.4648
-73.9541
-84.7992
-68.3033
-74.9453
-68.668
-66.439
-84.3702
-92.3598
-85.6189
-84.9314
-78.8118
-69.9459
-70.7161
-78.6654
-67.2012
-67.8947
-85.1509
-84.3797
-78.6183
-69.6719
-78.1883
-70.2196
-67.3621
-66.9023
-81.4106
-81.4116
-76.167
-68.3343
-76.1777
-68.3256
-65.3502
-65.3545
1.13665
1.15886
6.08174
22.0606
22.8243
6.59589
31.0455
31.1453