# vtk DataFile Version 2.0
tet_velo
ASCII
DATASET UNSTRUCTURED_GRID
POINTS 29498 float
-0.775 0.105 -1.47552
-0.881807 0.195 1.585
-0.774388 0.475 -1.445
-0.735951 0.635 1.585
0.775 0.105 -1.47552
0.881807 0.195 1.585
0.77439 0.475 -1.445
0.735972 0.635 1.585
-0.812785 0.132818 -0.455347
-0.877533 0.133672 0.564827
-0.764576 0.531334 -0.435
-0.729568 0.562471 0.575
0.812787 0.132815 -0.455347
0.877535 0.133669 0.564827
0.764578 0.531327 -0.435
0.729578 0.562466 0.575
-1.55459 -0.126592 -2.29707
-1.56145 -0.0947287 -1.485
-1.59506 -0.0745354 -0.464565
-1.65158 -0.0700534 0.557919
-1.67704 -0.0253011 1.57853
-1.67898 0.019449 2.39144
-1.67856 0.0613649 3.20278
-1.55485 0.0683978 -2.28546
-1.55784 0.103515 -1.47451
-1.58985 0.131537 -0.456053
-1.64584 0.139843 0.56332
-1.6676 0.192809 1.58197
-1.67525 0.237726 2.39474
-1.67807 0.278195 3.20641
-1.55439 0.450812 -2.2594
-1.54946 0.484807 -1.44803
-1.54622 0.532368 -0.436507
-1.53723 0.564215 0.574294
-1.55451 0.627318 1.58601
-1.61399 0.671068 2.3992
-1.6504 0.708624 3.21251
-1.56152 1.04448 -2.22796
-1.55861 1.08102 -1.41811
-1.55246 1.13278 -0.409887
-1.5429 1.18726 0.596143
-1.55053 1.24806 1.60447
-1.57924 1.29421 2.41454
-1.61259 1.33467 3.22675
-0.771948 -0.124968 -2.29772
-0.772674 -0.0921565 -1.48596
-0.796132 -0.0728563 -0.464436
-0.842209 -0.0746863 0.559205
-0.860385 -0.0254668 1.58078
-0.869002 0.0204559 2.39296
-0.873405 0.0625583 3.20366
-0.775519 0.0684355 -2.28566
-0.88007 0.240001 2.396
-0.879787 0.280209 3.20708
-0.777659 0.446793 -2.25814
-0.833909 0.675577 2.39899
-0.863937 0.71185 3.21247
-0.785201 1.04153 -2.22672
-0.784071 1.07809 -1.41674
-0.780591 1.1315 -0.409061
-0.77089 1.18745 0.596044
-0.77439 1.25045 1.60376
-0.800071 1.2972 2.41384
-0.829818 1.3373 3.22624
0.790074 -0.124969 -2.29772
0.796169 -0.0921577 -1.48596
0.827134 -0.0728588 -0.464436
0.869114 -0.0746889 0.559205
0.865194 -0.0254678 1.58078
0.803597 0.0204548 2.39296
0.762782 0.0625569 3.20367
0.779928 0.0684344 -2.28566
0.779587 0.24 2.39599
0.745751 0.280208 3.20708
0.773109 0.446792 -2.25814
0.730728 0.675577 2.39899
0.724587 0.711848 3.21247
0.765842 1.04153 -2.22672
0.762519 1.07809 -1.41674
0.757475 1.13149 -0.409061
0.757469 1.18745 0.596044
0.758685 1.25045 1.60376
0.748645 1.29719 2.41384
0.734613 1.3373 3.22624
1.57405 -0.126596 -2.29707
1.5809 -0.0947328 -1.485
1.61881 -0.0745411 -0.464565
1.67553 -0.0700587 0.557919
1.68259 -0.0253043 1.57853
1.62894 0.0194463 2.39144
1.58188 0.0613616 3.20278
1.56157 0.0683944 -2.28546
1.56121 0.103511 -1.47451
1.59429 0.131531 -0.456053
1.65423 0.139838 0.56332
1.66798 0.192806 1.58197
1.60624 0.237724 2.39474
1.56344 0.278192 3.20641
1.55018 0.450808 -2.2594
1.54628 0.484802 -1.44803
1.54372 0.532359 -0.436507
1.54038 0.564208 0.574294
1.55234 0.627315 1.58601
1.54098 0.671065 2.3992
1.52968 0.708621 3.21251
1.5431 1.04448 -2.22796
1.53848 1.08102 -1.41811
1.5322 1.13277 -0.409887
1.5303 1.18725 0.596143
1.53281 1.24805 1.60447
1.52902 1.2942 2.41455
1.52116 1.33466 3.22675
-0.796759 0.29 -1.48233
0 0.101253 -1.47927
-0.809494 0.103307 -0.965433
-0.842355 0.415 1.61848
0 0.156891 1.62311
-0.862345 0.18166 1.07491
9.83477e-07 0.501041 -1.47104
-0.890257 0.623942 -0.94
1.04904e-05 0.613508 1.56351
-0.792352 0.658329 1.08
0.796763 0.29 -1.48233
0.809499 0.103302 -0.965433
0.842302 0.415 1.61841
0.862281 0.181725 1.07491
0.890439 0.624119 -0.94
0.792395 0.658353 1.08
-0.868905 0.109498 0.05474
-0.820205 0.332076 -0.445173
1.30112e-06 0.100873 -0.455347
-0.672593 0.348072 0.569913
1.37899e-06 0.101007 0.564827
-0.717847 0.517678 0.07
5.88578e-07 0.755864 -0.435
4.98821e-06 0.674914 0.575
0.869295 0.109109 0.05474
0.820207 0.332071 -0.445173
0.6726 0.348068 0.569913
0.717866 0.517685 0.07
-0.899489 0.311038 -0.952717
-0.734317 0.340074 0.06237
-0.898199 0.381536 1.07746
6.5056e-07 0.100655 -0.965433
1.34006e-06 0.100971 0.05474
6.89496e-07 0.0868551 1.07491
4.91738e-07 0.29 -1.67079
5.24521e-06 0.415 1.60885
7.86028e-07 0.619904 -0.94
2.7884e-06 0.8193 0.07
7.73932e-06 0.668169 1.08
0.899489 0.311035 -0.952717
0.734319 0.340069 0.06237
0.898198 0.381534 1.07746
-1.16642 0.104257 -1.47501
-0.773837 0.00642174 -1.48074
-0.775259 0.0867178 -1.88059
-1.27471 0.193904 1.58349
-0.871096 0.0847666 1.58289
-0.880938 0.2175 1.9905
-1.16192 0.479903 -1.44651
-0.776023 0.460897 -1.85157
-0.779229 0.776546 -1.43087
-1.14523 0.631159 1.58551
-0.78493 0.655289 1.992
-0.755171 0.942726 1.59438
0.785584 0.00642114 -1.48074
0.777464 0.0867172 -1.88059
1.16811 0.104255 -1.47501
0.873501 0.0847661 1.58289
0.830697 0.2175 1.9905
1.27489 0.193903 1.58349
0.77375 0.460896 -1.85157
0.768454 0.776544 -1.43087
1.16033 0.479901 -1.44651
0.73335 0.655288 1.992
0.747328 0.942725 1.59438
1.14415 0.631157 1.58551
-1.20132 0.132177 -0.4557
-0.804458 0.0299807 -0.459891
-1.26169 0.136758 0.564073
-0.859871 0.0294928 0.562016
-1.1554 0.531851 -0.435754
-0.772584 0.831415 -0.422031
-1.1334 0.563343 0.574647
-0.750229 0.874962 0.585522
0.819961 0.0299781 -0.459891
1.20354 0.132173 -0.4557
0.873325 0.0294902 0.562016
1.26589 0.136753 0.564073
0.761026 0.83141 -0.422031
1.15415 0.531843 -0.435754
0.743523 0.874957 0.585522
1.13498 0.563337 0.574647
-1.55802 -0.11066 -1.89103
-1.55472 -0.0290972 -2.29126
-1.16327 -0.12578 -2.29739
-1.57826 -0.0846321 -0.974783
-1.55964 0.004393 -1.47976
-1.16706 -0.0934426 -1.48548
-1.62332 -0.0722944 0.0466774
-1.59246 0.0285008 -0.460309
-1.1956 -0.0736959 -0.4645
-1.66431 -0.0476773 1.06822
-1.64871 0.0348949 0.56062
-1.24689 -0.0723698 0.558562
-1.67801 -0.00292603 1.98498
-1.67232 0.0837538 1.58025
-1.26871 -0.0253839 1.57965
-1.67877 0.040407 2.79711
-1.67711 0.128587 2.39309
-1.27399 0.0199525 2.3922
-1.67832 0.16978 3.2046
-1.27598 0.0619616 3.20322
-1.55634 0.0859563 -1.87999
-1.55462 0.259605 -2.27243
-1.16518 0.0684167 -2.28556
-1.57384 0.117526 -0.965281
-1.55365 0.294161 -1.46127
-1.61784 0.13569 0.0536336
-1.56804 0.331953 -0.44628
-1.65672 0.166326 1.07265
-1.59154 0.352029 0.568807
-1.67142 0.215267 1.98835
-1.61106 0.410063 1.58399
-1.67666 0.25796 2.80058
-1.64462 0.454397 2.39697
-1.27766 0.238863 2.39537
-1.66423 0.49341 3.20946
-1.27893 0.279202 3.20675
-1.55192 0.467809 -1.85372
-1.55795 0.747648 -2.24368
-1.16602 0.448803 -2.25877
-1.54784 0.508587 -0.942268
-1.55403 0.782915 -1.43307
-1.54173 0.548292 0.0688936
-1.54934 0.832575 -0.423197
-1.54587 0.595766 1.08015
-1.54006 0.875736 0.585219
-1.58425 0.649193 1.9926
-1.55252 0.937689 1.59524
-1.63219 0.689846 2.80586
-1.59661 0.982637 2.40687
-1.22395 0.673323 2.3991
-1.63149 1.02165 3.21963
-1.25717 0.710237 3.21249
-1.56006 1.06275 -1.82304
-1.17336 1.04301 -2.22734
-1.55553 1.1069 -0.913999
-1.17134 1.07956 -1.41743
-1.54768 1.16002 0.0931282
-1.16653 1.13214 -0.409474
-1.54671 1.21766 1.10031
-1.15689 1.18736 0.596094
-1.56489 1.27113 2.00951
-1.16246 1.24926 1.60412
-1.59592 1.31444 2.82065
-1.18966 1.2957 2.41419
-1.22121 1.33598 3.22649
-0.772311 -0.108562 -1.89184
-0.773733 -0.028266 -2.29169
0.00906323 -0.124968 -2.29772
-0.784403 -0.0825064 -0.975197
0.0117476 -0.0921571 -1.48596
-0.819171 -0.0737713 0.0473847
0.0155011 -0.0728576 -0.464436
-0.851297 -0.0500765 1.06999
0.0134524 -0.0746876 0.559205
-0.864694 -0.00250544 1.98687
0.00240465 -0.0254673 1.58078
-0.871204 0.0415071 2.79831
-0.874536 0.130228 2.39448
-0.0327026 0.0204553 2.39296
-0.876596 0.171384 3.20537
-0.0553117 0.0625576 3.20366
-0.776589 0.257614 -2.2719
0.00220474 0.068435 -2.28566
-0.879928 0.260105 2.80154
-0.856989 0.457789 2.39749
-0.0502413 0.24 2.39599
-0.871862 0.496029 3.20978
-0.0670182 0.280208 3.20708
-0.78143 0.744162 -2.24243
-0.00227464 0.446793 -2.25814
-0.848923 0.693713 2.80573
-0.81699 0.986387 2.40642
-0.0515902 0.675577 2.39899
-0.846878 1.02457 3.21935
-0.0696749 0.711849 3.21247
-0.784636 1.05981 -1.82173
-0.00967957 1.04153 -2.22672
-0.782331 1.10479 -0.9129
-0.0107762 1.07809 -1.41674
-0.775741 1.15947 0.0934916
-0.0115583 1.13149 -0.409061
-0.77264 1.21895 1.0999
-0.00671057 1.18745 0.596044
-0.787231 1.27382 2.0088
-0.00785275 1.25045 1.60376
-0.814945 1.31725 2.82004
-0.0257129 1.2972 2.41384
-0.0476029 1.3373 3.22624
0.793121 -0.108563 -1.89184
0.785001 -0.0282673 -2.29169
1.18206 -0.125782 -2.29739
0.811652 -0.0825083 -0.975197
1.18853 -0.0934452 -1.48548
0.848124 -0.0737738 0.0473846
1.22297 -0.0737 -0.4645
0.867154 -0.0500783 1.06999
1.27232 -0.0723738 0.558562
0.834396 -0.00250652 1.98687
1.27389 -0.025386 1.57965
0.783189 0.0415059 2.79831
0.791592 0.130227 2.39448
1.21627 0.0199505 2.3922
0.754266 0.171382 3.20537
1.17233 0.0619593 3.20322
0.776519 0.257613 -2.2719
1.17075 0.0684144 -2.28556
0.762669 0.260104 2.80154
0.755158 0.457788 2.39749
1.19292 0.238862 2.39537
0.735169 0.496028 3.20978
1.15459 0.2792 3.20675
0.769476 0.74416 -2.24243
1.16165 0.4488 -2.25877
0.727658 0.693712 2.80573
0.739687 0.986386 2.40642
1.13585 0.673321 2.3991
0.7296 1.02457 3.21935
1.12713 0.710235 3.21249
0.76418 1.05981 -1.82173
1.15447 1.043 -2.22734
0.759997 1.10479 -0.912901
1.1505 1.07955 -1.41743
0.757472 1.15947 0.0934915
1.14484 1.13213 -0.409474
0.758077 1.21895 1.0999
1.14389 1.18735 0.596094
0.753665 1.27382 2.0088
1.14575 1.24925 1.60412
0.741629 1.31725 2.82004
1.13883 1.2957 2.41419
1.12789 1.33598 3.22649
1.57748 -0.110664 -1.89103
1.56781 -0.0291008 -2.29126
1.59985 -0.0846369 -0.974783
1.57106 0.00438912 -1.47976
1.64717 -0.0722999 0.0466773
1.60655 0.0284948 -0.460309
1.67906 -0.0476815 1.06822
1.66488 0.0348895 0.56062
1.65576 -0.002929 1.98498
1.67528 0.083751 1.58025
1.60541 0.0404039 2.79711
1.61759 0.128585 2.39309
1.57266 0.169777 3.2046
1.56139 0.0859527 -1.87999
1.55588 0.259601 -2.27243
1.57775 0.117521 -0.965281
1.55375 0.294157 -1.46127
1.62426 0.135684 0.0536335
1.569 0.331945 -0.44628
1.66111 0.166322 1.07265
1.59731 0.352023 0.568807
1.63711 0.215265 1.98835
1.61016 0.410061 1.58399
1.58484 0.257958 2.80058
1.57361 0.454394 2.39697
1.54656 0.493406 3.20946
1.54823 0.467805 -1.85372
1.54664 0.747643 -2.24368
1.545 0.50858 -0.942268
[...]
POINT_DATA 29498
VECTORS point_vectors float
-2.68432 -4.36701 9.12207
0.37734 0.410438 2.50076
-2.31538 2.53938 4.21638
0.0178074 -0.124807 0.33013
2.71223 -4.38726 9.10656
-0.381351 0.412402 2.51374
2.35298 2.6009 4.22692
-0.0169184 -0.126006 0.33148
-0.00406434 0.346079 0.977179
0.498402 -0.585362 8.73437
0.0271515 -0.0257765 0.21493
0.0674887 1.37093 1.01777
0.015809 0.312607 0.941027
-0.503589 -0.567048 8.74279
-0.0274874 -0.0258256 0.216148
-0.142451 1.47432 1.13508
-0.650245 -0.205393 19.8691
-1.08804 -0.397249 20.3872
-0.383139 -0.169834 20.9924
-0.0457143 -0.0874653 20.9207
0.280179 -0.00277378 21.0126
0.541056 0.050761 20.768
0.560517 0.0662311 20.4148
-0.722761 -0.147507 19.8306
-1.27162 -0.304465 20.3885
-0.404065 -0.169775 21.0312
-0.0561402 -0.106034 20.9173
0.30853 -0.067745 21.0117
0.617866 -0.0583803 20.7969
0.563433 -0.00757263 20.1811
-0.776862 0.064685 19.7771
-1.38963 0.071243 20.3842
-0.542409 -0.15849 21.0533
-0.187644 -0.17879 20.937
0.268084 -0.221475 21.098
0.531976 -0.287492 20.8398
0.533528 -0.310678 20.1686
-0.633756 0.305923 19.8905
-0.978828 0.447425 20.3223
-0.654776 0.127195 20.865
-0.298881 -0.0473113 20.9397
0.0545518 -0.227418 20.9473
0.229782 -0.339474 20.7672
0.206679 -0.348128 20.612
-0.773387 -0.636207 19.0828
-2.39795 -4.09861 20.5017
-0.664052 0.355673 18.2315
0.0135831 0.112316 17.5296
0.954233 0.663165 17.166
1.25848 1.06767 16.7872
1.26558 0.805865 16.9375
-0.923205 -0.475251 18.8013
1.40848 0.68956 11.7856
1.81377 0.553151 14.6164
-1.06194 0.183104 18.5466
1.3494 -0.723886 12.9388
1.24618 -0.909542 16.8267
-0.702384 0.82487 19.2569
-1.49852 2.16292 19.9529
-1.44016 1.04378 21.2455
-0.577821 0.45901 21.3741
-0.127116 -0.271159 21.305
0.0604283 -0.609505 20.916
0.0788117 -0.55806 20.7004
0.783196 -0.6273 19.096
2.45831 -3.85637 20.4557
0.634199 0.430726 18.8722
-0.00363009 0.131473 18.0178
-0.962376 0.660816 17.2969
-1.18234 1.22987 15.9223
-1.30405 1.13882 15.3984
0.924253 -0.467102 18.8111
-1.11887 0.969278 7.12032
-1.72275 0.815572 10.3853
1.06132 0.184722 18.532
-0.986004 -0.722494 9.13013
-1.12932 -0.892546 12.7791
0.693289 0.841588 19.2393
1.48031 2.21692 19.9395
1.44771 1.10976 21.2536
0.573014 0.477672 21.389
0.130752 -0.264045 21.2952
-0.0448819 -0.611184 20.9386
-0.0601004 -0.574653 20.6683
0.641537 -0.199177 19.8738
1.06714 -0.381944 20.3825
0.381171 -0.172572 20.9779
0.0488371 -0.0889424 20.9149
-0.280602 -0.00339216 21.0079
-0.578785 0.0706114 20.7797
-0.613443 0.0740242 20.4169
0.716266 -0.14843 19.8231
1.26151 -0.302739 20.3898
0.405229 -0.171819 21.0271
0.0562891 -0.105197 20.9183
-0.310637 -0.0687428 21.0162
-0.686355 -0.0590316 20.8365
-0.686932 -0.057164 20.4281
0.781787 0.0641163 19.7627
1.39956 0.069063 20.3803
0.545073 -0.160077 21.0565
0.185709 -0.183225 20.938
-0.270262 -0.222502 21.0993
-0.622174 -0.308173 20.8033
-0.576537 -0.379052 20.4383
0.635651 0.31369 19.8818
0.990871 0.460204 20.3208
0.665308 0.127752 20.8731
0.301599 -0.0490179 20.9426
-0.0528597 -0.230885 20.9495
-0.232199 -0.355009 20.7879
-0.224742 -0.372458 20.5178
-2.19876 -0.281824 1.89506
1.72296e-06 -0.042437 0.281729
-0.0156217 0.00675935 0.343682
-0.0268237 -0.0272817 0.0351594
-0.00122274 -0.0133633 0.222689
0.00632275 -0.00320965 0.138765
1.69609e-05 0.0371095 0.0819458
-0.512579 -0.0818818 3.9928
0.000201004 -0.0111175 0.0582865
0.221292 0.27641 0.662717
2.20199 -0.28303 1.8977
0.0158344 0.00636113 0.328639
0.0277696 -0.027577 0.0343211
-0.00577763 -0.00245576 0.123619
0.519068 -0.0801252 4.0394
-0.225205 0.279883 0.668908
0.0131121 0.585607 7.65012
0.0072016 0.0036359 0.0320822
9.56706e-11 1.15425e-07 2.8026e-05
0 0 0
1.29167e-08 1.35233e-07 0.000213175
0.109402 0.136333 0.239801
-9.68476e-06 0.0220663 0.0800638
0 0 0
-0.015705 0.591504 7.73991
-0.00729337 0.00351081 0.0323005
0 0 0
-0.108306 0.134983 0.23914
-2.23898e-06 4.78822e-05 0.000727532
0.00107291 0.00218442 0.0071413
-7.32304e-05 -6.04818e-05 0.00379271
-1.44419e-08 8.45853e-07 8.17649e-05
6.62211e-09 2.59574e-07 0.000116347
0.000163097 0.0223493 0.210214
0 0 0
0.000739208 0.00396351 -0.00225176
5.98688e-05 0.0309342 0.514089
-2.50017e-06 0.00032661 0.00916688
3.68459e-06 -0.000143104 0.0051078
2.01703e-06 4.30637e-05 0.00065562
-0.00112229 0.00227201 0.00749052
7.29333e-05 -6.68238e-05 0.00381579
-2.84175 -1.157 20.2986
-3.59319 -5.84395 20.3478
-2.24882 -1.59437 17.6438
0.628805 -0.0543823 21.3284
1.08859 0.649497 12.1761
0.906734 0.623149 8.92233
-3.48795 0.442432 20.1252
-2.67695 0.961819 16.9259
-2.95656 3.82858 19.2975
0.686974 -0.412677 20.5397
0.584436 -0.548557 7.3289
0.316586 -0.355087 18.635
3.65834 -5.72286 20.258
2.24746 -1.58355 17.6551
2.836 -1.15292 20.3004
-1.10644 0.646732 12.2895
-0.569039 0.672956 6.50365
-0.630779 -0.0552124 21.3271
2.67553 0.966092 16.9064
2.92937 3.89636 19.2784
3.5066 0.447066 20.1189
-0.224356 -0.46932 5.54065
-0.330397 -0.337157 18.5075
-0.687242 -0.409018 20.5319
-0.0660575 -0.189632 21.6142
-0.811409 0.853343 10.4904
0.0398221 -0.186237 20.9484
0.409405 0.0415522 13.2333
-0.21469 -0.742236 21.3393
-2.66636 0.385299 19.9365
-0.0423068 -0.484773 19.5824
-0.463378 0.707028 17.2754
0.73229 0.930043 10.9618
0.0739972 -0.191745 21.6255
-0.365867 0.0708787 13.7704
-0.0396516 -0.186844 20.9666
2.69955 0.463483 19.8833
0.21283 -0.748235 21.3384
0.413207 0.742912 17.0958
0.0415322 -0.492431 19.6117
-0.911003 -0.32192 20.0211
-0.697561 -0.184476 19.8507
-0.804887 -0.39554 19.5371
-0.833838 -0.320183 20.8811
-1.17236 -0.367162 20.3895
-1.92186 -1.28421 20.3916
-0.139503 -0.100673 20.9358
-0.395439 -0.168621 21.0057
-0.262111 -0.0755374 21.3436
0.0731549 -0.0712939 20.9905
-0.0500751 -0.0940756 20.9158
0.0182176 -0.0554556 20.9619
0.451389 0.0365347 20.9071
0.295999 -0.0290916 21.0104
0.553565 0.122024 21.2425
0.569548 0.0276546 20.6416
0.616184 0.0107785 20.7879
0.946773 0.29417 20.8676
0.54064 0.0669349 20.1765
0.859142 0.229501 20.5843
-1.06489 -0.229803 19.9666
-0.778678 -0.0502702 19.785
-0.922389 -0.292563 19.3967
-0.935752 -0.268689 20.9364
-1.4304 -0.142691 20.379
-0.144925 -0.114701 20.9426
-0.444448 -0.165977 21.0713
0.0634808 -0.100686 21.0084
-0.107455 -0.156437 20.91
0.501368 -0.0529421 20.912
0.2982 -0.153183 21.0761
0.699294 -0.0803011 20.6599
0.610565 -0.188402 20.8154
1.12625 0.0115007 20.9508
0.581904 -0.166903 20.2178
1.07134 -0.131364 20.788
-1.16159 0.0770205 19.9195
-0.742994 0.212214 19.8087
-1.0301 0.10276 19.2848
-1.08459 -0.0385593 20.9624
-1.28632 0.325868 20.343
-0.262302 -0.203445 20.9526
-0.640855 -0.0480529 20.9781
-0.0438362 -0.17669 21.0489
-0.282482 -0.118473 20.9559
0.471564 -0.258151 20.9629
0.14891 -0.252924 21.0275
0.555756 -0.305139 20.6685
0.367995 -0.361373 20.7836
0.972692 -0.615687 20.695
0.390249 -0.373138 20.4798
0.807922 -0.556466 20.3984
-0.842283 0.417821 20.033
-0.740137 0.531134 19.6075
-0.902944 0.337338 20.7033
-1.42464 1.04901 20.2134
-0.454675 0.0127392 20.9117
-1.02429 0.311107 21.0578
-0.135474 -0.114494 20.9705
-0.506116 0.0872306 21.094
0.174023 -0.288963 20.865
-0.0043454 -0.29377 21.102
0.249947 -0.347738 20.5766
0.216007 -0.499512 20.8201
0.241789 -0.469237 20.2852
-1.58898 -1.79422 18.6832
-0.857185 -0.587839 18.932
0.0124844 -0.997287 18.4471
-1.00081 -0.948422 21.0912
-0.00941799 -4.88374 22.3459
-0.390642 0.359552 17.6695
0.0209459 -0.234494 15.4403
0.561679 -0.127521 17.2717
-0.000143928 -0.079455 13.0595
1.09705 0.982249 16.8701
0.00713372 0.599467 10.4371
1.36092 1.03127 16.973
1.48669 0.995558 14.2101
-0.0100708 0.777447 10.0191
1.5675 0.754224 15.2646
0.0620705 0.97503 10.705
-1.03544 -0.197749 18.5768
0.00459068 -0.771723 17.9206
1.5569 0.663034 12.7651
1.30149 -0.0869549 8.81367
-0.0176656 -0.00558158 -0.25108
1.67843 -0.198827 15.2412
0.0717227 0.385112 1.38188
-0.926181 0.674733 18.8485
-0.00559461 0.336703 17.4716
1.38469 -0.791361 15.1394
0.33924 -0.889488 20.1311
-0.0135465 -0.532339 3.12727
0.44074 -0.828436 19.305
0.0084287 -0.859356 6.28442
-1.14403 1.53756 19.2618
-0.00944198 1.20191 18.8249
-1.59288 1.76463 21.0182
-0.0216509 3.19461 19.6829
-1.03023 0.695135 21.3139
-0.037095 2.79564 21.4187
-0.290834 0.140161 21.3988
-0.00369435 0.555261 21.72
-0.00774293 -0.48659 21.106
0.00208205 -0.199271 21.2863
0.0990989 -0.636996 20.7542
-3.50134e-05 -0.557086 21.0268
0.00895475 -0.542978 20.8898
1.60445 -1.71412 18.7328
0.862982 -0.5786 18.944
0.795374 -0.384093 19.5595
1.02135 -0.915221 21.5246
1.86197 -1.19478 20.3966
0.353708 0.39697 18.0176
0.267784 -0.0891809 21.3164
-0.527123 -0.117196 17.5618
-0.0193514 -0.0633666 20.9822
-1.03808 1.02556 16.0499
-0.551265 0.117353 21.2491
-1.2697 1.15587 15.5586
-1.16105 1.0744 11.8738
-1.07234 0.368074 20.7063
-1.56638 1.08506 13.1877
-0.926593 0.333441 20.5376
1.03392 -0.198303 18.5734
0.92154 -0.289244 19.4117
-1.44839 0.954807 9.1587
-1.01037 -0.105726 4.60958
-1.33446 0.112236 20.4283
-1.50132 -0.135406 10.5126
-1.32996 -0.0151385 19.5408
0.920801 0.683013 18.8209
1.03217 0.10309 19.2811
-1.11656 -0.749235 11.3453
-0.318113 -0.846015 19.0511
-1.10955 -0.687458 20.3007
-0.391251 -0.825641 18.727
-0.979925 -0.627381 19.5882
1.13141 1.56362 19.2431
0.742629 0.543963 19.5937
1.58356 1.82842 21.0168
1.45046 1.09903 20.2023
1.03063 0.733161 21.3302
1.06145 0.324317 21.0724
0.288128 0.149636 21.4121
0.512258 0.0935584 21.0992
0.0175354 -0.478516 21.0978
0.00829389 -0.296465 21.1099
-0.0718707 -0.646606 20.8014
-0.196068 -0.52248 20.831
-0.220683 -0.508505 20.3653
0.89619 -0.310141 20.0179
0.688755 -0.182931 19.8453
0.821816 -0.315618 20.8669
1.15219 -0.358622 20.3908
0.142446 -0.100014 20.9287
0.395488 -0.170738 20.9999
-0.0711779 -0.0702714 20.9863
0.0500499 -0.0922451 20.9155
-0.465505 0.0411852 20.9118
-0.295975 -0.0285325 21.0104
-0.616511 0.0650635 20.6347
-0.666079 0.0180949 20.8217
-0.652965 0.0222312 20.4039
1.05525 -0.228822 19.9576
0.778429 -0.0496673 19.7734
0.936905 -0.27015 20.9335
1.43229 -0.142586 20.3713
0.147069 -0.118639 20.9373
0.445809 -0.167251 21.0711
-0.066777 -0.100461 21.0064
0.106698 -0.156245 20.9096
-0.5268 -0.0515008 20.9421
-0.300828 -0.15338 21.0792
-0.813673 -0.0505657 20.6943
-0.672471 -0.21733 20.8042
-0.6995 -0.236747 20.8177
1.16619 0.0768695 19.9186
0.748675 0.216637 19.7941
1.09111 -0.041883 20.9645
1.30692 0.331526 20.3406
0.263012 -0.204387 20.9541
0.642983 -0.050341 20.9842
0.0475071 -0.178005 21.0488
0.282601 -0.119913 20.9577
-0.485492 -0.271215 20.9661
-0.153847 -0.253971 21.0252
-0.611217 -0.404611 20.6975
-0.391209 -0.382298 20.8093
-0.445482 -0.407609 20.7027
0.849847 0.427032 20.0293
0.918781 0.344718 20.7097
0.461894 0.0102799 20.9175
0.133143 -0.117685 20.9815
-0.173434 -0.309361 20.8812
-0.25862 -0.378554 20.5716
-0.989657 -0.286831 19.9962
-1.92332 -1.82859 18.1956
-1.37222 -0.800463 19.5992
-1.72162 -0.622545 19.3242
-0.857187 -0.356631 19.4648
-2.37517 -1.27079 20.3464
-0.88175 -0.305337 20.9041
-0.528214 -0.0606438 13.614
-1.0843 -0.713518 21.4658
-1.34522 -0.699371 21.8535
-0.153323 -0.104668 21.4855
-0.139911 -0.100662 20.94
-0.143199 0.410189 12.8215
-0.0159849 0.0455645 21.0424
0.141859 -0.0809637 21.0971
0.0419666 -0.104639 20.9293
0.0721865 -0.0836674 20.9991
0.938086 -0.489558 12.3878
0.128752 -0.0973757 21.1778
0.0257655 -0.247255 21.2169
0.618155 0.0401873 21.279
0.469281 0.00389303 20.9022
1.25636 0.941795 13.2746
0.832821 0.265372 21.061
0.995433 0.0055355 21.0743
1.03514 0.152413 20.8665
0.605331 -0.0167536 20.6252
1.57376 0.904678 14.9117
1.02203 0.21446 20.7696
1.20444 0.0407627 20.8238
0.953178 0.0362707 20.7966
-1.19106 -0.10396 19.9099
-2.76394 -0.517683 16.8068
-2.00384 0.260402 19.1467
-0.991107 -0.0991091 19.299
-3.50378 -0.458772 20.1575
-1.03756 -0.163758 20.988
-1.78741 -0.163955 21.911
0.0156226 -0.392266 21.3755
-0.171432 -0.164744 20.9484
0.143679 -0.758346 20.2104
0.110927 -0.281331 19.9075
0.00438274 -0.148262 21.0322
-0.34455 -0.166806 20.5434
0.734937 -0.230207 21.0111
0.508601 -0.176356 20.9594
0.275473 -0.118156 3.99327
0.908478 -0.580508 20.6707
1.18684 -0.31366 20.8257
0.621655 -0.203354 20.6345
1.64806 -0.198816 11.4901
0.897398 -0.612192 20.3997
1.05247 -0.350378 20.1489
-1.07914 0.30691 19.9472
-1.82204 1.76426 18.3853
-1.1137 0.835932 19.733
-0.922892 0.374677 19.4087
-2.33519 1.09433 20.1519
-1.05535 0.154131 20.8515
-2.94384 2.08223 21.9266
-1.3271 0.737021 20.904
-1.08495 -0.280741 21.3416
-0.412206 -0.127869 20.9406
-1.82285 0.369302 18.3104
-0.755629 0.139478 21.0608
-0.661096 -0.242273 21.0246
-0.104145 -0.147052 21.0303
0.160355 0.463627 18.5819
-0.250753 -0.0468715 21.158
0.123723 -0.515952 21.2354
0.297631 -0.329271 20.9117
0.256857 -0.724848 19.4725
0.129338 -0.428009 20.9642
0.444384 -0.714583 20.8161
0.397327 -0.354564 20.6609
0.338346 -0.899454 20.1285
0.258853 -0.511054 20.5885
0.390076 -0.587272 20.6826
1.92483 -1.76899 18.2336
0.030247 -3.29872 17.7478
0.00652681 -3.57352 15.202
0.00819842 -0.948625 18.1752
-0.0123771 -4.88815 21.8593
0.55778 -0.0525466 13.8762
0.0132848 -0.888871 19.2609
0.0115478 -0.0161067 7.1613
0.177785 0.490133 13.5237
0.0123078 -0.113684 13.8349
-0.00222723 -0.0110701 6.31162
-0.912075 -0.45474 12.7566
-0.0034778 0.14011 11.7071
0.00340357 0.454047 3.88487
-1.00189 0.965657 11.5747
0.0106137 0.590741 9.90046
-0.068559 -0.114187 0.33091
-0.0306068 0.343902 4.16875
-1.35411 1.07251 12.3768
0.0048701 1.00299 9.81237
0.0757754 0.341016 0.622509
0.0682431 0.757761 5.71836
2.76003 -0.517722 16.8076
-0.00440341 2.8651 13.7566
0.000734448 -0.298945 17.4488
0.128791 -0.150568 2.21669
-0.0457632 -0.038725 1.81531
0.0197728 -0.308319 -2.65675
-1.51913 -0.137589 7.19762
0.00679866 -0.724209 5.08816
0.0429685 -0.354477 0.696972
1.81792 1.79037 18.3541
-0.0146416 2.31792 18.7842
-0.0124246 1.08543 18.0818
-0.0146018 5.19217 19.2253
2.94905 2.16991 21.9321
-0.0273392 3.02942 20.7416
-0.0392683 3.86417 18.5672
1.82461 0.420465 18.0649
-0.0159208 1.61847 21.9791
0.00446848 -0.311072 8.95187
-0.178909 0.478853 18.4664
0.000917684 0.116718 21.431
0.00656374 -0.518896 13.1681
-0.291903 -0.660384 18.9245
0.00190219 -0.40645 21.1205
0.0447146 -0.815041 16.1656
-0.315454 -0.887261 19.4429
0.00192409 -0.614111 20.9801
0.00929926 -0.677415 17.6024
0.975037 -0.279401 19.9914
1.34783 -0.768989 19.6304
1.71427 -0.614306 19.3379
0.854591 -0.34932 19.4862
2.32804 -1.23191 20.3585
0.876603 -0.303502 20.8977
1.07391 -0.67826 21.4157
1.34385 -0.694317 21.8443
0.174307 -0.119176 21.4707
0.142862 -0.104253 20.9291
0.0240165 0.0217388 21.0444
-0.138599 -0.0838168 21.1052
-0.0321067 -0.111223 20.9724
-0.0737108 -0.0830322 20.9969
-0.128685 -0.0994327 21.1831
-0.0284503 -0.24713 21.2283
-0.616942 0.0375915 21.2881
-0.484247 0.0139699 20.9131
-0.872906 0.306813 20.9856
-1.07676 0.0465777 20.8348
-1.23527 0.255988 20.5772
-0.709997 0.0115991 20.6581
-1.14077 0.413715 20.4019
-1.39175 0.151464 19.3112
-1.06944 0.157751 20.4469
1.18655 -0.102263 19.9027
2.01349 0.263692 19.1392
0.99184 -0.0991994 19.3091
3.50306 -0.459297 20.1568
1.04001 -0.1659 20.9839
1.79429 -0.166163 21.9203
-0.0124123 -0.392158 21.3813
0.172676 -0.166674 20.9487
-0.143128 -0.761774 20.2031
-0.112914 -0.284105 19.9195
-0.00411413 -0.15017 21.031
0.343393 -0.168312 20.5377
-0.735397 -0.230786 20.9933
-0.534521 -0.177592 20.967
-0.969307 -0.609062 20.4369
-1.38697 -0.244371 19.9954
-0.720719 -0.230663 20.6436
-1.07943 -0.665672 19.5728
-1.34107 -0.393711 19.3178
1.0904 0.313085 19.9349
1.12407 0.870754 19.7102
0.927667 0.380156 19.3961
2.37277 1.13154 20.1353
1.06601 0.154771 20.8585
1.36166 0.778112 20.9153
1.10621 -0.300808 21.3556
0.413618 -0.129665 20.9405
0.767844 0.151483 21.0681
0.673585 -0.250486 20.9876
0.102913 -0.149536 21.0367
0.25396 -0.0426675 21.1661
-0.120047 -0.523167 21.2347
-0.314633 -0.345159 20.9198
-0.122871 -0.440575 20.9751
-0.412805 -0.777507 20.8344
-0.440533 -0.408739 20.7056
-0.226071 -0.55286 20.6236
-0.337457 -0.674638 20.8317
-1.54958 -0.71215 19.4606
-1.19878 -0.703909 21.625
0.0760207 0.00280275 21.0588
0.101618 -0.180577 21.2027
0.926347 0.14929 21.0543
1.11506 0.131041 20.7929
-1.9654 -0.227237 19.1687
-1.58674 -0.461927 21.9632
0.348767 -0.320928 20.4384
-0.16762 -0.291921 20.9018
1.07153 -0.270459 20.6923
1.05219 -0.284564 20.6073
-1.5961 0.746137 19.4274
-1.80756 0.437317 21.3404
-0.851873 -0.421735 21.0498
-0.367288 -0.157541 21.2604
0.323508 -0.663722 21.0548
0.500608 -0.677379 20.6634
0.0177623 -3.65966 16.7002
0.018592 -0.126421 10.3398
0.0032204 -0.0094448 6.62236
-0.000440278 0.229657 4.6637
0.00879715 0.207444 4.40748
0.0061778 0.629249 4.87334
0.000419537 -0.801264 13.1157
-0.0691697 -0.00152555 -2.54675
0.151133 -0.290238 -1.54393
-0.0171399 3.12119 17.3447
-0.0144921 3.85272 20.7846
-0.00247935 0.799738 12.3982
0.00713375 -0.356683 11.7645
0.0381652 -0.628387 14.9393
0.0441585 -0.903496 16.8366
1.52636 -0.6897 19.4905
1.19639 -0.68381 21.5877
-0.0630823 -0.0077601 21.0649
-0.100473 -0.179612 21.2269
-0.993815 0.184256 20.8759
-1.25144 0.360803 20.3692
1.96439 -0.227335 19.1742
1.58672 -0.461446 21.9656
-0.345821 -0.323464 20.443
0.164741 -0.292071 20.8914
-1.15878 -0.245379 20.3379
-1.339 -0.288609 19.4196
1.62057 0.76811 19.4036
1.84498 0.460356 21.3595
0.871312 -0.441221 21.0325
0.37736 -0.154787 21.2684
-0.301483 -0.693294 21.0747
-0.461673 -0.777445 20.611
-1.21711 -0.400062 1.13977
0.00974932 -0.156371 0.713812
-0.0021156 -0.00152291 0.15807
0.174456 -0.0324605 0.491431
-0.0297806 0.0245558 0.114427
0.00739615 -0.00148778 0.29034
-2.45443 0.359142 2.88275
-0.00279991 0.0533297 0.0957225
-1.10329 0.33609 2.86898
-0.0643698 -0.0202889 -0.0129942
-0.0260771 -0.00207406 0.0431661
-0.000979151 -0.0301807 0.457252
-0.00864003 -0.155859 0.711953
1.21011 -0.39641 1.13444
0.00215921 -0.00133227 0.154958
0.022423 0.0283937 0.121556
-0.175187 -0.0327625 0.492475
-0.00762352 -0.00157059 0.290622
0.0028073 0.0536908 0.0964363
2.50956 0.364956 2.92892
1.1101 0.338433 2.88758
0.0260379 -0.00180161 0.042715
0.0639526 -0.0211349 -0.0127174
0.00122985 -0.0297605 0.453558
-0.0320406 0.0132291 0.451052
-0.0196303 1.08444 8.14112
0.00969734 0.00798394 0.0207967
9.08049e-18 -8.18737e-19 -1.1507e-16
0 0 0
0.204208 0.23677 8.35288
-0.0376985 -0.00470806 0.184562
0.00461158 -0.00074105 0.0532759
-0.00867455 -0.0504342 0.169313
0.0213657 -0.00372955 0.0501494
0.128073 0.11802 0.243578
-0.0696909 0.0334916 0.180062
1.26218 2.06132 2.4967
-1.83863e-05 0.00126018 -0.000154204
0.210867 0.302951 0.356643
0.223223 0.064918 0.284769
0.0320604 0.0133864 0.448227
0 0 0
0.0173202 1.07689 8.0997
-0.00774698 0.00848764 0.0195865
0 0 0
-0.00460733 -0.000732282 0.0531092
-0.198266 0.252156 8.34536
0.0303579 0.00283361 0.180244
0.00868857 -0.0502358 0.168642
0.070554 0.0339452 0.182375
-0.0211749 -0.00378652 0.049667
-0.126765 0.116206 0.242317
-1.27957 2.09598 2.50152
-0.225443 0.0663675 0.285437
-4.6353e-05 0.00150594 -9.21552e-05
-0.213704 0.308826 0.366876
-0.000491354 -0.000272858 0.00500337
0 0 0
-2.49036e-09 6.15966e-07 8.41116e-05
0 0 0
0 0 0
0 0 0
1.91877e-05 0.00014998 0.00191692
0 0 0
5.38365e-05 0.000952278 0.0174183
3.49226e-20 1.10807e-17 5.21971e-18
-5.48527e-05 -0.00014 0.00327952
0.0789199 0.0368386 0.605222
-0.0121948 0.228392 0.353496
0.000346205 0.0137075 0.0678666
-1.7672e-05 0.000100478 0.0024407
0 0 0
0 0 0
0.000108041 -0.0130669 0.13703
-0.0100537 0.004954 0.0776502
0.00188391 -0.00163675 0.0334258
0 0 0
0.000476839 -0.000264738 0.00485661
0 0 0
0 0 0
-7.24759e-18 -4.35915e-18 1.83868e-18
-1.9393e-05 0.000150939 0.00194978
-0.0776838 0.0366546 0.591279
5.88111e-05 -0.000161225 0.00338181
0 0 0
1.7115e-05 9.78869e-05 0.00236872
-0.00182925 -0.00177126 0.0360916
0.0106645 0.00545016 0.0832387
0.000832338 0.000972701 0.00548033
0.00012536 8.15855e-06 0.00790211
0.000961792 0.00117544 0.0163102
0 0 0
-4.59335e-09 2.85764e-07 4.94491e-05
1.95217e-09 8.1699e-08 2.66084e-05
9.72637e-05 0.000325557 0.000703138
-0.0179417 0.00306917 0.0542367
-1.52911e-10 -1.04406e-08 -7.2837e-06
0 0 0
0.00111831 0.00320044 0.00690099
0.0300176 0.0494619 0.447262
4.77335e-06 0.0198601 0.0688967
-5.93866e-08 0.00801714 0.0696484
-1.13692e-05 -0.000378309 0.0138249
-1.73263e-06 -8.51367e-05 0.000356897