# vtk DataFile Version 2.0
tri_press
ASCII
DATASET UNSTRUCTURED_GRID
POINTS 3682 float
-0.775 0.105 -1.47552
-0.881807 0.195 1.585
-0.774388 0.475 -1.445
-0.735951 0.635 1.585
0.775 0.105 -1.47552
0.881807 0.195 1.585
0.77439 0.475 -1.445
0.735972 0.635 1.585
-0.812785 0.132818 -0.455347
-0.877533 0.133672 0.564827
-0.764576 0.531334 -0.435
-0.729568 0.562471 0.575
0.812787 0.132815 -0.455347
0.877535 0.133669 0.564827
0.764578 0.531327 -0.435
0.729578 0.562466 0.575
-1.55459 -0.126592 -2.29707
-1.56145 -0.0947287 -1.485
-1.59506 -0.0745354 -0.464565
-1.65158 -0.0700534 0.557919
-1.67704 -0.0253011 1.57853
-1.67898 0.019449 2.39144
-1.67856 0.0613649 3.20278
-1.55485 0.0683978 -2.28546
-1.55784 0.103515 -1.47451
-1.58985 0.131537 -0.456053
-1.64584 0.139843 0.56332
-1.6676 0.192809 1.58197
-1.67525 0.237726 2.39474
-1.67807 0.278195 3.20641
-1.55439 0.450812 -2.2594
-1.54946 0.484807 -1.44803
-1.54622 0.532368 -0.436507
-1.53723 0.564215 0.574294
-1.55451 0.627318 1.58601
-1.61399 0.671068 2.3992
-1.6504 0.708624 3.21251
-1.56152 1.04448 -2.22796
-1.55861 1.08102 -1.41811
-1.55246 1.13278 -0.409887
-1.5429 1.18726 0.596143
-1.55053 1.24806 1.60447
-1.57924 1.29421 2.41454
-1.61259 1.33467 3.22675
-0.771948 -0.124968 -2.29772
-0.772674 -0.0921565 -1.48596
-0.796132 -0.0728563 -0.464436
-0.842209 -0.0746863 0.559205
-0.860385 -0.0254668 1.58078
-0.869002 0.0204559 2.39296
-0.873405 0.0625583 3.20366
-0.775519 0.0684355 -2.28566
-0.88007 0.240001 2.396
-0.879787 0.280209 3.20708
-0.777659 0.446793 -2.25814
-0.833909 0.675577 2.39899
-0.863937 0.71185 3.21247
-0.785201 1.04153 -2.22672
-0.784071 1.07809 -1.41674
-0.780591 1.1315 -0.409061
-0.77089 1.18745 0.596044
-0.77439 1.25045 1.60376
-0.800071 1.2972 2.41384
-0.829818 1.3373 3.22624
0.790074 -0.124969 -2.29772
0.796169 -0.0921577 -1.48596
0.827134 -0.0728588 -0.464436
0.869114 -0.0746889 0.559205
0.865194 -0.0254678 1.58078
0.803597 0.0204548 2.39296
0.762782 0.0625569 3.20367
0.779928 0.0684344 -2.28566
0.779587 0.24 2.39599
0.745751 0.280208 3.20708
0.773109 0.446792 -2.25814
0.730728 0.675577 2.39899
0.724587 0.711848 3.21247
0.765842 1.04153 -2.22672
0.762519 1.07809 -1.41674
0.757475 1.13149 -0.409061
0.757469 1.18745 0.596044
0.758685 1.25045 1.60376
0.748645 1.29719 2.41384
0.734613 1.3373 3.22624
1.57405 -0.126596 -2.29707
1.5809 -0.0947328 -1.485
1.61881 -0.0745411 -0.464565
1.67553 -0.0700587 0.557919
1.68259 -0.0253043 1.57853
1.62894 0.0194463 2.39144
1.58188 0.0613616 3.20278
1.56157 0.0683944 -2.28546
1.56121 0.103511 -1.47451
1.59429 0.131531 -0.456053
1.65423 0.139838 0.56332
1.66798 0.192806 1.58197
1.60624 0.237724 2.39474
1.56344 0.278192 3.20641
1.55018 0.450808 -2.2594
1.54628 0.484802 -1.44803
1.54372 0.532359 -0.436507
1.54038 0.564208 0.574294
1.55234 0.627315 1.58601
1.54098 0.671065 2.3992
1.52968 0.708621 3.21251
1.5431 1.04448 -2.22796
1.53848 1.08102 -1.41811
1.5322 1.13277 -0.409887
1.5303 1.18725 0.596143
1.53281 1.24805 1.60447
1.52902 1.2942 2.41455
1.52116 1.33466 3.22675
-0.796759 0.29 -1.48233
0 0.101253 -1.47927
-0.809494 0.103307 -0.965433
-0.842355 0.415 1.61848
0 0.156891 1.62311
-0.862345 0.18166 1.07491
9.83477e-07 0.501041 -1.47104
-0.890257 0.623942 -0.94
1.04904e-05 0.613508 1.56351
-0.792352 0.658329 1.08
0.796763 0.29 -1.48233
0.809499 0.103302 -0.965433
0.842302 0.415 1.61841
0.862281 0.181725 1.07491
0.890439 0.624119 -0.94
0.792395 0.658353 1.08
-0.868905 0.109498 0.05474
-0.820205 0.332076 -0.445173
1.30112e-06 0.100873 -0.455347
-0.672593 0.348072 0.569913
1.37899e-06 0.101007 0.564827
-0.717847 0.517678 0.07
5.88578e-07 0.755864 -0.435
4.98821e-06 0.674914 0.575
0.869295 0.109109 0.05474
0.820207 0.332071 -0.445173
0.6726 0.348068 0.569913
0.717866 0.517685 0.07
-0.899489 0.311038 -0.952717
0.899489 0.311035 -0.952717
6.5056e-07 0.100655 -0.965433
7.86028e-07 0.619904 -0.94
4.91738e-07 0.29 -1.67079
-0.734317 0.340074 0.06237
0.734319 0.340069 0.06237
1.34006e-06 0.100971 0.05474
2.7884e-06 0.8193 0.07
-0.898199 0.381536 1.07746
0.898198 0.381534 1.07746
6.89496e-07 0.0868551 1.07491
7.73932e-06 0.668169 1.08
5.24521e-06 0.415 1.60885
-0.785789 0.1975 -1.47883
-0.3875 0.101568 -1.47895
-0.793184 0.103217 -1.22048
-0.869483 0.305 1.60914
-0.440904 0.188918 1.59108
-0.869572 0.190834 1.32996
-0.795468 0.3825 -1.47356
-0.387194 0.468529 -1.43853
-0.860863 0.578011 -1.1925
-0.785799 0.525 1.59838
-0.36797 0.599301 1.5493
-0.791736 0.674249 1.3325
0.3875 0.101566 -1.47895
0.785763 0.1975 -1.47881
0.793195 0.103205 -1.22048
0.440904 0.188926 1.59107
0.869495 0.305 1.60915
0.869596 0.19081 1.32996
0.387195 0.468534 -1.43853
0.795558 0.3825 -1.47365
0.860888 0.578033 -1.1925
0.367991 0.599297 1.5493
0.785814 0.525 1.59838
0.791741 0.674234 1.3325
-0.825801 0.103401 -0.71039
-0.859727 0.102276 -0.200303
-0.819919 0.230735 -0.45026
-0.413637 0.102355 -0.455347
-0.8222 0.205405 0.81987
-0.877646 0.117158 0.309783
-0.749176 0.253815 0.56737
-0.44612 0.10263 0.564827
-0.834906 0.585127 -0.6875
-0.803724 0.437372 -0.440087
-0.723518 0.506812 -0.1825
-0.416068 0.711159 -0.435
-0.767489 0.616929 0.8275
-0.66745 0.438456 0.572457
-0.713124 0.529491 0.3225
-0.428633 0.746395 0.575
0.825805 0.103397 -0.71039
0.413639 0.102354 -0.455347
0.859739 0.102264 -0.200303
0.81991 0.230737 -0.45026
0.821225 0.20638 0.81987
0.446123 0.10263 0.564827
0.877607 0.117197 0.309783
0.749163 0.253821 0.56737
0.834903 0.585117 -0.6875
0.416072 0.711161 -0.435
0.803598 0.437302 -0.440087
0.723415 0.506699 -0.1825
0.767532 0.616955 0.8275
0.42864 0.746387 0.575
0.667461 0.438453 0.572457
0.713144 0.529498 0.3225
-0.898875 0.300519 -1.21752
-0.398379 0.29 -1.58758
3.2528e-07 0.10063 -1.22235
2.45869e-07 0.195627 -1.65108
-0.898913 0.207173 -0.959075
-0.404747 0.100668 -0.965433
-0.898115 0.398268 1.34797
-0.421175 0.415 1.57655
3.44748e-07 0.11652 1.34901
2.6226e-06 0.285946 1.61336
-0.899714 0.281598 1.07619
-0.431172 0.0869048 1.07491
8.84752e-07 0.581058 -1.20552
7.37607e-07 0.39552 -1.67815
-0.897279 0.46749 -0.946358
-0.445128 0.602189 -0.94
9.11487e-06 0.676751 1.32175
7.86781e-06 0.514254 1.58336
-0.896091 0.519932 1.07873
-0.396172 0.676254 1.08
0.898873 0.300518 -1.21752
0.398382 0.29 -1.58758
0.898913 0.207169 -0.959075
0.40475 0.100644 -0.965433
0.898115 0.398267 1.34793
0.421153 0.415 1.57655
0.899713 0.28163 1.07619
0.431141 0.0869045 1.07491
0.897278 0.467577 -0.946358
0.44522 0.602183 -0.94
0.89609 0.519943 1.07873
0.396201 0.676475 1.08
-0.732552 0.259315 0.058555
-0.435794 0.102551 0.05474
-0.898225 0.321557 -0.698945
-0.752006 0.336075 -0.191402
9.75839e-07 0.100678 -0.71039
1.32059e-06 0.100935 -0.200303
-0.701695 0.344073 0.316142
-0.834612 0.364804 0.823685
1.35952e-06 0.101006 0.309783
1.03424e-06 0.101003 0.81987
-0.731762 0.431716 0.066185
-0.417789 0.786221 0.07
6.87303e-07 0.668027 -0.6875
1.68849e-06 0.807065 -0.1825
3.88831e-06 0.821195 0.3225
6.36377e-06 0.665782 0.8275
0.732547 0.259219 0.058555
0.435892 0.102551 0.05474
0.898228 0.321553 -0.698945
0.752005 0.33607 -0.191402
0.701697 0.344069 0.316142
0.834816 0.364801 0.823685
0.731762 0.431712 0.066185
0.41782 0.786263 0.07
-0.898696 0.202336 -1.219
-0.899326 0.21981 -0.704668
-0.895739 0.449597 -0.693223
-0.896921 0.424995 -1.20501
0.898694 0.202334 -1.219
0.89692 0.425039 -1.20501
0.89574 0.449638 -0.693223
0.899311 0.219806 -0.704668
-0.396123 0.0979105 -1.22141
0.396125 0.0982101 -1.22141
0.405572 0.100707 -0.71039
-0.405569 0.100707 -0.71039
-0.416161 0.550786 -1.19901
-0.413708 0.636428 -0.6875
0.413755 0.636425 -0.6875
0.416208 0.550782 -1.19901
-0.39294 0.196563 -1.56835
-0.392786 0.38901 -1.50318
0.392789 0.38901 -1.50313
0.392941 0.196563 -1.56839
-0.753321 0.256482 -0.195853
-0.696466 0.278764 0.312963
-0.702579 0.436572 0.319321
-0.749418 0.425381 -0.186951
0.753327 0.256428 -0.195853
0.749415 0.425374 -0.186951
0.702582 0.436568 0.319321
0.696458 0.278718 0.312963
-0.424709 0.102466 -0.200303
0.424759 0.102466 -0.200303
0.441002 0.102601 0.309783
-0.440952 0.102601 0.309783
-0.427545 0.769924 -0.1825
-0.42992 0.779727 0.3225
0.429916 0.779698 0.3225
0.427543 0.769905 -0.1825
-0.837854 0.261235 0.821778
-0.899658 0.293299 1.33896
-0.896329 0.522466 1.34023
-0.801951 0.487602 0.825593
0.838434 0.261249 0.821778
0.801969 0.487605 0.825593
0.896329 0.522472 1.34022
0.899658 0.293315 1.33895
-0.434969 0.101013 0.81987
0.434955 0.101013 0.81987
0.436022 0.122249 1.33948
-0.436038 0.12225 1.33948
-0.380477 0.729607 0.8275
-0.382071 0.667289 1.32713
0.382096 0.667314 1.32713
0.380496 0.729591 0.8275
-0.431039 0.295473 1.63691
0.431028 0.295473 1.63691
0.394572 0.519627 1.55106
-0.394573 0.519627 1.55106
-0.780566 0.15125 -1.47735
-0.58125 0.101318 -1.4792
-0.784889 0.103312 -1.348
-0.876738 0.25 1.59816
-0.661355 0.189603 1.5904
-0.875781 0.192826 1.45748
-0.787196 0.42875 -1.46155
-0.580791 0.460833 -1.43083
-0.82053 0.52941 -1.31875
-0.764326 0.58 1.59514
-0.551961 0.644572 1.59457
-0.766449 0.65723 1.45875
0.58125 0.101316 -1.4792
0.780584 0.15125 -1.47737
0.784928 0.103272 -1.348
0.661355 0.189638 1.59036
0.876682 0.25 1.5981
0.875904 0.192702 1.45748
0.580793 0.460831 -1.43083
0.787262 0.42875 -1.46161
0.820509 0.529386 -1.31875
0.551982 0.644562 1.59456
0.76429 0.58 1.59509
0.766508 0.657268 1.45875
-0.833774 0.103628 -0.582868
-0.85157 0.102232 -0.327825
-0.815204 0.18235 -0.452803
-0.610432 0.123143 -0.455347
-0.777325 0.24208 0.692348
-0.877576 0.125429 0.437305
-0.752784 0.224029 0.566098
-0.64724 0.147323 0.564827
-0.794404 0.552894 -0.56125
-0.786404 0.48548 -0.437543
-0.737977 0.513003 -0.30875
-0.575646 0.591894 -0.435
-0.733397 0.574568 0.70125
-0.662629 0.482524 0.573728
-0.699746 0.524381 0.44875
-0.576222 0.648677 0.575
0.833776 0.103626 -0.582868
0.60932 0.125371 -0.455347
0.851581 0.102222 -0.327825
0.81529 0.182305 -0.452803
0.777318 0.242087 0.692348
0.647298 0.147212 0.564827
0.877578 0.125427 0.437305
0.752802 0.224019 0.566098
0.794382 0.552864 -0.56125
0.575649 0.591892 -0.435
0.786398 0.48547 -0.437543
0.738041 0.513057 -0.30875
[...]
POINT_DATA 3682
SCALARS point_scalars float 1
LOOKUP_TABLE default
-39.3442
-49.7232
39.4435
-38.2194
-37.4823
-49.7962
38.8895
-38.2293
-41.0533
-14.8047
-40.7652
-15.6951
-40.1278
-14.8203
-40.7574
-16.5857
11.2989
-89.7461
-55.014
-22.5548
-40.3859
-50.135
-39.6496
24.7013
-95.4323
-56.2048
-21.386
-46.276
-51.6405
-38.0158
65.2487
-100.469
-55.1754
-5.22802
-50.2728
-37.3542
-37.3542
24.9033
-70.7487
-62.1065
-23.0291
-53.6339
-39.1156
-33.2804
173.465
-118.739
-38.7651
-16.1878
-48.5203
-33.8597
-33.8597
173.465
-31.9376
-31.8122
175.897
-33.2804
-33.2804
95.6251
-51.24
-48.881
-41.9003
-39.2032
-33.2804
-33.2804
174.619
-119.221
-44.2347
-14.6555
-42.1823
-33.9023
-33.9023
174.619
-32.0229
-31.8493
175.715
-33.2813
-33.2813
96.3153
-51.2094
-48.9109
-41.8068
-38.6711
-33.2813
-33.2813
16.5617
-89.8273
-55.0225
-22.6464
-40.4347
-50.1892
-40.2472
26.3119
-95.5568
-56.1896
-23.0352
-46.3387
-38.272
-38.4677
68.4755
-100.412
-55.029
-5.04831
-50.3256
-37.5283
-35.3411
23.8061
-70.9256
-61.3442
-23.3176
-53.6503
-39.1263
-33.2813
27.8516
-122.228
-55.4844
-37.1165
-31.3145
-35.9884
2.0009
-81.6281
-30.5401
-39.7694
26.9343
-55.3846
-37.2488
-35.9709
-81.5658
-39.8735
-21.4702
-38.7712
-34.9395
-6.36634
-27.4914
-26.7084
-36.678
-44.3503
-21.569
-38.7898
-6.57506
-26.7457
-65.3838
-65.4001
-52.7895
-38.7061
188.633
-21.5038
-21.6531
-27.9108
-59.4571
-40.5245
-40.5511
-40.6806
-32.6874
-26.9014
21.8991
-183.467
-86.7764
-42.3308
-33.4649
-37.5682
34.3323
-30.1415
-60.0586
-35.4585
-31.1175
-49.8301
-183.642
24.4337
-86.8695
-33.5245
-43.3844
-37.406
-30.1081
35.074
-60.152
-31.2091
-35.4903
-49.8018
-45.2114
-25.4653
-38.307
-35.388
0.700361
-18.6611
-6.06839
-25.4582
-58.8268
-38.6688
-31.6966
-43.0106
-27.1347
-7.04421
-21.2018
-43.0845
-45.1465
-35.4026
-25.523
-38.2965
0.900277
-25.4477
-18.7174
-6.16131
-58.8155
-42.9757
-38.6633
-31.7109
-27.3368
-43.1939
-7.45718
-21.2909
-105.61
193.916
-76.4885
127.009
-62.4081
-54.8146
-42.1317
-28.5243
-35.2507
-28.8521
-38.9785
-38.022
-42.9119
90.1004
-69.3415
-54.0437
-32.9513
-27.6434
-42.818
-35.429
-105.617
193.753
-62.4336
-54.8061
-42.1332
-28.5407
-39.0442
-38.1381
-69.3547
-54.067
-42.8089
-35.4784
-21.5092
-26.7249
-55.1924
-26.5749
-41.7398
-30.477
-15.5449
12.3539
-26.9548
-28.2305
-22.2338
-47.4207
-13.2146
-65.1332
-55.4558
-36.7569
-21.6469
-26.7098
-55.2091
-26.6196
-15.7325
12.8643
-22.3702
-47.4198
-108.885
-53.5418
-58.25
-110.407
-108.955
-110.324
-58.2552
-53.5352
-83.7327
-83.7247
-42.862
-42.8601
-49.8146
-34.0314
-33.9813
-49.7832
108.79
113.551
113.791
109.043
-25.8276
-15.5006
-16.576
-27.7387
-25.886
-27.7668
-16.7811
-15.6758
-29.6683
-29.6747
-25.4534
-25.4595
-53.6987
-44.3032
-44.2397
-53.7163
11.4586
-39.7397
-45.6304
3.43996
11.968
3.9981
-45.6414
-39.7429
-27.8036
-27.9046
-36.3999
-36.1245
-38.1591
-35.157
-35.1772
-38.2288
-28.8908
-28.8949
-29.2485
-29.2526
-6.29971
-140.903
-117.496
-52.1304
-35.6342
-42.1781
39.7065
6.1539
-21.9071
-36.018
-33.1505
-43.3127
-142.601
-4.36151
-118.459
-35.6388
-51.9718
-42.2106
4.3512
40.2929
-22.1602
-33.1486
-36.0418
-43.3209
-50.0391
-30.201
-39.4825
-35.94
-4.43936
-22.4536
-6.15763
-22.9814
-47.9543
-39.1334
-36.3909
-46.6826
-13.7291
-6.59882
-13.824
-37.1646
-49.8744
-36.0417
-30.7644
-39.0331
-4.21326
-22.9819
-22.5466
-6.24078
-47.9498
-46.7135
-39.1278
-36.3571
-11.3568
-36.9666
-7.39436
-14.0325
23.9133
37.1069
-89.0722
167.902
-133.071
-133.208
-97.8123
30.1855
-66.5723
-48.3114
-59.552
-55.9378
-38.9295
-36.4367
-44.6183
-28.9418
-32.0218
-32.0113
-34.1226
-28.664
-37.881
-44.1027
-37.863
-35.7671
-6.81134
-6.82374
-31.0844
43.8586
-89.426
-71.5151
-73.7301
-72.9742
-30.562
-30.5702
-32.4543
-28.6441
-49.1117
-38.4895
-33.871
-39.7703
23.2306
31.1599
-89.2019
167.013
-66.5453
-48.5382
-59.5824
-55.8959
-38.7765
-36.4679
-44.5544
-28.9571
-37.7716
-44.5518
-38.0426
-36.0546
-89.4503
-71.5104
-73.7455
-73.0183
-49.1278
-38.7494
-33.7493
-39.8517
-15.7189
-21.0593
-21.9131
-24.8596
-38.5711
-38.9456
-50.3133
-31.5558
-35.0359
-35.0414
-38.0025
-32.4518
-6.98639
-6.38412
-11.2163
-2.60312
-27.1172
-27.119
-27.0639
-28.2335
-28.9049
-23.6213
-23.5264
-35.0351
-35.5362
-35.5023
-20.1683
-56.8215
-43.5742
-43.5704
-50.8577
-40.2259
-15.8764
-22.0791
-22.037
-24.8586
-38.6133
-38.9578
-50.2826
-31.5481
-7.19441
-6.63956
-11.4496
-2.75802
-28.9294
-23.6833
-23.6272
-35.0354
-77.7291
-63.9052
-67.2288
-58.3135
-77.7479
-63.9253
-67.2417
-58.3252
-62.1192
-53.3786
-53.3612
-46.4491
-43.8031
-41.4278
-41.4484
-17.8489
195.962
180.319
190.383
195.94
-21.3824
-23.6838
-18.5732
-21.7722
-21.5382
-23.8014
-18.7289
-21.9156
-27.6492
-28.927
-27.2554
-27.6426
-56.7459
-63.0634
-56.2105
-56.7372
-40.8697
-39.8446
-41.8245
-32.6204
-40.8708
-39.917
-41.84
-32.5442
-36.7449
-39.859
-39.9124
-35.8953
-32.1928
-32.907
-32.9254
-34.1973
-27.4952
-26.126
-27.2196
-27.4697
-76.5447
65.8933
-112.493
28.5741
-107.618
-87.2374
-42.4719
-29.9737
-36.8098
-30.8447
-38.3721
-35.9766
-76.807
100.289
-36.1247
68.5473
-102.967
-58.2159
-50.7211
-29.242
-34.1851
-29.4389
-52.5846
-38.015
-112.471
28.4397
-76.6297
60.9864
-107.725
-87.275
-36.9951
-30.9145
-42.5108
-30.0085
-38.3711
-36.1981
-36.2097
68.4518
-77.0987
101.469
-102.921
-58.2138
-34.1967
-29.3946
-50.7822
-29.2516
-52.608
-38.0219
-50.7985
-43.9484
-25.6041
-27.9418
-51.7892
-31.0293
-38.9579
-32.0924
7.94094
-26.4917
-15.5913
-23.3612
-11.4475
-1.16289
-25.4249
-26.7614
-59.2672
-61.7947
-48.8227
-31.9199
-29.3985
-38.2693
-37.3012
-48.1411
-6.22737
-39.1634
-11.869
-3.16174
-17.9306
-33.6317
-45.7101
-40.4398
-50.7719
-43.9033
-38.9705
-32.1063
-25.6582
-27.9574
-51.7456
-31.0685
8.52027
-26.6608
-25.4213
-26.7319
-15.7615
-23.3471
-11.6582
-0.930087
-59.2517
-61.7848
-37.3403
-48.5092
-48.81
-31.8983
-29.4133
-38.3045
-5.76219
-39.35
-45.6253
-40.4617
-12.175
-3.63453
-18.1159
-33.5471
-105.853
-106.443
187.401
148.638
-78.2885
-78.2744
118.618
118.441
-74.9476
-55.5573
-65.9822
-47.8879
-41.0032
-43.5879
-28.1748
-28.8515
-36.69
-36.6188
-28.4204
-28.4428
-35.7163
-39.1311
-34.0304
-36.1119
-45.1928
-45.1067
116.857
116.891
-61.695
-81.3137
-54.4237
-45.3461
-33.4663
-33.4786
-28.3718
-28.4606
-43.5435
-13.1311
-37.151
-34.9311
-105.892
-106.415
148.775
187.526
-74.9818
-55.5714
-65.8149
-47.8032
-43.5919
-41.0063
-28.1965
-28.8636
-35.8801
-39.1243
-34.019
-36.2584
-81.3197
-61.7065
-45.3389
-54.4277
-13.0016
-43.5549
-34.9713
-37.197
-23.2996
-18.6838
-27.8966
-26.0499
-54.2668
-56.487
-26.2073
-26.9185
-42.038
-42.0886
-30.4235
-30.4287
-15.4123
-15.9241
11.8478
10.1264
-26.6276
-26.6225
-28.422
-28.4376
-19.4225
-24.8304
-50.5524
-45.2028
-18.9536
-18.9116
-62.7478
-62.7544
-52.4254
-52.4039
-36.4573
-36.459
-23.4185
-18.8492
-27.9162
-26.0334
-56.5453
-54.2649
-26.2574
-26.9591
-16.1211
-15.593
12.3213
10.6957
-24.9215
-19.5668
-45.1669
-50.5559
-75.2882
-71.9237
-76.4874
-88.5186
-56.2539
-50.9287
-56.8809
-52.8725
-47.3108
-64.9768
-59.851
-49.7481
-47.9925
-89.3398
-79.2173
-88.3157
-75.6942
-88.6306
-76.5148
-71.9566
-48.3258
-88.3331
-79.2267
-89.5278
-47.302
-49.7159
-59.8628
-64.9832
-56.146
-52.892
-56.8936
-50.9035
-122.599
-101.761
-63.1529
-67.4726
-122.708
-67.4181
-63.1248
-101.765
-40.7309
-38.2288
-46.8989
-48.6053
-40.902
-48.5031
-46.9039
-38.2243
-34.8948
-68.2531
-45.8109
-34.2568
-54.1993
-24.3539
-27.1075
-66.5225
-54.1955
-66.5435
-27.1492
-24.3673
-34.9758
-34.3714
-45.9036
-68.2902
29.4208
161.055
186.65
19.8412
51.2301
36.1493
157.847
160.422
59.8395
158.165
157.925
36.498
30.9381
19.8534
186.628
163.176
-31.9487
-23.801
-23.3536
-31.2391
-11.3479
-11.2226
-18.5171
-18.7048
-12.1321
-21.0643
-18.8767
-11.4267
-33.7851
-31.9103
-24.1446
-26.268
-32.0585
-31.2571
-23.4729
-23.9117
-33.7771
-26.3269
-24.2563
-31.8929
-12.4192
-11.6938
-19.0365
-21.1771
-11.5448
-18.7636
-18.677
-11.4359
-31.0947
-32.4096
-28.7601
-26.0406
-31.1311
-26.0932
-28.7683
-32.5049
-23.576
-26.6863
-26.9513
-23.9167
-23.5329
-23.9741
-26.9536
-26.6908
-42.0432
-36.3373
-61.0789
-52.0951
-35.7629
-53.3815
-53.2054
-34.0318
-35.5485
-34.0016
-53.1909
-53.4265
-42.1348
-52.0931
-61.0744
-36.3395
-1.24074
-37.9586
-33.8912
1.39053
-41.0744
-43.4695
-40.0032
-38.4208
-51.5215
-45.3898
-42.128
-47.1915
-3.04478
-3.0267
-24.5788
-16.6986
-1.0044
1.48943
-33.8385
-37.9706
-3.2915
-16.7435
-24.4557
-3.17827
-51.6034
-47.1226
-42.1275
-45.3531
-41.1229
-38.3738
-40.0032
-43.4918
-24.1415
-27.907
-35.3761
-31.9405
-24.1535
-31.2921
-35.4055
-27.9092
-41.186
-34.9283
-36.9797
-36.7078
-40.887
-36.464
-36.9144
-34.9932
-37.7221
-39.172
-34.1867
-39.7937
-35.6767
-32.8402
-32.545
-39.5056
-35.6809
-39.5367
-32.5602
-32.8541
-37.8379
-39.7918
-34.1956
-39.291
-32.043
-31.8864
-26.7027
-29.1
-32.0159
-29.1232
-26.7258
-31.8833
-28.8249
-29.007
-27.766
-29.3659
-28.801
-29.361
-27.8227
-28.9362
-26.6566
-85.5414
-128.519
-50.9494
-38.3561
-41.8976
44.9266
49.0442
-22.704
-37.3698
-35.5477
-40.6654
-77.6624
-24.2655
-129.357
-38.4039
-50.9373
-41.97
48.5015
45.2558
-23.4964
-35.5066
-37.387
-40.6677
-44.6583
-35.1239
-40.6745
-35.397
-4.13841
-16.0061
-6.30985
-17.6846
-43.9044
-39.8509
-38.1782
-43.9879
-15.9785
-6.15868
-11.9909
-33.5206
-44.7986
-35.9182
-35.0741
-39.8795
-4.12607
-17.7332
-16.0727
-6.38248
-43.896
-43.9784
-39.8429
-38.1609
-4.73533
-31.6834
-6.94382
-12.0225
34.4879
28.7034
-40.7239
129.761
-123.37
-123.396
-113.18
-27.4296
-60.145
-51.0819
-57.7276
-57.0116
-37.4839
-37.0339
-47.4381
-30.5645
-31.8846
-31.9221
-33.9298
-29.6948
-36.3783
-37.1069
-37.3229
-34.9722
-3.42727
-3.46847
-18.369
23.2064
-79.9686
-78.2787
-77.99
-80.8139
-30.6208
-30.6264
-31.1299
-29.23
-45.8548
-38.5091
-31.9242
-42.2864
33.4742
26.4955
-41.0922
132.523
-60.0488
-51.182
-57.7595
-56.4887
-37.4684
-37.0781
-47.545
-30.5948
-36.1497
-39.9829
-37.4998
-35.8418
-79.94
-78.3824
-78.0047
-80.85
-45.9141
-38.6287
-31.9156
-42.3844
-22.9885
-21.4702
-21.9801
-24.0049
-38.6683
-38.8674
-43.9438
-34.358
-34.9974
-34.9995
-36.3934
-33.6451
-6.66753
-6.26815
-8.67945
-4.01854
-27.4012
-27.4031
-27.2432
-27.8287
-27.9492
-25.5516
-25.1693
-31.4639
-36.412
-36.3329
-27.0133
-47.0215
-44.0121
-44.0096
-45.0428
-42.2615
-23.1077
-21.569
-22.1204
-24.1459
-38.6958
-38.8846
-43.9434
-34.3712
-6.85884
-6.4957
-8.9188
-4.18924
-27.9802
-25.5864
-25.2341
-31.4701
-70.752
-64.6445
-66.3053
-61.4584
-70.7704
-64.6627
-66.3198
-61.4724
-56.8634
-53.072
-53.0642
-49.3273
-42.4985
-40.1784
-40.1884
-28.8842
192.975
192.838
190.59
192.904
-21.4059
-22.6761
-20.1356
-21.6273
-21.5584
-22.8135
-20.2889
-21.7734
-27.8528
-28.4068
-27.5372
-27.8526
-58.9554
-61.4821
-57.6219
-58.952
-40.5363
-40.1435
-41.0571
-41.8343
-40.5464
-40.1933
-41.0804
-41.8751
-39.5165
-40.2959
-40.3233
-37.8445
-32.3496
-32.7658
-32.7734
-33.3151
-27.0672
-26.4302
-27.035
-27.0862
14.1117
25.8279
-44.803
110.631
-179.308
-157.801
-134.968
-34.1036
-100.731
-74.9117
-103.229
-86.7357
-46.1782
-41.3098
-47.0358
-31.9839
-35.5526
-31.9952
-34.8755
-32.1236
-38.8966
-38.2347
-38.113
-36.8866
42.4487
28.9623
-41.3924
119.233
-24.4687
-15.1283
-28.4564
-5.90976
-46.8947
-77.534
-92.5951
-56.4521
-35.5984
-35.6225
-47.9277
-30.3688
-30.926
-30.9356
-32.8819
-30.1455
-47.3313
-50.6571
-55.5343
-41.8265
-175.018
-157.927
-134.969
-34.1562
15.6031
28.8796
-44.548
107.38
-101.205
-74.9493
-103.343
-86.8964
-35.5639
-31.924
-34.9226
-32.1866
-45.1015
-41.4265
-47.1062
-32.0231
-38.851
-38.2518
-38.1044
-37.0067
-23.5355
-15.2917
-28.4514
-6.018
42.8073
28.352
-42.3273
123.148
-47.0373
-77.5232
-92.4484
-56.4677
-30.9051
-30.948
-32.8954
-30.1946
-35.628
-35.6563
-48.0163
-30.3809
-47.3139
-50.6495
-55.5513
-41.7991
-45.6241
-45.8325
-48.4193
-44.7019
-28.1872
-15.7189
-25.9872
-26.1859
-38.1369
-38.4515
-43.5994
-34.4861
-35.5182
-35.1121
-37.1677
-33.5637
-2.69271
-22.9821
4.80845
-24.7326
-22.5548
-18.4692
-15.5332
-19.4728
-6.10413
-7.16133
-9.02714
-4.07853
-24.4169
-26.5646
-25.3532
-25.9829
-53.4512
-65.9064
-59.1665
-61.4576
-38.7122
-38.855
-42.9979
-34.0913
-33.7242
-30.3191
-30.534
-35.8742
-51.0827
-36.76
-39.6933
-44.8792
-14.8214
-34.5974
-11.0477
-43.6295
-6.97263
-6.69583
-9.65861
-4.1609
-16.8676
-22.0383
-19.5366
-29.1882
-39.0166
-44.2407
-44.677
-41.6261
-45.4858
-45.8116
-48.372
-44.5923
-35.5475
-35.1208
-37.1842
-33.5755
-28.2393
-15.8764
-26.0388
-26.2284
-38.07
-38.5081
-43.5769
-34.5594
-2.52686
-22.839
5.45328
-25.3986
-24.4018
-26.565
-25.3481
-25.9612
-22.6464
-18.5361
-15.7048
-19.4861
-6.20297
-7.33145
-9.25952
-4.06168
-53.4436
-65.8881
-59.1536
-61.4517
-50.6639
-36.7705
-39.6822
-44.8629
-38.7065
-38.8568
-42.9915
-34.0786
-33.7241
-30.3358
-30.5478
-35.8865
-14.7574
-34.5763
-10.7501
-44.1167
-38.9195
-44.2311
-44.5407
-41.632
-7.56219
-6.98379
-10.0345
-4.50348
-17.052
-22.1482
-19.664
-29.1376
-117.847
-87.2925
-105.544
-105.509
189.98
193.476
197.267
183.518
-85.975
-68.3766
-77.1595
-77.1488
78.8337
162.102
113.901
114.955
-61.303
-63.1551
-67.6921
-58.5088
-55.2113
-54.0961
-59.74
-50.8659
-43.2308
-41.3983
-41.5388
-42.8494
-28.8883
-28.1507
-28.3516
-28.6903
-34.6794
-35.6701
-36.2271
-36.179
-28.3287
-27.223
-28.9832
-28.8995
-38.5131
-39.4485
-40.1158
-38.81
-37.1363
-39.6997
-35.5045
-37.6489
-38.0652
-43.6582
-42.9988
-43.0118
73.5329
151.778
97.8212
98.1563
-70.496
-68.3063
-65.1334
-74.5586
-62.2783
-46.5125
-54.2115
-50.1595
-33.5992
-32.0054
-32.891
-32.8996
-28.1098
-27.4035
-27.7981
-27.8094
-38.0861
-43.5135
-43.4097
-32.3524
-37.388
-33.7315
-36.4529
-35.1247
-117.865
-87.3109
-105.566
-105.498
189.36
193.492
183.507
197.064
-61.3308
-63.1778
-67.7209
-58.5298
-55.1808
-54.0782
-59.5837
-50.8634
-43.2285
-41.3987
-42.8513
-41.5413
-28.9043
-28.1715
-28.3722
-28.7043
-38.5879
-39.545
-40.4834
-38.8041
-37.1454
-39.7742
-35.5262
-37.7802
-70.5108
-68.3191
-74.5687
-65.1449
-62.3142
-46.5375
-50.1789
-54.2186
-38.0224
-43.5115
-32.311
-43.3761
-37.4679
-33.7637
-35.1787
-36.4925
-21.7268
-21.41
-22.6203
-20.0994
-25.8387
-27.2526
-27.2339
-26.3098
-55.4699
-56.376
-54.7267
-55.8107
-28.8962
-24.8134
-26.4114
-26.7467
-39.7952
-43.9356
-41.8874
-41.8876
-31.3566
-29.6415
-30.5427
-30.545
-13.6316
-17.2449
-15.4373
-15.7049
10.026
-3.05434
12.0666
12.0691
-26.9834
-27.0747
-26.8843
-26.8849
-28.6718
-31.6353
-28.4186
-28.4268
-22.6318
-22.0282
-20.8819
-23.5309
-40.0193
-53.5054
-48.2719
-46.1163
-16.091
-12.0297
-15.0202
-15.1098
-64.138
-64.4826
-64.6386
-64.6467
-58.5975
-55.3921
-54.6236
-54.6151
-38.4884
-35.3597
-36.7469
-36.7471
-21.8592
-21.562
-22.7584
-20.261
-25.8172
-27.2498
-27.2294
-26.2964
-55.4467
-56.3872
-55.8543
-54.7324
-28.9127
-24.9042
-26.4582
-26.7893
-13.8416
-17.4117
-15.8975
-15.6213
9.89004
-2.7533
12.5472
12.6151
-22.7605
-22.1653
-23.6467
-21.0243
-40.0158
-53.4971
-46.109
-48.2671
-106.55
-109.083
-107.362
-85.0601
-53.1299
-56.3879
-53.8675
-53.8631
-59.0176
-55.2581
-59.5092
-57.584
-108.279
-111.788
-107.62
-90.9338
-106.611
-109.175
-107.416
-85.1012
-108.225
-111.673
-107.575
-90.9252
-59.0096
-55.2394
-59.521
-57.6252
-53.1228
-56.3944
-53.8756
-53.8566
-96.4899
-85.7241
-81.2653
-73.54
-96.4925
-85.6492
-81.2575
-73.514
-43.2634
-40.7979
-45.1061
-42.5574
-43.2647
-40.7923
-45.1073
-42.5557
-44.4008
-54.353
-47.2764
-53.6822
-49.5804
-36.3272
-37.955
-25.093
-49.6038
-36.3541
-37.89
-24.9238
-44.6151
-54.307
-47.2777
-53.6862
97.2319
76.6718
158.545
110.936
106.12
105.658
115.858
114.068
105.776
107.52
113.945
116.062
76.7671
97.3154
110.939
158.839
-25.7014
-28.2252
-24.1708
-26.003
-15.5508
-13.5365
-17.1868
-15.4622
-15.0026
-17.1492
-16.2543
-18.2719
-29.7036
-28.33
-27.3134
-26.1045
-25.7572
-28.2679
-24.266
-26.0564
-29.6988
-28.3494
-27.3481
-26.1758
-15.227
-17.3482
-16.4552
-18.445
-15.7231
-13.7305
-17.3345
-15.6402
-28.8254
-30.7708
-28.6746
-30.0598
-30.7785
-28.8185
-30.0674
-28.6933
-25.3153
-24.6104
-26.1385
-25.5835
-24.6204
-25.3185
-25.5923
-26.1422
-46.2092
-51.0146
-52.9595
-58.2166
-37.5567
-44.9261
-44.7171
-48.3696
-44.8516
-37.4884
-48.3311
-44.6674
-51.0424
-46.226
-58.2176
-52.9508
10.9673
3.62275
-7.74901
11.7023
-40.7708
-39.0255
-40.4687
-39.245
-46.8007
-48.4862
-44.3356
-44.2797
-1.85457
2.88929
0.286044
7.51695
11.6039
3.97179
-7.02653
12.188
-1.29827
3.36458
0.622984
8.09693
-46.8264
-48.4997
-44.3435
-44.2874
-40.7825
-39.0275
-40.4726
-39.2442
-28.4127
-27.7579
-29.8986
-27.657
-28.6298
-27.8425
-29.9387
-27.6828
-38.1085
-35.6251
-36.8526
-36.0995
-37.8381
-35.1692
-36.7341
-35.8072
-37.706
-39.0016
-38.1498
-37.0646
-34.9371
-36.2458
-34.324
-35.0631
-34.9515
-36.265
-34.3437
-35.0933
-37.7787
-39.1407
-38.2066
-37.0737
-29.5694
-29.8206
-28.0412
-28.1228
-29.8394
-29.6008
-28.1051
-28.0477
-29.4176
-29.1944
-28.7591
-28.9934
-29.1893
-29.3659
-28.9841
-28.7448
-66.2288
30.0514
-165.766
-23.6003
-88.0849
-128.827
-45.648
-34.4157
-40.1633
-33.9241
-40.9934
-47.1532
-39.5632
53.3508
-11.8766
41.4792
-30.4915
-19.4478
-44.7387
-30.6629
-33.687
-30.791
-47.709
-38.9642
-165.41
-24.4008
-65.4327
5.56973
-88.3808
-129.991
-40.158
-33.9546
-45.7076
-34.4565
-41.0282
-47.2529
-11.7266
43.5954
-40.8287
55.957
-30.7904
-19.8474
-33.6995
-30.7956
-44.7634
-30.6851
-47.7896
-38.9542
-54.0807
-42.0676
-31.9302
-29.8412
-44.5164
-34.4018
-39.6947
-33.1546
-2.59783
-22.51
-12.4983
-20.8984
-9.35645
-4.57462
-22.6309
-24.5658
-47.4938
-50.8438
-42.691
-36.0481
-34.9444
-39.4778
-50.2152
-44.0129
-3.21952
-35.7299
-9.32799
-4.10467
-12.473
-28.7871
-36.5854
-37.1943
-54.1261
-41.5807
-40.0221
-33.0425
-32.0631
-29.968
-44.5513
-34.3727
-2.34488
-22.5072
-22.6581
-24.5411
-12.6566
-20.9876
-9.52656
-4.54789
-47.4874
-50.8366
-50.2384
-44.067
-42.6814
-36.0373
-34.9387
-39.4823
-3.67596
-36.3835
-36.3008
-37.1295
-9.81792
-4.68148
-12.7511
-28.5291
-41.9361
125.718
-42.3737
129.382
-89.0026
-92.0766
170.186
166.595
-118.794
-51.1117
-118.788
-50.9004
-98.8563
-98.8491
21.2271
21.232
-70.0044
-67.0722
-50.9853
-48.6801
-64.6341
-55.7201
-60.8362
-51.6353
-47.0965
-30.974
-46.7183
-30.461
-44.0627
-45.5349
-28.9351
-29.0825
-33.517
-32.1736
-33.5296
-32.153
-34.6408
-34.6948
-29.2035
-29.219
-38.4201
-36.0861
-38.8239
-30.0726
-39.0382
-37.677
-35.2603
-35.3523
-20.3681
-4.72176
-20.5595
-4.77624
-32.5023
-32.5357
41.6782
41.4834
-93.1004
-76.9554
-68.0338
-72.5441
-68.4613
-78.9215
-70.0855
-69.5055
-31.5893
-29.3598
-31.6011
-29.4095
-32.5769
-32.5834
-28.725
-28.7156
-46.9458
-43.2598
-27.4004
-41.2174
-45.1705
-24.2158
-39.4793
-39.9329
-41.6356
126.073
-42.1563
133.392
-89.1333
-92.2695
165.771
170.51
-70.0361
-67.014
-51.0093
-49.139
-64.6578
-55.7527
-60.759
-51.7053
-47.1915
-31.0138
-46.7832
-30.4753
-45.429
-44.0764
-28.9554
-29.0923
-38.3312
-36.2724
-39.4402
-30.17
-40.3389
-37.5791
-34.8243
-35.6209
-93.1049
-77.0132
-68.0212
-72.5529
-78.9382
-68.4885
-69.5225
-70.1318
-47.2716
-43.3019
-27.5819
-41.3897
-24.4159
-45.078
-40.0301
-39.5276
-24.1353
-23.8844
-18.678
-23.553
-23.1172
-20.2586
-25.3799
-24.3721
-43.1923
-34.2908
-43.2297
-34.417
-50.6232
-49.9501
-31.3979
-31.7292
-36.5428
-33.6508
-36.5481
-33.6564
-38.1058
-38.1042
-32.4897
-32.4705
-8.91153
-4.89241
-9.03319
-3.79442
-11.149
-11.2964
-2.77578
-2.71244
-26.8427
-27.4539
-26.8441
-27.4602
-26.9739
-26.9603
-28.1265
-28.1322
-27.4988
-33.3234
-22.2236
-30.4068
-22.0497
-24.8105
-35.7083
-34.5613
-28.8865
-44.1206
-28.8435
-44.1491
-21.7003
-21.719
-55.3442
-55.3864
-45.3281
-41.7867
-45.3203
-41.7833
-51.6308
-51.6412
-40.1104
-40.109
-24.2412
-23.9674
-18.6726
-21.8984
-23.2556
-20.3477
-25.4147
-24.3356
-43.1877
-34.3219
-43.2281
-34.4099
-49.9108
-50.5999
-31.3992
-31.7162
-9.14236
-5.09242
-9.32658
-3.94933
-11.5457
-11.3681
-2.93521
-2.85629
-27.5398
-33.3298
-22.3082
-30.3972
-24.8972
-22.1436
-34.552
-35.7171
-77.0975
-78.4737
-69.2459
-59.9127
-63.1247
-72.3549
-57.5908
-59.054
-77.1206
-78.4877
-69.269
-59.9297
-72.3678
-63.1369
-59.0659
-57.603
-62.561
-62.5494
-57.6993
-49.7881
-57.6739
-49.7782
-46.6395
-46.6315
-44.4759
-44.4805
-44.8272
-35.6851
-35.7117
-44.8395
-19.8533
-19.8609
195.828
184.767
190.058
187.871
177.678
177.534
184.811