# vtk DataFile Version 2.0
tet_velo
ASCII
DATASET UNSTRUCTURED_GRID
POINTS 29498 float
-0.648716 0.055 -2.205
-0.657202 0.145 2.175
-0.69855 0.715 -2.015
-0.614222 0.955 2.165
0.655058 0.055 -2.205
0.65037 0.145 2.175
0.705 0.715 -2.01298
0.595 0.970588 2.165
-0.686402 0.0501428 -0.745
-0.708755 0.0606182 0.715
-0.774294 0.898853 -0.621667
-0.754037 0.986705 0.771667
0.688378 0.0501173 -0.745
0.706333 0.0606001 0.715
0.775111 0.906973 -0.62032
0.748685 1.00241 0.77234
-1.36342 -0.420311 -3.40385
-1.36725 -0.359643 -2.26273
-1.39312 -0.358998 -0.800946
-1.39398 -0.362296 0.674379
-1.35271 -0.309914 2.13731
-1.34747 -0.269264 3.28402
-1.36051 -0.234203 4.4204
-1.36571 -0.0369667 -3.33253
-1.3739 0.0445448 -2.19877
-1.41073 0.0673563 -0.749975
-1.4016 0.0714683 0.704921
-1.32985 0.116931 2.15501
-1.33444 0.156575 3.30076
-1.35685 0.192126 4.43932
-1.38949 0.694552 -3.17133
-1.41995 0.77292 -2.0351
-1.47625 0.908473 -0.631808
-1.43959 0.970166 0.76689
-1.31993 0.963117 2.17151
-1.33417 1.00221 3.32006
-1.36608 1.04545 4.46942
-1.41028 1.91359 -2.97944
-1.43052 2.00781 -1.85301
-1.45921 2.15674 -0.471629
-1.46365 2.26374 0.895473
-1.43925 2.30209 2.27768
-1.42443 2.3235 3.40581
-1.42431 2.35377 4.54794
-0.664007 -0.415369 -3.40786
-0.661122 -0.351272 -2.2688
-0.683482 -0.366943 -0.799912
-0.700174 -0.37044 0.682958
-0.679042 -0.297218 2.15218
-0.676621 -0.260056 3.29413
-0.686649 -0.229254 4.42631
-0.661556 -0.0389362 -3.33343
-0.670048 0.167092 3.30911
-0.686416 0.197096 4.44379
-0.677696 0.669827 -3.16252
-0.669137 1.00401 3.31882
-0.696729 1.04793 4.46924
-0.691737 1.89771 -2.9708
-0.705641 1.99337 -1.84356
-0.734586 2.15611 -0.465829
-0.756016 2.27287 0.895081
-0.752646 2.30807 2.2732
-0.743698 2.32677 3.40131
-0.743561 2.35651 4.5447
0.70077 -0.413719 -3.40744
0.682288 -0.35038 -2.26866
0.698788 -0.365949 -0.799831
0.69991 -0.369276 0.683014
0.661744 -0.295682 2.15222
0.654652 -0.255901 3.29421
0.654083 -0.223534 4.42644
0.699883 -0.0376322 -3.33286
0.640769 0.172188 3.30917
0.64447 0.203543 4.44391
0.718798 0.67146 -3.16132
0.616545 1.01419 3.31891
0.627833 1.05637 4.46939
0.740417 1.90203 -2.96978
0.741817 1.99857 -1.84251
0.727198 2.16369 -0.464947
0.679546 2.2829 0.895681
0.62871 2.31881 2.27357
0.616191 2.33682 3.4016
0.615257 2.36561 4.54497
1.39448 -0.415931 -3.40289
1.38086 -0.355763 -2.26209
1.40285 -0.35398 -0.800487
1.40093 -0.356009 0.674659
1.35093 -0.302729 2.13748
1.33412 -0.259434 3.28423
1.33265 -0.222411 4.4207
1.39379 -0.0329023 -3.33131
1.37639 0.048411 -2.19788
1.411 0.0736117 -0.749337
1.40752 0.0800731 0.70525
1.33323 0.126123 2.15513
1.31703 0.168278 3.30095
1.32057 0.205224 4.43961
1.41987 0.699477 -3.16929
1.42356 0.778583 -2.03277
1.47352 0.921643 -0.630075
1.43592 0.990922 0.767799
1.30536 0.984549 2.17178
1.29256 1.0207 3.32032
1.30315 1.06185 4.46976
1.45239 1.9226 -2.97753
1.4574 2.01847 -1.85107
1.44834 2.17147 -0.469991
1.39771 2.2826 0.896627
1.33258 2.3223 2.27844
1.30788 2.34274 3.40642
1.30203 2.37151 4.54851
-0.721443 0.385 -2.15781
0.00317103 0.0523181 -2.20768
-0.66997 0.0501605 -1.475
-0.721729 0.55 2.25602
-0.003416 0.142544 2.17746
-0.685686 0.100101 1.445
0.003225 0.784913 -2.0839
-0.757215 0.827719 -1.31833
-0.00961098 1.00764 2.20984
-0.708914 0.995637 1.46833
0.728428 0.385 -2.15739
0.674381 0.0498961 -1.475
0.712644 0.557794 2.25996
0.68125 0.099901 1.445
0.758143 0.829074 -1.31665
0.692955 1.00761 1.46867
-0.696181 0.0567776 -0.015
-0.885844 0.474498 -0.683333
0.000988115 0.0496751 -0.745
-0.892003 0.523662 0.743333
-0.00121127 0.0584792 0.715
-0.763119 0.941733 0.0749999
0.000408282 1.18633 -0.620994
-0.00267572 1.38092 0.772003
0.695963 0.0567508 -0.015
0.889231 0.478545 -0.68266
0.892644 0.531505 0.74367
0.761805 0.954599 0.07601
-0.885363 0.429749 -1.39667
-0.892733 0.49908 0.03
-0.880646 0.536831 1.45667
0.00207957 0.0478968 -1.475
-0.00011158 0.0577067 -0.015
-0.00231364 0.0920262 1.445
0.00319801 0.385 -2.36517
-0.00651349 0.553897 2.36967
0.00181664 0.921186 -1.31749
-0.00113372 1.38414 0.075505
-0.00614335 1.18415 1.4685
0.878597 0.431773 -1.39583
0.896214 0.505025 0.030505
0.885401 0.54465 1.45684
-1.01131 0.0497724 -2.20189
-0.654919 -0.148136 -2.2369
-0.655136 0.0080319 -2.76921
-0.993525 0.130966 2.165
-0.668122 -0.076109 2.16359
-0.663625 0.156046 2.74206
-1.05925 0.74396 -2.02505
-0.688123 0.692414 -2.58876
-0.702095 1.35418 -1.92928
-0.967078 0.959059 2.16826
-0.641679 0.979506 2.74191
-0.683434 1.63154 2.2191
0.668673 -0.14769 -2.23683
0.67747 0.0086839 -2.76893
1.01572 0.0517055 -2.20144
0.656057 -0.075341 2.16361
0.645569 0.158594 2.74208
0.991798 0.135562 2.16506
0.711899 0.69323 -2.58715
0.723408 1.35678 -1.92774
1.06428 0.746792 -2.02287
0.605772 0.992391 2.74195
0.611855 1.6447 2.21929
0.950179 0.977568 2.16839
-1.04857 0.0587496 -0.747487
-0.684942 -0.1584 -0.772456
-1.05518 0.0660432 0.709961
-0.704464 -0.154911 0.698979
-1.12527 0.903663 -0.626738
-0.75444 1.52748 -0.543748
-1.09681 0.978435 0.769279
-0.755026 1.62979 0.833374
0.693583 -0.157916 -0.772416
1.04969 0.0618645 -0.747169
0.703122 -0.154338 0.699007
1.05693 0.0703366 0.710125
0.751154 1.53533 -0.542634
1.12432 0.914308 -0.625198
0.714115 1.64266 0.834011
1.0923 0.996666 0.77007
-1.36533 -0.389977 -2.83329
-1.36456 -0.228639 -3.36819
-1.01371 -0.41784 -3.40586
-1.38018 -0.35932 -1.53184
-1.37057 -0.157549 -2.23075
-1.01419 -0.355457 -2.26577
-1.39355 -0.360647 -0.0632834
-1.40192 -0.145821 -0.77546
-1.0383 -0.362971 -0.800429
-1.37334 -0.336105 1.40584
-1.39779 -0.145414 0.68965
-1.04707 -0.366368 0.678669
-1.35009 -0.289589 2.71066
-1.34128 -0.0964913 2.14616
-1.01588 -0.303566 2.14474
-1.35399 -0.251734 3.85221
-1.34096 -0.0563446 3.29239
-1.01205 -0.26466 3.28908
-1.35868 -0.0210384 4.42986
-1.02358 -0.231729 4.42336
-1.3698 0.00378903 -2.76565
-1.3776 0.328793 -3.25193
-1.01363 -0.0379515 -3.33298
-1.39231 0.0559506 -1.47437
-1.39692 0.408733 -2.11694
-1.40617 0.0694123 -0.0225268
-1.44349 0.487914 -0.690892
-1.36572 0.0941998 1.42997
-1.42059 0.520817 0.735906
-1.33215 0.136753 2.72789
-1.32489 0.540024 2.16326
-1.34565 0.174351 3.87004
-1.33431 0.579394 3.31041
-1.00225 0.161833 3.30494
-1.36147 0.618786 4.45437
-1.02163 0.194611 4.44155
-1.40472 0.733736 -2.60322
-1.39988 1.30407 -3.07539
-1.03359 0.68219 -3.16692
-1.4481 0.840696 -1.33346
-1.42523 1.39036 -1.94406
-1.45792 0.939319 0.067541
-1.46773 1.53261 -0.551719
-1.37976 0.966642 1.4692
-1.45162 1.61695 0.831181
-1.32705 0.982666 2.74579
-1.37959 1.63261 2.2246
-1.35013 1.02383 3.89474
-1.3793 1.66285 3.36294
-1.00165 1.00311 3.31944
-1.3952 1.69961 4.50868
-1.03141 1.04669 4.46933
-1.4204 1.9607 -2.41623
-1.05101 1.90565 -2.97512
-1.44486 2.08227 -1.16232
-1.06808 2.00059 -1.84829
-1.46143 2.21024 0.211922
-1.0969 2.15642 -0.468729
-1.45145 2.28292 1.58657
-1.10983 2.2683 0.895277
-1.43184 2.31279 2.84174
-1.09595 2.30508 2.27544
-1.42437 2.33863 3.97687
-1.08406 2.32513 3.40356
-1.08393 2.35514 4.54632
-0.662565 -0.38332 -2.83833
-0.662781 -0.227152 -3.37064
0.0183815 -0.414544 -3.40765
-0.672302 -0.359108 -1.53435
0.0105831 -0.350826 -2.26873
-0.691828 -0.368692 -0.0584766
0.00765275 -0.366446 -0.799871
-0.689608 -0.333829 1.41757
-0.000131591 -0.369858 0.682986
-0.677831 -0.278637 2.72316
-0.00864926 -0.29645 2.1522
-0.681635 -0.244655 3.86022
-0.673334 -0.046482 3.30162
-0.0109842 -0.257978 3.29417
-0.686532 -0.0160793 4.43505
-0.0162829 -0.226394 4.42637
-0.669626 0.315446 -3.24797
0.0191636 -0.0382842 -3.33315
-0.678232 0.182094 3.87645
-0.669592 0.585552 3.31397
-0.0146394 0.16964 3.30914
-0.691573 0.622514 4.45652
-0.020973 0.200319 4.44385
-0.684717 1.28377 -3.06666
0.020551 0.670644 -3.16192
-0.682933 1.02597 3.89403
-0.706418 1.66539 3.36007
-0.0262962 1.0091 3.31887
-0.720145 1.70222 4.50697
-0.0344483 1.05215 4.46932
-0.698689 1.94554 -2.40718
0.0243402 1.89987 -2.97029
-0.720113 2.07474 -1.1547
0.0180881 1.99597 -1.84304
-0.745301 2.21449 0.214626
-0.00369383 2.1599 -0.465388
-0.754331 2.29047 1.58414
-0.0382353 2.27788 0.895381
-0.748172 2.31742 2.83725
-0.0619679 2.31344 2.27338
-0.74363 2.34164 3.97301
-0.0637537 2.3318 3.40146
-0.0641523 2.36106 4.54484
0.691529 -0.38205 -2.83805
0.700326 -0.225676 -3.37015
1.04762 -0.414825 -3.40517
0.690538 -0.358164 -1.53425
1.03158 -0.353072 -2.26538
0.699349 -0.367612 -0.0584088
1.05082 -0.359964 -0.800159
0.680827 -0.332479 1.41761
1.05042 -0.362643 0.678836
0.658198 -0.275792 2.72321
1.00634 -0.299205 2.14485
0.654368 -0.239717 3.86032
0.64771 -0.0418568 3.30169
0.994388 -0.257668 3.28922
0.649277 -0.00999521 4.43518
0.993368 -0.222972 4.42357
0.709341 0.316914 -3.24709
1.04684 -0.0352673 -3.33208
0.642619 0.187865 3.87654
0.628657 0.593191 3.31404
0.978901 0.170233 3.30506
0.636151 0.629956 4.45665
0.982521 0.204383 4.44176
0.729608 1.28675 -3.06555
1.06933 0.685468 -3.1653
0.622189 1.03528 3.89415
0.616368 1.67551 3.36026
0.954552 1.01745 3.31961
0.621545 1.71099 4.50718
0.965491 1.05911 4.46958
0.741117 1.9503 -2.40615
1.0964 1.91231 -2.97366
0.734508 2.08113 -1.15373
1.09961 2.00852 -1.84679
0.703372 2.22329 0.215367
1.08777 2.16758 -0.467469
0.654128 2.30086 1.58463
1.03863 2.28275 0.896154
0.622451 2.32782 2.83759
0.980645 2.32055 2.27601
0.615724 2.35121 3.97329
0.962037 2.33978 3.40401
0.958642 2.36856 4.54674
1.38767 -0.385847 -2.83249
1.39413 -0.224417 -3.3671
1.39186 -0.354871 -1.53129
1.37863 -0.153676 -2.22998
1.40189 -0.354994 -0.0629141
1.40693 -0.140184 -0.774912
1.37593 -0.329369 1.40607
1.40422 -0.137968 0.689955
1.34253 -0.281081 2.71086
1.34208 -0.0883027 2.1463
1.33339 -0.240922 3.85247
1.32558 -0.0455779 3.29259
1.32661 -0.00859335 4.43015
1.38509 0.00775432 -2.76459
1.40683 0.333287 -3.2503
1.39369 0.0610113 -1.47361
1.39997 0.413497 -2.11532
1.40926 0.0768424 -0.0220435
1.44226 0.497627 -0.689706
1.37037 0.103098 1.43019
1.42172 0.535498 0.736525
1.32513 0.147201 2.72804
1.31929 0.555336 2.16346
1.3188 0.186751 3.87028
1.3048 0.59449 3.31063
1.31186 0.633537 4.45469
1.42171 0.73903 -2.60103
1.43613 1.31104 -3.07341
[...]
POINT_DATA 29498
VECTORS point_vectors float
-4.25537 -8.71006 10.8196
-0.123179 0.415384 1.29925
-1.98665 2.73662 5.31009
0.0372736 -0.0460321 0.17949
4.66621 -9.62885 11.7597
0.113861 0.428327 1.37209
1.9485 2.22055 4.50841
-0.0176932 -0.0803096 0.299216
0 0 0
0 0 0
0 0 0
0 0 0
0 0 0
0 0 0
0 0 0
0 0 0
-0.563689 -0.307327 19.7723
-1.36418 -1.01509 20.44
-0.416129 -0.474655 21.5898
0.1324 -0.0215407 21.72
0.61665 0.370647 21.5234
0.823739 0.453362 21.0556
0.78837 0.308974 20.6648
-0.744209 -0.249385 19.6246
-2.24287 -0.965817 20.3786
-0.644863 -0.624964 21.7049
0.15486 -0.202854 21.8498
0.994582 0.273499 21.1922
1.21464 0.138938 21.3569
1.07086 0.212259 21.0547
-0.960365 0.188257 19.5102
-2.47181 0.495864 20.5021
-1.38107 -0.291208 21.6439
-0.185769 -0.360839 21.9759
0.85701 -0.555081 21.5177
1.02083 -0.588365 21.3681
1.00568 -0.416711 20.8091
-0.543189 0.512888 20.0137
-0.802576 0.713426 20.5457
-0.685193 0.471363 21.2723
-0.16829 0.00131325 21.6106
0.171608 -0.312079 21.3642
0.257209 -0.356997 21.0609
0.217791 -0.376394 20.8913
-0.465101 -0.58068 19.3816
-1.43479 -3.1027 20.5023
-0.223755 -0.437042 22.0756
0.0855636 0.212126 21.5525
0.248857 0.966064 20.5576
0.460926 1.08311 20.8399
0.598303 0.846661 19.7954
-0.669677 -0.558992 18.8794
0.580369 1.73945 10.6458
1.44432 0.699488 12.4636
-1.01985 0.357585 18.2428
1.6081 -0.275931 9.84095
1.25013 -0.511797 15.3414
-0.426473 0.865667 19.756
-0.709465 1.3959 20.3857
-0.770775 1.24857 21.4284
-0.217378 0.0933623 21.9029
0.0733562 -0.451763 21.5298
0.18166 -0.507602 20.9588
0.0723731 -0.402693 20.7055
0.47894 -0.555852 19.4021
1.50296 -3.03021 20.4915
0.220598 -0.432629 22.0534
-0.0749565 0.220783 21.5469
-0.20361 1.01244 20.4641
-0.407921 1.18242 20.7687
-0.544427 0.952462 19.391
0.684533 -0.511642 18.9368
-0.518848 1.6455 10.0108
-1.46459 0.810467 12.2327
1.08397 0.354883 18.3453
-1.4496 -0.355726 8.31799
-1.27933 -0.477953 14.5161
0.441919 0.844045 19.7712
0.728635 1.3614 20.3943
0.760896 1.24864 21.43
0.206746 0.100326 21.9212
-0.0600313 -0.461086 21.5124
-0.143401 -0.536999 21.0403
-0.0317413 -0.419838 20.4692
0.561871 -0.305438 19.7936
1.35322 -0.999271 20.46
0.420309 -0.486246 21.5882
-0.131619 -0.0162273 21.7388
-0.628407 0.379152 21.5457
-0.858021 0.453632 21.0106
-0.791358 0.364928 20.6106
0.750141 -0.244415 19.6559
2.23806 -0.947127 20.3933
0.667545 -0.632081 21.7096
-0.14579 -0.208586 21.857
-1.02452 0.280009 21.2063
-1.25479 0.153124 21.3553
-1.10073 0.27646 21.0163
0.937539 0.172753 19.5564
2.43202 0.480927 20.5198
1.39867 -0.277233 21.653
0.190135 -0.358814 21.9845
-0.874572 -0.614906 21.5723
-1.03324 -0.653163 21.3968
-1.02577 -0.508864 20.6459
0.53484 0.48683 20.0354
0.787235 0.683665 20.5518
0.679343 0.475679 21.2754
0.172988 -0.00236681 21.6248
-0.156135 -0.3307 21.3772
-0.240861 -0.42527 21.0273
-0.200863 -0.417433 20.9531
-0.986391 -0.0139106 1.02679
-0.00205315 -0.351397 1.33532
-0.0146819 0.00089168 0.312404
0.0102203 0.0299596 0.0336124
0.00545044 0.00933359 0.0961734
-0.00561797 0.0140434 0.272644
-0.000205387 0.13955 0.353484
-0.0347461 -0.00578652 0.0706868
0.0064169 0.0557842 -0.0788452
0 0 0
1.0391 -0.031494 1.07273
0.00660668 0.000360064 0.333612
-0.0381953 0.0657653 0.102814
0.00344965 0.0112517 0.217036
0.0385972 -0.00573859 0.080362
0 0 0
6.91311e-05 1.13641e-05 0.00267507
1.6025e-06 -2.13984e-05 0.0025955
0 0 0
0.00105475 0.00847221 0.0578441
2.77389e-05 5.93451e-05 0.0125255
0 0 0
-5.14035e-05 0.0937994 0.183951
3.82223e-05 -0.00289196 0.0438013
-5.80694e-05 1.09355e-05 0.00246685
-9.32176e-07 -4.82818e-05 0.00387967
-0.000882539 0.0085484 0.053128
0 0 0
0 0 0
0 0 0
0.00503568 0.021777 0.1473
-4.27883e-07 1.72975e-08 0.000119426
-1.92408e-07 -1.88998e-07 -4.49627e-05
4.59919e-05 0.000328662 0.00593018
0.0201042 -0.0130464 0.0711786
0.0018652 0.166022 -0.0222736
-3.71882e-05 0.00473759 0.0336458
5.20902e-05 0.00451516 0.0565374
-8.66857e-06 0.00225862 -0.00525004
-0.000171431 -0.00311802 0.0252949
0.000136823 0.00159382 0.0152179
-0.00157813 0.00988662 0.0749202
-4.25012 -2.80188 19.8413
-2.42034 -5.21235 20.563
-1.88298 -1.8814 17.6314
1.05985 1.1256 15.1609
0.0205938 1.14721 14.1414
-0.320703 1.02433 6.40147
-4.55405 1.56642 20.3921
-3.26704 1.94732 16.4024
-1.75855 2.5528 20.1915
1.34318 -0.0328466 15.37
0.7063 0.306277 5.00317
0.246848 -0.896856 21.4419
2.52073 -5.18777 20.5513
1.91665 -1.82863 17.7091
4.25391 -2.74498 19.9138
0.0379033 1.18339 14.0094
0.37547 1.0879 6.1883
-1.09021 1.18572 15.058
3.26873 1.85491 16.5993
1.77239 2.48602 20.2012
4.47739 1.48338 20.4614
-0.601112 0.118495 4.35044
-0.180665 -0.918606 21.09
-1.34838 -0.113161 15.1846
-0.228879 -0.512572 17.8087
-0.00414064 -0.103063 17.4456
0.223302 0.217262 16.5739
0.11844 0.310352 16.2012
-2.32352 -0.877718 21.3401
-2.56884 2.27037 21.5629
-0.123905 -0.362375 19.6515
-0.421662 0.00173406 22.4749
-0.0325835 -0.112534 17.5434
0.275091 -0.528316 17.8313
-0.103645 0.324225 16.1611
-0.247201 0.181124 16.5443
2.52033 2.27596 21.5605
2.38306 -0.822838 21.4979
0.429125 0.00738096 22.4834
0.121142 -0.359301 19.7397
-0.979877 -0.640699 19.8773
-0.634801 -0.303416 19.6969
-0.563601 -0.472995 19.5872
-0.951215 -0.829665 21.3438
-1.7388 -1.07078 20.4421
-1.63889 -1.89176 20.3892
-0.113612 -0.263697 21.6536
-0.489748 -0.566103 21.6337
-0.258225 -0.541936 21.7963
0.397186 0.182255 21.6915
0.160652 -0.118343 21.7887
0.200188 0.080961 21.7871
0.729372 0.425733 21.3432
0.81028 0.365798 21.4959
0.604977 0.749832 21.4067
0.813086 0.400608 21.0104
1.00927 0.318167 21.1897
0.701486 0.831644 21.072
0.930316 0.258159 20.861
0.706096 0.724439 20.9612
-1.44627 -0.567506 19.6553
-0.90904 -0.0945354 19.4906
-0.830124 -0.439716 19.2987
-1.39793 -0.859933 21.596
-2.7598 -0.269709 20.4308
-0.22287 -0.438342 21.8231
-0.999258 -0.589872 21.7431
0.58033 0.0320132 21.7359
0.0577725 -0.350439 21.8358
1.11408 0.314235 21.0851
1.12943 -0.167917 21.3038
1.40417 0.164913 20.0989
1.25424 -0.239913 21.4968
1.24819 1.12567 16.8195
1.35259 -0.232239 20.6653
1.27343 0.655144 17.7383
-1.79322 0.386696 19.6072
-0.792906 0.476905 19.7396
-1.10124 0.248682 18.986
-1.86264 0.00844058 21.3282
-1.47136 0.85351 20.4854
-0.789532 -0.366091 21.9357
-1.22968 0.397111 21.4418
0.410058 -0.427073 21.8735
-0.264141 -0.106142 21.8204
0.985385 -0.597541 21.3443
0.369169 -0.504671 21.5032
0.998241 -0.60341 20.9475
0.507364 -0.578567 20.9797
1.52844 -0.636862 18.9308
0.399977 -0.382522 20.9339
1.17105 -0.710952 20.1148
-0.717346 0.667437 20.2253
-0.522852 0.673282 19.8814
-0.803971 0.63881 20.9258
-0.831435 1.02081 20.4791
-0.448289 0.256513 21.5389
-0.80565 0.832409 21.3461
0.0464263 -0.19811 21.4968
-0.181395 0.0250888 21.7418
0.220021 -0.334173 21.2195
0.142507 -0.375702 21.4231
0.253219 -0.357818 20.9169
0.223754 -0.506504 21.0422
0.159328 -0.413043 20.8478
-0.968276 -1.54222 19.206
-0.542497 -0.61386 19.1705
0.0249967 -0.773923 19.1565
-0.639369 -1.33973 22.1489
0.0201788 -4.22338 20.8793
-0.0426254 -0.0737283 21.7386
0.00444393 -0.532874 21.7126
0.183728 0.603488 21.1599
0.000171356 0.0740604 20.7665
0.277113 1.03671 19.9776
0.0257116 0.644457 19.1215
0.737108 1.36021 19.8007
0.366996 1.4262 15.3737
0.0578257 0.939148 19.789
1.02131 0.773074 16.1295
0.0250564 1.25061 15.3543
-0.869648 -0.144403 18.3655
0.0181782 -0.817774 18.3982
0.938254 1.50519 11.8389
1.3432 0.870961 5.93374
-0.0426859 0.0754173 0.130629
1.90059 0.229098 9.55474
0.0883966 1.12119 8.02596
-0.758296 1.02519 19.0877
0.0290168 0.553471 17.5406
1.63271 -0.835588 12.0054
0.459816 -1.03506 20.5862
0.0833793 -0.608109 -0.524495
0.379903 -0.930223 20.0927
0.00557832 -1.43841 3.23879
-0.600466 1.22174 19.9969
0.0247865 1.03215 19.6083
-0.784625 1.40949 20.8418
0.0315405 1.7655 20.2881
-0.511289 0.684675 21.8465
-0.00235423 1.80435 21.4594
-0.031047 -0.257115 21.7297
-0.00643845 0.190176 22.0225
0.158156 -0.545678 21.459
0.0175568 -0.471368 21.4488
0.205689 -0.62936 20.6509
0.0246741 -0.748992 21.0199
-0.0129264 -0.492903 20.7435
0.98898 -1.49743 19.2222
0.570943 -0.588758 19.2075
0.56199 -0.452635 19.621
0.65851 -1.31314 22.1553
1.63984 -1.84185 20.3959
0.0391753 -0.0752451 21.7259
0.263052 -0.550963 21.7924
-0.161755 0.621809 21.1083
-0.194936 0.0906429 21.7945
-0.223062 1.10072 19.888
-0.609498 0.798583 21.4239
-0.672384 1.36247 19.7102
-0.286468 1.5156 15.1564
-0.69437 0.916299 21.0596
-1.00451 0.881464 15.8118
-0.689468 0.7643 20.9645
0.915324 -0.12854 18.4191
0.845901 -0.429652 19.3102
-0.916681 1.65036 11.7019
-1.32386 0.885841 4.96102
-1.28681 1.21999 16.315
-2.04671 0.316208 8.9357
-1.34237 0.685635 17.1136
0.800524 0.99296 19.1339
1.1084 0.244551 19.037
-1.67627 -0.931597 10.6333
-0.327004 -1.11279 20.6506
-1.58012 -0.6834 18.1138
-0.321226 -0.979869 19.884
-1.13779 -0.77994 19.7688
0.617634 1.18906 20.0127
0.53176 0.642746 19.9093
0.793417 1.38819 20.8444
0.828005 0.988824 20.4887
0.494554 0.726752 21.8599
0.800799 0.832994 21.3488
0.0265426 -0.261293 21.7258
0.19224 0.0410131 21.7749
-0.129734 -0.555632 21.4574
-0.105567 -0.40726 21.4609
-0.186254 -0.648785 20.7495
-0.202271 -0.514012 21.0318
-0.122632 -0.405025 20.7963
0.968368 -0.640124 19.8944
0.638632 -0.295616 19.719
0.945703 -0.821508 21.3253
1.73319 -1.04346 20.4532
0.111172 -0.263049 21.6598
0.50834 -0.572489 21.6347
-0.390251 0.167617 21.6962
-0.144302 -0.134071 21.7823
-0.739876 0.457693 21.3334
-0.840498 0.383931 21.5022
-0.836235 0.40423 21.0319
-1.05162 0.321295 21.1691
-0.946042 0.320694 20.8134
1.44453 -0.553578 19.6789
0.899667 -0.0871799 19.526
1.4041 -0.854961 21.5743
2.72355 -0.261878 20.4574
0.234282 -0.438582 21.8292
1.02083 -0.589035 21.7511
-0.57332 0.0239526 21.7586
-0.0472742 -0.346709 21.853
-1.17255 0.331654 21.0761
-1.18216 -0.186046 21.3375
-1.50118 0.194418 20.0309
-1.29737 -0.271614 21.4916
-1.40947 -0.26466 19.8864
1.76081 0.371162 19.652
0.780425 0.455257 19.7738
1.86565 0.0206038 21.3093
1.44317 0.823962 20.4912
0.794885 -0.361038 21.9518
1.23029 0.413216 21.446
-0.422537 -0.442831 21.8938
0.264886 -0.109746 21.8536
-1.01165 -0.666506 21.3369
-0.364944 -0.539543 21.5096
-1.05683 -0.628565 20.9
-0.510276 -0.686937 20.9925
-0.391658 -0.453793 20.8586
0.701846 0.633336 20.2422
0.792442 0.625416 20.9296
0.451997 0.270062 21.5358
-0.0430427 -0.207236 21.5452
-0.205128 -0.382347 21.216
-0.191361 -0.375973 21.0044
-1.16196 -0.636866 19.7908
-1.34845 -1.8224 18.5356
-1.09377 -1.04656 19.5737
-1.8768 -1.09467 18.8886
-0.632595 -0.462395 19.4373
-2.50864 -2.48243 20.2936
-1.15167 -0.90149 21.4874
-0.456317 -0.787918 20.1099
-0.835326 -1.21606 21.756
-1.13911 -1.5037 21.0027
-0.201329 -0.630292 21.4844
-0.146188 -0.348766 21.7017
0.126165 0.115554 16.4116
0.00567398 -0.2091 21.7953
0.0143366 -0.168562 16.6355
0.289397 0.116458 20.6737
0.509256 0.130076 21.7304
0.111706 0.699551 14.8902
0.417827 0.438399 21.6673
0.598151 0.593032 15.5478
0.844356 1.01213 19.4522
0.920957 0.403966 21.3166
0.120037 1.2494 15.2049
0.720404 0.826763 21.2709
1.11892 1.08961 16.4096
1.20929 1.10747 20.0601
1.06645 0.29552 20.6586
0.461771 1.64937 16.3844
0.899956 0.915587 20.6221
1.44867 0.87082 18.8576
1.01305 0.965483 20.6866
-1.79661 -0.183924 19.503
-3.0072 -0.477817 16.1146
-2.65804 0.867435 18.598
-0.993591 -0.116331 18.9993
-6.21024 -0.368592 19.8526
-1.7269 -0.502357 21.5617
-2.90478 -0.213702 21.7259
-0.609222 -1.0627 18.555
-0.45335 -0.512422 21.8631
-1.20043 -0.822137 20.5087
0.290988 0.154988 16.3426
0.599781 -0.226383 21.685
0.864227 0.0929141 17.5451
1.27446 0.603118 12.429
1.29256 -0.154802 21.1496
0.0817394 1.13752 2.16579
1.31858 -0.363574 17.1552
1.99944 0.362757 15.8435
1.42918 -0.368612 20.3889
2.19087 0.65273 8.08577
1.51695 -0.705833 20.016
1.62659 -0.00157052 15.11
-1.21401 0.770176 19.9611
-1.3562 2.04018 19.2
-0.714315 0.917927 20.1235
-0.823921 0.721058 19.4285
-1.7692 1.57271 20.3389
-1.4159 0.639402 21.0025
-1.98998 2.13125 20.6325
-0.881915 0.98741 20.9119
-1.85518 0.912089 21.5838
-0.77854 0.142158 21.7793
-1.56204 1.02555 22.6854
-0.520561 0.447991 21.6934
-0.370191 -0.0697921 22.1257
0.139583 -0.335899 21.7194
0.120668 -0.648406 21.7623
0.0310286 -0.239153 21.6186
0.359984 -0.696789 21.615
0.464172 -0.57102 21.3502
0.34225 -0.98854 21.2295
0.19605 -0.44229 21.3091
0.49774 -0.846786 21.3775
0.58902 -0.583834 20.9331
0.458437 -1.04589 20.1408
0.228674 -0.481659 21.0151
0.391169 -0.65147 20.5413
1.37821 -1.76897 18.5897
0.0333103 -2.10958 18.7326
0.0397918 -2.97882 16.1849
0.0195102 -0.749074 18.8964
0.0189229 -6.39557 21.955
0.469541 -0.794637 20.1861
0.015725 -1.49568 22.5056
-0.0106674 -0.189355 14.5815
-0.132467 0.119851 16.4208
0.0019981 -0.169107 21.1074
0.00593324 0.141983 13.5623
-0.100273 0.702686 14.8232
0.0128335 0.429037 19.9665
0.0675358 0.492228 10.4035
-0.0749013 1.31612 14.969
0.0515747 0.61256 18.8662
0.145204 -0.73917 -0.573886
0.140697 0.728434 10.0351
-0.372752 1.78499 16.1971
0.0356045 0.96192 18.8718
-0.0237972 0.281705 1.82241
0.0490135 1.36973 10.4781
3.03663 -0.464976 16.2886
0.0702543 3.73509 13.6485
0.0318603 -0.211873 17.8
-0.152118 1.04889 1.90862
0.0156333 0.199513 -0.167476
-0.0919987 -2.33836 -4.42031
-2.3946 0.701292 7.15339
0.120524 -1.72762 0.907433
0.0445265 -0.235797 3.42515
1.38275 1.95057 19.2624
0.0304063 1.5401 19.8718
0.0311176 1.34926 18.7032
0.0326452 3.58231 19.9807
1.98299 2.10468 20.6372
0.0078305 1.87731 20.7432
-0.00629762 4.6336 21.2467
1.55079 1.08854 22.7272
-0.00986188 1.01933 22.0156
-0.0140246 0.337803 22.5417
-0.0401929 -0.673904 21.9442
0.0091789 -0.271316 21.767
0.00423269 -0.732341 18.9792
-0.251179 -1.02404 21.0738
0.0277871 -0.588422 21.4886
0.017923 -1.15922 19.2908
-0.427462 -1.07787 20.1416
0.0205601 -0.637751 20.8178
0.0551322 -1.09714 20.0643
1.15863 -0.621841 19.8093
1.07529 -1.01951 19.6047
1.86993 -1.05978 18.9458
0.641116 -0.43915 19.4701
2.50897 -2.3993 20.3168
1.15933 -0.891647 21.4672
0.835192 -1.19057 21.7213
1.20357 -1.54288 21.1165
0.223456 -0.660704 21.5117
0.144982 -0.35618 21.712
-0.00376166 -0.207597 21.7982
-0.0107776 -0.162047 16.6018
-0.293839 0.120178 20.6501
-0.504654 0.127001 21.752
-0.422739 0.447343 21.6825
-0.575837 0.564625 15.4967
-0.864388 1.07978 19.3243
-0.964009 0.427372 21.3173
-0.730716 0.890255 21.2676
-1.17489 1.1883 16.1456
-1.24912 1.19211 20.0603
-1.14322 0.306768 20.5917
-0.923749 0.956948 20.5762
-1.4541 0.898906 17.9759
-1.00954 0.965805 20.3357
1.76955 -0.167759 19.5514
2.63016 0.841867 18.703
1.00547 -0.108932 19.0443
6.08435 -0.365957 20.0153
1.7292 -0.491556 21.5402
2.91684 -0.19692 21.6625
0.66132 -1.09035 18.8791
0.453077 -0.507539 21.89
1.19805 -0.810193 20.5301
-0.27757 0.18573 16.4075
-0.609886 -0.22356 21.7315
-0.906333 0.05638 17.5824
-1.32425 0.553048 12.1611
-1.37439 -0.15892 20.994
-1.35345 -0.415597 16.6262
-2.12719 0.341793 15.1784
-1.52453 -0.331097 20.3412
-1.49874 -0.793865 18.9371
-1.71623 0.0219602 14.5461
1.18919 0.737425 19.9937
0.717766 0.865495 20.142
0.828372 0.692927 19.4717
1.7519 1.5146 20.3504
1.4008 0.638349 21.0004
0.876612 0.971764 20.916
1.8506 0.934266 21.5851
0.782524 0.150399 21.7942
0.518437 0.463454 21.6944
0.377069 -0.0682748 22.1539
-0.131334 -0.359494 21.7456
-0.0101883 -0.253786 21.6329
-0.328147 -0.751587 21.6245
-0.458197 -0.641253 21.3081
-0.17108 -0.490873 21.3704
-0.460023 -0.891166 21.455
-0.593208 -0.615144 20.8343
-0.210398 -0.595621 20.8752
-0.366707 -0.735207 20.41
-1.40992 -1.11841 19.2684
-0.958539 -1.44432 22.1972
0.0844726 -0.243366 20.8811
0.594869 0.56828 20.0774
0.932468 1.04113 19.7541
1.16636 1.11486 20.3603
-2.60778 -0.294708 18.3075
-1.79301 -0.95398 20.9421
-0.127312 -0.447142 17.11
0.637504 0.564871 14.5888
1.40945 0.503117 14.1119
1.94569 0.315437 17.491
-1.39352 1.28008 19.6199
-1.83393 1.17263 20.9415
-1.15688 0.377572 22.1316
0.141913 -0.460334 21.9201
0.470973 -0.781162 21.3902
0.545876 -0.811247 20.9061
0.0377986 -2.64477 17.7823
-0.00278804 -0.844901 18.0129
-0.00348835 0.0235946 13.5803
0.0143533 0.4111 11.9491
0.142885 0.219421 10.2549
0.074213 1.38429 10.3675
0.0540224 -0.698557 13.2188
-0.115768 -0.808064 -2.78467
-0.0889422 -2.31507 -2.70799
0.041317 2.90558 18.7162
0.0177318 3.33866 20.111
-0.0230044 2.28813 23.1094
-0.00493464 -0.469781 20.7062
0.0142459 -0.866308 18.8611
0.0220406 -1.09888 19.5431
1.41393 -1.07478 19.3222
0.976533 -1.43086 22.1411
-0.076581 -0.250042 20.8966
-0.586954 0.577575 19.9779
-0.979092 1.13061 19.6764
-1.16674 1.16955 20.1923
2.58119 -0.279892 18.4052
1.83926 -0.938035 21.0626
0.120626 -0.446844 17.2908
-0.624633 0.619723 14.5236
-1.49588 0.483401 13.4599
-2.00178 0.238235 16.6652
1.37366 1.21993 19.6555
1.81385 1.16206 20.9368
1.17756 0.416267 22.1558
-0.13144 -0.493569 21.9626
-0.429259 -0.846626 21.3909
-0.486405 -0.886577 20.7725
-2.18358 -0.76466 1.56734
0.0228135 -0.821412 2.59882
-0.0407122 0.00237877 0.246228
0.00671803 0.0211428 0.0333155
-0.0564033 0.0526408 0.197122
-0.0326442 0.0420408 0.305612
-1.02632 0.322213 1.5081
-0.0108607 0.191434 0.498232
-0.0340718 0.00541238 0.102959
-0.0233811 0.0199109 -0.0121403
0.013609 0.0195524 -0.0377689
0.0130691 -0.000937056 0.107719
-0.0297353 -0.831671 2.53094
2.51064 -0.894985 1.82082
0.0468577 0.00332916 0.296301
0.0503973 0.042191 0.151263
0.00704342 0.00781458 0.00169846
0.0423337 0.0494478 0.327869
0.0123357 0.189487 0.489873
1.25606 0.389989 1.80416
0.0452346 0.00623599 0.132486
-0.0127811 0.010871 -0.0655205
0.0385154 0.0233735 -0.0182554
-0.0105468 -0.0177968 0.187897
0.00353926 -0.00228214 0.118756
0 0 0
-8.08231e-20 2.68828e-19 5.0942e-17
1.42964e-05 1.22225e-06 0.000231483
-0.0117487 0.0149086 0.165056
4.1809e-06 2.11338e-06 0.000367204
0 0 0
0 0 0
-0.072596 -0.0288447 0.101235
-0.0025244 -0.00441201 0.0863055
0 0 0
0 0 0
0.00248877 0.00345601 0.0112367
0.00779456 0.021455 0.100439
0 0 0
0.0222764 -0.00686475 0.187253
-0.00876952 -0.00629721 0.145432
-6.41452e-06 5.20453e-07 0.000100286
0 0 0
0 0 0
0.0069174 0.0134239 0.170062
0 0 0
-1.44921e-05 8.00584e-06 0.00136575
0 0 0
0.102115 -0.042144 0.135435
0 0 0
0.00185092 -0.000257087 0.145005
0 0 0
-0.0113409 0.0150331 0.0497798
-0.0156215 -0.00430918 0.132039
-0.00629588 0.0179482 0.0814416
0 0 0
-0.0124107 -0.019914 0.213365
-0.694125 -0.282917 0.334547
0.000988021 -0.000523533 0.031235
0 0 0
0 0 0
-2.22025e-06 -7.4515e-06 0.000402707
0.0052855 0.00300629 0.0303574
-0.0565287 0.0901598 -0.0262173
9.99487e-05 0.00106387 0.011704
0.0366411 -0.0760696 -0.0737304
0.000121149 0.000631726 0.00478746
5.45657e-05 0.000351619 0.00628222
0.0563354 2.25183 1.60203
-1.46338e-05 0.0167707 0.08621
-0.00133966 -0.00836179 0.0562654
-0.000665798 8.92515e-05 0.00129609
0 0 0
0 0 0
0.00769317 0.00967163 0.0652676
-0.00274557 0.00130054 -0.00315945
0.532109 -0.225197 0.258805
0 0 0
-2.18422e-07 -6.19732e-06 0.000328534
0 0 0
0.066015 0.0791482 -0.0257333
-0.00497792 0.00213042 0.0282928
2.74833e-05 0.000356394 0.00635466
5.10487e-05 0.00680425 0.0541972
0.000689481 9.51842e-05 0.00140245
0.00200476 -0.00840372 0.0631371
0.00261701 0.0012096 -0.00296414
-0.0116255 0.0124303 0.0953114
0 0 0
0.000163421 1.82645e-05 0.00413242
0 0 0
-0.00010603 0.00104574 0.0172772
-7.12314e-06 1.32661e-05 0.00200639
0 0 0
6.92128e-06 0.000138486 0.000943367
0.000376279 0.0120321 0.095405
-3.2658e-07 -6.68131e-07 -0.000147289
4.54985e-06 0.000300001 0.00628307
0.00384899 0.0304481 0.17522
-0.00696113 0.0257609 0.305841
0 0 0
-0.000137116 0.0409806 0.178847
5.10626e-05 0.000133415 0.010665
-0.00176685 -0.0924535 0.604666
-0.000193733 2.30189e-05 0.00527825
0 0 0
7.30683e-05 -0.000621981 0.00516779
0.000181591 0.00153904 0.0253524
-0.00020288 0.00372193 0.0246811
-0.000265415 0.00649083 0.0527598
0.00451979 0.0151288 0.180787
-0.00205015 0.019179 0.115333
-0.00453394 -0.0116253 0.160995
-0.0363671 -0.0309472 0.254949
0.000724183 0.00230306 0.193086
-0.004478 -0.0136024 0.0704876
0 0 0
0.00349368 0.0215675 0.125479
0 0 0
0.00152262 0.00676155 0.0368078
1.40864e-05 0.00213415 0.0300893
0.00244125 0.00920601 0.037946
0.0237561 0.0212989 0.164069
0.0110457 0.00216508 0.0651013
-0.00204652 -0.000605911 0.0211837
0.00193414 -0.000548444 0.0196198
0 0 0
0 0 0
0 0 0
-3.97977e-05 1.03435e-05 0.00072319