# vtk DataFile Version 2.0
tet_velo
ASCII
DATASET UNSTRUCTURED_GRID
POINTS 29498 float
-0.74256 0.115 -2.125
-0.725 0.205 2.01389
-0.730758 0.705 -1.985
-0.695 0.965 2.13206
0.74255 0.115 -2.125
0.725 0.205 2.01389
0.730754 0.705 -1.985
0.695 0.965 2.13199
-0.755182 0.126525 -0.74537
-0.776351 0.129502 0.63426
-0.840834 0.913662 -0.612647
-0.823451 0.994865 0.759707
0.755178 0.126522 -0.74537
0.776349 0.129501 0.63426
0.840832 0.913662 -0.61267
0.823448 0.994864 0.75966
-1.53485 -0.328294 -3.29164
-1.52987 -0.258254 -2.19085
-1.53943 -0.246325 -0.811032
-1.53675 -0.25465 0.570257
-1.49702 -0.210532 1.9502
-1.48857 -0.173102 3.05159
-1.49604 -0.139099 4.15186
-1.53189 0.0186886 -3.22426
-1.53132 0.110138 -2.12427
-1.55335 0.147269 -0.745865
-1.54355 0.146374 0.633197
-1.4758 0.18496 2.01174
-1.47539 0.221133 3.11302
-1.49092 0.255285 4.21353
-1.52925 0.68167 -3.08745
-1.53833 0.770605 -1.98716
-1.61067 0.925177 -0.613718
-1.58209 0.984065 0.759212
-1.47211 0.975842 2.13279
-1.47579 1.00873 3.23437
-1.49695 1.04776 4.33604
-1.53397 1.80845 -2.88772
-1.54494 1.91229 -1.78852
-1.57898 2.07177 -0.417446
-1.59167 2.18072 0.952061
-1.56893 2.21777 2.32321
-1.5504 2.23672 3.42256
-1.54376 2.26393 4.52344
-0.766633 -0.326868 -3.29211
-0.753822 -0.253589 -2.19154
-0.75835 -0.256395 -0.810947
-0.770419 -0.266652 0.571169
-0.748972 -0.203121 1.9518
-0.742283 -0.168988 3.05267
-0.746712 -0.138814 4.15248
-0.763973 0.0127305 -3.22441
-0.733255 0.225795 3.11391
-0.743938 0.255254 4.21399
-0.757798 0.652298 -3.08656
-0.731628 1.00498 3.2342
-0.749865 1.04508 4.33599
-0.750668 1.78872 -2.88684
-0.753143 1.89394 -1.78755
-0.785081 2.0672 -0.416866
-0.811782 2.18473 0.951974
-0.806753 2.21851 2.32268
-0.793266 2.23498 3.42204
-0.786859 2.26187 4.52306
0.74966 -0.326868 -3.29212
0.753392 -0.253589 -2.19155
0.765259 -0.256397 -0.81095
0.769032 -0.266653 0.571165
0.735147 -0.203122 1.95179
0.73754 -0.168989 3.05265
0.744368 -0.138814 4.15246
0.743133 0.0127303 -3.22441
0.729503 0.225795 3.11389
0.739399 0.255254 4.21396
0.74834 0.652298 -3.08656
0.717324 1.00498 3.23416
0.730969 1.04508 4.33596
0.803797 1.78872 -2.88685
0.816887 1.89394 -1.78756
0.81018 2.0672 -0.41689
0.768231 2.18473 0.951941
0.727353 2.21851 2.32265
0.721108 2.23498 3.422
0.725245 2.26187 4.52302
1.5178 -0.328295 -3.29165
1.52424 -0.258255 -2.19086
1.54238 -0.246327 -0.811048
1.54174 -0.254652 0.570235
1.49901 -0.210533 1.95017
1.49123 -0.173103 3.05155
1.49732 -0.139099 4.15181
1.5127 0.0186882 -3.22427
1.52336 0.110138 -2.12428
1.55173 0.147267 -0.745885
1.55058 0.146372 0.633167
1.4868 0.184959 2.0117
1.48018 0.221132 3.11298
1.49025 0.255284 4.21348
1.52241 0.68167 -3.08747
1.53739 0.770606 -1.98718
1.6108 0.925176 -0.613757
1.58495 0.984064 0.759144
1.4761 0.975842 2.1327
1.46864 1.00873 3.23429
1.48197 1.04776 4.33597
1.5796 1.80845 -2.88775
1.59559 1.91229 -1.78855
1.5984 2.07177 -0.417492
1.55809 2.18072 0.951998
1.5055 2.21777 2.32314
1.48816 2.23672 3.42249
1.48746 2.26393 4.52338
-0.724004 0.41 -2.04234
-5.00679e-06 0.111326 -2.12867
-0.753633 0.116 -1.43519
-0.74819 0.585 2.11116
0 0.204637 2.01425
-0.769806 0.148121 1.32408
-1.99676e-06 0.803015 -2.08301
-0.834539 0.858074 -1.29882
0 1.04115 2.20817
-0.794072 1.01478 1.44588
0.72401 0.41 -2.04236
0.753625 0.116 -1.43519
0.748218 0.585 2.11116
0.769802 0.148123 1.32408
0.834537 0.858075 -1.29884
0.794069 1.01478 1.44583
-0.765728 0.128052 -0.055555
-0.882861 0.520093 -0.679008
-2.17158e-06 0.126784 -0.74537
-0.885104 0.562183 0.696983
-1.1737e-06 0.128692 0.63426
-0.834346 0.956467 0.07353
-9.78191e-07 1.29066 -0.612658
-1.01856e-06 1.39553 0.759683
0.765725 0.12805 -0.055555
0.882859 0.520092 -0.67902
0.885107 0.562183 0.69696
0.834343 0.956466 0.073495
-0.870498 0.465047 -1.367
-0.884052 0.541138 0.00898752
-0.895012 0.573592 1.38498
-3.58918e-06 0.113777 -1.43519
-1.67264e-06 0.127689 -0.055555
-5.86852e-07 0.139948 1.32408
-3.50177e-06 0.41 -2.20901
0 0.585 2.31475
-1.48747e-06 1.03234 -1.29883
-9.98378e-07 1.42104 0.0735125
-5.09282e-07 1.24942 1.44585
0.870499 0.465046 -1.36701
0.884049 0.541137 0.00896999
0.895012 0.573591 1.38495
-1.13694 0.112569 -2.12463
-0.748191 -0.0692944 -2.15827
-0.753266 0.0638652 -2.6747
-1.1004 0.19498 2.01282
-0.736986 0.000939323 1.98285
-0.729128 0.215398 2.5639
-1.13454 0.737803 -1.98608
-0.744278 0.678649 -2.53578
-0.741951 1.29947 -1.88627
-1.08356 0.970421 2.13243
-0.713314 0.98499 2.68313
-0.750876 1.59176 2.22737
0.747971 -0.0692947 -2.15827
0.742841 0.0638651 -2.67471
1.13295 0.112569 -2.12464
0.730074 0.000939144 1.98284
0.727251 0.215397 2.56389
1.1059 0.19498 2.0128
0.739547 0.678649 -2.53578
0.773821 1.29947 -1.88628
1.13407 0.737803 -1.98609
0.706162 0.98499 2.68307
0.711177 1.59175 2.22732
1.08555 0.970421 2.13235
-1.15427 0.136897 -0.745618
-0.756766 -0.0649352 -0.778158
-1.15995 0.137938 0.633728
-0.773385 -0.068575 0.602715
-1.22575 0.919419 -0.613182
-0.812957 1.49043 -0.514757
-1.20277 0.989465 0.75946
-0.817616 1.5898 0.855841
0.760218 -0.0649372 -0.77816
1.15345 0.136895 -0.745627
0.77269 -0.068576 0.602713
1.16347 0.137936 0.633714
0.825506 1.49043 -0.51478
1.22582 0.919419 -0.613214
0.79584 1.5898 0.8558
1.2042 0.989464 0.759402
-1.53236 -0.293274 -2.74124
-1.53337 -0.154803 -3.25795
-1.15074 -0.327581 -3.29187
-1.53465 -0.252289 -1.50094
-1.53059 -0.0740577 -2.15756
-1.14185 -0.255921 -2.1912
-1.53809 -0.250487 -0.120387
-1.54639 -0.0495278 -0.778449
-1.14889 -0.25136 -0.810989
-1.51688 -0.232591 1.26023
-1.54015 -0.0541382 0.601727
-1.15358 -0.260651 0.570713
-1.4928 -0.191817 2.5009
-1.48641 -0.0127861 1.98097
-1.123 -0.206827 1.951
-1.4923 -0.1561 3.60172
-1.48198 0.0240154 3.08231
-1.11543 -0.171045 3.05213
-1.49348 0.058093 4.18269
-1.12137 -0.138956 4.15217
-1.5316 0.0644135 -2.67426
-1.53057 0.350179 -3.15585
-1.14793 0.0157095 -3.22433
-1.54234 0.128704 -1.43507
-1.53482 0.440372 -2.05572
-1.54845 0.146821 -0.0563343
-1.58201 0.536223 -0.679792
-1.50967 0.165667 1.32247
-1.56282 0.565219 0.696205
-1.47559 0.203046 2.56238
-1.47396 0.580401 2.07227
-1.48316 0.238209 3.66328
-1.47559 0.61493 3.1737
-1.10432 0.223464 3.11347
-1.49394 0.651523 4.27478
-1.11743 0.255269 4.21376
-1.53379 0.726138 -2.53731
-1.53161 1.24506 -2.98759
-1.14353 0.666984 -3.087
-1.5745 0.847891 -1.30044
-1.54164 1.34145 -1.88784
-1.59638 0.954621 0.0727471
-1.59483 1.49847 -0.515582
-1.5271 0.979954 1.446
-1.58688 1.58239 0.855637
-1.47395 0.992285 2.68358
-1.52052 1.59681 2.228
-1.48637 1.02824 3.7852
-1.51309 1.62272 3.32847
-1.10371 1.00685 3.23428
-1.52036 1.65584 4.42974
-1.12341 1.04642 4.33601
-1.53946 1.86037 -2.33812
-1.14232 1.79859 -2.88728
-1.56196 1.99203 -1.10298
-1.14904 1.90312 -1.78803
-1.58533 2.12625 0.267308
-1.18203 2.06949 -0.417156
-1.5803 2.19925 1.63764
-1.20173 2.18272 0.952018
-1.55966 2.22725 2.87289
-1.18784 2.21814 2.32295
-1.54708 2.25032 3.973
-1.17183 2.23585 3.4223
-1.16531 2.2629 4.52325
-0.760227 -0.290228 -2.74183
-0.765303 -0.157069 -3.25826
-0.0084862 -0.326868 -3.29211
-0.756086 -0.254992 -1.50125
-0.000214758 -0.253589 -2.19154
-0.764384 -0.261524 -0.119889
0.00345453 -0.256396 -0.810948
-0.759695 -0.234887 1.26148
-0.000693277 -0.266653 0.571167
-0.745628 -0.186055 2.50224
-0.00691243 -0.203122 1.9518
-0.744498 -0.153901 3.60257
-0.737769 0.0284035 3.08329
-0.0023715 -0.168988 3.05266
-0.745325 0.0582203 4.18323
-0.00117235 -0.138814 4.15247
-0.760885 0.332514 -3.15548
-0.01042 0.0127304 -3.22441
-0.738597 0.240525 3.66395
-0.732441 0.615388 3.17406
-0.00187605 0.225795 3.1139
-0.746902 0.650165 4.27499
-0.00226932 0.255254 4.21398
-0.754233 1.22051 -2.9867
-0.00472921 0.652298 -3.08656
-0.740747 1.02503 3.7851
-0.762447 1.61998 3.32812
-0.00715186 1.00498 3.23418
-0.768362 1.65347 4.42952
-0.00944813 1.04508 4.33597
-0.751906 1.84133 -2.33719
0.0265645 1.78872 -2.88684
-0.769112 1.98057 -1.10221
0.0318719 1.89394 -1.78756
-0.798431 2.12597 0.267554
0.0125494 2.0672 -0.416878
-0.809267 2.20162 1.63733
-0.0217751 2.18473 0.951958
-0.800009 2.22674 2.87236
-0.0396997 2.21851 2.32266
-0.790062 2.24842 3.97255
-0.036079 2.23498 3.42202
-0.0308072 2.26187 4.52304
0.751526 -0.290229 -2.74183
0.746396 -0.157069 -3.25826
1.13373 -0.327581 -3.29188
0.759326 -0.254993 -1.50125
1.13882 -0.255922 -2.19121
0.767145 -0.261525 -0.119893
1.15382 -0.251362 -0.810999
0.75209 -0.234887 1.26148
1.15539 -0.260653 0.5707
0.736344 -0.186055 2.50222
1.11708 -0.206828 1.95098
0.740954 -0.153901 3.60255
0.733522 0.0284032 3.08327
1.11439 -0.171046 3.0521
0.741884 0.05822 4.18321
1.12084 -0.138957 4.15213
0.745736 0.332514 -3.15549
1.12792 0.0157092 -3.22434
0.734451 0.240524 3.66393
0.723413 0.615388 3.17402
1.10484 0.223464 3.11343
0.735184 0.650165 4.27496
1.11483 0.255269 4.21372
0.776069 1.22051 -2.98671
1.13538 0.666984 -3.08701
0.724147 1.02503 3.78506
0.719216 1.61998 3.32808
1.09298 1.00685 3.23422
0.728107 1.65347 4.42949
1.10647 1.04642 4.33596
0.810342 1.84133 -2.33721
1.1917 1.79859 -2.8873
0.813534 1.98057 -1.10223
1.20624 1.90312 -1.78806
0.789206 2.12597 0.267525
1.20429 2.06949 -0.417191
0.747792 2.20162 1.63729
1.16316 2.18272 0.951969
0.724231 2.22674 2.87232
1.11643 2.21814 2.32289
0.723176 2.24842 3.97251
1.10464 2.23585 3.42225
1.10635 2.2629 4.5232
1.52102 -0.293275 -2.74126
1.51525 -0.154803 -3.25796
1.53331 -0.252291 -1.50096
1.5238 -0.0740586 -2.15757
1.54206 -0.25049 -0.120406
1.54705 -0.0495301 -0.778466
1.52038 -0.232593 1.2602
1.54616 -0.0541401 0.601701
1.49512 -0.191818 2.50086
1.49291 -0.0127871 1.98094
1.49427 -0.156101 3.60168
1.4857 0.0240148 3.08226
1.49378 0.0580922 4.18264
1.51803 0.064413 -2.67428
1.51756 0.350179 -3.15587
1.53754 0.128702 -1.43508
1.53037 0.440372 -2.05573
1.55116 0.146819 -0.0563587
1.58126 0.536222 -0.679821
1.51869 0.165665 1.32243
1.56777 0.565218 0.696156
1.48349 0.203046 2.56234
1.48145 0.580401 2.0722
1.48522 0.238208 3.66323
1.47441 0.614929 3.17363
1.48611 0.651522 4.27473
1.5299 0.726138 -2.53732
1.551 1.24506 -2.98761
1.57409 0.847891 -1.30047
1.56649 1.34145 -1.88787
[...]
POINT_DATA 29498
VECTORS point_vectors float
-5.93814 -8.94671 15.0327
-0.0304446 0.318352 1.26765
-1.18277 0.346545 2.29781
0.0280014 -0.0140786 0.148941
5.94267 -8.9398 15.0353
0.0301372 0.319112 1.27129
1.18333 0.345514 2.29828
-0.0281203 -0.0158497 0.150154
-3.24801e-05 0.00016512 0.0113864
-0.0110685 -0.00139061 0.288942
0.00012083 0.000655639 0.00720072
0 0 0
2.84967e-05 0.000164313 0.0113876
0.010968 -0.00205869 0.287597
-0.000122865 0.000667947 0.00740289
0 0 0
-0.561619 -0.315769 19.8838
-1.21132 -0.785896 20.5279
-0.435296 -0.44156 21.5116
0.0877377 -0.0717158 21.6084
0.553877 0.258056 21.5505
0.761433 0.31565 21.324
0.74255 0.327069 20.623
-0.767177 -0.267199 19.7794
-1.75154 -0.673236 20.4947
-0.671972 -0.559928 21.6173
0.0170041 -0.211111 21.7153
0.772855 0.127454 21.6266
1.05472 0.185991 21.2571
0.965942 0.138283 20.7939
-0.943379 0.0600653 19.6356
-2.1548 0.123153 20.5195
-1.13437 -0.245971 21.6269
-0.153619 -0.234037 21.8428
0.788685 -0.332759 21.5779
1.05825 -0.392546 21.3067
0.816439 -0.352665 21.0357
-0.647966 0.449312 20.0016
-0.9817 0.682715 20.5512
-0.750748 0.403742 21.3632
-0.115205 -0.0579151 21.6253
0.232224 -0.341501 21.3693
0.326435 -0.362985 21.1764
0.299279 -0.373962 20.7995
-0.547613 -0.646484 19.3858
-1.65768 -3.03526 20.687
-0.182135 -0.325855 22.0826
0.0705769 0.147034 21.7393
0.254654 1.00866 20.7064
0.450162 1.29234 19.999
0.387995 1.24042 20.3492
-0.803283 -0.591908 18.9684
0.643656 1.75321 10.9725
1.53388 1.11379 12.7248
-1.19518 0.21482 18.3765
1.65649 -0.0911212 9.71027
1.51173 -0.421163 15.4458
-0.570863 0.938932 19.5795
-1.05473 1.71551 20.2726
-0.958765 1.32087 21.6761
-0.163795 -0.0293231 21.9756
0.146779 -0.553256 21.5345
0.264645 -0.603866 21.0238
0.131089 -0.463685 20.8555
0.539624 -0.651053 19.3826
1.66498 -3.02766 20.7119
0.186584 -0.32551 22.0795
-0.067733 0.14957 21.7459
-0.229662 1.01412 20.6567
-0.437484 1.27542 19.9467
-0.385988 1.24273 20.3504
0.787827 -0.60533 18.9386
-0.624559 1.74813 10.8901
-1.52054 1.13822 12.7313
1.18287 0.219029 18.3569
-1.62362 -0.111731 9.35472
-1.521 -0.437824 14.9885
0.589076 0.909667 19.6044
1.08317 1.63619 20.2952
0.96454 1.27961 21.6681
0.158185 -0.0292184 21.9948
-0.121497 -0.573243 21.5452
-0.254 -0.630687 21.0144
-0.121723 -0.480905 20.6614
0.564533 -0.319039 19.8678
1.208 -0.795094 20.5405
0.454775 -0.447948 21.5092
-0.0742798 -0.0840605 21.6094
-0.550363 0.252495 21.5477
-0.75756 0.322398 21.3363
-0.742521 0.32534 20.6075
0.779563 -0.268038 19.7592
1.77833 -0.695231 20.4992
0.674727 -0.563722 21.6174
-0.0168343 -0.211749 21.7025
-0.767084 0.121035 21.6222
-1.05117 0.187012 21.267
-0.971801 0.140358 20.7939
0.940074 0.0609815 19.6293
2.1568 0.118412 20.5161
1.13647 -0.249448 21.6321
0.151886 -0.231557 21.8441
-0.783499 -0.327563 21.5793
-1.06167 -0.388914 21.3281
-0.848696 -0.351314 20.9746
0.643626 0.436359 20.0245
0.9431 0.635194 20.5655
0.741478 0.393869 21.3634
0.11162 -0.07008 21.6229
-0.22585 -0.352786 21.3929
-0.318156 -0.387523 21.1514
-0.268963 -0.374766 20.8664
0 0 0
-3.63485e-05 -0.0998015 0.581227
-0.00238714 0.00336599 0.324399
0.00418405 0.0403104 0.0218138
2.16834e-05 0.000448426 0.00270082
-0.0435526 0.043639 0.569841
1.1616e-05 0.283651 0.53299
-0.386424 -0.268209 1.18928
0.001388 0.0963464 -0.05706
0 0 0
0 0 0
0.00234295 0.00336201 0.324733
-0.00495719 0.0401376 0.0228824
0.0436311 0.0437645 0.570142
0.389544 -0.270813 1.19802
0 0 0
-0.000171788 8.44639e-05 0.0151227
0 0 0
0 0 0
-2.31163e-05 0.0018427 0.0129191
2.51254e-07 2.08749e-06 0.000754587
0 0 0
0.000107935 0.0132419 0.0351326
0 0 0
0.000175485 8.48527e-05 0.0151284
0 0 0
2.35379e-05 0.00185716 0.0130016
0 0 0
0 0 0
-3.59277e-06 0.000168585 0.00147261
0.00441128 0.0153123 0.142503
-5.80526e-07 -3.99269e-07 -1.67704e-05
1.77894e-07 4.06145e-08 2.27723e-05
0 0 0
-0.00103641 -0.288127 0.0653947
0.000369393 0.0258962 -0.000949637
0.00038122 0.00720533 0.0205386
-2.56849e-06 0.00108474 0.0156695
1.50741e-05 0.00176261 -0.00278983
0 0 0
3.75955e-06 0.000176013 0.00153283
-0.00442287 0.0153733 0.142686
-3.26822 -1.91626 20.4289
-2.85539 -5.00225 20.8977
-2.1544 -1.87609 17.9096
1.14471 0.834668 18.4373
0.0263427 1.27407 14.6049
0.0769524 1.18495 7.35794
-4.23101 0.689023 20.3737
-3.51214 1.34884 16.4929
-2.4901 2.87893 19.876
1.32371 -0.0330771 18.2499
0.72269 0.314141 5.178
0.540014 -0.981181 20.4282
2.85744 -4.99912 20.9031
2.15957 -1.9017 17.8614
3.29844 -1.94326 20.4247
-0.00524265 1.26345 14.4777
-0.0711864 1.18151 7.31035
-1.1436 0.812214 18.5628
3.51588 1.36909 16.4512
2.51051 2.76689 19.9064
4.23408 0.692709 20.376
-0.694015 0.304416 4.98835
-0.526863 -1.00626 20.3069
-1.31459 -0.0489309 18.2506
-0.364875 -1.01408 21.4974
0.0942692 0.0761965 17.1164
0.164346 -0.126268 20.206
0.0801582 0.242577 16.7997
-1.70769 -0.724153 22.0398
-3.091 1.81883 22.1906
-0.130219 -0.301726 21.3109
-0.150015 -0.137528 21.8104
-0.0912677 0.0745158 17.1794
0.366574 -1.01528 21.472
-0.0763575 0.244109 16.7938
-0.160698 -0.133792 20.2428
3.05487 1.75028 22.1803
1.70804 -0.722766 22.041
0.0954417 -0.133046 21.5543
0.133558 -0.30363 21.3355
-0.92639 -0.540624 20.0391
-0.661052 -0.300345 19.8266
-0.602164 -0.464018 19.6654
-0.873657 -0.691072 21.2349
-1.47193 -0.762611 20.5332
-1.62511 -1.59265 20.5354
-0.123213 -0.231826 21.5903
-0.57349 -0.537997 21.5576
-0.225987 -0.56361 21.7193
0.295414 0.0969148 21.6874
0.0398375 -0.159775 21.6327
0.158003 -0.0431204 21.7342
0.711882 0.338277 21.3772
0.649507 0.211865 21.5624
0.63811 0.614491 21.5581
0.778472 0.300443 21.2093
0.933959 0.324375 21.3024
0.868027 0.860287 20.9642
0.86138 0.266231 20.6655
0.823309 0.789757 21.1628
-1.29098 -0.476242 19.9049
-0.886582 -0.116311 19.6494
-0.851753 -0.435199 19.4054
-1.28271 -0.703322 21.3921
-2.09071 -0.325752 20.5261
-0.277283 -0.3792 21.664
-0.928568 -0.47031 21.6318
0.349826 -0.0357336 21.8191
-0.0747203 -0.246816 21.832
0.947509 0.191137 21.3835
0.879154 -0.102429 21.5894
1.11247 0.151282 21.3493
1.16739 -0.107399 21.2577
1.4348 0.876237 19.2675
1.07329 -0.211579 20.8973
1.2364 0.729015 20.5685
-1.6419 0.135617 19.807
-0.852493 0.370113 19.7705
-1.15552 0.124893 19.1268
-1.71578 -0.115445 21.3134
-1.55547 0.631692 20.4998
-0.637792 -0.265017 21.8082
-1.11993 0.235735 21.5068
0.338794 -0.249332 21.8264
-0.178473 -0.125804 21.7824
0.950931 -0.371703 21.4099
0.439557 -0.426439 21.4815
0.991216 -0.430352 21.087
0.5934 -0.4929 21.0509
1.49196 -0.426812 19.6679
0.51058 -0.428252 20.9579
1.42925 -0.447628 19.8009
-0.839438 0.637735 20.2224
-0.675706 0.686357 19.8011
-0.952172 0.594803 21.0296
-1.13048 1.11471 20.4505
-0.448796 0.174839 21.5916
-0.942371 0.749854 21.5336
0.0898221 -0.224674 21.509
-0.155157 -0.0377525 21.7702
0.30098 -0.345927 21.2693
0.224898 -0.438896 21.4303
0.400838 -0.416141 20.749
0.324325 -0.547845 21.1509
0.240755 -0.466128 21.0199
-1.12436 -1.57402 19.2808
-0.689161 -0.654472 19.1598
-0.00570828 -0.861332 19.1065
-0.641308 -1.22442 22.2133
-0.0040178 -4.66492 21.1625
-0.0208569 -0.0401585 21.8161
-0.00411376 -0.562185 21.8132
0.167732 0.478123 21.3306
-0.00104171 -0.0778879 20.0939
0.301992 1.14448 20.2379
-0.000628367 0.578679 17.441
0.691534 1.35516 19.6327
0.416394 1.68983 16.7385
-0.00983384 0.764253 15.628
0.585033 1.35306 17.4033
0.00764687 1.40499 14.3222
-1.08474 -0.297282 18.5109
-0.0177746 -0.89083 18.3403
1.13808 1.49998 11.7649
1.05001 0.968897 5.5023
-0.011992 -0.869363 -1.499
1.97883 0.608895 11.5054
0.0116458 0.0698193 5.70175
-0.946349 0.95868 18.9056
-0.00585666 0.392831 17.4202
1.65312 -0.556997 12.0172
0.772082 -1.02405 19.8035
0.0285747 -0.607208 -0.621957
0.514577 -0.94173 19.752
0.00517794 -2.09634 2.3032
-0.849656 1.41895 19.8106
0.0295153 1.18018 19.3529
-1.15533 1.71859 20.9547
0.0647431 2.36374 20.0893
-0.544284 0.59469 22.0568
0.0123617 2.1196 21.7802
0.0359609 -0.368455 21.7616
-0.00622532 0.0561598 22.1484
0.231235 -0.645635 21.4166
0.00876979 -0.59265 21.5079
0.201609 -0.665981 20.7851
0.0138881 -0.781973 21.1472
-0.00718684 -0.641762 20.9982
1.11836 -1.58226 19.2816
0.674439 -0.662 19.14
0.598113 -0.47589 19.6565
0.649991 -1.22183 22.2095
1.63769 -1.614 20.5327
0.0212306 -0.0349831 21.8218
0.238006 -0.571336 21.7182
-0.157773 0.480934 21.3003
-0.154687 -0.0474151 21.7338
-0.283682 1.14874 20.1941
-0.635847 0.624898 21.5548
-0.677089 1.35987 19.5943
-0.403487 1.686 16.6913
-0.87732 0.848491 20.9689
-0.571752 1.35074 17.4078
-0.814697 0.786112 21.1558
1.06741 -0.293825 18.4775
0.862308 -0.455588 19.3835
-1.13806 1.51355 11.7373
-1.01599 0.960185 5.29558
-1.43812 0.876377 19.269
-1.99195 0.634242 11.179
-1.23993 0.722642 20.5213
0.956457 0.93632 18.9368
1.15642 0.124829 19.1118
-1.65204 -0.575981 11.5792
-0.701165 -1.09898 19.7122
-1.52011 -0.420974 19.5666
-0.514177 -0.972502 19.6694
-1.43378 -0.460517 19.7388
0.877978 1.37984 19.8312
0.687832 0.652252 19.8312
1.1665 1.64368 20.9611
1.11962 1.03998 20.4763
0.54384 0.603406 22.0641
0.930435 0.72168 21.5247
-0.0329506 -0.381202 21.7801
0.15877 -0.0378593 21.789
-0.197725 -0.67919 21.4357
-0.202219 -0.460281 21.4634
-0.180748 -0.693427 20.8907
-0.316312 -0.575246 21.1457
-0.222548 -0.466415 21.0134
0.919461 -0.547217 20.0306
0.670664 -0.302038 19.8092
0.890493 -0.691596 21.2446
1.48184 -0.777192 20.5471
0.142186 -0.24319 21.5875
0.579369 -0.542888 21.556
-0.291244 0.0943922 21.682
-0.0359925 -0.165773 21.6201
-0.715531 0.334944 21.3694
-0.642081 0.206144 21.5565
-0.77039 0.314854 21.2055
-0.933264 0.328884 21.3287
-0.869428 0.263657 20.6611
1.30946 -0.484878 19.8898
0.886067 -0.119428 19.6393
1.2894 -0.713065 21.3968
2.10849 -0.32828 20.5246
0.274853 -0.380881 21.6601
0.925607 -0.473443 21.6338
-0.343845 -0.0366154 21.8134
0.0760273 -0.247737 21.822
-0.937235 0.190245 21.3886
-0.872974 -0.101942 21.5948
-1.10961 0.15724 21.3447
-1.16929 -0.105793 21.247
-1.09274 -0.206276 20.8731
1.65083 0.13549 19.7996
0.845288 0.356721 19.7885
1.7174 -0.116604 21.3139
1.51518 0.610618 20.5051
0.638409 -0.263938 21.8084
1.11181 0.230669 21.5083
-0.337347 -0.249002 21.823
0.181822 -0.126048 21.7904
-0.953453 -0.376243 21.4
-0.446164 -0.447919 21.521
-0.997167 -0.436823 21.0574
-0.604276 -0.513083 21.0747
-0.487354 -0.436371 20.9764
0.819546 0.598786 20.2458
0.923582 0.567282 21.0271
0.45356 0.173654 21.5943
-0.0949951 -0.241414 21.5411
-0.294974 -0.366522 21.2739
-0.369627 -0.45259 20.8091
-1.12758 -0.531571 19.9757
-1.53529 -1.82755 18.7044
-1.12367 -0.959455 19.7214
-1.81867 -0.955179 19.2498
-0.73807 -0.466356 19.5105
-2.32701 -1.86116 20.5058
-1.10191 -0.701662 21.3116
-0.261057 -0.698424 20.1175
-0.848243 -1.12276 21.6715
-1.4454 -1.63419 22.2136
-0.217721 -0.769231 21.8317
-0.203721 -0.340011 21.6115
0.0848092 0.177456 16.8665
0.0258516 -0.263929 21.6871
-0.0136425 -0.503086 20.5951
0.216488 -0.11751 21.4585
0.292465 0.0178163 21.7354
0.0684562 0.56741 15.5342
0.367387 0.227755 21.7624
0.480558 0.329638 19.2891
0.906277 0.766801 20.7245
0.815802 0.294939 21.4486
0.141442 1.36929 15.3845
0.750256 0.734015 21.3279
1.21202 0.835015 18.6132
1.1701 0.889441 20.7413
0.986447 0.225794 21.2262
0.751203 1.54989 16.7409
0.964986 0.963833 20.9347
1.57031 0.799839 19.1732
0.940486 0.754215 21.4002
-1.57672 -0.205896 19.815
-3.34505 -0.782339 16.438
-2.59889 0.454975 18.8889
-1.08174 -0.189941 19.1632
-4.70253 -0.734785 20.36
-1.60351 -0.452767 21.4006
-2.75427 -0.368849 21.7939
-1.00887 -0.945516 21.6112
-0.444845 -0.383991 21.7546
-0.871376 -0.645665 21.8714
0.0113589 -0.149544 19.8348
0.3698 -0.142293 21.883
0.712577 -0.00512795 19.979
1.22484 0.444587 16.4321
1.06695 -0.0899237 21.3779
-0.0628093 1.0006 2.74958
1.40583 -0.252933 19.307
1.70532 0.280252 17.8527
1.15881 -0.124669 21.6272
1.68843 0.837016 8.58507
1.58455 -0.484696 19.9893
1.64208 0.26344 18.9206
-1.27712 0.581627 20.0088
-1.77099 2.08987 18.8864
-0.934553 0.974188 20.0353
-0.961369 0.599443 19.4143
-2.21371 1.40348 20.3
-1.46787 0.448539 21.1003
-2.98822 2.52981 20.7868
-1.15875 1.04611 21.0211
-1.81947 0.541788 21.8105
-0.649169 0.0425018 21.7526
-1.5016 0.647451 22.2622
-0.528336 0.329139 21.782
-0.228863 -0.140869 22.1044
0.195988 -0.290816 21.6582
0.45215 -0.726809 20.7519
0.100824 -0.308942 21.6715
0.512972 -0.698461 21.5924
0.546596 -0.504802 21.3539
0.619546 -1.06285 20.5547
0.279551 -0.479153 21.222
0.644849 -0.851096 21.2769
0.611076 -0.559886 20.9607
0.570097 -1.14939 19.7992
0.222037 -0.425633 21.107
0.476569 -0.630507 20.5589
1.52883 -1.84604 18.6967
-0.0108809 -2.44789 18.6286
-0.0254817 -3.235 15.9354
-0.0113315 -0.895363 18.7168
-0.00087274 -7.35729 22.6292
0.265977 -0.700692 20.1516
-0.00409883 -1.71859 22.8459
-0.00141718 -0.0795079 10.4058
-0.0802083 0.179752 16.8926
-0.00312697 -0.252028 20.6124
-0.00106638 0.0235436 10.6184
-0.0611572 0.566438 15.485
0.0004268 0.224895 18.7644
0.000488884 0.462699 8.33354
-0.127611 1.36694 15.3065
0.00127557 0.482302 16.71
0.00982015 -0.71941 -1.06178
-0.00865382 0.354264 8.29965
-0.744876 1.56818 16.7153
0.0151139 1.02254 14.0413
0.000256801 -0.853458 1.64156
0.0183154 1.52489 10.7754
3.35086 -0.786312 16.3858
-0.0139195 2.95465 13.1408
-0.0123633 -0.463954 17.6574
0.0842855 0.998001 2.62314
0.00831293 0.216779 -0.0993807
0.0028057 -1.72089 -4.40119
-1.68566 0.84607 8.34222
0.0244019 -1.83382 -0.0113871
0.0152534 -1.7916 0.124843
1.78792 2.00166 18.9508
0.0462073 1.89924 19.5866
0.0186844 1.37134 18.3182
0.0607968 4.50371 19.3593
2.98861 2.40481 20.8234
0.0565536 2.54137 20.8457
0.0248289 4.85821 21.9039
1.50555 0.658052 22.2436
-0.0027463 1.00048 22.3361
-0.00932374 0.0714806 20.643
-0.458145 -0.749923 20.6349
0.0044981 -0.387906 21.8484
0.000700619 -0.732231 16.3227
-0.584657 -1.08668 20.4802
0.0157094 -0.742131 21.3797
0.00388148 -1.21504 17.2092
-0.581138 -1.17051 19.6839
0.0141542 -0.772821 20.8342
0.0260127 -1.16967 19.0337
1.1301 -0.541388 19.9669
1.13096 -0.97716 19.7143
1.84178 -0.994182 19.2229
0.743358 -0.481206 19.5
2.34385 -1.88399 20.5074
1.107 -0.711738 21.3159
0.848168 -1.13153 21.6726
1.44763 -1.6439 22.2162
0.228364 -0.772757 21.8276
0.209496 -0.350029 21.6041
-0.0160517 -0.270317 21.6859
0.017035 -0.509351 20.6229
-0.209213 -0.121628 21.4632
-0.28385 0.0162158 21.7275
-0.366642 0.229347 21.7603
-0.482451 0.314796 19.3916
-0.903332 0.767732 20.7145
-0.809746 0.298058 21.452
-0.750996 0.737185 21.3266
-1.21471 0.82612 18.6635
-1.17202 0.895416 20.7409
-0.976051 0.241818 21.2059
-0.974913 0.958198 20.9229
-1.57771 0.81054 19.1617
-0.93931 0.747715 21.411
1.59064 -0.211728 19.7981
2.60924 0.462202 18.8733
1.08443 -0.192144 19.14
4.73337 -0.735409 20.3509
1.61048 -0.454099 21.4017
2.75658 -0.366908 21.7948
1.00752 -0.948785 21.605
0.440872 -0.384299 21.7556
0.873062 -0.644045 21.8796
-0.0114494 -0.159986 19.9178
-0.36734 -0.141286 21.8828
-0.705009 -0.0151639 20.0366
-1.23095 0.424745 16.5556
-1.06627 -0.0946119 21.3822
-1.41469 -0.248387 19.2301
-1.7186 0.297638 17.7166
-1.17776 -0.129905 21.6015
-1.61471 -0.475462 19.8944
-1.65073 0.265964 18.7544
1.25513 0.564164 20.0295
0.942469 0.905253 20.0668
0.963847 0.588589 19.4365
2.16035 1.32265 20.3149
1.44166 0.442993 21.0979
1.1498 0.990402 21.0206
1.79209 0.520503 21.8013
0.653164 0.0433668 21.7552
0.531208 0.335202 21.7859
0.231576 -0.143294 22.1252
-0.204028 -0.29929 21.6692
-0.0979809 -0.317755 21.6801
-0.513175 -0.733811 21.6149
-0.555157 -0.53552 21.306
-0.267097 -0.511687 21.2569
-0.656897 -0.880165 21.345
-0.656605 -0.569403 20.9854
-0.221529 -0.463854 21.1086
-0.474696 -0.662637 20.4631
-1.45713 -1.01614 19.4903
-1.01716 -1.34265 21.8983
0.0677557 -0.39313 21.5929
0.485174 0.253459 21.2637
1.00348 0.80812 20.6625
1.25724 1.05251 20.6604
-2.53535 -0.398401 18.8768
-2.35082 -1.00707 22.3417
-0.363443 -0.578729 20.4894
0.528948 0.284218 18.6062
1.38426 0.344772 17.4422
1.78244 0.276495 17.8753
-1.67042 1.10907 19.5667
-2.23865 0.999704 21.1401
-0.997692 0.16448 22.1288
0.275658 -0.464619 21.878
0.60866 -0.786721 21.3639
0.758425 -0.797436 20.7681
-0.0135559 -2.9966 17.6113
0.000272834 -0.618726 13.8419
-0.00161855 -0.02354 10.2456
0.000736658 0.196019 9.74349
0.000787061 0.0122418 7.84131
0.0245459 0.841716 8.51895
-0.0238873 -1.20613 12.7781
-0.00887745 -0.583894 -2.85352
0.0267218 -2.43868 -2.4887
0.0488544 3.32674 18.1051
0.0521301 4.76113 20.0729
-0.00453619 1.91109 22.1009
-0.00325632 -0.557908 18.2588
-0.000814544 -0.861985 16.4457
0.00331791 -1.18573 17.6479
1.46878 -1.03831 19.4777
1.02465 -1.35014 21.8973
-0.0584488 -0.397022 21.5937
-0.480457 0.251378 21.2609
-1.00124 0.814061 20.6517
-1.26682 1.06369 20.6375
2.55493 -0.406286 18.8383
2.35131 -1.01285 22.3445
0.365085 -0.581558 20.5123
-0.532116 0.269883 18.7221
-1.38965 0.347619 17.4276
-1.79363 0.285303 17.7196
1.65581 1.0722 19.603
2.19816 0.951825 21.1449
1.00201 0.165933 22.1329
-0.284448 -0.484762 21.8845
-0.615747 -0.821072 21.3665
-0.730412 -0.835892 20.806
-2.79939 -1.00368 2.82123
-0.00851987 -0.12139 0.693382
-0.00094916 0.00512883 0.520475
0.0262232 0.0140521 0.0539392
-0.00765059 0.00442525 0.0204522
-0.0668864 0.111739 0.831229
-1.17816 0.186356 1.64516
-0.0913085 0.377909 0.614295
-0.141507 -0.00240125 0.379151
0.00497715 0.00422466 0.00750156
-0.0066746 0.0524565 -0.0227132
0 0 0
0.00906743 -0.12178 0.69707
2.79432 -0.992021 2.82903
0.00100651 0.00517529 0.520763
0.00771853 0.0044567 0.0205982
-0.0265819 0.01411 0.0545127
0.06673 0.112339 0.832384
0.0893948 0.369952 0.600023
1.09202 0.176286 1.52046
0.141554 -0.00266733 0.380447
0.00777685 0.0515483 -0.022522
-0.00506409 0.00420571 0.00764725
0 0 0
0.00646654 0.00406424 0.313677
-1.62584e-05 0.0004094 0.0702045
0 0 0
0.000726785 4.30745e-05 0.00658122
0.00285119 0.00543461 0.181495
-0.0022195 0.00159584 0.094183
0 0 0
0.000103861 1.00792e-05 0.00298426
-0.0260845 -0.0179709 0.218223
0 0 0
0 0 0
-0.0127443 0.0240298 0.0623622
0 0 0
2.09539e-05 0.000726199 0.00338023
0 0 0
0.00706052 -0.00396568 0.0356078
-0.00642254 0.00407493 0.313948
-0.000726175 4.33218e-05 0.00659729
3.94305e-05 0.000411285 0.0701853
0 0 0
-0.00272503 0.00551479 0.18112
-0.000105128 1.02972e-05 0.00304097
0.00222056 0.00159471 0.0941383
0 0 0
0.0262258 -0.0180717 0.218606
0.0183844 0.0237655 0.0658979
0 0 0
0 0 0
0 0 0
-0.00734043 -0.00412605 0.0370689
-2.05761e-05 0.000720502 0.00335202
0 0 0
-0.00411763 -0.00473332 0.0410719
0 0 0
6.99615e-07 1.9166e-06 1.85514e-06
0 0 0
0 0 0
0.00013948 8.03155e-06 0.000683717
0.00698606 0.00331142 0.0444383
-0.00980882 0.00564419 -0.00163562
1.97602e-05 0.00164669 0.0212347
0 0 0
0.00249566 0.0350288 0.414593
0 0 0
-0.00101006 0.611095 0.378631
-2.76026e-21 1.88964e-17 6.91104e-17
0 0 0
0 0 0
0.00024496 0.0238216 -0.00539194
0 0 0
0.00147492 0.00304064 0.0247482
-0.000294814 -0.000752683 0.00225667
0 0 0
0.00782746 -0.00898682 0.0778711
-0.000134298 7.78465e-06 0.000662791
0 0 0
0.00966773 0.0055768 -0.00160932
-0.00707944 0.00335933 0.0450941
0 0 0
-0.00250272 0.0352367 0.41543
0 0 0
0 0 0
0.000297517 -0.000751984 0.00225477
-0.00231406 0.00477049 0.0386895
0 0 0
3.70815e-06 2.0167e-07 6.77706e-05
0 0 0
0 0 0
-1.88875e-06 0.000349231 0.0155843
9.21169e-07 -3.14202e-09 -7.59387e-07
-1.51385e-05 0.000910964 0.00678814
-0.0018788 0.0128818 0.0966552
-1.30117e-08 -4.25734e-09 -2.11618e-06
7.20553e-07 0.000122135 0.010274
9.98263e-08 1.01165e-05 7.00198e-05
0.0398759 0.0274979 0.614372
0 0 0
9.79738e-06 0.0179776 0.121158
-1.34936e-07 -1.7467e-05 0.00278855
2.64714e-06 -0.00121606 0.00712331
-5.22263e-06 2.86368e-07 9.58607e-05
0 0 0
0 0 0
0 0 0
1.53091e-05 0.000917052 0.00681769
0.00187877 0.0128306 0.0963004
-0.0397506 0.0276522 0.616909
-1.65737e-07 1.71903e-05 0.000118871
0 0 0
-0.0145343 -0.0166929 0.110014
-0.000180627 0.000110099 0.0164499
-0.000365338 -0.000423785 0.00964499
0 0 0
0 0 0
0 0 0
0 0 0
-0.00154227 0.00387425 0.0375776
4.7191e-07 2.4952e-06 1.31812e-05
0.0042895 0.00255672 0.027001
0.000578183 0.000246571 0.00352977
7.076e-05 2.09377e-05 0.000334001
-7.0135e-05 2.1156e-05 0.000337716
0.00335004 0.000531863 0.0275362
-0.0033391 0.000533137 0.0275743
0.000139151 8.15916e-06 0.0018038
-0.000139239 8.23582e-06 0.00181251
6.54008e-05 4.92982e-06 0.00152313