# vtk DataFile Version 2.0
tri_press
ASCII
DATASET UNSTRUCTURED_GRID
POINTS 3682 float
-0.74256 0.115 -2.125
-0.725 0.205 2.01389
-0.730758 0.705 -1.985
-0.695 0.965 2.13206
0.74255 0.115 -2.125
0.725 0.205 2.01389
0.730754 0.705 -1.985
0.695 0.965 2.13199
-0.755182 0.126525 -0.74537
-0.776351 0.129502 0.63426
-0.840834 0.913662 -0.612647
-0.823451 0.994865 0.759707
0.755178 0.126522 -0.74537
0.776349 0.129501 0.63426
0.840832 0.913662 -0.61267
0.823448 0.994864 0.75966
-1.53485 -0.328294 -3.29164
-1.52987 -0.258254 -2.19085
-1.53943 -0.246325 -0.811032
-1.53675 -0.25465 0.570257
-1.49702 -0.210532 1.9502
-1.48857 -0.173102 3.05159
-1.49604 -0.139099 4.15186
-1.53189 0.0186886 -3.22426
-1.53132 0.110138 -2.12427
-1.55335 0.147269 -0.745865
-1.54355 0.146374 0.633197
-1.4758 0.18496 2.01174
-1.47539 0.221133 3.11302
-1.49092 0.255285 4.21353
-1.52925 0.68167 -3.08745
-1.53833 0.770605 -1.98716
-1.61067 0.925177 -0.613718
-1.58209 0.984065 0.759212
-1.47211 0.975842 2.13279
-1.47579 1.00873 3.23437
-1.49695 1.04776 4.33604
-1.53397 1.80845 -2.88772
-1.54494 1.91229 -1.78852
-1.57898 2.07177 -0.417446
-1.59167 2.18072 0.952061
-1.56893 2.21777 2.32321
-1.5504 2.23672 3.42256
-1.54376 2.26393 4.52344
-0.766633 -0.326868 -3.29211
-0.753822 -0.253589 -2.19154
-0.75835 -0.256395 -0.810947
-0.770419 -0.266652 0.571169
-0.748972 -0.203121 1.9518
-0.742283 -0.168988 3.05267
-0.746712 -0.138814 4.15248
-0.763973 0.0127305 -3.22441
-0.733255 0.225795 3.11391
-0.743938 0.255254 4.21399
-0.757798 0.652298 -3.08656
-0.731628 1.00498 3.2342
-0.749865 1.04508 4.33599
-0.750668 1.78872 -2.88684
-0.753143 1.89394 -1.78755
-0.785081 2.0672 -0.416866
-0.811782 2.18473 0.951974
-0.806753 2.21851 2.32268
-0.793266 2.23498 3.42204
-0.786859 2.26187 4.52306
0.74966 -0.326868 -3.29212
0.753392 -0.253589 -2.19155
0.765259 -0.256397 -0.81095
0.769032 -0.266653 0.571165
0.735147 -0.203122 1.95179
0.73754 -0.168989 3.05265
0.744368 -0.138814 4.15246
0.743133 0.0127303 -3.22441
0.729503 0.225795 3.11389
0.739399 0.255254 4.21396
0.74834 0.652298 -3.08656
0.717324 1.00498 3.23416
0.730969 1.04508 4.33596
0.803797 1.78872 -2.88685
0.816887 1.89394 -1.78756
0.81018 2.0672 -0.41689
0.768231 2.18473 0.951941
0.727353 2.21851 2.32265
0.721108 2.23498 3.422
0.725245 2.26187 4.52302
1.5178 -0.328295 -3.29165
1.52424 -0.258255 -2.19086
1.54238 -0.246327 -0.811048
1.54174 -0.254652 0.570235
1.49901 -0.210533 1.95017
1.49123 -0.173103 3.05155
1.49732 -0.139099 4.15181
1.5127 0.0186882 -3.22427
1.52336 0.110138 -2.12428
1.55173 0.147267 -0.745885
1.55058 0.146372 0.633167
1.4868 0.184959 2.0117
1.48018 0.221132 3.11298
1.49025 0.255284 4.21348
1.52241 0.68167 -3.08747
1.53739 0.770606 -1.98718
1.6108 0.925176 -0.613757
1.58495 0.984064 0.759144
1.4761 0.975842 2.1327
1.46864 1.00873 3.23429
1.48197 1.04776 4.33597
1.5796 1.80845 -2.88775
1.59559 1.91229 -1.78855
1.5984 2.07177 -0.417492
1.55809 2.18072 0.951998
1.5055 2.21777 2.32314
1.48816 2.23672 3.42249
1.48746 2.26393 4.52338
-0.724004 0.41 -2.04234
-5.00679e-06 0.111326 -2.12867
-0.753633 0.116 -1.43519
-0.74819 0.585 2.11116
0 0.204637 2.01425
-0.769806 0.148121 1.32408
-1.99676e-06 0.803015 -2.08301
-0.834539 0.858074 -1.29882
0 1.04115 2.20817
-0.794072 1.01478 1.44588
0.72401 0.41 -2.04236
0.753625 0.116 -1.43519
0.748218 0.585 2.11116
0.769802 0.148123 1.32408
0.834537 0.858075 -1.29884
0.794069 1.01478 1.44583
-0.765728 0.128052 -0.055555
-0.882861 0.520093 -0.679008
-2.17158e-06 0.126784 -0.74537
-0.885104 0.562183 0.696983
-1.1737e-06 0.128692 0.63426
-0.834346 0.956467 0.07353
-9.78191e-07 1.29066 -0.612658
-1.01856e-06 1.39553 0.759683
0.765725 0.12805 -0.055555
0.882859 0.520092 -0.67902
0.885107 0.562183 0.69696
0.834343 0.956466 0.073495
-0.870498 0.465047 -1.367
0.870499 0.465046 -1.36701
-3.58918e-06 0.113777 -1.43519
-1.48747e-06 1.03234 -1.29883
-3.50177e-06 0.41 -2.20901
-0.884052 0.541138 0.00898752
0.884049 0.541137 0.00896999
-1.67264e-06 0.127689 -0.055555
-9.98378e-07 1.42104 0.0735125
-0.895012 0.573592 1.38498
0.895012 0.573591 1.38495
-5.86852e-07 0.139948 1.32408
-5.09282e-07 1.24942 1.44585
0 0.585 2.31475
-0.751701 0.2625 -2.10209
-0.371283 0.111321 -2.12868
-0.748775 0.114822 -1.78009
-0.739406 0.395 2.06534
-0.3625 0.202086 2.0168
-0.764927 0.159037 1.66898
-0.760081 0.5575 -2.04637
-0.36538 0.791556 -2.07156
-0.80873 0.807619 -1.64191
-0.728957 0.775 2.12897
-0.3475 1.01036 2.1774
-0.752246 0.9976 1.78897
0.371273 0.111313 -2.12869
0.751714 0.2625 -2.10211
0.748766 0.114821 -1.78009
0.3625 0.202096 2.01679
0.739415 0.395 2.06533
0.764926 0.159037 1.66898
0.365376 0.791497 -2.0715
0.760051 0.5575 -2.04635
0.808732 0.807625 -1.64192
0.3475 1.0104 2.17741
0.729025 0.775 2.12899
0.752312 0.997666 1.78891
-0.758489 0.117181 -1.09028
-0.760726 0.127017 -0.400463
-0.864998 0.300321 -0.712189
-0.377961 0.125917 -0.74537
-0.77315 0.13874 0.979168
-0.770746 0.129071 0.289353
-0.868087 0.327163 0.665622
-0.388436 0.128576 0.63426
-0.844721 0.892903 -0.955735
-0.884103 0.728005 -0.645828
-0.836973 0.934447 -0.269558
-0.51011 1.28155 -0.612653
-0.815173 1.01123 1.1028
-0.887371 0.795071 0.728345
-0.829709 0.976476 0.416618
-0.508808 1.38936 0.759695
0.758483 0.117179 -1.09028
0.377956 0.125917 -0.74537
0.760721 0.127016 -0.400463
0.864993 0.30032 -0.712195
0.773147 0.138741 0.979168
0.388434 0.128576 0.63426
0.770745 0.129067 0.289353
0.868085 0.327164 0.66561
0.844731 0.892915 -0.955753
0.51009 1.28151 -0.612664
0.884099 0.728004 -0.645845
0.836978 0.934454 -0.269588
0.81518 1.01124 1.10274
0.508838 1.38942 0.759672
0.887367 0.795068 0.72831
0.829711 0.97648 0.416578
-0.856898 0.437523 -1.70467
-0.362004 0.41 -2.1274
-4.29799e-06 0.113175 -1.78193
-4.25428e-06 0.260663 -2.12766
-0.861305 0.290523 -1.40109
-0.376818 0.113635 -1.43519
-0.850052 0.579296 1.74807
-0.374095 0.585 2.26209
-2.93426e-07 0.154491 1.66916
0 0.394818 2.19432
-0.88885 0.360856 1.35453
-0.384903 0.138385 1.32408
-1.74211e-06 0.913881 -1.69092
-2.74926e-06 0.606507 -2.28337
-0.867911 0.66156 -1.33291
-0.41727 1.00974 -1.29883
-2.54641e-07 1.11653 1.82701
0 0.813074 2.27077
-0.881048 0.794185 1.41543
-0.397036 1.21279 1.44587
0.857294 0.437523 -1.70468
0.362003 0.41 -2.1274
0.861303 0.290523 -1.4011
0.376811 0.113635 -1.43519
0.850066 0.579296 1.74805
0.374109 0.585 2.26209
0.88886 0.360857 1.35451
0.384901 0.138385 1.32408
0.867907 0.661561 -1.33292
0.417268 1.00974 -1.29883
0.881045 0.794184 1.41539
0.397034 1.21278 1.44584
-0.866546 0.313767 -0.0232837
-0.383211 0.127177 -0.055555
-0.875664 0.49257 -1.02301
-0.883403 0.530616 -0.33501
-2.88038e-06 0.114379 -1.09028
-1.92211e-06 0.127187 -0.400463
-0.884586 0.551661 0.352986
-0.895638 0.567888 1.04098
-1.42317e-06 0.12819 0.289353
-8.80278e-07 0.130498 0.979168
-0.885682 0.762044 0.0412588
-0.531519 1.41744 0.0735213
-1.23283e-06 1.15693 -0.955744
-9.88284e-07 1.3867 -0.269573
-1.00847e-06 1.42137 0.416598
-7.63924e-07 1.33949 1.10277
0.866543 0.313766 -0.0232925
0.383208 0.127177 -0.055555
0.875661 0.492569 -1.02302
0.883409 0.530615 -0.335025
0.884581 0.55166 0.352965
0.895638 0.567887 1.04096
0.88568 0.762044 0.0412325
0.531517 1.41744 0.0735037
-0.853097 0.276512 -1.74238
-0.869391 0.306916 -1.05664
-0.882329 0.689219 -0.989371
-0.857693 0.60953 -1.67329
0.853098 0.276511 -1.74239
0.857712 0.60953 -1.6733
0.882477 0.689219 -0.989384
0.869391 0.306915 -1.05665
-0.37405 0.113084 -1.78101
0.374042 0.113084 -1.78101
0.377199 0.114186 -1.09028
-0.377205 0.114186 -1.09028
-0.391325 0.922008 -1.66642
-0.418844 1.14525 -0.955739
0.418842 1.14524 -0.955748
0.391322 0.922006 -1.66642
-0.366643 0.261582 -2.12693
-0.363692 0.582004 -2.2569
0.36369 0.582004 -2.2569
0.366638 0.261582 -2.12693
-0.865773 0.307043 -0.367737
-0.867316 0.320465 0.321169
-0.88604 0.778314 0.384802
-0.884649 0.744903 -0.302284
0.86577 0.307042 -0.367744
0.884649 0.744904 -0.302306
0.88604 0.778314 0.384771
0.867313 0.320465 0.321159
-0.380621 0.126477 -0.400463
0.380617 0.126477 -0.400463
0.385821 0.127876 0.289353
-0.385824 0.127876 0.289353
-0.538368 1.3846 -0.269566
-0.526327 1.41573 0.416608
0.526325 1.41573 0.416588
0.538368 1.38461 -0.26958
-0.881597 0.35335 1.01007
-0.847112 0.377928 1.70853
-0.83825 0.784593 1.76852
-0.888655 0.786355 1.07189
0.881598 0.353349 1.01006
0.88866 0.786354 1.07185
0.838264 0.784592 1.76848
0.847111 0.377929 1.70852
-0.38654 0.130225 0.979168
0.386537 0.130226 0.979168
0.3737 0.152326 1.66907
-0.373702 0.152326 1.66907
-0.404381 1.33269 1.10278
-0.372268 1.11468 1.80799
0.372267 1.1147 1.80796
0.404379 1.33271 1.10276
-0.368297 0.394909 2.18816
0.368304 0.394909 2.18822
0.360804 0.794037 2.23444
-0.360797 0.794037 2.23444
-0.747212 0.18875 -2.11363
-0.556921 0.111333 -2.12867
-0.746348 0.11423 -1.95255
-0.733963 0.3 2.04137
-0.54375 0.203147 2.01574
-0.747772 0.17921 1.84144
-0.749313 0.63125 -2.01958
-0.548069 0.770734 -2.05073
-0.773416 0.759982 -1.81346
-0.714462 0.87 2.133
-0.52125 0.988839 2.15589
-0.729738 0.987415 1.96052
0.556911 0.111326 -2.12867
0.747203 0.18875 -2.11363
0.746339 0.11423 -1.95255
0.54375 0.203157 2.01573
0.733989 0.3 2.04139
0.747771 0.17921 1.84144
0.548065 0.770568 -2.05057
0.749374 0.63125 -2.01965
0.773413 0.759982 -1.81346
0.52125 0.988881 2.15588
0.714483 0.87 2.13296
0.729739 0.987416 1.96045
-0.75361 0.125078 -0.917824
-0.757807 0.126918 -0.572916
-0.857438 0.189749 -0.72878
-0.566403 0.126558 -0.74537
-0.777906 0.130966 0.806714
-0.773249 0.129586 0.461806
-0.858593 0.210146 0.649941
-0.582071 0.129685 0.63426
-0.842794 0.903298 -0.784191
-0.875236 0.827217 -0.629237
-0.838961 0.924112 -0.441103
-0.716273 1.17921 -0.61265
-0.819939 1.00368 0.931251
-0.873011 0.903768 0.744026
-0.827042 0.986133 0.588163
-0.704697 1.26925 0.759701
0.753603 0.125078 -0.917824
0.566398 0.126558 -0.74537
0.757803 0.126915 -0.572916
0.857438 0.189745 -0.728783
0.777906 0.130963 0.806714
0.582068 0.129686 0.63426
0.773247 0.129584 0.461806
0.858591 0.210145 0.649935
0.842812 0.90332 -0.784211
0.716271 1.17921 -0.612667
[...]
POINT_DATA 3682
SCALARS point_scalars float 1
LOOKUP_TABLE default
-129.993
-43.1621
-51.0911
-38.8547
-129.902
-43.2443
-51.3763
-38.9121
-41.7341
-38.1239
-60.3045
-52.7078
-41.7172
-38.0744
-60.29
-52.7449
-57.4308
-106.385
-43.6713
-38.6783
-49.2156
-38.7878
-35.3519
-14.92
-99.2489
-43.2592
-39.7332
-44.8185
-35.6714
-34.5447
42.0808
-84.3846
-55.1045
-48.7668
-43.6258
-37.9983
-35.6307
-39.0509
-60.0294
-82.5538
-66.7071
-39.8
-38.3421
-38.3421
-21.6231
-142.18
-42.8452
-37.9809
-43.3518
-36.1098
-32.5184
-21.6231
-33.2468
-30.867
151.932
-34.8134
-34.0282
-9.97572
-26.7938
-86.2151
-66.3015
-38.7373
-36.1786
-35.9539
-22.1146
-142.18
-42.9149
-37.9631
-43.4159
-36.2067
-32.6406
-22.1146
-33.3375
-30.9101
149.075
-34.8443
-33.9701
-4.22868
-28.9795
-85.7571
-66.3067
-38.4324
-35.9933
-35.7742
-39.6112
-106.45
-43.6104
-38.7218
-49.2864
-38.8732
-35.441
-14.7278
-99.2953
-43.2807
-39.6494
-44.9246
-35.7513
-34.619
42.9277
-84.5949
-55.1037
-48.7912
-43.6715
-38.0615
-35.6895
-39.3337
-60.5644
-82.607
-66.6906
-39.8293
-38.3936
-38.3936
-22.0511
-169.142
-58.1945
-37.6492
-35.5669
-44.2557
-26.9236
-63.9198
-36.1339
-51.0295
-19.7868
-58.185
-37.7218
-44.2762
-63.9228
-51.0627
-37.752
-48.4485
-43.405
-43.1203
-39.308
-53.7462
-48.1715
-69.1484
-37.7504
-48.4539
-43.1353
-53.7691
-63.3622
-63.3097
-64.2428
-1.54446
201.771
-43.8118
-43.8196
-38.3835
-91.5668
-50.8627
-50.8889
-41.7674
-47.1168
-28.6507
-59.9076
-165.835
-85.2793
-39.1434
-37.653
-48.0827
-44.1298
-30.699
-60.5402
-37.734
-35.8191
-45.0383
-165.939
-66.81
-85.277
-37.7258
-39.2212
-48.171
-30.662
-45.2464
-60.8397
-35.85
-37.8001
-45.0796
-49.0169
-38.6008
-45.2441
-42.4676
-41.5777
-37.5856
-40.7779
-39.1683
-64.6292
-52.9987
-56.1043
-47.1677
-53.7394
-46.4617
-53.3426
-67.4107
-49.0161
-42.4647
-38.6012
-45.2341
-41.5847
-39.1709
-37.5836
-40.7867
-64.6333
-46.9774
-53.0054
-56.1102
-53.7722
-67.4246
-46.479
-53.3057
-94.8626
188.597
-91.6261
191.539
-63.0493
-62.0871
-47.9075
-33.0488
-41.8193
-26.9224
-48.3215
-42.103
-14.3288
149.358
-63.0503
-5.06812
-40.9093
-34.3843
-50.7105
-47.4977
-94.6443
188.71
-63.0057
-62.0924
-47.9564
-33.1853
-48.3375
-42.1211
-63.1148
-5.06958
-50.6953
-47.5032
-41.2698
-38.0329
-52.6847
-45.2989
-51.6671
-39.7328
-43.2495
-46.2767
-38.3456
-41.0609
-47.2075
-81.284
-12.51
-93.4198
-80.2045
-57.0907
-41.2696
-38.0319
-52.6854
-45.3071
-43.2575
-46.2937
-47.2213
-81.329
-97.2093
-52.4106
-56.1016
-92.2053
-97.0671
-91.8561
-56.1401
-52.3944
-89.2035
-89.2264
-50.976
-50.9755
-21.3599
-16.5807
-16.5674
-21.4064
188.158
154.941
150.626
188.11
-42.518
-40.8443
-46.8624
-49.1997
-42.5192
-49.2096
-46.8658
-40.8477
-39.2218
-39.2208
-38.0716
-38.0725
-86.9436
-73.4154
-73.4192
-87.0635
-44.205
-49.5805
-46.8797
-49.0801
-44.2238
-49.1445
-46.9189
-49.6283
-41.0532
-41.0632
-43.026
-42.9807
-57.7253
-41.2167
-41.2267
-57.7376
-30.8325
-30.9751
-34.7899
-34.7689
-46.251
-178.644
-115.077
-40.9318
-39.859
-45.855
-47.5321
-14.8216
-50.5464
-37.9356
-36.2006
-42.0772
-178.839
-48.4707
-115.094
-39.9468
-41.008
-45.8827
-14.9108
-47.9688
-50.7373
-36.2486
-38.0001
-42.1162
-42.5711
-39.6475
-43.1206
-41.6345
-42.0309
-37.8197
-40.0677
-39.0886
-63.1301
-56.3992
-58.2544
-80.1007
-52.7763
-50.4374
-52.6744
-61.5405
-42.5515
-41.6302
-39.6632
-43.1328
-42.1176
-39.0933
-37.8186
-40.0245
-63.1439
-80.0663
-56.3949
-58.2391
-52.8162
-61.5424
-50.4703
-52.7064
-22.0539
-29.8052
-128.768
138.872
-172.211
-172.277
-118.446
80.7761
-68.7375
-52.2729
-61.9675
-59.7831
-38.0387
-37.8521
-42.9567
-34.1198
-36.0644
-36.1042
-39.122
-26.7583
-44.4766
-43.2549
-48.6504
-42.4567
-33.2127
-33.1643
-23.7188
65.4819
-58.694
-63.3208
-64.4827
-14.416
-35.9216
-35.9394
-38.4864
-35.1745
-49.6019
-52.6364
-50.3759
-49.0639
-22.1499
-30.8281
-129.235
139.654
-68.7282
-52.2671
-61.9346
-59.7895
-38.1151
-37.9194
-43.0114
-34.1972
-44.4882
-43.2655
-48.6673
-42.4805
-56.5116
-63.3299
-64.7005
-14.4804
-49.6155
-52.6453
-50.4039
-49.07
-38.0066
-37.468
-40.0502
-37.7529
-46.7185
-50.3596
-50.9135
-46.6189
-43.1595
-43.1566
-46.6712
-41.1764
-42.1043
-44.4801
-43.1671
-43.2665
-39.2727
-39.273
-38.726
-40.0563
-54.6553
-54.7958
-49.7793
-64.3913
-46.6424
-46.6001
-26.6073
-78.8206
-68.781
-68.7914
-74.8581
-63.1599
-38.006
-37.4636
-40.0503
-37.7522
-46.7153
-50.3688
-50.9188
-46.6243
-42.1165
-44.4957
-43.1764
-43.2817
-54.6804
-54.8377
-49.7987
-64.3872
-73.5538
-63.586
-63.0214
-57.2997
-73.4329
-63.5307
-62.9889
-57.2816
-74.8211
-63.7526
-63.7446
-56.9145
-6.31309
-2.29105
-2.32805
-6.16792
199.469
191.241
201.021
199.444
-42.431
-44.3144
-43.4786
-45.367
-42.4331
-44.3215
-43.4861
-45.3782
-38.2826
-38.8471
-38.2066
-38.2817
-89.2171
-92.3308
-86.4039
-89.1981
-51.4271
-50.0565
-51.0206
-48.3432
-51.4539
-50.0802
-51.0399
-48.3733
-42.3035
-41.8659
-41.8743
-41.8674
-43.3139
-47.2774
-47.2772
-51.846
-30.1533
-27.3189
-32.9744
-30.2809
-105.265
105.859
-115.776
104.197
-92.2147
-86.9924
-43.879
-34.0147
-40.7461
-32.3191
-51.4291
-44.4743
-86.4565
81.86
-25.5643
65.5683
-84.7581
-32.1291
-42.9026
-34.8225
-38.6324
-35.0666
-46.4015
-42.0073
-115.82
104.168
-105.482
105.904
-92.1699
-86.6757
-40.7884
-32.4952
-43.928
-34.1065
-51.5101
-44.5555
-25.594
65.5801
-86.5771
81.4308
-84.1636
-32.2333
-38.6484
-35.1089
-42.9496
-34.8805
-46.4264
-42.0271
-53.19
-50.1443
-41.2802
-38.7717
-47.9833
-43.6805
-45.4842
-40.4981
-42.5403
-41.6308
-39.8698
-37.8102
-40.8195
-40.5257
-38.4933
-40.1216
-59.3758
-41.6154
-55.2094
-50.9053
-52.6505
-69.6591
-27.9235
-77.8977
-51.0289
-59.9147
-46.3815
-47.6594
-50.9497
-60.8602
-70.7894
-62.9364
-53.1733
-50.1436
-45.4816
-40.4965
-41.2817
-38.7739
-47.9731
-43.6842
-42.5555
-41.6464
-38.4937
-40.1286
-39.8943
-37.8133
-40.8243
-40.5516
-59.4009
-41.8726
-27.9269
-77.9026
-55.2229
-50.9089
-52.6584
-69.6673
-51.0608
-59.9188
-70.7959
-62.9486
-46.394
-47.6766
-50.8983
-60.8495
-97.2315
-93.9295
185.941
188.936
-91.2736
-91.281
189.342
189.348
-74.7014
-56.547
-72.3564
-55.3462
-48.5874
-47.1711
-31.5965
-34.1175
-42.145
-42.1231
-28.3828
-28.493
-46.9695
-51.1985
-42.2992
-42.9984
-16.1793
-16.1786
156.014
155.994
-58.6554
-72.2453
-15.3218
-7.12159
-41.049
-41.0536
-34.5571
-34.5234
-50.7183
-49.7138
-52.0514
-43.9006
-96.9832
-93.7376
189.372
185.83
-74.6083
-56.5172
-72.3664
-55.348
-47.2168
-48.6305
-31.7306
-34.2132
-46.9865
-51.2273
-42.3136
-43.0278
-71.9773
-58.6976
-7.1239
-15.2832
-49.7418
-50.7543
-43.9076
-52.0429
-41.7641
-40.9588
-38.4404
-37.9046
-52.4875
-53.6964
-43.7887
-47.0085
-51.468
-51.4679
-39.5921
-39.5901
-41.9699
-44.8455
-45.3695
-47.9439
-38.2733
-38.2735
-40.9349
-40.9392
-46.9663
-47.9374
-82.0449
-76.6186
-12.8662
-12.8443
-91.849
-91.8783
-78.6672
-78.6707
-57.2341
-57.2402
-41.764
-40.9585
-38.4394
-37.9038
-53.7215
-52.4767
-43.7915
-47.0179
-44.8539
-41.9747
-45.3893
-47.9816
-47.9499
-46.9808
-76.636
-81.7998
-102.307
-74.7077
-74.4365
-124.094
-45.7269
-49.2014
-57.15
-55.1167
-58.9115
-60.8655
-57.5729
-52.8351
-70.2977
-111.238
-73.0959
-71.7511
-102.398
-124.604
-74.3239
-74.6553
-70.6269
-71.7081
-72.9681
-111.351
-58.9246
-52.8488
-57.5835
-60.9153
-45.705
-55.0982
-57.1193
-49.1942
-114.824
-118.257
-74.3055
-69.8808
-114.874
-69.8577
-74.3135
-118.282
-44.2219
-46.367
-56.5226
-53.6266
-44.2259
-53.6244
-56.5321
-46.3703
-37.3461
-22.2322
-8.86393
-24.729
-81.2256
-26.992
-6.16397
-21.829
-80.9806
-21.8105
-6.16834
-27.0103
-36.2425
-24.7315
-8.85463
-22.1592
27.8936
94.1176
190.374
102.363
55.4386
61.009
198.612
98.1605
55.9691
98.3019
198.647
60.8979
27.9819
102.705
190.341
93.9237
-42.1875
-40.4742
-42.9641
-44.9922
-39.7392
-41.9148
-42.1263
-39.8941
-49.7071
-49.7688
-45.0601
-44.6248
-54.3299
-48.4619
-45.9357
-51.0933
-42.2427
-44.9939
-42.9678
-40.4758
-54.3254
-51.1099
-45.9464
-48.4692
-49.7277
-44.636
-45.0706
-49.8528
-39.7824
-39.9329
-42.1299
-41.9224
-39.8825
-40.9861
-38.7342
-38.1041
-39.8819
-38.1008
-38.7333
-40.9841
-38.2429
-38.6624
-38.127
-37.6444
-38.2432
-37.645
-38.1288
-38.6629
-76.6329
-65.7148
-90.4919
-77.955
-60.3928
-74.014
-84.5573
-62.2573
-60.3843
-62.2513
-84.5683
-74.0142
-76.6574
-77.9704
-90.4279
-65.7056
-39.3301
-47.5166
-47.5514
-41.2182
-44.8351
-43.5082
-51.6124
-48.3276
-43.9116
-50.0636
-51.28
-42.7795
-50.8829
-44.9745
-48.9652
-51.0397
-39.4226
-41.2359
-47.5731
-47.5527
-50.9124
-51.062
-48.9975
-44.9866
-43.9583
-42.833
-51.3097
-50.0931
-44.8797
-48.3121
-51.6464
-43.5613
-40.2889
-40.0514
-42.1283
-42.4831
-40.3035
-42.5001
-42.1374
-40.0537
-42.6604
-39.5423
-42.4971
-43.6304
-42.6348
-43.5938
-42.4831
-39.5142
-58.7461
-53.7965
-51.6219
-63.1409
-39.291
-38.5805
-43.5664
-45.3046
-39.316
-45.2973
-43.5701
-38.586
-58.7531
-63.1408
-51.6151
-53.8067
-35.096
-28.3003
-28.5799
-33.8929
-35.1821
-33.9789
-28.6853
-28.4193
-35.2694
-35.1621
-33.5742
-34.6321
-35.2155
-34.5622
-33.5137
-35.141
-57.7563
-146.789
-153.993
-42.6838
-41.4248
-43.6065
-46.6445
-14.4009
-56.5315
-38.7323
-37.1288
-40.2564
-146.791
-59.0694
-154.007
-41.5143
-42.7643
-43.6765
-14.7851
-47.0615
-56.7336
-37.1812
-38.7974
-40.3014
-43.0454
-40.272
-42.4292
-41.3626
-40.4541
-37.8916
-38.398
-39.0004
-61.8138
-58.2905
-59.2604
-68.3866
-52.6518
-51.9922
-52.8326
-55.6693
-43.0268
-41.3552
-40.2712
-42.4166
-40.5161
-39.0018
-37.8821
-38.2312
-61.8041
-68.3785
-58.2799
-59.2331
-52.6908
-55.7023
-52.026
-52.8687
-24.5572
-18.8438
-96.8575
42.3665
-169.469
-169.399
-136.54
1.62711
-62.8142
-54.9264
-60.3875
-58.6615
-37.7155
-37.8653
-40.9107
-34.8358
-35.6349
-35.6548
-37.4499
-28.8092
-43.1165
-44.5297
-47.9516
-42.8807
-29.8313
-29.698
-33.9834
25.1114
-63.5542
-65.6599
-66.5943
-34.4419
-36.0246
-36.0328
-37.2921
-35.4434
-50.4193
-51.5409
-50.6758
-50.3734
-23.191
-19.7908
-99.1322
43.061
-62.8052
-54.919
-60.3672
-58.6627
-37.7891
-37.9355
-40.9734
-34.912
-43.1331
-44.5418
-47.9711
-42.9043
-63.3553
-65.6834
-66.806
-34.5705
-50.4368
-51.5606
-50.7073
-50.3888
-37.7971
-37.4488
-38.9754
-37.6744
-47.6178
-49.3776
-49.5968
-47.4713
-43.316
-43.3141
-44.8888
-42.1606
-42.688
-43.711
-43.1111
-42.9083
-39.2993
-39.2993
-38.9905
-39.674
-54.1416
-54.8659
-51.028
-58.5389
-47.8012
-47.7882
-36.0872
-65.2333
-69.0662
-69.0721
-72.2521
-65.9086
-37.796
-37.4461
-38.9767
-37.6732
-47.6189
-49.3857
-49.593
-47.4764
-42.7022
-43.7267
-43.1212
-42.9239
-54.1678
-54.8943
-51.0505
-58.5413
-67.5973
-63.5882
-63.1762
-60.2735
-67.5128
-63.5318
-63.1294
-60.2389
-68.9824
-64.0545
-64.0701
-60.262
-2.28954
-1.57031
-1.61367
-3.69223
201.229
197.827
201.992
201.318
-43.1109
-44.0451
-43.5464
-44.5675
-43.116
-43.9725
-43.5543
-44.5775
-38.3532
-38.5568
-38.2624
-38.3653
-91.0671
-92.3518
-88.7423
-91.0623
-51.3801
-50.5923
-50.8682
-49.2873
-51.4266
-50.6174
-50.8924
-49.312
-42.0269
-41.7736
-41.777
-41.879
-45.0219
-47.1361
-47.1262
-49.1934
-29.1233
-27.4537
-31.2127
-29.2018
-67.5046
-33.5037
-120.812
66.5796
-166.42
-168.404
-134.647
-24.3765
-99.03
-76.0332
-87.6777
-85.7062
-39.9146
-38.5353
-41.8238
-35.1828
-38.5636
-36.6758
-39.1855
-33.0194
-46.6688
-47.0299
-51.2198
-45.5473
-48.3481
-36.4702
-76.3041
45.0877
-21.6584
-32.822
-32.2571
24.0831
-52.2525
-59.3979
-74.7958
-40.7801
-37.78
-37.7304
-41.8095
-35.1882
-35.8384
-35.8576
-37.2787
-35.214
-43.417
-47.2102
-46.0116
-43.6961
-166.685
-168.464
-134.712
-24.4037
-65.668
-35.812
-120.99
66.5925
-99.0329
-76.0263
-87.5056
-85.7199
-38.6448
-36.7328
-39.2444
-33.1692
-39.9918
-38.6124
-41.882
-35.2736
-46.6932
-47.0753
-51.3323
-45.629
-22.5901
-32.7985
-32.2578
24.1311
-49.3858
-35.9396
-76.4181
46.1116
-52.4437
-59.7954
-74.7153
-41.0566
-35.8496
-35.8784
-37.3016
-35.2515
-37.8459
-37.792
-41.8628
-35.2525
-43.4479
-47.2258
-46.0588
-43.7086
-45.6919
-50.1065
-51.0869
-49.656
-38.992
-38.2303
-39.7656
-38.5986
-44.5298
-45.9634
-46.3824
-44.3703
-42.0136
-42.8638
-43.7793
-41.3878
-41.744
-41.982
-41.0315
-41.7331
-37.6252
-37.4559
-38.5572
-37.6907
-40.2594
-41.4317
-40.8285
-40.9023
-39.0987
-39.2275
-38.8058
-39.6232
-64.8865
-65.03
-62.0222
-68.0659
-54.6071
-51.5847
-54.0903
-51.8737
-57.1868
-55.4136
-54.4525
-61.8462
-60.6596
-45.6326
-35.54
-65.2872
-53.0334
-53.3091
-52.3452
-58.0411
-48.4046
-45.348
-46.3938
-46.7223
-52.5695
-54.1278
-52.3462
-56.4913
-67.035
-68.3019
-69.7754
-65.2541
-45.6914
-50.1023
-51.0808
-49.6549
-42.0104
-42.8609
-43.776
-41.3857
-38.9978
-38.2298
-39.7673
-38.6
-44.5201
-45.957
-46.3748
-44.3682
-41.7793
-41.9893
-41.0437
-41.7498
-39.1028
-39.2289
-38.8073
-39.6281
-37.629
-37.4504
-38.5443
-37.6889
-40.2617
-41.4419
-40.8338
-40.9218
-64.9115
-65.0376
-62.0324
-68.0494
-60.5271
-45.5263
-35.4903
-65.2849
-54.6093
-51.5935
-54.1011
-51.8799
-57.1771
-55.4289
-54.4574
-61.8322
-53.068
-53.3399
-52.3799
-58.0307
-67.0427
-68.3228
-69.7739
-65.268
-48.4293
-45.3631
-46.4078
-46.7433
-52.5984
-54.0876
-52.2553
-56.4898
-113.703
-81.2081
-95.7988
-94.6445
189.421
192.303
186.841
189.245
-103.614
-82.1628
-91.6439
-91.6363
191.077
189.421
190.585
190.644
-62.3856
-63.4324
-68.2735
-59.4264
-60.8632
-63.0008
-66.6404
-58.3766
-45.3307
-50.2759
-48.3493
-47.5199
-33.674
-31.6951
-32.4793
-33.4616
-40.9094
-42.1451
-41.8843
-41.8731
-27.0506
-27.0938
-27.4231
-27.4757
-47.7877
-49.4662
-47.1915
-48.6715
-42.1948
-41.9816
-42.3812
-42.3887
-17.8238
-10.4112
-14.8509
-14.8494
116.55
190.09
149.851
149.893
-63.2457
-62.6981
-59.9492
-66.3352
-7.89028
-3.5847
-8.90483
-4.91737
-39.7659
-41.9261
-40.9742
-40.9756
-34.7946
-33.9594
-34.4665
-34.4444
-50.4259
-51.0073
-51.0637
-50.3994
-47.9259
-47.3087
-49.5847
-45.5618
-113.001
-81.0822
-95.5741
-94.4416
189.068
192.376
189.331
186.729
-62.3481
-63.3819
-68.2105
-59.3838
-60.8707
-63.0027
-66.6486
-58.3799
-45.3807
-50.2989
-47.5676
-48.3947
-33.7713
-31.8403
-32.6106
-33.649
-47.8004
-49.4879
-47.2077
-48.6893
-42.216
-41.9947
-42.3971
-42.4108
-63.4039
-62.6907
-66.2239
-60.0083
-7.89911
-3.58674
-4.88551
-8.89757
-50.4445
-51
-50.4455
-51.0903
-47.933
-47.3127
-45.5679
-49.5895
-40.7754
-41.8166
-41.4656
-41.0953
-37.8744
-38.171
-38.1876
-37.9408
-51.7295
-54.5942
-52.72
-52.9247
-45.9705
-44.7905
-44.5866
-46.1242
-49.0912
-54.0468
-51.6
-51.6002
-40.3799
-39.2386
-39.7357
-39.6841
-43.2125
-43.3625
-42.6011
-43.9968
-44.1503
-47.7057
-45.8358
-47.0221
-38.4907
-38.2563
-38.3252
-38.3256
-40.5397
-41.459
-40.9354
-40.9374
-48.4695
-46.2809
-46.982
-47.5083
-72.721
-86.3593
-82.0626
-78.7072
-18.9749
-9.28765
-12.6168
-12.6094
-87.4109
-93.6259
-93.075
-93.0863
-77.4182
-83.4306
-79.8871
-79.8886
-59.8366
-54.1096
-57.1717
-57.1743
-40.7747
-41.8175
-41.4657
-41.0949
-37.8735
-38.17
-38.1865
-37.9398
-51.7344
-54.5883
-52.9349
-52.7149
-45.8745
-44.7973
-44.5918
-46.1332
-43.2223
-43.3704
-44.0055
-42.6078
-44.1666
-47.7357
-45.8576
-47.0389
-48.4849
-46.2932
-47.521
-46.9957
-72.6857
-86.356
-78.7319
-81.7383
-108.456
-95.9982
-97.4093
-83.237
-53.0896
-50.2682
-54.2719
-52.2879
-57.4309
-55.9715
-56.9491
-54.7979
-97.0858
-89.0494
-92.9617
-80.4167
-108.382
-95.9142
-97.2125
-83.1332
-96.8502
-88.5168
-92.7388
-80.2417
-57.4685
-56.0164
-56.9775
-54.8373
-53.0709
-50.2559
-54.2503
-52.2742
-101.338
-88.0394
-90.3852
-79.7126
-101.373
-88.0694
-90.4007
-79.7274
-50.5875
-48.2006
-52.8392
-51.2576
-50.5876
-48.2015
-52.8383
-51.2567
-21.7852
-26.4241
-17.9676
-19.3296
-21.9074
-22.7578
-10.8
-14.2694
-21.9804
-22.7655
-10.8106
-14.2085
-21.8148
-26.5355
-17.9722
-19.3087
186.952
188.353
187.172
187.903
123.75
108.073
186.668
156.351
108.148
123.314
156.333
186.691
188.323
186.879
187.918
187.104
-41.9151
-43.0385
-42.1196
-43.1238
-40.3465
-40.7967
-40.8951
-41.3657
-46.502
-48.3233
-45.7852
-46.9828
-49.9168
-50.6373
-48.0435
-48.5773
-41.916
-43.0427
-42.12
-43.1253
-49.9224
-50.6474
-48.0531
-48.5901
-46.5106
-48.321
-45.7924
-46.9913
-40.3592
-40.8025
-40.8955
-41.3702
-38.9702
-39.7903
-38.7802
-39.4206
-39.7891
-38.9701
-39.4187
-38.7792
-38.2382
-37.9462
-38.1845
-37.96
-37.9472
-38.2389
-37.9609
-38.1855
-81.4323
-79.7129
-85.1102
-89.8711
-67.9654
-72.2392
-75.1039
-76.8064
-72.2475
-67.6811
-76.8102
-75.1142
-79.7545
-81.4889
-89.9424
-85.43
-44.2736
-41.3179
-46.1906
-44.8103
-46.3927
-50.6988
-48.8836
-52.9053
-44.8444
-46.7473
-47.0145
-49.1559
-49.6832
-48.7143
-49.2219
-48.8389
-44.2882
-41.3391
-46.2066
-44.83
-49.709
-48.7447
-49.2503
-48.8816
-44.8938
-46.7813
-47.058
-49.1911
-46.4418
-50.7684
-48.9261
-52.9517
-41.4062
-40.6938
-41.3897
-40.9384
-41.4192
-40.7024
-41.4012
-40.9451
-42.4407
-43.5888
-42.5135
-43.1245
-42.4047
-43.5264
-42.4823
-43.0882
-58.7371
-60.216
-55.0759
-57.3111
-39.8086
-41.4321
-41.1182
-42.4779
-39.8213
-41.446
-41.1261
-42.487
-58.7448
-60.2001
-55.0957
-57.3213
-32.5752
-31.1178
-30.8581
-29.8963
-31.2585
-32.6867
-30.0539
-31.0006
-34.9808
-34.8518
-34.6694
-34.5747
-34.7956
-34.9263
-34.6366
-34.6423
-123.305
28.3948
-140.818
-60.2185
-106.246
-114.183
-42.9406
-36.8003
-41.0956
-36.4182
-45.9498
-43.5377
-70.2384
18.9119
-34.6592
19.7896
-61.4685
-46.6113
-41.6003
-35.8534
-38.2594
-35.4635
-43.9758
-40.5561
-140.9
-59.9037
-123.417
28.3728
-106.304
-114.213
-41.1713
-36.5148
-42.9914
-36.9084
-45.9932
-43.5612
-34.7462
20.0566
-70.5302
18.6496
-61.7373
-46.7514
-38.2914
-35.5166
-41.6581
-35.9166
-44.0197
-40.5846
-40.868
-43.5043
-40.8272
-39.6567
-44.5507
-43.0407
-42.8321
-40.634
-42.7686
-40.4296
-38.5435
-38.0445
-39.9428
-40.292
-38.6211
-39.6775
-60.7333
-71.6679
-57.514
-55.2952
-56.2184
-64.9964
-79.2431
-83.1606
-52.1973
-55.5475
-49.8553
-50.7251
-51.3919
-56.0966
-60.3046
-60.0016
-40.8553
-43.4974
-42.8269
-40.6319
-40.8971
-39.658
-44.5509
-42.9442
-42.9332
-40.4553
-38.6225
-39.6881
-38.5712
-38.0431
-39.9712
-40.3543
-60.751
-71.6452
-79.2935
-83.1931
-57.5153
-55.2903
-56.2088
-64.9939
-52.2322
-55.5918
-60.3035
-60.0049
-49.8784
-50.7519
-51.4201
-56.1132
-104.272
58.107
-80.4685
29.8204
-129.395
-122.209
114.829
94.3512
-136.684
-63.2552
-136.713
-63.1234
-118.178
-118.159
68.9244
69.0499
-72.8595
-68.807
-54.0293
-52.7579
-67.2882
-58.1586
-64.2131
-56.3435
-41.5176
-34.8472
-41.0916
-35.1042
-43.2696
-42.8151
-33.9653
-34.2834
-37.8924
-30.1483
-37.925
-30.2547
-39.2267
-39.2124
-27.1228
-27.185
-46.7228
-43.9778
-48.0137
-42.6537
-47.7308
-46.7868
-42.8023
-42.6531
-32.1022
21.8428
-32.1217
21.9872
-24.0944
-24.1037
55.6872
56.6037
-68.7732
-30.6158
-62.4503
-50.1399
-61.4947
-66.8878
-18.22
-15.5025
-37.2753
-35.2985
-37.2833
-35.3174
-38.5557
-38.5578
-35.1842
-35.1697
-49.6654
-47.3469
-51.9516
-54.6783
-50.1978
-50.8316
-51.5442
-47.0892
-104.956
58.324
-81.0123
31.3099
-130.224
-122.449
96.1003
111.847
-72.8335
-68.8113
-54.0183
-52.757
-67.2481
-58.1349
-64.2222
-56.3478
-41.5843
-34.9275
-41.1453
-35.1736
-42.8719
-43.3238
-34.0484
-34.3573
-46.6891
-44.0116
-48.0405
-42.6688
-47.7347
-46.7939
-42.8222
-42.6794
-67.2554
-30.7695
-62.486
-50.0631
-66.8114
-61.5867
-15.5485
-18.1954
-49.6846
-47.3473
-51.9726
-54.7427
-50.8516
-50.2235
-47.1829
-51.7185
-39.1118
-38.0107
-38.5206
-37.5239
-40.3157
-39.9266
-37.8894
-37.6744
-47.8606
-45.7773
-51.5236
-49.3665
-50.0988
-51.8854
-45.8259
-47.4986
-44.6098
-41.9517
-44.6065
-41.9492
-46.6211
-46.5408
-41.1197
-41.1183
-41.9553
-41.9909
-44.527
-44.6364
-42.524
-43.8662
-42.038
-44.1953
-38.9414
-39.6488
-38.9412
-39.6502
-38.7082
-38.7086
-40.0545
-40.0382
-52.9156
-59.9218
-53.2932
-57.6855
-49.3026
-50.4965
-64.6979
-63.2765
-35.4998
-64.0236
-35.4676
-64.0441
-26.7476
-26.7541
-78.6797
-78.6979
-71.6729
-65.7316
-71.6747
-65.7372
-74.6539
-74.6549
-63.1595
-63.1605
-39.1147
-38.0105
-38.5178
-37.5214
-40.3166
-39.9258
-37.8885
-37.6734
-47.8559
-45.7769
-51.5356
-49.3738
-51.8972
-50.0974
-45.8294
-47.506
-41.9651
-42.0087
-44.5402
-44.6518
-43.8756
-42.5331
-42.0535
-44.2101
-52.9359
-59.9256
-53.3987
-57.684
-50.5191
-49.3107
-63.2776
-64.6845
-74.047
-73.2973
-68.3209
-60.212
-60.0306
-66.7265
-57.2446
-57.5791
-73.9249
-73.1731
-68.2456
-60.1687
-66.6464
-60.0262
-57.5742
-57.2178
-74.6698
-73.8036
-68.4713
-59.819
-68.4723
-59.8178
-56.7957
-56.5435
-6.83989
-6.84561
-3.81141