# vtk DataFile Version 2.0
tet_velo
ASCII
DATASET UNSTRUCTURED_GRID
POINTS 29498 float
-0.795 0.145 -2.2812
-0.745 0.215 2.29376
-0.754989 0.675 -2.165
-0.654453 0.965 2.215
0.795 0.145 -2.2812
0.745 0.215 2.29376
0.754989 0.675 -2.165
0.654459 0.965 2.215
-0.819928 0.126738 -0.756213
-0.819797 0.133536 0.768774
-0.796514 0.846704 -0.705
-0.765339 0.945708 0.755
0.819926 0.12674 -0.756213
0.819808 0.133525 0.768774
0.796524 0.846711 -0.705
0.765346 0.945711 0.755
-1.59002 -0.262328 -3.49635
-1.59242 -0.208798 -2.30238
-1.60456 -0.220172 -0.775717
-1.58644 -0.23068 0.764029
-1.52983 -0.179338 2.2918
-1.5169 -0.129839 3.49115
-1.52488 -0.0830661 4.68052
-1.58815 0.0587429 -3.46161
-1.58947 0.133025 -2.27475
-1.60733 0.144883 -0.760724
-1.57752 0.14945 0.759148
-1.49364 0.20247 2.27442
-1.49425 0.251159 3.47285
-1.51383 0.296804 4.66434
-1.57126 0.660926 -3.37389
-1.5607 0.732009 -2.18435
-1.58347 0.85941 -0.714626
-1.53417 0.936304 0.75049
-1.43193 0.967963 2.22145
-1.46133 1.01281 3.42258
-1.50083 1.05832 4.62455
-1.5605 1.68091 -3.29119
-1.55658 1.76988 -2.11137
-1.55981 1.91971 -0.66272
-1.54802 2.0479 0.771922
-1.52304 2.12071 2.22125
-1.51778 2.16148 3.40249
-1.52733 2.20122 4.59736
-0.799828 -0.256024 -3.50054
-0.793812 -0.198913 -2.3085
-0.807672 -0.228269 -0.774896
-0.810747 -0.242645 0.772245
-0.775707 -0.176227 2.30616
-0.769061 -0.127756 3.5009
-0.775993 -0.0829364 4.68616
-0.802789 0.0581422 -3.4629
-0.758113 0.25456 3.48089
-0.771434 0.297396 4.6686
-0.789574 0.63709 -3.36586
-0.732596 1.01292 3.42129
-0.764906 1.05851 4.62427
-0.776941 1.66315 -3.28324
-0.771773 1.75239 -2.10262
-0.780287 1.91396 -0.657443
-0.785154 2.052 0.771289
-0.776957 2.12452 2.21673
-0.775097 2.16348 3.39797
-0.782298 2.20238 4.59408
0.785099 -0.256023 -3.50054
0.804895 -0.198912 -2.3085
0.817472 -0.228268 -0.774896
0.802155 -0.242652 0.772245
0.749986 -0.17623 2.30616
0.729099 -0.127757 3.5009
0.722044 -0.0829379 4.68617
0.772948 0.058143 -3.4629
0.711632 0.254559 3.48089
0.711116 0.297394 4.6686
0.760853 0.637091 -3.36586
0.680618 1.01292 3.42129
0.696727 1.05851 4.62427
0.784903 1.66315 -3.28324
0.790161 1.75239 -2.10262
0.779744 1.91396 -0.657443
0.744602 2.052 0.771289
0.709705 2.12452 2.21673
0.702111 2.16348 3.39797
0.703115 2.20238 4.59408
1.5795 -0.262325 -3.49635
1.59904 -0.208796 -2.30238
1.61456 -0.220171 -0.775717
1.59148 -0.230689 0.764029
1.52506 -0.179344 2.2918
1.49185 -0.129843 3.49116
1.48102 -0.0830695 4.68052
1.56798 0.0587452 -3.46161
1.5884 0.133028 -2.27475
1.61169 0.144886 -0.760724
1.58863 0.149441 0.759148
1.50423 0.202465 2.27442
1.4697 0.251156 3.47285
1.46595 0.296801 4.66434
1.55199 0.660929 -3.37389
1.56009 0.732013 -2.18435
1.58667 0.859418 -0.714626
1.54232 0.936305 0.75049
1.43874 0.967961 2.22145
1.43037 1.01281 3.42258
1.44493 1.05832 4.62455
1.56701 1.68092 -3.29119
1.57086 1.76988 -2.11137
1.55996 1.91972 -0.662721
1.51799 2.0479 0.771922
1.47009 2.12071 2.22125
1.45498 2.16148 3.40249
1.45508 2.20122 4.59736
-0.816482 0.41 -2.26459
0 0.117539 -2.30866
-0.847433 0.0959 -1.51871
-0.74182 0.59 2.29647
0 0.184543 2.32422
-0.815137 0.141529 1.53127
0 0.732244 -2.22224
-0.788401 0.773502 -1.435
3.01003e-06 0.99687 2.24687
-0.747231 0.992689 1.485
0.816482 0.41 -2.26459
0.847435 0.095898 -1.51871
0.74183 0.59 2.29648
0.815018 0.141649 1.53127
0.788401 0.7735 -1.435
0.747232 0.992685 1.485
-0.821259 0.128741 0.00628006
-0.875245 0.486721 -0.730607
-1.06157e-06 0.094439 -0.756213
-0.88025 0.539622 0.761887
5.37372e-06 0.105834 0.768774
-0.783138 0.898417 0.025
4.53841e-06 1.15598 -0.705
3.42124e-06 1.3829 0.755
0.82125 0.12875 0.00628006
0.875241 0.486726 -0.730607
0.880252 0.539618 0.761887
0.783137 0.898413 0.025
-0.894159 0.448361 -1.47685
-0.88191 0.513172 0.01564
-0.89189 0.564811 1.50813
-5.30787e-07 0.0819798 -1.51871
2.15607e-06 0.100145 0.00628006
2.68686e-06 0.131808 1.53127
0 0.41 -2.49821
1.50502e-06 0.59 2.38021
2.26921e-06 0.893823 -1.435
3.97983e-06 1.38063 0.025
3.21564e-06 1.18546 1.485
0.894158 0.448363 -1.47685
0.881909 0.513172 0.01564
0.89189 0.564809 1.50813
-1.19224 0.139012 -2.27797
-0.794406 -0.0269564 -2.29485
-0.798895 0.101571 -2.87205
-1.11932 0.208735 2.28409
-0.760354 0.0193864 2.29996
-0.751557 0.23478 2.88733
-1.15785 0.703505 -2.17467
-0.772281 0.656045 -2.76543
-0.763381 1.21369 -2.13381
-1.04319 0.966482 2.21823
-0.693524 0.98896 2.81814
-0.715705 1.54476 2.21586
0.799948 -0.026956 -2.29485
0.783974 0.101571 -2.87205
1.1917 0.139014 -2.27797
0.747493 0.0193851 2.29996
0.728316 0.234779 2.88733
1.12461 0.208733 2.28409
0.757921 0.656045 -2.76543
0.772575 1.21369 -2.13381
1.15754 0.703507 -2.17467
0.667539 0.98896 2.81814
0.682082 1.54476 2.21586
1.0466 0.96648 2.21823
-1.21363 0.135811 -0.758469
-0.8138 -0.0507654 -0.765555
-1.19866 0.141493 0.763961
-0.815272 -0.0545544 0.770509
-1.18999 0.853057 -0.709813
-0.788401 1.38033 -0.681222
-1.14975 0.941006 0.752745
-0.775247 1.49885 0.763145
0.818699 -0.0507641 -0.765555
1.21581 0.135813 -0.758469
0.810981 -0.0545631 0.770509
1.20422 0.141483 0.763961
0.788134 1.38034 -0.681222
1.1916 0.853065 -0.709813
0.754974 1.49886 0.763145
1.15383 0.941008 0.752745
-1.59122 -0.235563 -2.89936
-1.58909 -0.101792 -3.47898
-1.19492 -0.259176 -3.49844
-1.59849 -0.214485 -1.53905
-1.59095 -0.0378868 -2.28856
-1.19312 -0.203856 -2.30544
-1.5955 -0.225426 -0.00584372
-1.60594 -0.0376443 -0.76822
-1.20612 -0.22422 -0.775306
-1.55813 -0.205009 1.52791
-1.58198 -0.0406154 0.761589
-1.19859 -0.236663 0.768137
-1.52336 -0.154588 2.89148
-1.51173 0.0115665 2.28311
-1.15277 -0.177782 2.29898
-1.52089 -0.106453 4.08584
-1.50557 0.0606602 3.482
-1.14298 -0.128797 3.49603
-1.51936 0.106869 4.67243
-1.15044 -0.0830012 4.68334
-1.58881 0.0958838 -2.86818
-1.57971 0.359834 -3.41775
-1.19547 0.0584425 -3.46225
-1.5984 0.138954 -1.51773
-1.57509 0.432517 -2.22955
-1.59243 0.147166 -0.000787874
-1.5954 0.502147 -0.737675
-1.53558 0.17596 1.51678
-1.55584 0.542877 0.754819
-1.49394 0.226815 2.87363
-1.46279 0.585217 2.24793
-1.50404 0.273982 4.0686
-1.47779 0.631984 3.44772
-1.12618 0.25286 3.47687
-1.50733 0.677564 4.64445
-1.14263 0.2971 4.66647
-1.56598 0.696468 -2.77912
-1.56588 1.17092 -3.33254
-1.18042 0.649008 -3.36988
-1.57209 0.79571 -1.44949
-1.55864 1.25094 -2.14786
-1.55882 0.897857 0.017932
-1.57164 1.38956 -0.688673
-1.48305 0.952134 1.48597
-1.5411 1.4921 0.761206
-1.44663 0.990386 2.82202
-1.47749 1.54434 2.22135
-1.48108 1.03557 4.02357
-1.48955 1.58715 3.41253
-1.09696 1.01286 3.42194
-1.51408 1.62977 4.61095
-1.13287 1.05842 4.62441
-1.55854 1.7254 -2.70128
-1.16872 1.67203 -3.28721
-1.5582 1.84479 -1.38704
-1.16418 1.76113 -2.10699
-1.55392 1.98381 0.0546011
-1.17005 1.91684 -0.660082
-1.53553 2.08431 1.49659
-1.16659 2.04995 0.771606
-1.52041 2.1411 2.81187
-1.15 2.12262 2.21899
-1.52255 2.18135 3.99992
-1.14644 2.16248 3.40023
-1.15481 2.2018 4.59572
-0.79682 -0.227468 -2.90452
-0.801308 -0.0989408 -3.48172
-0.00736448 -0.256023 -3.50054
-0.800742 -0.213591 -1.5417
0.00554149 -0.198912 -2.3085
-0.809209 -0.235457 -0.00132573
0.00490024 -0.228269 -0.774896
-0.793227 -0.209436 1.5392
-0.004296 -0.242648 0.772245
-0.772384 -0.151991 2.90353
-0.0128604 -0.176228 2.30616
-0.772527 -0.105346 4.09353
-0.763587 0.0634021 3.4909
-0.0199812 -0.127756 3.5009
-0.773713 0.10723 4.67738
-0.0269742 -0.0829372 4.68616
-0.796182 0.347616 -3.41438
-0.0149204 0.0581426 -3.4629
-0.764774 0.275978 4.07474
-0.745355 0.63374 3.45109
-0.0232406 0.254559 3.48089
-0.76817 0.677955 4.64644
-0.0301589 0.297395 4.6686
-0.783257 1.15012 -3.32455
-0.0143605 0.63709 -3.36586
-0.748751 1.03572 4.02278
-0.753847 1.5882 3.40963
-0.0259889 1.01292 3.42129
-0.773602 1.63045 4.60918
-0.0340894 1.05851 4.62427
-0.774357 1.70777 -2.69293
0.00398093 1.66315 -3.28324
-0.77603 1.83317 -1.38003
0.00919405 1.75239 -2.10262
-0.782721 1.98298 0.056923
-0.000271361 1.91396 -0.657443
-0.781055 2.08826 1.49401
-0.0202761 2.052 0.771289
-0.776027 2.144 2.80735
-0.0336258 2.12452 2.21673
-0.778698 2.18293 3.99602
-0.0364934 2.16348 3.39797
-0.0395917 2.20238 4.59408
0.794997 -0.227467 -2.90452
0.779023 -0.09894 -3.48172
1.1823 -0.259174 -3.49844
0.811184 -0.21359 -1.5417
1.20197 -0.203854 -2.30544
0.809813 -0.23546 -0.00132574
1.21602 -0.22422 -0.775306
0.776071 -0.209441 1.5392
1.19682 -0.23667 0.768137
0.739543 -0.151994 2.90353
1.13753 -0.177787 2.29898
0.725572 -0.105348 4.09353
0.720365 0.0634006 3.49089
1.11047 -0.1288 3.49603
0.71658 0.107228 4.67738
1.10153 -0.0830037 4.68335
0.766901 0.347617 -3.41438
1.17046 0.0584441 -3.46225
0.711374 0.275976 4.07474
0.696125 0.633739 3.45109
1.09067 0.252857 3.47687
0.703921 0.677954 4.64644
1.08853 0.297098 4.66647
0.772878 1.15012 -3.32455
1.15642 0.64901 -3.36988
0.688672 1.03572 4.02278
0.691364 1.5882 3.40963
1.05549 1.01286 3.42194
0.699921 1.63045 4.60917
1.07083 1.05842 4.62441
0.787532 1.70777 -2.69293
1.17596 1.67204 -3.28721
0.784953 1.83318 -1.38003
1.18051 1.76114 -2.10699
0.762173 1.98298 0.0569229
1.16985 1.91684 -0.660082
0.727154 2.08826 1.49401
1.1313 2.04995 0.771606
0.705908 2.144 2.80735
1.0899 2.12262 2.21899
0.702613 2.18293 3.99602
1.07854 2.16248 3.40023
1.0791 2.2018 4.59572
1.58927 -0.235561 -2.89936
1.57374 -0.10179 -3.47898
1.6068 -0.214483 -1.53905
1.59372 -0.0378842 -2.28856
1.60302 -0.22543 -0.00584377
1.61313 -0.0376422 -0.76822
1.55827 -0.205016 1.52791
1.59005 -0.0406237 0.761588
1.50846 -0.154593 2.89148
1.51465 0.0115607 2.28311
1.48644 -0.106456 4.08584
1.48077 0.0606566 3.482
1.47349 0.106866 4.67243
1.57819 0.0958865 -2.86818
1.55998 0.359837 -3.41775
1.60005 0.138957 -1.51773
1.57424 0.432521 -2.22955
1.60016 0.147164 -0.000787969
1.59918 0.502152 -0.737675
1.54643 0.175953 1.51678
1.56547 0.542873 0.754819
1.48697 0.226811 2.87363
1.47148 0.585213 2.24793
1.46783 0.273979 4.0686
1.45003 0.631982 3.44772
1.45544 0.677561 4.64445
1.55604 0.696471 -2.77912
1.5595 1.17092 -3.33254
1.57338 0.795716 -1.44949
1.56547 1.25095 -2.14786
1.56449 0.897862 0.0179319
1.57331 1.38957 -0.688673
[...]
POINT_DATA 29498
VECTORS point_vectors float
-2.29478 -3.32177 5.28318
0.171412 0.293002 1.0649
-1.61701 1.13755 3.34688
-0.0489629 -0.156102 0.324339
2.29267 -3.31483 5.27444
-0.144377 0.239953 0.944254
1.63709 1.1569 3.39892
-0.0193714 -0.0867481 0.263859
0.036455 -0.0129326 0.459518
0.0130923 -0.00293403 0.221023
0 0 0
0 0 0
-0.0369756 -0.0130918 0.459608
-0.0141245 -0.00318107 0.221011
0 0 0
0 0 0
-0.545781 -0.219968 19.8861
-1.23662 -0.640438 20.5528
-0.391092 -0.344582 21.4064
0.0904704 -0.065745 21.5979
0.641935 0.279409 21.4969
0.859404 0.322424 21.1691
0.585597 0.0812138 20.5626
-0.665848 -0.150437 19.8049
-1.63207 -0.5005 20.519
-0.55729 -0.450804 21.4408
0.0490958 -0.203082 21.6695
0.896428 0.0938375 21.5999
1.14995 0.10368 21.2358
1.07842 -0.133761 21.1262
-0.764369 0.0968534 19.709
-1.88338 0.176425 20.4952
-1.14606 -0.303163 21.4489
-0.245451 -0.278946 21.8137
0.700547 -0.470693 21.5981
1.04011 -0.545697 21.2076
0.826308 -0.375393 21.1037
-0.508543 0.370046 19.9567
-0.901461 0.625115 20.428
-0.850658 0.436778 21.1805
-0.284179 0.0287882 21.5872
0.162432 -0.309767 21.4431
0.281601 -0.379462 21.2384
0.252985 -0.341995 20.8558
-0.538474 -0.542733 19.3436
-2.17607 -3.33269 20.6872
-0.314835 -0.227247 21.5208
0.0416973 0.141631 20.989
0.481766 1.14328 19.5005
0.817642 1.40001 19.2868
0.716332 0.883358 19.5123
-0.720928 -0.392051 19.035
1.66637 1.57216 11.3888
1.93534 0.797611 12.9748
-0.886856 0.241554 18.7496
1.30474 -0.577753 10.4901
1.19556 -0.544676 16.5749
-0.456255 0.71645 19.5876
-0.935993 1.52988 20.179
-1.16879 1.5157 21.2784
-0.285604 0.234052 21.9666
0.114802 -0.47187 21.5359
0.225526 -0.60205 21.2223
0.203539 -0.550388 20.743
0.531498 -0.546485 19.3567
2.16952 -3.24887 20.6896
0.302318 -0.222816 21.5189
-0.0647745 0.134074 20.9618
-0.479374 0.995945 19.1703
-0.719178 1.16291 18.8118
-0.861693 0.861289 17.5587
0.711759 -0.392081 19.0065
-0.882201 1.26228 8.90743
-1.42752 0.868987 9.79196
0.876799 0.244028 18.7212
-1.29149 -0.0129462 8.26124
-1.28202 -0.499113 14.3408
0.459998 0.70862 19.594
0.950552 1.50182 20.1859
1.16341 1.51821 21.2742
0.267872 0.255873 21.9772
-0.126262 -0.450866 21.5423
-0.234548 -0.601572 21.2034
-0.207229 -0.56387 20.5538
0.545649 -0.216856 19.8759
1.22432 -0.632601 20.5501
0.390408 -0.348609 21.3989
-0.0917907 -0.0757719 21.5809
-0.611289 0.219711 21.4752
-0.840651 0.328352 21.1347
-0.841395 0.122708 20.7446
0.669381 -0.16277 19.769
1.62623 -0.499434 20.5209
0.551763 -0.455297 21.4309
-0.0472869 -0.208048 21.6388
-0.802899 0.0469751 21.5801
-1.09384 0.12391 21.0982
-0.794293 0.0257095 20.8915
0.771076 0.105908 19.6777
1.88189 0.179079 20.4871
1.13928 -0.295795 21.4403
0.243358 -0.267932 21.7834
-0.637829 -0.410806 21.5367
-0.919271 -0.510252 21.1357
-0.79789 -0.47177 20.6681
0.505142 0.369763 19.9591
0.892349 0.61474 20.4314
0.844758 0.440406 21.1744
0.278184 0.0387799 21.5716
-0.16422 -0.290797 21.4322
-0.275215 -0.360498 21.2232
-0.238938 -0.362817 20.9851
-1.74833 0.0252831 2.67522
0 0 0
0.00063482 -0.00150817 0.606381
-0.0437925 -0.0470001 0.0321554
-0.0322307 0.0260879 0.119855
0.0111968 0.0199467 0.476436
-8.2016e-05 0.0673251 0.18871
-0.100381 -0.0849043 0.31336
-0.0263297 0.0123791 -0.0523691
0.0156853 0.0167548 0.0779924
1.74364 0.0239026 2.66688
-0.000633864 -0.00156915 0.600725
0.0394862 -0.0229655 0.00360399
-0.0160928 0.0172985 0.46842
0.100594 -0.0850411 0.314485
-0.0167715 0.0182467 0.0779814
0.00708902 -0.000809266 0.328885
-0.00173542 0.00748256 0.153878
-1.98907e-05 -4.67507e-05 0.0095663
0.000196517 0.00310014 0.0173506
-5.06993e-05 0.000289532 0.0102701
0 0 0
-5.5219e-06 0.00343733 0.00692229
-4.88375e-05 -0.000679734 0.0195979
-0.00784612 -0.00112059 0.329663
0.00173252 0.00733888 0.153581
-0.000196109 0.00310462 0.0172905
0 0 0
-4.3631e-06 -3.84946e-05 0.000454792
-2.40494e-05 0.000310467 0.00257759
0.00123583 0.00479346 0.0404736
-4.80289e-08 -3.50554e-08 9.41629e-06
4.44666e-07 -9.69778e-07 -0.000159751
0 0 0
-0.00143548 0.43434 0.391182
0 0 0
-1.34996e-05 0.00369528 0.0243349
-8.83526e-05 0.00965376 0.114913
-0.000151052 0.00216332 -0.00528608
2.89796e-06 -2.59942e-05 0.000305487
2.47799e-05 0.00031835 0.00259545
-0.00112805 0.00458363 0.0372911
-3.1738 -1.37324 20.4997
-3.68814 -5.30094 20.7986
-2.04302 -1.39022 17.9309
1.37377 0.637292 18.9522
0.39809 1.27608 13.0607
0.815476 1.19155 7.91641
-3.71707 0.738035 20.4911
-2.84065 1.22621 17.0684
-2.18516 2.65439 20.0416
1.1209 -0.275938 17.8766
0.419658 -0.208753 6.00351
0.381635 -0.79758 20.5144
3.684 -5.2059 20.7702
2.03044 -1.41293 17.8641
3.17881 -1.37924 20.4934
-0.390612 1.07155 12.3841
-0.275336 0.740018 6.31354
-1.23353 0.53121 18.8212
2.83705 1.27852 16.9614
2.18624 2.61253 20.0474
3.7144 0.740978 20.4883
-0.551427 0.529449 4.753
-0.460133 -0.731729 20.0451
-1.06392 -0.145126 17.894
-0.265862 -0.757858 21.2443
0.187981 0.0172342 14.9453
0.2325 -0.172664 20.4013
0.271099 0.152749 14.98
-1.90649 -0.809695 21.6538
-3.28364 2.0245 21.3805
-0.264746 -0.396776 20.5666
-0.595089 0.218836 21.6487
-0.193481 0.0200281 15.1057
0.269593 -0.761981 21.2499
-0.297849 0.143408 14.8578
-0.232205 -0.190559 20.4512
3.27419 2.03156 21.375
1.89942 -0.804657 21.6567
0.513976 0.266216 21.2919
0.265104 -0.394138 20.6235
-0.930687 -0.430498 20.0214
-0.602471 -0.203542 19.8363
-0.614154 -0.359883 19.6426
-0.806228 -0.511739 21.2061
-1.44904 -0.590946 20.5507
-1.83023 -1.43861 20.5545
-0.129982 -0.197277 21.5293
-0.485445 -0.421615 21.4169
-0.274286 -0.394951 21.5723
0.361793 0.113266 21.633
0.0573848 -0.154227 21.6076
0.134402 -0.00207597 21.6579
0.803665 0.311091 21.3667
0.747087 0.21629 21.5237
0.812632 0.68382 21.4399
0.850809 0.337177 20.7646
1.01054 0.247858 21.1379
1.09905 0.875204 20.8284
0.880738 -0.0213572 20.6862
0.930233 0.523289 21.7407
-1.19093 -0.333193 19.9009
-0.733218 -0.0571728 19.7349
-0.749107 -0.269877 19.468
-1.08196 -0.503776 21.2784
-1.83876 -0.179735 20.522
-0.238555 -0.344297 21.578
-0.835877 -0.474426 21.4472
0.420833 -0.0634847 21.7871
-0.0735473 -0.309297 21.8053
1.07453 0.117205 21.347
0.918915 -0.248729 21.5772
0.993488 0.128342 20.5946
1.168 -0.299463 21.3529
1.69915 0.546 19.4913
1.0871 -0.35585 21.3663
1.42691 0.355794 18.886
-1.40446 0.173628 19.8245
-0.680558 0.307022 19.7957
-0.904467 0.142515 19.3082
-1.50708 -0.111966 21.1752
-1.37673 0.574193 20.4231
-0.720296 -0.313235 21.7117
-1.1952 0.194691 21.3206
0.247164 -0.326987 21.8251
-0.345708 -0.100115 21.7309
0.877662 -0.53292 21.3974
0.344942 -0.440017 21.5186
0.747775 -0.514101 21.0484
0.569771 -0.490043 21.0337
1.31982 -0.765768 20.0515
0.467053 -0.381675 20.8655
1.01295 -0.666171 19.9824
-0.743332 0.522552 20.1398
-0.54918 0.535462 19.7632
-0.933613 0.555302 20.8237
-1.01317 1.02509 20.3181
-0.60267 0.233792 21.4963
-1.09741 0.822627 21.2718
-0.000985733 -0.165539 21.4869
-0.330937 0.108753 21.738
0.260516 -0.365808 21.3195
0.145652 -0.390338 21.4983
0.387423 -0.403743 20.8328
0.29309 -0.546042 21.2271
0.303283 -0.513921 21.0836
-1.25065 -1.46555 19.0871
-0.622576 -0.477511 19.2049
0.00176544 -0.708207 19.0438
-0.874472 -0.993021 22.2663
0.0094564 -5.0968 21.3331
-0.0933044 -0.0249577 21.1199
-0.00618514 -0.478235 20.2102
0.31079 0.57484 20.2505
-0.0153404 -0.0727004 18.9567
0.629532 1.32522 19.5202
-0.15925 0.637104 16.0531
0.906289 1.40303 19.1334
1.0501 1.66396 15.9186
-0.374289 0.97732 15.2313
1.18035 0.956756 16.699
-0.336371 1.1082 13.6425
-0.839154 -0.174332 18.8137
-0.0197438 -0.58802 18.4938
1.9542 1.30242 12.723
1.63275 0.456794 7.81446
0.0771396 -0.539361 -0.333242
1.96409 0.248428 11.4704
0.283438 0.98987 7.01983
-0.692945 0.677967 19.1331
-0.0218164 0.343951 18.0082
1.35341 -1.01219 12.5964
0.544278 -0.995404 20.2269
0.158368 -0.640846 0.200107
0.375342 -0.998608 20.1466
0.0562729 -1.47973 3.5286
-0.742855 1.22849 19.7312
-0.00106873 0.938371 19.3845
-1.10718 1.53514 20.65
0.00923029 2.11321 20.0191
-0.798355 0.91682 21.9072
-0.0072223 2.59575 21.1807
0.00440182 -0.237769 21.7826
-0.019303 0.443265 22.1504
0.173492 -0.561836 21.4356
-0.0126659 -0.507777 21.6078
0.17423 -0.620616 20.9908
-0.00169955 -0.703998 21.3017
0.0135835 -0.585207 21.1086
1.23791 -1.46402 19.0993
0.608212 -0.483088 19.1935
0.6115 -0.367648 19.652
0.878429 -0.991632 22.3539
1.81292 -1.42481 20.5504
0.0775179 -0.0256857 21.1205
0.273296 -0.404597 21.5657
-0.34289 0.543293 20.003
-0.14755 -0.0123702 21.6415
-0.54341 1.04794 19.0815
-0.764217 0.60222 21.3682
-0.72022 1.35897 19.1553
-0.768573 1.27986 14.3251
-1.09389 0.768923 20.8236
-1.14461 0.865138 13.6753
-0.982808 0.659277 21.5128
0.832945 -0.171889 18.7759
0.743647 -0.284312 19.4484
-1.75748 1.26714 10.1584
-0.745879 0.973099 4.30664
-1.51862 0.648267 18.959
-1.57677 0.240809 8.24436
-1.33527 0.321031 19.3981
0.681992 0.683367 19.1215
0.914531 0.146238 19.2824
-1.5713 -0.780715 11.1941
-0.536135 -0.918193 19.9971
-1.32102 -0.5813 19.6449
-0.629167 -1.00253 20.0017
-1.5086 -0.815627 19.186
0.747168 1.20777 19.74
0.548923 0.530829 19.7676
1.10772 1.52638 20.6487
1.00964 1.00571 20.3209
0.788059 0.946678 21.9173
1.09234 0.825964 21.2672
-0.0195777 -0.228669 21.7804
0.323454 0.130383 21.738
-0.186853 -0.536636 21.4275
-0.163587 -0.376336 21.5001
-0.139353 -0.627546 21.1513
-0.325241 -0.540158 21.2153
-0.269729 -0.501307 21.0511
0.928126 -0.433317 20.0252
0.599422 -0.207332 19.8198
0.808279 -0.514532 21.1904
1.43133 -0.586595 20.5555
0.124443 -0.206992 21.5192
0.478627 -0.427181 21.4046
-0.360186 0.0944391 21.6136
-0.0578919 -0.165983 21.5781
-0.742708 0.263334 21.3202
-0.687624 0.15718 21.5081
-0.761657 0.210759 21.1709
-1.00873 0.235175 21.1596
-0.887967 0.0810104 20.5358
1.19973 -0.338393 19.8723
0.742523 -0.0607575 19.7015
1.07232 -0.509643 21.2677
1.84233 -0.178878 20.5131
0.233299 -0.34633 21.5612
0.830907 -0.470254 21.4409
-0.402356 -0.0723259 21.7352
0.0790827 -0.305687 21.7644
-0.952871 0.0739359 21.3708
-0.813346 -0.229889 21.5331
-1.02254 0.00691951 21.0199
-1.07463 -0.192279 21.0198
-0.788129 -0.254442 21.1008
1.41481 0.178957 19.8054
0.67948 0.308314 19.7892
1.50198 -0.108068 21.1676
1.36622 0.569286 20.4225
0.712593 -0.305484 21.6972
1.1886 0.195634 21.314
-0.233631 -0.302056 21.7752
0.345141 -0.0945055 21.7249
-0.781161 -0.463291 21.3446
-0.336953 -0.408583 21.5002
-0.899127 -0.499781 21.3557
-0.4963 -0.502404 21.0425
-0.425076 -0.405776 20.9968
0.740075 0.519337 20.1412
0.923408 0.553459 20.8208
0.608102 0.240557 21.5023
-0.00415632 -0.148791 21.5217
-0.262558 -0.346413 21.3042
-0.400474 -0.42401 20.8556
-1.07682 -0.403099 19.949
-1.672 -1.57527 18.491
-1.1942 -0.805546 19.6488
-1.73256 -0.681355 19.2674
-0.672446 -0.330069 19.5626
-2.45774 -1.51873 20.5318
-0.961561 -0.530467 21.2655
-0.356506 -0.454727 17.2193
-0.878921 -0.826555 21.6262
-1.15189 -1.01552 21.9835
-0.222538 -0.523935 21.5782
-0.187779 -0.303243 21.5477
0.281629 0.053486 14.8275
-0.0483226 -0.201366 21.6105
0.0223351 -0.482203 20.7504
0.234724 -0.0734121 21.3622
0.384333 0.0295683 21.6893
0.471077 0.517648 14.0867
0.440462 0.298373 21.6763
0.638462 0.20625 19.9692
1.12866 0.750524 20.5727
0.939188 0.233612 21.4095
0.710741 1.44796 14.472
0.975423 0.793759 21.1866
1.55514 0.62838 19.185
1.43722 0.790681 20.256
0.963296 0.258333 20.6855
1.29752 1.3767 16.3183
1.18494 0.775272 20.7831
1.46183 0.516548 20.5154
1.14155 0.503437 21.8782
-1.36375 -0.0931778 19.8078
-2.70985 -0.345485 17.0303
-2.18252 0.468344 19.0371
-0.841474 -0.0795572 19.3436
-3.92248 -0.390941 20.4982
-1.34111 -0.354248 21.2812
-2.29642 -0.335128 21.6094
-0.886835 -1.06627 20.9731
-0.452398 -0.433258 21.6671
-1.08666 -0.799544 21.2969
0.0433703 -0.207506 19.1551
0.373377 -0.225039 21.8306
0.535294 -0.078689 19.4368
1.33867 0.196506 16.394
1.05701 -0.271377 21.3513
0.376786 0.209705 3.38741
1.23347 -0.558217 19.4136
1.77874 -0.0298399 18.324
0.979846 -0.191532 20.6614
2.06978 0.597738 11.4957
1.39615 -0.765355 20.2011
1.45922 -0.189683 17.3409
-1.10832 0.491219 19.9688
-1.45943 1.73984 18.9309
-0.834336 0.871791 19.948
-0.758432 0.46485 19.4874
-1.9505 1.2584 20.2823
-1.34608 0.376048 20.9324
-2.37201 1.9271 20.619
-1.11734 0.949089 20.7823
-1.95004 0.566249 21.4478
-0.813577 0.0380581 21.6489
-2.16467 0.870711 22.4067
-0.7534 0.493038 21.6751
-0.512218 -0.0376107 22.0841
0.0648659 -0.269629 21.681
0.241373 -0.499156 21.1387
-0.02463 -0.199046 21.6483
0.350008 -0.637954 21.6831
0.470942 -0.519267 21.3728
0.403659 -0.95781 20.9777
0.21536 -0.486392 21.3351
0.556957 -0.850259 21.35
0.542765 -0.682606 21.0882
0.575532 -1.03855 20.2656
0.193772 -0.431 21.0328
0.433427 -0.675506 20.5778
1.66224 -1.5846 18.4779
0.00295302 -2.43832 18.3134
-0.030363 -2.5688 15.949
-0.0111092 -0.690939 18.7731
-0.00481681 -6.82029 22.1621
0.360558 -0.455061 17.3704
-0.00325165 -1.32487 21.6447
-0.00951411 -0.102144 10.0819
-0.297824 0.0516208 14.8428
-0.0127666 -0.252652 19.3348
-0.0213343 0.0487528 9.71973
-0.521443 0.488258 13.8166
-0.044403 0.37016 17.3258
-0.344743 0.429255 7.52242
-0.477167 1.03907 13.066
-0.278269 0.743403 15.8356
-0.987726 -0.294411 -0.370119
-0.815464 0.66392 7.36081
-1.06072 1.46981 15.604
-0.12629 1.52209 13.1353
0.495138 0.281882 2.75165
-0.0524146 1.17176 10.0798
2.71362 -0.350442 16.9326
-0.0418881 2.58963 14.3397
-0.0223785 -0.208318 18.0895
0.302486 0.772746 1.57412
-0.364015 0.266411 -0.143704
1.49985 -0.869272 -3.06178
-2.00947 0.622169 7.7009
-0.126742 -1.91719 0.950895
0.482153 0.127149 3.41352
1.45284 1.74257 18.9281
0.00319506 1.67895 19.4993
-0.00478342 0.925095 18.6728
0.0163848 4.14574 19.7068
2.36494 1.91557 20.6208
0.00307584 2.29079 20.4323
-0.00556474 5.5228 20.1541
2.17691 0.88539 22.3857
-0.0279328 1.60885 22.23
-0.0168238 0.336828 19.6628
-0.332036 -0.483223 20.7404
-0.0165095 -0.24958 21.8273
-0.0348439 -0.741839 15.8554
-0.457503 -0.836407 20.5356
-0.014257 -0.616457 21.4201
-0.0553849 -1.22155 17.7532
-0.574336 -1.10013 20.1246
0.0423255 -0.834583 20.8178
-0.112362 -1.12077 19.9771
1.07286 -0.408473 19.9363
1.19057 -0.816723 19.6543
1.76073 -0.709863 19.2279
0.667042 -0.341735 19.5537
2.4392 -1.51072 20.5276
0.951707 -0.539581 21.2509
0.875813 -0.829527 21.6189
1.15062 -1.01652 21.9726
0.225727 -0.530762 21.5785
0.181621 -0.308253 21.534
0.0393533 -0.212901 21.6016
-0.0199683 -0.490878 20.7851
-0.242649 -0.086924 21.3509
-0.371576 0.0163594 21.6524
-0.449525 0.277296 21.6307
-0.627524 0.165992 19.9972
-1.04318 0.645869 20.3975
-0.850694 0.191309 21.3412
-0.872942 0.680296 21.1535
-1.31655 0.545793 18.6949
-1.36455 0.699056 20.3079
-0.935643 0.136429 21.168
-1.01815 1.00456 20.7491
-1.56118 0.664324 19.4649
-1.06524 0.610563 20.9384
1.37572 -0.0976184 19.7832
2.20201 0.486416 19.0047
0.851523 -0.0834963 19.3194
3.93051 -0.390083 20.495
1.34021 -0.350848 21.2782
2.29058 -0.335329 21.6052
0.88985 -1.06343 20.9958
0.449837 -0.428376 21.6575
1.08 -0.787963 21.3024
-0.0376199 -0.224659 19.2678
-0.350072 -0.211876 21.7866
-0.531974 -0.0521621 19.4681
-1.18045 0.221098 16.2017
-0.939448 -0.25232 21.4017
-1.11492 -0.317045 19.0115
-1.62825 0.0534348 17.4377
-1.07905 -0.351825 21.0906
-1.24933 -0.700607 19.3605
-1.57683 -0.252234 18.4655
1.10454 0.493129 19.9655
0.83343 0.858951 19.9524
0.754279 0.468928 19.4718
1.93506 1.23713 20.2828
1.33675 0.376145 20.9271
1.11054 0.939863 20.7803
1.94142 0.566934 21.441
0.812677 0.0412107 21.6421
0.751052 0.51605 21.6785
0.508444 -0.0213625 22.0848
-0.0696162 -0.259225 21.6711
0.00604034 -0.193631 21.6392
-0.353197 -0.589037 21.6628
-0.44706 -0.482787 21.296
-0.235831 -0.463041 21.3658
-0.532753 -0.807274 21.4739
-0.646899 -0.643321 20.9882
-0.12052 -0.443519 21.1148
-0.526553 -0.702119 20.5111
-1.46223 -0.783147 19.4757
-0.978105 -0.894631 21.7896
0.0367919 -0.308396 21.4735
0.60402 0.270878 21.1441
1.30508 0.785361 20.5332
1.35204 0.759237 20.8921
-2.1343 -0.196937 19.0264
-1.76834 -0.891511 22.1438
-0.354886 -0.710395 19.8805
0.561731 0.214859 18.1358
1.57926 -0.0206156 17.774
1.58031 -0.0883592 20.0902
-1.42002 0.96746 19.5624
-1.91992 0.817249 20.9197
-1.3124 0.231466 21.9998
0.0747649 -0.366607 21.9485
0.474089 -0.744073 21.3884
0.662602 -0.805586 20.7774
-0.0118174 -2.70609 17.2223
-0.00425947 -0.4333 12.2919
-0.0131312 -0.0310563 9.57661
-0.0676759 0.394365 8.79869
-0.838063 0.232685 7.15708
0.0882031 1.33078 8.30192
-0.0375465 -0.517177 14.1062
0.406329 -0.323693 -2.28351
0.794717 -1.22188 -2.81257
-0.00101384 2.75349 18.1737
0.0065642 3.51572 20.0177
-0.0237115 2.62138 21.4957
-0.015731 -0.567006 16.6209
-0.0346032 -0.843205 16.7308
0.0361211 -1.08167 18.3217
1.46539 -0.800121 19.4568
0.975288 -0.893411 21.7689
-0.0373288 -0.317442 21.4808
-0.602826 0.240958 21.0741
-1.14296 0.674736 20.3231
-1.26281 0.987475 20.6771
2.17444 -0.202031 18.986
1.76712 -0.891092 22.1357
0.360116 -0.714651 19.9557
-0.543125 0.200294 18.2167
-1.26379 0.105781 16.9144
-1.72453 0.0110356 18.5912
1.41423 0.966469 19.5602
1.90561 0.811882 20.9159
1.31477 0.245371 21.9974
-0.0916851 -0.350313 21.9487
-0.471119 -0.668089 21.3881
-0.570569 -0.829621 20.9968
-1.49166 -0.10368 1.42554
0 0 0
0.0111855 -0.238894 1.71358
0.114296 -0.00193219 0.34558
-0.0163754 0.0176457 0.0402254
-0.0018664 0.104044 0.597715
-2.34168 0.606077 2.81897
-0.00688131 0.0173622 0.0709006
-0.0840042 -0.0131618 0.436023
-0.019401 -0.00130846 -0.016502
-0.0208403 0.00419782 -0.0231993
0.0610377 0.0249405 0.567252
0 0 0
1.4995 -0.105574 1.43306
-0.0119777 -0.18879 1.56727
0.00496124 0.0112723 0.0263526
-0.0814025 0.00131048 0.273353
-0.00374056 0.0929839 0.571116
0.00692809 0.0177952 0.0724824
2.28014 0.599847 2.73845
0.0832784 -0.013077 0.432188
-0.0230761 0.0126223 -0.0392377
0.0220865 0.00617475 -0.0190911
-0.0818798 0.0450428 0.558833
0.00797639 0.00724891 0.143737
0.0178109 -0.00667766 0.401235
0 0 0
0.00270573 -3.53792e-05 0.0284765
0.0161266 0.00846486 0.533777
0.00247335 0.00187532 0.275635
0 0 0
0.00136318 0.000211574 0.0330558
-0.170765 -0.147333 0.505704
-0.00123769 0.000328474 0.0320115
0 0 0
-0.0222833 0.0190277 0.049556
0 0 0
0.00267263 0.0120547 0.0501372
0 0 0
0.0296814 0.00811578 0.196633
-0.00743459 0.00517147 0.151552
-0.00281876 -3.19546e-05 0.0286432
-0.0184128 -0.00697969 0.401214
1.35771e-18 7.62052e-19 1.57195e-16
-0.0188921 0.00850983 0.538349
-0.00171531 0.000231438 0.0331203
-0.00350864 0.00157759 0.27536
0 0 0
0.170355 -0.147027 0.505366
0.0224089 0.0192426 0.050048
0.00124096 0.000298615 0.0318951
0 0 0
0 0 0
-0.0304334 0.00838697 0.196329
-0.00284083 0.0127814 0.0522382
0 0 0
-0.0152509 -0.0104623 0.136055
-0.333565 0.00101758 0.193118
-3.59661e-05 -0.000479393 0.0263876
-0.00681144 -0.631782 0.251549
-1.62302e-05 -0.000172664 0.00438937
0.000565327 -0.000129704 0.0204242
0.00107652 -0.000414847 0.00983048
0 0 0
-0.000937139 0.000688085 0.0146877
-0.00708476 -0.00160936 -0.000966801
0 0 0
0 0 0
-0.0119253 0.637175 0.314985
-1.37568e-05 0.00804981 0.0395569
-0.00330454 -0.147444 0.722284
-0.0127986 0.00457612 0.0363962
-0.0260388 0.0249344 -0.00392995
-0.000269955 0.000427618 -0.00303363
0 0 0
-0.0011366 0.000176429 -0.000635047
0.333204 0.00137544 0.193067
0.015186 -0.01031 0.136057
-0.000573879 -0.000127978 0.0205366
1.62536e-05 -0.000176358 0.00440213
0 0 0
-0.00100011 -0.000226056 0.00905367
0 0 0
0 0 0
0.0128554 0.00462475 0.0367371
0.00366418 -0.147004 0.721333
0.00082387 -0.000291757 0.000611563
0 0 0
0 0 0
0.000715352 5.7736e-05 0.0139338
5.03336e-05 -0.000512937 0.00315154
-0.0022606 0.00915119 0.118765
-1.07262e-06 8.42284e-06 0.000620849
0 0 0
2.75101e-05 0.00261367 0.018203
-0.00145788 0.00502455 0.0431797
2.35956e-07 -4.35888e-07 -6.53813e-05
-6.00333e-08 7.46654e-08 8.53156e-06
0 0 0
0.0198576 0.100601 1.35445
0 0 0
-0.000321294 0.320014 0.816193
-1.29556e-05 0.000131262 0.00756522
-0.000104782 -0.00262484 0.00919963
-0.000791057 6.22692e-05 0.0140071
0 0 0
-4.40694e-05 -0.000452943 0.00277721
0.00225075 0.00902148 0.118624
-2.80645e-05 0.00260046 0.0180724
0.00131042 0.00482133 0.0405191
-0.0239634 0.101818 1.35541
0 0 0
-0.0117019 -0.00960678 0.122279
-0.208806 -0.0697871 1.01807
0 0 0
-0.000343866 -0.00124922 0.00544285
0 0 0
2.34825e-06 0.0114141 0.0654305
0 0 0
0.00171088 0.01269 0.0536357