# vtk DataFile Version 2.0
tri_press
ASCII
DATASET UNSTRUCTURED_GRID
POINTS 3682 float
-0.704691 0.025 -2.095
-0.775 0.175 2.16347
-0.765 0.435 -2.10598
-0.665 0.963201 2.135
0.704691 0.025 -2.095
0.775 0.175 2.16347
0.765 0.435 -2.10598
0.665 0.963201 2.135
-0.73531 0.0678171 -0.67551
-0.761209 0.115355 0.74398
-0.864652 0.744052 -0.69232
-0.806744 0.895545 0.72134
0.736386 0.0667417 -0.67551
0.761099 0.115465 0.74398
0.864665 0.744065 -0.69232
0.806751 0.895552 0.72134
-1.48697 -0.41011 -3.21946
-1.48724 -0.290632 -2.0862
-1.50518 -0.245284 -0.666558
-1.5068 -0.23086 0.754257
-1.49997 -0.186578 2.174
-1.50639 -0.122959 3.30774
-1.51793 -0.0450453 4.44058
-1.49049 -0.13204 -3.22704
-1.49772 0.0161769 -2.09442
-1.52692 0.0956431 -0.675915
-1.51477 0.136945 0.743117
-1.4882 0.189195 2.16173
-1.50246 0.253081 3.29539
-1.52017 0.329243 4.42843
-1.5199 0.378476 -3.24058
-1.55721 0.522323 -2.10772
-1.6198 0.761212 -0.693184
-1.55369 0.896359 0.720936
-1.44238 0.96784 2.13558
-1.48259 1.02676 3.26948
-1.52333 1.09424 4.40345
-1.54251 1.32652 -3.26526
-1.56551 1.49268 -2.13328
-1.59642 1.7501 -0.720633
-1.5921 1.96379 0.690752
-1.56296 2.0954 2.10345
-1.55547 2.16844 3.23557
-1.56511 2.23455 4.36891
-0.726238 -0.406551 -3.21983
-0.72011 -0.28252 -2.08675
-0.735499 -0.257835 -0.666484
-0.748415 -0.248525 0.754994
-0.755675 -0.201461 2.17528
-0.765017 -0.134749 3.30861
-0.774174 -0.0541151 4.44109
-0.722943 -0.138595 -3.22716
-0.773485 0.243216 3.29611
-0.781599 0.321283 4.42881
-0.742067 0.339579 -3.23986
-0.754617 1.02205 3.26936
-0.788521 1.08969 4.40343
-0.756576 1.29875 -3.26455
-0.771844 1.46601 -2.13249
-0.805363 1.74068 -0.72016
-0.821224 1.96696 0.690695
-0.812408 2.09931 2.10305
-0.810318 2.17031 3.23516
-0.819554 2.23493 4.36861
0.755108 -0.406703 -3.21983
0.732502 -0.282763 -2.08675
0.750923 -0.258547 -0.666484
0.770628 -0.248603 0.754994
0.774579 -0.201466 2.17528
0.739962 -0.134774 3.30861
0.721029 -0.0541601 4.44109
0.755798 -0.138679 -3.22716
0.716118 0.243201 3.29611
0.703769 0.321247 4.42881
0.78048 0.339531 -3.23986
0.674821 1.02204 3.26936
0.679147 1.08966 4.40343
0.809642 1.29865 -3.26455
0.813622 1.46592 -2.13249
0.794688 1.74059 -0.72016
0.741922 1.96688 0.690695
0.693381 2.09926 2.10305
0.677302 2.17026 3.23516
0.670132 2.23487 4.36861
1.50988 -0.410464 -3.21946
1.4934 -0.291164 -2.0862
1.51604 -0.246267 -0.666557
1.5306 -0.231161 0.754257
1.52192 -0.18663 2.174
1.49428 -0.123031 3.30774
1.47472 -0.0451501 4.44058
1.51128 -0.132289 -3.22704
1.49287 0.0158511 -2.09442
1.52665 0.0946089 -0.675915
1.52723 0.136728 0.743117
1.50053 0.189192 2.16173
1.47064 0.253035 3.29539
1.45619 0.329156 4.42843
1.54576 0.378318 -3.24058
1.55496 0.522211 -2.10772
1.61602 0.760856 -0.693184
1.55568 0.896194 0.720935
1.4396 0.96783 2.13558
1.42491 1.02672 3.26948
1.42745 1.09416 4.40345
1.58716 1.3263 -3.26526
1.59535 1.49247 -2.13328
1.58279 1.74989 -0.720634
1.5245 1.96362 0.690751
1.45947 2.09528 2.10345
1.43296 2.16832 3.23557
1.42276 2.23443 4.36891
-0.72719 0.23 -2.09283
0 0.0214161 -2.09858
-0.713581 0.0528281 -1.38526
-0.755308 0.5691 2.18454
0 0.178277 2.16019
-0.765774 0.147508 1.45373
0 0.519682 -2.19066
-0.871069 0.645769 -1.39915
0 1.00862 2.18042
-0.771413 0.964914 1.42817
0.727213 0.23 -2.09286
0.715501 0.0509084 -1.38526
0.755339 0.5691 2.18457
0.765777 0.147505 1.45373
0.871085 0.645785 -1.39915
0.77142 0.96492 1.42817
-0.752927 0.0869185 0.034235
-0.889403 0.405934 -0.683915
0.000537719 0.0529491 -0.67551
-0.893166 0.50545 0.73266
-5.51192e-05 0.0892829 0.74398
-0.843514 0.827614 0.01451
6.71715e-06 1.0707 -0.69232
3.53507e-06 1.37983 0.72134
0.753307 0.0865384 0.034235
0.889372 0.405403 -0.683915
0.893169 0.505508 0.73266
0.843524 0.827625 0.01451
-0.889449 0.317967 -1.3922
0.889164 0.317702 -1.3922
0.00026886 0.0465717 -1.38526
3.35858e-06 0.828822 -1.39915
0 0.23 -2.15161
-0.893025 0.455692 0.0243725
0.893032 0.455456 0.0243725
0.0002413 0.0635997 0.034235
5.12611e-06 1.36109 0.01451
-0.895775 0.537275 1.44095
0.895775 0.537304 1.44095
-2.75596e-05 0.137224 1.45373
1.76753e-06 1.19256 1.42817
0 0.5691 2.28979
-0.723362 0.1275 -2.10134
-0.352345 0.0214226 -2.09858
-0.703545 0.0445047 -1.74013
-0.790981 0.37205 2.19983
-0.3875 0.17163 2.16684
-0.777402 0.154239 1.8086
-0.752205 0.3325 -2.10552
-0.3825 0.515421 -2.1864
-0.834517 0.556867 -1.75256
-0.702702 0.766151 2.15232
-0.3325 1.00051 2.17231
-0.731765 0.977616 1.78159
0.352345 0.0214159 -2.09858
0.723371 0.1275 -2.10135
0.705976 0.0420744 -1.74013
0.3875 0.171537 2.16693
0.790896 0.37205 2.19975
0.777264 0.154377 1.8086
0.3825 0.515558 -2.18654
0.75222 0.3325 -2.10553
0.834541 0.556891 -1.75256
0.3325 1.0005 2.1723
0.702588 0.766151 2.15221
0.73177 0.977621 1.78159
-0.721003 0.0637654 -1.03038
-0.742921 0.0785651 -0.320638
-0.847865 0.219122 -0.679713
-0.37133 0.0524962 -0.67551
-0.75838 0.136542 1.09885
-0.761128 0.0970767 0.389108
-0.873764 0.287114 0.73832
-0.398096 0.0673901 0.74398
-0.863666 0.690717 -1.04574
-0.887746 0.580353 -0.688118
-0.855494 0.787245 -0.338905
-0.490809 1.02435 -0.69232
-0.790361 0.931512 1.07476
-0.881411 0.716225 0.727
-0.829737 0.866187 0.367925
-0.508999 1.34894 0.72134
0.722568 0.0622001 -1.03038
0.372557 0.0516555 -0.67551
0.743773 0.0777134 -0.320638
0.847603 0.218711 -0.679713
0.758551 0.136372 1.09885
0.39825 0.0669176 0.74398
0.76135 0.0968545 0.389108
0.87378 0.287164 0.73832
0.863664 0.690714 -1.04574
0.490675 1.02406 -0.69232
0.887753 0.580102 -0.688118
0.855499 0.787249 -0.338905
0.790167 0.931318 1.07476
0.509001 1.34894 0.72134
0.88141 0.716255 0.727
0.829815 0.866266 0.367925
-0.886656 0.273984 -1.74252
-0.363595 0.23 -2.2005
0.00013443 0.0421444 -1.74192
0 0.125708 -2.25634
-0.897609 0.185398 -1.38873
-0.356656 0.0377513 -1.38526
-0.865697 0.553188 1.81275
-0.377654 0.5691 2.26614
-1.37798e-05 0.144745 1.80696
0 0.373689 2.31207
-0.886207 0.342392 1.44734
-0.382901 0.0920212 1.45373
1.67929e-06 0.750526 -1.79491
0 0.374841 -2.32149
-0.893627 0.481868 -1.39568
-0.435533 0.803526 -1.39915
8.83767e-07 1.04393 1.8043
0 0.788862 2.2241
-0.861811 0.751094 1.43456
-0.385706 1.16892 1.42817
0.886649 0.273851 -1.74253
0.363606 0.23 -2.20133
0.89767 0.184305 -1.38873
0.357885 0.0367079 -1.38526
0.865682 0.553202 1.81276
0.37767 0.5691 2.26617
0.886204 0.342405 1.44734
0.382875 0.0917988 1.45373
0.893627 0.481743 -1.39568
0.435544 0.803532 -1.39915
0.861805 0.751112 1.43456
0.385711 1.16896 1.42817
-0.865151 0.250218 0.0293038
-0.381739 0.0644672 0.034235
-0.885403 0.361951 -1.03806
-0.89149 0.430813 -0.329771
0.00040329 0.0572702 -1.03038
0.00038951 0.0609697 -0.320638
-0.894658 0.480571 0.378516
-0.894968 0.521362 1.0868
9.30905e-05 0.0838468 0.389108
-4.13394e-05 0.139073 1.09885
-0.886828 0.650933 0.0194413
-0.536098 1.32304 0.01451
5.03787e-06 0.865848 -1.04574
5.92163e-06 1.27564 -0.338905
4.33059e-06 1.38366 0.367925
2.6513e-06 1.33221 1.07476
0.865083 0.25004 0.0293038
0.383365 0.0618881 0.034235
0.885355 0.361553 -1.03806
0.891498 0.43043 -0.329771
0.894665 0.480482 0.378516
0.89497 0.521406 1.0868
0.886855 0.650829 0.0194413
0.536106 1.32304 0.01451
-0.889141 0.156449 -1.74132
-0.859658 0.211137 -1.03422
-0.885167 0.528431 -1.0419
-0.88497 0.407184 -1.74754
0.889139 0.155903 -1.74133
0.884816 0.407122 -1.74755
0.885168 0.528239 -1.0419
0.859488 0.210189 -1.03422
-0.354501 0.0319616 -1.74102
0.355115 0.0312988 -1.74102
0.363173 0.0472292 -1.03038
-0.362021 0.0482931 -1.03038
-0.409016 0.732582 -1.77374
-0.433928 0.837089 -1.04574
0.43394 0.837072 -1.04574
0.409022 0.732569 -1.77374
-0.35797 0.126604 -2.2354
-0.373048 0.35367 -2.27922
0.373053 0.35367 -2.2801
0.357976 0.126604 -2.23544
-0.857487 0.23418 -0.325204
-0.870136 0.268326 0.383812
-0.886781 0.684909 0.373221
-0.888737 0.616368 -0.334338
0.857304 0.233895 -0.325204
0.888775 0.616201 -0.334338
0.886794 0.684873 0.373221
0.870131 0.268252 0.383812
-0.375751 0.0600476 -0.320638
0.377055 0.0585839 -0.320638
0.390236 0.0655452 0.389108
-0.389583 0.0665979 0.389108
-0.535706 1.2182 -0.338905
-0.528129 1.34715 0.367925
0.528119 1.34712 0.367925
0.535521 1.21781 -0.338905
-0.887812 0.326397 1.09283
-0.863904 0.357221 1.81067
-0.833829 0.758623 1.79717
-0.876909 0.725796 1.08078
0.887811 0.326446 1.09283
0.876902 0.725821 1.08078
0.833823 0.758632 1.79717
0.863908 0.357228 1.81068
-0.381766 0.0853533 1.09885
0.381698 0.0849416 1.09885
0.385187 0.104548 1.80778
-0.3852 0.104198 1.80778
-0.394538 1.30296 1.07476
-0.359103 1.03201 1.79294
0.359105 1.03199 1.79294
0.394544 1.30296 1.07476
-0.382577 0.372869 2.29491
0.382585 0.372869 2.29492
0.355085 0.777506 2.20951
-0.355077 0.777506 2.2095
-0.708772 0.07625 -2.09291
-0.528518 0.0214341 -2.09857
-0.698366 0.0405044 -1.91756
-0.772134 0.273525 2.1708
-0.58125 0.18015 2.15832
-0.77972 0.1611 1.98603
-0.759571 0.38375 -2.10672
-0.57375 0.476325 -2.1473
-0.792833 0.489008 -1.92927
-0.684729 0.864676 2.14454
-0.49875 0.991174 2.16297
-0.703458 0.975483 1.95829
0.528518 0.0214275 -2.09857
0.708746 0.07625 -2.09289
0.699893 0.0389772 -1.91756
0.58125 0.18015 2.15832
0.772103 0.273525 2.17076
0.780034 0.160786 1.98603
0.57375 0.476327 -2.14731
0.759636 0.38375 -2.10678
0.792615 0.48879 -1.92927
0.49875 0.991133 2.16293
0.684713 0.864676 2.14452
0.703576 0.975602 1.95829
-0.725946 0.0680022 -0.852946
-0.738147 0.0741597 -0.498074
-0.83367 0.122428 -0.677611
-0.550608 0.0655802 -0.67551
-0.763543 0.1222 0.921416
-0.7635 0.103884 0.566544
-0.844292 0.187832 0.74115
-0.575473 0.0997308 0.74398
-0.865366 0.718591 -0.869028
-0.876915 0.66256 -0.690219
-0.861368 0.766943 -0.515613
-0.725564 0.979868 -0.69232
-0.798345 0.913321 0.898048
-0.867511 0.817601 0.72417
-0.81834 0.880965 0.544633
-0.672103 1.15071 0.72134
0.727348 0.0665998 -0.852946
0.553003 0.0621347 -0.67551
0.738565 0.073742 -0.498074
0.83351 0.121968 -0.677611
0.763336 0.122407 0.921416
0.573195 0.104149 0.74398
0.763452 0.103932 0.566544
0.844291 0.187888 0.74115
0.865374 0.718599 -0.869028
0.725526 0.979775 -0.69232
0.876942 0.66245 -0.690219
[...]
POINT_DATA 3682
SCALARS point_scalars float 1
LOOKUP_TABLE default
-140.791
-46.0293
-15.9684
-40.6719
-139.657
-45.1006
-16.149
-40.1493
-43.0931
-31.5235
-59.9547
-53.7627
-43.2739
-31.5774
-59.9378
-53.7603
-69.9028
-98.6393
-43.1967
-48.9619
-44.811
-46.0462
-37.1109
10.2143
-94.241
-42.1178
-42.0626
-45.1225
-40.2889
-36.892
55.7828
-79.5197
-52.894
-49.4986
-44.8567
-39.1708
-37.1568
-16.4298
-49.6559
-100.763
-64.8941
-44.2145
-40.6153
-40.0227
-87.3284
-204.999
-44.419
-41.0383
-43.185
-39.704
-35.4119
104.124
-35.856
-35.6044
168.203
-37.4778
-36.1702
143.417
-54.5349
-79.7558
-71.6101
-41.7114
-39.1149
-37.7608
-79.4699
-197.139
-44.5576
-39.0225
-43.3325
-37.0851
-34.5734
104.447
-34.8925
-33.7939
156.491
-36.6361
-34.6245
102.593
-55.5844
-79.8198
-71.6857
-41.1398
-38.4188
-37.3794
-129.756
-97.4677
-43.4236
-37.1192
-43.8622
-45.1367
-36.3167
10.5505
-94.056
-42.1267
-41.5524
-44.4164
-39.0138
-36.0759
53.0388
-79.4968
-52.8904
-49.4441
-44.2513
-38.3985
-36.4347
-16.6274
-50.6025
-100.766
-64.2528
-44.1106
-40.0021
-39.5248
4.84504
-144.61
-60.0172
-39.3706
-33.7346
-38.2972
106.999
-64.0385
-39.2709
-52.065
5.60118
-59.8875
-38.6587
-38.0734
-64.0872
-51.9613
-37.5288
-44.421
-43.6408
-43.5617
-40.3641
-56.5548
24.5653
-75.1386
-37.6795
-44.4188
-43.4469
-56.4836
-64.3969
-64.4637
-62.9013
-7.6347
196.862
-43.1754
-43.154
-38.3504
-104.905
-47.1521
-46.8839
-36.8239
-48.3165
-33.4666
-12.1638
-163.418
-83.9952
-41.0195
-38.724
-40.594
0.521052
95.2515
-57.4401
-39.0921
-38.2528
-45.9927
-163.08
-11.82
-84.2135
-37.9157
-40.1799
-40.0777
94.9204
-2.48222
-57.4057
-38.0975
-38.4294
-45.7935
-45.6823
-38.5241
-41.6161
-43.0365
-39.4133
-37.3547
-37.1696
-39.6452
-48.9177
-50.0189
-59.102
6.36519
-52.3995
-47.5231
-53.486
-70.9026
-45.7042
-43.0423
-38.5292
-41.6361
-39.2318
-39.3459
-37.3973
-37.0484
-48.925
6.58618
-50.0095
-59.0752
-52.3202
-70.8838
-47.4447
-53.5725
-92.7047
189.188
-87.9301
123.322
-63.9356
-61.9923
-46.1759
-36.3848
-37.2458
-25.6331
-44.331
-37.5172
-31.85
202.443
-65.5905
-15.8649
-42.849
-34.5804
-48.9203
-49.2467
-92.6379
188.251
-64.1489
-61.9043
-45.6899
-35.689
-44.0116
-37.4479
-65.6284
-15.8157
-48.6845
-49.2245
-39.6436
-37.7266
-50.2113
-43.9567
-49.9581
-39.961
-43.014
-44.5547
-39.0319
-36.8616
-48.037
-92.3348
16.2405
-55.2892
-86.4581
-61.1894
-39.6587
-37.9789
-50.2646
-43.9403
-42.9592
-44.3736
-48.0028
-92.3014
-92.4436
-50.0755
-50.0317
-87.3428
-92.1734
-87.2252
-50.064
-50.1349
-86.5133
-86.5463
-48.6569
-48.8215
-32.486
4.63985
4.6929
-32.5068
110.905
187.901
189.278
110.835
-40.444
-39.034
-48.375
-49.9154
-40.4419
-49.8903
-48.317
-38.9995
-39.4885
-39.5187
-38.025
-37.9075
-73.2796
-74.8427
-74.7633
-73.491
-43.7936
-44.7495
-46.5172
-47.7772
-43.5843
-47.6249
-46.0908
-44.2558
-37.6762
-37.6
-38.5882
-39.0175
-62.1545
-43.2076
-43.1605
-62.1436
-33.6951
-32.4086
-35.6284
-36.1568
-46.975
-190.957
-114.337
-43.7286
-40.0833
-44.0379
-7.0539
62.6614
-57.8928
-39.9825
-38.4971
-43.5853
-189.187
-44.804
-114.518
-39.1596
-42.8646
-43.3601
62.7563
-7.16844
-57.9039
-38.1593
-39.3063
-43.2918
-41.5239
-40.0458
-41.5449
-41.9607
-48.1885
-37.0807
-31.7059
-39.9276
-54.4826
-54.528
-60.2046
-63.5222
-52.9611
-50.4914
-54.8404
-60.2815
-41.5675
-42.0583
-40.026
-41.6016
-47.628
-39.5813
-37.0395
-31.6505
-54.5206
-65.5573
-54.5157
-60.1541
-52.9179
-60.6448
-50.4483
-54.7991
0.0432172
12.9784
-95.7599
112.182
-152.676
-152.121
-108.177
26.0387
-69.8326
-53.7216
-64.0415
-60.7208
-40.3303
-38.8366
-45.4113
-37.0195
-35.1249
-34.4853
-36.97
-27.1697
-40.02
-38.5174
-42.6468
-39.0105
104.037
103.936
-56.1465
146.38
-71.7263
-53.1791
-67.5507
-29.069
-38.8556
-38.8157
-40.8755
-36.0917
-49.6905
-52.381
-49.6516
-51.3708
-0.0582815
14.2564
-95.7152
112.786
-70.0141
-53.8881
-63.8875
-60.7361
-39.5116
-38.1158
-44.753
-36.4234
-39.652
-38.3732
-42.3374
-38.8337
-71.7033
-53.1637
-67.5994
-29.0108
-49.5964
-52.2405
-49.4763
-51.3206
-37.9385
-37.2639
-38.4975
-37.2127
-42.6952
-46.8074
-45.2258
-44.2515
-43.3893
-43.422
-46.3489
-41.6939
-41.4362
-45.295
-43.24
-43.3462
-40.055
-40.2677
-38.0853
-39.8334
-57.7866
-55.3096
-51.5118
-69.7005
21.9345
21.9786
29.3677
-1.02641
-74.4219
-74.3933
-81.9981
-69.268
-38.1362
-37.3953
-38.5224
-37.4637
-42.7053
-46.8022
-45.2452
-44.2358
-41.3123
-45.1911
-43.1606
-43.2065
-57.7121
-55.2646
-51.465
-69.6196
-73.7618
-64.3213
-65.2722
-57.449
-73.7417
-64.5033
-65.3214
-57.4885
-72.1743
-62.8281
-62.5276
-55.9896
-20.077
-9.56672
-9.53714
2.60951
194.675
178.537
197.03
194.368
-41.0469
-43.5667
-42.8895
-45.3116
-41.0393
-43.5495
-42.8541
-45.2845
-38.1139
-39.3163
-38.0659
-38.2495
-102.663
-113.007
-94.6907
-102.606
-47.3506
-45.5139
-49.0074
-45.3888
-46.9728
-45.2228
-48.7349
-45.1624
-37.283
-37.2404
-37.1369
-35.7854
-45.1261
-48.6062
-48.6006
-53.1785
-34.646
-26.1067
-33.0614
-34.162
-93.9456
87.0861
-109.257
-3.16674
-85.2392
-84.9006
-45.0753
-35.9494
-41.2448
-36.0702
-44.1742
-39.4694
-86.7655
129.792
-51.3884
144.545
-75.5685
-36.0859
-45.5519
-36.6971
-40.899
-36.6006
-46.6114
-43.9926
-109.19
-2.71805
-93.826
87.5631
-84.2229
-85.0615
-40.6031
-34.3695
-44.39
-35.099
-43.6623
-38.9973
-51.3658
142.778
-86.7301
130.245
-75.4678
-35.9694
-40.8121
-36.2165
-44.9571
-36.0897
-46.2758
-43.9087
-50.3229
-47.1243
-39.106
-38.809
-42.8118
-40.7405
-45.7278
-41.1666
-42.5099
-38.7782
-38.219
-37.3578
-38.3751
-43.1451
-38.4681
-39.9309
-50.3989
-14.7707
-49.1992
-50.3328
-53.9374
-84.7449
14.6017
-19.5715
-49.6892
-63.9999
-47.8492
-47.2378
-51.0052
-61.8586
-73.2475
-68.5218
-50.447
-47.1502
-45.7144
-41.1982
-39.1193
-38.8568
-42.8272
-40.7437
-42.3436
-38.6294
-38.3946
-39.5985
-38.1821
-37.5438
-38.3121
-42.9399
-50.4226
-14.8233
14.7027
-19.5972
-49.215
-50.3015
-53.9054
-84.7116
-49.5486
-63.9355
-73.5398
-68.4581
-47.7871
-47.1391
-50.9485
-61.6766
-93.1432
-89.9928
157.667
186.465
-87.7411
-87.7323
117.079
117.078
-74.4295
-57.7265
-71.2841
-55.4281
-45.5076
-46.4213
-34.2376
-35.5895
-37.3675
-37.7602
-29.2769
-28.0772
-43.316
-46.1348
-36.2086
-38.7217
-31.5393
-31.502
200.065
199.851
-56.6409
-76.3474
-25.514
-6.8559
-42.9694
-42.9862
-34.91
-35.2491
-47.8583
-48.7064
-54.2585
-45.6711
-93.0524
-89.9681
189.198
156.988
-74.467
-57.7619
-71.239
-55.5073
-45.9543
-45.0071
-33.0198
-34.8858
-43.0772
-45.7612
-36.1909
-38.276
-76.3958
-56.6248
-6.8144
-25.4656
-48.5141
-47.5446
-45.6099
-54.2324
-40.1261
-39.3988
-38.4258
-37.7155
-50.3438
-49.9682
-41.8351
-46.5436
-49.7186
-49.7393
-39.8676
-39.941
-40.9258
-45.1691
-44.0906
-45.6182
-38.7726
-38.3998
-37.4199
-37.3807
-46.8975
-49.0794
-101.509
-81.0646
13.242
13.2822
-51.268
-50.9598
-84.359
-84.4703
-61.1053
-61.0873
-40.1375
-39.3939
-38.5595
-37.9322
-50.0004
-50.4257
-41.8298
-46.5221
-45.1148
-40.8797
-43.8767
-45.4475
-49.0588
-46.8586
-80.9506
-101.606
-98.3548
-73.9228
-74.0535
-93.4419
-42.2852
-43.9374
-57.6974
-56.4085
-52.2651
-57.3081
-56.6929
-46.8362
-74.8657
-94.1171
-73.9484
-83.7178
-97.5466
-93.4189
-74.0342
-73.9251
-74.8406
-83.7446
-73.969
-94.0489
-52.2824
-46.8545
-56.7132
-57.2833
-42.1622
-56.3123
-57.6554
-43.9565
-110.216
-108.786
-72.2977
-70.1367
-110.088
-70.1805
-71.9167
-108.978
-44.506
-46.3081
-55.8437
-54.4669
-44.4617
-54.3078
-55.832
-46.2918
-36.4214
-35.8481
-21.1127
-52.3809
-28.7142
25.7617
0.980123
-21.1235
-29.2089
-21.0525
1.0125
25.8052
-35.1496
-52.3098
-21.0387
-35.6984
11.9195
114.119
176.955
-13.923
120.301
149.212
195.125
106.371
120.508
106.982
194.945
149.294
14.6042
-13.8118
177.039
114.759
-39.6258
-38.778
-41.3997
-42.1472
-37.0849
-40.8068
-40.9369
-38.4148
-50.6226
-50.3551
-44.9233
-45.3683
-54.6488
-46.8041
-45.906
-52.6918
-39.6284
-42.1441
-41.3979
-38.801
-54.6016
-52.6648
-45.8871
-46.7841
-50.5775
-45.2942
-44.8839
-50.3071
-37.0345
-38.4089
-40.9115
-40.7284
-40.4713
-41.6282
-38.7862
-37.8778
-40.5308
-38.0828
-38.8756
-41.6577
-38.0474
-38.4085
-38.3971
-37.4432
-38.0335
-37.1765
-38.0533
-38.9521
-97.9842
-75.9538
-109.982
-1.93618
-64.2069
-80.3087
-92.712
-64.6586
-64.1813
-64.5352
-92.6627
-80.334
-97.9674
-1.9176
-109.933
-75.9008
-47.0162
-41.8816
-44.3279
-42.2286
-45.2573
-45.0012
-46.7319
-46.3436
-45.2941
-48.221
-47.7507
-45.6921
-50.2461
-44.9992
-46.9714
-50.4332
-46.4501
-42.072
-44.0949
-41.6793
-50.1767
-50.2789
-46.7585
-44.8822
-44.7861
-45.0447
-47.3999
-47.9768
-44.5875
-45.9722
-46.3488
-44.3337
-40.0464
-40.0479
-35.2481
-38.0655
-39.4253
-37.955
-35.3678
-39.6899
-42.8153
-37.4941
-37.472
-37.8483
-43.3394
-38.1992
-37.6317
-37.98
-58.6535
-56.9553
-53.3931
-68.8479
-41.2957
-40.9044
-45.3238
-47.0733
-41.1268
-47.0331
-45.3214
-40.8777
-58.457
-68.9403
-53.3789
-56.9079
-36.9708
-30.1463
-29.4645
-35.9827
-36.0599
-35.1547
-28.3072
-29.0402
-36.3138
-36.1368
-33.4165
-35.8376
-36.8606
-36.5199
-33.9181
-36.3416
-80.1434
-174.926
-163.138
-45.3472
-42.7319
-42.787
-10.9989
40.2812
-51.0952
-40.5501
-39.3204
-42.0837
-172.031
-78.7643
-162.757
-41.9149
-44.4647
-42.1427
40.1575
-11.1049
-51.1556
-38.8699
-39.9215
-41.6896
-43.1493
-40.9831
-43.0867
-41.6829
-39.4354
-35.995
-28.9929
-38.1242
-57.4599
-57.096
-60.179
-80.8044
-52.9659
-52.9126
-54.5486
-57.4182
-43.1862
-41.8078
-41.0372
-43.1938
-38.9618
-37.956
-35.9669
-29.2782
-57.4831
-80.7052
-57.081
-60.1611
-52.9991
-57.489
-52.8626
-54.5116
-2.14541
4.552
-97.7196
95.797
-151.5
-153.327
-126.886
-117.753
-64.497
-56.338
-63.8643
-60.252
-39.8308
-38.8178
-44.3158
-37.3394
-34.4054
-34.0514
-35.6584
-29.1343
-38.8804
-38.2275
-40.808
-37.7586
105.922
105.937
-24.1093
97.8927
-68.7103
-58.8104
-66.2625
-45.7463
-39.0527
-39.0367
-39.9071
-37.9175
-50.3939
-52.0065
-50.5445
-54.0755
-2.18933
5.12247
-97.5923
95.424
-64.4077
-56.4742
-63.188
-59.9651
-39.0699
-38.1254
-43.566
-36.715
-38.6102
-38.0535
-40.5255
-37.5803
-69.6133
-58.8348
-66.3164
-45.7509
-50.2853
-51.8969
-50.4113
-54.0303
-37.5491
-37.3807
-37.885
-37.3345
-43.408
-45.5796
-44.5673
-44.3466
-43.498
-43.4716
-44.5393
-42.9134
-42.9338
-44.3866
-43.3008
-43.7719
-40.3102
-40.3185
-38.6065
-39.922
-57.1902
-55.9645
-53.4658
-62.9353
24.1265
24.0756
29.8607
15.1365
-74.9733
-74.9596
-78.5432
-72.4069
-37.7271
-37.5298
-37.9448
-37.5841
-43.4127
-45.5769
-44.5722
-44.3377
-42.8134
-44.2764
-43.2054
-43.6418
-57.1188
-55.9
-53.4047
-62.8029
-70.1704
-64.0228
-64.7716
-60.1856
-70.2751
-64.1857
-64.8216
-60.1846
-67.4749
-62.9508
-62.8489
-58.7942
-14.2843
-8.185
-8.17049
-2.62772
196.286
196.492
197.384
196.286
-42.044
-43.4048
-43.0091
-44.2066
-42.0288
-43.3864
-42.9814
-44.1821
-38.2759
-38.4842
-38.1311
-37.8827
-104.405
-108.966
-99.1931
-104.4
-48.1164
-46.3509
-48.2609
-45.9669
-47.7832
-46.0764
-47.9933
-45.7136
-37.3976
-37.058
-37.0222
-36.3722
-46.6079
-48.4085
-48.4028
-50.4334
-33.8643
-28.8115
-33.4885
-33.6224
-27.7894
-6.02231
-109.09
52.4704
-171.189
-151.943
-126.563
-76.1846
-95.5977
-76.6293
-84.3474
-84.1768
-42.0593
-40.6689
-44.4468
-36.9462
-38.9082
-36.4782
-39.7715
-39.6691
-41.8688
-39.3853
-43.2915
-39.7223
-3.0424
3.17597
-80.5512
98.3192
78.1862
102.371
-23.7919
96.2625
-58.1112
-61.0812
-62.0579
-45.7477
-39.2857
-38.922
-45.0176
-37.087
-38.2531
-38.2703
-39.5681
-37.1506
-45.1529
-47.4373
-46.3519
-44.7255
-170.36
-151.618
-126.586
-75.637
-26.7219
-5.88112
-108.849
53.0118
-95.6029
-76.9547
-83.7974
-84.4541
-37.0545
-35.4423
-39.0429
-41.5394
-41.2046
-39.8283
-43.661
-36.1448
-41.2146
-38.9817
-42.7699
-39.2229
78.288
101.945
-21.068
96.0948
-4.64834
14.1046
-80.3591
98.7786
-58.0019
-61.0972
-62.1021
-45.7826
-38.0068
-38.2428
-39.4404
-36.8696
-38.5574
-38.2101
-44.3202
-36.4447
-44.9227
-47.2974
-46.1209
-44.5879
-43.4035
-49.1808
-48.2646
-46.2273
-39.0485
-38.1427
-38.6397
-38.6461
-41.3142
-42.0988
-41.9722
-41.0297
-42.486
-43.1513
-44.088
-42.273
-42.371
-38.247
-42.3895
-39.0615
-37.213
-37.1909
-37.3555
-37.3462
-34.8765
-39.5076
-37.8371
-41.3028
-39.8792
-40.3285
-38.831
-39.1301
-51.2008
-50.311
-50.4776
-32.9731
-52.0476
-48.307
-49.5209
-50.2267
-60.3396
-58.6094
-56.2608
-69.6253
-10.8752
16.4856
13.6989
-4.68763
-52.587
-52.3306
-51.3178
-56.6514
-48.6607
-46.3264
-47.6728
-47.2858
-55.268
-54.7481
-52.4173
-56.1531
-64.4607
-73.4325
-71.9596
-71.4724
-43.4425
-49.2492
-48.4468
-46.3087
-42.5214
-43.1757
-44.1081
-42.277
-39.0144
-38.1477
-38.6416
-38.7175
-41.3449
-42.1139
-41.9851
-41.0394
-42.1149
-38.0993
-42.2501
-38.9048
-39.3154
-40.1395
-38.6428
-38.8962
-37.2195
-37.2706
-37.3437
-37.4271
-34.7676
-39.3813
-37.7541
-41.1125
-51.2111
-50.3074
-50.4904
-33.1471
-10.3863
16.5238
13.6686
-4.5566
-52.0375
-48.2992
-49.5298
-50.2055
-60.2686
-58.6115
-56.2549
-69.6053
-52.4987
-52.2017
-51.1981
-56.548
-64.7829
-73.4037
-72.0994
-71.3777
-48.5966
-46.2336
-47.6034
-47.1974
-55.2074
-54.6743
-52.3683
-56.0815
-88.0325
-85.8876
-91.6124
-90.7949
151.985
194.218
171.772
188.738
-96.8086
-79.19
-87.8506
-87.8377
94.7112
151.341
117.192
117.244
-64.1602
-63.8455
-68.2644
-59.9984
-61.2541
-62.4013
-66.3702
-57.9882
-45.9932
-46.7954
-45.8723
-46.3904
-36.6794
-35.5173
-35.1959
-35.8274
-37.5922
-36.6399
-37.3332
-37.3717
-25.9843
-25.2202
-26.9873
-26.2413
-43.9131
-44.8078
-43.4951
-45.1632
-37.9083
-37.3992
-37.0676
-37.9363
-42.0291
-26.4905
-31.7935
-31.7512
195.871
196.627
204.255
204.624
-66.0419
-65.4766
-60.523
-70.272
-21.2048
-12.1154
-20.8716
-10.9277
-42.0415
-43.7105
-42.8556
-42.8559
-35.3991
-33.5686
-34.6101
-34.7921
-49.0672
-49.0533
-48.2627
-49.1934
-49.9647
-48.8426
-51.5181
-47.3224
-87.9776
-85.9169
-91.5606
-90.7791
149.401
193.406
188.87
171.154
-64.0724
-64.0559
-68.3745
-60.0126
-61.2365
-62.3648
-66.3096
-57.9188
-45.4266
-46.3726
-45.9129
-45.3792
-36.0304
-34.9264
-34.2249
-35.1455
-43.5843
-44.5069
-43.2321
-44.8449
-37.7739
-37.3512
-37.0364
-37.9215
-66.0821
-65.5138
-70.3196
-60.544
-21.1363
-12.0742
-10.8829
-20.8086
-48.856
-48.7979
-48.9819
-47.992
-49.9631
-48.8307
-47.2982
-51.4957
-39.1268
-40.358
-39.6959
-39.4701
-37.062
-38.0263
-38.0817
-37.6041
-46.6788
-54.6948
-50.5017
-49.9112
-44.0695
-43.7986
-42.7399
-45.2188
-48.2593
-52.7745
-49.8331
-49.8867
-40.687
-39.3475
-39.9723
-39.9731
-43.1331
-43.0399
-41.9506
-44.0553
-43.6634
-45.0346
-44.3067
-44.7897
-38.7167
-39.6724
-39.436
-38.5524
-38.7318
-35.9437
-37.2972
-37.2351
-49.7448
-46.5653
-47.5521
-48.5978
-79.1912
-99.684
-99.3687
-84.9817
24.9526
8.92795
15.408
15.4425
-23.365
-104.347
-51.8225
-51.903
-83.9963
-90.2731
-85.9581
-85.9976
-65.0227
-56.7788
-61.0561
-61.046
-39.151
-40.3566
-39.7164
-39.4718
-37.3919
-38.2492
-38.1878
-37.9424
-46.7118
-54.7535
-49.9529
-50.5647
-44.052
-43.7841
-42.7278
-45.2
-43.0676
-42.9947
-44.0004
-41.8988
-43.5033
-44.8308
-44.105
-44.6142
-49.7047
-46.5357
-48.5687
-47.5141
-79.1734
-99.5974
-84.9095
-99.2783
-88.331
-90.9512
-92.9668
-90.1127
-50.1549
-45.1995
-56.8811
-50.1406
-49.9799
-48.7039
-53.0592
-50.0545
-83.5422
-85.1075
-89.3479
-87.9038
-88.1576
-90.2551
-92.8338
-90.1662
-83.4916
-84.9527
-89.2873
-87.9181
-50.0109
-48.7237
-53.0722
-50.0822
-50.2907
-45.2554
-56.9563
-50.2272
-95.9651
-85.9883
-87.2381
-78.3716
-96.0547
-86.0746
-87.2306
-78.3191
-47.6512
-47.3308
-51.7331
-49.3761
-47.7197
-47.3687
-51.7503
-49.4487
-40.9173
-33.1067
-31.9396
-29.8614
-1.30151
11.2574
-2.93381
10.1606
-1.21567
11.2987
-2.90834
10.084
-41.0102
-33.1268
-31.9177
-29.8306
102.93
78.7877
135.312
116.292
167.471
187.895
186.522
196.221
184.854
166.85
196.413
189.324
78.832
103.25
116.158
134.965
-40.0734
-40.4571
-40.1256
-41.1067
-38.5658
-38.8791
-39.2948
-40.1012
-47.7703
-50.0177
-46.3806
-47.9633
-50.0771
-52.0406
-48.0287
-49.5716
-40.0732
-40.4487
-40.1311
-41.1045
-50.0362
-52.0005
-48.0074
-49.5556
-47.7134
-49.9599
-46.3257
-47.9138
-38.5345
-38.8306
-39.2717
-40.0588
-39.0117
-40.1629
-38.8549
-39.7412
-40.1852
-39.0585
-39.793
-38.9257
-38.097
-37.6234
-38.3703
-37.9105
-37.4929
-38.0951
-37.8111
-38.2551
-112.053
-39.4343
-102.417
-53.5227
-68.7829
-74.034
-78.2192
-81.122
-74.0899
-68.506
-81.3574
-78.1532
-39.1683
-111.973
-53.3314
-102.335
-43.3358
-43.9354
-43.2765
-43.9621
-44.8939
-44.352
-45.1333
-45.7043
-46.0585
-46.5283
-46.486
-47.2515
-48.6182
-47.4349
-48.0746
-46.6667
-43.1299
-43.7274
-43.0567
-43.7479
-48.4678
-47.312
-47.8981
-46.5056
-45.552
-46.1377
-46.0351
-46.8855
-44.3075
-43.8516
-44.6326
-45.2526
-37.9273
-38.8962
-36.8662
-37.6247
-37.795
-38.7104
-36.8157
-37.6079
-39.7136
-38.9508
-37.8633
-37.4848
-40.3412
-39.4088
-38.3289
-37.9294
-63.109
-65.701
-57.5891
-61.3783
-42.2393
-43.4703
-43.059
-44.3153
-42.1814
-43.4011
-43.0797
-44.2789
-63.0559
-65.6519
-57.5359
-61.3478
-35.1165
-34.1633
-33.7531
-31.6255
-33.0647
-34.123
-30.2354
-32.4312
-35.9173
-35.8938
-35.2628
-35.2536
-36.4682
-36.3739
-35.8697
-35.7266
-136.341
-5.17305
-125.849
-82.347
-100.875
-110.419
-46.086
-38.2541
-41.6247
-38.286
-45.0667
-43.5168
-63.9147
93.7278
0.0610511
93.2519
-66.7951
-32.3061
-44.5229
-37.4426
-39.8248
-37.4776
-44.5583
-41.9308
-125.328
-75.113
-135.605
-3.74614
-100.006
-110.357
-40.4102
-37.7801
-45.2964
-37.4076
-44.4224
-42.7844
0.45385
93.2333
-65.5658
93.7472
-66.8313
-33.199
-39.5936
-37.0091
-43.8981
-36.8437
-44.1387
-41.7183
-39.8181
-44.0888
-39.8677
-40.3254
-41.5475
-40.1836
-42.8115
-41.7372
-52.3202
-42.3167
-36.4189
-38.18
-35.6828
-36.0335
-37.8211
-40.9583
-54.3754
-49.7924
-53.6679
-54.8053
-56.9424
-72.1296
-34.0314
-95.4826
-51.9636
-54.7327
-50.6193
-50.1009
-53.3637
-59.3354
-62.3213
-58.6946
-39.7064
-44.0847
-42.8468
-41.6982
-39.8453
-40.344
-41.5948
-40.2271
-51.4752
-41.6456
-38.0738
-40.6459
-36.3815
-38.1441
-35.6465
-35.3037
-54.4064
-50.086
-34.4412
-95.6438
-53.6762
-54.7766
-56.884
-72.1248
-51.911
-54.6396
-62.8297
-58.7643
-50.5737
-50.0512
-53.3425
-59.3458
-98.4786
94.4651
-88.0581
91.8941
-94.8116
-95.0637
116.555
107.702
-127.119
-83.2637
-127.245
-83.0567
-108.674
-108.815
-37.9061
-38.1979
-74.3205
-69.798
-55.5707
-54.0723
-67.7267
-58.499
-65.1816
-56.9188
-44.386
-36.5944
-44.7887
-36.9506
-45.1619
-45.7269
-36.6168
-36.7131
-36.912
-31.6643
-36.372
-30.7449
-36.9377
-37.2296
-27.7032
-27.0232
-45.3196
-38.2878
-40.2759
-38.8037
-42.4775
-44.0127
-40.7879
-37.6894
-21.9431
97.3305
-21.8956
97.6359
-52.9593
-52.9592
151.071
148.419
-80.8514
-49.7624
-56.7398
-38.0982
-61.7563
-74.2229
-31.989
-24.5377
-39.7904
-37.3827
-39.7514
-37.2673
-40.8938
-40.8827
-36.1451
-36.2497
-48.6887
-48.9802
-51.7511
-57.3701
-48.914
-50.4646
-54.2187
-49.03
-98.3335
94.0356
-88.1021
91.5199
-94.7907
-95.0161
108.444
117.246
-74.449
-69.8322
-55.4743
-54.184
-67.791
-58.9287
-65.1608
-56.9535
-43.6019
-35.8371
-44.0403
-36.2748
-45.0675
-44.503
-35.9036
-36.0667
-44.9476
-37.9007
-39.7382
-38.6736
-42.2278
-43.6802
-40.6419
-37.515
-80.8544
-49.5879
-56.7852
-38.0522
-74.2482
-61.8597
-24.4847
-31.8981
-48.5
-48.9338
-51.6041
-57.3086
-50.3019
-48.7051
-48.9907
-54.2884
-38.1121
-37.8497
-37.4995
-37.186
-38.4581
-38.1176
-37.6788
-36.8596
-43.0827
-42.4037
-46.7017
-46.8653
-44.5425
-45.9766
-43.0564
-45.4935
-44.3976
-42.7966
-44.4672
-42.8102
-46.4461
-46.4487
-41.7032
-41.6963
-40.8931
-42.7268
-45.2985
-45.4244
-42.0683
-44.2576
-42.4536
-44.1423
-39.243
-39.994
-39.1278
-39.8002
-37.8908
-38.6738
-39.9561
-39.8352
-55.0661
-66.1075
-52.9962
-59.5468
-50.8504
-52.2021
-72.6893
-67.1165
27.142
11.5631
27.1634
11.5998
28.6476
28.5693
0.227813
0.228958
-77.5312
-72.1652
-77.5069
-72.1323
-81.3969
-81.4007
-69.094
-69.0813
-38.1542
-38.0111
-37.5445
-37.3744
-38.4912
-38.1413
-37.8912
-37.4521
-43.0961
-42.4067
-46.7078
-46.8526
-45.9923
-44.5629
-43.0487
-45.475
-40.7948
-42.5763
-45.213
-45.2859
-44.1805
-41.9887
-42.3073
-44.0081
-55.0167
-66.0468
-52.9386
-59.4624
-52.1586
-50.8038
-67.0049
-72.6249
-74.4267
-74.0256
-69.9303
-59.4852
-60.3792
-69.3241
-57.7502
-56.7161
-74.4403
-74.0371
-69.9897
-59.5162
-69.3966
-60.4029
-56.7497
-57.7645
-72.1955
-72.1037
-67.3346
-58.8228
-67.1588
-58.7393
-55.7637
-55.9777
-20.3049
-20.2946
-15.058
-4.4828
-4.45995
-15.0366
2.41836
2.43547
192.491
195.223
174.005
173.933