# vtk DataFile Version 2.0
tet_velo
ASCII
DATASET UNSTRUCTURED_GRID
POINTS 29498 float
-0.764432 0.045 -1.895
-0.719016 0.135 1.805
-0.696823 0.655 -1.575
-0.677718 0.845 1.775
0.745 0.045 -1.90186
0.719011 0.135 1.805
0.696819 0.655 -1.575
0.677714 0.845 1.775
-0.767477 0.0568166 -0.661667
-0.762568 0.0765864 0.571667
-0.747063 0.774942 -0.458333
-0.73407 0.831651 0.658333
0.753512 0.0578247 -0.66624
0.753768 0.0789061 0.56938
0.747987 0.77587 -0.458333
0.733999 0.831584 0.658333
-1.51922 -0.351068 -2.92889
-1.51575 -0.3057 -1.98865
-1.51475 -0.290737 -0.752139
-1.49892 -0.278734 0.507795
-1.4646 -0.236343 1.74629
-1.4555 -0.200735 2.69622
-1.45775 -0.167251 3.6283
-1.5111 -0.0167424 -2.80969
-1.50732 0.0403817 -1.8824
-1.5123 0.0674946 -0.668902
-1.49226 0.0840885 0.554955
-1.44484 0.125382 1.77073
-1.44255 0.160355 2.71912
-1.45048 0.193575 3.65514
-1.47802 0.632884 -2.5394
-1.46032 0.688772 -1.60826
-1.48864 0.77961 -0.474478
-1.46776 0.826287 0.650992
-1.41498 0.848185 1.78717
-1.42551 0.881417 2.74052
-1.44169 0.916211 3.69554
-1.45333 1.67437 -2.22153
-1.44711 1.73843 -1.30742
-1.45663 1.83463 -0.211744
-1.46023 1.90861 0.858776
-1.45069 1.95047 1.95598
-1.4466 1.97817 2.87327
-1.44834 2.00832 3.8153
-0.77719 -0.349008 -2.93803
-0.76735 -0.301796 -2.00127
-0.766092 -0.295492 -0.751926
-0.761223 -0.284025 0.521846
-0.737658 -0.23275 1.77175
-0.731934 -0.198456 2.71337
-0.733861 -0.166611 3.638
-0.77478 -0.0185947 -2.81328
-0.72455 0.16305 2.73322
-0.729784 0.194192 3.66238
-0.745617 0.618321 -2.52576
-0.711573 0.880767 2.73781
-0.724322 0.915858 3.69462
-0.715985 1.66463 -2.20797
-0.707203 1.72936 -1.29232
-0.717953 1.83257 -0.202809
-0.729766 1.91088 0.857123
-0.728643 1.95161 1.94735
-0.7262 1.97827 2.86465
-0.726705 2.00821 3.80888
0.715813 -0.348678 -2.94246
0.74032 -0.301455 -2.00677
0.748321 -0.294483 -0.756046
0.742652 -0.282301 0.519566
0.720284 -0.232106 1.77098
0.71356 -0.197924 2.71263
0.712684 -0.166006 3.63708
0.708644 -0.0183757 -2.81755
0.706779 0.163402 2.73274
0.709172 0.194721 3.66158
0.703011 0.618529 -2.52787
0.693969 0.881041 2.73743
0.705057 0.916321 3.69391
0.749901 1.6651 -2.20959
0.75983 1.72988 -1.29358
0.756303 1.83314 -0.20381
0.734174 1.91136 0.856297
0.714516 1.95204 1.94661
0.711909 1.97874 2.86386
0.715124 2.00874 3.80798
1.46369 -0.350242 -2.93678
1.48705 -0.304734 -1.99742
1.49781 -0.288897 -0.759105
1.48685 -0.276091 0.50355
1.45629 -0.234675 1.7441
1.44311 -0.199449 2.69438
1.44071 -0.165962 3.62628
1.45742 -0.0160724 -2.81719
1.48522 0.0411168 -1.89106
1.50035 0.0691945 -0.67552
1.48815 0.0867154 0.551136
1.4476 0.12676 1.7691
1.43396 0.16141 2.71767
1.4352 0.194741 3.65336
1.44775 0.633523 -2.54413
1.45925 0.689465 -1.61201
1.49225 0.781003 -0.477374
1.47183 0.827394 0.649142
1.41958 0.849092 1.78605
1.41802 0.882272 2.73932
1.42838 0.917244 3.69394
1.48469 1.67536 -2.22495
1.49359 1.7395 -1.31027
1.49294 1.8358 -0.214064
1.47041 1.90965 0.856859
1.44503 1.95144 1.95429
1.4385 1.97918 2.87154
1.44098 2.00941 3.8134
-0.707843 0.35 -1.71222
-0.009716 0.0413294 -1.9021
-0.768741 0.0481212 -1.27833
-0.726545 0.49 1.81818
-2.5034e-06 0.144358 1.79564
-0.75421 0.0923754 1.18833
-1.99676e-06 0.690824 -1.61082
-0.740481 0.733509 -1.01667
-1.99676e-06 0.866204 1.7962
-0.714497 0.846928 1.21667
0.710087 0.35 -1.72761
0.75218 0.0484887 -1.28405
0.726585 0.49 1.81822
0.747714 0.0956288 1.18719
0.740455 0.733486 -1.01667
0.714494 0.846929 1.21667
-0.764646 0.0670777 -0.045
-0.810587 0.415879 -0.56
-0.0069822 0.0724275 -0.663953
-0.803775 0.454118 0.615
-0.00440017 0.0877211 0.570523
-0.745016 0.807745 0.1
0.000462043 0.871659 -0.458333
-3.53718e-05 1.12138 0.658333
0.753612 0.068394 -0.04843
0.810531 0.416847 -0.562287
0.803783 0.455245 0.613857
0.745002 0.807735 0.1
-0.870284 0.38294 -1.1475
-0.811152 0.434999 0.0275
-0.893968 0.472059 1.2025
-0.0083491 0.0712752 -1.28119
-0.00569118 0.0824342 -0.046715
-0.00220134 0.117515 1.18776
-0.004859 0.35 -1.89326
-2.25008e-06 0.49 2.00956
0.000230023 0.802281 -1.01667
0.000213335 1.11928 0.1
-1.86843e-05 0.924599 1.21667
0.870228 0.383424 -1.15036
0.811066 0.436046 0.025785
0.893968 0.472622 1.20193
-1.13588 0.0426909 -1.8887
-0.765891 -0.128398 -1.94813
-0.769606 0.0132026 -2.35414
-1.08193 0.130191 1.78786
-0.728337 -0.0488749 1.78838
-0.721783 0.149025 2.26911
-1.07857 0.671886 -1.59163
-0.72122 0.63666 -2.05038
-0.702013 1.19218 -1.43366
-1.04635 0.846593 1.78109
-0.694646 0.862883 2.25641
-0.70318 1.3983 1.86117
0.74266 -0.128228 -1.95431
0.726822 0.0133121 -2.3597
1.11511 0.0430584 -1.89646
0.719648 -0.0485531 1.78799
0.712895 0.149201 2.26887
1.0833 0.13088 1.78705
0.699915 0.636764 -2.05143
0.728325 1.19244 -1.43429
1.07804 0.672232 -1.59351
0.685841 0.86302 2.25621
0.696115 1.39852 1.86081
1.04865 0.847046 1.78053
-1.13989 0.0621556 -0.665284
-0.766784 -0.119338 -0.706796
-1.12742 0.0803375 0.563311
-0.761896 -0.103719 0.546756
-1.11785 0.777276 -0.466406
-0.732508 1.30376 -0.330571
-1.10092 0.828969 0.654663
-0.731918 1.37127 0.757728
0.750917 -0.118329 -0.711143
1.12693 0.0635096 -0.67088
0.74821 -0.101697 0.544473
1.12096 0.0828108 0.560258
0.752145 1.30451 -0.331072
1.12012 0.778436 -0.467854
0.734087 1.37147 0.757315
1.10291 0.829489 0.653738
-1.51748 -0.328384 -2.45877
-1.51516 -0.183905 -2.86929
-1.1482 -0.350038 -2.93346
-1.51525 -0.298218 -1.37039
-1.51153 -0.132659 -1.93553
-1.14155 -0.303748 -1.99496
-1.50684 -0.284735 -0.122172
-1.51353 -0.111621 -0.71052
-1.14042 -0.293114 -0.752032
-1.48176 -0.257539 1.12704
-1.49559 -0.0973226 0.531375
-1.13007 -0.28138 0.514821
-1.46005 -0.218539 2.22125
-1.45472 -0.0554806 1.75851
-1.10113 -0.234547 1.75902
-1.45663 -0.183993 3.16226
-1.44902 -0.0201902 2.70767
-1.09372 -0.199596 2.7048
-1.45411 0.0131622 3.64172
-1.09581 -0.166931 3.63315
-1.50921 0.0118197 -2.34605
-1.49456 0.308071 -2.67455
-1.14294 -0.0176685 -2.81149
-1.50981 0.0539382 -1.27565
-1.48382 0.364577 -1.74533
-1.50228 0.0757915 -0.0569733
-1.50047 0.423552 -0.57169
-1.46855 0.104735 1.16284
-1.48001 0.455188 0.602974
-1.44369 0.142868 2.24492
-1.42991 0.486784 1.77895
-1.44651 0.176965 3.18713
-1.43403 0.520886 2.72982
-1.08355 0.161702 2.72617
-1.44609 0.554893 3.67534
-1.09013 0.193884 3.65876
-1.46917 0.660828 -2.07383
-1.46567 1.15363 -2.38046
-1.11182 0.625602 -2.53258
-1.47448 0.734191 -1.04137
-1.45372 1.2136 -1.45784
-1.4782 0.802949 0.0882572
-1.47264 1.30712 -0.343111
-1.44137 0.837236 1.21908
-1.464 1.36745 0.754884
-1.42025 0.864801 2.26385
-1.43284 1.39933 1.87158
-1.4336 0.898814 3.21803
-1.43606 1.42979 2.8069
-1.06854 0.881092 2.73917
-1.44502 1.46226 3.75542
-1.08301 0.916034 3.69508
-1.45022 1.7064 -1.76447
-1.08466 1.6695 -2.21475
-1.45187 1.78653 -0.759583
-1.07716 1.7339 -1.29987
-1.45843 1.87162 0.323516
-1.08729 1.8336 -0.207276
-1.45546 1.92954 1.40738
-1.095 1.90975 0.857949
-1.44865 1.96432 2.41463
-1.08967 1.95104 1.95167
-1.44747 1.99324 3.34429
-1.0864 1.97822 2.86896
-1.08752 2.00826 3.81209
-0.77227 -0.325402 -2.46965
-0.775985 -0.183801 -2.87566
-0.0306884 -0.348843 -2.94025
-0.766721 -0.298644 -1.3766
-0.013515 -0.301625 -2.00402
-0.763657 -0.289759 -0.11504
-0.00888544 -0.294987 -0.753986
-0.749441 -0.258388 1.1468
-0.00928557 -0.283163 0.520706
-0.734796 -0.215603 2.24256
-0.00868692 -0.232428 1.77136
-0.732898 -0.182534 3.17569
-0.728242 -0.0177033 2.7233
-0.00918728 -0.19819 2.713
-0.731823 0.0137906 3.65019
-0.0105887 -0.166308 3.63754
-0.760199 0.299863 -2.66952
-0.0330682 -0.0184852 -2.81541
-0.727167 0.178621 3.1978
-0.718061 0.521908 2.73552
-0.00888536 0.163226 2.73298
-0.727053 0.555025 3.6785
-0.010306 0.194457 3.66198
-0.730801 1.14148 -2.36687
-0.0213028 0.618425 -2.52681
-0.717948 0.898312 3.21621
-0.718886 1.42952 2.80123
-0.00880218 0.880904 2.73762
-0.725514 1.46204 3.75175
-0.00963254 0.91609 3.69426
-0.711594 1.697 -1.75015
0.0169577 1.66487 -2.20878
-0.712578 1.78097 -0.747565
0.0263134 1.72962 -1.29295
-0.72386 1.87173 0.327157
0.0191751 1.83286 -0.203309
-0.729205 1.93125 1.40224
0.00220377 1.91112 0.85671
-0.727421 1.96494 2.406
-0.00706342 1.95182 1.94698
-0.726452 1.99324 3.33676
-0.00714535 1.97851 2.86425
-0.00579073 2.00848 3.80843
0.728067 -0.325067 -2.47461
0.712229 -0.183527 -2.88
1.08975 -0.34946 -2.93962
0.74432 -0.297969 -1.38141
1.11368 -0.303095 -2.00209
0.745486 -0.288392 -0.11824
1.12307 -0.29169 -0.757575
0.731468 -0.257204 1.14527
1.11475 -0.279196 0.511558
0.716922 -0.215015 2.2418
1.08829 -0.233391 1.75754
0.713122 -0.181965 3.17485
0.710169 -0.0172609 2.72269
1.07833 -0.198687 2.70351
0.710928 0.0143578 3.64933
1.0767 -0.165984 3.63168
0.705828 0.300076 -2.67271
1.08303 -0.0172241 -2.81737
0.707975 0.179062 3.19716
0.700374 0.522221 2.73509
1.07037 0.162406 2.72521
0.707114 0.555521 3.67775
1.07219 0.194731 3.65747
0.726456 1.14182 -2.36873
1.07538 0.626026 -2.536
0.699513 0.898681 3.21567
0.702939 1.42989 2.80064
1.05599 0.881656 2.73837
0.71009 1.46253 3.75095
1.06672 0.916783 3.69393
0.754865 1.69749 -1.75159
1.1173 1.67023 -2.21727
0.758067 1.78151 -0.748697
1.12671 1.73469 -1.30193
0.745238 1.87225 0.326244
1.12462 1.83447 -0.208937
0.724345 1.9317 1.40145
1.10229 1.91051 0.856578
0.713213 1.96539 2.40523
1.07978 1.95174 1.95045
0.713516 1.99374 3.33592
1.0752 1.97896 2.8677
1.07805 2.00907 3.81069
1.47537 -0.327488 -2.4671
1.46056 -0.183157 -2.87698
1.49243 -0.296815 -1.37826
1.48613 -0.131809 -1.94424
1.49233 -0.282494 -0.127777
1.49908 -0.109851 -0.717312
1.47157 -0.255383 1.12383
1.4875 -0.0946876 0.527343
1.4497 -0.217062 2.21924
1.45194 -0.0539576 1.7566
1.44191 -0.182706 3.16033
1.43854 -0.0190195 2.70602
1.43796 0.014389 3.63982
1.47132 0.0125222 -2.35412
1.45259 0.308725 -2.68066
1.49278 0.0551556 -1.28329
1.47224 0.365291 -1.75153
1.49425 0.077955 -0.0621919
1.4963 0.425099 -0.576447
1.46787 0.106738 1.16012
1.47999 0.457054 0.600139
1.44078 0.144085 2.24338
1.43359 0.487926 1.77757
1.43458 0.178075 3.18551
1.42599 0.521841 2.7285
1.43179 0.555992 3.67365
1.4535 0.661494 -2.07807
1.46622 1.15444 -2.38454
[...]
POINT_DATA 29498
VECTORS point_vectors float
-7.73173 -8.65464 15.3235
0.0703408 0.303488 1.57285
-1.12095 1.96083 4.55256
0.131941 -0.288359 1.44229
7.15 -8.19896 15.3555
-0.0678405 0.286441 1.50713
1.13442 1.94976 4.51056
-0.140913 -0.272329 1.41481
-0.0154916 0.0167247 0.159687
0.0401613 0.0115143 0.371022
-0.723405 -0.140756 0.996001
0.0735164 0.0851209 0.215005
0.0144924 0.0129229 0.418351
-0.0990312 -0.030075 0.549912
0.787153 -0.14806 1.07442
-0.0705469 0.0820974 0.205654
-0.54925 -0.247186 19.8328
-1.13769 -0.668233 20.3258
-0.440891 -0.431506 21.3337
0.0873288 -0.174854 21.2963
0.541562 0.115924 21.359
0.802422 0.263313 21.1146
0.84743 0.186854 20.7826
-0.770495 -0.209517 19.7529
-1.6826 -0.571371 20.2832
-0.65904 -0.508304 21.4047
-0.0952864 -0.355625 21.3842
0.636327 -0.0591556 21.4488
0.991438 0.0729106 20.9615
1.07599 -0.109011 20.5439
-1.05878 0.196375 19.6333
-2.17401 0.378378 20.5464
-1.01946 -0.202592 21.3405
-0.407042 -0.241702 21.5299
0.481038 -0.437685 21.4771
0.798701 -0.552409 21.186
0.842369 -0.500027 20.6558
-0.659662 0.573571 20.1019
-0.787456 0.66545 20.6149
-0.612029 0.381441 21.1004
-0.239709 0.039678 21.3034
0.0707456 -0.251453 21.2003
0.219868 -0.361477 20.983
0.216354 -0.356545 20.7934
-0.550158 -0.551424 19.3534
-1.68697 -2.6541 19.8555
-0.141062 0.0390733 22.1494
0.324108 0.393723 21.4488
0.368898 1.04375 20.9049
0.564338 1.41296 19.7691
0.88231 1.35729 19.3872
-0.81701 -0.507306 18.9285
0.531537 1.62892 10.3097
1.44173 1.15882 12.8972
-1.44274 0.629188 18.096
1.06367 -0.518612 10.2743
1.14762 -0.96566 14.3655
-0.599865 1.21017 19.7807
-0.762274 1.47618 20.5885
-0.691641 1.07013 21.2328
-0.238822 0.224459 21.5688
0.0387028 -0.335731 21.2932
0.139355 -0.493264 21.019
0.184065 -0.532628 20.5286
0.524581 -0.55812 19.3348
1.6785 -2.71416 19.8514
0.137649 0.00725198 22.1822
-0.329098 0.369299 21.4637
-0.363462 1.00597 20.8136
-0.513151 1.31517 19.5269
-0.827027 1.3729 19.1307
0.777817 -0.533286 18.8557
-0.422782 1.57376 9.72518
-1.38947 1.16139 12.5544
1.42453 0.675833 17.9845
-1.03383 -0.470635 9.58859
-1.14636 -0.962816 14.0075
0.624982 1.17068 19.7962
0.805066 1.41019 20.5937
0.704379 1.02463 21.2231
0.238898 0.224346 21.5649
-0.0384879 -0.33429 21.293
-0.1388 -0.489419 21.0212
-0.187729 -0.531632 20.5414
0.561016 -0.259634 19.7998
1.1706 -0.711145 20.318
0.445495 -0.431129 21.3465
-0.0821631 -0.177327 21.2962
-0.532037 0.116721 21.3638
-0.797034 0.263549 21.1183
-0.860228 0.23145 20.7305
0.77456 -0.218953 19.7083
1.73474 -0.593598 20.2528
0.653762 -0.506583 21.4113
0.0937902 -0.347252 21.3766
-0.6259 -0.0524652 21.4524
-0.994287 0.0767528 20.9975
-1.09194 -0.0876838 20.5462
1.07447 0.215181 19.6013
2.1629 0.371909 20.5446
1.01137 -0.20603 21.3335
0.40442 -0.242741 21.5215
-0.471053 -0.430296 21.4688
-0.797486 -0.555427 21.1878
-0.878053 -0.50833 20.6202
0.65212 0.553721 20.1144
0.770741 0.631512 20.6151
0.597175 0.355422 21.0876
0.238678 0.038814 21.2959
-0.0699528 -0.250654 21.1983
-0.219264 -0.361408 20.9809
-0.21562 -0.356953 20.7823
-2.46734 0.219553 1.89478
-0.0200525 -1.08273 1.81908
-0.0329417 0.0122233 0.140879
-0.0354682 -0.00210062 -0.0257223
-0.00108418 0.00435379 0.0201226
-0.0478891 0.027864 0.90883
0 0 0
-0.231455 -0.0587986 0.674967
-0.00191274 0.00394132 -0.0303346
0.0558465 0.0200605 0.260317
4.12815 0.501855 3.64569
0.0479488 0.0203879 0.425128
0.0365239 -0.00132399 -0.0273117
0.0251691 0.0123724 0.580684
0.238774 -0.059325 0.694952
-0.056833 0.0207041 0.262413
0.0182382 0.00843684 0.328487
0 0 0
0.00164349 -0.000196115 0.0177968
7.82188e-05 0.0020843 0.00297809
-4.49452e-05 0.00189792 0.026688
0.0153441 0.0231921 0.125863
3.76155e-06 0.00162246 0.00392383
-7.96142e-05 -0.00825696 0.134564
-0.0415448 0.0166666 0.763136
-3.16933e-19 -1.91852e-18 5.73104e-18
-8.06783e-05 0.00223692 0.00316739
-0.01531 0.022967 0.124812
0 0 0
0.000361647 0.00370217 0.0217972
0 0 0
-3.10018e-07 -1.64819e-07 2.61292e-06
-4.34641e-07 -3.38422e-07 -1.59894e-05
-2.73708e-08 -4.55105e-07 -3.22032e-05
0.00140601 -0.0268094 0.0397161
-0.0151472 0.116152 -0.0850495
3.0286e-05 0.00299767 0.0166387
-6.92863e-05 0.0361156 0.261891
-1.15048e-05 0.000549379 -0.00141012
0 0 0
-0.000320186 0.00330304 0.0194332
0 0 0
-3.15098 -1.66703 19.768
-2.78145 -4.10611 19.5737
-1.9909 -1.48016 17.9578
0.991202 0.701 16.9718
-0.0530269 1.32308 15.472
-0.00563789 1.1342 7.07756
-4.50138 1.57326 20.5795
-3.75528 2.61894 16.5402
-1.82061 2.7004 20.6818
0.928922 -0.469701 18.7122
0.514365 -0.193779 6.55104
0.0496399 -0.621973 21.4044
2.79995 -4.23325 19.4274
1.93046 -1.47929 17.8637
3.22152 -1.72644 19.6939
0.0505331 1.25361 15.2519
0.0985358 1.0387 6.69055
-0.996092 0.644522 17.2112
3.74386 2.72475 16.3858
1.84679 2.59437 20.6807
4.49034 1.54236 20.5694
-0.469143 -0.131029 6.14846
-0.0502446 -0.614639 21.3944
-0.91396 -0.464395 18.7776
-0.312653 -0.981744 21.0535
0.00521563 0.808306 18.4589
-0.0057156 -0.4189 18.6173
0.535882 0.48812 17.116
-1.62312 -0.724632 21.217
-1.92533 1.67594 21.2306
-0.65797 -0.411921 20.3043
-0.582721 0.30046 22.2188
-0.0161078 0.700377 18.1916
0.273337 -0.906953 20.983
-0.576435 0.43928 16.7341
-0.00915894 -0.416677 18.7361
1.9198 1.59526 21.2437
1.6307 -0.729272 21.2347
0.583056 0.301013 22.2096
0.65527 -0.401206 20.2793
-0.847519 -0.442977 19.9716
-0.631336 -0.252283 19.7961
-0.591249 -0.369748 19.6496
-0.94125 -0.688167 21.0476
-1.37434 -0.66127 20.2862
-1.53891 -1.38587 20.1086
-0.0785136 -0.260076 21.3249
-0.538735 -0.488768 21.374
-0.119223 -0.552747 21.6452
0.26251 -0.0619363 21.4079
0.0143648 -0.28166 21.3285
0.360601 -0.174965 21.3842
0.69767 0.205408 21.2313
0.586148 0.0379742 21.4097
0.740206 0.478629 21.334
0.787319 0.235937 20.8966
0.86536 0.154876 21.0752
0.960017 0.765028 20.7649
0.990596 0.0875446 20.6178
1.12596 0.795672 20.1389
-1.22178 -0.39238 19.8374
-0.95801 -0.0573868 19.6397
-0.840159 -0.334606 19.3795
-1.40729 -0.644498 21.2314
-2.20041 -0.199644 20.394
-0.258525 -0.423296 21.3501
-0.828613 -0.414521 21.412
0.166146 -0.245764 21.5551
-0.280196 -0.338384 21.4943
0.858715 0.000224664 21.2807
0.66125 -0.255193 21.4545
0.986541 -0.0213293 20.9786
0.959456 -0.266555 21.1251
1.27326 0.728744 18.1549
0.979974 -0.303996 21.1803
1.50762 0.493748 18.7503
-1.71154 0.319588 19.8471
-0.93349 0.525867 19.8323
-1.3635 0.329294 19.0357
-1.55482 0.0452983 21.2941
-1.36127 0.714148 20.6291
-0.732567 -0.279597 21.4245
-0.96629 0.247354 21.1963
0.0302222 -0.287853 21.6234
-0.368147 -0.040785 21.4527
0.682169 -0.494955 21.2543
0.186625 -0.367112 21.3153
0.843344 -0.538229 21.0679
0.391458 -0.50807 21.0794
1.08431 -0.769477 19.7275
0.426098 -0.518413 20.7052
1.02855 -0.734317 19.976
-0.77185 0.670734 20.3578
-0.710484 0.878839 19.9407
-0.723553 0.545875 20.9018
-0.868268 1.04245 20.6146
-0.444438 0.224846 21.2314
-0.708053 0.677438 21.1742
-0.0534782 -0.117518 21.2506
-0.256368 0.12435 21.4257
0.15354 -0.324367 21.089
0.0520835 -0.304256 21.2307
0.220992 -0.381306 20.853
0.173047 -0.451234 20.9814
0.220196 -0.402568 20.649
-1.02229 -1.27645 19.1676
-0.654395 -0.558749 19.1757
-0.0299868 -0.758262 19.0035
-0.827118 -1.38608 22.3761
-0.0314941 -4.64455 19.6548
0.142435 0.359327 21.6909
-0.0393355 -0.551999 20.9991
0.386607 0.547332 21.3817
-0.0122352 0.105574 18.17
0.451129 1.26179 20.401
-0.0235379 0.444201 16.334
0.625527 1.41581 19.9063
0.509834 1.64741 16.3488
-0.0524615 0.673981 15.5549
0.926981 1.46698 16.7669
-0.00552317 0.987359 13.4429
-1.18948 -0.156786 18.3288
-0.040031 -0.727546 18.2595
1.07316 1.89705 12.3521
1.16889 0.582024 4.78752
-0.0644994 -0.54628 -1.05111
1.82369 0.378519 10.0782
0.0394036 0.311515 3.42712
-1.06597 1.37639 18.978
-0.0640012 1.02137 16.8058
1.54292 -0.863704 13.1522
0.273948 -0.904795 21.0316
0.0227965 -0.39514 0.4347
0.254415 -0.92413 20.6553
0.0605815 -0.89205 5.36193
-0.728222 1.49812 20.1654
0.018622 1.54627 19.6032
-0.743367 1.28203 20.8945
0.0398863 1.94615 20.5553
-0.497306 0.680809 21.5433
0.0271333 1.6368 21.2735
-0.0647603 -0.120706 21.4753
0.000839332 0.355603 21.7392
0.104422 -0.450264 21.1664
-0.00244943 -0.342278 21.3591
0.186064 -0.533071 20.7841
-0.00060202 -0.539946 21.0524
0.000702749 -0.706948 20.4077
0.99419 -1.3134 19.1277
0.622889 -0.573085 19.1336
0.589832 -0.39589 19.6086
0.83243 -1.43991 22.3561
1.56475 -1.45134 20.0727
-0.147981 0.341861 21.7169
0.137977 -0.535701 21.6697
-0.390995 0.522303 21.2861
-0.341552 -0.170714 21.3806
-0.427263 1.20663 20.2696
-0.713394 0.472671 21.3218
-0.550394 1.38211 19.6342
-0.452931 1.57235 15.9876
-0.931005 0.761195 20.7465
-0.893534 1.47519 16.4676
-1.12991 0.780272 20.1132
1.15498 -0.15344 18.2364
0.849853 -0.365566 19.3132
-1.00716 1.79951 11.9528
-1.04591 0.591202 4.32253
-1.26584 0.727194 17.9415
-1.80181 0.390693 9.43753
-1.51266 0.523229 18.7131
1.06245 1.37226 18.9786
1.3668 0.340831 18.9863
-1.53802 -0.845128 12.6638
-0.257763 -0.904692 21.0469
-1.09363 -0.751344 19.5607
-0.246271 -0.934878 20.6569
-1.03916 -0.749591 19.7325
0.771339 1.44033 20.1747
0.716065 0.853299 19.952
0.769462 1.23284 20.8878
0.870388 0.982987 20.6103
0.501045 0.667223 21.5324
0.699766 0.639161 21.1662
0.0637336 -0.119129 21.4748
0.256553 0.123839 21.4202
-0.105086 -0.447371 21.1669
-0.0527022 -0.300981 21.234
-0.186433 -0.536223 20.7854
-0.174041 -0.450189 20.9845
-0.223812 -0.401737 20.6501
0.871785 -0.479488 19.9323
0.641104 -0.266433 19.7634
0.963484 -0.708992 21.0456
1.42889 -0.710065 20.2676
0.0855214 -0.262785 21.3258
0.537901 -0.490185 21.3867
-0.249378 -0.0661702 21.4015
-0.010696 -0.277407 21.3255
-0.686913 0.207037 21.2283
-0.575994 0.0396737 21.4113
-0.792739 0.250287 20.8621
-0.864313 0.168511 21.0839
-0.998758 0.134085 20.6062
1.26567 -0.416742 19.7837
0.969518 -0.0633956 19.5958
1.44579 -0.660035 21.2419
2.2202 -0.201256 20.3793
0.252162 -0.417053 21.3512
0.818 -0.419337 21.4104
-0.163986 -0.233869 21.5434
0.269562 -0.339453 21.4835
-0.844832 0.00544954 21.287
-0.653144 -0.252533 21.4529
-0.994806 -0.0169441 21.0417
-0.962087 -0.265973 21.1342
-1.01628 -0.300825 21.1147
1.73397 0.331755 19.825
0.927597 0.520873 19.8351
1.54579 0.0374216 21.2876
1.33367 0.677357 20.6237
0.727241 -0.282075 21.4162
0.942595 0.230911 21.1841
-0.0290013 -0.286501 21.6141
0.366891 -0.0421118 21.4445
-0.67252 -0.490723 21.2518
-0.183655 -0.363061 21.3136
-0.848513 -0.541579 21.0923
-0.390375 -0.506581 21.0869
-0.42767 -0.516939 20.7204
0.759749 0.641958 20.3612
0.707156 0.51805 20.8925
0.436586 0.212591 21.2217
0.0537274 -0.116133 21.2479
-0.152463 -0.321831 21.0884
-0.219095 -0.381702 20.8551
-0.996335 -0.43574 19.907
-1.39598 -1.43781 18.683
-1.02653 -0.787006 19.6334
-1.67707 -0.766838 19.1781
-0.697448 -0.371152 19.531
-2.16566 -1.62246 19.9887
-1.1726 -0.69974 21.1372
0.00675682 -0.356062 21.1856
-0.990444 -1.3118 21.5034
-2.07868 -1.8831 22.317
-0.0665231 -0.849061 21.7686
-0.149962 -0.353379 21.3249
0.274914 0.700172 17.4801
0.237817 -0.252837 21.4589
0.0492986 -0.547023 19.3866
0.333785 -0.389128 20.7488
0.22843 -0.167548 21.4477
0.402554 0.533253 16.0562
0.494466 0.0163185 21.483
0.13621 -0.0348731 18.0488
0.892156 0.579205 20.1201
0.767468 0.119907 21.267
0.16458 1.51933 15.9703
0.883703 0.612876 21.1466
1.19562 0.602139 17.6799
1.22022 0.840794 19.6289
0.906921 0.174021 20.857
0.82443 1.76668 16.4686
1.00606 0.663216 20.3324
1.37876 0.564979 18.5624
1.34979 0.825857 19.7393
-1.60931 -0.11393 19.7479
-3.47252 -0.142683 16.1412
-2.81424 0.924146 18.9023
-1.16495 -0.115413 19.1306
-5.23243 -0.301583 19.7878
-1.6102 -0.344408 21.359
-2.35223 -0.0538922 22.0502
-0.591823 -0.743751 20.0965
-0.474314 -0.42178 21.409
-1.27705 -0.802813 20.8767
-0.185336 -0.272969 17.8516
0.0852622 -0.261554 21.6516
0.218994 -0.168068 19.6086
1.15047 0.266571 15.5213
0.8766 -0.279209 21.2813
-0.106624 0.399375 1.84574
0.995653 -0.619557 19.4025
1.58814 -0.0148319 17.3017
1.01665 -0.320193 21.1367
1.72517 0.482328 8.49157
1.07696 -0.832295 19.7736
1.59958 -0.0170263 17.66
-1.25198 0.72445 20.1333
-1.64122 2.47564 19.398
-0.835696 1.04629 20.2667
-1.09558 0.86653 19.4738
-1.78545 1.46501 20.6441
-1.1627 0.460507 21.0033
-1.73512 1.82541 21.0765
-0.804996 0.859944 20.9251
-1.45688 0.614683 21.3146
-0.711759 0.100972 21.3689
-1.56639 1.21347 22.1614
-0.508656 0.412468 21.3897
-0.516888 0.0775202 21.7499
-0.0500823 -0.217579 21.4394
-0.105715 -0.304409 21.8288
-0.0548982 -0.129209 21.3678
0.157538 -0.499225 21.4537
0.321428 -0.46329 21.1821
0.152824 -0.760082 21.1788
0.128296 -0.386883 21.1359
0.372243 -0.69968 21.0861
0.402878 -0.516061 20.7684
0.353741 -0.969448 20.872
0.23907 -0.465411 20.858
0.448285 -0.69799 20.6684
1.36494 -1.48834 18.6037
-0.035405 -1.93695 18.5017
-0.0626786 -2.5483 15.9504
-0.029143 -0.787579 18.7266
-0.037582 -8.10212 20.0809
0.0480991 -0.429846 20.8122
-0.0615992 -2.30017 23.064
0.00917815 -0.0516452 8.18778
-0.308714 0.629419 17.1481
-0.0246363 -0.0542159 19.1263
0.011518 0.155813 8.52641
-0.431299 0.50843 15.7947
-0.011363 0.241831 17.2903
-0.0391493 0.334474 8.078
-0.129786 1.40849 15.5391
-0.043698 0.454756 15.7206
-0.137176 -0.730701 -0.431912
-0.101478 0.268921 7.34608
-0.758774 1.69177 16.0955
-0.0308462 1.00688 14.8988
-0.00549787 0.153401 0.991088
0.0169967 1.04409 8.23488
3.47856 -0.124971 15.8895
-0.0582995 5.49593 13.2142
-0.0566848 -0.235467 17.1745
0.209346 0.429596 1.69942
-0.054013 0.719532 -0.25197
0.174949 -0.961679 -4.5549
-1.64106 0.457676 7.95497
0.0547389 -0.62318 2.15854
0.15486 -0.952802 -2.99236
1.65175 2.43125 19.4135
0.0291205 1.92146 20.0544
-0.000810488 2.02723 18.369
0.0478238 3.92608 20.6522
1.75722 1.75602 21.0746
0.035625 1.76924 20.8733
0.0335072 3.40878 20.9521
1.55836 1.17549 22.1359
0.010903 1.05607 21.7367
0.000236684 0.577492 22.2384
0.104721 -0.301395 21.8275
-0.00166855 -0.0979501 21.5445
-0.00673047 -0.504628 19.4996
-0.147445 -0.7475 21.183
-0.00258762 -0.482836 21.2092
-0.00646753 -0.883497 19.1928
-0.340787 -0.965736 20.9028
0.000511002 -0.583246 20.8208
0.00636902 -0.888789 19.9052
1.02426 -0.461998 19.8622
1.02791 -0.822353 19.5926
1.70767 -0.817134 19.0866
0.699073 -0.398844 19.492
2.21979 -1.6822 19.9395
1.2042 -0.733395 21.1509
1.0005 -1.34217 21.5292
2.10963 -1.92101 22.3859
0.0923166 -0.802456 21.757
0.150309 -0.349595 21.3254
-0.219635 -0.237491 21.4584
-0.0754389 -0.509212 19.4084
-0.306559 -0.376093 20.6968
-0.220319 -0.164375 21.4397
-0.475462 0.00984339 21.4808
-0.148269 -0.0673181 18.1566
-0.870873 0.56235 20.0663
-0.754181 0.130425 21.2689
-0.860916 0.608949 21.1605
-1.17817 0.580506 17.7263
-1.21272 0.852363 19.5195
-0.90709 0.199833 20.8443
-1.00615 0.650525 20.343
-1.38687 0.603687 18.3164
-1.3819 0.841785 19.6939
1.64711 -0.122403 19.7005
2.85667 0.957768 18.8389
1.18616 -0.127639 19.037
5.24825 -0.30505 19.7274
1.61157 -0.347146 21.3681
2.35996 -0.0745389 22.0401
0.54164 -0.775776 20.0967
0.462528 -0.425753 21.4023
1.28416 -0.804804 20.8824
0.163313 -0.284118 17.9499
-0.0897209 -0.260689 21.6434
-0.208171 -0.183484 19.6768
-1.14898 0.26594 15.7551
-0.87026 -0.276606 21.2825
-0.984212 -0.598346 19.326
-1.60423 0.00715314 17.1506
-1.0214 -0.319295 21.1315
-1.11008 -0.8273 19.5116
-1.63295 -0.00246994 17.5804
1.23629 0.705125 20.1399
0.842806 1.00006 20.2776
1.0903 0.859802 19.4779
1.76507 1.3796 20.6397
1.13901 0.438185 20.9937
0.803004 0.81236 20.9236
1.42123 0.582206 21.3045
0.700936 0.0937995 21.3576
0.504128 0.395968 21.3765
0.516815 0.0770527 21.7414
0.0517601 -0.214977 21.4355
0.055449 -0.126982 21.366
-0.15423 -0.493387 21.4514
-0.318534 -0.458684 21.1839
-0.128054 -0.386965 21.1367
-0.36667 -0.703139 21.0955
-0.400838 -0.520823 20.7683
-0.2413 -0.464446 20.8612
-0.440421 -0.702703 20.6729
-1.29372 -0.788883 19.4452
-1.3309 -1.64664 21.819
0.294706 -0.490484 21.1666
0.43237 -0.0956394 20.5409
1.01847 0.718172 19.7429
1.20898 0.677078 20.048
-2.511 -0.178156 18.7515
-2.52518 -0.54775 22.6914
-0.207925 -0.735174 18.7997
0.135406 0.164429 17.6868
1.33374 0.0558249 16.5256
1.815 -0.167212 17.8041
-1.62519 1.40444 19.8574
-1.57231 0.916744 21.1202
-1.09923 0.378734 21.6539
-0.0782472 -0.251108 21.6607
0.278547 -0.617876 21.2542
0.408394 -0.709839 20.908
-0.0511693 -2.3615 17.5351
-0.0850544 -0.850377 12.9546
0.0216501 0.0995368 7.82665
-0.00402527 0.196729 8.45915
-0.101054 -0.0334574 7.66796
-0.0443771 0.796054 7.06704
-0.0811496 -0.0625903 12.3307
0.0258666 -0.266179 -3.62639
0.157901 -1.08524 -4.37484
0.0204498 3.72679 18.9328
0.0390294 2.91481 20.8917
0.0139589 2.56717 22.6164
-0.00305215 -0.211387 21.0563
-0.00808465 -0.626853 19.1515
0.00336298 -1.08587 20.1149
1.31013 -0.844658 19.3835
1.3841 -1.69773 21.8895
-0.26747 -0.451833 21.1119
-0.414381 -0.10641 20.5066
-1.00037 0.699903 19.6817
-1.2261 0.681914 20.039
2.57371 -0.191741 18.6366
2.45236 -0.586707 22.5612
0.178573 -0.759714 18.8948
-0.143097 0.158406 17.854
-1.31695 0.0745835 16.5155
-1.85679 -0.141111 17.6371
1.61441 1.3627 19.8734
1.54984 0.864738 21.1166
1.0833 0.366934 21.6374
0.0793741 -0.247698 21.6563
-0.274531 -0.612106 21.26
-0.405738 -0.716928 20.9166
0 0 0
-0.419999 -2.52688 3.17229
-0.14611 -0.168605 1.63038
0 0 0
-0.0217841 0.0169036 0.091361
-0.0127557 0.0144598 0.121046
-1.17067 0.473793 1.93184
0 0 0
-0.151769 0.0665277 0.659087
0.00463834 0.00579929 0.0527227
-0.0039225 0.000796634 -0.00684118
0.0359707 -0.0122577 0.619465
0.297302 -4.34126 4.63508
0 0 0
-0.0668536 -0.172962 1.66935
0.0188875 0.0149603 0.0803261
0 0 0
0.0336781 0.0318387 0.331963
-2.59012e-17 -4.17907e-17 -1.33456e-16
1.0182 0.366434 1.67219
0.15403 0.0691541 0.670513
0.00127935 0.00143461 -0.00895365
-0.00358135 0.0069005 0.0512675
-0.0384952 -0.0100315 0.615179
-0.0165795 0.00879197 0.13165
0.00463454 0.00485149 0.113176
0.000184258 0.00165313 0.00391156
0.000162027 7.55985e-06 0.000753174
0.0091996 0.019911 0.445138
0.0306992 0.0116951 0.460501
0 0 0
0 0 0
-0.254548 -0.103604 0.573599
0 0 0
-0.0423743 -0.0225297 0.260375
-0.01272 0.00268218 0.0170153
0.137677 0.110893 0.350845
0.000827981 0.0113705 0.0182821
0.0232747 0.0300716 0.0953021
0.0406073 -0.00420286 0.411617
0.0210528 0.0141542 0.367286
0 0 0
-0.0245635 0.0245368 0.650359
-0.000196585 0.00114609 0.00314575
-0.00659482 0.0159255 0.373964
0 0 0
-0.0402927 0.000962383 0.73255
0 0 0
0.262016 -0.104681 0.589728
0.0119972 0.00261952 0.0161936
-1.28727e-18 -1.0885e-18 3.09794e-17
0.0403378 -0.0215177 0.25285
-0.136177 0.108799 0.344294
-0.0410435 -0.00393934 0.409656
-0.000822478 0.0114767 0.0182363
-0.0226167 0.0292191 0.092355
-0.00655742 0.00796445 0.14063
-0.047257 0.00118337 -0.00023222
-0.00195194 -0.000821546 0.0618764
-0.0084553 -0.0463214 0.00794229
-0.000228064 0.00167966 0.0115849
0 0 0
0.133457 0.0172053 0.393825
-0.0185284 0.00567425 -0.00479574
-0.000368023 0.000937183 0.0289056
0 0 0
0.000605942 0.0178507 0.190767
7.01805e-06 5.44001e-06 0.000305541
0.000423931 0.236203 0.120122
0.000127869 -0.00725401 -0.00542104
-0.000117623 -0.000385856 0.0060015
-0.0721297 0.0376166 0.380577
-0.00634273 0.0830402 -0.0191208
2.17109e-06 1.09287e-05 -0.000247329
0.203687 0.177892 1.32554
-5.11348e-05 0.000458874 -0.00121303
0.0668568 0.0304432 0.00725379
0.0175565 -0.0060633 0.312001
0 0 0
0.000296114 0.00139249 0.0144349
0.020285 0.00707703 -0.00570535
-0.133225 0.0150169 0.396954
0 0 0
-0.000584553 0.0186607 0.19484
0.0715229 0.0377566 0.379186
0.000122388 -0.000388919 0.00636622
6.31702e-06 0.000480554 -0.00126159
-0.209605 0.194733 1.40113
0 0 0
0 0 0
0 0 0
0 0 0
-8.59864e-09 -1.37579e-09 -2.88721e-08
0 0 0
2.38079e-05 0.000327847 0.00104695
-0.00926581 0.013643 0.167112
-3.69257e-08 -3.06437e-07 -2.38157e-05
0 0 0
0.000131766 0.00172772 0.00657145
-0.0564428 0.134015 0.526629
-5.54061e-06 0.0487055 0.45068
1.01589e-05 0.0174715 0.0406276
-3.0502e-06 0.000102493 0.00596464
-1.14951e-05 0.000330862 -0.000548249
0 0 0
0 0 0
0 0 0
-8.08825e-19 2.02588e-18 5.54072e-17
-1.33544e-05 0.000186271 0.000602309
0.00989638 0.0144673 0.175112
0.0583708 0.137362 0.536451
-0.000117696 0.00155807 0.00589641
-0.844248 -0.217863 2.2631
-0.000738758 -0.000238702 0.0060241
0 0 0
0.0607134 -0.130173 0.404568
0 0 0
8.54451e-06 0.000115317 0.00100206
0 0 0