# vtk DataFile Version 2.0
tri_press
ASCII
DATASET UNSTRUCTURED_GRID
POINTS 3682 float
-0.764432 0.045 -1.895
-0.719016 0.135 1.805
-0.696823 0.655 -1.575
-0.677718 0.845 1.775
0.745 0.045 -1.90186
0.719011 0.135 1.805
0.696819 0.655 -1.575
0.677714 0.845 1.775
-0.767477 0.0568166 -0.661667
-0.762568 0.0765864 0.571667
-0.747063 0.774942 -0.458333
-0.73407 0.831651 0.658333
0.753512 0.0578247 -0.66624
0.753768 0.0789061 0.56938
0.747987 0.77587 -0.458333
0.733999 0.831584 0.658333
-1.51922 -0.351068 -2.92889
-1.51575 -0.3057 -1.98865
-1.51475 -0.290737 -0.752139
-1.49892 -0.278734 0.507795
-1.4646 -0.236343 1.74629
-1.4555 -0.200735 2.69622
-1.45775 -0.167251 3.6283
-1.5111 -0.0167424 -2.80969
-1.50732 0.0403817 -1.8824
-1.5123 0.0674946 -0.668902
-1.49226 0.0840885 0.554955
-1.44484 0.125382 1.77073
-1.44255 0.160355 2.71912
-1.45048 0.193575 3.65514
-1.47802 0.632884 -2.5394
-1.46032 0.688772 -1.60826
-1.48864 0.77961 -0.474478
-1.46776 0.826287 0.650992
-1.41498 0.848185 1.78717
-1.42551 0.881417 2.74052
-1.44169 0.916211 3.69554
-1.45333 1.67437 -2.22153
-1.44711 1.73843 -1.30742
-1.45663 1.83463 -0.211744
-1.46023 1.90861 0.858776
-1.45069 1.95047 1.95598
-1.4466 1.97817 2.87327
-1.44834 2.00832 3.8153
-0.77719 -0.349008 -2.93803
-0.76735 -0.301796 -2.00127
-0.766092 -0.295492 -0.751926
-0.761223 -0.284025 0.521846
-0.737658 -0.23275 1.77175
-0.731934 -0.198456 2.71337
-0.733861 -0.166611 3.638
-0.77478 -0.0185947 -2.81328
-0.72455 0.16305 2.73322
-0.729784 0.194192 3.66238
-0.745617 0.618321 -2.52576
-0.711573 0.880767 2.73781
-0.724322 0.915858 3.69462
-0.715985 1.66463 -2.20797
-0.707203 1.72936 -1.29232
-0.717953 1.83257 -0.202809
-0.729766 1.91088 0.857123
-0.728643 1.95161 1.94735
-0.7262 1.97827 2.86465
-0.726705 2.00821 3.80888
0.715813 -0.348678 -2.94246
0.74032 -0.301455 -2.00677
0.748321 -0.294483 -0.756046
0.742652 -0.282301 0.519566
0.720284 -0.232106 1.77098
0.71356 -0.197924 2.71263
0.712684 -0.166006 3.63708
0.708644 -0.0183757 -2.81755
0.706779 0.163402 2.73274
0.709172 0.194721 3.66158
0.703011 0.618529 -2.52787
0.693969 0.881041 2.73743
0.705057 0.916321 3.69391
0.749901 1.6651 -2.20959
0.75983 1.72988 -1.29358
0.756303 1.83314 -0.20381
0.734174 1.91136 0.856297
0.714516 1.95204 1.94661
0.711909 1.97874 2.86386
0.715124 2.00874 3.80798
1.46369 -0.350242 -2.93678
1.48705 -0.304734 -1.99742
1.49781 -0.288897 -0.759105
1.48685 -0.276091 0.50355
1.45629 -0.234675 1.7441
1.44311 -0.199449 2.69438
1.44071 -0.165962 3.62628
1.45742 -0.0160724 -2.81719
1.48522 0.0411168 -1.89106
1.50035 0.0691945 -0.67552
1.48815 0.0867154 0.551136
1.4476 0.12676 1.7691
1.43396 0.16141 2.71767
1.4352 0.194741 3.65336
1.44775 0.633523 -2.54413
1.45925 0.689465 -1.61201
1.49225 0.781003 -0.477374
1.47183 0.827394 0.649142
1.41958 0.849092 1.78605
1.41802 0.882272 2.73932
1.42838 0.917244 3.69394
1.48469 1.67536 -2.22495
1.49359 1.7395 -1.31027
1.49294 1.8358 -0.214064
1.47041 1.90965 0.856859
1.44503 1.95144 1.95429
1.4385 1.97918 2.87154
1.44098 2.00941 3.8134
-0.707843 0.35 -1.71222
-0.009716 0.0413294 -1.9021
-0.768741 0.0481212 -1.27833
-0.726545 0.49 1.81818
-2.5034e-06 0.144358 1.79564
-0.75421 0.0923754 1.18833
-1.99676e-06 0.690824 -1.61082
-0.740481 0.733509 -1.01667
-1.99676e-06 0.866204 1.7962
-0.714497 0.846928 1.21667
0.710087 0.35 -1.72761
0.75218 0.0484887 -1.28405
0.726585 0.49 1.81822
0.747714 0.0956288 1.18719
0.740455 0.733486 -1.01667
0.714494 0.846929 1.21667
-0.764646 0.0670777 -0.045
-0.810587 0.415879 -0.56
-0.0069822 0.0724275 -0.663953
-0.803775 0.454118 0.615
-0.00440017 0.0877211 0.570523
-0.745016 0.807745 0.1
0.000462043 0.871659 -0.458333
-3.53718e-05 1.12138 0.658333
0.753612 0.068394 -0.04843
0.810531 0.416847 -0.562287
0.803783 0.455245 0.613857
0.745002 0.807735 0.1
-0.870284 0.38294 -1.1475
0.870228 0.383424 -1.15036
-0.0083491 0.0712752 -1.28119
0.000230023 0.802281 -1.01667
-0.004859 0.35 -1.89326
-0.811152 0.434999 0.0275
0.811066 0.436046 0.025785
-0.00569118 0.0824342 -0.046715
0.000213335 1.11928 0.1
-0.893968 0.472059 1.2025
0.893968 0.472622 1.20193
-0.00220134 0.117515 1.18776
-1.86843e-05 0.924599 1.21667
-2.25008e-06 0.49 2.00956
-0.649066 0.1975 -1.71654
-0.387074 0.0413184 -1.9004
-0.76838 0.0447677 -1.58667
-0.700289 0.3125 1.7891
-0.359509 0.144792 1.79521
-0.739536 0.110765 1.49667
-0.722316 0.5025 -1.66359
-0.348412 0.668466 -1.58847
-0.731213 0.706815 -1.29583
-0.701102 0.6675 1.79556
-0.33886 0.845226 1.77523
-0.696877 0.846733 1.49583
0.367642 0.0413641 -1.90378
0.632865 0.1975 -1.72006
0.750597 0.0447375 -1.59296
0.359504 0.145214 1.79479
0.700295 0.3125 1.78911
0.742894 0.105783 1.49609
0.348409 0.668433 -1.58843
0.718614 0.5025 -1.66646
0.731166 0.706773 -1.29583
0.338856 0.845212 1.77521
0.701162 0.6675 1.79562
0.696879 0.84674 1.49583
-0.768931 0.0516471 -0.97
-0.764755 0.0632542 -0.353333
-0.817551 0.222088 -0.610833
-0.380808 0.0774643 -0.66281
-0.753924 0.0889461 0.88
-0.764526 0.0709133 0.263333
-0.766782 0.273547 0.593333
-0.375418 0.0982863 0.571095
-0.746151 0.756604 -0.7375
-0.805318 0.608657 -0.509167
-0.748267 0.793571 -0.179167
-0.384374 0.845448 -0.458333
-0.725302 0.840308 0.9375
-0.798767 0.657807 0.636667
-0.740255 0.82041 0.379167
-0.43445 1.11131 0.658333
0.753003 0.0529997 -0.975145
0.366721 0.0782151 -0.665097
0.752162 0.0645096 -0.357335
0.817044 0.219825 -0.614263
0.748102 0.0899061 0.878285
0.367153 0.0983754 0.569952
0.754693 0.0726468 0.260475
0.766442 0.273242 0.591618
0.746412 0.756869 -0.7375
0.384953 0.845222 -0.458333
0.805273 0.609366 -0.51031
0.748211 0.793519 -0.179167
0.725173 0.840183 0.9375
0.434412 1.11134 0.658333
0.798739 0.658338 0.636095
0.740174 0.820333 0.379167
-0.868828 0.36647 -1.42986
-0.356351 0.35 -1.85029
-0.00903255 0.0423928 -1.59165
-0.0072875 0.195665 -1.85431
-0.861668 0.21553 -1.21292
-0.388545 0.0646887 -1.27976
-0.888153 0.48103 1.51034
-0.363274 0.49 1.94792
-0.00110192 0.121201 1.4917
-2.37674e-06 0.317179 1.85215
-0.895803 0.282217 1.19542
-0.378206 0.118297 1.18805
0.000114013 0.733906 -1.31375
-0.0024305 0.520412 -1.84532
-0.877126 0.558224 -1.08208
-0.370126 0.813689 -1.01667
-1.03405e-05 0.880664 1.50644
-2.12342e-06 0.678102 1.94316
-0.893396 0.659494 1.20958
-0.357258 0.908376 1.21667
0.86879 0.366712 -1.43898
0.352614 0.35 -1.85162
0.861638 0.215956 -1.2172
0.371915 0.0655218 -1.28262
0.888193 0.481311 1.51008
0.363291 0.49 1.94789
0.896027 0.284126 1.19456
0.372756 0.118428 1.18748
0.877122 0.558455 -1.08351
0.370342 0.813499 -1.01667
0.893991 0.659776 1.2093
0.357238 0.908401 1.21667
-0.771263 0.259356 -0.00875002
-0.377833 0.0894272 -0.0458575
-0.868591 0.399409 -0.85375
-0.811116 0.425439 -0.26625
-0.00766565 0.0750019 -0.972573
-0.00633669 0.0799134 -0.355334
-0.808075 0.444559 0.32125
-0.895752 0.463089 0.90875
-0.00504568 0.0850168 0.261904
-0.00330075 0.113783 0.879143
-0.805638 0.635149 0.06375
-0.434378 1.08746 0.1
0.000346033 0.858751 -0.7375
0.000337689 1.00895 -0.179167
8.89818e-05 1.1278 0.379167
-2.7028e-05 1.02792 0.9375
0.770594 0.258092 -0.0113225
0.366777 0.0897812 -0.0475725
0.869438 0.400135 -0.856323
0.811196 0.426447 -0.268251
0.808085 0.445646 0.319821
0.895744 0.463934 0.907893
0.805616 0.635682 0.0628925
0.434579 1.08745 0.1
-0.867921 0.206515 -1.50826
-0.864911 0.225939 -0.911875
-0.849846 0.576817 -0.795625
-0.876541 0.530362 -1.36285
0.867334 0.206728 -1.51597
0.87651 0.530477 -1.36741
0.849679 0.577407 -0.796911
0.864834 0.226646 -0.915734
-0.38781 0.0423993 -1.58916
0.369779 0.0424103 -1.5923
0.37259 0.0704555 -0.973859
-0.387887 0.069784 -0.971286
-0.359269 0.748497 -1.30479
-0.371713 0.851942 -0.7375
0.372283 0.851913 -0.7375
0.359375 0.748381 -1.30479
-0.371712 0.196582 -1.81528
-0.352382 0.511456 -1.78536
0.350511 0.511456 -1.78555
0.360128 0.196582 -1.81645
-0.78201 0.246921 -0.309792
-0.768921 0.266503 0.292292
-0.80289 0.646822 0.350208
-0.805616 0.621972 -0.222708
0.781518 0.245109 -0.312793
0.805582 0.622593 -0.223709
0.802866 0.647354 0.349494
0.768505 0.265674 0.290148
-0.378545 0.0849976 -0.354334
0.366158 0.0851798 -0.356335
0.367368 0.0932728 0.26119
-0.376951 0.0932059 0.262619
-0.414745 0.977194 -0.179167
-0.439644 1.10985 0.379167
0.439731 1.10987 0.379167
0.415147 0.977097 -0.179167
-0.895259 0.273785 0.894375
-0.895686 0.297359 1.5035
-0.759072 0.663497 1.50309
-0.798971 0.651189 0.923125
0.89529 0.275601 0.893089
0.798149 0.651595 0.922696
0.759087 0.663638 1.50295
0.895673 0.298313 1.50309
-0.380845 0.113678 0.879571
0.37372 0.113627 0.878714
0.36613 0.122978 1.4939
-0.368857 0.122837 1.49418
-0.362155 1.01783 0.9375
-0.348059 0.860626 1.50113
0.348047 0.860655 1.50113
0.36211 1.01786 0.9375
-0.361391 0.31484 1.8935
0.361398 0.31484 1.89347
0.351074 0.672801 1.89745
-0.351067 0.672801 1.89752
-0.674814 0.12125 -1.77383
-0.575753 0.0413132 -1.89954
-0.766998 0.044292 -1.74083
-0.709658 0.22375 1.79705
-0.539263 0.144715 1.79528
-0.743282 0.108876 1.65083
-0.70767 0.57875 -1.6174
-0.522618 0.663168 -1.58317
-0.720405 0.687295 -1.43542
-0.690608 0.75625 1.78648
-0.508289 0.837193 1.76719
-0.687298 0.845867 1.63542
0.556321 0.0413761 -1.90463
0.663318 0.12125 -1.78534
0.748407 0.0442606 -1.74741
0.539258 0.145352 1.79465
0.709666 0.22375 1.79707
0.745269 0.106075 1.65055
0.522614 0.663225 -1.58323
0.706095 0.57875 -1.61911
0.720395 0.687289 -1.43542
0.508285 0.837166 1.76717
0.690562 0.75625 1.78644
0.687279 0.845853 1.63542
-0.7664 0.0560356 -0.815833
-0.768426 0.0577251 -0.5075
-0.811365 0.130027 -0.63625
-0.57248 0.070465 -0.662238
-0.759782 0.08123 0.725833
-0.76432 0.0729768 0.4175
-0.812594 0.151107 0.5825
-0.561065 0.103293 0.571381
-0.746734 0.7659 -0.597917
-0.808831 0.708119 -0.48375
-0.74898 0.785571 -0.31875
-0.562535 0.803827 -0.458333
-0.72857 0.834863 0.797917
-0.79153 0.757284 0.6475
-0.737229 0.826096 0.51875
-0.59896 1.00088 0.658333
0.751648 0.057022 -0.820693
0.558602 0.0710483 -0.665668
0.755063 0.0589408 -0.511788
0.811076 0.125926 -0.640252
0.753105 0.0822365 0.723833
0.552356 0.104849 0.569666
[...]
POINT_DATA 3682
SCALARS point_scalars float 1
LOOKUP_TABLE default
-40.0295
-40.5444
-68.6748
-39.8683
-48.3274
-39.9557
-65.6392
-39.3893
-40.4579
-28.3963
-37.4981
-50.865
-41.5159
-28.2116
-37.8766
-50.9573
-41.388
-38.6546
-58.3382
-25.3196
-52.6862
-40.7248
-41.2103
-38.6546
-124.381
-58.271
-30.1219
-54.5722
-40.7248
-33.1188
55.3204
-111.877
-43.2742
-40.5728
-52.1071
-36.9205
-33.1657
-44.391
-92.8403
-70.3964
-65.49
-39.856
-41.6874
-38.2955
78.0719
-41.388
-43.9515
-28.0839
-43.1673
-34.9635
-34.0937
78.0719
-34.0937
-31.2408
127.361
-32.773
-31.773
-83.0622
-62.9037
-70.3572
-67.7895
-37.6043
-38.2955
-32.4019
63.4953
-66.987
-43.6372
-29.1839
-43.4481
-33.3283
-33.3283
63.4953
-33.3283
-30.3902
127.952
-32.2847
-30.883
-71.3497
-67.1298
-69.4383
-67.7049
-37.1229
-37.8066
-32.047
-66.987
-73.6364
-58.5793
-25.4928
-52.6449
-40.1427
-36.0424
57.3288
-126.617
-58.388
-30.2588
-54.5444
-40.1427
-32.6429
54.5084
-112.375
-46.1251
-40.4704
-51.8147
-36.3933
-32.7098
-43.3323
-91.689
-70.1091
-65.3607
-39.397
-41.1244
-37.8066
17.8604
-161.392
-67.4647
-35.3026
-31.8937
-36.4144
-0.551774
-56.7457
-33.6938
-49.0833
18.4273
-69.0083
-34.7981
-35.3379
-56.678
-48.9636
-30.6531
-40.9646
-46.217
-27.214
-33.5521
-50.6577
-3.5887
-72.696
-31.0217
-40.9109
-26.842
-50.6147
-75.2759
-74.8785
-72.6074
-35.4031
203.657
-33.7152
-33.5828
-35.414
-94.4965
-47.04
-46.888
-32.4058
-44.6344
-24.11
39.5372
-124.007
-102.935
-35.6768
-35.643
-40.4116
2.61722
-79.1079
-75.213
-36.2744
-34.1897
-41.7969
-103.764
46.0573
-105.487
-35.0445
-35.1167
-40.7236
-78.9668
3.30693
-74.4802
-33.9373
-35.7446
-41.6057
-52.344
-34.1925
-42.5613
-44.895
-34.735
-28.7417
-23.3645
-32.7214
-41.8543
-42.0581
-51.8366
-7.95305
-52.136
-35.9031
-49.7657
-71.0857
-52.4455
-45.1293
-34.2258
-42.4818
-34.8305
-32.6303
-29.2274
-22.8715
-41.6434
-7.66376
-42.0622
-51.7481
-52.0627
-71.0458
-35.7459
-49.6304
-131.098
190.829
-100.869
198.453
-80.5371
-70.5008
-52.9872
-31.1927
-33.3748
-26.4132
-44.8782
-32.9512
-69.6652
124.629
-68.948
-41.9277
-39.6502
-28.4223
-54.5105
-44.7716
-133.363
193.754
-80.1425
-71.3414
-52.9148
-30.4121
-44.4953
-32.8087
-68.6358
-41.802
-54.4372
-44.7484
-31.8476
-34.503
-55.5679
-35.4368
-56.1263
-39.7999
-31.6069
-43.5219
-33.3943
-32.511
-38.9147
-74.5572
-25.3512
-10.0296
-82.9888
-53.5804
-31.6342
-34.6012
-55.6151
-35.265
-31.4493
-43.322
-38.8379
-74.3116
-156.606
-58.1551
-53.1325
-120.344
-156.411
-124.716
-52.8391
-58.3181
-98.767
-99.7186
-55.3113
-54.7647
-62.2872
-27.6748
-27.6296
-62.3137
187.756
93.2037
93.2711
189.873
-35.3831
-29.0931
-37.5189
-39.0992
-35.1284
-39.0165
-37.4104
-28.8369
-38.544
-38.8341
-32.5733
-32.5489
-15.4475
-76.0811
-76.0173
-15.4799
-44.9983
-52.297
-45.9077
-41.6064
-45.0428
-41.8296
-45.5623
-52.2104
-32.7339
-32.6569
-34.6802
-34.9037
-53.947
-39.454
-39.3694
-53.9172
-32.3922
-31.5719
-31.2119
-31.714
31.3421
-56.3427
-111.952
-36.4351
-39.2722
-46.6364
-12.5103
-80.468
-56.2778
-37.7753
-35.5044
-39.3292
-56.284
37.4947
-106.571
-38.6652
-35.8303
-46.1353
-80.7116
-11.29
-73.6315
-35.163
-37.2384
-39.0313
-48.3416
-37.0166
-43.2442
-43.0405
-31.0803
-28.1866
-23.5452
-32.6849
-36.6299
-44.2091
-49.0548
-15.8209
-52.2309
-42.5616
-49.9283
-60.1672
-48.3311
-43.5115
-37.9272
-43.0125
-31.8048
-32.526
-28.7525
-23.0795
-36.5412
-15.7774
-44.3126
-48.8894
-52.0582
-60.1025
-42.4376
-49.8283
33.0983
-0.0243766
-121.207
136.846
-111.74
-98.26
-122.519
202.626
-84.0308
-58.4565
-80.1169
-68.0485
-35.3991
-35.4226
-40.3556
-32.5278
-33.0297
-32.6419
-33.3029
-25.7063
-39.2318
-34.6266
-43.494
-33.9515
-11.8424
-11.542
-98.8633
50.8339
-67.161
-48.1037
-66.1702
-46.8304
-33.8185
-33.6862
-36.5693
-29.8573
-45.2043
-51.9094
-52.3746
-46.5098
39.5254
-3.00534
-104.249
138.505
-85.5328
-58.9731
-80.1691
-69.0084
-34.8879
-34.9054
-39.9204
-32.0871
-38.3396
-34.6968
-42.7197
-33.5827
-65.3591
-47.8791
-66.2831
-46.5619
-45.0748
-51.8475
-52.2076
-46.4478
-31.8665
-29.5891
-31.9499
-33.3278
-42.0061
-40.2682
-48.2018
-37.298
-45.8323
-46.0127
-50.6137
-42.6881
-24.8528
-30.9835
-29.825
-21.9379
-33.5209
-33.4601
-33.1378
-32.5024
-51.0779
-50.1234
-43.7939
-69.5203
-4.84718
-4.86345
-15.4406
2.24906
-72.5416
-72.5226
-77.4511
-61.6619
-32.047
-29.9053
-31.6175
-33.4057
-41.9686
-40.2019
-48.2781
-37.1243
-24.3583
-30.7485
-29.5871
-21.4652
-50.9274
-49.9949
-43.7219
-69.4481
-93.2988
-78.2882
-72.6363
-63.6425
-93.5402
-77.9228
-72.2945
-63.4414
-84.6383
-72.1281
-72.6272
-63.3839
-47.086
-36.8849
-36.862
-28.5085
200.117
201.146
162.054
200.396
-32.5161
-34.3498
-32.8839
-35.6907
-32.3211
-34.2049
-32.7575
-35.6022
-35.2235
-37.2563
-34.1967
-35.2669
-88.2081
-39.0479
-90.9342
-88.0206
-48.9368
-45.8703
-48.6107
-45.6695
-48.6925
-45.6598
-48.4319
-45.5588
-32.8693
-32.5232
-32.4637
-32.0482
-42.3065
-44.5573
-44.5365
-48.2081
-27.8019
-22.4207
-27.5311
-26.8444
-89.566
132.66
-120.106
190.222
-141.37
-94.8422
-41.3427
-33.3603
-35.6813
-32.2183
-53.4991
-36.8506
-117.398
62.9262
-78.2511
43.2565
-109.688
-64.2823
-40.5761
-32.6907
-36.762
-32.1135
-44.6958
-40.1214
-123.541
191.292
-85.7774
145.385
-138.557
-96.062
-35.3264
-31.2336
-40.9087
-32.7558
-53.5726
-36.6249
-78.3857
40.0569
-110.919
63.5941
-110.503
-64.2539
-36.6172
-31.7125
-40.1565
-32.2479
-44.3558
-39.9942
-58.7717
-53.2415
-35.8354
-37.125
-49.4586
-38.2888
-49.352
-41.2622
-43.9168
-33.2354
-29.1161
-31.6124
-26.8917
-17.5915
-32.3591
-32.2553
-50.7404
-31.0037
-44.212
-39.2196
-44.4907
-43.3256
-17.5072
-3.40741
-46.1951
-55.1107
-36.4847
-36.6513
-43.0258
-60.5377
-71.4893
-62.3848
-58.952
-53.7959
-49.7509
-41.6211
-35.3758
-37.4658
-49.957
-38.1657
-44.1257
-32.819
-32.3318
-32.2515
-28.8163
-31.6291
-26.5464
-16.7907
-50.6998
-30.8693
-17.6278
-3.22377
-44.2825
-39.1498
-44.4103
-43.4419
-45.9946
-55.0636
-71.4178
-62.3642
-36.3566
-36.5148
-42.9197
-60.4256
-148.521
-122.761
189.784
142.437
-100.14
-100.646
194.437
194.28
-104.514
-67.0257
-82.2977
-61.6619
-50.8491
-50.7705
-30.9387
-31.8628
-33.6612
-33.7889
-26.4688
-26.1159
-44.2187
-46.742
-32.2663
-33.805
-68.2439
-68.0963
98.6408
99.5897
-60.6487
-86.3379
-51.06
-35.991
-39.5474
-39.5056
-29.5351
-30.0467
-55.2251
-49.2732
-48.518
-42.1882
-148.14
-123.663
142.434
192.598
-105.037
-66.7563
-83.225
-62.3515
-50.5021
-50.6883
-30.051
-31.3225
-44.0093
-46.5238
-32.1852
-33.6391
-86.2316
-60.2955
-35.8573
-50.992
-49.5555
-55.0043
-42.134
-48.4838
-33.1844
-30.5662
-36.1531
-33.2525
-56.6715
-54.2549
-35.2991
-36.5378
-56.1746
-55.8365
-39.511
-39.6483
-30.0985
-34.0326
-44.7902
-36.8628
-33.2216
-33.2051
-32.5504
-32.5176
-38.3889
-39.0455
-38.6619
-87.3587
-26.0778
-26.0309
-11.323
-11.3657
-81.9002
-81.8669
-53.7004
-53.5635
-32.9546
-30.3426
-36.3246
-33.3181
-54.2097
-56.7754
-35.0871
-36.4253
-33.9139
-29.876
-44.8742
-36.6504
-38.9689
-38.3001
-87.2744
-38.6807
-74.2722
-107.264
-99.1894
-106.56
-51.1196
-49.0237
-65.6488
-67.1051
-41.7104
-54.8049
-61.6959
-45.4862
-85.5213
-123.365
-89.1519
-84.7169
-78.0947
-104.64
-99.6362
-108.7
-83.5209
-84.4432
-89.0701
-117.955
-41.2195
-45.9228
-61.4986
-54.1918
-52.3701
-66.5367
-65.4232
-49.1905
-111.829
-125.198
-84.2438
-78.8402
-114.614
-79.9501
-84.7695
-126.889
-48.4071
-50.5123
-63.3964
-60.4019
-48.0049
-59.6764
-62.975
-50.2837
-74.4096
-55.084
-47.0268
-107.104
-21.6188
-16.0856
-30.3486
-38.0914
-21.6116
-37.9087
-30.2793
-16.0754
-74.7991
-109.44
-47.0789
-54.8107
143.661
121.814
197.651
200.516
28.8091
39.3489
153.791
118.207
29.3893
119.183
154.899
39.7098
155.041
199.123
197.976
130.404
-38.6658
-33.5496
-33.4938
-37.5336
-27.0435
-27.9828
-31.4794
-30.5747
-42.7267
-43.4865
-35.0829
-32.634
-44.546
-37.6446
-36.0655
-43.9863
-38.5419
-37.5164
-33.2689
-33.0772
-44.4353
-43.9091
-35.9583
-37.5199
-42.5782
-32.467
-34.9865
-43.3944
-26.6915
-30.3319
-31.2842
-27.6698
-40.0749
-42.3995
-36.9739
-34.9113
-40.3157
-34.9886
-37.0783
-42.5186
-31.5321
-32.9623
-33.9971
-32.3527
-31.4906
-32.2438
-33.965
-32.9663
-16.3012
-70.4061
-36.2347
0.618665
-58.5572
-76.5584
-90.4439
-64.896
-58.449
-64.7815
-90.4212
-76.5087
-16.3035
0.592072
-36.2408
-70.086
-17.5274
-42.6959
-44.8448
-19.659
-43.2259
-40.7162
-47.6614
-45.2746
-40.8677
-49.0977
-51.1952
-40.761
-45.5781
-30.3282
-47.4689
-50.7203
-17.6901
-18.825
-44.7147
-42.5562
-45.4744
-50.798
-47.3562
-30.1807
-40.4468
-40.343
-50.962
-48.8358
-42.6959
-45.1826
-47.4271
-40.2816
-30.7598
-32.4386
-32.0803
-32.88
-31.1511
-32.7927
-32.0403
-32.4247
-37.8068
-33.7611
-33.0163
-35.1036
-38.166
-35.2225
-33.099
-33.9759
-57.9769
-50.5327
-48.2616
-61.789
-37.489
-36.6908
-42.093
-42.9277
-37.2758
-42.8544
-42.0644
-36.6199
-57.9347
-61.7852
-48.2478
-50.4797
-33.2724
-27.309
-26.8914
-32.5095
-32.7338
-32.0217
-25.8072
-26.8156
-32.8114
-30.4664
-29.0829
-32.254
-33.2767
-32.6808
-29.7
-30.809
17.5278
-41.9031
-133.104
-40.3061
-41.0802
-40.6953
-35.6755
-78.0764
-86.5152
-40.3192
-36.9751
-38.8884
-2.00392
22.2549
-170.495
-40.3693
-39.7244
-40.279
-77.8473
-34.4645
-78.1899
-36.5671
-39.7561
-38.5061
-43.2733
-38.2444
-41.9444
-41.8565
-29.6935
-28.1447
-24.2805
-31.8591
-35.5618
-41.9881
-42.2865
-23.7384
-51.4854
-47.3755
-49.9789
-54.4882
-43.6829
-42.3752
-38.7381
-41.9916
-29.982
-31.845
-28.6569
-24.0084
-35.661
-23.6105
-42.2433
-42.6268
-51.3638
-54.478
-47.5424
-50.0308
26.3078
8.50231
-5.45043
81.1306
-137.22
-148.121
-173.784
129.63
-73.6845
-62.8089
-78.8755
-66.8913
-35.3462
-35.2356
-38.2336
-33.021
-32.2512
-32.0707
-32.9999
-27.0837
-37.3127
-35.0679
-41.8925
-34.7551
-1.7549
-1.63727
-102.196
-5.92058
-63.3741
-51.3884
-64.0733
-49.4383
-33.8174
-33.7591
-35.2073
-31.838
-46.8925
-49.8392
-49.7933
-47.4728
34.1373
7.13608
1.273
80.6111
-74.889
-63.5127
-79.0573
-67.7682
-34.8413
-34.7301
-37.7676
-32.5757
-36.2228
-34.6984
-41.178
-34.3333
-61.9421
-51.2406
-64.4112
-49.0813
-46.7984
-49.7569
-49.7078
-47.4089
-31.2509
-30.1231
-31.0794
-32.3779
-41.4161
-40.4803
-43.9857
-38.7804
-45.9709
-46.1317
-48.2538
-44.4718
-26.0166
-28.8939
-28.6609
-25.6577
-33.4553
-33.4572
-33.1659
-33.1807
-50.9416
-50.1607
-47.5946
-57.9718
-4.01518
-4.02776
-10.406
0.570619
-72.7265
-72.719
-75.0967
-68.7533
-31.4987
-30.3217
-30.8625
-32.5596
-41.4129
-40.3941
-44.0489
-38.6531
-25.5724
-28.5938
-28.363
-25.2008
-50.8164
-49.9201
-47.5292
-57.8869
-83.129
-76.9279
-74.1578
-68.8359
-82.957
-76.5384
-73.7932
-68.4914
-78.1374
-72.4333
-72.521
-67.6426
-40.0846
-36.0036
-36.0176
-32.1858
202.939
201.283
199.041
202.91
-33.0978
-34.0215
-33.3395
-34.5709
-32.9384
-33.8807
-33.2239
-34.4135
-35.4185
-36.3289
-34.6285
-35.4157
-93.2231
-67.0846
-96.6575
-93.1505
-47.9896
-46.3668
-47.8052
-46.4399
-47.7648
-46.2072
-47.6157
-46.3202
-32.6398
-32.4389
-32.4075
-32.1834
-43.1457
-44.5987
-44.5908
-46.379
-25.7693
-22.3268
-26.3893
-25.0389
49.0881
35.5347
-18.2685
107.489
-105.262
-109.513
-176.898
52.0539
-104.354
-96.0402
-120.848
-91.7747
-35.7557
-35.5781
-39.1871
-34.0657
-37.2821
-34.1914
-36.0729
-33.0191
-43.3508
-42.1022
-50.4059
-38.1276
-4.33559
1.94394
-0.81485
27.0087
-77.8667
-36.4447
-80.7417
-44.9694
-83.2371
-70.6425
-92.5256
-67.9457
-36.8737
-35.8333
-38.8615
-33.418
-34.7471
-33.9398
-35.4687
-32.6767
-40.4856
-43.3522
-42.825
-40.8206
-83.7136
-101.583
-193.108
61.947
45.2798
41.8713
-12.6254
115.787
-99.7227
-98.0284
-119.19
-92.5292
-36.6884
-33.6518
-35.6345
-31.9801
-35.1754
-35.0514
-38.7284
-33.4948
-43.6584
-41.131
-51.1464
-38.01
-77.5948
-36.185
-80.8204
-48.3284
-2.34235
1.71369
2.50406
28.4804
-81.2282
-71.3011
-92.5522
-67.0578
-34.4594
-33.7622
-35.2932
-32.3463
-36.346
-35.3044
-38.3785
-32.9389
-40.2478
-43.1898
-42.5525
-40.6764
-50.7846
-55.0417
-57.1294
-52.291
-35.7842
-32.7829
-34.5395
-35.8571
-42.8677
-42.6584
-45.2355
-40.1479
-44.1512
-45.1376
-46.9161
-43.0597
-34.8815
-34.0952
-40.6722
-33.9025
-28.4314
-28.9612
-28.3665
-30.8992
-23.6688
-23.6904
-25.2855
-20.8381
-32.2547
-33.2144
-32.4874
-32.3169
-38.2562
-42.8585
-45.51
-33.9005
-43.8975
-40.4248
-42.5849
-40.3157
-52.8645
-51.3852
-48.1802
-62.5941
-10.8803
-6.11344
-13.5269
-4.09389
-51.7152
-51.8204
-48.8533
-53.1212
-38.7038
-33.3447
-36.0669
-35.938
-49.659
-50.0965
-46.6356
-54.915
-67.0197
-72.5067
-70.8098
-69.866
-50.6063
-55.8261
-57.1542
-52.6363
-44.5726
-45.496
-47.3437
-43.411
-36.5258
-32.9802
-34.216
-36.2488
-42.7612
-42.6561
-45.4044
-40.0819
-34.8953
-34.4263
-41.0351
-33.8562
-32.1937
-33.2169
-32.4642
-32.3426
-28.779
-29.2073
-28.3991
-30.9306
-23.1475
-23.1829
-24.8828
-20.2411
-38.1655
-42.7408
-45.7334
-33.7112
-10.8527
-6.10919
-13.5119
-4.10707
-44.0292
-40.3807
-42.7084
-40.2754
-52.8836
-51.2883
-48.0992
-62.6351
-51.7806
-51.6638
-48.8666
-53.0528
-66.8958
-72.4937
-70.7514
-69.9007
-38.5841
-33.1582
-35.9162
-35.7906
-49.512
-49.965
-46.4955
-54.7472
-172.863
-108.381
-139.359
-127.306
170.531
196.127
190.04
173.889
-113.126
-91.0365
-100.444
-100.641
199.341
200.109
197.006
196.695
-81.0708
-79.5614
-90.4067
-72.9568
-69.4075
-71.4671
-76.1696
-65.761
-43.5086
-50.5241
-51.1923
-52.8972
-32.2071
-29.8422
-31.0268
-31.7068
-33.3356
-33.1121
-33.471
-33.5384
-26.0971
-25.0237
-26.6957
-26.4929
-44.1606
-45.4492
-44.3431
-45.5518
-33.3558
-32.6706
-32.5578
-33.3739
-87.0131
-57.7374
-69.0347
-69.0685
123.742
118.854
109.941
110.88
-67.2107
-70.8609
-63.9846
-76.396
-46.2343
-39.3457
-45.5991
-38.1226
-38.0922
-41.0749
-39.609
-39.5844
-29.2201
-27.6461
-28.8946
-29.257
-56.552
-50.9285
-53.6609
-51.6917
-45.1994
-44.6427
-46.5657
-43.377
-167.198
-109.439
-141.53
-128.178
169.161
196.317
173.196
192.277
-80.625
-79.1986
-90.3834
-72.57
-70.3295
-72.0705
-77.1426
-66.4792
-43.1209
-50.304
-52.6379
-51.006
-31.6681
-28.9016
-30.1821
-31.0989
-43.6188
-45.1919
-43.9752
-45.2343
-33.1534
-32.5714
-32.4405
-33.2033
-66.9782
-70.5652
-76.1973
-63.7247
-46.0314
-39.267
-37.9501
-45.4892
-56.4453
-50.7832
-50.9301
-53.5706
-45.1484
-44.6627
-43.3252
-46.5273
-32.1807
-32.0428
-32.4946
-31.2141
-33.9994
-34.8152
-35.2991
-33.7779
-51.3867
-59.4552
-56.1871
-54.9548
-36.2433
-34.8239
-35.1531
-35.8729
-53.3226
-59.5091
-56.5398
-56.3327
-41.2271
-38.3374
-39.7517
-39.8169
-30.8014
-32.3298
-30.8827
-32.7031
-28.592
-45.3668
-44.1473
-40.9638
-33.2064
-33.7773
-33.3793
-33.3824
-32.8904
-31.9456
-32.5278
-32.5124
-41.1546
-37.1073
-38.7323
-38.9848
-76.6676
-81.0919
-52.8006
-86.8532
-17.883
-26.2155
-25.4567
-25.4297
-1.38735
-22.761
-10.4146
-10.4185
-79.9857
-86.7715
-82.7842
-82.7639
-57.2143
-50.5717
-53.5486
-53.5381
-31.8731
-31.8392
-32.2504
-31.0037
-34.0716
-34.878
-35.4202
-33.8596
-51.5647
-59.3825
-54.9726
-56.2811
-36.0584
-34.6596
-34.939
-35.7344
-30.6095
-32.18
-32.5689
-30.689
-28.0713
-45.3472
-44.1145
-40.6387
-41.0792
-37.0283
-38.9113
-38.6541
-76.6957
-80.6366
-86.8127
-52.5589
-163.093
-152.489
-155.157
-128.125
-58.8515
-54.6209
-62.0655
-57.3184
-53.204
-48.1972
-55.8477
-53.609
-161.047
-121.486
-122.281
-100.513
-152.726
-151.425
-154.839
-130.078
-162.05
-125.54
-123.591
-100.824
-53.2629
-48.8514
-55.5895
-53.1302
-58.9938
-55.0405
-61.9506
-57.4405
-110.822
-96.8423
-98.8426
-88.8765
-113.016
-98.6572
-99.4346
-90.0479
-54.6293
-52.4456
-58.5335
-55.7973
-54.0613
-51.9731
-57.9723
-55.3673
-68.13
-63.8643
-62.4646
-55.6485
-28.9974
-24.0306
-31.4772
-27.2294
-28.8913
-24.4799
-31.4341
-27.2042
-68.2731
-63.8837
-62.5707
-55.6291
165.022
188.168
188.352
192.242
91.4735
80.8513
96.2609
92.5545
79.975
91.5737
92.8673
96.486
189.206
166.014
191.573
190.887
-35.819
-36.7813
-34.2372
-35.5225
-29.3776
-28.1247
-29.8645
-29.2982
-37.0143
-39.8801
-35.6455
-37.9722
-39.1242
-41.1017
-37.6052
-39.0584
-35.6347
-36.5675
-34.0147
-35.3008
-39.0288
-41.0161
-37.5062
-38.9892
-36.9031
-39.7852
-35.5321
-37.8749
-29.0774
-27.8334
-29.6249
-29.0629
-38.0118
-39.9531
-37.2654
-39.0723
-40.142
-38.1745
-39.2447
-37.443
-32.3906
-32.1345
-32.9196
-32.8732
-32.1445
-32.3791
-32.8365
-32.9083
-21.7853
-7.732
-26.046
-12.2647
-68.8963
-73.28
-80.5316
-79.887
-73.2203
-68.8078
-79.8432
-80.4627
-7.74409
-21.7338
-12.2917
-26.0668
-44.2783
-28.5656
-44.3324
-45.6731
-50.4789
-52.9999
-51.5717
-48.3769
-43.1876
-45.4231
-46.1851
-48.5207
-43.8543
-38.2039
-42.8071
-37.9057
-44.2845
-27.5805
-44.2651
-45.838
-44.1107
-38.2694
-42.9568
-37.5854
-42.8139
-45.0795
-45.8253
-48.201
-50.3047
-53.026
-51.483
-48.2447
-33.018
-33.1876
-31.9912
-32.6089
-32.8462
-33.0795
-31.9412
-32.5635
-34.9073
-35.5104
-34.0815
-34.1031
-35.1959
-35.7541
-34.2799
-34.2702
-54.405
-57.5335
-50.9777
-53.7593
-38.087
-39.6555
-39.4822
-40.8985
-37.9741
-39.548
-39.4186
-40.833
-54.3681
-57.5075
-50.9443
-53.7356
-32.89
-32.3165
-31.335
-29.2904
-31.4358
-32.2042
-28.3684
-30.4785
-31.3348
-31.8251
-30.3199
-30.9539
-32.2855
-31.7923
-31.5155
-30.8674
-26.0307
100.483
-177.358
91.2593
-107.536
-107.638
-39.6081
-33.9217
-39.0653
-35.9963
-46.5755
-39.8912
-35.7126
13.4807
-80.1195
-30.2354
-69.5843
-70.5389
-41.1178
-34.6336
-36.4351
-34.0816
-40.5316
-38.187
-185.345
102.594
-23.0095
106.299
-109.042
-105.557
-38.6518
-35.4016
-39.0791
-33.353
-46.0434
-39.5196
-80.3793
-29.6758
-34.9923
14.0143
-78.8912
-74.3159
-36.17
-33.6279
-40.61
-34.1314
-40.1307
-37.9479
-51.1931
-47.2175
-37.8749
-38.9667
-46.3459
-40.7624
-44.8968
-41.5878
-26.198
-30.537
-26.8445
-30.7921
-25.4908
-21.6189
-31.8117
-32.0438
-41.6104
-26.7451
-42.1313
-44.4577
-47.7187
-36.5625
-17.6576
-13.3733
-49.4911
-55.0532
-42.2918
-43.7373
-46.4904
-54.1891
-58.1853
-59.5217
-53.1928
-47.6532
-45.2549
-41.9697
-37.9094
-39.3397
-46.3012
-40.5982
-27.7977
-30.9586
-31.749
-31.9196
-26.9411
-30.7064
-25.069
-21.1411
-41.6113
-26.6239
-17.5747
-13.345
-42.153
-44.4439
-47.5772
-36.2288
-49.3477
-55.0304
-58.1276
-59.4433
-42.6491
-43.6183
-46.3058
-53.9383
-1.77583
89.1891
6.49626
77.9271
-111.736
-113.448
119.605
136.057
-178.299
13.436
-183.365
9.59101
-122.589
-125.066
201.429
200.229
-105.495
-78.6653
-64.9751
-58.2021
-90.9313
-73.436
-73.2248
-63.65
-38.5882
-33.0058
-38.3193
-33.2047
-40.4093
-40.5921
-32.45
-32.6327
-33.9285
-29.489
-33.6563
-28.8357
-33.3779
-33.4869
-25.843
-25.5763
-44.0217
-36.5735
-40.1947
-33.4156
-42.8543
-44.0193
-33.3016
-34.6571
-89.3008
-38.7704
-83.2405
-38.8201
-98.1269
-98.1049
43.3576
43.0228
-83.7438
-58.4889
-52.2349
-41.2664
-59.8082
-74.836
-50.729
-42.5361
-35.2951
-32.3619
-35.2056
-32.1909
-36.6968
-36.6588
-30.2737
-30.4748
-46.712
-43.8299
-51.0536
-50.9851
-50.1019
-52.7347
-48.7244
-44.5908
3.37773
90.9807
8.84736
80.4017
-107.241
-108.905
137.828
125.314
-108.257
-79.5186
-64.5499
-58.8807
-91.3474
-72.2438
-74.3008
-64.4347
-38.1396
-32.5259
-37.8415
-32.7469
-40.1671
-39.9621
-31.9828
-32.2184
-43.3614
-36.3231
-40.9555
-33.2994
-42.0097
-43.5983
-33.0807
-34.2392
-83.1214
-58.0128
-51.9806
-41.0259
-74.8339
-60.1452
-42.3109
-50.4323
-46.5088
-43.7441
-51.004
-50.9166
-52.58
-49.9062
-44.5361
-48.6624
-32.4704
-33.8055
-29.6907
-31.4119
-32.656
-31.3198
-34.1545
-32.6755
-45.6795
-39.3974
-42.4126
-38.7703
-49.1119
-46.7525
-37.3209
-37.4132
-47.8443
-44.1351
-48.1163
-44.3404
-50.6484
-50.476
-42.5814
-42.6799
-26.5301
-22.8249
-31.8076
-30.2024
-28.9056
-31.1029
-20.4051
-25.6722
-33.0337
-33.1416
-33.0195
-33.1142
-33.1045
-33.1085
-32.5427
-32.5075
-47.5679
-61.0095
-47.0498
-56.4004
-43.6409
-43.8924
-78.8621
-67.8895
-11.2667
-0.845753
-11.2944
-0.868351
-15.6212
-15.6213
1.2963
1.27899
-74.527
-68.8171
-74.5165
-68.7982
-77.2768
-77.2593
-61.9196
-61.9148
-32.1001
-33.986
-29.5053
-31.6722
-32.4767
-31.0941
-34.2371
-32.7826
-45.969
-39.2597
-42.3722
-38.6772
-47.3821
-49.1487
-37.1672
-37.2666
-26.1437
-22.1766
-31.6055
-29.9485
-30.901
-28.6253
-19.6942
-25.1739
-47.4828
-60.9531
-46.9365
-56.3499
-43.8131
-43.5493
-67.7788
-78.7558
-96.1007
-91.4708
-86.844
-71.2281
-66.4619
-80.4631
-64.7013
-62.7959
-96.3714
-91.5574
-86.7513
-70.8661
-80.1282
-66.173
-62.6107
-64.5045
-84.0952
-84.3419
-77.9557
-67.1875
-78.5334
-67.6075
-63.5944
-63.2818
-46.6148
-46.6656
-41.4239
-33.7414
-33.6985
-41.4398
-28.9691
-28.9465
198.484