# vtk DataFile Version 2.0
tet_velo
ASCII
DATASET UNSTRUCTURED_GRID
POINTS 29498 float
-0.703475 0.315 -2.055
-0.789834 0.525 2.175
-0.785 0.82177 -2.035
-0.785 1.0948 2.095
0.703479 0.315 -2.055
0.789835 0.525 2.175
0.785 0.82177 -2.035
0.785 1.0948 2.095
-0.803466 0.313795 -0.645
-0.872737 0.34331 0.765
-0.842303 0.970083 -0.658334
-0.820695 1.03949 0.718333
0.803469 0.313795 -0.645
0.864065 0.351985 0.765
0.842322 0.970102 -0.658334
0.82309 1.04188 0.718333
-1.51066 -0.0648102 -3.16072
-1.51978 -0.00949032 -2.04606
-1.60127 -0.00165602 -0.635203
-1.67043 0.0295637 0.782368
-1.64669 0.163678 2.19379
-1.63016 0.258715 3.31121
-1.62952 0.332234 4.42351
-1.51031 0.231836 -3.1627
-1.51873 0.303759 -2.05169
-1.6122 0.32446 -0.647313
-1.67582 0.3506 0.760063
-1.62696 0.482391 2.16508
-1.6156 0.575387 3.28202
-1.62141 0.648171 4.39541
-1.54547 0.791585 -3.15731
-1.57572 0.862596 -2.04492
-1.64053 0.969525 -0.663271
-1.64781 1.02386 0.71602
-1.61326 1.09223 2.09831
-1.60778 1.18333 3.21664
-1.61582 1.26527 4.33539
-1.58936 1.69964 -3.17429
-1.60888 1.78064 -2.06689
-1.6359 1.89737 -0.69605
-1.64465 1.98972 0.66761
-1.63681 2.06241 2.0388
-1.63077 2.12789 3.14693
-1.62932 2.2004 4.26204
-0.726978 -0.0583445 -3.16287
-0.720531 -0.000676118 -2.0492
-0.785719 -0.00591093 -0.634782
-0.851807 0.0259592 0.786581
-0.830171 0.187207 2.20116
-0.815834 0.276781 3.31621
-0.816187 0.343367 4.4264
-0.724331 0.233403 -3.16336
-0.800977 0.594185 3.28615
-0.808752 0.659077 4.39759
-0.752763 0.776241 -3.15319
-0.795716 1.19016 3.21597
-0.804248 1.27163 4.33525
-0.786575 1.69023 -3.17021
-0.799541 1.77219 -2.0624
-0.820236 1.89768 -0.693343
-0.828579 1.99449 0.667286
-0.823469 2.06532 2.03648
-0.818368 2.12999 3.14461
-0.816774 2.20277 4.26036
0.782367 -0.0579821 -3.16286
0.765871 -0.000435224 -2.0492
0.819938 -0.00474149 -0.634782
0.840145 0.0319237 0.786582
0.79298 0.189545 2.20116
0.799643 0.278693 3.31621
0.804723 0.345513 4.4264
0.773852 0.233627 -3.16336
0.801716 0.595474 3.28615
0.807305 0.660991 4.39759
0.795138 0.776443 -3.15319
0.801461 1.19125 3.21597
0.808771 1.27337 4.33525
0.810417 1.69087 -3.17021
0.81296 1.77287 -2.0624
0.813981 1.89877 -0.693343
0.807259 1.99622 0.667286
0.801689 2.06718 2.03648
0.80288 2.13186 3.14461
0.805223 2.20473 4.26036
1.55336 -0.06384 -3.16071
1.54302 -0.0085779 -2.04606
1.61517 0.00130595 -0.635203
1.66167 0.0383347 0.782367
1.62586 0.169698 2.19379
1.61656 0.263319 3.31121
1.61808 0.336782 4.42351
1.5418 0.23253 -3.1627
1.5145 0.304211 -2.05169
1.60648 0.326415 -0.647314
1.66976 0.359985 0.760063
1.62588 0.487525 2.16508
1.61561 0.579261 3.28202
1.61883 0.652364 4.39541
1.56852 0.792217 -3.15731
1.56643 0.862981 -2.04492
1.63109 0.970818 -0.663271
1.64706 1.02927 0.71602
1.61667 1.09613 2.09831
1.61328 1.18668 3.21664
1.61887 1.26912 4.33539
1.60669 1.70106 -3.17429
1.6144 1.7822 -2.06689
1.62588 1.89975 -0.69605
1.62498 1.99329 0.66761
1.61777 2.06632 2.0388
1.61623 2.1318 3.14693
1.6174 2.20442 4.26204
-0.799546 0.568385 -2.10031
1.99676e-06 0.311433 -2.05857
-0.75265 0.315218 -1.35
-0.77354 0.8099 2.12112
4.76837e-07 0.491434 2.20857
-0.827948 0.437492 1.47
0 0.848023 -2.06125
-0.820294 0.902569 -1.34667
0 1.11876 2.11896
-0.815477 1.07977 1.40667
0.799546 0.568385 -2.10031
0.752302 0.315569 -1.35
0.775842 0.8099 2.12342
0.824155 0.441287 1.47
0.820262 0.902537 -1.34667
0.815464 1.07976 1.40667
-0.828876 0.337779 0.0599999
-0.871436 0.641939 -0.651667
1.49012e-06 0.31071 -0.645
-0.860096 0.691398 0.741667
-0.00433641 0.310753 0.765
-0.831967 1.00525 0.03
9.82812e-06 1.2419 -0.658334
0.00119738 1.56093 0.718333
0.8289 0.337757 0.0599999
0.875266 0.641949 -0.651667
0.860072 0.696933 0.741667
0.831984 1.00527 0.03
-0.867324 0.605162 -1.34833
-0.867431 0.666668 0.045
-0.890649 0.750649 1.43833
1.74344e-06 0.310631 -1.35
-0.00216746 0.310794 0.0599999
-0.00216796 0.331558 1.47
9.98378e-07 0.568385 -2.24917
2.38419e-07 0.8099 2.13384
4.91406e-06 0.99084 -1.34667
0.000603604 1.54619 0.03
0.00059869 1.22902 1.40667
0.866821 0.605167 -1.34833
0.86794 0.669441 0.045
0.890614 0.753416 1.43833
-1.1111 0.30938 -2.05334
-0.712003 0.157162 -2.0521
-0.713903 0.274202 -2.60918
-1.2084 0.503695 2.17004
-0.810003 0.356103 2.18808
-0.795406 0.559593 2.73057
-1.18036 0.842183 -2.03996
-0.768882 0.799005 -2.59409
-0.792271 1.29698 -2.0487
-1.19913 1.09352 2.09666
-0.790358 1.14248 2.65549
-0.804235 1.58006 2.06574
0.734675 0.157282 -2.0521
0.738665 0.274313 -2.60918
1.10899 0.309606 -2.05334
0.791407 0.357272 2.18808
0.795775 0.560237 2.73057
1.20786 0.506263 2.17004
0.790069 0.799106 -2.59409
0.79898 1.29732 -2.0487
1.17571 0.842375 -2.03996
0.793231 1.14302 2.65549
0.793345 1.58099 2.06574
1.20084 1.09546 2.09666
-1.20783 0.319127 -0.646157
-0.794593 0.153942 -0.639891
-1.27428 0.346955 0.762531
-0.862272 0.184635 0.775791
-1.24142 0.969804 -0.660802
-0.831269 1.43388 -0.675838
-1.23425 1.03167 0.717177
-0.824637 1.51699 0.69281
0.811704 0.154527 -0.639891
1.20497 0.320105 -0.646157
0.852105 0.191954 0.775791
1.26691 0.355985 0.762531
0.828152 1.43444 -0.675838
1.23671 0.97046 -0.660802
0.815175 1.51905 0.69281
1.23508 1.03557 0.717177
-1.51522 -0.0371503 -2.60339
-1.51049 0.0835129 -3.16171
-1.11882 -0.0615774 -3.16179
-1.56053 -0.00557317 -1.34063
-1.51926 0.147135 -2.04888
-1.12016 -0.00508322 -2.04763
-1.63585 0.0139538 0.0735823
-1.60674 0.161402 -0.641258
-1.1935 -0.00378347 -0.634992
-1.65856 0.0966207 1.48808
-1.67313 0.190082 0.771215
-1.26112 0.0277615 0.784475
-1.63842 0.211196 2.7525
-1.63682 0.323034 2.17944
-1.23843 0.175442 2.19748
-1.62984 0.295474 3.86736
-1.62288 0.417051 3.29662
-1.223 0.267748 3.31371
-1.62547 0.490203 4.40946
-1.22286 0.3378 4.42495
-1.51452 0.267798 -2.60719
-1.52789 0.51171 -3.16
-1.11732 0.23262 -3.16303
-1.56547 0.314109 -1.3495
-1.54723 0.583178 -2.04831
-1.64401 0.33753 0.0563746
-1.62637 0.646992 -0.655292
-1.65139 0.416495 1.46257
-1.66182 0.68723 0.738041
-1.62128 0.528889 2.72355
-1.62011 0.787311 2.13169
-1.61851 0.611779 3.83871
-1.61169 0.879358 3.24933
-1.20829 0.584786 3.28409
-1.61862 0.956721 4.3654
-1.21508 0.653624 4.3965
-1.56059 0.82709 -2.60112
-1.56741 1.24561 -3.1658
-1.14911 0.783913 -3.15525
-1.60813 0.91606 -1.3541
-1.5923 1.32162 -2.05591
-1.64417 0.996692 0.0263747
-1.63822 1.43345 -0.67966
-1.63054 1.05805 1.40717
-1.64623 1.50679 0.691815
-1.61052 1.13778 2.65747
-1.62503 1.57732 2.06856
-1.6118 1.2243 3.77601
-1.61927 1.65561 3.18178
-1.20175 1.18675 3.2163
-1.62257 1.73283 4.29872
-1.21004 1.26845 4.33532
-1.59912 1.74014 -2.62059
-1.18797 1.69494 -3.17225
-1.62239 1.83901 -1.38147
-1.20421 1.77641 -2.06465
-1.64027 1.94355 -0.0142197
-1.22807 1.89752 -0.694696
-1.64073 2.02607 1.35321
-1.23661 1.9921 0.667448
-1.63379 2.09515 2.59286
-1.23014 2.06387 2.03764
-1.63004 2.16414 3.70448
-1.22457 2.12894 3.14577
-1.22305 2.20158 4.2612
-0.723755 -0.0295103 -2.60603
-0.725654 0.0875295 -3.16311
0.0276942 -0.0581633 -3.16287
-0.753125 -0.00329353 -1.34199
0.0226695 -0.000555671 -2.0492
-0.818763 0.0100241 0.0758997
0.0171092 -0.00532621 -0.634782
-0.840989 0.106583 1.49387
-0.00583089 0.0289414 0.786581
-0.823003 0.231994 2.75869
-0.0185957 0.188376 2.20116
-0.816011 0.310074 3.8713
-0.808406 0.435483 3.30118
-0.00809563 0.277737 3.31621
-0.81247 0.501222 4.41199
-0.00573236 0.34444 4.4264
-0.738547 0.504822 -3.15827
0.0247607 0.233515 -3.16336
-0.804865 0.626631 3.84187
-0.798347 0.892174 3.25106
0.000369322 0.59483 3.28615
-0.8065 0.965353 4.36642
-0.000723304 0.660034 4.39759
-0.769669 1.23324 -3.1617
0.0211875 0.776342 -3.15319
-0.799982 1.2309 3.77561
-0.807042 1.66008 3.18029
0.00287236 1.19071 3.21597
-0.810511 1.7372 4.2978
0.00226105 1.2725 4.33525
-0.793058 1.73121 -2.61631
0.0119211 1.69055 -3.17021
-0.809889 1.83493 -1.37787
0.0067093 1.77253 -2.0624
-0.824407 1.94608 -0.0130287
-0.00312735 1.89822 -0.693343
-0.826024 2.0299 1.35188
-0.0106599 1.99535 0.667286
-0.820918 2.09766 2.59055
-0.01089 2.06625 2.03648
-0.817571 2.16638 3.70248
-0.00774384 2.13093 3.14461
-0.00577575 2.20375 4.26036
0.774119 -0.0292087 -2.60603
0.778109 0.0878224 -3.16311
1.16786 -0.0609111 -3.16179
0.792904 -0.00258836 -1.34199
1.15444 -0.00450656 -2.04763
0.830041 0.0135911 0.0758997
1.21756 -0.00171777 -0.634993
0.816562 0.110734 1.49387
1.25091 0.0351292 0.784474
0.796311 0.234119 2.75869
1.20942 0.179621 2.19748
0.802183 0.312103 3.8713
0.80068 0.437084 3.30118
1.2081 0.271006 3.31371
0.806014 0.503252 4.41199
1.2114 0.341147 4.42495
0.784495 0.505035 -3.15827
1.15783 0.233078 -3.16303
0.804511 0.628233 3.84187
0.801589 0.89336 3.25106
1.20866 0.587367 3.28409
0.808038 0.967182 4.36642
1.21307 0.656678 4.3965
0.802778 1.23366 -3.1617
1.18183 0.78433 -3.15525
0.805116 1.23231 3.77561
0.802171 1.66156 3.18029
1.20737 1.18896 3.2163
0.806997 1.73905 4.2978
1.21382 1.27125 4.33532
0.811689 1.73187 -2.61631
1.20855 1.69597 -3.17225
0.813471 1.83582 -1.37787
1.21368 1.77754 -2.06465
0.81062 1.9475 -0.0130288
1.21993 1.89926 -0.694697
0.804474 2.0317 1.35188
1.21612 1.99476 0.667448
0.802285 2.09952 2.59055
1.20973 2.06675 2.03764
0.804051 2.1683 3.70248
1.20955 2.13183 3.14577
1.21131 2.20458 4.2612
1.54819 -0.0362089 -2.60339
1.54758 0.0843448 -3.16171
1.5791 -0.00363598 -1.34063
1.52876 0.147817 -2.04888
1.63842 0.0198203 0.0735823
1.61083 0.163861 -0.641258
1.64377 0.104016 1.48808
1.66571 0.19916 0.771215
1.62121 0.216509 2.7525
1.62587 0.328611 2.17944
1.61732 0.30005 3.86736
1.61609 0.42129 3.29662
1.61845 0.494573 4.40946
1.52815 0.26837 -2.60719
1.55516 0.512373 -3.16
1.56049 0.315313 -1.3495
1.54046 0.583596 -2.04831
1.63812 0.3432 0.0563746
1.61879 0.648617 -0.655292
1.64782 0.423755 1.46257
1.65841 0.694627 0.738041
1.62074 0.533393 2.72355
1.62127 0.791827 2.13169
1.61722 0.615813 3.83872
1.61445 0.882969 3.24933
1.61885 0.960741 4.3654
1.56747 0.827599 -2.60112
1.58761 1.24664 -3.1658
1.59876 0.9169 -1.3541
1.59042 1.32259 -2.05591
1.63908 1.00004 0.0263746
1.62848 1.43528 -0.67966
1.63187 1.0627 1.40717
1.63602 1.51128 0.691815
[...]
POINT_DATA 29498
VECTORS point_vectors float
-1.82162 -2.75506 4.29438
0.233378 0.145838 0.630012
-3.75071 1.53808 7.58994
-0.0960036 -0.454956 1.7715
1.82329 -2.7557 4.296
-0.232481 0.141655 0.628607
3.75941 1.56123 7.63864
0.0945941 -0.448701 1.74682
0.0710721 -0.0558604 1.74051
0.0366131 -0.217628 2.07706
-0.0145205 -0.0203219 0.500585
0.00941055 0.0157688 0.0855693
-0.069683 -0.0647147 1.73759
-0.0211784 -0.0959271 1.24897
0.0101995 -0.0135848 0.460831
-0.0160823 0.0306587 0.159526
-0.568406 -0.303179 19.8783
-1.14359 -0.706303 20.5203
-0.417042 -0.46509 21.2987
0.115749 -0.236889 21.5165
0.730593 -0.0533079 21.4664
1.07869 0.157646 20.9909
1.07477 -0.147136 20.9193
-0.640136 -0.229998 19.7724
-1.53255 -0.602202 20.4642
-0.569079 -0.547182 21.3593
0.0571137 -0.367778 21.5602
0.73841 -0.310723 21.5323
1.16521 -0.263981 21.0378
1.08038 -0.311935 21.0065
-0.691554 -0.00184981 19.7103
-1.65078 -0.0105058 20.3121
-1.09671 -0.39885 21.2882
-0.312632 -0.478894 21.5858
0.365837 -0.606967 21.5635
0.743023 -0.742541 21.1266
0.530754 -0.397112 21.3708
-0.476767 0.238453 19.8886
-0.920265 0.459282 20.2504
-0.987543 0.319261 20.9976
-0.494191 -0.0219959 21.4235
-0.0679274 -0.287852 21.4624
0.210145 -0.495721 21.3981
0.248361 -0.648541 20.1989
-0.54749 -0.64731 19.3201
-1.83859 -3.33218 20.8764
-0.174713 -0.435652 21.5552
0.499275 0.147529 20.7682
1.63221 1.14361 18.1123
2.15732 1.70528 18.2981
1.91404 1.15313 17.4082
-0.669421 -0.540593 19.0097
2.59664 0.344765 11.8272
2.33853 0.499185 16.2326
-0.788352 0.0854091 18.7816
0.796146 -1.16562 10.5381
1.2469 -1.42149 14.4785
-0.446234 0.522066 19.5086
-1.08716 1.44369 19.8332
-1.72713 1.66273 20.9336
-0.785779 0.41685 21.8733
-0.240985 -0.238751 21.5741
0.0139625 -0.576445 21.021
-0.119401 -0.329819 22.3749
0.569533 -0.607874 19.3663
1.92958 -3.06769 20.8521
0.164102 -0.461675 21.5954
-0.50368 0.180031 20.6036
-1.56363 1.20598 17.4851
-2.18078 1.75244 18.2064
-1.93592 1.16772 17.2881
0.706052 -0.507211 19.0635
-2.58819 0.325809 11.7956
-2.34739 0.47727 16.2168
0.800108 0.0732979 18.8482
-0.826286 -1.16992 10.7211
-1.24589 -1.41676 14.5024
0.452154 0.511985 19.5263
1.08615 1.41751 19.8389
1.72948 1.6981 20.9256
0.78697 0.441759 21.8884
0.245028 -0.230555 21.5725
-0.00214428 -0.576945 21.0422
0.103958 -0.323487 22.4546
0.562675 -0.289625 19.8951
1.12775 -0.686805 20.5259
0.417869 -0.469065 21.2891
-0.120129 -0.240242 21.5163
-0.747059 -0.0587257 21.4755
-1.07343 0.146273 20.9965
-1.08294 -0.132893 20.9156
0.635216 -0.224667 19.7943
1.54392 -0.613735 20.4694
0.576568 -0.557072 21.3702
-0.0635307 -0.37331 21.5723
-0.734819 -0.314068 21.5395
-1.16603 -0.275935 21.0342
-1.06665 -0.311112 21.0186
0.682531 -0.00288715 19.7382
1.66554 -0.01085 20.3195
1.11944 -0.405745 21.2994
0.309431 -0.480219 21.5913
-0.36542 -0.603543 21.5709
-0.729157 -0.728015 21.0568
-0.501829 -0.396324 21.3493
0.472922 0.235589 19.8981
0.913194 0.455748 20.252
1.00132 0.327965 20.9987
0.501733 -0.018759 21.4241
0.0737952 -0.294377 21.451
-0.202863 -0.496375 21.4322
-0.208904 -0.687497 20.1652
-3.31696 -0.628293 4.68502
7.38153e-05 -0.288357 1.12428
0.142348 -0.036275 0.85495
-0.00313113 -0.0244134 0.0281024
-0.00224808 -0.00314228 0.0344464
0.0581012 -0.00939294 0.522629
0.00310637 0.236585 0.532416
-0.253808 -0.103948 0.778643
-0.00693259 0.109545 -0.290458
0.0216559 0.0302153 0.24802
3.25729 -0.681924 4.5276
-0.153047 -0.0401302 0.898805
0.00269206 -0.0180772 0.0180122
-0.0395593 -0.00402917 0.36705
0.287718 -0.121782 0.890007
-0.021827 0.0309203 0.240171
0.0334718 -0.0158882 1.22268
-0.00232113 0.00233169 0.423215
3.88169e-07 8.20745e-08 4.54517e-05
1.03363e-18 -2.04454e-17 -1.5888e-16
9.156e-07 2.22167e-07 0.000429354
0.0190221 0.0671088 0.263817
-0.000246412 0.00386847 0.0059545
0.000127009 -0.00829241 0.126216
-0.02961 -0.0114216 1.22683
0.0162316 0.0141184 0.600511
0 0 0
-0.0205438 0.0670915 0.257851
-5.3702e-18 -1.93484e-17 1.72254e-16
0.000643606 0.00589802 0.0556149
0.00267881 0.00363605 0.0834986
-4.70735e-07 2.34769e-08 -1.68362e-05
6.58973e-07 1.22501e-08 9.28871e-05
0.00227824 0.00450279 0.0447611
1.36263e-05 -0.076028 0.0350261
0 0 0
0 0 0
1.80221e-05 0.000275181 0.0072451
0 0 0
0 0 0
-0.00093529 0.00388394 0.0355701
-0.0022665 0.00275516 0.0689495
-2.95413 -1.56605 20.5723
-3.30165 -5.37846 21.1448
-1.89636 -1.6415 17.894
1.43258 -0.360517 20.7854
1.50939 0.994735 11.4688
1.55315 0.392212 8.07834
-3.17807 0.302265 20.187
-2.34749 0.63895 17.316
-2.34127 2.40268 19.5124
0.4063 -0.996882 20.7886
-0.1886 -0.909904 6.83332
-0.195226 -0.332789 18.2783
3.32262 -4.96886 21.0784
1.9292 -1.62433 17.974
2.963 -1.56965 20.586
-1.43488 1.02459 10.898
-1.53005 0.346453 8.05625
-1.41626 -0.367382 20.7767
2.35094 0.609029 17.3974
2.32673 2.35666 19.5271
3.19638 0.30541 20.1876
0.202326 -0.90797 6.82913
0.180694 -0.308204 18.0136
-0.401088 -0.997123 20.7954
-0.43668 -0.836628 21.7156
0.463735 -0.282813 17.0423
0.273226 -0.499215 21.7509
0.787531 -0.113931 16.2528
-1.79407 -1.01191 21.6682
-3.98799 1.72014 21.1689
-0.493818 -0.899253 21.4176
-1.17481 0.0298585 20.3093
-0.451743 -0.363382 17.3055
0.451655 -0.848217 21.7065
-0.77517 -0.0590884 15.6158
-0.303212 -0.501236 21.7183
4.05377 1.79256 21.1532
1.82709 -1.03259 21.6701
1.15476 0.0549086 20.1267
0.4897 -0.908154 21.4344
-0.913932 -0.519885 20.0361
-0.603911 -0.276339 19.8262
-0.628715 -0.486478 19.6074
-0.805058 -0.613808 21.0861
-1.34626 -0.669795 20.4988
-1.66385 -1.53006 20.6273
-0.128468 -0.34226 21.4403
-0.47926 -0.498408 21.3326
-0.306861 -0.597208 21.543
0.411875 -0.126377 21.5573
0.104379 -0.289679 21.5266
0.301365 -0.203259 21.711
0.938727 -0.012183 21.3453
0.762847 -0.18033 21.5083
1.23294 0.1898 21.5691
1.10309 -0.0573867 20.7965
1.18444 -0.138255 20.9901
1.54199 0.410036 20.813
1.05965 -0.173824 21.112
1.34376 0.215891 20.3585
-1.14589 -0.416882 19.8839
-0.70817 -0.136215 19.7125
-0.723851 -0.37535 19.439
-1.05544 -0.601416 21.1268
-1.64836 -0.331334 20.3966
-0.228812 -0.454246 21.4817
-0.810711 -0.553236 21.3384
0.401189 -0.334194 21.6306
-0.0835134 -0.489277 21.5834
0.977847 -0.274925 21.3905
0.622701 -0.505946 21.5974
1.16428 -0.242818 20.9672
0.973962 -0.510422 21.2287
1.80684 -0.160252 20.8852
0.799832 -0.398577 21.1665
1.78139 -0.424443 19.1598
-1.25847 0.022541 19.8094
-0.611288 0.168195 19.7737
-0.823439 0.041971 19.3291
-1.45503 -0.20745 20.9164
-1.32117 0.365708 20.232
-0.695174 -0.485033 21.5195
-1.22409 0.0567968 21.1467
0.0373162 -0.520716 21.6307
-0.51887 -0.239008 21.5374
0.578478 -0.634871 21.4558
0.0393905 -0.479189 21.4622
0.728705 -0.609351 21.2483
0.394869 -0.648005 20.9548
0.979384 -1.03579 20.4421
0.343174 -0.585723 20.9205
1.32606 -1.07215 19.1338
-0.723688 0.371958 19.9959
-0.520324 0.383379 19.6964
-1.03083 0.435562 20.6135
-1.09485 0.86635 20.0677
-0.772343 0.150965 21.3071
-1.41072 0.750616 21.0336
-0.247372 -0.17275 21.4374
-0.677959 0.111154 21.6333
0.0760048 -0.408009 21.2108
-0.167344 -0.328982 21.4654
0.201707 -0.420233 20.9645
0.167207 -0.506374 21.0693
-0.0228043 -0.356713 21.9403
-1.23021 -1.721 19.0713
-0.583506 -0.601445 19.2061
0.0161569 -0.877428 19.0223
-0.742514 -1.16466 22.0204
0.0595352 -4.60563 21.4385
0.143841 -0.141226 21.0457
0.00631205 -0.58253 20.5672
1.09158 0.613375 19.1532
0.00458549 0.0723832 17.5889
1.95038 1.40536 17.923
0.013536 1.15474 12.2781
1.8532 1.15077 16.8538
2.40175 1.03581 15.3193
-0.000452478 2.52738 14.0611
2.29737 0.993513 16.5603
0.0255621 2.20765 15.8137
-0.793274 -0.244775 18.8192
0.0259364 -0.693383 18.5784
2.46825 1.09419 13.8326
2.03288 -0.588865 8.7402
-0.00615381 1.79532 3.32943
1.91786 -0.600264 15.5872
0.0160647 3.03655 8.50952
-0.651714 0.472363 19.1265
0.0226264 0.169524 18.2158
0.951484 -1.36675 11.8404
0.188277 -1.04288 20.3027
0.060028 0.866645 -5.27247
0.0119876 -0.936282 17.6341
0.0250108 2.13216 3.04813
-0.771456 1.0053 19.4933
0.00723668 0.691041 19.2689
-1.39594 1.59912 20.3061
0.0175751 2.20852 19.5218
-1.43431 1.10086 21.7978
-0.0239143 3.50219 20.4093
-0.427878 0.00793105 21.7052
-0.0258402 1.11195 22.327
-0.121342 -0.424937 21.5118
-0.0137598 0.199968 21.9461
0.0819929 -0.809503 20.8524
-0.00319117 -0.476083 21.869
-0.0152256 -0.265732 22.0162
1.25759 -1.64321 19.1467
0.609025 -0.564831 19.2526
0.625841 -0.458583 19.6508
0.742252 -1.1284 21.9416
1.6089 -1.4186 20.6065
-0.155467 -0.139556 21.015
0.324419 -0.598898 21.5277
-1.0817 0.656941 18.7105
-0.311845 -0.197077 21.7069
-1.94252 1.48333 17.6026
-1.26608 0.219116 21.5325
-1.86276 1.19592 16.6202
-2.39319 1.04257 15.0939
-1.55836 0.450183 20.7023
-2.30776 0.998706 16.4776
-1.36735 0.250413 20.25
0.8233 -0.233812 18.8931
0.730644 -0.365862 19.4817
-2.45961 1.0891 13.7655
-2.03415 -0.602582 8.84196
-1.80106 -0.170883 20.9123
-1.92488 -0.627255 15.5933
-1.78956 -0.427274 19.155
0.657623 0.459072 19.1668
0.820058 0.0413658 19.3694
-0.958726 -1.41754 11.9321
-0.171867 -1.03096 20.2165
-0.957175 -1.03172 20.5286
-0.00953465 -0.921802 17.5127
-1.32413 -1.0845 19.2241
0.77237 0.977767 19.5149
0.519064 0.369509 19.7103
1.3937 1.59562 20.2982
1.08938 0.85012 20.0724
1.44219 1.1445 21.816
1.42328 0.768698 21.0314
0.427069 0.0199762 21.7064
0.687928 0.12467 21.646
0.131946 -0.414463 21.5222
0.165462 -0.314582 21.4812
-0.0787916 -0.793539 20.8173
-0.16565 -0.494294 21.0497
0.0279641 -0.348745 22.0422
0.899334 -0.501982 20.064
0.598805 -0.267603 19.8482
0.806536 -0.610574 21.0681
1.33554 -0.661304 20.5028
0.126913 -0.346005 21.445
0.484274 -0.503629 21.3316
-0.420276 -0.128337 21.5596
-0.113194 -0.295401 21.5358
-0.951835 -0.0175647 21.3526
-0.766343 -0.188072 21.5143
-1.1173 -0.053913 20.7998
-1.18155 -0.155762 21.0005
-1.06705 -0.158572 21.1072
1.13414 -0.408165 19.9023
0.695061 -0.135959 19.7358
1.05956 -0.607498 21.1312
1.66518 -0.333561 20.4044
0.229318 -0.461137 21.4934
0.825987 -0.565696 21.351
-0.403032 -0.343347 21.6251
0.0801739 -0.493799 21.5887
-0.971584 -0.277322 21.3992
-0.612505 -0.505401 21.5869
-1.16091 -0.254225 20.9846
-0.971989 -0.510737 21.2218
-0.774491 -0.390389 21.1608
1.24728 0.0209795 19.8279
0.60657 0.165333 19.79
1.46725 -0.214503 20.9252
1.3225 0.365302 20.2311
0.698876 -0.48853 21.5319
1.24474 0.0607919 21.1491
-0.0406155 -0.519827 21.618
0.525832 -0.242358 21.5465
-0.566568 -0.629935 21.4591
-0.0463589 -0.478922 21.4524
-0.724408 -0.622015 21.2426
-0.384681 -0.628748 20.9691
-0.33959 -0.599574 20.9007
0.715648 0.366671 20.0029
1.03272 0.437133 20.6099
0.785971 0.156885 21.3118
0.253912 -0.173619 21.442
-0.0702896 -0.385166 21.2073
-0.192187 -0.427999 20.9326
-1.03027 -0.479153 19.9588
-1.52113 -1.8131 18.5568
-1.20054 -1.01001 19.6665
-1.68419 -0.873596 19.228
-0.670636 -0.463192 19.5504
-2.26771 -1.64704 20.5992
-0.915059 -0.62665 21.1181
0.0313145 -0.656131 18.212
-0.834084 -0.965774 21.4313
-1.21351 -1.1086 21.6036
-0.35338 -0.698655 21.6219
-0.164019 -0.390052 21.4627
0.440419 -0.0801565 15.5854
-0.00294831 -0.363785 21.6123
-0.0153251 -0.613476 21.6571
0.303499 -0.343002 21.7471
0.444162 -0.233897 21.5843
1.27446 0.271018 12.7407
0.741747 -0.0290412 21.7065
0.797405 -0.455237 21.3803
1.40888 -0.0527644 21.2685
0.982497 -0.150184 21.3276
2.09342 1.09908 13.4351
1.48838 0.291211 21.3408
1.76548 -0.321519 20.9032
1.73314 0.0829196 20.7618
1.11718 -0.106959 21.0638
2.23485 1.03944 15.9165
2.03463 0.296834 20.2106
1.8085 -0.256678 20.7833
1.72736 0.056912 19.5087
-1.24342 -0.222774 19.8308
-2.38041 -0.638196 17.2011
-1.89233 0.194322 19.094
-0.834102 -0.188397 19.3158
-3.45805 -0.670049 20.36
-1.29829 -0.495976 21.0663
-2.36554 -0.511541 21.2223
-0.86447 -1.12942 21.522
-0.40983 -0.53303 21.5051
-0.991889 -1.05648 21.6348
0.0673711 -0.790706 21.2796
0.260593 -0.476654 21.6605
-0.0731131 -0.834649 21.1107
1.0721 -0.785363 20.3358
0.84021 -0.527163 21.4511
0.521996 -0.874965 5.19751
0.691646 -1.11056 20.9486
1.47858 -0.693102 20.6508
1.00347 -0.56554 20.8479
2.06164 0.27299 12.0309
1.0253 -0.967247 20.5544
1.60193 -1.15149 19.1889
-0.99626 0.298485 19.8867
-1.37141 1.27913 18.7678
-0.822602 0.661786 19.7616
-0.688044 0.288787 19.479
-1.92136 0.97023 19.9841
-1.36421 0.222007 20.7338
-2.81787 1.88273 20.2948
-1.31951 0.865047 20.53
-2.16101 0.270885 21.2911
-0.904622 -0.118645 21.4483
-2.78561 0.230568 22.1826
-1.12786 0.430457 21.5098
-0.859647 -0.258264 21.8157
-0.195769 -0.353547 21.5579
-0.354935 -0.137297 19.1387
-0.356006 -0.136341 21.5827
-0.134469 -0.605733 21.6389
0.231437 -0.549208 21.3518
-0.0371444 -0.61875 19.0936
-0.027704 -0.425216 21.3799
0.272673 -0.857098 21.24
0.420811 -0.683471 21.4686
0.347658 -1.01469 17.788
0.0649424 -0.547482 21.8517
0.076937 -0.588556 22.3389
1.54127 -1.73668 18.6454
0.0347031 -2.60968 18.4587
0.0446533 -2.85027 16.2977
0.0265497 -0.814454 18.8748
0.0789424 -7.10418 22.6726
0.0308701 -0.738092 18.7705
0.0327765 -1.51728 22.3139
-0.0127838 -0.130961 10.735
-0.435767 -0.0784321 15.5445
-0.000836649 -0.238156 18.7815
0.00849421 0.0643239 9.24558
-1.25047 0.295839 12.1918
0.00439816 0.709939 14.2887
-0.0131557 0.730875 4.89489
-2.0419 1.11608 13.0592
0.00297196 1.50743 12.6683
-0.0202211 0.135973 2.24081
-0.00877902 1.95667 7.68415
-2.23933 1.05411 15.7821
0.00910141 2.35364 13.6518
0.00763498 2.32448 7.41661
0.015477 2.29829 12.9777
2.38812 -0.642376 17.324
0.0386129 1.46955 14.9152
0.023799 -0.343276 18.191
-0.505107 -0.903572 5.23241
0.0517221 0.341519 -4.28781
0.0354691 2.28241 -0.720105
-2.04773 0.234285 12.0179
0.0625059 1.14044 -1.87313
0.0268491 4.34332 -0.146795
1.37411 1.24025 18.7978
0.0105293 1.44202 19.1428
0.0128237 0.659776 18.7176
0.0281539 4.20926 18.8919
2.81177 1.87722 20.2626
0.00177776 2.59757 19.9279
-0.0663279 6.14215 18.1911
2.81768 0.239209 22.1634
-0.0357455 2.94221 22.3987
0.00691925 0.0684251 7.19708
0.315618 -0.108626 18.8082
-0.0220298 0.497928 21.9439
-0.0552816 0.436189 2.904
0.0418622 -0.595412 18.9304
-0.00983552 -0.119227 22.0343
-0.0214812 -0.339705 7.72004
-0.344058 -0.994916 17.645
-0.00223397 -0.570472 21.2075
-0.00610347 -0.368443 12.7452
1.00503 -0.460704 19.9887
1.17669 -0.945963 19.7126
1.6547 -0.839089 19.2753
0.672049 -0.437087 19.5852
2.20594 -1.57149 20.5887
0.91469 -0.627665 21.1094
0.841013 -0.939304 21.3992
1.20927 -1.10653 21.6001
0.373051 -0.708339 21.6131
0.163197 -0.395494 21.4704
0.00199776 -0.365018 21.6143
0.00993959 -0.616088 21.6614
-0.322078 -0.338025 21.7389
-0.445777 -0.241951 21.5837
-0.761592 -0.018143 21.6775
-0.803463 -0.458552 21.3418
-1.42971 -0.0514651 21.1656
-0.98836 -0.158595 21.3389
-1.53151 0.313207 21.2641
-1.74957 -0.330641 20.9045
-1.75303 0.0864676 20.697
-1.12883 -0.103405 21.068
-2.03234 0.28595 20.2046
-1.80631 -0.249054 20.7822
-1.73978 0.0827102 19.4356
1.23914 -0.225858 19.8545
1.85328 0.188338 19.1326
0.828289 -0.180236 19.3676
3.48247 -0.675555 20.3656
1.31028 -0.503437 21.0716
2.38075 -0.523957 21.2033
0.881535 -1.14446 21.4967
0.411846 -0.538071 21.5199
0.999153 -1.0702 21.6334
-0.0848284 -0.802534 21.2524
-0.266262 -0.477529 21.6553
0.0663515 -0.839542 21.12
-1.05368 -0.786766 20.3518
-0.826223 -0.524784 21.4476
-0.681032 -1.10217 20.9371
-1.46631 -0.700369 20.7042
-0.990997 -0.558555 20.8398
-1.00242 -0.956401 20.6456
-1.61136 -1.15794 19.232
0.989726 0.294022 19.8971
0.820619 0.646535 19.773
0.687331 0.279437 19.5019
1.90903 0.959602 19.9832
1.37446 0.223706 20.7304
1.31744 0.865002 20.5242
2.1993 0.285915 21.2894
0.915353 -0.117168 21.4532
1.14191 0.454507 21.5201
0.871683 -0.257351 21.8219
0.200448 -0.360607 21.557
0.359803 -0.133695 21.5902
0.143607 -0.607263 21.625
-0.22637 -0.550083 21.3702
0.028187 -0.431278 21.3875
-0.261769 -0.850708 21.2428
-0.429786 -0.708722 21.451
-0.0590881 -0.564775 21.885
-0.0756502 -0.586348 22.3138
-1.42274 -0.998446 19.4908
-1.00385 -1.05021 21.5182
-0.00210889 -0.474472 21.6517
0.81403 -0.227098 21.6593
1.72525 0.0300815 21.1194
1.93423 0.0237096 20.4676
-1.96104 -0.379543 19.0503
-1.81622 -1.04347 21.6328
-0.250909 -0.956038 21.3855
0.46006 -0.751121 21.0259
1.38895 -0.893996 20.6165
1.50874 -0.870025 20.6024
-1.27745 0.64174 19.4543
-2.09042 0.636864 20.6726
-1.50925 -0.103287 21.7963
-0.419406 -0.413718 21.7602
0.0810125 -0.750458 21.5456
0.75588 -0.877637 20.1057
0.0490276 -2.87119 17.5247
-0.00635241 -0.533904 12.9274
0.00136998 -0.0445436 9.49751
0.00450083 0.478353 5.91827
-0.0239474 0.89365 6.44266
0.00410112 2.74602 9.70447
0.0469987 -0.956377 14.7383
0.0343699 0.214461 -0.55002
0.0457007 3.76289 -0.0641699
0.0275302 2.11548 17.8903
0.023983 3.92984 19.4748
-0.00494302 0.966905 8.75186
-0.0132871 0.308916 3.43885
-0.0719967 -0.0328766 5.53058
-0.0164216 -1.14062 10.4132
1.40033 -0.947429 19.5562
1.00721 -1.0335 21.4873
0.0046792 -0.476456 21.6586
-0.831829 -0.229586 21.5992
-1.73894 0.025112 21.1017
-1.94805 0.0262876 20.4269
1.92254 -0.36511 19.1053
1.81104 -1.06274 21.6303
0.244591 -0.96923 21.3669
-0.462168 -0.752892 21.0048
-1.36876 -0.890266 20.61
-1.49996 -0.855257 20.6265
1.26375 0.619254 19.4767
2.09439 0.640419 20.6556
1.53633 -0.0956067 21.8142
0.424351 -0.418889 21.7591
-0.0715441 -0.748826 21.5278
-0.752747 -0.869044 20.0928
-2.20584 -1.09183 2.7956
0.114957 -1.01266 1.88937
0.118658 -0.0959725 1.16712
0.121346 -0.332327 0.890175
-0.00518042 -0.0167945 0.00291559
0.0959179 -0.00826764 0.670855
-2.41464 0.0673505 2.40491
-0.0979983 0.587386 0.771306
-0.121229 -0.0529518 0.496072
0.0312567 -0.061533 0.0889871
-0.125336 0.0733878 -0.183012
-0.00513326 -0.0429146 0.690635
-0.114631 -1.01131 1.89153
2.17398 -1.08016 2.7641
-0.115765 -0.0939808 1.11279
0.00214428 -0.0173342 0.0025919
-0.121593 -0.343751 0.90054
-0.0944884 -0.0184635 0.679253
0.093602 0.556929 0.726739
2.29728 0.152993 2.34077
0.124869 -0.0576879 0.510401
0.119278 0.0838745 -0.209414
-0.034515 -0.0799651 0.104196
0.000366776 -0.0378784 0.678983
0.0699932 -0.101188 0.625254
0.0222569 -0.0101326 0.73262
0.000654912 -0.00288105 0.0585164
0 0 0
0.1183 -0.0636687 0.905706
0.0401436 -0.0491926 1.43686
-0.032824 -0.0276757 0.359484
0 0 0
-0.186312 -0.253085 0.951643
-1.96694e-05 0.00021795 0.0064352
0.0868466 0.176577 0.720737
-0.0376391 0.021419 0.0468809
0.00040586 0.00100071 0.00725871
0 0 0
0.00388148 0.00849786 0.0387903
0.157085 0.192995 0.900111
-0.0755129 -0.107678 0.672272
0 0 0
-0.0234363 -0.00844138 0.725994
-0.000454817 -0.00251498 0.0514003
-0.110091 -0.0638985 0.874283
0 0 0
-0.0363556 -0.0447663 1.46168
0.00669743 -0.00992628 0.177955
0.188432 -0.256961 0.947935
0.0360895 0.021799 0.0467859
1.77749e-05 0.000277296 0.00666338
-0.0897344 0.184531 0.664721
0 0 0
-0.166296 0.20075 0.930807
-4.17374e-18 3.2594e-17 2.05002e-16
-0.00226381 0.00479211 0.0217074
-0.00853056 -0.0241239 0.173902
-0.303386 -0.0782876 0.171757
-1.46332e-06 -6.39244e-07 -0.000125603
-0.000420248 -0.303846 0.18184
0.00373998 -0.0304968 0.207601
-4.13003e-06 -4.66037e-08 -4.70451e-05
0 0 0
-2.97282e-05 -5.98634e-05 -5.05894e-07
0 0 0
-0.00179407 -0.105993 0.0402704
0.00128996 0.000272672 0.0620336
0.00736103 0.00409196 0.0415365
0 0 0
0 0 0
0 0 0
-0.0232123 0.0162393 0.0835821
-0.00345385 -0.239403 -0.0506793
-2.68595e-06 1.15793e-05 -0.000117132
0 0 0
-0.00323223 0.00139215 -0.0037094
0.301801 -0.0766027 0.171865
0.000532181 -0.00167993 0.0113902
3.77271e-06 -3.9808e-08 -4.15688e-05
-0.00992445 -0.0629423 0.413047
0 0 0
0 0 0
-0.00864356 0.00446013 0.0466274
-0.00499816 -0.000538856 0.18933
0.0277655 0.0143094 0.0723174
0 0 0
0.00388049 0.00184451 -0.00482761
0 0 0
0 0 0
0 0 0
-0.000753861 -0.0081862 0.222787
0.00107375 0.0187051 0.231295
-1.40698e-06 1.21787e-06 0.000433038
2.68027e-07 1.07651e-08 3.68787e-05
0 0 0
-0.00251808 -0.000608941 0.0509507
7.52313e-07 5.33162e-08 0.000125147
-7.37553e-05 0.000140393 0.00704902
0 0 0
0.0381159 0.0491619 0.181654
0 0 0
0.0006689 0.0366606 0.0685641
0 0 0
0 0 0
0 0 0
0 0 0
-0.000731086 -0.00403269 0.0704614
-0.00235713 0.0283982 0.346967
0 0 0
0.0037072 -0.000629357 0.0811295
-0.0421916 0.0524603 0.188081
0 0 0
0.00219168 -0.0107542 0.0471734
-0.04786 -0.0619371 0.222503
-0.0671307 0.0245267 0.341435
-0.000457722 -0.00541357 0.0388414
0 0 0
3.5907e-05 0.000713949 0.00512461
-9.76645e-07 -7.8202e-06 -0.000235093
0 0 0