# vtk DataFile Version 2.0
tri_press
ASCII
DATASET UNSTRUCTURED_GRID
POINTS 3682 float
-0.703475 0.315 -2.055
-0.789834 0.525 2.175
-0.785 0.82177 -2.035
-0.785 1.0948 2.095
0.703479 0.315 -2.055
0.789835 0.525 2.175
0.785 0.82177 -2.035
0.785 1.0948 2.095
-0.803466 0.313795 -0.645
-0.872737 0.34331 0.765
-0.842303 0.970083 -0.658334
-0.820695 1.03949 0.718333
0.803469 0.313795 -0.645
0.864065 0.351985 0.765
0.842322 0.970102 -0.658334
0.82309 1.04188 0.718333
-1.51066 -0.0648102 -3.16072
-1.51978 -0.00949032 -2.04606
-1.60127 -0.00165602 -0.635203
-1.67043 0.0295637 0.782368
-1.64669 0.163678 2.19379
-1.63016 0.258715 3.31121
-1.62952 0.332234 4.42351
-1.51031 0.231836 -3.1627
-1.51873 0.303759 -2.05169
-1.6122 0.32446 -0.647313
-1.67582 0.3506 0.760063
-1.62696 0.482391 2.16508
-1.6156 0.575387 3.28202
-1.62141 0.648171 4.39541
-1.54547 0.791585 -3.15731
-1.57572 0.862596 -2.04492
-1.64053 0.969525 -0.663271
-1.64781 1.02386 0.71602
-1.61326 1.09223 2.09831
-1.60778 1.18333 3.21664
-1.61582 1.26527 4.33539
-1.58936 1.69964 -3.17429
-1.60888 1.78064 -2.06689
-1.6359 1.89737 -0.69605
-1.64465 1.98972 0.66761
-1.63681 2.06241 2.0388
-1.63077 2.12789 3.14693
-1.62932 2.2004 4.26204
-0.726978 -0.0583445 -3.16287
-0.720531 -0.000676118 -2.0492
-0.785719 -0.00591093 -0.634782
-0.851807 0.0259592 0.786581
-0.830171 0.187207 2.20116
-0.815834 0.276781 3.31621
-0.816187 0.343367 4.4264
-0.724331 0.233403 -3.16336
-0.800977 0.594185 3.28615
-0.808752 0.659077 4.39759
-0.752763 0.776241 -3.15319
-0.795716 1.19016 3.21597
-0.804248 1.27163 4.33525
-0.786575 1.69023 -3.17021
-0.799541 1.77219 -2.0624
-0.820236 1.89768 -0.693343
-0.828579 1.99449 0.667286
-0.823469 2.06532 2.03648
-0.818368 2.12999 3.14461
-0.816774 2.20277 4.26036
0.782367 -0.0579821 -3.16286
0.765871 -0.000435224 -2.0492
0.819938 -0.00474149 -0.634782
0.840145 0.0319237 0.786582
0.79298 0.189545 2.20116
0.799643 0.278693 3.31621
0.804723 0.345513 4.4264
0.773852 0.233627 -3.16336
0.801716 0.595474 3.28615
0.807305 0.660991 4.39759
0.795138 0.776443 -3.15319
0.801461 1.19125 3.21597
0.808771 1.27337 4.33525
0.810417 1.69087 -3.17021
0.81296 1.77287 -2.0624
0.813981 1.89877 -0.693343
0.807259 1.99622 0.667286
0.801689 2.06718 2.03648
0.80288 2.13186 3.14461
0.805223 2.20473 4.26036
1.55336 -0.06384 -3.16071
1.54302 -0.0085779 -2.04606
1.61517 0.00130595 -0.635203
1.66167 0.0383347 0.782367
1.62586 0.169698 2.19379
1.61656 0.263319 3.31121
1.61808 0.336782 4.42351
1.5418 0.23253 -3.1627
1.5145 0.304211 -2.05169
1.60648 0.326415 -0.647314
1.66976 0.359985 0.760063
1.62588 0.487525 2.16508
1.61561 0.579261 3.28202
1.61883 0.652364 4.39541
1.56852 0.792217 -3.15731
1.56643 0.862981 -2.04492
1.63109 0.970818 -0.663271
1.64706 1.02927 0.71602
1.61667 1.09613 2.09831
1.61328 1.18668 3.21664
1.61887 1.26912 4.33539
1.60669 1.70106 -3.17429
1.6144 1.7822 -2.06689
1.62588 1.89975 -0.69605
1.62498 1.99329 0.66761
1.61777 2.06632 2.0388
1.61623 2.1318 3.14693
1.6174 2.20442 4.26204
-0.799546 0.568385 -2.10031
1.99676e-06 0.311433 -2.05857
-0.75265 0.315218 -1.35
-0.77354 0.8099 2.12112
4.76837e-07 0.491434 2.20857
-0.827948 0.437492 1.47
0 0.848023 -2.06125
-0.820294 0.902569 -1.34667
0 1.11876 2.11896
-0.815477 1.07977 1.40667
0.799546 0.568385 -2.10031
0.752302 0.315569 -1.35
0.775842 0.8099 2.12342
0.824155 0.441287 1.47
0.820262 0.902537 -1.34667
0.815464 1.07976 1.40667
-0.828876 0.337779 0.0599999
-0.871436 0.641939 -0.651667
1.49012e-06 0.31071 -0.645
-0.860096 0.691398 0.741667
-0.00433641 0.310753 0.765
-0.831967 1.00525 0.03
9.82812e-06 1.2419 -0.658334
0.00119738 1.56093 0.718333
0.8289 0.337757 0.0599999
0.875266 0.641949 -0.651667
0.860072 0.696933 0.741667
0.831984 1.00527 0.03
-0.867324 0.605162 -1.34833
0.866821 0.605167 -1.34833
1.74344e-06 0.310631 -1.35
4.91406e-06 0.99084 -1.34667
9.98378e-07 0.568385 -2.24917
-0.867431 0.666668 0.045
0.86794 0.669441 0.045
-0.00216746 0.310794 0.0599999
0.000603604 1.54619 0.03
-0.890649 0.750649 1.43833
0.890614 0.753416 1.43833
-0.00216796 0.331558 1.47
0.00059869 1.22902 1.40667
2.38419e-07 0.8099 2.13384
-0.747803 0.441693 -2.07395
-0.351737 0.31145 -2.05855
-0.730197 0.312975 -1.7025
-0.828667 0.66745 2.19504
-0.394917 0.500923 2.19908
-0.823535 0.466602 1.8225
-0.779734 0.695078 -2.05512
-0.3925 0.838713 -2.05194
-0.80217 0.861693 -1.69083
-0.788589 0.95235 2.11738
-0.3925 1.11535 2.11555
-0.802623 1.08967 1.75083
0.35174 0.311443 -2.05856
0.747561 0.441693 -2.0737
0.730186 0.312989 -1.7025
0.394918 0.500957 2.19904
0.829357 0.66745 2.19573
0.822312 0.467827 1.8225
0.3925 0.837872 -2.0511
0.779623 0.695078 -2.055
0.802244 0.861767 -1.69083
0.3925 1.11537 2.11557
0.790721 0.95235 2.11951
0.802624 1.08967 1.75083
-0.778997 0.313568 -0.9975
-0.817771 0.324187 -0.2925
-0.859502 0.466842 -0.648334
-0.401782 0.312153 -0.645
-0.824497 0.416247 1.1175
-0.839488 0.351863 0.4125
-0.874077 0.513524 0.753333
-0.445799 0.312507 0.765
-0.836657 0.941684 -1.0025
-0.854568 0.80486 -0.655
-0.837624 0.988157 -0.314167
-0.480014 1.22372 -0.658334
-0.814619 1.05616 1.0625
-0.851383 0.870935 0.73
-0.826281 1.02232 0.374167
-0.50515 1.49101 0.718333
0.778968 0.3136 -0.9975
0.401785 0.312153 -0.645
0.817751 0.32421 -0.2925
0.859496 0.467808 -0.648334
0.822611 0.418135 1.1175
0.43929 0.312517 0.765
0.839547 0.351806 0.4125
0.867824 0.521581 0.753333
0.836541 0.941569 -1.0025
0.480317 1.2243 -0.658334
0.854569 0.803913 -0.655
0.837651 0.988184 -0.314167
0.814634 1.05618 1.0625
0.507339 1.4918 0.718333
0.851138 0.874185 0.73
0.826285 1.02232 0.374167
-0.852761 0.586773 -1.72432
-0.399773 0.568385 -2.21048
1.8701e-06 0.310616 -1.70428
1.49757e-06 0.439909 -2.20101
-0.83782 0.46019 -1.34917
-0.376324 0.310669 -1.35
-0.846303 0.780274 1.77973
-0.38677 0.8099 2.1712
-0.00108374 0.430808 1.83928
3.57628e-07 0.650667 2.25487
-0.891977 0.594071 1.45417
-0.415058 0.370944 1.47
2.45703e-06 0.920399 -1.70396
4.99189e-07 0.708204 -2.11583
-0.860382 0.753865 -1.3475
-0.410145 1.01216 -1.34667
0.000299345 1.15693 1.76282
1.19209e-07 0.964332 2.19251
-0.849101 0.91521 1.4225
-0.407439 1.22083 1.40667
0.846292 0.586776 -1.72432
0.399773 0.568385 -2.21048
0.83696 0.460368 -1.34917
0.376152 0.310669 -1.35
0.846239 0.781658 1.78088
0.387921 0.8099 2.17097
0.890625 0.597352 1.45417
0.410993 0.370576 1.47
0.860019 0.753852 -1.3475
0.410134 1.00013 -1.34667
0.844059 0.916588 1.4225
0.408031 1.22147 1.40667
-0.859558 0.496521 0.0524999
-0.421467 0.312394 0.0599999
-0.875378 0.62355 -1
-0.87029 0.654304 -0.303333
1.61678e-06 0.310577 -0.9975
-0.00108298 0.310752 -0.2925
-0.8601 0.679033 0.393333
-0.894731 0.721023 1.09
-0.00325193 0.310835 0.4125
-0.00325219 0.313018 1.1175
-0.852566 0.837394 0.0375
-0.500193 1.44475 0.03
7.37109e-06 1.05581 -1.0025
0.000306716 1.46258 -0.314167
0.000900492 1.5593 0.374167
0.000898035 1.41699 1.0625
0.85958 0.498019 0.0524999
0.419311 0.312386 0.0599999
0.869747 0.623558 -1
0.875244 0.655695 -0.303333
0.86011 0.683187 0.393333
0.894743 0.725174 1.09
0.852314 0.838531 0.0375
0.501684 1.44651 0.03
-0.814926 0.450941 -1.71341
-0.871881 0.469029 -0.99875
-0.859253 0.779938 -1.00125
-0.837293 0.724472 -1.70758
0.813646 0.45103 -1.71341
0.830344 0.724465 -1.70758
0.859181 0.779939 -1.00125
0.864784 0.46912 -0.99875
-0.36403 0.310635 -1.70339
0.363946 0.310642 -1.70339
0.388944 0.310643 -0.9975
-0.389028 0.310627 -0.9975
-0.401322 0.929892 -1.6974
-0.415646 1.0788 -1.0025
0.41565 1.07059 -1.0025
0.401317 0.922196 -1.6974
-0.375755 0.440801 -2.16611
-0.396136 0.701641 -2.1034
0.396137 0.701641 -2.09954
0.375757 0.440801 -2.16611
-0.859528 0.481682 -0.297917
-0.859678 0.508592 0.402917
-0.851953 0.854154 0.38375
-0.853536 0.821111 -0.30875
0.859527 0.482919 -0.297917
0.853376 0.821189 -0.30875
0.851732 0.856361 0.38375
0.859671 0.511816 0.402917
-0.411624 0.312275 -0.2925
0.410547 0.312271 -0.2925
0.429274 0.312505 0.4125
-0.433598 0.312522 0.4125
-0.530254 1.41454 -0.314167
-0.499482 1.4615 0.374167
0.501004 1.46214 0.374167
0.530401 1.41421 -0.314167
-0.890141 0.555712 1.10375
-0.889878 0.63076 1.80111
-0.840996 0.93378 1.76528
-0.849285 0.890326 1.07625
0.889225 0.560905 1.10375
0.848116 0.892997 1.07625
0.840988 0.934469 1.76586
0.893881 0.632401 1.80169
-0.426798 0.331416 1.1175
0.420429 0.329905 1.1175
0.402956 0.41848 1.83089
-0.404987 0.418369 1.83089
-0.408594 1.41797 1.0625
-0.39997 1.15651 1.75682
0.400266 1.15651 1.75682
0.410088 1.41799 1.0625
-0.390843 0.659058 2.24123
0.391419 0.659058 2.24123
0.390211 0.958341 2.18126
-0.389635 0.958341 2.1814
-0.708556 0.378346 -2.04739
-0.527606 0.311457 -2.05854
-0.717806 0.313017 -1.87875
-0.814009 0.596225 2.18978
-0.592375 0.509479 2.19052
-0.815525 0.486961 1.99875
-0.783687 0.758424 -2.04638
-0.58875 0.830521 -2.04375
-0.789681 0.837828 -1.86292
-0.791678 1.02357 2.11107
-0.58875 1.10942 2.10962
-0.795595 1.09402 1.92292
0.52761 0.31145 -2.05855
0.7083 0.378346 -2.04713
0.717811 0.313017 -1.87875
0.592376 0.509444 2.19056
0.814084 0.596225 2.18985
0.815537 0.48695 1.99875
0.58875 0.830494 -2.04372
0.783602 0.758424 -2.04629
0.78981 0.837957 -1.86292
0.58875 1.10945 2.10965
0.791543 1.02357 2.11094
0.795591 1.09401 1.92292
-0.791153 0.31376 -0.82125
-0.81111 0.318499 -0.46875
-0.847539 0.382291 -0.646667
-0.602713 0.312797 -0.645
-0.825798 0.402597 0.94125
-0.842938 0.360762 0.58875
-0.875021 0.42761 0.759167
-0.666624 0.313197 0.765
-0.84432 0.960724 -0.830417
-0.849203 0.887855 -0.656667
-0.840368 0.979525 -0.48625
-0.698732 1.17205 -0.658334
-0.817475 1.04764 0.890417
-0.846696 0.960539 0.724167
-0.823481 1.03089 0.54625
-0.659604 1.25861 0.718333
0.791156 0.31376 -0.82125
0.602716 0.312797 -0.645
0.814371 0.315241 -0.46875
0.847633 0.382726 -0.646667
0.823988 0.40441 0.94125
0.661198 0.313209 0.765
0.843078 0.360623 0.58875
0.866527 0.436492 0.759167
0.84429 0.960693 -0.830417
0.698527 1.17162 -0.658334
0.849248 0.887409 -0.656667
0.840404 0.97956 -0.48625
0.817484 1.04765 0.890417
0.662155 1.26072 0.718333
0.84654 0.962746 0.724167
0.823491 1.0309 0.54625
[...]
POINT_DATA 3682
SCALARS point_scalars float 1
LOOKUP_TABLE default
-87.5357
-51.3444
-86.2184
-44.8027
-87.5949
-51.1983
-86.4866
-44.2441
-39.811
-43.6282
-59.4367
-42.9085
-39.5834
-43.3724
-60.1494
-43.2379
-59.3513
-98.1552
-38.0909
-51.6699
-53.332
-49.1862
-48.0922
-2.24802
-96.2293
-39.1908
-43.1427
-52.8572
-51.402
-44.2325
48.317
-94.4336
-54.5731
-40.7199
-47.9532
-45.7192
-44.6656
-55.8575
-54.7361
-91.9348
-45.3401
-41.9105
-44.7757
-44.7757
83.4962
-146.602
-39.6262
-53.2758
-52.9384
-43.3879
-42.3907
158.487
-42.3907
-42.3907
173.616
-40.7615
-39.9124
55.0391
-52.755
-83.8134
-56.4376
-38.6303
-41.6907
-39.3044
101.355
-117.849
-38.9454
-51.2207
-52.9065
-43.1894
-42.1574
158.315
-42.1574
-42.1574
147.396
-40.2811
-39.3591
57.4954
-50.6468
-85.3997
-57.7566
-38.1174
-40.7843
-38.6062
-60.2372
-98.9029
-38.2224
-49.5161
-53.4199
-50.295
-46.0449
0.0711019
-98.5032
-39.5534
-42.6962
-53.0632
-51.064
-43.9532
49.8746
-130.748
-55.3008
-40.8847
-47.3329
-45.175
-44.3626
-56.259
-55.0562
-90.3063
-45.4133
-41.4944
-44.2007
-44.2007
-54.4803
-175.247
-48.6409
-45.9648
-44.4908
-43.4545
-80.8623
-43.4722
-34.8697
-44.7547
-50.2421
-48.0642
-45.4629
-43.8638
-42.3622
-44.5109
-37.2552
-41.9805
-40.4759
-37.518
-44.813
-50.0591
36.9812
-61.2698
-37.5843
-41.6586
-38.5218
-50.5136
-44.3967
-43.9563
-57.6116
1.52193
205.043
-40.5078
-41.2537
-39.2473
-103.095
-46.7324
-46.441
-51.1666
-38.9143
-39.0663
-87.794
-174.091
-70.3852
-47.555
-44.9684
-47.5316
-67.6534
-96.0307
-44.0928
-46.3546
-35.8973
-41.6515
-174.336
-88.6475
-70.3393
-44.9847
-47.225
-47.347
-102.19
-64.1547
-44.2053
-35.2669
-45.864
-41.3098
-44.9226
-37.7771
-39.6807
-39.9835
-42.4114
-37.3904
-37.4721
-45.6783
-44.8463
-47.1928
-54.5031
8.12875
-42.912
-39.6042
-45.9665
-55.6387
-44.5708
-40.0016
-39.0283
-40.0468
-42.3196
-45.6312
-37.6753
-38.6166
-44.4926
8.30505
-47.3749
-55.0742
-42.9066
-55.7494
-39.7571
-46.1381
-62.8217
189.092
-81.8222
87.2151
-44.0768
-55.7223
-43.7861
-40.3834
-44.805
-40.6422
-44.8359
-47.7375
-16.7384
159.139
-45.8877
-7.26566
-38.0926
-38.5291
-45.1845
-40.2121
-59.8789
189.41
-43.848
-55.6683
-43.2358
-40.1739
-44.5822
-47.6489
-45.4622
-4.33121
-44.7598
-40.1859
-38.1571
-38.6422
-44.1411
-41.7184
-45.7655
-38.8183
-38.6287
-41.2409
-41.3239
-48.7385
-43.6493
-77.9046
21.048
-48.5102
-72.0421
-43.2522
-38.5782
-38.7258
-43.1872
-42.2795
-38.9937
-40.9355
-44.0212
-78.5793
-65.9358
-41.2806
-44.8782
-52.8223
-64.7217
-52.8889
-44.5289
-39.8924
-80.6307
-80.5922
-44.7318
-44.7768
-21.8189
6.69285
9.82173
-21.5928
64.1504
145.692
145.006
64.4543
-38.978
-37.2621
-40.5241
-46.2598
-39.6176
-46.7986
-40.5262
-37.7965
-38.2955
-38.3869
-40.9115
-40.8392
-106.338
-60.2543
-60.6016
-107.858
-44.0567
-44.3038
-42.9924
-40.987
-44.0002
-40.8092
-42.5592
-42.6044
-48.3574
-48.0539
-45.5479
-45.675
-46.023
-38.2367
-38.1139
-45.9933
-40.923
-40.7585
-37.5964
-38.0214
-80.2668
-161.48
-101.293
-50.1405
-46.2188
-47.8153
-72.3918
-67.3526
-57.4707
-47.3107
-38.1604
-41.6702
-161.435
-80.6985
-101.443
-46.0126
-49.9211
-47.9855
-69.1183
-73.0922
-57.9512
-37.5294
-46.8009
-41.2658
-43.144
-38.059
-38.8839
-39.4043
-50.7785
-37.3913
-40.681
-48.2588
-54.562
-51.8474
-57.4548
-78.2876
-42.3628
-40.7677
-44.2493
-46.6132
-42.7773
-39.425
-39.1044
-39.0327
-49.9442
-47.9452
-38.8773
-40.7835
-54.9541
-80.1241
-52.2443
-58.1489
-42.4089
-46.8368
-40.9797
-44.6002
-72.6925
-47.9685
-82.7636
171.054
-151.793
-151.799
-107.95
32.0163
-56.2086
-42.3647
-44.2354
-53.2789
-45.288
-45.5171
-46.5247
-41.051
-44.4363
-44.4322
-44.4177
-42.7358
-47.6084
-42.6658
-44.2287
-45.8593
-84.7875
-92.605
-33.5373
137.567
-37.8774
-43.0957
-46.6393
-15.5078
-35.0501
-34.6804
-37.8408
-32.5242
-42.0207
-44.1037
-44.0517
-42.0417
-73.2194
-38.5181
-85.5056
170.613
-55.8583
-42.1216
-44.1655
-53.1795
-44.94
-45.2504
-46.278
-40.7809
-45.8325
-42.7976
-43.9506
-45.6937
-37.5948
-42.4773
-45.19
-13.8344
-41.8663
-44.0318
-43.7712
-41.9611
-37.5063
-37.2746
-37.4079
-37.9309
-40.5944
-44.2772
-43.7841
-42.0368
-40.3399
-40.3487
-42.5222
-39.3243
-36.1587
-38.6611
-38.2091
-37.1305
-45.0106
-44.9717
-42.9041
-46.8753
-52.2938
-47.7119
-46.071
-62.4996
31.5475
32.7396
35.8587
5.59331
-61.9818
-62.0079
-66.6723
-50.35
-37.6568
-37.4737
-37.7628
-38.0541
-40.7565
-44.3482
-43.2732
-42.4387
-37.8641
-38.9469
-38.6814
-36.0665
-52.8079
-47.8906
-46.4143
-62.9602
-49.2307
-43.8825
-45.0513
-42.5885
-48.7472
-43.5962
-44.476
-42.2709
-67.28
-57.008
-56.9841
-50.6496
-7.02726
-0.0970807
0.47483
10.3331
204.073
172.751
169.484
204.13
-38.9978
-41.0796
-39.5445
-41.8166
-39.5403
-41.7749
-39.6893
-42.2175
-39.0925
-38.8112
-40.0986
-39.1461
-99.2408
-130.672
-81.937
-99.7337
-45.425
-45.654
-47.694
-44.5944
-44.7558
-45.3715
-47.2562
-44.3779
-49.2136
-49.1206
-49.1031
-49.907
-38.6112
-39.275
-39.2548
-40.6476
-39.2462
-39.3237
-38.9894
-39.1519
-91.4326
70.8856
-110.599
-18.844
-68.9048
-78.2882
-47.505
-41.1459
-45.467
-42.9341
-45.5893
-44.8137
-76.5257
130.194
-40.1676
145.417
-48.0949
-28.3918
-45.2869
-40.1519
-37.443
-34.7958
-42.292
-38.7703
-110.592
-19.0317
-92.3224
67.2787
-68.6083
-78.2221
-45.35
-42.8286
-47.7369
-40.9008
-44.9861
-44.6897
-41.6675
141.298
-78.4753
130.4
-48.6905
-27.752
-37.2247
-33.9819
-44.8557
-39.6982
-41.9061
-38.5994
-36.5304
-43.691
-38.3561
-37.7988
-44.9925
-39.1265
-41.917
-38.7824
-43.6913
-44.0557
-36.8086
-39.8671
-36.579
-41.8007
-42.9023
-48.6819
-47.1451
-10.562
-46.4417
-47.0588
-49.425
-75.2992
17.2779
-50.9447
-41.7698
-51.02
-40.7158
-39.3677
-42.0022
-52.7729
-55.5411
-54.7646
-35.1328
-43.5883
-41.8879
-38.8532
-38.9118
-37.9898
-43.6901
-39.8238
-43.4556
-43.8732
-42.9246
-48.6451
-37.39
-40.0519
-37.5913
-39.0182
-46.8523
-9.67592
18.9364
-49.7175
-46.5057
-47.5622
-49.9606
-76.5267
-41.6374
-50.9464
-55.6093
-54.7416
-41.4656
-39.2685
-41.8589
-53.2151
-62.585
-58.346
162.316
172.793
-81.1381
-81.1201
166.746
165.311
-50.9194
-38.3813
-65.0101
-49.1784
-43.9969
-43.376
-40.3798
-39.6029
-45.1736
-45.2425
-40.95
-40.8717
-43.126
-43.2995
-47.6841
-47.8395
-17.2482
-18.0943
156.54
156.216
-45.6394
-50.729
-13.2168
-2.0082
-38.1205
-38.0543
-38.7909
-38.8957
-43.4742
-43.6765
-41.9125
-39.442
-61.3327
-56.6331
172.745
162.505
-50.93
-38.6605
-64.9525
-49.1264
-42.8978
-43.3706
-40.1811
-39.33
-43.4273
-42.4817
-47.5736
-47.7573
-49.7068
-45.0118
2.79447
-11.7574
-43.6517
-42.9835
-39.3941
-41.9028
-38.5997
-37.7341
-38.254
-39.4815
-43.805
-44.521
-40.1062
-43.7335
-45.4726
-45.4908
-38.671
-38.71
-37.7615
-39.6596
-43.943
-39.1702
-41.2493
-41.221
-49.7091
-49.5573
-42.2038
-45.0348
-94.3397
-67.0268
15.4241
19.9325
-49.4615
-50.4687
-69.5891
-69.6954
-43.7563
-43.7525
-39.1042
-38.0953
-38.3414
-39.5661
-43.8067
-42.5799
-40.6993
-44.3258
-39.8462
-38.2782
-44.0141
-38.9661
-45.5435
-42.427
-67.4479
-95.0626
-95.6426
-52.1408
-49.6293
-88.557
-48.6095
-44.5106
-40.5974
-37.0981
-51.1747
-45.8369
-44.1401
-44.1904
-71.0115
-81.5428
-49.2766
-46.2602
-97.735
-90.4603
-49.4401
-51.9342
-72.3879
-44.3246
-48.7118
-84.2315
-51.3358
-44.2504
-43.641
-45.3751
-47.1213
-37.2607
-40.6447
-43.2949
-111.59
-107.093
-66.5266
-63.049
-111.595
-62.9533
-66.4965
-107.087
-41.3451
-42.334
-50.2127
-46.9873
-41.4452
-47.0469
-50.2349
-42.3428
-48.9744
-20.1434
-7.65639
-33.468
-17.3474
29.5172
6.70417
-12.6674
-17.3398
-10.8145
9.3806
33.5369
-48.8916
-36.741
-8.0406
-19.1006
31.3994
140.679
189.792
1.73845
100.657
134.519
166.595
154.84
100.634
154.761
166.472
134.728
31.1746
4.87725
189.612
141.147
-37.7091
-37.7229
-39.5776
-40.3429
-36.1698
-37.2297
-38.31
-37.2117
-43.1795
-44.2903
-40.6167
-39.2553
-50.9549
-44.221
-42.8672
-47.8009
-38.7275
-41.0104
-40.1261
-38.097
-51.5106
-48.3193
-43.4611
-44.923
-44.1389
-39.882
-40.833
-44.5258
-37.4715
-37.5971
-38.6841
-37.8236
-38.2948
-39.1379
-38.6587
-37.6848
-38.4888
-37.8114
-38.6999
-39.1648
-42.4871
-42.9794
-39.9912
-38.7499
-42.3874
-38.5987
-39.9445
-43.012
-86.6276
-68.3493
-123.602
-1.37648
-49.1222
-65.2191
-78.8864
-57.0023
-49.3568
-57.3933
-79.0983
-65.2733
-88.0284
-1.8357
-124.604
-68.9942
-48.4196
-43.0105
-43.6894
-37.5505
-48.0409
-48.1231
-44.6779
-45.0415
-43.8468
-42.96
-44.282
-46.124
-40.9374
-38.0327
-43.3969
-43.3777
-46.6214
-35.1265
-43.6547
-42.9841
-40.9287
-43.2514
-43.1188
-37.8055
-43.4313
-45.748
-43.7177
-42.5866
-48.204
-43.1058
-43.865
-48.0462
-50.3728
-47.2598
-49.4569
-44.817
-49.972
-44.6847
-49.4223
-47.1603
-46.015
-44.7213
-49.2254
-48.7443
-46.1622
-49.1469
-49.2529
-44.7873
-46.634
-46.1114
-40.9201
-51.0991
-37.7751
-37.7637
-38.8438
-40.0265
-37.4351
-39.9565
-38.8107
-37.6567
-46.6004
-51.0987
-40.9178
-45.9922
-42.9777
-42.8325
-39.4289
-41.0287
-42.8061
-40.7634
-39.3165
-42.7771
-38.3893
-32.9205
-38.8745
-40.3975
-39.0466
-40.7309
-38.9665
-33.3405
-68.69
-107.597
-155.823
-50.2988
-48.1413
-53.0159
-84.132
-48.0079
-95.6598
-46.6452
-40.6779
-42.3246
-107.543
-68.9625
-156.285
-47.9551
-50.1044
-53.1138
-48.9515
-85.6562
-96.3228
-40.0787
-46.1026
-41.8594
-39.3784
-38.5129
-39.2754
-39.3958
-60.2232
-30.6083
-42.1799
-50.0663
-60.3307
-55.112
-58.2916
-82.163
-42.5521
-41.8345
-43.4423
-44.7636
-39.2445
-39.3706
-38.2967
-39.0464
-58.1953
-49.0394
-34.2167
-41.9261
-61.2768
-82.5474
-55.6283
-58.9549
-42.9725
-45.0327
-42.033
-43.4137
-70.5236
-49.9723
-119.566
108.578
-167.087
-167.119
-131.399
-34.3556
-52.1814
-45.8188
-45.0666
-51.3697
-45.7299
-45.9082
-50.0574
-41.8839
-44.4979
-44.4591
-45.6101
-43.4065
-44.0224
-42.9945
-43.528
-44.5139
-81.2257
-85.7497
-49.3891
61.3727
-40.0319
-43.3377
-46.9871
-25.6754
-34.7602
-34.5966
-37.6927
-32.2798
-43.1735
-43.7979
-43.9731
-44.8547
-70.257
-41.0767
-122.564
109.233
-51.9627
-45.1665
-45.0809
-51.1957
-45.32
-45.3665
-49.7737
-41.6086
-44.1747
-43.2066
-44.0213
-44.286
-38.9484
-42.6637
-45.3502
-25.1577
-43.0078
-43.6388
-43.664
-44.6911
-38.2308
-37.4489
-36.9071
-37.378
-41.1432
-43.1626
-42.2614
-42.078
-40.3754
-40.4353
-41.3764
-39.8135
-36.5775
-38.1731
-37.8902
-37.8638
-44.8879
-44.8674
-43.8136
-45.8938
-51.2974
-48.9665
-47.9098
-56.3627
35.3359
36.2425
39.7746
24.3642
-61.4659
-61.4752
-64.4011
-55.6527
-38.4485
-37.6909
-37.1584
-37.5268
-40.9353
-43.1358
-42.0865
-42.615
-38.285
-38.5855
-38.5543
-37.2915
-51.7077
-49.1381
-48.3401
-56.7317
-46.8286
-44.0365
-44.5508
-43.0983
-46.291
-43.77
-43.8514
-42.712
-62.0787
-57.4137
-57.402
-53.8402
-2.74957
0.932638
1.43333
5.33484
205.612
191.074
194.117
205.661
-39.6136
-40.901
-40.1883
-41.1789
-40.2768
-41.8086
-40.6284
-41.698
-39.2153
-38.9861
-39.6244
-39.2215
-102.164
-118.575
-90.7204
-102.44
-47.6502
-46.0193
-47.4934
-45.2331
-47.3218
-45.8652
-46.9645
-45.0568
-51.72
-50.1076
-50.0579
-50.0921
-38.5502
-39.0211
-39.0093
-39.8623
-39.0438
-39.0034
-39.1053
-38.9821
-89.7341
-94.5617
-121.774
35.8195
-188.207
-142.032
-139.675
-57.7722
-83.875
-62.4197
-68.8783
-75.5177
-49.6665
-44.6781
-50.172
-42.1454
-45.6578
-44.761
-47.5283
-43.6719
-46.8316
-48.2591
-46.2642
-45.1418
-64.2955
-64.8811
-118.865
92.7127
-69.8899
-88.9715
-60.7902
44.3974
-48.4366
-40.0002
-47.196
-34.3183
-46.7825
-46.3019
-49.3277
-41.4501
-36.6345
-34.9222
-37.2948
-34.3536
-40.5096
-41.1044
-41.9716
-39.6867
-188.223
-142.157
-139.693
-56.2581
-90.2924
-95.6576
-123.115
35.6536
-83.6944
-61.9623
-67.736
-75.4058
-45.1486
-44.4254
-47.405
-43.5357
-49.3766
-44.3877
-50.1483
-41.8625
-46.839
-46.462
-45.8442
-45.067
-75.5653
-94.9796
-63.2788
45.9314
-63.4577
-55.847
-122.102
93.1691
-48.6623
-40.2333
-47.6053
-33.8003
-36.0728
-34.4902
-37.0172
-33.5127
-46.2429
-45.8625
-48.7993
-41.1025
-40.1133
-40.9669
-41.6112
-39.469
-47.3797
-39.0141
-37.8695
-43.6528
-37.8741
-38.138
-38.3866
-37.6182
-39.249
-40.1055
-40.3437
-39.3752
-39.7603
-40.1455
-40.9091
-39.2611
-44.22
-42.3729
-43.1008
-42.247
-37.7164
-37.3833
-36.6275
-38.5664
-39.4669
-35.9161
-35.4673
-42.924
-46.709
-45.2661
-44.2353
-47.3197
-48.2837
-43.102
-47.9718
-29.4047
-49.2112
-45.6357
-46.6741
-47.2738
-55.9771
-53.3532
-51.8994
-64.2625
-17.6707
23.039
17.5466
-13.6093
-42.7654
-43.287
-42.324
-44.7756
-40.0986
-39.14
-40.0729
-39.4337
-45.3161
-46.6873
-44.01
-49.3381
-48.8817
-62.9593
-53.1463
-56.6014
-46.6346
-39.0155
-34.985
-43.4635
-39.7815
-40.1598
-40.9016
-39.3082
-39.1952
-38.3391
-39.062
-37.8864
-39.6177
-40.4133
-40.5883
-39.9182
-43.9953
-42.4061
-42.9133
-42.0507
-46.5972
-45.2135
-44.2222
-47.2503
-38.4437
-37.6289
-37.2178
-38.928
-39.8958
-37.7489
-37.1369
-40.2042
-48.1786
-42.6854
-47.7031
-28.777
-17.9258
23.7077
17.9933
-14.2913
-49.5199
-45.7485
-46.9582
-47.6722
-56.6126
-53.9156
-52.3885
-65.1834
-42.7096
-43.2285
-42.2555
-44.8566
-49.0016
-63.0235
-53.2483
-56.6462
-40.2257
-39.345
-40.5924
-39.3834
-45.6325
-46.8719
-44.0617
-49.5634
-69.3928
-54.1516
-62.7836
-60.5588
182.858
201.812
180.989
188.156
-92.5311
-73.7085
-81.4717
-81.4631
66.0226
138.306
87.0846
87.2803
-44.4606
-43.6821
-47.7335
-41.6445
-54.7175
-56.4177
-60.0641
-52.1431
-44.8876
-43.5123
-44.2364
-43.4998
-40.6994
-39.9497
-40.6693
-40.0378
-44.453
-46.4847
-44.935
-44.9755
-43.0992
-39.3691
-40.9615
-40.9237
-44.4358
-45.5367
-43.5431
-43.7046
-46.9585
-48.4754
-47.7409
-47.8718
-23.9058
-12.0355
-16.4593
-17.3974
160.414
154.131
158.732
158.576
-45.6987
-45.5323
-45.3142
-48.0109
-11.3508
-3.00673
-9.93804
-4.63787
-37.9142
-38.3345
-38.104
-38.0691
-35.2567
-39.9641
-39.0164
-39.069
-44.384
-46.6886
-44.5668
-44.7141
-40.9131
-39.6762
-41.0508
-39.801
-70.1546
-52.4816
-60.5848
-58.2152
182.263
201.979
188.257
181.348
-44.2067
-43.4211
-47.5325
-41.2315
-54.6451
-56.3802
-60.0094
-52.0921
-44.5553
-42.7275
-42.985
-43.6107
-40.451
-39.8079
-40.4771
-39.8006
-44.1796
-45.0958
-43.6647
-43.9087
-46.7995
-48.4202
-47.6795
-47.7954
-45.1029
-45.1001
-47.3866
-44.9678
-8.54673
-1.50063
-0.707231
-7.53407
-44.1501
-46.0419
-44.6776
-43.8892
-40.8813
-39.648
-39.757
-41.0451
-37.7219
-38.5753
-38.4477
-37.8892
-38.3108
-38.9055
-38.41
-38.9996
-44.8493
-42.6044
-43.8523
-44.4215
-41.9923
-41.4428
-40.7685
-42.7496
-43.9713
-47.9479
-45.6462
-45.6551
-38.9902
-38.7534
-38.777
-38.7932
-38.4743
-39.0067
-38.0802
-39.1094
-36.972
-44.3106
-42.8533
-38.6835
-42.0754
-40.6576
-41.2806
-41.2952
-47.8058
-49.5
-49.1377
-49.0528
-44.7546
-42.6868
-42.9239
-44.3991
-69.7079
-91.7754
-84.4237
-71.6205
27.3254
15.284
19.1943
21.5717
-12.8273
-92.5255
-47.5293
-48.0567
-68.8802
-76.1637
-71.4404
-71.4967
-46.1507
-41.6835
-43.3707
-43.3691
-38.1187
-39.0249
-38.9201
-38.2677
-38.4152
-38.9672
-38.4948
-39.0838
-43.1209
-42.7286
-43.5318
-42.8632
-42.9792
-42.0832
-41.3298
-43.3722
-38.9056
-39.1774
-39.403
-38.5194
-36.6487
-44.0146
-42.6994
-38.1894
-45.1151
-43.0776
-44.862
-43.2197
-70.1753
-92.3538
-72.2941
-86.0083
-76.6304
-68.0962
-63.9183
-57.0155
-39.5722
-50.1825
-33.9734
-43.0855
-45.799
-46.2071
-45.0967
-44.5729
-60.2903
-50.6679
-55.9322
-52.0029
-77.3767
-67.6955
-62.741
-56.1699
-62.1078
-51.0927
-54.9842
-49.7395
-45.4839
-45.5087
-44.7448
-44.1173
-37.6162
-47.0917
-35.1242
-41.5573
-92.7667
-80.0391
-80.7899
-71.8417
-92.7432
-79.9892
-80.7635
-71.7269
-44.1492
-43.1595
-46.6735
-45.1164
-44.2155
-43.2019
-46.7291
-45.1465
-29.1724
-25.0919
-19.0734
-17.1905
-0.299843
13.7473
-0.290297
11.6967
1.07141
15.4221
6.49755
16.545
-29.5206
-24.3377
-19.1619
-16.4912
85.5052
11.0476
123.703
134.361
148.303
148.921
141.178
151.572
149.098
148.188
150.975
140.099
11.2719
85.8689
134.219
123.879
-38.5264
-39.0773
-38.775
-39.5267
-37.0471
-37.0439
-37.4649
-37.509
-40.9373
-40.5052
-40.1941
-41.434
-46.7131
-47.6533
-44.8994
-45.6258
-39.113
-39.8009
-39.3306
-40.1546
-47.266
-48.1842
-45.456
-46.1551
-41.2647
-40.2198
-40.2832
-41.5786
-37.6124
-37.7445
-37.8856
-38.0197
-38.0404
-38.4694
-38.2159
-38.5078
-38.5558
-38.1699
-38.5703
-38.306
-41.8346
-40.5656
-41.1314
-40.1562
-40.4525
-41.7805
-40.074
-41.0823
-97.5266
-79.5347
-115.553
-63.505
-56.1143
-57.8488
-63.3483
-66.2963
-57.9402
-56.4924
-66.364
-63.7032
-81.9158
-100.279
-64.6877
-115.087
-44.0119
-42.7962
-43.3647
-44.0347
-45.7906
-45.0482
-43.6302
-44.2024
-43.7175
-42.7228
-43.2096
-42.9231
-41.3193
-40.1774
-42.2555
-40.4888
-43.9439
-42.0161
-43.2663
-43.9603
-41.1583
-40.1051
-41.9918
-40.317
-43.3068
-42.3111
-42.7611
-42.4995
-46.2898
-44.4022
-42.1865
-41.7153
-46.781
-49.1061
-47.7998
-49.5797
-46.1564
-48.611
-47.6773
-49.4589
-45.1132
-44.9615
-45.5602
-46.7284
-45.2564
-45.113
-45.65
-46.8015
-49.0878
-50.7049
-43.2267
-44.457
-37.7427
-38.4322
-38.1428
-38.7773
-37.5692
-38.2871
-38.0459
-38.6966
-49.139
-50.6654
-43.2147
-44.4501
-40.9457
-42.0923
-39.8969
-40.935
-41.9912
-40.7378
-40.8206
-39.6546
-35.6846
-38.4695
-37.3405
-38.5624
-38.9569
-36.3147
-38.8983
-37.6173
-129.473
25.6555
-151.104
-26.9629
-96.1809
-108.317
-55.6252
-43.8608
-50.0706
-44.0948
-48.1899
-46.802
-113.498
92.0303
-65.2153
50.3366
-66.8916
-52.3449
-47.5306
-41.4298
-37.6535
-38.7058
-42.8526
-38.906
-151.165
-26.9822
-130.295
25.4606
-97.0359
-108.351
-49.8805
-43.896
-55.7461
-43.6494
-48.3845
-46.7985
-65.6898
49.6963
-115.415
92.0377
-67.9264
-51.838
-37.2241
-38.0149
-47.0432
-40.9236
-42.4329
-38.5382
-45.2108
-42.0558
-37.1114
-38.1782
-39.6134
-38.9429
-40.2664
-38.7374
-51.072
-50.0396
-36.2425
-39.9194
-33.7111
-51.955
-44.7014
-55.7441
-54.4619
-44.7556
-51.7371
-51.5252
-53.7685
-70.7226
-34.3648
-96.0803
-41.7105
-43.2517
-41.396
-40.7661
-43.4247
-46.7514
-48.2092
-43.7755
-44.2885
-41.8654
-40.2169
-38.8815
-38.5486
-38.6764
-39.7058
-39.3277
-49.7249
-49.3929
-44.6556
-55.2951
-37.5926
-40.3613
-36.4001
-47.3997
-54.766
-44.2718
-34.9519
-100.764
-52.0717
-52.0097
-54.3724
-72.0618
-41.7199
-43.3109
-48.4198
-44.1308
-41.9382
-40.8863
-44.0119
-47.0065
-114.044
75.8278
-119.974
100.296
-85.6643
-79.8742
159.321
174.158
-130.295
-131.358
-130.297
-132.115
-107.144
-107.142
-12.62
-12.1693
-53.4354
-60.2599
-38.076
-45.0097
-48.5835
-41.5769
-57.5241
-49.8027
-49.6242
-41.6881
-50.0282
-41.7336
-47.0443
-46.4058
-41.2124
-40.9201
-46.1462
-43.3641
-46.0762
-43.2893
-44.4583
-44.4904
-42.8135
-42.7864
-45.6862
-49.4907
-42.7302
-43.2234
-43.2872
-43.3295
-44.9594
-46.6254
-50.8107
47.9747
-55.4599
46.4223
-31.8143
-34.4016
129.872
129.096
-42.0026
-27.6882
-45.2115
-27.2227
-46.1203
-47.5238
-17.8259
-14.2968
-37.6081
-32.5356
-37.4681
-32.035
-37.8921
-37.8399
-32.6721
-32.8633
-42.4402
-40.8635
-43.6048
-47.8998
-43.6319
-43.7727
-43.5946
-40.8884
-116.242
76.0562
-124.795
101.083
-88.0107
-82.8307
173.816
159.322
-52.8005
-60.1222
-38.197
-45.0939
-48.1412
-40.8483
-57.4245
-49.7198
-49.3729
-41.4157
-49.4852
-41.3677
-46.05
-46.8867
-40.9554
-40.6257
-43.5518
-48.9311
-42.7382
-43.1233
-43.29
-43.7469
-44.819
-46.4786
-41.2138
-26.5502
-44.7795
-26.2271
-45.8682
-45.7169
-12.2798
-16.3784
-42.1629
-40.7387
-43.4849
-48.1265
-43.631
-43.2295
-40.8401
-43.4893
-37.5666
-37.4032
-36.74
-37.6675
-37.6347
-37.1369
-37.7741
-38.1931
-41.0329
-40.516
-44.0581
-44.3306
-44.5235
-43.4091
-40.8997
-43.1507
-41.2308
-39.6798
-41.2307
-39.7001
-42.4629
-42.4669
-39.2701
-39.2928
-36.9562
-38.3273
-38.8706
-38.4086
-37.5763
-38.6789
-36.8923
-37.5167
-43.9103
-46.1918
-43.8948
-46.1256
-42.9096
-42.9153
-46.995
-46.946
-49.7694
-60.3947
-45.8331
-52.5294
-45.2006
-46.9909
-65.3817
-59.6228
33.9394
18.0117
37.1495
17.9314
33.1931
36.1348
4.11891
3.86829
-63.9638
-56.6641
-63.9974
-56.6659
-66.3504
-66.382
-50.5341
-50.5328
-37.8747
-37.521
-37.0774
-37.8748
-37.9855
-37.505
-37.8944
-38.3416
-41.0414
-40.9939
-44.3384
-44.7728
-43.2673
-43.4563
-41.2759
-43.6678
-37.4631
-37.8766
-39.4392
-38.2085
-39.2584
-37.9697
-34.9224
-36.9221
-50.3045
-60.9025
-46.0792
-52.8219
-47.4341
-45.4982
-59.9093
-65.971
-49.372
-48.8573
-46.9185
-42.1083
-43.9788
-46.8222
-41.656
-43.3418
-49.2118
-48.2958
-46.6944
-41.8491
-46.2103
-43.4112
-42.9235
-41.5236
-67.4322
-67.4217
-61.3894
-53.3358
-61.3658
-53.3125
-50.6413
-50.5134
-7.18635
-7.22863
-3.64114
3.77035
4.46332
-3.79674
9.26741
10.5149
195.727
191.143
175.452
175.471