# vtk DataFile Version 2.0
tri_press
ASCII
DATASET UNSTRUCTURED_GRID
POINTS 3682 float
-0.833694 0.335 -2.425
-0.775 0.415 2.55169
-0.813521 0.775 -2.345
-0.785 0.87855 2.485
0.833693 0.335 -2.425
0.775 0.415 2.55169
0.813521 0.775 -2.345
0.785 0.87855 2.485
-0.835891 0.339905 -0.766103
-0.838184 0.344714 0.892794
-0.829865 0.835368 -0.735
-0.835024 0.884551 0.875
0.835891 0.339905 -0.766103
0.838442 0.344455 0.892794
0.829865 0.835368 -0.735
0.835026 0.884552 0.875
-1.66596 0.0630417 -3.74476
-1.66518 0.0874604 -2.43722
-1.66675 0.092882 -0.777063
-1.65922 0.0993473 0.892939
-1.61946 0.14689 2.55393
-1.60711 0.179684 3.86552
-1.60934 0.204064 5.1696
-1.66432 0.300255 -3.72234
-1.66321 0.330874 -2.42014
-1.66722 0.344634 -0.769497
-1.65777 0.351754 0.885551
-1.60061 0.395196 2.53713
-1.59368 0.427015 3.84804
-1.60172 0.451515 5.15371
-1.65563 0.761971 -3.66377
-1.6496 0.791485 -2.35956
-1.66092 0.840753 -0.742243
-1.65542 0.874884 0.871606
-1.60506 0.88229 2.48986
-1.59567 0.912679 3.80278
-1.60155 0.942255 5.11634
-1.65055 1.4884 -3.61268
-1.64857 1.52386 -2.31579
-1.65198 1.58028 -0.714333
-1.65281 1.62718 0.876587
-1.64163 1.65085 2.47856
-1.63035 1.66855 3.77652
-1.6237 1.69123 5.08474
-0.8367 0.0653528 -3.74791
-0.833554 0.0909885 -2.44183
-0.834511 0.0905749 -0.776445
-0.837946 0.0950852 0.89912
-0.809937 0.157084 2.56474
-0.798948 0.186948 3.87285
-0.799795 0.207796 5.17384
-0.837105 0.300497 -3.72331
-0.785349 0.434474 3.85408
-0.79294 0.454963 5.15691
-0.829999 0.755223 -3.65772
-0.787175 0.913262 3.80181
-0.792409 0.943195 5.11613
-0.823397 1.4833 -3.60671
-0.820449 1.51879 -2.30921
-0.824052 1.57909 -0.710363
-0.830061 1.62957 0.876111
-0.826314 1.65174 2.47516
-0.81702 1.66833 3.77312
-0.810176 1.691 5.08227
0.824739 0.0653447 -3.74791
0.83323 0.0909829 -2.44183
0.835327 0.0905426 -0.776445
0.823988 0.0949101 0.899121
0.783879 0.157017 2.56474
0.797414 0.186895 3.87285
0.809752 0.207739 5.17385
0.821061 0.300492 -3.72331
0.798983 0.434439 3.85408
0.811888 0.454913 5.15691
0.816001 0.755219 -3.65772
0.80271 0.913235 3.80181
0.814107 0.943152 5.11613
0.828256 1.48329 -3.60671
0.831775 1.51878 -2.30921
0.831325 1.57908 -0.710363
0.81993 1.62955 0.876111
0.806661 1.6517 2.47516
0.808201 1.66829 3.77312
0.814565 1.69095 5.08226
1.65558 0.0630198 -3.74476
1.66369 0.0874392 -2.43722
1.66691 0.0928062 -0.777063
1.65264 0.099102 0.892939
1.60866 0.146721 2.55393
1.60819 0.179559 3.86552
1.61939 0.203944 5.1696
1.65234 0.30024 -3.72234
1.66187 0.330865 -2.42014
1.66769 0.344591 -0.769497
1.65975 0.3515 0.885551
1.60505 0.395051 2.53713
1.60621 0.426911 3.84804
1.61953 0.451406 5.15371
1.64603 0.761959 -3.66377
1.64963 0.791479 -2.35956
1.66232 0.840737 -0.742243
1.65816 0.874794 0.871606
1.61074 0.882196 2.48986
1.61041 0.912597 3.80278
1.62218 0.942161 5.11634
1.65478 1.48837 -3.61268
1.65804 1.52383 -2.31579
1.65843 1.58024 -0.714334
1.64656 1.62712 0.876587
1.62884 1.65077 2.47856
1.62555 1.66847 3.77652
1.62975 1.69114 5.08474
-0.796024 0.555 -2.35742
-4.76837e-07 0.283428 -2.47657
-0.855169 0.317076 -1.59555
-0.79045 0.646775 2.52879
0 0.437711 2.52898
-0.828764 0.357685 1.72224
0 0.831074 -2.40107
-0.835601 0.819091 -1.54
0 0.824433 2.43088
-0.820048 0.891586 1.68
0.795911 0.555 -2.3573
0.855105 0.31714 -1.59555
0.79045 0.646775 2.52879
0.828489 0.35796 1.72224
0.835607 0.819098 -1.54
0.820038 0.891576 1.68
-0.834937 0.34441 0.0633451
-0.877763 0.587636 -0.750552
-3.88356e-07 0.267229 -0.766103
-0.881493 0.614633 0.883897
0.000129418 0.290473 0.892794
-0.836346 0.863861 0.0699999
1.06684e-07 1.03968 -0.735
7.07277e-07 1.35989 0.875
0.834963 0.344384 0.0633451
0.877763 0.587636 -0.750552
0.881579 0.614504 0.883897
0.836336 0.86385 0.0699999
-0.883253 0.571318 -1.56778
0.883261 0.571318 -1.56778
-4.32596e-07 0.28184 -1.59555
5.33421e-08 0.896649 -1.54
-2.38419e-07 0.555 -2.43365
-0.878717 0.601134 0.0666725
0.878711 0.60107 0.0666725
6.45146e-05 0.274743 0.0633451
4.06981e-07 1.37078 0.0699999
-0.876017 0.630704 1.70112
0.876022 0.630639 1.70112
6.47088e-05 0.289662 1.72224
3.53638e-07 0.966441 1.68
0 0.646775 2.42252
-0.866381 0.445 -2.44273
-0.416847 0.303904 -2.4561
-0.854814 0.315656 -2.01028
-0.786455 0.530887 2.54397
-0.3875 0.444537 2.52215
-0.801293 0.386932 2.13697
-0.807974 0.665 -2.35441
-0.406761 0.79943 -2.36943
-0.831765 0.80425 -1.9425
-0.79428 0.762662 2.51345
-0.3925 0.816238 2.42269
-0.804936 0.88748 2.0825
0.416846 0.303841 -2.45616
0.86641 0.445 -2.44276
0.853541 0.316928 -2.01028
0.3875 0.444538 2.52215
0.786548 0.530887 2.54407
0.801293 0.386931 2.13697
0.406761 0.799434 -2.36943
0.807934 0.665 -2.35437
0.831791 0.804276 -1.9425
0.3925 0.816216 2.42267
0.794274 0.762662 2.51345
0.804935 0.887479 2.0825
-0.857493 0.316527 -1.18083
-0.835357 0.342214 -0.351379
-0.859763 0.462303 -0.758328
-0.431867 0.275725 -0.766103
-0.830095 0.354578 1.30752
-0.834664 0.346459 0.478069
-0.877555 0.470815 0.888345
-0.429288 0.297073 0.892794
-0.834052 0.828549 -1.1375
-0.879229 0.724209 -0.742776
-0.837043 0.853551 -0.3325
-0.45357 1.0148 -0.735
-0.832865 0.893397 1.2775
-0.876099 0.758512 0.879448
-0.833025 0.871545 0.4725
-0.524388 1.33597 0.875
0.857449 0.316571 -1.18083
0.431353 0.276751 -0.766103
0.835365 0.342205 -0.351379
0.859774 0.462297 -0.758328
0.82979 0.354883 1.30752
0.429662 0.296712 0.892794
0.834702 0.34642 0.478069
0.878031 0.470469 0.888345
0.834041 0.828538 -1.1375
0.453571 1.0148 -0.735
0.879228 0.724209 -0.742776
0.83705 0.853558 -0.3325
0.832861 0.893393 1.2775
0.524389 1.33597 0.875
0.876125 0.758439 0.879448
0.832961 0.871482 0.4725
-0.870625 0.563159 -1.9626
-0.398012 0.555 -2.38821
-4.54717e-07 0.28183 -2.03606
-3.57628e-07 0.419214 -2.52298
-0.896937 0.444197 -1.58166
-0.427585 0.290521 -1.59555
-0.853213 0.638739 2.11496
-0.395225 0.646775 2.44327
3.23544e-05 0.322972 2.12561
0 0.542243 2.54334
-0.860594 0.494195 1.71168
-0.414349 0.307511 1.72224
2.66711e-08 0.869704 -1.97054
-1.19209e-07 0.693037 -2.43408
-0.893187 0.695205 -1.55389
-0.4178 0.886588 -1.54
1.76819e-07 0.932879 2.05544
0 0.735604 2.41245
-0.861776 0.761145 1.69056
-0.410024 0.963308 1.68
0.870635 0.563159 -1.96254
0.397956 0.555 -2.38786
0.896965 0.444229 -1.58166
0.427552 0.292151 -1.59555
0.853219 0.638707 2.11496
0.395225 0.646775 2.44327
0.860586 0.4943 1.71168
0.414277 0.307366 1.72224
0.893186 0.695208 -1.55389
0.417804 0.886618 -1.54
0.861776 0.761108 1.69056
0.410019 0.963361 1.68
-0.860271 0.47105 0.0650088
-0.431458 0.281532 0.0633451
-0.874639 0.579477 -1.15916
-0.878015 0.594385 -0.34194
-4.10476e-07 0.281929 -1.18083
3.20631e-05 0.274509 -0.351379
-0.879361 0.607883 0.475285
-0.884552 0.622668 1.29251
9.69661e-05 0.274795 0.478069
9.70632e-05 0.289568 1.30752
-0.877504 0.742484 0.0683362
-0.534181 1.34934 0.0699999
8.00132e-08 0.923688 -1.1375
2.56832e-07 1.34588 -0.3325
5.57129e-07 1.37289 0.4725
5.30458e-07 1.06899 1.2775
0.860283 0.471004 0.0650088
0.431003 0.282584 0.0633451
0.874684 0.579477 -1.15916
0.878012 0.594353 -0.34194
0.879352 0.607787 0.475285
0.883981 0.622571 1.29251
0.877497 0.742447 0.0683362
0.534178 1.34934 0.0699999
-0.878871 0.444599 -1.98644
-0.879849 0.453984 -1.17
-0.880018 0.703353 -1.14833
-0.873046 0.680102 -1.95255
0.878873 0.444614 -1.98641
0.872826 0.680104 -1.95252
0.880016 0.703355 -1.14833
0.879859 0.454 -1.17
-0.422216 0.294049 -2.02317
0.422199 0.294279 -2.02317
0.422749 0.287372 -1.18083
-0.422765 0.284546 -1.18083
-0.41228 0.855067 -1.95652
-0.416366 0.912011 -1.1375
0.416368 0.912003 -1.1375
0.412282 0.855061 -1.95652
-0.40743 0.432107 -2.47927
-0.402386 0.679019 -2.38166
0.402358 0.679019 -2.38167
0.407401 0.432107 -2.47912
-0.859759 0.466805 -0.346659
-0.860544 0.475117 0.476677
-0.876757 0.750475 0.473892
-0.878597 0.733462 -0.33722
0.859764 0.466783 -0.346659
0.878591 0.733442 -0.33722
0.876802 0.750439 0.473892
0.860536 0.475047 0.476677
-0.430264 0.281425 -0.351379
0.429757 0.282509 -0.351379
0.433259 0.283795 0.478069
-0.433935 0.282179 0.478069
-0.559844 1.31401 -0.3325
-0.533469 1.35103 0.4725
0.533467 1.35102 0.4725
0.559852 1.31402 -0.3325
-0.888223 0.486934 1.30001
-0.842341 0.512541 2.12596
-0.847297 0.761904 2.09873
-0.871216 0.755368 1.285
0.881619 0.486889 1.30001
0.871219 0.755318 1.285
0.847303 0.761885 2.09873
0.842373 0.512594 2.12596
-0.416688 0.302005 1.30752
0.416781 0.302467 1.30752
0.400888 0.35417 2.13129
-0.400925 0.335399 2.13129
-0.413768 1.0537 1.2775
-0.401262 0.92773 2.06897
0.401259 0.927734 2.06897
0.413766 1.05379 1.2775
-0.391362 0.536565 2.54629
0.391362 0.536565 2.54629
0.393863 0.749133 2.43095
-0.393863 0.749133 2.43094
-0.845006 0.39 -2.42883
-0.625271 0.315622 -2.44438
-0.820239 0.349342 -2.21764
-0.786522 0.472944 2.55363
-0.58125 0.450055 2.51664
-0.790748 0.398365 2.34433
-0.812582 0.72 -2.35154
-0.610141 0.785586 -2.35559
-0.825275 0.792257 -2.14375
-0.797953 0.820606 2.50754
-0.58875 0.811041 2.41749
-0.795844 0.883891 2.28375
0.62527 0.317577 -2.44242
0.844914 0.39 -2.42874
0.820234 0.349346 -2.21764
0.58125 0.450055 2.51664
0.785633 0.472944 2.55274
0.790749 0.398363 2.34433
0.610141 0.785597 -2.3556
0.812677 0.72 -2.35163
0.825259 0.792241 -2.14375
0.58875 0.811016 2.41747
0.798667 0.820606 2.50825
0.795831 0.883878 2.28375
-0.83657 0.338339 -0.973465
-0.835604 0.34108 -0.558741
-0.843639 0.403197 -0.762216
-0.648028 0.279516 -0.766103
-0.837184 0.346602 1.10016
-0.832882 0.349128 0.685431
-0.871208 0.401095 0.890569
-0.635973 0.316418 0.892794
-0.831562 0.831562 -0.93625
-0.86544 0.785235 -0.738888
-0.833822 0.844827 -0.53375
-0.674065 0.989779 -0.735
-0.83493 0.889959 1.07625
-0.859546 0.823523 0.877224
-0.834437 0.878461 0.67375
-0.706457 1.16376 0.875
0.836566 0.338341 -0.973465
0.648044 0.279483 -0.766103
0.835604 0.341079 -0.558741
0.84364 0.403197 -0.762216
0.838068 0.345717 1.10016
0.633913 0.320862 0.892794
0.83293 0.34908 0.685431
0.871301 0.40093 0.890569
0.831495 0.831495 -0.93625
0.674065 0.989779 -0.735
0.865438 0.785234 -0.738888
0.833822 0.844828 -0.53375
0.834922 0.889951 1.07625
[...]
POINT_DATA 3682
SCALARS point_scalars float 1
LOOKUP_TABLE default
-115.03
-40.8422
-138.408
-37.7621
-113.385
-39.3482
-141.79
-36.3555
-33.0371
-36.4707
-41.2159
-42.7325
-33.0992
-34.8573
-41.2642
-42.6931
-47.8669
-131.62
-31.5984
-34.6842
-39.0149
-40.2327
-40.2327
-13.5081
-158.842
-31.8108
-36.4979
-39.6431
-40.2327
-39.8689
-13.5081
-134.823
-37.0543
-39.6726
-37.6697
-37.5254
-37.8138
-108.133
-113.559
-74.0275
-49.1547
-35.7013
-37.8729
-37.5254
51.5153
-127.28
-35.9084
-41.4089
-40.7567
-40.2327
-40.2327
164.898
-40.2327
-39.7381
158.748
-37.5254
-37.8138
-5.15494
-125.478
-78.6086
-55.3235
-35.9679
-37.1051
-37.1051
51.9685
-124.673
-36.1039
-38.829
-39.5163
-38.6127
-38.6127
164.997
-36.5662
-36.2211
158.778
-36.0738
-36.2211
-5.16438
-123.951
-78.2758
-55.3869
-34.6456
-35.5628
-35.5628
-47.8563
-131.61
-31.6239
-32.7198
-37.9548
-38.6127
-38.6127
-13.4817
-158.527
-31.8071
-34.4575
-38.4481
-36.8588
-36.2211
-13.4817
-134.631
-37.0654
-39.5612
-36.4645
-36.0738
-36.2211
-108.621
-113.478
-73.9102
-49.1651
-34.5317
-36.4875
-36.0738
-63.9812
-198.522
-40.1143
-35.1547
-28.9445
-38.1502
-128.447
-30.047
-30.1314
-40.2461
-63.698
-40.3819
-33.7945
-37.6858
-30.0065
-40.1994
-32.8231
-33.0425
-35.7555
-36.8326
-32.7528
-46.0846
38.7107
-55.8724
-32.9501
-33.0405
-36.994
-46.1276
-39.4876
-39.4832
-46.2627
-15.8359
199.241
-37.0991
-37.1952
-32.5797
-82.8788
-37.1171
-36.9093
-38.2659
-39.6967
-25.2721
-70.3914
-144.598
-50.0589
-38.3425
-33.6312
-35.1946
-58.2927
-109.558
-48.1452
-36.6535
-31.6029
-37.2116
-141.218
-70.4251
-50.0079
-31.5933
-36.8411
-34.2422
-109.752
-58.2073
-48.1281
-30.387
-35.191
-36.8492
-35.6538
-31.1625
-31.6721
-35.1732
-34.7584
-33.7971
-33.2375
-33.6988
-25.4261
-36.5614
-49.2483
22.6714
-46.1527
-39.7549
-42.3743
-56.6091
-36.2094
-35.1819
-31.272
-31.6822
-35.5143
-33.3924
-34.2011
-34.2352
-25.3634
22.9803
-36.5691
-49.2683
-46.0796
-56.6839
-39.6579
-42.4191
-58.676
175.154
-72.4293
195.084
-39.7589
-45.4919
-35.7696
-31.0758
-37.3185
-24.4721
-37.9334
-37.9511
-49.6248
168.682
-37.8423
-19.5745
-35.4891
-25.2816
-37.6814
-39.9553
-58.6654
175.138
-39.7824
-45.6113
-35.1259
-28.7048
-37.9801
-37.4258
-37.8247
-19.5384
-37.4223
-40.061
-34.7959
-32.5132
-31.6896
-36.7391
-35.3332
-32.2945
-35.9492
-39.0811
-34.6462
-34.2722
-41.1966
-70.1975
8.89896
-104.456
-64.221
-40.8613
-34.9092
-32.6102
-31.5905
-36.7903
-36.1231
-38.1982
-41.2644
-70.2043
-50.8285
-34.0425
-30.5687
-56.1703
-50.8303
-56.159
-30.5027
-33.8876
-71.4791
-71.6758
-35.0557
-35.0156
-51.6181
1.05084
1.12253
-51.587
181.745
152.1
152.328
179.072
-34.0864
-34.275
-39.137
-42.0905
-34.1536
-42.1307
-39.2189
-34.574
-32.1833
-32.2536
-34.5291
-34.5121
-105.976
-57.0758
-57.0791
-105.856
-36.8638
-35.4962
-35.8421
-40.3291
-36.37
-39.9222
-35.241
-34.7847
-34.5052
-34.3117
-36.1675
-38.1146
-42.486
-35.2256
-35.1474
-42.5801
-31.4123
-28.8485
-29.0206
-31.0367
-86.548
-119.633
-83.8188
-39.9057
-36.0589
-36.6641
-53.0576
-55.7845
-80.5068
-37.9547
-32.7248
-35.3877
-122.984
-86.2952
-83.6326
-34.0771
-38.2652
-35.2027
-55.739
-52.5504
-80.4965
-31.3032
-36.4776
-34.5712
-28.7405
-31.0543
-31.2943
-35.2797
-35.1416
-29.2251
-33.2366
-34.3258
-30.2741
-38.6349
-48.2186
-18.5754
-44.4491
-41.1667
-41.284
-51.1906
-28.0013
-35.1977
-31.1123
-31.324
-33.7094
-32.9374
-31.455
-32.6839
-30.2347
-19.0052
-38.6581
-48.2455
-44.3343
-51.2146
-41.0995
-41.3161
-56.3357
-59.1055
-86.5101
153.365
-180.871
-182.252
-103.629
107.136
-46.5199
-36.51
-39.2989
-43.971
-36.5061
-34.9997
-36.9928
-32.4682
-30.9496
-29.3039
-33.827
-26.1977
-35.2154
-35.1506
-39.3942
-36.8258
-112.442
-111.867
-84.6146
126.318
-36.8104
-25.4166
-35.8153
-24.7034
-31.0158
-29.9632
-34.3573
-26.2624
-38.4926
-42.5172
-38.5153
-40.2399
-56.2995
-58.9683
-86.4845
153.534
-46.5642
-36.6176
-39.3568
-44.1051
-35.1528
-33.6184
-36.0206
-31.015
-34.5556
-33.9268
-39.6088
-36.0102
-36.7731
-25.3515
-35.7928
-24.6535
-38.3556
-42.473
-38.3133
-40.309
-32.9717
-32.587
-33.9542
-32.2633
-32.2602
-34.4046
-30.8987
-35.3212
-35.571
-35.6186
-36.4353
-32.8633
-34.6851
-38.4153
-35.3975
-38.9959
-32.9383
-32.8485
-34.0673
-33.276
-48.2272
-44.275
-43.4077
-56.2413
34.8942
34.9317
21.9243
29.9878
-56.0195
-56.0661
-59.7661
-48.5701
-33.0824
-32.782
-34.0796
-32.3952
-32.2603
-34.4053
-30.826
-35.3524
-35.4358
-38.3226
-35.5524
-38.2002
-48.2611
-44.3319
-43.4629
-56.2732
-46.5388
-39.6035
-39.1384
-36.0451
-46.5296
-39.6051
-39.1289
-36.0275
-56.5153
-45.9754
-46.0695
-40.0045
-29.8176
-16.9361
-16.9138
-4.36218
191.935
200.342
191.355
191.924
-36.0084
-37.2461
-36.6732
-38.888
-36.11
-37.315
-36.8081
-38.9687
-32.5758
-32.2383
-33.314
-32.6189
-80.6961
-102.556
-70.9148
-80.7069
-35.9383
-37.4773
-37.2698
-39.0099
-35.5638
-37.2852
-37.0072
-38.1686
-38.1465
-38.1402
-37.8606
-35.7712
-37.7904
-39.7898
-39.8986
-41.003
-27.4357
-25.6564
-25.3268
-24.8121
-84.371
175.415
-104.141
98.1326
-45.7663
-67.6858
-36.7843
-33.0842
-35.8709
-32.3908
-35.3071
-37.2905
-90.0836
157.321
-85.5018
97.0413
-52.5255
-52.7448
-36.2711
-32.5537
-33.1619
-31.1614
-35.7077
-35.6469
-104.515
57.4081
-84.352
175.447
-45.8305
-67.8675
-34.5859
-30.0862
-35.8102
-31.6847
-34.5541
-35.8248
-85.4351
98.1524
-90.0635
157.432
-52.5071
-52.718
-32.749
-29.3924
-35.3261
-31.0753
-35.1522
-35.3868
-36.52
-33.1959
-32.9596
-31.7808
-29.7943
-33.0103
-36.3649
-32.7617
-35.9601
-34.4637
-33.7948
-34.4161
-32.7564
-37.6717
-34.7242
-33.3707
-30.1439
-7.36569
-31.8083
-40.436
-45.2591
-72.9729
9.90284
8.45068
-41.7445
-44.6089
-38.7315
-40.5585
-40.9597
-48.044
-55.0869
-51.4819
-36.4214
-33.6859
-35.9339
-32.7609
-33.0393
-31.9022
-29.6608
-33.0602
-35.4096
-35.475
-34.5413
-33.2164
-34.1477
-34.5842
-33.0834
-36.5885
-30.082
-7.24474
10.1529
8.05467
-31.7619
-40.4662
-45.2928
-72.8876
-41.4787
-44.6888
-55.1026
-51.5905
-38.7783
-40.2556
-41.0173
-48.0542
-57.2626
-58.7522
201.088
173.082
-70.6995
-70.7757
192.939
192.771
-44.6724
-37.9739
-55.7447
-39.255
-35.6098
-35.9597
-31.1557
-31.0311
-36.9773
-37.6533
-27.8146
-24.9775
-38.9361
-34.81
-35.5268
-37.3465
-49.8581
-49.8256
171.663
171.83
-34.1866
-45.3812
-33.952
-8.98903
-35.3288
-35.3805
-26.2185
-28.2554
-36.4009
-39.3729
-41.7756
-37.6736
-57.2545
-58.7361
173.255
200.557
-44.6852
-37.9527
-55.8744
-39.4295
-35.3368
-34.949
-28.9328
-28.8471
-37.1909
-34.3862
-35.1939
-36.9624
-45.3619
-34.132
-8.93919
-33.9195
-39.0084
-36.0519
-37.757
-41.8659
-34.7032
-34.6545
-32.1427
-33.2205
-32.4159
-31.0804
-35.4247
-38.9648
-35.1
-35.1522
-32.2702
-32.2972
-35.2176
-37.4423
-38.129
-39.638
-34.6454
-34.6137
-34.2927
-34.2244
-40.1305
-42.1417
-87.2029
-61.3292
6.93117
6.9482
-103.528
-103.507
-62.7917
-62.8046
-41.3044
-41.401
-34.7892
-34.8226
-32.2286
-33.2829
-31.0028
-32.297
-35.4813
-39.0113
-37.5573
-35.4389
-37.2562
-39.1148
-42.1946
-40.2209
-61.3327
-87.174
-82.2291
-43.3994
-45.901
-83.623
-29.332
-30.4064
-36.9689
-38.0714
-32.3455
-32.304
-35.6794
-31.3759
-84.8299
-91.9051
-46.488
-42.1967
-82.1566
-83.587
-45.8989
-43.4616
-84.7947
-42.1672
-46.4765
-91.8847
-32.3071
-31.3183
-35.6334
-32.2558
-29.1651
-38.0811
-36.9304
-30.3112
-98.5712
-100.946
-56.0569
-53.4366
-98.734
-53.4935
-56.1664
-99.4462
-34.4173
-36.4201
-39.8362
-38.0347
-34.754
-37.7316
-39.7959
-36.5626
-87.1122
-35.1923
-31.3793
-83.2176
-3.98337
18.4701
-5.43617
-14.6289
-3.8884
-14.5592
-5.4122
18.5425
-87.0759
-83.1653
-31.354
-35.1539
113.753
183.655
191.421
130.552
129.59
104.171
187.089
158.629
129.638
158.779
187.102
104.889
112.982
123.171
191.4
184.55
-31.9469
-33.7337
-36.0073
-34.1447
-30.525
-34.092
-35.7552
-34.051
-40.1646
-41.558
-38.2207
-37.0685
-43.8479
-37.3515
-39.3216
-44.8537
-32.0143
-34.1822
-36.0817
-33.8319
-43.8779
-44.8974
-39.3824
-37.3818
-40.1976
-37.1504
-38.3295
-41.6243
-31.5432
-34.2343
-35.903
-34.3038
-32.197
-32.9103
-32.2164
-31.9177
-32.1996
-32.0492
-32.2602
-32.9219
-36.0696
-34.1182
-33.3316
-33.0479
-35.6899
-32.9109
-33.2953
-34.1986
-78.3757
-63.2307
-99.7795
28.5596
-45.8877
-59.0844
-68.9014
-51.3211
-45.8954
-51.3438
-68.9086
-59.1073
-78.3323
28.7004
-99.7889
-63.2664
-36.4718
-38.5018
-39.2505
-38.3112
-36.8751
-36.9941
-35.468
-34.582
-35.7352
-36.7086
-36.2807
-36.7513
-42.2655
-39.505
-38.9989
-40.4175
-35.5052
-37.3717
-37.6584
-36.6744
-42.0528
-40.1791
-38.53
-39.0266
-34.8087
-35.7724
-35.9171
-36.4055
-35.9014
-34.0736
-35.0885
-36.0292
-33.5752
-33.3338
-35.6897
-35.0621
-32.9922
-34.5328
-35.5336
-33.2153
-35.0164
-33.7889
-37.8767
-35.7131
-36.8557
-36.4727
-38.1781
-34.7356
-51.5722
-42.3391
-41.2517
-49.1513
-33.7341
-33.8081
-37.734
-37.8642
-32.9912
-37.8579
-37.8619
-33.7325
-51.6541
-49.0991
-41.3376
-42.4085
-34.9226
-29.1742
-27.6901
-32.4828
-33.2236
-31.0998
-25.4169
-26.8291
-31.272
-27.3434
-25.4727
-31.0053
-32.7218
-32.4761
-27.7191
-29.0692
-97.4296
-104.227
-131.161
-40.296
-37.2852
-39.0253
-105.988
-50.5373
-118.364
-37.4263
-33.0388
-35.3806
-102.313
-96.7225
-131.181
-35.3768
-38.6818
-37.843
-49.9938
-106.334
-118.306
-31.5347
-35.9551
-34.2645
-30.9959
-31.4274
-31.7653
-35.862
-34.0081
-32.3676
-35.1011
-36.5588
-36.1968
-39.682
-45.572
-45.9631
-43.5003
-42.0119
-41.9248
-47.0665
-31.0161
-36.0416
-31.472
-31.808
-32.4768
-34.7429
-29.6072
-33.1127
-36.1988
-45.995
-39.716
-45.6122
-43.4185
-47.0795
-41.9572
-41.9263
-64.803
-65.9713
-134.409
121.882
-201.15
-202.177
-130.913
-11.4139
-43.0548
-37.5643
-39.1315
-42.1397
-36.0274
-35.8353
-39.4312
-32.4272
-29.6853
-28.6779
-31.5579
-28.095
-37.0578
-37.2411
-39.025
-36.3223
-160.893
-160.757
-112.66
26.9958
-33.834
-26.9205
-34.3464
-26.683
-30.3081
-29.6562
-33.9439
-28.2074
-39.3876
-41.1623
-39.3288
-40.7232
-63.7619
-65.6938
-134.297
122.117
-43.2821
-37.6787
-39.2594
-42.7784
-34.6757
-34.4806
-38.1913
-31.018
-36.5306
-36.5702
-39.2122
-35.5925
-33.7881
-26.8732
-34.3187
-26.631
-39.3011
-41.1217
-39.193
-40.7661
-32.9288
-32.4962
-33.4923
-32.0277
-32.6038
-33.5832
-31.8764
-34.2592
-35.7488
-35.7608
-35.8604
-34.2032
-35.8721
-37.7605
-35.2101
-38.4799
-32.826
-32.7812
-33.4231
-32.9523
-47.2407
-44.8848
-44.811
-50.6652
37.5535
37.4191
26.8855
46.1312
-55.9606
-55.9869
-58.0782
-52.2674
-33.0324
-32.6362
-33.6251
-32.2074
-32.6022
-33.582
-31.8414
-34.2785
-36.3686
-37.7273
-35.3222
-38.0103
-47.2801
-44.9362
-44.8584
-50.6942
-42.4273
-39.5126
-39.328
-37.0859
-42.4192
-39.5088
-39.3238
-37.0695
-50.7828
-46.1937
-46.2322
-43.13
-22.3944
-16.1637
-16.151
-9.96652
198.415
199.958
196.608
198.403
-36.5301
-37.1495
-36.7709
-37.846
-36.6283
-37.2337
-36.8821
-37.934
-32.5806
-32.3868
-32.8878
-32.6014
-82.4209
-92.2803
-75.965
-82.4264
-36.0437
-37.1318
-37.0891
-38.514
-35.7731
-36.9511
-36.8404
-38.2234
-38.2541
-38.1766
-38.0443
-36.6667
-38.8264
-39.7183
-39.7841
-40.4605
-26.062
-25.44
-25.2995
-24.862
-82.5259
-46.3983
-140.316
138.497
-132.257
-173.207
-141.165
-34.7022
-55.6613
-51.0042
-45.3296
-62.11
-38.9731
-37.4135
-40.5844
-33.684
-34.9021
-32.3059
-35.3773
-33.1789
-35.7292
-35.5236
-35.2056
-36.199
-60.8184
-57.2343
-140.26
131.948
-75.4986
-101.642
-129.15
-14.7207
-61.6839
-43.3628
-49.2466
-50.8914
-36.8793
-37.4196
-38.5396
-32.3898
-32.0143
-31.278
-32.3782
-31.3815
-36.1107
-37.3167
-36.0593
-36.3841
-140.241
-172.815
-143.433
-34.361
-82.4134
-46.2995
-140.164
138.599
-55.7166
-50.8495
-45.2707
-61.8839
-32.7631
-30.303
-33.8014
-31.0932
-37.4994
-36.032
-39.3468
-32.4045
-34.61
-34.7335
-34.366
-35.0421
-75.3193
-101.226
-128.984
-13.7408
-60.4866
-57.0838
-140.244
132.093
-61.6622
-43.3537
-49.2259
-50.8711
-30.6407
-30.0458
-31.7762
-29.8881
-35.4065
-35.9686
-37.3037
-30.9078
-35.5366
-37.0672
-35.5672
-36.0759
-33.5817
-34.6288
-36.8428
-31.25
-31.9216
-32.0712
-32.1305
-31.4779
-31.4073
-31.9375
-30.7755
-32.3489
-34.9938
-35.3875
-36.0309
-33.7704
-34.5836
-34.1493
-35.7218
-34.283
-32.0223
-33.5938
-33.5386
-34.1551
-32.9822
-33.7765
-30.872
-37.0477
-34.1393
-33.1228
-34.4047
-33.301
-26.7208
-25.9147
-29.2249
-15.3002
-37.6425
-35.2828
-33.8969
-38.7742
-49.4852
-49.0148
-47.2453
-58.2477
12.6078
29.827
13.9429
27.4703
-44.7841
-44.0828
-43.0494
-47.7153
-40.4027
-39.0924
-39.1061
-40.1818
-41.4828
-43.4391
-42.0907
-44.8136
-55.147
-56.2916
-56.923
-55.1996
-32.7038
-34.8673
-36.9525
-33.3966
-35.039
-35.4845
-35.6607
-33.9692
-31.9633
-32.1731
-32.2236
-31.6238
-31.4279
-31.9406
-30.7353
-32.3855
-33.9593
-33.9622
-35.4319
-36.1958
-33.4992
-32.9722
-34.0692
-33.1702
-32.8624
-33.8448
-33.9198
-34.5257
-33.5891
-34.7886
-30.9929
-36.6888
-26.6665
-25.8507
-29.1631
-15.2219
12.0904
30.1203
14.0532
27.5255
-37.6568
-35.2867
-33.8799
-38.7964
-49.4803
-49.0421
-47.2737
-58.227
-44.6668
-44.0393
-42.8661
-47.7808
-55.2024
-56.3517
-56.971
-55.2888
-40.3215
-38.985
-39.1008
-39.9984
-41.525
-43.4872
-42.1353
-44.8382
-67.334
-52.9261
-58.2247
-59.0607
164.053
188.644
188.997
176.571
-82.6155
-63.9202
-71.7486
-71.7337
163.385
201.904
194.901
194.867
-39.5082
-39.6146
-41.7173
-37.7632
-44.9532
-45.6895
-50.0662
-41.7647
-36.2258
-35.8396
-35.6903
-35.9402
-31.9043
-29.6802
-31.1
-31.0632
-37.4809
-37.9397
-37.1876
-37.5065
-24.5138
-25.7189
-25.9184
-24.1099
-38.6205
-37.6417
-40.4741
-35.3864
-37.6157
-37.9972
-36.4354
-37.6941
-61.932
-39.5922
-49.6913
-49.6713
161.505
181.691
174.803
174.901
-36.7986
-38.8088
-35.6792
-41.1316
-21.517
-18.0889
-26.1819
-14.1462
-34.6453
-36.6078
-35.4316
-35.4743
-25.2238
-25.3217
-24.5913
-25.9447
-37.8902
-37.475
-36.8092
-38.5806
-40.0243
-39.888
-40.938
-38.8636
-67.3236
-52.9119
-58.2163
-59.0459
164.222
188.649
176.718
191.761
-39.5465
-39.627
-41.7415
-37.7719
-45.1745
-45.8402
-50.2392
-42.1312
-35.4232
-35.3412
-35.3048
-35.0427
-30.0997
-26.8596
-28.7731
-28.7909
-38.7958
-37.5063
-39.7772
-35.0879
-37.0893
-37.6088
-35.9464
-37.0255
-36.7781
-38.796
-41.1058
-35.6616
-21.4756
-18.0595
-14.1042
-26.1464
-37.6471
-37.2047
-38.2793
-36.528
-40.1094
-40.0074
-38.9694
-41.0351
-34.3337
-35.3963
-34.8182
-34.7317
-32.4152
-32.558
-32.2775
-32.8226
-30.8922
-33.7919
-31.9684
-31.4996
-36.174
-37.0962
-36.0864
-37.6964
-35.7383
-37.6099
-35.2447
-35.2713
-32.5101
-32.205
-32.2813
-32.2961
-35.7318
-36.4196
-35.6075
-36.6894
-39.1162
-38.8473
-38.6702
-39.3228
-34.1824
-33.8593
-34.6437
-34.6449
-33.7544
-34.9173
-34.2845
-34.2416
-42.2861
-39.9785
-40.5467
-41.7507
-62.7238
-77.0238
-77.9396
-65.2564
15.1175
2.65657
8.41884
8.43112
-26.2188
-113.846
-103.314
-103.373
-61.7888
-67.0894
-63.8547
-63.8616
-42.6223
-40.8565
-40.9607
-41.0207
-34.4506
-35.5044
-34.915
-34.8674
-32.5304
-32.618
-32.3299
-32.9116
-30.7917
-33.7235
-31.4037
-31.8636
-36.2181
-37.1585
-36.1397
-37.7464
-35.9091
-36.5655
-36.8297
-35.8053
-38.2453
-37.9844
-37.7005
-38.6601
-42.3482
-40.0525
-41.8113
-40.6302
-62.7402
-77.0387
-65.2604
-77.9294
-62.104
-47.5992
-54.2784
-50.6448
-35.5409
-31.8479
-34.9028
-33.0465
-30.5366
-30.6355
-32.0105
-30.8171
-67.6857
-54.5414
-57.5119
-50.3555
-62.1338
-47.6352
-54.273
-50.6289
-67.6842
-54.528
-57.499
-50.3378
-30.474
-30.5757
-31.9336
-30.7451
-35.3274
-31.6372
-34.842
-32.9188
-84.5721
-70.6577
-70.5671
-62.993
-84.8481
-71.2584
-70.6587
-63.1598
-34.5742
-35.3886
-37.1259
-35.0581
-34.5379
-35.6462
-37.123
-35.1054
-66.1786
-53.4031
-50.457
-41.863
-3.0509
5.98577
-3.95925
4.56658
-2.93033
6.09115
-3.90123
4.59656
-66.1383
-53.3716
-50.427
-41.8322
174.309
152.975
196.387
186.878
157.462
129.445
164.761
165.338
129.906
157.588
165.258
164.945
149.143
176.411
186.368
195.764
-33.4982
-33.5826
-34.4747
-34.755
-33.9608
-33.6319
-34.5055
-34.7442
-38.7865
-39.9206
-38.279
-39.6839
-41.5046
-43.6637
-40.4163
-42.2778
-33.5702
-33.6416
-34.5516
-34.8168
-41.5401
-43.7004
-40.4593
-42.3237
-38.8635
-39.9916
-38.3751
-39.7602
-34.2995
-34.0346
-34.7226
-35.004
-32.0132
-32.3707
-32.1106
-32.2589
-32.3297
-32.1111
-32.2892
-32.2275
-34.3248
-34.55
-34.6219
-33.8416
-34.4996
-34.4351
-33.7609
-34.529
-103.769
-23.6506
-98.4638
-100.209
-52.358
-55.8724
-58.8927
-60.9075
-55.8776
-52.3551
-60.9246
-58.8986
-23.5328
-103.678
-100.333
-98.8324
-36.6138
-36.9228
-37.4204
-37.4881
-36.0872
-35.4858
-35.6016
-35.0104
-35.8398
-35.7866
-35.9079
-36.0134
-40.8318
-40.8437
-39.8634
-39.9482
-35.8873
-36.3125
-36.5837
-36.8412
-40.4869
-40.4569
-39.4634
-39.4927
-35.0747
-35.2038
-35.2969
-35.5492
-35.2554
-34.7499
-34.9137
-34.4538
-34.6547
-33.8541
-34.8811
-34.2908
-34.7441
-33.7519
-34.7876
-34.1711
-36.0672
-35.8258
-36.5968
-37.6504
-37.9473
-38.2973
-37.8605
-37.5459
-43.2412
-44.3441
-42.0649
-41.8828
-34.1272
-35.3334
-35.2541
-36.4029
-33.9045
-35.1658
-35.262
-36.4296
-43.3515
-44.4405
-42.1632
-41.9909
-32.4292
-31.7354
-31.1086
-29.8562
-29.1867
-30.5379
-26.7739
-28.6962
-29.0831
-30.1132
-27.6932
-28.9154
-31.8235
-31.0337
-31.029
-29.9889
-134.476
91.6135
-141.053
35.6419
-82.5497
-90.7006
-40.6714
-36.3905
-39.224
-35.6124
-36.6203
-37.1925
-130.713
112.097
-127.595
40.3458
-82.8808
-82.2204
-37.4074
-33.2491
-33.236
-32.7247
-35.5385
-34.6762
-139.982
36.9263
-134.43
92.0404
-82.4304
-90.5673
-37.9471
-33.7416
-39.5637
-34.5759
-35.5127
-35.0196
-127.545
40.3914
-130.74
111.814
-82.8486
-82.2152
-32.1527
-31.2885
-36.1717
-31.7551
-34.6672
-33.8869
-29.2046
-30.3925
-31.5751
-31.2625
-30.355
-31.5046
-35.0081
-33.1728
-36.0587
-32.9363
-28.9997
-34.0165
-30.0164
-35.8626
-37.1055
-33.7569
-31.1915
-20.7079
-35.145
-41.7078
-45.9966
-61.078
-1.61283
-47.417
-43.1529
-48.1157
-40.5032
-41.8499
-40.9216
-43.1224
-48.273
-51.4151
-28.8146
-29.082
-34.589
-33.5688
-31.6485
-31.3593
-30.3445
-31.5667
-35.1065
-32.12
-36.0934
-33.2547
-30.891
-36.0559
-29.0929
-35.3343
-31.1544
-20.687
-1.92836
-46.0625
-35.1394
-41.7368
-46.0248
-61.072
-42.99
-48.0998
-48.2787
-51.4501
-40.4925
-41.7166
-40.9505
-43.1528
-135.267
135.938
-138.206
129.442
-85.5279
-89.6347
161.178
157
-129.811
39.795
-130.522
29.6843
-102.526
-101.87
108.054
107.761
-44.2381
-50.2741
-37.2671
-36.8481
-40.7407
-37.3577
-48.2942
-40.0784
-40.2966
-32.3882
-39.233
-32.2852
-36.9799
-36.8622
-32.4604
-32.4947
-32.9167
-30.3936
-31.718
-28.5647
-33.4924
-34.0074
-27.439
-26.0163
-34.7793
-36.6386
-36.9025
-35.0562
-40.6353
-35.8187
-35.9749
-36.7003
-116.415
12.0922
-116.43
12.2953
-84.2721
-84.2315
112.118
112.579
-39.8777
-35.8606
-30.7844
-17.6744
-33.7455
-39.0375
-28.9554
-19.5124
-33.2148
-30.0573
-33.1017
-28.6645
-34.2249
-34.2117
-25.8952
-27.0514
-37.2703
-38.6257
-41.4773
-42.8602
-37.3617
-39.2321
-41.326
-39.0991
-135.222
136.167
-138.156
129.619
-85.4916
-89.6122
157.176
161.465
-44.2927
-50.5219
-37.3236
-36.967
-40.8215
-37.3888
-48.4822
-40.4671
-39.0508
-30.9966
-37.9861
-30.8398
-35.8829
-36.0149
-31.0378
-31.0394
-34.1875
-35.8788
-35.0799
-34.2399
-39.8187
-35.3986
-35.0696
-35.9325
-39.8431
-35.825
-30.7323
-17.6045
-39.0085
-33.72
-19.4497
-28.9175
-37.0258
-38.5867
-41.331
-42.9138
-39.0156
-37.1276
-39.1479
-41.3979
-33.3381
-31.6947
-33.5397
-32.4932
-33.9681
-34.0584
-32.1463
-32.6333
-31.2664
-33.2324
-32.7337
-36.0353
-30.6464
-31.1445
-34.7222
-36.1863
-35.8542
-34.0212
-35.8467
-34.0538
-36.4558
-36.4901
-32.867
-32.8749
-32.9191
-37.6712
-37.3862
-39.0822
-34.7527
-36.2103
-38.7242
-39.2492
-33.6176
-33.0363
-33.5157
-32.9622
-34.0674
-34.1026
-33.3154
-33.2652
-46.5061
-54.6588
-42.9783
-47.4175
-42.468
-44.2206
-59.305
-53.4732
25.3774
42.6353
24.9296
42.8869
20.7156
20.8948
29.8122
29.8818
-57.9049
-53.0319
-57.9391
-53.0898
-59.6315
-59.6444
-48.8213
-48.8428
-33.4448
-31.8573
-33.7284
-32.6976
-34.0761
-34.2039
-32.2703
-32.7575
-31.2252
-33.2577
-32.7065
-36.0541
-31.0797
-30.5657
-34.7558
-36.2171
-33.0832
-37.5143
-37.4096
-38.7781
-36.3248
-34.938
-37.8356
-38.5912
-46.5448
-54.6811
-43.05
-47.4443
-44.2705
-42.534
-53.5009
-59.3417
-46.6096
-46.5762
-42.0972
-37.3829
-36.667
-42.2298
-36.6194
-35.953
-46.6021
-46.5656
-42.1003
-37.3736
-42.21
-36.6517
-35.9262
-36.5925
-56.3155
-56.3787
-50.4084
-42.5586
-50.49
-42.6407
-39.9609
-39.9437
-30.5621
-30.5463
-23.3606
-11.1692
-11.1463
-23.3351
-4.4201
-4.40718
191.717
190.816
198.564
198.566