# vtk DataFile Version 2.0
tet_velo
ASCII
DATASET UNSTRUCTURED_GRID
POINTS 29498 float
-0.735 0.205 -2.13073
-0.715 0.285 2.20967
-0.765 0.749078 -2.045
-0.735 0.946662 2.165
0.735 0.205 -2.13295
0.715 0.285 2.20967
0.745 0.751624 -2.065
0.735 0.946662 2.165
-0.802553 0.157447 -0.68393
-0.815795 0.164205 0.76287
-0.827907 0.887846 -0.641667
-0.811961 0.947762 0.761667
0.802573 0.157427 -0.68541
0.815829 0.164171 0.76213
0.820334 0.895304 -0.655
0.806435 0.949751 0.755
-1.53413 -0.189392 -3.28481
-1.53642 -0.157147 -2.14289
-1.58488 -0.189321 -0.695556
-1.59641 -0.191531 0.759332
-1.53843 -0.109301 2.20728
-1.51798 -0.0536044 3.35224
-1.51985 -0.0138448 4.49136
-1.53505 0.137249 -3.2601
-1.53656 0.189949 -2.1222
-1.59726 0.173726 -0.683224
-1.59857 0.173118 0.758642
-1.51116 0.250163 2.19832
-1.49864 0.304026 3.34286
-1.50956 0.343513 4.48346
-1.55172 0.749615 -3.19712
-1.56037 0.800028 -2.0549
-1.61669 0.891882 -0.645092
-1.60124 0.931929 0.760374
-1.52196 0.949799 2.17056
-1.50487 1.00143 3.31656
-1.51231 1.04903 4.4637
-1.57848 1.76411 -3.13743
-1.58551 1.82938 -2.00342
-1.60446 1.93697 -0.604873
-1.60709 2.01624 0.783466
-1.58484 2.05516 2.18137
-1.56479 2.08529 3.31405
-1.55295 2.12235 4.45588
-0.754848 -0.181475 -3.29104
-0.743293 -0.146281 -2.14961
-0.786259 -0.197079 -0.697318
-0.810889 -0.197805 0.763098
-0.769424 -0.0908413 2.21546
-0.750614 -0.0400833 3.35749
-0.750448 -0.00633835 4.49385
-0.757323 0.139297 -3.26557
-0.729991 0.318075 3.34709
-0.740768 0.350729 4.48511
-0.772474 0.730308 -3.19763
-0.735039 1.00441 3.31473
-0.742225 1.05226 4.46238
-0.79008 1.75167 -3.13717
-0.791048 1.81794 -2.00241
-0.806595 1.93633 -0.60534
-0.816435 2.0218 0.780323
-0.804954 2.05794 2.17662
-0.788127 2.08638 3.30956
-0.776452 2.12339 4.45221
0.771032 -0.180223 -3.29663
0.776169 -0.145729 -2.15271
0.807769 -0.196711 -0.69945
0.793658 -0.197611 0.761814
0.72979 -0.0907021 2.21482
0.753097 -0.0397963 3.35648
0.773659 -0.00584575 4.49225
0.756662 0.140625 -3.27255
0.755889 0.318285 3.34637
0.776786 0.351188 4.48363
0.754546 0.732629 -3.21019
0.762235 1.00471 3.31376
0.779088 1.05281 4.46068
0.778105 1.75474 -3.14778
0.788757 1.82143 -2.01327
0.791981 1.93987 -0.614396
0.774465 2.02419 0.774112
0.758226 2.05934 2.17265
0.762407 2.08747 3.30639
0.772387 2.12442 4.44921
1.5444 -0.186287 -3.29689
1.55259 -0.154584 -2.15212
1.59642 -0.187261 -0.702348
1.59026 -0.19048 0.755181
1.52388 -0.108691 2.20491
1.52452 -0.0528117 3.34954
1.54284 -0.0127229 4.48775
1.52951 0.140705 -3.27462
1.53087 0.193214 -2.13383
1.59557 0.176753 -0.691677
1.60134 0.174254 0.754145
1.51887 0.250575 2.19662
1.52192 0.3047 3.34057
1.54302 0.344585 4.48004
1.53018 0.754598 -3.21883
1.53867 0.806267 -2.07926
1.60558 0.900078 -0.663192
1.59848 0.935161 0.750775
1.52921 0.950695 2.16754
1.52887 1.00236 3.31363
1.54611 1.05029 4.45981
1.56198 1.77009 -3.15744
1.57554 1.836 -2.02355
1.58645 1.94349 -0.621846
1.57107 2.02084 0.771417
1.54731 2.05804 2.17326
1.54378 2.08758 3.30743
1.55019 2.12449 4.44965
-0.767963 0.477039 -2.10583
0 0.191508 -2.14533
-0.783615 0.166385 -1.40733
-0.777372 0.615831 2.23971
0 0.287545 2.20712
-0.788405 0.201595 1.48627
-0.00999999 0.830084 -2.13473
-0.829525 0.851533 -1.34333
0 1.01235 2.23069
-0.797914 0.971645 1.46333
0.760037 0.478312 -2.11901
0.783332 0.166668 -1.40918
0.77732 0.615831 2.23966
0.788419 0.201581 1.4859
0.823078 0.863875 -1.36
0.795328 0.972817 1.46
-0.80739 0.16261 0.0394701
-0.817236 0.522646 -0.662798
9.89924e-06 0.141342 -0.68467
-0.871304 0.555984 0.762268
1.73224e-05 0.150398 0.7625
-0.813158 0.911028 0.0599999
-0.00378661 1.19909 -0.648334
-0.00276308 1.3543 0.758333
0.807369 0.162631 0.03836
0.816403 0.526365 -0.670205
0.87111 0.556961 0.758565
0.805207 0.91435 0.05
-0.858591 0.499843 -1.37533
-0.841342 0.539315 0.049735
-0.882481 0.585907 1.4748
4.94962e-06 0.157153 -1.40826
1.36108e-05 0.144232 0.038915
8.66118e-06 0.18545 1.48609
-0.005 0.477675 -2.35998
0 0.615831 2.36796
-0.0068933 0.953727 -1.35167
-0.00327485 1.37958 0.0549999
-0.00138154 1.15015 1.46167
0.855921 0.502339 -1.38459
0.841453 0.541663 0.04418
0.882521 0.586396 1.47295
-1.13578 0.197475 -2.12646
-0.739146 0.0293593 -2.14017
-0.746161 0.172149 -2.69815
-1.11308 0.267582 2.20399
-0.742212 0.0970793 2.21257
-0.722496 0.301537 2.77838
-1.16268 0.774553 -2.04995
-0.768737 0.739693 -2.62131
-0.778024 1.28351 -2.02371
-1.12848 0.94823 2.16778
-0.73502 0.975534 2.73987
-0.769977 1.5023 2.17081
0.755584 0.0296353 -2.14283
0.745831 0.172812 -2.70275
1.13293 0.199107 -2.13339
0.722395 0.097149 2.21225
0.735444 0.301643 2.77802
1.11694 0.267787 2.20314
0.749773 0.742126 -2.6376
0.766878 1.28653 -2.03913
1.14183 0.778945 -2.07213
0.748617 0.975686 2.73938
0.746613 1.503 2.16883
1.13211 0.948679 2.16627
-1.19991 0.165586 -0.683577
-0.794406 -0.019816 -0.690624
-1.20718 0.168662 0.760756
-0.813342 -0.0167997 0.762984
-1.2223 0.889864 -0.64338
-0.817251 1.41209 -0.623504
-1.2066 0.939845 0.761021
-0.814198 1.48478 0.770995
0.805171 -0.0196421 -0.69243
1.19907 0.16709 -0.688544
0.804744 -0.0167203 0.761972
1.20859 0.169212 0.758138
0.806157 1.41759 -0.634698
1.21296 0.897691 -0.659096
0.79045 1.48697 0.764556
1.20246 0.942456 0.752887
-1.53527 -0.17327 -2.71385
-1.53459 -0.0260716 -3.27246
-1.14449 -0.185433 -3.28792
-1.56065 -0.173234 -1.41922
-1.53649 0.0164011 -2.13254
-1.13986 -0.151714 -2.14625
-1.59064 -0.190426 0.0318881
-1.59107 -0.00779748 -0.68939
-1.18557 -0.1932 -0.696437
-1.56742 -0.150416 1.48331
-1.59749 -0.00920651 0.758987
-1.20365 -0.194668 0.761215
-1.5282 -0.0814529 2.77976
-1.52479 0.070431 2.2028
-1.15392 -0.100071 2.21137
-1.51891 -0.0337246 3.9218
-1.50831 0.125211 3.34755
-1.1343 -0.0468439 3.35486
-1.51471 0.164834 4.48741
-1.13515 -0.0100916 4.4926
-1.53581 0.163599 -2.69115
-1.54339 0.443432 -3.22861
-1.14619 0.138273 -3.26284
-1.56691 0.181837 -1.40271
-1.54846 0.494988 -2.08855
-1.59792 0.173422 0.0377086
-1.60698 0.532804 -0.664158
-1.55487 0.211641 1.47848
-1.59991 0.552523 0.759508
-1.5049 0.277095 2.77059
-1.51656 0.599981 2.18444
-1.5041 0.32377 3.91316
-1.50175 0.652729 3.32971
-1.11431 0.31105 3.34498
-1.51094 0.69627 4.47358
-1.12517 0.347121 4.48428
-1.55605 0.774821 -2.62601
-1.5651 1.25686 -3.16728
-1.1621 0.739961 -3.19738
-1.58853 0.845955 -1.35
-1.57294 1.31471 -2.02916
-1.60896 0.911905 0.0576409
-1.61058 1.41443 -0.624983
-1.5616 0.940864 1.46547
-1.60417 1.47408 0.77192
-1.51341 0.975616 2.74356
-1.5534 1.50248 2.17597
-1.50859 1.02523 3.89013
-1.53483 1.54336 3.31531
-1.11995 1.00292 3.31565
-1.53263 1.58569 4.45979
-1.12727 1.05064 4.46304
-1.58199 1.79674 -2.57043
-1.18428 1.75789 -3.1373
-1.59498 1.88318 -1.30415
-1.18828 1.82366 -2.00292
-1.60578 1.9766 0.0892963
-1.20553 1.93665 -0.605107
-1.59597 2.0357 1.48242
-1.21176 2.01902 0.781895
-1.57481 2.07022 2.74771
-1.1949 2.05655 2.17899
-1.55887 2.10382 3.88496
-1.17646 2.08583 3.3118
-1.1647 2.12287 4.45404
-0.74907 -0.163878 -2.72032
-0.756085 -0.0210887 -3.2783
0.0080919 -0.180849 -3.29383
-0.764776 -0.17168 -1.42346
0.0164381 -0.146005 -2.15116
-0.798574 -0.197442 0.0328898
0.0107552 -0.196895 -0.698384
-0.790156 -0.144323 1.48928
-0.00861527 -0.197708 0.762456
-0.760019 -0.0654623 2.78647
-0.0198169 -0.0907717 2.21514
-0.750531 -0.0232108 3.92567
-0.740302 0.138996 3.35229
0.00124152 -0.0399398 3.35698
-0.745608 0.172195 4.48948
0.0116055 -0.00609205 4.49305
-0.764898 0.434802 -3.2316
-0.000330308 0.139961 -3.26906
-0.73538 0.334402 3.9161
-0.732515 0.661241 3.33091
0.012949 0.31818 3.34673
-0.741497 0.701495 4.47374
0.0180092 0.350958 4.48437
-0.781277 1.24099 -3.1674
-0.00896417 0.731468 -3.20391
-0.738632 1.02833 3.88856
-0.761583 1.54539 3.31214
0.0135978 1.00456 3.31425
-0.759339 1.58783 4.4573
0.0184313 1.05254 4.46153
-0.790564 1.78481 -2.56979
-0.00598748 1.7532 -3.14248
-0.798822 1.87714 -1.30388
-0.00114577 1.81969 -2.00784
-0.811515 1.97907 0.0874915
-0.00730687 1.9381 -0.609868
-0.810694 2.03987 1.47847
-0.0209848 2.023 0.777218
-0.79654 2.07216 2.74309
-0.0233637 2.05864 2.17464
-0.78229 2.10488 3.88089
-0.0128603 2.08692 3.30797
-0.0020327 2.1239 4.45071
0.7736 -0.162976 -2.72467
0.763847 -0.019799 -3.28459
1.15771 -0.183255 -3.29676
0.791969 -0.17122 -1.42608
1.16438 -0.150157 -2.15242
0.800714 -0.197161 0.0311822
1.2021 -0.191986 -0.700899
0.761724 -0.144157 1.48832
1.19196 -0.194045 0.758498
0.741443 -0.0652492 2.78565
1.12683 -0.0996963 2.20987
0.763378 -0.022821 3.92436
0.754493 0.139244 3.35142
1.13881 -0.046304 3.35301
0.775223 0.172671 4.48794
1.15825 -0.00928431 4.49
0.755604 0.436627 -3.24137
1.14308 0.140665 -3.27358
0.766338 0.334736 3.915
0.759062 0.661498 3.33007
1.1389 0.311493 3.34347
0.777937 0.701999 4.47215
1.1599 0.347886 4.48183
0.766326 1.24368 -3.17899
1.14237 0.743613 -3.21451
0.770661 1.02876 3.88722
0.762321 1.54609 3.31008
1.14555 1.00353 3.3137
0.775737 1.58861 4.45494
1.1626 1.05155 4.46024
0.783431 1.78808 -2.58052
1.17004 1.76241 -3.15261
0.790369 1.88065 -1.31383
1.18215 1.82871 -2.01841
0.783223 1.98203 0.0798577
1.18922 1.94168 -0.618121
0.766346 2.04177 1.47338
1.17277 2.02251 0.772765
0.760316 2.0734 2.73952
1.15277 2.05869 2.17296
0.767397 2.10594 3.8778
1.15309 2.08753 3.30691
1.16129 2.12445 4.44943
1.54849 -0.170435 -2.7245
1.53695 -0.0227912 -3.28575
1.57451 -0.170922 -1.42723
1.54173 0.0193153 -2.14298
1.59334 -0.18887 0.0264164
1.596 -0.00525373 -0.697013
1.55707 -0.149585 1.48004
1.5958 -0.00811294 0.754663
1.5242 -0.0807512 2.77722
1.52137 0.070942 2.20076
1.53368 -0.0327673 3.91864
1.52322 0.125944 3.34505
1.54293 0.165931 4.4839
1.53019 0.16696 -2.70422
1.52985 0.447651 -3.24672
1.56322 0.184984 -1.41275
1.53477 0.499741 -2.10654
1.59846 0.175504 0.0312338
1.60058 0.538416 -0.677435
1.56011 0.212414 1.47538
1.59991 0.554707 0.75246
1.52039 0.277637 2.76859
1.52404 0.600635 2.18208
1.53247 0.324643 3.9103
1.52539 0.653528 3.3271
1.54456 0.697436 4.46992
1.53443 0.780432 -2.64904
1.54608 1.26234 -3.18813
1.57213 0.853172 -1.37122
1.5571 1.32113 -2.0514
1.60203 0.91762 0.0437912
[...]
POINT_DATA 29498
VECTORS point_vectors float
-7.82261 -7.96875 11.5269
-0.0138416 0.142976 0.322811
-4.19411 3.35352 8.68677
0.118168 -0.128446 0.874651
8.04988 -8.12902 11.7925
0.0116946 0.144517 0.323594
2.77899 2.53926 6.17484
-0.115456 -0.128985 0.865745
-0.000732831 0.0131581 0.5938
0.0147181 -0.0496403 1.66472
-0.00130339 -0.000567438 0.171552
0 0 0
0.000816799 0.013323 0.599585
-0.0496012 -0.0508828 1.76177
0.0233768 -0.017367 0.204818
0 0 0
-0.576162 -0.25929 19.8452
-1.2176 -0.650045 20.5263
-0.429989 -0.320782 21.313
0.00368312 -0.0568618 21.5
0.508325 0.263932 21.3967
0.760079 0.338746 21.1887
0.746366 0.0708514 20.8126
-0.703715 -0.181285 19.7457
-1.66255 -0.514102 20.477
-0.573112 -0.360363 21.3798
-0.0464822 -0.116993 21.5592
0.718453 0.168394 21.4839
0.99599 0.220361 21.2229
0.978852 0.0298119 21.2013
-0.768978 0.107307 19.6984
-1.80647 0.209106 20.4655
-0.994403 -0.199663 21.3819
-0.181643 -0.152701 21.6746
0.69408 -0.229789 21.5058
1.04769 -0.314222 21.1588
0.778616 -0.248984 21.0269
-0.483032 0.350799 19.9861
-0.829987 0.576605 20.4285
-0.734914 0.393981 21.1291
-0.187675 0.023002 21.4966
0.240862 -0.287155 21.3578
0.364133 -0.351221 21.1648
0.35237 -0.347738 20.7547
-0.587437 -0.590652 19.2671
-1.89798 -3.30425 20.686
-0.400501 -0.384144 21.6859
-0.0326969 0.0380832 21.0578
0.357128 1.0761 18.8048
0.668604 1.38908 17.4594
0.77997 0.734705 17.2354
-0.738072 -0.43076 18.9489
1.14395 1.74447 10.2751
1.35745 0.607485 10.9661
-0.95392 0.27155 18.6791
1.81343 -0.39998 11.293
1.24689 -0.430021 16.0331
-0.436055 0.694913 19.6659
-0.866799 1.42649 20.2147
-1.04745 1.37012 21.3033
-0.173231 0.14899 21.8933
0.240475 -0.54153 21.4411
0.310067 -0.640713 21.0983
0.222975 -0.53407 20.5408
0.59301 -0.560773 19.301
1.94718 -3.1439 20.6477
0.399433 -0.376975 21.6948
0.0350913 0.0379789 20.9096
-0.28104 1.0837 18.2873
-0.652339 1.41111 17.5317
-0.783688 0.753885 17.6024
0.73182 -0.420256 18.9485
-1.21454 1.71133 11.1408
-1.33639 0.591368 11.6235
0.916731 0.265571 18.6581
-1.89073 -0.3748 12.108
-1.25033 -0.437981 16.5769
0.426249 0.694892 19.6605
0.860247 1.42256 20.2073
1.03182 1.39299 21.2908
0.163195 0.160745 21.9219
-0.234051 -0.550829 21.4401
-0.29492 -0.654937 21.1048
-0.219975 -0.529976 20.5359
0.57253 -0.250043 19.8404
1.19523 -0.645625 20.5298
0.439711 -0.327283 21.3001
-0.0097232 -0.0603656 21.5021
-0.510906 0.264725 21.401
-0.759918 0.339544 21.1941
-0.733028 0.0619507 20.7724
0.6968 -0.178528 19.7446
1.67563 -0.503876 20.464
0.581205 -0.365442 21.3849
0.0428693 -0.118144 21.5625
-0.714125 0.163539 21.4955
-0.957385 0.203942 21.1825
-0.980239 0.0029092 21.158
0.755119 0.116699 19.6842
1.83903 0.223673 20.423
1.01791 -0.19173 21.3877
0.186403 -0.156411 21.682
-0.686775 -0.223712 21.5032
-1.02769 -0.312165 21.1183
-0.735499 -0.248284 21.0463
0.474191 0.352207 19.9794
0.826868 0.582726 20.4137
0.746101 0.414533 21.122
0.19712 0.0282824 21.4941
-0.246729 -0.296433 21.3367
-0.365918 -0.34365 21.1817
-0.353872 -0.362858 20.7635
-0.811609 -0.0341391 0.945928
-7.85081e-05 -0.0731996 0.355675
-0.00996535 -0.0033253 0.541053
0.0396255 0.0142954 0.150045
-0.000152073 0.000489733 0.00650932
-0.0138629 0.0446008 0.738437
-0.00407575 0.21107 0.658549
-0.540169 -0.238743 1.63487
0.000433167 0.0338507 -0.0472908
0.0383233 0.013487 0.145122
1.46316 -0.112505 1.77542
0.00977856 -0.00169915 0.555709
-0.0390452 0.0130373 0.147383
0.0184619 0.0464339 0.774584
0.609071 -0.36287 2.08801
-0.0307045 0.0113302 0.115505
0.00547931 0.00794422 1.34249
0 0 0
-1.9374e-05 2.52808e-05 0.0143844
0 0 0
0 0 0
0.00121256 0.00153059 0.00680195
0.000173097 0.0283596 0.060695
-3.23532e-05 -0.00169851 0.0156458
-0.0060451 0.0061475 1.32151
0 0 0
0 0 0
0 0 0
-0.00125353 -0.00452894 0.0569829
-0.00167513 0.00748101 0.0456821
0.00304603 0.00865183 0.0807834
0 0 0
-1.4763e-07 5.30639e-08 4.16951e-05
0 0 0
-0.00170964 -1.03889 0.317765
0.00349357 0.811142 -0.35384
-0.00105018 0.00392336 0.0401138
-3.66724e-05 0.00498148 0.0760786
1.28993e-05 0.000208235 -0.000486249
0 0 0
0.00111607 0.00488182 0.0311136
-0.00308571 0.00838657 0.0806718
-3.35565 -1.5413 20.4369
-3.28652 -5.62701 20.7734
-2.13487 -1.57118 17.7845
1.1065 0.63136 18.839
0.201768 1.21219 11.1951
0.00206755 1.12672 6.30149
-3.57904 0.784934 20.3913
-2.82193 1.3034 17.2684
-1.9992 2.49427 20.0484
1.23368 -0.181097 19.4861
0.789322 -0.0125238 6.9113
0.644554 -0.826933 20.3636
3.37106 -5.36671 20.7526
2.11864 -1.55701 17.7922
3.35332 -1.53611 20.424
-0.150973 1.18181 10.5994
-0.0999566 1.16268 6.7197
-1.11375 0.612306 18.9275
2.74976 1.28859 17.2081
1.98081 2.52875 20.0097
3.67138 0.867637 20.2853
-0.852089 -0.0115959 7.3524
-0.673211 -0.838934 20.0915
-1.2278 -0.194892 19.5524
-0.439891 -0.600292 21.6531
-0.191792 -0.0495776 17.6009
-0.0234529 -0.183862 21.1103
0.140731 0.0405332 16.4452
-1.56813 -0.743555 21.5933
-2.96399 1.8532 21.4616
-0.211585 -0.251853 20.9932
-0.309958 0.119238 21.8212
0.195692 -0.0585848 17.8224
0.449635 -0.603624 21.658
-0.157903 0.0637007 16.2657
0.0303583 -0.191 21.1319
2.94083 1.93012 21.4435
1.60183 -0.746823 21.6085
0.228791 0.187362 21.4559
0.206672 -0.262642 20.9372
-0.972266 -0.474384 20.0146
-0.663504 -0.229261 19.8199
-0.637108 -0.407897 19.5721
-0.850109 -0.51203 21.1387
-1.42991 -0.617033 20.509
-1.75093 -1.49867 20.5381
-0.184594 -0.170855 21.421
-0.514687 -0.355373 21.3443
-0.373234 -0.411057 21.5172
0.266129 0.121977 21.5409
-0.0265676 -0.0983621 21.524
0.016834 -0.0668764 21.5941
0.6437 0.335577 21.2489
0.60634 0.227492 21.4107
0.661288 0.598198 21.4003
0.684575 0.323494 20.6207
0.884157 0.276158 21.1953
0.990748 0.852124 20.853
0.862609 0.0503316 21.007
0.783826 0.720368 21.2297
-1.25106 -0.36505 19.8646
-0.763602 -0.041952 19.6988
-0.807825 -0.340041 19.4074
-1.11793 -0.493144 21.2303
-1.84131 -0.169194 20.491
-0.280915 -0.247634 21.4538
-0.771494 -0.341995 21.3833
0.311734 0.0282728 21.6406
-0.111274 -0.158801 21.653
0.907388 0.186232 21.3697
0.769277 -0.0467259 21.5348
0.971647 0.144297 20.797
1.09165 -0.0732265 21.2618
1.33474 0.719868 18.3509
1.00037 -0.175183 21.2338
1.14682 0.372709 17.4138
-1.3621 0.210513 19.8439
-0.661784 0.305156 19.8231
-0.944101 0.183702 19.2607
-1.40774 -0.0258276 21.1213
-1.27391 0.572598 20.4003
-0.599982 -0.200439 21.5721
-1.02725 0.21819 21.2627
0.289768 -0.157283 21.7
-0.229135 -0.0341623 21.6171
0.878749 -0.28794 21.2348
0.423093 -0.335004 21.38
0.828846 -0.33846 20.9055
0.610934 -0.394081 21.0017
1.47854 -0.479754 20.1087
0.493906 -0.382872 20.9056
1.23358 -0.432723 19.927
-0.68466 0.492887 20.1377
-0.527128 0.515876 19.8138
-0.845254 0.523658 20.8063
-0.937884 0.944388 20.3322
-0.489894 0.216391 21.4084
-0.975396 0.753586 21.2429
0.0767997 -0.160847 21.4312
-0.219348 0.069319 21.6586
0.346349 -0.35687 21.2048
0.232208 -0.407309 21.4076
0.421297 -0.386789 20.8229
0.361761 -0.539714 21.0597
0.306407 -0.447231 20.8537
-1.26831 -1.65301 19.0224
-0.662754 -0.510706 19.108
0.00481613 -0.812277 18.919
-0.828697 -1.15427 22.0221
0.0308482 -4.53326 21.3333
-0.17842 -0.128986 21.1454
0.00558439 -0.699065 21.2751
0.167367 0.504542 19.9617
-0.000449712 -0.119385 19.1386
0.425854 1.22019 18.4732
-0.0155709 0.551075 15.0985
0.448917 1.33691 18.7066
0.880805 1.71462 13.9994
0.0176428 0.902141 13.88
1.08721 0.717875 14.0577
0.0034532 1.15859 13.2438
-0.930596 -0.101732 18.705
-0.00108333 -0.676076 18.428
1.55024 1.2313 10.8684
1.92653 0.620037 7.40602
0.0229617 0.0826104 -2.02325
1.58471 0.129738 10.8032
-0.0529615 0.827551 7.28868
-0.728466 0.731755 19.1788
-0.0131497 0.437466 17.9218
1.59943 -0.750271 12.9903
0.898643 -1.01067 19.6041
-0.0561075 -0.93455 1.04974
0.528861 -0.927978 20.182
-0.0181091 -2.16106 6.06477
-0.689153 1.1394 19.7971
-0.00358088 0.897269 19.4274
-1.01788 1.44158 20.6767
-0.00243675 2.00763 20.0671
-0.66532 0.796923 21.853
-0.0153013 2.36912 21.2636
0.116873 -0.308198 21.7054
-0.00952758 0.26305 22.1198
0.288113 -0.621162 21.2818
0.00697512 -0.658023 21.5616
0.259993 -0.673583 20.8815
0.00454868 -0.869872 21.0648
0.000516286 -0.841072 20.8787
1.27907 -1.57487 19.0813
0.663536 -0.489649 19.1252
0.640942 -0.39839 19.5832
0.844854 -1.12683 21.9747
1.74787 -1.44304 20.5116
0.179677 -0.126217 21.1531
0.38943 -0.417415 21.513
-0.141495 0.489717 19.8255
-0.0103093 -0.0676865 21.5992
-0.401372 1.21689 18.3462
-0.669814 0.650224 21.2445
-0.470083 1.30557 18.8477
-0.894139 1.70435 14.1877
-1.00013 0.841959 20.84
-1.08343 0.741118 14.5488
-0.774261 0.669447 21.2209
0.89525 -0.099261 18.6994
0.800401 -0.335434 19.406
-1.5063 1.20679 11.8901
-2.05363 0.623198 8.40873
-1.33756 0.6365 18.8202
-1.56573 0.116657 11.4619
-1.13733 0.351435 18.016
0.712224 0.728511 19.1642
0.917746 0.186217 19.2482
-1.57862 -0.721059 13.7399
-0.880606 -1.01288 19.5817
-1.41263 -0.479344 20.305
-0.520323 -0.911567 20.1925
-1.20338 -0.412812 20.0114
0.678821 1.13501 19.7911
0.516693 0.509838 19.8065
1.00413 1.44859 20.6711
0.92582 0.943616 20.3235
0.658508 0.836727 21.8633
0.980958 0.775153 21.2369
-0.12464 -0.314994 21.7229
0.227295 0.0856759 21.6689
-0.277549 -0.631879 21.2885
-0.24126 -0.418331 21.4178
-0.256162 -0.680357 20.9043
-0.368698 -0.544724 21.0518
-0.299969 -0.448974 20.8632
0.947157 -0.452077 20.0174
0.656925 -0.22169 19.8169
0.859348 -0.510785 21.126
1.40674 -0.617125 20.5026
0.205848 -0.179878 21.4091
0.526531 -0.360176 21.3405
-0.268006 0.115774 21.5343
0.0211217 -0.10265 21.5306
-0.651771 0.340437 21.2554
-0.603341 0.229373 21.4205
-0.685085 0.288272 20.6353
-0.856212 0.271377 21.1695
-0.856633 0.0324299 20.9652
1.21679 -0.336694 19.8678
0.76131 -0.0490049 19.6952
1.13236 -0.488383 21.2305
1.85658 -0.168134 20.454
0.284632 -0.250135 21.4508
0.784402 -0.346653 21.395
-0.313256 0.0239396 21.6375
0.10946 -0.160525 21.6586
-0.899567 0.182462 21.3865
-0.760031 -0.0410245 21.5506
-0.91175 0.125439 20.9491
-1.07323 -0.0679286 21.2203
-0.967616 -0.168698 21.2826
1.37331 0.220061 19.8102
0.651003 0.306262 19.8123
1.43607 -0.0138041 21.1173
1.28306 0.587175 20.3803
0.613013 -0.20359 21.572
1.05214 0.230158 21.2592
-0.2867 -0.164144 21.6976
0.241751 -0.0346938 21.6335
-0.860746 -0.279891 21.2423
-0.441038 -0.351702 21.385
-0.798786 -0.33111 20.8768
-0.626355 -0.397248 21.0603
-0.493019 -0.394568 20.8869
0.678172 0.492279 20.1323
0.845131 0.534093 20.7958
0.509994 0.224594 21.4195
-0.0779467 -0.155896 21.4594
-0.342623 -0.346856 21.221
-0.425051 -0.413776 20.8377
-1.10953 -0.45808 19.9624
-1.70882 -1.75918 18.4908
-1.23207 -0.922541 19.6206
-1.77762 -0.747894 19.2076
-0.73597 -0.382914 19.491
-2.47614 -1.668 20.5161
-0.995424 -0.514892 21.1801
-0.69455 -0.676299 19.4874
-0.921546 -0.882439 21.4944
-1.34506 -0.996437 21.8411
-0.382932 -0.484487 21.5918
-0.23571 -0.225199 21.425
0.0242855 0.025754 16.6102
-0.150445 -0.221423 21.509
-0.170016 -0.372281 21.2652
0.0351262 -0.115811 21.5203
0.270626 0.082118 21.5835
0.131473 0.539673 13.6611
0.325558 0.25887 21.6275
0.480662 0.221216 20.1439
0.91812 0.659387 20.6528
0.771518 0.288556 21.2726
0.301454 1.26126 12.6068
0.802343 0.774563 20.8978
1.28381 0.707836 19.0258
1.14613 0.803938 20.5694
0.839367 0.257214 20.7207
0.770631 1.32726 14.4774
0.914523 0.719311 20.9916
1.51457 0.638493 19.6451
0.932211 0.624106 20.3797
-1.38911 -0.0947581 19.8134
-2.93372 -0.339823 16.9009
-2.09255 0.491472 19.0753
-0.948136 -0.0671118 19.2485
-4.10432 -0.39241 20.411
-1.33366 -0.298632 21.2113
-2.15101 -0.162691 21.5042
-0.735646 -0.768379 21.2685
-0.415455 -0.280119 21.51
-0.825498 -0.627084 21.4555
-0.1277 -0.14278 20.4574
0.326503 -0.0554634 21.7227
0.595465 -0.00862289 20.179
1.23789 0.313875 18.1398
0.969985 -0.0575631 21.3499
0.27187 0.730467 3.41807
1.37601 -0.342298 19.8572
1.67661 0.208914 17.9691
0.981299 -0.0998011 21.0805
1.88025 0.37654 8.95319
1.4846 -0.484421 20.1631
1.37904 -0.106731 17.1637
-1.02368 0.497025 19.9896
-1.39048 1.64545 19.0942
-0.761927 0.793711 19.9953
-0.745779 0.485441 19.5142
-1.76959 1.25281 20.2698
-1.22831 0.399194 20.9057
-2.18039 1.86907 20.6622
-1.02204 0.897422 20.7838
-1.72963 0.529067 21.4274
-0.659781 0.0894319 21.5367
-1.78587 0.771888 22.1678
-0.63675 0.42239 21.6051
-0.323404 -0.0150411 21.9606
0.165903 -0.195215 21.586
0.467723 -0.53423 20.9887
0.0673556 -0.218464 21.5741
0.543557 -0.57509 21.5447
0.567942 -0.414488 21.2695
0.680701 -1.00387 20.715
0.321377 -0.491003 21.2317
0.667944 -0.781465 21.2725
0.575305 -0.526125 20.9702
0.606187 -1.12218 20.0527
0.273824 -0.426582 20.9192
0.501946 -0.620821 20.537
1.71357 -1.71539 18.5399
0.0278848 -2.62474 18.3181
-0.0027801 -2.98191 15.6919
0.000426916 -0.858344 18.5974
0.00120098 -6.43014 23.1795
0.698073 -0.698163 19.6755
0.0174024 -1.58535 22.1978
-0.00373737 -0.270033 13.261
-0.0255628 0.0243673 16.6228
-0.00210574 -0.350141 19.8642
0.0200828 0.0193109 11.1367
-0.0909312 0.498945 13.3199
-0.00300216 0.292503 17.1635
-0.0275663 0.324947 5.94878
-0.296306 1.26991 12.5478
-0.00550973 0.314432 14.1943
0.0178639 -1.32128 -2.82508
0.0204194 0.879161 5.40964
-0.82541 1.2792 14.7079
0.0191071 1.42615 13.8537
0.0290977 -1.06916 -0.921138
-0.0394347 1.00125 10.261
2.87709 -0.345108 16.8892
-0.0732845 3.03741 14.0156
-0.00715572 -0.150565 17.8594
-0.332045 0.724649 3.68021
0.00554255 0.0329093 0.430384
-0.05229 -1.23317 -4.29028
-1.84283 0.32897 10.0131
-0.0650728 -2.41799 3.7045
-0.0572214 -0.640474 4.5857
1.36083 1.64471 19.0681
-0.00345754 1.55312 19.5459
-0.0076158 1.03181 18.7231
-0.0193168 3.81823 19.8149
2.14536 1.9026 20.6515
-0.00757858 2.14959 20.4867
-0.0257962 5.12873 20.4462
1.84086 0.871119 22.1986
-0.0209057 1.38829 22.22
0.00179177 -0.0811138 18.6081
-0.532545 -0.520178 20.5962
-0.00122125 -0.396109 21.7751
0.0150511 -0.978854 15.9814
-0.689321 -0.997605 20.5636
0.00856508 -0.768735 21.2739
0.000987229 -1.48823 18.1812
-0.601323 -1.11399 20.0727
0.00201886 -0.909478 20.7457
-0.00779691 -1.09901 19.6606
1.0926 -0.437955 19.9481
1.22747 -0.893717 19.6375
1.77059 -0.743463 19.1943
0.732832 -0.37686 19.4957
2.44312 -1.6252 20.4935
0.999644 -0.518674 21.1746
0.934828 -0.872511 21.4697
1.35557 -1.00091 21.8325
0.402413 -0.488474 21.5745
0.244369 -0.233922 21.4119
0.156118 -0.224771 21.5122
0.174945 -0.377422 21.274
-0.0282646 -0.119556 21.5029
-0.269253 0.0788441 21.5798
-0.315053 0.26529 21.6331
-0.474818 0.214529 20.2123
-0.926033 0.683964 20.5585
-0.770508 0.29113 21.2737
-0.803604 0.795653 20.8721
-1.28458 0.66776 19.2514
-1.15674 0.759878 20.8259
-0.794765 0.231867 20.8419
-0.914431 0.683237 20.9658
-1.52535 0.581898 19.7447
-0.916806 0.597072 20.8646
1.38999 -0.0968853 19.8057
2.07861 0.5013 19.0267
0.939488 -0.0657417 19.2511
4.18814 -0.387901 20.3417
1.35864 -0.294643 21.22
2.21202 -0.127416 21.5129
0.749428 -0.772011 21.3223
0.412691 -0.281211 21.5161
0.843831 -0.661993 21.3419
0.130064 -0.140215 20.4712
-0.331203 -0.0568503 21.7224
-0.598201 -0.0157617 20.1848
-1.24331 0.298514 18.2917
-0.948306 -0.0544286 21.3963
-1.35343 -0.357427 20.0076
-1.63328 0.175551 18.6749
-0.922021 -0.086646 21.1948
-1.40273 -0.481685 20.3026
-1.37233 -0.124683 17.7747
1.00807 0.50431 19.9662
0.751721 0.793797 19.9862
0.730575 0.489633 19.4975
1.76892 1.28051 20.2393
1.24494 0.410149 20.8941
1.01782 0.909812 20.7748
1.75337 0.55531 21.4143
0.6869 0.0897056 21.5372
0.645046 0.453708 21.6161
0.343524 0.000650553 21.9807
-0.159101 -0.20588 21.5862
-0.0683774 -0.227379 21.5778
-0.540718 -0.585795 21.5581
-0.565439 -0.421536 21.236
-0.318015 -0.511295 21.235
-0.668165 -0.775451 21.2845
-0.606693 -0.527894 21.0359
-0.272174 -0.435462 20.9278
-0.49229 -0.611233 20.5314
-1.51039 -0.887072 19.4173
-1.08261 -0.943666 21.6444
-0.131848 -0.286668 21.5083
0.439436 0.252613 21.3033
1.08495 0.748089 20.6175
1.19533 0.617532 20.36
-2.16518 -0.162241 18.9764
-1.84488 -0.6834 21.9738
-0.337865 -0.511835 20.7327
0.512005 0.187699 19.4986
1.48446 0.234461 18.6652
1.60241 0.144126 18.6334
-1.3012 0.939161 19.6218
-1.75629 0.828317 20.9158
-1.0724 0.206759 21.8808
0.246533 -0.317909 21.8248
0.655273 -0.69907 21.2888
0.711329 -0.716219 20.7803
0.0172606 -3.07506 17.2608
0.00834644 -0.880824 16.1651
-0.00230456 -0.105277 11.6157
-0.0120304 0.292043 8.96846
-0.0111391 -0.494324 4.72781
0.0393355 0.632634 5.56782
-0.0283429 -0.630216 13.6294
0.0023371 -0.615205 -3.51526
-0.132911 -1.74806 -0.324689
-0.0201724 2.71487 18.3982
-0.0227731 3.23831 20.0799
-0.0204537 2.20364 21.2557
0.00543579 -0.803076 16.513
0.0108697 -1.11729 17.1839
-0.0069647 -1.2615 18.3226
1.50155 -0.86845 19.4265
1.10393 -0.94544 21.6197
0.139978 -0.289347 21.4941
-0.43289 0.258285 21.2232
-1.08209 0.738573 20.6245
-1.19719 0.588929 20.4456
2.14976 -0.158524 18.9499
1.87769 -0.687479 21.9803
0.336761 -0.509455 20.6686
-0.512792 0.181912 19.5895
-1.49167 0.197746 19.1135
-1.59517 0.121249 19.3029
1.28284 0.949995 19.6016
1.77019 0.860377 20.8998
1.11989 0.23437 21.887
-0.241067 -0.321228 21.8447
-0.650329 -0.700476 21.2969
-0.701512 -0.700513 20.7841
-1.53389 -0.421098 1.80392
-0.0137675 -0.129914 0.605769
-0.0528473 0.0175252 0.625129
-0.00792506 0.0112029 0.0278704
-0.00769372 0.000721515 0.00196327
-0.0401104 0.136532 1.05795
0 0 0
-0.0248457 0.181481 0.560939
-0.20847 0.0210282 0.68143
-0.023286 0.00205722 -0.00910895
-0.0499199 0.023735 0.0278624
0.0247344 0.00328982 0.191934
0.00718159 -0.137011 0.61556
1.89305 -0.568269 2.07004
0.059648 0.00804857 0.817654
0.194271 -0.0227946 0.0437131
0.00792399 0.0105572 0.027817
0.00710757 0.0887633 0.636833
0.0143812 0.273011 0.794587
0 0 0
0.913942 -0.00301386 2.9519
0.0497709 0.0215823 0.0298597
0.0231569 0.0016338 -0.00895633
-0.0201677 0.00246898 0.156442
-0.0102326 -0.00409586 0.380925
0.001528 0.00805414 0.966715
0.00464494 0.00738963 0.0838785
0.000302693 0.000177351 0.0224079
-0.0011862 0.0207859 0.108577
0.0259197 -0.0234438 1.95821
0 0 0
0 0 0
-0.462782 -0.330733 1.08847
0 0 0
0.00929518 0.0135974 0.0967758
-0.108882 0.0972621 0.248884
0 0 0
-9.44621e-05 0.00886929 0.0309755
0 0 0
0.00839929 -0.00291368 0.0366496
0.0201906 0.00492049 0.449573
-0.000255196 0.000140933 0.0181669
-0.00274047 0.00762871 1.11002
-0.00514254 0.00795864 0.0921534
0.00368257 0.0286632 0.150754
0 0 0
-0.0310105 -0.0251644 1.99562
-1.54206e-17 -5.80691e-18 -8.98098e-17
0.240996 -0.155841 0.475138
0.0731886 0.0653036 0.173131
0 0 0
0 0 0
0 0 0
-0.00550954 -0.00217251 0.025579
0.00021457 0.0107243 0.035748
0 0 0
0 0 0
-0.180374 0.038933 0.0420039
-2.54766e-06 -0.000352212 0.00700494
-0.00304598 -0.723482 0.337977
0 0 0
0 0 0
0 0 0
-0.156582 0.109691 -0.0661317
0 0 0
0 0 0
0.00170511 0.010273 0.0934495
0.000578692 0.000535029 0.0306949
-0.0577827 0.446498 0.168081
-0.000446795 0.0237098 0.188866
0 0 0
-0.0022559 0.000399428 0.00593856
0.00031653 0.0666569 -0.00131924
1.22101e-06 0.000193725 -0.00225554
0.00809807 0.0141074 0.0947315
-0.00135575 -0.000148771 9.45141e-05
0 0 0
0 0 0
0 0 0
0 0 0
0.156391 0.109227 -0.0655511
0 0 0
-0.000229024 9.71054e-05 0.010538
-0.00177662 0.010482 0.0958519
0.00616919 0.00118722 0.0170812
0 0 0
0.00126007 -0.000168923 0.00016145
-0.0122562 0.0220229 0.143262
0 0 0
0.000928971 -0.000172544 0.0261913
0.000240661 -0.0010966 0.0100833
-0.00106044 0.00527996 0.0405482
-5.75963e-05 -0.000767044 0.0348294
-3.91788e-07 -8.66258e-08 0.000108028
-0.000954404 0.00370786 0.0219171
0.000282328 0.00333808 0.0423812
0 0 0
0 0 0
0 0 0
0.00491774 0.0107782 0.152276
-0.000307696 0.00133076 0.00357068
-0.000907046 0.03713 0.17059
2.63412e-05 -0.000948191 0.0691253
2.27259e-05 -0.00119137 0.00388762
-0.000706032 -0.000102724 0.0207449
0 0 0
-0.000292961 -0.00110939 0.0110714
0.00123533 0.00603991 0.0482725
0.00114731 0.00443611 0.026399
-0.000232732 0.00280889 0.0361224
-0.0129358 0.0225476 0.311812
3.54392e-18 4.68826e-17 1.9519e-16
0 0 0
0 0 0
0.0114736 -0.0039173 0.115964
-0.000453057 -0.00677622 0.032537
0 0 0
-0.000681247 0.00662742 0.0268455
0 0 0
-0.00068695 0.028071 0.100719
0.00100285 0.00541152 0.0799377
-0.000110321 0.00507986 0.0396607
0.00436729 0.00462945 0.0385589
0.00667298 0.00493932 0.0708399
0 0 0
0 0 0
2.71808e-05 -1.36544e-05 0.00211199
-3.28411e-05 -1.2208e-05 0.00194921
0.0015282 -0.000257446 0.0477937