# vtk DataFile Version 2.0
tri_press
ASCII
DATASET UNSTRUCTURED_GRID
POINTS 3682 float
-0.685 0.225 -2.19995
-0.695 0.275 2.20347
-0.722398 0.725 -2.055
-0.605 0.958433 2.225
0.685 0.225 -2.19995
0.695 0.275 2.20347
0.722398 0.725 -2.055
0.605 0.958433 2.225
-0.784487 0.145513 -0.732143
-0.79847 0.15153 0.735663
-0.779887 0.899433 -0.628334
-0.744016 0.980505 0.798333
0.784483 0.145517 -0.732143
0.798469 0.151531 0.735663
0.779867 0.899412 -0.628334
0.744011 0.9805 0.798333
-1.44017 -0.177772 -3.40682
-1.45146 -0.145514 -2.24906
-1.51851 -0.201801 -0.780185
-1.5262 -0.215443 0.696965
-1.45728 -0.13522 2.16653
-1.43913 -0.0806812 3.32772
-1.44852 -0.0418948 4.48258
-1.4403 0.14588 -3.34914
-1.44985 0.205907 -2.19586
-1.53104 0.171053 -0.734999
-1.52102 0.164196 0.72957
-1.41365 0.237345 2.19122
-1.41131 0.289753 3.35183
-1.43511 0.328276 4.50803
-1.4565 0.737701 -3.22222
-1.4725 0.795352 -2.06725
-1.52747 0.908492 -0.634427
-1.48089 0.960922 0.795478
-1.35294 0.965166 2.22909
-1.37954 1.01417 3.39139
-1.42358 1.06123 4.55423
-1.47977 1.75642 -3.06278
-1.49075 1.83522 -1.91397
-1.50725 1.97411 -0.494484
-1.49826 2.07869 0.91613
-1.46726 2.12069 2.33604
-1.45701 2.14667 3.48575
-1.46483 2.18032 4.6441
-0.701317 -0.168003 -3.40948
-0.694829 -0.131733 -2.25293
-0.757588 -0.214226 -0.779665
-0.78461 -0.224723 0.702166
-0.740423 -0.116211 2.17563
-0.729143 -0.0672198 3.33389
-0.737257 -0.0351007 4.48615
-0.70268 0.147535 -3.34996
-0.712754 0.303854 3.35691
-0.730417 0.334739 4.51072
-0.716789 0.709976 -3.21713
-0.68793 1.01563 3.39057
-0.725005 1.06333 4.55405
-0.734305 1.73688 -3.05775
-0.74088 1.81645 -1.90842
-0.758966 1.97007 -0.491144
-0.766892 2.08487 0.915729
-0.755613 2.12381 2.33318
-0.749856 2.14735 3.48289
-0.755627 2.18071 4.64202
0.73921 -0.168005 -3.40948
0.740875 -0.131733 -2.25293
0.786245 -0.214224 -0.779665
0.77339 -0.224722 0.702166
0.703163 -0.116211 2.17563
0.686114 -0.0672202 3.33389
0.681925 -0.0351014 4.48615
0.724472 0.147533 -3.34996
0.668996 0.303854 3.35691
0.671521 0.334738 4.51072
0.731398 0.709974 -3.21714
0.637803 1.01563 3.39057
0.656396 1.06333 4.55405
0.749401 1.73688 -3.05775
0.752408 1.81644 -1.90842
0.742305 1.97006 -0.491144
0.70381 2.08487 0.915729
0.66329 2.12381 2.33318
0.655161 2.14734 3.48289
0.656584 2.1807 4.64202
1.47149 -0.177777 -3.40682
1.47731 -0.145519 -2.24906
1.53642 -0.201803 -0.780185
1.53024 -0.215443 0.696965
1.44759 -0.135221 2.16653
1.41197 -0.0806823 3.32772
1.40293 -0.0418967 4.48258
1.45511 0.145874 -3.34914
1.44768 0.2059 -2.19586
1.53156 0.17105 -0.734999
1.53217 0.164195 0.72957
1.42578 0.237345 2.19122
1.38898 0.289752 3.35183
1.3877 0.328274 4.50803
1.46265 0.737693 -3.22222
1.46524 0.795341 -2.06725
1.52316 0.908472 -0.634427
1.48743 0.960915 0.795478
1.3605 0.965165 2.22909
1.34945 1.01417 3.39139
1.36599 1.06123 4.55423
1.48992 1.75641 -3.06278
1.49514 1.83521 -1.91397
1.48939 1.9741 -0.494485
1.44633 2.07868 0.91613
1.39119 2.12068 2.33604
1.37312 2.14667 3.48575
1.3724 2.18031 4.6441
-0.741651 0.475 -2.16543
0 0.192463 -2.23249
-0.758345 0.161655 -1.46605
-0.695602 0.616716 2.25984
0 0.268595 2.20988
-0.751038 0.208962 1.46957
0 0.824985 -2.15498
-0.781561 0.842635 -1.34167
0 0.998865 2.26543
-0.703966 0.998927 1.51167
0.741679 0.475 -2.16545
0.758428 0.161572 -1.46605
0.69553 0.616716 2.25977
0.75066 0.20934 1.46957
0.781539 0.842613 -1.34167
0.703961 0.998923 1.51167
-0.787424 0.152576 0.00176001
-0.88944 0.522473 -0.680239
-2.12315e-06 0.139064 -0.732143
-0.897059 0.566017 0.766998
-3.5298e-07 0.147735 0.735663
-0.766607 0.944624 0.0849999
-1.02575e-05 1.23249 -0.628334
-2.47613e-06 1.35307 0.798333
0.78739 0.15261 0.00176001
0.889428 0.522465 -0.680239
0.897047 0.566015 0.766998
0.766613 0.94463 0.0849999
-0.878725 0.498736 -1.40386
0.878722 0.498732 -1.40386
-1.06157e-06 0.165941 -1.46605
-5.12874e-06 0.931017 -1.34167
0 0.475 -2.4517
-0.897807 0.544245 0.04338
0.897805 0.54424 0.04338
-1.23806e-06 0.140587 0.00176001
-6.36681e-06 1.36446 0.0849999
-0.883647 0.591367 1.49062
0.883663 0.591366 1.49062
-1.7649e-07 0.191735 1.46957
-1.23806e-06 1.18057 1.51167
0 0.616716 2.43715
-0.709489 0.35 -2.17885
-0.3425 0.193071 -2.23188
-0.747432 0.167568 -1.833
-0.702903 0.445858 2.23926
-0.3475 0.268562 2.20991
-0.746846 0.218154 1.83652
-0.742565 0.6 -2.12075
-0.361199 0.810001 -2.14
-0.770963 0.802801 -1.69833
-0.662689 0.787575 2.25481
-0.3025 0.990012 2.25658
-0.651091 0.975288 1.86833
0.3425 0.192773 -2.23218
0.709487 0.35 -2.17885
0.747352 0.167648 -1.833
0.3475 0.2687 2.20977
0.702879 0.445858 2.23923
0.74286 0.22214 1.83652
0.361199 0.80992 -2.13992
0.742075 0.6 -2.12026
0.770946 0.802784 -1.69833
0.3025 0.990005 2.25657
0.662687 0.787575 2.2548
0.651087 0.975284 1.86833
-0.781487 0.143513 -1.0991
-0.788931 0.146069 -0.365192
-0.857772 0.323589 -0.706191
-0.393633 0.139512 -0.732143
-0.757199 0.197801 1.10262
-0.793777 0.151223 0.368712
-0.854648 0.355332 0.751331
-0.399272 0.149559 0.735663
-0.785434 0.875743 -0.985
-0.865845 0.726544 -0.654286
-0.773493 0.922275 -0.271667
-0.459132 1.20433 -0.628334
-0.73174 0.997466 1.155
-0.855983 0.790984 0.782666
-0.756258 0.963511 0.441667
-0.452368 1.32751 0.798333
0.781411 0.143589 -1.0991
0.393629 0.139513 -0.732143
0.788929 0.146071 -0.365192
0.857772 0.323582 -0.706191
0.757168 0.197832 1.10262
0.399279 0.149544 0.735663
0.793774 0.151226 0.368712
0.854644 0.35533 0.751331
0.785439 0.875749 -0.985
0.459113 1.20432 -0.628334
0.865841 0.726536 -0.654286
0.77349 0.922271 -0.271667
0.731733 0.997458 1.155
0.452367 1.32751 0.798333
0.855975 0.790981 0.782666
0.756261 0.963514 0.441667
-0.865619 0.486868 -1.78464
-0.370825 0.475 -2.41172
-5.30787e-07 0.172899 -1.84927
0 0.333731 -2.44928
-0.873397 0.330196 -1.43495
-0.379173 0.158642 -1.46605
-0.820554 0.604042 1.87523
-0.347801 0.616716 2.40823
-8.8245e-08 0.223505 1.83972
0 0.442656 2.43457
-0.871779 0.400165 1.48009
-0.375519 0.184427 1.46957
-2.56437e-06 0.88987 -1.74833
0 0.649992 -2.30525
-0.891205 0.670686 -1.37276
-0.390783 0.925446 -1.34167
-6.19032e-07 1.03644 1.88855
0 0.807791 2.35714
-0.830774 0.795147 1.50114
-0.351984 1.15108 1.51167
0.865605 0.486866 -1.78466
0.370839 0.475 -2.41171
0.873387 0.330152 -1.43495
0.379213 0.158716 -1.46605
0.820422 0.604041 1.87519
0.347765 0.616716 2.40822
0.871787 0.400353 1.48009
0.37533 0.184428 1.46957
0.891217 0.670673 -1.37276
0.390767 0.925428 -1.34167
0.83079 0.795144 1.50114
0.35198 1.15111 1.51167
-0.85515 0.342143 0.02257
-0.396052 0.141903 0.00176001
-0.884736 0.510605 -1.04205
-0.894226 0.533359 -0.318429
-1.59236e-06 0.132995 -1.0991
-1.68061e-06 0.13941 -0.365192
-0.898288 0.555131 0.405189
-0.895064 0.578692 1.12881
-7.95522e-07 0.14667 0.368712
-2.64735e-07 0.160398 1.10262
-0.871279 0.763971 0.0641899
-0.478869 1.34567 0.0849999
-7.69312e-06 1.05433 -0.985
-8.31215e-06 1.33599 -0.271667
-4.42147e-06 1.36977 0.441667
-1.8571e-06 1.29615 1.155
0.855154 0.342147 0.02257
0.396043 0.141901 0.00176001
0.884735 0.510599 -1.04205
0.894183 0.533352 -0.318429
0.898288 0.555128 0.405189
0.895157 0.578691 1.12881
0.871277 0.763969 0.0641899
0.478865 1.34567 0.0849999
-0.859548 0.340098 -1.80882
-0.859542 0.332094 -1.07057
-0.86481 0.690819 -1.01352
-0.880202 0.635343 -1.74149
0.859531 0.340076 -1.80883
0.880197 0.635336 -1.74149
0.864812 0.690806 -1.01352
0.859463 0.332072 -1.07057
-0.360836 0.171455 -1.84113
0.360857 0.168114 -1.84113
0.385727 0.133145 -1.0991
-0.385709 0.133137 -1.0991
-0.375991 0.881372 -1.72333
-0.390366 1.0312 -0.985
0.390348 1.03119 -0.985
0.375983 0.881365 -1.72333
-0.356663 0.341866 -2.41006
-0.366012 0.624996 -2.35626
0.366019 0.624996 -2.35626
0.35667 0.341866 -2.41006
-0.855599 0.333297 -0.341811
-0.854809 0.348783 0.38695
-0.863954 0.777639 0.423428
-0.869193 0.745573 -0.295048
0.855601 0.333296 -0.341811
0.869199 0.745572 -0.295048
0.863947 0.777636 0.423428
0.854808 0.348784 0.38695
-0.395101 0.140191 -0.365192
0.395094 0.140192 -0.365192
0.396903 0.147238 0.368712
-0.396905 0.147245 0.368712
-0.487176 1.31135 -0.271667
-0.470518 1.34639 0.441667
0.470514 1.34639 0.441667
0.487154 1.31132 -0.271667
-0.877876 0.379469 1.11571
-0.815091 0.423011 1.85587
-0.792134 0.791361 1.87178
-0.852373 0.784204 1.1419
0.877812 0.379563 1.11571
0.852274 0.784201 1.1419
0.792068 0.79136 1.87176
0.815117 0.423105 1.85585
-0.387377 0.167641 1.10262
0.387282 0.167604 1.10262
0.361415 0.22369 1.83812
-0.361509 0.223735 1.83812
-0.361996 1.27558 1.155
-0.327242 1.02863 1.87844
0.32724 1.02867 1.87844
0.361992 1.27558 1.155
-0.34765 0.444257 2.4059
0.347633 0.444257 2.40589
0.325133 0.797683 2.3734
-0.32515 0.797683 2.37271
-0.698407 0.2875 -2.19056
-0.51375 0.194222 -2.23073
-0.731518 0.180982 -2.01647
-0.711843 0.360429 2.23425
-0.52125 0.272921 2.20555
-0.723406 0.244094 2.01999
-0.735959 0.6625 -2.09135
-0.541798 0.774537 -2.10454
-0.75858 0.7758 -1.87667
-0.639761 0.873004 2.24582
-0.45375 0.979144 2.24571
-0.630084 0.968899 2.04667
0.51375 0.194192 -2.23076
0.698324 0.2875 -2.19048
0.73163 0.18087 -2.01647
0.52125 0.273079 2.20539
0.711815 0.360429 2.23423
0.723603 0.243897 2.01999
0.541798 0.774556 -2.10456
0.736347 0.6625 -2.09174
0.758601 0.775821 -1.87667
0.45375 0.979134 2.2457
0.63973 0.873004 2.24579
0.630054 0.968869 2.04667
-0.783008 0.144492 -0.915619
-0.786708 0.145792 -0.548668
-0.869654 0.210289 -0.719167
-0.590218 0.140196 -0.732143
-0.790763 0.161737 0.919139
-0.796123 0.151377 0.552188
-0.86778 0.23282 0.743497
-0.599632 0.149022 0.735663
-0.782499 0.887427 -0.806667
-0.842059 0.822585 -0.64131
-0.776716 0.91088 -0.45
-0.662519 1.1379 -0.628334
-0.738394 0.989501 0.976667
-0.823856 0.897673 0.7905
-0.750794 0.972665 0.62
-0.636769 1.23116 0.798333
0.782997 0.144503 -0.915619
0.590212 0.140202 -0.732143
0.786707 0.145793 -0.548668
0.869645 0.210291 -0.719167
0.790778 0.161722 0.919139
0.599632 0.149022 0.735663
0.796122 0.151378 0.552188
0.867778 0.23282 0.743497
0.78251 0.887438 -0.806667
0.662804 1.1385 -0.628334
0.84206 0.822577 -0.64131
0.776733 0.910897 -0.45
[...]
POINT_DATA 3682
SCALARS point_scalars float 1
LOOKUP_TABLE default
-41.0316
-41.0673
-43.7569
-32.9207
-41.2973
-41.0305
-43.8714
-32.8919
-40.9001
-42.8243
-57.5195
-48.0039
-40.8867
-42.8608
-57.533
-48.0039
-36.8248
-84.6462
-40.8105
-39.9869
-41.9338
-38.9741
-34.7594
61.8687
-89.6811
-40.2964
-40.4312
-41.7119
-33.4417
-32.449
58.1482
-68.2651
-48.0697
-44.0018
-38.3714
-33.0504
-32.1425
-14.1765
-50.097
-84.8814
-56.1594
-35.0785
-31.8118
-31.5098
80.3816
-130.211
-41.7464
-41.9352
-40.8918
-34.7594
-32.2309
80.3816
-32.4821
-32.0159
160.33
-30.7508
-31.3217
-57.0123
-35.6491
-81.7086
-57.9014
-30.8986
-29.789
-28.7173
82.2237
-127.858
-41.6793
-41.949
-40.7795
-33.6603
-32.221
82.2237
-32.4462
-32.1725
160.415
-30.2745
-31.1822
-58.2361
-36.7737
-81.8386
-57.8772
-30.257
-28.7277
-27.5376
-37.0956
-86.0376
-40.5914
-40.0663
-42.019
-38.3369
-34.7519
62.4622
-89.8347
-40.284
-40.4257
-41.7073
-33.4288
-32.4715
58.1187
-68.1479
-48.0783
-44.0047
-38.3408
-32.9284
-31.9204
-14.1378
-50.0305
-85.0604
-57.3756
-34.1836
-31.7857
-31.0229
-3.50717
-103.334
-48.0571
-34.6733
-37.3876
-39.402
-53.7606
-37.5897
-27.9089
-43.1703
-4.21249
-48.0051
-34.6503
-39.3594
-37.5695
-43.1343
-37.578
-41.6821
-42.8173
-41.047
-41.7388
-53.3038
-29.9145
-60.5788
-37.5628
-41.6727
-41.0356
-53.2813
-51.4721
-51.4765
-46.8577
1.32342
208.737
-41.6475
-41.6406
-39.6558
-79.7406
-44.1276
-44.1006
-42.6002
-38.0561
-26.1617
3.92593
-107.437
-75.6974
-36.9152
-38.5217
-44.5111
-12.8061
-52.8529
-47.828
-33.6082
-28.3111
-35.6393
-107.555
3.28103
-75.6202
-38.5168
-36.8856
-44.2057
-52.7552
-12.4616
-47.834
-28.3072
-33.5808
-35.6358
-40.7935
-38.7759
-40.4426
-42.3598
-38.9399
-38.2205
-40.2596
-41.8527
-50.8901
-46.6969
-55.3597
-34.1062
-46.9883
-43.852
-49.9462
-59.13
-40.8248
-42.3518
-38.7761
-40.431
-38.9409
-41.8674
-38.2212
-40.2352
-50.8762
-34.1145
-46.6859
-55.3637
-46.9836
-59.1148
-43.8536
-49.9316
-82.2228
168.376
-65.9445
175.528
-50.9653
-48.525
-42.2087
-30.6122
-41.33
-31.8648
-42.4198
-41.5626
-24.8149
166.942
-52.3008
-5.30777
-32.0153
-24.8719
-45.4433
-38.6842
-82.2031
168.371
-50.965
-48.4938
-42.1704
-30.5866
-42.402
-41.5513
-52.3
-5.30267
-45.4307
-38.6811
-39.5936
-39.2483
-43.0204
-41.6772
-46.6079
-39.7235
-41.1791
-41.297
-39.3876
-44.1014
-46.773
-72.46
22.5484
-86.7366
-69.396
-49.1227
-39.5874
-39.2422
-42.984
-41.6672
-41.1718
-41.3482
-46.7582
-72.45
-84.1186
-44.8721
-44.0364
-77.8767
-84.0987
-77.9766
-44.0238
-44.8545
-66.4062
-66.711
-44.3651
-44.3649
-27.6748
16.1211
16.1578
-27.6631
148.509
120.565
121.038
149.116
-39.7842
-39.7363
-44.9208
-46.9133
-39.775
-46.86
-44.9155
-39.7317
-39.48
-39.4735
-39.2984
-39.3005
-82.0806
-64.3567
-64.3445
-82.0341
-41.4386
-44.7753
-40.0859
-42.906
-41.4168
-42.8914
-40.0583
-44.735
-42.8767
-42.8616
-42.2046
-42.1917
-49.4934
-32.6567
-32.6562
-49.4813
-32.5154
-32.5064
-28.8885
-28.9185
0.766667
-116.129
-93.787
-38.8246
-39.4043
-42.2778
-17.3212
-50.9934
-60.5398
-33.7104
-29.5899
-33.2475
-116.388
0.194022
-93.7181
-39.4015
-38.7966
-42.351
-50.6861
-17.225
-60.519
-29.6321
-33.6846
-33.2408
-42.8406
-39.2312
-40.2369
-41.5608
-48.7735
-39.3425
-40.922
-42.2925
-58.3509
-51.8216
-56.7577
-78.2078
-47.4796
-46.6093
-48.8192
-54.0615
-42.8131
-41.5513
-39.2254
-40.2252
-48.7765
-42.3089
-39.3484
-40.9187
-58.3373
-78.1481
-51.8138
-56.7702
-47.4861
-54.0428
-46.6204
-48.8103
2.90305
-9.02643
-86.6656
110.087
-103.434
-103.472
-84.5021
91.8412
-57.5353
-41.4147
-49.9795
-48.6714
-35.7212
-34.3635
-39.5526
-31.5776
-37.5254
-37.5269
-39.2892
-33.0535
-41.5675
-38.983
-41.052
-40.2987
-53.8012
-53.9381
-38.9932
22.6402
-42.2137
-34.8771
-49.6569
-17.2332
-27.9391
-27.9423
-29.8814
-23.162
-39.1008
-45.7109
-43.7161
-40.2436
3.01674
-8.45738
-86.7578
109.863
-57.5804
-41.5964
-49.9737
-48.6593
-35.6849
-34.3419
-39.5038
-31.5759
-41.6368
-39.0233
-41.0486
-40.2956
-42.2297
-34.8806
-49.5829
-17.2174
-39.0977
-45.703
-43.7124
-40.242
-38.337
-37.7706
-38.4167
-38.6063
-40.8258
-43.6573
-41.7051
-41.7319
-42.8063
-42.8021
-45.3618
-40.5443
-40.4085
-42.3693
-41.0204
-41.4636
-41.7449
-41.7511
-40.4924
-43.1476
-54.0683
-51.5854
-50.2996
-60.7525
-29.6974
-29.7071
4.16245
-75.6192
-60.3456
-60.3375
-65.3354
-55.1478
-38.3137
-37.7671
-38.4107
-38.59
-40.8148
-43.6477
-41.696
-41.7239
-40.3868
-42.3625
-41.0141
-41.436
-54.0644
-51.5709
-50.2816
-60.7365
-61.9126
-51.4692
-51.6318
-46.7823
-61.9093
-51.4706
-51.6362
-46.8039
-54.7566
-47.7497
-47.7345
-42.8175
-11.9404
-0.232655
-0.238347
14.5589
197.597
190.691
169.397
197.838
-40.2665
-41.5398
-41.3949
-43.9452
-40.2601
-41.5371
-41.391
-43.9366
-39.5743
-39.4817
-39.4561
-39.5702
-78.6257
-85.9065
-73.7843
-78.6186
-47.743
-43.2862
-46.618
-42.3887
-47.7329
-43.262
-46.6012
-42.3733
-41.9669
-42.5433
-42.5486
-43.2717
-34.4923
-38.1201
-38.1193
-42.9204
-27.9464
-29.4135
-25.4393
-27.9332
-89.0151
96.5588
-89.1624
27.778
-83.227
-68.9513
-41.0488
-32.8499
-39.9364
-33.6163
-45.7827
-43.4635
-80.2385
67.0909
-40.4669
69.9966
-58.3895
-35.0367
-38.418
-31.2383
-30.3098
-28.3942
-38.6872
-33.5065
-89.161
30.2685
-89.0859
96.428
-83.1672
-69.036
-39.9374
-33.6086
-41.0106
-32.8421
-45.8052
-43.4915
-40.3801
69.6564
-80.4271
66.5538
-58.4636
-35.0163
-30.3088
-28.3704
-38.3865
-31.2225
-38.662
-33.5081
-42.2973
-43.592
-39.0346
-39.1644
-41.3798
-40.0087
-45.1187
-40.2425
-39.7298
-41.05
-38.7519
-38.9586
-39.982
-40.6147
-40.3362
-44.2002
-48.6128
-0.0589475
-45.3261
-46.9336
-50.9311
-69.0823
0.331545
-72.2424
-45.384
-50.5202
-44.2902
-43.8049
-47.7284
-55.4162
-61.8267
-54.8794
-42.2714
-43.6169
-45.1127
-40.2355
-39.027
-39.1608
-41.3666
-39.9994
-39.7213
-41.006
-40.3407
-44.2218
-38.7499
-38.9588
-39.9742
-40.7652
-48.5904
-0.0353896
0.324994
-72.2825
-45.3183
-46.9245
-50.8864
-69.0517
-45.3819
-50.5064
-61.8122
-54.8715
-44.2858
-43.8327
-47.7267
-55.3993
-83.4245
-79.5795
162.041
148.558
-65.9257
-65.9554
186.076
177.45
-61.6217
-45.5394
-55.6199
-43.0514
-43.7229
-41.1381
-32.0725
-29.8984
-41.5618
-41.5579
-32.2522
-32.2435
-40.8108
-46.3711
-41.2192
-42.3753
-25.2587
-24.9191
150.432
141.063
-46.4595
-60.5869
-16.11
6.24295
-32.2523
-32.2551
-26.1631
-26.1974
-42.9102
-45.05
-43.4239
-35.1988
-83.4083
-79.5122
148.684
162.084
-61.6243
-45.5628
-55.5839
-42.9788
-41.1054
-43.6819
-32.0583
-29.8815
-40.8053
-46.362
-41.2958
-42.4032
-60.5751
-46.4219
6.22136
-16.1394
-45.0472
-42.8849
-35.1987
-43.4092
-39.6635
-39.633
-39.2165
-39.0644
-44.0352
-42.8179
-40.432
-43.8132
-45.9883
-45.9862
-39.6982
-39.6938
-40.1936
-43.092
-41.6534
-41.4031
-39.4674
-39.47
-43.5668
-43.5698
-45.7989
-46.3194
-78.474
-67.7688
21.5061
21.4266
-84.408
-84.3918
-68.3906
-68.3827
-48.958
-48.9537
-39.6547
-39.628
-39.2111
-39.0572
-42.8083
-44.0198
-40.4228
-43.8039
-43.0857
-40.1876
-41.6486
-41.4899
-46.3987
-45.7909
-67.7588
-78.454
-83.4361
-61.4958
-62.1063
-90.9272
-42.3315
-41.3761
-45.9952
-44.0369
-51.4547
-46.3809
-47.4656
-42.8757
-72.7899
-82.97
-61.659
-56.3776
-83.5513
-90.9998
-62.1041
-61.5289
-72.6903
-56.355
-61.656
-83.2821
-51.4448
-42.8658
-47.4356
-46.3606
-42.3138
-44.094
-46.0012
-41.3654
-96.3564
-85.7246
-54.9336
-55.9462
-96.2122
-55.9585
-54.9469
-85.4518
-44.2756
-45.48
-42.5652
-42.7432
-44.2909
-42.7928
-42.606
-45.4829
-46.3299
-25.0502
-12.9756
-38.8881
-60.1956
3.77325
12.6
-6.81401
-60.2108
-6.14751
12.5298
3.78253
-46.2393
-38.8493
-12.9576
-25.0339
51.5442
110.857
182.502
75.8059
21.6294
51.2247
169.601
94.3773
21.1647
94.1456
171.055
57.8566
51.697
71.1067
187.249
109.354
-39.3146
-38.6225
-40.3603
-40.5901
-39.4168
-40.23
-40.2118
-38.4798
-46.6853
-48.8827
-43.7162
-42.6519
-51.5843
-43.8408
-43.5633
-48.8399
-39.3072
-40.5815
-40.3537
-38.6095
-51.5795
-48.8963
-43.5717
-43.8301
-46.6814
-42.6458
-43.7097
-48.876
-39.4155
-38.4766
-40.2059
-40.2218
-39.7918
-40.5164
-39.438
-39.0024
-39.7863
-39.0014
-39.4344
-40.5116
-40.1364
-40.4094
-39.4315
-38.3128
-40.1298
-38.3195
-39.4349
-40.4075
-76.6167
-64.3636
-84.2509
-72.9578
-54.1362
-64.4949
-72.7334
-57.6914
-54.118
-57.6726
-72.726
-64.4864
-76.632
-72.9119
-84.239
-64.353
-46.4888
-39.6398
-41.4855
-40.239
-41.4487
-40.238
-47.2682
-44.7995
-36.9294
-41.2953
-45.3364
-38.898
-46.1153
-41.8544
-42.9227
-45.2146
-46.5279
-40.3196
-41.4748
-39.6458
-46.1338
-45.2329
-42.9005
-41.8109
-36.8998
-38.8548
-45.3199
-41.2718
-41.418
-44.543
-47.2469
-40.1923
-45.8305
-43.4535
-42.7293
-40.2107
-45.8674
-40.2121
-42.7314
-43.4574
-41.086
-39.4258
-42.2047
-41.6305
-41.099
-41.6066
-42.1973
-39.4229
-53.2697
-45.0594
-43.15
-54.9796
-31.2476
-29.9698
-34.6718
-36.3211
-31.2459
-36.3183
-34.6605
-29.9692
-53.2544
-54.9748
-43.1015
-45.052
-34.2369
-33.2495
-30.3669
-32.3793
-34.2327
-32.3702
-30.3505
-33.2429
-30.6058
-24.763
-26.8609
-31.6596
-30.623
-31.6721
-26.8954
-24.7826
-21.0832
-72.8782
-101.764
-40.3088
-39.3608
-41.0053
-29.3994
-48.5904
-61.7329
-33.8702
-30.6811
-32.5853
-76.6868
-21.4019
-101.731
-39.3367
-40.2846
-41.0326
-48.4523
-29.5259
-61.6366
-30.6606
-33.8371
-32.5818
-42.1105
-39.7512
-39.4377
-41.203
-44.9438
-40.4051
-41.4226
-42.5772
-58.4483
-54.804
-57.5118
-68.5807
-47.6634
-47.9581
-48.4461
-49.9901
-42.0917
-41.1916
-39.7428
-39.4291
-44.9439
-42.5916
-40.4152
-41.4279
-58.4402
-68.6749
-54.8122
-57.5332
-47.6654
-49.9752
-47.9622
-48.4455
2.00898
-8.60499
-71.7501
63.1787
-103.446
-103.456
-94.5593
-76.2001
-51.1979
-45.2178
-49.2664
-48.4223
-35.1741
-34.512
-38.5754
-32.1378
-37.3888
-37.3903
-38.4382
-34.3143
-39.9137
-39.2096
-39.7715
-39.8484
-54.5002
-54.5398
-47.7604
-75.6321
-39.8141
-35.5819
-45.1078
-25.997
-27.921
-27.9183
-28.819
-25.4013
-41.1754
-44.7886
-43.3343
-42.0117
1.52352
-7.49304
-71.7654
64.4033
-51.2739
-45.1257
-49.2407
-48.4036
-35.1167
-34.4928
-38.5417
-32.1337
-39.8857
-39.2346
-39.8008
-39.8318
-39.8013
-35.6014
-45.3391
-25.9865
-41.1819
-44.775
-43.3277
-42.0094
-37.9059
-37.2297
-38.3635
-38.0527
-41.2798
-42.4456
-41.6123
-41.6901
-42.8663
-42.8642
-44.6109
-41.1884
-40.4574
-41.782
-40.9866
-41.0554
-41.7289
-41.7326
-40.9658
-42.456
-53.8428
-52.407
-52.2136
-56.5465
-29.1033
-29.1254
-10.846
-54.9858
-60.5612
-60.5561
-63.0038
-58.1384
-37.8599
-37.2193
-38.3581
-38.0272
-41.2692
-42.4372
-41.604
-41.6811
-40.443
-41.7725
-40.9773
-41.0424
-53.839
-52.388
-52.197
-56.5375
-56.2547
-51.694
-51.5238
-48.9456
-56.2583
-51.6968
-51.527
-48.9483
-50.873
-47.1677
-47.1594
-43.5795
-4.95348
1.18551
1.17909
8.12412
207.643
202.988
199.936
207.47
-40.8953
-41.5072
-41.6766
-42.8862
-40.8881
-41.5027
-41.6702
-42.8794
-39.6409
-39.5133
-40.0602
-39.6388
-79.5195
-83.3272
-76.4429
-79.5181
-46.369
-43.6888
-44.7387
-43.2155
-46.3157
-43.6612
-44.7108
-43.1898
-42.3194
-42.589
-42.5917
-42.8393
-36.022
-38.05
-38.0637
-40.1829
-26.4061
-27.6678
-25.5466
-26.4549
5.32639
3.91072
-68.1683
64.9949
-116.16
-105.074
-102.014
-91.5368
-88.6451
-65.0433
-78.2993
-71.0335
-37.8111
-36.2455
-39.8726
-33.8781
-40.1742
-37.7432
-39.1763
-35.0198
-43.5071
-43.4879
-45.8396
-43.853
-15.2429
-10.6837
-65.661
35.8255
-53.1733
-53.4729
-47.5268
-69.3994
-53.2825
-44.7549
-53.698
-40.4824
-33.5787
-33.95
-37.7206
-31.9124
-28.7527
-28.01
-29.2167
-28.0704
-34.3465
-36.9227
-37.0465
-34.1813
-116.354
-105.187
-101.995
-88.2644
4.69459
3.86072
-68.4095
66.0383
-88.7399
-64.8882
-78.2049
-71.0856
-40.1627
-37.7442
-39.1827
-35.0096
-37.7786
-36.2174
-39.7981
-33.8639
-43.0464
-44.0949
-45.6606
-43.8089
-52.7211
-53.533
-47.3932
-70.4861
-14.7469
-10.4522
-65.8331
35.8983
-53.2377
-44.778
-53.7171
-40.4714
-28.7415
-28.0064
-29.2147
-28.0571
-33.5685
-33.9281
-37.7498
-31.9006
-34.3426
-36.9186
-37.0374
-34.1827
-45.2558
-38.0378
-40.5958
-43.1065
-38.8328
-39.2372
-39.3492
-39.0264
-40.2184
-40.5823
-40.8137
-40.1896
-42.064
-42.6493
-44.1022
-40.8745
-42.9736
-38.468
-38.8471
-40.1445
-38.5988
-37.7916
-37.7719
-38.6832
-40.6519
-40.1903
-40.1781
-39.984
-41.998
-41.7918
-41.0452
-42.8001
-59.6603
-40.455
-50.5606
-27.4808
-48.9799
-44.9862
-46.0233
-46.8853
-56.114
-54.7154
-53.8001
-60.8898
-46.9264
-31.4409
-15.5793
-53.3134
-47.1216
-46.1673
-46.905
-49.9994
-44.948
-42.9375
-44.0315
-43.6361
-49.2406
-50.7936
-49.8322
-52.2466
-58.2489
-59.9302
-60.7256
-57.3212
-45.18
-38.1136
-40.5554
-43.1028
-42.0552
-42.6428
-44.0939
-40.8675
-38.8286
-39.2663
-39.3429
-39.0266
-40.2064
-40.5711
-40.8015
-40.1792
-42.9608
-38.4747
-38.842
-40.1383
-42.0179
-41.8012
-41.0545
-42.817
-38.6022
-37.7911
-37.7704
-38.6846
-40.6395
-40.1602
-40.1655
-39.9437
-59.6549
-40.4331
-50.5437
-27.416
-46.8045
-31.3927
-15.3275
-53.2237
-48.9693
-44.9756
-46.0145
-46.8761
-56.0965
-54.7051
-53.7779
-60.8821
-47.1291
-46.1652
-46.8971
-49.9682
-58.2295
-59.918
-60.7117
-57.3103
-44.9536
-42.934
-44.0299
-43.6417
-49.226
-50.7758
-49.8213
-52.2242
-91.1168
-70.2386
-81.9514
-80.6443
139.247
190.181
166.958
162.52
-73.4662
-60.0035
-65.8055
-65.8012
190.923
175.737
178.157
177.917
-50.5349
-51.3052
-54.8352
-48.3708
-48.7503
-48.2331
-51.8718
-45.4448
-40.5264
-45.2622
-42.9193
-41.6562
-31.3811
-29.3483
-31.4873
-30.2092
-40.321
-41.7326
-41.3772
-41.3782
-31.9371
-30.7897
-31.9929
-31.9893
-41.8391
-42.9243
-41.3435
-44.4352
-40.6899
-42.2714
-41.2567
-42.0556
-31.9016
-18.175
-24.6459
-24.6227
135.372
161.269
166.37
165.329
-52.4285
-51.2488
-48.5624
-56.3864
-10.1935
-2.2128
-10.7206
0.410618
-31.0814
-33.1031
-32.0848
-32.0846
-23.702
-25.2413
-25.2725
-25.2975
-44.3329
-47.5903
-44.3223
-45.4912
-39.194
-38.2867
-40.8625
-36.7722
-91.0988
-70.2261
-81.9341
-80.5956
139.271
189.814
162.537
166.978
-50.5336
-51.306
-54.8415
-48.3703
-48.7275
-48.2082
-51.8728
-45.4281
-40.4824
-45.2477
-41.6192
-42.8788
-31.36
-29.3231
-31.4705
-30.1729
-41.8172
-42.9043
-41.3353
-44.4115
-40.6998
-42.275
-41.2512
-42.0762
-52.4153
-51.2497
-56.3814
-48.5806
-10.179
-2.21424
0.405771
-10.707
-44.3178
-47.5811
-45.4801
-44.3033
-39.1937
-38.2846
-36.7704
-40.8568
-38.9628
-39.7709
-39.6487
-39.6235
-39.0738
-39.4093
-39.1885
-39.3678
-41.8546
-45.043
-43.8092
-42.7568
-41.5454
-41.5541
-41.0104
-42.6062
-46.3603
-44.7852
-46.4265
-46.4273
-40.0482
-39.5493
-39.7353
-39.7327
-41.0926
-41.4075
-40.5527
-42.3671
-40.7345
-42.4546
-41.4401
-40.8125
-39.9107
-38.989
-39.4306
-39.4327
-44.1013
-43.6749
-43.8401
-43.8417
-48.2362
-45.4015
-46.3473
-46.2019
-66.3751
-76.1382
-75.6826
-70.2753
16.7378
21.4297
22.3411
22.2967
-82.6788
-87.9565
-85.6338
-85.6227
-67.2468
-71.5498
-69.1558
-69.1519
-52.1404
-45.9207
-48.8349
-48.9475
-38.9558
-39.7647
-39.6415
-39.6184
-39.0655
-39.4037
-39.1822
-39.3604
-41.8482
-45.0284
-42.7328
-43.7814
-41.5373
-41.5465
-41.0006
-42.5971
-41.0863
-41.4011
-42.3609
-40.5449
-40.8051
-42.4482
-41.4544
-40.968
-48.2163
-45.3915
-46.1842
-46.3357
-66.3788
-76.1286
-70.2642
-75.6683
-96.9207
-85.1293
-83.7226
-70.5899
-43.9741
-42.3703
-45.9199
-44.5889
-45.3303
-44.4932
-44.7379
-43.0947
-73.294
-68.7616
-78.8851
-70.5147
-96.9734
-85.1004
-83.7106
-70.5719
-73.3055
-68.8076
-78.9102
-70.4871
-45.3147
-44.4829
-44.7108
-43.0838
-43.9533
-42.3506
-45.9273
-44.5722
-75.7358
-67.6656
-66.2416
-60.3881
-75.0434
-67.9104
-66.4563
-60.7904
-43.794
-46.6326
-41.4492
-44.9692
-43.7839
-46.6363
-41.5123
-44.9756
-33.8633
-30.8098
-25.9216
-21.6066
10.1266
9.99723
13.5522
19.3786
10.1073
10.0025
13.4779
19.4106
-33.8278
-30.7894
-25.9079
-21.6023
104.069
101.905
159.298
176.982
93.0079
111.773
131.687
133.027
112.661
93.6723
131.815
132.268
103.264
104.237
174.807
159.545
-39.2543
-39.9746
-39.7528
-40.0225
-39.1904
-39.8835
-39.6475
-39.6757
-44.5138
-46.132
-43.9186
-45.3229
-46.9215
-48.7328
-45.3331
-47.0127
-39.2456
-39.9652
-39.7434
-40.0134
-46.9004
-48.5753
-45.3161
-47.0552
-44.5095
-46.1268
-43.9129
-45.3164
-39.1878
-39.8778
-39.6429
-39.6708
-39.3323
-39.7863
-39.3051
-39.6022
-39.7798
-39.3263
-39.5966
-39.2991
-39.7701
-39.1689
-39.4065
-38.9454
-39.1715
-39.7683
-38.9498
-39.4088
-78.652
-79.4633
-79.4576
-82.89
-59.8014
-63.105
-65.9902
-66.6404
-63.0922
-59.6846
-66.6331
-65.985
-79.5288
-78.5744
-82.8674
-79.4339
-40.7947
-40.313
-40.9857
-41.6726
-41.7903
-45.2087
-44.2446
-48.7844
-38.7734
-39.3878
-40.6741
-41.444
-43.5701
-43.0451
-44.6124
-42.334
-40.7804
-40.4194
-40.9743
-41.6458
-43.5609
-43.0669
-44.5933
-42.3364
-38.7362
-39.3594
-40.6457
-41.4207
-41.7568
-45.1208
-44.2082
-48.7436
-41.8776
-43.7809
-41.742
-43.376
-41.8291
-43.7637
-41.7126
-43.3791
-40.9248
-42.396
-41.883
-43.2161
-40.9196
-42.3788
-41.8743
-43.2054
-49.9856
-52.265
-46.3763
-49.2451
-31.5724
-33.0266
-32.3623
-33.8664
-31.572
-33.0277
-32.3467
-33.8664
-49.9777
-52.2541
-46.3648
-49.2339
-32.637
-32.8549
-32.2803
-32.359
-32.8466
-32.6292
-32.3481
-32.2693
-28.6515
-30.699
-27.0779
-29.2855
-30.706
-28.6835
-29.3104
-27.1208
-78.5499
59.3662
-118.809
-40.9714
-83.0241
-100.419
-41.1434
-35.0213
-40.6355
-35.9883
-41.8049
-41.272
-68.0276
6.59778
-53.029
-29.7933
-69.2077
-52.1822
-37.2833
-31.5371
-30.2024
-30.2178
-34.8262
-32.0319
-118.673
-41.2476
-78.6802
59.849
-83.2179
-100.194
-40.6307
-36.0372
-41.1263
-35.0187
-41.6902
-41.2831
-52.838
-28.6452
-68.2528
6.88967
-69.1979
-52.1364
-30.1981
-30.1962
-37.2291
-31.5172
-34.8185
-32.0285
-42.0366
-44.0458
-39.3491
-39.5292
-41.4797
-39.7968
-42.7528
-40.4075
-47.8615
-47.0347
-38.7454
-39.9004
-40.032
-41.9368
-41.0035
-43.7014
-54.8204
-72.01
-51.6827
-51.7408
-54.612
-64.2341
-70.1325
-83.0323
-47.3637
-49.6304
-46.636
-46.2512
-48.6801
-50.8712
-53.5074
-53.2148
-42.016
-44.0236
-42.7412
-40.4009
-39.3464
-39.5239
-41.4663
-39.7873
-47.8705
-47.0473
-41.015
-43.7206
-38.7494
-39.9074
-40.0302
-41.9406
-54.807
-71.9711
-69.8341
-83.2245
-51.6754
-51.7384
-54.6038
-64.25
-47.3799
-49.6194
-53.4891
-53.1945
-46.6396
-46.2549
-48.6717
-50.8556
-67.4364
66.653
-75.5877
54.6256
-90.2276
-83.2549
111.315
105.992
-94.894
-114.038
-94.8203
-98.5914
-84.8565
-84.7768
82.1784
83.5676
-60.0793
-56.0512
-42.1716
-42.25
-53.3901
-47.0826
-51.947
-45.413
-39.154
-33.2183
-38.1089
-32.2385
-39.8894
-39.2438
-32.0544
-31.5861
-38.6095
-34.6068
-38.6148
-34.6059
-39.3148
-39.3127
-33.1422
-33.1386
-43.2011
-41.4939
-38.6047
-39.5129
-40.1847
-43.0329
-40.0709
-40.6657
-47.5749
-71.4373
-47.5432
-75.4039
-38.769
-38.7595
26.7164
27.0974
-49.7163
-31.7365
-43.3898
-18.2552
-46.9228
-55.4168
-20.4817
-13.3598
-28.8705
-26.0651
-28.869
-26.1695
-29.9043
-29.9038
-23.4972
-23.5223
-40.252
-37.7108
-45.5266
-46.4829
-42.9068
-44.8903
-42.6243
-38.1273
-67.5643
66.3325
-75.6041
54.6062
-90.3003
-83.3726
105.87
110.473
-60.1126
-56.0761
-42.2933
-42.2602
-53.4137
-47.071
-51.9722
-45.4027
-39.1129
-33.2011
-38.1359
-32.2279
-39.1961
-39.8409
-32.0571
-31.5713
-43.2117
-41.4436
-38.6247
-39.5218
-40.1903
-43.0424
-40.0639
-40.6548
-49.7291
-31.7317
-43.4
-18.2382
-55.6178
-46.9057
-13.3523
-20.4654
-40.2374
-37.7
-45.5273
-46.4639
-44.9428
-42.8986
-38.121
-42.7654
-39.3116
-38.7024
-37.97
-38.0435
-38.4878
-38.3938
-38.972
-38.219
-41.0118
-40.7434
-43.2354
-43.7658
-41.6934
-42.1307
-41.1352
-42.6248
-44.6301
-41.1854
-44.6276
-41.1669
-45.4171
-45.4188
-40.5153
-40.5122
-40.356
-40.4143
-42.5127
-42.2442
-40.4128
-41.9722
-40.7217
-41.5357
-41.0223
-42.5033
-41.027
-42.5093
-40.4407
-40.4406
-43.1757
-43.1791
-52.1781
-58.2888
-50.9534
-54.2506
-49.6303
-50.1685
-62.6171
-58.9215
-11.8081
-51.4011
-11.7826
-51.4311
3.97874
4.01416
-75.4763
-74.9157
-62.3585
-57.8944
-62.3514
-57.8886
-65.0968
-65.0932
-55.0349
-55.0322
-39.2921
-38.7027
-37.9682
-38.0385
-38.4771
-38.3892
-38.9654
-38.2034
-41.0013
-40.7326
-43.2259
-43.7564
-42.1207
-41.6841
-41.1272
-42.6151
-40.3431
-40.358
-42.5062
-42.2344
-41.9649
-40.4045
-40.7785
-41.3889
-52.2019
-58.2779
-50.9432
-54.2348
-50.1515
-49.6129
-58.9057
-62.6056
-62.0267
-61.5291
-55.7034
-49.1648
-49.1288
-56.2822
-46.5147
-47.1544
-62.0253
-61.5252
-55.7038
-49.1695
-56.2824
-49.1327
-47.1502
-46.5197
-54.8538
-54.8567
-51.3349
-44.4242
-51.3292
-44.4071
-42.8106
-42.8286
-12.0622
-12.0705
-6.10817
6.46047
6.43652
-6.10201
13.9782
13.9393
193.726
193.769