# vtk DataFile Version 2.0
tet_velo
ASCII
DATASET UNSTRUCTURED_GRID
POINTS 29498 float
-0.858338 0.355 -1.995
-0.835 0.475 2.19761
-0.797638 0.985 -2.065
-0.675 1.46139 1.935
0.858338 0.355 -1.995
0.835 0.475 2.19761
0.797607 0.985 -2.065
0.675 1.46139 1.935
-0.830875 0.414684 -0.597464
-0.87264 0.405139 0.800073
-0.78283 1.16987 -0.731667
-0.732773 1.31949 0.601667
0.830873 0.414685 -0.597464
0.872651 0.405129 0.800073
0.782846 1.1699 -0.731667
0.732778 1.3195 0.601667
-1.66057 -0.115228 -3.01584
-1.66077 -0.0247356 -1.92353
-1.6401 0.0149091 -0.524332
-1.64594 -0.0075105 0.887786
-1.62908 0.032902 2.28807
-1.62375 0.108996 3.38572
-1.62877 0.197134 4.4735
-1.66116 0.243406 -3.07393
-1.65971 0.347753 -1.98862
-1.63112 0.420269 -0.601919
-1.63338 0.431865 0.790564
-1.60056 0.49611 2.1785
-1.60746 0.573448 3.27524
-1.62152 0.657399 4.36511
-1.63546 0.930302 -3.17207
-1.61391 1.02876 -2.08411
-1.58186 1.19048 -0.741176
-1.52842 1.32471 0.597211
-1.48147 1.44931 1.94138
-1.5431 1.52062 3.04077
-1.59327 1.58818 4.141
-1.60901 2.07037 -3.36756
-1.59545 2.18664 -2.28921
-1.57537 2.37981 -0.967095
-1.54824 2.58528 0.341186
-1.53435 2.75514 1.66398
-1.55148 2.85376 2.74372
-1.5813 2.93051 3.83693
-0.844491 -0.109668 -3.01999
-0.846657 -0.0150414 -1.92957
-0.82627 0.0152142 -0.523521
-0.843989 -0.0279996 0.895902
-0.836152 0.0131761 2.30226
-0.839214 0.0962143 3.39534
-0.846562 0.18949 4.47907
-0.849744 0.242426 -3.0752
-0.841148 0.564435 3.28318
-0.848481 0.652366 4.36931
-0.830374 0.910655 -3.16413
-0.792261 1.52468 3.03949
-0.832765 1.59003 4.14072
-0.810317 2.05299 -3.35971
-0.8015 2.16823 -2.28057
-0.792741 2.36974 -0.961882
-0.779614 2.58709 0.340561
-0.77425 2.76365 1.65951
-0.791411 2.86201 2.73926
-0.816986 2.93657 3.83369
0.820669 -0.109663 -3.01999
0.839635 -0.0150386 -1.92957
0.838535 0.0152161 -0.523522
0.858076 -0.0280053 0.895902
0.826228 0.0131743 2.30226
0.769337 0.096214 3.39534
0.736492 0.189491 4.47907
0.814459 0.24243 -3.0752
0.740962 0.564435 3.28318
0.717243 0.652367 4.36931
0.794177 0.910661 -3.16413
0.687061 1.52468 3.0395
0.69355 1.59003 4.14072
0.789666 2.053 -3.35971
0.786825 2.16825 -2.28057
0.771132 2.36976 -0.961882
0.747574 2.5871 0.34056
0.727558 2.76366 1.65951
0.716292 2.86201 2.73926
0.707795 2.93657 3.83369
1.64732 -0.115215 -3.01584
1.664 -0.0247238 -1.92353
1.65675 0.0149186 -0.524332
1.66659 -0.0075133 0.887786
1.63172 0.0328991 2.28807
1.57421 0.108996 3.38572
1.53526 0.197136 4.4735
1.64173 0.243419 -3.07392
1.66446 0.347767 -1.98862
1.64044 0.420284 -0.601919
1.64725 0.431863 0.790564
1.60761 0.496107 2.1785
1.54379 0.573448 3.27524
1.51236 0.657402 4.36511
1.61421 0.930317 -3.17207
1.61737 1.02878 -2.08411
1.58718 1.19052 -0.741176
1.53715 1.32473 0.597211
1.4846 1.44931 1.94138
1.47306 1.52062 3.04077
1.47559 1.58819 4.141
1.59177 2.07039 -3.36756
1.58413 2.18667 -2.28922
1.5598 2.37984 -0.967096
1.52438 2.58531 0.341186
1.49517 2.75515 1.66398
1.48379 2.85377 2.74372
1.4795 2.93052 3.83693
-0.833407 0.67 -2.03542
0 0.348583 -2.00142
-0.855264 0.374185 -1.29623
-0.816324 0.968195 2.12763
0 0.469858 2.20275
-0.873097 0.420793 1.49884
-1.54972e-05 1.04403 -2.12403
-0.799215 1.08641 -1.39833
0 1.4936 1.96721
-0.704377 1.39093 1.26833
0.83354 0.67 -2.03557
0.855267 0.374181 -1.29623
0.816338 0.968195 2.12764
0.873101 0.420789 1.49884
0.799186 1.08641 -1.39833
0.704377 1.39093 1.26833
-0.83462 0.427049 0.101305
-0.849198 0.792276 -0.664565
-8.83767e-07 0.308458 -0.597464
-0.849331 0.862313 0.70087
5.30392e-06 0.328122 0.800073
-0.760779 1.24765 -0.0650001
7.8404e-06 1.47178 -0.731667
2.78948e-06 1.64344 0.601667
0.834621 0.427048 0.101305
0.848913 0.792295 -0.664565
0.847563 0.862316 0.70087
0.760783 1.24767 -0.0650001
-0.866472 0.731138 -1.34728
-0.84644 0.827295 0.0181524
-0.83905 0.915254 1.38359
-4.41883e-07 0.339726 -1.29623
2.21008e-06 0.300451 0.101305
2.65196e-06 0.336552 1.49884
-7.7486e-06 0.67 -2.20397
0 0.968195 2.18192
-3.8284e-06 1.1431 -1.39833
5.31494e-06 1.64344 -0.0650001
1.39474e-06 1.64301 1.26833
0.866472 0.731148 -1.34728
0.846362 0.827305 0.0181524
0.83904 0.915255 1.38359
-1.25902 0.351376 -1.99181
-0.852498 0.169979 -1.96229
-0.854041 0.298713 -2.5351
-1.21778 0.485555 2.18805
-0.835576 0.244088 2.24994
-0.838074 0.519718 2.74039
-1.20577 1.00688 -2.07456
-0.814006 0.947828 -2.61456
-0.799569 1.57662 -2.17278
-1.07823 1.45535 1.93819
-0.733631 1.49303 2.48725
-0.724625 2.11252 1.79725
0.848987 0.169981 -1.96229
0.836398 0.298715 -2.5351
1.2614 0.351383 -1.99181
0.830614 0.244087 2.24994
0.787981 0.519718 2.74039
1.2213 0.485554 2.18805
0.795892 0.94783 -2.61456
0.792216 1.57662 -2.17278
1.20749 1.00689 -2.07456
0.681031 1.49304 2.48725
0.701279 2.11253 1.79725
1.0798 1.45535 1.93819
-1.231 0.417476 -0.599691
-0.828572 0.214949 -0.560492
-1.25301 0.418502 0.795319
-0.858315 0.18857 0.847988
-1.18235 1.18017 -0.736422
-0.787786 1.76981 -0.846774
-1.13059 1.3221 0.599439
-0.756194 1.95329 0.471114
0.834704 0.214951 -0.560493
1.23566 0.417485 -0.599691
0.865364 0.188562 0.847988
1.25995 0.418496 0.795319
0.776989 1.76983 -0.846774
1.18501 1.18021 -0.736422
0.740176 1.9533 0.471114
1.13496 1.32212 0.599439
-1.66067 -0.0699816 -2.46969
-1.66087 0.0640895 -3.04488
-1.25253 -0.112448 -3.01792
-1.65044 -0.00491327 -1.22393
-1.66024 0.161508 -1.95608
-1.25371 -0.0198885 -1.92655
-1.64302 0.00369928 0.181727
-1.63561 0.217589 -0.563126
-1.23319 0.0150616 -0.523927
-1.63751 0.0126958 1.58793
-1.63966 0.212177 0.839175
-1.24496 -0.0177551 0.891844
-1.62642 0.0709489 2.83689
-1.61482 0.264506 2.23328
-1.23261 0.0230391 2.29517
-1.62626 0.153065 3.92961
-1.61561 0.341222 3.33048
-1.23148 0.102605 3.39053
-1.62515 0.427267 4.4193
-1.23767 0.193312 4.47628
-1.66043 0.295579 -2.53127
-1.64831 0.586854 -3.123
-1.25545 0.242916 -3.07456
-1.64541 0.384011 -1.29527
-1.63681 0.688254 -2.03637
-1.63225 0.426067 0.0943222
-1.60649 0.805373 -0.671548
-1.61697 0.463988 1.48453
-1.5809 0.878287 0.693887
-1.60401 0.534779 2.72687
-1.54102 0.972708 2.05994
-1.61449 0.615424 3.82017
-1.57528 1.04703 3.158
-1.22431 0.568942 3.27921
-1.6074 1.12279 4.25305
-1.235 0.654883 4.36721
-1.62468 0.979529 -2.62809
-1.62224 1.50034 -3.26981
-1.23292 0.920478 -3.1681
-1.59789 1.10962 -1.41264
-1.60468 1.6077 -2.18666
-1.55514 1.25759 -0.0719828
-1.57862 1.78515 -0.854136
-1.50494 1.38701 1.26929
-1.53833 1.955 0.469198
-1.51228 1.48496 2.49107
-1.50791 2.10222 1.80268
-1.56818 1.5544 3.59088
-1.54729 2.18719 2.89225
-1.16768 1.52265 3.04013
-1.58728 2.25935 3.98897
-1.21302 1.58911 4.14086
-1.60223 2.1285 -2.82839
-1.20966 2.06168 -3.36363
-1.58541 2.28323 -1.62816
-1.19848 2.17744 -2.28489
-1.56181 2.48255 -0.312955
-1.18406 2.37478 -0.964489
-1.5413 2.67021 1.00258
-1.16393 2.58619 0.340873
-1.54292 2.80445 2.20385
-1.1543 2.75939 1.66174
-1.56639 2.89213 3.29033
-1.17144 2.85788 2.74149
-1.19914 2.93354 3.83531
-0.845574 -0.0623545 -2.47478
-0.847117 0.066379 -3.04759
-0.011911 -0.109665 -3.01999
-0.836463 8.63845e-05 -1.22655
-0.00351092 -0.01504 -1.92957
-0.835129 -0.00639273 0.18619
0.00613296 0.0152152 -0.523521
-0.84007 -0.00741175 1.59908
0.00704364 -0.0280024 0.895902
-0.837683 0.0546952 2.8488
-0.00496173 0.0131752 2.30226
-0.842888 0.142852 3.93721
-0.840181 0.330325 3.33926
-0.0349387 0.0962141 3.39534
-0.847522 0.420928 4.42419
-0.0550351 0.189491 4.47907
-0.840059 0.57654 -3.11967
-0.0176423 0.242428 -3.0752
-0.844815 0.608401 3.82625
-0.816705 1.04456 3.16134
-0.0500929 0.564435 3.28318
-0.840623 1.1212 4.25502
-0.0656191 0.652366 4.36931
-0.820345 1.48182 -3.26192
-0.0180986 0.910658 -3.16413
-0.812513 1.55736 3.59011
-0.791836 2.19334 2.88938
-0.0526 1.52468 3.03949
-0.824876 2.2633 3.98721
-0.0696072 1.59003 4.14072
-0.805908 2.11061 -2.82014
-0.0103252 2.05299 -3.35971
-0.797121 2.26899 -1.62122
-0.00733785 2.16824 -2.28057
-0.786178 2.47842 -0.310661
-0.0108048 2.36975 -0.961882
-0.776932 2.67537 1.00003
-0.0160205 2.5871 0.34056
-0.78283 2.81283 2.19938
-0.0233462 2.76366 1.65951
-0.804199 2.89929 3.28647
-0.0375595 2.86201 2.73926
-0.0545959 2.93657 3.83369
0.830152 -0.0623507 -2.47478
0.817564 0.0663834 -3.04759
1.23399 -0.112439 -3.01791
0.839085 8.87771e-05 -1.22655
1.25182 -0.0198812 -1.92655
0.848306 -0.00639455 0.18619
1.24764 0.0150674 -0.523927
0.842152 -0.00741546 1.59908
1.26234 -0.0177593 0.891844
0.797782 0.0546942 2.8488
1.22897 0.0230367 2.29517
0.752914 0.142853 3.93721
0.75515 0.330325 3.33926
1.17178 0.102605 3.39053
0.726868 0.420929 4.42419
1.13587 0.193313 4.47628
0.804318 0.576545 -3.11967
1.22809 0.242924 -3.07456
0.729103 0.608401 3.82624
0.714012 1.04456 3.16134
1.14238 0.568942 3.27921
0.705397 1.1212 4.25502
1.1148 0.654884 4.36721
0.791921 1.48183 -3.26192
1.20419 0.920489 -3.1681
0.690306 1.55736 3.59011
0.701677 2.19335 2.88938
1.08006 1.52265 3.04013
0.700673 2.2633 3.98721
1.08457 1.58911 4.14086
0.788245 2.11062 -2.82014
1.19072 2.0617 -3.36363
0.778978 2.269 -1.62122
1.18548 2.17746 -2.28489
0.759353 2.47843 -0.310661
1.16546 2.3748 -0.964489
0.737566 2.67538 1.00003
1.13598 2.58621 0.340873
0.721925 2.81284 2.19938
1.11137 2.75941 1.66174
0.712043 2.89929 3.28647
1.10004 2.85789 2.74149
1.09365 2.93355 3.83531
1.65566 -0.0699695 -2.46969
1.64452 0.064102 -3.04488
1.66037 -0.00490259 -1.22393
1.66423 0.161521 -1.95608
1.66167 0.00370267 0.181727
1.64859 0.217602 -0.563126
1.64915 0.0126929 1.58793
1.65692 0.212175 0.839175
1.60296 0.0709475 2.83689
1.61966 0.264503 2.23328
1.55474 0.153066 3.92961
1.559 0.341222 3.33048
1.52381 0.427269 4.4193
1.65309 0.295593 -2.53127
1.62797 0.586868 -3.123
1.65245 0.384026 -1.29527
1.64091 0.688272 -2.03637
1.64384 0.426074 0.0943221
1.61381 0.805401 -0.671548
1.62743 0.463985 1.48453
1.5922 0.878296 0.693887
1.5757 0.534778 2.72687
1.5461 0.972708 2.05994
1.52807 0.615425 3.82017
1.50843 1.04704 3.158
1.49397 1.1228 4.25305
1.61579 0.979547 -2.62809
1.60299 1.50036 -3.26981
1.60227 1.10965 -1.41264
1.60075 1.60772 -2.18666
1.56216 1.25762 -0.0719829
1.57349 1.78518 -0.854136
1.51088 1.38702 1.26929
[...]
POINT_DATA 29498
VECTORS point_vectors float
-3.51371 -3.40957 10.3573
0.618985 0.0756003 2.15265
-1.08422 0.542171 2.61084
0.05562 -0.0505351 0.738178
3.52018 -3.41399 10.3787
-0.619478 0.0755567 2.16264
1.07884 0.540019 2.60095
-0.0554145 -0.0514107 0.730837
0 0 0
0.0328495 -0.102294 0.717578
0.00167558 0.00515623 0.0232011
0 0 0
0 0 0
-0.0370911 -0.102789 0.72384
-0.00168141 0.00519695 0.0234315
0 0 0
-0.69706 -0.403557 20.0213
-1.12383 -0.688204 20.8047
-0.40502 -0.383134 21.5348
0.097472 -0.149022 21.7031
0.649133 0.0860487 21.6785
0.965062 0.277477 21.3418
1.03864 0.0705695 21.1295
-0.812302 -0.296553 19.8772
-1.54482 -0.561832 20.7493
-0.594906 -0.479862 21.579
0.0192341 -0.310212 21.7803
0.702148 -0.243683 21.8348
1.25581 -0.175626 21.3903
1.21732 -0.124789 21.2143
-0.863298 0.0516199 19.7191
-1.89243 0.160096 20.4961
-1.30286 -0.298509 21.5418
-0.418597 -0.395241 21.8036
0.0548111 -0.555938 21.7834
0.599061 -0.69816 21.273
0.605256 -0.649432 20.683
-0.428623 0.263927 19.9727
-0.774927 0.528777 20.3087
-0.8239 0.458094 21.0362
-0.47349 0.164368 21.528
-0.173961 -0.0903173 21.4523
-0.0280849 -0.222065 21.4707
0.119852 -0.275492 21.3371
-0.78243 -0.947054 19.3968
-1.71354 -2.57328 21.5198
-0.461149 -0.396423 21.483
0.242552 0.155634 21.075
0.954452 1.12127 21.0035
1.74429 1.72731 19.164
1.73553 1.18383 18.4496
-0.99653 -0.801737 18.9007
2.54966 0.269533 12.8074
2.4986 0.487646 16.1042
-1.03456 0.192735 18.6551
-0.132177 -1.54392 11.8865
0.545497 -2.03645 16.2645
-0.386609 0.500714 19.6465
-0.805448 1.22944 19.9856
-0.990993 1.36365 21.0091
-0.468268 0.467536 21.7353
-0.155786 0.0154272 21.5608
-0.0770424 -0.117292 21.6596
-0.0194155 -0.315081 21.569
0.771665 -0.955902 19.3703
1.71362 -2.59819 21.5316
0.46176 -0.384285 21.521
-0.242695 0.149448 21.1482
-0.940981 1.13612 20.9737
-1.70709 1.87436 18.9637
-1.75358 1.29345 17.4486
1.00224 -0.83621 18.8438
-2.44879 0.472358 10.2108
-2.65495 0.79318 14.8149
1.02784 0.209301 18.5786
0.39072 -1.18111 7.71923
-0.517468 -2.21676 12.1564
0.38186 0.505782 19.6402
0.800643 1.2481 19.974
0.986634 1.38538 21.01
0.461406 0.483929 21.7428
0.147953 0.0316124 21.5717
0.0536514 -0.109311 21.5726
-0.00979047 -0.303204 21.5052
0.709482 -0.406563 20.0066
1.1307 -0.682215 20.8026
0.409956 -0.382778 21.5335
-0.0901456 -0.144685 21.6955
-0.646642 0.0893446 21.6774
-1.01009 0.295588 21.3738
-1.12069 0.0711465 21.0194
0.817559 -0.315286 19.8551
1.54947 -0.564928 20.7392
0.596072 -0.471759 21.581
-0.0108263 -0.307991 21.7781
-0.698648 -0.245192 21.8424
-1.35793 -0.194303 21.4459
-1.27525 -0.171244 21.2567
0.871003 0.053001 19.7106
1.89271 0.148906 20.5075
1.29066 -0.293668 21.5454
0.412059 -0.393197 21.8106
-0.0606922 -0.556345 21.8009
-0.598665 -0.756702 21.6403
-0.651526 -0.690373 20.9384
0.430439 0.267967 19.9681
0.777341 0.534908 20.2976
0.830915 0.478341 21.0378
0.47808 0.179507 21.5284
0.175422 -0.0941692 21.4498
0.0214899 -0.209924 21.411
-0.111215 -0.285358 21.3244
0 0 0
6.41037e-05 -0.0316695 0.269343
-0.0181825 0.0164647 1.44054
0.142319 -0.228371 0.831671
0.000139111 -0.0326301 -0.00952348
0.0163808 -0.016471 0.798837
0.00268426 0.280001 0.694525
-0.785272 -0.742017 1.88799
0.000224725 0.0250802 -0.0176608
0.00122907 0.00302413 0.0345132
0 0 0
0.0173005 0.0154566 1.44044
-0.143577 -0.227522 0.835926
-0.0163581 -0.016358 0.799139
0.784645 -0.741848 1.88656
-0.00120853 0.00298196 0.0338569
0 0 0
0 0 0
0 0 0
0.00297267 0.0219436 0.160102
0 0 0
0.0127968 0.035857 0.0516777
4.01114e-06 0.00426885 0.00525516
0 0 0
0 0 0
-4.16234e-06 2.51364e-06 0.000483293
-0.000192283 0.00304089 0.0233722
-0.0127454 0.0356259 0.051592
-1.136e-05 -0.000191457 0.000983158
2.9598e-05 0.000272769 0.00108839
0 0 0
-3.79864e-09 3.2756e-08 -6.54826e-06
1.06614e-08 2.08552e-07 -8.46297e-05
-2.28136e-07 -2.49741e-07 -4.10586e-05
0 0 0
-3.67224e-05 -0.056019 0.00621388
-1.45575e-05 7.01949e-05 0.000431974
0 0 0
-2.80486e-07 9.78683e-08 -6.81677e-05
1.12067e-05 -0.000189313 0.000970895
-3.14051e-05 0.000290071 0.00115733
0 0 0
-2.68476 -1.34585 21.0609
-2.79377 -3.74641 22.0688
-2.72393 -2.31161 18.1003
1.23231 -0.203955 20.5337
1.62244 1.07001 14.9938
1.5981 0.0829545 8.86852
-3.69974 0.774346 20.4553
-2.92296 1.13037 16.9931
-1.9484 2.37247 19.6864
-0.135224 -0.656659 19.9501
-0.894971 -0.951704 6.85151
-0.387913 -0.0767511 21.8377
2.79765 -3.77429 22.0869
2.7256 -2.39229 18.0224
2.67848 -1.33669 21.0643
-1.61065 1.08772 14.8511
-1.33187 0.0309922 6.40456
-1.22816 -0.204821 20.602
2.91424 1.15938 16.8883
1.94237 2.39322 19.6789
3.68558 0.769962 20.4502
1.34809 -1.15419 4.90983
0.388271 -0.0621508 21.8441
0.132015 -0.665017 20.0274
-0.400036 -0.752123 21.7303
0.155954 -0.0286885 11.8735
0.177012 -0.382811 21.2133
0.935042 -0.0399384 14.562
-2.20444 -0.973717 21.9051
-2.93347 2.32855 20.976
-0.665163 -0.780619 20.8653
-0.930645 0.443613 22.2398
-0.149594 -0.0243099 12.1987
0.409304 -0.751745 21.7648
-0.909837 -0.0598927 14.8025
-0.171144 -0.387385 21.3256
2.9675 2.41219 20.9563
2.19144 -0.9618 21.8863
0.934772 0.463275 22.2644
0.658542 -0.763771 20.861
-1.01516 -0.611735 20.2971
-0.765122 -0.370249 19.9453
-0.811175 -0.627612 19.7579
-0.76774 -0.543696 21.3233
-1.29991 -0.667866 20.804
-1.51311 -1.28548 21.0143
-0.137194 -0.258036 21.6343
-0.466809 -0.425914 21.5617
-0.346754 -0.418304 21.7559
0.340616 -0.0468316 21.75
0.0835676 -0.22273 21.7184
0.209355 -0.0732745 21.862
0.873846 0.190845 21.5013
0.755031 -0.053861 21.7814
0.975292 0.434419 21.8179
1.10939 0.137411 20.7603
1.20056 0.102425 21.3248
1.3866 0.662795 21.4974
1.21118 0.0235922 21.3561
1.23504 0.422392 21.6088
-1.30612 -0.487323 20.1126
-0.879063 -0.175075 19.7501
-1.00877 -0.551165 19.5018
-1.07998 -0.552778 21.377
-1.85349 -0.311558 20.6386
-0.246715 -0.382445 21.6965
-0.905802 -0.505289 21.6132
0.324054 -0.27272 21.8786
-0.166621 -0.400148 21.8258
0.998795 -0.196779 21.7221
0.451708 -0.524157 21.8725
1.29383 -0.106501 21.3165
1.03829 -0.649018 21.5464
1.79146 0.0658888 20.8264
0.89189 -0.418189 21.3208
1.99018 -0.286224 19.4803
-1.45893 0.131697 19.8644
-0.647 0.250297 19.8202
-1.05999 0.125191 19.2764
-1.63788 -0.0709556 21.1713
-1.31562 0.555763 20.302
-0.816414 -0.390125 21.7843
-1.31321 0.302367 21.2513
-0.179568 -0.439525 21.7942
-0.584025 -0.0471371 21.6626
0.285132 -0.65088 21.6798
-0.151699 -0.275114 21.6323
0.784738 -0.766007 22.3913
0.137193 -0.452873 21.6016
0.626255 -1.0772 21.0958
0.237895 -0.701814 20.6708
0.591585 -1.40176 21.5936
-0.617572 0.409077 20.0757
-0.439531 0.411286 19.8153
-0.84201 0.550834 20.658
-0.869473 0.852645 20.1616
-0.685363 0.325424 21.3658
-0.978897 0.818768 21.0525
-0.300751 0.0202735 21.4946
-0.46168 0.275832 21.6266
-0.0832095 -0.193125 21.4756
-0.213487 -0.0733124 21.5977
0.0401675 -0.257209 21.4019
-0.0396293 -0.191887 21.4748
0.0901101 -0.29614 21.284
-1.51071 -2.09496 19.5776
-0.901404 -0.911609 19.1214
-0.0161648 -1.41274 18.9136
-0.966046 -1.06528 21.9297
-0.00500726 -3.7999 22.0394
-0.0754707 -0.119788 20.9284
0.00485692 -0.784724 20.3985
0.509804 0.451118 21.1091
0.0001773 0.041975 19.5307
1.31681 1.41628 20.7988
0.00418269 1.01298 18.715
1.39738 1.32959 18.4311
2.31521 1.63127 17.2858
0.0255907 2.1911 17.2693
2.14633 1.11056 16.5698
0.290393 2.24161 17.0955
-1.1511 -0.363243 18.5901
-0.0239445 -1.26995 18.0793
2.5319 1.16157 13.9904
1.01559 -0.855689 8.28131
0.326888 1.24046 1.66827
2.15376 -1.16019 14.3924
0.343959 3.00568 7.4706
-0.660326 0.544628 19.1931
-0.0254624 0.384624 17.7371
0.647652 -1.64762 14.3344
-0.112405 -0.531052 21.758
-0.166884 1.03623 -7.699
0.266955 -0.817929 21.4529
0.076748 4.04653 -4.03007
-0.584488 0.878853 19.688
-0.00418602 0.669102 19.4978
-0.94917 1.33702 20.4711
-0.00704137 1.67795 19.8038
-0.769622 0.993796 21.6091
-0.0171317 2.12029 20.8882
-0.28521 0.179199 21.684
-0.0120085 0.752183 21.8786
-0.121344 -0.11569 21.6527
-0.00930109 0.101934 21.6778
0.169606 -0.422446 20.9905
-0.0241773 -0.173688 21.7522
-0.04267 -0.409851 21.0545
1.5001 -2.14968 19.5572
0.891247 -0.929134 19.0918
0.811667 -0.644417 19.7409
0.967983 -1.05797 21.9288
1.52085 -1.2966 21.013
0.0867916 -0.113573 21.0679
0.35074 -0.420719 21.7499
-0.507971 0.451045 21.119
-0.202297 -0.0767986 21.8689
-1.29164 1.48543 20.4639
-0.976263 0.438879 21.8167
-1.24152 1.55747 18.3055
-2.26831 1.83726 15.5906
-1.4486 0.794325 21.5949
-2.29824 1.33429 15.513
-1.36182 0.628998 20.9394
1.15487 -0.375978 18.5165
1.01599 -0.559349 19.4635
-2.4989 1.65301 12.1217
-0.66101 -0.467273 4.5314
-2.11837 0.146194 19.5947
-2.35662 -1.15606 10.055
-2.15024 -0.0480139 18.4459
0.649264 0.561188 19.1645
1.06113 0.139203 19.234
-0.440223 -1.67342 11.105
0.230883 -0.454784 21.9524
-0.60551 -1.09524 20.4538
-0.0254433 -0.88048 21.4427
-0.578224 -1.73444 21.9128
0.576343 0.890992 19.6726
0.438431 0.415994 19.8075
0.943144 1.36367 20.4716
0.87025 0.866792 20.1536
0.763836 1.02642 21.6156
0.970908 0.84158 21.0574
0.275218 0.19552 21.6837
0.465146 0.297226 21.6282
0.127186 -0.10756 21.6382
0.211159 -0.0606472 21.6039
-0.141201 -0.407694 20.9414
0.0572321 -0.181652 21.5308
-0.0844466 -0.331414 21.2714
1.02613 -0.610098 20.2807
0.780804 -0.37086 19.9429
0.766702 -0.534427 21.3161
1.30607 -0.658419 20.774
0.136817 -0.257251 21.6312
0.469605 -0.417043 21.5585
-0.338136 -0.0436459 21.7507
-0.0736556 -0.217243 21.7177
-0.890295 0.20352 21.5013
-0.739192 -0.0542898 21.7766
-1.18619 0.135987 20.691
-1.23993 0.129815 21.3644
-1.29912 0.0380803 21.2928
1.31739 -0.502545 20.1036
0.88463 -0.173767 19.7408
1.08228 -0.55168 21.375
1.84343 -0.309718 20.651
0.253628 -0.381441 21.6952
0.896204 -0.50178 21.614
-0.321588 -0.278848 21.8758
0.163748 -0.400285 21.8296
-1.03224 -0.198554 21.771
-0.454025 -0.515134 21.8834
-1.30174 -0.117868 21.4706
-1.07638 -0.685612 21.7594
-0.998035 -0.488596 21.2141
1.46833 0.134083 19.868
0.65372 0.260396 19.8222
1.63032 -0.0768043 21.1815
1.3187 0.555247 20.3032
0.808209 -0.385435 21.7825
1.31465 0.313109 21.2489
0.176738 -0.434505 21.7815
0.590479 -0.0441399 21.6825
-0.288635 -0.674357 21.7596
0.160347 -0.279519 21.6522
-0.827543 -0.854365 22.0653
-0.127897 -0.468313 21.6441
-0.191063 -0.771636 20.9453
0.616343 0.414546 20.0747
0.859588 0.543782 20.6751
0.671249 0.331669 21.3535
0.29974 0.0259301 21.4724
0.0919626 -0.191475 21.504
-0.0290078 -0.261617 21.4252
-1.1403 -0.572003 20.2132
-2.0631 -2.39372 18.9898
-1.35744 -1.14198 20.0698
-2.03067 -1.03622 19.5662
-0.929885 -0.601426 19.608
-2.04624 -1.4225 21.0629
-0.89351 -0.565619 21.3556
-0.747498 -0.535276 18.2372
-0.847115 -0.774011 21.6253
-1.17059 -0.944745 21.8752
-0.337995 -0.538389 21.8406
-0.16087 -0.314625 21.6671
0.419545 -0.170041 12.5766
-0.0543048 -0.222522 21.7866
-0.0159401 -0.494994 21.2647
0.253288 -0.225684 21.7964
0.367502 -0.162859 21.7974
0.864736 0.151426 14.5565
0.528753 0.130591 21.917
0.537707 -0.289875 20.9607
1.23741 0.192892 21.5807
0.994926 0.00940824 21.6314
1.994 1.26948 16.0041
1.27134 0.585763 21.4579
1.6641 -0.153999 20.6334
1.71486 0.381145 20.8607
1.23219 0.0910199 21.3093
2.09309 1.22568 16.3136
1.60779 0.511334 21.1291
1.99107 -0.00788886 20.8224
1.64268 0.338852 19.9447
-1.47247 -0.249807 19.9564
-3.51031 -0.889319 16.6061
-2.22877 0.364451 19.0699
-1.11383 -0.251879 19.2933
-3.87747 -0.604302 20.87
-1.43028 -0.423525 21.3687
-2.39642 -0.18834 21.5546
-0.966182 -0.953426 20.8108
-0.480987 -0.4506 21.7722
-1.25069 -0.967361 21.5631
0.0356355 -0.579839 19.9916
0.103362 -0.428794 21.8707
-0.343174 -0.572188 20.1486
0.728836 -0.735496 19.4537
0.727224 -0.580869 21.7695
0.0698379 -2.06015 5.04272
0.0592994 -0.875115 20.8927
1.44237 -0.916592 20.3409
1.22702 -0.611688 21.2873
1.88355 -0.877462 10.6473
0.941501 -1.30448 20.6
1.95447 -1.03692 19.75
-1.01065 0.431839 19.9481
-1.28007 1.38869 18.9898
-0.663862 0.624574 19.8963
-0.721081 0.389257 19.5279
-1.75744 1.15512 20.0623
-1.37341 0.459024 20.824
-2.18023 1.94867 20.4773
-0.962029 0.902864 20.5764
-2.00732 0.802265 21.3006
-0.986192 0.112584 21.6055
-1.94358 1.30969 22.5703
-0.777014 0.595872 21.4733
-0.786474 0.113225 21.9114
-0.336369 -0.168992 21.6623
-0.553056 0.132791 21.9831
-0.308965 0.0682921 21.5741
-0.276004 -0.230206 21.7458
-0.00219523 -0.358816 21.5896
-0.327109 -0.235817 21.8169
-0.119851 -0.172519 21.6718
0.0199923 -0.498857 21.6177
0.281355 -0.468628 21.4199
-0.0242606 -0.693204 21.5441
0.0113939 -0.277286 21.6939
0.186254 -0.59329 22.4299
2.06784 -2.4568 18.9445
-0.0165252 -3.45259 19.0933
-0.0415862 -4.75891 15.6947
-0.0262258 -1.38644 18.4937
-0.00513325 -5.13832 23.4538
0.744612 -0.533627 18.2655
0.00425704 -1.68376 22.3197
0.000701822 -0.225809 9.10657
-0.402897 -0.170873 12.9001
0.00507236 -0.371204 19.9556
-0.00387925 0.248832 9.39629
-0.861939 0.151273 14.5689
-0.000639539 0.327559 19.0348
0.00289573 0.773113 7.96243
-1.96854 1.39495 15.1523
0.0151804 1.45738 17.6665
0.00562255 -0.183095 1.4387
0.0348214 2.05876 9.85174
-2.1341 1.68489 14.7012
0.110886 2.53027 16.5372
0.666568 2.10726 4.73252
0.320392 2.19453 12.9825
3.50913 -0.913677 16.4395
-0.0444063 2.3519 14.17
-0.0265582 -0.565807 17.5808
0.139435 -2.18387 3.18473
-0.110887 0.754636 -5.69183
0.0597375 1.70981 -2.71545
-1.55779 -0.62469 6.0608
-0.0686826 -0.882148 -4.36574
0.0681129 4.07756 -0.457599
1.26827 1.42675 18.9662
-0.00565434 1.17707 19.4678
-0.0154789 0.876145 18.769
-0.0099187 3.79308 19.1551
2.17834 1.9777 20.4679
-0.0103537 1.92105 20.2878
-0.0239584 5.07974 20.0966
1.95735 1.35888 22.604
-0.0206798 1.56236 21.7759
-0.015895 1.07402 22.4465
0.555224 0.147934 22.0055
-0.0118862 0.328917 21.7889
-0.00987055 0.295312 21.4951
0.345221 -0.202669 21.8398
-0.0162707 -0.0627867 21.74
-0.0153059 -0.0289055 21.7018
-0.00552781 -0.691732 21.2715
0.0320515 -0.300329 21.3158
0.0424865 -0.57906 20.8859
1.15535 -0.582218 20.2203
1.37001 -1.15891 20.0605
2.06794 -1.06228 19.532
0.932606 -0.621743 19.5856
2.05028 -1.42153 21.0658
0.893544 -0.554894 21.3587
0.847791 -0.776355 21.6228
1.17639 -0.94178 21.8701
0.350191 -0.538892 21.8418
0.166369 -0.309823 21.6634
0.0552147 -0.227497 21.7832
0.027 -0.500226 21.3466
-0.239964 -0.230975 21.8236
-0.358412 -0.158056 21.7902
-0.524708 0.126463 21.9179
-0.532484 -0.294407 21.0416
-1.23576 0.193389 21.5821
-1.0118 0.0176442 21.6553
-1.30584 0.661768 21.441
-1.73154 -0.132006 20.081
-1.88226 0.561834 20.0387
-1.31443 0.081552 21.2215
-1.59121 0.592833 21.2746
-2.26325 0.125367 19.6576
-1.78445 0.565477 18.9669
1.48946 -0.25417 19.9667
2.25364 0.384382 19.0271
1.12588 -0.261695 19.2473
3.85824 -0.60052 20.8725
1.42398 -0.418547 21.3728
2.39099 -0.188674 21.546
0.970593 -0.947163 20.9083
0.476065 -0.447064 21.7747
1.24832 -0.948385 21.5824
-0.0296351 -0.59223 20.1207
-0.109398 -0.427492 21.8707
0.343049 -0.585466 20.226
-0.730141 -0.738321 19.5313
-0.802091 -0.592808 21.834
-0.0355349 -0.855102 20.5329
-1.34806 -0.881635 19.1527
-1.28475 -0.640049 21.3685
-0.99657 -1.48111 20.0404
-2.19392 -1.25517 18.7769
1.01837 0.44243 19.9407
0.662799 0.635679 19.8892
0.721783 0.401314 19.5085
1.7658 1.16761 20.0597
1.37742 0.456692 20.8322
0.969898 0.924391 20.5617
2.02779 0.817536 21.3056
0.996371 0.113457 21.6054
0.767979 0.619164 21.4744
0.791326 0.119521 21.9211
0.336791 -0.171296 21.6485
0.311723 0.0788353 21.5885
0.284496 -0.228203 21.754
0.0179713 -0.368756 21.6038
0.12728 -0.167541 21.6739
0.00253163 -0.502145 21.6336
-0.255686 -0.495404 21.3922
-0.00030455 -0.307704 21.6517
-0.235778 -0.701224 22.2504
-1.68919 -1.15834 19.8301
-0.985161 -0.849125 21.7332
0.000775681 -0.328439 21.7857
0.618168 -0.073226 21.7834
1.56117 0.308617 21.2445
2.0378 0.320761 20.5826
-2.40714 -0.403447 19.1327
-2.00672 -0.825945 22.1853
-0.272379 -0.826707 20.3205
0.299653 -0.501312 19.6416
1.05543 -0.952034 20.1819
1.87704 -0.921338 20.1047
-1.23565 0.799834 19.5507
-1.8874 0.982653 20.7403
-1.43519 0.448197 21.9318
-0.459347 -0.084244 21.8124
-0.142373 -0.373451 21.6743
0.140525 -0.715022 21.7339
-0.0252921 -4.44052 17.9049
0.00311815 -0.727571 13.1553
-0.00296315 -0.075401 8.78194
0.000474639 0.197934 9.10976
0.00302353 0.805104 8.47774
0.128212 2.31216 10.1903
-0.049009 -1.48635 12.5674
-0.0172563 0.363956 -1.58344
-0.0302485 3.78392 -2.74794
-0.0163039 2.25214 18.2753
-0.018968 3.42823 19.8869
-0.019096 2.76267 23.1337
-0.00891415 0.523942 22.0084
-0.0311996 0.284078 21.4878
-0.0218171 -0.63531 21.1332
1.71044 -1.18434 19.8157
0.988704 -0.847198 21.7302
0.0102918 -0.336503 21.8015
-0.612031 -0.0764968 21.8245
-1.63344 0.382814 21.0482
-2.24633 0.424125 19.635
2.45902 -0.417376 19.0896
1.99913 -0.823638 22.1675
0.280049 -0.818096 20.4072
-0.299324 -0.507811 19.7291
-1.05516 -0.939553 19.3305
-2.17962 -1.13031 19.0514
1.2449 0.823756 19.5262
1.89863 0.992928 20.7427
1.45362 0.457758 21.9457
0.463172 -0.0777088 21.818
0.167174 -0.367118 21.691
-0.129632 -0.750815 21.6895
-1.72921 -0.148789 4.04404
-0.00847636 -0.0431799 0.30743
-0.00869079 0.000602685 1.08406
0.0344933 -0.0471365 0.182952
-0.00054004 0.000257569 0.00215561
0.0417541 -0.0150967 0.244871
-5.24189 0.673186 5.29957
-0.12563 0.852055 1.00118
-0.266591 -0.33149 1.17509
-0.0588563 -0.189788 0.218556
-0.0345857 0.0121602 -0.00883573
0.000451336 0.000926275 0.0476472
0.00879615 -0.0437807 0.315106
1.72833 -0.149456 4.04331
0.00894395 0.000929558 1.0831
0.000553914 0.000258441 0.00215261
-0.0342511 -0.0467169 0.182178
-0.0417633 -0.0150461 0.245179
0.125378 0.851433 1.00088
5.26825 0.677322 5.32775
0.267669 -0.331945 1.17703
0.0347698 0.0119736 -0.00873214
0.0584209 -0.190672 0.220072
-0.000441505 0.000906448 0.0474962
0.022776 0.0370505 2.59478
0 0 0
2.54682e-05 1.54754e-05 0.0067273
0 0 0
0.018877 -0.014202 0.329253
0 0 0
-0.00290027 0.0104986 0.181747
0 0 0
-1.00556 -0.384044 0.786681
0.00577214 0.0283127 0.173044
0.00357413 0.0113513 0.0192789
-0.0496478 0.0448074 0.081676
0.000581453 0.00130478 0.00717181
0.000809853 0.00290615 0.0111303
0.00246148 0.00645448 0.0130944
0.00473021 0.000443471 0.0482771
-0.0223173 0.0377489 2.59267
0 0 0
0 0 0
-2.81911e-05 2.61829e-05 0.00736547
-0.0188638 -0.0141761 0.330955
0 0 0
0 0 0
0.00292573 0.00996488 0.180351
1.00798 -0.384695 0.788925
0.0484183 0.0437893 0.0798474
-0.00734969 0.0451346 0.258712
-0.00359932 0.01141 0.0193257
-0.000561208 0.00125833 0.00694852
-0.00474592 0.00044764 0.0483455
-0.000777528 0.00279308 0.0104673
-0.00242417 0.00633894 0.0130241
-9.09843e-06 -3.0588e-05 0.00019924
0 0 0
-3.77374e-10 2.88178e-09 -3.34994e-07
-0.000964354 -0.809817 0.420972
1.17085e-06 0.00041666 0.0137244
-1.02459e-06 3.06346e-07 -1.75656e-05
0.000224766 -0.00140016 0.02119
-0.0180988 -0.0470008 0.00560664
1.1238e-07 6.32272e-06 0.000707196
0 0 0
6.73529e-06 1.1883e-05 0.00120116
7.46682e-06 9.35244e-07 0.000117367
0 0 0
2.75659e-05 0.010387 0.0704739
0 0 0
-0.00752048 0.00033319 0.00652081
3.37479e-05 -0.00359794 0.00118329
3.54917e-05 -0.000159535 0.0268346
0.000114794 0.000335253 0.00469404
3.75368e-18 8.82243e-20 7.51856e-17
0 0 0
8.52617e-06 -2.88091e-05 0.000186944
9.5998e-07 2.93725e-07 -1.6918e-05
-1.77294e-06 0.000408256 0.0136728
0.0181282 -0.0464717 0.00553788
-0.000226651 -0.00140653 0.0213236
-5.18316e-06 6.57047e-07 8.22657e-05
-6.28047e-06 1.11834e-05 0.00111735
0.00752961 0.00033476 0.00654135
0 0 0
0 0 0
-0.000115883 0.000339157 0.0045153
0.00196645 0.0125206 0.103098
0 0 0
0 0 0
0 0 0
2.40789e-08 -1.91319e-06 0.00019313
1.02452e-08 2.38892e-07 -5.38402e-05
0 0 0
0 0 0
0 0 0
-1.75119e-06 3.05503e-05 0.00251899
0.000897045 0.00333272 0.00985034
0.00161102 7.35647e-05 0.0218897
0 0 0
6.95251e-05 0.00956761 0.113153
-5.91022e-08 1.25399e-07 1.12612e-05
1.17468e-07 -4.60886e-08 -2.12772e-05
0 0 0
-0.0018918 0.0127759 0.104073
0 0 0
0 0 0
0 0 0
0 0 0
-0.00128656 0.000378293 0.0239096
-0.000887858 0.00331413 0.00980558
0.000316566 -0.0018093 0.0381951
-0.00106137 -0.00181731 0.00769455
0.000884376 -0.00800804 0.0781089
-0.000487827 -0.004476 0.016375
-0.000611437 0.0121299 0.122036
0.00198577 0.011533 0.0361562
0.00351467 0.0260572 0.260976
0.00126357 0.00405019 0.0116895
8.2471e-05 0.000158754 0.0151413
0.000363562 0.00125732 0.00714451
0 0 0
-1.3581e-05 -1.06463e-05 0.0159597