# vtk DataFile Version 2.0
tet_velo
ASCII
DATASET UNSTRUCTURED_GRID
POINTS 29498 float
-0.688129 0.125 -2.085
-0.729044 0.285 2.155
-0.675 0.648357 -1.985
-0.615 0.921263 2.075
0.701479 0.125 -2.085
0.718432 0.285 2.155
0.685 0.647194 -1.995
0.595 0.919226 2.085
-0.752752 0.127349 -0.671667
-0.821301 0.125772 0.741667
-0.772173 0.856499 -0.631667
-0.735168 0.930462 0.721667
0.755967 0.129496 -0.671667
0.821463 0.122984 0.741667
0.775163 0.858034 -0.635
0.730488 0.934037 0.725
-1.43284 -0.292709 -3.20835
-1.4393 -0.223084 -2.09992
-1.49103 -0.219373 -0.685685
-1.53257 -0.220884 0.739457
-1.48957 -0.115807 2.15459
-1.47675 -0.0420705 3.26743
-1.48777 0.0125124 4.37186
-1.43001 0.0245652 -3.18061
-1.43588 0.116844 -2.07821
-1.50016 0.145328 -0.675473
-1.53261 0.142224 0.73172
-1.45087 0.23973 2.13553
-1.45323 0.311131 3.24795
-1.47791 0.365749 4.3545
-1.42646 0.622851 -3.10827
-1.43118 0.713136 -2.0023
-1.50378 0.863163 -0.640142
-1.47382 0.912967 0.716749
-1.37102 0.928571 2.08001
-1.41283 0.996872 3.19628
-1.46404 1.06297 4.31309
-1.4391 1.64371 -3.04508
-1.44869 1.74816 -1.94891
-1.47866 1.90329 -0.603525
-1.4863 2.00639 0.728565
-1.47109 2.05128 2.07433
-1.47385 2.089 3.1713
-1.4923 2.13944 4.2809
-0.705348 -0.288866 -3.21291
-0.696384 -0.215565 -2.10573
-0.735573 -0.227831 -0.684916
-0.788612 -0.232165 0.747454
-0.763714 -0.0927315 2.16848
-0.758667 -0.0257753 3.27749
-0.770151 0.0206171 4.37829
-0.706973 0.0207832 -3.18321
-0.748778 0.327994 3.25711
-0.767799 0.373275 4.36
-0.70364 0.594944 -3.10313
-0.718704 0.998103 3.19759
-0.762542 1.06477 4.31492
-0.70543 1.62603 -3.03925
-0.708588 1.73223 -1.94205
-0.738538 1.90142 -0.598953
-0.760482 2.01196 0.72895
-0.761285 2.05246 2.07202
-0.767147 2.08786 3.16914
-0.782851 2.13843 4.27974
0.726434 -0.288486 -3.21427
0.736516 -0.214994 -2.106
0.774409 -0.226557 -0.684862
0.795613 -0.233615 0.74776
0.723432 -0.0933828 2.16914
0.688035 -0.0263824 3.27952
0.66985 0.0200543 4.3809
0.708198 0.0209032 -3.18545
0.664569 0.327325 3.2599
0.654293 0.372648 4.36313
0.703438 0.594727 -3.10838
0.619774 0.997045 3.20339
0.631679 1.06411 4.31909
0.748434 1.62654 -3.0424
0.755533 1.73293 -1.945
0.742414 1.90263 -0.599953
0.697309 2.01319 0.730739
0.652416 2.05287 2.07578
0.637705 2.08782 3.17316
0.631904 2.13829 4.28337
1.45421 -0.291725 -3.2112
1.4673 -0.221649 -2.10144
1.51901 -0.217298 -0.68572
1.5485 -0.22204 0.741183
1.47577 -0.117407 2.15781
1.425 -0.0433435 3.272
1.40034 0.0114683 4.37703
1.43513 0.0252193 -3.1849
1.44412 0.117911 -2.08099
1.50623 0.148157 -0.675931
1.54452 0.141142 0.734312
1.45153 0.237806 2.1404
1.39696 0.309669 3.25392
1.38036 0.364598 4.36057
1.4296 0.623113 -3.11624
1.43701 0.713477 -2.0115
1.50454 0.866181 -0.643156
1.47508 0.915672 0.721897
1.35901 0.92671 2.0913
1.34084 0.995231 3.20594
1.34885 1.06186 4.32081
1.47602 1.64486 -3.05056
1.48464 1.74967 -1.95383
1.47942 1.90557 -0.605035
1.43416 2.00857 0.731848
1.37803 2.05209 2.08105
1.35596 2.08904 3.17865
1.34946 2.13926 4.28774
-0.72464 0.386678 -2.07808
0.006675 0.120067 -2.08993
-0.720274 0.126341 -1.37833
-0.701724 0.603131 2.1447
-0.00530601 0.282866 2.15713
-0.81545 0.165108 1.44833
0.005 0.723811 -2.06604
-0.75678 0.785622 -1.30833
-0.00999999 0.955217 2.11497
-0.707116 0.957895 1.39833
0.734895 0.386097 -2.08166
0.728887 0.127084 -1.37833
0.685828 0.602113 2.14911
0.808568 0.165372 1.44833
0.766682 0.789214 -1.315
0.695768 0.959656 1.405
-0.779948 0.133639 0.035
-0.866303 0.491924 -0.651667
0.00160798 0.138831 -0.671667
-0.87609 0.528117 0.731667
8.1371e-05 0.206739 0.741667
-0.755204 0.895014 0.045
0.00149482 1.10555 -0.633333
-0.00233986 1.33565 0.723333
0.781813 0.133143 0.035
0.877054 0.493765 -0.653333
0.873127 0.528511 0.733333
0.757228 0.900438 0.045
-0.890305 0.439301 -1.34333
-0.878019 0.510021 0.04
-0.886105 0.565624 1.42333
0.00414149 0.134413 -1.37833
0.000844676 0.148851 0.035
-0.00261232 0.219861 1.44833
0.0058375 0.386388 -2.3002
-0.007653 0.602622 2.23397
0.00324741 0.882706 -1.31167
-0.000422519 1.33461 0.045
-0.00616993 1.17198 1.40167
0.875708 0.439931 -1.34667
0.881718 0.511138 0.04
0.895702 0.565312 1.42667
-1.062 0.120922 -2.0816
-0.692257 -0.0452827 -2.09537
-0.697551 0.0728916 -2.63411
-1.08996 0.262365 2.14526
-0.746379 0.0961343 2.16174
-0.738911 0.306497 2.70606
-1.05309 0.680747 -1.99365
-0.68932 0.621651 -2.54407
-0.691794 1.19029 -1.96352
-0.99301 0.924917 2.07751
-0.666852 0.959683 2.6363
-0.688142 1.48686 2.07351
0.718998 -0.0449972 -2.0955
0.704838 0.0729516 -2.63522
1.0728 0.121455 -2.08299
0.720932 0.0958086 2.16207
0.6915 0.306162 2.70745
1.08498 0.261403 2.1477
0.694219 0.620961 -2.55169
0.720267 1.19006 -1.97
1.06101 0.680335 -2.00325
0.607387 0.958135 2.6442
0.623708 1.48605 2.08039
0.977004 0.922968 2.08815
-1.12645 0.136339 -0.67357
-0.744162 -0.0502409 -0.678291
-1.17696 0.133998 0.736694
-0.804956 -0.0531968 0.74456
-1.13798 0.859831 -0.635904
-0.755356 1.37896 -0.61531
-1.1045 0.921715 0.719208
-0.747825 1.47121 0.725309
0.765188 -0.0485304 -0.678265
1.1311 0.138826 -0.673799
0.808538 -0.0553155 0.744713
1.18299 0.132063 0.737989
0.758788 1.38033 -0.617477
1.13985 0.862108 -0.639078
0.713898 1.47361 0.727869
1.10279 0.924854 0.723448
-1.43607 -0.257897 -2.65414
-1.43142 -0.134072 -3.19448
-1.06909 -0.290788 -3.21063
-1.46517 -0.221229 -1.3928
-1.43759 -0.0531202 -2.08907
-1.06784 -0.219325 -2.10283
-1.5118 -0.220129 0.0268858
-1.49559 -0.0370225 -0.680579
-1.1133 -0.223602 -0.685301
-1.51107 -0.168346 1.44702
-1.53259 -0.03933 0.735589
-1.16059 -0.226525 0.743455
-1.48316 -0.0789387 2.71101
-1.47022 0.0619616 2.14506
-1.12664 -0.104269 2.16153
-1.48226 -0.0147791 3.81965
-1.46499 0.13453 3.25769
-1.11771 -0.0339229 3.27246
-1.48284 0.189131 4.36318
-1.12896 0.0165647 4.37508
-1.43294 0.0707047 -2.62941
-1.42823 0.323708 -3.14444
-1.06849 0.0226742 -3.18191
-1.46802 0.131086 -1.37684
-1.43353 0.41499 -2.04025
-1.51638 0.143776 0.0281238
-1.50197 0.504246 -0.657807
-1.49174 0.190977 1.43362
-1.50322 0.527596 0.724235
-1.45205 0.275431 2.69174
-1.41094 0.58415 2.10777
-1.46557 0.33844 3.80123
-1.43303 0.654001 3.22212
-1.101 0.319563 3.25253
-1.47098 0.714361 4.33379
-1.12286 0.369512 4.35725
-1.42882 0.667993 -2.55528
-1.43278 1.13328 -3.07668
-1.06505 0.608898 -3.1057
-1.46748 0.78815 -1.32122
-1.43994 1.23065 -1.9756
-1.4888 0.888065 0.0383038
-1.49122 1.38323 -0.621833
-1.42242 0.920769 1.39838
-1.48006 1.45968 0.722657
-1.39192 0.962721 2.63815
-1.42106 1.48993 2.07717
-1.43843 1.02992 3.75468
-1.44334 1.54294 3.18379
-1.06577 0.997487 3.19694
-1.47817 1.60121 4.29699
-1.11329 1.06387 4.314
-1.4439 1.69594 -2.49699
-1.07226 1.63487 -3.04217
-1.46368 1.82573 -1.27622
-1.07864 1.7402 -1.94548
-1.48248 1.95484 0.0625197
-1.1086 1.90236 -0.601239
-1.4787 2.02884 1.40145
-1.12339 2.00917 0.728758
-1.47247 2.07014 2.62281
-1.11619 2.05187 2.07317
-1.48308 2.11422 3.7261
-1.1205 2.08843 3.17022
-1.13758 2.13893 4.28032
-0.700866 -0.252216 -2.65932
-0.70616 -0.134041 -3.19806
0.0105431 -0.288676 -3.21359
-0.715979 -0.221698 -1.39532
0.020066 -0.21528 -2.10587
-0.762092 -0.229998 0.0312689
0.0194179 -0.227194 -0.684889
-0.776163 -0.162448 1.45797
0.00350095 -0.23289 0.747607
-0.761191 -0.0592534 2.72298
-0.0201409 -0.0930572 2.16881
-0.764409 -0.00257911 3.82789
-0.753722 0.15111 3.2673
-0.0353159 -0.0260789 3.2785
-0.768975 0.196946 4.36914
-0.0501506 0.0203357 4.37959
-0.705306 0.307864 -3.14317
0.00061251 0.0208432 -3.18433
-0.758288 0.350634 3.80855
-0.733741 0.663048 3.22735
-0.0421045 0.32766 3.25851
-0.76517 0.719021 4.33746
-0.056753 0.372961 4.36156
-0.704535 1.11049 -3.07119
-0.000100674 0.594836 -3.10576
-0.740623 1.03143 3.75626
-0.742926 1.54298 3.18337
-0.0494649 0.997574 3.20049
-0.772696 1.6016 4.29733
-0.0654316 1.06444 4.31701
-0.707009 1.67913 -2.49065
0.0215019 1.62628 -3.04083
-0.723563 1.81683 -1.2705
0.0234725 1.73258 -1.94352
-0.74951 1.95669 0.0649988
0.0019376 1.90203 -0.599453
-0.760883 2.03221 1.40048
-0.0315867 2.01257 0.729845
-0.764216 2.07016 2.62058
-0.0544346 2.05267 2.0739
-0.774999 2.11314 3.72444
-0.0647209 2.08784 3.17115
-0.0754734 2.13836 4.28155
0.731475 -0.25174 -2.66014
0.717316 -0.133792 -3.19986
1.09032 -0.290106 -3.21274
0.755463 -0.220776 -1.39543
1.10191 -0.218322 -2.10372
0.785011 -0.230086 0.0314489
1.14671 -0.221927 -0.685291
0.759523 -0.163499 1.45845
1.17206 -0.227828 0.744472
0.705734 -0.0598826 2.72433
1.0996 -0.105395 2.16347
0.678942 -0.00316407 3.83021
0.676302 0.150471 3.26971
1.05652 -0.034863 3.27576
0.662071 0.196351 4.37201
1.0351 0.0157613 4.37897
0.705818 0.307815 -3.14691
1.07167 0.0230613 -3.18517
0.659431 0.349986 3.81151
0.642171 0.662185 3.23165
1.03076 0.318497 3.25691
0.642986 0.71838 4.34111
1.01733 0.368623 4.36185
0.725936 1.11063 -3.07539
1.06652 0.60892 -3.11231
0.625726 1.03058 3.76124
0.62874 1.54243 3.18828
0.980306 0.996138 3.20467
0.631791 1.6012 4.30123
0.990264 1.06298 4.31995
0.751984 1.67973 -2.4937
1.11223 1.6357 -3.04648
0.748973 1.81778 -1.27248
1.12009 1.7413 -1.94941
0.719861 1.95791 0.0653929
1.11092 1.9041 -0.602494
0.674862 2.03303 1.40326
1.06574 2.01088 0.731293
0.645061 2.07035 2.62447
1.01522 2.05248 2.07842
0.634805 2.11306 3.72826
0.996834 2.08843 3.17591
0.990683 2.13878 4.28555
1.46076 -0.256687 -2.65632
1.44467 -0.133253 -3.19805
1.49316 -0.219473 -1.39358
1.45571 -0.051869 -2.09121
1.53376 -0.219669 0.0277317
1.51262 -0.0345704 -0.680826
1.51214 -0.169724 1.44949
1.54651 -0.0404492 0.737747
1.45038 -0.0803753 2.7149
1.46365 0.0601996 2.14911
1.41267 -0.0159376 3.82452
1.41098 0.133163 3.26296
1.39035 0.188033 4.3688
1.43963 0.0715652 -2.63294
1.43237 0.324166 -3.15057
1.47518 0.133034 -1.37846
1.44057 0.415694 -2.04624
1.52538 0.144649 0.02919
1.50538 0.507169 -0.659544
1.49802 0.189474 1.43736
1.5098 0.528407 0.728104
1.42424 0.273737 2.69716
1.40527 0.582258 2.11585
1.38866 0.337133 3.80725
1.3689 0.65245 3.22993
1.3646 0.713227 4.34069
1.43331 0.668295 -2.56387
1.45281 1.13399 -3.0834
1.47077 0.789829 -1.32733
1.46083 1.23157 -1.98266
[...]
POINT_DATA 29498
VECTORS point_vectors float
-2.75174 -5.82813 7.41113
0.117699 0.189188 0.675917
-1.20583 1.81006 2.88701
-0.0527641 -0.117642 0.156615
2.0929 -5.79268 7.7423
-0.148461 0.298524 1.09249
0.995093 1.70289 3.02561
0.111222 -0.106265 0.0997579
0.000611676 -6.48775e-05 0.0779277
0.106778 -0.00826078 1.10075
0 0 0
0 0 0
-0.000159115 -6.47143e-05 0.0273313
-0.127897 -0.0135755 1.36352
0 0 0
0 0 0
-0.558519 -0.311382 19.83
-1.2635 -0.892249 20.5179
-0.316595 -0.471547 21.383
0.242035 -0.138419 21.5053
0.790546 0.105507 21.3669
0.993972 0.126039 21.1514
0.888176 -0.0807325 20.7212
-0.698711 -0.244195 19.7204
-1.8685 -0.797816 20.4452
-0.558923 -0.614965 21.4335
0.166419 -0.334656 21.588
0.964324 -0.15821 21.4275
1.19337 -0.146441 21.0811
1.04747 -0.253687 20.9554
-0.837148 0.0763746 19.5853
-2.25945 0.241954 20.3513
-1.28076 -0.360641 21.3915
-0.296857 -0.452307 21.7215
0.520998 -0.735158 21.5204
0.79361 -0.693339 21.2872
0.625669 -0.526198 20.7824
-0.529022 0.388974 19.8996
-0.914613 0.668782 20.337
-0.882908 0.476857 21.0495
-0.356114 0.0280508 21.4165
0.0222866 -0.280555 21.3177
0.203296 -0.403298 21.1655
0.232418 -0.480799 20.6808
-0.519546 -0.679904 19.3517
-1.45217 -3.34136 20.9765
0.025544 -0.313885 21.7015
0.442706 0.292172 21.439
0.808456 1.27372 19.0396
1.33396 1.42529 17.7662
1.15699 0.80419 17.9478
-0.701339 -0.563046 18.9689
1.94282 1.28327 11.2149
1.75709 0.749798 14.4284
-0.946601 0.139902 18.5333
0.775555 -0.96863 9.47206
1.03974 -0.81729 15.8761
-0.434005 0.725476 19.5288
-0.870041 1.56148 20.0731
-1.0831 1.49403 21.1166
-0.388274 0.291272 21.756
-0.0569717 -0.290066 21.3561
0.0735486 -0.506295 21.1179
-0.02922 -0.384092 20.8133
0.537574 -0.660786 19.3811
1.543 -3.15809 20.9841
-0.0272459 -0.351881 21.7665
-0.433156 0.295158 21.4839
-0.716239 1.34783 19.0434
-1.1482 1.54394 17.7748
-1.11469 1.02896 17.3545
0.70467 -0.562121 18.9726
-1.75345 1.43125 9.76386
-1.93526 1.17175 12.258
0.943842 0.138495 18.5327
-0.547194 -0.848661 5.94854
-0.874125 -0.802117 12.333
0.449262 0.703423 19.5532
0.924039 1.49426 20.0926
1.08873 1.48896 21.1218
0.393903 0.316813 21.7833
0.0826172 -0.27683 21.391
-0.0277363 -0.482496 21.0356
-0.0538723 -0.393208 21.1208
0.554992 -0.305537 19.8424
1.23194 -0.836237 20.5255
0.35343 -0.4672 21.3699
-0.225574 -0.1341 21.5053
-0.805812 0.136212 21.3692
-1.04666 0.153715 21.0934
-0.897662 0.00535793 20.8525
0.702678 -0.241444 19.7216
1.82549 -0.767315 20.4557
0.589143 -0.615977 21.4404
-0.16411 -0.317887 21.5719
-0.99089 -0.134935 21.4283
-1.25788 -0.141022 21.162
-1.0845 -0.16853 21.0691
0.8263 0.0730706 19.5903
2.20579 0.215036 20.3551
1.29314 -0.35234 21.4077
0.263168 -0.45645 21.7257
-0.583441 -0.779378 21.4813
-0.885847 -0.779242 21.2813
-0.840978 -0.760708 20.3517
0.519112 0.37176 19.9161
0.899664 0.633824 20.3441
0.885818 0.476532 21.0542
0.364625 0.0250838 21.4379
0.0113185 -0.321127 21.3064
-0.1629 -0.430931 21.0516
-0.0965313 -0.412928 20.8984
-0.50351 -0.0188808 0.576987
-0.000776816 -0.0174817 0.271271
-0.0122483 0.00408812 0.196927
0.0100351 -0.0730548 0.0773632
0.000233634 0.00594527 0.0274003
0.0320797 0.0948213 2.01459
0.00529895 0.142282 0.337173
-0.23516 -0.1209 0.614306
-0.000725716 0.0154382 -0.0483646
0.00165198 0.00097401 0.0125001
0.500875 -0.0239158 0.562097
0.00266933 0.00250192 0.181019
-0.00744249 -0.0187976 0.0298682
-0.0109779 0.0587506 1.17399
0.277732 -0.126513 0.686086
-0.00272551 0.000385042 0.0186759
0.00422846 0.00172877 0.138943
-0.000202612 0.000211908 0.0132421
-0.000252122 -0.00154346 0.0825262
0 0 0
0 0 0
0 0 0
-0.000178825 0.0197291 0.040326
0.000182208 -0.00147668 0.0278808
-0.00402244 0.0022972 0.206862
0.000193963 -0.000576863 0.0182798
-0.000705236 0.00522151 0.0282377
0 0 0
-0.000351107 -0.00102044 0.0244714
-1.20153e-05 0.000450672 0.00487691
0.00522768 0.00907183 0.115484
0 0 0
-0.000202216 0.00239323 0.0365893
0.000343368 0.00110699 0.0606695
0.00188872 0.00583604 0.00635661
0 0 0
0.000509571 0.00330337 0.0202141
-0.000315432 0.0170797 0.140437
7.07746e-06 0.00279447 -0.00667425
0.000314376 -0.00205781 0.0436776
-4.31207e-05 0.000426289 0.00395602
-0.00895586 0.0150603 0.17648
-3.78064 -2.31511 20.2167
-2.07508 -5.47421 21.4909
-2.00082 -1.80008 17.8317
1.48252 0.289052 17.9757
0.584264 1.37186 12.3998
1.36388 0.902322 7.72913
-4.6989 1.24702 19.8993
-2.96493 1.21135 16.5811
-2.03945 2.89151 19.8271
0.721192 -0.641406 16.3238
-0.481436 -0.918516 4.31299
-0.0777485 -0.540571 19.3456
2.38249 -5.2481 21.3345
2.02048 -1.80024 17.8468
3.65774 -2.18497 20.3368
-0.45242 1.39082 12.1757
-1.28509 0.922816 6.88333
-1.52071 0.347656 17.8466
2.94433 1.19065 16.6123
2.08998 2.76617 19.838
4.5718 1.09821 19.988
0.679752 -0.92301 2.84758
0.0992732 -0.525063 18.797
-0.776438 -0.700755 15.8946
-0.231115 -0.898584 20.479
0.135204 -0.0619433 16.6162
0.425778 -0.335988 20.4869
0.589445 0.343878 16.8672
-2.22563 -0.8744 21.3613
-3.00824 2.21082 21.0947
-0.362815 -0.579427 20.0599
-0.75072 0.107684 21.7446
-0.222527 -0.0984676 16.9635
0.32202 -0.972159 20.6877
-0.578423 0.336883 17.0966
-0.401851 -0.338482 20.5928
3.00138 2.22155 21.1176
2.23844 -0.868411 21.413
0.756891 0.0917642 21.5984
0.282608 -0.594442 19.9405
-0.958555 -0.588639 19.971
-0.633644 -0.288767 19.7802
-0.581712 -0.482186 19.605
-0.773892 -0.710642 21.2431
-1.55586 -0.901777 20.4947
-1.62317 -1.81951 20.6034
-0.026021 -0.291952 21.4809
-0.443825 -0.558324 21.4017
-0.106595 -0.568436 21.574
0.505365 -0.0114694 21.5017
0.20289 -0.249168 21.5185
0.405898 -0.0814131 21.6341
0.920143 0.16505 21.2518
0.896342 -0.00598128 21.3932
1.09614 0.509131 21.1013
0.993553 0.0902969 20.8307
1.11872 -0.0140434 21.1841
1.42019 0.619163 20.6074
1.00018 -0.183897 20.8269
1.1034 0.344936 21.0799
-1.28695 -0.493425 19.783
-0.798704 -0.123124 19.6181
-0.783518 -0.426809 19.3884
-1.15119 -0.755716 21.3726
-2.27215 -0.374331 20.3904
-0.19559 -0.485028 21.538
-0.918591 -0.607732 21.4289
0.5414 -0.233206 21.6358
-0.03289 -0.481905 21.7137
1.14054 -0.139188 21.241
0.900332 -0.530109 21.3547
1.25547 -0.2496 20.7681
1.10843 -0.502007 21.2009
1.69262 0.222351 18.5101
0.917546 -0.576018 20.8172
1.40308 0.0498977 18.7689
-1.56946 0.177587 19.6499
-0.722246 0.31404 19.7157
-0.97935 0.0856823 19.1317
-1.72911 -0.138073 21.1768
-1.49138 0.687993 20.3016
-0.809357 -0.431323 21.6535
-1.27457 0.232873 21.2149
0.175962 -0.55718 21.6847
-0.433576 -0.159448 21.6044
0.678635 -0.77421 21.305
0.134101 -0.493755 21.3683
0.761723 -0.639077 20.962
0.339694 -0.558539 21.05
0.978531 -0.930758 19.7187
0.265807 -0.460007 20.9269
1.00175 -1.1927 19.4176
-0.733689 0.553989 20.0429
-0.54015 0.546614 19.7103
-0.955406 0.608781 20.7231
-1.00732 1.08008 20.2133
-0.654068 0.250509 21.3735
-1.06513 0.867201 21.125
-0.130935 -0.161336 21.3415
-0.414904 0.134345 21.5686
0.104021 -0.389499 21.1424
-0.0333752 -0.325194 21.3272
0.159321 -0.366033 21.0092
0.119892 -0.44838 20.8948
-0.0224622 -0.339295 21.2071
-1.13281 -1.7078 19.151
-0.63044 -0.639147 19.0991
0.00908239 -0.882189 19.0822
-0.324963 -1.01007 22.268
0.0478718 -4.1292 21.5543
0.224905 -0.0464699 21.4581
-0.00734958 -0.297328 20.929
0.629234 0.72464 20.2392
0.00268782 0.425459 20.2421
1.07783 1.45381 19.0038
0.032912 1.08762 16.7577
1.07596 1.29048 19.4173
1.67616 1.61441 14.9386
0.0741124 1.68017 16.6602
1.48968 0.928522 15.7398
0.175458 1.95109 17.1415
-0.873873 -0.255293 18.6096
-0.00249399 -0.797579 18.4561
1.93442 0.802267 12.6715
1.98932 -0.412446 7.81651
0.00448843 1.56594 5.14981
1.74932 0.0989027 13.875
0.203574 1.89866 10.4996
-0.71176 0.695797 19.0132
-0.00249716 0.247317 17.8087
0.901469 -0.753323 12.389
0.140334 -0.957658 20.2358
0.167992 1.49279 -6.47998
0.0253392 -0.914672 19.8189
-0.0342157 0.785713 -2.20231
-0.684191 1.22767 19.6518
0.0176428 0.898922 19.3305
-1.01646 1.54884 20.5574
0.037815 2.05333 19.93
-0.817632 0.968099 21.7145
0.00568127 2.39697 21.0334
-0.148238 -0.114745 21.5771
-0.0298941 0.570803 21.9327
-0.0023906 -0.400294 21.2676
-0.00486676 -0.17517 21.411
0.0494724 -0.549775 21.0331
0.0224974 -0.472006 20.9122
0.00933966 -0.165216 21.5628
1.15124 -1.66135 19.2285
0.640984 -0.629255 19.1209
0.584883 -0.470601 19.6267
0.373985 -0.993263 22.0696
1.61161 -1.69073 20.6151
-0.225526 -0.0447829 21.5495
0.14877 -0.601257 21.5761
-0.598614 0.758414 20.2849
-0.388682 -0.0852087 21.6302
-0.970891 1.56154 18.914
-1.10099 0.608686 21.019
-0.990185 1.56161 19.0863
-1.48398 1.7385 14.9513
-1.50533 0.818843 20.4637
-1.45202 1.18614 15.2726
-1.177 0.525636 21.0577
0.876008 -0.252849 18.6093
0.791133 -0.432956 19.3876
-2.07524 1.1764 10.8616
-1.93307 -0.229617 6.11638
-1.78294 0.494894 17.4509
-1.75572 0.281675 10.9017
-1.52832 0.274721 17.5999
0.723916 0.67851 19.0403
0.978168 0.0831065 19.1347
-0.696251 -0.857673 8.27518
0.0399871 -0.900513 19.6991
-1.12082 -1.04534 18.0073
0.0297697 -1.02585 19.2451
-1.01547 -1.36842 19.0797
0.71805 1.18157 19.6817
0.548127 0.530279 19.7299
1.04254 1.51759 20.5601
1.01507 1.02464 20.226
0.822355 0.99809 21.7398
1.0694 0.864903 21.1316
0.167031 -0.105512 21.5769
0.429132 0.146535 21.5922
0.0332973 -0.385403 21.2535
0.0514365 -0.333766 21.3405
-0.00168685 -0.571764 21.0714
-0.130516 -0.496104 20.9269
0.0165389 -0.3576 21.2148
0.941427 -0.565779 19.9882
0.637423 -0.284289 19.7856
0.774576 -0.679833 21.2074
1.50595 -0.846611 20.5071
0.0531057 -0.288278 21.4849
0.47147 -0.559751 21.3984
-0.506891 0.000645646 21.5133
-0.194062 -0.244954 21.5105
-0.941311 0.208889 21.2645
-0.916322 0.0247465 21.3946
-1.11697 0.133543 20.6685
-1.17876 -0.0104901 21.267
-1.01672 -0.0914241 20.9713
1.27958 -0.481449 19.7945
0.78969 -0.118461 19.623
1.14939 -0.742552 21.3278
2.20201 -0.371107 20.4051
0.191603 -0.468102 21.5416
0.938003 -0.595099 21.4456
-0.54463 -0.214549 21.6392
0.0144188 -0.458113 21.7035
-1.20186 -0.111105 21.2157
-0.962912 -0.517751 21.3499
-1.51187 -0.15685 20.4274
-1.20007 -0.527936 21.2816
-1.12662 -0.790417 20.4338
1.54931 0.167881 19.6597
0.716687 0.296879 19.7332
1.72543 -0.133167 21.1401
1.46498 0.645761 20.3088
0.782457 -0.436473 21.6724
1.2811 0.235294 21.2239
-0.221978 -0.572985 21.6908
0.435911 -0.175309 21.6313
-0.747693 -0.847905 21.342
-0.117638 -0.532911 21.3869
-0.779883 -0.654756 21.0714
-0.314512 -0.634508 21.1403
-0.211703 -0.485502 21.1206
0.724395 0.52323 20.0581
0.947858 0.589152 20.7264
0.668781 0.260081 21.3928
0.141938 -0.175713 21.3767
-0.0719617 -0.391454 21.1563
-0.0514734 -0.331475 21.139
-1.11848 -0.583356 19.8906
-1.55847 -1.90912 18.5614
-1.14459 -1.06505 19.6502
-1.76002 -1.00836 19.1021
-0.694062 -0.459303 19.4721
-2.47062 -2.23957 20.4904
-0.95574 -0.748192 21.2988
-0.176447 -0.415745 18.8238
-0.644575 -1.05221 21.6467
-1.08566 -1.43813 21.7498
-0.125115 -0.757507 21.571
-0.110662 -0.408538 21.494
0.329139 0.0608925 16.1991
0.154505 -0.333952 21.6148
0.060345 -0.606661 20.2739
0.464644 -0.205393 21.3254
0.514146 -0.127751 21.5452
0.653677 0.670992 14.7111
0.721572 0.186362 21.5334
0.813106 -0.0274326 19.4029
1.37593 0.457056 20.1135
1.07839 0.0403026 21.2129
1.09651 1.47345 13.991
1.29889 0.635149 20.6768
1.74041 0.232576 18.8371
1.53062 0.48622 20.0421
1.17963 -0.0884215 20.7122
1.56066 1.08255 15.2216
1.36385 0.543786 20.6013
1.83872 -0.000531616 18.9207
1.20877 0.274427 20.0781
-1.53803 -0.22847 19.6553
-2.80935 -0.697856 16.6883
-2.3241 0.424919 18.7116
-0.92759 -0.178249 19.1818
-5.37261 -0.682002 19.822
-1.52828 -0.551388 21.3512
-2.74549 -0.372536 21.6397
-0.802172 -1.27585 20.0529
-0.468243 -0.567958 21.636
-1.30723 -0.884799 20.8763
0.195041 -0.423155 18.6804
0.417602 -0.46498 21.6545
0.411392 -0.321516 18.2848
1.30078 -0.237729 15.229
1.09171 -0.576126 21.1995
0.618967 -0.660242 4.52472
0.735183 -0.92715 18.2564
1.70711 -0.542942 17.576
0.935513 -0.520335 21.2419
1.78992 0.0532379 10.5729
0.97982 -1.14028 19.9253
1.40434 -0.616985 18.2653
-1.15161 0.554581 19.8437
-1.46219 1.81248 18.7737
-0.802153 0.859645 19.8401
-0.785167 0.489302 19.3878
-1.98237 1.47199 20.0968
-1.45008 0.47035 20.8404
-2.19876 2.08346 20.5369
-1.07664 1.02833 20.6625
-2.02062 0.694976 21.3096
-0.892558 0.0185689 21.5421
-2.25192 1.09707 22.519
-0.779331 0.530142 21.504
-0.623524 -0.0929099 21.9057
-0.0726965 -0.35019 21.5315
-0.114987 -0.432327 20.5117
-0.171156 -0.153399 21.4757
-0.00206761 -0.612561 21.4745
0.262713 -0.575763 21.2394
-0.0507041 -0.711528 20.006
0.0459209 -0.403914 21.1829
0.225929 -0.753419 21.4478
0.407483 -0.529077 20.8545
0.171102 -0.930132 20.004
0.103363 -0.449226 21.2929
0.117997 -0.606787 20.9849
1.57503 -1.87557 18.6094
0.0259349 -2.64393 18.6413
0.00181405 -3.22808 15.9507
0.00106916 -0.848495 18.7225
0.0349298 -5.78387 22.8418
0.145274 -0.417239 18.7393
0.0126421 -1.07846 22.0775
-0.0169894 -0.00392653 11.6286
-0.330651 0.0747647 16.4833
-0.00386086 0.0234588 20.358
-0.00687535 0.445168 12.0741
-0.622845 0.692297 14.7104
0.0114928 0.713314 18.2113
0.0317844 0.791426 8.91935
-0.897218 1.59594 13.3023
0.0432495 1.40188 16.7184
0.0181552 0.19541 2.71751
0.0394684 1.89582 11.1402
-1.50752 1.35971 14.9723
0.114753 2.08936 17.1302
0.125195 1.38443 5.83036
0.228814 1.87819 14.3264
2.81085 -0.702846 16.7328
-0.0096505 2.63239 13.7397
-0.00260317 -0.402588 17.9322
-0.54732 -0.70204 3.09166
-0.0583638 1.24675 -5.0192
0.176451 0.597963 -2.58564
-1.91165 0.379579 8.86846
0.0149608 0.998829 -4.45134
0.180373 1.37363 2.30137
1.48426 1.74312 18.8032
0.0277096 1.59648 19.4191
0.0081704 0.962763 18.572
0.0501861 4.09534 19.5745
2.22101 2.04227 20.5337
0.0226792 2.20885 20.3786
0.00301325 5.02556 20.269
2.28938 1.12524 22.5328
-0.021918 1.66033 21.9562
-0.0135067 0.557508 20.2247
0.108717 -0.44337 19.9925
-0.0132748 0.0122084 21.6321
-0.0331547 -0.0708232 13.281
0.106445 -0.672536 19.1381
0.0020172 -0.297586 21.2642
0.0345761 -0.568168 15.4398
-0.102014 -0.968047 19.4134
-0.00640208 -0.425799 21.3134
0.0413787 -0.696831 16.5253
1.1149 -0.556365 19.9062
1.15021 -1.02092 19.6782
1.76935 -1.00791 19.1243
0.704275 -0.458527 19.4826
2.39567 -2.05325 20.5322
0.953401 -0.725755 21.254
0.670007 -1.02601 21.5765
1.14502 -1.44103 21.7573
0.182616 -0.802831 21.5963
0.122163 -0.403736 21.5005
-0.132874 -0.337345 21.6187
-0.0561958 -0.609396 20.4929
-0.440514 -0.211221 21.3696
-0.513589 -0.114072 21.5509
-0.715455 0.21115 21.5509
-0.803307 -0.00664951 19.4635
-1.39291 0.555348 19.8833
-1.13234 0.0852634 21.1913
-1.32586 0.752397 20.5578
-1.81745 0.381768 18.1138
-1.6006 0.738356 19.0091
-1.4215 -0.00875842 20.3896
-1.33232 0.731896 20.7221
-1.77108 0.0910385 18.852
-1.31186 0.489202 18.9422
1.51874 -0.223955 19.6698
2.31667 0.415956 18.7341
0.927998 -0.17597 19.1869
5.14097 -0.689262 20.0241
1.52049 -0.539853 21.3011
2.73443 -0.350044 21.5847
0.900333 -1.23461 20.4679
0.444518 -0.551769 21.6469
1.24039 -0.926484 20.833
-0.211543 -0.385135 18.8827
-0.450646 -0.444072 21.6789
-0.509418 -0.320021 18.0879
-1.40501 -0.23529 15.1499
-1.15367 -0.581224 21.1949
-0.777393 -0.968183 17.103
-1.93064 -0.593533 15.9896
-1.03759 -0.516692 21.1385
-1.11705 -1.26366 18.8394
-1.56487 -0.395557 17.0106
1.13596 0.528667 19.8648
0.804743 0.825881 19.8643
0.788119 0.478469 19.4081
1.95966 1.36703 20.1129
1.44312 0.458198 20.8325
1.07747 0.998951 20.6664
2.02809 0.702473 21.3244
0.901427 0.0140858 21.5658
0.796338 0.547291 21.5348
0.633708 -0.114093 21.9369
0.0629423 -0.38431 21.5625
0.182147 -0.153797 21.4989
0.0453998 -0.659676 21.3662
-0.238596 -0.629887 21.2626
-0.0152833 -0.437419 21.2353
-0.216837 -0.871613 21.3587
-0.470059 -0.559382 20.8109
-0.103823 -0.515417 21.2032
-0.0676106 -0.737692 20.5233
-1.47268 -1.09969 19.3503
-0.790125 -1.26166 21.8845
0.152428 -0.490021 21.375
0.845507 0.0949175 20.8007
1.59172 0.527137 20.0722
1.6274 0.341318 19.9269
-2.3189 -0.398583 18.6735
-1.7546 -1.14129 21.3646
-0.256667 -0.882373 19.1189
0.647519 -0.0571415 17.476
1.43649 -0.56549 16.6253
1.44347 -0.358584 17.9341
-1.42612 1.01318 19.4029
-1.98363 1.04021 20.8005
-1.41387 0.283933 21.8778
-0.160021 -0.403058 21.7189
0.128806 -0.707182 21.335
0.402753 -0.864169 21.0212
0.0197356 -3.13699 17.5298
-0.0241424 -0.252952 12.8439
0.00424101 0.130932 11.6408
0.013873 0.472858 10.4394
0.0489487 0.974392 9.5124
0.152091 1.63427 11.1961
-0.00297137 -1.04374 13.6567
-0.0460211 0.236834 -2.34009
0.207957 1.18504 1.60757
0.0336279 2.743 18.0456
0.0200663 3.45893 20.0043
-0.0174378 3.15699 22.4989
-0.00864935 -0.172224 16.2752
-0.0620777 -0.0414952 14.0165
-0.0132219 -0.662017 15.5128
1.47864 -1.0743 19.3865
0.837404 -1.23448 21.774
-0.134243 -0.491006 21.441
-0.837277 0.116821 20.8016
-1.58752 0.690591 19.422
-1.54797 0.436522 19.7713
2.31708 -0.397356 18.7024
1.82966 -1.1155 21.4571
0.222335 -0.839544 19.4305
-0.698819 -0.0113735 17.6538
-1.55049 -0.556949 15.542
-1.60534 -0.306046 16.299
1.42212 0.981633 19.4289
1.97432 1.0197 20.7894
1.43886 0.281389 21.918
0.181397 -0.447469 21.7419
-0.0634439 -0.761217 21.3044
-0.272691 -0.983622 21.1555
0 0 0
-0.0271229 -0.0294889 0.348134
-0.010038 0.000556278 0.0956285
0.0868807 -0.0365368 0.191214
-0.000994539 0.0167787 0.071178
-0.0134874 0.0218095 0.147522
0 0 0
-0.0014963 0.0143948 0.0302041
-0.0633778 0.0293173 0.242961
0.00670559 -0.0916171 0.0455819
-0.0136807 0.00265579 -0.0203736
-0.0332446 -0.0573839 0.237545
0.0281852 -0.0302588 0.370178
0 0 0
0.0250966 0.00382595 0.344024
0.000819292 0.0222375 0.0611551
-0.0622164 -0.0212385 0.151528
0.0212232 0.0376863 0.228297
0.00521488 0.0555476 0.117874
0 0 0
0.183463 0.0521126 0.626671
0.0225875 0.00447381 -0.0206442
0.0136272 -0.0358029 0.00617934
0.0392327 -0.0434807 0.164271
-0.00949092 0.00935696 0.558077
0.00117391 0.000138177 0.0363258
0.000915305 -0.000846651 0.0262126
0 0 0
0.0824464 0.0280723 1.2912
0.00985261 0.0286368 0.639057
0.000130724 0.00157223 0.0245812
0 0 0
-0.0679035 -0.06294 0.18309
-0.00511527 -0.00504049 0.097213
0 0 0
-0.0359268 0.0308039 0.0736938
0 0 0
0 0 0
0 0 0
0.0223711 -0.00620991 0.188125
-0.0224596 0.00046809 0.558662
-0.000535504 0.00010064 0.0144521
-0.00203156 -6.7226e-05 0.0749622
0 0 0
-0.0215906 0.00832886 0.341964
0 0 0
0.0017514 0.0313996 0.658848
0 0 0
0.0999183 -0.0465185 0.228868
0.033272 0.0297206 0.0684004
0.004564 -0.00437308 0.112262
0 0 0
0 0 0
-0.024883 -0.00722237 0.207941
-0.000946328 0.00224275 0.00895264
0 0 0
-0.0247942 -0.0277803 0.342762
-0.0822184 -0.00527965 0.0451557
2.61468e-06 -3.43742e-06 -6.93291e-05
0.00238434 -0.0650252 0.0150401
0 0 0
5.93671e-05 7.71515e-05 0.0032572
0.00298247 -0.00320699 0.0245239
0 0 0
0.000376191 0.00482034 0.0706486
0 0 0
0 0 0
-3.68588e-19 2.5659e-18 7.33244e-17
-0.0331284 2.09123 1.50536
-2.99236e-05 0.0105302 0.0557841
0.00180963 -0.0676097 0.572426
-0.00228785 0.00120267 0.0087661
0 0 0
0 0 0
0 0 0
-0.00333013 9.08728e-05 -0.00144661
0.0797848 -0.00529561 0.0394123
0.0232088 -0.0273775 0.266722
-2.10789e-06 8.64819e-07 4.38052e-05
0.000555543 -0.000571648 0.0346393
0 0 0
-0.00504414 -0.00563433 0.0355926
0 0 0
-0.00266262 0.0067473 0.0855747
0.00215005 0.00118335 0.00851613
0.000336916 -0.0175481 0.102879
0.00388397 0.000100916 -0.0015828
0 0 0
-5.50851e-19 4.85612e-18 6.24623e-17
0 0 0
0 0 0
-0.000508746 0.00293718 0.0226975
0 0 0
-7.38967e-07 1.34177e-05 0.000890798
9.77615e-05 0.00150601 0.0126503
-0.00362826 0.00995174 0.0965757
-0.000565591 0.0035932 0.084996
0.00221672 0.0111442 0.215774
0.000676971 0.00566158 0.03158
-0.0226759 0.0374942 0.410105
0 0 0
0.00125351 0.147718 0.376479
3.95758e-05 5.94747e-05 0.00916791
-0.000143584 -0.00494159 0.0246531
0 0 0
0 0 0
0.0044873 -0.00748836 0.073449
0.000143317 0.000931275 0.0175574
-0.000182391 0.0015213 0.0126987
0 0 0
0.024168 0.0354905 0.394398
-0.00133636 0.00748955 0.0390264
-0.0389211 -0.0451559 0.46898
-0.0167719 -0.0130356 0.117141
0 0 0
-0.00167587 -0.00391842 0.0141861
0 0 0
-0.00119328 0.00966327 0.0873961
0 0 0
0 0 0
-2.26413e-05 0.000606544 0.0174688
0 0 0
0 0 0
0 0 0
-0.00114391 0.000313548 0.0137767
-4.17094e-06 -1.39942e-06 -6.37536e-05
0.000165374 6.62563e-05 0.00389259
0 0 0
0 0 0
0 0 0
0 0 0
0 0 0
0.000434386 0.000862144 0.00527614
0 0 0
-0.000337109 0.00209572 0.0288269
0.000886901 0.00161706 0.0246759
0 0 0