# vtk DataFile Version 2.0
tet_velo
ASCII
DATASET UNSTRUCTURED_GRID
POINTS 29498 float
-0.735 0.175 -2.16992
-0.675 0.275 2.19346
-0.725 0.725 -2.13015
-0.578336 1.095 2.285
0.735 0.175 -2.16992
0.675 0.275 2.19346
0.725 0.725 -2.13015
0.578547 1.095 2.285
-0.737222 0.186111 -0.71546
-0.75522 0.181446 0.739
-0.81473 0.986951 -0.658434
-0.717709 1.06215 0.813284
0.737224 0.186109 -0.71546
0.755222 0.181445 0.739
0.814743 0.986894 -0.658434
0.717797 1.0621 0.813284
-1.49227 -0.287076 -3.37009
-1.49046 -0.200213 -2.19961
-1.48179 -0.19105 -0.745594
-1.45618 -0.210636 0.704947
-1.39561 -0.153921 2.15867
-1.38312 -0.0950751 3.32771
-1.39455 -0.0380356 4.49941
-1.49391 0.0545089 -3.344
-1.49771 0.168602 -2.17163
-1.49424 0.209274 -0.714262
-1.44997 0.201111 0.741556
-1.35652 0.262029 2.1986
-1.35891 0.32015 3.36789
-1.38355 0.375838 4.53902
-1.49237 0.696752 -3.29666
-1.50445 0.807788 -2.12501
-1.53909 0.995955 -0.655877
-1.42985 1.05796 0.814481
-1.29755 1.09722 2.28329
-1.32922 1.15148 3.45186
-1.37525 1.20682 4.62022
-1.48452 1.82246 -3.21269
-1.49205 1.9506 -2.03845
-1.5038 2.14436 -0.563721
-1.47594 2.28336 0.914729
-1.42901 2.35983 2.38928
-1.41507 2.40796 3.56314
-1.42235 2.45695 4.73338
-0.746804 -0.284469 -3.36897
-0.740129 -0.193502 -2.19798
-0.73603 -0.20133 -0.745812
-0.742143 -0.225789 0.702765
-0.70756 -0.1516 2.15485
-0.700726 -0.0936539 3.32513
-0.709433 -0.038679 4.49791
-0.746975 0.0475842 -3.34366
-0.689177 0.323302 3.36575
-0.70535 0.375823 4.53789
-0.742335 0.660227 -3.2988
-0.665121 1.15146 3.45221
-0.702653 1.20649 4.62029
-0.732183 1.79841 -3.2148
-0.736028 1.92845 -2.04078
-0.759593 2.13868 -0.565123
-0.761023 2.28677 0.914897
-0.738754 2.36241 2.39048
-0.730677 2.40905 3.56434
-0.736111 2.45737 4.73425
0.737342 -0.284478 -3.36897
0.739239 -0.193507 -2.19798
0.744408 -0.201336 -0.745812
0.739562 -0.225793 0.702765
0.683019 -0.151603 2.15485
0.663282 -0.0936588 3.32513
0.658466 -0.0386868 4.49792
0.733473 0.0475768 -3.34366
0.643217 0.323298 3.36575
0.645548 0.375816 4.53789
0.737008 0.660218 -3.2988
0.609089 1.15145 3.45221
0.628041 1.20648 4.62029
0.76823 1.79839 -3.2148
0.77292 1.92842 -2.04078
0.744769 2.13864 -0.565123
0.682915 2.28673 0.914897
0.63707 2.36239 2.39048
0.628257 2.40903 3.56434
0.630004 2.45735 4.73425
1.4852 -0.287099 -3.37009
1.48981 -0.200235 -2.19961
1.49113 -0.191074 -0.745594
1.46722 -0.210655 0.704947
1.39513 -0.153933 2.15867
1.36226 -0.0950884 3.32772
1.35437 -0.0380533 4.49941
1.48374 0.0544864 -3.344
1.49431 0.168578 -2.17163
1.49848 0.209242 -0.714262
1.46469 0.201087 0.741556
1.37056 0.26202 2.1986
1.33689 0.320139 3.36789
1.3369 0.375821 4.53902
1.49037 0.696725 -3.29666
1.50546 0.807753 -2.12501
1.54127 0.995882 -0.655877
1.4376 1.0579 0.814481
1.30436 1.0972 2.28329
1.29513 1.15146 3.45186
1.31333 1.2068 4.62022
1.51503 1.82242 -3.21269
1.5196 1.95055 -2.03845
1.49083 2.1443 -0.563722
1.41425 2.2833 0.914729
1.34521 2.35978 2.38928
1.32452 2.40792 3.56314
1.3239 2.45691 4.73338
-0.765197 0.45 -2.18523
0 0.171353 -2.17357
-0.741665 0.175002 -1.44269
-0.68298 0.685 2.29554
0 0.272392 2.19607
-0.745431 0.197902 1.46623
0 0.818033 -2.22318
-0.82303 0.90914 -1.39429
0.0001055 1.1182 2.3082
-0.65495 1.0855 1.54914
0.765273 0.45 -2.18531
0.741666 0.175001 -1.44269
0.683038 0.685 2.29549
0.745431 0.197902 1.46623
0.823059 0.909135 -1.39429
0.655097 1.08547 1.54914
-0.743507 0.186493 0.01177
-0.88071 0.586531 -0.686947
8.83767e-07 0.186394 -0.71546
-0.887434 0.621799 0.776142
7.42838e-07 0.179575 0.739
-0.795404 1.05374 0.077425
6.88093e-06 1.35135 -0.658434
4.38178e-05 1.09691 0.813284
0.74351 0.18649 0.01177
0.880707 0.586502 -0.686947
0.887438 0.621772 0.776142
0.795416 1.05364 0.077425
-0.862927 0.518266 -1.41849
-0.881351 0.604165 0.0445975
-0.886896 0.653399 1.50769
4.41883e-07 0.172069 -1.44269
8.13302e-07 0.186565 0.01177
3.71419e-07 0.195672 1.46623
0 0.45 -2.36207
5.27501e-05 0.685 2.40826
3.44047e-06 1.03476 -1.39429
2.53494e-05 1.46384 0.077425
7.4659e-05 1.10808 1.54914
0.86293 0.518251 -1.41849
0.881346 0.604137 0.0445975
0.886899 0.653386 1.50769
-1.11635 0.171801 -2.17078
-0.737565 -0.00925092 -2.18395
-0.740988 0.111292 -2.75679
-1.01576 0.268514 2.19603
-0.69128 0.0616999 2.17416
-0.682088 0.299151 2.77961
-1.11473 0.766394 -2.12758
-0.733667 0.692614 -2.71447
-0.730514 1.32673 -2.08546
-0.937942 1.09611 2.28414
-0.621728 1.12323 2.8686
-0.658545 1.72871 2.33774
0.737119 -0.00925346 -2.18395
0.734237 0.111288 -2.75679
1.11466 0.171789 -2.17078
0.67901 0.0616985 2.17416
0.659108 0.299149 2.77961
1.02278 0.26851 2.19603
0.731004 0.692609 -2.71447
0.74896 1.32671 -2.08546
1.11523 0.766377 -2.12758
0.593818 1.12323 2.8686
0.607808 1.7287 2.33774
0.941454 1.0961 2.28414
-1.11573 0.197693 -0.714861
-0.736626 -0.0076097 -0.730636
-1.1026 0.191279 0.740278
-0.748681 -0.0221711 0.720883
-1.17691 0.991453 -0.657155
-0.787162 1.56281 -0.611778
-1.07378 1.06006 0.813882
-0.739366 1.67446 0.86409
0.740816 -0.00761339 -0.730636
1.11785 0.197676 -0.714861
0.747392 -0.0221741 0.720883
1.10996 0.191266 0.740278
0.779756 1.56277 -0.611778
1.17801 0.991388 -0.657155
0.700356 1.67442 0.86409
1.0777 1.06 0.813882
-1.49136 -0.243645 -2.78485
-1.49309 -0.116283 -3.35704
-1.11954 -0.285772 -3.36953
-1.48613 -0.195632 -1.4726
-1.49408 -0.0158059 -2.18562
-1.11529 -0.196858 -2.1988
-1.46899 -0.200843 -0.0203235
-1.48801 0.00911219 -0.729928
-1.10891 -0.19619 -0.745703
-1.4259 -0.182278 1.43181
-1.45308 -0.00476238 0.723252
-1.09916 -0.218212 0.703856
-1.38937 -0.124498 2.74319
-1.37607 0.0540539 2.17863
-1.05159 -0.152761 2.15676
-1.38883 -0.0665553 3.91356
-1.37102 0.112538 3.3478
-1.04192 -0.0943645 3.32642
-1.38905 0.168901 4.51922
-1.05199 -0.0383573 4.49866
-1.49581 0.111555 -2.75782
-1.49314 0.375631 -3.32033
-1.12044 0.0510466 -3.34383
-1.49597 0.188938 -1.44295
-1.50108 0.488195 -2.14832
-1.4721 0.205193 0.0136469
-1.51666 0.602615 -0.68507
-1.40325 0.23157 1.47008
-1.43991 0.629538 0.778019
-1.35772 0.29109 2.78324
-1.32704 0.679622 2.24094
-1.37123 0.347994 3.95345
-1.34407 0.735814 3.40987
-1.02404 0.321726 3.36682
-1.3794 0.791329 4.57962
-1.04445 0.375831 4.53846
-1.49841 0.75227 -2.71084
-1.48845 1.25961 -3.25468
-1.11735 0.67849 -3.29773
-1.52177 0.901871 -1.39045
-1.49825 1.37919 -2.08173
-1.48447 1.02696 0.0793019
-1.52144 1.57016 -0.609799
-1.3637 1.07759 1.54888
-1.4529 1.67066 0.864605
-1.31338 1.12435 2.86757
-1.36328 1.72852 2.33628
-1.35223 1.17915 4.03604
-1.37214 1.77972 3.5075
-0.997171 1.15147 3.45203
-1.3988 1.83188 4.6768
-1.03895 1.20665 4.62025
-1.48829 1.88653 -2.62557
-1.10835 1.81044 -3.21374
-1.49792 2.04748 -1.30109
-1.11404 1.93953 -2.03961
-1.48987 2.21386 0.175504
-1.1317 2.14152 -0.564422
-1.45248 2.32159 1.652
-1.11848 2.28506 0.914813
-1.42204 2.38389 2.97621
-1.08388 2.36112 2.38988
-1.41871 2.43245 4.14826
-1.07287 2.4085 3.56374
-1.07923 2.45716 4.73381
-0.743466 -0.238985 -2.78348
-0.746889 -0.118442 -3.35632
-0.00473069 -0.284473 -3.36897
-0.73808 -0.197416 -1.4719
-0.000445335 -0.193504 -2.19798
-0.739086 -0.213559 -0.0215232
0.00418921 -0.201333 -0.745812
-0.724851 -0.188694 1.42881
-0.0012902 -0.225791 0.702765
-0.704143 -0.122627 2.73999
-0.0122703 -0.151602 2.15485
-0.70508 -0.0661664 3.91152
-0.694951 0.114824 3.34544
-0.0187222 -0.0936563 3.32513
-0.707392 0.168572 4.5179
-0.0254839 -0.0386829 4.49792
-0.744655 0.353906 -3.32123
-0.006751 0.0475805 -3.34366
-0.697263 0.349563 3.95182
-0.677149 0.73738 3.40898
-0.02298 0.3233 3.36575
-0.704002 0.791155 4.57909
-0.0299012 0.375819 4.53789
-0.737259 1.22932 -3.2568
-0.00266347 0.660223 -3.2988
-0.683887 1.17897 4.03625
-0.697899 1.78025 3.50827
-0.0280161 1.15145 3.45221
-0.719382 1.83193 4.67727
-0.0373062 1.20648 4.62029
-0.734106 1.86343 -2.62779
0.0180231 1.7984 -3.2148
-0.747811 2.03356 -1.30295
0.0184458 1.92844 -2.04078
-0.760308 2.21272 0.174887
-0.00741214 2.13866 -0.565123
-0.749888 2.32459 1.65269
-0.0390542 2.28675 0.914897
-0.734715 2.38573 2.97741
-0.0508421 2.3624 2.39048
-0.733394 2.43321 4.14929
-0.0512097 2.40904 3.56434
-0.0530535 2.45736 4.73425
0.73829 -0.238992 -2.78348
0.735408 -0.11845 -3.35631
1.11127 -0.285789 -3.36953
0.741823 -0.197421 -1.4719
1.11453 -0.196871 -2.1988
0.741985 -0.213565 -0.0215232
1.11777 -0.196205 -0.745703
0.711291 -0.188698 1.42881
1.10339 -0.218224 0.703856
0.67315 -0.122631 2.73999
1.03907 -0.152768 2.15676
0.660874 -0.0661728 3.91152
0.653249 0.11482 3.34544
1.01277 -0.0943736 3.32642
0.652007 0.168564 4.5179
1.00642 -0.0383701 4.49866
0.73524 0.353898 -3.32123
1.10861 0.0510316 -3.34383
0.644382 0.349557 3.95182
0.626153 0.737375 3.40898
0.990053 0.321719 3.36682
0.636794 0.791146 4.57909
0.991224 0.375818 4.53846
0.752619 1.2293 -3.2568
1.11369 0.678471 -3.29773
0.618565 1.17896 4.03625
0.618673 1.78024 3.50827
0.952109 1.15146 3.45203
0.629023 1.83191 4.67727
0.970687 1.20664 4.62025
0.770575 1.86341 -2.62779
1.14163 1.8104 -3.21374
0.758845 2.03353 -1.30295
1.14626 1.93949 -2.03962
0.713842 2.21269 0.174887
1.1178 2.14147 -0.564422
0.659992 2.32456 1.65269
1.04858 2.28502 0.914813
0.632663 2.38571 2.97741
0.991141 2.36109 2.38988
0.629131 2.43319 4.14929
0.976387 2.40848 3.56374
0.976952 2.45713 4.73381
1.48751 -0.243667 -2.78485
1.48447 -0.116306 -3.35704
1.49047 -0.195655 -1.4726
1.49206 -0.0158287 -2.18562
1.47917 -0.200864 -0.0203236
1.49481 0.00908402 -0.729928
1.43117 -0.182294 1.43181
1.46595 -0.00478395 0.723251
1.3787 -0.12451 2.74319
1.38284 0.0540439 2.17863
1.35832 -0.0665708 3.91356
1.34958 0.112525 3.3478
1.34564 0.168884 4.51922
1.48903 0.111532 -2.75782
1.48706 0.375606 -3.32033
1.4964 0.18891 -1.44295
1.49989 0.488165 -2.14832
1.48159 0.205164 0.0136468
1.51988 0.602562 -0.68507
1.41762 0.231553 1.47008
1.45114 0.629494 0.778019
1.35372 0.29108 2.78324
1.33746 0.679608 2.24094
1.33689 0.34798 3.95346
1.31601 0.7358 3.40988
1.32512 0.79131 4.57962
1.49792 0.752239 -2.71084
1.5027 1.25957 -3.25468
1.52337 0.901818 -1.39045
1.51253 1.37915 -2.08173
1.48943 1.02689 0.0793018
1.51605 1.57009 -0.6098
[...]
POINT_DATA 29498
VECTORS point_vectors float
-3.8143 -5.58699 10.7998
-0.038072 0.201176 0.648375
-0.455207 0.226149 0.735955
0.171488 -0.131653 0.699596
3.81357 -5.58168 10.7968
0.0377308 0.201031 0.648817
0.457389 0.227722 0.739209
-0.172329 -0.132829 0.706461
0.0024606 0.000798782 0.0545644
0.00190905 -0.00376321 0.120625
0.00205566 0.00719856 0.0572569
0.0259914 0.0128915 0.0351546
-0.00238544 0.000752363 0.0523513
-0.00191525 -0.00375431 0.12007
-0.00203859 0.00716198 0.0570865
-0.0256845 0.0127085 0.0347097
-0.566798 -0.323281 19.8682
-1.25787 -0.819983 20.616
-0.366654 -0.407274 21.5162
0.0825681 -0.0152747 21.6179
0.597751 0.412093 21.4923
0.781708 0.440132 21.0104
0.775185 0.268643 21.0731
-0.735865 -0.264264 19.7468
-1.79949 -0.718907 20.571
-0.542803 -0.532457 21.6286
0.100962 -0.122835 21.7529
1.00319 0.319295 21.5031
1.16594 0.296434 21.4714
1.08145 0.23383 21.2312
-0.842053 0.049594 19.6131
-2.13911 0.138257 20.4208
-1.18223 -0.274887 21.6466
0.0193247 -0.255732 21.972
1.06169 -0.524671 21.5374
1.16773 -0.619212 20.9115
0.868461 -0.365932 20.7623
-0.524637 0.387708 19.9208
-0.953846 0.68698 20.4344
-0.773682 0.440586 21.3232
-0.119075 -0.0904319 21.6391
0.209639 -0.352539 21.3451
0.259375 -0.376644 21.0825
0.260508 -0.426674 20.8601
-0.544033 -0.668028 19.3794
-1.77921 -3.161 20.9371
-0.230108 -0.245646 21.7514
-0.0249625 0.129283 21.4511
0.183495 1.04597 20.3134
0.324611 1.24302 18.6225
0.770959 0.783585 17.6622
-0.72998 -0.520058 19.028
0.742545 1.89926 9.92365
1.63062 0.725674 10.9993
-0.897083 0.100495 18.6101
1.8682 -0.826306 12.3739
1.11817 -0.673645 17.0913
-0.45244 0.728629 19.5684
-0.960248 1.6134 20.1104
-0.958925 1.35068 21.5666
-0.211191 0.0124946 21.8805
0.0879408 -0.509977 21.4232
0.0989967 -0.563463 20.8691
0.0226961 -0.419313 20.8056
0.538021 -0.66469 19.3873
1.77722 -3.15917 20.9494
0.224136 -0.239233 21.7299
0.0273722 0.131551 21.4465
-0.149581 1.0398 20.214
-0.209886 1.23318 18.4813
-0.795081 0.746066 16.9132
0.72487 -0.529069 19.0144
-0.555166 1.76972 8.7434
-1.66369 0.757331 10.1069
0.896286 0.100861 18.5965
-1.79815 -0.822989 10.9592
-1.11602 -0.620309 15.9034
0.469732 0.711607 19.5913
0.985928 1.56903 20.1275
0.950221 1.37958 21.5698
0.213972 0.0257419 21.9262
-0.0738489 -0.508187 21.4137
-0.0593497 -0.562806 20.9871
0.0103225 -0.394893 20.7892
0.574397 -0.32312 19.8516
1.25824 -0.833187 20.6262
0.379114 -0.403643 21.5145
-0.0839216 -0.0149752 21.6211
-0.591688 0.417796 21.4911
-0.795472 0.445863 20.9805
-0.76387 0.353813 21.1205
0.739723 -0.263911 19.7496
1.81472 -0.725914 20.5646
0.540278 -0.531785 21.6281
-0.0963934 -0.120191 21.7519
-0.983786 0.307252 21.5027
-1.17983 0.303304 21.4939
-1.13063 0.270207 20.5406
0.844314 0.0475487 19.6155
2.1278 0.135301 20.4268
1.16954 -0.270843 21.6605
-0.017964 -0.253099 21.9699
-1.05552 -0.520226 21.538
-1.22845 -0.62728 20.845
-0.92369 -0.408187 20.6085
0.523693 0.375738 19.9392
0.937046 0.653308 20.4397
0.776884 0.448184 21.3326
0.135268 -0.0770288 21.6674
-0.198151 -0.367177 21.3493
-0.249984 -0.439701 21.113
-0.225512 -0.44344 20.8829
-0.996733 -0.0725666 1.14349
-4.24375e-05 -0.0140036 0.072461
0.0100173 -0.000700787 0.222433
-0.0216596 0.0206594 -0.0182631
2.24678e-05 0.00181513 0.00881972
-0.0333136 0.0258963 0.680471
-0.00065664 0.347449 0.611672
-0.303763 -0.195066 0.991641
0.000294088 0.0317072 -0.0989897
0.068142 0.0286988 0.171816
1.00502 -0.0736882 1.15232
-0.00997706 -0.000691082 0.22238
0.0213392 0.020547 -0.0179726
0.0332267 0.025875 0.680352
0.304812 -0.195631 0.99492
-0.0683729 0.0290156 0.172506
0.000273027 0.000222353 0.075557
-2.52797e-05 0.00205999 0.0340379
0 0 0
-0.000376055 0.00723926 0.0377955
-1.29814e-05 -0.00317326 0.0859231
3.29887e-18 8.28584e-18 3.43637e-17
-2.5992e-05 0.0976587 0.28006
3.59063e-05 1.606e-05 -0.000215849
-0.00022627 0.000226839 0.0740418
2.58308e-05 0.0020611 0.0341119
0.000380164 0.0073052 0.0381147
0 0 0
-5.32965e-05 -0.000173332 0.00201576
-1.72818e-05 0.0043301 0.0320774
0 0 0
-6.93495e-10 2.30893e-08 3.06806e-06
-1.68006e-08 -6.24521e-09 -4.20453e-06
0 0 0
0 0 0
-5.41088e-05 0.0382902 -0.0121659
0 0 0
0 0 0
-8.96393e-07 -3.13585e-06 -0.00129005
5.81293e-05 -0.000189067 0.00219661
1.71246e-05 0.004318 0.0320157
0 0 0
-3.4079 -1.86047 20.6617
-2.88761 -4.97446 21.401
-2.09459 -1.84481 17.9309
1.20477 1.22885 16.1842
-0.0485995 1.26384 13.6332
-0.285609 1.18437 6.13811
-4.22396 0.643402 20.255
-2.94176 0.840109 16.6787
-2.36487 2.77056 19.6717
1.77523 -0.0936452 16.1916
1.43419 -0.205353 7.88974
0.208463 -1.06336 20.707
2.88887 -4.97339 21.4043
2.09547 -1.86574 17.8959
3.42668 -1.88118 20.653
0.0794903 1.23378 13.3899
0.438317 1.1238 5.5379
-1.21193 1.21544 16.58
2.94006 0.845291 16.6552
2.37533 2.71005 19.6929
4.22123 0.645277 20.2545
-1.33309 -0.168976 7.20635
-0.163606 -1.05775 20.6147
-1.78337 -0.0978127 16.3416
-0.175321 -0.7892 20.5228
0.239805 0.071124 17.3742
0.137794 0.13201 19.0784
0.101841 0.167012 17.1124
-1.80646 -0.811313 22.0357
-3.04375 2.02108 22.0774
0.604053 0.334646 18.8445
-0.323334 -0.407465 21.594
-0.235277 0.070321 17.4684
0.182625 -0.790882 20.5481
-0.098834 0.168134 17.0978
-0.14143 0.113694 19.2505
3.05822 2.06652 22.0837
1.80543 -0.80791 22.0347
0.342035 -0.406126 21.2316
-0.578178 0.297802 18.997
-0.975603 -0.581744 20.0221
-0.647725 -0.304764 19.8182
-0.595637 -0.472135 19.6434
-0.812788 -0.65841 21.3149
-1.51252 -0.817226 20.6132
-1.6836 -1.6482 20.701
-0.101023 -0.186282 21.5722
-0.46618 -0.488758 21.5705
-0.212729 -0.436381 21.6816
0.318679 0.193418 21.6383
0.0877692 -0.0739622 21.68
0.0992185 0.0551799 21.7043
0.68213 0.483573 21.3894
0.791653 0.412445 21.5312
0.581399 0.817987 21.4135
0.794586 0.377085 20.6195
1.0006 0.368834 21.2812
0.860435 1.00008 21.0697
0.921637 0.260428 21.2706
0.732491 0.938828 21.5032
-1.31765 -0.495506 19.8756
-0.800949 -0.137423 19.6375
-0.810927 -0.422415 19.4373
-1.16524 -0.701657 21.4495
-2.08996 -0.359334 20.5129
-0.172198 -0.330859 21.6795
-0.878493 -0.520908 21.6705
0.503949 0.0949081 21.7611
0.051236 -0.194532 21.9067
1.13296 0.34088 21.3462
1.22166 -0.0731342 21.3668
1.22335 0.174688 20.3386
1.28343 -0.11491 21.4451
1.26366 1.12193 17.2084
1.16532 -0.236641 20.9395
1.35604 0.479752 16.1152
-1.57854 0.126475 19.7316
-0.727939 0.310906 19.7186
-0.976237 0.072357 19.1831
-1.72713 -0.148462 21.2811
-1.54215 0.651852 20.363
-0.606072 -0.312423 21.8833
-1.19117 0.263594 21.5075
0.624462 -0.323498 21.8344
-0.118425 -0.1964 21.8402
1.10392 -0.573234 21.3092
0.454004 -0.570178 21.4357
0.990432 -0.503857 20.759
0.578201 -0.55904 20.8865
1.77413 -0.754922 19.3948
0.435503 -0.439225 21.067
1.06709 -0.611155 19.8654
-0.76818 0.566356 20.0923
-0.538566 0.554788 19.7418
-0.942157 0.627809 20.8967
-1.04545 1.08573 20.2866
-0.465327 0.16914 21.6002
-0.940211 0.815834 21.4547
0.0879192 -0.261977 21.5248
-0.172354 -0.065535 21.7651
0.263452 -0.403921 21.1478
0.167528 -0.437857 21.3491
0.196568 -0.339845 20.9691
0.215201 -0.521641 21.0944
0.143646 -0.428507 20.8408
-1.1849 -1.6973 19.219
-0.624109 -0.609145 19.2124
-0.00457636 -0.851836 19.1017
-0.703025 -1.04869 22.2906
-0.00328215 -4.61567 21.4642
-0.100684 -0.0258501 21.4423
-0.0018619 -0.432642 20.896
0.0987373 0.521778 20.9901
-0.000723114 -0.0856531 20.2126
0.208883 1.15896 19.6916
-0.00406485 0.600134 17.5661
0.260548 1.39446 19.1475
0.547723 1.72133 15.0953
0.0102007 0.687674 15.8304
1.21589 0.796786 14.3127
-0.0073449 1.17878 13.5177
-0.86776 -0.285636 18.7337
-0.0111349 -0.877679 18.4604
1.43407 1.32099 10.2984
2.0703 0.786894 6.76119
-0.125382 -0.265242 -1.76242
1.6669 0.068559 12.2956
0.125186 0.869526 7.78331
-0.747309 0.69761 18.9739
-0.00493425 0.169678 17.8604
1.90669 -0.9698 15.0495
0.42126 -1.15391 20.0204
0.120851 -1.05539 1.4687
0.504957 -0.868282 19.5529
0.0501445 -1.15244 7.10839
-0.71945 1.20499 19.685
0.0128731 0.903603 19.3852
-1.09833 1.70175 20.7726
0.0368155 2.20377 19.9057
-0.546751 0.622109 21.939
-0.011051 2.13602 21.6723
-0.0198025 -0.345866 21.7039
-0.0212925 0.186375 22.0309
0.152524 -0.55688 21.2414
0.00303949 -0.526375 21.4364
0.254341 -0.487856 20.7578
0.0204933 -0.75478 20.9851
-0.0182854 -0.287335 20.8017
1.17525 -1.70069 19.2281
0.618557 -0.606237 19.2122
0.594751 -0.471188 19.6396
0.703046 -1.04242 22.2848
1.6887 -1.65467 20.6998
0.100838 -0.0247455 21.4425
0.220903 -0.441723 21.6757
-0.0860992 0.522231 20.9828
-0.100602 0.0540982 21.7026
-0.161613 1.14848 19.6368
-0.575717 0.840179 21.3932
-0.120074 1.46681 18.7937
-0.434508 1.68988 14.9134
-0.840898 1.02842 21.1205
-1.22939 0.751699 13.5101
-0.706749 0.962422 21.5931
0.865597 -0.28553 18.7078
0.819556 -0.439068 19.4166
-1.38602 1.39452 9.32565
-1.90338 0.602704 5.72535
-1.2358 1.22958 16.6468
-1.65693 0.108228 11.2318
-1.39736 0.514374 15.3235
0.762109 0.682681 19.0015
0.97386 0.0727639 19.1813
-2.04768 -1.02227 13.567
-0.403203 -1.18284 19.9971
-1.85895 -0.769648 19.0597
-0.506118 -0.883093 19.1581
-1.076 -0.655416 19.6502
0.737997 1.17918 19.6987
0.544616 0.539014 19.75
1.10738 1.68659 20.7755
1.04005 1.04961 20.3007
0.53679 0.669837 21.9637
0.946349 0.835131 21.4585
0.0256883 -0.345231 21.7175
0.190856 -0.0555086 21.7881
-0.130576 -0.571353 21.2447
-0.140274 -0.466609 21.3702
-0.241022 -0.445786 20.7014
-0.195498 -0.533498 21.0232
-0.110116 -0.426803 20.8372
0.969475 -0.586628 20.0431
0.651714 -0.302644 19.8147
0.806349 -0.658381 21.3241
1.51767 -0.812731 20.6105
0.104248 -0.189253 21.5751
0.47373 -0.487912 21.568
-0.318014 0.187092 21.6356
-0.0872718 -0.0756155 21.675
-0.688378 0.487499 21.3969
-0.783775 0.404025 21.5251
-0.824075 0.37892 20.5859
-1.00687 0.378535 21.2576
-0.920855 0.350597 21.3307
1.34431 -0.508504 19.8699
0.80948 -0.141969 19.6374
1.16766 -0.702446 21.4502
2.10118 -0.359723 20.5256
0.175886 -0.322081 21.673
0.873554 -0.516291 21.6724
-0.493855 0.0894048 21.7612
-0.0534692 -0.193123 21.902
-1.13287 0.344722 21.3468
-1.20603 -0.0778318 21.3951
-1.26768 0.269202 20.3149
-1.32078 -0.136614 21.4015
-1.22437 -0.268373 20.8239
1.57703 0.127009 19.7289
0.728883 0.306783 19.7354
1.72201 -0.155853 21.287
1.52357 0.634821 20.3714
0.605426 -0.309804 21.8822
1.1966 0.264618 21.5208
-0.61853 -0.320779 21.8305
0.121919 -0.205654 21.8683
-1.12578 -0.588445 21.2905
-0.450545 -0.595301 21.4449
-1.09254 -0.515048 20.707
-0.606457 -0.606472 20.775
-0.423248 -0.494302 21.1445
0.760069 0.54832 20.0969
0.932509 0.619578 20.9007
0.470944 0.194502 21.6121
-0.0893115 -0.275309 21.5666
-0.254751 -0.433205 21.0976
-0.214339 -0.415416 20.9829
-1.14232 -0.582963 19.9716
-1.55463 -1.85111 18.7121
-1.15827 -1.0322 19.7148
-1.83481 -0.99046 19.2509
-0.712749 -0.461438 19.5357
-2.41465 -1.90828 20.6963
-0.995658 -0.704805 21.3831
-0.352118 -0.481426 19.9078
-0.768489 -0.958213 21.7046
-1.16612 -1.39068 22.1022
-0.138728 -0.586436 21.637
-0.133862 -0.268648 21.6136
0.170566 0.128664 17.0282
-0.0125432 -0.161557 21.656
0.0634982 -0.274912 19.5415
0.178479 0.041843 21.1886
0.405292 0.157842 21.7207
0.0951954 0.551822 15.411
0.319247 0.399774 21.6946
0.455818 0.615063 17.7139
0.903445 1.08344 19.929
0.916006 0.465667 21.2488
-0.00918778 1.29531 13.7549
0.699776 0.911547 21.004
1.32787 1.1685 17.4823
1.04822 1.16892 19.5293
1.13668 0.27641 20.1896
0.350601 1.48333 15.0555
0.796355 0.95518 21.3769
1.52473 1.04594 19.8627
1.01509 0.758592 19.3628
-1.52335 -0.237851 19.7625
-2.84861 -0.845685 16.8004
-2.29941 0.302573 18.8372
-0.89809 -0.196266 19.2365
-4.44704 -0.736046 20.4879
-1.53026 -0.516167 21.4307
-2.87724 -0.442742 21.7635
-0.760031 -0.96125 20.7055
-0.37066 -0.390108 21.827
-0.776364 -0.617628 21.0058
0.130724 0.454053 17.2224
0.608724 -0.066648 21.7748
1.5106 0.566439 17.1
1.33013 0.621933 12.0592
1.26852 -0.140669 21.2873
0.193995 1.22562 2.04492
1.7062 -0.472246 18.5506
1.95966 0.354401 15.6106
1.27483 -0.272422 20.5758
2.17089 0.435334 9.51924
1.4243 -0.736326 20.0762
1.45865 -0.171414 17.4644
-1.18288 0.528436 19.8835
-1.52999 1.73575 18.7596
-0.812621 0.873668 19.9061
-0.797901 0.484294 19.3862
-2.13053 1.40637 20.1133
-1.53269 0.495045 21.0257
-2.85153 2.55233 20.5707
-1.1194 1.08702 20.8692
-1.87505 0.601439 21.7856
-0.677091 0.034693 21.8124
-1.4688 0.679078 22.4465
-0.549358 0.361802 21.7781
-0.190303 -0.30177 22.1279
0.266598 -0.422048 21.6825
0.0976521 -0.913245 20.7588
0.0546984 -0.318401 21.6227
0.439957 -0.862886 21.4697
0.511133 -0.592411 21.3022
0.295548 -1.09674 20.8544
0.207325 -0.529847 21.2263
0.560946 -0.912094 21.3251
0.455374 -0.582375 20.9615
0.470199 -0.863409 20.0829
0.298591 -0.592494 20.9252
0.453169 -0.661865 20.7145
1.55127 -1.85904 18.7112
-0.0108498 -2.60342 18.6253
-0.0111477 -3.26601 16.1424
-0.00693628 -0.891993 18.7937
0.00147393 -6.85683 23.1565
0.356265 -0.484346 19.9565
-0.00014267 -1.45045 22.852
-0.000993291 -0.00179379 11.4112
-0.167547 0.130326 17.0561
-0.00222573 -0.222765 20.2746
-0.00068586 -0.024088 11.8011
-0.0883567 0.544813 15.2893
-0.000834353 0.258636 18.7614
-0.00706469 0.449776 8.27563
0.109373 1.24989 13.2733
-0.00773546 0.455338 16.4826
-0.0713288 -1.1351 -2.18445
-0.10594 0.714351 6.98839
-0.20917 1.57255 14.6746
0.00682325 1.26464 14.9237
-0.0644135 -1.64836 -1.02083
0.113268 1.05615 10.5479
2.84888 -0.853335 16.7593
-0.00670156 1.90273 13.9652
-0.00612249 -0.403859 18.0261
-0.124118 1.28085 1.48744
0.0391732 -0.271567 1.04311
0.083013 -1.5644 -3.18751
-2.29656 0.393311 8.19071
0.108048 -1.39278 2.65513
0.132802 -0.390337 3.08882
1.53915 1.70188 18.8016
0.0200398 1.63458 19.4527
0.0105459 0.928618 18.5695
0.0317133 4.28673 19.1414
2.85028 2.52253 20.5814
0.0139762 2.45681 20.6427
-0.0161461 4.70175 22.052
1.45133 0.728863 22.2597
-0.0245836 1.02601 22.1585
-0.0368275 0.376311 17.4605
-0.0490666 -0.915655 20.6671
-0.00264206 -0.290886 21.752
-0.0171363 -0.615048 17.6009
-0.236518 -1.09497 20.715
0.0168601 -0.556387 21.256
-0.0119275 -0.956016 17.0933
-0.422822 -0.897591 20.1978
-0.0122434 -0.686464 20.9104
0.0676313 -0.809483 19.864
1.14509 -0.590966 19.9711
1.1623 -1.04112 19.7115
1.84863 -1.00292 19.2287
0.715451 -0.469827 19.5175
2.42413 -1.92117 20.6909
0.991205 -0.689879 21.389
0.773067 -0.958622 21.6959
1.17006 -1.39151 22.099
0.153008 -0.59052 21.6493
0.141586 -0.269892 21.6067
0.0163409 -0.166168 21.6532
-0.0576652 -0.286208 19.6518
-0.175064 0.0357089 21.2247
-0.399287 0.151316 21.715
-0.315341 0.402607 21.6852
-0.467694 0.596172 17.9901
-0.896201 1.08928 19.9013
-0.918322 0.46903 21.2449
-0.689299 0.92863 20.9766
-1.29673 1.20025 16.9486
-1.02991 1.27173 19.0027
-1.13836 0.327938 20.2754
-0.807703 0.997227 21.3586
-1.45904 1.12814 18.9486
-1.05477 0.790829 18.6276
1.53583 -0.240617 19.7465
2.30248 0.304043 18.8339
0.901565 -0.198959 19.229
4.45235 -0.738676 20.4797
1.53389 -0.517974 21.427
2.87353 -0.441011 21.7588
0.7656 -0.965518 20.7502
0.372216 -0.384182 21.8211
0.78372 -0.625386 21.0787
-0.133448 0.415483 17.5147
-0.598336 -0.0698543 21.7971
-1.49586 0.541352 17.2573
-1.33763 0.630645 12.3802
-1.28293 -0.137142 21.2799
-1.76233 -0.451246 18.195
-2.05073 0.418137 14.5935
-1.3542 -0.284573 20.5237
-1.49234 -0.804593 19.6524
-1.50238 -0.124378 16.5545
1.17078 0.516839 19.9113
0.813336 0.839885 19.9331
0.797786 0.475891 19.3986
2.10529 1.3526 20.1286
1.52168 0.488776 21.0363
1.11764 1.07325 20.8702
1.89034 0.610395 21.7926
0.687192 0.0399263 21.8271
0.554459 0.38394 21.7984
0.205198 -0.32019 22.1652
-0.264005 -0.439448 21.6949
-0.0303392 -0.328772 21.633
-0.42304 -0.906857 21.4465
-0.507068 -0.650309 21.2456
-0.192845 -0.565706 21.2557
-0.528586 -0.959413 21.432
-0.427747 -0.580159 21.1335
-0.26773 -0.585144 20.9048
-0.472229 -0.734133 20.4451
-1.5059 -1.08116 19.4881
-0.888316 -1.13439 21.9208
0.0791492 -0.22509 21.3314
0.465683 0.485411 20.7366
0.987322 1.12074 19.7636
1.09626 0.885452 20.474
-2.2679 -0.386103 18.8625
-2.00604 -1.14255 22.1491
-0.16466 -0.31806 18.8433
0.624002 0.849598 14.9728
1.59223 0.545963 15.0475
1.78328 0.291823 18.3602
-1.49484 1.00151 19.4285
-2.26458 1.10705 20.9929
-1.03511 0.178626 22.1875
0.249636 -0.667115 21.8298
0.523917 -0.909909 21.3196
0.386777 -0.776441 21.2044
-0.0114089 -3.04536 17.6335
-8.66368e-05 -0.465752 14.6238
-0.00121978 -0.00999596 11.3472
2.96614e-05 0.229358 10.4248
-0.0449405 -0.160439 6.98084
-0.0528417 0.626594 6.40454
-0.0120284 -1.30315 13.9795
-0.0320048 -0.96207 -1.89685
0.242779 -2.23372 -1.36625
0.0187024 2.71352 18.0119
0.0133911 4.61523 19.8348
-0.0296923 1.80223 21.9227
-0.0302859 -0.323618 17.0159
-0.00711783 -0.83162 18.4557
0.0777144 -0.919245 16.6202
1.51606 -1.09614 19.4718
0.896786 -1.13322 21.9108
-0.0695397 -0.232963 21.3595
-0.46197 0.482479 20.7341
-0.957949 1.17096 19.5041
-1.04934 0.970827 19.8293
2.27678 -0.38964 18.8524
2.00699 -1.14422 22.15
0.16976 -0.33563 18.9728
-0.632696 0.828515 15.2415
-1.53899 0.575104 14.1805
-1.82967 0.381192 17.2531
1.48919 0.971297 19.4442
2.25418 1.094 20.9938
1.0671 0.194468 22.2137
-0.240255 -0.7088 21.8308
-0.51014 -0.950262 21.1858
-0.408684 -0.803796 20.9419
-1.22668 -0.447271 1.59161
-0.039154 -0.0703608 0.677103
-0.0035283 -0.0020148 0.186306
-0.00406191 0.0397179 0.0314091
-0.0157932 0.00697304 0.0280673
-0.0315644 0.0470917 0.315666
-0.806325 0.130055 1.05304
-0.164054 0.80978 1.07866
-0.540238 -0.066488 1.16434
-0.00531306 0.00842748 -0.00237986
0.0506712 0.0406062 0.053766
0.0396287 0.00971592 0.156672
0.0358479 -0.0674787 0.66954
1.22926 -0.449123 1.59479
0.00354689 -0.00202131 0.186351
0.0159532 0.00706937 0.0283805
0.00339352 0.0395588 0.0321492
0.031534 0.047125 0.316027
0.165536 0.815906 1.08643
0.811824 0.130953 1.05031
0.54407 -0.0666452 1.17206
-0.050923 0.0421876 0.0525604
0.00600451 0.00957807 -0.00262562
-0.0396626 0.00974175 0.156198
0.0459254 0.00592575 0.382651
0.000624113 9.66177e-05 0.0316934
-3.39996e-05 0.000401927 0.0049271
0.000657306 1.4272e-05 0.00540451
-0.00789289 0.00964921 0.291927
0.000270404 0.000237166 0.104526
-0.000704979 0.00726209 0.0489625
0.00105965 -0.00186247 0.0563368
-0.00627543 -0.00366654 0.101113
0.000367758 0.00949199 0.0832054
0 0 0
-0.0577798 0.086825 0.227259
0.0559151 0.0297343 0.10702
0.0119005 0.0973236 0.305044
0 0 0
0 0 0
-0.0458506 0.00593159 0.382449
-0.000657702 1.42752e-05 0.00540081
-0.00058214 0.000101965 0.0302486
3.37147e-05 0.000398322 0.00488403
0.00805286 0.00967849 0.292261
-0.00106172 -0.00186442 0.0564204
-0.000243892 0.00024101 0.104489
0.000726888 0.00728354 0.0490458
0.00632306 -0.00371779 0.101652
0.0567848 0.0850801 0.222762
-0.000358859 0.00934291 0.08207
0 0 0
-0.0552681 0.02941 0.105709
0 0 0
-0.0119138 0.0975187 0.305422
0 0 0
-0.00476849 -0.0067604 0.0670093
0 0 0
-2.177e-08 -1.41413e-06 6.7078e-05
-0.000135804 -0.117691 0.0542856
-4.29135e-05 -0.000214145 0.00301094
6.26939e-05 -1.05379e-06 0.000471021
0 0 0
-0.00575619 0.00812855 -0.00247501
3.08014e-09 1.05686e-06 8.80121e-06
5.88526e-05 0.00538912 -0.00380583
0 0 0
3.10055e-06 0.000271927 0.00732136
-0.00494507 0.614416 0.319309
-7.89186e-05 0.0339443 0.1255
0 0 0
0 0 0
0 0 0
-7.25804e-08 4.54314e-07 7.08688e-05
0.00540405 0.00892098 0.0730605
0.000267292 2.55174e-06 -0.000343277
0 0 0
0.00475879 -0.00673301 0.066914
-6.23309e-05 -1.04119e-06 0.000468035
4.44434e-05 -0.000221838 0.00311365
0.00517145 0.0072799 -0.0022056
0 0 0
-2.10109e-06 0.000268173 0.00721925
0 0 0
0 0 0
0 0 0
-0.000236357 2.42413e-06 -0.000306434
-0.00535072 0.00884469 0.0721888
-0.000253649 0.00352041 0.0282338
0.000285957 9.25743e-06 0.00640179
-0.000873879 -0.00100608 0.0322129
1.06205e-05 0.00699154 0.070373
0 0 0
-1.26735e-08 6.2149e-09 1.95802e-06
-0.000111069 0.00253378 0.0152437
0 0 0
1.39132e-08 4.12946e-09 4.58128e-06
-8.77048e-07 0.0020044 0.056386
0.000975766 0.00913951 0.0499462
0.00174084 0.00294815 0.101422
-1.09686e-05 0.00893698 0.0218293
3.22197e-08 0.000105954 0.000718867
8.20957e-06 -0.00012001 0.00937935
0 0 0
-0.000285325 9.33115e-06 0.00640288
0.00025966 0.00353743 0.0284594
0.000872345 -0.00100508 0.0321725
-1.08978e-05 0.00697347 0.0703005
0.000110883 0.00253025 0.0152095
0 0 0
-0.00176305 0.00295681 0.101916
-0.000963186 0.00897004 0.0490941
-0.00370752 -0.00692045 0.061225