# vtk DataFile Version 2.0
tri_press
ASCII
DATASET UNSTRUCTURED_GRID
POINTS 3682 float
-0.735 0.175 -2.16992
-0.675 0.275 2.19346
-0.725 0.725 -2.13015
-0.578336 1.095 2.285
0.735 0.175 -2.16992
0.675 0.275 2.19346
0.725 0.725 -2.13015
0.578547 1.095 2.285
-0.737222 0.186111 -0.71546
-0.75522 0.181446 0.739
-0.81473 0.986951 -0.658434
-0.717709 1.06215 0.813284
0.737224 0.186109 -0.71546
0.755222 0.181445 0.739
0.814743 0.986894 -0.658434
0.717797 1.0621 0.813284
-1.49227 -0.287076 -3.37009
-1.49046 -0.200213 -2.19961
-1.48179 -0.19105 -0.745594
-1.45618 -0.210636 0.704947
-1.39561 -0.153921 2.15867
-1.38312 -0.0950751 3.32771
-1.39455 -0.0380356 4.49941
-1.49391 0.0545089 -3.344
-1.49771 0.168602 -2.17163
-1.49424 0.209274 -0.714262
-1.44997 0.201111 0.741556
-1.35652 0.262029 2.1986
-1.35891 0.32015 3.36789
-1.38355 0.375838 4.53902
-1.49237 0.696752 -3.29666
-1.50445 0.807788 -2.12501
-1.53909 0.995955 -0.655877
-1.42985 1.05796 0.814481
-1.29755 1.09722 2.28329
-1.32922 1.15148 3.45186
-1.37525 1.20682 4.62022
-1.48452 1.82246 -3.21269
-1.49205 1.9506 -2.03845
-1.5038 2.14436 -0.563721
-1.47594 2.28336 0.914729
-1.42901 2.35983 2.38928
-1.41507 2.40796 3.56314
-1.42235 2.45695 4.73338
-0.746804 -0.284469 -3.36897
-0.740129 -0.193502 -2.19798
-0.73603 -0.20133 -0.745812
-0.742143 -0.225789 0.702765
-0.70756 -0.1516 2.15485
-0.700726 -0.0936539 3.32513
-0.709433 -0.038679 4.49791
-0.746975 0.0475842 -3.34366
-0.689177 0.323302 3.36575
-0.70535 0.375823 4.53789
-0.742335 0.660227 -3.2988
-0.665121 1.15146 3.45221
-0.702653 1.20649 4.62029
-0.732183 1.79841 -3.2148
-0.736028 1.92845 -2.04078
-0.759593 2.13868 -0.565123
-0.761023 2.28677 0.914897
-0.738754 2.36241 2.39048
-0.730677 2.40905 3.56434
-0.736111 2.45737 4.73425
0.737342 -0.284478 -3.36897
0.739239 -0.193507 -2.19798
0.744408 -0.201336 -0.745812
0.739562 -0.225793 0.702765
0.683019 -0.151603 2.15485
0.663282 -0.0936588 3.32513
0.658466 -0.0386868 4.49792
0.733473 0.0475768 -3.34366
0.643217 0.323298 3.36575
0.645548 0.375816 4.53789
0.737008 0.660218 -3.2988
0.609089 1.15145 3.45221
0.628041 1.20648 4.62029
0.76823 1.79839 -3.2148
0.77292 1.92842 -2.04078
0.744769 2.13864 -0.565123
0.682915 2.28673 0.914897
0.63707 2.36239 2.39048
0.628257 2.40903 3.56434
0.630004 2.45735 4.73425
1.4852 -0.287099 -3.37009
1.48981 -0.200235 -2.19961
1.49113 -0.191074 -0.745594
1.46722 -0.210655 0.704947
1.39513 -0.153933 2.15867
1.36226 -0.0950884 3.32772
1.35437 -0.0380533 4.49941
1.48374 0.0544864 -3.344
1.49431 0.168578 -2.17163
1.49848 0.209242 -0.714262
1.46469 0.201087 0.741556
1.37056 0.26202 2.1986
1.33689 0.320139 3.36789
1.3369 0.375821 4.53902
1.49037 0.696725 -3.29666
1.50546 0.807753 -2.12501
1.54127 0.995882 -0.655877
1.4376 1.0579 0.814481
1.30436 1.0972 2.28329
1.29513 1.15146 3.45186
1.31333 1.2068 4.62022
1.51503 1.82242 -3.21269
1.5196 1.95055 -2.03845
1.49083 2.1443 -0.563722
1.41425 2.2833 0.914729
1.34521 2.35978 2.38928
1.32452 2.40792 3.56314
1.3239 2.45691 4.73338
-0.765197 0.45 -2.18523
0 0.171353 -2.17357
-0.741665 0.175002 -1.44269
-0.68298 0.685 2.29554
0 0.272392 2.19607
-0.745431 0.197902 1.46623
0 0.818033 -2.22318
-0.82303 0.90914 -1.39429
0.0001055 1.1182 2.3082
-0.65495 1.0855 1.54914
0.765273 0.45 -2.18531
0.741666 0.175001 -1.44269
0.683038 0.685 2.29549
0.745431 0.197902 1.46623
0.823059 0.909135 -1.39429
0.655097 1.08547 1.54914
-0.743507 0.186493 0.01177
-0.88071 0.586531 -0.686947
8.83767e-07 0.186394 -0.71546
-0.887434 0.621799 0.776142
7.42838e-07 0.179575 0.739
-0.795404 1.05374 0.077425
6.88093e-06 1.35135 -0.658434
4.38178e-05 1.09691 0.813284
0.74351 0.18649 0.01177
0.880707 0.586502 -0.686947
0.887438 0.621772 0.776142
0.795416 1.05364 0.077425
-0.862927 0.518266 -1.41849
0.86293 0.518251 -1.41849
4.41883e-07 0.172069 -1.44269
3.44047e-06 1.03476 -1.39429
0 0.45 -2.36207
-0.881351 0.604165 0.0445975
0.881346 0.604137 0.0445975
8.13302e-07 0.186565 0.01177
2.53494e-05 1.46384 0.077425
-0.886896 0.653399 1.50769
0.886899 0.653386 1.50769
3.71419e-07 0.195672 1.46623
7.4659e-05 1.10808 1.54914
5.27501e-05 0.685 2.40826
-0.756057 0.3125 -2.18353
-0.3675 0.171356 -2.17356
-0.738596 0.174737 -1.80631
-0.706125 0.48 2.27164
-0.3375 0.272741 2.19572
-0.72691 0.219757 1.82985
-0.75437 0.5875 -2.16696
-0.3625 0.807341 -2.21249
-0.793731 0.836786 -1.76222
-0.638234 0.89 2.29785
-0.289115 1.1184 2.3084
-0.62047 1.09408 1.91707
0.3675 0.171357 -2.17356
0.756097 0.3125 -2.18357
0.738596 0.174737 -1.80631
0.3375 0.27276 2.1957
0.70611 0.48 2.27157
0.72691 0.219757 1.82985
0.3625 0.807371 -2.21252
0.754365 0.5875 -2.16696
0.793819 0.836857 -1.76222
0.289326 1.1184 2.3084
0.640208 0.89 2.29966
0.620644 1.09406 1.91707
-0.734725 0.185275 -1.07908
-0.74037 0.186297 -0.351845
-0.866914 0.357347 -0.701203
-0.369126 0.185221 -0.71546
-0.749839 0.190161 1.10262
-0.746656 0.186677 0.375385
-0.874577 0.374998 0.757571
-0.377749 0.180232 0.739
-0.823993 0.953159 -1.02636
-0.878813 0.802288 -0.67269
-0.803738 1.01901 -0.290504
-0.494708 1.34385 -0.658434
-0.688918 1.07642 1.18121
-0.886147 0.883763 0.794713
-0.789362 1.09075 0.445354
-0.367943 1.09775 0.813284
0.734727 0.185273 -1.07908
0.369128 0.185221 -0.71546
0.74037 0.186297 -0.351845
0.86691 0.357333 -0.701203
0.749855 0.190145 1.10262
0.37775 0.180232 0.739
0.746657 0.186676 0.375385
0.874585 0.374981 0.757571
0.824033 0.953146 -1.02636
0.494674 1.34372 -0.658434
0.878815 0.802243 -0.67269
0.803775 1.01896 -0.290504
0.68903 1.07637 1.18121
0.368105 1.09787 0.813284
0.886153 0.883703 0.794713
0.789383 1.09065 0.445354
-0.852238 0.484133 -1.80186
-0.382598 0.45 -2.33183
2.20942e-07 0.171965 -1.80813
0 0.310676 -2.32581
-0.861964 0.346634 -1.43059
-0.370832 0.172072 -1.44269
-0.835981 0.6692 1.90161
-0.341464 0.685 2.38887
1.8571e-07 0.219837 1.83115
2.63751e-05 0.478696 2.40472
-0.887456 0.425651 1.48696
-0.372715 0.19566 1.46623
1.72023e-06 0.941979 -1.80874
0 0.634017 -2.40446
-0.867272 0.713703 -1.40639
-0.411513 1.02282 -1.39429
9.00796e-05 1.11358 1.92867
7.91252e-05 0.901599 2.31183
-0.871691 0.869452 1.52841
-0.327438 1.10788 1.54914
0.852237 0.484125 -1.8019
0.382636 0.45 -2.33189
0.861966 0.346626 -1.43059
0.370833 0.172072 -1.44269
0.835946 0.669193 1.90159
0.341545 0.685 2.3889
0.887456 0.425644 1.48696
0.372716 0.195664 1.46623
0.86728 0.713693 -1.40639
0.411531 1.02282 -1.39429
0.871662 0.86943 1.52841
0.327586 1.10776 1.54914
-0.868035 0.367526 0.0281838
-0.372268 0.185499 0.01177
-0.879038 0.552398 -1.05272
-0.881134 0.595348 -0.321175
6.62825e-07 0.186067 -1.07908
8.48535e-07 0.186479 -0.351845
-0.883732 0.612982 0.41037
-0.894829 0.637599 1.14191
7.7807e-07 0.186643 0.375385
5.57129e-07 0.180936 1.10262
-0.87997 0.849746 0.0610113
-0.498986 1.46138 0.077425
5.1607e-06 1.20793 -1.02636
1.61152e-05 1.43545 -0.290504
3.45836e-05 1.46264 0.445354
5.92384e-05 1.10181 1.18121
0.868032 0.367511 0.0281838
0.37227 0.185499 0.01177
0.879036 0.552376 -1.05272
0.88113 0.595319 -0.321175
0.883731 0.612954 0.41037
0.894831 0.637579 1.14191
0.879962 0.84968 0.0610113
0.499041 1.46138 0.077425
-0.853887 0.329567 -1.80408
-0.868461 0.366477 -1.0659
-0.878897 0.750222 -1.03954
-0.856153 0.650601 -1.78204
0.853869 0.329563 -1.8041
0.856149 0.650596 -1.78206
0.878902 0.750195 -1.03954
0.868412 0.366466 -1.0659
-0.369166 0.171965 -1.80722
0.369167 0.171966 -1.80722
0.369723 0.186042 -1.07908
-0.369722 0.186042 -1.07908
-0.387007 0.948797 -1.78548
-0.409437 1.19629 -1.02636
0.409453 1.19626 -1.02636
0.387016 0.948797 -1.78548
-0.375049 0.311588 -2.29971
-0.372549 0.610758 -2.36675
0.372568 0.610758 -2.36675
0.375068 0.311588 -2.29974
-0.867475 0.362436 -0.33651
-0.870772 0.371529 0.392877
-0.883235 0.866843 0.427862
-0.879386 0.826014 -0.305839
0.86747 0.362423 -0.33651
0.879384 0.82596 -0.305839
0.883228 0.866777 0.427862
0.870772 0.371514 0.392877
-0.370697 0.18536 -0.351845
0.370699 0.18536 -0.351845
0.373628 0.185629 0.375385
-0.373627 0.185629 0.375385
-0.512654 1.43423 -0.290504
-0.522174 1.45699 0.445354
0.522248 1.45698 0.445354
0.512673 1.43418 -0.290504
-0.887003 0.413637 1.12226
-0.8429 0.452825 1.86573
-0.827464 0.879726 1.90934
-0.882716 0.855713 1.16156
0.887003 0.413626 1.12226
0.882711 0.855683 1.16156
0.827497 0.879715 1.90933
0.842905 0.452822 1.86572
-0.375163 0.18094 1.10262
0.375163 0.180936 1.10262
0.355108 0.219749 1.8305
-0.355108 0.219749 1.8305
-0.343135 1.10188 1.18121
-0.308277 1.11397 1.92287
0.308456 1.11353 1.92287
0.343253 1.10205 1.18121
-0.339482 0.479348 2.38318
0.339523 0.479348 2.38308
0.315436 0.8958 2.33621
-0.315289 0.8958 2.33698
-0.746312 0.24375 -2.17751
-0.55125 0.171376 -2.17354
-0.736949 0.174718 -1.98811
-0.694296 0.3775 2.23628
-0.50625 0.274929 2.19353
-0.703059 0.245275 2.01165
-0.73678 0.65625 -2.14565
-0.54375 0.797762 -2.20291
-0.771068 0.792596 -1.94619
-0.603377 0.9925 2.28652
-0.433726 1.11671 2.30671
-0.603107 1.09824 2.10104
0.55125 0.171366 -2.17355
0.746332 0.24375 -2.17753
0.736949 0.174718 -1.98811
0.50625 0.275082 2.19338
0.69432 0.3775 2.23628
0.703059 0.245274 2.01165
0.54375 0.797549 -2.2027
0.736783 0.65625 -2.14565
0.771137 0.792656 -1.94619
0.433937 1.11584 2.30584
0.603576 0.9925 2.28653
0.603288 1.09822 2.10104
-0.736246 0.185421 -0.897268
-0.738791 0.186209 -0.533653
-0.854547 0.24549 -0.708332
-0.55314 0.185735 -0.71546
-0.756602 0.181731 0.920808
-0.748247 0.186753 0.557193
-0.861503 0.25492 0.748286
-0.566433 0.180943 0.739
-0.81943 0.970123 -0.842398
-0.853076 0.897772 -0.665562
-0.809219 1.00297 -0.474469
-0.697164 1.25029 -0.658434
-0.702876 1.06885 0.997248
-0.836619 0.990303 0.803998
-0.782384 1.1053 0.629319
-0.551865 1.09803 0.813284
0.736247 0.185419 -0.897268
0.553141 0.185735 -0.71546
0.738792 0.186208 -0.533653
0.854546 0.245482 -0.708332
0.756605 0.181729 0.920808
0.566434 0.180943 0.739
0.748247 0.186753 0.557193
0.861504 0.254912 0.748286
0.819452 0.970084 -0.842398
0.697161 1.25021 -0.658434
0.853095 0.897727 -0.665562
0.809234 1.0029 -0.474469
0.702973 1.06879 0.997248
0.551981 1.09805 0.813284
[...]
POINT_DATA 3682
SCALARS point_scalars float 1
LOOKUP_TABLE default
-125.831
-40.0297
-53.4794
-38.7432
-125.753
-40.0236
-53.7845
-38.7808
-39.5127
-38.0194
-60.4533
-58.882
-39.4972
-38.0059
-60.4335
-58.882
-15.7447
-102.253
-39.249
-39.0689
-44.6072
-35.7462
-32.6914
50.9753
-109.751
-41.3192
-39.7108
-42.5316
-34.5064
-32.5722
48.1215
-87.5567
-52.8414
-51.6372
-43.6589
-34.9308
-34.9308
-17.2821
-48.6126
-80.1404
-73.1925
-39.8528
-38.7307
-38.4898
24.5207
-139.779
-39.9542
-38.0752
-40.328
-33.1378
-31.5134
135.661
-31.9211
-31.0943
168.046
-37.3282
-32.174
-8.58571
-26.8643
-77.444
-73.4478
-36.7776
-37.3282
-37.3282
24.8327
-139.176
-40.0116
-38.029
-40.2605
-32.8503
-31.1478
135.885
-31.5667
-31.1316
167.536
-36.1655
-31.9481
-8.55495
-26.8899
-77.6093
-73.4583
-36.7987
-37.3337
-36.4097
-15.8103
-102.366
-39.2167
-39.0544
-44.6422
-35.5456
-32.699
50.9282
-109.734
-41.3337
-39.71
-42.5659
-34.4867
-32.5767
48.4886
-88.1316
-52.8154
-51.6421
-43.6059
-34.9673
-34.9673
-17.1073
-48.7828
-80.1205
-73.2045
-38.5049
-38.7784
-37.3492
-46.3963
-167.05
-56.3369
-34.6625
-32.5908
-42.5511
-14.2225
-63.4794
-34.7975
-45.9471
-46.2972
-56.3315
-34.6831
-42.5534
-63.454
-45.9524
-36.0483
-46.6002
-40.8494
-43.1003
-38.218
-55.2856
-59.5904
-55.2522
-36.0549
-46.5911
-43.1061
-55.249
-56.8108
-56.8025
-63.0189
12.1292
194.616
-42.8981
-42.8989
-36.3462
-82.842
-49.0081
-48.9921
-41.4134
-48.5056
-31.4354
-46.4296
-181.072
-79.5179
-35.5569
-34.7229
-45.947
-45.6687
-11.76
-51.0136
-34.9489
-34.9568
-40.1786
-181.359
-46.4731
-79.5132
-34.7391
-35.5212
-45.9479
-11.7248
-45.2549
-50.659
-34.9966
-34.9305
-40.1837
-44.9588
-36.7299
-42.6932
-40.2883
-40.9957
-36.1472
-40.2281
-38.2549
-64.8489
-52.1639
-56.8209
-55.1114
-52.9361
-50.8123
-58.5514
-56.4291
-44.9504
-40.284
-36.7511
-42.6915
-41.0005
-38.253
-36.1429
-40.228
-64.8451
-55.0562
-52.1537
-56.7975
-52.9447
-56.4304
-50.8104
-58.8136
-82.799
181.802
-89.3981
135.973
-56.1963
-62.0433
-45.2249
-32.3092
-40.4131
-24.9335
-48.5415
-41.7503
-17.493
170.183
-58.6862
5.13448
-40.7125
-32.5838
-47.2883
-48.1905
-82.7926
181.673
-56.1879
-62.0406
-45.2159
-32.3178
-48.5214
-41.7552
-58.6726
5.12866
-47.2684
-48.1854
-39.622
-36.2062
-50.829
-43.9913
-49.0408
-37.4304
-42.7377
-46.073
-36.566
-41.4133
-49.2778
-77.8437
-15.114
-91.7303
-69.323
-54.3355
-39.6205
-36.2053
-50.8166
-43.9854
-42.7483
-46.0715
-49.26
-77.8513
-81.5223
-48.9169
-55.7633
-83.3208
-81.5137
-83.3516
-55.7495
-48.9038
-87.594
-87.5958
-48.2682
-48.2723
-22.3819
-18.7561
-18.7014
-22.39
111.737
161.941
160.126
111.761
-40.5808
-39.3847
-49.0384
-48.8166
-40.5709
-48.8013
-49.0868
-39.3879
-37.179
-37.1779
-36.462
-36.4649
-85.3941
-70.9901
-70.9923
-85.3851
-43.713
-46.6556
-44.3912
-47.6109
-43.7145
-47.5969
-44.3941
-46.638
-41.534
-41.5385
-41.4087
-41.3976
-54.7622
-40.2685
-40.2727
-54.7538
-29.9723
-29.9865
-33.0915
-33.0923
-51.5953
-189
-113.308
-37.1476
-36.9096
-41.7794
-40.7197
-8.82741
-53.821
-36.19
-36.2458
-38.281
-186.325
-51.6512
-113.307
-36.9256
-37.1479
-41.7844
-8.78057
-40.229
-53.8949
-36.3856
-36.2149
-38.2977
-40.2362
-37.7153
-39.7906
-39.5834
-43.8345
-36.5084
-39.7042
-38.3996
-62.8376
-55.965
-58.4767
-80.3416
-55.5098
-58.3332
-67.8268
-58.0245
-40.2224
-39.5765
-37.7054
-39.7643
-43.8599
-38.3968
-36.5038
-39.7044
-62.8187
-80.1552
-55.9494
-58.4592
-55.5182
-58.0238
-58.2918
-67.7644
-41.2003
-51.22
-105.307
138.571
-171.859
-172.164
-112.281
93.7033
-65.0906
-50.5785
-55.7091
-59.6066
-34.9671
-34.482
-41.674
-32.8997
-33.1392
-33.1479
-36.6508
-24.6929
-46.1478
-41.7746
-46.7133
-41.9536
-21.0762
-21.2083
-20.8104
82.6545
-52.1853
-64.4325
-61.8258
-6.20755
-34.6361
-34.6473
-37.4587
-33.1549
-42.9011
-49.8148
-46.0423
-47.5546
-41.1847
-51.0431
-105.328
137.874
-65.0865
-50.57
-55.7035
-59.8307
-34.9678
-34.481
-41.6561
-32.9045
-46.1574
-41.7691
-46.6967
-41.9587
-52.1734
-64.4118
-61.8162
-6.2252
-42.906
-49.8258
-46.0465
-47.5573
-36.252
-36.029
-38.0302
-36.0263
-44.473
-48.9259
-48.6123
-45.0555
-40.7146
-40.7121
-44.0323
-38.747
-41.6017
-45.5027
-43.0321
-43.296
-38.2246
-38.2234
-36.9939
-40.1762
-56.0684
-55.6835
-53.7755
-65.075
-58.2588
-58.2572
-30.9064
-83.0389
-55.7355
-55.7366
-57.5994
-55.2489
-36.2671
-36.0279
-38.0496
-36.0272
-44.4665
-48.9165
-48.6027
-45.0489
-41.6095
-45.5062
-43.041
-43.3019
-56.0451
-55.6104
-53.7341
-65.0608
-64.8453
-56.5487
-57.3924
-51.7351
-64.8393
-56.5412
-57.3811
-51.7225
-74.4633
-62.7562
-62.7548
-54.9986
-2.69944
10.3439
10.3708
6.67001
191.766
171.559
206.553
191.742
-41.0753
-43.2952
-42.4548
-45.218
-41.074
-43.2922
-42.4612
-45.2172
-36.3158
-36.6788
-36.3264
-36.3149
-81.7893
-89.0437
-76.2401
-81.7964
-49.3067
-48.8536
-48.653
-47.0956
-49.2974
-48.8422
-48.6064
-47.1005
-41.5541
-41.5136
-41.5166
-41.2771
-44.4583
-48.4843
-48.4737
-51.9939
-31.6542
-26.7893
-33.0658
-31.6324
-108.451
92.589
-112.8
106.971
-80.1682
-84.2152
-42.2683
-32.0875
-38.0827
-30.4472
-47.3802
-42.9102
-88.6543
92.9564
-24.2913
82.4032
-75.5558
-27.0519
-43.0846
-33.3744
-37.1155
-33.3653
-42.4736
-40.078
-112.802
108.147
-108.48
93.232
-80.1567
-84.2086
-38.0952
-30.4783
-42.2512
-32.0955
-47.3757
-42.9214
-24.2299
82.2745
-88.5337
92.3474
-75.6406
-27.0833
-37.1156
-33.3679
-42.9957
-33.3819
-42.4206
-40.0918
-48.2787
-47.1609
-38.8749
-36.8779
-44.741
-41.4504
-43.263
-38.3888
-42.3655
-41.3162
-37.9992
-36.2979
-39.8426
-40.5136
-36.9304
-40.445
-59.2895
-41.0712
-53.8805
-50.362
-52.948
-69.9916
-32.6206
-78.3895
-52.1556
-54.3503
-50.0019
-48.9281
-54.5642
-65.3233
-61.1482
-56.2614
-48.266
-47.1541
-43.2581
-38.3862
-38.7612
-36.879
-44.7308
-41.4582
-42.3759
-41.3223
-36.9271
-40.4465
-37.9999
-36.2945
-39.8465
-40.5316
-59.2802
-41.0631
-32.6298
-78.3755
-53.8685
-50.3507
-52.9274
-69.968
-52.1604
-54.3447
-61.151
-56.2601
-50.0137
-48.9342
-54.7445
-65.3223
-82.1826
-83.1074
160.339
190.946
-89.0525
-89.0559
121.144
121.024
-64.3249
-50.1234
-72.7891
-54.1451
-45.9196
-44.9035
-30.6931
-32.886
-40.4708
-40.4641
-26.626
-26.6428
-45.3924
-50.8885
-41.3812
-42.4171
-18.5648
-18.5439
164.35
164.328
-55.577
-65.4789
-8.68568
1.71664
-40.6074
-40.6199
-32.7687
-32.7425
-47.3562
-47.679
-51.8999
-44.051
-82.1717
-83.1131
190.964
160.2
-64.3195
-50.1128
-72.788
-54.1417
-44.8982
-45.9095
-30.7062
-32.9016
-45.3853
-50.9074
-41.3841
-42.4257
-65.4711
-55.5715
1.74644
-8.68405
-47.689
-47.3439
-44.0529
-51.8903
-40.0385
-39.221
-36.5022
-36.2091
-49.6833
-52.6936
-42.1131
-46.0057
-48.8295
-48.8316
-37.3688
-37.3675
-40.9635
-45.0562
-45.1882
-46.7088
-36.5461
-36.548
-41.471
-41.4734
-47.9892
-47.7611
-80.9537
-72.8776
-15.4514
-15.4148
-90.4773
-90.5085
-69.9992
-70.0053
-54.5685
-54.5682
-40.0417
-39.2228
-36.5018
-36.2072
-52.6793
-49.6719
-42.1114
-45.9972
-45.0755
-40.9696
-45.1875
-46.7001
-47.763
-48.0007
-72.8788
-80.9241
-107.12
-63.569
-64.6152
-108.01
-41.4038
-46.5321
-50.7252
-49.1663
-57.802
-58.5953
-52.9368
-50.8504
-72.4326
-99.6189
-64.9981
-65.8819
-107.098
-108.024
-64.6093
-63.567
-72.3688
-65.8663
-64.9891
-99.6106
-57.7836
-50.8477
-52.9372
-58.5805
-41.3869
-49.1534
-50.7083
-46.5236
-111.456
-112.509
-74.1116
-69.7905
-111.436
-69.7838
-74.1111
-112.519
-42.1234
-43.7895
-54.8126
-52.7582
-42.1316
-52.7652
-54.8145
-43.7922
-33.7699
-14.0745
-4.12167
-22.1954
-74.622
-30.7107
5.2787
-16.1612
-74.3599
-16.1202
5.35209
-30.7066
-33.7954
-22.1134
-4.11563
-14.0877
51.8712
134.739
166.189
49.8151
76.7835
74.765
201.675
126.164
76.8069
125.595
201.64
73.5293
51.6708
49.6572
166.163
134.408
-39.4709
-38.3202
-41.4942
-43.0695
-38.4391
-41.3229
-40.7336
-37.8305
-60.2412
-52.4485
-44.683
-45.4474
-54.4636
-47.2491
-45.4009
-52.9502
-39.9109
-43.1155
-41.4933
-38.3453
-54.4514
-52.9633
-45.3978
-47.2406
-60.2167
-45.4589
-44.6927
-52.3655
-38.4457
-37.8378
-40.7373
-41.3294
-37.9051
-38.6586
-36.6355
-36.2717
-37.9066
-36.2794
-36.6346
-38.6567
-36.7705
-36.9775
-36.2992
-36.0453
-36.7748
-36.047
-36.2989
-36.9793
-75.7484
-66.0279
-87.8304
-81.9197
-67.7806
-58.0536
-75.7683
-63.5485
-67.7709
-63.5391
-75.7721
-58.0892
-75.7424
-81.9338
-87.7891
-66.0106
-42.8067
-43.3974
-46.6285
-41.4785
-42.63
-42.1212
-49.9759
-52.242
-41.8133
-43.7141
-48.5862
-41.9632
-53.7336
-45.981
-47.3989
-50.68
-42.9183
-41.4838
-46.6263
-43.3693
-53.7542
-50.6859
-47.4156
-45.9906
-41.8065
-41.9174
-48.5868
-43.729
-42.6134
-52.239
-49.966
-42.1037
-41.1498
-40.2194
-41.3124
-41.5711
-41.1529
-41.5739
-41.314
-40.2201
-39.6631
-37.0414
-41.762
-43.6136
-39.6482
-43.6048
-41.7568
-37.0345
-56.4819
-51.2458
-52.0757
-55.6291
-37.2149
-37.3555
-44.3938
-43.6335
-37.2389
-43.6432
-44.3884
-37.3548
-56.4782
-55.6297
-52.0666
-51.242
-33.0565
-26.5812
-28.2559
-32.1869
-33.0629
-32.1932
-28.2713
-26.7686
-33.6457
-33.2236
-33.1169
-33.1234
-33.6488
-33.1194
-33.0967
-33.235
-71.325
-189.799
-150.273
-38.8441
-38.4536
-40.6945
-45.164
-17.1907
-52.6861
-37.6726
-37.3596
-38.2303
-187.806
-71.3304
-150.261
-38.4713
-38.8421
-40.6975
-17.0068
-45.035
-52.7129
-37.3746
-37.7023
-38.2354
-40.5688
-38.3575
-39.1703
-39.3289
-41.2128
-36.4345
-38.3354
-38.4629
-61.5544
-58.1499
-59.4539
-68.3704
-56.9222
-59.1561
-61.9497
-58.836
-40.5513
-39.3201
-38.353
-39.1459
-41.2006
-38.4578
-36.4255
-38.3159
-61.5342
-68.3448
-58.1333
-59.4383
-56.9261
-58.8334
-59.1577
-61.953
-43.9172
-49.2962
-93.5092
49.6053
-167.065
-166.267
-133.227
50.9063
-60.2525
-52.9474
-55.4544
-58.2206
-35.0213
-34.4831
-39.0323
-33.2898
-32.7266
-32.7311
-34.8165
-27.1844
-43.7045
-41.8478
-45.2436
-42.0823
-17.1544
-17.6945
-28.3138
18.5393
-57.3911
-65.9739
-64.2348
-31.5811
-34.7099
-34.7192
-36.173
-33.7721
-44.4789
-47.9157
-45.2709
-47.1832
-43.8743
-49.1582
-93.616
49.8161
-60.2473
-52.9404
-55.45
-58.2143
-35.0165
-34.4875
-39.0191
-33.2932
-43.7093
-41.8453
-45.2343
-42.0865
-57.2723
-65.9045
-64.2157
-31.5896
-44.4854
-47.9186
-45.2525
-47.1899
-36.0928
-36.0407
-36.5788
-35.986
-45.4827
-47.6696
-47.48
-45.7731
-40.8011
-40.7998
-42.2956
-39.6793
-42.239
-44.2783
-43.1551
-43.3407
-38.2265
-38.2257
-37.1162
-39.4879
-55.6408
-55.2708
-54.0235
-60.0653
-59.3205
-59.3231
-43.9751
-73.3356
-55.4002
-55.4008
-54.9669
-55.3678
-36.1059
-36.0415
-36.6066
-35.9888
-45.4743
-47.6591
-47.4701
-45.7665
-42.2459
-44.2845
-43.1632
-43.3472
-55.6163
-55.2286
-53.9838
-60.0394
-60.4938
-56.7042
-57.0795
-53.9599
-60.4859
-56.6974
-57.0688
-53.9562
-68.4013
-63.231
-63.1724
-58.7535
5.17475
11.6942
11.6833
12.4876
193.152
183.768
199.79
193.123
-41.9749
-43.083
-42.6355
-43.9828
-41.9754
-43.0817
-42.6384
-43.9832
-36.3344
-36.4658
-36.3057
-36.3456
-82.5828
-86.9936
-79.1901
-82.5878
-49.971
-48.9981
-49.2147
-48.466
-49.9436
-48.9859
-49.1899
-48.4771
-41.3473
-41.445
-41.4464
-41.4718
-46.4583
-48.5125
-48.497
-50.3803
-31.5004
-29.1908
-32.761
-31.4649
-52.4675
-43.4025
-90.9478
58.8496
-194.3
-174.712
-138.775
-66.2342
-91.8438
-71.2276
-79.5488
-81.6995
-36.1357
-35.0467
-39.6792
-33.01
-35.7304
-33.8124
-36.4792
-31.3861
-44.0552
-46.6227
-47.9307
-43.888
-42.0533
-48.8728
-76.4867
38.7328
-8.41366
-15.7586
-32.8801
43.0166
-52.4509
-50.6179
-67.0813
-31.6478
-35.3085
-34.6929
-40.8819
-33.6694
-35.5604
-34.7231
-35.8015
-34.1017
-39.043
-41.529
-41.3051
-40.0788
-195.774
-173.218
-138.769
-66.591
-52.5534
-43.3941
-91.0398
59.0484
-91.8411
-71.2238
-79.5341
-81.6957
-35.7493
-33.824
-36.4932
-31.4124
-36.1361
-35.0568
-39.6692
-33.0158
-44.0582
-46.6282
-47.9233
-43.8968
-8.39937
-16.1601
-33.0117
43.038
-41.3343
-48.7391
-76.9425
38.8201
-52.4799
-50.5904
-67.2584
-31.695
-35.6759
-34.7242
-35.8057
-34.1051
-35.3418
-34.6774
-41.3799
-33.6679
-39.0509
-41.5347
-41.2928
-40.0882
-41.4691
-49.8682
-46.4841
-46.4535
-37.1592
-36.4506
-37.2736
-36.7412
-41.8207
-43.6225
-43.6515
-41.9748
-39.9327
-40.5517
-41.5871
-39.2391
-41.7908
-40.6051
-43.4068
-41.1272
-36.3435
-36.006
-36.3264
-36.2221
-39.7004
-41.0177
-40.1238
-39.7434
-38.2797
-38.2231
-37.071
-39.6388
-64.3535
-67.257
-62.1659
-76.6981
-53.9446
-50.3606
-52.8241
-51.2797
-57.7268
-56.345
-55.3013
-62.417
-65.2297
-56.6789
-40.8675
-70.5639
-54.1329
-51.5633
-52.3139
-53.9278
-54.5929
-47.2823
-50.7326
-50.3411
-61.681
-56.8516
-56.4142
-62.228
-56.9807
-56.189
-56.5403
-56.6077
-41.4592
-49.8584
-46.4739
-46.4456
-39.9271
-40.5484
-41.5823
-39.2355
-37.1693
-36.4668
-37.2041
-36.7465
-41.8229
-43.6187
-43.6435
-41.9818
-41.8147
-40.6134
-43.4109
-41.1359
-38.2776
-38.2214
-37.0676
-39.6387
-36.3393
-36.0019
-36.3257
-36.2184
-39.7086
-41.0234
-40.1278
-39.7573
-64.3542
-67.2418
-62.1588
-76.6807
-65.169
-56.6543
-40.9076
-70.473
-53.9319
-50.3512
-52.812
-51.2699
-57.7042
-56.3226
-55.2775
-62.3968
-54.1398
-51.5673
-52.3314
-53.9255
-56.9835
-56.1904
-56.5416
-56.6093
-54.591
-47.28
-50.7342
-50.347
-61.6338
-57.1109
-56.8325
-62.2409
-96.8685
-71.4653
-82.5183
-82.9046
170.196
186.292
172.565
188.495
-98.9476
-81.4475
-89.3189
-89.3172
123.068
150.712
126.069
125.856
-55.9699
-56.3564
-60.1512
-53.0122
-61.1239
-62.7573
-67.0298
-57.7276
-43.306
-47.3943
-45.5014
-45.0664
-32.6695
-32.0176
-31.5164
-32.6778
-38.6043
-41.4009
-40.3119
-40.3084
-24.2712
-25.5078
-25.4083
-25.4187
-47.6503
-48.6848
-47.4842
-49.7715
-41.8354
-41.6272
-41.6982
-41.8992
-18.6521
-11.4911
-17.7039
-17.6892
130.775
201.309
163.557
166.241
-59.7307
-57.891
-56.6107
-62.1054
1.24969
8.01948
-1.34743
6.8944
-38.9932
-42.5336
-40.7021
-40.7029
-32.4931
-32.7231
-32.6448
-32.6382
-46.9485
-48.0442
-47.7216
-47.5282
-47.8667
-48.4113
-50.1464
-46.1107
-96.9007
-71.4613
-82.5084
-82.91
169.277
186.278
188.739
172.277
-55.9628
-56.3482
-60.1427
-53.0038
-61.1187
-62.6596
-67.0273
-57.7244
-43.2971
-47.3907
-45.0585
-45.4924
-32.6765
-32.0091
-31.5275
-32.6946
-47.6306
-48.6698
-47.4793
-49.7281
-41.8406
-41.6312
-41.7025
-41.9052
-59.7206
-57.8768
-62.0953
-56.5923
1.29798
8.05943
6.94341
-1.34342
-46.9404
-48.0054
-47.5281
-47.7104
-47.8654
-48.403
-46.1098
-50.1359
-38.9495
-40.3661
-39.821
-39.4154
-36.1152
-36.2715
-36.3099
-36.1806
-49.9834
-50.9421
-49.9896
-51.69
-44.4215
-43.6007
-43.0304
-44.9587
-46.1954
-52.0519
-48.9589
-48.9599
-37.9971
-36.9915
-37.4041
-37.4033
-42.8833
-42.6473
-41.7974
-43.8621
-44.9321
-46.384
-45.7055
-46.3804
-36.7577
-36.4213
-36.5733
-36.5743
-40.7352
-41.461
-41.5011
-41.5024
-52.6187
-46.7728
-48.1452
-48.5204
-71.955
-80.3965
-81.0978
-74.491
-23.0604
-5.37918
-15.1991
-15.1843
-91.8112
-89.0167
-91.3999
-91.4367
-65.2972
-72.822
-69.4982
-69.5014
-54.8852
-53.3751
-54.399
-54.4014
-38.9502
-40.3611
-39.8212
-39.4174
-36.1148
-36.2705
-36.3093
-36.1792
-49.9716
-50.932
-51.6759
-49.9789
-44.4153
-43.596
-43.0251
-44.9516
-42.8932
-42.6564
-43.8762
-41.8051
-44.9342
-46.3844
-45.7047
-46.3773
-52.5853
-46.7675
-48.5341
-48.1323
-71.9498
-80.4061
-74.4876
-81.106
-99.0878
-80.7443
-81.8773
-70.5417
-48.6415
-46.1243
-50.3223
-49.3709
-57.2309
-54.8308
-55.1879
-54.0481
-92.5064
-81.6793
-83.7087
-71.4699
-99.0794
-80.7362
-81.8683
-70.5369
-92.6485
-81.739
-83.7876
-71.4439
-57.2171
-54.8205
-55.1803
-54.0341
-48.628
-46.1105
-50.3132
-49.3591
-97.7503
-86.1583
-88.5446
-79.6452
-97.7518
-86.1569
-88.5491
-79.6455
-47.7729
-45.3328
-51.4347
-48.6026
-47.7782
-45.3375
-51.438
-48.6057
-22.606
-25.37
-20.0692
-16.7188
-23.4211
-25.4266
-8.62799
-16.4835
-23.4002
-25.4175
-8.69897
-16.4268
-22.5655
-25.3878
-20.0556
-16.7191
108.715
93.9945
136.311
117.465
141.075
123.378
193.313
161.139
123.277
140.723
160.972
193.284
94.2775
108.907
117.496
136.249
-39.7986
-40.995
-40.2616
-41.3883
-38.7292
-39.6407
-39.1527
-40.1232
-49.3713
-51.793
-46.5008
-47.8656
-49.5218
-51.0491
-47.131
-48.3814
-39.8033
-40.9906
-40.2576
-41.3827
-49.5093
-51.0311
-47.1197
-48.3556
-49.4035
-51.8763
-46.5295
-47.9058
-38.731
-39.6444
-39.1551
-40.1278
-37.0172
-37.7024
-36.7853
-37.2882
-37.7006
-37.0168
-37.2867
-36.7849
-36.6702
-36.3842
-36.5135
-36.3061
-36.3875
-36.6733
-36.3086
-36.516
-80.0017
-86.0231
-81.3049
-88.7862
-69.1821
-71.43
-71.4371
-70.6969
-71.4377
-69.1763
-70.7041
-71.4426
-86.1112
-79.981
-88.7989
-81.2511
-42.7707
-43.2371
-44.1275
-44.6312
-44.1895
-46.883
-46.3048
-49.2019
-43.783
-43.8326
-44.7244
-45.6227
-48.5497
-48.2008
-47.5953
-47.0713
-42.778
-43.2363
-44.1201
-44.6297
-48.5461
-48.2024
-47.6026
-47.0548
-43.7734
-43.85
-44.7216
-45.6215
-44.1757
-46.8611
-46.2936
-49.2073
-41.4578
-40.8631
-41.5484
-41.5706
-41.4629
-40.8654
-41.5524
-41.5743
-39.8479
-42.1101
-40.8645
-42.5379
-39.8361
-42.0982
-40.8548
-42.5271
-54.6303
-55.6153
-53.4594
-54.7249
-38.5979
-40.0909
-40.4608
-42.0822
-38.5992
-40.1015
-40.4632
-42.0867
-54.6219
-55.6104
-53.4486
-54.718
-31.1663
-30.0428
-30.1727
-28.2933
-30.0595
-31.1755
-28.3116
-30.1868
-33.2571
-33.2974
-32.8173
-32.9711
-33.2993
-33.2664
-32.963
-32.7895
-97.4549
21.9276
-143.611
-49.706
-118.643
-109.968
-41.1308
-34.2666
-38.263
-34.154
-42.8958
-40.4708
-65.7444
36.5137
-33.9279
53.0479
-63.4123
-44.1837
-42.241
-34.1944
-36.1878
-35.0152
-40.4901
-37.578
-143.501
-49.58
-97.5169
21.5967
-118.62
-109.964
-38.2856
-34.1624
-41.118
-34.2704
-42.8811
-40.4828
-33.8678
53.1081
-65.9158
38.4385
-63.4345
-44.2295
-36.2165
-35.1164
-42.2654
-34.2248
-40.4953
-37.5911
-38.2144
-41.4383
-38.2212
-37.7283
-41.9458
-40.7073
-40.7611
-38.5991
-46.1314
-41.8519
-36.7707
-36.6555
-38.9023
-37.8655
-36.8925
-40.0764
-60.3353
-71.9527
-56.735
-55.1857
-56.4819
-65.0137
-81.9877
-82.0705
-54.6729
-56.3628
-60.1964
-57.7258
-65.3567
-68.421
-59.128
-57.2866
-38.2001
-41.4281
-40.7531
-38.594
-38.2293
-37.725
-41.9243
-40.7278
-46.0761
-41.8556
-36.8881
-40.0762
-36.7776
-36.6507
-38.9005
-37.9203
-60.3153
-71.9325
-81.9287
-82.0351
-56.7167
-55.1739
-56.4661
-64.9973
-54.6997
-56.3596
-59.1209
-57.2846
-60.1601
-57.6153
-65.2923
-68.3933
-99.8655
56.076
-81.9833
54.6017
-107.225
-103.93
141.589
133.48
-134.514
-43.4541
-134.519
-43.4076
-112.487
-112.481
92.1666
92.0456
-63.2133
-67.5618
-49.6484
-51.7568
-59.7015
-52.3675
-64.7002
-56.0413
-38.8653
-32.8721
-39.8702
-33.2956
-42.0609
-41.6635
-32.5729
-33.0421
-35.2653
-28.5615
-35.2728
-28.5745
-36.76
-36.7565
-25.4751
-25.482
-50.0933
-44.4116
-42.7414
-41.7272
-45.6454
-47.3343
-41.8139
-42.4569
-31.674
37.2883
-31.4804
37.3705
-21.218
-21.1452
64.3088
62.6826
-62.8035
-21.8424
-62.5053
-51.5692
-59.5579
-64.5162
-10.0061
-6.29739
-36.0133
-33.6653
-36.0158
-33.6678
-37.4351
-37.4242
-33.2352
-33.2387
-42.6388
-43.2529
-49.1984
-50.7828
-44.9691
-48.9556
-49.4703
-45.5764
-99.9642
56.045
-82.0121
54.9052
-107.263
-103.951
132.589
141.863
-63.2125
-67.5566
-49.6333
-51.7491
-59.6962
-52.3612
-64.6928
-56.0336
-38.8568
-32.8775
-39.8526
-33.3017
-41.641
-42.0426
-32.5789
-33.0457
-50.1026
-44.4191
-42.7253
-41.7282
-45.634
-47.3234
-41.8181
-42.4633
-62.7753
-21.8718
-62.4808
-51.5625
-64.4936
-59.5434
-6.31805
-10.0143
-42.6227
-43.2628
-49.2119
-50.7826
-48.9639
-44.9689
-45.5821
-49.4699
-36.7478
-36.2093
-36.6703
-35.9989
-38.234
-38.0585
-36.107
-36.0185
-45.3851
-43.7038
-49.7182
-48.0586
-47.5277
-49.6291
-44.019
-46.0687
-42.1365
-39.5683
-42.1339
-39.566
-43.9788
-43.9803
-38.7399
-38.7387
-41.6047
-40.9525
-45.6159
-45.3763
-42.1229
-44.1733
-42.4398
-44.2941
-37.081
-39.5207
-37.0786
-39.5206
-36.9669
-36.968
-40.201
-40.2014
-55.1098
-60.6653
-54.044
-59.8031
-52.3402
-54.7361
-65.49
-63.9662
-42.4296
-72.2904
-42.4313
-72.2944
-30.6514
-30.6508
-82.8054
-82.814
-55.5637
-55.7966
-55.5654
-55.7972
-57.6933
-57.738
-55.3658
-55.3663
-36.7833
-36.2156
-36.6801
-35.9972
-38.2505
-38.0627
-36.109
-36.0178
-45.3793
-43.6984
-49.7651
-48.0505
-49.6198
-47.5186
-44.0139
-46.0604
-41.6118
-40.9607
-45.6226
-45.3819
-44.1832
-42.1306
-42.4449
-44.2998
-55.0971
-60.6341
-53.8406
-59.8103
-54.7282
-52.2416
-63.9556
-65.4753
-64.7976
-64.802
-60.3509
-53.5231
-54.5914
-60.6651
-51.298
-52.1968
-64.7913
-64.7955
-60.3427
-53.5184
-60.6564
-54.5771
-52.1925
-51.2821
-74.3981
-74.3965
-68.165
-58.4622
-68.1639
-58.5389
-54.9962
-54.9975
-2.91695
-2.91214
3.61355
11.0441
11.1076
3.62207
6.32221
6.45039
180.628