# vtk DataFile Version 2.0
tet_velo
ASCII
DATASET UNSTRUCTURED_GRID
POINTS 29498 float
-0.735 0.125 -2.14827
-0.781952 0.275 2.215
-0.791899 0.845 -2.015
-0.755 1.02821 2.135
0.735 0.125 -2.14827
0.781953 0.275 2.215
0.791899 0.845 -2.015
0.755 1.02821 2.135
-0.829378 0.0962729 -0.693847
-0.857075 0.134227 0.760577
-0.833888 0.960359 -0.631667
-0.819951 1.01979 0.751667
0.82938 0.0962714 -0.693847
0.857078 0.134224 0.760577
0.83389 0.960361 -0.631667
0.819936 1.01978 0.751667
-1.54821 -0.337934 -3.30959
-1.55818 -0.304351 -2.17452
-1.62806 -0.314828 -0.71826
-1.66066 -0.28188 0.752308
-1.62331 -0.174632 2.20977
-1.60924 -0.107182 3.35074
-1.6123 -0.0587456 4.48079
-1.54806 0.0633203 -3.26851
-1.55618 0.112748 -2.14121
-1.63829 0.11035 -0.698781
-1.66159 0.137946 0.750047
-1.59918 0.236175 2.19384
-1.59294 0.301643 3.3338
-1.60402 0.350516 4.46617
-1.57237 0.833092 -3.1664
-1.59241 0.882146 -2.03616
-1.64401 0.960744 -0.642196
-1.63762 1.00348 0.746733
-1.57656 1.0326 2.14206
-1.58097 1.09699 3.28497
-1.59879 1.15682 4.42879
-1.60505 2.04838 -3.06669
-1.6183 2.10765 -1.9471
-1.63713 2.1974 -0.576181
-1.64038 2.26336 0.779414
-1.62733 2.30221 2.15107
-1.62037 2.3401 3.27222
-1.62142 2.38821 4.40828
-0.75196 -0.331611 -3.31417
-0.746787 -0.29609 -2.18121
-0.807618 -0.322095 -0.717363
-0.844585 -0.284067 0.761295
-0.817906 -0.152318 2.22549
-0.807084 -0.0909967 3.3614
-0.80999 -0.0495559 4.48696
-0.751481 0.0655245 -3.26992
-0.793998 0.317719 3.34259
-0.804041 0.358999 4.47082
-0.772068 0.819472 -3.15761
-0.785042 1.09981 3.28355
-0.800996 1.16009 4.42849
-0.797814 2.03969 -3.058
-0.806438 2.09971 -1.93752
-0.821755 2.19743 -0.570408
-0.829493 2.26746 0.778721
-0.824219 2.30305 2.14613
-0.819206 2.33959 3.26728
-0.819559 2.38808 4.40469
0.797021 -0.331612 -3.31417
0.790216 -0.296091 -2.18121
0.835633 -0.322097 -0.717363
0.836994 -0.284069 0.761296
0.787952 -0.152319 2.22549
0.787364 -0.0909983 3.3614
0.789914 -0.0495578 4.48696
0.786503 0.0655241 -3.26992
0.78307 0.317718 3.34259
0.787933 0.358997 4.47082
0.799088 0.819471 -3.15761
0.773969 1.09981 3.28355
0.783798 1.16009 4.42849
0.809824 2.03969 -3.058
0.811804 2.09971 -1.93752
0.810662 2.19742 -0.570408
0.796481 2.26745 0.778721
0.780439 2.30304 2.14613
0.778638 2.33958 3.26728
0.780624 2.38808 4.40469
1.5839 -0.337935 -3.30959
1.58154 -0.304353 -2.17452
1.64214 -0.314832 -0.71826
1.66001 -0.281886 0.752308
1.61162 -0.174636 2.20977
1.59614 -0.107186 3.35074
1.5953 -0.0587502 4.48079
1.57093 0.0633194 -3.26851
1.55361 0.112747 -2.14121
1.63558 0.110346 -0.698781
1.66511 0.137937 0.750047
1.60422 0.236171 2.19384
1.58826 0.30164 3.3338
1.59079 0.350512 4.46617
1.58588 0.833091 -3.1664
1.58434 0.882146 -2.03616
1.63699 0.960741 -0.642196
1.63894 1.00346 0.746733
1.58112 1.0326 2.14206
1.57562 1.09699 3.28497
1.58404 1.15681 4.42879
1.6123 2.04838 -3.06669
1.61771 2.10765 -1.9471
1.62343 2.19739 -0.576181
1.61149 2.26335 0.779413
1.59043 2.3022 2.15107
1.58389 2.34009 3.27222
1.58441 2.38821 4.40828
-0.797716 0.485 -2.1159
0 0.0924498 -2.18082
-0.797604 0.0952209 -1.42106
-0.797826 0.651605 2.20435
4.76837e-07 0.244377 2.24562
-0.874648 0.149478 1.48779
0 0.931602 -2.1016
-0.825146 0.914932 -1.32333
0 1.06614 2.17293
-0.804875 1.0414 1.44333
0.797709 0.485 -2.11589
0.797606 0.0952192 -1.42106
0.797867 0.651605 2.20439
0.874662 0.149465 1.48779
0.825143 0.914929 -1.32333
0.804869 1.04139 1.44333
-0.840804 0.117672 0.033365
-0.880382 0.528316 -0.662757
8.6754e-07 0.127637 -0.693847
-0.866939 0.577009 0.756122
1.73508e-06 0.147785 0.760577
-0.833153 0.996309 0.0599999
1.09582e-06 1.35358 -0.631667
-7.45999e-06 1.62557 0.751667
0.840796 0.11768 0.033365
0.880377 0.528316 -0.662757
0.866965 0.577 0.756122
0.833147 0.996302 0.0599999
-0.883492 0.506658 -1.3722
-0.880716 0.552662 0.0466825
-0.886736 0.614307 1.46556
4.3377e-07 0.129906 -1.42106
1.30131e-06 0.137046 0.033365
1.10596e-06 0.183692 1.48779
0 0.485 -2.23968
2.38419e-07 0.651605 2.25938
5.47909e-07 1.03064 -1.32333
-3.18209e-06 1.62342 0.0599999
-3.73e-06 1.59569 1.44333
0.883519 0.506658 -1.3722
0.880719 0.552658 0.0466825
0.886737 0.614303 1.46556
-1.14559 0.118874 -2.14474
-0.740893 -0.085545 -2.16474
-0.743241 0.0952622 -2.7091
-1.19056 0.255587 2.20442
-0.799929 0.061341 2.22024
-0.787975 0.29636 2.7788
-1.19216 0.863573 -2.02558
-0.781983 0.832236 -2.58631
-0.799169 1.47235 -1.97626
-1.16578 1.03041 2.13853
-0.770021 1.06401 2.70928
-0.789609 1.66563 2.14056
0.762608 -0.0855453 -2.16474
0.760752 0.0952621 -2.7091
1.14431 0.118874 -2.14474
0.784952 0.0613403 2.22024
0.782512 0.296359 2.7788
1.19309 0.255586 2.20442
0.795494 0.832236 -2.58631
0.801852 1.47235 -1.97626
1.18812 0.863573 -2.02558
0.764485 1.06401 2.70928
0.767719 1.66563 2.14056
1.16806 1.0304 2.13853
-1.23384 0.103311 -0.696314
-0.818498 -0.112911 -0.705605
-1.25933 0.136086 0.755312
-0.85083 -0.0749201 0.760936
-1.23895 0.960552 -0.636932
-0.827822 1.57889 -0.601038
-1.22878 1.01164 0.7492
-0.824722 1.64363 0.765194
0.832506 -0.112913 -0.705605
1.23248 0.103309 -0.696314
0.847036 -0.0749228 0.760936
1.2611 0.136081 0.755312
0.822276 1.57889 -0.601038
1.23544 0.960551 -0.636932
0.808209 1.64361 0.765194
1.22944 1.01162 0.7492
-1.55319 -0.321142 -2.74206
-1.54814 -0.137307 -3.28905
-1.15009 -0.334772 -3.31188
-1.59312 -0.30959 -1.44639
-1.55718 -0.0958017 -2.15787
-1.15248 -0.300221 -2.17787
-1.64436 -0.298354 0.0170241
-1.63317 -0.102239 -0.70852
-1.21784 -0.318462 -0.717811
-1.64199 -0.228256 1.48104
-1.66113 -0.071967 0.751178
-1.25262 -0.282973 0.756802
-1.61628 -0.140907 2.78026
-1.61125 0.0307714 2.20181
-1.22061 -0.163475 2.21763
-1.61077 -0.0829637 3.91577
-1.60109 0.0972307 3.34227
-1.20816 -0.0990893 3.35607
-1.60816 0.145885 4.47348
-1.21115 -0.0541507 4.48387
-1.55212 0.088034 -2.70486
-1.56022 0.448206 -3.21746
-1.14977 0.0644224 -3.26922
-1.59724 0.111549 -1.41999
-1.5743 0.497447 -2.08869
-1.64994 0.124148 0.0256333
-1.64115 0.535547 -0.670488
-1.63038 0.18706 1.47194
-1.6496 0.570713 0.74839
-1.59606 0.268909 2.76382
-1.58787 0.63439 2.16795
-1.59848 0.32608 3.89998
-1.58696 0.699318 3.30938
-1.19347 0.309681 3.3382
-1.6014 0.753666 4.44748
-1.20403 0.354758 4.46849
-1.58239 0.857619 -2.60128
-1.58871 1.44074 -3.11655
-1.17222 0.826282 -3.16201
-1.61821 0.921445 -1.33918
-1.60536 1.4949 -1.99163
-1.64082 0.982112 0.0522682
-1.64057 1.57907 -0.609189
-1.60709 1.01804 1.4444
-1.639 1.63342 0.763073
-1.57876 1.0648 2.71351
-1.60194 1.66741 2.14657
-1.58988 1.1269 3.85688
-1.60067 1.71854 3.27859
-1.18301 1.0984 3.28426
-1.6101 1.77251 4.41854
-1.19989 1.15845 4.42864
-1.61168 2.07802 -2.50689
-1.20143 2.04404 -3.06234
-1.62772 2.15253 -1.26164
-1.21237 2.10368 -1.94231
-1.63875 2.23038 0.101616
-1.22944 2.19741 -0.573294
-1.63385 2.28278 1.46524
-1.23494 2.26541 0.779067
-1.62385 2.32115 2.71165
-1.22577 2.30263 2.1486
-1.62089 2.36416 3.84025
-1.21979 2.33984 3.26975
-1.22049 2.38815 4.40649
-0.749373 -0.313851 -2.74769
-0.751721 -0.133043 -3.29205
0.0225303 -0.331611 -3.31417
-0.777202 -0.309092 -1.44929
0.0217144 -0.29609 -2.18121
-0.826102 -0.303081 0.0219664
0.0140073 -0.322096 -0.717363
-0.831246 -0.218192 1.49339
-0.00379571 -0.284068 0.761296
-0.812495 -0.121657 2.79344
-0.0149771 -0.152319 2.22549
-0.808537 -0.0702763 3.92418
-0.800541 0.113361 3.352
-0.00986023 -0.0909975 3.3614
-0.807016 0.154722 4.47889
-0.0100384 -0.0495569 4.48696
-0.761774 0.442498 -3.21377
0.0175109 0.0655243 -3.26992
-0.79902 0.338359 3.90671
-0.78952 0.708765 3.31307
-0.00546404 0.317719 3.34259
-0.802519 0.759546 4.44965
-0.0080542 0.358998 4.47082
-0.784941 1.42958 -3.1078
0.0135102 0.819471 -3.15761
-0.793019 1.12995 3.85602
-0.802124 1.7197 3.27542
-0.0055363 1.09981 3.28355
-0.810278 1.77409 4.41659
-0.00859917 1.16009 4.42849
-0.802126 2.0697 -2.49776
0.00600507 2.03969 -3.058
-0.814097 2.14857 -1.25396
0.00268297 2.09971 -1.93752
-0.825624 2.23244 0.104156
-0.00554664 2.19743 -0.570408
-0.826856 2.28525 1.46242
-0.0165061 2.26746 0.778721
-0.821712 2.32132 2.7067
-0.0218901 2.30304 2.14613
-0.819382 2.36383 3.83598
-0.0202837 2.33958 3.26728
-0.0194676 2.38808 4.40469
0.793618 -0.313851 -2.74769
0.791762 -0.133044 -3.29205
1.19046 -0.334773 -3.31188
0.812924 -0.309094 -1.44929
1.18588 -0.300222 -2.17787
0.836313 -0.303083 0.0219664
1.23888 -0.318464 -0.717811
0.812473 -0.218194 1.49339
1.2485 -0.282978 0.756802
0.787658 -0.121659 2.79344
1.19978 -0.163478 2.21763
0.788639 -0.0702781 3.92418
0.785217 0.11336 3.352
1.19175 -0.099092 3.35607
0.788923 0.15472 4.47889
1.19261 -0.054154 4.48387
0.792796 0.442498 -3.21377
1.17872 0.0644217 -3.26922
0.785502 0.338358 3.90671
0.77852 0.708764 3.31307
1.18567 0.309679 3.3382
0.785865 0.759544 4.44965
1.18936 0.354755 4.46849
0.804456 1.42958 -3.10781
1.19248 0.826281 -3.16201
0.778884 1.12995 3.85602
0.776304 1.7197 3.27542
1.1748 1.0984 3.28426
0.782211 1.77408 4.41659
1.18392 1.15845 4.42864
0.810814 2.0697 -2.49776
1.21106 2.04403 -3.06234
0.811233 2.14857 -1.25396
1.21476 2.10368 -1.94231
0.803572 2.23244 0.104156
1.21705 2.19741 -0.573295
0.78846 2.28525 1.46242
1.20399 2.2654 0.779067
0.779538 2.32131 2.7067
1.18544 2.30262 2.1486
0.779631 2.36383 3.83598
1.18126 2.33983 3.26975
1.18252 2.38814 4.40649
1.58272 -0.321144 -2.74205
1.57742 -0.137308 -3.28905
1.61184 -0.309592 -1.44639
1.56758 -0.0958027 -2.15787
1.65108 -0.298359 0.0170241
1.63886 -0.102243 -0.70852
1.63582 -0.228261 1.48104
1.66256 -0.0719744 0.751178
1.60388 -0.140911 2.78026
1.60792 0.0307677 2.20181
1.59572 -0.082968 3.91577
1.5922 0.0972271 3.34227
1.59305 0.145881 4.47348
1.56227 0.0880333 -2.70486
1.57841 0.448205 -3.21746
1.5946 0.111547 -1.42
1.56898 0.497447 -2.08869
1.65035 0.124142 0.0256332
1.63629 0.535544 -0.670489
1.63467 0.187054 1.47194
1.65202 0.570701 0.74839
1.59624 0.268906 2.76382
1.59267 0.634385 2.16795
1.58952 0.326076 3.89998
1.58194 0.699314 3.30938
1.58741 0.753661 4.44748
1.58511 0.857619 -2.60128
1.59909 1.44073 -3.11655
1.61067 0.921444 -1.33918
1.60103 1.4949 -1.99163
1.63796 0.982103 0.0522681
[...]
POINT_DATA 29498
VECTORS point_vectors float
-4.86991 -7.67334 10.4644
0.300496 0.305131 1.04926
-3.8717 2.25136 8.34226
-0.118558 -0.355345 0.241012
4.92847 -7.80129 10.487
-0.30028 0.307222 1.05469
3.90249 2.27302 8.3773
0.118709 -0.354644 0.239275
0.225326 -0.111253 2.77326
-0.00998613 -0.111473 1.67457
-0.00515659 -0.00245255 0.0729531
0 0 0
-0.223928 -0.110803 2.76685
0.0104628 -0.111485 1.67322
0.00513586 -0.00238696 0.0730396
0 0 0
-0.638613 -0.365796 19.9031
-1.24182 -0.844365 20.7252
-0.362837 -0.465594 21.6747
0.153462 -0.215648 21.9029
0.7469 0.055729 21.8882
1.09737 0.187572 21.579
0.983486 0.048231 21.1192
-0.86605 -0.305266 19.759
-1.85854 -0.763716 20.7098
-0.572195 -0.586171 21.7216
0.0605467 -0.362436 21.9162
0.879769 -0.232379 21.9995
1.3136 -0.0590459 21.4358
1.36066 -0.23788 21.5209
-0.994271 0.132542 19.6694
-2.08396 0.216035 20.6389
-1.26049 -0.4026 21.6935
-0.314035 -0.466393 22.0223
0.40819 -0.657727 21.9478
0.942379 -0.815029 21.5943
0.922157 -0.48928 21.7998
-0.545991 0.400605 20.0501
-0.871307 0.595503 20.5567
-0.924151 0.42116 21.3205
-0.42143 -0.00828163 21.8033
-0.0391953 -0.289518 21.7158
0.161245 -0.425767 21.5633
0.20063 -0.50186 20.5354
-0.633888 -0.769193 19.3014
-1.81249 -3.29667 20.9806
-0.127799 -0.342276 22.1853
0.377686 0.11823 21.8844
1.06329 1.27797 20.4366
1.60933 1.44521 19.3944
1.53608 1.0757 19.4601
-0.885211 -0.640257 18.7721
2.47817 1.26037 12.3974
2.45521 1.24105 14.7442
-1.21957 0.455718 18.3472
1.25425 -1.01621 7.63913
1.60884 -1.37461 13.904
-0.453403 0.770786 19.7378
-0.874822 1.38496 20.3044
-1.30643 1.54945 21.367
-0.566367 0.338194 22.1157
-0.213954 -0.209143 21.8492
-0.156076 -0.496073 21.5631
-0.0316848 -0.497221 22.2908
0.645353 -0.742502 19.345
1.86001 -3.14233 20.9773
0.128604 -0.353586 22.1706
-0.36905 0.125997 21.8818
-1.02059 1.30835 20.3539
-1.57097 1.51239 19.2732
-1.53649 1.0975 19.2468
0.905154 -0.606261 18.836
-2.46207 1.29816 12.0861
-2.46988 1.28264 14.5687
1.22863 0.434167 18.3935
-1.17353 -0.970354 6.95342
-1.61025 -1.31539 13.583
0.459843 0.76405 19.742
0.8773 1.37744 20.3042
1.30624 1.58273 21.352
0.561935 0.361769 22.1254
0.222163 -0.197519 21.9086
0.167655 -0.48691 21.5404
0.0275505 -0.484859 22.3672
0.637306 -0.361824 19.9165
1.22275 -0.814584 20.7383
0.35995 -0.46085 21.6607
-0.151434 -0.23079 21.885
-0.765473 0.0585185 21.8922
-1.12337 0.190725 21.6117
-0.994224 0.0467554 21.1087
0.859643 -0.290927 19.7917
1.87469 -0.752215 20.6947
0.578161 -0.585812 21.7252
-0.0721795 -0.354949 21.9248
-0.873308 -0.233525 21.9932
-1.28518 -0.0912453 21.452
-1.37527 -0.225272 21.5319
0.987457 0.131301 19.6815
2.10124 0.219335 20.6427
1.27062 -0.409105 21.7099
0.310739 -0.465862 22.0229
-0.412167 -0.646804 21.9493
-0.936297 -0.81016 21.5669
-0.897096 -0.490058 21.8135
0.548938 0.397159 20.0526
0.866441 0.59627 20.5514
0.931698 0.432652 21.3148
0.422871 -0.0176234 21.7966
0.0387563 -0.284352 21.7152
-0.166602 -0.447205 21.5972
-0.183239 -0.559566 20.4925
-2.18065 -0.130133 2.81526
0.00012764 -0.176243 0.944366
0.0145274 -0.00132346 0.124865
0.0852337 -0.134166 0.387069
-0.000222651 0.00920605 0.0195769
0.0332809 0.00968747 1.23889
-1.48546e-05 0.231286 0.620946
-0.400783 -0.491604 1.1604
0 0 0
0 0 0
2.19638 -0.129311 2.83614
-0.014446 -0.001356 0.12384
-0.085775 -0.135573 0.389424
-0.0342273 0.00890776 1.24195
0.40054 -0.491379 1.15945
0 0 0
0.0173554 -0.00892867 0.926236
-0.00345283 -0.0202129 0.28323
-2.00638e-05 0.000147182 0.0157486
0 0 0
0 0 0
0.0197024 0.0786314 0.239645
6.7457e-06 0.0614493 0.0958199
-2.89873e-06 -4.7994e-05 0.00658698
-0.0171036 -0.00881751 0.923841
0.00346421 -0.0202538 0.283427
0 0 0
-0.0196369 0.0784965 0.23928
-3.71865e-05 -0.000169983 0.00154882
0.00336432 0.0166618 0.126881
0.00154047 0.00203568 0.0532181
0 0 0
0 0 0
0 0 0
0 0 0
-6.99814e-05 -0.00591735 0.00211237
-2.57302e-06 0.000220262 0.000550896
-1.08257e-06 0.000243751 0.00630524
-4.33952e-05 -0.00264934 0.0334726
5.1612e-05 -0.00023485 0.00214568
-0.00336277 0.0166558 0.127046
-0.00153858 0.00200829 0.0531693
-3.61082 -1.99969 20.769
-3.313 -5.75214 21.2461
-2.43891 -2.11375 17.4884
1.49109 -0.117272 20.2411
1.13456 1.39397 13.2065
1.71874 0.710698 8.43337
-3.88914 0.893662 20.7006
-3.52006 1.78331 16.7666
-2.04575 2.42229 20.2216
0.532624 -1.0479 19.7994
-0.550267 -1.75907 3.25347
-0.12433 -0.372677 16.9943
3.43903 -5.48915 21.0945
2.45074 -2.05364 17.5755
3.62111 -2.01016 20.7595
-1.06185 1.40482 12.9105
-1.69374 0.702027 8.22984
-1.48273 -0.122529 20.2892
3.52426 1.74284 16.8334
2.04522 2.41302 20.2225
3.91257 0.905975 20.7015
0.585617 -1.75068 2.91078
0.104982 -0.345436 16.257
-0.523747 -1.04563 19.8427
-0.351911 -0.997098 22.0676
0.456927 -0.122748 18.9023
0.230804 -0.548154 21.6743
0.734615 0.042965 17.5162
-1.9862 -1.00385 22.0524
-4.09074 2.1714 21.3035
-0.346049 -0.826423 21.158
-0.755666 0.0519113 19.7405
-0.450341 -0.147367 19.0225
0.354176 -1.00035 22.0616
-0.736284 0.052064 17.4526
-0.228183 -0.551439 21.6998
4.10997 2.23195 21.2702
1.99278 -1.01942 22.0436
0.692338 0.094304 19.2271
0.347709 -0.826812 21.1672
-1.02155 -0.621183 20.1146
-0.757902 -0.34935 19.8323
-0.690697 -0.544874 19.6436
-0.827895 -0.674945 21.4364
-1.57923 -0.867622 20.7356
-1.72702 -1.69457 20.8106
-0.0760833 -0.326798 21.8009
-0.46319 -0.568511 21.6946
-0.229581 -0.541209 21.8668
0.444657 -0.0705918 21.9662
0.104892 -0.314695 21.9208
0.268898 -0.201809 22.0012
0.948858 0.151051 21.6911
0.802696 -0.0639782 21.8907
1.10649 0.395718 21.9404
1.09645 0.0789548 21.1872
1.16993 0.0980248 21.5229
1.56823 0.656718 21.2488
1.17207 -0.0948247 21.32
1.42206 0.533177 21.1281
-1.44713 -0.545309 19.9602
-0.986418 -0.102112 19.651
-0.987706 -0.495226 19.3328
-1.18816 -0.738845 21.5416
-2.18331 -0.322908 20.7117
-0.21472 -0.479552 21.8411
-0.905258 -0.613136 21.73
0.422431 -0.285612 22.0627
-0.112283 -0.486846 22.0316
1.1133 -0.200222 21.8606
0.719194 -0.521728 22.0196
1.34209 -0.119871 21.4322
1.19468 -0.468634 21.5944
1.91572 0.03714 20.1944
1.24821 -0.463894 21.5918
1.81364 0.333835 19.5266
-1.71197 0.249508 19.8904
-0.803798 0.386041 19.8551
-1.21766 0.288502 19.1231
-1.69962 -0.10521 21.3267
-1.4065 0.631609 20.5235
-0.782754 -0.482698 21.9607
-1.33979 0.152722 21.5163
0.0766908 -0.525688 22.0587
-0.513692 -0.227597 21.9425
0.656005 -0.712396 21.8119
0.0255427 -0.50041 21.8103
0.932267 -0.715577 21.5535
0.325414 -0.73082 21.3418
1.058 -1.15578 20.4292
0.533181 -0.611736 21.6212
1.6413 -1.32461 19.6101
-0.727107 0.531663 20.2478
-0.544435 0.578108 19.8975
-0.968796 0.557176 20.9234
-0.969537 0.950719 20.442
-0.698699 0.220655 21.6651
-1.18597 0.833749 21.3742
-0.194441 -0.166761 21.7777
-0.541111 0.115758 21.9554
0.0185035 -0.318379 21.6252
-0.142084 -0.28442 21.8131
0.191755 -0.533196 21.0911
0.0731745 -0.467287 21.5322
0.103184 -0.481284 21.6525
-1.25775 -1.83858 19.277
-0.764219 -0.747213 19.0249
0.0269585 -1.01247 19.0077
-0.727876 -1.19677 22.4841
0.05653 -4.97287 21.3853
0.160756 -0.0430999 21.9787
0.00713157 -0.425725 21.6207
0.662841 0.518638 21.4546
-0.00855962 0.173107 19.4471
1.36171 1.50968 20.0391
0.0126907 1.08298 16.22
1.45141 1.6393 20.1401
2.15564 1.5571 15.4027
0.0149858 2.05375 16.6984
2.12837 1.22837 17.0195
-0.00239447 2.79929 16.7358
-1.208 -0.177015 18.333
0.026706 -1.00796 18.1123
2.25176 0.990696 13.7743
2.05941 -1.04082 7.95846
0.000230937 1.76752 4.36978
2.59435 0.00574289 14.3417
0.0544001 2.40432 11.5824
-0.821316 0.908642 19.1272
0.0215785 0.734335 17.4097
1.35221 -1.00898 9.58178
0.242705 -1.1895 20.2171
0.0046316 1.90348 -4.80705
0.26634 -1.05528 16.0722
0.0149358 3.15684 -1.19337
-0.683707 1.14024 19.9372
0.00777542 0.989875 19.5357
-1.11149 1.45784 20.6984
0.00278855 1.89175 20.1332
-1.01062 0.977221 22.069
-0.013162 2.82693 21.2066
-0.319854 -0.0339435 21.9824
-0.0175804 0.729966 22.3416
-0.121527 -0.371057 21.7889
-0.0173374 0.0366705 21.8555
0.102879 -0.800297 20.4727
-0.00723749 -0.474757 22.2277
-0.0149025 -0.48425 21.7598
1.27917 -1.74031 19.3394
0.782783 -0.706141 19.1078
0.688256 -0.519822 19.6758
0.738809 -1.18226 22.4555
1.6692 -1.58969 20.7987
-0.161303 -0.0450334 21.9931
0.234715 -0.550796 21.8521
-0.64879 0.538124 21.4314
-0.261203 -0.205825 22.0062
-1.32927 1.54004 19.7948
-1.12451 0.414656 21.928
-1.41274 1.729 20.0695
-2.1291 1.60479 15.2688
-1.62236 0.70645 21.1933
-2.11922 1.25292 16.8365
-1.4514 0.576878 21.1215
1.20779 -0.176222 18.4099
0.982653 -0.474721 19.3567
-2.28689 1.06191 13.4666
-2.0532 -1.00358 7.61998
-1.91598 0.0797275 20.0409
-2.61787 0.0306158 14.1659
-1.83831 0.386786 19.3645
0.827229 0.897752 19.1446
1.21649 0.282627 19.1679
-1.31774 -0.998057 9.02442
-0.203669 -1.20319 19.3522
-1.05968 -1.17354 20.2899
-0.257826 -1.07644 15.6504
-1.66258 -1.37704 19.4843
0.687624 1.13256 19.9392
0.548541 0.571695 19.9005
1.11113 1.47497 20.6894
0.970136 0.947727 20.4455
1.00337 1.01796 22.0777
1.20452 0.862006 21.36
0.318583 -0.0141873 21.9927
0.545749 0.127061 21.9539
0.133406 -0.359341 21.8028
0.150367 -0.279566 21.8089
-0.0853835 -0.766357 20.5713
-0.0684347 -0.483977 21.5171
-0.0948516 -0.483083 21.7311
0.991176 -0.595281 20.1626
0.761564 -0.335967 19.8437
0.813483 -0.675771 21.4393
1.55707 -0.829212 20.755
0.0763375 -0.32373 21.8083
0.460072 -0.570799 21.677
-0.456949 -0.077405 21.9479
-0.104164 -0.321876 21.9135
-0.96999 0.159375 21.7013
-0.801828 -0.0617488 21.8917
-1.12672 0.0967289 21.1861
-1.1724 0.0830752 21.5285
-1.18475 -0.0892585 21.3203
1.45615 -0.549676 19.9616
0.973981 -0.0911747 19.6752
1.18118 -0.729147 21.5593
2.21345 -0.323786 20.7373
0.222221 -0.48695 21.8327
0.911429 -0.615407 21.7407
-0.422154 -0.286594 22.0577
0.114085 -0.487128 22.0286
-1.11009 -0.190957 21.847
-0.712695 -0.511239 22.0298
-1.35316 -0.126725 21.4373
-1.20753 -0.47072 21.5923
-1.23751 -0.451933 21.6276
1.69662 0.248794 19.8989
0.795124 0.391837 19.8676
1.70458 -0.109027 21.3352
1.40995 0.634989 20.5219
0.785137 -0.486237 21.9659
1.34863 0.154655 21.5226
-0.0798444 -0.526088 22.0441
0.525971 -0.227673 21.9504
-0.665795 -0.716717 21.8301
-0.027919 -0.503431 21.8115
-0.90442 -0.709251 21.5438
-0.315574 -0.713122 21.3382
-0.509528 -0.657645 21.5584
0.730667 0.531071 20.253
0.977643 0.565057 20.9253
0.703183 0.22199 21.6567
0.189701 -0.174335 21.7677
-0.0258472 -0.334501 21.6343
-0.1714 -0.608966 21.0531
-1.26597 -0.620105 20.0406
-1.75807 -2.13377 18.5458
-1.24891 -1.13174 19.7988
-2.11737 -1.09388 19.1775
-0.859885 -0.539013 19.4629
-2.52738 -1.99486 20.8199
-1.04046 -0.72346 21.5135
-0.364241 -0.793002 20.6758
-0.824671 -0.992548 21.8523
-1.24933 -1.35891 22.3023
-0.19403 -0.706747 21.9531
-0.14184 -0.434783 21.8194
0.654877 0.0136931 18.0959
0.0499925 -0.339259 21.9371
0.0143833 -0.745906 21.8383
0.329264 -0.352115 22.0068
0.423926 -0.187242 22.0157
0.709526 0.401816 15.5149
0.611478 0.0386481 22.0887
0.696693 -0.310839 21.3494
1.40354 0.214029 21.3678
1.03876 -0.000136528 21.7246
1.70594 1.47894 15.1805
1.37889 0.550926 21.5485
1.77134 -0.0518281 20.2457
1.75228 0.444122 21.3804
1.24374 -0.0431572 21.1827
1.77627 1.33616 16.5033
1.53265 0.55776 21.0803
2.38738 0.0250008 20.0064
1.60482 0.395371 21.3321
-1.73475 -0.182638 19.8498
-3.6807 -0.424079 16.1762
-2.59758 0.689785 19.0543
-1.21755 -0.135153 19.0589
-4.64656 -0.582605 20.7649
-1.53429 -0.520003 21.533
-2.50813 -0.285577 21.7581
-1.06817 -1.15308 21.7945
-0.462913 -0.581884 21.9255
-0.995612 -1.06936 21.7986
-0.0468697 -0.647814 20.6186
0.287732 -0.462331 22.1301
0.138182 -0.813553 20.5665
1.16093 -0.715983 19.1865
0.984962 -0.53241 21.9233
0.765583 -1.46508 5.06032
0.716892 -1.19067 20.6714
1.75147 -0.631903 20.018
1.21543 -0.459494 21.5411
2.26347 0.51304 10.4932
1.55092 -1.17425 20.7903
1.96452 -0.88674 19.0611
-1.15935 0.578054 20.0828
-1.54947 1.89324 19.1647
-0.769117 0.817611 20.0978
-0.876951 0.633698 19.5308
-1.89555 1.26304 20.4105
-1.44252 0.426963 21.0373
-2.41477 1.89724 20.5154
-1.13608 0.9408 20.8603
-2.20519 0.532105 21.6062
-0.97862 -0.0572064 21.8645
-2.70621 0.444085 22.8661
-0.922058 0.501768 21.8455
-0.74266 -0.228534 22.2377
-0.170347 -0.365872 21.9119
-0.0648309 -0.144002 18.1129
-0.29606 -0.122543 21.8905
-0.159799 -0.649447 21.98
0.174015 -0.568114 21.7235
-0.161582 -0.56377 18.1997
-0.0544972 -0.362153 21.7532
0.17257 -0.884658 21.5659
0.518444 -0.856585 21.4499
0.212368 -1.17324 16.8022
0.129673 -0.554996 22.075
0.395761 -0.667226 21.7026
1.77178 -2.03112 18.6437
0.0510259 -2.74597 18.6137
0.0399435 -3.48992 15.3901
0.0201462 -1.06039 18.5342
0.0627844 -8.39229 22.3246
0.368286 -0.818396 20.9547
0.0245115 -1.71605 23.1605
-0.0158474 -0.0170143 9.48886
-0.648426 0.00685697 18.1554
0.000635933 -0.0546265 20.1816
0.00244534 0.211466 9.98936
-0.691837 0.415557 15.2579
0.00968555 0.470396 17.6899
-0.00130169 0.788444 7.92536
-1.66226 1.50326 14.8381
0.014388 1.42706 15.8604
-0.00427712 0.0396825 2.30409
0.000900821 2.08227 10.5892
-1.75291 1.40798 16.4435
0.0107915 2.89353 17.046
0.032479 2.42796 6.91337
0.0549371 2.71928 14.2132
3.66713 -0.410843 16.2928
0.0345735 3.68317 13.4381
0.0230065 -0.212446 17.2912
-0.724332 -1.48377 4.89396
-0.00252437 0.879629 -2.87424
0.0323107 2.09743 -0.622933
-2.2701 0.61019 10.1869
-0.0291468 2.96121 -4.24717
0.0611431 3.43873 2.56503
1.54964 1.87091 19.1899
0.00305527 1.52784 19.7381
0.0109728 1.29339 18.6632
0.00446383 3.80928 19.9349
2.40593 1.89852 20.5158
-0.00373384 2.21029 20.4197
-0.0186421 6.71161 19.4082
2.72779 0.474498 22.8354
-0.0211866 1.88221 22.4296
-0.00982043 0.385341 14.8953
-0.00825403 -0.103373 17.3685
-0.0157735 0.206882 22.0666
-0.0372643 0.519727 4.15792
0.174473 -0.538721 17.4766
-0.00935113 -0.0817891 21.8334
-0.0173713 -0.611723 8.41612
-0.184165 -1.15225 16.1195
-0.00234532 -0.502109 21.8487
0.0110659 -1.0754 14.1414
1.25167 -0.608956 20.0681
1.23725 -1.06863 19.8351
2.10716 -1.07341 19.2025
0.854109 -0.514415 19.4878
2.47798 -1.92619 20.8081
1.03362 -0.711993 21.5092
0.834539 -0.979855 21.8136
1.25364 -1.36427 22.3016
0.214271 -0.711769 21.9405
0.144505 -0.428472 21.8103
-0.0551341 -0.344654 21.937
-0.0113854 -0.748055 21.8368
-0.328562 -0.356615 21.999
-0.426414 -0.182304 22.0078
-0.618662 0.0462217 22.0947
-0.694549 -0.316167 21.3773
-1.41609 0.226286 21.3109
-1.02858 0.0121068 21.7145
-1.40152 0.585994 21.4766
-1.76879 -0.0558324 20.1998
-1.78247 0.49063 21.3367
-1.26024 -0.0600806 21.1993
-1.51652 0.595901 21.1046
-2.37542 0.0237315 19.9307
-1.63457 0.442549 21.3365
1.70631 -0.172609 19.8674
2.56291 0.6769 19.0897
1.20836 -0.135322 19.1092
4.66836 -0.586053 20.763
1.54785 -0.520647 21.5326
2.5155 -0.292651 21.7632
1.0606 -1.16018 21.7417
0.46668 -0.577766 21.9301
0.997185 -1.07668 21.7846
0.0475656 -0.652048 20.653
-0.295887 -0.458258 22.1238
-0.135705 -0.812607 20.5831
-1.15629 -0.721344 19.2377
-0.976876 -0.524388 21.924
-0.71153 -1.18936 20.5984
-1.76427 -0.6628 19.792
-1.19591 -0.454965 21.552
-1.57815 -1.22452 20.5924
-1.99809 -0.850348 18.8976
1.15625 0.577804 20.0841
0.769542 0.812702 20.0994
0.876493 0.621034 19.546
1.89618 1.26235 20.4128
1.45295 0.430864 21.0363
1.13402 0.940234 20.8615
2.23005 0.542086 21.6096
0.988978 -0.055628 21.8765
0.932203 0.518992 21.8458
0.759105 -0.226953 22.2479
0.177101 -0.374817 21.9214
0.296791 -0.1244 21.8902
0.176199 -0.65503 21.9788
-0.165905 -0.588205 21.7434
0.0721122 -0.354982 21.7502
-0.17084 -0.90832 21.568
-0.521063 -0.91983 21.4061
-0.127418 -0.576643 22.0728
-0.388049 -0.695812 21.3087
-1.67398 -1.1812 19.5029
-0.969294 -1.13749 22.0385
0.124335 -0.517695 21.9742
0.725196 -0.118067 22.0014
1.70608 0.331609 21.2083
2.0026 0.392522 20.8968
-2.7321 -0.279436 18.8295
-2.0786 -1.04773 22.335
-0.415678 -0.914742 21.0819
0.4849 -0.551291 20.1346
1.4776 -0.858465 19.9524
1.91477 -0.513597 20.0291
-1.47276 1.08177 19.7189
-2.03711 0.882811 20.9417
-1.51942 0.0527255 22.2635
-0.327269 -0.448955 22.1069
-0.00398842 -0.744104 21.7389
0.699497 -0.909168 20.6748
0.0496092 -3.40699 17.3619
0.00327186 -0.523633 11.2616
-0.00719005 0.0680979 9.421
0.0065472 0.27844 9.13588
-0.000430464 0.947271 8.61322
0.0349029 2.71193 11.812
0.0463559 -0.599704 12.3455
0.00210537 0.0838585 0.0972637
0.0667729 1.56101 2.34716
0.0166075 3.01687 18.4787
-0.00289481 3.46083 19.6737
-0.0130779 2.14923 18.5841
-0.00472904 -0.126997 11.305
-0.042267 0.396261 5.30901
-0.0376869 -0.535441 8.89718
1.65075 -1.14147 19.5438
0.986157 -1.13044 22.0166
-0.110737 -0.522608 21.9704
-0.729086 -0.117413 21.967
-1.72264 0.353688 21.1488
-2.0031 0.427308 20.9018
2.68585 -0.281158 18.8803
2.07911 -1.05627 22.3396
0.413665 -0.919054 21.067
-0.483959 -0.557809 20.1736
-1.4754 -0.862534 19.8941
-1.92476 -0.469116 19.7557
1.46972 1.06785 19.7298
2.0394 0.889851 20.9423
1.54095 0.0564228 22.2751
0.337449 -0.453011 22.1151
0.0116125 -0.749661 21.6468
-0.657885 -0.94753 20.8754
-2.83831 -0.584328 3.01636
0.0775503 -0.71908 2.6616
0.0324006 -0.00963353 0.83829
0.0978898 -0.0367097 0.325765
0.00139216 0.0175101 0.0483227
0.155048 -0.0101106 0.761852
-0.255101 0.0212627 0.29345
-0.13204 0.819867 1.50931
-0.270515 -0.263241 0.898421
0.0420767 -0.052749 0.09186
0 0 0
1.44524e-20 -3.40947e-18 4.50948e-17
-0.0718128 -0.716185 2.65286
2.82937 -0.589552 3.00562
-0.0315021 -0.0093369 0.83293
-0.00146436 0.016981 0.047006
-0.0959336 -0.0359243 0.318564
-0.157462 -0.00775418 0.780667
0.130153 0.811448 1.49644
0.248413 0.0210975 0.286495
0.27019 -0.264236 0.898648
0 0 0
-0.0417566 -0.0527051 0.0911354
0 0 0
0.0895538 -0.018363 1.59194
0.137696 -0.0545196 2.18561
0 0 0
0 0 0
0.0268449 -0.0182392 1.53704
0.0143962 0.00649877 0.65889
-0.00610132 0.00604933 0.0635323
0 0 0
-0.377434 -0.48792 0.763887
-0.000207105 -0.000278133 0.0210746
0.0134666 0.0483046 0.196869
-0.000766609 0.000427082 0.000927535
0 0 0
0 0 0
0.00271763 0.00837137 0.0260295
0.129064 0.11679 0.721434
-0.0899659 -0.0172841 1.58197
0 0 0
-0.136812 -0.0543539 2.17882
0 0 0
-0.0272397 -0.0183002 1.53459
0 0 0
-0.0147339 0.00650932 0.651449
0.0061246 0.00604909 0.0637956
0.375583 -0.487044 0.765143
0.00113339 0.000637142 0.00136788
0.000219039 -0.000305069 0.0222284
-0.0135343 0.048419 0.196405
0 0 0
-0.129653 0.117383 0.721087
0 0 0
-0.00268545 0.00827782 0.0257735
0 0 0
3.60376e-17 -5.01789e-18 7.52604e-18
-2.28906e-06 -1.3699e-06 0.000106747
-4.11511e-20 4.22358e-18 -5.49764e-18
-0.000962007 -0.00428751 0.0831519
0 0 0
0 0 0
-0.00175812 -0.00766819 0.00132357
0 0 0
-1.4615e-05 -0.00153315 -0.000154765
0.000415843 0.000407658 0.0199952
0.000623211 0.00056869 0.0355237
0 0 0
-2.56947e-06 0.00145972 0.010052
-0.0259691 -0.0760865 0.250856
-0.0434642 -0.000938366 0.0329099
-6.47056e-06 -0.000912557 9.43003e-05
0 0 0
0 0 0
-0.000556835 -0.00242646 0.0232782
0 0 0
0 0 0
0 0 0
0.000953062 -0.00421619 0.0817624
0.00171319 -0.0078742 0.0013626
0 0 0
-0.000604242 0.000584459 0.0360898
-0.000414509 0.000377413 0.0198991
0.0434871 -0.000931222 0.0329942
0.0258153 -0.0756945 0.250479
0.000516334 -0.0024512 0.0235142
0 0 0
0 0 0
0 0 0
0.000367937 -0.0383374 0.152997
0.00321759 0.0232755 0.256512
0 0 0
0 0 0
0.000829532 0.00347761 0.0241388
0 0 0
0 0 0
0 0 0
-0.000186778 0.012803 0.0669601
-0.0515515 0.0351908 1.14912
7.1362e-05 -0.018304 -0.0249586
0.000129471 0.576417 1.1239
-4.61934e-06 0.00025937 0.0164344
-1.65324e-05 -0.00153735 0.0329284
0 0 0
0 0 0
-0.000265924 -0.0400762 0.160746
-0.00321527 0.0232812 0.256667
-0.000836296 0.00350684 0.024379
0 0 0
0.0511941 0.0352623 1.15018
0.000185599 0.0127109 0.0665944
-0.0232103 -0.0319813 0.314409
-0.176764 -0.102924 0.809434
0.00094412 -0.00666627 0.0674089
0 0 0
0 0 0
7.30864e-05 0.00502876 0.0325148
0 0 0
0.000116298 0.00139866 0.00645541
0.000129007 0.000570855 0.0147221
0 0 0
0.00214764 -0.00153201 0.0154239
0.000181968 -0.000664202 0.00600061
0 0 0
0 0 0
0 0 0
0 0 0
0 0 0
0 0 0
0 0 0
0 0 0
0.00149642 0.000542604 0.0300347
-0.0014814 0.000542821 0.0300576
0 0 0
0 0 0
-0.188747 -0.309291 0.202398
0.18906 -0.310541 0.203035
-0.56451 0.642387 0.119802
0.550494 0.625693 0.116383
0 0 0
0 0 0
-0.013003 -0.0458937 0.00281222
0.0128302 -0.0462432 0.00270592
-0.0306798 0.0101644 0.0940176
0.0306004 0.0101405 0.093803
0 0 0
0 0 0