# vtk DataFile Version 2.0
tet_velo
ASCII
DATASET UNSTRUCTURED_GRID
POINTS 29498 float
-0.645 0.125 -2.08079
-0.705 0.335 2.15042
-0.765 0.665 -2.10771
-0.705 0.922806 2.125
0.645 0.125 -2.08075
0.705 0.335 2.15042
0.765 0.665 -2.10771
0.705 0.922807 2.125
-0.760236 0.099764 -0.670387
-0.787171 0.162829 0.740017
-0.816508 0.822443 -0.696807
-0.803027 0.914898 0.714097
0.760281 0.0997188 -0.67036
0.787174 0.162826 0.74003
0.816508 0.822443 -0.696807
0.803016 0.914888 0.714097
-1.40989 -0.283623 -3.19614
-1.42232 -0.232425 -2.06761
-1.50645 -0.233423 -0.657225
-1.53959 -0.17976 0.753064
-1.49386 -0.0450816 2.16345
-1.47896 0.0401129 3.29192
-1.4844 0.104117 4.42048
-1.41284 0.0384526 -3.20942
-1.42588 0.109686 -2.08085
-1.52587 0.11886 -0.670357
-1.54667 0.167535 0.740087
-1.46956 0.289498 2.15057
-1.46233 0.372255 3.27905
-1.47648 0.437057 4.40759
-1.46484 0.641779 -3.23613
-1.51012 0.712447 -2.10757
-1.57592 0.824604 -0.696739
-1.56502 0.894218 0.714127
-1.47482 0.930786 2.12495
-1.46672 1.01209 3.25341
-1.48134 1.09031 4.38187
-1.51769 1.62654 -3.27582
-1.5441 1.71076 -2.14719
-1.57207 1.83785 -0.736192
-1.57602 1.9341 0.67491
-1.55383 1.98894 2.0859
-1.53561 2.03864 3.21452
-1.52787 2.10168 4.34303
-0.668124 -0.275967 -3.19609
-0.664828 -0.222331 -2.06756
-0.739351 -0.243427 -0.657224
-0.779008 -0.182584 0.753005
-0.747994 -0.0190967 2.16334
-0.734767 0.0585697 3.29185
-0.738252 0.114234 4.42044
-0.664868 0.0409159 -3.20941
-0.718466 0.390376 3.27899
-0.731234 0.446171 4.40756
-0.706576 0.624099 -3.23619
-0.721065 1.01386 3.25342
-0.735013 1.09303 4.38187
-0.751384 1.61497 -3.27588
-0.770964 1.70005 -2.14725
-0.793915 1.83742 -0.736229
-0.805104 1.93934 0.674918
-0.795762 1.98972 2.08594
-0.781591 2.03741 3.21455
-0.774425 2.10086 4.34306
0.746224 -0.275974 -3.19607
0.717368 -0.222341 -2.06753
0.769177 -0.243458 -0.6572
0.768715 -0.182593 0.753018
0.716557 -0.0190993 2.16334
0.729864 0.0585665 3.29186
0.741893 0.11423 4.42045
0.741913 0.0409119 -3.20938
0.72931 0.390374 3.27899
0.742491 0.446167 4.40757
0.773935 0.624097 -3.23618
0.728245 1.01386 3.25343
0.740254 1.09303 4.38188
0.776236 1.61497 -3.27587
0.775361 1.70004 -2.14724
0.772004 1.83741 -0.736223
0.750564 1.93934 0.674923
0.725716 1.98972 2.08594
0.724012 2.0374 3.21456
0.728449 2.10085 4.34306
1.47114 -0.283639 -3.19609
1.44997 -0.232449 -2.06756
1.51867 -0.233468 -0.657184
1.53646 -0.179783 0.753089
1.48269 -0.0450904 2.16346
1.47814 0.0401047 3.29194
1.48812 0.104107 4.42049
1.46393 0.0384408 -3.20938
1.42237 0.109672 -2.0808
1.51974 0.118813 -0.670319
1.54931 0.167514 0.74011
1.47666 0.289493 2.15058
1.4735 0.372249 3.27906
1.48634 0.437048 4.4076
1.50458 0.641771 -3.2361
1.49999 0.712442 -2.10755
1.56462 0.824586 -0.696722
1.56414 0.894198 0.714138
1.47914 0.93078 2.12495
1.4732 1.01209 3.25342
1.48472 1.0903 4.38188
1.53526 1.62653 -3.2758
1.54065 1.71075 -2.14717
1.5462 1.83784 -0.736179
1.52684 1.93408 0.674921
1.49369 1.98893 2.08591
1.48304 2.03863 3.21453
1.48324 2.10167 4.34304
-0.74918 0.395 -2.13843
0 0.112975 -2.0928
-0.700099 0.114901 -1.37559
-0.781551 0.628903 2.21426
0 0.285983 2.19944
-0.774551 0.220449 1.44522
0 0.734671 -2.17738
-0.814468 0.767436 -1.40226
0 0.975699 2.17789
-0.787986 0.952825 1.41955
0.749254 0.395 -2.13848
0.700117 0.114883 -1.37556
0.781496 0.628903 2.21421
0.77456 0.22044 1.44523
0.814473 0.767441 -1.40226
0.78809 0.952929 1.41955
-0.771105 0.133895 0.034815
-0.870777 0.461103 -0.683597
2.26276e-05 0.0713025 -0.670374
-0.878684 0.538864 0.727057
1.7649e-06 0.0923868 0.740023
-0.801519 0.860422 0.00864506
0 1.05902 -0.696807
-5.30523e-06 1.29756 0.714097
0.771111 0.133889 0.034835
0.870769 0.461081 -0.683583
0.878685 0.538857 0.727063
0.801484 0.860388 0.00864506
-0.859399 0.428052 -1.38892
-0.873669 0.499984 0.02173
-0.861909 0.583883 1.43238
1.13138e-05 0.0933778 -1.37557
1.21962e-05 0.0862503 0.034825
8.8245e-07 0.114018 1.44522
0 0.395 -2.28782
0 0.628903 2.30798
0 0.88061 -1.40226
-2.65262e-06 1.28641 0.00864506
-2.65262e-06 1.06483 1.41955
0.859384 0.428041 -1.38891
0.873679 0.499969 0.02174
0.861921 0.58388 1.43239
-1.03544 0.117343 -2.08082
-0.654914 -0.0486654 -2.07417
-0.654934 0.082958 -2.6451
-1.08728 0.312249 2.15049
-0.726497 0.157952 2.15688
-0.711733 0.362688 2.71471
-1.13756 0.688724 -2.10764
-0.735788 0.64455 -2.67195
-0.767982 1.18252 -2.12748
-1.08991 0.926796 2.12497
-0.713033 0.968332 2.68921
-0.750381 1.45626 2.10547
0.681184 -0.0486707 -2.07414
0.693457 0.082956 -2.64507
1.03369 0.117336 -2.08077
0.710778 0.15795 2.15688
0.717155 0.362687 2.71471
1.09083 0.312247 2.1505
0.769467 0.644549 -2.67194
0.77018 1.18252 -2.12748
1.13249 0.688721 -2.10763
0.716622 0.968331 2.68921
0.715358 1.45626 2.10547
1.09207 0.926794 2.12498
-1.14305 0.109312 -0.670372
-0.749794 -0.0718313 -0.663805
-1.16692 0.165182 0.740052
-0.783089 -0.00987711 0.746511
-1.19622 0.823524 -0.696773
-0.805212 1.32993 -0.716518
-1.18402 0.904558 0.714112
-0.804065 1.42712 0.694508
0.764729 -0.0718696 -0.66378
1.14001 0.109266 -0.670339
0.777944 -0.00988349 0.746524
1.16824 0.16517 0.74007
0.794256 1.32993 -0.716515
1.19057 0.823514 -0.696765
0.77679 1.42711 0.69451
1.18358 0.904543 0.714117
-1.41611 -0.258024 -2.63188
-1.41137 -0.122585 -3.20278
-1.03901 -0.279795 -3.19612
-1.46438 -0.232924 -1.36242
-1.4241 -0.0613693 -2.07423
-1.04358 -0.227378 -2.06759
-1.52302 -0.206591 0.0479195
-1.51616 -0.0572815 -0.663791
-1.1229 -0.238425 -0.657225
-1.51672 -0.112421 1.45825
-1.54313 -0.00611248 0.746576
-1.1593 -0.181172 0.753035
-1.48641 -0.00248435 2.72768
-1.48171 0.122208 2.15701
-1.12092 -0.0320891 2.16339
-1.48168 0.0721149 3.8562
-1.47064 0.206184 3.28549
-1.10686 0.0493413 3.29189
-1.48044 0.270587 4.41404
-1.11132 0.109175 4.42046
-1.41936 0.0740695 -2.64513
-1.43884 0.340116 -3.22278
-1.03886 0.0396843 -3.20941
-1.47587 0.114273 -1.3756
-1.468 0.411067 -2.09421
-1.53627 0.143197 0.0348652
-1.5509 0.471732 -0.683548
-1.50811 0.228517 1.44533
-1.55585 0.530877 0.727107
-1.46594 0.330877 2.71481
-1.47219 0.610142 2.13776
-1.4694 0.404656 3.84332
-1.46452 0.692174 3.26623
-1.0904 0.381316 3.27902
-1.47891 0.763684 4.39473
-1.10386 0.441614 4.40758
-1.48748 0.677113 -2.67185
-1.49127 1.13416 -3.25598
-1.08571 0.632939 -3.23616
-1.54302 0.768526 -1.40215
-1.52711 1.2116 -2.12738
-1.57047 0.859411 0.00869395
-1.574 1.33123 -0.716465
-1.51992 0.912502 1.41954
-1.57052 1.41416 0.694519
-1.47077 0.971439 2.68918
-1.51432 1.45987 2.10542
-1.47403 1.0512 3.81764
-1.50116 1.52537 3.23396
-1.09389 1.01297 3.25342
-1.50461 1.596 4.36245
-1.10818 1.09167 4.38187
-1.53089 1.66865 -2.7115
-1.13454 1.62076 -3.27585
-1.55808 1.77431 -1.44169
-1.15753 1.7054 -2.14722
-1.57405 1.88598 -0.0306405
-1.18299 1.83764 -0.73621
-1.56492 1.96152 1.3804
-1.19056 1.93672 0.674914
-1.54472 2.01379 2.65021
-1.1748 1.98933 2.08592
-1.53174 2.07016 3.77877
-1.1586 2.03802 3.21454
-1.15115 2.10127 4.34304
-0.666476 -0.249149 -2.63183
-0.666496 -0.117526 -3.20275
0.03905 -0.275971 -3.19608
-0.70209 -0.232879 -1.36239
0.0262699 -0.222336 -2.06754
-0.75918 -0.213005 0.0478905
0.0149128 -0.243442 -0.657212
-0.763501 -0.10084 1.45817
-0.00514674 -0.182588 0.753012
-0.74138 0.0197365 2.72759
-0.0157186 -0.019098 2.16334
-0.736509 0.0864018 3.85615
-0.726617 0.224473 3.28542
-0.0024512 0.0585681 3.29185
-0.734743 0.280203 4.414
0.00182084 0.114232 4.42044
-0.685722 0.332508 -3.2228
0.0385223 0.0409139 -3.20939
-0.72485 0.418274 3.84328
-0.719766 0.702117 3.26621
0.00542171 0.390375 3.27899
-0.733124 0.769602 4.39472
0.00562839 0.446169 4.40756
-0.72898 1.11954 -3.25603
0.0336793 0.624098 -3.23618
-0.728039 1.05345 3.81765
-0.751328 1.52563 3.23399
0.00358968 1.01386 3.25342
-0.754719 1.59694 4.36247
0.00262025 1.09303 4.38188
-0.761174 1.65751 -2.71156
0.0124261 1.61497 -3.27587
-0.78244 1.76873 -1.44174
0.00219818 1.70004 -2.14725
-0.79951 1.88838 -0.0306554
-0.010956 1.83741 -0.736226
-0.800433 1.96453 1.38043
-0.02727 1.93934 0.674921
-0.788676 2.01356 2.65025
-0.0350231 1.98972 2.08594
-0.778008 2.06913 3.77881
-0.0287896 2.0374 3.21456
-0.022988 2.10085 4.34306
0.731796 -0.249158 -2.6318
0.744068 -0.117531 -3.20272
1.10868 -0.279807 -3.19608
0.743272 -0.2329 -1.36236
1.08367 -0.227395 -2.06754
0.768946 -0.213025 0.0479092
1.14393 -0.238463 -0.657192
0.742636 -0.100846 1.45818
1.15259 -0.181188 0.753054
0.72321 0.0197336 2.7276
1.09962 -0.0320948 2.1634
0.735879 0.0863981 3.85615
0.729587 0.22447 3.28543
1.104 0.0493356 3.2919
0.742192 0.280199 4.41401
1.11501 0.109168 4.42047
0.757924 0.332505 -3.22278
1.10292 0.0396764 -3.20938
0.7359 0.418271 3.84328
0.728777 0.702115 3.26621
1.1014 0.381312 3.27903
0.741372 0.769598 4.39472
1.11442 0.441608 4.40758
0.775086 1.11953 -3.25602
1.13926 0.632934 -3.23614
0.734249 1.05344 3.81765
0.726128 1.52563 3.23399
1.10072 1.01297 3.25342
0.734351 1.59694 4.36247
1.11249 1.09167 4.38188
0.775799 1.6575 -2.71156
1.15575 1.62075 -3.27583
0.773682 1.76873 -1.44173
1.158 1.70539 -2.14721
0.761284 1.88837 -0.0306502
1.1591 1.83763 -0.736201
0.73814 1.96453 1.38043
1.1387 1.93671 0.674922
0.724864 2.01356 2.65025
1.1097 1.98932 2.08592
0.72623 2.06912 3.77881
1.10353 2.03802 3.21454
1.10584 2.10126 4.34305
1.46055 -0.258044 -2.63183
1.46754 -0.122599 -3.20273
1.48432 -0.232959 -1.36237
1.43617 -0.0613886 -2.07418
1.52757 -0.206625 0.0479522
1.51921 -0.0573277 -0.663751
1.50958 -0.112437 1.45827
1.54289 -0.00613415 0.746599
1.48041 -0.00249285 2.7277
1.47967 0.122201 2.15702
1.48313 0.0721058 3.85621
1.47582 0.206177 3.2855
1.48723 0.270578 4.41405
1.44315 0.0740563 -2.64509
1.48425 0.340106 -3.22274
1.47105 0.114242 -1.37556
1.46118 0.411057 -2.09417
1.53453 0.143164 0.0348956
1.54218 0.471699 -0.68352
1.51299 0.228504 1.44534
1.55673 0.530856 0.727124
1.47508 0.330871 2.71482
1.4779 0.610137 2.13776
1.47992 0.404649 3.84333
1.47335 0.692168 3.26624
1.48553 0.763675 4.39474
1.50228 0.677106 -2.67183
1.51992 1.13415 -3.25595
1.53231 0.768514 -1.40214
1.52032 1.21159 -2.12736
1.56438 0.859392 0.00870771
[...]
POINT_DATA 29498
VECTORS point_vectors float
-5.27936 -8.15219 11.0356
0.0107074 0.135613 0.20515
-12.7477 6.35571 11.5534
0.0686391 -0.160884 0.746744
5.22992 -8.12193 11.0783
-0.0138713 0.136413 0.209038
12.7562 6.35641 11.5552
-0.066064 -0.167019 0.754826
0.0688908 -0.0509123 1.64454
0.0179843 -0.0179255 0.258477
-0.0399495 -0.0239607 0.112773
0.0190984 0.0424448 0.17013
-0.0696443 -0.0518116 1.64578
-0.0176205 -0.017651 0.252858
0.0455914 -0.0271026 0.125396
-0.0189329 0.0422317 0.169649
-0.605474 -0.280456 19.7841
-1.3596 -0.80579 20.5377
-0.449805 -0.311316 21.3977
0.0991415 -0.0173766 21.5003
0.612041 0.246863 21.3583
0.918162 0.261242 21.2523
0.834899 0.094897 20.8522
-0.719866 -0.196634 19.6796
-1.89838 -0.644334 20.463
-0.623806 -0.377048 21.4451
0.0664394 -0.136347 21.5725
0.801073 0.0916445 21.4128
1.10856 0.0829885 21.2076
1.03725 -0.0261362 21.0473
-0.730895 0.104277 19.636
-1.87755 0.251559 20.3322
-1.0639 -0.178328 21.364
-0.18504 -0.213915 21.6661
0.716509 -0.322572 21.4248
0.975585 -0.434325 21.1516
0.723952 -0.320156 20.7694
-0.444433 0.334299 19.9301
-0.821293 0.613085 20.3264
-0.778254 0.453901 21.0372
-0.255623 0.0508156 21.4344
0.200095 -0.270621 21.3463
0.352193 -0.367912 21.1539
0.354042 -0.362134 20.7469
-0.542975 -0.690543 19.2291
-1.89064 -3.51462 20.7364
-0.450238 -0.399909 21.8823
0.18833 0.256309 20.012
0.544385 1.1264 15.9502
0.950493 1.47624 15.5165
1.08482 0.61005 15.1783
-0.663107 -0.513152 18.8574
1.28092 1.25947 9.5039
1.65362 0.465632 11.4551
-0.742237 0.16594 18.6945
1.55481 -0.690771 11.9807
1.09277 -0.578933 17.0812
-0.375748 0.589281 19.5889
-0.878407 1.47838 20.0909
-1.01796 1.37207 21.0535
-0.32277 0.275583 21.8762
0.175079 -0.497222 21.4252
0.271895 -0.664184 21.1038
0.157378 -0.494259 20.4795
0.610775 -0.634357 19.3139
1.96747 -3.23657 20.6927
0.454753 -0.386185 21.9535
-0.176029 0.260716 19.9355
-0.468573 1.12545 15.3617
-0.931032 1.49117 15.5333
-1.09015 0.630339 15.3222
0.721629 -0.456177 18.9717
-1.34244 1.25913 9.91829
-1.65348 0.478179 11.7629
0.819584 0.160316 18.8211
-1.57114 -0.712324 12.2129
-1.0918 -0.580262 17.1846
0.384632 0.578105 19.6024
0.879838 1.47081 20.0919
1.0128 1.40431 21.0511
0.320044 0.296981 21.908
-0.156607 -0.522439 21.4394
-0.248024 -0.689055 21.0798
-0.154559 -0.512206 20.5309
0.596957 -0.270057 19.8203
1.32811 -0.773038 20.54
0.464041 -0.310572 21.3846
-0.109803 -0.00952303 21.5128
-0.619518 0.264791 21.3651
-0.915629 0.27891 21.2439
-0.835297 0.0850883 20.8367
0.720779 -0.191206 19.7205
1.9096 -0.651268 20.4624
0.62335 -0.386198 21.454
-0.0661241 -0.137144 21.58
-0.801842 0.0884169 21.42
-1.09925 0.0804456 21.1865
-1.04343 -0.0392756 21.0262
0.719441 0.0964462 19.67
1.91728 0.259438 20.3268
1.07301 -0.181751 21.3749
0.184958 -0.214282 21.6723
-0.716665 -0.323427 21.4289
-0.978497 -0.441996 21.1411
-0.713773 -0.326575 20.7705
0.440913 0.330506 19.9384
0.822009 0.615263 20.3259
0.795832 0.469465 21.0406
0.267878 0.0533696 21.4477
-0.204967 -0.29687 21.36
-0.344439 -0.394389 21.132
-0.334075 -0.359909 20.7304
-1.64307 -0.449863 1.72068
0.000307091 -0.417095 0.990929
0 0 0
0.070968 -0.00726226 0.275156
0.00136775 -0.0194344 -0.0168735
-0.0103241 0.0667621 0.851827
0.000620527 0.374315 0.679946
-0.213768 -0.0765711 0.72002
0.0100047 0.132895 -0.230354
0.0985143 0.0621767 0.455676
1.65246 -0.452846 1.7301
0 0 0
-0.0723897 -0.0138557 0.278391
0.0119606 0.0673864 0.851841
0.213893 -0.076793 0.719668
-0.0963923 0.0661358 0.452792
0.0232794 -0.00448779 0.578326
0.000641774 -0.00769754 0.0561488
0.000179319 0.00131354 0.077655
0 0 0
-6.16292e-05 0.000408816 0.0832873
-1.07145e-17 -1.56558e-17 -1.06788e-16
3.02469e-05 0.0116299 0.0251503
2.73331e-06 -0.00131893 0.0377916
-0.0229535 -0.00429699 0.577226
-0.000643631 -0.0076942 0.0560394
0 0 0
0 0 0
0 0 0
-0.000231568 0.00212815 0.0230855
0.00170795 0.00713896 0.0573797
0.000106174 -0.000526772 0.0234342
-2.64049e-05 0.00073878 0.0485993
0 0 0
3.10194e-05 -0.0521891 0.0573517
0.0203169 0.218465 -0.0930514
-5.18866e-06 2.86154e-05 0.000250457
2.33004e-07 0.000874193 0.0125288
3.26538e-06 0.00064303 -0.00133531
0 0 0
0.000227724 0.00208924 0.0226882
-0.00155431 0.00673535 0.0549963
-3.78483 -1.93348 20.3999
-3.14039 -5.6837 20.9832
-1.96473 -1.77062 17.5978
1.18897 0.42836 17.9476
0.303897 1.15213 7.99173
0.0825796 1.06807 5.50168
-3.80377 0.863123 20.1066
-2.26602 0.854177 17.1956
-2.06006 2.6823 19.7969
1.15451 -0.304554 18.8096
0.695622 -0.233096 7.15818
0.473214 -0.87621 20.5543
3.19417 -5.35045 20.9325
1.99768 -1.67556 17.7353
3.80216 -1.9455 20.3949
-0.244998 1.14813 7.4934
-0.148694 1.10671 5.77296
-1.19903 0.419545 18.0036
2.27358 0.805944 17.3684
2.06216 2.67274 19.7977
3.848 0.881258 20.1037
-0.712461 -0.268095 7.3092
-0.486563 -0.898804 20.2177
-1.15292 -0.323532 18.8458
-0.419072 -0.588528 21.5015
-0.0929735 -0.1171 16.9025
0.241078 -0.189662 20.4865
0.466127 0.17442 13.8626
-1.70732 -0.630775 21.4035
-2.56862 1.79598 21.0657
-0.328709 -0.484273 20.8155
-0.609269 0.213587 21.9382
0.11517 -0.120339 17.2409
0.416241 -0.583465 21.4447
-0.457447 0.177972 13.7057
-0.23984 -0.187897 20.5007
2.58349 1.851 21.049
1.72333 -0.657277 21.3437
0.599463 0.232836 21.8612
0.327906 -0.485893 20.8124
-1.04941 -0.566661 19.945
-0.667953 -0.24635 19.7404
-0.632722 -0.46866 19.5285
-0.932972 -0.576496 21.2263
-1.63729 -0.772382 20.5141
-1.86252 -1.71669 20.5878
-0.14904 -0.14168 21.4866
-0.54413 -0.356567 21.421
-0.397398 -0.404218 21.6413
0.358556 0.118096 21.494
0.0757161 -0.084725 21.5091
0.160816 0.0290185 21.6203
0.774835 0.317021 21.2253
0.718131 0.184038 21.4189
0.849528 0.589228 20.8487
0.917443 0.239574 20.6013
1.00797 0.180478 21.0707
1.2115 0.741148 20.7913
0.939854 0.0672183 21.0024
0.926626 0.616104 20.9416
-1.35265 -0.433771 19.7555
-0.757193 -0.0587646 19.6079
-0.808735 -0.375716 19.327
-1.24942 -0.513223 21.3114
-2.07536 -0.202144 20.3736
-0.252316 -0.265357 21.5149
-0.850232 -0.339195 21.4178
0.43357 -0.00387564 21.6088
-0.0475981 -0.222528 21.663
0.979556 0.128843 21.258
0.841324 -0.136669 21.4174
1.12965 0.022834 20.7865
1.11561 -0.223688 21.0806
1.63737 0.478116 18.1088
0.944469 -0.273785 20.9634
1.3974 0.269606 17.3209
-1.35417 0.199984 19.6977
-0.618968 0.286744 19.7636
-0.859569 0.134225 19.2142
-1.50315 0.0414927 21.088
-1.30442 0.602016 20.2934
-0.632251 -0.228163 21.5787
-1.09105 0.25176 21.1886
0.292773 -0.247795 21.654
-0.295879 -0.0630915 21.5899
0.895509 -0.382945 21.2391
0.397685 -0.379042 21.3848
0.83797 -0.421127 20.8986
0.576169 -0.452025 20.9736
1.34571 -0.688526 20.0748
0.438083 -0.430525 20.825
1.07036 -0.5975 20.0828
-0.655199 0.487473 20.0629
-0.46543 0.470164 19.7575
-0.861275 0.560452 20.7173
-0.942334 1.00847 20.2174
-0.570051 0.256961 21.3409
-0.960019 0.788477 21.0855
0.0121713 -0.144151 21.4034
-0.317463 0.126443 21.6551
0.289251 -0.389226 21.1725
0.191643 -0.416888 21.3719
0.347104 -0.385907 20.9384
0.298775 -0.522178 20.9893
0.250947 -0.40599 20.6602
-1.22898 -1.77922 18.9547
-0.627085 -0.619617 18.9781
0.0340757 -0.854149 18.9692
-0.953051 -1.36016 22.2019
0.0689476 -4.75346 21.2421
-0.0820864 -0.0228746 20.931
0.000682789 -0.641448 21.3331
0.421398 0.664049 17.8409
-0.000496039 0.0681857 16.4342
0.560081 1.25304 15.7263
0.0245851 0.425526 8.53273
0.921349 1.25053 15.8568
1.16904 1.68583 12.4657
0.01919 0.877956 7.30814
1.37593 0.565627 12.4013
0.00498319 1.22793 10.4137
-0.745189 -0.113509 18.6253
0.0450936 -0.719084 18.4307
1.7959 1.02169 10.6747
1.83333 0.141383 6.92947
-0.0506797 -0.451095 -3.90004
1.54006 -0.122849 12.1823
-0.0535808 -0.0689881 3.95868
-0.580738 0.57959 19.1359
0.0379428 0.237186 18.1623
1.38986 -0.980212 14.133
0.629437 -1.09762 20.457
-0.0255655 -0.412648 0.0821314
0.401041 -0.909211 20.4703
-0.0160502 -1.80677 7.1883
-0.646337 1.09174 19.6506
0.00673421 0.771718 19.4208
-0.948955 1.41672 20.623
0.00275932 2.02726 19.9403
-0.826841 0.968363 21.7085
-0.0194017 2.28344 20.9331
0.0145258 -0.231792 21.7119
-0.0202369 0.494606 22.1488
0.235063 -0.600838 21.2579
0.00545489 -0.571359 21.581
0.271608 -0.647756 20.8316
0.0137433 -0.854688 20.9616
-0.00291638 -0.804928 20.5327
1.28882 -1.65445 19.0906
0.686899 -0.559582 19.0991
0.637857 -0.433014 19.58
0.982627 -1.30948 22.1122
1.80914 -1.59627 20.5686
0.0881803 -0.0210832 21.0091
0.404784 -0.405944 21.6304
-0.387659 0.66497 17.4847
-0.153594 0.0298011 21.6251
-0.504358 1.27141 15.3844
-0.8632 0.637142 20.6636
-0.919005 1.26265 15.9499
-1.18883 1.68175 12.6239
-1.2312 0.757512 20.7805
-1.37776 0.594867 12.6433
-0.919892 0.602337 20.9987
0.838821 -0.117382 18.7552
0.806996 -0.356155 19.374
-1.79388 1.0228 11.1159
-1.89181 0.149641 7.24489
-1.64431 0.440926 18.3254
-1.54619 -0.106449 12.4078
-1.39946 0.26038 17.5269
0.607511 0.545823 19.1948
0.868289 0.12485 19.2744
-1.38282 -0.981211 14.3355
-0.62499 -1.11786 20.4507
-1.33692 -0.692206 20.1264
-0.398179 -0.920429 20.4893
-1.069 -0.607798 20.0714
0.653379 1.07483 19.6597
0.466174 0.456587 19.7645
0.944521 1.4315 20.6203
0.94184 1.00668 20.2186
0.820702 1.02066 21.7248
0.968301 0.819218 21.085
-0.00850833 -0.244558 21.7257
0.319697 0.140908 21.6822
-0.215264 -0.632363 21.2585
-0.194575 -0.428774 21.3901
-0.261962 -0.668977 20.8203
-0.306638 -0.551248 20.9971
-0.256374 -0.422407 20.6679
1.01505 -0.520444 19.9771
0.665422 -0.235428 19.7692
0.927173 -0.558381 21.2129
1.6123 -0.750204 20.5111
0.170879 -0.148317 21.4786
0.54818 -0.361858 21.4231
-0.36443 0.121809 21.5005
-0.0813887 -0.085265 21.5248
-0.786507 0.315336 21.1912
-0.724091 0.191686 21.425
-0.912741 0.23261 20.6211
-0.989314 0.18473 21.06
-0.944832 0.0501296 20.9885
1.32253 -0.412711 19.7827
0.74288 -0.0520249 19.649
1.2572 -0.521578 21.32
2.10096 -0.208173 20.3784
0.252227 -0.26478 21.5143
0.849579 -0.345577 21.4343
-0.433338 -0.0123063 21.6106
0.0511412 -0.224445 21.6713
-0.977824 0.126615 21.2668
-0.840386 -0.13671 21.43
-1.11288 0.0219568 20.8415
-1.1123 -0.21503 21.0669
-0.937707 -0.275439 20.9704
1.33465 0.193688 19.7205
0.616648 0.278695 19.7828
1.51777 0.0397894 21.1003
1.31423 0.613022 20.2932
0.637189 -0.232705 21.5854
1.11485 0.254349 21.1953
-0.294505 -0.249363 21.6582
0.304766 -0.07041 21.604
-0.901061 -0.380466 21.2379
-0.406841 -0.393281 21.3993
-0.825893 -0.426349 20.8992
-0.575643 -0.480846 20.977
-0.42727 -0.435202 20.8087
0.654854 0.48407 20.0661
0.866546 0.570625 20.7177
0.592906 0.266458 21.3502
-0.00749842 -0.151756 21.4273
-0.294913 -0.415136 21.1698
-0.324914 -0.386319 20.9211
-1.20897 -0.534064 19.8572
-1.62459 -1.93923 18.3082
-1.26369 -1.08258 19.5706
-1.84742 -0.951654 18.9691
-0.734548 -0.425837 19.4002
-2.68423 -1.97086 20.5043
-1.09096 -0.569408 21.2702
-0.583766 -0.8835 19.2042
-1.03073 -0.973207 21.6063
-1.6346 -1.03322 21.9403
-0.407563 -0.465783 21.7006
-0.207803 -0.219339 21.4924
0.306196 0.0461878 14.6609
-0.083811 -0.166754 21.6103
-0.0216569 -0.388642 20.7996
0.239905 -0.0524012 21.335
0.387309 0.0582302 21.5301
0.349986 0.548465 10.6505
0.502024 0.330511 21.3945
0.713029 0.114549 19.316
1.08395 0.549473 19.6217
0.89434 0.261581 21.2572
0.404432 1.2637 10.1954
0.995282 0.711184 20.6138
1.40725 0.485624 18.3802
1.28822 0.707342 18.835
1.02011 0.149396 20.7962
1.36313 1.13167 12.0573
1.18876 0.68144 20.6592
1.72836 0.449642 18.9367
1.12607 0.382757 18.3268
-1.44307 -0.127623 19.6596
-2.391 -0.598957 16.8843
-1.98582 0.402016 18.8739
-0.859827 -0.0851518 19.1798
-4.45578 -0.539459 20.1953
-1.44215 -0.263499 21.2362
-2.20651 0.0628461 21.5411
-0.81818 -0.811557 21.0035
-0.424188 -0.314913 21.5664
-0.960092 -0.752026 21.2595
0.107423 -0.381514 19.7155
0.392017 -0.147565 21.653
0.518122 -0.280097 20.038
1.24703 0.144292 17.2816
1.03092 -0.167909 21.1867
0.413113 0.50593 3.71648
1.25099 -0.576714 19.9755
1.73803 -0.111502 17.2828
1.01077 -0.223174 21.1213
1.76679 -0.233881 8.86965
1.32047 -0.662682 20.2512
1.31347 -0.320026 17.9291
-1.00662 0.490499 19.8699
-1.2459 1.48334 18.8398
-0.737503 0.798763 19.8584
-0.677892 0.437528 19.4698
-1.82294 1.29347 20.0999
-1.24604 0.453809 20.8399
-1.99477 1.82015 20.7652
-0.977737 0.935837 20.6832
-1.69611 0.596051 21.2566
-0.737995 0.0707661 21.4975
-2.06946 0.983984 22.3607
-0.725675 0.51663 21.486
-0.477875 -0.00875312 21.9223
0.0986645 -0.231733 21.5471
0.287298 -0.544332 21.1751
0.0131569 -0.205301 21.579
0.453361 -0.598604 21.5229
0.530359 -0.46025 21.2538
0.50465 -1.00277 20.8438
0.271429 -0.490015 21.2043
0.590122 -0.765492 21.2564
0.549335 -0.50139 20.882
0.437037 -1.10085 20.381
0.283967 -0.464283 20.8885
0.437884 -0.633568 20.4945
1.6612 -1.80457 18.4659
0.0749662 -2.60805 18.4099
0.074963 -2.77514 16.2142
0.0311286 -0.789495 18.6393
0.0393467 -7.20361 22.355
0.616535 -0.911771 19.4276
0.0182912 -1.71115 22.3844
0.00138521 -0.180348 12.0098
-0.296687 0.0471017 14.7664
-0.00116762 -0.160406 18.6643
0.00195886 0.0688075 7.71533
-0.30667 0.528308 10.2992
0.0285897 0.350719 12.4036
0.00751487 -0.0384278 0.870509
-0.411205 1.30419 10.1142
0.00752321 0.0148579 7.54132
-0.00474727 -1.17003 -3.93567
-0.0262027 0.678367 0.133834
-1.38557 1.1363 12.2226
0.0253279 1.14083 7.73843
-0.0729273 -1.2672 -2.66674
-0.00730421 0.987456 8.27438
2.39602 -0.575367 17.0861
0.0734247 1.53217 15.0858
0.043648 -0.176082 18.1658
-0.460727 0.4882 3.84358
0.0183066 0.228423 -0.52912
-0.0591655 -0.661456 -3.62607
-1.7846 -0.253112 9.13574
-0.0109146 -1.7894 4.19377
-0.0260962 -0.917747 4.95259
1.25973 1.43789 18.8822
0.00635788 1.45923 19.4187
0.0177655 0.79716 18.785
0.00288105 4.26533 19.4651
1.99618 1.8335 20.763
-0.0077432 2.06415 20.4885
-0.026017 4.34035 20.1307
2.12908 1.0276 22.3361
-0.0301063 1.7549 21.999
-0.00375525 0.459581 20.1433
-0.309148 -0.566339 20.9698
-0.0034981 -0.259371 21.7775
0.0103636 -0.781731 16.0582
-0.506034 -1.02852 20.6315
0.00979795 -0.72481 21.2545
0.0237141 -1.30075 19.3249
-0.427937 -1.12226 20.3539
0.00512214 -0.76463 20.7507
0.0128924 -0.928419 20.0152
1.17116 -0.497814 19.8894
1.25655 -0.995086 19.6149
1.82061 -0.912832 19.0592
0.746388 -0.399916 19.4402
2.64987 -1.89469 20.5066
1.08616 -0.566776 21.2656
1.03283 -0.935764 21.5709
1.64071 -1.03891 21.9364
0.419908 -0.462536 21.6844
0.218059 -0.226405 21.4825
0.0900626 -0.17045 21.6106
0.0218008 -0.387767 20.7539
-0.237172 -0.0468032 21.2948
-0.387191 0.0646572 21.5389
-0.507256 0.351368 21.2799
-0.713683 0.11293 19.3736
-1.0962 0.571102 19.4723
-0.894521 0.258152 21.2487
-1.00914 0.753134 20.5683
-1.44083 0.472091 18.6472
-1.28963 0.69368 18.9216
-1.0127 0.137014 20.8321
-1.19197 0.69774 20.6544
-1.73214 0.423378 18.9684
-1.12558 0.380816 18.4786
1.41649 -0.122017 19.6903
1.95057 0.369226 18.9631
0.868926 -0.0790231 19.2449
4.50255 -0.555553 20.1933
1.45517 -0.272444 21.254
2.21881 0.0609277 21.5563
0.803948 -0.823614 20.8791
0.423722 -0.314595 21.581
0.964389 -0.760553 21.2387
-0.108909 -0.384087 19.7305
-0.394598 -0.144729 21.6644
-0.515516 -0.286573 20.0623
-1.26021 0.125946 17.4181
-1.02856 -0.17044 21.1998
-1.2537 -0.589412 20.0098
-1.73148 -0.123539 17.5306
-0.997595 -0.22367 21.1551
-1.31252 -0.662398 20.2561
-1.31759 -0.324926 18.0681
1.00245 0.483628 19.8794
0.7378 0.789574 19.8641
0.676407 0.419548 19.4922
1.82651 1.29933 20.0975
1.26165 0.458118 20.8444
0.978416 0.947305 20.6832
1.73152 0.612819 21.2542
0.757355 0.0667126 21.512
0.741272 0.552292 21.508
0.490325 -0.00306181 21.948
-0.101815 -0.24068 21.569
-0.0107175 -0.207553 21.6002
-0.453753 -0.622102 21.5365
-0.540759 -0.485118 21.2626
-0.267119 -0.520904 21.2051
-0.598367 -0.785362 21.2897
-0.560951 -0.506504 20.8891
-0.292154 -0.488945 20.8994
-0.436274 -0.652369 20.4981
-1.59254 -1.08061 19.2553
-1.2828 -1.04504 21.7848
-0.0428971 -0.244588 21.4579
0.661428 0.247519 20.6417
1.28884 0.659518 19.514
1.43407 0.510149 19.3832
-2.14955 -0.282976 18.7
-1.98391 -0.531254 21.9131
-0.221893 -0.672733 19.9936
0.673273 -0.0427226 18.5523
1.47811 0.0166553 17.8003
1.56299 -0.296271 17.1099
-1.31088 0.913738 19.4189
-1.71573 0.878447 20.8835
-1.21301 0.270552 21.7949
0.152745 -0.340011 21.8066
0.559436 -0.698637 21.3401
0.632561 -0.739016 20.8887
0.0659367 -2.9484 17.3006
0.0165401 -0.783487 14.4568
-0.0031534 0.0399682 9.14857
0.0457576 0.224016 3.88442
0.0188018 -0.875852 -0.413552
-0.0017329 0.232924 1.27891
0.0844033 -0.791995 14.7058
-0.0415783 -0.375767 -3.8454
-0.069852 -0.874247 0.957372
0.0257208 2.23619 18.1146
-0.00713137 3.15051 20.4449
-0.0319113 2.96667 22.0219
0.00607841 -0.568531 16.3915
0.0124827 -0.956977 17.8682
0.00621126 -1.21989 19.2465
1.5745 -1.01115 19.3247
1.28929 -1.01998 21.7537
0.0512936 -0.243478 21.4494
-0.663629 0.256011 20.5576
-1.31144 0.667251 19.4772
-1.43304 0.506278 19.412
2.10937 -0.264357 18.8131
1.98181 -0.534228 21.8889
0.218764 -0.676644 19.9515
-0.676619 -0.0521221 18.6193
-1.50836 -0.0091757 18.0537
-1.56668 -0.299834 17.337
1.30852 0.896418 19.4356
1.727 0.890954 20.8833
1.25025 0.280194 21.8172
-0.152414 -0.350997 21.8307
-0.557968 -0.721933 21.3364
-0.630182 -0.773851 20.8575
-1.40564 -0.685922 1.52111
0.312826 -1.43729 3.02059
0.0179866 -0.00853899 0.129537
0.0741079 0.0858976 0.315628
-0.0305654 -0.00396308 -0.00632358
0.003216 0.00607178 0.0362959
-4.04212 0.597889 2.49676
-0.145929 1.60745 2.33574
-0.169544 -0.0512909 0.884943
-0.0403877 0.00132719 -0.0149381
-0.058318 0.038605 -0.0358044
0.0330253 -0.00509986 0.219554
-0.31224 -1.42818 3.00488
1.41231 -0.69251 1.53458
-0.0203578 -0.0100752 0.150807
0.0363743 -0.002165 -0.00522758
-0.0765688 0.0841281 0.31925
-0.00307745 0.00508037 0.031648
0.118651 1.24062 1.77377
4.06527 0.612713 2.47864
0.169713 -0.051428 0.885478
0.0699474 0.0317595 -0.0284115
0.0426419 0.00108875 -0.0156185
-0.0317751 -0.00540282 0.218707
3.51318e-18 8.24393e-18 -1.94605e-16
0.0492308 -0.00638584 0.85956
0.000319468 -0.000843732 0.0126546
0 0 0
0.00531251 0.0215127 0.334754
0.0504131 -0.0079502 0.905994
0 0 0
-0.000416834 0.000458029 0.0255127
-0.195172 -0.15702 0.699008
-0.00222599 -0.00852599 0.0575623
0 0 0
-0.0174595 0.0116408 0.0321972
0.0215361 0.0245756 0.109073
-0.00933929 0.0259755 0.303927
0 0 0
0.0710862 0.00293939 0.341324
-1.42685e-17 -1.27471e-18 -2.06051e-16
0 0 0
-0.049286 -0.00665661 0.858793
-0.000304317 -0.000805076 0.0119839
-0.00594341 0.0211718 0.334602
0.000325529 0.00115973 0.0567623
-0.0498971 -0.007494 0.905318
0 0 0
0.194558 -0.156262 0.698818
0.0171261 0.011405 0.0316885
0.00225603 -0.00863399 0.058144
0 0 0
-0.0213546 0.0243414 0.108731
-0.0708727 0.00291872 0.340494
0.00937706 0.0258875 0.306105
0 0 0
0 0 0
-0.112592 -0.0850385 0.0665899
2.60441e-05 -0.000335414 0.0291672
0 0 0
0 0 0
0 0 0
0.000561535 0.00106402 0.0091108
-0.16791 0.093036 -0.0505344
0 0 0
0 0 0
0 0 0
0 0 0
0 0 0
2.07807e-06 0.000903161 0.0049403
-0.0063029 -0.0266379 0.165142
-0.0741154 0.0777953 0.422207
0.00665553 0.102436 -0.0368349
2.45957e-05 0.000422666 -0.00360928
0.00310876 0.0100423 0.0603574
0 0 0
0.112637 -0.0846218 0.066655
0.000205247 5.44672e-05 0.00239527
0 0 0
0 0 0
0.161572 0.081073 -0.0444943
-0.000553227 0.00102777 0.00894664
-0.000701655 0.00102931 0.0141933
-0.000762531 0.00233871 0.0224174
0.0750814 0.0783125 0.424826
0.00628485 -0.0265014 0.164265
0 0 0
-0.00311982 0.00992878 0.060508
0 0 0
0 0 0
-0.00874514 -0.025403 0.13468
8.14337e-05 2.47745e-05 0.00957485
-6.23366e-05 -0.00080502 0.0132916
3.28968e-07 -3.17833e-07 -0.000249691
0 0 0
0 0 0
2.53216e-05 9.42865e-05 0.0129869
0.00013803 0.000214257 0.0260792
0.00578513 0.0203642 0.175747
-0.0210883 0.0304554 0.411687
0 0 0
0.00380296 0.164195 0.41523
5.04748e-06 0.00162217 0.0592545
1.03164e-05 -0.0081792 0.0473205
0 0 0
0 0 0
0.00875256 -0.0253215 0.135439
-8.09942e-05 2.54079e-05 0.009564
0 0 0
0 0 0
0.021131 0.0308036 0.415081
-0.00572916 0.0201771 0.175152
-0.0410097 0.012493 0.187832
-0.0326665 0.00293884 0.289615
0.0409323 -0.111796 0.460902
-0.00404344 -0.0171518 0.0615227
0 0 0
-0.00104351 0.00165053 0.172238
-9.56081e-05 0.000402638 0.0160729
0.0296841 0.0924556 0.512672
0.000802984 0.00348302 0.0329023
0 0 0
0 0 0
0.00240745 0.0026492 0.0249164
0 0 0
0.000859792 -0.000124117 0.00826476
0.0014606 -0.00530592 0.0936394
-0.000934201 -0.00967802 0.194788