# vtk DataFile Version 2.0
tri_press
ASCII
DATASET UNSTRUCTURED_GRID
POINTS 3682 float
-0.645 0.125 -2.08079
-0.705 0.335 2.15042
-0.765 0.665 -2.10771
-0.705 0.922806 2.125
0.645 0.125 -2.08075
0.705 0.335 2.15042
0.765 0.665 -2.10771
0.705 0.922807 2.125
-0.760236 0.099764 -0.670387
-0.787171 0.162829 0.740017
-0.816508 0.822443 -0.696807
-0.803027 0.914898 0.714097
0.760281 0.0997188 -0.67036
0.787174 0.162826 0.74003
0.816508 0.822443 -0.696807
0.803016 0.914888 0.714097
-1.40989 -0.283623 -3.19614
-1.42232 -0.232425 -2.06761
-1.50645 -0.233423 -0.657225
-1.53959 -0.17976 0.753064
-1.49386 -0.0450816 2.16345
-1.47896 0.0401129 3.29192
-1.4844 0.104117 4.42048
-1.41284 0.0384526 -3.20942
-1.42588 0.109686 -2.08085
-1.52587 0.11886 -0.670357
-1.54667 0.167535 0.740087
-1.46956 0.289498 2.15057
-1.46233 0.372255 3.27905
-1.47648 0.437057 4.40759
-1.46484 0.641779 -3.23613
-1.51012 0.712447 -2.10757
-1.57592 0.824604 -0.696739
-1.56502 0.894218 0.714127
-1.47482 0.930786 2.12495
-1.46672 1.01209 3.25341
-1.48134 1.09031 4.38187
-1.51769 1.62654 -3.27582
-1.5441 1.71076 -2.14719
-1.57207 1.83785 -0.736192
-1.57602 1.9341 0.67491
-1.55383 1.98894 2.0859
-1.53561 2.03864 3.21452
-1.52787 2.10168 4.34303
-0.668124 -0.275967 -3.19609
-0.664828 -0.222331 -2.06756
-0.739351 -0.243427 -0.657224
-0.779008 -0.182584 0.753005
-0.747994 -0.0190967 2.16334
-0.734767 0.0585697 3.29185
-0.738252 0.114234 4.42044
-0.664868 0.0409159 -3.20941
-0.718466 0.390376 3.27899
-0.731234 0.446171 4.40756
-0.706576 0.624099 -3.23619
-0.721065 1.01386 3.25342
-0.735013 1.09303 4.38187
-0.751384 1.61497 -3.27588
-0.770964 1.70005 -2.14725
-0.793915 1.83742 -0.736229
-0.805104 1.93934 0.674918
-0.795762 1.98972 2.08594
-0.781591 2.03741 3.21455
-0.774425 2.10086 4.34306
0.746224 -0.275974 -3.19607
0.717368 -0.222341 -2.06753
0.769177 -0.243458 -0.6572
0.768715 -0.182593 0.753018
0.716557 -0.0190993 2.16334
0.729864 0.0585665 3.29186
0.741893 0.11423 4.42045
0.741913 0.0409119 -3.20938
0.72931 0.390374 3.27899
0.742491 0.446167 4.40757
0.773935 0.624097 -3.23618
0.728245 1.01386 3.25343
0.740254 1.09303 4.38188
0.776236 1.61497 -3.27587
0.775361 1.70004 -2.14724
0.772004 1.83741 -0.736223
0.750564 1.93934 0.674923
0.725716 1.98972 2.08594
0.724012 2.0374 3.21456
0.728449 2.10085 4.34306
1.47114 -0.283639 -3.19609
1.44997 -0.232449 -2.06756
1.51867 -0.233468 -0.657184
1.53646 -0.179783 0.753089
1.48269 -0.0450904 2.16346
1.47814 0.0401047 3.29194
1.48812 0.104107 4.42049
1.46393 0.0384408 -3.20938
1.42237 0.109672 -2.0808
1.51974 0.118813 -0.670319
1.54931 0.167514 0.74011
1.47666 0.289493 2.15058
1.4735 0.372249 3.27906
1.48634 0.437048 4.4076
1.50458 0.641771 -3.2361
1.49999 0.712442 -2.10755
1.56462 0.824586 -0.696722
1.56414 0.894198 0.714138
1.47914 0.93078 2.12495
1.4732 1.01209 3.25342
1.48472 1.0903 4.38188
1.53526 1.62653 -3.2758
1.54065 1.71075 -2.14717
1.5462 1.83784 -0.736179
1.52684 1.93408 0.674921
1.49369 1.98893 2.08591
1.48304 2.03863 3.21453
1.48324 2.10167 4.34304
-0.74918 0.395 -2.13843
0 0.112975 -2.0928
-0.700099 0.114901 -1.37559
-0.781551 0.628903 2.21426
0 0.285983 2.19944
-0.774551 0.220449 1.44522
0 0.734671 -2.17738
-0.814468 0.767436 -1.40226
0 0.975699 2.17789
-0.787986 0.952825 1.41955
0.749254 0.395 -2.13848
0.700117 0.114883 -1.37556
0.781496 0.628903 2.21421
0.77456 0.22044 1.44523
0.814473 0.767441 -1.40226
0.78809 0.952929 1.41955
-0.771105 0.133895 0.034815
-0.870777 0.461103 -0.683597
2.26276e-05 0.0713025 -0.670374
-0.878684 0.538864 0.727057
1.7649e-06 0.0923868 0.740023
-0.801519 0.860422 0.00864506
0 1.05902 -0.696807
-5.30523e-06 1.29756 0.714097
0.771111 0.133889 0.034835
0.870769 0.461081 -0.683583
0.878685 0.538857 0.727063
0.801484 0.860388 0.00864506
-0.859399 0.428052 -1.38892
0.859384 0.428041 -1.38891
1.13138e-05 0.0933778 -1.37557
0 0.88061 -1.40226
0 0.395 -2.28782
-0.873669 0.499984 0.02173
0.873679 0.499969 0.02174
1.21962e-05 0.0862503 0.034825
-2.65262e-06 1.28641 0.00864506
-0.861909 0.583883 1.43238
0.861921 0.58388 1.43239
8.8245e-07 0.114018 1.44522
-2.65262e-06 1.06483 1.41955
0 0.628903 2.30798
-0.682755 0.26 -2.09527
-0.3225 0.119294 -2.08649
-0.671183 0.121317 -1.72819
-0.755279 0.481952 2.19434
-0.3525 0.294023 2.1914
-0.751011 0.266489 1.79782
-0.755654 0.53 -2.12163
-0.3825 0.71348 -2.15619
-0.807086 0.73357 -1.75498
-0.703512 0.775855 2.12987
-0.3525 0.962674 2.16487
-0.756351 0.947674 1.77227
0.3225 0.119322 -2.08644
0.682755 0.26 -2.09525
0.671658 0.120842 -1.72815
0.3525 0.29403 2.19139
0.755251 0.481952 2.19432
0.75101 0.26649 1.79782
0.3825 0.713471 -2.15618
0.755657 0.53 -2.12163
0.807093 0.733577 -1.75498
0.3525 0.962678 2.16487
0.703567 0.775855 2.12992
0.756418 0.947742 1.77227
-0.732878 0.104622 -1.02299
-0.765687 0.116813 -0.317786
-0.832507 0.271934 -0.676992
-0.379705 0.0863372 -0.67038
-0.768504 0.203996 1.09262
-0.778075 0.149425 0.387416
-0.847378 0.343621 0.733537
-0.405422 0.103933 0.74002
-0.814456 0.793907 -1.04953
-0.883714 0.661809 -0.690202
-0.810955 0.843374 -0.344081
-0.449779 1.02378 -0.696807
-0.809524 0.947879 1.06682
-0.892913 0.752909 0.720577
-0.791959 0.877346 0.361371
-0.483024 1.26924 0.714097
0.73422 0.10328 -1.02296
0.379894 0.0860256 -0.670367
0.76569 0.11681 -0.317763
0.832506 0.27191 -0.676972
0.768498 0.204002 1.09263
0.405264 0.104254 0.740027
0.778094 0.149405 0.387433
0.847385 0.343614 0.733547
0.814451 0.793903 -1.04953
0.44976 1.02374 -0.696807
0.88371 0.661798 -0.690195
0.81096 0.843379 -0.344081
0.809526 0.947881 1.06682
0.48301 1.26923 0.714097
0.892915 0.752904 0.72058
0.791955 0.877342 0.361371
-0.841294 0.411526 -1.76368
-0.37459 0.395 -2.24806
5.6569e-06 0.0988004 -1.73418
0 0.253987 -2.17443
-0.853315 0.271476 -1.38226
-0.350044 0.101823 -1.37558
-0.844979 0.606393 1.82332
-0.390775 0.628903 2.28808
4.41225e-07 0.136436 1.82233
0 0.457443 2.2414
-0.837807 0.402166 1.4388
-0.387275 0.14362 1.44522
0 0.835482 -1.78982
0 0.564835 -2.1503
-0.8728 0.597744 -1.39559
-0.407234 0.869089 -1.40226
-1.32631e-06 0.981291 1.79872
0 0.802301 2.17633
-0.87575 0.768354 1.42597
-0.393995 1.04459 1.41955
0.841286 0.41152 -1.7637
0.374627 0.395 -2.24806
0.853315 0.271462 -1.38223
0.350064 0.102109 -1.37556
0.844988 0.606392 1.8233
0.390748 0.628903 2.28808
0.837995 0.40216 1.43881
0.38728 0.139696 1.44522
0.872794 0.597741 -1.39558
0.407237 0.869175 -1.40226
0.875752 0.768405 1.42597
0.394044 1.0446 1.41955
-0.837223 0.309521 0.0282725
-0.391612 0.0979408 0.03482
-0.87651 0.444578 -1.03626
-0.872479 0.480544 -0.330933
1.69707e-05 0.0647911 -1.02297
1.74119e-05 0.078652 -0.317774
-0.878615 0.519424 0.374393
-0.869325 0.561373 1.07972
6.98057e-06 0.0866158 0.387424
1.32367e-06 0.0893455 1.09262
-0.892397 0.707604 0.0151875
-0.493078 1.25805 0.00864506
0 0.878016 -1.04953
-1.32631e-06 1.22708 -0.344081
-3.97893e-06 1.30217 0.361371
-3.97893e-06 1.23953 1.06682
0.837221 0.309516 0.0282875
0.391634 0.0979254 0.03483
0.87651 0.444561 -1.03625
0.872485 0.480525 -0.330922
0.878617 0.519413 0.374402
0.869296 0.561369 1.07973
0.892395 0.707585 0.0151925
0.493076 1.25807 0.00864506
-0.834811 0.265738 -1.74593
-0.870994 0.275955 -1.02962
-0.876821 0.619759 -1.0429
-0.849355 0.563872 -1.75933
0.83481 0.265731 -1.74592
0.849368 0.56387 -1.75934
0.876819 0.619751 -1.04289
0.871036 0.275931 -1.0296
-0.336272 0.107937 -1.73119
0.336282 0.107488 -1.73117
0.365108 0.0734214 -1.02297
-0.365075 0.0739092 -1.02298
-0.394867 0.799259 -1.7724
-0.407744 0.862094 -1.04953
0.407745 0.863799 -1.04953
0.394868 0.799271 -1.7724
-0.348545 0.256994 -2.15188
-0.378545 0.547418 -2.11305
0.378563 0.547418 -2.10452
0.348563 0.256994 -2.15275
-0.834258 0.291031 -0.32436
-0.844326 0.325558 0.380905
-0.891339 0.729599 0.367882
-0.89024 0.685799 -0.337507
0.834255 0.291017 -0.324342
0.890243 0.685787 -0.337501
0.891328 0.729581 0.367886
0.844337 0.325548 0.380917
-0.385041 0.093374 -0.31778
0.385002 0.0934997 -0.317768
0.398777 0.100433 0.387428
-0.398755 0.100461 0.38742
-0.491701 1.18146 -0.344081
-0.49465 1.27684 0.361371
0.49464 1.27684 0.361371
0.491687 1.18144 -0.344081
-0.844852 0.376506 1.08617
-0.81894 0.442059 1.81057
-0.848843 0.772104 1.7978
-0.889243 0.747617 1.07327
0.84481 0.376501 1.08618
0.889236 0.747639 1.07327
0.848661 0.77213 1.79779
0.818972 0.442056 1.81056
-0.39043 0.11909 1.09262
0.390434 0.113519 1.09263
0.36989 0.176202 1.81008
-0.369888 0.137095 1.81007
-0.397755 1.22027 1.06682
-0.373247 0.977426 1.7855
0.373272 0.977424 1.7855
0.397775 1.22036 1.06682
-0.371638 0.469697 2.26445
0.371624 0.469697 2.26444
0.371624 0.789078 2.16117
-0.371638 0.789078 2.16119
-0.643421 0.1925 -2.06758
-0.48375 0.120546 -2.08524
-0.658054 0.123196 -1.90449
-0.733766 0.408476 2.17601
-0.52875 0.307727 2.17769
-0.736922 0.291828 1.97412
-0.725837 0.5975 -2.08018
-0.57375 0.696923 -2.13963
-0.797264 0.710506 -1.93135
-0.691105 0.84933 2.11428
-0.52875 0.947835 2.15003
-0.727307 0.931871 1.94864
0.48375 0.120545 -2.08521
0.64347 0.1925 -2.06759
0.658037 0.123213 -1.90445
0.52875 0.30783 2.17759
0.733771 0.408476 2.17601
0.736942 0.291808 1.97412
0.57375 0.6969 -2.13961
0.725827 0.5975 -2.08017
0.797296 0.710538 -1.93135
0.52875 0.947935 2.15013
0.691024 0.849331 2.1142
0.728328 0.932893 1.94864
-0.749988 0.0987615 -0.846687
-0.763531 0.107719 -0.494086
-0.801214 0.183427 -0.673689
-0.572835 0.0873211 -0.670384
-0.76622 0.19503 0.916317
-0.780805 0.157945 0.563716
-0.821538 0.251093 0.736777
-0.609088 0.107798 0.740018
-0.815855 0.808548 -0.87317
-0.865373 0.749757 -0.693504
-0.814604 0.833781 -0.520444
-0.651115 0.959055 -0.696807
-0.811023 0.936136 0.89046
-0.855338 0.837588 0.717337
-0.793036 0.891665 0.537734
-0.665595 1.13721 0.714097
0.749957 0.0987929 -0.846659
0.572852 0.087344 -0.670363
0.763525 0.107725 -0.494061
0.801208 0.183407 -0.673666
0.765927 0.195323 0.916329
0.609091 0.107796 0.740028
0.780825 0.157925 0.563731
0.82158 0.251069 0.736788
0.815865 0.808559 -0.87317
0.651112 0.959049 -0.696807
0.86539 0.749761 -0.693501
0.814607 0.833785 -0.520444
[...]
POINT_DATA 3682
SCALARS point_scalars float 1
LOOKUP_TABLE default
-102.5
-37.3163
-19.5222
-37.735
-103.968
-37.7101
-20.3539
-38.0007
-40.1058
-39.7821
-45.8158
-45.6827
-40.1223
-39.6253
-45.664
-45.7145
-16.7356
-48.9381
-39.0869
-46.7401
-39.3786
-36.3789
-33.7849
-0.333592
-103.47
-39.4465
-50.1563
-39.6214
-36.2918
-33.2266
44.1103
-141.625
-44.4191
-41.8354
-41.2894
-36.4728
-35.521
-84.1958
-78.1558
-73.1334
-59.3322
-41.5548
-38.8474
-36.5335
115.66
-152.777
-41.3231
-43.219
-38.0897
-32.0909
-31.786
164.614
-32.3747
-32.2582
179.438
-33.1513
-32.2906
-2.23959
-78.3647
-43.2697
-64.6253
-38.423
-35.0363
-33.979
111.375
-151.361
-41.0073
-43.9138
-38.2775
-32.4188
-32.1708
157.358
-32.6573
-32.6097
172.164
-33.3767
-32.6114
-2.56886
-78.4379
-42.9085
-65.0621
-38.4016
-35.2239
-33.5104
-16.8976
-49.0836
-39.0549
-46.4997
-39.639
-36.7551
-34.0849
2.73508
-103.923
-39.4519
-51.2072
-39.9504
-36.641
-33.4917
43.7615
-141.626
-44.3934
-41.8603
-41.4838
-36.7518
-35.9125
-84.4429
-78.2148
-73.0631
-59.2185
-41.117
-39.1405
-36.7949
-21.8089
-222.741
-53.5071
-36.8055
-28.0413
-38.647
-80.9346
-40.4689
-32.9596
-47.8347
-21.9645
-53.4142
-37.1902
-38.8465
-40.5074
-47.9504
-36.829
-40.5188
-45.5275
-39.6247
-37.8653
-52.3151
14.5135
-69.1858
-36.8467
-40.5268
-39.7209
-52.3157
-51.0459
-51.076
-56.5631
-20.3244
192.599
-39.3961
-39.4198
-38.9836
-86.9101
-41.5736
-41.6969
-38.5761
-44.2639
-26.5961
-15.6873
-178.629
-79.9679
-37.1003
-30.3435
-39.8213
9.94033
-61.8933
-60.1663
-35.2287
-32.9147
-42.2136
-178.889
-16.0918
-80.0754
-30.8739
-37.475
-40.1096
-58.8485
7.24393
-60.1889
-33.0218
-35.5179
-42.3142
-47.7368
-37.71
-39.2242
-44.4637
-37.9893
-36.9571
-33.5675
-39.0658
-32.9888
-43.475
-55.3795
4.76884
-53.5469
-40.4527
-48.0944
-64.7616
-48.073
-44.653
-37.7153
-39.2416
-38.1376
-38.9908
-36.9718
-33.7258
-33.1498
4.53887
-43.4597
-55.3115
-53.5837
-64.7551
-40.5148
-48.1113
-70.8054
174.092
-85.9962
139.756
-53.1691
-56.4165
-41.0862
-31.953
-36.1697
-23.2389
-40.4081
-37.1632
-47.2362
180.742
-48.1636
-24.0573
-39.0233
-29.5227
-43.1683
-45.0747
-70.7848
174.144
-53.2123
-56.4021
-41.3297
-32.2888
-40.6901
-38.7254
-48.1873
-24.0187
-43.2679
-45.0772
-37.2804
-38.4947
-45.0291
-40.4092
-51.5187
-40.593
-38.91
-43.3371
-38.463
-39.2639
-44.5477
-78.804
1.98675
-57.903
-75.4581
-56.281
-37.3054
-38.4859
-45.0674
-40.4125
-38.9664
-43.3316
-44.5641
-78.7978
-67.3833
-52.3001
-41.2295
-68.8833
-67.7311
-68.9
-41.2883
-52.3285
-87.6748
-87.7959
-50.7971
-50.8494
-47.8823
-5.26658
-5.17487
-47.9062
108.66
163.009
163.461
115.239
-38.2464
-37.3672
-42.2436
-45.5586
-38.2437
-45.5557
-42.2873
-37.4168
-40.0917
-39.927
-38.2696
-38.2096
-51.7403
-68.4241
-68.4318
-51.7326
-40.4023
-40.2743
-42.2227
-46.2326
-40.5505
-46.3003
-42.3964
-40.5432
-39.1354
-40.0146
-36.8902
-37.6349
-58.0105
-39.0691
-39.1019
-58.0581
-30.1748
-30.7232
-32.0651
-31.794
6.43951
-111.475
-110.564
-36.9864
-32.4898
-39.2273
28.2102
13.9161
-84.6689
-36.4678
-33.9391
-39.4784
-112.671
5.28759
-110.314
-32.9015
-37.3788
-39.4875
13.4416
27.5134
-84.7115
-34.1767
-36.7753
-39.7033
-43.7423
-38.8745
-38.6985
-43.0204
-44.6913
-36.9585
-34.16
-41.5929
-34.5565
-45.0634
-54.7834
-24.4197
-49.9722
-42.2838
-45.3258
-54.887
-43.746
-43.0685
-38.8784
-38.7096
-44.7458
-41.4149
-36.935
-34.0985
-34.6793
-24.0046
-44.9702
-54.7703
-50.0052
-54.8757
-42.5062
-45.3577
-29.0675
-11.0336
-95.2906
149.903
-214.03
-214.263
-119.509
51.5202
-65.2092
-49.436
-53.6362
-55.096
-36.8312
-35.3747
-40.2954
-32.8416
-28.7232
-28.9519
-32.4147
-24.2501
-41.522
-37.7095
-39.7786
-37.382
-90.9669
-91.4495
-65.9368
188.434
-47.8458
-35.4092
-45.782
-30.4955
-32.6504
-32.7295
-35.6951
-29.631
-44.0808
-52.6589
-45.6729
-46.6995
-29.3289
-11.3043
-95.3956
149.967
-65.1548
-49.3798
-53.6538
-55.0241
-37.1753
-35.6457
-40.5888
-33.0758
-41.9219
-37.8718
-39.9964
-36.576
-47.8716
-35.4771
-45.8088
-30.4929
-44.1019
-52.515
-45.689
-46.7149
-36.9329
-36.5696
-36.7994
-37.7794
-39.8384
-41.488
-43.6087
-40.5831
-44.9753
-45.3981
-47.4985
-42.0204
-37.0256
-40.4021
-39.3093
-45.3638
-38.153
-38.1849
-38.2777
-38.3732
-54.2956
-49.9628
-48.4868
-62.8925
12.3184
12.1629
14.8766
-11.1705
-68.3206
-68.3157
-72.1572
-64.6245
-36.9434
-36.6005
-36.8225
-37.7728
-39.8519
-41.4867
-43.625
-40.5849
-37.207
-40.4649
-39.3952
-45.5825
-54.2752
-49.985
-48.4947
-62.8909
-59.7065
-52.5391
-49.5499
-46.4575
-59.7165
-52.5714
-49.5794
-46.4967
-67.2743
-56.421
-56.4222
-51.9622
-32.3083
-21.825
-21.7989
-9.4282
186.549
139.241
195.32
186.569
-38.1469
-39.8641
-38.8618
-41.3822
-38.1703
-39.8765
-38.8988
-41.4039
-38.9428
-39.9002
-38.2986
-38.9557
-85.7041
-92.8635
-79.6479
-85.6564
-40.7182
-40.855
-42.3627
-42.0508
-40.838
-41.051
-42.4891
-42.0973
-37.4315
-37.8435
-38.4904
-40.4388
-41.8374
-44.5098
-44.5094
-48.5957
-28.57
-23.0422
-29.7382
-29.0066
-89.9383
65.0994
-123.025
5.01805
-54.294
-86.6175
-39.7403
-32.0473
-34.4677
-29.9105
-39.8985
-38.1125
-109.839
128.023
-74.0577
167.312
-66.3438
-52.3577
-41.1867
-32.8369
-35.8624
-31.591
-42.3464
-39.6549
-122.689
3.96238
-89.7775
66.1712
-54.5249
-86.5345
-34.3813
-30.4136
-40.0561
-32.3743
-40.1548
-37.6743
-74.0054
168.606
-109.868
129.725
-66.355
-52.3625
-35.9406
-31.875
-41.4345
-33.0959
-42.4867
-39.7173
-59.5915
-50.2734
-37.5622
-39.5081
-42.8018
-38.7448
-46.9843
-41.804
-39.4551
-38.9803
-36.9353
-37.923
-37.4614
-49.3779
-38.494
-39.3198
-38.4029
-16.2923
-41.7557
-45.2346
-49.9778
-80.4482
4.32735
-18.4648
-49.1419
-59.9074
-40.5105
-45.9016
-45.4266
-55.8475
-66.5341
-63.5062
-59.6042
-50.5961
-47.1501
-41.9018
-37.513
-39.484
-42.8632
-38.7525
-39.5653
-40.2947
-38.5657
-39.2015
-36.9742
-37.9514
-37.5427
-48.7844
-38.4862
-16.276
3.45417
-18.3941
-41.7644
-45.2263
-49.955
-80.2257
-49.2177
-59.9318
-66.5338
-63.5025
-40.565
-46.0037
-45.4548
-55.8687
-70.5912
-69.7369
128.982
183.549
-86.0491
-86.2613
128.078
127.958
-65.3687
-49.3818
-67.2344
-52.0581
-40.5954
-41.7298
-30.4791
-32.0113
-36.4926
-36.519
-25.0264
-25.5936
-40.1632
-40.6633
-38.6758
-37.356
-47.3901
-47.4162
176.317
176.036
-43.7133
-54.8756
-32.7628
-16.4013
-39.0719
-39.085
-30.5634
-30.3298
-42.4295
-44.4085
-49.5433
-42.0883
-70.6484
-69.7503
183.333
127.405
-65.2793
-49.4581
-67.2729
-51.8579
-41.9253
-40.8158
-31.0208
-32.2698
-40.3085
-40.7075
-38.9576
-38.7363
-54.903
-43.7569
-16.2766
-32.7704
-44.4836
-42.5336
-42.1109
-49.5475
-37.6391
-37.0729
-39.1651
-38.0923
-47.3343
-43.3849
-39.2102
-42.4476
-51.001
-50.7665
-40.527
-40.3477
-38.3812
-40.137
-41.8073
-45.3676
-38.5117
-38.3775
-39.2284
-39.6459
-43.1448
-45.018
-85.4597
-71.6734
0.10726
0.126538
-52.7037
-52.7005
-73.9713
-73.9884
-56.7629
-56.7671
-37.6575
-37.1068
-39.0917
-38.116
-43.4681
-47.3851
-39.2109
-42.4503
-40.1872
-38.4133
-41.7998
-45.3968
-45.0227
-43.1745
-71.6598
-85.4211
-96.6775
-68.5157
-62.7229
-90.4559
-41.1986
-44.3223
-48.0447
-50.8455
-39.6786
-40.92
-44.9842
-42.4125
-116.588
-100.365
-57.326
-52.2385
-96.2028
-90.4069
-62.7062
-68.4292
-116.59
-52.2882
-57.344
-100.386
-39.7095
-42.4276
-44.9985
-40.9799
-41.2372
-50.8898
-48.0845
-44.3341
-122.552
-120.091
-67.1141
-66.1355
-122.3
-66.1226
-67.2703
-119.67
-46.6068
-47.3377
-52.2405
-50.4966
-46.5924
-50.7287
-52.7795
-47.4414
-77.106
-39.1956
-31.3346
-69.9334
-14.3936
12.8786
-11.2945
-24.3205
-16.8006
-24.3318
-11.2438
12.7013
-77.1718
-69.9668
-31.3356
-39.1972
51.9765
109.952
130.599
67.0808
129.845
184.304
194.225
163.469
130.206
163.673
194.109
183.885
53.4272
66.7239
130.557
110.04
-38.3152
-37.0243
-38.6005
-39.5807
-36.8547
-38.1752
-37.88
-36.5552
-42.5873
-46.5244
-40.5296
-40.0088
-48.8088
-42.371
-41.8487
-49.5436
-38.4384
-39.583
-38.6154
-37.0431
-48.7968
-49.5401
-41.8593
-42.3689
-42.6323
-40.0793
-40.5653
-46.5467
-36.9013
-36.5862
-37.9175
-38.2929
-40.9382
-42.0214
-39.7417
-38.1636
-40.9464
-38.1374
-39.6393
-42.0672
-38.4137
-38.4892
-38.2256
-37.9717
-38.4559
-37.9455
-38.22
-38.488
-56.4026
-69.1884
-90.437
-11.7806
-54.0989
-70.9428
-77.7808
-58.4249
-54.1181
-58.4614
-77.7664
-70.9444
-56.5821
-11.7879
-90.4458
-69.1869
-48.1039
-38.9972
-41.1849
-48.7587
-39.5761
-40.0833
-40.6463
-41.2025
-41.0411
-43.9973
-41.2273
-41.0511
-47.862
-44.7569
-43.0132
-47.5621
-47.9577
-48.935
-41.304
-39.1817
-47.9149
-47.8344
-43.0865
-44.9072
-41.2801
-41.3154
-41.3592
-44.0938
-39.8798
-41.4068
-40.7579
-40.3976
-41.4308
-38.5799
-39.8386
-37.6588
-40.7085
-37.3887
-39.7428
-38.5601
-36.6322
-33.0528
-37.7339
-40.6516
-36.5986
-37.8099
-37.5956
-32.9594
-58.6831
-52.9495
-48.7196
-64.5031
-36.7764
-35.7388
-41.9569
-42.7661
-36.9007
-42.7822
-41.9694
-35.7711
-58.6913
-64.496
-48.7214
-52.9487
-31.856
-26.4269
-25.423
-32.2882
-32.2453
-32.5824
-26.0695
-26.939
-33.1514
-30.3841
-30.8545
-33.2681
-32.8716
-33.0283
-30.6362
-30.1665
-53.9663
-115.346
-170.926
-37.1666
-34.3514
-38.668
30.7675
73.6911
-120.467
-38.5595
-35.181
-37.6962
-116.272
-56.1351
-170.464
-34.7941
-37.5588
-38.9965
73.3736
29.0024
-120.547
-35.4329
-38.8772
-37.9543
-40.9311
-39.6582
-38.9466
-41.7323
-49.0479
-37.8974
-37.4045
-42.117
-38.3858
-46.468
-55.0081
-37.3971
-47.2868
-43.6128
-44.6696
-50.1123
-40.937
-41.7604
-39.6756
-38.957
-49.2448
-42.0598
-37.8675
-37.1602
-37.7341
-36.3287
-46.2803
-55.0221
-47.3184
-50.1402
-43.6462
-44.6825
-26.8239
-17.0488
-107.575
100.845
-220.026
-220.178
-150.798
-56.4847
-59.0587
-49.819
-54.2162
-53.7873
-36.9894
-36.4503
-39.4334
-33.5634
-28.1792
-28.2815
-29.8995
-26.1416
-39.0441
-37.8221
-39.3882
-37.5111
-87.1507
-88.5522
-78.49
76.3548
-43.7933
-38.1286
-43.869
-34.8133
-32.8428
-32.8763
-35.0714
-31.6017
-45.428
-49.4841
-46.9445
-48.0739
-26.997
-17.2014
-107.655
100.73
-58.972
-49.6339
-54.1892
-53.699
-37.2507
-36.7263
-39.7395
-33.827
-39.4945
-37.8968
-39.6293
-37.5684
-43.7993
-38.1748
-43.9034
-34.848
-45.5487
-49.4346
-46.7238
-48.1315
-37.1103
-36.7979
-36.7047
-37.0277
-40.2865
-40.9307
-41.2708
-40.5331
-45.5115
-45.656
-46.3979
-43.6965
-38.8876
-39.8987
-39.0235
-41.5726
-37.957
-37.9072
-37.8224
-37.6868
-53.474
-51.1771
-50.7246
-56.3754
13.6092
13.558
17.5282
3.72052
-69.0988
-69.098
-70.8974
-66.5089
-37.1246
-36.822
-36.7264
-37.0288
-40.2967
-40.9341
-41.2842
-40.5369
-39.01
-39.9836
-39.1237
-41.6586
-53.4686
-51.1851
-50.7276
-56.3815
-54.402
-51.7388
-50.2188
-48.8115
-54.4221
-51.7698
-50.2482
-48.8415
-61.2163
-56.5313
-56.5155
-53.4102
-26.3972
-20.8735
-20.8628
-14.6608
189.538
168.524
204.198
189.583
-38.7224
-39.6203
-39.1702
-40.2647
-38.7455
-39.6376
-39.1999
-40.2881
-39.0214
-39.9189
-38.28
-39.0394
-86.6025
-92.1684
-82.9386
-86.5956
-41.2668
-41.1741
-41.9949
-41.6346
-41.4108
-41.2801
-42.1305
-41.747
-37.6161
-38.0858
-38.2716
-39.835
-42.8712
-44.3334
-44.3355
-46.1401
-26.8437
-23.3297
-30.7651
-27.1223
-12.9337
-26.2418
-100.124
48.0144
-123.508
-203.207
-158.236
-30.0357
-90.6532
-72.2543
-62.4779
-82.6785
-36.8724
-37.0735
-39.3403
-33.1433
-31.4795
-29.4679
-32.1377
-29.9784
-39.1104
-42.0575
-39.8984
-38.9252
66.9262
2.982
-122.438
105.86
-77.5423
-63.3647
-90.3387
77.7435
-71.0988
-51.924
-64.9234
-55.5206
-36.0913
-34.9947
-43.6048
-33.3934
-33.2849
-32.5815
-34.6728
-31.7919
-40.9777
-42.9986
-42.2846
-40.6887
-124.164
-204.405
-158.076
-32.236
-13.2613
-26.5433
-100.298
47.6301
-90.5746
-72.3227
-62.8266
-82.654
-31.9663
-29.8394
-32.7055
-30.4672
-37.2589
-37.4339
-39.6937
-33.4636
-39.3208
-42.3645
-40.1404
-38.8676
-78.217
-62.186
-90.558
77.9298
67.3695
2.2603
-122.441
106.428
-70.931
-51.9456
-64.9392
-55.5518
-33.5675
-32.7144
-34.7681
-32.0975
-36.3695
-35.2659
-44.1504
-33.6612
-41.0549
-43.0579
-42.4163
-40.7564
-46.3671
-49.604
-57.6737
-48.8947
-38.462
-37.2134
-37.3969
-39.0075
-38.9443
-39.5177
-39.9198
-38.9022
-43.9736
-44.7868
-46.2147
-42.8384
-38.9116
-37.6337
-38.6462
-38.0315
-36.9953
-37.2438
-36.8196
-37.1798
-32.9269
-35.1497
-36.5799
-45.5929
-39.967
-38.4782
-38.3749
-38.8243
-33.9172
-33.7586
-36.5836
-23.3486
-44.3679
-42.3254
-42.1609
-44.4864
-54.7336
-55.1017
-52.5719
-62.9264
-6.2208
9.85033
7.29389
-3.12482
-52.6377
-53.0263
-51.0601
-57.3517
-40.8091
-40.8169
-40.3483
-43.1393
-46.3774
-49.0526
-46.9492
-51.2905
-62.9659
-67.1666
-65.9163
-64.8671
-46.7315
-49.2971
-57.6707
-48.9961
-44.0672
-45.1366
-46.4315
-42.9639
-38.4081
-37.2285
-37.3246
-38.9979
-38.9568
-39.5341
-39.939
-38.9165
-38.996
-37.762
-38.7393
-38.4222
-39.8293
-38.8461
-38.3151
-38.9404
-37.0049
-37.27
-36.8509
-37.1971
-33.046
-35.3503
-36.7009
-47.0105
-34.1514
-33.8597
-36.701
-23.5165
-6.41531
9.60773
6.95588
-3.25269
-44.3412
-42.3174
-42.1473
-44.4785
-54.6627
-55.0679
-52.5287
-62.8446
-52.694
-53.0944
-51.1421
-57.3782
-62.9827
-67.1641
-65.9201
-64.8663
-40.9166
-40.8813
-40.4067
-43.2022
-46.4303
-49.0753
-46.9692
-51.2897
-79.0038
-65.518
-71.0265
-70.6307
167.502
178.992
151.657
192.795
-99.0998
-75.5992
-85.9763
-86.0511
123.014
127.829
132.788
132.872
-53.2607
-52.9257
-57.2164
-51.5301
-55.9797
-56.5644
-61.0976
-53.0515
-40.8822
-40.9525
-40.7642
-41.4429
-32.3994
-30.4173
-30.9439
-32.5758
-36.3326
-37.062
-36.2378
-36.2622
-23.4798
-23.6274
-23.3443
-23.6206
-40.1072
-40.5539
-40.2496
-40.5068
-37.4313
-37.3463
-38.0666
-36.4794
-55.7642
-39.6709
-47.0998
-47.1125
184.661
179.305
179.066
179.109
-46.9423
-48.9331
-45.7635
-50.9401
-26.9944
-23.5817
-26.4025
-22.1672
-37.2985
-40.5395
-39.0424
-39.0484
-29.5155
-29.5237
-29.8848
-29.7476
-44.1964
-42.7401
-42.7999
-43.7764
-45.5806
-44.742
-46.9634
-43.4887
-78.9936
-65.535
-71.0124
-70.646
167.635
178.984
192.802
151.94
-53.3132
-52.9636
-57.249
-51.5828
-55.9991
-56.4404
-61.1372
-53.3581
-41.1679
-41.0981
-41.6634
-41.0172
-32.6855
-30.8535
-31.4275
-32.8048
-40.3418
-40.8452
-40.4521
-40.6584
-38.0741
-38.7626
-39.2962
-37.8588
-46.9626
-48.9623
-50.9563
-45.803
-26.9602
-23.5364
-22.0956
-26.3891
-44.2555
-42.8523
-43.8596
-42.9326
-45.6018
-44.7364
-43.5003
-46.9709
-37.0411
-37.674
-37.4399
-37.1329
-38.1831
-38.8106
-38.9961
-38.032
-45.7615
-44.0645
-46.0531
-44.136
-40.586
-40.1836
-39.8111
-41.3707
-49.9434
-50.664
-51.6094
-51.3474
-41.2948
-40.1598
-40.6092
-40.5708
-39.2971
-38.8578
-38.5408
-39.5934
-46.5876
-42.1373
-42.526
-44.5429
-38.752
-38.3552
-38.5145
-38.4507
-39.0792
-39.5822
-39.2372
-39.377
-46.5721
-42.6045
-43.9533
-44.7368
-71.4244
-84.264
-84.1971
-74.2145
8.58991
-4.2452
1.67715
1.61884
-27.0184
-82.499
-57.003
-56.3502
-73.7682
-77.1258
-75.1582
-75.1616
-61.1575
-51.8373
-56.4317
-56.4326
-37.0648
-37.6996
-37.4612
-37.1616
-38.1746
-38.7946
-38.9605
-38.0489
-45.7833
-44.1323
-44.1792
-46.0969
-40.5862
-40.1921
-39.8138
-41.374
-39.3763
-38.902
-39.6479
-38.589
-46.5821
-42.1628
-42.4903
-44.5633
-46.5842
-42.6245
-44.7466
-43.9777
-71.2995
-84.2665
-74.2047
-84.1546
-64.6523
-59.3562
-68.3203
-74.1571
-55.5378
-50.2644
-47.4877
-49.7421
-39.9375
-41.8091
-41.5406
-42.4203
-81.0979
-68.1139
-69.4482
-59.9167
-64.6371
-59.773
-68.5173
-74.0642
-81.1275
-68.1302
-69.4655
-59.968
-40.0025
-41.8477
-41.5951
-42.4915
-55.5497
-50.3063
-47.5311
-49.7931
-104.506
-88.6059
-86.3419
-75.9808
-104.504
-88.5899
-86.6796
-76.1139
-51.1886
-49.4738
-50.0256
-50.5058
-50.7426
-49.5164
-50.785
-50.4652
-57.834
-49.8235
-47.5788
-40.6203
-10.3443
-1.28736
-11.7579
-2.58269
-10.5344
-0.941831
-11.5363
-2.08913
-57.8332
-49.8342
-47.6295
-40.6338
93.3036
77.0152
121.114
129.306
148.29
164.465
158.87
171.085
165.253
149.054
170.655
158.641
78.3712
93.5661
129.346
121.818
-37.8402
-38.5783
-37.8938
-38.6704
-37.1603
-37.6312
-37.1681
-37.883
-41.4036
-43.8546
-40.9012
-42.6442
-45.3612
-47.7767
-43.6645
-45.1676
-37.7796
-38.5319
-37.9087
-38.6692
-45.3543
-47.7638
-43.6656
-45.1673
-41.4522
-43.8903
-40.9479
-42.684
-37.2048
-37.6992
-37.2092
-37.9209
-39.8402
-40.9391
-39.4983
-40.3526
-40.8921
-39.7863
-40.076
-39.4374
-38.7639
-38.1364
-38.3565
-38.2591
-38.0783
-38.5547
-38.2119
-38.307
-63.6934
-34.9692
-72.2631
-49.4396
-62.2979
-67.3923
-69.6747
-71.8186
-67.3924
-62.3172
-71.838
-69.6853
-34.9827
-63.7923
-49.4138
-72.1969
-40.0578
-43.0563
-39.6949
-40.9999
-39.781
-40.0215
-40.3893
-41.041
-41.5673
-42.3273
-41.9329
-42.3097
-47.3656
-47.0864
-44.936
-45.6196
-40.1999
-42.2141
-39.8413
-41.1078
-47.4437
-47.1705
-44.9985
-45.6732
-41.7708
-42.4824
-42.1129
-42.4445
-40.0819
-40.2851
-40.6425
-41.1652
-39.6706
-40.9377
-39.139
-39.2084
-40.0808
-40.1906
-39.0333
-39.8764
-35.9888
-37.3374
-36.6819
-38.542
-38.1369
-37.7826
-36.9529
-37.4605
-59.8558
-62.075
-53.3345
-57.3478
-37.4362
-39.1396
-39.0416
-40.6314
-37.4892
-39.1888
-39.0656
-40.656
-59.8716
-62.0917
-53.3457
-57.3616
-31.3844
-30.0644
-30.3601
-28.3121
-30.5526
-31.7941
-28.9698
-30.9064
-31.9303
-32.6022
-31.4443
-32.1548
-32.3331
-31.6593
-31.8804
-31.1781
-109.732
82.5217
-180.343
-30.3237
-107.279
-115.463
-39.3181
-33.2657
-36.6667
-31.9754
-39.4507
-39.0973
-117.466
112.887
-119.16
94.7275
-107.344
-78.5495
-43.1201
-33.7236
-35.1054
-33.4067
-40.6294
-37.7126
-179.504
-29.9545
-109.414
81.8004
-106.969
-115.19
-37.2799
-32.4096
-39.6643
-33.641
-39.7384
-39.2238
-119.146
94.5703
-117.509
112.924
-107.339
-78.6259
-35.2598
-33.6777
-43.5781
-34.0118
-40.8741
-37.8693
-41.3566
-46.352
-38.2337
-40.2906
-39.1615
-38.4649
-44.605
-41.8047
-45.8114
-43.2148
-36.7719
-37.328
-36.4257
-49.2985
-39.2193
-43.8931
-37.4851
-30.075
-42.2262
-47.627
-51.1242
-67.554
-17.8766
-36.6928
-49.0287
-52.3178
-41.9533
-44.277
-43.9202
-49.536
-52.284
-56.8625
-41.3804
-46.3578
-44.653
-41.8363
-38.3025
-40.2901
-39.1706
-38.4812
-45.9033
-43.2073
-39.1299
-43.5604
-36.7993
-37.2927
-36.4603
-49.1311
-37.5133
-31.5067
-19.389
-36.5759
-42.0904
-47.6092
-51.0901
-67.479
-49.0728
-52.5057
-52.3057
-56.8551
-41.9837
-44.3255
-43.9631
-49.6012
-94.0306
72.1163
-118.756
125.857
-92.67
-96.5403
134.239
164.579
-145.989
0.570713
-145.643
0.186137
-120.23
-120.073
70.7901
70.395
-70.5326
-65.0475
-51.3466
-49.0658
-57.2571
-52.5231
-59.6357
-51.5482
-39.1847
-33.1222
-42.1291
-33.5498
-40.1712
-40.7341
-32.4613
-33.157
-30.4527
-27.5751
-30.6287
-27.9578
-32.5354
-32.4642
-24.7144
-25.0039
-41.2226
-38.459
-38.5421
-36.9512
-38.8507
-40.1212
-37.962
-36.8328
-87.0702
103.065
-87.2457
102.332
-67.0892
-67.0741
186.972
186.847
-50.9562
-42.4292
-38.2836
-28.4266
-42.7194
-48.3346
-33.9149
-28.0654
-34.7827
-31.1806
-34.8208
-31.3316
-35.7005
-35.7155
-29.8061
-29.6812
-43.8659
-43.7033
-49.3527
-53.9743
-44.7461
-46.7241
-49.5755
-44.4991
-94.1108
71.99
-118.743
125.793
-92.7515
-96.5461
164.676
134.346
-70.5092
-65.0239
-51.3025
-49.0204
-57.2761
-52.5468
-59.5881
-51.2858
-39.5225
-33.4152
-42.427
-33.799
-41.0149
-40.4782
-32.7322
-33.3578
-41.4929
-39.6948
-38.7389
-36.9441
-39.0336
-40.3287
-37.9948
-37.2009
-51.0024
-42.4336
-38.3499
-28.4822
-48.3702
-42.7566
-28.0633
-33.9069
-43.9395
-43.6753
-49.7427
-54.0122
-46.7454
-44.8958
-44.5138
-49.5856
-36.9008
-37.4531
-36.4446
-37.1844
-36.9035
-36.6186
-38.0178
-37.5059
-40.7109
-39.691
-41.6833
-41.9906
-44.2309
-42.9154
-40.1108
-41.3716
-46.067
-43.4326
-46.0594
-43.7594
-47.4042
-47.4204
-42.0065
-42.049
-37.8288
-42.4106
-39.7873
-42.2443
-38.8568
-39.6731
-46.5356
-44.8251
-38.0643
-37.942
-38.0146
-37.4732
-38.3163
-38.3637
-38.4327
-38.4755
-52.0668
-59.8414
-48.5882
-53.6314
-47.7376
-49.0692
-66.2522
-60.3913
15.0896
2.59313
14.9253
2.56899
14.4162
14.3653
-10.9457
-10.9528
-69.7556
-66.6471
-69.7529
-66.6454
-71.8349
-71.8354
-64.545
-64.5435
-36.92
-37.4463
-36.4756
-37.2148
-36.9256
-36.6449
-38.0051
-37.513
-40.7294
-39.7
-41.6925
-41.9862
-42.9314
-44.2461
-40.113
-41.3717
-37.9649
-42.7146
-39.8618
-42.2042
-39.7513
-38.9542
-46.817
-44.9863
-52.0555
-59.7119
-48.6071
-53.6554
-49.07
-47.7564
-60.4341
-66.2418
-61.134
-58.4006
-56.2198
-50.597
-47.3298
-52.6977
-47.3163
-45.5454
-61.1331
-58.4167
-56.2368
-50.6334
-52.7193
-47.3601
-45.574
-47.3576
-67.1534
-67.2475
-60.9375
-53.0446
-61.3517
-53.5191
-51.9544
-52.2416
-32.2782
-32.2781
-26.691
-16.4904
-16.4526
-26.6669
-9.94236
-9.93428
162.689
202.208
135.392