# vtk DataFile Version 2.0
tri_press
ASCII
DATASET UNSTRUCTURED_GRID
POINTS 3682 float
-0.624893 0.065 -1.785
-0.825 0.255 1.83134
-0.823043 0.515 -1.515
-0.765 0.755 1.88924
0.695 0.065 -1.76845
0.841794 0.255 1.825
0.785 0.463755 -1.615
0.725 0.755 1.91105
-0.715555 0.104374 -0.579553
-0.817138 0.132826 0.625893
-0.824308 0.615613 -0.380253
-0.828335 0.718987 0.754493
0.769596 0.102669 -0.570633
0.829755 0.154774 0.627183
0.846351 0.642188 -0.43965
0.809546 0.722464 0.7357
-1.38519 -0.264545 -2.80046
-1.39245 -0.196154 -1.8545
-1.47251 -0.157046 -0.6517
-1.56735 -0.125894 0.558385
-1.59581 -0.0378807 1.76163
-1.60327 0.0307538 2.71
-1.61233 0.0904399 3.65213
-1.40993 -0.0208624 -2.70613
-1.41547 0.0579388 -1.7631
-1.49997 0.107168 -0.571879
-1.59358 0.141671 0.620346
-1.60473 0.229563 1.81213
-1.61563 0.296633 2.76084
-1.62783 0.355466 3.70536
-1.51458 0.451894 -2.48933
-1.56208 0.532488 -1.52779
-1.59436 0.624145 -0.381522
-1.61611 0.704314 0.75296
-1.58302 0.754592 1.89826
-1.61884 0.818939 2.85205
-1.64994 0.881939 3.80726
-1.60965 1.21144 -2.22549
-1.63219 1.29564 -1.28428
-1.64855 1.40757 -0.142901
-1.66033 1.50413 0.979546
-1.66655 1.57373 2.11605
-1.67825 1.62605 3.04706
-1.69692 1.68276 3.99194
-0.629988 -0.262969 -2.81425
-0.62893 -0.189742 -1.8662
-0.693198 -0.156853 -0.655973
-0.775222 -0.128515 0.562718
-0.79784 -0.0254466 1.7726
-0.808111 0.0402613 2.71772
-0.818914 0.096458 3.6562
-0.646038 -0.0253385 -2.72416
-0.828167 0.306657 2.76898
-0.837426 0.361221 3.70908
-0.741224 0.43425 -2.50602
-0.835445 0.822014 2.85308
-0.863834 0.885282 3.80785
-0.826794 1.2024 -2.23768
-0.842973 1.28956 -1.29456
-0.851502 1.40919 -0.151895
-0.865337 1.50985 0.971784
-0.877691 1.57773 2.1098
-0.890905 1.62873 3.04208
-0.909165 1.68539 3.98798
0.814061 -0.265212 -2.82325
0.771214 -0.18877 -1.8593
0.808528 -0.154016 -0.651031
0.842618 -0.113378 0.563058
0.844562 -0.0194421 1.76945
0.807088 0.0452899 2.71704
0.778725 0.102235 3.65604
0.797559 -0.0326821 -2.74088
0.77951 0.310046 2.77024
0.75503 0.366368 3.71019
0.792304 0.412831 -2.559
0.721193 0.824879 2.86159
0.712169 0.890015 3.81077
0.744907 1.19709 -2.2805
0.746923 1.28739 -1.3392
0.753862 1.41567 -0.186314
0.733752 1.51709 0.953763
0.701146 1.58339 2.10433
0.682333 1.63416 3.04016
0.666494 1.69106 3.98598
1.55486 -0.266803 -2.82604
1.52027 -0.192328 -1.86312
1.57282 -0.146456 -0.656096
1.63125 -0.10312 0.555631
1.6395 -0.02229 1.75984
1.60848 0.0429333 2.70939
1.57796 0.102749 3.65107
1.53627 -0.0300207 -2.74544
1.4869 0.058684 -1.78364
1.55519 0.118464 -0.584438
1.61663 0.165429 0.617021
1.61812 0.242705 1.81478
1.58244 0.306829 2.76383
1.55415 0.366796 3.70641
1.54638 0.427218 -2.57479
1.54387 0.508844 -1.62966
1.60094 0.647039 -0.449242
1.59461 0.719195 0.731461
1.53777 0.764362 1.91241
1.51964 0.827808 2.86225
1.50706 0.892456 3.81061
1.52833 1.20455 -2.30407
1.53612 1.29468 -1.36424
1.54803 1.41988 -0.205224
1.53078 1.51847 0.945072
1.49552 1.58581 2.10316
1.47376 1.63754 3.041
1.45731 1.69447 3.98645
-0.73754 0.29 -1.66357
0.0350535 0.0643459 -1.77738
-0.678868 0.0760426 -1.18228
-0.823833 0.505 1.88912
0.00839701 0.219621 1.86355
-0.78464 0.230342 1.22862
-0.0190215 0.484753 -1.56038
-0.866057 0.607688 -0.947627
-0.02 0.803502 1.94865
-0.822617 0.762943 1.32187
0.76717 0.264378 -1.7189
0.74622 0.0699122 -1.16954
0.805076 0.505 1.8897
0.809333 0.231329 1.22609
0.846686 0.583982 -1.02733
0.796524 0.767983 1.32338
-0.770726 0.11422 0.02317
-0.832994 0.359993 -0.479903
0.0270204 0.0959903 -0.575093
-0.852167 0.425907 0.690193
0.00630863 0.113228 0.626538
-0.825361 0.66634 0.18712
0.0110217 0.940039 -0.409952
-0.00939467 0.999595 0.745097
0.812618 0.115779 0.028275
0.866272 0.372428 -0.505142
0.848961 0.438619 0.681442
0.824923 0.6793 0.148025
-0.886217 0.324997 -1.06495
0.831944 0.318403 -1.09843
0.031037 0.0728927 -1.17591
-0.00399991 0.71702 -0.987476
0.00801601 0.277189 -1.9984
-0.821334 0.39295 0.105145
0.838758 0.405524 0.08815
0.0166645 0.103537 0.0257225
0.000813497 1.07171 0.167572
-0.860943 0.465453 1.27524
0.885678 0.471809 1.27473
0.00735282 0.123489 1.22735
-0.0146973 0.881947 1.32262
-0.00580148 0.505 2.00136
-0.650174 0.1775 -1.69324
-0.29492 0.0616432 -1.78422
-0.657889 0.0645124 -1.48364
-0.821816 0.38 1.85763
-0.408301 0.221486 1.86327
-0.801352 0.24614 1.52998
-0.77538 0.4025 -1.58437
-0.421032 0.510445 -1.54826
-0.883881 0.600675 -1.23131
-0.80152 0.63 1.89629
-0.3925 0.803904 1.9436
-0.80334 0.768503 1.60555
0.365027 0.0615097 -1.77608
0.687397 0.164689 -1.69998
0.723316 0.0647505 -1.469
0.425096 0.218294 1.86329
0.822473 0.38 1.85639
0.822603 0.246124 1.52555
0.382989 0.483132 -1.59657
0.779505 0.364066 -1.67037
0.856205 0.56423 -1.32116
0.3525 0.803844 1.95444
0.769383 0.63 1.90472
0.768855 0.769585 1.61721
-0.706911 0.0805089 -0.880915
-0.745555 0.106882 -0.278192
-0.826259 0.206191 -0.529728
-0.344856 0.0990049 -0.577323
-0.83021 0.152263 0.927255
-0.797735 0.119721 0.324532
-0.853042 0.270171 0.658043
-0.411141 0.111575 0.626216
-0.826997 0.593465 -0.66394
-0.786903 0.466929 -0.430078
-0.824491 0.640633 -0.0965667
-0.468591 0.901722 -0.395103
-0.831278 0.746767 1.03818
-0.855771 0.580207 0.722343
-0.826234 0.692049 0.470807
-0.452671 0.926904 0.749795
0.768216 0.0759823 -0.870088
0.403068 0.0898097 -0.572863
0.796355 0.103976 -0.271179
0.861739 0.215646 -0.537888
0.829648 0.182948 0.926638
0.430239 0.109588 0.626861
0.820733 0.13573 0.327729
0.852658 0.290046 0.654313
0.856859 0.623425 -0.733488
0.478437 0.890615 -0.424801
0.865251 0.511778 -0.472396
0.835613 0.660721 -0.145813
0.806572 0.748761 1.02954
0.437316 0.93551 0.740398
0.85035 0.59109 0.708571
0.816673 0.700321 0.441863
-0.884498 0.307498 -1.36426
-0.364762 0.283594 -1.94236
0.0330452 0.0623831 -1.47664
0.0215347 0.170767 -1.96914
-0.891706 0.20052 -1.12361
-0.323916 0.0724829 -1.17909
-0.853533 0.485227 1.58218
-0.414817 0.505 1.98953
0.00787492 0.145169 1.54545
0.00129776 0.36231 1.96022
-0.850717 0.347898 1.25193
-0.388644 0.123707 1.22799
-0.0115107 0.584267 -1.27393
-0.00550274 0.380971 -1.83129
-0.88656 0.466342 -1.00629
-0.435028 0.675681 -0.967551
-0.0173487 0.808593 1.63563
-0.0129007 0.654251 1.95715
-0.863674 0.614198 1.29855
-0.418657 0.818763 1.32224
0.818776 0.29139 -1.40866
0.387593 0.270783 -1.9582
0.814602 0.194158 -1.13399
0.388629 0.0697202 -1.17273
0.885145 0.488405 1.58222
0.399637 0.505 2.00056
0.885239 0.351569 1.25041
0.408343 0.123401 1.22672
0.835565 0.451192 -1.06288
0.421343 0.662597 -1.0074
0.885176 0.619896 1.29905
0.390913 0.819804 1.323
-0.842673 0.230264 0.0641575
-0.380699 0.101543 0.0244462
-0.876212 0.342495 -0.772428
-0.842994 0.376472 -0.187379
0.0290287 0.0765018 -0.875501
0.0218425 0.100937 -0.274685
-0.836808 0.409428 0.397669
-0.860353 0.44568 0.982718
0.0114866 0.10598 0.32613
0.00683073 0.117433 0.926946
-0.824122 0.530032 0.146133
-0.467906 0.980291 0.177346
0.00351088 0.828513 -0.698714
0.00591758 1.00067 -0.12119
-0.00429059 1.05386 0.456335
-0.012046 0.940612 1.03386
0.825295 0.260848 0.0582125
0.419835 0.0992693 0.0269988
0.833452 0.345416 -0.801788
0.859188 0.388976 -0.208496
0.842823 0.422071 0.384796
0.854939 0.455214 0.978088
0.83488 0.543932 0.118087
0.470169 0.990109 0.157799
-0.87422 0.18901 -1.42395
-0.875927 0.216351 -0.826671
-0.863895 0.477073 -0.718184
-0.893634 0.434421 -1.29779
0.802096 0.179423 -1.43883
0.833929 0.407629 -1.36491
0.836517 0.47925 -0.767638
0.824725 0.215853 -0.835938
-0.309418 0.0623296 -1.48014
0.376828 0.0623924 -1.47282
0.393468 0.0741314 -0.872794
-0.334091 0.0755695 -0.878208
-0.42803 0.610107 -1.25262
-0.420836 0.798504 -0.681327
0.425015 0.785258 -0.716101
0.402166 0.582673 -1.29754
-0.329841 0.174134 -1.85376
-0.392897 0.391735 -1.79918
0.385291 0.372518 -1.83112
0.37631 0.167728 -1.86493
-0.83524 0.217841 -0.232785
-0.847895 0.250199 0.3611
-0.8416 0.555946 0.434238
-0.804885 0.498167 -0.141973
0.861304 0.229354 -0.239838
0.826181 0.515912 -0.177154
0.846209 0.569308 0.413329
0.856338 0.266766 0.356263
-0.363902 0.0980246 -0.276439
0.410993 0.0954562 -0.272932
0.425613 0.103277 0.32693
-0.396661 0.105076 0.325331
-0.475587 0.955683 -0.108878
-0.466031 0.965082 0.463571
0.459913 0.97515 0.449099
0.485283 0.96232 -0.133501
-0.860285 0.313632 0.954986
-0.842775 0.363949 1.55608
-0.85682 0.622099 1.59387
-0.869922 0.593323 1.01045
0.849989 0.324133 0.952363
0.854403 0.600219 1.00381
0.88453 0.624948 1.59972
0.884763 0.365784 1.55388
-0.397029 0.117646 0.927101
0.413188 0.117583 0.926792
0.416719 0.140109 1.5355
-0.398472 0.144891 1.53772
-0.418761 0.873786 1.03602
-0.405579 0.805843 1.62059
0.371707 0.806264 1.62642
0.395494 0.880827 1.0317
-0.411559 0.371155 1.95383
0.412366 0.371155 1.96859
0.376069 0.642126 1.96366
-0.403659 0.642126 1.95189
-0.659341 0.12125 -1.76093
-0.459906 0.0616787 -1.78625
-0.64186 0.0642872 -1.63432
-0.824964 0.3175 1.84604
-0.616651 0.229181 1.85637
-0.810915 0.25283 1.68066
-0.792928 0.45875 -1.5434
-0.622038 0.531536 -1.55044
-0.84747 0.551845 -1.37316
-0.784286 0.6925 1.89379
-0.57875 0.799364 1.93633
-0.792374 0.769956 1.7474
0.530013 0.0614753 -1.77404
0.716082 0.114844 -1.7591
0.709748 0.0642851 -1.61872
0.633445 0.226665 1.85413
0.837742 0.3175 1.8463
0.834794 0.247967 1.67527
0.583995 0.485833 -1.61817
0.780833 0.413911 -1.64126
0.824576 0.517966 -1.46808
0.53875 0.799088 1.95241
0.747586 0.6925 1.90828
0.755019 0.770383 1.76413
-0.719805 0.0838688 -0.730234
-0.734077 0.102106 -0.428873
-0.79401 0.143731 -0.554641
-0.530345 0.10141 -0.578438
-0.826226 0.139993 0.776574
-0.808312 0.125398 0.475213
-0.843725 0.197182 0.641968
-0.619318 0.111844 0.626055
-0.825474 0.60436 -0.522097
-0.832187 0.554562 -0.405166
-0.824362 0.628085 -0.23841
-0.634104 0.733977 -0.387678
-0.829762 0.732833 0.896337
-0.84965 0.653395 0.738418
-0.826721 0.704955 0.61265
-0.625913 0.793766 0.752144
0.773483 0.0847487 -0.720361
0.589341 0.090221 -0.571748
0.787718 0.0985799 -0.420906
0.834877 0.149553 -0.554261
0.829698 0.168864 0.776911
0.640588 0.110999 0.627022
[...]
POINT_DATA 3682
SCALARS point_scalars float 1
LOOKUP_TABLE default
-76.8194
-44.6493
-10.2911
-41.0859
-74.8599
-45.0222
14.955
-37.7542
-32.9376
-31.4321
-41.7567
-39.088
-33.0478
-31.3596
-50.5956
-39.4735
-68.9597
-50.2233
-54.1628
-30.7035
-35.8527
-46.6913
-32.3137
-68.9597
-57.5495
-42.9855
-32.0105
-38.9876
-39.9158
-31.9753
52.5669
-82.2723
-38.6711
-35.0349
-44.0869
-38.463
-32.0541
-39.8266
-83.237
-40.3994
-36.3048
-42.1047
-41.1924
-37.172
57.9706
-135.855
-42.7037
-31.8963
-39.3812
-31.8586
-29.7946
132.123
-30.025
-29.4251
157.356
-30.8184
-29.3393
57.7955
-64.3449
-70.6077
-48.5549
-37.922
-35.1382
-35.1382
131.605
-59.031
-39.0618
-31.3658
-38.6166
-30.9583
-29.6005
131.605
-29.6005
-29.3227
151.95
-29.6461
-29.1796
51.4997
-51.768
-76.1834
-49.0756
-34.0861
-32.8323
-32.8323
-59.031
-124.893
-38.3685
-31.4603
-44.894
-42.7376
-30.93
22.4331
-124.808
-41.0892
-31.3565
-45.6951
-42.7376
-30.6538
102.681
-126.97
-47.7463
-33.2028
-47.6669
-34.9025
-30.606
-34.0492
-82.0662
-47.3688
-34.9473
-39.7671
-37.4513
-37.0457
9.958
-64.2827
-56.3662
-40.2194
-29.4372
-31.5428
15.0003
-63.8099
-28.7831
-38.6492
-21.4979
-47.5656
-36.7254
-31.7645
-48.9767
-40.7486
-27.844
-35.468
-36.8364
-32.5115
-32.3262
-40.6054
-47.2338
-52.6849
-30.9637
-45.0879
-30.4537
-44.0066
-67.0915
-46.4705
-53.6819
-5.28931
194.506
-28.8518
-32.9021
-31.488
-96.5098
-33.8842
-34.293
-35.234
-36.4846
-21.7326
13.4765
-112.476
-83.1941
-42.6791
-32.9084
-31.7529
28.1445
11.7362
-89.148
-38.1878
-31.0772
-36.2471
-110.401
-6.01033
-65.178
-32.833
-41.4436
-33.2877
14.2969
-22.0577
-74.8383
-30.4215
-35.4819
-39.2906
-45.7628
-28.8442
-33.0332
-34.9506
-38.2716
-29.5839
-32.4654
-32.4777
-45.6485
-34.8945
-40.9001
-60.8809
-36.9296
-34.4269
-39.8595
-51.8964
-40.7381
-35.0278
-32.9912
-42.469
-31.2319
-32.486
-31.5449
-31.0052
-49.6849
-56.7905
-46.4622
-47.8281
-35.4593
-51.4908
-32.5521
-42.1398
-102.041
177.026
-78.7267
47.3865
-71.9575
-52.3351
-35.2382
-27.8104
-36.9576
-24.6801
-32.5546
-35.3294
3.74607
58.2233
-61.7629
-22.7046
-31.6611
-25.2583
-35.138
-37.0012
-71.1154
185.614
-47.1709
-50.7324
-40.9771
-27.0163
-32.4829
-33.1302
-46.3126
-12.1696
-37.3547
-36.8697
-27.0639
-30.4112
-48.7505
-29.6037
-44.7524
-32.4988
-30.3344
-37.5409
-31.9578
-33.581
-32.6175
-66.0098
-18.5535
-76.5763
-69.5618
-42.9618
-31.1977
-31.1257
-35.4177
-37.194
-31.9784
-25.4714
-37.4212
-70.5233
-74.723
-50.7585
-49.0471
-103.225
-69.549
-69.4987
-35.2412
-36.3731
-73.2146
-70.7211
-42.9714
-44.1365
-26.2835
-28.0687
-26.4181
-9.66736
164.825
69.3667
76.0686
176.439
-30.4034
-29.7811
-32.9522
-32.352
-39.2676
-38.8183
-34.7286
-30.6239
-31.2555
-31.9693
-31.5468
-31.3391
-71.6286
-60.2412
-60.9857
-75.5365
-37.4846
-33.8518
-36.0481
-37.4132
-26.0896
-27.5782
-44.3517
-38.2937
-34.2108
-34.3443
-35.3759
-36.2877
-43.4463
-32.9367
-32.6574
-43.1277
-28.3655
-27.9033
-27.6968
-28.4583
-18.0759
-132.19
-107.242
-44.4176
-36.8968
-33.4236
14.7612
3.99603
-38.2487
-38.2849
-34.6587
-39.6314
-133.808
-27.2808
-103.26
-37.8544
-43.7218
-36.1749
19.1483
-3.72125
-64.3527
-32.7305
-36.4457
-39.0188
-44.1616
-30.6858
-32.8494
-33.4553
-35.918
-30.6074
-32.1339
-32.8032
-43.079
-38.0518
-40.5846
-57.3597
-38.5905
-35.4867
-40.4541
-46.9077
-39.2028
-33.3209
-33.8223
-37.8748
-33.0003
-32.3827
-31.4249
-31.291
-52.1263
-63.9285
-48.2164
-49.2696
-37.267
-46.5969
-33.8093
-41.0954
-0.634274
33.0444
-54.6792
151.538
-65.1186
-60.8066
-112.054
-58.8784
-66.1361
-49.5792
-72.8294
-52.4816
-40.7631
-39.4889
-38.7374
-29.4862
-30.3631
-30.2242
-33.4268
-26.0366
-31.4139
-41.3802
-31.6332
-33.7446
14.3088
14.642
21.144
34.4326
-74.6457
-55.8193
-62.1085
-48.7565
-29.3911
-28.9376
-29.7886
-25.2169
-37.992
-38.2622
-35.6062
-38.157
-12.4888
-31.638
-109.378
141.552
-55.2098
-42.7408
-47.7718
-48.23
-38.6728
-36.1843
-47.4547
-29.1998
-32.2683
-40.6064
-32.2867
-29.9855
-58.1201
-38.8744
-47.163
-39.7679
-40.3014
-38.6541
-38.3091
-38.1985
-27.8726
-28.3113
-27.4752
-29.3951
-33.7784
-36.0934
-40.4462
-32.2517
-36.6004
-36.5104
-41.9379
-33.8808
-32.5982
-33.1063
-31.0249
-33.9179
-32.2419
-32.2607
-32.604
-32.781
-40.6274
-39.6363
-35.3675
-52.4179
-45.014
-44.7818
-28.7874
-83.1062
-52.0896
-52.0315
-60.0469
-47.2429
-32.2473
-30.387
-30.6907
-30.7865
-43.4183
-48.2339
-38.1951
-41.0197
-29.9859
-31.0256
-31.551
-28.9964
-46.149
-43.6642
-39.8925
-55.1522
-86.1654
-69.1529
-63.798
-56.4229
-56.5547
-47.0029
-46.0757
-40.2163
-61.1537
-53.6895
-52.8534
-48.472
10.0831
-7.63953
-4.71743
-11.3867
183.629
201.649
105.566
192.5
-27.7181
-29.1641
-29.6644
-31.2196
-31.9882
-33.9527
-33.3293
-35.2419
-31.1196
-31.767
-31.5816
-31.4565
-83.6238
-56.9509
-80.3353
-85.7212
-33.8522
-33.2912
-34.5145
-33.8147
-38.0598
-33.3551
-35.7037
-33.0133
-36.8938
-35.4033
-34.5933
-34.5933
-33.8848
-36.5267
-36.4404
-39.379
-24.5653
-22.6538
-24.2047
-23.3424
-26.5153
121.426
-92.446
101.98
-64.9668
-71.9189
-37.0272
-30.2812
-34.81
-29.6067
-32.6348
-32.359
-88.7121
81.4773
-8.03201
29.5706
-106.36
-50.5764
-39.4466
-29.6773
-31.1684
-28.9999
-35.9913
-34.6347
-92.8211
73.5406
-116.69
128.107
-65.9058
-65.4599
-36.0553
-29.0102
-45.245
-30.1527
-36.0024
-32.369
-2.11714
37.1812
-110.506
98.5829
-75.5053
-29.5576
-30.6688
-28.3057
-47.4808
-29.2409
-46.7893
-34.4724
-51.2582
-44.7916
-28.1377
-30.0975
-43.5592
-30.3072
-42.0575
-32.6776
-37.9749
-37.1698
-29.4637
-30.806
-30.6964
-34.4079
-31.9501
-33.0311
-46.8389
-52.2941
-39.4752
-33.0832
-35.307
-55.36
-42.1888
-76.9825
-35.3727
-43.8385
-33.2592
-34.8202
-34.82
-50.7027
-56.6407
-47.5278
-38.3282
-41.6059
-40.801
-33.078
-34.8636
-31.6536
-31.3135
-39.3496
-26.283
-36.3566
-32.2437
-33.012
-32.1754
-31.16
-31.3736
-30.0812
-40.4896
-49.7758
-39.1675
-77.109
-52.5482
-40.8348
-43.1887
-60.4643
-30.4216
-43.3077
-56.321
-47.1584
-33.4495
-30.6534
-36.6592
-51.6266
-98.138
-103.995
170.623
114.954
-78.225
-77.0089
58.065
34.1386
-96.1353
-56.1897
-58.7318
-47.6219
-34.4878
-35.6841
-27.9788
-28.3701
-36.8217
-37.3382
-26.1958
-25.4509
-34.6572
-33.2654
-34.6776
-37.6061
-0.60899
2.20342
60.317
62.3795
-54.9224
-79.5811
-23.0347
-23.4457
-32.082
-31.9368
-25.9183
-26.6433
-34.9404
-33.7999
-40.0772
-34.712
-71.4308
-69.5946
120.206
173.596
-57.6751
-41.1416
-58.3243
-46.1827
-42.0622
-39.7208
-27.2556
-27.471
-32.3463
-35.5238
-35.9475
-33.5472
-56.1146
-39.8891
-19.3012
-13.8181
-30.6563
-39.8223
-34.5023
-39.8621
-27.6575
-27.0819
-30.549
-30.6407
-49.8606
-49.1727
-30.248
-31.5406
-44.1794
-44.6972
-32.1187
-32.4054
-30.0634
-31.385
-37.6572
-37.6129
-31.9059
-31.717
-33.6444
-33.6243
-32.5816
-32.3061
-67.2006
-65.1855
-19.9724
-19.4766
-80.2857
-79.5355
-66.6535
-66.9755
-42.7482
-42.7153
-33.5273
-32.5124
-31.3743
-31.2111
-35.8157
-35.4775
-40.6102
-38.2625
-32.9553
-30.9302
-25.6038
-26.044
-37.5644
-35.3056
-66.2285
-71.9043
-72.0464
-96.3887
-91.3366
-32.0746
-45.3911
-41.5069
-56.5039
-54.739
-40.276
-54.2875
-55.9714
-39.8735
-78.7267
-81.9122
-82.6903
-77.3377
-122.459
-112.377
-57.4166
-59.041
-100.689
-57.1899
-55.7993
-99.0452
-51.183
-45.5551
-40.0869
-40.0793
-34.3231
-42.1145
-40.6472
-35.0529
-87.685
-115.23
-61.1441
-58.7886
-84.3598
-54.7235
-60.242
-113.272
-39.6235
-41.4994
-47.7823
-43.9759
-42.2109
-47.6683
-48.5102
-41.9251
-22.1183
-51.614
-1.80648
3.31153
-57.0377
-28.8898
-13.143
-48.3113
-61.933
-36.756
-11.5165
-30.1397
-10.0033
10.8479
8.54952
-36.5291
81.2414
108.476
190.854
-60.6108
52.3413
31.4726
100.61
107.781
51.375
123.784
106.524
36.0551
82.0416
-59.877
171.469
122.534
-29.8053
-26.9079
-27.5194
-32.63
-30.4801
-30.0791
-27.614
-28.1022
-35.6646
-34.6639
-30.9872
-31.6861
-35.4861
-32.4457
-30.8118
-35.2494
-36.712
-41.0278
-32.9581
-32.8876
-44.9015
-41.5773
-36.6157
-40.4402
-35.909
-32.2473
-34.9178
-37.4216
-31.5241
-31.6487
-32.408
-31.5669
-31.5785
-33.5187
-31.3744
-29.4131
-32.4658
-31.0882
-31.7384
-33.6735
-31.6636
-32.5416
-31.5487
-30.7279
-31.5265
-29.8153
-31.2558
-32.4556
-56.7999
-53.8658
-76.3785
-75.1812
-48.82
-58.7851
-74.33
-51.6971
-49.1425
-53.0474
-75.5362
-59.0002
-62.214
-73.8565
-77.2381
-57.8472
-34.1938
-37.6259
-33.9467
-34.2424
-36.0921
-37.4008
-33.5675
-32.5795
-44.6283
-36.1558
-34.3206
-38.6877
-35.0931
-34.5098
-33.8041
-34.5124
-30.7953
-29.4709
-32.9029
-35.0609
-32.3979
-29.2935
-32.6387
-29.363
-44.533
-47.9906
-39.0197
-40.9389
-42.3541
-33.6074
-36.9825
-46.6258
-33.871
-32.7815
-34.7581
-37.5211
-33.5366
-38.9086
-34.4518
-32.7556
-34.7819
-34.7172
-35.9514
-33.335
-34.7042
-33.4094
-37.202
-33.8366
-45.233
-41.281
-39.3486
-46.9245
-33.8975
-30.0265
-34.1106
-35.9707
-33.0512
-36.1462
-34.0043
-29.8928
-44.6925
-46.8403
-39.2652
-41.0281
-31.978
-27.3425
-25.1024
-29.7781
-32.2197
-29.515
-23.9659
-26.7439
-30.2313
-26.0167
-24.891
-29.3225
-31.0455
-29.7525
-26.1963
-26.8182
-43.0094
-142.484
-137.354
-44.8779
-39.6337
-35.104
15.1439
1.37155
-46.5832
-39.3103
-36.9389
-40.6499
-141.678
-65.7554
-134.324
-40.4796
-45.9516
-41.0623
20.3629
7.11602
-68.8632
-35.7028
-36.9223
-39.0954
-38.5496
-31.048
-32.9512
-32.9911
-33.6227
-31.1826
-31.7241
-32.8193
-42.5414
-39.7069
-40.664
-50.4403
-38.1006
-36.807
-39.6221
-44.0905
-37.0442
-32.6752
-32.1927
-35.3926
-32.8058
-31.5422
-32.0735
-31.3021
-51.2996
-57.0593
-49.3873
-49.6995
-38.5624
-44.0305
-35.6365
-40.4871
-2.09147
26.3535
7.84956
85.8386
-64.1064
-61.3191
-123.174
-76.3314
-60.3457
-52.2816
-71.8693
-53.5366
-40.5066
-39.9294
-40.9889
-31.3917
-29.606
-29.6784
-31.3544
-27.6157
-31.1798
-34.9912
-31.0526
-32.3722
16.728
13.0603
15.5304
20.2316
-68.5864
-59.2848
-64.4079
-59.8453
-28.9386
-28.7636
-28.8721
-26.8929
-38.214
-38.9312
-35.4609
-38.7647
-13.4812
-29.709
-110.882
101.46
-50.3306
-44.2673
-47.9834
-47.6455
-37.4529
-36.3134
-45.3093
-30.6558
-31.5163
-33.5828
-32.3631
-30.9644
-53.3501
-44.0634
-48.215
-51.4223
-40.7132
-40.4943
-39.537
-39.4847
-27.6591
-27.9797
-27.6307
-28.8215
-34.1829
-35.9341
-36.467
-33.4775
-36.7045
-36.6803
-39.3598
-35.1958
-32.5712
-32.7569
-31.857
-33.0529
-32.2869
-32.3099
-32.3347
-32.557
-40.6479
-38.7114
-38.1589
-48.2955
-45.8112
-45.2766
-37.3314
-63.3022
-52.631
-52.6607
-56.2327
-49.9486
-31.3963
-31.7058
-31.2475
-30.6815
-44.1637
-47.5496
-47.871
-47.1793
-30.2174
-30.7078
-31.0506
-29.8259
-44.5815
-43.6081
-41.5933
-50.8587
-76.1486
-67.9508
-65.2367
-60.0794
-50.3219
-46.8035
-46.3152
-43.0957
-56.7634
-53.6285
-53.4382
-50.6734
1.47682
-6.37408
-4.44568
-7.7989
189.996
207.129
130.765
195.986
-27.8955
-28.7136
-28.9391
-29.9922
-32.9115
-35.2482
-32.863
-33.6782
-31.3609
-31.5759
-31.4528
-31.5217
-93.0868
-72.243
-89.2151
-95.8899
-34.3999
-33.6533
-34.144
-32.8068
-37.3961
-33.964
-34.7177
-31.9644
-35.8786
-35.3505
-35.0027
-34.8995
-35.2689
-36.5237
-36.4613
-37.9625
-22.9391
-21.9534
-22.7079
-22.5358
0.844274
7.16723
-17.1189
94.144
-123.226
-81.045
-114.103
18.6708
-90.2478
-75.6332
-84.9427
-73.9497
-43.4444
-41.6676
-40.106
-32.369
-34.4907
-31.5129
-34.1544
-31.3186
-31.9437
-31.576
-32.1443
-31.9167
21.9399
32.868
-49.3295
63.0883
7.57062
10.9973
0.0301231
19.738
-62.3727
-83.5253
-98.9044
-64.1736
-38.1387
-38.6243
-43.8392
-31.5521
-32.2799
-30.1718
-30.6139
-30.114
-38.1544
-36.9468
-36.0443
-35.7022
-116.854
-72.8737
-114.551
-52.1442
-1.14922
-13.194
-118.029
87.9932
-78.7791
-60.08
-65.148
-65.0917
-35.3088
-31.0955
-34.9583
-30.7167
-42.5648
-40.0193
-48.7778
-32.1914
-33.4704
-32.8854
-34.4928
-32.4305
15.1855
14.8702
5.12574
29.8005
-11.2129
-31.2017
-110.146
65.1199
-66.7271
-72.4891
-79.3021
-49.0631
-31.4919
-29.4851
-29.7842
-29.7312
-35.8343
-35.8977
-41.1279
-30.7719
-38.8725
-40.1371
-46.7936
-36.1885
-44.5931
-47.2009
-51.5842
-44.6441
-29.9333
-28.4165
-28.4119
-29.5006
-32.9195
-33.5062
-36.765
-31.2862
-33.8664
-35.9193
-38.6715
-33.448
-36.6856
-39.8143
-38.1442
-37.9496
-30.0798
-29.4189
-29.0088
-30.2739
-32.3595
-32.5558
-31.5645
-33.405
-32.6048
-32.2472
-31.843
-32.7625
-43.9398
-50.0732
-45.6526
-53.2589
-36.8339
-35.3726
-37.0353
-33.8747
-40.7574
-40.6343
-38.1933
-49.7561
-67.2964
-47.2889
-47.7015
-69.3667
-36.4282
-37.3518
-35.2753
-41.3942
-35.0014
-33.7197
-34.1519
-34.5228
-40.5753
-38.874
-36.8452
-46.8079
-50.1395
-52.1274
-54.4199
-49.9726
-40.3544
-41.1065
-39.0117
-40.7815
-34.0339
-36.0239
-37.3647
-34.1966
-33.4514
-32.3661
-33.9273
-31.9086
-40.6311
-43.039
-37.0623
-40.3939
-31.8567
-39.7194
-28.2958
-36.4051
-32.5301
-32.2463
-32.2805
-32.9134
-31.8351
-30.8949
-32.1468
-30.8122
-31.1895
-30.2859
-31.3551
-30.4988
-53.0985
-35.5875
-45.7616
-53.7905
-70.1935
-46.5895
-46.8049
-65.8067
-47.0657
-47.2915
-50.0038
-43.9923
-48.5985
-47.0438
-45.6716
-55.4611
-36.237
-36.325
-32.0894
-40.5942
-49.7976
-51.8995
-54.1868
-49.4607
-33.2742
-31.665
-32.9308
-31.6898
-41.7624
-43.6403
-38.9894
-47.9287
-80.4171
-99.151
-101.092
-102.669
152.591
181.073
178.193
137.003
-91.0109
-68.7987
-78.3472
-78.7621
-42.0531
128.423
48.9243
44.5195
-73.3681
-71.1207
-80.9011
-61.9182
-52.1839
-53.2029
-55.1907
-49.6756
-36.781
-34.4122
-34.8314
-35.4683
-28.7236
-26.533
-27.8651
-27.9585
-35.4771
-37.4072
-36.9953
-37.1075
-25.1123
-23.8863
-25.2556
-24.4678
-32.2373
-32.9514
-32.7931
-33.3378
-34.7266
-35.37
-34.7219
-36.1368
8.7796
14.6095
4.87672
3.20932
49.2574
79.7153
58.4192
57.6705
-61.2883
-62.564
-57.9385
-69.5158
-36.6621
-12.8685
-21.6823
-22.5986
-30.7454
-32.8294
-31.8287
-31.7318
-25.3004
-25.6975
-25.3822
-25.7946
-35.339
-34.6724
-35.5827
-33.6104
-37.5517
-36.6222
-38.6188
-35.76
-76.8652
-63.8514
-71.4318
-70.394
167.354
184.492
166.581
191.105
-47.387
-46.9653
-51.5711
-43.7079
-49.4586
-52.0099
-53.9115
-48.1793
-43.3761
-39.2412
-41.5433
-40.4012
-28.2251
-25.4115
-27.0018
-27.187
-32.3109
-33.3264
-31.3885
-35.3129
-32.1028
-33.9401
-34.1527
-33.0977
-46.313
-46.0091
-50.5568
-42.723
-25.3075
-6.54733
-15.7031
-12.5148
-37.7707
-36.3654
-33.1692
-38.7276
-37.3796
-36.5786
-35.5581
-38.3793
-27.169
-27.3105
-26.4023
-27.6587
-29.8819
-30.7946
-30.3901
-30.4275
-46.6129
-53.2107
-49.3431
-48.5885
-30.7136
-29.9678
-29.1226
-30.5535
-43.6279
-46.4045
-44.5937
-44.8632
-33.1018
-32.0652
-32.3674
-32.5089
-30.5808
-30.1146
-30.0082
-30.9154
-36.2215
-35.8079
-37.5148
-37.4525
-32.396
-31.7496
-31.9693
-31.8954
-33.1523
-34.0583
-33.6054
-33.5748
-33.7001
-31.781
-32.7578
-32.3716
-58.0891
-76.9004
-65.9233
-65.5862
-23.3099
-15.0203
-18.8548
-18.8381
-85.1002
-68.6287
-79.1615
-79.3109
-64.9111
-74.6243
-68.6981
-68.9667
-45.0901
-41.1449
-42.9107
-42.8782
-31.0928
-31.4772
-31.8117
-29.8639
-30.9334
-31.2933
-31.1815
-31.0813
-31.96
-37.8037
-35.8694
-35.2838
-38.9726
-34.8949
-40.1259
-37.4929
-31.9003
-32.4311
-32.2744
-31.8215
-27.7511
-28.0267
-25.5844
-25.6465
-38.6936
-36.0915
-37.0748
-36.1498
-61.0256
-78.5765
-68.0998
-71.1442
-52.9745
-57.8575
-87.878
-106.76
-51.1193
-48.8437
-54.2918
-50.5793
-48.4095
-43.0483
-50.8746
-49.5478
-96.0627
-105.555
-104.473
-89.4867
-81.1796
-67.5989
-71.1065
-65.4988
-73.9698
-71.26
-69.1255
-62.9074
-35.7403
-42.4452
-37.8851
-35.5007
-37.1594
-33.9994
-38.8651
-35.8117
-80.174
-71.9822
-75.9207
-65.4172
-79.2379
-66.9315
-74.7483
-63.8699
-42.1283
-42.0675
-44.3654
-43.6422
-44.4978
-43.2208
-45.664
-44.5626
-17.1034
-38.6429
-11.7114
-24.6416
-42.4571
-34.272
-25.2454
-22.0885
-37.1859
-31.4315
-22.4503
-21.6982
-5.7372
-16.907
-2.81302
-11.7664
141.163
153.456
161.965
117.853
83.701
53.4997
106.155
63.9923
59.2949
96.3237
67.3739
91.4361
162.124
151.387
84.3514
173.283
-28.53
-30.0579
-29.5449
-31.1358
-29.759
-30.0031
-28.6471
-29.9734
-32.9363
-33.8506
-32.2257
-32.8161
-32.4972
-32.8947
-31.7856
-32.5055
-36.8977
-38.5058
-37.4236
-41.0033
-39.9106
-41.3152
-38.5196
-38.1225
-34.326
-35.466
-34.0961
-34.8754
-31.7862
-30.9735
-32.1452
-30.6243
-30.6225
-31.937
-30.8504
-31.7582
-32.4981
-31.7414
-32.1957
-31.6375
-31.8693
-31.3679
-31.7257
-31.3609
-31.2053
-31.9796
-30.9683
-31.4975
-61.8876
-76.4643
-68.9186
-79.4399
-54.5415
-58.5821
-63.4317
-63.9391
-58.5919
-55.8445
-64.5042
-64.0537
-78.9777
-67.8353
-79.8584
-74.3827
-37.5813
-35.8412
-37.7002
-37.6248
-35.1036
-33.3133
-34.1961
-32.9793
-37.5147
-36.2833
-35.8335
-35.4445
-36.4124
-35.4093
-36.0426
-37.8646
-27.1445
-28.9895
-28.5688
-26.5766
-28.7063
-29.442
-28.955
-26.5818
-47.1983
-45.6911
-42.97
-41.7842
-40.7458
-37.2293
-39.0719
-36.5577
-35.5227
-33.6247
-34.6209
-33.8039
-35.242
-33.685
-35.0676
-33.8026
-36.8042
-33.3844
-34.935
-34.6533
-36.2057
-35.0596
-37.3689
-36.7247
-44.794
-45.6122
-41.7517
-43.0384
-32.0156
-33.6523
-32.4433
-33.7856
-31.6273
-33.338
-32.2296
-33.5456
-44.1652
-45.0652
-41.4313
-42.8511
-29.1412
-28.7867
-28.1503
-27.4761
-28.3473
-28.7844
-26.9568
-27.6026
-27.6325
-28.4444
-26.8966
-28.3093
-29.1103
-28.3981
-28.7986
-27.6235
-56.4924
84.6428
-113.171
4.7126
-91.2314
-92.4488
-38.4637
-34.6809
-40.2493
-33.8451
-34.9239
-32.9004
-59.7091
48.4731
-8.91156
31.0007
-58.5688
-26.6714
-44.3407
-32.3706
-34.1215
-32.3152
-45.5783
-35.6852
-110.303
25.4969
-86.5301
58.2512
-118.528
-89.5531
-38.96
-34.3351
-47.9459
-34.6544
-39.0952
-34.8985
3.21634
39.3543
-115.156
53.6454
-85.9763
-18.6183
-32.5055
-31.3469
-40.3765
-31.8554
-42.5724
-34.9184
-46.2127
-42.6722
-30.3154
-31.1716
-37.3625
-31.1054
-37.7925
-32.0982
-34.8875
-34.3597
-30.5095
-31.3875
-31.1374
-33.5295
-31.671
-33.1768
-41.708
-50.2467
-39.2258
-36.5718
-37.9158
-50.0886
-57.3248
-56.7824
-35.4442
-42.4294
-35.4156
-35.2403
-37.6727
-45.7431
-47.8453
-46.1051
-37.7059
-39.5673
-35.4663
-33.2143
-35.402
-32.7561
-34.6606
-37.3942
-31.4362
-35.0136
-31.6679
-32.9054
-31.4343
-31.2646
-31.4038
-31.4841
-51.7695
-56.9147
-65.2965
-63.0108
-49.6474
-46.9971
-47.0067
-56.8887
-34.7172
-41.7792
-47.6693
-45.5725
-35.0779
-33.0958
-38.2072
-46.4522
4.92945
67.2304
-19.6267
70.1712
-40.9072
-71.978
149.316
123.74
-108.118
-85.0528
-113.18
-78.9659
-114.603
-116.024
-61.1302
-56.4587
-97.48
-60.2105
-55.2075
-48.2906
-82.4596
-63.6204
-55.2784
-49.7711
-40.492
-31.8505
-41.891
-31.1133
-38.2597
-38.4881
-29.5833
-29.4221
-31.987
-28.6516
-32.4227
-28.8553
-33.696
-33.4633
-26.3745
-25.7509
-32.1666
-31.0446
-39.5304
-39.1509
-33.9317
-32.2443
-32.8588
-33.3362
7.06354
22.4546
14.7512
25.7973
10.7403
21.1685
32.5313
35.3981
-78.7448
-63.5069
-55.4879
-52.2388
-58.675
-66.9745
-51.3782
-49.1455
-29.2422
-28.1555
-28.9551
-27.4983
-29.8442
-29.7965
-25.3505
-25.7477
-37.2794
-36.5835
-35.8372
-41.4353
-35.8945
-34.4252
-39.4902
-36.9581
-124.523
82.5838
-112.659
82.7726
-110.873
-102.293
134.097
100.747
-58.742
-54.3405
-42.511
-43.2578
-52.668
-44.234
-50.9309
-45.715
-47.4447
-31.2009
-42.6059
-30.4696
-47.7036
-47.1335
-29.3267
-29.1232
-33.022
-31.3231
-38.0732
-38.6141
-32.3905
-33.2388
-33.9239
-32.5548
-57.247
-50.4862
-40.1406
-41.1525
-51.4188
-43.4671
-40.6369
-36.2699
-41.3592
-37.7694
-33.3562
-40.9086
-34.7756
-39.3491
-37.0836
-39.5277
-27.1869
-28.7683
-28.3662
-29.3393
-26.6156
-27.8569
-29.2648
-29.4504
-36.3287
-32.4585
-37.7722
-33.6637
-41.2367
-40.2008
-33.1499
-32.3264
-39.1776
-34.9226
-38.8423
-35.0106
-41.8006
-42.0227
-33.7568
-33.835
-31.1279
-33.3784
-32.532
-33.6047
-30.4681
-31.3043
-33.9178
-34.3915
-32.2094
-32.5084
-32.2621
-32.5032
-32.595
-32.5454
-32.7762
-32.7837
-37.7892
-49.1894
-36.6686
-47.7006
-34.9348
-35.4281
-53.0489
-52.1054
-36.77
-59.023
-36.813
-57.2847
-28.2174
-29.4888
-81.0521
-79.9496
-55.1125
-49.4029
-55.3418
-49.4414
-59.8453
-60.0157
-47.2608
-47.1628
-32.2362
-31.2401
-30.866
-30.3156
-31.5496
-30.6527
-30.8109
-30.6221
-44.1059
-42.3512
-53.1819
-44.3783
-41.1256
-36.8347
-40.4692
-40.1564
-30.9272
-29.5935
-31.6271
-30.2758
-31.9015
-31.4456
-29.1531
-29.1517
-43.9325
-53.2761
-39.4357
-49.3881
-40.761
-38.0457
-53.9904
-56.4657
-88.7654
-84.293
-79.5657
-60.5708
-58.6772
-72.8867
-56.5986
-56.1912
-56.8763
-56.1147
-50.8626
-43.6407
-50.6373
-42.5475
-40.1315
-40.3941
-61.0481
-61.1031
-56.8511
-50.7813
-55.9488
-49.9487
-48.2846
-48.5323
7.08729
11.0462
-7.68303
-10.8028
-8.9483
2.942
-11.0924
-10.8027
207.66
138.946
201.14
195.727