# vtk DataFile Version 2.0
tri_press
ASCII
DATASET UNSTRUCTURED_GRID
POINTS 3682 float
-0.795 0.145 -1.87496
-0.822989 0.195 1.725
-0.721041 0.535 -1.905
-0.705 0.945 1.81687
0.795 0.145 -1.8749
0.827733 0.205 1.735
0.715 0.539745 -1.905
0.705 0.945081 1.815
-0.767006 0.198991 -0.674973
-0.801392 0.190601 0.525013
-0.833674 0.789647 -0.664377
-0.813607 0.911594 0.576247
0.771807 0.199104 -0.6716
0.809739 0.192083 0.5317
0.830782 0.793972 -0.665
0.811021 0.912656 0.575
-1.59674 -0.230247 -2.85907
-1.58526 -0.130189 -1.88254
-1.56798 -0.0907667 -0.683308
-1.57193 -0.121364 0.507771
-1.57728 -0.131689 1.70633
-1.58347 -0.10356 2.67955
-1.5898 -0.0567228 3.65905
-1.59311 0.0204247 -2.86019
-1.58536 0.141986 -1.87927
-1.57663 0.217655 -0.672564
-1.57893 0.215766 0.530329
-1.5704 0.215626 1.73625
-1.58318 0.244505 2.70986
-1.59404 0.289546 3.68806
-1.56636 0.491486 -2.87328
-1.55139 0.607381 -1.89364
-1.613 0.809655 -0.659309
-1.5877 0.914389 0.577675
-1.51158 0.947476 1.81096
-1.55583 0.96964 2.78105
-1.59201 1.0028 3.75169
-1.55525 1.36327 -2.86423
-1.55426 1.4983 -1.87893
-1.58356 1.7129 -0.631807
-1.59985 1.89027 0.623566
-1.59222 1.98758 1.86969
-1.59541 2.02976 2.85292
-1.6091 2.06316 3.82789
-0.813261 -0.229175 -2.85615
-0.796908 -0.125065 -1.8782
-0.772931 -0.0981224 -0.682742
-0.781589 -0.140278 0.504489
-0.795935 -0.149424 1.6997
-0.805895 -0.117034 2.67543
-0.811694 -0.066412 3.65721
-0.814754 0.0129545 -2.85913
-0.81879 0.232761 2.70616
-0.821569 0.28101 3.68678
-0.789535 0.458441 -2.87788
-0.795816 0.96499 2.7824
-0.825505 0.998376 3.75268
-0.765953 1.33939 -2.86872
-0.757555 1.47517 -1.88393
-0.785882 1.70416 -0.634712
-0.813844 1.89342 0.624271
-0.818558 1.99227 1.87285
-0.824259 2.03255 2.85618
-0.836471 2.06436 3.83054
0.760676 -0.227962 -2.8555
0.783934 -0.124606 -1.87729
0.78835 -0.0975833 -0.679648
0.818852 -0.138284 0.510226
0.825122 -0.142964 1.70736
0.782905 -0.111915 2.68111
0.759233 -0.0626999 3.66135
0.747743 0.0144489 -2.85878
0.756603 0.23806 2.71153
0.739849 0.284628 3.69059
0.732153 0.461451 -2.87771
0.710252 0.967403 2.78403
0.713275 1.00104 3.75509
0.79784 1.34222 -2.86835
0.815793 1.47813 -1.88367
0.810454 1.70674 -0.634523
0.770753 1.89518 0.624452
0.731701 1.99369 1.87324
0.717217 2.03416 2.85708
0.710228 2.06625 3.83196
1.55369 -0.227389 -2.85753
1.5768 -0.128103 -1.88045
1.5849 -0.0887451 -0.678323
1.60845 -0.117546 0.516534
1.60867 -0.123123 1.71753
1.57537 -0.0952911 2.68915
1.54968 -0.0499297 3.66676
1.54289 0.0238153 -2.85918
1.57861 0.144608 -1.87817
1.58405 0.219908 -0.66851
1.59838 0.218934 0.538154
1.58715 0.224385 1.74681
1.55012 0.252682 2.71867
1.52932 0.296144 3.69516
1.52682 0.496852 -2.87272
1.54786 0.613573 -1.89346
1.61469 0.814889 -0.658694
1.59068 0.916927 0.579042
1.51013 0.950445 1.81303
1.49652 0.974403 2.78506
1.49662 1.00792 3.75652
1.58139 1.36867 -2.86335
1.5997 1.50384 -1.87822
1.60296 1.71776 -0.631115
1.56595 1.89386 0.624394
1.519 1.99064 1.87098
1.49894 2.03314 2.85505
1.49115 2.06699 3.83088
-0.708525 0.34 -1.84048
0 0.141203 -1.87873
-0.803172 0.149826 -1.27497
-0.812886 0.57 1.81983
0.002372 0.221165 1.70883
-0.816032 0.188959 1.12501
-0.00302052 0.56902 -1.93665
-0.839681 0.724647 -1.28469
0 1.00973 1.88062
-0.789283 0.958276 1.19656
0.706162 0.342372 -1.84111
0.805207 0.150249 -1.27325
0.811519 0.57504 1.82015
0.82485 0.192428 1.13335
0.836316 0.730284 -1.285
0.787687 0.958545 1.195
-0.793831 0.185163 -0.07498
-0.867892 0.494319 -0.669675
0.00240068 0.183672 -0.673287
-0.873554 0.551097 0.55063
0.0041739 0.207051 0.528357
-0.83192 0.858899 -0.044065
-0.00144623 1.01441 -0.664688
-0.00129322 1.37512 0.575623
0.79963 0.186737 -0.06995
0.866077 0.496538 -0.6683
0.872003 0.55237 0.55335
0.828951 0.861364 -0.045
-0.868894 0.417159 -1.27983
0.868876 0.419455 -1.27913
0.00120034 0.175529 -1.27411
-0.00223338 0.847926 -1.28484
-0.00151026 0.341186 -1.78119
-0.874489 0.522708 -0.0595225
0.872877 0.524454 -0.057475
0.00328729 0.198358 -0.072465
-0.00136973 1.32464 -0.0445325
-0.864813 0.560549 1.16078
0.865352 0.563705 1.16418
0.00327295 0.209742 1.12918
-0.000646612 1.35248 1.19578
0.001186 0.57252 2.06519
-0.728801 0.2425 -1.83476
-0.3975 0.141209 -1.87874
-0.801112 0.145387 -1.57496
-0.807133 0.3825 1.76161
-0.410308 0.229231 1.69577
-0.819437 0.192053 1.425
-0.722577 0.4375 -1.88054
-0.362031 0.576379 -1.94519
-0.806139 0.655602 -1.59484
-0.772805 0.7575 1.83221
-0.3525 0.993967 1.86535
-0.762619 0.967115 1.50671
0.3975 0.141205 -1.87871
0.727258 0.243686 -1.83468
0.802227 0.145501 -1.57408
0.415052 0.223084 1.71192
0.807142 0.39002 1.76509
0.824483 0.200522 1.43418
0.35599 0.57845 -1.94489
0.725632 0.441059 -1.88811
0.801396 0.660752 -1.595
0.3525 0.994228 1.86463
0.771766 0.760061 1.83108
0.761416 0.966885 1.505
-0.806133 0.153364 -0.97497
-0.775656 0.196839 -0.374977
-0.871714 0.319522 -0.672324
-0.38775 0.180436 -0.67413
-0.80614 0.192352 0.82501
-0.79772 0.187774 0.225017
-0.873609 0.352781 0.537822
-0.394522 0.207 0.526685
-0.833367 0.753836 -0.974533
-0.85876 0.645971 -0.667026
-0.834201 0.825677 -0.354221
-0.460056 0.987021 -0.664533
-0.800854 0.934343 0.886403
-0.862346 0.740728 0.563438
-0.823288 0.885771 0.266091
-0.507435 1.34333 0.575935
0.809289 0.153894 -0.972425
0.392494 0.180608 -0.672443
0.781826 0.196812 -0.370775
0.870242 0.322171 -0.66995
0.814401 0.195148 0.832525
0.40355 0.206381 0.530028
0.804963 0.189131 0.230875
0.872018 0.356652 0.542525
0.830173 0.758752 -0.975
0.456342 0.987541 -0.664844
0.856776 0.649428 -0.66665
0.831505 0.829306 -0.355
0.798916 0.935163 0.885
0.504739 1.34364 0.575312
0.860708 0.742111 0.564175
0.820624 0.887648 0.265
-0.854678 0.37858 -1.56016
-0.355018 0.340593 -1.78076
0.000600169 0.149524 -1.57642
-0.000755131 0.241195 -2.00195
-0.857278 0.283493 -1.2774
-0.400986 0.156603 -1.27454
-0.86139 0.565274 1.4903
-0.40585 0.57126 2.03327
0.00282247 0.212854 1.41901
0.001779 0.396843 2.03953
-0.854678 0.374754 1.14289
-0.40638 0.215469 1.12709
-0.00262695 0.779237 -1.61075
-0.00226539 0.455103 -2.06497
-0.874881 0.570903 -1.28226
-0.420957 0.832427 -1.28477
-0.000323306 1.21972 1.5382
0.000592999 0.791123 1.9648
-0.857275 0.759412 1.17867
-0.394965 1.33478 1.19617
0.856611 0.380914 -1.56012
0.352326 0.341779 -1.78076
0.857255 0.284852 -1.27619
0.403204 0.156617 -1.27368
0.865875 0.569373 1.49216
0.406353 0.57378 2.03327
0.857237 0.378066 1.14876
0.414061 0.209967 1.13126
0.874827 0.57487 -1.28206
0.417041 0.832612 -1.28492
0.855513 0.761125 1.17959
0.39352 1.33487 1.19539
-0.877626 0.332203 -0.0672512
-0.391449 0.199406 -0.0737225
-0.865999 0.455739 -0.974751
-0.870387 0.508513 -0.364599
0.00180051 0.16995 -0.973698
0.00284398 0.191194 -0.372876
-0.873297 0.536903 0.245554
-0.872438 0.555823 0.855706
0.0037306 0.204769 0.227946
0.00372343 0.213477 0.828768
-0.863203 0.695803 -0.0517937
-0.516814 1.29211 -0.0442987
-0.0018398 0.901747 -0.974766
-0.00140798 1.17907 -0.35461
-0.00133148 1.36606 0.265545
-0.000969918 1.37547 0.885701
0.876539 0.335452 -0.0637125
0.398027 0.19941 -0.0712075
0.868306 0.457997 -0.973713
0.868786 0.510496 -0.362888
0.871493 0.538412 0.247938
0.870933 0.558037 0.858763
0.861514 0.698209 -0.0512375
0.513671 1.29276 -0.0447662
-0.849199 0.262996 -1.56756
-0.862848 0.315074 -0.974861
-0.865421 0.606443 -0.974642
-0.852622 0.504202 -1.5775
0.857533 0.264269 -1.5671
0.853198 0.507964 -1.57756
0.866077 0.610062 -0.974356
0.863819 0.316336 -0.973069
-0.399243 0.148289 -1.57569
0.400352 0.148288 -1.57525
0.395154 0.16435 -0.973061
-0.391644 0.164331 -0.974334
-0.391494 0.762629 -1.6028
-0.419259 0.895611 -0.974649
0.415855 0.895698 -0.974883
0.386516 0.763114 -1.60287
-0.376259 0.241847 -1.96917
-0.358524 0.446302 -2.02665
0.354158 0.448081 -2.03079
0.374913 0.242441 -1.96881
-0.874654 0.32587 -0.369788
-0.878679 0.340961 0.235285
-0.864389 0.719073 0.255822
-0.862264 0.671528 -0.35941
0.873437 0.328788 -0.366831
0.860325 0.674408 -0.358944
0.86258 0.720894 0.256469
0.877611 0.344386 0.239406
-0.389562 0.189997 -0.373926
0.395188 0.190155 -0.371825
0.400233 0.204005 0.22941
-0.390362 0.20845 0.226481
-0.490843 1.14438 -0.354416
-0.518429 1.33033 0.265818
0.515396 1.33058 0.265273
0.487179 1.1445 -0.354805
-0.871485 0.372801 0.840358
-0.848913 0.378627 1.45765
-0.840981 0.758456 1.49851
-0.860829 0.745379 0.871054
0.870008 0.375146 0.845644
0.859153 0.746819 0.871881
0.83904 0.760593 1.49858
0.851577 0.384043 1.46317
-0.402494 0.217526 0.826889
0.410509 0.214182 0.830646
0.414557 0.213107 1.42659
-0.408344 0.219179 1.422
-0.401207 1.35448 0.886052
-0.373732 1.1735 1.52246
0.37301 1.17385 1.5216
0.399192 1.35456 0.885351
-0.408079 0.389671 1.99374
0.410703 0.393432 1.9929
0.379426 0.775592 1.96279
-0.379175 0.774311 1.96312
-0.757603 0.19375 -1.85056
-0.59625 0.14122 -1.87873
-0.79881 0.14444 -1.72496
-0.817213 0.28875 1.74546
-0.616649 0.217547 1.70495
-0.816394 0.198345 1.575
-0.733858 0.48625 -1.90482
-0.541536 0.555344 -1.92475
-0.739968 0.571678 -1.74992
-0.751801 0.85125 1.83744
-0.52875 0.9796 1.85123
-0.740747 0.962995 1.66179
0.59625 0.141217 -1.87869
0.756447 0.194343 -1.85011
0.799422 0.144442 -1.72449
0.621393 0.220976 1.71652
0.815874 0.29751 1.74848
0.833781 0.195088 1.58459
0.535495 0.556603 -1.92245
0.729966 0.490402 -1.9062
0.732495 0.574546 -1.75
0.52875 0.97976 1.84992
0.751396 0.852571 1.83605
0.739858 0.962634 1.66
-0.807351 0.155395 -0.824972
-0.772934 0.196312 -0.524975
-0.873034 0.232419 -0.673649
-0.575926 0.192617 -0.674552
-0.804478 0.190764 0.675012
-0.79977 0.188973 0.375015
-0.874223 0.253329 0.531418
-0.597904 0.198907 0.525849
-0.832582 0.770803 -0.819455
-0.850345 0.719873 -0.665701
-0.836724 0.810448 -0.509299
-0.676266 0.947137 -0.664455
-0.806567 0.922305 0.731325
-0.85286 0.833603 0.569843
-0.818215 0.898449 0.421169
-0.680318 1.16705 0.576091
0.810728 0.15632 -0.822013
0.580403 0.193352 -0.672022
0.778564 0.196211 -0.521188
0.871737 0.235281 -0.670775
0.812244 0.193441 0.682113
0.607162 0.198197 0.530864
0.807131 0.190827 0.381288
[...]
POINT_DATA 3682
SCALARS point_scalars float 1
LOOKUP_TABLE default
-107.219
-59.9254
19.4159
-40.4327
-107.017
-58.9043
17.7402
-40.1738
-39.9783
-35.3615
-53.3607
-51.7736
-39.7025
-35.8707
-53.3919
-51.7408
-6.50269
-93.8615
-54.9454
-37.1949
-59.5755
-48.5215
-46.6293
-6.50269
-114.128
-44.0448
-38.4606
-55.1737
-47.2487
-42.1209
12.2509
-76.08
-49.0082
-48.4734
-45.5748
-44.3463
-40.9314
12.7502
-52.2956
-76.3321
-60.9693
-42.8935
-40.2039
-39.8902
-38.1071
-153.744
-53.5733
-35.6432
-53.2417
-46.0366
-43.5824
-38.1071
-44.4194
-41.4891
157.137
-39.3728
-40.3117
79.5594
-35.2914
-45.6608
-62.6219
-39.3848
-37.4051
-37.6861
-37.695
-152.919
-54.3569
-35.6575
-55.633
-45.9256
-43.4886
65.2931
-41.6547
-41.4351
161.421
-38.9494
-40.2024
80.0648
-36.9974
-51.1029
-62.6772
-38.3794
-36.9208
-36.3756
-5.34874
-93.3595
-53.6211
-38.4448
-53.5483
-48.3899
-46.5057
-5.34874
-114.088
-43.898
-39.0985
-55.9107
-47.0506
-41.6946
12.6292
-71.3059
-49.1646
-48.3369
-45.0064
-44.1705
-40.81
-4.88314
-53.617
-76.9745
-61.1071
-42.7751
-39.9823
-39.6319
-5.19255
-159.315
-60.9765
-49.8078
-48.1931
-40.1791
95.4172
-59.3653
-31.9778
-47.6648
-4.98063
-60.8938
-49.4738
-40.8846
-58.3372
-47.547
-33.2401
-43.5034
-43.7382
-42.6414
-35.6079
-57.7823
24.6918
-73.0271
-32.7491
-43.268
-42.5254
-57.9752
-65.6522
-66.2694
-67.7168
-10.2936
195.611
-43.545
-43.4813
-35.8094
-101.733
-43.4195
-43.45
-40.4813
-48.4013
-38.2337
-16.7592
-175.937
-87.1175
-54.8827
-49.8065
-43.8749
10.0631
62.205
-48.5914
-45.483
-34.9121
-45.1495
-175.833
-17.0419
-87.6196
-49.884
-54.4176
-43.7994
63.2264
15.9848
-46.6408
-34.6615
-45.1891
-45.0369
-48.4173
-35.1259
-42.6748
-42.9262
-37.8955
-35.2319
-40.0252
-35.7215
-51.4581
-46.197
-57.9545
12.8965
-48.8485
-46.3698
-55.0901
-66.5242
-48.537
-42.6209
-33.8279
-42.4647
-37.129
-35.6627
-35.218
-39.9915
-52.0447
12.9014
-46.117
-58.0839
-48.7653
-66.3203
-46.2669
-54.9413
-97.829
186.868
-94.5554
179.602
-64.8588
-66.2619
-47.938
-40.5421
-43.7921
-41.3272
-41.7902
-40.4611
-30.8643
201.515
-68.1373
-16.0074
-34.6259
-35.9536
-45.4576
-50.2699
-97.8714
186.795
-64.926
-66.118
-48.1121
-40.3308
-41.8906
-40.5806
-68.4766
-16.0289
-45.3889
-50.1603
-39.3378
-35.289
-49.5343
-42.8842
-52.6474
-38.4628
-43.3638
-43.2965
-34.7032
-36.3791
-49.1681
-99.041
7.77828
-4.31639
-90.1108
-60.5337
-39.2968
-35.2745
-50.3059
-42.7055
-43.2167
-42.9831
-49.1044
-99.3423
-101.082
-49.1423
-50.8612
-84.2815
-103.233
-83.1099
-51.7025
-49.7364
-92.4047
-92.4385
-51.9061
-51.9521
-28.96
-1.42863
-1.4013
-28.6484
174.83
189.454
190.699
176.921
-39.1896
-39.8727
-48.1437
-48.6832
-38.8955
-48.6098
-48.043
-39.8595
-37.6518
-37.4829
-34.7671
-34.5894
-17.9271
-81.9629
-82.0174
-17.7052
-41.8393
-46.7395
-48.6755
-45.3398
-41.4377
-45.18
-48.7475
-46.8243
-36.1344
-36.1362
-44.297
-44.2858
-59.0135
-36.8418
-36.7106
-58.8381
-41.7479
-41.6402
-38.746
-39.026
-18.9783
-195.087
-126.63
-58.2495
-52.2432
-47.6931
22.9988
38.7762
-17.8162
-43.8897
-36.5682
-41.6755
-193.874
-18.3157
-126.525
-52.6046
-57.3606
-48.5975
40.3408
26.2167
-13.0613
-36.3319
-43.8289
-41.4565
-53.7722
-36.5043
-42.4999
-41.3552
-36.8817
-35.4168
-38.2954
-35.7351
-51.1181
-49.5318
-57.4995
-16.6575
-50.3678
-48.6686
-53.1165
-58.1173
-53.0494
-40.9888
-36.2428
-42.0277
-36.5438
-35.7367
-35.7408
-39.1954
-52.034
-15.8792
-49.5199
-57.7592
-50.3154
-57.9954
-48.5657
-53.1088
-17.6183
5.6312
-101.485
161.242
-157.94
-157.972
-112.318
74.0602
-70.8623
-53.5404
-63.8972
-64.0797
-52.1275
-47.7546
-52.6125
-40.8001
-48.7664
-48.8329
-45.861
-43.1109
-40.7648
-38.5611
-41.1975
-40.2945
89.7507
91.5359
-44.4386
157.65
-60.4381
-55.9259
-69.2728
-25.0583
-32.9825
-32.7983
-32.7939
-33.5089
-47.7392
-48.0019
-46.7512
-50.9453
-17.1519
7.52247
-99.0149
162.111
-70.7954
-53.7732
-63.8541
-63.8538
-51.9271
-47.4787
-52.3242
-40.5881
-41.2818
-38.4957
-41.4258
-40.4906
-61.8791
-55.5264
-69.3769
-25.1185
-47.7362
-47.8956
-46.6881
-50.814
-34.8946
-35.3205
-37.1713
-33.9298
-42.7989
-44.5733
-44.9192
-42.8741
-43.5809
-43.5084
-48.1779
-40.5237
-41.0496
-44.4641
-42.5106
-42.74
-35.5491
-35.4999
-34.9403
-35.7015
-58.596
-56.7288
-52.7221
-81.7021
21.8731
21.9104
19.5044
16.0075
-72.0801
-72.0522
-81.7252
-66.068
-35.4242
-35.3449
-37.1326
-33.7146
-42.542
-44.4176
-45.4178
-42.5508
-40.9593
-44.3525
-42.4172
-42.539
-58.4826
-56.8603
-52.6822
-81.652
-77.072
-65.4015
-66.5087
-57.0585
-77.2373
-65.4887
-67.1015
-57.0198
-79.5247
-67.3415
-67.3211
-59.0423
-19.3994
-11.7772
-11.7663
-1.92571
193.053
200.444
195.671
193.07
-41.2706
-43.12
-44.0267
-46.0009
-41.2776
-43.0015
-43.9789
-45.937
-35.6621
-36.5803
-34.8254
-35.6363
-102.741
-43.4597
-99.3864
-102.693
-44.9804
-42.6538
-44.4037
-43.9472
-45.0518
-42.8135
-44.3671
-43.6291
-42.0536
-40.4011
-40.4379
-38.2741
-41.6404
-48.9579
-48.8833
-54.6646
-39.4339
-40.9313
-37.1691
-39.2633
-111.675
124.448
-112.348
26.257
-96.9626
-89.3588
-52.2961
-42.5125
-46.8239
-43.4745
-45.9526
-44.3395
-81.4967
151.938
-30.8785
165.019
-71.7186
-34.3071
-47.5756
-40.0308
-34.9715
-37.1261
-46.7905
-39.4269
-112.892
26.9937
-110.558
125.626
-98.8915
-89.1254
-47.0093
-43.2908
-52.7795
-42.3719
-45.8162
-44.6127
-31.4957
162.613
-77.7565
154.864
-70.7456
-33.8449
-34.8086
-36.7397
-47.2927
-39.821
-46.6736
-39.2949
-48.9009
-51.3108
-37.6169
-36.3636
-44.7359
-40.2129
-47.6792
-39.6692
-41.11
-36.1557
-37.719
-34.8274
-39.9314
-40.5711
-34.9114
-35.635
-52.6813
-16.104
-46.6448
-47.9215
-52.9678
-79.1058
7.99025
2.34846
-46.9157
-55.0963
-47.0257
-45.7489
-50.9535
-66.9857
-72.2538
-62.8231
-49.6305
-51.254
-47.8085
-39.545
-37.3679
-36.0584
-44.9655
-39.8758
-40.6938
-36.1297
-34.8593
-35.615
-37.7044
-34.9346
-40.0088
-40.3542
-53.413
-16.1964
8.20952
2.58973
-46.9237
-47.8061
-53.0102
-78.0782
-46.822
-54.6984
-72.3518
-62.7926
-46.9263
-45.6177
-51.1701
-66.9973
-102.015
-90.7625
186.253
186.811
-93.9161
-93.9277
183.307
180.575
-78.373
-56.0938
-77.7328
-57.9309
-47.4141
-48.9915
-41.5657
-39.6324
-43.9599
-43.948
-41.5581
-41.5146
-44.292
-43.593
-38.2949
-42.1311
-30.5999
-30.5473
201.584
201.64
-58.1869
-77.3007
-21.3878
-8.18002
-35.5847
-35.5539
-36.7639
-36.9922
-47.3245
-45.2491
-54.6203
-42.3716
-103.314
-89.6481
186.763
186.509
-78.3149
-56.178
-77.5112
-57.8164
-49.1971
-47.6713
-41.4728
-39.429
-44.0041
-43.6832
-38.2357
-42.1864
-78.5293
-58.2125
-8.18936
-21.4822
-45.0718
-47.3573
-42.2695
-54.5359
-39.0793
-39.7274
-36.0453
-34.7606
-49.2931
-49.886
-40.6238
-45.4805
-52.4303
-52.4454
-38.2985
-38.2642
-41.854
-45.1685
-42.5917
-44.2377
-34.6657
-34.6555
-36.2854
-36.2781
-48.7594
-49.059
-47.957
-91.8794
5.74323
5.75772
-6.27575
-6.16285
-88.0493
-88.0782
-60.204
-60.1602
-38.9503
-39.7217
-36.0017
-34.7598
-50.7585
-49.9554
-40.4303
-45.3086
-45.0744
-41.7984
-42.2204
-44.0116
-49.0297
-48.7108
-91.9018
-47.4945
-112.762
-77.3997
-78.0723
-105.064
-47.8914
-44.635
-56.4708
-55.5079
-49.7992
-59.9054
-57.6438
-45.314
-54.6515
-97.6942
-76.6854
-76.8582
-112.596
-103.263
-78.2555
-77.4968
-50.6826
-77.0039
-77.1637
-94.3754
-49.9904
-45.7302
-57.4332
-60.2678
-47.4886
-55.3315
-56.6217
-45.0572
-113.267
-111.834
-79.0587
-74.8588
-114.259
-74.7107
-79.0181
-111.9
-48.873
-48.0088
-58.6606
-56.0963
-48.8374
-56.2162
-58.7844
-48.0114
-9.95935
-27.5105
-20.3919
-44.0954
-15.2128
17.4924
-3.4646
-19.9992
-14.1098
-20.0473
-3.46084
17.5082
-9.56888
-44.6119
-20.3555
-27.6046
89.2216
136.801
198.292
93.9702
128.348
158.149
192.99
151.05
126.696
151.295
193.017
156.7
90.139
93.8268
198.51
141.01
-38.7537
-37.3065
-40.8113
-41.1604
-37.8778
-41.1734
-42.0429
-37.684
-49.6363
-52.055
-45.9907
-44.7701
-52.1815
-44.9985
-45.7574
-52.8259
-38.4408
-40.8446
-40.7405
-37.2688
-52.3118
-53.0274
-45.6646
-44.7675
-49.5744
-44.6942
-45.8899
-52.1659
-38.175
-37.6083
-41.9614
-41.0852
-38.0944
-40.3562
-36.4979
-35.0288
-37.8278
-34.9681
-36.4457
-40.2843
-35.1587
-34.8934
-34.8261
-34.9356
-35.1057
-34.8656
-34.8116
-34.889
-53.2169
-87.4347
-42.8089
13.5484
-62.0499
-79.614
-97.8925
-73.4709
-61.9472
-73.6932
-97.958
-79.6009
-51.9875
13.6738
-42.6692
-87.8613
-38.3298
-44.837
-43.7563
-41.5957
-50.8414
-52.7949
-44.2617
-43.11
-44.9608
-48.1173
-45.967
-50.4589
-48.3411
-44.1681
-44.5994
-46.6673
-38.0604
-41.3851
-43.3482
-44.7435
-48.2609
-46.5482
-44.3089
-44.0051
-44.7717
-50.276
-46.0136
-48.0553
-52.0816
-43.1451
-44.4501
-52.6295
-35.9556
-35.702
-38.2856
-38.1976
-36.0712
-38.2244
-38.3227
-35.6911
-48.2945
-46.2002
-42.092
-42.173
-47.4777
-41.9969
-42.0513
-46.0271
-55.0444
-55.0978
-54.6127
-65.5705
-36.8443
-33.6823
-41.8407
-44.7486
-36.6746
-44.6427
-41.6963
-33.5609
-54.8079
-65.5387
-54.5743
-54.9884
-45.6471
-43.5436
-41.3393
-41.7407
-45.271
-41.5673
-41.2558
-43.5338
-38.9205
-34.2931
-38.0888
-40.061
-39.1926
-40.2233
-38.227
-34.6232
-59.9221
-112.517
-119.581
-61.8613
-54.9423
-47.3163
23.8559
25.0977
-19.0065
-42.9172
-37.7197
-40.6179
-111
-58.8404
-119.324
-56.3418
-58.9637
-54.5645
23.1739
26.1948
-18.2895
-37.4753
-42.6642
-40.3847
-47.0948
-37.3999
-41.322
-40.1913
-36.4878
-35.7617
-36.6812
-35.5949
-52.7814
-51.4289
-55.738
-53.5921
-51.2413
-50.4256
-52.2009
-54.7416
-46.8894
-39.9279
-37.0703
-41.0997
-36.9418
-35.4831
-35.9582
-38.3427
-52.9406
-53.2632
-51.3252
-55.9295
-51.1886
-54.6913
-50.352
-52.2088
-12.1619
0.434353
-90.909
93.9052
-161.577
-161.606
-130.835
-55.0672
-65.8435
-56.8003
-63.5015
-62.2919
-51.347
-48.6314
-51.7544
-42.4409
-48.1936
-48.2846
-47.2731
-45.7284
-40.1434
-39.682
-40.495
-40.2276
93.7169
94.2058
1.58919
108.275
-64.1616
-60.4594
-68.502
-37.3486
-32.2441
-32.1368
-32.2101
-30.8349
-47.4437
-47.7745
-47.3248
-49.1772
-11.5709
1.78277
-88.4235
95.4312
-65.6881
-56.7279
-63.564
-61.8585
-51.0117
-48.3197
-51.5823
-42.206
-41.3554
-40.0635
-40.9436
-40.4536
-63.456
-59.903
-68.1061
-37.1141
-47.3841
-47.6618
-47.2502
-48.9787
-34.1954
-35.5186
-35.6665
-32.7424
-43.0804
-44.0151
-43.9085
-43.0067
-43.6738
-43.6496
-45.7411
-42.0753
-41.7738
-43.5261
-42.5731
-42.6462
-35.6496
-35.5367
-35.1799
-35.7366
-58.2586
-57.3741
-55.167
-67.2804
24.0243
23.9638
24.688
21.4502
-72.8109
-72.7902
-77.3065
-69.2366
-34.1464
-35.2916
-35.1064
-32.2286
-42.8294
-43.797
-44.0662
-42.7554
-41.6781
-43.4084
-42.5033
-42.4866
-58.2217
-57.7406
-55.3567
-67.3758
-70.5284
-65.576
-66.0154
-60.9978
-70.7556
-65.6608
-66.5929
-61.0378
-73.2138
-67.741
-67.7498
-63.011
-14.9174
-10.7837
-10.6959
-5.48068
195.021
195.576
195.651
195.028
-42.3462
-43.2796
-43.6787
-44.7927
-42.3962
-43.1543
-43.6191
-44.635
-35.7549
-36.0547
-35.3205
-35.7282
-100.611
-78.2173
-103.624
-100.579
-43.9658
-43.0223
-43.7916
-43.521
-43.9249
-43.1369
-43.8058
-43.5464
-41.2521
-40.3961
-40.4038
-40.0988
-44.9449
-48.5938
-48.5536
-51.6809
-38.8825
-40.3832
-37.1719
-38.7812
-11.1998
-20.678
-112.849
81.8018
-190.727
-161.592
-136.794
-3.33401
-98.0727
-79.0102
-93.9219
-87.588
-56.2803
-53.2703
-55.117
-45.0804
-50.7385
-49.3219
-48.2226
-46.1492
-46.2278
-42.3131
-45.1743
-44.2378
20.3676
6.85075
-60.3505
96.7309
52.9936
77.118
14.8556
94.1649
-30.9613
-56.5625
-63.4484
-42.015
-44.7122
-46.5954
-47.4291
-40.985
-35.7109
-33.9019
-34.8196
-35.5173
-43.2441
-46.6085
-46.1289
-42.259
-190.505
-161.608
-136.581
-2.54499
-10.0719
-21.0238
-111.153
80.3332
-98.3127
-78.6587
-94.5772
-87.4884
-50.973
-49.5902
-48.8569
-45.8991
-55.7595
-53.0194
-55.3774
-44.8955
-42.942
-42.5192
-44.9229
-44.1556
54.4892
82.8551
12.547
85.5367
24.4374
10.7774
-60.4521
100.633
-27.0419
-54.7475
-61.8131
-42.7706
-35.4957
-33.6677
-34.62
-35.1328
-44.5095
-46.2796
-47.1001
-40.7873
-43.0985
-46.5104
-46.0123
-42.1122
-48.0092
-50.5445
-47.9067
-50.4385
-35.7293
-32.9728
-36.1578
-35.5283
-42.6555
-42.7234
-43.991
-41.2106
-42.2684
-43.3215
-45.0781
-41.1947
-37.1683
-36.611
-40.1468
-36.3097
-35.4265
-35.4157
-36.2752
-35.0656
-39.5947
-40.4943
-39.9902
-40.2094
-35.8447
-35.5032
-34.9154
-36.0575
-50.2953
-54.6781
-52.5969
-31.2401
-47.5365
-45.1607
-45.8357
-47.2475
-57.7821
-58.2146
-55.5707
-73.8727
4.14356
18.6455
12.3896
9.50741
-49.48
-48.3931
-47.8871
-51.7137
-47.2979
-45.4241
-46.8616
-46.0423
-54.0761
-55.9054
-53.2494
-60.6518
-61.1448
-70.6309
-69.4781
-65.0589
-47.5795
-50.8266
-48.7956
-50.3609
-41.5137
-43.2023
-44.805
-41.0117
-35.408
-34.088
-35.8439
-35.2694
-42.3576
-42.5131
-44.0131
-40.9123
-37.1354
-36.0338
-39.6919
-36.063
-35.7726
-35.4613
-34.9371
-35.8994
-35.5939
-35.3384
-36.2175
-35.1134
-39.7014
-40.4115
-40.1152
-40.0855
-51.02
-55.0721
-53.1761
-31.0413
4.50784
18.6754
12.541
9.58188
-47.4912
-45.1067
-45.8509
-47.1356
-57.984
-58.4899
-55.3799
-74.4523
-49.3948
-48.2993
-47.8025
-51.5624
-60.8154
-70.5755
-69.5852
-64.9394
-47.208
-45.3177
-46.754
-45.9261
-53.9969
-55.8752
-53.0539
-60.6629
-99.2504
-88.0506
-101.247
-94.2903
176.174
189.847
186.964
186.776
-103.304
-86.4823
-94.4049
-94.4025
140.961
196.38
181.484
181.752
-64.411
-65.3025
-70.325
-60.1149
-65.3639
-66.8969
-71.538
-61.7805
-50.5957
-46.3304
-47.6171
-48.2429
-40.5898
-40.0438
-41.4293
-39.3708
-44.7901
-42.8677
-43.8518
-43.8232
-41.8308
-41.3396
-41.5303
-41.496
-41.455
-42.3359
-42.8893
-42.5709
-40.3364
-40.3314
-40.4861
-41.2305
-37.3437
-24.1325
-30.7945
-30.6752
180.167
193.896
202.692
202.796
-69.0338
-67.2679
-62.4979
-72.4037
-19.7066
-13.5008
-19.4981
-12.173
-33.6796
-38.0591
-34.8696
-34.8135
-35.2064
-36.5266
-36.0655
-36.1892
-46.0296
-44.9784
-46.1592
-45.3876
-50.7686
-49.6762
-52.6026
-47.2243
-95.8769
-89.4877
-101.142
-93.7389
176.036
189.808
186.731
186.844
-64.3949
-65.3397
-70.2931
-60.1796
-65.1128
-66.7865
-71.3847
-61.6624
-50.7063
-46.33
-48.5463
-47.7694
-40.4763
-39.8391
-41.344
-39.1315
-41.6184
-42.4265
-42.7617
-42.735
-40.4605
-40.4232
-40.4041
-41.251
-69.624
-67.8332
-73.5443
-62.5771
-19.7871
-13.5051
-12.0905
-19.7922
-45.9942
-44.8899
-45.2211
-46.1082
-50.6188
-49.5806
-47.116
-52.5032
-38.7148
-40.2896
-39.1684
-39.5033
-35.1355
-35.4836
-35.6069
-34.9914
-46.6052
-53.5115
-49.4415
-49.6489
-42.8605
-43.0595
-41.7075
-44.0977
-50.0602
-55.6598
-52.6332
-52.6202
-39.3237
-37.4981
-38.4433
-38.4389
-42.7898
-44.0455
-42.5593
-44.0741
-42.9456
-43.987
-42.9405
-43.6988
-34.7746
-34.7154
-34.6941
-34.6543
-36.0271
-36.4656
-36.3646
-36.3482
-50.805
-47.5053
-48.9384
-49.1028
-104.096
-101.367
-76.1017
-99.7428
13.8333
2.55245
7.21957
7.21834
6.67347
-20.6878
-5.18291
-5.15653
-85.6983
-95.3224
-89.6841
-89.6793
-63.1735
-57.7819
-60.4375
-60.42
-38.6787
-40.1901
-39.0998
-39.5143
-35.1479
-35.4622
-35.5999
-34.9668
-47.1328
-54.1501
-50.4377
-50.2094
-42.5855
-42.9198
-41.521
-43.9211
-42.6663
-43.732
-43.9806
-42.506
-42.6855
-43.4308
-42.5913
-43.4302
-50.7708
-47.4396
-49.0519
-48.909
-103.946
-101.5
-100.169
-75.767
-101.659
-99.2619
-102.339
-94.1395
-49.0551
-46.3587
-52.6966
-49.2883
-51.5294
-47.9942
-54.8409
-50.2441
-81.495
-79.1008
-87.1076
-84.0256
-99.7061
-101.159
-104.68
-95.6677
-78.3272
-77.9747
-85.2573
-84.5177
-52.2789
-48.6126
-55.3657
-51.0796
-49.6628
-46.7241
-53.2268
-49.9428
-100.187
-91.2869
-93.164
-84.6289
-100.768
-91.2324
-93.2062
-84.4467
-51.5853
-49.6064
-54.694
-52.2116
-51.7137
-49.5519
-54.7634
-52.2527
-34.4704
-30.2986
-29.6495
-24.6987
-7.9488
2.93509
-5.20417
3.14356
-7.91181
2.93652
-5.20672
3.11662
-34.241
-29.4208
-29.6674
-24.956
161.328
99.7506
184.711
183.272
178.141
190.441
183.492
197.658
190.971
180.242
198.407
183.442
101.519
162.445
183.715
185.048
-38.8271
-39.5646
-39.0412
-39.6859
-39.1094
-39.8866
-39.7712
-41.0091
-47.407
-49.6108
-46.5265
-48.4076
-48.3627
-50.635
-47.0204
-49.0122
-38.5839
-39.315
-38.8656
-39.4685
-48.243
-50.6607
-46.8872
-48.9729
-47.3161
-49.5782
-46.4602
-48.3314
-39.1389
-39.9562
-39.7387
-40.9354
-37.0467
-38.5058
-36.7877
-38.0677
-38.4271
-36.7478
-37.9876
-36.7349
-34.9224
-34.7994
-34.6505
-34.6388
-34.5811
-34.6034
-34.8049
-34.525
-38.6605
-5.33531
-31.3497
-10.0358
-74.5371
-76.0476
-86.2789
-85.3981
-76.0759
-74.4906
-85.4273
-86.1278
-5.05101
-37.728
-9.72113
-30.8273
-41.4507
-41.1374
-42.9833
-42.2596
-49.2755
-46.4366
-47.1755
-44.9844
-48.6934
-47.9639
-49.0377
-48.6404
-46.0162
-45.4723
-45.2634
-44.781
-41.0592
-40.8272
-42.4389
-41.8714
-45.8908
-45.3233
-45.091
-44.5876
-48.5689
-47.9019
-49.2319
-48.7764
-48.8532
-46.4699
-47.3626
-45.0632
-36.0746
-35.936
-36.2161
-36.1381
-36.1716
-35.9007
-36.0364
-36.16
-45.651
-44.3805
-44.0021
-43.1814
-45.6717
-44.147
-43.9173
-43.1454
-58.8559
-61.1112
-56.6423
-59.7353
-35.6171
-37.9796
-36.2869
-38.8799
-35.4794
-37.8537
-36.1706
-38.7124
-58.8183
-61.0208
-56.6579
-59.6847
-41.8228
-41.9673
-41.6987
-41.7153
-41.7481
-41.6904
-41.6147
-41.5998
-38.0458
-39.3521
-37.8285
-39.2577
-39.603
-38.3749
-39.5035
-38.0946
-132.928
19.2688
-149.518
-6.50189
-112.41
-116.513
-56.0606
-47.5879
-49.8403
-47.9573
-49.5573
-47.227
-36.8973
100.869
33.7438
85.5747
-38.858
-4.63853
-45.7002
-40.3012
-36.4279
-38.066
-42.829
-38.8221
-147.539
-5.93765
-132.364
20.4554
-112.267
-117.278
-50.5626
-47.4334
-56.6025
-46.6299
-51.2676
-48.481
32.5644
84.4432
-35.8366
102.875
-32.072
-7.08545
-36.247
-37.7585
-45.1806
-40.0648
-42.6872
-38.6508
-50.8378
-51.2859
-37.3789
-37.0816
-46.5303
-39.8702
-44.9583
-39.3308
-37.1073
-36.5244
-36.2813
-35.2594
-38.2764
-38.2387
-35.3584
-35.9626
-50.7341
-39.7959
-49.423
-50.9791
-54.8697
-77.6322
-10.0001
-28.1497
-49.475
-52.3171
-48.9862
-48.6192
-51.7189
-57.4818
-59.586
-56.6381
-50.5667
-51.2566
-44.6582
-38.9745
-37.156
-36.7922
-46.4452
-39.6085
-36.6246
-36.8302
-35.3981
-36.0469
-36.667
-35.3033
-38.7237
-38.6192
-50.8573
-39.7153
-9.55146
-27.2673
-49.5658
-51.0339
-55.0811
-78.4054
-49.4114
-52.2185
-59.5032
-56.377
-48.9329
-48.5788
-51.6922
-57.4424
-102.427
72.1912
-72.2039
86.7497
-102.753
-101.503
145.951
161.242
-130.649
-58.6849
-130.665
-61.1177
-112.749
-112.757
26.4138
25.4294
-73.3484
-72.8975
-56.2867
-54.7955
-69.1141
-59.2316
-68.9289
-59.8723
-53.9041
-43.8599
-49.612
-41.5226
-52.7845
-51.5944
-41.6191
-39.9135
-47.5685
-45.4219
-47.8511
-45.2949
-45.9612
-45.8857
-43.358
-43.3376
-42.7953
-41.7408
-43.5402
-37.8872
-43.1465
-42.0195
-40.2619
-41.0984
11.8504
107.13
11.6566
103.217
-45.7005
-47.1056
156.408
156.264
-73.1706
-38.6054
-60.1771
-36.1691
-64.0718
-73.2347
-27.128
-22.9308
-33.3064
-32.9834
-33.1581
-32.715
-33.0632
-32.9854
-33.7212
-33.895
-47.9862
-46.8807
-47.5159
-50.3758
-47.3381
-46.5733
-53.2627
-48.7629
-100.662
72.3716
-71.0853
85.5197
-100.464
-99.1807
162.111
151.756
-73.2707
-72.8531
-56.2107
-54.6845
-69.0801
-59.2513
-68.7796
-59.7084
-53.9062
-43.6472
-49.3012
-41.2999
-51.5204
-52.6899
-41.4086
-39.7085
-43.634
-41.8156
-43.5348
-37.9525
-43.3715
-42.2088
-40.3643
-41.2999
-72.983
-38.2688
-60.8143
-36.0874
-73.5398
-64.2092
-22.8254
-27.3344
-47.8941
-46.7982
-47.4168
-50.2149
-46.4646
-47.2778
-48.6805
-53.185
-36.5425
-34.6348
-36.1237
-35.2505
-37.1919
-37.7202
-34.6118
-35.0213
-43.4378
-41.7693
-44.4967
-44.735
-44.7321
-45.0201
-41.9454
-43.8659
-45.5318
-41.8964
-45.4708
-41.8271
-48.176
-47.9541
-40.4486
-40.4292
-41.0702
-41.2961
-44.7345
-44.2586
-41.711
-43.5431
-42.1343
-43.4036
-35.1711
-35.6714
-35.1438
-35.6491
-34.9177
-34.9276
-35.7031
-35.7027
-55.5619
-70.7145
-54.3929
-64.147
-52.485
-52.8485
-88.3434
-77.9273
22.0408
19.0397
22.0695
19.1452
18.9875
18.9851
15.7673
15.837
-76.1097
-68.505
-76.0975
-68.4673
-81.2456
-81.2384
-66.0107
-65.9871
-36.5807
-34.5933
-36.2685
-35.2715
-37.1883
-37.84
-34.6296
-34.9908
-43.5521
-41.5103
-44.6093
-44.5333
-45.4902
-45.1904
-41.6144
-43.5964
-40.979
-41.1602
-44.6477
-44.1205
-43.4628
-41.6104
-41.9273
-43.2162
-55.6662
-70.8825
-54.5556
-64.1966
-52.7931
-52.4675
-78.2898
-88.674
-77.6444
-76.8727
-70.7365
-60.5649
-61.6246
-70.9865
-56.7524
-57.3741
-77.7598
-76.9649
-70.7487
-60.6412
-71.0496
-61.61
-57.2234
-56.8193
-79.4709
-79.4447
-72.7723
-62.787
-72.7328
-62.7131
-58.7474
-59.0364
-19.8181
-19.7795
-16.1351
-6.99643
-6.98778
-16.0848
-2.28576
-2.29021
192.887
193.045
200.073
200.136
194.945
194.97
193.067