# vtk DataFile Version 2.0
tri_press
ASCII
DATASET UNSTRUCTURED_GRID
POINTS 3682 float
-0.682455 0.225 -2.195
-0.765 0.265 2.02279
-0.751507 0.725 -2.115
-0.715 0.96372 2.055
0.682459 0.225 -2.195
0.765 0.265 2.02279
0.751507 0.725 -2.115
0.715 0.96372 2.055
-0.780573 0.16773 -0.78907
-0.825004 0.164147 0.61686
-0.791328 0.856564 -0.725
-0.782698 0.939676 0.665
0.780583 0.167723 -0.78907
0.825435 0.163718 0.61686
0.791326 0.856562 -0.725
0.782677 0.939655 0.665
-1.45073 -0.149333 -3.34432
-1.46131 -0.12097 -2.22595
-1.53714 -0.164808 -0.819609
-1.58551 -0.184294 0.589939
-1.56173 -0.12024 1.99655
-1.5509 -0.0662325 3.11624
-1.55388 -0.0219072 4.23348
-1.45108 0.15921 -3.31004
-1.45973 0.208333 -2.19342
-1.54782 0.184405 -0.790176
-1.58914 0.177593 0.614501
-1.54085 0.24356 2.01805
-1.53747 0.296433 3.13751
-1.54784 0.339367 4.25527
-1.48081 0.730385 -3.23702
-1.50463 0.776573 -2.11974
-1.55841 0.866781 -0.72736
-1.56141 0.927206 0.663895
-1.50486 0.963063 2.05658
-1.51881 1.01234 3.1767
-1.54098 1.05693 4.29703
-1.51931 1.68817 -3.13948
-1.53486 1.75275 -2.02458
-1.55598 1.87209 -0.637362
-1.56283 1.98108 0.746423
-1.55438 2.04832 2.13381
-1.55231 2.08884 3.24905
-1.55821 2.12772 4.36764
-0.699954 -0.139944 -3.34534
-0.695481 -0.107997 -2.22745
-0.758715 -0.172122 -0.819408
-0.805878 -0.194441 0.591953
-0.789628 -0.11104 2.00007
-0.782485 -0.059035 3.11863
-0.786036 -0.0180498 4.23486
-0.699169 0.162165 -3.31036
-0.774241 0.30505 3.13948
-0.782978 0.343735 4.25631
-0.724098 0.710454 -3.23505
-0.759809 1.01589 3.17639
-0.779596 1.06011 4.29696
-0.754908 1.6728 -3.13753
-0.765488 1.73731 -2.02243
-0.781725 1.86726 -0.636068
-0.791248 1.98568 0.746267
-0.789358 2.05308 2.1327
-0.788769 2.09215 3.24794
-0.793741 2.13029 4.36683
0.753161 -0.139959 -3.34534
0.741632 -0.108009 -2.22745
0.792193 -0.172181 -0.819408
0.80794 -0.194733 0.591953
0.767464 -0.111153 2.00007
0.755761 -0.0591238 3.11863
0.750286 -0.0181466 4.23486
0.743162 0.162155 -3.31036
0.747371 0.304991 3.13948
0.745109 0.34365 4.25631
0.758837 0.710447 -3.23505
0.730013 1.01584 3.17639
0.736592 1.06003 4.29696
0.767032 1.67278 -3.13753
0.768126 1.73728 -2.02243
0.768097 1.86722 -0.636068
0.75563 1.98563 0.746267
0.738565 2.05302 2.1327
0.733954 2.09208 3.24794
0.73248 2.13021 4.36683
1.49361 -0.149375 -3.34431
1.48721 -0.121011 -2.22595
1.55476 -0.164945 -0.819609
1.59144 -0.184709 0.589939
1.55492 -0.120525 1.99655
1.53254 -0.0664445 3.11624
1.5231 -0.0221116 4.23348
1.48057 0.159181 -3.31004
1.45751 0.208312 -2.19342
1.54485 0.18432 -0.790176
1.59381 0.17716 0.614501
1.54603 0.243317 2.01805
1.5217 0.296256 3.13751
1.51576 0.33918 4.25527
1.49936 0.73036 -3.23702
1.49597 0.776558 -2.11974
1.54998 0.866743 -0.72736
1.5621 0.927033 0.663894
1.50758 0.9629 2.05658
1.49908 1.0122 3.1767
1.50323 1.05677 4.29703
1.52647 1.68811 -3.13948
1.53154 1.75269 -2.02458
1.53927 1.87201 -0.637362
1.53064 1.98096 0.746422
1.51012 2.04818 2.13381
1.50174 2.08869 3.24905
1.49942 2.12756 4.36764
-0.717004 0.475 -2.15502
1.99676e-06 0.22457 -2.19543
-0.755848 0.172031 -1.49204
-0.748054 0.61436 2.04695
0 0.265082 2.02271
-0.815945 0.193631 1.31983
0 0.725303 -2.1153
-0.809625 0.828989 -1.42
0 0.963623 2.0549
-0.739228 0.942077 1.36
0.716996 0.475 -2.15501
0.75831 0.169572 -1.49204
0.748065 0.61436 2.04696
0.815989 0.193588 1.31983
0.809655 0.829019 -1.42
0.739237 0.942086 1.36
-0.800793 0.167934 -0.086105
-0.899924 0.512147 -0.757035
4.79775e-06 0.160777 -0.78907
-0.899907 0.551912 0.64093
0.000215275 0.160993 0.61686
-0.800107 0.911214 -0.03
-1.02733e-06 0.935916 -0.725
-1.06078e-05 1.25272 0.665
0.800795 0.167934 -0.086105
0.899925 0.512142 -0.757035
0.899907 0.551686 0.64093
0.80022 0.911327 -0.03
-0.897642 0.493573 -1.45602
0.897642 0.493571 -1.45602
3.39725e-06 0.160625 -1.49204
-5.13665e-07 0.873174 -1.42
9.98378e-07 0.475 -2.23821
-0.899914 0.532029 -0.0580525
0.899914 0.531914 -0.0580525
0.000110036 0.160909 -0.086105
-5.81758e-06 1.25272 -0.03
-0.869474 0.583136 1.33991
0.869462 0.583023 1.33991
0.000107637 0.178314 1.31983
-5.30392e-06 1.0979 1.36
0 0.61436 2.20917
-0.699718 0.35 -2.175
-0.341227 0.224618 -2.19538
-0.734724 0.182943 -1.84352
-0.759011 0.43968 2.03735
-0.3825 0.26513 2.02266
-0.780597 0.239191 1.67131
-0.734145 0.6 -2.1349
-0.375753 0.72531 -2.11531
-0.813466 0.809894 -1.7675
-0.73436 0.78904 2.05381
-0.3575 0.963623 2.0549
-0.725924 0.951708 1.7075
0.34123 0.224522 -2.19548
0.69972 0.35 -2.175
0.734727 0.182944 -1.84352
0.3825 0.265198 2.02259
0.759028 0.43968 2.03737
0.780554 0.239234 1.67131
0.375753 0.725297 -2.1153
0.734198 0.6 -2.13495
0.813465 0.809894 -1.7675
0.3575 0.963623 2.0549
0.734319 0.78904 2.05377
0.72592 0.951705 1.7075
-0.770522 0.167569 -1.14055
-0.790662 0.167854 -0.437588
-0.900063 0.310031 -0.773053
-0.391337 0.162147 -0.78907
-0.83003 0.169334 0.968343
-0.815326 0.163613 0.265378
-0.899982 0.339266 0.628895
-0.41243 0.162498 0.61686
-0.800403 0.842703 -1.0725
-0.892109 0.707597 -0.741018
-0.789227 0.877398 -0.3775
-0.415407 0.935724 -0.725
-0.767824 0.947737 1.0125
-0.869628 0.759956 0.652965
-0.794087 0.928129 0.3175
-0.469624 1.25274 0.665
0.76844 0.169655 -1.14055
0.391367 0.162103 -0.78907
0.790664 0.167854 -0.437588
0.90004 0.310039 -0.773053
0.827067 0.172297 0.968343
0.412753 0.162499 0.61686
0.815328 0.163613 0.265378
0.899982 0.339047 0.628895
0.800403 0.842703 -1.0725
0.415403 0.93572 -0.725
0.892111 0.707595 -0.741018
0.789228 0.877398 -0.3775
0.767652 0.947565 1.0125
0.469609 1.25274 0.665
0.869663 0.759856 0.652965
0.794087 0.928129 0.3175
-0.8407 0.484287 -1.80552
-0.358501 0.475 -2.17316
2.697e-06 0.17974 -1.84373
1.49757e-06 0.349785 -2.21941
-0.899605 0.332802 -1.47403
-0.377922 0.160625 -1.49204
-0.85369 0.598748 1.69343
-0.374027 0.61436 2.18298
5.38187e-05 0.197024 1.67127
0 0.439721 2.2373
-0.852017 0.388383 1.32987
-0.407919 0.178315 1.31983
-2.56832e-07 0.810738 -1.76765
4.99189e-07 0.600152 -2.18551
-0.895583 0.661281 -1.43801
-0.404813 0.873174 -1.42
-2.65196e-06 0.995023 1.70745
0 0.788991 2.20779
-0.854821 0.762606 1.34996
-0.369617 1.0979 1.36
0.840701 0.484286 -1.80552
0.358499 0.475 -2.17314
0.89962 0.331572 -1.47403
0.379157 0.160625 -1.49204
0.853754 0.598692 1.69344
0.374032 0.61436 2.18297
0.851946 0.388305 1.32987
0.408048 0.178314 1.31983
0.895583 0.661295 -1.43801
0.404827 0.873174 -1.42
0.854888 0.762555 1.34996
0.369616 1.09794 1.36
-0.899983 0.325167 -0.0720787
-0.401384 0.162336 -0.086105
-0.897625 0.50286 -1.10653
-0.899918 0.522088 -0.407544
4.0975e-06 0.160668 -1.14055
5.7417e-05 0.160867 -0.437588
-0.89991 0.54197 0.291439
-0.899948 0.567524 0.990421
0.000162655 0.160951 0.265378
0.000161456 0.162208 0.968343
-0.878097 0.735665 -0.0440262
-0.485439 1.25273 -0.03
-7.70497e-07 0.911633 -1.0725
-3.42246e-06 1.08835 -0.3775
-8.21271e-06 1.25272 0.3175
-7.95588e-06 1.23744 1.0125
0.899983 0.32511 -0.0720787
0.401495 0.162336 -0.086105
0.897626 0.502857 -1.10653
0.899919 0.522028 -0.407544
0.89991 0.5418 0.291439
0.899949 0.567355 0.990421
0.87811 0.735642 -0.0440262
0.485462 1.25273 -0.03
-0.83546 0.341401 -1.82452
-0.89966 0.33637 -1.12354
-0.895539 0.672818 -1.08951
-0.846035 0.630641 -1.78651
0.835461 0.340786 -1.82452
0.846021 0.630648 -1.78651
0.895539 0.672824 -1.08951
0.899668 0.335752 -1.12354
-0.359574 0.179728 -1.84363
0.360194 0.179728 -1.84363
0.384725 0.160668 -1.14055
-0.384103 0.160668 -1.14055
-0.390283 0.810751 -1.76758
-0.400239 0.911633 -1.0725
0.400245 0.911633 -1.0725
0.39029 0.810751 -1.76758
-0.349864 0.349892 -2.26043
-0.367127 0.600076 -2.15965
0.367126 0.600076 -2.15959
0.349865 0.349892 -2.26043
-0.899984 0.317619 -0.422566
-0.899982 0.332217 0.278408
-0.873827 0.747793 0.304469
-0.883822 0.72099 -0.392522
0.899984 0.317589 -0.422566
0.883837 0.720982 -0.392522
0.87385 0.747731 0.304469
0.899983 0.332078 0.278408
-0.396354 0.162256 -0.437588
0.396413 0.162256 -0.437588
0.407124 0.162418 0.265378
-0.406907 0.162417 0.265378
-0.44747 1.08832 -0.3775
-0.477532 1.25273 0.3175
0.477535 1.25273 0.3175
0.447454 1.08827 -0.3775
-0.899986 0.373206 0.979382
-0.833005 0.414032 1.68237
-0.845718 0.775823 1.70047
-0.87162 0.7542 1.00146
0.899987 0.373004 0.979382
0.871652 0.754113 1.00146
0.84574 0.775797 1.70047
0.833005 0.413993 1.68237
-0.410157 0.162207 0.968343
0.410437 0.165708 0.968343
0.395274 0.197028 1.67129
-0.395209 0.197027 1.67129
-0.380486 1.23744 1.0125
-0.363558 0.995021 1.70748
0.363558 0.99502 1.70748
0.380475 1.23744 1.0125
-0.378263 0.439701 2.18195
0.378266 0.439701 2.18198
0.365766 0.789016 2.18535
-0.365763 0.789016 2.18535
-0.691078 0.2875 -2.18499
-0.511841 0.224642 -2.19536
-0.710467 0.202094 -2.01926
-0.762946 0.35234 2.03101
-0.57375 0.265112 2.02268
-0.783315 0.241579 1.84705
-0.742784 0.6625 -2.12491
-0.56363 0.724715 -2.11472
-0.78764 0.772601 -1.94125
-0.727536 0.87638 2.05726
-0.53625 0.963623 2.0549
-0.721216 0.958468 1.88125
0.511845 0.224498 -2.1955
0.691085 0.2875 -2.18499
0.710467 0.202097 -2.01926
0.57375 0.265215 2.02258
0.762927 0.35234 2.03099
0.783341 0.241553 1.84705
0.56363 0.725424 -2.11542
0.742828 0.6625 -2.12495
0.787632 0.772593 -1.94125
0.53625 0.963622 2.0549
0.727539 0.87638 2.05726
0.721216 0.958468 1.88125
-0.77557 0.167628 -0.964811
-0.785596 0.167813 -0.613329
-0.886821 0.215629 -0.781061
-0.578567 0.179715 -0.78907
-0.828478 0.16578 0.792601
-0.820385 0.163661 0.441119
-0.884765 0.240571 0.622878
-0.610405 0.179948 0.61686
-0.795789 0.849557 -0.89875
-0.8416 0.782021 -0.733009
-0.783798 0.860501 -0.55125
-0.622751 0.93491 -0.725
-0.777505 0.945951 0.83875
-0.837162 0.855316 0.658983
-0.787741 0.933251 0.49125
-0.626712 1.09731 0.665
0.775572 0.167628 -0.964811
0.578587 0.179688 -0.78907
0.785598 0.167813 -0.613329
0.886452 0.215811 -0.781061
0.829029 0.16523 0.792601
0.610674 0.179949 0.61686
0.820387 0.16366 0.441119
0.884722 0.240376 0.622878
0.79579 0.849558 -0.89875
0.622743 0.934897 -0.725
0.8416 0.782019 -0.733009
0.783799 0.860502 -0.55125
0.777511 0.945957 0.83875
0.626702 1.09732 0.665
[...]
POINT_DATA 3682
SCALARS point_scalars float 1
LOOKUP_TABLE default
-27.6401
-45.7862
-32.6774
-38.7361
-27.8029
-45.8215
-33.1995
-38.6491
-38.9381
-36.7222
-36.8198
-46.6497
-38.8841
-36.7244
-36.8105
-46.6373
-19.872
-55.1364
-44.6506
-37.3103
-45.4416
-46.3232
-38.6864
-19.872
-57.7968
-39.4175
-37.9694
-45.1208
-41.9961
-36.5278
85.6276
-44.4914
-36.3133
-41.3414
-44.9736
-41.577
-35.998
3.13325
-54.4227
-47.2438
-50.946
-38.3325
-38.3325
-38.4961
27.0326
-88.4318
-39.5403
-37.1515
-43.359
-36.6018
-35.4705
114.649
-35.8637
-34.9791
170.544
-33.6039
-30.9693
3.13325
-48.4194
-44.8268
-52.5992
-38.3325
-33.5655
-30.7751
27.5462
-95.5315
-39.9595
-37.1716
-43.5052
-36.565
-35.4743
114.989
-35.4296
-34.9581
163.799
-32.4754
-30.8417
2.85032
-48.5619
-44.7905
-52.5699
-38.2424
-32.5862
-30.6511
-20.0325
-55.0508
-44.6182
-37.3187
-45.1019
-46.3635
-38.6517
-20.0325
-57.7338
-39.3878
-37.9679
-45.0175
-42.0134
-36.7059
81.4785
-44.3661
-36.2986
-41.3374
-44.9152
-41.5123
-35.8443
2.85032
-54.4559
-48.0642
-51.555
-38.2424
-38.2424
-38.3994
-22.5459
-206.258
-55.5129
-38.791
-40.2114
-39.1397
-9.90987
-49.2137
-29.1614
-41.1781
-22.7377
-55.8771
-38.7219
-39.2064
-49.375
-41.1627
-34.1891
-36.8836
-40.9176
-39.6527
-39.1017
-49.5301
-0.755743
-59.3554
-34.2539
-36.8461
-39.647
-49.5328
-64.1268
-64.2178
-62.3154
-36.1938
197.961
-37.5679
-37.5675
-36.2737
-105.926
-42.5441
-42.4843
-43.7149
-38.4214
-30.0086
2.50424
-182.228
-62.2046
-40.295
-40.8414
-39.8255
-20.3194
-18.7534
-57.392
-38.4755
-29.8578
-36.3069
-186.837
2.37429
-62.0298
-40.802
-40.2358
-40.5554
-18.8112
-20.5908
-57.4178
-29.7999
-38.4283
-36.285
-42.8458
-34.4469
-38.0881
-40.2112
-42.4645
-35.0187
-38.4705
-38.1581
-36.8586
-36.2056
-43.4589
-5.77053
-45.8461
-42.2892
-49.4994
-54.5104
-42.314
-40.1856
-34.4398
-38.0517
-41.9678
-38.198
-35.2875
-38.4678
-36.8897
-5.69616
-36.1909
-43.47
-45.9257
-54.5018
-42.285
-49.488
-50.6409
198.898
-77.6543
196.317
-65.4069
-60.3545
-42.544
-34.3761
-45.8116
-35.1504
-40.8621
-43.2776
-55.7551
113.682
-59.0419
-37.33
-33.6632
-27.4093
-40.4102
-39.4976
-50.6385
198.899
-65.5964
-60.4072
-42.4513
-34.3304
-40.8553
-43.3218
-59.0789
-37.3418
-40.5458
-39.4481
-35.6283
-35.6679
-43.1585
-36.3236
-48.5227
-37.3787
-38.5129
-42.5816
-36.9222
-43.0466
-42.0487
-95.9774
-21.8676
5.67761
-73.3541
-53.5476
-35.6265
-35.663
-43.1017
-36.3688
-38.5096
-42.5749
-42.058
-95.9965
-49.208
-43.8967
-40.6256
-49.2229
-49.1631
-49.1947
-40.6319
-43.8835
-73.5942
-73.7151
-47.4319
-47.4354
-54.0772
-25.0467
-25.0531
-54.1019
193.883
118.263
118.333
196.985
-35.0438
-36.707
-42.5889
-38.7859
-35.04
-38.7881
-42.5853
-36.7099
-36.6659
-36.6577
-36.23
-36.2024
-2.4397
-64.666
-64.6665
-2.42785
-42.5966
-41.5485
-40.4587
-43.3719
-42.5717
-43.3577
-40.4252
-41.4853
-43.316
-42.8439
-46.1765
-46.1839
-55.1791
-33.9618
-33.9517
-56.2893
-34.9057
-34.882
-32.9392
-33.0301
8.9402
-151.806
-76.7391
-42.1418
-41.7894
-43.9865
-9.94663
-37.256
-38.8153
-40.2996
-32.1431
-35.6309
-152.132
8.78173
-76.6855
-41.801
-42.1297
-42.8344
-37.0567
-10.6624
-38.8407
-32.069
-40.1543
-35.5943
-41.393
-35.2516
-41.1821
-38.876
-39.4314
-35.7755
-37.7638
-37.5914
-35.6214
-35.3712
-38.5671
-15.8926
-46.5081
-44.0069
-47.6545
-49.5471
-41.3526
-38.8439
-35.2364
-41.1248
-39.4653
-37.6205
-35.8383
-37.776
-35.6072
-15.9158
-35.3528
-38.5376
-46.5103
-49.5341
-44.0012
-47.6455
-12.4709
-28.6005
-63.0593
179.938
-213.907
-214.378
-101.481
99.6239
-61.9025
-47.6428
-64.0692
-57.278
-39.3467
-38.8675
-45.1949
-34.5805
-40.3449
-40.3243
-43.3271
-36.0809
-45.2522
-50.4198
-40.6204
-42.1792
-17.5139
-17.3213
-76.3666
74.7193
-56.0284
-43.396
-52.2301
-38.9561
-29.1316
-29.1015
-31.1885
-24.2197
-38.4571
-43.9738
-40.4749
-42.1511
-12.6175
-28.8403
-63.0666
180.273
-61.3648
-48.8309
-64.3477
-57.6536
-39.2851
-38.782
-45.1456
-34.5326
-45.3586
-50.6647
-40.6165
-42.2823
-56.0458
-43.4059
-52.2456
-38.9614
-38.4326
-43.8729
-40.4559
-42.1848
-34.1517
-34.3826
-34.5443
-35.1081
-37.3142
-36.83
-38.8285
-36.2325
-40.7157
-40.7091
-43.9629
-38.6479
-39.0461
-40.4996
-39.0041
-40.7857
-38.9629
-38.98
-37.8165
-40.7877
-47.581
-50.4389
-45.2041
-64.0222
-1.84385
-1.83365
-11.1125
8.83311
-58.3967
-58.3925
-64.7153
-56.1861
-34.1577
-33.9442
-34.5585
-35.1092
-37.289
-36.7972
-38.8234
-36.2256
-39.041
-40.4928
-39.0001
-40.7791
-47.6071
-50.4463
-45.2259
-64.0249
-69.0339
-65.3302
-62.1418
-51.0322
-69.0917
-65.4624
-62.2045
-51.0983
-70.4471
-61.778
-61.795
-54.3252
-42.8873
-36.5226
-36.5278
-31.3445
200.131
199.504
168.132
199.508
-36.5473
-36.9951
-37.9204
-39.1196
-36.5458
-36.9679
-37.9195
-39.1231
-36.1233
-36.5661
-36.4215
-36.1225
-104.362
-28.2808
-88.0888
-104.365
-41.0843
-41.3348
-41.9908
-45.1357
-41.0389
-41.316
-42.0556
-45.1368
-44.751
-43.645
-43.6521
-43.3639
-35.6475
-38.6862
-38.6612
-44.1407
-31.8886
-33.0092
-29.7182
-31.8182
-65.4412
164.106
-92.7998
119.259
-46.8691
-67.7308
-44.97
-35.0896
-43.8995
-36.2962
-40.9884
-44.7828
-56.0893
137.255
-73.4969
69.3561
-54.0063
-50.4034
-45.3512
-34.0629
-31.4549
-30.8111
-38.2071
-34.5984
-93.1786
115.217
-65.4326
164.253
-46.7556
-67.6809
-43.7995
-36.2966
-44.89
-35.0459
-40.9035
-45.1498
-73.556
69.3884
-56.0795
137.329
-53.7048
-50.3813
-31.428
-30.6853
-45.2955
-33.9973
-38.1802
-34.5814
-42.6131
-46.198
-34.2272
-35.8427
-40.5124
-35.4814
-43.1749
-37.9533
-41.8857
-44.2539
-35.7253
-35.73
-37.4159
-40.0408
-37.032
-40.6311
-38.0952
-28.9285
-36.6016
-36.0347
-39.5337
-56.7418
-15.5413
3.47762
-45.1545
-51.4153
-42.4119
-42.6991
-44.8038
-54.8688
-58.3438
-54.2777
-42.5005
-46.1753
-43.1641
-37.941
-34.2216
-35.8351
-40.4708
-35.4676
-41.8073
-43.5273
-37.0646
-40.7299
-35.7375
-35.7828
-37.4146
-40.0293
-38.0959
-28.9262
-15.2824
3.52586
-36.5932
-36.0255
-39.5385
-56.7051
-45.131
-51.3429
-58.3406
-54.2745
-42.4043
-42.6933
-44.7995
-54.8656
-50.3762
-50.0815
201.889
160.914
-76.3515
-76.5538
195.717
195.555
-63.2442
-51.6033
-68.0309
-52.815
-42.2195
-43.0587
-34.6916
-33.8234
-46.0046
-45.998
-34.8
-34.7832
-49.7773
-40.9978
-43.4099
-44.4412
-55.4453
-55.4542
124.113
124.86
-47.6387
-67.4357
-42.7654
-33.8885
-33.7405
-33.7362
-28.9671
-29.0791
-39.5638
-43.5273
-45.6398
-36.3209
-50.356
-50.0782
161.516
202.254
-63.1958
-51.7755
-68.0144
-52.8634
-42.9922
-42.1622
-34.658
-33.7553
-49.7859
-40.9761
-43.4463
-44.4752
-67.5429
-47.6631
-33.9035
-42.7626
-43.4374
-39.4166
-36.305
-45.6757
-35.2384
-36.0946
-35.9377
-35.7794
-43.8414
-42.1137
-35.6938
-37.1878
-48.2242
-48.2221
-37.1854
-37.1811
-37.6367
-39.8006
-42.698
-42.4032
-36.7744
-36.7654
-43.1075
-42.9668
-42.4931
-40.9752
-43.2721
-75.8875
-22.6654
-22.6643
4.70082
4.7125
-71.6396
-71.9459
-53.9837
-53.9545
-35.2392
-36.0884
-35.9298
-35.78
-42.1265
-43.8722
-35.6756
-37.1865
-39.7964
-37.5616
-42.6864
-42.3987
-40.9766
-42.4962
-75.8938
-43.2945
-63.5787
-62.4494
-66.9043
-65.0236
-43.5103
-39.5868
-51.7599
-50.3526
-35.6016
-43.8372
-49.6908
-37.8409
-48.8839
-60.1015
-69.5221
-62.7711
-63.5051
-65.0225
-66.9334
-62.0267
-48.8551
-63.0749
-69.5939
-60.1003
-35.5928
-37.8712
-49.7339
-43.8447
-43.2868
-50.7234
-51.8602
-39.5651
-85.793
-100.172
-69.7563
-64.4358
-85.8808
-64.2789
-69.7671
-99.5248
-42.1619
-43.7619
-53.9384
-50.9513
-42.1883
-50.764
-53.9201
-43.7628
-57.4438
-42.9646
-42.8792
-76.12
-22.61
-12.0736
-32.0101
-37.3368
-22.6055
-37.3483
-32.0222
-12.0737
-57.3119
-76.1248
-42.8789
-42.9362
113.472
174.878
200.762
131.022
83.7373
70.8633
167.044
162.578
80.8473
164.152
163.296
71.0475
113.816
131.204
200.902
175.044
-34.3616
-34.3084
-36.1198
-36.1069
-36.4631
-38.1345
-36.999
-35.0116
-44.1043
-45.4196
-39.4364
-40.0648
-35.5309
-36.4054
-38.2859
-43.511
-34.3473
-36.0962
-36.0761
-34.3122
-35.4355
-43.5151
-38.435
-36.3986
-44.0979
-40.0549
-39.4357
-45.4247
-36.4561
-34.8828
-36.9961
-38.1325
-37.0298
-38.451
-36.4138
-35.2605
-37.0166
-35.2579
-36.4078
-38.4457
-36.5627
-37.6655
-36.2754
-35.2727
-36.4683
-35.2916
-36.2719
-37.636
-23.1108
-68.6877
-28.2153
7.79169
-51.5903
-63.3211
-86.0063
-59.218
-51.584
-59.217
-86.0118
-63.3194
-23.0861
7.81985
-28.2083
-68.5229
-39.2642
-51.1523
-48.6128
-40.5052
-45.0871
-44.8859
-41.0569
-41.4137
-40.311
-38.3384
-41.4499
-45.2677
-44.7094
-41.2792
-43.3735
-43.943
-39.2968
-40.497
-48.61
-51.1893
-44.7103
-43.9378
-43.3924
-41.2716
-40.333
-45.2185
-41.2458
-38.2884
-44.9856
-41.4192
-41.0184
-44.8212
-39.3215
-40.7455
-43.3589
-44.8963
-39.3168
-45.1624
-43.3373
-40.7637
-43.8366
-43.4381
-44.7302
-43.4746
-44.5586
-43.3268
-44.7235
-43.4806
-48.8512
-48.5722
-44.4925
-55.9482
-32.5659
-31.1894
-35.8404
-37.4371
-32.529
-37.4
-35.8328
-31.177
-48.8303
-55.941
-44.4964
-48.5605
-36.7591
-36.195
-33.9295
-34.7991
-36.7163
-34.7551
-33.8873
-36.1618
-34.0223
-25.8972
-30.9934
-34.2431
-34.0963
-34.2954
-31.078
-26.019
-13.8895
-105.084
-97.9886
-43.8055
-42.8873
-43.3113
-23.201
-34.2665
-45.6599
-41.1887
-34.7543
-35.6886
-104.951
-14.039
-97.9634
-42.9603
-43.5505
-43.3886
-36.2705
-23.8673
-45.8483
-34.6754
-41.1182
-35.6358
-40.8354
-36.2651
-40.8959
-38.3798
-37.9199
-36.1449
-36.8162
-37.6691
-36.7868
-35.6956
-38.1997
-29.172
-46.2983
-45.2171
-47.1299
-47.9968
-40.7885
-38.3508
-36.2414
-40.8275
-37.8847
-37.7177
-36.0611
-36.8145
-36.7984
-29.2701
-35.6713
-38.1294
-46.2856
-47.9718
-45.2091
-47.119
-18.2991
-25.7669
-64.0142
107.432
-206.387
-206.597
-124.631
20.6525
-60.8095
-51.4836
-61.7154
-55.7009
-39.429
-38.6827
-42.0349
-35.4429
-40.1812
-40.1712
-41.5544
-37.9006
-41.6844
-42.4337
-39.5984
-41.3647
-18.1338
-17.8048
-132.496
2.50095
-53.2207
-47.2841
-51.2508
-42.075
-29.1173
-29.101
-30.3161
-25.536
-39.535
-42.7595
-40.705
-42.8404
-18.4639
-25.9825
-64.0432
107.614
-60.2723
-52.2905
-62.0831
-56.5321
-39.3133
-38.4581
-41.9601
-35.3804
-41.7519
-42.5951
-39.5728
-41.4785
-53.3301
-47.118
-51.3995
-42.0856
-39.5141
-42.7543
-40.6901
-42.8283
-34.1372
-33.921
-34.1938
-34.7623
-37.1448
-36.9071
-37.5143
-36.5549
-40.8768
-40.8752
-42.3183
-39.7091
-39.3147
-40.0041
-39.2976
-40.1269
-39.069
-39.0762
-38.3385
-39.8916
-48.2476
-50.5268
-46.6437
-56.2019
-1.02497
-1.01936
-5.92236
4.40691
-59.1248
-59.1223
-61.7031
-57.5682
-34.157
-34.1814
-34.2372
-34.7836
-37.1203
-36.8542
-37.4677
-36.5529
-39.3096
-39.9987
-39.3011
-40.12
-48.1802
-50.5527
-46.659
-56.2044
-71.5041
-64.9825
-62.9026
-56.4868
-71.5862
-65.0952
-62.979
-56.5737
-66.6231
-61.7562
-61.77
-57.866
-38.5014
-36.2786
-36.2807
-34.2053
204.175
203.896
190.937
204.448
-37.0218
-37.235
-37.8644
-38.2272
-37.0209
-37.236
-37.8636
-38.2282
-36.234
-36.391
-36.296
-36.2342
-105.569
-64.7396
-100.175
-105.576
-40.9839
-41.9541
-43.2419
-45.1759
-40.9176
-41.9257
-43.162
-45.1894
-44.3063
-43.6739
-43.6749
-43.5411
-36.5507
-38.4784
-38.4984
-41.0318
-30.4161
-31.0074
-30.2916
-30.3642
12.4721
-6.25998
-69.1319
107.742
-170.438
-205.177
-119.733
16.0159
-65.9484
-61.2167
-52.0023
-65.1441
-41.152
-39.7855
-43.3807
-36.4601
-41.1141
-40.4908
-42.1317
-38.3513
-40.4972
-44.4682
-40.5339
-41.9223
-16.1785
-26.3662
-57.9553
101.25
-25.441
-23.2645
-128.938
-11.7144
-43.6682
-59.6968
-58.8005
-49.625
-39.8354
-38.2513
-43.3974
-34.8966
-30.6334
-29.3382
-30.483
-29.6301
-35.7053
-36.9201
-37.1251
-35.4752
-170.995
-211.428
-120.972
25.705
12.3265
-6.37485
-69.1741
107.75
-65.8537
-60.9371
-51.8195
-65.0166
-41.0831
-40.4598
-42.0812
-38.3194
-41.0959
-39.7239
-43.3066
-36.4019
-40.4507
-44.7783
-40.4631
-43.2936
-25.5617
-23.2373
-129.069
-11.7476
-16.6682
-26.6304
-57.9631
101.146
-43.7058
-59.7459
-58.6179
-49.6234
-30.5674
-29.2928
-30.4442
-29.5166
-39.8627
-38.3596
-43.2947
-34.8248
-35.6786
-36.8979
-37.0993
-35.4569
-43.0679
-43.8285
-38.5335
-45.2199
-34.6984
-34.0641
-34.1374
-35.3954
-38.663
-37.6173
-39.3175
-36.3966
-39.8519
-40.4596
-41.6463
-38.8737
-40.6588
-43.8093
-41.6763
-44.2713
-35.5027
-34.4217
-35.1143
-35.582
-38.1145
-38.7244
-37.9438
-39.1519
-37.041
-38.7563
-37.5434
-39.4423
-35.4258
-39.83
-37.8542
-32.5181
-35.4259
-36.8489
-36.3248
-36.0331
-39.5967
-45.5011
-40.8053
-53.0624
-9.67555
-3.34276
-10.7804
-0.213734
-46.3882
-45.2369
-45.8929
-46.1799
-43.0164
-41.4578
-42.3104
-42.4922
-48.7392
-49.8124
-46.3339
-52.037
-51.0746
-57.0852
-56.2286
-54.9413
-42.3385
-44.8156
-38.261
-45.0327
-39.8192
-40.4469
-41.6284
-38.8607
-34.6872
-34.0624
-34.1309
-35.3877
-38.6096
-37.5879
-39.289
-36.3661
-41.4317
-43.0328
-41.3748
-43.6272
-37.079
-38.7851
-37.5764
-39.4991
-35.5378
-34.2347
-35.3328
-35.6799
-38.115
-38.7224
-37.9402
-39.15
-35.4269
-39.7883
-37.7572
-32.5126
-9.57337
-3.32307
-10.5994
-0.213363
-35.4084
-36.8315
-36.3106
-36.0178
-39.6137
-45.5019
-40.8148
-53.0557
-46.3958
-45.1822
-45.8852
-46.1626
-51.063
-57.0797
-56.2215
-54.9336
-43.0108
-41.4513
-42.3071
-42.488
-48.7283
-49.799
-46.3262
-52.0672
-51.9454
-55.2498
-50.8662
-50.4461
198.577
198.927
198.714
184.941
-85.447
-72.713
-77.8964
-77.9455
194.303
198.725
196.136
196.073
-65.0458
-65.5013
-70.9496
-57.5721
-58.6938
-60.9079
-64.6027
-56.1243
-45.4005
-41.5053
-42.3763
-42.9292
-34.4382
-33.5421
-34.5674
-34.1158
-44.9324
-45.2436
-45.9824
-45.9685
-35.3725
-34.2844
-34.9047
-34.892
-40.8825
-41.0206
-45.1596
-40.7253
-42.8119
-43.5582
-43.4128
-44.0713
-64.8135
-47.9074
-55.8159
-55.8185
104.173
144.257
116.705
115.867
-56.175
-60.9691
-52.3473
-68.1207
-37.9829
-36.8794
-39.1037
-36.1141
-32.3814
-34.8611
-33.6822
-33.6801
-25.2431
-28.785
-27.8011
-27.8725
-40.4147
-40.8197
-39.7839
-42.2551
-40.3296
-38.9951
-42.3578
-37.5077
-51.9486
-55.2687
-50.8599
-50.4483
198.556
198.808
184.758
198.706
-65.3168
-65.6535
-70.9989
-57.7808
-58.827
-60.7722
-64.616
-56.1461
-45.373
-41.4518
-42.8482
-42.3154
-34.4011
-33.4822
-34.5299
-34.0589
-40.8815
-41.0077
-45.1593
-40.7056
-42.888
-43.581
-43.4601
-44.118
-56.1927
-61.0191
-68.1629
-52.3785
-37.9935
-36.8884
-36.1269
-39.1146
-40.3401
-41.052
-42.2678
-39.6429
-40.4533
-39.0662
-37.5137
-42.3593
-35.0909
-36.0905
-35.4192
-35.8803
-35.5247
-35.9359
-35.7056
-35.6354
-40.6149
-46.7328
-43.6235
-42.8893
-36.1882
-36.648
-36.0181
-36.7711
-46.0798
-50.8886
-48.3507
-48.3446
-37.8945
-36.8783
-37.317
-37.3158
-38.7223
-38.2675
-38.0084
-39.1075
-41.6039
-44.058
-42.7146
-42.4315
-37.3177
-36.6452
-36.8885
-36.8842
-41.8704
-43.2158
-43.0387
-43.0072
-43.5099
-40.1541
-42.397
-41.5998
-80.9447
-101.617
-65.4307
-87.2838
-16.1835
-26.8652
-22.0705
-22.0681
9.87949
-5.50514
5.48013
5.49053
-68.5378
-79.7279
-73.1653
-73.1663
-55.5602
-48.1872
-53.0707
-53.0771
-35.0925
-36.0886
-35.4207
-35.8716
-35.5221
-35.9334
-35.7012
-35.6288
-40.5742
-46.772
-42.9047
-43.637
-36.2031
-36.6449
-36.0052
-36.739
-38.737
-38.1755
-39.1037
-37.9829
-41.5767
-44.0551
-42.6687
-42.4255
-43.525
-40.1593
-41.6053
-42.4049
-80.8837
-101.594
-87.2784
-65.4339
-53.2247
-48.2423
-50.0345
-52.2511
-43.6854
-41.8256
-46.9905
-43.92
-39.5036
-37.7397
-43.6
-41.4159
-48.4731
-50.5544
-49.6263
-56.1116
-53.1873
-48.1759
-50.003
-52.194
-48.4431
-50.4269
-49.6125
-55.7054
-39.5053
-37.741
-43.6147
-41.4168
-43.616
-41.7755
-47.0627
-43.9366
-80.3165
-70.2312
-74.9981
-69.4031
-80.5047
-70.2693
-75.0921
-69.3936
-46.8136
-45.185
-49.6123
-47.7988
-46.8075
-45.1958
-49.6949
-47.7936
-62.3431
-52.4897
-55.016
-47.1116
-26.8016
-19.8703
-29.7554
-23.6523
-26.8069
-19.8845
-29.7591
-23.6542
-62.372
-52.4987
-55.0377
-47.1101
184.645
157.129
202.632
196.878
112.769
102.698
144.125
122.508
102.725
116.881
122.703
144.283
159.146
185.71
196.019
205.588
-34.5889
-35.1491
-35.1224
-35.3855
-36.191
-37.0384
-36.4
-37.1184
-42.4655
-43.5761
-41.0305
-42.6917
-37.429
-39.3654
-37.8075
-40.1474
-34.585
-35.1413
-35.121
-35.3819
-37.4253
-39.3666
-37.8088
-40.1534
-42.4589
-43.5728
-41.0265
-42.6906
-36.2062
-37.0399
-36.4008
-37.1184
-36.3962
-37.1836
-36.1404
-36.9597
-37.171
-36.39
-36.9522
-36.1319
-36.6137
-35.9945
-36.58
-35.9191
-35.9439
-36.5847
-35.8952
-36.5649
-21.7106
2.43463
-17.1634
2.64604
-59.0325
-61.1869
-69.4435
-69.1146
-61.185
-59.0338
-69.3349
-69.4477
2.5101
-21.7095
2.65482
-17.1264
-42.3777
-41.0806
-44.8314
-42.6907
-43.0761
-41.401
-41.8059
-41.1526
-44.2397
-39.4517
-42.64
-39.5016
-44.1171
-42.9822
-43.4378
-42.7963
-42.34
-41.024
-44.8164
-42.6757
-44.0916
-42.9748
-43.4285
-42.7896
-44.2065
-39.4315
-42.5653
-39.4717
-43.0003
-41.3308
-41.7455
-41.1172
-43.7941
-41.935
-43.4487
-43.2033
-43.2649
-42.1954
-42.9653
-42.9242
-45.435
-45.8584
-46.1749
-45.1764
-45.5458
-45.9022
-46.1769
-45.1669
-55.6213
-56.1856
-49.8054
-53.8638
-32.6841
-34.1871
-33.8296
-35.2477
-32.6672
-34.1735
-33.8227
-35.2424
-55.6774
-56.1071
-49.3257
-54.2683
-34.9033
-35.3299
-34.7884
-34.8471
-35.3192
-34.87
-34.8213
-34.7584
-32.1304
-33.6617
-30.9724
-33.3939
-33.7336
-32.2314
-33.4741
-31.0916
-72.4988
92.3091
-104.557
30.7047
-62.194
-80.6897
-44.2141
-38.0121
-42.9943
-39.043
-45.1751
-44.8316
-56.2019
70.2769
-79.0234
36.2888
-43.8182
-46.5021
-42.6424
-35.6072
-31.9501
-33.63
-37.6933
-33.9686
-104.814
31.0147
-72.5323
92.3824
-62.1114
-80.6846
-43.0333
-39.0116
-44.153
-37.9585
-44.9759
-43.1176
-79.2319
38.3938
-56.1397
70.6903
-43.7842
-46.4419
-31.8988
-33.628
-42.5609
-35.4783
-37.6784
-33.9278
-41.554
-42.3996
-34.4269
-36.4716
-44.6355
-36.9758
-39.9014
-37.8851
-39.4004
-38.2572
-35.9271
-36.0783
-36.9869
-38.3876
-37.0193
-38.6831
-35.9688
-30.0092
-35.2362
-35.8817
-36.6599
-43.3931
-19.3721
-12.1263
-45.8696
-47.2307
-44.0133
-44.1498
-45.4157
-49.5341
-50.3865
-49.1066
-41.39
-42.3362
-39.8773
-37.8658
-34.4127
-36.4542
-44.6372
-36.9063
-39.4689
-38.1612
-37.0543
-38.6678
-35.9341
-36.3156
-36.9727
-38.4059
-35.9606
-29.9804
-19.3735
-12.2154
-35.2081
-35.849
-36.6624
-43.3191
-45.8721
-47.2159
-50.3769
-49.0911
-44.0072
-44.1439
-45.4077
-49.5792
-67.703
107.611
-60.1797
109.218
-64.9676
-62.5294
178.208
171.904
-126.886
48.9828
-127.223
50.0305
-100.076
-100.177
132.772
133.01
-62.6624
-62.6396
-48.4757
-49.3362
-66.9315
-56.1256
-61.8522
-53.9266
-42.6384
-35.8858
-42.1473
-35.0651
-45.3783
-45.0789
-34.6685
-34.4231
-41.7025
-38.0195
-41.6815
-37.9987
-43.2728
-43.3002
-36.0679
-36.0652
-42.7206
-43.236
-50.6884
-48.5405
-45.2106
-41.467
-43.0427
-43.3722
-136.425
-7.57902
-136.447
-7.34983
-76.3422
-76.3376
74.6591
75.3183
-61.3451
-46.2522
-43.2651
-41.1628
-47.6578
-58.5419
-40.4613
-38.6044
-30.2318
-26.7152
-30.2135
-26.6311
-31.238
-31.232
-24.6546
-24.7277
-37.9912
-39.2161
-43.8033
-44.4673
-39.0143
-42.3962
-46.3451
-39.5051
-67.7349
107.64
-60.2216
109.522
-64.9645
-62.5357
173.363
178.482
-61.8396
-62.0316
-49.2719
-49.7318
-66.8069
-56.5457
-62.0389
-54.1654
-42.5661
-35.8265
-42.0728
-34.9991
-45.0371
-45.3261
-34.6246
-34.3741
-42.7663
-43.4194
-50.8005
-48.8744
-45.2073
-41.4743
-43.1482
-43.4841
-61.1328
-46.2356
-43.2124
-41.1726
-58.5426
-47.6686
-38.6124
-40.4601
-37.9561
-39.203
-43.7791
-44.4409
-42.3957
-38.963
-39.5276
-46.3356
-34.1039
-34.893
-34.4751
-35.0223
-34.3621
-34.648
-35.113
-35.099
-38.2824
-36.5014
-37.1706
-36.4436
-39.2497
-38.3462
-36.1657
-36.3501
-42.1116
-39.5136
-42.1071
-39.5071
-43.9965
-43.9953
-38.6771
-38.6448
-38.5831
-39.6619
-40.2812
-40.7338
-38.5362
-39.4212
-40.5945
-41.0463
-38.2222
-39.8757
-38.2388
-39.8956
-37.7841
-37.778
-40.7764
-40.7769
-45.0301
-55.2878
-47.2347
-54.5854
-45.4858
-44.7806
-66.5833
-61.5444
-6.97164
3.50178
-6.96731
3.49128
-11.2965
-11.2957
8.58799
8.60468
-60.5421
-56.9798
-60.5392
-56.9741
-64.3745
-64.3736
-56.1412
-56.1352
-34.1091
-34.8955
-34.2117
-34.9094
-34.3732
-34.6514
-35.1155
-35.0866
-38.2578
-36.4841
-37.1413
-36.4348
-38.3705
-39.2352
-36.1461
-36.3339
-38.5795
-39.6562
-40.2752
-40.7274
-39.4165
-38.5325
-40.5917
-41.0391
-44.9862
-55.3973
-47.2438
-54.5442
-44.7776
-45.5007
-61.5201
-66.5751
-67.3904
-69.3396
-71.7502
-57.6641
-55.1829
-70.671
-51.5981
-50.4008
-67.4288
-69.4038
-71.8482
-57.9256
-70.7387
-55.24
-50.4544
-51.6806
-70.0872
-70.099
-66.0408
-57.4258
-66.0485
-57.4473
-54.2431
-54.2311
-42.886
-42.886
-38.6589
-34.7882
-34.7971
-38.6632
-31.6092
-31.6185
200.809