# vtk DataFile Version 2.0
tri_press
ASCII
DATASET UNSTRUCTURED_GRID
POINTS 3682 float
-0.697992 0.275 -2.145
-0.715 0.395 2.13654
-0.685 0.652979 -2.145
-0.625 0.850224 2.175
0.697995 0.275 -2.145
0.715 0.395 2.13654
0.685 0.652979 -2.145
0.625 0.850204 2.175
-0.761531 0.25713 -0.71782
-0.775632 0.288699 0.70936
-0.820832 0.87456 -0.705
-0.789086 0.928561 0.735
0.761535 0.257129 -0.71782
0.775652 0.288679 0.70936
0.820819 0.87454 -0.705
0.789078 0.92854 0.735
-1.47073 -0.0682115 -3.29916
-1.47135 -0.00612318 -2.15228
-1.51423 -0.00688569 -0.725434
-1.5127 0.0121214 0.698835
-1.46132 0.0864636 2.12547
-1.45183 0.125221 3.27128
-1.46239 0.150176 4.41906
-1.46644 0.179951 -3.29455
-1.46927 0.267942 -2.14627
-1.53173 0.285409 -0.71693
-1.51503 0.297441 0.711259
-1.42915 0.353193 2.14036
-1.43273 0.389435 3.28635
-1.45498 0.416381 4.43372
-1.46298 0.640045 -3.28893
-1.47123 0.727601 -2.14118
-1.56933 0.878266 -0.703101
-1.52531 0.910142 0.73589
-1.38502 0.868821 2.17373
-1.4116 0.903538 3.31919
-1.45269 0.945708 4.46449
-1.47456 1.46494 -3.27086
-1.48673 1.56605 -2.1212
-1.52719 1.71218 -0.678956
-1.53882 1.78342 0.766046
-1.51114 1.77736 2.20815
-1.49715 1.77767 3.35754
-1.50057 1.79931 4.50424
-0.729059 -0.0667495 -3.29833
-0.711921 -0.00191837 -2.15108
-0.748889 -0.0220202 -0.725596
-0.765276 0.00628493 0.697214
-0.737817 0.108955 2.12263
-0.733328 0.139407 3.26936
-0.741381 0.156002 4.41795
-0.728092 0.173797 -3.2943
-0.725378 0.402665 3.28477
-0.739686 0.420588 4.43288
-0.722441 0.607792 -3.29052
-0.707019 0.898253 3.31945
-0.741543 0.942667 4.46454
-0.71884 1.44543 -3.27243
-0.72075 1.54904 -2.12292
-0.759026 1.71104 -0.679997
-0.788943 1.78847 0.766171
-0.783462 1.77485 2.20904
-0.775099 1.77207 3.35843
-0.777449 1.79437 4.50489
0.721953 -0.0667535 -3.29833
0.734887 -0.00192087 -2.15108
0.768155 -0.0220254 -0.725596
0.765166 0.00626991 0.697214
0.722641 0.108948 2.12263
0.704262 0.139398 3.26936
0.69905 0.15599 4.41795
0.704756 0.173794 -3.2943
0.685171 0.402655 3.28477
0.686562 0.420576 4.43288
0.706733 0.607788 -3.29052
0.652364 0.898237 3.31945
0.668411 0.942653 4.46454
0.775463 1.44542 -3.27243
0.791512 1.54903 -2.12292
0.782965 1.71102 -0.679997
0.729963 1.78845 0.766171
0.676987 1.77484 2.20904
0.665213 1.77206 3.35843
0.665776 1.79436 4.50489
1.46222 -0.0682222 -3.29916
1.47872 -0.00613326 -2.15228
1.52604 -0.00690149 -0.725434
1.52333 0.0120934 0.698834
1.46557 0.0864409 2.12547
1.43739 0.125198 3.27128
1.42951 0.150151 4.41906
1.44555 0.179941 -3.29455
1.46037 0.267932 -2.14627
1.53109 0.285393 -0.71693
1.52696 0.297409 0.711259
1.44346 0.353169 2.14036
1.41459 0.389411 3.28635
1.41363 0.416355 4.43372
1.45003 0.640034 -3.28893
1.46681 0.727588 -2.14118
1.56854 0.878238 -0.703101
1.53113 0.910105 0.73589
1.38968 0.868785 2.17373
1.37696 0.903508 3.31919
1.39125 0.945679 4.46449
1.52201 1.46492 -3.27086
1.54136 1.56603 -2.1212
1.54477 1.71216 -0.678957
1.49285 1.78339 0.766046
1.42468 1.77733 2.20815
1.4006 1.77764 3.35754
1.39714 1.79928 4.50424
-0.726998 0.46399 -2.1805
1.49012e-06 0.20282 -2.21718
-0.790162 0.205665 -1.43141
-0.702403 0.622612 2.18817
0 0.367338 2.1642
-0.816886 0.270279 1.42295
0 0.731213 -2.22323
-0.822422 0.833276 -1.425
0 0.909953 2.23474
-0.756263 0.938613 1.455
0.72701 0.46399 -2.18051
0.789881 0.205948 -1.43141
0.702365 0.622602 2.18813
0.816958 0.270208 1.42295
0.822447 0.833297 -1.425
0.756273 0.938607 1.455
-0.768646 0.27285 -0.00423002
-0.845809 0.565845 -0.71141
1.73625e-06 0.259487 -0.71782
-0.849628 0.60863 0.72218
1.01852e-05 0.270974 0.70936
-0.803973 0.900575 0.015
-6.36417e-06 1.03354 -0.705
-3.88805e-06 1.40324 0.735
0.768649 0.272848 -0.00423002
0.845807 0.565834 -0.71141
0.849626 0.60861 0.72218
0.80398 0.900571 0.015
-0.893859 0.514917 -1.42821
0.893858 0.514912 -1.42821
1.61318e-06 0.262519 -1.43141
-3.18209e-06 0.896708 -1.425
7.45058e-07 0.46399 -2.39395
-0.847709 0.587237 0.00538498
0.847706 0.587222 0.00538498
5.96073e-06 0.265267 -0.00423002
-5.12611e-06 1.36164 0.015
-0.894067 0.615621 1.43898
0.894068 0.615606 1.43898
5.09261e-06 0.328499 1.42295
-1.94402e-06 1.2362 1.455
0 0.622607 2.37112
-0.719562 0.369495 -2.16982
-0.348995 0.205619 -2.21438
-0.779546 0.204863 -1.78821
-0.716058 0.508806 2.16971
-0.3575 0.360056 2.17148
-0.823154 0.275428 1.77974
-0.7213 0.558484 -2.17805
-0.3425 0.717135 -2.20916
-0.79077 0.780186 -1.785
-0.672066 0.736418 2.18995
-0.3125 0.897798 2.22258
-0.725241 0.929028 1.815
0.348998 0.205521 -2.21448
0.719608 0.369495 -2.16986
0.779385 0.205027 -1.78821
0.3575 0.360069 2.17147
0.716028 0.508801 2.16968
0.823169 0.275414 1.77974
0.3425 0.71714 -2.20916
0.721048 0.558484 -2.1778
0.790795 0.78021 -1.785
0.3125 0.897778 2.22257
0.672034 0.736403 2.18992
0.725253 0.929022 1.815
-0.79725 0.209994 -1.07462
-0.765129 0.26495 -0.361025
-0.818442 0.404102 -0.714615
-0.373781 0.272277 -0.71782
-0.810332 0.265416 1.06616
-0.77195 0.280964 0.352565
-0.826546 0.441706 0.71577
-0.380244 0.294969 0.70936
-0.823946 0.856236 -1.065
-0.855527 0.731305 -0.708205
-0.813696 0.888861 -0.345
-0.437347 1.0079 -0.705
-0.782397 0.943309 1.095
-0.845457 0.781646 0.72859
-0.79443 0.912469 0.375
-0.498383 1.37358 0.735
0.796798 0.210448 -1.07462
0.373786 0.272272 -0.71782
0.765138 0.264942 -0.361025
0.818438 0.404098 -0.714615
0.811027 0.264722 1.06616
0.380229 0.295031 0.70936
0.771954 0.280961 0.352565
0.826562 0.441683 0.71577
0.823968 0.856253 -1.065
0.437343 1.00791 -0.705
0.855524 0.731293 -0.708205
0.813699 0.888855 -0.345
0.782391 0.943289 1.095
0.49838 1.37357 0.735
0.845452 0.781625 0.72859
0.794442 0.912469 0.375
-0.867493 0.489453 -1.80435
-0.363498 0.46399 -2.35338
1.55165e-06 0.25765 -1.8243
1.11759e-06 0.333405 -2.33937
-0.894136 0.360291 -1.42981
-0.39508 0.249125 -1.43141
-0.858105 0.619117 1.81357
-0.351202 0.62261 2.35694
2.5463e-06 0.334269 1.79358
0 0.494972 2.35445
-0.894569 0.44295 1.43096
-0.408441 0.320986 1.42295
-1.59104e-06 0.851631 -1.82412
3.72529e-07 0.597601 -2.36931
-0.894889 0.674096 -1.4266
-0.411213 0.893164 -1.425
-9.72012e-07 1.07262 1.84487
0 0.76628 2.36229
-0.894594 0.777117 1.44699
-0.378132 1.22987 1.455
0.867499 0.489451 -1.80436
0.363505 0.46399 -2.3534
0.894134 0.36043 -1.42981
0.394941 0.249077 -1.43141
0.858109 0.619104 1.81356
0.351183 0.622605 2.35694
0.894569 0.442907 1.43096
0.408482 0.320996 1.42295
0.894888 0.674105 -1.4266
0.411222 0.893155 -1.425
0.894786 0.777106 1.44699
0.378136 1.22987 1.455
-0.822391 0.422937 0.00057748
-0.374911 0.287876 -0.00423002
-0.876863 0.540381 -1.06981
-0.846748 0.576541 -0.353013
1.67472e-06 0.266561 -1.07462
3.84849e-06 0.262302 -0.361025
-0.848669 0.597934 0.363783
-0.885012 0.612126 1.08058
8.07297e-06 0.268087 0.352565
7.63891e-06 0.319137 1.06616
-0.851393 0.756682 0.0101925
-0.506046 1.33922 0.015
-4.77313e-06 0.920685 -1.065
-5.74514e-06 1.23283 -0.345
-4.50708e-06 1.4071 0.375
-2.91604e-06 1.38528 1.095
0.822388 0.42293 0.00057748
0.374875 0.287963 -0.00423002
0.876865 0.540373 -1.06981
0.846745 0.576528 -0.353013
0.848666 0.597916 0.363783
0.885011 0.612108 1.08058
0.851392 0.756671 0.0101925
0.506046 1.33922 0.015
-0.874775 0.364893 -1.79628
-0.876473 0.385889 -1.07221
-0.868107 0.697149 -1.0674
-0.871142 0.61629 -1.79468
0.874748 0.364962 -1.79628
0.871163 0.616294 -1.79468
0.867954 0.697146 -1.0674
0.876473 0.385956 -1.07221
-0.372038 0.2441 -1.80625
0.37197 0.243955 -1.80625
0.387855 0.257907 -1.07462
-0.387922 0.257991 -1.07462
-0.376856 0.851321 -1.80456
-0.410816 0.917612 -1.065
0.410814 0.917597 -1.065
0.376861 0.85132 -1.80456
-0.356247 0.35145 -2.33505
-0.352999 0.578043 -2.33813
0.353003 0.578043 -2.33816
0.356252 0.35145 -2.33507
-0.820437 0.413509 -0.357019
-0.824347 0.432382 0.358174
-0.848947 0.769425 0.369391
-0.853461 0.743994 -0.349006
0.820432 0.413505 -0.357019
0.853459 0.743982 -0.349006
0.848956 0.769415 0.369391
0.824347 0.432371 0.358174
-0.374358 0.280052 -0.361025
0.374345 0.280088 -0.361025
0.375196 0.296209 0.352565
-0.37524 0.296099 0.352565
-0.489009 1.20819 -0.345
-0.512201 1.37637 0.375
0.5122 1.37637 0.375
0.489003 1.20818 -0.345
-0.885745 0.445807 1.07337
-0.862958 0.475878 1.79666
-0.841948 0.756767 1.81429
-0.864693 0.772856 1.08779
0.885744 0.445776 1.07337
0.864721 0.772841 1.08779
0.841927 0.756755 1.81428
0.862959 0.475854 1.79665
-0.398126 0.312073 1.06616
0.398156 0.312082 1.06616
0.382991 0.323964 1.78666
-0.38297 0.323956 1.78666
-0.386339 1.33298 1.095
-0.345316 1.0743 1.82993
0.345318 1.07431 1.82993
0.386336 1.33298 1.095
-0.354351 0.501889 2.34464
0.354341 0.501887 2.34425
0.331841 0.751342 2.33282
-0.331851 0.751349 2.33276
-0.697635 0.322247 -2.14627
-0.523494 0.222301 -2.1977
-0.7664 0.2123 -1.9666
-0.716 0.451903 2.1536
-0.53625 0.348027 2.18351
-0.779727 0.324565 1.95814
-0.703863 0.605732 -2.16224
-0.51375 0.694105 -2.18613
-0.748816 0.727514 -1.965
-0.650873 0.793321 2.18482
-0.46875 0.883711 2.20849
-0.690723 0.905228 1.995
0.523497 0.222266 -2.19773
0.697608 0.322247 -2.14624
0.766401 0.212303 -1.9666
0.53625 0.34816 2.18338
0.715989 0.451901 2.15359
0.779717 0.324574 1.95814
0.51375 0.694111 -2.18613
0.703897 0.605732 -2.16227
0.748816 0.727513 -1.965
0.46875 0.883724 2.20852
0.650852 0.793303 2.18479
0.690737 0.905224 1.995
-0.771406 0.241547 -0.896218
-0.763375 0.260995 -0.539423
-0.792967 0.329126 -0.716218
-0.576737 0.246542 -0.71782
-0.822898 0.247141 0.887758
-0.773677 0.284945 0.530963
-0.807458 0.362018 0.712565
-0.584547 0.278617 0.70936
-0.823706 0.866715 -0.885
-0.839004 0.803345 -0.706603
-0.817633 0.882079 -0.525
-0.652419 0.987891 -0.705
-0.786259 0.936453 0.915
-0.822645 0.857791 0.731795
-0.791785 0.920542 0.555
-0.667357 1.19831 0.735
0.771013 0.241941 -0.896218
0.576752 0.246517 -0.71782
0.763377 0.260994 -0.539423
0.792962 0.329125 -0.716218
0.822896 0.247144 0.887758
0.584571 0.278594 0.70936
0.77369 0.284933 0.530963
0.807458 0.362006 0.712565
0.823718 0.866721 -0.885
0.652411 0.987886 -0.705
0.839005 0.803333 -0.706603
0.817633 0.882071 -0.525
0.786258 0.936438 0.915
[...]
POINT_DATA 3682
SCALARS point_scalars float 1
LOOKUP_TABLE default
-31.9332
-43.8083
6.00759
-36.7005
-33.3275
-43.7458
6.61794
-36.6433
-31.9916
-26.0351
-48.8978
-43.0708
-31.9721
-26.0284
-48.7228
-43.0876
53.7518
-85.3451
-44.5416
-38.6241
-51.3059
-39.6205
-37.3609
59.8164
-83.2661
-43.7903
-21.5966
-47.4556
-38.5191
-37.2674
81.4105
-71.9998
-39.8785
-37.7479
-43.2574
-37.3218
-37.0893
17.0162
-47.7117
-80.046
-55.8471
-39.7593
-37.0988
-36.6517
117.735
-115.179
-33.3078
-31.6596
-47.5993
-39.1826
-36.9657
145.439
-37.2344
-36.9382
171.586
-36.7061
-36.3646
83.0466
-46.1728
-37.4599
-57.5566
-34.8243
-35.6326
-34.9928
117.415
-111.162
-33.204
-31.645
-47.3686
-38.6514
-36.8922
145.438
-37.2016
-36.8922
171.932
-36.5055
-36.222
84.0826
-44.6069
-43.7424
-59.236
-34.2345
-34.9303
-34.7931
53.4033
-86.3307
-44.5506
-38.4716
-58.1138
-39.6847
-37.3217
58.4585
-84.0864
-43.8258
-21.5705
-47.4702
-38.4736
-37.1093
81.0188
-71.8183
-39.8943
-37.6924
-43.1869
-37.2825
-36.9839
17.7468
-47.6963
-81.1683
-55.8195
-37.527
-36.3518
-36.5836
25.0713
-193.239
-56.4761
-39.1196
-41.8163
-41.8322
1.64407
-47.5542
-31.3797
-44.7142
26.1799
-56.6889
-39.0691
-41.7884
-47.54
-44.7047
-30.4797
-34.8442
-34.9138
-31.2346
-38.6655
-48.2228
29.6766
-67.7409
-30.6254
-34.8286
-31.2257
-48.2345
-61.6931
-61.6805
-58.9791
-17.6574
204.934
-35.4538
-35.4559
-32.0397
-84.0193
-47.8228
-47.7997
-37.452
-36.9296
-34.7804
14.4909
-205.936
-86.3934
-40.7424
-43.1205
-52.4426
27.6285
-1.10985
-47.6373
-38.0504
-33.4359
-39.6093
-205.473
14.3292
-86.6082
-43.118
-40.6915
-52.6963
-1.13908
28.0142
-47.6115
-33.3681
-38.0005
-39.5495
-45.5351
-30.5063
-33.0942
-34.9436
-39.0409
-30.1421
-26.0399
-35.3219
-38.9756
-38.8789
-51.6026
21.6911
-45.733
-38.1651
-45.3126
-61.5554
-45.4976
-34.9331
-30.5098
-33.0682
-38.9685
-35.3178
-30.2174
-26.0352
-38.9683
21.576
-38.8649
-51.5914
-45.7558
-61.5392
-38.173
-45.3417
-71.8241
188.085
-90.6119
89.6437
-60.5319
-57.7804
-49.14
-36.5729
-41.3959
-36.1759
-47.4758
-38.3089
-43.2642
150.725
-61.5736
-22.7962
-31.3171
-30.1198
-48.0081
-38.0804
-71.8849
188.139
-60.527
-57.7753
-49.1065
-36.5248
-47.4462
-38.3085
-61.5706
-22.796
-47.9935
-38.0709
-32.4029
-31.6872
-46.4089
-35.0966
-43.0889
-32.6013
-34.1618
-37.0171
-33.4262
-35.3784
-41.3542
-83.4581
5.61526
-11.2339
-82.4925
-50.5703
-32.405
-31.6894
-46.4121
-35.0953
-34.1437
-36.9993
-41.3807
-83.4375
-72.8001
-47.1291
-43.5189
-67.8576
-72.6049
-67.8948
-43.5076
-47.1088
-86.6822
-86.6908
-43.2328
-43.2453
-43.7717
-1.03519
-1.03795
-43.8245
103.324
149.714
149.598
103.287
-31.8779
-31.3792
-39.9233
-41.8718
-31.8799
-41.8682
-39.8685
-31.3711
-32.2164
-32.2141
-32.5297
-32.5397
-19.0784
-70.6642
-70.6406
-19.0638
-38.562
-51.2523
-45.8123
-37.2055
-38.5574
-37.1733
-45.7772
-51.2352
-35.7894
-35.7931
-44.6415
-44.6563
-50.2063
-32.3816
-32.3571
-50.1953
-37.3506
-37.3177
-35.0998
-35.1901
-5.54003
-147.061
-107.481
-42.2075
-43.8079
-48.6659
18.6189
6.50376
-32.5696
-37.5596
-34.8849
-37.3106
-147.329
-5.92131
-107.596
-43.7672
-42.1529
-48.5885
6.89588
19.2243
-32.5829
-34.8286
-37.5025
-37.2493
-41.3638
-30.5808
-32.2433
-34.5253
-31.938
-29.608
-24.2635
-34.7271
-38.0067
-43.4295
-51.3411
-4.30029
-43.4391
-40.3001
-43.9905
-51.3548
-41.2687
-34.508
-30.5755
-32.2178
-31.8787
-34.7199
-29.5959
-24.2654
-38.0014
-4.457
-43.4072
-51.3324
-43.4132
-51.3271
-40.3198
-44.0008
22.197
28.6983
-85.811
141.251
-197.236
-197.174
-116.999
28.3034
-66.9674
-50.2547
-59.6228
-56.5997
-39.699
-38.6772
-45.109
-37.103
-42.2034
-42.19
-42.5161
-37.7909
-45.8378
-39.478
-46.1445
-39.4321
-1.29255
-1.23876
-47.7305
66.4019
-47.0919
-46.6416
-62.8494
-30.5294
-32.0729
-32.0214
-31.2259
-29.6688
-41.9712
-46.9935
-46.5905
-40.665
21.9814
28.0983
-85.9593
140.98
-66.822
-49.806
-59.6517
-56.5957
-39.6512
-38.6309
-45.0599
-37.0657
-45.746
-39.9216
-46.1011
-39.4306
-47.053
-46.6414
-62.8487
-30.5003
-41.9392
-46.9876
-46.554
-40.6445
-30.6086
-30.5771
-31.2674
-31.3036
-33.9397
-36.4028
-38.5588
-34.5608
-34.7982
-34.791
-38.0193
-33.7498
-28.7666
-34.2794
-32.7543
-30.8996
-37.8354
-37.8384
-35.1285
-36.2162
-50.2548
-48.8247
-44.3028
-65.9976
27.7666
27.7592
17.6186
21.921
-66.8382
-66.8316
-75.9624
-57.8614
-30.622
-30.617
-31.2688
-31.3025
-33.9198
-36.3884
-38.5288
-34.5532
-28.7585
-34.274
-32.7426
-30.8865
-50.2588
-48.4698
-44.3375
-65.9651
-68.1963
-61.1792
-61.4085
-54.3744
-68.1404
-61.1635
-61.3978
-54.3545
-72.7638
-58.6583
-58.6562
-49.769
-30.5288
-18.9329
-18.9316
-6.46342
198.895
173.726
200.969
198.907
-33.8454
-35.4814
-35.0571
-37.9028
-33.8463
-35.4841
-35.0465
-37.9115
-31.9265
-32.0652
-32.5457
-31.9253
-83.5973
-56.2272
-85.5488
-83.589
-51.3676
-47.7508
-47.6801
-45.223
-51.3367
-47.7255
-47.6611
-45.2065
-39.2384
-37.6299
-37.6285
-36.2894
-33.252
-37.0972
-37.093
-42.1488
-35.6192
-35.1627
-31.7026
-35.5686
-82.5961
94.386
-113.695
41.5601
-73.3272
-83.1445
-46.8954
-37.7889
-43.2178
-39.7191
-54.3588
-45.9302
-66.556
113.972
-45.978
73.4338
-57.1756
-45.7328
-43.4974
-36.6855
-32.2302
-34.2741
-43.8566
-34.11
-113.703
40.4095
-82.9723
94.4389
-73.1117
-83.3164
-43.1868
-39.3775
-46.8487
-37.7626
-54.4621
-45.9205
-45.9694
73.2917
-66.561
114.227
-57.2103
-45.7412
-32.1947
-34.172
-43.436
-36.6374
-43.804
-34.084
-47.3679
-44.0134
-30.9635
-31.7379
-41.6669
-31.679
-38.4473
-33.3275
-38.5654
-37.1435
-30.5175
-31.9057
-29.6784
-25.8479
-33.6528
-38.0159
-42.8243
-10.6641
-38.3472
-40.7601
-46.4335
-80.7644
9.46509
13.1679
-41.7606
-51.9359
-38.8686
-37.6978
-42.4368
-55.4642
-65.7083
-57.2927
-47.345
-43.9802
-38.4328
-33.3194
-30.966
-31.7364
-41.6461
-31.6706
-38.543
-37.1549
-33.6475
-38.0165
-30.5125
-31.8991
-29.6705
-25.829
-42.8191
-10.6706
9.4445
13.1982
-38.3294
-40.7536
-46.4295
-80.5269
-41.7558
-51.9109
-65.6864
-57.2845
-38.8623
-37.6902
-42.4158
-55.4341
-71.5791
-71.3789
170.635
180.638
-89.2396
-89.2452
92.5269
93.4667
-67.6166
-54.8917
-70.2204
-49.3575
-50.2667
-47.6433
-36.8021
-36.0447
-41.6433
-41.649
-36.436
-36.4012
-44.4814
-52.0479
-36.9036
-40.2394
-43.0235
-43.0278
156.566
156.602
-53.7013
-70.3941
-33.7365
-12.5303
-31.6076
-31.5928
-32.1906
-32.2963
-49.0889
-45.4833
-43.2775
-34.3905
-71.5465
-71.4231
180.626
170.663
-67.6047
-54.8603
-70.2238
-49.3468
-47.6173
-50.2357
-36.7643
-35.9766
-44.4755
-52.004
-36.8981
-40.2427
-70.3672
-53.6886
-12.5299
-33.703
-45.4551
-49.0524
-34.3706
-43.2664
-32.2745
-32.156
-31.7264
-31.9878
-47.0476
-45.3132
-33.3843
-37.8135
-43.0716
-43.078
-32.4896
-32.4868
-32.6967
-36.4231
-37.8321
-36.1206
-33.2616
-33.2891
-35.5081
-35.5078
-41.0309
-42.0512
-65.9094
-77.2079
4.09142
4.09897
-10.8228
-10.4195
-80.6265
-80.6143
-49.7443
-49.7183
-32.2787
-32.1529
-31.7257
-31.9824
-45.3247
-47.0401
-33.3838
-37.812
-36.3941
-32.685
-37.82
-36.1012
-42.0593
-40.9946
-77.1954
-65.8824
-84.0282
-66.0165
-68.4969
-84.9315
-43.7618
-39.7841
-54.7799
-54.821
-40.1134
-54.7707
-54.3685
-38.3667
-50.7882
-78.9471
-68.4283
-65.8539
-85.0414
-85.0118
-68.4747
-65.9894
-50.7967
-65.816
-68.3896
-79.0958
-40.1006
-38.3398
-54.3555
-54.7653
-43.7443
-54.7446
-54.7576
-39.7371
-111.603
-115.619
-71.9671
-67.5607
-111.579
-67.5284
-71.9683
-115.631
-38.847
-38.0835
-49.6089
-49.2354
-38.8807
-49.2572
-49.6139
-38.0908
-39.9444
-38.4931
-31.2649
-48.7686
-4.28647
15.3606
-7.92311
-20.1817
-4.28515
-20.1798
-7.92039
15.3803
-39.9603
-48.7402
-31.2601
-38.5007
54.0671
126.285
168.991
46.9582
67.5566
63.2627
193.667
141.317
66.4503
141.373
193.657
61.6613
53.8816
46.9429
169.023
126.074
-30.7271
-31.0661
-33.7689
-33.0397
-28.9792
-31.1265
-33.5413
-31.2001
-41.154
-44.4939
-37.4277
-35.2428
-45.6553
-37.0613
-38.122
-45.9624
-30.7176
-33.0313
-33.7714
-31.0691
-45.6483
-45.9705
-38.1265
-37.054
-41.2014
-35.2306
-37.4108
-44.5364
-28.9731
-31.1992
-33.5347
-31.1161
-32.7611
-33.6421
-31.9601
-31.3326
-32.7538
-31.3343
-31.9581
-33.6378
-32.6229
-34.6977
-32.3638
-31.5241
-32.6319
-31.5263
-32.3645
-34.699
-51.4255
-75.0113
-57.0877
21.3074
-52.7092
-74.3818
-83.4444
-59.5475
-52.678
-59.5061
-83.4385
-74.3704
-51.6286
21.2863
-57.0683
-74.9981
-21.6141
-42.7811
-45.0787
-28.5366
-47.6406
-45.8998
-51.8535
-51.2225
-41.3114
-45.807
-50.8272
-44.3973
-40.2362
-33.9023
-45.3923
-47.2484
-21.59
-28.5213
-45.0663
-42.8075
-40.2117
-47.2035
-45.3731
-33.8843
-41.2425
-44.3432
-50.7956
-45.7737
-47.5798
-51.1977
-51.8206
-45.8525
-35.6636
-36.6273
-36.4603
-38.1123
-35.6474
-38.1305
-36.4586
-36.628
-42.9414
-42.7408
-39.4862
-42.0843
-42.9843
-42.0938
-39.4902
-42.7486
-49.7035
-46.131
-42.2411
-58.1699
-33.3987
-31.5236
-33.5901
-36.6241
-33.3548
-36.6104
-33.584
-31.5089
-49.672
-58.1598
-42.234
-46.1125
-39.8036
-38.0789
-36.055
-37.2439
-39.7074
-37.2067
-36.0125
-38.0486
-36.1643
-31.2231
-33.8694
-36.9147
-36.2231
-36.9565
-33.9517
-31.4183
-10.8958
-67.2198
-93.7708
-42.9153
-44.3562
-47.278
13.782
12.976
-19.3156
-37.252
-35.6314
-36.6331
-67.8573
-17.4402
-93.2813
-44.2996
-42.8584
-47.2017
11.1063
14.4734
-19.3536
-35.5769
-37.1943
-36.5752
-35.5212
-30.9324
-32.0935
-33.502
-18.7137
-27.5663
-24.0336
-32.559
-44.1816
-46.2562
-51.6097
-41.2785
-43.0901
-41.6881
-43.4596
-46.7234
-35.4656
-33.4834
-30.9221
-32.0713
-18.7378
-32.5441
-27.5597
-24.0378
-44.0882
-41.703
-46.1832
-51.5933
-43.0931
-46.7031
-41.7084
-43.4736
24.3782
24.8308
-51.842
87.5715
-191.047
-191.261
-135.711
-43.4608
-60.8713
-52.8195
-59.1576
-56.2731
-39.4087
-38.8856
-42.867
-37.5549
-41.9014
-41.8942
-42.6282
-39.4206
-43.5811
-40.2293
-44.4764
-40.5259
1.57375
1.08737
-33.2176
13.8374
-47.2308
-47.6527
-59.0187
-36.4295
-31.5929
-31.564
-31.5716
-30.5123
-43.3763
-46.0578
-45.4731
-42.4289
24.2901
24.4217
-51.8411
87.1899
-60.9823
-52.9772
-59.2467
-56.3072
-39.3595
-38.836
-42.8103
-37.5111
-43.4805
-40.3127
-44.431
-40.5055
-47.1547
-47.6787
-59.0142
-36.3541
-43.3451
-46.0479
-45.4584
-42.4053
-30.6062
-30.6558
-30.7113
-30.8283
-34.39
-35.5001
-35.9532
-34.4865
-34.6945
-34.6904
-35.7447
-34.6154
-29.8886
-32.6588
-31.9718
-30.4005
-38.3701
-38.3728
-35.919
-37.2577
-49.638
-49.6091
-45.437
-55.7487
29.1921
29.2133
24.4157
30.2745
-67.5934
-67.5902
-72.1064
-62.8376
-30.6141
-30.6603
-30.7042
-30.8296
-34.3729
-35.4851
-35.9327
-34.475
-29.8797
-32.651
-31.9624
-30.3897
-49.6429
-49.8057
-45.4693
-55.7235
-64.3185
-61.4118
-61.5639
-57.4646
-64.2991
-61.3969
-61.5504
-57.4459
-65.3072
-58.8246
-58.8234
-53.977
-23.7117
-17.9908
-17.9898
-12.2619
203.016
196.086
206.832
203.018
-34.6207
-35.5105
-35.326
-36.5352
-34.622
-35.5139
-35.3237
-36.5394
-31.9995
-31.9938
-32.2252
-31.9986
-83.7704
-77.7588
-85.2662
-83.7709
-50.5617
-47.8268
-47.7744
-46.309
-50.5346
-47.8028
-47.7529
-46.2882
-38.3235
-37.492
-37.4908
-36.6937
-34.8294
-36.8946
-36.8912
-39.1617
-35.0586
-34.8942
-33.5712
-35.0288
4.50224
19.2486
-55.3315
47.4776
-198.306
-199.015
-140.571
-31.1301
-100.741
-75.7874
-78.5306
-83.6242
-41.4836
-40.2046
-44.8894
-38.4867
-43.0482
-42.6258
-43.1024
-40.6312
-53.5562
-46.8674
-55.4091
-46.6778
23.8672
30.9212
-39.99
76.9076
5.12684
-3.65357
-23.3444
29.8742
-43.5936
-52.4945
-51.2086
-47.4333
-37.8128
-38.4062
-40.7123
-37.038
-34.21
-32.7347
-32.8047
-33.7782
-37.9583
-40.4876
-42.1832
-36.6046
-198.349
-199.008
-140.618
-33.3619
4.1906
19.0525
-55.6713
47.11
-100.653
-75.7075
-78.5367
-84.0533
-43.008
-42.6325
-43.0816
-40.6193
-41.4309
-40.1553
-44.8327
-38.4399
-53.5553
-46.7224
-57.2577
-46.6983
5.02206
-3.65525
-23.3335
29.7827
24.2629
31.2774
-40.3001
77.5146
-43.5484
-52.5072
-51.2079
-47.4054
-34.1426
-32.6685
-32.7524
-33.6855
-37.7586
-38.3588
-40.6626
-36.9935
-37.8812
-40.4411
-42.1219
-36.5572
-47.6175
-46.9654
-47.5593
-44.803
-30.5113
-30.8329
-30.6419
-31.126
-32.6036
-33.5204
-36.7502
-32.0656
-34.9953
-34.6754
-36.3874
-34.093
-45.0595
-39.5957
-39.0852
-38.0223
-30.3504
-30.5283
-30.0325
-31.0841
-24.9547
-27.4003
-28.2185
-22.9954
-34.4212
-36.5959
-34.6093
-35.287
-37.6894
-41.93
-42.4582
-21.4211
-40.5727
-37.603
-38.1533
-39.9336
-51.819
-51.3664
-49.0556
-62.5472
14.3143
25.2939
15.1964
21.4501
-44.066
-47.1413
-44.3375
-48.3182
-39.1012
-36.0947
-38.419
-37.7926
-44.5703
-46.4424
-43.9399
-49.7695
-56.3948
-65.2953
-64.1237
-60.995
-47.5826
-46.933
-47.5149
-44.7601
-34.9806
-34.6649
-36.376
-34.0831
-30.5057
-30.8408
-30.6457
-31.1298
-32.5765
-33.4968
-36.7132
-32.0493
-44.8282
-39.6968
-39.052
-38.0379
-34.4175
-36.5962
-34.6038
-35.2865
-30.4212
-30.5013
-30.0143
-31.0762
-24.952
-27.394
-28.2113
-22.9878
-37.6798
-41.926
-42.451
-21.4247
14.2982
25.2867
15.427
21.4858
-40.5579
-37.589
-38.1377
-39.9238
-51.8104
-51.3704
-49.049
-62.5383
-44.0726
-47.1501
-44.3782
-48.2963
-56.3701
-65.2811
-64.1035
-60.9766
-39.116
-36.0937
-38.4184
-37.8024
-44.5894
-46.3008
-43.9403
-49.7431
-75.9546
-74.3053
-71.567
-71.4086
171.925
195.588
181.575
189.098
-101.761
-81.0891
-89.9867
-89.9888
83.1503
129.267
87.952
88.0235
-60.2071
-60.8721
-63.2935
-56.6446
-57.1917
-58.2072
-63.5371
-53.1735
-46.6773
-50.5432
-49.7619
-48.3917
-36.948
-36.1209
-36.7063
-36.3655
-42.3485
-40.1989
-41.4987
-41.5019
-36.9279
-35.5845
-36.2456
-36.221
-47.0179
-47.6656
-45.802
-50.6632
-38.8525
-37.849
-37.4004
-39.2521
-50.118
-36.0341
-42.9427
-42.9623
115.839
180.185
152.408
152.488
-62.3728
-61.3022
-56.9909
-65.3666
-26.0329
-20.4754
-28.4668
-17.6701
-31.0269
-32.1297
-31.4046
-31.397
-29.5378
-30.8796
-30.7105
-30.7728
-48.1211
-47.7276
-50.4911
-46.7296
-38.9539
-37.466
-40.4679
-36.0288
-75.8668
-74.3278
-71.5721
-71.4624
172.061
195.63
189.159
181.624
-60.2096
-60.8597
-63.2893
-56.6228
-57.1829
-58.2025
-63.5355
-53.1655
-46.6261
-50.5105
-48.364
-49.7288
-36.9091
-36.0709
-36.6643
-36.3076
-46.9838
-47.6384
-45.7873
-50.6231
-38.848
-37.8479
-37.3919
-39.2541
-62.3709
-61.2951
-65.3697
-56.9839
-26.0248
-20.4749
-17.6687
-28.4705
-48.1645
-47.7104
-46.6828
-50.4816
-38.9386
-37.4592
-36.0165
-40.4587
-31.7962
-33.0774
-32.2875
-32.2722
-31.5418
-31.7606
-31.6761
-31.8436
-42.6243
-50.5554
-46.7637
-46.0326
-34.8274
-35.3422
-34.2413
-36.3529
-40.5447
-46.1499
-43.0405
-43.0435
-33.0829
-32.2649
-32.5507
-32.5487
-33.5136
-34.6548
-33.3799
-35.1846
-33.1702
-42.5705
-37.5957
-36.4507
-34.0214
-32.9587
-33.5959
-33.5992
-36.0355
-35.8954
-35.3557
-35.3552
-43.2954
-39.4661
-41.5075
-41.6904
-83.4609
-83.611
-78.954
-79.5929
11.5174
-0.33461
5.27188
5.27548
8.5061
-33.5473
-10.874
-10.7226
-79.4883
-85.0411
-82.1136
-82.1087
-52.806
-45.6403
-49.653
-49.648
-31.7984
-33.0789
-32.2914
-32.2723
-31.5397
-31.7575
-31.6792
-31.8366
-42.6005
-50.5415
-46.0505
-46.7614
-34.8002
-35.3432
-34.2402
-36.3514
-33.4987
-34.6373
-35.1617
-33.3656
-33.1541
-42.5565
-37.5813
-36.4308
-43.3272
-39.4847
-41.704
-41.5392
-83.4368
-83.5559
-79.5727
-78.9454
-73.8025
-74.3018
-72.7842
-77.0594
-47.2601
-43.5708
-51.4382
-47.1979
-42.7976
-40.0413
-48.9719
-44.2699
-70.1231
-63.4751
-70.2573
-74.0345
-73.6688
-73.9999
-72.7025
-77.0868
-70.1444
-63.5329
-70.3352
-73.9866
-42.7963
-40.0323
-48.9652
-44.2664
-47.235
-43.5597
-51.4119
-47.1841
-98.2786
-84.9498
-87.9945
-77.6735
-98.287
-84.9632
-88.0035
-77.6823
-43.4726
-40.8802
-46.0477
-43.065
-43.4908
-40.8934
-46.0608
-43.0744
-47.6447
-44.6014
-43.213
-38.996
-5.56763
4.39907
-6.99998
2.04435
-5.57417
4.38354
-7.00101
2.04854
-47.6521
-44.6005
-43.2225
-38.9774
110.252
59.2989
139.532
96.5114
137.655
119.403
169.27
157.494
119.302
136.747
157.466
169.11
59.3602
110.16
96.6513
139.598
-31.4268
-31.7732
-32.1187
-32.5978
-30.9706
-30.7369
-31.8694
-31.9806
-39.3363
-41.2892
-37.9831
-40.7019
-41.3542
-44.4697
-39.6727
-41.9778
-31.4289
-31.7708
-32.1228
-32.5988
-41.3485
-44.464
-39.6704
-41.9801
-39.3184
-41.2437
-37.941
-40.6207
-30.9635
-30.7285
-31.8634
-31.9708
-32.0212
-32.7065
-31.9249
-32.2744
-32.7032
-32.018
-32.2709
-31.9209
-32.4727
-32.2418
-32.7805
-32.2793
-32.2484
-32.4814
-32.279
-32.7909
-47.2557
-0.283802
-41.5746
-12.3796
-62.9736
-68.5285
-73.0915
-77.2189
-68.505
-62.945
-77.1994
-73.0673
-0.292195
-47.232
-12.4393
-41.5541
-38.8336
-33.5775
-41.9261
-38.2018
-48.856
-52.0444
-50.817
-51.981
-44.5503
-44.7962
-46.7767
-47.5553
-38.9651
-35.9286
-41.3091
-36.1525
-38.8357
-33.554
-41.9267
-38.1928
-38.9296
-35.8971
-41.2971
-36.1322
-44.5002
-44.7539
-46.7494
-47.5226
-48.8256
-52.0634
-50.7926
-51.9571
-36.2181
-37.0761
-36.5665
-35.5884
-36.2265
-37.0749
-36.5695
-35.5874
-43.8103
-47.8381
-42.209
-41.76
-43.8229
-47.846
-42.2172
-41.7816
-51.1175
-53.8828
-46.7044
-49.9288
-32.0442
-33.0083
-31.9271
-33.1822
-32.0102
-32.9805
-31.9066
-33.1653
-51.1017
-53.8573
-46.6951
-49.9159
-37.6362
-38.1919
-36.9826
-36.6476
-38.0181
-37.6063
-36.6085
-36.9487
-34.6849
-36.0881
-33.7639
-35.5629
-36.1524
-34.7826
-35.6408
-33.8719
-52.5753
18.8401
-140.201
-22.2187
-86.9669
-122.57
-45.6014
-39.6122
-42.6324
-40.2377
-48.2442
-46.5041
-29.7071
54.4742
-20.7619
34.4082
-39.8116
-32.0302
-39.346
-36.7032
-33.8526
-35.7307
-39.3379
-34.9999
-140.073
-22.5266
-52.1413
19.0566
-88.0571
-122.451
-42.6078
-40.2569
-45.5348
-39.6872
-48.1672
-46.4824
-20.8172
34.1336
-29.8403
54.0624
-39.8078
-32.0867
-33.8056
-35.6688
-39.2785
-36.6536
-39.2701
-34.9859
-42.5541
-39.3316
-30.4568
-31.8028
-36.3649
-31.0083
-36.0183
-33.5954
-26.2179
-37.6032
-29.2831
-31.1896
-27.1643
-17.4999
-33.2989
-35.2878
-41.2692
-24.1841
-41.2493
-44.8768
-48.4119
-69.8496
0.0316623
-20.095
-42.1623
-46.1104
-40.7447
-40.0438
-42.5412
-47.8539
-51.7476
-50.3575
-42.4879
-39.2791
-35.9856
-33.5831
-30.4473
-31.7976
-36.3308
-30.9882
-26.1724
-37.5622
-33.2876
-35.2799
-29.2736
-31.178
-27.1607
-17.514
-41.2585
-24.1697
0.022464
-20.0448
-41.2328
-44.8644
-48.4032
-69.8622
-42.128
-46.0956
-51.7164
-50.329
-40.754
-40.0996
-42.5517
-47.8331
-56.8137
76.42
-47.9908
90.7575
-86.2587
-84.3139
136.535
143.047
-135.358
-45.7221
-135.376
-45.7718
-116.115
-116.119
35.4101
35.1468
-66.8223
-66.6371
-53.9091
-49.3431
-61.7718
-55.4035
-61.6167
-52.6082
-43.9267
-37.8734
-41.8661
-37.2812
-45.5087
-44.8304
-37.1334
-37.073
-42.8515
-39.4559
-42.8417
-39.4289
-42.5739
-42.5781
-38.0818
-38.0638
-50.6098
-43.1309
-40.7334
-38.8645
-44.3348
-49.7729
-38.5479
-40.8376
-29.2068
24.6143
-29.2148
24.1298
-48.0472
-48.0239
56.5724
55.8517
-52.2629
-42.7538
-54.1894
-29.2251
-57.8139
-66.287
-34.146
-25.3912
-31.9757
-31.504
-31.9397
-31.4249
-31.3147
-31.299
-29.997
-30.261
-43.4304
-39.0667
-47.469
-46.2823
-46.0051
-47.2657
-43.2219
-38.8114
-56.9265
76.0614
-48.0559
90.3397
-86.2942
-84.5522
142.986
136.321
-66.4358
-66.5792
-53.6523
-49.3228
-61.8135
-55.4093
-61.5982
-52.5955
-43.8715
-37.8293
-41.8133
-37.241
-44.7845
-45.4611
-37.0964
-37.0354
-50.5083
-43.1006
-40.8816
-38.9001
-44.3404
-49.7075
-38.5574
-40.8206
-52.2297
-42.8026
-54.188
-29.228
-66.2836
-57.8184
-25.385
-34.1339
-43.4111
-39.0383
-47.4592
-46.2839
-47.2128
-45.9684
-38.7925
-43.2073
-30.5063
-30.7835
-30.7637
-31.0138
-31.2342
-31.194
-31.3057
-31.4053
-36.3498
-33.1803
-36.6946
-36.6691
-38.8732
-38.4483
-33.7925
-35.6836
-35.7253
-34.53
-35.7169
-34.5245
-38.1199
-38.1238
-33.69
-33.6877
-30.0166
-26.9882
-34.6233
-33.9705
-31.8732
-33.9065
-29.6618
-32.2379
-35.7749
-37.241
-35.7738
-37.2422
-34.8158
-34.8158
-36.3046
-36.305
-48.1631
-58.7331
-47.2431
-52.577
-43.8629
-45.3977
-70.6801
-62.4143
21.744
28.1335
21.929
28.1076
16.5618
16.5896
22.0579
22.093
-70.8729
-62.2565
-70.8678
-62.2459
-75.6173
-75.6139
-58.0768
-58.0708
-30.5048
-30.7882
-30.7536
-31.0116
-31.2373
-31.1945
-31.3068
-31.4038
-36.3205
-33.1665
-36.677
-36.6582
-38.4177
-38.846
-33.7846
-35.6762
-30.0082
-26.9778
-34.6154
-33.962
-33.8943
-31.8622
-29.6481
-32.2233
-48.1688
-58.7258
-46.8757
-52.513
-45.4117
-44.1062
-62.373
-70.6606
-68.3341
-68.2589
-64.2144
-57.0123
-57.1209
-64.4972
-54.5155
-54.3424
-68.2921
-68.2042
-64.1995
-56.9892
-64.4838
-57.1074
-54.3268
-54.493
-72.432
-72.4327
-64.7967
-53.7495
-64.7959
-53.7456
-49.6344
-49.639
-30.6107
-30.6092
-24.8243
-13.6027
-13.601
-24.8221
-6.80885
-6.80639
188.761
200.632
168.168
168.039
199.214
199.207