# vtk DataFile Version 2.0
tet_velo
ASCII
DATASET UNSTRUCTURED_GRID
POINTS 29498 float
-0.855547 0.245 -1.825
-0.816654 0.285 1.865
-0.695 0.935 -1.89449
-0.705 1.155 1.95963
0.855547 0.245 -1.825
0.816654 0.285 1.865
0.695 0.935 -1.89449
0.705 1.155 1.95963
-0.789773 0.311143 -0.595
-0.784147 0.317138 0.635
-0.79143 1.10143 -0.609783
-0.778872 1.15887 0.674923
0.789781 0.311135 -0.595
0.784167 0.317118 0.635
0.791435 1.10144 -0.609783
0.778868 1.15887 0.674923
-1.65504 -0.199389 -2.82724
-1.64037 -0.126947 -1.82133
-1.59096 -0.0743134 -0.592746
-1.55874 -0.0810181 0.62483
-1.55984 -0.109676 1.85249
-1.56749 -0.11109 2.85386
-1.57277 -0.0954013 3.86363
-1.64609 0.167902 -2.84232
-1.63303 0.250949 -1.83043
-1.58739 0.323391 -0.591203
-1.55467 0.330617 0.643103
-1.55304 0.305296 1.88129
-1.56639 0.304582 2.88343
-1.5745 0.319975 3.89142
-1.5791 0.897029 -2.88783
-1.53336 0.977908 -1.87821
-1.57088 1.11212 -0.60168
-1.543 1.16512 0.67872
-1.49121 1.16247 1.9542
-1.53439 1.1594 2.95407
-1.56536 1.16835 3.95324
-1.53035 2.08818 -2.91496
-1.51284 2.17608 -1.89714
-1.52824 2.3037 -0.602882
-1.54143 2.3935 0.703171
-1.5397 2.42963 1.99686
-1.54736 2.43968 3.01348
-1.56207 2.44807 4.01863
-0.864506 -0.203947 -2.82371
-0.848161 -0.129731 -1.81618
-0.800895 -0.0798986 -0.593437
-0.778453 -0.0916152 0.617914
-0.787983 -0.125752 1.8404
-0.799579 -0.124252 2.84565
-0.804681 -0.105203 3.85888
-0.867159 0.158607 -2.84123
-0.811491 0.292099 2.87666
-0.812089 0.310576 3.88784
-0.810056 0.875083 -2.89459
-0.785286 1.15199 2.95516
-0.809488 1.16165 3.95348
-0.752363 2.07336 -2.92165
-0.730782 2.16239 -1.90451
-0.748263 2.29855 -0.607324
-0.77222 2.39366 0.703704
-0.779846 2.42941 2.00067
-0.788856 2.43816 3.01729
-0.801557 2.44582 4.02139
0.761636 -0.203948 -2.82371
0.811372 -0.129733 -1.81618
0.789791 -0.079906 -0.593437
0.794511 -0.0916295 0.617914
0.810318 -0.125758 1.8404
0.769421 -0.124256 2.84565
0.746241 -0.105208 3.85888
0.746439 0.158606 -2.84123
0.746795 0.292096 2.87666
0.730138 0.310572 3.88784
0.70995 0.875083 -2.89459
0.70746 1.15199 2.95516
0.710471 1.16164 3.95348
0.788921 2.07336 -2.92165
0.809211 2.16239 -1.90451
0.80537 2.29855 -0.607324
0.771567 2.39366 0.703704
0.739709 2.42941 2.00067
0.727159 2.43816 3.01729
0.721366 2.44581 4.02139
1.571 -0.199392 -2.82724
1.61566 -0.126951 -1.82133
1.59133 -0.0743256 -0.592746
1.57713 -0.0810401 0.624829
1.57952 -0.10969 1.85249
1.54995 -0.111101 2.85386
1.5258 -0.0954119 3.86363
1.55966 0.1679 -2.84232
1.62676 0.250948 -1.83043
1.59383 0.323381 -0.591203
1.56538 0.330594 0.643103
1.56103 0.305284 1.88129
1.52838 0.304573 2.88343
1.5088 0.319965 3.89142
1.51563 0.897029 -2.88783
1.5403 0.977909 -1.87821
1.58323 1.11212 -0.60168
1.5505 1.16511 0.67872
1.49083 1.16246 1.9542
1.48199 1.1594 2.95408
1.48304 1.16834 3.95324
1.56496 2.08817 -2.91496
1.58176 2.17608 -1.89714
1.58205 2.3037 -0.602882
1.54885 2.39349 0.703171
1.51083 2.42963 1.99686
1.49525 2.43967 3.01348
1.49006 2.44806 4.01863
-0.815513 0.59 -1.89998
0 0.241102 -1.8289
-0.837143 0.263589 -1.21
-0.797377 0.72 1.94887
0 0.322723 1.82728
-0.811352 0.290117 1.25
0 1.01474 -1.97423
-0.786901 1.0619 -1.25214
0 1.22611 2.03074
-0.773264 1.18826 1.31728
0.815529 0.59 -1.9
0.83715 0.263581 -1.21
0.797377 0.72 1.94886
0.811506 0.289964 1.25
0.786837 1.06184 -1.25214
0.773238 1.18824 1.31728
-0.786915 0.314185 0.02
-0.873028 0.706286 -0.602392
3.71156e-06 0.259951 -0.595
-0.865103 0.738005 0.654962
9.79387e-06 0.2739 0.635
-0.789019 1.13402 0.03257
2.82911e-06 1.44049 -0.609783
-2.12315e-06 1.60588 0.674923
0.786937 0.314164 0.02
0.873028 0.706285 -0.602392
0.8651 0.737993 0.654962
0.789019 1.13402 0.03257
-0.891347 0.648143 -1.23107
-0.876028 0.722146 0.026285
-0.884198 0.729003 1.28364
1.85578e-06 0.25727 -1.21
6.75272e-06 0.266957 0.02
4.89694e-06 0.308069 1.25
0 0.59 -2.24077
0 0.72 2.14946
1.41455e-06 1.12146 -1.25214
3.5298e-07 1.58511 0.03257
-1.06157e-06 1.58978 1.31728
0.891437 0.648143 -1.23107
0.876027 0.722139 0.026285
0.884201 0.728997 1.28364
-1.24429 0.247974 -1.82772
-0.851854 0.0576344 -1.82059
-0.861353 0.201803 -2.33312
-1.18485 0.295148 1.87314
-0.802319 0.0796238 1.8527
-0.814073 0.288549 2.37083
-1.11418 0.956454 -1.88635
-0.752528 0.905041 -2.39454
-0.712891 1.54869 -1.8995
-1.09811 1.15873 1.95691
-0.745143 1.1535 2.4574
-0.742423 1.79221 1.98015
0.833459 0.0576335 -1.82059
0.800993 0.201803 -2.33312
1.24115 0.247974 -1.82772
0.813486 0.0796211 1.8527
0.781724 0.288548 2.37083
1.18884 0.295142 1.87314
0.702475 0.905042 -2.39454
0.752106 1.54869 -1.8995
1.11765 0.956455 -1.88635
0.70623 1.1535 2.4574
0.722355 1.7922 1.98015
1.09792 1.15873 1.95691
-1.18858 0.317267 -0.593102
-0.795334 0.115622 -0.594218
-1.16941 0.323877 0.639052
-0.7813 0.112761 0.626457
-1.18115 1.10678 -0.605732
-0.769846 1.69999 -0.608554
-1.16093 1.162 0.676822
-0.775546 1.77627 0.689314
0.789786 0.115615 -0.594219
1.19181 0.317258 -0.593102
0.789339 0.112744 0.626457
1.17477 0.323856 0.639052
0.798403 1.69999 -0.608554
1.18733 1.10678 -0.605732
0.775217 1.77626 0.689314
1.16468 1.16199 0.676822
-1.64771 -0.163168 -2.32429
-1.65056 -0.0157438 -2.83478
-1.25977 -0.201668 -2.82548
-1.61567 -0.10063 -1.20704
-1.6367 0.0620011 -1.82588
-1.24427 -0.128339 -1.81876
-1.57485 -0.0776658 0.0160417
-1.58918 0.124539 -0.591975
-1.19593 -0.077106 -0.593091
-1.55929 -0.0953468 1.23866
-1.55671 0.124799 0.633966
-1.1686 -0.0863166 0.621372
-1.56366 -0.110383 2.35317
-1.55644 0.0978102 1.86689
-1.17391 -0.117714 1.84644
-1.57013 -0.103246 3.35874
-1.56694 0.0967457 2.86864
-1.18353 -0.117671 2.84975
-1.57364 0.112287 3.87752
-1.18873 -0.100302 3.86126
-1.63956 0.209425 -2.33638
-1.61259 0.532465 -2.86508
-1.25662 0.163254 -2.84178
-1.61021 0.28717 -1.21082
-1.58319 0.614428 -1.85432
-1.57103 0.327004 0.02595
-1.57913 0.717756 -0.596442
-1.55386 0.317956 1.26219
-1.54884 0.747871 0.660912
-1.55971 0.304939 2.38236
-1.52213 0.733882 1.91774
-1.57044 0.312278 3.38742
-1.55039 0.731993 2.91875
-1.18894 0.29834 2.88004
-1.56993 0.744161 3.92233
-1.19329 0.315275 3.88963
-1.55623 0.937468 -2.38302
-1.55473 1.4926 -2.9014
-1.19458 0.886056 -2.89121
-1.55212 1.04501 -1.23994
-1.5231 1.57699 -1.88767
-1.55694 1.13862 0.03852
-1.54956 1.70791 -0.602281
-1.51711 1.1638 1.31646
-1.54222 1.77931 0.690946
-1.5128 1.16094 2.45414
-1.51546 1.79605 1.97553
-1.54987 1.16387 3.45366
-1.54088 1.79954 2.98378
-1.15984 1.1557 2.95462
-1.56372 1.80821 3.98594
-1.18742 1.165 3.95336
-1.5216 2.13213 -2.40605
-1.14136 2.08077 -2.91831
-1.52054 2.23989 -1.25001
-1.12181 2.16923 -1.90083
-1.53483 2.3486 0.0501447
-1.13825 2.30113 -0.605103
-1.54057 2.41157 1.35002
-1.15683 2.39358 0.703438
-1.54353 2.43466 2.50517
-1.15977 2.42952 1.99876
-1.55472 2.44387 3.51606
-1.16811 2.43892 3.01538
-1.18182 2.44694 4.02001
-0.856334 -0.166839 -2.31995
-0.865832 -0.0226702 -2.83247
-0.0514349 -0.203947 -2.82371
-0.824528 -0.104815 -1.20481
-0.0183948 -0.129732 -1.81618
-0.789674 -0.0857569 0.0122384
-0.0055519 -0.0799023 -0.593437
-0.783218 -0.108684 1.22916
0.00802934 -0.0916224 0.617914
-0.793781 -0.125002 2.34302
0.0111671 -0.125755 1.8404
-0.80213 -0.114727 3.35227
-0.805535 0.0839236 2.86116
-0.0150792 -0.124254 2.84565
-0.808385 0.102686 3.87336
-0.0292204 -0.105206 3.85888
-0.838608 0.516845 -2.86791
-0.0603599 0.158606 -2.84123
-0.81179 0.301338 3.38225
-0.798389 0.722047 2.91591
-0.0323481 0.292097 2.87666
-0.810789 0.736111 3.92066
-0.0409759 0.310574 3.88784
-0.781209 1.47422 -2.90812
-0.0500534 0.875083 -2.89459
-0.797387 1.15682 3.45432
-0.787071 1.79508 2.98622
-0.0389129 1.15199 2.95516
-0.805523 1.80373 3.98743
-0.0495086 1.16164 3.95348
-0.741572 2.11787 -2.41308
0.0182791 2.07336 -2.92165
-0.739522 2.23047 -1.25592
0.0392146 2.16239 -1.90451
-0.760241 2.34611 0.0481899
0.0285539 2.29855 -0.607324
-0.776033 2.41154 1.35219
-0.000326391 2.39366 0.703704
-0.784351 2.43379 2.50898
-0.0200682 2.42941 2.00067
-0.795207 2.44199 3.51934
-0.0308483 2.43816 3.01729
-0.0400957 2.44582 4.02139
0.786504 -0.16684 -2.31995
0.754038 -0.022671 -2.83247
1.16632 -0.20167 -2.82548
0.800581 -0.104819 -1.20481
1.21352 -0.128342 -1.81876
0.792151 -0.0857678 0.0122384
1.19056 -0.0771158 -0.593091
0.802414 -0.108694 1.22916
1.18582 -0.0863348 0.621372
0.789869 -0.125007 2.34302
1.19492 -0.117724 1.84644
0.757831 -0.114732 3.35227
0.758108 0.0839198 2.86116
1.15968 -0.117679 2.84975
0.738189 0.102682 3.87336
1.13602 -0.10031 3.86126
0.728194 0.516845 -2.86791
1.15305 0.163253 -2.84178
0.738466 0.301334 3.38225
0.727127 0.722044 2.91591
1.13759 0.298334 2.88004
0.720304 0.736107 3.92066
1.11947 0.315268 3.88963
0.749435 1.47422 -2.90812
1.11279 0.886056 -2.89121
0.708966 1.15682 3.45432
0.71731 1.79507 2.98622
1.09472 1.15569 2.95462
0.715919 1.80373 3.98743
1.09675 1.16499 3.95336
0.799066 2.11787 -2.41308
1.17694 2.08077 -2.91831
0.807291 2.23047 -1.25592
1.19549 2.16923 -1.90083
0.788469 2.3461 0.0481899
1.19371 2.30112 -0.605103
0.755638 2.41153 1.35219
1.16021 2.39358 0.703438
0.733434 2.43378 2.50898
1.12527 2.42952 1.99876
0.724263 2.44199 3.51934
1.11121 2.43891 3.01538
1.10571 2.44694 4.02001
1.59333 -0.163171 -2.32429
1.56533 -0.0157459 -2.83478
1.6035 -0.100638 -1.20704
1.62121 0.0619984 -1.82588
1.58423 -0.0776829 0.0160416
1.59258 0.124528 -0.591975
1.57833 -0.0953649 1.23866
1.57126 0.124777 0.633966
1.56474 -0.110395 2.35317
1.57028 0.0977972 1.86689
1.53788 -0.103256 3.35874
1.53916 0.096736 2.86864
1.5173 0.112277 3.87752
1.59321 0.209424 -2.33638
1.53764 0.532465 -2.86507
1.61029 0.287165 -1.21082
1.58353 0.614428 -1.85432
1.57961 0.326988 0.0259499
1.58853 0.717751 -0.596442
1.56321 0.317939 1.26219
1.55794 0.747854 0.660912
1.5447 0.304929 2.38236
1.52593 0.733872 1.91774
1.51859 0.312269 3.38742
1.50518 0.731984 2.91875
1.49592 0.744151 3.92233
1.52797 0.937469 -2.38302
1.54029 1.4926 -2.9014
1.56177 1.04502 -1.23994
1.56103 1.57699 -1.88767
1.56687 1.13862 0.0385199
1.58264 1.70791 -0.602281
1.52067 1.16379 1.31646
1.54967 1.7793 0.690946
1.48641 1.16093 2.45414
[...]
POINT_DATA 29498
VECTORS point_vectors float
-3.37003 -3.82063 14.3882
0.268978 0.706061 4.06089
-0.776103 0.880611 1.77078
-0.05532 -0.171253 0.213692
3.32948 -3.74837 14.2817
-0.230541 0.669799 3.91772
0.778153 0.882485 1.77615
0.0576779 -0.171697 0.208471
0 0 0
0 0 0
0 0 0
0 0 0
0 0 0
0 0 0
0 0 0
0 0 0
-0.74577 -0.467542 20.055
-1.10265 -0.752829 20.8915
-0.356177 -0.465102 21.5266
0.101544 -0.204094 21.65
0.593223 0.0756013 21.678
0.895567 0.267398 21.4184
0.911169 0.218697 20.9217
-0.946486 -0.366809 19.9242
-1.60007 -0.719967 20.8748
-0.535212 -0.562747 21.6316
0.036562 -0.380334 21.7335
0.748765 -0.159795 21.8021
1.14941 -0.0126257 21.4329
1.19331 -0.00979429 20.991
-1.0892 0.0806219 19.6945
-2.13105 0.168377 20.5963
-1.19961 -0.325629 21.6022
-0.356715 -0.443114 21.8034
0.40825 -0.651841 21.7655
0.81324 -0.717503 21.4999
0.701197 -0.523033 21.3102
-0.530234 0.396086 20.0077
-0.843609 0.634939 20.4383
-0.789398 0.471059 21.159
-0.363454 0.00908059 21.5644
-0.0377529 -0.227161 21.4214
0.105987 -0.391506 21.1607
0.168445 -0.427947 20.7466
-0.911392 -1.12718 19.4595
-1.37557 -2.47483 21.6144
-0.162131 -0.281374 21.8017
0.215127 0.0987973 21.1314
0.642935 0.87381 21.6537
1.01856 1.28111 21.1496
1.05447 1.38247 20.9033
-1.33122 -1.03614 18.7365
1.87059 1.45221 14.7098
1.84412 1.20406 15.8649
-1.48488 0.32227 18.1981
0.375405 -1.24664 7.8254
1.75114 -1.50292 11.8456
-0.462196 0.758485 19.669
-0.809695 1.42615 20.1828
-0.948085 1.32452 21.3059
-0.451051 0.342851 21.817
-0.165818 -0.193915 21.6202
-0.0298005 -0.486031 21.4183
0.215021 -0.752853 20.2303
0.867046 -1.21976 19.3435
1.31364 -2.57831 21.6826
0.167856 -0.281333 21.7597
-0.22088 0.0948083 21.2384
-0.66568 0.837895 21.6824
-0.991725 1.30658 21.1327
-0.971011 1.54486 20.7974
1.29011 -1.15588 18.5518
-1.70566 1.50663 13.2006
-1.92397 1.56499 14.4395
1.40875 0.402236 17.9923
0.136016 -1.0698 4.28149
-1.7607 -1.5218 8.52263
0.488728 0.743904 19.6779
0.854983 1.32968 20.215
0.974754 1.24845 21.2989
0.448925 0.34483 21.8149
0.166761 -0.177717 21.6427
0.0248172 -0.464463 21.3558
-0.173312 -0.714172 20.2224
0.780368 -0.517377 20.0115
1.12135 -0.781132 20.8903
0.358683 -0.473672 21.5141
-0.0899187 -0.216803 21.6388
-0.583583 0.0537879 21.6785
-0.90117 0.267008 21.4128
-0.940927 0.269351 20.8789
1.02788 -0.410896 19.828
1.60853 -0.730524 20.8804
0.53254 -0.56342 21.6301
-0.0328802 -0.382287 21.7329
-0.735242 -0.170876 21.7954
-1.18397 -0.0124232 21.4486
-1.31341 0.0134862 20.9563
1.14525 0.0817739 19.6163
2.09636 0.170449 20.6079
1.17455 -0.321923 21.6024
0.3507 -0.437623 21.8082
-0.394804 -0.649154 21.7604
-0.808777 -0.762088 21.5643
-0.741962 -0.567397 21.3964
0.553041 0.375261 20.024
0.825142 0.583917 20.4605
0.770187 0.427599 21.1565
0.368734 0.0119724 21.5745
0.0543375 -0.226802 21.432
-0.108809 -0.39858 21.159
-0.119441 -0.43602 20.9816
-0.187424 -0.0326322 0.273773
-0.000109237 -0.00753288 0.32207
-0.00666628 0.00317683 0.890243
0.00178082 -0.00260333 0.0068116
-0.000104125 0.00598211 0.0963911
0.05093 -0.0110273 0.804027
-4.49845e-05 0.129237 0.363722
-0.712914 -0.186477 1.08095
-0.000587239 0.00458865 -0.00782729
0 0 0
0.192927 -0.0334753 0.281658
0.00545646 0.00200302 0.888281
-0.00178124 -0.00270744 0.00683911
-0.0521787 -0.0120352 0.809667
0.711073 -0.186412 1.0761
0 0 0
0 0 0
1.91646e-19 -3.57139e-18 -4.4359e-17
4.08544e-06 0.000178021 0.0196399
3.3746e-05 0.000292565 0.00171442
-1.21652e-06 0.000215451 0.00354951
0 0 0
-7.50249e-06 0.0966075 0.221429
-3.28609e-05 0.000467664 0.0352263
0 0 0
0 0 0
-3.39412e-05 0.000294264 0.00172468
0 0 0
-5.38246e-05 -0.000192202 0.00267475
-2.59101e-06 4.23773e-05 0.000319088
0 0 0
3.21006e-07 1.0073e-05 0.000671509
0 0 0
0 0 0
-0.000279931 0.0625687 0.0565979
0 0 0
0 0 0
1.62741e-06 -3.26058e-05 -0.000394637
-1.10892e-05 -0.000127224 0.00309023
0.000121017 -0.000426029 0.00593752
3.17195e-06 5.18334e-05 0.000389469
0 0 0
-2.64055 -1.57347 21.2148
-2.14719 -3.7148 22.1854
-3.22106 -2.80472 18.4603
1.22384 0.0932522 21.0174
0.986651 1.00236 18.2682
1.40597 1.18239 11.3248
-4.40772 1.08298 20.4715
-3.93483 1.87003 16.5431
-1.95316 2.69228 19.8814
0.621055 -0.814627 19.043
-0.58601 -1.31476 3.54497
-0.281272 -0.494712 20.5865
2.1172 -3.80422 22.2461
3.35189 -3.2807 18.1138
2.65694 -1.58443 21.2175
-1.01029 0.980809 18.4179
-1.25168 1.17453 10.3129
-1.21347 0.0703011 21.0902
3.9268 2.08588 16.1071
1.99667 2.56556 19.9076
4.38845 1.06986 20.4709
0.794825 -1.36609 2.01263
0.265763 -0.44934 20.2622
-0.598478 -0.815802 18.9818
-0.249328 -0.910088 21.6636
0.0520673 0.218447 14.6283
0.249701 -0.386265 20.2724
0.46882 0.0781822 14.6638
-1.92959 -0.836166 22.0611
-2.91776 2.20707 21.6375
-0.460456 -0.735631 20.9374
-1.08491 0.260161 22.0922
-0.0485846 0.207598 14.4112
0.254857 -0.914366 21.7329
-0.46827 0.0783704 14.9041
-0.249212 -0.399017 20.3778
2.86713 2.02138 21.6409
1.91773 -0.8158 22.08
1.08015 0.264446 22.0694
0.461798 -0.733754 20.9762
-1.03494 -0.65293 20.3629
-0.863574 -0.42847 19.9929
-0.874324 -0.698638 19.8217
-0.74871 -0.635222 21.3855
-1.30479 -0.743993 20.8804
-1.41205 -1.39228 21.0936
-0.104328 -0.327067 21.6232
-0.43467 -0.503534 21.579
-0.18972 -0.497748 21.7833
0.317955 -0.0898086 21.7418
0.0883276 -0.296989 21.6808
0.247933 -0.158377 21.8225
0.776084 0.178358 21.5598
0.662816 -0.0280337 21.726
0.779436 0.366542 21.8884
0.923609 0.285554 21.2615
1.02333 0.154358 21.4591
1.16164 0.67917 21.485
1.08796 0.0954776 20.7617
1.20019 0.64695 21.1904
-1.41917 -0.576866 20.1906
-1.06534 -0.189099 19.7637
-1.1857 -0.616938 19.4978
-1.04468 -0.669138 21.5035
-2.01736 -0.391157 20.7679
-0.210515 -0.472388 21.6789
-0.866453 -0.566728 21.6599
0.318896 -0.284909 21.8515
-0.139766 -0.452356 21.8319
0.988545 -0.0785919 21.6287
0.700979 -0.444468 21.8959
1.21952 0.0591454 21.1945
1.1381 -0.429082 21.5118
1.68919 0.33238 20.869
1.04502 -0.271268 21.1852
2.03285 0.28755 20.1496
-1.72442 0.158222 19.9039
-0.819381 0.356015 19.834
-1.33451 0.187711 19.1482
-1.7548 -0.110694 21.3217
-1.44228 0.665406 20.4155
-0.748341 -0.424642 21.7741
-1.2394 0.237945 21.397
-0.00618892 -0.503887 21.8729
-0.519259 -0.147855 21.7288
0.624332 -0.689728 21.6455
0.0108159 -0.450749 21.6013
1.03607 -0.778163 21.1735
0.362586 -0.624773 21.4882
1.05073 -1.05151 20.3279
0.449476 -0.868952 20.5914
1.60575 -1.14551 20.4536
-0.714956 0.530059 20.1931
-0.561283 0.557502 19.8439
-0.890825 0.612107 20.8551
-0.922837 0.998913 20.3149
-0.588054 0.210903 21.4507
-0.94744 0.814102 21.2471
-0.189559 -0.126677 21.5282
-0.452652 0.156825 21.6687
0.03878 -0.302088 21.4961
-0.100017 -0.245445 21.5647
0.157419 -0.359601 21.2825
0.0511888 -0.477958 21.4125
0.216291 -0.613388 20.9561
-1.51003 -2.14381 19.9345
-1.11773 -1.17077 19.1361
-0.0796393 -1.81635 18.909
-0.542938 -1.01419 22.2689
-0.0265989 -3.0671 22.3684
0.0206359 -0.0527754 21.2564
-0.00215177 -0.319693 20.7463
0.467705 0.401683 21.4581
-0.00625372 0.148431 19.8038
0.872717 1.18873 21.188
-0.0139056 0.919872 20.3171
1.15856 1.30142 20.4005
1.43609 1.55297 19.3171
0.00455698 1.59789 20.3033
1.39343 1.31492 18.7261
0.0528869 2.07784 20.3974
-1.59177 -0.446227 18.1929
-0.161016 -1.81834 17.461
2.16084 1.76657 16.5346
1.42068 -0.698948 7.59073
0.0499363 1.12185 8.23921
2.47205 0.861054 12.8611
0.108309 2.17752 11.9333
-0.906551 0.933771 19.0319
-0.160691 0.682929 16.6783
1.53705 -1.20492 10.4919
0.0259234 -0.981716 20.7197
-0.182365 1.80143 -5.27528
0.140282 -1.2147 17.5945
-0.125344 2.51187 -2.29468
-0.663293 1.13349 19.8303
0.00945039 0.96403 19.4852
-0.953004 1.4968 20.6918
0.0450073 1.85582 20.031
-0.733493 0.844008 21.7589
0.049669 2.06597 21.2932
-0.26293 0.0139901 21.7543
-0.00227459 0.627524 21.9551
-0.0931006 -0.303536 21.4488
-0.013695 -0.0572373 21.6345
-0.0642137 -0.473578 21.1899
-0.0211652 -0.299854 21.4702
0.0220792 -0.517418 20.3796
1.50104 -2.41022 19.8383
1.08821 -1.29013 18.9742
0.906026 -0.810435 19.7188
0.536947 -1.01795 22.3078
1.43471 -1.47105 21.1225
-0.0208268 -0.0531934 21.272
0.188355 -0.497432 21.7831
-0.481498 0.381735 21.485
-0.236988 -0.163935 21.8271
-0.872004 1.17925 21.1753
-0.771022 0.339063 21.8743
-1.12552 1.39507 20.2244
-1.37544 1.62141 18.8202
-1.17175 0.712555 21.4627
-1.29159 1.49589 18.5778
-1.15531 0.744482 21.3182
1.5706 -0.481895 17.8985
1.25435 -0.739273 19.3254
-2.1376 2.02684 15.1463
-1.2561 -0.681679 5.48443
-1.78275 0.449314 20.5044
-2.53133 1.20027 11.0282
-1.98679 0.327547 19.9422
0.891707 0.958642 18.9967
1.41237 0.224381 18.9551
-1.30017 -1.01812 6.94579
0.0506487 -0.86397 19.863
-1.02661 -1.09962 18.8702
-0.0756343 -1.24654 16.9835
-1.66463 -1.30208 18.9801
0.686735 1.0847 19.8617
0.559603 0.542702 19.8616
0.995865 1.38654 20.712
0.923689 0.925678 20.3416
0.738227 0.82356 21.7453
0.927254 0.748694 21.2323
0.261244 0.0225989 21.7555
0.451594 0.158555 21.6656
0.0868632 -0.278213 21.4551
0.105236 -0.235605 21.5611
0.0954317 -0.417306 21.3907
-0.0438748 -0.480975 21.4848
-0.273217 -0.691203 20.817
1.06213 -0.702025 20.3499
0.934352 -0.483771 19.9337
0.749161 -0.644134 21.3858
1.32445 -0.767035 20.8878
0.105424 -0.334501 21.6216
0.436007 -0.507787 21.5698
-0.30784 -0.10416 21.734
-0.0815183 -0.298064 21.6703
-0.773915 0.167947 21.5543
-0.649691 -0.0337623 21.7253
-0.950563 0.297221 21.2498
-1.0497 0.159208 21.4672
-1.18294 0.101766 20.7298
1.50288 -0.615405 20.166
1.14266 -0.204876 19.6862
1.04244 -0.671732 21.5071
2.02186 -0.394646 20.7736
0.210049 -0.473683 21.6796
0.85514 -0.561731 21.6531
-0.316389 -0.287237 21.8501
0.137844 -0.450872 21.8272
-0.990917 -0.0868031 21.6318
-0.692316 -0.451045 21.9007
-1.25749 0.0673934 21.2452
-1.18483 -0.459644 21.5043
-1.09545 -0.259332 21.2577
1.77497 0.16139 19.888
0.85155 0.392143 19.8156
1.72612 -0.10671 21.3279
1.41284 0.619198 20.4344
0.740453 -0.419142 21.7667
1.19359 0.215991 21.3902
0.0169267 -0.49601 21.855
0.510525 -0.151107 21.7312
-0.624893 -0.735056 21.68
-0.00391341 -0.455305 21.5988
-1.05687 -0.828897 21.2914
-0.346525 -0.657906 21.559
-0.488822 -0.880911 20.2787
0.714913 0.506831 20.194
0.87505 0.567418 20.8607
0.581619 0.207145 21.4454
0.184676 -0.129971 21.5223
-0.044999 -0.310135 21.4992
-0.132735 -0.384115 21.2596
-1.20768 -0.636832 20.2875
-2.15916 -2.64439 19.3749
-1.35463 -1.17799 20.1765
-2.13498 -1.17541 19.7721
-1.04981 -0.690756 19.6561
-1.97958 -1.58499 21.1775
-0.880254 -0.648108 21.417
-0.410004 -0.59281 19.6965
-0.700785 -0.889941 21.7588
-1.13092 -1.20447 22.1994
-0.13741 -0.681615 21.8824
-0.144893 -0.396053 21.6468
0.225677 0.148405 14.563
0.0558735 -0.299995 21.7726
0.0728168 -0.617905 20.888
0.338995 -0.288206 21.5029
0.326308 -0.178858 21.7929
0.894448 0.309187 16.5259
0.475902 0.0334275 21.9106
0.500484 -0.250707 20.6779
1.05806 0.293933 21.6786
0.876107 0.0766202 21.5985
1.226 1.44164 18.7644
1.00014 0.563081 21.6642
1.59231 0.219254 20.8901
1.47692 0.61578 21.125
1.03626 0.222745 21.2556
1.69063 1.71933 18.3309
1.27044 0.743103 21.1757
1.76831 0.378623 20.4948
1.60515 0.494274 21.0592
-1.67273 -0.286134 20.0357
-4.78145 -0.964291 16.3288
-2.79204 0.635823 18.9828
-1.41092 -0.285234 19.2181
-4.31237 -0.754916 20.9782
-1.4651 -0.512366 21.5162
-2.88014 -0.244098 21.8797
-0.879006 -1.14573 21.399
-0.456608 -0.5203 21.7508
-1.0845 -0.930252 21.6429
0.0214448 -0.479574 19.1317
0.187657 -0.428506 21.957
0.0645405 -0.584508 20.2114
1.1666 -0.336032 18.4763
0.958851 -0.438587 21.6898
0.440448 -1.30542 3.74417
0.733497 -1.04938 20.0242
1.74993 -0.416623 19.8915
1.23808 -0.355074 21.3342
2.75211 -0.427561 10.0126
1.45976 -1.15831 20.1031
1.8056 -0.409619 20.4192
-1.17369 0.545 20.0078
-1.50538 1.91085 19.0503
-0.757145 0.815516 20.0093
-0.946044 0.584722 19.4896
-1.96939 1.44094 20.2271
-1.46011 0.485864 20.9882
-2.35031 2.3312 20.572
-1.01943 0.996322 20.8047
-1.94454 0.680874 21.5877
-0.894611 0.0177457 21.6569
-1.98604 0.969304 22.4547
-0.730552 0.481566 21.6081
-0.755979 -0.0748778 21.9749
-0.225725 -0.305353 21.7291
-0.494252 -0.223787 21.4473
-0.238209 -0.0852561 21.6535
-0.129984 -0.578668 21.7891
0.182265 -0.512525 21.508
-0.215321 -0.659049 20.841
-0.0132909 -0.346743 21.3822
0.18412 -0.899431 21.4598
0.412915 -0.623564 21.3678
0.24216 -1.28454 18.5724
0.0908544 -0.516937 21.1878
0.421276 -0.775578 21.3471
2.17503 -2.96405 19.2828
-0.0888391 -3.89022 19.6942
-0.20159 -8.62773 15.4047
-0.0976406 -1.98876 18.2498
0.0147084 -3.13957 22.8492
0.425639 -0.579043 19.3783
0.000117078 -1.07655 22.5222
-0.000173151 0.0563342 10.7163
-0.232511 0.145144 14.5999
-0.00124925 -0.0787073 19.8213
-0.00666207 0.203242 11.0187
-0.894125 0.29335 16.7164
-0.0138103 0.513113 20.2912
-0.0115277 0.811011 13.6518
-1.19903 1.44379 18.5605
-0.00566117 1.29316 20.3242
0.00115045 0.603078 4.78696
0.00660581 1.62423 16.1172
-1.66125 1.84107 18.1276
0.0215424 1.86633 20.5476
0.0139952 2.36703 10.673
0.0944662 2.45288 16.9929
5.02075 -1.0156 15.5564
-0.197996 4.47998 12.5974
-0.130335 -0.700511 16.3353
-0.254737 -1.50481 2.79225
-0.0452548 -0.0655187 -3.21091
0.0703368 0.570673 0.0447657
-2.68809 -0.153326 8.41688
0.0875152 2.31987 -5.69118
0.49875 2.03729 4.27415
1.5168 1.91535 19.0435
0.0243407 1.45648 19.6595
-0.0321282 1.41678 18.4732
0.057198 3.85121 19.5552
2.36329 2.19865 20.6222
0.0549593 2.10146 20.5533
0.0648229 4.82586 21.3257
1.96749 0.914333 22.4427
0.015553 1.38504 21.9187
-0.00415932 1.04742 21.4603
0.475603 -0.202907 21.2973
-0.00810091 0.189725 21.822
-0.0392171 0.111219 14.4274
0.203807 -0.575739 19.8029
-0.0172746 -0.153767 21.72
-0.125737 0.16312 12.2201
-0.201737 -1.24258 17.9955
-0.0154413 -0.616392 21.0748
-0.113762 0.214333 10.8745
1.25918 -0.691185 20.2849
1.39424 -1.33331 20.1491
2.30965 -1.33735 19.6464
1.09694 -0.824453 19.5428
2.01189 -1.65448 21.2018
0.886629 -0.657896 21.4206
0.700883 -0.904139 21.774
1.12742 -1.20312 22.1987
0.137569 -0.6796 21.8808
0.144785 -0.396186 21.6475
-0.0502072 -0.302021 21.7669
-0.0687682 -0.625434 20.9688
-0.328869 -0.29686 21.5289
-0.319441 -0.184908 21.7775
-0.465117 0.014448 21.9012
-0.500356 -0.264641 20.7632
-1.04164 0.258902 21.7096
-0.873483 0.0744863 21.6053
-0.995925 0.554222 21.6623
-1.62704 0.248581 20.7008
-1.49835 0.684674 21.105
-1.07218 0.220658 21.2883
-1.31818 0.829201 21.249
-1.8317 0.60414 19.8407
-1.58072 0.59473 21.2253
1.77333 -0.288727 20.0021
2.91972 0.728534 18.832
1.48971 -0.317487 18.9864
4.30949 -0.754682 20.9826
1.45744 -0.512733 21.5126
2.86286 -0.240417 21.8671
0.884779 -1.13447 21.4737
0.452444 -0.520845 21.7461
1.07793 -0.917107 21.656
-0.0155633 -0.492544 19.2569
-0.181685 -0.430477 21.9443
-0.0588308 -0.588743 20.2451
-1.15103 -0.34936 18.5192
-0.981386 -0.460093 21.6939
-0.680528 -1.0179 19.1215
-1.78886 -0.40653 18.6337
-1.33399 -0.377857 21.4228
-1.54866 -1.2433 18.7261
-1.95583 -0.149645 18.7328
1.1792 0.551435 20.0383
0.766266 0.777007 20.0311
0.9471 0.62067 19.468
1.92943 1.33179 20.2559
1.41811 0.457947 20.988
1.02171 0.921746 20.834
1.88617 0.625799 21.5691
0.876405 0.0153383 21.6421
0.721369 0.45573 21.599
0.752782 -0.0735096 21.9685
0.229434 -0.295687 21.6983
0.24223 -0.0832353 21.6602
0.146994 -0.573469 21.7971
-0.17248 -0.5472 21.5351
0.0241716 -0.338234 21.3491
-0.157189 -0.959646 21.4206
-0.387418 -0.648155 21.3963
-0.0722586 -0.525257 21.1627
-0.360287 -0.931549 21.8137
-1.75104 -1.24137 19.9857
-0.849006 -1.04572 21.9443
0.150928 -0.446025 21.6646
0.586912 -0.112429 21.6038
1.36177 0.511712 21.4739
1.46155 0.611545 21.375
-2.91038 -0.482058 19.1591
-2.03675 -1.07354 22.5082
-0.302032 -0.852174 20.0751
0.306342 -0.262989 18.9515
1.49881 -0.543672 19.5194
1.93181 -0.279862 20.431
-1.47529 1.05826 19.6228
-2.06599 1.09779 20.9472
-1.33377 0.235954 21.964
-0.36197 -0.333162 21.9212
0.0265647 -0.715964 21.6895
0.378011 -0.965372 21.1299
-0.124723 -5.64378 18.7477
-0.00169786 -0.256204 14.6148
-0.000696439 0.0884259 10.4991
-0.0069374 0.451067 12.1505
-0.00512978 1.26951 15.0167
0.0118735 2.25039 17.0125
-0.270008 -1.45321 9.11334
-0.00699319 -1.05236 0.957336
0.269305 2.45605 0.368179
0.0061536 2.96175 18.4138
0.0695365 3.88243 19.921
0.0188751 2.66081 22.6176
-0.0119057 0.210241 19.3148
-0.0760259 0.0530136 13.5529
-0.0888744 -0.917589 11.8493
1.83293 -1.42484 19.9199
0.843114 -1.05955 21.9615
-0.144001 -0.449009 21.6722
-0.575154 -0.127765 21.6474
-1.36471 0.51602 21.4567
-1.51752 0.73681 21.4496
3.12762 -0.535385 18.9935
2.02767 -1.06947 22.4981
0.310211 -0.85386 20.1896
-0.302708 -0.278745 19.0394
-1.4799 -0.527892 18.6381
-2.08493 -0.367603 18.5765
1.47238 1.04879 19.6362
1.99611 1.0177 20.9571
1.30933 0.21979 21.9438
0.36653 -0.328667 21.9214
0.0126138 -0.715714 21.6818
-0.365184 -1.11336 21.3739
-0.627748 -0.177506 1.34659
-0.00393179 -0.0151611 0.20538
-0.0132327 -0.0140512 1.10502
0.0590034 -0.0243168 0.17967
0 0 0
0.0483428 0.0141494 1.25582
-0.285244 0.053658 0.478357
-0.0407346 0.264919 0.589317
-0.129209 0.0138234 0.378102
0.0422634 -0.054243 0.134014
-0.0103285 0.00231186 -0.0047303
0 0 0
0.00383731 -0.0151653 0.205639
0.614878 -0.170282 1.33587
0.0115371 -0.0158452 1.1025
0 0 0
-0.0584035 -0.0262472 0.177076
-0.0518684 0.0126445 1.26189
0.0408487 0.266032 0.591357
0.278079 0.0513287 0.467554
0.126061 0.0136535 0.367812
0.00983473 0.00276428 -0.00521047
-0.0417922 -0.056452 0.13329
0 0 0
0.0205247 0.0470187 0.328456
0 0 0
0 0 0
0 0 0
0.119226 -0.0638405 0.890264
0 0 0
0 0 0
0.00432583 0.000182088 0.0508318
-0.171743 -0.109958 0.480743
0.000115664 0.00221881 0.026248
-1.51347e-19 -3.40289e-19 -1.53786e-18
-0.0248559 0.0277296 0.0721841
0 0 0
0.000149051 0.000694228 0.00431689
0 0 0
0.0117536 0.00719062 0.110549
-0.0209438 0.0467425 0.328159
1.10705e-18 -1.21002e-18 -4.67619e-17
0 0 0
0 0 0
-0.100078 -0.0560206 0.728149
-0.00444232 0.000188796 0.0515138
0 0 0
0 0 0
0.171657 -0.109506 0.474479
0.0251599 0.028214 0.0731806
-0.000118927 0.00216983 0.0256748
0 0 0
0 0 0
-0.0119607 0.00725105 0.110851
-0.000155927 0.000726727 0.00449714
0 0 0
0 0 0
-0.282042 0.0838685 0.121647
5.36343e-07 -3.54315e-06 -0.00023941
9.13973e-05 -0.119052 0.0452494
-0.0016091 0.00159537 0.0651548
-2.62031e-05 -2.47527e-05 0.00568802
0.00360923 0.0036667 0.0663737
0 0 0
0 0 0
-0.000750342 -0.0377453 0.00153356
8.04974e-05 0.000485842 0.0140027
0 0 0
-0.000165745 0.158912 0.0649931
-1.4836e-05 0.0086707 0.0489769
-0.0185618 -0.0455803 0.201234
0 0 0
-0.000113363 -0.00662067 0.00112617
0 0 0
0 0 0
-7.12202e-05 -0.00112274 0.0186728
0.270662 0.0799693 0.116172
0 0 0
2.43876e-05 -2.47189e-05 0.00567127
0.00161321 0.00168383 0.0649638
0 0 0
-0.00361479 0.00354655 0.0664741
0 0 0
-8.46388e-05 0.000487186 0.0145735
0 0 0
0.0186708 -0.0459269 0.202576
-2.86234e-05 -0.00109144 0.0183138
0 0 0
0 0 0
0.000799295 -1.91255e-05 0.0135025
0 0 0
-5.06617e-06 7.41452e-05 0.000623404
0 0 0
0 0 0
0 0 0
2.8292e-18 -3.46906e-18 -2.59473e-17
0 0 0
0 0 0
0.0177321 0.0547446 0.340415
0.00227915 0.0239331 0.485348
0.00132031 0.0238074 0.0514383
-3.60553e-05 0.0474598 0.211262
5.2668e-07 7.39828e-06 0.000243238
1.38954e-06 -5.04774e-06 0.00025334
-0.00080799 -1.89761e-05 0.0134592
0 0 0
0 0 0
6.61242e-06 9.69874e-05 0.000815727
0 0 0
0 0 0
-0.00271319 0.0240846 0.485138
-0.0143417 0.0698419 0.411589
-0.00107019 -0.00159028 0.0464341
-0.273162 -0.166005 0.918381
0.0143289 -0.00216856 0.116725
-0.000660853 -0.00199594 0.0167659
0 0 0
0.000873299 0.0112821 0.0736302
0 0 0
0.00046854 0.00272077 0.0162496
-0.00483184 0.000833827 0.0766891
8.29551e-05 0.00109117 0.00707955
0.00188501 0.00356401 0.0921645
0 0 0
-0.000493883 -0.000247104 0.0135073
0.000484274 -0.000243999 0.0133403
0.000273015 -0.000116904 0.0276399
-0.000276196 -0.000115797 0.0274617
0.000143474 4.83834e-06 0.00274032
-0.000147046 4.85612e-06 0.00274926
0.00240687 0.000119283 0.0324479
-0.00245314 0.000121728 0.0328457
0 0 0
0 0 0
0 0 0
0 0 0
-0.412208 -0.402708 0.285814
0.414764 -0.404616 0.287509
-0.902708 1.05702 0.716795
0.895054 1.04898 0.711488
0.00296313 -0.010996 0.00211077
-0.00333654 -0.011266 0.00231164
0 0 0
0 0 0
-0.0127635 0.0108423 0.0689755
0.0127595 0.0108539 0.0690621
-0.0303715 0.0328615 0.077558
0.0295967 0.0321219 0.0758055
-0.143747 0.194783 0.975573