# vtk DataFile Version 2.0
tri_press
ASCII
DATASET UNSTRUCTURED_GRID
POINTS 3682 float
-0.772413 0.175 -2.025
-0.737617 0.345 1.935
-0.745 0.575 -1.91284
-0.697611 0.795 1.945
0.772401 0.175 -2.025
0.737542 0.345 1.935
0.745 0.582868 -1.905
0.697764 0.795 1.945
-0.800533 0.191948 -0.705
-0.828388 0.209161 0.615
-0.84829 0.76742 -0.626893
-0.821889 0.830148 0.659053
0.800506 0.191942 -0.705
0.828352 0.209143 0.615
0.846134 0.770458 -0.621667
0.820454 0.831234 0.661667
-1.5867 -0.161076 -3.10574
-1.5846 -0.0943378 -2.06408
-1.60532 -0.0737959 -0.742951
-1.6087 -0.055298 0.585495
-1.55158 0.0384769 1.90725
-1.53494 0.0975542 2.95196
-1.54144 0.139764 3.99112
-1.58288 0.0842276 -3.06077
-1.58295 0.169765 -2.02314
-1.61588 0.208951 -0.708713
-1.61025 0.22057 0.609162
-1.51867 0.301627 1.9243
-1.51336 0.358438 2.96846
-1.53107 0.401749 4.00873
-1.57315 0.547577 -2.9619
-1.574 0.631152 -1.92398
-1.64281 0.771141 -0.632974
-1.60944 0.812856 0.65611
-1.4966 0.806747 1.94797
-1.50264 0.861759 2.99369
-1.52905 0.91859 4.03965
-1.57596 1.34763 -2.83837
-1.5824 1.44227 -1.80483
-1.61109 1.57687 -0.526004
-1.61794 1.655 0.745805
-1.59248 1.67567 2.02545
-1.57566 1.6983 3.06071
-1.57211 1.7379 4.10315
-0.793837 -0.159117 -3.1068
-0.780688 -0.0903072 -2.06647
-0.795413 -0.0826084 -0.741775
-0.816952 -0.0623236 0.59039
-0.780862 0.0615778 1.9153
-0.767945 0.113289 2.95752
-0.772215 0.147379 3.99452
-0.793225 0.0805779 -3.0598
-0.751915 0.373943 2.97308
-0.765471 0.408255 4.01137
-0.782845 0.524774 -2.95549
-0.742907 0.860544 2.99335
-0.765483 0.918646 4.0399
-0.774921 1.33406 -2.83231
-0.774175 1.4304 -1.79842
-0.802343 1.57687 -0.521741
-0.823785 1.65996 0.746474
-0.815632 1.67492 2.02369
-0.80327 1.69518 3.05886
-0.798956 1.73528 4.10193
0.776004 -0.1578 -3.10517
0.789199 -0.0899591 -2.06595
0.809531 -0.0824474 -0.741462
0.808757 -0.0622258 0.590604
0.748905 0.0616509 1.91545
0.750417 0.113443 2.95783
0.757963 0.147647 3.99503
0.76382 0.0825144 -3.05761
0.741732 0.374055 2.97331
0.75317 0.408504 4.01185
0.761195 0.529107 -2.95083
0.727329 0.860707 2.99368
0.745368 0.918944 4.04048
0.814041 1.33723 -2.82836
0.826611 1.43354 -1.79432
0.818993 1.57911 -0.518318
0.77881 1.66126 0.748804
0.741798 1.67568 2.02515
0.737794 1.69577 3.06
0.743621 1.73585 4.103
1.56994 -0.158164 -3.10201
1.58511 -0.0925897 -2.06158
1.61351 -0.0727858 -0.741172
1.61107 -0.0547591 0.586584
1.54421 0.0387997 1.90791
1.52781 0.0979804 2.95279
1.53249 0.140377 3.99228
1.55863 0.0881584 -3.05603
1.57586 0.172358 -2.01968
1.61555 0.210344 -0.70624
1.61825 0.221156 0.61044
1.52993 0.301844 1.92476
1.51413 0.358799 2.96918
1.52419 0.402332 4.00984
1.55701 0.554492 -2.95399
1.57114 0.638926 -1.91491
1.64125 0.775246 -0.626246
1.61301 0.814501 0.659638
1.50383 0.807223 1.94901
1.49695 0.862253 2.99469
1.51417 0.919277 4.04098
1.60839 1.35345 -2.83096
1.62275 1.44793 -1.7973
1.62347 1.58102 -0.519646
1.58363 1.65753 0.750285
1.53444 1.67724 2.02842
1.52015 1.69956 3.06309
1.52226 1.73909 4.10535
-0.756999 0.375 -1.96721
-6.02007e-06 0.169792 -2.03021
-0.797498 0.172449 -1.365
-0.761289 0.57 1.98368
-3.75211e-05 0.266055 2.01394
-0.816275 0.243808 1.275
0 0.655094 -1.98508
-0.864837 0.739402 -1.26987
7.65026e-05 0.87796 2.02796
-0.793907 0.846731 1.30203
0.7589 0.378934 -1.9652
0.797185 0.172739 -1.365
0.761248 0.57 1.98359
0.816342 0.243677 1.275
0.861731 0.742827 -1.26333
0.793096 0.847104 1.30333
-0.810209 0.204806 -0.0450001
-0.867928 0.479684 -0.665947
-1.35859e-05 0.206716 -0.705
-0.889078 0.519654 0.637027
-1.81805e-05 0.21057 0.615
-0.833095 0.796789 0.01608
-0.00107829 0.944474 -0.62428
-0.000717267 1.24394 0.66036
0.810164 0.204807 -0.0450001
0.868569 0.4812 -0.663333
0.889147 0.520189 0.638333
0.831055 0.798607 0.02
-0.877723 0.427342 -1.31743
0.878031 0.430067 -1.31417
-9.80301e-06 0.198437 -1.365
-0.000539147 0.816736 -1.2666
-3.01003e-06 0.376967 -2.19203
-0.883262 0.499669 -0.01446
0.883337 0.500694 -0.0125
-1.58832e-05 0.211307 -0.0450001
-0.00089778 1.24322 0.01804
-0.88217 0.544827 1.28851
0.882236 0.545094 1.28917
-2.78508e-05 0.241106 1.275
-0.000320382 1.05589 1.30268
1.94907e-05 0.57 2.19246
-0.731064 0.275 -1.96246
-0.38621 0.169796 -2.0302
-0.793336 0.165344 -1.695
-0.762629 0.4575 1.97251
-0.368827 0.290609 1.98939
-0.808594 0.262756 1.605
-0.765305 0.475 -1.95433
-0.3725 0.636065 -1.96998
-0.84075 0.693033 -1.59135
-0.722326 0.6825 1.95721
-0.348767 0.853196 2.0032
-0.75622 0.831326 1.62351
0.386197 0.169791 -2.03021
0.732363 0.276967 -1.96181
0.793213 0.16545 -1.695
0.368752 0.279277 2.00072
0.762759 0.4575 1.97266
0.80857 0.26271 1.605
0.3725 0.638893 -1.96495
0.766672 0.480901 -1.94982
0.838624 0.698106 -1.58417
0.34892 0.853149 2.00315
0.72244 0.6825 1.95723
0.755606 0.831228 1.62417
-0.805026 0.176188 -1.035
-0.809092 0.194656 -0.375
-0.85906 0.323401 -0.685474
-0.391633 0.216613 -0.705
-0.823332 0.225484 0.945
-0.817006 0.209276 0.285
-0.86979 0.358879 0.626013
-0.401644 0.234984 0.615
-0.856012 0.75286 -0.94838
-0.886909 0.637952 -0.64642
-0.840632 0.782044 -0.305407
-0.44634 0.899257 -0.625587
-0.814868 0.845409 0.98054
-0.8922 0.693259 0.64804
-0.826509 0.812486 0.337567
-0.488353 1.19115 0.659707
0.805484 0.175702 -1.035
0.392379 0.215062 -0.705
0.808996 0.194714 -0.375
0.858439 0.32462 -0.684167
0.82322 0.225536 0.945
0.399131 0.239929 0.615
0.816966 0.209267 0.285
0.869814 0.359134 0.626667
0.853537 0.756247 -0.9425
0.444433 0.901276 -0.622973
0.886875 0.640591 -0.6425
0.838442 0.78438 -0.300833
0.813576 0.84597 0.9825
0.487005 1.19186 0.661014
0.891825 0.694224 0.65
0.824792 0.813958 0.340833
-0.865042 0.401171 -1.64232
-0.378501 0.375983 -2.14081
-7.91154e-06 0.194365 -1.6976
-4.51505e-06 0.27338 -2.08712
-0.881238 0.299895 -1.34122
-0.398754 0.199604 -1.365
-0.8548 0.557414 1.63609
-0.380635 0.57 2.15594
-3.2686e-05 0.250304 1.64447
-9.0152e-06 0.418028 2.151
-0.867881 0.394318 1.28176
-0.408151 0.26549 1.275
-0.000269573 0.770488 -1.62584
-1.50502e-06 0.516031 -2.19246
-0.892708 0.583372 -1.29365
-0.432688 0.797389 -1.26823
-0.00012194 0.919774 1.66532
4.79966e-05 0.72398 2.07426
-0.88085 0.695779 1.29527
-0.397113 1.01986 1.30235
0.86503 0.4045 -1.63968
0.379449 0.37795 -2.14094
0.881233 0.301403 -1.33958
0.398588 0.188686 -1.365
0.854472 0.557547 1.63638
0.380634 0.57 2.15592
0.867892 0.394386 1.28208
0.408157 0.26549 1.275
0.893336 0.586447 -1.28875
0.430596 0.797926 -1.26497
0.880855 0.696099 1.29625
0.396388 1.01984 1.30301
-0.871059 0.340076 -0.0297301
-0.396213 0.225855 -0.0450001
-0.885741 0.453513 -0.99169
-0.879002 0.489677 -0.340203
-1.16945e-05 0.202374 -1.035
-1.47346e-05 0.210138 -0.375
-0.886123 0.509662 0.311283
-0.88739 0.532241 0.96277
-1.70318e-05 0.209726 0.285
-2.30156e-05 0.23028 0.945
-0.884968 0.661624 0.000809997
-0.501531 1.18907 0.01706
-0.00080872 0.837712 -0.94544
-0.000988037 1.12028 -0.30312
-0.000807524 1.25977 0.3392
-0.000518824 1.16702 0.98152
0.871049 0.340602 -0.02875
0.394601 0.229003 -0.0450001
0.885912 0.455633 -0.98875
0.879271 0.490947 -0.337917
0.886157 0.510441 0.312917
0.887576 0.532642 0.96375
0.884842 0.663474 0.00375001
0.499759 1.19027 0.01902
-0.855662 0.287448 -1.66866
-0.885468 0.317856 -1.01335
-0.892784 0.603462 -0.970035
-0.879952 0.529186 -1.61684
0.857388 0.289185 -1.66734
0.880938 0.533674 -1.61193
0.89263 0.606138 -0.965625
0.885457 0.318987 -1.01188
-0.392482 0.192685 -1.6963
0.392393 0.181833 -1.6963
0.399417 0.195561 -1.035
-0.399514 0.206416 -1.035
-0.402594 0.749947 -1.6086
-0.428686 0.824421 -0.94691
0.426562 0.824812 -0.94397
0.401548 0.750308 -1.605
-0.382355 0.27419 -2.10882
-0.3755 0.495515 -2.12096
0.375974 0.498466 -2.11853
0.382823 0.275173 -2.10909
-0.867317 0.33061 -0.357602
-0.871069 0.349155 0.298142
-0.886326 0.676313 0.324425
-0.885486 0.649562 -0.322805
0.867224 0.331371 -0.356458
0.88536 0.651783 -0.319375
0.886278 0.677821 0.326875
0.871106 0.349531 0.298958
-0.393344 0.222392 -0.375
0.393471 0.22207 -0.375
0.397811 0.232576 0.285
-0.399331 0.229614 0.285
-0.484956 1.06621 -0.304263
-0.50036 1.20095 0.338383
0.498789 1.20188 0.340017
0.483202 1.06799 -0.301977
-0.876477 0.379363 0.953885
-0.845773 0.425909 1.62055
-0.842794 0.68914 1.6298
-0.89156 0.68534 0.971655
0.876473 0.379526 0.954375
0.891388 0.685905 0.973125
0.842352 0.6893 1.63027
0.845731 0.425943 1.62069
-0.411177 0.25305 0.945
0.411162 0.261675 0.945
0.388455 0.266674 1.62474
-0.388489 0.265481 1.62474
-0.404208 1.13744 0.98103
-0.37294 0.954645 1.64442
0.372654 0.900525 1.64474
0.403128 1.13714 0.98201
-0.374731 0.437764 2.14708
0.374693 0.437764 2.14714
0.364777 0.70324 2.04499
-0.364701 0.70324 2.04503
-0.73215 0.225 -1.97414
-0.579311 0.171272 -2.02873
-0.784879 0.168167 -1.86
-0.754451 0.40125 1.95808
-0.553222 0.330786 1.94921
-0.782933 0.294051 1.77
-0.758422 0.525 -1.93685
-0.55875 0.621523 -1.9574
-0.804749 0.64589 -1.7521
-0.715039 0.73875 1.95618
-0.523189 0.838604 1.9886
-0.732351 0.818599 1.78426
0.579299 0.171267 -2.02873
0.731915 0.225983 -1.97294
0.784526 0.168506 -1.86
0.553147 0.325045 1.95495
0.754139 0.40125 1.95782
0.782971 0.29394 1.77
0.55875 0.626331 -1.95043
0.759395 0.531884 -1.93097
0.803621 0.652296 -1.74458
0.523342 0.838546 1.98855
0.715105 0.73875 1.95612
0.732245 0.818674 1.78458
-0.800404 0.186443 -0.87
-0.805022 0.193092 -0.54
-0.859912 0.242617 -0.695237
-0.589585 0.217276 -0.705
-0.832254 0.210929 0.78
-0.823079 0.208836 0.45
-0.877642 0.269744 0.620507
-0.608201 0.235702 0.615
-0.852216 0.760204 -0.787637
-0.876576 0.707174 -0.636657
-0.844656 0.774927 -0.46615
-0.650173 0.839055 -0.62624
-0.819413 0.838814 0.819797
-0.871403 0.768883 0.653547
-0.824063 0.821181 0.49831
-0.652376 1.00516 0.65938
0.800422 0.186395 -0.87
0.597563 0.201262 -0.705
0.805035 0.193043 -0.54
0.860072 0.242981 -0.694584
0.830796 0.212329 0.78
0.616889 0.218241 0.615
0.82311 0.208754 0.45
0.877619 0.26987 0.620833
0.850039 0.763556 -0.782083
0.644361 0.834022 -0.62232
0.875821 0.710183 -0.632083
0.842247 0.777378 -0.46125
0.818113 0.8397 0.822083
[...]
POINT_DATA 3682
SCALARS point_scalars float 1
LOOKUP_TABLE default
65.443
-39.1938
-12.0914
-34.8706
33.798
-38.5086
-13.7287
-34.4584
-33.2015
-32.8526
-37.8128
-48.793
-33.0613
-33.1503
-37.7287
-48.9918
77.3693
-82.108
-45.8208
-39.1051
-43.8153
-32.4193
-32.0452
77.3693
-97.2448
-32.9161
-37.9603
-42.8002
-32.0452
-32.0452
90.1025
-78.189
-36.926
-41.6607
-39.9415
-31.5993
-31.5993
-18.2148
-57.5816
-41.7899
-48.4094
-36.9026
-33.988
-32.988
16.0778
33.3384
-33.8869
-32.0337
-40.719
-31.0094
-29.7758
16.0778
-30.4572
-29.3953
163.724
-30.2871
-29.4389
47.1283
-46.7919
-53.695
-63.4889
-33.2117
-31.5874
-30.2088
24.2415
-34.6245
-33.7325
-32.3025
-41.213
-30.3037
-29.2644
24.2415
-29.6741
-28.7996
166.873
-29.9158
-28.833
59.2344
-46.4787
-56.5912
-63.6788
-32.7724
-30.3148
-29.6294
44.2177
-85.5838
-45.6568
-32.8022
-43.7694
-31.8164
-31.5686
44.2177
-97.3454
-32.9023
-38.4415
-42.7192
-31.5686
-31.5686
89.8638
-77.9792
-36.7933
-41.6442
-39.6231
-31.1939
-31.1939
-18.5601
-57.1982
-41.8377
-48.4261
-36.5223
-33.574
-31.4135
-8.41366
-175.636
-56.945
-35.0618
-31.3219
-35.5649
-3.9524
-55.1984
-31.9466
-43.9373
-4.46934
-55.7299
-34.635
-35.239
-54.2562
-43.7625
-31.5112
-33.6681
-36.4369
-37.8336
-34.6018
-50.2718
26.3954
-67.6782
-31.4946
-33.551
-37.8144
-50.3064
-59.5837
-59.0278
-60.5345
-24.3814
191.206
-36.1078
-36.1072
-31.1325
-107.025
-40.767
-40.6267
-32.7732
-39.4103
-21.8297
29.5934
-188.834
-82.5044
-36.2674
-34.9148
-42.1098
-17.4052
-11.1901
-55.3102
-34.8192
-30.6601
-38.8327
-194.402
20.1606
-80.2016
-35.2018
-35.8131
-42.18
-12.8849
-18.2486
-54.9847
-30.5126
-34.3858
-38.606
-43.5475
-30.7909
-32.3902
-36.085
-34.8774
-30.4243
-33.8659
-33.9775
-37.7264
-35.7618
-47.7603
4.02792
-48.2214
-41.2075
-49.7613
-63.3873
-43.7692
-36.2082
-30.8208
-32.3848
-34.9515
-33.825
-30.1761
-33.8115
-37.2681
4.28328
-35.7107
-47.7154
-48.1475
-63.6178
-41.2185
-49.8067
-88.1165
178.147
-86.4005
176.894
-60.075
-60.3664
-42.6712
-29.6371
-34.6008
-23.0711
-39.5487
-33.8165
-41.6833
134.517
-57.7919
-30.9974
-33.6408
-23.5703
-42.6185
-40.4213
-88.0688
178.944
-59.7235
-59.8799
-42.4553
-29.1053
-39.368
-33.1769
-57.213
-30.7522
-42.4676
-40.2836
-33.677
-31.1633
-45.0051
-34.55
-45.5315
-32.5178
-36.5013
-40.1186
-31.8928
-33.0112
-40.8993
-92.7947
0.37668
-9.87583
-86.5656
-49.6028
-33.6756
-31.2153
-44.8169
-34.5635
-36.4991
-39.9959
-40.9404
-92.8452
-89.1791
-45.9186
-42.707
-85.505
-88.7804
-85.2842
-42.5631
-45.8099
-87.0252
-85.6984
-45.2245
-45.0783
-44.1157
-10.4629
-10.1789
-43.7981
133.32
142.676
139.929
137.549
-32.6403
-33.8792
-40.5021
-38.9627
-32.6431
-39.1865
-40.517
-33.9079
-32.2651
-32.3506
-31.753
-32.043
-30.4325
-73.5001
-73.47
-30.8714
-38.5466
-43.0185
-41.8247
-41.9813
-38.4439
-41.8065
-41.5666
-42.889
-33.4628
-33.2052
-34.6894
-35.3037
-50.6317
-34.7479
-34.5615
-50.4819
-29.9279
-29.3684
-28.5514
-29.0745
47.747
-45.3603
-120.806
-37.6271
-37.3505
-41.8845
-8.35249
12.4822
-44.6665
-35.2559
-31.1291
-36.4941
-84.5761
53.9202
-117.847
-35.6631
-37.1259
-42.3756
8.81644
-10.6755
-44.7123
-30.7902
-34.8133
-36.2233
-39.1051
-32.3374
-32.1852
-35.3099
-37.5852
-31.14
-32.886
-33.948
-35.5025
-37.6122
-42.3014
-22.1764
-49.5534
-44.5143
-49.589
-55.257
-38.9507
-35.0502
-32.1384
-32.1749
-37.1888
-33.8517
-31.3021
-33.0723
-35.1678
-21.6168
-37.5893
-41.7783
-49.557
-55.4813
-44.5652
-49.5893
14.4424
-30.8264
-79.8555
133.816
-177.784
-178.561
-110.689
90.8875
-67.6729
-48.3243
-59.4901
-59.5477
-36.0755
-34.5912
-39.6065
-30.2725
-32.5379
-32.4854
-33.8346
-27.748
-37.2448
-34.8126
-38.6138
-34.4157
-2.02729
-3.39667
-33.2567
60.9359
-59.9643
-44.4249
-58.2977
-38.0687
-31.3073
-31.34
-32.1088
-24.5273
-40.9485
-46.1342
-43.9295
-41.956
9.08851
-27.748
-80.7831
135.836
-66.0842
-47.6562
-58.9771
-58.4436
-35.5997
-34.161
-39.2399
-29.9488
-36.8515
-34.5622
-38.4072
-33.7994
-59.2819
-43.9814
-57.53
-37.7282
-40.7292
-45.9935
-43.7798
-41.7868
-31.2642
-30.4468
-32.7768
-30.9336
-32.6274
-34.8675
-38.7474
-33.6391
-36.2999
-36.2772
-40.4515
-34.1339
-36.4922
-39.1902
-36.669
-39.9274
-34.4975
-34.5545
-32.8194
-33.5624
-48.511
-49.7062
-44.6905
-64.8129
21.6564
22.0072
13.108
18.4964
-67.1548
-67.0757
-76.3242
-58.325
-31.3052
-30.4804
-32.7353
-30.8069
-32.6063
-34.7647
-38.8624
-33.6316
-36.4206
-39.1847
-36.6627
-39.872
-48.6763
-50.1197
-44.8062
-64.9478
-72.3618
-59.7037
-58.6707
-50.3657
-71.8785
-59.188
-58.0002
-50.0443
-71.2065
-60.4763
-60.269
-52.0853
-36.4275
-26.4425
-26.3229
-11.6473
177.721
163.319
211.192
178.184
-34.6281
-35.537
-36.3712
-38.0675
-34.6281
-35.5359
-36.3703
-38.0856
-31.2961
-31.7146
-31.4208
-31.3468
-102.67
-60.6448
-98.4429
-102.776
-42.1067
-39.9844
-41.618
-39.091
-41.9816
-39.8344
-41.487
-38.9903
-33.731
-33.0336
-32.7627
-32.8851
-36.1544
-39.618
-39.5696
-43.6988
-25.3355
-21.6649
-24.3983
-24.267
-91.1257
133.605
-117.379
44.2102
-83.0202
-87.944
-40.1595
-31.1988
-36.2688
-31.8655
-44.0407
-38.0281
-72.3964
124.303
-37.634
67.4138
-75.8051
-48.5101
-39.4675
-30.2764
-32.152
-29.0654
-40.8595
-35.823
-115.856
48.1029
-90.2228
153.902
-83.0123
-84.8975
-36.8399
-31.3707
-39.9095
-30.5654
-44.0628
-37.6525
-38.3532
64.4581
-72.4384
120.955
-75.2811
-48.5854
-32.1858
-28.5798
-39.122
-29.8976
-40.6103
-35.6896
-45.6543
-44.5336
-32.0858
-31.8103
-39.2657
-32.1391
-40.0744
-33.9175
-37.1009
-34.3622
-31.4141
-31.5732
-34.4868
-40.2823
-32.435
-33.5781
-41.5688
-22.352
-37.223
-37.2154
-42.8021
-65.2127
-3.11891
-3.63141
-43.749
-51.7697
-40.4811
-41.9404
-44.0869
-58.9223
-66.6535
-59.2608
-45.5368
-44.4041
-40.2418
-33.8114
-32.0904
-31.6534
-39.1182
-32.1172
-37.0287
-33.9961
-32.6786
-33.7622
-31.518
-31.2756
-34.5102
-40.2453
-41.3049
-22.0791
-2.7275
-3.56652
-37.0248
-37.281
-43.074
-65.2831
-43.6339
-51.6105
-66.7513
-59.1165
-40.5052
-41.9201
-44.1453
-58.9583
-88.0723
-86.2917
162.221
183.543
-86.3215
-85.8743
187.262
187.261
-75.9868
-51.0819
-71.5865
-51.7063
-42.7076
-42.5277
-29.3606
-29.3455
-34.6449
-35.1103
-26.6735
-25.9595
-37.8805
-41.4352
-33.6303
-35.0737
-43.2296
-42.9133
149.033
147.293
-48.0673
-71.7126
-40.9024
-21.1176
-33.9698
-33.9402
-25.3359
-26.1137
-42.9193
-40.9323
-44.6342
-37.2285
-88.1347
-86.638
182.921
162.868
-74.9938
-50.7099
-70.5369
-51.5509
-42.295
-42.5194
-28.7443
-28.8831
-37.9499
-41.3539
-33.1328
-34.1226
-72.1367
-47.4787
-20.9158
-40.7949
-40.9071
-42.7099
-36.9122
-44.5042
-33.2263
-33.805
-31.4067
-31.2698
-45.1858
-43.9423
-33.3848
-36.3952
-45.4014
-45.3758
-32.5315
-32.5126
-35.2577
-38.1395
-39.3887
-40.8959
-31.6502
-31.5541
-33.1506
-33.0099
-40.6979
-40.2839
-68.0403
-83.0783
-2.23545
-2.19632
-10.9935
-11.0876
-84.3802
-84.3471
-49.8488
-49.8168
-33.2208
-33.8119
-31.4874
-31.3042
-43.8371
-44.9663
-33.3856
-36.4387
-38.1472
-35.2677
-39.2708
-40.7301
-40.3035
-40.7234
-83.4125
-69.2649
-101.281
-74.2908
-73.6465
-83.1739
-39.4343
-38.8497
-50.7285
-49.9405
-37.742
-47.6364
-49.265
-37.7462
-62.3277
-81.051
-71.0553
-73.5143
-100.864
-83.4858
-72.9274
-73.5111
-61.3804
-72.9045
-70.7147
-81.315
-37.4488
-37.5091
-48.893
-47.2791
-39.3383
-49.8125
-50.474
-38.611
-122.917
-111.519
-71.2765
-70.9682
-120.251
-69.0174
-70.8879
-111.3
-39.5407
-40.3942
-51.8955
-50.2762
-39.6164
-50.9381
-51.98
-40.3586
-40.5571
-46.0761
-37.697
-35.0789
-19.1235
8.46156
-13.9741
-30.2224
-18.9162
-29.8068
-13.8713
8.54991
-41.7528
-35.9285
-37.6129
-45.5876
56.3707
146.594
180.968
94.5402
87.1036
56.5927
199.232
152.076
82.6612
151.162
199.269
56.645
111.391
94.2041
180.907
150.379
-31.4567
-32.1078
-34.0794
-32.7553
-32.9107
-35.4028
-34.9262
-32.2733
-44.0639
-44.4922
-38.2358
-38.1836
-39.8921
-35.143
-37.5176
-44.2398
-31.4555
-32.7405
-34.0695
-32.1219
-39.7982
-44.2745
-37.535
-35.1647
-44.134
-38.1797
-38.232
-44.5477
-32.9923
-32.3095
-34.9305
-35.4133
-33.1793
-34.1157
-31.6228
-31.1846
-32.8508
-31.116
-31.5633
-34.0936
-32.0888
-32.7748
-31.4567
-30.87
-32.0388
-30.9272
-31.383
-32.7954
-42.4953
-66.0779
-56.3226
15.7851
-56.2225
-74.7177
-96.4135
-61.8867
-56.3335
-61.9443
-96.3942
-74.7728
-42.7708
15.8236
-56.5807
-66.3368
-40.6423
-36.5032
-38.4695
-39.2728
-40.9801
-39.7397
-41.8799
-40.7952
-38.6259
-42.3332
-42.5317
-39.4489
-44.9607
-40.7859
-39.8659
-43.1422
-40.2763
-39.2265
-38.3578
-36.5928
-45.0095
-43.3676
-39.8024
-40.731
-38.3077
-39.0958
-42.359
-42.0822
-40.7959
-40.6745
-41.7532
-39.4331
-32.9536
-33.6425
-33.0991
-34.2528
-33.4893
-33.7726
-32.8643
-33.484
-42.4319
-34.6559
-33.7419
-35.1701
-37.9026
-36.1878
-34.0489
-34.5313
-54.9358
-46.3034
-43.9195
-58.6723
-33.3932
-32.1544
-36.3745
-38.5084
-33.2597
-38.3131
-36.3319
-32.1146
-54.8178
-58.6071
-43.8836
-46.1234
-34.1474
-29.0287
-24.4479
-30.3453
-33.0268
-29.9429
-23.4497
-28.6403
-30.0182
-25.9118
-26.3831
-30.0502
-30.4192
-30.3636
-27.0757
-26.5738
77.758
11.9586
-157.225
-38.25
-38.2599
-40.2901
-7.90585
13.8682
-32.0978
-35.185
-32.7353
-35.6314
-39.5072
54.8342
-152.053
-36.7512
-37.6326
-40.0072
9.52247
-10.6702
-32.6943
-32.3259
-34.7527
-35.305
-34.4403
-31.3661
-32.1075
-34.6451
-36.5819
-32.1706
-32.6033
-33.6476
-36.2792
-38.1193
-40.1413
-33.6872
-48.8171
-46.4011
-49.2441
-51.5455
-34.3047
-34.309
-31.2272
-32.0898
-36.5032
-34.5624
-32.3625
-32.8083
-35.9983
-32.5818
-38.0233
-40.1673
-48.9377
-52.1543
-46.5483
-49.2524
3.58026
-18.9245
-81.5391
115.225
-177.83
-177.749
-136.209
21.6871
-61.8882
-51.7805
-59.0458
-58.5366
-35.5582
-34.6938
-37.8551
-31.4078
-31.5412
-31.3671
-31.1318
-29.9031
-36.2839
-34.8903
-36.8493
-34.851
-0.379295
-0.795636
-23.5323
16.0072
-59.8872
-49.4284
-58.9916
-44.7692
-31.7005
-31.7267
-31.7623
-27.0838
-42.3277
-45.0385
-44.1481
-42.744
12.6352
-20.4893
-84.6577
114.856
-60.6936
-50.9513
-58.4783
-57.2217
-35.1094
-34.2687
-37.4851
-31.0212
-35.8278
-34.5506
-36.5989
-34.4926
-59.8482
-48.5407
-58.1258
-44.3453
-42.0916
-44.8501
-43.9865
-42.559
-32.3277
-30.6295
-32.2798
-30.991
-33.1201
-34.2985
-34.574
-33.4629
-36.4487
-36.3833
-37.8681
-35.3913
-37.2208
-38.4772
-37.1136
-38.4412
-34.5024
-34.5242
-33.4801
-34.182
-49.8428
-50.2465
-47.3619
-56.258
25.2042
25.2815
20.1961
26.2329
-67.5894
-67.5387
-72.0105
-63.1668
-31.973
-30.6158
-32.2444
-30.8831
-33.0362
-34.1824
-34.4708
-33.4289
-37.1787
-38.4645
-37.0887
-38.4152
-49.9936
-50.2457
-47.5808
-56.1746
-65.9786
-59.5242
-59.2248
-54.411
-65.6277
-59.0299
-58.5878
-54.0399
-65.5912
-60.4383
-60.381
-56.0263
-30.9799
-24.9377
-24.8432
-17.9041
186.027
165.861
208.635
187.55
-35.3462
-35.887
-36.3154
-37.013
-35.3449
-35.8847
-36.3042
-37.0252
-31.2954
-31.5756
-31.1241
-31.3046
-106.414
-91.278
-103.113
-106.507
-41.2723
-40.3465
-41.2039
-39.611
-41.1145
-40.2043
-41.0703
-39.5118
-33.1839
-32.9034
-32.7712
-32.8826
-37.6067
-39.4709
-39.4433
-41.3094
-23.0928
-21.8366
-24.4633
-22.4037
50.7425
19.5912
-69.4527
125.578
-99.679
-185.218
-148.515
-11.1979
-98.9068
-74.8466
-83.0817
-87.0522
-36.857
-36.1777
-38.2413
-32.364
-36.256
-33.9398
-34.4046
-34.2049
-42.4636
-39.8723
-44.6679
-38.6989
-7.39537
-24.592
-66.295
83.6758
-3.04398
-8.97851
-26.3697
29.3683
-53.4114
-59.033
-63.3305
-51.7093
-34.8037
-34.801
-38.0008
-31.43
-30.6907
-30.9156
-31.3946
-29.5826
-37.7584
-39.7092
-40.2472
-36.884
-117.451
-185.591
-147.786
-13.1211
32.3837
12.829
-76.2275
131.376
-95.887
-72.8313
-82.6731
-82.7848
-35.9562
-33.6013
-34.8438
-33.8346
-36.3825
-35.7165
-37.9101
-31.8274
-43.1559
-39.9034
-45.1455
-38.9656
-4.47657
-10.6975
-27.9768
25.831
-8.68063
-25.8672
-67.29
79.6639
-52.7521
-58.2007
-63.4894
-51.8301
-30.4578
-30.8937
-31.2399
-29.2205
-34.3753
-34.3668
-37.5955
-31.0312
-37.4791
-39.5216
-40.0053
-36.7115
-42.384
-46.0104
-44.941
-44.3627
-31.6517
-30.8663
-31.4842
-31.6514
-32.6444
-32.3313
-34.6717
-32.2746
-35.8438
-36.1992
-37.7304
-34.9374
-36.9438
-34.9923
-36.1613
-34.8626
-30.4726
-30.1054
-29.341
-31.6314
-32.9365
-34.8319
-34.6049
-39.1902
-33.6291
-34.526
-32.7641
-33.8079
-35.7761
-40.6217
-40.4739
-29.8332
-36.7377
-35.2793
-35.959
-36.4163
-44.4781
-48.5846
-44.9221
-55.164
-8.29
15.3169
1.00123
4.22131
-48.8722
-47.1828
-45.542
-49.7622
-42.7548
-40.0301
-40.7903
-41.6574
-49.4829
-49.5897
-47.0463
-54.2872
-59.0725
-65.8872
-65.308
-62.5374
-42.3038
-45.0595
-44.8495
-43.9228
-35.8613
-36.1853
-38.0534
-34.9137
-31.5235
-30.9746
-31.5585
-31.4484
-32.6283
-32.3343
-34.5007
-32.2262
-36.7204
-34.8222
-36.0797
-35.1046
-33.4397
-34.5109
-33.3095
-33.8856
-30.4936
-30.0803
-29.3974
-31.1522
-32.9823
-34.7189
-34.6204
-39.0929
-35.3452
-40.0683
-40.0877
-29.5686
-8.82414
15.6791
1.27933
4.58166
-36.7096
-35.2133
-35.8137
-36.4195
-45.7146
-48.5489
-45.0724
-55.2827
-48.8453
-47.096
-45.4727
-49.6452
-59.1013
-65.786
-65.3767
-62.4703
-42.7873
-40.0217
-40.8513
-41.6288
-49.6074
-49.7154
-47.2044
-54.0925
-90.1721
-79.2296
-87.7132
-87.0284
140.328
181.031
170.205
183.926
-97.7136
-77.9418
-86.2155
-86.0362
150.55
169.592
181.262
180.94
-59.7587
-60.1969
-67.9579
-54.8508
-60.1371
-60.301
-65.6394
-55.756
-41.2017
-43.0339
-42.6976
-42.6635
-29.9887
-28.0587
-29.4361
-29.6695
-34.3418
-34.5136
-34.5352
-34.7845
-25.1739
-22.0133
-23.8781
-23.3783
-39.4044
-39.6873
-38.4464
-39.9512
-34.1751
-33.2107
-33.721
-34.9333
-38.4982
-41.0548
-42.645
-42.4689
75.3262
192.936
143.778
142.141
-57.8088
-58.0135
-52.6723
-64.0967
-34.1681
-28.3276
-36.1099
-25.9433
-32.8224
-34.7383
-33.692
-33.6811
-23.7456
-23.6896
-24.0833
-24.5982
-43.1872
-42.0515
-42.6749
-41.6764
-41.1777
-39.9052
-42.3007
-38.6031
-89.873
-78.577
-87.8119
-87.3681
141.193
181.946
184.205
171.04
-59.2864
-59.7485
-67.293
-54.4488
-59.431
-60.054
-64.9333
-55.4351
-40.907
-42.8631
-42.4527
-42.4824
-29.6835
-27.1708
-28.8427
-29.2214
-39.2232
-39.5227
-38.28
-39.8067
-33.2264
-32.782
-33.2811
-34.0824
-57.1403
-57.4135
-63.3428
-52.2125
-33.8404
-28.1475
-25.7317
-35.8479
-43.0659
-41.9255
-41.7397
-42.5323
-41.0098
-39.8192
-38.4403
-42.1888
-33.1549
-34.1382
-33.5133
-33.6816
-31.0539
-31.2392
-31.2521
-31.1747
-43.8814
-47.3254
-44.9626
-44.4673
-33.8959
-35.0404
-33.9214
-35.4118
-43.0254
-48.6028
-45.4743
-45.4341
-33.2429
-31.8825
-32.5493
-32.5372
-36.5117
-36.4292
-35.9132
-37.2732
-40.5005
-39.5659
-39.7319
-40.4926
-32.3083
-31.5999
-31.9305
-31.8721
-33.0788
-32.8654
-33.0231
-32.9597
-42.5147
-39.3587
-40.9336
-40.6825
-78.9409
-98.4033
-83.1565
-88.2525
6.45604
-5.54917
-0.234406
-0.215091
5.18775
-33.2724
-9.73564
-9.74771
-80.928
-93.1231
-86.0601
-86.0435
-53.6846
-46.2911
-49.7154
-49.5715
-33.1637
-34.1303
-33.5041
-33.6795
-31.0223
-31.2321
-31.3468
-31.2655
-43.4459
-47.1228
-44.2577
-44.8162
-33.9046
-35.0586
-33.9253
-35.4384
-36.5117
-36.4293
-37.277
-35.9149
-40.3848
-39.4357
-39.6132
-40.3545
-42.587
-39.3839
-40.7177
-40.9465
-79.2074
-98.1705
-88.1166
-81.0272
-101.831
-85.2288
-87.2681
-78.5537
-45.8642
-43.5121
-48.0673
-45.2931
-41.9584
-39.7048
-45.2229
-43.3808
-81.2701
-83.6463
-85.8453
-80.406
-101.39
-85.2758
-86.9234
-78.6587
-80.6931
-83.039
-86.1313
-79.8084
-41.7814
-39.4225
-44.96
-43.2871
-45.7283
-43.4303
-48.0415
-45.119
-100.595
-87.3795
-86.3091
-78.5996
-98.2463
-86.2054
-85.4978
-77.3508
-44.9236
-42.9289
-48.162
-45.3141
-44.8961
-42.4641
-48.1635
-45.2335
-44.3419
-46.133
-43.3703
-44.0663
-15.948
-6.57267
-15.3404
-5.68341
-15.5658
-6.28778
-15.0958
-5.54906
-44.1353
-45.6174
-43.1535
-43.7992
144.137
103.317
150.914
186.445
139.217
106.211
168.461
134.304
103.436
137.717
131.625
166.295
110.188
139.156
178.738
152.13
-32.3885
-32.394
-33.0107
-32.9602
-33.1777
-34.2385
-33.8968
-34.5408
-40.3496
-42.023
-39.0949
-40.5052
-38.1046
-40.7384
-37.5739
-39.7599
-32.392
-32.3948
-33.0095
-32.9666
-38.0907
-40.9908
-37.6751
-39.806
-40.3845
-42.0601
-39.1002
-40.5486
-33.2303
-34.2666
-33.9135
-34.5589
-32.0843
-33.0269
-31.7932
-32.4308
-33.0082
-32.0817
-32.4167
-31.9204
-32.2682
-31.797
-31.826
-31.4024
-31.9664
-32.3151
-31.5048
-31.8187
-50.1706
-14.3221
-49.1347
-16.5555
-65.0895
-69.9157
-77.6905
-80.9155
-69.8808
-65.1313
-80.8125
-78.1412
-14.2536
-50.6004
-16.825
-49.6181
-37.958
-38.2245
-38.4071
-38.9892
-41.7632
-43.5956
-42.8588
-43.3084
-40.7998
-41.3893
-42.2813
-42.7813
-42.7422
-42.2708
-41.461
-41.2952
-37.8779
-38.0984
-38.2774
-38.8879
-42.6056
-42.2333
-41.1922
-41.1281
-40.4788
-41.1409
-42.0236
-42.5544
-41.606
-43.4652
-42.6959
-43.1953
-33.7875
-33.4704
-33.5302
-33.277
-33.2008
-33.6915
-32.4762
-32.9662
-35.4284
-36.4107
-34.8825
-33.9326
-36.2266
-36.4461
-35.4871
-34.6273
-51.6946
-54.9164
-47.4739
-50.2125
-33.3778
-35.2766
-34.1164
-36.1121
-33.5169
-35.0847
-34.1711
-35.6766
-51.5277
-54.922
-47.386
-50.1093
-30.5002
-30.6184
-29.4875
-28.5644
-30.0281
-29.9353
-27.8508
-28.8825
-28.4497
-29.3424
-27.346
-28.6995
-29.7519
-28.9812
-29.2024
-28.0263
-91.7641
73.747
-161.173
30.9182
-117.765
-122.702
-39.2193
-34.338
-37.6723
-35.7816
-42.0508
-39.0182
-51.3641
68.7472
-27.0926
53.7562
-52.4317
-40.3375
-37.7131
-31.9462
-32.0715
-30.748
-37.7523
-34.4781
-172.667
39.9964
-92.763
108.915
-116.985
-117.945
-38.7532
-34.8157
-38.8975
-33.6307
-42.0155
-42.0871
-28.9692
44.68
-50.6092
62.6622
-51.7605
-41.8988
-31.8539
-30.3293
-37.3246
-31.517
-37.4536
-34.2761
-39.1885
-39.6404
-31.4312
-32.8483
-33.4937
-31.8411
-36.9426
-34.1631
-40.2735
-33.2195
-31.1435
-31.8558
-33.1211
-39.0826
-32.6908
-34.2843
-36.8499
-28.7643
-37.0484
-38.6413
-41.1634
-49.9936
-17.8078
-27.5115
-47.0419
-52.5046
-44.4567
-44.7224
-46.2708
-52.7334
-54.9275
-55.9857
-39.1283
-39.3641
-36.691
-33.7385
-31.5084
-32.4303
-33.5
-31.8272
-39.9862
-32.7466
-32.7508
-33.887
-31.2869
-32.065
-33.219
-38.9315
-36.769
-28.4123
-18.3039
-26.511
-36.9391
-38.7142
-41.4675
-50.5192
-47.1041
-52.3916
-55.1411
-55.9059
-44.556
-44.779
-46.386
-52.4636
-84.3289
118.895
-75.2386
111.685
-79.6409
-79.9749
138.627
140.463
-137.46
-6.93054
-137.614
-9.84763
-111.252
-111.205
89.9503
90.2519
-73.8153
-69.6742
-48.987
-50.154
-66.6386
-53.4962
-64.885
-54.9219
-38.0532
-31.7406
-37.9296
-31.3845
-39.732
-39.5931
-30.2893
-30.3866
-31.9275
-31.991
-32.3206
-31.5201
-34.196
-34.0803
-28.0261
-27.762
-40.0963
-36.4322
-35.5409
-34.5753
-37.0552
-39.4609
-34.2502
-35.0512
-27.5507
31.2595
-27.5912
29.8951
-33.6694
-33.9536
54.7512
54.882
-67.9356
-50.818
-47.7575
-36.3585
-52.4973
-65.4193
-42.6464
-34.0245
-31.3559
-28.2658
-31.3219
-27.8983
-32.1507
-32.1324
-24.6264
-25.0575
-41.799
-39.491
-44.6228
-46.048
-43.0861
-43.9196
-44.2037
-40.1676
-88.191
120.137
-77.7586
111.323
-80.8073
-81.121
142.498
141.782
-72.8566
-67.7667
-48.7194
-49.364
-65.9812
-53.1499
-63.5342
-54.0336
-37.6877
-31.3077
-37.5595
-31.0003
-39.2224
-39.3978
-29.9292
-30.0711
-39.6726
-35.8967
-35.4622
-34.2657
-36.8945
-39.1982
-33.7767
-34.2466
-69.1754
-50.1872
-47.0843
-36.0583
-64.1143
-52.088
-33.6171
-42.0719
-41.5531
-39.2957
-44.5633
-45.8711
-43.8386
-42.8877
-39.9894
-44.016
-31.1141
-31.325
-30.645
-30.9618
-32.5907
-32.1316
-31.0372
-30.8597
-34.1603
-32.6816
-35.4165
-34.8248
-38.5754
-38.2452
-33.1229
-34.3287
-37.8303
-35.2171
-37.8546
-35.2063
-40.4299
-40.4058
-34.1908
-34.1916
-35.7487
-38.8172
-38.6191
-39.8936
-35.9882
-37.3808
-39.3889
-40.4963
-33.3712
-33.8884
-33.4004
-34.0291
-32.873
-32.8778
-33.6786
-33.5451
-46.3551
-55.5447
-46.8705
-55.1821
-44.8281
-44.5352
-65.4745
-63.4804
15.7645
22.1527
16.1311
22.1733
11.3298
11.8712
18.2071
18.3541
-70.9776
-63.3314
-70.925
-63.2761
-75.9379
-75.9686
-58.4101
-58.381
-31.2003
-31.3897
-30.7222
-31.0865
-32.5701
-32.1877
-30.8774
-30.6968
-33.9729
-32.6532
-35.3353
-34.7841
-38.1122
-38.3745
-33.1097
-34.346
-35.7413
-38.7674
-38.613
-39.8523
-37.3779
-35.987
-39.327
-40.4374
-46.3868
-55.5087
-46.9618
-55.2022
-44.6111
-44.9552
-63.6116
-65.4832
-72.6936
-71.6497
-66.5572
-54.4622
-53.2441
-65.2772
-50.5602
-49.8257
-72.0504
-71.0408
-66.0224
-54.1444
-64.6643
-52.7779
-49.4676
-50.2987
-71.2497
-71.0009
-65.5817
-55.9657
-65.2976
-55.815
-51.9542
-52.0153
-36.6983
-36.6684
-32.1134
-20.6127
-20.4353
-32.0038
-12.279
-12.2389
178.931
190.189
168.258
167.885
200.7