# vtk DataFile Version 2.0
tri_press
ASCII
DATASET UNSTRUCTURED_GRID
POINTS 3682 float
-0.57505 0.215 -2.035
-0.61076 0.365 2.105
-0.625 0.735 -1.94259
-0.555 1.015 2.0725
0.575049 0.215 -2.035
0.610757 0.365 2.105
0.625 0.735 -1.94259
0.555 1.015 2.0725
-0.708331 0.143622 -0.655
-0.770005 0.143852 0.725
-0.739316 0.965982 -0.604227
-0.72809 1.07142 0.734137
0.708329 0.143622 -0.655
0.770002 0.143852 0.725
0.739317 0.965984 -0.604227
0.728112 1.07145 0.734137
-1.27416 -0.238958 -3.14488
-1.28444 -0.185166 -2.05755
-1.38691 -0.235266 -0.676476
-1.43809 -0.242924 0.71298
-1.35291 -0.0982579 2.09476
-1.32314 -0.00842365 3.18554
-1.331 0.0487547 4.26993
-1.27057 0.107454 -3.11364
-1.27922 0.194514 -2.03086
-1.40519 0.172816 -0.65789
-1.44277 0.162612 0.718833
-1.30045 0.290441 2.09261
-1.28798 0.376427 3.1828
-1.31356 0.434258 4.26854
-1.29282 0.736697 -3.03948
-1.31556 0.821106 -1.95498
-1.42656 0.976878 -0.610394
-1.41723 1.03774 0.731247
-1.26177 1.02815 2.07664
-1.26812 1.11 3.16855
-1.30667 1.1879 4.261
-1.33565 1.83861 -2.95955
-1.35555 1.94708 -1.88129
-1.39966 2.12552 -0.550196
-1.41629 2.24684 0.771921
-1.38799 2.28382 2.10345
-1.36743 2.31574 3.18262
-1.36471 2.36803 4.27052
-0.610682 -0.228568 -3.14756
-0.595262 -0.16994 -2.06147
-0.679465 -0.2499 -0.675951
-0.745275 -0.254858 0.718243
-0.687357 -0.0583445 2.10396
-0.664055 0.0199338 3.19179
-0.670285 0.0636616 4.27354
-0.60935 0.107969 -3.11447
-0.635911 0.405117 3.18795
-0.657857 0.447931 4.27126
-0.627025 0.702299 -3.03433
-0.620377 1.11259 3.16772
-0.654662 1.19179 4.26083
-0.653077 1.81539 -2.95446
-0.662181 1.92529 -1.87568
-0.698843 2.12248 -0.546815
-0.727988 2.25578 0.771515
-0.720636 2.28613 2.10055
-0.705451 2.31434 3.17972
-0.701492 2.36691 4.26842
0.652353 -0.228567 -3.14756
0.653299 -0.169939 -2.06147
0.724199 -0.249899 -0.675951
0.730228 -0.254857 0.718244
0.626533 -0.0583438 2.10396
0.629145 0.0199352 3.19179
0.638831 0.0636641 4.27354
0.631209 0.107969 -3.11447
0.619002 0.405118 3.18795
0.633972 0.447933 4.27126
0.644329 0.7023 -3.03433
0.59956 1.1126 3.16772
0.624338 1.19179 4.26083
0.694412 1.8154 -2.95446
0.706222 1.92529 -1.87568
0.704906 2.12249 -0.546815
0.664239 2.25579 0.771515
0.61724 2.28614 2.10055
0.611897 2.31434 3.17972
0.618725 2.36692 4.26842
1.30517 -0.238955 -3.14488
1.31269 -0.185164 -2.05755
1.40948 -0.235262 -0.676476
1.43802 -0.242919 0.71298
1.33224 -0.0982549 2.09476
1.30308 -0.00841965 3.18554
1.30648 0.0487597 4.26993
1.28124 0.107456 -3.11364
1.27134 0.194516 -2.03086
1.40117 0.172821 -0.65789
1.45179 0.16262 0.718833
1.31442 0.290444 2.09261
1.28513 0.376431 3.1828
1.2962 0.434264 4.26854
1.29771 0.7367 -3.03948
1.30416 0.821109 -1.95498
1.41802 0.976886 -0.610394
1.4219 1.03776 0.731247
1.27264 1.02816 2.07664
1.26019 1.11001 3.16855
1.28235 1.1879 4.261
1.36714 1.83861 -2.95955
1.38464 1.94708 -1.88129
1.39844 2.12553 -0.550197
1.3639 2.24686 0.77192
1.30474 2.28383 2.10345
1.28631 2.31576 3.18262
1.28827 2.36804 4.27052
-0.656239 0.475 -2.04501
-5.06639e-07 0.21779 -2.03221
-0.631033 0.189969 -1.345
-0.572682 0.69 2.07855
-1.49012e-06 0.317927 2.15207
-0.714661 0.230147 1.415
0 0.80039 -2.00798
-0.698335 0.866668 -1.27341
0 1.04091 2.09841
-0.68045 1.08212 1.40332
0.656246 0.475 -2.04502
0.631029 0.189971 -1.345
0.57278 0.69 2.07865
0.716013 0.228793 1.415
0.698299 0.866632 -1.27341
0.680548 1.08221 1.40332
-0.739167 0.143738 0.035
-0.851223 0.554802 -0.629613
-8.34465e-07 0.141221 -0.655
-0.873868 0.607638 0.729568
-1.16229e-06 0.141253 0.725
-0.742237 1.02724 0.064955
7.0596e-07 1.25926 -0.604227
1.09582e-05 1.43739 0.734137
0.739165 0.143738 0.035
0.851214 0.554803 -0.629613
0.873868 0.607649 0.729568
0.742237 1.02724 0.064955
-0.859589 0.514901 -1.3092
0.85959 0.514901 -1.3092
-6.70552e-07 0.189586 -1.345
3.5298e-07 0.966761 -1.27341
-2.5332e-07 0.475 -2.23371
-0.86298 0.58122 0.0499775
0.862977 0.581226 0.0499775
-9.98378e-07 0.141237 0.035
5.83207e-06 1.43661 0.064955
-0.880347 0.648819 1.40916
0.880351 0.648824 1.40916
-1.3262e-06 0.222521 1.415
5.47909e-06 1.26003 1.40332
-7.45058e-07 0.69 2.13217
-0.618671 0.345 -2.04303
-0.287525 0.21172 -2.03828
-0.606984 0.198542 -1.69
-0.630281 0.5275 2.13034
-0.305381 0.322272 2.14773
-0.706384 0.2539 1.76
-0.636779 0.605 -1.98996
-0.3125 0.791613 -1.9992
-0.675343 0.81451 -1.608
-0.56532 0.8525 2.077
-0.2775 1.0356 2.0931
-0.613643 1.04448 1.73791
0.287524 0.211712 -2.03829
0.618688 0.345 -2.04305
0.606983 0.198542 -1.69
0.305378 0.322256 2.14774
0.630169 0.5275 2.13023
0.706421 0.253861 1.76
0.3125 0.791592 -1.99918
0.636675 0.605 -1.98986
0.67534 0.814507 -1.608
0.2775 1.0356 2.0931
0.565329 0.8525 2.07701
0.613651 1.04448 1.73791
-0.693126 0.143352 -1
-0.723749 0.14368 -0.31
-0.83301 0.322596 -0.642307
-0.354085 0.142582 -0.655
-0.713163 0.216169 1.07
-0.754585 0.143796 0.38
-0.845017 0.364205 0.727284
-0.384918 0.142723 0.725
-0.735562 0.933062 -0.938818
-0.841526 0.78352 -0.61692
-0.741673 0.997507 -0.269636
-0.432272 1.23785 -0.604227
-0.71553 1.08803 1.06873
-0.854437 0.866259 0.731853
-0.737028 1.05119 0.399546
-0.443807 1.41394 0.734137
0.693124 0.143352 -1
0.354084 0.142582 -0.655
0.723747 0.14368 -0.31
0.833005 0.322596 -0.642307
0.71215 0.21718 1.07
0.384915 0.142723 0.725
0.754583 0.143796 0.38
0.845005 0.364215 0.727284
0.735541 0.933041 -0.938818
0.432271 1.23785 -0.604227
0.841533 0.783527 -0.61692
0.741656 0.997489 -0.269636
0.715537 1.08804 1.06873
0.443829 1.41395 0.734137
0.854429 0.866266 0.731853
0.737036 1.0512 0.399546
-0.851692 0.494951 -1.67711
-0.32812 0.475 -2.21316
-5.88596e-07 0.198339 -1.6886
-3.7998e-07 0.346395 -2.19092
-0.846606 0.352435 -1.3271
-0.315517 0.189586 -1.345
-0.820949 0.669409 1.74386
-0.286341 0.69 2.12429
-1.40816e-06 0.238429 1.78354
-1.11759e-06 0.503964 2.22939
-0.854643 0.439483 1.41208
-0.357331 0.222088 1.415
1.7649e-07 0.895322 -1.64069
-1.2666e-07 0.637695 -2.21864
-0.863155 0.690785 -1.29131
-0.349167 0.954217 -1.27341
2.73955e-06 1.11175 1.75086
-3.72529e-07 0.865455 2.11849
-0.845506 0.865468 1.40624
-0.340222 1.24314 1.40332
0.851687 0.494951 -1.67711
0.328123 0.475 -2.21352
0.846623 0.352436 -1.3271
0.315514 0.189586 -1.345
0.820916 0.669412 1.74391
0.28639 0.69 2.12433
0.85418 0.438809 1.41208
0.358006 0.222963 1.415
0.863541 0.690767 -1.29131
0.349149 0.954185 -1.27341
0.845495 0.865519 1.40624
0.340277 1.24315 1.40332
-0.836965 0.344533 0.0424887
-0.369501 0.142653 0.035
-0.846571 0.534852 -0.969409
-0.855804 0.568011 -0.289818
-7.52509e-07 0.141076 -1
-9.16421e-07 0.141229 -0.31
-0.869304 0.594429 0.389773
-0.88888 0.628228 1.06936
-1.08033e-06 0.141245 0.38
-1.24425e-06 0.215 1.07
-0.86882 0.837334 0.0574662
-0.466522 1.42274 0.064955
5.2947e-07 1.10284 -0.938818
3.26901e-06 1.39112 -0.269636
8.39513e-06 1.44701 0.399546
8.21864e-06 1.3822 1.06873
0.836963 0.344536 0.0424887
0.369499 0.142653 0.035
0.846552 0.534852 -0.969409
0.855799 0.568014 -0.289818
0.869301 0.594437 0.389773
0.888884 0.628236 1.06936
0.868696 0.837276 0.0574662
0.466528 1.42274 0.064955
-0.83896 0.348718 -1.68355
-0.848701 0.350824 -0.984705
-0.842235 0.725589 -0.954113
-0.839983 0.647892 -1.64255
0.838969 0.348718 -1.68356
0.840031 0.647883 -1.64255
0.842244 0.72558 -0.954113
0.848702 0.350824 -0.984705
-0.301521 0.198352 -1.6893
0.301519 0.198352 -1.6893
0.334839 0.141076 -1
-0.334841 0.141076 -1
-0.330834 0.886199 -1.62435
-0.359412 1.08072 -0.938818
0.359404 1.08072 -0.938818
0.330825 0.886199 -1.62435
-0.307823 0.345698 -2.17623
-0.32031 0.621348 -2.20019
0.320311 0.621348 -2.20026
0.307823 0.345698 -2.1762
-0.83457 0.333773 -0.299909
-0.84033 0.354699 0.384887
-0.857082 0.849524 0.394659
-0.848444 0.807063 -0.279727
0.834574 0.333771 -0.299909
0.848446 0.807067 -0.279727
0.857076 0.849528 0.394659
0.840336 0.3547 0.384887
-0.361793 0.142618 -0.31
0.361792 0.142618 -0.31
0.377207 0.142688 0.38
-0.37721 0.142688 0.38
-0.469168 1.36984 -0.269636
-0.462046 1.4321 0.399546
0.462063 1.43211 0.399546
0.469169 1.36983 -0.269636
-0.854904 0.407614 1.06968
-0.805104 0.483492 1.75193
-0.798806 0.858984 1.74088
-0.856868 0.852499 1.06905
0.854534 0.407279 1.06968
0.857091 0.852533 1.06905
0.798748 0.85901 1.74091
0.805053 0.483154 1.75195
-0.371167 0.215 1.07
0.371503 0.214999 1.07
0.331692 0.238413 1.77177
-0.331356 0.238413 1.77177
-0.352131 1.36427 1.06873
-0.308861 1.09643 1.74439
0.308888 1.09643 1.74439
0.352169 1.36433 1.06873
-0.295861 0.515732 2.21698
0.295884 0.515732 2.21697
0.281945 0.858978 2.11091
-0.281921 0.858978 2.1109
-0.595187 0.28 -2.03734
-0.431288 0.212211 -2.03779
-0.593262 0.204526 -1.8625
-0.622985 0.44625 2.12013
-0.45807 0.330769 2.13923
-0.669482 0.29854 1.9325
-0.635645 0.67 -1.97103
-0.46875 0.775325 -1.98291
-0.654822 0.779405 -1.77529
-0.560711 0.93375 2.0753
-0.41625 1.0281 2.0856
-0.585224 1.03064 1.9052
0.431287 0.212193 -2.03781
0.595205 0.28 -2.03736
0.593393 0.204394 -1.8625
0.458067 0.330818 2.13918
0.622913 0.44625 2.12006
0.669529 0.29849 1.9325
0.46875 0.775349 -1.98294
0.635661 0.67 -1.97105
0.654824 0.779407 -1.77529
0.41625 1.02809 2.08559
0.560694 0.93375 2.07529
0.585219 1.03064 1.9052
-0.700619 0.143596 -0.8275
-0.71604 0.143651 -0.4825
-0.809833 0.213528 -0.648654
-0.531207 0.143105 -0.655
-0.709862 0.211732 0.8975
-0.762294 0.143824 0.5525
-0.824533 0.245517 0.726142
-0.57746 0.143291 0.725
-0.742976 0.95506 -0.771522
-0.810686 0.884884 -0.610573
-0.740157 0.981407 -0.436931
-0.632338 1.19501 -0.604227
-0.71885 1.07677 0.901432
-0.768518 0.957469 0.732995
-0.732545 1.06129 0.566841
-0.62899 1.32877 0.734137
0.700618 0.143596 -0.8275
0.531205 0.143105 -0.655
0.716038 0.143651 -0.4825
0.80983 0.213528 -0.648654
0.709928 0.211664 0.8975
0.577457 0.143291 0.725
0.762292 0.143824 0.5525
0.824563 0.245504 0.726142
0.743 0.955083 -0.771522
0.632332 1.19499 -0.604227
0.810682 0.884884 -0.610573
0.740158 0.981408 -0.436931
0.71883 1.07675 0.901432
0.629212 1.32918 0.734137
0.768541 0.957491 0.732995
0.73255 1.0613 0.566841
-0.64372 0.41 -2.05028
-0.656104 0.54 -2.02708
[...]
POINT_DATA 3682
SCALARS point_scalars float 1
LOOKUP_TABLE default
-93.3504
-39.9273
-22.0859
-35.6319
-92.7913
-39.7509
-22.0101
-35.4534
-46.7105
-50.225
-68.0667
-52.2906
-46.6959
-50.163
-67.9165
-52.2648
-71.9447
-97.1275
-45.356
-50.0016
-43.7092
-39.1846
-36.7016
68.8805
-92.7415
-42.9142
-45.4173
-43.347
-37.552
-36.4615
89.7769
-65.3366
-55.3139
-46.8215
-41.3641
-36.7043
-36.2527
-21.2291
-48.7455
-85.7557
-63.2106
-36.3856
-35.6654
-35.5563
10.9428
-142.837
-47.1676
-50.5198
-44.3168
-37.1803
-36.7018
156.942
-36.5453
-35.5871
165.581
-34.3312
-35.5744
19.8352
-25.5857
-82.1796
-64.3606
-34.3074
-34.0631
-33.3996
11.644
-135.654
-47.2533
-50.548
-43.6557
-37.0621
-36.7034
156.946
-36.4585
-35.307
165.484
-33.8823
-35.307
19.7263
-26.3544
-81.9089
-64.2547
-36.8496
-33.359
-33.2334
-42.7427
-97.0673
-45.3449
-49.9438
-43.5704
-39.0342
-36.5874
65.8639
-92.2433
-42.9078
-45.3785
-43.193
-37.4177
-36.3598
89.961
-66.4243
-55.2934
-46.8371
-41.1981
-36.3613
-36.1382
-21.1482
-50.3266
-85.7251
-63.1196
-36.2576
-35.3731
-35.3731
41.7844
-128.348
-46.7888
-36.0122
-37.9259
-41.2125
-18.7029
-26.898
-32.9511
-44.7346
41.8067
-46.8053
-35.8766
-41.22
-26.9831
-44.6688
-41.1985
-44.8369
-47.9476
-44.0397
-51.1876
-57.5089
-22.3608
-64.7906
-41.1845
-44.8275
-44.0034
-57.4455
-57.4522
-57.4462
-49.4684
11.5964
200.132
-43.7792
-43.7533
-44.0768
-92.6188
-49.6557
-49.8101
-40.0753
-38.2928
-30.0258
29.7083
-130.976
-72.376
-37.4018
-38.529
-46.5497
18.8255
-18.9254
-41.7009
-35.7739
-33.1706
-37.5701
-131.086
29.9992
-72.3811
-38.3288
-37.2666
-46.5308
-18.9555
18.7981
-41.4425
-33.0562
-35.6262
-37.5044
-43.9754
-41.8936
-42.7851
-47.7162
-41.6219
-42.7687
-43.2186
-51.2445
-59.0506
-52.6433
-61.8206
-27.8264
-50.3218
-46.801
-55.3063
-62.9679
-43.9619
-47.7116
-41.8797
-42.7802
-41.5009
-51.223
-42.747
-43.182
-59.0068
-27.7852
-52.6252
-61.788
-50.2929
-62.9471
-46.7204
-55.2626
-104.339
181.252
-69.3373
145.712
-53.6661
-48.0911
-45.9944
-33.6507
-39.624
-33.0275
-46.6777
-40.2471
-9.49354
160.896
-59.8227
3.22132
-33.6409
-28.7237
-47.7071
-39.1679
-104.351
181.251
-53.6784
-48.0897
-45.8424
-33.409
-46.577
-40.1095
-59.8168
2.29016
-47.6853
-39.1541
-41.1436
-43.3795
-48.9034
-44.0247
-43.2703
-44.6326
-44.1742
-46.6754
-46.0459
-43.2017
-49.7817
-86.1228
18.6633
-87.7628
-74.7991
-49.2623
-41.127
-43.3717
-48.8806
-44.0085
-44.1516
-46.6218
-49.7217
-86.1135
-98.8561
-51.7415
-51.885
-77.9578
-99.0167
-78.1879
-51.8493
-51.7182
-68.8031
-68.7905
-42.8461
-42.8571
-13.4847
14.7272
14.701
-13.4415
143.258
141.375
140.706
143.299
-41.2498
-42.0184
-49.5033
-51.0345
-41.2357
-51.0142
-49.4938
-41.9978
-43.9299
-43.9235
-45.4175
-45.4295
-80.8239
-73.3235
-73.3054
-80.7769
-44.6651
-47.1686
-44.0915
-47.8829
-44.5169
-47.913
-43.9445
-47.0383
-42.8506
-42.791
-40.7851
-40.714
-50.0531
-34.3728
-34.3428
-50.0978
-35.5035
-35.3425
-32.246
-32.5325
1.71149
-145.639
-99.0878
-38.3394
-39.4006
-44.6966
5.80847
-24.8294
-33.6977
-36.016
-33.8848
-35.9899
-145.415
2.86925
-99.2027
-39.2609
-38.1957
-44.5868
-25.0215
5.98709
-33.7407
-33.7579
-35.8456
-35.8891
-48.3759
-43.4306
-43.5598
-47.1523
-49.6609
-44.8226
-46.57
-51.559
-66.6003
-60.7369
-63.8212
-64.7375
-50.2782
-51.4867
-53.4546
-58.5999
-48.3597
-47.1435
-43.4168
-43.5471
-49.518
-51.5165
-44.7928
-46.554
-66.6806
-64.5576
-60.7037
-63.8015
-50.2664
-58.5939
-51.4754
-53.4137
40.3917
32.921
-48.4515
133.447
-127.071
-127.456
-90.0866
44.2794
-56.8134
-38.5871
-51.1871
-47.2027
-35.8391
-35.9548
-42.7016
-35.262
-37.8372
-37.7691
-39.6398
-34.4863
-45.6608
-40.7981
-44.4817
-40.249
-17.9581
-17.9115
-17.1936
25.1047
-31.971
-30.0745
-57.5471
-8.79406
-33.0117
-32.9518
-33.6775
-27.1999
-40.7202
-48.1373
-45.8567
-40.6284
40.5135
32.8813
-48.4807
133.382
-56.8323
-38.5891
-51.1799
-47.2057
-35.7027
-35.8222
-42.521
-35.0906
-45.7561
-40.7011
-44.5036
-40.1936
-32.0177
-30.0086
-57.5427
-7.91504
-40.6532
-48.0897
-45.7957
-40.6075
-41.1595
-41.7439
-40.7361
-42.5725
-43.3521
-47.3738
-45.4783
-44.4133
-47.9273
-47.9255
-50.5143
-45.9433
-42.6431
-45.4012
-44.1023
-43.7434
-51.3047
-51.2941
-48.0919
-49.3524
-59.5224
-58.1793
-55.6406
-70.6219
-21.5451
-21.5093
1.13736
-47.0011
-64.5191
-64.5112
-70.1182
-56.8716
-41.1456
-41.7267
-40.7192
-42.5616
-43.3439
-47.3653
-45.4649
-44.3892
-42.6089
-45.3665
-44.0737
-43.7454
-59.4819
-58.1672
-55.5974
-70.5397
-70.7314
-55.8408
-58.6942
-54.6405
-70.7269
-55.8353
-58.7122
-54.6206
-57.4494
-49.0193
-49.0212
-43.2063
0.233266
9.98277
9.98532
24.3229
202.906
170.264
200.228
202.925
-42.0755
-43.5806
-44.1624
-46.5641
-42.0558
-43.557
-44.1402
-46.532
-43.9152
-44.0103
-44.7549
-43.911
-91.9649
-94.141
-82.8696
-91.9619
-50.2212
-48.2783
-49.4087
-47.8614
-50.095
-48.21
-49.5811
-47.8188
-40.1887
-40.1243
-40.0741
-40.8089
-35.4177
-38.5175
-38.5128
-42.657
-31.2755
-30.123
-29.2881
-31.0581
-54.8587
97.7589
-89.8923
88.0009
-95.5404
-69.243
-42.5167
-36.4514
-40.1969
-36.0326
-47.4162
-41.5935
-36.3673
95.2877
-19.299
59.7307
-62.0877
-22.6786
-41.6395
-34.8086
-33.7849
-32.0389
-38.9247
-35.2619
-89.8167
88.3688
-54.8509
97.7388
-95.3949
-69.2465
-40.4929
-35.9149
-42.3583
-36.3481
-47.247
-42.1248
-19.256
59.5806
-35.6438
95.3698
-62.0143
-22.3843
-33.7303
-31.722
-41.4695
-34.6015
-38.8313
-35.2131
-54.916
-40.7453
-40.92
-43.1772
-44.977
-41.8023
-50.8683
-45.3562
-43.2644
-42.4027
-41.9602
-44.633
-42.8216
-49.3371
-47.6936
-49.6097
-57.8385
0.90794
-51.0971
-51.9665
-57.6484
-88.494
1.47117
-45.4021
-49.3403
-52.1187
-48.2948
-46.7379
-54.3588
-63.8274
-67.5196
-56.9231
-54.7667
-40.7353
-50.8667
-45.3503
-40.9038
-43.1678
-44.9777
-41.7906
-43.1696
-42.3303
-47.6777
-49.5789
-41.9389
-44.616
-42.798
-49.2394
-57.8345
0.753433
1.4537
-45.4839
-51.0855
-51.9383
-57.5381
-88.3835
-49.3275
-52.0908
-67.503
-56.9078
-48.2745
-46.7331
-54.3281
-63.7374
-100.807
-101.404
159.9
164.439
-69.051
-69.0806
147.242
147.344
-67.25
-51.0008
-56.0356
-41.1956
-46.7766
-45.2007
-33.6878
-32.9725
-39.8747
-39.8105
-34.1269
-33.9832
-44.9129
-50.9182
-40.6176
-40.7622
-10.3268
-10.289
160.525
160.484
-56.8999
-74.2961
-5.80053
16.4511
-33.8652
-33.8395
-30.0044
-30.2437
-46.5102
-47.9181
-43.6653
-36.2495
-100.889
-101.58
164.458
159.885
-67.2859
-50.9104
-56.0358
-41.186
-45.0564
-46.6196
-33.4514
-32.7094
-45.0065
-50.823
-40.49
-40.6973
-74.3803
-56.9059
17.3575
-5.79517
-47.8789
-46.3902
-36.2316
-43.6527
-41.0589
-41.7124
-43.2968
-44.0564
-49.7442
-49.6279
-42.2207
-46.7642
-44.3675
-44.3727
-44.4816
-44.4784
-42.4803
-46.5217
-46.5091
-46.108
-45.9193
-45.9255
-43.1215
-43.0945
-50.4255
-51.2269
-89.0934
-77.5095
18.0427
18.1127
-84.8022
-84.8078
-75.8643
-75.8579
-49.5948
-49.5885
-41.0453
-41.6939
-43.2898
-44.0469
-49.5793
-49.7276
-42.2067
-46.7451
-46.5009
-42.4597
-46.4139
-46.1827
-51.4042
-50.4207
-77.4972
-89.0793
-71.7761
-65.2479
-69.2929
-52.0744
-47.007
-44.6793
-53.3604
-46.0961
-59.0237
-60.0389
-55.6371
-47.2891
-38.5523
-38.7857
-72.3872
-56.7976
-72.0246
-51.9454
-69.3076
-65.2931
-38.753
-56.8687
-72.3729
-38.8371
-59.0279
-47.2722
-55.6325
-60.0074
-46.9983
-46.3644
-53.3257
-44.67
-92.1349
-89.7165
-56.8624
-55.5384
-92.1478
-55.5434
-56.8736
-89.4032
-50.933
-50.6666
-42.5092
-39.5493
-50.9398
-39.5549
-42.5143
-50.6664
-22.2334
-15.9908
-0.962943
-17.4125
-34.7198
0.925406
22.8965
3.30024
-35.5586
2.36275
22.7587
0.930446
-22.4125
-17.3869
-0.931772
-15.9303
75.1904
123.507
172.06
73.1047
50.6064
36.3656
199.314
107.66
50.8975
107.525
199.314
36.0671
76.1192
73.5829
172.033
123.454
-41.9955
-40.5807
-41.8954
-42.6797
-43.4171
-42.7499
-42.4306
-41.1984
-52.4924
-56.22
-47.1122
-45.8356
-58.646
-47.2279
-46.2293
-57.412
-41.9801
-42.6547
-41.8762
-40.5646
-58.5997
-57.3548
-46.2039
-47.2069
-52.4628
-45.8088
-47.0945
-56.1939
-43.3901
-41.1809
-42.409
-42.7236
-44.633
-45.9419
-43.8576
-42.4811
-44.6239
-42.4712
-43.854
-45.9393
-47.0186
-48.0184
-44.5931
-43.1982
-47.0414
-43.2115
-44.5981
-48.0264
-80.994
-76.7485
-93.3948
-47.0529
-59.9177
-69.5542
-82.0507
-65.9664
-59.8428
-66.1836
-82.043
-69.5434
-80.5411
-47.0432
-93.3823
-76.7045
-50.6689
-43.1378
-46.4551
-46.514
-43.4269
-42.5327
-51.1462
-51.035
-37.1298
-42.1925
-47.9697
-42.2741
-49.4939
-45.452
-48.8968
-48.1024
-50.6439
-46.5297
-46.4388
-43.2239
-49.4899
-48.0565
-48.8876
-45.3822
-37.0037
-42.0926
-47.8094
-42.1238
-43.2828
-51.034
-51.0776
-42.3552
-49.6398
-49.4526
-40.7584
-40.5266
-49.597
-40.3686
-40.7259
-49.4348
-42.0171
-39.8395
-40.3344
-41.8675
-41.3897
-41.8324
-40.3283
-39.7908
-54.8891
-45.5626
-42.8776
-57.1622
-34.0594
-33.7003
-35.6229
-37.344
-33.9893
-37.321
-35.6159
-33.6703
-54.8794
-57.1483
-42.8701
-45.5399
-36.6295
-35.0041
-31.3906
-34.9576
-36.5206
-34.7939
-31.1468
-34.9139
-34.0468
-28.5811
-30.3559
-34.9151
-34.2704
-35.1021
-30.5827
-28.8291
-36.526
-138.36
-131.689
-38.7858
-39.8667
-43.3468
-4.76408
-35.8479
-33.8236
-35.9358
-34.1054
-35.4324
-138.442
-35.2663
-131.847
-39.7286
-38.6365
-43.1891
-35.8419
-4.68082
-33.9819
-33.9511
-35.7541
-35.2978
-48.7419
-44.5735
-44.9685
-46.7426
-59.2174
-46.3466
-48.9802
-51.428
-71.4989
-64.5517
-65.2336
-89.3495
-51.5385
-51.0541
-52.6748
-54.927
-48.7252
-46.7311
-44.5592
-44.9565
-59.1403
-51.3929
-46.3104
-48.9401
-71.5431
-89.1516
-64.5821
-65.2285
-51.523
-54.896
-51.0399
-52.6403
43.1505
39.9434
4.69019
89.5772
-128.149
-128.496
-107.899
-25.0658
-51.2818
-42.5718
-49.1511
-46.9058
-35.8811
-35.9938
-39.0601
-35.6479
-37.661
-37.6617
-41.1275
-35.7858
-42.0622
-40.2514
-43.1689
-40.2203
-18.6279
-18.5653
-20.7516
-24.9059
-29.9577
-25.1311
-45.364
-17.8426
-32.985
-32.9503
-34.3101
-28.5823
-42.768
-46.3549
-45.3597
-42.5306
43.2242
39.9253
4.73972
89.6539
-51.3005
-42.5836
-49.1685
-46.9137
-35.7773
-35.8595
-38.883
-35.5034
-42.1577
-40.0141
-43.202
-40.254
-30.025
-25.1769
-45.3614
-18.0821
-42.7075
-46.3133
-45.2931
-42.4952
-40.8982
-41.3742
-40.9764
-42.0495
-43.9419
-45.9519
-45.0349
-44.7272
-47.9763
-47.9755
-49.163
-46.8675
-43.642
-44.4911
-43.9775
-43.5509
-51.1259
-51.1206
-49.4026
-56.1322
-58.3913
-57.0538
-56.2862
-63.483
-21.8403
-21.8402
-10.2543
-33.7067
-64.7165
-64.7128
-67.9898
-60.8546
-40.8844
-41.3588
-40.96
-42.0374
-43.933
-45.9435
-45.0259
-44.7163
-43.608
-44.4547
-43.9465
-43.4987
-58.3433
-57.0372
-56.2394
-63.4249
-61.3542
-56.7808
-58.15
-55.8945
-61.3647
-56.7705
-58.1538
-55.8818
-53.1303
-49.3206
-49.3224
-46.0691
5.38932
11.0874
11.0325
19.0177
202.849
192.7
205.444
202.871
-42.8223
-43.671
-44.0249
-44.904
-42.7995
-43.6443
-44.0011
-44.8703
-44.0653
-43.9721
-44.3182
-44.0632
-92.6285
-96.1156
-86.916
-92.6301
-49.9898
-48.747
-50.7107
-47.8077
-49.8976
-48.6987
-50.779
-47.757
-39.9302
-40.1083
-40.0837
-40.3294
-36.7376
-38.3706
-38.3675
-40.3191
-30.4231
-29.9892
-29.7826
-30.2939
22.5776
36.2036
-12.9011
67.6546
-139.469
-128.222
-107.363
17.3416
-83.8232
-64.1982
-90.894
-69.9989
-37.8633
-36.798
-40.5067
-36.6137
-38.9823
-38.0987
-42.8415
-36.768
-46.5955
-45.8516
-47.4527
-43.1821
12.8426
22.1507
-11.4145
68.4992
-20.0975
-17.8273
-21.9947
-8.5607
-42.8099
-36.5614
-53.3109
-32.2171
-35.8431
-35.869
-39.8725
-35.3533
-33.4125
-33.0704
-33.8468
-32.1589
-36.6761
-38.9121
-38.4599
-35.9475
-139.391
-128.412
-107.346
17.8119
23.577
36.2628
-12.8923
66.7124
-83.8801
-64.2171
-91.195
-70.0089
-38.8353
-38.0082
-42.7317
-36.6941
-37.7233
-36.6642
-40.3474
-36.5082
-46.5271
-45.9623
-47.3635
-43.3076
-20.1418
-17.8379
-22.0078
-8.59688
12.8654
22.1539
-11.1976
68.4303
-42.4492
-36.6032
-53.2451
-31.565
-33.2843
-32.9828
-33.7922
-31.9107
-35.6865
-35.7293
-39.6796
-35.1872
-36.5937
-38.8511
-38.3764
-35.8929
-52.707
-31.7491
-51.6463
-42.4797
-42.394
-41.1977
-41.6685
-42.5926
-42.8008
-42.9667
-43.6483
-42.2158
-47.5804
-47.772
-49.4555
-46.2872
-43.6391
-41.1059
-42.3893
-41.9991
-43.553
-41.9233
-42.1106
-43.954
-44.8707
-42.3091
-43.0741
-40.0736
-51.0601
-51.2432
-49.2014
-57.3963
-66.6086
-42.7582
-61.9227
-23.0489
-56.2026
-49.6873
-51.8673
-52.2682
-62.79
-60.7624
-60.1237
-71.1447
-37.0511
-23.6343
-14.0286
-36.2715
-50.0044
-49.4896
-49.5455
-51.1818
-50.2129
-46.2385
-47.8913
-47.3412
-54.2896
-57.0934
-54.3132
-59.3266
-62.4552
-63.891
-66.0719
-60.0585
-52.6897
-31.7444
-51.5655
-42.4686
-47.5744
-47.7689
-49.4524
-46.2818
-42.3801
-41.1842
-41.6537
-42.5816
-42.793
-42.9597
-43.6465
-42.2069
-43.6422
-40.9206
-42.2756
-41.9058
-51.0339
-51.2268
-49.183
-57.2986
-43.5287
-41.9048
-42.0881
-43.9349
-44.8367
-42.275
-43.0455
-40.024
-66.6221
-42.7104
-61.9193
-22.9029
-37.107
-23.5834
-13.996
-36.1638
-56.1783
-49.6738
-51.8532
-52.2446
-62.7603
-60.7284
-60.0853
-71.1124
-49.9837
-49.4584
-49.5242
-51.1692
-62.4208
-63.8771
-66.0419
-60.0399
-50.2047
-46.2019
-47.8705
-47.3895
-54.2457
-57.0479
-54.2769
-59.2755
-90.3846
-87.8177
-102.186
-101.454
165.3
194.226
175.198
175.725
-77.6375
-63.0388
-69.1598
-69.2031
124.412
151.655
146.04
146.115
-52.3358
-54.9512
-58.6916
-51.2887
-47.6433
-48.5908
-51.7756
-44.4694
-44.4102
-47.9756
-46.38
-45.5927
-34.6004
-32.4857
-33.7915
-33.376
-39.3913
-40.0403
-39.7029
-39.6708
-33.9341
-31.552
-33.4398
-33.3505
-45.3948
-47.7814
-44.8582
-48.9878
-40.3218
-40.1728
-40.2683
-40.2881
-12.7933
-5.26836
-9.73805
-9.71456
110.694
187.293
161.013
161.135
-60.7354
-59.324
-59.4458
-64.6654
-3.80561
7.91123
-1.92465
9.62634
-33.489
-34.4132
-33.7104
-33.6957
-27.7982
-29.052
-28.9724
-29.1625
-46.7645
-48.3623
-47.2678
-47.521
-39.749
-38.801
-41.2396
-37.4803
-90.5517
-87.7788
-102.228
-101.493
165.304
194.282
175.742
175.191
-52.3626
-54.954
-58.7315
-51.3198
-47.6428
-48.5909
-51.7758
-44.4644
-44.2394
-47.8524
-45.4461
-46.2249
-34.3921
-32.23
-33.5535
-33.1252
-45.3313
-47.6851
-44.87
-48.8982
-40.0782
-40.0874
-40.2302
-40.1812
-60.6824
-59.3401
-64.5889
-59.4953
-3.63257
7.71172
9.00154
-2.13029
-46.7274
-48.3422
-47.4855
-47.2159
-39.7635
-38.7951
-37.4682
-41.2284
-40.77
-41.4769
-41.1066
-41.3842
-43.0062
-43.6933
-43.2502
-43.6145
-46.3248
-52.453
-49.0141
-48.9697
-44.2095
-43.7486
-43.0794
-45.2051
-52.0807
-39.1608
-44.4507
-44.4531
-45.1899
-44.2412
-44.6008
-44.5993
-44.1172
-44.2384
-43.14
-45.1934
-44.9545
-48.0728
-47.2498
-45.272
-46.9819
-45.3309
-46.0455
-46.0485
-45.443
-41.6998
-43.2251
-43.2126
-51.9947
-47.9361
-52.4782
-47.6456
-80.1577
-90.1662
-88.508
-81.0523
12.1705
23.7455
18.6198
18.6521
-68.6898
-96.7152
-87.0236
-87.0296
-73.0347
-79.6857
-76.228
-76.2253
-53.3263
-45.5758
-49.284
-49.2809
-40.755
-41.4591
-41.0925
-41.3671
-42.9966
-43.6873
-43.2428
-43.6059
-46.3104
-52.42
-48.9363
-48.9927
-44.1908
-43.7292
-43.0652
-45.1866
-44.0917
-44.2174
-45.1711
-43.1182
-44.8895
-48.0219
-47.1405
-45.3465
-51.9105
-47.8348
-47.4676
-52.4659
-80.1203
-90.1662
-81.0373
-88.4883
-100.417
-97.7994
-99.5684
-81.8477
-54.1231
-48.8411
-50.4799
-50.6753
-54.5203
-50.9073
-53.6379
-50.4278
-61.6596
-69.0252
-89.0879
-82.0513
-100.365
-97.8784
-99.6631
-81.9267
-62.0705
-68.9554
-89.3372
-82.0054
-54.4939
-50.8954
-53.5997
-50.3816
-53.9853
-48.852
-50.3458
-50.6555
-78.0313
-68.9533
-68.9222
-62.0512
-77.9877
-68.9447
-68.9248
-62.0491
-43.2124
-53.4798
-36.2426
-42.2941
-43.2218
-53.4778
-36.2592
-42.3032
-16.0304
-17.04
-11.3696
-10.231
11.7236
9.40616
18.6353
16.8283
11.6603
9.41072
18.7609
16.909
-15.995
-16.943
-11.3395
-10.2124
121.99
135.44
143.426
148.396
107.343
111.029
152.882
161.65
110.89
107.342
161.738
152.961
135.472
122.094
148.478
143.521
-40.9133
-41.5122
-41.121
-41.7331
-42.0217
-42.3337
-41.8218
-42.078
-48.8614
-52.6341
-47.837
-50.0129
-51.3553
-54.251
-48.613
-50.5897
-40.899
-41.4982
-41.1071
-41.7189
-51.3284
-54.2273
-48.5934
-50.5823
-48.8437
-52.6207
-47.8179
-50.0009
-42.0014
-42.3115
-41.8027
-42.0569
-43.5924
-44.5192
-43.5548
-44.2283
-44.513
-43.5846
-44.2235
-43.5481
-46.4302
-45.09
-45.7031
-44.6606
-45.1048
-46.4439
-44.6712
-45.7121
-88.0167
-62.0586
-88.7211
-81.7006
-68.9113
-69.9327
-75.9443
-75.2104
-69.9124
-68.8545
-75.1999
-75.9346
-62.0767
-87.8076
-81.6851
-88.6941
-44.2767
-50.0982
-44.8635
-45.5539
-44.3756
-47.2234
-47.0646
-50.3626
-42.8981
-42.461
-44.708
-45.174
-48.1785
-46.8734
-47.7048
-47.04
-43.9063
-50.1211
-44.8806
-45.449
-48.2038
-46.7347
-47.7115
-47.151
-42.7468
-42.3313
-44.5593
-45.025
-44.2223
-47.1174
-46.9198
-50.242
-42.6153
-45.2198
-41.4048
-43.0385
-42.5557
-45.1805
-41.3151
-42.9966
-40.3808
-41.9011
-40.1699
-40.9675
-40.1508
-41.5246
-40.0425
-40.962
-50.7199
-53.5222
-46.6985
-49.8765
-33.9743
-34.8359
-34.09
-35.1962
-33.9255
-34.7925
-34.0614
-35.1696
-50.7018
-53.5072
-46.6722
-49.8732
-36.1735
-36.0363
-34.6458
-35.0256
-35.9075
-36.046
-34.86
-34.4453
-32.24
-33.3917
-31.0996
-32.3713
-33.6587
-32.5368
-32.6464
-31.3836
-44.3148
38.4943
-111.699
15.689
-97.1327
-93.9818
-41.7748
-36.9924
-43.9784
-37.3148
-43.7753
-43.3209
-15.5013
44.0973
-28.9642
5.17651
-37.5376
-22.4642
-37.6175
-35.0637
-33.7622
-33.8584
-36.8756
-34.378
-111.695
5.98237
-43.2212
37.9125
-97.4097
-94.0569
-43.6198
-37.1953
-41.618
-36.8722
-43.6403
-43.3062
-29.0153
5.30345
-15.4221
43.8413
-37.6592
-22.9874
-33.6765
-33.6386
-37.4354
-34.8733
-36.7498
-34.3034
-47.0842
-50.9443
-42.8999
-44.2785
-44.9197
-42.7932
-48.7284
-45.738
-50.0053
-49.6519
-43.4391
-46.4785
-44.5133
-53.142
-48.8354
-58.0531
-63.0944
-63.7923
-61.4659
-60.2655
-61.7018
-77.5257
-48.0856
-76.112
-49.2639
-52.119
-51.9622
-50.5355
-52.2777
-56.81
-58.4752
-57.2954
-47.0676
-50.9326
-48.7206
-45.7292
-42.8837
-44.2674
-44.9056
-42.7806
-49.8346
-49.5992
-48.8085
-58.0024
-43.4097
-46.4524
-44.4758
-53.1798
-63.0933
-63.802
-47.6972
-76.1745
-61.4539
-60.11
-61.598
-77.5524
-49.266
-52.1059
-58.3526
-57.2724
-51.9401
-50.5305
-52.2474
-56.7577
-3.56035
82.0229
-4.22132
79.6339
-52.9133
-46.7268
131.196
125.644
-107.533
-16.911
-107.939
-16.7176
-90.8152
-89.8075
56.6375
56.9514
-63.8839
-55.7228
-42.1741
-38.97
-57.3001
-48.2974
-51.0523
-43.0334
-39.0574
-35.4565
-39.1713
-35.5876
-42.8145
-42.4904
-35.0801
-35.2332
-41.7852
-36.0901
-41.7518
-35.9734
-39.6816
-39.6642
-34.621
-34.566
-49.7568
-43.1188
-41.8391
-40.5604
-43.0851
-47.4181
-40.1892
-40.8136
-21.0477
-24.1287
-21.009
-23.9394
-17.0475
-17.0203
30.9272
29.4825
-42.8085
-23.8228
-51.8019
-12.6693
-58.2482
-59.6882
-12.5417
-2.38439
-34.1686
-29.546
-34.1449
-29.3557
-33.6898
-33.6735
-27.5898
-27.743
-41.7088
-38.8865
-47.9661
-47.2152
-44.1978
-46.7848
-42.9461
-38.836
-3.54437
81.9114
-4.09455
79.9411
-52.873
-47.2196
125.711
131.149
-63.9198
-55.7341
-42.397
-38.9671
-57.3385
-48.4989
-51.0574
-43.0324
-38.9016
-35.3198
-38.9957
-35.435
-42.3082
-42.6329
-34.9078
-35.0548
-49.7306
-43.1825
-41.8135
-40.4491
-43.0536
-47.444
-40.0874
-40.8258
-42.8176
-23.8151
-51.7411
-12.9148
-59.7666
-58.2521
-1.49717
-12.3196
-41.6341
-38.8451
-47.9219
-47.1737
-46.7483
-44.1241
-38.8135
-42.9257
-40.7677
-41.9428
-41.8065
-42.6421
-40.5097
-40.8719
-42.4079
-42.82
-43.8662
-43.0377
-47.1822
-47.4169
-44.8742
-46.2271
-43.4062
-45.6225
-49.34
-46.7774
-49.3391
-46.7751
-50.5935
-50.5932
-45.9797
-45.9784
-42.6475
-41.6036
-45.5402
-45.348
-43.258
-44.7675
-44.4423
-44.5629
-49.4016
-55.7919
-49.3924
-55.739
-48.0118
-48.0156
-49.3856
-49.3767
-58.526
-66.7885
-56.6227
-61.6975
-56.3932
-55.7777
-73.6319
-67.3683
-11.0416
-34.5392
-11.0014
-34.5372
1.23088
1.24462
-46.9933
-46.9861
-67.5348
-60.4015
-67.5257
-60.3845
-69.9929
-69.988
-57.0493
-57.0452
-40.7514
-41.9314
-41.7878
-42.6271
-40.494
-40.8554
-42.3974
-42.8079
-43.8585
-43.0307
-47.1729
-47.3952
-46.2112
-44.8621
-43.3756
-45.6009
-42.6187
-41.5639
-45.5108
-45.3101
-44.7396
-43.2286
-44.5011
-44.5015
-58.4817
-66.7458
-56.5994
-61.6768
-55.709
-56.3682
-67.1336
-73.5718
-70.0416
-71.2312
-60.0819
-54.1134
-56.9837
-62.5884
-53.8582
-55.1785
-70.0436
-71.2217
-60.1164
-54.0923
-62.5975
-56.9703
-55.1639
-53.8319
-57.2269
-57.2369
-52.6343
-45.2857
-52.6401
-45.2836
-42.9662
-42.9686
-0.0198758
-0.0180603
3.861
17.3234
17.0565
3.81996
23.7716
23.7769
192.106
203.08
171.116
171.098
201.278
201.285
203.103
192.093