# vtk DataFile Version 2.0
tet_velo
ASCII
DATASET UNSTRUCTURED_GRID
POINTS 29498 float
-0.605 0.115 -1.88518
-0.715 0.205 1.75034
-0.735 0.565 -1.77467
-0.697605 0.845 1.805
0.585 0.115 -1.88027
0.745 0.215 1.73804
0.829126 0.635 -1.605
0.725 0.845 1.79409
-0.697976 0.0886909 -0.67334
-0.777154 0.0761797 0.5385
-0.827924 0.763723 -0.581447
-0.745928 0.787525 0.611777
0.691205 0.0954613 -0.674167
0.787499 0.0858346 0.531937
0.826004 0.736586 -0.47197
0.756222 0.771513 0.66106
-1.34075 -0.240857 -2.92377
-1.36286 -0.202624 -1.9787
-1.4334 -0.224493 -0.760954
-1.49499 -0.241939 0.471266
-1.48119 -0.156943 1.69042
-1.46775 -0.0858514 2.64214
-1.46751 -0.0289186 3.58355
-1.33385 0.0470282 -2.85155
-1.3668 0.105256 -1.91525
-1.45133 0.105987 -0.702163
-1.50398 0.0885614 0.521748
-1.46796 0.178242 1.73637
-1.45818 0.248316 2.6862
-1.46293 0.303637 3.6277
-1.3784 0.579898 -2.71485
-1.46718 0.631929 -1.80117
-1.54472 0.759561 -0.605095
-1.50054 0.780981 0.601068
-1.45464 0.837637 1.80172
-1.45309 0.903067 2.75568
-1.46303 0.959653 3.70468
-1.42653 1.48439 -2.50451
-1.48264 1.55411 -1.57795
-1.53418 1.67352 -0.413618
-1.53099 1.76305 0.75433
-1.50503 1.82906 1.92899
-1.49319 1.88125 2.8771
-1.49079 1.93288 3.82902
-0.625598 -0.231871 -2.90055
-0.639432 -0.194276 -1.96323
-0.692894 -0.230378 -0.746257
-0.751887 -0.249488 0.483059
-0.738764 -0.142409 1.70137
-0.726438 -0.0737854 2.65047
-0.726605 -0.0212169 3.59074
-0.602209 0.0528287 -2.81665
-0.717869 0.261583 2.69295
-0.722789 0.311786 3.63378
-0.62262 0.567155 -2.66546
-0.713915 0.910358 2.7582
-0.723604 0.965681 3.70888
-0.669566 1.4734 -2.46256
-0.720487 1.54102 -1.53757
-0.775762 1.66857 -0.381905
-0.781311 1.76364 0.772824
-0.761007 1.83124 1.93744
-0.751116 1.88385 2.88321
-0.749109 1.93551 3.83541
0.718616 -0.226149 -2.8638
0.64831 -0.193328 -1.94963
0.712507 -0.226236 -0.740895
0.769937 -0.242217 0.481525
0.74618 -0.134433 1.69465
0.748894 -0.0682904 2.64734
0.749994 -0.0178263 3.59304
0.744247 0.0646484 -2.76726
0.747724 0.266965 2.68744
0.749924 0.314896 3.6351
0.841279 0.598171 -2.56426
0.739831 0.911895 2.75538
0.745194 0.967004 3.71248
0.835094 1.48455 -2.37884
0.806404 1.54807 -1.45138
0.75932 1.66349 -0.311777
0.728149 1.75575 0.81734
0.723964 1.82652 1.96165
0.727192 1.8813 2.90014
0.729305 1.93411 3.85071
1.41097 -0.230951 -2.84166
1.35259 -0.200474 -1.92287
1.42529 -0.222659 -0.72648
1.50548 -0.233893 0.483016
1.49741 -0.145785 1.68699
1.49061 -0.0771395 2.64215
1.48908 -0.0230913 3.59179
1.43125 0.0650679 -2.74713
1.34498 0.109921 -1.83756
1.4261 0.102742 -0.652366
1.5119 0.0941109 0.536984
1.49653 0.189348 1.72729
1.48803 0.256518 2.68279
1.48793 0.308886 3.63446
1.53744 0.619005 -2.54371
1.51323 0.67026 -1.60546
1.52514 0.737954 -0.465501
1.50261 0.766079 0.664342
1.47916 0.83757 1.80585
1.47809 0.90541 2.75875
1.48195 0.961748 3.71608
1.57283 1.50197 -2.34803
1.55228 1.5639 -1.41998
1.51534 1.66473 -0.283892
1.48216 1.74953 0.839767
1.4693 1.82051 1.97893
1.46818 1.87637 2.91346
1.46888 1.93007 3.86162
-0.624084 0.34 -1.78401
-0.01 0.113054 -1.88467
-0.658705 0.0946286 -1.27926
-0.761576 0.525 1.83294
0.015 0.205305 1.74888
-0.822717 0.0639501 1.14442
0.047063 0.69573 -1.78557
-0.857613 0.740512 -1.17806
0.0136975 0.888158 1.8427
-0.763403 0.857899 1.20839
0.705158 0.375 -1.74073
0.64156 0.101774 -1.27722
0.788322 0.53 1.81939
0.836935 0.0797313 1.13499
0.863984 0.722213 -1.03849
0.792425 0.860071 1.22758
-0.736531 0.0834691 -0.06742
-0.866291 0.426207 -0.627393
-0.00338519 0.101189 -0.673753
-0.786045 0.431852 0.575138
0.00517255 0.106254 0.535218
-0.786025 0.774723 0.015165
-0.000960261 0.814522 -0.526708
0.00514691 1.16113 0.636418
0.739349 0.0906511 -0.071115
0.849003 0.416024 -0.573068
0.816272 0.428674 0.596498
0.789778 0.752715 0.094545
-0.857196 0.383103 -1.22866
-0.820999 0.429029 -0.0261275
-0.895801 0.478426 1.1764
-0.00669261 0.0943477 -1.27824
0.000893681 0.104883 -0.0692675
0.0100863 0.0804668 1.1397
0.0185315 0.3575 -2.02989
0.0143488 0.5275 2.09223
0.0230514 0.797251 -1.10827
0.00209333 1.10657 0.054855
0.00942221 1.07149 1.21798
0.883916 0.395512 -1.15785
0.813837 0.422349 0.011715
0.874264 0.479337 1.18128
-0.985898 0.110128 -1.90022
-0.622216 -0.039638 -1.9242
-0.603604 0.0839143 -2.35092
-1.09148 0.191621 1.74335
-0.726882 0.0312957 1.72586
-0.716434 0.233291 2.22164
-1.10109 0.598465 -1.78792
-0.67881 0.566078 -2.22007
-0.727743 1.05301 -1.65612
-1.07612 0.841319 1.80336
-0.70576 0.877679 2.2816
-0.729306 1.33812 1.87122
0.616655 -0.039164 -1.91495
0.664623 0.0898242 -2.32377
0.964989 0.112461 -1.85892
0.74559 0.0402834 1.71635
0.746362 0.240982 2.21274
1.12076 0.202174 1.73267
0.835202 0.616585 -2.08463
0.817765 1.09154 -1.52819
1.17118 0.65263 -1.60523
0.732415 0.878448 2.27474
0.724482 1.33576 1.87787
1.10208 0.841285 1.79997
-1.07465 0.097339 -0.687751
-0.695435 -0.0708435 -0.709798
-1.14056 0.0823706 0.530124
-0.76452 -0.086654 0.51078
-1.18632 0.761642 -0.593271
-0.801843 1.21615 -0.481676
-1.12324 0.784253 0.606423
-0.76362 1.27558 0.692301
0.701856 -0.0653876 -0.707531
1.05865 0.0991018 -0.663267
0.778718 -0.0781913 0.506731
1.1497 0.0899727 0.53446
0.792662 1.20004 -0.391873
1.17557 0.73727 -0.468736
0.742185 1.26363 0.7392
1.12941 0.768796 0.662701
-1.35181 -0.221741 -2.45123
-1.3373 -0.0969146 -2.88766
-0.983175 -0.236364 -2.91216
-1.39813 -0.213559 -1.36983
-1.36483 -0.0486841 -1.94697
-1.00115 -0.19845 -1.97096
-1.46419 -0.233216 -0.144844
-1.44236 -0.0592529 -0.731558
-1.06315 -0.227435 -0.753605
-1.48809 -0.199441 1.08084
-1.49948 -0.0766886 0.496507
-1.12344 -0.245713 0.477162
-1.47447 -0.121397 2.16628
-1.47458 0.0106496 1.71339
-1.10997 -0.149676 1.69589
-1.46763 -0.057385 3.11285
-1.46296 0.0812326 2.66417
-1.09709 -0.0798184 2.6463
-1.46522 0.137359 3.60563
-1.09706 -0.0250677 3.58715
-1.35032 0.0761421 -2.3834
-1.35613 0.313463 -2.7832
-0.968031 0.0499284 -2.8341
-1.40906 0.105622 -1.30871
-1.41699 0.368593 -1.85821
-1.47765 0.0972742 -0.0902072
-1.49802 0.432774 -0.653629
-1.48597 0.133402 1.12906
-1.50226 0.434771 0.561408
-1.46307 0.213279 2.21128
-1.4613 0.50794 1.76904
-1.46055 0.275977 3.15695
-1.45564 0.575692 2.72094
-1.08802 0.25495 2.68957
-1.46298 0.631645 3.66619
-1.09286 0.307711 3.63074
-1.42279 0.605914 -2.25801
-1.40247 1.03214 -2.60968
-1.00051 0.573527 -2.69015
-1.50595 0.695745 -1.20313
-1.47491 1.09302 -1.68956
-1.52263 0.770271 -0.00201331
-1.53945 1.21654 -0.509356
-1.47759 0.809309 1.20139
-1.51577 1.27202 0.677699
-1.45387 0.870352 2.2787
-1.47984 1.33335 1.86535
-1.45806 0.93136 3.23018
-1.47314 1.39216 2.81639
-1.0835 0.906713 2.75694
-1.47691 1.44627 3.76685
-1.09332 0.962667 3.70678
-1.45459 1.51925 -2.04123
-1.04805 1.4789 -2.48353
-1.50841 1.61381 -0.995782
-1.10157 1.54757 -1.55776
-1.53258 1.71828 0.170356
-1.15497 1.67104 -0.397761
-1.51801 1.79606 1.34166
-1.15615 1.76335 0.763577
-1.49911 1.85515 2.40304
-1.13302 1.83015 1.93321
-1.49199 1.90707 3.35306
-1.12216 1.88255 2.88016
-1.11995 1.9342 3.83222
-0.632515 -0.213074 -2.43189
-0.613903 -0.0895212 -2.8586
0.0465091 -0.22901 -2.88217
-0.666163 -0.212327 -1.35474
0.00443926 -0.193802 -1.95643
-0.72239 -0.239933 -0.131599
0.0098069 -0.228307 -0.743576
-0.745325 -0.195948 1.09222
0.00902499 -0.245852 0.482292
-0.732601 -0.108097 2.17592
0.00370812 -0.138421 1.69801
-0.726521 -0.0475011 3.1206
-0.722153 0.0938986 2.67171
0.0112282 -0.0710379 2.64891
-0.724697 0.145284 3.61226
0.0116946 -0.0195216 3.59189
-0.612414 0.309992 -2.74106
0.071019 0.0587385 -2.79196
-0.720329 0.286684 3.16336
-0.715892 0.585971 2.72557
0.0149275 0.264274 2.69019
-0.723197 0.638733 3.67133
0.0135672 0.313341 3.63444
-0.646093 1.02028 -2.56401
0.109329 0.582663 -2.61486
-0.71876 0.938019 3.23354
-0.732515 1.3971 2.82071
0.0129579 0.911127 2.75679
-0.736356 1.4506 3.77215
0.0107952 0.966342 3.71068
-0.695027 1.50721 -2.00006
0.082764 1.47898 -2.4207
-0.748124 1.6048 -0.959737
0.0429588 1.54455 -1.49447
-0.778537 1.71611 0.19546
-0.00822107 1.66603 -0.346841
-0.771159 1.79744 1.35513
-0.0265813 1.75969 0.795082
-0.756061 1.85754 2.41033
-0.0185213 1.82888 1.94954
-0.750112 1.90968 3.35931
-0.0119617 1.88257 2.89168
-0.00990204 1.93481 3.84306
0.683463 -0.209739 -2.40672
0.731431 -0.0807503 -2.81553
1.06479 -0.22855 -2.85273
0.680409 -0.209782 -1.34526
1.00045 -0.196901 -1.93625
0.741222 -0.234227 -0.129685
1.0689 -0.224448 -0.733687
0.758058 -0.188325 1.08809
1.13771 -0.238055 0.482271
0.747537 -0.101362 2.171
1.12179 -0.140109 1.69082
0.749444 -0.0430583 3.12019
0.748309 0.0993371 2.66739
1.11975 -0.0727149 2.64475
0.749959 0.148535 3.61407
1.11954 -0.0204588 3.59241
0.792763 0.33141 -2.66576
1.08775 0.0648582 -2.7572
0.748824 0.29093 3.16127
0.743777 0.58943 2.72141
1.11787 0.261741 2.68512
0.747559 0.64095 3.67379
1.11892 0.311891 3.63478
0.838187 1.04136 -2.47155
1.18936 0.608588 -2.55398
0.742513 0.93945 3.23393
0.733512 1.3966 2.82776
1.10896 0.908653 2.75706
0.73725 1.45055 3.7816
1.11357 0.964376 3.71428
0.820749 1.51631 -1.91511
1.20396 1.49326 -2.36343
0.782862 1.60578 -0.881578
1.17934 1.55599 -1.43568
0.743734 1.70962 0.252782
1.13733 1.66411 -0.297834
0.726057 1.79113 1.3895
1.10516 1.75264 0.828554
0.725578 1.85391 2.43089
1.09663 1.82351 1.97029
0.728249 1.9077 3.37543
1.09769 1.87883 2.9068
1.09909 1.93209 3.85617
1.38178 -0.215712 -2.38226
1.42111 -0.0829415 -2.79439
1.38894 -0.211567 -1.32468
1.34878 -0.0452764 -1.88022
1.46538 -0.228276 -0.121732
1.42569 -0.0599585 -0.689423
1.50145 -0.189839 1.085
1.50869 -0.069891 0.51
1.49401 -0.111462 2.16457
1.49697 0.0217815 1.70714
1.48984 -0.0501154 3.11697
1.48932 0.0896894 2.66247
1.4885 0.142897 3.61313
1.38811 0.0874945 -2.29235
1.48435 0.342037 -2.64542
1.38554 0.106332 -1.24496
1.4291 0.390091 -1.72151
1.469 0.0984266 -0.0576911
1.47562 0.420348 -0.558934
1.50422 0.14173 1.13214
1.50726 0.430095 0.600663
1.49228 0.222933 2.20504
1.48785 0.513459 1.76657
1.48798 0.282702 3.15863
1.48306 0.580964 2.72077
1.48494 0.635317 3.67527
1.52534 0.644633 -2.07459
1.55514 1.06049 -2.44587
[...]
POINT_DATA 29498
VECTORS point_vectors float
0.0440152 -2.60762 5.14006
-0.0267592 0.18986 0.466589
-1.64332 1.11705 2.47513
0.00797824 -0.0434264 0.182452
0.177316 -3.09454 5.60818
-0.0448836 0.211455 0.484186
0.728577 0.324461 1.30442
-0.0372179 -0.0245565 0.143993
-0.00358594 0.00382799 0.422516
0.255617 -0.212397 2.08439
-0.0042032 -0.0059771 0.0243489
0.0424146 0.0884453 0.128646
0.00948822 -0.00155352 0.204303
-0.091581 -0.0910689 1.7365
0.0556229 -0.120727 0.338558
-0.0242551 0.0511234 0.072168
-0.609981 -0.31093 19.7446
-1.29193 -0.848363 20.2821
-0.57512 -0.46452 21.2429
-0.108818 -0.185444 21.3338
0.521671 0.137211 21.4557
0.842953 0.276135 21.1855
0.879211 0.260506 21.1502
-0.786137 -0.240078 19.613
-1.94616 -0.761274 20.2244
-0.767332 -0.470578 21.3069
-0.224778 -0.280437 21.3842
0.688775 -0.0429876 21.5992
1.07388 0.0573949 21.1434
1.11624 -0.127435 21.1319
-0.954658 0.105467 19.5612
-1.97121 0.214825 20.3118
-1.01655 -0.127193 21.1982
-0.47883 -0.250661 21.5072
0.516935 -0.454665 21.5703
0.871318 -0.553014 21.0787
0.887454 -0.552365 20.7069
-0.680667 0.520916 19.9257
-0.893525 0.647903 20.4765
-0.742389 0.373507 20.98
-0.361439 0.0697173 21.3101
0.0683411 -0.262105 21.2399
0.248481 -0.400551 21.0443
0.272701 -0.411947 20.8156
-0.543264 -0.692794 19.2072
-1.4614 -3.42724 20.3017
-0.276596 -0.648781 21.7165
-0.0214006 -0.240702 21.3002
0.39263 1.29147 18.5051
0.700507 1.59736 17.8022
1.0663 1.52653 17.8845
-0.794344 -0.678652 18.6247
0.898208 1.58274 7.84498
2.01094 1.15436 11.1591
-1.23285 0.361892 17.9264
0.860632 -0.491754 8.42852
1.10487 -1.02966 13.7061
-0.639041 1.13291 19.4961
-0.899829 1.65792 20.4295
-0.96131 1.2403 20.974
-0.462665 0.427984 21.7368
-8.73493e-05 -0.379127 21.4193
0.138219 -0.606984 21.0974
0.13969 -0.632896 20.5478
0.602275 -0.673795 19.2517
1.43083 -3.41621 20.295
0.268278 -0.615909 21.7062
0.0171802 -0.268492 21.2164
-0.51145 1.00497 18.0101
-0.759338 1.12599 17.2097
-1.07337 1.30538 17.2813
0.94696 -0.624033 18.7419
-0.397309 0.960507 6.36447
-1.5845 0.883981 9.69187
1.606 0.400885 18.2816
-0.840309 -0.0707886 8.29262
-1.034 -0.855016 12.9875
0.739531 1.1322 19.6072
0.950318 1.52908 20.5135
1.00169 1.26437 21.0117
0.387301 0.428143 21.7617
-0.0536849 -0.32812 21.3932
-0.183634 -0.542863 21.1202
-0.163129 -0.595309 20.5894
0.628955 -0.324426 19.7777
1.32044 -0.902938 20.3405
0.532249 -0.4393 21.2564
0.0958704 -0.184437 21.2972
-0.437713 0.0461095 21.3848
-0.730141 0.172624 21.2174
-0.863444 0.177613 21.2876
0.865857 -0.24545 19.682
2.10798 -0.868163 20.3459
0.665679 -0.446948 21.3223
0.204234 -0.275777 21.3507
-0.518947 -0.111985 21.5204
-0.864517 -0.020414 21.2035
-1.03435 -0.0890956 21.4111
1.02048 0.109848 19.7275
1.8453 0.181979 20.6258
0.900898 -0.20162 21.2072
0.4377 -0.253813 21.4848
-0.370361 -0.342388 21.5022
-0.704908 -0.436494 21.1164
-0.814802 -0.467454 20.7622
0.664898 0.475094 20.0687
0.851971 0.586409 20.5687
0.711999 0.353785 21.0252
0.323836 0.076711 21.3254
-0.0778198 -0.225351 21.235
-0.262425 -0.359125 21.0436
-0.32955 -0.379516 20.8678
0 0 0
-0.00207938 -0.0503631 0.427232
-0.0151305 0.00119867 0.165724
-0.00549815 0.00373726 -0.00544465
-0.0325233 0.00776225 0.0250769
0.0133442 -0.0054438 0.725945
0.00192545 0.0897201 0.257219
-0.178563 -0.0128147 0.961556
0 0 0
0 0 0
0 0 0
0.00735809 -0.000169795 0.0620373
0.000819235 0.00289333 0.00360684
-0.0383566 0.01343 1.24792
0.0135692 -0.0643552 0.374678
-0.00383444 0.00198739 0.0154437
-0.00535027 0.00182476 0.138962
0.00282676 -0.00206404 0.0383802
2.4116e-05 1.39469e-05 0.00263046
0 0 0
2.28404e-18 1.4846e-20 -8.67842e-17
0.00689357 0.00537804 0.181743
-0.00275904 0.00338084 0.039012
-0.000255372 -0.000391864 0.0292038
0.00202229 -0.000310484 0.214434
-0.000394875 -0.000513068 0.006299
0 0 0
-0.0634782 0.0653556 0.406109
-0.00338824 0.000793041 0.0551653
0.00138256 0.00125532 0.0260306
0.000283558 0.00159755 0.0538672
-1.93003e-07 2.62935e-07 -2.60017e-05
1.14967e-08 -7.8902e-11 -2.68688e-06
0 0 0
-0.0222748 0.492085 0.460544
-0.0477432 -0.0169937 -0.0166221
2.16705e-06 8.06553e-06 0.000113196
-0.000520661 0.0944633 0.270476
-0.000384517 -0.00075736 0.00626866
0.00301121 0.00213575 0.0850469
-0.000783354 0.00176763 0.0192768
-3.88382e-05 0.000100988 0.00216794
-3.79893 -2.58263 19.7345
-2.10148 -5.69635 20.5395
-2.14095 -2.23257 17.2333
1.30941 0.252218 17.8276
0.00134942 1.40861 9.44361
0.141109 1.18793 4.67432
-4.36416 0.768149 19.9857
-3.65366 1.56623 15.9027
-2.13144 3.26238 20.3583
1.00972 -0.583667 18.3386
0.303706 -0.166113 4.55294
0.0927147 -0.698322 20.8433
1.96572 -5.5928 20.5033
2.30928 -2.1417 17.3985
4.05549 -3.0619 19.7086
-0.373386 1.11162 8.78905
0.172298 0.59554 3.81417
-1.00357 0.0331901 18.2776
4.23407 1.74607 17.0863
2.11932 2.76664 20.7381
3.71004 0.701048 20.8613
-0.314517 0.390017 4.45346
-0.20029 -0.55354 20.6043
-0.759224 -0.328868 18.5222
-0.56678 -0.686017 20.8432
-0.261198 -0.300993 16.9211
-0.228204 -0.346238 20.3254
0.110365 -0.223717 15.5534
-1.37401 -0.453462 21.4577
-2.051 1.32239 20.9179
-0.618478 -0.680633 19.1854
-1.16034 0.588413 21.8271
0.429248 -0.233563 16.8348
0.336419 -0.393064 20.0603
-0.0440752 -0.220968 15.5184
0.179407 -0.320804 20.2874
2.24683 1.34977 20.8566
1.19519 -0.685893 21.1237
0.908318 0.587713 20.905
0.590651 -0.580554 19.0337
-0.963759 -0.576413 19.8497
-0.691082 -0.286526 19.6841
-0.638841 -0.49237 19.5002
-1.03157 -0.757056 21.0132
-1.62871 -0.847938 20.2329
-1.72272 -1.85788 20.1861
-0.293354 -0.291691 21.2792
-0.674357 -0.491655 21.2708
-0.472197 -0.649645 21.4699
0.146199 -0.0550319 21.5176
-0.165995 -0.240741 21.3458
-0.0782712 -0.284411 21.4516
0.73513 0.2239 21.2862
0.592084 0.044999 21.486
0.81203 0.537274 21.4549
0.959575 0.2659 20.9346
1.00037 0.193581 21.0966
1.20922 0.818193 20.4251
1.04065 0.035311 21.046
1.34976 0.903127 20.2326
-1.39283 -0.478868 19.6658
-0.903596 -0.10934 19.5532
-0.877554 -0.425354 19.1786
-1.42713 -0.694937 21.1636
-2.16547 -0.293871 20.2378
-0.412797 -0.35995 21.3195
-0.917236 -0.336352 21.2812
0.118431 -0.186 21.6526
-0.355767 -0.293737 21.469
0.928915 0.0113077 21.3809
0.670185 -0.266853 21.549
1.13329 -0.0265867 20.9594
1.05106 -0.310183 21.1147
1.67263 0.415886 18.2646
1.00712 -0.400186 21.3305
1.72099 0.326015 18.2979
-1.5793 0.209749 19.7016
-0.889199 0.402126 19.6925
-1.25657 0.190161 18.9213
-1.51308 0.0501525 21.059
-1.41689 0.635791 20.42
-0.766456 -0.252022 21.3157
-0.976395 0.170865 21.0636
-0.030846 -0.29769 21.7081
-0.504372 -0.0617172 21.4559
0.733951 -0.502141 21.3047
0.20485 -0.409681 21.392
0.948404 -0.562135 21.1004
0.435422 -0.567625 21.1233
1.19301 -0.91128 19.6298
0.455604 -0.524343 20.7435
1.02797 -0.880968 20.1944
-0.834704 0.65365 20.1542
-0.733416 0.798958 19.7195
-0.845829 0.51577 20.7848
-1.02372 1.10956 20.4506
-0.599296 0.248642 21.1966
-0.936996 0.708627 21.0226
-0.123996 -0.101669 21.3554
-0.440272 0.222162 21.5091
0.172336 -0.361999 21.1249
0.0618072 -0.336791 21.3463
0.252754 -0.428627 20.8595
0.207453 -0.538563 20.9703
0.246324 -0.46385 20.7384
-1.12421 -1.70724 18.9032
-0.667695 -0.721107 18.9164
0.047184 -0.937471 18.9035
-0.588347 -1.5783 22.072
-0.00840822 -4.11323 20.9838
-0.169345 -0.314993 21.3035
0.00202477 -0.650553 21.3841
0.243371 0.181596 20.2616
-0.0363163 -0.26988 20.5942
0.485273 1.44006 18.2445
-0.179668 0.826381 16.1659
0.917254 1.71383 17.6588
0.688269 1.67393 12.7615
-0.495946 0.780738 14.3254
1.52336 1.36106 14.5727
-0.270729 1.64972 13.9666
-1.0645 -0.272375 18.138
0.126596 -0.893975 18.0255
1.57814 1.7371 9.92774
1.0931 0.532335 4.5474
0.0790494 -0.859137 -2.01611
1.93362 0.0514964 9.98147
0.260364 0.409215 2.30709
-0.981587 1.19833 18.707
0.321665 0.750583 16.6054
1.39133 -0.920691 11.8322
0.32368 -1.01862 20.6601
0.138722 -0.323622 0.254997
0.297018 -0.949814 20.4832
0.078137 -1.08454 5.01028
-0.83014 1.61034 19.8736
0.100158 1.53616 19.2992
-0.917952 1.35219 20.7638
0.0487952 2.13186 20.4242
-0.875136 1.02336 21.4833
-0.0248058 2.09787 20.849
-0.15909 -0.069545 21.624
-0.036916 0.685495 22.0571
0.08262 -0.527798 21.2509
-0.0462561 -0.370746 21.4736
0.206008 -0.628992 20.809
-0.0300794 -0.607819 21.2064
-0.0107093 -0.843205 20.6859
1.1603 -1.67605 18.9961
0.765193 -0.683619 19.0188
0.680079 -0.48528 19.5445
0.54033 -1.64681 22.0866
1.71861 -1.93455 20.2055
0.149368 -0.335988 21.2297
0.443365 -0.581968 21.4744
-0.243959 0.115219 20.0335
0.0719735 -0.278397 21.4151
-0.570275 0.990734 17.621
-0.716727 0.331913 21.315
-1.01273 1.38807 17.1357
-0.635172 1.0791 11.9857
-1.04267 0.527867 20.3919
-1.34509 1.11187 13.2668
-1.30134 0.747332 20.0701
1.32108 -0.266263 18.3411
0.971833 -0.428268 19.2958
-1.14357 1.35953 8.44249
-0.282233 0.443667 3.22824
-1.28953 0.177198 18.6377
-1.45811 0.0229656 8.17271
-1.53498 0.235185 17.9031
1.21221 1.12181 18.9517
1.36503 0.20775 19.1826
-1.46277 -0.684734 11.2653
-0.406065 -0.843813 20.5879
-0.976805 -0.63538 19.7359
-0.369741 -0.9331 20.3927
-1.07235 -0.736512 20.1572
0.917805 1.50887 20.0019
0.775428 0.73122 19.857
0.941172 1.28174 20.7935
1.00437 0.981272 20.5426
0.846501 1.05175 21.5508
0.92884 0.699145 21.0642
0.095635 -0.0595755 21.6066
0.393151 0.227745 21.5247
-0.136803 -0.459633 21.2398
-0.0838359 -0.28835 21.3194
-0.240971 -0.594113 20.8105
-0.232557 -0.485414 20.9675
-0.279221 -0.427882 20.6889
0.996308 -0.599999 19.8908
0.745871 -0.289679 19.7465
1.00782 -0.767305 21.0813
1.73228 -0.958177 20.3341
0.270161 -0.279455 21.2582
0.598523 -0.461331 21.2981
-0.127494 -0.082453 21.4411
0.151804 -0.238316 21.3125
-0.605978 0.119062 21.2472
-0.469552 -0.0366928 21.4122
-0.859194 0.195066 21.0108
-0.818421 0.0892876 21.1634
-0.974178 0.0239593 21.253
1.43503 -0.480075 19.7292
0.989972 -0.0767242 19.6595
1.37899 -0.707 21.2899
2.2312 -0.309508 20.5168
0.375793 -0.352936 21.2944
0.774869 -0.367883 21.2839
-0.0994915 -0.195201 21.5441
0.317665 -0.298632 21.4431
-0.702689 -0.0640481 21.3464
-0.466761 -0.24903 21.497
-0.981768 -0.0462901 20.9895
-0.827557 -0.277516 21.1828
-0.955117 -0.314659 21.552
1.5858 0.177695 19.9946
0.932655 0.393877 19.8644
1.30508 -0.0304017 21.169
1.33998 0.541601 20.601
0.693775 -0.280793 21.3212
0.960719 0.140274 21.104
0.0500848 -0.269912 21.6125
0.477368 -0.0531144 21.4537
-0.539372 -0.387001 21.2916
-0.178827 -0.326371 21.3522
-0.840035 -0.464928 21.0996
-0.403608 -0.480857 21.1358
-0.420509 -0.499791 20.8268
0.806062 0.579988 20.2864
0.803711 0.478483 20.8349
0.560093 0.237575 21.2299
0.0934936 -0.0865256 21.3403
-0.173125 -0.317552 21.1315
-0.24969 -0.402808 20.8423
-1.16597 -0.550514 19.7581
-1.53001 -2.10942 18.2446
-1.17275 -1.05494 19.4659
-1.87508 -1.04547 18.8332
-0.758489 -0.478467 19.3562
-2.4888 -2.24634 20.0415
-1.21906 -0.76077 21.1021
-0.525249 -1.0735 18.9478
-1.0286 -1.31211 21.4221
-1.54631 -1.65714 22.0031
-0.501721 -0.725893 21.5877
-0.355995 -0.335124 21.2827
-0.229817 -0.0944643 15.8149
-0.208138 -0.36997 21.3911
-0.207967 -0.376247 20.5197
-0.121584 -0.356932 21.2678
0.116385 -0.128335 21.5586
0.353025 0.0650159 13.156
0.206012 -0.0674871 21.7289
0.152391 -0.128083 20.0926
1.16114 0.50775 20.2316
0.846962 0.123389 21.3191
0.352429 1.47369 11.082
1.01652 0.724829 20.9734
1.4837 0.328758 17.9444
1.46567 0.710866 19.8646
1.08499 0.0863174 21.0296
1.22792 1.85606 14.3472
1.38067 0.789914 20.3093
1.79702 0.285448 18.2079
1.55418 0.611704 19.5603
-1.56144 -0.210804 19.6335
-3.50719 -0.935164 15.3809
-2.56553 0.492267 18.6702
-1.12358 -0.163093 18.9399
-5.54876 -1.03959 19.57
-1.60578 -0.345356 21.1772
-2.2794 0.0895314 21.7216
-0.94686 -0.57595 20.8414
-0.558433 -0.354692 21.3437
-1.08355 -0.932501 20.562
-0.302407 -0.223512 17.6373
0.0475009 -0.25602 21.7182
0.0647078 -0.278244 18.9995
1.21128 -0.09471 16.643
0.94143 -0.285606 21.328
-0.138377 0.527267 1.25821
1.10341 -0.770609 18.8548
1.67281 -0.262806 17.7364
1.1211 -0.324435 21.057
1.87444 0.236169 7.67736
1.13272 -0.952179 20.0517
1.6021 -0.169225 17.7412
-1.26301 0.584133 19.9295
-1.82441 2.55312 18.78
-0.944605 1.0505 20.0044
-1.06016 0.727602 19.2702
-2.11144 1.52026 20.3721
-1.20244 0.401965 20.8774
-1.79792 1.72041 21.0712
-0.983392 0.896237 20.7928
-1.48511 0.44725 21.1061
-0.827341 0.0497677 21.2792
-2.53278 1.43492 21.6742
-0.777996 0.529289 21.3216
-0.836872 0.0958483 21.807
-0.129398 -0.226065 21.5347
-0.179348 -0.152306 21.1853
-0.137603 -0.100547 21.484
0.166143 -0.602156 21.5657
0.356797 -0.497833 21.2515
0.190825 -0.861767 20.7626
0.150116 -0.447113 21.2052
0.414277 -0.815932 21.1534
0.436877 -0.557734 20.8731
0.391445 -1.1371 20.5069
0.264026 -0.52549 20.849
0.445822 -0.773688 20.7795
1.63419 -1.9979 18.4017
0.0603966 -2.53796 18.4995
0.142438 -3.99456 15.3125
0.0687579 -0.970639 18.478
-0.0333839 -5.34324 22.2574
0.463272 -1.14812 19.0206
-0.0184674 -1.64471 22.3869
0.0379448 -0.194844 14.1716
0.202007 -0.127362 15.615
-0.00485706 -0.378852 20.6968
-0.0792824 -0.101761 12.4491
-0.388748 0.00685953 12.9851
-0.0932845 0.136999 18.5614
-0.349835 0.559634 6.32404
-0.47149 0.91017 10.2526
-0.345103 0.723595 15.1924
-0.919745 -0.887187 -0.557465
-0.643378 0.215052 5.32963
-1.1847 1.49569 13.1654
-0.450238 1.20078 13.5112
0.318509 -0.148801 -0.614969
-0.0345903 1.07611 8.18131
4.03993 -0.665547 16.1056
0.670653 5.83774 11.89
0.237436 -0.400852 17.0842
0.894214 0.508763 1.05111
-0.490862 0.908601 -0.405378
1.05927 -0.781566 -4.14963
-1.2354 0.163658 5.77631
0.1276 -0.645606 1.71653
0.543527 -0.384993 -1.44878
1.96365 2.31951 19.2418
0.0867646 2.12519 19.794
0.18722 1.85618 18.1024
0.0753249 3.95583 20.6767
1.85328 1.42843 21.1247
0.0156102 1.90026 20.6605
-0.0291731 3.24802 19.8878
2.5896 1.3522 21.5638
-0.048251 1.88598 21.781
-0.0314228 0.866981 20.8764
0.0450776 -0.121625 20.9593
-0.0374989 -0.0397696 21.767
-0.100751 -0.5945 16.8843
-0.272148 -0.639941 20.6169
-0.0521149 -0.538384 21.2716
-0.135793 -0.93236 18.0976
-0.484102 -1.00014 20.3733
-0.0323129 -0.598482 20.9669
-0.0642393 -0.895104 19.6004
1.22451 -0.577695 19.8163
1.1909 -1.04515 19.5283
1.99341 -1.03308 18.9429
0.826068 -0.475311 19.3951
2.48292 -2.43746 20.0906
1.20138 -0.77584 21.2065
1.01996 -1.3299 21.4871
1.47901 -1.53167 21.9953
0.438068 -0.57563 21.513
0.330434 -0.321864 21.2654
0.202333 -0.355371 21.3529
0.189743 -0.31695 20.1633
0.108557 -0.332753 21.2309
-0.0982452 -0.148479 21.4673
-0.205604 -0.0885718 21.6066
-0.203851 -0.14091 20.131
-0.957553 0.25862 20.122
-0.665386 0.0305145 21.2814
-0.886065 0.437938 20.865
-1.07593 0.0853776 18.4537
-1.22442 0.409 20.0821
-0.955649 0.0545331 21.0686
-1.26377 0.598494 20.2315
-1.53318 0.137466 18.289
-1.44497 0.467224 19.445
1.66495 -0.177636 19.7893
2.6871 0.546693 19.2387
1.23317 -0.167708 19.1489
5.61955 -0.863639 20.2545
1.44279 -0.365797 21.3171
1.8084 -0.123019 21.8372
0.521414 -0.56204 19.2857
0.503844 -0.36024 21.3352
0.934163 -0.943743 20.0898
0.272764 -0.296315 17.982
-0.0291909 -0.257932 21.606
0.000374577 -0.264503 19.1499
-0.854485 -0.0935051 17.3554
-0.67877 -0.255869 21.3123
-0.808627 -0.450335 18.9448
-1.22826 -0.164047 17.8745
-0.957531 -0.281322 21.0415
-1.06354 -0.746743 20.3994
-1.42998 -0.154931 17.3805
1.25186 0.562423 20.1331
0.970521 0.94877 20.1498
1.13888 0.682659 19.5007
1.89825 1.21788 20.655
1.12856 0.325936 20.9524
0.959362 0.818765 20.8469
1.50986 0.36125 21.1381
0.796047 0.0345764 21.3015
0.739438 0.528587 21.3578
0.789497 0.115287 21.818
0.10657 -0.192793 21.494
0.0968208 -0.0794035 21.4652
-0.169848 -0.467861 21.4816
-0.305187 -0.405087 21.2344
-0.171888 -0.387006 21.2017
-0.412951 -0.679517 21.196
-0.411018 -0.501379 20.893
-0.283706 -0.492883 20.8522
-0.424573 -0.721652 20.796
-1.49483 -1.10456 19.2013
-1.22392 -1.47064 21.7293
-0.197855 -0.404692 21.3832
0.210472 -0.125448 21.3473
1.33842 0.625896 20.0998
1.56281 0.556032 19.9402
-2.51302 -0.420103 18.487
-2.46427 -0.722023 21.9428
-0.290658 -0.545377 18.6982
0.119869 -0.141184 18.3437
1.43156 -0.19642 17.0617
1.90542 -0.374219 18.0083
-1.7375 1.2989 19.4978
-1.64838 0.844526 21.0356
-1.40991 0.291029 21.5031
-0.224941 -0.232359 21.8409
0.314393 -0.744235 21.3397
0.436414 -0.8039 20.9776
0.0843424 -3.29212 17.4325
-0.00239705 -0.862165 16.6198
0.00601672 -0.119126 12.8477
-0.130227 0.0980704 10.6193
-0.849991 0.00262235 5.76815
-0.201865 0.757151 6.47237
0.509178 -1.05446 10.8949
-0.0587005 -0.145007 -2.4094
0.777334 -0.641496 -4.35148
0.178182 4.03435 18.6404
0.0337902 2.67219 20.8747
-0.0479355 4.30592 21.4454
-0.0427739 -0.338676 18.4481
-0.141395 -0.663542 17.6218
-0.0807063 -1.20072 19.548
1.57267 -1.11859 19.243
1.24191 -1.49517 21.8731
0.20158 -0.375481 21.2933
-0.219116 -0.129929 21.1781
-1.05277 0.310168 20.052
-1.39296 0.397073 20.1009
2.72659 -0.358145 18.7865
1.93092 -0.662278 21.623
0.218957 -0.535992 18.3974
-0.169458 -0.211866 18.3215
-0.918587 -0.112794 17.059
-1.58066 -0.235039 17.7144
1.71547 1.15669 19.8224
1.54522 0.657579 21.0871
1.39111 0.266489 21.562
0.179795 -0.1793 21.7735
-0.297739 -0.575958 21.305
-0.441659 -0.726886 21.0416
-0.550021 -0.280577 0.569642
-0.0283214 -0.0886733 0.601023
-0.0260882 -0.0080586 0.288012
-0.00529433 0.025208 0.0248195
0 0 0
-0.000398732 0.000844923 0.00160342
0 0 0
0.000405765 0.135645 0.352822
-0.559467 0.134921 1.84164
-0.000324239 0.000332368 0.00174612
-0.0137472 0.000340602 0.00284985
-7.63237e-18 6.8214e-19 -7.51652e-17
0.00416538 -0.0207837 0.13707
1.50854 -0.972234 1.89787
0.0141752 -0.0134036 0.242462
0 0 0
-0.00280761 0.0152267 0.0180388
0.00148669 0.0225 0.0495863
0 0 0
0 0 0
0.429628 0.0461121 2.07238
-0.00817889 0.000847276 -0.00847872
0.00618898 0.00575384 -0.00627974
-0.00585093 0.000719147 0.0384546
-0.000862731 -0.00643244 0.228587
-0.00773054 -0.00200051 0.289229
-0.00106092 0.00274147 0.0386133
6.10123e-19 7.9888e-19 8.51078e-17
0.0297038 -0.0709828 1.21967
-0.011174 -0.0166439 1.41662
0.000717578 -0.00175071 0.0731331
0.000149305 0.000164958 0.0463001
-0.189772 -0.133784 1.08366
0.00210479 -0.00625758 0.0400909
-0.257136 -0.328553 0.880129
-0.00435565 0.000423238 0.00490882
0 0 0
0 0 0
0.059252 0.0822238 0.182965
0.0081757 0.000277428 0.0984895
0.0043593 -0.000370784 0.0725872
0 0 0
0.00265542 -0.00107571 0.218437
0.00104633 0.00540489 0.0525949
-0.000550349 -0.0597174 0.689536
0 0 0
0.00800082 0.022081 1.09617
0.00146615 -0.00182928 0.0640968
0.116958 -0.116644 0.38204
0.12698 0.00584551 0.070189
-0.0010176 -0.00330166 0.0222316
0.0373968 -0.0653394 0.286558
0 0 0
-0.0366776 -0.000975272 0.250992
0 0 0
-0.0353163 0.059224 0.161647
0 0 0
-0.0519113 0.000349456 0.01639
-9.18402e-06 -0.00129654 0.0432762
0.0599068 -1.93272 0.087899
0 0 0
0 0 0
0.0104173 0.00171878 0.0943757
-0.0803436 0.00918284 -0.0168431
-0.000507607 0.000744852 0.00348753
-0.201905 -0.248161 -0.158286
0.00125612 -0.00299509 0.171718
0.00897928 0.00495609 0.360791
0.310314 4.06616 0.271508
-0.00903989 0.0347815 0.231866
-0.00442857 -0.00461069 0.117782
1.25499e-17 -4.73646e-18 -3.35298e-17
-0.0277232 0.0419773 -0.0149389
-0.000817425 6.63308e-05 0.000130763
0.000569972 0.0044653 0.0443422
0 0 0
0 0 0
0.0185271 -0.00944312 0.21998
3.2411e-07 -1.40853e-07 9.57824e-06
0.00104593 0.00236983 0.0215945
0.0981371 0.0133594 -0.0348895
1.14341e-19 6.49057e-20 2.58753e-17
-0.0338047 0.00853398 0.640296
0 0 0
0 0 0
0.00147575 -0.00239967 0.115919
0 0 0
-0.00013378 0.0015712 0.0100245
-0.000173787 0.00183597 0.0493975
7.22182e-06 7.18446e-07 0.000444779
0 0 0
0.00183595 -0.000672491 0.0236129
3.66056e-06 1.63137e-06 0.000393724
4.20575e-08 1.00917e-08 1.56194e-05
0.00259355 0.0092883 0.0419361
-0.0173862 0.00684946 0.282682
0 0 0
-0.00674704 -0.02871 0.173488
0.00429865 0.00190462 0.0623835
-0.0687745 0.108052 0.283451
4.35385e-05 7.57467e-05 0.00183662
-0.000618382 0.0260137 0.0516271
-0.000497996 0.0170241 0.213647
-0.000386325 -0.00393716 0.0262845
0 0 0
0.000472521 0.00112826 0.0304034
-0.0240399 -0.00304039 0.170384
-0.000730704 -1.20409e-07 0.0120558
-0.00190322 0.00876774 0.0399761
0.00343153 0.00293471 0.0917575
0.0948692 0.113141 0.316194
-0.00292002 0.00376986 0.0495155
-0.0191311 -0.00349923 0.136977
0 0 0
0 0 0
0 0 0
-0.000485268 0.00228254 0.0480557