# vtk DataFile Version 2.0
tri_press
ASCII
DATASET UNSTRUCTURED_GRID
POINTS 3682 float
-0.605 0.115 -1.88518
-0.715 0.205 1.75034
-0.735 0.565 -1.77467
-0.697605 0.845 1.805
0.585 0.115 -1.88027
0.745 0.215 1.73804
0.829126 0.635 -1.605
0.725 0.845 1.79409
-0.697976 0.0886909 -0.67334
-0.777154 0.0761797 0.5385
-0.827924 0.763723 -0.581447
-0.745928 0.787525 0.611777
0.691205 0.0954613 -0.674167
0.787499 0.0858346 0.531937
0.826004 0.736586 -0.47197
0.756222 0.771513 0.66106
-1.34075 -0.240857 -2.92377
-1.36286 -0.202624 -1.9787
-1.4334 -0.224493 -0.760954
-1.49499 -0.241939 0.471266
-1.48119 -0.156943 1.69042
-1.46775 -0.0858514 2.64214
-1.46751 -0.0289186 3.58355
-1.33385 0.0470282 -2.85155
-1.3668 0.105256 -1.91525
-1.45133 0.105987 -0.702163
-1.50398 0.0885614 0.521748
-1.46796 0.178242 1.73637
-1.45818 0.248316 2.6862
-1.46293 0.303637 3.6277
-1.3784 0.579898 -2.71485
-1.46718 0.631929 -1.80117
-1.54472 0.759561 -0.605095
-1.50054 0.780981 0.601068
-1.45464 0.837637 1.80172
-1.45309 0.903067 2.75568
-1.46303 0.959653 3.70468
-1.42653 1.48439 -2.50451
-1.48264 1.55411 -1.57795
-1.53418 1.67352 -0.413618
-1.53099 1.76305 0.75433
-1.50503 1.82906 1.92899
-1.49319 1.88125 2.8771
-1.49079 1.93288 3.82902
-0.625598 -0.231871 -2.90055
-0.639432 -0.194276 -1.96323
-0.692894 -0.230378 -0.746257
-0.751887 -0.249488 0.483059
-0.738764 -0.142409 1.70137
-0.726438 -0.0737854 2.65047
-0.726605 -0.0212169 3.59074
-0.602209 0.0528287 -2.81665
-0.717869 0.261583 2.69295
-0.722789 0.311786 3.63378
-0.62262 0.567155 -2.66546
-0.713915 0.910358 2.7582
-0.723604 0.965681 3.70888
-0.669566 1.4734 -2.46256
-0.720487 1.54102 -1.53757
-0.775762 1.66857 -0.381905
-0.781311 1.76364 0.772824
-0.761007 1.83124 1.93744
-0.751116 1.88385 2.88321
-0.749109 1.93551 3.83541
0.718616 -0.226149 -2.8638
0.64831 -0.193328 -1.94963
0.712507 -0.226236 -0.740895
0.769937 -0.242217 0.481525
0.74618 -0.134433 1.69465
0.748894 -0.0682904 2.64734
0.749994 -0.0178263 3.59304
0.744247 0.0646484 -2.76726
0.747724 0.266965 2.68744
0.749924 0.314896 3.6351
0.841279 0.598171 -2.56426
0.739831 0.911895 2.75538
0.745194 0.967004 3.71248
0.835094 1.48455 -2.37884
0.806404 1.54807 -1.45138
0.75932 1.66349 -0.311777
0.728149 1.75575 0.81734
0.723964 1.82652 1.96165
0.727192 1.8813 2.90014
0.729305 1.93411 3.85071
1.41097 -0.230951 -2.84166
1.35259 -0.200474 -1.92287
1.42529 -0.222659 -0.72648
1.50548 -0.233893 0.483016
1.49741 -0.145785 1.68699
1.49061 -0.0771395 2.64215
1.48908 -0.0230913 3.59179
1.43125 0.0650679 -2.74713
1.34498 0.109921 -1.83756
1.4261 0.102742 -0.652366
1.5119 0.0941109 0.536984
1.49653 0.189348 1.72729
1.48803 0.256518 2.68279
1.48793 0.308886 3.63446
1.53744 0.619005 -2.54371
1.51323 0.67026 -1.60546
1.52514 0.737954 -0.465501
1.50261 0.766079 0.664342
1.47916 0.83757 1.80585
1.47809 0.90541 2.75875
1.48195 0.961748 3.71608
1.57283 1.50197 -2.34803
1.55228 1.5639 -1.41998
1.51534 1.66473 -0.283892
1.48216 1.74953 0.839767
1.4693 1.82051 1.97893
1.46818 1.87637 2.91346
1.46888 1.93007 3.86162
-0.624084 0.34 -1.78401
-0.01 0.113054 -1.88467
-0.658705 0.0946286 -1.27926
-0.761576 0.525 1.83294
0.015 0.205305 1.74888
-0.822717 0.0639501 1.14442
0.047063 0.69573 -1.78557
-0.857613 0.740512 -1.17806
0.0136975 0.888158 1.8427
-0.763403 0.857899 1.20839
0.705158 0.375 -1.74073
0.64156 0.101774 -1.27722
0.788322 0.53 1.81939
0.836935 0.0797313 1.13499
0.863984 0.722213 -1.03849
0.792425 0.860071 1.22758
-0.736531 0.0834691 -0.06742
-0.866291 0.426207 -0.627393
-0.00338519 0.101189 -0.673753
-0.786045 0.431852 0.575138
0.00517255 0.106254 0.535218
-0.786025 0.774723 0.015165
-0.000960261 0.814522 -0.526708
0.00514691 1.16113 0.636418
0.739349 0.0906511 -0.071115
0.849003 0.416024 -0.573068
0.816272 0.428674 0.596498
0.789778 0.752715 0.094545
-0.857196 0.383103 -1.22866
0.883916 0.395512 -1.15785
-0.00669261 0.0943477 -1.27824
0.0230514 0.797251 -1.10827
0.0185315 0.3575 -2.02989
-0.820999 0.429029 -0.0261275
0.813837 0.422349 0.011715
0.000893681 0.104883 -0.0692675
0.00209333 1.10657 0.054855
-0.895801 0.478426 1.1764
0.874264 0.479337 1.18128
0.0100863 0.0804668 1.1397
0.00942221 1.07149 1.21798
0.0143488 0.5275 2.09223
-0.6685 0.2275 -1.88855
-0.3075 0.11237 -1.88658
-0.6315 0.105166 -1.58222
-0.756593 0.365 1.80995
-0.35 0.219689 1.73508
-0.748338 0.154995 1.44738
-0.659423 0.4525 -1.75922
-0.343969 0.666732 -1.81648
-0.841861 0.69831 -1.47636
-0.737413 0.685 1.82679
-0.341954 0.898463 1.85574
-0.739498 0.860444 1.50669
0.2875 0.113714 -1.88278
0.692992 0.245 -1.85841
0.614122 0.107545 -1.57874
0.38 0.221463 1.73215
0.784426 0.3725 1.79648
0.782793 0.15554 1.43651
0.438094 0.694391 -1.72431
0.79201 0.505 -1.69773
0.879703 0.711754 -1.32174
0.369349 0.904685 1.8565
0.763786 0.6875 1.81386
0.769139 0.862962 1.51083
-0.678499 0.0915008 -0.9763
-0.717566 0.0857673 -0.37038
-0.85443 0.2213 -0.650367
-0.346938 0.102425 -0.673547
-0.806648 0.0633525 0.84146
-0.756937 0.0797297 0.23554
-0.843123 0.223254 0.556819
-0.380027 0.103143 0.536859
-0.848611 0.75796 -0.879753
-0.868907 0.605864 -0.60442
-0.806431 0.768679 -0.283141
-0.420639 0.801517 -0.554078
-0.749316 0.817362 0.910083
-0.78135 0.61737 0.593458
-0.76619 0.781337 0.313471
-0.455191 1.14393 0.624098
0.66949 0.0955095 -0.975693
0.341088 0.10397 -0.67396
0.713821 0.0945119 -0.372641
0.840578 0.220506 -0.623618
0.819473 0.0755273 0.833463
0.389374 0.109967 0.533578
0.763477 0.0881894 0.230411
0.851911 0.232242 0.564218
0.844729 0.729134 -0.755228
0.43044 0.811391 -0.499339
0.850716 0.582911 -0.522519
0.805351 0.742111 -0.188713
0.784224 0.825692 0.944318
0.470532 1.14602 0.648739
0.795617 0.604779 0.628779
0.774175 0.763289 0.377803
-0.844302 0.361552 -1.50633
-0.302776 0.34875 -1.94145
-0.00834631 0.101671 -1.58145
0.00426573 0.235277 -2.10433
-0.835703 0.238866 -1.25396
-0.332699 0.0942494 -1.27875
-0.886048 0.501713 1.50467
-0.373613 0.52625 2.06155
0.0125432 0.148007 1.44429
0.0146744 0.366403 2.04208
-0.895851 0.271188 1.16041
-0.406315 0.0847167 1.14206
0.0350572 0.768577 -1.44692
0.0327972 0.526615 -2.04839
-0.870905 0.561808 -1.20336
-0.417281 0.739223 -1.14317
0.0115599 0.989486 1.53034
0.0140231 0.707829 2.07753
-0.894796 0.668163 1.1924
-0.37699 1.05647 1.21319
0.880508 0.385256 -1.44929
0.361845 0.36625 -1.92109
0.864431 0.248643 -1.21754
0.317433 0.0955028 -1.27773
0.872029 0.504668 1.50033
0.401336 0.52875 2.05227
0.874776 0.279534 1.15814
0.423511 0.0708242 1.13735
0.894137 0.558862 -1.09817
0.443518 0.750671 -1.07338
0.878817 0.669704 1.20443
0.400924 1.05511 1.22278
-0.84844 0.221412 -0.0467738
-0.363582 0.102649 -0.0683438
-0.864988 0.404655 -0.928026
-0.841294 0.427618 -0.32676
-0.0050389 0.0944498 -0.975996
-0.00124576 0.104781 -0.37151
-0.799428 0.430441 0.274505
-0.89595 0.455139 0.875771
0.00303312 0.105391 0.232975
0.00762942 0.0795903 0.837461
-0.824268 0.612254 -0.00548127
-0.448899 1.05451 0.03501
0.0110456 0.809102 -0.81749
0.000566533 0.940894 -0.235927
0.00362012 1.16036 0.345637
0.00728456 1.12988 0.9272
0.844735 0.222429 -0.0297
0.364176 0.109659 -0.0701913
0.887976 0.405768 -0.86546
0.828967 0.419186 -0.280677
0.798896 0.425511 0.304107
0.881492 0.454005 0.88889
0.818222 0.595739 0.05313
0.469026 1.07582 0.0747
-0.826463 0.233183 -1.54428
-0.847112 0.248157 -0.952163
-0.870349 0.578386 -0.903889
-0.85626 0.507154 -1.49135
0.855529 0.246821 -1.51402
0.89197 0.531931 -1.38552
0.867306 0.567584 -0.810344
0.867809 0.252193 -0.920576
-0.320099 0.103302 -1.58184
0.302467 0.102169 -1.5801
0.330672 0.0957053 -0.975844
-0.34169 0.0942455 -0.976148
-0.380625 0.692886 -1.46164
-0.415861 0.771813 -0.848621
0.42802 0.781458 -0.786359
0.440806 0.709968 -1.38433
-0.305138 0.231389 -2.06795
-0.323372 0.489558 -1.92726
0.39997 0.515808 -1.99073
0.324672 0.240139 -2.0596
-0.85143 0.221359 -0.34857
-0.845776 0.222336 0.255023
-0.802752 0.614783 0.293988
-0.846403 0.608967 -0.304951
0.842658 0.221467 -0.326659
0.834256 0.589219 -0.234695
0.801786 0.597692 0.340955
0.848325 0.227334 0.267259
-0.35526 0.102537 -0.370945
0.351286 0.109505 -0.372076
0.376775 0.109813 0.231693
-0.371873 0.10276 0.234258
-0.411554 0.881585 -0.259534
-0.46991 1.13495 0.329554
0.486178 1.14372 0.36172
0.434742 0.913626 -0.21232
-0.896246 0.262602 0.858616
-0.889514 0.318094 1.47603
-0.870909 0.676581 1.50568
-0.893667 0.638926 0.892927
0.883477 0.268394 0.861176
0.885187 0.634899 0.916604
0.889837 0.678602 1.50558
0.868712 0.326017 1.46842
-0.396153 0.0829737 0.839461
0.409923 0.070638 0.835462
0.401755 0.149501 1.4404
-0.378158 0.146086 1.44584
-0.373691 1.11738 0.918641
-0.359472 0.975731 1.51852
0.385136 0.976325 1.52059
0.390804 1.11662 0.935759
-0.361807 0.365701 2.01455
0.390668 0.369451 2.00883
0.385342 0.697665 2.03643
-0.357784 0.696415 2.03814
-0.641202 0.17125 -1.89132
-0.45625 0.112567 -1.887
-0.621048 0.107285 -1.7337
-0.73954 0.285 1.78389
-0.5325 0.221371 1.73368
-0.744413 0.167253 1.59886
-0.720748 0.50875 -1.79048
-0.539484 0.639367 -1.81908
-0.800686 0.643911 -1.62552
-0.716692 0.765 1.81508
-0.519779 0.89132 1.84996
-0.722913 0.857083 1.65585
0.43625 0.114077 -1.88181
0.6436 0.18 -1.87395
0.599781 0.111052 -1.72951
0.5625 0.226394 1.72693
0.76843 0.29375 1.77098
0.772348 0.176819 1.58728
0.63361 0.692919 -1.69288
0.818285 0.57 -1.65908
0.859907 0.67887 -1.46337
0.547174 0.893785 1.84424
0.742901 0.76625 1.80248
0.753044 0.859955 1.65246
-0.686905 0.0914278 -0.82482
-0.707912 0.0870878 -0.52186
-0.816795 0.1347 -0.661853
-0.518181 0.10411 -0.673443
-0.788746 0.0729205 0.68998
-0.76721 0.0777904 0.38702
-0.812579 0.148496 0.54766
-0.569693 0.107456 0.53768
-0.838365 0.760938 -0.7306
-0.857905 0.689538 -0.592933
-0.817098 0.766121 -0.432294
-0.641612 0.817281 -0.567762
-0.736952 0.791773 0.76093
-0.769767 0.705511 0.602617
-0.75588 0.784252 0.462624
-0.628091 1.02079 0.617937
0.676983 0.0988504 -0.82493
0.513792 0.104425 -0.674063
0.701069 0.0964311 -0.523404
0.804603 0.138628 -0.648892
0.799064 0.0851023 0.6827
0.581869 0.111035 0.532757
0.774894 0.0876058 0.381174
[...]
POINT_DATA 3682
SCALARS point_scalars float 1
LOOKUP_TABLE default
-110.887
-42.1471
7.81617
-41.2786
-108.296
-37.4423
-51.9576
-38.4274
-36.8186
-28.1646
-35.5123
-42.8968
-35.6577
-28.201
-33.8532
-39.6205
12.5192
-103.884
-39.8496
-27.0301
-64.2088
-40.5042
-34.4685
69.041
-120.466
-41.2416
-27.0301
-51.99
-36.2785
-34.4685
48.1889
-126.269
-39.0718
-31.2741
-49.9749
-37.1227
-34.7767
-13.0248
-72.8063
-34.756
-65.5667
-49.888
-40.464
-36.2725
84.7917
-118.585
-38.4757
-29.891
-43.756
-35.1119
-33.7342
84.7917
-34.2329
-33.8375
122.011
-34.5219
-33.961
-4.60728
-65.6758
-24.2357
-68.071
-41.3534
-34.7329
-34.7329
8.54619
-0.0666086
-36.7936
-30.1397
-38.5835
-28.6976
-27.181
13.7576
-29.0608
-27.5017
18.8466
-30.7379
-29.2168
-10.4856
-65.7941
-31.4471
-62.379
-38.2708
-31.6776
-31.6776
8.54619
-2.49781
-51.4748
-25.5649
-60.2182
-35.2624
-30.9205
13.7914
3.36244
-50.6298
-26.0586
-42.256
-33.2457
-30.3458
18.8466
-97.8124
-33.6052
-34.5715
-48.4689
-31.8218
-30.5252
-55.5307
-78.2159
-62.3813
-63.0794
-46.2594
-38.2859
-32.2282
68.1949
-104.719
-52.8845
-39.0573
-34.8796
-50.1894
-51.1067
-57.0532
-35.1495
-55.2531
36.0854
-54.2694
-35.5613
-47.1899
-53.2245
-52.0494
-31.0064
-40.4746
-37.2213
-21.1535
-33.526
-48.8072
4.55463
-79.7461
-30.1975
-34.9741
-20.6407
-43.9685
-58.5358
-60.3927
-52.5231
-31.1216
202.051
-33.5006
-31.4178
-32.5477
-53.1482
-49.259
-42.6193
-51.3538
-51.621
-26.6944
27.7607
-112.766
-74.9217
-39.5664
-38.7104
-50.616
61.6713
-40.3214
-75.5454
-39.2822
-36.2442
-48.7276
-109.14
19.2591
-77.657
-34.6198
-35.1576
-48.6703
-48.9288
-18.1075
-81.3033
-34.2467
-35.2776
-45.9712
-39.9737
-33.3235
-39.3586
-36.6939
-44.2556
-28.9963
-23.6995
-34.939
-42.2246
-38.0481
-36.6276
-7.53483
-48.0268
-29.5262
-45.6448
-73.8871
-43.3184
-37.12
-31.7522
-34.9827
-40.5803
-32.5111
-30.7525
-26.72
-38.6337
-5.00663
-33.8716
-37.4089
-47.9935
-70.8176
-26.1052
-41.7255
-102.253
176.8
-68.5961
172.685
-56.6137
-51.7835
-54.7591
-34.105
-43.5914
-27.8272
-49.6746
-50.5848
-50.111
160.386
-57.1346
-34.8852
-41.6026
-30.096
-50.962
-52.4906
-99.2138
161.937
-61.1895
-52.7525
-41.2742
-27.7096
-43.2565
-50.1299
-57.6644
-34.0314
-43.4887
-51.383
-31.7701
-32.4129
-44.49
-35.0755
-44.1182
-33.6725
-30.4938
-43.502
-32.7425
-39.0574
-37.3728
-28.973
-14.2024
23.4141
-92.7954
-64.6989
-29.7954
-31.7207
-47.1231
-31.8094
-29.143
-40.7208
-34.7672
-44.0623
-98.7005
-42.4251
-43.3804
-98.1821
-111.833
-89.2076
-42.0068
-44.8222
-69.4
-69.978
-44.0315
-43.3384
-57.3889
-21.1359
-19.4436
-50.1473
152.993
176.962
145.116
150.433
-34.4459
-29.4623
-35.1507
-35.4884
-30.5849
-32.9113
-32.3808
-28.2978
-33.5623
-32.9481
-31.8181
-32.7486
8.16959
-85.6767
-84.8414
9.28411
-44.3103
-54.9381
-51.7072
-43.4507
-40.6699
-41.7528
-45.2562
-45.5958
-39.7982
-38.5344
-43.5847
-46.5167
-63.7809
-43.0436
-41.8901
-62.3897
-34.1148
-27.8621
-30.165
-34.1784
-23.6544
-125.501
-104.076
-40.2274
-40.589
-44.4154
42.024
-12.62
-49.5377
-40.1256
-37.94
-45.1728
-120.818
-29.1738
-98.0911
-35.486
-36.1957
-39.6029
-31.3076
-32.893
-81.7716
-34.654
-36.1113
-42.9687
-37.3367
-34.577
-38.1674
-36.6987
-25.2724
-28.9753
-24.6786
-34.7813
-38.7439
-37.7406
-34.6613
-20.3458
-44.3694
-35.3037
-43.752
-55.5011
-39.4097
-36.6756
-34.2138
-34.9454
-27.062
-32.8061
-28.547
-26.7399
-35.3608
-18.9454
-33.6757
-34.4843
-41.3751
-52.5484
-32.8417
-40.1417
53.1448
59.7696
-147.199
124.097
-106.534
-107.335
-86.6541
24.2801
-56.0147
-44.7661
-53.9722
-51.4655
-39.0572
-39.0347
-47.1717
-34.4632
-36.8264
-34.3648
-38.7163
-29.6375
-64.775
-46.8788
-50.3687
-49.1268
-46.0752
-54.0863
-67.3868
-8.80235
-68.5322
-45.8426
-56.5301
-43.7982
-35.7805
-34.6814
-37.8519
-31.6617
-52.0992
-54.4892
-53.0816
-54.7524
37.3865
24.5949
-156.015
97.9804
-62.2957
-47.2256
-60.822
-52.9189
-35.3073
-34.8914
-45.5343
-30.0284
-53.5343
-43.6187
-45.0343
-47.2055
-66.8961
-44.1754
-56.2919
-41.6074
-49.3806
-52.5904
-45.1655
-53.0842
-32.7034
-30.4918
-31.4651
-31.9137
-40.8156
-39.5229
-43.4099
-37.0219
-37.0446
-37.2043
-40.761
-35.3625
-21.348
-23.4784
-26.8719
-31.9268
-34.1465
-32.9493
-33.0814
-33.608
-42.8894
-47.6736
-41.4376
-61.0183
1.04669
2.64378
-5.1912
14.9487
-79.0452
-77.9441
-86.8143
-73.0006
-30.7939
-29.8301
-29.773
-30.9559
-35.4231
-34.4787
-39.2555
-32.7993
-22.1905
-20.7307
-26.0344
-38.1221
-41.6551
-43.0341
-38.2142
-71.6033
-72.7238
-58.02
-58.0824
-50.0324
-73.8703
-60.9907
-59.2584
-52.1196
-56.4005
-52.0994
-52.5771
-47.6291
-41.0763
-30.7093
-31.6898
-22.9473
195.138
202.827
196.499
192.939
-33.1028
-34.0909
-32.4643
-34.8633
-30.9162
-31.5989
-30.8263
-32.5971
-32.5988
-32.926
-32.5034
-32.2672
-42.0946
2.77006
-91.6343
-50.4277
-51.2171
-48.7225
-49.7599
-47.7513
-42.5832
-42.987
-42.7759
-44.1793
-51.5754
-50.9964
-50.9471
-48.0702
-46.1613
-51.8762
-51.3568
-57.5338
-31.0197
-26.8565
-27.4436
-24.6274
-110.797
129.634
-89.9712
8.8843
-90.3819
-70.4106
-46.6192
-35.2578
-41.9683
-34.605
-55.7126
-48.9741
-146.347
107.292
-68.6045
25.2816
-103.371
-62.6374
-49.1996
-34.9896
-39.1343
-34.2908
-49.7718
-45.9825
-89.509
22.4367
-90.058
121.49
-110.273
-71.5166
-38.6587
-29.1772
-41.5741
-30.0886
-49.6826
-45.9314
-74.3877
7.06711
-128.393
101.687
-88.7283
-60.6947
-37.7582
-30.8295
-47.1534
-31.174
-46.6644
-44.3103
-40.4711
-42.3785
-34.5687
-33.3411
-42.5547
-36.3445
-40.1442
-34.8396
-45.6732
-42.5664
-29.2992
-31.8066
-27.239
-23.7903
-33.6672
-35.6339
-44.0957
-28.0665
-43.9261
-35.7474
-36.3366
-13.1904
-14.3517
0.0603539
-40.4419
-59.9234
-32.3409
-26.3972
-39.7043
-64.0444
-81.0489
-68.6572
-43.5403
-43.1269
-40.6868
-34.9951
-31.313
-32.4358
-44.0557
-32.0744
-40.6389
-41.2142
-32.1895
-33.4075
-29.5899
-31.1545
-27.1168
-28.2367
-40.6827
-25.0618
-12.0623
1.893
-36.6395
-32.8278
-34.4412
-22.0904
-42.7213
-57.5092
-77.0468
-66.8544
-29.4557
-34.6014
-36.1293
-57.1795
-100.672
-102.007
183.305
176.466
-68.9928
-69.2708
170.738
168.636
-71.8615
-48.4966
-56.1554
-46.8246
-53.8384
-53.847
-34.0539
-34.094
-42.9895
-44.7394
-31.3491
-26.0758
-48.2365
-52.4464
-46.2687
-52.9563
-55.9333
-48.9216
167.98
144.323
-49.1182
-70.9504
-41.9157
-28.0814
-42.2737
-41.6322
-28.9894
-32.6634
-53.4868
-48.899
-58.0305
-47.5748
-103.311
-93.2444
144.563
178.554
-76.7498
-51.8993
-57.2366
-47.7716
-41.9186
-43.1638
-27.7418
-28.7651
-45.0994
-44.5364
-45.4022
-51.3994
-69.2468
-50.3566
-26.2109
-39.5052
-45.5872
-42.1484
-46.4589
-56.6898
-32.9118
-30.5587
-32.797
-32.3483
-43.7576
-43.7844
-35.1129
-35.1408
-44.2509
-43.8672
-33.6487
-33.4284
-30.3904
-32.1349
-43.6899
-43.7242
-32.3423
-32.9288
-38.8652
-38.761
-36.8862
-36.151
6.5862
-73.3898
-16.4114
-15.1131
21.0338
22.0934
-92.4058
-91.2814
-64.7421
-63.9701
-30.7921
-28.882
-32.1613
-31.5887
-45.0507
-47.2901
-31.5374
-32.1168
-30.1803
-29.1524
-40.6861
-41.1866
-34.0989
-34.1047
-79.2379
-1.91935
-107.741
-68.1066
-72.7871
-122.315
-42.9789
-43.3051
-49.8087
-46.761
-42.1059
-48.5366
-49.8438
-44.7282
-118.25
-152.176
-71.932
-71.5418
-81.109
-135.891
-74.9936
-75.735
-107.494
-66.8387
-71.6518
-145.351
-36.3149
-37.9421
-51.2484
-48.3901
-45.8727
-51.1609
-52.2335
-41.2152
-93.4661
-87.7789
-56.2181
-56.3614
-92.2502
-58.3874
-56.8364
-87.9447
-40.594
-40.7752
-47.7899
-48.0757
-39.1252
-46.119
-47.3522
-40.5273
-59.8103
-50.6574
-39.6449
-70.4251
-25.0369
-8.08135
-23.8421
-34.8093
-23.3169
-32.24
-23.3823
-6.3322
-66.8511
-78.1618
-38.213
-51.0484
33.3718
153.78
198.999
-0.750925
72.1189
4.60605
197.365
128.915
23.9844
102.074
187.716
-15.4
28.1466
4.42806
193.505
122.606
-36.1464
-34.2052
-33.7447
-37.2757
-27.8426
-27.0296
-32.1734
-30.3618
-37.5334
-41.138
-34.0194
-28.6006
-35.4993
-36.6232
-34.7384
-38.9365
-33.1347
-32.7323
-31.1231
-30.4838
-33.3627
-37.116
-32.4485
-32.7066
-34.2547
-27.007
-31.946
-37.5235
-27.6376
-29.5555
-30.5525
-26.5419
-34.4529
-35.2916
-32.9508
-32.3775
-34.5413
-31.6199
-32.6627
-35.251
-31.8022
-32.6318
-32.1628
-30.5645
-33.1786
-31.8835
-32.5609
-33.4819
-16.914
-25.1781
7.46302
10.1537
-58.0419
-86.2302
-87.1346
-76.5551
-53.7571
-63.2626
-89.7813
-84.9699
-15.2216
11.9838
2.70836
-46.4498
-12.8721
-48.382
-48.0249
-31.0238
-46.0972
-47.3721
-52.1364
-55.608
-50.248
-53.2377
-51.9659
-48.0598
-36.1856
-27.9662
-48.1107
-49.2371
-19.5243
-35.2097
-44.009
-46.0188
-33.3787
-47.0387
-44.6051
-38.9374
-49.2034
-46.295
-42.4594
-44.8664
-40.9333
-46.2229
-43.6526
-43.3237
-37.5428
-34.512
-47.6151
-45.7207
-35.71
-43.6244
-47.6801
-32.4942
-39.5423
-38.1589
-51.1767
-50.0868
-43.8388
-53.0976
-51.9236
-40.181
-52.5742
-58.8419
-57.8293
-72.4422
-41.7906
-38.3638
-46.5811
-50.4839
-39.5173
-48.8247
-45.9963
-37.5348
-50.9307
-71.4644
-57.0184
-56.2559
-36.8926
-32.3553
-31.3703
-34.5631
-31.5664
-29.6224
-25.4518
-29.1858
-31.5899
-30.8643
-26.1781
-30.8844
-35.4873
-34.7504
-31.7951
-33.107
-56.1401
-136.69
-131.355
-41.5264
-41.0957
-42.7661
25.688
0.154049
-24.5346
-40.7235
-39.0924
-43.0956
-129.625
-70.2015
-121.405
-35.9162
-36.8859
-38.7911
-28.8688
-45.4705
-80.9916
-35.956
-37.1323
-40.2188
-38.4749
-35.3885
-35.0227
-37.9196
-27.0771
-29.2315
-25.7741
-33.1739
-37.5915
-36.957
-34.4173
-29.1232
-43.093
-38.9969
-43.0594
-47.7852
-37.4804
-36.5654
-35.7339
-31.8939
-27.2957
-31.4922
-27.6207
-27.2652
-35.0879
-29.3346
-33.8105
-33.3658
-40.3132
-44.973
-35.9375
-39.689
52.6489
65.6692
-78.0866
87.8082
-105.763
-106.169
-97.2918
-94.9504
-54.058
-47.9099
-53.3713
-51.6164
-39.0156
-38.9876
-44.2817
-35.7018
-36.1642
-34.5442
-37.0155
-30.4243
-53.4351
-47.3712
-50.5562
-48.955
-47.8562
-54.5941
-63.0989
-33.0399
-64.4162
-50.0812
-57.039
-50.1195
-35.4586
-34.8961
-36.4029
-32.8352
-53.5988
-55.5594
-54.9477
-54.7118
43.2145
34.6608
-94.1594
70.1187
-57.877
-49.3634
-58.7289
-53.1804
-35.6598
-35.2616
-41.744
-31.3791
-46.6305
-44.1638
-47.8202
-46.1678
-59.5202
-48.5473
-54.984
-47.1401
-50.5783
-52.7292
-47.7217
-51.8276
-31.3832
-31.1297
-31.3324
-30.6964
-40.8696
-40.1205
-42.9127
-38.6422
-37.162
-37.2312
-38.4341
-36.6627
-21.0808
-21.6879
-24.2237
-20.2584
-33.8448
-33.2174
-33.293
-33.6117
-47.7852
-48.6801
-43.9554
-65.2268
3.69311
4.48745
-0.317196
8.78934
-79.6912
-79.1982
-83.0441
-76.5818
-30.1742
-29.8815
-29.7156
-30.6222
-35.1452
-34.7683
-36.83
-33.5614
-20.7742
-20.0367
-23.3387
-26.125
-43.4416
-43.4961
-40.6326
-54.835
-64.1085
-58.3649
-58.4228
-54.0279
-66.3314
-60.6909
-60.0112
-55.543
-54.1381
-52.1998
-52.4527
-49.7079
-36.1051
-31.0977
-31.2823
-26.9762
197.798
200.434
198.524
199.32
-33.1573
-33.8733
-33.0798
-34.1513
-30.9958
-31.4506
-31.2245
-31.9404
-32.615
-32.6494
-32.537
-32.4505
-49.8887
-20.3322
-76.849
-53.1607
-50.1452
-48.8658
-49.3895
-48.5155
-42.7586
-42.8718
-42.445
-43.514
-55.1167
-51.0542
-51.0505
-49.3511
-48.745
-51.8032
-51.4688
-54.5821
-28.812
-27.2414
-26.4737
-25.1046
2.85191
39.64
-45.6284
87.7794
-117.328
-108.115
-103.788
-122.643
-86.5562
-66.5165
-87.7022
-71.7362
-39.8065
-39.2501
-43.9029
-36.3355
-39.7992
-37.671
-40.8278
-35.0847
-45.9729
-62.9055
-53.1282
-50.5527
51.2797
60.7026
-66.4949
87.334
-32.0054
-44.1132
-58.676
-17.4797
-66.5325
-75.2875
-93.4247
-66.0873
-39.6854
-39.1146
-45.5223
-36.2138
-36.835
-36.0428
-37.5889
-34.7559
-46.6315
-50.4629
-49.5004
-47.3433
-112.442
-108.21
-102.504
-121.104
0.726654
30.1212
-32.2446
75.4205
-86.6103
-70.9781
-101.052
-73.5843
-35.1332
-34.3694
-36.8982
-30.5464
-35.8079
-34.9611
-42.0323
-31.4644
-41.9185
-58.6796
-50.5364
-46.862
-39.9063
-51.9971
-68.4715
-26.529
-27.2468
3.43759
-120.357
58.2025
-79.5936
-78.0778
-85.4935
-71.9993
-33.9841
-34.6511
-36.001
-31.7138
-35.6252
-34.9542
-41.7033
-32.0134
-44.3723
-47.7967
-46.4869
-44.7817
-39.2683
-41.3527
-38.7198
-41.6537
-33.6792
-32.5951
-33.6902
-33.3445
-38.7766
-40.0216
-41.4054
-37.7512
-36.4627
-36.8513
-38.078
-35.7522
-39.6475
-46.2143
-46.6373
-40.6347
-28.2187
-29.5984
-28.8453
-29.826
-24.2665
-22.8522
-25.564
-20.7204
-35.4222
-34.4647
-34.1708
-35.3708
-40.3227
-44.9395
-44.8733
-34.2047
-37.8057
-38.8305
-40.0313
-36.7742
-34.9247
-39.3522
-37.4577
-29.5982
-12.3941
-3.00276
-10.7551
-3.92626
-46.6418
-51.5601
-44.0116
-50.0298
-32.4409
-25.9159
-30.6262
-28.1351
-44.5787
-46.9058
-42.3555
-52.34
-67.1585
-77.4388
-77.1699
-71.5937
-42.0886
-45.1053
-42.7187
-42.9877
-37.0002
-37.1365
-38.4783
-36.5221
-32.0392
-30.7546
-31.1998
-32.2284
-35.1178
-35.177
-36.8866
-33.3722
-32.1511
-45.0308
-41.6458
-39.122
-32.5272
-32.7773
-32.3709
-32.9571
-28.3834
-30.4075
-31.0903
-30.1063
-26.626
-26.073
-26.6915
-26.6326
-36.8382
-40.8024
-40.3882
-30.9012
-10.9463
-0.627382
-8.67806
-0.318127
-33.657
-34.192
-35.0147
-33.1761
-35.4298
-39.7317
-35.8738
-40.6428
-44.9684
-50.179
-42.1332
-51.4888
-63.4337
-75.5457
-73.8494
-69.6011
-29.3184
-22.7606
-27.5081
-27.2461
-40.9163
-42.6414
-38.503
-47.8283
-127.105
-85.0351
-101.158
-103.295
167.356
187.052
175.84
178.193
-76.4779
-62.9973
-68.6488
-68.6692
113.231
214.288
169.376
172.178
-55.811
-57.5054
-63.1636
-52.0802
-51.5662
-52.1307
-53.6555
-48.9939
-50.7895
-53.5434
-54.4629
-54.6635
-34.2903
-32.8708
-34.0754
-34.0542
-41.1536
-46.7259
-43.189
-44.117
-29.3461
-26.6941
-29.611
-26.6239
-50.0449
-49.5624
-48.7848
-50.6615
-50.1246
-51.0121
-48.022
-54.3478
-58.8226
-46.3609
-53.2183
-46.2952
25.3224
198.533
178.156
166.868
-56.994
-57.5557
-52.9144
-62.9904
-39.7063
-32.3259
-38.1209
-31.1186
-39.5919
-43.8423
-41.9207
-41.5536
-30.8591
-28.9117
-29.0476
-31.3587
-51.959
-50.2142
-52.0338
-49.9695
-53.3732
-52.1292
-55.4023
-49.9214
-119.183
-84.4959
-101.267
-96.6348
126.732
181.086
165.23
162.299
-61.1478
-61.2843
-67.6207
-56.2713
-52.9396
-52.7097
-54.6704
-49.9062
-43.6812
-42.5197
-41.4176
-41.8925
-29.1562
-25.5327
-27.7826
-27.8448
-43.623
-43.0555
-44.1679
-43.808
-49.0859
-50.5472
-47.0877
-54.7143
-56.7881
-58.5168
-62.7714
-54.2258
-37.9113
-33.3875
-29.3599
-38.0541
-44.1121
-42.9884
-45.0245
-43.1165
-52.1314
-51.1976
-48.8617
-54.1375
-31.5756
-32.3376
-32.3531
-31.146
-32.1457
-32.5445
-32.5112
-32.3858
-43.0372
-46.8314
-44.205
-44.3642
-36.0184
-34.4473
-35.0438
-35.0832
-43.1441
-45.5313
-44.1643
-44.0394
-34.1325
-33.1531
-33.6657
-33.5591
-28.9308
-31.6507
-30.3547
-31.116
-39.8514
-46.8588
-43.6523
-43.4952
-32.8947
-32.655
-32.5659
-32.8802
-32.7367
-46.7613
-39.1442
-38.8294
-39.1903
-35.8512
-37.4304
-36.9055
-32.8246
-34.3776
-9.57104
-52.1551
-9.99294
-18.6262
-14.991
-14.3249
20.3147
20.7539
22.5031
23.3906
-90.6122
-95.8171
-92.7456
-92.4098
-69.0848
-61.2982
-64.8209
-64.408
-29.7308
-30.0553
-30.2154
-29.2819
-31.3507
-32.0208
-31.8367
-31.6682
-43.742
-48.5253
-46.3951
-47.6141
-32.2179
-31.5543
-31.6709
-31.9084
-27.8373
-30.1329
-29.5448
-29.0641
-38.7986
-43.4173
-40.8212
-40.9439
-36.419
-33.5297
-34.502
-34.5806
-50.3755
-45.713
-61.8554
-19.4766
-122.917
-96.0133
-100.153
-83.838
-41.7931
-41.6799
-45.1276
-43.1333
-42.7087
-44.1211
-46.0597
-43.6076
-131.885
-98.2399
-99.2205
-81.6239
-129.803
-113.699
-106.71
-88.8277
-108.108
-88.1635
-90.8503
-77.3956
-40.858
-38.801
-46.5124
-43.501
-43.9662
-48.4248
-48.6843
-46.5247
-79.0608
-69.8279
-69.2929
-62.8266
-78.3969
-70.6105
-69.8159
-64.2326
-43.8316
-43.0232
-45.5094
-44.1728
-42.8314
-42.3023
-44.685
-43.6655
-79.971
-58.6682
-56.5009
-47.3961
-23.3813
-18.1531
-24.2801
-18.8395
-21.8823
-15.4693
-22.9233
-16.6926
-64.1747
-50.6462
-48.8165
-42.6033
143.833
88.6079
186.995
166.845
162.028
140.02
176.646
181.356
75.5002
123.969
149.031
140.639
99.0346
150.48
170.302
182.356
-34.3779
-35.2775
-33.7035
-34.7424
-29.1235
-28.6924
-29.8727
-29.2732
-33.8649
-37.2089
-33.4691
-36.1287
-35.4296
-35.5297
-35.4794
-35.4529
-30.9323
-31.0954
-30.704
-30.9995
-32.8314
-33.6528
-32.4385
-33.3956
-31.1585
-34.1917
-31.0935
-33.3834
-28.4461
-27.6878
-28.9348
-28.2706
-33.4291
-34.0959
-33.0549
-33.6293
-33.5674
-32.6778
-33.211
-32.425
-32.018
-31.5217
-32.0741
-31.7174
-32.3911
-33.1304
-32.527
-32.8823
-4.1226
4.45351
10.0405
16.3409
-78.2322
-84.3583
-83.6914
-91.3702
-80.6331
-74.7314
-88.9564
-83.8254
5.01148
-3.63271
18.3607
8.98962
-45.513
-36.3142
-47.3712
-43.539
-51.6378
-55.5004
-53.6225
-53.976
-50.3394
-50.3512
-53.0226
-53.714
-40.7574
-34.0861
-47.8845
-43.7672
-41.2304
-34.2724
-44.0654
-40.5585
-42.2135
-39.4903
-44.4305
-41.4832
-48.6794
-47.0285
-43.3147
-40.8095
-43.4106
-47.5158
-43.8053
-44.3453
-41.7242
-35.0603
-44.6399
-39.2035
-42.1717
-32.0028
-43.8893
-38.4155
-41.1737
-44.4788
-43.0669
-46.6579
-44.0255
-47.4836
-45.4853
-49.1144
-63.2039
-66.1433
-61.0341
-64.4117
-41.0056
-44.2586
-42.6867
-45.0913
-39.7329
-42.8043
-41.6181
-43.9852
-62.154
-64.7012
-59.5372
-63.2678
-34.9188
-34.3323
-33.9235
-32.2781
-28.673
-29.6857
-26.6738
-27.9228
-30.7849
-30.843
-29.5345
-29.525
-34.5155
-34.2653
-34.174
-33.665
-75.3634
11.1478
-108.041
-53.8081
-109.486
-96.4757
-43.367
-37.9881
-42.7211
-38.0588
-45.6081
-44.1607
-37.4969
89.9626
-39.9157
24.2607
-81.4288
-45.6003
-46.2067
-36.9061
-39.7812
-36.204
-49.8633
-43.2444
-106.849
-49.5584
-67.2823
15.1043
-87.7082
-94.5781
-37.8693
-32.9632
-41.0496
-32.8886
-40.5311
-39.4611
-56.5826
-0.835951
-99.9323
7.60232
-95.9735
-63.991
-37.1023
-32.4087
-42.3116
-32.6999
-47.0237
-40.7591
-38.5873
-38.0598
-34.7877
-34.4185
-38.7411
-37.525
-38.2106
-35.2111
-13.9521
-36.1266
-28.9128
-31.775
-26.5689
-21.9945
-34.2016
-35.5752
-41.1299
-32.203
-39.4209
-36.8588
-35.7592
-26.6761
-22.2228
-18.7681
-40.0187
-47.6798
-36.1631
-34.8494
-40.3663
-49.3448
-56.3117
-53.9696
-39.6334
-40.4418
-37.931
-36.2216
-34.3302
-34.453
-35.6251
-35.1153
-19.5803
-34.3754
-32.2734
-33.9638
-28.2809
-30.6725
-27.1729
-25.4966
-36.07
-30.1423
-21.0763
-18.5463
-34.6149
-33.3102
-34.0348
-29.699
-37.9505
-45.3523
-52.5652
-51.8594
-33.1498
-32.9149
-37.0889
-46.0668
-33.4954
104.571
-33.1483
90.6644
-141.402
-142.269
148.213
136.483
-99.1792
-143.774
-99.7415
-144.77
-86.9933
-86.9386
-2.72333
-0.872177
-65.2067
-56.1741
-45.3253
-45.4779
-60.457
-50.3141
-53.8308
-48.4775
-44.0618
-35.431
-44.8052
-35.8455
-47.0045
-47.6755
-34.4086
-34.6267
-38.8935
-33.6367
-36.6214
-30.5433
-38.3302
-39.3507
-31.8301
-29.4055
-61.7158
-60.2134
-47.7705
-46.5504
-48.8931
-52.7286
-47.6221
-50.5629
-65.4189
-32.7904
-67.6267
-30.7677
-65.9462
-72.1091
-3.36275
-12.9692
-73.3579
-57.6059
-47.1461
-41.2017
-52.7498
-62.8863
-46.9642
-38.6789
-36.9697
-33.83
-36.037
-32.4158
-38.0706
-37.6534
-30.8181
-32.4736
-52.1948
-51.1877
-51.7765
-56.2829
-55.2488
-51.7227
-56.8365
-52.7533
-23.6365
85.2618
-104.487
63.4819
-159.76
-145.845
106.983
105.556
-73.8351
-59.9201
-50.6491
-47.6382
-66.4427
-55.7495
-55.194
-50.049
-42.4297
-30.8776
-41.5914
-31.6238
-45.8752
-44.5635
-29.6358
-30.5943
-49.5182
-55.2294
-44.9707
-43.488
-45.6759
-44.4784
-46.9287
-47.9309
-67.3923
-59.3875
-46.5225
-38.5154
-60.6371
-53.6807
-36.6782
-46.4099
-47.5497
-48.7587
-48.0049
-53.9823
-45.915
-44.0231
-50.656
-54.9131
-34.5383
-32.2604
-30.7075
-31.5863
-32.3985
-31.0947
-31.9468
-32.0464
-43.0899
-39.4135
-42.1128
-37.9795
-43.6969
-43.8426
-37.2016
-36.8507
-38.2501
-36.5139
-38.4986
-36.6014
-40.7708
-40.6364
-35.3669
-35.3397
-24.7127
-21.0221
-26.3105
-21.5087
-26.7265
-27.4919
-32.0619
-30.8215
-33.7709
-34.3833
-32.7786
-32.8785
-32.814
-33.2866
-34.092
-32.885
-41.6327
-43.528
-43.9478
-56.1919
-41.5027
-40.7615
-39.3069
-74.5477
-3.67723
5.80501
-1.96594
7.00055
-6.24372
-5.40755
11.9758
13.2084
-82.527
-75.8182
-81.2919
-74.7593
-86.8996
-86.3234
-73.028
-72.4981
-30.51
-31.4195
-29.6249
-29.2051
-30.0312
-29.7168
-31.1921
-30.7933
-37.6046
-33.8402
-35.8793
-33.3615
-38.5477
-40.185
-32.7584
-32.7338
-24.3496
-28.5136
-24.5903
-27.6214
-26.2725
-26.2644
-37.7506
-39.3103
-39.1446
-52.3102
-39.8139
-49.5876
-37.8915
-37.8952
-72.8444
-58.1098
-73.023
-72.5977
-64.1404
-53.6346
-53.6829
-63.6237
-50.0243
-50.0068
-74.3746
-72.8072
-66.9772
-56.1249
-64.7018
-54.6081
-51.8238
-52.2325
-56.271
-56.5545
-53.852
-49.4542
-54.4204
-49.9431
-47.7057
-47.4998
-40.1205
-41.276
-35.9765
-26.7928
-27.0067
-35.2312
-23.3326
-23.2149
194.643
196.002