# vtk DataFile Version 2.0
tri_press
ASCII
DATASET UNSTRUCTURED_GRID
POINTS 3682 float
-0.606677 0.215 -2.115
-0.645 0.325 2.16809
-0.710119 0.675 -2.045
-0.595 0.925 2.21341
0.609675 0.215 -2.115
0.645 0.325 2.16837
0.710402 0.675 -2.045
0.595 0.925 2.21352
-0.654162 0.216956 -0.687303
-0.675845 0.244714 0.740394
-0.803464 0.890052 -0.62553
-0.762601 0.970895 0.79394
0.656064 0.217053 -0.68721
0.676325 0.245233 0.74058
0.803566 0.889965 -0.625494
0.762597 0.970796 0.794013
-1.31622 -0.168637 -3.28423
-1.31906 -0.0993135 -2.14535
-1.34963 -0.0875247 -0.717433
-1.34909 -0.0752193 0.712126
-1.31457 -0.0208936 2.14018
-1.31204 0.0163521 3.27974
-1.32449 0.0485251 4.41805
-1.3217 0.116175 -3.2522
-1.33208 0.208551 -2.11421
-1.37611 0.241533 -0.687908
-1.36094 0.257231 0.739122
-1.2955 0.300598 2.16558
-1.30159 0.336207 3.30503
-1.32254 0.369332 4.44361
-1.36983 0.65235 -3.18581
-1.42186 0.743084 -2.04748
-1.48993 0.898996 -0.62679
-1.43261 0.957598 0.793306
-1.29193 0.93969 2.21415
-1.30453 0.972749 3.35391
-1.33536 1.0139 4.49381
-1.40693 1.58849 -3.09246
-1.43733 1.69402 -1.95537
-1.47197 1.85312 -0.537341
-1.46959 1.95454 0.878905
-1.4321 1.98016 2.29701
-1.40893 1.99402 3.43426
-1.40383 2.02058 4.57325
-0.630316 -0.166922 -3.28474
-0.626466 -0.0946137 -2.14609
-0.654125 -0.100075 -0.717284
-0.669977 -0.0841043 0.713237
-0.656428 -0.00987138 2.14208
-0.655174 0.0225679 3.28106
-0.663248 0.0498325 4.41884
-0.625533 0.110578 -3.25234
-0.650997 0.342244 3.30612
-0.664143 0.369791 4.44422
-0.659884 0.622407 -3.18478
-0.649651 0.967459 3.35381
-0.676224 1.01032 4.49384
-0.688952 1.56895 -3.09143
-0.710754 1.67616 -1.95423
-0.745854 1.84963 -0.536636
-0.764227 1.9589 0.87887
-0.751199 1.97961 2.29649
-0.735324 1.99068 3.43375
-0.731122 2.01724 4.57289
0.685384 -0.166905 -3.28471
0.64897 -0.0945875 -2.14606
0.670152 -0.099952 -0.717191
0.677393 -0.0837455 0.713406
0.655191 -0.00973731 2.14231
0.65044 0.0226696 3.28126
0.652322 0.0499398 4.41901
0.690133 0.110584 -3.25232
0.637098 0.34231 3.30632
0.643035 0.369884 4.44439
0.725557 0.622405 -3.18476
0.616097 0.967505 3.35396
0.62744 1.0104 4.49398
0.743461 1.56895 -3.09139
0.744971 1.67615 -1.95419
0.728065 1.84962 -0.536577
0.674935 1.95891 0.878952
0.622364 1.97965 2.2966
0.611092 1.99073 3.43386
0.61139 2.01731 4.57301
1.35955 -0.168596 -3.28416
1.33098 -0.0992547 -2.14526
1.35791 -0.0873166 -0.717259
1.36181 -0.0747205 0.712421
1.32603 -0.0205607 2.14056
1.3159 0.0165927 3.2801
1.31803 0.0487497 4.41837
1.36457 0.116193 -3.25214
1.32954 0.208564 -2.11415
1.37378 0.241666 -0.687752
1.37094 0.257732 0.739408
1.30935 0.300881 2.16596
1.30029 0.336405 3.30539
1.30688 0.369534 4.44393
1.41344 0.652347 -3.18576
1.41862 0.743054 -2.04744
1.48338 0.898947 -0.626683
1.43318 0.957688 0.7935
1.29248 0.93985 2.21441
1.28055 0.972893 3.3542
1.29169 1.01407 4.49409
1.45223 1.5885 -3.09238
1.45978 1.69401 -1.95528
1.4502 1.85311 -0.537216
1.39242 1.95457 0.879074
1.32163 1.98024 2.29722
1.2956 1.99414 3.43449
1.28962 2.02072 4.57349
-0.695446 0.445 -2.11705
0.001499 0.191534 -2.13847
-0.644721 0.201677 -1.40115
-0.658002 0.625 2.22875
0 0.326193 2.16704
-0.653763 0.291516 1.45424
0.000141501 0.718071 -2.08807
-0.810584 0.836318 -1.33527
0 0.938245 2.22671
-0.713871 0.983018 1.50367
0.697748 0.445 -2.11771
0.647254 0.201642 -1.40111
0.658465 0.625 2.22941
0.654492 0.291287 1.45448
0.810898 0.836397 -1.33525
0.714082 0.983182 1.50377
-0.665344 0.230494 0.026545
-0.893982 0.553504 -0.656417
0.00095093 0.191924 -0.687257
-0.894541 0.607804 0.767167
0.000240193 0.209916 0.740487
-0.782661 0.930101 0.0842049
5.08493e-05 1.06366 -0.625512
-1.98136e-06 1.25387 0.793977
0.666832 0.230505 0.026685
0.894112 0.553509 -0.656352
0.894501 0.608015 0.767297
0.782728 0.930027 0.08426
-0.844039 0.499252 -1.36821
0.831058 0.499254 -1.36818
0.00122496 0.166179 -1.40113
9.61754e-05 0.866831 -1.33526
0.000820249 0.445 -2.3467
-0.89855 0.580654 0.055375
0.898546 0.580762 0.0554725
0.000595561 0.207191 0.026615
2.4434e-05 1.28247 0.0842324
-0.862295 0.616402 1.47896
0.862359 0.616507 1.47912
0.000120096 0.280211 1.45436
-9.90678e-07 1.09394 1.50372
0 0.625 2.27141
-0.648293 0.33 -2.11326
-0.302589 0.191286 -2.13871
-0.635081 0.198957 -1.75808
-0.685572 0.475 2.23249
-0.3225 0.328125 2.16504
-0.655601 0.302039 1.81117
-0.718497 0.56 -2.09674
-0.354989 0.701123 -2.07112
-0.788149 0.783456 -1.69013
-0.631206 0.775 2.22579
-0.2975 0.936809 2.22525
-0.668927 0.968501 1.85854
0.305587 0.193662 -2.13634
0.650939 0.33 -2.11358
0.637937 0.198848 -1.75805
0.3225 0.32814 2.16516
0.685637 0.475 2.23279
0.655958 0.301932 1.81142
0.355272 0.702068 -2.07207
0.719088 0.56 -2.09637
0.788388 0.783436 -1.69012
0.2975 0.936943 2.22544
0.631136 0.775 2.22587
0.670537 0.970087 1.85864
-0.640501 0.218256 -1.04423
-0.659527 0.223952 -0.330379
-0.859313 0.342609 -0.67186
-0.320121 0.21741 -0.68728
-0.653855 0.279064 1.09732
-0.67423 0.233969 0.383469
-0.871731 0.38299 0.75378
-0.331802 0.239315 0.74044
-0.81059 0.866751 -0.980398
-0.878671 0.736751 -0.640974
-0.791953 0.908967 -0.270663
-0.437282 1.04801 -0.625521
-0.744933 0.983653 1.14881
-0.863302 0.806715 0.780553
-0.772982 0.950849 0.439072
-0.44559 1.24096 0.793958
0.642701 0.218305 -1.04416
0.321956 0.217592 -0.687233
0.661227 0.224 -0.330263
0.859505 0.343072 -0.671781
0.654912 0.278757 1.09753
0.332424 0.239291 0.740533
0.675466 0.233982 0.383633
0.871823 0.383419 0.753938
0.81082 0.866769 -0.98037
0.437362 1.04792 -0.625503
0.87878 0.736707 -0.640923
0.791982 0.908831 -0.270617
0.744919 0.983568 1.14889
0.445563 1.24086 0.793995
0.863243 0.806752 0.780655
0.773041 0.95079 0.439137
-0.816829 0.472126 -1.74263
-0.347313 0.445 -2.30699
0.00136198 0.162519 -1.7698
0.00115962 0.318267 -2.3437
-0.813606 0.350464 -1.38468
-0.321748 0.186162 -1.40114
-0.808442 0.620701 1.85386
-0.329001 0.625 2.26759
6.00481e-05 0.298641 1.8107
0 0.475596 2.3013
-0.843759 0.453959 1.4666
-0.326822 0.292323 1.4543
0.000118838 0.816343 -1.71166
0.000480875 0.581536 -2.18915
-0.868392 0.667785 -1.35174
-0.405244 0.863201 -1.33526
-4.95339e-07 0.989623 1.86522
0 0.781623 2.23116
-0.843665 0.79971 1.49132
-0.356936 1.08327 1.5037
0.816514 0.472127 -1.74294
0.349284 0.445 -2.30705
0.812947 0.350448 -1.38464
0.324239 0.186494 -1.40112
0.808646 0.620754 1.85427
0.329233 0.625 2.26829
0.843521 0.453897 1.4668
0.327306 0.292321 1.45442
0.868213 0.667826 -1.35171
0.405497 0.863192 -1.33525
0.843745 0.799845 1.49144
0.357041 1.08317 1.50374
-0.868857 0.362119 0.04096
-0.327514 0.228564 0.02658
-0.883549 0.526378 -1.01231
-0.898151 0.567079 -0.300521
0.00108795 0.187905 -1.04419
0.000773246 0.199491 -0.330321
-0.897631 0.594229 0.411271
-0.877205 0.612103 1.12306
0.000417877 0.206282 0.383551
0.000180144 0.259646 1.09742
-0.871127 0.770638 0.0697899
-0.470742 1.26513 0.0842187
7.35123e-05 0.881634 -0.980384
3.76416e-05 1.2076 -0.27064
1.12263e-05 1.29334 0.439105
-1.48602e-06 1.18506 1.14885
0.868966 0.362495 0.0410787
0.328851 0.228574 0.02665
0.883818 0.526382 -1.01226
0.898153 0.567135 -0.30044
0.897602 0.594388 0.411385
0.877195 0.612261 1.12321
0.870337 0.770244 0.0698662
0.470827 1.26515 0.0842462
-0.794303 0.340232 -1.75035
-0.855656 0.367847 -1.02827
-0.880762 0.694781 -0.996355
-0.839882 0.613893 -1.71638
0.788277 0.340224 -1.7505
0.836724 0.613913 -1.71653
0.881055 0.694781 -0.996317
0.855799 0.367864 -1.02821
-0.312168 0.191254 -1.76394
0.314913 0.192414 -1.76392
0.326373 0.213368 -1.04418
-0.324177 0.213305 -1.04421
-0.380116 0.813109 -1.7009
-0.403475 0.865412 -0.980391
0.403653 0.883403 -0.980377
0.380385 0.813818 -1.70089
-0.324951 0.324134 -2.24184
-0.351151 0.570768 -2.15312
0.352278 0.570768 -2.15317
0.327436 0.324134 -2.24195
-0.865769 0.351522 -0.31545
-0.870817 0.372293 0.39737
-0.869966 0.790052 0.425172
-0.87922 0.755855 -0.285592
0.865942 0.35193 -0.315351
0.879263 0.755828 -0.285528
0.86996 0.790083 0.425261
0.870911 0.372699 0.397509
-0.324705 0.22121 -0.33035
0.32637 0.22115 -0.330292
0.328211 0.238786 0.383592
-0.327237 0.238781 0.38351
-0.47116 1.19087 -0.270651
-0.469517 1.27575 0.439089
0.469575 1.27577 0.439121
0.471244 1.19084 -0.270628
-0.858784 0.440109 1.11019
-0.806938 0.46448 1.83251
-0.787961 0.787355 1.8562
-0.867555 0.79453 1.13594
0.858774 0.440261 1.11037
0.867456 0.794625 1.13605
0.788146 0.787422 1.85645
0.807118 0.464449 1.83284
-0.332312 0.282178 1.09737
0.332794 0.282162 1.09748
0.324903 0.300707 1.81106
-0.324661 0.300687 1.81093
-0.369119 1.17404 1.14883
-0.327218 0.989399 1.86188
0.32727 0.989399 1.86193
0.369169 1.17401 1.14887
-0.325751 0.475298 2.31257
0.325866 0.475298 2.31258
0.313366 0.778311 2.22796
-0.313251 0.778311 2.2284
-0.63243 0.2725 -2.11907
-0.454633 0.201606 -2.12839
-0.61256 0.215297 -1.93654
-0.660716 0.4 2.19572
-0.48375 0.345089 2.14804
-0.6535 0.31032 1.98963
-0.717897 0.6175 -2.07446
-0.532554 0.692694 -2.06269
-0.759125 0.739219 -1.86757
-0.622984 0.85 2.22948
-0.44625 0.932009 2.22043
-0.635236 0.950023 2.03598
0.457631 0.201903 -2.1281
0.635148 0.2725 -2.11913
0.615429 0.215301 -1.93653
0.48375 0.344118 2.14922
0.660671 0.4 2.19593
0.653632 0.310312 1.9899
0.532837 0.693993 -2.06399
0.718149 0.6175 -2.07409
0.758805 0.738628 -1.86756
0.44625 0.932763 2.22127
0.623106 0.85 2.22973
0.636033 0.950808 2.03608
-0.645398 0.21954 -0.865766
-0.654383 0.222915 -0.508841
-0.824092 0.246105 -0.679582
-0.487734 0.215998 -0.687292
-0.658486 0.268253 0.918856
-0.668393 0.245986 0.561931
-0.83852 0.281486 0.747087
-0.503599 0.242464 0.740417
-0.812259 0.883633 -0.802964
-0.849345 0.81754 -0.633252
-0.798058 0.899859 -0.448096
-0.648545 1.02537 -0.625526
-0.755034 0.978541 0.971374
-0.819208 0.891933 0.787247
-0.768502 0.961582 0.616506
-0.638895 1.17553 0.793949
0.647512 0.21955 -0.865684
0.48967 0.216002 -0.687222
0.656258 0.222914 -0.508736
0.824604 0.246653 -0.679496
0.656977 0.270636 0.919054
0.504341 0.242329 0.740557
0.669505 0.245998 0.562106
0.838996 0.281865 0.747259
0.812441 0.883614 -0.802932
0.648685 1.02538 -0.625498
[...]
POINT_DATA 3682
SCALARS point_scalars float 1
LOOKUP_TABLE default
-102.97
-36.209
-10.263
-30.3635
-110.51
-36.0513
-8.84277
-30.3335
-36.8066
-38.679
-57.8992
-47.7303
-36.7734
-38.7257
-58.0645
-47.7071
-5.95935
-77.2662
-37.9405
-40.5746
-37.2972
-29.2644
-28.0218
90.033
-68.1553
-40.3781
-38.9797
-36.2153
-29.5578
-27.7386
83.3996
-55.8909
-45.2105
-42.0594
-33.9628
-29.8501
-27.7386
5.57164
-42.6096
-79.9174
-52.0643
-33.5125
-30.5625
-29.7577
73.3235
-163.136
-36.7145
-38.7072
-34.6683
-28.0188
-27.1088
174.101
-27.4734
-27.0041
179.967
-27.4434
-26.8395
109.503
-41.1155
-58.6295
-61.0705
-30.0851
-29.5621
-28.2317
71.6854
-142.62
-36.8009
-38.8069
-34.4523
-27.9095
-26.9905
174.044
-27.3665
-26.7165
172.301
-27.4214
-26.7189
108.828
-41.3063
-58.6195
-61.0455
-30.0497
-29.6227
-28.0548
8.77935
-81.3565
-37.7773
-41.4609
-37.1852
-29.2883
-27.9212
90.2109
-71.8587
-40.5228
-39.0535
-36.1771
-29.4338
-27.6482
82.9306
-57.0281
-45.3095
-42.029
-33.8969
-29.7457
-27.6482
4.99764
-43.2882
-77.8233
-51.9742
-34.0323
-30.5503
-29.6559
-21.3306
-111.939
-49.6812
-29.8568
-29.1115
-32.2284
-49.7434
-36.1667
-27.4369
-41.875
-22.1177
-49.1631
-29.7418
-32.1071
-36.0336
-41.8246
-34.3691
-41.3006
-36.0904
-39.9555
-37.3316
-52.2142
5.18378
-62.1343
-35.086
-41.4725
-39.9445
-52.1831
-42.8065
-42.3502
-53.7422
-17.3386
206.521
-39.9583
-40.0187
-33.7759
-89.1026
-40.6336
-40.5523
-30.8939
-38.2232
-22.9197
-24.7672
-149.811
-74.5921
-31.5251
-31.9177
-34.9218
11.5126
9.44472
-41.0766
-29.583
-27.5253
-34.6345
-147.648
-27.4983
-73.6096
-31.7019
-31.4914
-34.8415
10.1119
10.0065
-41.0002
-27.4728
-29.4725
-34.5823
-40.1729
-34.5212
-40.0631
-35.7733
-33.8922
-35.6179
-38.963
-36.6394
-30.6959
-44.9631
-55.3254
0.411
-45.6618
-43.264
-50.5372
-60.5766
-40.0399
-35.749
-34.4528
-40.1735
-33.8011
-36.6683
-35.7971
-39.0167
-30.6415
0.361761
-45.0809
-55.2594
-45.641
-60.5558
-43.2295
-50.5004
-73.0145
186.999
-75.1922
156.983
-46.0653
-52.7172
-38.8295
-26.1253
-31.2219
-21.4028
-38.1484
-30.9316
-36.4448
125.474
-41.8834
-21.7223
-32.3112
-22.3984
-42.3185
-38.739
-71.0482
186.901
-44.7379
-52.8681
-38.7283
-25.9835
-38.049
-30.8669
-41.0197
-21.6348
-42.2759
-38.7209
-37.055
-34.0448
-40.2356
-41.0062
-43.2547
-33.707
-39.6309
-38.3678
-34.7579
-34.2466
-44.8999
-81.2732
6.62548
-54.4545
-78.7129
-47.8228
-37.2769
-34.0987
-40.6576
-41.0629
-39.6684
-38.2891
-44.8134
-81.2188
-77.8558
-36.6664
-41.2355
-64.6991
-75.1245
-64.2822
-41.2853
-35.8721
-72.0249
-72.0025
-42.5303
-42.5766
-39.301
0.713382
1.13245
-39.3738
146.197
100.069
100.286
144.451
-37.9781
-36.9963
-44.0324
-46.3865
-37.9998
-46.3877
-44.0176
-37.0764
-33.8838
-33.9043
-35.1018
-35.0431
-54.6685
-71.5041
-71.5245
-54.5225
-36.223
-39.365
-38.2209
-42.0373
-36.0983
-41.997
-38.1608
-39.2638
-34.087
-33.9643
-32.0221
-32.0751
-48.2491
-32.5259
-32.503
-48.2305
-26.3589
-26.1749
-25.3904
-25.5392
-43.8134
-152.275
-84.1809
-33.863
-33.5792
-34.9499
33.4772
29.4455
-40.3432
-30.2511
-28.2911
-32.7595
-152.856
-51.4567
-82.9194
-33.3719
-33.7191
-34.9458
30.7685
31.9356
-40.4821
-28.2082
-30.1267
-32.6855
-37.6864
-36.2313
-37.466
-35.8215
-37.7516
-35.6752
-40.4704
-37.8236
-45.1465
-49.5092
-56.4135
-26.5964
-46.8396
-45.4292
-48.6955
-55.2841
-37.635
-35.7892
-36.2785
-37.4182
-37.5356
-37.8382
-35.6868
-40.5015
-43.0286
-26.8189
-49.6732
-56.2775
-46.8156
-55.2444
-45.3974
-48.6776
-26.3246
-3.44925
-64.0416
138.411
-121.488
-120.895
-85.1653
-35.0025
-58.2932
-44.9811
-46.5359
-51.5266
-30.8319
-29.4844
-35.1554
-27.1943
-30.1696
-30.0618
-30.6196
-23.4963
-33.19
-32.1094
-36.7858
-31.4096
-22.979
-21.7595
-45.623
105.119
-43.9251
-31.6106
-42.0868
-27.3189
-27.3506
-27.3316
-29.9208
-24.788
-38.2918
-46.1485
-42.0666
-39.8135
-26.7926
-4.8508
-69.2074
138.583
-57.6103
-44.7201
-45.1332
-51.3506
-30.833
-29.372
-35.0544
-27.0966
-33.1532
-31.9001
-36.7111
-31.2802
-43.74
-31.586
-41.5838
-27.2606
-38.207
-46.0236
-42.0383
-39.7794
-35.1078
-34.4576
-35.0988
-34.279
-40.6031
-42.5836
-41.0457
-41.2394
-35.9419
-35.9432
-38.0524
-34.8392
-39.3428
-40.8237
-39.6403
-40.6619
-36.9569
-36.9741
-35.5576
-38.2683
-53.8473
-50.7068
-49.3729
-65.3047
4.20798
4.19213
16.7522
-25.4175
-61.7959
-61.7861
-71.4345
-54.1747
-34.9576
-34.5467
-36.4902
-34.3988
-40.8085
-42.7004
-41.3873
-41.3323
-39.3661
-40.8032
-39.6537
-40.596
-53.782
-50.6768
-49.2502
-65.2246
-53.744
-44.2942
-42.2794
-36.6125
-54.2888
-43.2523
-41.146
-33.1488
-61.8415
-53.5294
-53.4866
-48.5346
-29.3057
-18.5658
-18.5251
-6.52854
195.379
208.926
140.465
196.455
-38.3869
-40.7045
-39.7644
-41.9025
-38.4963
-40.754
-39.818
-41.9161
-34.0246
-33.7398
-34.0395
-34.0525
-87.9263
-82.5309
-84.6093
-87.9188
-41.3553
-39.1357
-41.9245
-38.9685
-41.2299
-39.0584
-41.8394
-38.8946
-31.0241
-30.8663
-30.8357
-31.4104
-34.9236
-38.3444
-38.3356
-42.5143
-24.2513
-20.2278
-23.0892
-24.1353
-65.3238
111.503
-85.6193
100.631
-79.9266
-72.117
-35.8216
-27.8666
-32.0685
-28.3902
-40.3535
-33.0574
-58.0975
96.5868
-45.8261
97.408
-56.8697
-39.7819
-34.5227
-26.7269
-29.9402
-26.3875
-36.99
-32.9428
-85.306
104.156
-70.9697
113.254
-76.3437
-71.7699
-31.9585
-28.1629
-35.7214
-27.7475
-40.2074
-32.9567
-46.4294
97.7132
-59.8093
96.5872
-57.0526
-39.6187
-29.9112
-26.3491
-34.4447
-26.6406
-36.9489
-32.9044
-34.3576
-42.2764
-35.1776
-34.0751
-40.7928
-38.6657
-37.6269
-34.9679
-35.5348
-33.9165
-35.369
-35.3635
-37.8421
-40.2776
-35.6465
-37.7472
-39.8624
-6.63087
-39.3674
-45.9219
-51.3231
-77.838
10.2611
-30.1847
-43.7466
-49.5246
-43.5072
-42.173
-47.3054
-58.742
-67.0192
-54.225
-33.3507
-42.1443
-37.6062
-34.9719
-35.0848
-34.0571
-41.4384
-38.7654
-35.409
-33.8457
-35.6502
-37.8129
-35.7079
-35.4341
-37.8787
-40.0945
-39.8528
-6.70136
10.1
-30.1571
-39.4235
-45.9525
-51.2532
-77.5152
-43.7007
-49.548
-66.9978
-54.204
-43.5069
-42.1308
-47.2734
-58.6259
-73.8457
-70.1467
154.509
155.802
-73.8831
-73.8218
139.62
142.519
-56.4721
-38.0007
-60.5346
-48.1086
-39.1643
-38.7117
-25.5466
-25.8571
-31.3983
-31.4323
-23.7845
-23.6089
-36.8225
-39.8283
-31.2426
-31.2963
-37.881
-37.7789
106.865
107.21
-37.8553
-53.1808
-32.8993
-10.9774
-32.374
-32.3636
-23.372
-23.4933
-40.8444
-43.1454
-42.8989
-35.1859
-72.4076
-69.1363
156.805
157.272
-56.1363
-37.2096
-60.0917
-48.0179
-38.64
-39.0783
-25.3577
-25.7231
-36.7899
-39.7604
-31.2342
-31.2441
-53.771
-37.0519
-10.9676
-32.7874
-42.9811
-40.7774
-35.2062
-42.8812
-37.6408
-37.0066
-33.8974
-34.2409
-38.3117
-41.0965
-39.3096
-43.0672
-43.1639
-43.1841
-33.7007
-33.722
-38.2732
-41.1612
-37.1572
-39.8845
-34.8701
-34.8465
-34.4888
-34.389
-44.421
-46.0865
-79.7252
-76.105
5.00585
4.98138
-54.5163
-54.4202
-77.1045
-77.1077
-47.9351
-47.9271
-37.6709
-37.1405
-33.9251
-34.3043
-41.4535
-38.0146
-39.3683
-43.102
-41.1741
-38.3313
-37.0782
-39.8269
-46.0867
-44.4396
-76.0518
-79.7207
-71.0772
-56.9959
-55.0306
-63.0987
-40.539
-41.5343
-37.625
-40.1476
-43.2866
-37.2551
-37.0918
-39.4557
-53.4147
-63.7054
-52.6363
-52.4492
-74.3653
-69.8345
-54.9329
-57.1765
-54.1395
-52.3878
-53.3301
-67.0237
-43.0245
-39.6311
-35.1527
-36.8544
-40.734
-39.3086
-35.0612
-42.1065
-83.8528
-86.2349
-61.1499
-59.2658
-83.8996
-58.9797
-61.078
-85.8545
-37.2458
-37.9186
-48.3106
-46.9794
-37.3026
-47.1137
-48.3408
-37.9414
-43.2308
-36.6688
-30.4683
-45.5667
-3.2895
14.7538
-7.81375
-17.9695
-2.30048
-18.0223
-7.7837
14.6983
-45.0887
-45.9777
-30.3482
-36.4265
83.3693
111.966
159.467
31.6854
87.1981
94.4753
148.127
138.071
87.4546
137.374
147.709
93.9066
82.5517
32.6713
160.689
112.871
-37.7704
-36.9207
-39.074
-39.8858
-36.7841
-38.6297
-38.2528
-35.9656
-46.1443
-47.996
-41.3448
-40.8512
-50.8669
-42.9247
-42.6905
-50.7914
-37.9273
-39.995
-39.1423
-36.766
-50.8157
-50.7159
-42.7171
-42.9914
-46.1336
-40.8551
-41.3788
-47.9852
-36.7312
-35.5216
-38.3401
-38.6656
-35.2527
-34.9971
-33.8217
-34.2481
-35.2428
-34.2599
-33.837
-34.9899
-35.3366
-35.6219
-34.22
-34.4328
-35.2693
-34.329
-34.1934
-35.6099
-61.2118
-70.6856
-82.603
-26.4467
-56.0262
-70.6827
-82.7946
-60.6831
-56.0417
-60.2971
-82.7921
-70.6775
-62.3392
-26.4179
-82.5922
-70.6541
-39.7021
-35.6114
-37.7318
-41.4619
-37.4216
-35.3521
-40.9658
-39.675
-33.7306
-39.97
-41.1195
-34.8786
-44.5443
-40.5548
-41.1921
-44.186
-39.5117
-41.2767
-37.6722
-35.5791
-44.526
-44.0618
-41.0985
-40.5013
-33.6661
-34.7784
-41.0248
-39.9072
-37.3172
-39.6243
-40.855
-35.2448
-37.3165
-38.092
-31.0406
-31.6257
-37.4423
-31.459
-31.0468
-38.1611
-33.4283
-30.9655
-30.9668
-31.7327
-33.4491
-31.7896
-30.9987
-31.0163
-52.7486
-44.4585
-42.5347
-54.2611
-30.4255
-29.9445
-35.0046
-36.0713
-30.3537
-36.0302
-34.9967
-29.9288
-52.7163
-54.2457
-42.519
-44.4314
-30.5952
-26.1852
-22.2919
-27.2949
-30.5386
-27.2035
-22.0686
-26.02
-27.1829
-25.4034
-23.985
-26.7442
-27.3066
-26.8296
-24.1152
-25.4152
-74.0609
-146.838
-119.588
-35.7686
-34.5311
-34.508
12.9314
34.9565
-44.3654
-30.8892
-29.0559
-31.1367
-144.497
-83.86
-114.674
-34.3125
-35.6454
-34.3476
35.2399
10.1891
-45.6025
-28.9977
-30.7746
-31.2466
-37.1003
-37.3311
-35.5553
-36.0966
-39.436
-37.1757
-40.5463
-38.223
-58.8204
-52.9672
-56.5524
-63.0963
-47.2337
-46.8787
-48.1915
-50.1761
-37.0507
-36.0565
-37.3671
-35.1341
-39.6181
-38.183
-37.2403
-40.9913
-59.4281
-63.8669
-53.0954
-56.3597
-47.2215
-50.1497
-46.8523
-48.1707
-21.3776
-13.773
-57.688
89.1003
-113.237
-113.06
-101.645
-79.5697
-53.3414
-46.9836
-49.0142
-50.5728
-30.2181
-29.7528
-33.6661
-27.8033
-29.3721
-29.3115
-30.0927
-25.0406
-32.3753
-32.2225
-35.0193
-32.1025
-42.2887
-48.8487
-47.3968
66.1957
-43.0049
-34.7265
-40.1157
-30.83
-27.3405
-27.3323
-28.6502
-25.8946
-39.6322
-44.0807
-41.8221
-41.3537
-22.7609
-14.4878
-60.0692
87.94
-52.7042
-46.5766
-48.1451
-50.2457
-30.1106
-29.635
-33.5684
-27.7146
-32.3618
-32.0326
-34.9736
-31.8496
-42.8658
-34.618
-39.835
-30.7668
-39.5821
-44.0195
-41.7998
-41.3161
-35.2748
-34.5954
-33.969
-34.4564
-40.7437
-41.923
-41.5735
-41.2248
-36.0467
-36.0436
-36.8611
-35.7921
-39.6252
-40.3063
-39.7321
-40.0995
-37.2056
-37.2004
-36.1664
-39.1221
-52.859
-50.9532
-50.6568
-57.6905
4.70678
4.71367
13.6005
-8.07227
-62.0469
-62.0428
-66.8747
-58.2584
-35.3448
-34.8389
-35.7974
-34.6848
-40.9402
-42.0681
-41.7759
-41.3577
-39.6293
-40.2889
-39.7409
-40.0613
-52.8179
-50.946
-50.6373
-57.6482
-47.1767
-43.4721
-41.1532
-41.1764
-47.6109
-42.46
-41.3541
-38.426
-57.2694
-53.794
-53.7538
-50.8662
-22.8142
-17.6219
-17.5892
-12.4506
196.294
208.222
176.907
196.047
-39.0406
-40.2958
-39.8646
-40.8125
-39.1243
-40.3522
-39.9205
-40.8503
-33.9152
-34.3153
-33.4557
-33.9299
-89.0774
-90.1003
-87.4237
-89.0747
-41.195
-39.8306
-41.6099
-39.7438
-41.17
-39.7551
-41.5428
-39.6663
-30.9748
-30.9298
-30.9084
-31.1485
-36.4301
-38.2731
-38.2682
-40.2253
-23.3498
-19.9016
-22.8857
-23.2589
-28.9208
-27.6007
-70.5552
63.8271
-152.302
-133.772
-109.515
-62.6965
-79.2528
-65.0614
-81.0885
-72.6109
-32.2648
-31.4272
-34.1786
-28.8396
-33.1876
-30.9742
-32.2222
-29.748
-34.3492
-33.9318
-39.8215
-33.5625
17.868
2.50049
-64.5439
81.5868
16.7295
-9.27051
-57.229
56.526
-44.8194
-47.1599
-51.4462
-40.8398
-29.777
-29.5203
-33.1076
-27.6926
-27.9848
-27.3646
-28.6762
-26.8601
-33.8983
-36.2292
-36.1667
-33.3096
-150.462
-132.145
-109.2
-86.659
-34.5566
-28.2059
-72.6731
69.6037
-77.6843
-64.3702
-77.3735
-72.0049
-32.8345
-30.8353
-32.0824
-29.5136
-32.1678
-31.1712
-34.0585
-28.7224
-34.3388
-33.8514
-39.8541
-33.398
16.4278
-16.1724
-57.9426
56.3374
16.3092
1.93748
-66.0979
80.6732
-44.7793
-47.0658
-51.7341
-40.7386
-27.8625
-27.3258
-28.6407
-26.7833
-29.6719
-29.4086
-32.9909
-27.5458
-34.237
-36.0912
-36.1766
-33.2903
-37.8391
-44.0066
-34.5644
-41.7057
-35.0654
-34.7368
-33.301
-34.2712
-39.6571
-40.2525
-40.3198
-39.2355
-35.9213
-35.8351
-36.6525
-35.6128
-35.085
-32.5576
-34.3977
-33.9313
-36.2115
-35.1741
-35.066
-35.6119
-38.5176
-39.1783
-38.4018
-40.4858
-37.2255
-36.5808
-35.4835
-38.7975
-33.3457
-30.2707
-38.7862
-13.6463
-46.7042
-43.6243
-44.2538
-45.5473
-56.2251
-54.4585
-53.3133
-64.7151
-6.27847
3.40395
7.59512
-12.8918
-46.4984
-45.4144
-45.0009
-49.1173
-44.236
-41.8394
-43.4638
-42.6234
-49.1317
-51.5113
-49.4299
-53.917
-59.974
-61.3422
-64.0755
-57.0856
-37.7449
-43.8414
-34.2064
-41.5937
-35.8976
-35.7929
-36.641
-35.5904
-35.0796
-34.575
-33.1494
-34.2257
-39.8323
-40.4145
-40.9338
-39.3574
-34.7373
-32.3756
-34.2482
-33.8915
-37.2505
-36.6105
-35.5064
-38.7831
-36.2234
-35.348
-35.6638
-35.7058
-38.5571
-39.2211
-38.4482
-40.6379
-33.8829
-30.1916
-38.574
-13.8454
-6.2663
3.35034
7.53026
-12.9205
-46.8559
-43.7349
-44.3556
-45.6195
-56.122
-54.3908
-53.2404
-64.5624
-46.466
-45.3627
-44.9678
-49.0703
-59.9572
-61.3237
-64.0545
-57.0606
-44.2047
-41.8139
-43.4546
-42.585
-49.1041
-51.4653
-49.3922
-53.8895
-74.206
-62.1214
-73.2142
-71.5601
167.367
200.533
176.309
181.094
-78.3517
-67.3725
-74.6693
-74.7121
85.738
194.937
153.268
152.511
-46.1808
-45.993
-51.1168
-41.1087
-52.2983
-53.3824
-55.8324
-50.2252
-37.2994
-40.3725
-38.9923
-38.7673
-26.6139
-25.2587
-25.7317
-25.9637
-31.0017
-31.2672
-31.2661
-31.2782
-21.7644
-21.4585
-22.1663
-22.0336
-37.7109
-38.5803
-37.334
-38.6665
-31.1139
-30.8457
-31.0242
-31.0066
-40.623
-33.9648
-36.9329
-36.8319
123.893
113.317
118.248
118.354
-42.0347
-42.0954
-39.5939
-45.9254
-24.2533
-19.8287
-27.2365
-16.5128
-31.2329
-33.4467
-32.3314
-32.3267
-22.9935
-22.4932
-22.4881
-22.642
-42.2937
-42.023
-41.8723
-43.0423
-39.214
-38.4838
-40.8299
-36.8661
-75.1503
-62.5706
-71.7221
-70.1992
168.066
199.718
181.584
176.104
-44.7548
-44.3127
-49.3829
-40.7882
-52.1964
-53.3199
-55.9547
-50.1143
-37.203
-40.2523
-38.7261
-38.9482
-26.5575
-25.115
-25.5577
-25.8478
-37.6205
-38.4955
-37.2913
-38.5659
-31.026
-30.7999
-30.961
-30.9501
-41.3698
-40.9013
-45.7033
-38.641
-24.1323
-19.7922
-16.4605
-27.1534
-42.2538
-41.9465
-42.9276
-41.8116
-39.1817
-38.4699
-36.8467
-40.8117
-36.2735
-37.6946
-37.3449
-36.971
-34.1189
-34.0133
-34.1534
-33.9325
-40.2026
-36.4209
-40.2234
-40.1792
-41.0737
-40.9772
-40.02
-41.9523
-39.6834
-47.2886
-43.1667
-43.1787
-33.9304
-33.6104
-33.718
-33.7292
-39.6906
-39.6453
-38.8911
-40.3277
-39.7729
-38.5815
-37.7379
-39.0554
-35.1407
-34.335
-34.8026
-34.7897
-36.3679
-32.3836
-34.7986
-34.7742
-46.5184
-43.2296
-44.1476
-45.9865
-75.2792
-85.4973
-81.8585
-79.1002
13.5079
0.891636
5.97074
5.96941
-38.8509
-69.747
-54.7328
-54.6925
-75.3837
-81.3813
-78.2808
-78.284
-51.01
-44.9325
-47.8067
-47.8016
-36.7835
-37.8458
-37.4972
-37.1282
-34.1914
-34.051
-34.1951
-33.995
-40.7829
-34.9693
-40.6388
-40.5879
-41.1503
-41.0218
-40.0879
-41.9977
-39.7066
-39.6941
-40.3506
-38.9456
-39.6834
-38.513
-37.6581
-38.9834
-46.4144
-43.2012
-46.0399
-44.0807
-75.14
-85.4708
-79.0566
-81.8041
-77.7643
-78.6888
-75.9121
-65.104
-36.3629
-42.4026
-32.9638
-36.67
-40.0042
-36.391
-38.3963
-41.4705
-62.0665
-60.2937
-68.6751
-60.1387
-80.809
-74.7027
-74.284
-62.9627
-63.6765
-60.3845
-67.8324
-59.9865
-40.3339
-36.4192
-37.8994
-41.9401
-35.3537
-42.7032
-31.3952
-36.0967
-77.5073
-72.1013
-72.3651
-65.519
-77.2814
-71.9003
-72.3212
-65.3237
-42.4041
-39.2657
-46.911
-42.7735
-42.4591
-39.2916
-46.9272
-42.812
-43.6446
-39.4431
-38.8315
-37.4833
-2.65069
6.38422
-4.18676
3.16591
-3.63646
6.17178
-4.18165
3.60701
-43.8838
-39.5036
-38.7977
-37.4785
136.4
142.059
147.815
148.907
94.4931
105.346
101.53
101.777
105.48
94.7849
102.1
100.132
139.263
135.312
148.392
147.395
-37.2369
-38.1697
-37.827
-38.6399
-36.3807
-37.3449
-36.9686
-37.7298
-43.6851
-45.6074
-42.2225
-44.4805
-46.2644
-48.3616
-44.6765
-46.4128
-37.2143
-38.2383
-37.821
-38.6838
-46.282
-48.3402
-44.6961
-46.4028
-43.674
-45.5836
-42.2229
-44.4766
-36.4632
-37.394
-37.0984
-37.7944
-33.9729
-34.0407
-33.9565
-33.7942
-34.0584
-33.9785
-33.8142
-33.9788
-35.5096
-35.0495
-34.922
-35.2478
-34.9876
-35.479
-35.1936
-34.8867
-61.6654
-43.4575
-68.4303
-53.5373
-65.2836
-69.7106
-73.1558
-74.9827
-69.676
-65.0924
-74.9881
-73.2816
-43.3836
-61.422
-53.4309
-68.3726
-35.7953
-37.6961
-36.7801
-36.7118
-37.8852
-39.5168
-39.252
-40.3352
-36.6051
-37.6342
-38.4982
-39.4724
-43.4189
-41.8196
-42.2223
-40.816
-35.6638
-37.4602
-36.7232
-36.6266
-43.3668
-41.7777
-42.1561
-40.764
-36.5255
-37.5752
-38.4215
-39.4078
-37.7845
-39.425
-39.1518
-40.2203
-33.951
-35.8942
-32.1924
-34.0344
-33.8792
-35.8195
-32.1692
-33.8122
-31.9936
-32.4408
-31.6624
-31.7498
-32.0616
-32.4993
-31.7071
-31.8007
-48.6057
-50.9274
-45.403
-48.025
-31.3006
-32.6928
-32.4445
-33.8177
-31.2751
-32.666
-32.4284
-33.7961
-48.6854
-50.9082
-45.3888
-48.0116
-27.2666
-27.1985
-25.8039
-24.6591
-27.0235
-27.136
-24.5456
-25.6133
-25.7174
-26.0092
-24.3476
-25.4831
-26.0667
-25.7415
-25.6313
-24.4928
-80.7254
22.2427
-109.499
-43.1015
-77.3771
-82.8763
-36.0941
-31.6522
-34.9712
-31.4022
-37.7714
-34.1354
-57.867
92.6551
-47.33
77.8699
-47.4047
-39.9502
-32.4988
-28.1418
-29.5293
-27.7864
-33.5498
-31.1398
-109.665
-40.5084
-86.2188
47.9115
-81.0531
-82.9304
-34.7633
-31.3482
-35.9831
-31.5423
-37.6659
-34.2441
-47.1862
79.5626
-59.0363
92.23
-47.7936
-39.987
-29.4478
-27.586
-32.4117
-27.9159
-33.4546
-31.0671
-38.4501
-37.4676
-37.4294
-35.6116
-40.3133
-38.809
-36.015
-36.0719
-39.2077
-36.7442
-36.5842
-35.4518
-38.7622
-38.6411
-36.1171
-38.986
-47.7584
-24.8051
-48.5492
-49.9173
-53.6395
-72.2123
-9.56079
-38.4887
-46.0262
-48.5461
-45.8472
-44.9113
-47.6754
-51.5168
-54.9465
-53.041
-38.4644
-37.4107
-35.9643
-36.0575
-37.6007
-35.6111
-40.2516
-38.914
-39.03
-36.9512
-36.119
-38.9313
-36.4089
-35.3584
-38.7232
-39.0203
-47.2894
-23.2028
-8.86086
-38.1415
-48.8463
-49.9545
-53.5363
-72.0601
-46.0133
-48.5185
-54.9286
-52.9781
-45.8256
-44.8874
-47.6676
-51.4849
-57.8824
75.7995
-61.5011
97.0971
-63.5311
-64.9597
128.055
140.692
-102.851
-65.6732
-102.568
-70.8145
-86.1077
-85.5413
-12.6455
-16.5392
-57.616
-58.612
-43.2753
-46.2039
-51.0162
-41.9137
-54.8851
-48.9977
-33.6765
-28.1279
-33.4574
-27.6795
-35.2505
-35.0546
-27.0497
-27.0161
-30.8655
-27.7794
-30.7922
-27.6245
-30.7053
-30.7293
-24.1835
-24.0461
-38.8454
-32.3009
-34.2576
-31.8105
-36.3581
-37.5495
-31.4978
-31.1287
-51.1958
54.1635
-51.7154
54.0228
-45.7457
-45.4827
98.2038
98.8156
-51.7299
-40.0441
-36.9314
-22.1736
-39.4304
-46.5786
-32.1567
-22.424
-28.6046
-26.1783
-28.5884
-26.132
-29.9359
-29.9276
-24.886
-25.0525
-39.1822
-37.0497
-45.1998
-46.3446
-41.1506
-43.6239
-42.1599
-37.9352
-59.6734
72.4818
-63.9541
95.998
-69.8274
-69.0659
140.843
129.038
-57.6028
-58.1539
-42.4455
-46.0207
-49.9316
-41.4665
-54.6704
-48.8426
-33.5689
-28.0298
-33.3402
-27.5874
-34.9519
-35.1299
-26.9638
-26.9006
-38.8459
-32.272
-34.1822
-31.5652
-36.3301
-37.4153
-31.3627
-31.063
-51.5999
-39.8054
-36.6191
-22.4734
-46.2175
-38.9071
-22.4544
-31.999
-39.1196
-36.9521
-45.0653
-46.2967
-43.5182
-41.0992
-37.8977
-42.1269
-36.7918
-34.5486
-35.7203
-34.4191
-37.1662
-36.7072
-34.5219
-34.0285
-41.3666
-40.2034
-42.4856
-42.761
-41.0831
-40.9296
-40.4537
-42.0214
-36.6479
-35.7479
-36.6303
-35.744
-38.0002
-38.0123
-34.8964
-34.8874
-38.9093
-40.0292
-40.8295
-40.6543
-39.1125
-40.1779
-41.4341
-40.2115
-36.1605
-38.3368
-36.1546
-38.3503
-35.7076
-35.7016
-37.7519
-37.7628
-52.2381
-60.58
-49.1161
-54.8184
-48.6755
-49.9191
-68.0007
-62.6593
12.3254
-8.63529
12.2972
-8.63755
16.4431
16.4348
-25.7523
-25.7586
-66.4443
-57.8796
-66.4398
-57.94
-71.3007
-71.2985
-54.2877
-54.2836
-36.1688
-34.5176
-34.9427
-34.5483
-36.7178
-37.2013
-34.5896
-34.1499
-41.6513
-40.3526
-42.6036
-42.8522
-41.1914
-41.5166
-40.5569
-42.1016
-38.938
-40.0695
-40.8252
-40.6151
-40.188
-39.133
-41.3367
-40.1639
-52.151
-60.519
-49.0941
-54.809
-50.0022
-48.6895
-62.5753
-67.9568
-54.0199
-53.0898
-49.5898
-41.5546
-39.9756
-46.0566
-36.4038
-36.746
-54.7151
-53.5653
-48.1622
-39.0612
-46.5609
-38.1264
-33.7364
-33.1485
-61.7717
-61.7521
-57.0588
-50.7236
-56.9843
-50.6828
-48.4257
-48.4764
-29.5799
-29.5215
-24.0034
-13.7107
-13.6749
-23.8932
-7.00943
-6.98358
189.14
190.307
194.14
194.865
139.959