# vtk DataFile Version 2.0
tet_velo
ASCII
DATASET UNSTRUCTURED_GRID
POINTS 29498 float
-0.647043 0.125 -1.885
-0.745 0.195 1.90641
-0.655 0.435 -1.93121
-0.714953 0.755 1.955
0.647043 0.125 -1.885
0.745 0.195 1.90633
0.655 0.435 -1.93121
0.714684 0.755 1.955
-0.724761 0.103268 -0.621197
-0.782256 0.101758 0.642607
-0.825793 0.692475 -0.635807
-0.80156 0.754925 0.659597
0.724762 0.103267 -0.621223
0.782135 0.10188 0.642553
0.82574 0.692512 -0.635807
0.801347 0.754892 0.659597
-1.41072 -0.215988 -2.90354
-1.40872 -0.143277 -1.87985
-1.47268 -0.157166 -0.616862
-1.52285 -0.177529 0.639763
-1.51123 -0.120869 1.90221
-1.50474 -0.070891 2.92328
-1.50761 -0.0263412 3.94921
-1.40397 0.0126535 -2.91528
-1.40507 0.11564 -1.88813
-1.49215 0.130977 -0.618998
-1.53541 0.118467 0.647296
-1.49957 0.173934 1.91583
-1.49777 0.222653 2.93735
-1.50594 0.266535 3.96224
-1.41016 0.423014 -2.94763
-1.4269 0.523533 -1.9218
-1.55884 0.69975 -0.631117
-1.55848 0.746634 0.661803
-1.48993 0.760796 1.95188
-1.49482 0.806089 2.9721
-1.50938 0.853406 3.99191
-1.44086 1.20689 -2.97239
-1.46094 1.32579 -1.94182
-1.52131 1.5083 -0.640891
-1.55552 1.62869 0.66685
-1.54821 1.68022 1.96745
-1.53864 1.71214 2.99734
-1.53593 1.74953 4.0206
-0.692107 -0.212239 -2.90151
-0.669515 -0.135388 -1.87688
-0.715685 -0.170217 -0.617271
-0.764028 -0.190528 0.635752
-0.759031 -0.113022 1.89521
-0.753928 -0.0658633 2.91853
-0.75607 -0.0250693 3.94645
-0.687919 0.00649265 -2.91466
-0.74957 0.228827 2.93342
-0.755711 0.267934 3.96016
-0.688675 0.384739 -2.95155
-0.7459 0.805207 2.97272
-0.759587 0.852782 3.99203
-0.695823 1.18209 -2.97626
-0.701203 1.30315 -1.94608
-0.751086 1.50344 -0.643462
-0.789747 1.63291 0.667152
-0.791057 1.68197 1.96964
-0.784226 1.71196 2.99953
-0.781897 1.74897 4.02219
0.690636 -0.212232 -2.90151
0.696391 -0.135384 -1.87689
0.745319 -0.170202 -0.617296
0.774056 -0.190446 0.635705
0.749577 -0.112991 1.89514
0.745853 -0.0658399 2.91848
0.745698 -0.0250444 3.94641
0.672559 0.00649781 -2.91466
0.739467 0.228842 2.93338
0.741458 0.267956 3.96012
0.683156 0.384745 -2.95155
0.727529 0.805217 2.9727
0.733678 0.8528 3.99201
0.770003 1.18211 -2.97627
0.791127 1.30317 -1.94608
0.791934 1.50346 -0.643469
0.759118 1.63292 0.667144
0.731426 1.68198 1.96963
0.725952 1.71198 2.99951
0.726283 1.74898 4.02217
1.40353 -0.21597 -2.90356
1.41477 -0.143259 -1.87987
1.48557 -0.157128 -0.616905
1.53256 -0.177419 0.639689
1.51307 -0.120793 1.90212
1.50255 -0.0708355 2.9232
1.50033 -0.0262892 3.94914
1.38487 0.0126697 -2.91529
1.39177 0.115657 -1.88815
1.48648 0.131003 -0.619034
1.53956 0.118577 0.647227
1.50643 0.173999 1.91573
1.49507 0.222698 2.93726
1.49517 0.266582 3.96217
1.40141 0.423032 -2.94764
1.41934 0.523555 -1.9218
1.55298 0.699783 -0.63113
1.55756 0.74665 0.661778
1.49089 0.760831 1.95184
1.48246 0.806122 2.97205
1.48674 0.853445 3.99186
1.50221 1.20692 -2.9724
1.52968 1.32582 -1.94183
1.55152 1.50832 -0.640906
1.53111 1.62871 0.66683
1.49878 1.68024 1.96742
1.48663 1.71217 2.99731
1.4837 1.74957 4.02056
-0.652141 0.28 -1.90923
0 0.127112 -1.88289
-0.69655 0.103486 -1.2531
-0.751582 0.475 1.95231
0 0.20645 1.89492
-0.782828 0.129179 1.27451
0 0.494507 -1.99072
-0.833189 0.65653 -1.28351
-0.000134498 0.853634 2.05363
-0.809388 0.806094 1.3073
0.650884 0.28 -1.90797
0.696601 0.103435 -1.25311
0.751541 0.475 1.95236
0.782798 0.129209 1.27444
0.833132 0.656518 -1.28351
0.809251 0.806181 1.3073
-0.752516 0.103505 0.010705
-0.86347 0.397871 -0.628502
2.10734e-07 0.106557 -0.62121
-0.868232 0.428341 0.651102
-6.08442e-05 0.101266 0.64258
-0.810015 0.720038 0.011895
-2.64461e-05 0.848334 -0.635807
-0.000106282 1.14346 0.659597
0.752517 0.103505 0.010665
0.864048 0.397889 -0.628515
0.868233 0.428386 0.651075
0.809909 0.720067 0.011895
-0.874012 0.338936 -1.2683
-0.854738 0.413106 0.0113
-0.877237 0.451671 1.2909
1.05367e-07 0.108285 -1.25311
-3.03168e-05 0.101386 0.010685
-3.04221e-05 0.118149 1.27448
0 0.28 -2.06252
-6.72489e-05 0.475 2.10225
-1.3223e-05 0.748199 -1.28351
-6.63639e-05 1.09175 0.011895
-0.00012039 1.02564 1.3073
0.87401 0.338945 -1.26831
0.85474 0.413137 0.01128
0.877246 0.451693 1.29087
-1.02605 0.12032 -1.88657
-0.658279 -0.00519418 -1.88094
-0.667481 0.0657463 -2.39983
-1.12229 0.184467 1.91112
-0.752016 0.0409889 1.90081
-0.747285 0.211913 2.41992
-1.04095 0.479267 -1.9265
-0.671838 0.40987 -2.44138
-0.678102 0.869076 -1.93864
-1.10244 0.757898 1.95344
-0.730427 0.780103 2.46386
-0.753005 1.21849 1.96232
0.671717 -0.00519204 -1.88094
0.659801 0.0657489 -2.39983
1.01941 0.120328 -1.88657
0.747289 0.0410044 1.90074
0.742234 0.211921 2.41985
1.12572 0.1845 1.91103
0.669078 0.409873 -2.44138
0.723063 0.869084 -1.93865
1.03717 0.479277 -1.92651
0.721107 0.780109 2.46385
0.723055 1.21849 1.96232
1.10279 0.757916 1.95342
-1.10846 0.117122 -0.620097
-0.720223 -0.0334748 -0.619234
-1.15883 0.110112 0.644951
-0.773142 -0.0443849 0.639179
-1.19231 0.696112 -0.633462
-0.788439 1.09796 -0.639635
-1.18002 0.750779 0.6607
-0.795654 1.19392 0.663375
0.73504 -0.0334673 -0.61926
1.10562 0.117135 -0.620129
0.778095 -0.0442834 0.639129
1.16085 0.110228 0.64489
0.808837 1.09798 -0.639638
1.18936 0.696147 -0.633469
0.780233 1.19391 0.66337
1.17945 0.750771 0.660687
-1.40972 -0.179632 -2.39169
-1.40734 -0.101667 -2.90941
-1.05141 -0.214114 -2.90252
-1.4407 -0.150222 -1.24835
-1.40689 -0.0138182 -1.88399
-1.03912 -0.139333 -1.87836
-1.49776 -0.167348 0.0114506
-1.48241 -0.0130948 -0.61793
-1.09418 -0.163692 -0.617067
-1.51704 -0.149199 1.27099
-1.52913 -0.0295313 0.64353
-1.14344 -0.184028 0.637758
-1.50798 -0.0958802 2.41275
-1.5054 0.0265322 1.90902
-1.13513 -0.116946 1.89871
-1.50617 -0.0486161 3.43625
-1.50126 0.0758808 2.93031
-1.12933 -0.0683772 2.92091
-1.50678 0.120097 3.95573
-1.13184 -0.0257053 3.94783
-1.40452 0.064147 -2.40171
-1.40706 0.217834 -2.93146
-1.04594 0.00957309 -2.91497
-1.44861 0.123309 -1.25357
-1.41598 0.319587 -1.90497
-1.51378 0.124722 0.0141489
-1.52549 0.415363 -0.625058
-1.51749 0.1462 1.28156
-1.54695 0.43255 0.65455
-1.49867 0.198293 2.42659
-1.49475 0.467365 1.93385
-1.50186 0.244594 3.44979
-1.4963 0.514371 2.95472
-1.12367 0.22574 2.93538
-1.50766 0.559971 3.97708
-1.13083 0.267235 3.9612
-1.41853 0.473274 -2.43472
-1.42551 0.814955 -2.96001
-1.04942 0.403877 -2.94959
-1.49287 0.611641 -1.27646
-1.44392 0.92466 -1.93181
-1.55866 0.723192 0.015343
-1.54007 1.10402 -0.636004
-1.52421 0.753715 1.30684
-1.557 1.18766 0.664327
-1.49237 0.783443 2.46199
-1.51907 1.22051 1.95966
-1.5021 0.829748 3.48201
-1.51673 1.25912 2.98472
-1.12036 0.805648 2.97241
-1.52266 1.30147 4.00626
-1.13448 0.853094 3.99197
-1.4509 1.26634 -2.4571
-1.06834 1.19449 -2.97433
-1.49112 1.41704 -1.29135
-1.08107 1.31447 -1.94395
-1.53842 1.56849 0.0129797
-1.1362 1.50587 -0.642177
-1.55186 1.65445 1.31715
-1.17264 1.6308 0.667001
-1.54342 1.69618 2.4824
-1.16963 1.68109 1.96855
-1.53729 1.73084 3.50897
-1.16143 1.71205 2.99844
-1.15892 1.74925 4.0214
-0.680811 -0.173814 -2.38919
-0.690013 -0.102873 -2.90808
-0.00073553 -0.212236 -2.90151
-0.6926 -0.152803 -1.24707
0.0134382 -0.135386 -1.87688
-0.739856 -0.180372 0.00924045
0.014817 -0.170209 -0.617284
-0.761529 -0.151775 1.26548
0.00501407 -0.190487 0.635729
-0.75648 -0.0894428 2.40687
-0.00472696 -0.113007 1.89518
-0.754999 -0.0454663 3.43249
-0.751749 0.0814816 2.92598
-0.00403755 -0.0658516 2.9185
-0.75589 0.121433 3.9533
-0.00518561 -0.0250569 3.94643
-0.688297 0.195616 -2.9331
-0.00767962 0.00649523 -2.91466
-0.75264 0.248381 3.44679
-0.747735 0.517017 2.95307
-0.00505124 0.228834 2.9334
-0.757649 0.560358 3.9761
-0.00712629 0.267945 3.96014
-0.692249 0.783416 -2.9639
-0.0027595 0.384742 -2.95155
-0.752744 0.828994 3.48238
-0.765063 1.25859 2.98613
-0.00918563 0.805212 2.97271
-0.770742 1.30087 4.00711
-0.0129546 0.852791 3.99202
-0.698513 1.24262 -2.46117
0.0370901 1.1821 -2.97626
-0.726144 1.4033 -1.29477
0.0449616 1.30316 -1.94608
-0.770416 1.56818 0.0118449
0.020424 1.50345 -0.643466
-0.790402 1.65744 1.3184
-0.0153145 1.63292 0.667148
-0.787642 1.69697 2.48459
-0.0298158 1.68197 1.96964
-0.783062 1.73047 3.51086
-0.0291369 1.71197 2.99952
-0.0278074 1.74897 4.02218
0.693514 -0.173808 -2.3892
0.681598 -0.102867 -2.90809
1.04708 -0.214101 -2.90253
0.720855 -0.152793 -1.24709
1.05558 -0.139322 -1.87838
0.759687 -0.180324 0.00920458
1.11545 -0.163665 -0.617101
0.761816 -0.151719 1.26543
1.15331 -0.183932 0.637697
0.747715 -0.0894156 2.40681
1.13133 -0.116892 1.89863
0.745776 -0.0454422 3.43245
0.74266 0.081501 2.92593
1.1242 -0.0683377 2.92084
0.743578 0.121456 3.95327
1.12302 -0.0256668 3.94778
0.677858 0.195621 -2.9331
1.02871 0.00958377 -2.91498
0.740463 0.248399 3.44675
0.733498 0.51703 2.95304
1.11727 0.22577 2.93532
0.737568 0.560378 3.97606
1.11831 0.267269 3.96115
0.72658 0.783426 -2.96391
1.04228 0.403888 -2.9496
0.730604 0.829008 3.48235
0.726741 1.2586 2.98611
1.10499 0.80567 2.97238
0.72998 1.30089 4.00709
1.11021 0.853122 3.99193
0.780565 1.24264 -2.46118
1.1361 1.19451 -2.97433
0.79153 1.40331 -1.29478
1.1604 1.31449 -1.94396
0.775526 1.56819 0.0118374
1.17173 1.50589 -0.642188
0.745272 1.65745 1.31839
1.14511 1.63081 0.666987
0.728689 1.69698 2.48457
1.1151 1.68111 1.96853
0.726117 1.73048 3.51084
1.10629 1.71207 2.99841
1.10499 1.74928 4.02137
1.40915 -0.179614 -2.39171
1.3942 -0.10165 -2.90942
1.45017 -0.150193 -1.24839
1.40327 -0.0138012 -1.88401
1.50907 -0.167273 0.011392
1.48603 -0.0130624 -0.61797
1.52282 -0.149106 1.2709
1.53606 -0.0294208 0.643458
1.50781 -0.0958143 2.41266
1.50975 0.0266031 1.90893
1.50144 -0.0485624 3.43617
1.49881 0.0759313 2.93023
1.49775 0.120146 3.95566
1.38832 0.0641632 -2.40172
1.39314 0.217851 -2.93147
1.43913 0.12333 -1.25359
1.40556 0.319606 -1.90497
1.51302 0.12479 0.0140965
1.51973 0.415393 -0.625082
1.52299 0.146288 1.28148
1.54856 0.432613 0.654503
1.50075 0.198349 2.4265
1.49866 0.467415 1.93379
1.49512 0.24464 3.44972
1.48876 0.51441 2.95466
1.49096 0.560013 3.97702
1.41037 0.473293 -2.43472
1.45181 0.814977 -2.96002
[...]
POINT_DATA 29498
VECTORS point_vectors float
-2.70124 -6.09225 9.95668
0.214463 0.480955 1.69908
-3.68603 0.677606 4.517
0.0336538 -0.179255 0.485302
2.76108 -5.97986 9.66615
-0.21457 0.485353 1.71174
3.71272 0.697729 4.56051
-0.0352844 -0.179759 0.522962
-0.00145184 0.000103066 0.0306955
0.00878599 -0.00211913 0.148888
-0.0173429 -0.0408135 0.154246
0 0 0
0.00149135 3.36338e-05 0.0314651
-0.00832045 -0.00207273 0.145249
0.0176349 -0.0414199 0.156052
0 0 0
-0.567328 -0.256429 19.7833
-1.29936 -0.748069 20.3162
-0.526626 -0.432405 21.2086
-0.00584804 -0.13212 21.3385
0.582094 0.16349 21.2525
0.820874 0.246796 20.9861
0.715802 0.125041 20.4699
-0.655357 -0.189672 19.7018
-1.70719 -0.579539 20.198
-0.715186 -0.448248 21.2512
-0.073238 -0.229799 21.3916
0.729064 0.0241052 21.3478
0.99455 0.0469092 20.9616
0.867155 -0.0730415 20.4587
-0.674482 -0.0153621 19.6366
-1.82006 0.0476632 20.0246
-1.06871 -0.179472 21.1524
-0.309883 -0.253476 21.483
0.648211 -0.378317 21.3347
0.875246 -0.407836 20.9467
0.605296 -0.354324 20.4626
-0.505503 0.278628 19.8029
-0.998258 0.61052 20.129
-0.91923 0.436672 20.897
-0.38273 0.0498402 21.2954
0.127949 -0.302713 21.2043
0.300307 -0.375812 20.9907
0.323579 -0.459289 20.8808
-0.550402 -0.574148 19.2684
-1.72405 -3.57466 20.5617
-0.275878 -0.464109 21.0413
0.0779777 0.00468123 19.985
0.413651 1.15852 18.1458
0.759996 1.40482 18.0844
0.676214 1.23973 18.4503
-0.641531 -0.443953 19.0327
1.31273 1.43408 10.3391
1.84404 0.782966 12.898
-0.667478 -0.0303558 18.8497
1.42801 -0.607557 10.2833
1.30495 -0.734505 14.1527
-0.450581 0.537978 19.3695
-1.16821 1.79843 19.6072
-1.32746 1.5796 20.8413
-0.564868 0.435445 21.8278
0.042499 -0.471584 21.33
0.19249 -0.693436 20.9535
0.152696 -0.590908 20.6102
0.546898 -0.570288 19.274
1.78501 -3.46645 20.5321
0.280602 -0.44812 20.9998
-0.0761782 0.00160331 20.0691
-0.389303 1.15761 18.022
-0.743996 1.42027 18.0608
-0.660217 1.25912 18.3748
0.633041 -0.444737 19.0183
-1.27806 1.44272 10.1078
-1.84499 0.826778 12.7514
0.666421 -0.0296752 18.8407
-1.39527 -0.602235 9.6533
-1.30936 -0.750845 13.7142
0.488874 0.509227 19.4192
1.21214 1.62414 19.6789
1.3344 1.47442 20.8629
0.561867 0.464625 21.8547
-0.0300329 -0.47796 21.3341
-0.176947 -0.709882 20.9684
-0.12957 -0.586753 20.7631
0.5692 -0.260218 19.7802
1.29305 -0.742267 20.3159
0.528609 -0.424379 21.1968
0.0117468 -0.131561 21.3295
-0.584053 0.163951 21.2568
-0.825168 0.247867 20.9952
-0.733078 0.126687 20.4472
0.661624 -0.196893 19.6865
1.73842 -0.603029 20.193
0.716649 -0.454126 21.2528
0.0776086 -0.231194 21.3864
-0.719217 0.0181785 21.3455
-0.995886 0.0454178 20.9643
-0.896532 -0.0649187 20.3992
0.676482 -0.0162493 19.6301
1.84094 0.0484042 20.0157
1.07566 -0.180741 21.155
0.311885 -0.253073 21.4849
-0.647728 -0.378144 21.3333
-0.885013 -0.420082 20.9519
-0.637661 -0.369642 20.3875
0.492489 0.259307 19.8328
0.949578 0.536129 20.155
0.890152 0.420779 20.8928
0.388508 0.0515964 21.302
-0.12615 -0.311077 21.2044
-0.300182 -0.39842 20.9717
-0.301377 -0.456235 20.9459
-2.05069 -0.355183 2.36159
6.21623e-06 -0.00175878 0.0145058
-0.00812818 -0.00249939 0.135633
0.0397657 0.0106739 0.130031
-6.91073e-06 0.000276147 0.00127375
-0.0212313 0.0440634 0.600811
0 0 0
-0.2068 0.0722615 0.838416
-0.00212889 0.244659 -0.263893
0.0570908 0.0262006 0.476762
1.77033 -0.294598 2.03383
0.00839704 -0.00275366 0.138486
-0.0395711 0.00979807 0.129206
0.0203325 0.0429829 0.599245
0.205659 0.0727316 0.83538
-0.0557092 0.0210165 0.446404
0.00148985 -0.000191816 0.13712
0.0042094 -0.00473339 0.0873499
0 0 0
0 0 0
4.72142e-07 -9.7858e-08 -0.000171948
0 0 0
2.60487e-07 0.000133013 0.000508054
6.70967e-05 -0.000628635 0.0131942
-0.00139314 -0.000179448 0.137321
-0.00452042 -0.00611526 0.114712
0 0 0
0 0 0
-0.0330623 -0.0282426 0.418633
-1.44747e-05 0.000564433 0.009971
0 0 0
8.19368e-07 -6.1982e-05 0.0049845
0 0 0
1.61142e-05 5.03153e-05 0.00147002
0.0774978 -0.422547 0.173485
-0.000488397 -0.00174338 -0.00181997
8.13179e-06 0.0071151 0.0386479
0.000708985 0.0808633 0.256755
-1.93361e-07 1.1493e-06 -7.9971e-06
0.0332102 -0.0282501 0.419465
1.43529e-05 0.000555418 0.00986488
0 0 0
-3.24072 -1.70728 19.7597
-2.44129 -5.38745 20.6311
-1.83318 -1.50782 17.8984
1.28049 0.450227 19.357
0.207996 1.27034 11.2874
0.558643 1.07318 7.34089
-3.73851 0.277555 19.2163
-2.03571 0.060004 17.2593
-2.56615 3.1264 18.6627
1.18575 -0.50052 18.946
0.652371 -0.340732 6.33904
0.318721 -0.7856 19.1982
2.50569 -5.3247 20.5471
1.82014 -1.51904 17.8739
3.27177 -1.75509 19.7538
-0.191663 1.26477 11.1919
-0.527989 1.06315 7.17293
-1.27724 0.439193 19.3934
2.03597 0.0637707 17.2427
2.61885 2.86732 18.751
3.77155 0.282955 19.2007
-0.58892 -0.325095 6.02099
-0.35729 -0.758296 18.4033
-1.17957 -0.502446 18.9155
-0.446727 -0.707305 20.8469
-0.332241 -0.0694734 14.6201
0.00404635 -0.298246 20.5523
0.237372 -0.00423952 14.1243
-1.58823 -0.602151 21.4882
-2.70879 1.56025 20.8593
-0.485648 -0.526793 20.8427
-0.949077 0.212337 21.127
0.365589 -0.0653177 15.0186
0.442683 -0.701275 20.7767
-0.224836 -0.00639773 14.253
0.00142007 -0.299995 20.5634
2.6745 1.47104 20.9294
1.59273 -0.610679 21.4818
0.921732 0.238761 20.8944
0.490163 -0.528021 20.8336
-0.93455 -0.484519 19.8894
-0.608484 -0.231488 19.75
-0.611056 -0.399869 19.5713
-1.00264 -0.683012 21.0085
-1.51161 -0.679492 20.259
-1.8297 -1.68844 20.2328
-0.245174 -0.267293 21.2793
-0.628799 -0.456274 21.219
-0.409764 -0.587354 21.4631
0.270736 0.0269956 21.4222
-0.0448672 -0.191956 21.3459
0.0559814 -0.175029 21.4999
0.723109 0.219687 21.1104
0.648218 0.0962408 21.2726
0.822537 0.558148 21.1662
0.814953 0.209986 21.0107
0.929827 0.144882 20.9827
1.13582 0.724469 20.5212
0.798475 0.00735024 20.4922
0.970686 0.500194 20.5836
-1.18306 -0.364735 19.7414
-0.679257 -0.0970085 19.6551
-0.711694 -0.320859 19.4159
-1.35888 -0.609655 21.0536
-1.86102 -0.283425 20.0826
-0.370792 -0.350959 21.3046
-0.913747 -0.375552 21.2415
0.303762 -0.0876913 21.5121
-0.196246 -0.271339 21.457
0.904321 0.0512942 21.1338
0.760241 -0.184627 21.3343
0.950755 -0.0299102 21.1716
1.07388 -0.200939 20.8361
1.54967 0.418895 19.5868
0.908488 -0.250222 20.4292
1.38146 0.156446 20.1869
-1.19365 0.0174471 19.6504
-0.625103 0.18524 19.6723
-0.741507 -0.0107014 19.288
-1.64212 -0.0203837 20.8804
-1.47268 0.493405 20.0326
-0.730096 -0.263009 21.3316
-1.11591 0.170652 21.0107
0.195451 -0.296119 21.5569
-0.41588 -0.119453 21.4279
0.795597 -0.41627 21.1284
0.322968 -0.425259 21.2485
0.855627 -0.465464 21.0441
0.530094 -0.48053 20.9909
1.31578 -0.70951 19.9082
0.376065 -0.44987 20.629
0.975288 -0.639264 20.4919
-0.752587 0.463787 19.8683
-0.495075 0.381461 19.621
-1.03937 0.576633 20.5782
-1.2106 1.09848 19.8906
-0.703855 0.256998 21.1762
-1.20707 0.847638 20.919
-0.0808215 -0.146617 21.3075
-0.500414 0.187375 21.5305
0.212748 -0.378026 21.054
0.0970707 -0.411325 21.2356
0.31252 -0.397941 20.6611
0.278053 -0.573552 20.9486
0.259798 -0.499263 20.41
-1.2382 -1.60237 18.9079
-0.599717 -0.521381 19.1418
-0.00117576 -0.807986 18.9296
-0.552625 -1.48406 21.9884
0.0277426 -4.41742 21.6538
-0.117503 -0.193521 20.1689
0.00731574 -0.544977 19.0681
0.261556 0.516235 19.0429
-0.00486646 -0.0462779 17.9678
0.534785 1.26864 18.0496
0.0051184 0.730696 14.913
1.01428 1.31637 17.7535
0.942703 1.45948 14.3221
-0.00182045 0.886962 14.0421
1.06174 1.09557 15.7773
0.0163042 1.80574 14.2043
-0.681279 -0.260331 18.8929
-0.0131131 -0.660182 18.5258
1.78306 1.37083 12.3663
1.66812 0.558927 7.12273
-0.00179144 -0.563318 -0.301534
2.16047 0.138871 12.9121
0.0111667 0.688979 4.17704
-0.590108 0.374139 19.0326
-0.0029314 0.00155021 18.3317
1.77044 -0.92273 13.0188
0.47008 -1.07474 20.269
0.0290931 -0.0461114 -2.30046
0.45117 -0.857323 20.7498
0.0738433 -1.0127 3.62118
-0.812027 1.12685 19.2362
0.0280975 0.670129 19.1352
-1.31062 1.8275 20.4338
0.091468 2.56818 19.3172
-1.22163 1.28912 21.5181
0.0630656 2.64976 20.615
-0.144434 -0.180596 21.6299
-0.0189823 0.917161 22.2696
0.118016 -0.601043 21.1605
-0.00682927 -0.405917 21.4644
0.179243 -0.717172 20.8637
0.00707118 -0.804507 21.0825
-0.00168583 -0.530567 20.6689
1.23734 -1.57503 18.9369
0.596013 -0.525007 19.137
0.611795 -0.400704 19.5717
0.569661 -1.49248 22.006
1.82046 -1.62139 20.2321
0.1147 -0.194655 20.1416
0.427926 -0.586531 21.4461
-0.257988 0.518151 19.0561
-0.0510554 -0.178986 21.5003
-0.514522 1.27656 18.0025
-0.820138 0.565401 21.149
-0.989641 1.34471 17.6775
-0.916126 1.45823 14.1131
-1.1399 0.728959 20.5014
-1.04886 1.12498 15.6839
-0.972677 0.517447 20.6091
0.676742 -0.259043 18.8814
0.721416 -0.331851 19.3946
-1.77084 1.38419 12.2359
-1.60876 0.55862 6.83725
-1.55804 0.433471 19.4759
-2.22435 0.177089 12.3261
-1.37513 0.179716 20.1474
0.611818 0.369157 19.0661
0.743547 -0.012383 19.2772
-1.7711 -0.932595 12.5993
-0.470892 -1.06263 19.7586
-1.33036 -0.697743 19.7342
-0.441481 -0.863074 20.5982
-1.00757 -0.644893 20.3718
0.848917 1.04002 19.3306
0.498669 0.352572 19.661
1.35185 1.7047 20.4572
1.18858 0.962341 19.9467
1.22257 1.28268 21.5141
1.18519 0.794742 20.9184
0.146882 -0.178247 21.6482
0.510833 0.202091 21.5512
-0.0987346 -0.610272 21.1855
-0.0917995 -0.430748 21.2446
-0.13759 -0.739541 20.8651
-0.268536 -0.597615 21.0024
-0.263352 -0.513801 20.2835
0.936347 -0.484662 19.8896
0.612155 -0.236645 19.7408
0.996003 -0.669588 21.0013
1.51995 -0.687578 20.257
0.245448 -0.263436 21.2789
0.631582 -0.455677 21.2132
-0.264075 0.0236727 21.4149
0.0515204 -0.194445 21.3387
-0.723994 0.222716 21.1126
-0.644688 0.0967428 21.28
-0.814617 0.205342 20.9899
-0.934058 0.150101 20.9869
-0.82926 0.0165267 20.4397
1.20398 -0.379301 19.7227
0.684988 -0.10083 19.6436
1.37406 -0.626075 21.0606
1.89209 -0.29558 20.078
0.372715 -0.352988 21.3057
0.916226 -0.382534 21.2427
-0.297654 -0.0899449 21.5029
0.198036 -0.271457 21.455
-0.898222 0.0483658 21.1319
-0.753864 -0.185454 21.3314
-0.956297 -0.0340516 21.1822
-1.08685 -0.203017 20.8325
-0.931584 -0.265796 20.3724
1.20185 0.0187946 19.6393
0.615075 0.177629 19.692
1.65866 -0.0189861 20.8842
1.42275 0.458947 20.0587
0.734789 -0.264158 21.3317
1.10259 0.167504 21.0094
-0.194337 -0.297345 21.5578
0.422062 -0.121031 21.4354
-0.798753 -0.423491 21.1282
-0.327382 -0.442829 21.2606
-0.872411 -0.479129 21.0725
-0.536814 -0.502728 21.0124
-0.398203 -0.479732 20.6744
0.723122 0.419358 19.9088
0.985829 0.521153 20.5833
0.703155 0.255206 21.1741
0.0843921 -0.151815 21.328
-0.21221 -0.385868 21.0765
-0.308417 -0.413276 20.6501
-1.06619 -0.447608 19.8204
-1.54076 -1.633 18.461
-1.18879 -0.905473 19.5124
-1.56659 -0.771224 19.1245
-0.658864 -0.362572 19.4954
-2.45742 -1.82376 20.0507
-1.18643 -0.665405 21.0396
-0.333289 -0.786121 17.0038
-1.07687 -1.2886 21.4429
-1.95997 -1.62003 21.8879
-0.410182 -0.656101 21.4389
-0.311314 -0.326432 21.2815
-0.0176454 -0.0402384 13.8887
-0.151973 -0.368698 21.4203
-0.195476 -0.497613 20.561
0.055942 -0.251303 21.2425
0.271014 -0.0366456 21.4553
0.21451 0.489433 12.7202
0.414798 0.167404 21.5022
0.557432 0.0757523 20.0903
1.07971 0.565613 20.4281
0.822212 0.143774 21.1146
0.505835 1.34064 12.7907
0.996464 0.678756 20.8047
1.42726 0.477056 19.3483
1.37223 0.601333 20.2483
0.911363 0.0875176 21.0328
1.344 1.48071 15.2515
1.18989 0.704983 20.3822
1.47395 0.340412 19.5548
1.13708 0.375002 20.2769
-1.25204 -0.1969 19.6596
-2.09058 -0.81933 17.3576
-1.71374 0.0456163 18.8598
-0.750171 -0.164138 19.3297
-3.87345 -0.820049 19.3727
-1.59699 -0.371209 21.0129
-2.96495 0.0138279 21.4315
-0.920898 -0.798045 21.4385
-0.536231 -0.349718 21.3273
-1.14534 -0.787277 21.2625
-0.121521 -0.383379 20.1215
0.272705 -0.210457 21.5567
0.384929 -0.394738 20.3554
1.39978 0.0389355 18.226
0.932392 -0.198627 21.1365
0.555877 0.334368 3.92295
1.22464 -0.653672 19.534
1.65909 -0.168056 19.2404
0.969412 -0.289754 21.5996
2.12688 0.402688 11.1531
1.16592 -0.62849 20.3262
1.50133 -0.213394 20.3933
-1.06541 0.33636 19.6986
-1.36456 1.19613 18.3623
-0.851157 0.724446 19.6045
-0.654161 0.273484 19.4116
-2.19758 1.27386 19.5619
-1.42887 0.413249 20.6851
-2.51712 2.53385 20.7207
-1.30212 1.08942 20.5261
-1.77966 0.430163 21.1083
-0.842913 0.0108589 21.2821
-2.9751 1.23338 21.6719
-0.996913 0.596754 21.3332
-0.70617 -0.0516184 21.8076
-0.00112389 -0.274814 21.4396
0.0777389 -0.443184 20.3525
-0.118791 -0.166621 21.4483
0.322517 -0.689323 21.4412
0.457343 -0.493467 21.0915
0.326242 -0.928037 19.7605
0.204449 -0.500392 21.1106
0.577776 -0.835718 20.9577
0.530838 -0.513631 20.6937
0.448374 -1.13417 20.6406
0.297271 -0.584251 20.88
0.526302 -0.709054 20.4776
1.54113 -1.62923 18.4674
0.0150602 -2.64005 18.2244
-0.0161273 -2.74095 16.11
-0.00520071 -0.728079 18.7219
0.0139618 -5.26293 22.0867
0.35298 -0.816391 17.2496
0.0129727 -1.3227 21.1982
0.000626198 -0.195635 10.8343
0.0253797 -0.0405672 13.975
-0.000750573 -0.269032 18.0733
-0.0110848 0.00485901 10.3022
-0.209534 0.49224 12.7365
-0.00675604 0.352146 16.3298
0.00558558 0.515388 6.42189
-0.469089 1.32225 12.6282
0.000142347 0.605579 14.472
-0.0230221 -0.808803 -0.112575
-0.0125528 0.390874 6.74215
-1.32922 1.49407 15.1444
0.0234122 1.27862 13.9419
-0.00140261 0.683171 2.89646
0.0193035 1.36193 9.00452
2.09575 -0.824014 17.3267
-0.00590497 0.424816 15.1147
-0.00790941 -0.349691 18.3217
-0.509119 0.335697 3.74427
-0.00671194 0.354192 -2.45652
0.0289401 -0.713406 -5.20318
-2.1413 0.436759 10.7237
0.0470179 -0.501968 0.129732
0.0434524 -0.272691 -2.18967
1.38298 1.13054 18.469
0.0666014 1.56999 18.8836
0.0228613 0.54057 18.6235
0.0934703 4.76085 18.0722
2.53923 2.36093 20.7298
0.0766424 2.69492 20.2796
0.0491835 3.88936 19.6262
2.97144 1.23105 21.6662
0.0033848 2.62282 21.7151
-0.00935254 0.555403 16.4658
-0.132824 -0.428651 19.9363
-0.00928241 -0.072772 21.8319
0.00615037 -0.417788 11.2661
-0.341275 -0.899323 19.1072
-0.00473604 -0.561668 21.4114
-0.00798666 -0.701315 13.193
-0.444177 -1.12928 20.0309
0.0133197 -0.767908 20.8228
0.00882595 -0.864941 15.376
1.07718 -0.455329 19.811
1.18564 -0.900373 19.5234
1.58313 -0.760634 19.0982
0.662902 -0.36991 19.488
2.44684 -1.79907 20.0541
1.18791 -0.667427 21.0381
1.08985 -1.24948 21.4121
1.9725 -1.6419 21.9038
0.427364 -0.663052 21.4722
0.313758 -0.324868 21.2817
0.160114 -0.371703 21.4192
0.199459 -0.497054 20.5416
-0.0491945 -0.253837 21.2563
-0.261708 -0.0433929 21.4399
-0.412663 0.164969 21.5071
-0.555087 0.0700907 20.1637
-1.07828 0.568917 20.3964
-0.818197 0.149341 21.116
-0.99506 0.687301 20.7805
-1.42578 0.473974 19.3031
-1.36966 0.610417 20.2163
-0.911744 0.0830138 21.0332
-1.20464 0.726027 20.3415
-1.48358 0.372025 19.3819
-1.13196 0.399 20.2589
1.26854 -0.202959 19.6424
1.72353 0.0460807 18.8432
0.757244 -0.165252 19.3153
3.9346 -0.83141 19.3437
1.6173 -0.380698 21.0198
2.99025 0.0102741 21.4476
0.916209 -0.803618 21.4166
0.538823 -0.352105 21.3264
1.14875 -0.791985 21.2304
0.124225 -0.385836 20.1375
-0.270377 -0.208842 21.5566
-0.38486 -0.39385 20.3541
-1.39918 0.0290668 18.2638
-0.933113 -0.199381 21.1425
-1.23276 -0.64421 19.3853
-1.69713 -0.148076 19.0308
-0.983605 -0.301621 21.598
-1.20008 -0.624537 20.0676
-1.54069 -0.199393 20.2962
1.035 0.315216 19.7305
0.846816 0.659448 19.6607
0.646065 0.264216 19.4455
2.12218 1.15877 19.6298
1.38879 0.384542 20.6822
1.27144 0.992705 20.5303
1.73866 0.420635 21.1065
0.843703 0.0106608 21.2809
0.994301 0.593218 21.3318
0.718159 -0.0484867 21.825
-0.000219532 -0.281575 21.4567
0.12316 -0.166431 21.4707
-0.31631 -0.710424 21.4604
-0.464668 -0.51466 21.0875
-0.201289 -0.51643 21.1287
-0.592604 -0.862675 20.9688
-0.543145 -0.529916 20.6655
-0.314198 -0.615459 20.8955
-0.530566 -0.721062 20.3843
-1.40169 -0.872254 19.3183
-1.39875 -1.50419 21.6529
-0.153809 -0.444406 21.27
0.519504 0.142442 21.0098
1.23502 0.628908 20.2322
1.32458 0.55917 20.5641
-1.78427 -0.38989 18.9332
-2.71586 -0.855081 21.8269
-0.436485 -0.687993 20.4541
0.557036 -0.0961592 19.6064
1.53362 -0.0734692 18.7895
1.61208 -0.100146 18.7877
-1.30845 0.648312 19.1885
-2.16663 1.03408 20.7724
-1.49416 0.197099 21.5653
-0.0289172 -0.387574 21.7183
0.445252 -0.775848 21.1962
0.579464 -0.785269 20.7574
0.00270265 -2.89867 17.2866
0.00178175 -0.470252 12.6444
-0.00385718 -0.0777477 10.1641
0.00156341 0.270678 8.65226
-0.0145198 -0.0812065 6.4906
0.0105873 1.12074 8.13935
-0.00895288 -1.22259 15.1557
-0.00510178 -0.588129 -4.29173
0.0306013 -0.39349 -4.60384
0.046269 1.92346 17.437
0.0618696 4.16529 20.4879
0.0030034 4.59982 19.3052
0.00341271 -0.446769 12.9823
-0.00657908 -0.479894 12.7012
0.0111115 -1.06011 14.025
1.40682 -0.8781 19.3006
1.40311 -1.47965 21.6329
0.162899 -0.448117 21.2835
-0.515297 0.137368 21.043
-1.23293 0.629092 20.2021
-1.33957 0.586752 20.5093
1.773 -0.399795 18.894
2.73712 -0.867357 21.8426
0.436121 -0.689581 20.433
-0.556156 -0.100148 19.6371
-1.53363 -0.064916 18.6563
-1.65699 -0.0791223 18.561
1.29396 0.60799 19.2496
2.11183 0.954956 20.7682
1.49505 0.196869 21.5636
0.0329159 -0.39589 21.7418
-0.434854 -0.801878 21.1977
-0.596985 -0.812422 20.798
-0.46928 -0.269161 0.607229
-2.64606e-05 -0.000543415 0.00317732
-0.00265611 -0.00625048 0.0867058
0.0908599 0.0484444 0.25883
-0.00796583 0.0063189 0.0390621
0.00768981 0.153184 1.13507
-0.599813 -0.0344601 0.707734
-0.00423313 0.047797 0.0943292
-0.392641 0.14577 0.961399
0.0261709 -0.00540917 0.0978744
-0.182492 0.0609258 -0.0662576
0.0468786 -0.069116 0.531272
4.52186e-05 -0.000625889 0.00366309
0.656927 -0.396109 0.901847
0.00349052 -0.00646276 0.0906367
0.00789096 0.00532197 0.0363366
-0.10173 0.0280258 0.20599
-0.0060367 0.151987 1.13337
0.00441983 0.048193 0.0950242
0.562402 -0.0314431 0.663779
0.402997 0.147237 0.980395
0.178415 0.0627006 -0.0693443
-0.0257842 -0.00879778 0.101823
-0.0459935 -0.0696774 0.529853
-0.00359541 -0.000243576 0.0864304
-7.11535e-05 6.59998e-05 0.0323021
0 0 0
0 0 0
-0.000117835 0.0229887 0.350491
0.00396005 -0.00104539 0.122636
-0.000166408 0.000213811 0.00521248
0 0 0
-0.0920684 -0.0803764 0.54339
0.0092229 -0.0355358 0.217942
-0.013461 -0.00786789 0.0687107
0 0 0
0.0921661 0.0921894 0.479807
0 0 0
0.00252696 0.00374401 0.0159458
0.0325005 0.00889194 0.257763
0.00417549 -0.000176988 0.0955617
0 0 0
9.71521e-05 6.46634e-05 0.0325915
2.44885e-18 -1.76931e-18 -4.50598e-17
0.000529877 0.0233862 0.356674
0 0 0
-0.00379459 -0.000883447 0.122351
0.0001708 0.000220039 0.00534519
0.091228 -0.0798647 0.539663
0 0 0
-0.00171228 -0.00590151 0.0362516
0.0142317 -0.00823558 0.0731504
-0.0740369 0.0830365 0.405405
-0.0309378 0.00842537 0.24627
0 0 0
-0.00238096 0.00355594 0.0152112
0 0 0
0 0 0
0 0 0
0 0 0
-4.17358e-18 -7.17484e-18 7.45276e-17
0 0 0
0.00532968 0.00186022 0.0290086
-0.028445 -0.00438161 -0.00414855
0.000302646 0.00531978 0.0483284
-6.53399e-05 -0.00634396 -0.00278695
0 0 0
0 0 0
0.0250322 0.0678107 0.213758
-8.02879e-20 1.61979e-17 4.34015e-17
0 0 0
0 0 0
-0.000552862 0.0405004 -0.0145419
-2.37467e-06 0.00207475 -0.00740166
0.0163989 0.0245077 0.260697
0.00226663 -0.00520363 0.0200834
0 0 0
0 0 0
0 0 0
0 0 0
0.0289977 -0.00446154 -0.0042535
-0.00539363 0.0018591 0.0294066
-9.35142e-05 0.000144727 0.00480001
0 0 0
0 0 0
0 0 0
-0.0021485 -0.00536157 0.0205513
-0.0164413 0.0251222 0.25975
0 0 0
0 0 0
0 0 0
0.000109795 -2.59904e-05 0.0189171
0 0 0
0 0 0
-0.000273237 0.0017982 0.014522
0.000144468 0.00242956 0.0550106
0 0 0
0 0 0
0.000412591 0.0104358 0.0909244
-0.118527 0.133337 0.486029
1.22885e-05 0.000995109 0.00760566
0 0 0
-3.18568e-05 0.0197278 0.268342
-8.67559e-05 -0.0014014 0.0073105
0 0 0
0 0 0
0 0 0
-0.00010981 -2.2909e-05 0.0190332
0.000273246 0.00179215 0.0145129
-0.000102344 0.00237871 0.0535989
0.0731506 0.0818779 0.301563
-0.000414216 0.010564 0.0926112
-0.0348635 -0.0342711 0.122701
-0.154275 -0.0345166 0.411712
-0.000466557 -0.0014538 0.343688
-0.00111869 -0.0152404 0.227041
0 0 0
-3.10199e-05 -0.000946708 0.0444707
0 0 0
-0.000515821 0.00945458 0.0491414
0 0 0
-0.00243499 0.0109184 0.102315
0.0139538 0.00720581 0.0746738
0.000459874 8.41782e-05 0.00228288
0.00237376 -0.000645678 0.0461076
-0.00247814 -0.000656653 0.0447394
-0.000444348 -3.97713e-05 0.0100621
0.000455429 -3.98964e-05 0.0102257
0 0 0
0 0 0
0 0 0