# vtk DataFile Version 2.0
tet_velo
ASCII
DATASET UNSTRUCTURED_GRID
POINTS 29498 float
-0.695 0.135 -1.87705
-0.778904 0.215 1.885
-0.705 0.436567 -1.865
-0.765 0.820569 1.895
0.695 0.135 -1.87528
0.779606 0.215 1.885
0.695 0.424602 -1.885
0.772693 0.815 1.895
-0.775579 0.109056 -0.623033
-0.812638 0.126631 0.630983
-0.827485 0.667052 -0.611667
-0.808567 0.756135 0.641667
0.775844 0.109024 -0.621853
0.813144 0.126593 0.631573
0.830057 0.663894 -0.625
0.813417 0.751489 0.635
-1.48752 -0.197884 -2.88137
-1.48645 -0.127305 -1.87671
-1.55004 -0.141479 -0.623367
-1.59274 -0.149853 0.62896
-1.58333 -0.0889288 1.8822
-1.57613 -0.0254029 2.88634
-1.57552 0.0381341 3.89116
-1.48223 0.0237142 -2.87879
-1.48113 0.122694 -1.87336
-1.56343 0.134909 -0.61986
-1.59927 0.143362 0.632761
-1.57371 0.211606 1.88612
-1.56936 0.274539 2.89038
-1.57227 0.336053 3.89521
-1.48861 0.417298 -2.87156
-1.49591 0.514678 -1.86302
-1.59675 0.676858 -0.609416
-1.60204 0.753976 0.642904
-1.56583 0.819635 1.89597
-1.56466 0.877864 2.89984
-1.5703 0.935055 3.90421
-1.51543 1.15662 -2.86344
-1.52653 1.27277 -1.85695
-1.56798 1.45682 -0.600571
-1.59235 1.60639 0.654825
-1.58875 1.70466 1.90993
-1.58246 1.76527 2.91379
-1.5794 1.82062 3.91765
-0.732674 -0.192301 -2.8839
-0.712155 -0.116967 -1.87846
-0.76207 -0.153148 -0.624937
-0.80125 -0.163651 0.627723
-0.794911 -0.0914324 1.88111
-0.788611 -0.0274201 2.88536
-0.787963 0.035624 3.89019
-0.731271 0.0195125 -2.88267
-0.782342 0.274089 2.88951
-0.785131 0.334389 3.89429
-0.735499 0.382014 -2.87691
-0.777467 0.877748 2.89909
-0.783282 0.934406 3.90333
-0.743209 1.13195 -2.868
-0.743014 1.24947 -1.86135
-0.774833 1.44892 -0.604199
-0.799252 1.60818 0.652399
-0.798814 1.70727 1.90845
-0.793693 1.76682 2.91256
-0.790885 1.82126 3.91646
0.731664 -0.194292 -2.88692
0.742919 -0.117498 -1.87837
0.788043 -0.153516 -0.624672
0.803381 -0.164083 0.627765
0.781678 -0.0919802 1.88092
0.783211 -0.0288953 2.88479
0.785945 0.0335836 3.88913
0.712676 0.016607 -2.88716
0.782701 0.272281 2.88906
0.786217 0.332098 3.89328
0.714809 0.3755 -2.88824
0.781766 0.874151 2.89835
0.786417 0.931424 3.90203
0.782332 1.1271 -2.87766
0.80216 1.24466 -1.87146
0.810613 1.44504 -0.612673
0.796168 1.60453 0.646668
0.785144 1.70353 1.90492
0.78438 1.76328 2.90986
0.78604 1.81802 3.91398
1.48102 -0.202295 -2.88886
1.49622 -0.129907 -1.88085
1.56173 -0.143437 -0.626108
1.59584 -0.152045 0.627278
1.57972 -0.0914682 1.8811
1.57437 -0.0288931 2.8847
1.57515 0.0339194 3.88873
1.46119 0.0178586 -2.88894
1.47057 0.119065 -1.87995
1.56017 0.132545 -0.624463
1.60201 0.140504 0.630485
1.57863 0.208364 1.88537
1.5728 0.2704 2.88893
1.57473 0.331395 3.89283
1.4671 0.406994 -2.89052
1.48244 0.503428 -1.88519
1.59442 0.670983 -0.625832
1.60653 0.747341 0.634381
1.57487 0.812205 1.89361
1.57107 0.871369 2.89761
1.57441 0.92925 3.90125
1.54601 1.14762 -2.88145
1.57068 1.26396 -1.87542
1.59581 1.44941 -0.616195
1.59227 1.59937 0.643891
1.57999 1.69755 1.9028
1.57597 1.75846 2.90817
1.57591 1.81427 3.91253
-0.703095 0.285784 -1.87412
0 0.10685 -1.90431
-0.758708 0.0986095 -1.25004
-0.802116 0.517784 1.92016
0.000350982 0.186173 1.91383
-0.814514 0.152073 1.25799
-0.005 0.497437 -1.94185
-0.87392 0.659488 -1.23833
0.0038465 0.820115 1.89733
-0.828196 0.829765 1.26833
0.694693 0.279801 -1.87983
0.757889 0.0995457 -1.24857
0.804348 0.515 1.9182
0.815837 0.151335 1.25829
0.872317 0.654036 -1.255
0.834368 0.824558 1.265
-0.79631 0.115642 0.00397497
-0.87421 0.388054 -0.61735
0.000132799 0.109115 -0.622443
-0.878315 0.441383 0.636325
0.000252904 0.125799 0.631278
-0.812898 0.706466 0.015
0.00128603 0.937543 -0.618333
0.00242498 1.06704 0.638333
0.796755 0.115548 0.00485998
0.874618 0.386459 -0.623427
0.87881 0.439041 0.633287
0.816572 0.702526 0.005
-0.89647 0.336919 -1.24419
-0.876218 0.414719 0.00948748
-0.888198 0.479584 1.26316
6.63995e-05 0.0933039 -1.2493
0.000192852 0.117414 0.00441748
0.000301943 0.137243 1.25814
-0.0025 0.282792 -2.04165
0.00209874 0.516392 2.06105
-0.00185698 0.711083 -1.24667
0.00185551 1.11345 0.00999999
0.00313574 0.938061 1.26667
0.896637 0.33313 -1.25178
0.876405 0.41275 0.00492999
0.885749 0.477021 1.26164
-1.08806 0.128847 -1.8752
-0.703578 0.00901666 -1.87776
-0.713136 0.0772563 -2.37986
-1.17631 0.213303 1.88556
-0.786907 0.0617838 1.88305
-0.780623 0.244545 2.38725
-1.10045 0.475622 -1.86401
-0.72025 0.40929 -2.37095
-0.724007 0.843018 -1.86317
-1.16541 0.820102 1.89549
-0.771234 0.849159 2.39705
-0.781907 1.26392 1.90173
0.71896 0.00875083 -1.87682
0.703838 0.0758035 -2.38122
1.08279 0.127032 -1.87762
0.780642 0.0615099 1.88296
0.781154 0.243641 2.38703
1.17912 0.211682 1.88518
0.704904 0.400051 -2.38662
0.74858 0.834631 -1.87823
1.08872 0.464015 -1.8851
0.77723 0.844576 2.39668
0.778918 1.25927 1.89996
1.17378 0.813603 1.8943
-1.1695 0.121982 -0.621447
-0.768824 -0.0220463 -0.623985
-1.20595 0.134996 0.631872
-0.806944 -0.0185102 0.629353
-1.21212 0.671955 -0.610541
-0.801159 1.05798 -0.607933
-1.2053 0.755056 0.642285
-0.803909 1.18216 0.647033
0.781944 -0.0222457 -0.623263
1.16801 0.120784 -0.623158
0.808263 -0.0187449 0.629669
1.20758 0.133548 0.631029
0.820335 1.05447 -0.618837
1.21224 0.667438 -0.625416
0.804792 1.17801 0.640834
1.20997 0.749415 0.63469
-1.48699 -0.162595 -2.37904
-1.48488 -0.087085 -2.88008
-1.1101 -0.195093 -2.88264
-1.51824 -0.134392 -1.25004
-1.48379 -0.00230553 -1.87503
-1.0993 -0.122136 -1.87759
-1.57139 -0.145666 0.00279618
-1.55673 -0.00328512 -0.621614
-1.15606 -0.147314 -0.624152
-1.58804 -0.119391 1.25558
-1.59601 -0.00324551 0.63086
-1.197 -0.156752 0.628342
-1.57973 -0.0571659 2.38427
-1.57852 0.0613385 1.88416
-1.18912 -0.0901806 1.88165
-1.57583 0.00636557 3.38875
-1.57274 0.124568 2.88836
-1.18237 -0.0264115 2.88585
-1.57389 0.187093 3.89319
-1.18174 0.036879 3.89067
-1.48168 0.0732043 -2.37607
-1.48542 0.220506 -2.87518
-1.10675 0.0216134 -2.88073
-1.52228 0.128802 -1.24661
-1.48852 0.318686 -1.86819
-1.58135 0.139135 0.00645051
-1.58009 0.405883 -0.614638
-1.58649 0.177484 1.25944
-1.60065 0.448669 0.637832
-1.57153 0.243073 2.38825
-1.56977 0.515621 1.89105
-1.57081 0.305296 3.3928
-1.56701 0.576202 2.89511
-1.17585 0.274314 2.88994
-1.57128 0.635554 3.89971
-1.1787 0.335221 3.89475
-1.49226 0.465988 -2.36729
-1.50202 0.786961 -2.8675
-1.11206 0.399656 -2.87424
-1.54633 0.595768 -1.23622
-1.51122 0.893724 -1.85998
-1.59939 0.715417 0.0167439
-1.58236 1.06684 -0.604994
-1.58393 0.786806 1.26944
-1.59719 1.18018 0.648864
-1.56524 0.84875 2.39791
-1.57729 1.26215 1.90295
-1.56748 0.90646 3.40203
-1.57356 1.32157 2.90682
-1.17106 0.877806 2.89947
-1.57485 1.37784 3.91093
-1.17679 0.934731 3.90377
-1.52098 1.2147 -2.36019
-1.12932 1.14428 -2.86572
-1.54726 1.3648 -1.22876
-1.13477 1.26112 -1.85915
-1.58016 1.53161 0.0271266
-1.17141 1.45287 -0.602385
-1.59055 1.65553 1.28238
-1.1958 1.60729 0.653612
-1.5856 1.73497 2.41186
-1.19378 1.70597 1.90919
-1.58093 1.79295 3.41572
-1.18808 1.76604 2.91318
-1.18514 1.82094 3.91706
-0.722415 -0.154634 -2.38118
-0.731973 -0.0863945 -2.88328
-0.000504928 -0.193297 -2.88541
-0.737113 -0.135058 -1.2517
0.015382 -0.117233 -1.87841
-0.78166 -0.1584 0.00139319
0.0129866 -0.153332 -0.624805
-0.79808 -0.127542 1.25442
0.00106533 -0.163867 0.627744
-0.791761 -0.0594263 2.38324
-0.00661603 -0.0917063 1.88102
-0.788287 0.00410192 3.38778
-0.785476 0.123334 2.88744
-0.00270005 -0.0281577 2.88508
-0.786547 0.185006 3.89224
-0.00100881 0.0346038 3.88966
-0.733385 0.200763 -2.87979
-0.0092975 0.0180598 -2.88491
-0.783736 0.304239 3.3919
-0.779904 0.575919 2.8943
0.000179674 0.273185 2.88929
-0.784207 0.634397 3.89881
0.000542767 0.333244 3.89379
-0.739354 0.75698 -2.87245
-0.0103452 0.378757 -2.88258
-0.780375 0.906077 3.40121
-0.78558 1.32228 2.90583
0.00214966 0.87595 2.89872
-0.787084 1.37783 3.90989
0.00156754 0.932915 3.90268
-0.743112 1.19071 -2.36467
0.0195611 1.12952 -2.87283
-0.758923 1.34919 -1.23277
0.0295732 1.24706 -1.8664
-0.787042 1.52855 0.0241002
0.0178902 1.44698 -0.608436
-0.799033 1.65773 1.28043
-0.00154201 1.60635 0.649534
-0.796254 1.73704 2.41051
-0.00683523 1.7054 1.90669
-0.792289 1.79404 3.41451
-0.00465637 1.76505 2.91121
-0.00242254 1.81964 3.91522
0.737292 -0.155895 -2.38264
0.72217 -0.0888427 -2.88704
1.10634 -0.198294 -2.88789
0.765481 -0.135507 -1.25152
1.11957 -0.123703 -1.87961
0.795712 -0.158799 0.00154655
1.17489 -0.148476 -0.62539
0.79253 -0.128032 1.25434
1.19961 -0.158064 0.627522
0.782445 -0.0604377 2.38286
1.1807 -0.0917242 1.88101
0.784578 0.00234415 3.38696
0.782956 0.121693 2.88693
1.17879 -0.0288942 2.88475
0.786081 0.182841 3.8912
1.18055 0.0337515 3.88893
0.713742 0.196054 -2.8877
1.08693 0.0172328 -2.88805
0.784459 0.30219 3.39117
0.782234 0.573216 2.89371
1.17775 0.271341 2.889
0.786317 0.631761 3.89765
1.18047 0.331747 3.89305
0.74857 0.751298 -2.88295
1.09095 0.391247 -2.88938
0.784092 0.902788 3.40019
0.783073 1.31871 2.9041
1.17642 0.87276 2.89798
0.786229 1.37472 3.90801
1.18041 0.930337 3.90164
0.792246 1.18588 -2.37456
1.16417 1.13736 -2.87955
0.806387 1.34485 -1.24207
1.18642 1.25431 -1.87344
0.803391 1.52478 0.0169975
1.20321 1.44722 -0.614434
0.790656 1.65403 1.27579
1.19422 1.60195 0.64528
0.784762 1.73341 2.40739
1.18256 1.70054 1.90386
0.78521 1.79065 3.41192
1.18018 1.76087 2.90901
1.18097 1.81614 3.91325
1.48862 -0.166101 -2.38485
1.47111 -0.0922182 -2.8889
1.52898 -0.136672 -1.25348
1.4834 -0.00542105 -1.8804
1.57879 -0.147741 0.000584957
1.56095 -0.00544607 -0.625285
1.58778 -0.121756 1.25419
1.59893 -0.00577052 0.628882
1.57704 -0.0601806 2.3829
1.57917 0.0584477 1.88323
1.57476 0.00251316 3.38672
1.57359 0.120753 2.88682
1.57494 0.182657 3.89078
1.46588 0.0684616 -2.38445
1.46414 0.212426 -2.88973
1.51537 0.125805 -1.25221
1.47651 0.311246 -1.88257
1.58109 0.136524 0.00301113
1.5773 0.401764 -0.625147
1.59032 0.174434 1.25793
1.60427 0.443922 0.632433
1.57571 0.239382 2.38715
1.57675 0.510284 1.88949
1.57376 0.300897 3.39088
1.57193 0.570884 2.89327
1.57457 0.630322 3.89704
[...]
POINT_DATA 29498
VECTORS point_vectors float
-1.13202 -1.64311 2.26354
-0.0031001 0.2126 0.502777
-1.78957 0.465628 2.26725
0.214446 -0.430882 2.07916
1.09085 -1.56366 2.18386
0.00422445 0.208813 0.49308
1.75872 0.44498 2.30083
-0.248504 -0.428573 2.02094
-0.0305236 0.0260966 0.345848
-0.0295098 -0.130929 3.07275
-0.0334586 -0.0282028 0.274663
0.0445374 0.0709261 0.157156
0.0320818 0.0318233 0.342269
0.0333871 -0.133703 3.07228
0.0587081 -0.0310575 0.24476
-0.015388 0.0249636 0.0529713
-0.568957 -0.251079 19.8185
-1.24381 -0.655853 20.3507
-0.448822 -0.384246 21.1907
0.0217515 -0.134619 21.2415
0.479112 0.0817455 21.2273
0.731656 0.174712 20.9173
0.642871 0.0852763 20.6342
-0.674746 -0.180003 19.7452
-1.62151 -0.510107 20.2548
-0.616751 -0.420108 21.2484
-0.0250334 -0.200316 21.2668
0.565225 -0.0236139 21.3113
0.86355 0.0133364 20.975
0.740549 -0.111059 20.8684
-0.708651 -0.0156255 19.6827
-1.73509 0.00706365 20.1542
-0.969027 -0.239446 21.2104
-0.228637 -0.224245 21.367
0.457973 -0.283349 21.3104
0.717809 -0.379825 20.9931
0.504253 -0.340878 20.6143
-0.55364 0.284985 19.8149
-1.07245 0.575974 20.1804
-0.903652 0.372013 20.9813
-0.299373 0.0328266 21.2554
0.130416 -0.250424 21.1656
0.270568 -0.330835 20.9585
0.320091 -0.351974 20.7014
-0.583787 -0.573787 19.2461
-2.01346 -3.99558 20.7622
-0.094447 -0.110034 20.6348
0.13749 0.168355 19.7022
0.43189 1.01836 18.1836
0.706924 1.42757 17.4043
0.727914 1.08472 17.4053
-0.700936 -0.457771 19.0108
0.989478 1.33829 8.8473
1.50615 0.730131 12.5389
-0.788009 -0.0346824 18.8107
1.35351 -0.680815 12.4483
0.946894 -0.880635 15.4165
-0.540382 0.579345 19.2974
-1.35017 1.93167 19.5881
-1.61065 1.74341 21.124
-0.372799 0.271977 21.7456
0.0968743 -0.412752 21.2987
0.204075 -0.629347 20.9858
0.134777 -0.606804 20.534
0.578308 -0.568807 19.2539
2.0541 -3.76434 20.6752
0.0778866 -0.136369 20.7744
-0.137344 0.167746 19.7306
-0.404088 1.00828 18.0252
-0.69888 1.41516 17.3805
-0.719552 1.0892 17.4265
0.68406 -0.455258 19.0013
-0.973849 1.33984 8.81575
-1.49885 0.734123 12.5282
0.761353 -0.0395198 18.7963
-1.35437 -0.658454 12.4118
-0.944232 -0.881662 15.3808
0.54673 0.558088 19.3246
1.39612 1.77635 19.6388
1.61073 1.63716 21.124
0.378347 0.278388 21.7543
-0.0957969 -0.415723 21.3022
-0.203021 -0.634144 20.9921
-0.135332 -0.609288 20.5447
0.566571 -0.251653 19.815
1.22313 -0.637476 20.3459
0.449317 -0.38327 21.1829
-0.0178942 -0.134833 21.2383
-0.478628 0.0830051 21.2265
-0.734858 0.187078 20.913
-0.648687 0.0865009 20.6143
0.671377 -0.187343 19.7302
1.64274 -0.526452 20.2389
0.623353 -0.422804 21.2496
0.0282105 -0.200381 21.2646
-0.554928 -0.0224172 21.3048
-0.850734 0.0113818 20.9774
-0.740977 -0.108794 20.8765
0.701823 -0.02534 19.6645
1.76651 -0.00676656 20.1136
0.981143 -0.238656 21.2076
0.230079 -0.224129 21.3618
-0.455356 -0.27899 21.3055
-0.713619 -0.375765 21.0021
-0.501527 -0.336441 20.6308
0.540929 0.269467 19.8279
1.02989 0.52875 20.1854
0.880542 0.363672 20.9694
0.305701 0.034845 21.257
-0.130147 -0.250489 21.167
-0.271779 -0.331227 20.9642
-0.323579 -0.353174 20.7051
-2.87199 -0.335507 2.62771
-1.88763e-05 -0.0166121 0.0584026
-0.0210869 0.000454682 0.402265
0.0212017 0.0127915 0.0562148
-2.26459e-05 0.00198877 0.010646
-0.0041846 0.0259747 0.707697
9.21859e-06 0.0916674 0.182128
-0.729256 -0.0786975 2.40754
-0.000546743 0.000367523 -0.00387158
0.044088 0.0360494 0.219625
2.80836 -0.338253 2.73852
0.0230365 0.000433186 0.375916
-0.0208674 0.0116453 0.0540764
0.000264685 0.0270052 0.77634
1.01367 -0.292615 2.85878
-0.117507 0.128909 0.718039
-0.0350178 0.137914 2.51461
0 0 0
0 0 0
-0.000279835 0.00187531 0.0125038
0 0 0
0.02736 0.0326615 0.168354
-1.16273e-05 0.0700558 0.164191
4.29688e-06 -0.000628159 0.0040303
0.0338255 0.138266 2.53755
0 0 0
0.000378128 0.00268046 0.017917
-0.0413981 0.04239 0.143517
-0.0171619 -0.0149904 0.218228
-6.12005e-05 0.000650965 0.00490764
5.65953e-05 0.00316539 0.0456091
-3.44399e-06 7.97318e-05 0.0145242
-4.01265e-07 1.29543e-06 0.000170002
0 0 0
0 0 0
-3.26263e-05 0.000596331 -0.000423217
0 0 0
-7.71613e-06 0.00792301 0.0976199
-1.32385e-05 -0.000353468 0.00170353
0.00626527 -0.0074825 0.104005
4.55515e-05 0.000485424 0.0036665
0 0 0
-3.24828 -1.5235 19.89
-3.07948 -6.4076 21.1891
-1.96349 -1.48511 17.8062
1.01303 0.276941 19.9421
0.137998 1.24426 11.2553
0.324718 0.98167 5.95728
-3.78178 0.209165 19.5371
-2.33014 0.196592 17.1694
-2.83047 3.27312 18.7192
0.835939 -0.420929 20.3987
0.813696 -0.470432 8.79103
0.244633 -0.718927 21.0639
3.18773 -6.15279 21.0328
1.94958 -1.49339 17.7799
3.27992 -1.5611 19.8609
-0.103589 1.22683 11.0858
-0.312775 0.9714 5.9477
-1.00148 0.268445 19.9956
2.23434 0.144193 17.1604
2.89086 3.08926 18.696
3.82475 0.202822 19.4132
-0.813232 -0.436794 8.77464
-0.263226 -0.711937 20.9611
-0.823746 -0.417987 20.4695
-0.341822 -0.8118 21.5543
-0.263938 0.273779 14.1063
0.120328 -0.263852 20.6054
0.196591 0.173685 14.2853
-1.54443 -0.803396 21.6147
-3.53185 1.7804 21.2792
-0.29473 -0.451093 20.8368
-0.527801 0.194168 21.2158
0.26454 0.263037 14.31
0.343187 -0.813783 21.5401
-0.192032 0.175097 14.3064
-0.11868 -0.264961 20.6211
3.457 1.64622 21.3016
1.54334 -0.803186 21.5978
0.530559 0.206775 21.1588
0.292429 -0.457018 20.8833
-0.922643 -0.439706 19.9432
-0.625496 -0.22115 19.787
-0.631761 -0.386766 19.5811
-0.934788 -0.585831 21.0193
-1.42987 -0.601052 20.3106
-1.93169 -1.62103 20.2892
-0.157713 -0.234366 21.2359
-0.544206 -0.422683 21.2069
-0.257158 -0.532466 21.5203
0.205322 -0.0347654 21.2995
-0.0047043 -0.177109 21.2433
0.145727 -0.132208 21.2984
0.638453 0.153797 21.0912
0.507199 0.0416542 21.2295
0.719175 0.373063 21.2334
0.76479 0.178339 20.976
0.799359 0.103343 20.9951
1.05899 0.562163 20.6122
0.668363 -0.0228655 20.8554
1.02639 0.368349 20.2761
-1.14875 -0.322773 19.8137
-0.707251 -0.099526 19.6935
-0.738214 -0.312608 19.4368
-1.25001 -0.538118 21.0541
-1.78746 -0.277723 20.1787
-0.253115 -0.309777 21.262
-0.809638 -0.391298 21.2688
0.20218 -0.107817 21.3577
-0.137514 -0.245593 21.3321
0.76706 0.00868114 21.1607
0.546413 -0.17474 21.3072
0.859402 -0.0368324 20.9389
0.85461 -0.202633 20.9094
1.37795 0.290754 19.8013
0.729676 -0.247234 20.8497
1.39767 0.0735215 19.514
-1.20396 -0.00391232 19.7312
-0.666645 0.169305 19.7171
-0.82327 0.000936268 19.2955
-1.52521 -0.109652 20.9363
-1.48112 0.411086 20.1387
-0.579526 -0.269469 21.337
-1.08434 0.103108 21.11
0.0887769 -0.214774 21.4057
-0.31935 -0.102293 21.3531
0.631345 -0.343789 21.1527
0.270472 -0.322979 21.2115
0.735884 -0.419253 20.7744
0.440846 -0.424657 20.9339
1.13321 -0.689463 20.4378
0.35614 -0.397248 20.6254
0.8683 -0.573842 20.4726
-0.820696 0.447874 19.9041
-0.601716 0.419913 19.5776
-1.09356 0.523694 20.6345
-1.36143 1.10784 19.9435
-0.609991 0.203946 21.2064
-1.32394 0.804784 21.0967
-0.0414512 -0.116206 21.2443
-0.36945 0.12267 21.473
0.216029 -0.319537 20.9907
0.123621 -0.347422 21.1815
0.306184 -0.383937 20.7369
0.261864 -0.51089 20.9331
0.195551 -0.401443 20.7445
-1.33056 -1.61626 18.8408
-0.648658 -0.519196 19.1189
-0.000966383 -0.816463 18.8684
-0.343468 -1.18029 21.7367
0.0875127 -5.25103 22.3304
0.00759861 0.126288 19.8008
0.00131012 -0.185921 17.7535
0.303542 0.400957 18.7925
-0.000961802 0.120234 16.7567
0.521541 1.23174 17.4545
-0.00970671 0.591179 14.1087
0.976006 1.35771 16.6
0.865998 1.38006 13.331
-0.0170895 0.763739 12.3637
1.10485 0.928396 13.9653
0.019062 1.49839 11.8734
-0.763476 -0.242935 18.8471
-0.0153489 -0.653101 18.4286
1.44967 1.48635 11.3489
1.26906 0.277697 6.61984
0.0129445 -0.647931 -1.9414
1.55337 -0.143233 12.4446
0.00827941 -0.281805 0.996061
-0.700762 0.397762 18.9621
-0.0113499 -0.01454 18.1384
1.60629 -0.846913 14.2175
0.406422 -0.968393 20.8481
-0.00209575 -0.538784 2.38211
0.430605 -0.809639 20.5115
-0.00329377 -1.42415 8.28607
-0.936745 1.21795 19.1836
0.014079 0.7867 18.9752
-1.59 2.00182 20.4283
0.0743151 2.82977 19.2221
-1.05167 1.03129 21.7987
0.0634628 3.48564 20.9501
-0.0425807 -0.168066 21.5199
-0.00123397 0.461444 22.1345
0.161509 -0.541633 21.129
-0.000573217 -0.466109 21.4215
0.255602 -0.625499 20.6863
0.00113515 -0.779965 21.0647
-0.00228436 -0.884096 20.9585
1.32687 -1.57541 18.8798
0.639235 -0.520232 19.1185
0.626913 -0.385825 19.5837
0.347082 -1.26881 22.1489
1.88541 -1.53696 20.286
-0.0206685 0.115133 19.9618
0.276851 -0.534092 21.5063
-0.298601 0.400995 18.7431
-0.14337 -0.132278 21.2995
-0.49824 1.22391 17.4082
-0.711863 0.38074 21.2069
-0.954873 1.36578 16.5815
-0.849978 1.36441 13.281
-1.04967 0.569479 20.5912
-1.09806 0.930035 13.9851
-1.02522 0.37695 20.2895
0.742685 -0.255017 18.8369
0.737961 -0.324 19.4197
-1.44481 1.472 11.3156
-1.2528 0.290855 6.58966
-1.36931 0.285545 19.8247
-1.5461 -0.132799 12.4426
-1.38615 0.0891357 19.5002
0.697353 0.385542 18.9775
0.806345 -0.0107946 19.279
-1.61937 -0.837968 14.1772
-0.412555 -0.968323 20.841
-1.12095 -0.677149 20.4651
-0.43306 -0.810972 20.5123
-0.879164 -0.569785 20.4684
0.952895 1.1455 19.2302
0.592388 0.390516 19.6077
1.62186 1.89947 20.4466
1.33746 1.00322 19.9635
1.05843 1.01479 21.7829
1.30712 0.75914 21.084
0.0421896 -0.168151 21.5261
0.376464 0.125046 21.4766
-0.159571 -0.545168 21.1353
-0.123835 -0.351479 21.1846
-0.253609 -0.62926 20.6853
-0.263324 -0.516089 20.9435
-0.200103 -0.407027 20.7362
0.913571 -0.437237 19.9424
0.62088 -0.2263 19.7801
0.931957 -0.572402 21.0055
1.4258 -0.60412 20.3028
0.158675 -0.236312 21.237
0.547247 -0.421999 21.2021
-0.202026 -0.0352316 21.2975
0.00896831 -0.17797 21.2406
-0.636979 0.15668 21.091
-0.50347 0.04649 21.2355
-0.762575 0.176004 20.9716
-0.791915 0.108743 20.9953
-0.679515 -0.0200634 20.8481
1.16035 -0.331193 19.7894
0.70198 -0.103847 19.6782
1.26162 -0.553541 21.0615
1.82017 -0.283941 20.1475
0.255272 -0.309732 21.2633
0.817585 -0.393805 21.2705
-0.198366 -0.109812 21.3474
0.139118 -0.244031 21.3302
-0.754367 0.00568698 21.1599
-0.538477 -0.171691 21.3007
-0.849407 -0.0319615 20.9311
-0.84762 -0.19443 20.9149
-0.729634 -0.246811 20.864
1.20482 -0.0140131 19.7014
0.652603 0.161469 19.7211
1.55813 -0.110141 20.9269
1.45677 0.384075 20.1342
0.581143 -0.269907 21.3338
1.07516 0.103298 21.0994
-0.089119 -0.212736 21.4022
0.324016 -0.101595 21.3539
-0.626598 -0.338383 21.1532
-0.271115 -0.319718 21.2125
-0.733199 -0.412941 20.7541
-0.443169 -0.425224 20.9309
-0.353906 -0.393495 20.6104
0.795037 0.417317 19.9186
1.06449 0.502145 20.6261
0.611909 0.201887 21.2019
0.0448747 -0.114746 21.2496
-0.217764 -0.318746 20.996
-0.309599 -0.385889 20.7331
-1.03068 -0.409541 19.8943
-1.65983 -1.62133 18.3846
-1.23121 -0.867906 19.5444
-1.6096 -0.747877 19.1921
-0.691806 -0.350963 19.4933
-2.54 -1.70131 20.1277
-1.09761 -0.581723 21.0277
-0.0206468 -0.473975 16.0085
-1.03217 -1.22251 21.5068
-1.80899 -1.46304 21.9006
-0.245698 -0.659769 21.6144
-0.206792 -0.288049 21.2435
-0.0346572 0.284774 13.8614
0.0200814 -0.269319 21.3712
0.0195587 -0.473073 20.8211
0.162641 -0.201848 21.0778
0.196842 -0.0712846 21.3222
0.339681 0.359215 12.7457
0.351726 0.0333124 21.3384
0.321438 -0.0867803 20.5006
0.893794 0.348284 20.7404
0.688933 0.0928634 21.1259
0.422094 1.29766 12.1057
0.935248 0.527271 20.9316
1.26544 0.333558 19.9845
1.3127 0.452099 20.2553
0.823828 0.0725542 20.7882
1.21384 1.58904 13.6686
1.09071 0.477287 20.5338
1.35412 0.166053 19.3661
1.16253 0.22104 19.8757
-1.24821 -0.177971 19.7346
-2.26176 -0.747449 17.2717
-1.85121 0.0909398 18.9429
-0.803393 -0.167657 19.3256
-3.87116 -0.735575 19.6488
-1.44138 -0.372977 21.0312
-2.76403 -0.222636 21.4968
-0.790955 -0.904233 21.5345
-0.412175 -0.335414 21.3148
-0.854635 -0.787353 21.4301
0.0104175 -0.353378 20.633
0.149499 -0.189522 21.3949
0.0878441 -0.224293 20.7584
1.08096 0.0242097 19.4919
0.771604 -0.179513 21.0786
0.257404 0.234483 3.04306
0.982648 -0.614278 20.6353
1.43544 -0.212195 19.5813
0.845296 -0.236524 21.1952
1.89836 0.0565673 11.0137
0.964655 -0.632703 20.9768
1.30771 -0.132282 19.6843
-1.10518 0.297704 19.7754
-1.60212 1.29139 18.3013
-0.976974 0.763173 19.6104
-0.748267 0.273717 19.3861
-2.39064 1.19513 19.6936
-1.41188 0.300201 20.7612
-3.02058 2.57723 20.7297
-1.47372 1.08217 20.5965
-1.89369 0.318693 21.3138
-0.709291 -0.0261056 21.3116
-2.21879 0.755833 22.0436
-0.866243 0.464924 21.4501
-0.517229 -0.0506361 21.6844
-0.0023545 -0.192061 21.3381
0.110917 -0.302923 21.2095
-0.0541952 -0.13515 21.3703
0.306641 -0.500724 21.3852
0.387976 -0.402814 21.0706
0.299377 -0.867161 20.9918
0.221392 -0.418368 21.0944
0.530129 -0.67969 21.0059
0.391796 -0.464242 20.6935
0.389966 -0.982437 20.9638
0.315041 -0.508346 20.738
0.517058 -0.612968 20.2994
1.65514 -1.60781 18.4049
0.0174582 -2.77361 17.9803
-0.019368 -2.65869 15.9002
-0.00595376 -0.737351 18.6273
0.0340949 -6.07578 20.2112
0.0170462 -0.535809 16.5464
0.00747453 -0.974955 19.7671
-0.00177611 0.107544 8.95982
0.0325107 0.288336 14.0095
-0.000926978 0.000914594 16.8315
-0.00121817 0.136115 9.10459
-0.339954 0.35322 12.6942
-0.00231715 0.268365 15.3252
-0.0146074 0.514474 6.14221
-0.396113 1.2795 11.9993
-0.0152117 0.527501 13.0306
-0.0120211 -0.678428 -0.842152
-0.0130742 0.139467 4.59571
-1.20628 1.57506 13.6363
0.00935764 1.12681 12.1051
-0.0126638 0.302811 0.0807496
0.0109924 0.683488 5.84687
2.21307 -0.774308 17.2531
-0.038454 0.818348 14.6112
-0.0145177 -0.352081 18.1796
-0.247823 0.251816 3.06699
-0.00650288 0.465498 0.758574
0.0316765 -0.899809 -3.41874
-1.88999 0.0624694 11.0267
-4.66731e-06 -1.0199 4.65603
0.011801 -0.887471 0.0770647
1.58916 1.22635 18.3389
0.0383009 1.78049 18.7324
0.00479627 0.621295 18.432
0.049002 4.96642 18.2064
3.0705 2.4768 20.7381
0.0654946 3.16445 20.0453
0.0624107 5.8378 19.4169
2.23285 0.725454 22.0228
0.0172138 2.0924 22.3812
0.000797585 -0.0961431 15.4208
-0.130556 -0.293954 21.1069
-0.000792208 -0.201425 21.7052
0.000445516 -0.704277 15.6128
-0.302507 -0.866119 20.9819
-0.000263589 -0.612887 21.2691
-0.000649482 -1.0226 17.9501
-0.392812 -0.988418 20.9621
0.00172373 -0.633954 20.7538
0.001156 -0.607439 19.0923
1.02973 -0.414709 19.8837
1.21105 -0.847896 19.563
1.60945 -0.758982 19.1614
0.687106 -0.357175 19.4904
2.50143 -1.66305 20.1237
1.10099 -0.582456 21.0208
1.05039 -1.19098 21.4681
1.82327 -1.48409 21.92
0.265274 -0.654813 21.6042
0.207718 -0.287083 21.2477
-0.0112085 -0.272324 21.3671
-0.0173034 -0.472246 20.8147
-0.158981 -0.201918 21.0877
-0.191182 -0.076285 21.3099
-0.350047 0.0360335 21.3354
-0.317273 -0.0888037 20.5097
-0.885819 0.351108 20.7052
-0.681318 0.0981607 21.125
-0.929946 0.531539 20.9119
-1.25118 0.32365 20.0041
-1.29788 0.448761 20.2385
-0.811219 0.0755512 20.7896
-1.09231 0.487394 20.5046
-1.3465 0.16398 19.4147
-1.15483 0.241545 19.9019
1.25458 -0.1924 19.708
1.82578 0.0665994 18.9009
0.797499 -0.173002 19.3058
3.91878 -0.786087 19.5664
1.46768 -0.383896 21.0348
2.83324 -0.205339 21.5062
0.790896 -0.897604 21.4741
0.41397 -0.335939 21.3119
0.852677 -0.790044 21.4547
-0.00660747 -0.35719 20.6654
-0.148466 -0.187216 21.3906
-0.0891861 -0.225051 20.7883
-1.06311 0.0130124 19.5809
-0.761875 -0.175834 21.0816
-0.973414 -0.604225 20.6743
-1.42395 -0.209473 19.635
-0.849189 -0.230778 21.1945
-0.962619 -0.622033 20.9811
-1.30734 -0.136445 19.6805
1.08123 0.280356 19.7791
0.960396 0.705803 19.6384
0.734151 0.259743 19.3981
2.33237 1.09491 19.6977
1.39469 0.298533 20.7465
1.43776 1.00152 20.5964
1.85611 0.303271 21.3035
0.709143 -0.0263632 21.3056
0.868065 0.45447 21.4397
0.522229 -0.0515032 21.687
0.00444608 -0.191185 21.3375
0.0560814 -0.133242 21.3759
-0.308246 -0.499805 21.3902
-0.391022 -0.401937 21.0731
-0.222379 -0.421444 21.0996
-0.53305 -0.68116 21.0048
-0.392739 -0.467999 20.7019
-0.316501 -0.511242 20.7348
-0.518993 -0.6153 20.3099
-1.45148 -0.825997 19.3379
-1.33644 -1.39561 21.6859
0.0577314 -0.355191 21.2185
0.36407 -0.0381312 21.0067
1.15433 0.488215 20.3508
1.24423 0.342717 20.6952
-1.84296 -0.369629 18.9779
-2.43956 -0.871126 21.8887
-0.252123 -0.674666 20.9608
0.244407 -0.0819715 20.1476
1.33274 -0.112324 19.7753
1.32369 -0.155367 19.2149
-1.47349 0.655664 19.2174
-2.32965 0.83909 20.8766
-1.22996 0.0863771 21.6764
-0.0197247 -0.217622 21.566
0.433378 -0.618483 21.1625
0.436852 -0.690648 20.6709
0.00292391 -2.91981 17.0134
-0.00226303 -0.177739 9.62217
-0.000790398 0.090439 8.79274
-0.00388942 0.161952 7.91678
-0.0282586 -0.0810092 5.26995
-0.00395389 0.832233 5.35805
-0.0315138 -1.2035 14.7963
0.0202433 -0.103001 -3.15255
0.0108506 -0.930555 -2.71212
0.0186011 2.28737 17.1778
0.0538587 4.49888 19.7141
0.00218733 1.89725 16.3382
0.00149795 -0.548835 14.782
-0.00184746 -0.805573 17.2568
0.000423325 -1.23395 19.1318
1.44197 -0.825973 19.3369
1.34746 -1.37291 21.6565
-0.0477718 -0.357944 21.2367
-0.360295 -0.0372488 20.9956
-1.14361 0.482604 20.3337
-1.24266 0.348668 20.6874
1.82846 -0.381382 18.9439
2.50091 -0.887408 21.9172
0.258793 -0.672675 20.952
-0.242362 -0.0953698 20.2222
-1.31735 -0.113997 19.8331
-1.30974 -0.158589 19.2616
1.43513 0.609669 19.245
2.31303 0.816822 20.8673
1.22824 0.0768448 21.6647
0.0218658 -0.216261 21.5681
-0.435816 -0.618962 21.1652
-0.43975 -0.693075 20.672
-1.27196 -0.40428 1.1144
0.00941278 -0.183792 0.447032
0.0197058 -0.0807151 0.460095
0.0227802 0.01426 0.0641907
7.48265e-18 -4.26051e-18 -1.46244e-17
-0.0245931 0.0647096 1.18256
-1.07191 0.0652363 1.22532
-0.00850417 0.0570045 0.13137
0 0 0
0.000376941 -0.00182991 0.0490896
-0.0285512 -0.0172105 0.0563867
0.0775253 -0.0431117 0.852247
-0.0110706 -0.286587 0.68998
0.900691 -0.448637 0.66353
-0.0180786 -0.0473858 0.412157
-1.84797e-18 -1.04613e-18 -3.60446e-18
-0.0221013 0.0143111 0.0633734
0.0274594 0.0631294 1.23784
0.0209898 0.148303 0.340933
1.53145 0.106006 1.68554
0.265712 0.125855 0.677902
0.0271378 -0.0165472 0.0549733
-0.0119306 0.0012378 0.0608303
-0.0529628 -0.0266141 0.546033
-0.0104013 0.00201896 0.296982
-0.0222812 0.0293034 0.798616
0.000380884 -0.000346613 0.00455003
0 0 0
0.0350224 -0.0199966 0.592335
-0.0311683 0.1352 3.5435
0 0 0
0 0 0
-0.0661409 -0.0669127 0.339296
-0.000593664 -0.00410758 0.0573464
0.00729404 0.009199 0.0395112
-0.0838601 0.0666927 0.1984
0.348477 0.358673 1.18329
0 0 0
0.0301001 0.0367342 0.124507
0.0602976 -0.00234385 0.155061
0.0133435 0.00286842 0.33212
0 0 0
0.0208688 0.0288988 0.802725
0 0 0
-0.0308812 -0.0185297 0.542536
0 0 0
0.0292929 0.134203 3.50904
0 0 0
0.0526773 -0.0616192 0.309808
0.090697 0.0722727 0.2141
0.0015856 -0.00765409 0.107528
-0.0116324 0.0170966 0.0944842
-0.322567 0.324265 1.10177
-0.0887261 -0.00454327 0.219363
-5.01674e-18 3.38546e-17 1.43956e-16
-0.0459014 0.0573205 0.196291
-0.0387424 -0.0224299 0.144937
0 0 0
0 0 0
0 0 0
-0.00278174 -0.00252484 0.0356714
0 0 0
0.00107982 0.00499899 0.0651322
-0.014597 0.00276699 -0.00185635
2.28144e-08 3.10699e-07 2.95126e-05
0 0 0
3.4016e-05 0.00370092 0.071551
-7.71989e-06 6.05626e-05 0.00506479
-0.0247372 0.873276 0.943056
-0.000210514 0.0200561 0.0697339
-0.0172085 -0.011451 0.2106
0 0 0
0 0 0
-2.36405e-05 -0.00013165 0.000518751
2.9617e-05 0.000815694 0.0073931
0.000290054 -0.000399721 0.00175367
0 0 0
0.0202668 -0.0119761 0.0722556
2.11814e-19 -2.61377e-19 -3.67938e-17
0.00365834 -0.00504108 0.0698499
0.0188191 0.00380304 -0.00244379
-0.000770973 0.00463839 0.0583549
1.09478e-05 7.39351e-05 0.00590758
0.000191123 0.00349754 0.0599888
0 0 0
0.0102888 -0.00881273 0.152674
-0.00214138 -0.00256106 0.0117761
-2.44129e-05 0.000655293 0.00592194
0.00259463 0.0251485 0.307184
0 0 0
0.000221435 -0.000520644 0.0279842
0 0 0
-1.14185e-06 0.000137851 0.0148601
3.5825e-07 3.96984e-05 0.0044098
-0.000206234 0.00166111 0.0103571
0 0 0
-1.20215e-07 8.76745e-07 0.000114483
-1.01731e-06 6.36361e-06 0.000618589
0.00424171 0.0111464 0.0621498
-0.00348898 0.0824118 0.821514
-0.000167628 0.0309074 0.0941195
1.92756e-05 0.0510229 0.157116
1.14078e-06 -0.000737283 0.0208453
9.11234e-07 -0.000369882 0.00193475
0 0 0
-0.00241858 0.0222351 0.272561
-0.00111689 -0.00150848 0.0545286
0 0 0
8.40696e-05 0.000672776 0.00420097
0 0 0
0.00336884 0.063577 0.622699
-0.00164436 0.00437807 0.0245992
0 0 0
-0.0585649 -0.0229119 0.195689
0 0 0
0.00117206 -0.00590274 0.118983