# vtk DataFile Version 2.0
tri_press
ASCII
DATASET UNSTRUCTURED_GRID
POINTS 3682 float
-0.679778 0.155 -1.675
-0.796506 0.115 1.535
-0.652904 0.595 -1.625
-0.755 0.617261 1.615
0.679778 0.155 -1.675
0.796506 0.115 1.535
0.652909 0.595 -1.625
0.755 0.617261 1.615
-0.76617 0.0941838 -0.605
-0.769003 0.116927 0.465
-0.814679 0.730163 -0.545
-0.841561 0.730433 0.535
0.766183 0.0941709 -0.605
0.769059 0.116871 0.465
0.814681 0.730162 -0.545
0.841564 0.730435 0.535
-1.46136 -0.152986 -2.56569
-1.45988 -0.138189 -1.70568
-1.52697 -0.173753 -0.635939
-1.5499 -0.173487 0.43179
-1.55547 -0.176559 1.50136
-1.5613 -0.196834 2.36054
-1.56488 -0.219909 3.22125
-1.45141 0.113197 -2.53709
-1.44992 0.148931 -1.67599
-1.54428 0.121361 -0.604306
-1.56167 0.116852 0.466481
-1.55756 0.0959581 1.53798
-1.56499 0.0740673 2.39729
-1.5696 0.0533223 3.25768
-1.44141 0.617675 -2.48271
-1.44144 0.654061 -1.62202
-1.57877 0.730694 -0.543519
-1.61085 0.719533 0.535694
-1.55269 0.636026 1.61401
-1.5649 0.614004 2.47291
-1.57681 0.603612 3.33168
-1.46426 1.47827 -2.39361
-1.47721 1.52469 -1.53143
-1.53855 1.59607 -0.449685
-1.58944 1.60492 0.634217
-1.59772 1.54919 1.71586
-1.59393 1.50686 2.57782
-1.59322 1.48172 3.43769
-0.723992 -0.152487 -2.56504
-0.699006 -0.136087 -1.70474
-0.752519 -0.188782 -0.636065
-0.76728 -0.174024 0.430526
-0.777375 -0.16574 1.49915
-0.783852 -0.19155 2.35904
-0.786608 -0.219149 3.22038
-0.721223 0.108165 -2.53689
-0.791511 0.077758 2.39606
-0.792403 0.052492 3.25702
-0.710312 0.592237 -2.48394
-0.788944 0.605779 2.47311
-0.799795 0.597945 3.33172
-0.707655 1.46319 -2.39484
-0.705725 1.51175 -1.53278
-0.751349 1.59549 -0.450497
-0.800458 1.60815 0.634315
-0.815047 1.54567 1.71655
-0.81338 1.50078 2.57852
-0.813288 1.47623 3.43819
0.706051 -0.152491 -2.56504
0.728002 -0.136091 -1.70474
0.771316 -0.188798 -0.636065
0.77921 -0.174064 0.430526
0.796109 -0.165755 1.49915
0.782558 -0.191562 2.35904
0.774444 -0.219162 3.22038
0.681831 0.108163 -2.53689
0.772944 0.0777501 2.39606
0.76726 0.0524806 3.25702
0.680733 0.592236 -2.48394
0.756384 0.605773 2.47311
0.756164 0.597935 3.33172
0.778506 1.46319 -2.39484
0.804058 1.51175 -1.53278
0.817189 1.59549 -0.450497
0.794332 1.60814 0.634314
0.763521 1.54566 1.71655
0.753625 1.50077 2.57852
0.750114 1.47622 3.43819
1.4403 -0.152995 -2.56569
1.46519 -0.1382 -1.70568
1.53415 -0.173782 -0.635939
1.56008 -0.173545 0.43179
1.57083 -0.176597 1.50136
1.56396 -0.196862 2.36054
1.55605 -0.219936 3.22125
1.41542 0.113191 -2.53709
1.43627 0.148925 -1.67599
1.53847 0.121338 -0.604306
1.56478 0.116793 0.466481
1.56372 0.0959261 1.53798
1.55613 0.0740438 2.39729
1.54955 0.0532973 3.25768
1.41634 0.61767 -2.48271
1.43419 0.654057 -1.62202
1.57613 0.730685 -0.543519
1.61067 0.719512 0.535694
1.55001 0.636005 1.61401
1.54061 0.613986 2.47291
1.53862 0.60359 3.33168
1.52395 1.47827 -2.39361
1.55531 1.52468 -1.53143
1.59116 1.59606 -0.449685
1.58639 1.6049 0.634217
1.55625 1.54918 1.71586
1.54111 1.50684 2.57782
1.53443 1.4817 3.43769
-0.616976 0.375 -1.60063
0 0.098078 -1.73192
-0.795122 0.0524444 -1.14
-0.819568 0.36613 1.61881
0 0.0933468 1.55665
-0.843052 0.055666 1
2.5034e-06 0.645281 -1.67528
-0.791363 0.720153 -1.085
0 0.693358 1.6911
-0.831406 0.706973 1.075
0.616979 0.375 -1.60064
0.795757 0.0518093 -1.14
0.819573 0.36613 1.61882
0.842908 0.0558102 1
0.791365 0.720151 -1.085
0.831426 0.706992 1.075
-0.765112 0.10803 -0.07
-0.841648 0.412174 -0.575
6.4353e-06 0.0659874 -0.605
-0.807748 0.42368 0.5
2.79664e-05 0.0723075 0.465
-0.831673 0.733852 -0.005
9.6297e-07 0.967538 -0.545
1.54042e-06 1.04254 0.535
0.764973 0.108169 -0.07
0.841646 0.412166 -0.575
0.807739 0.423653 0.5
0.831677 0.733853 -0.005
-0.8813 0.393587 -1.1125
0.881303 0.393583 -1.1125
3.21765e-06 0.0549377 -1.14
1.73318e-06 0.763212 -1.085
1.2517e-06 0.375 -1.87474
-0.830554 0.417927 -0.0375
0.830549 0.41791 -0.0375
1.72009e-05 0.0568427 -0.07
1.2517e-06 1.07964 -0.005
-0.868697 0.394905 1.0375
0.868696 0.394892 1.0375
1.39832e-05 0.0666909 1
7.70212e-07 0.939006 1.075
0 0.36613 1.9036
-0.661698 0.265 -1.65114
-0.339889 0.0977063 -1.73229
-0.765399 0.0757726 -1.4075
-0.818649 0.240565 1.58752
-0.398253 0.0903283 1.55967
-0.800625 0.104487 1.2675
-0.625383 0.485 -1.60326
-0.326451 0.628555 -1.65855
-0.74637 0.681814 -1.355
-0.795443 0.491696 1.62507
-0.3775 0.675421 1.67316
-0.819388 0.688302 1.345
0.339889 0.097709 -1.73229
0.661699 0.265 -1.65114
0.765596 0.0755761 -1.4075
0.398253 0.0956286 1.55437
0.819135 0.240565 1.58801
0.800615 0.104497 1.2675
0.326456 0.628535 -1.65853
0.625376 0.485 -1.60325
0.74636 0.681799 -1.355
0.3775 0.675406 1.67314
0.795442 0.491696 1.62507
0.819294 0.688208 1.345
-0.80203 0.0519303 -0.8725
-0.765016 0.101732 -0.3375
-0.816002 0.247132 -0.59
-0.393879 0.0584922 -0.605
-0.769304 0.12302 0.7325
-0.768704 0.110832 0.1975
-0.83746 0.245761 0.4825
-0.393119 0.0773547 0.465
-0.804172 0.726309 -0.815
-0.857362 0.585768 -0.56
-0.824644 0.733475 -0.275
-0.452275 0.938722 -0.545
-0.842791 0.72501 0.805
-0.832596 0.581028 0.5175
-0.835592 0.731117 0.265
-0.481945 1.00882 0.535
0.802031 0.051929 -0.8725
0.393888 0.0584926 -0.605
0.764988 0.10176 -0.3375
0.816026 0.247113 -0.59
0.769383 0.122941 0.7325
0.393209 0.0772578 0.465
0.768591 0.110945 0.1975
0.837458 0.245733 0.4825
0.804178 0.726312 -0.815
0.452301 0.938769 -0.545
0.857361 0.585763 -0.56
0.824651 0.733479 -0.275
0.842794 0.725012 0.805
0.481975 1.00887 0.535
0.832636 0.581036 0.5175
0.835593 0.731116 0.265
-0.871127 0.384293 -1.35657
-0.308487 0.375 -1.87025
1.60882e-06 0.0746163 -1.43596
6.25849e-07 0.236539 -1.87169
-0.869614 0.223016 -1.12625
-0.397559 0.0347771 -1.14
-0.855135 0.380518 1.32816
-0.409784 0.36613 1.83827
6.9916e-06 0.069031 1.27833
0 0.229739 1.86796
-0.853581 0.225286 1.01875
-0.421519 0.0455801 1
2.11829e-06 0.71354 -1.38014
1.87755e-06 0.51014 -1.8947
-0.888316 0.55687 -1.09875
-0.39568 0.732845 -1.085
3.85106e-07 0.852872 1.38305
0 0.529744 1.81805
-0.879238 0.550939 1.05625
-0.415703 0.901309 1.075
0.871134 0.384292 -1.35657
0.30849 0.375 -1.87028
0.86941 0.222696 -1.12625
0.39788 0.0347368 -1.14
0.855141 0.380511 1.32816
0.409786 0.36613 1.83825
0.853555 0.225351 1.01875
0.421461 0.045572 1
0.888336 0.556867 -1.09875
0.395683 0.732845 -1.085
0.879214 0.550942 1.05625
0.415714 0.901305 1.075
-0.828155 0.247817 -0.05375
-0.399105 0.0493203 -0.07
-0.890858 0.40288 -0.84375
-0.83671 0.41505 -0.30625
4.82647e-06 0.0458163 -0.8725
1.18181e-05 0.0674137 -0.3375
-0.824309 0.420804 0.23125
-0.864334 0.409293 0.76875
2.25836e-05 0.070814 0.1975
2.09748e-05 0.0816365 0.7325
-0.850103 0.585384 -0.02125
-0.485294 1.04566 -0.005
1.34808e-06 0.865488 -0.815
1.10733e-06 1.05216 -0.275
1.39606e-06 1.07768 0.265
1.15532e-06 0.996038 0.805
0.828129 0.247856 -0.05375
0.399136 0.0492246 -0.07
0.890893 0.402875 -0.84375
0.836707 0.415038 -0.30625
0.824303 0.420781 0.23125
0.864334 0.409272 0.76875
0.850099 0.585375 -0.02125
0.485326 1.04572 -0.005
-0.866344 0.244008 -1.38203
-0.881093 0.238097 -0.858125
-0.884436 0.564019 -0.829375
-0.871318 0.520935 -1.35578
0.866347 0.243848 -1.38203
0.871668 0.520934 -1.35578
0.884159 0.564016 -0.829375
0.881025 0.237933 -0.858125
-0.368724 0.0642207 -1.42173
0.368884 0.0642138 -1.42173
0.390487 0.0347324 -0.8725
-0.390321 0.0347314 -0.8725
-0.361066 0.705684 -1.36757
-0.40151 0.836148 -0.815
0.401512 0.836141 -0.815
0.361069 0.705686 -1.36757
-0.324188 0.25077 -1.85405
-0.317469 0.49757 -1.84697
0.317473 0.49757 -1.84694
0.32419 0.25077 -1.85385
-0.821326 0.247851 -0.321875
-0.836063 0.245162 0.214375
-0.845824 0.585443 0.248125
-0.854059 0.585739 -0.290625
0.821328 0.247859 -0.321875
0.854056 0.585732 -0.290625
0.845822 0.585433 0.248125
0.836068 0.245157 0.214375
-0.393994 0.0589022 -0.3375
0.39399 0.0589022 -0.3375
0.398383 0.0588192 0.1975
-0.398311 0.0589392 0.1975
-0.484649 1.02392 -0.275
-0.489615 1.03923 0.265
0.489609 1.03921 0.265
0.484655 1.02393 -0.275
-0.837793 0.247795 0.750625
-0.841069 0.232925 1.29783
-0.859379 0.521318 1.33658
-0.861146 0.563998 0.786875
0.837792 0.247807 0.750625
0.861218 0.563993 0.786875
0.85939 0.521319 1.33658
0.840547 0.232958 1.29783
-0.403003 0.0706252 0.7325
0.403002 0.0706103 0.7325
0.409857 0.064256 1.27291
-0.409886 0.064264 1.27291
-0.418241 0.966094 0.805
-0.396601 0.810829 1.36402
0.396607 0.810816 1.36402
0.418248 0.966097 0.805
-0.404018 0.235152 1.85786
0.40402 0.235152 1.85784
0.393643 0.51072 1.76474
-0.393642 0.51072 1.76454
-0.686957 0.21 -1.67929
-0.509833 0.111501 -1.7185
-0.729045 0.10893 -1.54125
-0.804464 0.177783 1.55815
-0.597379 0.100825 1.54918
-0.80047 0.107839 1.40125
-0.664959 0.54 -1.63995
-0.489677 0.610395 -1.64039
-0.698843 0.637613 -1.49
-0.778062 0.554478 1.62287
-0.56625 0.655583 1.65332
-0.793103 0.65869 1.48
0.509833 0.111484 -1.71852
0.687103 0.21 -1.67943
0.729275 0.1087 -1.54125
0.597379 0.10014 1.54986
0.804547 0.177783 1.55823
0.800493 0.107816 1.40125
0.489682 0.610288 -1.64029
0.665054 0.54 -1.64004
0.698852 0.637617 -1.49
0.56625 0.655527 1.65327
0.778002 0.554478 1.62281
0.793098 0.658685 1.48
-0.781052 0.0761049 -0.73875
-0.762588 0.100963 -0.47125
-0.81604 0.158181 -0.5975
-0.58792 0.0605476 -0.605
-0.767961 0.121166 0.59875
-0.768873 0.11386 0.33125
-0.817785 0.174068 0.47375
-0.588569 0.0821248 0.465
-0.808742 0.727553 -0.68
-0.853094 0.666502 -0.5525
-0.819679 0.731837 -0.41
-0.653485 0.874458 -0.545
-0.843856 0.729403 0.67
-0.860961 0.667672 0.52625
-0.838781 0.73098 0.4
-0.656253 0.858626 0.535
0.778109 0.0790483 -0.73875
0.587912 0.0605791 -0.605
0.762517 0.101034 -0.47125
0.816046 0.158171 -0.5975
0.767936 0.121191 0.59875
0.588468 0.0823958 0.465
0.768874 0.113859 0.33125
0.817793 0.174035 0.47375
0.808735 0.727542 -0.68
0.65348 0.874444 -0.545
0.853097 0.6665 -0.5525
0.81966 0.731814 -0.41
0.843861 0.729406 0.67
0.656253 0.85862 0.535
0.86094 0.667656 0.52625
0.838778 0.730976 0.4
-0.619886 0.32 -1.60644
-0.61399 0.43 -1.59476
-0.833622 0.379647 -1.4786
-0.462732 0.375 -1.76379
-0.169944 0.0928231 -1.73718
[...]
POINT_DATA 3682
SCALARS point_scalars float 1
LOOKUP_TABLE default
-31.1319
-48.6673
2.15676
-36.0421
-30.7414
-48.8088
2.1831
-36.061
-44.5874
-27.739
-59.1575
-43.9319
-44.3118
-27.7439
-59.1483
-43.9049
-15.1478
-72.8227
-65.8515
-27.9365
-43.6376
-39.8113
-32.6789
72.63
-114.842
-64.7591
-27.7573
-42.7484
-35.0259
-32.4201
63.8778
-104.519
-52.156
-35.2717
-44.2797
-33.7349
-32.532
-4.00235
-76.6545
-77.5573
-44.0632
-44.1004
-35.278
-32.0459
6.60228
-90.1045
-49.671
-28.5944
-45.2794
-32.8558
-31.4719
62.8879
-31.7308
-31.0768
128.627
-31.4373
-31.0768
-2.16677
-48.0822
-81.7323
-54.9888
-36.1052
-30.7311
-29.9611
-10.0084
-83.004
-46.6064
-28.5781
-45.3487
-32.8946
-31.4158
27.3944
-31.7593
-31.0919
114.083
-31.4367
-31.0919
5.772
-53.7048
-80.8202
-54.9934
-35.5253
-30.6314
-29.9872
-14.8483
-75.5495
-66.0235
-27.9171
-43.6417
-40.3268
-32.6611
72.2014
-114.757
-64.7118
-27.7103
-42.7119
-35.0097
-32.483
63.8915
-104.009
-52.1522
-35.2644
-44.2662
-33.7542
-32.5385
-3.96481
-78.6506
-57.1279
-44.0561
-44.0868
-35.2988
-32.0553
95.398
-95.7028
-71.4126
-42.0264
-39.0691
-64.3955
-25.435
-58.8618
-28.9938
-43.9395
95.6857
-69.7735
-42.0564
-64.5286
-58.9304
-44.0004
-32.4019
-46.6714
-45.7971
-29.6579
-32.4412
-50.3721
-35.3544
-59.1104
-32.3802
-46.6223
-29.6466
-50.3654
-78.1896
-78.2574
-58.1294
-1.19653
204.631
-35.9511
-35.9533
-36.4128
-86.5559
-43.968
-44.056
-38.2217
-39.8293
-20.7413
84.7134
-100.132
-71.7579
-45.399
-40.6923
-41.7748
81.6163
-24.1239
-53.2832
-38.2409
-29.9459
-44.1256
-99.941
84.1563
-73.7271
-41.4418
-45.5841
-41.602
-24.1207
81.9628
-53.2181
-29.9704
-38.2596
-44.1246
-60.3611
-35.1372
-46.4901
-45.5433
-21.3066
-29.8925
-27.6767
-29.4607
-56.916
-48.9102
-54.6895
-36.7809
-46.5942
-33.4693
-46.9124
-55.1483
-60.2649
-45.5444
-35.101
-46.3709
-21.4431
-29.487
-29.8772
-27.646
-56.9195
-36.8203
-48.8916
-54.6775
-46.6379
-55.1476
-33.4637
-46.9249
-128.23
179.51
-64.6062
204.978
-75.9343
-62.5298
-43.387
-30.4777
-41.0937
-28.0808
-51.0524
-41.4276
-29.1415
145.398
-77.3719
-13.6994
-32.4751
-24.6364
-44.7154
-40.9783
-128.194
179.424
-75.9433
-62.6422
-43.3873
-30.5079
-52.7633
-41.4676
-77.4351
-13.7055
-44.7596
-40.9894
-33.8331
-35.4201
-64.3077
-39.4039
-57.1587
-38.3416
-33.3173
-33.3066
-33.4854
-31.7263
-39.6254
-78.196
-6.68772
-91.3339
-73.8929
-48.3597
-33.8392
-35.4535
-64.3537
-39.3961
-33.3207
-33.2912
-39.6268
-78.2272
-123.095
-63.0441
-64.1314
-112.44
-123.059
-112.348
-64.1827
-63.3208
-67.6185
-67.5757
-58.9502
-58.9019
-35.56
-11.0523
-11.0571
-35.5566
158.418
123.712
124.028
157.986
-37.2127
-31.0355
-36.1005
-43.5557
-37.2075
-43.5489
-36.1014
-31.0542
-37.8611
-37.8418
-33.3276
-33.3094
-85.2013
-66.1562
-66.1416
-85.214
-25.1372
-43.0513
-43.4797
-33.3312
-24.9867
-33.35
-43.4881
-42.9414
-30.2396
-30.2857
-42.7361
-42.8911
-48.3668
-34.0917
-34.2244
-48.3677
-31.1141
-31.2748
-30.2081
-30.1799
38.9415
-99.7941
-67.9905
-47.3114
-43.9532
-43.036
68.3154
-22.8919
-37.4611
-36.936
-31.5445
-40.8538
-99.4202
38.3582
-67.4074
-43.9326
-47.3127
-43.0483
-22.6281
68.2966
-37.3945
-31.5689
-36.9501
-40.8635
-61.1752
-38.5365
-45.0154
-45.2976
-25.5903
-28.8916
-27.5358
-28.3079
-58.6224
-53.3274
-56.7272
-64.7691
-44.6309
-35.2086
-45.2041
-48.216
-60.1736
-45.272
-38.4434
-44.73
-25.6016
-28.3274
-28.8712
-27.5248
-58.6216
-64.8434
-53.3154
-56.7105
-44.6061
-47.9114
-35.2009
-45.2089
96.4545
93.5553
-103.897
118.312
-98.8422
-98.7825
-79.5383
91.8238
-86.8113
-62.9235
-74.5925
-67.2233
-44.0216
-40.3831
-42.9006
-31.3294
-39.5851
-39.8166
-40.7593
-31.0307
-44.2505
-10.4957
-63.3909
-52.4996
-24.8071
-24.7836
-33.948
-4.48688
-64.0724
-54.8877
-76.6178
-32.3424
-29.3135
-29.3287
-29.8433
-27.2138
-44.8296
-44.8063
-43.0215
-43.0077
96.1337
92.3708
-103.893
118.443
-86.5285
-66.757
-73.8542
-67.8842
-43.9809
-40.4002
-42.8896
-31.3313
-44.5468
-13.3572
-64.5222
-51.7605
-64.1502
-54.8712
-76.7529
-32.3565
-44.8675
-44.8222
-43.0397
-43.0232
-33.4682
-30.7018
-32.3855
-33.7151
-46.6096
-47.0243
-56.4135
-42.1334
-45.8003
-45.7974
-52.4257
-41.238
-28.6473
-31.4585
-31.7057
-27.0348
-31.9091
-31.9131
-32.6652
-32.3378
-52.464
-47.4123
-43.2792
-62.2424
-34.6145
-34.6175
-18.3678
-61.3418
-57.5357
-57.5385
-65.5892
-53.2824
-33.4802
-30.6851
-32.3711
-33.7787
-46.533
-46.9911
-56.3576
-42.11
-28.6195
-31.4478
-31.6978
-27.085
-52.451
-47.4224
-43.2798
-62.247
-97.2595
-77.6946
-78.0955
-68.1261
-97.2808
-77.771
-78.1579
-68.2356
-59.923
-59.559
-59.6113
-61.3588
-14.0218
-4.03774
-4.08011
-1.02444
198.043
205.389
193.931
197.94
-34.9207
-37.4872
-34.5747
-37.5378
-34.9256
-37.4868
-34.5803
-37.5389
-36.2256
-35.8895
-36.9358
-36.2413
-85.1083
-92.8029
-81.1406
-85.1116
-43.7103
-44.7909
-45.4453
-45.6461
-43.7816
-45.0733
-45.4949
-45.6918
-39.6175
-38.7845
-38.9
-32.0663
-35.758
-40.1213
-40.1293
-43.9117
-25.1393
-23.1084
-22.241
-25.2145
-85.0953
128.378
-86.6319
93.7776
-96.0133
-73.9147
-42.5935
-33.2684
-42.0748
-32.3049
-42.6185
-43.6841
-64.7361
126.421
-36.0204
9.36643
-81.0945
-43.2546
-43.8513
-31.0396
-31.3928
-29.8249
-45.1305
-37.0399
-86.8931
93.8453
-84.5523
128.863
-95.5656
-74.7814
-42.3834
-34.3889
-42.5622
-33.2546
-42.5468
-43.9457
-35.9985
9.24996
-64.4929
123.318
-80.9868
-43.2467
-31.4154
-29.8539
-43.8328
-31.0547
-45.1453
-37.0552
-58.5658
-60.5503
-35.6703
-37.4354
-60.0922
-40.3993
-53.6821
-40.7557
-22.2584
-26.5706
-29.9899
-33.0649
-28.9284
-26.766
-31.1825
-30.1817
-62.4509
-31.0327
-54.9702
-45.8489
-47.8933
-70.3218
-21.2563
-64.5253
-40.0491
-48.0137
-34.7984
-32.6973
-38.0414
-54.5389
-60.2003
-52.2724
-58.7432
-60.7753
-54.1449
-40.7496
-35.6336
-37.4094
-59.8323
-40.3677
-22.1711
-26.6179
-31.2039
-30.1444
-29.9751
-33.0589
-28.9427
-26.7266
-62.4684
-31.0528
-21.2579
-64.4587
-54.963
-45.836
-47.8851
-70.3599
-40.0727
-48.0171
-60.204
-52.2929
-34.7943
-32.6907
-38.0492
-54.5428
-130.007
-125.948
168.664
167.739
-64.3552
-64.2451
194.969
194.787
-94.0346
-66.4155
-62.1683
-62.7899
-43.3941
-43.3323
-30.4595
-30.4642
-41.4872
-41.3785
-29.2745
-29.3071
-43.9044
-43.6515
-30.7587
-43.7912
-30.3651
-30.3597
151.226
149.435
-67.1522
-102.029
-25.8245
-7.90727
-32.9537
-32.9645
-26.9856
-26.9691
-44.1572
-39.4228
-44.5663
-37.314
-129.972
-125.965
167.964
168.611
-93.9541
-66.8169
-62.1355
-62.7346
-43.3462
-43.3727
-30.4914
-30.4865
-43.9624
-43.7415
-30.9091
-44.1002
-102.106
-67.1044
-7.91047
-25.833
-39.4378
-44.1943
-37.3258
-44.5727
-35.3141
-32.6565
-35.2016
-36.5339
-63.8996
-64.4311
-38.2511
-40.904
-57.5769
-57.5669
-38.0766
-38.0789
-32.2469
-34.5883
-29.8662
-34.5272
-32.6957
-32.6556
-31.8814
-31.8457
-37.7634
-41.5825
-85.135
-71.2568
-7.45906
-7.48745
-91.5199
-91.4892
-71.5914
-71.5976
-48.7451
-48.7457
-35.3173
-32.6464
-35.2388
-36.5344
-64.4329
-63.9791
-38.2436
-40.8961
-34.5903
-32.2651
-29.7995
-34.5318
-41.5777
-37.7664
-71.2561
-85.1039
-63.8389
-95.2038
-95.8115
-102.413
-65.6805
-58.2664
-67.9306
-63.3598
-57.3075
-65.1809
-67.8842
-55.3911
-38.7496
-95.1104
-100.236
-90.5152
-63.6604
-102.215
-95.7837
-95.0786
-39.6332
-90.4974
-100.27
-94.9298
-57.3036
-55.3667
-67.943
-65.2185
-64.6898
-65.6476
-68.1495
-58.1591
-85.0918
-82.0763
-59.6832
-71.3936
-84.6053
-70.7113
-59.635
-82.2556
-55.6646
-52.9369
-61.2464
-64.2944
-55.3317
-64.3014
-61.2829
-52.8984
-34.5927
-40.3195
-16.7691
-34.8554
-51.2012
-17.3436
-2.32126
-26.994
-51.2097
-26.9764
-2.30367
-17.3394
-34.5624
-34.867
-16.7775
-40.33
98.4395
120.743
197.912
109.516
72.4246
-5.61284
192.445
115.454
69.9397
115.274
192.754
-5.73682
98.411
109.471
197.957
120.894
-38.7436
-33.8573
-36.344
-41.2325
-28.7039
-30.6546
-33.5496
-31.0953
-36.2719
-40.6925
-36.0295
-33.245
-50.1006
-43.0758
-39.0118
-45.6422
-38.646
-41.2001
-36.3461
-33.8401
-50.0889
-45.6286
-39.0097
-43.0584
-36.2663
-33.237
-36.0331
-40.6963
-28.6906
-31.0861
-33.5497
-30.658
-40.2116
-41.1177
-35.7724
-35.6379
-40.1993
-35.6111
-35.7806
-41.1166
-29.8064
-32.7461
-37.108
-32.7707
-29.8063
-32.6829
-37.0965
-32.7017
-77.2069
-65.8462
-94.2583
-60.2149
-51.7777
-63.584
-78.8317
-57.897
-51.7594
-57.9127
-78.8288
-63.5879
-77.0875
-60.2211
-94.2709
-65.863
-25.5388
-28.8135
-48.5182
-25.9147
-43.1318
-42.6237
-43.4514
-43.1407
-44.5318
-44.94
-43.8879
-43.2649
-34.7269
-29.3661
-41.8704
-42.1683
-25.5244
-25.8864
-48.5684
-27.3584
-34.7268
-42.1699
-41.8969
-29.3594
-44.5345
-43.2304
-43.9441
-45.0817
-43.1141
-43.3561
-43.5688
-42.6128
-27.8861
-31.4474
-32.3999
-25.9385
-27.8796
-26.1659
-32.3289
-31.4676
-43.4707
-41.2997
-40.5544
-44.6677
-43.3734
-44.7676
-40.4885
-41.0677
-48.754
-46.1094
-44.0004
-52.7803
-34.1466
-30.1607
-36.1345
-40.3085
-34.1651
-40.3164
-36.1422
-30.1763
-48.7432
-52.786
-44.0028
-46.1156
-36.0794
-32.3238
-26.2848
-32.1463
-35.9582
-32.1279
-26.3679
-32.3038
-31.2677
-28.2216
-26.1513
-30.7699
-31.246
-30.7415
-26.0786
-28.1894
-1.51769
-84.3643
-63.6952
-48.499
-46.5626
-43.7832
36.7011
-26.5494
-40.5693
-36.7744
-33.1907
-37.9354
-83.7762
-1.52276
-63.0389
-46.5272
-48.508
-43.7955
-26.3145
36.711
-40.4966
-33.2111
-36.7901
-37.9471
-50.5287
-41.0313
-45.1835
-44.9588
-26.8156
-28.2359
-27.5632
-28.2778
-60.4103
-56.3604
-57.5999
-67.0678
-44.0628
-40.1489
-44.4958
-46.7725
-49.9761
-44.8636
-40.8931
-44.6593
-26.8283
-28.2795
-28.2256
-27.5591
-60.4
-67.0925
-56.3512
-57.5886
-44.0439
-46.8634
-40.1329
-44.4889
95.5608
96.0647
-27.3928
101.336
-97.0678
-97.087
-90.0069
-23.9738
-80.3522
-66.4395
-74.2122
-68.7933
-43.0668
-41.1897
-43.4433
-33.4128
-39.1377
-39.2399
-40.1761
-34.0205
-56.6075
-38.8803
-67.3434
-59.5884
-24.6583
-24.6418
-38.454
-15.345
-60.5893
-54.8883
-74.291
-42.6179
-29.0558
-29.0597
-29.1402
-28.3699
-43.6939
-44.0954
-43.2506
-43.2118
95.5487
95.1669
-27.2508
100.773
-79.6185
-62.5722
-72.4832
-69.4599
-43.0414
-41.206
-43.407
-33.4248
-57.0711
-38.0507
-67.6689
-59.9895
-60.6442
-54.9502
-74.4099
-42.641
-43.7753
-44.1056
-43.2672
-43.2364
-33.3079
-31.4894
-32.2883
-33.0917
-46.6879
-46.7574
-50.5121
-44.0881
-45.6649
-45.6636
-48.6584
-43.1739
-29.3426
-30.3502
-30.5395
-28.584
-32.4151
-32.3632
-32.5043
-32.604
-51.3556
-48.9865
-47.0217
-56.8785
-34.9465
-34.6935
-25.1318
-46.9433
-58.5966
-58.5987
-62.3936
-55.857
-33.3279
-31.464
-32.2667
-33.1938
-46.6289
-46.7157
-50.457
-44.0539
-29.3173
-30.3403
-30.5286
-28.5884
-51.3513
-48.9832
-47.0192
-56.8688
-86.0013
-78.3273
-78.3606
-71.8357
-86.0356
-78.4055
-78.4226
-71.9304
-58.8109
-59.1299
-59.1466
-59.8753
-6.81969
-1.95436
-1.97353
0.774324
200.217
205.635
197.973
199.796
-35.3642
-36.6817
-35.2331
-36.7188
-35.3676
-36.6832
-35.2365
-36.7202
-36.409
-35.4943
-37.3886
-36.4153
-85.5652
-90.617
-84.3113
-85.5825
-43.6575
-44.7896
-44.5008
-47.7301
-43.7503
-44.9139
-44.5719
-47.8229
-38.9699
-38.9766
-39.0249
-35.2056
-37.8933
-39.9323
-39.9355
-41.8835
-21.8909
-21.1177
-21.4373
-21.9619
65.115
93.9706
-34.4588
106.935
-106.159
-98.5871
-95.5587
-27.3194
-72.1794
-86.113
-75.0668
-79.5229
-46.5936
-44.6115
-42.9436
-36.3166
-42.5565
-40.164
-41.7246
-33.524
-41.7107
-42.3259
-42.4275
-42.3131
80.0719
88.8433
32.8146
105.012
-24.1961
-23.7697
-32.2188
-10.8705
-43.8627
-55.9319
-66.542
-49.4398
-37.179
-39.3075
-42.1931
-32.1039
-30.5097
-29.5787
-30.2914
-29.9265
-43.2712
-45.5508
-46.1663
-39.789
-106.065
-98.6055
-95.2657
-27.2245
64.7114
93.5961
-33.9268
106.417
-70.651
-84.7027
-74.4602
-80.0184
-42.6146
-40.6338
-42.5316
-37.1828
-47.0483
-44.6471
-42.8905
-36.2706
-41.6881
-42.3584
-42.3316
-42.4799
-24.0376
-23.7477
-32.1294
-11.5103
80.4226
89.2482
28.8675
103.339
-43.8011
-55.9201
-66.4401
-49.4051
-30.5409
-29.5971
-30.3149
-29.9502
-37.1938
-39.3277
-42.1984
-32.129
-43.2644
-45.5594
-46.2081
-39.7976
-67.1092
-61.3755
-56.4063
-61.5504
-36.4479
-33.9416
-35.0524
-36.645
-45.8072
-46.5758
-51.837
-42.8868
-45.5038
-45.7068
-48.5079
-42.8566
-23.8513
-16.0666
-21.0395
-24.1144
-29.5161
-30.062
-29.8357
-31.2911
-27.6038
-28.1116
-28.3626
-27.2398
-28.7853
-30.2919
-30.4376
-29.1575
-58.1837
-55.0735
-61.351
-49.038
-50.7714
-47.8819
-51.0777
-47.1672
-55.6751
-53.5546
-51.6191
-61.6703
-45.7086
-33.2168
-27.9077
-50.3581
-45.6135
-46.7823
-43.5576
-46.4497
-33.6834
-32.5116
-34.0031
-32.9526
-46.0277
-48.1259
-40.8371
-50.925
-52.4818
-56.5056
-57.1355
-54.238
-66.6265
-69.654
-56.7891
-61.6455
-45.501
-45.7098
-48.5236
-42.8541
-36.3907
-33.9222
-35.0073
-36.6244
-45.6178
-46.4768
-51.6375
-42.8168
-23.9006
-17.3081
-21.0844
-24.1989
-28.7659
-30.305
-30.4528
-29.1285
-29.4853
-30.0619
-29.8184
-31.2915
-27.5809
-28.0722
-28.3515
-27.2162
-58.1932
-55.0474
-61.361
-49.0717
-45.887
-33.221
-27.9179
-50.7851
-50.7563
-47.8596
-51.0582
-47.1501
-55.6607
-53.5465
-51.6075
-61.6672
-45.6304
-46.8035
-43.5876
-46.5855
-52.3822
-56.5057
-57.0888
-54.2444
-33.6803
-32.5031
-33.9952
-32.9509
-46.0216
-48.1449
-40.849
-50.9319
-139.731
-109.264
-130.918
-129.163
135.474
198.201
174.453
173.96
-70.23
-61.1826
-63.8616
-63.7593
178.792
204.829
202.107
201.672
-75.0361
-76.4504
-84.9718
-69.7626
-65.7674
-59.8166
-60.1171
-65.0804
-42.6955
-43.8668
-43.5673
-43.3773
-30.5579
-28.7775
-30.2011
-30.5835
-41.2693
-40.3238
-41.1974
-41.1359
-29.0834
-26.1693
-28.3015
-28.3028
-56.0473
-46.884
-57.203
-45.6147
-44.1258
-39.4436
-35.357
-41.9488
-32.8488
-21.6631
-29.1852
-29.1881
40.6071
192.645
150.552
150.104
-77.3607
-77.7082
-70.6121
-87.6423
-21.5168
-8.24688
-19.4359
-9.71337
-31.0326
-34.0021
-32.6302
-32.6363
-25.8473
-23.8039
-25.3455
-25.3145
-43.3071
-45.4097
-43.7474
-44.4148
-42.0104
-40.5401
-42.8291
-39.0944
-139.555
-109.273
-130.841
-129.162
134.66
198.058
173.954
174.352
-74.9472
-76.5077
-84.8477
-70.0336
-65.9115
-59.8922
-60.1462
-65.0823
-42.687
-43.9047
-43.3899
-43.5609
-30.5753
-28.8232
-30.2393
-30.6078
-57.4108
-47.2396
-58.2928
-45.8845
-43.9029
-39.5156
-35.3324
-42.0725
-77.4728
-77.7693
-87.7251
-70.6343
-21.5243
-8.25656
-9.71719
-19.4422
-43.3356
-45.4564
-44.4314
-43.7724
-42.0217
-40.5506
-39.1054
-42.8373
-32.987
-34.5736
-34.4659
-32.9803
-34.2842
-35.8958
-34.489
-36.362
-61.8738
-66.0191
-63.9958
-64.8737
-40.6178
-38.3704
-38.7836
-40.1201
-55.9745
-59.3861
-57.0621
-57.0592
-39.7155
-37.1124
-38.3379
-38.3361
-32.4778
-33.8985
-32.7497
-33.8963
-28.0767
-36.1874
-32.5379
-35.3738
-33.0842
-35.0017
-33.3966
-33.3862
-31.7544
-31.7485
-31.7273
-31.7661
-41.1267
-38.3551
-38.7097
-40.5327
-70.8071
-82.5942
-82.8042
-74.1107
-12.2357
-3.05198
-6.9269
-6.91407
-81.1137
-92.3917
-92.0906
-92.0879
-69.8262
-77.1529
-73.124
-73.125
-50.6042
-46.2224
-48.4096
-48.411
-32.987
-34.5795
-34.4701
-32.9806
-34.3466
-35.9198
-34.6114
-36.4394
-61.8617
-66.113
-64.9276
-64.0534
-40.6037
-38.3671
-38.7761
-40.1121
-32.477
-33.9041
-33.8989
-32.7555
-28.0744
-36.1842
-32.5036
-35.3664
-41.1281
-38.3562
-40.5299
-38.7122
-70.8703
-82.6026
-74.1574
-82.7676
-102.365
-110.076
-128.156
-111.347
-61.6569
-62.151
-64.4183
-63.5278
-63.3031
-59.3508
-66.5423
-64.1354
-96.9246
-97.7647
-124.283
-109.884
-102.081
-109.88
-128.154
-111.303
-96.2615
-97.6074
-124.347
-110.068
-63.3377
-59.3049
-66.6175
-64.1278
-61.9554
-62.0893
-64.8896
-63.6635
-74.965
-70.6527
-65.7455
-64.1512
-75.2713
-70.8914
-65.639
-64.0874
-59.711
-59.0684
-61.0536
-58.2429
-59.6123
-59.0407
-60.9967
-58.2201
-34.7475
-39.5425
-32.1963
-32.024
-17.5233
-15.1871
-8.4186
-8.0843
-17.5494
-15.1661
-8.42562
-8.09742
-34.7353
-39.5392
-32.2127
-32.0269
143.237
141.356
163.267
184.091
112.453
75.0806
149.613
131.189
74.8071
111.09
131.199
149.946
141.311
143.192
183.728
162.902
-36.446
-38.4962
-36.0714
-37.7325
-30.3368
-30.1416
-32.036
-31.6334
-35.4066
-36.9041
-35.3088
-36.9003
-44.5486
-45.5491
-42.0523
-42.4696
-36.4327
-38.4792
-36.0724
-37.7267
-44.5401
-45.5423
-42.0445
-42.4652
-35.4045
-36.9072
-35.3098
-36.9032
-30.3386
-30.1485
-32.0374
-31.665
-37.8091
-39.1705
-36.6905
-37.9773
-39.1581
-37.783
-37.9684
-36.6368
-33.2358
-34.5752
-32.2774
-33.8056
-34.5567
-33.2046
-33.8622
-32.2695
-81.3444
-75.3182
-85.551
-87.7348
-59.3218
-62.6257
-68.4361
-69.6784
-62.6244
-59.3227
-69.6931
-68.4147
-75.2525
-81.3863
-87.0726
-85.5978
-23.6712
-26.1734
-23.8097
-27.413
-43.4583
-42.8325
-43.1886
-42.9049
-43.3001
-44.1242
-43.4244
-44.2098
-36.243
-31.3658
-41.2512
-33.5793
-23.5431
-26.1055
-23.574
-27.3018
-36.2657
-31.3686
-41.2853
-33.5905
-43.2971
-44.1283
-43.4398
-44.263
-43.3822
-42.7542
-43.152
-42.965
-28.4566
-30.7818
-30.5533
-31.3451
-28.5029
-30.8178
-30.6087
-31.4113
-42.789
-44.2227
-41.9422
-43.9374
-42.51
-44.2304
-41.8245
-43.9098
-48.871
-50.8334
-46.4722
-48.7054
-32.6166
-35.3428
-33.4234
-35.6178
-32.635
-35.3604
-33.441
-35.632
-48.8816
-50.8523
-46.4776
-48.7168
-32.1478
-31.2119
-30.8895
-30.2351
-32.2588
-32.1985
-30.2535
-30.9092
-30.0511
-30.8365
-29.1599
-30.3515
-30.8183
-30.0206
-30.3278
-29.1454
-46.1636
80.8105
-96.8287
4.18783
-59.1421
-84.0396
-43.913
-39.4435
-44.667
-39.2896
-43.3069
-43.0072
19.0534
61.4194
-30.978
1.8304
-39.4275
-35.2843
-40.8175
-32.6459
-32.6895
-31.3253
-43.3139
-36.8518
-96.5914
4.03358
-45.5842
78.2855
-58.8175
-83.8416
-44.6095
-39.1041
-43.8915
-39.3066
-43.2988
-43.0222
-30.8961
2.3227
18.786
61.6033
-39.2562
-35.2848
-32.7138
-31.3518
-40.8243
-32.6622
-43.3127
-36.8693
-63.0011
-57.4218
-38.3243
-39.8123
-51.4051
-41.4666
-48.9976
-42.3011
-25.3891
-27.0097
-28.692
-29.6139
-28.1449
-26.7219
-29.1461
-27.2155
-58.383
-60.797
-55.2106
-51.3796
-53.667
-64.744
-60.529
-76.1667
-40.9545
-47.4174
-35.6624
-34.6191
-40.4029
-48.704
-49.4826
-49.6504
-62.3089
-57.4485
-48.9807
-42.2854
-38.2171
-39.7759
-51.102
-41.2838
-25.3881
-27.0477
-29.1467
-27.1842
-28.6731
-29.6145
-28.1285
-26.7082
-58.3801
-60.7995
-60.7894
-76.06
-55.2032
-51.3616
-53.6533
-64.7229
-40.9474
-47.3575
-49.3067
-49.6222
-35.6573
-34.6124
-40.3967
-48.7153
-42.39
100.694
-25.1492
101.081
-103.776
-99.2836
120.278
115.869
-93.9719
-37.5502
-94.0288
-37.0639
-80.5481
-80.5763
113.645
113.792
-94.4024
-77.6784
-62.4118
-64.8007
-86.1111
-67.4416
-69.4901
-67.0676
-43.6124
-34.5545
-42.9417
-32.2928
-42.7597
-43.046
-31.8769
-30.7386
-40.8906
-35.1574
-41.1145
-35.4913
-40.9659
-40.8868
-31.4505
-31.4462
-43.2909
-46.817
-19.0606
-19.0121
-69.7218
-48.002
-37.6211
-48.5227
-35.25
-19.5844
-35.1203
-19.6321
-34.4068
-34.4147
-6.36606
-7.06641
-77.2487
-49.6208
-63.9449
-40.3717
-69.4511
-84.6694
-36.6
-28.7682
-29.4617
-28.9901
-29.4736
-29.026
-29.9145
-29.9384
-27.5039
-27.5428
-45.1766
-41.9816
-43.9395
-45.0939
-43.4936
-42.5441
-44.5843
-41.9036
-44.2196
100.273
-25.0483
98.7764
-103.703
-99.2509
115.867
120.516
-94.2868
-75.6288
-66.6955
-65.218
-85.6086
-67.3629
-69.2705
-67.251
-43.5376
-34.5527
-42.9337
-32.2997
-43.0251
-42.7523
-31.8522
-30.7576
-43.5903
-46.8671
-21.0235
-19.4939
-68.3215
-48.5398
-38.0196
-48.5649
-77.3259
-49.6559
-63.9606
-40.3439
-84.7003
-69.4757
-28.7806
-36.6074
-45.3231
-41.9941
-43.9539
-45.1157
-42.5464
-43.3866
-41.915
-44.5953
-33.5087
-34.5392
-30.7915
-31.9732
-33.2093
-31.6009
-34.0453
-33.5273
-51.2939
-43.4932
-50.4984
-44.8894
-57.2288
-55.7765
-41.6898
-42.6177
-48.5897
-42.9938
-48.6013
-42.9952
-52.1727
-52.1698
-41.1802
-41.1785
-30.2854
-26.1466
-32.3475
-30.3472
-31.1478
-32.4244
-26.2333
-26.9003
-32.306
-31.4081
-32.3677
-31.4803
-32.6602
-32.6486
-32.2012
-32.2408
-49.3645
-59.0312
-44.0261
-53.2305
-42.0137
-44.4547
-63.9542
-60.1541
-23.881
-46.8859
-23.8814
-46.9018
-17.9634
-17.9464
-60.5702
-60.5172
-60.5226
-53.9524
-60.5248
-53.9554
-65.1908
-65.1911
-53.3759
-53.3769
-33.4901
-34.5611
-30.7778
-31.9624
-33.1911
-31.5948
-34.0729
-33.6111
-51.1916
-43.4396
-50.4695
-44.8672
-55.7354
-57.158
-41.6625
-42.5977
-30.2531
-26.125
-32.3399
-30.3396
-32.4172
-31.141
-26.227
-26.9052
-49.3479
-59.0276
-44.031
-53.2582
-44.4423
-42.0162
-60.1672
-63.9614
-97.0922
-98.9819
-85.8364
-71.7575
-71.4438
-86.4028
-68.063
-68.3041
-97.1056
-99.0034
-85.8296
-71.9305
-86.4462
-71.505
-68.3788
-68.22
-59.7964
-59.7811
-56.9324
-63.5385
-56.9689
-63.5254
-60.9158
-60.9338
-14.4895
-14.4966
-9.59836
-1.78403
-1.80254