# vtk DataFile Version 2.0
tri_press
ASCII
DATASET UNSTRUCTURED_GRID
POINTS 3682 float
-0.716036 0.345 -1.955
-0.725 0.345 1.82368
-0.751906 0.805 -1.915
-0.745 0.813854 1.945
0.723326 0.345 -1.955
0.711319 0.345 1.825
0.739806 0.805 -1.915
0.725 0.805 1.96243
-0.758378 0.305646 -0.69544
-0.760228 0.306784 0.56412
-0.794239 0.852586 -0.628333
-0.79119 0.854791 0.658334
0.752062 0.312262 -0.695
0.750688 0.309633 0.565
0.782625 0.852754 -0.622523
0.77974 0.854805 0.669953
-1.47697 0.077743 -3.014
-1.48126 0.0782139 -1.99388
-1.51155 0.0506752 -0.735549
-1.51525 0.0473389 0.516291
-1.49127 0.0720992 1.77405
-1.48631 0.078161 2.79143
-1.49109 0.074857 3.8137
-1.47915 0.329437 -2.98299
-1.48382 0.339223 -1.95969
-1.52196 0.315408 -0.696022
-1.51966 0.308081 0.56438
-1.48211 0.325267 1.82751
-1.48025 0.329637 2.84587
-1.48874 0.326794 3.86753
-1.49806 0.817583 -2.92995
-1.51291 0.82795 -1.9083
-1.55165 0.85159 -0.626052
-1.54569 0.845696 0.657393
-1.50132 0.819839 1.93945
-1.49259 0.822601 2.9592
-1.4971 0.826172 3.97785
-1.52012 1.58868 -2.82873
-1.53045 1.60391 -1.80287
-1.54683 1.6294 -0.509735
-1.55285 1.6324 0.789278
-1.54356 1.61229 2.08268
-1.53313 1.60027 3.10907
-1.52699 1.59654 4.12994
-0.725133 0.0803055 -3.01086
-0.722688 0.0822419 -1.98968
-0.751517 0.0463205 -0.734047
-0.761224 0.0471202 0.515165
-0.745859 0.0838359 1.77064
-0.740952 0.0856828 2.79052
-0.744066 0.0783538 3.81473
-0.726293 0.329451 -2.98121
-0.733528 0.336096 2.84669
-0.741442 0.329279 3.86965
-0.742711 0.808548 -2.93231
-0.743222 0.820196 2.96497
-0.747904 0.824911 3.98263
-0.759198 1.58344 -2.83038
-0.765362 1.5994 -1.80451
-0.778787 1.62991 -0.509037
-0.788868 1.63434 0.793553
-0.786893 1.6106 2.08928
-0.778965 1.59736 3.11572
-0.773512 1.5941 4.13584
0.754277 0.0813076 -3.00951
0.746954 0.0837947 -1.98888
0.75546 0.0510844 -0.732843
0.745149 0.049779 0.516943
0.720226 0.0842507 1.77317
0.732019 0.0848604 2.79554
0.741081 0.0772406 3.82104
0.74833 0.330011 -2.98018
0.732887 0.334281 2.85284
0.741803 0.327573 3.87676
0.749566 0.808884 -2.93106
0.735228 0.815685 2.97619
0.740611 0.822234 3.99163
0.758818 1.58405 -2.82698
0.76175 1.59994 -1.80047
0.761549 1.63029 -0.503063
0.748145 1.63384 0.801991
0.731941 1.6086 2.09928
0.72985 1.59505 3.12553
0.732049 1.59214 4.14483
1.50052 0.0800839 -3.01043
1.49554 0.0816904 -1.99064
1.5112 0.0575165 -0.730949
1.50369 0.0514085 0.522949
1.47471 0.0721386 1.78268
1.4776 0.0765448 2.80263
1.48676 0.0728639 3.82646
1.4945 0.331093 -2.97977
1.48605 0.34137 -1.95666
1.5147 0.322288 -0.690728
1.51111 0.311444 0.572871
1.47168 0.323187 1.83856
1.47636 0.326343 2.85921
1.48653 0.323787 3.8817
1.49989 0.81866 -2.92615
1.50115 0.828786 -1.90408
1.53809 0.854045 -0.616134
1.53329 0.845822 0.674625
1.48464 0.811987 1.96203
1.48143 0.815945 2.97905
1.48731 0.821603 3.99511
1.51687 1.59 -2.8216
1.52232 1.60512 -1.7945
1.52702 1.6303 -0.497978
1.51503 1.63168 0.80529
1.49436 1.60903 2.10142
1.487 1.59634 3.12771
1.48632 1.59306 4.14738
-0.718206 0.575 -1.91924
0.003645 0.360219 -1.93978
-0.745542 0.316988 -1.32522
-0.765931 0.579427 1.91527
-0.0068405 0.312495 1.85685
-0.769077 0.299429 1.1939
-0.00604999 0.858914 -1.96891
-0.792294 0.848014 -1.27167
-0.00999999 0.842316 1.9866
-0.780119 0.846346 1.30167
0.71157 0.575 -1.915
0.749673 0.316652 -1.325
0.749198 0.575 1.92475
0.760006 0.298314 1.195
0.782319 0.849981 -1.26876
0.767453 0.844985 1.31619
-0.759519 0.305999 -0.06566
-0.817147 0.579116 -0.661887
-0.00315801 0.273227 -0.69522
-0.816034 0.580788 0.611227
-0.00476983 0.275687 0.56456
-0.793571 0.854545 0.015
-0.00580671 1.39747 -0.625428
-0.00572521 1.42705 0.664143
0.751628 0.310695 -0.065
0.805533 0.582508 -0.658762
0.804439 0.582219 0.617477
0.782007 0.854604 0.023715
-0.892197 0.577058 -1.29844
0.875667 0.578754 -1.29688
0.000243497 0.282499 -1.32511
-0.00592835 0.973661 -1.27021
-0.00120249 0.575 -1.94663
-0.816635 0.579952 -0.02533
0.804984 0.582364 -0.0206425
-0.00396392 0.271642 -0.06533
-0.00576596 1.44217 0.0193575
-0.876347 0.580107 1.24778
0.874806 0.578609 1.2556
-0.00580517 0.281927 1.19445
-0.0078626 1.01478 1.30893
-0.00842024 0.577213 1.99522
-0.716936 0.46 -1.93693
-0.356196 0.36023 -1.93977
-0.738698 0.323085 -1.64011
-0.75004 0.462213 1.87405
-0.36592 0.31417 1.85484
-0.742164 0.327089 1.50879
-0.737488 0.69 -1.91955
-0.378978 0.842834 -1.95283
-0.780093 0.834501 -1.59333
-0.761424 0.69664 1.93609
-0.3775 0.839506 1.97722
-0.761236 0.828777 1.62333
0.363486 0.360209 -1.93979
0.710796 0.46 -1.92835
0.738121 0.329205 -1.64
0.352239 0.314274 1.8554
0.736598 0.46 1.88122
0.730023 0.327296 1.51
0.366878 0.842838 -1.95284
0.727411 0.69 -1.91673
0.769272 0.8357 -1.59188
0.3575 0.833937 1.9848
0.745151 0.69 1.95164
0.748656 0.827422 1.63931
-0.776524 0.286753 -1.01033
-0.758994 0.305777 -0.38055
-0.80295 0.434787 -0.678663
-0.388777 0.273418 -0.69533
-0.772484 0.295275 0.87901
-0.759901 0.306364 0.24923
-0.801389 0.437157 0.587673
-0.388994 0.278246 0.56434
-0.799143 0.856177 -0.95
-0.817441 0.721725 -0.64511
-0.793915 0.853576 -0.306667
-0.513172 1.35133 -0.626881
-0.789801 0.854715 0.98
-0.816025 0.723996 0.63478
-0.792317 0.854604 0.336667
-0.518553 1.38111 0.661239
0.777065 0.288259 -1.01
0.38414 0.273369 -0.69511
0.751873 0.311451 -0.38
0.792056 0.440756 -0.676881
0.766372 0.292949 0.88
0.380164 0.27825 0.56478
0.751189 0.310133 0.25
0.790282 0.439567 0.591238
0.788499 0.857395 -0.945643
0.502766 1.35383 -0.623976
0.806135 0.723659 -0.640643
0.782325 0.853688 -0.299404
0.777608 0.853907 0.993073
0.50684 1.38059 0.667048
0.80457 0.724752 0.643715
0.780897 0.854728 0.346834
-0.880859 0.576029 -1.60884
-0.359704 0.575 -1.94823
0.00194425 0.288544 -1.63245
0.00122125 0.46761 -1.98466
-0.876831 0.447023 -1.31183
-0.372649 0.28034 -1.32517
-0.781896 0.579767 1.58153
-0.387175 0.57832 1.9852
-0.00632283 0.290115 1.52565
-0.00763037 0.444854 1.97403
-0.877377 0.439768 1.22084
-0.387441 0.281869 1.19418
-0.00598917 0.945252 -1.61956
-0.00362624 0.716957 -1.9613
-0.87028 0.712536 -1.28506
-0.399111 0.93368 -1.27094
-0.0089313 0.900855 1.64777
-0.00921012 0.709765 2.01764
-0.803217 0.713227 1.27473
-0.393991 0.98077 1.3053
0.867733 0.576877 -1.60594
0.355184 0.575 -1.95382
0.862538 0.447703 -1.31094
0.374958 0.284295 -1.32506
0.768979 0.576805 1.59017
0.370389 0.576107 1.98486
0.876844 0.438462 1.2253
0.377101 0.281881 1.19473
0.863574 0.714367 -1.28282
0.388195 0.943549 -1.26949
0.790665 0.711797 1.28589
0.379795 0.970519 1.31256
-0.803115 0.435457 -0.045495
-0.38941 0.273484 -0.065495
-0.831889 0.578087 -0.980165
-0.81698 0.579534 -0.343608
-0.00145726 0.27641 -1.01017
-0.00356097 0.272396 -0.380275
-0.81618 0.58037 0.292948
-0.885585 0.580447 0.929505
-0.00436688 0.270683 0.249615
-0.0052875 0.263691 0.879505
-0.816592 0.722993 -0.00516497
-0.527214 1.40344 0.0171788
-0.00586753 1.06679 -0.947821
-0.00578634 1.43385 -0.303035
-0.00574559 1.43858 0.341751
-0.00679391 1.36234 0.986536
0.791867 0.439749 -0.0428212
0.382692 0.273447 -0.065165
0.826235 0.580631 -0.977821
0.805373 0.582436 -0.339702
0.804617 0.582291 0.298417
0.895052 0.580414 0.936536
0.805228 0.72435 0.00153627
0.515638 1.40342 0.0215363
-0.868323 0.453512 -1.62447
-0.826116 0.444702 -0.995248
-0.826252 0.714194 -0.965083
-0.862846 0.701268 -1.60109
0.855561 0.453852 -1.62297
0.86099 0.702184 -1.59891
0.817505 0.715999 -0.961732
0.824837 0.447544 -0.993911
-0.364422 0.288588 -1.63628
0.369222 0.297636 -1.63622
0.374705 0.271182 -1.01008
-0.376708 0.271184 -1.01025
-0.389045 0.907796 -1.60645
-0.399567 1.04245 -0.948911
0.388302 1.04453 -0.946732
0.377537 0.907865 -1.60572
-0.35795 0.463805 -1.98236
-0.369341 0.703479 -1.95765
0.361031 0.703479 -1.95748
0.359335 0.463805 -1.98236
-0.803022 0.435127 -0.362079
-0.802211 0.436327 0.271089
-0.816015 0.723348 0.314808
-0.817013 0.722357 -0.325138
0.791982 0.440242 -0.359851
0.805716 0.724022 -0.319553
0.804667 0.724435 0.322626
0.791305 0.439543 0.274209
-0.389094 0.273451 -0.380413
0.383417 0.273407 -0.380138
0.3826 0.273505 0.249808
-0.39037 0.273528 0.249423
-0.532118 1.40124 -0.304851
-0.525845 1.3982 0.339209
0.514234 1.398 0.344292
0.520498 1.40122 -0.30122
-0.879984 0.441777 0.904258
-0.769623 0.450991 1.54516
-0.782475 0.704934 1.60243
-0.807312 0.715508 0.954753
0.883865 0.442194 0.908268
0.814447 0.715155 0.964804
0.770358 0.700899 1.61474
0.756688 0.449231 1.55009
-0.38497 0.271217 0.879258
0.37503 0.271427 0.879753
0.36467 0.296371 1.51782
-0.376681 0.296349 1.51722
-0.396224 1.34237 0.983268
-0.385745 0.899089 1.63555
0.368648 0.898149 1.64354
0.383401 1.33599 0.989804
-0.376548 0.453534 1.95962
0.361314 0.452427 1.95914
0.363944 0.699882 2.01008
-0.382338 0.703203 2.01029
-0.716429 0.4025 -1.94591
-0.536116 0.358921 -1.94108
-0.738264 0.323145 -1.79756
-0.738851 0.403607 1.8502
-0.54546 0.318031 1.85081
-0.733896 0.33573 1.66624
-0.745335 0.7475 -1.91791
-0.565442 0.836211 -1.94621
-0.769113 0.822864 -1.75417
-0.752289 0.755247 1.93962
-0.56125 0.837183 1.97161
-0.753869 0.822067 1.78417
0.543406 0.347403 -1.9526
0.723117 0.4025 -1.94773
0.736169 0.331657 -1.7975
0.531779 0.3184 1.85144
0.725619 0.4025 1.85477
0.72146 0.33536 1.6675
0.553342 0.836206 -1.94621
0.734436 0.7475 -1.91669
0.758044 0.823855 -1.75344
0.54125 0.829473 1.98362
0.736661 0.7475 1.95862
0.741052 0.820436 1.80087
-0.758038 0.305612 -0.852885
-0.758686 0.305712 -0.537995
-0.786821 0.367138 -0.687052
-0.580951 0.274785 -0.695385
-0.772933 0.294453 0.721565
-0.760069 0.30657 0.406675
-0.786105 0.369322 0.575897
-0.581484 0.278769 0.56423
-0.794375 0.852066 -0.789167
-0.805896 0.787184 -0.636722
-0.794064 0.853068 -0.4675
-0.674367 1.14328 -0.627607
-0.790513 0.85477 0.819167
-0.80325 0.789215 0.646557
-0.791725 0.854669 0.4975
-0.667189 1.14259 0.659786
0.752089 0.312735 -0.8525
0.576237 0.276544 -0.695055
0.75197 0.311853 -0.5375
0.776715 0.374181 -0.685941
0.767133 0.292689 0.7225
0.572999 0.278795 0.56489
0.750939 0.309883 0.4075
0.775376 0.372155 0.578119
0.782748 0.85226 -0.784083
[...]
POINT_DATA 3682
SCALARS point_scalars float 1
LOOKUP_TABLE default
-47.3417
-42.4026
-63.2197
-39.645
-64.003
-42.336
-63.349
-39.3084
-38.3802
-20.456
-59.7584
-43.7894
-38.2613
-16.466
-59.817
-44.4706
-4.05336
-104.858
-58.68
-28.1962
-37.3252
-39.7844
-34.1413
0.723571
-151.937
-38.8404
-33.0358
-36.5321
-39.6512
-34.1413
6.73883
-98.9433
-49.34
-41.5824
-37.9772
-37
-34.1413
-94.7694
-63.9916
-112.936
-54.8348
-38.6303
-39.8814
-35.2897
144.93
-138.4
-41.3835
-28.928
-38.2177
-33.0074
-32.7782
144.93
-33.918
-32.7782
96.6791
-34.0222
-33.6843
46.2499
-59.423
-136.271
-51.8727
-37.4345
-34.9551
-34.5278
60.5497
-129.635
-41.2819
-28.6096
-37.7849
-33.1511
-32.8357
145.12
-32.8357
-32.8357
91.0126
-34.206
-33.5665
50.5678
-58.3877
-139.583
-53.3113
-37.1233
-34.6295
-34.6295
-14.8703
-104.38
-59.2964
-32.4078
-37.9004
-38.6652
-34.7978
-14.8703
-148.297
-38.7111
-31.8008
-35.9415
-38.6641
-34.7978
-1.40503
-108.377
-48.5702
-40.6104
-37.43
-39.9498
-34.206
-77.8096
-62.9051
-119.931
-53.8404
-38.9825
-38.6662
-35.5613
-13.549
-36.0885
-56.022
-39.6485
-31.7799
-41.8613
-8.62155
-43.7669
-38.6385
-45.0511
-14.5264
-55.707
-41.2504
-42.6193
-42.9187
-44.3288
-33.0577
-41.4676
-45.872
-31.5715
-34.3792
-48.3319
-105.981
-55.4075
-32.4914
-41.4014
-29.1603
-48.15
-63.2535
-61.0555
-70.9332
11.3456
202.529
-37.9888
-37.2372
-36.2737
-77.0461
-54.5476
-55.7701
-38.8848
-38.2629
-24.7027
1.03201
-30.3546
-91.0128
-40.0908
-35.3363
-40.0606
-41.4138
-61.2202
-53.9983
-40.3139
-37.4374
-39.1842
-33.8696
-13.3599
-88.3583
-35.106
-38.84
-40.5538
-54.1105
-38.19
-55.3944
-37.3802
-39.7841
-39.2508
-58.7023
-35.1595
-38.4917
-44.5486
-43.528
-30.6301
-21.7826
-33.8434
-58.3551
-48.3744
-53.646
-74.909
-46.6462
-38.588
-44.3684
-54.1931
-61.1499
-44.5142
-34.7769
-38.3797
-43.3327
-33.6001
-29.583
-17.0129
-60.2075
-81.9904
-47.8839
-53.1224
-47.311
-54.1806
-38.1566
-44.0795
-111.151
198.566
-107.038
134.717
-61.5994
-68.1018
-37.2697
-30.045
-35.5827
-25.4725
-52.1978
-39.286
-27.8258
197.246
-61.2397
0.592328
-38.3455
-28.5614
-46.2849
-39.592
-99.9305
198.664
-59.3262
-67.8809
-37.5322
-29.8122
-53.8002
-39.5306
-59.9329
1.86234
-46.9795
-39.5469
-34.9424
-35.5856
-49.298
-40.168
-54.6726
-39.7291
-34.7401
-47.9889
-34.911
-37.5698
-42.6949
-67.8949
41.1588
-105.798
-62.985
-44.8723
-34.178
-35.3969
-50.6201
-39.708
-33.4267
-50.7902
-41.9768
-67.682
-104.8
-51.6042
-51.6533
-76.4256
-101.844
-84.4055
-52.4468
-53.1424
-103.868
-101.482
-53.6273
-53.0551
-33.4108
30.2321
28.9326
-32.817
135.969
188.473
188.73
136.797
-36.786
-31.8105
-39.2841
-46.0245
-36.2543
-45.4528
-38.3193
-30.3547
-38.8093
-38.6254
-33.9687
-34.1856
-93.8033
-58.3761
-58.3683
-93.2122
-47.3892
-38.1435
-38.0631
-48.8939
-49.2612
-52.006
-37.9382
-38.6625
-37.813
-38.1222
-36.4216
-36.3646
-47.0158
-38.7329
-38.6693
-46.7279
-30.6107
-30.3624
-31.3292
-31.6109
-26.5445
-11.8616
-120.599
-41.4928
-39.1176
-36.8782
-49.7229
-26.6222
-69.89
-40.4816
-36.0994
-38.5458
-8.17859
-33.414
-113.684
-38.8202
-40.5093
-37.4556
-33.1694
-41.0689
-69.4389
-36.0023
-39.8208
-37.7118
-41.9394
-36.5172
-37.9802
-42.4209
-41.1881
-28.2873
-17.7713
-31.7872
-60.0773
-53.1012
-57.0358
-105.268
-46.6174
-40.6152
-43.577
-49.298
-42.4447
-42.1714
-36.1333
-37.7482
-45.0304
-31.0637
-26.7147
-12.5076
-60.2056
-104.821
-52.6478
-56.5547
-47.7646
-49.1409
-40.0858
-43.5624
-0.257044
-33.3736
-63.6012
178.223
-33.7354
-36.8522
-161.442
79.0087
-68.9287
-48.0586
-59.264
-63.8248
-39.5195
-40.0587
-36.4767
-32.1527
-32.725
-32.6347
-33.9521
-27.9757
-49.5337
-41.1928
-50.0291
-39.9403
-9.11193
-7.15082
-63.5615
156.044
-45.8897
-47.0108
-53.9585
-14.44
-38.603
-38.4365
-38.231
-32.2948
-41.0111
-46.6617
-44.8426
-41.3639
-2.99015
-28.2928
-90.6006
177.74
-68.0106
-47.8999
-56.5514
-63.1048
-39.8677
-38.9297
-36.028
-32.0241
-50.3233
-41.2277
-51.1353
-40.4866
-44.6992
-45.9789
-52.7064
-17.3575
-41.3068
-47.8176
-45.1908
-41.2482
-33.9784
-31.9674
-34.0175
-34.5232
-39.5416
-43.9366
-42.8714
-40.8873
-45.7815
-45.4681
-50.1733
-42.2496
-26.6559
-34.8633
-32.803
-36.2755
-34.5601
-34.2056
-34.8345
-36.6243
-51.209
-45.9441
-45.2473
-56.8693
-93.4101
-94.7374
56.9896
-141.832
-55.2961
-55.2032
-59.1914
-51.1037
-33.6257
-31.3302
-33.2149
-34.1298
-39.6739
-43.8208
-43.3833
-40.5699
-22.8034
-33.8099
-30.916
-34.8228
-50.8426
-45.3606
-44.6543
-56.3066
-73.3842
-62.7983
-63.3291
-58.6727
-71.3993
-60.4047
-61.2536
-59.0416
-84.5555
-70.2043
-70.1908
-61.229
-4.65937
9.62438
9.74338
25.048
202.063
194.672
202.842
202.152
-36.2739
-39.1943
-36.4637
-39.7769
-35.6341
-38.5787
-35.52
-39.1191
-36.1716
-37.7365
-35.3653
-36.0449
-75.1638
-87.9164
-68.9431
-74.9023
-43.5477
-53.5451
-49.331
-49.0703
-43.8626
-55.3857
-50.0722
-52.5179
-36.3951
-38.6498
-39.0968
-38.7559
-38.5926
-38.6969
-38.6509
-39.6918
-26.7608
-24.412
-26.1133
-26.4723
-76.0308
148.572
-156.499
84.2754
-99.9683
-96.4644
-36.2596
-32.7935
-35.5742
-32.4593
-39.0317
-37.389
-73.1803
169.584
-65.4255
152.429
-64.3186
-38.413
-37.304
-33.575
-37.7606
-33.5398
-38.4348
-39.2141
-158.435
84.6046
-98.0238
152.054
-100.63
-92.4031
-35.5288
-32.2377
-36.1283
-32.6757
-39.7167
-37.6355
-64.8822
153.922
-74.9344
167.169
-68.7618
-38.576
-37.7732
-33.501
-36.765
-33.1103
-38.1281
-39.1304
-56.9768
-51.6959
-35.8776
-37.3491
-41.4211
-37.4864
-49.1643
-41.2404
-46.2088
-38.0473
-31.1574
-32.9266
-28.6049
-30.542
-34.1657
-36.9307
-55.9873
-21.7935
-48.2166
-47.5534
-49.2141
-70.0411
45.9114
-135.536
-47.3092
-51.0816
-38.2368
-42.7341
-41.3305
-50.4463
-56.6018
-51.7885
-58.4948
-51.893
-49.1797
-41.1142
-35.2224
-36.9947
-41.7448
-37.0291
-46.8302
-39.3677
-33.9463
-37.105
-29.6607
-32.4494
-26.0744
-32.7285
-56.7649
-21.6406
44.526
-134.933
-48.0324
-47.0272
-48.6471
-69.572
-49.0505
-49.8813
-56.6987
-51.6158
-37.1988
-43.5238
-40.5221
-50.1858
-107.737
-96.7574
193.085
195.939
-106.58
-105.672
134.924
134.215
-72.0813
-60.67
-81.384
-59.0519
-37.5416
-37.3505
-29.9587
-29.8256
-35.8745
-35.8894
-27.328
-27.1194
-47.0705
-50.3214
-38.8881
-37.4718
-28.7487
-28.5354
195.194
195.153
-56.8661
-69.239
-13.8003
12.0376
-38.4462
-38.4192
-29.3705
-29.577
-41.5038
-48.7492
-40.9157
-39.5086
-101.107
-96.8607
195.76
193.723
-71.1923
-59.3752
-80.2117
-59.0011
-37.5685
-37.8999
-29.6637
-29.8426
-49.6154
-51.4141
-39.1576
-37.7194
-66.8931
-58.2417
12.223
-12.5545
-51.1328
-41.5613
-39.4596
-40.7667
-36.0723
-33.7229
-36.8996
-34.682
-49.7646
-50.0361
-38.1307
-42.381
-54.4648
-54.0096
-39.5453
-39.4462
-33.0263
-36.4542
-47.698
-48.2579
-34.68
-34.8031
-37.6533
-37.6567
-40.8313
-44.206
-76.7749
-62.2348
38.3835
38.159
-105.114
-104.555
-61.8893
-61.8734
-45.0125
-44.9087
-35.2656
-32.6505
-36.7681
-34.4801
-51.0519
-51.3816
-37.8394
-41.9697
-35.3647
-31.7117
-50.0015
-52.092
-43.5474
-40.0183
-62.1559
-76.394
-93.0213
-70.2762
-73.9738
-68.0126
-40.918
-41.7333
-59.9793
-55.9313
-52.9204
-56.1101
-57.3407
-44.7266
-73.1961
-65.8034
-73.3971
-56.9939
-94.1313
-101.987
-71.5688
-69.6749
-76.1294
-57.3961
-70.4853
-79.6787
-52.632
-45.0334
-57.818
-57.6644
-41.9995
-55.4307
-59.402
-42.4148
-149.02
-159.58
-83.7333
-76.0038
-142.127
-74.1904
-83.5105
-159.928
-46.4693
-49.9566
-60.8046
-55.2048
-46.4499
-55.8425
-60.9273
-50.1382
-65.0953
-24.0801
-6.60907
-66.8665
-81.2644
57.808
22.3785
-11.6473
-82.2393
-10.8618
22.2722
57.2539
-64.9759
-66.6399
-6.31214
-25.3
94.0207
184.251
194.734
80.2315
140.417
153.962
201.378
174.837
141.427
174.921
201.01
159.558
118.732
79.7732
195.06
183.186
-36.4391
-34.9621
-37.3459
-38.7751
-27.7523
-30.3478
-34.8986
-32.7179
-40.4211
-42.8724
-38.1064
-35.0128
-51.5756
-43.3613
-41.1296
-46.3998
-36.22
-38.54
-36.7717
-34.2894
-51.1023
-45.7277
-40.6195
-43.1121
-39.7756
-33.6296
-37.3381
-42.1658
-25.1852
-31.8375
-33.9011
-27.9917
-39.4776
-42.1863
-37.5839
-35.7097
-39.1223
-35.3673
-37.4729
-42.0583
-32.3876
-34.6583
-35.1312
-33.1468
-32.3831
-33.5789
-35.272
-34.8185
-84.6496
-61.8528
-85.9286
-139.557
-49.126
-58.3322
-67.5622
-52.862
-48.9055
-52.562
-67.3898
-58.1944
-83.7798
-139.358
-85.6183
-61.4303
-34.3865
-44.4878
-48.1423
-33.4158
-36.9974
-36.2304
-44.8834
-55.4475
-37.3496
-41.0083
-42.3818
-36.7937
-43.9459
-38.6748
-51.3259
-46.8585
-38.5117
-34.2758
-50.9702
-46.9032
-45.744
-48.9075
-53.9457
-39.1883
-37.0704
-36.2994
-42.9074
-41.2726
-36.9128
-57.2432
-46.1573
-35.7527
-37.8259
-36.8227
-38.5684
-40.7874
-38.2158
-39.9823
-38.8964
-36.6468
-36.8468
-34.3396
-36.7392
-39.9891
-36.8115
-39.1738
-36.6941
-34.3635
-47.9443
-44.0947
-40.0285
-51.3468
-37.8948
-38.0861
-38.8728
-40.1503
-37.7768
-40.0941
-38.8511
-38.1076
-48.491
-51.2137
-39.9604
-43.7159
-35.0126
-29.5491
-26.4051
-32.2769
-34.889
-32.1236
-26.189
-29.3731
-33.9341
-32.5939
-27.3649
-32.0069
-33.8554
-31.9564
-27.5482
-32.7286
-40.6976
-0.430022
-95.8925
-42.4435
-41.6921
-37.8396
-48.0634
-26.9888
-91.2111
-39.9022
-36.9913
-38.6098
-16.0071
-52.7191
-106.075
-41.6106
-41.6027
-38.1213
-28.7073
-43.8833
-97.8326
-36.1497
-39.6172
-37.8729
-39.7188
-37.3032
-37.9648
-40.7157
-28.6659
-26.022
-18.0551
-29.778
-60.6664
-56.1729
-58.5052
-75.1009
-45.1011
-41.9193
-43.5186
-46.1863
-39.7687
-40.4337
-36.9629
-37.8005
-29.9617
-29.2743
-23.5812
-13.0574
-60.2122
-74.5999
-55.6649
-58.1659
-46.6658
-46.3396
-41.9624
-43.17
-5.06704
-23.3106
-32.7333
112.505
-35.4565
-37.472
-149.585
50.4983
-62.5202
-52.4342
-57.3509
-59.9373
-39.4036
-39.8454
-36.7871
-34.0358
-32.0469
-31.9987
-32.8186
-30.4542
-43.5626
-40.1654
-47.4514
-40.2262
-9.47523
-9.97718
-85.7563
94.3251
-44.384
-44.3418
-51.2538
-27.4952
-38.6903
-38.5967
-38.5919
-35.1923
-42.3405
-45.2095
-44.2714
-42.9096
-8.15525
-22.0132
-22.3031
110.534
-60.6373
-52.4046
-55.59
-59.5182
-39.8772
-38.5284
-36.4098
-33.7362
-45.0292
-40.9926
-48.7292
-40.7162
-43.0662
-43.7059
-49.296
-27.558
-42.6192
-45.5607
-44.6676
-42.6919
-33.5723
-32.4647
-33.3723
-33.7471
-40.3317
-42.5406
-41.969
-41.1576
-45.9575
-45.6316
-48.3903
-43.933
-29.2794
-33.1248
-31.9141
-31.6842
-34.2734
-34.2943
-35.0008
-35.1097
-50.0431
-46.9592
-46.7174
-52.2318
-102.839
-103.491
24.3307
-161.798
-55.2831
-55.2658
-57.3129
-53.3531
-33.0946
-32.0203
-32.7359
-33.2673
-40.4672
-42.4682
-42.1317
-40.9315
-26.2113
-31.696
-29.5933
-31.357
-49.6205
-46.6735
-46.2124
-51.8595
-67.2185
-62.9945
-63.2483
-62.0928
-64.6978
-60.9319
-61.2104
-61.1595
-77.2833
-70.8147
-70.8269
-65.4613
3.98014
11.2256
11.1447
19.1206
203.221
204.71
202.366
203.11
-37.1591
-38.6137
-37.259
-38.7549
-36.4607
-37.9633
-36.4112
-38.0587
-36.2717
-36.9131
-35.7371
-36.198
-76.6762
-81.9557
-72.6888
-76.5376
-50.0337
-54.1336
-52.6118
-51.8564
-50.2681
-55.9928
-53.0583
-55.5822
-36.9401
-39.1731
-39.0332
-40.0686
-38.4298
-38.458
-38.3798
-38.8468
-25.2788
-24.5338
-25.3439
-25.1164
-14.5977
0.120404
-12.4338
121.72
-25.3357
-33.1054
-143.803
33.6783
-117.85
-76.6081
-97.0582
-90.7294
-40.6972
-39.669
-37.1296
-34.8644
-37.0637
-33.8484
-35.1124
-34.2565
-37.6097
-45.8224
-39.9904
-38.4098
-45.9311
-38.8029
-79.6583
118.611
-43.6088
-14.3189
-96.4077
72.0369
-61.5518
-48.1868
-59.8178
-43.4897
-40.6892
-40.1401
-37.6587
-34.4388
-36.629
-37.9835
-37.3634
-35.2824
-38.8088
-39.9959
-38.6398
-39.5135
-20.1084
-36.2265
-161.098
36.8315
-15.2647
-7.68389
-11.0101
121.259
-112.124
-76.2018
-97.3518
-87.6816
-36.8293
-33.6339
-35.02
-34.0423
-39.2798
-39.101
-36.551
-34.6617
-38.1812
-47.2328
-40.4196
-38.9001
-49.0609
-17.5641
-95.8571
78.2259
-41.3312
-34.5272
-63.5772
113.297
-63.1505
-49.2504
-62.6573
-44.1794
-36.5973
-38.0866
-37.4342
-35.1497
-39.8014
-39.5135
-37.4742
-34.3635
-38.3207
-40.0477
-38.358
-39.5109
-51.1353
-47.1258
-58.5049
-51.7141
-35.7944
-34.5978
-35.3447
-36.2873
-38.095
-38.8884
-39.5202
-37.9281
-43.9623
-45.3734
-47.2681
-42.7495
-42.6424
-41.9965
-45.4844
-40.1393
-29.6838
-31.3228
-30.6916
-31.8443
-19.7035
-24.0833
-25.8463
-17.578
-33.0735
-34.4179
-34.3625
-35.3034
-61.4736
-51.9464
-58.2297
-51.9177
-50.7609
-45.8961
-48.3232
-48.0879
-55.3233
-52.2087
-51.1646
-60.7408
-100.687
-77.5374
19.2893
-132.972
-46.5859
-47.3273
-46.8665
-46.3828
-39.853
-36.7199
-38.1254
-39.6713
-43.9013
-45.0649
-42.5899
-47.5981
-55.8674
-54.9454
-56.1229
-53.6223
-52.163
-46.89
-60.2063
-52.3648
-43.6844
-45.052
-47.2463
-42.6365
-35.4071
-34.2002
-34.8483
-35.8634
-37.9723
-38.9397
-39.5578
-37.6412
-42.4574
-42.3894
-45.984
-40.2317
-32.6646
-34.2472
-34.0572
-35.2755
-28.5629
-30.5496
-29.5114
-31.1757
-14.4024
-19.7831
-22.334
-14.0063
-63.355
-52.1713
-60.4459
-51.4014
-101.89
-78.5449
19.2521
-133.765
-50.2208
-45.6638
-47.9165
-47.534
-55.0747
-51.9223
-50.6439
-60.407
-47.662
-48.1917
-48.2445
-46.3856
-53.7952
-54.776
-55.8339
-53.4765
-39.501
-36.061
-37.309
-40.0409
-43.7024
-44.6571
-41.9168
-47.1799
-114.028
-85.2625
-110.653
-105.824
193.903
201.022
199.702
197.404
-128.688
-93.5308
-107.085
-106.841
107.699
167.176
133.212
132.898
-60.6497
-62.1399
-65.6892
-59.9005
-66.4023
-69.3692
-74.1743
-63.0547
-36.5
-39.2509
-37.3223
-37.3647
-31.198
-28.51
-30.0093
-29.9603
-34.8862
-35.861
-35.6451
-35.63
-26.9476
-24.7812
-26.0042
-25.8927
-51.5788
-52.7076
-48.5858
-55.0349
-39.6677
-38.9384
-39.7804
-38.1413
-42.2579
-14.5336
-28.6509
-28.462
192.207
199.613
197.076
196.942
-57.8959
-63.0983
-59.9138
-65.1313
-5.22314
5.51084
-6.22757
5.94788
-38.2497
-38.4944
-38.3718
-38.3636
-30.0892
-27.4683
-28.7466
-28.936
-45.5064
-47.2243
-44.1479
-47.663
-40.2594
-39.0875
-40.036
-39.5629
-130.562
-81.672
-101.903
-101.597
193.517
201.114
197.53
199.636
-58.7045
-59.9749
-64.1312
-58.3021
-66.0294
-69.2916
-73.6041
-62.7851
-36.2931
-40.0003
-37.5183
-37.5597
-31.0369
-28.231
-29.6929
-29.784
-52.9841
-54.6738
-51.6162
-56.176
-40.0225
-39.0969
-40.0866
-38.4472
-57.3706
-61.2322
-62.0956
-59.9427
-7.80309
6.2047
7.58224
-4.42488
-46.0226
-48.3191
-49.6377
-44.5736
-40.1756
-39.0269
-39.5265
-39.9318
-34.4248
-35.4584
-35.501
-34.4612
-35.1284
-35.9601
-36.1854
-35.0717
-45.4598
-53.9483
-49.2914
-49.5105
-40.5626
-39.7202
-39.0847
-41.1369
-51.729
-57.7767
-54.7172
-54.6159
-40.976
-38.7091
-39.7099
-39.6496
-33.7919
-35.6341
-33.9148
-35.4661
-41.6899
-48.4389
-47.9937
-48.8938
-34.8208
-35.1034
-34.8399
-34.8929
-37.0778
-38.0871
-37.5524
-37.6001
-44.0868
-41.1155
-41.7399
-43.5194
-62.5073
-72.2523
-71.8997
-64.8064
58.5777
29.8008
40.0424
39.8309
-121.546
-95.4034
-105.761
-105.607
-60.9202
-65.6788
-62.7582
-62.7018
-48.0362
-41.1003
-44.6533
-44.5089
-33.6783
-34.7988
-34.7377
-33.5411
-34.8461
-35.781
-36.0255
-34.8863
-46.0278
-55.1594
-50.803
-50.8696
-40.1734
-39.1731
-38.7522
-40.7106
-32.23
-34.5333
-34.2978
-32.5731
-41.6287
-51.338
-50.7861
-52.0228
-43.4666
-40.4904
-42.8241
-40.9693
-62.4159
-71.9143
-64.6883
-71.4036
-132.867
-104.043
-105.442
-83.5255
-52.7612
-45.3045
-58.6985
-50.2223
-53.3278
-49.3064
-53.9385
-50.7201
-79.1266
-68.832
-86.2468
-73.2915
-141.968
-103.179
-101.411
-81.6902
-94.4355
-75.7833
-92.1901
-76.3209
-53.7244
-49.3504
-55.5111
-51.6653
-54.1372
-46.5453
-59.0943
-52.2453
-125.204
-101.035
-105.485
-90.3392
-121.678
-97.908
-103.83
-88.5429
-52.7322
-50.8686
-56.2429
-54.2436
-52.4889
-50.5108
-55.8569
-53.3385
-46.5264
-35.2674
-30.2339
-22.4826
17.2591
47.3599
16.8169
35.407
15.2777
46.3858
15.7337
34.6095
-46.1791
-35.0761
-29.7289
-21.6072
139.961
113.621
169.106
134.848
183.731
180.872
192.971
192.374
181.997
182.493
192.353
193.113
114.712
144.09
134.72
167.525
-36.2361
-37.114
-36.4079
-37.309
-31.4362
-30.5113
-32.8583
-32.2369
-38.668
-40.4338
-37.7702
-40.0094
-46.874
-47.7175
-44.0195
-45.0446
-35.6954
-36.5806
-35.8047
-36.9371
-46.2948
-47.1419
-43.598
-44.4365
-37.6524
-39.5425
-36.7929
-39.1146
-29.9688
-28.6501
-31.6063
-30.8853
-38.1825
-39.9061
-37.7949
-39.2093
-39.7827
-37.9358
-39.1078
-37.6304
-33.8956
-33.3227
-34.3922
-34.1747
-33.6627
-34.0847
-34.3823
-34.5749
-83.4521
-109.525
-83.8694
-101.062
-54.6001
-57.2584
-60.2251
-60.5856
-57.2645
-54.6392
-60.4372
-60.1768
-108.662
-81.9972
-100.719
-83.4915
-47.0701
-48.3598
-46.6287
-47.6534
-36.5016
-38.5315
-37.7027
-41.7161
-37.4969
-38.2662
-37.8241
-39.1932
-47.9757
-45.5259
-49.1253
-48.9986
-48.5523
-51.5157
-48.9339
-49.5919
-49.9221
-46.8534
-51.9224
-52.5003
-37.0594
-37.9942
-37.7058
-39.4513
-36.5507
-39.2423
-37.9863
-42.3026
-38.0732
-37.299
-38.3484
-37.6767
-38.9211
-37.6398
-38.5325
-37.902
-35.8959
-36.8614
-36.1349
-36.9279
-35.8616
-36.6839
-36.1522
-36.8025
-48.9514
-49.6413
-42.6371
-45.718
-38.2467
-38.961
-38.5656
-39.1493
-38.2077
-38.8922
-38.525
-39.085
-48.1789
-49.4803
-42.3983
-45.4357
-31.9116
-31.2752
-30.1764
-29.014
-31.0772
-31.7322
-28.8477
-29.8889
-32.1822
-32.6599
-30.3584
-30.4015
-32.5468
-32.4373
-30.6782
-30.7566
-54.947
109.699
-140.098
52.4606
-97.0701
-131.726
-37.9093
-36.7038
-37.2334
-38.1486
-36.9345
-36.8712
-96.3195
90.9162
-102.178
55.2878
-73.5114
-66.3328
-37.7113
-35.0917
-36.9823
-34.6647
-37.9442
-38.2801
-163.556
68.9756
-64.8259
105.57
-94.8885
-126.04
-37.1235
-38.0629
-37.4089
-36.0775
-37.3556
-37.0281
-102.776
55.5763
-89.7158
93.4035
-76.0552
-66.8027
-36.8372
-34.5289
-37.4391
-34.8296
-37.3116
-38.153
-41.3161
-44.4343
-36.3485
-38.1516
-39.0625
-37.2073
-44.1868
-40.7838
-36.8237
-38.7779
-27.7558
-30.7614
-24.4798
-11.0875
-32.4765
-35.2503
-56.2737
-76.9385
-53.277
-52.4612
-54.1074
-67.7395
-107.409
-99.1349
-45.3032
-47.0357
-40.4291
-41.4359
-41.8071
-46.488
-48.9157
-48.2044
-42.0263
-44.3363
-44.1767
-40.4567
-36
-37.7067
-39.1679
-36.8796
-42.1293
-40.6456
-31.5608
-35.4292
-25.6269
-30.2841
-21.0262
-7.97757
-56.1653
-78.403
-106.394
-96.7974
-52.8395
-51.9184
-53.5915
-66.8689
-46.9983
-47.5676
-48.9319
-48.3738
-39.9453
-41.6921
-40.9747
-46.4038
-11.1448
130.165
-59.7687
119.31
-69.7596
-66.4038
179.49
176.121
-147.663
37.149
-147.168
41.9382
-159.742
-158.946
79.7664
79.543
-68.1254
-71.3552
-50.504
-53.192
-63.6479
-56.3264
-69.4466
-59.1875
-37.0301
-34.2409
-37.1012
-33.8783
-36.3425
-36.5313
-32.2185
-32.0367
-33.4119
-31.3586
-33.4195
-31.1195
-34.0361
-34.0332
-28.4641
-28.3934
-55.6387
-41.3234
-43.0434
-41.2985
-45.9549
-55.0786
-40.1066
-39.3537
-86.5623
90.5521
-86.3875
96.9227
-64.0853
-64.0591
166.406
165.427
-52.5572
-32.3409
-54.772
-31.6779
-55.2715
-55.2615
-18.6113
-11.6943
-38.2186
-35.4117
-38.2668
-35.1393
-38.2001
-38.2064
-32.4378
-32.7503
-40.9762
-40.7026
-46.4742
-47.2267
-43.0262
-45.9465
-42.4951
-40.6638
-9.64395
132.159
-44.941
116.753
-98.8684
-87.4943
175.647
178.348
-68.8042
-69.5265
-51.0972
-52.5097
-62.1515
-55.1199
-68.3601
-58.5783
-36.37
-33.9292
-37.1351
-33.6012
-36.0181
-35.7723
-32.0531
-31.949
-57.945
-42.9872
-45.4152
-40.4004
-49.1354
-55.7674
-41.5841
-40.1943
-52.0047
-33.1369
-54.7213
-29.7853
-54.7707
-54.3976
-12.9358
-23.2529
-41.2366
-40.5741
-47.9866
-47.098
-46.936
-43.3434
-40.5508
-42.3245
-34.2606
-34.8653
-32.243
-32.7866
-34.6353
-33.4835
-35.0356
-34.016
-40.3333
-39.093
-44.2057
-43.8311
-42.2334
-43.6574
-39.8121
-42.0212
-48.7362
-43.8085
-47.972
-43.6194
-50.0323
-50.105
-42.3689
-42.2756
-28.5157
-23.2615
-34.5929
-36.7052
-31.5876
-33.8007
-34.2969
-36.5974
-35.0674
-35.4435
-34.872
-34.9079
-34.7931
-34.8236
-36.6857
-36.618
-48.7606
-56.2445
-44.2355
-49.7818
-43.8141
-46.1509
-58.8474
-54.8343
28.1964
-161.384
26.7371
-160.609
57.3598
56.7079
-141.29
-141.381
-56.7529
-53.8262
-56.6539
-53.7581
-59.0604
-58.9761
-51.125
-51.0618
-33.8504
-34.4311
-31.4623
-32.2266
-33.7722
-32.5993
-34.7146
-33.6051
-40.6802
-39.0197
-44.3061
-43.4813
-44.0892
-42.9796
-39.5555
-41.6923
-25.586
-20.3255
-33.1926
-35.7733
-32.0966
-29.5167
-35.9219
-35.1797
-48.1604
-55.5113
-43.5087
-49.1627
-45.6401
-43.0465
-54.4065
-58.381
-73.5721
-73.523
-66.9873
-61.2114
-61.4037
-67.0678
-59.2564
-58.2292
-71.8887
-71.2549
-64.6811
-60.1259
-64.2806
-59.9326
-58.5795
-59.057
-84.4542
-84.2848
-76.346
-65.0053
-76.4833
-64.8332
-61.1527
-61.2279
-5.11412
-5.00606
1.95367
16.446
16.4379
2.18456
24.5416
24.3636
203.894
201.524
193.279
193.625
200.759
201.109
201.521
203.798