# vtk DataFile Version 2.0
tri_press
ASCII
DATASET UNSTRUCTURED_GRID
POINTS 3682 float
-0.825 0.085 -1.99304
-0.814058 0.205 2.105
-0.715 0.664689 -1.955
-0.725 0.925 2.01486
0.825 0.085 -1.99304
0.814053 0.185 2.085
0.715 0.664689 -1.955
0.725 0.925 2.01486
-0.824005 0.122347 -0.627027
-0.824364 0.158341 0.738987
-0.797011 0.830137 -0.631714
-0.789641 0.906204 0.691573
0.856266 0.0834182 -0.633693
0.81381 0.155559 0.725654
0.796998 0.830124 -0.631714
0.789561 0.906124 0.691573
-1.63433 -0.322083 -3.06283
-1.62641 -0.256725 -1.98801
-1.62657 -0.217155 -0.621365
-1.61929 -0.191421 0.754049
-1.60239 -0.155918 2.12141
-1.60072 -0.120245 3.19976
-1.60459 -0.0803319 4.27133
-1.63009 0.00570439 -3.05807
-1.62148 0.0856549 -1.98786
-1.62839 0.140081 -0.628675
-1.61335 0.170936 0.73483
-1.58668 0.206817 2.09485
-1.59238 0.242605 3.17283
-1.60149 0.282455 4.24568
-1.58706 0.637403 -3.03732
-1.55033 0.713493 -1.966
-1.59748 0.842465 -0.635819
-1.58151 0.908361 0.691938
-1.52992 0.935259 2.02338
-1.56209 0.972228 3.10624
-1.59019 1.01345 4.18768
-1.56804 1.67695 -3.03493
-1.55444 1.76423 -1.96921
-1.56878 1.89447 -0.652552
-1.57888 1.99344 0.655882
-1.57461 2.04864 1.97398
-1.57949 2.08353 3.04273
-1.59176 2.12061 4.11986
-0.835357 -0.324733 -3.06645
-0.815108 -0.260698 -1.99337
-0.812844 -0.231642 -0.62332
-0.819139 -0.202008 0.755316
-0.81034 -0.163683 2.12568
-0.81316 -0.127708 3.20161
-0.8174 -0.0875848 4.271
-0.842904 -0.000694194 -3.05964
-0.815225 0.236593 3.17462
-0.81929 0.275676 4.24492
-0.80763 0.61514 -3.03308
-0.79138 0.966178 3.10323
-0.813994 1.00749 4.1849
-0.779143 1.661 -3.03099
-0.761257 1.74921 -1.9648
-0.77501 1.88844 -0.650466
-0.792166 1.99272 0.654017
-0.795437 2.04656 1.96937
-0.80137 2.08004 3.0379
-0.811701 2.11653 4.11558
0.782001 -0.330613 -3.06793
0.831895 -0.269737 -1.99524
0.849551 -0.258414 -0.629606
0.816274 -0.211117 0.743666
0.809154 -0.177581 2.11004
0.780921 -0.139269 3.18936
0.765468 -0.0968757 4.26152
0.755948 -0.00397422 -3.06048
0.764478 0.225221 3.16274
0.754077 0.266952 4.23593
0.724009 0.61315 -3.03364
0.734095 0.960861 3.09763
0.739846 1.00096 4.17825
0.783541 1.65682 -3.03241
0.80219 1.74534 -1.96614
0.804516 1.88436 -0.652085
0.782601 1.98886 0.651889
0.759365 2.04286 1.9665
0.750988 2.07561 3.03407
0.747643 2.11119 4.11088
1.5935 -0.335897 -3.06649
1.64026 -0.276885 -1.99267
1.66247 -0.255324 -0.632048
1.62853 -0.212321 0.735431
1.60495 -0.176672 2.09753
1.57885 -0.140259 3.17848
1.56158 -0.0981066 4.25346
1.56885 -0.00403143 -3.06061
1.62145 0.0733335 -1.99051
1.65807 0.101082 -0.637676
1.61934 0.154276 0.717667
1.58935 0.187614 2.0717
1.56116 0.22389 3.15265
1.54823 0.265805 4.2287
1.52784 0.63098 -3.03914
1.54704 0.708889 -1.96718
1.60867 0.828491 -0.63908
1.58859 0.899285 0.685627
1.52989 0.928636 2.01455
1.52383 0.961039 3.09416
1.52809 1.00037 4.17453
1.57014 1.66774 -3.03811
1.58706 1.75535 -1.97233
1.59563 1.885 -0.656366
1.57573 1.98448 0.650893
1.54724 2.04018 1.9675
1.53613 2.07399 3.03461
1.53345 2.10955 4.1103
-0.770694 0.374845 -1.97471
0 0.0810686 -1.99697
-0.845012 0.0831642 -1.31003
-0.783258 0.565 2.07366
-2.5034e-06 0.141864 2.14814
-0.842001 0.15888 1.42199
0 0.789124 -2.07943
-0.782997 0.774405 -1.29336
0 0.973298 2.06316
-0.769669 0.927951 1.35322
0.770691 0.374845 -1.97471
0.841694 0.0831484 -1.31337
0.784974 0.555 2.06538
0.838937 0.145274 1.40533
0.78299 0.774398 -1.29336
0.769618 0.9279 1.35322
-0.813537 0.150992 0.05598
-0.863803 0.476242 -0.62937
0.0161304 0.0830461 -0.63036
-0.87356 0.532273 0.71528
-0.00527698 0.0858991 0.73232
-0.790266 0.865111 0.0299299
-6.36417e-06 0.999928 -0.631714
-4.01976e-05 1.27114 0.691573
0.822524 0.132002 0.04598
0.862361 0.456771 -0.632703
0.873977 0.530841 0.708613
0.79027 0.865114 0.0299299
-0.870492 0.425543 -1.3017
0.870281 0.415808 -1.30336
0.0080652 0.0837272 -1.3117
-3.18209e-06 0.946121 -1.29336
0 0.374845 -2.26727
-0.862176 0.504257 0.042955
0.861376 0.493806 0.037955
0.00542671 0.083522 0.05098
-2.32809e-05 1.2764 0.0299299
-0.886616 0.548636 1.38761
0.885798 0.542921 1.37927
-0.00263974 0.106806 1.41366
-2.00988e-05 1.14446 1.35322
-1.2517e-06 0.56 2.29293
-0.75937 0.229922 -1.9454
-0.4125 0.0810941 -1.99695
-0.836032 0.0830563 -1.65154
-0.760446 0.385 2.05112
-0.40703 0.198946 2.10105
-0.814214 0.195756 1.7635
-0.71193 0.519767 -1.93394
-0.3575 0.75325 -2.04356
-0.762825 0.733373 -1.62418
-0.771642 0.745 2.06177
-0.3625 0.969287 2.05915
-0.74866 0.927801 1.68404
0.4125 0.0810871 -1.99695
0.759271 0.229922 -1.9453
0.834373 0.0830485 -1.6532
0.407025 0.192026 2.08797
0.7575 0.37 2.03318
0.814149 0.177482 1.74516
0.3575 0.753236 -2.04355
0.710834 0.519767 -1.93284
0.762829 0.733377 -1.62418
0.3625 0.969288 2.05915
0.776085 0.74 2.06122
0.748667 0.927808 1.68404
-0.853937 0.0833271 -0.96853
-0.822907 0.132534 -0.285523
-0.854192 0.294151 -0.628198
-0.408112 0.0943476 -0.628693
-0.845074 0.146719 1.08049
-0.81443 0.159187 0.397483
-0.861021 0.339278 0.727133
-0.413227 0.125307 0.735653
-0.793207 0.805474 -0.962535
-0.866695 0.671334 -0.630542
-0.794102 0.848088 -0.300892
-0.422416 0.962848 -0.631714
-0.785666 0.923088 1.0224
-0.866465 0.73667 0.703427
-0.786157 0.88186 0.360752
-0.469382 1.23776 0.691573
0.848961 0.0833025 -0.97353
0.430537 0.0945538 -0.632027
0.863561 0.0835443 -0.293857
0.850868 0.274317 -0.633198
0.836646 0.140143 1.06549
0.400078 0.129105 0.728987
0.812189 0.149759 0.385817
0.859125 0.335584 0.717133
0.793205 0.805472 -0.962535
0.422408 0.962849 -0.631714
0.866904 0.66206 -0.632209
0.794096 0.848081 -0.300892
0.785659 0.923081 1.0224
0.469321 1.23775 0.691573
0.866513 0.735854 0.700093
0.786117 0.88182 0.360752
-0.863036 0.400194 -1.6382
-0.385347 0.374845 -2.21457
0.0040326 0.0832089 -1.65434
0 0.227957 -2.08232
-0.850986 0.254354 -1.30586
-0.418473 0.0895167 -1.31087
-0.829483 0.556818 1.73063
-0.39163 0.5625 2.25826
-0.00132112 0.118708 1.7809
-1.87755e-06 0.350932 2.2522
-0.858592 0.353758 1.4048
-0.422321 0.154198 1.41783
-1.59104e-06 0.89021 -1.6864
0 0.581984 -2.14485
-0.876549 0.599974 -1.29753
-0.3915 0.901912 -1.29336
-1.00494e-05 1.04991 1.70819
-6.25849e-07 0.766649 2.14749
-0.859847 0.738293 1.37041
-0.384845 1.12111 1.35322
0.863095 0.395326 -1.63904
0.385346 0.374845 -2.21456
0.84984 0.249478 -1.30836
0.424879 0.0895956 -1.31253
0.830183 0.54896 1.72232
0.392487 0.5575 2.25797
0.860202 0.344097 1.3923
0.418148 0.152758 1.40949
0.876588 0.595103 -1.29836
0.391494 0.901944 -1.29336
0.861673 0.73541 1.36624
0.384799 1.12111 1.35322
-0.857993 0.317557 0.0494675
-0.410278 0.104812 0.05348
-0.860663 0.450893 -0.965533
-0.863156 0.49025 -0.293208
0.0120978 0.0842939 -0.97103
0.0107785 0.0832795 -0.28969
-0.86169 0.518265 0.379118
-0.892844 0.540455 1.05144
7.48639e-05 0.0837763 0.39165
-0.00395836 0.0994489 1.07299
-0.866959 0.705053 0.0364425
-0.482871 1.2462 0.0299299
-4.77313e-06 0.935965 -0.962535
-1.48225e-05 1.16657 -0.300892
-3.17392e-05 1.29629 0.360752
-3.01482e-05 1.21555 1.0224
0.856021 0.305869 0.0419675
0.418354 0.0990055 0.04848
0.861383 0.43629 -0.968033
0.861983 0.475289 -0.297374
0.861182 0.512324 0.373284
0.89087 0.536881 1.04394
0.866992 0.700045 0.0339425
0.482855 1.24622 0.0299299
-0.840311 0.242138 -1.64487
-0.852033 0.276824 -0.967031
-0.861406 0.626582 -0.964034
-0.866114 0.55987 -1.63119
0.840792 0.2397 -1.64612
0.866139 0.557435 -1.63161
0.861465 0.619275 -0.965284
0.847387 0.259786 -0.970781
-0.415487 0.0870599 -1.65294
0.41869 0.0870724 -1.65377
0.430539 0.092207 -0.97228
-0.411205 0.0918062 -0.96978
-0.3745 0.851646 -1.65529
-0.395004 0.903924 -0.962535
0.394995 0.904 -0.962535
0.374497 0.851645 -1.65529
-0.398923 0.228939 -2.0583
-0.371423 0.550875 -2.08317
0.371423 0.550875 -2.0832
0.398923 0.228939 -2.05823
-0.856147 0.305826 -0.289365
-0.859692 0.328325 0.3883
-0.867394 0.721203 0.369935
-0.866835 0.688197 -0.29705
0.853397 0.290117 -0.295615
0.866838 0.680997 -0.299133
0.867348 0.718248 0.367018
0.858334 0.320346 0.37955
-0.410609 0.0967509 -0.287607
0.424522 0.0966271 -0.291773
0.412215 0.108057 0.388733
-0.415185 0.108194 0.394567
-0.466467 1.13217 -0.300892
-0.488311 1.26635 0.360752
0.488272 1.26635 0.360752
0.466452 1.13218 -0.300892
-0.869069 0.349533 1.06597
-0.806629 0.369379 1.74706
-0.825046 0.741647 1.70734
-0.867932 0.728766 1.03692
0.867867 0.343649 1.05472
0.868174 0.726946 1.03317
0.825827 0.737705 1.70318
0.80348 0.357049 1.73374
-0.41857 0.153226 1.07674
0.411207 0.153815 1.06924
0.412587 0.20137 1.76303
-0.414675 0.201877 1.7722
-0.389843 1.19161 1.0224
-0.373672 1.03069 1.69611
0.37365 1.0307 1.69611
0.38978 1.1916 1.0224
-0.39933 0.367966 2.22515
0.399756 0.360466 2.22178
0.377493 0.753324 2.12274
-0.377065 0.755824 2.12194
-0.770811 0.157461 -1.94785
-0.61875 0.0811234 -1.99692
-0.831562 0.082982 -1.82229
-0.805191 0.295 2.096
-0.610544 0.225107 2.07989
-0.814151 0.200363 1.93425
-0.706633 0.592228 -1.93764
-0.53625 0.709641 -1.99995
-0.74552 0.705639 -1.78959
-0.752234 0.835 2.04223
-0.54375 0.957145 2.04701
-0.736832 0.926402 1.84945
0.61875 0.0811193 -1.99692
0.770723 0.157461 -1.94776
0.830734 0.0829765 -1.82312
0.610539 0.218028 2.05697
0.813668 0.2775 2.08698
0.814082 0.18126 1.91508
0.53625 0.709636 -1.99995
0.70666 0.592228 -1.93767
0.74551 0.705628 -1.78959
0.54375 0.956776 2.04664
0.754715 0.8325 2.04221
0.736868 0.926439 1.84945
-0.858419 0.08339 -0.797778
-0.867266 0.0836309 -0.456275
-0.817629 0.218984 -0.627613
-0.627373 0.0857183 -0.62786
-0.84371 0.143539 0.909738
-0.870266 0.107896 0.568235
-0.865053 0.237629 0.73306
-0.643817 0.0917815 0.73732
-0.795409 0.818105 -0.797124
-0.845629 0.757623 -0.631128
-0.795579 0.839135 -0.466303
-0.627668 0.9324 -0.631714
-0.792288 0.919281 0.856984
-0.83994 0.827381 0.6975
-0.784203 0.890336 0.526163
-0.654114 1.12118 0.691573
0.85261 0.0833639 -0.803612
0.645027 0.0857358 -0.63286
0.859914 0.0834805 -0.463775
0.806582 0.20236 -0.633446
0.834489 0.13859 0.895572
0.632254 0.0917122 0.72732
0.870433 0.0952253 0.555735
0.851963 0.237824 0.721393
0.795395 0.818091 -0.797124
[...]
POINT_DATA 3682
SCALARS point_scalars float 1
LOOKUP_TABLE default
-100.442
-40.739
-64.493
-39.2658
-100.252
-43.938
-64.3693
-40.1896
-34.621
-39.8908
-44.8868
-49.5713
-46.9008
-37.8097
-45.2926
-48.9001
-84.0175
-113.465
-31.8141
-43.0991
-40.739
-40.739
-40.739
-84.0175
-118.66
-31.8141
-38.4398
-40.739
-40.739
-33.2482
38.4992
-97.4037
-44.1125
-44.8392
-39.4675
-37.1527
-33.1773
-52.0087
-76.0413
-70.736
-67.3053
-37.7019
-39.3733
-39.545
28.5656
-113.465
-36.5416
-41.5846
-40.739
-33.0388
-31.6408
28.5656
-32.6228
-32.2744
149.323
-32.801
-32.1766
32.4829
-59.7699
-42.7277
-70.4061
-39.0461
-35.0124
-32.9728
26.252
-113.376
-40.1944
-41.5221
-42.1413
-34.0707
-32.7995
26.252
-33.4729
-32.8243
149.323
-33.5945
-33.2297
32.5801
-60.8933
-42.7679
-70.3808
-39.4752
-35.0368
-34.0481
-84.1921
-113.376
-46.7588
-46.2544
-43.9044
-40.059
-34.5624
-84.1921
-117.956
-46.708
-37.7298
-43.9044
-40.059
-34.1524
49.6874
-97.2005
-44.0565
-44.5966
-40.0883
-37.9901
-34.0639
-52.2782
-76.0393
-70.7661
-67.6174
-38.3027
-40.2892
-40.616
-49.4363
-124.093
-54.1304
-38.004
-32.6926
-43.4825
-78.8983
-49.6156
-32.3939
-46.1767
-50.3491
-54.8159
-39.1638
-40.9427
-49.6429
-46.6515
-35.825
-40.7376
-39.764
-38.6896
-40.4762
-53.3243
6.76464
-71.1161
-40.1008
-40.8444
-38.6188
-53.4385
-60.378
-60.1436
-54.2378
-33.5597
201.636
-39.9501
-40.3891
-37.5114
-87.1117
-45.9478
-46.6001
-38.1009
-45.0894
-22.4086
-33.1706
-131.123
-80.6079
-38.0883
-36.2884
-36.1944
15.0406
-96.7977
-61.4902
-38.325
-32.3754
-40.7398
-131.124
-32.8631
-79.4856
-39.1576
-38.1834
-39.6156
-96.7731
16.5142
-61.5273
-33.0049
-39.5251
-41.1527
-47.3317
-41.2691
-39.1503
-39.5347
-39.4823
-26.8771
-37.948
-40.0948
-36.5029
-43.6501
-54.1008
4.84715
-49.1058
-43.7727
-51.3022
-67.4262
-46.1498
-39.6092
-35.669
-40.6621
-38.3103
-40.1847
-32.3271
-37.2681
-36.5198
4.87045
-43.4928
-54.1794
-51.5846
-67.5846
-43.702
-51.2332
-96.5808
170.741
-72.1827
185.188
-59.4289
-53.5299
-40.2864
-31.0538
-37.2288
-26.4402
-43.8172
-37.5489
-51.2151
186.665
-61.7008
-36.0054
-37.2218
-27.8912
-47.6262
-45.3982
-96.7114
170.752
-59.1729
-53.5446
-41.3988
-32.6397
-44.3397
-37.9059
-61.2905
-36.0227
-48.3236
-45.5238
-37.2373
-36.6473
-45.993
-40.819
-44.6867
-37.9561
-39.1328
-43.1814
-38.0516
-37.3781
-44.7338
-83.3569
-14.0184
-14.7074
-90.0956
-55.9917
-38.5021
-37.4377
-46.0699
-40.5147
-39.4687
-43.109
-44.8732
-83.3737
-95.3995
-46.6016
-44.4185
-95.0079
-95.7117
-95.7702
-44.3805
-45.8798
-72.2228
-72.2797
-44.282
-44.3441
-53.1084
-16.4344
-16.4361
-53.1337
161.743
138.786
138.697
161.649
-39.3301
-36.1781
-43.3349
-45.2472
-38.072
-45.0226
-43.434
-36.7514
-37.661
-37.5681
-37.8035
-37.6658
-18.2694
-81.3613
-81.3667
-18.2806
-42.063
-39.6084
-40.8201
-45.2132
-41.4975
-45.5909
-41.6023
-40.8603
-37.7545
-37.7419
-39.7241
-38.172
-55.2202
-37.7889
-37.9642
-55.4949
-31.5269
-32.7144
-32.45
-31.3403
-84.1921
-167.572
-115.127
-40.3248
-37.7165
-36.2174
0.116432
-87.797
-80.3495
-38.7257
-34.5048
-37.9242
-167.55
-83.2979
-114.835
-40.3985
-40.059
-38.7493
-87.9374
1.63899
-80.3652
-35.4455
-39.6934
-38.4887
-39.0832
-39.533
-38.0878
-38.7153
-40.2241
-46.3329
-37.8188
-41.6324
-35.0079
-45.9059
-53.3191
-5.71858
-53.2991
-46.7282
-49.9966
-58.5048
-32.9709
-39.2327
-36.8244
-41.235
-41.0285
-41.5202
-37.9317
-34.8928
-35.0502
-5.74234
-45.7364
-53.4825
-50.3428
-58.0018
-46.4324
-49.7358
-28.8229
-14.9748
-109.127
99.8261
-123.549
-123.601
-88.2004
86.2523
-62.8208
-48.472
-58.6677
-53.2585
-37.8229
-38.2042
-38.3601
-32.753
-32.2722
-33.3975
-34.3779
-27.7249
-45.183
-38.7104
-43.6442
-38.0939
-71.8488
-69.4836
-62.7956
101.677
-57.064
-41.0896
-60.0667
-39.5766
-32.1476
-32.3924
-34.2287
-28.6459
-43.8618
-49.2319
-45.5947
-46.705
-39.2039
-15.0088
-108.685
99.9836
-62.7207
-48.4973
-58.3057
-53.2735
-39.0918
-39.3027
-39.3097
-33.5453
-46.8296
-39.8173
-43.9293
-38.3436
-57.0073
-41.1017
-60.4559
-39.589
-44.1909
-49.7952
-46.1493
-46.6919
-38.198
-33.5424
-36.6518
-35.8996
-39.8754
-41.7142
-41.4399
-40.7497
-39.6648
-39.7437
-41.7367
-38.7739
-38.4393
-41.1369
-38.6804
-40.2284
-40.6444
-40.7141
-38.8587
-37.6735
-54.0317
-52.2651
-48.809
-68.7551
5.75846
6.10535
-6.20002
7.40251
-69.9646
-70.0613
-80.4938
-62.9723
-38.5037
-34.0183
-38.3943
-36.8513
-40.3646
-41.6745
-41.6633
-40.4815
-37.9829
-41.2908
-38.8426
-39.9893
-54.1495
-52.3155
-48.9174
-68.787
-73.2819
-59.9432
-60.4898
-52.1073
-73.4409
-59.7764
-60.1283
-52.003
-61.693
-53.9455
-54.0092
-48.7754
-42.4995
-34.1411
-34.1454
-25.1677
194.784
186.107
174.975
194.695
-38.7041
-40.4712
-39.4525
-41.9372
-39.3347
-40.5823
-39.9494
-42.1969
-37.2751
-37.576
-37.5061
-37.3783
-85.0511
-61.0221
-95.7825
-85.0769
-46.9952
-44.8964
-47.4696
-44.9642
-47.4936
-45.5032
-48.1772
-45.3576
-37.5068
-37.8583
-37.9094
-37.8098
-40.6069
-45.0441
-45.12
-50.0998
-25.7567
-22.6394
-28.3173
-27.9652
-120.364
83.3779
-91.6626
117.134
-90.141
-73.0389
-37.8769
-33.0176
-35.947
-32.2827
-38.4104
-40.0541
-101.786
73.7492
-65.2518
138.795
-68.6556
-56.4603
-38.841
-32.6821
-34.7497
-31.2433
-40.8469
-39.4068
-91.8263
117.723
-118.946
83.6545
-90.7604
-73.198
-37.7523
-33.7482
-39.2062
-34.0959
-39.6545
-44.003
-65.2791
138.67
-102.082
73.4922
-69.2174
-56.4779
-35.0987
-32.3074
-39.6304
-33.6215
-41.483
-39.6671
-46.8602
-43.9697
-39.2532
-37.6779
-40.7494
-39.4057
-41.4781
-38.4631
-41.3379
-37.2138
-32.8304
-36.9219
-39.2771
-40.2934
-39.8526
-38.6711
-43.241
-22.3528
-41.9801
-44.7065
-49.7185
-71.005
-7.13018
3.4932
-48.0225
-54.6667
-43.0078
-44.1612
-47.3577
-61.5371
-74.0761
-61.0228
-46.1047
-43.7739
-41.4562
-38.2802
-37.1839
-37.062
-41.3096
-38.6124
-41.2487
-36.9341
-39.9969
-38.7337
-35.0813
-36.8712
-38.8709
-40.2834
-43.2562
-22.3724
-7.147
3.51676
-41.9765
-44.4515
-49.4802
-71.0913
-48.8842
-56.536
-74.1126
-61.3406
-42.9766
-44.1834
-47.3423
-61.4193
-97.5306
-98.0544
156.405
145.268
-71.8727
-71.9299
178.763
178.739
-71.5577
-52.1121
-61.0437
-48.3062
-40.3422
-40.5547
-31.3275
-31.5948
-38.6534
-37.4756
-28.3614
-29.8391
-42.8951
-45.9372
-37.6462
-36.8391
-51.5045
-51.5165
170.835
171.056
-51.7442
-75.9154
-44.4522
-28.1224
-37.304
-37.4197
-29.869
-28.7095
-43.5689
-47.2715
-49.9274
-41.3972
-97.8935
-98.0561
145.685
156.419
-71.4217
-51.7291
-61.0615
-48.276
-41.4649
-41.6109
-32.6712
-32.6417
-42.9875
-47.1116
-37.8299
-37.4682
-77.1657
-51.7479
-28.1313
-44.457
-47.8105
-44.2904
-41.5428
-50.0974
-38.273
-36.213
-37.1911
-37.1771
-46.2129
-45.0951
-39.8548
-42.5063
-44.5783
-44.5351
-37.9014
-37.7648
-38.0663
-40.952
-42.7974
-43.4602
-38.027
-37.9444
-37.6257
-37.6572
-44.0115
-45.1037
-62.3105
-86.2335
-13.8096
-13.775
-15.0883
-15.0688
-87.9993
-88.033
-55.7508
-55.8579
-38.5078
-37.2984
-37.3038
-37.0571
-45.1248
-46.1144
-39.2892
-42.2797
-41.152
-38.5037
-42.1362
-43.7037
-45.1375
-44.1828
-86.2341
-62.3762
-122.635
-70.6424
-72.5343
-120.376
-40.068
-41.2287
-52.4353
-51.9204
-41.4367
-49.5192
-51.8277
-41.6088
-106.577
-102.715
-73.9536
-72.7905
-121.455
-118.973
-72.741
-70.7672
-106.875
-72.9733
-74.3448
-103.098
-41.5998
-41.7296
-51.9191
-49.5439
-40.5966
-51.4826
-51.9517
-41.5894
-102.431
-88.9009
-61.3728
-60.7069
-102.604
-60.8489
-61.4201
-88.9833
-41.007
-41.6164
-48.6653
-47.9334
-40.9125
-48.0436
-48.561
-41.6197
-68.3634
-48.0196
-42.785
-64.516
-11.1979
-6.41847
-25.7793
-31.4016
-11.2114
-31.4118
-25.7884
-6.42784
-68.3633
-64.5158
-42.7878
-48.0362
69.6383
70.2397
180.136
130.605
63.9768
122.684
167.804
92.6563
63.407
92.6668
167.854
122.335
69.5024
130.569
180.12
70.6295
-39.6152
-37.7527
-39.3469
-39.893
-40.701
-37.8566
-38.1375
-34.1367
-46.6776
-48.1975
-41.4272
-40.5732
-48.4202
-42.2018
-42.3413
-49.3259
-37.7522
-39.5048
-39.4298
-38.1211
-48.2521
-49.4422
-42.3686
-41.9751
-46.5149
-40.595
-41.7227
-48.2587
-40.2699
-36.1957
-38.8369
-37.8903
-38.3958
-38.7085
-37.4078
-36.6746
-37.6632
-37.3882
-37.5588
-38.4972
-39.345
-38.4234
-37.5287
-36.1109
-39.4792
-35.6885
-37.6547
-38.8864
-35.8911
-72.7596
-60.3373
6.7886
-59.8157
-79.5053
-93.5197
-64.2548
-59.5334
-64.2314
-93.5365
-79.5582
-35.9686
6.82031
-60.3322
-72.8471
-39.5072
-41.9999
-43.8232
-39.9412
-36.6593
-38.2348
-46.7849
-46.6798
-38.9516
-43.0273
-45.1063
-38.5768
-48.0862
-41.4703
-45.9929
-47.5678
-39.6859
-39.9522
-44.196
-42.0222
-48.1234
-48.2225
-46.2353
-41.2845
-39.6606
-39.4376
-46.1202
-43.5848
-38.1717
-47.8404
-47.4835
-39.2462
-40.1821
-37.9049
-37.69
-37.4741
-40.7035
-37.7195
-37.9459
-37.9909
-38.2125
-35.1213
-38.2016
-39.0746
-36.1283
-37.9441
-37.5959
-34.452
-58.4144
-51.2621
-49.9192
-62.3554
-35.9023
-34.3945
-40.8729
-42.8634
-36.3378
-42.9783
-40.9394
-34.5797
-58.3379
-62.471
-50.0092
-51.0497
-34.7522
-33.7223
-26.3266
-32.7162
-35.9372
-33.5494
-28.6213
-34.4199
-33.7834
-30.4589
-30.5034
-33.583
-32.7546
-32.7403
-29.2949
-29.6198
-76.0616
-128.909
-137.795
-40.6715
-40.2434
-36.2237
-1.6794
-48.2973
-108.771
-40.2631
-37.1604
-37.2678
-129.021
-75.7752
-137.127
-42.2726
-40.7981
-43.0277
-48.5056
-1.64152
-108.546
-38.1721
-41.2561
-37.9487
-40.9185
-31.8141
-37.1421
-36.6553
-36.8854
-48.1926
-38.1423
-41.247
-38.8247
-47.6077
-53.6366
-28.801
-49.7037
-47.8226
-48.9379
-54.0515
-43.5776
-39.2192
-37.7511
-43.9575
-37.1244
-41.6225
-47.0538
-35.0465
-38.8437
-28.8054
-47.5868
-53.7319
-48.6071
-53.0774
-47.3282
-48.5367
-40.9712
-35.3644
-94.2696
64.6327
-123.863
-123.864
-103.308
-41.1005
-58.0487
-50.0171
-56.1104
-52.7809
-37.5187
-38.3429
-37.7588
-33.9045
-32.6094
-33.5079
-33.4406
-30.8643
-42.6048
-39.8487
-43.4398
-39.1453
-74.8602
-74.7099
-69.92
-33.9651
-54.0225
-44.9032
-55.1103
-42.6919
-32.2703
-32.3943
-33.2396
-30.465
-44.7593
-47.4494
-45.5239
-47.2099
-40.3625
-35.9333
-94.5075
65.0153
-58.0533
-49.7824
-56.6032
-52.8035
-38.8783
-39.3691
-38.736
-34.8554
-44.3134
-37.946
-43.3747
-39.3005
-53.9555
-44.9507
-55.7336
-42.6984
-45.1148
-47.9767
-45.993
-47.2046
-37.0631
-34.3736
-36.6682
-34.4896
-40.3218
-41.1522
-40.9001
-40.7393
-39.7442
-39.7254
-40.4607
-39.3248
-38.3195
-39.7384
-38.1332
-39.66
-40.4799
-40.4765
-39.4016
-39.0001
-53.882
-52.7984
-50.8514
-58.7959
6.07269
6.07922
-0.537739
10.0921
-70.9107
-70.9605
-75.7432
-66.6884
-43.8002
-36.9252
-38.6225
-37.129
-40.5557
-41.1723
-41.0906
-40.6557
-37.9326
-39.8703
-37.8841
-40.264
-54.0056
-52.8914
-50.9375
-58.8638
-65.9548
-60.146
-60.4342
-55.9055
-65.7763
-59.9879
-60.0292
-55.6974
-57.6788
-54.2111
-54.1998
-51.2617
-37.5378
-33.8354
-33.8297
-29.5562
197.062
190.523
200.869
196.584
-39.272
-40.2602
-39.6242
-40.8684
-39.8574
-40.5399
-40.1631
-41.1807
-37.6357
-37.4701
-37.3223
-37.7677
-87.1592
-73.134
-93.2788
-87.1728
-46.7822
-45.473
-46.4011
-46.4434
-47.3049
-46.1365
-47.0785
-46.7221
-37.4964
-37.9001
-38.0521
-37.7448
-42.8622
-45.0697
-45.1133
-47.2702
-22.8911
-21.3492
-26.7087
-24.4316
-72.0731
-53.1846
-157.172
73.6131
-144.805
-125.736
-110.063
-16.9677
-96.2826
-67.4862
-85.6898
-73.078
-39.5409
-37.906
-37.7365
-34.3062
-37.5543
-34.059
-37.2155
-33.8504
-36.0152
-42.8542
-36.1304
-40.1168
3.32577
15.7749
-105.469
59.4622
-98.3076
-79.314
-74.8761
35.2354
-71.8436
-59.8919
-65.3698
-58.9055
-38.3342
-38.24
-39.0617
-33.6189
-33.0596
-32.0884
-33.3952
-31.5861
-38.9298
-41.9599
-40.5965
-40.587
-144.745
-125.789
-110.198
-16.9204
-71.2009
-41.1403
-156.248
74.3614
-96.1548
-71.618
-84.8561
-73.199
-37.6003
-35.0249
-38.5164
-34.8511
-39.8002
-39.2167
-38.5895
-35.3599
-37.9749
-40.1462
-38.5715
-41.9498
-98.9107
-78.9509
-74.9165
35.1636
2.84222
16.0437
-104.993
59.0053
-71.8915
-59.952
-65.4523
-58.9207
-33.8634
-32.5082
-33.8206
-32.5163
-39.4541
-39.4319
-39.6285
-34.6581
-39.4121
-42.3315
-41.1555
-40.8533
-40.2593
-52.6087
-46.233
-43.225
-45.0875
-36.2284
-39.2784
-37.9475
-38.5624
-39.5954
-39.8386
-39.131
-39.4734
-39.5446
-40.4409
-38.8971
-38.683
-39.4445
-40.4862
-37.4796
-28.3499
-32.1618
-32.2651
-34.0317
-37.379
-38.4007
-37.5871
-40.4275
-40.3137
-40.3342
-40.3789
-39.2569
-34.4102
-38.5345
-42.3066
-27.777
-44.5969
-42.5016
-42.5978
-44.2834
-53.5976
-54.0758
-51.4303
-64.4383
2.35651
5.529
-2.17038
7.82365
-52.2062
-49.094
-48.6582
-48.6596
-45.3019
-42.4765
-43.3163
-43.9233
-50.7146
-51.8062
-49.4345
-55.4789
-65.396
-69.0096
-70.9467
-64.0433
-38.2489
-51.1345
-45.436
-42.7061
-39.5148
-39.6095
-40.4539
-38.8334
-36.2509
-33.0644
-36.581
-36.2177
-41.0522
-40.4431
-41.3794
-39.5182
-38.614
-40.8772
-39.6528
-37.1285
-40.3121
-40.3569
-40.6917
-39.0707
-24.0293
-34.534
-34.4799
-34.0257
-36.1934
-37.9606
-36.7188
-39.8775
-34.4511
-38.5622
-42.2839
-27.7982
2.31322
5.50478
-2.18283
7.84099
-44.4002
-42.3743
-42.4875
-44.1193
-53.6715
-54.1703
-51.4453
-64.5323
-52.1771
-50.4105
-49.9551
-56.2285
-65.4704
-69.1484
-71.031
-64.303
-45.1518
-42.4386
-43.2316
-43.8887
-50.5599
-51.8085
-49.3807
-55.3622
-111.977
-82.2382
-96.7232
-97.2857
137.983
190.581
161.531
171.573
-79.1698
-66.3845
-72.1858
-72.1513
185.147
185.983
183.634
183.605
-59.2745
-59.7478
-64.1992
-55.3466
-53.293
-53.6886
-57.0122
-50.7859
-39.1318
-43.1956
-40.255
-40.4055
-32.3789
-28.8743
-31.1294
-31.5753
-35.6047
-37.8189
-38.3168
-37.7708
-27.4061
-25.1106
-26.7057
-27.8293
-43.6481
-44.2182
-43.781
-44.6
-37.195
-38.0241
-37.5108
-38.0419
-55.3709
-47.4729
-51.3551
-51.3572
188.802
182.093
182.28
182.345
-61.6803
-60.8459
-56.2156
-67.2382
-37.5708
-34.6464
-39.8301
-32.3179
-35.6824
-38.78
-37.2149
-37.2787
-28.1707
-27.4678
-28.845
-28.0467
-45.8272
-48.3661
-45.4442
-48.1928
-45.946
-45.1521
-47.5968
-43.3153
-112.487
-82.5819
-96.81
-97.2535
137.953
190.56
171.763
161.546
-58.8094
-59.4415
-64.0714
-54.814
-53.3144
-53.7173
-57.0347
-50.7621
-40.0691
-44.0744
-41.3608
-41.5103
-33.3752
-30.9784
-32.671
-32.8875
-44.0938
-44.7478
-43.9957
-45.361
-37.4575
-38.066
-37.7102
-38.047
-61.9388
-60.5844
-68.0542
-56.1808
-37.5874
-34.6589
-32.3425
-39.8391
-46.463
-48.9683
-48.7526
-46.2261
-46.0456
-45.2595
-43.4431
-47.7378
-36.7625
-37.9882
-37.8506
-36.6154
-36.3332
-36.8306
-37.3774
-36.5281
-42.8065
-49.5846
-46.2644
-45.6352
-40.7966
-40.6806
-40.3078
-41.5268
-43.0858
-46.5654
-44.6502
-44.7677
-38.2872
-37.6478
-38.0215
-37.9608
-39.0582
-39.273
-38.5706
-39.9893
-41.3425
-44.1976
-42.8501
-43.2712
-38.3501
-37.6436
-38.1793
-38.1286
-37.4166
-37.3617
-37.7738
-37.824
-46.5891
-43.1782
-44.3114
-44.9883
-76.6437
-84.2664
-73.7316
-85.6774
-8.96145
-20.5132
-13.4325
-13.4074
-0.595671
-38.2652
-14.6968
-14.6954
-84.7286
-95.0321
-89.0968
-89.1136
-59.1238
-52.7304
-55.8895
-55.9417
-38.3449
-38.7642
-38.836
-37.8876
-36.908
-37.1609
-37.264
-36.963
-42.8956
-49.5301
-45.8282
-46.1321
-40.4715
-40.5491
-39.8962
-41.2929
-39.2349
-39.7296
-40.2482
-39.0027
-40.5946
-44.6818
-42.5604
-43.4392
-46.7065
-43.3755
-45.0562
-44.4934
-76.6458
-84.3106
-85.6843
-73.7748
-109.569
-93.3893
-97.258
-80.8405
-46.672
-42.7175
-50.3902
-46.454
-43.9725
-42.6154
-47.7622
-44.5714
-94.565
-82.5073
-99.6119
-85.6573
-109.746
-94.062
-97.5649
-81.1942
-94.739
-83.3355
-99.503
-85.7686
-44.0311
-42.7015
-47.9011
-44.6658
-45.988
-41.871
-50.1141
-46.1438
-80.7121
-72.5011
-71.707
-65.7701
-80.7864
-72.6255
-71.7374
-65.8292
-44.074
-42.7816
-46.1279
-44.357
-44.1393
-42.8103
-46.1333
-44.3892
-57.9936
-54.4587
-52.1154
-49.1499
-18.9549
-10.2833
-24.1194
-15.4515
-18.9564
-10.2874
-24.1262
-15.5106
-58.026
-54.4749
-52.1563
-49.1515
105.448
146.481
158.79
172.201
109.391
139.623
133.375
157.105
139.448
109.622
157.034
133.344
146.189
104.844
172.334
158.749
-39.2648
-39.5952
-38.7904
-39.4265
-34.6931
-37.395
-35.9653
-37.306
-43.1071
-45.2019
-42.0014
-43.6821
-44.9964
-47.0203
-43.7248
-45.2399
-37.2017
-38.2134
-38.2115
-38.7121
-44.7783
-46.7624
-43.5057
-45.1326
-43.1325
-45.2016
-42.1551
-43.8172
-35.8095
-37.3184
-36.9334
-37.773
-37.5765
-38.1046
-37.3763
-37.7595
-37.8804
-37.374
-37.621
-37.4208
-38.9425
-37.3939
-37.8894
-38.0531
-37.399
-38.8881
-37.8384
-37.6828
-33.2886
-4.71203
-39.8429
-15.8569
-72.8529
-77.4678
-85.6939
-85.8532
-77.472
-72.7712
-85.892
-85.7032
-4.68802
-33.2836
-15.9337
-39.8536
-41.6676
-41.1411
-42.2026
-42.4108
-38.1263
-38.9161
-40.0719
-42.8213
-39.6892
-40.7451
-40.7351
-42.2053
-46.6495
-44.7591
-45.9038
-44.0948
-41.5496
-40.6348
-42.4175
-41.8226
-47.2153
-44.987
-46.3335
-44.3025
-40.4674
-41.5282
-41.5466
-42.9443
-39.4765
-40.5684
-41.3578
-44.0183
-38.1277
-39.0441
-36.9865
-37.1292
-38.1174
-39.035
-36.9396
-37.181
-37.3149
-42.8409
-38.4226
-41.8117
-35.692
-38.7463
-37.4061
-40.5001
-55.4269
-58.0202
-52.5918
-55.5944
-36.1987
-38.4119
-37.4467
-39.5421
-36.4753
-38.6571
-37.6141
-39.7161
-55.8733
-58.3562
-52.8126
-55.7715
-32.3845
-31.7442
-31.4225
-30.1602
-33.034
-33.4102
-31.5906
-32.6511
-32.362
-33.0801
-31.2763
-32.5376
-32.0966
-31.2932
-31.3262
-30.0569
-129.215
52.0814
-135.006
-45.288
-118.506
-108.785
-37.5331
-37.3935
-37.024
-38.3399
-35.879
-38.6965
-110.023
69.3414
-79.1448
38.9614
-98.7744
-73.9022
-39.6632
-33.96
-34.3867
-33.8092
-38.59
-36.9735
-135.136
-45.652
-128.276
52.5775
-117.769
-108.841
-40.1756
-37.4696
-39.0708
-39.0809
-37.4799
-40.8566
-79.1578
39.4135
-109.591
69.2282
-98.9755
-73.8984
-34.9461
-34.8931
-40.3599
-35.0729
-39.2667
-37.4405
-39.7679
-40.3189
-40.2522
-39.4552
-39.4872
-38.4729
-39.5417
-38.2719
-38.6173
-40.2565
-45.8771
-40.9561
-39.8928
-41.4119
-39.6583
-42.2988
-39.3873
-19.6577
-43.2318
-47.6737
-50.6017
-69.3115
-6.9888
-14.304
-49.4952
-55.947
-46.4509
-47.3498
-48.4307
-53.6627
-59.0079
-55.7481
-33.2236
-40.2393
-39.9748
-38.2891
-37.7811
-37.0817
-42.5269
-39.2151
-39.3835
-40.9206
-39.6409
-42.5149
-45.0219
-40.8914
-39.0457
-38.8261
-39.5846
-19.7486
-7.03375
-14.3034
-43.2433
-47.5594
-50.5308
-69.4028
-49.3451
-52.409
-58.6279
-55.2201
-46.2183
-47.0657
-48.2134
-53.3342
-135.812
64.5896
-88.7969
59.2472
-114.86
-104.881
85.5777
107.137
-102.829
6.17565
-102.961
6.26043
-88.5375
-88.5853
120.536
120.743
-67.4454
-59.8705
-49.8479
-47.6304
-63.2237
-54.7162
-56.5668
-50.3625
-37.7793
-33.8161
-37.8956
-33.7023
-38.3112
-38.4555
-32.695
-32.7976
-33.6005
-33.9588
-34.3291
-34.7196
-35.0945
-34.4126
-29.2006
-30.1563
-46.4955
-38.4549
-40.6338
-38.1906
-43.1866
-44.5112
-37.461
-40.0103
-75.4838
-22.0281
-75.4011
-22.5651
-62.7403
-62.7305
136.73
136.643
-63.9045
-50.9155
-46.6869
-34.6354
-54.4122
-66.8766
-43.522
-35.8198
-33.1921
-30.6969
-33.425
-31.2476
-34.3078
-34.414
-29.6835
-29.0793
-43.1845
-43.5864
-47.9306
-52.5658
-44.3011
-46.9006
-48.7256
-45.0446
-137.985
65.0156
-88.244
58.1233
-113.789
-105.23
107.225
85.7294
-67.0799
-60.0061
-50.2241
-47.3697
-63.3511
-54.339
-56.6553
-50.3315
-38.705
-34.8299
-38.8132
-34.7406
-39.3601
-39.2957
-33.5219
-33.5565
-49.3055
-41.4448
-41.5175
-38.3267
-43.1698
-45.4148
-37.813
-40.0663
-63.9089
-50.9267
-46.7221
-34.6404
-66.6674
-54.737
-35.8341
-43.53
-43.6257
-43.7333
-48.6258
-52.0078
-47.4745
-44.8364
-45.0946
-48.6483
-38.0477
-36.5389
-34.1408
-33.9113
-37.0364
-35.1284
-36.1601
-35.9506
-40.4587
-39.9281
-41.4411
-42.031
-41.2522
-41.5256
-40.3025
-41.3599
-40.3561
-39.2418
-40.3509
-39.2575
-41.7368
-41.7681
-38.8601
-38.756
-37.4366
-39.1173
-40.3556
-41.9107
-37.9889
-39.5878
-39.8997
-40.9108
-39.5243
-39.3545
-39.0039
-39.4835
-38.9356
-38.9576
-37.951
-37.9525
-51.2049
-60.8866
-50.1156
-57.0251
-48.2719
-49.3478
-72.3638
-66.446
-0.707473
9.70579
-0.734124
9.72717
-6.36038
-6.41955
7.34335
7.3728
-74.7373
-66.1855
-74.8116
-66.2942
-80.2948
-80.3273
-62.8206
-62.8796
-38.161
-38.087
-35.3405
-34.7159
-38.9124
-37.1782
-37.4446
-36.1926
-40.8737
-39.8963
-41.5202
-41.8804
-41.7193
-41.6028
-39.9448
-41.1438
-37.6533
-38.8488
-40.3617
-41.868
-39.638
-38.2876
-39.9283
-40.3522
-51.2727
-60.9816
-50.1628
-57.0214
-49.3944
-48.3635
-66.4546
-72.4303
-72.9097
-73.4511
-65.1349
-55.7934
-55.7067
-66.3235
-52.2008
-51.9769
-73.1335
-73.7506
-65.1753
-55.3162
-66.1597
-55.5961
-51.914
-51.9225
-61.7227
-61.6429
-57.3899
-51.0268
-57.4501
-51.1644
-48.7465
-48.7958
-42.5367
-42.5442
-37.7496
-30.3924
-30.4046
-37.7572
-25.3432