# vtk DataFile Version 2.0
tet_velo
ASCII
DATASET UNSTRUCTURED_GRID
POINTS 29498 float
-0.742793 0.145 -2.165
-0.615 0.165 2.28956
-0.717378 0.765 -2.085
-0.695 1.015 2.26289
0.743744 0.145 -2.165
0.630291 0.165 2.285
0.708891 0.765 -2.085
0.707132 1.005 2.255
-0.70709 0.144772 -0.680147
-0.671177 0.144754 0.804707
-0.796186 0.9346 -0.635703
-0.781252 1.01046 0.813594
0.712777 0.144816 -0.681667
0.681629 0.144813 0.801667
0.787527 0.924223 -0.638333
0.77229 0.989572 0.808334
-1.49326 -0.283424 -3.35601
-1.48257 -0.231133 -2.18327
-1.44884 -0.22984 -0.697351
-1.39481 -0.24834 0.796225
-1.33887 -0.242357 2.28279
-1.32529 -0.221392 3.4587
-1.3267 -0.193446 4.62878
-1.49404 0.0717072 -3.32914
-1.48959 0.141999 -2.16038
-1.46237 0.165932 -0.681238
-1.40123 0.16391 0.80157
-1.32813 0.172983 2.2814
-1.31726 0.193729 3.45658
-1.32314 0.220623 4.62767
-1.48859 0.754175 -3.26497
-1.49004 0.82249 -2.09462
-1.52713 0.949056 -0.639745
-1.4878 1.01113 0.813063
-1.39891 1.02213 2.26856
-1.35834 1.03742 3.44469
-1.34649 1.05894 4.62123
-1.48604 1.89151 -3.19535
-1.4897 1.97421 -2.03024
-1.50839 2.1107 -0.587771
-1.5092 2.22017 0.847211
-1.47667 2.27413 2.29
-1.44039 2.29618 3.45579
-1.41097 2.31502 4.62885
-0.754976 -0.282769 -3.3591
-0.744933 -0.227776 -2.18763
-0.718288 -0.24002 -0.698232
-0.687856 -0.262504 0.79886
-0.651554 -0.251621 2.28846
-0.634933 -0.229684 3.4617
-0.630859 -0.201059 4.62953
-0.754725 0.0660295 -3.33056
-0.620079 0.186041 3.4584
-0.6247 0.213311 4.62753
-0.746749 0.728133 -3.26123
-0.650629 1.03058 3.44119
-0.640556 1.05258 4.61845
-0.738851 1.87127 -3.19201
-0.73729 1.95399 -2.02662
-0.757756 2.10028 -0.586471
-0.772111 2.21749 0.844762
-0.754192 2.27205 2.28506
-0.722979 2.29291 3.45079
-0.695666 2.31108 4.62459
0.722655 -0.284814 -3.36001
0.728921 -0.228885 -2.18836
0.710867 -0.241228 -0.700022
0.680892 -0.263765 0.795747
0.651895 -0.253 2.28422
0.699872 -0.233129 3.457
0.737448 -0.205999 4.62479
0.722154 0.064401 -3.33119
0.709027 0.182172 3.45326
0.743994 0.207942 4.62253
0.7187 0.726085 -3.26191
0.731302 1.02308 3.435
0.74965 1.04562 4.61306
0.749015 1.86593 -3.19383
0.760289 1.94753 -2.02872
0.753235 2.09096 -0.589496
0.723224 2.2059 0.84052
0.705221 2.26123 2.27997
0.714976 2.28345 3.44559
0.732443 2.30258 4.61958
1.4629 -0.288844 -3.35835
1.46943 -0.235966 -2.18566
1.44588 -0.236025 -0.70155
1.39647 -0.255222 0.789523
1.35433 -0.24871 2.27416
1.38649 -0.229828 3.44942
1.427 -0.203858 4.61946
1.46573 0.0666391 -3.33111
1.48354 0.137116 -2.16227
1.46504 0.157996 -0.685418
1.41096 0.154322 0.794326
1.35293 0.165739 2.27181
1.39153 0.184286 3.44655
1.43225 0.20939 4.61789
1.4663 0.74801 -3.26705
1.48278 0.81531 -2.09677
1.52121 0.932226 -0.64488
1.48215 0.986309 0.804012
1.41453 1.00484 2.25659
1.42302 1.02267 3.43331
1.44524 1.04493 4.61082
1.49069 1.88043 -3.1992
1.50314 1.96106 -2.03465
1.50041 2.09274 -0.59385
1.46831 2.19855 0.838974
1.43855 2.25356 2.28023
1.43699 2.27775 3.44574
1.44795 2.29825 4.61906
-0.757156 0.455 -2.15207
0.000475496 0.141286 -2.16871
-0.725074 0.144754 -1.42257
-0.644961 0.59 2.26619
0.00764549 0.234933 2.21735
-0.654674 0.143291 1.54713
-0.00424352 0.817979 -2.13798
-0.79182 0.884838 -1.36035
0.00606599 1.04957 2.29852
-0.752754 1.02736 1.53824
0.747902 0.455 -2.14658
0.730476 0.142692 -1.42333
0.66376 0.585 2.26505
0.666838 0.144028 1.54333
0.786502 0.882904 -1.36167
0.754656 1.01223 1.53167
-0.688944 0.144952 0.0622801
-0.873055 0.539686 -0.657925
0.00284363 0.141873 -0.680907
-0.867418 0.577607 0.80915
0.00522618 0.14199 0.803187
-0.795085 0.978896 0.088945
-0.00432912 1.18684 -0.637018
-0.00448111 1.45408 0.810964
0.697016 0.145002 0.0600001
0.854362 0.534519 -0.66
0.847878 0.567192 0.805
0.784463 0.961452 0.085
-0.857574 0.497343 -1.39146
-0.874059 0.558646 0.0756125
-0.885643 0.583803 1.54269
0.00165956 0.141747 -1.42295
0.00403491 0.141925 0.0611401
0.00643583 0.127494 1.54523
-0.00188401 0.455 -2.20858
0.00685574 0.5875 2.28674
-0.00428632 0.94039 -1.36101
-0.00440511 1.45512 0.0869725
0.000792444 1.19529 1.53495
0.870114 0.49476 -1.3925
0.85761 0.550856 0.0725001
0.89521 0.576096 1.5375
-1.11619 0.143499 -2.16269
-0.743863 -0.0413879 -2.17631
-0.748759 0.105515 -2.74778
-0.971565 0.168992 2.28548
-0.633277 -0.0433106 2.28901
-0.61754 0.175521 2.87398
-1.10371 0.793745 -2.08981
-0.732063 0.746566 -2.67311
-0.727334 1.35949 -2.05581
-1.04695 1.01857 2.26573
-0.672814 1.02279 2.85204
-0.724596 1.64353 2.27398
0.736332 -0.0419425 -2.17668
0.732949 0.1047 -2.7481
1.11364 0.141058 -2.16364
0.641093 -0.0440002 2.28461
0.669659 0.173586 2.86913
0.991609 0.165369 2.27841
0.713796 0.745543 -2.67345
0.73459 1.35627 -2.05686
1.09583 0.790155 -2.09088
0.719217 1.01404 2.845
0.706177 1.63312 2.26748
1.06083 1.00492 2.2558
-1.08473 0.155352 -0.680693
-0.712689 -0.047624 -0.689189
-1.03621 0.154332 0.803139
-0.679517 -0.0588752 0.801783
-1.16166 0.941828 -0.637724
-0.776971 1.51744 -0.611087
-1.13453 1.01079 0.813328
-0.776682 1.61398 0.829178
0.711822 -0.0482059 -0.690844
1.08891 0.151406 -0.683543
0.68126 -0.0594763 0.798707
1.0463 0.149567 0.797997
0.770381 1.50759 -0.613915
1.15437 0.928225 -0.641607
0.747757 1.59774 0.824427
1.12722 0.98794 0.806173
-1.48791 -0.257278 -2.76964
-1.49365 -0.105858 -3.34257
-1.12412 -0.283097 -3.35755
-1.46571 -0.230487 -1.44031
-1.48608 -0.044567 -2.17182
-1.11375 -0.229454 -2.18545
-1.42182 -0.23909 0.0494369
-1.45561 -0.0319541 -0.689295
-1.08357 -0.23493 -0.697791
-1.36684 -0.245349 1.53951
-1.39802 -0.0422149 0.798898
-1.04133 -0.255422 0.797542
-1.33208 -0.231875 2.87075
-1.3335 -0.0346872 2.2821
-0.99521 -0.246989 2.28563
-1.32599 -0.207419 4.04374
-1.32127 -0.0138312 3.45764
-0.98011 -0.225538 3.4602
-1.32492 0.0135887 4.62822
-0.978779 -0.197252 4.62915
-1.49181 0.106853 -2.74476
-1.49132 0.412941 -3.29705
-1.12438 0.0688684 -3.32985
-1.47598 0.153965 -1.42081
-1.48981 0.482245 -2.1275
-1.4318 0.164921 0.060166
-1.49475 0.557494 -0.660492
-1.36468 0.168446 1.54149
-1.44452 0.58752 0.807317
-1.3227 0.183356 2.86899
-1.36352 0.597557 2.27498
-1.3202 0.207176 4.04213
-1.3378 0.615576 3.45064
-0.96867 0.189885 3.45749
-1.33481 0.63978 4.62445
-0.973918 0.216967 4.6276
-1.48932 0.788333 -2.6798
-1.48732 1.32284 -3.23016
-1.11767 0.741154 -3.2631
-1.50859 0.885773 -1.36718
-1.48987 1.39835 -2.06243
-1.50747 0.980093 0.0866591
-1.51776 1.52988 -0.613758
-1.44335 1.01663 1.54081
-1.4985 1.61565 0.830137
-1.37863 1.02978 2.85663
-1.43779 1.64813 2.27928
-1.35242 1.04818 4.03296
-1.39937 1.6668 3.45024
-1.00449 1.034 3.44294
-1.37873 1.68698 4.62504
-0.993523 1.05576 4.61984
-1.48787 1.93286 -2.61279
-1.11245 1.88139 -3.19368
-1.49905 2.04246 -1.309
-1.1135 1.9641 -2.02843
-1.50879 2.16544 0.12972
-1.13307 2.10549 -0.587121
-1.49293 2.24715 1.5686
-1.14065 2.21883 0.845986
-1.45853 2.28516 2.87289
-1.11543 2.27309 2.28753
-1.42568 2.3056 4.04232
-1.08168 2.29454 3.45329
-1.05332 2.31305 4.62672
-0.749954 -0.255273 -2.77336
-0.75485 -0.10837 -3.34483
-0.0161601 -0.283792 -3.35955
-0.731611 -0.233898 -1.44293
-0.00800624 -0.22833 -2.18799
-0.703072 -0.251262 0.0503141
-0.00371074 -0.240624 -0.699127
-0.669705 -0.257063 1.54366
-0.00348229 -0.263135 0.797303
-0.643243 -0.240652 2.87508
0.000170832 -0.252311 2.28634
-0.632896 -0.215372 4.04561
-0.627506 -0.0218213 3.46005
0.0324694 -0.231406 3.45935
-0.62778 0.00612586 4.62853
0.0532946 -0.203529 4.62716
-0.750737 0.397081 -3.29589
-0.0162852 0.0652152 -3.33087
-0.62239 0.199676 4.04296
-0.635354 0.608313 3.44979
0.0444738 0.184106 3.45583
-0.632628 0.632947 4.62299
0.0596467 0.210626 4.62503
-0.7428 1.2997 -3.22662
-0.0140242 0.727109 -3.26157
-0.645592 1.04158 4.02982
-0.686804 1.66175 3.44599
0.0403366 1.02683 3.4381
-0.668111 1.68183 4.62152
0.0545472 1.0491 4.61576
-0.738071 1.91263 -2.60932
0.00508161 1.8686 -3.19292
-0.747523 2.02713 -1.30655
0.0114996 1.95076 -2.02767
-0.764933 2.15889 0.129145
-0.00226061 2.09562 -0.587984
-0.763151 2.24477 1.56491
-0.0244436 2.2117 0.842641
-0.738585 2.28248 2.86793
-0.0244851 2.26664 2.28251
-0.709323 2.30199 4.03769
-0.00400176 2.28818 3.44819
0.0183884 2.30683 4.62208
0.725788 -0.25685 -2.77418
0.722405 -0.110207 -3.3456
1.09278 -0.286829 -3.35918
0.719894 -0.235056 -1.44419
1.09918 -0.232425 -2.18701
0.695879 -0.252496 0.0478622
1.07837 -0.238627 -0.700786
0.666393 -0.258383 1.53998
1.03868 -0.259494 0.792635
0.675883 -0.243065 2.87061
1.00311 -0.250855 2.27919
0.71866 -0.219564 4.0409
0.704449 -0.0254788 3.45513
1.04318 -0.231479 3.45321
0.740721 0.00097131 4.62366
1.08222 -0.204929 4.62213
0.720427 0.395243 -3.29655
1.09394 0.06552 -3.33115
0.72651 0.195057 4.0379
0.720164 0.602626 3.44413
1.05028 0.183229 3.44991
0.746822 0.626779 4.6178
1.08812 0.208666 4.62021
0.733857 1.29601 -3.22787
1.0925 0.737048 -3.26448
0.740476 1.03435 4.02403
0.723139 1.65326 3.4403
1.07716 1.02287 3.43416
0.741047 1.6741 4.61632
1.09744 1.04527 4.61194
0.754652 1.90673 -2.61127
1.11985 1.87318 -3.19652
0.756762 2.01925 -1.30911
1.13172 1.95429 -2.03168
0.738229 2.14843 0.125512
1.12682 2.09185 -0.591673
0.714223 2.23357 1.56024
1.09577 2.20223 0.839747
0.710098 2.27234 2.86278
1.07189 2.2574 2.2801
0.723709 2.29302 4.03259
1.07598 2.2806 3.44567
1.0902 2.30042 4.61932
1.46617 -0.262405 -2.772
1.46431 -0.111102 -3.34473
1.45766 -0.235996 -1.44361
1.47649 -0.0494249 -2.17397
1.42118 -0.245624 0.0439862
1.45546 -0.0390146 -0.693484
1.3754 -0.251966 1.53184
1.40372 -0.0504499 0.791925
1.37041 -0.239269 2.86179
1.35363 -0.0414856 2.27298
1.40674 -0.216843 4.03444
1.38901 -0.0227709 3.44798
1.42963 0.00276586 4.61867
1.47463 0.101878 -2.74669
1.46602 0.407325 -3.29908
1.47429 0.147556 -1.42385
1.48316 0.476213 -2.12952
1.438 0.156159 0.054454
1.49313 0.545111 -0.665149
1.38195 0.16003 1.53307
1.44656 0.570315 0.799169
1.37223 0.175012 2.85918
1.38373 0.585287 2.2642
1.41189 0.196838 4.03222
1.40727 0.603476 3.43993
1.43875 0.627162 4.61435
1.47454 0.78166 -2.68191
1.4785 1.31422 -3.23313
1.50199 0.873768 -1.37082
1.49296 1.38818 -2.06571
1.50168 0.959268 0.0795659
[...]
POINT_DATA 29498
VECTORS point_vectors float
-5.13276 -5.53538 9.0585
-0.530155 0.457678 1.7242
-5.32058 5.37371 8.02479
0.176504 -0.13591 1.25479
5.299 -5.60566 9.30268
0.497232 0.367474 1.62416
5.71118 5.62511 7.60464
-0.3265 -0.0373111 1.28307
0.000527924 9.54786e-06 0.0117987
0 0 0
0 0 0
0 0 0
-0.00128054 0.000194407 0.0379827
0 0 0
8.47634e-17 -6.25242e-17 2.79551e-16
0 0 0
-0.551747 -0.289346 19.8362
-1.27584 -0.812564 20.5428
-0.414429 -0.457422 21.466
-0.00537103 -0.0914973 21.6241
0.468734 0.429381 21.5794
0.761561 0.515891 21.1072
0.730504 0.526147 20.8444
-0.709296 -0.204979 19.7274
-1.84474 -0.667599 20.4605
-0.657347 -0.588999 21.5424
-0.0810033 -0.190705 21.7357
0.848258 0.357345 21.481
1.25887 0.414242 21.2384
1.04641 0.479084 21.2915
-0.788569 0.119529 19.619
-2.05605 0.310695 20.3924
-1.31788 -0.240302 21.4964
-0.232589 -0.213057 21.9106
0.843782 -0.342656 21.6508
1.26836 -0.470958 21.2746
1.1096 -0.353687 20.7031
-0.456632 0.370225 19.9738
-0.808653 0.657691 20.3916
-0.794313 0.509902 21.1915
-0.208127 0.0194432 21.6297
0.214721 -0.306899 21.4569
0.330304 -0.395727 21.1529
0.329088 -0.458988 20.9713
-0.531456 -0.587515 19.3706
-1.74969 -3.13164 20.7195
-0.240551 -0.308637 21.7474
-0.0996532 -0.0173633 21.3368
-0.0387282 0.824849 20.9248
0.0731922 1.29778 19.3088
0.488412 0.914041 18.8407
-0.683482 -0.416957 19.0315
0.436569 1.91376 10.247
1.40177 0.862731 11.3666
-0.840789 0.241638 18.6592
1.99535 -0.487084 8.9377
1.38383 -0.443987 14.1271
-0.363551 0.654197 19.6981
-0.755486 1.3914 20.2052
-0.981245 1.48135 21.2491
-0.263959 0.202617 21.9963
0.120582 -0.514015 21.655
0.248753 -0.658698 20.9895
0.150884 -0.542067 20.7207
0.517544 -0.585134 19.371
1.71621 -3.1762 20.7342
0.261126 -0.264837 21.7716
0.077129 -0.0370798 21.3343
-0.00237633 0.692065 20.8821
-0.21632 1.08551 20.2753
-0.464501 0.949085 20.2542
0.666941 -0.425251 19.0026
-0.430781 1.85625 10.4254
-1.23071 0.785656 12.3582
0.801957 0.24408 18.605
-2.01657 -0.200898 10.9639
-1.40778 -0.506169 15.4133
0.369033 0.651906 19.6947
0.777085 1.37124 20.2122
0.99291 1.47985 21.2433
0.249175 0.242254 22.0192
-0.136968 -0.500848 21.6599
-0.29265 -0.648692 21.0316
-0.165646 -0.51795 20.834
0.556713 -0.295835 19.8119
1.28666 -0.832062 20.5384
0.395826 -0.436402 21.4554
0.00988161 -0.117814 21.5915
-0.418937 0.355821 21.5373
-0.686204 0.413081 21.1216
-0.710709 0.281213 20.8578
0.720308 -0.210307 19.7053
1.85697 -0.686471 20.4563
0.614786 -0.561077 21.535
0.119278 -0.231746 21.6995
-0.73019 0.294767 21.4621
-1.08759 0.300456 21.6614
-1.03583 0.247408 21.3003
0.790203 0.125192 19.6057
2.09268 0.313845 20.3815
1.2773 -0.268123 21.4949
0.258133 -0.19382 21.8647
-0.773143 -0.26912 21.6322
-1.14185 -0.353508 21.4147
-1.01049 -0.245229 21.0747
0.456833 0.365668 19.9723
0.810723 0.644607 20.3977
0.797407 0.513651 21.1514
0.239672 0.0569652 21.6519
-0.209347 -0.292044 21.4919
-0.335076 -0.384365 21.1577
-0.340027 -0.438662 20.959
-2.25724 -0.195277 1.97448
0.000211063 -0.0642619 0.443998
0.00664595 0.00392455 0.277496
0 0 0
-0.0173995 -0.0132097 -0.00671879
-6.47492e-05 2.84051e-05 0.00140544
-0.00384929 0.654063 1.12407
-0.613892 -0.20067 1.78861
-0.0629566 0.133273 -0.370817
0.035755 0.0250843 0.13032
1.26483 -0.0490616 1.17898
0.0013195 0.00390803 0.269315
0 0 0
0 0 0
0.491994 -0.116195 1.41256
0 0 0
0 0 0
-0.00101924 -0.00189503 0.0898601
-4.3301e-07 1.32987e-07 2.73604e-05
0 0 0
0 0 0
0 0 0
0.00029046 0.0313482 0.0547065
-0.000584884 -0.00398873 0.0466842
0 0 0
0.000706546 -0.00315918 0.1675
0 0 0
0 0 0
-0.000139643 -0.000539511 0.00537604
0 0 0
0.0134952 0.0264201 0.176623
-3.36229e-07 1.97139e-07 6.29695e-06
-9.53422e-08 2.48211e-09 6.59009e-06
-1.36785e-06 6.91922e-08 6.93712e-05
-0.000277575 -0.0385518 0.0578067
0 0 0
0 0 0
-9.61306e-05 0.00146064 0.024371
1.63298e-05 0.000882086 -0.00182557
0.00621727 -0.0156746 0.168952
-9.55072e-05 0.00449252 0.0254762
-0.00888723 0.0118494 0.0834312
-3.54322 -1.84243 20.3798
-3.13705 -5.13799 20.8654
-1.95262 -1.52428 17.8887
0.812015 1.38335 14.5156
-0.358486 1.03372 14.3542
-0.533118 0.906774 5.89739
-4.04832 1.09262 20.216
-2.58326 1.25769 17.0691
-1.85935 2.57209 19.976
1.40387 0.0468995 17.8572
1.04282 0.316444 5.78654
0.520964 -0.944751 20.8712
3.06777 -5.15468 20.8628
1.94621 -1.55489 17.8301
3.55755 -1.89109 20.3309
0.297411 0.857048 14.23
0.465911 0.639944 5.94893
-0.717065 1.25043 14.9743
2.54489 1.25478 17.0074
1.87558 2.55639 19.9821
4.13073 1.15965 20.1593
-1.20867 0.725957 6.76127
-0.565322 -0.882522 20.7801
-1.31731 0.0943959 18.2843
-0.36306 -0.877878 19.414
0.168062 0.00756522 16.3995
-0.26909 0.257088 16.2775
-0.00864539 -6.90284e-05 15.15
-2.24467 -0.841332 21.5493
-2.9638 2.34455 21.0931
-0.173106 -0.304433 19.8591
-0.479246 0.0918077 22.235
-0.0635384 0.0721324 16.4861
0.278684 -0.792719 19.6245
-0.091736 -0.0347846 15.2949
0.304455 0.0830332 16.911
3.0288 2.31003 21.097
2.09953 -0.925109 21.5298
0.45572 0.17233 21.9205
0.179427 -0.199121 19.5921
-0.961919 -0.544237 19.9856
-0.63046 -0.259345 19.7964
-0.574755 -0.416968 19.6166
-0.841699 -0.675318 21.27
-1.52386 -0.784062 20.5292
-1.69313 -1.62982 20.5773
-0.160608 -0.255283 21.5571
-0.52881 -0.537038 21.5073
-0.219551 -0.494982 21.6438
0.202043 0.148704 21.7077
-0.0331994 -0.148499 21.6619
0.0242807 -0.0217307 21.6856
0.655717 0.552201 21.3335
0.675865 0.4339 21.6164
0.370885 0.775146 21.581
0.72636 0.706688 21.0764
0.983983 0.621614 21.2512
0.62439 1.1161 21.2961
0.888457 0.502615 21.0679
0.54651 0.977847 21.3713
-1.30508 -0.432668 19.8103
-0.779523 -0.0623866 19.6386
-0.777879 -0.346975 19.4142
-1.23392 -0.687396 21.3834
-2.15139 -0.230565 20.4301
-0.30683 -0.406943 21.6862
-1.02699 -0.53015 21.5491
0.302673 0.0780702 21.7518
-0.127329 -0.203308 21.8429
1.10799 0.450994 21.2624
0.988811 0.0252641 21.4668
1.06011 0.527724 20.6476
1.45598 0.0908307 21.1978
1.15211 1.56054 16.6029
1.39745 -0.141985 19.9092
1.23109 0.898255 16.8515
-1.47791 0.246259 19.7206
-0.642343 0.341909 19.7666
-0.891892 0.185983 19.1957
-1.67062 -0.0206589 21.1559
-1.36805 0.700094 20.3524
-0.800564 -0.288932 21.8336
-1.28134 0.358561 21.3323
0.335133 -0.218507 21.8646
-0.312847 -0.04649 21.8354
1.08538 -0.437822 21.4435
0.434397 -0.444926 21.5879
1.11817 -0.462031 20.7877
0.672412 -0.540827 21.0353
1.98472 -0.410166 19.042
0.53774 -0.478231 21.1197
1.45525 -0.570685 19.6843
-0.659627 0.540695 20.12
-0.449804 0.512861 19.8301
-0.850072 0.617772 20.803
-0.857919 0.965545 20.3292
-0.567017 0.289038 21.5261
-0.985995 0.919955 21.2662
0.0388896 -0.167558 21.5602
-0.263286 0.123895 21.8106
0.290831 -0.355644 21.3273
0.188402 -0.400237 21.5435
0.350663 -0.411047 20.9543
0.311916 -0.592591 21.1908
0.26079 -0.5177 20.9866
-1.13692 -1.53395 19.1815
-0.602108 -0.514858 19.2096
-0.0131727 -0.764999 19.0728
-0.679404 -1.04138 22.2419
-0.0219544 -4.81174 21.1569
-0.127197 -0.0944892 21.4868
0.000829047 -0.474566 20.789
-0.0879919 0.301848 21.2118
-0.0226551 -0.184349 19.6321
0.0660256 1.00471 20.5503
-0.113967 0.365777 18.7396
0.101737 1.52637 19.3133
0.14096 1.65753 15.3601
-0.179333 0.781123 16.7444
0.94509 0.888386 15.1036
-0.0335504 0.818823 14.7145
-0.799536 -0.144045 18.7529
-0.021543 -0.576988 18.5451
0.833054 1.85748 11.6428
1.74457 1.33618 4.15923
0.321523 -0.409244 0.0595849
1.93751 0.423858 8.01145
-0.201306 0.690849 6.97407
-0.633911 0.732844 19.1887
-0.0160394 0.361479 18.0935
2.19407 -1.09622 10.6358
0.613052 -1.32316 20.5036
-0.246015 -1.46553 0.579199
0.649804 -1.1714 19.6442
0.00799963 -1.78653 4.61608
-0.582411 1.08495 19.8241
0.00389274 0.793933 19.5455
-0.882279 1.44754 20.6308
0.0225183 1.8221 20.0937
-0.678706 0.922809 21.9124
0.00550374 2.26948 21.1801
-0.0168313 -0.252721 21.8559
-0.0217225 0.367409 22.2066
0.213862 -0.652318 21.5381
-0.0107561 -0.556872 21.5909
0.283444 -0.636991 20.9214
-0.0159259 -0.886109 21.2375
-0.00732304 -0.607056 20.9944
1.121 -1.56145 19.145
0.588028 -0.519231 19.1911
0.571299 -0.429511 19.6044
0.676782 -1.02978 22.2745
1.69383 -1.67838 20.5691
0.132824 -0.0811287 21.503
0.207506 -0.444982 21.6457
0.0404776 0.273361 21.2047
-0.0225399 -0.0516142 21.6592
-0.151588 0.772981 20.634
-0.350757 0.666044 21.5677
-0.411456 1.19766 20.2194
-0.213997 1.51762 15.7778
-0.635018 0.951233 21.2549
-0.847604 0.867371 16.3062
-0.59251 0.862861 21.0984
0.779511 -0.138978 18.6934
0.784237 -0.372293 19.3851
-1.09625 1.36151 11.971
-1.65383 1.1897 5.7493
-1.08349 1.23424 18.0341
-1.6992 0.131588 8.75093
-1.07152 0.779122 18.6236
0.624324 0.735417 19.1763
0.884516 0.185676 19.1754
-2.10917 -0.790437 12.9229
-0.685833 -1.20985 20.6147
-1.79105 -0.310097 20.048
-0.709361 -1.08214 19.7759
-1.4343 -0.399714 20.1123
0.592997 1.0743 19.8266
0.453591 0.509201 19.835
0.89575 1.42939 20.6382
0.866483 0.948768 20.3323
0.678236 0.955285 21.914
0.996057 0.919404 21.2548
0.00209013 -0.228123 21.8563
0.268523 0.149071 21.8298
-0.228433 -0.640843 21.5359
-0.191223 -0.39432 21.5687
-0.293594 -0.636105 20.9397
-0.330701 -0.570063 21.2117
-0.282633 -0.51976 21.0248
0.957528 -0.563229 19.9602
0.636996 -0.266134 19.7765
0.846614 -0.68134 21.282
1.54439 -0.796375 20.5236
0.157657 -0.255334 21.521
0.498011 -0.5115 21.4958
-0.194162 0.107819 21.6781
0.054453 -0.186792 21.6136
-0.575503 0.46466 21.3219
-0.593879 0.356068 21.5737
-0.685403 0.513293 20.9872
-0.880029 0.392822 21.4315
-0.873267 0.26431 21.0791
1.31432 -0.446053 19.7687
0.788719 -0.0751967 19.6182
1.22954 -0.694278 21.4095
2.1834 -0.242167 20.4286
0.287613 -0.399786 21.6374
0.964375 -0.522891 21.5434
-0.260247 0.0315923 21.7526
0.189812 -0.196755 21.7708
-0.929951 0.342523 21.2862
-0.864556 0.0404433 21.4473
-0.985149 0.31615 20.4998
-1.24663 0.0840409 22.0818
-1.31643 -0.0968599 21.3029
1.49658 0.24564 19.6863
0.643395 0.338585 19.7539
1.67338 -0.0198451 21.1964
1.38545 0.698615 20.3558
0.772736 -0.295015 21.7923
1.28472 0.335394 21.3237
-0.29573 -0.182658 21.8622
0.330311 -0.0318781 21.8292
-0.984087 -0.328821 21.4383
-0.43066 -0.409376 21.5942
-0.928634 -0.443598 20.927
-0.66971 -0.486671 21.1073
-0.526284 -0.432548 21.0678
0.662131 0.5334 20.1234
0.863004 0.614181 20.8121
0.577125 0.317763 21.5299
-0.0452479 -0.148401 21.6052
-0.293442 -0.339954 21.3438
-0.374033 -0.429666 20.9408
-1.12224 -0.531293 19.9174
-1.49272 -1.64385 18.6272
-1.14202 -0.952437 19.6462
-1.76207 -0.859868 19.167
-0.688495 -0.401742 19.5075
-2.44594 -1.8732 20.5228
-1.03537 -0.698398 21.3294
-0.345845 -0.363446 18.6493
-0.768928 -0.986235 21.6439
-1.34452 -1.43867 21.8151
-0.171394 -0.71634 21.491
-0.223821 -0.346859 21.6011
0.103403 0.0774801 15.668
-0.0390781 -0.217173 21.6372
-0.076285 -0.27363 17.6472
0.0053587 -0.0147907 20.3992
0.260358 0.117524 21.7485
-0.208795 0.314699 14.5532
0.151788 0.324676 21.7803
-0.0459387 0.789435 14.7995
0.549862 1.11736 19.9414
0.861585 0.543366 21.4674
-0.213246 1.19331 14.8688
0.506066 0.964967 21.3637
0.932192 1.39927 16.4589
0.976551 1.53704 20.157
0.844401 0.650652 20.7824
-0.369742 2.11182 16.6866
0.807334 1.06539 20.6992
1.36061 1.25969 18.7242
0.8572 1.21452 20.2765
-1.49417 -0.131231 19.694
-2.58752 -0.452914 16.871
-2.14538 0.551124 18.863
-0.920098 -0.0841915 19.2186
-4.71301 -0.409502 20.3121
-1.56762 -0.409748 21.3274
-2.49944 -0.0921669 21.4962
-0.968762 -1.11049 20.1246
-0.53492 -0.419913 21.8225
-1.10462 -0.833543 20.621
0.0524069 0.368959 16.8096
0.380218 -0.036393 21.7719
0.779476 0.258471 18.4859
1.12955 0.713593 12.2655
1.25593 0.0163227 21.3855
-0.352398 1.44385 0.142213
1.64542 -0.146672 18.3321
2.06854 0.723236 14.5088
1.50185 0.0598869 20.3599
2.5353 1.05143 6.52389
1.95328 -0.527544 19.474
1.66763 0.141005 13.9602
-1.04963 0.562727 19.9299
-1.27004 1.66256 19.0408
-0.676711 0.795193 19.9888
-0.678165 0.508982 19.4942
-1.78056 1.40126 20.1901
-1.3796 0.539906 20.8883
-1.97727 1.96738 20.5464
-0.945797 0.989963 20.7326
-2.02165 0.820695 21.394
-0.864783 0.153838 21.7429
-1.99056 1.04522 22.7956
-0.684247 0.568742 21.7176
-0.425008 -0.00773447 22.1729
0.140008 -0.25129 21.7816
0.285046 -0.621594 21.3761
0.0382347 -0.214888 21.7447
0.501615 -0.673466 21.7315
0.562703 -0.529533 21.4507
0.598164 -1.12516 20.9293
0.269801 -0.497483 21.3751
0.707516 -0.957343 21.3917
0.593879 -0.642238 21.1142
0.781377 -1.16321 19.696
0.324072 -0.5596 21.1342
0.593772 -0.824815 20.382
1.47743 -1.67509 18.6022
-0.0239804 -2.37778 18.5027
-0.0191681 -2.61691 16.0592
-0.00984471 -0.687708 18.8094
-0.00373127 -7.74201 22.2021
0.373121 -0.354344 18.7648
-0.00713279 -1.51338 22.5214
0.0139414 -0.0497362 9.33515
-0.0965714 0.084882 15.7901
-0.00143164 -0.261835 20.1041
-0.0410993 -0.102801 10.08
0.131825 0.290101 14.6943
-0.0367834 0.0259779 19.1933
-0.281969 0.271284 8.75435
0.139205 0.952768 15.2966
-0.139188 0.468589 18.1118
-0.162737 -0.499358 -1.44015
-0.258426 0.781003 9.27513
-0.00126609 1.68427 17.0122
-0.0566198 0.997683 15.3131
0.404099 -0.821169 2.67292
-0.140938 0.815951 9.84363
2.58903 -0.463552 16.7659
-0.0344811 2.30296 14.8062
-0.0197813 -0.188812 18.0581
0.6807 1.52368 0.434912
-0.0811877 -0.283781 1.04188
0.406568 -3.41938 -3.85099
-2.3338 0.822002 8.77903
-0.140643 -2.54242 2.15913
-0.090288 -0.0174375 3.42808
1.27116 1.65692 19.0381
0.00981404 1.38318 19.6355
-0.00374287 0.948628 18.8525
0.0160694 3.80253 19.7615
1.9919 1.93952 20.5785
0.0147434 1.95239 20.482
0.0131654 5.18857 20.1036
2.06469 1.06518 22.8613
-0.0154127 1.48592 22.1726
-0.0412738 0.424531 21.3501
-0.364305 -0.567689 21.0597
-0.0155938 -0.237878 21.9028
-0.0418661 -0.805912 15.8875
-0.652246 -1.02561 20.8832
-0.0158379 -0.746097 21.48
-0.0499953 -1.54003 17.7311
-0.846935 -1.1307 19.8082
-0.00677565 -0.958418 21.0355
-0.103564 -1.22046 19.6589
1.14128 -0.548842 19.8714
1.14355 -0.985927 19.6302
1.77105 -0.880126 19.1295
0.686191 -0.417558 19.4837
2.45693 -1.92952 20.5006
1.0302 -0.7098 21.3448
0.757285 -0.992451 21.6749
1.33314 -1.48084 21.8848
0.128317 -0.640793 21.5119
0.207932 -0.349105 21.5513
0.0326651 -0.200347 21.6048
0.0569417 -0.253839 18.0685
-0.00285655 -0.0927344 20.5128
-0.230936 0.0731562 21.7192
-0.16962 0.279184 21.7796
-0.0287316 0.727315 15.7347
-0.502597 0.972424 19.9941
-0.745018 0.410219 21.471
-0.508378 0.785347 21.4755
-0.81197 1.11219 17.1388
-0.999042 1.36358 20.5443
-0.789769 0.443778 20.6533
-0.748901 0.947245 20.8037
-1.37428 1.14725 20.4262
-0.804046 1.08703 21.049
1.51057 -0.149462 19.6686
2.16808 0.572118 18.8142
0.913084 -0.0970371 19.1958
4.78184 -0.420562 20.2083
1.57616 -0.415213 21.3739
2.50116 -0.0802488 21.6013
0.808874 -1.08287 19.9035
0.509336 -0.412343 21.7693
1.03619 -0.884932 20.4866
0.105331 0.360682 16.8207
-0.313201 -0.0339449 21.7606
-0.712656 0.248319 18.8156
-1.06689 0.792592 12.985
-1.05078 0.0573967 21.4522
-1.48771 -0.0936109 19.07
-1.78207 0.641009 16.4053
-1.29176 -0.163701 20.5214
-1.77334 -0.393965 20.3319
-1.51518 0.00879301 15.1971
1.05433 0.561434 19.9176
0.681848 0.786012 19.9864
0.676774 0.510635 19.4868
1.79287 1.40025 20.1911
1.3834 0.527407 20.8982
0.958399 0.976635 20.7376
2.01918 0.773467 21.3984
0.87015 0.142616 21.728
0.70788 0.592294 21.7203
0.457481 0.0245926 22.1788
-0.12727 -0.228278 21.782
-0.0433763 -0.19965 21.7473
-0.512238 -0.626662 21.7399
-0.566091 -0.489702 21.4125
-0.282292 -0.485737 21.3903
-0.732947 -0.886 21.4154
-0.702349 -0.633784 21.1415
-0.334877 -0.535242 21.1582
-0.611845 -0.746226 20.4926
-1.46018 -0.969923 19.4079
-0.888802 -1.20294 21.8491
0.0390308 -0.291512 20.9052
0.160671 0.469269 20.0991
0.710277 1.26746 19.9669
0.834204 1.25877 20.4942
-2.17953 -0.199599 18.8024
-1.99179 -0.918893 22.016
-0.247015 -0.473272 18.0657
0.468178 0.851184 15.4229
1.409 0.697981 13.7421
2.12294 0.78407 17.8836
-1.27449 1.02543 19.5397
-1.82925 1.05356 20.8082
-1.31765 0.376156 22.1341
0.191347 -0.380993 22.0055
0.62761 -0.833421 21.6481
0.742246 -0.900866 20.893
-0.0244004 -2.67326 17.4757
0.00281028 -0.455186 11.3025
-0.0113057 -0.0395095 9.63819
-0.0775777 0.0288739 10.0235
-0.4967 0.212619 9.29188
0.0298599 1.10934 9.50926
-0.0361074 -0.655013 14.1163
0.324974 -1.0534 -1.76746
0.32367 -3.65174 -3.05523
0.00250626 2.47191 18.4318
0.0158091 3.13569 20.0395
-0.0240546 2.90051 23.1955
-0.0429136 -0.463588 17.4718
-0.0538876 -1.07213 16.8576
-0.065655 -1.23139 16.9563
1.47351 -1.00015 19.3748
0.872554 -1.21828 21.8948
-0.0512348 -0.268259 20.9844
-0.178579 0.405713 20.2572
-0.636769 1.03858 20.2902
-0.920295 1.09918 21.099
2.21671 -0.201278 18.7473
2.05093 -0.901982 22.128
0.218826 -0.5054 18.1067
-0.44499 0.795914 15.889
-1.22127 0.691261 15.3378
-2.04954 0.92503 19.7232
1.27621 1.02358 19.5374
1.83317 1.03158 20.8359
1.3466 0.364909 22.1177
-0.18827 -0.344899 22.0359
-0.637131 -0.760521 21.6472
-0.747827 -0.799179 20.7387
0 0 0
-0.0154443 -0.049435 0.309474
-0.00321335 0.00551824 0.135175
-0.115348 0.0101585 -0.0213927
-0.0222759 -0.00648139 -0.000760427
-0.0202771 0.0141195 0.18298
0 0 0
-0.0214628 0.487331 1.16664
-0.323818 -0.0518116 1.36762
-0.0289983 0.0235638 -0.0135038
0.094567 0.0979149 -0.154299
0.0346623 0.00673769 0.183441
0.0147249 -0.0458171 0.288838
0 0 0
0.0203204 0.0218182 0.47835
0.0055597 -0.0122796 -0.00688078
0.17817 -0.0116553 -0.0398508
0.0244403 0.0167875 0.215252
0.035966 0.560177 1.34097
0 0 0
0.322356 0.0796923 1.30175
-0.205701 0.132976 -0.194798
0.0577676 0.0995307 -0.0264557
-0.0523572 0.0173554 0.240226
0.0117943 0.00132475 0.263224
0 0 0
-0.000968721 0.00100978 0.0627729
0 0 0
-0.00678161 0.00320578 0.0732495
0 0 0
-0.0174103 0.0271298 0.0992528
0 0 0
-0.419966 -0.231401 0.579427
0 0 0
0 0 0
-0.023354 0.0175953 0.0444877
0 0 0
0.00869698 0.0451357 0.151743
0 0 0
0.0407698 0.00780709 0.214661
-0.00215167 0.00600186 0.276911
0 0 0
0 0 0
0.00191134 0.00709576 0.15013
0.00610505 0.00281265 0.0800104
0 0 0
0 0 0
0 0 0
0.466584 -0.262786 0.65552
0.0261725 0.0172006 0.0419809
0 0 0
0 0 0
0 0 0
-0.0614476 0.0212497 0.278095
0 0 0
0 0 0
-0.00297907 -0.0110535 0.0770515
-0.299942 -0.00506127 0.12623
2.05368e-07 -2.08853e-06 2.17784e-05
0 0 0
0 0 0
0 0 0
0 0 0
0 0 0
-9.89922e-07 1.11102e-07 3.06351e-05
-0.00056209 -0.00032677 -0.000298254
0 0 0
-1.04444e-06 4.10664e-08 2.47308e-05
-0.0433164 0.184864 0.132981
-0.000919264 0.0100474 0.0588534
-0.00626781 -0.0255361 0.137674
0 0 0
0 0 0
0 0 0
0.00333961 0.0114571 0.0570925
-0.00229022 0.000729103 -0.00197342
0.109868 -0.0456167 0.0131022
0.0104059 -0.00964468 0.087131
0 0 0
0.00119404 -0.00225491 0.0302698
0 0 0
0 0 0
2.61922e-05 -7.10942e-05 0.00840391
-0.000153272 0.00269087 0.021853
0 0 0
0.0164025 -0.0498833 0.245547
0.00243035 0.000587212 -0.00174047
0 0 0
-0.00103322 0.00493092 0.0455973
0 0 0
-0.00152316 -0.0061147 0.0370928
5.2603e-05 0.00561493 0.0497766
-2.09741e-06 7.62802e-07 7.97456e-05
-6.05606e-08 5.3817e-09 4.18e-06
0 0 0
0 0 0
2.07402e-07 6.83657e-09 -1.36671e-05
-3.70953e-07 -4.37552e-08 2.9591e-05
0 0 0
0.0191159 0.045223 0.80965
0 0 0
0.00120419 0.617192 1.16705
-4.77227e-06 8.31028e-05 0.00956778
-8.2418e-05 -0.000812344 0.00256057
0 0 0
0.00483095 0.0251173 0.171906
-0.0019441 -0.0294394 0.168168
0.000118899 0.000788899 0.00922176
0 0 0
1.44764e-05 0.000441052 0.0034703
-0.0503773 0.0794238 0.862663
0 0 0
0 0 0
-0.277501 -0.128311 0.96032
-0.00165177 -0.0158397 0.11733
-0.00330672 -0.0155985 0.0745426
-0.00228328 0.00594746 0.115973
-1.88868e-19 -1.57218e-17 -8.49368e-17
-0.00119608 0.0166086 0.116524
0.00015965 0.00202774 0.00670701
0 0 0
-0.000587165 0.0235123 0.0858746
0.00339725 0.00445929 0.0468332
0.00358355 0.00547552 0.0422776
0 0 0
0 0 0
0 0 0
0 0 0
0 0 0
0 0 0
0 0 0
0 0 0
-8.78706e-06 -3.91398e-07 0.000391726
0.000181401 0.00014924 0.0609078
-3.32107e-06 2.315e-07 4.85735e-05
2.93717e-06 3.94705e-07 9.39121e-05
-0.384067 -0.13375 -0.0160699
0 0 0
0 0 0
0 0 0
-0.0157885 -0.00453912 -0.00361619
0.00601397 -0.00449852 -0.00425403
0 0 0
0 0 0
-0.00874318 0.00742216 0.0457684
0.00699204 0.00813811 0.0491772
0 0 0
0 0 0
-0.390452 0.4187 1.37358
0.594649 0.512793 1.81458
0.060655 0.0280627 0.489973
-0.107673 0.0638745 0.789645
0 0 0
0 0 0
0 0 0
0 0 0
0.00912282 -0.016697 0.132621
0.20932 -0.0603275 0.645512
-0.00931684 -0.00745169 0.182493
0 0 0