# vtk DataFile Version 2.0
tet_velo
ASCII
DATASET UNSTRUCTURED_GRID
POINTS 29498 float
-0.671421 0.195 -2.215
-0.855779 0.185 2.055
-0.855 0.759819 -1.975
-0.856657 0.915 2.055
0.671421 0.195 -2.215
0.855779 0.185 2.055
0.855 0.759819 -1.975
0.856657 0.915 2.055
-0.801201 0.123339 -0.791667
-0.859387 0.123272 0.631667
-0.874867 0.83086 -0.631667
-0.872599 0.879768 0.711667
0.801201 0.123339 -0.791667
0.859385 0.123274 0.631667
0.874867 0.83086 -0.631667
0.872599 0.879767 0.711667
-1.48927 -0.168164 -3.39618
-1.50487 -0.164755 -2.28956
-1.60743 -0.21916 -0.864153
-1.68728 -0.236469 0.577349
-1.70693 -0.195642 2.00411
-1.70691 -0.15968 3.11737
-1.70666 -0.129884 4.21835
-1.49507 0.159997 -3.30494
-1.51103 0.179072 -2.20705
-1.62675 0.135812 -0.797219
-1.70235 0.129594 0.619817
-1.71159 0.174803 2.03119
-1.71011 0.210196 3.14332
-1.70986 0.238506 4.24691
-1.5743 0.777685 -3.10001
-1.63783 0.794857 -1.99881
-1.69445 0.836003 -0.643516
-1.72193 0.872779 0.706115
-1.71733 0.910525 2.06295
-1.71522 0.943581 3.17839
-1.71569 0.970704 4.29488
-1.65119 1.76955 -2.85276
-1.6861 1.8008 -1.76355
-1.7147 1.86932 -0.434186
-1.72686 1.94099 0.877931
-1.72852 1.99405 2.20813
-1.72736 2.02587 3.29909
-1.72744 2.05234 4.40683
-0.693191 -0.159028 -3.40134
-0.695521 -0.153039 -2.29708
-0.780975 -0.224463 -0.863143
-0.842337 -0.242005 0.587462
-0.854957 -0.191423 2.02179
-0.854134 -0.155772 3.12937
-0.854765 -0.12725 4.22529
-0.688017 0.164682 -3.30653
-0.855295 0.215302 3.15322
-0.856605 0.241813 4.25214
-0.752134 0.765389 -3.09012
-0.858354 0.947869 3.1768
-0.861087 0.974272 4.29454
-0.821221 1.75955 -2.84298
-0.84975 1.79047 -1.75277
-0.868571 1.86589 -0.42769
-0.87415 1.94407 0.877152
-0.873979 1.99848 2.20256
-0.873155 2.02977 3.29353
-0.874424 2.05557 4.40279
0.809911 -0.159028 -3.40134
0.757829 -0.153039 -2.29708
0.820601 -0.224463 -0.863143
0.856205 -0.242004 0.587462
0.854697 -0.191423 2.02179
0.853533 -0.155771 3.12937
0.849876 -0.12725 4.22529
0.812222 0.164682 -3.30653
0.854601 0.215302 3.15322
0.850128 0.241813 4.25214
0.860011 0.765389 -3.09012
0.853591 0.947869 3.1768
0.847459 0.974273 4.29454
0.837193 1.75955 -2.84298
0.829535 1.79047 -1.75277
0.83246 1.86589 -0.42769
0.837901 1.94407 0.877152
0.838351 1.99848 2.20256
0.83609 2.02977 3.29353
0.831406 2.05557 4.40279
1.58254 -0.168164 -3.39618
1.54037 -0.164755 -2.28956
1.62352 -0.219159 -0.864153
1.69402 -0.236467 0.577349
1.70702 -0.195641 2.00411
1.7051 -0.159679 3.11737
1.70008 -0.129883 4.21835
1.5798 0.159997 -3.30494
1.50946 0.179072 -2.20705
1.61743 0.135812 -0.797219
1.69991 0.129596 0.619817
1.71075 0.174805 2.03119
1.70738 0.210197 3.14332
1.70117 0.238507 4.24691
1.64001 0.777685 -3.10001
1.62516 0.794857 -1.99881
1.67691 0.836003 -0.643516
1.71459 0.872779 0.706114
1.71324 0.910526 2.06295
1.70704 0.943582 3.17839
1.69911 0.970704 4.29488
1.66011 1.76955 -2.85276
1.66082 1.8008 -1.76355
1.67433 1.86932 -0.434187
1.68764 1.94099 0.877931
1.69076 1.99405 2.20813
1.68782 2.02587 3.29909
1.68193 2.05234 4.40683
-0.791477 0.477409 -2.12327
0 0.145363 -2.26464
-0.764894 0.130586 -1.50333
-0.86375 0.55 2.06253
0 0.152189 2.08781
-0.888436 0.123283 1.34333
0 0.850793 -2.06597
-0.880758 0.811164 -1.30333
0 0.976318 2.11632
-0.868745 0.901501 1.38333
0.791536 0.477409 -2.12333
0.764858 0.130622 -1.50333
0.86375 0.55 2.06253
0.888433 0.123286 1.34333
0.880767 0.811173 -1.30333
0.868745 0.901501 1.38333
-0.830289 0.123311 -0.0799999
-0.899927 0.4771 -0.711667
0 0.120485 -0.791667
-0.899929 0.50152 0.671667
-1.13006e-06 0.120495 0.631667
-0.876445 0.858026 0.04
-3.49029e-08 1.2377 -0.631667
-3.18077e-07 1.38589 0.711667
0.830289 0.123311 -0.0799999
0.899927 0.4771 -0.711667
0.899929 0.501521 0.671667
0.876445 0.858026 0.04
-0.898064 0.477255 -1.40333
-0.899921 0.48931 -0.02
-0.89751 0.52576 1.36333
0 0.12095 -1.50333
-5.65031e-07 0.12049 -0.0799999
-5.65031e-07 0.120495 1.34333
0 0.477409 -2.47398
0 0.55 2.43166
-1.74514e-08 0.94204 -1.30333
-1.7649e-07 1.38585 0.04
-1.59038e-07 1.24807 1.38333
0.898065 0.477255 -1.40333
0.899921 0.48931 -0.02
0.89751 0.52576 1.36333
-1.09123 0.187036 -2.21103
-0.683471 0.0209806 -2.25604
-0.679719 0.179841 -2.76077
-1.28368 0.179902 2.04309
-0.855368 -0.0032117 2.03839
-0.855537 0.200151 2.60411
-1.24641 0.777338 -1.98691
-0.803567 0.762604 -2.53256
-0.852375 1.27514 -1.86388
-1.28699 0.912763 2.05897
-0.857506 0.931434 2.6159
-0.865318 1.45674 2.12878
0.714625 0.0209806 -2.25604
0.741822 0.179841 -2.76077
1.09044 0.187036 -2.21103
0.855238 -0.00321142 2.03839
0.85519 0.200151 2.60411
1.28326 0.179902 2.04309
0.857506 0.762604 -2.53256
0.842268 1.27514 -1.86389
1.24008 0.777338 -1.98691
0.855124 0.931434 2.6159
0.847504 1.45674 2.12878
1.28495 0.912763 2.05897
-1.21397 0.129575 -0.794443
-0.791088 -0.0505621 -0.827405
-1.28087 0.126433 0.625742
-0.850862 -0.0593665 0.609565
-1.28466 0.833432 -0.637591
-0.871719 1.34837 -0.529678
-1.29727 0.876273 0.708891
-0.873375 1.41192 0.794409
0.810901 -0.050562 -0.827405
1.20931 0.129575 -0.794443
0.857795 -0.0593647 0.609565
1.27965 0.126435 0.625742
0.853663 1.34837 -0.529679
1.27589 0.833432 -0.637591
0.85525 1.41192 0.794409
1.29359 0.876273 0.708891
-1.49707 -0.166459 -2.84287
-1.49217 -0.0040834 -3.35056
-1.09123 -0.163596 -3.39876
-1.55615 -0.191957 -1.57685
-1.50795 0.00715853 -2.2483
-1.10019 -0.158897 -2.29332
-1.64736 -0.227815 -0.143402
-1.61709 -0.0416741 -0.830686
-1.1942 -0.221812 -0.863648
-1.69711 -0.216056 1.29073
-1.69481 -0.0534379 0.598583
-1.26481 -0.239237 0.582406
-1.70692 -0.177661 2.56074
-1.70926 -0.0104195 2.01765
-1.28094 -0.193533 2.01295
-1.70678 -0.144782 3.66786
-1.70851 0.0252576 3.13035
-1.28052 -0.157726 3.12337
-1.70826 0.0543109 4.23263
-1.28071 -0.128567 4.22182
-1.50305 0.169534 -2.756
-1.53468 0.468841 -3.20248
-1.09154 0.162339 -3.30574
-1.56889 0.157442 -1.50214
-1.57443 0.486964 -2.10293
-1.66455 0.132703 -0.0887007
-1.6606 0.485907 -0.720367
-1.70697 0.152198 1.3255
-1.71214 0.501186 0.662966
-1.71085 0.1925 2.58726
-1.71446 0.542664 2.04707
-1.70999 0.224351 3.69512
-1.71266 0.576889 3.16086
-1.2827 0.212749 3.14827
-1.71278 0.604605 4.27089
-1.28323 0.240159 4.24953
-1.60606 0.786271 -2.54941
-1.61274 1.27362 -2.97638
-1.16322 0.771537 -3.09506
-1.66614 0.81543 -1.32117
-1.66196 1.29783 -1.88118
-1.70819 0.854391 0.0312992
-1.70458 1.35266 -0.538851
-1.71963 0.891652 1.38453
-1.7244 1.40688 0.792023
-1.71628 0.927053 2.62067
-1.72293 1.45229 2.13554
-1.71545 0.957143 3.73663
-1.72129 1.48472 3.23874
-1.28679 0.945725 3.1776
-1.72157 1.51152 4.35086
-1.28839 0.972488 4.29471
-1.66864 1.78518 -2.30815
-1.2362 1.76455 -2.84787
-1.7004 1.83506 -1.09887
-1.26792 1.79564 -1.75816
-1.72078 1.90516 0.221873
-1.29164 1.86761 -0.430938
-1.72769 1.96752 1.54303
-1.30051 1.94253 0.877542
-1.72794 2.00996 2.75361
-1.30125 1.99627 2.20534
-1.7274 2.0391 3.85296
-1.30026 2.02782 3.29631
-1.30093 2.05396 4.40481
-0.694356 -0.156033 -2.84921
-0.690604 0.0028267 -3.35394
0.0583599 -0.159028 -3.40134
-0.738248 -0.188751 -1.58011
0.0311539 -0.153039 -2.29708
-0.811656 -0.233234 -0.137841
0.0198129 -0.224463 -0.863143
-0.848647 -0.216714 1.30462
0.00693413 -0.242005 0.587462
-0.854546 -0.173598 2.57558
-0.000130096 -0.191423 2.02179
-0.85445 -0.141511 3.67733
-0.854715 0.0297648 3.14129
-0.00030087 -0.155772 3.12937
-0.855685 0.0572811 4.23872
-0.00244466 -0.12725 4.22529
-0.720076 0.465035 -3.19832
0.0621027 0.164682 -3.30653
-0.85595 0.228557 3.70268
-0.856825 0.581585 3.16501
-0.000347056 0.215302 3.15322
-0.858846 0.608043 4.27334
-0.00323872 0.241813 4.25214
-0.786678 1.26247 -2.96655
0.0539385 0.765389 -3.09012
-0.859721 0.96107 3.73567
-0.865755 1.48882 3.23517
-0.00238179 0.947869 3.1768
-0.867756 1.51492 4.34867
-0.00681435 0.974273 4.29454
-0.835486 1.77501 -2.29787
0.00798593 1.75955 -2.84298
-0.85916 1.82818 -1.09023
-0.0101074 1.79047 -1.75277
-0.871361 1.90498 0.224731
-0.0180555 1.86589 -0.42769
-0.874065 1.97128 1.53986
-0.0181249 1.94407 0.877152
-0.873567 2.01413 2.74805
-0.0178141 1.99848 2.20256
-0.87379 2.04267 3.84816
-0.0185326 2.02977 3.29353
-0.0215091 2.05557 4.40279
0.78387 -0.156033 -2.84921
0.811067 0.00282675 -3.35394
1.19622 -0.163596 -3.39876
0.789215 -0.188751 -1.58011
1.1491 -0.158897 -2.29332
0.838403 -0.233233 -0.137841
1.22206 -0.221811 -0.863648
0.855451 -0.216713 1.30462
1.27511 -0.239236 0.582406
0.854115 -0.173597 2.57558
1.28086 -0.193532 2.01295
0.851704 -0.141511 3.67733
0.854067 0.0297651 3.14129
1.27932 -0.157725 3.12337
0.850002 0.0572816 4.23872
1.27498 -0.128566 4.22182
0.836117 0.465035 -3.19832
1.19601 0.162339 -3.30574
0.852365 0.228557 3.70268
0.854096 0.581585 3.16501
1.28099 0.212749 3.14827
0.848793 0.608043 4.27334
1.27565 0.24016 4.24953
0.848602 1.26247 -2.96655
1.25001 0.771537 -3.09506
0.850525 0.961071 3.73567
0.84484 1.48882 3.23517
1.28031 0.945726 3.1776
0.839432 1.51492 4.34866
1.27328 0.972489 4.29471
0.833364 1.77501 -2.29787
1.24865 1.76455 -2.84787
0.830998 1.82818 -1.09023
1.24518 1.79564 -1.75816
0.83518 1.90498 0.224731
1.2534 1.86761 -0.430939
0.838126 1.97128 1.53986
1.26277 1.94253 0.877542
0.83722 2.01413 2.74804
1.26456 1.99627 2.20534
0.833748 2.04267 3.84816
1.26196 2.02782 3.29631
1.25667 2.05396 4.40481
1.56145 -0.166459 -2.84287
1.58117 -0.00408333 -3.35056
1.58194 -0.191957 -1.57685
1.52491 0.00715857 -2.2483
1.65877 -0.227813 -0.143402
1.62047 -0.0416737 -0.830686
1.70052 -0.216054 1.29073
1.69697 -0.0534359 0.598583
1.70606 -0.17766 2.56074
1.70888 -0.0104182 2.01765
1.70259 -0.144781 3.66786
1.70624 0.0252586 3.13035
1.70062 0.0543118 4.23263
1.54463 0.169534 -2.756
1.6099 0.468841 -3.20247
1.56344 0.157442 -1.50214
1.56731 0.486964 -2.10293
1.65867 0.132704 -0.0887008
1.64717 0.485907 -0.720368
1.70533 0.1522 1.3255
1.70725 0.501187 0.662966
1.70906 0.192501 2.58726
1.71199 0.542665 2.04707
1.70428 0.224352 3.69512
1.70721 0.576889 3.16086
1.70014 0.604606 4.27089
1.63258 0.786271 -2.54941
1.65006 1.27362 -2.97638
1.65104 0.81543 -1.32117
1.64299 1.29783 -1.88118
[...]
POINT_DATA 29498
VECTORS point_vectors float
-2.81092 -5.65592 6.79011
0.328961 0.262087 1.95749
-1.98982 0.831834 5.20836
0.214947 -0.0908335 1.18748
2.81714 -5.66016 6.78964
-0.311769 0.209084 1.81982
1.98816 0.83088 5.20509
-0.238249 -0.0193926 1.11739
2.70456e-05 3.91192e-06 0.0146099
-0.055738 0.0309007 1.18818
0.0177543 0.0467849 0.464893
0.165991 0.247999 1.09479
-0.000117692 2.87392e-05 0.0146373
0.0494221 0.0271984 1.18369
-0.0176803 0.0465817 0.464293
-0.168307 0.251691 1.0904
-0.627875 -0.293124 19.7872
-1.40491 -0.811394 20.4256
-0.549649 -0.386753 21.431
-0.0629845 -0.0890379 21.6018
0.391324 0.154639 21.5859
0.660082 0.300017 21.3314
0.607382 0.296875 20.7425
-0.822308 -0.204649 19.669
-1.98146 -0.642334 20.4227
-0.690304 -0.39341 21.4977
-0.0875304 -0.10772 21.6137
0.498344 0.0970914 21.6082
0.823803 0.156386 21.2551
0.858753 0.136667 20.9598
-0.97199 0.148039 19.715
-1.84421 0.209075 20.6528
-0.935944 -0.198065 21.504
-0.171917 -0.180588 21.7064
0.509355 -0.213494 21.6127
0.802222 -0.280488 21.1626
0.801739 -0.311377 20.9443
-0.637044 0.471429 20.1029
-0.892642 0.578918 20.6799
-0.683597 0.305733 21.3394
-0.172646 -0.0316809 21.6093
0.223283 -0.27094 21.4643
0.340226 -0.384249 21.2347
0.359085 -0.403631 20.8516
-0.553856 -0.609077 19.1965
-1.7409 -3.79531 20.2715
-0.300507 -0.636706 21.8168
-0.138478 -0.0430301 21.3405
0.200877 0.883743 20.385
0.608765 1.26595 20.2555
0.913134 1.30802 19.926
-0.84878 -0.514734 18.7031
1.14399 1.32525 11.8569
1.76055 0.947774 14.6501
-1.39565 0.592955 18.1994
1.43611 -0.325517 12.1343
1.78187 -0.516648 16.4683
-0.646847 1.0317 19.7006
-1.07181 1.53436 20.5068
-1.27026 1.27527 21.6499
-0.252968 0.0668437 22.0273
0.191762 -0.54318 21.608
0.303367 -0.711024 21.3233
0.290221 -0.650649 20.8142
0.603867 -0.571623 19.2978
1.88575 -3.54048 20.1862
0.307911 -0.642578 21.8261
0.110131 -0.0490825 21.3304
-0.238514 0.758135 20.2255
-0.558085 0.9882 20.0705
-0.701914 1.24911 20.0996
0.890847 -0.43534 18.8557
-0.796103 0.968748 10.7964
-1.29562 1.01408 12.7864
1.36801 0.512927 18.4833
-1.36511 0.204172 11.1146
-1.44893 -0.485352 14.7483
0.64825 1.01989 19.7071
1.05967 1.56318 20.498
1.26635 1.36327 21.6533
0.233502 0.0835819 22.0393
-0.224199 -0.512442 21.5878
-0.300997 -0.665736 21.3172
-0.30184 -0.64286 20.7611
0.601395 -0.257745 19.8481
1.34332 -0.742111 20.4432
0.536547 -0.383571 21.4171
0.0615013 -0.104657 21.5839
-0.370559 0.119444 21.5433
-0.62304 0.222618 21.3356
-0.640331 0.157106 21.0638
0.772728 -0.183768 19.7396
1.9828 -0.649475 20.4101
0.688832 -0.401771 21.4911
0.0811877 -0.111169 21.5933
-0.43738 0.0740205 21.5732
-0.728245 0.124927 21.3136
-0.972191 0.0362854 20.9192
0.930583 0.137714 19.774
1.87144 0.219504 20.6456
0.943631 -0.202495 21.5073
0.167299 -0.173197 21.6919
-0.466321 -0.178059 21.5828
-0.743347 -0.233981 21.2525
-0.835626 -0.295063 21.0926
0.63498 0.463371 20.0848
0.904028 0.597153 20.6663
0.705536 0.324961 21.3429
0.169569 -0.0201719 21.5996
-0.215247 -0.24457 21.4663
-0.353642 -0.342141 21.2781
-0.350004 -0.361832 20.8804
-0.171681 0.0180806 0.217319
-9.49277e-05 -0.0808631 0.328602
-0.0117645 -0.00143542 0.114231
0.0742481 0.0108339 0.453908
-0.00153482 0.00215912 0.0140251
-0.0181718 0.0136423 1.08065
-6.74652e-05 0.0240581 0.107623
-0.0870028 -0.123972 0.43362
0 0 0
0.307187 0.37139 1.52383
0.173646 0.0181732 0.219236
0.0115879 -0.00147047 0.113773
-0.0645449 0.0158551 0.399809
0.00936912 0.00928923 1.06815
0.08688 -0.123972 0.434099
-0.327227 0.395011 1.51131
-0.000603845 -9.37229e-06 0.0146704
3.51316e-08 -5.20186e-07 -0.000189102
-8.72104e-09 2.95925e-09 -1.27103e-05
-1.3397e-07 -7.99879e-06 -6.0347e-05
1.05779e-10 4.80208e-12 -2.71391e-08
0.0600515 0.129289 0.645663
-5.41958e-06 0.00317884 0.00788204
-3.21026e-06 -5.92365e-05 0.000896295
0.000553404 -1.09903e-05 0.014651
-3.29407e-08 -3.95067e-07 -0.000183389
1.42061e-07 -8.46186e-06 -6.33979e-05
-0.0602334 0.128725 0.644059
2.07277e-07 -9.91557e-05 0.00075821
6.55031e-08 4.00469e-06 3.73073e-05
1.34139e-05 0.000180069 0.00172688
1.06078e-07 -3.63618e-07 -0.000102084
3.27901e-08 7.20517e-09 -2.03543e-05
3.71647e-07 -2.33218e-08 -2.67165e-05
-1.71065e-05 -0.027638 0.0151717
0 0 0
-2.18623e-05 0.000338538 0.00538363
-3.12248e-06 0.000198335 0.0026833
-3.45949e-06 -3.03883e-06 2.38874e-05
-2.38464e-07 -0.000102027 0.00077674
-7.36284e-08 4.46317e-06 4.18547e-05
-1.30772e-05 0.000186971 0.0016736
-4.23145 -2.12685 19.8568
-2.80388 -6.53634 19.9173
-2.44129 -1.89513 17.2246
0.900542 0.308144 21.2158
0.239474 1.17608 14.2244
0.905795 1.0048 8.56658
-3.34869 0.72033 20.8542
-3.95585 2.07325 17.0529
-2.19394 2.35133 20.5735
0.87197 -0.374167 21.4561
1.00854 -0.0644559 8.83503
0.621998 -0.739544 20.4574
2.92306 -6.11028 19.8274
2.41639 -1.70703 17.5265
4.23724 -2.14558 19.8374
-0.287248 1.02547 13.8929
-0.569016 0.611482 7.72725
-0.79751 0.249673 21.078
3.84724 1.81011 17.4223
2.17595 2.38619 20.5668
3.39033 0.73948 20.8588
-0.900652 0.446024 7.9729
-0.689863 -0.674632 20.2211
-0.804488 -0.287936 21.3414
-0.626461 -0.683687 21.3774
-0.303777 -0.359092 16.9407
-0.00786932 -0.146738 21.3673
-0.241449 0.093079 15.8408
-1.33514 -0.528221 21.937
-3.14046 1.02009 22.0412
-0.116414 -0.339813 21.6668
-0.386918 0.015232 20.9363
0.3031 -0.377578 17.1957
0.616994 -0.6864 21.3123
0.205747 0.0873773 15.9145
0.00336834 -0.160202 21.3338
3.25032 1.11554 22.0445
1.33511 -0.542585 21.9315
0.288376 0.104058 20.3478
0.113538 -0.331684 21.6317
-1.04164 -0.522728 19.9078
-0.737412 -0.250667 19.7407
-0.659583 -0.439127 19.5239
-1.01561 -0.63614 21.1927
-1.69748 -0.778838 20.4426
-1.93945 -1.86857 20.2567
-0.270758 -0.207847 21.5425
-0.640012 -0.419068 21.4665
-0.491889 -0.589918 21.6261
0.138668 0.0243817 21.6655
-0.0858468 -0.118556 21.6192
-0.0816684 -0.104477 21.6799
0.571897 0.231819 21.463
0.454418 0.149556 21.6163
0.50797 0.420176 21.7301
0.784407 0.227227 21.2649
0.76532 0.19505 21.3135
0.870133 0.632425 21.3154
0.748816 0.238306 20.88
0.945464 0.678637 20.4394
-1.41932 -0.407943 19.7857
-0.938738 -0.0323048 19.6402
-0.92763 -0.35515 19.2487
-1.32587 -0.56079 21.3485
-2.02641 -0.154545 20.6003
-0.344986 -0.233153 21.5675
-0.816992 -0.315671 21.5093
0.176087 0.004156 21.7191
-0.121251 -0.15168 21.6938
0.711482 0.126449 21.4871
0.576524 -0.0654408 21.6982
0.918336 0.136965 21.4292
0.927366 -0.0701253 21.2405
1.33838 0.458003 20.9286
0.956847 -0.106306 20.985
1.19753 0.516251 20.6628
-1.59737 0.246818 19.9667
-0.846558 0.395388 19.8943
-1.26381 0.340284 19.1357
-1.38429 -0.0352991 21.2671
-1.3262 0.541258 20.6428
-0.53614 -0.210634 21.6766
-0.929415 0.155226 21.4355
0.190355 -0.161596 21.7543
-0.196803 -0.0782441 21.7014
0.699057 -0.256072 21.4954
0.378311 -0.298797 21.544
0.95286 -0.370587 21.1102
0.553921 -0.435414 21.2468
1.25431 -0.520588 21.2352
0.558062 -0.399209 21.0294
1.37002 -0.52765 20.5339
-0.806592 0.578868 20.3539
-0.714397 0.709722 19.9118
-0.848558 0.46304 21.0312
-1.08669 0.956268 20.6139
-0.431147 0.145805 21.5211
-0.997285 0.591064 21.4925
0.0565431 -0.175343 21.5335
-0.23811 -0.00811004 21.791
0.293358 -0.331907 21.285
0.220113 -0.39783 21.5422
0.368035 -0.438763 20.9892
0.35353 -0.52815 21.1936
0.325474 -0.458674 20.991
-1.25993 -1.73368 18.8372
-0.703392 -0.580552 18.961
0.057763 -0.82719 18.8766
-0.608785 -1.55908 22.3661
0.0610654 -4.79298 21.1442
-0.196836 -0.262387 21.5113
-0.00158253 -0.631447 21.3481
-0.054779 0.192211 20.7441
-0.0162407 -0.176799 20.3961
0.405824 1.19138 20.1897
-0.112377 0.495937 18.0641
0.785535 1.39217 20.3518
0.80128 1.48279 16.3652
-0.33823 0.735128 16.9006
1.11463 1.15839 17.3273
-0.154396 1.25892 13.8658
-1.18022 -0.0818557 18.2478
0.0971089 -0.737301 18.053
1.5718 1.43946 13.6607
1.14871 0.416555 8.17395
-0.685798 -0.24036 -0.627449
2.06903 0.374411 14.0644
0.32414 0.693396 5.85295
-1.03744 1.17288 19.0374
0.130232 0.952241 16.9799
1.75965 -0.522095 14.1425
0.858864 -0.958483 20.0053
0.00445248 -0.486017 0.010789
0.681716 -1.05473 20.2238
-0.139538 -2.01658 2.38899
-0.895065 1.43324 20.0476
0.00628677 1.39908 19.4626
-1.25714 1.50073 20.9656
-0.0222839 2.28979 20.3102
-0.760745 0.631679 22.0598
-0.051134 2.72732 21.8088
0.0638434 -0.334548 21.8216
-0.0276656 0.262762 22.3489
0.267458 -0.635548 21.4097
-0.0269666 -0.608828 21.8376
0.295532 -0.673932 21.2536
-0.00263379 -0.849289 21.4041
0.0654683 -0.963331 21.1872
1.2961 -1.55292 18.9914
0.740839 -0.53432 19.0693
0.659403 -0.392512 19.6025
0.684593 -1.53132 22.2441
1.89338 -1.69037 20.2823
0.184316 -0.260212 21.5045
0.499239 -0.590629 21.614
0.0149803 0.171043 20.7007
0.0667704 -0.127211 21.6715
-0.382432 0.931259 19.9916
-0.470311 0.342337 21.6576
-0.747213 1.0778 19.8576
-0.683313 1.10423 15.685
-0.766862 0.528127 21.3407
-0.973243 1.18225 16.0331
-0.818924 0.7686 20.5256
1.19488 -0.083062 18.5595
0.890732 -0.322378 19.3697
-1.19362 1.2289 12.4553
-0.536286 0.680822 6.43246
-1.1364 0.36801 20.9735
-1.68098 0.349285 11.1402
-1.49714 0.58341 20.2689
1.04115 1.10924 19.1079
1.23645 0.297285 19.2951
-1.63939 -0.104464 13.2906
-0.868311 -0.787647 19.8406
-1.09026 -0.380927 21.2678
-0.795928 -1.04532 20.3731
-1.22512 -0.440276 20.0439
0.891122 1.43626 20.0462
0.711233 0.703113 19.9271
1.25118 1.55833 20.9517
1.09284 0.986768 20.613
0.751498 0.676538 22.0788
1.01019 0.637919 21.5044
-0.0929892 -0.321873 21.8216
0.225538 0.00842203 21.7999
-0.284916 -0.586683 21.4039
-0.238564 -0.372264 21.529
-0.258943 -0.678439 21.3199
-0.342712 -0.486876 21.1949
-0.268657 -0.454013 21.1043
0.992843 -0.473366 19.9662
0.696852 -0.223452 19.7983
0.971361 -0.60912 21.1885
1.62866 -0.739459 20.4386
0.261378 -0.212797 21.5234
0.630786 -0.422825 21.4536
-0.140341 0.00117619 21.6219
0.0820973 -0.12805 21.5915
-0.514469 0.188485 21.4545
-0.411117 0.113317 21.5696
-0.711402 0.285204 21.0415
-0.665499 0.179093 21.2748
-0.769616 0.142812 21.0678
1.37059 -0.379545 19.8218
0.891918 -0.0202415 19.7074
1.32399 -0.55949 21.3512
2.05355 -0.15501 20.6066
0.34142 -0.241016 21.5549
0.824701 -0.319973 21.5049
-0.168658 -0.00399129 21.6654
0.120667 -0.150227 21.6769
-0.613055 0.100967 21.4539
-0.512367 -0.0547901 21.6273
-0.83182 0.184679 21.0673
-0.805138 -0.0626062 21.3143
-0.962942 -0.137262 20.8649
1.53415 0.233748 19.9982
0.826923 0.379054 19.9188
1.39369 -0.0338668 21.2782
1.34833 0.561367 20.6429
0.5391 -0.207311 21.6621
0.965135 0.148863 21.4386
-0.186987 -0.144965 21.7078
0.198174 -0.0670872 21.6902
-0.61867 -0.199202 21.4311
-0.361653 -0.268157 21.5102
-0.856028 -0.277725 20.9574
-0.572206 -0.356906 21.2446
-0.537982 -0.38712 21.0061
0.808596 0.580519 20.346
0.872516 0.479006 21.0286
0.440729 0.162168 21.5279
-0.0680065 -0.159556 21.5438
-0.30254 -0.303943 21.3048
-0.417833 -0.391268 21.0032
-1.23762 -0.50387 19.8441
-1.73841 -1.91552 18.1593
-1.28053 -1.0049 19.4861
-2.04459 -0.867912 18.9322
-0.794137 -0.42728 19.3897
-2.89865 -2.21553 20.0772
-1.19037 -0.642025 21.2789
-0.648114 -0.946256 18.8534
-1.10557 -1.21115 21.6588
-1.57269 -1.30725 22.15
-0.546818 -0.642195 21.7068
-0.317215 -0.244651 21.5545
-0.278504 -0.0416956 15.8968
-0.238912 -0.297302 21.6307
-0.22418 -0.365411 21.2426
-0.0239817 -0.100941 21.6711
0.155459 0.0072651 21.6928
-0.140351 0.214972 15.0254
0.123798 0.100056 21.7536
0.25072 0.0817346 21.303
0.717201 0.422871 21.6041
0.618584 0.196804 21.4878
0.55368 1.38526 15.0301
0.739569 0.585285 21.4783
1.20457 0.422165 20.8503
1.11523 0.606426 21.1128
0.792743 0.288492 21.1675
1.09994 1.53592 16.7967
0.824177 0.713662 20.9856
1.53312 0.285988 20.3252
1.08712 0.61871 20.5799
-1.61015 -0.0726769 19.8349
-3.87223 -0.327681 16.1411
-2.60148 0.701981 19.1817
-1.15551 -0.0663061 19.0523
-4.62959 -0.252625 20.4641
-1.42153 -0.280251 21.3542
-1.96753 -0.17578 21.6624
-0.957048 -0.604611 21.6873
-0.422572 -0.255474 21.6472
-0.639858 -0.495514 21.8781
-0.0550222 -0.195661 21.2299
0.208844 -0.0785992 21.7833
0.360621 -0.239175 21.5281
0.966228 -0.0355508 20.9791
0.792088 -0.0682291 21.5003
0.300272 0.0767618 4.41779
1.12442 -0.447992 21.082
1.49116 -0.0437857 20.8768
1.0371 -0.0824147 21.5622
1.9804 0.433306 11.2428
1.38027 -0.473579 20.6502
1.49737 -0.0435882 20.344
-1.19337 0.556171 20.1691
-1.837 2.23577 19.3776
-0.9528 0.935705 20.2192
-1.05822 0.710273 19.5274
-1.89049 1.11439 20.642
-1.21008 0.332452 21.1161
-2.64877 1.66506 20.9108
-1.13139 0.825743 21.0576
-1.57746 0.267625 21.6922
-0.569844 0.0218458 21.6472
-1.63824 0.162771 21.6561
-0.6221 0.274157 21.7431
-0.318919 -0.125087 21.9983
0.130876 -0.192584 21.6739
0.441842 -0.417098 20.651
0.0496677 -0.239979 21.6905
0.471314 -0.505083 21.697
0.491109 -0.370069 21.3617
0.67434 -0.918562 20.6735
0.311062 -0.48502 21.4013
0.707776 -0.719397 21.2766
0.662901 -0.401345 21.0084
0.799471 -1.15505 20.179
0.310686 -0.482867 21.1352
0.717441 -0.671034 20.7681
1.76509 -1.72463 18.383
0.101415 -2.6567 18.1795
0.177898 -3.50959 14.9045
0.064897 -0.82253 18.4862
0.0204268 -6.64532 22.7134
0.689603 -0.960568 18.8743
0.0199859 -1.52078 22.475
-0.00823935 -0.211362 13.4942
0.261827 -0.0388716 16.1528
-0.0101882 -0.333454 20.6072
-0.0255852 -0.0511084 11.9658
0.082554 0.190997 15.0238
-0.0370524 0.0319232 19.1013
-0.207545 0.469944 9.62347
-0.4742 1.03367 14.4591
-0.239518 0.634564 17.3427
-1.08382 -0.561277 0.695148
-0.776785 0.447846 8.75506
-0.970323 1.25944 16.1677
-0.496073 1.0165 16.5602
0.0679244 -0.246451 0.684449
-0.093936 1.38053 10.421
3.73227 -0.230814 16.657
0.215372 6.86378 12.6388
0.129279 -0.139392 17.1804
0.217463 0.356551 3.39964
-0.50353 0.984294 -0.0925463
1.03936 -0.96772 -2.95243
-1.4773 0.726074 9.88105
0.254825 -1.176 0.447487
0.709116 -1.18029 -0.949068
1.84785 2.15556 19.3966
-0.00476155 2.06843 19.8694
0.0610716 1.83318 18.3779
-0.0169469 3.75767 20.2843
2.655 1.72032 20.8884
-0.0347827 2.66312 20.6652
-0.0540239 5.53366 20.2043
1.6314 0.189566 21.3609
-0.0434957 1.41967 22.5571
-0.0143891 -0.0306078 13.7166
-0.539355 -0.348424 20.1969
-0.0240988 -0.354615 21.9362
-0.0484219 -0.614554 11.0521
-0.705591 -0.782161 20.5337
-0.0330334 -0.721358 21.5741
-0.136986 -1.19355 14.6958
-0.841317 -1.10963 20.2377
0.0656653 -1.01637 21.1569
-0.0280437 -1.25218 17.5035
1.17037 -0.463527 19.909
1.24237 -0.900254 19.5866
1.9622 -0.820882 19.07
0.769345 -0.360311 19.486
2.81243 -2.07302 20.1051
1.16509 -0.615466 21.2731
1.12023 -1.17791 21.6152
1.56474 -1.3098 22.1008
0.550109 -0.647843 21.714
0.309084 -0.248674 21.5338
0.235358 -0.313542 21.6154
0.216242 -0.368986 21.1843
0.00886731 -0.115626 21.6601
-0.150486 -0.0064122 21.6452
-0.132359 0.0715345 21.7261
-0.241247 0.0581738 21.2328
-0.652888 0.345038 21.5047
-0.546821 0.156209 21.4223
-0.652846 0.456529 21.4305
-0.988857 0.327562 20.6982
-0.970137 0.506556 21.1488
-0.740219 0.294916 21.1727
-0.867339 0.544377 20.8966
-1.36547 0.318867 20.8269
-1.00963 0.755475 20.5071
1.5467 -0.0701268 19.8656
2.46016 0.632442 19.3102
1.12693 -0.0675297 19.2353
4.67711 -0.255686 20.4484
1.4315 -0.284373 21.3549
1.97766 -0.178001 21.6851
0.944237 -0.61251 21.5523
0.425122 -0.255539 21.6398
0.636778 -0.498345 21.8585
0.0562664 -0.196942 21.1873
-0.200949 -0.0730925 21.7256
-0.356174 -0.206318 21.4608
-0.843718 -0.0128151 20.8159
-0.682905 -0.058474 21.4702
-0.96408 -0.299247 20.9425
-1.22621 0.0277678 20.7691
-0.910362 0.0305278 21.0161
-1.33838 -0.449653 20.8228
-1.42979 0.0721423 19.9961
1.18278 0.544738 20.1783
0.951504 0.94334 20.2218
1.0391 0.679275 19.5825
1.90426 1.15116 20.6349
1.24335 0.33788 21.1139
1.13715 0.869753 21.0497
1.61795 0.29554 21.6933
0.582159 0.0353921 21.6473
0.628858 0.306192 21.7629
0.31408 -0.110207 21.999
-0.129108 -0.176698 21.6498
-0.0643147 -0.224408 21.6814
-0.474534 -0.448614 21.6487
-0.466165 -0.327264 21.4086
-0.324069 -0.440867 21.4089
-0.701783 -0.649801 21.3786
-0.570144 -0.400042 20.9487
-0.247306 -0.44148 21.2775
-0.64117 -0.681917 20.9599
-1.62916 -1.0288 19.2039
-1.30444 -1.28112 21.9464
-0.22456 -0.31783 21.6707
0.206065 0.11908 21.7003
0.988557 0.580454 21.3375
1.14927 0.6251 20.5686
-2.61812 -0.153978 18.8303
-1.94609 -0.601477 22.1652
-0.406696 -0.422608 21.5361
0.305352 -0.0274549 21.079
1.28518 -0.0410013 20.5359
1.67445 0.00816621 19.8336
-1.64447 1.12296 19.8717
-1.83089 0.650236 21.1837
-0.940204 0.0263184 21.984
0.175548 -0.303083 21.8933
0.61882 -0.620596 21.4903
0.697826 -0.662498 21.3563
0.135431 -3.20624 16.926
0.00010595 -0.573676 14.7743
-0.0142838 -0.107031 12.2733
-0.0579962 0.035436 10.8545
-0.557822 0.336008 8.71918
-0.599408 0.967111 9.70219
0.207549 -0.178079 11.0796
-0.260753 0.331701 -1.53235
1.31986 -1.88282 -3.39646
0.0362467 3.78022 18.9081
-0.0354226 3.99367 19.8282
-0.0206383 1.36382 15.2519
-0.0198145 -0.57736 12.0353
-0.0846078 -0.803695 12.8368
0.0722015 -1.39032 15.8071
1.57552 -0.928321 19.3198
1.30991 -1.24737 21.8954
0.216015 -0.329475 21.6651
-0.205845 0.0883792 21.6409
-0.847931 0.445972 21.2634
-1.09314 0.570665 20.7111
2.46641 -0.157072 18.9918
1.94438 -0.607332 22.1536
0.399999 -0.42658 21.4734
-0.285517 -0.0223492 20.9901
-1.02318 -0.00149324 20.3257
-1.51057 -0.0377201 19.7434
1.61502 1.0887 19.8898
1.85404 0.67684 21.1721
0.95807 0.0419999 21.9937
-0.191882 -0.277757 21.8788
-0.592163 -0.537246 21.475
-0.730362 -0.585913 21.2682
0 0 0
0.0209547 -0.113757 0.731621
-0.0911714 -0.0681215 0.728591
0.0687225 -0.000647243 0.41303
-0.00719736 0.00909029 0.0512884
0.0113046 0.0655526 1.14349
-0.154777 0.0189046 0.227018
-0.0141597 0.110563 0.407848
-0.328073 -0.156967 1.36332
0.0832248 0.0252773 0.510855
-0.00415615 0.000267535 -0.00209461
0.0545645 0.112539 1.03327
-0.0146244 -0.106485 0.71551
0 0 0
0.0882318 -0.0643546 0.70591
0.00198737 0.00774942 0.0453646
-0.0599902 -0.00441636 0.365711
-0.0176197 0.0553962 1.11797
0.013788 0.110582 0.410157
0.161131 0.0195739 0.236414
0.32768 -0.15666 1.36208
-0.00105954 0.00139788 -0.00439481
-0.0747032 0.0421281 0.462341
-0.0663567 0.143232 1.00634
0 0 0
-0.00319546 0.000159507 0.0713575
2.50434e-07 -5.28808e-06 -0.000176188
0 0 0
-0.0612711 0.0505775 1.49726
-0.0175351 0.00910933 0.4024
-2.01116e-09 -2.3916e-06 -2.22139e-05
0 0 0
-0.0816238 -0.132786 0.621188
7.7944e-05 0.000683206 0.0235278
0.050001 0.174201 0.782527
-0.306489 0.219675 0.724626
0.258066 0.310467 1.37467
0 0 0
0.0729609 0.108582 0.473848
0.326607 0.150609 1.55111
0 0 0
0 0 0
0.00301537 0.000153172 0.0713077
-2.51736e-07 -5.18064e-06 -0.000173194
0.0511443 0.0435917 1.48688
0 0 0
0.015835 0.00850617 0.401584
2.8515e-09 -2.24619e-06 -2.12084e-05
0.0817337 -0.132948 0.621134
0.311508 0.224391 0.740784
-7.67859e-05 0.000673567 0.023501
-0.0500849 0.174365 0.780512
-0.265596 0.320066 1.36634
-0.334353 0.156264 1.54841
0 0 0
-0.0733229 0.109139 0.472749
-0.0001996 -0.000404482 0.00378794
-0.734829 -0.0052424 0.471695
-0.00010663 -0.00460398 0.102368
-9.23925e-06 -0.00616189 0.00250653
2.22931e-07 2.76607e-06 0.000397805
-0.000318432 2.6608e-05 0.0059496
0.00276637 0.00403401 0.0696377
-0.0136112 0.00220507 -0.00454557
-4.89395e-06 5.87731e-07 0.000197411
1.09646e-05 7.77521e-06 3.81102e-06
5.18818e-06 9.23193e-05 0.000984494
-8.38335e-07 1.54498e-07 0.000136689
-0.00262747 1.84 1.06843
3.15498e-07 -1.45735e-06 -1.48232e-05
-2.18439e-05 -0.000751313 0.00383177
-0.0387319 0.00319187 0.0488608
-0.00117404 0.0024741 -0.00030449
-2.06573e-06 1.22588e-05 -2.7719e-05
0.000893689 0.00726479 0.0508204
0.000393663 -0.000732145 0.00298037
0.68408 -0.00772984 0.439005
0.000202376 -0.000410759 0.00384438
0.000313276 2.65297e-05 0.00606863
-2.06888e-07 2.00705e-06 0.000368241
0.0155304 0.0134878 -0.0128963
-0.00263986 0.0044487 0.0664636
-2.14151e-06 1.3402e-07 0.000129339
-4.93822e-06 9.0431e-05 0.000961038
0.0386173 0.00320197 0.0489344
2.0786e-05 -0.00071221 0.00363294
-0.000439066 -0.000610237 0.00252643
-0.000937888 0.007873 0.0498987
2.28527e-08 4.43433e-06 5.57483e-05
0 0 0
-1.1879e-05 -0.000172988 0.00270523
1.9917e-08 9.87301e-07 1.33331e-05
0 0 0
-1.8427e-08 -8.12134e-09 2.89124e-05
8.11509e-08 5.12104e-06 3.99842e-05
1.13096e-07 2.31133e-06 1.65309e-05
9.04468e-08 1.01576e-08 -3.28277e-05
-1.42653e-07 -3.00487e-09 1.94493e-05
4.51146e-05 0.000369299 0.00237872