# vtk DataFile Version 2.0
tri_press
ASCII
DATASET UNSTRUCTURED_GRID
POINTS 3682 float
-0.671421 0.195 -2.215
-0.855779 0.185 2.055
-0.855 0.759819 -1.975
-0.856657 0.915 2.055
0.671421 0.195 -2.215
0.855779 0.185 2.055
0.855 0.759819 -1.975
0.856657 0.915 2.055
-0.801201 0.123339 -0.791667
-0.859387 0.123272 0.631667
-0.874867 0.83086 -0.631667
-0.872599 0.879768 0.711667
0.801201 0.123339 -0.791667
0.859385 0.123274 0.631667
0.874867 0.83086 -0.631667
0.872599 0.879767 0.711667
-1.48927 -0.168164 -3.39618
-1.50487 -0.164755 -2.28956
-1.60743 -0.21916 -0.864153
-1.68728 -0.236469 0.577349
-1.70693 -0.195642 2.00411
-1.70691 -0.15968 3.11737
-1.70666 -0.129884 4.21835
-1.49507 0.159997 -3.30494
-1.51103 0.179072 -2.20705
-1.62675 0.135812 -0.797219
-1.70235 0.129594 0.619817
-1.71159 0.174803 2.03119
-1.71011 0.210196 3.14332
-1.70986 0.238506 4.24691
-1.5743 0.777685 -3.10001
-1.63783 0.794857 -1.99881
-1.69445 0.836003 -0.643516
-1.72193 0.872779 0.706115
-1.71733 0.910525 2.06295
-1.71522 0.943581 3.17839
-1.71569 0.970704 4.29488
-1.65119 1.76955 -2.85276
-1.6861 1.8008 -1.76355
-1.7147 1.86932 -0.434186
-1.72686 1.94099 0.877931
-1.72852 1.99405 2.20813
-1.72736 2.02587 3.29909
-1.72744 2.05234 4.40683
-0.693191 -0.159028 -3.40134
-0.695521 -0.153039 -2.29708
-0.780975 -0.224463 -0.863143
-0.842337 -0.242005 0.587462
-0.854957 -0.191423 2.02179
-0.854134 -0.155772 3.12937
-0.854765 -0.12725 4.22529
-0.688017 0.164682 -3.30653
-0.855295 0.215302 3.15322
-0.856605 0.241813 4.25214
-0.752134 0.765389 -3.09012
-0.858354 0.947869 3.1768
-0.861087 0.974272 4.29454
-0.821221 1.75955 -2.84298
-0.84975 1.79047 -1.75277
-0.868571 1.86589 -0.42769
-0.87415 1.94407 0.877152
-0.873979 1.99848 2.20256
-0.873155 2.02977 3.29353
-0.874424 2.05557 4.40279
0.809911 -0.159028 -3.40134
0.757829 -0.153039 -2.29708
0.820601 -0.224463 -0.863143
0.856205 -0.242004 0.587462
0.854697 -0.191423 2.02179
0.853533 -0.155771 3.12937
0.849876 -0.12725 4.22529
0.812222 0.164682 -3.30653
0.854601 0.215302 3.15322
0.850128 0.241813 4.25214
0.860011 0.765389 -3.09012
0.853591 0.947869 3.1768
0.847459 0.974273 4.29454
0.837193 1.75955 -2.84298
0.829535 1.79047 -1.75277
0.83246 1.86589 -0.42769
0.837901 1.94407 0.877152
0.838351 1.99848 2.20256
0.83609 2.02977 3.29353
0.831406 2.05557 4.40279
1.58254 -0.168164 -3.39618
1.54037 -0.164755 -2.28956
1.62352 -0.219159 -0.864153
1.69402 -0.236467 0.577349
1.70702 -0.195641 2.00411
1.7051 -0.159679 3.11737
1.70008 -0.129883 4.21835
1.5798 0.159997 -3.30494
1.50946 0.179072 -2.20705
1.61743 0.135812 -0.797219
1.69991 0.129596 0.619817
1.71075 0.174805 2.03119
1.70738 0.210197 3.14332
1.70117 0.238507 4.24691
1.64001 0.777685 -3.10001
1.62516 0.794857 -1.99881
1.67691 0.836003 -0.643516
1.71459 0.872779 0.706114
1.71324 0.910526 2.06295
1.70704 0.943582 3.17839
1.69911 0.970704 4.29488
1.66011 1.76955 -2.85276
1.66082 1.8008 -1.76355
1.67433 1.86932 -0.434187
1.68764 1.94099 0.877931
1.69076 1.99405 2.20813
1.68782 2.02587 3.29909
1.68193 2.05234 4.40683
-0.791477 0.477409 -2.12327
0 0.145363 -2.26464
-0.764894 0.130586 -1.50333
-0.86375 0.55 2.06253
0 0.152189 2.08781
-0.888436 0.123283 1.34333
0 0.850793 -2.06597
-0.880758 0.811164 -1.30333
0 0.976318 2.11632
-0.868745 0.901501 1.38333
0.791536 0.477409 -2.12333
0.764858 0.130622 -1.50333
0.86375 0.55 2.06253
0.888433 0.123286 1.34333
0.880767 0.811173 -1.30333
0.868745 0.901501 1.38333
-0.830289 0.123311 -0.0799999
-0.899927 0.4771 -0.711667
0 0.120485 -0.791667
-0.899929 0.50152 0.671667
-1.13006e-06 0.120495 0.631667
-0.876445 0.858026 0.04
-3.49029e-08 1.2377 -0.631667
-3.18077e-07 1.38589 0.711667
0.830289 0.123311 -0.0799999
0.899927 0.4771 -0.711667
0.899929 0.501521 0.671667
0.876445 0.858026 0.04
-0.898064 0.477255 -1.40333
0.898065 0.477255 -1.40333
0 0.12095 -1.50333
-1.74514e-08 0.94204 -1.30333
0 0.477409 -2.47398
-0.899921 0.48931 -0.02
0.899921 0.48931 -0.02
-5.65031e-07 0.12049 -0.0799999
-1.7649e-07 1.38585 0.04
-0.89751 0.52576 1.36333
0.89751 0.52576 1.36333
-5.65031e-07 0.120495 1.34333
-1.59038e-07 1.24807 1.38333
0 0.55 2.43166
-0.618648 0.336205 -2.05633
-0.33571 0.146727 -2.26327
-0.749513 0.131438 -1.85917
-0.865244 0.3675 2.06425
-0.427889 0.153741 2.08626
-0.898163 0.128086 1.69917
-0.826526 0.618614 -2.05242
-0.4275 0.84478 -2.05996
-0.881667 0.799279 -1.63917
-0.86239 0.7325 2.06095
-0.428329 0.968541 2.10854
-0.866792 0.912341 1.71917
0.33571 0.146665 -2.26334
0.618717 0.336205 -2.0564
0.748671 0.132279 -1.85917
0.427889 0.15376 2.08624
0.865261 0.3675 2.06426
0.898137 0.128113 1.69917
0.4275 0.844823 -2.06
0.826561 0.618614 -2.05246
0.881677 0.79929 -1.63917
0.428329 0.96856 2.10856
0.86239 0.7325 2.06095
0.866776 0.912326 1.71917
-0.749287 0.160723 -1.1475
-0.815738 0.123332 -0.435833
-0.89999 0.275506 -0.751667
-0.400649 0.121815 -0.791667
-0.873921 0.123268 0.9875
-0.844839 0.123291 0.275833
-0.899989 0.302231 0.651667
-0.429683 0.121906 0.631667
-0.876234 0.819434 -0.9675
-0.895855 0.658209 -0.671667
-0.873509 0.842297 -0.295833
-0.53399 1.22739 -0.631667
-0.870679 0.890641 1.0475
-0.893068 0.694046 0.691667
-0.87456 0.868935 0.375833
-0.561421 1.38307 0.711667
0.747891 0.162119 -1.1475
0.400649 0.121815 -0.791667
0.815738 0.123332 -0.435833
0.899991 0.275506 -0.751667
0.873919 0.123271 0.9875
0.429681 0.121906 0.631667
0.844839 0.123291 0.275833
0.899989 0.302231 0.651667
0.876234 0.819434 -0.9675
0.533981 1.22738 -0.631667
0.895855 0.658209 -0.671667
0.873508 0.842296 -0.295833
0.870679 0.890641 1.0475
0.561424 1.38308 0.711667
0.893068 0.694046 0.691667
0.874562 0.868936 0.375833
-0.897457 0.477332 -1.7633
-0.395739 0.477409 -2.43329
0 0.120851 -1.88399
0 0.311386 -2.44835
-0.900213 0.30392 -1.45333
-0.382447 0.120963 -1.50333
-0.893189 0.53788 1.71293
-0.431875 0.55 2.399
-2.82516e-07 0.12051 1.71557
0 0.351094 2.45946
-0.899912 0.324522 1.35333
-0.444218 0.120498 1.34333
-8.72571e-09 0.905361 -1.68465
0 0.664101 -2.42215
-0.895796 0.64421 -1.35333
-0.440379 0.941383 -1.30333
-7.95192e-08 1.11121 1.74983
0 0.763159 2.39156
-0.895211 0.71363 1.37333
-0.434373 1.23547 1.38333
0.897456 0.477332 -1.76333
0.395768 0.477409 -2.43326
0.900212 0.303938 -1.45333
0.382429 0.120963 -1.50333
0.893196 0.53788 1.71293
0.431875 0.55 2.39924
0.899912 0.324523 1.35333
0.444216 0.120498 1.34333
0.895796 0.644214 -1.35333
0.440383 0.941383 -1.30333
0.895211 0.713631 1.37333
0.434373 1.23547 1.38333
-0.89999 0.288868 -0.0499999
-0.415165 0.12186 -0.0799999
-0.899963 0.477177 -1.0575
-0.899924 0.483205 -0.365833
0 0.122166 -1.1475
-2.82516e-07 0.120488 -0.435833
-0.899918 0.495415 0.325833
-0.897942 0.51364 1.0175
-8.47547e-07 0.120492 0.275833
-8.47547e-07 0.120493 0.9875
-0.893679 0.676416 0.01
-0.570221 1.38593 0.04
-2.61771e-08 1.06991 -0.9675
-1.05696e-07 1.34652 -0.295833
-2.47283e-07 1.39304 0.375833
-2.38558e-07 1.34574 1.0475
0.89999 0.288868 -0.0499999
0.415164 0.12186 -0.0799999
0.899963 0.477177 -1.0575
0.899924 0.483205 -0.365833
0.899918 0.495415 0.325833
0.897942 0.513641 1.0175
0.893679 0.676416 0.01
0.57022 1.38593 0.04
-0.899314 0.320063 -1.81123
-0.900002 0.30207 -1.1025
-0.896944 0.649095 -1.0125
-0.895858 0.631412 -1.70123
0.899312 0.320072 -1.81125
0.895858 0.631414 -1.70125
0.896943 0.649097 -1.0125
0.900002 0.302079 -1.1025
-0.359079 0.120879 -1.87158
0.35907 0.12088 -1.87158
0.391515 0.130695 -1.1475
-0.391524 0.128478 -1.1475
-0.43394 0.904912 -1.66191
-0.438906 1.05909 -0.9675
0.438908 1.05893 -0.9675
0.433942 0.904875 -1.66191
-0.365725 0.323795 -2.42572
-0.411619 0.641358 -2.37773
0.411634 0.641358 -2.37778
0.365739 0.323795 -2.42573
-0.89999 0.282187 -0.400833
-0.89999 0.295549 0.300833
-0.892679 0.684883 0.350833
-0.894777 0.667318 -0.330833
0.89999 0.282187 -0.400833
0.894777 0.667318 -0.330833
0.892677 0.684883 0.350833
0.899989 0.29555 0.300833
-0.407907 0.121838 -0.435833
0.407907 0.121838 -0.435833
0.422423 0.121883 0.275833
-0.422424 0.121883 0.275833
-0.570782 1.34402 -0.295833
-0.570096 1.39305 0.375833
0.570095 1.39305 0.375833
0.570767 1.34399 -0.295833
-0.900182 0.318459 1.0025
-0.897636 0.346011 1.70605
-0.887439 0.723065 1.71605
-0.895743 0.702137 1.0325
0.900182 0.318461 1.0025
0.895743 0.702137 1.0325
0.887427 0.723065 1.71605
0.897637 0.346012 1.70605
-0.436956 0.120496 0.9875
0.436954 0.120496 0.9875
0.436053 0.120507 1.70737
-0.436054 0.120507 1.70737
-0.435336 1.34092 1.0475
-0.431351 1.09784 1.7345
0.431351 1.09784 1.7345
0.435336 1.34107 1.0475
-0.429882 0.359297 2.4283
0.429882 0.359297 2.42823
0.430102 0.74783 2.36353
-0.430102 0.74783 2.36343
-0.567841 0.265602 -2.05847
-0.503566 0.163233 -2.24677
-0.726245 0.147441 -2.03708
-0.864133 0.27625 2.06324
-0.641834 0.166314 2.07369
-0.879008 0.154506 1.87708
-0.845567 0.689217 -2.01851
-0.64125 0.816605 -2.03179
-0.872818 0.784034 -1.80708
-0.86196 0.82375 2.06041
-0.642493 0.948297 2.0883
-0.864028 0.915974 1.88708
0.503566 0.163252 -2.24675
0.56779 0.265602 -2.05842
0.725385 0.148301 -2.03708
0.641834 0.166324 2.07368
0.864165 0.27625 2.06328
0.878979 0.154535 1.87708
0.64125 0.816609 -2.03179
0.845595 0.689217 -2.01854
0.872824 0.78404 -1.80708
0.642493 0.948325 2.08832
0.86196 0.82375 2.06041
0.864011 0.915957 1.88708
-0.793909 0.123366 -0.969583
-0.808463 0.123343 -0.61375
-0.899991 0.174725 -0.771667
-0.600819 0.122789 -0.791667
-0.866654 0.12327 0.809584
-0.852114 0.12328 0.45375
-0.899989 0.202601 0.641667
-0.644496 0.122667 0.631667
-0.875541 0.825138 -0.799583
-0.885454 0.744581 -0.651667
-0.874188 0.836578 -0.46375
-0.717822 1.05591 -0.631667
-0.871646 0.885211 0.879583
-0.888666 0.789823 0.701667
-0.873574 0.874345 0.54375
-0.700451 1.0983 0.711667
0.793909 0.123366 -0.969583
0.600819 0.122789 -0.791667
0.808463 0.123343 -0.61375
0.899991 0.174725 -0.771667
0.86665 0.123275 0.809584
0.644495 0.122667 0.631667
0.852114 0.12328 0.45375
0.899989 0.202602 0.641667
0.875541 0.825138 -0.799583
0.717821 1.05591 -0.631667
0.885455 0.744582 -0.651667
0.874187 0.836578 -0.46375
0.871646 0.885211 0.879583
[...]
POINT_DATA 3682
SCALARS point_scalars float 1
LOOKUP_TABLE default
10.441
-51.4488
-92.0234
-52.2573
10.1531
-46.5264
-91.8625
-48.5645
-40.5154
-37.2749
-53.3333
-47.6295
-40.3096
-36.7546
-53.0466
-47.0722
45.7241
-124.614
-37.9327
-36.7939
-53.5006
-42.8404
-38.336
69.4713
-124.858
-41.4404
-38.6237
-49.6797
-41.962
-37.4981
50.7793
-112.477
-48.1958
-44.0977
-48.9588
-42.81
-37.694
-51.0225
-68.0746
-82.9926
-60.3887
-47.821
-52.9839
-39.4585
42.6899
-162.755
-40.832
-36.7651
-55.631
-39.9077
-37.0202
120.396
-37.5296
-36.7432
154.905
-37.4775
-36.6279
-34.1786
-46.6833
-79.8153
-65.4963
-43.8353
-37.9886
-37.177
43.1282
-129.253
-41.0353
-36.3151
-51.5689
-34.4929
-30.976
138.607
-32.3486
-29.8676
135.392
-33.699
-29.9135
-34.3742
-44.7866
-79.2678
-65.3233
-42.5442
-35.4728
-35.2244
45.3805
-124.176
-37.2013
-36.188
-49.9602
-37.588
-33.4749
69.275
-124.714
-41.2263
-37.9775
-45.4804
-36.7843
-32.4663
50.7213
-112.185
-48.0058
-43.4564
-44.9201
-38.024
-33.0674
-53.1205
-57.7369
-83.1723
-60.0553
-44.8922
-49.2004
-35.9449
-3.45603
-130.645
-57.7375
-49.3967
-43.5773
-40.9561
-46.7047
-49.907
-38.135
-47.0996
-3.14086
-57.6736
-44.0066
-39.4654
-49.6593
-46.1489
-37.3559
-42.7122
-40.3947
-41.0291
-37.7278
-49.7523
-29.4307
-70.4356
-37.1254
-42.4665
-40.3343
-49.344
-55.808
-55.631
-56.3866
2.08963
205.332
-41.326
-40.9649
-37.1351
-87.6982
-43.8215
-42.1417
-41.3957
-49.3138
-33.9131
61.2108
-124.633
-93.5268
-50.4143
-46.5332
-51.1905
-46.0251
-47.046
-64.7094
-50.55
-39.0806
-45.2618
-126.526
61.0001
-93.1547
-42.9056
-45.01
-48.5059
-47.0418
-45.9876
-64.6226
-37.7943
-45.3022
-43.5896
-38.9108
-38.5744
-41.5068
-40.2358
-37.9395
-36.8023
-39.5917
-37.4507
-46.3174
-45.4718
-51.4031
-40.5651
-48.373
-42.7541
-48.6019
-64.4331
-38.8018
-40.1794
-38.4159
-41.252
-37.103
-37.1778
-36.4643
-38.9163
-46.0739
-40.4588
-45.2095
-51.0642
-47.6493
-64.1797
-42.0837
-48.1536
-93.406
153.093
-80.5352
154.611
-58.3516
-56.5589
-48.416
-37.0301
-44.7663
-31.7495
-43.1953
-41.7966
-24.2948
126.335
-52.2244
-8.04723
-41.8818
-34.8963
-44.3655
-50.2633
-93.2007
152.811
-58.194
-56.5373
-45.4045
-32.4827
-41.5101
-40.9746
-52.0424
-7.96949
-42.8369
-50.044
-39.6639
-37.0963
-44.1403
-42.1915
-45.0619
-38.0753
-40.8349
-41.7833
-37.0596
-39.1831
-43.9651
-72.9058
19.6433
-86.9579
-76.7153
-60.7086
-39.3238
-36.9766
-43.9348
-41.8974
-40.348
-40.7425
-43.6114
-72.6386
-106.446
-43.3033
-44.2947
-80.6596
-106.211
-80.4867
-44.0766
-43.1077
-80.8482
-80.8086
-43.0836
-43.2445
-29.4221
11.737
11.8651
-29.3521
107.964
115.783
115.862
107.17
-40.4523
-39.2372
-43.0943
-45.1334
-40.1902
-44.8127
-42.608
-38.7735
-37.992
-37.9085
-36.8067
-36.9831
-82.2289
-65.5348
-64.9964
-81.7638
-40.6391
-49.279
-47.232
-43.49
-39.6083
-42.5107
-44.5086
-46.2439
-39.2181
-38.7621
-44.5971
-46.2291
-60.8476
-43.1733
-42.7707
-60.6612
-37.1491
-31.193
-33.029
-36.9137
66.7428
-141.809
-126.508
-51.6924
-48.0345
-52.2468
-82.3662
-49.802
-77.7679
-51.8292
-41.4956
-46.8344
-142.49
66.7284
-126.253
-43.5717
-46.3444
-48.5868
-49.723
-82.2253
-77.599
-39.3646
-46.9484
-44.5149
-39.9548
-39.7374
-40.4716
-40.1738
-39.9573
-36.8667
-38.7891
-37.3277
-51.851
-48.4275
-52.3575
-76.9875
-47.9262
-44.3572
-48.2926
-52.8383
-39.878
-40.0738
-39.6078
-39.8317
-39.2788
-36.9379
-36.4462
-38.1264
-51.585
-76.6384
-48.1549
-52.0488
-47.2999
-52.364
-43.7247
-47.7972
20.8567
-25.5629
-126.075
102.105
-130.869
-131.02
-96.7287
32.6269
-71.9787
-49.9969
-58.9242
-57.3479
-49.6043
-49.823
-48.4466
-38.2935
-44.922
-42.8473
-46.5618
-34.0806
-43.8403
-39.4318
-42.8511
-41.7971
-47.5225
-47.5163
-36.1707
-20.4905
-55.3539
-44.9751
-51.4576
-23.2276
-38.3366
-37.8775
-39.8441
-36.314
-46.1324
-47.906
-44.6902
-52.8794
19.7237
-26.1815
-125.874
102.202
-71.8701
-49.9555
-58.7916
-57.2995
-44.2039
-44.4472
-44.4729
-33.8939
-41.9879
-38.3305
-41.1882
-40.6751
-55.0907
-44.7583
-51.2728
-23.1044
-44.944
-47.0847
-43.3457
-52.4198
-37.7904
-37.2972
-38.9787
-37.1307
-41.9639
-43.6923
-43.0306
-42.4515
-40.3461
-40.3182
-42.3443
-39.0105
-40.2874
-41.8585
-40.8153
-41.4309
-37.745
-37.6039
-37.3076
-38.3611
-50.3087
-49.1315
-45.6383
-58.6286
-29.8491
-29.8668
0.758728
-68.3701
-69.331
-69.2118
-73.2013
-66.3824
-37.5987
-37.0159
-38.6525
-36.9559
-41.7242
-43.4396
-42.8055
-42.185
-39.5993
-41.1696
-40.2381
-40.5885
-50.2093
-48.712
-45.2733
-58.2642
-70.1241
-57.2949
-54.1305
-47.5635
-69.9443
-57.1252
-53.9494
-47.3767
-66.8566
-56.4881
-56.4693
-49.7813
-10.5519
0.0589057
0.0976395
14.0465
199.574
192.884
177.121
199.575
-40.3945
-41.7405
-41.0323
-42.4066
-40.042
-41.4166
-40.5939
-42.0432
-37.1367
-37.4664
-36.9965
-37.0765
-85.2524
-89.3579
-82.7266
-85.1578
-45.8235
-43.5253
-44.0733
-42.5608
-43.6046
-41.8295
-42.4432
-41.2532
-42.9225
-41.6011
-41.1715
-40.1793
-44.9285
-49.5397
-49.4441
-55.0034
-35.6545
-30.7784
-33.5372
-32.3036
-146.023
73.2815
-98.3253
54.4971
-111.236
-83.8411
-49.3476
-38.8373
-49.913
-38.9287
-50.2683
-47.3961
-112.941
70.2989
-40.298
2.09029
-74.0162
-39.0176
-47.795
-38.4294
-40.9306
-37.1599
-46.0951
-45.4689
-97.7411
54.8801
-145.822
73.3821
-110.924
-83.7482
-46.9942
-33.3871
-45.395
-33.9319
-47.2855
-45.1511
-40.2551
2.18094
-112.752
70.37
-73.8802
-38.9195
-40.2695
-34.8624
-44.1163
-34.0096
-43.6773
-44.8458
-40.2059
-41.2008
-40.0199
-38.0876
-42.0151
-41.0779
-41.9857
-38.8933
-39.9719
-39.0042
-38.4657
-36.8816
-39.2522
-40.0353
-37.1659
-38.3416
-45.4238
-27.7873
-44.7814
-45.5525
-47.5007
-65.1116
-7.48256
-79.4144
-44.9198
-57.0552
-42.8682
-42.9307
-44.4024
-54.778
-65.4725
-63.489
-40.0712
-41.193
-41.961
-38.8234
-39.7734
-37.9641
-41.8099
-40.8414
-38.9631
-38.3672
-36.9479
-37.9925
-38.014
-36.6247
-38.6974
-39.2099
-45.1963
-27.3686
-7.40083
-79.1454
-44.541
-45.2646
-47.163
-64.7895
-44.0261
-56.6235
-65.3662
-63.2796
-42.3017
-42.1254
-43.9234
-54.3569
-99.0974
-86.9318
146.557
139.043
-80.4462
-80.3961
152.544
152.966
-75.3368
-48.7728
-67.3198
-49.5763
-48.71
-48.09
-36.876
-36.8401
-44.4709
-45.3048
-34.9722
-29.4704
-41.6215
-45.6798
-40.3475
-43.7218
-25.2268
-25.1959
135.032
135.025
-45.7352
-63.1748
-17.8663
3.54567
-42.229
-42.1072
-33.6365
-35.9387
-45.7542
-43.6327
-55.4276
-46.3209
-98.8835
-86.7478
138.75
145.514
-75.1594
-48.6107
-67.2012
-49.5837
-45.1682
-45.6616
-30.2095
-32.0028
-40.3134
-43.4634
-39.7407
-42.5842
-62.9969
-45.5381
3.66958
-17.7981
-42.4301
-43.7355
-46.0497
-55.2622
-40.0556
-39.3822
-37.4191
-36.9167
-43.8871
-44.2484
-41.1908
-43.2805
-44.779
-44.8233
-38.0443
-38.0024
-40.0081
-41.7744
-41.1958
-42.4473
-36.9749
-37.0642
-39.2441
-39.0074
-43.4787
-44.5309
-78.6648
-70.1842
18.7902
18.8711
-85.2408
-85.1196
-74.7285
-74.6217
-60.7162
-60.6256
-39.7568
-38.9891
-37.3196
-36.7719
-44.0368
-43.6877
-40.9114
-42.976
-41.2844
-39.5302
-40.1537
-41.4296
-44.1819
-43.0593
-70.3498
-78.3997
-144.422
-75.3501
-72.9771
-133.323
-40.318
-42.5004
-48.2999
-49.3214
-47.4305
-45.6321
-46.5857
-43.7272
-97.9697
-120.993
-66.7919
-60.0064
-144.353
-133.13
-72.7978
-75.1933
-97.8146
-59.7944
-66.6131
-120.776
-47.1796
-43.4944
-46.3935
-45.429
-40.1908
-49.1949
-48.1211
-42.2808
-108.299
-96.3132
-66.9141
-69.2541
-108.05
-68.4676
-66.8761
-96.2383
-41.8881
-42.1833
-49.7052
-49.7418
-42.0109
-49.8189
-49.7189
-42.2157
-48.1925
-29.7878
-12.0184
-37.09
-65.2492
0.230311
12.3657
-20.1356
-64.7477
-20.0002
12.4163
0.578608
-48.1021
-37.0751
-11.9855
-29.6425
82.4938
97.5899
189.271
48.9727
14.3071
-21.9895
174.96
84.3186
14.4147
84.8296
175.022
-17.6326
83.0665
47.892
189.267
98.4878
-40.9742
-39.3827
-40.7756
-41.6114
-38.5811
-40.02
-40.1686
-38.6482
-44.2755
-44.7932
-42.033
-41.7547
-48.2521
-43.6197
-42.8427
-46.6559
-40.7668
-41.3571
-40.4634
-39.099
-47.9539
-46.2062
-42.5105
-43.3432
-43.727
-41.1782
-41.613
-44.373
-38.0397
-38.2676
-39.7618
-39.4505
-38.9898
-39.0274
-37.4544
-37.4754
-38.8816
-37.3293
-37.4043
-38.9917
-36.7078
-37.1809
-36.9107
-36.7141
-37.0203
-36.9276
-36.9838
-37.292
-70.7445
-61.4056
-87.2655
-66.9623
-53.6061
-71.8185
-80.619
-56.3971
-53.1598
-56.0036
-80.5187
-71.7044
-70.4333
-66.9194
-87.1748
-61.0667
-39.4639
-41.2151
-42.0994
-40.699
-49.8843
-48.8402
-45.7437
-45.6537
-47.1305
-45.3073
-45.7575
-48.161
-44.5098
-42.2214
-43.0402
-44.6341
-38.6606
-39.8593
-40.782
-39.9281
-43.767
-43.5563
-41.7675
-41.3855
-43.8161
-44.287
-43.6083
-43.5279
-46.0338
-43.5007
-43.5081
-44.8478
-37.897
-38.4016
-40.3584
-40.2266
-37.4041
-39.3872
-40.0476
-38.2223
-49.6749
-46.2506
-42.6768
-42.5955
-53.3014
-44.1356
-43.2735
-47.9234
-53.4694
-56.4938
-55.2044
-66.0596
-44.0406
-40.071
-45.3937
-49.291
-42.9479
-48.7682
-45.2781
-39.8661
-52.9929
-65.9505
-55.1089
-56.1277
-41.0156
-36.7008
-34.5614
-38.3542
-35.7098
-33.654
-28.6562
-32.553
-34.5019
-35.7537
-32.0148
-33.7792
-38.8053
-38.3768
-35.3928
-36.7997
50.9194
-31.267
-129.48
-52.1387
-49.2152
-51.3299
-89.7599
-55.0099
-91.8362
-52.261
-44.9977
-47.1752
-31.7113
50.6126
-130.283
-44.5134
-46.9293
-47.1737
-54.9131
-89.6034
-91.6632
-42.203
-47.7302
-44.4388
-41.2381
-40.2826
-37.7344
-40.2511
-37.611
-36.5196
-37.346
-37.2452
-53.2713
-50.5033
-52.5622
-64.7288
-47.1357
-45.5229
-47.9183
-50.4354
-41.1534
-40.1325
-40.1755
-36.9982
-37.0305
-36.8048
-36.0595
-36.7419
-52.9947
-64.3509
-50.2242
-52.2663
-46.5457
-49.9214
-44.9189
-47.3961
9.39591
-13.399
-97.525
52.4187
-130.662
-130.74
-113.653
-121.526
-63.5548
-53.5084
-58.9206
-57.6693
-49.4525
-49.7175
-48.3525
-41.0276
-44.1933
-43.1089
-45.4994
-36.7013
-41.8631
-39.6765
-42.2897
-41.6275
-47.0786
-47.0462
-41.4473
-58.6877
-52.2271
-47.3069
-51.79
-37.9042
-38.2076
-38.022
-38.9559
-37.1218
-46.3825
-48.202
-45.3842
-50.081
9.51567
-12.8905
-96.6156
52.3385
-63.4644
-53.4503
-58.8126
-57.6076
-44.0563
-44.2842
-43.8428
-36.0419
-40.1358
-38.4179
-40.6612
-40.3834
-52.0599
-47.0581
-51.5917
-37.6995
-45.3146
-47.3151
-44.1821
-49.3657
-37.4026
-37.1817
-38.3221
-37.2354
-42.3119
-43.1448
-42.7788
-42.6103
-40.3608
-40.3455
-41.2764
-39.6377
-40.6656
-41.4136
-40.8809
-41.3447
-37.7672
-37.6964
-37.4984
-38.0289
-49.6664
-49.4917
-46.485
-54.9299
-29.4004
-29.3716
-14.8731
-48.746
-70.2534
-70.1964
-72.2866
-68.0986
-37.1927
-36.928
-38.0337
-37.036
-42.0693
-42.8957
-42.5392
-42.3551
-39.9729
-40.7202
-40.2492
-40.5726
-49.2586
-49.0803
-46.0907
-54.5468
-62.1878
-56.6259
-54.9422
-51.0438
-62.0108
-56.4519
-54.7628
-50.8635
-61.0433
-56.3749
-56.3666
-52.7533
-4.27287
1.60407
1.62464
8.87755
203.9
202.294
195.311
203.902
-40.9657
-41.5511
-41.1825
-41.7496
-40.6074
-41.2098
-40.7969
-41.3881
-37.1521
-37.2703
-37.0449
-37.1209
-87.1387
-89.2475
-85.3003
-87.0922
-44.7379
-43.6725
-43.9869
-43.1052
-42.8134
-41.9809
-42.3261
-41.6299
-42.1253
-41.5063
-41.2885
-40.7689
-46.9169
-49.384
-49.339
-51.8514
-34.7419
-32.3083
-33.6992
-33.0386
65.2945
31.184
-129.955
69.6712
-131.307
-130.288
-114.376
-28.7718
-106.75
-83.2533
-114.758
-86.6631
-51.0487
-49.9186
-49.0892
-41.9197
-47.3047
-45.7303
-48.8397
-41.008
-53.9341
-46.5589
-51.0645
-48.3059
-62.4903
-36.2925
-120.042
24.2971
-49.0451
-47.079
-46.1135
-43.4614
-72.3929
-60.536
-70.9686
-48.0937
-51.1923
-50.0833
-48.2344
-41.7357
-39.9568
-38.5718
-39.9602
-37.6466
-45.7301
-45.4156
-45.3166
-45.8068
-131.877
-130.716
-114.046
-27.5681
65.2378
30.1804
-129.613
69.7218
-106.451
-82.8811
-114.361
-86.4436
-43.192
-42.8105
-45.4152
-35.866
-45.6615
-44.4977
-44.5638
-36.8065
-50.6275
-44.4027
-48.1132
-45.8646
-48.9918
-47.0728
-46.0819
-43.3826
-62.3852
-36.3754
-119.887
24.3443
-72.2318
-60.3709
-70.8782
-47.9663
-38.2859
-37.7275
-39.0472
-36.0202
-46.0988
-44.7707
-43.9829
-36.8362
-43.7507
-44.045
-43.1189
-44.9227
-35.3468
-47.5873
-36.7799
-40.438
-38.9117
-38.0563
-39.3517
-38.2445
-41.4968
-41.7091
-41.6871
-41.2925
-40.2547
-40.2301
-41.1975
-39.4529
-37.1524
-37.4555
-39.1949
-38.7846
-36.1551
-36.9074
-37.611
-36.8804
-39.205
-39.9283
-39.3807
-39.8055
-37.3124
-37.6544
-37.3338
-37.8417
-48.7994
-45.1604
-46.3071
-47.8785
-46.7399
-44.4323
-45.2404
-45.6375
-51.7372
-50.3173
-49.0616
-58.8355
-68.8014
-31.0617
-23.4245
-53.7486
-48.0392
-47.4463
-45.8591
-50.9691
-43.4188
-42.3528
-42.7879
-42.7524
-48.482
-48.7082
-45.7297
-52.1664
-56.3868
-67.839
-65.9461
-66.7317
-35.121
-47.5771
-36.6468
-40.3588
-40.1766
-40.1885
-41.1512
-39.3889
-38.7679
-37.8817
-39.1437
-38.1027
-41.217
-41.4712
-41.4402
-41.0574
-36.3969
-36.5137
-38.2182
-38.0678
-36.9792
-37.4462
-37.0899
-37.5348
-35.7866
-36.5982
-37.1944
-36.5882
-38.5411
-39.2468
-38.7706
-39.0603
-48.5457
-44.9281
-46.0724
-47.6109
-68.249
-31.1564
-23.2665
-53.1909
-46.4726
-44.175
-44.9892
-45.3633
-51.4151
-49.8109
-48.7198
-58.5148
-47.3714
-46.6722
-45.0454
-50.3458
-55.9962
-67.6572
-65.6771
-66.5004
-42.7643
-41.6718
-42.172
-42.0217
-48.0116
-48.2752
-45.2619
-51.732
-113.848
-80.168
-96.3442
-90.2035
130.187
188.948
153.32
150.931
-87.2318
-73.664
-80.5792
-80.5568
116.291
177.566
153.73
153.606
-58.6604
-57.8028
-65.7626
-53.0076
-56.8434
-56.4182
-61.3668
-52.7069
-48.8156
-47.048
-48.5226
-48.3185
-37.4908
-36.42
-36.8811
-36.8828
-46.0059
-43.7891
-44.5721
-45.0009
-32.435
-30.9488
-33.2691
-30.3826
-42.9921
-43.3566
-42.3116
-44.3275
-41.8336
-41.7013
-41.0307
-42.7048
-30.4274
-16.922
-24.2739
-24.257
59.4411
162.329
132.732
132.939
-51.5594
-53.1658
-48.2362
-57.0515
-14.5711
-2.94639
-12.9311
-1.40186
-40.7474
-43.3256
-42.0008
-41.9586
-35.388
-34.1846
-34.2784
-35.3595
-44.4639
-44.194
-44.8844
-43.9832
-51.6547
-49.8435
-52.6048
-48.1344
-113.648
-79.9819
-96.1306
-90.0061
130.285
188.984
150.963
152.959
-58.5083
-57.6386
-65.5974
-52.8511
-56.8206
-56.3937
-61.335
-52.6932
-45.3483
-44.4682
-45.3439
-45.4871
-33.1864
-32.0697
-30.9954
-32.0502
-41.3204
-41.6632
-40.8302
-42.4002
-40.849
-41.0683
-40.3257
-41.7407
-51.3775
-52.984
-56.8718
-48.0478
-14.4743
-2.8887
-1.31456
-12.8586
-43.0191
-42.6047
-42.631
-43.1353
-51.3575
-49.6898
-47.8902
-52.3946
-39.3273
-40.0393
-39.8111
-39.5672
-37.0885
-37.1108
-37.2073
-36.9996
-43.4741
-45.3062
-44.0755
-44.227
-42.3261
-41.9302
-41.6721
-42.7255
-43.4816
-47.3502
-44.9889
-45.0071
-38.4928
-37.739
-38.0275
-38.0049
-40.8138
-40.9054
-40.4224
-41.274
-41.5035
-42.1345
-41.4916
-42.1002
-37.1498
-37.0098
-37.0355
-37.0801
-38.7361
-39.6555
-39.1958
-39.0838
-44.7599
-43.1213
-43.67
-44.2762
-64.0847
-81.3667
-74.755
-68.5254
14.7575
18.6238
19.4517
19.4957
-79.7048
-89.5045
-86.6425
-86.5964
-74.5921
-79.6136
-76.2551
-76.2023
-64.014
-58.1163
-60.7313
-60.6859
-38.9957
-39.6924
-39.5054
-39.2022
-36.941
-37.0204
-37.098
-36.8682
-43.26
-45.1103
-44.0216
-43.8732
-42.0594
-41.6222
-41.3651
-42.4272
-40.2843
-40.4564
-40.7848
-39.9393
-40.5736
-40.9705
-40.4487
-41.0682
-44.4238
-42.7592
-43.9468
-43.2826
-63.7414
-81.2195
-67.5135
-74.4858
-123.903
-108.636
-102.368
-87.3842
-42.433
-42.8865
-45.343
-43.7224
-44.6367
-44.3567
-44.7387
-44.2212
-92.7449
-77.1476
-83.7289
-70.9548
-123.648
-108.379
-102.15
-87.188
-92.5788
-76.9954
-83.5518
-70.7825
-44.4144
-44.1272
-44.5311
-44.0067
-42.2355
-42.6932
-45.1576
-43.5258
-87.0001
-82.1998
-80.3885
-74.5097
-86.9843
-82.2462
-80.308
-74.3503
-42.014
-41.7819
-47.2862
-44.1691
-42.0792
-42.0232
-47.1682
-44.2863
-35.6311
-33.7279
-26.8549
-23.5945
-2.40896
6.97813
9.05768
16.7378
-2.19912
7.07918
9.15454
16.8225
-35.578
-33.6541
-26.8006
-23.5323
71.2879
92.1323
132.916
149.579
100.935
75.0487
132.796
131.542
75.108
101.146
131.637
132.684
92.5353
68.7286
149.546
132.059
-40.1442
-40.7892
-40.2724
-40.8284
-38.844
-39.2275
-39.2541
-39.6229
-43.01
-43.6394
-42.4105
-43.2856
-45.3452
-46.2207
-44.1011
-44.8444
-39.8896
-40.5398
-39.9935
-40.5565
-45.0424
-45.8913
-43.7889
-44.5042
-42.4856
-43.1561
-41.9214
-42.834
-38.3884
-38.7216
-38.828
-39.1514
-38.0166
-38.3815
-37.6977
-38.0131
-38.3051
-37.9129
-37.9503
-37.6066
-36.8368
-36.7163
-36.8858
-36.7776
-36.933
-37.0328
-36.9371
-37.0197
-76.74
-74.7924
-82.3917
-82.7048
-58.7693
-65.2388
-68.0088
-71.8715
-64.9729
-58.3911
-71.7074
-67.8674
-74.1904
-76.4112
-82.4924
-82.1593
-40.2974
-40.2888
-41.0738
-40.8957
-49.8809
-49.7322
-48.9432
-47.1918
-47.6756
-46.5831
-47.7601
-46.6709
-44.2393
-43.2594
-43.5297
-42.8791
-39.2791
-39.3685
-39.9151
-39.8581
-43.2981
-42.3719
-42.4479
-41.8786
-44.5192
-44.0017
-44.9226
-44.3214
-46.3953
-46.72
-45.8953
-44.6145
-39.1479
-38.7429
-39.7527
-39.2554
-38.5959
-38.3455
-39.2277
-38.914
-46.0278
-44.8292
-44.4725
-43.5174
-47.9271
-46.8182
-45.7112
-44.8732
-61.5005
-63.2024
-58.5241
-60.6109
-41.9907
-44.573
-42.6213
-44.6519
-41.4669
-44.0557
-42.3651
-44.3271
-61.2531
-62.9922
-58.335
-60.4604
-37.8016
-37.7026
-36.9496
-36.2629
-32.1089
-32.8183
-29.752
-30.4143
-33.637
-33.3042
-33.2498
-32.4245
-37.4059
-36.9565
-36.8574
-36.4781
-83.3355
71.2811
-131.147
33.9631
-121.874
-116.809
-49.3492
-43.5839
-50.9126
-42.9787
-51.0258
-53.9501
-113.637
1.66335
-54.49
-27.6551
-88.2732
-58.0125
-48.1974
-42.5222
-42.9099
-39.5979
-46.5688
-46.9603
-130.51
33.5589
-83.3801
71.338
-121.879
-116.394
-46.8321
-37.6814
-44.9817
-38.3398
-47.2338
-50.2207
-54.4366
-27.6342
-113.457
1.60612
-88.1069
-57.8768
-41.385
-36.0833
-44.2442
-37.7934
-43.5399
-45.5433
-38.741
-41.7794
-40.324
-39.185
-40.125
-41.5666
-40.9172
-39.5311
-40.8565
-37.7585
-37.4413
-36.9454
-38.5861
-39.456
-37.1555
-37.6683
-49.6024
-60.5954
-48.1597
-48.4704
-50.1037
-61.3142
-76.1098
-75.5287
-45.7381
-50.3179
-44.2827
-44.4712
-45.617
-51.2575
-53.1473
-52.9579
-38.614
-41.6871
-40.8192
-39.4272
-40.1613
-39.0596
-41.0391
-41.4006
-40.0947
-37.2003
-36.8082
-37.2293
-36.9454
-36.5889
-37.9893
-38.7219
-49.3448
-60.2506
-75.7556
-75.2136
-47.8977
-48.1861
-49.8006
-61.0059
-45.0395
-49.7852
-52.688
-52.4855
-43.6939
-43.7852
-45.0861
-50.79
-72.7938
68.8957
-114.59
34.8219
-131.869
-125.011
106.424
98.1016
-113.952
-101.41
-113.999
-99.8238
-96.3889
-96.3561
54.0312
53.844
-75.0178
-70.3245
-49.9429
-49.7171
-66.1126
-53.5173
-62.5762
-53.0936
-48.624
-41.2726
-48.1566
-41.5219
-48.6318
-48.3012
-38.2078
-38.4317
-47.0524
-38.8407
-45.0012
-35.3972
-46.3104
-47.1551
-35.2928
-33.0845
-45.4351
-44.2602
-40.6258
-39.938
-41.8532
-44.0906
-40.9053
-42.8931
-42.3459
-60.8769
-42.335
-60.8348
-36.4318
-36.4134
-13.4193
-13.2476
-58.8634
-43.0946
-45.76
-38.4131
-48.0891
-55.0879
-25.8156
-20.7048
-39.1755
-37.2019
-38.8654
-36.6595
-39.922
-39.8382
-36.3384
-36.6651
-44.5734
-47.1901
-45.5828
-50.628
-44.9227
-44.7988
-55.2617
-51.1317
-73.3773
69.052
-114.324
35.3625
-131.712
-124.744
98.0662
106.834
-74.8736
-70.1915
-49.8636
-49.6536
-65.9671
-53.3855
-62.515
-53.0448
-44.0885
-36.1112
-43.7489
-36.4958
-44.3705
-44.6471
-33.6633
-33.9144
-43.3377
-42.6052
-39.3713
-39.0076
-40.3946
-42.2062
-39.9396
-41.5825
-58.6415
-42.9729
-45.5509
-38.1801
-54.9133
-47.8926
-21.2344
-25.7029
-42.9816
-46.4084
-44.5983
-49.9566
-43.5967
-43.3988
-50.6551
-54.8481
-38.6531
-37.5859
-38.8987
-36.9677
-39.1044
-38.7971
-37.251
-37.0125
-42.1759
-41.7771
-43.6528
-43.7759
-42.7432
-43.2832
-41.9571
-42.979
-41.2349
-39.5939
-41.2065
-39.5622
-42.1518
-42.168
-39.0165
-38.9992
-40.1208
-40.5462
-41.7298
-41.9982
-40.4361
-41.2591
-41.054
-41.7749
-37.4861
-38.0311
-37.3598
-37.8729
-37.2488
-37.304
-38.4014
-38.3111
-48.1085
-56.695
-45.9845
-53.3885
-45.1816
-46.2155
-59.8689
-57.3691
-15.265
-47.7245
-15.1835
-47.6518
0.618041
0.792053
-67.8766
-67.8335
-71.0166
-67.5633
-70.8982
-67.4493
-72.8785
-72.8218
-66.3222
-66.2687
-38.4062
-37.4173
-38.5512
-36.7258
-38.8002
-38.4454
-37.0915
-36.8203
-41.9435
-41.5314
-43.4103
-43.5115
-43.0538
-42.5201
-41.6977
-42.7071
-39.4965
-39.7855
-41.1006
-41.2446
-40.6774
-39.8616
-40.212
-40.9376
-47.773
-56.3634
-45.5639
-52.9801
-45.9743
-44.7898
-56.9897
-59.518
-71.6528
-68.4881
-64.2379
-52.1152
-49.7358
-59.6176
-48.0257
-47.0162
-71.4729
-68.3086
-64.0654
-51.944
-59.439
-49.5507
-46.8265
-47.8423
-66.5973
-66.581
-61.149
-52.7758
-61.1216
-52.762
-49.7097
-49.718
-10.8288
-10.8107
-6.02502
6.94166
6.98611
-5.98954
13.666
13.6953
197.572
191.413