# vtk DataFile Version 2.0
tet_velo
ASCII
DATASET UNSTRUCTURED_GRID
POINTS 29498 float
-0.715 0.125 -2.25086
-0.764221 0.345 2.215
-0.715 0.626034 -2.135
-0.744145 0.865 2.105
0.715 0.125 -2.24987
0.764224 0.345 2.215
0.714149 0.625 -2.135
0.744149 0.865 2.105
-0.807048 0.122693 -0.76224
-0.846778 0.172703 0.72638
-0.820229 0.801203 -0.721667
-0.8079 0.858814 0.691667
0.806906 0.122835 -0.76158
0.846779 0.172704 0.72671
0.819549 0.8004 -0.721667
0.807955 0.858806 0.691667
-1.5144 -0.26027 -3.42673
-1.51856 -0.199981 -2.26603
-1.59044 -0.186314 -0.775491
-1.63241 -0.138038 0.730213
-1.59546 -0.0054789 2.22203
-1.57925 0.077496 3.38898
-1.58052 0.138204 4.54435
-1.50843 0.0362669 -3.39603
-1.51084 0.116003 -2.24353
-1.6009 0.140585 -0.76759
-1.63527 0.177241 0.715147
-1.57124 0.297264 2.19252
-1.5626 0.37783 3.35839
-1.57191 0.43953 4.5162
-1.50916 0.596829 -3.31338
-1.51303 0.676867 -2.15762
-1.6058 0.798879 -0.732982
-1.61107 0.841598 0.686333
-1.55186 0.872461 2.11239
-1.55204 0.95228 3.28136
-1.56645 1.02867 4.45128
-1.53386 1.51983 -3.24603
-1.54353 1.60901 -2.10161
-1.58049 1.7307 -0.70134
-1.60137 1.8048 0.682707
-1.59403 1.84355 2.08372
-1.58656 1.88811 3.22969
-1.58521 1.9488 4.39142
-0.74547 -0.256373 -3.43136
-0.728937 -0.193995 -2.27288
-0.786716 -0.195732 -0.774358
-0.831211 -0.140639 0.739831
-0.80409 0.0219701 2.23872
-0.791044 0.0970046 3.40032
-0.792427 0.148885 4.55095
-0.74484 0.0347679 -3.39735
-0.776619 0.396962 3.36775
-0.785774 0.449116 4.52118
-0.745091 0.576314 -3.30396
-0.768939 0.954216 3.27992
-0.782255 1.03135 4.45102
-0.75384 1.50807 -3.23672
-0.75436 1.59906 -2.09138
-0.783593 1.73155 -0.695149
-0.806773 1.80897 0.682048
-0.805732 1.84268 2.07856
-0.799844 1.88568 3.22454
-0.797861 1.94713 4.3877
0.752206 -0.256569 -3.43072
0.766594 -0.194031 -2.27209
0.816939 -0.195671 -0.773764
0.824349 -0.140634 0.74016
0.771002 0.0219644 2.23883
0.773672 0.09699 3.40043
0.778702 0.148857 4.55108
0.73154 0.0344868 -3.39673
0.770858 0.396951 3.36782
0.777884 0.44909 4.5213
0.731592 0.575701 -3.30365
0.76439 0.954202 3.27997
0.775468 1.03132 4.45112
0.787993 1.50756 -3.23649
0.802551 1.59854 -2.0912
0.806491 1.73114 -0.695005
0.788484 1.80878 0.682167
0.771654 1.84259 2.07866
0.77085 1.88561 3.22465
0.774475 1.94707 4.38783
1.51627 -0.260718 -3.4256
1.53402 -0.200246 -2.26477
1.60501 -0.186383 -0.774485
1.63182 -0.13806 0.730825
1.58246 -0.00550518 2.22235
1.56844 0.0774545 3.38925
1.5697 0.138138 4.54464
1.49396 0.0356657 -3.39495
1.50256 0.115566 -2.24228
1.59759 0.140426 -0.766635
1.63846 0.177228 0.715698
1.57645 0.297248 2.19276
1.56198 0.377796 3.3586
1.56644 0.439468 4.51646
1.49427 0.595791 -3.3127
1.50405 0.675643 -2.15708
1.60045 0.798032 -0.732564
1.61282 0.841473 0.686599
1.5575 0.872431 2.11255
1.55242 0.952235 3.28153
1.5618 1.0286 4.45151
1.56018 1.51889 -3.24554
1.57852 1.60806 -2.1012
1.59673 1.72997 -0.701006
1.58765 1.80442 0.682983
1.56781 1.84336 2.08396
1.5624 1.88796 3.22994
1.56427 1.94865 4.3917
-0.741616 0.375517 -2.21955
0 0.0924334 -2.28293
-0.786692 0.0981786 -1.50655
-0.74076 0.605 2.14658
1.49012e-06 0.287897 2.2721
-0.862868 0.201483 1.47069
-0.000425488 0.660056 -2.16954
-0.815768 0.761772 -1.42833
2.02656e-06 0.924758 2.16476
-0.787074 0.872959 1.39833
0.740689 0.375 -2.21855
0.786699 0.0981716 -1.50573
0.740797 0.605 2.14661
0.862871 0.201483 1.47085
0.815828 0.761679 -1.42833
0.787086 0.872937 1.39833
-0.831929 0.142681 -0.01793
-0.892559 0.461948 -0.741953
-7.05681e-05 0.131617 -0.76191
-0.897117 0.515759 0.709023
6.40431e-07 0.151118 0.726545
-0.810319 0.826264 -0.015
-0.000339908 0.932614 -0.721667
2.74612e-05 1.26852 0.691667
0.831672 0.14294 -0.0174351
0.892556 0.461617 -0.741624
0.897126 0.515755 0.709188
0.810394 0.826245 -0.015
-0.878953 0.418732 -1.46744
-0.895254 0.488853 -0.016465
-0.887389 0.560379 1.43451
-3.52841e-05 0.0912916 -1.50614
-3.49639e-05 0.14353 -0.0176826
1.06527e-06 0.175213 1.47077
-0.000212744 0.375259 -2.38349
1.75834e-06 0.605 2.261
-0.000382698 0.853299 -1.42833
-0.000156223 1.26607 -0.015
1.47439e-05 1.1164 1.39833
0.879134 0.418309 -1.46703
0.895255 0.488686 -0.0162175
0.88738 0.560377 1.43459
-1.11292 0.120502 -2.24719
-0.721969 -0.0344974 -2.26187
-0.72992 0.0798839 -2.8241
-1.16773 0.321132 2.20376
-0.784155 0.183485 2.22686
-0.77042 0.370981 2.79138
-1.11402 0.65145 -2.14631
-0.730046 0.601174 -2.71948
-0.73468 1.11255 -2.11319
-1.148 0.86873 2.1087
-0.756542 0.909608 2.69246
-0.774939 1.35384 2.09178
0.740797 -0.0345156 -2.26098
0.72327 0.0797434 -2.8233
1.10878 0.120283 -2.24607
0.767613 0.183482 2.22691
0.767541 0.370976 2.79141
1.17034 0.321124 2.20388
0.722871 0.600351 -2.71933
0.75835 1.11177 -2.1131
1.1091 0.650321 -2.14604
0.754269 0.909601 2.69249
0.757901 1.3538 2.09183
1.15083 0.868716 2.10878
-1.20397 0.131639 -0.764915
-0.796882 -0.0365198 -0.768299
-1.24102 0.174972 0.720763
-0.838995 0.0160319 0.733106
-1.21302 0.800041 -0.727324
-0.801911 1.26638 -0.708408
-1.20948 0.850206 0.689
-0.807336 1.33389 0.686857
0.811923 -0.0364179 -0.767672
1.20225 0.13163 -0.764107
0.835564 0.0160346 0.733435
1.24262 0.174966 0.721204
0.81302 1.26577 -0.708336
1.21 0.799216 -0.727115
0.79822 1.33379 0.686917
1.21039 0.850139 0.689133
-1.51648 -0.230125 -2.84638
-1.51142 -0.112002 -3.41138
-1.12994 -0.258321 -3.42905
-1.5545 -0.193147 -1.52076
-1.5147 -0.0419888 -2.25478
-1.12375 -0.196988 -2.26946
-1.61143 -0.162176 -0.0226388
-1.59567 -0.0228642 -0.77154
-1.18858 -0.191023 -0.774924
-1.61394 -0.0717586 1.47612
-1.63384 0.0196016 0.72268
-1.23181 -0.139339 0.735022
-1.58736 0.0360085 2.80551
-1.58335 0.145893 2.20728
-1.19978 0.0082456 2.23037
-1.57988 0.10785 3.96667
-1.57092 0.227663 3.37369
-1.18515 0.0872503 3.39465
-1.57621 0.288867 4.53027
-1.18647 0.143545 4.54765
-1.50964 0.0761351 -2.81978
-1.5088 0.316548 -3.35471
-1.12664 0.0355174 -3.39669
-1.55587 0.128294 -1.50556
-1.51193 0.396435 -2.20058
-1.61808 0.158913 -0.0262214
-1.60335 0.469732 -0.750286
-1.60326 0.237253 1.45383
-1.62317 0.50942 0.70074
-1.56692 0.337547 2.77546
-1.56155 0.584862 2.15246
-1.56725 0.40868 3.9373
-1.55732 0.665055 3.31988
-1.16961 0.387396 3.36307
-1.56918 0.734102 4.48374
-1.17884 0.444323 4.51869
-1.5111 0.636848 -2.7355
-1.52151 1.05833 -3.27971
-1.12713 0.586572 -3.30867
-1.55942 0.737873 -1.4453
-1.52828 1.14294 -2.12962
-1.60844 0.820239 -0.0233247
-1.59314 1.26479 -0.717161
-1.58146 0.857029 1.39936
-1.60622 1.3232 0.68452
-1.55195 0.912371 2.69688
-1.57295 1.358 2.09806
-1.55924 0.990477 3.86632
-1.5693 1.42019 3.25553
-1.16049 0.953248 3.28064
-1.57583 1.48874 4.42135
-1.17435 1.03001 4.45115
-1.5387 1.56442 -2.67382
-1.14385 1.51395 -3.24138
-1.56201 1.66986 -1.40148
-1.14895 1.60404 -2.0965
-1.59093 1.76775 -0.00931672
-1.18204 1.73113 -0.698245
-1.5977 1.82417 1.38321
-1.20407 1.80689 0.682377
-1.5903 1.86583 2.65671
-1.19988 1.84311 2.08114
-1.58589 1.91845 3.81056
-1.1932 1.88689 3.22711
-1.19154 1.94797 4.38956
-0.737204 -0.225184 -2.85212
-0.745155 -0.110802 -3.41435
0.0033677 -0.256471 -3.43104
-0.757827 -0.194864 -1.52362
0.0188286 -0.194013 -2.27249
-0.808964 -0.168186 -0.0172634
0.0151116 -0.195701 -0.774061
-0.817651 -0.0593345 1.48927
-0.00343097 -0.140637 0.739996
-0.797567 0.0594874 2.81952
-0.0165438 0.0219672 2.23877
-0.791735 0.122945 3.97563
-0.783832 0.246983 3.38404
-0.00868584 0.0969973 3.40037
-0.7891 0.299 4.53606
-0.00686247 0.148871 4.55101
-0.744966 0.305541 -3.35065
-0.00665024 0.0346274 -3.39704
-0.781197 0.423039 3.94447
-0.772779 0.675589 3.32383
-0.0028806 0.396956 3.36779
-0.784014 0.740234 4.4861
-0.00394481 0.449103 4.52124
-0.749466 1.04219 -3.27034
-0.00674958 0.576008 -3.30381
-0.775597 0.992784 3.86547
-0.784391 1.41995 3.25223
-0.00227438 0.954209 3.27995
-0.790058 1.48924 4.41936
-0.00339345 1.03134 4.45107
-0.7541 1.55357 -2.66405
0.0170763 1.50782 -3.23661
-0.768976 1.6653 -1.39327
0.0240955 1.5988 -2.09129
-0.795183 1.77026 -0.00655062
0.0114491 1.73135 -0.695077
-0.806252 1.82583 1.3803
-0.00914405 1.80888 0.682107
-0.802788 1.86418 2.65155
-0.0170391 1.84264 2.07861
-0.798853 1.91641 3.80612
-0.014497 1.88564 3.22459
-0.0116926 1.9471 4.38776
0.7594 -0.2253 -2.8514
0.741873 -0.111041 -3.41372
1.13424 -0.258643 -3.42816
0.791767 -0.194851 -1.52293
1.15031 -0.197138 -2.26843
0.820644 -0.168152 -0.0168017
1.21097 -0.191027 -0.774124
0.797676 -0.059335 1.48949
1.22809 -0.139347 0.735493
0.772337 0.0594772 2.81963
1.17673 0.00822961 2.23059
0.776187 0.122923 3.97575
0.772265 0.246971 3.38412
1.17106 0.0872223 3.39484
0.778293 0.298973 4.53619
1.1742 0.143497 4.54786
0.731566 0.305094 -3.35019
1.11275 0.0350763 -3.39584
0.774371 0.42302 3.94456
0.767624 0.675576 3.3239
1.16642 0.387374 3.36321
0.776676 0.740205 4.48621
1.17216 0.444279 4.51888
0.759792 1.04163 -3.27007
1.11293 0.585746 -3.30818
0.769929 0.992762 3.86555
0.76762 1.4199 3.25231
1.1584 0.953218 3.28075
0.774972 1.48919 4.41947
1.16863 1.02996 4.45131
0.795272 1.55305 -2.66385
1.17409 1.51323 -3.24101
0.804521 1.66484 -1.3931
1.19054 1.6033 -2.0962
0.797488 1.76996 -0.00641897
1.20161 1.73056 -0.698005
0.780069 1.82569 1.38042
1.18807 1.8066 0.682575
0.771252 1.8641 2.65166
1.16973 1.84297 2.08131
0.772663 1.91634 3.80624
1.16663 1.88678 3.2273
1.16937 1.94786 4.38976
1.52514 -0.230482 -2.84518
1.50511 -0.112526 -3.41027
1.56951 -0.193314 -1.51963
1.51829 -0.0423397 -2.25352
1.61842 -0.162221 -0.02183
1.6013 -0.0229786 -0.77056
1.60714 -0.0717825 1.47659
1.63514 0.0195841 0.723262
1.57545 0.0359747 2.8058
1.57946 0.145871 2.20755
1.56907 0.107796 3.96694
1.56521 0.227625 3.37393
1.56807 0.288803 4.53055
1.49826 0.075616 -2.81862
1.49411 0.315729 -3.35383
1.55008 0.127996 -1.50446
1.50331 0.395605 -2.19968
1.61802 0.158827 -0.0254685
1.59902 0.469229 -0.749599
1.60746 0.237238 1.45423
1.62564 0.50935 0.701149
1.56921 0.337522 2.77568
1.56698 0.58484 2.15266
1.56421 0.408632 3.93753
1.5572 0.665015 3.32007
1.56412 0.734034 4.48398
1.49916 0.635717 -2.73489
1.52723 1.05734 -3.27912
1.55225 0.736838 -1.44482
1.54128 1.14185 -2.12914
[...]
POINT_DATA 29498
VECTORS point_vectors float
-4.64135 -3.44725 6.67527
0.162885 0.13609 0.466124
-2.78647 2.65899 4.92751
-0.108417 -0.381696 0.691213
4.49623 -3.32232 6.47234
-0.167437 0.127212 0.457586
2.75704 2.63275 4.84772
0.109013 -0.380406 0.684828
0.0856337 0.0289108 0.975648
0.0095543 -0.00420923 0.425497
-0.565918 -0.393958 1.30521
-1.70804e-17 -3.16127e-17 -1.21057e-16
-0.0832203 0.027716 0.94827
-0.00938957 -0.00404756 0.425192
0.641834 -0.402661 1.36357
0 0 0
-0.523957 -0.210385 19.836
-1.2404 -0.666286 20.4434
-0.377644 -0.433295 21.351
0.140175 -0.216642 21.4986
0.72629 0.0106876 21.3634
0.923415 0.0593325 21.1655
0.875651 -0.294145 20.9258
-0.646533 -0.168087 19.7522
-1.65633 -0.528402 20.3571
-0.572086 -0.509599 21.3768
0.0788662 -0.30342 21.5266
0.822729 -0.191081 21.4665
1.07933 -0.249542 21.1251
1.07049 -0.463916 21.0898
-0.713253 0.073475 19.6906
-1.8285 0.161267 20.3316
-1.0908 -0.323321 21.2929
-0.250923 -0.377573 21.6324
0.520636 -0.510992 21.4747
0.808399 -0.629595 21.0146
0.632596 -0.409158 21.0638
-0.493345 0.333772 19.9205
-0.909643 0.601056 20.3269
-0.881582 0.3856 21.0375
-0.375539 -0.00685245 21.4518
0.0519385 -0.314734 21.2998
0.243522 -0.481407 21.0132
0.258027 -0.363207 20.7972
-0.504879 -0.498472 19.3563
-2.3137 -3.65106 20.4182
0.257702 -0.0132176 21.1441
0.627608 0.256024 19.7579
1.10316 1.32998 16.1253
1.70325 1.46067 15.9762
1.45841 0.822203 16.1447
-0.620503 -0.357042 19.1031
2.03651 0.882375 11.435
1.74641 0.735237 12.2337
-0.774671 0.173442 18.7833
1.18059 -1.1959 11.1395
0.953493 -0.69465 16.4321
-0.447425 0.645931 19.5135
-1.00835 1.62272 20.0857
-1.23096 1.48331 20.956
-0.538716 0.313288 21.9158
-0.0736038 -0.392073 21.3859
0.0349052 -0.570146 21.2987
-0.029201 -0.602093 20.3503
0.506454 -0.501595 19.3522
2.35083 -3.39358 20.3839
-0.265339 -0.0607215 21.5027
-0.625988 0.272566 19.7053
-0.995048 1.38429 15.7394
-1.68115 1.49478 15.8284
-1.44489 0.830368 15.9377
0.601098 -0.314423 19.0875
-2.03841 0.887375 11.2494
-1.72645 0.745127 12.059
0.74109 0.162598 18.7841
-1.16868 -1.1968 10.9716
-0.951302 -0.675188 16.3294
0.457938 0.629043 19.5325
1.02974 1.54276 20.1041
1.23934 1.43008 20.9673
0.54097 0.329114 21.9273
0.0786893 -0.386519 21.3878
-0.0342671 -0.569334 21.3448
0.0377316 -0.605068 20.2746
0.518244 -0.218952 19.8365
1.21552 -0.649607 20.4427
0.38322 -0.438581 21.3404
-0.140007 -0.217172 21.4954
-0.731268 0.0169375 21.3642
-0.934999 0.0527359 21.1797
-0.881558 -0.293177 20.919
0.648834 -0.161829 19.7557
1.68614 -0.545605 20.3614
0.573858 -0.5132 21.3854
-0.0783822 -0.302887 21.5281
-0.812343 -0.196459 21.4684
-1.07385 -0.250621 21.1313
-1.07973 -0.458741 21.0986
0.715284 0.0812797 19.6828
1.86141 0.172106 20.3268
1.09823 -0.324615 21.2966
0.251903 -0.376157 21.6317
-0.513165 -0.503766 21.4732
-0.804156 -0.628167 21.0152
-0.631909 -0.409997 21.0733
0.485417 0.328031 19.9336
0.897529 0.577501 20.3398
0.870145 0.375536 21.0364
0.378929 -0.00645377 21.4559
-0.0481791 -0.31697 21.3027
-0.233894 -0.480265 21.0114
-0.265395 -0.37325 20.8033
-1.91366 -0.085971 2.359
0.0040376 -5.00843 4.19187
0.0308164 -0.0103006 0.73046
0 0 0
-0.00117816 -0.0153822 0.0175869
0.0480055 0.0188444 1.80099
-4.0159e-05 0.175799 0.342497
-0.26032 -0.0735856 0.909067
-0.00358528 0.0572723 -0.152781
0 0 0
2.13995 -0.1051 2.68569
-0.0307322 -0.0105054 0.734674
0 0 0
-0.0465543 0.0200426 1.79655
0.261846 -0.0715204 0.912066
0 0 0
0.0816613 0.0332264 1.91752
-0.011533 -0.026305 0.193598
0 0 0
0 0 0
-5.65469e-06 0.000493486 0.0220291
5.60471e-18 1.16045e-17 4.56624e-17
-6.61145e-05 -0.000449967 0.00784568
0 0 0
-0.0804499 0.0339575 1.89395
0.0190471 -0.0408004 0.300959
0 0 0
0 0 0
0 0 0
0 0 0
0 0 0
-2.64479e-08 3.02496e-08 7.14864e-09
-1.60187e-07 -1.19003e-07 -8.94003e-06
-4.4139e-08 6.0013e-07 2.39586e-05
0.00184757 -0.471157 1.49741
-1.54797e-18 -6.2103e-18 4.38152e-19
8.34582e-06 0.00562342 0.036217
1.60405e-05 0.00754716 0.04589
-1.65247e-05 0.000535315 -0.00202207
0 0 0
0 0 0
0 0 0
-3.27763 -1.46706 20.1104
-4.02099 -5.65641 19.9135
-1.77891 -1.18765 17.9531
1.44334 -0.0945945 19.5219
0.910929 1.17501 8.51307
1.42258 0.439113 6.80816
-3.75437 0.760893 20.0702
-2.39984 0.980224 17.1956
-2.22835 2.81096 19.7874
0.755486 -0.768742 19.5246
-0.217836 -0.891272 6.86636
0.145966 -0.591119 18.6077
3.99235 -5.2732 19.9898
1.77911 -1.18588 17.922
3.31187 -1.479 20.0921
-0.843472 1.18207 8.05705
-1.40348 0.415917 6.66226
-1.4289 -0.0989179 19.5462
2.39803 0.983684 17.1528
2.25039 2.71435 19.8091
3.8033 0.777395 20.0606
0.244642 -0.889046 6.75201
-0.149938 -0.577297 18.3948
-0.749333 -0.769964 19.5766
-0.380301 -0.945087 21.5136
0.733044 0.230523 15.502
0.240717 -0.47088 21.179
0.558125 0.15985 14.0384
-1.79861 -0.783649 21.4117
-2.77321 1.74162 20.8106
-0.383115 -0.741709 21.0136
-0.703545 0.125042 20.7865
-0.736116 0.193378 15.8788
0.380985 -0.948756 21.4981
-0.556631 0.168024 13.9516
-0.237755 -0.470986 21.1896
2.76908 1.68226 20.8202
1.81165 -0.795888 21.4032
0.663579 0.145965 20.5442
0.382468 -0.736812 21.0083
-0.905027 -0.423531 19.9534
-0.581055 -0.199267 19.7979
-0.547681 -0.322393 19.6226
-0.850088 -0.57685 21.1361
-1.42808 -0.635307 20.4152
-1.84383 -1.52607 20.3743
-0.080986 -0.319228 21.4313
-0.485947 -0.495159 21.3616
-0.14335 -0.595148 21.6
0.428223 -0.0963127 21.5323
0.108709 -0.262238 21.5029
0.347566 -0.225946 21.5753
0.877688 0.0471952 21.1613
0.794094 -0.0838434 21.4102
1.21934 0.30111 21.0441
0.94858 -0.0595904 20.6678
1.01654 -0.0481209 21.0835
1.44985 0.336228 20.9496
0.976283 -0.380709 21.0063
1.20081 0.204194 21.1139
-1.1485 -0.330615 19.8108
-0.684875 -0.0600283 19.6815
-0.680437 -0.247457 19.4653
-1.17344 -0.549285 21.1764
-1.86578 -0.211705 20.3321
-0.219203 -0.423303 21.4572
-0.847103 -0.469439 21.3399
0.435937 -0.225955 21.6088
-0.073803 -0.392594 21.6081
0.99124 -0.218817 21.348
0.701825 -0.406531 21.4811
1.00165 -0.209737 20.9667
0.977954 -0.453915 21.1074
1.71497 -0.17827 19.3878
0.889044 -0.508701 21.1167
1.39416 0.0464721 17.5056
-1.31179 0.141571 19.7619
-0.649293 0.257125 19.7818
-0.833781 0.0959992 19.2924
-1.49897 -0.0898248 21.0551
-1.37053 0.533516 20.3148
-0.709292 -0.392431 21.529
-1.15573 0.133617 21.1409
0.167104 -0.414923 21.6134
-0.399195 -0.181971 21.5728
0.676838 -0.570146 21.3143
0.210075 -0.466972 21.36
0.653222 -0.559711 21.0039
0.387858 -0.589267 21.0987
1.01649 -0.857505 20.3777
0.320809 -0.374894 20.9109
0.8469 -1.04207 19.5446
-0.715625 0.485682 20.0544
-0.522353 0.482998 19.7155
-0.938702 0.526304 20.7216
-1.0626 1.0425 20.2232
-0.694442 0.207757 21.3181
-1.15191 0.796553 21.0446
-0.10795 -0.187161 21.4069
-0.482472 0.112139 21.6505
0.132594 -0.393643 21.1672
0.0051165 -0.382248 21.3535
0.282009 -0.466921 20.8862
0.121734 -0.540291 20.8628
0.105506 -0.358587 20.9807
-1.14584 -1.33871 18.9846
-0.554962 -0.432263 19.2493
0.00395859 -0.611303 19.069
-0.533465 -0.985564 22.0577
0.081126 -5.93206 20.404
0.547862 0.16215 20.3272
-0.00243899 -0.137523 16.3663
0.7506 0.602995 17.8516
-0.000616238 0.213285 13.3426
1.4573 1.41736 16.5446
-0.0175894 0.754486 9.36274
1.443 1.0385 16.7648
2.02488 1.45483 12.9913
0.00619619 1.97608 11.0519
1.64144 0.831062 14.0843
0.0281756 1.67256 13.5779
-0.711771 -0.124666 18.889
-0.0124956 -0.560558 18.5601
2.05094 0.468045 12.8932
1.86245 -0.665546 8.40318
0.0111053 1.21893 1.79904
1.51123 0.00708591 13.2367
0.0332726 1.40206 8.43045
-0.643015 0.563954 19.1059
-0.0114286 0.203533 18.2019
1.0113 -0.838137 13.3708
0.291875 -1.13295 19.7905
0.0448792 1.25586 -6.42056
0.115746 -0.957159 19.9451
0.0139197 0.387708 -1.67195
-0.748815 1.20118 19.5998
0.0125165 0.881567 19.3222
-1.07329 1.50159 20.5936
0.0277962 2.25737 19.9097
-1.12999 1.14461 21.7442
0.027373 2.54899 20.7254
-0.198496 -0.179845 21.6559
-0.0107407 0.713307 22.2582
-0.0102716 -0.500596 21.3095
-0.0089578 -0.185994 21.6142
0.0304482 -0.618039 20.712
-0.00416628 -0.554164 21.5813
-0.00229039 -0.347745 21.0521
1.15863 -1.30881 19.031
0.540187 -0.419653 19.2443
0.548699 -0.319885 19.6336
0.551838 -1.00614 22.149
1.80166 -1.43977 20.3755
-0.546257 0.142971 20.4367
0.166609 -0.596092 21.5867
-0.727378 0.618607 17.6223
-0.347662 -0.227113 21.5677
-1.41609 1.4642 16.0714
-1.23989 0.33289 20.9156
-1.44432 1.08731 16.6847
-2.02767 1.47189 12.713
-1.47502 0.371051 20.9027
-1.63149 0.846621 13.8906
-1.2184 0.22625 21.135
0.708918 -0.1228 18.8451
0.704638 -0.276489 19.4512
-2.06703 0.489426 12.6786
-1.86065 -0.663286 8.25034
-1.71605 -0.175093 19.316
-1.49687 0.017984 13.0878
-1.39184 0.0605677 17.3947
0.652323 0.546213 19.1163
0.873127 0.113842 19.2742
-0.983192 -0.842145 13.1797
-0.277989 -1.14352 19.7356
-1.0125 -0.860002 20.3594
-0.113906 -0.965892 19.9
-0.849847 -1.04905 19.5315
0.766977 1.1544 19.6256
0.52513 0.465643 19.7268
1.09411 1.44835 20.6011
1.04965 0.979411 20.2416
1.1298 1.14229 21.7434
1.14473 0.770383 21.0487
0.19941 -0.175172 21.6583
0.484586 0.117167 21.6626
0.0162304 -0.496332 21.307
-0.000875905 -0.38247 21.3606
-0.0213896 -0.61797 20.7069
-0.11362 -0.539925 20.8711
-0.100965 -0.368858 21.005
0.892642 -0.423921 19.9669
0.576004 -0.199913 19.8009
0.852803 -0.584551 21.1357
1.42907 -0.63184 20.4168
0.0890496 -0.321489 21.4327
0.486763 -0.49273 21.3631
-0.43004 -0.0945889 21.5452
-0.109642 -0.262267 21.503
-0.889418 0.0565088 21.1614
-0.792875 -0.0849438 21.4163
-0.966191 -0.0536601 20.6661
-1.01399 -0.0495618 21.0911
-0.984126 -0.377233 21.0078
1.15812 -0.341463 19.8012
0.693765 -0.0710469 19.6681
1.17895 -0.558336 21.1952
1.89848 -0.220547 20.3347
0.218536 -0.425439 21.4608
0.850931 -0.473892 21.3458
-0.435163 -0.229538 21.601
0.0746125 -0.392352 21.6082
-0.983149 -0.218747 21.355
-0.694787 -0.399041 21.4833
-1.00312 -0.215587 20.9641
-0.976732 -0.454888 21.1075
-0.890099 -0.504187 21.1309
1.32971 0.152893 19.7441
0.65369 0.250422 19.7881
1.51127 -0.0900326 21.0625
1.35853 0.519893 20.3238
0.711624 -0.392397 21.5323
1.14915 0.132188 21.1409
-0.166977 -0.411613 21.6109
0.401018 -0.183137 21.5766
-0.6701 -0.565605 21.3167
-0.208171 -0.470894 21.3575
-0.646259 -0.556031 21.0021
-0.389073 -0.593784 21.1039
-0.322477 -0.381376 20.9329
0.709727 0.477344 20.0655
0.926561 0.512844 20.7211
0.69269 0.207124 21.3181
0.111635 -0.18883 21.4118
-0.132171 -0.400674 21.1704
-0.290606 -0.475463 20.8936
-1.0247 -0.405743 19.893
-1.47384 -1.375 18.4801
-1.13096 -0.796197 19.5697
-1.59031 -0.658283 19.1964
-0.620733 -0.293687 19.5363
-2.51491 -1.64081 20.2753
-1.02881 -0.583078 21.1644
0.281181 -0.440417 17.228
-0.904093 -1.05156 21.5971
-1.54841 -1.23835 21.9041
-0.208305 -0.777992 21.6328
-0.145421 -0.383486 21.435
0.693892 0.148529 14.6147
0.144574 -0.414912 21.5496
-0.0218868 -0.731288 21.2338
0.310624 -0.362616 21.4447
0.424829 -0.133318 21.5595
0.410696 0.351474 10.6438
0.689038 0.000944035 21.5378
0.689603 -0.246671 20.7508
1.40225 0.124589 20.5275
0.967251 -0.086997 21.3193
1.53513 1.18899 11.1165
1.41935 0.364349 20.7202
1.65763 -0.117125 19.8711
1.55102 0.181136 20.161
0.978072 -0.141489 20.8131
1.80856 0.80082 13.6948
1.41292 0.213975 20.4582
1.76544 -0.360201 19.6039
1.29065 0.137202 19.3868
-1.30115 -0.110873 19.7371
-2.28241 -0.300456 17.1878
-1.96431 0.346948 18.9749
-0.777716 -0.0998919 19.3426
-4.01719 -0.38936 20.0059
-1.38352 -0.345021 21.15
-2.35883 -0.175731 21.5092
-0.939708 -1.02136 21.536
-0.445866 -0.487472 21.5063
-1.16991 -0.965911 21.4028
0.081719 -0.609755 20.8267
0.327463 -0.354045 21.6393
0.278546 -0.572582 20.2784
1.23851 -0.455185 18.729
0.884121 -0.446684 21.36
0.417477 -0.83036 4.10578
0.903033 -0.938249 20.2561
1.60318 -0.541468 19.2227
0.841944 -0.409176 21.1891
1.53285 -0.388167 10.5257
0.960154 -0.922067 20.187
1.1719 -0.677732 18.4316
-1.04731 0.4389 19.8931
-1.3976 1.58083 18.7881
-0.824755 0.817393 19.8383
-0.718204 0.410754 19.4698
-1.99482 1.29015 20.1075
-1.30594 0.34549 20.8352
-2.18711 1.87971 20.8048
-1.13038 0.943715 20.6829
-1.86661 0.458915 21.1606
-0.858353 -0.0469711 21.4638
-2.88436 1.01655 22.1305
-0.947052 0.540298 21.5048
-0.652347 -0.141109 21.9083
-0.0242563 -0.335531 21.5121
0.160326 -0.402695 19.2809
-0.150167 -0.202521 21.5371
0.122955 -0.644815 21.4881
0.330781 -0.54273 21.2282
0.091642 -0.802344 19.6389
0.0986497 -0.476908 21.214
0.340567 -0.781935 21.3495
0.371578 -0.555436 20.8817
0.285847 -0.925925 19.9125
0.283785 -0.478344 20.7974
0.274992 -0.624147 20.5797
1.47848 -1.3372 18.5185
0.0173664 -2.12991 18.2023
-0.00864962 -1.98079 16.405
-0.00479052 -0.600622 18.8505
0.0681209 -10.9294 21.3108
-0.271113 -0.510692 17.7218
0.0348681 -1.27892 19.3195
-0.0120593 0.0947263 5.5299
-0.69149 0.140199 14.7009
-0.00443867 0.0901541 14.1127
0.0017128 0.148631 6.45401
-0.389527 0.351704 10.3602
0.00832073 0.422217 11.2172
-0.0244877 0.407263 3.22897
-1.50988 1.20474 10.8133
-0.0152673 0.93692 9.84974
-0.00400593 -0.0340873 0.324203
0.000514765 1.93943 6.5521
-1.8333 0.847683 13.3848
0.0252931 1.80551 11.6103
0.0243382 1.95471 3.90559
0.0307883 1.52174 11.0748
2.28059 -0.296076 17.1326
-0.0138732 1.91668 15.0135
-0.00390751 -0.197682 18.3759
-0.379129 -0.831635 4.03169
0.0230976 1.27346 -5.09077
0.040834 0.658805 -3.36118
-1.52187 -0.372186 10.3265
0.0383363 0.529711 -4.4796
0.033999 0.829835 2.93435
1.41071 1.54147 18.8123
0.0162212 1.63075 19.339
0.00321523 0.796308 18.6949
0.0414686 4.52772 19.4124
2.18793 1.81388 20.8053
0.027655 2.23128 20.4649
0.023508 4.06766 19.4962
2.88217 1.01447 22.1344
0.00177402 2.33656 22.0645
-0.00305174 0.238335 15.5362
-0.205751 -0.380375 18.8819
-0.0089043 -0.00674902 21.9158
-0.019742 -0.0446911 8.96656
-0.0833401 -0.786686 19.4604
-0.00786041 -0.31609 21.4423
-0.00618149 -0.861034 13.7465
-0.274085 -0.918334 19.8549
-0.00857262 -0.599753 21.494
-0.00721552 -0.788637 16.6023
1.02167 -0.412297 19.8982
1.11216 -0.790387 19.5882
1.60006 -0.686121 19.1637
0.624605 -0.308264 19.5355
2.48025 -1.60454 20.2696
1.02989 -0.586674 21.1774
0.911107 -1.03996 21.5639
1.56078 -1.24923 21.9047
0.228065 -0.769844 21.6178
0.146602 -0.386788 21.4404
-0.136772 -0.414229 21.5446
0.0234362 -0.731542 21.2219
-0.307454 -0.365394 21.427
-0.425574 -0.138066 21.5598
-0.691801 0.0068392 21.4777
-0.684857 -0.249972 20.7818
-1.40294 0.141548 20.3184
-0.967298 -0.0874985 21.3258
-1.43344 0.399092 20.6262
-1.64779 -0.119111 19.8489
-1.55683 0.210425 20.0024
-0.987773 -0.140923 20.8115
-1.41995 0.234609 20.4908
-1.77198 -0.366902 19.5699
-1.29844 0.156483 19.2598
1.32096 -0.117391 19.7275
1.98029 0.352247 18.9504
0.775788 -0.104884 19.2993
4.07394 -0.388081 19.9869
1.38819 -0.353114 21.1623
2.37783 -0.181398 21.5239
0.940831 -1.02777 21.516
0.447549 -0.490373 21.5094
1.16892 -0.969346 21.3835
-0.0771376 -0.610303 20.8481
-0.326249 -0.354209 21.6366
-0.274386 -0.574345 20.3058
-1.22688 -0.460256 18.8009
-0.876692 -0.44359 21.3639
-0.89114 -0.937077 20.249
-1.59825 -0.54754 19.1347
-0.837725 -0.411663 21.1901
-0.965554 -0.93049 20.1602
-1.17492 -0.662859 18.3451
1.04636 0.431032 19.8988
0.823653 0.781531 19.8632
0.715185 0.412264 19.4779
1.95371 1.2263 20.1202
1.29647 0.341322 20.8368
1.11595 0.905944 20.6881
1.84868 0.448407 21.1629
0.857897 -0.046629 21.4658
0.945685 0.538384 21.505
0.657786 -0.142369 21.9169
0.0271088 -0.336718 21.5146
0.148418 -0.204905 21.5469
-0.117738 -0.652 21.4797
-0.328193 -0.549896 21.2374
-0.0918183 -0.479265 21.2147
-0.340163 -0.7909 21.3711
-0.372032 -0.553687 20.9037
-0.288879 -0.493381 20.8091
-0.270955 -0.639457 20.5539
-1.38878 -0.780449 19.3754
-1.1523 -1.20554 21.7359
0.102354 -0.577401 21.4682
0.722798 -0.135017 21.1678
1.58806 0.159427 20.2068
1.63532 -0.0634596 19.9787
-1.92578 -0.210124 18.9572
-2.02248 -0.757431 21.8944
-0.367364 -0.927369 20.9677
0.561253 -0.370359 19.9897
1.45547 -0.618943 19.6126
1.30251 -0.57773 19.5797
-1.39035 0.90413 19.4355
-1.86463 0.80347 20.8856
-1.50293 0.144197 21.7844
-0.0922931 -0.420359 21.7189
0.246316 -0.767252 21.4135
0.393404 -0.769653 21.1609
0.00351876 -2.2242 17.2683
-0.0110494 -0.209105 6.39728
-0.00535411 0.10279 5.75548
-0.00194839 0.198817 5.29237
-0.0176482 0.259009 3.91497
0.0251364 1.84195 7.66371
-0.00983038 -0.446118 15.1239
0.0248549 0.239116 -3.19773
0.0511762 1.54308 1.32309
0.0184779 2.44288 17.9864
0.0340306 3.46788 20.6097
0.000736291 3.96413 20.685
-0.00487373 -0.282092 11.3477
-0.0418655 -0.010836 11.1956
-0.0202094 -0.645175 14.6956
1.37941 -0.77582 19.3707
1.16703 -1.18978 21.7041
-0.092598 -0.577485 21.4729
-0.721753 -0.133294 21.0796
-1.5978 0.172277 20.0422
-1.65041 -0.0706941 19.9475
1.9376 -0.209038 18.9258
2.0271 -0.759169 21.8924
0.369351 -0.927857 20.9571
-0.555962 -0.374944 20.0301
-1.44256 -0.618831 19.5945
-1.2996 -0.578903 19.4689
1.38151 0.889361 19.4521
1.84781 0.788309 20.8843
1.50259 0.142363 21.7836
0.0921496 -0.425785 21.7209
-0.237649 -0.769424 21.4097
-0.380957 -0.788824 21.1809
-4.42281 -1.08688 2.47431
-0.663285 -4.636 3.47158
0.0429015 -0.27004 1.69805
0.0758178 -0.0663283 0.155045
-0.00104117 0.0106375 0.0228419
0.00202461 0.00153208 0.0119905
-1.54731 -0.0640347 2.3744
-0.136923 0.620694 0.916753
-0.588052 0.0819581 2.00287
0.0292024 -0.0713268 0.0918444
-0.178467 -0.0149631 -0.0226181
-0.0156557 -0.0248407 0.257431
0.577158 -4.60369 3.36113
4.51832 -1.0808 2.44589
-0.0510774 -0.261295 1.67863
0.00315895 0.00889355 0.018881
-0.0752247 -0.0681711 0.153459
-0.00293763 0.00245615 0.0181134
0.138467 0.628927 0.928071
1.53959 -0.0513814 2.37834
0.572239 0.0820569 1.97315
0.175 -0.0106343 -0.0311239
-0.0287845 -0.0722382 0.0917513
0.0155396 -0.0236283 0.253206
0.0474658 -0.0325486 0.863327
0.0361154 -0.00221611 0.52033
0 0 0
0 0 0
0.0220329 0.0474913 1.64044
0.0206319 0.0201661 1.26682
-0.00113222 0.0150656 0.164649
0.00185274 0.0006744 0.0282276
-0.328468 -0.116608 1.05472
-0.00511932 -0.0192328 0.11976
-1.09592e-19 3.2128e-19 9.97719e-18
-0.0189098 0.00127274 0.00910873
0 0 0
0.00153273 0.00429212 0.0242197
0 0 0
0.0226547 -0.00644854 0.156859
-0.0496132 -0.0344764 0.900772
0 0 0
-0.0354462 -0.00224985 0.51474
0 0 0
-0.0218788 0.0475049 1.60847
-0.00184321 0.000658886 0.0277388
-0.0202589 0.0205534 1.26363
0.00114334 0.0150227 0.163724
0.311411 -0.110591 1.00516
0.0111276 0.00114363 0.00571882
0.00642381 -0.0217321 0.131679
0 0 0
0 0 0
-0.0227911 -0.00639541 0.156782
-0.00148799 0.0041581 0.0233988
0 0 0
-0.037884 -0.0229653 0.197202
-0.79171 -0.457965 0.952085
2.35662e-08 2.00315e-06 -2.21738e-05
2.43081e-05 -0.00920178 0.00328776
-0.00309365 -0.0147954 0.132027
1.34904e-06 5.57581e-08 4.65115e-06
0.000826153 -0.000585833 0.010286
0 0 0
-9.18673e-05 0.00121684 0.0131523
0 0 0
0 0 0
-3.75297e-06 -2.84137e-06 -0.000113065
0 0 0
-0.000532335 0.0112833 0.0415034
-0.00188294 -0.00529336 0.0442591
0 0 0
-0.000428365 -0.00287674 -0.00131284
-0.000139817 0.00295686 -0.00896713
0.01047 0.0176576 0.166108
-0.000261803 -0.00016642 0.00052641
0.845371 -0.491022 1.0203
0.0282009 -0.0176582 0.132238
-1.37391e-06 5.72142e-08 4.82838e-06
0.00315651 -0.0141624 0.131295
0 0 0
-0.000831328 -0.000581536 0.0103206
6.07935e-07 -4.23385e-07 -1.69236e-05
0 0 0
2.21652e-17 1.25706e-17 1.06068e-16
0.000173349 -0.000519757 0.00427473
0.000113246 -7.06065e-05 0.000244792
-0.0104984 0.0176711 0.166317
0.000130946 -0.00106486 0.115799
0 0 0
-0.000491717 -0.00534269 0.0474108
0 0 0
-1.214e-08 4.93606e-08 3.82449e-06
-9.88787e-09 -5.87901e-09 -3.48369e-07
-7.31991e-06 0.000611503 0.00654345
3.48601e-05 0.000548019 0.00582736
-4.22646e-10 -2.62082e-07 -2.33408e-05
2.99461e-08 -7.7812e-07 -3.89451e-05
0.00564849 0.0261723 0.126554
-0.0786109 0.0857662 0.675273
-0.000242475 -0.00531484 0.0357112
5.1625e-05 0.0345052 0.0668886
8.40215e-07 0.000724392 0.0560105
-1.12273e-05 -0.000297744 0.00135344
0 0 0
-0.00010621 -0.00099002 0.115472
0.000471129 -0.00612658 0.0556701
0 0 0
7.32808e-06 0.000612344 0.00651164
-3.2893e-05 0.000541718 0.00567766
0.0759263 0.0828259 0.655332
-0.00574011 0.0265378 0.127643
-0.0161026 -0.0199091 0.0915511
-0.0347929 -0.010244 0.149064
0 0 0
-0.00123734 -0.0107303 0.070563
0.000507292 -0.00232104 0.0681874
-0.00116232 0.0055339 0.186749
-4.5328e-05 0.00171413 0.0301856
0.00244852 0.0173246 0.105552
0 0 0