# vtk DataFile Version 2.0
tet_velo
ASCII
DATASET UNSTRUCTURED_GRID
POINTS 29498 float
-0.701502 0.215 -1.665
-0.770372 0.285 1.625
-0.678551 0.695 -1.585
-0.655 0.906378 1.655
0.701357 0.215 -1.665
0.772695 0.285 1.635
0.678143 0.695 -1.585
0.645 0.905 1.66226
-0.765439 0.197353 -0.568333
-0.769945 0.239137 0.528333
-0.730032 0.824791 -0.505
-0.707072 0.880141 0.575
0.766039 0.197431 -0.565
0.767787 0.242795 0.535
0.728297 0.826201 -0.50258
0.703343 0.882295 0.57984
-1.43159 -0.130438 -2.56862
-1.43787 -0.0908707 -1.69688
-1.48142 -0.0924048 -0.599777
-1.49154 -0.0702714 0.500167
-1.48558 -0.0299336 1.59751
-1.48743 0.00362867 2.47044
-1.49264 0.0377742 3.34121
-1.42887 0.14998 -2.53461
-1.43215 0.205497 -1.66462
-1.4859 0.213367 -0.571138
-1.48665 0.242114 0.523274
-1.47312 0.282122 1.61706
-1.4827 0.315117 2.4899
-1.49281 0.348838 3.36138
-1.41944 0.681846 -2.46211
-1.41231 0.736451 -1.59134
-1.45584 0.826908 -0.509241
-1.43555 0.876555 0.571094
-1.39681 0.90845 1.65344
-1.44427 0.939938 2.52654
-1.48048 0.973316 3.40048
-1.42551 1.55681 -2.36697
-1.42556 1.62197 -1.49901
-1.43889 1.7233 -0.421593
-1.44266 1.80269 0.651781
-1.44165 1.85085 1.72913
-1.4557 1.8817 2.59693
-1.47761 1.91275 3.46857
-0.712058 -0.12608 -2.56871
-0.703841 -0.0845434 -1.69713
-0.743715 -0.0999538 -0.597619
-0.755556 -0.0732072 0.505186
-0.754663 -0.0295142 1.60471
-0.762492 0.00350691 2.47641
-0.769576 0.0371968 3.34598
-0.715357 0.149768 -2.53408
-0.771376 0.315181 2.49535
-0.776055 0.348275 3.36578
-0.709033 0.665096 -2.45915
-0.742909 0.938866 2.52942
-0.772402 0.972615 3.40359
-0.708457 1.5457 -2.36363
-0.705308 1.61167 -1.49529
-0.718331 1.72134 -0.418378
-0.728368 1.80527 0.653974
-0.733437 1.85237 1.73071
-0.747857 1.88228 2.59864
-0.767229 1.91303 3.47062
0.715108 -0.125721 -2.56745
0.734249 -0.0843182 -1.69591
0.765509 -0.0993203 -0.594148
0.767387 -0.0706405 0.511431
0.765727 -0.0285569 1.61315
0.720104 0.00415424 2.48429
0.691507 0.0379364 3.35309
0.696742 0.150032 -2.53325
0.69604 0.315431 2.50352
0.674222 0.348839 3.37299
0.686671 0.665399 -2.45836
0.649233 0.938671 2.53673
0.650312 0.97301 3.41048
0.715758 1.54647 -2.36154
0.722216 1.61256 -1.49297
0.718203 1.72253 -0.415125
0.697388 1.80652 0.658494
0.674613 1.85322 1.73623
0.661964 1.88296 2.60453
0.652678 1.91375 3.47659
1.4358 -0.129492 -2.56541
1.45568 -0.0899739 -1.69332
1.49855 -0.0906164 -0.592813
1.50754 -0.066346 0.511737
1.49724 -0.0275651 1.61239
1.45741 0.00526977 2.48516
1.42557 0.0394134 3.35498
1.41634 0.1508 -2.53207
1.43036 0.206265 -1.6621
1.48876 0.214959 -0.56468
1.49391 0.246355 0.534921
1.47776 0.283824 1.6326
1.43343 0.316224 2.50499
1.40661 0.3502 3.37531
1.4021 0.682761 -2.45967
1.40732 0.737463 -1.58903
1.45388 0.829177 -0.503569
1.43577 0.879871 0.581254
1.38701 0.909071 1.66702
1.37643 0.940457 2.54052
1.37429 0.9744 3.41389
1.42991 1.5584 -2.3625
1.43648 1.6238 -1.49405
1.43702 1.72563 -0.414894
1.41642 1.80515 0.660808
1.38935 1.8527 1.74
1.37604 1.88324 2.60853
1.36893 1.9143 3.48035
-0.742305 0.455 -1.67728
-7.25091e-05 0.218031 -1.66197
-0.752434 0.187213 -1.11667
-0.752695 0.595689 1.68001
0.00116152 0.260008 1.65499
-0.768395 0.263832 1.07667
-0.000203997 0.743547 -1.63355
-0.74391 0.799513 -1.045
-0.005 0.925274 1.67822
-0.689584 0.901807 1.115
0.742115 0.455 -1.67736
0.752526 0.187388 -1.115
0.747411 0.595 1.68719
0.770023 0.264116 1.085
0.743069 0.80045 -1.04379
0.685042 0.904518 1.12105
-0.766265 0.219672 -0.02
-0.80149 0.511072 -0.536667
0.000300082 0.168891 -0.566667
-0.802863 0.559639 0.551667
-0.00107886 0.198425 0.531667
-0.717853 0.851766 0.035
-0.000867904 1.13109 -0.50379
-0.00186472 1.3255 0.57742
0.763903 0.223123 -0.015
0.800545 0.511816 -0.53379
0.800376 0.562545 0.55742
0.715564 0.853993 0.03863
-0.87376 0.483036 -1.08083
-0.805817 0.535355 0.00749999
-0.862737 0.577664 1.09583
0.000113787 0.154166 -1.11583
-0.00038939 0.189766 -0.0175
4.13262e-05 0.230798 1.08083
-0.000138253 0.455 -1.8239
-0.00191924 0.595344 1.79571
-0.00053595 0.886615 -1.0444
-0.00136631 1.31892 0.036815
-0.00343236 1.30208 1.11803
0.873776 0.483408 -1.0794
0.803733 0.537181 0.011815
0.867676 0.578773 1.10303
-1.06683 0.210249 -1.66481
-0.702671 0.0652283 -1.68106
-0.70843 0.182384 -2.09954
-1.12175 0.283561 1.62103
-0.762518 0.127743 1.61486
-0.770874 0.30009 2.06017
-1.04543 0.715725 -1.58817
-0.693792 0.680048 -2.02207
-0.691929 1.15334 -1.54015
-1.0259 0.907414 1.65422
-0.698954 0.922622 2.09221
-0.694219 1.37938 1.69286
0.717803 0.0653409 -1.68046
0.69905 0.182516 -2.09913
1.06586 0.210632 -1.66355
0.769211 0.128222 1.62408
0.734368 0.300216 2.06926
1.12523 0.284412 1.6338
0.682407 0.680199 -2.02168
0.700179 1.15378 -1.53899
1.04273 0.716231 -1.58702
0.647117 0.921836 2.0995
0.659807 1.37911 1.69925
1.016 0.907036 1.66464
-1.12567 0.20536 -0.569736
-0.754577 0.0486996 -0.582976
-1.1283 0.240625 0.525804
-0.762751 0.0829649 0.51676
-1.09294 0.82585 -0.507121
-0.724182 1.27307 -0.461689
-1.07131 0.878348 0.573047
-0.71772 1.34271 0.614487
0.765774 0.0490551 -0.579574
1.1274 0.206195 -0.56484
0.767587 0.0860773 0.523216
1.13085 0.244575 0.53496
0.72325 1.27436 -0.458853
1.09109 0.827689 -0.503075
0.700365 1.34441 0.619167
1.06956 0.881083 0.580547
-1.43473 -0.110654 -2.13275
-1.43023 0.00977109 -2.55162
-1.07183 -0.128259 -2.56867
-1.45964 -0.0916377 -1.14833
-1.43501 0.0573132 -1.68075
-1.07086 -0.087707 -1.697
-1.48648 -0.0813381 -0.049805
-1.48366 0.0604812 -0.585458
-1.11257 -0.0961793 -0.598698
-1.48856 -0.0501025 1.04884
-1.4891 0.0859212 0.511721
-1.12355 -0.0717393 0.502676
-1.4865 -0.0131525 2.03398
-1.47935 0.126094 1.60729
-1.12012 -0.0297239 1.60111
-1.49004 0.0207014 2.90583
-1.48506 0.159373 2.48017
-1.12496 0.00356779 2.47343
-1.49272 0.193306 3.3513
-1.13111 0.0374855 3.3436
-1.43051 0.177739 -2.09962
-1.42416 0.415913 -2.49836
-1.07211 0.149874 -2.53435
-1.45903 0.209432 -1.11788
-1.42223 0.470974 -1.62798
-1.48628 0.22774 -0.0239319
-1.47087 0.520138 -0.54019
-1.47989 0.262118 1.07017
-1.4611 0.559335 0.547184
-1.47791 0.298619 2.05348
-1.43496 0.595286 1.63525
-1.48775 0.331977 2.92564
-1.46349 0.627528 2.50822
-1.12704 0.315149 2.49262
-1.48664 0.661077 3.38093
-1.13443 0.348557 3.36358
-1.41588 0.709148 -2.02673
-1.42247 1.11933 -2.41454
-1.06424 0.673471 -2.46063
-1.43408 0.78168 -1.05029
-1.41894 1.17921 -1.54518
-1.4457 0.851732 0.0309266
-1.44736 1.2751 -0.465417
-1.41618 0.892503 1.11227
-1.43911 1.33962 0.611438
-1.42054 0.924194 2.08999
-1.41923 1.37965 1.69129
-1.46238 0.956627 2.96351
-1.44999 1.41082 2.56174
-1.09359 0.939402 2.52798
-1.47905 1.44303 3.43453
-1.12644 0.972966 3.40204
-1.42553 1.58939 -1.93299
-1.06698 1.55126 -2.3653
-1.43222 1.67264 -0.960303
-1.06543 1.61682 -1.49715
-1.44077 1.76299 0.115094
-1.07861 1.72232 -0.419986
-1.44215 1.82677 1.19046
-1.08551 1.80398 0.652878
-1.44867 1.86627 2.16303
-1.08754 1.85161 1.72992
-1.46666 1.89722 3.03275
-1.10178 1.88199 2.59779
-1.12242 1.91289 3.4696
-0.70795 -0.105311 -2.13292
-0.713708 0.011844 -2.5514
0.00152465 -0.1259 -2.56808
-0.723778 -0.0922486 -1.14737
0.015204 -0.0844308 -1.69652
-0.749635 -0.0865805 -0.0462169
0.010897 -0.099637 -0.595884
-0.75511 -0.0513607 1.05495
0.00591562 -0.0719239 0.508308
-0.758578 -0.0130036 2.04056
0.00553161 -0.0290356 1.60893
-0.766034 0.0203519 2.9112
-0.766934 0.159344 2.48588
-0.0211936 0.00383057 2.48035
-0.772816 0.192736 3.35588
-0.0390347 0.0375666 3.34953
-0.712195 0.407432 -2.49661
-0.00930771 0.1499 -2.53367
-0.773716 0.331728 2.93056
-0.757142 0.627023 2.51238
-0.0376679 0.315306 2.49944
-0.774229 0.660445 3.38468
-0.0509165 0.348557 3.36938
-0.708745 1.1054 -2.41139
-0.0111814 0.665248 -2.45875
-0.757656 0.955741 2.9665
-0.745383 1.41057 2.56403
-0.046838 0.938769 2.53308
-0.769816 1.44282 3.4371
-0.0610451 0.972812 3.40703
-0.706882 1.57869 -1.92946
0.00365076 1.54608 -2.36259
-0.711819 1.66651 -0.956835
0.00845398 1.61212 -1.49413
-0.72335 1.7633 0.117798
-6.41187e-05 1.72193 -0.416752
-0.730903 1.82882 1.19234
-0.0154903 1.8059 0.656234
-0.740647 1.86733 2.16468
-0.0294119 1.8528 1.73347
-0.757543 1.89766 3.03463
-0.0429465 1.88262 2.60159
-0.0572757 1.91339 3.4736
0.724678 -0.105019 -2.13168
0.705925 0.0121557 -2.55035
1.07545 -0.127606 -2.56643
0.749879 -0.0918192 -1.14503
1.09496 -0.087146 -1.69462
0.766448 -0.0849804 -0.0413583
1.13203 -0.0949683 -0.59348
0.766557 -0.0495987 1.06229
1.13746 -0.0684932 0.511584
0.742916 -0.0122013 2.04872
1.13148 -0.028061 1.61277
0.705806 0.0210453 2.91869
0.708072 0.159793 2.49391
1.08876 0.00471201 2.48472
0.682865 0.193388 3.36304
1.05854 0.0386749 3.35403
0.691706 0.407715 -2.4958
1.05654 0.150416 -2.53266
0.685131 0.332135 2.93826
0.672637 0.627051 2.52013
1.06473 0.315828 2.50425
0.662267 0.660924 3.39173
1.04041 0.349519 3.37415
0.701214 1.10593 -2.40995
1.04439 0.67408 -2.45901
0.649773 0.95584 2.9736
0.655599 1.41082 2.57063
1.01283 0.939564 2.53863
0.651495 1.44338 3.44353
1.0123 0.973705 3.41218
0.718987 1.57951 -1.92726
1.07283 1.55243 -2.36202
0.720209 1.66754 -0.95405
1.07935 1.61818 -1.49351
0.707795 1.76452 0.121685
1.07761 1.72408 -0.41501
0.686 1.82987 1.19736
1.0569 1.80583 0.659651
0.668289 1.86809 2.17038
1.03198 1.85296 1.73812
0.657321 1.89836 3.04056
1.019 1.8831 2.60653
1.0108 1.91403 3.47847
1.44574 -0.109733 -2.12937
1.42607 0.0106538 -2.54874
1.47711 -0.0902951 -1.14307
1.44302 0.0581453 -1.67771
1.50304 -0.0784812 -0.0405378
1.49365 0.0621715 -0.578747
1.50239 -0.0469555 1.06206
1.50073 0.0900044 0.523329
1.47733 -0.0111477 2.04877
1.4875 0.12813 1.62249
1.44149 0.0223416 2.92007
1.44542 0.160747 2.49507
1.41609 0.194807 3.36514
1.42335 0.178532 -2.09709
1.40922 0.41678 -2.49587
1.45956 0.210612 -1.11339
1.41884 0.471864 -1.62557
1.49134 0.230657 -0.0148798
1.47132 0.522068 -0.534125
1.48584 0.26509 1.08376
1.46484 0.563113 0.558087
1.4556 0.300024 2.06879
1.43239 0.596448 1.64981
1.42002 0.333212 2.94015
1.40493 0.62834 2.52276
1.39045 0.6623 3.3946
1.40471 0.710112 -2.02435
1.416 1.12058 -2.41108
1.4306 0.78332 -1.0463
[...]
POINT_DATA 29498
VECTORS point_vectors float
-1.08433 -4.80708 8.50511
0.402067 0.333511 2.66058
-1.41108 1.12582 2.67331
-0.104021 -0.24925 0.361507
1.12572 -4.81366 8.5126
-0.493609 0.499667 2.93025
1.42378 1.1348 2.68884
0.0725547 -0.0982744 0.130083
0.044211 -0.0238307 0.379179
0.164711 -0.129319 1.51633
0 0 0
0 0 0
-0.0531458 -0.0262203 0.440092
-0.137249 -0.106038 1.22126
0 0 0
0 0 0
-0.709749 -0.378067 19.8227
-1.30396 -0.777369 20.4667
-0.485706 -0.432557 21.3274
0.0714891 -0.199072 21.3707
0.549455 -0.00343076 21.4022
0.866478 0.172575 21.126
0.984725 0.0726313 20.9784
-0.883947 -0.28955 19.681
-1.80478 -0.688274 20.4185
-0.582163 -0.493034 21.4192
0.0679199 -0.356723 21.4301
0.652293 -0.245807 21.4909
1.01049 -0.180185 21.1551
1.04848 -0.163634 20.9982
-1.04439 0.0977784 19.578
-2.20928 0.155789 20.3631
-1.18937 -0.423313 21.3907
-0.419514 -0.510944 21.5139
0.249572 -0.655111 21.5146
0.695767 -0.685433 21.24
0.899318 -0.697871 20.7411
-0.69498 0.447391 19.873
-1.04904 0.665574 20.3423
-0.991342 0.408894 21.0624
-0.478896 0.0343015 21.3278
-0.103565 -0.249912 21.2406
0.111461 -0.405292 21.0815
0.155414 -0.381977 20.849
-0.731257 -0.845601 19.1224
-1.94291 -3.57859 20.4997
-0.609848 -0.38836 21.6473
0.276811 0.236996 19.4922
0.932225 0.897467 19.141
1.38562 1.47809 19.5899
1.68084 1.27631 18.6585
-0.981377 -0.71832 18.6514
1.93946 0.939937 12.3135
2.36361 1.03074 15.8638
-1.26776 0.271361 18.0969
0.398884 -0.83305 8.06363
1.35035 -1.18144 13.0239
-0.653683 0.961013 19.3661
-1.20681 1.81198 19.9781
-1.57665 1.76557 21.209
-0.665465 0.443046 21.7191
-0.246633 -0.158836 21.4297
-0.0560822 -0.502575 21.3147
0.0244772 -0.63591 21.2192
0.735626 -0.83819 19.1289
2.00269 -3.46411 20.4753
0.603696 -0.36485 21.7338
-0.307183 0.233352 19.4448
-0.959921 0.886586 19.1723
-1.31025 1.48953 18.8037
-1.57821 1.46725 18.5524
0.969352 -0.734618 18.6227
-1.76097 1.0157 9.83422
-2.47161 1.41777 13.6109
1.26066 0.280001 18.0356
0.0332046 -0.948005 3.81236
-1.02964 -1.12531 8.40177
0.662741 0.957598 19.372
1.22594 1.78204 19.9916
1.57445 1.75644 21.2119
0.65271 0.469003 21.7314
0.254927 -0.125403 21.4458
0.0739815 -0.477268 21.3322
0.0169341 -0.63796 21.1615
0.710334 -0.386026 19.83
1.27704 -0.752604 20.4754
0.482615 -0.420425 21.3089
-0.0694589 -0.202405 21.3532
-0.545042 -0.0109542 21.3912
-0.899916 0.196551 21.1341
-1.0179 0.139293 20.9519
0.893771 -0.303849 19.6729
1.80794 -0.68967 20.4226
0.575203 -0.488549 21.4132
-0.0609009 -0.35048 21.419
-0.652832 -0.246699 21.485
-1.09071 -0.162013 21.2112
-1.11986 -0.198593 21.1728
1.0603 0.102451 19.5559
2.22179 0.156883 20.3679
1.17767 -0.427147 21.3915
0.40622 -0.508377 21.5048
-0.255361 -0.669731 21.5164
-0.703541 -0.76925 21.33
-0.91432 -0.67735 20.8985
0.693101 0.447049 19.88
1.03876 0.656057 20.3483
0.987384 0.408378 21.0632
0.482204 0.0430987 21.3341
0.11174 -0.250195 21.2519
-0.0995297 -0.418708 21.1061
-0.167515 -0.410008 20.8038
-1.03841 -0.0641394 1.11528
0.000143669 -0.0211337 0.0845693
-0.013688 -0.00273889 0.15042
-0.000813253 -0.0263382 0.0443716
-0.00206637 0.0301886 0.228056
0.0419013 -0.00616044 0.344489
-0.000138763 0.0543112 0.0973367
-0.282117 -0.180118 0.722855
0 0 0
0 0 0
1.04818 -0.0639523 1.12207
0.0134545 -0.00134512 0.156719
3.50216e-05 -0.0325423 0.0600268
-0.0237422 -0.017323 0.288262
0.263874 -0.168846 0.67893
0 0 0
0.108451 -0.0454298 2.01374
0 0 0
0 0 0
0.00523213 0.041495 0.192188
0.000444303 0.00255197 0.0454156
0 0 0
2.55295e-06 0.0027216 0.00484816
3.13618e-07 1.75006e-07 5.33183e-05
-0.100541 -0.0305229 1.75423
0 0 0
-0.00587614 0.0429458 0.196116
0 0 0
0 0 0
0.000282721 0.0151649 0.0797409
0 0 0
0.000153834 -0.00656036 0.161985
0 0 0
0 0 0
0 0 0
0 0 0
-0.000385612 0.00106453 0.00761299
5.19673e-06 0.000719669 0.0147329
-1.175e-05 -0.000196604 0.00277676
0 0 0
-0.000367775 0.0107167 0.0589218
0 0 0
-3.64165 -1.89733 20.2286
-2.94555 -5.5735 20.6665
-2.50127 -2.05841 17.4631
1.21245 -0.0931964 20.5528
1.1611 0.803242 14.1238
1.37996 0.720675 9.18551
-4.60422 0.99739 19.943
-3.46963 1.54431 16.1526
-2.5788 3.11971 19.6697
0.402279 -0.802029 18.7689
-0.598072 -0.854392 4.18244
-0.0825341 -0.218839 17.2261
3.06124 -5.48488 20.582
2.50274 -2.11342 17.408
3.64839 -1.89469 20.2444
-1.20385 0.810166 14.2943
-1.16672 0.681434 7.56517
-1.21942 -0.0989362 20.6027
3.46795 1.58183 16.0525
2.58689 3.07258 19.6855
4.61108 0.972889 19.9686
0.965838 -0.836189 2.00684
0.0194553 -0.165078 16.2774
-0.410903 -0.798131 18.5916
-0.175203 -0.582946 21.6845
-0.313763 0.389995 14.459
0.451047 -0.357148 20.7555
0.894387 0.012136 12.8839
-1.94091 -1.20022 21.5621
-4.20317 1.93571 21.4914
-0.60471 -0.90738 20.1756
-0.887955 0.2298 19.3538
0.331716 0.416604 14.5816
0.159188 -0.566982 21.6114
-0.931785 -0.0289498 12.8942
-0.451772 -0.369247 20.7634
4.19328 1.93695 21.5036
1.94002 -1.21927 21.5106
0.836701 0.247791 18.9723
0.59534 -0.897806 20.1652
-1.04969 -0.595478 19.991
-0.798798 -0.348504 19.7422
-0.791552 -0.588421 19.5116
-0.981811 -0.679265 21.1216
-1.57144 -0.774715 20.4459
-1.9022 -1.75481 20.3906
-0.16008 -0.285808 21.3613
-0.546103 -0.459343 21.3747
-0.416758 -0.45762 21.6936
0.292519 -0.116177 21.4081
0.0732386 -0.274566 21.4029
0.252699 -0.082416 21.4758
0.763513 0.077744 21.284
0.617522 -0.102778 21.4428
0.87882 0.286757 21.4657
1.02342 0.135595 21.0144
0.963684 -0.00765801 21.13
1.29542 0.564016 21.0747
1.03045 0.0271258 20.9328
1.32822 0.558161 20.8865
-1.38624 -0.487703 19.8478
-0.987256 -0.175897 19.6146
-0.997612 -0.460492 19.2849
-1.29405 -0.652711 21.2537
-2.14617 -0.339335 20.3896
-0.189564 -0.412258 21.4177
-0.808504 -0.561155 21.4457
0.287147 -0.321079 21.4924
-0.124956 -0.528304 21.5034
0.881184 -0.191689 21.3711
0.547434 -0.520451 21.5515
1.17275 -0.113514 21.0344
0.886763 -0.501614 21.2168
1.76712 0.0697012 20.5369
0.975245 -0.466447 21.0907
1.70683 0.0535287 20.0349
-1.68909 0.151916 19.7244
-0.917332 0.349289 19.7051
-1.255 0.133829 19.0038
-1.76716 -0.174828 21.2072
-1.61776 0.585702 20.328
-0.772653 -0.516417 21.4936
-1.30542 0.0946598 21.2217
-0.12612 -0.527442 21.5627
-0.568689 -0.2014 21.4628
0.478543 -0.678885 21.4047
-0.0436883 -0.445095 21.3836
0.809922 -0.754004 21.1769
0.263822 -0.581431 21.2011
0.834756 -1.04702 20.5157
0.367711 -0.57139 21.0683
0.965766 -0.992917 20.5148
-0.904531 0.605773 20.0549
-0.761846 0.693901 19.6454
-1.09227 0.578112 20.7319
-1.2766 1.16538 20.1816
-0.745052 0.215863 21.2593
-1.31415 0.85771 21.1356
-0.270608 -0.126625 21.3199
-0.603365 0.176927 21.5152
0.0112089 -0.333513 21.2167
-0.170922 -0.244844 21.3647
0.223883 -0.483439 21.0703
0.0580971 -0.484304 21.1384
0.182203 -0.590143 21.0404
-1.40008 -1.98109 18.9462
-0.836893 -0.804342 18.9186
-0.00146501 -1.1543 18.7002
-1.16688 -1.66361 22.225
0.0422914 -5.05787 20.914
-0.203464 0.0135953 20.4237
-0.00533836 -0.750929 20.4267
0.65302 0.433611 19.1182
0.00503842 0.132604 16.5749
1.13781 1.30911 19.381
-0.0132626 0.709759 15.3817
1.57809 1.52172 19.439
1.77022 1.35095 16.1777
0.00804823 1.40935 16.1308
2.1473 1.39106 17.4017
0.0877829 2.06473 16.8514
-1.22642 -0.337536 18.2053
-0.0192201 -1.02443 17.8941
2.29325 1.06847 14.3147
1.29224 -0.4452 7.54358
0.0120057 0.51477 3.55935
2.35297 -0.435302 12.1876
0.120218 2.14166 7.21132
-1.00823 0.9281 18.7519
-0.0265884 0.461127 16.9955
0.846059 -1.01766 9.98336
0.121132 -0.826494 18.7075
0.089683 1.43626 -4.75615
0.39449 -1.1582 19.2322
0.380564 1.9304 -5.33558
-0.934314 1.47206 19.5406
0.00434852 1.34347 19.0912
-1.46897 1.86351 20.5014
0.0179529 2.63948 19.6768
-1.14579 1.06346 21.7529
0.00133596 3.49635 21.143
-0.39223 0.0631325 21.5448
-0.0236961 0.979217 21.9905
-0.159986 -0.320793 21.3546
-0.0289109 0.211724 21.6452
0.0445545 -0.640507 21.202
-0.0319183 -0.263334 21.4971
-0.0262312 -0.543022 21.446
1.41218 -1.94637 18.9689
0.832462 -0.81671 18.8969
0.79657 -0.584265 19.5139
1.15289 -1.59192 22.1362
1.88598 -1.66464 20.3934
0.229388 0.00885998 20.5078
0.423291 -0.45169 21.6702
-0.681288 0.408265 19.1855
-0.251667 -0.0972596 21.5018
-1.13171 1.29044 19.2507
-0.880069 0.265665 21.4912
-1.48162 1.6312 18.9479
-1.66824 1.47195 15.0098
-1.3373 0.626965 21.032
-2.00384 1.58338 16.9628
-1.43966 0.682726 20.8728
1.20744 -0.338218 18.1636
1.00183 -0.466889 19.2607
-2.23533 1.29481 12.2346
-1.03923 -0.403308 4.39044
-1.90585 0.169815 19.9611
-2.47452 -0.0248637 9.82396
-1.90768 0.312696 19.1784
1.00583 0.935041 18.7473
1.26845 0.145184 18.9608
-0.650263 -1.16747 6.01298
-0.109958 -0.808478 17.4729
-0.887459 -1.01759 19.1736
-0.351637 -1.12223 18.5464
-1.12138 -1.16376 19.0632
0.943705 1.44804 19.556
0.772396 0.689379 19.6522
1.47037 1.83787 20.5098
1.276 1.14567 20.1955
1.14067 1.08179 21.7676
1.3126 0.85156 21.14
0.385308 0.0830544 21.5667
0.610883 0.191238 21.5249
0.174771 -0.295301 21.3717
0.186635 -0.232019 21.3706
-0.0152311 -0.613924 21.1856
-0.036454 -0.511966 21.1631
-0.133346 -0.618238 21.2225
1.04345 -0.575594 19.9971
0.808548 -0.35866 19.7402
0.965416 -0.649235 21.111
1.55067 -0.761983 20.4511
0.159715 -0.285513 21.3545
0.544327 -0.452242 21.3622
-0.291823 -0.120611 21.4003
-0.0698267 -0.272202 21.3852
-0.776135 0.0822336 21.2823
-0.616537 -0.108754 21.4337
-1.08004 0.152017 21.0391
-1.02746 0.00230683 21.1545
-1.0934 0.00141299 21.0714
1.41063 -0.504435 19.8383
1.01203 -0.176051 19.5915
1.28801 -0.649624 21.2546
2.16343 -0.336513 20.3951
0.185662 -0.40304 21.408
0.802086 -0.562424 21.4438
-0.28038 -0.321989 21.4868
0.126118 -0.524545 21.4927
-0.918624 -0.191398 21.3713
-0.557328 -0.526558 21.5502
-1.27143 -0.0948759 21.0165
-0.970948 -0.589311 21.2872
-1.06919 -0.546963 21.2132
1.70919 0.158612 19.7065
0.922006 0.364906 19.6941
1.76091 -0.181182 21.2135
1.6104 0.582144 20.3344
0.759239 -0.517999 21.4909
1.29961 0.0948375 21.2243
0.12013 -0.532163 21.5661
0.570059 -0.199488 21.4675
-0.480787 -0.726575 21.421
0.0556352 -0.454171 21.3991
-0.86593 -0.820128 21.0314
-0.264126 -0.640209 21.2477
-0.386179 -0.63213 21.0664
0.898882 0.601493 20.0602
1.08737 0.571993 20.7339
0.746839 0.222705 21.2638
0.275374 -0.120089 21.3305
-0.0022672 -0.341571 21.2374
-0.18445 -0.482987 21.0199
-1.21965 -0.559355 19.9072
-1.86213 -2.13285 18.3166
-1.37735 -1.14717 19.5715
-2.12284 -1.03076 19.0489
-0.900153 -0.563245 19.4066
-2.59721 -1.94689 20.3635
-1.15759 -0.685621 21.1977
-1.00591 -0.932536 18.3844
-1.18306 -1.16926 21.61
-1.66979 -1.25724 22.2262
-0.307775 -0.463132 21.8064
-0.173286 -0.351145 21.3912
0.220972 0.130971 12.9749
-0.00838501 -0.18879 21.5178
0.227811 -0.430604 21.128
0.371072 -0.191792 21.361
0.308041 -0.213734 21.4529
1.23162 0.121056 13.0902
0.517549 0.017894 21.4772
0.578468 -0.374561 20.5841
1.09604 0.140247 21.2262
0.828383 -0.0403831 21.3397
1.50181 1.18413 14.9871
1.11091 0.492247 21.2836
1.57386 0.0127517 20.5267
1.60542 0.375441 20.8571
1.13576 0.0283602 21.0758
2.01225 1.44492 16.9286
1.3334 0.527313 20.9193
1.8954 0.0908717 20.2662
1.49843 0.412667 20.4557
-1.63118 -0.233441 19.7393
-3.42503 -0.687683 16.0429
-2.65433 0.474552 18.7246
-1.19595 -0.20632 19.065
-4.76076 -0.639156 20.0006
-1.56739 -0.487196 21.3116
-2.9814 -0.424068 21.9494
-0.381375 -1.22389 20.7812
-0.397942 -0.575942 21.4853
-1.21929 -1.23761 20.8794
0.23796 -0.734177 19.0736
0.129964 -0.506218 21.561
-0.209656 -0.498178 19.3601
1.07443 -0.438186 18.5385
0.774101 -0.519678 21.4108
0.210407 -1.12942 3.56276
0.507096 -0.986803 19.686
1.59845 -0.613812 19.6968
1.04519 -0.547343 21.0244
1.99622 -0.370705 9.98695
1.03529 -1.00675 20.4553
1.67965 -0.454611 19.4846
-1.32661 0.532236 19.8902
-1.84252 2.10692 18.5791
-1.03428 0.981589 19.8124
-1.05303 0.597521 19.3016
-2.33573 1.43215 20.0986
-1.55968 0.365119 20.8873
-3.03582 2.26556 20.5099
-1.39266 1.07862 20.6772
-2.20022 0.403442 21.4235
-0.936856 -0.0893477 21.4201
-2.45959 0.52182 21.6306
-0.981047 0.5021 21.4592
-0.910703 -0.150586 21.753
-0.272197 -0.311003 21.4483
-0.130302 0.0760407 17.7836
-0.343787 -0.0588872 21.4319
-0.248727 -0.537881 21.5463
0.123417 -0.510015 21.3014
-0.0638916 -0.461929 18.0502
-0.0547428 -0.364603 21.2842
0.172984 -0.782495 21.3838
0.396282 -0.633491 21.0296
0.326065 -1.0737 19.0211
0.165839 -0.564489 20.8468
0.411257 -0.927027 21.0421
1.86803 -2.1262 18.3238
0.0154018 -3.0424 18.2623
-0.0168866 -3.80422 15.2714
-0.0127862 -1.13608 18.3419
0.0263765 -7.32696 22.4289
1.00779 -0.935489 18.5823
0.0194227 -2.31976 22.1553
-0.0233095 0.00834554 10.3326
-0.157054 0.166349 13.1027
-0.0172786 -0.195525 18.1089
0.0259656 0.217951 8.25777
-1.27265 0.0173623 13.1784
0.00971951 0.396906 15.7974
-0.0439494 0.563802 8.14918
-1.41439 1.21873 14.3419
-0.0203416 1.04538 15.7796
-0.0461571 -0.282323 2.22229
0.0139594 1.04782 9.41404
-1.93867 1.63542 15.8893
0.0337897 1.74181 16.304
0.131093 1.27309 4.953
0.100341 2.42503 12.2133
3.43064 -0.712601 15.9248
-0.0350581 3.05652 13.0004
-0.0235066 -0.459604 17.1875
0.0819203 -1.12857 2.52288
-0.058943 0.433265 -3.53594
0.108171 0.544073 -1.91433
-1.96213 -0.179692 6.89223
0.102061 2.17869 -5.45111
0.359652 1.35233 0.0284298
1.84288 2.10574 18.5871
0.00953989 2.08234 19.2203
-0.00581534 1.42795 18.0684
0.0187247 4.85968 19.1317
3.03566 2.24001 20.523
0.0140233 3.01158 20.1121
0.00296137 7.02481 19.0889
2.42035 0.538021 21.4081
-0.0224273 2.16377 22.1917
0.00181846 0.417448 11.4747
0.0385214 0.115005 17.1469
-0.0252595 0.407061 21.763
-0.103553 0.458841 4.42981
0.0234509 -0.399542 17.0014
-0.0371509 -0.000524987 21.6705
-0.202758 -0.0865754 6.03845
-0.280102 -1.06938 17.9767
-0.0240647 -0.475663 21.033
0.00237344 -0.744763 9.82492
1.22789 -0.56377 19.912
1.37843 -1.12261 19.5904
2.13801 -1.04657 19.0265
0.90748 -0.568557 19.3925
2.5409 -1.8719 20.3812
1.1443 -0.668868 21.1888
1.18209 -1.12842 21.5779
1.66472 -1.23881 22.2159
0.316092 -0.459319 21.7865
0.172107 -0.34581 21.3771
0.0155984 -0.20577 21.5395
-0.23397 -0.428469 21.0787
-0.367984 -0.201584 21.3716
-0.301557 -0.215625 21.4426
-0.509432 -0.00379572 21.5116
-0.556683 -0.389276 20.6265
-1.09572 0.12861 21.2513
-0.845191 -0.0346794 21.3418
-1.12518 0.510669 21.269
-1.62918 0.0411265 20.2635
-1.70656 0.455535 20.553
-1.22139 0.0416496 21.0609
-1.40593 0.646438 20.8397
-2.06721 0.215725 19.8534
-1.68313 0.647581 19.6928
1.66448 -0.225466 19.7241
2.68817 0.488823 18.6842
1.21044 -0.221087 19.0224
4.7831 -0.642343 20.0255
1.56358 -0.487612 21.3136
2.9772 -0.433085 21.9455
0.367157 -1.21567 20.7587
0.3964 -0.573138 21.4783
1.19811 -1.22932 20.8469
-0.237712 -0.728432 19.0787
-0.130052 -0.505997 21.5692
0.204848 -0.490927 19.3622
-1.10396 -0.44663 18.5103
-0.820957 -0.553241 21.4154
-0.491337 -0.942691 18.3359
-1.67856 -0.604976 18.4989
-1.11972 -0.632169 21.0615
-1.17369 -1.02401 19.2436
-1.91144 -0.55389 17.3253
1.32552 0.539147 19.8925
1.0389 0.971224 19.8243
1.05778 0.608254 19.2967
2.32211 1.40892 20.1093
1.55274 0.363458 20.8912
1.389 1.06205 20.6844
2.19265 0.397073 21.4289
0.935576 -0.0876975 21.4237
0.985059 0.51211 21.4655
0.915757 -0.144047 21.7623
0.276875 -0.309879 21.4578
0.352577 -0.0472532 21.4439
0.275296 -0.54574 21.5474
-0.104314 -0.528734 21.3276
0.0730886 -0.370353 21.2964
-0.136036 -0.837794 21.356
-0.374826 -0.684331 21.0873
-0.172297 -0.650799 20.817
-0.420296 -1.07054 20.5059
-1.69462 -1.1664 19.3816
-1.39356 -1.23257 21.8684
0.11866 -0.264838 21.4957
0.614032 -0.149489 21.3032
1.42535 0.29778 20.9903
1.60114 0.37396 20.6789
-2.60356 -0.348969 18.7097
-2.14142 -1.11314 22.4332
0.0323114 -1.04611 19.649
0.137684 -0.499497 18.9785
1.33132 -0.616012 19.0492
1.70612 -0.591531 19.9836
-1.7357 1.08797 19.3889
-2.3086 0.904331 20.913
-1.54615 0.03603 21.796
-0.499889 -0.317753 21.667
-0.0619669 -0.673924 21.4468
0.325199 -0.861635 21.3089
0.00613986 -3.61161 17.1298
0.00423917 -1.2355 14.1233
-0.0196018 0.0826958 8.64819
0.0158257 0.314192 7.78064
-0.0271384 0.530802 8.1908
0.0326375 1.59925 10.2927
-0.0263575 -1.13887 12.5658
-0.0329917 -0.627644 -0.950472
0.339895 1.33033 -1.31172
0.0018509 3.34234 17.6522
0.0157302 4.46676 19.3908
-0.0124746 1.63744 14.3841
-0.0104176 -0.0775273 9.34249
-0.103703 0.327633 5.95377
-0.211771 0.0439509 7.28859
1.69733 -1.16142 19.383
1.38966 -1.19836 21.8409
-0.108679 -0.27004 21.5207
-0.604035 -0.168718 21.3583
-1.46046 0.334131 20.8248
-1.75149 0.479674 20.3215
2.64102 -0.362898 18.6738
2.13014 -1.11499 22.4337
-0.0461646 -1.04564 19.6773
-0.120795 -0.517916 19.1389
-1.37992 -0.552418 18.1072
-1.87246 -0.582241 18.9679
1.73977 1.09394 19.3914
2.29586 0.894023 20.9161
1.5495 0.0356486 21.8026
0.513123 -0.313079 21.6804
0.103906 -0.665558 21.4464
-0.291715 -0.937814 21.253
-0.318154 -0.126067 0.322277
-0.0546036 -0.172 0.931123
-0.0792607 -0.0390496 0.688569
0.0748588 -0.00315542 0.209335
-0.00163009 0.0121033 0.0711018
0.0127728 0.0217238 0.581983
-1.21033 0.357071 1.60608
-0.0367703 0.215479 0.322076
-0.370899 0.255624 1.78259
0.0126069 -0.0681176 0.0884101
0 0 0
0.00259196 -0.00341732 0.0510239
0.0531396 -0.173031 0.932667
0.342146 -0.135706 0.343657
0.0735379 -0.0375943 0.650315
0.000621355 0.00564267 0.0265395
-0.0353363 -0.00436263 0.0587358
-0.0430712 0.0214816 0.875006
0.0370181 0.216459 0.323505
1.2029 0.354879 1.59338
0.37748 0.249199 1.79575
0 0 0
-0.0137005 -0.105253 0.134013
-0.0017968 -0.00279715 0.0432051
0 0 0
0.112491 -0.0263553 1.0908
0.000177138 -0.000181331 0.00155332
0 0 0
0.00803663 -0.0341277 0.147218
0.171662 -0.0556516 2.44175
0.000336376 0.00102951 0.028925
0 0 0
-0.49937 -0.463721 1.07768
1.10567e-05 -0.000407267 0.0299178
0 0 0
-0.0695376 0.0574252 0.128248
0 0 0
0.00780324 0.0423281 0.125135
0 0 0
0.0486339 0.0348597 0.297916
0.017116 -0.0108929 0.0616002
0 0 0
-0.0901717 -0.0351815 1.1999
-0.000185529 -0.00025252 0.00251898
0 0 0
0 0 0
-0.21851 -0.148948 2.78698
-0.000125252 0.000229939 0.00908753
0.503896 -0.473269 1.10564
0.0661291 0.0542603 0.120785
-4.19823e-05 -0.000549188 0.0250647
0 0 0
0 0 0
-0.0488299 0.0325337 0.348766
-0.00690047 0.0375314 0.110012
0 0 0
0 0 0
-0.168695 -0.0482888 0.114716
-0.000767243 -0.0543594 0.321827
0 0 0
-0.00903718 0.0300821 0.462459
0 0 0
0.0062792 0.0107822 0.145956
0 0 0
0 0 0
-4.67855e-05 -0.0016617 -0.000963402
0 0 0
8.81372e-05 1.64554e-05 0.000837568
-0.00785885 1.29379 0.814266
4.12944e-08 -5.93803e-05 -0.000228289
-0.028147 -0.0584422 0.55058
0 0 0
0 0 0
0 0 0
0 0 0
0.00151628 -0.00496307 0.0448292
0.175541 -0.0502566 0.126314
0 0 0
0 0 0
0.0135294 0.0272352 0.646024
0 0 0
0 0 0
0 0 0
-0.00016812 -0.00024746 0.0164962
0 0 0
0.0274137 -0.0559499 0.55108
-0.00351909 -0.00877496 0.0822216
0 0 0
0.000229053 0.00236087 0.0286557
0 0 0
0 0 0
0.000674214 0.0101951 0.0664251
0 0 0
-0.000281065 0.00207668 0.0490029
0.00138082 0.0135138 0.0583411
0.00224853 0.0294557 0.0987878
5.07982e-05 8.18674e-05 0.00373263
0 0 0
0 0 0
-0.00170234 0.0664141 0.891786
0 0 0
0.00410097 0.53328 1.57659
1.80968e-05 0.000161042 0.00438913
-5.15346e-05 -0.000290228 0.0190652
0 0 0
-0.000194028 0.00159676 0.0201953
0 0 0
-0.00113485 0.012522 0.084459
-0.00243823 0.0219038 0.0970921
-0.00154616 0.0198788 0.0598738
0.00162429 0.0594345 0.784996
0 0 0
-0.130559 -0.0946462 0.917181
-1.23752 -0.373801 3.68199
0.0587382 -0.00884745 0.176879
-0.000106346 -0.0302011 0.0654186
0.000880612 0.00202245 0.0368728
0.000236082 0.000730976 0.0043604
0.000387366 0.00212631 0.0323069
0.00169042 0.00524304 0.0163866
6.2812e-18 -8.53398e-19 -8.34488e-17
0.0101311 0.0283715 0.073837
0 0 0
0 0 0
0 0 0
0 0 0
0 0 0
0 0 0
0 0 0
0 0 0
0 0 0
0 0 0
8.05135e-19 1.42082e-18 1.154e-17
0 0 0
0.00111869 0.00128279 0.0139137
0 0 0
0 0 0
0 0 0
-6.80628e-17 1.08923e-16 8.60399e-17
0 0 0
-0.000961847 -0.00307108 -0.00165071
0.00118363 -0.00368846 -0.00215552
-0.0218028 -0.020468 0.0012241
0.0195066 -0.0224066 0.00209845
-0.0108607 0.0100197 0.0523168
0.010328 0.00958483 0.0498489
-0.000590662 6.78947e-05 0.000265585
0 0 0
-0.79812 0.940369 2.71576
0.868178 0.999854 2.91805
0.0405119 0.0401853 0.430186
-0.0398141 0.0400552 0.422785
0.00201707 -0.000197963 0.0229404
-0.00291047 -0.000273517 0.0316488
-0.00285599 0.000765845 -0.0014084
0.00261168 0.000790629 -0.00139727
0.237603 -0.174757 1.55275
1.40672 -0.461782 4.13077