# vtk DataFile Version 2.0
tri_press
ASCII
DATASET UNSTRUCTURED_GRID
POINTS 3682 float
-0.701502 0.215 -1.665
-0.770372 0.285 1.625
-0.678551 0.695 -1.585
-0.655 0.906378 1.655
0.701357 0.215 -1.665
0.772695 0.285 1.635
0.678143 0.695 -1.585
0.645 0.905 1.66226
-0.765439 0.197353 -0.568333
-0.769945 0.239137 0.528333
-0.730032 0.824791 -0.505
-0.707072 0.880141 0.575
0.766039 0.197431 -0.565
0.767787 0.242795 0.535
0.728297 0.826201 -0.50258
0.703343 0.882295 0.57984
-1.43159 -0.130438 -2.56862
-1.43787 -0.0908707 -1.69688
-1.48142 -0.0924048 -0.599777
-1.49154 -0.0702714 0.500167
-1.48558 -0.0299336 1.59751
-1.48743 0.00362867 2.47044
-1.49264 0.0377742 3.34121
-1.42887 0.14998 -2.53461
-1.43215 0.205497 -1.66462
-1.4859 0.213367 -0.571138
-1.48665 0.242114 0.523274
-1.47312 0.282122 1.61706
-1.4827 0.315117 2.4899
-1.49281 0.348838 3.36138
-1.41944 0.681846 -2.46211
-1.41231 0.736451 -1.59134
-1.45584 0.826908 -0.509241
-1.43555 0.876555 0.571094
-1.39681 0.90845 1.65344
-1.44427 0.939938 2.52654
-1.48048 0.973316 3.40048
-1.42551 1.55681 -2.36697
-1.42556 1.62197 -1.49901
-1.43889 1.7233 -0.421593
-1.44266 1.80269 0.651781
-1.44165 1.85085 1.72913
-1.4557 1.8817 2.59693
-1.47761 1.91275 3.46857
-0.712058 -0.12608 -2.56871
-0.703841 -0.0845434 -1.69713
-0.743715 -0.0999538 -0.597619
-0.755556 -0.0732072 0.505186
-0.754663 -0.0295142 1.60471
-0.762492 0.00350691 2.47641
-0.769576 0.0371968 3.34598
-0.715357 0.149768 -2.53408
-0.771376 0.315181 2.49535
-0.776055 0.348275 3.36578
-0.709033 0.665096 -2.45915
-0.742909 0.938866 2.52942
-0.772402 0.972615 3.40359
-0.708457 1.5457 -2.36363
-0.705308 1.61167 -1.49529
-0.718331 1.72134 -0.418378
-0.728368 1.80527 0.653974
-0.733437 1.85237 1.73071
-0.747857 1.88228 2.59864
-0.767229 1.91303 3.47062
0.715108 -0.125721 -2.56745
0.734249 -0.0843182 -1.69591
0.765509 -0.0993203 -0.594148
0.767387 -0.0706405 0.511431
0.765727 -0.0285569 1.61315
0.720104 0.00415424 2.48429
0.691507 0.0379364 3.35309
0.696742 0.150032 -2.53325
0.69604 0.315431 2.50352
0.674222 0.348839 3.37299
0.686671 0.665399 -2.45836
0.649233 0.938671 2.53673
0.650312 0.97301 3.41048
0.715758 1.54647 -2.36154
0.722216 1.61256 -1.49297
0.718203 1.72253 -0.415125
0.697388 1.80652 0.658494
0.674613 1.85322 1.73623
0.661964 1.88296 2.60453
0.652678 1.91375 3.47659
1.4358 -0.129492 -2.56541
1.45568 -0.0899739 -1.69332
1.49855 -0.0906164 -0.592813
1.50754 -0.066346 0.511737
1.49724 -0.0275651 1.61239
1.45741 0.00526977 2.48516
1.42557 0.0394134 3.35498
1.41634 0.1508 -2.53207
1.43036 0.206265 -1.6621
1.48876 0.214959 -0.56468
1.49391 0.246355 0.534921
1.47776 0.283824 1.6326
1.43343 0.316224 2.50499
1.40661 0.3502 3.37531
1.4021 0.682761 -2.45967
1.40732 0.737463 -1.58903
1.45388 0.829177 -0.503569
1.43577 0.879871 0.581254
1.38701 0.909071 1.66702
1.37643 0.940457 2.54052
1.37429 0.9744 3.41389
1.42991 1.5584 -2.3625
1.43648 1.6238 -1.49405
1.43702 1.72563 -0.414894
1.41642 1.80515 0.660808
1.38935 1.8527 1.74
1.37604 1.88324 2.60853
1.36893 1.9143 3.48035
-0.742305 0.455 -1.67728
-7.25091e-05 0.218031 -1.66197
-0.752434 0.187213 -1.11667
-0.752695 0.595689 1.68001
0.00116152 0.260008 1.65499
-0.768395 0.263832 1.07667
-0.000203997 0.743547 -1.63355
-0.74391 0.799513 -1.045
-0.005 0.925274 1.67822
-0.689584 0.901807 1.115
0.742115 0.455 -1.67736
0.752526 0.187388 -1.115
0.747411 0.595 1.68719
0.770023 0.264116 1.085
0.743069 0.80045 -1.04379
0.685042 0.904518 1.12105
-0.766265 0.219672 -0.02
-0.80149 0.511072 -0.536667
0.000300082 0.168891 -0.566667
-0.802863 0.559639 0.551667
-0.00107886 0.198425 0.531667
-0.717853 0.851766 0.035
-0.000867904 1.13109 -0.50379
-0.00186472 1.3255 0.57742
0.763903 0.223123 -0.015
0.800545 0.511816 -0.53379
0.800376 0.562545 0.55742
0.715564 0.853993 0.03863
-0.87376 0.483036 -1.08083
0.873776 0.483408 -1.0794
0.000113787 0.154166 -1.11583
-0.00053595 0.886615 -1.0444
-0.000138253 0.455 -1.8239
-0.805817 0.535355 0.00749999
0.803733 0.537181 0.011815
-0.00038939 0.189766 -0.0175
-0.00136631 1.31892 0.036815
-0.862737 0.577664 1.09583
0.867676 0.578773 1.10303
4.13262e-05 0.230798 1.08083
-0.00343236 1.30208 1.11803
-0.00191924 0.595344 1.79571
-0.717661 0.335 -1.6669
-0.350787 0.218256 -1.66174
-0.7353 0.192775 -1.39083
-0.791938 0.440344 1.68291
-0.384605 0.260889 1.65161
-0.767573 0.276227 1.35083
-0.699606 0.575 -1.62032
-0.339378 0.735246 -1.62525
-0.732 0.768027 -1.315
-0.705186 0.751033 1.66884
-0.33 0.921807 1.67259
-0.690419 0.922219 1.385
0.350642 0.218265 -1.66174
0.717393 0.335 -1.66684
0.73543 0.192705 -1.39
0.386928 0.256247 1.66125
0.786068 0.44 1.68711
0.771683 0.274234 1.36
0.33897 0.735081 -1.62508
0.699164 0.575 -1.62022
0.731611 0.76873 -1.3144
0.32 0.920248 1.67535
0.697835 0.75 1.67636
0.684875 0.924613 1.39166
-0.76184 0.18938 -0.8425
-0.761836 0.212528 -0.294167
-0.789902 0.350994 -0.5525
-0.380469 0.187323 -0.5675
-0.770228 0.250427 0.8025
-0.769381 0.228128 0.254167
-0.791277 0.396951 0.54
-0.398848 0.192109 0.53
-0.742045 0.817226 -0.775
-0.790967 0.680534 -0.520833
-0.724501 0.838837 -0.235
-0.427915 1.10287 -0.504395
-0.698572 0.891218 0.845
-0.774746 0.729779 0.563333
-0.713008 0.866499 0.305
-0.452364 1.29861 0.57621
0.77432 0.177371 -0.84
0.381088 0.187323 -0.565833
0.758019 0.217229 -0.29
0.789043 0.351748 -0.549395
0.767819 0.254542 0.81
0.397347 0.192625 0.533333
0.771105 0.227699 0.26
0.788388 0.400517 0.54621
0.740669 0.818311 -0.773185
0.426022 1.10326 -0.503185
0.789595 0.681595 -0.518185
0.72251 0.840676 -0.231975
0.694464 0.893679 0.850445
0.448199 1.29882 0.57863
0.771296 0.732139 0.56863
0.710083 0.868774 0.309235
-0.862212 0.469018 -1.37906
-0.371222 0.455 -1.81295
2.06388e-05 0.174648 -1.3889
-0.000105381 0.336516 -1.77159
-0.865267 0.335125 -1.09875
-0.37616 0.181639 -1.11625
-0.858725 0.586676 1.38792
-0.377307 0.595517 1.7889
0.000601421 0.244414 1.36791
-0.000378862 0.427676 1.78756
-0.834057 0.420748 1.08625
-0.384177 0.213669 1.07875
-0.000369974 0.843115 -1.33897
-0.000171125 0.599274 -1.78036
-0.894331 0.641275 -1.06292
-0.372223 0.8794 -1.0447
-0.00421618 1.15575 1.39812
-0.00345962 0.760309 1.76048
-0.764667 0.739736 1.10542
-0.346508 1.29052 1.11651
0.862211 0.469204 -1.37838
0.370988 0.455 -1.81255
0.865316 0.335398 -1.0972
0.37632 0.180774 -1.11542
0.859036 0.586886 1.39511
0.372746 0.595172 1.79043
0.842143 0.421444 1.09401
0.385032 0.225754 1.08292
0.894313 0.641929 -1.06159
0.371267 0.879403 -1.04409
0.760597 0.741645 1.11204
0.340805 1.29043 1.11954
-0.791555 0.374757 -0.00624999
-0.39201 0.187352 -0.01875
-0.816737 0.497054 -0.80875
-0.805717 0.523214 -0.264583
0.000206935 0.152945 -0.84125
-4.4654e-05 0.18404 -0.292083
-0.804401 0.547497 0.279583
-0.800255 0.568651 0.82375
-0.000734127 0.189161 0.257083
-0.000518769 0.221175 0.80625
-0.782784 0.704035 0.02125
-0.46111 1.28835 0.0359075
-0.000701927 0.957737 -0.774093
-0.00111711 1.29096 -0.233488
-0.00161551 1.32541 0.307118
-0.00264854 1.32214 0.847723
0.789803 0.377159 -0.00159249
0.391306 0.187347 -0.01625
0.813938 0.497612 -0.806593
0.804881 0.524498 -0.260988
0.802159 0.549863 0.284618
0.797147 0.570659 0.830223
0.780253 0.705889 0.0252225
0.458209 1.28868 0.0377225
-0.854642 0.335062 -1.38494
-0.848321 0.344669 -0.825625
-0.7985 0.654603 -0.791875
-0.880919 0.608137 -1.34703
0.854651 0.335199 -1.38419
0.882088 0.608464 -1.34639
0.797716 0.655469 -0.789889
0.84737 0.345011 -0.823296
-0.363474 0.197395 -1.38987
0.363481 0.197313 -1.38945
0.379745 0.184873 -0.840625
-0.379365 0.184904 -0.841875
-0.3558 0.840037 -1.32699
-0.368836 0.936681 -0.774546
0.36749 0.936973 -0.773639
0.355118 0.839966 -1.32668
-0.361004 0.335758 -1.76495
-0.3553 0.587137 -1.7501
0.354979 0.587137 -1.74978
0.360815 0.335758 -1.76341
-0.790271 0.363104 -0.279375
-0.792358 0.385383 0.266875
-0.779284 0.717167 0.292292
-0.787783 0.692738 -0.249792
0.789026 0.364652 -0.275494
0.785863 0.694212 -0.246481
0.776306 0.719279 0.296926
0.789799 0.388486 0.272309
-0.386671 0.186476 -0.293125
0.386459 0.186811 -0.291042
0.395881 0.186877 0.258542
-0.397041 0.186507 0.255625
-0.475548 1.25768 -0.234244
-0.458577 1.29716 0.306059
0.455033 1.2974 0.308176
0.47321 1.25816 -0.232731
-0.792473 0.410068 0.813125
-0.831967 0.430546 1.36938
-0.753328 0.745385 1.38646
-0.769971 0.729813 0.834375
0.789512 0.412057 0.820111
0.766322 0.732033 0.840334
0.749074 0.745823 1.39338
0.835534 0.430722 1.37755
-0.384844 0.209566 0.804375
0.384193 0.22287 0.808125
0.38598 0.240896 1.36396
-0.384391 0.226608 1.35937
-0.350488 1.30673 0.846361
-0.338254 1.14563 1.39156
0.330402 1.14372 1.39489
0.345772 1.30681 0.849084
-0.380956 0.43401 1.78908
0.379837 0.433838 1.78957
0.346373 0.755155 1.76797
-0.353654 0.755671 1.76724
-0.708141 0.275 -1.66451
-0.526145 0.211941 -1.66806
-0.724563 0.197726 -1.52792
-0.781524 0.362672 1.65432
-0.577489 0.260349 1.6509
-0.770987 0.278599 1.48792
-0.69243 0.635 -1.60601
-0.508964 0.723913 -1.61391
-0.714151 0.740389 -1.45
-0.68501 0.828706 1.66684
-0.4925 0.916561 1.66626
-0.679055 0.920644 1.52
0.526 0.211796 -1.6682
0.707895 0.275 -1.66444
0.724774 0.197472 -1.5275
0.579812 0.256188 1.66256
0.780187 0.3625 1.66186
0.775136 0.27667 1.4975
0.508556 0.723486 -1.61349
0.692012 0.635 -1.60597
0.713899 0.740887 -1.4497
0.4825 0.914365 1.67055
0.677214 0.8275 1.6751
0.672597 0.922466 1.52696
-0.760968 0.196037 -0.705417
-0.763249 0.205329 -0.43125
-0.777175 0.274421 -0.560417
-0.606179 0.125888 -0.567917
-0.769527 0.245341 0.665417
-0.770184 0.233112 0.39125
-0.783225 0.316737 0.534167
-0.606223 0.17197 0.529167
-0.738075 0.823045 -0.64
-0.76574 0.755283 -0.512917
-0.727065 0.831612 -0.37
-0.614474 1.03483 -0.504698
-0.702942 0.885799 0.71
-0.74651 0.807761 0.569167
-0.711379 0.874658 0.44
-0.596062 1.12206 0.575605
0.761641 0.19594 -0.7025
0.606796 0.125913 -0.565417
0.76395 0.205409 -0.4275
0.776748 0.274986 -0.557198
0.767221 0.24925 0.6725
0.60539 0.172064 0.534167
0.768252 0.236442 0.3975
0.780394 0.320503 0.540605
0.736402 0.824176 -0.637883
0.612777 1.03597 -0.502883
[...]
POINT_DATA 3682
SCALARS point_scalars float 1
LOOKUP_TABLE default
-65.3309
-55.0863
-29.4123
-37.8909
-65.7641
-56.5591
-29.5201
-37.4036
-45.8433
-34.9107
-60.6365
-42.7852
-45.487
-34.3142
-60.8688
-42.5761
-30.2905
-98.7401
-67.703
-34.3843
-50.9553
-51.8876
-40.3983
-24.8921
-98.7401
-64.8957
-32.6547
-50.8158
-48.9521
-40.1123
24.2261
-93.3354
-46.3782
-37.1395
-55.092
-42.4942
-39.0218
-30.3442
-78.919
-94.6142
-48.6855
-39.1598
-37.7713
-37.7713
-4.68713
-130.172
-52.6254
-46.7365
-49.1946
-41.1028
-41.1028
9.62558
-39.7615
-38.3919
146.395
-37.2891
-38.2002
18.9308
-50.4405
-107.88
-49.3107
-42.8707
-35.1261
-35.595
-7.88209
-124.463
-52.9727
-47.3448
-48.839
-41.1062
-38.8211
142.557
-38.9199
-37.9671
152.211
-36.845
-37.9493
19.2625
-50.3784
-108.701
-50.3728
-42.3764
-35.3816
-33.9495
-27.9175
-98.6986
-70.1872
-33.9648
-50.3791
-51.7366
-40.2625
-25.8435
-98.6986
-66.5797
-32.1451
-51.2493
-46.0438
-39.8955
26.2289
-96.201
-46.6822
-36.5155
-55.342
-42.0954
-39.0536
-30.583
-78.6709
-98.7423
-48.673
-38.6634
-37.4817
-37.4817
22.8563
-130.483
-58.5785
-41.4857
-44.9851
-40.3734
-16.0241
-66.9481
-28.8405
-40.8585
22.5602
-57.8809
-40.9946
-40.7232
-66.9181
-40.7801
-34.9269
-43.3004
-50.9121
-34.2345
-42.0344
-51.2179
12.0766
-57.7109
-35.2173
-43.3298
-33.7617
-51.1261
-77.5024
-76.6541
-70.1542
-1.93459
204.412
-38.0796
-38.0721
-41.7931
-93.9822
-40.715
-43.2263
-40.9338
-42.3672
-34.6272
8.48267
-158.472
-78.1682
-50.0991
-45.5819
-42.8783
-7.24296
-14.1643
-58.0642
-41.9177
-31.8739
-43.6723
-158.034
7.56817
-77.7852
-46.1924
-48.3767
-43.6016
-14.3881
-7.12717
-58.2021
-31.4315
-41.4866
-43.0149
-38.6801
-37.619
-42.5255
-50.4515
-31.4107
-35.7551
-32.483
-40.4599
-56.8816
-48.3589
-56.1914
-1.5023
-39.9896
-37.5692
-46.4282
-52.861
-35.975
-50.0582
-36.2581
-42.4679
-28.6723
-40.181
-34.482
-31.8703
-56.9601
-1.53101
-48.7016
-56.4853
-39.8301
-52.5661
-37.1549
-46.2915
-101.79
198.704
-80.6272
161.445
-71.4868
-65.2124
-49.4464
-36.4279
-41.8835
-38.9157
-42.6692
-39.6145
-30.8894
150.451
-81.618
-13.9965
-31.5787
-33.4634
-39.4438
-44.0268
-102.225
198.437
-70.7935
-65.3298
-50.3824
-36.1569
-43.674
-40.457
-81.6325
-14.0037
-40.2571
-43.7416
-35.1093
-40.6581
-56.0425
-39.434
-58.0921
-44.7237
-36.7635
-29.7428
-41.7355
-40.7947
-44.4924
-80.2581
26.6332
-104.772
-69.6818
-49.9988
-35.224
-41.3559
-56.2212
-39.5345
-36.5862
-28.7929
-44.4918
-80.2593
-102.684
-62.3623
-54.7292
-100.445
-98.5733
-100.557
-54.8185
-62.9134
-80.7633
-81.0111
-57.4648
-57.6535
-38.7157
13.0464
12.9576
-38.7717
135.666
141.169
141.22
135.698
-36.7319
-34.6061
-41.6241
-46.4181
-36.7138
-46.7937
-41.404
-34.4173
-43.4084
-42.9199
-42.8838
-41.3873
-104.013
-61.5647
-61.5363
-105.11
-26.5174
-47.2459
-49.2554
-35.5083
-24.6458
-35.0458
-49.122
-48.5106
-40.9952
-41.0062
-41.4407
-43.0121
-49.0282
-33.6595
-33.3577
-48.8992
-39.0864
-39.0291
-34.9938
-35.4085
-11.6544
-153.795
-110.91
-53.4662
-49.7429
-46.3477
-11.7316
-18.3871
-51.7529
-40.721
-33.7922
-40.6766
-153.947
-12.7614
-110.617
-49.3077
-53.1652
-46.1761
-17.5799
-11.5554
-51.977
-33.4044
-40.1068
-39.898
-64.6787
-40.1971
-43.1716
-48.4849
-33.5998
-35.2381
-32.9141
-38.0512
-62.5633
-53.5821
-58.3581
-74.2271
-41.1779
-40.5337
-44.5058
-47.6709
-63.6083
-48.1859
-40.5759
-42.9251
-32.7397
-37.4388
-35.1275
-32.1281
-62.6318
-74.7099
-53.6519
-58.5356
-40.8377
-47.4554
-40.2923
-44.3013
15.223
7.21934
-75.0464
160.5
-133.431
-133.788
-95.6672
42.3382
-68.5304
-52.4819
-67.3019
-61.5511
-47.0381
-42.2096
-50.9769
-37.2369
-45.2387
-45.2183
-42.6064
-41.0287
-41.4826
-45.4553
-41.8021
-38.6769
-19.9669
-19.2639
-35.2198
78.153
-67.469
-57.9763
-79.5895
-30.9496
-29.8633
-29.5156
-29.9003
-29.8189
-41.8067
-40.1935
-41.0803
-43.9682
14.2045
7.03257
-78.9689
155.762
-68.5976
-50.8801
-67.202
-61.504
-46.3095
-41.5941
-50.3715
-37.0421
-43.2181
-43.9181
-42.2752
-40.5728
-67.2863
-58.2357
-79.5076
-30.9071
-41.8567
-40.0553
-41.039
-43.6392
-35.1714
-35.0654
-34.3642
-36.7412
-42.6469
-44.9368
-47.9032
-40.7491
-50.5045
-50.3681
-60.3793
-47.1529
-32.9451
-35.7337
-35.5761
-32.3781
-41.5669
-41.5534
-42.0961
-41.1986
-54.0844
-48.6518
-47.9356
-64.2012
10.4353
10.5991
32.1326
-24.0777
-56.6296
-56.5451
-63.2798
-53.3653
-35.2783
-36.286
-34.7153
-35.4909
-42.6743
-45.02
-48.0128
-40.7858
-32.3931
-35.1881
-35.2663
-31.5677
-53.8147
-48.5637
-47.8901
-64.0472
-85.9611
-75.6324
-79.3169
-66.5942
-83.2426
-74.4181
-78.9297
-66.8897
-76.3581
-68.7309
-68.8527
-64.6019
-20.789
-4.90365
-4.86861
12.8169
203.715
178.91
187.524
203.706
-36.3918
-38.7113
-37.4774
-40.8146
-36.4271
-38.7388
-37.462
-40.767
-41.6473
-42.501
-41.6819
-41.9765
-91.3741
-115.411
-80.335
-91.3507
-48.3213
-44.5048
-33.6142
-23.961
-48.5961
-45.3996
-35.6501
-23.3788
-41.0257
-40.65
-40.9184
-40.2925
-36.6013
-42.8187
-42.6899
-46.6247
-35.1967
-38.809
-34.3373
-35.0634
-94.82
127.993
-101.285
55.6864
-96.8774
-78.1344
-49.5578
-39.3466
-44.6035
-40.8073
-46.2744
-41.0329
-29.9335
106.915
-43.6549
69.9476
-53.1696
-46.39
-45.6867
-36.9117
-31.8871
-33.2387
-45.9936
-36.888
-100.286
55.4196
-99.2313
128.27
-95.7861
-78.8207
-43.8015
-41.3787
-49.8573
-39.179
-47.567
-41.9911
-43.5367
69.6231
-31.0985
106.811
-53.0409
-46.4812
-31.572
-32.6166
-45.3639
-36.6228
-45.845
-36.4108
-64.5122
-45.6081
-36.2479
-39.3234
-49.5076
-38.7977
-55.6058
-46.1725
-25.6502
-40.403
-35.02
-37.5337
-33.8875
-30.4709
-43.2762
-41.0785
-57.2576
-12.1235
-50.1062
-47.2498
-51.139
-81.0032
17.7748
-45.2348
-37.8571
-45.1659
-40.8092
-37.1696
-44.1949
-53.4956
-57.2522
-51.2467
-66.2758
-45.1139
-54.8989
-45.8675
-36.0135
-38.6869
-49.5808
-38.7674
-23.6601
-40.2524
-42.7342
-41.2677
-33.6692
-40.2856
-33.6111
-29.4161
-57.4394
-12.3857
17.6825
-44.4055
-50.2075
-47.6541
-51.2337
-81.6174
-37.6681
-45.7512
-57.1281
-51.089
-40.5606
-36.8073
-44.0417
-53.3232
-98.4562
-113.993
173.63
167.086
-80.3011
-79.9662
162.742
163.36
-82.0214
-64.5753
-72.744
-63.9228
-48.3263
-52.6629
-38.9481
-36.6257
-41.5986
-42.4373
-39.0077
-38.957
-29.7235
-44.9006
-38.7486
-41.4761
-32.6634
-32.6097
144.578
145.435
-65.9347
-96.9043
-27.0495
0.564493
-32.1807
-32.01
-33.6561
-34.0448
-48.4073
-34.4999
-46.6753
-39.5782
-98.7274
-117.045
167.251
174.23
-79.9446
-65.054
-73.5525
-63.787
-53.7695
-49.3855
-38.8178
-36.3935
-29.497
-45.6806
-39.028
-40.4788
-95.6737
-65.9945
0.358953
-27.0791
-34.6477
-48.935
-39.2581
-46.5039
-35.6149
-35.029
-41.4663
-40.7808
-59.2867
-54.7393
-37.8434
-42.3264
-59.0832
-58.8548
-44.249
-44.1148
-35.4572
-38.8965
-27.8573
-32.5832
-41.9617
-41.6449
-40.932
-41.0042
-43.0652
-45.6755
-99.8697
-68.5938
24.0731
24.0648
-98.7736
-98.7129
-67.8805
-67.8341
-49.8228
-49.7472
-35.6844
-34.9772
-41.0232
-42.971
-54.8771
-59.8505
-37.9108
-42.3917
-38.729
-35.2479
-26.3165
-32.1499
-45.8152
-42.9136
-68.4925
-100.034
-87.873
-78.1719
-83.3196
-89.4752
-52.0083
-48.1637
-66.2019
-63.4426
-55.0974
-64.3207
-66.3343
-48.2681
-44.9271
-46.5016
-88.8774
-92.4506
-88.605
-95.8131
-80.5872
-77.4965
-45.5937
-91.6309
-86.4499
-48.4818
-55.2264
-48.3052
-66.5641
-64.4742
-51.6491
-63.3033
-66.3152
-48.2883
-104.388
-96.8713
-75.9962
-69.7176
-103.118
-70.3638
-75.8447
-96.9006
-67.5738
-57.9429
-64.3076
-54.4374
-67.8914
-54.5008
-64.366
-58.6993
-51.2474
-39.1364
-21.5065
-38.2334
-46.693
29.335
9.86342
-20.5859
-45.9596
-20.3552
9.93264
29.4805
-51.2068
-38.076
-21.5514
-39.1558
83.3186
150.295
174.264
64.161
71.3552
76.5682
183.487
136.135
71.0522
135.941
181.814
73.6791
84.0481
64.3673
174.105
148.119
-38.6552
-34.8239
-36.9385
-39.5157
-33.3144
-34.4148
-36.0341
-34.6159
-42.7021
-45.9662
-39.9001
-37.9991
-52.3149
-43.2644
-41.6277
-49.7642
-38.5962
-39.5481
-36.9877
-35.0012
-52.3851
-49.7178
-41.6224
-43.3465
-42.5686
-37.8552
-39.8704
-45.8672
-33.3128
-35.4531
-35.9733
-34.0901
-42.571
-46.843
-42.5824
-37.3183
-42.2153
-36.2298
-42.5953
-46.6609
-45.8003
-42.4304
-41.9804
-38.4252
-46.6689
-36.927
-41.3742
-42.4615
-90.3001
-72.2621
-118.095
-23.3191
-50.3572
-61.621
-76.9635
-58.0302
-50.1673
-57.8674
-76.9146
-61.5316
-90.4498
-23.6005
-118.098
-72.2114
-30.8552
-34.5962
-23.2653
-30.9661
-49.0294
-49.0887
-46.5452
-43.1942
-43.0787
-45.4608
-47.342
-46.2624
-39.5725
-34.4635
-31.0819
-37.9066
-29.8129
-29.9948
-24.7964
-34.9456
-39.2851
-37.9211
-30.8532
-33.9531
-42.8013
-45.8255
-48.3185
-45.5624
-48.8291
-44.3458
-47.1605
-49.5372
-39.5161
-41.2885
-39.9311
-38.1203
-39.6103
-38.1498
-39.8781
-41.4139
-43.9844
-42.9202
-40.6378
-40.267
-44.1829
-42.0642
-41.4795
-42.8065
-45.616
-45.008
-46.7401
-52.6904
-33.7139
-30.5811
-37.4332
-43.9236
-33.3302
-42.6732
-37.2638
-30.3781
-45.3598
-52.6006
-46.6314
-44.8393
-41.3842
-40.8676
-38.9086
-38.7289
-41.4638
-38.629
-38.8119
-40.9666
-35.3722
-30.6566
-34.9772
-37.4356
-35.6843
-37.6857
-35.1621
-30.8525
-28.9615
-133.133
-120.27
-55.2209
-53.9643
-51.043
-17.5742
-11.9502
-54.2092
-39.7532
-34.8266
-38.6959
-132.827
-30.0046
-120.163
-52.2129
-57.2534
-49.5059
-12.3041
-17.3443
-54.3152
-34.2325
-39.0463
-38.221
-51.1614
-43.1659
-43.9016
-48.7592
-34.2478
-35.6832
-33.5046
-37.8946
-63.407
-57.152
-59.4278
-77.8058
-41.9248
-42.0075
-43.679
-45.3133
-50.7516
-48.1568
-42.9472
-43.4789
-33.4732
-37.0794
-35.2119
-32.8208
-63.6227
-78.5901
-57.2942
-59.5717
-41.6848
-45.0125
-41.7432
-43.429
18.8197
26.2856
-51.141
109.644
-131.442
-131.396
-111.27
-30.9992
-64.2676
-55.578
-64.6845
-59.1805
-44.7963
-41.9926
-45.2129
-38.167
-45.0788
-45.0505
-43.3939
-43.5845
-40.8849
-43.1819
-41.4883
-39.046
-19.5805
-18.5971
-30.4595
9.80467
-68.9227
-61.8729
-74.795
-45.921
-29.1738
-28.9712
-29.3878
-28.7652
-41.2616
-40.5795
-40.8491
-40.6954
18.4575
26.1742
-52.9634
110.156
-64.5475
-53.0367
-64.1315
-58.8763
-43.9742
-41.4748
-44.5922
-37.8955
-42.1844
-40.0483
-41.595
-40.1265
-69.0021
-61.9086
-74.9153
-45.9109
-41.132
-40.4206
-40.9468
-40.0687
-34.8889
-34.9292
-34.3426
-36.2046
-42.8742
-43.9697
-45.3458
-41.8381
-50.7432
-50.7334
-53.4457
-49.0358
-33.5077
-35.132
-34.8245
-33.3861
-42.1526
-42.1803
-42.3109
-41.6662
-52.8049
-49.8589
-49.811
-57.1234
11.6768
11.6965
24.9311
-0.142093
-57.5045
-57.4547
-60.3744
-55.3682
-35.4195
-35.2403
-34.5608
-36.6107
-42.8934
-44.0299
-45.3699
-41.8571
-32.9576
-34.7212
-34.4773
-32.7454
-52.5062
-49.7904
-49.7365
-57.0329
-82.1304
-77.3567
-76.6778
-71.2665
-80.972
-76.5136
-76.2636
-70.4698
-72.923
-69.7051
-69.8061
-67.7029
-11.6951
-2.79108
-2.77292
5.98825
199.216
197.018
201.162
199.251
-37.1187
-38.3416
-37.7734
-39.4526
-37.1212
-38.3625
-37.7531
-39.3973
-41.8643
-42.0122
-41.631
-42.0125
-93.2568
-103.094
-86.5106
-93.2196
-47.114
-43.929
-36.009
-26.8061
-47.3953
-45.1415
-38.5281
-26.1143
-40.7919
-40.9281
-40.9006
-41.1112
-39.7038
-42.4965
-42.4338
-44.5304
-34.8518
-36.6906
-34.5347
-34.7133
4.38138
10.2238
-58.0679
87.806
-157.046
-140.23
-119.08
-45.1589
-90.3599
-73.184
-93.4598
-76.2438
-51.6139
-48.7941
-51.6605
-41.2251
-46.8507
-45.4125
-45.6459
-43.8154
-43.8686
-42.1546
-45.5255
-40.2243
-5.34117
-8.39492
-45.338
61.4086
-14.3312
-15.7854
-34.9418
21.2947
-57.9508
-64.3506
-58.002
-51.8458
-41.2838
-42.3074
-43.883
-38.2123
-32.8984
-30.8139
-31.858
-32.2886
-41.8098
-42.5363
-44.7038
-40.3054
-158.33
-140.376
-118.411
-46.6419
3.07294
9.33821
-60.0344
91.0741
-90.0509
-72.3471
-92.4597
-76.4252
-47.6582
-45.5704
-44.188
-44.6688
-50.2858
-47.3929
-51.4517
-40.836
-44.2846
-42.6893
-45.4292
-41.5629
-14.5559
-15.6543
-34.8981
20.9081
-5.18556
-8.48511
-46.0053
61.5034
-58.0652
-64.2107
-58.1715
-51.9424
-32.4584
-30.3617
-31.4899
-31.7355
-40.7547
-41.7092
-43.6019
-37.8316
-41.4314
-42.5113
-44.4874
-39.6826
-57.197
-48.8586
-63.4176
-34.6738
-38.8452
-36.3603
-36.561
-38.0726
-42.7639
-42.501
-45.4264
-40.4249
-50.0786
-50.297
-52.3781
-47.9654
-33.0521
-35.6047
-27.2025
-39.9856
-34.3972
-35.9528
-35.3303
-36.9435
-32.5405
-32.6432
-33.197
-31.6317
-39.2829
-41.4663
-41.6482
-40.2811
-62.19
-56.1101
-58.7673
-38.43
-51.0235
-46.3763
-49.1859
-48.0021
-57.3609
-55.1402
-54.1016
-65.8304
-32.2999
7.46005
9.37462
-21.7072
-40.4845
-39.9151
-39.1136
-42.8529
-38.8507
-36.7013
-39.1665
-38.0472
-45.3541
-47.489
-45.4203
-49.9937
-49.6919
-55.4724
-55.4718
-52.6202
-61.864
-49.6555
-63.6613
-37.4354
-49.4102
-49.9805
-51.9926
-47.6847
-38.8975
-35.3706
-35.8381
-37.4232
-42.6256
-42.5144
-45.4008
-40.3557
-31.8844
-36.6114
-24.6925
-39.5484
-38.905
-41.1928
-41.3246
-40.193
-35.2012
-35.578
-33.4013
-38.0927
-31.9713
-32.0435
-32.8254
-30.791
-62.3512
-56.4668
-58.7524
-40.633
-32.3811
7.52203
9.17461
-21.3509
-51.0826
-46.4724
-49.3188
-48.1594
-57.5682
-55.3088
-54.2902
-66.156
-40.2018
-39.8127
-38.9846
-42.7241
-49.6994
-55.3426
-55.6088
-52.3894
-38.4102
-36.2299
-38.7771
-37.7605
-45.2114
-47.3753
-45.2944
-49.8323
-96.1111
-89.9985
-99.484
-107.535
184.639
198.828
191.937
190.048
-83.3583
-80.1226
-80.7522
-80.0897
123.121
170.511
162.469
162.855
-70.014
-73.3986
-76.3895
-67.9583
-64.118
-67.7713
-68.8264
-63.431
-51.3269
-48.7168
-48.8959
-51.0372
-36.8423
-35.7699
-37.6579
-36.6746
-41.9808
-41.4408
-41.7469
-42.0477
-39.3562
-38.7968
-38.8695
-38.8421
-41.6558
-43.6381
-41.5174
-43.3238
-39.0493
-40.1187
-39.0114
-40.5327
-34.8088
-25.05
-31.1136
-31.1005
117.59
175.623
147.456
150.004
-80.9548
-80.8076
-75.677
-87.8091
-21.6471
-8.87168
-20.9543
-6.63103
-30.6029
-33.5508
-31.7789
-31.6856
-32.139
-33.8674
-33.344
-33.4154
-40.5784
-36.8748
-44.9513
-35.9223
-44.7661
-43.393
-45.2458
-42.4854
-100.192
-88.4281
-100.159
-108.872
184.197
198.864
188.719
191.915
-69.4198
-72.63
-75.0132
-67.6712
-63.9833
-68.0596
-69.6011
-63.2638
-50.9892
-50.3344
-51.9875
-49.9481
-36.6187
-35.5422
-37.5382
-36.3875
-42.9645
-44.4217
-41.5876
-44.8134
-39.9774
-40.5866
-39.4929
-40.9426
-81.1001
-80.586
-87.1971
-75.6606
-21.6149
-8.81966
-6.54331
-20.9481
-40.7956
-37.4713
-36.2202
-44.7851
-44.5312
-43.1859
-42.1242
-45.0227
-34.6821
-35.773
-35.3386
-35.0399
-38.7923
-41.1784
-40.9616
-40.7574
-51.4956
-63.98
-57.5609
-54.951
-39.9189
-39.0712
-38.5668
-40.8276
-62.3319
-61.7939
-59.5046
-59.4895
-45.8182
-43.6818
-44.4569
-44.4257
-36.1796
-37.135
-36.0129
-37.7641
-31.1966
-28.0527
-28.6432
-31.0573
-41.8291
-41.4117
-41.8814
-41.7247
-41.67
-39.8724
-40.8068
-40.8304
-46.071
-42.4459
-43.8632
-44.9975
-72.4906
-87.6421
-88.6329
-73.7069
32.6209
19.2965
26.0888
26.1055
-51.968
-123.012
-104.451
-103.421
-66.2298
-74.3997
-68.9227
-68.9035
-51.4566
-48.5878
-50.0029
-49.9577
-34.938
-35.8543
-35.4116
-35.117
-34.8442
-41.7242
-40.9096
-42.5756
-51.7183
-64.2533
-55.0817
-57.6921
-39.9503
-39.1496
-38.6556
-40.9277
-35.9473
-37.0346
-37.5648
-35.8413
-30.3584
-27.0195
-27.3775
-30.3461
-45.9271
-42.4703
-45.1955
-43.7396
-72.9031
-87.5833
-73.6891
-88.6076
-97.9188
-99.6492
-101.444
-88.7608
-63.4274
-55.7523
-63.6369
-61.6625
-55.4532
-51.7807
-58.6985
-54.7232
-43.6423
-75.9446
-106.459
-104.322
-98.307
-97.4745
-98.7962
-87.4525
-43.3393
-75.2608
-108.342
-103.072
-55.6315
-51.8699
-58.8927
-54.8064
-64.2257
-55.9659
-64.3038
-62.0879
-86.7928
-79.5234
-80.1772
-77.5185
-86.4304
-80.4326
-79.7417
-77.4541
-56.5596
-56.8224
-61.8169
-58.7027
-57.2084
-57.7943
-62.0017
-58.9548
-42.7813
-43.1708
-35.2726
-32.6875
2.83628
17.2581
6.61097
19.9972
4.21663
17.451
6.23768
19.8924
-42.614
-43.1736
-35.3148
-32.702
137.463
106.39
152.244
152.526
129.846
116.425
145.442
152.405
116.265
129.737
152.338
145.685
106.548
138.268
153.905
152.454
-36.3766
-37.6961
-36.1143
-37.2095
-34.3726
-34.1998
-34.8851
-35.0442
-40.8156
-42.6932
-40.1535
-42.4012
-47.1198
-48.9942
-44.1291
-46.3164
-36.3452
-37.5986
-36.1306
-37.2824
-47.2259
-48.9085
-44.2427
-46.3518
-40.6824
-42.4677
-40.0659
-42.1187
-34.1179
-34.0203
-34.745
-34.8175
-42.612
-44.6517
-42.3488
-43.8738
-44.2704
-41.5934
-43.5645
-41.8302
-42.6165
-44.9097
-42.203
-42.919
-38.3421
-42.6327
-40.7911
-41.5684
-108.999
-63.0496
-114.42
-102.549
-57.2548
-59.1062
-64.1416
-65.6958
-59.2748
-57.1112
-65.6006
-64.1221
-63.9947
-110.602
-102.799
-114.367
-26.1004
-28.8591
-23.918
-27.1848
-47.9287
-46.7408
-47.8208
-46.2154
-47.8088
-47.7873
-53.6671
-50.4245
-36.5635
-36.3945
-34.6087
-34.2921
-24.0834
-27.4911
-22.0043
-25.3372
-36.2976
-36.0009
-34.374
-33.7908
-47.5757
-47.8782
-54.4686
-50.0916
-48.9105
-47.6348
-49.0915
-47.053
-41.3449
-42.2818
-38.8305
-41.0288
-40.6952
-43.0088
-38.8283
-41.4312
-41.942
-42.7314
-41.0534
-40.9264
-42.4459
-42.0907
-43.649
-42.4891
-48.3885
-50.2603
-48.0972
-49.5022
-32.3461
-34.6437
-32.7914
-35.5181
-32.0427
-34.2857
-32.5423
-35.0629
-48.2642
-50.0917
-47.983
-49.3932
-39.0797
-39.5226
-38.9838
-39.0229
-39.5142
-38.9697
-38.9599
-38.9273
-34.0304
-35.9698
-34.1766
-35.7756
-36.295
-34.5691
-36.0954
-34.7512
-72.6852
65.94
-119.714
-29.3505
-95.72
-106.747
-52.7305
-43.6918
-47.6266
-46.1277
-48.1436
-44.271
-53.2017
46.7081
-42.3463
32.4814
-51.1113
-49.9806
-41.8636
-37.1146
-33.4988
-34.8044
-42.1612
-36.83
-119.012
-22.8867
-73.6815
67.9717
-95.8973
-106.313
-46.0121
-46.7748
-52.9403
-43.3837
-46.8314
-44.332
-42.2816
32.6755
-53.8314
46.7583
-51.4672
-50.0637
-33.1487
-34.3553
-41.705
-36.8423
-41.7049
-36.1189
-56.3602
-65.1147
-38.8445
-41.5908
-46.5936
-40.6255
-54.063
-45.3173
-31.6746
-37.5865
-33.5981
-41.6093
-33.4884
-31.9034
-43.5386
-37.5049
-59.3496
-70.2096
-54.491
-52.8444
-55.684
-70.5606
-64.0918
-93.7082
-40.4618
-43.2972
-41.5097
-40.3646
-43.6045
-47.6069
-48.9409
-46.5912
-55.2001
-63.9312
-53.6401
-45.0394
-39.0896
-41.2709
-46.3691
-40.4445
-30.6766
-37.3044
-42.7736
-37.1892
-33.592
-40.306
-33.0274
-31.1308
-59.5297
-69.7257
-63.7502
-94.1114
-54.604
-52.9494
-55.8571
-70.8362
-40.1874
-43.0764
-48.7257
-46.3575
-41.2242
-40.0879
-43.4606
-47.4
-56.2143
95.951
-42.7613
85.5403
-83.9141
-61.9939
159.88
154.075
-112.849
-24.3012
-112.949
-24.9359
-95.7834
-96.246
80.8018
80.7846
-75.9853
-68.4144
-59.5209
-51.9884
-72.6797
-65.3671
-65.5453
-58.2138
-49.0399
-40.0121
-44.4321
-38.7796
-50.2701
-50.3796
-37.8488
-37.5396
-43.6812
-43.7586
-43.7352
-43.6713
-42.6024
-42.6425
-41.0083
-41.0114
-42.4893
-40.6612
-39.4842
-40.5556
-41.776
-41.7948
-37.866
-39.7169
-34.2453
9.4012
-33.2634
11.445
-36.0697
-36.0035
78.3797
74.5143
-79.0781
-51.1232
-64.5617
-37.2013
-70.7128
-86.3707
-35.7384
-26.0655
-30.2753
-29.7225
-30.0039
-29.3586
-30.1644
-30.0066
-30.0315
-30.2921
-43.6266
-41.5822
-39.4856
-41.962
-42.8118
-39.266
-44.7253
-43.5499
-58.358
97.0548
-43.9277
85.7624
-89.1038
-64.9572
152.019
155.846
-75.0071
-68.6157
-59.3665
-51.652
-71.6514
-65.1996
-65.7478
-58.0875
-49.1567
-39.7552
-43.8828
-38.5379
-48.2683
-50.3133
-37.7264
-37.2686
-43.8509
-43.2023
-39.6604
-38.5298
-41.0517
-43.3299
-39.0778
-41.1737
-78.4277
-51.1223
-64.5756
-37.4313
-86.2794
-70.58
-26.0984
-35.7564
-43.6209
-41.9319
-39.4795
-41.7371
-39.394
-42.9018
-43.67
-44.4396
-34.6599
-36.5262
-34.6463
-36.0426
-34.6561
-34.5656
-38.0853
-37.1223
-45.0688
-40.8947
-46.3688
-43.9878
-48.0384
-47.845
-40.0342
-41.8733
-52.5311
-48.5311
-52.3895
-48.3515
-59.6137
-59.8801
-47.0477
-46.916
-33.6459
-32.0535
-36.7189
-35.3237
-34.9325
-36.491
-31.5371
-33.3468
-41.9471
-41.6092
-41.9431
-41.7269
-42.3149
-42.2671
-41.1788
-41.2118
-52.1993
-61.7557
-47.4526
-53.1949
-46.9608
-48.8822
-68.0533
-60.9106
23.2947
-1.8979
22.4463
-2.03474
30.811
30.6617
-23.6244
-23.7078
-59.1026
-54.5058
-59.0183
-54.411
-62.8917
-62.8496
-53.1612
-53.1233
-34.8
-36.5251
-36.0628
-36.9275
-34.8414
-34.853
-36.4744
-38.1376
-45.1398
-40.8985
-46.3758
-44.059
-48.0012
-48.1273
-40.0914
-41.9465
-33.2196
-31.3227
-36.4197
-34.8058
-36.1915
-34.5994
-30.588
-32.702
-52.0604
-61.6829
-47.3453
-53.0682
-48.8172
-46.8916
-60.7455
-67.9366
-83.3664
-87.9554
-81.014
-70.9137
-72.3577
-84.0765
-66.1372
-66.2826
-81.0023
-85.3517
-77.8424
-69.9886
-82.7207
-72.3022
-66.5975
-66.4042
-76.4015
-76.4665
-71.6256
-66.6838
-72.2781
-66.7793
-64.5074
-64.519
-20.6617
-20.6783
-14.1898
2.79907
2.84047
-14.1665
11.7022
11.6854
193.778
200.081
177.009
176.846