# vtk DataFile Version 2.0
tri_press
ASCII
DATASET UNSTRUCTURED_GRID
POINTS 3682 float
-0.795726 0.165 -2.255
-0.635 0.235 2.26584
-0.795 0.785 -2.21759
-0.545 0.815 2.2794
0.795726 0.165 -2.255
0.635842 0.235 2.265
0.795 0.785 -2.21759
0.545 0.815 2.2794
-0.809603 0.120881 -0.748054
-0.780878 0.119364 0.758893
-0.802924 0.886258 -0.718594
-0.745311 0.921977 0.780404
0.809379 0.121386 -0.748334
0.781438 0.119365 0.758334
0.802929 0.886263 -0.718594
0.745297 0.921964 0.780404
-1.57903 -0.223411 -3.47154
-1.58493 -0.20754 -2.2692
-1.57807 -0.237562 -0.762066
-1.51255 -0.237249 0.746674
-1.39386 -0.163938 2.25394
-1.36863 -0.135653 3.45694
-1.38468 -0.130978 4.6587
-1.58345 0.125018 -3.45564
-1.59068 0.156869 -2.25417
-1.58538 0.137639 -0.74855
-1.49776 0.126381 0.757807
-1.33075 0.178504 2.26358
-1.32778 0.203766 3.46647
-1.36397 0.210622 4.66849
-1.58349 0.795253 -3.42166
-1.58924 0.826846 -2.21988
-1.57809 0.890666 -0.719678
-1.46895 0.896424 0.779992
-1.27421 0.83178 2.28037
-1.29853 0.855808 3.48372
-1.35444 0.882065 4.68709
-1.56921 1.87381 -3.37651
-1.56887 1.91543 -2.1759
-1.55503 1.98156 -0.678255
-1.51214 2.00152 0.817716
-1.4519 1.96418 2.31548
-1.42655 1.94525 3.51636
-1.42842 1.94927 4.71888
-0.78926 -0.220177 -3.47208
-0.792237 -0.202399 -2.27
-0.798671 -0.247049 -0.76207
-0.780793 -0.240296 0.747505
-0.705622 -0.131719 2.25548
-0.688379 -0.11371 3.45794
-0.699786 -0.119826 4.65922
-0.792565 0.123911 -3.45583
-0.661456 0.224544 3.46731
-0.687581 0.219891 4.66887
-0.792951 0.778193 -3.42072
-0.638323 0.853839 3.48347
-0.683859 0.88221 4.68695
-0.786687 1.86335 -3.37559
-0.788792 1.90619 -2.17488
-0.790176 1.98219 -0.677668
-0.781881 2.00709 0.817578
-0.756037 1.96238 2.31486
-0.738901 1.94047 3.51573
-0.738292 1.94538 4.71839
0.797543 -0.220102 -3.47215
0.800842 -0.202283 -2.27008
0.799028 -0.246708 -0.762334
0.751824 -0.240224 0.747016
0.653966 -0.131704 2.25482
0.647783 -0.113688 3.45742
0.655927 -0.119794 4.65882
0.795666 0.123952 -3.45587
0.628151 0.224557 3.46681
0.644609 0.219918 4.66849
0.794099 0.778218 -3.42074
0.596193 0.853851 3.48324
0.628666 0.882234 4.68667
0.784269 1.8634 -3.37565
0.77958 1.90623 -2.17494
0.753335 1.98223 -0.677736
0.691815 2.00713 0.817489
0.631385 1.96241 2.31474
0.623457 1.9405 3.51557
0.631953 1.94541 4.71819
1.58922 -0.223237 -3.47169
1.59338 -0.207283 -2.26939
1.58413 -0.237084 -0.762515
1.51022 -0.237058 0.745892
1.38138 -0.16388 2.25294
1.34733 -0.135594 3.45604
1.35179 -0.130906 4.65795
1.58908 0.125141 -3.45575
1.59368 0.157028 -2.25428
1.59176 0.138137 -0.748928
1.51456 0.126532 0.757086
1.35025 0.178534 2.26261
1.31794 0.203808 3.46563
1.33326 0.210684 4.66778
1.58649 0.795334 -3.42173
1.59071 0.826906 -2.21993
1.58214 0.890845 -0.719815
1.48124 0.896512 0.779726
1.28751 0.831802 2.28
1.27859 0.855844 3.48322
1.31131 0.882121 4.68654
1.56703 1.87392 -3.37665
1.55991 1.91553 -2.17603
1.52374 1.98166 -0.678415
1.44098 2.00161 0.817507
1.35261 1.96425 2.31521
1.32755 1.94532 3.51602
1.33164 1.94934 4.71848
-0.807851 0.475 -2.24878
0 0.162411 -2.25759
-0.803764 0.141841 -1.50153
-0.627801 0.525 2.31042
0.000421017 0.233706 2.26671
-0.718929 0.166192 1.51237
0 0.879193 -2.31178
-0.816067 0.852734 -1.46809
0 0.83934 2.30374
-0.696871 0.920204 1.5299
0.807846 0.475 -2.24878
0.803935 0.14181 -1.50167
0.628377 0.525 2.31016
0.719652 0.166171 1.51167
0.816078 0.852745 -1.46809
0.696854 0.920187 1.5299
-0.794971 0.120391 0.00541997
-0.888704 0.503569 -0.733324
-0.000112379 0.119146 -0.748194
-0.881067 0.520671 0.769649
0.000279967 0.118453 0.758613
-0.765899 0.895899 0.030905
2.47613e-06 1.15325 -0.718594
-6.71715e-06 1.37333 0.780404
0.795391 0.120393 0.005
0.888702 0.503824 -0.733464
0.881075 0.520665 0.769369
0.7659 0.8959 0.030905
-0.884968 0.489285 -1.48481
0.884967 0.489412 -1.48488
-5.61893e-05 0.129227 -1.5016
1.23806e-06 0.956488 -1.46809
0 0.475 -2.33894
-0.899724 0.51212 0.0181625
0.899723 0.512244 0.0179525
8.37942e-05 0.118936 0.00520998
-2.12051e-06 1.37705 0.030905
-0.86126 0.522835 1.52113
0.861271 0.522832 1.52078
0.000350492 0.151055 1.51202
-3.35858e-06 1.13634 1.5299
0.000210509 0.525 2.4027
-0.802433 0.32 -2.25254
-0.397863 0.162296 -2.2577
-0.801666 0.1515 -1.87826
-0.644284 0.38 2.30101
-0.317289 0.233705 2.26693
-0.698344 0.179217 1.8891
-0.812958 0.63 -2.24472
-0.3975 0.832956 -2.26555
-0.815105 0.828439 -1.84284
-0.58393 0.67 2.29244
-0.2725 0.832258 2.29666
-0.632946 0.879613 1.90465
0.397863 0.162294 -2.25771
0.802396 0.32 -2.2525
0.801731 0.151505 -1.87833
0.318132 0.23371 2.2665
0.644802 0.38 2.30027
0.699151 0.179182 1.88833
0.3975 0.833587 -2.26618
0.813028 0.63 -2.24479
0.815085 0.828418 -1.84284
0.2725 0.832246 2.29665
0.584213 0.67 2.2923
0.632931 0.879597 1.90465
-0.815061 0.122983 -1.12479
-0.80236 0.120563 -0.371317
-0.876147 0.298728 -0.740689
-0.405052 0.119625 -0.748124
-0.736441 0.15624 1.13563
-0.788045 0.119757 0.382157
-0.876575 0.297216 0.764271
-0.390505 0.118496 0.758753
-0.813059 0.873059 -1.09334
-0.884445 0.714229 -0.725959
-0.784697 0.891364 -0.343844
-0.453307 1.12345 -0.718594
-0.73017 0.93017 1.15515
-0.872346 0.750902 0.775026
-0.746343 0.899676 0.405654
-0.468154 1.33864 0.780404
0.815597 0.122658 -1.125
0.404954 0.119625 -0.748264
0.80271 0.120565 -0.371667
0.876307 0.298972 -0.740899
0.736977 0.156336 1.135
0.391065 0.118498 0.758474
0.788535 0.119758 0.381667
0.87662 0.297333 0.763851
0.813088 0.873088 -1.09334
0.45328 1.12339 -0.718594
0.884449 0.71436 -0.726029
0.784693 0.89136 -0.343844
0.730198 0.930198 1.15515
0.468165 1.33868 0.780404
0.87233 0.750886 0.774886
0.746341 0.899674 0.405654
-0.888819 0.482142 -1.8668
-0.403925 0.475 -2.33209
-2.80947e-05 0.147585 -1.87959
0 0.318705 -2.42478
-0.878015 0.315563 -1.49317
-0.40191 0.129226 -1.50156
-0.791383 0.523918 1.91578
-0.313795 0.525 2.38706
0.000385755 0.181239 1.88937
0.000315763 0.379353 2.43527
-0.843468 0.344514 1.51675
-0.359289 0.151065 1.51219
6.19032e-07 0.916442 -1.88994
0 0.677097 -2.33817
-0.860888 0.671009 -1.47645
-0.408033 0.927124 -1.46809
-1.67929e-06 0.945983 1.91682
0.000105254 0.68217 2.31861
-0.835591 0.72152 1.52552
-0.348437 1.10164 1.5299
0.888817 0.482206 -1.86683
0.403923 0.475 -2.33211
0.878009 0.315611 -1.49327
0.40194 0.129229 -1.50163
0.791442 0.523916 1.91547
0.314294 0.525 2.387
0.843502 0.344502 1.51623
0.360001 0.151045 1.51184
0.860833 0.671078 -1.47649
0.40804 0.927123 -1.46809
0.835608 0.72151 1.52534
0.348425 1.10152 1.5299
-0.893567 0.293146 0.0117912
-0.397692 0.119168 0.00531498
-0.878348 0.496427 -1.10907
-0.896419 0.507845 -0.357581
-8.4284e-05 0.119757 -1.1249
-1.42922e-05 0.11914 -0.371492
-0.890592 0.516395 0.393905
-0.87248 0.521753 1.14539
0.000181881 0.11867 0.381912
0.00031523 0.127086 1.13532
-0.893146 0.734177 0.0245337
-0.489062 1.3487 0.030905
1.8571e-06 0.989121 -1.09334
1.77807e-07 1.3266 -0.343844
-4.41883e-06 1.38327 0.405654
-5.03787e-06 1.33946 1.15515
0.89364 0.293277 0.0114762
0.397985 0.119169 0.00510499
0.878344 0.496618 -1.10917
0.896418 0.508034 -0.357756
0.890599 0.516455 0.393661
0.872487 0.521748 1.14508
0.893142 0.734237 0.0244288
0.489059 1.34869 0.030905
-0.878366 0.317781 -1.87253
-0.867423 0.313894 -1.11693
-0.875458 0.682961 -1.1012
-0.894381 0.650505 -1.85482
0.878353 0.317806 -1.87258
0.894378 0.650539 -1.85483
0.875452 0.683061 -1.10126
0.867528 0.314108 -1.11709
-0.399887 0.147559 -1.87893
0.399901 0.14756 -1.87896
0.403286 0.119757 -1.12495
-0.403384 0.119757 -1.12484
-0.402766 0.890807 -1.86639
-0.404747 0.960255 -1.09334
0.404753 0.960249 -1.09334
0.40277 0.890806 -1.86639
-0.400894 0.319353 -2.41614
-0.400713 0.653548 -2.31961
0.400711 0.653548 -2.31966
0.400893 0.319353 -2.41628
-0.887943 0.294394 -0.364449
-0.88545 0.294992 0.388031
-0.882879 0.742606 0.39978
-0.891231 0.72542 -0.350712
0.888073 0.294575 -0.364711
0.891234 0.725518 -0.3508
0.882862 0.742625 0.399657
0.885505 0.295118 0.387664
-0.401301 0.119539 -0.371404
0.401399 0.119539 -0.371579
0.394526 0.118831 0.381789
-0.3941 0.11883 0.382034
-0.502853 1.29941 -0.343844
-0.482716 1.35189 0.405654
0.482712 1.35189 0.405654
0.502855 1.29941 -0.343844
-0.853741 0.332265 1.14051
-0.787802 0.362257 1.90244
-0.786935 0.69576 1.91021
-0.86186 0.721422 1.15027
0.853771 0.332258 1.14004
0.862074 0.721412 1.15011
0.786956 0.695755 1.91006
0.787903 0.362251 1.9019
-0.374794 0.127095 1.13547
0.37543 0.127077 1.13516
0.339066 0.181191 1.88885
-0.338289 0.181227 1.88923
-0.360548 1.31525 1.15515
-0.310469 0.931811 1.91074
0.310463 0.931842 1.91074
0.360535 1.31525 1.15515
-0.315542 0.379677 2.42206
0.316213 0.379677 2.42207
0.293397 0.676085 2.32815
-0.293148 0.676085 2.32817
-0.799213 0.2425 -2.2539
-0.596795 0.162609 -2.25739
-0.799712 0.157234 -2.06663
-0.645876 0.3075 2.28966
-0.476145 0.233702 2.26703
-0.668315 0.205466 2.07747
-0.811844 0.7075 -2.23902
-0.59625 0.795249 -2.22784
-0.813966 0.815633 -2.03022
-0.570497 0.7425 2.29195
-0.40875 0.821509 2.28591
-0.592876 0.851209 2.09203
0.596795 0.162598 -2.2574
0.7992 0.2425 -2.25389
0.799639 0.157342 -2.06667
0.476987 0.233713 2.26639
0.646494 0.3075 2.28881
0.669222 0.205365 2.07667
0.59625 0.795244 -2.22783
0.811818 0.7075 -2.23899
0.813967 0.815634 -2.03022
0.40875 0.821448 2.28585
0.570366 0.7425 2.29161
0.592736 0.85107 2.09203
-0.812331 0.121934 -0.936422
-0.806047 0.120657 -0.559685
-0.867079 0.197703 -0.744371
-0.607349 0.120211 -0.748089
-0.747316 0.149145 0.947262
-0.784462 0.11956 0.570525
-0.859193 0.193057 0.761582
-0.585668 0.118977 0.758823
-0.809221 0.880888 -0.905968
-0.863438 0.81012 -0.722276
-0.793922 0.888922 -0.531219
-0.664833 1.07829 -0.718594
-0.737391 0.925724 0.967778
-0.83001 0.847031 0.777715
-0.752885 0.917885 0.593029
-0.635771 1.18839 0.780404
0.812488 0.122022 -0.936667
0.607314 0.120211 -0.748299
0.806264 0.120756 -0.56
0.867103 0.198049 -0.744616
0.747805 0.149253 0.946667
0.586228 0.118978 0.758404
0.784987 0.119561 0.57
0.859236 0.193246 0.761092
0.809215 0.880882 -0.905968
0.664779 1.07817 -0.718594
0.863449 0.810191 -0.722311
[...]
POINT_DATA 3682
SCALARS point_scalars float 1
LOOKUP_TABLE default
-81.66
-44.5358
-121.779
-36.6047
-86.2014
-44.525
-122.641
-36.574
-39.1268
-43.8502
-50.3992
-47.3159
-39.0675
-43.8644
-50.4071
-47.3123
-75.9591
-121.07
-37.3821
-42.2974
-45.1056
-41.2461
-40.0977
46.5322
-110.365
-37.7799
-43.1094
-44.1018
-39.9796
-38.9562
-18.9274
-143.311
-43.7515
-44.6691
-41.063
-38.2994
-38.5917
-67.3938
-84.0814
-82.7769
-52.7878
-35.4839
-36.7881
-36.7881
82.358
-149.06
-39.6998
-44.2053
-43.9556
-40.5389
-39.5506
83.0302
-39.0039
-38.6897
159.327
-37.7256
-38.2136
-129.137
-91.5499
-76.6137
-54.1456
-34.1857
-35.4843
-35.8704
81.7891
-149.242
-39.6398
-44.3289
-43.9626
-40.5149
-39.7726
83.2657
-38.7946
-38.6734
157.989
-37.6832
-38.1922
-129.524
-91.1135
-70.3383
-54.1868
-33.8066
-35.4423
-35.8127
-80.8411
-120.854
-37.3381
-42.3231
-45.0594
-41.2193
-40.1122
46.5758
-110.344
-37.7692
-43.4335
-44.0516
-39.955
-38.9339
-19.0206
-143.012
-43.7599
-44.6428
-41.0212
-38.2775
-38.3351
-69.6128
-83.9532
-82.9503
-52.8096
-35.4629
-36.756
-36.756
-111.526
-188.766
-46.6526
-38.8354
-42.6406
-43.4474
-171.071
-39.3337
-30.9187
-40.2297
-118.45
-47.0766
-38.8094
-43.4476
-39.3018
-40.2113
-39.8455
-39.301
-43.5279
-42.8163
-43.991
-53.7059
15.1757
-56.6412
-39.8335
-39.2965
-42.8067
-53.708
-50.2123
-50.2811
-58.4429
-20.224
201.702
-44.1204
-44.1126
-40.9355
-83.8656
-45.655
-45.6669
-45.9343
-33.9089
-35.8474
-82.9304
-157.562
-69.8067
-40.6997
-42.9845
-45.9831
-103.436
-148.095
-61.5588
-38.2416
-33.4122
-35.9183
-157.254
-83.0718
-69.7512
-42.9783
-40.6782
-45.9454
-149.562
-105.976
-61.5397
-33.3633
-38.2016
-35.9004
-40.6424
-39.1925
-38.0428
-42.5842
-42.4024
-40.8432
-43.5595
-43.8194
-34.3869
-42.0994
-55.4191
6.25706
-44.3185
-44.3331
-50.4824
-54.5911
-40.7154
-42.5715
-39.1936
-38.0324
-42.3529
-43.8129
-40.8405
-43.5507
-34.3718
6.41854
-42.1062
-55.4148
-44.3047
-54.6033
-44.3311
-50.4966
-82.9233
183.409
-85.2587
129.937
-50.7293
-55.7963
-43.1182
-37.2113
-45.5556
-38.3859
-45.8872
-45.597
-52.5116
183.164
-46.9492
-26.0475
-32.0958
-33.8079
-43.8032
-34.7129
-82.9401
183.413
-50.7661
-55.7722
-43.067
-37.1699
-44.7125
-45.5954
-46.9898
-26.0042
-43.7942
-34.7098
-42.3954
-40.5488
-38.5012
-42.2491
-49.0033
-41.2446
-43.7741
-42.2039
-41.8885
-46.9614
-47.0005
-75.8236
4.05147
-67.9884
-67.0835
-45.7691
-42.3862
-40.5458
-38.5092
-42.2198
-43.7722
-42.186
-46.9743
-75.8453
-80.9359
-37.9461
-38.0206
-76.6299
-80.9397
-76.6403
-38.0153
-37.9744
-80.7542
-80.7241
-47.6565
-47.6591
-56.1934
-4.27221
-4.17986
-56.0973
157.101
149.952
149.875
157.155
-40.4629
-42.5254
-46.0128
-45.7985
-40.4571
-45.805
-46.0291
-42.5264
-40.6544
-40.6473
-41.6036
-41.6064
-76.1956
-62.1152
-62.1101
-76.3585
-41.5299
-44.4506
-41.204
-42.6454
-41.517
-42.6404
-41.1911
-44.4059
-46.5141
-46.513
-45.6804
-45.6826
-46.4507
-32.9248
-32.9156
-46.4479
-38.7156
-38.7016
-35.5995
-35.6736
-68.9474
-204.286
-98.1973
-42.4123
-43.49
-44.4849
-109.492
-148.481
-84.7504
-37.8238
-34.596
-35.755
-201.098
-69.7116
-98.1768
-43.4741
-42.3675
-44.4577
-149.208
-110.076
-84.6178
-34.5511
-37.7754
-35.7206
-39.2454
-38.8576
-37.5852
-41.3351
-47.1212
-41.815
-42.8412
-44.0887
-41.1358
-45.3436
-54.0392
-48.3217
-45.6762
-46.3996
-48.5128
-50.4829
-39.2756
-41.3054
-38.8189
-37.5613
-47.0836
-44.0788
-41.8139
-42.8652
-41.0078
-48.3805
-45.3487
-54.1306
-45.6909
-50.4853
-46.3884
-48.5068
-87.8303
-125.988
-113.658
148.019
-188.249
-188.28
-112.342
-1.38801
-55.8098
-44.9599
-49.9852
-52.1428
-39.7116
-38.2187
-42.1691
-37.6719
-42.7304
-42.7279
-44.1362
-40.0298
-45.5433
-42.5239
-44.1419
-45.0049
-158.762
-155.05
-80.635
147.375
-49.8928
-34.0024
-44.4536
-32.3197
-31.8244
-31.7945
-32.6779
-32.7941
-37.1256
-42.9453
-41.275
-36.1028
-88.0082
-118.728
-113.613
147.92
-55.5148
-44.9861
-50.0424
-52.3886
-39.6857
-38.1901
-42.1199
-37.6371
-45.5574
-42.5317
-44.1737
-45.0033
-49.8604
-33.9907
-44.5046
-32.2718
-37.1123
-42.9224
-41.2626
-36.0857
-39.3918
-40.2671
-41.3137
-40.116
-38.6907
-40.2532
-38.2716
-40.7766
-43.2941
-43.2903
-45.7421
-42.0794
-42.9199
-43.3308
-43.3369
-43.0544
-43.9403
-43.9377
-42.804
-46.5925
-54.9386
-52.643
-50.4802
-61.1852
13.9233
14.0223
17.6642
-12.0123
-56.1904
-56.1887
-61.5907
-51.3099
-39.3885
-40.361
-41.3085
-40.1109
-38.6845
-40.2516
-38.2695
-40.7732
-42.9093
-43.3209
-43.3328
-43.0518
-54.908
-52.6491
-50.6047
-61.2159
-63.7653
-50.7293
-48.7263
-41.8667
-63.779
-50.7658
-48.78
-41.8549
-68.2001
-57.8905
-57.9082
-53.1646
-35.4824
-22.3616
-22.3179
-8.4879
198.228
196.96
198.305
198.647
-43.3169
-43.0238
-44.3677
-45.3269
-43.3091
-43.0177
-44.3635
-45.3136
-40.8459
-40.8979
-41.2852
-40.8451
-82.4012
-94.0143
-74.6539
-82.4241
-44.6402
-45.2763
-45.9377
-42.9367
-44.6016
-44.954
-45.9369
-42.9194
-45.7084
-45.8596
-45.8592
-46.4468
-32.1148
-34.0635
-34.0624
-38.4208
-36.171
-36.8427
-34.7762
-36.1391
-115.021
116.603
-106.807
14.3144
-76.7329
-75.957
-43.5181
-38.7687
-44.2763
-40.2095
-45.0251
-45.869
-99.8081
139.445
-84.5801
74.1264
-66.0489
-60.7578
-41.2627
-37.0033
-33.1221
-34.3733
-37.6949
-33.595
-106.759
13.027
-115.022
116.98
-76.7958
-75.9265
-44.2766
-40.194
-43.464
-38.7515
-44.9759
-45.8619
-84.474
75.3046
-99.7226
139.702
-66.0613
-60.6845
-33.1048
-34.3009
-41.2147
-36.9479
-37.6743
-33.5859
-37.335
-45.9657
-39.5505
-39.9832
-37.6374
-39.0369
-44.569
-41.288
-40.9271
-45.2242
-42.0513
-41.2527
-42.7154
-44.2903
-42.5934
-46.4558
-37.3578
-15.873
-39.4195
-44.2426
-50.0072
-70.868
6.11051
-17.1457
-44.4748
-48.2197
-45.1799
-43.3305
-48.5621
-54.6596
-58.305
-50.4908
-37.3584
-45.9393
-44.5568
-41.2772
-39.55
-39.9741
-37.6372
-39.0282
-40.9204
-45.2066
-42.5895
-46.4493
-42.0558
-41.2498
-42.7134
-44.2624
-37.3466
-15.8291
6.3016
-17.0962
-39.407
-44.2471
-50.0183
-70.8893
-44.4583
-48.11
-58.3014
-50.496
-45.1801
-43.3222
-48.6557
-54.6363
-82.5058
-82.161
189.992
174.7
-84.2452
-84.2433
135.204
135.169
-62.7482
-43.8763
-64.6775
-51.2021
-43.824
-42.185
-37.7529
-36.5554
-45.5925
-45.5927
-38.5048
-38.4999
-42.1091
-46.3922
-45.9903
-45.6158
-53.9546
-53.874
177.8
178.941
-40.0757
-61.9937
-39.3222
-14.9088
-32.4046
-32.398
-34.46
-34.5153
-41.6793
-44.3267
-39.3374
-33.3572
-82.4991
-82.1905
174.662
190.016
-62.7713
-43.8902
-64.6708
-51.3423
-42.1478
-43.7749
-37.724
-36.4914
-42.051
-46.3594
-45.9887
-45.6125
-61.972
-40.0863
-14.8412
-39.2702
-44.3075
-41.6489
-33.3547
-39.2965
-41.0739
-42.8554
-40.4221
-40.9418
-38.5427
-38.174
-41.3421
-43.5872
-48.698
-48.6916
-41.1035
-41.1004
-43.2075
-44.6026
-41.9563
-42.3093
-41.8303
-41.8312
-46.8864
-46.8875
-46.9051
-46.202
-86.5404
-68.141
1.58268
1.68016
-67.8403
-67.8761
-66.0802
-66.0823
-45.847
-45.8461
-41.0693
-42.8564
-40.4178
-40.9395
-38.173
-38.5645
-41.3377
-43.5882
-44.604
-43.2046
-41.9363
-42.2978
-46.2132
-46.8957
-68.1417
-86.5523
-109.461
-60.75
-63.673
-116.181
-37.493
-37.9186
-42.7079
-46.3205
-41.2749
-38.497
-41.0878
-38.7151
-95.5915
-104.511
-63.2433
-57.4625
-109.443
-116.19
-63.6938
-60.8422
-95.544
-57.4167
-63.2449
-104.471
-41.2508
-38.7098
-41.092
-38.5058
-37.4988
-46.3437
-42.7148
-37.9175
-103.005
-111.142
-67.5105
-61.0342
-103.092
-60.82
-67.5156
-111.134
-42.9894
-45.5124
-52.7706
-48.5981
-43.011
-48.4045
-52.7203
-45.5142
-87.1386
-42.8198
-36.2535
-82.4351
-19.8427
14.441
-10.0503
-22.5052
-19.6716
-22.4297
-9.98374
14.8486
-87.0969
-82.2674
-36.1972
-42.8221
57.0979
153.139
196.96
-0.326829
95.4014
129.499
193.775
147.432
96.2833
147.431
195.02
127.878
53.387
-0.307914
196.996
152.163
-38.3966
-40.0303
-42.0852
-39.9501
-42.4418
-43.0595
-43.6505
-42.0696
-48.0219
-50.2056
-45.3726
-43.8858
-48.3957
-42.0184
-44.2568
-50.5454
-38.3877
-39.9437
-42.0799
-40.0268
-48.4191
-50.7048
-44.2536
-42.0181
-47.999
-43.8834
-45.3667
-50.2213
-42.4398
-42.0781
-43.6474
-43.0547
-40.3752
-41.8927
-40.7795
-39.8937
-40.355
-39.8883
-40.7776
-41.8889
-42.3756
-42.7486
-41.1923
-40.5517
-42.3806
-40.5515
-41.1986
-42.7503
-77.2612
-65.609
-91.9236
-11.8157
-52.0128
-60.8606
-73.4839
-58.3391
-52.0037
-58.3185
-73.493
-60.859
-77.3963
-11.5751
-91.9215
-65.5801
-46.0775
-41.213
-42.6018
-43.5981
-44.0774
-42.8728
-45.8261
-46.9661
-37.7012
-38.7086
-43.1023
-41.4821
-45.6982
-42.6273
-43.238
-43.3235
-46.0446
-43.5847
-42.5734
-41.1707
-45.7034
-43.3045
-43.2246
-42.6202
-37.657
-41.429
-43.0609
-38.6658
-44.0224
-46.9694
-45.7537
-42.8188
-46.6607
-46.565
-46.3626
-44.9202
-46.6391
-44.9339
-46.3624
-46.5649
-44.4087
-44.2062
-45.6849
-45.54
-44.415
-45.5583
-45.6857
-44.2062
-47.2833
-41.7555
-38.8134
-51.1521
-33.5823
-32.815
-32.4274
-34.2675
-33.562
-34.2535
-32.4236
-32.804
-47.2627
-51.1539
-38.8157
-41.7457
-40.3002
-40.1318
-37.2124
-38.0784
-40.281
-38.052
-37.19
-40.1264
-36.0584
-33.336
-35.3081
-37.4294
-36.1261
-37.4727
-35.3551
-33.4023
-74.9371
-177.222
-135.28
-43.9792
-44.0128
-44.0784
-110.432
-143.719
-118.932
-37.2502
-35.0953
-36.0262
-176.326
-77.0191
-135.384
-43.9919
-43.8712
-44.0651
-146.482
-111.12
-118.565
-35.0506
-37.2013
-35.988
-39.5822
-39.1723
-37.6892
-40.5201
-51.8681
-42.5975
-41.5915
-44.6688
-47.4158
-47.4942
-53.3106
-60.1627
-46.2934
-47.2939
-47.9986
-48.4199
-39.6188
-40.4644
-39.058
-37.6425
-51.887
-44.6593
-42.5963
-41.6955
-47.4387
-60.421
-47.5458
-53.1807
-46.3143
-48.4302
-47.2783
-47.9665
-103.449
-98.1195
-133.82
80.1561
-185.993
-185.973
-141.044
-15.9764
-50.3038
-41.5448
-48.0776
-49.5599
-39.3546
-38.2729
-40.7449
-37.9659
-42.6593
-42.6585
-43.4709
-41.3894
-43.9902
-42.8711
-44.4988
-44.2253
-161.092
-162.299
-113.106
45.04
-44.8403
-35.7035
-42.6716
-34.936
-31.2097
-31.1889
-32.7073
-31.589
-38.1079
-41.5516
-40.3795
-38.1769
-105.432
-98.0084
-133.968
80.0603
-50.6165
-41.7105
-48.1485
-50.2121
-39.3274
-38.2428
-40.6938
-37.9384
-43.9677
-42.8605
-44.5125
-44.2448
-44.794
-35.6882
-42.6459
-34.8899
-38.0913
-41.5296
-40.365
-38.1577
-39.6222
-40.0937
-40.2519
-39.9288
-38.958
-39.7109
-38.7045
-39.9825
-43.4688
-43.4673
-44.5047
-42.7189
-42.841
-42.9667
-43.1517
-42.6235
-43.9789
-43.9778
-43.3609
-44.6485
-54.7097
-53.008
-52.7695
-55.8175
15.0143
15.0502
19.4134
4.8148
-56.5352
-56.5354
-59.0215
-54.1229
-39.614
-40.0583
-40.2424
-39.9219
-38.9847
-39.7079
-38.7008
-39.9783
-42.8303
-42.9588
-43.1438
-42.5948
-54.66
-53.0092
-52.7248
-55.9238
-55.993
-50.6117
-49.6554
-45.6242
-56.0161
-50.6574
-49.7263
-45.6356
-62.6552
-58.2674
-58.2812
-55.2704
-27.5894
-20.7095
-20.6789
-14.3697
201.297
202.992
200.693
201.074
-43.7244
-43.4846
-44.4684
-44.6778
-43.7174
-43.4775
-44.4615
-44.6678
-40.9131
-40.8817
-41.0606
-40.9125
-83.5072
-89.7445
-79.0125
-83.5205
-46.0976
-45.0308
-46.1403
-44.2434
-46.0644
-45.1106
-46.139
-44.238
-45.8724
-45.9142
-45.9137
-46.0325
-32.6308
-33.9195
-33.9224
-35.2753
-35.9307
-36.5822
-34.6597
-35.9101
-77.3897
-89.817
-113.826
74.0062
-179.04
-181.051
-132.81
-14.9089
-79.9118
-63.0666
-73.6062
-72.6416
-41.5248
-40.1932
-42.1815
-39.3419
-43.1506
-42.8384
-43.6795
-41.307
-45.8649
-45.5591
-45.023
-46.0327
-113.596
-113.302
-151.106
101.536
-162.029
-155.436
-115.792
-39.8581
-73.4688
-54.5753
-65.159
-60.4919
-38.1094
-38.2315
-40.2464
-37.525
-34.2039
-32.5293
-33.4677
-33.8338
-35.5505
-36.0301
-36.3642
-34.0932
-178.029
-180.991
-132.666
-12.8736
-77.5885
-89.9154
-113.904
73.6821
-79.8503
-62.9364
-73.2955
-72.5818
-43.1414
-42.8355
-43.6781
-41.2893
-41.4928
-40.1719
-42.1445
-39.3172
-45.8279
-45.5592
-44.9816
-46.0218
-162.284
-154.153
-115.789
-36.5457
-116.425
-130.483
-151.04
101.671
-73.4398
-54.539
-65.153
-60.5012
-34.1582
-32.4914
-33.4445
-33.767
-38.0591
-38.1972
-40.2053
-37.4851
-35.5288
-36.0201
-36.3407
-34.0845
-40.6179
-43.4695
-37.5776
-44.626
-39.4272
-39.334
-39.0333
-39.6387
-37.8572
-38.3297
-37.8468
-38.399
-42.0425
-42.994
-43.4896
-41.8296
-42.9852
-42.4717
-40.7511
-43.4917
-41.1376
-40.4563
-41.2732
-41.0501
-43.8062
-43.1146
-42.9425
-46.1015
-43.8403
-43.9341
-43.1881
-44.4236
-37.8268
-35.0061
-36.6282
-24.7341
-43.2175
-41.0047
-40.6082
-43.2935
-55.5701
-55.6691
-52.765
-59.8431
-5.64628
11.3918
9.63832
-2.48824
-44.7172
-43.7184
-44.4823
-45.4371
-45.2269
-43.7336
-44.7429
-43.9213
-48.6154
-52.2452
-50.0697
-51.8408
-54.3167
-55.3848
-56.7243
-52.7287
-40.7096
-43.4125
-37.6411
-44.6147
-42.0232
-42.9863
-43.4767
-41.8172
-39.4075
-39.3319
-39.0343
-39.6342
-37.8443
-38.3231
-37.8379
-38.3882
-42.9505
-42.4478
-40.7374
-43.4318
-43.8315
-43.9311
-43.1831
-44.413
-41.1312
-40.4326
-41.273
-41.0471
-43.7963
-43.1059
-42.9394
-46.0764
-37.7556
-35.0834
-36.5988
-24.8165
-4.97682
11.5695
9.80606
-2.40971
-43.2233
-41.0059
-40.604
-43.2994
-55.67
-55.6603
-52.7819
-59.8437
-44.7097
-43.7006
-44.4698
-45.4274
-54.3376
-55.3867
-56.7381
-52.7321
-45.2362
-43.7239
-44.7389
-43.9038
-48.6459
-52.2634
-50.0975
-51.8491
-99.5868
-72.416
-83.1951
-82.5544
170.611
192.917
182.47
181.272
-95.7587
-74.9973
-85.0209
-85.0218
21.7999
169.531
131.498
131.502
-50.7302
-50.716
-55.4549
-46.913
-54.2222
-57.066
-59.6506
-52.8351
-42.7271
-43.4319
-43.4502
-42.7011
-37.5028
-36.6698
-37.7753
-36.4911
-44.9487
-45.8174
-45.5688
-45.5684
-39.0688
-37.6235
-38.4175
-38.4146
-44.3351
-45.4337
-43.6071
-46.4058
-45.3747
-45.7537
-45.5964
-45.662
-64.9495
-43.0553
-52.9447
-52.8798
169.616
192.455
182.732
183.183
-45.8234
-47.3805
-42.5106
-53.1554
-28.5736
-24.0307
-32.1095
-20.3364
-32.3252
-32.0803
-32.2131
-32.2071
-33.2423
-34.3504
-33.9791
-34.0102
-42.5033
-45.6139
-42.1991
-45.2049
-35.2328
-34.3632
-36.4055
-33.8358
-99.5535
-72.4301
-83.1996
-82.5837
170.62
192.614
181.251
182.466
-50.7718
-50.75
-55.4859
-46.9399
-54.2476
-57.0422
-59.6611
-53.0119
-42.6681
-43.3841
-42.6553
-43.4003
-37.5282
-36.6148
-37.7588
-36.4168
-44.5386
-44.751
-43.5931
-46.3792
-45.3705
-45.7526
-45.5935
-45.6587
-45.8985
-47.3892
-53.1546
-42.5495
-28.5299
-23.9872
-20.2856
-32.065
-42.4961
-45.6128
-45.1984
-42.1877
-35.23
-34.3669
-33.8338
-36.3997
-41.9325
-42.8819
-41.5197
-42.8771
-40.3249
-40.7196
-40.457
-40.6938
-38.0861
-39.7396
-38.7278
-38.3231
-41.6459
-42.6262
-41.7636
-42.7202
-47.2216
-51.0753
-48.9368
-48.9315
-41.5972
-41.0249
-41.1843
-41.1829
-43.5288
-44.0748
-43.4957
-44.156
-42.7974
-42.2245
-42.1065
-42.3675
-42.3265
-41.5588
-41.8793
-41.8795
-47.497
-46.7037
-46.9542
-46.955
-48.3604
-46.1302
-47.1999
-46.5251
-69.9657
-80.1479
-81.4163
-71.7037
9.90521
-2.60317
3.41903
3.46684
-35.6011
-90.6154
-67.2851
-67.2868
-64.3041
-70.4923
-66.8582
-66.8602
-48.634
-42.3344
-45.7765
-45.7759
-41.9244
-42.8735
-41.5135
-42.8729
-40.3216
-40.7176
-40.4536
-40.6873
-38.0865
-39.7521
-38.327
-38.7396
-41.6425
-42.6212
-41.7599
-42.7187
-43.5261
-44.0723
-44.1552
-43.4931
-42.7994
-42.2071
-42.087
-42.3506
-48.3368
-46.1128
-46.4937
-47.1589
-69.9886
-80.1745
-71.7112
-81.4634
-94.7861
-80.2615
-81.9054
-70.6772
-37.583
-37.686
-40.2124
-38.2973
-38.0537
-38.472
-38.4328
-38.0263
-81.6923
-68.6222
-80.4852
-70.5871
-94.7635
-80.2761
-81.8945
-70.6922
-81.7158
-68.6718
-80.4962
-70.57
-38.0473
-38.4643
-38.4285
-38.024
-37.6089
-37.6952
-40.239
-38.3268
-91.0018
-78.7512
-82.7624
-71.1577
-90.968
-78.7217
-82.7493
-71.1338
-46.8406
-45.9485
-49.4488
-48.272
-46.853
-45.9577
-49.5628
-48.2688
-68.8846
-59.4205
-54.4564
-46.7598
-9.29514
0.423123
-9.52023
-1.11723
-9.20912
0.613909
-9.65319
-0.995378
-68.778
-59.325
-54.3789
-46.6882
134.641
90.7501
180.948
142.052
139.924
127.698
164.602
168.908
127.956
139.961
167.526
164.546
81.9095
134.632
142.099
181.027
-40.0327
-39.8595
-40.6354
-40.8984
-42.2917
-42.4989
-42.6331
-42.8975
-45.4596
-47.1093
-45.2141
-46.5055
-45.3353
-47.5811
-44.5516
-46.0966
-40.0276
-39.8506
-40.6321
-40.8939
-45.3414
-47.5898
-44.5554
-46.1048
-45.4626
-47.1348
-45.2206
-46.527
-42.2914
-42.4966
-42.6333
-42.8951
-40.3367
-40.9244
-40.4811
-40.9143
-40.9158
-40.3277
-40.9093
-40.4754
-42.0628
-41.4456
-41.7327
-41.2494
-41.4412
-42.0664
-41.2514
-41.7346
-87.439
-47.3554
-84.6061
-71.447
-58.5241
-60.3216
-64.9741
-64.7583
-60.3127
-58.511
-64.7591
-64.9738
-47.3815
-87.6697
-71.5444
-84.6199
-41.2423
-42.0537
-41.4093
-41.7372
-44.1543
-44.6986
-44.0779
-45.2175
-41.1333
-40.021
-41.7626
-41.2793
-43.6374
-43.1253
-42.6462
-42.1108
-41.2343
-42.0261
-41.3826
-41.7186
-43.6271
-43.1032
-42.6484
-42.1039
-41.0831
-40.0099
-41.7323
-41.2484
-44.0905
-44.6574
-44.0331
-45.1882
-46.1122
-47.2567
-46.2087
-46.7539
-46.1081
-47.2531
-46.2079
-46.7548
-45.0816
-45.7552
-45.6245
-45.8316
-45.0817
-45.7602
-45.6254
-45.8359
-47.5164
-48.7086
-43.9774
-46.0348
-32.9007
-33.2675
-32.6291
-33.1189
-32.8859
-33.2584
-32.6203
-33.1096
-47.5114
-48.7082
-43.9701
-46.0319
-38.7268
-39.1462
-38.1564
-38.6358
-39.133
-38.7091
-38.6283
-38.1349
-34.9513
-36.4715
-34.8918
-36.1493
-36.5423
-35.0241
-36.2177
-34.9547
-109.694
75.8857
-134.45
32.6193
-104.836
-99.0762
-44.2617
-41.0865
-43.8359
-41.5709
-44.619
-44.3863
-147.411
77.0902
-114.319
37.7833
-93.5415
-88.6577
-38.0818
-36.9801
-33.9275
-35.3798
-36.3346
-34.1115
-134.893
26.8367
-109.657
75.9617
-104.814
-99.0998
-43.8319
-41.5476
-44.1867
-41.0604
-44.5809
-44.3809
-114.145
38.9291
-147.213
77.8866
-93.5053
-88.5022
-33.8982
-35.3156
-38.0431
-36.9279
-36.2936
-34.0899
-37.9285
-42.0032
-38.1007
-39.8933
-37.1143
-37.9878
-42.002
-40.7566
-48.2996
-47.1537
-41.9212
-42.1977
-42.8328
-50.3989
-43.1827
-44.8853
-41.0166
-37.0254
-42.8671
-47.2519
-51.131
-60.5931
-25.1914
-67.3357
-46.4995
-46.1198
-46.9408
-45.8156
-48.6956
-50.0308
-50.9114
-48.2255
-37.9533
-41.9811
-41.977
-40.7289
-38.0766
-39.8517
-37.0979
-37.9631
-48.2221
-47.1186
-43.1759
-44.8702
-41.9246
-42.1937
-42.8351
-50.312
-41.1353
-36.8815
-25.0813
-67.273
-42.8402
-47.2592
-51.2271
-60.6763
-46.53
-46.1824
-50.9205
-48.2268
-46.9277
-45.7912
-48.7203
-50.034
-121.96
80.5541
-142.084
88.7645
-116.081
-112.147
145.496
150.063
-139.694
-14.7885
-139.682
-14.762
-112.176
-112.175
-0.811879
-0.828916
-59.0864
-58.5127
-47.5487
-46.3422
-54.4821
-47.6098
-55.8183
-49.3357
-41.4042
-38.4613
-40.5459
-37.7999
-42.4204
-41.9554
-37.9844
-37.2596
-43.4943
-41.0784
-43.4955
-41.0783
-44.1669
-44.1639
-39.9143
-39.9114
-47.6827
-45.6789
-41.3049
-43.7993
-42.4575
-46.8459
-44.8106
-45.46
-113.581
4.96843
-113.309
-7.11878
-80.5002
-80.3956
138.467
144.939
-54.0796
-45.5269
-37.8444
-25.8736
-40.9938
-49.8579
-36.4821
-27.4357
-32.966
-32.5256
-32.9539
-32.4689
-32.7254
-32.7191
-32.896
-32.9388
-37.5287
-35.0639
-43.0195
-42.8166
-40.0011
-42.4326
-38.0108
-34.8495
-122.09
80.5804
-142.328
88.6755
-116.075
-111.979
150.037
145.378
-58.7831
-58.3768
-47.5468
-46.654
-54.5399
-47.6453
-56.1195
-49.5911
-41.3644
-38.4327
-40.5505
-37.7641
-41.9076
-42.3682
-37.9541
-37.2145
-47.6475
-45.6336
-41.2705
-43.8361
-42.4342
-46.8158
-44.7995
-45.4421
-54.0396
-45.5333
-37.8498
-25.7727
-49.7674
-41.0901
-27.3845
-36.5054
-37.5126
-35.0545
-42.9917
-42.7976
-42.4242
-39.9795
-34.844
-38.0043
-39.3481
-39.6594
-40.9975
-40.3688
-40.4
-41.8936
-39.9977
-40.2876
-38.2244
-39.2585
-39.367
-41.1392
-38.1316
-38.4545
-40.3483
-41.3195
-44.2681
-42.4659
-44.2646
-42.4607
-45.605
-45.607
-41.9791
-41.9769
-43.0553
-44.1631
-43.5717
-43.2809
-43.1883
-43.5886
-43.2142
-42.6029
-43.314
-44.5855
-43.3122
-44.5804
-42.7903
-42.7911
-46.5453
-46.5451
-53.2453
-58.343
-52.1596
-55.1103
-50.5567
-50.0682
-63.3039
-60.2126
17.3357
4.42263
17.4667
4.48048
16.6987
16.751
-11.8834
-11.9111
-58.3896
-53.8025
-58.3883
-53.8068
-61.4181
-61.4184
-51.1604
-51.1597
-39.3469
-39.6549
-41.0471
-40.3736
-40.3981
-41.8943
-39.9927
-40.2843
-38.2201
-39.2516
-39.3631
-41.1383
-38.451
-38.1289
-40.3437
-41.3177
-43.0473
-44.1476
-43.565
-43.2601
-43.5846
-43.1837
-43.1975
-42.5948
-53.1384
-58.2989
-52.2112
-55.0807
-49.6378
-50.3396
-60.1965
-63.3018
-63.9854
-63.5111
-56.2156
-46.2957
-44.446
-55.3649
-42.3435
-41.3565
-64.0037
-63.5202
-56.2444
-46.3136
-55.3213
-44.5129
-41.3536
-42.342
-67.9324
-67.9364
-62.0586
-54.7423
-62.0665
-54.8046
-53.0431
-53.0233
-35.6269
-35.5876
-29.2589
-15.8651
-15.8116
-29.2136