# vtk DataFile Version 2.0
tet_velo
ASCII
DATASET UNSTRUCTURED_GRID
POINTS 29498 float
-0.70818 0.235 -2.115
-0.715 0.255 2.24466
-0.715 0.795 -1.95815
-0.525 1.195 2.13079
0.708174 0.235 -2.115
0.725 0.255 2.23979
0.715 0.795 -1.95815
0.525 1.195 2.13122
-0.807717 0.144403 -0.66178
-0.81804 0.14302 0.79144
-0.762822 1.03949 -0.59517
-0.706457 1.17979 0.76781
0.777512 0.177937 -0.663403
0.786643 0.181082 0.788193
0.762836 1.0395 -0.595027
0.706449 1.17978 0.768097
-1.45954 -0.262281 -3.26856
-1.47575 -0.205319 -2.1423
-1.53897 -0.272183 -0.686879
-1.5314 -0.312568 0.786722
-1.4497 -0.251098 2.24367
-1.42955 -0.190342 3.37741
-1.44036 -0.134765 4.49724
-1.45555 0.113267 -3.22228
-1.46774 0.206221 -2.10586
-1.54203 0.172949 -0.667781
-1.51441 0.161089 0.778514
-1.39408 0.229652 2.21832
-1.39553 0.287945 3.35085
-1.42365 0.340156 4.47361
-1.4538 0.793765 -3.1046
-1.46222 0.884078 -1.98463
-1.50242 1.05224 -0.608034
-1.42503 1.15603 0.762294
-1.26492 1.19199 2.14073
-1.32689 1.24259 3.27782
-1.39604 1.29227 4.41557
-1.45195 1.99867 -2.99508
-1.4577 2.11843 -1.88841
-1.46375 2.3333 -0.540948
-1.44121 2.52027 0.78731
-1.4033 2.6201 2.13598
-1.40161 2.66825 3.24515
-1.42426 2.71171 4.37312
-0.719477 -0.24561 -3.27456
-0.719112 -0.179897 -2.15108
-0.784585 -0.277548 -0.686306
-0.80147 -0.32228 0.797174
-0.745201 -0.242561 2.26241
-0.737154 -0.183269 3.3899
-0.748714 -0.129961 4.50416
-0.719012 0.117595 -3.22422
-0.7266 0.296984 3.36126
-0.744049 0.345499 4.47874
-0.71987 0.758592 -3.09367
-0.674429 1.2474 3.27562
-0.730383 1.29732 4.41467
-0.716013 1.97314 -2.98432
-0.719892 2.09313 -1.87654
-0.7331 2.32733 -0.533888
-0.735904 2.53106 0.786175
-0.724212 2.63116 2.12941
-0.727561 2.67666 3.23854
-0.745938 2.7189 4.36815
0.738983 -0.239481 -3.27489
0.745699 -0.171361 -2.15152
0.771163 -0.250121 -0.687817
0.761264 -0.291792 0.794362
0.718537 -0.231599 2.25864
0.667724 -0.174035 3.38702
0.641012 -0.119399 4.502
0.726488 0.121046 -3.2244
0.634267 0.303067 3.3585
0.619942 0.354698 4.47671
0.726819 0.760813 -3.09378
0.566311 1.25212 3.27453
0.590048 1.30532 4.41326
0.751424 1.97825 -2.98458
0.751113 2.09794 -1.87677
0.732588 2.33288 -0.534138
0.678432 2.53753 0.785861
0.621195 2.6382 2.12896
0.605501 2.68453 3.23784
0.60302 2.7278 4.36722
1.47516 -0.247549 -3.26937
1.48441 -0.185174 -2.14337
1.52169 -0.229195 -0.689385
1.50833 -0.263752 0.782323
1.43963 -0.222268 2.23803
1.38015 -0.167964 3.37247
1.34804 -0.112224 4.49317
1.46197 0.123595 -3.22282
1.46331 0.218105 -2.10643
1.51962 0.212446 -0.669857
1.50218 0.208816 0.774516
1.406 0.25301 2.21292
1.34143 0.306162 3.34624
1.32106 0.360434 4.4698
1.46102 0.800901 -3.10496
1.46248 0.888932 -1.98481
1.5004 1.06641 -0.608589
1.43079 1.17604 0.761172
1.27028 1.20748 2.13912
1.2587 1.25728 3.27535
1.27845 1.31013 4.41278
1.48493 2.01001 -2.99568
1.48429 2.12954 -1.88897
1.46434 2.34624 -0.541593
1.39821 2.53517 0.786482
1.32095 2.63597 2.13485
1.29484 2.68526 3.24362
1.29225 2.73026 4.37121
-0.768674 0.515 -2.09366
-3.01003e-06 0.23021 -2.11979
-0.744284 0.203366 -1.38839
-0.644019 0.725 2.21174
0.00500003 0.306813 2.19041
-0.740281 0.225249 1.51805
0 0.888034 -2.05118
-0.806532 0.984865 -1.27666
0 1.23353 2.16953
-0.661914 1.23358 1.4493
0.768698 0.515 -2.09369
0.744855 0.204457 -1.3892
0.64917 0.725 2.20968
0.746291 0.227572 1.51399
0.80652 0.984853 -1.27659
0.661848 1.23351 1.44966
-0.814953 0.141637 0.0648299
-0.888135 0.591946 -0.628475
-0.0151027 0.143457 -0.662592
-0.892908 0.661405 0.779625
-0.0156983 0.138043 0.789817
-0.736875 1.11188 0.08632
6.71715e-06 1.38506 -0.595098
-3.88805e-06 1.50597 0.767953
0.784642 0.176945 0.062395
0.888673 0.60872 -0.629215
0.893069 0.680432 0.778145
0.736889 1.11189 0.086535
-0.895969 0.553473 -1.33253
-0.890026 0.626676 0.075575
-0.887033 0.693203 1.48368
-0.00755286 0.179077 -1.3888
-0.0154005 0.137986 0.0636125
-0.00534914 0.249514 1.51602
-1.50502e-06 0.515 -2.33147
0.00250001 0.725 2.20303
3.35858e-06 1.06639 -1.27662
1.41455e-06 1.53229 0.0864275
-1.94402e-06 1.40344 1.44948
0.895873 0.56186 -1.3329
0.890378 0.644576 0.074465
0.887077 0.702716 1.48183
-1.08796 0.22061 -2.11043
-0.713646 0.0275513 -2.13304
-0.713596 0.176297 -2.66961
-1.05454 0.242326 2.23149
-0.730101 0.00621945 2.25354
-0.7208 0.275992 2.80296
-1.08861 0.839539 -1.97139
-0.717435 0.776796 -2.52591
-0.717446 1.44407 -1.91734
-0.894961 1.1935 2.13576
-0.599714 1.2212 2.70321
-0.624606 1.91308 2.1301
0.726937 0.0318193 -2.13326
0.717331 0.178023 -2.6697
1.08574 0.226553 -2.11072
0.721769 0.0117003 2.24922
0.679634 0.279033 2.79914
1.0655 0.254005 2.22636
0.72091 0.777906 -2.52597
0.733056 1.44647 -1.91746
1.08874 0.841966 -1.97148
0.545655 1.22356 2.70288
0.573097 1.9166 2.13009
0.897639 1.20124 2.13517
-1.17487 0.158676 -0.664781
-0.796151 -0.0665724 -0.674043
-1.16623 0.152055 0.784977
-0.809755 -0.08963 0.794307
-1.13262 1.04587 -0.601602
-0.747961 1.68341 -0.564529
-1.06575 1.16791 0.765052
-0.72118 1.85543 0.776992
0.774338 -0.0360916 -0.67561
1.14856 0.195192 -0.66663
0.773953 -0.0553553 0.791278
1.14441 0.194949 0.781355
0.747712 1.68619 -0.564582
1.13162 1.05296 -0.601808
0.69244 1.85866 0.776979
1.06862 1.17791 0.764634
-1.46765 -0.2338 -2.70543
-1.45755 -0.0745071 -3.24542
-1.08951 -0.253945 -3.27156
-1.50736 -0.238751 -1.41459
-1.47175 0.00045074 -2.12408
-1.09743 -0.192608 -2.14669
-1.53519 -0.292375 0.0499215
-1.5405 -0.0496169 -0.67733
-1.16178 -0.274865 -0.686593
-1.49055 -0.281833 1.5152
-1.52291 -0.0757396 0.782618
-1.16644 -0.317424 0.791948
-1.43962 -0.22072 2.81054
-1.42189 -0.0107228 2.231
-1.09745 -0.246829 2.25304
-1.43495 -0.162553 3.93732
-1.41254 0.0488017 3.36413
-1.08335 -0.186805 3.38365
-1.43201 0.102695 4.48542
-1.09454 -0.132363 4.5007
-1.46164 0.159744 -2.66407
-1.45468 0.453516 -3.16344
-1.08728 0.115431 -3.22325
-1.50488 0.189585 -1.38682
-1.46498 0.545149 -2.04524
-1.52822 0.167019 0.0553663
-1.52222 0.612595 -0.637908
-1.45425 0.19537 1.49842
-1.46972 0.658557 0.770404
-1.3948 0.258799 2.78459
-1.3295 0.710823 2.17953
-1.40959 0.31405 3.91223
-1.36121 0.765267 3.31434
-1.06107 0.292465 3.35606
-1.40985 0.816215 4.44459
-1.08385 0.342827 4.47617
-1.45801 0.838921 -2.54461
-1.45288 1.39622 -3.04984
-1.08684 0.776179 -3.09914
-1.48232 0.968159 -1.29633
-1.45996 1.50125 -1.93652
-1.46373 1.10413 0.0771298
-1.48308 1.69277 -0.574491
-1.34498 1.17401 1.45151
-1.43312 1.83815 0.774802
-1.29591 1.21729 2.70928
-1.33411 1.90605 2.13835
-1.36147 1.26743 3.8467
-1.36425 1.95542 3.26149
-1.00066 1.24499 3.27672
-1.41015 2.00199 4.39435
-1.06321 1.29479 4.41512
-1.45482 2.05855 -2.44174
-1.08398 1.9859 -2.9897
-1.46072 2.22587 -1.21468
-1.0888 2.10578 -1.88248
-1.45248 2.42679 0.123181
-1.09843 2.33032 -0.537418
-1.42226 2.57018 1.46164
-1.08856 2.52567 0.786742
-1.40246 2.64418 2.69056
-1.06376 2.62563 2.13269
-1.41293 2.68998 3.80914
-1.06459 2.67246 3.24185
-1.0851 2.7153 4.37064
-0.719294 -0.212754 -2.71282
-0.719244 -0.0640076 -3.24939
0.00975313 -0.242546 -3.27473
-0.751848 -0.228722 -1.41869
0.0132937 -0.175629 -2.1513
-0.793027 -0.299914 0.0554337
-0.00671083 -0.263834 -0.687062
-0.773335 -0.282421 1.52979
-0.020103 -0.307036 0.795768
-0.741178 -0.212915 2.82615
-0.013332 -0.23708 2.26053
-0.742934 -0.156615 3.94703
-0.731877 0.0568578 3.37558
-0.0347148 -0.178652 3.38846
-0.746382 0.107769 4.49145
-0.053851 -0.12468 4.50308
-0.719441 0.438094 -3.15895
0.00373819 0.11932 -3.22431
-0.735324 0.321242 3.92
-0.700514 0.772193 3.31844
-0.0461662 0.300026 3.35988
-0.737216 0.821407 4.4467
-0.0620535 0.350099 4.47773
-0.717942 1.36587 -3.03899
0.00347454 0.759703 -3.09373
-0.702406 1.27236 3.84515
-0.700995 1.96203 3.25708
-0.054059 1.24976 3.27508
-0.73816 2.00811 4.39141
-0.0701674 1.30132 4.41397
-0.717953 2.03314 -2.43043
0.0177051 1.97569 -2.98445
-0.726496 2.21023 -1.20521
0.0156101 2.09553 -1.87665
-0.734502 2.42919 0.126143
-0.000255717 2.3301 -0.534013
-0.730058 2.58111 1.45779
-0.0287361 2.5343 0.786018
-0.725886 2.65391 2.68398
-0.0515085 2.63468 2.12918
-0.736749 2.69778 3.80335
-0.0610301 2.6806 3.23819
-0.0714586 2.72335 4.36769
0.742341 -0.205421 -2.71321
0.732736 -0.0592177 -3.24964
1.10707 -0.243515 -3.27213
0.758431 -0.210741 -1.41967
1.11505 -0.178268 -2.14744
0.766213 -0.270956 0.0532723
1.14643 -0.239658 -0.688601
0.7399 -0.261696 1.5265
1.1348 -0.277772 0.788342
0.693131 -0.202817 2.82283
1.07908 -0.226934 2.24834
0.654368 -0.146717 3.94451
0.650996 0.0645159 3.37276
1.02394 -0.170999 3.37974
0.630477 0.11765 4.48935
0.994525 -0.115812 4.49758
0.726654 0.440929 -3.15909
1.09423 0.12232 -3.22361
0.627105 0.328883 3.91761
0.600289 0.777594 3.31651
0.987848 0.304614 3.35237
0.604995 0.830007 4.44499
0.970502 0.357566 4.47325
0.739122 1.36953 -3.03918
1.09392 0.780857 -3.09937
0.578179 1.27872 3.8439
0.585906 1.96833 3.25619
0.912507 1.2547 3.27494
0.596534 2.01656 4.39024
0.93425 1.30772 4.41302
0.751268 2.03809 -2.43067
1.11817 1.99413 -2.99013
0.74185 2.21541 -1.20545
1.1177 2.11374 -1.88287
0.70551 2.43521 0.125862
1.09846 2.33956 -0.537865
0.649813 2.58786 1.45741
1.03832 2.53635 0.786172
0.613348 2.66136 2.6834
0.97107 2.63709 2.1319
0.604261 2.70617 3.80253
0.950172 2.68489 3.24073
0.947637 2.72903 4.36922
1.47979 -0.216361 -2.70637
1.46857 -0.0619768 -3.2461
1.50305 -0.207185 -1.41638
1.47386 0.0164654 -2.1249
1.51501 -0.246473 0.0464691
1.52065 -0.0083744 -0.679621
1.47398 -0.24301 1.51018
1.50526 -0.0274682 0.778419
1.40989 -0.195116 2.80525
1.42281 0.0153708 2.22548
1.36409 -0.140094 3.93282
1.36079 0.069099 3.35935
1.33455 0.124105 4.48148
1.46264 0.17085 -2.66463
1.4615 0.462248 -3.16389
1.49146 0.215276 -1.38815
1.46289 0.553519 -2.04562
1.5109 0.210631 0.0523297
1.51001 0.63943 -0.639223
1.45409 0.230913 1.49372
1.46648 0.692426 0.767844
1.37371 0.279586 2.77958
1.33814 0.730243 2.17602
1.33125 0.333298 3.90802
1.30007 0.78172 3.31079
1.29976 0.83528 4.44129
1.46175 0.844916 -2.54488
1.47297 1.40545 -3.05032
1.48144 0.977673 -1.2967
1.47338 1.50924 -1.93689
1.4656 1.12123 0.0762916
1.48237 1.70633 -0.575091
[...]
POINT_DATA 29498
VECTORS point_vectors float
-0.575623 -1.79912 4.26553
0.300991 0.884112 3.22775
-1.09739 1.07691 2.19192
-0.6185 -0.384985 0.101996
0.580631 -1.79135 4.27994
-0.413559 0.799426 3.51351
1.0978 1.07098 2.18801
0.70722 -0.0955469 -0.158429
-0.0299572 -0.0281933 1.18724
0.0858713 -0.0739283 0.664122
0 0 0
0.0104061 0.0225819 0.0687847
0.00712939 -0.00521403 0.289634
-0.0531522 -0.0460523 0.519257
0 0 0
-0.010471 0.0228978 0.0678647
-0.566926 -0.347852 19.8468
-1.22122 -0.851252 20.5437
-0.444532 -0.360303 21.5282
0.168421 -0.0191713 21.7413
0.73567 0.33392 21.5783
0.936581 0.414563 21.0479
0.826106 0.149408 20.961
-0.74723 -0.287332 19.712
-1.9265 -0.811018 20.4816
-0.617079 -0.485709 21.6494
0.180723 -0.20516 21.8228
1.13006 0.0713843 21.6412
1.33956 0.087471 21.4903
1.21672 -0.104751 21.3487
-0.93131 0.0697348 19.5774
-2.36424 0.199336 20.4466
-1.30853 -0.331732 21.7143
-0.212076 -0.473711 21.9667
0.601525 -0.869245 21.5053
0.809156 -0.944447 21.6252
1.01711 -0.603452 20.8462
-0.562941 0.427514 19.9523
-0.873973 0.673524 20.4591
-0.754552 0.462666 21.2572
-0.282844 0.0476251 21.5878
-0.0158411 -0.242158 21.372
0.100487 -0.297738 21.2509
0.144108 -0.266147 20.8232
-0.527384 -0.703107 19.3647
-1.53271 -2.96873 20.5935
-0.494657 -0.700318 21.9474
0.0817602 0.134385 22.0947
0.619921 1.10653 21.4049
0.927039 1.36217 20.8311
0.952344 0.918347 19.94
-0.710629 -0.615233 18.9455
2.14102 1.70543 12.84
2.0862 1.24867 14.7044
-1.07432 0.231177 18.3507
0.715011 -0.886585 9.39351
1.16966 -1.38864 15.7629
-0.454616 0.778276 19.6296
-0.843599 1.49441 20.1994
-0.839105 1.23476 21.3836
-0.282511 0.188144 21.8588
-0.047194 -0.21756 21.5242
0.0449171 -0.472268 21.102
0.0434156 -0.329482 21.041
0.541033 -0.682323 19.3647
1.59396 -2.88627 20.5897
0.503234 -0.61611 21.9755
-0.0839435 0.0926488 22.0692
-0.650617 1.04506 21.2575
-0.903171 1.42844 20.5233
-0.977586 1.00366 18.6038
0.71876 -0.60423 18.9535
-1.80193 1.54106 11.4793
-2.11055 1.4837 12.9824
1.08133 0.234701 18.3646
-0.194832 -0.347739 4.03856
-0.930163 -1.05977 10.6241
0.463476 0.762043 19.6457
0.862347 1.45756 20.2083
0.827256 1.22594 21.3758
0.251181 0.220923 21.8739
0.0247327 -0.192469 21.5436
-0.0843076 -0.400039 21.1812
-0.0218651 -0.279216 21.0411
0.563927 -0.341238 19.8516
1.23652 -0.837117 20.5548
0.448008 -0.376966 21.5379
-0.161354 -0.030357 21.712
-0.740634 0.274472 21.5513
-0.977501 0.377945 21.0615
-0.914514 0.25206 21.1124
0.750235 -0.28195 19.7116
1.94969 -0.81137 20.4896
0.597089 -0.513032 21.67
-0.175104 -0.234318 21.8134
-1.06309 -0.0123517 21.6171
-1.33642 0.0263198 21.6063
-1.34083 0.0639725 20.8292
0.923997 0.0684449 19.5923
2.34982 0.194903 20.45
1.31386 -0.329998 21.7062
0.219626 -0.463718 21.9341
-0.492357 -0.820146 21.4803
-0.737357 -0.934782 21.5618
-1.14868 -0.843695 20.2128
0.558139 0.403794 19.9716
0.854987 0.652477 20.4628
0.746979 0.46259 21.2495
0.254986 0.0513809 21.593
0.0161022 -0.220625 21.3688
-0.0875469 -0.294059 21.3754
-0.166237 -0.304726 20.7681
-0.692079 -0.138529 1.09581
-8.9365e-05 -0.0214752 0.142244
-0.0255045 -0.000654087 0.20837
-0.0725941 -0.0628992 0.019172
-0.00363019 0.0256662 0.118275
0.043527 0.00758642 0.3019
4.18648e-05 0.108899 0.232655
-0.442381 -0.184458 1.22949
-0.465715 0.598936 -0.541286
0 0 0
0.699956 -0.142936 1.10791
0.0304347 0.00134729 0.263676
0.0779591 -0.0792359 0.0283468
-0.092343 0.0150744 0.595258
0.442708 -0.184956 1.22771
0 0 0
0.00418125 -0.00388309 0.527649
6.36438e-05 0.00462053 0.0441407
7.812e-06 -5.67385e-05 0.00466636
0.000247382 0.0116461 0.0960653
0 0 0
0 0 0
-0.000101248 0.0689123 0.174307
-2.09507e-05 -0.000196543 0.00234372
-0.00504006 -0.0053822 0.347286
-0.000112202 0.00456919 0.0458913
-0.000323081 0.0142338 0.119633
0 0 0
-0.00156611 0.000854822 0.160558
2.04465e-05 0.00163088 0.0131152
0.00218597 0.00384399 0.066965
2.01602e-05 -0.000786827 0.0128067
0 0 0
0 0 0
-0.000221351 -0.00309226 0.101838
-0.0117241 -0.0235734 0.0134322
0 0 0
-5.36919e-05 0.00196467 0.0385354
-1.13456e-05 -1.39711e-05 6.96383e-05
0.00178319 7.21121e-05 0.128497
-9.42106e-05 0.00248059 0.0159793
-0.000429047 0.000663633 0.0125523
-3.57458 -2.0414 20.3035
-2.51385 -4.80212 20.8596
-2.07297 -1.88751 17.7743
1.63386 0.562042 18.564
0.958037 1.36887 17.0632
1.34285 1.10406 9.44191
-4.63111 0.844863 20.2284
-3.34092 1.41472 16.4086
-2.13217 2.81505 19.7345
0.76318 -0.405483 14.0327
-0.676118 -0.861401 3.34065
-0.269361 -0.462876 21.6631
2.59459 -4.72985 20.8804
2.08831 -1.87343 17.7902
3.62441 -2.05479 20.3224
-1.03994 1.2356 17.1079
-1.24658 0.724298 8.47046
-1.55133 0.429406 18.7903
3.33772 1.40891 16.4491
2.14251 2.74488 19.7522
4.62813 0.843334 20.2366
1.03111 -0.59288 0.109673
0.196105 -0.345475 21.4451
-0.676336 -0.258714 14.1541
-0.456565 -0.576689 21.8179
-0.566976 -0.554224 20.5344
0.318608 -0.0846331 21.1486
0.294471 0.166993 19.6334
-2.03901 -1.02362 22.0185
-2.82346 2.35483 21.7732
-0.0210537 -0.413887 19.987
-0.657199 0.186693 22.377
0.530371 -0.361455 19.7891
0.33839 -0.572417 21.4079
-0.338195 0.0431713 18.365
-0.288664 -0.0734648 20.5181
2.79901 2.35445 21.7629
2.06261 -1.02451 21.9618
0.628866 0.231584 22.3756
0.0655239 -0.452783 20.2071
-0.923704 -0.616961 20.0228
-0.675689 -0.324578 19.7985
-0.592976 -0.515138 19.6171
-0.847373 -0.65663 21.2581
-1.56061 -0.877722 20.5065
-1.55411 -1.63199 20.5109
-0.129716 -0.167147 21.6686
-0.553094 -0.450753 21.5701
-0.461923 -0.518567 21.7218
0.480672 0.17644 21.7027
0.166101 -0.0986863 21.7495
0.177382 0.0356829 21.9155
0.851872 0.431049 21.4744
0.928191 0.248896 21.5952
0.826439 0.6906 21.6544
0.950082 0.358996 20.8405
1.13412 0.248988 21.4176
1.11974 0.877063 21.1154
1.02141 0.0223284 21.1548
1.05354 0.675492 21.2753
-1.35304 -0.530038 19.8011
-0.874264 -0.148666 19.5932
-0.810769 -0.473649 19.3813
-1.27235 -0.718881 21.4495
-2.37081 -0.369271 20.4683
-0.194949 -0.330351 21.7486
-0.906281 -0.542505 21.7298
0.662084 -0.0878635 21.8593
0.0642974 -0.405767 21.9432
1.29053 0.10496 21.4774
1.15295 -0.545413 21.555
1.57533 0.135831 20.7433
1.35661 -0.414336 21.6623
1.81477 0.734926 18.4584
1.36664 -0.614281 20.8403
1.63213 0.556776 18.3928
-1.72906 0.187233 19.6849
-0.794427 0.37467 19.71
-1.08288 0.143285 19.0705
-1.93121 -0.142762 21.3567
-1.56715 0.741886 20.378
-0.712457 -0.438259 21.9375
-1.29777 0.317746 21.4866
0.232796 -0.624962 21.9271
-0.415793 -0.142102 21.8012
0.711857 -0.914535 21.5275
0.0633244 -0.49505 21.5615
0.692757 -0.781559 21.7681
0.231303 -0.607297 21.267
1.06381 -0.968088 17.4611
0.261153 -0.441278 21.34
1.2081 -1.05624 18.5361
-0.751654 0.594507 20.1477
-0.547054 0.588029 19.8075
-0.891515 0.6365 20.8875
-0.948207 1.05734 20.3406
-0.535989 0.253313 21.4893
-0.86978 0.825578 21.3377
-0.0903838 -0.119193 21.4936
-0.284595 0.116192 21.7581
0.063202 -0.265399 21.2808
-0.0276995 -0.24595 21.424
0.131222 -0.249786 21.1024
0.0540479 -0.3984 21.4083
0.114729 -0.331122 20.8769
-1.0784 -1.65511 19.2407
-0.626676 -0.669125 19.1361
0.00229824 -0.874593 19.1145
-0.863305 -1.4472 21.8081
0.0284157 -4.029 20.9798
-0.214124 -0.257181 22.008
0.0255983 -0.933085 22.1864
0.409375 0.765204 21.9747
-0.015811 0.0593727 22.0169
0.766621 1.194 21.0945
-0.0378831 1.10788 20.9922
0.797759 1.48008 20.4939
1.53403 1.63664 17.156
0.0129801 1.59785 20.2275
1.56625 1.12296 17.3186
-0.0586566 1.81035 18.4349
-0.986525 -0.255843 18.4889
0.00706215 -0.846201 18.5092
1.98798 1.2114 13.247
2.04443 -0.743072 7.36134
-0.0965529 1.7765 6.50088
2.18106 0.0936232 14.4608
0.320054 1.96333 12.4604
-0.787486 0.840832 19.012
0.00631567 0.398941 17.5362
0.960823 -1.13444 11.7848
0.015479 -0.756905 21.4837
0.152702 0.226006 -4.4705
0.0779632 -0.763493 19.2899
0.358541 0.348363 3.69644
-0.659741 1.18061 19.8157
0.0198779 0.961461 19.4655
-0.911996 1.53698 20.7604
0.015349 1.91671 20.0538
-0.53799 0.67173 21.8131
-0.00397325 1.86001 21.4369
-0.14724 -0.087975 21.6704
-0.0243997 0.356217 21.9907
0.013148 -0.268072 21.388
-0.029939 -0.175521 21.4804
0.0367079 -0.281867 21.5823
-0.0260904 -0.390544 21.2737
-0.0192889 -0.371667 20.9836
1.09048 -1.61004 19.2614
0.633652 -0.647833 19.1489
0.592274 -0.503006 19.6299
0.887325 -1.39937 21.8813
1.58909 -1.59805 20.5123
0.215321 -0.236503 21.99
0.422512 -0.483425 21.7294
-0.435246 0.74318 21.9543
-0.178845 0.0283849 21.8977
-0.750888 1.18906 21.0425
-0.846481 0.646199 21.6506
-0.720373 1.72211 20.2045
-1.49594 1.69395 17.0038
-1.13165 0.892555 21.2743
-1.55065 1.23128 15.7423
-1.06987 0.656744 21.4822
0.997922 -0.25072 18.5057
0.816725 -0.469145 19.3772
-1.92344 1.43022 11.7839
-1.47156 -0.275569 4.43569
-1.91008 0.800868 17.3648
-1.97632 0.382614 10.7703
-1.76576 0.783524 16.8533
0.794147 0.826468 19.0298
1.07902 0.143277 19.0847
-0.208632 -0.811219 7.3052
-0.00742273 -0.639584 21.81
-0.96946 -0.906849 15.4812
-0.107697 -0.681108 19.1092
-1.12621 -1.16926 16.9689
0.672448 1.15035 19.8331
0.544064 0.567991 19.8232
0.913095 1.50481 20.7622
0.939686 1.01934 20.3474
0.51761 0.691529 21.8098
0.85722 0.81996 21.3255
0.105491 -0.0546511 21.6957
0.268461 0.147872 21.7687
-0.0372405 -0.222591 21.3591
0.0213542 -0.20066 21.4503
-0.0403431 -0.236067 21.614
-0.0718914 -0.412794 21.3203
-0.0969817 -0.289668 20.9723
0.935247 -0.607488 20.0259
0.679063 -0.317681 19.805
0.879624 -0.667489 21.2784
1.57828 -0.872549 20.5192
0.109599 -0.171606 21.6732
0.55257 -0.48181 21.5771
-0.489845 0.144981 21.7184
-0.147464 -0.138271 21.7151
-0.867645 0.363886 21.4741
-0.902945 0.182226 21.5891
-1.00797 0.418826 20.8035
-1.1608 0.22363 21.4123
-1.12143 0.141482 21.3546
1.36157 -0.524674 19.7981
0.872101 -0.144297 19.6033
1.28716 -0.739802 21.4792
2.37148 -0.362113 20.4747
0.179332 -0.355887 21.7453
0.915034 -0.571173 21.742
-0.63101 -0.139038 21.8262
-0.0478815 -0.413441 21.9228
-1.25654 0.0331016 21.4843
-1.02231 -0.567568 21.5193
-1.74157 0.170248 20.6419
-1.33899 -0.458402 21.8174
-1.51392 -0.840279 20.3595
1.71518 0.183797 19.6955
0.778215 0.369131 19.7298
1.93234 -0.138628 21.3514
1.5311 0.722712 20.3824
0.719001 -0.433494 21.9177
1.28611 0.32604 21.4729
-0.197412 -0.598179 21.8864
0.421976 -0.124238 21.7931
-0.58779 -0.886759 21.4883
-0.0369166 -0.454924 21.5341
-0.688279 -0.816291 21.9535
-0.192425 -0.543846 21.1842
-0.147177 -0.402551 21.9353
0.733361 0.56398 20.1655
0.870582 0.618079 20.8867
0.53671 0.273379 21.4799
0.0819093 -0.115053 21.4965
-0.0459665 -0.254277 21.2338
-0.158417 -0.321641 21.0439
-1.13611 -0.595398 19.9257
-1.50512 -1.90295 18.6498
-1.12074 -1.07481 19.6978
-1.87525 -1.04362 19.0815
-0.740363 -0.520087 19.4975
-2.3384 -2.01373 20.483
-1.08088 -0.71781 21.3323
-1.01057 -1.35581 21.6292
-0.953434 -1.05635 21.5432
-1.46951 -1.27876 22.1035
-0.506642 -0.535606 21.8347
-0.177845 -0.255865 21.7027
-0.161733 -0.135928 19.7028
-0.148161 -0.21572 21.8216
-0.0243756 -0.24179 21.362
0.254241 -0.00975887 21.916
0.552814 0.0664538 21.7549
0.930057 0.980653 17.2761
0.560641 0.392533 21.8661
1.03299 0.110753 19.6432
1.25515 0.771825 21.0636
1.113 0.305734 21.3701
1.16112 1.56062 17.614
0.977326 0.812731 21.3665
1.87378 0.608833 19.3251
1.57258 0.946526 21.2849
1.39161 0.241817 20.606
1.19183 1.41133 17.9782
0.99506 0.768867 21.1614
1.90679 0.284051 19.9041
1.34273 0.621774 21.0201
-1.64836 -0.246874 19.6649
-3.10529 -0.682394 16.5033
-2.59831 0.525 18.6905
-1.04898 -0.192312 19.0907
-4.94319 -0.783784 20.2168
-1.6815 -0.54765 21.5119
-3.12088 -0.42948 21.9409
-0.676925 -0.953962 20.8571
-0.35876 -0.466948 21.8916
-0.851269 -0.856614 20.9678
0.237695 0.0299453 18.3355
0.579617 -0.436718 21.8626
0.617247 -0.0622189 17.9014
1.31671 -0.228446 12.2148
1.29586 -0.553629 21.4934
0.114653 -0.810428 2.90266
0.774334 -0.765196 17.2468
1.81386 -0.71571 15.5794
1.21375 -0.389048 21.3342
2.15052 0.169726 9.84433
0.989292 -1.03343 17.9468
1.84936 -0.63626 18.3309
-1.26037 0.629675 19.8914
-1.47205 1.89595 18.898
-0.773024 0.86735 19.9945
-0.84722 0.56626 19.4089
-2.03877 1.47441 20.1359
-1.54421 0.593015 20.9966
-2.46053 2.49352 20.5695
-0.992632 1.03866 20.8472
-1.96578 0.806558 21.6863
-0.847115 0.0574231 21.7699
-1.68639 1.1186 22.6258
-0.584641 0.426404 21.6749
-0.574066 -0.0734024 22.0383
-0.110274 -0.341473 21.7006
-0.29414 -0.295859 22.017
-0.113052 -0.110647 21.586
-0.0701282 -0.562073 21.6585
0.167305 -0.598766 21.4612
-0.172856 -0.611481 21.7238
0.00995261 -0.320541 21.2721
0.156107 -0.743718 21.3341
0.394321 -0.589816 20.9623
0.0142017 -0.729968 21.2846
0.13303 -0.454921 20.9303
0.0614395 -0.53668 22.2625
1.53017 -1.87686 18.6827
0.0214811 -2.41554 18.768
0.0129879 -3.15019 15.9729
0.00509482 -0.945104 18.7618
0.0117905 -5.62849 22.2694
1.01553 -1.23958 21.4955
0.0247496 -1.82288 22.091
0.0440788 -0.624523 17.2676
0.0988264 -0.0694913 18.6596
0.00393385 -0.435613 22.0607
-0.0478575 0.0815222 15.6731
-0.993606 0.909007 17.2916
-0.0263182 0.801433 21.6603
-0.0730457 0.975843 13.0557
-1.15781 1.42552 17.2241
-0.0241304 1.32369 20.2218
-0.176862 0.330081 4.08084
-0.078597 1.9038 14.8883
-1.14693 1.58239 17.4491
-0.000732197 1.82111 19.7482
0.216541 1.93939 7.97185
0.249905 2.05247 15.8399
3.1181 -0.674096 16.5256
0.0139811 2.98967 13.4118
0.00588308 -0.338731 17.741
0.209613 -0.94842 1.272
-0.187686 0.740958 -4.4573
0.65618 1.44196 -1.72887
-1.78196 0.374388 6.84497
-0.102792 -0.475813 -0.309565
0.719867 2.08053 0.19284
1.47686 1.84806 18.9298
0.0227167 1.51014 19.6485
0.0166332 1.17398 18.5627
0.0299067 4.02105 19.3388
2.44945 2.45559 20.5774
0.0110593 2.10173 20.6439
-0.00503449 4.55589 21.5746
1.66105 1.17047 22.6328
-0.0214595 1.00841 21.9529
-0.0310806 0.568909 22.6195
0.262605 -0.236715 21.9331
-0.0282697 -0.0179765 21.7163
-0.0802798 -0.131749 21.1356
0.133562 -0.4348 21.708
-0.031602 -0.26246 21.4927
-0.133403 -0.573029 21.1263
-0.0899085 -0.6618 21.6497
-0.0489907 -0.445928 21.085
-0.090611 -0.540273 21.4588
1.13912 -0.586676 19.9354
1.14485 -1.04907 19.6995
1.89162 -1.02908 19.0838
0.741199 -0.514713 19.4989
2.37216 -1.98439 20.4859
1.0996 -0.736854 21.3559
0.955773 -1.04936 21.5741
1.44107 -1.3139 22.1773
0.426784 -0.518309 21.8484
0.171122 -0.290595 21.6916
0.119025 -0.205861 21.7858
-0.0239856 -0.228805 20.6293
-0.261577 -0.0312571 21.7891
-0.550895 0.0205953 21.7459
-0.558099 0.378269 21.8776
-0.971336 0.075034 19.4544
-1.2399 0.672487 21.0638
-1.11034 0.248052 21.3824
-0.997192 0.784827 21.3154
-1.80695 0.516986 18.6727
-1.65222 1.03646 20.2117
-1.51079 0.275016 20.6165
-0.990789 0.861348 21.2258
-1.8866 0.352052 18.6291
-1.5099 0.763108 19.7119
1.64523 -0.23809 19.6797
2.58368 0.52164 18.7121
1.04768 -0.187437 19.1102
4.93862 -0.777881 20.2373
1.69742 -0.557657 21.5229
3.12712 -0.430268 21.9224
0.663747 -1.00825 20.6246
0.370408 -0.483998 21.8869
0.885115 -0.85925 21.082
-0.238978 0.0474267 18.2186
-0.529794 -0.446216 21.8129
-0.591638 -0.0656736 18.0223
-1.17997 -0.318831 12.3227
-1.18316 -0.603523 21.478
-0.549664 -0.527531 15.6798
-1.77502 -0.953009 13.1238
-1.39635 -0.350794 21.2868
-0.878046 -1.11401 15.5103
-1.92284 -0.48403 16.9138
1.23173 0.611445 19.9148
0.769796 0.835802 20.007
0.841856 0.555766 19.4341
2.01633 1.43199 20.1478
1.52311 0.584718 20.9891
0.976032 1.01417 20.8442
1.93827 0.817027 21.6675
0.843265 0.0739145 21.756
0.568187 0.448939 21.6651
0.566805 -0.0451423 22.0306
0.119775 -0.318952 21.6889
0.103442 -0.0827685 21.5809
0.0971249 -0.48559 21.6416
-0.120438 -0.537719 21.4722
-0.0302742 -0.275438 21.3296
-0.130112 -0.677708 21.4339
-0.227678 -0.463478 21.6081
-0.119567 -0.376286 21.1014
-0.0469295 -0.608264 21.4228
-1.48347 -1.15534 19.4397
-1.17458 -1.17552 21.7557
-0.119916 -0.231113 21.8553
0.858717 0.381182 21.643
1.43044 0.858472 20.959
1.47413 0.671004 21.0791
-2.52402 -0.397543 18.6316
-1.98706 -1.14867 21.6973
-0.0683352 -0.381809 19.3033
0.672288 0.199936 15.9056
1.59783 -0.383852 15.7378
1.87073 -0.231912 17.4075
-1.50006 1.11722 19.4828
-2.18562 1.24363 20.928
-1.24567 0.303134 22.0951
-0.197841 -0.378378 21.8545
0.03782 -0.676659 21.5394
0.207962 -0.712952 21.8494
0.0173441 -2.99073 17.7729
0.0363155 -1.41074 19.425
0.00585689 -0.246056 15.8858
-0.0571729 0.884626 13.2905
-0.0765496 1.18939 13.9755
0.129393 2.24776 14.66
0.0138337 -1.00554 13.3682
0.205725 0.331888 -0.678822
0.750373 1.54933 0.801416
0.0267668 2.78801 18.2554
0.0134334 4.0947 19.8804
-0.0264017 2.22262 22.9717
-0.0436463 -0.0554765 21.8458
-0.106923 -0.263673 21.1669
-0.102578 -0.668878 21.3383
1.48979 -1.14497 19.4453
1.15521 -1.18044 21.8232
0.0646265 -0.225845 21.7953
-0.867999 0.338968 21.5006
-1.44517 0.806585 20.8174
-1.45608 0.668108 20.2686
2.51505 -0.389403 18.6551
2.00838 -1.18931 21.6925
0.0757157 -0.374949 19.0471
-0.657863 0.209113 15.9614
-1.2702 -0.492602 13.8159
-1.92147 -0.233191 14.9436
1.48075 1.0824 19.5171
2.15184 1.22275 20.9223
1.24618 0.333533 22.0871
0.19741 -0.340222 21.8311
0.0282819 -0.553901 21.5124
-0.0980649 -0.664251 21.4248
-1.08194 -0.412325 1.58167
-0.00755333 -0.0116707 0.0980096
-0.0230503 -0.000460855 0.200124
0.0082332 -0.053744 0.0192488
-0.000369908 0.0071981 0.0280093
-0.00781884 0.0988799 0.704036
-1.65041 0.395348 2.05598
-0.0229099 0.107409 0.20324
-0.127117 0.0010377 0.290166
-0.0187153 -0.0130432 -0.00146058
-1.07239 0.236479 -0.242461
-0.0434528 -0.051089 0.102119
0.00803986 -0.0112279 0.0996755
1.07481 -0.408977 1.57076
0.0229901 -0.00157447 0.216956
-0.00150683 0.00946506 0.0361026
-0.0178774 -0.0421164 0.0329825
-0.0370209 0.0830387 0.779654
0.0230202 0.107838 0.204309
1.67065 0.39627 2.0754
0.123173 0.0016989 0.284301
0.547951 0.730683 -0.670068
0.0383368 -0.0233541 -0.00482084
0.0318453 -0.0372543 0.0788728
-0.363661 -0.137409 2.33597
-0.00175476 -0.00684032 0.556555
-0.00210769 0.014383 0.189434
0 0 0
0.00873065 0.00686478 0.0397842
0.0163209 -0.0121759 0.483527
-2.04081e-05 0.000208225 0.00480832
0 0 0
0 0 0
0.00493762 0.0217845 0.147999
0 0 0
-0.006969 0.0115784 0.0291298
0.0465512 0.0844018 0.359874
0.012618 0.0286756 0.139202
0.00318938 0.0075097 0.0169327
0.0160735 -0.00590365 0.0845844
0.066272 -0.0119334 0.497538
0 0 0
-0.00180752 -0.00360334 0.211867
0.00137562 0.00907369 0.124557
-0.0187475 0.00673174 0.0515614
-4.66246e-18 -9.78054e-19 4.3161e-17
-0.0144185 -0.00610923 0.415552
1.25041e-20 -2.10076e-18 -2.56319e-17
0 0 0
0.00879537 0.0110377 0.0290667
-0.00335562 0.0161143 0.110791
0 0 0
-0.0476908 0.0879198 0.357223
-0.017033 -0.005802 0.0844789
-0.0104529 0.0240523 0.112927
-0.0030556 0.00706 0.017769
-0.0158887 -0.0109967 0.11783
-0.0844154 0.0831785 0.077048
0 0 0
-0.000298121 -0.12211 0.0515914
0 0 0
2.89046e-05 -0.000287767 0.00434963
0.00580149 -0.00382174 0.0412156
-0.0125351 -0.00939819 0.00451618
0 0 0
-0.00252435 -0.0127606 0.00145544
0.00497019 0.00466414 0.185397
-3.27379e-06 -4.47132e-06 -2.15967e-05
0 0 0
1.78865e-06 0.0160999 0.0590038
-0.0173897 -0.0228401 0.201831
0 0 0
-0.146767 -0.30488 -0.0480575
-0.00244165 0.00146583 -0.00472824
0.00145951 0.000168493 0.0199128
-0.000517365 -0.000751952 0.0028558
0.0843253 0.0828773 0.0770991
0 0 0
6.96728e-05 -0.000190877 0.0029064
0 0 0
0.00333099 -0.0116065 0.00527906
-0.00807047 -0.00644322 0.0585225
0 0 0
-0.00166809 -7.47237e-05 0.0637468
0 0 0
0.0199635 -0.0262564 0.231776
-0.000172594 -0.000558347 0.00235683
-0.00184399 0.000247807 0.025132
-0.00132485 0.00895694 0.146175
0 0 0
0 0 0
-1.34474e-05 0.0012444 0.00934759
0.00195012 -0.01177 0.173022
1.2077e-05 -0.000792175 0.0306541
5.88933e-05 0.00178115 0.0126822
0.0015216 0.00326584 0.101604
-2.0412e-05 -1.40455e-06 0.00264693
0 0 0
0.00640234 0.0409282 0.153994
-0.00122503 0.00999934 0.158117
-0.000132413 0.0757959 0.180054
-1.43e-05 0.00519571 0.0269881
-5.61201e-05 -0.000318533 0.0184721
0 0 0
0 0 0
0.00196513 0.00936053 0.132272
0 0 0
3.65917e-05 0.00278506 0.0209007
-0.000228301 0.00594909 0.0409989
-0.00153252 0.00385461 0.0997419
0.000924268 0.0101601 0.161416
-0.0104063 0.0369734 0.160393
-0.00301657 -0.00303332 0.04458
-0.0747079 -0.0553977 0.421167
0.0378692 -0.0088928 0.22686
-0.00315662 -0.00353278 0.141764
-0.0050868 0.0261162 0.340278
0.00195404 0.00545687 0.0242931
5.17985e-06 0.012577 0.226474
0.00652838 0.0154097 0.0534833
0 0 0
0 0 0