# vtk DataFile Version 2.0
tri_press
ASCII
DATASET UNSTRUCTURED_GRID
POINTS 3682 float
-0.701579 0.185 -1.925
-0.755 0.255 1.99719
-0.692799 0.715 -1.825
-0.704743 0.925 1.915
0.700453 0.185 -1.925
0.755 0.255 1.99672
0.685 0.715 -1.83204
0.703745 0.925 1.915
-0.744474 0.183246 -0.617603
-0.785157 0.183703 0.689793
-0.787267 0.875486 -0.578334
-0.785652 0.93989 0.668333
0.743724 0.183244 -0.61776
0.784785 0.1837 0.68948
0.785724 0.879476 -0.583027
0.784004 0.941507 0.665987
-1.46168 -0.200349 -2.9606
-1.45946 -0.148692 -1.9384
-1.49678 -0.147968 -0.629669
-1.52881 -0.156333 0.690873
-1.51579 -0.113093 2.00059
-1.51046 -0.077809 3.02763
-1.51331 -0.047498 4.04563
-1.45783 0.109022 -2.93343
-1.45604 0.178437 -1.91758
-1.5068 0.198945 -0.620575
-1.53604 0.196515 0.681562
-1.50285 0.236249 1.97968
-1.50312 0.270417 3.00593
-1.51133 0.300603 4.02591
-1.45647 0.699589 -2.86148
-1.45797 0.766699 -1.84214
-1.53321 0.883747 -0.586345
-1.53863 0.930201 0.664718
-1.47691 0.931603 1.9215
-1.49085 0.963168 2.9502
-1.5099 0.997467 3.97983
-1.47171 1.69032 -2.7999
-1.47897 1.77006 -1.79027
-1.51188 1.89423 -0.553138
-1.53368 1.98156 0.670638
-1.52929 2.01582 1.90801
-1.52534 2.03543 2.91813
-1.52795 2.06079 3.94096
-0.726845 -0.197569 -2.96556
-0.712043 -0.143112 -1.94489
-0.737374 -0.155414 -0.629631
-0.769245 -0.165499 0.697924
-0.763488 -0.10536 2.01342
-0.760695 -0.0728583 3.03622
-0.76331 -0.0459219 4.0504
-0.726452 0.105822 -2.93613
-0.758612 0.275937 3.01299
-0.763912 0.302015 4.02942
-0.724065 0.677045 -2.85598
-0.748232 0.961765 2.94865
-0.764946 0.996691 3.97916
-0.725041 1.67545 -2.7942
-0.723907 1.75635 -1.78376
-0.750049 1.89152 -0.549585
-0.775611 1.98556 0.669114
-0.779071 2.01734 1.9032
-0.777076 2.03506 2.91341
-0.779178 2.06014 3.93739
0.71707 -0.197038 -2.96706
0.727531 -0.142827 -1.9454
0.757612 -0.15519 -0.63006
0.777893 -0.165362 0.697458
0.757179 -0.105265 2.01292
0.744618 -0.0726706 3.03567
0.739102 -0.0456071 4.04972
0.702738 0.106269 -2.93812
0.734424 0.276076 3.01251
0.732161 0.302311 4.02878
0.700793 0.677629 -2.86017
0.715504 0.961971 2.94822
0.721587 0.99705 3.97848
0.75376 1.67677 -2.79778
0.768642 1.75795 -1.78747
0.772605 1.8934 -0.552697
0.750648 1.98701 0.666971
0.725621 2.01825 1.90182
0.71922 2.03576 2.91229
0.71831 2.06079 3.93632
1.45088 -0.198955 -2.96404
1.46381 -0.147406 -1.94076
1.50793 -0.146784 -0.631518
1.53896 -0.155636 0.689458
1.51925 -0.112684 1.99944
1.5023 -0.0772937 3.02639
1.4944 -0.0467851 4.04417
1.43619 0.110417 -2.93774
1.44763 0.179965 -1.92075
1.50461 0.200665 -0.623008
1.54104 0.197329 0.680011
1.50957 0.236538 1.97872
1.49106 0.270863 3.00481
1.48621 0.301291 4.02451
1.43616 0.701335 -2.86863
1.44823 0.769031 -1.85031
1.5294 0.888169 -0.592463
1.5387 0.93247 0.661401
1.47744 0.932255 1.92036
1.46906 0.963791 2.94903
1.47304 0.998284 3.97833
1.49416 1.69298 -2.80662
1.51211 1.77317 -1.79711
1.52798 1.89771 -0.558938
1.51375 1.98431 0.666497
1.48538 2.01765 1.9052
1.47405 2.03689 2.91581
1.47129 2.06213 3.93876
-0.728113 0.45 -1.90592
-0.000562996 0.180743 -1.92926
-0.740219 0.16693 -1.2713
-0.761081 0.59 1.9873
0 0.240728 2.01123
-0.752239 0.237191 1.34349
-0.00389948 0.786424 -1.89994
-0.774481 0.829691 -1.20167
-0.00049901 0.99378 1.98378
-0.779977 0.967225 1.29167
0.723588 0.45 -1.90938
0.739283 0.166928 -1.27138
0.760631 0.59 1.98712
0.752082 0.23716 1.3431
0.771838 0.833714 -1.20753
0.779068 0.968447 1.29049
-0.764809 0.18348 0.036095
-0.859427 0.529366 -0.597968
-0.000374588 0.165787 -0.617682
-0.860759 0.561797 0.679063
-0.000185898 0.17418 0.689637
-0.787008 0.908237 0.045
-0.000771246 1.1971 -0.58068
-0.000823925 1.43799 0.66716
0.764248 0.183478 0.03586
0.85941 0.53136 -0.600393
0.860588 0.562603 0.677733
0.784799 0.910427 0.04148
-0.89617 0.489683 -1.23648
0.896156 0.49068 -1.23946
-0.000468792 0.14863 -1.27134
-0.00233537 0.937639 -1.2046
-0.00223124 0.45 -2.15018
-0.860139 0.545581 0.0405475
0.860048 0.546982 0.03867
-0.000280243 0.169984 0.0359775
-0.000797586 1.41414 0.04324
-0.896279 0.575898 1.31758
0.896276 0.576302 1.3168
-9.29488e-05 0.184863 1.3433
-0.000661467 1.40567 1.29108
-0.000249505 0.59 2.15656
-0.722225 0.3175 -1.92284
-0.351071 0.181071 -1.92893
-0.724716 0.172148 -1.59815
-0.761806 0.4225 1.99601
-0.3775 0.234448 2.01762
-0.754165 0.24555 1.67034
-0.718292 0.5825 -1.8733
-0.348349 0.761116 -1.87288
-0.748317 0.787023 -1.51333
-0.72863 0.7575 1.94687
-0.352621 0.981408 1.97141
-0.764103 0.967855 1.60333
0.349945 0.181056 -1.92894
0.72125 0.3175 -1.92642
0.723693 0.172139 -1.59819
0.3775 0.244978 2.00686
0.761563 0.4225 1.99567
0.754047 0.245574 1.66991
0.34055 0.759607 -1.87489
0.711353 0.5825 -1.87777
0.743691 0.789629 -1.51979
0.351623 0.981603 1.9716
0.727935 0.7575 1.94681
0.763326 0.968643 1.60275
-0.755724 0.16171 -0.944453
-0.754641 0.183363 -0.290754
-0.839834 0.337364 -0.607786
-0.37799 0.163385 -0.617643
-0.785489 0.193655 1.01664
-0.774977 0.183597 0.362944
-0.842098 0.36318 0.684428
-0.393933 0.176418 0.689715
-0.783751 0.855466 -0.89
-0.860168 0.720837 -0.588151
-0.785544 0.890268 -0.266667
-0.456784 1.16182 -0.579507
-0.782873 0.953616 0.98
-0.856229 0.767355 0.673698
-0.788319 0.926052 0.356667
-0.501107 1.40468 0.667747
0.754881 0.161708 -0.94457
0.377211 0.163444 -0.617721
0.753986 0.183362 -0.29095
0.839674 0.338248 -0.609077
0.785224 0.193639 1.01629
0.393806 0.175926 0.689558
0.774511 0.183594 0.36267
0.841936 0.363527 0.683607
0.782116 0.85993 -0.89528
0.453947 1.16123 -0.581853
0.859604 0.723936 -0.59171
0.783442 0.893132 -0.270773
0.781522 0.954963 0.97824
0.499191 1.40495 0.666573
0.855846 0.76883 0.67186
0.786315 0.92788 0.353733
-0.886174 0.469841 -1.5712
-0.365172 0.45 -2.1002
-0.000515894 0.160445 -1.6003
-0.00139712 0.315372 -2.08169
-0.896964 0.328307 -1.25389
-0.370344 0.14863 -1.27132
-0.895191 0.582949 1.65244
-0.380665 0.59 2.13505
-4.64744e-05 0.18786 1.67726
-0.000124753 0.415364 2.1403
-0.896078 0.406545 1.33054
-0.376166 0.185628 1.34339
-0.00311743 0.879809 -1.55227
-0.00306536 0.618212 -2.08184
-0.893 0.659687 -1.21908
-0.388408 0.915546 -1.20313
-0.000580239 1.35598 1.63743
-0.000374258 0.79189 2.10009
-0.857503 0.771562 1.30462
-0.390319 1.38581 1.29137
0.886122 0.47034 -1.57442
0.360679 0.45 -2.10081
0.896966 0.328804 -1.25542
0.369407 0.148631 -1.27136
0.8952 0.583151 1.65196
0.380191 0.59 2.13503
0.895923 0.406731 1.32995
0.375994 0.185627 1.3432
0.892894 0.662197 -1.2235
0.384752 0.914422 -1.20607
0.857187 0.772374 1.30365
0.389203 1.38592 1.29079
-0.841152 0.350192 0.0383213
-0.385209 0.171404 0.0360363
-0.874771 0.509524 -0.917226
-0.859415 0.537474 -0.27871
-0.00042169 0.144852 -0.944511
-0.000327415 0.167885 -0.290852
-0.860217 0.553689 0.359805
-0.861001 0.568848 0.998321
-0.00023307 0.172416 0.362807
-0.000139423 0.178474 1.01647
-0.860466 0.745355 0.0427737
-0.505364 1.38411 0.04412
-0.00155331 1.02746 -0.89264
-0.000784416 1.33329 -0.26872
-0.000810755 1.43437 0.3552
-0.000742696 1.43021 0.97912
0.840998 0.350805 0.037265
0.384686 0.171326 0.0359188
0.87539 0.51102 -0.919925
0.859369 0.539171 -0.280862
0.860097 0.554793 0.358202
0.860874 0.569453 0.997265
0.859944 0.747464 0.040075
0.503019 1.38432 0.04236
-0.88719 0.322903 -1.58468
-0.883336 0.342306 -0.930839
-0.863589 0.681057 -0.903613
-0.845824 0.621093 -1.54227
0.887358 0.323152 -1.5863
0.843635 0.622349 -1.5471
0.863076 0.683808 -0.907603
0.884624 0.343053 -0.932248
-0.360707 0.160335 -1.59922
0.359676 0.160337 -1.59924
0.370541 0.145763 -0.944541
-0.371384 0.145533 -0.944482
-0.368379 0.852112 -1.5328
-0.391213 0.99663 -0.89132
0.388614 0.995546 -0.89396
0.362651 0.850817 -1.53603
-0.358122 0.316436 -2.12621
-0.356761 0.600356 -1.97821
0.350614 0.600356 -1.97879
0.355312 0.316436 -2.12628
-0.840468 0.34379 -0.284732
-0.841528 0.356734 0.361375
-0.857924 0.756144 0.358236
-0.859355 0.732615 -0.272689
0.840327 0.344531 -0.285906
0.858856 0.735242 -0.275818
0.857474 0.757937 0.355968
0.841364 0.357217 0.360436
-0.38143 0.167734 -0.290803
0.380819 0.167644 -0.290901
0.389214 0.17369 0.362739
-0.389408 0.174237 0.362876
-0.496391 1.3036 -0.267693
-0.506507 1.40094 0.355933
0.504347 1.40112 0.354467
0.493666 1.30314 -0.269747
-0.862699 0.389647 1.00748
-0.895446 0.414522 1.66139
-0.846832 0.764531 1.62789
-0.858427 0.761203 0.989161
0.862698 0.389941 1.00678
0.857965 0.762215 0.987753
0.846574 0.764937 1.62735
0.894653 0.414616 1.66093
-0.384419 0.179845 1.01655
0.384147 0.179844 1.01638
0.376747 0.187029 1.67359
-0.376833 0.187045 1.6738
-0.391779 1.41014 0.97956
-0.37147 1.33953 1.62038
0.370413 1.33968 1.62009
0.390397 1.41027 0.97868
-0.379083 0.418932 2.15057
0.378845 0.418932 2.15098
0.365907 0.774695 2.07378
-0.366643 0.774695 2.0737
-0.719397 0.25125 -1.93142
-0.526325 0.181448 -1.92855
-0.708865 0.182857 -1.76158
-0.764534 0.33875 2.00273
-0.56625 0.242292 2.00984
-0.7558 0.249057 1.83377
-0.711781 0.64875 -1.85538
-0.520574 0.73744 -1.84832
-0.728127 0.758581 -1.66917
-0.717339 0.84125 1.93159
-0.528682 0.965295 1.9553
-0.750015 0.96202 1.75917
0.525199 0.181446 -1.92855
0.71728 0.25125 -1.93214
0.707784 0.182858 -1.76159
0.56625 0.247162 2.00462
0.763964 0.33875 2.00188
0.75579 0.24902 1.83331
0.512775 0.736159 -1.85232
0.704562 0.64875 -1.86129
0.720981 0.75895 -1.67591
0.527684 0.965366 1.95537
0.716554 0.84125 1.93162
0.750121 0.963407 1.75887
-0.739387 0.18319 -0.781028
-0.749557 0.183305 -0.454179
-0.836958 0.237903 -0.612695
-0.556558 0.182662 -0.617623
-0.787073 0.186929 0.853218
-0.780064 0.183653 0.526369
-0.826222 0.267144 0.687111
-0.588023 0.183103 0.689754
-0.787416 0.867383 -0.734167
-0.838988 0.805797 -0.583242
-0.784868 0.88134 -0.4225
-0.67487 1.12434 -0.57892
-0.784139 0.94663 0.824167
-0.83712 0.861712 0.671016
-0.786915 0.932901 0.5125
-0.659322 1.20417 0.66804
0.738591 0.183188 -0.781165
0.555809 0.18266 -0.617741
0.748855 0.183303 -0.454355
0.836772 0.23821 -0.613418
0.786769 0.186905 0.852885
0.587659 0.183086 0.689519
0.779641 0.183654 0.526075
0.826091 0.267248 0.686543
[...]
POINT_DATA 3682
SCALARS point_scalars float 1
LOOKUP_TABLE default
-93.748
-52.2761
-42.457
-40.064
-93.9263
-53.1638
-41.6224
-41.5363
-39.3096
-37.0678
-64.9453
-47.1576
-39.3645
-37.2164
-65.296
-47.6031
-96.4856
-87.6377
-37.456
-36.0447
-54.3473
-51.7369
-46.1527
31.2451
-85.7443
-38.603
-34.09
-55.7677
-51.4843
-43.5756
30.99
-62.8518
-54.1279
-42.7385
-48.9589
-42.8798
-41.4795
-31.4208
-48.5873
-94.4627
-52.9035
-43.7891
-38.9272
-38.0485
70.2759
-107.984
-39.5163
-38.1547
-50.6885
-44.2474
-43.6895
74.8063
-43.4938
-42.2148
153.73
-40.2397
-41.3534
-0.777811
-31.8497
-74.021
-56.6133
-40.1877
-35.0066
-35.0889
66.9694
-101.235
-39.4877
-38.3138
-51.3502
-45.2647
-45.1406
65.1152
-43.9584
-42.818
152.796
-41.1124
-42.037
-2.81663
-30.8761
-72.0396
-57.7463
-41.8528
-36.2534
-37.1626
-100.822
-88.4878
-37.5328
-36.177
-55.2736
-52.6804
-45.5732
28.0304
-83.521
-38.7607
-34.2848
-56.2587
-50.7368
-44.7102
30.547
-61.0661
-54.1229
-43.1352
-50.2433
-43.8434
-41.8746
-33.0089
-47.6039
-95.1706
-54.744
-45.1268
-40.4736
-39.4492
7.18254
-114.178
-59.2085
-43.9732
-47.2285
-42.2257
-46.0789
-47.709
-30.6564
-46.4114
10.746
-59.3229
-45.0236
-42.6298
-48.0578
-47.2461
-35.6436
-43.7758
-42.2729
-38.4454
-39.7668
-53.3948
-2.10219
-65.9125
-35.7214
-43.9799
-38.752
-53.6409
-66.1705
-67.3661
-60.2808
1.26999
209.699
-40.8941
-41.029
-36.9924
-96.3861
-47.4634
-48.1843
-44.0059
-47.8725
-39.7687
10.8007
-112.033
-73.426
-45.7495
-48.3603
-46.7103
-17.3129
-46.7755
-45.5927
-41.8695
-33.4261
-46.2508
-111.973
10.1472
-73.5649
-47.981
-46.7237
-47.4542
-48.3801
-9.29493
-44.042
-35.4247
-43.1925
-47.5165
-52.2455
-36.2096
-39.8995
-41.328
-47.7966
-36.1132
-36.3881
-39.8288
-57.146
-51.7234
-57.8309
-10.4476
-45.6786
-41.9575
-51.1778
-58.7138
-52.329
-41.3646
-36.2692
-40.0172
-48.0946
-39.9689
-36.2183
-36.6252
-56.984
-10.3989
-51.9883
-58.4022
-46.2734
-59.0439
-42.3562
-51.3596
-92.2576
181.487
-72.4062
189.851
-64.4873
-60.128
-55.6426
-39.9442
-49.5308
-41.677
-46.7538
-43.0248
-21.4931
153.424
-67.7928
-5.36917
-36.8258
-37.081
-46.5698
-48.0454
-92.9466
182.177
-64.9087
-60.1692
-56.8651
-40.7926
-47.3754
-43.3205
-68.2754
-5.13851
-47.3382
-48.6083
-37.9676
-36.5502
-55.3126
-41.9623
-51.7704
-37.9302
-39.1585
-36.3954
-37.7323
-41.3403
-46.1498
-86.4598
26.5528
-57.3691
-77.3032
-56.8673
-38.0941
-36.5798
-55.7419
-42.0838
-39.5425
-36.8807
-46.6692
-86.986
-100.122
-56.0045
-54.744
-61.9093
-100.388
-60.9784
-55.1138
-56.2886
-70.4503
-70.4767
-52.3422
-52.323
-24.2126
18.8237
18.6533
-24.1819
163.179
131.82
129.418
163.401
-38.3424
-37.2423
-43.6262
-48.3296
-38.4238
-48.5343
-44.0558
-37.4409
-37.3827
-37.4102
-37.4153
-37.3865
-67.6181
-68.1938
-68.5122
-66.527
-32.4563
-54.8275
-51.097
-41.6033
-32.895
-42.0794
-52.3477
-55.863
-41.7575
-41.9124
-49.0582
-48.411
-55.3258
-39.1337
-40.2112
-55.6508
-41.8596
-42.2055
-39.5923
-38.0623
-2.85184
-128.412
-97.8477
-47.5162
-49.3842
-47.9592
-19.5564
-47.0241
-49.8791
-41.2303
-36.0339
-43.66
-128.317
-4.30367
-97.8235
-49.6625
-48.505
-48.9877
-47.0925
-13.3344
-48.1657
-37.7064
-42.655
-45.3691
-45.6826
-37.2318
-38.4876
-40.3669
-42.6492
-36.0783
-35.8903
-39.5076
-67.3537
-57.3158
-60.6978
-77.9966
-46.0511
-44.4388
-48.9058
-52.2342
-45.7358
-40.4086
-37.2832
-38.6023
-42.8846
-39.6654
-36.2398
-36.1128
-67.5135
-75.5594
-57.717
-61.2562
-46.6034
-52.6974
-44.8938
-49.3026
9.58206
-0.631027
-72.7836
124.644
-111.737
-111.751
-86.6381
83.884
-68.7045
-52.5198
-62.086
-59.6932
-44.7621
-42.2481
-50.9383
-40.5637
-47.4679
-47.3607
-52.5762
-43.2781
-44.2038
-40.8906
-46.2758
-41.322
-50.8969
-50.2127
-33.7501
101.614
-45.2137
-44.3509
-62.4785
-17.96
-31.2663
-32.6834
-31.401
-33.4086
-47.2213
-45.9471
-46.9346
-48.2756
12.2698
7.4419
-73.3334
125.509
-68.8053
-52.6347
-62.389
-59.7608
-45.789
-43.4909
-52.1544
-41.4075
-44.7507
-41.1839
-46.7123
-41.6811
-44.6581
-45.5634
-62.6473
-16.8573
-48.2733
-46.6286
-47.7454
-49.0038
-35.7537
-36.0919
-36.974
-36.1042
-41.1398
-47.073
-46.4414
-42.7235
-42.1062
-42.119
-47.4644
-39.3852
-37.1707
-39.9443
-39.0667
-37.739
-39.768
-39.8274
-38.5764
-40.502
-55.2532
-51.2621
-49.5703
-65.885
-3.60031
-3.59075
18.0723
-29.9361
-64.5684
-64.7305
-71.8572
-61.1252
-35.8198
-36.1696
-37.102
-36.1564
-41.3326
-47.324
-46.7521
-42.8713
-37.4428
-40.2828
-39.3146
-38.1002
-55.7311
-51.5965
-50.0768
-66.3169
-79.328
-65.8297
-67.1915
-61.2069
-79.6128
-66.3628
-68.2239
-61.4531
-67.3376
-60.2936
-60.3094
-55.0367
-11.1709
-0.662473
-0.710372
15.6526
201.874
184.262
159.651
200.965
-39.2816
-41.3739
-40.6044
-43.0612
-39.4059
-41.5379
-40.7001
-43.2488
-36.8858
-37.1823
-37.1544
-36.902
-95.6329
-91.2891
-85.7323
-95.7942
-50.1946
-47.301
-47.2868
-40.453
-51.0947
-47.9846
-47.9743
-40.8574
-46.2348
-43.794
-43.9423
-43.1977
-42.3327
-47.8419
-48.1614
-52.4864
-39.7981
-42.406
-39.4987
-40.2912
-75.4451
115.672
-88.0759
20.2985
-93.0834
-71.4015
-54.2356
-41.7397
-49.9115
-42.9531
-53.0547
-47.7569
-72.2332
99.0161
-35.1461
33.866
-56.5433
-28.4846
-49.0831
-39.1008
-33.7211
-35.9787
-48.6238
-42.2994
-88.0858
19.8408
-74.5747
115.325
-94.0802
-71.3988
-51.844
-43.4633
-55.4344
-42.3051
-54.0581
-48.436
-35.6668
26.2128
-74.4118
102.293
-56.6223
-28.0098
-34.99
-38.0576
-50.381
-40.4829
-49.8949
-43.6439
-57.1198
-52.5796
-37.1651
-36.7228
-45.0758
-38.8624
-47.433
-38.6471
-32.1507
-43.697
-37.1487
-36.8936
-36.7851
-35.0064
-38.3372
-40.917
-56.7328
4.55586
-52.7015
-49.8379
-53.0689
-78.1314
10.5611
-36.6922
-44.009
-50.3257
-42.9021
-40.6677
-46.8859
-58.3979
-64.1867
-57.6283
-57.3299
-52.6423
-47.4633
-38.6634
-37.2608
-36.7639
-45.387
-38.962
-32.4704
-43.9218
-38.5438
-41.0476
-37.3414
-36.9847
-37.0042
-35.3226
-56.3886
3.291
10.2736
-36.605
-53.3411
-50.1525
-53.477
-78.4186
-44.5215
-50.6881
-64.475
-57.9464
-43.2268
-41.0543
-47.2764
-58.7054
-99.699
-83.8026
181.925
150.782
-71.5324
-71.5424
191.554
191.488
-77.1314
-60.1167
-67.5406
-54.5781
-55.1627
-53.7433
-41.8486
-39.8358
-49.6043
-49.2168
-41.5755
-41.8114
-42.8768
-48.8114
-43.0827
-45.2647
-21.7501
-21.7876
147.335
146.084
-60.8347
-75.5293
-15.3959
6.51628
-37.4112
-38.0846
-38.1924
-37.2247
-50.3594
-43.563
-52.1867
-43.8481
-99.596
-84.4445
151.594
182.862
-77.7589
-60.4059
-67.5727
-54.6332
-55.0197
-56.2273
-42.1952
-40.7798
-43.3052
-49.5837
-43.2952
-45.6897
-75.4945
-61.7136
6.86972
-15.3426
-44.2042
-51.4149
-44.6101
-52.6107
-38.0501
-37.8057
-36.6453
-36.7198
-55.3372
-54.1676
-39.8328
-44.7317
-51.9721
-51.9982
-37.8011
-37.8327
-37.6933
-40.9876
-34.9646
-39.4127
-37.6955
-37.6611
-41.3486
-41.4116
-44.6189
-46.8874
-92.3533
-74.7645
24.5408
24.6651
-58.1319
-58.0036
-75.3985
-75.5247
-56.3513
-56.5394
-38.1508
-37.9598
-36.6777
-36.7433
-54.686
-56.0169
-39.9224
-44.904
-41.4185
-38.0874
-35.3593
-39.8795
-47.1809
-44.5624
-75.1429
-92.673
-85.5932
-74.8185
-78.5572
-74.0592
-44.7232
-45.8689
-60.967
-58.0298
-59.48
-57.4261
-61.6994
-49.0018
-63.6972
-73.0817
-82.2806
-59.8121
-84.1407
-74.4755
-79.2933
-75.2234
-61.6219
-59.821
-82.568
-74.4269
-59.8328
-49.3185
-62.2295
-57.4862
-45.1004
-58.2594
-61.2559
-46.193
-91.2006
-86.3348
-67.4644
-67.6584
-91.2217
-67.7225
-67.4738
-86.3289
-47.3541
-47.4967
-55.0607
-53.3356
-47.2982
-53.2717
-55.044
-47.4841
-38.1535
-22.8331
-12.1715
-33.1996
-51.3326
16.3299
14.4179
-7.99224
-48.7903
-8.21654
13.8704
16.3062
-39.4719
-33.3083
-12.1332
-22.2455
44.4383
123.112
187.181
79.9618
53.8492
75.1798
159.234
115.565
53.8013
117.063
159.418
72.4145
44.5319
77.8835
187.162
120.84
-37.6962
-36.9757
-39.4468
-40.5202
-36.1956
-37.7055
-39.3042
-37.1397
-45.7735
-47.5707
-42.459
-40.7262
-55.0043
-45.7644
-43.7784
-51.0905
-37.7867
-40.6281
-39.572
-37.0827
-55.4005
-51.5149
-43.9704
-45.9743
-46.1993
-41.0064
-42.5229
-47.6654
-36.3815
-37.2998
-39.3446
-37.941
-37.9123
-39.2001
-37.0824
-36.1884
-37.9499
-36.2353
-37.0967
-39.2384
-37.9845
-38.591
-37.1048
-36.4081
-37.8542
-36.3471
-37.0743
-38.5374
-89.0781
-72.3707
-90.0333
-28.6275
-55.5711
-70.2483
-83.3931
-60.9655
-55.9138
-61.3049
-83.5751
-70.3833
-90.0249
-28.6367
-89.9647
-73.0908
-35.4245
-43.2773
-41.8633
-36.1836
-55.7546
-52.607
-49.6572
-46.8515
-47.8355
-48.5813
-51.01
-50.0312
-43.4295
-39.3212
-41.462
-44.7304
-35.8146
-36.5234
-42.2536
-43.7388
-43.9778
-45.3684
-41.9913
-39.7168
-49.1424
-51.32
-52.0282
-49.6158
-56.9474
-47.4864
-50.4876
-53.8262
-41.7233
-40.5426
-43.1225
-43.4298
-41.9047
-43.7182
-43.2282
-40.6302
-49.6156
-52.8343
-46.1918
-45.1783
-47.7749
-44.639
-45.966
-51.9866
-50.6561
-50.4974
-52.4206
-60.3423
-36.1333
-31.9555
-42.702
-46.169
-37.5446
-47.2866
-43.1359
-32.8384
-51.0988
-60.5138
-52.6589
-51.1329
-43.3273
-43.1908
-42.5018
-41.4281
-44.1568
-42.0205
-42.6396
-43.44
-39.9047
-35.4813
-40.3061
-40.8681
-38.2308
-39.7522
-39.6968
-33.9744
-49.7707
-132.095
-140.556
-51.0906
-50.9783
-48.351
-32.7309
-35.9919
-53.083
-41.0997
-37.0221
-41.4289
-131.99
-51.7265
-140.342
-51.6274
-52.1008
-49.2239
-37.7688
-28.0969
-53.8336
-38.5511
-42.5472
-42.9649
-40.8661
-38.019
-37.2041
-39.7576
-39.7659
-37.1013
-35.8023
-39.1122
-66.367
-60.8058
-63.1818
-84.487
-46.4765
-45.9625
-47.8845
-49.6282
-40.9418
-39.8136
-38.0674
-37.2669
-39.9629
-39.2777
-37.2577
-35.9599
-67.1245
-84.4476
-61.4156
-63.6562
-46.9636
-50.0745
-46.4207
-48.3028
9.98736
2.70636
-69.218
78.2526
-113.1
-113.114
-99.4342
44.2316
-63.3107
-55.949
-61.195
-59.2371
-44.5148
-43.0039
-47.5407
-40.9041
-47.3601
-47.3646
-49.2489
-44.8594
-43.2495
-41.1979
-45.6848
-42.163
-49.0342
-48.6747
-40.6995
-1.11646
-47.267
-46.0157
-57.3879
-31.1441
-30.7076
-31.4949
-30.2008
-31.4528
-47.3767
-46.0669
-46.9591
-45.4377
12.4811
8.00844
-67.55
82.1135
-63.4342
-56.0527
-61.4154
-59.3207
-45.5331
-44.1795
-48.7005
-41.808
-43.7183
-41.5361
-46.1339
-42.5699
-47.5593
-46.1786
-57.5212
-30.7653
-48.3544
-46.8057
-47.7739
-46.2597
-35.5963
-35.651
-36.0967
-35.8889
-42.4816
-45.3134
-44.8456
-43.1417
-42.226
-42.2326
-44.3316
-40.6489
-37.92
-39.1199
-38.7962
-38.0666
-39.7532
-39.7814
-39.1035
-40.5109
-54.3824
-52.2327
-51.5377
-58.4501
-2.85596
-2.84066
8.96564
-16.5812
-65.5629
-65.6466
-68.5821
-63.4274
-35.6674
-35.7189
-36.2024
-35.9523
-42.6533
-45.5367
-45.0702
-43.3252
-38.2039
-39.4386
-39.0707
-38.394
-54.6409
-52.6075
-51.9519
-58.7668
-69.4953
-66.1486
-66.5693
-64.2151
-70.4587
-66.7543
-67.8893
-64.4644
-63.5704
-60.3348
-60.3404
-57.3083
-4.18352
1.23631
1.17183
9.04011
200.571
199.155
195.762
201.959
-40.1958
-41.1537
-40.7307
-41.8712
-40.3052
-41.3087
-40.8511
-42.0248
-36.9656
-37.0562
-37.0374
-36.9742
-96.1492
-97.6596
-92.0446
-96.2242
-48.6255
-47.4124
-47.2312
-45.1317
-49.4143
-48.1218
-47.9489
-45.6612
-45.034
-43.9318
-44.0074
-43.5809
-45.1811
-47.8405
-48.0043
-50.3412
-39.5374
-41.9892
-38.7937
-39.8187
13.8425
12.977
-49.3708
73.7823
-118.56
-110.644
-101.659
-74.4585
-81.3974
-72.8368
-84.2747
-70.8376
-46.2278
-45.1901
-50.2587
-42.3997
-48.9168
-47.8017
-47.4009
-45.1893
-47.5542
-45.4215
-50.49
-46.6218
-19.4712
-6.73495
-61.1452
55.9716
-54.6385
-49.6205
-42.3255
-3.06247
-46.0734
-46.3181
-52.5131
-32.9767
-41.5253
-42.0969
-46.2663
-39.77
-34.5302
-32.1227
-33.2995
-34.1841
-45.0475
-46.8846
-47.2774
-44.1638
-118.494
-110.718
-101.522
-75.3949
10.9883
15.4453
-48.9542
81.7976
-81.528
-72.9391
-85.2386
-70.9543
-48.9618
-47.6569
-49.1566
-45.23
-47.2052
-46.1829
-51.3691
-43.1578
-48.389
-46.0625
-51.5254
-47.3307
-56.6009
-49.0295
-43.5795
4.43585
-9.43212
2.35236
-59.1845
58.3936
-44.423
-45.3617
-52.1194
-31.5178
-36.4852
-33.9968
-34.8997
-36.3941
-42.8897
-43.3873
-47.6557
-40.9725
-46.4024
-48.0402
-48.5448
-45.4597
-51.6788
-51.9922
-55.6081
-52.3175
-36.5386
-35.8375
-36.3344
-36.4253
-39.3204
-40.3208
-41.3352
-39.2256
-40.8949
-41.8896
-43.4006
-39.7888
-41.5686
-45.15
-37.8597
-46.3796
-36.1919
-35.6094
-36.9459
-36.5569
-36.1122
-36.6712
-36.643
-36.0417
-39.6074
-39.8266
-39.0247
-40.958
-66.9327
-47.652
-56.3478
-24.5271
-54.4738
-49.0973
-52.2864
-50.7572
-59.2913
-56.5587
-55.6701
-65.5901
-28.4568
-5.91505
-0.485049
-26.0405
-45.7644
-45.5839
-44.7588
-47.6082
-43.1318
-40.875
-42.4636
-41.4434
-50.0711
-51.3193
-48.988
-55.3087
-53.4905
-62.5401
-60.9745
-59.5908
-51.7991
-52.0936
-55.7143
-52.3975
-40.9347
-41.9105
-43.4436
-39.8182
-36.5927
-35.8977
-36.413
-36.4742
-39.443
-40.4797
-41.5431
-39.3411
-41.8349
-45.4265
-37.9267
-46.6446
-39.7516
-39.9148
-39.2584
-41.1042
-36.3006
-35.7298
-37.0982
-36.6632
-36.3384
-36.9117
-36.8709
-36.2962
-67.5956
-47.1433
-56.8863
-22.2191
-27.5818
-6.02165
-0.314968
-25.8916
-54.7788
-49.3935
-52.557
-51.0713
-59.8258
-57.0243
-56.1956
-65.9851
-46.3367
-46.2321
-45.3207
-48.2255
-54.4569
-62.7782
-61.2116
-59.9307
-43.5615
-41.239
-42.82
-41.8593
-50.3958
-51.6068
-49.352
-55.3539
-67.0763
-97.2947
-96.9124
-86.173
156.08
193.109
184.873
173.931
-77.4015
-70.2368
-72.2937
-72.2868
188.953
186.111
189.99
190.129
-63.6752
-65.2558
-67.2774
-62.8553
-60.0517
-60.257
-63.4918
-57.1745
-55.0393
-52.2803
-55.3867
-55.2651
-40.3644
-39.7762
-41.5294
-39.2273
-52.163
-47.674
-49.5335
-49.3333
-41.7786
-41.6186
-41.5836
-41.706
-46.4465
-47.1058
-46.4255
-47.5162
-42.6186
-43.5297
-42.8607
-44.0011
-26.9988
-16.9373
-21.5849
-21.5974
117.918
158.201
149.402
147.229
-65.5405
-68.1351
-64.2558
-71.562
-10.4521
-2.7682
-10.6884
0.921967
-33.2928
-39.6585
-37.0545
-37.393
-35.6958
-38.4898
-37.4029
-36.8768
-46.8235
-46.4324
-48.3907
-44.922
-48.6125
-47.7916
-50.1853
-46.0982
-65.2825
-98.6762
-96.6829
-86.0548
156.972
193.292
174.795
185.857
-64.025
-65.7118
-67.7276
-63.1841
-60.1044
-60.2802
-63.5313
-57.2182
-56.3332
-53.3242
-56.5953
-56.5237
-41.3312
-40.5508
-41.9886
-40.2542
-46.9805
-47.7573
-46.9957
-48.2141
-42.9361
-43.7471
-43.1152
-44.3633
-65.8403
-69.1251
-72.1156
-64.7157
-9.68643
-2.4813
1.1523
-10.4239
-47.6355
-47.1614
-45.6045
-49.3068
-49.2434
-48.2467
-46.7393
-50.682
-37.5506
-38.4223
-38.0358
-37.8937
-36.2999
-36.7624
-36.6923
-36.6748
-50.06
-59.7835
-55.5682
-54.7287
-42.2822
-41.6165
-40.9415
-43.2347
-50.564
-53.0661
-51.5966
-51.5787
-38.5768
-37.4426
-37.9223
-37.9281
-39.3648
-39.4605
-38.3944
-39.9415
-37.4651
-36.8389
-35.1007
-38.152
-38.128
-37.4102
-37.733
-37.7168
-40.4907
-42.3677
-41.4113
-41.3383
-47.6918
-44.5198
-45.2507
-46.2531
-77.7738
-93.5156
-90.9277
-79.6175
25.367
22.5509
25.9323
26.0693
-44.984
-75.5241
-58.0994
-58.1066
-74.8781
-80.6348
-76.8576
-76.9197
-59.0005
-54.726
-56.768
-56.8579
-37.6721
-38.5536
-38.1567
-38.0203
-36.3423
-36.7862
-36.7249
-36.7032
-50.3581
-60.1179
-55.1894
-55.9498
-42.3981
-41.7633
-41.0574
-43.3749
-39.5989
-39.8158
-40.3512
-38.8164
-37.8538
-37.3336
-35.5901
-38.6088
-48.442
-44.7966
-46.5937
-45.2754
-78.2338
-93.8159
-80.2985
-91.2602
-82.1223
-98.3653
-101.457
-93.0801
-56.4584
-51.2415
-59.594
-55.4585
-55.7962
-53.7663
-57.0977
-54.1174
-60.5214
-59.1004
-71.2345
-67.3672
-79.9285
-98.9128
-101.111
-94.3851
-58.6197
-59.0478
-69.1902
-66.2089
-55.8034
-54.3762
-57.4625
-54.5674
-56.7122
-51.5755
-59.6794
-55.7364
-76.0227
-70.0267
-70.9098
-69.9286
-76.0347
-70.01
-70.9042
-69.9559
-52.5468
-51.3621
-53.5985
-52.1339
-52.5026
-51.3482
-53.5307
-52.1196
-29.1929
-26.4006
-22.7364
-20.1269
13.1741
18.0861
13.5033
22.2464
11.8962
17.5619
13.7569
22.1954
-29.3922
-26.2663
-22.7801
-20.0554
131.558
137.463
180.011
193.307
114.018
119.51
123.821
134.142
102.847
115.791
134.285
123.006
135.364
131.198
193.389
182.452
-37.8207
-38.5447
-38.1489
-38.8364
-37.069
-37.0337
-37.5119
-37.3192
-43.3991
-45.2533
-42.1967
-43.9252
-49.0132
-50.4572
-46.4651
-47.5807
-37.9072
-38.6204
-38.2364
-38.9124
-49.2336
-50.7045
-46.6471
-47.8476
-43.7126
-45.6174
-42.6338
-44.389
-37.2496
-37.2306
-37.7052
-37.6066
-37.0111
-38.0161
-36.9359
-37.6445
-38.0204
-37.0468
-37.6658
-36.9706
-37.859
-37.2197
-37.625
-36.9995
-37.1478
-37.8239
-37.0062
-37.5699
-88.0357
-50.1882
-79.2405
-58.9996
-62.1931
-66.7942
-70.2715
-72.5829
-67.0577
-62.7814
-72.7744
-70.7715
-49.7547
-86.2616
-58.7345
-78.9479
-31.4938
-32.8626
-35.3869
-33.3467
-58.4613
-54.3809
-55.0213
-50.9503
-50.2875
-49.9022
-52.3977
-51.2466
-42.7558
-40.9224
-42.4898
-40.5493
-31.8925
-33.2096
-35.7467
-33.8263
-43.2498
-41.4409
-42.9867
-41.0268
-51.6628
-51.1648
-53.6518
-52.3916
-59.6246
-55.4369
-56.0459
-51.8342
-42.7977
-40.7109
-42.4417
-41.4199
-42.995
-40.8509
-42.6204
-41.5335
-52.8284
-48.6733
-49.5316
-47.0705
-52.2881
-47.9276
-49.0161
-46.5449
-54.7638
-56.7145
-53.6955
-55.988
-35.2324
-40.515
-37.8565
-41.1856
-36.4302
-41.8061
-38.7623
-42.1036
-55.0855
-57.0152
-54.0686
-56.2454
-41.8668
-42.0384
-41.7919
-41.5626
-42.484
-42.3245
-41.8632
-42.1177
-38.928
-39.9998
-38.9802
-40.5747
-38.4277
-37.1226
-39.4739
-37.6764
-68.9793
14.9054
-111.008
-58.7224
-98.7914
-93.687
-52.0902
-44.096
-47.4215
-45.7901
-54.4594
-47.2109
-66.021
37.2632
-45.8455
0.710703
-58.9663
-39.37
-45.5053
-39.1647
-35.6404
-37.1955
-45.669
-39.4645
-110.969
-58.6581
-68.5381
17.0902
-97.9935
-93.7111
-49.1263
-45.8934
-53.2714
-44.882
-55.493
-48.6221
-44.9791
2.72579
-65.4444
40.3822
-57.0307
-40.3132
-37.0763
-38.9872
-46.6399
-40.5596
-47.1984
-40.946
-44.5023
-46.8579
-37.0721
-37.4977
-39.5394
-38.2445
-42.2719
-38.9204
-40.929
-41.9127
-35.0435
-37.3915
-35.9632
-36.1643
-38.5816
-41.1377
-63.0189
-80.4004
-58.3328
-56.4948
-57.8497
-70.4846
-66.5376
-90.8988
-45.0296
-48.1326
-45.0223
-43.946
-47.4898
-51.6991
-53.4413
-51.4048
-44.6822
-46.9431
-42.3172
-38.9598
-37.1351
-37.5434
-39.7212
-38.3429
-41.2989
-42.1209
-38.7254
-41.3088
-35.2616
-37.5277
-36.1905
-36.2327
-63.4795
-78.8178
-62.8878
-90.2129
-58.7826
-56.8274
-58.4444
-72.663
-45.6237
-48.6436
-53.8417
-51.8985
-45.4667
-44.4154
-47.9222
-52.3621
-62.6975
73.6968
-67.6419
78.2049
-71.4123
-72.881
126.182
122.17
-99.0354
30.2063
-99.0891
27.9295
-86.4822
-86.4666
60.6743
61.959
-72.3266
-67.7492
-56.3102
-52.6722
-65.4377
-60.6399
-63.3576
-56.5121
-48.4317
-41.8101
-46.8658
-40.033
-51.6053
-50.34
-41.086
-39.9583
-48.9521
-45.0329
-49.4022
-45.1719
-52.759
-52.3974
-43.1863
-43.3167
-45.671
-44.2642
-44.9473
-41.2539
-45.6118
-45.6108
-41.1207
-43.1293
-39.5902
-8.61027
-39.6711
-6.92813
-33.4528
-33.3434
84.342
89.9435
-55.4622
-31.2688
-54.597
-22.3539
-60.0951
-61.8884
-20.3642
-15.0695
-30.8545
-32.0883
-32.0639
-33.5919
-31.3916
-31.8967
-34.4805
-33.604
-47.8308
-46.6421
-45.1785
-47.2092
-47.9427
-45.6188
-49.3943
-47.5269
-62.626
81.6557
-66.8562
80.573
-71.4787
-73.1422
123.309
126.092
-72.5916
-67.8366
-56.4776
-52.7536
-65.7385
-60.8861
-63.4242
-56.579
-49.5704
-42.5866
-48.179
-41.1348
-51.5895
-52.811
-41.7782
-40.9794
-46.2471
-44.8221
-45.306
-41.5433
-46.1134
-46.1607
-41.4372
-43.5669
-56.136
-29.4167
-54.6008
-26.9361
-62.244
-60.3776
-13.6647
-19.5576
-48.8631
-47.6934
-45.798
-47.7617
-46.3251
-48.884
-48.4143
-50.1386
-36.0785
-35.9547
-36.9565
-36.147
-36.9614
-36.9371
-36.1078
-36.1897
-42.5847
-40.3648
-47.8252
-46.3564
-45.9504
-47.5801
-41.6125
-44.0972
-44.2044
-40.4681
-44.22
-40.4788
-47.6222
-47.623
-39.3836
-39.3889
-37.5609
-36.6915
-40.3573
-39.5943
-38.5925
-39.8102
-37.319
-38.4872
-39.1225
-40.545
-39.1808
-40.6056
-38.5925
-38.568
-40.4849
-40.5228
-53.3978
-62.0149
-49.365
-54.7735
-48.4519
-50.1541
-68.8367
-63.0923
7.93277
-15.4638
7.86927
-15.3212
17.2052
17.1869
-28.9527
-29.0305
-67.076
-62.4026
-67.2293
-62.5658
-71.4475
-71.517
-60.9239
-61.01
-36.1656
-36.0106
-37.103
-36.2276
-37.0811
-37.0753
-36.1435
-36.249
-42.8183
-40.4987
-48.082
-46.5942
-47.8737
-46.2329
-41.7016
-44.2645
-37.7958
-36.9928
-40.6639
-39.965
-40.0768
-38.8437
-37.6952
-38.8663
-53.8923
-62.3768
-49.896
-55.1719
-50.6468
-48.266
-63.4805
-69.3396
-78.8781
-79.8421
-68.752
-63.899
-64.077
-71.506
-61.2394
-61.3989
-79.6189
-79.9087
-69.365
-64.1929
-72.5385
-64.5158
-61.6979
-61.4942
-67.3327
-67.3367
-63.5791
-57.511
-63.5917
-57.5276
-55.0497
-55.0411
-11.1076
-11.181
-5.64738
7.27893
7.31786
-5.67757
16.1271
15.2309
195.535
187.952
184.883
184.899
161.371
163.442