# vtk DataFile Version 2.0
tet_velo
ASCII
DATASET UNSTRUCTURED_GRID
POINTS 29498 float
-0.825 0.235 -1.60423
-0.816105 0.235 1.685
-0.765 0.845 -1.46479
-0.774329 1.005 1.715
0.825 0.235 -1.60423
0.816113 0.235 1.685
0.765 0.845 -1.46479
0.774329 1.005 1.715
-0.774767 0.282268 -0.50782
-0.84002 0.21405 0.58859
-0.773918 0.904142 -0.40486
-0.766139 0.946586 0.65507
0.774767 0.28227 -0.50782
0.839865 0.21421 0.58859
0.773917 0.904141 -0.40486
0.766135 0.946583 0.65507
-1.61198 -0.111371 -2.51575
-1.60459 -0.0761512 -1.65323
-1.57877 -0.0597346 -0.555874
-1.61402 -0.118465 0.548821
-1.62324 -0.125751 1.64679
-1.61836 -0.102466 2.51234
-1.61558 -0.0744799 3.37228
-1.60924 0.201536 -2.45914
-1.60202 0.238337 -1.60061
-1.56976 0.276286 -0.510352
-1.61454 0.234017 0.583187
-1.61686 0.243528 1.67414
-1.61408 0.267665 2.53917
-1.61332 0.292913 3.4003
-1.58436 0.824947 -2.33569
-1.56438 0.858029 -1.47565
-1.55615 0.916571 -0.410263
-1.56443 0.951251 0.652538
-1.57729 0.995254 1.71862
-1.59198 1.01573 2.58516
-1.60125 1.03168 3.45218
-1.5659 1.80454 -2.17794
-1.55664 1.84304 -1.32337
-1.5548 1.90989 -0.269809
-1.55759 1.98524 0.775887
-1.56413 2.05029 1.82983
-1.5738 2.08456 2.6852
-1.58329 2.10621 3.54823
-0.821775 -0.111614 -2.5181
-0.819166 -0.0744458 -1.65666
-0.78486 -0.0545684 -0.555413
-0.816261 -0.13253 0.553433
-0.821123 -0.135734 1.65486
-0.818583 -0.108338 2.51781
-0.817986 -0.077826 3.37544
-0.822838 0.198619 -2.45986
-0.818085 0.264429 2.54368
-0.81784 0.291272 3.40269
-0.801948 0.817401 -2.33118
-0.802068 1.01982 2.58444
-0.809997 1.03393 3.45202
-0.78251 1.79743 -2.17348
-0.773995 1.83536 -1.31845
-0.773499 1.90467 -0.266847
-0.775122 1.98543 0.775532
-0.778437 2.05504 1.82729
-0.786404 2.08959 2.68267
-0.794405 2.11007 3.54639
0.783189 -0.111609 -2.5181
0.797056 -0.0744418 -1.65666
0.791644 -0.0545468 -0.555414
0.828784 -0.132422 0.553433
0.811687 -0.135693 1.65486
0.795312 -0.108305 2.51781
0.785141 -0.0777909 3.37544
0.781151 0.198622 -2.45986
0.789422 0.264451 2.54368
0.781252 0.291303 3.40269
0.766456 0.817403 -2.33118
0.776208 1.01984 2.58444
0.7768 1.03395 3.45202
0.78138 1.79744 -2.17348
0.785115 1.83536 -1.31845
0.784071 1.90468 -0.266847
0.783746 1.98545 0.775531
0.786576 2.05506 1.82729
0.785588 2.08961 2.68266
0.783415 2.1101 3.54639
1.5821 -0.111357 -2.51574
1.59393 -0.0761373 -1.65323
1.5855 -0.0596859 -0.555874
1.62346 -0.118314 0.548821
1.61988 -0.125647 1.64679
1.60106 -0.102389 2.51234
1.58759 -0.0744065 3.37228
1.58073 0.201546 -2.45914
1.60188 0.238343 -1.60061
1.5731 0.276315 -0.510352
1.61722 0.234174 0.583187
1.61693 0.243618 1.67414
1.59489 0.267729 2.53917
1.58289 0.29298 3.4003
1.56241 0.824955 -2.33569
1.56778 0.858033 -1.47565
1.55929 0.91658 -0.410263
1.56608 0.951304 0.652538
1.57877 0.995311 1.71862
1.5756 1.01578 2.58516
1.57397 1.03174 3.45218
1.5658 1.80455 -2.17794
1.56736 1.84306 -1.32337
1.566 1.90991 -0.269809
1.56697 1.98527 0.775887
1.57203 2.05033 1.82983
1.57382 2.0846 2.6852
1.57392 2.10627 3.54823
-0.774786 0.54 -1.5143
0 0.231282 -1.60795
-0.825083 0.233434 -1.05603
-0.803051 0.62 1.70783
3.99351e-06 0.196102 1.7239
-0.838329 0.214259 1.13679
0 0.861296 -1.48109
-0.773821 0.878933 -0.934825
0 1.008 1.718
-0.773983 0.979542 1.18504
0.774806 0.54 -1.51432
0.825079 0.23344 -1.05603
0.803001 0.62 1.70778
0.838272 0.214322 1.13679
0.773821 0.878932 -0.934825
0.773983 0.979542 1.18504
-0.774754 0.280799 0.0403849
-0.777523 0.593205 -0.45634
2.4618e-08 0.230816 -0.50782
-0.795623 0.580318 0.62183
-7.72764e-05 0.194586 0.58859
-0.771218 0.926554 0.125105
-4.87652e-07 1.15108 -0.40486
-1.76424e-06 1.25888 0.65507
0.774754 0.280802 0.0403849
0.777526 0.593205 -0.45634
0.801797 0.580397 0.62183
0.771227 0.926563 0.125105
-0.829278 0.566602 -0.995425
-0.77681 0.586762 0.082745
-0.895938 0.600159 1.16092
1.2309e-08 0.230688 -1.05603
-3.86259e-05 0.230819 0.0403849
-3.66414e-05 0.194617 1.13679
0 0.54 -1.79191
1.99676e-06 0.62 1.77284
-2.43826e-07 0.904363 -0.934825
-1.12595e-06 1.25888 0.125105
-8.8212e-07 1.03938 1.18504
0.829271 0.566603 -0.995425
0.776813 0.586801 0.082745
0.895946 0.600198 1.16092
-1.21351 0.236669 -1.60242
-0.822083 0.0802771 -1.63045
-0.823919 0.216809 -2.03205
-1.21648 0.239264 1.67957
-0.818614 0.0496328 1.66993
-0.817095 0.249715 2.11434
-1.16469 0.851514 -1.47022
-0.783474 0.8312 -1.89798
-0.769498 1.34018 -1.39162
-1.17581 1.00013 1.71681
-0.788199 1.01241 2.14972
-0.776383 1.53002 1.77114
0.811028 0.0802791 -1.63045
0.803075 0.216811 -2.03205
1.21344 0.236672 -1.60242
0.8139 0.0496536 1.66993
0.802767 0.249725 2.11434
1.21652 0.239309 1.67957
0.765728 0.831202 -1.89798
0.775058 1.34018 -1.39162
1.16639 0.851516 -1.47022
0.775268 1.01242 2.14972
0.780453 1.53003 1.77114
1.17655 1.00016 1.71681
-1.17227 0.279277 -0.509086
-0.779814 0.11385 -0.531617
-1.22728 0.224034 0.585888
-0.82814 0.0407602 0.571011
-1.16503 0.910356 -0.407562
-0.773708 1.40441 -0.335853
-1.16529 0.948919 0.653804
-0.770631 1.46601 0.715301
0.783206 0.113862 -0.531617
1.17394 0.279292 -0.509086
0.834324 0.0408942 0.571011
1.22854 0.224192 0.585888
0.778994 1.40441 -0.335853
1.1666 0.91036 -0.407562
0.774941 1.46601 0.715301
1.16611 0.948943 0.653804
-1.60828 -0.0937613 -2.08449
-1.61061 0.0450825 -2.48744
-1.21688 -0.111493 -2.51692
-1.59168 -0.0679429 -1.10455
-1.60331 0.081093 -1.62692
-1.21188 -0.0752985 -1.65494
-1.59639 -0.0890999 -0.00352654
-1.57427 0.108276 -0.533113
-1.18181 -0.0571515 -0.555644
-1.61863 -0.122108 1.09781
-1.61428 0.0577757 0.566004
-1.21514 -0.125498 0.551127
-1.6208 -0.114109 2.07957
-1.62005 0.0588885 1.66047
-1.22218 -0.130743 1.65082
-1.61697 -0.0884732 2.94231
-1.61622 0.0825991 2.52576
-1.21847 -0.105402 2.51507
-1.61445 0.109217 3.38629
-1.21679 -0.076153 3.37386
-1.60563 0.219937 -2.02987
-1.5968 0.513242 -2.39741
-1.21604 0.200078 -2.4595
-1.58589 0.257312 -1.05548
-1.5832 0.548183 -1.53813
-1.59215 0.255151 0.0364174
-1.56296 0.596428 -0.460308
-1.6157 0.238773 1.12866
-1.58949 0.592634 0.617862
-1.61547 0.255596 2.10666
-1.59707 0.619391 1.69638
-1.6137 0.280289 2.96974
-1.60303 0.641697 2.56217
-1.21608 0.266047 2.54143
-1.60728 0.662296 3.42624
-1.21558 0.292093 3.4015
-1.57437 0.841488 -1.90567
-1.57513 1.31474 -2.25682
-1.19316 0.821174 -2.33343
-1.56026 0.8873 -0.942956
-1.56051 1.35053 -1.39951
-1.56029 0.933911 0.121137
-1.55548 1.41323 -0.340036
-1.57086 0.973252 1.18558
-1.56101 1.46824 0.714213
-1.58463 1.00549 2.15189
-1.57071 1.52277 1.77422
-1.59661 1.0237 3.01867
-1.58289 1.55014 2.63518
-1.19702 1.01777 2.5848
-1.59227 1.56895 3.5002
-1.20562 1.0328 3.4521
-1.56127 1.82379 -1.75066
-1.1742 1.80098 -2.17571
-1.55572 1.87646 -0.796588
-1.16532 1.8392 -1.32091
-1.5562 1.94756 0.253039
-1.16415 1.90728 -0.268328
-1.56086 2.01776 1.30286
-1.16636 1.98534 0.775709
-1.56896 2.06742 2.25751
-1.17128 2.05266 1.82856
-1.57855 2.09539 3.11671
-1.1801 2.08707 2.68393
-1.18885 2.10814 3.54731
-0.82047 -0.0930299 -2.08738
-0.822306 0.0435023 -2.48898
-0.0192931 -0.111611 -2.5181
-0.802013 -0.0645071 -1.10604
-0.0110552 -0.0744438 -1.65666
-0.800561 -0.0935492 -0.000990389
0.003392 -0.0545576 -0.555414
-0.818692 -0.134132 1.10414
0.00626151 -0.132476 0.553433
-0.819853 -0.122036 2.08633
-0.00471795 -0.135714 1.65486
-0.818285 -0.0930819 2.94663
-0.818334 0.0780459 2.53075
-0.0116354 -0.108322 2.51781
-0.817913 0.106723 3.38907
-0.0164226 -0.0778085 3.37544
-0.812393 0.50801 -2.39552
-0.0208436 0.19862 -2.45986
-0.817963 0.277851 2.97319
-0.810077 0.642124 2.56406
-0.0143318 0.26444 2.54368
-0.813919 0.662599 3.42735
-0.0182943 0.291287 3.40269
-0.792229 1.30742 -2.25233
-0.0177461 0.817402 -2.33118
-0.806033 1.02687 3.01823
-0.794236 1.55471 2.63355
-0.0129304 1.01983 2.58444
-0.802201 1.572 3.4992
-0.0165988 1.03394 3.45202
-0.778252 1.81639 -1.74597
-0.000564538 1.79743 -2.17348
-0.773747 1.87001 -0.79265
0.00555997 1.83536 -1.31845
-0.774311 1.94505 0.254342
0.00528625 1.90468 -0.266847
-0.77678 2.02024 1.30141
0.00431183 1.98544 0.775531
-0.782421 2.07232 2.25498
0.0040696 2.05505 1.82729
-0.790405 2.09983 3.11453
-0.000408357 2.0896 2.68267
-0.0054953 2.11008 3.54639
0.790122 -0.0930253 -2.08738
0.78217 0.0435065 -2.48898
1.18264 -0.111483 -2.51692
0.79435 -0.0644943 -1.10604
1.19549 -0.0752896 -1.65494
0.810214 -0.0934843 -0.000990397
1.18857 -0.0571163 -0.555644
0.820235 -0.134057 1.10414
1.22612 -0.125368 0.551127
0.8035 -0.121999 2.08633
1.21578 -0.13067 1.65082
0.790226 -0.0930482 2.94663
0.792367 0.0780727 2.53075
1.19819 -0.105347 2.51507
0.783196 0.106756 3.38907
1.18636 -0.0760987 3.37386
0.773803 0.508012 -2.39552
1.18094 0.200084 -2.4595
0.785337 0.277877 2.97319
0.782815 0.642143 2.56406
1.19216 0.26609 2.54143
0.779026 0.662628 3.42735
1.18207 0.292141 3.4015
0.773918 1.30742 -2.25233
1.16443 0.821179 -2.33343
0.776504 1.02689 3.01823
0.780898 1.55472 2.63355
1.1759 1.01781 2.5848
0.780107 1.57203 3.4992
1.17539 1.03284 3.4521
0.783248 1.8164 -1.74597
1.17359 1.801 -2.17571
0.784593 1.87002 -0.79265
1.17624 1.83921 -1.32091
0.783909 1.94506 0.254342
1.17504 1.9073 -0.268328
0.785161 2.02025 1.30141
1.17536 1.98536 0.775709
0.786082 2.07234 2.25498
1.1793 2.0527 1.82856
0.784501 2.09986 3.11453
1.17971 2.08711 2.68393
1.17867 2.10818 3.54731
1.58801 -0.0937474 -2.08449
1.58141 0.0450941 -2.48744
1.58971 -0.0679116 -1.10455
1.5979 0.0811031 -1.62692
1.60448 -0.0889997 -0.00352658
1.5793 0.108314 -0.533113
1.62167 -0.12198 1.09781
1.62034 0.05793 0.566004
1.61047 -0.114018 2.07957
1.6184 0.0589853 1.66047
1.59432 -0.0883979 2.94231
1.59798 0.0826697 2.52576
1.58524 0.109287 3.38629
1.5913 0.219945 -2.02987
1.57157 0.51325 -2.39741
1.58749 0.257329 -1.05548
1.58483 0.548188 -1.53813
1.59516 0.255244 0.0364173
1.5662 0.596447 -0.460308
1.61708 0.238896 1.12866
1.59165 0.592739 0.617862
1.60591 0.255673 2.10666
1.59785 0.619464 1.69638
1.58889 0.280354 2.96974
1.58525 0.641754 2.56217
1.57843 0.662358 3.42624
1.5651 0.841494 -1.90567
1.56411 1.31475 -2.25682
1.56354 0.887306 -0.942956
1.56757 1.35054 -1.39951
[...]
POINT_DATA 29498
VECTORS point_vectors float
-10.0802 -7.80977 19.4085
0.0328342 0.551248 1.99493
-1.7326 1.47153 4.42382
0.429093 -0.00386261 3.01554
10.0635 -7.78642 19.424
-0.0400234 0.567432 2.04359
1.85339 1.57661 4.70959
-0.404363 -0.0441651 2.9974
-0.0747745 0.175981 0.275658
0.0730549 -0.608988 2.20815
-0.00331151 0.0163605 0.179784
0.00418464 0.0307796 0.0635835
0.0653014 0.181547 0.3101
-0.10301 -1.10155 3.26287
0.00322388 0.0167239 0.179174
-0.00410369 0.0305073 0.0635949
-0.657996 -0.283487 19.9195
-1.12081 -0.535062 20.454
-0.572113 -0.375263 21.1564
-0.21685 -0.157116 21.296
0.20429 0.132743 21.4005
0.511545 0.294542 21.1497
0.683229 0.307915 20.9128
-0.7899 -0.199686 19.8447
-1.45825 -0.43401 20.4827
-0.717177 -0.382068 21.2662
-0.289647 -0.168874 21.3587
0.353913 0.0783306 21.4666
0.722272 0.161522 21.241
0.838963 0.249877 20.9185
-1.00226 0.137964 19.7766
-1.66751 0.178564 20.4881
-1.07027 -0.111046 21.2612
-0.402345 -0.0806782 21.529
0.349668 -0.174683 21.4854
0.746612 -0.260861 21.1625
0.905192 -0.330835 20.8279
-0.615778 0.450413 20.0653
-0.845326 0.569153 20.4994
-0.711828 0.386939 21.0711
-0.273209 0.0778465 21.3264
0.0931412 -0.187022 21.2889
0.272065 -0.337434 21.0893
0.267168 -0.363199 20.8831
-0.76669 -0.735074 19.253
-2.16312 -2.97158 20.3903
-0.612277 -0.172506 21.0986
-0.345606 -0.307216 20.9876
-0.0588108 0.614067 21.0151
0.209129 1.10796 20.3453
0.659015 1.32974 19.4844
-1.12294 -0.650903 18.6821
0.60544 1.50759 10.9177
1.46419 1.81716 14.5928
-1.46599 0.555529 18.263
1.40157 -0.039961 11.0693
1.99108 -0.694828 15.321
-0.620644 0.998911 19.6955
-0.977091 1.51815 20.3133
-1.00303 1.37278 21.3494
-0.305479 0.306947 21.7187
0.0653787 -0.319098 21.4351
0.199853 -0.58043 21.2203
0.294819 -0.67323 20.9356
0.755619 -0.76734 19.2196
2.17598 -3.15905 20.3644
0.611386 -0.164095 21.1298
0.348796 -0.294494 21.0281
0.0695449 0.643457 20.9934
-0.18995 1.17145 20.1902
-0.619611 1.37545 19.2301
1.11353 -0.674833 18.6257
-0.574457 1.59256 10.109
-1.49312 1.86538 13.8775
1.45786 0.571848 18.2148
-1.3866 -0.101667 10.0926
-1.98674 -0.770037 14.6276
0.623096 1.0005 19.6953
0.983811 1.50913 20.3156
1.0063 1.35552 21.3477
0.312611 0.303394 21.7163
-0.058191 -0.324986 21.4376
-0.192076 -0.588729 21.2191
-0.285795 -0.681654 20.9352
0.666116 -0.295478 19.8971
1.13279 -0.548557 20.4677
0.578857 -0.376528 21.1442
0.219329 -0.160358 21.2989
-0.22076 0.143686 21.4072
-0.537637 0.326742 21.1475
-0.710855 0.318875 20.8923
0.823403 -0.208912 19.8115
1.46375 -0.441923 20.479
0.715543 -0.381315 21.2686
0.286584 -0.161612 21.3634
-0.369442 0.0813962 21.48
-0.755035 0.165971 21.2422
-0.879667 0.259123 20.9727
1.01959 0.138991 19.7594
1.65585 0.179003 20.4931
1.06648 -0.112521 21.2689
0.397856 -0.0873558 21.5389
-0.363761 -0.188757 21.4972
-0.77165 -0.282492 21.1563
-0.94609 -0.364267 20.8399
0.617492 0.450389 20.067
0.841691 0.560978 20.5038
0.706352 0.379728 21.0707
0.273295 0.0734425 21.3291
-0.0918171 -0.193569 21.2901
-0.271502 -0.345346 21.0906
-0.266121 -0.375019 20.8838
-0.800208 -0.0834742 2.1269
-0.00066566 -0.15155 0.771323
0.00662902 0.0624541 3.30041
0.065323 0.0311374 0.237832
0.000250648 -0.0368963 0.103589
-0.0283942 -0.00507871 0.783314
9.90497e-05 0.115443 0.480639
-0.993242 -0.91886 2.17783
0.0465611 0.645496 -0.281372
0.211307 0.365911 1.22418
0.829011 -0.0836837 2.19996
-0.00658416 0.0623688 3.29923
-0.0803162 0.0214251 0.281078
0.0294054 -0.00977705 0.77202
0.993987 -0.918615 2.17683
-0.200231 0.34531 1.19826
-0.0406258 0.124126 1.22138
1.04396e-05 -3.10595e-05 0.000902843
0 0 0
-0.00588624 0.0374445 0.0525423
0.00101023 -0.0682878 0.564914
0.0155176 0.121251 0.24478
5.16761e-05 0.202144 0.340536
-5.35972e-07 -5.25093e-07 -8.27688e-05
0.0439894 0.128393 1.22297
-8.73847e-06 -3.29733e-05 0.000972697
0.0130487 0.110367 0.139021
-0.0156054 0.120913 0.244208
-0.0001107 -0.000415887 0.00383749
0 0 0
0.00064932 0.00331188 0.0255928
-1.52618e-08 2.22592e-07 0.000122282
1.00366e-07 9.15931e-08 6.9338e-05
2.52534e-07 -1.38365e-07 7.9041e-05
0.000943464 -0.740585 0.915235
0 0 0
0 0 0
3.42255e-08 -1.11258e-05 -0.000296564
1.90995e-19 5.47062e-18 -1.45768e-17
0.000109764 -0.000410513 0.00378872
0 0 0
-0.000682145 0.00332812 0.026163
-2.706 -1.1233 20.4375
-3.67876 -4.5143 20.4608
-2.55345 -1.69599 17.8482
0.734661 0.38013 21.173
-0.0483692 1.02672 16.9548
0.00821508 0.984628 8.06044
-3.21464 0.737271 20.5759
-3.60121 1.98609 17.1324
-2.08653 2.44427 20.2057
0.712163 -0.399546 21.2158
0.787251 0.344397 7.73467
0.139921 -0.683192 21.4933
3.70686 -4.69559 20.4372
2.55579 -1.76679 17.7266
2.7093 -1.12513 20.4411
0.0504264 1.05653 16.9179
0.0253348 0.98445 7.41045
-0.764543 0.39848 21.1942
3.61224 2.1074 16.9764
2.09101 2.42616 20.2083
3.20862 0.738144 20.5717
-0.721188 0.269136 6.9858
-0.130001 -0.699386 21.5073
-0.73191 -0.4138 21.1863
-0.554239 -0.876533 21.6871
0.0987699 0.496345 13.92
-0.452684 -0.418552 21.3481
-0.0623154 -0.566265 17.8958
-1.6377 -0.567847 21.7343
-3.03114 2.31121 21.7202
-0.503678 -0.205666 21.5414
-0.581499 0.312604 21.5109
-0.0940438 0.507848 14.0455
0.562941 -0.882559 21.7171
0.0768941 -0.564885 17.9991
0.451137 -0.407945 21.3454
3.01825 2.26471 21.7163
1.64697 -0.590328 21.6997
0.592743 0.309015 21.5345
0.498027 -0.212353 21.4801
-0.957852 -0.435876 20.0763
-0.725071 -0.254024 19.884
-0.794532 -0.475523 19.6337
-0.93161 -0.51256 20.9671
-1.23831 -0.51718 20.4685
-1.67204 -1.21443 20.4283
-0.353294 -0.254119 21.2185
-0.641658 -0.376646 21.2045
-0.460699 -0.462615 21.4574
-0.0247642 -0.0265737 21.4101
-0.242387 -0.16366 21.3174
-0.223201 -0.206476 21.3874
0.386909 0.229183 21.3129
0.263016 0.119235 21.4232
0.272755 0.393505 21.5719
0.62353 0.333805 21.0751
0.587221 0.269729 21.1645
0.654603 0.669047 21.2994
0.758522 0.2901 20.6512
0.853666 0.794598 20.8814
-1.20118 -0.326203 20.0131
-0.927696 -0.0599986 19.7762
-1.03221 -0.378605 19.4174
-1.16616 -0.446005 21.0557
-1.64936 -0.170662 20.4865
-0.436346 -0.272037 21.2796
-0.917007 -0.306202 21.2987
-0.0215443 -0.044762 21.5186
-0.36682 -0.149319 21.4522
0.556913 0.149471 21.3577
0.411251 -0.0507855 21.5457
0.871173 0.181455 21.0736
0.790532 -0.0184541 21.1812
1.18444 0.619654 20.8341
0.958816 -0.0415623 21.1031
1.38958 0.507137 20.6466
-1.44668 0.195113 19.9963
-0.827784 0.380916 19.9025
-1.30282 0.304076 19.234
-1.42327 0.0199523 21.0176
-1.26092 0.514886 20.4822
-0.734097 -0.12202 21.4062
-1.02347 0.246949 21.1835
-0.00255124 -0.107056 21.5857
-0.368842 0.0269272 21.4668
0.564518 -0.22554 21.3733
0.207828 -0.229069 21.3607
0.917567 -0.26794 21.1838
0.43441 -0.38811 21.227
1.20136 -0.529191 20.9291
0.54924 -0.418048 20.7287
1.37184 -0.547088 20.6682
-0.762282 0.549262 20.246
-0.674781 0.700823 19.8976
-0.836055 0.516318 20.8034
-0.98841 0.972271 20.4295
-0.503373 0.237752 21.2512
-0.907689 0.755552 21.2075
-0.0648897 -0.0723793 21.313
-0.32267 0.171921 21.5107
0.191816 -0.279451 21.2174
0.0694957 -0.271507 21.3412
0.343494 -0.34015 21.044
0.245289 -0.45964 21.1259
0.3207 -0.543751 20.9719
-1.46074 -1.67538 19.0833
-0.942103 -0.729198 18.9716
-0.0270365 -1.13216 18.6939
-1.32139 -1.30159 22.2564
-0.0138387 -4.98405 20.872
-0.407569 -0.0309357 21.0199
0.00595637 -0.620588 20.3404
-0.201186 0.0390126 21.0471
0.00839591 -0.554136 20.1633
0.0662369 0.842561 20.7301
0.0332226 -0.00316319 18.913
0.487254 1.28732 20.1887
0.403594 1.43746 17.0831
0.0712104 0.31282 16.9232
1.0604 1.76758 16.7773
0.0587071 0.892915 15.217
-1.44034 -0.155332 18.273
-0.0398873 -1.0731 17.701
1.1927 1.73879 13.0422
1.15898 0.830246 7.36849
0.0899364 -0.641814 -5.40084
2.61705 0.605958 11.9949
-0.129402 0.0488475 -1.09127
-1.02374 1.12066 19.0778
-0.0362987 1.05448 16.7939
1.67579 -0.527488 12.8518
0.454102 -1.06463 21.1714
0.0699897 -0.114233 -0.629249
0.55754 -1.08714 20.5943
0.0583162 -1.28016 1.66448
-0.807544 1.33848 19.9213
-0.000287423 1.33734 19.4677
-1.06035 1.55078 20.763
0.00997256 2.21814 20.1537
-0.654884 0.822563 21.7211
0.011125 2.24648 21.4834
-0.0804681 -0.0813255 21.6445
0.00571518 0.562189 21.8944
0.139011 -0.477124 21.372
0.0044637 -0.280833 21.4385
0.266313 -0.669011 21.0322
0.00490972 -0.640864 21.2131
0.0101487 -0.645675 21.0003
1.45313 -1.73863 19.0253
0.933018 -0.749017 18.9279
0.800467 -0.496247 19.6038
1.32905 -1.32479 22.2786
1.71029 -1.25968 20.4297
0.40585 -0.0272414 21.0325
0.465032 -0.463068 21.4522
0.208242 0.0499863 21.0703
0.227886 -0.203308 21.397
-0.0607912 0.89261 20.6489
-0.283435 0.411502 21.5871
-0.469716 1.41274 19.9965
-0.370974 1.48771 16.4573
-0.673026 0.728412 21.2821
-1.02911 1.7886 16.6119
-0.877508 0.872219 20.8829
1.46785 -0.165447 18.1409
1.04161 -0.389921 19.3684
-1.15438 1.83711 12.1654
-1.16007 0.832621 6.53412
-1.25647 0.717655 20.5648
-2.64092 0.62963 11.3953
-1.41725 0.619411 20.3321
1.01454 1.14326 19.0547
1.33313 0.316639 19.1703
-1.63894 -0.566255 11.8312
-0.434104 -1.1002 21.181
-1.26694 -0.55583 20.7833
-0.535011 -1.11887 20.5431
-1.42096 -0.568629 20.6275
0.812796 1.33452 19.9238
0.676524 0.700031 19.8992
1.06663 1.53807 20.7662
0.986766 0.95574 20.4348
0.659836 0.812622 21.7147
0.905978 0.74248 21.2061
0.0857835 -0.08541 21.6459
0.326564 0.165149 21.511
-0.131484 -0.485751 21.3727
-0.0660651 -0.278639 21.3419
-0.257763 -0.678574 21.0351
-0.24198 -0.468555 21.1247
-0.318869 -0.554869 20.9774
0.968614 -0.452665 20.071
0.75207 -0.271617 19.8587
0.933314 -0.51635 20.97
1.25076 -0.510381 20.4645
0.354428 -0.253639 21.2148
0.647846 -0.373651 21.1975
0.0219815 -0.0197544 21.4158
0.238676 -0.158011 21.3262
-0.407317 0.250387 21.3171
-0.273136 0.129658 21.4339
-0.646615 0.358758 21.0729
-0.620541 0.290462 21.171
-0.801111 0.304106 20.7118
1.20969 -0.342896 19.9994
0.959373 -0.0617338 19.7566
1.16435 -0.452801 21.0586
1.65585 -0.176662 20.4828
0.435849 -0.267882 21.2861
0.917996 -0.308754 21.3
0.0144136 -0.0451843 21.5269
0.363071 -0.156175 21.4585
-0.583361 0.158296 21.3686
-0.431965 -0.0557906 21.5566
-0.909765 0.207292 21.0693
-0.828381 -0.024544 21.1854
-1.001 -0.0603693 21.1303
1.46277 0.197196 19.9956
0.832509 0.381997 19.8981
1.41853 0.0207328 21.0184
1.25262 0.509985 20.4865
0.734091 -0.126408 21.415
1.01598 0.24707 21.1836
-0.00327496 -0.118759 21.5962
0.369457 0.026667 21.4699
-0.587945 -0.242703 21.3763
-0.211861 -0.240569 21.3667
-0.951469 -0.288426 21.1704
-0.444061 -0.400711 21.2276
-0.559739 -0.431784 20.7265
0.762831 0.545057 20.2498
0.830318 0.506381 20.806
0.499597 0.231824 21.2499
0.0650448 -0.077387 21.3162
-0.191168 -0.287083 21.2178
-0.341631 -0.348621 21.0431
-1.04823 -0.405588 20.0521
-1.91266 -1.79858 18.619
-1.27498 -0.835582 19.7521
-1.86455 -0.743511 19.4463
-0.91509 -0.436647 19.5075
-2.18117 -1.28242 20.4213
-1.03536 -0.486978 20.9973
-0.715212 -0.326057 18.9607
-1.12546 -0.926061 21.3777
-1.57265 -1.06837 21.6855
-0.38576 -0.641567 21.5797
-0.389205 -0.261262 21.2443
0.0583689 0.345707 15.9086
-0.255772 -0.263565 21.3215
-0.255895 -0.580723 21.1584
-0.277716 -0.329925 21.3925
-0.0153617 -0.0320239 21.4496
-0.00466418 0.067854 17.5309
-0.025518 0.0340187 21.5936
0.0108714 -0.0456955 21.4557
0.514497 0.443194 21.482
0.44722 0.204331 21.3163
0.153531 1.22203 16.8443
0.455276 0.534563 21.4229
0.956683 0.466387 21.1214
0.910576 0.688 21.2543
0.72488 0.289001 21.0626
0.692165 1.60656 17.3583
0.749137 0.708766 21.1376
1.37569 0.652294 20.7142
1.07378 0.705505 21.093
-1.36856 -0.104685 19.9633
-3.9467 -0.195322 16.3803
-2.37439 0.617615 19.3368
-1.25886 -0.0861463 19.2552
-3.57019 -0.291492 20.5428
-1.35666 -0.258779 21.0781
-2.27564 -0.057999 21.4259
-1.10363 -0.740474 21.5505
-0.578575 -0.250462 21.3419
-0.959051 -0.475341 21.6514
-0.693366 -0.0911927 20.9419
0.0021057 -0.0845109 21.5782
0.176562 -0.184473 21.4115
0.860071 0.0166563 20.5771
0.649453 -0.0325707 21.4224
0.110134 0.748378 4.23306
0.922728 -0.478143 21.3422
1.43048 0.0819682 20.3095
0.967198 -0.0070075 21.0761
1.93209 0.75894 9.93668
1.40291 -0.560725 20.4645
1.55647 0.083127 20.0832
-1.11724 0.504211 20.117
-1.68821 2.06486 19.2579
-0.862431 0.884269 20.1139
-1.02314 0.688228 19.5482
-1.81416 1.13801 20.3953
-1.21911 0.390066 20.8798
-2.39439 2.11797 20.5759
-1.02127 0.92708 20.8127
-1.71945 0.605585 21.4235
-0.710297 0.135551 21.3899
-1.71386 0.993234 22.218
-0.624181 0.469211 21.4606
-0.536091 0.0918007 21.8351
-0.04407 -0.108869 21.4869
0.00172878 -0.381729 21.363
-0.0897915 -0.0913045 21.5072
0.234663 -0.438151 21.5935
0.360245 -0.324835 21.2904
0.273245 -0.864902 21.3677
0.184921 -0.375516 21.2726
0.543625 -0.676527 21.2863
0.543965 -0.396749 21.0116
0.469755 -1.19586 21.1043
0.317837 -0.47803 20.9444
0.640845 -0.754446 20.9214
1.90569 -1.88357 18.5138
-0.0311811 -2.94664 18.172
-0.0499146 -3.74538 15.0986
-0.0396533 -1.16434 18.2132
0.0306115 -7.18713 22.4302
0.719213 -0.320644 18.8418
0.00557489 -1.87878 22.7478
0.00341966 -0.0114117 9.96481
-0.0522037 0.353677 16.0556
0.00722279 -0.432633 19.6648
0.0114648 -0.454407 12.2439
0.0149992 0.0766487 17.5701
0.0149628 -0.271451 19.5807
0.0771049 0.00826231 10.4964
-0.11518 1.25113 16.5125
0.0519587 -0.0196177 18.0937
0.141549 -0.783793 -2.5842
0.0769996 0.00765156 7.35625
-0.634338 1.63888 16.7934
0.0837672 0.658373 16.4852
-0.0771206 -1.96689 -4.55943
-0.0248787 0.89121 6.63288
4.01715 -0.197492 16.1666
-0.0630298 4.81143 13.6594
-0.0410278 -0.225471 16.6882
-0.118038 0.688681 3.81872
0.0793992 0.663985 -0.411023
-0.132082 -1.21925 -4.1492
-1.98724 0.771057 9.25228
0.0109271 -0.393458 -0.327207
-0.045694 -1.60319 -3.16039
1.68529 2.0777 19.2493
0.00347664 1.87639 19.7381
-0.0151432 1.77094 18.4159
0.00941885 3.94832 19.9266
2.39587 2.0926 20.5859
0.0116147 2.3818 20.67
0.0112542 4.902 21.7021
1.71306 0.98149 22.2123
0.00856541 1.32055 21.9984
0.00635697 0.813788 21.5848
0.0135693 -0.3859 21.4147
0.00490605 0.0239046 21.7476
0.0101736 -0.308317 19.6605
-0.258739 -0.895748 21.3827
0.00560581 -0.47427 21.4939
0.00743656 -0.905495 19.2423
-0.448205 -1.23915 21.0545
0.00540801 -0.871537 20.774
0.00251307 -1.41163 18.9954
1.06899 -0.420636 20.0397
1.30337 -0.882635 19.7317
1.91003 -0.76338 19.4074
0.923952 -0.459626 19.4743
2.21135 -1.30952 20.4174
1.03612 -0.486228 21.0057
1.12777 -0.933412 21.3895
1.57358 -1.06606 21.685
0.396383 -0.640065 21.5792
0.392033 -0.263291 21.2405
0.262077 -0.266352 21.3251
0.253519 -0.572075 21.132
0.278846 -0.319384 21.3998
0.00980911 -0.0272664 21.4581
0.0204127 0.0419497 21.606
-0.0177127 -0.0339275 21.4725
-0.535129 0.470624 21.5025
-0.464003 0.222338 21.3231
-0.471808 0.581515 21.4298
-1.01419 0.518245 21.0424
-0.942598 0.752019 21.2342
-0.764 0.315788 21.0673
-0.768542 0.752531 21.1183
-1.47697 0.756696 20.4848
-1.09661 0.786054 21.0897
1.39784 -0.0987242 19.9582
2.417 0.63103 19.2965
1.27162 -0.091226 19.2022
3.55953 -0.288242 20.5407
1.3577 -0.263456 21.0773
2.27626 -0.0529117 21.4213
1.11078 -0.740623 21.5528
0.583533 -0.253575 21.3548
0.96568 -0.498751 21.5948
0.681772 -0.083089 20.9564
-0.00796765 -0.0878283 21.5877
-0.18671 -0.196281 21.3892
-0.896863 0.00597588 20.6218
-0.683803 -0.0384949 21.4266
-0.961618 -0.512133 21.3126
-1.53063 0.112575 19.9612
-1.01703 -0.0218465 21.0832
-1.4529 -0.601851 20.3946
-1.64339 0.112175 19.8832
1.12226 0.504696 20.1177
0.863079 0.877499 20.1184
1.02747 0.700793 19.5324
1.80167 1.12291 20.396
1.20828 0.388212 20.8799
1.01856 0.909627 20.8165
1.70951 0.593802 21.4188
0.708081 0.134873 21.391
0.626547 0.460838 21.4589
0.535435 0.0839809 21.836
0.0424586 -0.114227 21.4901
0.0934774 -0.0976005 21.5074
-0.236779 -0.453075 21.5947
-0.366301 -0.338637 21.2942
-0.182468 -0.38333 21.2724
-0.545853 -0.705792 21.2897
-0.551024 -0.412354 21.014
-0.31421 -0.487973 20.9357
-0.649091 -0.784889 20.9229
-1.57816 -0.840761 19.588
-1.29112 -1.02351 21.546
-0.161293 -0.400976 21.3279
0.0242398 -0.0100445 21.6694
0.732283 0.602013 21.3968
0.970757 0.691621 21.1332
-2.46473 -0.148307 19.2026
-2.13383 -0.574845 21.7581
-0.64836 -0.491216 21.1603
0.000649444 0.0374328 21.047
1.10057 0.0203554 20.638
1.66567 0.0602159 20.2048
-1.50626 1.04791 19.7984
-1.83661 0.880916 20.9058
-1.12327 0.313652 21.748
-0.0508947 -0.199333 21.7719
0.401375 -0.573501 21.454
0.57533 -0.728623 21.3395
-0.0407357 -3.51246 17.0415
-0.000688692 -0.619244 14.9937
0.00542376 -0.0832483 10.7172
0.0250045 -0.101932 11.6157
0.114857 -0.27165 8.59595
0.112849 -0.32576 5.35646
-0.0758563 -0.154856 11.5351
-0.0287907 -0.245182 -3.12072
-0.161271 -1.52715 -4.04117
-0.00591637 3.42365 18.5995
0.0109365 3.83386 19.9942
0.00862827 2.2056 22.6649
0.0060236 0.00501966 19.7536
0.00770557 -0.530265 19.5092
0.00238608 -1.14041 19.6622
1.60587 -0.877478 19.559
1.29271 -1.03254 21.5523
0.172269 -0.394859 21.3127
-0.0246866 -0.00162273 21.6836
-0.77339 0.656917 21.3753
-0.99677 0.733752 21.1132
2.51049 -0.151467 19.1625
2.13127 -0.57373 21.7543
0.640676 -0.493042 21.0796
-0.0196893 0.0391308 21.0802
-1.17668 0.0120309 20.6278
-1.76002 0.0784054 20.0714
1.51119 1.05591 19.7935
1.82065 0.872694 20.9066
1.12112 0.306271 21.7451
0.0517641 -0.208748 21.7757
-0.403921 -0.596359 21.4577
-0.579386 -0.757384 21.3421
-1.09983 -0.00984482 1.37873
0.200034 -1.32756 2.99363
-0.102073 -0.0338596 3.95027
0.031765 0.0126098 0.113047
-0.194645 -0.0172516 0.294367
-0.166061 0.517754 5.16469
-2.61937 -0.234629 3.82559
-0.0377556 0.287606 0.797204
-1.02201 -0.55722 3.87935
0.0857289 0.0528755 0.500286
-0.00460079 0.0514828 -0.045441
0.251311 0.313431 2.01733
-0.227682 -1.29078 2.94398
1.1086 -0.00993413 1.39093
0.101557 -0.0348614 3.94879
0.189817 -0.00222941 0.311562
-0.0362971 0.0109077 0.121235
0.149492 0.530253 5.20743
0.0373783 0.286235 0.79483
2.61961 -0.232346 3.82723
1.03197 -0.547338 3.88621
0.0260461 0.0418152 -0.0370718
-0.0893442 0.0374916 0.524243
-0.230719 0.287481 1.98265
0.0426078 0.0778575 2.86881
-0.0306248 0.170901 1.11745
0 0 0
0 0 0
-0.0319467 0.0472119 0.835595
-0.000104767 0.0678465 1.45178
-0.192972 0.244781 0.551544
0.0114841 -0.0185597 0.123594
-0.205357 -0.227716 0.66222
0 0 0
0.0106293 0.0877021 0.233422
-0.0728498 0.186446 0.316404
0 0 0
0 0 0
0.0112199 0.0847349 0.157991
0 0 0
-0.0425349 0.0778249 2.86765
0 0 0
0.0310968 0.169866 1.12536
0 0 0
0.0351157 0.0488133 0.838865
-0.0111197 -0.0185366 0.123599
0.0084723 0.0746759 1.47095
0.264201 0.375805 0.804395
0.205218 -0.226859 0.661246
0.0738018 0.1883 0.319436
0 0 0
-0.0107171 0.088006 0.23312
0 0 0
0 0 0
0 0 0
-0.011145 0.0844181 0.157621
-0.221858 -0.0926449 0.772354
-0.209108 -0.0224463 0.0736239
-9.66154e-08 -1.08786e-06 0.000100129
4.72256e-06 -0.0369738 0.00900814
-2.93477e-05 -1.89695e-05 0.000946927
-6.30457e-08 4.69714e-08 -5.19183e-06
0.00615844 -0.00195967 0.0450577
-0.000483078 0.000270092 2.60717e-05
0.00876297 0.0738314 0.237183
-1.44713e-05 2.17985e-05 2.24169e-05
5.04768e-07 4.08145e-05 0.000310928
-4.02898e-06 -3.84624e-06 0.0019787
0 0 0
-6.02453e-07 -5.44989e-05 -0.000525908
0 0 0
0 0 0
0 0 0
5.96334e-07 1.16104e-06 -2.65008e-05
0 0 0
-1.19329e-18 2.20941e-18 -5.54277e-18
0.207411 -0.0222425 0.0729912
0.222012 -0.0927726 0.77282
-1.38782e-07 -1.05343e-07 1.17182e-05
7.71014e-05 -4.89747e-05 0.00247652
0.000321858 0.000147619 1.69194e-05
-0.00640252 -0.00224729 0.0469432
1.7546e-05 -3.6236e-06 0.00200014
-5.72845e-07 4.28006e-05 0.000331128
0 0 0
0 0 0
1.41992e-18 2.19674e-18 -5.51811e-18
0 0 0
0 0 0
0 0 0
0 0 0
0 0 0
2.88971e-08 4.84479e-07 6.20765e-05
3.04755e-08 3.65036e-07 9.12448e-05
0 0 0
-0.00803775 0.011566 0.0826012
-1.33855e-08 1.6262e-08 -5.90855e-06
5.73872e-07 -9.5966e-07 0.000153845
0 0 0
1.44193e-06 -1.46403e-05 -0.000434348
-6.47356e-06 -4.87868e-06 -1.59949e-05
1.46202e-05 0.0188394 0.113305
-3.40194e-07 -8.82114e-07 -6.06475e-05
0.000165541 -0.0279377 0.166415
-5.37133e-05 -2.189e-06 0.00102993
0 0 0
0 0 0
0 0 0
0 0 0
0.00327542 0.00894602 0.0681837
-1.58977e-06 -1.451e-05 -0.00043055
0 0 0
-0.00214634 -0.00149038 0.0136857
0 0 0
0.0124723 -0.00246571 0.145797
0 0 0
0 0 0
0 0 0
0 0 0
0 0 0
-5.10915e-05 0.000236455 0.00313594
0.000101457 0.00100791 0.00356591
0.0047603 0.00263241 0.0360578
0 0 0
-2.149e-06 -6.74767e-07 3.3956e-05
4.48318e-06 -1.41205e-06 7.0846e-05