# vtk DataFile Version 2.0
tet_velo
ASCII
DATASET UNSTRUCTURED_GRID
POINTS 29498 float
-0.763262 0.225 -2.045
-0.718316 0.285 2.045
-0.725 0.733893 -1.975
-0.755 0.975 1.97238
0.763268 0.225 -2.045
0.718321 0.285 2.045
0.725 0.733893 -1.975
0.755 0.975 1.97238
-0.773578 0.219702 -0.681667
-0.766351 0.231947 0.681667
-0.79974 0.879002 -0.659207
-0.78808 0.937711 0.656587
0.773836 0.21945 -0.681667
0.766356 0.231948 0.681667
0.799751 0.879013 -0.659207
0.788072 0.937703 0.656587
-1.54777 -0.14238 -3.12462
-1.54354 -0.0952061 -2.05299
-1.54915 -0.095525 -0.688432
-1.53732 -0.0979167 0.685698
-1.50449 -0.0613048 2.05107
-1.49474 -0.0224712 3.12664
-1.49583 0.017092 4.19491
-1.54313 0.154191 -3.10671
-1.54031 0.217694 -2.04028
-1.55449 0.233976 -0.684966
-1.5377 0.241835 0.674625
-1.49289 0.282527 2.03085
-1.48585 0.321129 3.10575
-1.49048 0.359607 4.17557
-1.52753 0.718586 -3.05755
-1.52076 0.780151 -1.98915
-1.56881 0.884833 -0.666248
-1.55654 0.935786 0.653287
-1.51793 0.974656 1.9771
-1.49914 1.01091 3.05397
-1.49552 1.04715 4.13145
-1.52282 1.65598 -3.01955
-1.52371 1.72926 -1.95827
-1.54378 1.84504 -0.650784
-1.55389 1.93931 0.64646
-1.54352 2.00026 1.95445
-1.52927 2.03773 3.01676
-1.5174 2.07245 4.08906
-0.77977 -0.138754 -3.12769
-0.768316 -0.0890943 -2.05747
-0.773164 -0.10184 -0.687832
-0.771724 -0.106053 0.691708
-0.748326 -0.0627027 2.06157
-0.738203 -0.0234609 3.13377
-0.737459 0.0159091 4.19903
-0.778828 0.152405 -3.10766
-0.726123 0.321247 3.11163
-0.731241 0.358993 4.17868
-0.764364 0.698984 -3.05167
-0.736427 1.01136 3.05303
-0.733689 1.04728 4.13125
-0.751217 1.64234 -3.01374
-0.74683 1.7163 -1.95187
-0.764857 1.84116 -0.646924
-0.779761 1.94139 0.645996
-0.77532 2.00271 1.95114
-0.76311 2.03943 3.01346
-0.751876 2.07354 4.08665
0.750987 -0.13879 -3.12769
0.767181 -0.0891514 -2.05747
0.772423 -0.10201 -0.687832
0.75724 -0.106089 0.691708
0.728036 -0.0627106 2.06157
0.750272 -0.0234723 3.13377
0.76756 0.0158924 4.19903
0.742342 0.152386 -3.10766
0.75628 0.32124 3.11163
0.772561 0.358979 4.17868
0.73639 0.698973 -3.05167
0.76893 1.01135 3.05303
0.778645 1.04727 4.13125
0.781468 1.64232 -3.01374
0.793422 1.71628 -1.95187
0.793199 1.84114 -0.646924
0.776877 1.94137 0.645996
0.766653 2.0027 1.95114
0.770213 2.03941 3.01346
0.777972 2.07352 4.08665
1.52073 -0.142463 -3.12462
1.53699 -0.095331 -2.05299
1.54665 -0.0957621 -0.688432
1.52871 -0.0980131 0.685698
1.49557 -0.0613348 2.05107
1.50582 -0.0225015 3.12664
1.52338 0.0170542 4.19491
1.51336 0.154133 -3.10671
1.53394 0.21762 -2.04028
1.55338 0.233731 -0.684966
1.53776 0.241756 0.674625
1.49603 0.282512 2.03085
1.509 0.321107 3.10575
1.52725 0.359575 4.17557
1.50742 0.71855 -3.05755
1.51988 0.780128 -1.98915
1.57056 0.884754 -0.666248
1.55791 0.93573 0.653287
1.52265 0.974642 1.9771
1.52513 1.01089 3.05397
1.53611 1.04712 4.13145
1.54865 1.65593 -3.01955
1.56164 1.72921 -1.95827
1.56833 1.84499 -0.650784
1.55493 1.93926 0.646459
1.54039 2.00022 1.95445
1.53912 2.03769 3.01676
1.54409 2.07241 4.08906
-0.759983 0.479446 -2.02585
3.01003e-06 0.221245 -2.04876
-0.774985 0.215786 -1.36333
-0.745631 0.63 2.01766
2.5034e-06 0.272825 2.05717
-0.76103 0.239777 1.36333
0 0.8707 -2.11181
-0.80607 0.850147 -1.3171
0 1.08948 2.08686
-0.776108 0.960923 1.31448
0.759978 0.479446 -2.02584
0.775213 0.215564 -1.36333
0.745823 0.63 2.01785
0.760989 0.239823 1.36333
0.806077 0.850155 -1.3171
0.776092 0.960907 1.31448
-0.772402 0.223387 0
-0.831709 0.549352 -0.670437
0.000128599 0.220721 -0.681667
-0.840932 0.584829 0.669127
2.53135e-06 0.237938 0.681667
-0.79042 0.904866 -0.00130999
5.7267e-06 1.2912 -0.659207
-4.17122e-06 1.50165 0.656587
0.772557 0.223237 0
0.831701 0.549232 -0.670437
0.840937 0.584825 0.669127
0.790182 0.904628 -0.00130999
-0.871238 0.514399 -1.34022
-0.846889 0.56709 -0.000654995
-0.876459 0.607415 1.33891
6.58047e-05 0.219277 -1.36333
6.55654e-05 0.22931 0
2.51737e-06 0.251113 1.36333
1.50502e-06 0.479446 -2.23302
1.2517e-06 0.63 2.24071
2.86335e-06 1.02811 -1.3171
7.77741e-07 1.48498 -0.00130999
-2.08561e-06 1.47206 1.31448
0.871239 0.514339 -1.34022
0.846899 0.567028 -0.000654995
0.876461 0.607413 1.33891
-1.15179 0.221347 -2.04264
-0.765789 0.0679529 -2.05123
-0.771045 0.188703 -2.57633
-1.10561 0.283764 2.03792
-0.733321 0.111149 2.05329
-0.72222 0.303123 2.57832
-1.12288 0.757022 -1.98208
-0.744682 0.716438 -2.51334
-0.735915 1.2251 -1.96343
-1.13647 0.974828 1.97474
-0.745713 0.993179 2.5127
-0.76516 1.48886 1.96176
0.765224 0.0679243 -2.05123
0.752805 0.188693 -2.57633
1.14861 0.22131 -2.04264
0.723179 0.111145 2.05329
0.737301 0.30312 2.57831
1.10717 0.283756 2.03792
0.730695 0.716433 -2.51334
0.759211 1.22509 -1.96343
1.12244 0.757011 -1.98208
0.761965 0.993176 2.5127
0.760827 1.48885 1.96176
1.13882 0.974821 1.97474
-1.16404 0.226839 -0.683316
-0.773371 0.0589308 -0.684749
-1.15203 0.236891 0.678146
-0.769037 0.0629472 0.686688
-1.18428 0.881918 -0.662728
-0.782298 1.36008 -0.653065
-1.17231 0.936748 0.654937
-0.78392 1.43955 0.651292
0.773129 0.0587202 -0.684749
1.16361 0.22659 -0.683317
0.761798 0.0629295 0.686688
1.15206 0.236852 0.678146
0.796475 1.36008 -0.653065
1.18515 0.881883 -0.662728
0.782474 1.43953 0.651292
1.17299 0.936716 0.654937
-1.54565 -0.118793 -2.58881
-1.54545 0.00590537 -3.11567
-1.16377 -0.140567 -3.12615
-1.54634 -0.0953656 -1.37071
-1.54192 0.0612441 -2.04664
-1.15593 -0.0921502 -2.05523
-1.54324 -0.0967209 -0.00136684
-1.55182 0.0692256 -0.686699
-1.16116 -0.0986825 -0.688132
-1.52091 -0.0796108 1.36838
-1.53751 0.0719589 0.680162
-1.15452 -0.101985 0.688703
-1.49961 -0.041888 2.58885
-1.49869 0.110611 2.04096
-1.12641 -0.0620037 2.05632
-1.49528 -0.00268962 3.66077
-1.4903 0.149329 3.1162
-1.11647 -0.022966 3.1302
-1.49315 0.18835 4.18524
-1.11665 0.0165006 4.19697
-1.54172 0.185943 -2.5735
-1.53533 0.436388 -3.08213
-1.16098 0.153298 -3.10718
-1.5474 0.225835 -1.36262
-1.53053 0.498923 -2.01472
-1.5461 0.237905 -0.00517043
-1.56165 0.559405 -0.675607
-1.5153 0.262181 1.35274
-1.54712 0.58881 0.663956
-1.48937 0.301828 2.5683
-1.50541 0.628592 2.00398
-1.48816 0.340368 3.64066
-1.4925 0.666021 3.07986
-1.10599 0.321188 3.10869
-1.493 0.703377 4.15351
-1.11086 0.3593 4.17712
-1.52414 0.749369 -2.52335
-1.52518 1.18728 -3.03855
-1.14595 0.708785 -3.05461
-1.54479 0.832492 -1.3277
-1.52223 1.25471 -1.97371
-1.56268 0.91031 -0.00648044
-1.5563 1.36494 -0.658516
-1.53724 0.955221 1.31519
-1.55522 1.43755 0.649873
-1.50854 0.992784 2.51554
-1.53073 1.48746 1.96577
-1.49733 1.02903 3.59271
-1.5142 1.52432 3.03537
-1.11778 1.01114 3.0535
-1.50646 1.5598 4.11025
-1.1146 1.04721 4.13135
-1.52327 1.69262 -2.48891
-1.13702 1.64916 -3.01665
-1.53375 1.78715 -1.30453
-1.13527 1.72278 -1.95507
-1.54884 1.89218 -0.00216213
-1.15432 1.8431 -0.648854
-1.54871 1.96979 1.30045
-1.16683 1.94035 0.646228
-1.5364 2.01899 2.4856
-1.15942 2.00149 1.95279
-1.52334 2.05509 3.55291
-1.14619 2.03858 3.01511
-1.13464 2.073 4.08786
-0.774043 -0.113924 -2.59258
-0.779299 0.00682546 -3.11767
-0.0143919 -0.138772 -3.12769
-0.77074 -0.0954671 -1.37265
-0.000567898 -0.0891228 -2.05747
-0.772444 -0.103947 0.00193823
-0.000370734 -0.101925 -0.687832
-0.760025 -0.0843779 1.37664
-0.00724228 -0.106071 0.691708
-0.743264 -0.0430818 2.59767
-0.0101449 -0.0627066 2.06157
-0.737831 -0.00377587 3.6664
-0.732163 0.148893 3.1227
0.00603474 -0.0234666 3.13377
-0.73435 0.187451 4.18886
0.0150504 0.0159008 4.19903
-0.771596 0.425694 -3.07966
-0.0182428 0.152395 -3.10766
-0.728682 0.34012 3.64516
-0.731275 0.666303 3.08233
0.0150787 0.321243 3.11163
-0.732465 0.703136 4.15497
0.0206597 0.358986 4.17868
-0.757791 1.17066 -3.03271
-0.0139871 0.698978 -3.05167
-0.735058 1.02932 3.59214
-0.749768 1.52539 3.03324
0.0162516 1.01136 3.05303
-0.742782 1.56041 4.10895
0.0224776 1.04727 4.13125
-0.749024 1.67932 -2.4828
0.0151252 1.64233 -3.01374
-0.755844 1.77873 -1.2994
0.0232959 1.71629 -1.95187
-0.772309 1.89127 -0.000463587
0.0141712 1.84115 -0.646924
-0.77754 1.97205 1.29857
-0.0014419 1.94138 0.645996
-0.769215 2.02107 2.4823
-0.00433327 2.0027 1.95114
-0.757493 2.05649 3.55006
0.00355174 2.03942 3.01346
0.0130483 2.07353 4.08665
0.759084 -0.113971 -2.59258
0.746664 0.00679782 -3.11767
1.13586 -0.140627 -3.12615
0.769802 -0.0955805 -1.37265
1.15208 -0.0922412 -2.05523
0.764831 -0.104049 0.00193822
1.15953 -0.0988859 -0.688132
0.742638 -0.0843997 1.37664
1.14297 -0.102051 0.688703
0.739154 -0.0430915 2.59767
1.1118 -0.0620227 2.05632
0.758916 -0.00378996 3.6664
0.753276 0.148884 3.1227
1.12804 -0.0229869 3.1302
0.770061 0.187436 4.18886
1.14547 0.0164733 4.19697
0.739366 0.425679 -3.07966
1.12785 0.153259 -3.10718
0.764421 0.340109 3.64516
0.762605 0.666296 3.08233
1.13264 0.321173 3.10869
0.775603 0.703122 4.15497
1.1499 0.359277 4.17713
0.758929 1.17065 -3.03271
1.1219 0.708762 -3.05461
0.773787 1.02931 3.59214
0.769572 1.52538 3.03324
1.14703 1.01112 3.0535
0.778308 1.56039 4.10895
1.15738 1.04719 4.13135
0.787445 1.6793 -2.4828
1.16506 1.64912 -3.01665
0.793311 1.77871 -1.2994
1.17753 1.72275 -1.95507
0.785038 1.89125 -0.00046367
1.18077 1.84306 -0.648854
0.771765 1.97203 1.29857
1.1659 1.94032 0.646228
0.768433 2.02105 2.4823
1.15352 2.00146 1.95279
0.774093 2.05647 3.55006
1.15467 2.03855 3.01511
1.16103 2.07297 4.08785
1.52886 -0.118897 -2.58881
1.51705 0.00583481 -3.11567
1.54182 -0.0955465 -1.37071
1.53547 0.0611443 -2.04664
1.53768 -0.0968876 -0.00136688
1.55001 0.0689844 -0.686699
1.51214 -0.0796739 1.36838
1.53323 0.0718714 0.680162
1.50069 -0.0419181 2.58885
1.4958 0.110588 2.04096
1.5146 -0.00272363 3.66077
1.50741 0.149303 3.1162
1.52531 0.188314 4.18524
1.52365 0.185876 -2.57349
1.51039 0.436342 -3.08213
1.54366 0.225675 -1.36262
1.52691 0.498874 -2.01472
1.54557 0.237743 -0.00517052
1.56197 0.559242 -0.675607
1.51689 0.262134 1.35274
1.54784 0.588743 0.663956
1.50252 0.301809 2.5683
1.50934 0.628577 2.00398
1.51813 0.340341 3.64066
1.51707 0.665999 3.07986
1.53168 0.703345 4.15351
1.51365 0.749339 -2.52335
1.52803 1.18724 -3.03855
[...]
POINT_DATA 29498
VECTORS point_vectors float
-1.58465 -3.0416 8.85162
0.154657 0.395929 1.58035
-2.42151 1.29455 3.72525
0.138242 -0.340498 0.861112
1.58099 -3.04134 8.84282
-0.196899 0.348787 1.53137
2.3704 1.25851 3.74811
-0.0827854 -0.378001 0.759944
0.0127989 0.0610868 2.66267
0.0521695 -0.0218725 1.20896
0.00333623 0.00751778 0.344817
0.0295939 0.0575337 0.283476
-0.0172878 0.057982 2.69347
-0.0589302 -0.0263669 1.20354
-0.00317982 0.00708776 0.347185
-0.0290731 0.0568852 0.278721
-0.638079 -0.318581 19.894
-1.19112 -0.730639 20.5892
-0.387837 -0.450798 21.363
0.0527526 -0.20638 21.4963
0.652948 0.121213 21.5451
0.97718 0.254942 21.2974
1.01374 0.150902 20.551
-0.748201 -0.251489 19.7899
-1.64221 -0.646081 20.5434
-0.536175 -0.554043 21.4488
-0.0304634 -0.347937 21.5712
0.817882 -0.0921 21.6457
1.20113 -0.0197079 21.2327
1.11082 0.0945973 20.9095
-0.86337 0.0112082 19.6739
-2.02781 0.0272245 20.4574
-1.08027 -0.379059 21.4276
-0.365632 -0.353228 21.6329
0.451039 -0.495171 21.6558
0.899773 -0.622877 21.3696
0.682886 -0.475665 21.0159
-0.594875 0.347926 19.8854
-1.05805 0.613508 20.3615
-1.00374 0.364371 21.1333
-0.446661 0.0107306 21.4853
0.000104052 -0.274644 21.4459
0.316152 -0.500114 21.4404
0.448266 -0.869622 20.3768
-0.692453 -0.746875 19.3157
-1.63383 -3.16667 21.11
-0.113571 -0.210149 21.4299
0.169549 0.0796949 20.8129
0.51217 1.1692 20.208
0.950364 1.64788 19.8708
0.826697 1.27651 19.6991
-0.866816 -0.630713 18.9374
1.8404 1.61157 12.0131
2.05567 1.3538 14.5446
-1.14507 0.124701 18.466
0.0582146 -0.839633 6.5037
1.90398 -1.34937 11.3154
-0.562768 0.764243 19.4238
-1.18762 1.76468 20.0658
-1.63343 1.68049 21.188
-0.675511 0.414717 21.9493
-0.139825 -0.331378 21.6204
0.0316414 -0.703997 21.3767
0.00313838 -0.49979 22.5074
0.670938 -0.761175 19.2729
1.62569 -3.16688 21.1114
0.101777 -0.208201 21.4305
-0.190352 0.0774082 20.7008
-0.536458 1.09144 20.0866
-1.04109 1.54696 19.8817
-0.913824 1.12997 19.7999
0.849554 -0.658251 18.8908
-1.91222 1.38736 12.5119
-2.01906 1.10761 15.0337
1.11807 0.125221 18.3972
0.42257 -0.988801 5.83011
-1.66556 -1.03608 11.284
0.57043 0.748867 19.4436
1.21306 1.6672 20.0844
1.62324 1.6149 21.1877
0.654632 0.434007 21.9322
0.117099 -0.242941 21.5827
-0.0908373 -0.565254 21.3324
-0.0424764 -0.45174 22.9588
0.638333 -0.322477 19.8708
1.19675 -0.744027 20.5941
0.390493 -0.459068 21.3538
-0.0516115 -0.222339 21.4711
-0.628102 0.0896098 21.5328
-0.945119 0.211493 21.3372
-1.04438 0.128754 20.4514
0.75473 -0.257488 19.7685
1.65739 -0.660844 20.5456
0.533513 -0.557967 21.4443
0.0322307 -0.36322 21.5498
-0.761978 -0.145544 21.6181
-1.11401 -0.0806708 21.2414
-1.10205 0.0476549 20.8461
0.874661 0.0143364 19.6567
2.0243 0.028877 20.4555
1.07539 -0.377276 21.4221
0.366738 -0.351586 21.6166
-0.371826 -0.483836 21.6088
-0.758827 -0.56975 21.4262
-0.522064 -0.339298 21.1221
0.586118 0.340223 19.8964
1.02846 0.580613 20.3667
0.973471 0.353032 21.1217
0.442699 0.0215385 21.4647
0.02248 -0.245308 21.4387
-0.268558 -0.44859 21.5129
-0.316107 -0.899564 20.1334
-6.46923 -0.571291 6.2795
-6.57774e-06 -0.00761929 0.0667244
-0.0410052 0.0127275 0.617017
0.016791 -0.0256958 0.0607933
-0.00313297 0.0148121 0.14675
-0.0194469 0.0144582 0.370927
-0.00321467 0.456615 0.937094
-0.0374717 -0.0387203 0.19614
-0.0113996 0.00284554 -0.00310792
0.000577604 0.000553491 0.0101523
6.46034 -0.570764 6.26991
0.0409122 0.0126737 0.622041
-0.0130785 -0.0362962 0.0591704
0.0158833 0.0131489 0.367034
0.0372883 -0.0385274 0.195383
-0.000803356 0.000822845 0.0149426
0.0246099 0.00893361 1.62534
-0.000343132 0.000984333 0.016457
-6.84138e-05 -3.4599e-05 0.0302733
1.52563e-05 7.02873e-05 0.000338388
-4.13199e-05 0.000347837 0.013009
0.0189993 0.0682084 0.299271
5.33487e-05 0.00204658 0.00456944
0 0 0
-0.0293372 0.00723814 1.6386
0.000329812 0.000923386 0.0159084
-1.66535e-05 7.54474e-05 0.000369774
-0.0177883 0.0636589 0.281969
0 0 0
3.2246e-06 9.07666e-05 0.000747117
0 0 0
0 0 0
0 0 0
-9.36228e-06 1.01786e-05 0.00121331
7.28742e-06 -0.000286511 0.00041677
0 0 0
6.57832e-06 -1.33186e-05 -0.000109155
-1.26255e-05 0.000941309 0.00868527
-8.05229e-07 -3.04662e-06 3.66402e-05
0 0 0
-2.96826e-06 8.39545e-05 0.000703159
0 0 0
-2.99166 -1.70968 20.5494
-2.46984 -4.75274 21.4103
-2.35425 -1.96933 17.9302
1.35867 0.508181 19.2313
0.3025 1.37029 14.5996
1.13927 1.07251 8.56203
-4.1469 0.538969 20.3118
-3.45085 0.948392 16.6316
-2.76759 3.14219 19.8606
0.716316 -0.787648 20.1871
-0.224404 -1.12399 4.99893
0.303238 -0.383734 16.5493
2.46535 -4.75876 21.4106
2.35424 -2.01431 17.8729
3.00304 -1.72842 20.5449
-0.373386 1.24179 14.2449
-1.231 0.800539 8.70524
-1.2963 0.381674 19.0828
3.47427 0.985487 16.5086
2.77379 3.00027 19.8828
4.15211 0.545982 20.3073
0.414289 -1.22147 4.52082
-0.268812 -0.186599 16.032
-0.582706 -0.782541 20.0418
-0.202009 -0.907565 21.433
-0.0546478 0.23197 16.479
0.102557 -0.382702 20.2152
0.300833 0.122174 15.8581
-1.57172 -0.935882 21.7235
-4.15196 1.27601 21.4072
-0.441235 -0.607842 20.8793
-0.601409 0.250026 17.474
0.0411395 0.227002 16.4828
0.196795 -0.91133 21.4051
-0.337271 0.114173 15.7251
-0.106832 -0.404072 20.1669
3.9981 1.22017 21.4799
1.56854 -0.93433 21.706
0.581678 0.286047 17.348
0.443071 -0.604282 20.8381
-0.987453 -0.559031 20.0828
-0.710414 -0.304685 19.8465
-0.723698 -0.526667 19.6163
-0.816021 -0.628477 21.2064
-1.40256 -0.717799 20.5649
-1.62676 -1.55682 20.6842
-0.134421 -0.317653 21.4445
-0.473667 -0.510056 21.3974
-0.166911 -0.517498 21.5741
0.292124 -0.0664752 21.6265
0.0115419 -0.280803 21.5174
0.190576 -0.204655 21.6237
0.83255 0.215101 21.4565
0.740616 0.0316802 21.6025
0.877801 0.564844 21.5319
0.944601 0.218082 21.1731
1.09703 0.121608 21.3101
1.27967 0.750778 21.3007
1.08832 0.102947 20.7072
0.964451 0.553904 21.4547
-1.25491 -0.442067 19.9496
-0.836547 -0.14014 19.6892
-0.877392 -0.461072 19.4604
-1.10999 -0.665259 21.3154
-1.87786 -0.364019 20.5112
-0.247722 -0.449651 21.4757
-0.814116 -0.533708 21.4317
0.290597 -0.230098 21.7628
-0.196677 -0.388436 21.6193
1.05865 -0.0469623 21.4567
0.708709 -0.340396 21.6714
1.27009 -0.120809 21.1959
1.19038 -0.360923 21.2268
1.89139 0.468111 19.542
1.04621 -0.221806 20.8757
1.55965 0.139003 20.3518
-1.52703 0.0464047 19.8038
-0.7788 0.24854 19.7459
-1.07373 0.0514124 19.2105
-1.56403 -0.21218 21.2059
-1.54905 0.508146 20.379
-0.692241 -0.387997 21.5618
-1.23241 0.0437055 21.2911
-0.0133711 -0.376361 21.7419
-0.484468 -0.166976 21.6024
0.696923 -0.551275 21.5312
0.150749 -0.433783 21.5154
1.22584 -0.689611 20.7998
0.527091 -0.556206 21.2402
1.25714 -0.854743 19.9676
0.440324 -0.74218 20.6978
1.82135 -1.14704 19.3098
-0.838564 0.506611 20.0662
-0.659618 0.553169 19.6708
-1.11262 0.525422 20.7817
-1.25534 1.10352 20.2415
-0.755516 0.177953 21.4045
-1.36014 0.774896 21.2157
-0.209573 -0.151524 21.52
-0.583743 0.150904 21.702
0.142415 -0.434697 21.3029
-0.0484846 -0.339173 21.5466
0.27081 -0.372311 21.2192
0.200193 -0.551884 21.1638
0.0638275 -0.470472 21.8926
-1.40031 -1.86415 19.1918
-0.756756 -0.703728 19.1449
-0.0145506 -1.08384 18.8554
-0.480203 -1.04586 22.1176
-0.0034987 -4.05549 21.9994
0.0549728 -0.00908901 20.877
-0.00553163 -0.401665 20.4301
0.289411 0.385257 20.4557
-0.012929 0.0214521 19.024
0.751608 1.43808 20.1869
-0.0501974 0.787434 17.7955
1.10911 1.66592 20.0804
1.37006 1.87693 16.7711
-0.0518864 1.45096 18.2283
1.43291 1.40479 17.0654
-0.15726 2.29994 17.9244
-1.1059 -0.320863 18.6066
-0.0213068 -0.966408 18.2492
2.14728 1.4224 13.1781
1.83801 -0.081579 7.92183
-0.0803242 0.575006 5.16796
2.39874 0.658684 13.6338
-0.115682 2.20502 9.72804
-0.894944 0.711704 18.8976
-0.0360289 0.210386 17.4823
1.12133 -0.965986 8.92781
0.45458 -1.12038 18.1812
0.501945 1.98602 -4.84181
0.344783 -1.54953 18.6128
0.80114 2.34556 -6.82547
-0.91425 1.3676 19.5477
0.0119392 1.03686 19.1442
-1.41131 1.71568 20.5758
0.0504104 2.60602 19.8472
-1.27552 1.08062 21.8908
0.0354035 3.36014 20.9133
-0.306328 -0.0450545 21.8301
-0.0207262 1.00691 22.4029
-0.0643793 -0.491771 21.493
-0.0667152 -0.0633536 21.6929
0.151801 -0.83873 21.666
-0.069712 -0.390217 21.8591
-0.185394 -0.606083 22.5067
1.38489 -1.8891 19.1656
0.737058 -0.726545 19.0978
0.718754 -0.548953 19.5927
0.471348 -1.04397 22.1165
1.63179 -1.57732 20.677
-0.0654908 -0.0155831 20.8108
0.157958 -0.521097 21.567
-0.324255 0.367281 20.3138
-0.208327 -0.210804 21.5737
-0.79026 1.31407 20.1352
-0.876548 0.518874 21.4492
-1.23619 1.58607 20.135
-1.48687 1.70121 16.6415
-1.25178 0.668843 21.2999
-1.50257 1.23377 17.0013
-0.979683 0.413447 21.456
1.07286 -0.324645 18.5419
0.882289 -0.467703 19.4096
-2.08218 1.21821 13.5911
-1.67164 -0.332654 8.1386
-1.75081 0.300339 19.6555
-2.30459 0.366443 14.1486
-1.5284 0.098327 20.3812
0.890678 0.711645 18.8956
1.07306 0.0519363 19.1722
-0.864955 -0.74744 8.88566
-0.318795 -0.770166 18.3169
-1.06382 -0.894346 20.047
-0.301899 -1.40134 18.4628
-1.59098 -1.20112 19.4382
0.932676 1.312 19.5711
0.652885 0.53684 19.6865
1.41702 1.63822 20.5934
1.24286 1.04437 20.2607
1.25124 1.06179 21.8654
1.31979 0.745999 21.2026
0.280072 -0.00511353 21.7993
0.575465 0.165417 21.6837
0.0421164 -0.369042 21.4627
0.0615045 -0.278596 21.5156
-0.200508 -0.722988 21.7186
-0.205668 -0.474427 21.1281
-0.0591322 -0.5138 22.0376
0.985305 -0.566142 20.0891
0.715086 -0.307498 19.8238
0.824686 -0.637857 21.1988
1.41605 -0.732305 20.5695
0.125359 -0.326402 21.4438
0.472015 -0.519076 21.3885
-0.287729 -0.0938007 21.6062
-0.00882353 -0.298855 21.4886
-0.798642 0.164144 21.4679
-0.705169 -0.015212 21.5824
-0.917604 0.159131 21.18
-1.03695 0.0779378 21.3123
-1.10908 0.0736864 20.6263
1.27337 -0.455089 19.9305
0.842519 -0.15029 19.6739
1.11203 -0.67302 21.3157
1.89849 -0.376907 20.516
0.244267 -0.459357 21.4681
0.811029 -0.539787 21.4308
-0.276792 -0.255154 21.7337
0.200363 -0.395598 21.6011
-0.970032 -0.10979 21.4408
-0.634238 -0.369235 21.6351
-1.15368 -0.218765 21.355
-1.06634 -0.366576 21.2673
-0.887198 -0.134694 21.0545
1.54675 0.0473555 19.7914
0.773839 0.246646 19.7513
1.55838 -0.208545 21.2049
1.51216 0.485649 20.3794
0.689496 -0.387863 21.5479
1.20878 0.0471778 21.2781
0.0394409 -0.376202 21.6941
0.484369 -0.160654 21.5837
-0.595942 -0.542446 21.4829
-0.0951804 -0.399359 21.4946
-1.0897 -0.708883 20.8832
-0.449141 -0.513238 21.2982
-0.583414 -0.703026 20.5809
0.819882 0.482731 20.08
1.07624 0.510358 20.7738
0.741718 0.179606 21.3865
0.206628 -0.132846 21.474
-0.100686 -0.360411 21.25
-0.225413 -0.313943 21.2066
-1.11425 -0.527897 20.0195
-1.78881 -2.04599 18.6931
-1.30699 -1.07185 19.7164
-1.85167 -0.976663 19.3473
-0.812334 -0.504066 19.532
-2.22363 -1.76458 20.6548
-0.955099 -0.665753 21.2533
-0.211676 -0.470952 18.5562
-0.746241 -1.01268 21.6182
-1.23177 -1.4135 22.066
-0.102011 -0.672618 21.6169
-0.192445 -0.388673 21.4565
0.176733 0.172223 16.0396
0.0570381 -0.338485 21.5649
0.0217953 -0.626865 20.7879
0.218919 -0.310587 21.2508
0.286022 -0.146532 21.6858
0.27456 0.328164 15.1095
0.433431 0.0717923 21.7463
0.400087 -0.015399 19.93
1.1461 0.576736 21.0199
0.977365 0.110665 21.4325
0.807233 1.63771 15.5988
1.11093 0.720808 21.3438
1.62128 0.506105 19.5157
1.53144 0.641146 20.8862
1.13518 0.0610155 21.1479
1.65629 1.56886 16.2873
1.44985 0.95602 21.0638
2.08128 0.49377 19.4442
1.20662 0.386559 21.0555
-1.44949 -0.239236 19.8562
-3.2786 -0.876432 16.7781
-2.43197 0.275354 18.9365
-1.03743 -0.214677 19.2492
-4.23418 -0.848368 20.3916
-1.40581 -0.495728 21.2952
-2.44582 -0.407033 21.8239
-0.817849 -1.05681 21.1956
-0.456263 -0.4797 21.5253
-0.912482 -0.89012 21.287
-0.128409 -0.43427 19.5731
0.158194 -0.332885 21.7987
0.056717 -0.426732 20.4585
1.29971 -0.238678 18.3835
0.970429 -0.350944 21.4873
0.755489 -0.913826 4.33646
0.885014 -0.852586 19.9404
1.81894 -0.244651 19.1016
1.2371 -0.45527 21.2896
2.51613 0.462783 10.7529
1.5578 -1.06717 19.591
1.89366 -0.546726 19.502
-1.22725 0.438085 19.9136
-1.88504 1.89525 18.5758
-0.986437 0.884416 19.8105
-0.910224 0.43709 19.3891
-2.29888 1.2946 20.184
-1.47901 0.270005 20.9489
-2.90969 1.95172 20.7674
-1.35336 1.0087 20.7414
-2.04012 0.24969 21.4869
-0.856601 -0.0905215 21.5259
-2.27912 -0.129472 20.1982
-1.01412 0.473517 21.6066
-0.76052 -0.1689 21.924
-0.159021 -0.286497 21.6385
0.161014 0.149874 16.523
-0.256164 -0.125111 21.668
0.0638646 -0.621453 21.7507
0.348212 -0.53683 21.4539
0.20742 -0.621982 17.1902
0.0567823 -0.457818 21.4282
0.479219 -0.877393 21.6821
0.56402 -0.490788 21.5226
0.603924 -1.40464 18.2329
0.285287 -0.707823 21.5582
0.401516 -0.987317 21.7129
1.78622 -2.08389 18.6409
-0.0202697 -3.14017 18.5926
-0.039958 -4.15018 15.4737
-0.0173997 -1.09381 18.5753
-0.00226866 -5.09208 23.3168
0.205023 -0.469034 18.5532
-0.00301557 -1.23265 22.033
-0.00699146 -0.0302103 11.5066
-0.190325 0.165857 15.9703
-0.00873905 -0.13022 19.2175
-0.016352 0.0929133 11.1268
-0.334276 0.303008 14.8958
-0.023129 0.251088 18.2338
-0.0834779 0.626455 10.5329
-0.893552 1.43497 15.4745
-0.0779768 1.17291 17.9239
-0.266887 0.0601638 3.25824
-0.118469 1.12722 11.7029
-1.69997 1.43413 16.2075
-0.0865456 2.12997 18.3961
-0.0383032 1.34623 6.39088
-0.137678 2.27231 14.404
3.29677 -0.921102 16.6269
-0.0605183 2.49909 12.8085
-0.0221183 -0.462952 17.6564
-0.643218 -1.34257 4.3865
0.102627 0.409861 -3.09705
0.338087 0.205979 -1.6237
-2.37221 0.136918 10.8285
0.974963 3.26762 -6.98104
0.233585 2.28675 0.661626
1.88211 1.85274 18.6053
0.030057 1.99867 19.2098
-0.00159291 1.03401 18.2864
0.0569007 5.05069 19.5709
2.90045 1.8779 20.7855
0.0464477 2.73903 20.2532
0.0371807 5.76325 18.0547
2.26056 -0.110024 20.29
0.00669913 2.45189 22.341
-0.0248443 0.137496 7.30087
-0.18976 0.229053 16.245
-0.0362002 0.220215 22.0467
-0.453729 0.110647 3.55849
-0.146645 -0.352049 17.0114
-0.0788409 -0.165662 21.7956
-0.645957 -0.0222176 4.92335
-0.569865 -1.16506 17.9284
-0.0932097 -0.652173 21.8373
-0.281785 -0.569241 6.26525
1.12266 -0.535974 20.0133
1.32364 -1.1098 19.6758
1.89435 -1.0076 19.2891
0.810001 -0.528937 19.5013
2.23182 -1.78508 20.6457
0.962826 -0.676916 21.2465
0.739694 -1.01872 21.6137
1.22826 -1.42145 22.0662
0.0973247 -0.675018 21.6033
0.187404 -0.400008 21.4513
-0.0719829 -0.346941 21.549
-0.0269833 -0.6353 20.7523
-0.229276 -0.324931 21.2029
-0.28021 -0.174928 21.6635
-0.44811 0.0458821 21.7043
-0.394415 -0.0695626 19.8736
-1.1201 0.499477 20.8703
-0.914425 0.0463572 21.4349
-1.08856 0.628187 21.3259
-1.51046 0.330485 19.5498
-1.44712 0.523472 21.0209
-1.05102 -0.0238647 21.2471
-1.44549 0.861518 21.0856
-2.00631 0.353424 19.5155
-1.17825 0.294675 21.2336
1.48421 -0.25794 19.8434
2.45836 0.287821 18.8924
1.04422 -0.215687 19.2054
4.24264 -0.858025 20.3881
1.41034 -0.499056 21.2978
2.4416 -0.404586 21.8171
0.815748 -1.05902 21.1893
0.453164 -0.486626 21.5195
0.908867 -0.88655 21.2469
0.130556 -0.448963 19.5524
-0.133252 -0.347889 21.7626
-0.0248236 -0.427849 20.3984
-1.18051 -0.31663 18.2436
-0.853108 -0.384511 21.4845
-0.666188 -0.835352 19.9435
-1.64356 -0.373731 19.305
-1.13512 -0.503601 21.3722
-1.42319 -1.10159 19.413
-1.79437 -0.619207 19.5094
1.20872 0.424326 19.9295
0.98195 0.850896 19.8315
0.90555 0.435769 19.3858
2.25874 1.23497 20.1952
1.45338 0.26863 20.9401
1.32658 0.95784 20.744
1.98698 0.251548 21.4621
0.846616 -0.0855662 21.5072
0.992761 0.46722 21.5847
0.758283 -0.157608 21.8957
0.175637 -0.264564 21.588
0.252089 -0.094158 21.6416
0.00847393 -0.543881 21.6725
-0.285758 -0.487339 21.4235
-0.047202 -0.38141 21.409
-0.369172 -0.759234 21.652
-0.490775 -0.526523 21.7236
-0.249265 -0.605798 21.6116
-0.31641 -0.943976 21.906
-1.52919 -1.05386 19.5688
-0.905448 -1.20755 21.8169
0.110066 -0.482944 21.4655
0.488125 0.00323586 21.312
1.45522 0.705764 20.7597
1.7801 0.777036 20.4668
-2.35596 -0.452204 18.9869
-2.09427 -1.03933 22.2275
-0.376912 -0.796643 20.2634
0.262362 -0.153388 19.2735
1.56575 -0.394595 18.849
1.90194 -0.149397 19.5194
-1.65723 0.922179 19.4351
-2.20042 0.715984 21.0074
-1.39983 -0.0352596 21.8611
-0.27861 -0.356232 21.9148
0.230791 -0.758871 21.599
0.699046 -1.15902 21.3989
-0.0294732 -3.81097 17.4622
-0.00250018 -0.453909 13.4628
-0.0110698 0.0390506 11.0459
-0.0324075 0.171331 10.7342
-0.138126 0.829659 10.6089
-0.0653545 1.7384 12.5625
-0.0527207 -1.44564 12.5019
-0.0182072 -0.387766 0.109615
0.216761 1.69482 -1.36349
0.025035 3.37087 17.4336
0.0394331 3.91833 19.7953
-0.00413147 1.05308 8.77265
-0.0759786 -0.238623 6.65506
-0.617266 0.168544 4.08407
-0.2927 -0.999837 6.81394
1.54311 -1.09329 19.5383
0.900035 -1.21337 21.8129
-0.116572 -0.489616 21.4337
-0.494428 -0.0357165 21.2352
-1.39867 0.559939 20.7668
-1.74807 0.652801 20.5863
2.38947 -0.457807 18.9348
2.09459 -1.04363 22.2281
0.375901 -0.803263 20.2528
-0.235873 -0.188874 19.2311
-1.36958 -0.504649 19.0924
-1.76153 -0.180411 19.7916
1.64602 0.905927 19.4436
2.15191 0.694685 20.9977
1.38076 -0.0307716 21.8347
0.293817 -0.325732 21.8616
-0.119111 -0.64377 21.5609
-0.593769 -1.01081 21.508
-0.951173 -0.38085 1.50788
-0.000618443 -0.00837252 0.0705532
-0.0269584 0.00715065 0.98648
0.128602 -0.0379635 0.27059
-0.0125409 0.0330413 0.25087
-0.0845103 0.117935 1.004
-1.98111 0.345923 3.05303
-0.397345 1.17633 1.63482
-0.717553 -0.0170518 2.73036
0.0549803 -0.0287796 0.132938
-0.0201051 -0.0046806 -0.000565255
-0.00803486 -0.0344734 0.43006
0.000566623 -0.00833906 0.0703556
0.975248 -0.390865 1.54551
0.0281101 0.0117189 0.974465
0.00309867 0.0324908 0.242917
-0.121882 -0.0596141 0.254158
0.0646452 0.111693 0.988688
0.393639 1.16197 1.62154
1.99444 0.344978 3.07847
0.716356 -0.0153999 2.72872
0.0170614 0.00109408 -0.00758983
-0.0485587 -0.041819 0.11848
0.0106058 -0.0377828 0.409965
-0.0914856 0.0785258 0.908077
0.00505922 0.0264638 2.10181
0 0 0
0 0 0
0.0105941 -5.6751e-05 0.268815
0.0047627 0.0189896 1.45876
-0.00108892 0.00435624 0.0237057
0 0 0
-0.0575381 -0.0699218 0.229932
-3.25036e-05 0.000152414 0.00349753
0.0160803 0.0400419 0.229729
-0.0412478 0.036152 0.104867
0.0218284 0.0542911 0.265819
0.00198151 0.0116998 0.0499481
0.00733957 0.0382768 0.138498
0.12184 0.0983211 1.04811
0.0928354 0.080498 0.931124
0 0 0
-0.00958703 0.0231953 2.13186
0 0 0
-0.0121885 -0.00038901 0.2684
0 0 0
-0.0102557 0.0150893 1.45262
0.00101557 0.00401471 0.0226319
0.0567197 -0.0691877 0.227313
0.0409537 0.0360393 0.104495
2.85529e-05 0.000124337 0.00296593
-0.0158345 0.0395173 0.2289
-0.0217878 0.0540838 0.260159
-0.128946 0.103319 1.04176
-0.00198999 0.01166 0.0497223
-0.00711671 0.0375754 0.136214
-5.37643e-17 -3.76085e-17 3.78012e-16
-0.945999 -0.0553062 0.304917
0 0 0
-0.00031031 -0.409537 -0.0411681
-0.00141887 0.000828187 0.044367
4.28107e-06 2.62303e-06 0.000491362
0.00774707 -0.00188386 0.0365847
-0.00412235 -0.00688 0.00299698
0 0 0
-0.00911744 -0.0371087 -0.0040371
0.00325258 0.00484654 0.0771913
3.64847e-05 0.000101594 0.0114143
-0.00104322 0.974692 0.286887
-8.28019e-07 0.000189998 0.000971517
-0.00888035 -0.0525355 0.34167
-0.00375824 0.000755667 0.00858912
-0.0117673 -0.0410763 0.000856202
-0.00175955 -0.00193597 0.0154114
0.0071153 0.00231538 0.139008
0.00113649 -0.00104436 0.014772
0.945014 -0.0562493 0.304942
0 0 0
-4.32402e-05 2.20047e-05 0.00381721
0.00160944 0.000906222 0.0498011
0.00156623 -0.0123132 0.00629792
-0.00702662 -0.00258442 0.0337835
-0.000204313 0.000107416 0.0113994
-0.00315937 0.00407236 0.0756665
0.00386028 0.000782361 0.0088578
0.00887396 -0.0523862 0.340134
-0.00155781 -0.000993304 0.014743
-0.00714963 0.00160935 0.144732
0 0 0
0 0 0
0 0 0
-0.00144733 0.0101233 0.0675333
0 0 0
0 0 0
2.31614e-07 6.26703e-05 0.000542617
-0.0151133 0.00934115 0.0846792
0 0 0
-3.10689e-08 -7.44027e-07 -9.06183e-05
0 0 0
-0.144904 0.105865 1.88054
-1.40651e-05 0.0014723 0.00476172
-3.79647e-05 0.0192702 0.0649415
-6.49917e-08 9.87331e-07 2.29649e-05
-8.35936e-06 -8.68748e-06 0.000883044
0 0 0
0 0 0
0 0 0
0.00145238 0.0100014 0.0678193
-3.44587e-07 8.40098e-05 0.000742919
0.0164639 0.00949382 0.0916594
0.140375 0.108925 1.87296
0 0 0
-0.024369 -0.00733453 0.131608
-0.159353 -0.0267449 0.500468
0.00411694 -0.000201607 0.0230086
0 0 0
0 0 0
0.00252339 0.0204663 0.119878
0 0 0