# vtk DataFile Version 2.0
tri_press
ASCII
DATASET UNSTRUCTURED_GRID
POINTS 3682 float
-0.763262 0.225 -2.045
-0.718316 0.285 2.045
-0.725 0.733893 -1.975
-0.755 0.975 1.97238
0.763268 0.225 -2.045
0.718321 0.285 2.045
0.725 0.733893 -1.975
0.755 0.975 1.97238
-0.773578 0.219702 -0.681667
-0.766351 0.231947 0.681667
-0.79974 0.879002 -0.659207
-0.78808 0.937711 0.656587
0.773836 0.21945 -0.681667
0.766356 0.231948 0.681667
0.799751 0.879013 -0.659207
0.788072 0.937703 0.656587
-1.54777 -0.14238 -3.12462
-1.54354 -0.0952061 -2.05299
-1.54915 -0.095525 -0.688432
-1.53732 -0.0979167 0.685698
-1.50449 -0.0613048 2.05107
-1.49474 -0.0224712 3.12664
-1.49583 0.017092 4.19491
-1.54313 0.154191 -3.10671
-1.54031 0.217694 -2.04028
-1.55449 0.233976 -0.684966
-1.5377 0.241835 0.674625
-1.49289 0.282527 2.03085
-1.48585 0.321129 3.10575
-1.49048 0.359607 4.17557
-1.52753 0.718586 -3.05755
-1.52076 0.780151 -1.98915
-1.56881 0.884833 -0.666248
-1.55654 0.935786 0.653287
-1.51793 0.974656 1.9771
-1.49914 1.01091 3.05397
-1.49552 1.04715 4.13145
-1.52282 1.65598 -3.01955
-1.52371 1.72926 -1.95827
-1.54378 1.84504 -0.650784
-1.55389 1.93931 0.64646
-1.54352 2.00026 1.95445
-1.52927 2.03773 3.01676
-1.5174 2.07245 4.08906
-0.77977 -0.138754 -3.12769
-0.768316 -0.0890943 -2.05747
-0.773164 -0.10184 -0.687832
-0.771724 -0.106053 0.691708
-0.748326 -0.0627027 2.06157
-0.738203 -0.0234609 3.13377
-0.737459 0.0159091 4.19903
-0.778828 0.152405 -3.10766
-0.726123 0.321247 3.11163
-0.731241 0.358993 4.17868
-0.764364 0.698984 -3.05167
-0.736427 1.01136 3.05303
-0.733689 1.04728 4.13125
-0.751217 1.64234 -3.01374
-0.74683 1.7163 -1.95187
-0.764857 1.84116 -0.646924
-0.779761 1.94139 0.645996
-0.77532 2.00271 1.95114
-0.76311 2.03943 3.01346
-0.751876 2.07354 4.08665
0.750987 -0.13879 -3.12769
0.767181 -0.0891514 -2.05747
0.772423 -0.10201 -0.687832
0.75724 -0.106089 0.691708
0.728036 -0.0627106 2.06157
0.750272 -0.0234723 3.13377
0.76756 0.0158924 4.19903
0.742342 0.152386 -3.10766
0.75628 0.32124 3.11163
0.772561 0.358979 4.17868
0.73639 0.698973 -3.05167
0.76893 1.01135 3.05303
0.778645 1.04727 4.13125
0.781468 1.64232 -3.01374
0.793422 1.71628 -1.95187
0.793199 1.84114 -0.646924
0.776877 1.94137 0.645996
0.766653 2.0027 1.95114
0.770213 2.03941 3.01346
0.777972 2.07352 4.08665
1.52073 -0.142463 -3.12462
1.53699 -0.095331 -2.05299
1.54665 -0.0957621 -0.688432
1.52871 -0.0980131 0.685698
1.49557 -0.0613348 2.05107
1.50582 -0.0225015 3.12664
1.52338 0.0170542 4.19491
1.51336 0.154133 -3.10671
1.53394 0.21762 -2.04028
1.55338 0.233731 -0.684966
1.53776 0.241756 0.674625
1.49603 0.282512 2.03085
1.509 0.321107 3.10575
1.52725 0.359575 4.17557
1.50742 0.71855 -3.05755
1.51988 0.780128 -1.98915
1.57056 0.884754 -0.666248
1.55791 0.93573 0.653287
1.52265 0.974642 1.9771
1.52513 1.01089 3.05397
1.53611 1.04712 4.13145
1.54865 1.65593 -3.01955
1.56164 1.72921 -1.95827
1.56833 1.84499 -0.650784
1.55493 1.93926 0.646459
1.54039 2.00022 1.95445
1.53912 2.03769 3.01676
1.54409 2.07241 4.08906
-0.759983 0.479446 -2.02585
3.01003e-06 0.221245 -2.04876
-0.774985 0.215786 -1.36333
-0.745631 0.63 2.01766
2.5034e-06 0.272825 2.05717
-0.76103 0.239777 1.36333
0 0.8707 -2.11181
-0.80607 0.850147 -1.3171
0 1.08948 2.08686
-0.776108 0.960923 1.31448
0.759978 0.479446 -2.02584
0.775213 0.215564 -1.36333
0.745823 0.63 2.01785
0.760989 0.239823 1.36333
0.806077 0.850155 -1.3171
0.776092 0.960907 1.31448
-0.772402 0.223387 0
-0.831709 0.549352 -0.670437
0.000128599 0.220721 -0.681667
-0.840932 0.584829 0.669127
2.53135e-06 0.237938 0.681667
-0.79042 0.904866 -0.00130999
5.7267e-06 1.2912 -0.659207
-4.17122e-06 1.50165 0.656587
0.772557 0.223237 0
0.831701 0.549232 -0.670437
0.840937 0.584825 0.669127
0.790182 0.904628 -0.00130999
-0.871238 0.514399 -1.34022
0.871239 0.514339 -1.34022
6.58047e-05 0.219277 -1.36333
2.86335e-06 1.02811 -1.3171
1.50502e-06 0.479446 -2.23302
-0.846889 0.56709 -0.000654995
0.846899 0.567028 -0.000654995
6.55654e-05 0.22931 0
7.77741e-07 1.48498 -0.00130999
-0.876459 0.607415 1.33891
0.876461 0.607413 1.33891
2.51737e-06 0.251113 1.36333
-2.08561e-06 1.47206 1.31448
1.2517e-06 0.63 2.24071
-0.769857 0.352223 -2.04366
-0.381629 0.221248 -2.04875
-0.774567 0.214949 -1.70417
-0.749793 0.4575 2.04915
-0.359157 0.277977 2.05202
-0.75601 0.246052 1.70417
-0.753227 0.60667 -2.01116
-0.3625 0.850703 -2.09181
-0.800225 0.826711 -1.64605
-0.742711 0.8025 1.98742
-0.3775 1.06885 2.06623
-0.77001 0.972418 1.64343
0.381636 0.221244 -2.04876
0.769891 0.352223 -2.04369
0.774622 0.2149 -1.70417
0.359162 0.278187 2.05181
0.749801 0.4575 2.04916
0.756036 0.246031 1.70417
0.3625 0.850592 -2.0917
0.753279 0.60667 -2.01121
0.800236 0.826721 -1.64605
0.3775 1.06886 2.06624
0.742714 0.8025 1.98742
0.770012 0.97242 1.64343
-0.775342 0.216683 -1.0225
-0.771838 0.222697 -0.340833
-0.810001 0.380848 -0.676052
-0.386604 0.220454 -0.681667
-0.761961 0.237591 1.0225
-0.767352 0.229692 0.340833
-0.832393 0.394012 0.675397
-0.38259 0.236111 0.681667
-0.805729 0.867399 -0.988155
-0.825571 0.7191 -0.664822
-0.789846 0.8867 -0.330258
-0.48607 1.25751 -0.659207
-0.782922 0.950146 0.985535
-0.839094 0.773564 0.662857
-0.792704 0.924743 0.327638
-0.523498 1.47859 0.656587
0.775626 0.216406 -1.0225
0.3868 0.22045 -0.681667
0.772142 0.222398 -0.340833
0.809982 0.380734 -0.676052
0.761925 0.237633 1.0225
0.382595 0.236111 0.681667
0.76736 0.229689 0.340833
0.832401 0.394009 0.675397
0.805689 0.867359 -0.988155
0.486074 1.2575 -0.659207
0.825576 0.719047 -0.664822
0.78984 0.886695 -0.330258
0.782927 0.95015 0.985535
0.523494 1.4786 0.656587
0.839098 0.773561 0.662857
0.792694 0.924733 0.327638
-0.854848 0.496923 -1.68304
-0.379991 0.479446 -2.24378
3.44074e-05 0.218429 -1.70604
2.25753e-06 0.350346 -2.2852
-0.868785 0.365093 -1.35178
-0.387459 0.214918 -1.36333
-0.840378 0.618707 1.67829
-0.372815 0.63 2.21025
2.51038e-06 0.257643 1.71025
1.87755e-06 0.451413 2.28251
-0.883145 0.423596 1.35112
-0.380514 0.243421 1.36333
1.43168e-06 0.979052 -1.71446
7.52509e-07 0.675073 -2.2171
-0.87377 0.682273 -1.32866
-0.403033 1.01845 -1.3171
-1.04281e-06 1.43573 1.70067
6.25849e-07 0.85974 2.19076
-0.866467 0.784169 1.3267
-0.388055 1.4634 1.31448
0.854848 0.496893 -1.68303
0.37999 0.479446 -2.24379
0.868788 0.364952 -1.35178
0.387639 0.214911 -1.36333
0.840298 0.618706 1.67838
0.372912 0.63 2.21031
0.883144 0.423618 1.35112
0.380496 0.243447 1.36333
0.873752 0.682247 -1.32866
0.40304 1.01843 -1.3171
0.866476 0.78416 1.3267
0.388045 1.4634 1.31448
-0.821761 0.389181 -0.000327498
-0.384902 0.228881 0
-0.831491 0.531875 -1.00533
-0.843129 0.558221 -0.335546
9.72021e-05 0.220067 -1.0225
9.70824e-05 0.226314 -0.340833
-0.849971 0.57596 0.334236
-0.865021 0.596122 1.00402
3.40484e-05 0.236454 0.340833
2.52436e-06 0.248854 1.0225
-0.826828 0.740065 -0.000982493
-0.527796 1.4601 -0.00130999
4.29503e-06 1.11922 -0.988155
3.25222e-06 1.42276 -0.330258
-1.69674e-06 1.49812 0.327638
-3.12842e-06 1.49681 0.985535
0.821758 0.389118 -0.000327498
0.385009 0.22888 0
0.831493 0.531785 -1.00533
0.843148 0.55813 -0.335546
0.849981 0.575927 0.334236
0.864962 0.596119 1.00402
0.826853 0.739985 -0.000982493
0.527728 1.46008 -0.00130999
-0.852883 0.358658 -1.6936
-0.829497 0.37481 -1.01391
-0.826032 0.698225 -0.996741
-0.855431 0.644471 -1.66454
0.852882 0.358587 -1.6936
0.85548 0.644458 -1.66454
0.826049 0.698185 -0.996741
0.8295 0.374646 -1.01391
-0.384544 0.2146 -1.70511
0.384637 0.214599 -1.70511
0.387311 0.215246 -1.0225
-0.387092 0.21525 -1.0225
-0.382767 0.969988 -1.68025
-0.40145 1.08316 -0.988155
0.401459 1.08314 -0.988155
0.38277 0.969939 -1.68025
-0.38081 0.351284 -2.26893
-0.371245 0.640872 -2.20284
0.371245 0.640872 -2.20284
0.380813 0.351284 -2.26893
-0.816695 0.384608 -0.33819
-0.824449 0.392911 0.337535
-0.831445 0.756057 0.330937
-0.830582 0.731774 -0.332902
0.816671 0.384525 -0.33819
0.83063 0.731724 -0.332902
0.831459 0.756014 0.330937
0.824447 0.39288 0.337535
-0.384782 0.22661 -0.340833
0.384933 0.226607 -0.340833
0.382925 0.234249 0.340833
-0.382869 0.23425 0.340833
-0.524836 1.39461 -0.330258
-0.528111 1.47427 0.327638
0.528079 1.47427 0.327638
0.524819 1.39462 -0.330258
-0.865554 0.415992 1.01326
-0.841343 0.440548 1.69123
-0.817085 0.793334 1.66086
-0.836472 0.772719 0.994776
0.865554 0.416002 1.01326
0.836478 0.772712 0.994776
0.817069 0.79333 1.66091
0.8412 0.440559 1.69127
-0.381844 0.242002 1.0225
0.381837 0.242027 1.0225
0.369829 0.255147 1.70721
-0.369835 0.255147 1.70721
-0.391048 1.4892 0.985535
-0.382777 1.4297 1.67205
0.382772 1.42971 1.67205
0.391039 1.4892 0.985535
-0.365986 0.454456 2.2506
0.366037 0.454456 2.2506
0.375206 0.83112 2.17602
-0.375157 0.83112 2.17601
-0.765819 0.288612 -2.04359
-0.572446 0.221404 -2.0486
-0.768331 0.220558 -1.87458
-0.735285 0.37125 2.04831
-0.538736 0.275809 2.05419
-0.738759 0.26393 1.87458
-0.735499 0.670281 -1.98947
-0.54375 0.790309 -2.03142
-0.769316 0.787006 -1.81053
-0.75018 0.88875 1.98122
-0.56625 1.03855 2.03593
-0.765785 0.976989 1.80791
0.572452 0.221377 -2.04862
0.765801 0.288612 -2.04357
0.770839 0.218057 -1.87458
0.538741 0.275988 2.05401
0.735284 0.37125 2.0483
0.738764 0.26393 1.87458
0.54375 0.790063 -2.03117
0.735281 0.670281 -1.98925
0.769318 0.787007 -1.81053
0.56625 1.03856 2.03594
0.750117 0.88875 1.98116
0.765983 0.977187 1.80791
-0.77132 0.221332 -0.852083
-0.771527 0.222381 -0.51125
-0.792466 0.299937 -0.678859
-0.580872 0.218516 -0.681667
-0.762334 0.236591 0.852083
-0.767018 0.230653 0.51125
-0.808525 0.308403 0.678532
-0.574605 0.233759 0.681667
-0.805097 0.875563 -0.823681
-0.818519 0.801982 -0.662014
-0.794361 0.882419 -0.494733
-0.678971 1.14039 -0.659207
-0.785302 0.943729 0.821061
-0.818112 0.8579 0.659722
-0.790391 0.931226 0.492113
-0.652999 1.20257 0.656587
0.77129 0.221369 -0.852083
0.581283 0.21802 -0.681667
0.771806 0.222107 -0.51125
0.79244 0.299826 -0.678859
0.762324 0.236606 0.852083
0.574898 0.233184 0.681667
0.767023 0.230653 0.51125
0.808527 0.308404 0.678532
0.805105 0.875571 -0.823681
[...]
POINT_DATA 3682
SCALARS point_scalars float 1
LOOKUP_TABLE default
-122.294
-51.5912
-47.4461
-45.575
-121.878
-49.2661
-45.7758
-41.2899
-36.0872
-32.4492
-53.2111
-44.0168
-35.9218
-32.1257
-52.8418
-43.2652
-39.5637
-75.7631
-35.4934
-27.8448
-48.9319
-45.0037
-41.3347
15.593
-75.7631
-36.6489
-32.6364
-49.1534
-42.8647
-41.3347
-68.8105
-79.7478
-47.4744
-40.4046
-46.8227
-40.8947
-40.2629
-19.9827
-70.7343
-82.2166
-50.2531
-45.8993
-44.3451
-38.7463
-56.7172
-151.226
-36.7281
-34.9313
-49.7671
-44.8755
-40.8884
103.355
-40.8982
-40.8884
155.982
-39.2351
-40.1557
17.18
-52.817
-59.5584
-55.5009
-45.0297
-35.8952
-36.9134
-56.7055
-150.705
-36.5784
-34.6768
-48.1141
-43.1795
-40.0048
82.885
-39.8113
-39.9793
156.019
-35.5747
-39.1317
17.018
-53.918
-61.2208
-54.9519
-41.7763
-32.0197
-31.207
-21.5399
-76.3467
-35.309
-27.4004
-46.7451
-42.9625
-39.7809
19.5999
-76.3467
-36.4519
-32.0414
-46.9104
-41.2934
-39.7809
-68.1937
-79.79
-47.1808
-39.6536
-43.3315
-37.5264
-38.5226
-34.5243
-71.1052
-81.7544
-49.5085
-42.5647
-39.9088
-34.7218
-66.2934
-117.578
-55.6226
-45.06
-48.0992
-45.7029
-74.1206
-60.7483
-29.7272
-48.6322
-65.6786
-55.5207
-42.0176
-44.856
-60.5861
-46.6704
-34.0806
-38.929
-40.5592
-36.5168
-38.0289
-44.9909
-6.10013
-60.427
-33.8813
-38.7125
-35.8443
-44.5825
-67.6764
-67.5437
-55.8905
-5.30132
202.903
-37.8267
-37.4836
-36.109
-85.3142
-53.9619
-52.2194
-42.4827
-47.2968
-38.2307
-102.023
-114.197
-77.0183
-46.8756
-48.5658
-52.462
-87.1402
-47.5433
-71.8844
-45.4998
-35.5092
-46.6226
-114.206
-101.794
-76.8197
-47.4979
-44.3614
-50.9404
-47.6709
-85.9819
-71.8106
-30.0912
-42.0942
-43.7956
-48.5055
-33.2641
-36.5774
-39.9873
-39.8046
-34.5627
-32.7891
-37.1958
-50.0904
-43.2684
-48.4204
-17.2882
-43.1886
-39.7031
-45.1134
-54.8141
-48.3985
-39.8936
-33.0864
-36.3845
-39.3655
-37.071
-34.287
-32.2227
-49.9118
-17.0983
-43.0047
-48.0584
-42.04
-54.2397
-38.966
-44.5708
-92.5164
157.345
-74.3194
169.966
-64.8517
-55
-53.5337
-39.1707
-46.2299
-40.8181
-53.8712
-43.0426
-36.3927
176.071
-68.3571
-13.9834
-38.0528
-37.1083
-53.9927
-47.8047
-92.5074
157.363
-64.7148
-54.9769
-50.986
-37.2042
-52.3026
-42.6568
-68.2172
-13.9273
-52.0465
-46.7313
-35.4429
-35.5958
-48.3922
-38.4211
-46.0887
-36.7869
-37.2921
-35.1154
-35.4667
-38.937
-41.2127
-73.7522
21.439
-65.3831
-69.7501
-54.0746
-35.1496
-35.4754
-48.2152
-38.1492
-36.8193
-34.0817
-40.8491
-73.3324
-85.6306
-48.9143
-48.5736
-82.0603
-85.5921
-82.4287
-48.3787
-48.7459
-73.4533
-73.431
-45.4796
-45.5172
-39.2577
9.22978
9.37819
-39.3
151.598
147.642
147.91
151.655
-35.6439
-34.9772
-39.5154
-42.6702
-35.4149
-42.3599
-39.0249
-34.5701
-36.1276
-36.0662
-34.9603
-35.0636
-74.4557
-60.6678
-60.2105
-74.0918
-36.2495
-54.0159
-51.454
-39.6775
-35.3678
-38.5541
-48.7572
-51.8257
-38.9878
-38.7858
-47.7169
-48.3372
-53.1418
-42.3068
-39.8506
-52.4862
-40.7607
-39.9795
-36.0271
-38.798
-106.068
-129.138
-78.6968
-48.8366
-49.1106
-49.5968
-73.3394
-5.25393
-69.6284
-46.7945
-37.7115
-45.5148
-129.08
-105.855
-78.3309
-47.5459
-46.4636
-47.9126
-4.78966
-71.6311
-69.6492
-33.7038
-42.6797
-42.0569
-39.0157
-33.7249
-35.7954
-38.8647
-35.9323
-33.5935
-31.7506
-36.6353
-50.8482
-47.5687
-51.0411
-82.8579
-43.4101
-42.2073
-44.7702
-47.9475
-38.8428
-38.783
-33.5533
-35.609
-35.6405
-36.4293
-33.3145
-31.2683
-50.5929
-82.4597
-47.2685
-50.6866
-42.4386
-47.1363
-41.4665
-44.1477
-99.0409
-64.7548
-87.0569
101.143
-115.982
-115.996
-90.3689
-38.178
-62.9744
-51.0126
-62.5209
-54.6347
-45.7031
-45.2982
-48.8924
-39.4153
-48.3348
-47.7763
-47.0787
-43.0454
-49.5145
-43.0177
-53.3348
-43.6989
-57.4169
-56.5599
-48.8307
111.127
-64.2384
-51.5617
-66.7493
-29.5624
-32.7511
-28.7361
-31.6875
-31.606
-47.8965
-47.5529
-51.9319
-47.3021
-98.5728
-63.9684
-86.9024
101.111
-62.8659
-50.9061
-62.398
-54.5707
-43.0771
-42.172
-46.1291
-36.9908
-48.377
-42.3975
-51.8816
-43.0552
-64.1651
-51.368
-66.6032
-29.4379
-45.5521
-46.0344
-49.9512
-45.7036
-35.0087
-33.0693
-34.8097
-35.0717
-37.5678
-40.8594
-41.0991
-38.4259
-40.4712
-40.4134
-42.8104
-38.1078
-35.3464
-37.8976
-37.9832
-33.8833
-37.8968
-37.8371
-36.3773
-38.1065
-48.0559
-44.3822
-43.1319
-55.7896
-6.05178
-5.58285
15.9982
-36.8688
-59.411
-59.1336
-64.9793
-56.6865
-34.837
-32.8182
-34.5301
-34.9203
-37.3633
-40.6204
-40.9095
-38.1815
-34.7062
-37.1906
-37.4061
-33.1391
-47.6753
-43.9297
-42.7553
-55.2949
-74.8875
-66.1534
-68.3338
-58.6717
-74.8187
-66.0117
-68.1968
-58.504
-63.4514
-55.6586
-55.6535
-50.3108
-21.7459
-7.355
-7.32807
6.93924
200.307
203.265
199.099
200.384
-36.3443
-38.2533
-37.3995
-39.3064
-36.0284
-37.9488
-37.0015
-38.9491
-36.0643
-36.2038
-35.7084
-36.0004
-83.1477
-86.862
-77.2996
-82.9938
-55.0989
-54.0314
-54.7736
-51.6976
-52.9671
-52.3624
-52.9174
-50.2538
-44.6466
-42.6705
-42.4779
-40.5821
-42.3902
-47.5674
-46.9987
-51.8749
-38.6189
-40.5847
-38.0024
-37.6251
-83.9287
109.899
-89.5612
35.757
-83.8207
-73.7474
-49.0582
-41.0743
-47.4294
-43.4297
-55.1784
-49.4306
-80.5184
99.638
-49.0233
90.1668
-74.797
-48.5774
-48.5566
-39.5349
-35.7262
-37.1891
-49.4652
-45.7796
-89.5476
35.9567
-83.7306
110.023
-83.7914
-73.7141
-46.6683
-42.2358
-46.6843
-39.6534
-53.1133
-48.504
-49.1559
90.1987
-81.3094
99.3563
-74.8874
-48.5243
-32.4032
-31.8019
-45.5098
-36.6318
-46.6827
-42.531
-50.765
-45.0689
-34.8784
-35.354
-39.6889
-35.8145
-42.1237
-37.216
-36.6506
-39.1659
-34.1968
-34.6369
-34.4444
-31.1527
-35.8687
-38.0519
-51.1243
-22.5853
-43.7733
-43.1629
-45.4814
-64.2908
8.59766
-53.2986
-41.7867
-49.6247
-39.7998
-39.2062
-41.5489
-51.8051
-56.9123
-53.2633
-50.5959
-44.9779
-42.0278
-37.1523
-34.6594
-35.2412
-39.5175
-35.6053
-35.8505
-38.8429
-35.7578
-37.8986
-33.8199
-34.4529
-33.9684
-30.4957
-50.9054
-22.3676
8.82006
-53.0441
-43.5523
-42.8734
-45.1465
-63.8682
-40.6121
-48.6286
-56.3904
-52.692
-39.1964
-38.2899
-41.0703
-51.2151
-90.6097
-91.254
161.598
162.296
-73.9916
-73.98
170.367
170.414
-71.8188
-59.5117
-62.4558
-49.5713
-53.9988
-52.4105
-40.4051
-39.4289
-47.173
-47.4901
-40.9109
-40.5777
-52.4371
-56.0523
-40.9311
-45.7098
-35.9025
-35.8916
174.55
174.617
-58.4752
-75.903
-27.6213
-3.38367
-39.5633
-38.2298
-36.2907
-37.876
-54.0462
-43.8075
-51.3651
-44.4046
-90.5852
-91.4847
162.393
161.428
-71.739
-59.3555
-62.4297
-49.5362
-49.8032
-51.5766
-39.683
-37.4526
-51.1297
-54.1381
-40.6512
-45.2257
-75.872
-58.2988
-3.31475
-27.5995
-42.3712
-51.7249
-42.8685
-50.5608
-35.5296
-35.4651
-35.6164
-35.3288
-48.4207
-48.191
-36.8221
-40.2468
-45.9563
-45.9726
-36.6282
-36.6011
-36.0861
-38.3413
-35.7939
-36.3497
-35.3471
-35.3945
-39.0137
-38.9149
-39.5977
-42.2045
-81.757
-66.5937
19.538
19.6015
-64.9122
-65.2236
-67.6857
-67.4879
-53.9561
-53.6198
-35.2734
-35.1188
-35.5042
-35.2261
-48.0079
-48.2487
-36.5735
-39.9556
-37.8519
-35.6467
-34.8549
-35.2509
-41.8668
-39.1845
-66.1963
-81.3703
-75.3265
-69.333
-73.4311
-88.4793
-39.0338
-40.3211
-59.2143
-59.0098
-47.0005
-56.8913
-58.0344
-42.1467
-80.0719
-84.5755
-75.559
-70.5557
-75.1119
-88.2514
-73.3608
-69.2408
-80.5033
-70.5479
-75.4818
-84.6852
-46.7567
-41.9443
-57.8623
-56.7248
-38.8576
-58.8614
-59.053
-40.1416
-91.7087
-89.9545
-63.1537
-62.197
-91.7281
-62.1401
-63.1436
-89.9425
-41.1975
-42.4754
-50.0889
-49.1908
-41.3152
-49.2647
-50.1033
-42.5413
-56.2039
-37.6405
-22.753
-48.3312
-56.1123
15.9123
4.68059
-22.7307
-55.8387
-22.585
4.72162
16.0239
-56.0585
-48.2405
-22.7357
-37.575
11.527
121.6
201.122
-23.4558
34.2524
124.573
193.809
99.6284
33.5478
99.473
193.888
124.901
11.8472
-23.4735
201.278
121.68
-34.8879
-34.7817
-36.5777
-36.9131
-33.7307
-36.137
-36.2137
-34.5931
-42.1502
-41.2315
-38.4554
-38.7108
-47.0293
-40.4925
-39.889
-44.9213
-34.6849
-36.6892
-36.3004
-34.5439
-46.7039
-44.5684
-39.5681
-40.2128
-41.5531
-38.1186
-38.0439
-40.8177
-33.2925
-34.2647
-35.8439
-35.6039
-36.2305
-37.854
-35.9972
-35.0264
-36.1216
-34.8975
-35.9401
-37.8213
-35.0186
-36.1979
-35.5631
-34.6555
-35.1994
-34.8151
-35.615
-36.2495
-70.0065
-59.9802
-85.6606
-36.5483
-49.1597
-63.5121
-75.3181
-53.5042
-48.4712
-52.9948
-75.1472
-63.2792
-69.5893
-36.4546
-85.4655
-59.5379
-27.735
-50.4088
-51.6644
-32.5398
-49.1986
-49.0249
-55.4688
-56.4686
-47.4838
-50.7828
-55.1092
-48.9448
-42.2236
-35.9273
-47.5752
-43.9877
-27.2766
-31.8129
-50.2817
-49.2683
-41.3
-42.5505
-46.1174
-35.1093
-44.3087
-46.0296
-52.8514
-48.439
-47.0008
-54.639
-53.4789
-46.4709
-37.2655
-38.0999
-40.7367
-41.427
-37.053
-41.0308
-40.5997
-38.0251
-47.5654
-46.518
-44.7508
-46.0596
-48.7123
-46.8263
-44.9963
-46.9288
-47.5167
-49.8713
-51.8966
-56.173
-40.5245
-33.5434
-43.2161
-45.4883
-36.5946
-43.3337
-42.3669
-31.3927
-46.5813
-55.875
-51.5067
-48.5392
-43.1014
-43.1587
-40.6829
-40.4416
-41.4954
-38.9693
-40.4871
-42.6233
-35.0311
-31.0989
-37.665
-37.614
-38.9347
-39.9486
-38.7437
-34.5093
-115.72
-141.299
-115.662
-50.9654
-51.1101
-49.6361
-59.5151
-11.3543
-69.6721
-46.8641
-40.1386
-44.6276
-141.088
-115.31
-114.879
-49.1099
-48.5634
-47.6766
-9.72681
-49.6615
-70.2296
-35.9005
-42.8262
-40.8715
-36.7833
-35.1197
-35.5241
-37.9928
-35.0732
-34.7599
-31.555
-35.6481
-52.798
-50.1347
-52.1468
-66.1072
-43.6794
-43.0415
-44.3424
-45.9338
-36.603
-37.8862
-34.9533
-35.3386
-34.8302
-35.4126
-34.4354
-31.1332
-52.5048
-65.4248
-49.8173
-51.8036
-42.8858
-45.1483
-42.2992
-43.6612
-82.4311
-67.9069
-133.902
74.6804
-117.273
-117.273
-103.467
-110.82
-58.9957
-52.82
-60.1795
-54.5863
-45.144
-45.1582
-47.0143
-40.6018
-48.2776
-47.9891
-47.1964
-44.6841
-47.2533
-44.2705
-50.4449
-44.2015
-71.7346
-71.7052
-55.9533
39.5845
-64.0364
-56.2738
-64.5418
-46.0321
-31.1038
-28.8519
-30.65
-30.1888
-47.9615
-49.0701
-50.7305
-46.7618
-81.9042
-67.2282
-133.378
74.9829
-58.8971
-52.7154
-60.0625
-54.5046
-42.3815
-42.0785
-44.1093
-37.9089
-46.2757
-43.54
-49.2134
-43.4941
-63.8933
-56.1053
-64.3827
-45.8733
-45.9155
-47.3174
-48.7492
-44.8608
-33.175
-36.1707
-34.3679
-34.8292
-38.2308
-39.8502
-39.6442
-38.5189
-40.6391
-40.6162
-41.2535
-39.3664
-35.9578
-37.1737
-37.4928
-35.4529
-37.9478
-37.9192
-37.0149
-38.3121
-46.1878
-44.8991
-43.6671
-50.7611
-6.22945
-6.00978
7.31533
-22.2651
-60.2075
-60.0698
-62.8128
-58.3438
-32.9986
-35.9485
-34.1074
-34.6613
-38.02
-39.6245
-39.4439
-38.2888
-35.3007
-36.5769
-36.8638
-34.7315
-45.8112
-44.4528
-43.2909
-50.2848
-70.3493
-67.0532
-68.0761
-62.8975
-70.2425
-66.9214
-67.9385
-62.7478
-59.3671
-55.8337
-55.8286
-52.8899
-13.3753
-5.80052
-5.78594
1.07469
203.977
202.316
202.393
204.016
-37.0666
-38.1046
-37.523
-38.5177
-36.7338
-37.7796
-37.1559
-38.1673
-36.1294
-36.1209
-36.2091
-36.1005
-84.8227
-88.2647
-82.3403
-84.7531
-54.1219
-53.9946
-54.1389
-53.6431
-52.2168
-52.2781
-52.3602
-52.054
-43.5402
-42.5292
-42.4337
-41.4983
-44.8603
-47.4271
-47.1407
-49.3363
-38.4475
-39.7574
-38.2057
-37.9972
-98.052
-108.69
-110.121
70.1873
-119.661
-115.003
-102.757
-79.9542
-83.3507
-69.8201
-83.7797
-73.8855
-47.3749
-46.2475
-47.5666
-42.4529
-49.0949
-48.3771
-47.7021
-45.4111
-51.0754
-51.3596
-55.6271
-50.4348
-84.0783
-95.257
-100.574
57.8706
-18.9352
-51.8217
-50.0464
25.1286
-71.7224
-68.9183
-75.7592
-59.1998
-45.638
-45.4921
-47.2125
-40.676
-36.5287
-34.3348
-34.9776
-35.9558
-46.2564
-47.0846
-47.4441
-44.5514
-119.645
-115.033
-102.744
-79.995
-98.0233
-108.413
-109.768
70.3573
-84.1594
-69.6403
-83.6489
-73.8129
-47.8053
-47.5373
-46.826
-44.1946
-44.9801
-43.5741
-45.0852
-40.4562
-49.4011
-50.0323
-53.656
-49.3211
-19.1874
-51.7383
-49.9113
25.0311
-82.8849
-94.4332
-100.684
58.0276
-71.7183
-69.1256
-75.7182
-59.127
-31.8316
-29.1294
-31.2161
-29.9348
-42.0437
-42.2433
-43.9471
-37.6726
-43.1115
-44.5271
-44.6477
-41.5212
-44.3863
-48.3612
-51.6915
-45.1977
-35.4026
-33.9072
-33.4691
-34.8858
-36.1635
-36.9815
-37.6096
-36.0694
-39.5314
-40.1977
-41.1519
-38.5078
-38.9212
-41.4987
-37.9337
-39.2451
-32.8375
-33.5102
-34.4483
-34.2129
-31.8795
-34.3189
-33.7759
-31.8706
-36.894
-37.6258
-36.4383
-37.97
-50.3162
-50.2336
-51.9131
-46.5856
-44.9413
-41.929
-43.3641
-43.191
-50.0504
-47.7785
-46.7011
-55.1895
-50.187
-7.45723
-3.29951
-32.9554
-43.0662
-44.4195
-42.2335
-44.5757
-40.9877
-38.6873
-39.9753
-39.0141
-45.1061
-44.5679
-43.1449
-48.0271
-49.8284
-57.9499
-55.8123
-55.4908
-44.2641
-48.248
-51.5031
-45.0946
-39.4506
-40.0852
-41.0518
-38.4491
-35.2277
-33.7442
-33.2699
-34.761
-35.9734
-36.7843
-37.4252
-35.8687
-38.5694
-40.9793
-37.3101
-38.8892
-36.7382
-37.5317
-36.3222
-37.8361
-32.5519
-33.27
-34.1073
-34.0153
-31.3649
-33.7092
-33.2603
-31.2667
-50.0344
-50.0671
-51.704
-46.3411
-49.9172
-7.30962
-3.11517
-32.7054
-44.6608
-41.6771
-43.1237
-42.9121
-49.7099
-47.3977
-46.352
-54.8089
-42.0038
-43.0957
-41.0784
-43.4592
-49.0742
-57.5355
-55.259
-54.922
-40.2452
-37.9633
-39.306
-38.2021
-44.5227
-44.0779
-42.6405
-47.4502
-89.573
-83.5952
-91.8713
-92.0951
124.475
195.473
157.602
158.416
-81.0833
-68.3941
-74.2727
-74.2666
105.763
203.56
170.496
170.518
-64.0923
-65.4221
-67.6366
-62.5213
-54.7836
-55.325
-58.4111
-52.0585
-51.1361
-55.4905
-54.0294
-53.0578
-39.2605
-38.9451
-39.9669
-39.3044
-46.5201
-45.8606
-46.6542
-46.7895
-41.5754
-40.5114
-40.8976
-40.7462
-53.5832
-54.0137
-53.5517
-53.9216
-43.3453
-42.8834
-41.9152
-44.2803
-43.2676
-28.8175
-35.7584
-35.7337
151.829
191.259
175.663
175.715
-67.9362
-68.4114
-63.283
-71.5436
-20.122
-10.0549
-21.3475
-8.34207
-35.3199
-40.252
-38.6795
-37.9804
-35.2855
-37.323
-36.5431
-37.3799
-52.9713
-54.7893
-54.4175
-51.2655
-47.6348
-47.6822
-49.5263
-45.995
-89.4663
-83.5832
-91.8273
-92.1774
124.468
195.585
158.54
157.503
-63.9603
-65.2792
-67.5216
-62.3784
-54.7365
-55.3275
-58.3836
-52.0252
-48.486
-53.1056
-50.479
-51.5194
-37.0672
-37.4594
-38.9129
-37.3585
-52.0643
-52.3935
-52.1234
-52.2246
-42.8293
-42.5989
-41.582
-43.8459
-67.8067
-68.2731
-71.4567
-63.1245
-20.0386
-10.0157
-8.27799
-21.3037
-51.0109
-52.8866
-49.5418
-52.2924
-46.3086
-46.8435
-44.7077
-48.5972
-35.0585
-35.8878
-35.4693
-35.4561
-35.3134
-35.9128
-35.5709
-35.7054
-44.0697
-53.2707
-48.4683
-48.2875
-38.4234
-38.4009
-37.5343
-39.3321
-44.4742
-48.0744
-46.0364
-46.0522
-37.3314
-36.3878
-36.7619
-36.7466
-37.5297
-37.2949
-36.6755
-37.852
-33.1356
-42.6534
-35.5271
-35.3668
-35.869
-35.2144
-35.4306
-35.4537
-38.2935
-39.7288
-38.9562
-38.907
-42.1661
-40.292
-40.4155
-41.8174
-63.7946
-79.5282
-79.7622
-70.2991
22.7594
14.0633
21.0845
21.1217
-51.3376
-76.631
-65.1303
-65.3148
-66.8601
-72.9579
-69.1611
-69.0643
-55.2366
-53.2791
-54.0901
-53.9226
-34.7748
-35.5834
-35.1962
-35.1378
-35.1814
-35.8164
-35.4472
-35.5973
-43.887
-53.097
-48.1084
-48.2947
-38.1629
-38.1164
-37.2737
-39.05
-37.0059
-36.8604
-37.3683
-36.219
-32.2672
-41.4798
-34.5548
-34.2885
-41.7997
-39.9291
-41.4669
-40.0307
-63.3003
-79.2746
-69.8795
-79.356
-82.9994
-84.3286
-88.7277
-80.9099
-49.4935
-43.5126
-53.7977
-48.5888
-49.467
-45.422
-52.6887
-48.2783
-73.1194
-74.0954
-86.0517
-84.7642
-82.9721
-84.2993
-88.6969
-80.8236
-73.3168
-74.3209
-86.1977
-84.8664
-49.262
-45.2173
-52.5008
-48.0908
-49.319
-43.3411
-53.6305
-48.4183
-79.9831
-73.5581
-73.6981
-67.4393
-79.9633
-73.5293
-73.6845
-67.4131
-45.1278
-43.5186
-47.3525
-45.9301
-45.205
-43.6011
-47.399
-45.9279
-45.7156
-43.0628
-36.7982
-32.5068
-2.055
12.9164
2.68141
15.7894
-1.95364
13.0729
2.75412
15.9136
-45.7623
-43.081
-36.8047
-32.5084
133.32
116.562
164.91
166.851
132.078
125.752
156.072
166.477
125.879
132.038
166.731
155.952
116.654
133.439
166.909
164.73
-35.1781
-35.7049
-35.5935
-36.2157
-34.5536
-34.7632
-35.2917
-35.461
-39.6752
-40.3796
-38.8589
-39.3932
-42.9335
-44.1747
-41.274
-42.4262
-34.9568
-35.4859
-35.3522
-35.9779
-42.6309
-43.8526
-40.9736
-42.1051
-39.1318
-39.8975
-38.366
-38.946
-34.1633
-34.3209
-34.9167
-35.0372
-35.7941
-36.5702
-35.8514
-36.3934
-36.5148
-35.7047
-36.3471
-35.7676
-35.3212
-34.7361
-35.1509
-34.7615
-34.874
-35.4278
-34.8633
-35.2254
-84.1757
-62.0901
-75.0572
-64.0393
-56.4069
-58.1502
-63.4384
-65.0773
-57.6678
-55.8204
-64.7755
-63.0246
-61.7959
-83.6814
-63.8722
-74.6223
-36.313
-33.1501
-42.85
-35.9775
-51.5342
-54.0771
-53.9445
-56.765
-49.9626
-50.8678
-51.8177
-53.0616
-40.9774
-39.7389
-40.2606
-38.1596
-35.4609
-32.3712
-41.7863
-35.0675
-39.8204
-38.7106
-39.0136
-37.0716
-47.1076
-48.133
-49.1661
-50.5438
-49.2417
-51.9731
-51.6595
-54.6585
-39.0892
-38.1684
-39.9177
-39.0037
-38.8153
-37.9947
-39.6836
-38.8552
-46.9941
-48.2564
-47.2215
-47.1396
-47.6784
-49.0334
-47.6954
-47.6886
-53.1216
-53.6088
-52.6292
-53.6423
-40.4928
-44.8887
-40.5434
-43.1144
-37.3255
-42.0067
-38.6436
-41.2378
-52.3126
-53.0047
-51.9045
-53.1187
-40.7674
-41.6544
-40.4362
-40.8955
-40.6603
-39.6821
-40.3721
-39.7232
-34.2275
-36.3265
-36.2576
-37.0138
-39.3872
-38.2104
-39.2118
-38.3752
-109.496
20.8488
-109.686
-66.1011
-74.1699
-91.2933
-49.0558
-44.5605
-48.4853
-45.0223
-49.2999
-49.5272
-84.9049
19.4648
-40.9146
6.20733
-78.264
-60.2414
-47.3122
-40.3007
-38.3168
-38.2179
-46.2026
-43.4368
-109.663
-65.6664
-108.943
20.98
-73.7177
-91.4378
-47.125
-43.1981
-46.64
-42.6
-47.2031
-48.1791
-40.2814
6.44895
-86.3818
18.7545
-78.3988
-60.1506
-34.259
-34.0124
-43.8555
-36.72
-42.9568
-39.4526
-38.903
-40.4124
-33.5505
-35.5494
-36.6951
-35.2357
-39.6368
-37.4823
-30.5485
-37.0395
-33.3293
-34.722
-33.1073
-27.9808
-35.689
-37.5588
-49.2473
-58.2555
-46.7823
-47.6098
-48.9347
-58.0547
-73.6816
-79.3362
-42.5647
-44.7807
-42.2312
-42.2661
-43.5604
-46.8071
-48.4936
-47.5679
-38.7207
-40.2715
-39.4903
-37.4149
-33.3483
-35.4237
-36.509
-35.0374
-30.22
-36.7668
-35.4855
-37.3756
-32.9312
-34.5057
-32.6443
-27.4913
-48.9945
-58.0417
-73.3822
-78.8768
-46.5215
-47.2879
-48.5919
-57.7082
-41.5899
-43.8684
-47.7371
-46.7003
-41.5636
-41.4425
-42.9558
-46.1308
-124.167
74.0526
-124.228
70.1484
-87.6781
-86.2267
104.482
102.136
-102.756
-99.314
-102.744
-99.3279
-90.4503
-90.4459
-35.5862
-35.603
-67.2
-62.1528
-56.2436
-49.3463
-64.5951
-60.532
-58.0621
-51.7449
-47.2794
-41.8134
-47.2588
-41.171
-48.8157
-48.9505
-40.058
-39.6899
-47.3264
-44.7103
-46.8591
-44.0941
-46.8539
-47.0758
-42.9586
-42.6566
-54.2812
-47.3887
-48.2059
-41.7162
-52.0577
-53.029
-42.5153
-45.1581
-56.3315
39.976
-56.3225
40.6135
-48.7536
-48.6991
124.312
124.426
-67.3114
-48.9156
-54.9282
-40.6518
-61.135
-70.274
-32.7436
-26.7165
-32.8089
-32.8583
-29.9731
-28.4787
-32.5048
-31.3567
-31.0136
-33.0484
-49.422
-45.8958
-45.4143
-49.6267
-51.8121
-49.3753
-48.5515
-46.3562
-123.796
74.2247
-123.564
70.9171
-87.4755
-86.1236
102.035
104.447
-67.0971
-62.0702
-56.1059
-49.2559
-64.4921
-60.3945
-58.0002
-51.6772
-44.6354
-39.7366
-44.1963
-38.5301
-46.1029
-46.1563
-38.2852
-37.2191
-52.6986
-46.509
-47.2622
-41.2117
-50.7679
-51.4591
-42.0376
-44.4084
-67.2891
-48.8291
-54.7598
-40.4606
-70.1688
-60.9914
-26.5796
-32.6588
-47.0798
-43.5487
-43.9472
-47.9774
-47.6326
-49.6414
-44.502
-47.0946
-35.19
-34.7011
-33.1982
-34.7089
-34.7976
-34.8621
-35.0028
-35.3266
-38.409
-37.039
-41.2393
-40.6224
-40.7606
-41.5038
-37.507
-39.4326
-41.1188
-39.2506
-41.0496
-39.2221
-42.6732
-42.6996
-38.0654
-38.0497
-36.2214
-34.2035
-38.588
-36.7348
-37.4706
-38.3059
-33.1597
-34.6766
-36.9636
-38.3549
-36.8259
-38.2896
-36.3341
-36.3585
-38.0366
-37.9999
-46.35
-53.1166
-42.1607
-49.2899
-42.0084
-44.3079
-57.6829
-53.5042
7.04606
-21.7325
7.12889
-21.632
15.9723
16.0385
-36.9263
-36.8856
-61.6367
-57.6499
-61.3825
-57.3627
-64.6582
-64.5437
-56.6026
-56.4541
-34.9723
-34.5648
-32.9044
-34.5107
-34.5396
-34.5604
-34.8632
-35.1704
-38.2182
-36.8257
-41.0204
-40.3697
-41.309
-40.5752
-37.2748
-39.1779
-35.6332
-33.5219
-37.9382
-35.9717
-37.721
-36.9071
-32.4165
-33.9315
-45.9831
-52.6912
-41.7361
-48.7937
-43.9349
-41.6277
-53.0021
-57.196
-74.2448
-75.1519
-69.2394
-62.9201
-63.1717
-71.0251
-58.9283
-58.3847
-74.1751
-75.0811
-69.1305
-62.7742
-70.9188
-63.0184
-58.213
-58.7596
-63.4668
-63.4612
-59.1809
-52.6538
-59.1715
-52.641
-50.2586
-50.2672
-21.9898
-21.9795
-14.977
-1.13604
-1.10292
-14.9555
6.38884