# vtk DataFile Version 2.0
tri_press
ASCII
DATASET UNSTRUCTURED_GRID
POINTS 3682 float
-0.765 0.345 -2.01748
-0.704264 0.435 2.175
-0.714757 0.965 -1.935
-0.646203 1.445 1.875
0.755 0.345 -2.01601
0.705 0.435 2.17136
0.705 0.973712 -1.925
0.645 1.435 1.87866
-0.779026 0.340728 -0.619987
-0.849529 0.27998 0.777507
-0.760412 1.19351 -0.665
-0.721897 1.33784 0.605
0.771264 0.34207 -0.62022
0.854195 0.272471 0.77557
0.750444 1.19292 -0.657113
0.715804 1.33204 0.610773
-1.52616 -0.159379 -3.05622
-1.5251 -0.0815714 -1.99008
-1.54089 -0.101795 -0.589209
-1.57462 -0.168945 0.837739
-1.51123 -0.0842256 2.24081
-1.48255 0.0145039 3.31771
-1.48333 0.10528 4.37471
-1.52274 0.226548 -3.05913
-1.52011 0.329613 -2.00721
-1.5389 0.354377 -0.631001
-1.56991 0.317268 0.757125
-1.46676 0.421057 2.13584
-1.45224 0.519092 3.21101
-1.46714 0.605403 4.27216
-1.50236 0.94347 -3.03024
-1.48589 1.03883 -1.9745
-1.51076 1.21675 -0.685378
-1.48321 1.33102 0.595309
-1.40635 1.43532 1.88725
-1.41896 1.5244 2.96899
-1.44897 1.60274 4.05154
-1.4973 2.18048 -3.08078
-1.49111 2.30266 -2.04312
-1.49649 2.51804 -0.796236
-1.48866 2.72904 0.423794
-1.46786 2.88521 1.67286
-1.46227 2.97835 2.71505
-1.46802 3.05659 3.78389
-0.772495 -0.148826 -3.06253
-0.763779 -0.0653489 -2.0006
-0.768554 -0.10568 -0.586479
-0.816805 -0.196676 0.854431
-0.770622 -0.0845633 2.26924
-0.748616 0.0156389 3.33725
-0.75012 0.104789 4.38636
-0.775204 0.22749 -3.05917
-0.725606 0.523966 3.22756
-0.739337 0.606994 4.28125
-0.759002 0.913991 -3.01148
-0.702201 1.53018 2.96764
-0.727755 1.60639 4.05206
-0.749932 2.15614 -3.06253
-0.742206 2.27739 -2.02333
-0.751151 2.50659 -0.783519
-0.75389 2.73233 0.424496
-0.742893 2.89273 1.66555
-0.738655 2.98459 2.70759
-0.741651 3.06094 3.77875
0.739647 -0.148212 -3.0595
0.762032 -0.0652547 -1.99895
0.789198 -0.106019 -0.586175
0.813073 -0.202041 0.853284
0.715249 -0.087267 2.26707
0.709228 0.0119004 3.33645
0.712805 0.100212 4.38667
0.725798 0.22897 -3.05541
0.699145 0.520015 3.22691
0.707568 0.602101 4.28177
0.710505 0.917949 -3.00494
0.679269 1.52337 2.9694
0.700079 1.60057 4.05354
0.736028 2.15733 -3.05671
0.743311 2.27814 -2.01726
0.735967 2.50506 -0.778001
0.713154 2.72814 0.429
0.696934 2.88692 1.66911
0.698474 2.97862 2.71052
0.705198 3.05531 3.78127
1.49853 -0.158469 -3.04973
1.52099 -0.0814588 -1.98524
1.55373 -0.104037 -0.586574
1.58156 -0.178176 0.837788
1.4929 -0.0927362 2.23924
1.45876 0.00579967 3.31735
1.45486 0.0959199 4.37579
1.48432 0.228813 -3.0513
1.5079 0.330746 -2.00083
1.53548 0.352994 -0.627079
1.58108 0.306574 0.757995
1.47796 0.411665 2.13457
1.44172 0.509622 3.21108
1.44446 0.595451 4.27362
1.46395 0.948587 -3.01869
1.47305 1.04466 -1.96147
1.5011 1.21502 -0.674733
1.48464 1.32039 0.602588
1.41687 1.42044 1.89183
1.41141 1.51161 2.97232
1.42957 1.59136 4.05462
1.48102 2.18205 -3.06973
1.48691 2.30324 -2.03176
1.48169 2.51468 -0.785907
1.45666 2.72097 0.432303
1.43238 2.87418 1.67967
1.42938 2.96691 2.72078
1.43631 3.04563 3.7889
-0.772544 0.655 -2.00891
-0.005 0.293191 -2.06855
-0.815351 0.299526 -1.31873
-0.73069 0.94 2.08046
0.000367999 0.396412 2.21177
-0.765678 0.368709 1.47625
-0.00487852 1.01652 -1.97716
-0.727026 1.06869 -1.3
-0.0006015 1.46482 1.90165
-0.698957 1.40633 1.24
0.761324 0.659356 -2.00183
0.812452 0.294214 -1.31812
0.728703 0.935 2.07871
0.767053 0.366281 1.47347
0.714516 1.07011 -1.29106
0.694822 1.39794 1.24472
-0.829405 0.295227 0.07876
-0.861377 0.767117 -0.642493
-0.00388132 0.223253 -0.620103
-0.872627 0.808912 0.691253
0.00233305 0.240713 0.776538
-0.740548 1.26507 -0.03
-0.00498373 1.46407 -0.661057
-0.00304661 1.64668 0.607887
0.825359 0.294641 0.077675
0.851139 0.767494 -0.638667
0.863892 0.802256 0.693172
0.732443 1.2618 -0.02317
-0.860607 0.711059 -1.30937
0.873037 0.713425 -1.30459
-0.00444066 0.253482 -1.31842
-0.00493113 1.11072 -1.29553
-0.00493926 0.657178 -2.1704
-0.867429 0.788014 0.02438
0.858945 0.784875 0.0272525
-0.000774134 0.230564 0.0782175
-0.00401517 1.61539 -0.026585
-0.870949 0.874456 1.35813
0.875677 0.868628 1.35909
0.00135053 0.350923 1.47486
-0.00182405 1.63866 1.24236
-0.000116751 0.9375 2.11171
-0.792239 0.5 -2.03666
-0.385 0.293409 -2.0687
-0.809724 0.302714 -1.66811
-0.678439 0.6875 2.08869
-0.351948 0.399572 2.20952
-0.742458 0.394368 1.82563
-0.75253 0.81 -1.98083
-0.359818 0.996931 -1.96225
-0.732522 1.02848 -1.6175
-0.71975 1.1925 2.00903
-0.323402 1.46168 1.8951
-0.6828 1.43588 1.5575
0.375 0.293427 -2.06795
0.781776 0.502178 -2.03253
0.801926 0.301407 -1.66706
0.352684 0.399278 2.20799
0.678919 0.685 2.0871
0.741516 0.39515 1.82241
0.350061 0.998689 -1.95466
0.745118 0.816534 -1.97537
0.718509 1.03066 -1.60803
0.322199 1.45723 1.89748
0.717427 1.185 2.00926
0.679706 1.42627 1.56169
-0.824905 0.292411 -0.96936
-0.83604 0.286153 -0.270613
-0.869084 0.529482 -0.63124
-0.419788 0.225323 -0.620045
-0.768393 0.363555 1.12688
-0.830693 0.296377 0.428133
-0.87619 0.53689 0.73438
-0.434071 0.2394 0.777023
-0.712131 1.09951 -0.9825
-0.832552 0.991141 -0.653747
-0.747488 1.22629 -0.3475
-0.433266 1.42992 -0.663028
-0.71847 1.38013 0.9225
-0.820386 1.08494 0.648127
-0.732094 1.30233 0.2875
-0.42686 1.62103 0.606443
0.823323 0.286677 -0.969168
0.412384 0.225275 -0.620162
0.830731 0.285935 -0.271273
0.859723 0.530521 -0.629443
0.769368 0.360631 1.12452
0.435871 0.241379 0.776054
0.827105 0.296228 0.426623
0.892868 0.520452 0.734371
0.700811 1.09985 -0.974085
0.425019 1.43307 -0.659085
0.821803 0.990713 -0.64789
0.738377 1.22429 -0.340142
0.713326 1.373 0.927745
0.421693 1.61999 0.60933
0.816063 1.08026 0.651973
0.725082 1.29788 0.293802
-0.850564 0.683029 -1.65914
-0.388742 0.656089 -2.12479
-0.00472033 0.279607 -1.69349
-0.00496963 0.475184 -2.24449
-0.858144 0.505293 -1.31405
-0.409896 0.25412 -1.31858
-0.838861 0.907228 1.71929
-0.365403 0.93875 2.09429
0.000859262 0.37058 1.84331
0.000125624 0.666956 2.12105
-0.87598 0.621582 1.41719
-0.382164 0.350981 1.47556
-0.00490482 1.07609 -1.63635
-0.00490889 0.836849 -2.14413
-0.837928 0.889876 -1.30468
-0.365978 1.09673 -1.29776
-0.00121278 1.62853 1.57201
-0.000359125 1.20116 2.05726
-0.785729 1.14039 1.29906
-0.350391 1.62459 1.24118
0.864998 0.686391 -1.65321
0.378192 0.658267 -2.12422
0.872041 0.50382 -1.31135
0.404006 0.253434 -1.31827
0.831763 0.901814 1.7189
0.364293 0.93625 2.09824
0.88197 0.617454 1.41628
0.384202 0.350865 1.47416
0.832866 0.891767 -1.29782
0.354792 1.09731 -1.29329
0.782296 1.13328 1.3019
0.346499 1.62109 1.24354
-0.873066 0.529296 0.05157
-0.430781 0.231513 0.0784888
-0.862274 0.739088 -0.97593
-0.863588 0.777566 -0.309057
-0.00416099 0.223288 -0.969264
-0.00232773 0.229725 -0.270943
-0.869809 0.798463 0.357817
-0.885522 0.841684 1.02469
0.000779459 0.238145 0.427378
0.00184179 0.295757 1.1257
-0.829685 1.03939 -0.00280997
-0.452779 1.60123 -0.0282925
-0.00495743 1.20262 -0.978293
-0.00449945 1.59108 -0.343821
-0.00353089 1.63849 0.290651
-0.00243533 1.64808 0.925123
0.864202 0.528733 0.0524637
0.427826 0.231535 0.0779462
0.850932 0.74046 -0.971626
0.854486 0.776185 -0.305707
0.861297 0.793566 0.360212
0.888164 0.835442 1.02613
0.821191 1.03609 0.00204125
0.446402 1.60297 -0.0248775
-0.851713 0.502646 -1.66362
-0.870947 0.529608 -0.972645
-0.841143 0.935094 -0.979215
-0.833999 0.849938 -1.63832
0.864276 0.502999 -1.66014
0.821373 0.854151 -1.63062
0.83038 0.935987 -0.972856
0.875375 0.529301 -0.970397
-0.397448 0.279479 -1.6808
0.389503 0.279446 -1.68028
0.393849 0.223278 -0.969216
-0.400675 0.223294 -0.969312
-0.362898 1.05813 -1.62692
-0.374338 1.16979 -0.980396
0.363761 1.17435 -0.976189
0.352426 1.0589 -1.62219
-0.386871 0.487592 -2.19575
-0.37428 0.823424 -2.08934
0.364127 0.826691 -2.08555
0.376596 0.488681 -2.1961
-0.871108 0.529372 -0.289835
-0.873501 0.533656 0.392975
-0.826301 1.0628 0.322658
-0.831257 1.01533 -0.328278
0.861941 0.529638 -0.28849
0.821268 1.01328 -0.322924
0.81985 1.05878 0.327007
0.864742 0.531489 0.393417
-0.424413 0.23016 -0.270778
0.419216 0.230183 -0.271108
0.431 0.238153 0.427
-0.431505 0.2373 0.427756
-0.466501 1.56253 -0.34566
-0.44224 1.61597 0.289075
0.437468 1.61832 0.292226
0.458011 1.56262 -0.341981
-0.87613 0.583014 1.07579
-0.857295 0.654541 1.77246
-0.766284 1.16645 1.6384
-0.810446 1.10688 0.973595
0.884195 0.577409 1.07532
0.807268 1.10022 0.976938
0.761007 1.15914 1.6403
0.850601 0.651227 1.77066
-0.402881 0.295794 1.12629
0.406233 0.29572 1.12511
0.368443 0.363476 1.83286
-0.367056 0.36318 1.83447
-0.356431 1.62876 0.923811
-0.336896 1.6189 1.56475
0.334349 1.61669 1.56685
0.351439 1.62713 0.926434
-0.358676 0.677228 2.11075
0.358489 0.675978 2.11419
0.343246 1.19308 2.05197
-0.344403 1.19683 2.05054
-0.784828 0.4225 -2.03328
-0.575 0.303662 -2.05863
-0.797201 0.314019 -1.84279
-0.750102 0.56125 2.1906
-0.528106 0.412046 2.1975
-0.729508 0.408537 2.00031
-0.737211 0.8875 -1.96148
-0.537287 0.98262 -1.95028
-0.730664 1.00376 -1.77625
-0.688258 1.31875 1.9473
-0.484803 1.45811 1.88982
-0.67452 1.45046 1.71625
0.565 0.303582 -2.05761
0.774905 0.423589 -2.03079
0.792451 0.309216 -1.84154
0.528842 0.410513 2.1963
0.748154 0.56 2.18543
0.723189 0.415145 1.99689
0.52753 0.985766 -1.93939
0.728722 0.895123 -1.95385
0.715741 1.00617 -1.76651
0.4836 1.45076 1.89271
0.686802 1.31 1.94955
0.672 1.44028 1.72017
-0.858079 0.260457 -0.794673
-0.835142 0.285832 -0.4453
-0.833869 0.430198 -0.625613
-0.628072 0.225695 -0.620016
-0.775959 0.35477 0.952193
-0.831827 0.296463 0.60282
-0.844326 0.417702 0.755943
-0.650679 0.241932 0.777265
-0.748329 1.15857 -0.82375
-0.79062 1.08939 -0.659373
-0.750517 1.20647 -0.50625
-0.624528 1.36709 -0.664014
-0.716673 1.35547 0.76375
-0.762678 1.20716 0.626563
-0.727152 1.32024 0.44625
-0.623397 1.57748 0.605722
0.848138 0.263528 -0.794694
0.620841 0.225638 -0.620191
0.829293 0.285707 -0.445746
0.826568 0.430758 -0.624832
0.774132 0.354201 0.950044
0.65254 0.241911 0.775812
0.828693 0.296307 0.601096
0.853378 0.406538 0.754971
0.739743 1.1605 -0.815599
0.617017 1.37156 -0.658099
0.778934 1.08822 -0.652502
[...]
POINT_DATA 3682
SCALARS point_scalars float 1
LOOKUP_TABLE default
-135.13
-52.2577
-86.9442
-43.2982
-105.984
-52.4454
-98.0541
-44.1401
-45.0704
-61.8747
-92.955
-51.351
-43.935
-77.1104
-93.3566
-51.1065
-121.699
-86.3891
-62.578
-63.796
-50.5181
-51.0031
-51.0031
-33.3539
-104.45
-46.6037
-48.1492
-50.0272
-49.0924
-49.0924
18.3235
-115.612
-63.5848
-48.5181
-45.6755
-44.3027
-45.4672
-72.3131
-95.3225
-119.399
-55.5495
-45.5626
-44.0496
-40.8653
15.0437
-143.257
-47.5784
-65.9995
-51.1549
-50.8299
-47.3238
117.455
-45.2796
-45.2796
151.784
-40.123
-41.2751
-23.4033
-68.4874
-105.886
-57.8171
-45.2798
-42.3368
-38.0265
15.497
-141.257
-45.9269
-71.4158
-51.3511
-51.052
-47.4028
136.967
-45.4335
-46.4084
172.603
-42.4926
-42.2825
-24.6668
-72.267
-101.004
-59.1704
-45.5207
-41.0161
-40.2287
-100.089
-95.8556
-58.0871
-55.8864
-48.8539
-52.598
-51.0724
-47.2349
-80.4904
-44.9708
-55.8864
-50.045
-49.5856
-49.5856
-8.54955
-102.68
-63.6545
-48.5412
-46.2703
-45.1058
-45.6757
-98.2062
-86.3257
-121.522
-55.518
-46.1768
-44.8891
-41.8468
-91.335
-197.211
-50.2366
-46.2009
-50.987
-46.0778
-72.6265
-32.0155
-31.8613
-48.144
-82.4981
-54.2972
-46.6815
-46.7474
-31.8283
-48.6606
-44.2657
-51.3121
-53.7086
-46.0582
-56.1324
-62.1293
3.46446
-60.4542
-42.6849
-50.1622
-44.2916
-61.3031
-54.3019
-59.7527
-59.1277
6.87616
194.415
-48.3449
-47.3472
-49.773
-80.6394
-49.2963
-51.5422
-46.0756
-49.4242
-44.962
-89.5208
-194.789
-78.2102
-45.8701
-50.6596
-47.7267
-78.9645
-98.138
-49.5424
-43.7252
-34.8969
-45.8908
-188.85
-79.8688
-84.6214
-50.903
-46.1612
-47.8542
-92.9061
-74.2231
-48.9072
-35.4452
-44.2711
-46.5384
-43.8779
-44.3651
-47.2109
-53.3411
-46.7172
-44.9122
-47.7869
-56.3739
-31.4201
-63.7395
-73.9776
1.41911
-50.9933
-48.7518
-56.8408
-57.5385
-43.3445
-53.0516
-43.1311
-45.7166
-48.206
-56.8528
-42.5896
-47.0699
-33.3072
-0.626118
-63.0413
-72.571
-51.3158
-56.6975
-48.5242
-56.2836
-83.091
172.922
-84.7547
132.106
-52.1314
-56.4068
-49.5509
-44.4347
-45.2979
-45.7524
-49.2518
-45.3278
-26.3967
164.827
-51.4507
-2.19322
-43.0808
-31.4115
-48.183
-49.2337
-89.1908
173.642
-58.5104
-56.9295
-49.9099
-44.6011
-49.7402
-45.5747
-54.1839
-1.84771
-49.276
-49.4939
-45.235
-48.9226
-51.5074
-50.1054
-56.7771
-49.4246
-46.605
-47.1826
-50.3191
-51.2882
-55.1136
-78.4832
37.3833
-110.814
-68.954
-55.6949
-43.9272
-48.5151
-53.1743
-49.0089
-45.3083
-48.9051
-54.3925
-78.2866
-81.3456
-53.1254
-53.6745
-72.5138
-88.7336
-69.0308
-55.1585
-54.8594
-81.5939
-81.921
-53.5526
-53.0112
-30.8307
21.3312
22.1707
-30.4076
150.696
150.362
144.842
151.021
-45.6537
-44.841
-51.83
-60.13
-44.4474
-59.2395
-50.9302
-42.521
-48.6487
-48.3331
-49.6948
-49.8961
-99.738
-65.5704
-64.8159
-98.4325
-46.6103
-51.1717
-46.657
-48.75
-49.2792
-49.1808
-47.4231
-51.6096
-50.546
-50.9676
-45.456
-45.2057
-54.1812
-44.1381
-44.2912
-54.17
-44.9791
-45.1499
-35.1821
-35.1162
-79.6254
-137.44
-92.1605
-48.4124
-50.5914
-48.5216
-65.9706
-99.2098
-77.0194
-42.0407
-37.0809
-45.221
-118.717
-81.3932
-94.3165
-50.9015
-49.2031
-47.9286
-98.2066
-77.5402
-71.0048
-37.6091
-42.5248
-45.6376
-56.7039
-44.825
-45.7995
-52.6759
-50.8744
-47.0965
-49.1229
-60.2833
-71.9857
-76.8714
-82.0694
-43.9835
-49.4298
-49.8257
-53.2286
-53.9953
-55.1919
-52.1053
-43.5756
-44.2721
-52.9118
-62.1661
-42.6546
-51.7606
-73.359
-48.889
-75.5936
-80.6783
-49.4428
-54.5363
-49.5717
-52.7836
-87.8898
-84.2567
-106.961
129.179
-183.367
-178.538
-115.954
72.7089
-60.4801
-48.3376
-50.2846
-54.2374
-46.1644
-44.6955
-49.7411
-44.3006
-50.4364
-50.5576
-47.0435
-45.4823
-47.7626
-45.803
-48.347
-45.5942
-92.2518
-90.992
-46.0838
74.2489
-39.5927
-28.4138
-47.2506
-11.6204
-32.6744
-33.0648
-38.4283
-29.0839
-46.9441
-49.65
-48.0743
-49.1004
-77.6065
-84.9104
-95.7546
129.03
-62.7977
-48.9378
-56.749
-55.2293
-46.531
-45.3443
-49.8152
-44.478
-48.5693
-46.9345
-49.4053
-45.8005
-38.4883
-29.8828
-49.7311
-11.2272
-47.6016
-50.0924
-48.8168
-49.3569
-44.0356
-43.7387
-44.4222
-47.7352
-48.9569
-55.2268
-50.8792
-50.9491
-53.6139
-53.5539
-55.3198
-50.631
-47.0221
-46.6487
-46.2567
-46.5149
-56.214
-56.4835
-52.4625
-54.5026
-67.5293
-59.3801
-58.6243
-71.0062
5.82874
5.05442
50.7833
-109.438
-59.38
-58.9524
-64.2817
-58.2224
-42.7789
-42.4345
-43.041
-46.9618
-47.5434
-54.7098
-50.1668
-49.736
-44.0073
-45.8331
-44.8365
-46.4339
-66.3082
-58.4258
-57.6979
-70.6938
-64.1666
-53.6147
-54.8563
-54.2911
-69.0351
-59.5447
-58.9776
-56.2849
-67.8181
-58.1938
-58.3451
-56.0156
-8.85406
4.13835
4.35937
20.351
188.488
204.006
186.259
189.29
-46.5925
-49.1515
-47.1953
-50.7644
-45.5109
-48.0337
-46.0625
-50.1164
-49.5934
-49.098
-49.4541
-49.5102
-80.298
-94.4103
-71.1461
-80.2906
-49.8722
-49.5677
-48.6623
-48.0625
-51.8484
-50.8135
-50.6495
-49.9519
-44.1773
-45.6269
-45.7182
-48.4234
-46.5962
-49.365
-49.3847
-52.0028
-44.3597
-45.4186
-42.3477
-44.6658
-98.2281
126.356
-113.58
64.2962
-79.5373
-78.8977
-52.0319
-44.9443
-47.5259
-45.5412
-50.3471
-45.9261
-106.286
102.802
-53.7509
62.605
-63.8165
-36.6883
-45.8731
-38.6776
-41.5317
-33.345
-46.2019
-45.2101
-113.829
55.8115
-84.3776
127.525
-89.3162
-79.8374
-47.4971
-45.7635
-51.694
-45.0638
-50.7362
-45.9606
-52.7502
64.0031
-96.9541
102.534
-62.5075
-35.952
-42.1196
-34.2081
-46.3585
-39.4918
-46.923
-45.5688
-53.5854
-42.1054
-44.6954
-47.4776
-49.8499
-46.1369
-55.156
-49.9914
-46.6816
-49.04
-44.7261
-48.8424
-46.0214
-47.4855
-52.1847
-53.8685
-56.1927
2.3681
-58.976
-62.4956
-66.493
-103.514
36.7916
-100.284
-49.0109
-53.1577
-49.8925
-48.5409
-54.3375
-60.4744
-60.4332
-57.0558
-55.163
-44.1996
-55.0534
-49.6959
-43.3934
-46.9569
-48.3862
-44.7275
-48.8434
-49.1164
-52.1842
-54.431
-42.1137
-48.3798
-42.019
-51.0708
-56.1268
2.58713
36.7862
-100.005
-59.3671
-61.8074
-65.8806
-100.401
-49.542
-53.278
-61.7135
-57.0319
-49.4766
-48.874
-53.6526
-59.9187
-82.5638
-80.1456
188.839
163.651
-83.4195
-83.3619
158.194
159.408
-62.2441
-53.8462
-65.5066
-52.1223
-50.0201
-48.0448
-45.0738
-42.0148
-45.0933
-45.1544
-45.5896
-45.6614
-47.4378
-49.992
-47.8742
-44.2342
-28.6128
-28.5669
166.332
165.313
-50.8044
-59.018
-15.1443
9.06899
-43.2041
-43.5394
-33.0582
-32.343
-47.632
-48.6189
-51.9317
-46.5018
-89.3612
-81.2869
161.321
187.931
-67.3427
-55.5913
-65.9452
-52.5515
-48.7262
-50.4835
-45.2248
-43.5074
-49.3307
-52.8231
-48.2273
-44.3442
-61.42
-53.8175
10.0935
-14.7146
-49.7125
-48.6392
-46.829
-51.8625
-45.3473
-44.3454
-48.3201
-48.5184
-50.9033
-52.8691
-47.6924
-53.8262
-56.3489
-56.1668
-49.2724
-49.1282
-45.7806
-48.363
-46.9398
-47.943
-50.258
-50.2631
-51.0798
-51.2815
-53.8664
-57.5049
-94.0747
-70.1465
32.7669
33.1961
-107.996
-107.055
-67.815
-68.0964
-55.2184
-55.0882
-44.1256
-42.7923
-47.9989
-48.5904
-53.6253
-52.6048
-46.4091
-53.0859
-47.4753
-44.0649
-49.5588
-48.8159
-56.7275
-52.7451
-69.8017
-93.8671
-94.8811
-60.8037
-63.4584
-100.066
-52.0435
-49.8979
-54.7419
-52.1631
-72.2645
-48.0335
-52.7859
-53.4389
-96.4774
-109.885
-63.0537
-53.8839
-78.6488
-90.1546
-68.6005
-65.5872
-91.2357
-55.1212
-67.8819
-97.2108
-72.977
-53.3271
-56.3187
-50.012
-50.3383
-53.9678
-55.864
-48.7385
-110.955
-114.524
-66.8018
-63.7008
-110.963
-64.7613
-66.7328
-114.163
-57.4573
-55.1497
-55.1972
-48.4257
-58.5061
-48.4607
-55.0987
-55.1117
-59.7549
-23.9867
-10.4235
-49.8586
-0.434496
46.284
17.6341
-3.88818
-1.45856
-3.4918
17.6012
46.3388
-57.8167
-49.8364
-10.2996
-23.4891
62.1456
151.824
200.937
58.1466
43.5795
51.8781
172.491
128.168
35.9295
126.783
172.541
42.1005
61.2253
66.4092
201.256
153.966
-44.8384
-44.6473
-47.0317
-48.292
-46.2741
-45.8492
-45.2576
-44.0522
-51.298
-56.2158
-49.9455
-47.4016
-71.2496
-55.1371
-52.2329
-62.4465
-43.516
-46.9069
-45.8427
-43.3466
-70.2206
-61.4341
-51.1645
-54.3818
-50.9508
-46.4977
-49.0306
-55.6137
-41.0492
-42.4277
-44.0015
-43.6477
-48.6287
-50.4946
-48.9661
-47.1331
-48.1391
-46.5813
-48.8316
-50.2926
-52.0128
-52.4154
-49.2088
-47.2134
-51.973
-47.1511
-49.2707
-52.3127
-111.776
-81.9405
-94.7386
-103.693
-56.3757
-63.2601
-71.886
-65.5499
-56.1765
-64.7956
-71.7524
-63.346
-111.061
-105.21
-94.379
-80.0734
-49.3534
-47.1652
-47.8995
-46.4369
-50.2031
-51.4784
-49.8494
-50.2086
-45.0577
-47.186
-48.5896
-48.0154
-48.8009
-47.8794
-48.0292
-49.2656
-52.7458
-48.9501
-49.9044
-48.7377
-48.8881
-49.9435
-49.4917
-48.0963
-45.5612
-48.2905
-49.8796
-47.9769
-50.0863
-52.4228
-52.8587
-50.9043
-51.037
-54.3452
-48.2207
-47.066
-53.0664
-47.9337
-48.3798
-54.5893
-47.2492
-47.2157
-44.3023
-44.8443
-47.3135
-44.6945
-44.2736
-47.3326
-50.9284
-51.5263
-52.0089
-58.6412
-45.6339
-39.1599
-46.4343
-46.5569
-46.3216
-47.2471
-46.5915
-39.4621
-51.6396
-58.4272
-52.021
-51.1968
-45.1824
-45.4093
-45.2871
-44.9198
-45.2586
-45.0896
-45.3899
-45.4953
-37.655
-30.9662
-43.3428
-43.8569
-36.8519
-42.6975
-42.6303
-30.3892
-77.8717
-93.0027
-126.591
-51.1546
-51.059
-50.7714
-75.2728
-92.2941
-99.0432
-42.4934
-38.9089
-44.6908
-96.264
-70.3266
-103.917
-51.4098
-51.2583
-49.6291
-99.3313
-84.3849
-92.9474
-39.4844
-43.0987
-45.565
-60.1949
-39.928
-45.5318
-48.4131
-56.8737
-45.6482
-51.5505
-66.1906
-93.1532
-84.1445
-89.4513
-94.2341
-50.5341
-50.6183
-52.1963
-52.4692
-57.9981
-48.1713
-38.723
-44.0718
-59.4857
-70.7504
-37.5432
-55.8864
-97.4819
-98.8519
-83.449
-87.0014
-50.4456
-52.2481
-50.3519
-51.8659
-89.9907
-88.6611
-127.572
58.416
-191.057
-189.276
-144.591
-22.7149
-55.0625
-49.6412
-49.0832
-52.6123
-46.2968
-45.4128
-50.8123
-44.3695
-50.4708
-50.4587
-48.6973
-47.1247
-47.7092
-45.095
-47.4232
-45.6743
-83.3505
-81.1286
-61.9781
-28.7336
-35.3296
-29.2472
-41.9268
-18.9326
-32.0296
-32.2333
-36.8069
-30.3451
-47.5088
-48.702
-48.0779
-48.8371
-78.6811
-84.3637
-110.872
55.6042
-57.5114
-51.5327
-55.4156
-54.3528
-46.7202
-45.6476
-51.1011
-44.6035
-48.2824
-46.1269
-49.3457
-45.9625
-35.4013
-29.9846
-43.5518
-18.4808
-48.1062
-49.2006
-48.7479
-48.728
-44.6179
-43.6292
-44.2439
-46.2414
-50.0576
-52.911
-51.1864
-51.2975
-53.6907
-53.6752
-54.2239
-52.1381
-46.143
-46.2874
-46.1814
-46.063
-56.0946
-56.2231
-54.026
-56.1089
-64.6866
-59.3828
-59.9163
-66.2105
4.8677
4.76509
36.7936
-72.5078
-60.2787
-60.1516
-62.104
-59.0764
-43.6203
-42.5821
-42.8815
-44.985
-48.7476
-51.9473
-50.231
-50.0543
-43.8023
-45.1496
-44.6844
-44.209
-63.6641
-58.6239
-59.207
-65.5128
-58.641
-54.1054
-54.5207
-54.0488
-63.0396
-59.7926
-59.5318
-57.7411
-62.1258
-58.8114
-58.8605
-57.1787
-1.33456
6.0929
6.13843
13.5156
191.572
199.972
195.943
191.891
-47.6298
-48.6919
-47.9081
-49.3739
-46.4546
-47.635
-46.8904
-48.4743
-49.7547
-49.3262
-49.7713
-49.7183
-80.5839
-87.0648
-74.9706
-80.6192
-49.3889
-49.7154
-48.4262
-48.8669
-51.9298
-51.5213
-51.3277
-50.9825
-44.7946
-46.0189
-46.0662
-47.0781
-48.0233
-49.4485
-49.3083
-50.8231
-44.4781
-45.2792
-43.3367
-44.653
-80.6108
-89.5716
-127.093
74.5177
-190.559
-182.238
-147.553
-8.7266
-85.8432
-67.8507
-78.8155
-77.0127
-45.1871
-46.1546
-52.8005
-45.2214
-51.1053
-51.1026
-49.2383
-47.0746
-47.6217
-47.9457
-49.5978
-46.3901
-69.9105
-81.7602
-125.824
57.0205
-91.4756
-101.565
-72.0788
4.53118
-58.9984
-43.0259
-57.999
-41.6875
-42.8073
-44.9057
-46.1574
-40.3973
-35.9496
-33.6122
-39.9704
-33.9967
-45.4131
-46.3201
-46.0684
-45.6318
-179.51
-183.938
-149.118
-8.25079
-79.3479
-79.963
-96.6191
73.0424
-97.0473
-71.2247
-89.7232
-78.865
-51.3061
-51.2308
-49.5054
-47.2578
-45.5521
-46.3621
-52.8487
-45.3179
-48.1341
-48.6001
-50.0594
-46.5517
-87.7388
-96.2949
-69.9968
-1.54275
-74.56
-80.8247
-123.571
52.71
-57.2683
-44.2844
-57.0811
-40.83
-36.5262
-34.1384
-40.4381
-34.6982
-43.3866
-45.5442
-46.6497
-41.1431
-45.8977
-46.9505
-46.7252
-46.1865
-44.1965
-46.204
-52.0369
-37.2839
-43.7514
-44.502
-44.5868
-46.4086
-46.3895
-48.042
-48.2937
-46.5114
-53.2823
-53.4301
-54.2954
-51.4759
-48.4845
-46.0747
-47.4487
-47.8688
-45.8259
-44.1532
-44.8855
-47.2445
-48.3041
-47.6891
-47.0004
-47.8288
-56.9342
-56.1976
-53.5082
-56.131
-47.3728
-30.4951
-51.7063
-13.6266
-69.7372
-58.822
-61.9657
-63.4838
-77.8043
-70.5995
-69.5535
-86.1899
-6.84365
5.98044
30.5435
-46.2628
-49.6432
-50.7502
-49.6935
-49.1773
-49.4548
-47.6049
-49.1771
-48.6197
-54.4247
-59.8225
-55.7256
-58.5746
-56.2703
-57.6555
-58.7305
-57.4477
-49.2994
-46.7261
-54.7537
-37.828
-52.8601
-53.2983
-54.0744
-51.1957
-42.4485
-43.5476
-43.2585
-45.6989
-44.8201
-46.6793
-46.7945
-45.1245
-49.6944
-46.7727
-49.0649
-48.6362
-57.8659
-56.5451
-54.5337
-56.541
-42.7885
-42.3023
-42.1751
-46.2103
-51.0003
-45.0168
-40.3438
-53.6267
-51.0589
-32.201
-52.4335
-14.4814
-8.9115
4.35055
30.0041
-48.6162
-68.8475
-58.1697
-61.984
-62.4775
-76.358
-69.3056
-68.9177
-84.6884
-49.8534
-51.013
-50.3626
-49.9368
-56.0739
-56.582
-59.3145
-57.2092
-49.3198
-46.9139
-48.9597
-48.7594
-53.894
-59.0422
-55.0583
-57.8601
-94.7959
-72.0008
-82.6458
-81.7482
157.475
183.163
179.664
171.304
-97.538
-75.0094
-84.2378
-84.1844
78.3503
183.978
138.347
141.798
-51.2044
-52.9795
-56.8532
-52.6265
-55.6601
-57.3459
-59.6546
-53.8907
-49.4234
-49.9552
-50.1256
-48.9726
-44.2622
-44.4103
-44.8966
-43.5354
-46.0622
-44.696
-45.2734
-45.3082
-45.7909
-45.7351
-45.7067
-45.7282
-49.048
-49.3857
-48.5917
-49.6459
-45.4611
-45.3843
-46.579
-44.4727
-35.0273
-17.2118
-27.3257
-27.0589
139.268
174.981
164.315
164.409
-50.2862
-53.1485
-49.9834
-54.3109
-6.14422
1.26433
-8.05727
3.68804
-40.9334
-44.6576
-42.9915
-43.7723
-30.0317
-37.6406
-32.0332
-31.6643
-48.1097
-48.4442
-48.1445
-48.4786
-49.6366
-49.2027
-50.5
-47.6811
-93.8234
-77.8822
-89.7165
-87.0613
157.843
184.25
171.584
179.479
-57.7603
-59.1349
-61.1009
-56.9861
-56.4175
-57.5746
-60.0658
-54.2448
-49.6458
-50.6959
-49.2862
-50.2601
-44.4981
-44.6527
-45.0344
-43.992
-49.279
-50.0452
-49.3631
-52.0154
-45.7546
-45.5571
-46.855
-44.6478
-52.8805
-56.9181
-57.5074
-53.2123
-5.68208
1.54291
4.20977
-7.69196
-48.9678
-49.761
-49.5129
-49.0484
-49.8935
-49.3764
-48.0362
-50.594
-44.7765
-45.8599
-45.2468
-45.5746
-48.4143
-49.3057
-48.4864
-48.6943
-50.9284
-52.9262
-50.9824
-52.5241
-50.5682
-49.6613
-48.9082
-51.7053
-56.6365
-55.5827
-56.5566
-56.5271
-49.9251
-49.1272
-49.4214
-49.3547
-46.424
-46.7763
-46.3044
-47.3665
-46.0337
-47.7815
-47.1133
-48.1173
-51.3267
-49.7546
-50.3861
-50.3882
-52.7398
-49.7271
-51.1918
-51.3105
-57.0271
-53.0408
-54.2258
-56.3605
-75.6986
-79.7874
-85.4577
-73.6077
50.922
25.9968
35.6961
36.0106
-114.468
-102.706
-109.723
-108.734
-66.8983
-70.4382
-68.7285
-68.4597
-57.393
-53.7976
-55.8731
-55.2249
-43.4052
-44.5746
-44.0369
-44.0896
-47.8391
-49.1439
-48.1598
-48.7456
-50.6471
-55.3308
-53.2979
-52.42
-49.4059
-48.5438
-47.8075
-50.6662
-45.0719
-45.5223
-46.1442
-44.7551
-47.9018
-49.5692
-49.2315
-48.5601
-56.3106
-52.3121
-55.5945
-53.4529
-76.0355
-79.7538
-73.6022
-84.4117
-90.9277
-80.4917
-82.0183
-69.7961
-54.2007
-51.4477
-54.0455
-51.7669
-54.7816
-55.807
-51.9322
-53.24
-83.1614
-68.495
-76.7404
-65.172
-99.8406
-88.5306
-89.1021
-75.9479
-79.2706
-66.1938
-74.8431
-64.6658
-56.3339
-56.797
-53.8801
-53.9845
-55.7803
-52.1324
-54.4896
-53.6861
-94.6479
-80.6008
-82.4854
-72.3794
-94.9331
-81.185
-82.6041
-72.7478
-49.2712
-55.9602
-51.858
-55.5484
-46.7095
-55.691
-51.1286
-55.293
-40.8481
-33.3399
-29.2951
-23.447
13.238
31.2821
13.357
28.2783
13.3573
32.299
13.785
28.86
-40.0141
-32.8134
-29.0697
-23.0364
145.621
89.9222
181.178
157.436
129.35
102.728
162.155
160.221
107.858
128.692
153.468
159.944
89.1429
146.633
156.574
181.978
-45.0807
-45.812
-45.4799
-46.4812
-44.5868
-45.2579
-43.8995
-45.3756
-50.644
-53.6627
-49.7459
-52.9001
-61.3702
-64.1732
-56.7324
-58.918
-43.7635
-44.502
-44.2668
-45.2071
-60.551
-63.5469
-55.5363
-57.9669
-49.9902
-52.7286
-48.9321
-51.8276
-42.1059
-42.3982
-42.075
-43.1609
-48.1403
-49.2143
-48.3663
-48.9882
-48.9043
-47.722
-48.7634
-48.0521
-50.8511
-49.1865
-50.0231
-48.7953
-49.4729
-50.9927
-48.9143
-50.1127
-102.97
-108.721
-95.7654
-105.688
-62.9027
-63.2894
-67.8611
-66.503
-63.7206
-62.8182
-66.917
-67.1887
-108.424
-101.015
-104.476
-95.1603
-46.7224
-47.0019
-46.9596
-46.456
-51.7581
-50.8154
-50.3776
-50.015
-46.1348
-46.3815
-47.165
-46.9854
-48.5546
-48.5989
-49.2691
-48.2116
-49.0424
-49.7238
-49.0773
-49.4389
-48.9382
-48.9884
-50.1031
-48.9755
-46.7566
-47.1738
-48.0143
-48.0061
-50.6741
-51.2728
-51.1758
-52.3903
-50.1565
-51.9658
-49.0518
-50.8724
-50.6606
-52.4163
-49.4759
-51.1819
-46.4327
-45.7238
-45.1319
-44.6032
-46.5684
-45.7049
-45.1243
-44.5127
-53.3582
-55.3049
-53.2509
-54.6043
-43.0541
-44.749
-43.6275
-45.3234
-43.3813
-44.9115
-43.7552
-45.365
-52.9375
-55.1684
-53.191
-54.7002
-44.6095
-45.1192
-45.2981
-45.4172
-45.2877
-45.0664
-45.4411
-45.4081
-34.5069
-37.341
-34.0747
-39.9227
-36.8966
-33.6411
-39.1107
-33.4384
-125.03
36.2404
-157.224
42.4741
-90.7997
-108.372
-50.4352
-45.4888
-49.6997
-47.5625
-50.1254
-47.5986
-121.084
25.9495
-82.8495
-20.8151
-93.1972
-64.7259
-45.0976
-38.4604
-41.2474
-36.6603
-44.8479
-47.6379
-157.21
33.0716
-95.4143
38.7163
-76.8404
-111.414
-49.7235
-47.5696
-50.2281
-45.7295
-49.8042
-47.2869
-77.8377
-29.5147
-110.791
24.7702
-86.0426
-61.5491
-41.6027
-37.3744
-45.561
-39.1521
-45.4672
-48.2274
-52.9252
-58.8883
-44.8012
-47.1287
-48.5599
-44.7804
-54.6224
-50.2599
-51.0985
-50.1634
-46.6165
-50.3396
-46.7777
-51.3604
-55.3956
-57.079
-78.3137
-37.2939
-74.7373
-74.6268
-75.6887
-113.387
-12.1541
-81.1907
-49.1765
-50.5395
-50.4543
-49.2829
-52.301
-54.5758
-54.5808
-54.7555
-50.7352
-57.7548
-53.8974
-49.7904
-43.5057
-46.636
-46.8763
-43.5053
-54.4284
-51.4526
-56.2372
-59.0653
-41.1899
-49.4649
-38.9433
-59.1233
-80.6281
-39.7064
-13.8121
-87.5519
-74.7343
-73.1825
-74.3042
-109.923
-49.0723
-50.497
-54.7857
-53.3447
-50.0284
-49.2152
-51.868
-54.3567
-125.494
83.7252
-124.926
60.705
-103.331
-108.078
144.032
129.99
-142.644
-36.7804
-141.44
-41.5808
-115.395
-115.182
64.551
60.4762
-59.6384
-61.8509
-50.3475
-47.5531
-55.2141
-51.2738
-58.6793
-51.1856
-52.5768
-44.8259
-49.0392
-43.1154
-50.4263
-48.7475
-44.6717
-43.6733
-48.7859
-46.8461
-49.3118
-46.9116
-47.1095
-47.0198
-45.4518
-45.5071
-50.4297
-45.7783
-46.9238
-45.5346
-48.3172
-49.6766
-46.609
-45.2424
-65.6157
-9.93977
-65.029
-31.0106
-47.5643
-47.3131
80.0625
74.768
-49.7848
-29.555
-41.2966
-13.2247
-46.8356
-50.6041
-17.0364
-7.53357
-38.4025
-31.3889
-38.8888
-31.8815
-38.5909
-38.6457
-29.6614
-29.3275
-47.0842
-46.5931
-49.5415
-50.9356
-47.6532
-48.5192
-50.4291
-47.562
-102.559
84.6544
-115.289
58.1412
-93.3871
-96.1403
128.928
143.382
-64.5261
-63.5431
-52.2177
-48.1971
-59.0054
-55.7907
-59.7319
-51.7924
-52.0352
-45.0116
-49.4466
-43.6172
-48.9898
-50.3133
-44.8411
-44.0034
-51.2573
-46.0187
-47.9592
-47.4598
-48.5313
-51.7548
-46.9658
-45.4175
-50.1039
-29.2908
-44.1227
-13.3639
-52.5343
-49.294
-7.41862
-16.4549
-47.7782
-47.1734
-50.0337
-50.6025
-49.2396
-48.4074
-48.3754
-50.5847
-44.4968
-46.065
-43.9642
-45.6462
-44.6183
-44.2535
-47.2394
-47.3877
-49.3954
-48.58
-54.4878
-55.3666
-50.2342
-51.878
-49.6128
-52.7057
-54.1026
-52.0086
-54.0664
-51.9048
-55.3013
-55.2625
-50.6601
-50.5983
-46.3068
-47.3239
-47.0556
-46.2635
-46.0562
-46.7342
-46.1754
-47.1963
-53.6945
-56.2095
-53.8614
-56.4907
-52.5579
-52.3994
-54.4534
-54.5784
-64.5971
-73.9211
-57.5205
-61.9024
-56.3727
-60.4309
-75.1474
-68.0307
36.348
-64.6367
35.9246
-68.5382
49.4641
48.9681
-107.174
-108.571
-61.1002
-58.9159
-61.0043
-58.7305
-64.0362
-63.9766
-58.1974
-58.0847
-43.2175
-45.3762
-42.2686
-45.6348
-43.3632
-42.8201
-46.6331
-47.4615
-47.9936
-47.2592
-54.1529
-54.791
-51.5007
-49.194
-48.2787
-51.7123
-43.6927
-46.7008
-46.1771
-46.6441
-45.5299
-44.2994
-47.2216
-47.4731
-63.6694
-72.8847
-56.9865
-61.6735
-59.485
-55.5843
-67.8559
-73.2351
-63.9246
-63.9606
-58.0199
-53.3647
-52.9834
-58.1826
-54.7815
-53.7502
-68.9059
-68.7824
-62.6813
-57.6576
-62.2154
-57.1567
-56.662
-56.0044
-67.6205
-67.5547
-61.247
-56.2172
-61.2168
-56.3808
-55.8337
-55.8007
-9.25412
-9.17434
-3.21851
10.9181
11.084
-3.01841
19.8068
19.7061
194.595
184.773
204.593
204.507