# vtk DataFile Version 2.0
tet_velo
ASCII
DATASET UNSTRUCTURED_GRID
POINTS 29498 float
-0.734065 0.175 -1.975
-0.776787 0.265 1.915
-0.785053 0.685 -1.815
-0.635 0.975 1.92831
0.734065 0.175 -1.975
0.77678 0.265 1.915
0.785052 0.685 -1.815
0.635 0.975 1.92827
-0.766354 0.186952 -0.678333
-0.806828 0.190718 0.618333
-0.783399 0.83003 -0.56723
-0.731973 0.925289 0.68054
0.766352 0.186952 -0.678333
0.806824 0.190717 0.618333
0.783391 0.830023 -0.567244
0.732221 0.925537 0.680513
-1.4916 -0.200029 -3.04496
-1.49931 -0.143573 -2.02722
-1.52047 -0.133963 -0.729284
-1.53732 -0.140851 0.578492
-1.51978 -0.0931752 1.87725
-1.51692 -0.0406648 2.89906
-1.52522 0.0118551 3.91335
-1.49704 0.0959001 -2.98254
-1.50546 0.166968 -1.97014
-1.52649 0.197718 -0.681722
-1.5335 0.206426 0.611099
-1.49447 0.260545 1.90045
-1.50309 0.312813 2.92157
-1.52048 0.363709 3.93745
-1.51984 0.658867 -2.84398
-1.54025 0.726734 -1.82955
-1.53637 0.841919 -0.574469
-1.48012 0.920663 0.677152
-1.40177 0.97361 1.93317
-1.45505 1.02228 2.9563
-1.50415 1.06986 3.98007
-1.53298 1.5935 -2.6729
-1.54148 1.67529 -1.6658
-1.5368 1.80969 -0.426573
-1.51186 1.93434 0.802114
-1.48887 2.02026 2.04185
-1.49567 2.07148 3.05002
-1.51842 2.11751 4.06845
-0.731479 -0.195319 -3.04812
-0.73643 -0.135883 -2.03182
-0.75542 -0.138045 -0.72867
-0.782165 -0.152582 0.584668
-0.776286 -0.0947151 1.88805
-0.780072 -0.0414471 2.90639
-0.788981 0.0107836 3.91759
-0.732936 0.0952286 -2.98352
-0.782216 0.31369 2.92761
-0.791965 0.363493 3.94065
-0.75175 0.641059 -2.83794
-0.744317 1.02371 2.95532
-0.784867 1.07076 3.97985
-0.768648 1.57966 -2.66693
-0.778241 1.66138 -1.65922
-0.781323 1.80428 -0.422609
-0.772296 1.93716 0.801628
-0.763087 2.02442 2.03844
-0.772267 2.07457 3.04661
-0.792311 2.11965 4.06597
0.77289 -0.195311 -3.04812
0.756992 -0.135879 -2.03182
0.7775 -0.138037 -0.728672
0.797729 -0.152572 0.584666
0.771923 -0.0947074 1.88805
0.724109 -0.0414319 2.90638
0.696679 0.0108082 3.91757
0.772991 0.0952339 -2.98352
0.697672 0.313702 2.92759
0.67844 0.363517 3.94063
0.784361 0.641065 -2.83794
0.648212 1.02373 2.9553
0.654003 1.07079 3.97983
0.764476 1.57968 -2.66693
0.75646 1.66141 -1.65923
0.738811 1.80433 -0.422622
0.708242 1.93725 0.801609
0.677734 2.02449 2.03841
0.664434 2.07463 3.04659
0.655794 2.1197 4.06595
1.52981 -0.200008 -3.04497
1.51732 -0.143556 -2.02722
1.53859 -0.133924 -0.729293
1.55815 -0.140796 0.578479
1.52676 -0.0931408 1.87724
1.47869 -0.0406232 2.89904
1.44667 0.0119095 3.91332
1.52883 0.0959165 -2.98255
1.50913 0.166977 -1.97015
1.5302 0.197764 -0.681732
1.54644 0.206512 0.611082
1.50352 0.260573 1.90043
1.45057 0.312851 2.92154
1.42536 0.363764 3.93742
1.54225 0.658886 -2.84399
1.53831 0.726745 -1.82956
1.53327 0.841987 -0.574491
1.48528 0.920906 0.677114
1.40262 0.973686 1.93312
1.3886 1.02234 2.95626
1.391 1.06993 3.98003
1.52803 1.59355 -2.67292
1.52013 1.67535 -1.66582
1.49808 1.8098 -0.4266
1.45659 1.9345 0.802077
1.41365 2.02041 2.04181
1.39583 2.0716 3.04998
1.38846 2.11761 4.06841
-0.791834 0.43 -1.92728
0 0.17007 -1.97993
-0.760068 0.171118 -1.32667
-0.719721 0.62 1.93548
-3.48687e-06 0.258745 1.92125
-0.778099 0.241568 1.26667
-5.06639e-07 0.743401 -1.8734
-0.85074 0.824029 -1.19112
0 1.00608 1.95937
-0.698982 0.96564 1.30443
0.791835 0.43 -1.92728
0.760074 0.17111 -1.32667
0.719735 0.62 1.93548
0.778777 0.240884 1.26667
0.850685 0.823975 -1.19112
0.699001 0.965659 1.30439
-0.777638 0.197788 -0.03
-0.801753 0.508491 -0.622782
-9.85142e-07 0.16147 -0.678333
-0.839076 0.558003 0.649437
-1.93736e-06 0.162495 0.618333
-0.762453 0.882426 0.056655
-3.94395e-06 1.17248 -0.567237
0.000123964 1.37938 0.680527
0.777648 0.197775 -0.03
0.801745 0.508487 -0.622788
0.83905 0.558127 0.649423
0.762448 0.882422 0.056635
-0.898216 0.469246 -1.25889
-0.802834 0.533247 0.0133275
-0.882437 0.589002 1.28555
-4.92571e-07 0.141834 -1.32667
-1.46125e-06 0.162655 -0.03
-2.71211e-06 0.160091 1.26667
-2.5332e-07 0.43 -2.05764
-1.74344e-06 0.62 2.04362
-2.22529e-06 0.901538 -1.19112
6.00101e-05 1.37933 0.056645
6.19821e-05 1.25978 1.30441
0.89821 0.469244 -1.25889
0.80283 0.533307 0.0133175
0.882439 0.589064 1.28553
-1.11976 0.170984 -1.97257
-0.735247 0.0195583 -2.00341
-0.7335 0.135114 -2.47926
-1.13563 0.262772 1.90773
-0.776536 0.0851424 1.90153
-0.779501 0.289345 2.4213
-1.16265 0.705867 -1.82228
-0.768401 0.66303 -2.32647
-0.781647 1.17319 -1.73711
-1.01838 0.974305 1.93074
-0.689658 0.999354 2.44181
-0.699044 1.49971 1.98337
0.745528 0.0195605 -2.00341
0.753528 0.135117 -2.47926
1.1216 0.170989 -1.97257
0.774352 0.0851463 1.90153
0.737226 0.289351 2.4213
1.14015 0.262786 1.90772
0.784706 0.663033 -2.32647
0.770756 1.17321 -1.73711
1.16168 0.705872 -1.82228
0.641606 0.999364 2.44178
0.656367 1.49975 1.98334
1.01881 0.974343 1.9307
-1.14642 0.192335 -0.680027
-0.760887 0.0244536 -0.703502
-1.17016 0.198572 0.614716
-0.794497 0.0190682 0.601501
-1.15989 0.835975 -0.57085
-0.782361 1.31715 -0.494919
-1.10605 0.922976 0.678846
-0.752135 1.43122 0.741084
0.771926 0.0244574 -0.703503
1.14828 0.192358 -0.680033
0.802277 0.0190728 0.6015
1.17663 0.198615 0.614708
0.761101 1.31718 -0.494933
1.15833 0.836005 -0.570867
0.720232 1.43139 0.741061
1.10875 0.923221 0.678814
-1.49546 -0.171801 -2.53609
-1.49432 -0.0520643 -3.01375
-1.11154 -0.197674 -3.04654
-1.50989 -0.138768 -1.37825
-1.50239 0.0116973 -1.99868
-1.11787 -0.139728 -2.02952
-1.52889 -0.137407 -0.0753959
-1.52348 0.0318774 -0.705503
-1.13794 -0.136004 -0.728977
-1.52855 -0.117013 1.22787
-1.53541 0.0327875 0.594795
-1.15974 -0.146716 0.58158
-1.51835 -0.06692 2.38816
-1.50713 0.0836847 1.88885
-1.14803 -0.0939452 1.88265
-1.52107 -0.0144049 3.40621
-1.51001 0.136074 2.91031
-1.1485 -0.0410559 2.90272
-1.52285 0.187782 3.9254
-1.1571 0.0113193 3.91547
-1.50125 0.131434 -2.47634
-1.50844 0.377384 -2.91326
-1.11499 0.0955644 -2.98303
-1.51598 0.182343 -1.32593
-1.52285 0.446851 -1.89985
-1.53 0.202072 -0.0353111
-1.53143 0.519818 -0.628095
-1.51398 0.233485 1.25578
-1.50681 0.563545 0.644126
-1.49878 0.286679 2.41101
-1.44812 0.617077 1.91681
-1.51178 0.338261 3.42951
-1.47907 0.667548 2.93894
-1.14265 0.313252 2.92459
-1.51231 0.716784 3.95876
-1.15622 0.363601 3.93905
-1.53004 0.692801 -2.33677
-1.52641 1.12619 -2.75844
-1.13579 0.649963 -2.84096
-1.53831 0.784326 -1.20201
-1.54086 1.20101 -1.74768
-1.50825 0.881291 0.0513418
-1.53659 1.32581 -0.500521
-1.44094 0.947136 1.30516
-1.49599 1.4275 0.739633
-1.42841 0.997947 2.44474
-1.44532 1.49693 1.98751
-1.4796 1.04607 3.46819
-1.47536 1.54688 3.00316
-1.09969 1.023 2.95581
-1.51129 1.59368 4.02426
-1.14451 1.07031 3.97996
-1.53723 1.6344 -2.16935
-1.15081 1.58658 -2.66991
-1.53914 1.74249 -1.04619
-1.15986 1.66834 -1.66251
-1.52433 1.87201 0.18777
-1.15906 1.80698 -0.424591
-1.50036 1.9773 1.42198
-1.14208 1.93575 0.801871
-1.49227 2.04587 2.54593
-1.12598 2.02234 2.04014
-1.50704 2.0945 3.55923
-1.13397 2.07302 3.04831
-1.15537 2.11858 4.06721
-0.733955 -0.165601 -2.53997
-0.732208 -0.0500452 -3.01582
0.0207054 -0.195315 -3.04812
-0.745925 -0.136964 -1.38025
0.0102809 -0.135881 -2.03182
-0.768793 -0.145313 -0.0720008
0.01104 -0.138041 -0.728671
-0.779225 -0.123648 1.23636
0.0077819 -0.152577 0.584667
-0.778179 -0.0680811 2.39722
-0.00218124 -0.0947113 1.88805
-0.784526 -0.0153318 3.41199
-0.781144 0.136122 2.917
-0.0279817 -0.0414395 2.90638
-0.790473 0.187138 3.92912
-0.046151 0.0107959 3.91758
-0.742343 0.368144 -2.91073
0.0200274 0.0952312 -2.98352
-0.787091 0.338591 3.43413
-0.763266 0.668699 2.94146
-0.0422718 0.313696 2.9276
-0.788416 0.717125 3.96025
-0.0567626 0.363505 3.94064
-0.760199 1.11036 -2.75243
0.0163056 0.641062 -2.83794
-0.764592 1.04723 3.46759
-0.758292 1.54914 3.00096
-0.0480522 1.02372 2.95531
-0.788589 1.5952 4.02291
-0.0654323 1.07077 3.97984
-0.773444 1.62052 -2.16307
-0.0020857 1.57967 -2.66693
-0.779782 1.73283 -1.04091
-0.0108901 1.6614 -1.65922
-0.776809 1.87072 0.18951
-0.0212556 1.80431 -0.422616
-0.767692 1.98079 1.42003
-0.0320268 1.93721 0.801619
-0.767677 2.04949 2.54252
-0.0426766 2.02446 2.03842
-0.782289 2.09711 3.55629
-0.0539167 2.0746 3.0466
-0.0682585 2.11967 4.06596
0.764941 -0.165595 -2.53997
0.77294 -0.0500387 -3.01582
1.15135 -0.19766 -3.04655
0.767246 -0.136958 -1.38025
1.13716 -0.139717 -2.02952
0.787615 -0.145304 -0.0720029
1.15805 -0.13598 -0.728982
0.784826 -0.12364 1.23636
1.17794 -0.146684 0.581573
0.748016 -0.0680696 2.39721
1.14934 -0.0939241 1.88264
0.710394 -0.0153119 3.41198
0.71089 0.136135 2.91698
1.1014 -0.0410275 2.90271
0.687559 0.187162 3.9291
1.07167 0.0113588 3.91545
0.778676 0.36815 -2.91073
1.15091 0.0955752 -2.98304
0.688056 0.338609 3.43411
0.672942 0.668715 2.94144
1.07412 0.313277 2.92457
0.666221 0.717153 3.96023
1.0519 0.36364 3.93903
0.774419 1.11037 -2.75244
1.16331 0.649975 -2.84096
0.651107 1.04726 3.46756
0.656323 1.54918 3.00094
1.01841 1.02304 2.95578
0.654898 1.59524 4.02289
1.0225 1.07036 3.97993
0.760468 1.62055 -2.16308
1.14625 1.58662 -2.66993
0.747636 1.73287 -1.04092
1.13829 1.66838 -1.66252
0.723527 1.87079 0.189493
1.11845 1.80707 -0.424611
0.692988 1.98087 1.42001
1.08242 1.93588 0.801843
0.671084 2.04956 2.5425
1.04569 2.02245 2.04011
0.660114 2.09716 3.55627
1.03013 2.07311 3.04828
1.02213 2.11865 4.06718
1.52357 -0.171782 -2.5361
1.52932 -0.0520457 -3.01376
1.52796 -0.13874 -1.37826
1.51323 0.0117108 -1.99868
1.54837 -0.13736 -0.0754067
1.53439 0.0319203 -0.705512
1.54245 -0.116968 1.22786
1.55229 0.0328582 0.594781
1.50273 -0.066882 2.38814
1.51514 0.0837158 1.88883
1.46268 -0.0143568 3.40618
1.46463 0.136114 2.91029
1.43602 0.187837 3.92537
1.51898 0.131447 -2.47635
1.53554 0.377401 -2.91327
1.51966 0.182371 -1.32594
1.52372 0.446861 -1.89985
1.53832 0.202138 -0.0353251
1.53174 0.519876 -0.628112
1.52498 0.233542 1.25576
1.51586 0.563709 0.644098
1.47705 0.286712 2.41099
1.45307 0.617129 1.91678
1.43797 0.338307 3.42948
1.41959 0.667598 2.9389
1.40818 0.716846 3.95873
1.54028 0.692815 -2.33678
1.53514 1.12622 -2.75845
1.53579 0.784366 -1.20203
[...]
POINT_DATA 29498
VECTORS point_vectors float
-3.46318 -6.64967 11.5328
0.125771 0.282733 1.32736
-6.16059 3.13306 8.11959
0.0172555 0.00467966 0.163266
3.46389 -6.65091 11.5296
-0.12798 0.341243 1.55149
6.16594 3.13438 8.11576
0.0264448 -0.048242 0.188221
-0.0182799 0.0217377 0.260247
0.209527 -0.313421 2.55048
0.00857443 0.0165885 0.104153
-2.48383e-17 -3.60909e-17 -9.81933e-17
0.0190749 0.0221618 0.260655
-0.218622 -0.317633 2.60308
-0.0093428 0.0177162 0.103344
0 0 0
-0.598954 -0.291563 19.8456
-1.24879 -0.768183 20.4576
-0.384501 -0.398815 21.3754
0.0638016 -0.158016 21.3938
0.514894 0.110428 21.409
0.799998 0.257055 21.2564
0.905688 0.211294 20.516
-0.766965 -0.24254 19.7302
-1.73665 -0.669585 20.4478
-0.464101 -0.511918 21.4709
0.00865708 -0.305284 21.4698
0.686889 -0.0396587 21.5359
1.01786 0.0547272 21.1955
1.05003 -0.0300909 20.6825
-0.940885 0.0438728 19.6504
-1.99606 0.0362602 20.4782
-1.02788 -0.466468 21.4219
-0.382851 -0.431251 21.6655
0.526918 -0.551221 21.5555
0.851749 -0.553783 21.2853
0.610201 -0.536272 20.9375
-0.675163 0.40855 19.9396
-1.06621 0.60233 20.4722
-0.951083 0.344203 21.1825
-0.369967 0.0109355 21.4819
0.0768369 -0.27608 21.3976
0.313652 -0.3721 21.2912
0.382043 -0.540648 20.6049
-0.574557 -0.66316 19.2966
-1.86086 -3.41584 20.4546
-0.298423 -0.0298913 21.6717
0.0894066 0.135086 20.8755
0.475245 0.90671 20.0526
0.721796 1.31431 19.7048
0.752824 1.27166 19.6308
-0.783926 -0.560138 18.8717
0.831102 1.50967 11.1503
1.6901 1.08234 13.9285
-1.11524 0.180236 18.3868
1.22045 0.147313 9.64525
1.48303 -0.647079 14.2228
-0.670385 0.95332 19.421
-1.3008 1.769 20.1674
-1.54407 1.63427 21.3796
-0.43448 0.323691 21.8964
0.0491536 -0.344046 21.495
0.243183 -0.672966 21.2001
0.0976397 -0.462295 21.3171
0.596093 -0.630398 19.3439
1.89099 -3.31044 20.4416
0.289408 -0.0205951 21.6737
-0.0833082 0.141786 20.917
-0.477158 1.01032 20.1097
-0.719767 1.50222 19.7211
-0.59344 1.5392 19.3674
0.818983 -0.532332 18.9237
-0.620447 1.70393 9.62953
-1.95216 1.49725 11.7633
1.13703 0.17565 18.4403
-1.15668 -0.0507742 7.09264
-1.55519 -0.572769 10.8547
0.671203 0.957142 19.4187
1.28949 1.81707 20.1528
1.54941 1.74307 21.3887
0.437457 0.345923 21.935
-0.0150183 -0.362224 21.5294
-0.164405 -0.686744 21.1795
-0.128996 -0.507079 21.5292
0.58579 -0.276295 19.8662
1.23115 -0.745415 20.4748
0.404957 -0.401433 21.3703
-0.0499709 -0.164307 21.4025
-0.544441 0.130382 21.4351
-0.857229 0.314678 21.252
-1.04245 0.272103 20.4754
0.750387 -0.226588 19.7606
1.72859 -0.663549 20.4557
0.468556 -0.509753 21.4762
-0.00906009 -0.29973 21.4777
-0.727964 -0.0351862 21.5625
-1.14936 0.0799664 21.1761
-1.32659 0.0495876 20.2832
0.927129 0.033375 19.6815
2.00389 0.0361102 20.4857
1.02765 -0.470632 21.4364
0.373996 -0.433482 21.6787
-0.567115 -0.588335 21.5807
-0.961699 -0.680626 21.254
-0.733437 -0.601371 21.0049
0.67701 0.409931 19.9412
1.08179 0.622598 20.4686
0.987498 0.37907 21.2044
0.393296 0.0236031 21.5206
-0.0613003 -0.319924 21.3985
-0.298552 -0.424977 21.2037
-0.278368 -0.507415 20.7853
-1.0178 -0.154906 1.35767
-1.84335e-05 -0.0250327 0.113132
-0.0130978 0.00374421 0.216643
0 0 0
0.00276728 0.000644486 0.00173277
0.00186897 0.0051945 0.222654
0.000989959 0.312494 0.875462
-0.506315 -0.207194 1.48946
0.0104534 0.0395891 -0.0461794
0 0 0
1.01541 -0.154343 1.35813
0.0134154 0.00381874 0.216815
0 0 0
-0.00479074 0.00307989 0.140849
0.513487 -0.212418 1.48047
0 0 0
0.00323769 0.0369876 1.23269
0.000112017 0.00036729 0.00156417
5.07069e-06 0.000169748 0.00407161
-0.010217 0.0150725 0.0532095
0.000141187 -0.000110486 0.0154388
0.0103148 0.0231406 0.0410643
1.8343e-05 0.0406477 0.0759249
7.43415e-05 -0.000579116 0.0333682
-0.000766057 0.0390134 1.23413
-0.000110389 0.000383683 0.00154129
0.0100015 0.0145063 0.0520741
-0.0104076 0.0233997 0.041311
-2.90425e-05 -0.000225341 0.0350656
0 0 0
0 0 0
-5.31868e-07 4.70857e-07 -6.98862e-05
4.92057e-05 3.42166e-05 0.0158863
-8.12349e-07 -9.94453e-07 -3.50272e-05
1.39462e-06 -0.000381953 0.000446674
0 0 0
-1.39238e-05 0.00017324 0.00142758
0 0 0
8.6258e-05 0.000861628 -0.00117416
2.77521e-05 -0.000183006 0.0349525
0 0 0
0 0 0
-3.38612 -1.90403 20.191
-2.91046 -5.44835 20.578
-2.05335 -1.76593 17.7314
1.09178 0.415925 19.7942
0.391639 1.06109 14.8374
0.171177 1.06648 7.77831
-4.09513 0.496108 20.3924
-3.39031 1.25038 16.5234
-2.72571 2.92936 19.9382
1.01945 -0.159569 17.3523
0.521615 0.677053 5.23614
0.351217 -0.414756 18.4879
2.94506 -5.33256 20.5455
2.07361 -1.73388 17.8172
3.39018 -1.90663 20.191
-0.434514 1.18014 15.0686
-0.0783582 1.17777 7.03783
-1.18156 0.429947 20.01
3.3941 1.20361 16.6309
2.71895 2.97731 19.9281
4.10614 0.499809 20.3952
-0.25646 0.417993 3.60173
-0.365888 -0.444838 17.9266
-1.05727 -0.26373 17.5905
0.109076 -0.57 20.9887
-0.305613 0.521758 15.8301
0.127328 -0.347849 20.5857
0.388173 0.121032 16.4839
-1.57548 -1.54424 21.0515
-4.20122 1.70524 21.5757
-0.560945 -0.522743 19.5867
-0.646996 0.398085 19.9901
0.317281 0.548031 16.0928
-0.103697 -0.568943 21.0246
-0.369229 0.130778 16.6245
-0.124672 -0.347399 20.673
4.36299 1.87025 21.5484
1.56529 -1.56771 21.0136
0.452624 0.508028 18.834
0.553397 -0.544787 19.6705
-0.94996 -0.543978 19.9771
-0.668267 -0.291365 19.8047
-0.62566 -0.462784 19.6066
-0.908351 -0.647155 21.1945
-1.49513 -0.750997 20.4489
-1.75277 -1.67428 20.3945
-0.0964966 -0.25198 21.3779
-0.446349 -0.469864 21.4089
-0.177639 -0.385396 21.6401
0.257294 -0.0320722 21.5198
0.0348886 -0.237038 21.41
0.16525 -0.126303 21.5155
0.667038 0.193568 21.3241
0.59399 0.046072 21.4664
0.703225 0.423168 21.459
0.851852 0.226153 21.2869
0.916713 0.170955 21.2848
1.04132 0.666237 21.0953
1.00103 0.0916409 20.6761
1.10607 0.533972 20.9971
-1.30127 -0.442193 19.8479
-0.87393 -0.152728 19.6604
-0.825642 -0.410016 19.372
-1.18164 -0.669124 21.3746
-1.91756 -0.356815 20.4814
-0.156796 -0.407413 21.4105
-0.724133 -0.575952 21.4377
0.296343 -0.170748 21.6328
-0.153668 -0.428703 21.5829
0.864464 0.013974 21.3814
0.735339 -0.311749 21.5552
1.05894 0.00863223 21.3674
1.05587 -0.299229 21.171
1.41994 0.437845 20.1898
0.90515 -0.315599 20.8899
1.76108 0.392198 20.2593
-1.5788 0.0742759 19.8107
-0.878807 0.309482 19.7505
-1.17502 0.0985557 19.1119
-1.56848 -0.27482 21.2563
-1.54129 0.49135 20.4537
-0.702259 -0.495204 21.5478
-1.24561 0.0106467 21.3045
0.0796525 -0.450137 21.7527
-0.475044 -0.156077 21.6213
0.703929 -0.550724 21.4316
0.187048 -0.425329 21.4766
0.979635 -0.556099 20.9967
0.474344 -0.483873 21.1837
1.16239 -0.742706 20.1102
0.522008 -0.662072 20.9166
1.19895 -0.696168 20.3594
-0.917734 0.569931 20.1326
-0.761688 0.677784 19.6801
-1.0816 0.494219 20.8579
-1.28879 1.12096 20.3238
-0.677964 0.181218 21.4192
-1.28729 0.77408 21.2988
-0.106145 -0.145032 21.4379
-0.428022 0.130949 21.6706
0.190563 -0.377418 21.1951
0.0505371 -0.34938 21.4311
0.226309 -0.377209 21.0598
0.263011 -0.495335 21.0388
0.105374 -0.402386 21.1215
-1.18823 -1.64644 19.0145
-0.649451 -0.635512 19.1322
0.0275136 -0.85983 18.9757
-0.749314 -1.21367 22.3816
0.0289893 -5.20711 20.7978
-0.105015 0.109366 21.0221
0.0144089 -0.498137 19.6194
0.35434 0.500311 20.5316
0.0174798 -0.146045 17.5567
0.502981 1.07474 19.6428
0.119002 0.561584 15.1648
0.995419 1.47832 18.6861
0.75903 1.39604 15.7276
0.26454 0.565254 13.9217
1.17149 1.15303 15.1795
0.123129 1.62209 13.0944
-0.973264 -0.303051 18.5138
0.0392505 -0.778581 18.2863
1.57115 1.68064 13.4467
1.23716 0.87326 7.47081
-0.0922864 -1.74028 -3.56815
2.10009 0.411428 12.7347
-0.307931 -0.48178 0.0975941
-0.969987 0.86171 18.8125
0.0247913 0.324574 17.401
1.65332 -0.511913 12.7647
0.394453 -1.02817 20.7068
-0.236834 -0.748696 -1.12252
0.420519 -0.996609 19.8588
0.054361 -1.58259 0.383126
-0.992465 1.4981 19.6389
-0.000712852 1.30751 19.1035
-1.48987 1.74092 20.6576
-0.0194745 2.6316 19.8396
-0.975293 0.945429 21.9125
-0.0590012 3.39537 21.3717
-0.115217 -0.114508 21.727
-0.0195766 0.595282 22.191
0.132224 -0.505506 21.348
0.00804057 -0.343682 21.6724
0.262205 -0.689303 21.2271
0.0223328 -0.753993 21.1473
0.0140144 -0.873406 21.1443
1.21112 -1.57673 19.0688
0.673078 -0.613802 19.1675
0.632566 -0.444172 19.6364
0.755047 -1.21535 22.4237
1.73868 -1.60141 20.4011
0.103522 0.116832 21.0421
0.195899 -0.390928 21.6307
-0.345333 0.533347 20.5999
-0.156013 -0.123903 21.5269
-0.499021 1.26327 19.678
-0.741071 0.475353 21.502
-0.919569 1.65574 18.4106
-0.754477 1.63831 14.9782
-1.12045 0.834723 21.0231
-1.07063 1.50092 15.2175
-1.07659 0.734518 21.2563
0.997072 -0.297665 18.5731
0.827289 -0.392692 19.4047
-1.63063 1.9442 11.7541
-1.34047 1.06451 5.1448
-1.66512 0.735794 19.3613
-2.34934 0.652533 10.3247
-1.73701 0.506366 20.178
0.979081 0.847157 18.8353
1.16295 0.0876635 19.1648
-1.60897 -0.510886 9.60006
-0.448127 -1.01493 19.4042
-1.30272 -0.771555 19.1918
-0.438763 -1.03537 19.3646
-1.3706 -0.853701 19.4012
0.985482 1.51471 19.6295
0.76355 0.680506 19.6784
1.47832 1.82322 20.6345
1.29657 1.14934 20.3177
0.978222 1.02664 21.9571
1.33267 0.839692 21.3103
0.133307 -0.121256 21.7576
0.454451 0.152095 21.7027
-0.0871138 -0.52757 21.346
-0.0455352 -0.371783 21.459
-0.214808 -0.735705 21.2458
-0.24233 -0.54595 20.9663
-0.0823227 -0.432059 21.2007
0.927528 -0.501689 20.0138
0.653241 -0.269802 19.8243
0.917395 -0.624148 21.1792
1.46498 -0.739174 20.4631
0.112208 -0.258254 21.3822
0.455945 -0.470772 21.4119
-0.257594 -0.0276751 21.5303
-0.0345772 -0.232815 21.4115
-0.709413 0.235077 21.3318
-0.625876 0.0600643 21.494
-0.906714 0.24815 21.1548
-1.02768 0.19811 21.2566
-1.26084 0.157396 20.3312
1.26511 -0.421455 19.8827
0.862291 -0.145397 19.6887
1.18016 -0.664014 21.3739
1.9202 -0.356797 20.4931
0.15544 -0.398972 21.4135
0.722116 -0.578606 21.4536
-0.309928 -0.162125 21.6557
0.149583 -0.423117 21.594
-0.961633 0.0392555 21.3897
-0.784613 -0.321226 21.5928
-1.16308 -0.0113026 21.3638
-1.18948 -0.367161 21.1503
-1.14206 -0.36032 20.6877
1.55771 0.0698365 19.833
0.876896 0.304012 19.7641
1.57316 -0.275686 21.268
1.56519 0.504142 20.4565
0.698847 -0.498682 21.5591
1.28575 0.0179403 21.3236
-0.0939928 -0.465895 21.7773
0.494695 -0.165176 21.6552
-0.773271 -0.631375 21.4558
-0.191401 -0.471371 21.4988
-1.03839 -0.683497 20.9718
-0.511136 -0.598315 21.1269
-0.516793 -0.691774 20.8139
0.924589 0.57694 20.1289
1.10897 0.526799 20.8602
0.71537 0.214093 21.4374
0.120577 -0.15741 21.4782
-0.181005 -0.413151 21.2198
-0.241064 -0.460183 21.129
-1.10486 -0.52508 19.9285
-1.57003 -1.81498 18.4715
-1.17932 -0.974651 19.5851
-1.79318 -0.936518 19.1578
-0.720305 -0.442811 19.5065
-2.46309 -1.91896 20.3217
-1.06549 -0.677042 21.2741
-0.449668 -0.400315 18.5271
-0.935786 -1.12201 21.6976
-1.39834 -1.39761 22.2716
-0.0144757 -0.43413 21.6351
-0.133933 -0.339663 21.3928
-0.0156801 0.32946 15.7821
0.055336 -0.178163 21.4848
0.24008 -0.384559 20.5601
0.209502 -0.239022 21.227
0.266637 -0.105819 21.5722
0.611993 0.482372 15.2159
0.416362 0.0956103 21.5969
0.475495 -0.0440155 20.2194
0.920159 0.444721 20.9257
0.772634 0.120476 21.3629
0.429598 1.25372 14.9885
0.852672 0.582566 21.202
1.28833 0.415771 20.0969
1.26577 0.603233 20.4893
0.959225 0.134333 21.1016
1.24649 1.85839 16.1169
1.19101 0.718469 21.0462
1.6464 0.447994 19.6299
1.39837 0.425926 20.5186
-1.48045 -0.235965 19.8115
-3.057 -0.666987 16.5216
-2.51433 0.35583 18.9283
-1.03909 -0.204389 19.1671
-4.33512 -0.77258 20.2437
-1.409 -0.497116 21.3672
-2.39862 -0.643926 22.0102
-0.176705 -1.20254 20.6208
-0.367165 -0.547035 21.4804
-1.05134 -1.27849 20.3843
-0.0409194 -0.375004 19.2663
0.235026 -0.338133 21.7311
0.417044 0.0787165 18.3863
1.31886 0.378155 17.0346
0.909704 -0.297951 21.4019
-0.0882467 1.03022 2.87647
1.00021 -0.502807 19.2695
1.66362 -0.0804207 19.4542
1.09777 -0.330634 21.4745
2.4433 0.600715 10.607
1.31486 -0.776692 20.3722
1.61418 -0.192272 20.5481
-1.29543 0.465796 19.9651
-1.91424 2.04984 18.6574
-1.09536 1.00661 19.9074
-1.03949 0.550223 19.3195
-2.30492 1.22925 20.3049
-1.47107 0.23531 20.9802
-3.03007 1.9507 20.7242
-1.3739 0.995833 20.8133
-2.17475 0.307748 21.4996
-0.878063 -0.0864151 21.5367
-2.29992 0.625781 21.6096
-0.862625 0.463828 21.6129
-0.750358 -0.0556273 21.9523
-0.0909527 -0.28684 21.6229
0.224663 -0.0883705 18.9475
-0.133148 -0.156126 21.5986
0.121048 -0.570896 21.679
0.355176 -0.483054 21.3334
0.336959 -0.653703 19.6074
0.161927 -0.450961 21.2971
0.392755 -0.792922 21.6478
0.485217 -0.482229 20.9908
0.501737 -1.02438 20.1476
0.297598 -0.583484 21.2607
0.447732 -0.804556 20.7014
1.58568 -1.75322 18.5568
0.0394228 -2.45871 18.3347
0.0371776 -2.93441 15.9669
0.0240573 -0.871991 18.7187
0.0247458 -8.08272 22.2137
0.457403 -0.431144 18.7755
0.0227936 -1.8367 22.5988
0.00300599 0.0225706 9.0381
0.0406878 0.357046 16.0338
0.0101171 -0.233684 18.0803
0.0268025 -0.0566088 9.1225
-0.616238 0.510385 15.3942
0.0462505 0.305428 16.3676
0.244207 0.382414 6.31107
-0.452497 1.46446 14.8114
0.215674 0.366615 14.5404
0.225799 -1.00726 -2.83433
0.200859 -0.375752 4.2263
-1.20693 2.02467 16.0029
0.199048 1.24571 13.3382
-0.232481 -0.0711914 -0.897474
0.00551877 0.825665 6.25254
3.05532 -0.668795 16.693
0.0384927 2.77217 13.4352
0.0284653 -0.379534 17.6949
0.053193 0.949746 2.46358
-0.0448667 0.207872 -0.9857
-0.405734 -1.56508 -4.91366
-2.41125 0.777897 8.7731
0.0801758 -1.03931 -1.183
0.0434914 -1.14004 -0.954281
1.91659 2.04275 18.6626
-0.00617787 2.15664 19.3099
0.0112133 1.28549 18.1567
-0.0193651 4.89045 19.4019
3.05654 2.04505 20.6969
-0.0453968 2.99467 20.2141
-0.0948889 6.95331 18.958
2.11672 0.698466 20.5394
-0.04877 1.77161 22.4086
0.0221819 0.194975 14.0767
-0.341109 -0.0595578 18.021
-0.00947424 -0.0394376 21.9678
0.0457939 -0.459008 12.0314
-0.371338 -0.678714 18.5747
0.0139462 -0.532363 21.4656
0.132245 -0.985135 15.6345
-0.433026 -1.10062 19.4688
0.0337435 -0.634323 21.4473
0.101837 -0.810064 17.2098
1.06835 -0.496167 19.9632
1.17628 -0.939826 19.608
1.78744 -0.91613 19.2061
0.725574 -0.429757 19.5389
2.43362 -1.86922 20.322
1.05586 -0.667976 21.2637
0.965114 -1.10435 21.6609
1.40268 -1.39057 22.2671
0.0454395 -0.443869 21.6607
0.138603 -0.337149 21.3943
-0.0404271 -0.182136 21.4856
-0.230762 -0.381424 20.5898
-0.195096 -0.239271 21.3077
-0.270214 -0.099665 21.5784
-0.41735 0.111225 21.636
-0.490958 -0.0409953 20.3483
-0.979651 0.488576 21.0044
-0.850698 0.160854 21.3695
-0.920369 0.697922 21.1648
-1.4356 0.577565 19.5581
-1.34458 0.822864 20.0354
-1.04484 0.149263 21.1527
-1.3046 0.952206 21.0822
-1.70566 0.799398 18.6426
-1.37152 0.588943 20.4197
1.45995 -0.230395 19.8467
2.46906 0.333125 18.9788
1.0289 -0.196246 19.2211
4.33456 -0.772918 20.2471
1.41421 -0.49807 21.377
2.40738 -0.654009 22.0257
0.169914 -1.19731 20.6356
0.363493 -0.540673 21.494
1.04618 -1.30026 20.4305
0.0392293 -0.394447 19.4271
-0.249245 -0.338004 21.7639
-0.421937 0.0213667 18.5447
-1.42303 0.317705 17.3473
-1.01977 -0.330019 21.4309
-1.10818 -0.515246 18.3406
-1.81338 0.0578691 17.4754
-1.2286 -0.445171 21.5331
-1.46011 -0.84802 19.5789
-1.78959 -0.113542 18.5691
1.29773 0.466185 19.9715
1.10213 1.02615 19.8991
1.03786 0.541854 19.3337
2.32588 1.25905 20.2966
1.50959 0.242431 20.9927
1.39531 1.04128 20.8096
2.26529 0.328284 21.5166
0.911976 -0.0864433 21.5613
0.898987 0.505427 21.6543
0.790526 -0.0609183 22.0035
0.0930551 -0.311207 21.6621
0.147345 -0.155567 21.6341
-0.101729 -0.629136 21.671
-0.36176 -0.558865 21.3502
-0.146564 -0.491695 21.3149
-0.368756 -0.879607 21.7734
-0.509412 -0.619718 21.022
-0.296388 -0.658684 21.3084
-0.383842 -0.91316 20.9672
-1.44238 -0.978418 19.4091
-1.08856 -1.29293 22.0041
0.180893 -0.282 21.3372
0.508772 0.0218382 21.1319
1.10101 0.553889 20.8337
1.33704 0.620539 20.8269
-2.37201 -0.380666 18.8508
-1.90544 -1.15887 22.5498
0.0945186 -0.898981 19.568
0.436343 0.162457 18.8887
1.39064 0.0992026 18.3199
1.73914 -0.0532242 19.4711
-1.76278 1.02555 19.5095
-2.24291 0.660308 21.0486
-1.4681 0.0732803 21.903
-0.191207 -0.328742 21.9033
0.29295 -0.672722 21.4921
0.539414 -0.853551 21.2128
0.0324019 -2.8577 17.4081
0.00258771 -0.562791 12.5586
0.00620124 -0.0195216 8.83874
0.070298 0.348276 7.60471
0.466494 -0.364239 5.13322
-0.024901 1.25354 5.81478
0.0443308 -0.932788 13.4743
-0.199318 -0.679369 -3.51267
-0.0568749 -1.33882 -4.62747
0.00628633 3.42305 17.639
-0.0386092 4.41339 19.5169
0.00656422 0.974674 13.1623
0.0252777 -0.393584 12.9169
0.0997527 -0.637884 13.7604
0.0638758 -1.30691 16.1453
1.4376 -0.947649 19.4446
1.10872 -1.26725 21.9659
-0.161103 -0.274182 21.3385
-0.513237 0.03103 21.2133
-1.20753 0.700235 20.6551
-1.38349 0.946708 19.8519
2.31846 -0.388015 18.9329
1.90558 -1.16075 22.5566
-0.0921504 -0.900291 19.6625
-0.455872 0.122071 19.1044
-1.57373 0.168054 17.4219
-2.04364 0.0815549 17.6053
1.76464 1.0253 19.5096
2.29549 0.679864 21.0476
1.54364 0.0874101 21.9416
0.215061 -0.357319 21.9351
-0.278433 -0.751242 21.5218
-0.550223 -0.958248 21.3171
0 0 0
-0.0191786 -0.136928 0.582894
-0.0115783 -0.00447141 0.201094
-0.0249425 -0.009945 -0.0136559
-0.0119025 0.00183104 0.0166946
-0.0292092 0.0482545 0.550759
-0.390952 0.0648442 0.467407
-0.00411348 0.0202484 0.0510127
-0.169448 -0.00215661 0.460215
-0.0117598 0.0165219 -0.0129166
0.00226931 0.0652796 -0.065171
0.0169736 0.00113568 0.137191
0.0189085 -0.136813 0.582723
0 0 0
0.0117275 -0.00421207 0.196546
0.00513113 0.00360587 0.0122727
0.0105781 -0.0120866 -0.000697809
0.0233726 0.0535734 0.594139
0.00325377 0.015701 0.0393466
0.399975 0.0664627 0.480086
0.175039 -0.0033844 0.471251
0.0257308 0.0443099 -0.0484377
0.0120392 0.00637813 -0.00950808
-0.0130109 -0.00403392 0.138607
-0.0195186 0.00800989 0.327987
-0.0101092 0.0308646 0.617525
0.000659307 0.00300085 0.00868272
0.008979 -0.00101729 0.105784
0.00822856 0.0159567 0.234452
0.035835 -0.0251252 1.29346
0 0 0
0.00153014 -0.00101292 0.0300704
-0.285115 -0.406904 0.72552
0.00128579 0.00895477 0.0298357
0.0614879 0.106905 0.213346
-0.170169 0.0956657 0.264287
0 0 0
0 0 0
0 0 0
0.0821972 0.039809 0.350332
0.0202435 0.00821184 0.329413
-0.00883373 -0.00109645 0.108977
0.011725 0.0319389 0.618611
-0.000648192 0.00301243 0.00849727
-0.00702072 0.0133889 0.282471
-0.0012909 -0.00100274 0.029372
-0.034992 -0.0244144 1.29591
0 0 0
0.0824583 -0.225524 0.391602
0.169562 0.0947476 0.26311
-0.00129805 0.00865277 0.029989
-0.0625808 0.108498 0.212165
0 0 0
-0.0812383 0.0393138 0.352486
0 0 0
0 0 0
-0.0097803 -0.0057603 0.138088
0 0 0
2.44969e-05 -0.00463792 0.0753237
0 0 0
-5.63517e-05 -1.25551e-05 0.00574223
0.00127181 -0.000318593 0.029517
0.00307751 0.00430678 0.0231266
-0.0204525 0.0134619 -0.00381908
0.00106645 0.00137064 0.0130118
0.0234739 -0.00109547 -0.0157721
0 0 0
0 0 0
6.76885e-05 0.326138 0.127487
-1.26775e-05 0.00363192 0.0144489
-3.24394e-05 -0.000177426 0.00159933
7.95061e-05 -2.27522e-05 -0.0001605
0.00555993 0.0215362 -0.00565423
0 0 0
0.0279191 0.0537205 0.338121
-3.03104e-05 -0.000695763 0.00135866
0.660686 0.0900257 0.029778
0.00909462 -0.0055595 0.130709
-0.00122554 -0.000319891 0.0297566
5.5166e-05 -5.97845e-06 0.00567763
0.0208279 0.00908524 -0.00197876
-0.00334377 0.00449772 0.025212
0 0 0
0 0 0
0.000778591 0.000234944 0.00163919
2.96056e-05 -0.00016313 0.00146581
9.382e-05 -0.000634607 0.00122624
-0.0284666 0.0521895 0.348968
0.000566464 0.0131292 0.0736561
0.00544272 0.000266915 0.0752478
0.0195824 -0.00828529 0.203871
5.91207e-06 0.000144241 0.000490549
0 0 0
2.65637e-05 7.88575e-05 0.0163743
-2.20533e-05 0.00179833 0.00395687
-0.000194436 0.00299595 0.0267121
5.1166e-05 -4.3354e-05 0.0113898
0 0 0
0.00150073 0.0262747 0.0481995
0.0419325 0.0721424 1.55107
0 0 0
-3.22818e-05 0.517526 1.06844
2.77511e-05 0.000272881 0.0156502
0.000399978 -0.0119714 0.132942
-0.00483356 0.000265786 0.0729238
-0.000569217 0.0131785 0.0735119
-0.0193383 -0.00726528 0.200856
-6.78731e-06 0.000168321 0.000572269
2.11611e-05 0.00180633 0.00399653
0.000213075 0.00317684 0.0290519
-0.0403134 0.0721406 1.54887
-0.00154417 0.0265644 0.048894
-0.318665 -0.132406 1.30009
-0.0834341 -0.0394832 0.425642
0.00193005 0.000180473 0.0257502
0.0656389 -0.0503345 0.257294
0.0002172 0.0018452 0.00872407
0.00320143 0.045385 0.0932313