# vtk DataFile Version 2.0
tet_velo
ASCII
DATASET UNSTRUCTURED_GRID
POINTS 29498 float
-0.775 0.165 -2.14493
-0.669633 0.305 2.225
-0.723276 0.755 -2.065
-0.57202 1.395 2.145
0.775 0.165 -2.14493
0.725 0.375 2.21847
0.723276 0.755 -2.065
0.555 1.395 2.14466
-0.735085 0.21646 -0.688287
-0.72862 0.234469 0.768357
-0.749066 1.04454 -0.661667
-0.678526 1.23775 0.741667
0.772082 0.221252 -0.690463
0.799841 0.246826 0.764004
0.735968 1.03712 -0.66178
0.663057 1.23363 0.74144
-1.50187 -0.363539 -3.29826
-1.49683 -0.24075 -2.15462
-1.45383 -0.199347 -0.696738
-1.40664 -0.211233 0.771945
-1.35565 -0.161113 2.23073
-1.34743 -0.0672232 3.3788
-1.35726 0.0462668 4.5186
-1.51166 0.00390176 -3.27713
-1.51053 0.152551 -2.13929
-1.46784 0.234934 -0.69151
-1.41048 0.262124 0.76124
-1.33633 0.330925 2.21005
-1.3433 0.426315 3.35744
-1.36505 0.536697 4.49893
-1.50051 0.688621 -3.22012
-1.48592 0.831589 -2.08028
-1.47252 1.06714 -0.668806
-1.38027 1.2386 0.739105
-1.28026 1.37628 2.15174
-1.33031 1.45451 3.3023
-1.38147 1.54041 4.45292
-1.50296 1.88375 -3.17362
-1.49502 2.05194 -2.0415
-1.48827 2.32544 -0.647245
-1.46151 2.59259 0.735844
-1.43142 2.79448 2.13097
-1.43294 2.90823 3.26491
-1.45141 3.00017 4.40984
-0.760247 -0.355448 -3.30201
-0.755808 -0.226864 -2.1601
-0.717241 -0.203756 -0.696912
-0.695773 -0.228976 0.777295
-0.66969 -0.172481 2.24078
-0.669248 -0.0725207 3.38525
-0.678122 0.0451324 4.52185
-0.771835 0.0017293 -3.27845
-0.682246 0.421571 3.36281
-0.694968 0.537052 4.50119
-0.761325 0.655412 -3.21389
-0.680496 1.46035 3.30043
-0.721209 1.54564 4.45175
-0.769559 1.85698 -3.16755
-0.764133 2.02445 -2.0348
-0.772859 2.3128 -0.643423
-0.771845 2.5966 0.734775
-0.761146 2.80603 2.12664
-0.765955 2.91947 3.2605
-0.780827 3.00944 4.40636
0.751303 -0.355089 -3.30252
0.771613 -0.22589 -2.16072
0.786855 -0.199038 -0.69898
0.800265 -0.214328 0.773472
0.747285 -0.127481 2.23564
0.706532 -0.037863 3.38117
0.688618 0.0688698 4.51864
0.738672 0.00165523 -3.27874
0.661218 0.457692 3.35883
0.652752 0.560201 4.49813
0.717539 0.654851 -3.2141
0.578752 1.47549 3.29839
0.595109 1.56146 4.44942
0.694563 1.85596 -3.16808
0.69382 2.02279 -2.03531
0.662694 2.31082 -0.644066
0.609328 2.59609 0.733918
0.568824 2.80844 2.12551
0.557799 2.92498 3.25907
0.556247 3.01729 4.40466
1.50493 -0.36272 -3.29952
1.52471 -0.23914 -2.1562
1.52924 -0.192022 -0.700302
1.52051 -0.187192 0.76576
1.45579 -0.103093 2.22279
1.40658 -0.0126823 3.37167
1.38375 0.088662 4.51254
1.49327 0.00363652 -3.27802
1.51786 0.151879 -2.14021
1.51065 0.23892 -0.694541
1.49131 0.280828 0.755493
1.40939 0.390915 2.20231
1.35716 0.480513 3.35061
1.34338 0.577798 4.49313
1.46461 0.687079 -3.22079
1.47569 0.828257 -2.08075
1.462 1.06132 -0.67006
1.37772 1.23963 0.736716
1.27291 1.39224 2.14843
1.2617 1.48303 3.29798
1.27575 1.56987 4.4483
1.42448 1.88206 -3.17479
1.41973 2.04927 -2.04268
1.38191 2.32274 -0.648715
1.31362 2.593 0.733909
1.2556 2.80056 2.1285
1.23774 2.91976 3.2619
1.23696 3.01579 4.40639
-0.777835 0.46 -2.13366
0 0.161199 -2.14873
-0.757717 0.188055 -1.41661
-0.698641 0.85 2.26281
0.0276835 0.372787 2.18895
-0.702212 0.266649 1.49668
0 0.835534 -2.14553
-0.758128 0.921728 -1.36333
-0.00850999 1.43624 2.18607
-0.632606 1.32371 1.44333
0.777939 0.46 -2.13377
0.771537 0.19513 -1.4177
0.707803 0.885 2.24937
0.787212 0.286121 1.49124
0.756007 0.922444 -1.36339
0.616308 1.3216 1.44305
-0.732458 0.224859 0.040035
-0.847348 0.630501 -0.674977
0.0184985 0.232723 -0.689375
-0.848737 0.736111 0.755012
0.0356105 0.241718 0.76618
-0.714846 1.1422 0.04
-0.00654891 1.18328 -0.661724
-0.00773426 1.47645 0.741553
0.792989 0.227011 0.0367701
0.830393 0.629184 -0.676122
0.831855 0.740229 0.752722
0.700096 1.13596 0.03983
-0.897569 0.54525 -1.38997
-0.848008 0.683306 0.0400175
-0.864146 0.793056 1.47001
0.00924924 0.198026 -1.41715
0.0270545 0.237251 0.0384026
0.031647 0.318266 1.49396
0 0.46 -2.30197
0.00958677 0.8675 2.29745
-0.00327445 0.990629 -1.36336
-0.00714158 1.45769 0.039915
-0.00812213 1.46966 1.44319
0.897576 0.544592 -1.39054
0.831021 0.684707 0.0383
0.839564 0.812614 1.46714
-1.14277 0.158775 -2.14211
-0.765404 -0.0309321 -2.15252
-0.773417 0.0833647 -2.71169
-1.00298 0.317962 2.21752
-0.669661 0.0662594 2.23289
-0.67594 0.363286 2.79391
-1.1046 0.793295 -2.07264
-0.742301 0.705206 -2.63944
-0.743705 1.38973 -2.0499
-0.926141 1.38564 2.14837
-0.626258 1.42768 2.72272
-0.666583 2.10051 2.13582
0.773306 -0.0304451 -2.15283
0.756836 0.0833276 -2.71184
1.14643 0.158439 -2.14257
0.736143 0.123759 2.22706
0.693109 0.416346 2.78865
1.0672 0.382957 2.21039
0.720407 0.704926 -2.63955
0.708548 1.3889 -2.05016
1.09948 0.791628 -2.07287
0.566876 1.43525 2.72153
0.561912 2.10172 2.13509
0.913956 1.39362 2.14655
-1.10146 0.225697 -0.689898
-0.726163 0.00635178 -0.692599
-1.06955 0.248296 0.764798
-0.712196 0.00274633 0.772826
-1.11079 1.05584 -0.665237
-0.760962 1.67867 -0.652545
-1.0294 1.23817 0.740386
-0.725186 1.91718 0.738221
0.779468 0.0111067 -0.694721
1.14137 0.230086 -0.692502
0.800053 0.0162489 0.768738
1.14558 0.263827 0.759748
0.699331 1.67397 -0.652923
1.09898 1.04922 -0.66592
0.636192 1.91486 0.737679
1.02039 1.23663 0.739078
-1.49935 -0.302144 -2.72644
-1.50677 -0.179819 -3.2877
-1.13106 -0.359494 -3.30014
-1.47533 -0.220048 -1.42568
-1.50368 -0.0440995 -2.14695
-1.12632 -0.233807 -2.15736
-1.43024 -0.20529 0.0376037
-1.46083 0.0177936 -0.694124
-1.08553 -0.201552 -0.696825
-1.38114 -0.186173 1.50134
-1.40856 0.0254455 0.766593
-1.05121 -0.220104 0.77462
-1.35154 -0.114168 2.80476
-1.34599 0.0849056 2.22039
-1.01267 -0.166797 2.23575
-1.35234 -0.0104782 3.9487
-1.34536 0.179546 3.36812
-1.00834 -0.069872 3.38203
-1.36116 0.291482 4.50877
-1.01769 0.0456996 4.52023
-1.5111 0.0782262 -2.70821
-1.50609 0.346261 -3.24862
-1.14175 0.00281553 -3.27779
-1.48919 0.193743 -1.4154
-1.49823 0.49207 -2.10979
-1.43916 0.248529 0.034865
-1.47018 0.651035 -0.680158
-1.3734 0.296524 1.48564
-1.39538 0.75036 0.750173
-1.33981 0.37862 2.78374
-1.30829 0.853603 2.18089
-1.35417 0.481506 3.92818
-1.33681 0.940413 3.32987
-1.01277 0.423943 3.36012
-1.37326 1.03855 4.47592
-1.03001 0.536874 4.50006
-1.49322 0.760105 -2.6502
-1.50174 1.28618 -3.19687
-1.13092 0.672016 -3.217
-1.47922 0.949362 -1.37455
-1.49047 1.44177 -2.06089
-1.4264 1.15287 0.0351493
-1.48039 1.69629 -0.658026
-1.33027 1.30744 1.44542
-1.42089 1.91559 0.737474
-1.30529 1.4154 2.72702
-1.35584 2.08538 2.14136
-1.35589 1.49746 3.87761
-1.38163 2.18137 3.2836
-1.0054 1.45743 3.30136
-1.41644 2.27029 4.43138
-1.05134 1.54302 4.45233
-1.49899 1.96785 -2.60756
-1.13626 1.87036 -3.17058
-1.49164 2.18869 -1.34437
-1.12958 2.0382 -2.03815
-1.47489 2.45902 0.0442995
-1.13056 2.31912 -0.645334
-1.44647 2.69354 1.43341
-1.11668 2.5946 0.73531
-1.43218 2.85135 2.69794
-1.09628 2.80025 2.12881
-1.44218 2.9542 3.83737
-1.09945 2.91385 3.26271
-1.11612 3.00481 4.4081
-0.758028 -0.291156 -2.73105
-0.766041 -0.17686 -3.29023
-0.00447189 -0.355268 -3.30226
-0.736524 -0.21531 -1.42851
0.00790214 -0.226377 -2.16041
-0.706507 -0.216366 0.0401915
0.0348072 -0.201397 -0.697946
-0.682731 -0.200729 1.50904
0.0522458 -0.221652 0.775383
-0.669469 -0.122501 2.81301
0.038798 -0.149981 2.23821
-0.673685 -0.0136942 3.95355
-0.675747 0.174525 3.37403
0.0186417 -0.0551919 3.38321
-0.686545 0.291092 4.51152
0.00524802 0.0570011 4.52025
-0.76658 0.328571 -3.24617
-0.0165812 0.00169226 -3.2786
-0.688607 0.479311 3.932
-0.681371 0.940961 3.33162
-0.0105143 0.439632 3.36082
-0.708088 1.04135 4.47647
-0.0211081 0.548626 4.49966
-0.765442 1.2562 -3.19072
-0.0218933 0.655132 -3.21399
-0.700852 1.503 3.87609
-0.723225 2.18991 3.28047
-0.0508718 1.46792 3.29941
-0.751018 2.27754 4.42906
-0.06305 1.55355 4.45058
-0.766846 1.94072 -2.60117
-0.0374982 1.85647 -3.16781
-0.768496 2.16862 -1.33911
-0.0351568 2.02362 -2.03506
-0.772352 2.4547 0.0456761
-0.0550826 2.31181 -0.643744
-0.766496 2.70131 1.43071
-0.0812588 2.59635 0.734347
-0.76355 2.86275 2.69357
-0.0961613 2.80723 2.12608
-0.773391 2.96446 3.83343
-0.104078 2.92222 3.25979
-0.11229 3.01337 4.40551
0.761458 -0.290489 -2.73162
0.744988 -0.176717 -3.29063
1.12812 -0.358904 -3.30102
0.779234 -0.212464 -1.42985
1.14816 -0.232515 -2.15846
0.79356 -0.206683 0.037246
1.15805 -0.19553 -0.699641
0.773775 -0.170905 1.50456
1.16039 -0.20076 0.769616
0.726908 -0.0826722 2.80841
1.10154 -0.115287 2.22922
0.697575 0.0155034 3.94991
0.683875 0.209915 3.37
1.05656 -0.0252727 3.37642
0.670685 0.314535 4.50839
1.03618 0.0787659 4.51559
0.728105 0.328253 -3.24642
1.11597 0.00264588 -3.27838
0.656985 0.508947 3.92848
0.619985 0.966591 3.32861
1.00919 0.469103 3.35472
0.62393 1.06083 4.47377
0.998067 0.569 4.49563
0.706051 1.25541 -3.19109
1.09108 0.670965 -3.21744
0.58693 1.51847 3.8739
0.568275 2.20023 3.27873
0.920225 1.47926 3.29819
0.575678 2.28937 4.42704
0.93543 1.56566 4.44886
0.694191 1.93938 -2.6017
1.05952 1.86901 -3.17143
0.678257 2.1668 -1.33969
1.05677 2.03603 -2.039
0.636011 2.45345 0.0449263
1.0223 2.31678 -0.64639
0.589076 2.70227 1.42972
0.961473 2.59454 0.733914
0.563311 2.86671 2.69229
0.91221 2.8045 2.12701
0.557023 2.97113 3.83186
0.897769 2.92237 3.26049
0.896605 3.01654 4.40552
1.51482 -0.30093 -2.72786
1.4991 -0.179542 -3.28877
1.52697 -0.215581 -1.42825
1.52128 -0.0436305 -2.1482
1.52487 -0.189607 0.0327294
1.51994 0.0234493 -0.697421
1.48815 -0.145142 1.49428
1.50591 0.0468181 0.760627
1.43119 -0.0578877 2.79723
1.43259 0.143911 2.21255
1.39517 0.0379898 3.9421
1.38187 0.233915 3.36114
1.36356 0.33323 4.50284
1.50556 0.0777578 -2.70912
1.47894 0.345358 -3.2494
1.51425 0.1954 -1.41738
1.49677 0.490068 -2.11048
1.50098 0.259874 0.0304763
1.48632 0.650119 -0.6823
1.45035 0.335871 1.4789
1.43452 0.760231 0.746105
1.38328 0.435714 2.77646
1.34115 0.89158 2.17537
1.35027 0.529156 3.92187
1.30943 0.98177 3.3243
1.30957 1.07383 4.47072
1.47015 0.757668 -2.65077
1.44455 1.28457 -3.19779
1.46884 0.944787 -1.3754
1.44771 1.43876 -2.06172
1.41986 1.15048 0.0333281
1.42195 1.69203 -0.659388
1.32532 1.31594 1.44257
[...]
POINT_DATA 29498
VECTORS point_vectors float
-6.77674 -7.82008 14.7895
0.315539 0.392509 1.89629
-1.46868 1.47085 3.46341
0.0754797 -0.0546536 0.585709
6.80179 -7.80622 14.7769
-0.258105 0.339216 1.41393
1.51774 1.5162 3.58783
-0.108229 -0.257614 1.64071
0 0 0
0.00644839 0.000183475 0.0614521
-0.66643 -0.331883 1.27683
0 0 0
0.00620059 0.0597383 1.04435
-0.100417 -0.323395 2.23654
0.588145 -0.298267 1.0038
0 0 0
-0.5275 -0.350463 19.9138
-1.12636 -0.860476 20.6493
-0.133502 -0.467968 21.4822
0.305601 -0.220484 21.5676
0.848712 0.112053 21.5471
1.13646 0.142168 21.1626
1.086 -0.0251567 21.2522
-0.706314 -0.294791 19.8097
-1.73403 -0.749915 20.5529
-0.365963 -0.730013 21.552
0.172221 -0.574954 21.6062
1.06919 -0.366759 21.4717
1.30936 -0.435452 21.5008
1.5085 -0.436071 20.1992
-0.839111 0.0315549 19.6212
-2.08608 0.228412 20.423
-1.38117 -0.355784 21.3953
-0.649901 -0.462269 21.7623
-0.0800999 -0.669473 21.59
0.269328 -0.743203 21.7403
0.17602 -0.555645 22.2518
-0.46974 0.346386 19.9547
-0.7406 0.579663 20.3592
-0.674754 0.4611 20.9782
-0.339613 0.13339 21.3679
-0.08595 -0.115926 21.3007
0.0228383 -0.173654 21.279
0.144804 -0.145858 20.8408
-0.51059 -0.690179 19.4719
-1.38711 -2.99339 21.1234
0.121 -0.0201524 21.7436
0.402883 0.241225 21.3898
0.803358 1.08767 21.0214
1.32567 1.58303 19.4308
1.44739 1.24142 17.1743
-0.726507 -0.596253 19.0751
2.09912 1.11346 10.1413
2.29383 1.39739 12.7921
-1.05585 0.05977 18.5295
0.251909 -0.69581 10.4235
-0.0586485 -0.89152 13.6679
-0.406902 0.653601 19.6655
-0.688981 1.23608 20.1935
-0.738081 1.07876 20.9778
-0.309109 0.359536 21.5641
-0.0181085 -0.0593047 21.4002
0.0803522 -0.23276 21.1337
0.100505 -0.131201 21.141
0.514965 -0.685817 19.4769
1.44657 -2.92202 21.1223
-0.13249 7.02774e-05 21.776
-0.427623 0.188164 21.5263
-0.818995 1.25222 20.7881
-1.28135 1.77988 19.0996
-1.46224 1.20944 17.6187
0.719654 -0.626514 19.0253
-2.04194 1.69037 10.4064
-2.35032 1.30491 13.6661
1.00673 0.0538939 18.4337
-0.210327 -1.51296 13.8621
-0.15874 -1.69635 16.1391
0.3956 0.683242 19.6451
0.670155 1.28925 20.1872
0.701273 1.1759 20.9926
0.317507 0.404499 21.6396
0.121161 -0.125854 21.4011
0.0399135 -0.263469 21.0743
-0.00221667 -0.153602 20.8732
0.534139 -0.350574 19.9204
1.09671 -0.817776 20.6643
0.197281 -0.432839 21.4392
-0.235226 -0.201004 21.5503
-0.824353 0.149923 21.5584
-1.1246 0.203037 21.2309
-1.0664 0.00961627 21.0787
0.721039 -0.299913 19.8008
1.72058 -0.730735 20.5735
0.360163 -0.668256 21.544
-0.0956583 -0.511103 21.6478
-1.10239 -0.276252 21.6275
-1.47072 -0.308952 21.4474
-1.54258 -0.440557 19.8546
0.859662 0.0399598 19.6025
2.12364 0.23736 20.4471
1.36304 -0.393604 21.4307
0.67195 -0.465237 21.827
-0.150715 -0.795753 21.7976
-0.471916 -0.917303 21.5357
-0.293516 -0.624012 20.9454
0.487107 0.36958 19.9286
0.764744 0.634885 20.3716
0.727127 0.509759 20.998
0.340392 0.115748 21.4799
0.146708 -0.216678 21.3937
0.0121235 -0.241791 21.4175
-0.0783755 -0.209933 20.9589
-1.80181 -0.0608173 1.55932
0.00158969 -0.0438036 0.420873
0.00492822 0.00247311 0.103965
-0.072268 -0.219182 0.0268553
0.000937975 0.00376668 0.0094618
0.00227385 0.000733302 0.0422671
0.000241019 0.0728174 0.209008
-0.503067 -0.131683 1.377
0.161593 -0.0519323 0.306997
0.00498515 0.0069221 0.0462658
1.79685 -0.0632959 1.54929
-4.68535e-05 0.00476049 0.116038
0.0099859 -0.0326278 0.0287157
-0.00987669 0.0059354 0.315931
0.48528 -0.120374 1.31998
-0.00604413 0.00724416 0.080839
0.00323397 0.000754176 0.0648424
0 0 0
2.26217e-05 0.000123102 0.00460038
0 0 0
-8.73442e-05 0.000176519 0.0130157
0.000185743 0.000459441 0.00153404
0.00186791 0.054087 0.110667
0.000173564 0.000126249 0.0110319
-0.00625595 0.00501358 0.36587
0 0 0
0 0 0
-0.000566475 0.00141683 0.00391917
-1.40135e-05 -0.000181582 0.00145006
6.2496e-06 0.000278757 0.00182813
0.00330007 0.0155726 0.244042
0.00232431 -0.000289571 0.0488702
0 0 0
0 0 0
0 0 0
0 0 0
0.000330351 0.00368404 0.0259481
0.000462955 0.0230261 0.173459
0.000168148 -4.40717e-05 0.00293857
2.21232e-05 -0.00028719 0.00238815
-7.04982e-06 0.00048516 0.00223058
0 0 0
-3.29468 -1.93653 20.5694
-2.55892 -4.9653 21.3907
-2.04719 -1.91579 18.1418
1.46732 0.228188 15.3622
0.980534 1.35371 16.1877
1.59451 0.561607 6.76273
-4.14014 1.03131 20.2611
-3.13733 1.12289 16.7818
-1.79842 2.40318 19.9841
-0.0789255 -0.3849 17.6535
-0.586879 -0.0359512 4.74471
-0.122876 -0.0862711 21.5501
2.62148 -4.91382 21.3759
2.06793 -1.96733 18.0751
3.27924 -1.91415 20.5849
-0.799394 1.57527 15.3074
-1.25888 1.3635 7.02709
-1.60548 0.257553 17.3078
3.16819 1.16469 16.6135
1.76663 2.4799 19.9729
4.20349 1.04852 20.2844
0.0773527 -0.903541 8.78932
0.26476 -0.280767 21.6893
-0.178643 -0.713555 18.7344
0.235959 -0.931878 19.2184
0.429434 0.440525 16.0843
0.29197 -0.439792 16.9651
0.660563 0.331805 16.7619
-2.56066 -0.86896 21.4919
-2.04128 1.91301 20.8684
-0.968967 -0.624836 20.5183
-0.777176 0.585585 21.9873
-0.409347 0.530886 17.2427
-0.166947 -0.933975 20.4436
-0.636848 0.231013 17.5677
-0.244488 -0.6021 19.3129
2.07808 2.09526 20.8254
2.53449 -1.0254 21.3487
0.825481 0.662667 22.0852
1.023 -0.620284 20.5219
-0.88032 -0.605571 20.1072
-0.605222 -0.333134 19.8499
-0.558758 -0.508384 19.7281
-0.633479 -0.713089 21.3591
-1.40435 -0.850408 20.6303
-1.45146 -1.66876 20.7847
0.125556 -0.334376 21.499
-0.241761 -0.613166 21.5162
0.152652 -0.402018 21.6515
0.546876 -0.0864056 21.6043
0.283727 -0.400221 21.6066
0.494495 -0.0829325 21.6273
1.03252 0.188803 21.3715
1.01363 -0.0673654 21.5688
1.04888 0.567549 21.4436
1.33765 0.232701 20.6299
1.27073 -0.135529 21.345
1.52556 0.87853 21.1332
1.26397 -0.209298 21.5391
1.55599 0.45474 20.7499
-1.26127 -0.54558 19.9192
-0.806158 -0.156982 19.6488
-0.787084 -0.476021 19.4756
-1.07816 -0.807222 21.4924
-2.12099 -0.347428 20.4941
-0.0478952 -0.663927 21.5736
-0.863794 -0.782619 21.5388
0.5233 -0.480447 21.6491
-0.222533 -0.745084 21.6112
1.26004 -0.375788 21.309
0.574605 -0.940621 21.2942
1.47104 -0.112938 20.9563
0.927551 -0.783657 21.8281
2.08435 0.177476 17.374
1.0787 -0.90431 20.3941
1.90116 0.480657 16.4956
-1.54629 0.145601 19.7405
-0.689162 0.298693 19.757
-1.03284 0.0487405 19.1436
-1.7128 -0.0877743 21.1954
-1.3295 0.647365 20.3386
-1.06475 -0.489129 21.6514
-1.20038 0.344439 21.1331
-0.280491 -0.526685 21.7459
-0.589226 0.0238607 21.5699
0.0440888 -0.721581 21.4783
-0.100246 -0.24205 21.4261
0.527698 -0.648751 21.1895
0.122423 -0.342177 21.232
0.148483 -0.860824 19.2769
0.0967669 -0.36876 21.2298
0.058686 -0.723583 17.9599
-0.642774 0.496024 20.1067
-0.477667 0.50626 19.8039
-0.744974 0.544434 20.7064
-0.786238 0.877896 20.305
-0.543962 0.309127 21.2138
-0.745993 0.729977 21.0051
-0.193257 -0.0313962 21.3361
-0.323666 0.241278 21.4851
-0.00769566 -0.149539 21.1152
-0.0752724 -0.0994472 21.463
0.0973333 -0.15575 21.1604
0.0309313 -0.200204 21.4302
0.106672 -0.223995 20.9825
-1.0489 -1.66904 19.5002
-0.627052 -0.694511 19.2695
0.00578158 -0.924883 19.2405
-0.293561 -0.895809 22.3713
0.0157232 -3.60699 21.9115
0.258835 0.110734 21.4129
0.0136224 0.0979445 21.7145
0.59946 0.576854 21.1226
0.0118129 0.352562 21.1996
1.04989 1.37384 20.4852
0.112198 1.22246 20.3293
1.11739 1.60783 20.4331
1.87655 1.79964 15.9195
0.0560358 2.05673 19.9261
1.99381 1.53759 14.6519
0.0546748 2.1623 18.5203
-0.977548 -0.306313 18.6495
-0.0166722 -1.03775 18.4703
2.30608 1.24505 11.4717
0.733696 -0.486228 2.36007
0.216227 1.40666 4.76541
1.33022 -0.365934 12.4169
-0.0186211 2.26648 9.56326
-0.746795 0.742954 19.0991
-0.0344992 0.23594 17.7105
0.151296 -1.09307 13.6155
0.0242818 -0.34348 21.0282
0.338252 -0.112158 2.19861
-0.0287303 -0.355127 21.7076
0.091203 -1.0608 10.3633
-0.580476 1.02188 19.831
-0.0167248 0.837674 19.4809
-0.760358 1.1884 20.5881
-0.0360807 1.62024 20.0864
-0.556365 0.772348 21.4155
-0.0401831 1.60637 20.9407
-0.136649 0.0740222 21.4871
-0.0045314 0.53639 21.6781
0.0147951 -0.131383 21.1815
0.0445499 -0.079175 21.5438
0.0919657 -0.138823 21.3275
0.0491933 -0.246523 21.2159
0.060427 -0.286045 21.0689
1.06497 -1.65131 19.5165
0.623611 -0.709051 19.2452
0.561746 -0.511777 19.7325
0.328699 -0.84541 22.285
1.47507 -1.60584 20.7743
-0.274479 0.0835649 21.4993
-0.0763534 -0.415284 21.6435
-0.63226 0.663288 21.2768
-0.403142 -0.176191 21.6573
-1.07332 1.57446 20.3366
-1.08694 0.591392 21.4524
-0.951773 1.68124 20.1435
-1.64129 2.25753 15.8978
-1.57649 0.960639 21.0459
-2.01261 1.51132 15.2687
-1.49092 0.668516 20.6768
0.936783 -0.310291 18.5598
0.811212 -0.501302 19.4574
-2.23292 1.81389 11.9499
-1.09295 -0.513833 3.94937
-2.34714 0.410346 17.843
-1.49431 -0.419364 14.2791
-1.94645 0.432176 16.7604
0.702584 0.784225 19.0262
1.03982 0.0526765 19.1054
-0.2832 -1.74408 16.4819
0.0250964 -0.599045 21.0883
-0.631498 -1.27457 19.1879
0.0188695 -0.54148 20.8573
-0.231212 -1.13906 18.6822
0.56901 1.08115 19.8051
0.475258 0.532349 19.7809
0.721509 1.26684 20.5723
0.806952 0.930852 20.2916
0.548181 0.825051 21.4639
0.771609 0.813603 21.011
0.177202 0.0700182 21.5645
0.353097 0.281395 21.5495
0.0697408 -0.231459 21.3028
0.117444 -0.144667 21.4909
0.0130586 -0.215871 21.0098
0.0223615 -0.31397 21.2946
0.000742438 -0.220257 21.081
0.87263 -0.586904 20.1295
0.621941 -0.333799 19.8479
0.655651 -0.647478 21.3303
1.3911 -0.811931 20.6434
-0.0487467 -0.312203 21.5019
0.291952 -0.565745 21.4935
-0.495793 -0.0769284 21.6506
-0.189157 -0.370293 21.5681
-1.04558 0.272482 21.385
-1.00778 -0.024103 21.6704
-1.38173 0.233218 20.4916
-1.34931 0.0429362 21.2333
-1.2571 -0.145089 21.2398
1.2801 -0.552521 19.9235
0.823608 -0.167568 19.6426
1.07291 -0.757262 21.4869
2.13238 -0.352678 20.5243
0.0895814 -0.588567 21.5409
0.821879 -0.746848 21.5478
-0.480368 -0.416895 21.8336
0.249333 -0.674917 21.6917
-1.3967 -0.228675 21.3871
-0.789223 -0.874069 21.5791
-1.44404 -0.166232 20.9126
-1.18794 -0.811298 21.7695
-1.29465 -0.798369 19.9568
1.587 0.154514 19.7248
0.708385 0.311373 19.7319
1.73137 -0.100798 21.2495
1.38728 0.693416 20.3437
1.06978 -0.506984 21.6697
1.26553 0.378597 21.1641
0.243329 -0.567115 21.8999
0.634599 0.0244658 21.6572
-0.393603 -0.92536 21.5528
0.0867004 -0.381109 21.5433
-0.655669 -0.859954 21.0416
-0.138355 -0.505103 21.1444
-0.0118898 -0.386269 21.3809
0.663002 0.543145 20.0921
0.779523 0.581808 20.7242
0.573583 0.347522 21.2954
0.208674 -0.0740352 21.4789
0.0446343 -0.22204 21.1891
-0.0427133 -0.203214 21.1824
-1.07057 -0.606575 20.0239
-1.44403 -1.90052 18.9414
-1.05018 -1.05042 19.8376
-1.74278 -1.02599 19.3294
-0.670216 -0.505706 19.5741
-2.20435 -1.95624 20.7164
-0.853498 -0.779458 21.4277
0.0803203 -0.210719 19.3624
-0.467206 -0.974643 21.7796
-1.09437 -1.63301 22.2026
0.319801 -0.656099 21.3671
0.0736655 -0.497605 21.5219
0.466839 0.32467 16.2249
0.326975 -0.235381 21.5903
0.344156 -0.627541 17.7097
0.613829 -0.285229 20.5676
0.583714 -0.263457 21.6759
0.80215 0.590928 16.0986
0.744656 0.171164 21.5825
0.604714 -0.177192 15.9911
1.38996 0.53978 19.572
1.21929 -0.0657747 21.334
1.28345 1.54805 15.7727
1.31017 0.707534 21.0274
1.75761 0.0531465 16.6239
1.77795 0.817126 18.7257
1.63388 0.0828286 20.6228
1.68671 1.48198 14.8421
1.38273 0.540927 21.2323
2.22124 -0.281586 17.9881
1.67257 0.637875 18.3493
-1.51138 -0.257664 19.7421
-3.04036 -0.853003 16.8382
-2.36694 0.431848 18.8515
-0.970259 -0.227814 19.2073
-4.66417 -0.589482 20.3637
-1.53337 -0.544367 21.4303
-2.74975 -0.107271 21.6615
-0.58437 -1.65867 19.3425
-0.520504 -0.805304 21.6713
-1.8597 -1.00115 21.2085
-0.022913 -0.247059 15.9519
0.153765 -0.754578 21.5787
-0.314218 -0.397704 19.2012
0.683367 -0.669464 11.9799
0.704185 -0.995927 21.3281
-0.606066 -1.13903 0.042482
-0.224379 -0.485855 18.8047
1.20767 -1.30013 15.6342
0.771722 -0.520002 21.8069
0.94049 -0.177064 5.22279
0.0426235 -1.13813 21.3092
1.31755 -1.75922 17.0085
-1.06623 0.514255 19.9317
-1.36559 1.68055 19.0576
-0.662882 0.73314 19.9822
-0.75014 0.487574 19.4475
-1.69342 1.29356 20.1853
-1.27335 0.508984 20.8122
-1.73141 1.83123 20.5616
-0.813067 0.849113 20.6544
-1.67675 0.832373 21.1234
-0.968487 0.196319 21.4497
-1.67699 1.44994 21.9459
-0.569295 0.492415 21.3284
-0.723917 0.222387 21.7554
-0.285854 -0.1337 21.5427
-0.333077 0.124532 21.7794
-0.174563 0.0231297 21.4815
-0.144123 -0.188115 21.4865
-0.00827954 -0.308134 21.3218
-0.0337255 -0.187995 21.4947
-0.00909844 -0.148804 21.2146
0.0913618 -0.400074 20.9922
0.0614582 -0.46363 21.388
0.107811 -0.356279 20.7264
0.0760751 -0.198337 21.2059
0.00185275 -0.358656 22.0663
1.45473 -1.90852 18.9475
0.00987537 -2.57211 19.0582
-0.0252035 -3.73679 16.2033
-0.00560344 -0.973997 18.8707
0.00350763 -4.9497 23.7336
-0.102033 -0.170417 19.7366
0.0145902 -0.71555 22.596
0.046403 0.431802 13.7635
-0.441973 0.296723 17.2507
0.000424784 0.166556 21.1862
0.00112036 0.385497 14.7686
-0.839819 0.684035 16.4769
0.0595169 0.747479 20.8406
0.275759 1.12216 13.4024
-1.18737 1.91152 15.5267
0.129582 1.60394 19.7066
0.480131 0.362624 3.73908
0.315532 2.4717 13.6979
-1.67007 1.88475 14.8772
0.0952425 2.5655 19.5616
0.25878 2.52581 6.79068
0.0842947 2.19005 14.6034
3.05282 -0.885706 16.6989
-0.0761481 2.72597 13.2012
-0.019561 -0.4459 17.8896
0.204986 -0.658359 1.56433
1.80155 0.00930194 0.429108
-1.34433 2.30066 -2.63894
-1.74874 -0.785236 6.95788
0.0903807 -0.534101 5.26683
-1.44712 2.3557 -2.15727
1.35597 1.74946 18.9913
-0.026217 1.34998 19.643
-0.0245591 1.04643 18.6497
-0.0362862 3.46781 19.7362
1.71804 1.92499 20.5666
-0.023951 1.59766 20.4746
-0.0742416 3.65624 20.3357
1.71401 1.66276 22.0305
-0.040074 1.14102 21.4871
-0.0162572 1.07285 22.2182
0.42514 0.087126 21.8993
0.0124263 0.126838 21.613
0.153922 -0.0436189 21.6821
0.189967 -0.500383 21.5277
0.049619 -0.18937 21.4865
0.1457 -0.397934 21.2933
0.0865357 -0.702992 20.9452
0.0700902 -0.246278 21.4472
0.336311 -0.249844 22.212
1.07847 -0.599237 20.0375
1.06293 -1.03726 19.8508
1.77062 -1.0499 19.3171
0.684556 -0.513512 19.5718
2.19911 -1.89698 20.7186
0.863324 -0.720919 21.4032
0.532737 -0.953505 21.7416
1.14454 -1.542 22.3713
-0.205924 -0.644067 21.6078
0.00986812 -0.459812 21.5069
-0.252983 -0.276424 21.5798
-0.254957 -0.723818 19.7016
-0.458132 -0.403939 21.1163
-0.516574 -0.237107 21.7398
-0.700203 0.125378 21.7918
-0.624841 -0.23515 18.351
-1.46507 0.543909 20.1052
-1.29264 0.0584815 21.3993
-1.3359 0.847243 20.9921
-2.03402 0.279024 17.6851
-1.71698 1.07309 18.8686
-1.68626 0.127539 20.4865
-1.43735 0.703641 21.1419
-2.22313 -0.0313679 18.0738
-1.66568 0.702204 18.2954
1.54443 -0.267094 19.7424
2.4405 0.471831 18.7921
0.978764 -0.236228 19.1767
4.68469 -0.594692 20.3887
1.51128 -0.53839 21.4611
2.77591 -0.146776 21.7165
0.50875 -1.61934 19.757
0.504073 -0.756274 21.6625
1.90423 -1.04028 21.194
0.0855272 -0.42288 17.3025
-0.200246 -0.696752 21.8249
0.331302 -0.463708 19.4251
-1.06755 -0.433173 14.9582
-1.06995 -0.907041 21.4158
-0.434555 -1.00318 19.4136
-1.74644 -0.911305 16.2915
-0.884051 -0.80448 21.4443
-0.415638 -1.30969 20.2674
-1.57794 -1.33015 17.7298
1.12043 0.5599 19.9107
0.674597 0.797474 19.9486
0.755724 0.517897 19.4092
1.75355 1.38718 20.1821
1.34157 0.540372 20.836
0.828291 0.910114 20.6551
1.77591 0.938056 21.1214
1.0389 0.231393 21.5063
0.598466 0.587066 21.3591
0.796011 0.248173 21.8598
0.305089 -0.187026 21.6452
0.191291 0.017827 21.5267
0.177693 -0.37911 21.6286
-0.0178578 -0.489135 21.4026
0.0538447 -0.208465 21.3763
-0.0782339 -0.593304 20.9944
0.0307235 -0.382855 21.7158
0.0180461 -0.226017 21.3948
0.0214325 -0.398335 21.4766
-1.38524 -1.11586 19.5923
-0.575774 -1.26551 22.0391
0.491317 -0.412185 20.8264
0.895731 0.0246783 19.9722
1.69263 0.557057 19.3621
1.74554 0.119186 19.5531
-2.33999 -0.391876 18.8721
-2.02227 -1.13945 22.1484
-0.195666 -1.198 17.5661
0.272744 0.0873272 14.4727
0.570305 -1.09451 14.0442
1.73315 -1.67069 16.6947
-1.31078 0.9911 19.5585
-1.65835 1.00427 20.7584
-1.33959 0.591376 21.6605
-0.343176 -0.0416945 21.6484
-0.0544393 -0.264282 21.371
-0.0349356 -0.418542 22.356
-0.00231464 -3.28317 18.072
0.0332946 0.09497 17.0672
0.0213067 0.275671 13.9634
0.123657 0.713808 13.625
0.295128 1.33098 13.121
0.0629049 2.34149 12.8423
-0.0457376 -1.53353 13.0088
-0.545393 0.624863 -0.299253
-1.92357 2.96041 -4.49404
-0.0427354 2.66488 18.428
-0.0293706 2.88011 20.1842
-0.0558952 2.76835 22.2363
0.0511158 0.327651 21.9283
0.22149 -0.229967 21.5377
0.047119 -0.508604 21.0322
1.40282 -1.11753 19.5982
0.668794 -1.20916 21.9924
-0.346595 -0.501387 21.2765
-0.840281 -0.0526499 20.7827
-1.813 0.729689 19.6597
-1.82764 0.312658 19.7382
2.39315 -0.408276 18.8139
2.02106 -1.1245 22.2856
0.210501 -1.26629 18.3382
-0.395951 0.00858971 16.3582
-1.22873 -0.68771 15.277
-2.10889 -1.05263 16.8949
1.35054 1.0748 19.5053
1.71559 1.0794 20.7733
1.43704 0.652472 21.7177
0.407696 -0.0924163 21.7858
0.0505323 -0.555 21.4777
0.0618949 -0.610546 21.1809
-1.68092 -0.426808 1.26126
0.015624 -0.119944 0.607785
-0.00160537 0.00457024 0.0900096
0.0928057 -0.0990073 0.130582
0 0 0
-6.64628e-05 0.0216874 0.313344
0 0 0
-0.0155443 0.163577 0.426775
-0.45747 0.102678 1.61624
-0.248899 -0.113818 -0.066964
0.185055 0.0870596 0.0963393
0.00472098 0.00620366 0.0932245
-0.0186706 -0.152199 0.786917
1.68594 -0.425749 1.26436
0 0 0
0.00234076 0.0138171 0.0360055
-0.0901265 -0.0319153 0.185626
0.0142011 0.235759 1.02741
0.0165639 0.165416 0.431222
0 0 0
0.461058 0.108659 1.60926
0.117493 -0.105792 0.376891
0.0832992 -0.0174015 -0.0052241
-0.00552586 -0.000842722 0.117384
0.00709316 0.0116177 0.230303
0.000325986 0.000304448 0.0166399
0 0 0
0 0 0
0.00124429 0.00292766 0.0571627
0.00833653 0.000795019 0.112347
0 0 0
0 0 0
-0.423247 -0.0700942 0.58388
-0.00619747 -0.0235039 0.156446
0.000305298 0.00105339 0.00650107
-0.0246743 0.0167329 0.04009
0.00194223 0.00400066 0.0217768
0.00271275 0.00508205 0.0229783
0.000718854 0.00165431 0.00537473
0 0 0
0.00354631 0.0213603 0.348125
-0.000238365 0.000142717 0.00631936
-0.0269813 0.0197645 1.18572
0 0 0
-0.00546325 0.00731049 0.16884
-0.00281522 0.000721477 0.0459395
-0.0850925 0.0101989 1.71794
0.000501123 0.00123857 0.00836727
0.390675 -0.0641978 0.552107
0.0226606 0.0131529 0.0331013
-0.000508275 -0.0221558 0.146881
0 0 0
-0.00202548 0.00340816 0.0232067
0 0 0
-0.00340931 0.00634093 0.0266215
0 0 0
-0.227878 -0.113386 1.13388
-1.35495 -0.422309 0.394832
0.000353281 0.000511176 0.00547648
0 0 0
-1.07817e-05 -0.000214175 0.00284862
0 0 0
0.00083208 -0.00141871 0.0128468
0.0145003 -0.0408433 0.0101385
0.00761054 0.000361581 0.0625263
0.00177266 -0.00400427 0.000475168
6.87151e-05 0.000883686 0.0222653
0 0 0
0 0 0
0.000291642 0.0139929 0.0754741
-0.00658625 -0.0283791 0.152278
-0.0121235 0.00792277 0.0543895
0.0117898 -0.00268268 0.000482523
0.00179134 -0.000443193 0.0147967
0 0 0
0 0 0
1.35173 -0.420239 0.392264
0.22672 -0.113288 1.13084
0 0 0
6.66096e-06 -0.000136366 0.00201858
0.0272542 -0.0149834 0.00435639
-0.00175586 -0.00135866 0.0259285
0 0 0
-0.000486216 0.00407614 0.0606992
0.00698081 0.00369735 0.0293597
0.00696833 -0.0298687 0.161586
0.000291698 -0.000283544 0.0119354
-0.00116468 0.00203908 0.029338
0 0 0
-5.22747e-19 -4.16997e-19 -2.70097e-17
0.00380478 -0.0196977 0.111089
0 0 0
0.000599585 0.00204485 0.0400503
0 0 0
3.28568e-05 0.000853702 0.00491365
-0.00599317 0.0585989 0.446978
0 0 0
4.33627e-19 1.10006e-18 1.01594e-17
0.0213622 0.0601101 0.256525
0 0 0
-0.000706947 0.000941355 0.0113656
0.000270442 0.0211227 0.0509992
4.42503e-05 0.000227749 0.00689259
7.65722e-05 -2.11468e-05 0.00227671
-1.00241e-05 4.58611e-06 0.000310325
0 0 0
-0.00421993 -0.0197197 0.119528
0 0 0
-5.82036e-05 0.00174776 0.00655449
0 0 0
0.00220194 0.00584474 0.0363752
-0.0240997 0.0503359 0.186866
-0.215722 -0.148029 1.03673
-4.04859e-17 -2.29075e-17 1.20757e-16
0.00802844 -0.0182295 0.188915
-0.00700353 -0.0271476 0.0842839
1.42283e-06 4.00758e-06 0.000114523
0.0091039 0.0275222 0.251339
0 0 0
0.0173695 0.0361812 0.171177
0.000235258 0.00181228 0.058117
0 0 0
0.000312071 -0.000180053 0.00175235
0.000923689 -0.00318914 0.121903
0 0 0
0 0 0
0 0 0
0.000214025 0.00162983 0.0303043
0 0 0
-0.000139634 7.57326e-05 0.00396644
0 0 0
-6.47408e-06 1.92163e-06 0.000130692
0 0 0
0 0 0