# vtk DataFile Version 2.0
tri_press
ASCII
DATASET UNSTRUCTURED_GRID
POINTS 3682 float
-0.674906 0.165 -1.895
-0.850346 0.155 1.725
-0.726569 0.505 -1.785
-0.755 0.825 1.82271
0.675 0.165 -1.9015
0.850345 0.155 1.725
0.725 0.495 -1.798
0.755 0.825 1.82273
-0.737645 0.157407 -0.688333
-0.789324 0.160875 0.518333
-0.838854 0.714475 -0.58243
-0.830004 0.802814 0.62014
0.737712 0.157403 -0.692667
0.789037 0.161193 0.516167
0.841749 0.711749 -0.59109
0.830704 0.800704 0.61582
-1.45457 -0.160371 -2.90886
-1.45474 -0.0944958 -1.94371
-1.50774 -0.0986517 -0.737204
-1.55936 -0.12677 0.469308
-1.59894 -0.139893 1.67581
-1.61294 -0.123462 2.64093
-1.61735 -0.091727 3.60601
-1.45284 0.0685255 -2.85613
-1.45614 0.158257 -1.89111
-1.52599 0.181565 -0.685565
-1.57464 0.178597 0.519578
-1.60827 0.173683 1.72514
-1.62283 0.190641 2.69041
-1.62676 0.220747 3.65577
-1.47749 0.489089 -2.74928
-1.50529 0.576348 -1.78316
-1.59945 0.730015 -0.580243
-1.60767 0.805733 0.621531
-1.56853 0.828403 1.82436
-1.60539 0.8411 2.78967
-1.62912 0.861741 3.75553
-1.51295 1.26875 -2.59331
-1.53506 1.3739 -1.6286
-1.58173 1.54692 -0.42537
-1.61097 1.68762 0.776422
-1.61563 1.76154 1.97921
-1.62261 1.79093 2.943
-1.63525 1.81225 3.90786
-0.70781 -0.158131 -2.91253
-0.694906 -0.0879551 -1.94701
-0.732633 -0.10945 -0.739582
-0.769734 -0.141617 0.46819
-0.805562 -0.156413 1.67555
-0.820851 -0.136327 2.64046
-0.825846 -0.101127 3.60523
-0.703737 0.0618717 -2.86014
-0.839513 0.179466 2.68994
-0.838028 0.212444 3.65497
-0.720245 0.455175 -2.75317
-0.82302 0.83657 2.78868
-0.843709 0.857252 3.75446
-0.738377 1.24416 -2.59662
-0.749283 1.3503 -1.63165
-0.78645 1.53762 -0.428029
-0.817173 1.68925 0.774238
-0.82702 1.76466 1.97743
-0.835457 1.79255 2.94138
-0.848113 1.81248 3.90631
0.732783 -0.159688 -2.91943
0.719281 -0.0883362 -1.95308
0.758693 -0.109603 -0.744003
0.805039 -0.141554 0.465676
0.840973 -0.156441 1.67457
0.800998 -0.136484 2.63927
0.773666 -0.101433 3.60351
0.724582 0.0595132 -2.86782
0.781954 0.179345 2.68912
0.759033 0.212151 3.65344
0.744624 0.449805 -2.76289
0.746339 0.836355 2.78778
0.738018 0.856874 3.75285
0.796317 1.2404 -2.6047
0.808081 1.34662 -1.63963
0.809183 1.53505 -0.434647
0.784852 1.6876 0.769601
0.756725 1.76362 1.97432
0.741556 1.79174 2.93875
0.729443 1.81174 3.90371
1.47211 -0.163764 -2.92252
1.46456 -0.096428 -1.95618
1.52144 -0.0997227 -0.74675
1.58542 -0.127253 0.463487
1.62414 -0.140164 1.67267
1.6009 -0.123918 2.63782
1.57275 -0.092434 3.6022
1.46261 0.0638506 -2.87109
1.44832 0.155344 -1.90505
1.52175 0.180087 -0.695933
1.58054 0.177954 0.513849
1.61344 0.173518 1.72285
1.58593 0.190239 2.68787
1.55942 0.220057 3.65225
1.49087 0.480708 -2.76686
1.49936 0.567065 -1.80176
1.59494 0.725706 -0.594132
1.60604 0.803218 0.613947
1.56108 0.827719 1.82159
1.5466 0.840455 2.7869
1.53488 0.860875 3.75183
1.56153 1.26188 -2.60883
1.57939 1.3673 -1.64377
1.5961 1.54212 -0.438099
1.58179 1.68444 0.767195
1.55217 1.75943 1.97271
1.53409 1.78926 2.93744
1.52103 1.81072 3.90243
-0.692639 0.335 -1.8319
4.69983e-05 0.162957 -1.90029
-0.710221 0.157258 -1.29167
-0.826081 0.49 1.79726
-5.06639e-07 0.201989 1.67801
-0.810986 0.166786 1.12167
-0.000784487 0.554028 -1.84553
-0.874543 0.701569 -1.18372
0 0.902725 1.90045
-0.826252 0.847657 1.22143
0.68643 0.33 -1.83618
0.710307 0.157251 -1.29708
0.826356 0.49 1.79755
0.810637 0.16715 1.12058
0.875443 0.695443 -1.19455
0.826761 0.846761 1.21928
-0.761607 0.161019 -0.085
-0.86912 0.435941 -0.635382
3.31857e-05 0.156586 -0.6905
-0.824095 0.481845 0.569237
-0.000143315 0.163775 0.51725
-0.831403 0.755618 0.018855
0.00144736 1.02259 -0.58676
0.000350153 1.05453 0.61798
0.762038 0.160635 -0.08825
0.86976 0.434576 -0.641878
0.824483 0.480948 0.565993
0.833409 0.753409 0.012365
-0.884018 0.385471 -1.23769
0.884043 0.382288 -1.24581
4.0092e-05 0.156499 -1.29438
0.000331439 0.819658 -1.18913
-0.000368744 0.3325 -2.03932
-0.865179 0.458893 -0.0330725
0.865752 0.457762 -0.0379425
-5.50645e-05 0.163756 -0.086625
0.000898758 1.13394 0.01561
-0.890058 0.485922 1.17155
0.890078 0.485474 1.16993
-7.19106e-05 0.176137 1.12113
0.000175076 0.937644 1.22035
-2.5332e-07 0.49 2.05666
-0.649591 0.25 -1.82927
-0.33743 0.163454 -1.89817
-0.690651 0.163042 -1.59333
-0.829897 0.3225 1.75281
-0.425173 0.153236 1.72676
-0.808635 0.182924 1.42333
-0.722788 0.42 -1.82163
-0.363677 0.544155 -1.82991
-0.819997 0.622725 -1.48436
-0.79341 0.6575 1.81286
-0.3775 0.870324 1.86804
-0.805301 0.851004 1.52207
0.337524 0.163448 -1.90143
0.646446 0.2475 -1.83457
0.690746 0.163033 -1.59929
0.425172 0.154197 1.7258
0.829848 0.3225 1.75277
0.809464 0.182102 1.42279
0.362108 0.540203 -1.83745
0.72231 0.4125 -1.83369
0.819334 0.614334 -1.49627
0.3775 0.871238 1.86896
0.793587 0.6575 1.81305
0.805649 0.850649 1.521
-0.72396 0.157306 -0.99
-0.745733 0.163107 -0.386667
-0.868811 0.26396 -0.661858
-0.368277 0.158054 -0.689417
-0.798392 0.165594 0.82
-0.776433 0.159979 0.216667
-0.855478 0.296976 0.543785
-0.393845 0.164101 0.517792
-0.863845 0.715168 -0.883073
-0.868036 0.582233 -0.608906
-0.832527 0.732445 -0.281788
-0.481221 0.993567 -0.584595
-0.829661 0.826769 0.920783
-0.833901 0.645755 0.594688
-0.830527 0.77904 0.319498
-0.471819 1.04265 0.61906
0.724038 0.157298 -0.994875
0.368343 0.158053 -0.691583
0.745795 0.163098 -0.390458
0.868185 0.263765 -0.667273
0.798999 0.16501 0.818375
0.393658 0.164062 0.516708
0.776662 0.159789 0.213958
0.855676 0.296613 0.54108
0.866953 0.711953 -0.892818
0.483992 0.991956 -0.588925
0.868819 0.579695 -0.616484
0.835252 0.730252 -0.289363
0.83028 0.82528 0.917548
0.461755 1.02007 0.6169
0.834213 0.644136 0.590907
0.831588 0.776588 0.314093
-0.83475 0.360235 -1.5348
-0.346504 0.33375 -1.95323
4.35451e-05 0.163575 -1.59733
-0.000160873 0.247728 -1.96849
-0.876133 0.271364 -1.26468
-0.355091 0.155361 -1.29302
-0.887564 0.487961 1.4844
-0.413041 0.49 2.01093
-3.62086e-05 0.188992 1.39957
-3.7998e-07 0.345994 2.00071
-0.868208 0.326354 1.14661
-0.405529 0.154959 1.1214
-0.000226524 0.710534 -1.51733
-0.000576615 0.443264 -1.99058
-0.884204 0.54352 -1.2107
-0.437106 0.769143 -1.18642
8.75382e-05 0.910153 1.5604
-1.2666e-07 0.696363 1.99092
-0.89558 0.66679 1.19649
-0.413038 0.917297 1.22089
0.837786 0.356144 -1.541
0.343031 0.33125 -1.95448
0.86534 0.269769 -1.27145
0.355173 0.15536 -1.29573
0.887569 0.487737 1.48374
0.413178 0.49 2.01159
0.868191 0.326312 1.14526
0.405283 0.154958 1.12085
0.884105 0.538865 -1.22018
0.437887 0.769597 -1.19184
0.895581 0.666118 1.1946
0.413468 0.917351 1.21981
-0.851759 0.290773 -0.0590362
-0.379917 0.164215 -0.0858125
-0.88411 0.410706 -0.936536
-0.867536 0.447417 -0.334227
3.66388e-05 0.156547 -0.992438
-1.09394e-05 0.16364 -0.388563
-0.852077 0.470369 0.268082
-0.872286 0.483884 0.870391
-9.91896e-05 0.163733 0.215313
-0.000107613 0.163879 0.819188
-0.862461 0.614341 -0.00710872
-0.494288 1.10285 0.0172325
0.000889401 0.911827 -0.887945
0.00117306 1.10918 -0.285575
0.000624455 1.12447 0.316795
0.000262615 0.950124 0.919165
0.852578 0.289857 -0.0630962
0.38001 0.164158 -0.0874375
0.88403 0.408432 -0.943846
0.868067 0.446169 -0.33991
0.852296 0.469355 0.264025
0.871878 0.483211 0.867961
0.863036 0.612313 -0.0127888
0.496664 1.10269 0.0139875
-0.820955 0.260682 -1.56406
-0.883392 0.284019 -0.963268
-0.884218 0.559364 -0.909804
-0.847847 0.48176 -1.50958
0.822877 0.258635 -1.57014
0.849517 0.475683 -1.51863
0.884274 0.556014 -0.918332
0.881104 0.28288 -0.969361
-0.34626 0.162448 -1.59533
0.346348 0.162445 -1.59831
0.362023 0.155311 -0.993656
-0.361948 0.155312 -0.991219
-0.400391 0.699801 -1.50084
-0.427905 0.890023 -0.885509
0.429743 0.888051 -0.890381
0.399997 0.697303 -1.5068
-0.341967 0.248864 -1.94282
-0.35509 0.431632 -1.96566
0.352569 0.427882 -1.97049
0.340277 0.247614 -1.94344
-0.855857 0.279581 -0.360447
-0.854474 0.293447 0.242374
-0.853446 0.63268 0.29379
-0.865132 0.598228 -0.308007
0.856407 0.278798 -0.365184
0.865868 0.595974 -0.314637
0.853644 0.630734 0.289059
0.854346 0.293125 0.238992
-0.372789 0.163751 -0.387615
0.372855 0.163749 -0.38951
0.386831 0.164116 0.214635
-0.386878 0.164164 0.21599
-0.501774 1.07625 -0.283681
-0.494777 1.0962 0.318146
0.49638 1.09572 0.315444
0.504488 1.07564 -0.287469
-0.86286 0.323857 0.845196
-0.862361 0.324427 1.45387
-0.892827 0.662145 1.50324
-0.861002 0.65456 0.895587
0.86269 0.323691 0.843168
0.860799 0.653472 0.892754
0.892903 0.661809 1.50237
0.862377 0.324406 1.45327
-0.400131 0.16198 0.819594
0.399865 0.161979 0.818781
0.415227 0.15491 1.41118
-0.415351 0.154911 1.41145
-0.413933 0.939055 0.919974
-0.395269 0.889465 1.54123
0.395484 0.890039 1.5407
0.414498 0.938976 0.918356
-0.419107 0.334247 2.00355
0.419175 0.334247 2.00339
0.395339 0.676931 1.96237
-0.39527 0.676931 1.9623
-0.636334 0.2075 -1.83622
-0.506168 0.163508 -1.8973
-0.683628 0.163171 -1.74417
-0.815803 0.23875 1.71459
-0.63776 0.151388 1.72861
-0.810004 0.188448 1.57417
-0.72655 0.4625 -1.80519
-0.545123 0.533545 -1.81642
-0.778216 0.568796 -1.63468
-0.775267 0.74125 1.81884
-0.56625 0.860529 1.85824
-0.786187 0.844038 1.67239
0.506262 0.1635 -1.90219
0.633546 0.20625 -1.84086
0.683727 0.163163 -1.7504
0.637759 0.152831 1.72717
0.815591 0.23875 1.71438
0.810289 0.188167 1.5739
0.543554 0.527547 -1.82767
0.725378 0.45375 -1.81757
0.777132 0.559632 -1.64714
0.56625 0.860539 1.85827
0.775305 0.74125 1.8189
0.786379 0.843879 1.67187
-0.730805 0.157354 -0.839167
-0.738879 0.163067 -0.5375
-0.864909 0.179843 -0.675096
-0.552491 0.158671 -0.688875
-0.794457 0.162636 0.669167
-0.782492 0.160814 0.3675
-0.849255 0.215498 0.531059
-0.59244 0.160779 0.518063
-0.849047 0.712519 -0.732751
-0.861267 0.652264 -0.595668
-0.835374 0.723143 -0.432109
-0.692275 0.918495 -0.583513
-0.829754 0.814713 0.770461
-0.853479 0.735048 0.607414
-0.830348 0.79101 0.469819
-0.634009 0.88893 0.6196
0.730877 0.157349 -0.843771
0.552557 0.158669 -0.692125
0.738944 0.16306 -0.541563
0.864833 0.179642 -0.67997
0.794433 0.162686 0.667271
0.592243 0.160837 0.516438
0.782807 0.160534 0.365063
[...]
POINT_DATA 3682
SCALARS point_scalars float 1
LOOKUP_TABLE default
27.3513
-49.6767
5.42284
-41.1002
23.3781
-49.8482
7.87236
-41.2482
-39.3168
-27.2932
-52.2312
-38.2402
-38.9722
-27.2786
-52.2634
-37.1527
2.13635
-119.588
-45.7075
-26.8747
-42.2904
-36.2245
-33.3846
2.13635
-102.189
-46.4235
-27.1569
-47.6493
-36.2245
-33.3846
55.6855
-53.4251
-46.2828
-27.8376
-49.6284
-32.7904
-32.7904
27.9272
-57.929
-68.3232
-35.6394
-43.2252
-40.8675
-38.6264
85.6688
-92.9056
-39.635
-27.5368
-45.3146
-33.0816
-31.1395
85.6688
-31.5822
-31.1395
166.191
-30.9953
-30.2441
83.6622
-32.9418
-76.1922
-57.6826
-38.644
-33.7225
-31.2957
87.5908
-96.3471
-40.1474
-27.5062
-45.487
-33.2442
-31.0054
87.5908
-31.7138
-29.5318
165.31
-30.8286
-29.7125
89.6444
-31.1462
-76.4713
-57.1046
-37.553
-33.1713
-30.7816
4.26559
-121.215
-45.2898
-26.9742
-43.1701
-36.3708
-33.4929
4.26559
-101.836
-44.9405
-27.1875
-46.8119
-36.3708
-33.4929
45.0186
-57.9423
-46.7737
-29.8489
-49.7101
-32.7511
-32.7511
8.84156
-59.6367
-68.4615
-35.5774
-42.7637
-38.7675
-37.0905
36.7334
-174.446
-56.2969
-41.763
-36.4831
-34.4105
44.3334
-70.9631
-31.0887
-42.256
37.5248
-56.2419
-41.9202
-34.5664
-71.6539
-42.264
-29.7551
-43.8026
-37.9606
-26.9705
-29.8484
-45.0612
-45.9028
-53.4269
-29.8819
-43.7648
-27.1071
-45.1929
-70.2872
-68.5515
-58.6367
-8.35984
192.565
-35.6493
-35.955
-30.1109
-82.6241
-38.8731
-38.8468
-33.8207
-39.3626
-22.9236
69.4298
-175.679
-76.111
-46.1041
-41.8309
-37.0266
1.23558
48.2675
-40.1574
-39.1627
-33.1328
-45.4049
-165.089
67.2074
-77.3612
-42.1345
-46.2933
-37.5139
51.4938
10.0151
-40.311
-33.2078
-39.3025
-45.5176
-42.9289
-31.6689
-44.6901
-37.8934
-29.4989
-28.6467
-26.7475
-29.1037
-64.0814
-45.3159
-49.2975
-51.6374
-35.4501
-28.2353
-42.1138
-55.0202
-42.5282
-37.6808
-31.515
-44.3578
-29.6996
-29.0345
-28.438
-26.9299
-63.6845
-51.2609
-45.5128
-49.3388
-35.1771
-54.0918
-28.4005
-42.2427
-67.8129
177.89
-82.3123
117.935
-68.449
-58.0827
-44.7723
-29.8701
-35.3068
-23.318
-36.254
-33.4869
-11.927
136.608
-72.9177
-19.6812
-34.7593
-26.3257
-40.0801
-40.1789
-74.0315
181.599
-66.3452
-57.7579
-44.8767
-30.1076
-36.2122
-33.5048
-71.6889
-22.0235
-39.9731
-40.212
-33.3625
-29.8202
-55.7591
-37.2234
-44.9547
-32.2577
-32.8697
-29.055
-29.4579
-31.4665
-38.1384
-71.0363
-15.9327
-88.8501
-68.2273
-45.4121
-33.6096
-29.7327
-55.3747
-37.5045
-32.9955
-29.0319
-38.447
-71.0663
-68.2274
-52.7295
-58.071
-64.6694
-70.0049
-70.028
-57.8224
-51.7599
-81.2324
-80.9296
-44.216
-44.5536
-15.3873
-21.8112
-21.2543
-14.987
135.456
153.923
157.374
172.364
-34.6223
-31.3972
-34.4366
-40.807
-34.9479
-41.0095
-34.5716
-31.4937
-31.9772
-31.8328
-29.0304
-29.1067
-80.4904
-60.5076
-60.7121
-80.1067
-28.0513
-41.352
-48.7686
-27.3581
-28.0293
-27.6373
-48.8352
-41.4792
-30.391
-30.3442
-35.7852
-35.6781
-44.7712
-36.224
-36.2748
-44.8154
-30.3182
-30.4492
-30.2394
-30.1454
55.5758
-108.712
-126.646
-53.2657
-46.8655
-39.718
9.32772
48.2299
-21.775
-39.2047
-35.6674
-44.1174
-107.163
51.004
-130.023
-47.1744
-53.4153
-39.2548
54.6717
7.52654
-21.6013
-35.6695
-39.3513
-44.2394
-40.496
-33.769
-45.3116
-37.6636
-27.8752
-27.704
-27.014
-28.618
-56.4778
-47.391
-50.3689
-73.1335
-36.1627
-31.2627
-39.4834
-46.0771
-40.2367
-37.4058
-33.6853
-45.3421
-27.7344
-28.5691
-27.8447
-27.0322
-56.8922
-72.7359
-47.6154
-51.3995
-35.8729
-46.1481
-31.3021
-39.6299
49.9662
26.4426
-66.0023
155.579
-149.007
-132.296
-109.4
13.4418
-64.9285
-48.8421
-66.1122
-56.8687
-44.1144
-40.234
-47.1398
-31.0483
-38.6572
-38.7803
-35.9267
-28.3895
-35.8279
-32.5614
-34.8903
-33.5972
50.863
51.8582
8.93101
92.7339
-59.3887
-67.8314
-77.8879
-43.6001
-31.5764
-31.5269
-32.6587
-29.0469
-45.1836
-38.7093
-40.9241
-43.1169
50.863
23.1073
-69.2436
158.807
-65.7027
-48.5355
-64.9624
-56.5987
-44.2929
-40.3726
-47.316
-31.087
-35.2589
-32.6461
-34.8132
-33.619
-58.3166
-67.4737
-76.8704
-44.4431
-45.2506
-38.6444
-40.8365
-43.1833
-30.1322
-29.0695
-31.6252
-29.5212
-43.6761
-44.2281
-49.4648
-39.0855
-37.9083
-37.7912
-40.6364
-34.2299
-26.0939
-28.0771
-30.7488
-21.8048
-29.7893
-29.7145
-29.5376
-30.4014
-46.7058
-43.5895
-39.811
-56.3124
-46.4162
-46.0242
-30.9811
-66.4351
-53.0218
-52.9702
-61.3614
-49.0487
-30.571
-29.1945
-31.8043
-29.5011
-43.5079
-44.2496
-48.0686
-39.3789
-26.4072
-28.2037
-30.8452
-22.1893
-47.1108
-43.5873
-40.0874
-56.5569
-70.5869
-69.16
-70.6258
-61.1154
-67.0549
-67.5067
-70.0041
-60.3482
-69.8026
-58.7786
-58.8727
-50.9934
-23.9449
-6.77886
-6.81203
-3.31955
185.791
155.813
201.199
182.11
-34.5099
-36.2478
-34.727
-36.7951
-34.819
-36.5375
-34.9152
-37.1068
-30.0176
-31.0139
-29.6443
-29.9855
-79.86
-87.6692
-75.766
-79.9893
-41.032
-37.4423
-40.0948
-34.4987
-41.089
-37.3996
-40.0248
-34.3755
-34.5736
-33.7309
-33.7621
-33.5942
-36.8947
-39.2918
-39.3175
-42.0999
-25.0911
-23.446
-25.8527
-25.3447
-96.4944
150.992
-110.11
69.9004
-66.5283
-79.3899
-44.4192
-31.224
-37.4896
-33.9354
-39.56
-36.0821
-49.081
153.186
6.62372
98.4074
-58.0122
-22.7834
-48.9283
-31.3145
-33.917
-30.71
-49.1964
-39.7451
-107.932
126.638
-100.149
148.515
-67.4029
-79.2161
-37.7307
-34.0654
-44.7498
-31.2493
-39.7297
-36.2191
7.95434
98.9572
-49.1479
154.179
-57.3395
-22.0929
-33.9597
-30.808
-49.0446
-31.3944
-49.2488
-39.8219
-50.1414
-44.0495
-32.8485
-31.8305
-48.2384
-36.4007
-40.5614
-33.8712
-27.4454
-29.9683
-30.0639
-28.7386
-29.686
-23.7843
-29.0651
-29.8532
-59.7367
-41.0145
-51.1008
-42.389
-43.2316
-64.464
-34.9145
-66.6303
-32.3444
-40.5285
-31.6135
-25.2927
-36.6886
-50.9357
-56.8427
-48.6767
-47.2627
-43.7196
-40.269
-33.6855
-33.1087
-31.6912
-47.8277
-36.6678
-27.5998
-29.9478
-28.9938
-29.8052
-30.1498
-28.6849
-29.7215
-23.7686
-59.4456
-39.3437
-34.7772
-66.6112
-50.7028
-42.5765
-43.3903
-64.3946
-32.2476
-40.5144
-57.133
-48.6491
-31.7988
-25.175
-36.8042
-51.1238
-69.8186
-64.694
166.65
190.726
-82.2378
-83.2262
134.337
133.497
-59.3266
-59.4585
-68.2727
-50.2769
-42.8401
-46.5387
-30.6179
-30.0037
-35.3085
-35.2612
-26.5563
-26.761
-36.9556
-38.8352
-30.6132
-34.4974
-13.1893
-13.1083
140.198
142.645
-63.7386
-76.3955
-39.3382
-13.2273
-35.0447
-35.0758
-28.2017
-28.0782
-43.8139
-33.7198
-42.3283
-38.0675
-73.6858
-72.1807
192.529
171.961
-62.1757
-57.21
-68.0719
-49.9165
-46.6458
-42.9673
-30.864
-30.1033
-37.0777
-38.8713
-30.5686
-34.5339
-74.4204
-63.4145
-12.6442
-35.8247
-33.5877
-43.876
-38.1046
-42.3719
-33.9736
-32.2686
-30.6497
-29.3366
-53.863
-57.4168
-35.7666
-38.7827
-44.7686
-44.8327
-32.1498
-32.1154
-32.303
-33.6753
-28.4948
-26.4323
-29.3334
-29.3646
-30.9897
-30.9173
-36.4828
-39.4887
-77.1383
-65.1355
-16.9039
-16.6389
-85.5312
-85.6238
-66.9441
-66.9597
-44.995
-45.0539
-34.2839
-32.5238
-30.5434
-29.2541
-56.6234
-53.7677
-36.0658
-39.0279
-33.8137
-32.3953
-28.3925
-26.137
-39.7321
-36.6632
-65.3271
-77.3327
-116.163
-64.0762
-64.0344
-79.0657
-42.0816
-48.8454
-60.9348
-55.0349
-52.7877
-66.4999
-62.4435
-49.747
-39.4913
-55.9699
-73.1823
-76.6374
-118.716
-83.4514
-62.798
-67.0844
-40.6638
-76.2771
-68.8587
-57.5924
-52.8073
-49.0481
-62.0083
-66.2617
-42.4638
-54.1404
-59.8265
-47.4923
-112.708
-108.681
-69.2582
-66.4768
-111.789
-66.3981
-69.5952
-110.019
-40.145
-40.5659
-50.7331
-49.0809
-40.4379
-49.4177
-50.7576
-40.6407
2.43985
-38.6346
-29.658
8.07236
-70.925
-31.9042
-6.00418
-33.584
-70.9965
-33.305
-5.86505
-31.7512
4.59388
8.15166
-29.6493
-38.1176
119.759
152.945
135.336
43.0038
100.937
96.8091
192.878
156.946
105.551
159.342
192.851
97.7687
117.803
53.8522
131.161
153.324
-34.5924
-32.0573
-34.9912
-37.7702
-28.1517
-30.39
-33.8583
-30.8326
-33.801
-38.498
-35.6364
-31.4212
-45.1487
-40.4929
-37.6356
-41.7082
-34.6498
-38.0932
-35.2936
-32.3359
-45.1947
-41.9245
-37.8973
-40.7475
-34.0055
-31.5656
-35.7727
-38.5768
-28.2314
-31.0186
-34.0565
-30.4182
-33.5509
-34.1342
-30.8586
-30.319
-33.4327
-30.3569
-30.8235
-34.0933
-28.5305
-29.3929
-29.5283
-28.9894
-28.5658
-29.0267
-29.5582
-29.4177
-68.8334
-59.924
-85.7278
-66.2756
-48.8477
-60.9572
-73.5988
-53.2531
-49.0556
-53.4352
-73.6844
-61.0521
-68.8324
-65.9621
-85.7674
-60.0112
-27.1149
-38.9443
-35.2362
-20.784
-43.3707
-45.4528
-39.9324
-37.4274
-46.1653
-46.3829
-42.4767
-48.771
-30.0922
-23.8629
-33.4496
-36.0349
-26.9907
-20.8333
-35.0737
-36.6374
-29.8947
-35.9087
-33.3575
-24.0697
-46.3094
-48.8982
-42.5197
-46.4759
-43.4969
-37.3964
-39.9832
-45.7189
-29.0335
-30.1592
-31.7681
-30.2506
-28.9963
-30.2713
-31.796
-30.1838
-38.7815
-36.2128
-34.4865
-34.7369
-38.4513
-34.7235
-34.4628
-36.1219
-43.5903
-42.3335
-41.8539
-48.9175
-37.6844
-32.8371
-37.0089
-41.5352
-37.7766
-41.5856
-37.0372
-32.9526
-43.4613
-48.8974
-41.8802
-42.1975
-36.4771
-30.6457
-25.6317
-31.0911
-36.4622
-31.1005
-25.8511
-30.7383
-32.1069
-29.4175
-27.5173
-31.2
-32.021
-31.1712
-27.3552
-29.3447
24.3153
-43.9989
-130.597
-51.9915
-51.5242
-38.5076
8.28786
55.4353
-13.4958
-40.8581
-37.9872
-41.821
-30.5702
21.9081
-108.607
-51.8388
-52.228
-39.4021
55.4084
8.22168
-10.5411
-38.1149
-41.014
-41.9388
-40.0936
-36.4602
-42.9365
-38.0143
-27.7586
-27.2841
-26.8653
-28.3204
-54.137
-49.5282
-51.1959
-60.016
-37.0848
-33.889
-38.0425
-44.9465
-39.8299
-37.7641
-36.2693
-41.9142
-27.6865
-28.2847
-27.4008
-26.8288
-54.6311
-59.9076
-49.5396
-51.2026
-37.1546
-44.9852
-34.0138
-38.4992
45.7875
29.5626
-59.6106
122.473
-171.869
-168.693
-132.456
49.2131
-60.7057
-52.2485
-64.4449
-56.1214
-42.7027
-40.9227
-47.3057
-32.9386
-37.3614
-37.4081
-36.2276
-30.3009
-35.2797
-34.2723
-34.7566
-33.906
47.0932
47.2156
28.1667
64.8753
-69.9352
-70.2801
-77.4836
-56.9585
-31.4937
-31.52
-31.6226
-30.2551
-43.591
-40.4268
-41.417
-43.5543
44.1314
29.7469
-57.0613
122.786
-60.9276
-52.0449
-63.005
-56.095
-42.8793
-41.0783
-47.4891
-33.0359
-35.6585
-34.3562
-34.7451
-33.9634
-69.6096
-71.5845
-77.0873
-57.0368
-43.5945
-40.4147
-41.3729
-43.6363
-29.8077
-29.1254
-30.7013
-29.5095
-43.6936
-43.9351
-46.4654
-40.9027
-37.9854
-37.9264
-39.1263
-36.1135
-26.3722
-27.4809
-29.1061
-24.6231
-29.8388
-29.8174
-29.6581
-30.1049
-45.2604
-44.4297
-42.1363
-51.4293
-45.8979
-45.7564
-38.393
-55.69
-53.4733
-53.4979
-58.188
-49.5614
-30.1715
-29.3542
-30.8957
-29.5643
-43.5741
-43.9095
-46.3539
-41.1347
-26.5757
-27.5992
-29.2642
-24.6718
-45.4656
-44.3879
-42.2013
-51.5291
-77.5044
-69.8875
-70.6622
-66.1663
-71.8999
-68.4069
-69.7295
-65.9859
-64.088
-59.0824
-59.1767
-54.6272
-10.3746
-6.252
-7.12759
-9.69841
189.411
180.297
199.009
189.405
-35.0294
-35.8971
-35.1072
-36.2035
-35.3317
-36.1953
-35.3703
-36.5347
-30.0992
-30.5093
-29.8364
-30.0904
-81.6076
-85.1925
-79.4169
-81.5988
-39.9968
-38.1422
-39.5342
-36.8416
-40.03
-38.0224
-39.5223
-36.8609
-34.2049
-33.8762
-33.8885
-34.0432
-38.0838
-39.3164
-39.3287
-40.61
-23.6622
-23.3262
-23.7209
-23.821
71.5149
56.2943
-65.9097
116.156
-127.768
-160.802
-139.826
46.4233
-93.0758
-68.4344
-71.0525
-77.7462
-48.5382
-45.2261
-47.4842
-34.3094
-43.5248
-40.7892
-38.9027
-37.8504
-38.1969
-37.5768
-38.4072
-35.8758
4.87456
13.5503
-43.346
120.392
48.5374
48.1547
23.8297
72.1816
-30.5614
-53.7155
-52.2355
-26.8427
-38.9562
-39.4838
-44.1827
-33.3062
-34.0673
-32.1163
-33.4021
-31.5542
-44.3977
-45.7452
-47.3442
-42.4424
-123.178
-124.868
-133.273
79.3768
53.845
57.5162
-60.1253
124.006
-95.0993
-69.6498
-71.0911
-78.567
-43.8323
-41.1278
-39.2657
-38.1514
-48.6856
-45.4066
-47.729
-34.4317
-38.3867
-36.9735
-38.6831
-36.1008
53.0198
51.1727
25.1041
76.939
6.99013
18.9982
-39.2899
126.103
-31.2081
-52.775
-51.701
-25.8123
-34.1813
-32.1766
-33.4328
-31.6556
-39.0912
-39.6325
-44.3449
-33.4414
-44.4904
-45.8282
-47.4447
-42.5207
-41.6868
-45.7614
-46.0857
-43.6434
-32.5495
-30.8879
-32.1053
-31.7833
-45.7094
-43.9038
-46.627
-39.3749
-37.8875
-37.8521
-39.1606
-35.768
-29.5569
-30.1574
-28.0653
-29.7759
-27.9626
-28.4312
-29.0431
-28.6051
-26.9576
-26.3382
-28.3876
-24.9444
-28.7822
-29.5248
-29.1016
-29.4007
-59.9992
-66.4249
-61.8831
-69.0056
-46.1449
-44.6844
-47.9613
-43.7121
-50.3202
-47.833
-46.2334
-56.4348
-60.7001
-48.2344
-44.0355
-59.3734
-35.5643
-36.8172
-33.9533
-36.9717
-29.5253
-28.4111
-30.1103
-26.5133
-40.7238
-43.1521
-38.7648
-47.0618
-48.9676
-52.8934
-56.5587
-51.5999
-41.4814
-45.3076
-44.0243
-43.3478
-37.6494
-37.6704
-38.9185
-35.5782
-32.5003
-30.7825
-32.2697
-31.6724
-45.1579
-43.6738
-45.0176
-39.3353
-29.4033
-30.2922
-28.3078
-29.825
-28.7134
-29.4613
-29.0291
-29.3409
-28.0758
-28.3988
-29.0295
-28.552
-27.0278
-26.7462
-28.4816
-25.0624
-60.0076
-65.5548
-61.5111
-67.4038
-59.6989
-47.786
-44.0292
-59.0123
-46.2831
-44.8735
-48.0458
-43.9617
-50.1564
-48.0829
-46.437
-55.9109
-35.4451
-36.5248
-33.8976
-36.8028
-49.4806
-52.5388
-57.1507
-50.832
-29.6163
-28.4958
-30.2707
-26.6158
-40.7863
-43.1758
-38.7756
-47.2502
-63.0388
-59.4491
-68.971
-66.1358
170.153
194.424
172.58
183.536
-92.77
-75.325
-82.4883
-82.9974
100.656
133.277
120.751
118.26
-67.3023
-68.7209
-72.9721
-62.5469
-57.5527
-58.4016
-62.7549
-53.8889
-45.4412
-42.4027
-43.5793
-45.7755
-30.5879
-27.9165
-30.1975
-29.5177
-35.6249
-34.9515
-35.453
-35.4338
-24.7426
-23.0544
-24.0872
-24.2108
-35.5534
-36.9661
-37.0305
-37.5028
-33.5029
-33.5452
-31.8529
-33.9484
-4.43816
-20.4172
-12.7736
-12.3596
115.598
165.16
138.495
139.885
-74.9364
-71.1228
-68.881
-76.6088
-30.9439
-11.5301
-30.7741
-14.0876
-33.7961
-35.8069
-34.8341
-34.8602
-27.6239
-26.8832
-27.0612
-26.9751
-39.8485
-40.8447
-42.3625
-36.6382
-42.061
-39.4216
-41.1898
-38.9932
-67.0067
-67.5378
-73.9858
-73.4751
172.525
198.868
186.62
177.451
-65.894
-66.5262
-73.4333
-60.6074
-57.1328
-58.3278
-62.4756
-53.5284
-45.577
-42.4864
-45.8735
-43.7096
-30.6811
-28.1343
-30.5085
-29.6501
-35.4915
-36.9458
-37.248
-37.4937
-33.5197
-33.5619
-31.8331
-33.9732
-73.3457
-70.7035
-73.5132
-68.9423
-31.3044
-11.9513
-14.4397
-31.3931
-39.8049
-40.6947
-36.4055
-42.358
-42.0977
-39.4544
-39.0311
-41.2199
-32.6803
-33.9454
-33.6644
-32.8264
-29.6924
-29.9345
-30.22
-29.5441
-53.2725
-57.813
-54.5686
-56.6083
-37.9462
-36.7084
-36.4655
-37.9537
-42.7497
-48.157
-44.9732
-44.9727
-33.1454
-31.5744
-32.2647
-32.2584
-31.8013
-34.0134
-32.5292
-33.2236
-21.3905
-31.0146
-28.8443
-27.265
-29.4481
-29.5124
-29.4346
-29.4453
-30.7878
-32.185
-31.3161
-31.2847
-38.8142
-37.4973
-37.3771
-38.8818
-63.3742
-76.9268
-73.1927
-67.4847
-22.8899
-9.46544
-16.265
-16.1993
-79.3811
-89.5799
-87.8958
-87.9656
-64.8666
-71.8026
-67.9291
-67.994
-47.2261
-43.687
-45.3016
-45.2971
-32.9006
-34.2418
-33.9311
-33.1621
-29.6187
-29.8686
-30.1249
-29.4646
-52.1081
-56.7267
-55.9366
-54.371
-38.2413
-37.0132
-36.7525
-38.2136
-31.9081
-34.1362
-33.348
-32.6443
-21.5021
-30.7224
-28.7651
-27.0634
-39.0899
-37.7982
-39.1741
-37.5937
-63.6489
-77.0625
-67.5018
-73.2991
-72.3316
-67.3425
-69.1041
-61.3701
-51.7353
-51.4147
-55.0061
-53.4762
-58.8542
-54.2603
-60.4528
-57.5557
-52.7151
-61.5762
-64.7083
-71.9319
-75.4456
-68.5155
-72.1823
-65.1445
-55.0237
-64.2578
-71.261
-74.7075
-58.5946
-54.0343
-60.0047
-57.1793
-49.7804
-51.3201
-53.1436
-52.8563
-92.8438
-80.8612
-81.3346
-73.8038
-91.9499
-79.8107
-82.297
-73.6345
-43.9586
-42.1004
-46.856
-44.4984
-44.3337
-42.4106
-47.2152
-44.7005
-5.76176
-19.2873
-14.6589
-25.8119
-27.2966
-27.8811
-15.6582
-18.4903
-26.2686
-27.4789
-15.3168
-18.097
-5.8844
-18.4055
-14.4993
-25.9838
138.826
116.545
152.288
142.348
154.239
112.707
179.235
141.431
114.192
158.4
143.137
180.581
167.213
149.353
118.045
170.587
-34.0657
-35.3995
-34.3786
-35.1668
-30.7834
-30.3803
-31.5176
-32.2542
-33.502
-35.2317
-34.0446
-35.6755
-41.5283
-41.9974
-39.7421
-40.0658
-34.411
-35.7243
-34.6754
-35.4736
-41.7109
-42.1666
-39.9638
-40.3077
-33.649
-35.2683
-34.1737
-35.6845
-30.9051
-30.4364
-31.6282
-32.3424
-31.8885
-32.7672
-31.3072
-32.085
-32.6004
-31.7395
-31.9885
-31.1796
-28.966
-28.8734
-29.1936
-29.0952
-28.9485
-29.0405
-29.175
-29.2514
-77.692
-73.5154
-79.7422
-82.6658
-55.1053
-58.8373
-62.9524
-64.9214
-59.0459
-55.2646
-65.0021
-63.3183
-72.9332
-77.5361
-82.2671
-80.0077
-27.9446
-26.6803
-30.1641
-28.1609
-43.2757
-40.4825
-42.3199
-39.9289
-49.92
-50.1144
-47.3509
-46.1459
-29.7733
-22.3863
-32.4801
-25.4875
-27.9456
-26.6535
-29.8914
-28.0893
-29.8712
-21.7043
-32.3963
-25.0909
-50.041
-50.176
-47.4588
-46.2006
-43.4484
-40.602
-42.4456
-40.019
-30.1787
-30.1226
-30.6265
-30.6604
-30.1352
-30.0785
-30.5825
-30.6135
-36.6525
-36.0503
-35.4585
-35.1233
-36.4842
-35.9215
-35.3831
-35.05
-45.1983
-46.5009
-43.5587
-44.7072
-35.0696
-37.6714
-35.5761
-37.1406
-35.1245
-37.7336
-35.6157
-37.1709
-45.8498
-46.5396
-43.5911
-44.7185
-31.1035
-31.492
-30.573
-28.5126
-31.6218
-31.214
-28.7266
-30.6977
-30.2491
-30.8076
-29.2054
-30.4276
-30.7141
-30.1425
-30.3469
-29.081
-90.5385
110.646
-156.947
94.9462
-122.096
-115.376
-47.2419
-38.6947
-40.9783
-40.8507
-41.6573
-37.4471
-31.0994
82.7448
29.6971
77.7612
-33.17
-4.13259
-42.9412
-34.1857
-36.3745
-33.4628
-44.8502
-40.0863
-156.235
68.1441
-82.89
103.022
-124.364
-116.905
-41.5062
-40.9951
-47.8272
-38.8804
-41.3735
-37.7959
31.1225
80.5515
-24.3496
84.252
-33.1405
-2.37202
-36.4768
-33.581
-43.0821
-34.2944
-45.0134
-40.2019
-39.7516
-40.3268
-33.8176
-33.6108
-45.658
-40.5182
-38.6597
-35.6204
-27.6655
-28.5836
-27.7078
-28.2569
-27.4988
-26.8365
-28.5494
-28.8476
-54.2484
-66.8215
-49.5677
-46.2042
-47.6603
-58.2639
-76.5446
-72.6756
-32.2676
-42.8819
-32.2651
-30.6838
-36.5118
-46.2924
-47.5285
-44.7676
-39.6913
-40.082
-38.3985
-35.3003
-33.8153
-33.5651
-45.876
-40.8781
-27.4877
-28.5352
-28.5058
-28.8241
-27.8403
-28.2771
-27.549
-26.876
-54.3993
-66.2936
-76.7629
-72.6545
-49.8503
-46.368
-47.0495
-58.3354
-32.2338
-42.8799
-47.6887
-44.6648
-32.5196
-30.4215
-36.6576
-46.3651
-64.8333
114.702
-53.3414
120.844
-72.6821
-61.0631
154.633
155.804
-137.133
82.0678
-140.208
83.8361
-107.858
-108.514
72.4819
76.0933
-68.1467
-64.7016
-52.7396
-48.8282
-69.4939
-59.2765
-61.3682
-52.8646
-47.6959
-33.352
-47.3502
-32.7463
-46.3838
-47.9033
-30.9384
-31.0988
-36.5272
-33.9062
-36.6787
-33.9387
-36.1015
-36.0674
-29.4941
-29.5617
-36.4498
-34.9979
-30.9415
-30.1357
-39.1602
-36.2561
-31.8139
-34.0926
23.8878
65.3371
25.4188
66.9569
9.12589
9.32982
95.0116
95.2821
-70.2448
-43.3512
-68.3535
-57.7936
-72.3682
-80.1013
-44.1935
-38.5321
-32.0573
-30.3998
-32.0787
-30.4607
-32.7217
-32.7428
-29.0854
-29.0418
-46.3053
-43.5069
-36.9555
-41.6261
-43.1894
-38.4326
-43.4053
-42.1095
-61.8064
116.807
-49.7418
122.56
-76.5239
-63.4897
159.014
156.838
-70.6394
-65.3039
-52.6447
-48.6032
-70.9794
-58.1739
-61.1519
-52.5391
-47.9155
-33.5216
-47.4776
-32.9606
-48.0536
-46.6044
-31.107
-31.1604
-36.153
-34.8404
-36.4412
-30.1963
-39.5
-36.2029
-31.8539
-34.0931
-72.1409
-41.8281
-67.5229
-58.3211
-76.766
-72.5559
-38.738
-44.7593
-46.3741
-43.5628
-36.8411
-41.556
-38.2831
-43.1766
-42.1731
-43.4817
-31.0776
-30.3119
-29.8083
-28.9502
-31.9093
-31.1582
-29.8902
-29.1455
-46.1314
-40.1358
-47.0196
-42.0988
-49.3731
-49.4058
-38.3687
-39.7239
-38.946
-36.1183
-38.8691
-36.0325
-40.7421
-40.7589
-34.1963
-34.1956
-28.6199
-22.9119
-29.7307
-26.1196
-30.424
-31.0594
-21.8982
-22.7629
-29.5494
-30.0866
-29.5258
-29.9979
-29.5048
-29.5169
-30.3326
-30.3439
-43.9189
-53.2886
-40.4064
-49.0958
-39.3271
-40.6558
-58.0716
-54.6378
-39.3676
-55.4962
-39.1011
-55.0055
-31.2595
-30.8103
-66.5066
-66.4087
-58.3019
-49.7974
-58.3473
-49.7587
-61.3035
-61.307
-48.9938
-48.9802
-31.3688
-30.4829
-29.9922
-28.954
-32.1201
-31.4212
-29.9408
-29.1348
-45.6484
-40.2813
-46.8779
-42.3259
-48.5045
-47.9734
-38.6715
-39.9949
-28.5795
-23.0035
-29.8871
-26.2014
-31.1631
-30.5164
-22.1131
-23.0486
-44.2802
-53.6044
-40.3441
-49.3554
-40.936
-39.3247
-54.8521
-58.271
-69.3857
-70.9237
-76.9213
-65.3059
-67.2841
-76.5972
-61.0269
-61.6563
-65.8795
-67.8938
-73.1517
-64.166
-73.0395
-66.9339
-61.3122
-60.2632
-69.6223
-69.8407
-63.6018
-54.4584
-63.7871
-54.4775
-51.0087
-50.9812
-25.8029
-25.8007
-17.7396
-5.29273
-4.95123
-17.8647
-4.3193
-4.18221
160.906
197.668
138.402
138.253
202.135