# vtk DataFile Version 2.0
tet_velo
ASCII
DATASET UNSTRUCTURED_GRID
POINTS 29498 float
-0.695 0.155 -1.85155
-0.729988 0.245 1.875
-0.755 0.525 -1.86408
-0.777149 0.805 1.775
0.706477 0.155 -1.845
0.697403 0.245 1.885
0.768988 0.525 -1.855
0.755 0.806857 1.775
-0.736411 0.155251 -0.609367
-0.771701 0.161624 0.632817
-0.85963 0.71558 -0.651053
-0.853176 0.795076 0.561973
0.733215 0.155238 -0.601667
0.753792 0.161635 0.641667
0.861608 0.716235 -0.645
0.839199 0.792441 0.565
-1.48203 -0.173899 -2.81281
-1.48526 -0.110865 -1.8314
-1.52009 -0.107452 -0.588093
-1.54347 -0.113912 0.66159
-1.52272 -0.0608969 1.90545
-1.51901 -0.0124547 2.88954
-1.52764 0.0324799 3.86882
-1.48102 0.0635377 -2.82988
-1.49003 0.147288 -1.85186
-1.53786 0.173808 -0.614435
-1.55565 0.176801 0.62595
-1.51205 0.229382 1.86395
-1.51023 0.277015 2.84734
-1.52298 0.321335 3.82748
-1.50803 0.50418 -2.85539
-1.54748 0.585389 -1.87618
-1.62921 0.725146 -0.658769
-1.6256 0.786961 0.556891
-1.55791 0.809689 1.77472
-1.53529 0.854284 2.7578
-1.5364 0.900555 3.74187
-1.53442 1.28517 -2.91645
-1.56282 1.38128 -1.94159
-1.60826 1.53144 -0.734848
-1.63037 1.64515 0.465504
-1.61688 1.70427 1.67229
-1.5961 1.74023 2.64727
-1.58155 1.77889 3.62842
-0.718763 -0.170374 -2.8114
-0.714988 -0.104106 -1.83096
-0.742173 -0.116001 -0.584409
-0.772559 -0.125162 0.668692
-0.76271 -0.055757 1.91539
-0.756576 -0.00907534 2.89705
-0.76164 0.0332081 3.87429
-0.711923 0.0600603 -2.82698
-0.742093 0.281548 2.85347
-0.754583 0.322316 3.83204
-0.729021 0.478034 -2.84796
-0.758468 0.853922 2.75906
-0.761967 0.900345 3.7439
-0.743327 1.26724 -2.90937
-0.762185 1.36438 -1.93428
-0.802109 1.52675 -0.729539
-0.831368 1.64848 0.467596
-0.829142 1.70647 1.67229
-0.812744 1.74082 2.64726
-0.800408 1.77898 3.6291
0.760492 -0.170372 -2.80454
0.733729 -0.104111 -1.82418
0.745727 -0.116057 -0.576971
0.745868 -0.125212 0.676942
0.709672 -0.0557205 1.92412
0.735826 -0.00886767 2.90423
0.753849 0.0334284 3.88051
0.763032 0.060072 -2.81995
0.745462 0.281931 2.86013
0.761549 0.322632 3.83784
0.790497 0.478059 -2.84027
0.766015 0.854762 2.76261
0.770188 0.900771 3.74857
0.829947 1.26722 -2.90254
0.832798 1.36434 -1.92767
0.822431 1.52649 -0.72381
0.788997 1.64791 0.472147
0.760751 1.7063 1.67612
0.757624 1.74091 2.65125
0.760529 1.7791 3.63354
1.51437 -0.173899 -2.79913
1.4933 -0.110858 -1.81779
1.51352 -0.107691 -0.574039
1.51852 -0.114212 0.676213
1.48314 -0.0606905 1.92023
1.49609 -0.0120656 2.9029
1.51516 0.0328549 3.88102
1.51723 0.063578 -2.81597
1.49311 0.147409 -1.83825
1.52803 0.173542 -0.600751
1.53739 0.176233 0.639657
1.48669 0.229959 1.87761
1.50325 0.277687 2.85964
1.52227 0.32186 3.83896
1.55544 0.504252 -2.8408
1.55833 0.585614 -1.86151
1.62478 0.725027 -0.646581
1.60955 0.784945 0.565899
1.53748 0.81083 1.78141
1.53104 0.855382 2.76615
1.5366 0.901223 3.7515
1.61212 1.2851 -2.903
1.62081 1.38115 -1.92859
1.62215 1.5309 -0.723362
1.59345 1.64419 0.475016
1.55757 1.7039 1.68059
1.54471 1.7403 2.65573
1.5416 1.77906 3.63756
-0.736691 0.34 -1.86951
0.0057385 0.151466 -1.85181
-0.739263 0.131569 -1.23046
-0.783934 0.525 1.85537
-0.0162925 0.233596 1.8914
-0.768986 0.18517 1.25391
0.00699401 0.676101 -2.01064
-0.871779 0.684754 -1.25757
-0.0110745 0.933607 1.90268
-0.837351 0.822227 1.16849
0.748643 0.34 -1.86091
0.743723 0.131242 -1.22333
0.757056 0.525928 1.86085
0.745878 0.183037 1.26333
0.8752 0.680519 -1.25
0.817755 0.820304 1.17
-0.751484 0.16101 0.011725
-0.875859 0.435416 -0.63021
-0.0015983 0.152495 -0.605517
-0.889056 0.47835 0.597395
-0.00895444 0.159628 0.637242
-0.862971 0.761897 -0.04454
0.000988844 1.08117 -0.648027
-0.00698844 1.30907 0.563487
0.74093 0.16101 0.02
0.877752 0.435736 -0.623333
0.873072 0.477038 0.603333
0.855902 0.759836 -0.04
-0.895674 0.387708 -1.24401
-0.883519 0.456883 -0.0164075
-0.874287 0.501675 1.2112
0.0020701 0.120032 -1.2269
-0.00527637 0.159497 0.0158625
-0.0126235 0.172485 1.25862
0.00636625 0.34 -2.10459
-0.0136835 0.525464 1.9874
0.00399143 0.876714 -1.25378
-0.0029998 1.28311 -0.04227
-0.00903148 1.27484 1.16924
0.879964 0.387868 -1.23667
0.875942 0.456387 -0.01
0.893681 0.501483 1.21667
-1.09251 0.151144 -1.8517
-0.704994 0.0254472 -1.84126
-0.703462 0.10753 -2.33927
-1.12102 0.237191 1.86947
-0.746349 0.0946215 1.89519
-0.736041 0.263274 2.36424
-1.15124 0.555195 -1.87013
-0.74201 0.501517 -2.35602
-0.758592 0.944688 -1.89918
-1.16753 0.807345 1.77486
-0.767809 0.829461 2.26703
-0.803146 1.25574 1.72364
0.720103 0.0254444 -1.83459
0.734754 0.107536 -2.33247
1.09979 0.151204 -1.84163
0.703538 0.0946398 1.90456
0.721432 0.263465 2.37256
1.09205 0.237479 1.88131
0.779742 0.501529 -2.34763
0.800893 0.94467 -1.89133
1.16366 0.555307 -1.85825
0.760507 0.83081 2.2688
0.757875 1.25658 1.72556
1.14624 0.808844 1.7782
-1.13713 0.16453 -0.611901
-0.739292 0.0196254 -0.596888
-1.16368 0.169212 0.629383
-0.77213 0.0182311 0.650755
-1.24442 0.720363 -0.654911
-0.83087 1.12117 -0.690296
-1.23939 0.791019 0.559432
-0.842272 1.22178 0.514785
0.739471 0.0195903 -0.589319
1.13062 0.16439 -0.601209
0.74983 0.0182115 0.659304
1.14559 0.168934 0.640662
0.842019 1.12136 -0.684405
1.24319 0.720631 -0.645791
0.814098 1.22018 0.518574
1.22438 0.788693 0.56545
-1.48364 -0.142382 -2.32211
-1.48152 -0.0551805 -2.82135
-1.1004 -0.172136 -2.81211
-1.50267 -0.109159 -1.20975
-1.48764 0.0182112 -1.84163
-1.10012 -0.107485 -1.83118
-1.53178 -0.110682 0.0367488
-1.52897 0.0331782 -0.601264
-1.13113 -0.111726 -0.586251
-1.53309 -0.0874046 1.28352
-1.54956 0.0314443 0.64377
-1.15801 -0.119537 0.665141
-1.52087 -0.0366758 2.3975
-1.51739 0.0842424 1.8847
-1.14272 -0.058327 1.91042
-1.52332 0.0100126 3.37918
-1.51462 0.13228 2.86844
-1.13779 -0.010765 2.89329
-1.52531 0.176907 3.84815
-1.14464 0.032844 3.87156
-1.48552 0.105413 -2.34087
-1.49452 0.283859 -2.84264
-1.09647 0.061799 -2.82843
-1.51394 0.160548 -1.23315
-1.51875 0.366339 -1.86402
-1.54675 0.175304 0.00575729
-1.58353 0.449477 -0.636602
-1.53385 0.203091 1.24495
-1.59063 0.481881 0.59142
-1.51114 0.253198 2.35564
-1.53498 0.519535 1.81933
-1.5166 0.299175 3.33741
-1.52276 0.565649 2.80257
-1.12616 0.279281 2.8504
-1.52969 0.610945 3.78467
-1.13878 0.321825 3.82976
-1.52775 0.544785 -2.36578
-1.52123 0.894677 -2.88592
-1.11852 0.491107 -2.85167
-1.58835 0.655268 -1.26748
-1.55515 0.983334 -1.90888
-1.62741 0.756054 -0.0509387
-1.61873 1.12829 -0.696808
-1.59175 0.798325 1.1658
-1.62799 1.21606 0.511198
-1.5466 0.831986 2.26626
-1.58739 1.25698 1.72351
-1.53585 0.877419 3.24983
-1.5657 1.29726 2.70253
-1.14688 0.854103 2.75843
-1.55898 1.33972 3.68514
-1.14918 0.90045 3.74288
-1.54862 1.33323 -2.42902
-1.13887 1.27621 -2.91291
-1.58554 1.45636 -1.33822
-1.1625 1.37283 -1.93794
-1.61931 1.58829 -0.134672
-1.20518 1.52909 -0.732193
-1.62363 1.67471 1.0689
-1.23087 1.64682 0.46655
-1.60649 1.72225 2.15978
-1.22301 1.70537 1.67229
-1.58883 1.75956 3.13784
-1.20442 1.74053 2.64726
-1.19098 1.77893 3.62876
-0.716876 -0.13724 -2.32118
-0.715343 -0.0551567 -2.81919
0.0208642 -0.170373 -2.80797
-0.728581 -0.110053 -1.20769
0.00937038 -0.104108 -1.82757
-0.757366 -0.120581 0.0421415
0.00177702 -0.116029 -0.58069
-0.767635 -0.0904595 1.29204
-0.0133453 -0.125187 0.672817
-0.759643 -0.0324162 2.40622
-0.0265192 -0.0557388 1.91976
-0.759108 0.0120664 3.38567
-0.749335 0.136236 2.87526
-0.0103748 -0.0089715 2.90064
-0.758112 0.177762 3.85316
-0.00389583 0.0333183 3.8774
-0.720472 0.269047 -2.83747
0.0255542 0.0600662 -2.82346
-0.748338 0.301932 3.34275
-0.750281 0.567735 2.80627
0.00168441 0.281739 2.8568
-0.758275 0.61133 3.78797
0.00348318 0.322474 3.83494
-0.736174 0.872639 -2.87866
0.030738 0.478047 -2.84412
-0.760217 0.877133 3.25148
-0.785606 1.29737 2.70316
0.00377327 0.854342 2.76084
-0.781187 1.33966 3.6865
0.00411057 0.900558 3.74623
-0.752756 1.31581 -2.42182
0.0433099 1.26723 -2.90595
-0.782147 1.44556 -1.33191
0.0353064 1.36436 -1.93098
-0.816739 1.58762 -0.130971
0.0101611 1.52662 -0.726674
-0.830255 1.67748 1.06994
-0.0211857 1.6482 0.469872
-0.820943 1.72365 2.15977
-0.0341957 1.70639 1.6742
-0.806576 1.7599 3.13818
-0.0275596 1.74086 2.64925
-0.0199393 1.77904 3.63132
0.74711 -0.137242 -2.31436
0.761762 -0.0551502 -2.81224
1.13743 -0.172136 -2.80184
0.739728 -0.110084 -1.20057
1.11352 -0.107485 -1.82098
0.745798 -0.120635 0.0499855
1.12963 -0.111874 -0.575505
0.72777 -0.0904664 1.30053
1.1322 -0.119712 0.676577
0.722749 -0.0322941 2.41418
1.0964 -0.0582055 1.92218
0.744837 0.0122804 3.39237
0.740644 0.136532 2.88218
1.11596 -0.0104666 2.90356
0.757699 0.17803 3.85917
1.1345 0.0331417 3.88077
0.776764 0.269066 -2.83011
1.14013 0.061825 -2.81796
0.753506 0.302281 3.34898
0.755738 0.568347 2.81137
1.12435 0.279809 2.85988
0.765868 0.611701 3.7932
1.14191 0.322246 3.8384
0.810222 0.87264 -2.8714
1.17297 0.491156 -2.84054
0.768101 0.877767 3.25559
0.76182 1.29783 2.70693
1.14853 0.855072 2.76438
0.765359 1.33993 3.69105
1.15339 0.900997 3.75003
0.831372 1.31578 -2.4151
1.22103 1.27616 -2.90277
0.827614 1.44541 -1.32574
1.2268 1.37275 -1.92813
0.805714 1.5872 -0.125831
1.22229 1.52869 -0.723586
0.774874 1.67711 1.07413
1.19122 1.64605 0.473582
0.759188 1.7236 2.16368
1.15916 1.7051 1.67835
0.759077 1.76 3.14239
1.15117 1.7406 2.65349
1.15106 1.77908 3.63555
1.50384 -0.142378 -2.30846
1.5158 -0.0551604 -2.80755
1.50341 -0.109274 -1.19592
1.49321 0.0182754 -1.82802
1.51602 -0.110952 0.0510867
1.52078 0.0329257 -0.587395
1.50083 -0.0874514 1.29822
1.52796 0.0310102 0.657935
1.48961 -0.0363781 2.41156
1.48491 0.0846342 1.89892
1.50563 0.0103947 3.39196
1.49967 0.132811 2.88127
1.51871 0.177358 3.85999
1.50517 0.105493 -2.32711
1.53633 0.283915 -2.82838
1.51057 0.160475 -1.2195
1.52572 0.366511 -1.84988
1.53271 0.174888 0.0194534
1.57641 0.449285 -0.623666
1.51204 0.203096 1.25863
1.57347 0.480589 0.602778
1.49497 0.253823 2.36862
1.51209 0.520395 1.82951
1.51276 0.299773 3.3493
1.51714 0.566535 2.81289
1.52943 0.611542 3.79523
1.55688 0.544933 -2.35116
1.58378 0.894676 -2.8719
1.59155 0.655321 -1.25405
[...]
POINT_DATA 29498
VECTORS point_vectors float
-0.500645 -2.52252 5.60144
0.124334 0.221949 0.639269
-2.89091 1.2961 3.33953
-0.0770303 -0.296989 0.370316
0.467387 -2.54052 5.63315
-0.126408 0.110943 0.352853
1.63356 0.771237 2.14941
0.0372929 -0.195852 0.308856
0 0 0
0.00011876 0.000166336 0.025082
-0.0255698 -0.0296396 0.382573
0.00694424 0.0219412 0.118527
0 0 0
-0.0010153 -0.000146187 0.0166145
0.0197923 -0.028104 0.382557
-0.0348095 0.0644555 0.241533
-0.720946 -0.370066 19.8337
-1.35547 -0.812515 20.5746
-0.434023 -0.467808 21.3669
0.0991522 -0.184888 21.4869
0.667283 0.0588809 21.4097
0.966497 0.157314 21.1682
0.967664 0.0573042 20.7023
-0.852184 -0.280746 19.7227
-1.78717 -0.672334 20.4652
-0.63342 -0.554155 21.4263
0.0429186 -0.317102 21.5579
0.772989 -0.139069 21.5486
1.10563 -0.0751829 21.2088
1.08436 -0.237163 20.8932
-0.877757 -0.0376963 19.6563
-1.8321 -0.0569057 20.3295
-1.08858 -0.35461 21.3299
-0.318366 -0.378033 21.6058
0.446454 -0.473229 21.5767
0.784713 -0.548167 21.2515
0.825247 -0.578744 20.9702
-0.62147 0.306013 19.8074
-1.14097 0.559231 20.2179
-1.06402 0.376369 21.0288
-0.510924 0.00753576 21.4248
-0.0292803 -0.289099 21.366
0.169654 -0.431816 21.16
0.27399 -0.412513 21.0168
-0.776377 -0.903712 19.0996
-1.68506 -3.96827 21.2336
-0.0411099 -0.126481 20.1074
0.211525 0.192626 19.6364
0.712943 1.20045 18.0144
1.25983 1.63141 18.52
1.14349 1.25537 18.7812
-0.935657 -0.757357 18.722
1.86711 1.15356 10.4649
1.97124 0.851761 13.1736
-1.07552 -0.0512647 18.4386
0.561729 -0.930476 7.09475
1.20363 -0.712245 11.3514
-0.634229 0.703684 19.211
-1.52587 2.06418 19.647
-1.9397 1.8991 20.9428
-0.906606 0.534473 22.0461
-0.211151 -0.347487 21.5932
-0.0294188 -0.623508 21.4247
0.161809 -0.831258 20.265
0.794732 -0.853565 19.1546
1.76538 -3.82463 21.2843
0.0173922 -0.131484 20.1944
-0.241504 0.15681 19.3562
-0.600063 1.20211 17.7734
-1.24002 1.61864 18.3162
-1.14349 1.27437 18.7662
0.965292 -0.700923 18.8323
-1.90238 1.15467 10.6371
-2.00858 0.807156 13.4897
1.12621 -0.0443509 18.5282
-0.610669 -0.942374 7.79283
-1.2422 -0.736227 11.958
0.662463 0.665242 19.2732
1.58534 1.90244 19.7228
1.93708 1.80197 20.9727
0.9104 0.564023 22.0782
0.247658 -0.328308 21.6222
0.0902477 -0.615537 21.3999
-0.128724 -0.818974 20.0971
0.724129 -0.364069 19.8607
1.32298 -0.781353 20.6063
0.430414 -0.462466 21.3645
-0.0911612 -0.186541 21.4799
-0.689422 0.0987065 21.4395
-0.99971 0.189173 21.1512
-1.00979 0.071622 20.6226
0.845538 -0.276482 19.7694
1.75084 -0.663082 20.5098
0.622895 -0.549562 21.4283
-0.0290442 -0.314887 21.5363
-0.809853 -0.121511 21.5544
-1.1237 -0.0767888 21.1995
-1.08566 -0.222454 20.878
0.863917 -0.0373947 19.7085
1.7942 -0.0758369 20.3698
1.07096 -0.357662 21.3359
0.307953 -0.37162 21.5933
-0.479058 -0.481858 21.6023
-0.802784 -0.56177 21.2379
-0.819164 -0.575109 20.9619
0.608032 0.280892 19.858
1.07508 0.501766 20.2545
1.04101 0.352524 21.0347
0.518472 0.00575021 21.4388
0.034326 -0.293502 21.3638
-0.176662 -0.449553 21.1945
-0.284667 -0.457875 20.9965
-2.49693 -0.50673 2.47659
-2.4515e-05 -0.00381938 0.055081
-0.00140286 0.000173424 0.0416705
0.0165947 -0.0405778 0.0915851
0 0 0
0.0065304 0.00459295 0.160534
0.00325238 1.97665 1.73748
-0.0993121 -0.0571527 0.388359
0.000504884 0.0108099 -0.0163189
0.0138004 0.0136436 0.129688
2.99338 -0.313295 2.58342
-0.000966105 0.000272027 0.173393
0.0187898 -0.092984 0.077178
-0.0138562 0.011717 0.345552
0.257171 -0.13217 1.01072
0 0 0
0 0 0
0.000230224 -0.00150821 0.0391332
-3.73727e-06 0.00037411 0.00590654
0 0 0
-1.84322e-05 1.19532e-05 0.00380754
0.0143955 0.0958157 0.613816
0.000235712 0.0223197 0.0487457
-2.26609e-05 -1.15887e-05 0.0311697
0 0 0
-0.000406899 -0.00172769 0.0435139
0 0 0
-0.0399855 0.107317 0.572468
-0.00391625 -0.0227026 0.212238
-0.000222473 0.00183129 0.0203181
0.00110445 0.00724011 0.0802275
-7.36134e-07 8.63453e-07 0.000348719
1.29468e-08 -2.04624e-08 -5.10273e-06
-2.69094e-05 0.00124864 0.0295761
0 0 0
0 0 0
0.000302548 0.00413688 0.0456988
-0.000290552 0.0214095 0.152571
-2.40224e-05 -0.000937022 0.0118213
0 0 0
0.000202361 0.00360596 0.0305198
0 0 0
-3.54927 -1.95476 20.3256
-2.23159 -6.14662 21.9805
-2.49659 -2.35311 17.5346
1.34882 0.230494 19.2601
0.640302 1.23397 11.4768
1.23114 0.65775 7.19138
-4.05125 0.147681 19.9224
-3.18652 0.171254 16.6067
-3.59169 3.56459 18.9672
0.733935 -0.679289 19.8898
-0.284012 -1.11303 4.58937
0.362775 -0.428589 15.3972
2.44842 -5.96626 22.0556
2.55313 -2.26183 17.7124
3.46602 -1.90399 20.5021
-0.46159 1.28213 10.6884
-1.17094 0.627302 7.00332
-1.41194 0.406462 18.518
3.25273 0.184215 16.8133
3.61434 3.23041 19.1335
3.92459 0.0792367 20.0921
0.301352 -1.14791 4.70223
-0.34302 -0.382007 13.8806
-0.831911 -0.687115 19.5954
-0.192673 -0.895177 20.7441
0.125324 0.222641 12.3963
0.279523 -0.316824 20.3471
0.213628 0.192873 13.5124
-1.66566 -0.887985 21.7522
-4.32598 1.43816 20.8062
-0.459716 -0.725997 21.5085
-0.734279 0.0975288 17.4426
-0.234935 0.202062 12.6533
0.239247 -0.877179 20.793
-0.342652 0.131604 13.2496
-0.214343 -0.317852 20.1188
4.21714 1.35494 20.9132
1.6504 -0.89328 21.7706
0.57769 0.149123 16.2686
0.417247 -0.712241 21.3013
-1.10182 -0.60485 20.047
-0.799496 -0.333483 19.7873
-0.824525 -0.594872 19.5098
-0.912154 -0.672637 21.2374
-1.57985 -0.760005 20.5196
-1.99237 -1.88388 20.6658
-0.15532 -0.320877 21.4495
-0.546467 -0.528741 21.3841
-0.178387 -0.569049 21.6473
0.363494 -0.0487572 21.5496
0.0685178 -0.257533 21.4975
0.260621 -0.130766 21.6555
0.836222 0.122967 21.2948
0.716508 -0.0361243 21.4672
1.02628 0.450247 21.283
0.953512 0.115581 21.2718
1.0471 0.0408677 21.2049
1.37962 0.635803 20.8108
1.03948 -0.119043 20.7813
1.36652 0.471236 20.693
-1.38148 -0.475084 19.8693
-0.883332 -0.179592 19.6594
-0.967594 -0.502499 19.3263
-1.2475 -0.654883 21.2902
-1.89255 -0.382242 20.3903
-0.281755 -0.445809 21.4782
-0.892313 -0.509931 21.3952
0.382662 -0.211109 21.6334
-0.147976 -0.399534 21.5973
0.978203 -0.0981539 21.3752
0.636725 -0.357384 21.5718
1.12238 -0.0820118 21.0293
1.00016 -0.382217 21.2843
1.75936 0.303812 19.5535
0.96509 -0.40796 21.2257
1.83464 0.0467004 19.3442
-1.4086 -0.0307164 19.7935
-0.804253 0.179833 19.7042
-1.07644 -0.0378379 19.1512
-1.57968 -0.206736 21.0803
-1.55735 0.399368 20.2336
-0.715985 -0.397749 21.5123
-1.24148 0.0428031 21.192
0.0753776 -0.399164 21.6378
-0.499551 -0.20129 21.5532
0.627222 -0.516929 21.4126
0.138258 -0.450272 21.4538
0.891779 -0.536979 21.0902
0.409873 -0.596591 21.2261
1.17827 -0.87278 19.8945
0.505555 -0.523556 20.9576
1.10755 -0.901235 20.2036
-0.908879 0.462721 19.9254
-0.677945 0.461565 19.5491
-1.15901 0.515092 20.6732
-1.49728 1.13815 19.9871
-0.835257 0.192739 21.3122
-1.56527 0.836205 21.0706
-0.230407 -0.146651 21.4419
-0.730198 0.165505 21.683
0.0926327 -0.361483 21.2585
-0.0906209 -0.345389 21.4778
0.316316 -0.493529 21.0234
0.12467 -0.56409 21.2568
0.401512 -0.647084 20.6997
-1.57331 -2.30886 18.9859
-0.860761 -0.859615 18.9267
0.0301437 -1.28712 18.6165
-0.452173 -1.124 21.6999
0.0212805 -4.11921 22.553
0.115529 -0.0204272 19.5953
-0.000930654 -0.0687 18.7834
0.383101 0.565736 18.535
-0.0129507 0.108763 17.6013
0.954361 1.41183 18.1647
0.000740279 0.916213 15.4089
1.50259 1.46563 17.6793
1.54776 1.48732 14.6294
-0.000293308 1.44538 15.6683
1.5934 1.07127 15.4603
0.0101745 2.11039 16.3349
-1.01682 -0.450154 18.5105
0.0539804 -1.07738 18.0077
2.22453 1.47379 12.9409
1.33525 -0.269157 6.33876
-0.0176574 0.658117 3.57765
2.04184 0.189292 11.5707
-0.042954 1.46076 6.5909
-0.894129 0.489921 18.7304
0.0486453 -0.02735 17.3749
1.61549 -1.13834 9.73694
0.292513 -0.962845 16.9533
-0.00244414 1.34893 -4.7577
0.602261 -1.15834 18.3328
-0.00481916 1.46307 -2.57355
-1.10663 1.37731 19.1529
0.0514035 0.973134 18.8453
-1.71673 2.00124 20.4321
0.100647 3.27615 19.3059
-1.73477 1.43353 21.8599
0.0594766 3.80533 20.4566
-0.410589 -0.0421217 21.8712
-0.0330337 1.42675 22.6281
-0.137226 -0.473501 21.4744
-0.0360253 0.0188602 21.5583
0.0709875 -0.734289 21.4389
-0.0260613 -0.226344 21.2623
-0.015584 -0.626168 19.0705
1.61652 -2.23523 19.0523
0.890123 -0.802141 18.988
0.839202 -0.574405 19.5441
0.512345 -1.09622 21.7849
1.94885 -1.78238 20.7343
-0.118242 0.00877811 19.4722
0.19372 -0.575545 21.6525
-0.414247 0.54717 18.3217
-0.245221 -0.153223 21.573
-0.915135 1.42298 18.1414
-1.04867 0.551107 21.044
-1.48853 1.49067 17.6736
-1.55515 1.5073 14.6106
-1.3968 0.704809 20.7822
-1.61969 1.06306 15.5429
-1.35333 0.494108 20.7418
1.07095 -0.440574 18.6028
0.974032 -0.476284 19.3816
-2.26199 1.43789 13.1703
-1.46052 -0.310395 6.89633
-1.7766 0.307258 19.6185
-2.07667 0.120536 12.036
-1.841 0.0342256 19.4592
0.939604 0.464265 18.8057
1.07601 -0.0384681 19.245
-1.66756 -1.16081 10.4691
-0.262595 -0.94111 16.7978
-1.1923 -0.910212 20.0529
-0.580131 -1.14306 18.312
-1.10539 -0.900675 20.318
1.14772 1.30622 19.23
0.689304 0.425558 19.6151
1.75391 1.85894 20.4711
1.43963 0.995802 20.069
1.73548 1.41993 21.8759
1.54114 0.779994 21.0884
0.419609 -0.0302645 21.8886
0.740966 0.174243 21.7009
0.186401 -0.44626 21.4926
0.102665 -0.356089 21.4963
-0.0287673 -0.75133 21.3378
-0.104417 -0.579484 21.2541
-0.393696 -0.701803 20.8121
1.09704 -0.586314 20.0821
0.796286 -0.325886 19.8203
0.890285 -0.654593 21.2233
1.54402 -0.741325 20.5597
0.141512 -0.314122 21.4487
0.536071 -0.523918 21.3829
-0.358842 -0.0489761 21.5675
-0.0552445 -0.263266 21.4867
-0.8609 0.164039 21.2908
-0.759862 -0.00608798 21.4928
-0.967157 0.114291 21.2437
-1.0776 0.0498784 21.2021
-1.06333 -0.108302 20.735
1.36002 -0.464446 19.9239
0.882493 -0.17204 19.7052
1.21022 -0.645306 21.2791
1.84158 -0.381581 20.4393
0.261158 -0.436261 21.4804
0.875177 -0.511815 21.4024
-0.368638 -0.208289 21.6615
0.145859 -0.392591 21.5798
-1.01616 -0.082848 21.3504
-0.680969 -0.370723 21.5725
-1.12335 -0.0782381 21.0548
-1.01565 -0.386313 21.2707
-0.965179 -0.399686 21.2045
1.37956 -0.0456104 19.8452
0.778287 0.168559 19.7629
1.53284 -0.21968 21.0754
1.48733 0.367338 20.268
0.688293 -0.400478 21.5129
1.21552 0.0318169 21.1982
-0.0681883 -0.390863 21.6525
0.501368 -0.212594 21.5577
-0.651296 -0.526485 21.4172
-0.144596 -0.479347 21.456
-0.90155 -0.546854 21.0838
-0.412763 -0.633579 21.2324
-0.496951 -0.517437 20.9803
0.866002 0.419328 19.98
1.11413 0.481874 20.6846
0.832952 0.183887 21.3189
0.240794 -0.150782 21.448
-0.0855125 -0.378469 21.2761
-0.299459 -0.505142 21.0242
-1.24843 -0.57839 19.9678
-2.00432 -2.4447 18.3472
-1.48724 -1.21594 19.6573
-2.01869 -1.08046 19.1751
-0.903939 -0.553226 19.4058
-2.68697 -2.05777 20.5382
-1.08622 -0.690912 21.2557
-0.299663 -0.336237 14.5752
-0.903481 -1.16171 21.7836
-1.47899 -1.46635 22.1207
-0.125986 -0.702556 21.4667
-0.220651 -0.400825 21.4577
0.255667 0.069245 12.7995
0.0457718 -0.364764 21.5844
0.0141374 -0.622976 20.347
0.314761 -0.222073 21.2359
0.363976 -0.131172 21.5843
0.325108 0.468286 12.0436
0.59581 0.150033 21.5072
0.690876 -0.0218175 19.6533
1.23731 0.395139 20.5528
0.911417 0.0142794 21.3342
1.08403 1.35909 13.1777
1.2492 0.566362 20.9979
1.60836 0.223753 19.4462
1.66008 0.503151 20.3143
1.04392 0.0438686 21.0962
1.89066 1.59992 15.3855
1.4272 0.624103 20.8379
1.69563 0.289805 19.1731
1.61498 0.319558 20.1357
-1.46518 -0.272754 19.7937
-3.1161 -1.26764 16.6814
-2.29425 0.0150373 18.8797
-1.05019 -0.287774 19.1838
-4.25421 -1.00453 20.0629
-1.47052 -0.461786 21.2121
-2.58206 -0.449725 21.6924
-0.867006 -1.11581 21.6948
-0.490963 -0.481085 21.5169
-1.05964 -0.875367 21.6793
0.0581338 -0.58625 20.6089
0.243018 -0.359797 21.6508
0.144953 -0.607061 20.7341
1.20278 -0.258344 18.8528
0.869256 -0.363269 21.3748
0.356424 -0.964978 3.46847
0.88067 -0.809087 19.6486
1.67896 -0.371323 18.949
1.10711 -0.415959 21.1484
2.17782 -0.124219 9.95487
1.24018 -0.794692 19.9709
1.661 -0.286996 19.4131
-1.24054 0.298738 19.8213
-1.99137 1.53747 18.0717
-1.09955 0.796117 19.5954
-0.912222 0.32903 19.2882
-2.5881 1.13832 19.8594
-1.5283 0.260984 20.8337
-3.31118 2.23897 20.8543
-1.60851 1.06869 20.6134
-2.15619 0.221831 21.3602
-0.891647 -0.103043 21.454
-2.80129 -0.0898985 19.7741
-1.23659 0.515136 21.5212
-0.836813 -0.229315 21.9022
-0.137477 -0.324639 21.5581
0.207262 0.0161972 16.0966
-0.330395 -0.132037 21.6275
0.0765181 -0.650952 21.5884
0.291162 -0.532654 21.3547
0.184237 -0.642247 16.1144
0.0163457 -0.465909 21.3758
0.373274 -0.919346 21.3027
0.468383 -0.633157 21.0901
0.551032 -1.37107 18.0537
0.203332 -0.656655 21.0184
0.520095 -0.883013 21.0909
2.06556 -2.33314 18.454
0.0403944 -3.85633 18.4373
0.0688921 -4.91977 15.2158
0.0343419 -1.23021 18.2902
0.0156649 -3.48912 19.7423
0.238142 -0.347655 14.8521
0.00810357 -1.00916 21.0263
-0.00499407 0.243094 9.48913
-0.221841 0.111936 12.7681
-0.00393322 -0.00512316 17.8246
-0.0230826 0.0851656 10.1908
-0.376351 0.43987 11.7451
-0.0080521 0.416904 16.2408
0.00651446 0.677259 7.79258
-1.07762 1.36104 12.8942
0.00243803 1.14706 15.2817
-0.00508642 -0.121124 2.17607
-0.00808471 1.3098 9.67552
-1.90483 1.59138 15.4553
0.00372969 1.94501 16.3838
-0.0357672 1.91401 6.00812
-0.0139732 1.6176 10.9767
3.13746 -1.24807 16.9577
0.141264 1.25954 12.6755
0.052285 -0.690415 17.5493
-0.323655 -1.02123 3.2831
0.00846205 0.504287 -3.29179
-0.0292387 0.679332 -2.23159
-2.23825 -0.17089 10.5359
-0.0125823 1.42395 -5.24695
-0.052616 1.43541 1.96385
2.02914 1.42157 18.2611
0.0742718 2.1481 18.5881
0.0708446 0.772985 17.9947
0.133039 6.62235 18.5632
3.30366 2.02798 20.8826
0.0810648 3.18002 20.1043
0.0724279 4.96561 15.7899
2.78509 -0.193275 19.5914
-0.00113497 3.40554 22.3111
0.000361051 0.0583 4.17644
-0.352032 0.130617 14.6219
-0.0248684 0.334761 22.0678
-0.073041 0.279098 1.5784
-0.152165 -0.592412 15.3287
-0.0293882 0.0067968 21.2457
-0.056705 0.67047 0.420502
-0.522003 -1.372 18.1102
-0.00845136 -0.569174 20.9336
-0.0144817 -0.327329 7.73221
1.22848 -0.560829 20.0165
1.47482 -1.16261 19.731
2.0068 -1.04809 19.2871
0.911162 -0.533848 19.4542
2.6084 -1.9643 20.6516
1.05727 -0.674594 21.2417
0.884832 -1.10394 21.7283
1.41294 -1.39599 22.0435
0.167673 -0.714174 21.5388
0.202237 -0.392617 21.4661
-0.0558141 -0.338191 21.5705
-0.0511893 -0.55374 20.2438
-0.26846 -0.24746 21.0206
-0.359308 -0.135673 21.6099
-0.583097 0.15121 21.4745
-0.593594 -0.0387159 19.4219
-1.1971 0.527653 20.1259
-0.957214 0.038811 21.3288
-1.27803 0.670579 20.9361
-1.64672 0.276214 19.1521
-1.67643 0.535388 20.2142
-1.05161 0.045592 21.1125
-1.45261 0.681841 20.8309
-1.70645 0.290862 19.2294
-1.60685 0.323256 20.1695
1.44717 -0.266701 19.8547
2.25575 0.000191235 19.0084
1.0472 -0.275064 19.2625
4.12849 -0.987376 20.2638
1.42573 -0.466549 21.2023
2.47911 -0.499339 21.6196
0.852295 -1.09738 21.7173
0.464272 -0.477225 21.5137
0.989778 -0.907892 21.6424
-0.0647916 -0.489314 20.2303
-0.230032 -0.351687 21.6758
-0.133091 -0.506012 20.4822
-1.33507 -0.170932 18.2128
-0.903952 -0.376088 21.3702
-0.925543 -0.849666 19.6275
-1.72711 -0.385027 19.0741
-1.1145 -0.425926 21.1704
-1.23066 -0.820651 20.1709
-1.65824 -0.309692 19.5655
1.17348 0.283616 19.8848
1.08466 0.733437 19.6892
0.903253 0.294982 19.3837
2.50475 1.01623 19.945
1.47886 0.236159 20.8411
1.5713 0.969176 20.6396
2.11572 0.198316 21.3712
0.879475 -0.114677 21.4588
1.23756 0.50257 21.5353
0.839483 -0.248872 21.9155
0.146572 -0.335378 21.571
0.340129 -0.131518 21.6493
-0.059715 -0.701125 21.5894
-0.294059 -0.55525 21.3652
0.0031787 -0.473067 21.3907
-0.35335 -0.945604 21.2587
-0.47124 -0.649071 21.0993
-0.210534 -0.701952 21.0059
-0.528989 -0.925087 21.0369
-1.76273 -1.20481 19.3878
-1.10487 -1.34186 22.0383
0.0786849 -0.481143 21.1781
0.68997 0.0753172 20.8341
1.50834 0.463358 20.589
1.54255 0.503813 20.4817
-2.30373 -0.614874 18.9171
-2.19904 -1.00218 22.2502
-0.364357 -0.902185 20.925
0.552484 -0.334392 19.8156
1.43312 -0.38262 18.9934
1.77825 -0.282038 19.3135
-1.71281 0.731825 19.2104
-2.40702 0.704287 20.9353
-1.59088 -0.0752065 21.8073
-0.27418 -0.422992 21.8047
0.21495 -0.778125 21.4643
0.512584 -0.891998 21.2772
0.0520195 -4.57715 17.2014
-0.00197955 -0.255932 11.933
-0.0082779 0.0786601 9.70359
-0.0076048 0.275937 8.91219
-0.00109385 0.714536 8.27834
-0.01841 2.10818 11.1273
0.132017 -2.19286 12.9061
0.00466832 -0.479211 -1.07276
-0.0507369 0.718865 -1.60849
0.120061 2.91911 16.5072
0.0718221 3.8881 19.4619
-0.000250832 0.743256 4.23931
-0.00662654 -0.18694 4.08716
-0.0649129 0.619287 0.814702
-0.00535608 -0.187277 4.03957
1.75478 -1.16809 19.463
1.06812 -1.26723 21.9307
-0.0940945 -0.439169 21.158
-0.645952 0.0575782 20.6431
-1.53594 0.553549 20.2178
-1.55845 0.539571 20.3812
2.26559 -0.579253 19.0407
2.06315 -1.00558 22.1217
0.263391 -0.868301 20.8616
-0.453909 -0.222679 19.6325
-1.49509 -0.349687 18.3308
-1.79533 -0.303802 19.4383
1.67255 0.636139 19.3308
2.3334 0.627626 20.9353
1.57653 -0.101854 21.8274
0.280029 -0.43719 21.8347
-0.186573 -0.818366 21.4404
-0.506531 -0.924408 21.2283
-1.39168 -0.751687 1.58631
-0.00948667 -0.0305855 0.318715
-8.87443e-05 -0.0102198 0.101295
0.0441625 -0.0461952 0.0524864
-0.00223148 0.0243796 0.134885
0.0225984 0.0371003 0.711032
-1.37228 0.0131175 1.47666
-0.198696 0.443797 0.56798
-0.469067 0.0983721 1.47931
0.00473007 -0.0153555 0.018612
-0.0332996 -0.0100006 -0.000741347
0.00637141 -0.00341177 0.081696
0.0165768 -0.0403363 0.349852
1.74276 -0.902192 1.82673
0.0169189 -0.020277 0.307542
0 0 0
-0.0234265 -0.0231053 0.0407223
0.00502069 0.0279089 0.475523
0.503459 1.17693 1.40758
1.44442 -0.132245 1.75506
0.455198 0.0476458 1.45868
0.0374226 -0.00885851 -0.00223816
-0.00941423 -0.0307173 0.0449383
-0.00593956 -0.00942188 0.134144
-0.000938251 0.0011961 0.12056
0 0 0
0 0 0
1.52685e-18 5.9049e-19 1.65774e-17
5.63566e-05 0.00175858 0.00814742
0 0 0
-0.00599316 0.0203178 0.258341
0 0 0
-0.0956501 -0.145984 0.455953
-0.000384419 -0.00039784 0.0284385
-0.000259638 0.00574689 0.0919851
-0.0359151 0.0282899 0.0774338
0 0 0
0.000391404 0.00247993 0.018111
0.0175288 0.0391453 0.22035
0.112102 0.0683981 0.793575
-0.00646662 -0.000710274 0.164918
0 0 0
0 0 0
0 0 0
-0.000740991 0.00483871 0.0824246
0 0 0
0 0 0
0.000823082 0.0131953 0.182728
0.113307 -0.145743 0.519854
0.0410285 0.0298172 0.0851226
4.27613e-05 -0.000993163 0.0301592
-0.000504223 0.00543225 0.0971264
0 0 0
-0.103751 0.0772019 0.956509
-0.000599662 0.00397647 0.0163998
-0.00624917 0.0116751 0.0634453
0 0 0
0 0 0
5.19501e-05 -0.00529844 0.0553297
0 0 0
0 0 0
-0.00444582 0.000542492 0.0721203
0.00234858 0.00176428 0.0390992
-0.0503495 -0.0460677 0.0288243
6.10258e-05 0.00174982 0.0277818
0 0 0
0 0 0
0.00011208 0.000184559 0.00415689
0.0258971 0.181635 0.101926
0.00139383 0.0325172 0.162137
-0.000622423 -0.00336588 0.0273859
-0.0204048 0.00974393 0.0801578
0.00143042 -0.0399927 -0.00186502
0 0 0
0.000196276 0.00234925 0.0199741
0.000676359 -0.00103296 0.011616
0 0 0
0.00612778 -0.00547859 0.0503066
0.000429953 1.5491e-05 0.0134938
0 0 0
0.0654773 -0.0587354 0.0396307
-0.00266626 0.000502157 0.0130221
-0.000847199 0.00163682 0.0350619
-0.00264984 0.0065642 0.142953
0.0248544 0.0113085 0.0956191
0 0 0
-0.00143087 -0.00215625 0.0240206
-0.00155847 0.00779202 0.0619506
-0.000536615 0.00133498 0.025602
0 0 0
0.000713454 -0.0033161 0.0271843
-0.000134194 0.000400243 0.0143985
0 0 0
1.35957e-08 -1.00439e-07 -1.19945e-05
0 0 0
0 0 0
1.11435e-07 -5.59959e-08 -2.49269e-05
0 0 0
-6.54327e-05 0.00229672 0.0184056
-0.0608031 0.0371552 0.366766
0 0 0
-0.00196887 0.0875836 0.249607
9.39494e-06 0.00135759 0.02341
-8.77191e-05 -0.00209708 0.0506633
2.99257e-18 -6.06043e-19 -1.15474e-16
0.000559327 0.00410403 0.0789406
-0.000115608 -0.000514538 0.00574673
-1.66335e-06 0.000676778 0.0166589
7.50861e-05 0.00096191 0.00672692
0.00667106 0.00684156 0.192463
0.0678163 0.0621031 0.452425
-0.000218178 0.00231911 0.0190093
-0.276509 -0.0304566 0.826494
-0.000679558 -0.000229413 0.00308761
0 0 0
0 0 0
-0.000772035 0.00215889 0.0716377
-0.000429369 0.00430033 0.0646282
-0.00393272 0.0107276 0.17246
0.000174253 0.00413946 0.0264327
0.0084641 -0.00250916 0.15389
0.0021231 0.00611393 0.104941
0 0 0
0.002447 0.000179532 0.0266012
-0.00595311 -0.0128388 0.134368