# vtk DataFile Version 2.0
tet_velo
ASCII
DATASET UNSTRUCTURED_GRID
POINTS 29498 float
-0.735 0.225 -2.11714
-0.609082 0.315 2.205
-0.75968 0.775 -1.915
-0.655 1.005 2.06925
0.737138 0.225 -2.115
0.609084 0.315 2.205
0.759681 0.775 -1.915
0.655 1.005 2.0693
-0.734795 0.213232 -0.676427
-0.722451 0.213604 0.764287
-0.805107 0.931987 -0.586917
-0.77332 1.01176 0.741167
0.736217 0.213237 -0.675
0.723163 0.213606 0.765
0.80514 0.932019 -0.5869
0.773323 1.01176 0.7412
-1.49566 -0.175249 -3.26164
-1.49445 -0.126052 -2.15426
-1.48636 -0.133419 -0.71069
-1.44789 -0.14087 0.755566
-1.36498 -0.0766607 2.20105
-1.34412 -0.0267858 3.31777
-1.35229 0.0135015 4.41716
-1.4983 0.148114 -3.20141
-1.50189 0.215816 -2.10628
-1.49832 0.229151 -0.684519
-1.44782 0.228125 0.747416
-1.33114 0.288689 2.17132
-1.31997 0.337156 3.28642
-1.3391 0.377106 4.38944
-1.51068 0.761348 -3.04908
-1.5291 0.826626 -1.94899
-1.5501 0.941918 -0.603958
-1.49191 0.998491 0.733107
-1.36899 1.01066 2.08025
-1.34138 1.05599 3.19997
-1.35025 1.10136 4.3211
-1.51287 1.78375 -2.90532
-1.52261 1.86359 -1.82223
-1.53152 1.99272 -0.513624
-1.51649 2.09214 0.770711
-1.47468 2.13898 2.0804
-1.44037 2.1685 3.16576
-1.41944 2.20366 4.27466
-0.742837 -0.170593 -3.26839
-0.740857 -0.118349 -2.16435
-0.738874 -0.140873 -0.70887
-0.731456 -0.150947 0.770028
-0.676104 -0.0647129 2.22605
-0.655637 -0.018459 3.33477
-0.658593 0.0172091 4.42707
-0.741086 0.146659 -3.20325
-0.628821 0.346268 3.30046
-0.645591 0.380697 4.39695
-0.748607 0.739588 -3.03491
-0.6446 1.05628 3.19787
-0.652463 1.10207 4.32077
-0.750512 1.7684 -2.89132
-0.757455 1.84888 -1.80686
-0.771808 1.98897 -0.504302
-0.776553 2.09643 0.769786
-0.756341 2.1412 2.07274
-0.728609 2.16876 3.1581
-0.708673 2.2036 4.26915
0.75037 -0.170588 -3.26701
0.740232 -0.118346 -2.16263
0.734903 -0.140868 -0.707583
0.702925 -0.150945 0.770742
0.631428 -0.0647119 2.22629
0.670331 -0.0184577 3.33501
0.703091 0.0172114 4.42738
0.754506 0.146663 -3.20191
0.676124 0.346269 3.30062
0.708832 0.380699 4.39721
0.765694 0.739593 -3.03425
0.690923 1.05628 3.19802
0.714353 1.10207 4.32101
0.77471 1.76841 -2.89081
0.776136 1.8489 -1.80646
0.761969 1.98899 -0.503973
0.722761 2.09643 0.770068
0.689316 2.1412 2.073
0.692661 2.16877 3.15838
0.707062 2.2036 4.26945
1.50016 -0.175237 -3.25917
1.49248 -0.12604 -2.15152
1.48283 -0.133407 -0.708506
1.4346 -0.140864 0.756905
1.34871 -0.0766575 2.20175
1.36092 -0.026782 3.31837
1.39404 0.0135063 4.41782
1.50622 0.148126 -3.19906
1.50101 0.215829 -2.10357
1.49887 0.229167 -0.682441
1.45257 0.228131 0.748629
1.34183 0.288691 2.17185
1.35956 0.337159 3.2869
1.39619 0.37711 4.39003
1.52295 0.761362 -3.0476
1.52987 0.826645 -1.94781
1.55052 0.941952 -0.603027
1.4954 0.998501 0.733732
1.37882 1.01066 2.08066
1.37979 1.056 3.2004
1.40597 1.10137 4.32165
1.53338 1.78377 -2.90423
1.53617 1.86361 -1.82132
1.52163 1.99274 -0.512868
1.47371 2.09216 0.771354
1.42307 2.13899 2.08098
1.4124 2.16851 3.16635
1.42018 2.20367 4.2753
-0.81002 0.5 -2.07875
0.00106898 0.21142 -2.12965
-0.741255 0.212759 -1.39678
-0.678075 0.66 2.18316
1.01328e-06 0.328292 2.19171
-0.690479 0.239589 1.48464
5.06639e-07 0.85881 -1.99881
-0.803007 0.874107 -1.25096
0 1.09766 2.16193
-0.750031 1.04425 1.40521
0.810865 0.5 -2.07746
0.743031 0.212764 -1.395
0.678125 0.66 2.18323
0.69083 0.239597 1.485
0.802659 0.873758 -1.25095
0.750028 1.04425 1.40525
-0.728627 0.213414 0.0439299
-0.853777 0.57261 -0.631672
0.00071087 0.210759 -0.675714
-0.844098 0.612682 0.752727
0.000356293 0.210997 0.764643
-0.789245 0.971905 0.0771251
1.66012e-05 1.25278 -0.586908
1.58343e-06 1.45199 0.741183
0.729695 0.213416 0.045
0.853786 0.572628 -0.63095
0.844767 0.612684 0.7531
0.789258 0.971917 0.07715
-0.896044 0.536305 -1.32387
-0.84695 0.592646 0.0605275
-0.893001 0.636341 1.44493
0.000889925 0.21045 -1.39589
0.000533582 0.210876 0.0444649
0.000178653 0.236245 1.48482
0.000534743 0.5 -2.31236
5.06639e-07 0.66 2.2699
8.55391e-06 0.984226 -1.25095
9.0923e-06 1.44529 0.0771375
7.91717e-07 1.40079 1.40523
0.896104 0.536314 -1.32298
0.846949 0.592656 0.061075
0.892989 0.636342 1.44513
-1.11844 0.220408 -2.11171
-0.737929 0.0533256 -2.14074
-0.738043 0.18583 -2.66019
-0.970113 0.301845 2.18816
-0.642593 0.125144 2.21552
-0.618951 0.330634 2.75273
-1.14439 0.800813 -1.93199
-0.754144 0.757294 -2.47495
-0.758567 1.31194 -1.86093
-1.01199 1.00783 2.07475
-0.6498 1.03064 2.63356
-0.70567 1.5731 2.07099
0.738685 0.0533272 -2.13882
0.745822 0.185831 -2.65846
1.11907 0.220415 -2.10928
0.620256 0.125144 2.21565
0.642604 0.330634 2.75281
0.975457 0.301846 2.18843
0.762687 0.757296 -2.47462
0.767909 1.31195 -1.86073
1.14477 0.800822 -1.9314
0.672961 1.03064 2.63366
0.672158 1.5731 2.07115
1.01691 1.00783 2.07498
-1.11656 0.221192 -0.680473
-0.736834 0.0361797 -0.692648
-1.08514 0.220865 0.755852
-0.726953 0.0313283 0.767157
-1.17761 0.936952 -0.595437
-0.788457 1.46048 -0.545609
-1.13262 1.00513 0.737137
-0.774936 1.55409 0.755477
0.73556 0.0361841 -0.691291
1.11754 0.221202 -0.678721
0.713044 0.0313302 0.767871
1.08787 0.220868 0.756814
0.783555 1.4605 -0.545437
1.17783 0.936986 -0.594963
0.748042 1.5541 0.755634
1.13436 1.00513 0.737466
-1.49505 -0.15065 -2.70795
-1.49698 -0.0135674 -3.23152
-1.11925 -0.172921 -3.26502
-1.49041 -0.129736 -1.43248
-1.49817 0.0448819 -2.13027
-1.11765 -0.1222 -2.15931
-1.46713 -0.137145 0.0224379
-1.49234 0.0478659 -0.697605
-1.11262 -0.137146 -0.70978
-1.40644 -0.108765 1.47831
-1.44786 0.0436275 0.751491
-1.08967 -0.145909 0.762797
-1.35455 -0.0517232 2.75941
-1.34806 0.106014 2.18618
-1.02054 -0.0706868 2.21355
-1.3482 -0.00664213 3.86746
-1.33204 0.155185 3.30209
-0.999879 -0.0226224 3.32627
-1.34569 0.195304 4.4033
-1.00544 0.0153553 4.42212
-1.50009 0.181965 -2.65384
-1.50449 0.454731 -3.12524
-1.11969 0.147387 -3.20233
-1.5001 0.222483 -1.3954
-1.51549 0.521221 -2.02763
-1.47307 0.228638 0.0314486
-1.52421 0.585534 -0.644239
-1.38948 0.258407 1.45937
-1.46987 0.613308 0.740262
-1.32556 0.312923 2.72887
-1.35007 0.649673 2.12578
-1.32953 0.357131 3.83793
-1.33067 0.696575 3.24319
-0.974394 0.341712 3.29344
-1.34468 0.739233 4.35527
-0.992347 0.378901 4.39319
-1.51989 0.793987 -2.49903
-1.51178 1.27255 -2.9772
-1.12964 0.750468 -3.04199
-1.5396 0.884272 -1.27647
-1.52585 1.34511 -1.88561
-1.52101 0.970205 0.0645743
-1.54081 1.46732 -0.558791
-1.43045 1.00457 1.40668
-1.5042 1.54532 0.751909
-1.35518 1.03333 2.64011
-1.42183 1.57482 2.08032
-1.34582 1.07868 3.76053
-1.39087 1.61225 3.18286
-0.99299 1.05614 3.19892
-1.38485 1.65251 4.29788
-1.00136 1.10172 4.32093
-1.51774 1.82367 -2.36378
-1.13169 1.77607 -2.89832
-1.52706 1.92815 -1.16793
-1.14003 1.85624 -1.81455
-1.52401 2.04243 0.128544
-1.15166 1.99084 -0.508963
-1.49559 2.11556 1.42556
-1.14652 2.09428 0.770249
-1.45752 2.15374 2.62308
-1.11551 2.14009 2.07657
-1.42991 2.18608 3.72021
-1.08449 2.16863 3.16193
-1.06406 2.20363 4.2719
-0.741847 -0.144471 -2.71637
-0.741961 -0.0119669 -3.23582
0.00376647 -0.170591 -3.2677
-0.739865 -0.129611 -1.43661
-0.00031267 -0.118347 -2.16349
-0.735165 -0.14591 0.0305789
-0.00198542 -0.140871 -0.708226
-0.70378 -0.10783 1.49804
-0.0142657 -0.150946 0.770385
-0.665871 -0.0415859 2.78041
-0.0223382 -0.0647124 2.22617
-0.657115 -0.000624988 3.88092
-0.642229 0.163904 3.31761
0.0073469 -0.0184584 3.33489
-0.652092 0.198953 4.41201
0.022249 0.0172102 4.42723
-0.744847 0.443123 -3.11908
0.00670994 0.146661 -3.20258
-0.637206 0.363482 3.8487
-0.636711 0.701273 3.24916
0.0236514 0.346268 3.30054
-0.649027 0.741385 4.35886
0.0316202 0.380698 4.39708
-0.74956 1.25399 -2.96311
0.0085432 0.73959 -3.03458
-0.648532 1.07918 3.75932
-0.686604 1.61252 3.17798
0.0231614 1.05628 3.19794
-0.680568 1.65284 4.29496
0.0309453 1.10207 4.32089
-0.753983 1.80864 -2.34909
0.0120994 1.76841 -2.89106
-0.764631 1.91893 -1.15558
0.00934071 1.84889 -1.80666
-0.77418 2.0427 0.132742
-0.00491951 1.98898 -0.504138
-0.766447 2.11881 1.42126
-0.0268961 2.09643 0.769927
-0.742475 2.15498 2.61542
-0.0335126 2.1412 2.07287
-0.718641 2.18618 3.71363
-0.0179739 2.16876 3.15824
-0.000805414 2.2036 4.2693
0.745301 -0.144467 -2.71482
0.752438 -0.0119627 -3.23446
1.12526 -0.172913 -3.26309
0.737567 -0.129607 -1.43511
1.11636 -0.122193 -2.15707
0.718914 -0.145907 0.0315796
1.10887 -0.137138 -0.708044
0.667177 -0.107829 1.49852
1.06876 -0.145905 0.763824
0.65088 -0.0415848 2.78065
0.990068 -0.0706847 2.21402
0.686711 -0.000623154 3.8812
0.673227 0.163905 3.31782
1.01563 -0.0226198 3.32669
0.705961 0.198955 4.4123
1.04856 0.0153589 4.4226
0.7601 0.443128 -3.11808
1.13036 0.147394 -3.20049
0.692478 0.363484 3.84892
0.683523 0.701274 3.24932
1.01784 0.341714 3.29376
0.711593 0.741387 4.35911
1.05251 0.378904 4.39362
0.770202 1.254 -2.96253
1.14432 0.750478 -3.04092
0.702638 1.07918 3.75951
0.691792 1.61252 3.1782
1.03536 1.05614 3.19921
0.710708 1.65284 4.29523
1.06016 1.10172 4.32133
0.775423 1.80865 -2.34863
1.15404 1.77609 -2.89752
0.769053 1.91894 -1.15521
1.15615 1.85625 -1.81389
0.742365 2.04271 0.133047
1.1418 1.99086 -0.508421
0.706038 2.11882 1.42153
1.09823 2.0943 0.770711
0.690988 2.15499 2.61569
1.05619 2.1401 2.07699
0.699862 2.18618 3.71391
1.05253 2.16864 3.16236
1.06362 2.20364 4.27238
1.49632 -0.150639 -2.70534
1.50319 -0.0135556 -3.22911
1.48766 -0.129723 -1.43001
1.49674 0.0448945 -2.12754
1.45872 -0.137135 0.0241999
1.49085 0.0478803 -0.695474
1.39165 -0.108761 1.47933
1.44359 0.0436335 0.752767
1.35481 -0.0517197 2.76006
1.34527 0.106017 2.1868
1.37748 -0.00663783 3.86809
1.36024 0.155189 3.30264
1.39511 0.195308 4.40393
1.50361 0.181977 -2.65131
1.51459 0.454744 -3.12333
1.49994 0.222498 -1.393
1.51544 0.521237 -2.02569
1.47572 0.228649 0.0330937
1.5247 0.58556 -0.642734
1.3972 0.258411 1.46024
1.47399 0.613316 0.74118
1.35069 0.312925 2.72938
1.36032 0.649676 2.12626
1.37787 0.357135 3.83847
1.36967 0.696578 3.24365
1.40108 0.739238 4.35584
1.52641 0.794004 -2.4977
1.52817 1.27257 -2.97591
1.54019 0.884299 -1.27542
1.53302 1.34513 -1.88456
1.52296 0.970227 0.0653524
[...]
POINT_DATA 29498
VECTORS point_vectors float
-2.67494 -5.62499 7.10003
0.101482 0.297599 1.18182
-0.669577 0.850537 2.47305
-0.0951663 -0.189263 0.0169477
2.82916 -5.98387 7.56761
-0.173905 0.250464 1.13952
0.66285 0.85043 2.46703
0.118338 -0.191112 -0.0105298
0.000402202 0.00102687 0.0415325
0.0435926 -0.00540751 0.198741
0 0 0
0 0 0
-3.21015e-05 0.00111514 0.0322883
-0.0429759 -0.00521413 0.192523
0 0 0
0 0 0
-0.563897 -0.309222 19.8597
-1.24416 -0.836548 20.5379
-0.316143 -0.453175 21.4203
0.126323 -0.195587 21.5729
0.872368 0.27556 21.5746
1.13481 0.293069 21.127
0.963552 0.156739 21.17
-0.717328 -0.257225 19.7385
-1.76901 -0.729861 20.5038
-0.442214 -0.628646 21.4871
0.057338 -0.395742 21.635
1.20214 -0.0330729 21.5915
1.42612 -0.0179726 21.3865
1.33177 -0.0821179 21.1618
-0.892408 0.0701026 19.6588
-1.95963 0.0817216 20.5469
-1.20203 -0.455935 21.4473
-0.424655 -0.483528 21.7283
0.514135 -0.785714 21.6417
0.973935 -0.856359 21.5172
1.18481 -0.745554 20.186
-0.607266 0.401598 19.9626
-0.964464 0.621089 20.4387
-0.928806 0.405185 21.1641
-0.412932 0.0297171 21.486
-0.00687068 -0.278563 21.4597
0.230705 -0.463096 21.2828
0.225628 -0.57543 20.8472
-0.554524 -0.642818 19.3031
-1.662 -3.32612 20.7658
-0.222202 -0.238575 21.574
0.15175 0.0442029 21.1273
0.560238 1.31933 19.7753
1.08835 1.70758 18.8166
1.2495 1.20471 17.6897
-0.732268 -0.567645 18.9569
1.67781 1.66042 10.6329
2.24532 1.61469 13.2868
-1.14367 0.275241 18.3608
0.505858 -0.902197 5.4887
1.53981 -0.936532 11.7317
-0.539078 0.85204 19.5656
-0.99062 1.53617 20.186
-1.26648 1.57321 21.2583
-0.493946 0.349595 21.8822
-0.147206 -0.293724 21.5805
0.0103455 -0.544181 21.1439
-0.0323654 -0.419057 21.857
0.55969 -0.637778 19.319
1.65456 -3.32526 20.7819
0.217155 -0.237841 21.5448
-0.159177 0.0445441 20.9869
-0.55117 1.24028 19.419
-1.15717 1.61021 18.7129
-1.27905 1.1019 17.7999
0.74233 -0.558191 18.9682
-1.88281 1.44829 10.9803
-2.15156 1.33757 14.1642
1.15104 0.272111 18.4064
-0.266751 -0.828955 5.26571
-1.47558 -0.828392 12.6797
0.548515 0.840022 19.5798
0.996636 1.51829 20.1902
1.25693 1.60167 21.2552
0.462146 0.397209 21.8887
0.119915 -0.213928 21.588
-0.0235237 -0.454845 21.1707
0.0123931 -0.380791 22.0927
0.57037 -0.30395 19.8508
1.23548 -0.824459 20.5413
0.310274 -0.452516 21.4211
-0.129784 -0.212385 21.5688
-0.868698 0.249451 21.5654
-1.10608 0.245878 21.1738
-0.971441 0.099057 21.0965
0.716757 -0.254546 19.7459
1.77042 -0.734672 20.5052
0.432458 -0.629663 21.4836
-0.0561507 -0.402503 21.6184
-1.12963 -0.0970532 21.5666
-1.34966 -0.0815612 21.3909
-1.23005 -0.0841247 21.4274
0.886582 0.0666258 19.6687
1.9543 0.0815251 20.5482
1.19385 -0.457264 21.4464
0.426499 -0.476723 21.7113
-0.427072 -0.76009 21.5839
-0.834609 -0.752545 21.6187
-0.976971 -0.664712 20.5879
0.602056 0.388004 19.9735
0.957035 0.60611 20.4406
0.932781 0.415872 21.1621
0.422428 0.0625751 21.4935
0.0390828 -0.257581 21.4681
-0.213147 -0.429334 21.2815
-0.174757 -0.595936 20.8347
-0.811957 0.0185909 0.956987
-5.79194e-05 -0.0160118 0.270183
-0.00619923 0.00229293 0.139976
-0.0905951 -0.151772 0.023781
-0.0106346 0.00206942 0.0321731
-0.00112808 0.00815706 0.213178
6.47985e-05 0.0386725 0.141386
-0.196679 -0.0690149 0.379395
-0.0108228 0.0145649 -0.0205365
0 0 0
0.900762 0.0194691 1.06219
0.00738114 0.00272687 0.16889
0.104434 -0.208761 0.048646
-9.87482e-05 0.00788887 0.216714
0.181341 -0.0639351 0.350717
0 0 0
0.00555439 -6.76483e-05 0.149523
0.000203209 0.00223426 0.0206947
1.99285e-08 -6.86509e-08 -1.48593e-05
0 0 0
0 0 0
0 0 0
-1.5532e-05 0.0237193 0.0475756
-0.000143245 -0.000672316 0.0337604
-0.00557029 -7.51904e-05 0.137657
-0.000221817 0.00238646 0.0223491
0 0 0
0 0 0
5.85957e-05 -0.00073083 0.00585094
-0.000740456 0.0158154 0.0743138
0.000704687 0.00173268 0.0330801
2.50283e-08 -7.37757e-08 1.43128e-05
5.45874e-08 -2.67561e-08 -2.54727e-05
0 0 0
0.00662717 -0.167082 0.114581
-6.45098e-18 -2.09352e-17 8.90729e-18
-1.04626e-05 0.00245773 0.017873
0 0 0
1.4996e-06 3.27454e-06 -7.8246e-05
-0.0001051 -0.00131501 0.0104906
0.00072256 0.0156339 0.0740163
-0.000659986 0.00145688 0.0319472
-3.54038 -2.01472 20.3962
-2.62351 -5.35078 21.1689
-2.13106 -1.79061 17.7209
1.62888 0.92357 14.7945
0.35278 1.38679 12.7887
0.970121 0.900884 6.47272
-3.90361 0.69051 20.664
-3.60585 1.76869 16.6089
-2.16964 2.50922 20.1048
0.817793 -0.340102 15.3195
-0.697013 -1.05767 2.39516
0.0972527 -0.593309 17.8637
2.61464 -5.33715 21.182
2.14179 -1.77809 17.7327
3.53375 -2.02055 20.402
-0.41294 1.24571 12.2895
-1.17663 0.642531 6.74552
-1.59781 0.742826 14.7894
3.59981 1.74335 16.6811
2.17108 2.48262 20.107
3.89521 0.686518 20.6657
0.786014 -0.989769 1.66295
-0.13129 -0.438024 16.8562
-0.678041 -0.330274 15.2934
0.0980507 -0.685456 20.2261
-0.0755267 0.138234 16.7328
0.00438925 -0.279306 18.592
0.516345 -0.0433835 15.9512
-2.13181 -1.24375 21.4899
-3.67137 2.18787 21.4023
-0.558375 -0.525074 19.6594
-0.733301 0.250562 20.4821
0.066973 0.135531 16.7005
-0.101142 -0.693575 20.2299
-0.554914 -0.0427199 15.6666
-0.0167636 -0.304949 18.6398
3.67359 2.23067 21.3866
2.12747 -1.24289 21.4833
0.669814 0.293623 20.208
0.564373 -0.52591 19.6574
-0.953489 -0.579585 19.9958
-0.666503 -0.298814 19.8137
-0.616554 -0.469082 19.5966
-0.800274 -0.686209 21.2593
-1.51093 -0.82707 20.5212
-1.68765 -1.73348 20.5462
-0.0514587 -0.30306 21.4715
-0.381481 -0.553792 21.4545
-0.142303 -0.422464 21.618
0.452048 0.012607 21.7228
0.108764 -0.296705 21.6073
0.209991 -0.128475 21.646
1.0453 0.351182 21.3665
1.05664 0.19453 21.5801
0.99752 0.852062 21.2944
1.34088 0.323701 20.6452
1.31265 0.155088 21.3383
1.463 1.12967 21.3381
1.114 0.054997 21.3223
1.29644 0.793348 21.2341
-1.28586 -0.46931 19.8653
-0.836193 -0.125224 19.6521
-0.807122 -0.432476 19.3831
-1.08464 -0.739095 21.4037
-2.01451 -0.330699 20.5433
-0.108591 -0.503351 21.55
-0.83019 -0.682127 21.4747
0.531883 -0.240058 21.8356
-0.150809 -0.538293 21.7323
1.39095 0.0194911 21.3494
1.06522 -0.574301 21.4073
1.80492 0.076485 20.5463
1.44531 -0.489911 21.4922
1.9713 0.983284 17.5664
1.53978 -0.794355 20.0339
1.81364 0.67323 17.6365
-1.58821 0.155623 19.8375
-0.803992 0.330485 19.7706
-1.09732 0.141774 19.1624
-1.57719 -0.247998 21.1815
-1.45964 0.553088 20.4355
-0.792421 -0.504905 21.6586
-1.29976 0.131737 21.2963
0.0269715 -0.558572 21.8503
-0.538242 -0.145763 21.6618
0.744398 -0.879775 21.4498
0.0991211 -0.505825 21.5716
0.975034 -0.700845 21.4208
0.371735 -0.685076 21.1748
1.27545 -0.811872 17.1518
0.281197 -0.511022 21.4914
1.615 -1.32585 17.7786
-0.807977 0.57117 20.1546
-0.633334 0.611355 19.7711
-1.01073 0.5384 20.8181
-1.07667 1.0156 20.3349
-0.703442 0.237805 21.4344
-1.16976 0.844407 21.2397
-0.182963 -0.149725 21.5065
-0.485852 0.165664 21.695
0.103761 -0.414393 21.2911
-0.0786268 -0.312892 21.5098
0.147175 -0.39092 21.3567
0.133445 -0.500174 21.0316
-0.0225528 -0.367613 21.7311
-1.15656 -1.66349 19.1026
-0.64087 -0.606662 19.1337
-0.000577462 -0.855571 18.9915
-0.594221 -1.04362 22.1689
-0.00498281 -4.50349 21.4376
-0.0539651 -0.0387479 21.174
-0.00699624 -0.438643 21.1678
0.362317 0.600906 20.5036
-0.0134372 -0.0117379 19.6964
0.80057 1.53107 19.7321
-0.0373389 0.997906 17.5303
0.862194 1.74124 20.0074
1.39113 1.98654 16.0914
-0.0584131 1.74317 17.949
1.69232 1.4372 15.8657
-0.162592 2.07603 17.6191
-1.0583 -0.214453 18.529
0.00695681 -0.80011 18.4631
2.07918 1.65514 11.7201
1.94255 -0.173719 4.97381
-0.0529085 1.36976 5.336
2.34916 0.427488 11.1577
-0.152595 2.09725 11.4593
-0.898294 0.909547 18.9694
0.0187372 0.48268 17.3811
1.02411 -0.809679 6.96366
0.0146167 -1.11277 18.1598
0.433171 1.92403 -6.07485
0.174795 -1.36246 17.5428
0.504437 1.62331 -3.78915
-0.814835 1.30314 19.7778
0.0111438 1.09533 19.3453
-1.16409 1.59433 20.6118
0.0141936 2.13578 20.0374
-0.913742 0.978359 21.8408
-0.020068 2.68395 21.2089
-0.252506 -0.0586188 21.736
-0.0331029 0.672164 22.0959
-0.0899664 -0.435916 21.5226
-0.0439158 -0.0880658 21.6811
0.0553444 -0.776119 20.8907
-0.0280082 -0.3925 21.3929
-0.0903618 -0.349467 22.2265
1.15641 -1.6591 19.1185
0.648209 -0.599729 19.1478
0.621509 -0.466714 19.5905
0.588741 -1.03949 22.1678
1.69502 -1.73562 20.5479
0.0515466 -0.0463337 21.1065
0.141133 -0.422561 21.6117
-0.360236 0.58604 20.3788
-0.222296 -0.131815 21.613
-0.826161 1.44543 19.5904
-0.989948 0.832759 21.2374
-0.983768 1.61683 20.1431
-1.58144 1.85886 16.3294
-1.47538 1.05018 21.3164
-1.72691 1.29526 15.7858
-1.28677 0.618712 21.6129
1.07888 -0.214638 18.5518
0.812561 -0.434016 19.3906
-2.06959 1.33661 12.1788
-1.81218 -0.574183 5.00309
-1.88648 0.707614 17.9424
-2.28807 0.431426 12.4299
-1.72399 0.534982 18.0878
0.904288 0.890362 18.9954
1.09495 0.141499 19.1847
-0.832917 -0.698907 7.88812
-0.0527579 -0.913278 17.9765
-1.0782 -0.744452 17.497
-0.177991 -1.20984 17.2995
-1.54464 -1.33476 17.9948
0.822821 1.29111 19.783
0.636542 0.59645 19.7833
1.16018 1.58799 20.6104
1.07135 0.992224 20.3396
0.891646 1.0326 21.8548
1.16633 0.860419 21.2351
0.223399 -0.00608124 21.7146
0.487328 0.201256 21.7012
0.0672691 -0.338134 21.5402
0.0717156 -0.264926 21.4835
-0.0887495 -0.686089 20.8019
-0.155939 -0.457339 20.9764
0.0270685 -0.36439 21.9132
0.946622 -0.581196 20.0012
0.667617 -0.291075 19.8215
0.792307 -0.680626 21.2694
1.51013 -0.815824 20.5114
0.0418111 -0.312391 21.4668
0.376802 -0.554966 21.4514
-0.456347 -0.0109648 21.7074
-0.115438 -0.307546 21.595
-1.02116 0.296123 21.3775
-1.03011 0.137715 21.5468
-1.27802 0.293378 20.686
-1.24862 0.104679 21.3952
-1.13194 -0.000762584 21.2541
1.28764 -0.477435 19.8596
0.825429 -0.116298 19.6698
1.08125 -0.743228 21.3998
2.02474 -0.329919 20.5681
0.108609 -0.500531 21.5397
0.825654 -0.679331 21.4742
-0.511778 -0.264815 21.8052
0.157416 -0.539469 21.7142
-1.29287 -0.0658709 21.4078
-0.957691 -0.60269 21.3807
-1.68877 0.03978 20.7147
-1.2862 -0.48899 21.539
-1.34329 -0.699991 20.4531
1.56544 0.156478 19.8437
0.793408 0.321454 19.7843
1.57746 -0.254967 21.1814
1.44298 0.541453 20.4324
0.788957 -0.504211 21.644
1.30246 0.129738 21.2944
-0.00128481 -0.549249 21.8031
0.548698 -0.134939 21.6667
-0.620205 -0.829627 21.4602
-0.0506449 -0.468785 21.5618
-0.900427 -0.656972 21.3945
-0.320859 -0.637083 21.2217
-0.322513 -0.487838 21.5375
0.798769 0.558838 20.1617
1.00548 0.537313 20.8167
0.709378 0.253717 21.4349
0.194495 -0.125249 21.506
-0.0639421 -0.357293 21.2698
-0.101954 -0.36329 21.452
-1.12957 -0.556985 19.9407
-1.59987 -1.88636 18.5379
-1.23831 -1.0641 19.5974
-1.86323 -0.945243 19.1174
-0.730773 -0.472286 19.4967
-2.45435 -2.02785 20.5194
-0.950802 -0.743342 21.3336
-0.391814 -0.408918 18.7485
-0.727095 -1.00288 21.6845
-1.00237 -1.33217 22.075
0.0110938 -0.500956 21.4472
-0.0698741 -0.403244 21.5176
0.0875623 0.136467 16.0382
0.0717293 -0.215559 21.5777
0.303354 -0.310438 19.1982
0.23854 -0.242104 20.8644
0.508855 -0.0933849 21.7989
0.444423 0.573892 14.3476
0.577046 0.30401 21.6847
0.583205 0.2255 16.9945
1.37306 1.02488 19.3615
1.26369 0.230392 21.3628
0.751264 1.67462 14.2658
1.23923 0.993881 21.089
1.90562 0.828987 16.2124
1.66182 1.20305 19.0186
1.75866 0.2285 20.3902
1.37884 1.62285 15.8222
1.27968 0.99146 21.4292
2.02661 0.516561 18.5994
1.52297 0.77769 19.1991
-1.53921 -0.225653 19.7824
-3.18509 -0.488302 16.5316
-2.53579 0.531114 18.9486
-1.045 -0.158891 19.1634
-4.51694 -0.586545 20.5211
-1.39888 -0.566694 21.3388
-2.62454 -0.629493 21.5853
-0.537781 -1.52308 20.2896
-0.415305 -0.64082 21.636
-1.19939 -1.0736 20.5361
-0.0495754 -0.0430355 17.5729
0.354414 -0.525861 21.8357
0.212482 -0.00762871 17.6027
1.32921 -0.0232524 12.6361
1.31372 -0.579443 21.1005
0.193819 -0.701083 1.89156
0.840198 -0.602965 16.2267
2.04303 -0.380743 14.4402
1.31836 -0.467198 21.2617
2.35173 0.946302 8.65921
1.5615 -1.24674 17.47
2.08507 -0.19714 16.6451
-1.20089 0.523193 19.9743
-1.65914 1.97421 19.0517
-0.884405 0.897209 19.9761
-0.894121 0.537954 19.435
-2.01137 1.24388 20.3176
-1.4611 0.329073 20.9084
-2.54538 2.05447 20.4168
-1.19909 0.993289 20.7463
-2.15913 0.554841 21.4476
-0.939266 -0.0212873 21.591
-2.36189 0.773931 22.2032
-0.877839 0.509975 21.6223
-0.78032 -0.0501138 21.9707
-0.176393 -0.310771 21.6855
-0.0214354 -0.127708 19.1083
-0.234466 -0.11358 21.6358
-0.0358577 -0.641514 21.6757
0.261203 -0.619241 21.4878
0.010537 -0.735582 18.662
0.0226734 -0.422935 21.345
0.25127 -0.889137 21.6607
0.667961 -0.601026 20.7632
0.265381 -1.12789 17.8717
0.114516 -0.602987 21.6587
0.22386 -0.87793 20.5041
1.60864 -1.88177 18.5542
0.00163047 -2.51698 18.4777
0.0164248 -3.12772 15.781
0.000460153 -0.940595 18.6718
-0.000621474 -6.31289 23.3851
0.390155 -0.40745 18.7287
-0.0055057 -1.30094 22.5165
-0.00642583 -0.0490692 12.6433
-0.105253 0.126132 15.8918
-0.0100984 -0.212127 20.1421
-0.0124896 0.040576 12.167
-0.476692 0.543065 14.0116
-0.0198342 0.434857 18.3918
-0.0900407 0.789213 8.93859
-0.862833 1.52835 14.1768
-0.0634525 1.23629 17.4604
-0.217934 0.0267285 3.04493
-0.107022 1.9034 11.7801
-1.45349 1.41373 15.8408
-0.113315 2.30133 17.942
-0.0610619 1.56389 6.37734
-0.166862 2.11013 14.9773
3.19046 -0.482258 16.5671
0.0264909 4.20502 12.8815
0.00611771 -0.290002 17.7014
-0.0565832 -1.01608 1.8597
0.0913634 0.87589 -4.39361
0.216801 0.892428 -1.58969
-2.1778 0.675744 8.70558
0.745372 2.22936 -6.54944
0.190334 2.11602 1.63312
1.66517 1.94016 19.076
0.013497 1.76994 19.5767
0.0162541 1.33969 18.4221
0.0122847 3.87911 19.824
2.53986 2.04673 20.4164
0.00134188 2.3732 20.3787
-0.0170854 5.73779 20.4315
2.37988 0.801332 21.9985
-0.0368792 1.72746 22.1432
-0.0354492 0.616455 18.8527
-0.0850698 -0.070164 18.4577
-0.0384462 0.123897 21.837
-0.199422 0.0260653 10.9551
-0.012368 -0.508698 18.0897
-0.0577062 -0.200029 21.6465
-0.376685 -0.335385 11.4557
-0.283592 -0.965555 17.6243
-0.019906 -0.610001 21.2269
-0.133422 -0.876442 13.2863
1.12707 -0.559367 19.9419
1.24189 -1.06656 19.6019
1.85616 -0.939502 19.1335
0.733404 -0.471477 19.4922
2.45775 -2.0335 20.5189
0.939576 -0.730591 21.3391
0.727026 -0.998286 21.6801
0.993456 -1.32959 22.0645
-0.0130279 -0.500219 21.4324
0.0650635 -0.408048 21.5118
-0.0770446 -0.214773 21.5637
-0.307054 -0.329303 19.2447
-0.249477 -0.254817 20.8008
-0.506112 -0.115386 21.7777
-0.58642 0.305689 21.606
-0.595842 0.159805 17.0619
-1.34803 0.952404 19.044
-1.20998 0.149642 21.3762
-1.24134 0.927423 21.0858
-1.80945 0.579504 16.7245
-1.63354 0.998384 19.3097
-1.65244 0.170612 20.4992
-1.33246 0.854158 21.5281
-2.02558 0.330984 19.2973
-1.46459 0.621109 19.6847
1.53474 -0.212383 19.7968
2.51421 0.520619 18.9766
1.04353 -0.157498 19.1851
4.50678 -0.590506 20.5224
1.40086 -0.570304 21.3346
2.61755 -0.6306 21.5795
0.53743 -1.52548 20.2915
0.417472 -0.641728 21.6279
1.20007 -1.0705 20.5413
0.0508957 -0.073404 17.6258
-0.32389 -0.534536 21.804
-0.183512 -0.0286361 17.6653
-1.20124 -0.136727 12.6393
-1.16508 -0.632223 21.2698
-0.656321 -0.57956 16.723
-1.82566 -0.496057 15.2261
-1.23493 -0.435023 21.3289
-1.43493 -1.22186 17.9874
-1.94591 -0.365826 17.0712
1.18525 0.504445 19.9886
0.883688 0.873948 19.9848
0.894549 0.52833 19.4518
1.99554 1.21867 20.3186
1.45505 0.33303 20.91
1.19405 0.989106 20.7431
2.16534 0.567512 21.4419
0.952405 -0.0196728 21.5873
0.876853 0.54701 21.6273
0.793469 -0.0264483 21.9691
0.19051 -0.29374 21.668
0.231192 -0.0800339 21.6329
0.0952949 -0.560235 21.6264
-0.208865 -0.572802 21.4626
-0.0153161 -0.367681 21.3454
-0.191332 -0.764934 21.6621
-0.649086 -0.607987 20.7854
-0.100221 -0.574612 21.7557
-0.173214 -0.800676 20.6881
-1.48637 -1.0911 19.4304
-0.793688 -1.15098 21.9738
0.214607 -0.231259 21.0389
0.738408 0.277826 20.3076
1.59299 1.07153 19.485
1.64512 0.742227 19.7563
-2.47306 -0.309121 18.8218
-1.60637 -1.3127 21.8551
0.0085648 -0.848604 18.5821
0.448216 0.342792 16.1418
1.47992 -0.263161 13.6822
2.02407 0.197816 15.5157
-1.5757 1.04034 19.5934
-2.11137 0.852757 20.8467
-1.47095 0.161594 21.9482
-0.315578 -0.334024 21.8972
0.0981432 -0.78089 21.4904
0.507352 -1.13755 21.4713
0.00507718 -3.04096 17.4649
-0.003998 -0.447972 14.9544
-0.0093287 -0.0152701 11.9968
-0.0294883 0.365 10.5433
-0.142445 0.805723 9.92229
-0.0894515 1.82152 11.814
0.0245528 -0.830809 12.7987
0.0766173 0.0700384 -1.06542
0.118976 1.3188 2.25776
0.0160891 3.2371 18.3923
-6.53739e-05 3.69279 19.625
-0.0359166 2.79046 21.0302
-0.0425545 -0.0620431 15.363
-0.311699 0.0948932 11.412
-0.202955 -0.779462 12.2035
1.49532 -1.09276 19.4239
0.789221 -1.15118 21.9667
-0.220198 -0.23282 20.9999
-0.751403 0.253151 20.1311
-1.5659 0.914402 19.4949
-1.65536 0.56829 20.3562
2.45899 -0.312334 18.8575
1.60002 -1.3151 21.8513
-0.00543568 -0.860549 18.6131
-0.430556 0.289414 16.2168
-1.28223 -0.415751 14.2505
-1.85111 0.0041995 16.2744
1.56435 1.00931 19.6099
2.10174 0.851048 20.843
1.49246 0.183193 21.9515
0.334132 -0.295046 21.8541
-0.0286485 -0.665336 21.4649
-0.491232 -1.03483 21.4021
-1.05385 -0.196034 0.714404
-0.00582637 -0.0470637 0.331966
-0.0258299 0.00524666 0.263228
0.0115646 -0.0472872 -0.00166009
-0.00282042 -0.000624815 0.0357272
-0.0360858 0.083246 0.428969
-0.105798 -0.00144069 0.157028
-0.0358675 0.0856805 0.293099
-0.712855 -0.0376978 1.56267
-0.0106303 -0.0168631 -0.00366414
-0.100187 -0.0137127 -0.012382
0 0 0
0.00519212 -0.0502189 0.351452
1.05453 -0.197038 0.722672
0.0308322 0.00527909 0.298052
-0.0112277 -0.0033475 0.0331733
-0.0226097 -0.0623195 0.000996788
0.0271112 0.0789464 0.42018
0.0360713 0.0854805 0.293081
0.138083 -0.00226366 0.205179
0.708558 -0.0382661 1.5557
0.082024 0.0138789 -0.0345615
0.0113615 -0.0194974 -0.00372882
0 0 0
-0.00799075 0.00772781 0.141358
0.00350487 9.26211e-05 0.0985696
0 0 0
0 0 0
-0.00181288 0.00872986 0.244156
0.0136053 -0.000469812 0.214172
0 0 0
0 0 0
-0.140643 -0.0888334 0.342382
0.000882508 0.00801249 0.0593703
0 0 0
-0.07306 0.0706848 0.166535
0 0 0
0.00259823 0.010519 0.0220927
0 0 0
0.0190633 0.00203883 0.114466
0.011426 0.0110572 0.210579
1.85423e-18 -2.63962e-19 -3.22387e-17
-0.0029683 7.03813e-05 0.0774665
0 0 0
0.00011296 0.00814981 0.235752
0 0 0
-0.0141327 -0.00048686 0.21004
0 0 0
0.129611 -0.0817956 0.315342
0.0733378 0.0717528 0.167654
-0.000911275 0.00835581 0.0624138
0 0 0
0 0 0
-0.0200204 0.00220944 0.114772
-0.00206951 0.0126314 0.0247447
3.49073e-18 -7.80147e-18 -2.61765e-17
-0.000252599 -0.0007028 0.00680963
-0.293359 0.110967 0.181695
2.02715e-07 -4.79905e-07 2.81671e-05
8.06578e-05 -0.17859 0.0427143
1.79177e-05 -6.77874e-05 0.00371452
-2.30035e-07 1.07623e-07 -1.24812e-05
0.00709762 0.000187081 0.0558709
0 0 0
0 0 0
-0.0215601 -0.0508603 -0.0330529
-2.74895e-07 -1.38965e-06 -2.68759e-05
0 0 0
0.000206299 0.0938584 0.0531089
5.71655e-07 0.0090815 0.0460362
-0.00298755 -0.00978023 0.0351884
-0.00434922 0.00055335 0.00840416
0 0 0
-0.00709228 -0.0117748 0.0632435
0 0 0
1.58325e-05 -1.73022e-05 0.000415251
0.289754 0.110062 0.181086
0.00026029 -0.000730787 0.00701122
3.37789e-08 1.50364e-08 -1.73571e-06
-2.34781e-05 -9.22795e-05 0.00481861
0 0 0
-0.0069091 -0.00092123 0.0545879
0 0 0
1.73192e-06 -7.39002e-06 -0.000170191
0.00429707 0.000550888 0.00833666
0.00335575 -0.0109879 0.0395022
-2.61639e-05 -1.52785e-05 0.000369018
0 0 0
-0.000521949 0.0100785 0.0681559
0 0 0
0 0 0
-0.00181158 0.0180892 0.0792164
-2.30472e-07 -6.04628e-07 -9.33175e-05
4.84262e-08 -3.46352e-08 -1.54744e-05
-0.000639894 0.0199033 0.0528939
-0.000224372 0.00540781 0.060591
-4.10152e-08 8.29905e-09 1.58974e-05
0 0 0
0.0033007 0.0180542 0.0586486
-0.0522135 0.0427648 0.7604
-8.02587e-06 0.00369339 0.0122438
9.39731e-06 0.000705459 0.00271324
-4.64857e-05 0.000301993 0.0204132
0 0 0
0 0 0
0.000518362 0.0103033 0.0705968
6.10001e-18 7.34968e-18 -1.27421e-16
0.00178541 0.017918 0.0789691
0.000606381 0.0190297 0.0508719
0.000233999 0.0051127 0.0595775
0.0505503 0.0432923 0.7609
-0.00328388 0.0179347 0.0585083
-4.507e-05 -7.67995e-05 0.000736807
-0.157275 -0.180534 0.75348
0 0 0
0.000609675 -0.00137764 0.0210572
-5.43796e-05 0.00204046 0.0147236
0.000615503 0.0171324 0.0617241
-0.00227456 0.0159859 0.118147
0.0304484 0.138962 0.385672
-3.65416e-05 0.000166103 0.00574306
0.00187755 0.0257389 0.129576
0.0017423 0.000350833 0.0195308