# vtk DataFile Version 2.0
tri_press
ASCII
DATASET UNSTRUCTURED_GRID
POINTS 3682 float
-0.886818 0.145 -1.725
-0.625 0.255 2.08297
-0.650347 0.645 -1.935
-0.515 0.917166 1.975
0.886817 0.145 -1.725
0.625 0.255 2.08166
0.655 0.649046 -1.925
0.505 0.915067 1.985
-0.834615 0.146597 -0.455677
-0.788693 0.141913 0.813647
-0.728472 0.858963 -0.631667
-0.685487 0.951815 0.671667
0.834616 0.146596 -0.456113
0.788694 0.141911 0.812773
0.728186 0.860906 -0.621667
0.68286 0.954254 0.681667
-1.66212 -0.263945 -2.67336
-1.65357 -0.194748 -1.64433
-1.60019 -0.19209 -0.375921
-1.50726 -0.204094 0.885658
-1.37575 -0.136099 2.15349
-1.34616 -0.0849506 3.17969
-1.35972 -0.0443845 4.2111
-1.65116 0.0445634 -2.76384
-1.64 0.1368 -1.73137
-1.58944 0.167074 -0.456315
-1.48081 0.16106 0.815741
-1.30538 0.221709 2.09021
-1.30073 0.270883 3.11717
-1.33558 0.311525 4.14761
-1.54923 0.624564 -2.95604
-1.47489 0.713363 -1.92677
-1.48775 0.871482 -0.628717
-1.39331 0.935238 0.672013
-1.22029 0.928172 1.9699
-1.25448 0.97335 2.99741
-1.31371 1.02214 4.02359
-1.46789 1.63288 -3.2166
-1.43305 1.73911 -2.18115
-1.42475 1.90605 -0.872298
-1.4051 2.02265 0.444425
-1.36359 2.06281 1.75394
-1.35019 2.08604 2.79076
-1.35909 2.11995 3.8205
-0.882768 -0.260247 -2.669
-0.86693 -0.187531 -1.63928
-0.827861 -0.201953 -0.374599
-0.788292 -0.217137 0.883003
-0.70174 -0.121108 2.14758
-0.683213 -0.0751925 3.17651
-0.693996 -0.040763 4.21025
-0.891325 0.0406108 -2.76043
-0.655306 0.281155 3.11552
-0.680699 0.314615 4.14779
-0.809046 0.595483 -2.95697
-0.622148 0.970953 3.00129
-0.669119 1.02089 4.02664
-0.727311 1.61321 -3.21753
-0.693698 1.72065 -2.18239
-0.699922 1.90217 -0.871628
-0.712439 2.02832 0.448184
-0.700956 2.06427 1.75962
-0.693356 2.08455 2.79632
-0.697654 2.11823 3.82525
0.753833 -0.259477 -2.6663
0.837652 -0.187299 -1.63835
0.814133 -0.201803 -0.374159
0.752246 -0.217045 0.883092
0.641688 -0.12113 2.14761
0.625259 -0.0753892 3.17851
0.628288 -0.0409372 4.21354
0.726954 0.0416802 -2.75712
0.600861 0.280745 3.1181
0.614084 0.31432 4.15155
0.664981 0.597803 -2.95037
0.559213 0.970019 3.00756
0.596212 1.02047 4.03185
0.740927 1.61508 -3.21069
0.759649 1.72257 -2.17499
0.74108 1.90379 -0.864002
0.675302 2.02945 0.455777
0.614894 2.06462 1.76693
0.606915 2.08458 2.803
0.617054 2.11825 3.83128
1.55984 -0.262204 -2.66692
1.63495 -0.193626 -1.63976
1.60327 -0.191235 -0.372117
1.50269 -0.203622 0.888942
1.35793 -0.13626 2.15681
1.31133 -0.0852824 3.18497
1.30899 -0.044632 4.21805
1.53805 0.0468112 -2.75621
1.63735 0.138346 -1.72549
1.60298 0.168257 -0.451052
1.49893 0.161703 0.820469
1.32206 0.221082 2.09474
1.27612 0.270197 3.12365
1.2865 0.311083 4.15541
1.45802 0.628394 -2.94396
1.48611 0.717666 -1.9129
1.50702 0.874492 -0.614782
1.40977 0.937475 0.685747
1.22958 0.926833 1.98327
1.22268 0.972168 3.00882
1.25918 1.02154 4.03381
1.48302 1.63637 -3.2034
1.49295 1.74263 -2.16707
1.46841 1.90905 -0.857836
1.38816 2.02475 0.45881
1.30451 2.06362 1.7678
1.28324 2.08627 2.80364
1.29161 2.1201 3.83233
-0.776583 0.395 -1.838
-5.06639e-07 0.14266 -1.72734
-0.860303 0.146212 -1.09034
-0.624604 0.586083 2.08359
0 0.272196 2.06512
-0.689898 0.215405 1.44831
0.00232649 0.716692 -1.99967
-0.712466 0.775038 -1.28333
-0.005 0.936575 2.00046
-0.639211 0.973458 1.32333
0.77844 0.397023 -1.83253
0.860309 0.146205 -1.09056
0.617905 0.585034 2.08623
0.689861 0.215442 1.44722
0.713509 0.776892 -1.27333
0.633792 0.974523 1.33333
-0.819932 0.135976 0.178985
-0.806209 0.50278 -0.543672
2.98394e-07 0.132168 -0.455895
-0.832266 0.546864 0.742657
5.3708e-07 0.139644 0.81321
-0.70296 0.90137 0.02
-0.000142899 1.05122 -0.626667
-0.00131333 1.25384 0.676667
0.819933 0.135976 0.17833
0.804897 0.503751 -0.53889
0.831055 0.548083 0.74722
0.700884 0.90294 0.03
-0.897243 0.44889 -1.18684
0.897391 0.450387 -1.18195
-1.04123e-07 0.132618 -1.09045
0.00109179 0.86704 -1.27833
0.00116299 0.396011 -2.24393
-0.816676 0.524822 0.0994925
0.814904 0.525917 0.104165
4.17737e-07 0.132463 0.178657
-0.000728113 1.25758 0.025
-0.896352 0.566474 1.38582
0.896317 0.566558 1.39028
2.6854e-07 0.198139 1.44776
-0.00315666 1.10025 1.32833
-0.0025 0.585558 2.23616
-0.8237 0.27 -1.7735
-0.443409 0.142482 -1.72752
-0.858311 0.160855 -1.40767
-0.624723 0.420541 2.0832
-0.3125 0.33126 2.00638
-0.661439 0.231213 1.76564
-0.733676 0.52 -1.90671
-0.32401 0.69705 -1.98354
-0.697226 0.725838 -1.60917
-0.54525 0.751624 2.00474
-0.26 0.935943 1.9968
-0.581959 0.950165 1.64917
0.443408 0.142478 -1.72752
0.825869 0.271011 -1.77201
0.85784 0.161325 -1.40778
0.3125 0.331275 2.00571
0.621804 0.420017 2.0843
0.659979 0.232672 1.76444
0.328663 0.698435 -1.9779
0.737574 0.523035 -1.89962
0.698458 0.727172 -1.59917
0.25 0.935319 2.00223
0.537002 0.75005 2.01117
0.575527 0.950926 1.65917
-0.837627 0.156237 -0.773008
-0.830544 0.138016 -0.138346
-0.801495 0.334147 -0.499674
-0.419512 0.134974 -0.455786
-0.710836 0.207119 1.13098
-0.801729 0.141528 0.496316
-0.867851 0.315703 0.778152
-0.394536 0.1404 0.813428
-0.713856 0.810388 -0.9575
-0.818449 0.706426 -0.587669
-0.712392 0.876842 -0.305833
-0.394782 1.01604 -0.629167
-0.677262 0.97755 0.9975
-0.810544 0.775174 0.707162
-0.694763 0.927132 0.345833
-0.403223 1.22247 0.674167
0.837623 0.15624 -0.773335
0.419512 0.134974 -0.456004
0.830954 0.137606 -0.138892
0.800274 0.334914 -0.497502
0.71086 0.207094 1.13
0.394537 0.1404 0.812992
0.80173 0.141527 0.495552
0.867946 0.315961 0.779997
0.712819 0.81087 -0.9475
0.394993 1.018 -0.624167
0.816858 0.707486 -0.580278
0.710606 0.877994 -0.295833
0.674401 0.980463 1.0075
0.399827 1.22215 0.679167
0.808726 0.777052 0.714443
0.692425 0.92915 0.355833
-0.897098 0.421945 -1.51242
-0.38771 0.395506 -2.16716
-3.05381e-07 0.138121 -1.40889
0.000581242 0.269336 -2.15881
-0.896232 0.297551 -1.13859
-0.430152 0.132618 -1.09039
-0.779747 0.576278 1.7347
-0.313552 0.585821 2.20899
1.3427e-07 0.242511 1.75644
-0.00125 0.428877 2.14626
-0.888618 0.390939 1.41706
-0.344949 0.198163 1.44804
0.00170914 0.816923 -1.639
0.00174474 0.556352 -2.20942
-0.896084 0.611964 -1.23508
-0.355687 0.855328 -1.28083
-0.00407833 0.983381 1.6644
-0.00375 0.761067 2.13165
-0.826442 0.769966 1.35458
-0.321184 1.08277 1.32583
0.897087 0.423705 -1.50724
0.389802 0.396517 -2.16544
0.896222 0.298296 -1.13625
0.430155 0.132617 -1.0905
0.777303 0.575796 1.73825
0.307702 0.585296 2.21016
0.888611 0.391 1.41875
0.34493 0.198115 1.44749
0.896042 0.61364 -1.22764
0.357301 0.85571 -1.27583
0.823626 0.77054 1.3618
0.315318 1.08178 1.33083
-0.830046 0.324528 0.139239
-0.409204 0.135744 0.178821
-0.800493 0.475835 -0.865254
-0.810863 0.513801 -0.22209
9.71359e-08 0.13265 -0.773171
3.58066e-07 0.133148 -0.138619
-0.820539 0.535843 0.421075
-0.896762 0.556669 1.06424
4.77409e-07 0.139863 0.495934
4.0281e-07 0.166958 1.13049
-0.811931 0.739152 0.0597463
-0.422913 1.22161 0.0225
0.000474448 0.908216 -0.9525
-0.000435506 1.1813 -0.300833
-0.00102072 1.27587 0.350833
-0.00223499 1.19201 1.0025
0.829892 0.32471 0.141248
0.409204 0.135744 0.178494
0.799232 0.477069 -0.860418
0.809866 0.514834 -0.217363
0.819105 0.537 0.425693
0.896768 0.55732 1.06875
0.810473 0.740718 0.0670825
0.42095 1.222 0.0275
-0.896337 0.283775 -1.46004
-0.78297 0.31112 -0.819131
-0.815676 0.646418 -0.911377
-0.896247 0.565982 -1.56079
0.896326 0.284654 -1.45751
0.896268 0.568337 -1.5532
0.814486 0.647984 -0.903959
0.78177 0.311735 -0.816876
-0.43678 0.138071 -1.40828
0.436781 0.138072 -1.40834
0.423731 0.13265 -0.773253
-0.42373 0.13265 -0.77309
-0.339849 0.804703 -1.62408
-0.359997 0.891471 -0.955
0.360661 0.891971 -0.95
0.342982 0.805526 -1.61908
-0.41556 0.269668 -2.13297
-0.35586 0.538176 -2.13562
0.359232 0.539693 -2.13226
0.416605 0.270174 -2.13215
-0.816975 0.328735 -0.180218
-0.837408 0.325886 0.458695
-0.806751 0.75492 0.383454
-0.815471 0.72293 -0.263962
0.816433 0.329137 -0.178127
0.81372 0.724129 -0.256598
0.804672 0.756421 0.390763
0.837464 0.326063 0.460622
-0.414357 0.13536 -0.138482
0.414358 0.135359 -0.138755
0.400628 0.140557 0.495743
-0.400627 0.140558 0.496125
-0.422164 1.14546 -0.303333
-0.42034 1.23658 0.348333
0.417712 1.23672 0.353333
0.421579 1.14722 -0.298333
-0.884713 0.367664 1.09761
-0.7786 0.40574 1.75017
-0.750423 0.760795 1.69194
-0.831929 0.759653 1.03087
0.884725 0.367999 1.09937
0.830784 0.760854 1.03812
0.746285 0.760295 1.69871
0.77667 0.405508 1.75135
-0.369647 0.166979 1.13073
0.369639 0.166936 1.13024
0.328715 0.242866 1.76044
-0.328724 0.243019 1.76104
-0.332292 1.17511 1
-0.290592 0.979163 1.65678
0.282659 0.978505 1.66178
0.328046 1.17372 1.005
-0.313026 0.424709 2.14823
0.310101 0.424447 2.18411
0.278851 0.755558 2.11666
-0.286776 0.756346 2.11577
-0.846471 0.2075 -1.74046
-0.665114 0.141653 -1.72835
-0.863794 0.161698 -1.56633
-0.625118 0.337771 2.08334
-0.46875 0.273263 2.06454
-0.641801 0.244524 1.9243
-0.690978 0.5825 -1.91982
-0.487179 0.672754 -1.961
-0.672693 0.684325 -1.77208
-0.537167 0.834395 1.99691
-0.3875 0.93352 1.99287
-0.552771 0.937957 1.81208
0.665113 0.141655 -1.72835
0.846682 0.208006 -1.73884
0.863121 0.16237 -1.56639
0.46875 0.276015 2.06081
0.623661 0.337508 2.08324
0.641998 0.244328 1.92305
0.491832 0.674487 -1.9522
0.69547 0.58604 -1.91149
0.674269 0.685649 -1.76208
0.3775 0.932796 2.00122
0.52802 0.832559 2.0051
0.545036 0.937768 1.82208
-0.837377 0.150161 -0.614342
-0.831829 0.143057 -0.297011
-0.796385 0.251207 -0.477676
-0.630034 0.134844 -0.455731
-0.718939 0.205341 0.972312
-0.795248 0.141684 0.654981
-0.876397 0.204745 0.795899
-0.591681 0.141024 0.813538
-0.716338 0.829849 -0.794583
-0.801093 0.796511 -0.609668
-0.718971 0.866441 -0.46875
-0.579227 0.9727 -0.630417
-0.681208 0.964516 0.834583
-0.749448 0.864211 0.689414
-0.689664 0.939013 0.50875
-0.575801 1.15004 0.672917
0.837381 0.150156 -0.614724
0.630034 0.134843 -0.456059
0.831834 0.143052 -0.297503
0.795515 0.25172 -0.476808
0.71896 0.20532 0.971384
0.591681 0.141024 0.812883
0.795248 0.141683 0.654163
0.876406 0.204894 0.796385
0.714919 0.830304 -0.784583
0.579613 0.975501 -0.622917
[...]
POINT_DATA 3682
SCALARS point_scalars float 1
LOOKUP_TABLE default
-106.466
-33.9366
-18.5485
-31.0385
-107.564
-33.8065
-22.2034
-30.5578
-32.2168
-55.6485
-51.3316
-46.636
-32.251
-55.7957
-52.614
-46.6823
-36.9554
-132.827
-30.9814
-47.9474
-36.5158
-31.9696
-29.8729
-55.3278
-145.185
-31.4833
-42.2904
-36.036
-31.9696
-28.7607
44.3015
-101.43
-45.9709
-39.155
-37.968
-29.4929
-28.3043
7.41648
-40.7375
-64.0163
-58.6571
-39.8764
-30.8371
-28.4754
-74.1272
-150.279
-32.2638
-52.5612
-33.9366
-27.9962
-27.9962
29.114
-27.9962
-26.5257
150.987
-27.8704
-26.6772
51.7973
-42.193
-19.3052
-65.9833
-41.5415
-28.948
-28.0759
-71.9168
-135.773
-32.7152
-52.9313
-33.8009
-27.9053
-27.9053
92.6869
-27.9053
-26.0215
169.433
-26.7819
-26.3845
48.2275
-38.7615
-21.027
-66.8615
-40.0873
-27.9338
-27.9338
-54.1395
-127.523
-31.0346
-48.0348
-36.616
-31.778
-29.6289
-54.1395
-146.152
-31.4473
-42.2031
-36.0755
-31.778
-28.5915
46.6558
-100.895
-45.8831
-39.1553
-37.5155
-29.3153
-28.1502
7.87725
-40.5661
-63.0229
-58.1715
-39.4805
-30.6469
-28.3152
18.0642
-77.6061
-53.3263
-29.6398
-28.6511
-38.6572
-23.028
-54.6786
-29.1364
-47.4517
19.6335
-53.4375
-29.3493
-38.9759
-54.8863
-46.9208
-34.7648
-35.2462
-37.0409
-29.9567
-41.7979
-51.1589
1.25528
-66.5429
-34.7645
-35.1723
-29.6277
-51.1117
-61.6995
-61.4944
-46.6097
-19.2809
193.878
-35.0109
-34.9476
-37.3113
-84.276
-50.6974
-50.8473
-38.2556
-41.3994
-20.2378
-5.40808
-81.6159
-67.6442
-30.0535
-30.6085
-37.4945
8.31557
-22.6713
-48.9144
-29.8886
-29.2981
-37.5066
-81.9413
-6.53474
-67.6937
-30.4155
-29.8296
-36.8748
-24.2231
4.40165
-49.4104
-29.1284
-29.5007
-37.1053
-37.3664
-32.3953
-32.4947
-36.3975
-38.7368
-34.1434
-30.1775
-41.9874
-36.6668
-43.0614
-55.8642
-5.86272
-49.9506
-39.646
-47.7711
-63.0696
-37.484
-36.4281
-32.2553
-32.4563
-38.1839
-42.0411
-34.1729
-30.1797
-35.9309
-6.29592
-43.0718
-55.946
-49.9711
-62.9714
-39.7602
-47.5939
-95.841
158.558
-57.3564
166.645
-57.681
-47.3515
-39.2422
-26.6108
-34.1957
-23.2533
-46.6293
-38.429
-36.5584
154.037
-67.4044
-25.5508
-34.3164
-23.0286
-53.3084
-42.2462
-95.2403
157.498
-57.6664
-47.4085
-38.8556
-26.2377
-46.5618
-38.4123
-67.0167
-25.404
-53.1473
-42.1045
-32.5267
-36.6942
-43.0231
-34.7865
-40.2584
-36.0861
-33.7934
-46.3543
-37.8519
-41.4039
-42.0509
-78.7955
4.61502
-44.1645
-79.5723
-52.4642
-32.3778
-36.9576
-42.9603
-34.7215
-33.6628
-46.3544
-42.0154
-78.58
-83.4644
-40.6957
-45.6956
-115.386
-83.3473
-115.29
-45.555
-40.707
-59.9245
-60.0491
-40.0103
-39.8731
-40.2186
-4.34897
-4.30937
-40.2094
108.25
129.13
129.003
108.42
-32.1686
-32.2056
-41.6781
-42.921
-31.9802
-42.8052
-41.3656
-32.114
-35.3975
-35.4355
-37.66
-37.6291
-42.9312
-70.9988
-70.9495
-43.3576
-43.4013
-39.3016
-40.4328
-45.445
-43.3685
-45.8975
-39.9744
-38.992
-40.9125
-40.9006
-34.8194
-34.9003
-53.404
-34.8998
-34.7613
-53.2339
-25.7179
-25.8947
-26.1382
-26.5081
-20.5279
-96.0036
-95.1314
-32.1929
-31.5442
-34.1817
4.57279
-23.2129
-38.6942
-30.4182
-29.7853
-34.1398
-96.3001
-21.9997
-95.39
-31.4121
-31.989
-34.1719
-26.1692
0.481706
-38.0562
-29.4779
-29.9844
-33.6878
-33.9322
-31.6587
-32.0636
-35.067
-40.4634
-35.8444
-43.202
-45.466
-37.0509
-48.7499
-58.6866
-19.6612
-47.7551
-45.1916
-46.9788
-55.7737
-33.9785
-35.1031
-31.8644
-32.0535
-40.7122
-45.7488
-35.8871
-43.4105
-37.4158
-21.1247
-48.8426
-58.0028
-47.8558
-55.7427
-45.2782
-46.7924
18.1951
11.6883
-143.232
105.045
-78.6708
-78.7206
-66.7692
51.3692
-53.8249
-47.6527
-56.6139
-48.1482
-29.6843
-29.5004
-34.0327
-28.1506
-29.094
-28.9779
-30.4846
-24.4818
-39.4381
-37.5366
-43.3817
-38.7089
-24.6143
-24.5498
-35.9862
47.5098
-57.632
-44.8686
-73.9819
-34.9189
-29.1518
-29.0836
-31.8566
-25.0944
-41.9161
-51.8881
-48.9391
-43.7013
18.1325
12.7984
-144.735
103.63
-53.8058
-47.7534
-56.6792
-48.2122
-29.4216
-29.15
-33.7128
-27.9403
-39.2482
-37.5957
-43.4089
-38.7692
-58.2075
-44.2224
-73.5512
-34.9479
-41.6037
-52.175
-48.6467
-43.4214
-33.1384
-33.8168
-33.0318
-35.9698
-33.7722
-37.7461
-37.5093
-34.6312
-36.8601
-36.8742
-38.2769
-36.2758
-26.2108
-34.1433
-32.0868
-35.6757
-41.8245
-41.8367
-39.4636
-43.5125
-54.0836
-49.5706
-47.7557
-65.8088
-0.181082
-0.586975
9.62489
-18.1793
-65.9952
-65.9116
-73.5897
-59.7593
-34.1183
-33.1888
-32.8856
-36.2134
-33.7168
-37.6606
-37.4203
-34.5643
-25.7206
-33.9995
-31.9488
-35.9943
-53.9081
-49.4717
-47.8384
-65.4892
-73.9275
-59.4039
-63.6842
-55.5596
-73.577
-59.2882
-63.3911
-55.3098
-50.3915
-46.8729
-46.7753
-42.981
-30.6153
-20.8899
-20.7875
-7.62446
189.638
158.197
196.364
189.533
-33.7707
-34.887
-34.7588
-37.2361
-33.598
-35.0153
-34.6843
-37.1507
-37.136
-36.3864
-37.5942
-37.144
-83.9859
-80.6688
-83.8431
-83.9077
-49.3228
-48.3943
-54.5796
-47.56
-48.7929
-48.3859
-55.0632
-47.6249
-36.833
-38.3137
-38.2983
-39.728
-37.4545
-41.6003
-41.5336
-46.5254
-22.6999
-24.0548
-23.6885
-22.1485
-131.599
51.7681
-70.6201
4.10321
-77.3104
-63.1703
-34.2159
-28.589
-33.0162
-26.8296
-40.2273
-35.6924
-33.841
96.8937
-38.2494
61.822
-87.4539
-43.0273
-34.8485
-28.0869
-32.1077
-26.7871
-39.9576
-35.595
-70.8091
-3.72509
-131.232
48.6065
-77.3988
-63.2087
-32.9184
-26.8095
-33.913
-28.3999
-40.0695
-35.5409
-38.2687
56.8617
-38.0502
93.7855
-91.3523
-43.0261
-31.9704
-26.5603
-34.4075
-27.7898
-39.589
-35.3739
-39.7295
-39.2785
-32.2895
-34.4567
-35.0805
-31.9658
-37.8389
-35.4816
-41.6891
-39.676
-32.0863
-37.0186
-27.7692
-44.957
-39.5882
-43.2597
-48.0076
-17.163
-42.4741
-42.9808
-49.1072
-66.1188
-0.316487
-19.0682
-48.5069
-54.8733
-38.812
-41.0159
-45.443
-57.8098
-67.1825
-59.3957
-39.7896
-39.3284
-37.8646
-35.5135
-32.2587
-34.5041
-35.0525
-31.9958
-41.6551
-39.0336
-39.6409
-43.231
-32.0422
-37.0613
-27.667
-44.9885
-47.6756
-17.1637
-0.338822
-19.5293
-42.4172
-42.8941
-48.9519
-64.9048
-48.5776
-54.4786
-67.0918
-59.3111
-38.7348
-41.229
-45.3242
-57.7267
-89.5866
-103.249
143.089
155.758
-58.0554
-58.0995
158.494
157.969
-66.2964
-52.9037
-51.6284
-43.0416
-39.2353
-39.6961
-26.3652
-27.0109
-34.3773
-34.4216
-24.4186
-24.1679
-42.9317
-53.4433
-39.602
-37.261
-37.2653
-37.3056
147.655
146.667
-55.1525
-81.0588
-35.0706
-16.1197
-34.4863
-34.4313
-23.8126
-24.2007
-46.5591
-53.2259
-47.1949
-38.1122
-89.1997
-102.322
155.717
139.337
-66.2704
-52.7328
-51.6906
-43.0919
-39.2645
-38.8892
-25.8137
-26.6201
-42.9027
-53.2753
-39.5459
-37.2038
-80.2639
-54.692
-15.9883
-35.0032
-53.537
-46.2431
-37.966
-46.9739
-32.3856
-32.4517
-35.8141
-36.977
-41.7809
-44.1793
-33.1421
-37.5443
-40.2451
-40.1376
-35.9329
-35.9512
-32.6307
-37.0238
-44.9288
-45.4076
-37.8231
-37.8229
-41.305
-41.3199
-41.1676
-42.5559
-81.889
-74.5244
2.33806
2.43686
-43.7423
-44.5731
-77.6186
-77.5616
-52.7103
-52.5721
-32.3013
-32.342
-35.8727
-36.5151
-44.0313
-41.7787
-33.0751
-37.4489
-36.9206
-32.4832
-44.9156
-45.7351
-42.4743
-41.1961
-74.4618
-82.5085
-118.25
-61.9772
-70.1164
-144.232
-34.6691
-36.2242
-53.6227
-49.8764
-42.7493
-57.449
-55.6712
-39.2514
-33.5448
-109.758
-77.3779
-83.505
-118.04
-142
-69.9332
-62.0578
-33.4992
-82.7628
-76.8565
-115.893
-42.9406
-39.156
-54.9389
-56.7714
-34.6856
-49.8033
-53.4392
-36.1773
-78.7489
-67.6159
-50.6364
-53.2351
-79.0068
-53.2473
-50.6646
-67.6721
-36.7235
-38.2552
-43.0278
-43.089
-36.6829
-43.0225
-43.0082
-38.2405
-39.6776
-42.5558
-31.5988
-37.179
-15.167
7.20241
-9.76441
-25.3451
-15.328
-25.336
-9.6745
7.20689
-40.6159
-37.1389
-31.5363
-42.508
-33.1742
88.8539
158.086
52.5556
57.3172
64.6073
184.866
122.009
54.3208
118.78
184.838
56.9873
-33.3676
57.6086
158.054
85.9132
-31.0782
-32.8904
-33.3537
-33.0581
-29.5891
-30.3674
-33.6795
-32.8687
-44.3381
-46.8872
-36.2496
-34.7752
-49.4943
-37.2802
-37.6161
-48.6827
-31.0283
-33.0045
-33.2785
-32.9478
-49.6523
-48.625
-37.4703
-37.205
-44.3504
-34.7151
-36.2196
-46.7821
-29.5276
-32.7131
-33.8295
-30.1876
-34.3649
-36.1096
-36.2797
-35.0766
-34.3966
-35.1269
-36.2881
-36.1232
-39.9234
-39.5057
-37.3697
-35.5723
-39.8329
-36.1128
-37.4795
-39.4913
-40.7043
-83.3112
-81.4391
-17.9414
-56.3233
-71.8282
-81.347
-60.9097
-56.1907
-60.7767
-81.3067
-71.7418
-41.4166
-17.9586
-81.7556
-81.8124
-43.0333
-40.3597
-45.2758
-42.1663
-35.3419
-34.0282
-52.5265
-53.8537
-35.1793
-44.5775
-47.7904
-34.0388
-46.3111
-35.0068
-50.4359
-51.7586
-43.0699
-42.809
-45.2664
-40.3689
-46.37
-51.8442
-50.8917
-35.222
-34.6949
-33.6529
-47.1521
-44.0711
-35.3236
-53.126
-51.9332
-33.689
-41.9015
-43.4747
-39.7295
-38.8732
-41.9132
-38.9053
-39.6918
-43.4735
-34.3335
-31.5001
-36.9061
-37.4338
-34.4834
-37.5369
-36.9352
-31.5572
-57.0901
-48.9296
-46.5557
-59.5937
-32.6127
-31.9391
-37.6688
-39.2606
-32.388
-39.015
-37.5947
-31.875
-57.1517
-59.5167
-46.4528
-48.5512
-31.0482
-24.6538
-24.8032
-28.1054
-30.6598
-27.8966
-24.5434
-24.5072
-27.9919
-25.3283
-24.5361
-28.034
-28.324
-28.2287
-24.8359
-25.5372
-59.4165
-127.347
-138.646
-32.4922
-32.6062
-33.3039
-1.76852
-38.1124
-43.5145
-30.78
-30.2258
-32.5069
-127.687
-58.1675
-139.498
-32.4416
-32.2806
-33.2184
-42.3181
-5.22841
-45.3863
-29.9076
-30.329
-32.1437
-31.6976
-31.4763
-31.3954
-33.9418
-46.5341
-40.0871
-47.8548
-48.5938
-42.4585
-50.8847
-59.6813
-41.5976
-47.0331
-46.0166
-46.5356
-50.2559
-31.7368
-33.9737
-31.531
-31.414
-46.7642
-48.844
-40.0914
-47.929
-43.0135
-42.6891
-51.3928
-60.5847
-47.1127
-50.1578
-45.8099
-46.4925
22.7443
14.2693
-30.5695
40.8301
-77.815
-77.834
-72.2734
-13.0927
-52.1063
-53.6923
-55.7938
-49.5848
-29.6747
-29.5674
-31.8804
-28.4412
-28.8091
-28.7501
-29.2043
-26.0813
-38.5689
-37.9894
-41.6209
-39.1969
-23.2248
-23.7568
-30.3134
-10.0869
-57.287
-49.5117
-69.9297
-43.5483
-29.1435
-29.1133
-30.4766
-27.2753
-44.6874
-50.7615
-47.7072
-45.1831
23.3939
16.0549
-45.5839
37.1783
-52.1637
-53.8123
-55.9298
-49.665
-29.3907
-29.2856
-31.5842
-28.2154
-39.22
-38.2149
-41.8094
-39.4306
-57.5161
-49.2719
-68.5159
-43.9223
-43.8802
-50.1848
-47.3767
-44.8761
-35.3753
-34.754
-33.5766
-35.5276
-34.4047
-36.3821
-35.9745
-34.8125
-36.9834
-36.9897
-37.4999
-36.641
-27.4969
-32.2375
-31.2314
-27.8054
-41.7895
-41.7943
-40.4756
-43.7062
-52.46
-50.3046
-50.3565
-57.5588
0.497521
0.414879
6.43659
-7.83714
-66.4763
-66.4107
-70.0459
-63.2464
-34.4635
-34.413
-33.3233
-35.7468
-34.3223
-36.3068
-35.9252
-34.7258
-27.0075
-31.998
-31.0235
-27.4959
-52.2612
-50.1907
-50.3043
-57.3552
-67.034
-60.3389
-62.5207
-58.1053
-66.7961
-60.2326
-62.2646
-57.963
-48.3039
-46.7044
-46.5984
-44.6428
-25.0861
-19.6504
-19.5844
-14.1304
196.465
181.697
204.812
196.558
-34.2031
-35.0104
-34.8476
-36.0209
-34.0208
-35.0298
-34.6947
-35.9376
-37.259
-36.6698
-38.0314
-37.2409
-84.3723
-84.0389
-85.3062
-84.3185
-55.4867
-49.6055
-52.9737
-48.8934
-55.3334
-49.6091
-53.5839
-48.9899
-37.4525
-38.2757
-38.2673
-39.0325
-39.321
-41.4702
-41.4119
-43.7963
-21.013
-21.1923
-22.8443
-20.6624
-19.1428
8.68496
-131.751
-11.6243
-85.0072
-79.9746
-76.5636
-70.6459
-77.9118
-60.4134
-73.6451
-65.2141
-30.7225
-29.9198
-32.3378
-28.7801
-30.3959
-30.0515
-32.4431
-30.8127
-35.2728
-38.5629
-40.2787
-36.1867
7.75203
8.99481
-12.783
42.1784
-26.1237
-22.305
-32.9954
-9.28416
-43.3083
-57.6734
-54.1777
-43.5293
-30.1608
-29.5958
-32.099
-28.72
-29.456
-29.204
-30.6637
-27.7081
-35.7585
-39.448
-39.1867
-36.3205
-85.254
-80.1378
-76.7961
-71.1834
-20.536
8.8847
-132.889
-10.036
-78.039
-60.3922
-73.7155
-65.2536
-30.2884
-29.8812
-32.2795
-30.5981
-30.5324
-29.6764
-32.0987
-28.58
-35.0564
-37.7235
-40.0622
-35.9367
-27.0637
-21.7216
-32.9529
-9.33145
3.60658
6.82729
-10.2876
40.0649
-42.7684
-58.3376
-57.1694
-44.0643
-29.2304
-29.0819
-30.5004
-27.559
-29.7532
-29.291
-31.6726
-28.4517
-35.3305
-39.0657
-39.0421
-36.0113
-35.3707
-40.5401
-38.2033
-38.3828
-31.6897
-31.9891
-32.2901
-33.8821
-32.1233
-33.1083
-33.4235
-31.8753
-35.9245
-36.6348
-37.1635
-35.7381
-39.4448
-37.9056
-41.6038
-40.2447
-34.6142
-34.3629
-32.7769
-36.258
-34.0286
-27.1859
-26.6277
-40.3004
-42.8225
-41.8759
-40.7224
-43.6901
-35.162
-39.8575
-43.9561
-27.4225
-46.5728
-40.0963
-42.8108
-42.956
-57.201
-54.9797
-53.358
-70.7467
-10.7691
-2.27843
-1.4416
-11.5652
-48.6146
-50.2302
-48.7081
-54.1317
-42.7354
-36.5043
-39.0184
-39.4411
-47.4222
-48.8118
-46.9484
-52.3432
-61.1805
-64.9589
-65.1694
-61.495
-35.4217
-40.6329
-38.3291
-38.4355
-35.9592
-36.6582
-37.1951
-35.7682
-31.4263
-32.2789
-32.1696
-33.951
-32.0884
-33.0494
-33.4096
-31.8532
-39.0122
-38.0447
-41.569
-38.7107
-42.9652
-41.9009
-40.7804
-43.6978
-34.6451
-34.3474
-32.7695
-36.3051
-34.4639
-26.9015
-26.5745
-40.4164
-35.1006
-39.4632
-43.5064
-27.6089
-11.3532
-2.68967
-1.70439
-12.1245
-46.8472
-40.0492
-42.8182
-42.9241
-56.423
-54.8097
-53.2958
-70.6276
-48.7437
-50.2539
-48.8313
-54.3801
-61.149
-64.8807
-65.0309
-61.4096
-42.9396
-36.7178
-38.8855
-39.6621
-47.3845
-48.4654
-46.832
-52.1923
-119.441
-82.9294
-92.8973
-98.9561
128.63
180.764
153.069
160.786
-61.7288
-53.5966
-57.5558
-57.5731
130.52
159.353
163.825
163.496
-56.8908
-58.5687
-61.1363
-56.3885
-47.6867
-47.0969
-49.1854
-45.0412
-36.3545
-43.3481
-39.3375
-39.4221
-27.7324
-24.7198
-26.4717
-26.9353
-32.6277
-35.8698
-34.2208
-34.2382
-23.4163
-23.7659
-23.6277
-23.4668
-45.3156
-47.4159
-44.2553
-50.7751
-38.5292
-38.3588
-39.0379
-37.8115
-37.7064
-34.3212
-36.7239
-36.7458
120.741
179.32
149.419
152.388
-71.3124
-64.934
-62.9365
-73.0191
-29.4056
-22.8484
-30.892
-20.5767
-33.065
-35.6929
-34.3585
-34.3466
-23.9117
-22.8511
-23.1827
-23.4134
-50.6063
-55.9883
-50.4366
-54.6246
-42.9253
-41.8767
-44.6612
-40.0897
-118.041
-82.5091
-92.3608
-98.3019
128.599
181.159
160.217
150.606
-56.9249
-58.5132
-61.1028
-56.2728
-47.7541
-47.1393
-49.2498
-45.0959
-35.9668
-42.8599
-38.9604
-38.9589
-27.4529
-24.1215
-26.0568
-26.5801
-45.2556
-47.3766
-44.2346
-50.5778
-38.529
-38.3392
-39.0264
-37.7729
-70.8165
-64.4462
-72.5026
-62.7259
-29.2221
-22.7147
-20.4838
-30.8477
-50.4381
-56.4409
-54.7334
-49.8151
-42.528
-41.7424
-39.9297
-44.452
-32.9235
-32.718
-32.533
-32.5366
-36.3541
-36.9422
-36.1402
-37.1947
-39.8642
-46.7068
-42.4456
-43.5451
-34.639
-34.7142
-33.834
-35.9861
-39.1908
-41.5387
-40.2564
-40.1609
-36.123
-36.1894
-36.0418
-36.0501
-32.9039
-34.5357
-32.7937
-34.9732
-45.1252
-46.7041
-45.493
-47.3064
-38.5954
-37.2913
-37.8316
-37.8371
-42.2722
-40.4354
-41.3832
-41.3751
-44.3219
-39.5485
-41.9094
-42.2631
-73.2924
-82.6165
-83.1594
-76.4884
9.15776
-1.39919
4.05189
4.13274
-30.1742
-66.4304
-45.6093
-45.6754
-76.5479
-81.875
-79.246
-79.2157
-56.2096
-49.5923
-52.5091
-52.4657
-32.7707
-32.5573
-32.4406
-32.3961
-36.6248
-37.163
-36.2304
-36.7774
-39.7674
-46.3738
-43.4349
-42.4331
-34.5582
-34.7678
-33.7449
-35.941
-32.7657
-34.4598
-34.8421
-32.6914
-45.5072
-46.7386
-45.5027
-47.2282
-44.2426
-39.4862
-42.1992
-42.0016
-72.9389
-82.4256
-76.306
-82.8699
-98.2595
-80.7798
-86.6278
-73.7075
-40.1312
-37.3235
-43.4641
-41.2467
-46.7944
-42.8988
-49.6024
-45.0574
-114.021
-114.977
-108.984
-94.4713
-97.9975
-80.7825
-86.3212
-73.6114
-115.966
-119.348
-108.72
-92.553
-46.6982
-42.6517
-49.3191
-44.7412
-40.1893
-37.3173
-43.3813
-41.236
-64.9346
-61.2816
-58.8381
-55.4479
-65.0928
-61.4065
-58.9266
-55.5281
-39.7428
-38.9428
-41.4787
-40.2008
-39.696
-38.9082
-41.4336
-40.1711
-39.4798
-41.929
-38.5953
-38.024
-9.465
-0.858397
-10.4417
-0.515052
-9.50524
-0.89111
-10.2593
-0.481148
-39.5933
-42.0046
-38.6753
-38.058
124.093
77.2676
127.498
144.309
109.666
99.8367
145.558
142.179
99.4596
107.396
142.804
145.801
70.2355
125.818
143.463
129.447
-32.0494
-31.935
-32.3397
-32.7158
-32.3922
-30.2195
-32.6343
-32.3176
-39.4578
-42.8702
-41.2279
-42.0994
-42.9817
-45.8404
-39.9579
-42.7419
-31.9438
-31.9515
-32.305
-32.6652
-42.8498
-45.6341
-39.8227
-42.6534
-39.2621
-42.8004
-41.0191
-42.1032
-32.3501
-30.0813
-32.5716
-32.2215
-34.9744
-35.4109
-35.5538
-35.7225
-35.4447
-35.0169
-35.7523
-35.5998
-38.5637
-37.4785
-37.757
-36.9858
-37.4399
-38.5223
-36.9748
-37.739
-46.5083
-29.3284
-66.024
-42.0282
-65.4356
-68.9324
-72.7397
-74.8198
-68.8232
-65.4336
-74.7237
-72.6338
-29.3565
-46.7234
-42.9483
-67.8353
-42.777
-43.9935
-42.6398
-44.2288
-36.3612
-39.2936
-39.3238
-44.7189
-37.5472
-40.4336
-40.2741
-43.1867
-47.5094
-43.5029
-49.4846
-43.2793
-42.7513
-43.9771
-42.6156
-44.2022
-47.7937
-43.6843
-49.8133
-43.6519
-37.0129
-39.9446
-39.807
-42.779
-36.0227
-39.0267
-38.9876
-43.6203
-40.4364
-41.7931
-40.1938
-41.1721
-40.3536
-41.7473
-40.1023
-41.1818
-33.7812
-35.0362
-34.5926
-36.331
-33.8721
-35.1393
-34.7065
-36.4027
-53.6476
-56.496
-50.1648
-53.0694
-33.4387
-35.2384
-34.6842
-36.3627
-33.3159
-35.0514
-34.5855
-36.2039
-53.3882
-56.3481
-49.931
-52.8962
-27.8319
-26.5164
-26.0944
-24.9819
-26.2186
-27.7304
-24.3122
-25.7313
-26.2546
-26.969
-25.0503
-26.194
-27.297
-26.5854
-26.6015
-25.463
-142.526
-26.4716
-90.8595
-71.7982
-112.012
-87.2423
-33.6652
-29.8729
-32.7397
-30.8436
-36.374
-35.5618
-22.4194
50.456
-34.2999
5.23099
-37.1379
-34.6568
-32.63
-29.0092
-31.1208
-28.6784
-35.2884
-33.1321
-91.2129
-71.7604
-144.414
-25.8536
-111.958
-87.4899
-32.699
-30.5482
-33.4194
-29.6289
-35.4119
-35.5236
-33.1707
1.52904
-23.1856
46.2504
-36.9145
-35.2928
-30.8552
-28.4398
-32.1533
-28.7577
-34.8636
-32.8438
-34.1242
-35.3411
-31.1951
-33.5584
-33.7162
-30.8664
-35.5054
-34.6381
-41.8874
-40.1065
-32.4947
-39.5061
-26.5465
-48.8978
-41.9488
-45.7814
-38.7168
-27.9509
-45.5981
-49.7276
-54.5482
-66.5406
-15.2906
-26.8803
-46.5911
-50.7482
-44.8708
-45.5804
-46.1173
-51.1549
-55.3076
-55.6095
-34.1653
-35.3779
-35.5419
-34.6711
-31.2358
-33.5858
-33.739
-30.8828
-41.9075
-41.2708
-42.0949
-46.1279
-32.4935
-39.5879
-26.4187
-48.8902
-38.7567
-28.1798
-16.0825
-28.5454
-45.7938
-49.9143
-54.3073
-66.6508
-46.7066
-50.7278
-55.3092
-55.6565
-44.9079
-45.675
-46.0082
-50.9773
-103.188
10.1064
0.360704
56.1366
-148.877
-127.273
99.6245
119.262
-73.3124
-37.9302
-73.3746
-38.1547
-66.9853
-67.0069
79.383
80.1637
-59.4927
-54.2468
-49.7861
-43.2089
-58.0767
-56.4577
-50.3223
-45.3349
-31.9
-28.4966
-31.7527
-28.625
-33.986
-34.1215
-28.2447
-28.1358
-30.0379
-26.479
-29.9452
-26.4531
-30.7661
-30.7957
-24.5674
-24.4563
-49.1347
-37.7636
-39.5329
-37.1402
-41.2713
-48.934
-39.2219
-38.2042
-32.4366
-11.1626
-32.574
-8.86532
-36.4631
-36.4773
66.4424
61.4525
-71.2343
-50.5266
-55.6182
-35.0708
-66.4514
-76.9098
-38.9007
-29.6414
-30.5357
-27.4143
-30.4604
-27.2842
-31.89
-31.858
-25.0919
-25.2
-42.6716
-40.4288
-51.9712
-51.7745
-47.2152
-51.079
-46.245
-41.3974
-110.2
10.5067
-0.567816
52.7571
-146.555
-131.348
117.277
96.5247
-59.5577
-54.278
-49.7589
-43.297
-58.1853
-56.5004
-50.3597
-45.4046
-31.6072
-28.2996
-31.4197
-28.4206
-33.7784
-33.6581
-27.9989
-27.9546
-48.9103
-37.5943
-39.5535
-37.2441
-41.3019
-48.74
-39.3063
-38.1889
-73.6043
-50.3658
-54.9242
-34.8785
-76.7221
-66.1411
-29.5911
-38.75
-42.3628
-40.1212
-52.192
-51.4593
-50.8479
-46.7801
-41.2092
-45.9314
-33.2568
-34.8472
-33.1155
-35.5241
-33.2596
-33.0201
-35.4314
-36.3809
-34.6655
-33.2506
-38.2296
-37.3225
-36.7959
-38.2998
-33.7226
-35.956
-37.4224
-36.4155
-37.4368
-36.4298
-38.2891
-38.2832
-36.2213
-36.2246
-29.1533
-30.7984
-34.6487
-33.5666
-30.9741
-33.3225
-38.8435
-32.5613
-40.5291
-43.7111
-40.5444
-43.7111
-39.4735
-39.4688
-43.4441
-43.4443
-52.4224
-63.2993
-48.6224
-54.7907
-47.5506
-48.3521
-73.1874
-62.8752
4.64579
-7.44055
4.49371
-7.88516
9.07322
9.01854
-17.9841
-18.0524
-69.0083
-63.0852
-68.9278
-63.0199
-73.1595
-73.1268
-59.5947
-59.5413
-33.8267
-34.8695
-32.8513
-34.9259
-32.9908
-32.8665
-35.4988
-35.8797
-34.6313
-33.1941
-38.1817
-37.2452
-38.225
-36.7473
-33.6627
-35.8699
-28.9781
-30.8545
-34.5102
-33.4236
-33.2419
-30.7859
-39.5584
-33.0409
-52.3195
-63.0364
-48.3971
-54.5838
-48.3065
-47.5592
-62.6462
-72.6079
-71.9643
-75.6894
-64.0451
-56.73
-59.5575
-69.655
-54.6835
-55.8778
-71.7095
-75.2546
-63.9022
-56.5828
-69.2571
-59.6996
-55.3581
-54.4636
-50.3963
-50.4076
-48.4643
-44.7989
-48.4897
-44.8217
-42.9695
-42.9613
-30.8229
-30.7991
-26.5874
-16.0081
-15.9933
-26.4993
-8.18712