# vtk DataFile Version 2.0
tet_velo
ASCII
DATASET UNSTRUCTURED_GRID
POINTS 29498 float
-0.725 0.215 -2.10539
-0.693221 0.335 2.155
-0.738652 0.655 -2.035
-0.705 0.861847 2.165
0.725 0.215 -2.10527
0.693194 0.335 2.155
0.740757 0.655 -2.035
0.715 0.861927 2.155
-0.764994 0.204413 -0.68526
-0.790507 0.208307 0.73487
-0.827871 0.824386 -0.635
-0.821445 0.898125 0.765
0.764986 0.204412 -0.68518
0.790492 0.208304 0.73491
0.829497 0.821301 -0.638334
0.824681 0.894047 0.758333
-1.51499 -0.133036 -3.25429
-1.51423 -0.0812623 -2.12715
-1.54554 -0.0857694 -0.706177
-1.55511 -0.0853051 0.719432
-1.49638 -0.00307479 2.1408
-1.47726 0.0512602 3.2699
-1.48148 0.0897666 4.3955
-1.51181 0.135946 -3.22712
-1.51354 0.207371 -2.1023
-1.55788 0.223001 -0.685309
-1.56028 0.222753 0.733951
-1.46663 0.294687 2.15133
-1.45586 0.346948 3.27979
-1.46981 0.386034 4.40589
-1.51848 0.641067 -3.16629
-1.53228 0.710907 -2.0403
-1.60169 0.833093 -0.637091
-1.58815 0.88012 0.765083
-1.48061 0.87246 2.16847
-1.46276 0.92188 3.2962
-1.47321 0.972131 4.42469
-1.533 1.50353 -3.09107
-1.54553 1.58702 -1.9682
-1.5763 1.71638 -0.572735
-1.58744 1.8029 0.818338
-1.56219 1.83018 2.21366
-1.5364 1.85139 3.33622
-1.52111 1.88563 4.46293
-0.749366 -0.129647 -3.25633
-0.738314 -0.075049 -2.12991
-0.762208 -0.095162 -0.706864
-0.786733 -0.0945847 0.720826
-0.747762 0.017458 2.14397
-0.729719 0.0653332 3.27129
-0.730735 0.0963507 4.39546
-0.745976 0.133083 -3.22818
-0.707369 0.361239 3.28003
-0.719638 0.391862 4.40511
-0.748609 0.6173 -3.16432
-0.71066 0.921173 3.29288
-0.72068 0.972403 4.42203
-0.752325 1.48739 -3.0895
-0.757107 1.57186 -1.96658
-0.783953 1.71305 -0.572702
-0.805251 1.80699 0.815904
-0.795376 1.83027 2.20962
-0.774287 1.84915 3.33217
-0.75965 1.88355 4.45941
0.750992 -0.130157 -3.25697
0.750255 -0.0753265 -2.1302
0.773233 -0.0954351 -0.707245
0.769096 -0.0948129 0.720286
0.70769 0.017296 2.14313
0.732228 0.0650246 3.26889
0.754262 0.0958423 4.39222
0.744709 0.132667 -3.22867
0.735815 0.361013 3.27696
0.758595 0.391377 4.40138
0.755055 0.61677 -3.16498
0.744904 0.920827 3.28667
0.763213 0.971799 4.41713
0.7982 1.48609 -3.09136
0.808553 1.57029 -1.96883
0.806532 1.71094 -0.576051
0.77687 1.80482 0.811158
0.747682 1.8287 2.204
0.749288 1.84794 3.3267
0.759726 1.88249 4.45444
1.51204 -0.134378 -3.25606
1.51474 -0.0824823 -2.12868
1.54744 -0.0871628 -0.708289
1.54683 -0.0864879 0.716391
1.48172 -0.0037755 2.13679
1.48431 0.0504108 3.26431
1.50478 0.0886192 4.38889
1.50594 0.134653 -3.22874
1.50618 0.206049 -2.10378
1.55416 0.221109 -0.68789
1.56381 0.221136 0.729796
1.47726 0.294173 2.1459
1.48268 0.346199 3.27293
1.50631 0.384909 4.39843
1.5208 0.639474 -3.16832
1.53037 0.708931 -2.04261
1.60066 0.828811 -0.642607
1.59383 0.875598 0.755467
1.49706 0.871156 2.15586
1.49417 0.920786 3.28529
1.5129 0.970763 4.41531
1.57188 1.50087 -3.09497
1.58587 1.58387 -1.97284
1.59357 1.7124 -0.579296
1.56717 1.79886 0.809373
1.52825 1.8271 2.20318
1.51884 1.84895 3.32587
1.52383 1.88345 4.45332
-0.759522 0.435 -2.09789
0 0.211944 -2.10839
-0.752101 0.202603 -1.39533
-0.730798 0.598423 2.19169
-1.35005e-05 0.309671 2.18033
-0.781624 0.231893 1.44494
0.0010525 0.710895 -2.0909
-0.827093 0.783525 -1.335
0.005 0.900756 2.19887
-0.796461 0.913225 1.465
0.75995 0.435 -2.09721
0.751977 0.202722 -1.39522
0.734743 0.598463 2.18565
0.781243 0.232252 1.44496
0.828734 0.781758 -1.33667
0.801456 0.909602 1.45667
-0.776183 0.207927 0.0248049
-0.894211 0.5144 -0.66013
-3.58082e-06 0.199248 -0.68522
-0.898555 0.553216 0.749935
-7.23277e-06 0.204422 0.73489
-0.82428 0.860878 0.0649999
0.000812696 1.06097 -0.636667
0.00161835 1.30717 0.761667
0.776171 0.207926 0.024865
0.894201 0.512856 -0.661757
0.898488 0.551175 0.746622
0.826519 0.857104 0.0599999
-0.888066 0.4747 -1.36516
-0.895592 0.533808 0.0449024
-0.880847 0.57582 1.45497
-1.79041e-06 0.202619 -1.39528
-5.4068e-06 0.201791 0.024835
-1.03666e-05 0.255942 1.44495
0.000526249 0.435 -2.27732
0.00249325 0.598443 2.29253
0.000932597 0.874672 -1.33583
0.00121552 1.32352 0.0624999
0.00330917 1.09361 1.46083
0.888074 0.473928 -1.36595
0.895561 0.532016 0.0424325
0.880795 0.574819 1.45081
-1.11927 0.211186 -2.10384
-0.731657 0.0699755 -2.11765
-0.735488 0.174042 -2.66678
-1.07993 0.314844 2.15317
-0.720492 0.176229 2.14949
-0.700295 0.348119 2.71751
-1.13547 0.682953 -2.03765
-0.74363 0.63615 -2.59966
-0.747879 1.11343 -2.00079
-1.09281 0.867154 2.16673
-0.70783 0.89151 2.72894
-0.750188 1.34606 2.18731
0.737628 0.0698367 -2.11773
0.734855 0.173834 -2.66697
1.11559 0.210524 -2.10453
0.700442 0.176148 2.14906
0.714504 0.348007 2.71598
1.08523 0.314587 2.15045
0.747906 0.635885 -2.59999
0.774655 1.11265 -2.00192
1.13557 0.681966 -2.0388
0.729952 0.891377 2.72083
0.731341 1.34531 2.1795
1.10603 0.866541 2.15543
-1.16144 0.213707 -0.685285
-0.763601 0.0546257 -0.696062
-1.17539 0.21553 0.73441
-0.78862 0.0568613 0.727848
-1.21478 0.82874 -0.636046
-0.805912 1.26872 -0.603851
-1.2048 0.889123 0.765041
-0.813348 1.35256 0.790452
0.76911 0.0544882 -0.696213
1.15957 0.21276 -0.686535
0.779794 0.0567454 0.727598
1.17715 0.21472 0.732353
0.818014 1.26612 -0.607192
1.21508 0.825056 -0.64047
0.800776 1.34943 0.784746
1.20926 0.884822 0.7569
-1.51461 -0.107149 -2.69072
-1.5134 0.0014554 -3.2407
-1.13218 -0.131341 -3.25531
-1.52989 -0.0835158 -1.41666
-1.51388 0.0630544 -2.11472
-1.12627 -0.0781556 -2.12853
-1.55033 -0.0855372 0.00662749
-1.55171 0.0686159 -0.695743
-1.15388 -0.0904657 -0.706521
-1.52575 -0.0441899 1.43012
-1.55769 0.0687238 0.726691
-1.17092 -0.0899449 0.720129
-1.48682 0.0240927 2.70535
-1.48151 0.145806 2.14607
-1.12207 0.00719162 2.14239
-1.47937 0.0705134 3.8327
-1.46656 0.199104 3.27484
-1.10349 0.0582967 3.27059
-1.47564 0.2379 4.40069
-1.10611 0.0930586 4.39548
-1.51268 0.171659 -2.66471
-1.51514 0.388506 -3.19671
-1.12889 0.134515 -3.22765
-1.53571 0.215186 -1.3938
-1.52291 0.459139 -2.0713
-1.55908 0.222877 0.0243209
-1.57979 0.528047 -0.6612
-1.51345 0.25872 1.44264
-1.57422 0.551436 0.749517
-1.46125 0.320817 2.71556
-1.47362 0.583574 2.1599
-1.46284 0.366491 3.84284
-1.45931 0.634414 3.28799
-1.08162 0.354093 3.27991
-1.47151 0.679082 4.41529
-1.09472 0.388948 4.4055
-1.52538 0.675987 -2.6033
-1.52574 1.0723 -3.12868
-1.13354 0.629184 -3.16531
-1.56699 0.772 -1.33869
-1.53891 1.14896 -2.00425
-1.59492 0.856607 0.0639958
-1.589 1.27474 -0.604913
-1.53438 0.87629 1.46677
-1.5878 1.34151 0.79171
-1.47169 0.89717 2.73233
-1.5214 1.35132 2.19106
-1.46798 0.947005 3.86044
-1.49958 1.38664 3.31621
-1.08671 0.921527 3.29454
-1.49716 1.42888 4.44381
-1.09694 0.972267 4.42336
-1.53927 1.54527 -2.52963
-1.14267 1.49546 -3.09028
-1.56092 1.6517 -1.27047
-1.15132 1.57944 -1.96739
-1.58187 1.75964 0.122801
-1.18013 1.71472 -0.572718
-1.57482 1.81654 1.516
-1.19634 1.80494 0.817121
-1.5493 1.84079 2.77494
-1.17878 1.83022 2.21164
-1.52876 1.86851 3.89957
-1.15534 1.85027 3.33419
-1.14038 1.88459 4.46117
-0.74384 -0.102348 -2.69312
-0.747671 0.00171789 -3.24225
0.000812967 -0.129902 -3.25665
-0.750261 -0.0851055 -1.41839
0.00597074 -0.0751877 -2.13005
-0.77447 -0.0948733 0.00698069
0.00551222 -0.0952986 -0.707055
-0.767247 -0.0385633 1.4324
-0.00881806 -0.0946988 0.720556
-0.738741 0.0413956 2.70763
-0.0200364 0.017377 2.14355
-0.730227 0.0808419 3.83337
-0.718544 0.213286 3.27566
0.00125472 0.0651789 3.27009
-0.725186 0.244106 4.40028
0.0117636 0.0960965 4.39384
-0.747292 0.375192 -3.19625
-0.000633338 0.132875 -3.22842
-0.713503 0.37655 3.84257
-0.709014 0.641206 3.28645
0.014223 0.361126 3.27849
-0.720159 0.682132 4.41357
0.0194785 0.391619 4.40325
-0.750467 1.05234 -3.12691
0.00322332 0.617035 -3.16465
-0.71567 0.946788 3.85746
-0.742473 1.38516 3.31252
0.0171225 0.921 3.28977
-0.740165 1.42798 4.44072
0.0212665 0.972101 4.41958
-0.754716 1.52963 -2.52804
0.0229373 1.48674 -3.09043
-0.77053 1.64246 -1.26964
0.0257229 1.57108 -1.96771
-0.794602 1.76002 0.121601
0.0112893 1.712 -0.574376
-0.800314 1.81863 1.51276
-0.0141907 1.8059 0.813531
-0.784831 1.83971 2.77089
-0.0238472 1.82948 2.20681
-0.766968 1.86635 3.89579
-0.0124995 1.84855 3.32943
3.83937e-05 1.88302 4.45692
0.750624 -0.102742 -2.69358
0.74785 0.00125527 -3.24282
1.13152 -0.132267 -3.25651
0.761744 -0.0853808 -1.41872
1.1325 -0.0789044 -2.12944
0.771165 -0.095124 0.0065207
1.16033 -0.091299 -0.707767
0.738393 -0.0387584 1.43171
1.15796 -0.0906504 0.718339
0.719959 0.0411603 2.70601
1.0947 0.00676026 2.13996
0.743245 0.0804335 3.83055
0.734021 0.213019 3.27292
1.10827 0.0577177 3.2666
0.756428 0.24361 4.3968
1.12952 0.0922308 4.39055
0.749882 0.374718 -3.19682
1.12532 0.13366 -3.2287
0.747205 0.376195 3.83917
0.74036 0.64092 3.28181
1.10925 0.353606 3.27494
0.760904 0.681588 4.40926
1.13245 0.388143 4.39991
0.776628 1.05143 -3.12817
1.13793 0.628122 -3.16665
0.754059 0.946313 3.8519
0.747096 1.38439 3.30668
1.11954 0.920807 3.28598
0.76147 1.42714 4.43578
1.13805 0.971281 4.41622
0.803376 1.52819 -2.5301
1.18504 1.49348 -3.09317
0.807542 1.64062 -1.27244
1.19721 1.57708 -1.97084
0.791701 1.75788 0.117554
1.20005 1.71167 -0.577673
0.762276 1.81676 1.50758
1.17202 1.80184 0.810266
0.748485 1.83832 2.76535
1.13797 1.8279 2.20359
0.754507 1.86522 3.89057
1.13406 1.84845 3.32628
1.14178 1.88297 4.45388
1.51339 -0.10843 -2.69237
1.50899 0.000137746 -3.2424
1.53109 -0.0848225 -1.41848
1.51046 0.0617833 -2.11623
1.54713 -0.0868254 0.00405095
1.5508 0.0669729 -0.69809
1.51428 -0.0451317 1.42659
1.55532 0.0673241 0.723094
1.48301 0.0233176 2.70055
1.47949 0.145199 2.14135
1.49455 0.069515 3.8266
1.4835 0.198305 3.26862
1.50555 0.236764 4.39366
1.50606 0.170351 -2.66626
1.51337 0.387064 -3.19853
1.53017 0.213579 -1.39584
1.51828 0.45749 -2.07319
1.55898 0.221122 0.020953
1.57741 0.52496 -0.665248
1.52053 0.257655 1.43785
1.57882 0.548367 0.742632
1.47997 0.320186 2.70941
1.48716 0.582664 2.15088
1.4945 0.365554 3.83568
1.48842 0.633492 3.27911
1.5096 0.677836 4.40687
1.52559 0.674203 -2.60547
1.54634 1.07017 -3.13165
1.56552 0.768871 -1.34261
1.55812 1.1464 -2.00772
[...]
POINT_DATA 29498
VECTORS point_vectors float
-3.07695 -6.17162 9.11982
0.0741829 0.128715 0.320124
-2.38666 1.24357 4.34669
-0.246599 -0.475837 0.558287
3.06026 -6.16042 9.08606
-0.0732348 0.121024 0.306059
2.5223 1.34203 4.58551
0.170336 -0.332685 0.394278
0.000659746 5.80401e-05 0.0165705
0.00534696 0.00108151 0.218848
-0.00713366 -0.00650718 0.0978382
0 0 0
-0.000968951 7.54376e-05 0.0242549
-0.00538861 0.000992131 0.213918
0.00656142 -0.0061313 0.0884771
0 0 0
-0.526967 -0.23701 19.8444
-1.20417 -0.670842 20.4085
-0.464342 -0.471224 21.2758
0.120736 -0.183958 21.4616
0.779409 0.110396 21.3726
1.02951 0.138056 21.2175
0.926743 -0.0658499 20.7205
-0.611458 -0.181708 19.7597
-1.6075 -0.54454 20.351
-0.618528 -0.53952 21.3278
0.0999195 -0.294806 21.5515
0.967069 -0.11206 21.4318
1.21604 -0.0850183 21.0473
1.0872 -0.220411 20.9617
-0.689602 0.0216956 19.6844
-1.7578 0.0540229 20.3073
-1.09331 -0.333846 21.2668
-0.2112 -0.385045 21.5934
0.654674 -0.600795 21.4114
1.01016 -0.651897 21.0866
0.78865 -0.510054 20.7971
-0.509453 0.305544 19.8807
-0.956703 0.566068 20.2881
-0.948006 0.337005 21.063
-0.349437 -0.0639884 21.4158
0.0558809 -0.347718 21.257
0.20062 -0.505211 20.8805
0.243938 -0.334905 20.8446
-0.518921 -0.507414 19.3181
-1.87293 -3.45251 20.6221
-0.105057 -0.315416 21.1218
0.263569 0.199258 20.3035
0.756139 1.35764 17.8215
1.33989 1.62154 17.3396
1.27416 0.935676 17.0671
-0.613225 -0.409883 19.0927
1.89721 1.47614 11.422
1.9049 0.97809 14.1169
-0.820564 0.0553692 18.7953
1.55515 -0.924257 8.64262
1.32509 -0.368907 15.3786
-0.461968 0.630294 19.4539
-1.11585 1.67776 19.9702
-1.50728 1.6624 21.0304
-0.533711 0.200478 21.8535
-0.156425 -0.418983 21.3962
-0.0604077 -0.623368 21.551
-0.0262193 -0.690912 19.723
0.520026 -0.504801 19.3197
1.88573 -3.38999 20.5966
0.103418 -0.323825 21.171
-0.257086 0.20313 20.1926
-0.647474 1.31096 17.4194
-1.33171 1.61326 17.3103
-1.2679 0.90399 17.2513
0.612445 -0.410845 19.0888
-1.93429 1.376 11.9887
-1.84401 0.879716 14.4287
0.827363 0.0550305 18.8045
-1.68098 -0.97714 9.88627
-1.29772 -0.499656 15.7131
0.476327 0.608563 19.4776
1.13674 1.59001 19.9935
1.51375 1.59951 21.0366
0.541042 0.219657 21.8705
0.172007 -0.397313 21.4176
0.0686786 -0.615509 21.559
0.0273217 -0.678515 19.685
0.525223 -0.230191 19.8409
1.19553 -0.674392 20.4203
0.470147 -0.477153 21.2741
-0.120378 -0.186704 21.4542
-0.777427 0.115274 21.385
-1.01863 0.127309 21.2178
-0.929608 -0.0737941 20.6555
0.612736 -0.182649 19.7592
1.62566 -0.557677 20.3501
0.620181 -0.542731 21.3306
-0.0953298 -0.296948 21.5461
-0.939607 -0.121193 21.4332
-1.17643 -0.0800308 21.0141
-1.09105 -0.236059 20.8759
0.685368 0.0195092 19.6911
1.76409 0.0558312 20.3128
1.0938 -0.336328 21.2683
0.215033 -0.381973 21.5918
-0.629955 -0.571155 21.4182
-0.95361 -0.625058 21.0627
-0.711944 -0.427807 20.9964
0.501081 0.298062 19.9002
0.938099 0.533959 20.2958
0.936413 0.326878 21.059
0.359864 -0.0602248 21.4212
-0.0433167 -0.352177 21.2574
-0.193514 -0.506054 20.8741
-0.250555 -0.351981 20.8409
-2.17701 -0.395873 1.97958
3.72289e-05 -0.00404373 0.0420206
-0.00493282 -0.00387453 0.292007
0.025047 -0.0644866 0.069051
-0.00514967 0.00284187 0.0319566
0.0333888 0.0107461 0.714555
0.00326085 0.222397 0.486925
-0.114828 -0.054168 0.431403
-0.0328642 0.297923 -0.363064
0.00471426 -0.00013648 0.0532525
2.28747 -0.411475 2.05239
0.00480356 -0.00383143 0.288264
-0.0377369 -0.0882187 0.0991244
-0.0315455 0.00640909 0.704826
0.0969156 -0.0493288 0.367192
-0.00350029 -0.000270986 0.0395887
0.00169096 0.000568687 0.105153
-5.08367e-06 -0.000254928 0.00359196
0 0 0
-6.93029e-05 0.00170746 0.0192528
2.39954e-07 2.61463e-05 0.00334383
0 0 0
6.04297e-06 0.00956312 0.0201086
-1.36744e-05 -0.00163479 0.0162111
-0.00168522 0.000556081 0.103463
6.88641e-07 -3.03126e-05 0.000423579
5.9601e-05 0.00149861 0.0168786
0 0 0
-0.00116932 -0.00733256 0.0720117
7.12884e-06 0.00181171 0.0177886
0.000413976 0.000512433 0.0124887
3.27819e-06 -8.02197e-05 0.00352986
0 0 0
1.24912e-06 -1.26581e-05 -0.000161038
0.0651192 -1.13712 1.18562
-0.0264063 -0.238283 0.0092793
1.38408e-05 0.00141661 0.0118529
4.26943e-05 0.00280957 0.0231276
0.000118192 0.00151093 -0.00408218
0.00113324 -0.00720973 0.0705635
-6.04428e-06 0.00164925 0.0162273
-0.000634903 0.000757978 0.0180725
-3.19348 -1.58052 20.1208
-2.84028 -5.4339 20.6269
-1.8241 -1.37829 17.9484
1.57012 0.369515 17.8603
0.458875 1.34774 10.5321
1.26919 1.16522 7.29391
-3.58535 0.533889 20.0457
-2.41564 0.703035 17.2102
-2.40699 2.84145 19.6761
0.990558 -0.764043 17.8451
-0.0501669 -0.809179 4.67365
0.0705653 -0.60546 16.7831
2.85761 -5.37476 20.5985
1.82463 -1.38054 17.9421
3.21994 -1.60967 20.1084
-0.292258 1.27111 10.0656
-1.30741 1.07203 7.58616
-1.53907 0.349277 17.8965
2.41627 0.698315 17.2287
2.43353 2.71017 19.6994
3.58818 0.537728 20.0449
-0.0108084 -0.824504 5.36105
-0.0826657 -0.557227 16.2345
-0.967116 -0.766526 18.1926
-0.392534 -0.912284 20.768
0.137824 0.0321629 15.2357
0.306669 -0.30317 20.068
0.321644 0.206162 14.658
-1.8418 -0.862627 21.5399
-3.59058 1.90507 20.9155
-0.286962 -0.62771 20.6927
-0.523403 -0.0740905 20.0932
-0.124921 0.0262263 15.3152
0.388061 -0.912164 20.7269
-0.32803 0.207306 14.5487
-0.303479 -0.308527 20.0923
3.55983 1.83177 20.9326
1.8342 -0.872646 21.5149
0.426453 -0.0095588 19.4904
0.29195 -0.636022 20.7535
-0.896734 -0.452317 19.9524
-0.592677 -0.213718 19.8155
-0.58397 -0.372742 19.5893
-0.892543 -0.598731 21.0603
-1.40504 -0.625908 20.3633
-1.78895 -1.58951 20.3823
-0.153318 -0.329834 21.4013
-0.549218 -0.509842 21.2968
-0.264775 -0.628749 21.5019
0.41843 -0.0382288 21.49
0.107459 -0.240245 21.4874
0.266139 -0.127525 21.5607
0.973319 0.187266 21.2013
0.882954 0.0222302 21.445
1.14706 0.55836 20.9199
1.1178 0.114919 20.5812
1.13567 0.0737903 21.031
1.40666 0.677723 20.9076
1.02879 -0.151624 20.8263
1.08496 0.420573 21.2321
-1.1112 -0.341977 19.8327
-0.670152 -0.0839495 19.6909
-0.683009 -0.323972 19.466
-1.15948 -0.588228 21.1337
-1.74174 -0.256002 20.3232
-0.255423 -0.433019 21.4444
-0.861505 -0.497606 21.2945
0.491023 -0.200362 21.6121
-0.0392897 -0.392721 21.6071
1.16793 -0.0770544 21.2577
0.902883 -0.4137 21.4007
1.2826 -0.122937 20.6347
1.19846 -0.440401 21.1924
1.83748 0.381539 18.4522
1.04205 -0.57891 20.7661
1.48494 0.258391 18.2354
-1.25304 0.0609327 19.7717
-0.653851 0.210501 19.7564
-0.838557 0.0409288 19.293
-1.48641 -0.167377 20.9917
-1.38564 0.456943 20.2695
-0.682931 -0.380875 21.5106
-1.19422 0.0687699 21.1597
0.224993 -0.44095 21.5975
-0.343338 -0.229738 21.5401
0.853581 -0.673477 21.2464
0.250266 -0.550893 21.3353
0.810048 -0.551919 20.9629
0.453878 -0.665985 21.1303
1.28489 -0.969711 18.8985
0.393309 -0.376104 20.8781
1.07846 -1.25771 19.1038
-0.738436 0.45451 20.0044
-0.537475 0.460445 19.6764
-1.01505 0.485243 20.6951
-1.16344 1.02844 20.1593
-0.692055 0.156049 21.3337
-1.29998 0.805861 21.0947
-0.0910631 -0.231924 21.379
-0.451961 0.0233678 21.6089
0.121071 -0.437251 21.1448
0.000821688 -0.439426 21.3107
0.365442 -0.623438 20.7213
0.107139 -0.604563 20.9811
0.0771589 -0.389855 21.1919
-1.16479 -1.47004 18.9844
-0.566073 -0.458648 19.2054
-0.00198948 -0.707459 18.9869
-0.556746 -1.10358 21.8778
0.0102869 -5.01224 21.3422
0.0990412 -0.0526209 20.3676
0.00012305 -0.450614 19.0599
0.539461 0.64935 18.8544
0.00110088 0.0927682 17.2403
0.961545 1.57553 17.9327
-0.0428182 0.846191 13.9282
1.17725 1.31117 18.0846
1.63981 1.84802 15.2283
-0.0349452 1.69865 14.8102
1.60466 1.05986 15.322
-0.0710053 1.77533 16.2937
-0.766541 -0.148275 18.8542
-0.000934982 -0.592313 18.6784
2.04849 1.10603 12.549
2.23835 -0.00457279 8.1046
0.00229682 1.17394 4.05531
1.96002 0.398346 13.3277
-0.0749411 1.70798 10.7959
-0.670221 0.512982 19.0756
0.00241575 0.105031 18.1946
1.31989 -0.576117 10.8842
0.384269 -1.27177 18.4753
-0.0262763 1.30993 -5.66224
0.298828 -1.12976 18.4837
-0.0190017 1.16823 -2.69749
-0.812085 1.2249 19.5009
0.0160038 0.831935 19.2104
-1.30585 1.61333 20.4876
0.0395942 2.37299 19.7636
-1.1651 1.00342 21.8619
0.0329878 3.11114 20.7361
-0.272031 -0.224837 21.604
-0.0174167 0.62761 22.175
-0.0284105 -0.593665 21.2198
-0.0247109 -0.049975 21.6111
0.0250613 -0.595757 20.5155
-0.0124536 -0.578288 21.9347
-0.00705914 -0.425446 20.6089
1.16397 -1.45427 19.0001
0.566235 -0.457823 19.2042
0.585614 -0.373224 19.5903
0.554882 -1.10147 21.8623
1.7856 -1.56684 20.368
-0.0963423 -0.0512358 20.3438
0.276015 -0.628339 21.4908
-0.514244 0.649292 18.6672
-0.269766 -0.120847 21.5307
-0.875414 1.56133 17.6199
-1.12999 0.622051 20.7634
-1.19684 1.26935 18.0776
-1.67228 1.83154 15.2353
-1.39364 0.654279 20.8991
-1.59016 1.01645 15.5507
-1.07069 0.384424 21.346
0.768052 -0.147678 18.8556
0.685777 -0.327186 19.4574
-2.02054 0.945282 13.1493
-2.27609 -0.114803 8.77243
-1.7993 0.279473 18.7801
-1.8931 0.295318 13.6685
-1.44182 0.179354 18.6602
0.681044 0.49765 19.104
0.8375 0.0381734 19.3005
-1.37217 -0.524068 12.2464
-0.384104 -1.25984 18.4575
-1.20358 -0.945395 19.6897
-0.311531 -1.10255 18.5212
-1.07236 -1.17413 19.3108
0.83182 1.17112 19.5321
0.533509 0.441061 19.6977
1.31361 1.54685 20.5015
1.14909 0.955456 20.1804
1.17258 1.01866 21.8645
1.29175 0.775448 21.0904
0.2745 -0.21159 21.6079
0.461822 0.0366201 21.6271
0.0388157 -0.577673 21.2346
0.0126034 -0.441102 21.3192
-0.0295451 -0.591541 20.5335
-0.0932643 -0.595961 21.0081
-0.0707413 -0.385618 21.2008
0.889693 -0.453191 19.9567
0.588326 -0.210219 19.8106
0.898352 -0.603667 21.0606
1.4064 -0.638075 20.3717
0.157084 -0.336295 21.4032
0.549688 -0.516391 21.2974
-0.415712 -0.0415017 21.4948
-0.10694 -0.246247 21.4813
-0.964733 0.192559 21.207
-0.871066 0.0154479 21.4457
-1.07443 0.0932556 20.6478
-1.10682 0.0738046 21.0071
-1.03555 -0.161512 20.7518
1.11454 -0.346542 19.8228
0.671027 -0.0893378 19.6978
1.16363 -0.595065 21.1388
1.76134 -0.264981 20.3272
0.251848 -0.431471 21.4448
0.86415 -0.50338 21.3016
-0.480348 -0.202476 21.6066
0.0461123 -0.393445 21.6041
-1.12499 -0.08661 21.2671
-0.864904 -0.401332 21.412
-1.18766 -0.166192 20.7838
-1.15401 -0.415586 21.156
-0.970343 -0.482069 20.9527
1.2525 0.0562295 19.7797
0.649731 0.20421 19.7749
1.49135 -0.166833 20.9943
1.36301 0.439146 20.2767
0.68218 -0.381401 21.5097
1.18452 0.0661814 21.1565
-0.216876 -0.433976 21.5914
0.352176 -0.231185 21.5432
-0.814778 -0.628456 21.2622
-0.241628 -0.548465 21.3391
-0.774185 -0.542239 20.9802
-0.450095 -0.662414 21.1296
-0.357 -0.351801 20.9805
0.7242 0.431178 20.0244
0.99887 0.468145 20.6955
0.698126 0.158423 21.3322
0.100951 -0.230328 21.3883
-0.116147 -0.442273 21.1465
-0.36528 -0.611546 20.7168
-1.02315 -0.417771 19.8971
-1.49856 -1.54657 18.5126
-1.20731 -0.895949 19.5267
-1.59215 -0.712022 19.1983
-0.641081 -0.355683 19.5311
-2.4074 -1.74367 20.2668
-1.02205 -0.61165 21.0983
-0.241183 -0.471715 17.465
-0.898797 -1.10095 21.4659
-1.45909 -1.27038 21.8502
-0.284526 -0.770675 21.3981
-0.204273 -0.387602 21.4186
0.23569 0.0813062 14.5069
0.0150628 -0.386577 21.5179
-0.0137313 -0.610091 20.2433
0.321341 -0.214286 21.0456
0.448495 -0.11072 21.5396
0.573762 0.47405 12.2548
0.658708 0.189078 21.3615
0.779685 -0.000368802 19.1479
1.41375 0.544729 19.4874
1.08633 0.0935688 21.2394
1.12206 1.64693 13.2074
1.34004 0.708955 20.7625
1.86589 0.383483 18.5151
1.52255 0.684575 19.373
1.23134 -0.0571356 20.5539
1.61785 1.23 14.6546
1.39628 0.607929 20.7488
1.90471 0.100542 19.0776
1.24946 0.392044 19.4723
-1.23773 -0.151704 19.7729
-2.30252 -0.521974 17.2398
-1.951 0.247898 19.0146
-0.798792 -0.109819 19.3176
-3.90693 -0.509871 19.9858
-1.36467 -0.394941 21.075
-2.31199 -0.351456 21.406
-0.919564 -1.09764 21.0758
-0.443964 -0.478856 21.491
-1.03524 -0.912035 21.3518
0.151045 -0.506384 20.0587
0.38407 -0.359886 21.6198
0.381851 -0.519491 19.6786
1.50622 -0.243553 16.958
1.12145 -0.437976 21.2414
1.09178 -0.135669 4.56462
1.1641 -0.966064 18.6823
1.97919 -0.316254 17.7053
1.0051 -0.379901 21.0989
2.09973 0.432063 10.52
1.26624 -1.16209 19.3942
1.54675 -0.323316 17.4389
-1.05525 0.368212 19.8678
-1.5198 1.51849 18.6304
-0.878261 0.788474 19.7792
-0.73525 0.354336 19.4412
-2.05478 1.16091 20.059
-1.35781 0.278115 20.7927
-2.50586 1.88302 20.6034
-1.27227 0.948721 20.631
-2.03077 0.379489 21.2507
-0.82104 -0.0957712 21.4653
-2.31068 0.374023 21.0148
-0.953762 0.426475 21.561
-0.559745 -0.229843 21.8533
0.00186707 -0.392715 21.4616
0.124185 -0.439782 18.1424
-0.165634 -0.256656 21.4835
0.127542 -0.798604 21.4322
0.383041 -0.663672 21.2316
0.1445 -0.898477 17.6712
0.0848868 -0.551751 21.2266
0.43272 -0.968624 21.0228
0.409172 -0.587311 20.9877
0.318527 -1.09407 18.5875
0.293591 -0.53068 20.7058
0.412734 -0.777925 19.7719
1.5002 -1.53778 18.5215
0.00451671 -2.31436 18.2369
-0.00118299 -2.36312 16.184
-0.00196323 -0.732868 18.7722
-0.0340946 -6.94344 23.357
0.249832 -0.474876 17.5864
0.00666907 -1.36659 21.1526
-0.00301369 -0.0440725 9.62169
-0.237847 0.0809843 14.4827
-0.00160343 -0.168401 17.4966
-0.000532437 0.11042 9.91169
-0.576124 0.443155 11.9494
-0.00497012 0.549322 15.2054
-0.0913814 0.52305 6.71434
-1.07105 1.61166 13.0376
-0.0535016 1.06528 14.2708
-0.0349169 -0.193653 1.58337
-0.0341947 1.92056 9.73217
-1.64865 1.15188 14.6398
-0.0405593 1.8276 14.9709
-0.0320074 1.30259 5.50309
-0.0756076 1.73305 13.9851
2.30353 -0.521222 17.2447
0.00786413 1.66418 14.7198
0.00177901 -0.194086 18.3094
-1.10199 -0.205767 5.09334
0.0897903 0.96821 -4.95742
-0.0518681 0.319354 -2.49814
-2.0354 0.257655 11.1797
-0.0288269 1.26947 -4.03307
-0.0403855 1.37607 4.07685
1.53499 1.46805 18.6678
0.0415743 1.71753 19.1863
0.00842421 0.762542 18.6123
0.0520064 4.54062 19.3491
2.50954 1.80828 20.613
0.0397508 2.50337 20.2257
0.0324096 5.15902 18.7176
2.33758 0.359138 20.9899
-0.00554338 2.25115 22.3745
-0.00397854 0.0502002 11.6251
-0.184225 -0.407237 17.5194
-0.018068 0.123471 21.9558
-0.128189 0.357876 3.97543
-0.127834 -0.86499 17.5362
-0.0172738 -0.272946 21.5292
-0.021281 -0.883238 8.3547
-0.324416 -1.07988 18.5949
-0.00189359 -0.593454 21.4671
0.0128357 -0.593106 12.1047
1.01861 -0.417202 19.8918
1.20528 -0.897737 19.5241
1.5982 -0.719813 19.1858
0.643874 -0.358928 19.5263
2.40622 -1.73861 20.26
1.02422 -0.62241 21.1007
0.909161 -1.09044 21.4525
1.45804 -1.2774 21.849
0.291419 -0.766785 21.3972
0.203267 -0.393253 21.4202
-0.0129885 -0.386967 21.5092
0.0141117 -0.613118 20.2514
-0.320314 -0.211406 20.9862
-0.445421 -0.112658 21.542
-0.65689 0.203596 21.3021
-0.768129 -0.0110667 19.2211
-1.38928 0.570672 19.3034
-1.05987 0.0743595 21.2461
-1.3303 0.721961 20.7352
-1.82939 0.328501 18.9737
-1.50032 0.616954 19.5644
-1.15967 -0.0804265 20.6734
-1.41065 0.584405 20.701
-1.92874 0.0774727 19.097
-1.21471 0.335674 19.8076
1.24217 -0.155032 19.7745
1.94417 0.241291 19.0231
0.800575 -0.111651 19.3181
3.93478 -0.516177 19.9792
1.37134 -0.399506 21.0842
2.31106 -0.354889 21.4083
0.919124 -1.10077 21.0837
0.443738 -0.480919 21.4981
1.03454 -0.916642 21.3553
-0.144252 -0.512125 20.1103
-0.367825 -0.352139 21.6259
-0.36496 -0.529477 19.8313
-1.48005 -0.252737 17.233
-1.06192 -0.417256 21.2565
-1.15205 -0.958657 19.2756
-1.90264 -0.309451 18.4539
-0.966242 -0.376975 21.1449
-1.19365 -1.05894 19.7912
-1.49881 -0.406903 17.8919
1.04572 0.356355 19.884
0.879996 0.748092 19.8093
0.732036 0.341678 19.4623
2.00438 1.0898 20.0728
1.34387 0.272951 20.7931
1.25887 0.896412 20.6399
2.00469 0.362436 21.245
0.827916 -0.0978167 21.464
0.962036 0.431524 21.5614
0.574694 -0.229512 21.8624
0.00721248 -0.391775 21.4672
0.172479 -0.252408 21.4879
-0.108597 -0.789305 21.3775
-0.373248 -0.659333 21.2395
-0.0721628 -0.553559 21.2376
-0.424427 -0.950396 21.0616
-0.404472 -0.569543 20.9862
-0.281081 -0.542294 20.7626
-0.423261 -0.765794 19.8637
-1.35772 -0.859009 19.4075
-1.11274 -1.23836 21.6453
0.0299226 -0.499824 21.1655
0.769507 0.115242 20.5017
1.69285 0.643804 19.5998
1.62534 0.353942 19.7683
-1.90198 -0.251551 18.9802
-1.94055 -0.852064 21.8821
-0.304244 -0.879628 20.5071
0.658603 -0.217216 18.5657
1.74149 -0.397545 17.7653
1.65494 -0.290257 18.325
-1.40659 0.792987 19.3772
-2.015 0.717165 20.8058
-1.37071 0.0168956 21.8373
-0.089988 -0.522512 21.6639
0.298242 -0.921104 21.2267
0.341369 -0.856862 21.2138
0.00168217 -2.61402 17.3899
0.00662996 -0.445307 11.1175
-0.000944785 0.00537355 9.4093
-0.0180035 0.459636 8.03973
-0.0699493 0.570052 7.43667
-0.044704 1.35908 9.65509
0.00473249 -0.722197 14.9148
0.0347919 -0.0735871 -3.29073
-0.0536071 1.26127 2.47647
0.0248738 2.50775 17.7049
0.0383176 3.52483 20.0678
-0.00227736 2.04055 15.5274
-0.0135374 0.048698 6.72791
-0.0561717 0.316263 5.03289
-0.00622229 -0.541727 9.66456
1.36324 -0.864594 19.4032
1.11873 -1.23483 21.6369
-0.0274268 -0.501015 21.15
-0.76152 0.121626 20.4096
-1.66658 0.6181 19.6174
-1.64673 0.341144 19.7959
1.90203 -0.253598 18.9785
1.94196 -0.857174 21.8914
0.306471 -0.877566 20.4997
-0.652427 -0.234964 18.7883
-1.70242 -0.405988 18.3668
-1.60179 -0.314363 18.9878
1.38818 0.75642 19.4125
1.98887 0.690845 20.808
1.37985 0.0150162 21.8345
0.0949724 -0.523474 21.6617
-0.285016 -0.907555 21.2227
-0.341149 -0.842412 21.307
0 0 0
-0.0297787 -0.0455972 0.468101
-0.0033223 0.000405157 0.043424
0.086217 0.0152634 0.159731
0 0 0
0.00062325 0.0398928 0.256328
-2.26408 0.661842 3.21161
-0.0412716 0.297135 0.57157
-0.105636 0.0192968 0.405143
0.0140235 -0.0510183 0.0467659
-0.25192 0.0277646 -0.0642456
-0.00724802 -0.012414 0.0665484
0.0294003 -0.0452399 0.465225
0 0 0
0.00365804 0.000514165 0.0432196
0.0215961 0.0405303 0.141055
-0.0854088 0.00347006 0.155141
0.000966014 0.106434 0.561244
0.045515 0.319512 0.615071
2.08561 0.584257 2.96633
0.145759 0.0271697 0.557899
0.212335 0.0432195 -0.0867304
-0.0153337 -0.0660448 0.0558407
0.00920697 -0.0155295 0.0832739
0.00244269 -0.00261029 0.0832236
0.0021384 -0.00103427 0.11917
0.000530175 -0.000958265 0.0238242
0 0 0
0.0339643 0.0119115 0.582768
0.00270211 0.000794585 0.246732
-0.000472827 0.00256376 0.0781719
0 0 0
-0.188497 -0.176998 0.615207
-0.00309848 -0.0119434 0.112606
0 0 0
-0.0263136 0.0171561 0.0473892
0 0 0
0.00169667 0.0115085 0.0752408
0 0 0
0.0365734 -0.0186559 0.234689
-0.00268032 -0.00253108 0.0832722
0 0 0
-0.00220252 -0.00105787 0.117636
-0.000562726 -0.00104661 0.0255879
-0.033429 0.0125818 0.586642
0 0 0
-0.00281173 0.000731168 0.244425
0.000558335 0.00261663 0.0742804
0.194839 -0.181859 0.636204
0.0279514 0.0179611 0.0500312
0.00290121 -0.0110789 0.104234
0 0 0
-0.00024073 0.000280332 0.00172896
-0.0248033 -0.0128175 0.157507
-0.00144565 0.00990344 0.064693
0 0 0
-0.179177 -0.0801096 0.802092
-0.795703 -0.287303 0.611854
-7.6838e-07 -9.95284e-06 0.000470206
0.00852846 -0.815575 0.477949
-0.00406722 -0.0201167 0.250144
0.000330148 -8.72036e-05 0.00429554
0.00238556 -0.000255919 0.0171913
-0.0830175 -0.05714 0.00590258
0 0 0
-8.68866e-05 -0.00114585 -0.000216776
-6.2263e-18 -4.46472e-18 -1.57884e-16
5.24414e-06 3.73706e-05 0.000477318
-0.00056068 0.301447 0.254065
0.00027304 0.00676583 0.0341667
-1.00055e-05 -3.97004e-05 0.000370506
-0.000928479 0.00058326 0.00450296
0.00368173 -0.0217368 -0.00695716
-4.70754e-05 0.000649574 -0.0041547
0.00480774 0.00608576 0.133867
0 0 0
1.03211 -0.344263 0.656313
0.153171 -0.0651864 0.682089
-0.000332048 -8.89832e-05 0.00440376
0.00383163 -0.0198588 0.247462
0.0913346 -0.0710931 0.00747307
-0.00268807 -5.55856e-05 0.0239945
-1.17973e-05 4.32937e-05 0.000555792
-0.00303009 0.00203163 0.0712549
0.0013273 0.000834567 0.00644421
1.2979e-05 -5.22444e-05 0.000483399
0.00301492 0.000998403 -0.00394159
-0.00331786 0.00451642 0.0942408
-0.000388448 0.0016906 0.0326227
0 0 0
0 0 0
1.22372e-05 0.000878477 0.016278
-8.9566e-07 -0.000888395 0.037949
1.72258e-06 4.23996e-06 0.00172803
-2.69418e-05 0.00195247 0.0180553
0 0 0
2.01487e-07 1.89241e-07 4.50869e-05
0 0 0
0.000979454 0.00689913 0.0444912
-0.0504216 0.0478876 0.534972
-8.17461e-06 0.000526709 0.00313566
0.00106897 0.0431488 0.103761
-8.4339e-05 0.00044971 0.0414193
9.64513e-05 0.000503361 -0.00119829
0 0 0
0.000349473 0.00152238 0.0296303
0 0 0
-1.04348e-05 0.000836662 0.0156014
3.19964e-05 0.00227375 0.0209446
0 0 0