# vtk DataFile Version 2.0
tri_press
ASCII
DATASET UNSTRUCTURED_GRID
POINTS 3682 float
-0.725 0.215 -2.10539
-0.693221 0.335 2.155
-0.738652 0.655 -2.035
-0.705 0.861847 2.165
0.725 0.215 -2.10527
0.693194 0.335 2.155
0.740757 0.655 -2.035
0.715 0.861927 2.155
-0.764994 0.204413 -0.68526
-0.790507 0.208307 0.73487
-0.827871 0.824386 -0.635
-0.821445 0.898125 0.765
0.764986 0.204412 -0.68518
0.790492 0.208304 0.73491
0.829497 0.821301 -0.638334
0.824681 0.894047 0.758333
-1.51499 -0.133036 -3.25429
-1.51423 -0.0812623 -2.12715
-1.54554 -0.0857694 -0.706177
-1.55511 -0.0853051 0.719432
-1.49638 -0.00307479 2.1408
-1.47726 0.0512602 3.2699
-1.48148 0.0897666 4.3955
-1.51181 0.135946 -3.22712
-1.51354 0.207371 -2.1023
-1.55788 0.223001 -0.685309
-1.56028 0.222753 0.733951
-1.46663 0.294687 2.15133
-1.45586 0.346948 3.27979
-1.46981 0.386034 4.40589
-1.51848 0.641067 -3.16629
-1.53228 0.710907 -2.0403
-1.60169 0.833093 -0.637091
-1.58815 0.88012 0.765083
-1.48061 0.87246 2.16847
-1.46276 0.92188 3.2962
-1.47321 0.972131 4.42469
-1.533 1.50353 -3.09107
-1.54553 1.58702 -1.9682
-1.5763 1.71638 -0.572735
-1.58744 1.8029 0.818338
-1.56219 1.83018 2.21366
-1.5364 1.85139 3.33622
-1.52111 1.88563 4.46293
-0.749366 -0.129647 -3.25633
-0.738314 -0.075049 -2.12991
-0.762208 -0.095162 -0.706864
-0.786733 -0.0945847 0.720826
-0.747762 0.017458 2.14397
-0.729719 0.0653332 3.27129
-0.730735 0.0963507 4.39546
-0.745976 0.133083 -3.22818
-0.707369 0.361239 3.28003
-0.719638 0.391862 4.40511
-0.748609 0.6173 -3.16432
-0.71066 0.921173 3.29288
-0.72068 0.972403 4.42203
-0.752325 1.48739 -3.0895
-0.757107 1.57186 -1.96658
-0.783953 1.71305 -0.572702
-0.805251 1.80699 0.815904
-0.795376 1.83027 2.20962
-0.774287 1.84915 3.33217
-0.75965 1.88355 4.45941
0.750992 -0.130157 -3.25697
0.750255 -0.0753265 -2.1302
0.773233 -0.0954351 -0.707245
0.769096 -0.0948129 0.720286
0.70769 0.017296 2.14313
0.732228 0.0650246 3.26889
0.754262 0.0958423 4.39222
0.744709 0.132667 -3.22867
0.735815 0.361013 3.27696
0.758595 0.391377 4.40138
0.755055 0.61677 -3.16498
0.744904 0.920827 3.28667
0.763213 0.971799 4.41713
0.7982 1.48609 -3.09136
0.808553 1.57029 -1.96883
0.806532 1.71094 -0.576051
0.77687 1.80482 0.811158
0.747682 1.8287 2.204
0.749288 1.84794 3.3267
0.759726 1.88249 4.45444
1.51204 -0.134378 -3.25606
1.51474 -0.0824823 -2.12868
1.54744 -0.0871628 -0.708289
1.54683 -0.0864879 0.716391
1.48172 -0.0037755 2.13679
1.48431 0.0504108 3.26431
1.50478 0.0886192 4.38889
1.50594 0.134653 -3.22874
1.50618 0.206049 -2.10378
1.55416 0.221109 -0.68789
1.56381 0.221136 0.729796
1.47726 0.294173 2.1459
1.48268 0.346199 3.27293
1.50631 0.384909 4.39843
1.5208 0.639474 -3.16832
1.53037 0.708931 -2.04261
1.60066 0.828811 -0.642607
1.59383 0.875598 0.755467
1.49706 0.871156 2.15586
1.49417 0.920786 3.28529
1.5129 0.970763 4.41531
1.57188 1.50087 -3.09497
1.58587 1.58387 -1.97284
1.59357 1.7124 -0.579296
1.56717 1.79886 0.809373
1.52825 1.8271 2.20318
1.51884 1.84895 3.32587
1.52383 1.88345 4.45332
-0.759522 0.435 -2.09789
0 0.211944 -2.10839
-0.752101 0.202603 -1.39533
-0.730798 0.598423 2.19169
-1.35005e-05 0.309671 2.18033
-0.781624 0.231893 1.44494
0.0010525 0.710895 -2.0909
-0.827093 0.783525 -1.335
0.005 0.900756 2.19887
-0.796461 0.913225 1.465
0.75995 0.435 -2.09721
0.751977 0.202722 -1.39522
0.734743 0.598463 2.18565
0.781243 0.232252 1.44496
0.828734 0.781758 -1.33667
0.801456 0.909602 1.45667
-0.776183 0.207927 0.0248049
-0.894211 0.5144 -0.66013
-3.58082e-06 0.199248 -0.68522
-0.898555 0.553216 0.749935
-7.23277e-06 0.204422 0.73489
-0.82428 0.860878 0.0649999
0.000812696 1.06097 -0.636667
0.00161835 1.30717 0.761667
0.776171 0.207926 0.024865
0.894201 0.512856 -0.661757
0.898488 0.551175 0.746622
0.826519 0.857104 0.0599999
-0.888066 0.4747 -1.36516
0.888074 0.473928 -1.36595
-1.79041e-06 0.202619 -1.39528
0.000932597 0.874672 -1.33583
0.000526249 0.435 -2.27732
-0.895592 0.533808 0.0449024
0.895561 0.532016 0.0424325
-5.4068e-06 0.201791 0.024835
0.00121552 1.32352 0.0624999
-0.880847 0.57582 1.45497
0.880795 0.574819 1.45081
-1.03666e-05 0.255942 1.44495
0.00330917 1.09361 1.46083
0.00249325 0.598443 2.29253
-0.689938 0.325 -2.04932
-0.3625 0.212124 -2.10824
-0.736625 0.210727 -1.75036
-0.729283 0.466712 2.19062
-0.346617 0.334713 2.15529
-0.742875 0.277995 1.79997
-0.769224 0.545 -2.08658
-0.3688 0.698058 -2.07806
-0.807899 0.744289 -1.685
-0.708452 0.730135 2.1689
-0.35 0.896162 2.19679
-0.76546 0.902265 1.815
0.3625 0.212121 -2.10818
0.690376 0.325 -2.04914
0.736623 0.210726 -1.75025
0.34659 0.310825 2.17918
0.731263 0.466732 2.18762
0.753673 0.267171 1.79998
0.370905 0.698016 -2.07802
0.76942 0.545 -2.08517
0.809045 0.742678 -1.68583
0.36 0.896955 2.19255
0.715927 0.730195 2.16138
0.77237 0.899907 1.80583
-0.762699 0.199356 -1.04029
-0.772741 0.204018 -0.330228
-0.875382 0.336517 -0.672695
-0.383578 0.199672 -0.68524
-0.783453 0.222713 1.0899
-0.783426 0.208036 0.379838
-0.883114 0.361471 0.742403
-0.395219 0.206441 0.73488
-0.829306 0.805779 -0.985
-0.889152 0.683448 -0.647565
-0.826323 0.842879 -0.285
-0.459319 1.03426 -0.635834
-0.815407 0.91213 1.115
-0.89042 0.740881 0.757468
-0.822544 0.879183 0.415
-0.497254 1.27733 0.763333
0.762693 0.199355 -1.0402
0.38357 0.199672 -0.6852
0.77273 0.204017 -0.330158
0.875192 0.335835 -0.673468
0.783181 0.222965 1.08993
0.395203 0.206441 0.7349
0.783413 0.208033 0.379888
0.88281 0.360579 0.740766
0.830927 0.803341 -0.9875
0.460836 1.0325 -0.6375
0.889442 0.680875 -0.650045
0.828235 0.839429 -0.289167
0.819458 0.908214 1.1075
0.50139 1.27709 0.76
0.890891 0.737265 0.752478
0.825304 0.875279 0.409167
-0.88497 0.45485 -1.73153
-0.379498 0.435 -2.25875
-8.95206e-07 0.206192 -1.75183
0.000263125 0.323472 -2.24652
-0.888365 0.338651 -1.38024
-0.376051 0.202615 -1.3953
-0.855704 0.587122 1.82333
-0.364152 0.598433 2.28031
-1.19335e-05 0.28587 1.81264
0.00123987 0.454057 2.2514
-0.870338 0.403857 1.44995
-0.390817 0.255523 1.44494
0.000992548 0.821057 -1.71336
0.000789374 0.572948 -2.25027
-0.886349 0.629112 -1.35008
-0.41308 0.858052 -1.33542
0.00415458 0.972194 1.82985
0.00374662 0.7496 2.23645
-0.883959 0.744522 1.45998
-0.396576 1.06622 1.46292
0.885046 0.454464 -1.73158
0.380238 0.435 -2.25875
0.888356 0.338325 -1.38059
0.375988 0.202613 -1.39525
0.856645 0.586641 1.81823
0.368618 0.598453 2.27997
0.872019 0.403536 1.44788
0.390616 0.255518 1.44495
0.886365 0.627843 -1.35131
0.414834 0.857865 -1.33625
0.884207 0.742211 1.45374
0.402382 1.06735 1.45875
-0.879551 0.349036 0.0348537
-0.389061 0.202927 0.02482
-0.887766 0.49455 -1.01265
-0.895034 0.524104 -0.307614
-2.68562e-06 0.193068 -1.04025
-4.49381e-06 0.199849 -0.330193
-0.896612 0.543512 0.397419
-0.892786 0.564518 1.10245
-6.31978e-06 0.203106 0.379863
-8.79969e-06 0.225982 1.08992
-0.889204 0.711977 0.0549512
-0.514051 1.29723 0.0637499
0.000872647 0.911537 -0.98625
0.00101411 1.22764 -0.287083
0.00141694 1.32988 0.412083
0.00246376 1.21606 1.11125
0.879339 0.348234 0.0336488
0.389049 0.202927 0.02485
0.887807 0.493392 -1.01385
0.895011 0.522436 -0.309662
0.896567 0.541596 0.394527
0.892858 0.562997 1.09872
0.889637 0.708858 0.0512162
0.51708 1.29674 0.0612499
-0.873713 0.331826 -1.74094
-0.88824 0.349029 -1.02647
-0.890455 0.649252 -0.998823
-0.879265 0.587056 -1.70826
0.874415 0.331663 -1.74091
0.879558 0.586422 -1.7087
0.890486 0.647461 -1.00068
0.888248 0.34848 -1.02703
-0.369276 0.206307 -1.75109
0.369244 0.206303 -1.75104
0.379239 0.193069 -1.04023
-0.379275 0.193069 -1.04027
-0.39094 0.806703 -1.69918
-0.413305 0.901884 -0.985625
0.414994 0.901592 -0.986875
0.392869 0.806507 -1.6996
-0.370999 0.324236 -2.23854
-0.374149 0.558974 -2.23028
0.375571 0.558974 -2.2304
0.371369 0.324236 -2.23733
-0.87759 0.342715 -0.318921
-0.881473 0.355183 0.388628
-0.889948 0.726497 0.406209
-0.88919 0.697718 -0.296307
0.877366 0.341985 -0.31991
0.8895 0.694847 -0.299414
0.890467 0.723163 0.401847
0.881252 0.354318 0.387207
-0.38668 0.200578 -0.33021
0.38667 0.200578 -0.330175
0.392126 0.204684 0.379875
-0.39214 0.204684 0.37985
-0.506757 1.20589 -0.286042
-0.51309 1.30216 0.413542
0.516677 1.3018 0.410625
0.508812 1.20433 -0.288125
-0.881102 0.392309 1.09618
-0.851904 0.435284 1.81165
-0.852163 0.737329 1.81916
-0.892187 0.735097 1.10873
0.881266 0.391638 1.09432
0.892632 0.732411 1.10311
0.85322 0.736203 1.81203
0.852393 0.435134 1.8091
-0.393037 0.22587 1.08991
0.392929 0.225872 1.08993
0.368603 0.284048 1.80631
-0.368717 0.284048 1.8063
-0.403245 1.18569 1.11313
-0.373288 0.966398 1.82243
0.381191 0.966994 1.81784
0.407766 1.18642 1.10938
-0.355385 0.460384 2.27235
0.357604 0.460394 2.2723
0.364309 0.739898 2.23348
-0.357076 0.739868 2.2337
-0.720814 0.27 -2.0907
-0.54375 0.212404 -2.10797
-0.73585 0.207826 -1.92787
-0.708621 0.400856 2.17018
-0.519919 0.343119 2.14688
-0.735459 0.289087 1.97748
-0.751764 0.6 -2.05862
-0.553726 0.677861 -2.05786
-0.776965 0.703333 -1.86
-0.704034 0.795991 2.16426
-0.5275 0.889267 2.19116
-0.74413 0.890956 1.99
0.54375 0.212401 -2.10788
0.721003 0.27 -2.09052
0.735848 0.207827 -1.92776
0.519892 0.313191 2.17681
0.709736 0.400866 2.16882
0.73028 0.294239 1.97749
0.555831 0.67749 -2.05749
0.753941 0.6 -2.05894
0.777978 0.701916 -1.86042
0.5375 0.890594 2.18493
0.712596 0.796061 2.15532
0.751893 0.889125 1.98042
-0.761281 0.20445 -0.862776
-0.765315 0.207768 -0.507744
-0.854909 0.253105 -0.678978
-0.573355 0.203903 -0.68525
-0.782333 0.220157 0.912386
-0.787052 0.208086 0.557354
-0.861548 0.27252 0.738636
-0.593972 0.205155 0.734875
-0.827672 0.814166 -0.81
-0.864621 0.756971 -0.641283
-0.828347 0.834882 -0.46
-0.674897 0.991925 -0.635417
-0.820225 0.906926 0.94
-0.871379 0.827226 0.761234
-0.82232 0.88898 0.59
-0.678657 1.12634 0.764167
0.761274 0.20445 -0.862691
0.573588 0.203423 -0.68519
0.765307 0.207766 -0.507669
0.853937 0.2532 -0.679324
0.782277 0.220194 0.912421
0.593956 0.205155 0.734905
0.787035 0.208086 0.557399
0.86144 0.272047 0.737838
0.829267 0.811376 -0.812917
0.676561 0.989689 -0.637917
[...]
POINT_DATA 3682
SCALARS point_scalars float 1
LOOKUP_TABLE default
-75.7846
-44.2803
-20.9559
-38.661
-76.3088
-44.0582
-22.8115
-38.516
-35.9604
-40.1716
-48.5521
-46.6266
-35.8344
-40.1197
-48.0644
-46.533
-92.8363
-79.2101
-37.8272
-40.0637
-46.0809
-40.7361
-37.7458
77.1099
-78.6889
-36.5361
-39.2109
-45.4257
-39.6379
-36.8217
56.1649
-58.0118
-42.5166
-42.6727
-43.9576
-38.2089
-36.4205
1.80401
-51.2298
-79.3455
-54.072
-39.7493
-38.4556
-37.6629
-42.6715
-129.432
-36.3521
-39.9429
-44.8213
-37.159
-36.3207
65.9105
-36.4731
-36.0219
149.87
-35.7606
-35.7799
41.8345
-43.7888
-68.3883
-57.6569
-34.4248
-35.4566
-35.2567
-36.4668
-118.465
-36.2462
-39.8578
-43.6196
-36.8639
-36.1796
64.4669
-36.2544
-35.919
151.498
-35.4018
-35.6861
43.312
-43.89
-68.3296
-57.8625
-33.8799
-34.6362
-34.6362
-93.2463
-78.1607
-37.9608
-39.8441
-45.6342
-40.1544
-37.1998
77.6945
-77.8279
-36.3991
-39.0557
-45.1925
-39.1504
-36.5659
55.9705
-57.6465
-42.3736
-42.482
-43.5364
-37.8589
-36.1318
-0.416794
-50.795
-76.5542
-55.1815
-38.0105
-38.0309
-37.138
-13.5444
-144.22
-48.6604
-38.275
-38.9969
-41.9018
-23.2026
-43.5176
-29.3261
-40.7347
-14.7375
-48.6399
-38.0795
-41.1734
-43.6664
-40.8097
-34.7391
-38.0763
-38.9398
-40.2004
-41.2089
-51.2245
18.7621
-59.5827
-34.7119
-37.9946
-40.0805
-51.0987
-50.8279
-50.8195
-54.1379
-14.184
190.041
-39.4563
-39.3799
-36.4391
-101.823
-42.3658
-42.0595
-41.0823
-35.1282
-30.6398
11.7886
-152.94
-68.7134
-40.275
-40.5958
-41.5796
-26.552
-13.8367
-50.8315
-38.1914
-32.5233
-37.6083
-152.89
12.4465
-68.952
-40.7172
-40.0916
-43.2572
-13.8803
-27.8518
-50.5783
-31.7713
-38.226
-37.5753
-40.2618
-34.6132
-35.9179
-38.2123
-39.313
-36.4659
-39.2275
-40.6303
-34.223
-41.7149
-53.9427
12.0198
-45.4286
-42.2552
-48.0486
-58.8922
-40.2087
-38.1838
-34.6605
-35.8077
-39.3519
-40.5697
-36.4133
-39.1097
-34.2458
12.1398
-41.5357
-53.7382
-45.3611
-58.9504
-42.0869
-47.9419
-74.7722
197.808
-75.9424
180.53
-51.3395
-52.1725
-46.3944
-35.0665
-38.9381
-33.4675
-42.5423
-42.0606
-34.9388
127.369
-50.3294
-18.8567
-31.826
-28.3186
-41.9632
-36.0314
-75.7717
197.845
-51.2669
-52.1935
-46.051
-34.62
-42.1345
-41.6643
-50.3724
-19.0066
-41.7135
-36.0626
-36.6391
-36.0229
-38.7752
-39.3249
-44.929
-36.4935
-39.3043
-41.0929
-37.8064
-42.7553
-43.7533
-90.2678
9.3404
-39.3815
-76.3908
-43.0822
-36.5861
-36.0056
-38.8084
-39.2509
-39.2271
-40.9254
-43.635
-89.3394
-77.228
-40.3229
-38.0799
-66.8874
-78.1908
-66.9107
-38.032
-40.2622
-73.765
-73.786
-44.0423
-44.1177
-37.876
1.27305
1.12458
-37.9018
158.911
141.364
140.951
159.366
-36.3031
-37.3599
-42.3915
-44.7843
-36.2698
-44.6307
-42.4237
-37.286
-35.9994
-36.0386
-37.3725
-37.4004
-50.641
-68.0464
-68.0353
-50.1108
-40.1544
-46.812
-44.624
-41.789
-39.9934
-41.6852
-44.289
-46.6861
-42.5563
-42.4209
-39.331
-40.647
-43.9941
-32.6245
-32.4746
-44.1083
-36.3552
-36.1652
-33.8121
-34.47
-11.8323
-165.35
-97.9683
-41.65
-41.312
-43.6052
-18.655
-13.9366
-40.2437
-38.7448
-34.3574
-37.8055
-165.379
-11.6584
-97.9331
-42.2588
-41.3781
-43.1746
-14.1906
-19.6799
-40.5189
-33.7455
-38.9664
-37.7864
-39.7934
-35.1409
-35.1837
-37.4115
-41.5379
-37.4467
-39.9489
-40.3008
-38.8074
-44.2903
-54.179
-24.3554
-46.1868
-44.0477
-47.1222
-53.1217
-39.603
-37.4935
-35.1646
-34.9385
-41.5129
-40.2222
-37.3705
-39.6275
-38.423
-24.452
-44.0453
-53.8149
-45.9565
-52.9464
-43.8902
-46.9748
4.23655
-22.8115
-67.7786
135.206
-158.432
-158.418
-99.2451
134.41
-56.4341
-43.7274
-51.1414
-50.0992
-39.31
-37.8742
-44.1379
-35.7798
-39.7601
-39.5971
-39.1155
-35.4795
-49.3899
-40.063
-42.59
-43.2231
-24.3576
-23.78
-42.5567
71.4352
-47.845
-36.6541
-51.3167
-26.0994
-30.552
-29.9878
-31.4321
-26.5708
-38.6502
-43.3442
-41.3436
-37.8526
5.2273
-23.7255
-67.4205
134.851
-56.4734
-43.7484
-51.0542
-50.1405
-39.0697
-37.8133
-43.8712
-35.5451
-47.2702
-38.8545
-42.1717
-42.8668
-47.9419
-36.734
-51.5489
-26.2827
-38.8896
-43.3352
-41.1537
-37.9218
-35.5564
-35.0007
-35.8537
-35.0778
-36.9907
-39.5214
-38.6168
-38.6917
-38.7282
-38.7124
-41.8732
-37.3254
-39.7295
-41.0095
-39.5598
-41.2101
-41.1286
-41.096
-39.2247
-43.5687
-52.809
-49.528
-47.6756
-65.7629
17.626
17.6458
21.2401
-3.13323
-59.7234
-59.7965
-67.8747
-50.641
-35.543
-34.9717
-35.854
-35.0241
-36.9172
-39.3877
-38.4837
-38.5964
-39.6304
-40.879
-39.4638
-41.0792
-52.6197
-49.4552
-47.4104
-65.7657
-64.3624
-51.1816
-50.3849
-42.9511
-64.2871
-51.1263
-50.4053
-42.8971
-62.7502
-53.5831
-53.5921
-48.5217
-25.3743
-15.1306
-15.2322
-2.19057
187.552
189.427
200.921
187.642
-37.9853
-39.5263
-39.2984
-41.2623
-37.9278
-39.4471
-39.2212
-41.1747
-36.3206
-36.2545
-36.8385
-36.3142
-98.9746
-92.5313
-87.1148
-99.0776
-44.4812
-42.5259
-42.2301
-41.3163
-44.1855
-42.0194
-41.9913
-41.0868
-40.1086
-41.3452
-41.1368
-42.0435
-32.794
-35.3503
-35.3809
-38.1296
-32.6013
-33.3622
-28.8558
-32.0618
-81.8187
124.346
-97.8462
51.6228
-73.6224
-71.6655
-44.9147
-36.7401
-40.7405
-37.8754
-46.2408
-41.1832
-58.319
119.438
-39.4542
54.7795
-57.0164
-42.2587
-44.1261
-35.7777
-31.7974
-33.4779
-42.7668
-33.7269
-97.8539
54.1158
-79.1876
124.291
-73.9136
-71.7196
-39.7233
-37.3683
-44.5499
-36.4826
-46.3172
-40.0004
-39.3389
54.6066
-58.4541
119.373
-56.9526
-42.2964
-31.4156
-32.6607
-43.8278
-35.4958
-42.4659
-33.5995
-40.4237
-43.1216
-35.2984
-35.4751
-39.3824
-35.934
-41.2847
-36.682
-39.3373
-41.1151
-36.7511
-36.8793
-38.0251
-40.6927
-38.8076
-43.492
-38.0158
-11.5383
-39.0156
-43.9588
-48.9762
-83.2123
11.4876
-11.4281
-42.9873
-47.0776
-42.3739
-41.8551
-44.5856
-55.8086
-63.4704
-51.6265
-40.3545
-43.349
-41.1772
-36.7004
-35.2577
-35.822
-39.3388
-35.873
-39.2064
-41.0353
-38.7639
-43.4055
-36.6728
-36.8513
-37.9276
-40.5479
-38.0098
-11.8304
11.2021
-11.0526
-38.8541
-43.7787
-48.7659
-82.4448
-42.8917
-47.2496
-63.3549
-51.8444
-42.2734
-41.67
-44.5258
-55.6222
-75.2895
-73.723
186.206
192.306
-75.3767
-75.3916
188.642
188.728
-65.8309
-43.6208
-60.5737
-47.0758
-46.7136
-45.6687
-35.8391
-34.5346
-38.9755
-39.3918
-34.4363
-34.1754
-40.7733
-44.471
-42.3545
-41.4101
-35.6325
-35.6561
135.719
135.798
-41.9644
-65.436
-28.6545
-9.53375
-32.0546
-31.9659
-30.2105
-31.0728
-43.8582
-41.3353
-39.1796
-33.8721
-76.1471
-74.1275
192.247
186.251
-65.5325
-43.5453
-60.5953
-47.0915
-45.3429
-46.4198
-35.5577
-33.9344
-40.4676
-44.1334
-42.0461
-40.784
-65.4351
-41.9691
-9.64518
-28.7149
-41.1369
-43.6096
-33.8796
-39.2706
-36.5583
-36.8987
-35.8601
-36.4238
-39.6857
-38.2942
-37.68
-41.5604
-44.6351
-44.6589
-36.343
-36.3493
-38.2902
-40.5235
-40.6303
-41.2307
-37.6781
-37.6929
-42.769
-42.6862
-43.1193
-44.6489
-89.387
-74.7651
7.21813
7.17696
-41.661
-41.1425
-74.6127
-74.5992
-43.2589
-43.2867
-36.5184
-36.8367
-35.8514
-36.4087
-38.2774
-39.6736
-37.6303
-41.4618
-40.4658
-38.2202
-40.4951
-41.0726
-44.4892
-42.8778
-74.3782
-89.5509
-86.4243
-65.712
-65.1927
-75.7261
-40.5641
-38.558
-43.3679
-43.6938
-39.6831
-41.8592
-42.5213
-38.7671
-52.7055
-65.8798
-63.8571
-61.5448
-85.3764
-73.8925
-64.9147
-65.5081
-52.7213
-61.7163
-63.8625
-65.8257
-39.5051
-38.6151
-42.4734
-41.9922
-40.5035
-43.6225
-43.3047
-38.4318
-98.3458
-98.9662
-62.1509
-58.2509
-98.378
-58.2942
-62.1642
-98.981
-39.7066
-41.6468
-48.0796
-45.5855
-40.4042
-45.4741
-48.0689
-41.6779
-38.1539
-34.1314
-26.102
-41.8786
-7.33802
19.3245
-3.67801
-19.1877
-7.71613
-19.3285
-3.76586
19.1974
-37.9736
-41.939
-26.166
-34.2727
88.1781
118.512
187.833
110.432
51.7877
67.7754
197.63
159.266
51.8409
158.715
197.632
68.0931
89.3652
110.294
187.917
118.53
-35.2549
-35.218
-37.8876
-37.2346
-37.4823
-38.6939
-38.1163
-36.2368
-44.6575
-46.4663
-40.9139
-40.6462
-48.1569
-40.8209
-41.6401
-48.6491
-35.2351
-37.1468
-37.8388
-35.1639
-47.8649
-48.3862
-41.5484
-40.6993
-44.5363
-40.5419
-40.8062
-46.1392
-37.3805
-36.1749
-38.0321
-38.5921
-35.7105
-37.135
-36.1307
-35.7857
-35.5982
-35.685
-36.1302
-37.1355
-38.217
-39.0939
-36.7125
-35.919
-38.2815
-35.9137
-36.7262
-39.1159
-68.3175
-72.3431
-88.0499
-4.48458
-54.2431
-67.1328
-85.0233
-59.6212
-54.3199
-59.5037
-85.0807
-67.1616
-68.0113
-4.11683
-87.5839
-72.2193
-41.406
-40.5833
-41.0392
-40.8386
-45.931
-44.4095
-44.2269
-44.9868
-43.2928
-42.1202
-44.5411
-44.3584
-43.7263
-41.5492
-41.3688
-41.6184
-41.5325
-40.67
-40.8204
-40.1278
-43.472
-41.4565
-41.1438
-41.4225
-42.9233
-44.0755
-44.2093
-42.0651
-45.2995
-44.4893
-43.9491
-44.1172
-42.1958
-43.5837
-42.1752
-41.9646
-42.0822
-41.4064
-42.031
-43.5326
-40.4408
-39.2217
-40.1702
-43.491
-41.2589
-44.2521
-40.4755
-39.5447
-50.9262
-41.6933
-38.4338
-50.5191
-33.072
-31.5152
-33.1599
-35.1785
-32.7009
-35.1469
-33.1239
-31.2634
-50.7486
-50.599
-38.4627
-41.7888
-38.3992
-36.1437
-34.3296
-36.1251
-38.0281
-35.9303
-33.97
-36.1762
-35.1286
-28.5156
-30.6293
-35.2756
-35.593
-35.6073
-31.3563
-29.5052
-41.5744
-149.155
-135.657
-42.7924
-42.4282
-44.8295
-17.9176
-16.8632
-41.2426
-39.0234
-35.8093
-37.8499
-149.25
-41.9128
-135.889
-42.8647
-42.5805
-43.8037
-17.1349
-19.0139
-42.7969
-35.2316
-38.9539
-37.7225
-36.9698
-35.6505
-35.435
-36.449
-42.6665
-38.3949
-40.6472
-40.1849
-46.0942
-46.3169
-52.0755
-53.4102
-46.1966
-45.4279
-46.964
-49.206
-36.9122
-36.4565
-35.5801
-35.1182
-42.6387
-40.1143
-38.3236
-40.5131
-45.4707
-53.2383
-45.941
-51.609
-46.0354
-49.0445
-45.2589
-46.7484
-2.40115
-21.3118
-67.7448
95.0486
-160.648
-160.643
-120.593
-21.6867
-51.221
-46.4448
-50.9425
-48.9546
-38.8521
-37.7619
-41.4831
-36.2637
-39.2819
-39.1349
-39.1179
-37.8531
-43.8877
-41.0497
-42.8647
-42.5483
-23.7799
-23.84
-33.6306
7.78716
-46.9402
-39.7329
-48.369
-33.234
-29.8083
-29.4491
-31.9252
-27.1547
-39.6407
-41.9313
-41.014
-39.6323
-0.202137
-22.0144
-69.4991
94.9472
-51.2484
-46.4216
-50.852
-48.9832
-38.7267
-37.6318
-41.3097
-36.0032
-42.3348
-39.4451
-42.1697
-41.9945
-47.1319
-40.0301
-48.6221
-33.3388
-39.6169
-41.8765
-40.9076
-39.6648
-35.4431
-34.9111
-35.4925
-34.878
-37.4829
-38.7344
-38.2686
-38.3654
-38.8666
-38.8589
-40.1112
-38.0191
-39.9184
-40.5652
-39.8251
-40.8946
-41.1789
-41.1623
-40.1253
-42.6578
-52.0907
-50.5069
-49.8913
-57.5393
18.6394
18.6567
22.6516
9.03619
-59.5882
-59.6165
-63.8139
-54.7754
-35.4135
-34.8854
-35.4837
-34.8555
-37.428
-38.6391
-38.1857
-38.2778
-39.8146
-40.4331
-39.7178
-40.7551
-51.978
-50.3399
-49.6388
-57.4626
-56.5322
-51.099
-50.4772
-46.3791
-56.4889
-51.0584
-50.4847
-46.3616
-57.957
-53.9603
-53.9647
-51.1261
-19.6025
-14.6045
-14.6539
-8.12389
187.226
186.474
203.2
187.316
-38.653
-39.4453
-39.4074
-40.3101
-38.5798
-39.3754
-39.3253
-40.2246
-36.3915
-36.4032
-36.5249
-36.3886
-100.668
-107.771
-94.9774
-100.719
-42.9933
-42.4467
-42.2286
-41.4951
-42.5798
-42.1245
-41.9709
-41.2252
-40.5892
-41.1793
-41.0752
-41.5681
-33.9155
-35.1855
-35.1957
-36.3619
-31.3991
-32.528
-27.5281
-30.8018
4.0616
24.6909
-90.56
110.411
-160.594
-154.181
-119.388
-56.5964
-81.4958
-62.1193
-76.5418
-70.2497
-41.0043
-39.654
-42.8872
-37.4581
-41.0383
-40.2763
-41.3693
-39.0936
-41.0127
-45.3243
-45.1248
-41.0399
-22.6377
-21.5373
-55.7519
75.3459
-6.10508
-22.4092
-34.0619
-0.868351
-44.0341
-48.2072
-53.4789
-45.3007
-38.2899
-38.0767
-41.635
-36.2157
-33.3442
-31.6467
-32.0507
-32.849
-37.4098
-38.0881
-40.5884
-35.2406
-160.236
-154.222
-119.404
-53.2519
4.75971
25.3779
-97.2178
110.742
-81.5203
-62.2586
-76.7041
-70.3446
-41.4735
-40.0777
-40.0655
-39.7363
-40.6535
-39.3848
-42.5305
-37.2373
-42.472
-45.5815
-45.4036
-40.8696
-6.14721
-22.5999
-34.2533
-1.15955
-23.5243
-22.3446
-56.948
74.8482
-43.7748
-47.9181
-53.274
-45.2525
-32.6855
-31.0119
-31.5308
-32.0118
-38.3909
-38.0628
-41.4847
-35.9463
-37.2536
-38.1045
-40.4571
-34.7612
-42.2416
-41.1482
-40.3017
-41.7913
-34.0815
-35.0651
-34.6621
-35.1364
-35.2577
-36.4816
-37.0511
-35.792
-37.7181
-38.4837
-39.4179
-37.2947
-38.9222
-40.029
-39.0372
-40.1128
-36.5192
-35.9173
-36.1154
-36.5346
-39.4689
-39.3855
-38.5041
-40.8136
-40.4051
-40.9673
-39.6888
-42.312
-35.7679
-34.6395
-37.0554
-23.0054
-42.8811
-40.4698
-40.2628
-42.9514
-54.2888
-53.4731
-51.4282
-64.3502
1.92857
16.2215
15.1872
3.05496
-45.8762
-44.2144
-44.0489
-46.952
-43.0987
-41.5596
-42.2486
-42.0832
-47.4253
-48.6946
-46.8801
-51.7772
-57.1728
-59.1055
-61.8367
-55.6409
-42.027
-41.153
-40.2342
-41.8122
-37.7213
-38.4595
-39.3559
-37.2879
-34.1249
-35.0858
-34.6613
-35.2735
-35.1109
-36.4047
-36.9565
-35.7067
-38.8614
-40.439
-38.9947
-40.0448
-40.3321
-40.92
-39.6372
-42.2403
-36.4568
-35.8763
-36.0371
-36.4914
-39.1799
-39.3099
-38.3921
-40.7428
-35.6237
-35.1987
-37.0721
-23.2663
2.09279
16.3811
15.0968
3.41437
-42.6761
-40.3156
-40.1126
-42.7751
-54.0361
-53.3228
-51.1572
-64.0804
-45.752
-44.1367
-43.9436
-47.0668
-56.8687
-59.156
-61.7964
-55.5718
-42.9186
-41.4183
-42.1005
-41.9554
-47.3219
-48.5923
-46.6813
-51.6382
-65.8235
-76.1282
-75.0685
-74.4285
163.599
188.028
191.911
199.143
-85.526
-68.4761
-75.6889
-75.697
166.827
184.98
187.88
187.976
-51.3631
-51.1859
-56.8817
-46.9388
-51.2256
-52.9593
-55.8001
-49.4444
-45.5898
-45.7714
-46.6557
-46.0479
-35.5824
-33.935
-35.5551
-34.5288
-39.0077
-39.6977
-38.8968
-39.0832
-34.3841
-33.1951
-33.8503
-33.6654
-42.4327
-42.6311
-41.0794
-42.9712
-42.8491
-41.6304
-42.1741
-41.8133
-40.226
-30.297
-35.2705
-35.2781
98.0586
166.656
131.544
131.254
-50.9509
-50.3631
-45.624
-56.7432
-22.0014
-16.6203
-23.8269
-14.2131
-31.4539
-32.1947
-31.8991
-31.8429
-27.4898
-28.9014
-28.8068
-29.3229
-41.6913
-42.1266
-43.1981
-41.1895
-36.72
-35.6604
-37.4496
-34.7399
-64.8401
-76.5192
-75.6416
-75.1479
163.25
188.108
199.311
191.61
-51.2812
-51.123
-56.7551
-46.8611
-51.2588
-52.9731
-55.8205
-49.4653
-45.3056
-45.4771
-45.7187
-46.3471
-35.2927
-33.313
-35.2387
-33.9745
-42.1516
-42.0497
-40.6577
-42.6667
-42.4332
-41.3232
-41.7984
-41.3199
-51.0294
-50.3939
-56.7801
-45.6576
-22.2423
-16.7535
-14.3303
-23.9872
-41.4615
-41.8488
-40.9735
-42.8665
-36.7903
-35.6941
-34.911
-37.5228
-36.2686
-37.3357
-36.5702
-36.8084
-35.712
-36.1698
-36.0146
-36.0937
-38.2211
-40.7713
-39.2427
-38.3546
-39.025
-39.4852
-38.4393
-40.3638
-43.7643
-46.3642
-44.799
-44.8098
-36.8235
-36.3011
-36.443
-36.4451
-39.3521
-39.3095
-38.7448
-39.8877
-41.0776
-41.4976
-40.8615
-41.1639
-38.4577
-37.272
-37.7686
-37.7761
-43.1715
-42.4133
-42.7552
-42.7127
-45.3596
-42.4164
-43.4604
-44.292
-78.4863
-95.9969
-91.9384
-81.1459
15.4887
3.44211
8.70895
8.75116
-21.5184
-58.7305
-39.8318
-39.5847
-72.1339
-81.0924
-76.1029
-76.1105
-46.5039
-40.3518
-43.1956
-43.2359
-36.2188
-37.28
-36.5268
-36.754
-35.6942
-36.1588
-35.9941
-36.0791
-38.1738
-40.7413
-38.3808
-39.2678
-38.9401
-39.4098
-38.3831
-40.27
-39.2596
-39.2348
-39.8169
-38.6688
-40.9329
-41.3032
-40.7142
-41.005
-45.2127
-42.3043
-44.1462
-43.3259
-78.3847
-96.2036
-81.2438
-91.9726
-73.9688
-75.8077
-76.9396
-74.4467
-40.5209
-40.8222
-41.6329
-40.0597
-38.2915
-38.4999
-38.9841
-37.9653
-56.5888
-62.1105
-72.6898
-71.9082
-72.1213
-76.8107
-77.8713
-74.7172
-56.5178
-62.0025
-72.8853
-71.9229
-38.2646
-38.4162
-38.9443
-37.982
-40.4465
-40.7872
-41.5663
-40.0192
-83.5856
-72.8674
-74.5864
-66.3159
-83.6025
-72.8983
-74.6056
-66.3383
-43.5208
-43.1988
-45.1143
-44.3323
-43.6715
-43.3232
-45.1291
-44.376
-42.2708
-39.8121
-36.8248
-33.3168
-3.96136
6.14475
-3.55446
4.7979
-4.13019
5.97296
-3.69267
4.64966
-42.251
-39.8396
-36.839
-33.3742
135.123
135.695
172.669
188.858
131.697
107.558
169.959
138.067
107.342
132.198
137.827
168.229
134.998
135.408
188.931
172.779
-35.8676
-36.1108
-36.356
-36.961
-37.0712
-37.5747
-37.1226
-37.82
-41.5452
-43.1555
-41.469
-43.0292
-44.5408
-46.8536
-42.959
-44.8254
-35.8379
-36.0717
-36.3222
-36.9172
-44.3653
-46.6732
-42.834
-44.6549
-41.3549
-43.3112
-41.4408
-42.8417
-36.9967
-37.4854
-37.0458
-37.7458
-35.7502
-36.2712
-35.8739
-36.1756
-36.3076
-35.8753
-36.1918
-35.8919
-38.019
-37.1577
-37.5367
-36.8452
-37.1945
-38.0547
-36.8655
-37.5582
-74.9824
-27.1741
-74.5362
-43.1704
-61.2317
-65.9159
-71.8439
-72.5679
-65.3544
-61.0431
-72.5019
-71.6631
-26.9342
-74.8913
-42.6172
-73.4944
-39.8198
-39.9808
-40.9101
-40.3801
-46.2611
-46.7167
-46.7283
-46.0564
-44.5015
-43.9943
-45.1638
-44.2942
-42.3193
-41.9188
-41.9239
-41.4802
-39.6457
-39.8231
-40.6665
-40.2549
-42.2012
-41.721
-41.8562
-41.3465
-44.1579
-43.6798
-44.8546
-44.003
-46.0319
-46.629
-46.4811
-45.8551
-42.2679
-42.932
-42.4084
-42.7032
-42.1377
-42.8284
-42.243
-42.5871
-39.4937
-39.5973
-39.1226
-40.1296
-40.8522
-41.1259
-39.8153
-40.951
-45.0367
-47.3274
-41.2724
-43.4584
-32.0673
-33.0658
-32.3159
-33.2498
-31.8134
-32.9226
-32.1857
-33.1902
-45.2419
-47.5268
-41.3824
-43.5708
-36.5445
-36.7366
-36.0549
-35.6726
-36.5683
-36.344
-35.3625
-35.8493
-33.2616
-34.8221
-32.1544
-33.9891
-35.2584
-33.9827
-34.5539
-32.9239
-95.8891
72.0753
-125.23
-23.0929
-93.1109
-98.372
-43.5342
-39.0949
-42.7272
-39.5853
-45.8795
-41.0028
-50.4346
34.8865
-23.8614
7.47592
-47.5874
-34.3411
-41.623
-36.5461
-33.1577
-35.2993
-41.5105
-34.6233
-125.293
-18.3924
-97.6875
71.9074
-92.4775
-98.4089
-41.3595
-41.0642
-43.1
-38.8622
-45.1386
-40.3098
-23.8676
6.66073
-51.8625
35.2536
-47.9341
-34.0722
-32.647
-34.737
-41.3567
-36.2607
-41.219
-34.3273
-39.2232
-40.3483
-35.0339
-35.2037
-36.9226
-34.6022
-38.5195
-35.8222
-42.6937
-41.594
-36.8171
-37.9137
-37.8699
-41.908
-39.2002
-42.5852
-40.6883
-24.3073
-41.8792
-46.5903
-50.5505
-69.8978
-7.34196
-47.8043
-45.075
-48.1401
-44.3154
-44.0972
-46.0934
-50.2585
-53.845
-51.8173
-39.1566
-39.9616
-38.3915
-35.692
-35.0271
-35.2046
-37.0426
-34.4376
-42.6509
-41.5291
-39.1315
-42.4727
-36.7003
-37.8481
-37.7439
-42.0672
-40.3071
-24.6635
-8.13638
-47.9728
-41.5922
-46.2475
-50.1987
-69.4208
-44.7923
-47.9435
-53.8705
-51.8164
-44.1179
-43.9574
-45.855
-50.162
-80.4223
90.2231
-58.9861
101.003
-72.2563
-66.7094
114.901
150.315
-121.473
68.0086
-121.483
67.9775
-99.1263
-99.1327
91.9197
91.3943
-65.3453
-56.9747
-43.743
-44.6657
-56.2782
-46.9632
-53.4185
-47.7522
-42.1783
-36.692
-41.5028
-36.0848
-44.2076
-44.2255
-35.9449
-35.5795
-39.5733
-38.666
-39.3533
-38.3964
-39.0909
-39.248
-35.5783
-35.5862
-45.5413
-47.342
-40.353
-41.1473
-40.7921
-43.9666
-41.9598
-45.6545
-34.0317
8.4415
-34.1762
8.47599
-42.2139
-42.2045
67.524
68.1337
-54.272
-39.4276
-40.426
-27.8573
-46.189
-56.7835
-30.1301
-22.1901
-31.934
-29.4242
-31.6219
-28.5629
-31.4807
-31.3469
-26.9993
-27.6114
-40.5368
-36.3291
-42.2797
-43.5689
-42.0704
-41.112
-39.5008
-36.4869
-86.1418
90.3075
-60.22
99.3915
-71.1291
-66.4889
150.029
114.893
-65.1377
-57.0258
-43.6771
-44.7548
-56.172
-46.88
-53.4554
-47.8138
-41.904
-36.4913
-41.2276
-35.7715
-43.9592
-43.9395
-35.7457
-35.2437
-44.9713
-46.6148
-39.5518
-40.3274
-40.2328
-43.623
-41.3037
-45.0136
-54.4369
-39.6743
-40.5725
-28.117
-56.9039
-46.3391
-22.2961
-30.3426
-40.4957
-36.33
-42.1476
-43.7017
-40.8966
-41.8757
-36.4606
-39.5982
-34.5114
-35.3399
-35.7926
-35.6192
-35.7231
-36.0064
-35.4434
-35.5092
-37.7364
-37.0305
-39.1058
-40.1953
-38.5737
-38.6738
-37.9153
-39.651
-39.8878
-37.819
-39.8631
-37.812
-41.7745
-41.7884
-37.2894
-37.2889
-39.0898
-40.7861
-40.8172
-41.195
-39.0854
-40.0751
-40.9821
-41.3861
-40.0096
-42.625
-39.9826
-42.5852
-39.1813
-39.1925
-43.578
-43.5515
-50.9771
-60.9357
-48.3992
-54.2567
-47.2282
-48.1171
-69.442
-62.25
21.1047
8.33896
21.1307
8.50789
20.5159
20.3779
-3.09875
-2.92725
-63.551
-54.93
-63.5945
-54.9848
-67.5315
-67.5466
-50.806
-50.8296
-34.4918
-35.2799
-35.7453
-35.6036
-35.6861
-35.9334
-35.2716
-35.5033
-37.6103
-36.9778
-38.9576
-40.0846
-38.5275
-38.4194
-37.833
-39.5478
-38.9608
-40.8109
-40.6964
-41.059
-39.9769
-38.9862
-40.7804
-41.2974
-50.6304
-60.8139
-48.1196
-54.1567
-47.9285
-46.9745
-62.1726
-69.3936
-64.9073
-63.8242
-56.75
-46.6909
-45.9671
-56.0316
-43.3123
-42.7568
-64.7233
-63.8138
-56.6401
-46.6375
-56.0386
-45.9607
-42.708
-43.276
-62.552
-62.5589
-57.3669
-50.6268
-57.3782
-50.6314
-48.3801
-48.3815
-25.2863
-25.36
-20.4367
-9.92149
-10.08
-20.5067
-2.60548
-2.63914
187.657
199.563
187.475
187.57
201.281
201.272
199.57