# vtk DataFile Version 2.0
tet_velo
ASCII
DATASET UNSTRUCTURED_GRID
POINTS 29498 float
-0.785 0.135 -2.12345
-0.726151 0.185 2.235
-0.815 0.785 -2.01497
-0.691025 1.075 2.245
0.785 0.135 -2.12333
0.725 0.185 2.23602
0.815 0.785 -2.01482
0.690818 1.075 2.245
-0.816619 0.100432 -0.670634
-0.815988 0.0981128 0.782183
-0.840537 0.948529 -0.59498
-0.790065 1.03605 0.82501
0.816443 0.100223 -0.670214
0.815779 0.0975541 0.782903
0.841355 0.949416 -0.59488
0.79082 1.03694 0.82506
-1.59639 -0.330902 -3.30821
-1.60129 -0.285377 -2.15908
-1.61578 -0.311778 -0.705386
-1.59622 -0.331762 0.754913
-1.53302 -0.277557 2.20916
-1.51743 -0.223884 3.36102
-1.52552 -0.174389 4.50785
-1.59932 0.0536876 -3.26583
-1.60591 0.120918 -2.12028
-1.62425 0.11781 -0.67302
-1.59008 0.113522 0.777185
-1.49847 0.172857 2.22508
-1.49442 0.225839 3.37646
-1.51354 0.273626 4.52436
-1.61268 0.778858 -3.1718
-1.62853 0.842757 -2.02487
-1.6403 0.959467 -0.599995
-1.57474 1.02806 0.822538
-1.47419 1.07361 2.24802
-1.48181 1.12277 3.40061
-1.50899 1.16906 4.55371
-1.61802 1.98282 -3.05561
-1.62516 2.06509 -1.91363
-1.62579 2.20713 -0.499429
-1.60239 2.33253 0.907654
-1.56703 2.41227 2.32215
-1.55145 2.45916 3.46475
-1.55058 2.50199 4.61425
-0.789211 -0.32311 -3.31023
-0.789112 -0.273827 -2.16205
-0.80777 -0.319198 -0.704808
-0.812608 -0.343778 0.759298
-0.771449 -0.274546 2.2167
-0.759645 -0.221277 3.36619
-0.765294 -0.17342 4.51092
-0.789578 0.0543461 -3.26639
-0.742307 0.230163 3.38071
-0.757148 0.275397 4.5267
-0.799963 0.755347 -3.16763
-0.732299 1.12532 3.40008
-0.754849 1.17108 4.55372
-0.806958 1.96536 -3.05148
-0.813327 2.04788 -1.90909
-0.821368 2.20162 -0.496655
-0.816709 2.33666 0.907436
-0.799179 2.41714 2.31997
-0.788101 2.4627 3.46258
-0.786269 2.50458 4.61272
0.810563 -0.323022 -3.31005
0.803986 -0.273813 -2.16185
0.815527 -0.31934 -0.704409
0.796096 -0.344132 0.759936
0.735817 -0.27466 2.21751
0.737921 -0.221324 3.36684
0.745465 -0.173433 4.51143
0.809288 0.0544313 -3.26623
0.730569 0.230139 3.38133
0.741751 0.275397 4.52718
0.817774 0.755474 -3.16748
0.718915 1.12534 3.40038
0.736154 1.17113 4.55408
0.816515 1.96566 -3.0513
0.814377 2.04826 -1.90893
0.798172 2.20211 -0.49649
0.763171 2.33711 0.907604
0.733888 2.41743 2.32016
0.731234 2.46289 3.46281
0.736374 2.50472 4.613
1.6145 -0.330661 -3.30781
1.61055 -0.2852 -2.15864
1.62154 -0.311787 -0.704685
1.5933 -0.332093 0.755958
1.52091 -0.277779 2.21043
1.50505 -0.223973 3.36216
1.51031 -0.1744 4.50882
1.61363 0.0539555 -3.26547
1.60596 0.121198 -2.11993
1.62588 0.117998 -0.672398
1.5978 0.113277 0.778152
1.50681 0.172657 2.2263
1.49209 0.22578 3.37753
1.50271 0.273637 4.52528
1.62449 0.779232 -3.17147
1.62716 0.84327 -2.02458
1.64007 0.960505 -0.59965
1.58055 1.02885 0.822959
1.48143 1.0737 2.24851
1.47707 1.12284 3.40126
1.49453 1.16917 4.55443
1.62531 1.98343 -3.05524
1.62357 2.06582 -1.91328
1.60489 2.20802 -0.499073
1.5591 2.33334 0.908027
1.51411 2.41281 2.32257
1.50213 2.45954 3.46524
1.50467 2.50228 4.61482
-0.842848 0.46 -2.11206
0 0.131181 -2.12721
-0.781537 0.136988 -1.39704
-0.774967 0.63 2.30638
-0.000575483 0.247153 2.17336
-0.747323 0.165303 1.50859
0 0.893841 -2.12374
-0.857786 0.896782 -1.30498
-0.000103503 1.13902 2.30902
-0.761232 1.07621 1.535
0.842917 0.46 -2.11199
0.78177 0.136563 -1.39677
0.774415 0.63 2.30702
0.74586 0.165807 1.50946
0.857824 0.896854 -1.30485
0.761041 1.07619 1.53503
-0.791038 0.124537 0.0557749
-0.882889 0.52448 -0.632807
-8.77064e-05 0.111571 -0.670424
-0.882872 0.567081 0.803597
-0.000104311 0.11785 0.782543
-0.816783 0.99377 0.115015
0.000408997 1.42743 -0.59493
0.000377183 1.54158 0.825035
0.790663 0.124337 0.056345
0.884146 0.52482 -0.632547
0.884295 0.567248 0.803982
0.817431 0.994522 0.11509
-0.88229 0.49224 -1.35101
-0.882768 0.545781 0.0853949
-0.887491 0.59854 1.5218
-4.38532e-05 0.139619 -1.39691
-9.60088e-05 0.114714 0.05606
-0.000339897 0.16311 1.50903
0 0.46 -2.40777
-0.000339493 0.63 2.40877
0.000204498 1.11613 -1.30491
0.00039309 1.54539 0.115052
0.00013684 1.38206 1.53502
0.885458 0.49241 -1.35081
0.884007 0.546034 0.0857174
0.887489 0.598624 1.52225
-1.19546 0.127959 -2.12187
-0.787056 -0.0694134 -2.14275
-0.787289 0.094673 -2.69492
-1.11231 0.178928 2.23004
-0.7488 -0.0447731 2.22585
-0.734229 0.207581 2.80786
-1.22177 0.813879 -2.01992
-0.807482 0.770174 -2.5913
-0.814163 1.41644 -1.96203
-1.08261 1.0743 2.24651
-0.711662 1.10016 2.82254
-0.745102 1.74607 2.28249
0.794493 -0.0694064 -2.14259
0.797144 0.0947157 -2.69478
1.19548 0.128099 -2.12163
0.730409 -0.0448298 2.22677
0.727784 0.207569 2.80868
1.11591 0.178828 2.23116
0.816387 0.770237 -2.59115
0.814688 1.41663 -1.96187
1.22108 0.814135 -2.0197
0.704866 1.10017 2.82269
0.712353 1.74621 2.28258
1.08612 1.07435 2.24676
-1.22043 0.109121 -0.671827
-0.812195 -0.109383 -0.687721
-1.20303 0.105817 0.779684
-0.814298 -0.122833 0.77074
-1.24042 0.953998 -0.597488
-0.830953 1.57508 -0.545818
-1.1824 1.03206 0.823774
-0.803387 1.68636 0.866223
0.815985 -0.109558 -0.687311
1.22116 0.109111 -0.671306
0.805938 -0.123289 0.77142
1.20679 0.105415 0.780528
0.819764 1.57576 -0.545685
1.24071 0.954961 -0.597265
0.776995 1.68703 0.866332
1.18568 1.0329 0.82401
-1.59884 -0.308139 -2.73364
-1.59786 -0.138607 -3.28702
-1.1928 -0.327006 -3.30922
-1.60853 -0.298578 -1.43223
-1.6036 -0.0822295 -2.13968
-1.1952 -0.279602 -2.16057
-1.606 -0.32177 0.0247637
-1.62002 -0.0969844 -0.689203
-1.21178 -0.315488 -0.705097
-1.56462 -0.30466 1.48204
-1.59315 -0.10912 0.766049
-1.20441 -0.33777 0.757105
-1.52523 -0.250721 2.78509
-1.51574 -0.0523501 2.21712
-1.15224 -0.276052 2.21293
-1.52147 -0.199137 3.93444
-1.50593 0.000977327 3.36874
-1.13854 -0.22258 3.36361
-1.51953 0.0496182 4.5161
-1.1454 -0.173905 4.50938
-1.60262 0.0873027 -2.69305
-1.606 0.416273 -3.21881
-1.19445 0.0540169 -3.26611
-1.61508 0.119364 -1.39665
-1.61722 0.481838 -2.07258
-1.60716 0.115666 0.0520827
-1.63228 0.538638 -0.636508
-1.54427 0.143189 1.50113
-1.58241 0.570792 0.799861
-1.49645 0.199348 2.80077
-1.48633 0.623231 2.23655
-1.50398 0.249732 3.95041
-1.48812 0.674302 3.38853
-1.11837 0.228001 3.37859
-1.51127 0.721345 4.53903
-1.13534 0.274512 4.52553
-1.62061 0.810808 -2.59834
-1.61535 1.38084 -3.11371
-1.20632 0.767103 -3.16972
-1.63442 0.901112 -1.31243
-1.62685 1.45392 -1.96925
-1.60752 0.993765 0.111271
-1.63305 1.5833 -0.549712
-1.52447 1.05083 1.53528
-1.58856 1.6803 0.865096
-1.478 1.09819 2.82432
-1.52061 1.74294 2.28509
-1.4954 1.14592 3.97716
-1.51663 1.79097 3.43268
-1.10705 1.12404 3.40034
-1.52979 1.83553 4.58398
-1.13192 1.17007 4.55371
-1.62159 2.02396 -2.48462
-1.21249 1.97409 -3.05354
-1.62548 2.13611 -1.20653
-1.21924 2.05649 -1.91136
-1.61409 2.26983 0.204112
-1.22358 2.20438 -0.498042
-1.58471 2.3724 1.6149
-1.20955 2.3346 0.907545
-1.55924 2.43572 2.89345
-1.1831 2.41471 2.32106
-1.55102 2.48058 4.0395
-1.16977 2.46093 3.46366
-1.16843 2.50328 4.61349
-0.789161 -0.298469 -2.73614
-0.789394 -0.134382 -3.28831
0.0106761 -0.323066 -3.31014
-0.798441 -0.296512 -1.43343
0.00743711 -0.27382 -2.16195
-0.810189 -0.331488 0.0272448
0.0038784 -0.319269 -0.704609
-0.792029 -0.309162 1.488
-0.00825598 -0.343955 0.759617
-0.765547 -0.247911 2.79145
-0.0178159 -0.274603 2.2171
-0.76247 -0.197348 3.93856
-0.750976 0.00444317 3.37345
-0.0108619 -0.2213 3.36652
-0.761221 0.0509888 4.51881
-0.00991483 -0.173426 4.51117
-0.79477 0.404847 -3.21701
0.00985504 0.0543887 -3.26631
-0.749728 0.25278 3.95371
-0.737303 0.677739 3.3904
-0.00586929 0.230151 3.38102
-0.755998 0.72324 4.54021
-0.00769839 0.275397 4.52694
-0.80346 1.36035 -3.10956
0.00890531 0.75541 -3.16756
-0.743574 1.1482 3.9769
-0.7602 1.79401 3.43133
-0.00669198 1.12533 3.40023
-0.770559 1.83783 4.58322
-0.00934714 1.17111 4.5539
-0.810142 2.00662 -2.48029
0.00477852 1.96551 -3.05139
-0.817348 2.12475 -1.20287
0.000525011 2.04807 -1.90901
-0.819039 2.26914 0.205391
-0.0115984 2.20187 -0.496572
-0.807944 2.3769 1.6137
-0.0267691 2.33689 0.90752
-0.79364 2.43992 2.89128
-0.0326455 2.41728 2.32007
-0.787185 2.48364 4.03765
-0.0284335 2.46279 3.46269
-0.0249476 2.50465 4.61286
0.807275 -0.298417 -2.73595
0.809925 -0.134295 -3.28814
1.21253 -0.326841 -3.30893
0.809757 -0.296576 -1.43313
1.20727 -0.279506 -2.16025
0.805812 -0.331736 0.0277632
1.21854 -0.315563 -0.704547
0.765957 -0.309396 1.48872
1.1947 -0.338112 0.757947
0.736869 -0.247992 2.79217
1.12836 -0.27622 2.21397
0.741693 -0.197378 3.93913
0.734245 0.00440732 3.37409
1.12148 -0.222649 3.3645
0.743608 0.0509819 4.51931
1.12789 -0.173917 4.51012
0.813531 0.404952 -3.21685
1.21146 0.0541934 -3.26585
0.73616 0.252768 3.95426
0.724742 0.677741 3.39085
1.11133 0.227959 3.37943
0.738953 0.723262 4.54063
1.12223 0.274517 4.52623
0.817144 1.36057 -3.10939
1.22113 0.767353 -3.16948
0.727535 1.14824 3.97723
0.725074 1.79411 3.43159
1.09799 1.12409 3.40082
0.736264 1.83793 4.58354
1.11534 1.17015 4.55426
0.815446 2.00696 -2.48012
1.22091 1.97454 -3.05327
0.806274 2.12519 -1.20271
1.21897 2.05704 -1.9111
0.780671 2.26961 0.205557
1.20153 2.20507 -0.497781
0.74853 2.37727 1.61388
1.16114 2.33523 0.907815
0.732561 2.44016 2.89148
1.124 2.41512 2.32136
0.733804 2.48381 4.0379
1.11668 2.46121 3.46402
1.12052 2.5035 4.61391
1.61252 -0.30793 -2.73323
1.61406 -0.138353 -3.28664
1.61605 -0.298493 -1.43166
1.60826 -0.0820009 -2.13928
1.60742 -0.32194 0.0256364
1.62371 -0.0968944 -0.688541
1.55711 -0.304936 1.48319
1.59555 -0.109408 0.767055
1.51298 -0.250876 2.78629
1.51386 -0.0525614 2.21836
1.50768 -0.199187 3.93549
1.49857 0.000903266 3.36984
1.50651 0.0496185 4.51705
1.6098 0.0875768 -2.6927
1.61906 0.416594 -3.21847
1.61592 0.119598 -1.39616
1.61656 0.482234 -2.07225
1.61184 0.115637 0.0528771
1.63297 0.539252 -0.636024
1.5523 0.142967 1.50222
1.58917 0.571066 0.800556
1.49945 0.199218 2.80191
1.49412 0.62318 2.23741
1.4974 0.249709 3.9514
1.48458 0.67431 3.3894
1.49862 0.721402 4.53986
1.62583 0.811251 -2.59803
1.6249 1.38133 -3.11336
1.63361 0.901888 -1.31211
1.62536 1.45454 -1.96893
1.61031 0.99468 0.111655
[...]
POINT_DATA 29498
VECTORS point_vectors float
-3.8536 -5.11467 10.5904
-0.05119 0.409404 1.58314
-3.0139 1.0228 4.3875
0.0783273 -0.02434 0.384098
3.72064 -5.09768 10.6201
0.0538576 0.395276 1.53489
3.00844 1.02327 4.38833
-0.0807893 -0.0232497 0.384873
-0.18111 0.144995 3.9757
0.0903823 -0.118255 3.54807
-0.00218527 0.00757188 0.166998
0 0 0
0.165047 0.0726287 3.67416
-0.0840904 -0.113462 3.52119
0.00231148 0.00700692 0.155777
0 0 0
-0.619205 -0.35568 19.9326
-1.13823 -0.741178 20.7416
-0.363833 -0.344673 21.5604
0.0679117 -0.0540341 21.7028
0.461357 0.291515 21.6138
0.66684 0.492301 21.3601
0.756155 0.107226 20.9001
-0.815797 -0.293999 19.8154
-1.65714 -0.71145 20.7765
-0.495128 -0.424276 21.6266
0.0492372 -0.133972 21.7643
0.716274 0.21568 21.709
1.00695 0.32069 21.4601
1.13234 0.0351077 21.5349
-0.982374 0.0875456 19.7074
-2.01165 0.119379 20.6913
-1.0588 -0.322154 21.6964
-0.1565 -0.265832 21.9657
0.732971 -0.332477 21.7578
1.10589 -0.469103 21.5109
0.938618 -0.303204 21.4226
-0.576795 0.410565 20.0605
-0.892453 0.619942 20.6265
-0.740981 0.409865 21.4128
-0.147023 -0.018341 21.7457
0.213508 -0.271587 21.5125
0.316479 -0.29295 21.2316
0.268288 -0.392754 20.8082
-0.606663 -0.76178 19.3762
-1.45448 -2.84772 21.1771
-0.275555 -0.409688 21.9437
0.0377504 0.104416 21.7502
0.155496 0.745138 21.3195
0.330231 1.05923 20.9296
0.57206 1.03097 20.3216
-0.907049 -0.685186 18.8925
0.523071 1.93815 10.3247
1.41732 1.0093 11.6307
-1.29157 0.341131 18.3261
1.9776 -0.0890899 10.4128
1.46596 -0.584171 16.5407
-0.516776 0.834713 19.6874
-0.980102 1.5432 20.3753
-0.98863 1.24168 21.6606
-0.189269 0.0932552 22.075
0.156389 -0.507296 21.7039
0.185291 -0.557719 21.139
0.0197225 -0.43832 20.8591
0.611607 -0.745814 19.4061
1.47161 -2.79966 21.1742
0.275011 -0.407656 21.9451
-0.0321455 0.106934 21.7446
-0.119302 0.739986 21.2626
-0.247413 1.11057 20.7116
-0.578883 1.01201 19.968
0.911221 -0.660526 18.9265
-0.484511 1.92607 10.1246
-1.40922 1.0079 11.3552
1.2865 0.333298 18.3779
-1.95875 -0.102164 9.99396
-1.44976 -0.584685 16.2242
0.520599 0.830927 19.6904
0.980026 1.54257 20.3748
0.990167 1.28924 21.6638
0.187226 0.100256 22.0875
-0.146689 -0.514064 21.7146
-0.167494 -0.560665 21.1939
-0.0109435 -0.429906 20.8615
0.61592 -0.343879 19.9546
1.12826 -0.741175 20.7539
0.362403 -0.342319 21.562
-0.0748289 -0.0631213 21.693
-0.46843 0.287519 21.6112
-0.682426 0.47361 21.3195
-0.760557 0.140244 20.9077
0.807723 -0.285872 19.8202
1.67335 -0.695153 20.7697
0.500058 -0.422812 21.6192
-0.055377 -0.130903 21.7688
-0.710758 0.212096 21.708
-0.999634 0.327001 21.4727
-1.15456 0.0592443 21.5582
0.972606 0.0868138 19.7183
2.01723 0.118842 20.6909
1.05895 -0.321496 21.706
0.155752 -0.263195 21.9657
-0.731007 -0.32599 21.7549
-1.10585 -0.473695 21.4962
-0.985042 -0.296035 21.3365
0.57359 0.408303 20.0648
0.889278 0.619197 20.6266
0.749536 0.416683 21.4149
0.146514 -0.0352677 21.7543
-0.216873 -0.286021 21.5245
-0.315496 -0.338828 21.2333
-0.278587 -0.426486 20.8824
-0.837462 -0.0743838 1.13282
0.000108302 -0.0350502 0.342275
-0.0151331 0.00881745 0.439188
0.0127497 0.0637563 0.0872354
-0.000541772 -0.000989263 0.021583
-0.0148319 0.0101105 0.292448
0.000961584 0.611731 0.793309
-0.337926 -0.221698 0.999428
-0.000612226 0.076223 -0.0471299
0 0 0
0.823457 -0.0727769 1.11313
0.0168815 0.00707358 0.44367
-0.0131605 0.0667207 0.0897328
0.0129647 0.00879674 0.249389
0.340089 -0.223917 1.00075
0 0 0
-0.0165444 0.0790483 1.1896
0 0 0
1.60105e-06 -0.00020572 0.00946506
0 0 0
9.8413e-05 0.0120046 0.147228
0 0 0
-7.79987e-05 0.0884034 0.234272
-0.000105003 -0.000529717 0.0110466
0.00354674 0.0762638 1.14447
0 0 0
0 0 0
0 0 0
0 0 0
0 0 0
0.00197902 0.0282327 0.196052
-1.56976e-07 4.74004e-07 3.17724e-05
9.34316e-09 3.07433e-08 6.87568e-06
-2.64e-08 7.43566e-07 6.15205e-05
-0.000582805 -0.584924 0.716074
7.27533e-05 0.0777757 -0.00325892
1.39121e-18 1.23125e-17 3.44219e-17
-1.01011e-05 0.000519449 0.00824101
-7.05465e-06 0.00010224 -0.000110623
0.00064416 -0.000530983 0.018017
0 0 0
-0.00204074 0.0290012 0.196244
-3.16011 -1.82438 20.921
-2.42236 -4.64322 21.6677
-2.55979 -2.26255 17.8172
0.987698 0.900797 19.1182
-0.0507297 1.04486 16.0154
-0.166618 0.937796 6.89675
-3.91111 0.532746 20.8449
-3.75178 1.57167 16.6768
-2.43102 2.66092 20.145
1.28194 0.0703333 18.3273
0.931832 0.585864 5.49319
0.614362 -0.89174 20.9172
2.44931 -4.59668 21.6185
2.55762 -2.22205 17.863
3.16929 -1.82901 20.9128
0.101037 1.01905 15.7399
0.204796 0.911661 6.6845
-0.980082 0.894583 19.1137
3.74333 1.53671 16.7526
2.42604 2.65696 20.1442
3.91495 0.538494 20.8437
-0.920028 0.598019 5.26427
-0.617784 -0.935362 20.7532
-1.27394 0.0523191 18.3563
-0.258513 -0.618105 21.7855
-0.317655 -0.131368 19.525
0.17026 -0.0744259 20.9736
0.100646 0.19429 18.8803
-1.62182 -0.920616 22.0084
-3.07764 1.69799 22.165
-0.148966 -0.30196 20.4439
-0.255747 0.075001 21.8248
0.318796 -0.126395 19.5393
0.258787 -0.626549 21.778
-0.0944139 0.19737 18.7927
-0.170771 -0.0809248 21.0061
3.13221 1.80244 22.1625
1.63108 -0.914923 22.0079
0.223683 0.0830342 21.6677
0.153246 -0.307237 20.5058
-0.965496 -0.580427 20.181
-0.732467 -0.339221 19.8583
-0.687406 -0.544216 19.6865
-0.758167 -0.575605 21.3558
-1.42385 -0.765708 20.7507
-1.51529 -1.51299 20.8285
-0.118731 -0.181167 21.6357
-0.426284 -0.414219 21.5881
-0.309245 -0.416665 21.701
0.270614 0.1253 21.6962
0.0566402 -0.09528 21.7317
0.0962847 -0.00752371 21.7786
0.587764 0.415123 21.5273
0.553696 0.283239 21.6319
0.445432 0.547881 21.6548
0.699598 0.384312 21.0258
0.858922 0.337994 21.5148
0.685045 0.76842 21.1407
0.944245 0.0711671 21.2175
0.759208 0.867801 21.0875
-1.34249 -0.532724 20.029
-0.945539 -0.105973 19.7019
-0.936771 -0.46819 19.3964
-1.05264 -0.628485 21.475
-2.041 -0.340482 20.7651
-0.174461 -0.28335 21.7053
-0.734175 -0.470731 21.6751
0.333136 0.0231077 21.8505
-0.00332755 -0.247121 21.927
0.897733 0.26232 21.6269
0.866208 -0.0596003 21.7648
1.04403 0.277931 20.9989
1.20557 -0.0332798 21.6954
1.13011 0.95915 18.8016
1.23374 -0.176134 21.6637
1.23322 0.659656 18.6172
-1.67598 0.164627 19.9451
-0.80487 0.374095 19.8534
-1.25061 0.210528 19.1437
-1.57456 -0.144478 21.3971
-1.42273 0.611051 20.5878
-0.606278 -0.328061 21.8846
-1.13008 0.198162 21.5826
0.299606 -0.245832 21.9856
-0.234803 -0.0942198 21.9046
0.907927 -0.389607 21.543
0.394764 -0.371565 21.645
0.791229 -0.51211 21.3632
0.59246 -0.525751 21.1825
1.64242 -0.359156 19.4613
0.529102 -0.412066 21.1865
1.44389 -0.327369 19.5724
-0.758557 0.548035 20.284
-0.597443 0.611333 19.8883
-0.903971 0.567091 21.0481
-1.02953 1.00168 20.5121
-0.44964 0.179411 21.6743
-0.923495 0.719894 21.5366
0.0781466 -0.170448 21.6422
-0.209051 0.0225729 21.9072
0.274197 -0.346814 21.3228
0.22747 -0.376864 21.5281
0.313059 -0.355522 20.9399
0.258317 -0.483407 21.1271
0.163927 -0.438136 20.869
-1.2236 -1.79618 19.4333
-0.750441 -0.751799 19.1455
0.016473 -1.05616 19.0496
-0.567356 -1.04031 22.0545
0.00877141 -3.56091 21.8218
-0.109772 -0.106041 21.8394
-0.00131639 -0.515937 22.0582
0.114128 0.391947 21.5585
0.00048837 0.0748024 21.4119
0.232385 0.868906 21.1423
-0.00483359 0.475589 20.5588
0.600176 1.29539 20.2293
0.402935 1.52936 15.7379
0.0133807 0.752934 19.7849
0.997715 1.02886 15.9653
-0.000713489 1.05239 15.4897
-1.20324 -0.266838 18.4314
0.0130161 -1.01415 18.1282
1.19833 1.47337 10.9696
1.62402 1.33769 6.01399
-0.0500628 -0.0570083 -1.05734
1.82118 0.373049 10.3144
0.0360817 0.999755 7.12715
-0.901501 0.937061 19.0306
0.0189779 0.600382 17.175
2.02247 -0.742157 12.6626
0.684321 -1.18355 20.7972
0.0114268 -1.40878 1.29676
0.676624 -0.995486 19.7045
0.0163097 -2.12816 6.33841
-0.780241 1.27235 19.9239
0.00582143 1.08973 19.4565
-1.10548 1.52421 20.9765
-0.000602287 2.15874 20.1829
-0.587027 0.643908 22.0562
-0.021916 2.16125 21.7788
0.0428718 -0.304154 21.9097
-0.0118974 0.173127 22.2777
0.235501 -0.605284 21.5492
0.00965389 -0.597036 21.6735
0.397433 -0.724964 20.6986
0.00715418 -0.984127 21.1969
-0.0120478 -0.451854 20.852
1.22529 -1.75786 19.4625
0.766726 -0.732475 19.186
0.680992 -0.53493 19.7045
0.573156 -1.0398 22.0583
1.49379 -1.49254 20.8305
0.110463 -0.107182 21.8456
0.313534 -0.428038 21.7001
-0.101387 0.39572 21.5552
-0.0947425 -0.0100556 21.7869
-0.19397 0.833913 20.9296
-0.439819 0.5709 21.6603
-0.50949 1.30274 19.9791
-0.34195 1.54875 15.5298
-0.665232 0.782098 21.1514
-0.994051 1.00996 15.6616
-0.736681 0.880521 21.1093
1.19656 -0.263105 18.4785
0.935495 -0.460662 19.4086
-1.14877 1.50338 10.8059
-1.59072 1.34687 5.58492
-1.11506 0.980464 18.6356
-1.81907 0.386304 10.0013
-1.24131 0.670817 18.3813
0.906213 0.927172 19.0427
1.24771 0.201656 19.1792
-2.04642 -0.7654 12.2198
-0.670585 -1.20124 20.7911
-1.66258 -0.338037 19.3202
-0.66998 -1.01144 19.5413
-1.4419 -0.34348 19.4966
0.782383 1.26857 19.9248
0.595779 0.607203 19.8921
1.1026 1.54784 20.9746
1.0288 1.00143 20.5155
0.574864 0.683111 22.0753
0.92944 0.750128 21.544
-0.037499 -0.308213 21.9185
0.203369 0.0222328 21.9322
-0.228512 -0.600607 21.5241
-0.208471 -0.390737 21.5278
-0.391252 -0.705285 20.6542
-0.249187 -0.505551 21.1244
-0.150052 -0.435365 20.8858
0.949793 -0.573141 20.1846
0.727623 -0.328225 19.8739
0.746883 -0.581005 21.3632
1.44804 -0.759507 20.7743
0.11109 -0.184705 21.6505
0.423703 -0.418106 21.5813
-0.279793 0.119592 21.6976
-0.0650074 -0.0988297 21.738
-0.608345 0.401013 21.53
-0.554363 0.282544 21.6355
-0.70626 0.385718 21.037
-0.864765 0.355537 21.5032
-0.957556 0.0997443 21.233
1.34489 -0.52173 20.0405
0.938231 -0.10264 19.7115
1.04907 -0.61621 21.4807
2.05261 -0.341966 20.7819
0.178581 -0.284557 21.6968
0.73631 -0.470138 21.6797
-0.335414 0.0245423 21.8478
0.00873058 -0.250365 21.9215
-0.89218 0.262293 21.6273
-0.856224 -0.0593547 21.7817
-1.0643 0.281182 20.9444
-1.21677 -0.0336262 21.7123
-1.28897 -0.160824 21.6181
1.65543 0.162386 19.9641
0.802718 0.371604 19.8697
1.57313 -0.139519 21.4064
1.42559 0.608235 20.5828
0.606475 -0.326241 21.8866
1.14428 0.19773 21.5896
-0.30357 -0.246888 21.9738
0.239776 -0.0970566 21.9136
-0.912678 -0.389603 21.5145
-0.419851 -0.411083 21.6597
-0.791517 -0.523721 21.3662
-0.586711 -0.543638 21.1677
-0.518049 -0.429978 21.2054
0.757932 0.549024 20.2789
0.904262 0.57129 21.0474
0.462363 0.176854 21.6874
-0.0859178 -0.185663 21.6584
-0.283475 -0.364143 21.2952
-0.297345 -0.383919 21.0235
-1.19558 -0.587057 20.0968
-1.73222 -2.16146 18.8155
-1.2095 -1.06893 19.8821
-2.04975 -1.08152 19.3463
-0.83058 -0.532882 19.5188
-2.18047 -1.7766 20.9051
-0.944484 -0.63044 21.4397
-0.498002 -0.751795 20.8124
-0.75895 -0.872273 21.6647
-1.09748 -1.12744 22.1774
-0.272199 -0.46321 21.8158
-0.146927 -0.244263 21.6704
-0.126566 0.090593 18.5311
-0.0866592 -0.17465 21.753
0.0460408 -0.313078 21.2985
0.158661 -0.0316624 21.7348
0.29219 0.0916235 21.7737
0.144932 0.514947 16.7955
0.27252 0.235671 21.7857
0.44106 0.334456 20.005
0.687424 0.721981 21.1592
0.681975 0.364257 21.5153
0.00208969 1.26402 16.2199
0.585711 0.692424 21.518
1.09139 0.939507 19.0764
1.04077 1.01027 20.9423
0.85216 0.396956 20.8542
0.272277 1.57218 17.0977
0.762871 0.812854 21.0508
1.5464 0.905672 20.1862
0.970628 0.929622 21.2804
-1.66463 -0.197018 19.919
-3.80023 -0.654838 16.3746
-2.63521 0.498611 19.0825
-1.15296 -0.212993 19.1683
-4.19623 -0.774317 20.9642
-1.35965 -0.465141 21.525
-2.37029 -0.539718 21.9179
-0.653644 -0.906768 21.5028
-0.325748 -0.388439 21.8142
-0.817788 -0.758877 21.2596
0.130201 -0.0203654 19.6844
0.379315 -0.116606 21.9977
0.581494 0.121604 19.464
1.24988 0.647422 16.7928
1.05759 -0.0675831 21.6723
-0.195191 1.49408 1.96665
1.36525 -0.199162 19.0994
1.66172 0.492487 17.4735
1.12359 -0.154048 21.1517
2.12956 0.956309 8.65799
1.64013 -0.446997 20.2292
1.63882 0.0238796 17.2632
-1.18921 0.549395 20.1089
-1.72801 1.9632 19.0307
-0.843632 0.875663 20.0975
-0.943701 0.608295 19.5199
-2.09059 1.27942 20.461
-1.38276 0.428088 21.1658
-2.80735 2.10541 20.9301
-1.09247 0.950448 21.046
-1.77627 0.5116 21.8127
-0.701505 0.0362276 21.8342
-1.62218 0.654648 22.5276
-0.564644 0.368779 21.8462
-0.324329 -0.0607505 22.2052
0.153134 -0.238801 21.8326
0.463886 -0.585251 21.3515
0.0678728 -0.236494 21.8249
0.501781 -0.611216 21.767
0.511509 -0.481336 21.511
0.622253 -1.06313 21.2768
0.25454 -0.468765 21.4375
0.663466 -0.812922 21.3052
0.693891 -0.583539 20.8773
0.735641 -1.02224 19.6693
0.382943 -0.591147 21.0513
0.569688 -0.652893 21.2079
1.74337 -2.12061 18.8541
0.0199817 -2.84713 18.9415
0.018544 -4.37478 15.3104
0.0148952 -1.08393 18.6375
-0.00484318 -4.54705 23.3071
0.497046 -0.767656 20.9937
-0.00147686 -1.09971 22.3832
0.000925061 -0.291645 16.7032
0.131033 0.0881784 18.5321
-0.000700166 -0.201763 21.694
0.00239831 0.17448 15.5545
-0.122269 0.514211 16.5718
0.00142975 0.299862 21.0455
-0.0107089 0.392085 11.5242
0.0194175 1.22133 15.9986
-0.0040009 0.530399 19.9527
-0.0213838 -0.740428 -1.31061
-0.0411614 0.736774 11.1382
-0.199428 1.60468 16.9123
-0.00597985 0.986235 18.3253
-0.024363 -1.1818 0.24382
0.0417455 1.08711 10.9503
3.78698 -0.642568 16.4506
0.0196688 3.73567 13.0234
0.0209532 -0.442221 17.382
0.241862 1.49821 1.79615
0.00636916 -0.237111 1.08296
0.0241182 -2.25718 -3.62759
-2.15136 0.954789 8.13127
0.0408386 -2.40999 3.82995
0.0330195 -0.583526 2.41066
1.72707 1.94619 19.047
0.00450674 1.75008 19.6763
0.00839117 1.35385 18.4821
0.00364925 4.53115 19.59
2.80678 2.13384 20.9178
-0.0105839 2.37061 20.8354
-0.0275005 4.9014 22.0446
1.64499 0.706147 22.5265
-0.0251801 1.10375 22.3316
-0.00884908 0.193305 20.8893
-0.501071 -0.607297 21.039
0.00749213 -0.351327 21.9769
0.0187517 -1.00465 18.243
-0.630222 -1.05547 21.0582
0.0215978 -0.651747 21.5023
0.0218909 -1.43609 19.0565
-0.718334 -1.04911 19.7102
0.0177142 -0.652884 20.8915
0.0367967 -1.23408 19.905
1.18866 -0.58914 20.0951
1.19552 -1.06219 19.9125
2.03779 -1.07065 19.357
0.826339 -0.522659 19.5382
2.17038 -1.75902 20.8925
0.946202 -0.618762 21.4274
0.75763 -0.877388 21.6606
1.10098 -1.13409 22.1736
0.272668 -0.469929 21.8095
0.146147 -0.244224 21.6698
0.0850113 -0.177106 21.7631
-0.0422554 -0.321839 21.3098
-0.161705 -0.0328547 21.729
-0.299252 0.0929946 21.7735
-0.273054 0.246007 21.7881
-0.444424 0.329308 20.0617
-0.683766 0.739482 21.0992
-0.686048 0.370391 21.5123
-0.57369 0.710614 21.5343
-1.08155 0.951284 19.0248
-1.05136 1.04706 20.8853
-0.881592 0.402074 20.7896
-0.765821 0.818166 21.0477
-1.53389 0.952884 20.12
-0.962652 0.962467 21.2767
1.61368 -0.196155 19.9343
2.60646 0.487306 19.1127
1.13917 -0.210464 19.1928
4.19992 -0.772114 20.9607
1.36281 -0.465483 21.524
2.37617 -0.536962 21.9139
0.659664 -0.911162 21.5222
0.334644 -0.387598 21.8141
0.822063 -0.752922 21.2757
-0.130892 -0.0323246 19.7858
-0.388614 -0.115992 21.9905
-0.576773 0.10379 19.5363
-1.2523 0.640968 16.9081
-1.05551 -0.0593294 21.6807
-1.37223 -0.183306 19.0404
-1.67066 0.514637 17.224
-1.14152 -0.155916 21.0911
-1.64571 -0.456095 20.0294
-1.65027 0.0412579 16.9991
1.18564 0.544916 20.1009
0.84077 0.86914 20.1101
0.943658 0.598667 19.5253
2.09111 1.28212 20.4537
1.39218 0.429431 21.1715
1.0948 0.970489 21.0473
1.8069 0.534608 21.8224
0.713081 0.0366214 21.8453
0.569607 0.391821 21.8694
0.32962 -0.0596574 22.2282
-0.161086 -0.248718 21.8403
-0.0695138 -0.246341 21.8333
-0.505627 -0.635572 21.7774
-0.526211 -0.506137 21.5281
-0.249673 -0.498861 21.4635
-0.67332 -0.842205 21.3673
-0.734352 -0.623382 20.8908
-0.399803 -0.632495 21.0311
-0.574743 -0.691383 21.0701
-1.59541 -1.16194 19.6416
-0.888339 -0.978044 21.8717
-0.00783451 -0.215703 21.7672
0.387859 0.268443 21.5307
0.800139 0.873726 20.8353
1.10003 0.866012 20.8882
-2.64938 -0.410701 18.9959
-1.70602 -1.00337 22.3949
-0.14106 -0.523002 20.4989
0.518943 0.450701 18.4188
1.43556 0.533938 17.713
1.95102 0.463687 19.5079
-1.58679 1.06921 19.7051
-2.09913 0.877271 21.1971
-1.05215 0.194734 22.1702
0.225723 -0.358433 22.0626
0.611292 -0.738854 21.6048
0.686023 -0.66139 21.1538
0.0146911 -3.76685 17.7946
-0.000423161 -0.468829 17.6768
-0.00162939 -0.0620777 15.5806
-0.000395768 0.292242 13.3282
-0.0212997 0.235581 11.4501
-0.0267907 1.13792 10.3534
0.0243569 -0.965367 12.0843
-0.00192989 -0.882876 -1.77773
0.0577546 -3.01177 -2.19837
0.0123159 3.24704 18.1296
-0.0139102 4.54237 20.0981
-0.0195953 2.04137 21.86
0.0037999 -0.746896 19.409
0.0307364 -1.20278 18.9823
0.0262884 -1.61567 18.7107
1.58299 -1.14569 19.659
0.894593 -0.979639 21.8623
0.00841811 -0.221069 21.7635
-0.38765 0.276302 21.4897
-0.796426 0.891824 20.7602
-1.08845 0.91741 20.9138
2.62754 -0.408731 19.0168
1.71083 -1.00283 22.3871
0.148839 -0.529144 20.5495
-0.526288 0.440782 18.507
-1.42956 0.547318 17.6163
-1.95805 0.491235 19.2139
1.58303 1.0582 19.7068
2.10874 0.894799 21.1884
1.07161 0.20754 22.1887
-0.231328 -0.373581 22.0781
-0.612242 -0.767069 21.5913
-0.692661 -0.671569 21.1188
-0.627317 -0.303589 1.29967
-0.0195586 -0.0667128 0.423645
-0.0453694 0.0101496 0.447677
0.0126471 0.0272537 0.0453977
0 0 0
-0.043282 0.0298374 0.393848
-1.79482 0.0669964 2.19083
-0.0955241 0.444478 0.792294
-0.18208 -0.0655203 0.642513
-0.00588805 0.00479816 -0.00411066
0.0336378 0.0744958 -0.061943
0 0 0
0.0197229 -0.0658765 0.423021
0.666334 -0.298545 1.36423
0.0474043 0.0107001 0.448382
0 0 0
-0.0111314 0.0225983 0.0378599
0.039282 0.0286993 0.361554
0.0931756 0.442467 0.790566
1.76806 0.0647879 2.16278
0.177554 -0.0627442 0.627933
-0.0346238 0.0754518 -0.0628752
0.00705056 0.00606079 -0.00498162
0 0 0
-0.02704 0.0137657 0.199592
-0.0308557 0.115676 3.98203
0.000368079 0.00294485 0.0268135
0 0 0
-0.0286176 0.0236616 0.190288
-0.0597061 0.0370105 3.28715
-0.00653512 0.0264179 0.0988384
0 0 0
-0.0489025 -0.0403359 0.284494
0.000223516 0.00661302 0.0702502
0 0 0
-0.00942373 0.0117802 0.0361331
0 0 0
0.0021471 0.0173976 0.0726293
0 0 0
0.0164558 -0.000489429 0.0774943
0.0274054 0.0140789 0.19868
0 0 0
0.0491238 0.133961 3.92169
-0.000238488 0.00170383 0.0167896
0.0280635 0.0231081 0.180638
0 0 0
0.061504 0.0387728 3.26667
0.00634729 0.0244838 0.0908398
0.0561934 -0.0445566 0.314646
0.00857321 0.0107297 0.0329044
-0.00022068 0.00687835 0.0717693
0 0 0
0 0 0
-0.0184621 -0.000126332 0.085127
-0.00194575 0.0160068 0.0668439
0 0 0
0 0 0
-0.583409 0.0354034 0.344962
-1.37661e-07 2.63481e-07 1.63312e-05
0 0 0
0 0 0
0 0 0
0.00756047 0.00336834 0.0400139
-0.0162183 0.035647 -0.00329469
0 0 0
0 0 0
0 0 0
0 0 0
-0.000557114 0.12687 0.0935464
9.43673e-05 0.0223848 0.113994
-0.00246375 -0.00899809 0.0794889
0 0 0
0 0 0
0 0 0
0.0098969 0.0286228 0.140858
0 0 0
0.580548 0.033901 0.342806
0 0 0
0 0 0
0 0 0
0.0160352 0.0361409 -0.0031739
-0.00919481 0.0039854 0.0484675
0 0 0
0 0 0
0 0 0
0.00245897 -0.00927877 0.0798401
0 0 0
-0.0100526 0.0286279 0.139628
-0.00279843 0.0262856 0.19532
0 0 0
0.00173321 -0.00837521 0.120383
0 0 0
0 0 0
3.65235e-09 7.14053e-08 1.8423e-05
0 0 0
0.000559588 0.00340187 0.0238592
7.26134e-08 1.27548e-07 2.75944e-05
-6.85848e-09 2.51987e-06 8.63028e-05
0.00159129 0.0132984 0.0580071
0.00484103 0.0244585 0.437396
0.000540293 0.0152603 0.0351358
-2.49201e-06 0.00936516 0.062427
1.7759e-05 0.00064641 0.0895987
1.63432e-05 -0.0150138 0.0879879
0 0 0
0.00280324 0.0238787 0.178298
-0.00104181 -0.00760703 0.102934
0 0 0
0 0 0
-0.000264746 0.00152583 0.0106893
-0.00507833 0.0249667 0.438039
-0.00137771 0.0121424 0.053174
-0.00225834 -0.00733984 0.0842193
-0.00174789 -0.00646024 0.0752615
0.0637597 -0.00849334 0.420524
-1.40619e-05 -8.50352e-05 0.00182577
-0.00112118 0.0119187 0.0967969
0.000833637 0.00682328 0.0372254
-0.00238513 0.0210668 0.167515
0.0041222 0.0318661 0.127617
0 0 0
0 0 0
0.0145571 0.00649866 0.0924387
0.022642 0.0164725 0.155309
0 0 0
0 0 0
0 0 0
0 0 0
0 0 0
0 0 0
0 0 0
0 0 0
0 0 0
0 0 0
0 0 0
0 0 0
0 0 0
0 0 0
-0.680708 1.00846 1.0427
0.681076 0.990593 1.02085
0 0 0
0 0 0
-0.000640114 0.00620486 -0.000758044
0.000595287 0.0060497 -0.000717554
-0.0151167 0.0161371 0.071004
0.0149076 0.0165166 0.0725311
-0.0172881 0.0191034 0.0532346
0.0182953 0.020454 0.0568116
-0.0818167 0.0617228 0.572926
0.0817485 0.0631116 0.578398
0.0311307 0.010846 0.30888
-0.0317443 0.0110954 0.315854