# vtk DataFile Version 2.0
tri_press
ASCII
DATASET UNSTRUCTURED_GRID
POINTS 3682 float
-0.695 0.105 -2.04174
-0.735 0.255 2.1368
-0.735 0.645 -2.06956
-0.745 0.785 2.10392
0.695 0.105 -2.04206
0.735 0.255 2.13677
0.745 0.635 -2.06993
0.745 0.785 2.10403
-0.738332 0.125002 -0.648893
-0.765578 0.161089 0.743954
-0.814748 0.768082 -0.6784
-0.800045 0.796712 0.71276
0.738221 0.125112 -0.649117
0.765491 0.161176 0.743827
0.820293 0.760293 -0.67861
0.803741 0.793741 0.71271
-1.46542 -0.246034 -3.14044
-1.46673 -0.198115 -2.02678
-1.50069 -0.171906 -0.633898
-1.52218 -0.136179 0.759293
-1.5075 -0.0625752 2.1522
-1.50272 -0.0180681 3.26598
-1.50609 0.015296 4.37953
-1.463 0.0460575 -3.15494
-1.46773 0.105534 -2.04146
-1.51333 0.138335 -0.648919
-1.53008 0.164353 0.743748
-1.49971 0.227844 2.13632
-1.49724 0.270959 3.2501
-1.50385 0.305508 4.36371
-1.4798 0.617485 -3.1835
-1.50481 0.678956 -2.06995
-1.56878 0.767071 -0.678555
-1.56219 0.788136 0.712694
-1.51447 0.793414 2.10412
-1.50644 0.836311 3.21799
-1.51046 0.880636 4.33188
-1.50036 1.52666 -3.22763
-1.51851 1.59073 -2.11434
-1.55065 1.67119 -0.723436
-1.56486 1.7106 0.667092
-1.55528 1.72269 2.05801
-1.54358 1.74268 3.17133
-1.53641 1.77569 4.28502
-0.718252 -0.247795 -3.14067
-0.711124 -0.198576 -2.02705
-0.737214 -0.17926 -0.633964
-0.76079 -0.138024 0.759452
-0.752087 -0.0471338 2.15254
-0.747004 -0.00776578 3.26621
-0.74893 0.0201888 4.37965
-0.7127 0.0404777 -3.15511
-0.740308 0.280707 3.25029
-0.746264 0.309472 4.3638
-0.722498 0.600585 -3.18343
-0.746393 0.834828 3.21795
-0.750897 0.879979 4.33186
-0.73306 1.51675 -3.22754
-0.743842 1.58245 -2.11422
-0.771568 1.67028 -0.723379
-0.790405 1.71145 0.667027
-0.788195 1.71987 2.05787
-0.779129 1.73884 3.17119
-0.772901 1.77252 4.28491
0.737328 -0.249976 -3.14095
0.723855 -0.199274 -2.02733
0.747993 -0.179609 -0.634175
0.759512 -0.138227 0.759324
0.740956 -0.0473012 2.15248
0.750748 -0.00812882 3.26617
0.758226 0.0195586 4.3796
0.736398 0.0375852 -3.15541
0.7521 0.280439 3.25027
0.759602 0.308882 4.36376
0.758275 0.59451 -3.18374
0.75482 0.834428 3.21798
0.759695 0.879262 4.33184
0.792587 1.51144 -3.22778
0.797984 1.57689 -2.11445
0.79342 1.66559 -0.723553
0.771916 1.7084 0.666927
0.753514 1.71802 2.05782
0.751331 1.73741 3.17116
0.753486 1.77118 4.28486
1.47743 -0.251067 -3.14097
1.46848 -0.201546 -2.0273
1.50186 -0.174241 -0.634298
1.52123 -0.137454 0.759049
1.50398 -0.0633366 2.15208
1.50677 -0.0190749 3.26589
1.51415 0.0138585 4.37943
1.47598 0.0397164 -3.1555
1.46185 0.100768 -2.04202
1.50843 0.134981 -0.649329
1.5308 0.162899 0.74353
1.50299 0.227324 2.13625
1.50684 0.270095 3.25004
1.51502 0.304128 4.36363
1.50431 0.606997 -3.18408
1.50908 0.666792 -2.07053
1.56887 0.75754 -0.678951
1.56385 0.783855 0.712538
1.51604 0.792194 2.10415
1.51235 0.835099 3.21799
1.51716 0.878994 4.33183
1.55241 1.51667 -3.2281
1.56219 1.5805 -2.11478
1.56739 1.66251 -0.723778
1.55018 1.70471 0.666882
1.52705 1.71892 2.0579
1.51911 1.73968 3.17124
1.51799 1.77289 4.28492
-0.756979 0.375 -2.09763
0 0.108834 -2.03807
-0.730289 0.101378 -1.34532
-0.750346 0.52 2.13071
0 0.24988 2.1419
-0.772299 0.186035 1.44038
0.005 0.672614 -2.10236
-0.795213 0.726879 -1.37398
0 0.808866 2.12784
-0.782944 0.801277 1.40834
0.757425 0.37 -2.09342
0.72924 0.102427 -1.34559
0.746901 0.52 2.1273
0.772937 0.185396 1.4403
0.801923 0.716923 -1.37427
0.783651 0.798651 1.40837
-0.749218 0.145782 0.0475301
-0.867453 0.446542 -0.663647
-5.51544e-05 0.0894815 -0.649005
-0.870283 0.4789 0.728357
-4.3381e-05 0.109331 0.74389
-0.809293 0.784293 0.01718
0.0027726 0.98557 -0.678505
0.00184793 1.25303 0.712735
0.749086 0.145914 0.0473551
0.867263 0.442703 -0.663863
0.870358 0.477458 0.728268
0.814097 0.779097 0.0170499
-0.866034 0.410771 -1.35965
0.864623 0.406351 -1.35993
-2.75772e-05 0.092089 -1.34545
0.0038863 0.802005 -1.37413
0.0025 0.3725 -2.17414
-0.870248 0.462721 0.032355
0.869945 0.460081 0.0322025
-4.92677e-05 0.0977693 0.0474426
0.00231026 1.24641 0.0171149
-0.857888 0.49945 1.42436
0.858119 0.498729 1.42433
-2.16905e-05 0.158353 1.44034
0.000923967 0.988447 1.40836
0 0.52 2.12036
-0.641361 0.24 -1.98506
-0.3475 0.109803 -2.03702
-0.714295 0.101538 -1.69353
-0.743283 0.3875 2.13436
-0.3675 0.250581 2.14121
-0.753758 0.220409 1.78859
-0.731138 0.51 -2.06874
-0.365 0.662635 -2.08979
-0.773295 0.694128 -1.72177
-0.758862 0.6525 2.1285
-0.3725 0.801198 2.12015
-0.764811 0.793977 1.75613
0.3475 0.109417 -2.03756
0.643021 0.2375 -1.98455
0.713992 0.101842 -1.69382
0.3675 0.250687 2.14109
0.743638 0.3875 2.13472
0.753648 0.220519 1.78853
0.375 0.660839 -2.09318
0.737758 0.5025 -2.06822
0.780945 0.683445 -1.7221
0.3725 0.801238 2.12024
0.758744 0.6525 2.12846
0.764617 0.792117 1.7562
-0.710486 0.137014 -0.997105
-0.742715 0.136452 -0.300682
-0.822395 0.276021 -0.65627
-0.377922 0.0897847 -0.648949
-0.774788 0.167712 1.09217
-0.755899 0.154934 0.395742
-0.833043 0.312439 0.736155
-0.396206 0.108419 0.743922
-0.808749 0.751249 -1.02619
-0.856418 0.61497 -0.671023
-0.812139 0.776306 -0.33061
-0.426036 0.916921 -0.678453
-0.791762 0.799262 1.06055
-0.851815 0.646132 0.720558
-0.805216 0.791049 0.36497
-0.498436 1.22355 0.712748
0.708582 0.138918 -0.997353
0.377824 0.0898146 -0.649061
0.742665 0.136502 -0.300881
0.821859 0.274349 -0.65649
0.774767 0.167733 1.09206
0.396115 0.108471 0.743859
0.755778 0.155056 0.395591
0.832833 0.311863 0.736048
0.814495 0.741995 -1.02644
0.432897 0.915659 -0.678558
0.857042 0.60813 -0.671237
0.81725 0.76975 -0.33078
0.794741 0.797241 1.06054
0.502719 1.22324 0.712723
0.856444 0.645297 0.720489
0.810226 0.787726 0.36488
-0.814819 0.392885 -1.72864
-0.37724 0.37375 -2.14587
-1.37886e-05 0.100116 -1.69176
0.00125 0.240667 -2.05132
-0.820912 0.256074 -1.35248
-0.365158 0.0900128 -1.34538
-0.831112 0.509725 1.77753
-0.375173 0.52 2.15256
-1.08452e-05 0.183751 1.79112
0 0.38494 2.17033
-0.853628 0.342742 1.43237
-0.38616 0.158274 1.44036
0.00444315 0.756668 -1.73824
0.00375 0.522557 -2.13545
-0.866662 0.568825 -1.36681
-0.395663 0.786492 -1.37405
0.000461983 0.852567 1.7681
0 0.664433 2.12751
-0.84 0.650364 1.41635
-0.39101 0.945489 1.40835
0.816334 0.388176 -1.72667
0.379963 0.37125 -2.14558
0.820279 0.254389 -1.35276
0.364606 0.0910518 -1.34552
0.831177 0.509365 1.77582
0.37345 0.52 2.15138
0.853934 0.342063 1.43232
0.386458 0.158456 1.44032
0.8718 0.561637 -1.3671
0.402905 0.78634 -1.3742
0.840324 0.64869 1.41635
0.392287 0.948011 1.40836
-0.827597 0.29532 0.0399425
-0.38683 0.097383 0.0474863
-0.86169 0.428656 -1.01165
-0.868934 0.454631 -0.315646
-4.13658e-05 0.0871528 -0.997229
-5.22111e-05 0.0903673 -0.300781
-0.871496 0.470811 0.380356
-0.894179 0.489175 1.07636
-4.63243e-05 0.0993225 0.395666
-3.25357e-05 0.131822 1.09211
-0.856923 0.632083 0.0247675
-0.504168 1.21671 0.0171475
0.00332945 0.843966 -1.02632
0.00254143 1.18431 -0.330695
0.0020791 1.26422 0.364925
0.00138595 1.23287 1.06055
0.827206 0.294152 0.0397788
0.386699 0.0974806 0.0473988
0.861628 0.424527 -1.0119
0.868681 0.451392 -0.31583
0.871372 0.468769 0.380235
0.894174 0.488094 1.0763
0.857462 0.627309 0.0246262
0.509978 1.2163 0.0170824
-0.794105 0.248037 -1.71108
-0.841844 0.270923 -1.00438
-0.854731 0.588068 -1.01892
-0.813574 0.539413 -1.7252
0.791898 0.245945 -1.71025
0.813898 0.532069 -1.72439
0.855217 0.581568 -1.01917
0.84389 0.269148 -1.00462
-0.356329 0.096326 -1.69264
0.356053 0.09971 -1.69279
0.366845 0.0873361 -0.997291
-0.367176 0.0875367 -0.997167
-0.380332 0.742732 -1.73001
-0.400826 0.829202 -1.02625
0.407219 0.829127 -1.02638
0.388952 0.742425 -1.73017
-0.36237 0.240333 -2.01274
-0.37112 0.516278 -2.10632
0.377481 0.512528 -2.10565
0.363731 0.239083 -2.01321
-0.825242 0.285547 -0.308164
-0.829646 0.304216 0.388049
-0.856688 0.640267 0.372663
-0.85705 0.623716 -0.323128
0.824734 0.28415 -0.308356
0.857609 0.617898 -0.323305
0.857101 0.636377 0.372558
0.829352 0.303341 0.387913
-0.383531 0.0912739 -0.300731
0.383422 0.0913267 -0.300831
0.39307 0.0996499 0.395629
-0.393185 0.099567 0.395704
-0.49432 1.12525 -0.330653
-0.50572 1.22896 0.364948
0.51074 1.22855 0.364902
0.500338 1.12378 -0.330738
-0.864351 0.331369 1.08426
-0.812931 0.365121 1.78306
-0.820828 0.651432 1.76683
-0.85253 0.644085 1.06845
0.864398 0.33069 1.08418
0.85282 0.642145 1.06842
0.821268 0.650595 1.76601
0.812879 0.364781 1.78218
-0.384485 0.131744 1.09214
0.384591 0.131925 1.09209
0.376979 0.183294 1.78983
-0.37683 0.183037 1.78985
-0.395054 1.20551 1.06055
-0.381755 0.841318 1.76211
0.382394 0.84151 1.76215
0.397541 1.20554 1.06054
-0.371336 0.38622 2.15547
0.370475 0.38622 2.15556
0.372975 0.658467 2.1518
-0.373836 0.658467 2.15179
-0.675969 0.1725 -2.02119
-0.52125 0.102903 -2.04388
-0.707328 0.100589 -1.86763
-0.747968 0.32125 2.14441
-0.55125 0.251079 2.14072
-0.74675 0.235333 1.96269
-0.734336 0.5775 -2.07042
-0.55 0.654867 -2.08072
-0.757096 0.672513 -1.89567
-0.759943 0.71875 2.12422
-0.55875 0.796309 2.11524
-0.755718 0.790302 1.93002
0.52125 0.1029 -2.04412
0.676793 0.17125 -2.02109
0.707035 0.100882 -1.86794
0.55125 0.251257 2.14052
0.748688 0.32125 2.14512
0.746665 0.235419 1.96265
0.56 0.651734 -2.08537
0.742094 0.56875 -2.06979
0.765914 0.662164 -1.89602
0.55875 0.796285 2.1153
0.759711 0.71875 2.12408
0.755585 0.789335 1.93011
-0.735443 0.119973 -0.822999
-0.740474 0.130776 -0.474788
-0.793153 0.194116 -0.652582
-0.566732 0.0901824 -0.648921
-0.768319 0.166264 0.918059
-0.759841 0.158909 0.569848
-0.808243 0.232297 0.740054
-0.593633 0.109272 0.743938
-0.814031 0.761948 -0.852295
-0.847652 0.69756 -0.674712
-0.813328 0.772078 -0.504505
-0.636065 0.873848 -0.678426
-0.796288 0.798372 0.886655
-0.841234 0.729074 0.716659
-0.802779 0.794029 0.538865
-0.674921 1.06149 0.712754
0.735326 0.12009 -0.823235
0.566638 0.0902332 -0.649089
0.740354 0.130896 -0.474999
0.792436 0.193533 -0.652803
0.768068 0.166516 0.917945
0.593573 0.109283 0.743843
0.759725 0.159025 0.569709
0.808184 0.232008 0.739937
0.819474 0.753224 -0.852525
0.643743 0.872272 -0.678584
[...]
POINT_DATA 3682
SCALARS point_scalars float 1
LOOKUP_TABLE default
-113.129
-49.9469
-65.147
-42.0528
-113.807
-49.9874
-64.7816
-42.1391
-38.8305
-40.4591
-50.0025
-44.5445
-38.9474
-40.3151
-49.9313
-44.7225
-39.1925
-157.629
-38.3875
-36.0635
-50.5199
-48.4024
-48.4024
-39.1925
-126.257
-38.7031
-37.0269
-48.5107
-47.551
-44.395
-25.7234
-104.2
-45.0115
-41.4199
-44.3743
-45.4092
-43.5813
-17.6597
-53.4281
-71.0286
-51.7174
-38.6487
-43.5821
-41.5246
16.6562
-167.343
-39.5918
-46.3231
-49.2977
-45.6205
-44.329
88.6877
-44.3398
-41.5975
156.097
-40.4368
-40.2629
-72.8853
-67.7801
-38.4741
-53.4863
-35.606
-38.5546
-39.3243
14.9733
-168.419
-39.6118
-46.4203
-49.0183
-45.982
-44.6449
90.4538
-43.9281
-42.7444
137.36
-40.616
-40.3348
-20.3652
-77.8599
-40.3927
-53.4775
-35.3509
-38.7691
-39.2514
-37.2264
-157.951
-38.3749
-36.0812
-50.7598
-48.4627
-48.4627
-37.2264
-121.283
-38.6978
-37.1512
-48.5014
-47.7717
-44.4401
-24.3583
-109.617
-45.3582
-41.1078
-44.4197
-45.4847
-43.6745
-13.9825
-86.7782
-68.1985
-51.8412
-38.5126
-43.6519
-41.6977
-26.0862
-243.918
-55.9655
-44.6615
-42.4597
-42.5918
-72.8644
-33.7389
-31.5109
-39.7471
-30.5402
-56.7265
-44.6228
-42.7288
-34.9377
-40.0023
-36.934
-39.777
-43.5354
-37.39
-42.1666
-52.8885
31.8602
-56.1389
-36.9047
-39.8375
-37.5317
-52.4926
-53.1403
-52.9711
-62.0957
-14.2498
198.679
-40.0717
-40.0314
-39.6064
-88.2755
-44.4492
-44.5389
-42.3389
-33.38
-36.8472
8.84698
-181.753
-79.672
-44.6049
-43.4312
-41.432
-18.1984
-59.5323
-46.0345
-45.1588
-34.401
-36.5801
-180.874
8.88985
-78.5166
-43.4051
-44.7338
-41.4377
-46.6089
-26.8707
-46.4245
-34.5043
-45.2476
-36.211
-42.591
-37.3136
-38.5068
-42.4913
-42.8264
-37.1401
-31.5613
-42.3207
-31.8105
-42.8333
-56.9388
18.9093
-42.8313
-40.216
-48.2581
-53.3811
-42.3157
-42.4884
-37.3421
-38.5043
-42.9392
-42.1245
-37.207
-31.6781
-31.1782
18.5911
-42.7833
-56.0117
-43.0252
-53.4686
-40.5582
-47.8847
-56.2219
193.914
-91.6409
155.063
-54.2662
-60.7582
-40.2608
-39.4753
-42.8845
-38.6787
-46.0065
-42.0609
-43.8812
192.582
-47.4803
-18.292
-33.0959
-34.7353
-41.0335
-34.7264
-55.8624
193.598
-54.0661
-60.7446
-40.3167
-39.5088
-46.1841
-42.1931
-48.0339
-18.3523
-41.098
-34.5452
-37.7944
-38.9322
-42.7559
-40.6151
-50.0364
-40.9885
-38.7206
-41.0415
-40.7125
-42.5372
-44.6873
-85.4531
8.12193
-44.8238
-69.0732
-44.4105
-37.7911
-38.9155
-42.9866
-40.5624
-38.6663
-41.149
-44.5868
-85.2966
-70.6237
-45.8937
-40.4943
-53.6595
-69.142
-53.472
-40.7054
-46.1139
-90.3745
-90.2759
-48.4137
-48.4105
-45.172
0.280709
0.147821
-45.0461
140.486
184.711
185.352
139.413
-38.1714
-37.0918
-42.1829
-45.9686
-38.1757
-45.7558
-42.0414
-37.1017
-40.0985
-40.1035
-40.1617
-40.2067
-35.7673
-62.6674
-62.5853
-36.793
-41.7698
-40.1131
-39.3323
-41.972
-41.8936
-42.0941
-39.3414
-40.1322
-41.9085
-42.1836
-43.1833
-43.2144
-45.7027
-33.8755
-33.8638
-46.0932
-39.6627
-39.7297
-37.7637
-37.677
-24.9992
-108.78
-109.417
-47.3666
-44.932
-42.1661
-22.9582
-72.3828
-70.8388
-45.1158
-36.9218
-36.9332
-109.769
-31.2761
-110.072
-44.9666
-47.4214
-42.1956
-47.5139
-32.5624
-72.9859
-36.938
-45.2438
-36.9754
-39.6882
-37.501
-38.4306
-41.072
-41.1202
-37.6373
-32.6554
-44.7497
-35.0239
-46.8198
-56.7337
-4.67351
-43.6344
-42.2862
-46.1915
-49.3345
-39.7408
-41.0862
-37.4977
-38.4158
-41.1117
-44.5231
-37.5881
-32.7531
-36.5917
-6.69085
-46.6909
-56.1154
-43.878
-49.4942
-42.8345
-46.0948
-43.4435
-56.1472
-97.5001
179.155
-225.286
-225.077
-129.512
127.149
-64.5199
-50.9751
-53.8331
-58.098
-43.5971
-44.8341
-43.7189
-40.3274
-42.6508
-42.6089
-43.633
-40.0794
-43.7447
-42.6119
-45.865
-41.5712
-64.4493
-60.6319
-59.2945
140.493
-36.6266
-32.8272
-43.6989
-22.7756
-32.6852
-32.7386
-33.8669
-32.4154
-36.5651
-41.5764
-40.077
-36.0275
-45.54
-58.5682
-97.945
178.272
-63.3907
-51.2158
-53.0677
-58.1363
-43.6036
-44.9152
-43.6132
-40.3452
-43.9158
-42.4843
-46.026
-41.7561
-38.8038
-33.6245
-44.5631
-22.7358
-36.6834
-41.794
-40.2285
-36.2237
-37.1531
-36.9798
-37.0863
-38.02
-38.9668
-40.7699
-40.0568
-40.2657
-43.2683
-43.2705
-46.3412
-41.8141
-34.5992
-38.7549
-37.897
-36.748
-42.0935
-42.0837
-41.6875
-42.938
-55.3304
-50.297
-48.5316
-68.1072
28.7111
28.3909
22.0088
12.8237
-55.6821
-55.7702
-64.0397
-49.7794
-37.1655
-36.9886
-37.082
-38.0068
-38.9831
-40.8377
-40.1607
-40.2628
-34.6993
-38.9948
-37.8933
-37.0715
-54.8442
-49.955
-48.2844
-67.4326
-61.3901
-53.4533
-52.9205
-47.739
-60.0835
-53.4179
-53.0791
-47.6556
-72.771
-62.0004
-61.8767
-54.9993
-27.1678
-15.162
-15.1616
-2.69877
197.846
150.811
199.946
197.891
-38.6017
-40.5333
-39.4346
-42.2048
-38.58
-40.4889
-39.3942
-42.1219
-39.4293
-40.3192
-39.9372
-39.4191
-88.7569
-117.876
-76.2194
-88.7416
-39.9554
-45.9645
-42.5781
-45.706
-40.0437
-46.0676
-42.6038
-45.7195
-42.5173
-42.2607
-42.3001
-42.3158
-32.7296
-33.744
-33.7358
-36.3452
-37.6603
-36.4785
-35.9086
-37.7265
-99.8401
122.405
-131.514
116.834
-74.476
-85.0816
-42.9348
-40.0206
-45.0167
-40.7739
-40.0435
-43.3666
-90.8273
165.505
-65.1732
140.642
-51.8734
-45.9277
-41.8286
-39.68
-34.0236
-36.576
-38.2932
-34.3982
-131.39
114.69
-98.7516
121.823
-73.5613
-84.8256
-45.0199
-40.8022
-42.9492
-40.0559
-40.0592
-43.3095
-66.1099
140.574
-90.6554
164.774
-51.9403
-45.8194
-34.0205
-36.7113
-41.8718
-39.7323
-38.2992
-34.3936
-45.4034
-44.7492
-37.5328
-39.0233
-39.4937
-38.1904
-45.0948
-40.8468
-42.3299
-40.7742
-36.7942
-39.4652
-36.0686
-40.1828
-41.4905
-42.1248
-39.2873
-10.3836
-40.0387
-44.9561
-50.4891
-88.3591
8.44336
9.6567
-41.9995
-48.1708
-41.3915
-39.8824
-44.7357
-54.6909
-58.9953
-50.0316
-45.4948
-44.6875
-45.079
-40.8526
-37.5371
-39.0368
-39.4413
-38.2027
-42.4194
-41.0573
-41.3902
-42.2615
-36.7978
-39.439
-36.1164
-40.1845
-39.4112
-10.1531
8.31158
8.9774
-40.1412
-44.8014
-50.338
-87.8307
-42.138
-48.4074
-58.9062
-50.4003
-41.0544
-40.7032
-44.5568
-54.5673
-60.3027
-54.4627
147.795
189.793
-91.9179
-91.8352
149.744
147.768
-65.5048
-49.9035
-71.2699
-53.6787
-40.2289
-39.9128
-39.8338
-38.4623
-42.9653
-42.9626
-38.9523
-39.0304
-45.5816
-41.1746
-41.8825
-42.4665
-44.5589
-44.506
189.548
189.244
-45.3437
-45.4074
-29.012
-9.44979
-33.3751
-33.3635
-36.0006
-35.8981
-39.321
-42.3106
-36.8281
-34.172
-60.2535
-54.2344
190.273
146.787
-64.613
-49.7638
-71.2316
-53.6668
-39.9892
-40.2615
-39.8199
-38.5404
-45.5345
-41.269
-42.0549
-42.5235
-43.4428
-45.1599
-9.51658
-29.0601
-42.307
-39.3427
-34.148
-37.1573
-38.0673
-37.5208
-39.5811
-39.2608
-44.6887
-41.1976
-39.0438
-42.8821
-49.6752
-49.6721
-40.7658
-40.7682
-37.5494
-40.4675
-41.8351
-41.7225
-40.56
-40.5801
-42.3936
-42.4548
-43.38
-45.7352
-107.198
-69.9604
6.36781
6.28941
-35.6058
-35.2564
-68.0782
-68.076
-44.3175
-44.6245
-38.0675
-37.5203
-39.5756
-39.2356
-41.4566
-44.9027
-39.0262
-42.7972
-40.3553
-37.542
-41.9328
-41.8403
-45.582
-43.2981
-69.8947
-106.914
-112.018
-65.5692
-63.3395
-94.6518
-39.5872
-40.014
-48.6774
-50.7524
-41.579
-41.7298
-48.647
-39.6113
-83.8917
-94.9523
-55.2563
-45.1858
-111.064
-93.6184
-62.2021
-64.6716
-84.1916
-44.0672
-53.8849
-94.8056
-42.1486
-39.7599
-48.3581
-42.0757
-39.5462
-51.1458
-48.5889
-40.0365
-126.102
-131.469
-72.6149
-67.6009
-125.919
-67.5453
-72.5866
-131.373
-43.4535
-46.0313
-54.517
-51.9952
-43.4792
-51.9821
-54.5159
-46.0366
-66.1374
-31.8952
-27.6728
-62.6994
-5.00207
17.192
-4.70143
-16.4357
-5.778
-16.3359
-4.81079
17.0912
-66.8982
-63.3288
-27.6236
-31.7807
122.989
121.123
139.878
100.066
136.542
136.915
194.639
164.814
137.325
163.076
194.696
132.219
118.851
98.7042
141.843
120.117
-37.8218
-37.3551
-38.9356
-38.9513
-36.1811
-36.5423
-38.1889
-36.9323
-43.7761
-46.5034
-41.349
-39.7327
-49.8479
-42.0915
-42.8515
-50.055
-37.8232
-38.9577
-38.9152
-37.3542
-49.5269
-49.6805
-42.7628
-42.0593
-43.6033
-39.563
-41.2838
-46.2256
-36.2128
-36.9375
-38.1697
-36.5784
-39.5316
-41.5798
-40.1321
-38.6801
-39.5447
-38.6755
-40.1296
-41.6095
-41.1133
-41.5955
-39.7803
-38.3496
-41.2938
-38.3686
-39.7943
-41.6244
-48.8425
-79.4418
-113.71
14.6531
-50.9827
-62.6426
-75.0441
-59.8414
-50.9519
-59.5408
-74.9929
-62.6629
-54.1343
14.9743
-114.818
-78.6033
-39.4828
-44.1369
-45.4028
-37.5155
-40.0838
-44.6047
-40.2935
-41.7713
-40.1504
-38.3106
-39.8095
-42.8345
-41.8245
-38.5257
-44.2618
-41.5027
-39.5281
-37.722
-45.4103
-44.125
-42.3329
-41.5943
-44.1085
-39.0957
-40.0982
-42.9408
-39.9033
-38.3953
-40.0971
-41.8588
-40.3606
-44.4336
-40.469
-42.8027
-42.1983
-41.1565
-40.371
-41.3809
-42.2527
-42.8455
-46.3592
-43.9966
-42.5179
-42.7166
-46.3375
-42.5723
-42.5016
-43.987
-47.2596
-39.3182
-36.3441
-49.9793
-34.4972
-33.9095
-33.2533
-34.9445
-34.4819
-34.9284
-33.2385
-33.8969
-47.5158
-50.1623
-36.3888
-39.894
-41.5319
-40.2804
-37.8759
-40.3946
-41.575
-40.3999
-37.9045
-40.3041
-39.4406
-34.0374
-36.9979
-39.9361
-39.3465
-39.8745
-36.9157
-33.9043
-62.4257
-67.6839
-162.317
-48.8936
-46.5399
-47.426
-31.3127
-34.16
-96.746
-44.0005
-38.48
-38.3278
-68.4897
-66.9106
-162.492
-46.6214
-48.9552
-47.4235
-25.6212
-37.5276
-97.3856
-38.5775
-44.1334
-38.3663
-39.5448
-38.3474
-38.4479
-39.9287
-41.5321
-38.179
-35.3534
-46.7863
-40.7635
-49.0167
-56.3869
-34.8042
-44.0502
-43.5472
-45.2744
-46.0895
-39.5885
-39.9502
-38.2564
-38.4901
-41.5887
-46.7846
-38.1547
-35.3497
-41.6795
-37.8217
-49.1571
-55.5094
-44.3393
-46.3208
-43.8774
-45.3697
-37.2129
-30.1074
-125.688
138.326
-242.705
-242.351
-162.413
-40.9584
-59.7552
-53.2194
-54.6647
-56.2102
-44.2345
-44.7187
-50.2069
-40.7969
-42.3159
-42.3338
-44.0658
-41.3009
-44.8154
-42.1538
-44.9492
-41.4761
-69.5061
-68.9836
-90.0575
55.4137
-36.3484
-33.3495
-41.0811
-26.3783
-31.8775
-31.9138
-34.3475
-29.9205
-37.6862
-40.8425
-39.7285
-38.5608
-42.6946
-26.1009
-126.841
135.289
-60.2589
-53.1579
-54.036
-56.2617
-44.2731
-44.7535
-51.5942
-40.8282
-45.1116
-42.1818
-45.0804
-41.661
-36.4467
-33.7756
-40.6521
-26.5517
-37.7632
-41.1075
-39.9532
-38.6822
-36.9374
-36.976
-37.0085
-37.1066
-39.3864
-40.1832
-39.7076
-40.0118
-43.4841
-43.4852
-44.7647
-42.6254
-36.0884
-38.0696
-37.5819
-37.1474
-42.1541
-42.1522
-41.6155
-42.8508
-54.1826
-51.6435
-50.7245
-59.1153
31.2427
31.2119
30.075
26.443
-56.0363
-56.087
-59.6359
-52.8463
-36.9462
-36.9856
-37.0048
-37.0987
-39.4266
-40.2285
-39.765
-40.0503
-36.2184
-38.272
-37.6467
-37.4381
-53.8194
-51.2506
-50.4062
-58.7702
-56.4218
-53.4107
-53.1481
-50.5472
-55.8277
-53.2019
-53.0121
-50.4152
-66.8491
-62.1548
-62.1488
-58.2676
-19.8355
-14.4762
-14.4886
-8.99626
200.671
177.027
203.524
200.728
-39.2537
-40.3281
-39.7716
-41.0694
-39.22
-40.2973
-39.7238
-40.9997
-39.5852
-39.6907
-39.7174
-39.5804
-88.6252
-99.0861
-81.3686
-88.637
-41.6033
-45.0854
-43.4454
-46.5622
-41.6753
-45.1855
-43.4562
-46.6132
-42.3468
-42.3147
-42.3339
-42.2736
-32.4644
-33.5033
-33.5113
-34.535
-37.1365
-36.7868
-36.5048
-37.1735
1.30666
6.57613
-131.065
92.9034
-162.157
-207.063
-169.905
43.2141
-90.3756
-70.8802
-75.5227
-81.0025
-45.4741
-43.1705
-49.6991
-40.5607
-44.0659
-42.887
-45.2167
-42.3697
-42.2641
-41.5663
-40.4004
-42.7314
-18.2021
-25.7527
-116.293
136.888
-52.614
-65.9636
-94.6032
68.9997
-52.0339
-42.3677
-49.4379
-45.4626
-44.7223
-44.9279
-46.6321
-40.3155
-35.7117
-33.4446
-34.36
-35.2433
-36.348
-36.3186
-37.5567
-35.0438
-167.32
-206.796
-171.312
41.7759
-7.30952
-33.3836
-129.655
91.97
-89.7338
-70.3885
-74.7545
-80.5991
-44.1515
-42.9735
-45.2292
-42.3925
-45.5271
-43.2416
-49.7342
-40.5961
-42.2776
-41.5739
-40.4178
-42.6726
-40.9711
-56.7499
-97.8134
67.8585
-27.9266
-30.2496
-121.229
133.475
-51.9837
-42.5546
-49.0179
-45.6851
-35.9091
-33.516
-34.3596
-35.3948
-44.8051
-44.9996
-46.7394
-40.3668
-36.403
-36.4134
-37.2367
-35.0579
-37.8373
-50.8835
-45.2689
-42.8149
-37.6922
-37.4892
-37.4983
-37.6077
-38.4314
-38.6801
-38.8652
-38.2742
-41.9018
-42.9427
-43.6582
-41.5509
-40.3168
-43.1146
-43.1389
-41.3781
-37.3885
-37.1159
-37.0986
-38.1493
-31.4955
-32.8191
-34.9104
-36.1474
-43.4064
-42.032
-41.4645
-42.3253
-31.341
-31.7558
-38.1731
-18.2132
-44.4786
-41.681
-41.3135
-43.9768
-57.0891
-56.2885
-53.6532
-69.9428
10.1423
24.1333
12.6929
18.0987
-43.2839
-41.8445
-42.3141
-44.3625
-41.1229
-39.4
-40.759
-39.8207
-47.2627
-49.2526
-46.6761
-51.1431
-53.1771
-55.0895
-56.2416
-51.8638
-37.5395
-50.9857
-45.2353
-42.6936
-41.9072
-42.9444
-43.6646
-41.5541
-37.6961
-37.5064
-37.4917
-37.6332
-38.4258
-38.6894
-38.8586
-38.2812
-40.2808
-43.5474
-43.0933
-41.4972
-42.7754
-42.0022
-41.343
-42.4439
-37.3658
-37.1232
-37.0941
-38.2428
-31.6263
-32.8806
-34.9927
-36.2569
-32.6975
-33.0848
-37.3554
-18.5815
9.60155
23.9358
12.4359
17.58
-44.4723
-41.7131
-41.3953
-43.8671
-56.2058
-55.5464
-53.0746
-68.5013
-43.4908
-42.1328
-42.4453
-44.6538
-53.085
-55.1736
-56.2017
-52.1378
-41.4271
-39.6862
-40.6613
-40.4393
-47.038
-48.834
-46.3393
-51.0678
-68.636
-57.4856
-57.5483
-55.0205
186.12
191.135
176.64
195.012
-107.738
-80.6079
-91.8116
-91.7662
167.288
150.597
151.736
150.509
-53.9675
-53.9097
-59.6946
-51.3959
-59.5668
-61.4938
-65.386
-56.9326
-41.4756
-39.7998
-40.2595
-40.0768
-40.0593
-38.2223
-39.7634
-38.9357
-43.189
-42.7252
-42.9093
-42.9067
-39.3748
-37.4895
-38.7517
-38.8009
-45.7503
-45.9858
-45.9687
-44.4476
-41.9337
-42.1881
-41.9377
-42.1906
-51.6066
-34.3793
-44.0091
-44.005
176.61
198.037
190.009
189.362
-44.9745
-50.6991
-47.5735
-46.0376
-20.4524
-16.2896
-23.2356
-13.4474
-33.4338
-32.9773
-33.1743
-33.1679
-34.5417
-35.0151
-35.1299
-35.066
-40.5698
-41.6164
-40.0355
-41.9272
-35.4079
-34.1147
-35.7108
-34.2
-68.0914
-58.0045
-57.4086
-54.8831
186.154
190.759
195.242
176.28
-53.4658
-53.7672
-59.0912
-51.4086
-59.5748
-61.4776
-65.336
-56.9107
-41.4911
-39.8753
-40.1521
-40.3025
-40.1158
-38.2825
-39.7775
-39.0059
-46.0589
-46.0994
-46.0374
-44.6106
-42.1735
-42.2499
-42.0507
-42.2597
-45.0099
-51.3347
-47.061
-47.0961
-20.5559
-16.3127
-13.5324
-23.2868
-40.6528
-41.6068
-41.9038
-40.0651
-35.2148
-34.0765
-34.1786
-35.6088
-37.4546
-38.188
-37.9477
-37.6879
-38.5222
-39.235
-38.9594
-39.0719
-40.6292
-45.7487
-43.3918
-42.0381
-40.5314
-40.645
-39.7881
-41.6588
-48.131
-52.262
-49.9569
-49.9558
-41.2963
-40.9232
-40.9227
-40.9236
-38.3576
-39.0782
-38.0822
-39.5504
-37.4929
-44.0366
-42.1871
-40.9507
-41.6483
-40.2008
-40.6721
-40.6815
-42.6493
-42.4833
-42.5026
-42.5306
-46.0631
-43.3916
-44.0502
-45.2762
-79.9811
-87.795
-101.043
-76.2302
15.3175
2.86987
7.53487
7.51801
-5.26979
-100.999
-42.1053
-42.1951
-67.2843
-72.3911
-69.069
-69.0687
-46.9616
-39.4498
-44.335
-44.3828
-37.4481
-38.1845
-37.9467
-37.6837
-38.5051
-39.2213
-38.9429
-39.0529
-40.7884
-45.6696
-42.342
-43.7269
-40.5115
-40.6107
-39.7747
-41.5872
-38.3052
-39.0359
-39.4582
-38.0605
-37.6858
-44.1383
-42.3332
-41.0199
-45.931
-43.3116
-45.1562
-43.9604
-79.4069
-87.9249
-76.2269
-101.483
-79.2347
-73.3302
-67.1827
-69.5704
-45.2635
-42.8162
-47.1235
-45.4271
-40.1525
-39.703
-42.5196
-40.7449
-65.8166
-52.7342
-54.3582
-46.0564
-78.3032
-71.9744
-66.0817
-68.7219
-65.903
-52.4424
-54.0109
-46.2838
-40.4198
-39.8077
-42.6279
-40.8274
-45.4201
-43.1317
-46.7337
-45.6208
-107.829
-88.1471
-91.5581
-79.2897
-107.624
-88.0108
-91.4548
-79.2358
-46.8072
-46.6275
-50.8489
-49.1924
-46.8303
-46.6392
-50.8712
-49.1847
-54.1022
-45.741
-44.8492
-36.3691
-4.96617
4.4964
-4.53901
3.80393
-5.11361
4.3272
-4.71205
3.75139
-54.2639
-45.5099
-44.787
-36.503
134.052
146.421
137.581
143.867
179.297
170.176
189.133
186.71
170.234
179.792
187.486
188.597
145.218
133.331
142.768
136.586
-37.7764
-38.1678
-38.1
-38.5955
-36.9146
-36.6879
-37.3185
-37.307
-41.863
-43.1071
-41.3241
-42.7328
-45.7184
-47.94
-44.3265
-45.9754
-37.7753
-38.1732
-38.0957
-38.5977
-45.5069
-47.7926
-44.2025
-45.7772
-41.5616
-42.9913
-41.1897
-42.6374
-36.9241
-36.7123
-37.3201
-37.3139
-39.6131
-40.3919
-40.0928
-40.479
-40.3977
-39.6211
-40.4822
-40.0998
-41.2342
-39.815
-40.3894
-39.55
-39.869
-41.2953
-39.5823
-40.4215
-55.4871
-7.77576
-69.1455
-25.8204
-58.6048
-61.2055
-65.5991
-66.2031
-61.0411
-58.7075
-66.1884
-65.5558
-8.67282
-59.1857
-25.9397
-68.6172
-41.5866
-39.5829
-43.5991
-41.6292
-41.2258
-40.0853
-40.1275
-39.7028
-40.2131
-38.9555
-39.6438
-39.0676
-41.8432
-40.7411
-42.3694
-42.1137
-41.7584
-39.7215
-43.5496
-41.737
-42.0043
-41.2156
-42.6311
-42.2249
-40.2316
-38.9608
-39.6776
-39.0918
-41.2343
-40.0966
-40.1527
-39.7431
-41.4599
-41.8132
-42.0617
-42.236
-41.9655
-42.0854
-42.2512
-42.3472
-43.9419
-43.3193
-43.058
-42.8736
-43.9678
-43.3711
-43.0654
-42.8978
-46.8518
-49.0157
-39.7557
-44.9385
-33.8514
-34.1261
-33.6294
-34.0395
-33.8455
-34.121
-33.6151
-34.0094
-47.5906
-49.3933
-40.5333
-45.5685
-39.8601
-40.2427
-39.5817
-39.2826
-40.2884
-39.9152
-39.3425
-39.6001
-37.389
-39.1589
-36.7522
-38.1349
-39.0905
-37.2867
-38.0549
-36.6534
-160.205
120.704
-171.487
18.5235
-109.152
-118.389
-49.4838
-42.1839
-46.7031
-43.2016
-40.1002
-46.201
-101.649
111.689
-105.81
70.6457
-77.1881
-64.6791
-43.8699
-40.7395
-35.0775
-38.5059
-38.6688
-35.1726
-171.463
16.4791
-158.81
117.891
-109.33
-118.349
-46.7256
-43.257
-49.4944
-42.2336
-40.1185
-46.2611
-108.085
68.0166
-108.558
111.09
-77.8733
-64.4317
-35.1407
-38.6179
-43.7843
-40.8294
-38.6388
-35.2054
-39.6497
-40.7037
-37.7316
-38.1705
-39.0219
-37.9497
-42.241
-40.0816
-39.9399
-39.0874
-36.6953
-39.8758
-35.5114
-37.0944
-41.7726
-41.6943
-39.8516
-19.7822
-44.27
-48.4617
-53.0787
-77.9447
-0.43884
-16.5911
-42.8887
-44.9485
-43.0539
-41.9043
-45.1845
-48.0429
-49.7116
-48.1283
-39.5641
-40.6465
-42.2663
-40.0895
-37.7168
-38.1798
-38.9983
-37.9497
-40.1514
-39.0745
-41.6117
-41.7287
-36.6972
-39.794
-35.5745
-37.0575
-40.6698
-21.862
-1.23572
-19.4673
-44.4192
-48.2407
-52.7019
-77.4423
-43.1475
-45.2358
-49.8419
-48.3877
-43.1263
-42.4648
-45.0652
-48.0601
-123.179
82.3216
-116.624
133.751
-94.1627
-94.9687
165.503
173.634
-168.98
29.0315
-169.03
28.9846
-130.261
-130.211
152.221
154.049
-65.774
-65.0776
-51.5619
-50.8745
-59.0905
-51.3314
-62.2434
-54.753
-50.3233
-40.8354
-48.2985
-40.3566
-44.1156
-43.2279
-40.4929
-40.0567
-44.3122
-41.5263
-44.3347
-41.5488
-43.734
-43.7281
-40.1097
-40.1233
-42.8783
-42.6564
-43.5257
-41.3116
-44.8584
-45.8775
-40.8608
-42.168
-90.5011
53.172
-91.8231
48.7897
-59.8504
-60.1819
143.656
142.204
-41.5225
-33.4718
-39.7632
-21.8342
-43.396
-45.1582
-27.0121
-19.6677
-34.3133
-31.7965
-34.2977
-31.9328
-33.8631
-33.8553
-32.8876
-32.8045
-37.5498
-35.3885
-41.3928
-41.5907
-38.9852
-40.8456
-37.282
-35.4478
-119.028
79.9052
-126.01
131.899
-93.6153
-95.4582
173.374
162.958
-64.7469
-64.9372
-52.6548
-50.914
-58.5539
-51.1689
-62.2673
-54.77
-50.8447
-40.8438
-48.4137
-40.4152
-43.266
-43.9905
-40.4672
-40.128
-42.9737
-42.7824
-43.5785
-41.4649
-45.0043
-46.0815
-41.0119
-42.3163
-42.5665
-33.7987
-39.8374
-22.4356
-44.8416
-43.8121
-19.5259
-27.0409
-37.7226
-35.3965
-41.5294
-41.8233
-40.9497
-39.0776
-35.401
-37.5585
-37.2039
-37.8189
-36.8862
-37.3043
-37.2179
-37.0189
-37.9376
-38.1401
-39.1567
-38.9601
-40.1243
-41.4499
-40.2127
-39.7354
-39.5931
-41.0408
-44.4692
-42.3233
-44.4713
-42.3252
-46.2873
-46.2892
-41.7685
-41.7695
-35.7027
-36.3562
-39.1822
-38.4085
-37.1618
-38.8155
-36.7686
-37.6513
-41.5535
-42.7541
-41.4877
-42.7798
-41.6886
-41.7007
-42.8985
-42.9183
-52.6983
-64.035
-48.3932
-54.7516
-47.3968
-49.1068
-73.737
-63.4477
23.7472
27.1746
23.561
27.0381
20.1888
19.9815
13.209
13.2847
-58.9617
-52.683
-59.0049
-52.8197
-63.3708
-63.3931
-49.8158
-49.899
-37.2206
-37.8234
-36.8879
-37.2991
-37.2151
-37.0146
-37.9165
-38.1256
-39.1689
-38.9772
-40.1976
-41.461
-39.8796
-40.3274
-39.595
-41.0213
-35.779
-36.554
-39.2274
-38.8851
-38.7425
-37.1788
-37.0236
-38.0754
-52.2968
-63.4462
-48.1449
-54.3425
-48.5229
-47.1626
-63.046
-72.9677
-62.0088
-59.8812
-58.0336
-51.3144
-50.1725
-55.2861
-48.1819
-48.3068
-60.8145
-58.2261
-57.254
-51.1214
-55.2123
-50.1706
-47.9018
-48.1224
-72.8326
-72.815
-66.6386
-57.9871
-66.9334
-58.2093
-54.9448
-54.9463
-27.1682
-27.2191
-21.1765
-10.1954
-10.2059
-21.0043
-3.23871
-3.27317
176.459
202.062
140.7