# vtk DataFile Version 2.0
tri_press
ASCII
DATASET UNSTRUCTURED_GRID
POINTS 3682 float
-0.833256 0.365 -2.105
-0.885 0.355 2.10057
-0.855 0.765 -2.01232
-0.828534 0.765 1.985
0.83326 0.365 -2.105
0.875 0.345 2.0921
0.855 0.765 -2.01232
0.828538 0.765 1.985
-0.864148 0.348023 -0.703143
-0.879056 0.34703 0.698713
-0.850973 0.769795 -0.67988
-0.845306 0.77295 0.65256
0.863617 0.34189 -0.705967
0.879245 0.333508 0.693067
0.850979 0.769799 -0.67988
0.845421 0.773062 0.65256
-1.68379 0.15788 -3.20531
-1.68882 0.153046 -2.112
-1.71227 0.139719 -0.70855
-1.73024 0.136436 0.708944
-1.73769 0.141626 2.11357
-1.74053 0.143036 3.21264
-1.74292 0.142132 4.30095
-1.68471 0.365628 -3.18346
-1.68828 0.363247 -2.09771
-1.71356 0.351558 -0.707403
-1.72877 0.349068 0.689351
-1.73209 0.352697 2.08099
-1.73753 0.354119 3.17918
-1.74172 0.35341 4.2697
-1.69372 0.774569 -3.1206
-1.69964 0.771488 -2.03226
-1.70455 0.772287 -0.689221
-1.70231 0.773171 0.649153
-1.69327 0.768905 1.99371
-1.71547 0.771916 3.09608
-1.73176 0.773556 4.19852
-1.70335 1.39909 -3.07706
-1.70641 1.39872 -1.99878
-1.70669 1.40324 -0.67811
-1.70403 1.40708 0.628014
-1.70419 1.4062 1.94983
-1.71205 1.40545 3.03052
-1.72345 1.40551 4.12553
-0.833905 0.158484 -3.21016
-0.835015 0.153521 -2.1191
-0.855084 0.136146 -0.70873
-0.870102 0.132809 0.715968
-0.878571 0.141129 2.12672
-0.883469 0.1421 3.22111
-0.886659 0.140541 4.30526
-0.834687 0.365796 -3.18515
-0.885823 0.353715 3.18628
-0.88787 0.352019 4.27274
-0.843023 0.772026 -3.11246
-0.867438 0.770532 3.09378
-0.881309 0.772043 4.19712
-0.852408 1.39674 -3.06912
-0.855468 1.39631 -1.99
-0.855605 1.4019 -0.673059
-0.853655 1.40656 0.626724
-0.854688 1.40512 1.94431
-0.862286 1.40397 3.02491
-0.872692 1.40386 4.12112
0.854967 0.157117 -3.21079
0.85123 0.151796 -2.11989
0.867103 0.130257 -0.711392
0.876546 0.121958 0.711035
0.870305 0.13144 2.1201
0.848246 0.134464 3.21592
0.834349 0.134121 4.30124
0.851776 0.365022 -3.1855
0.840318 0.346775 3.18125
0.829045 0.346056 4.26893
0.854986 0.771505 -3.1127
0.826425 0.766974 3.09142
0.823624 0.767457 4.19431
0.849611 1.39544 -3.06972
0.847266 1.39509 -1.99057
0.846319 1.40043 -0.673745
0.844636 1.40464 0.625823
0.839734 1.40267 1.94309
0.834281 1.40088 3.02328
0.828267 1.40018 4.11913
1.70254 0.154521 -3.20686
1.70007 0.14874 -2.11398
1.72054 0.129726 -0.713074
1.73672 0.119593 0.701059
1.73226 0.12489 2.10346
1.71237 0.128769 3.20363
1.6963 0.129637 4.29337
1.69809 0.36329 -3.18454
1.68958 0.360796 -2.09883
1.7139 0.34316 -0.711215
1.73202 0.332921 0.682083
1.72693 0.337129 2.07119
1.70473 0.341046 3.17063
1.69039 0.341704 4.26251
1.70113 0.772896 -3.12137
1.69753 0.770409 -2.03275
1.70253 0.769283 -0.690602
1.70439 0.767164 0.64648
1.69243 0.761897 1.98997
1.68537 0.763502 3.09096
1.68085 0.764176 4.19295
1.70057 1.39619 -3.07841
1.69873 1.39587 -2.0001
1.69806 1.39978 -0.679726
1.69592 1.40261 0.625901
1.69032 1.40066 1.94708
1.68542 1.39886 3.02708
1.68071 1.39796 4.12148
-0.79787 0.565 -2.0124
1.99676e-06 0.343548 -2.12645
-0.879666 0.325547 -1.40407
-0.82518 0.56 2.0112
-0.005 0.332109 2.11423
-0.879002 0.354041 1.39964
0 0.76324 -2.01056
-0.853103 0.767514 -1.3461
1.99676e-06 0.765296 1.9853
-0.834433 0.766488 1.31878
0.804116 0.565 -2.01865
0.877434 0.324449 -1.40548
0.825886 0.555 2.01267
0.879272 0.337104 1.39258
0.853108 0.767518 -1.3461
0.834436 0.766488 1.31878
-0.864703 0.354425 -0.00221503
-0.875272 0.558909 -0.691512
-0.000265651 0.286183 -0.704555
-0.876041 0.55999 0.675637
9.45754e-05 0.27519 0.69589
-0.848794 0.772027 -0.01366
2.74807e-06 0.988751 -0.67988
5.75106e-05 1.13043 0.65256
0.863907 0.345223 -0.00645006
0.875278 0.555845 -0.692924
0.875986 0.553285 0.672813
0.84879 0.772021 -0.01366
-0.876841 0.561955 -1.37509
0.87686 0.560422 -1.37579
-0.000131827 0.242209 -1.40478
1.37403e-06 0.800012 -1.3461
9.98378e-07 0.565 -1.95398
-0.87527 0.559449 -0.00793752
0.875278 0.554565 -0.010055
-8.5538e-05 0.290602 -0.00433254
3.01293e-05 1.15703 -0.01366
-0.876297 0.559995 1.35921
0.876409 0.554143 1.35568
-0.00245271 0.288423 1.39611
2.97537e-05 0.782626 1.31878
-0.002499 0.5575 2.01276
-0.83051 0.465 -2.07365
-0.416627 0.347703 -2.1223
-0.877004 0.32473 -1.75454
-0.884134 0.4575 2.08493
-0.445 0.337576 2.11338
-0.851059 0.385463 1.75011
-0.829946 0.665 -2.01587
-0.4275 0.763973 -2.01129
-0.854284 0.76649 -1.67921
-0.827204 0.6625 1.99845
-0.414266 0.765289 1.98529
-0.833542 0.767803 1.65189
0.416631 0.347702 -2.1223
0.830511 0.465 -2.07365
0.875951 0.32412 -1.75524
0.435 0.334049 2.10767
0.875763 0.45 2.0777
0.852629 0.365559 1.74234
0.4275 0.764543 -2.01186
0.829966 0.665 -2.01589
0.854292 0.766497 -1.67921
0.41427 0.765303 1.9853
0.827173 0.66 1.99879
0.833537 0.767794 1.65189
-0.879299 0.329393 -1.05361
-0.864425 0.351224 -0.352679
-0.873177 0.451732 -0.697328
-0.43335 0.314817 -0.703849
-0.879607 0.349957 1.04918
-0.864981 0.357626 0.348249
-0.877499 0.453534 0.687175
-0.451365 0.287342 0.697302
-0.85208 0.768696 -1.01299
-0.86819 0.666886 -0.685696
-0.849881 0.770909 -0.34677
-0.469856 0.968014 -0.67988
-0.83537 0.76522 0.98567
-0.868285 0.670275 0.664098
-0.847708 0.773146 0.31945
-0.507828 1.1221 0.65256
0.878831 0.324864 -1.05573
0.437769 0.30185 -0.705261
0.863761 0.343557 -0.356208
0.872741 0.44722 -0.699445
0.879795 0.33477 1.04283
0.446216 0.291256 0.694478
0.864053 0.346889 0.343308
0.878643 0.442883 0.68294
0.852083 0.768698 -1.01299
0.469846 0.967985 -0.67988
0.86832 0.665418 -0.686402
0.849881 0.770906 -0.34677
0.835386 0.765233 0.98567
0.507913 1.12209 0.65256
0.868538 0.667091 0.662687
0.8477 0.773136 0.31945
-0.876459 0.563477 -1.69374
-0.398934 0.565 -1.99382
-6.49153e-05 0.241601 -1.76561
1.49757e-06 0.454274 -2.13957
-0.878338 0.443751 -1.38958
-0.439899 0.261396 -1.40442
-0.856253 0.559997 1.6852
-0.41384 0.55875 2.01289
-0.00372635 0.302943 1.75517
-0.0037495 0.444804 2.14413
-0.877716 0.457018 1.37943
-0.440727 0.276167 1.39788
6.87017e-07 0.799893 -1.67833
4.99189e-07 0.66412 -1.96428
-0.875542 0.664734 -1.36059
-0.426551 0.791126 -1.3461
1.58752e-05 0.78238 1.65204
-0.0012485 0.661398 2.01251
-0.874844 0.663241 1.339
-0.417202 0.782588 1.31878
0.876449 0.562711 -1.69722
0.402059 0.565 -1.99485
0.878301 0.442436 -1.39064
0.438651 0.280399 -1.40513
0.856349 0.554571 1.68417
0.411694 0.55625 2.01291
0.878989 0.445623 1.37413
0.43841 0.267649 1.39435
0.875552 0.66397 -1.36095
0.426555 0.791126 -1.3461
0.875082 0.660315 1.33723
0.417233 0.782588 1.31878
-0.87348 0.45519 -0.00507627
-0.43621 0.314883 -0.00327379
-0.875951 0.560432 -1.0333
-0.875271 0.559179 -0.349725
-0.000198739 0.258366 -1.05467
-0.000175595 0.288421 -0.354444
-0.87527 0.559719 0.33385
-0.876809 0.559992 1.01742
4.5187e-06 0.292608 0.345779
-0.00117907 0.285268 1.046
-0.868028 0.668736 -0.0107988
-0.516707 1.14918 -0.01366
2.06105e-06 0.800121 -1.01299
1.64387e-05 1.15573 -0.34677
4.382e-05 1.15832 0.31945
4.36321e-05 0.951769 0.98567
0.872833 0.448274 -0.00825255
0.441188 0.299359 -0.0053913
0.875986 0.558134 -1.03436
0.875278 0.555205 -0.351489
0.875278 0.553925 0.331379
0.876889 0.553714 1.01425
0.868234 0.666393 -0.0118575
0.516736 1.14918 -0.01366
-0.877715 0.454375 -1.72414
-0.877603 0.448608 -1.04345
-0.87081 0.664543 -1.02314
-0.875156 0.664867 -1.68648
0.877635 0.453718 -1.72623
0.875151 0.664485 -1.68821
0.8709 0.663396 -1.02367
0.877653 0.445652 -1.04504
-0.428263 0.261461 -1.76008
0.427641 0.281714 -1.76043
0.435163 0.27814 -1.0552
-0.436053 0.261463 -1.05414
-0.427025 0.790909 -1.67877
-0.426018 0.791344 -1.01299
0.426023 0.791344 -1.01299
0.427027 0.790908 -1.67877
-0.407781 0.459637 -2.12752
-0.413217 0.66456 -2.00432
0.414779 0.66456 -2.00528
0.409345 0.459637 -2.12743
-0.873328 0.453461 -0.351202
-0.87349 0.455362 0.341049
-0.867969 0.669412 0.32665
-0.868109 0.667811 -0.348247
0.872787 0.447747 -0.353849
0.868277 0.665905 -0.34913
0.868211 0.666654 0.325415
0.87273 0.447082 0.337344
-0.434781 0.314848 -0.353562
0.439479 0.300604 -0.355326
0.442297 0.298118 0.344544
-0.436896 0.314894 0.347014
-0.537903 1.14784 -0.34677
-0.519307 1.14972 0.31945
0.519364 1.14971 0.31945
0.53792 1.14784 -0.34677
-0.878306 0.455264 1.0333
-0.85333 0.457259 1.71766
-0.855452 0.662871 1.66855
-0.875476 0.664855 1.00155
0.879595 0.44451 1.02854
0.875517 0.661744 0.999959
0.855619 0.660158 1.66803
0.8537 0.447812 1.71326
-0.440104 0.276122 1.04759
0.43904 0.270527 1.04441
0.436705 0.293815 1.74876
-0.442864 0.30941 1.75264
-0.419913 0.94481 0.98567
-0.415734 0.782351 1.65196
0.415751 0.782351 1.65196
0.419986 0.944815 0.98567
-0.42942 0.451152 2.13283
0.423347 0.447402 2.13466
0.412982 0.660699 2.01225
-0.414053 0.661949 2.01224
-0.831666 0.415 -2.08911
-0.624942 0.35427 -2.11573
-0.846712 0.353283 -1.92977
-0.884987 0.40625 2.09317
-0.665 0.333819 2.11944
-0.83427 0.403991 1.92534
-0.825152 0.715 -1.99678
-0.64125 0.748941 -1.99626
-0.854814 0.765917 -1.84577
-0.827815 0.71375 1.99167
-0.6214 0.765286 1.98529
-0.833128 0.768492 1.81845
0.624945 0.354267 -2.11573
0.831667 0.415 -2.0891
0.846623 0.352542 -1.93012
0.655 0.318402 2.12101
0.876454 0.3975 2.08597
0.834971 0.384123 1.91722
0.64125 0.748892 -1.99621
0.825157 0.715 -1.99678
0.854826 0.765928 -1.84577
0.621404 0.765306 1.98531
0.827802 0.7125 1.99184
0.833117 0.768476 1.81845
-0.865449 0.344982 -0.878376
-0.864286 0.349624 -0.527911
-0.868685 0.399866 -0.700236
-0.655052 0.318813 -0.703496
-0.879049 0.348775 0.873946
-0.86512 0.359226 0.523481
-0.878303 0.400269 0.692944
-0.680277 0.287051 0.698008
-0.851529 0.769248 -0.846435
-0.86351 0.720305 -0.682788
-0.850424 0.770349 -0.513325
-0.69765 0.943376 -0.67988
-0.835578 0.764325 0.819115
-0.863529 0.72498 0.658329
-0.847164 0.773705 0.486005
-0.744847 1.08408 0.65256
0.86508 0.33952 -0.880846
0.655049 0.313157 -0.705614
0.863689 0.342724 -0.531088
0.868176 0.394557 -0.702706
0.87922 0.334439 0.867946
0.677666 0.282511 0.693773
0.864126 0.347722 0.518188
0.879472 0.387932 0.688003
0.851531 0.769249 -0.846435
0.697632 0.943331 -0.67988
0.863546 0.719557 -0.683141
[...]
POINT_DATA 3682
SCALARS point_scalars float 1
LOOKUP_TABLE default
-25.6645
-41.4735
-95.7441
-37.6502
-26.8518
-37.7624
-100.091
-37.4221
-30.5404
-27.2149
-44.8677
-41.5266
-30.5834
-25.6432
-44.9529
-41.6803
-0.424041
-59.2866
-30.5626
-32.2568
-41.5171
-41.5171
-48.0899
-0.424041
-103.361
-32.0757
-31.0499
-41.1565
-41.1565
-48.0899
-0.424041
-155.083
-39.0516
-38.7269
-33.9267
-37.68
-41.0099
-97.7055
-97.7055
-80.7594
-50.3694
-33.2254
-37.6193
-37.68
84.6424
-102.145
-31.0298
-29.3527
-42.3804
-34.2348
-34.2348
114.272
-33.5418
-34.2348
176.066
-31.9038
-32.052
-20.0804
-159.096
-50.4062
-55.3646
-34.1988
-37.4363
-31.3958
84.4943
-97.368
-30.7857
-25.9435
-40.5936
-36.3546
-32.4411
130.927
-32.8892
-32.4411
176.078
-31.6824
-30.9609
44.5428
-157.953
-51.6329
-55.7362
-34.0313
-36.761
-30.3885
-1.54958
-61.6448
-30.607
-26.9823
-37.7624
-37.7624
-47.8465
-1.54958
-102.338
-32.0134
-31.4835
-40.5031
-40.5031
-47.8465
-1.54958
-153.896
-38.9032
-38.7102
-33.6671
-37.8106
-41.2073
-102.116
-102.116
-81.2692
-50.3458
-33.0701
-37.3933
-37.3933
-4.72822
-40.5895
-46.0654
-36.0142
-30.7955
-35.1175
23.3824
-35.3874
-29.5442
-38.0457
-15.0508
-44.0389
-35.9736
-34.8499
-34.6187
-38.0282
-28.1755
-34.4046
-34.8436
-33.911
-27.0467
-42.0544
12.8155
-52.9793
-28.5185
-34.3523
-33.7098
-42.2541
-43.3844
-42.3719
-62.7462
-30.1771
184.132
-34.3544
-34.5438
-26.1309
-68.4532
-34.6122
-34.3148
-34.3724
-36.7906
-24.0769
-40.5417
-44.7833
-71.5781
-39.0973
-33.7378
-31.2564
-19.3756
3.45901
-60.1466
-37.7296
-29.0607
-33.4041
-60.1
-42.544
-73.4718
-32.8808
-39.0663
-33.9455
1.91726
-28.9953
-59.443
-28.8793
-37.504
-33.3821
-36.046
-29.2175
-32.5175
-33.7589
-32.2562
-26.8143
-32.4008
-24.3152
-26.629
-37.6198
-46.3084
15.3898
-42.5139
-36.103
-39.7147
-55.1827
-39.9126
-33.7917
-29.3418
-32.5024
-31.1499
-24.3101
-27.5456
-31.8418
-25.8482
21.5354
-37.5698
-46.4942
-42.4265
-55.5106
-36.0376
-39.9055
-72.3615
186.452
-106.453
210.969
-44.7273
-59.4298
-33.202
-28.1074
-32.6162
-22.7921
-34.9964
-35.2939
-61.8528
164.732
-41.0267
-31.9227
-33.6095
-24.4344
-35.1781
-37.1725
-71.0205
187.169
-43.5064
-57.2928
-33.3706
-27.7354
-34.6398
-34.172
-40.0904
-31.4125
-34.9863
-37.1637
-31.7521
-25.6103
-33.5846
-35.7052
-48.2532
-28.4964
-32.9293
-34.3139
-25.0448
-32.0094
-37.3056
-63.5586
-12.0805
-92.7651
-59.5175
-39.8315
-31.998
-26.3155
-33.4292
-35.7652
-33.2474
-33.8822
-37.4643
-63.7875
-75.5924
-34.8559
-32.694
-67.2098
-73.9004
-65.9252
-32.2829
-35.0218
-103.745
-87.7439
-46.6494
-46.8023
-63.4215
-13.5045
-11.6211
-62.9901
200.682
149.177
153.449
201.199
-32.7542
-30.4881
-35.4337
-39.5775
-32.7678
-39.7146
-35.6968
-30.8762
-27.7594
-28.1094
-25.2115
-24.0265
-96.2087
-56.2341
-56.3678
-97.9015
-33.6319
-32.6805
-32.8414
-36.2862
-33.1031
-36.0158
-32.8705
-33.179
-32.7903
-31.7337
-31.3752
-32.9117
-40.6141
-33.0227
-32.9668
-40.6571
-28.4672
-28.1479
-27.7422
-28.1266
-42.8316
-11.2329
-57.3247
-41.3741
-36.9055
-24.2598
-24.8681
-16.5051
-96.5523
-38.2516
-31.9249
-32.3771
-18.379
-44.5437
-57.0058
-36.9726
-39.7896
-27.7249
-25.8214
-29.3909
-96.0009
-31.6971
-38.0703
-32.3432
-35.1315
-29.7527
-31.5879
-32.226
-33.2054
-25.5026
-30.9924
-23.9903
-32.1756
-40.7719
-46.9566
-8.68236
-41.9145
-38.8929
-40.4088
-53.0403
-36.1427
-31.7649
-29.8202
-31.536
-30.3089
-26.6659
-26.5074
-30.1535
-33.6134
-8.57971
-40.7616
-47.1031
-41.9523
-53.1184
-38.8953
-39.8687
-0.778489
-9.52921
-113.681
182.192
-35.2954
-43.0451
-67.1867
148.198
-61.7506
-40.3962
-44.6846
-56.0273
-34.4116
-36.8862
-31.7415
-29.9631
-31.4202
-31.1349
-33.9534
-26.7158
-37.7875
-32.7405
-35.2761
-35.5377
12.8524
-2.01127
-101.278
134.074
-44.7699
-29.3342
-38.6074
-33.0845
-28.9839
-28.8833
-31.5109
-25.6837
-35.5816
-41.3467
-35.9711
-37.3344
5.15553
-21.0977
-112.364
181.904
-53.8784
-39.2267
-43.7302
-53.0832
-34.5707
-36.6527
-31.9774
-29.6794
-36.2365
-31.7593
-34.8432
-33.8206
-44.054
-28.4942
-37.7608
-32.433
-35.5439
-41.3206
-35.8531
-37.3114
-28.7666
-27.6092
-30.7409
-25.6712
-33.3402
-35.653
-33.5722
-35.5389
-34.5959
-34.7318
-42.0057
-30.8993
-33.072
-35.0883
-32.9258
-34.3464
-26.2209
-25.2666
-24.7389
-30.6037
-44.3076
-40.4956
-39.319
-53.0205
11.7295
19.8135
-7.61186
-81.5041
-53.2701
-53.6009
-57.9331
-43.9988
-28.9549
-28.0288
-30.9875
-26.4107
-33.2722
-35.5927
-33.5275
-35.6261
-32.8031
-34.9677
-32.911
-33.9362
-44.4069
-40.6866
-39.4203
-52.8789
-53.8457
-44.0761
-42.1884
-36.6901
-52.4903
-42.9903
-41.2402
-36.1919
-74.3321
-61.5003
-59.7113
-53.4257
-43.0842
-30.8627
-30.5454
-20.4865
183.946
181.4
180.998
193.278
-33.0387
-34.995
-33.4764
-35.7761
-33.2074
-35.1559
-33.7066
-35.9575
-25.8555
-27.0753
-25.4267
-26.2987
-67.3931
-77.3614
-62.9413
-67.687
-35.1673
-34.8054
-34.8401
-34.0252
-35.0313
-34.4412
-34.5751
-33.6134
-36.3975
-34.7883
-34.2129
-33.1658
-35.6476
-37.0054
-37.0259
-37.5217
-25.6959
-24.719
-24.2016
-25.3092
-106.202
188.587
-64.9031
150.399
-77.5035
-93.9398
-28.8289
-30.2368
-34.005
-30.6811
-32.1929
-31.8074
-113.553
150.568
-110.796
104.752
-63.6593
-63.9516
-32.4459
-30.1722
-30.702
-28.4233
-32.1122
-33.0742
-86.3292
147.472
-105.301
188.74
-75.3176
-84.2967
-37.4775
-30.1531
-29.8046
-29.8822
-33.157
-30.9421
-107.758
100.618
-111.446
150.563
-62.6473
-63.4351
-30.6101
-28.1158
-32.5307
-29.9148
-32.1047
-33.0025
-35.0854
-41.8855
-31.4277
-27.462
-33.5502
-32.792
-40.7622
-29.9481
-33.4885
-33.2891
-29.5264
-23.7768
-30.147
-33.5421
-22.9692
-31.7457
-31.8071
-16.1909
-34.2157
-39.5729
-42.4609
-71.6549
-8.57271
-42.6066
-39.2276
-42.0623
-35.586
-36.4729
-37.169
-48.3083
-57.4289
-45.5183
-35.8601
-44.9983
-40.9387
-30.5672
-31.3421
-27.8672
-33.6958
-32.7495
-33.1422
-31.8454
-24.6783
-30.6605
-29.947
-25.2786
-30.3574
-32.8669
-31.3134
-14.6863
-5.66583
-43.2903
-34.0137
-39.612
-42.6197
-71.8569
-38.9958
-42.0927
-57.7138
-45.6496
-35.6558
-36.253
-37.432
-48.6054
-74.7244
-69.5641
181.527
181.553
-104.921
-92.976
205.593
205.887
-56.1927
-37.9051
-73.7377
-51.2141
-33.0098
-33.1279
-28.2571
-28.0643
-32.9349
-32.8361
-26.1511
-25.3575
-33.7372
-36.0533
-33.8391
-38.7465
-62.441
-61.8957
187.056
160.013
-34.9267
-50.5023
-44.8524
-21.6796
-33.5033
-33.503
-25.4268
-25.7644
-34.3739
-35.5041
-38.2338
-35.3365
-73.0985
-68.1859
182.956
182.102
-54.1963
-37.5683
-67.9784
-50.9369
-33.2319
-33.3026
-27.9385
-27.6893
-33.2838
-35.9929
-32.8126
-37.2993
-49.365
-34.307
-20.6493
-44.6737
-35.2645
-34.2832
-35.3041
-38.2512
-32.3045
-31.0559
-26.4737
-24.8503
-34.2312
-32.9067
-34.0668
-37.4436
-48.1605
-48.0401
-28.2098
-28.5825
-31.6572
-34.1724
-33.8795
-34.9143
-25.247
-24.5482
-32.3052
-31.9169
-36.0749
-38.6377
-73.1462
-58.4395
-12.6098
-11.3157
-92.6986
-95.1662
-58.8638
-59.0403
-40.0501
-40.0881
-32.4578
-31.4129
-27.261
-25.7364
-32.6213
-34.2112
-34.0497
-37.5021
-34.4105
-31.8941
-33.4246
-34.5299
-38.7986
-36.2958
-58.5475
-73.7637
-75.0504
-56.9642
-55.1246
-119.4
-33.9485
-33.4644
-37.2725
-37.9082
-35.854
-33.1685
-35.8133
-33.5836
-104.107
-115.648
-52.3794
-47.8217
-75.6422
-118.013
-53.5317
-54.0675
-103.06
-46.8503
-51.1021
-114.431
-35.743
-33.4435
-35.2581
-32.4633
-34.2549
-38.0341
-36.8493
-33.497
-66.6624
-67.6059
-75.2906
-73.4436
-79.8392
-63.6783
-71.6321
-83.3606
-38.8891
-41.854
-53.6028
-47.5036
-39.2083
-46.0301
-53.2375
-41.2041
-119.667
-45.299
-44.0117
-107.959
-10.4743
-8.20144
-20.7989
-23.5032
-8.75001
-22.4501
-20.1166
-5.91461
-117.148
-103.208
-43.7507
-44.9124
172.251
174.86
180.29
156.218
82.0878
122.394
185.236
183.324
77.9929
178.921
181.209
111.381
171.168
152.769
188.237
175.083
-31.7018
-31.2919
-33.4664
-33.9999
-28.8872
-31.4847
-32.2112
-30.1167
-37.4604
-37.97
-34.7316
-34.4813
-42.7161
-37.2704
-36.9209
-41.0972
-31.5471
-33.9536
-33.6091
-31.3861
-42.791
-41.2584
-37.041
-37.2673
-37.0437
-34.4661
-34.9528
-38.17
-29.2982
-30.2968
-32.4365
-31.5498
-29.1675
-30.6323
-26.7783
-26.4386
-29.3184
-27.0156
-27.1905
-30.9727
-23.8138
-24.9461
-25.6777
-25.8855
-21.7378
-24.8687
-25.1523
-23.959
-73.5626
-59.208
-76.433
-76.3891
-49.4202
-57.8688
-61.9709
-49.65
-49.3983
-49.9122
-62.1234
-58.2054
-74.6318
-79.5503
-77.2496
-59.3463
-33.8047
-33.6227
-33.829
-33.781
-25.6181
-30.7556
-35.5822
-36.3383
-31.9866
-34.12
-34.7747
-32.2633
-40.0284
-35.2196
-34.4317
-37.6356
-32.992
-33.2762
-33.4405
-33.3637
-39.921
-37.4543
-34.1013
-34.9409
-32.0118
-32.4031
-34.6943
-34.0166
-28.5905
-36.4154
-35.4841
-31.0616
-30.075
-31.0705
-33.4549
-33.8791
-27.2898
-32.3831
-32.9819
-31.0752
-35.2019
-34.6576
-36.7023
-38.3034
-33.5061
-40.3303
-37.3189
-33.8756
-50.9873
-39.1387
-37.7662
-44.2944
-31.5177
-31.168
-35.6556
-35.1857
-31.4037
-35.1407
-35.6645
-31.1321
-51.0694
-44.3607
-37.816
-39.139
-32.3533
-28.3118
-26.1331
-30.0186
-32.0086
-29.7196
-25.8103
-27.8357
-30.7605
-26.3128
-25.2798
-29.7584
-31.041
-30.054
-25.6561
-26.5701
-11.4218
25.4316
-115.101
-41.3338
-42.0674
-18.6013
-67.3209
-18.0804
-150.615
-37.9603
-34.8507
-33.0373
24.2827
-12.545
-116.186
-41.8796
-38.6969
-20.5335
-23.7822
-70.2189
-150.402
-34.6122
-37.7534
-32.9088
-31.4487
-30.068
-31.0066
-30.9792
-33.6945
-22.9916
-29.1333
-21.8533
-43.0805
-42.5185
-46.455
-45.5317
-41.869
-40.4318
-41.4733
-43.5613
-31.2443
-30.6746
-30.1168
-30.9453
-30.7276
-26.5416
-24.4516
-27.5185
-43.1599
-46.0864
-42.5413
-46.5778
-41.9059
-43.6064
-40.5508
-41.0095
1.88618
-5.06175
-148.456
152.287
-40.4501
-45.2197
-97.2921
69.1654
-51.3314
-42.5213
-45.4366
-51.2827
-35.0135
-36.3191
-32.0585
-31.0309
-31.0985
-30.5647
-32.5442
-28.9232
-37.9884
-33.625
-35.3231
-35.1599
44.5889
4.30198
-179.678
120.364
-39.7
-32.0231
-37.1381
-33.4721
-29.3593
-29.3099
-30.8254
-27.0151
-36.7716
-39.6486
-36.7036
-37.9283
-9.35358
-19.0437
-143.695
155.498
-46.5944
-41.4806
-43.7682
-48.8993
-35.0083
-36.2289
-32.042
-30.7181
-36.1879
-32.6727
-34.4804
-31.6293
-38.9556
-31.2302
-36.3249
-32.7862
-36.7461
-39.6419
-36.6014
-37.9206
-28.5031
-27.9488
-29.8439
-26.0551
-33.8915
-35.0096
-33.844
-35.122
-34.7594
-34.8576
-37.3548
-32.7049
-33.4966
-34.5097
-33.2791
-34.5909
-26.6051
-25.9882
-23.9549
-30.4982
-43.2061
-41.186
-40.6593
-46.4051
11.3211
16.1435
0.0414431
10.5165
-52.7698
-52.969
-56.7096
-48.0901
-28.7333
-28.3013
-29.8998
-26.6765
-33.8194
-34.9538
-33.8588
-35.0777
-33.2637
-34.3288
-33.1825
-34.206
-43.2491
-41.3887
-40.7819
-46.5264
-48.0335
-43.9308
-42.2273
-39.4725
-46.7336
-42.7284
-42.0517
-38.7233
-67.2051
-62.0701
-62.5568
-58.3346
-36.0851
-30.4314
-30.2683
-25.0374
183.035
183.303
184.161
191.832
-33.7279
-34.8073
-33.8469
-35.0587
-33.9095
-34.9322
-34.1319
-35.2339
-25.9932
-26.5241
-25.8784
-26.2301
-68.1518
-72.3749
-65.3514
-68.338
-35.478
-34.6199
-34.6819
-34.1719
-35.2704
-34.3268
-34.3871
-33.8388
-35.1177
-34.5151
-34.2683
-33.8127
-36.4531
-36.84
-36.856
-36.7686
-24.6623
-24.3473
-23.9587
-24.4398
-29.8555
-34.8352
-109.115
153.249
-16.1586
-34.0332
-107.387
64.3411
-68.4974
-67.2197
-72.8844
-75.2523
-40.4037
-37.7362
-26.0091
-32.1264
-34.7523
-32.6365
-34.2867
-32.3382
-29.5012
-33.9049
-31.7364
-30.3117
-24.6796
-17.5514
-147.351
131.152
17.6373
7.09548
-184.812
60.3352
-73.5013
-51.1723
-61.8311
-61.6955
-38.0134
-37.3499
-33.0078
-31.5642
-30.1445
-28.674
-29.6043
-28.63
-32.7286
-34.427
-32.507
-33.8789
-22.3839
-41.9376
-125.135
56.7044
-31.9328
-40.6419
-113.629
153.767
-73.0065
-62.4753
-72.6239
-80.503
-34.3019
-32.691
-36.2022
-31.6761
-40.1938
-37.9369
-24.8168
-31.8339
-31.3806
-34.953
-33.5208
-31.0703
12.3826
-4.59267
-181.352
48.7862
-31.2481
-30.2116
-147.034
130.196
-72.7904
-50.4755
-60.9644
-61.3044
-29.9363
-28.5294
-29.4728
-28.3734
-37.7951
-37.106
-32.9797
-31.244
-32.693
-34.403
-32.4703
-33.8237
-37.7773
-37.6391
-35.6867
-37.5488
-29.5375
-29.032
-30.3303
-27.5836
-32.1038
-32.8858
-32.6339
-32.6378
-33.1979
-34.242
-36.5967
-31.5646
-32.4526
-32.2667
-33.1097
-32.9899
-26.4596
-27.3016
-28.1661
-24.1968
-31.7261
-32.6731
-30.1381
-34.0084
-23.3898
-25.7942
-21.7845
-29.7782
-27.4275
-27.2826
-30.0115
-19.2879
-39.1242
-36.5878
-35.8921
-38.8716
-47.1327
-45.2045
-44.2654
-55.3155
10.4539
13.5098
-0.266611
16.6894
-41.9523
-41.3747
-40.8919
-45.4204
-37.4366
-35.5888
-36.1142
-36.4308
-39.594
-40.041
-38.4301
-42.9338
-57.129
-54.1155
-58.1004
-50.45
-38.9563
-38.6593
-38.1903
-43.6833
-32.8993
-34.3359
-36.1395
-31.6997
-29.5958
-29.1747
-30.2469
-27.8956
-32.0911
-32.8606
-32.6478
-32.5928
-31.0295
-31.3502
-32.3312
-31.3446
-24.2371
-25.6741
-24.2254
-27.5113
-27.0702
-27.8205
-28.7742
-25.7051
-31.1266
-32.4772
-29.8386
-33.3524
-26.8801
-26.4291
-29.4314
-18.0542
13.6973
22.0017
4.22282
20.9446
-39.0755
-36.5181
-35.7821
-38.872
-47.2944
-45.4339
-44.4276
-55.4837
-41.9145
-41.3214
-40.7338
-45.3985
-57.3568
-54.4854
-58.4624
-50.682
-37.3501
-35.4981
-36.0092
-36.293
-39.7673
-40.2383
-38.6642
-43.0284
-88.8745
-61.6453
-73.5325
-71.1814
183.433
188.901
184.02
186.076
-88.4485
-85.07
-105.399
-99.8927
195.145
194.27
199.347
199.404
-44.7221
-44.4603
-49.6177
-40.7986
-57.1479
-60.7222
-65.2615
-54.7765
-32.3288
-34.1634
-33.1305
-33.2057
-29.0595
-26.9473
-28.179
-28.0831
-32.6966
-34.3135
-32.5493
-32.6158
-24.5907
-23.7062
-24.421
-24.2666
-35.1417
-34.7951
-34.1841
-36.4657
-35.4911
-35.0472
-34.4802
-36.3044
-76.5327
-51.4361
-61.9801
-61.8153
152.105
176.43
185.378
164.135
-39.987
-41.6211
-37.3313
-44.6666
-32.5417
-31.3519
-37.9417
-26.4926
-32.4843
-34.6678
-33.5788
-33.585
-24.8718
-24.1786
-24.6192
-24.8211
-35.505
-35.0022
-35.0128
-34.9645
-37.1823
-37.1388
-37.5979
-36.3784
-87.4161
-60.2323
-72.0381
-69.9055
183.937
190.413
186.796
184.709
-43.6224
-43.3023
-47.9419
-40.0297
-55.5193
-59.3194
-61.7976
-53.824
-32.5899
-34.1766
-33.3248
-33.3578
-28.7516
-26.5302
-27.8203
-27.7104
-34.6815
-34.4646
-33.7627
-36.2222
-34.0916
-34.2505
-33.4101
-35.1741
-39.0906
-40.676
-43.6413
-36.5639
-31.9671
-30.8978
-25.7662
-37.6184
-35.3194
-34.7765
-34.7588
-34.8788
-37.1574
-37.1492
-36.3574
-37.6011
-31.3013
-32.3
-32.1153
-31.3864
-25.5762
-25.7171
-26.0126
-25.2245
-33.3647
-34.7872
-33.9291
-33.2171
-35.7345
-35.3513
-35.0231
-36.5458
-46.8274
-50.6013
-48.3044
-48.1466
-29.5226
-27.6994
-28.3455
-28.5513
-32.6571
-33.1529
-32.2519
-33.5359
-34.0988
-34.1438
-34.0987
-34.5492
-24.8843
-25.1315
-25.1796
-24.8048
-31.4444
-32.6444
-32.0901
-31.9102
-38.1592
-36.4887
-36.5955
-38.1223
-59.0801
-66.0117
-67.5854
-60.5254
-8.68651
-16.5436
-12.2932
-11.6395
-112.965
-83.8632
-92.3377
-93.9467
-58.5241
-61.0166
-59.3321
-59.4461
-41.5513
-38.6263
-39.8774
-39.8963
-31.5096
-32.5031
-32.3311
-31.6787
-26.2998
-26.3374
-26.6321
-26.0001
-33.2835
-34.496
-32.9913
-33.8429
-35.8824
-35.3105
-35.1442
-36.6151
-32.8021
-33.5328
-33.7676
-32.5269
-33.6382
-33.7816
-33.6294
-34.1556
-38.3161
-36.6581
-38.2418
-36.7947
-59.2169
-66.3089
-60.6678
-67.9632
-90.0957
-76.8138
-75.3367
-64.7079
-34.9315
-34.5463
-36.0337
-34.5164
-32.5565
-33.095
-33.3609
-32.5943
-83.1181
-65.5339
-68.3843
-57.9294
-88.7927
-75.0021
-73.5936
-62.6114
-81.6622
-64.373
-67.0555
-56.7363
-32.1068
-32.7996
-32.8308
-32.2562
-35.3391
-34.7631
-36.0304
-34.5916
-92.8235
-100.939
-105.664
-84.7943
-86.9557
-85.5483
-89.8402
-76.3687
-45.8081
-45.6812
-48.5617
-47.5706
-44.8495
-46.885
-48.5734
-47.6552
-79.7587
-64.1897
-63.0161
-52.9077
-14.5522
-9.99309
-17.5377
-12.9843
-12.8116
-7.50471
-16.127
-11.232
-78.4661
-63.7312
-62.4002
-52.7422
199.501
192.56
189.057
204.995
129.245
129.287
165.776
156.626
130.004
144.877
157.859
168.223
190.329
199.617
205.363
190.266
-32.2343
-32.8334
-32.51
-33.298
-30.0934
-30.2253
-30.7248
-30.9599
-35.1666
-36.1427
-34.8052
-35.7165
-39.7883
-40.9815
-38.5237
-39.0935
-32.2454
-32.808
-32.5904
-33.3067
-39.8665
-41.1198
-38.6084
-39.2968
-35.5265
-36.4131
-35.0538
-35.9548
-30.5939
-30.6098
-31.08
-31.258
-27.5557
-28.6901
-27.0467
-27.9964
-29.4416
-28.0567
-28.5031
-27.8122
-24.9334
-25.1453
-25.275
-25.4598
-23.831
-23.5448
-24.4628
-24.281
-90.7322
-106.783
-81.6004
-94.6464
-52.9479
-56.3229
-57.0103
-57.9418
-56.5144
-53.026
-58.1181
-57.1192
-109.322
-91.6267
-97.0537
-82.6064
-33.5792
-33.5095
-33.5756
-33.7535
-30.8686
-32.4871
-32.8456
-34.2717
-32.4939
-32.4457
-32.9602
-33.5132
-37.5828
-36.2142
-35.9969
-35.4056
-33.1169
-32.8945
-33.1029
-33.2571
-37.3083
-35.9449
-35.7401
-35.0749
-32.5637
-32.491
-33.0197
-33.4817
-31.4992
-33.0936
-33.2124
-34.6461
-32.9928
-32.2406
-33.2924
-32.5331
-31.639
-31.2141
-32.2374
-31.8609
-31.0193
-30.8123
-32.187
-34.4894
-32.8231
-32.5356
-32.9537
-35.5346
-41.0714
-42.7541
-39.4437
-40.3292
-31.851
-32.7984
-33.302
-34.1916
-31.7825
-32.7236
-33.2771
-34.1491
-41.1077
-42.8339
-39.4673
-40.3714
-29.4588
-29.3635
-28.131
-27.2054
-28.88
-29.3139
-26.6084
-27.805
-27.8899
-28.8836
-26.5503
-27.7146
-29.1959
-28.2497
-28.0954
-26.9229
-103.69
139.668
-110.28
80.3268
-62.3605
-70.3634
-20.7601
-36.3369
-35.8121
-35.1687
-24.9388
-29.4899
-155.678
78.395
-159.432
26.5003
-102.233
-103.479
-32.8906
-33.1969
-31.3216
-31.6851
-31.7975
-32.7083
-122.301
75.2047
-105.112
138.85
-63.121
-67.4671
-35.4991
-35.3397
-22.09
-36.2934
-28.1645
-32.0167
-159.458
23.2789
-154.22
73.5793
-101.593
-103.166
-31.1621
-31.4174
-32.8268
-32.8873
-31.7708
-32.5994
-34.1909
-38.4468
-30.7949
-28.8442
-31.9636
-31.5497
-34.5957
-30.4506
-33.7563
-32.1971
-27.5255
-21.6426
-27.8153
-34.9031
-19.3999
-31.1001
-36.705
-15.9037
-39.1412
-42.0444
-44.7213
-63.5385
-6.10644
-28.4898
-41.0588
-43.8041
-38.6745
-39.2354
-38.9409
-42.9115
-50.1371
-52.2335
-34.6342
-39.5612
-33.9512
-30.3427
-30.6278
-28.9443
-31.9516
-31.4466
-31.7005
-28.7972
-21.6064
-30.2415
-28.1805
-24.0652
-27.6352
-33.9108
-36.7776
-14.926
-4.46791
-29.5568
-39.0442
-42.0883
-44.8236
-63.8048
-41.0361
-43.9138
-50.6498
-52.3048
-38.0601
-39.1137
-38.3792
-42.9494
-123.849
146.817
-153.953
149.204
-120.629
-114.538
178.7
185.193
-101.871
70.9919
-114.228
65.7966
-67.4385
-74.0544
148.473
146.094
-57.2816
-74.3435
-39.0089
-44.5738
-49.7923
-40.8347
-65.1525
-49.597
-31.1736
-31.0943
-32.7509
-31.26
-31.3205
-32.0193
-29.9879
-30.005
-32.9431
-30.2136
-33.3895
-29.7593
-34.4708
-33.8677
-27.1648
-26.8553
-37.0577
-40.9944
-33.4356
-33.1856
-34.2859
-37.4914
-34.5436
-36.892
-146.483
77.4795
-168.1
60.2796
-104.96
-102.563
130.836
108.4
-46.2064
-44.5605
-31.7828
-25.0341
-35.5213
-42.5421
-38.6698
-28.0255
-30.1322
-27.3596
-30.0611
-27.1692
-31.4234
-31.408
-26.0056
-26.1424
-34.5903
-35.7951
-39.297
-41.8992
-34.8388
-36.7279
-38.266
-36.2586
-122.059
150.995
-148.205
149.076
-118.926
-113.273
182.187
180.043
-53.2129
-58.5983
-38.4435
-43.8239
-47.9894
-40.3762
-57.5591
-49.8342
-30.9492
-30.9349
-32.7636
-30.9705
-32.2336
-31.6306
-29.7062
-29.7119
-36.3123
-37.8982
-32.7206
-31.9175
-33.9604
-36.6572
-32.9223
-35.861
-45.3554
-44.0901
-31.0271
-24.0366
-41.6231
-34.7443
-27.1815
-38.1844
-34.4886
-35.767
-39.1563
-41.9043
-36.5714
-34.7454
-36.2244
-38.2538
-30.2235
-26.7312
-28.978
-25.2514
-30.92
-30.4574
-26.0245
-25.2833
-33.1528
-33.7052
-34.5366
-36.6565
-33.5518
-33.5447
-34.5898
-36.3373
-37.4764
-32.4056
-37.1878
-32.6373
-41.9551
-41.9889
-30.7851
-30.9517
-31.8634
-33.9885
-34.8555
-35.5059
-32.2021
-33.7251
-33.9898
-34.7388
-23.0921
-30.2225
-25.0653
-27.9653
-24.979
-24.4605
-30.8068
-30.6908
-42.7251
-49.945
-39.1883
-44.0719
-38.5101
-40.4795
-55.1729
-51.1806
-1.09752
11.9011
3.60609
19.906
-8.01885
-6.69519
-79.7926
-81.958
-56.8261
-48.6785
-57.2261
-48.726
-57.8516
-58.0592
-44.0945
-44.1722
-30.244
-27.1926
-29.1822
-26.1718
-30.908
-30.8453
-26.6564
-26.1076
-33.1075
-33.65
-34.4519
-36.6144
-33.4651
-33.542
-34.6354
-36.3344
-31.6469
-33.5609
-34.7827
-35.2429
-33.6853
-32.2284
-33.5691
-34.4112
-42.8463
-50.078
-39.3809
-44.189
-40.434
-38.7045
-51.4573
-55.4211
-53.8724
-53.2288
-48.7786
-40.1247
-38.4319
-46.4767
-36.9772
-36.3184
-52.2449
-51.8996
-47.3882
-39.3785
-45.3471
-37.6938
-35.7913
-36.5121
-75.4362
-72.7779
-67.5708
-56.9088
-61.9155
-57.8485
-53.6673
-53.3992
-43.4162
-43.2663
-36.9529
-25.4727
-25.0187