# vtk DataFile Version 2.0
tri_press
ASCII
DATASET UNSTRUCTURED_GRID
POINTS 3682 float
-0.738313 0.175 -2.035
-0.715 0.185 2.0447
-0.765 0.945 -1.86698
-0.733321 1.075 2.015
0.739992 0.175 -2.035
0.715 0.185 2.0439
0.765 0.945 -1.86657
0.734164 1.075 2.015
-0.805034 0.103841 -0.6751
-0.80057 0.103867 0.6848
-0.804088 1.03798 -0.572987
-0.783825 1.07161 0.721007
0.806152 0.103842 -0.675367
0.801131 0.103867 0.684267
0.804165 1.03778 -0.572713
0.784069 1.07129 0.721144
-1.52736 -0.298285 -3.14316
-1.53391 -0.290521 -2.0817
-1.57824 -0.343157 -0.720105
-1.57797 -0.35645 0.654789
-1.52535 -0.302543 2.01751
-1.50873 -0.265836 3.08444
-1.5115 -0.240946 4.14122
-1.52682 0.135064 -3.08273
-1.53233 0.160792 -2.0285
-1.58631 0.119428 -0.679692
-1.57488 0.109453 0.675083
-1.50059 0.161361 2.02515
-1.49087 0.196812 3.09116
-1.50118 0.221128 4.15009
-1.53831 0.96341 -2.94346
-1.54884 0.987975 -1.88658
-1.58708 1.04053 -0.582714
-1.56558 1.06069 0.716536
-1.50668 1.07519 2.0217
-1.49352 1.10883 3.09056
-1.50044 1.13769 4.1602
-1.55554 2.28128 -2.78393
-1.56278 2.31886 -1.73685
-1.57457 2.38965 -0.454394
-1.57115 2.4444 0.813911
-1.55212 2.47264 2.09712
-1.53744 2.4928 3.14577
-1.52953 2.51542 4.20823
-0.750952 -0.290678 -3.14738
-0.745663 -0.280439 -2.08792
-0.788637 -0.350555 -0.719333
-0.801503 -0.360947 0.662986
-0.76314 -0.290011 2.03189
-0.748225 -0.256403 3.09416
-0.749464 -0.235517 4.1468
-0.75119 0.137678 -3.08399
-0.729441 0.206852 3.0992
-0.739832 0.226579 4.15428
-0.761252 0.947379 -2.93524
-0.732025 1.11208 3.08918
-0.738403 1.1408 4.15983
-0.774089 2.2701 -2.77582
-0.778035 2.30812 -1.72793
-0.789331 2.38762 -0.449019
-0.792852 2.44797 0.813264
-0.782473 2.47517 2.0925
-0.7703 2.49437 3.14114
-0.762318 2.51682 4.20484
0.775114 -0.290713 -3.14736
0.776635 -0.280458 -2.08796
0.803177 -0.350573 -0.719568
0.780904 -0.360965 0.662531
0.72631 -0.290024 2.03128
0.745299 -0.256427 3.09369
0.761516 -0.235557 4.14645
0.766108 0.137649 -3.08391
0.748904 0.206833 3.09873
0.765389 0.22654 4.15395
0.770911 0.947342 -2.93502
0.756149 1.11205 3.08898
0.769566 1.14076 4.1596
0.783479 2.27001 -2.77567
0.786652 2.30801 -1.72777
0.783692 2.38747 -0.448905
0.768764 2.44781 0.8133
0.757036 2.47505 2.09246
0.760349 2.49428 3.14105
0.767908 2.51674 4.20471
1.54559 -0.298378 -3.14311
1.54961 -0.290605 -2.08176
1.58498 -0.343256 -0.720439
1.568 -0.35654 0.654101
1.50861 -0.302598 2.01658
1.50832 -0.265902 3.08363
1.52283 -0.241035 4.14057
1.53573 0.134975 -3.08259
1.53112 0.160702 -2.02842
1.5857 0.119295 -0.679923
1.57704 0.109328 0.674464
1.50519 0.161319 2.02425
1.50711 0.196752 3.0904
1.52405 0.22104 4.14947
1.54155 0.9633 -2.94312
1.5437 0.987841 -1.88616
1.58396 1.04023 -0.582492
1.568 1.06034 0.716467
1.51422 1.07508 2.0214
1.51461 1.10874 3.09013
1.52867 1.13759 4.15974
1.56137 2.2811 -2.78367
1.56646 2.31864 -1.73658
1.5676 2.38936 -0.454214
1.55175 2.4441 0.813946
1.53307 2.4724 2.09701
1.53062 2.49261 3.14557
1.53576 2.51525 4.20796
-0.807209 0.56 -2.00654
0.000839502 0.177835 -2.03216
-0.783891 0.127203 -1.35505
-0.745796 0.63 2.05149
0 0.177219 2.05208
-0.770149 0.13207 1.36475
0 0.978804 -1.90058
-0.817796 1.02474 -1.21998
0.000421494 1.12864 2.06864
-0.773898 1.08863 1.368
0.808131 0.56 -2.00642
0.788211 0.124282 -1.35518
0.746424 0.63 2.05129
0.772063 0.130436 1.36408
0.818197 1.025 -1.21964
0.774621 1.08865 1.36807
-0.782606 0.12405 0.00484991
-0.866621 0.570911 -0.624043
0.000558962 0.101013 -0.675234
-0.872387 0.587739 0.702903
0.000280187 0.10104 0.684533
-0.791995 1.05283 0.0740101
3.83894e-05 1.39972 -0.57285
0.00012218 1.62791 0.721075
0.783393 0.124103 0.00444996
0.866713 0.57081 -0.62404
0.872353 0.58758 0.702705
0.79211 1.05253 0.0742151
-0.882279 0.565455 -1.28752
0.881185 0.565405 -1.28741
0.000699232 0.110217 -1.35512
1.91947e-05 1.08828 -1.21981
0.000419751 0.56 -2.19004
-0.863521 0.579325 0.03943
0.863595 0.579195 0.0393325
0.000419574 0.101099 0.00464994
8.02848e-05 1.60716 0.0741126
-0.8778 0.60887 1.36638
0.877684 0.60879 1.36608
0.000140093 0.112027 1.36442
0.000271837 1.6101 1.36804
0.000210747 0.63 2.15767
-0.787757 0.3675 -2.03577
-0.368737 0.177951 -2.03205
-0.781243 0.13096 -1.69503
-0.756258 0.4075 2.07395
-0.3575 0.18049 2.04901
-0.763169 0.13794 1.70472
-0.782899 0.7525 -1.93356
-0.3825 0.959192 -1.88107
-0.809359 1.00283 -1.54348
-0.741089 0.8525 2.03477
-0.36645 1.12001 2.06001
-0.767704 1.09591 1.6915
0.370416 0.178079 -2.03192
0.788702 0.3675 -2.03535
0.782513 0.13123 -1.69509
0.3575 0.179993 2.04911
0.756314 0.4075 2.0732
0.765726 0.135523 1.70399
0.3825 0.959164 -1.88084
0.783455 0.7525 -1.93338
0.809719 1.00312 -1.54311
0.367293 1.12145 2.06145
0.742118 0.8525 2.03497
0.768496 1.09593 1.69154
-0.788825 0.12116 -1.01508
-0.801674 0.106091 -0.335125
-0.835062 0.337759 -0.649572
-0.40222 0.102463 -0.675167
-0.779721 0.123607 1.02478
-0.787752 0.117796 0.344825
-0.832332 0.347877 0.693852
-0.40012 0.102503 0.684667
-0.81331 1.03373 -0.896485
-0.870238 0.821887 -0.598515
-0.796621 1.04399 -0.249488
-0.47682 1.36844 -0.572918
-0.777958 1.07922 1.04451
-0.868543 0.849894 0.711955
-0.788649 1.06296 0.397508
-0.513431 1.59292 0.721041
0.795996 0.115248 -1.01528
0.403332 0.102475 -0.6753
0.802574 0.106172 -0.335458
0.835589 0.337748 -0.649703
0.782463 0.121285 1.02418
0.400682 0.1025 0.6844
0.788492 0.117755 0.344358
0.832602 0.347793 0.693486
0.813806 1.03401 -0.896178
0.476983 1.36851 -0.572782
0.870232 0.82169 -0.598377
0.796747 1.04376 -0.249249
0.778254 1.07888 1.04461
0.51385 1.59311 0.721109
0.868521 0.849592 0.711924
0.788812 1.06263 0.397679
-0.875271 0.562728 -1.64703
-0.403394 0.56 -2.2077
0.000769367 0.12216 -1.69364
0.000629626 0.368918 -2.24021
-0.884409 0.346329 -1.32128
-0.391596 0.109866 -1.35508
-0.874207 0.619435 1.70893
-0.372793 0.63 2.13587
7.00467e-05 0.122308 1.70825
0.000105374 0.40361 2.23051
-0.878489 0.37047 1.36556
-0.385004 0.112261 1.36458
9.59736e-06 1.0492 -1.5602
0.000209875 0.769402 -2.14345
-0.886362 0.795099 -1.25375
-0.408888 1.0763 -1.2199
0.000346666 1.55585 1.71834
0.000316121 0.879321 2.10935
-0.875656 0.84875 1.36719
-0.386813 1.60193 1.36802
0.874726 0.562702 -1.64692
0.404275 0.56 -2.20767
0.885625 0.344843 -1.3213
0.394455 0.110876 -1.35515
0.874936 0.619395 1.70868
0.373317 0.63 2.13576
0.878507 0.369613 1.36508
0.386101 0.111868 1.36425
0.886335 0.795204 -1.25353
0.409108 1.07635 -1.21973
0.874601 0.848721 1.36707
0.387447 1.60428 1.36805
-0.820466 0.352986 0.02214
-0.396098 0.102566 0.00474992
-0.886168 0.568183 -0.95578
-0.861293 0.575118 -0.292307
0.000629097 0.101385 -1.01518
0.000489268 0.101056 -0.335292
-0.867574 0.583532 0.371167
-0.878071 0.598304 1.03464
0.000349881 0.101092 0.344592
0.00021014 0.10143 1.02448
-0.851194 0.827798 0.05672
-0.518736 1.57555 0.0740613
2.87921e-05 1.21809 -0.896331
5.93371e-05 1.55958 -0.249369
0.000101233 1.62578 0.397594
0.000197009 1.62164 1.04456
0.820734 0.353029 0.0218912
0.396922 0.10257 0.00454995
0.885895 0.568107 -0.955726
0.861354 0.575002 -0.292354
0.867617 0.583387 0.371019
0.878078 0.598185 1.03439
0.851173 0.827522 0.0567738
0.519081 1.57582 0.0741638
-0.872697 0.356915 -1.67103
-0.885854 0.341853 -0.985428
-0.88651 0.799772 -0.926133
-0.873563 0.773799 -1.59526
0.870456 0.356172 -1.671
0.873207 0.773852 -1.59501
0.887297 0.799749 -0.925952
0.885865 0.341085 -0.985501
-0.380166 0.121883 -1.69433
0.382435 0.122838 -1.69437
0.398905 0.101383 -1.01523
-0.396917 0.101392 -1.01513
-0.395694 1.03029 -1.55184
-0.405456 1.19596 -0.896408
0.405605 1.19616 -0.896254
0.395804 1.03006 -1.55165
-0.386066 0.368209 -2.20213
-0.392947 0.760951 -2.16162
0.393388 0.760951 -2.16016
0.387345 0.368209 -2.20207
-0.818837 0.349836 -0.313716
-0.821944 0.352659 0.357996
-0.855572 0.836698 0.384338
-0.856552 0.822761 -0.270898
0.819227 0.349855 -0.313906
0.856531 0.82252 -0.270802
0.855513 0.83639 0.384349
0.822079 0.352705 0.357689
-0.399161 0.10251 -0.335208
0.400129 0.102518 -0.335375
0.39879 0.102558 0.344475
-0.398098 0.102557 0.344708
-0.524542 1.52553 -0.249429
-0.519136 1.59034 0.397551
0.51955 1.59063 0.397637
0.524813 1.52573 -0.249309
-0.876485 0.358137 1.02971
-0.877192 0.388985 1.70683
-0.861864 0.850625 1.70022
-0.875901 0.839213 1.03957
0.87864 0.357668 1.02928
0.875892 0.839079 1.0395
0.862651 0.85061 1.70011
0.877218 0.388556 1.70634
-0.392575 0.101418 1.02463
0.393403 0.101444 1.02433
0.371801 0.122023 1.70612
-0.371252 0.122494 1.70649
-0.389332 1.61188 1.04453
-0.376632 1.54301 1.70492
0.37737 1.54302 1.70494
0.389771 1.61646 1.04458
-0.365146 0.405555 2.22575
0.365409 0.405555 2.21945
0.370305 0.865911 2.10781
-0.369621 0.865911 2.14051
-0.771329 0.27125 -2.04368
-0.553525 0.177203 -2.0328
-0.770677 0.142082 -1.86501
-0.747646 0.29625 2.07134
-0.53625 0.184699 2.0449
-0.748004 0.152551 1.87471
-0.777146 0.84875 -1.90346
-0.57375 0.952776 -1.8747
-0.797082 0.983819 -1.70523
-0.745074 0.96375 2.03276
-0.549885 1.10397 2.04397
-0.761116 1.09606 1.85325
0.555204 0.177439 -2.03256
0.772571 0.27125 -2.0434
0.772216 0.142151 -1.86505
0.53625 0.183739 2.04526
0.747723 0.29625 2.07062
0.749082 0.151542 1.87395
0.57375 0.953008 -1.87463
0.777329 0.84875 -1.90308
0.79756 0.984262 -1.70484
0.550728 1.10363 2.04363
0.746005 0.96375 2.03285
0.761855 1.09599 1.85327
-0.805596 0.103834 -0.845088
-0.804447 0.103874 -0.505113
-0.829228 0.21621 -0.662336
-0.603587 0.103231 -0.675134
-0.784416 0.119467 0.854788
-0.801081 0.103911 0.514813
-0.828143 0.220026 0.689326
-0.600309 0.103258 0.684733
-0.810391 1.03755 -0.734736
-0.855835 0.93927 -0.585751
-0.799544 1.04017 -0.411238
-0.686722 1.29575 -0.572953
-0.780982 1.0755 0.882756
-0.840744 0.968032 0.716481
-0.78653 1.06758 0.559258
-0.656757 1.34852 0.721024
0.806784 0.103835 -0.845321
0.604704 0.103235 -0.675334
0.805495 0.103875 -0.505413
0.830015 0.216223 -0.662535
0.784044 0.120328 0.854221
0.600869 0.103259 0.684333
0.801711 0.103911 0.514313
0.828873 0.219827 0.688876
0.810509 1.03742 -0.734445
0.687142 1.29628 -0.572748
0.855921 0.939094 -0.585545
[...]
POINT_DATA 3682
SCALARS point_scalars float 1
LOOKUP_TABLE default
-118.82
-51.9026
-64.9069
-52.3084
-119.516
-46.5866
-64.0282
-50.5459
-48.5435
-43.8055
-69.9411
-53.2623
-48.1707
-42.9081
-69.5359
-52.7163
-58.6442
-105.014
-50.5264
-42.2996
-56.6594
-47.2476
-45.5222
-70.8123
-119.008
-62.039
-43.9674
-61.6455
-45.997
-44.572
11.532
-97.196
-60.6947
-48.1185
-57.2604
-51.7382
-46.9958
-83.649
-59.9593
-108.701
-61.2516
-58.9499
-52.8154
-50.1713
51.4418
-133.158
-49.629
-43.4704
-53.58
-44.9999
-43.0996
55.8192
-43.973
-42.2721
117.926
-47.6011
-45.016
-44.9986
-56.8117
-104.331
-65.154
-61.5623
-51.2442
-48.9292
-21.7911
-134.384
-49.1155
-43.3747
-48.3991
-39.3873
-36.8539
52.8638
-38.0462
-35.0734
118.091
-45.8118
-40.8032
-43.648
-57.0222
-103.923
-66.0955
-61.0294
-50.2209
-48.518
-58.7391
-94.3932
-50.0365
-40.9523
-52.2745
-41.9368
-40.2846
-70.1479
-121.844
-60.2132
-42.9759
-57.3564
-41.3212
-39.7881
12.1706
-98.2796
-60.3916
-47.4907
-54.8088
-48.9406
-45.1253
-82.3068
-59.5037
-107.643
-61.4585
-58.2875
-52.1613
-48.6205
-103.919
-119.962
-60.6347
-47.965
-38.6233
-47.8636
-64.2057
-51.9738
-49.3042
-55.0355
-103.955
-61.3471
-44.2593
-46.2941
-51.4834
-53.9054
-38.906
-51.562
-50.3512
-42.3675
-44.4843
-56.5545
-3.28696
-72.1807
-38.5864
-51.374
-41.5921
-56.1298
-64.9527
-64.7122
-69.0948
-0.473566
204.267
-42.9114
-42.5235
-43.9512
-94.2568
-51.5029
-49.7469
-46.5577
-62.2283
-43.5508
-95.6268
-126.968
-92.505
-47.7799
-44.2565
-55.2598
-72.9005
-53.7876
-61.8317
-48.4719
-49.0802
-56.2283
-127.091
-95.3036
-89.2244
-39.7224
-43.0556
-53.3872
-54.1263
-73.1046
-61.4886
-48.7407
-45.3278
-54.6337
-49.3193
-44.5168
-48.4761
-49.7883
-46.8727
-35.0192
-35.3357
-44.1917
-66.6533
-55.9272
-61.8318
-17.1666
-53.9951
-46.3266
-54.6501
-64.4222
-49.5486
-49.7689
-44.1676
-48.2921
-45.9635
-43.8733
-34.6501
-34.5625
-66.5217
-17.1598
-55.6703
-61.4571
-53.211
-64.4512
-45.6664
-54.1567
-92.51
169.485
-91.5522
186.019
-64.0101
-67.6895
-57.1372
-45.6594
-46.2006
-31.973
-50.0874
-47.2762
-28.2356
90.8914
-64.3939
-10.6453
-54.7533
-42.2582
-52.3897
-61.6505
-91.668
169.514
-64.5185
-67.3375
-54.0069
-42.5588
-48.2955
-46.4763
-63.8418
-10.8812
-50.9143
-60.8976
-39.9419
-43.1772
-55.7096
-46.6263
-57.8687
-46.0457
-41.0414
-48.792
-43.4401
-46.6365
-47.2773
-81.7529
22.1957
-107.634
-79.722
-66.1553
-39.503
-43.0354
-55.5581
-46.3261
-40.4931
-47.7199
-46.9262
-81.4079
-93.9741
-55.2194
-58.1832
-87.6206
-90.969
-87.1642
-58.1425
-55.4023
-91.4354
-90.6249
-56.7414
-56.5787
-36.2594
12.2231
12.7799
-36.4248
153.686
70.6761
65.7999
155.704
-43.9993
-36.8585
-44.2484
-50.5484
-43.7202
-50.204
-43.7256
-36.3108
-45.5423
-45.4457
-42.5461
-42.7509
-106.942
-72.6997
-72.1995
-106.547
-48.4347
-55.0434
-57.0836
-49.9722
-47.5771
-48.9637
-54.2447
-52.0322
-46.8157
-46.5814
-46.7123
-48.6996
-63.9908
-57.1078
-56.756
-64.4652
-40.913
-33.5129
-44.5513
-46.7885
-91.382
-123.994
-89.6467
-49.5788
-47.0785
-53.3215
-51.9306
-54.8854
-75.8935
-50.2216
-48.8874
-56.3752
-124.694
-92.2589
-92.0753
-42.0924
-44.5358
-49.1407
-53.8924
-51.2766
-76.1327
-48.0925
-47.4335
-54.9537
-52.637
-46.3306
-48.5487
-49.1243
-47.7865
-38.5609
-37.7218
-44.3327
-71.4219
-61.3915
-64.8558
-99.5248
-53.0112
-49.9251
-53.9974
-56.9974
-53.6659
-49.0149
-46.1076
-48.3038
-46.8105
-43.8409
-38.0461
-36.8229
-71.61
-99.5401
-61.0452
-64.5115
-52.3725
-56.5041
-49.3392
-53.4969
-102.073
-89.8814
-118.435
162.894
-118.577
-118.516
-93.3818
-1.92499
-71.4799
-55.0494
-62.2605
-64.917
-47.5287
-47.6695
-56.4361
-45.9042
-40.9182
-38.4441
-43.4995
-32.6413
-48.2871
-46.4866
-49.1398
-47.4431
-59.2879
-59.3552
-43.0559
90.8485
-53.9119
-53.5706
-62.1351
-27.0067
-49.3554
-49.2329
-48.9755
-48.8566
-55.7126
-53.9201
-53.1672
-59.177
-100.948
-90.047
-118.146
164.584
-70.4089
-54.3085
-62.7326
-64.8978
-43.0566
-44.0528
-52.6351
-42.8308
-46.5263
-45.2755
-47.2843
-46.3876
-53.5682
-53.3618
-61.6513
-26.66
-54.2062
-53.1047
-52.253
-58.3598
-41.8113
-37.435
-39.0515
-41.927
-49.275
-53.2771
-55.206
-49.0431
-50.1663
-50.1605
-53.6561
-47.9862
-40.1796
-43.7917
-41.2135
-46.8504
-44.4733
-44.3162
-43.8468
-45.3386
-59.1155
-55.4954
-52.4515
-67.951
-5.79612
-5.86124
17.9859
-46.6265
-70.1167
-70.9142
-73.4977
-68.8712
-41.509
-37.083
-38.6839
-41.7127
-49.0929
-53.0687
-55.087
-48.7947
-39.369
-43.0642
-40.5607
-45.9508
-58.7315
-55.0313
-52.0088
-67.5303
-75.4078
-65.0855
-64.9045
-58.9634
-74.9244
-64.9837
-64.3761
-58.8305
-80.1779
-68.5522
-68.3174
-62.1662
-14.8867
-2.33619
-2.55484
11.3226
201.43
202.111
196.622
201.482
-41.1122
-44.4276
-38.988
-43.8447
-40.7201
-44.0847
-38.589
-43.4661
-43.7782
-44.7151
-43.5045
-43.7061
-92.7566
-101.562
-86.6088
-92.5672
-54.0871
-50.8064
-51.907
-49.8624
-51.6034
-49.0288
-50.2408
-48.5376
-46.1565
-46.8865
-46.4594
-46.3937
-60.2683
-62.7201
-61.7264
-63.8814
-44.5586
-36.2393
-42.8244
-42.8301
-123.994
157.122
-94.9486
35.3206
-94.0569
-90.3538
-57.7421
-43.8478
-47.4263
-40.4082
-56.5662
-50.7995
-104.835
48.5466
-45.338
29.506
-79.1979
-48.5968
-57.0408
-46.3592
-49.5627
-48.5478
-56.5537
-59.3941
-94.3883
49.1105
-124.842
154.235
-89.0572
-88.958
-44.3507
-33.846
-53.2728
-38.7114
-54.4995
-48.278
-45.6543
34.1728
-105.333
48.9252
-78.8222
-48.5771
-49.0244
-47.7976
-53.959
-44.1843
-53.8528
-58.7284
-51.5912
-53.9904
-44.3144
-44.9496
-56.7876
-46.7433
-52.9131
-47.3793
-47.8533
-46.5446
-35.1055
-41.4567
-37.2066
-49.225
-43.3999
-45.4627
-60.3521
-15.7303
-57.2752
-52.7519
-55.8622
-81.8144
4.83204
-55.9543
-52.6329
-59.9574
-45.0859
-47.7379
-49.4329
-62.663
-66.4993
-63.7413
-51.8687
-54.2562
-52.9848
-47.3105
-44.0156
-44.7839
-56.5301
-46.5005
-46.9534
-46.3324
-43.1444
-45.0885
-34.6434
-41.1673
-36.5494
-48.1572
-60.2373
-16.0485
5.22766
-56.2508
-57.2423
-52.4524
-55.4971
-81.3053
-51.5946
-59.5556
-66.004
-64.4525
-44.4784
-46.9576
-48.9344
-62.1585
-94.5342
-90.961
166.779
166.961
-91.1437
-90.8291
184.75
186.544
-74.5597
-58.004
-79.148
-60.3797
-55.2875
-57.6922
-43.4782
-45.3252
-46.0452
-47.1498
-35.6772
-30.614
-49.0425
-52.0387
-46.8869
-47.4354
-29.4123
-29.518
81.7875
80.6718
-58.9714
-74.6275
-23.3892
1.23235
-55.3734
-55.3978
-42.005
-43.7732
-55.8822
-51.0905
-62.2123
-62.0321
-92.0156
-91.2865
167.1
166.997
-74.4627
-58.2554
-78.4965
-60.5225
-54.5663
-52.2515
-38.4273
-41.7872
-47.6863
-49.737
-45.7971
-46.1824
-74.2022
-58.6343
1.68394
-23.5224
-50.0396
-53.3321
-61.2211
-61.7243
-41.8231
-38.1259
-44.0789
-42.707
-55.2908
-57.1532
-45.1664
-47.9536
-57.5325
-57.4583
-45.9195
-45.9231
-39.11
-41.6433
-48.6012
-49.1883
-43.206
-43.3115
-46.7524
-46.5708
-44.7081
-48.0954
-96.0011
-77.23
20.5616
20.8798
-107.65
-107.498
-77.7734
-77.4415
-66.0946
-65.8772
-41.5141
-37.8273
-43.958
-42.54
-57.0076
-55.0745
-44.8743
-47.6398
-41.1221
-38.5356
-47.5508
-48.148
-47.6658
-44.2335
-76.8702
-95.4114
-109.148
-72.551
-75.8599
-123.437
-57.8543
-55.8206
-58.7173
-56.437
-62.1526
-59.3512
-59.0833
-55.8414
-99.5745
-109.375
-74.3603
-73.0088
-112.951
-122.937
-75.4067
-72.247
-100.347
-72.2126
-73.6992
-109.86
-62.245
-55.8215
-58.813
-59.0201
-57.3799
-56.698
-58.8374
-55.643
-95.7725
-92.2598
-79.8957
-76.8954
-95.5598
-75.563
-79.5758
-91.9634
-52.6169
-53.4276
-61.7175
-57.9444
-52.4869
-57.3976
-61.6765
-53.3949
-59.9362
-36.1763
-16.8859
-42.35
-68.3747
14.9259
9.95124
-20.6002
-68.6457
-20.5581
9.89097
15.0517
-59.9926
-42.5191
-17.0165
-36.112
89.398
158.342
197.831
56.2863
35.0108
96.7881
193.746
156.482
35.1396
155.668
194.548
96.0522
86.7437
57.6182
198.073
156.357
-46.4576
-41.7606
-42.6211
-47.6993
-36.8638
-39.1285
-37.7909
-37.0593
-49.7089
-49.4345
-40.494
-42.2985
-58.1617
-50.153
-45.5151
-53.5816
-46.1903
-47.4567
-42.285
-41.4329
-57.8214
-53.2158
-45.1639
-49.8871
-49.1567
-41.6396
-40.0694
-49.0108
-36.2132
-36.701
-37.4442
-38.4629
-46.7992
-47.7989
-44.5966
-43.1166
-46.6543
-42.9251
-44.4965
-47.7641
-42.4351
-43.6371
-43.2347
-41.0673
-42.8087
-41.3104
-43.321
-43.7773
-91.9939
-74.3789
-101.481
-39.8279
-59.3162
-71.748
-84.2216
-66.4069
-58.8262
-65.9452
-83.9916
-71.4666
-91.4049
-39.6644
-101.319
-73.9193
-46.4047
-48.2595
-49.5105
-47.7166
-58.2591
-57.0768
-52.9269
-50.2246
-57.2302
-55.7619
-55.4798
-56.3043
-49.4165
-46.8868
-50.3476
-52.6442
-46.8009
-46.8005
-48.1351
-46.8422
-48.9556
-51.8072
-49.1081
-46.022
-54.8403
-52.7904
-52.9536
-53.7207
-53.5979
-47.8605
-50.5223
-52.9098
-45.7321
-45.4075
-46.6531
-46.9682
-44.977
-45.594
-46.1104
-45.2216
-46.491
-43.2866
-45.9934
-46.5881
-50.2128
-48.2177
-46.6852
-44.9797
-56.1143
-59.7653
-63.9179
-67.0922
-52.0512
-49.1385
-61.2799
-59.3493
-51.4369
-58.875
-60.409
-48.8211
-55.6271
-68.3911
-63.2059
-59.3525
-43.9885
-35.742
-39.2391
-44.603
-38.2943
-40.2917
-35.3944
-30.8428
-46.0501
-48.6414
-42.3787
-42.2908
-47.4094
-45.4576
-44.2158
-49.0519
-92.6703
-124.646
-114.475
-51.1697
-48.8732
-53.555
-45.7475
-47.1212
-90.1585
-51.6765
-49.6686
-54.7941
-124.587
-94.0775
-116.121
-43.7528
-45.8905
-48.9848
-46.194
-44.5851
-88.826
-48.5341
-49.134
-53.2508
-50.8719
-47.0572
-48.9987
-48.7483
-49.4854
-41.979
-40.74
-44.9092
-72.4859
-65.6652
-66.8391
-83.4265
-53.0149
-51.8453
-53.7253
-54.8948
-50.2829
-48.5014
-46.7599
-48.6638
-48.7973
-44.4011
-41.319
-39.7772
-72.0988
-82.5363
-65.2978
-66.4714
-52.4303
-54.3376
-51.2767
-53.209
-101.974
-98.6159
-130.29
63.674
-119.282
-119.248
-105.541
-119.082
-65.3998
-57.5894
-61.0883
-63.2045
-47.7679
-47.6421
-53.1279
-45.8646
-39.6967
-38.4503
-41.2958
-36.6501
-48.4866
-46.4979
-48.36
-47.4985
-62.3801
-62.7194
-51.4708
-43.559
-53.2303
-51.3728
-60.6413
-39.9575
-49.3454
-49.2813
-48.706
-49.4516
-55.4259
-53.9416
-54.2124
-56.7191
-101.161
-98.9336
-131.313
59.296
-64.6126
-57.2812
-61.7633
-63.0895
-43.6799
-44.0159
-49.074
-42.65
-46.4775
-45.5247
-46.4094
-46.2844
-52.7883
-50.8562
-60.1434
-39.4326
-54.1083
-53.0458
-53.3366
-55.9525
-40.4869
-37.9877
-38.7197
-40.6517
-49.9593
-52.4185
-52.646
-50.2413
-50.3055
-50.313
-51.9746
-49.1089
-41.5197
-42.9895
-41.571
-44.4314
-44.5081
-44.4296
-44.1075
-44.9146
-57.8371
-55.7289
-54.5827
-61.6771
-3.6485
-3.68223
9.56727
-18.1897
-70.981
-73.186
-73.7316
-70.4295
-40.1812
-37.6481
-38.3576
-40.3915
-49.7674
-52.2233
-52.4878
-50.0216
-40.7173
-42.2437
-40.8551
-43.606
-57.4356
-55.2808
-54.1631
-61.2413
-69.7359
-64.8885
-64.8387
-61.4259
-69.2983
-64.6877
-64.5276
-61.2475
-74.5308
-69.0811
-68.9503
-64.4922
-7.2636
-0.957153
-1.05873
5.16886
202.886
204.721
201.298
202.869
-41.9854
-43.3847
-46.0772
-43.666
-41.5986
-43.0209
-45.6934
-43.2807
-43.9095
-44.276
-43.5952
-43.8742
-93.5902
-97.8646
-90.3806
-93.4877
-52.5181
-51.0797
-51.7146
-50.5735
-50.6018
-49.3138
-49.9879
-49.0737
-46.4021
-46.7244
-46.4894
-46.4639
-61.4316
-62.5194
-61.9897
-62.9038
-44.1369
-41.4144
-42.635
-43.0821
-82.7459
-101.405
-136.967
76.2986
-131.511
-121.815
-109.525
-155.31
-103.741
-80.0967
-95.043
-90.4046
-48.311
-47.6225
-54.4644
-44.5359
-45.7381
-42.5433
-45.8053
-42.4877
-53.7904
-50.433
-57.934
-52.0238
-63.5135
-74.0642
-106.737
4.35697
-54.858
-54.707
-50.2524
-58.3036
-72.9055
-57.079
-71.8569
-54.5904
-49.2414
-47.9203
-54.7072
-46.2598
-48.8633
-49.281
-48.8232
-48.9904
-56.3824
-55.9318
-56.3941
-57.3201
-132.382
-121.891
-109.549
-152.675
-82.9555
-100.29
-139.542
74.2441
-97.6125
-79.5558
-89.4005
-87.583
-40.9182
-38.8972
-42.1341
-37.4119
-43.4452
-42.9821
-49.5362
-40.1461
-51.4215
-48.6645
-56.1772
-49.488
-53.1453
-54.5629
-50.605
-44.5935
-63.3093
-74.0876
-107.355
4.19751
-72.9297
-56.7945
-71.5307
-54.5283
-48.3054
-49.0896
-48.2452
-48.6258
-46.293
-44.5376
-51.599
-43.5532
-54.9658
-54.271
-54.1295
-56.4842
-47.7788
-52.6358
-49.682
-50.9221
-45.4959
-45.8466
-44.6535
-44.6998
-48.4637
-48.5342
-50.8778
-47.5163
-49.5473
-49.9662
-51.4741
-48.4697
-46.4561
-47.0883
-48.0171
-46.2842
-32.3224
-35.9343
-34.3397
-39.7097
-35.0189
-37.9815
-37.6905
-41.3193
-44.0734
-44.3829
-43.754
-44.8114
-73.0322
-58.4196
-63.676
-45.2786
-58.2034
-54.3442
-56.9015
-54.2153
-63.436
-60.4232
-58.9529
-69.3836
-46.2393
-8.48931
-3.96303
-35.9493
-53.7123
-54.5838
-54.504
-55.4753
-48.064
-44.874
-45.658
-46.8516
-54.3349
-54.9766
-52.3154
-58.4607
-59.0859
-67.8204
-64.9066
-65.16
-51.7941
-52.6183
-50.1026
-52.1574
-49.507
-49.9544
-51.4946
-48.4243
-45.2138
-45.4355
-44.3324
-44.475
-48.2597
-48.3475
-50.6109
-47.3129
-45.2891
-46.1777
-46.7452
-45.8715
-43.6668
-44.1457
-43.4674
-44.4612
-31.9594
-35.5648
-33.9036
-39.389
-34.241
-37.1527
-36.9394
-40.2997
-73.4416
-58.5569
-63.2256
-45.6007
-46.4336
-8.39736
-3.78402
-35.8139
-57.9047
-54.1167
-56.6691
-53.9366
-63.072
-60.0436
-58.585
-68.9754
-53.0011
-53.727
-53.6435
-54.7852
-58.7036
-67.5163
-64.8323
-65.9759
-47.4511
-44.1736
-45.0225
-46.1366
-53.8346
-54.4971
-51.8251
-57.9509
-103.752
-83.505
-94.2345
-91.6255
156.854
198.052
170.565
167.3
-92.2179
-86.7557
-91.6389
-91.5057
136.988
205.349
184.938
185.003
-62.9673
-64.677
-68.1677
-60.7694
-66.7783
-68.2997
-73.2124
-63.0761
-57.9516
-55.4761
-55.89
-58.0477
-46.0224
-45.1312
-45.5159
-45.117
-45.5824
-46.0988
-46.0346
-46.5992
-31.0964
-33.7202
-33.2988
-30.4894
-49.4926
-50.6288
-49.4997
-50.8367
-47.4536
-47.0931
-46.9668
-47.3483
-35.4351
-21.9017
-28.3337
-28.4444
104.971
148.439
84.9841
84.6355
-63.7205
-64.7729
-61.0888
-68.9987
-18.9224
-5.26838
-17.7137
-3.60362
-50.5312
-57.8495
-54.9544
-55.0162
-45.2858
-42.865
-41.9518
-43.0592
-52.7467
-52.0826
-53.7924
-51.5143
-60.465
-62.4361
-61.7073
-61.7462
-102.902
-81.9517
-92.1738
-91.1104
157.956
198.287
167.373
170.532
-63.6276
-64.7074
-68.2881
-61.1362
-66.4496
-67.9495
-72.6988
-62.7329
-54.5526
-52.5201
-54.854
-52.882
-42.8972
-42.7284
-42.1399
-42.1999
-47.7352
-48.8358
-47.902
-48.8701
-46.4974
-46.4513
-46.2474
-46.3566
-63.224
-64.1897
-68.4272
-60.7414
-18.7959
-5.60159
-4.03226
-17.8925
-51.2297
-50.6189
-50.4369
-52.3963
-59.8191
-61.4507
-60.8459
-61.2388
-39.4869
-40.466
-40.5236
-40.04
-42.6715
-43.5275
-43.5986
-42.8109
-56.6478
-57.1326
-55.1406
-56.5565
-47.5496
-45.222
-46.0571
-47.1762
-55.4399
-60.5179
-57.747
-57.7071
-46.8691
-45.4133
-46.1068
-46.0861
-41.066
-36.7402
-40.3215
-41.3344
-48.2229
-49.3632
-48.6587
-48.9624
-43.6371
-43.4573
-43.3732
-43.426
-45.8694
-46.6343
-46.6295
-46.5189
-50.0109
-44.9477
-45.8379
-47.43
-73.1339
-90.4367
-88.6442
-79.2703
22.3232
18.2209
21.8776
21.9722
-83.5771
-106.891
-108.118
-108.082
-76.5537
-83.1339
-79.2299
-79.029
-67.4357
-64.958
-66.0476
-65.8865
-39.0785
-40.0614
-40.1278
-39.2895
-42.4955
-43.421
-43.4682
-42.6572
-56.5291
-56.9813
-56.4165
-54.9577
-47.2765
-44.9012
-45.7607
-46.8703
-40.4611
-36.289
-40.8049
-39.7598
-47.2427
-48.1754
-47.5909
-47.901
-49.7499
-44.5625
-47.0854
-45.4261
-72.7274
-90.1767
-78.9441
-88.2117
-109.216
-93.6614
-93.9795
-83.6492
-53.9416
-60.7712
-56.2839
-55.4408
-59.0148
-57.6702
-58.093
-57.4005
-94.7056
-84.1468
-90.2871
-80.6464
-106.064
-89.0737
-91.7247
-82.6861
-94.7137
-83.801
-90.0885
-79.9695
-59.0168
-57.8017
-57.8309
-57.2752
-54.0821
-60.6005
-56.4095
-55.3334
-93.2298
-91.1025
-91.4184
-85.9805
-92.3552
-89.9171
-90.9581
-85.3083
-56.0247
-54.5689
-59.1877
-57.184
-55.8218
-54.4539
-58.8711
-57.063
-42.0148
-42.0877
-31.8077
-30.1118
3.42672
11.0136
6.63861
17.3388
3.42436
11.4775
7.94917
17.9965
-42.2083
-42.1612
-32.0261
-30.2263
155.233
130.375
162.709
176.98
42.6013
67.949
127.04
78.2979
68.2977
43.9445
75.3684
126.175
131.019
155.744
177.081
163.257
-44.0965
-45.7161
-42.7053
-44.43
-35.7389
-37.3782
-35.2513
-38.043
-44.6892
-46.9623
-42.6752
-43.8667
-51.6397
-52.7192
-49.0198
-49.2826
-43.8091
-45.4464
-42.4111
-44.1465
-51.3189
-52.3593
-48.6939
-48.912
-44.1155
-46.4493
-42.1574
-43.3465
-35.2375
-36.7861
-35.1795
-37.4555
-45.2456
-46.3421
-44.79
-45.782
-46.257
-45.1184
-45.7102
-44.6802
-42.8216
-41.9944
-42.9295
-42.5101
-42.2448
-43.0495
-42.6953
-43.0859
-105.549
-90.9947
-100.459
-105.239
-67.6899
-68.7796
-76.0347
-75.064
-68.2503
-67.1674
-74.6331
-75.551
-90.8399
-104.917
-105.122
-100.014
-48.2358
-48.5546
-48.4582
-48.5409
-59.0323
-55.0422
-55.2973
-53.6418
-57.1916
-56.9432
-57.3459
-56.9447
-50.5732
-49.3177
-50.6133
-49.422
-47.4654
-47.6315
-47.5277
-47.5754
-49.5671
-48.4001
-49.5862
-48.4068
-54.327
-54.0402
-54.3388
-53.5979
-55.231
-52.0107
-52.2322
-50.9903
-46.6879
-46.032
-47.0681
-46.753
-46.5268
-45.6595
-46.1069
-46.5366
-46.3755
-47.3823
-46.2791
-46.3186
-48.8512
-49.6873
-47.8554
-47.8845
-62.8033
-64.8248
-62.9607
-65.3902
-51.9092
-58.6668
-56.0515
-60.5924
-51.369
-58.1924
-55.9618
-60.4186
-62.8125
-64.6587
-62.7559
-66.19
-43.1273
-40.1558
-42.39
-37.9581
-32.7165
-36.4944
-31.3803
-35.6269
-45.5243
-45.0654
-43.2952
-43.3761
-46.9768
-48.0933
-45.8838
-44.4124
-121.621
24.0373
-112.954
-56.8026
-96.9667
-96.7031
-55.7034
-45.2689
-48.5179
-44.4995
-56.6667
-51.8186
-100.831
12.7843
-72.3957
-13.6898
-87.555
-65.9084
-56.381
-47.2737
-49.6735
-48.3138
-56.3258
-55.8516
-113.703
-57.6512
-125.423
22.9596
-102.295
-97.1476
-44.233
-38.8727
-50.6077
-40.3616
-52.0652
-47.9582
-72.5911
-14.2395
-100.836
13.0689
-89.3166
-65.9596
-48.9411
-47.4504
-53.5621
-45.2523
-54.6381
-55.7101
-58.9974
-52.4821
-46.9298
-46.5257
-50.1671
-47.5034
-50.6923
-47.9243
-47.6035
-46.1744
-36.8338
-42.8374
-37.541
-39.0178
-43.5123
-45.1353
-66.4965
-84.0042
-62.8669
-59.7321
-61.7091
-73.742
-82.4577
-112.447
-52.0249
-54.1379
-49.7496
-49.9101
-52.0009
-56.5803
-58.1325
-56.1039
-58.5069
-52.4919
-50.6542
-47.7976
-46.6471
-46.3075
-49.9389
-47.2508
-47.8513
-45.247
-43.0859
-44.5473
-36.1962
-42.4119
-36.7711
-37.298
-66.932
-83.9131
-82.77
-112.02
-62.4876
-59.3991
-61.3702
-73.3744
-51.3964
-53.5845
-57.6423
-55.6204
-49.199
-49.2686
-51.4826
-56.0552
-137.069
70.4963
-115.503
45.5123
-120.881
-113.687
160.599
165.415
-102.771
-101.892
-102.828
-99.3534
-92.7592
-92.6296
54.075
50.6137
-71.534
-74.0395
-54.6807
-56.3788
-65.7158
-59.0233
-70.0818
-61.6962
-54.2574
-44.8855
-53.5559
-45.6445
-56.7493
-56.2707
-46.0033
-45.2795
-42.9844
-37.2714
-40.9824
-33.9557
-43.2193
-44.1046
-33.8511
-31.1722
-49.2358
-48.4332
-47.2411
-46.9927
-49.0668
-49.4305
-46.7507
-47.8669
-48.7719
-20.1454
-48.9728
-19.2775
-42.6891
-42.8959
92.0107
88.483
-64.6592
-43.9923
-59.413
-37.2536
-59.1057
-67.4247
-30.0515
-24.9971
-48.7787
-49.4372
-48.5034
-49.3089
-49.0629
-48.8991
-48.5924
-48.857
-55.8314
-56.8041
-53.6384
-56.7168
-54.2688
-52.3648
-59.6248
-58.9849
-137.678
67.1175
-116.221
44.7113
-120.436
-113.573
166.472
160.297
-71.4123
-73.0824
-55.4378
-56.1356
-65.6375
-59.329
-69.6367
-60.5424
-49.5526
-41.0407
-49.6267
-42.3122
-52.6236
-52.7644
-42.8722
-41.8552
-47.0012
-46.8443
-45.929
-45.7436
-47.4348
-47.491
-46.017
-46.5445
-64.2518
-43.7117
-59.1507
-36.5913
-66.9219
-58.6621
-24.3764
-29.7389
-53.9346
-55.9633
-52.8934
-56.0711
-51.7188
-53.206
-58.4336
-59.0092
-41.4989
-42.2049
-36.8459
-39.7909
-40.4541
-38.083
-42.5046
-41.4281
-50.905
-48.999
-54.6597
-51.5568
-54.5311
-55.4593
-48.4628
-49.4993
-51.7489
-48.8709
-51.7602
-48.8622
-53.6089
-53.5927
-47.9312
-47.92
-38.8687
-43.7032
-42.8251
-44.8953
-40.4303
-41.6478
-47.1379
-46.6273
-44.0638
-44.9466
-43.92
-44.7753
-43.7745
-43.8395
-45.3866
-45.2924
-56.6377
-65.5765
-52.8769
-62.2755
-50.5279
-52.8681
-70.5976
-65.9878
7.0673
-18.8478
7.14066
-18.8552
16.9301
16.9509
-44.6229
-44.635
-71.5831
-68.5489
-72.2399
-69.6339
-72.484
-71.7093
-68.0512
-69.3084
-41.1763
-41.9578
-36.4673
-39.504
-40.0928
-37.6847
-42.3033
-41.2009
-50.7367
-48.7879
-54.469
-51.3169
-55.3937
-54.4026
-48.2206
-49.2444
-38.1656
-42.8473
-42.1515
-44.109
-40.9946
-39.7734
-46.2273
-45.7425
-56.2835
-65.1507
-52.4299
-61.7801
-52.6117
-50.0975
-65.5552
-70.175
-75.5977
-74.9958
-69.8315
-61.4508
-61.4238
-69.6837
-58.7627
-59
-75.1233
-73.7648
-69.7158
-61.4892
-68.8312
-61.0663
-58.8387
-58.6891
-80.1287
-79.9642
-74.1433
-63.9947
-73.8513
-63.8125
-62.0545
-62.0499
-15.5336
-15.6096
-9.51792
3.63613
3.40604
-9.68187
11.1153
10.9915
201.478
198.653
201.036