# vtk DataFile Version 2.0
tri_press
ASCII
DATASET UNSTRUCTURED_GRID
POINTS 3682 float
-0.860319 0.435 -2.695
-0.758715 0.485 2.375
-0.8418 0.755 -2.655
-0.852241 1.055 2.365
0.860325 0.435 -2.695
0.758721 0.485 2.375
0.841806 0.755 -2.655
0.852247 1.055 2.365
-0.812095 0.466022 -1.005
-0.786955 0.473962 0.685
-0.852282 0.862002 -0.981667
-0.852287 0.958527 0.691667
0.812099 0.466025 -1.005
0.786965 0.473957 0.685
0.852288 0.862002 -0.981667
0.852292 0.958525 0.691667
-1.70053 0.181812 -4.05086
-1.69318 0.234232 -2.70553
-1.65462 0.257454 -1.0151
-1.61939 0.249409 0.678684
-1.59444 0.255725 2.3694
-1.58824 0.292449 3.71611
-1.58806 0.343191 5.06025
-1.7004 0.368727 -4.03685
-1.69669 0.429444 -2.69334
-1.65553 0.470726 -1.00616
-1.6209 0.488084 0.682531
-1.59405 0.511067 2.37004
-1.58578 0.549069 3.71651
-1.58529 0.597078 5.0612
-1.69307 0.723161 -4.00415
-1.69173 0.780284 -2.65996
-1.68466 0.875001 -0.984135
-1.67277 0.965507 0.69051
-1.65994 1.04706 2.36666
-1.62099 1.08149 3.71382
-1.59953 1.11567 5.0612
-1.67894 1.32044 -3.96765
-1.67779 1.38909 -2.62595
-1.67758 1.50679 -0.955525
-1.67552 1.63845 0.711305
-1.66465 1.74926 2.3819
-1.64517 1.80977 3.72396
-1.62403 1.85303 5.06952
-0.859832 0.185675 -4.05193
-0.859311 0.240529 -2.7071
-0.82763 0.257019 -1.01489
-0.804085 0.237743 0.680791
-0.785281 0.236138 2.37308
-0.775418 0.279028 3.7186
-0.772252 0.335247 5.0617
-0.857875 0.368805 -4.03718
-0.763655 0.537934 3.71857
-0.765579 0.590951 5.06229
-0.849715 0.711929 -4.00209
-0.79075 1.08266 3.71349
-0.772943 1.11552 5.06113
-0.836865 1.30983 -3.96561
-0.835468 1.3776 -2.6237
-0.837161 1.49987 -0.954172
-0.838634 1.63897 0.711143
-0.831286 1.75477 2.38074
-0.813783 1.81527 3.7228
-0.794548 1.85694 5.06868
0.834207 0.185675 -4.05193
0.83346 0.24053 -2.7071
0.806965 0.25702 -1.01489
0.785103 0.237741 0.680791
0.770933 0.236137 2.37308
0.812607 0.279027 3.7186
0.841257 0.335246 5.0617
0.842008 0.368805 -4.03718
0.828466 0.537933 3.71857
0.852852 0.59095 5.06229
0.842543 0.711929 -4.00209
0.860422 1.08266 3.71349
0.867658 1.11552 5.06113
0.848978 1.30983 -3.96561
0.851169 1.3776 -2.6237
0.848901 1.49987 -0.954172
0.843802 1.63897 0.711143
0.844567 1.75477 2.38074
0.852939 1.81527 3.7228
0.863819 1.85694 5.06868
1.67712 0.181812 -4.05086
1.6753 0.234232 -2.70553
1.63998 0.257454 -1.0151
1.60375 0.249405 0.678684
1.58555 0.255722 2.3694
1.61705 0.292447 3.71611
1.64877 0.343189 5.06025
1.68725 0.368727 -4.03685
1.69469 0.429445 -2.69334
1.65439 0.470727 -1.00616
1.61665 0.48808 0.682531
1.59421 0.511064 2.37004
1.63078 0.549067 3.71651
1.66046 0.597076 5.0612
1.69007 0.723161 -4.00415
1.69562 0.780284 -2.65996
1.68787 0.875001 -0.984135
1.67182 0.965504 0.69051
1.66353 1.04706 2.36666
1.67189 1.08149 3.71382
1.68249 1.11567 5.0612
1.69074 1.32044 -3.96764
1.6926 1.38909 -2.62595
1.68912 1.50679 -0.955525
1.68194 1.63844 0.711305
1.67947 1.74926 2.3819
1.68368 1.80977 3.72396
1.69099 1.85303 5.06952
-0.831204 0.595 -2.65514
2.98023e-06 0.434642 -2.69536
-0.869916 0.416802 -1.85
-0.866424 0.77 2.43095
3.01003e-06 0.484584 2.37542
-0.899175 0.353141 1.53
3.01003e-06 0.755505 -2.6555
-0.848965 0.810425 -1.81833
3.01003e-06 1.05552 2.36553
-0.854175 1.00867 1.52833
0.831188 0.595 -2.65512
0.869919 0.416806 -1.85
0.866331 0.77 2.43085
0.899175 0.353147 1.53
0.848958 0.810412 -1.81833
0.854181 1.00867 1.52833
-0.799993 0.469524 -0.16
-0.852579 0.664012 -0.993333
1.82388e-06 0.192137 -1.005
-0.852692 0.716244 0.688334
5.33365e-06 0.254373 0.685
-0.85223 0.910209 -0.145
2.97118e-06 1.1764 -0.981667
2.19327e-06 1.46737 0.691667
0.800003 0.46952 -0.16
0.852584 0.664013 -0.993333
0.852695 0.716241 0.688334
0.852237 0.91021 -0.145
-0.885473 0.629506 -1.83417
0.885473 0.629507 -1.83417
2.40206e-06 0.142375 -1.85
2.99061e-06 0.940539 -1.81833
2.99513e-06 0.595 -2.61734
-0.852554 0.690128 -0.1525
0.852559 0.690127 -0.1525
3.57877e-06 0.221969 -0.16
2.58223e-06 1.43672 -0.145
-0.886737 0.743122 1.52917
0.8867 0.743121 1.52917
4.17184e-06 0.322774 1.53
2.60165e-06 1.09464 1.52833
3.01003e-06 0.77 2.44864
-0.823688 0.515 -2.653
-0.430158 0.434666 -2.69533
-0.864756 0.426263 -2.2725
-0.82076 0.6275 2.41116
-0.379356 0.484539 2.37546
-0.766388 0.481628 1.9525
-0.836819 0.675 -2.65539
-0.420898 0.755521 -2.65552
-0.850021 0.787351 -2.23667
-0.831746 0.9125 2.37039
-0.426119 1.05548 2.36548
-0.852021 1.03065 1.94667
0.430164 0.434618 -2.69538
0.823291 0.515 -2.6526
0.864748 0.426276 -2.2725
0.379362 0.484629 2.37537
0.820876 0.6275 2.41127
0.766312 0.48171 1.9525
0.420905 0.755489 -2.65549
0.836773 0.675 -2.65534
0.849898 0.787222 -2.23667
0.426125 1.05557 2.36557
0.831752 0.9125 2.37039
0.852026 1.03065 1.94667
-0.86315 0.419268 -1.4275
-0.805921 0.467896 -0.5825
-0.842641 0.559865 -0.999167
-0.484467 0.172238 -1.005
-0.90003 0.356586 1.1075
-0.793357 0.47186 0.2625
-0.825038 0.592495 0.686667
-0.460182 0.230752 0.685
-0.852274 0.837864 -1.4
-0.852405 0.762994 -0.9875
-0.852306 0.886156 -0.563333
-0.504631 1.17619 -0.981667
-0.864713 0.995082 1.11
-0.852493 0.837387 0.69
-0.852236 0.934345 0.273333
-0.549934 1.46053 0.691667
0.863157 0.419267 -1.4275
0.484477 0.172227 -1.005
0.805927 0.467896 -0.5825
0.842647 0.559866 -0.999167
0.90003 0.356592 1.1075
0.460125 0.230887 0.685
0.793373 0.471849 0.2625
0.825043 0.592493 0.686667
0.852282 0.837866 -1.4
0.504623 1.17616 -0.981667
0.852411 0.762995 -0.9875
0.852312 0.886156 -0.563333
0.864713 0.995076 1.11
0.549937 1.46053 0.691667
0.852503 0.837388 0.69
0.852242 0.934346 0.273333
-0.857601 0.612253 -2.24466
-0.4156 0.595 -2.61734
2.69115e-06 0.138273 -2.27268
2.98768e-06 0.514821 -2.64102
-0.88686 0.523154 -1.84208
-0.434957 0.14108 -1.85
-0.876237 0.756561 1.98006
-0.433211 0.77 2.44864
3.59094e-06 0.434281 1.95271
3.01003e-06 0.627292 2.37222
-0.896643 0.548131 1.52958
-0.449585 0.372077 1.53
3.00032e-06 0.897994 -2.23692
3.00258e-06 0.675253 -2.6207
-0.863903 0.719965 -1.82625
-0.424481 0.896826 -1.81833
2.80584e-06 1.07804 1.94693
3.01003e-06 0.912762 2.37043
-0.873746 0.875898 1.52875
-0.427086 1.09464 1.52833
0.857601 0.612253 -2.24464
0.415596 0.595 -2.61734
0.886859 0.523156 -1.84208
0.434961 0.141062 -1.85
0.876243 0.75656 1.98001
0.433167 0.77 2.44864
0.896643 0.548134 1.52958
0.44959 0.372164 1.53
0.863904 0.719959 -1.82625
0.42448 0.896838 -1.81833
0.873719 0.875897 1.52875
0.427092 1.09464 1.52833
-0.833641 0.576142 -0.15625
-0.426496 0.292744 -0.16
-0.856486 0.646759 -1.41375
-0.852572 0.67707 -0.572917
2.11297e-06 0.193062 -1.4275
2.70133e-06 0.206509 -0.5825
-0.852617 0.703186 0.267917
-0.895298 0.729683 1.10875
4.45621e-06 0.246165 0.2625
4.75275e-06 0.205423 1.1075
-0.852755 0.80035 -0.14875
-0.54889 1.41902 -0.145
2.98089e-06 0.957251 -1.4
2.7767e-06 1.41264 -0.563333
2.38775e-06 1.45779 0.273333
2.39746e-06 1.21889 1.11
0.833646 0.576141 -0.15625
0.501242 0.143267 -0.16
0.857165 0.64676 -1.41375
0.852577 0.67707 -0.572917
0.852621 0.703184 0.267917
0.895319 0.729681 1.10875
0.85276 0.80035 -0.14875
0.548892 1.41901 -0.145
-0.88017 0.519077 -2.25858
-0.857993 0.544086 -1.42063
-0.852408 0.741486 -1.40688
-0.852367 0.697483 -2.24066
0.880015 0.519078 -2.25857
0.852372 0.69748 -2.24066
0.852438 0.741483 -1.40688
0.857992 0.544087 -1.42063
-0.432557 0.13743 -2.27259
0.432562 0.137309 -2.27259
0.420506 0.151282 -1.4275
-0.420502 0.151289 -1.4275
-0.42269 0.843924 -2.23679
-0.42531 0.957253 -1.4
0.425313 0.957251 -1.4
0.422692 0.844052 -2.23679
-0.422879 0.51491 -2.64064
-0.418249 0.675126 -2.6207
0.41825 0.675126 -2.6207
0.42288 0.51491 -2.64064
-0.838078 0.568035 -0.577708
-0.829246 0.584366 0.265208
-0.852867 0.81899 0.270625
-0.852575 0.78167 -0.568125
0.838084 0.568035 -0.577708
0.852575 0.781667 -0.568125
0.852872 0.818989 0.270625
0.829251 0.584364 0.265208
-0.477846 0.187763 -0.5825
0.477914 0.187638 -0.5825
0.464552 0.219339 0.2625
-0.465492 0.217443 0.2625
-0.571032 1.38614 -0.563333
-0.549434 1.43982 0.273333
0.549436 1.43981 0.273333
0.571041 1.38615 -0.563333
-0.897846 0.571617 1.10813
-0.801989 0.587816 1.96628
-0.852733 0.894199 1.96336
-0.890164 0.856642 1.10938
0.897846 0.571616 1.10813
0.890161 0.85664 1.10938
0.852738 0.894199 1.96334
0.801993 0.587817 1.96625
-0.42153 0.258678 1.1075
0.421537 0.258757 1.1075
0.414476 0.43423 1.9526
-0.414471 0.43423 1.9526
-0.426614 1.21889 1.11
-0.426602 1.07804 1.9468
0.426608 1.07804 1.9468
0.426619 1.21892 1.11
-0.406283 0.627396 2.39666
0.406265 0.627396 2.39666
0.429646 0.912631 2.37044
-0.429665 0.912631 2.37044
-0.861827 0.475 -2.69382
-0.645239 0.434678 -2.69532
-0.854918 0.438251 -2.48375
-0.789825 0.55625 2.39317
-0.569035 0.484516 2.37548
-0.762866 0.482999 2.16375
-0.837915 0.715 -2.6538
-0.631349 0.755529 -2.65553
-0.851222 0.776487 -2.44583
-0.840021 0.98375 2.36572
-0.63918 1.05545 2.36545
-0.851937 1.04263 2.15583
0.645244 0.434606 -2.69539
0.861944 0.475 -2.69393
0.854863 0.438312 -2.48375
0.569041 0.484652 2.37535
0.790675 0.55625 2.39401
0.762872 0.482999 2.16375
0.631355 0.755481 -2.65548
0.837967 0.715 -2.65385
0.851219 0.776478 -2.44583
0.639186 1.0556 2.3656
0.840126 0.98375 2.36582
0.851939 1.04263 2.15583
-0.81501 0.465258 -1.21625
-0.80907 0.466897 -0.79375
-0.826901 0.513177 -1.00208
-0.712954 0.189785 -1.005
-0.867318 0.391448 0.89625
-0.78889 0.474176 0.47375
-0.805115 0.533669 0.685834
-0.731965 0.135563 0.685
-0.85228 0.849935 -1.19083
-0.852508 0.81258 -0.984583
-0.852293 0.874078 -0.7725
-0.74324 1.14866 -0.981667
-0.854848 0.973152 0.900833
-0.852455 0.897989 0.690834
-0.852243 0.946417 0.4825
-0.725819 1.25895 0.691667
0.815013 0.465261 -1.21625
0.712969 0.189764 -1.005
0.809076 0.466897 -0.79375
0.826907 0.513178 -1.00208
0.867311 0.391461 0.89625
0.731941 0.13563 0.685
0.78891 0.474162 0.47375
0.80512 0.533667 0.685834
0.852285 0.849933 -1.19083
0.74316 1.14849 -0.981667
0.852513 0.81258 -0.984583
0.8523 0.874079 -0.7725
0.854856 0.973155 0.900833
0.725819 1.25894 0.691667
0.852464 0.89799 0.690834
0.852249 0.946417 0.4825
-0.827506 0.555 -2.65413
-0.83563 0.635 -2.65689
[...]
POINT_DATA 3682
SCALARS point_scalars float 1
LOOKUP_TABLE default
-36.176
-38.4334
-82.8805
-46.7633
-36.289
-38.3624
-82.8536
-46.6635
-37.921
-21.9025
-55.9997
-41.7064
-37.8349
-21.9906
-55.959
-41.7383
12.7373
-158.432
-39.412
-37.286
-40.4009
-42.5012
-42.5012
12.7373
-145.694
-40.491
-33.095
-40.4009
-42.5012
-42.5012
12.7373
-178.763
-56.0856
-41.6023
-47.1059
-43.4799
-43.4799
7.09754
-126.869
-79.7511
-50.4542
-47.1059
-46.5299
-46.5299
12.7373
-87.4594
-36.9529
-15.552
-36.4501
-37.9201
-37.9201
12.7373
-37.9201
-37.9201
115.949
-38.5217
-37.9201
58.2672
-109.775
-104.823
-61.242
-45.2687
-46.5299
-46.5299
57.5197
-90.5954
-36.8554
-15.7272
-36.2515
-37.8316
-37.8316
40.5774
-37.8316
-37.8316
115.83
-38.4248
-37.8316
47.6453
-115.636
-105.289
-61.0089
-45.1685
-46.4188
-46.4188
12.5898
-159.203
-39.2818
-37.1417
-40.3141
-42.3832
-42.3832
12.5898
-145.889
-40.4277
-33.0537
-40.3141
-42.3832
-42.3832
12.5898
-178.801
-56.0446
-41.6324
-47.0214
-43.3665
-43.3665
7.23431
-126.913
-79.6699
-50.5505
-47.0214
-46.4188
-46.4188
-46.6571
181.889
-49.895
-43.9377
-31.1942
-56.367
31.2507
-41.7314
-36.2861
-47.2613
-46.7231
-49.8989
-43.8103
-56.287
-41.7233
-47.2417
-31.0091
-43.2116
-42.7151
-33.4213
-35.8127
-43.8141
30.6349
-67.1267
-31.0444
-43.1587
-33.4566
-43.8203
-46.0842
-46.0853
-76.3169
-13.2667
196.992
-37.0984
-37.1152
-34.9696
-76.1942
-49.7747
-49.7053
-44.7159
-47.6264
-28.7747
-43.6052
176.71
-72.6044
-40.8908
-34.8933
-41.9001
-61.0188
6.94691
-59.2039
-43.4873
-36.21
-41.1374
176.721
-43.6295
-72.5182
-34.789
-40.7692
-41.8055
6.90074
-61.1179
-59.1951
-36.1016
-43.3746
-41.095
-45.5287
-34.3344
-39.6469
-40.6681
-56.8646
-33.0512
-26.6535
-36.3358
-45.1545
-48.4791
-49.1042
22.2923
-54.951
-37.6036
-41.3255
-67.4244
-45.4541
-40.6389
-34.2439
-39.5776
-56.7365
-36.2878
-33.1475
-26.7088
-45.1586
22.344
-48.4343
-49.0755
-54.9396
-67.399
-37.6343
-41.37
-66.313
194.242
-124.477
197.623
-47.4074
-73.549
-39.897
-35.8086
-38.4112
-27.622
-53.3074
-46.0363
-56.6078
193.119
-43.2964
-15.6131
-41.8041
-30.6269
-47.9302
-47.8075
-66.3412
194.329
-47.41
-73.5837
-39.8297
-35.5908
-53.2115
-46.063
-43.2935
-15.6126
-47.8748
-47.8086
-33.4053
-32.3934
-43.8875
-40.3105
-54.5683
-37.0395
-35.462
-52.3797
-35.1005
-43.9409
-40.2024
-65.6131
11.2641
-117.002
-65.12
-49.6561
-33.4276
-31.9795
-43.8358
-40.2645
-35.517
-52.3136
-40.2124
-65.6133
-69.3051
-45.6467
-44.4847
-63.7091
-69.3307
-63.6995
-44.4487
-45.5925
-134.655
-134.662
-54.7536
-54.676
-54.0359
9.1404
9.15671
-54.0854
191.989
187.747
187.767
192.049
-36.3711
-32.982
-37.992
-44.333
-36.3005
-44.2978
-38.0377
-33.0591
-34.675
-34.8312
-35.2994
-35.4707
-95.5308
-57.931
-57.9362
-95.6676
-54.0611
-41.1759
-39.7013
-50.4337
-53.9845
-50.3627
-39.6352
-41.09
-46.3755
-46.2625
-40.2066
-40.2628
-51.1576
-41.4256
-41.4214
-51.1623
-34.8232
-34.6116
-35.5131
-35.6924
-53.1137
164.381
-105.522
-40.418
-35.7843
-38.1033
-80.5632
-1.27031
-79.2993
-44.933
-39.3953
-38.7286
164.378
-53.2721
-105.487
-35.6716
-40.1991
-38.0069
-1.22764
-80.5598
-79.3359
-39.2662
-44.8222
-38.6547
-43.9304
-35.9392
-38.8442
-37.3993
-25.1611
-27.5124
-23.7887
-19.421
-55.266
-51.8261
-52.1665
-80.3565
-45.8355
-39.5061
-41.0363
-53.6492
-43.8385
-37.3092
-35.8709
-38.768
-25.1843
-19.7136
-27.604
-23.867
-55.2436
-80.413
-51.7837
-52.1279
-45.8393
-53.7172
-39.5347
-41.0838
-48.2319
-55.6576
-103.629
181.135
179.4
179.391
-199.76
197.468
-61.3091
-48.0697
-48.2824
-65.1829
-43.0333
-42.9091
-40.0088
-37.6595
-32.5976
-32.5135
-34.8776
-28.0427
-49.5318
-52.2955
-54.1989
-64.4579
26.1069
26.0586
-85.0051
136.554
-48.4205
-40.7926
-42.9962
-20.313
-35.7607
-35.7084
-38.5502
-32.731
-43.117
-51.5308
-47.1849
-47.8747
-48.2405
-55.6992
-103.655
181.295
-61.3821
-48.1087
-48.2858
-65.2187
-42.8936
-42.8073
-39.918
-37.5596
-49.4596
-52.1923
-54.1157
-64.2679
-48.7378
-40.783
-42.9915
-20.3046
-43.0854
-51.5094
-47.1501
-47.8709
-32.5234
-31.5641
-32.1788
-22.4722
-41.1266
-45.6442
-43.1291
-42.0704
-42.6295
-42.6422
-47.8476
-39.3719
-29.7447
-35.6238
-33.8912
-35.6749
-36.1152
-36.0809
-35.1857
-37.7196
-46.3162
-42.2084
-41.8102
-55.505
30.0841
30.1101
22.7864
-20.6666
-68.1226
-68.1281
-65.6208
-55.936
-32.448
-31.6606
-32.2055
-22.8532
-41.0671
-45.5958
-43.0782
-42.0176
-29.7869
-35.6571
-33.9438
-35.7509
-46.3018
-42.2364
-41.8188
-55.4967
-52.5824
-47.0722
-44.0265
-46.6929
-52.5902
-47.0743
-44.0245
-46.685
-95.4974
-76.2829
-76.2949
-64.127
-29.4071
-13.7254
-13.725
-0.938144
197.518
198.184
192.408
197.551
-35.1665
-38.4277
-36.4193
-38.6218
-35.187
-38.405
-36.4665
-38.6346
-34.5749
-35.6006
-35.1669
-34.773
-74.6705
-88.0417
-68.8629
-74.6629
-44.3605
-51.9701
-48.5844
-51.7026
-44.3487
-51.8963
-48.5161
-51.6529
-41.8576
-45.5091
-45.4974
-50.8858
-45.0711
-47.7683
-47.7725
-48.8148
-31.4176
-26.3901
-29.9524
-31.1214
-104.365
178.297
-114.889
199.115
-70.162
-129.999
-38.3564
-36.7883
-36.9196
-34.5904
-41.6061
-41.3904
-99.1706
180.163
-82.8403
107.51
-63.9205
-49.2049
-40.2356
-37.5302
-38.1689
-35.8087
-39.3793
-41.9411
-114.71
199.174
-104.329
178.077
-70.1488
-129.975
-36.8578
-34.3949
-38.2453
-36.6822
-41.5256
-41.3096
-82.8083
107.524
-99.1955
179.546
-63.9206
-49.2222
-38.1364
-35.6498
-40.182
-37.4145
-39.3145
-41.9257
-45.4723
-54.037
-35.3876
-32.8097
-42.5604
-38.0411
-47.8335
-37.2955
-55.3355
-48.944
-32.4804
-36.5287
-29.7361
-30.9837
-34.6317
-36.94
-46.4332
0.0186775
-47.3745
-46.6411
-46.5035
-70.8824
21.7957
-78.2309
-53.1969
-54.2972
-37.3236
-39.8671
-39.378
-50.4344
-58.6581
-60.0912
-45.4154
-54.454
-47.7053
-37.2605
-35.3067
-32.6536
-42.4816
-37.9753
-55.2418
-48.9002
-34.3651
-36.8699
-32.5684
-36.7528
-29.8096
-30.9583
-46.4013
0.0448839
21.9006
-78.4462
-47.3369
-46.5961
-46.4708
-70.8574
-53.2086
-54.3451
-58.6801
-60.0608
-37.3675
-39.8931
-39.4217
-50.4444
-67.9833
-64.7418
194.254
188.178
-127.861
-127.857
196.191
196.159
-55.5252
-46.7273
-92.8074
-62.3467
-40.823
-39.8967
-35.0696
-35.8762
-39.0515
-39.0647
-29.9043
-29.7109
-52.0668
-49.3212
-48.4216
-43.4927
-57.2743
-57.2892
191.45
191.535
-44.2312
-49.2504
-31.1074
-2.87449
-41.6894
-41.696
-32.2854
-32.4978
-43.156
-51.2905
-49.6774
-44.8133
-68.0111
-64.7586
188.283
194.323
-55.5375
-46.7123
-92.8483
-62.3908
-39.8292
-40.7401
-34.8468
-35.606
-51.9907
-49.2796
-48.3584
-43.4426
-49.2784
-44.2131
-2.86631
-31.1022
-51.262
-43.1196
-44.8152
-49.6786
-34.6422
-33.4202
-34.5585
-37.0527
-44.7326
-44.0519
-38.2478
-42.2542
-54.5832
-54.5992
-36.7643
-36.7639
-33.8999
-36.667
-53.0994
-50.7292
-35.2053
-35.238
-44.5117
-44.4831
-38.9874
-41.9812
-75.8207
-60.3441
11.0814
11.0911
-107.606
-107.648
-63.7119
-63.7111
-50.1324
-50.1323
-34.5992
-33.4896
-32.5782
-36.9302
-44.0051
-44.6971
-38.1921
-42.214
-36.7158
-33.9654
-53.0255
-50.634
-41.9627
-39.021
-60.3434
-75.823
-104.668
-57.251
-54.7291
-105.295
-42.9849
-42.2076
-46.7642
-46.9999
-51.3882
-44.3344
-45.5799
-44.8003
-95.4715
-101.581
-49.9589
-50.2646
-104.636
-105.288
-54.737
-57.2767
-95.5006
-50.2956
-49.9858
-99.1281
-51.3558
-44.7568
-45.5629
-44.3231
-42.8957
-47.0004
-46.7424
-42.1469
-71.15
-164.338
-95.22
-83.6475
-70.7492
-83.6874
-95.2365
-165.558
-46.2239
-47.8451
-63.8685
-58.372
-46.4269
-58.2611
-63.8529
-47.8728
-78.4068
-32.7995
-30.4505
-82.4319
-8.91057
23.1229
-0.737188
-10.6209
-9.03845
-10.6004
-0.723993
23.1295
-78.4603
-82.4591
-30.4723
-32.7926
183.065
180.726
198.083
202.966
117.997
133.521
191.772
176.318
118.415
176.473
191.813
133.554
183.178
202.984
198.115
180.814
-36.9791
-33.6679
-36.4882
-39.8759
-28.3479
-31.5246
-34.7272
-32.5902
-39.0015
-40.3465
-37.65
-35.6975
-49.1817
-44.2381
-40.1834
-43.8802
-36.9103
-39.8173
-36.4586
-33.6092
-49.14
-43.8635
-40.1628
-44.1889
-39.0452
-35.7442
-37.6894
-40.3771
-28.4317
-32.6725
-34.784
-31.5872
-33.5315
-39.0903
-35.5297
-31.7821
-33.4648
-30.9797
-35.5263
-39.055
-27.4497
-35.2928
-35.3065
-28.7247
-27.2745
-28.3647
-35.2876
-35.3369
-86.7431
-61.2181
-87.3355
-36.6605
-50.946
-64.7525
-67.2982
-52.1669
-50.977
-51.9671
-67.2936
-64.756
-86.7281
-36.4379
-87.3459
-61.1915
-27.892
-52.5753
-51.5113
-33.9172
-37.9365
-39.1584
-47.5443
-49.6419
-39.828
-42.4521
-44.015
-40.3663
-41.8906
-38.6142
-51.7685
-50.7072
-27.8777
-33.92
-51.4473
-52.4854
-41.8669
-50.6798
-51.7303
-38.8125
-39.7383
-40.2772
-43.9929
-42.4065
-37.8332
-49.5684
-47.5798
-39.0581
-52.8419
-38.66
-48.0832
-49.9085
-52.9894
-49.8061
-48.034
-38.6292
-37.1443
-35.6064
-42.5692
-44.032
-37.2097
-44.1014
-42.593
-35.6555
-57.6374
-50.5464
-49.1241
-56.772
-39.5213
-38.2091
-45.0602
-44.9169
-39.4679
-44.9129
-45.0667
-38.2027
-57.8555
-56.7779
-49.128
-50.5413
-36.6264
-30.3295
-29.8327
-36.9297
-36.5048
-36.8376
-29.5342
-30.1527
-38.0999
-33.3367
-31.9275
-37.4422
-38.2282
-37.5668
-32.1838
-33.4904
-37.0195
136.335
-149.523
-39.554
-36.5539
-36.8324
-76.0712
-4.93065
-125.056
-46.5959
-42.4987
-41.6535
136.233
-37.1057
-148.207
-36.408
-39.3484
-36.722
-4.87778
-76.0344
-125.102
-42.3779
-46.4857
-41.5594
-39.5578
-36.8155
-38.4467
-36.7052
-17.5313
-24.8055
-22.8837
-16.7041
-57.5647
-53.9091
-54.0348
-86.0048
-43.1831
-40.5382
-41.2092
-48.5218
-39.4715
-36.5994
-36.7447
-38.3666
-17.6176
-16.874
-24.8955
-22.9676
-57.5299
-85.9361
-53.8676
-53.9924
-43.2051
-48.7243
-40.5683
-41.2506
-44.8026
-47.2407
-168.819
164.535
180.565
180.547
24.0652
192.554
-53.9813
-48.5273
-48.9399
-52.5329
-43.8516
-42.7477
-42.105
-38.4421
-31.6171
-31.5765
-33.189
-29.8002
-58.9316
-53.6604
-54.7184
-65.6353
29.8057
29.7761
-33.2878
84.6143
-44.0787
-41.0592
-42.7395
-28.6608
-36.1938
-36.165
-37.9483
-34.4547
-45.0074
-49.0212
-46.9886
-48.2062
-45.0176
-47.3685
-168.824
164.682
-53.9855
-48.5416
-48.9438
-52.5515
-43.7188
-42.6367
-42.0106
-38.3448
-58.8581
-53.5598
-54.6369
-65.4401
-44.096
-41.0493
-42.7335
-28.6495
-44.9795
-48.9996
-46.9607
-48.2002
-31.7452
-30.7876
-31.6373
-26.6653
-42.165
-44.3929
-43.2905
-42.7337
-42.7372
-42.7558
-44.8162
-40.9548
-31.81
-34.6358
-33.5419
-33.7347
-36.0818
-36.0578
-35.2754
-34.0805
-44.7885
-42.9081
-42.7256
-50.3961
30.5362
30.5521
29.9131
16.8685
-67.4283
-67.4307
-67.3675
-62.1756
-31.7184
-30.8687
-31.6676
-26.7715
-42.1088
-44.3424
-43.2381
-42.6811
-31.849
-34.6699
-33.5868
-33.7637
-44.7833
-42.9267
-42.7331
-50.3897
-48.8483
-46.6378
-45.202
-44.9419
-48.8549
-46.6399
-45.2018
-44.9348
-84.9758
-76.5393
-76.5419
-69.733
-21.0676
-13.643
-13.6893
-6.56591
198.457
199.274
194.7
198.489
-36.181
-37.6905
-36.7452
-37.878
-36.2
-37.686
-36.7797
-37.8929
-34.8725
-35.0949
-34.9182
-34.9915
-75.9095
-81.44
-72.1997
-75.8988
-47.6555
-50.9033
-49.0995
-50.4944
-47.5787
-50.8335
-49.0302
-50.4384
-44.1622
-45.328
-45.3225
-46.9074
-46.4592
-47.674
-47.6768
-48.4613
-29.5483
-25.4476
-31.0734
-29.3612
-54.8959
-15.9163
-157.199
153.572
172.298
179.773
-31.9032
190.897
-83.3351
-67.674
-71.0838
-115.878
-40.0261
-41.3842
-38.4439
-37.5762
-35.4633
-33.8771
-35.4536
-34.7508
-39.5002
-44.9402
-41.7218
-41.8278
-63.0974
-61.3436
-165.324
160.745
0.815334
17.0603
-84.9859
70.9498
-71.7731
-52.6233
-62.6533
-51.2482
-43.6889
-43.069
-43.6253
-38.4105
-37.4563
-35.6864
-36.8488
-36.0212
-40.2744
-40.7042
-39.357
-42.6569
172.314
179.778
-36.2912
190.945
-55.0995
-15.7288
-156.405
154.074
-83.0522
-67.7274
-71.0454
-115.832
-35.3581
-33.7809
-35.3687
-34.6087
-40.1899
-41.2676
-38.2487
-37.447
-39.4035
-44.8857
-41.6334
-41.7533
0.825614
16.9839
-84.489
71.0698
-63.1776
-61.4626
-165.311
161.084
-71.7993
-52.6591
-62.6486
-51.2562
-37.3278
-35.6051
-36.7907
-35.8849
-43.5766
-42.961
-43.5219
-38.3017
-40.2164
-40.6654
-39.2957
-42.6369
-48.8143
-48.7211
-45.2269
-50.5846
-35.1342
-33.4678
-34.8296
-32.5783
-39.2483
-40.3761
-40.7551
-38.8805
-39.142
-41.9613
-43.1046
-38.7002
-50.4186
-52.6888
-55.8785
-48.9186
-30.082
-34.2495
-32.5927
-36.4844
-25.2635
-28.0716
-28.0974
-25.3369
-32.6925
-35.9956
-37.8395
-35.5261
-48.1242
-41.777
-46.3647
-18.9822
-50.0362
-46.9267
-48.642
-47.6307
-50.7424
-47.5368
-47.6839
-60.3377
-3.16459
28.3879
27.7135
-5.04259
-50.7219
-53.1383
-53.8141
-58.3104
-38.5534
-36.6209
-37.2893
-38.0692
-40.9732
-41.7087
-40.2757
-46.8964
-57.6806
-69.2642
-60.2759
-68.368
-48.7241
-48.6735
-45.1634
-50.7725
-39.0907
-41.9453
-43.0356
-38.7292
-35.0568
-33.3738
-34.7439
-32.4473
-39.1752
-40.3116
-40.6825
-38.8156
-50.3032
-52.5853
-55.7712
-48.8763
-32.7182
-35.9559
-37.4309
-35.4826
-30.1764
-34.3433
-32.6854
-36.5964
-25.3286
-28.1199
-28.1655
-25.3614
-48.0985
-41.7782
-46.3405
-18.8688
-3.31904
28.4211
27.7447
-4.87
-49.9927
-46.8804
-48.5047
-47.5836
-50.7077
-47.5135
-47.6531
-60.3459
-50.7487
-53.1145
-53.8129
-58.3667
-57.7408
-69.2733
-60.3049
-68.4084
-38.5826
-36.6534
-37.3283
-38.0919
-41.0193
-41.746
-40.3197
-46.935
-79.912
-58.1304
-67.2257
-65.4314
189.186
195.46
194.867
192.2
-166.059
-107.663
-125.347
-125.32
202.381
197.091
196.629
196.707
-47.7184
-47.2093
-50.6714
-46.052
-70.5249
-75.304
-81.798
-67.4744
-39.5721
-41.1567
-39.9154
-40.0181
-37.021
-33.7901
-35.1997
-36.1747
-36.7345
-40.1596
-38.5968
-38.6155
-27.2706
-28.0751
-28.5042
-28.359
-53.54
-52.8503
-52.1779
-55.2487
-58.1428
-45.7049
-46.8218
-45.2647
-87.4264
-43.4887
-56.7774
-56.7636
194.91
192.49
191.853
191.858
-43.2829
-43.456
-42.498
-45.2846
-17.0008
-14.7657
-22.9
-9.26497
-40.0564
-43.5075
-41.7814
-41.7869
-31.2985
-30.1648
-31.0109
-31.1467
-47.6189
-48.314
-46.6288
-48.9785
-47.7719
-47.8287
-48.9535
-46.4081
-79.9363
-58.1744
-67.2537
-65.4553
189.32
195.53
192.291
194.957
-47.7215
-47.2117
-50.6804
-46.049
-70.5626
-75.3355
-81.8318
-67.5081
-39.492
-41.0955
-39.9508
-39.8427
-36.8799
-33.4956
-34.9362
-36.0041
-53.4505
-52.7591
-52.0982
-55.1313
-57.9737
-45.6682
-46.7677
-45.2237
-43.2795
-43.4534
-45.2917
-42.4935
-16.9972
-14.7641
-9.26039
-22.901
-47.5735
-48.2479
-48.9386
-46.59
-47.7699
-47.8321
-46.41
-48.9541
-32.6838
-34.0815
-33.9774
-33.1617
-26.9095
-33.1473
-35.9918
-29.9913
-43.0038
-46.1926
-44.2308
-43.9989
-41.2534
-39.3459
-39.2743
-41.2344
-51.0453
-58.734
-54.5708
-54.5794
-38.026
-36.1053
-36.9321
-36.9502
-34.7503
-36.0186
-34.7059
-36.0925
-45.7162
-51.8922
-52.7386
-51.8676
-35.0695
-35.42
-35.1407
-35.1542
-42.2789
-45.4626
-44.4747
-44.4594
-40.9978
-39.4061
-39.5489
-40.9954
-60.3316
-71.7629
-70.6861
-62.5687
16.2322
5.07197
11.2398
11.2443
-108.836
-97.6986
-113.781
-113.808
-64.9222
-66.3135
-64.7845
-64.7821
-51.5004
-48.768
-49.7853
-49.8026
-32.7083
-34.103
-33.9637
-33.2145
-23.4663
-35.0049
-30.8347
-37.2552
-42.9768
-46.1497
-43.9506
-44.1927
-41.2025
-39.309
-39.2245
-41.1909
-34.8061
-36.0712
-36.144
-34.7658
-45.6906
-51.8585
-52.6679
-51.7076
-41.007
-39.4176
-40.9907
-39.5723
-60.3233
-71.7613
-62.5683
-70.6824
-81.2372
-69.5697
-68.84
-61.4534
-45.3552
-44.1448
-47.4916
-45.1494
-45.4103
-45.3138
-44.8904
-44.1013
-77.2423
-63.9771
-64.0683
-55.1876
-81.2513
-69.5808
-68.8672
-61.4685
-77.2634
-63.9694
-64.0725
-55.2191
-45.3769
-45.2823
-44.8487
-44.0602
-45.3015
-44.0872
-47.4521
-45.1013
-153.142
-131.205
-130.7
-107.495
-153.083
-131.147
-130.727
-107.545
-54.7564
-52.1851
-58.0902
-54.6878
-54.5821
-52.3185
-58.0327
-54.6645
-71.9483
-50.2669
-56.2363
-40.5243
6.09587
14.0022
2.80187
10.5621
6.11434
14.0835
2.8132
10.5761
-71.9602
-50.2967
-56.2555
-40.5352
187.483
201.585
193.281
195.345
185.501
185.049
187.282
191.266
185.15
186.07
191.282
187.364
201.652
187.571
195.426
193.342
-35.8794
-37.1955
-35.4497
-37.2511
-32.7138
-31.4285
-33.6626
-33.3221
-37.6114
-38.6788
-37.3124
-38.4715
-45.5574
-45.4171
-43.2852
-43.1387
-35.8036
-37.1266
-35.3866
-37.188
-45.5154
-45.3829
-43.2483
-43.1098
-37.6573
-38.7234
-37.3595
-38.512
-32.7963
-31.5048
-33.7376
-33.3943
-33.7674
-36.2493
-32.2421
-36.0469
-36.2419
-33.8104
-36.1327
-32.9905
-33.2392
-35.7316
-35.2557
-41.1406
-35.5658
-33.4732
-40.1249
-35.298
-84.044
-108.548
-84.256
-101.813
-54.0922
-57.8057
-58.6702
-61.4775
-57.809
-54.0995
-61.4798
-58.6723
-108.479
-83.9534
-101.829
-84.321
-54.6937
-48.2552
-52.6646
-53.5138
-39.2556
-41.384
-41.443
-44.1156
-39.5482
-39.6107
-39.8935
-40.4686
-53.0958
-46.6748
-52.5555
-49.9156
-54.6104
-48.1905
-52.5899
-53.4387
-53.1257
-46.1512
-52.5438
-49.798
-39.4716
-39.5688
-39.826
-40.4116
-39.1566
-41.3025
-41.3525
-44.0437
-48.307
-41.5953
-49.6304
-45.4124
-48.2056
-41.4727
-49.5505
-45.3724
-38.5152
-40.4365
-39.6573
-42.141
-38.5703
-40.5069
-39.761
-42.1977
-52.0458
-53.5926
-50.1058
-50.5757
-39.7736
-41.4963
-41.55
-43.1325
-39.7592
-41.4855
-41.5523
-43.133
-52.0714
-53.5856
-50.1049
-50.5825
-36.1176
-34.6902
-35.0324
-32.3208
-34.4805
-35.9682
-32.0573
-34.8309
-35.5336
-36.6076
-33.9642
-35.4767
-36.7482
-35.7072
-35.6708
-34.1787
-143.125
160.617
-65.0143
177.474
-105.811
-91.795
-37.5083
-37.5991
-35.7751
-36.1965
-37.9307
-37.5948
-152.115
89.8902
-110.354
67.0835
-91.2598
-79.3392
-42.9037
-39.4151
-38.7929
-39.1119
-39.2597
-40.9674
-61.328
177.689
-143.291
160.594
-105.765
-91.9802
-35.6821
-36.0769
-37.34
-37.4898
-37.8325
-37.519
-110.223
67.3162
-152.176
90.1886
-91.306
-79.3568
-38.7054
-38.976
-42.7932
-39.2918
-39.1706
-40.912
-43.4372
-43.8501
-36.4121
-34.1659
-40.2828
-37.8342
-40.6839
-35.8887
-25.6671
-40.5878
-27.9367
-25.1712
-26.0963
-21.7244
-24.3719
-7.28442
-53.3019
-54.5665
-52.5261
-50.514
-50.6184
-67.6226
-38.9143
-103.446
-43.7261
-54.6818
-39.0352
-40.2117
-39.8786
-46.9294
-52.0098
-55.4845
-43.3466
-43.7241
-40.5513
-35.8205
-36.3433
-34.0949
-40.2043
-37.7653
-25.6744
-40.4174
-24.5829
-7.39288
-28.0243
-25.3065
-26.1765
-21.7736
-53.2736
-54.5363
-38.9486
-103.479
-52.4885
-50.4694
-50.578
-67.6027
-43.7036
-54.7468
-52.2558
-55.6189
-39.0725
-40.2306
-39.9228
-47.0047
-162.393
161.333
-168.848
155.117
-104.332
-102.693
181.586
179.206
-12.7898
193.906
-10.1095
193.912
-205.312
-197.173
204.054
204.048
-58.6569
-79.3252
-47.4354
-54.4415
-51.5157
-46.7527
-69.0185
-62.465
-40.5762
-37.8918
-43.4016
-38.3249
-39.4903
-40.4575
-37.3603
-37.6955
-34.0115
-31.6508
-33.9477
-31.5282
-35.073
-35.1056
-28.2795
-28.1449
-49.6905
-44.7027
-52.6815
-49.0091
-52.9508
-58.3296
-53.2931
-51.1642
-42.2401
81.1545
-41.7627
81.1851
-85.2086
-85.2107
127.21
127.24
-50.3022
-38.2791
-43.5897
-24.3334
-42.8832
-45.8593
-26.4223
-15.3622
-37.1303
-34.7041
-37.1142
-34.6092
-38.4101
-38.4083
-32.5882
-32.6823
-42.356
-45.2595
-50.9703
-51.8495
-45.4651
-48.5383
-49.2146
-46.4308
-162.342
161.4
-168.815
155.163
-104.342
-102.719
179.358
181.77
-58.699
-79.3794
-47.4504
-54.5909
-51.5223
-46.7555
-69.04
-62.5391
-40.4825
-37.7974
-43.299
-38.14
-40.3698
-39.398
-37.2606
-37.5903
-49.621
-44.6333
-52.5845
-48.9299
-52.8627
-58.2674
-53.1303
-51.1662
-50.4084
-38.2705
-43.5892
-24.3071
-45.8715
-42.8767
-15.3508
-26.4177
-42.3136
-45.2523
-50.9446
-51.8437
-48.5029
-45.4285
-46.4272
-49.2093
-33.0954
-30.2528
-32.1928
-21.6811
-32.7931
-31.9239
-28.4401
-16.5762
-41.678
-40.5221
-45.5168
-45.0168
-42.4748
-43.8546
-40.9549
-43.1184
-44.7989
-40.8143
-44.7907
-40.8091
-47.8297
-47.838
-39.2329
-39.1899
-30.479
-29.5461
-35.4391
-35.9378
-32.8177
-34.8953
-35.0973
-37.197
-35.5822
-35.7054
-35.5392
-35.6609
-35.2604
-35.2912
-38.9257
-38.918
-44.9855
-54.4482
-41.0521
-47.8941
-41.0129
-42.7057
-57.825
-53.3825
30.2506
14.099
30.2715
14.1998
22.8959
22.8544
-24.7689
-24.5405
-67.5322
-63.3651
-67.5374
-63.3733
-65.4383
-65.4387
-56.1375
-56.1433
-33.0284
-30.0639
-32.2819
-21.9161
-32.7736
-31.9885
-27.7561
-17.1414
-41.6177
-40.4635
-45.471
-44.9674
-43.8078
-42.419
-40.8995
-43.0676
-30.535
-29.5673
-35.4792
-35.9681
-34.944
-32.8747
-35.1348
-37.3021
-44.9697
-54.4261
-41.0808
-47.9058
-42.7017
-41.0345
-53.3862
-57.8121
-53.7148
-51.4221
-50.2421
-45.7542
-43.3106
-46.3199
-46.9643
-46.0232
-53.7225
-51.4316
-50.2518
-45.749
-46.3264
-43.3017
-46.0126
-46.9498
-95.3663
-95.3699
-84.8053
-69.312
-84.8219
-69.3207
-64.0897
-64.0845
-30.9518
-30.4808
-21.3823
-6.9758
-6.97963
-21.3778
-0.705011
-0.654877
198.535
195.167
198.785
198.817
192.473
192.494
195.2
198.571
-35.5884