# vtk DataFile Version 2.0
tet_velo
ASCII
DATASET UNSTRUCTURED_GRID
POINTS 29498 float
-0.735 0.225 -2.11714
-0.609082 0.315 2.205
-0.75968 0.775 -1.915
-0.655 1.005 2.06925
0.735 0.225 -2.11714
0.609084 0.315 2.205
0.75968 0.775 -1.915
0.655 1.005 2.0693
-0.734795 0.213232 -0.676427
-0.722451 0.213604 0.764287
-0.805107 0.931987 -0.586917
-0.77332 1.01176 0.741167
0.734796 0.213232 -0.676427
0.722453 0.213603 0.764287
0.805139 0.932019 -0.5869
0.773322 1.01176 0.7412
-1.49573 -0.175248 -3.26171
-1.49443 -0.126052 -2.15424
-1.48629 -0.133419 -0.710616
-1.44779 -0.14087 0.755673
-1.36482 -0.0766602 2.2012
-1.34387 -0.026785 3.31802
-1.35192 0.0135026 4.41753
-1.49802 0.148115 -3.20112
-1.50157 0.215816 -2.10596
-1.49806 0.229151 -0.68425
-1.44764 0.228126 0.747594
-1.331 0.28869 2.17146
-1.3197 0.337157 3.28669
-1.33867 0.377107 4.38987
-1.50995 0.76135 -3.04835
-1.52864 0.826627 -1.94853
-1.54975 0.941919 -0.603604
-1.49168 0.998492 0.733342
-1.36881 1.01066 2.08043
-1.34103 1.05599 3.20032
-1.34968 1.10136 4.32167
-1.51143 1.78375 -2.90387
-1.5213 1.86359 -1.82092
-1.5304 1.99272 -0.512502
-1.51557 2.09214 0.771639
-1.47385 2.13899 2.08123
-1.43948 2.16851 3.16665
-1.41841 2.20366 4.2757
-0.743409 -0.170593 -3.26897
-0.741342 -0.11835 -2.16484
-0.739191 -0.140874 -0.709189
-0.731567 -0.150948 0.769917
-0.676046 -0.0647126 2.2261
-0.655491 -0.0184586 3.33492
-0.658353 0.0172098 4.42731
-0.741197 0.14666 -3.20336
-0.628651 0.346268 3.30063
-0.645284 0.380698 4.39725
-0.748121 0.739589 -3.03442
-0.64437 1.05628 3.1981
-0.652026 1.10207 4.32121
-0.749288 1.7684 -2.89009
-0.756338 1.84889 -1.80574
-0.770858 1.98897 -0.503348
-0.77579 2.09643 0.770553
-0.755671 2.1412 2.07341
-0.727879 2.16876 3.15883
-0.707805 2.2036 4.27002
0.748417 -0.170589 -3.26896
0.738034 -0.118348 -2.16483
0.733306 -0.140873 -0.709187
0.702106 -0.150948 0.76992
0.631245 -0.0647124 2.22611
0.670248 -0.0184579 3.33493
0.703043 0.0172112 4.42733
0.753065 0.146663 -3.20335
0.676144 0.346269 3.30064
0.708892 0.380699 4.39727
0.765522 0.739593 -3.03442
0.691033 1.05628 3.19813
0.714571 1.10208 4.32123
0.775431 1.76841 -2.89008
0.776859 1.8489 -1.80573
0.762607 1.98899 -0.503331
0.723266 2.09643 0.770577
0.689755 2.1412 2.07344
0.693145 2.16877 3.15886
0.70765 2.2036 4.27004
1.49763 -0.175239 -3.2617
1.48977 -0.126043 -2.15423
1.48074 -0.133412 -0.710605
1.43339 -0.140868 0.755688
1.34819 -0.076659 2.20122
1.3606 -0.026783 3.31805
1.39378 0.0135055 4.41756
1.50417 0.148125 -3.20111
1.49862 0.215828 -2.10595
1.49708 0.229163 -0.684237
1.45156 0.228128 0.747615
1.34146 0.28869 2.17149
1.35938 0.337159 3.28672
1.39606 0.37711 4.38991
1.52221 0.761363 -3.04834
1.52915 0.826645 -1.94852
1.54997 0.941951 -0.603576
1.49506 0.998499 0.73339
1.37865 1.01066 2.08049
1.37977 1.056 3.20038
1.40604 1.10137 4.32172
1.53376 1.78377 -2.90385
1.53659 1.86361 -1.82089
1.52203 1.99274 -0.512469
1.47403 2.09216 0.771684
1.42337 2.13899 2.08129
1.41275 2.16851 3.1667
1.42062 2.20367 4.27574
-0.81002 0.5 -2.07875
0 0.211426 -2.13071
-0.741255 0.212758 -1.39678
-0.678074 0.66 2.18316
1.01328e-06 0.328292 2.19171
-0.690479 0.239589 1.48464
0 0.858806 -1.99881
-0.803008 0.874108 -1.25096
0 1.09765 2.16193
-0.750031 1.04425 1.40521
0.809869 0.5 -2.0786
0.741256 0.212758 -1.39678
0.678123 0.66 2.18323
0.690481 0.239589 1.48464
0.802657 0.873757 -1.25095
0.750027 1.04425 1.40525
-0.728627 0.213414 0.0439299
-0.853777 0.57261 -0.631672
5.49811e-07 0.210759 -0.676427
-0.844099 0.612682 0.752727
1.0285e-06 0.210997 0.764287
-0.789257 0.971917 0.0771251
1.59104e-05 1.25277 -0.586908
1.06157e-06 1.45198 0.741183
0.72863 0.213412 0.0439299
0.853781 0.572625 -0.631664
0.84464 0.612683 0.752743
0.789256 0.971916 0.07715
-0.896044 0.536305 -1.32387
-0.84695 0.592646 0.0605275
-0.893001 0.636341 1.44493
2.74905e-07 0.21045 -1.39678
7.89155e-07 0.210876 0.0439299
1.02089e-06 0.236237 1.48464
0 0.5 -2.31236
5.06639e-07 0.66 2.2699
7.95522e-06 0.984224 -1.25095
8.486e-06 1.44528 0.0771375
5.30787e-07 1.40079 1.40523
0.896042 0.536313 -1.32387
0.846956 0.592654 0.06054
0.892997 0.636341 1.44495
-1.11828 0.220408 -2.11155
-0.738171 0.0533251 -2.14099
-0.738098 0.18583 -2.66025
-0.970043 0.301845 2.18823
-0.642564 0.125144 2.21555
-0.618867 0.330634 2.75281
-1.14416 0.800813 -1.93177
-0.753901 0.757294 -2.47471
-0.758009 1.31194 -1.86037
-1.0119 1.00783 2.07484
-0.649685 1.03064 2.63367
-0.705335 1.5731 2.07133
0.736517 0.0533261 -2.14099
0.744033 0.185832 -2.66025
1.11681 0.220414 -2.11155
0.620165 0.125144 2.21555
0.642614 0.330634 2.75282
0.975274 0.301845 2.18824
0.762601 0.757297 -2.47471
0.768269 1.31195 -1.86036
1.14442 0.800822 -1.93176
0.673017 1.03064 2.63371
0.672378 1.5731 2.07137
1.01683 1.00783 2.0749
-1.11643 0.221192 -0.680339
-0.736993 0.0361791 -0.692808
-1.08505 0.220865 0.75594
-0.727009 0.0313282 0.767102
-1.17743 0.936953 -0.59526
-0.787982 1.46048 -0.545132
-1.1325 1.00513 0.737255
-0.774555 1.55409 0.75586
0.734051 0.0361794 -0.692807
1.11594 0.221197 -0.680332
0.712279 0.0313279 0.767103
1.08701 0.220866 0.755951
0.783873 1.4605 -0.545116
1.17755 0.936985 -0.595238
0.748294 1.5541 0.755888
1.13419 1.00513 0.737295
-1.49508 -0.15065 -2.70797
-1.49687 -0.0135667 -3.23141
-1.11957 -0.172921 -3.26534
-1.49036 -0.129736 -1.43243
-1.498 0.0448821 -2.1301
-1.11788 -0.122201 -2.15954
-1.46704 -0.137144 0.0225284
-1.49217 0.0478662 -0.697433
-1.11274 -0.137147 -0.709902
-1.4063 -0.108765 1.47844
-1.44771 0.0436279 0.751633
-1.08968 -0.145909 0.762795
-1.35434 -0.0517226 2.75961
-1.34791 0.106015 2.18633
-1.02043 -0.0706864 2.21365
-1.34789 -0.00664121 3.86777
-1.33178 0.155186 3.30235
-0.999679 -0.0226218 3.32647
-1.34529 0.195305 4.4037
-1.00513 0.0153562 4.42242
-1.49979 0.181966 -2.65354
-1.50398 0.454732 -3.12474
-1.11961 0.147387 -3.20224
-1.49981 0.222484 -1.3951
-1.51511 0.521222 -2.02725
-1.47285 0.228639 0.0316717
-1.5239 0.585535 -0.643927
-1.38932 0.258408 1.45953
-1.46966 0.613309 0.740468
-1.32535 0.312923 2.72907
-1.3499 0.649674 2.12595
-1.32918 0.357132 3.83828
-1.33036 0.696576 3.2435
-0.974173 0.341713 3.29366
-1.34418 0.739235 4.35577
-0.991977 0.378902 4.39356
-1.5193 0.793988 -2.49844
-1.51069 1.27255 -2.97611
-1.12904 0.750469 -3.04138
-1.5392 0.884273 -1.27607
-1.52497 1.34511 -1.88472
-1.52071 0.970205 0.0648694
-1.54008 1.46732 -0.558053
-1.43024 1.00457 1.40689
-1.50362 1.54532 0.752491
-1.35492 1.03333 2.64038
-1.42133 1.57482 2.08083
-1.34535 1.07868 3.761
-1.39025 1.61225 3.18349
-0.992699 1.05614 3.19921
-1.38405 1.65251 4.29868
-1.00085 1.10172 4.32144
-1.51636 1.82367 -2.36239
-1.13036 1.77608 -2.89698
-1.52585 1.92815 -1.16671
-1.13882 1.85624 -1.81333
-1.52299 2.04243 0.129569
-1.15063 1.99085 -0.507925
-1.49471 2.11556 1.42644
-1.14568 2.09428 0.771096
-1.45666 2.15375 2.62394
-1.11476 2.14009 2.07732
-1.42894 2.18609 3.72117
-1.08368 2.16864 3.16274
-1.06311 2.20363 4.27286
-0.742375 -0.144471 -2.7169
-0.742303 -0.0119667 -3.23616
0.00250431 -0.170591 -3.26897
-0.740266 -0.129612 -1.43701
-0.00165391 -0.118349 -2.16483
-0.735379 -0.145911 0.0303639
-0.00294264 -0.140874 -0.709188
-0.703806 -0.10783 1.49801
-0.0147302 -0.150948 0.769918
-0.665768 -0.0415856 2.78051
-0.0224006 -0.0647125 2.22611
-0.656922 -0.000624402 3.88112
-0.642071 0.163905 3.31777
0.00737878 -0.0184582 3.33492
-0.651819 0.198954 4.41228
0.0223452 0.0172105 4.42732
-0.744659 0.443124 -3.11889
0.00593436 0.146661 -3.20336
-0.636968 0.363483 3.84894
-0.636511 0.701274 3.24936
0.0237465 0.346268 3.30063
-0.648655 0.741386 4.35923
0.0318041 0.380698 4.39726
-0.748704 1.254 -2.96226
0.00870061 0.739591 -3.03442
-0.648198 1.07918 3.75965
-0.686124 1.61252 3.17847
0.0233315 1.05628 3.19811
-0.679916 1.65284 4.29561
0.0312728 1.10207 4.32122
-0.752813 1.80864 -2.34792
0.0130714 1.76841 -2.89009
-0.763598 1.91893 -1.15454
0.0102603 1.84889 -1.80573
-0.773324 2.0427 0.133602
-0.00412533 1.98898 -0.50334
-0.76573 2.11881 1.42198
-0.0262617 2.09643 0.770565
-0.741775 2.15498 2.61612
-0.0329578 2.1412 2.07342
-0.717842 2.18618 3.71443
-0.017367 2.16877 3.15885
-7.75689e-05 2.2036 4.27003
0.743226 -0.144468 -2.7169
0.750741 -0.0119631 -3.23616
1.12302 -0.172914 -3.26533
0.73567 -0.12961 -1.43701
1.1139 -0.122195 -2.15953
0.717706 -0.14591 0.0303665
1.10702 -0.137143 -0.709896
0.666676 -0.10783 1.49801
1.06775 -0.145908 0.762804
0.650747 -0.0415852 2.78052
0.989716 -0.0706857 2.21367
0.686646 -0.000623353 3.88113
0.673196 0.163905 3.31779
1.01542 -0.0226204 3.32649
0.705968 0.198955 4.4123
1.04841 0.0153584 4.42245
0.759294 0.443128 -3.11888
1.12862 0.147394 -3.20223
0.692518 0.363484 3.84896
0.683589 0.701275 3.24939
1.01776 0.341714 3.29368
0.711732 0.741387 4.35925
1.05248 0.378904 4.39359
0.770476 1.254 -2.96225
1.14387 0.750478 -3.04138
0.702802 1.07918 3.75968
0.692089 1.61252 3.1785
1.0354 1.05614 3.19925
0.711111 1.65284 4.29564
1.06031 1.10172 4.32147
0.776145 1.80865 -2.34791
1.15459 1.77609 -2.89697
0.769733 1.91894 -1.15453
1.15673 1.85625 -1.81331
0.742937 2.04271 0.133623
1.14232 1.99086 -0.5079
0.706511 2.11882 1.42201
1.09865 2.0943 0.77113
0.69145 2.15499 2.61615
1.05656 2.1401 2.07736
0.700398 2.18619 3.71445
1.05295 2.16864 3.16278
1.06414 2.20364 4.27289
1.4937 -0.150641 -2.70796
1.5009 -0.0135567 -3.2314
1.48526 -0.129728 -1.43242
1.4942 0.0448924 -2.13009
1.45707 -0.13714 0.0225417
1.48891 0.0478753 -0.697421
1.39079 -0.108763 1.47846
1.44248 0.04363 0.751651
1.35439 -0.051721 2.75964
1.34483 0.106016 2.18636
1.37719 -0.00663873 3.86781
1.35999 0.155188 3.30239
1.39492 0.195308 4.40374
1.5014 0.181977 -2.65353
1.51319 0.454744 -3.12473
1.49785 0.222495 -1.39509
1.51389 0.521236 -2.02724
1.47432 0.228645 0.0316889
1.52353 0.585557 -0.643907
1.39651 0.258409 1.45955
1.47331 0.613313 0.740503
1.35042 0.312924 2.72911
1.36006 0.649675 2.12599
1.37772 0.357134 3.83832
1.36957 0.696578 3.24355
1.40105 0.739238 4.35581
1.52568 0.794004 -2.49843
1.52798 1.27257 -2.97609
1.53956 0.884298 -1.27605
1.53287 1.34513 -1.88471
1.52251 0.970225 0.0649072
1.536 1.46735 -0.558023
[...]
POINT_DATA 29498
VECTORS point_vectors float
-2.67388 -5.62162 7.0977
0.101429 0.297119 1.17959
-0.669458 0.850725 2.47175
-0.0951227 -0.189255 0.0170359
2.67344 -5.61475 7.10176
-0.174648 0.249831 1.1377
0.663349 0.851117 2.46919
0.118558 -0.190943 -0.0108535
0.000372931 0.0010189 0.0411039
0.0433729 -0.00537186 0.198256
0 0 0
0 0 0
-0.000468861 0.00100246 0.0410853
-0.0440594 -0.00542785 0.197469
0 0 0
0 0 0
-0.564042 -0.309121 19.8595
-1.24482 -0.836544 20.5377
-0.316568 -0.452119 21.4214
0.125956 -0.194883 21.5731
0.872399 0.276557 21.5747
1.13473 0.293749 21.1279
0.963074 0.15728 21.1702
-0.717826 -0.25725 19.7381
-1.7706 -0.730346 20.5041
-0.441164 -0.627024 21.4888
0.0573478 -0.39462 21.6353
1.20253 -0.0317401 21.5928
1.42617 -0.0170971 21.3885
1.33266 -0.0821969 21.1613
-0.894226 0.0707005 19.6577
-1.9616 0.0826927 20.5478
-1.20085 -0.45646 21.4485
-0.423824 -0.483667 21.7285
0.515529 -0.785912 21.6423
0.97501 -0.856408 21.5177
1.18723 -0.746035 20.1837
-0.608401 0.403149 19.9623
-0.965326 0.622524 20.4395
-0.92956 0.405925 21.1654
-0.412748 0.0297436 21.4866
-0.00669542 -0.279018 21.46
0.230633 -0.463171 21.2821
0.224386 -0.573126 20.8531
-0.554472 -0.641533 19.3039
-1.66398 -3.32479 20.7606
-0.223209 -0.239012 21.5773
0.151182 0.0436171 21.1228
0.559384 1.31865 19.7648
1.08785 1.70701 18.8092
1.24962 1.20405 17.6853
-0.732377 -0.567333 18.9569
1.67891 1.65925 10.6234
2.24661 1.61394 13.2802
-1.14481 0.276139 18.3581
0.506653 -0.904849 5.49291
1.53964 -0.937709 11.7356
-0.539089 0.853931 19.5648
-0.9906 1.53812 20.1867
-1.26566 1.57475 21.2602
-0.493495 0.349015 21.8827
-0.147326 -0.294131 21.5808
0.0101598 -0.544158 21.1431
-0.0318791 -0.420063 21.8485
0.556721 -0.63695 19.3172
1.65701 -3.33525 20.7646
0.219208 -0.238615 21.5343
-0.159177 0.0436506 20.9744
-0.550973 1.23916 19.4039
-1.15741 1.60888 18.7035
-1.27902 1.10125 17.7955
0.739506 -0.557916 18.9678
-1.88454 1.4451 10.9685
-2.15182 1.33611 14.1614
1.15076 0.272324 18.4061
-0.264909 -0.829872 5.26182
-1.47496 -0.828447 12.6886
0.549137 0.840445 19.5804
0.997309 1.51804 20.1912
1.25639 1.59935 21.2563
0.461955 0.396216 21.8884
0.119612 -0.214092 21.5877
-0.0238848 -0.454886 21.1689
0.0123019 -0.380805 22.0858
0.569408 -0.30371 19.8494
1.23973 -0.828815 20.5378
0.310668 -0.452101 21.4241
-0.129086 -0.212511 21.5695
-0.868545 0.250075 21.5658
-1.10613 0.246079 21.1748
-0.971401 0.0994008 21.0969
0.716181 -0.254492 19.7439
1.77653 -0.739006 20.5006
0.432175 -0.629771 21.4864
-0.0554324 -0.402237 21.6183
-1.12962 -0.0965648 21.5676
-1.34932 -0.0814788 21.3928
-1.23023 -0.0838129 21.4271
0.8864 0.0670429 19.6676
1.95707 0.0833778 20.5473
1.19329 -0.457653 21.4471
0.426124 -0.476802 21.7115
-0.427204 -0.760166 21.5842
-0.834468 -0.752251 21.6192
-0.97676 -0.664559 20.5895
0.602293 0.388195 19.9739
0.95682 0.605897 20.4412
0.932114 0.415045 21.1626
0.422037 0.0622609 21.4933
0.0388108 -0.257525 21.468
-0.213168 -0.429158 21.2822
-0.174944 -0.595774 20.8338
-0.811729 0.0186421 0.956782
-2.12712e-05 -0.0147587 0.256248
-0.00579922 0.00221147 0.13891
-0.0906369 -0.15172 0.0237117
-0.0107216 0.00212518 0.0322228
-0.00111814 0.00812649 0.212569
0.000136867 0.0386282 0.141204
-0.196393 -0.0690573 0.379131
-0.0109275 0.0145327 -0.0205105
0 0 0
0.775916 0.0172149 0.914511
0.00556829 0.00216555 0.13865
0.104627 -0.209372 0.0488587
-0.000687182 0.0076692 0.210738
0.181218 -0.063892 0.350627
0 0 0
0.00559595 -6.58687e-05 0.148988
0.000215219 0.0021865 0.020725
1.75448e-08 -7.45767e-08 -1.6029e-05
0 0 0
0 0 0
0 0 0
-2.65076e-05 0.0235731 0.0472879
-0.000144546 -0.000676023 0.0338855
-0.00611474 -9.62586e-05 0.148754
-0.000218661 0.00216365 0.020735
0 0 0
0 0 0
8.18504e-05 -0.00123517 0.0101561
-0.000733265 0.0158232 0.0745598
0.000707252 0.00172895 0.0331454
-6.23976e-08 -1.01595e-07 1.96648e-05
6.86664e-08 -3.30499e-08 -3.13424e-05
0 0 0
-0.000141233 -0.164792 0.113198
0 0 0
-4.83467e-05 0.00243811 0.0177444
0 0 0
4.14953e-06 6.69782e-06 -0.000160433
-7.95889e-05 -0.0012124 0.00993577
0.000712158 0.0155881 0.0740497
-0.000668717 0.00145617 0.0322424
-3.54244 -2.01546 20.3964
-2.62677 -5.34975 21.1635
-2.1313 -1.79006 17.7206
1.6301 0.92204 14.7906
0.352458 1.3849 12.769
0.971136 0.899945 6.46426
-3.90576 0.691629 20.6651
-3.60807 1.77113 16.6059
-2.1706 2.51179 20.1061
0.819028 -0.34138 15.3222
-0.696317 -1.06029 2.39473
0.0969598 -0.595132 17.8579
2.6307 -5.36164 21.1659
2.13322 -1.77531 17.7321
3.54784 -2.03005 20.3896
-0.413895 1.24381 12.2693
-1.17913 0.639392 6.73691
-1.59779 0.73937 14.7739
3.59964 1.744 16.6805
2.17189 2.48195 20.1085
3.8983 0.689771 20.6642
0.786615 -0.991665 1.6514
-0.131285 -0.437804 16.8632
-0.677704 -0.331308 15.2946
0.101435 -0.67379 20.2168
-0.0796345 0.139351 16.7091
0.00466663 -0.280329 18.5828
0.516528 -0.0441408 15.926
-2.13073 -1.24634 21.4893
-3.67326 2.18957 21.4035
-0.557262 -0.525297 19.6586
-0.732174 0.249567 20.4772
0.0681377 0.134762 16.6295
-0.107883 -0.679379 20.2026
-0.559066 -0.0440105 15.6174
-0.0129879 -0.305193 18.6081
3.67348 2.22637 21.3886
2.12668 -1.24611 21.4826
0.669916 0.292731 20.2096
0.563732 -0.525871 19.6573
-0.953813 -0.579495 19.9956
-0.666782 -0.298783 19.8135
-0.616507 -0.468648 19.5967
-0.801922 -0.686415 21.2595
-1.51209 -0.827313 20.5212
-1.68837 -1.73275 20.5447
-0.0516378 -0.302019 21.4717
-0.381294 -0.552289 21.456
-0.143863 -0.421403 21.6207
0.451836 0.0134153 21.7231
0.108603 -0.295711 21.6076
0.2088 -0.127953 21.6452
1.04537 0.352059 21.3664
1.05677 0.195699 21.5798
0.996734 0.852922 21.2899
1.34132 0.324377 20.6448
1.31262 0.155905 21.3395
1.46224 1.1307 21.333
1.11352 0.0556434 21.3226
1.296 0.79417 21.2266
-1.287 -0.469488 19.865
-0.836949 -0.125266 19.6515
-0.807451 -0.432431 19.3827
-1.08643 -0.738584 21.4047
-2.01663 -0.330566 20.5442
-0.107816 -0.501968 21.5501
-0.828377 -0.682094 21.4761
0.532218 -0.238643 21.836
-0.149888 -0.537633 21.7326
1.39142 0.0207003 21.3495
1.06673 -0.573712 21.4093
1.8056 0.0775622 20.5456
1.4464 -0.488953 21.494
1.97263 0.982737 17.5634
1.54173 -0.795243 20.0336
1.81442 0.673825 17.6312
-1.59054 0.156499 19.8372
-0.805416 0.331833 19.7698
-1.09861 0.142172 19.1608
-1.57741 -0.247846 21.1832
-1.46147 0.554597 20.4366
-0.791276 -0.505513 21.659
-1.3001 0.131039 21.2975
0.0282266 -0.558725 21.8508
-0.537804 -0.146014 21.6624
0.745868 -0.879929 21.4498
0.0997559 -0.506551 21.572
0.974968 -0.700672 21.4223
0.371867 -0.685849 21.1749
1.2771 -0.813703 17.1543
0.281136 -0.510532 21.4941
1.61485 -1.32654 17.7818
-0.809173 0.573034 20.1549
-0.633672 0.61341 19.7706
-1.01144 0.539657 20.8191
-1.07732 1.01771 20.3356
-0.70329 0.237761 21.4352
-1.16967 0.845165 21.2411
-0.182556 -0.150035 21.5068
-0.485534 0.165285 21.6955
0.103865 -0.414768 21.291
-0.0781037 -0.313508 21.5098
0.14672 -0.390938 21.3581
0.133606 -0.501083 21.0304
-0.0220883 -0.367858 21.7309
-1.15657 -1.66078 19.1028
-0.640926 -0.605849 19.1341
-0.00160659 -0.853637 18.9928
-0.59452 -1.04949 22.1664
-0.0069509 -4.51478 21.4279
-0.0545088 -0.039132 21.1729
-0.00749312 -0.439384 21.1696
0.361745 0.599951 20.4948
-0.013555 -0.0119224 19.6972
0.799684 1.5306 19.7213
-0.0375852 0.997432 17.5276
0.860659 1.74116 19.9986
1.39113 1.98477 16.0774
-0.0586537 1.74206 17.9455
1.69277 1.43625 15.8607
-0.163235 2.07494 17.6136
-1.05857 -0.214458 18.528
0.00598558 -0.798731 18.4651
2.08003 1.65427 11.7139
1.94516 -0.172745 4.98151
-0.0535903 1.37107 5.33734
2.35007 0.424742 11.1535
-0.153433 2.09653 11.4586
-0.898908 0.911812 18.9676
0.0190934 0.483502 17.3797
1.02525 -0.812552 6.96246
0.0129145 -1.11352 18.151
0.436709 1.9277 -6.0682
0.174351 -1.36372 17.537
0.509785 1.62559 -3.78538
-0.814972 1.30531 19.7781
0.0121691 1.09673 19.3453
-1.16353 1.59624 20.6127
0.0159642 2.13655 20.0385
-0.91287 0.978286 21.8418
-0.0178794 2.68271 21.2111
-0.252422 -0.0591079 21.7359
-0.0327999 0.671264 22.0957
-0.0901384 -0.436297 21.5228
-0.0442677 -0.0883663 21.6809
0.0545914 -0.776929 20.8901
-0.0286232 -0.393024 21.3905
-0.091325 -0.349059 22.2265
1.15295 -1.65729 19.1137
0.645666 -0.598959 19.1462
0.619656 -0.46613 19.5899
0.590775 -1.04828 22.1647
1.69898 -1.7445 20.5411
0.0525506 -0.0473716 21.1027
0.142605 -0.420605 21.6154
-0.359789 0.585878 20.3639
-0.221023 -0.131877 21.6109
-0.826213 1.44447 19.5771
-0.98956 0.833334 21.2314
-0.984249 1.61613 20.1339
-1.58292 1.85573 16.3137
-1.4751 1.05027 21.3111
-1.72705 1.29441 15.7806
-1.28689 0.618258 21.6096
1.07683 -0.213642 18.551
0.81037 -0.433473 19.3892
-2.07028 1.33416 12.1718
-1.81178 -0.576309 5.00585
-1.88702 0.705199 17.9405
-2.28795 0.43021 12.4324
-1.72425 0.534368 18.0866
0.904835 0.890788 18.9956
1.09442 0.141721 19.1843
-0.831537 -0.699489 7.89149
-0.0534086 -0.912051 17.9803
-1.07764 -0.745317 17.5012
-0.177706 -1.20837 17.2998
-1.54406 -1.3355 17.9997
0.823588 1.29162 19.7837
0.636977 0.596718 19.7838
1.16035 1.58685 20.6119
1.07149 0.991631 20.3407
0.891296 1.03079 21.8547
1.16576 0.859196 21.2358
0.223196 -0.00649621 21.7144
0.486868 0.200635 21.701
0.0668981 -0.338221 21.5398
0.0714759 -0.264923 21.4834
-0.0890562 -0.685599 20.8004
-0.156192 -0.456975 20.9759
0.0267306 -0.364505 21.9148
0.946172 -0.581577 19.9984
0.666529 -0.290634 19.8195
0.79505 -0.684377 21.2709
1.51695 -0.820946 20.5076
0.0417651 -0.311988 21.4667
0.376495 -0.554741 21.4541
-0.456449 -0.0105174 21.7081
-0.114935 -0.307208 21.5956
-1.02122 0.29636 21.3777
-1.03029 0.138339 21.546
-1.27805 0.29382 20.6874
-1.24848 0.104755 21.3968
-1.13194 -0.000400702 21.2547
1.28831 -0.477617 19.8557
0.825034 -0.116307 19.6689
1.08702 -0.745021 21.4012
2.03429 -0.32969 20.5651
0.107142 -0.50036 21.54
0.824778 -0.68125 21.4762
-0.511785 -0.264186 21.806
0.157095 -0.539539 21.7143
-1.29259 -0.06553 21.4085
-0.958098 -0.602665 21.3822
-1.68883 0.0400585 20.7154
-1.2857 -0.488637 21.541
-1.34322 -0.699863 20.4552
1.56616 0.157482 19.8422
0.793494 0.321684 19.7842
1.57837 -0.254364 21.1826
1.44318 0.541964 20.4327
0.78844 -0.505031 21.6442
1.30205 0.129434 21.2948
-0.00183208 -0.549347 21.8032
0.548288 -0.13513 21.6667
-0.620047 -0.829471 21.4603
-0.0508085 -0.468719 21.5616
-0.900181 -0.656478 21.3951
-0.320605 -0.636584 21.2217
-0.322807 -0.487115 21.5379
0.798827 0.558914 20.1624
1.00511 0.536766 20.8174
0.708865 0.253221 21.435
0.194178 -0.125379 21.5059
-0.0640761 -0.357146 21.2694
-0.102397 -0.363957 21.4497
-1.13012 -0.557035 19.9404
-1.59983 -1.88485 18.5384
-1.23818 -1.06326 19.5973
-1.86442 -0.945557 19.1166
-0.730864 -0.472048 19.4966
-2.45513 -2.02746 20.5185
-0.952657 -0.743157 21.3342
-0.388072 -0.415922 18.7379
-0.73064 -1.00553 21.683
-1.01037 -1.33047 22.0682
0.0103269 -0.496114 21.4458
-0.0696276 -0.401855 21.5177
0.0868077 0.135665 16.0104
0.0705023 -0.214683 21.5779
0.303515 -0.306095 19.1868
0.237052 -0.24072 20.8559
0.508842 -0.0922254 21.7992
0.444545 0.571926 14.3233
0.5758 0.304754 21.6816
0.584612 0.22341 16.9866
1.37303 1.02481 19.3478
1.26379 0.231336 21.3633
0.751035 1.67294 14.2457
1.23863 0.995069 21.0849
1.9073 0.82813 16.2095
1.66232 1.20342 19.0092
1.7593 0.229327 20.3899
1.37821 1.62246 15.8139
1.27851 0.991897 21.4223
2.02677 0.516136 18.5978
1.52354 0.778379 19.193
-1.54145 -0.225692 19.7818
-3.18627 -0.488195 16.5301
-2.53858 0.532176 18.9475
-1.0457 -0.1589 19.1625
-4.5202 -0.586193 20.5225
-1.39963 -0.565966 21.3406
-2.62413 -0.629523 21.5882
-0.530824 -1.52396 20.2913
-0.413632 -0.6405 21.6362
-1.19765 -1.07498 20.5342
-0.0489205 -0.0446494 17.5861
0.355876 -0.525087 21.8365
0.213182 -0.0082779 17.6028
1.33172 -0.0242313 12.6499
1.31511 -0.578746 21.1011
0.195123 -0.702696 1.89047
0.841574 -0.604383 16.2262
2.04493 -0.381973 14.4428
1.31917 -0.466939 21.2619
2.35278 0.945204 8.66299
1.56279 -1.2479 17.4701
2.08631 -0.196087 16.6417
-1.20301 0.525046 19.9743
-1.6604 1.97846 19.0505
-0.885031 0.899906 19.9762
-0.895057 0.539239 19.4339
-2.01285 1.24643 20.3189
-1.4622 0.32978 20.9098
-2.54565 2.05632 20.4177
-1.19942 0.994541 20.7472
-2.15976 0.555024 21.4492
-0.939162 -0.0217708 21.5919
-2.36055 0.772624 22.195
-0.877328 0.509934 21.6235
-0.779889 -0.0507408 21.9713
-0.1756 -0.311282 21.6859
-0.0213346 -0.129324 19.1059
-0.234193 -0.114162 21.6361
-0.0352559 -0.642706 21.6761
0.261578 -0.620072 21.4877
0.00939847 -0.737467 18.6549
0.0227404 -0.423653 21.3445
0.251904 -0.890354 21.6618
0.668742 -0.601379 20.7616
0.264239 -1.12857 17.8688
0.113949 -0.602779 21.6585
0.224162 -0.878713 20.494
1.60282 -1.87657 18.5476
-0.00123075 -2.51135 18.4763
0.0120771 -3.11685 15.7865
-0.000392449 -0.939 18.6727
0.000191621 -6.34377 23.3804
0.385037 -0.415671 18.6652
-0.00633889 -1.30431 22.5146
-0.00695511 -0.0494193 12.6444
-0.106692 0.124824 15.841
-0.0103664 -0.212149 20.1418
-0.0122551 0.0406411 12.1645
-0.475582 0.54296 13.9794
-0.0197417 0.434417 18.3899
-0.0907345 0.789173 8.93613
-0.864167 1.52614 14.156
-0.0639009 1.23595 17.458
-0.219859 0.0288787 3.05042
-0.108026 1.90285 11.7763
-1.45395 1.41224 15.8317
-0.114003 2.30032 17.9372
-0.0613696 1.56491 6.37881
-0.167723 2.10885 14.9727
3.18408 -0.480127 16.566
0.0270194 4.20716 12.8798
0.00570181 -0.289211 17.7019
-0.0564841 -1.02095 1.85495
0.0921137 0.874898 -4.38351
0.21934 0.897458 -1.58104
-2.17659 0.672095 8.70561
0.752711 2.23314 -6.54728
0.192815 2.11668 1.63545
1.66605 1.9409 19.0767
0.0149005 1.77135 19.5778
0.0172421 1.34151 18.4212
0.0148128 3.88117 19.8243
2.54029 2.04501 20.4181
0.0031493 2.37302 20.3804
-0.0159894 5.7375 20.4326
2.37821 0.7994 22.0008
-0.0358238 1.72575 22.1434
-0.0355837 0.615957 18.854
-0.0835149 -0.0707202 18.4668
-0.038488 0.123524 21.8366
-0.201261 0.0254632 10.9573
-0.0125082 -0.50841 18.0932
-0.0580751 -0.200754 21.6454
-0.3798 -0.335678 11.4575
-0.283342 -0.964731 17.6263
-0.0200612 -0.610247 21.2232
-0.134985 -0.877032 13.2912
1.12711 -0.559527 19.9379
1.239 -1.0649 19.5986
1.85441 -0.939838 19.126
0.732475 -0.471414 19.4914
2.46543 -2.03988 20.51
0.944069 -0.733551 21.3412
0.731245 -1.00406 21.6815
1.00398 -1.33514 22.0568
-0.0141259 -0.493492 21.4273
0.0645317 -0.407114 21.5121
-0.0757547 -0.212863 21.5632
-0.308015 -0.320653 19.1965
-0.247331 -0.254624 20.7873
-0.506116 -0.114738 21.7784
-0.585804 0.306898 21.5996
-0.596847 0.155299 17.0329
-1.34828 0.951137 19.0226
-1.20994 0.149949 21.3771
-1.2412 0.927868 21.0817
-1.8098 0.576162 16.7177
-1.63421 0.997296 19.3011
-1.65269 0.17113 20.5004
-1.3327 0.85407 21.5233
-2.02574 0.329083 19.3004
-1.46475 0.620783 19.6805
1.53555 -0.212226 19.7934
2.51427 0.521661 18.9748
1.04282 -0.156852 19.1832
4.52851 -0.589085 20.5182
1.40492 -0.570008 21.3367
2.61804 -0.630013 21.5824
0.52885 -1.52777 20.2816
0.416406 -0.642488 21.6283
1.19904 -1.07218 20.5397
0.050937 -0.0717876 17.6242
-0.324611 -0.534417 21.8047
-0.183814 -0.0290487 17.6651
-1.20196 -0.139188 12.647
-1.16492 -0.63203 21.2693
-0.655611 -0.580311 16.7268
-1.82492 -0.498016 15.2318
-1.23526 -0.434995 21.3305
-1.43434 -1.22271 17.9917
-1.94563 -0.366457 17.0731
1.18544 0.504898 19.9886
0.884071 0.873876 19.9856
0.894728 0.528609 19.4519
1.99548 1.21874 20.3193
1.4549 0.333138 20.9107
1.19396 0.988346 20.744
2.1644 0.566379 21.4424
0.951953 -0.0199669 21.5873
0.876266 0.545864 21.6274
0.792876 -0.027016 21.9688
0.19019 -0.293867 21.6678
0.230907 -0.0802886 21.6326
0.0951059 -0.560188 21.6261
-0.208872 -0.572568 21.4624
-0.0154757 -0.367487 21.3454
-0.191246 -0.764341 21.6623
-0.64901 -0.608097 20.7853
-0.0997539 -0.573762 21.7574
-0.173133 -0.799881 20.688
-1.48662 -1.09077 19.4301
-0.79992 -1.15333 21.9708
0.212541 -0.22839 21.032
0.737724 0.278258 20.2941
1.59338 1.07171 19.4754
1.64477 0.74229 19.7491
-2.47515 -0.309059 18.8203
-1.6071 -1.30839 21.8528
0.0122638 -0.850225 18.59
0.45024 0.340535 16.1555
1.4825 -0.263559 13.6905
2.02512 0.197136 15.5165
-1.57761 1.04394 19.5931
-2.11301 0.853399 20.848
-1.47064 0.161015 21.9491
-0.315028 -0.33486 21.8973
0.0989453 -0.782359 21.4907
0.505684 -1.13859 21.4773
0.000847338 -3.03355 17.4649
-0.00516859 -0.447596 14.9565
-0.00947957 -0.0148821 11.9947
-0.0291804 0.364718 10.5409
-0.143631 0.806233 9.92117
-0.0897478 1.82032 11.81
0.0216007 -0.829944 12.8042
0.0778089 0.0723089 -1.05202
0.120738 1.32095 2.26137
0.0175174 3.24011 18.3928
0.00126667 3.69274 19.6271
-0.0352903 2.78795 21.0256
-0.043487 -0.0614488 15.3601
-0.313952 0.0939633 11.4117
-0.205049 -0.779277 12.2014
1.49375 -1.09209 19.4196
0.796159 -1.15835 21.9682
-0.218648 -0.228451 20.9893
-0.752403 0.252804 20.1083
-1.56627 0.913294 19.4824
-1.65545 0.567145 20.3546
2.45842 -0.310434 18.8514
1.60361 -1.31223 21.8405
-0.00968807 -0.861798 18.6078
-0.431508 0.28718 16.2185
-1.28217 -0.417775 14.2574
-1.85071 0.00217604 16.2772
1.56454 1.00961 19.6102
2.10116 0.850562 20.8441
1.49153 0.182301 21.9513
0.333795 -0.295462 21.8539
-0.0287188 -0.665079 21.4648
-0.490983 -1.03433 21.4014
-1.048 -0.195015 0.710475
-0.0058336 -0.0458811 0.325828
-0.0257932 0.00523588 0.262793
0.0115273 -0.0472108 -0.00165469
-0.00274105 -0.000643164 0.0357212
-0.0361738 0.0832882 0.429205
-0.106136 -0.00143612 0.15752
-0.0359222 0.085525 0.29256
-0.712532 -0.037616 1.56196
-0.0105807 -0.0167672 -0.00364987
-0.100377 -0.0138219 -0.0123283
0 0 0
0.00547987 -0.0458305 0.326754
1.01257 -0.187555 0.685337
0.0253156 0.00509962 0.261926
-0.0114621 -0.00337767 0.0331543
-0.0227177 -0.0624146 0.00105007
0.0267925 0.07822 0.416556
0.0360426 0.0853647 0.292684
0.112755 -0.00153361 0.167269
0.708215 -0.0380392 1.5557
0.0818485 0.0140883 -0.0347302
0.0114076 -0.0195621 -0.00375045
0 0 0
-0.00957518 0.0104794 0.135148
0.00351406 9.69305e-05 0.0980954
0 0 0
0 0 0
-0.00166338 0.00870438 0.244561
0.013684 -0.000470111 0.21353
0 0 0
0 0 0
-0.140554 -0.0888191 0.341916
0.000898675 0.00785066 0.0593782
0 0 0
-0.0737041 0.0712545 0.167921
0 0 0
0.00220127 0.00786656 0.0167679
0 0 0
0.0191294 0.00204267 0.115027
0.0092884 0.0103675 0.134943
-3.62399e-18 5.27267e-19 6.43752e-17
-0.00378661 8.34912e-05 0.0978664
0 0 0
0.000447438 0.00851861 0.242884
0 0 0
-0.0146269 -0.000525437 0.213214
0 0 0
0.129541 -0.0818301 0.31493
0.0730367 0.0714708 0.166997
-0.000914829 0.00824829 0.0621824
1.50019e-17 -3.09291e-17 -1.38222e-16
0 0 0
-0.0199041 0.00219627 0.11417
-0.00209411 0.0121264 0.0240579
0 0 0
-0.000252487 -0.000697707 0.00680863
-0.29478 0.111518 0.182624
4.21648e-07 8.87745e-07 -5.21308e-05
2.12651e-05 -0.178056 0.0425167
1.74013e-05 -5.39838e-05 0.00383167
-1.02715e-07 4.43088e-08 -5.12312e-06
0.00711219 0.000203135 0.0560012
0 0 0
0 0 0
-0.0217155 -0.0505771 -0.032868
-3.70633e-07 -1.85445e-06 -3.61066e-05
0 0 0
0.000208376 0.0963668 0.0545269
0.000133963 0.0164465 0.0817485
-0.00299268 -0.00979429 0.0353488
-0.0043067 0.000534963 0.00825098
0 0 0
-0.00715482 -0.0117618 0.0630638
0 0 0
1.08348e-05 -1.19615e-05 0.000287452
0.287805 0.109598 0.17973
0.00024953 -0.000692245 0.00672971
1.93224e-08 7.95713e-09 -9.14331e-07
-1.61756e-05 -5.17045e-05 0.00356935
0 0 0
-0.00691573 -0.000912846 0.0546546
0 0 0
8.13749e-07 -3.4194e-06 -7.96334e-05
0.00429358 0.00055044 0.00833576
0.00321873 -0.0105407 0.0380206
-2.04523e-05 -1.18834e-05 0.00028738
0 0 0
-0.00049362 0.0100019 0.0682737
0 0 0
0 0 0
-0.00181031 0.0181197 0.0795095
0 0 0
7.31652e-08 -5.26597e-08 -2.33788e-05
-0.000637494 0.0199048 0.0530655
-0.000212855 0.00538657 0.0606448
-8.16263e-08 1.63914e-08 3.14067e-05
0 0 0
0.00330475 0.0180892 0.0587489
-0.0523771 0.0427904 0.76136
-5.34136e-05 0.00360138 0.0119811
9.38937e-06 0.000431488 0.00165951
-4.68081e-05 0.000301693 0.0203883
0 0 0
0 0 0
0.000466157 0.00982565 0.0681101
-6.35053e-18 -8.6906e-18 1.27707e-16
0.00177909 0.0179223 0.0793667
0.000622778 0.0196473 0.0526589
0.000220656 0.00509904 0.0600015
0.0506547 0.0433226 0.761655
-0.0032906 0.0179697 0.0585853
-4.4913e-05 -7.61659e-05 0.000733861
-0.157057 -0.180371 0.753636
0 0 0
0.000620457 -0.00145882 0.0210925
-4.5536e-05 0.00201891 0.0147492
0.000606958 0.0171711 0.0617818
-0.00219628 0.0157502 0.118146
0.0301264 0.138388 0.38439
-2.20638e-06 1.0776e-05 0.000371322
0.00192232 0.02575 0.130709
0.00174522 0.000351538 0.0195743
0.0150204 -0.00719745 0.17045