# vtk DataFile Version 2.0
tet_velo
ASCII
DATASET UNSTRUCTURED_GRID
POINTS 29498 float
-0.715 0.105 -1.99212
-0.659107 0.185 2.075
-0.677462 0.705 -1.935
-0.575 0.965 2.06252
0.715 0.105 -1.9921
0.665 0.185 2.06939
0.677465 0.705 -1.935
0.575 0.965 2.06252
-0.736865 0.0911706 -0.636413
-0.729278 0.106794 0.719293
-0.77425 0.922609 -0.602493
-0.727881 0.997061 0.730014
0.738824 0.0911761 -0.63827
0.733554 0.106446 0.71556
0.773676 0.922033 -0.602493
0.727533 0.996711 0.730014
-1.4548 -0.353287 -3.08259
-1.45333 -0.289117 -2.00756
-1.46024 -0.292683 -0.65139
-1.42779 -0.29478 0.7095
-1.36384 -0.244818 2.06606
-1.35229 -0.206891 3.14301
-1.36316 -0.173685 4.21634
-1.45278 0.00758804 -3.06206
-1.45392 0.0968143 -1.98956
-1.47232 0.116584 -0.637657
-1.42407 0.120557 0.716465
-1.32864 0.163176 2.06881
-1.33127 0.199666 3.1455
-1.35449 0.233222 4.21954
-1.43892 0.690741 -3.01471
-1.43716 0.777986 -1.94143
-1.49233 0.93162 -0.60531
-1.4227 0.985508 0.729335
-1.28427 0.976445 2.06602
-1.31044 1.01004 3.14454
-1.3519 1.04954 4.2228
-1.43211 1.85615 -2.96018
-1.43534 1.95979 -1.89015
-1.4554 2.12018 -0.561458
-1.44863 2.22575 0.762508
-1.41359 2.25884 2.09172
-1.39877 2.27653 3.16285
-1.40225 2.30354 4.23868
-0.731272 -0.350383 -3.08432
-0.719539 -0.282852 -2.01012
-0.729082 -0.305328 -0.651793
-0.723628 -0.30507 0.711276
-0.686761 -0.235679 2.06974
-0.680647 -0.201631 3.14521
-0.688635 -0.172687 4.21722
-0.732466 0.00249435 -3.06273
-0.671325 0.205223 3.14739
-0.686248 0.233758 4.22007
-0.718951 0.659038 -3.01214
-0.65448 1.00627 3.14347
-0.688341 1.04696 4.22198
-0.705144 1.83516 -2.9577
-0.702894 1.94041 -1.8874
-0.727877 2.11589 -0.559961
-0.74418 2.22998 0.761877
-0.732827 2.25928 2.08965
-0.723728 2.27447 3.16071
-0.725653 2.30128 4.23691
0.709724 -0.350474 -3.08473
0.726911 -0.282902 -2.01063
0.738931 -0.305404 -0.653544
0.722504 -0.305329 0.708014
0.674981 -0.235787 2.06536
0.659242 -0.201736 3.14178
0.656849 -0.17282 4.21456
0.697456 0.00242077 -3.06295
0.639316 0.20515 3.14406
0.643708 0.233637 4.21755
0.691357 0.658945 -3.01229
0.605407 1.0062 3.1419
0.62471 1.04684 4.22011
0.73861 1.83494 -2.9581
0.749632 1.94015 -1.88777
0.734281 2.11558 -0.560412
0.679933 2.22969 0.761283
0.629871 2.25906 2.08885
0.620288 2.27429 3.15964
0.623171 2.3011 4.2356
1.43673 -0.353527 -3.08359
1.45519 -0.289337 -2.00885
1.47058 -0.29297 -0.654366
1.44073 -0.295235 0.70429
1.373 -0.245121 2.05937
1.34562 -0.207152 3.13705
1.34092 -0.173974 4.21133
1.42624 0.00735898 -3.06275
1.44884 0.0965766 -1.99028
1.47695 0.116258 -0.640162
1.44085 0.120057 0.711662
1.34834 0.162926 2.06232
1.32093 0.199444 3.13984
1.32373 0.232951 4.21479
1.41994 0.690464 -3.01521
1.43599 0.777634 -1.94175
1.49482 0.930926 -0.606216
1.43027 0.984945 0.72757
1.2909 0.976189 2.06355
1.28164 1.00981 3.14115
1.30013 1.04926 4.21912
1.45987 1.85571 -2.96107
1.47118 1.95927 -1.89102
1.45973 2.11957 -0.562521
1.39866 2.2252 0.761115
1.33032 2.25841 2.08991
1.30859 2.27615 3.16057
1.30811 2.30318 4.236
-0.732014 0.405 -1.99934
0 0.0997863 -1.99732
-0.738272 0.0857454 -1.31427
-0.677517 0.575 2.12922
0.0029465 0.182605 2.07459
-0.715389 0.1247 1.39715
1.51992e-06 0.743874 -1.97387
-0.764771 0.85272 -1.26875
0 1.02268 2.1202
-0.662068 0.991658 1.39627
0.732131 0.405 -1.99945
0.739254 0.0857458 -1.31519
0.680531 0.575 2.12649
0.720452 0.124548 1.39248
0.764562 0.852507 -1.26875
0.663216 0.992806 1.39627
-0.734846 0.0972071 0.04144
-0.875603 0.50689 -0.619453
0.000979409 0.0896014 -0.637342
-0.880543 0.551927 0.724653
0.00213807 0.0983403 0.717427
-0.748971 0.95774 0.06376
-0.000286776 1.11414 -0.602493
-0.00017415 1.32667 0.730014
0.73809 0.0969103 0.038645
0.875606 0.506605 -0.620382
0.873666 0.551579 0.722787
0.74899 0.957757 0.06376
-0.874667 0.455945 -1.29151
-0.8692 0.529408 0.0526
-0.878361 0.563464 1.39671
0.000489704 0.0829916 -1.31473
0.00155874 0.0964193 0.0400425
0.00254228 0.124304 1.39481
7.59959e-07 0.405 -2.10412
0.00147325 0.575 2.20222
-0.000142628 0.912727 -1.26875
-0.000230463 1.32896 0.06376
-8.7075e-05 1.16857 1.39627
0.874665 0.455802 -1.29197
0.869181 0.529092 0.0512025
0.878381 0.563289 1.39437
-1.08446 0.100907 -1.99084
-0.717269 -0.088926 -2.00112
-0.723733 0.0537472 -2.52742
-0.993871 0.174088 2.07191
-0.672934 -0.0253396 2.07237
-0.665216 0.195112 2.61119
-1.05731 0.741493 -1.93821
-0.698207 0.682019 -2.47357
-0.690178 1.32271 -1.9112
-0.929633 0.970723 2.06427
-0.61474 0.985637 2.603
-0.653914 1.61214 2.07608
0.720955 -0.088951 -2.00136
0.706228 0.0537104 -2.52752
1.08192 0.100788 -1.99119
0.66999 -0.0253936 2.06737
0.652158 0.195075 2.60672
1.00667 0.173963 2.06586
0.684411 0.681973 -2.47364
0.713549 1.32258 -1.91139
1.05673 0.741317 -1.93837
0.590204 0.9856 2.60221
0.602435 1.61203 2.07568
0.932949 0.970594 2.06303
-1.10459 0.103877 -0.637035
-0.732973 -0.107079 -0.644103
-1.07668 0.113675 0.717879
-0.726453 -0.0991382 0.715285
-1.13329 0.927114 -0.603901
-0.751064 1.51925 -0.581227
-1.07529 0.991284 0.729674
-0.736031 1.61352 0.745945
0.738877 -0.107114 -0.645907
1.10789 0.103717 -0.639216
0.728029 -0.0994414 0.711787
1.0872 0.113252 0.713611
0.753979 1.5188 -0.581453
1.13425 0.92648 -0.604355
0.703733 1.6132 0.745648
1.0789 0.990828 0.728792
-1.45407 -0.321202 -2.54508
-1.45379 -0.172849 -3.07233
-1.09304 -0.351835 -3.08346
-1.45678 -0.2909 -1.32948
-1.45362 -0.0961512 -1.99856
-1.08643 -0.285984 -2.00884
-1.44401 -0.293731 0.0290552
-1.46628 -0.0880495 -0.644523
-1.09466 -0.299005 -0.651592
-1.39581 -0.269799 1.38778
-1.42593 -0.0871119 0.712983
-1.07571 -0.299925 0.710388
-1.35806 -0.225854 2.60454
-1.34624 -0.040821 2.06744
-1.0253 -0.240249 2.0679
-1.35773 -0.190288 3.67967
-1.34178 -0.00361237 3.14426
-1.01647 -0.204261 3.14411
-1.35882 0.0297684 4.21794
-1.0259 -0.173186 4.21678
-1.45335 0.0522012 -2.52581
-1.44585 0.349165 -3.03839
-1.09262 0.0050412 -3.06239
-1.46312 0.106699 -1.31361
-1.44554 0.4374 -1.96549
-1.4482 0.11857 0.039404
-1.48232 0.524102 -0.621483
-1.37636 0.141866 1.39264
-1.42339 0.553032 0.7229
-1.32996 0.181421 2.60715
-1.30645 0.569811 2.06742
-1.34288 0.216444 3.68252
-1.32086 0.604853 3.14502
-1.0013 0.202444 3.14644
-1.35319 0.641379 4.22117
-1.02037 0.23349 4.2198
-1.43804 0.734364 -2.47807
-1.43551 1.27345 -2.98745
-1.07893 0.67489 -3.01342
-1.46475 0.854803 -1.27337
-1.43625 1.36889 -1.91579
-1.45752 0.958564 0.0620129
-1.47387 1.5259 -0.583384
-1.35348 0.980976 1.39768
-1.43566 1.60563 0.745922
-1.29736 0.993243 2.60528
-1.34893 1.61764 2.07887
-1.33117 1.02979 3.68367
-1.35461 1.64329 3.15369
-0.982462 1.00816 3.14401
-1.37707 1.67654 4.23074
-1.02012 1.04825 4.22239
-1.43373 1.90797 -2.42516
-1.06863 1.84566 -2.95894
-1.44537 2.03998 -1.2258
-1.06912 1.9501 -1.88877
-1.45202 2.17296 0.100525
-1.09164 2.11804 -0.560709
-1.43111 2.2423 1.42711
-1.0964 2.22786 0.762193
-1.40618 2.26769 2.62728
-1.07321 2.25906 2.09068
-1.40051 2.29003 3.70076
-1.06125 2.2755 3.16178
-1.06395 2.30241 4.23779
-0.725405 -0.316618 -2.54722
-0.731869 -0.173944 -3.07352
-0.0107739 -0.350428 -3.08453
-0.72431 -0.29409 -1.33096
0.00368611 -0.282877 -2.01037
-0.726355 -0.305199 0.0297412
0.00492446 -0.305366 -0.652669
-0.705195 -0.270375 1.39051
-0.000562031 -0.3052 0.709645
-0.683704 -0.218655 2.60748
-0.00589026 -0.235733 2.06755
-0.684641 -0.187159 3.68121
-0.675986 0.00179583 3.1463
-0.0107027 -0.201684 3.1435
-0.687441 0.0305354 4.21864
-0.0158929 -0.172754 4.21589
-0.725708 0.330766 -3.03743
-0.0175049 0.00245756 -3.06284
-0.678787 0.219491 3.68373
-0.662903 0.605749 3.14543
-0.0160049 0.205187 3.14572
-0.687295 0.64036 4.22102
-0.02127 0.233698 4.21881
-0.712047 1.2471 -2.98492
-0.0137972 0.658992 -3.01221
-0.671411 1.02662 3.68272
-0.689104 1.64037 3.15209
-0.0245364 1.00624 3.14269
-0.706997 1.67412 4.22944
-0.0318156 1.0469 4.22105
-0.704019 1.88779 -2.42255
0.016733 1.83505 -2.9579
-0.715386 2.02815 -1.22368
0.0233691 1.94028 -1.88758
-0.736029 2.17294 0.100958
0.00320176 2.11574 -0.560186
-0.738504 2.24463 1.42576
-0.0321235 2.22983 0.76158
-0.728278 2.26687 2.62518
-0.0514784 2.25917 2.08925
-0.72469 2.28788 3.69881
-0.0517201 2.27438 3.16018
-0.051241 2.30119 4.23625
0.718317 -0.316688 -2.54768
0.70359 -0.174027 -3.07384
1.07323 -0.352 -3.08416
0.732921 -0.294153 -1.33208
1.09105 -0.28612 -2.00974
0.730717 -0.305367 0.027235
1.10475 -0.299187 -0.653955
0.698742 -0.270558 1.38669
1.08162 -0.300282 0.706152
0.667111 -0.218762 2.60357
1.02399 -0.240454 2.06237
0.658045 -0.187278 3.67817
0.649279 0.00170711 3.14292
1.00243 -0.204444 3.13941
0.650279 0.0304084 4.21605
0.998883 -0.173397 4.21294
0.694406 0.330683 -3.03762
1.06185 0.00488988 -3.06285
0.641512 0.219394 3.6808
0.622361 0.605675 3.14298
0.980124 0.202297 3.14195
0.634209 0.640238 4.21883
0.98372 0.233294 4.21617
0.714983 1.24694 -2.98519
1.05565 0.674704 -3.01375
0.615059 1.02652 3.68101
0.612847 1.64024 3.15077
0.943521 1.00801 3.14153
0.623941 1.67397 4.22786
0.962418 1.04805 4.21962
0.744121 1.88755 -2.42293
1.09924 1.84533 -2.95958
0.741957 2.02787 -1.22409
1.11041 1.94971 -1.88939
0.707107 2.17263 0.100436
1.097 2.11757 -0.561466
0.654902 2.24438 1.42506
1.0393 2.22744 0.761199
0.625079 2.26668 2.62424
0.980094 2.25874 2.08938
0.621729 2.2877 3.69762
0.964437 2.27522 3.16011
0.965643 2.30214 4.2358
1.44596 -0.321432 -2.54622
1.43149 -0.173084 -3.07317
1.46288 -0.291154 -1.33161
1.45202 -0.0963804 -1.99956
1.45565 -0.294103 0.024962
1.47376 -0.0883559 -0.647264
1.40686 -0.270178 1.38183
1.44079 -0.0875889 0.707976
1.35931 -0.226137 2.59821
1.36067 -0.0410972 2.06085
1.34327 -0.190563 3.67419
1.33327 -0.00385436 3.13845
1.33232 0.0294884 4.21306
1.43754 0.0519678 -2.52652
1.42309 0.348911 -3.03898
1.4629 0.106418 -1.31522
1.44242 0.437105 -1.96601
1.4589 0.118158 0.0357498
1.48588 0.523592 -0.623189
1.3946 0.141492 1.38699
1.43556 0.552501 0.719616
1.33464 0.181185 2.60108
1.31962 0.569558 2.06294
1.32233 0.216197 3.67731
1.30128 0.604628 3.1405
1.31193 0.641105 4.21695
1.42796 0.734049 -2.47848
1.4399 1.27309 -2.98814
1.4654 0.85428 -1.27398
[...]
POINT_DATA 29498
VECTORS point_vectors float
-1.66656 -2.8484 4.59521
-0.0488799 0.292712 0.779437
-1.50557 2.29053 4.2321
-0.0152471 -0.0123093 0.0794865
1.69621 -2.90714 4.64953
0.0490413 0.28727 0.829587
1.42381 2.32987 4.245
0.0183507 -0.0161324 0.0870333
0.000250635 9.56335e-06 0.00790899
0 0 0
-0.00108429 -0.000948071 0.0130035
0 0 0
-0.000458675 2.76878e-05 0.0147645
-0.000102318 0.000385832 0.0170034
0 0 0
0 0 0
-0.630556 -0.32944 19.8395
-1.27121 -0.83228 20.5788
-0.434258 -0.403403 21.4538
0.100402 -0.0156878 21.5913
0.580909 0.371718 21.4721
0.802722 0.455592 21.052
0.713356 0.413788 20.6741
-0.806084 -0.256248 19.6985
-1.93571 -0.727927 20.5289
-0.664238 -0.495003 21.5634
0.0819136 -0.175239 21.7423
0.965637 0.263061 21.4223
1.1926 0.292737 21.1333
0.964071 0.294072 20.7789
-0.917765 0.157474 19.5703
-2.25037 0.369407 20.3814
-1.26755 -0.190635 21.5371
-0.168599 -0.310242 21.8728
0.908327 -0.596207 21.4938
1.18962 -0.613968 21.1371
0.899818 -0.500931 20.6511
-0.494976 0.444346 19.9723
-0.78335 0.693509 20.4265
-0.668217 0.49378 21.1146
-0.203901 0.0402541 21.4958
0.128199 -0.277227 21.3287
0.251155 -0.386814 21.048
0.220167 -0.389732 20.8053
-0.612289 -0.721777 19.3345
-1.57437 -2.92384 20.9109
-0.271903 -0.400344 21.9873
0.0462458 0.219724 21.6722
0.162005 1.01283 20.6553
0.28702 1.18519 19.5052
0.269391 1.27259 19.5897
-0.829652 -0.597835 18.8868
0.564607 1.5639 9.87747
1.4568 1.07059 12.8865
-1.0323 0.329969 18.4422
1.44128 -0.52666 9.93672
1.45123 -0.878515 14.6884
-0.395273 0.750643 19.6995
-0.713072 1.39363 20.2474
-0.733077 1.24091 21.2299
-0.25867 0.181031 21.7981
0.0326825 -0.398385 21.4653
0.149338 -0.505018 21.0824
0.122534 -0.38799 20.6946
0.602057 -0.725423 19.3247
1.59842 -2.88455 20.8948
0.271113 -0.399146 21.9846
-0.041023 0.220345 21.678
-0.153892 1.00924 20.6352
-0.269095 1.16128 19.4097
-0.218931 1.33003 19.2536
0.810618 -0.617856 18.8402
-0.358148 1.43528 9.00371
-1.35994 1.16088 12.3962
1.00662 0.337634 18.4002
-1.3675 -0.392886 8.29701
-1.5391 -0.913599 13.3072
0.406829 0.740085 19.7131
0.736242 1.34878 20.2523
0.738094 1.24294 21.2278
0.251455 0.214688 21.8218
-0.0357278 -0.397316 21.4593
-0.132185 -0.537131 21.024
-0.120029 -0.418915 20.833
0.627044 -0.338842 19.8318
1.26198 -0.838471 20.5852
0.44315 -0.405513 21.44
-0.0985619 -0.0149941 21.5912
-0.574474 0.374255 21.4667
-0.795214 0.45935 21.0431
-0.713905 0.440225 20.691
0.822552 -0.265063 19.6685
1.94582 -0.737864 20.5259
0.671327 -0.498228 21.5575
-0.0745835 -0.175247 21.7247
-0.930111 0.238088 21.4357
-1.18661 0.308152 21.1148
-0.969988 0.329785 20.8084
0.922073 0.165766 19.5622
2.24009 0.371027 20.3823
1.27056 -0.193428 21.539
0.166289 -0.308206 21.8673
-0.897653 -0.592617 21.5304
-1.23409 -0.634517 21.1097
-0.969041 -0.537038 20.6511
0.491278 0.426543 19.986
0.771402 0.659868 20.4302
0.670534 0.494153 21.1101
0.210197 0.0415071 21.5119
-0.129097 -0.298546 21.3459
-0.241653 -0.416343 21.0156
-0.18224 -0.361084 20.8466
-0.571335 -0.0392564 0.794911
-1.45386e-05 -0.0170277 0.0722196
-0.00798585 0.0035827 0.148496
-0.0173749 0.012112 -0.00549891
0.00134984 0.00810569 0.0349017
-0.00689218 0.0137425 0.318788
0.00246996 0.0609799 0.148506
-0.185331 0.0244518 0.623658
-0.00334022 0.0787861 -0.0431529
0 0 0
0.577266 -0.0382725 0.806432
0.0098537 0.00429466 0.187386
0.018835 0.0143395 -0.00656632
0.00856395 0.0158674 0.367654
0.20148 0.0218109 0.627491
-0.00132999 3.97333e-05 0.00472959
0 0 0
0 0 0
-2.38753e-07 9.19083e-08 0.000116396
-0.00205312 0.0230441 0.0667353
-1.16168e-05 3.19551e-05 0.0186587
0 0 0
-2.3756e-05 0.000580773 0.00129039
0.000163721 -0.00129974 0.0277081
-3.20627e-18 4.91816e-18 1.99725e-16
0 0 0
0 0 0
0 0 0
-0.000537865 -0.00340575 0.050261
0 0 0
0.000478555 0.00554388 0.0453736
3.35416e-08 5.47614e-08 -3.13655e-06
0 0 0
0 0 0
0 0 0
0 0 0
0 0 0
-2.42176e-05 0.00069716 0.00591431
-1.14651e-07 4.34526e-06 5.10401e-06
0.000569902 -0.00408432 0.0546962
0 0 0
-0.000763611 0.00489268 0.0427204
-3.6182 -2.00946 20.4128
-2.44663 -4.9732 21.5018
-2.34753 -2.00928 17.6737
1.1492 1.17804 15.01
-0.106625 1.17828 13.5122
-0.256857 1.00635 6.05123
-4.43297 1.37954 20.0401
-3.03558 1.58421 16.5976
-1.80405 2.68599 19.8646
1.53216 -0.205463 14.9584
0.578214 -0.146895 5.28859
0.0848799 -0.824694 21.3997
2.46456 -4.94512 21.4994
2.351 -2.05548 17.5932
3.65322 -2.03381 20.4042
0.111564 1.15731 13.4529
0.368937 0.925568 5.65986
-1.15324 1.11689 15.5044
3.02808 1.65115 16.508
1.80652 2.54344 19.8985
4.40505 1.39984 20.0393
-0.496901 -0.0296533 4.5814
-0.0775457 -0.800192 21.1133
-1.55742 -0.198958 15.2165
-0.453242 -0.714654 20.3628
0.0208538 -0.099685 17.8661
0.199223 0.108105 17.7113
0.13406 0.315766 16.0934
-2.17353 -0.681574 21.6785
-2.18815 2.07952 21.3424
0.0177397 -0.271028 19.655
-0.51903 0.0724504 22.3951
-0.0231159 -0.10626 17.9396
0.467388 -0.73203 20.4776
-0.13539 0.317851 16.1391
-0.192452 0.0744472 18.0917
2.21245 2.11045 21.3399
2.18601 -0.703097 21.6886
0.53269 0.112878 22.4445
-0.0181931 -0.288234 19.8188
-1.01381 -0.599469 20.0108
-0.708397 -0.299651 19.7851
-0.666062 -0.505025 19.621
-0.862403 -0.660991 21.2671
-1.56136 -0.840752 20.566
-1.63673 -1.67513 20.637
-0.128466 -0.191638 21.5623
-0.534133 -0.470182 21.5176
-0.300018 -0.497079 21.6742
0.333029 0.162983 21.6077
0.102805 -0.0960856 21.6397
0.165418 0.0935437 21.6915
0.717699 0.461215 21.3744
0.785619 0.366257 21.4937
0.575312 0.783242 21.4442
0.823421 0.409707 20.9795
1.03653 0.455686 21.0481
0.773707 0.974242 20.8217
0.838403 0.370662 20.7492
0.699928 0.770006 20.8378
-1.41916 -0.483961 19.816
-0.902293 -0.101612 19.5854
-0.887079 -0.423116 19.344
-1.30973 -0.678809 21.4221
-2.35946 -0.264002 20.4509
-0.247129 -0.343201 21.6773
-0.960133 -0.432019 21.5931
0.474453 0.0350485 21.7019
0.00863247 -0.254919 21.7905
1.12037 0.315235 21.1997
1.15953 -0.134806 21.3737
1.36267 0.150685 20.4991
1.39913 -0.133536 21.1102
1.49595 1.09683 17.3766
1.23303 -0.224826 20.6118
1.29915 0.658386 18.8565
-1.66188 0.30291 19.6677
-0.729881 0.407895 19.7528
-1.04228 0.204052 19.1269
-1.79909 0.0671459 21.2363
-1.4103 0.804131 20.3647
-0.729942 -0.299677 21.8054
-1.14502 0.398753 21.3161
0.408301 -0.384187 21.8289
-0.298223 -0.0767582 21.7129
1.01856 -0.646511 21.3817
0.314516 -0.491885 21.4433
1.15214 -0.598672 20.8288
0.476745 -0.591488 21.1156
1.52133 -0.792941 18.8731
0.398661 -0.502514 20.885
1.19144 -0.764376 20.4786
-0.6741 0.612723 20.1356
-0.483335 0.582323 19.8353
-0.784236 0.645828 20.7986
-0.811896 1.00114 20.3383
-0.482136 0.269965 21.4109
-0.786331 0.829583 21.1829
-0.00111296 -0.147103 21.3982
-0.242844 0.0942556 21.6357
0.194407 -0.34895 21.1779
0.112249 -0.3571 21.338
0.199337 -0.334428 20.8964
0.21315 -0.493718 21.0066
0.166062 -0.410765 20.811
-1.22089 -1.75193 19.2727
-0.729172 -0.710576 19.1006
-0.00323918 -0.967672 18.9755
-0.670977 -1.14174 22.0362
0.010665 -4.48949 21.3705
-0.0850369 -0.0485547 21.8207
0.00148794 -0.737866 21.3503
0.113646 0.54361 21.2967
-0.00878589 -0.0225362 19.51
0.193731 1.11637 20.1465
-0.012772 0.499673 17.369
0.643123 1.40684 18.9575
0.304918 1.55024 15.4998
-0.0151004 0.770623 15.9883
0.567891 1.34862 16.5825
-0.00163639 1.37779 13.809
-1.01255 -0.21261 18.4736
-0.0284204 -0.895395 18.3017
1.28646 1.37129 11.5993
1.11765 0.511927 5.13581
-0.0507969 -0.479879 -0.876983
2.32387 0.369776 10.709
0.121192 0.492061 5.95907
-0.710166 0.860412 19.1125
-0.0247852 0.475851 17.6599
1.56968 -0.900573 12.3821
0.269883 -1.03424 20.9166
0.129973 -0.0993604 -0.486848
0.346617 -0.885888 20.3433
0.0315156 -1.77035 3.16686
-0.577475 1.13065 19.864
0.01391 0.894656 19.5437
-0.767069 1.39876 20.6985
0.0375917 1.78238 20.1287
-0.541482 0.776965 21.6608
-0.00399182 1.76445 21.2149
-0.064121 -0.190768 21.6126
-0.0127045 0.324651 21.926
0.101332 -0.505433 21.3444
0.0043934 -0.406663 21.4253
0.133738 -0.672861 20.6618
0.0123582 -0.650266 21.0029
-0.00823231 -0.720877 20.6879
1.21914 -1.75576 19.2728
0.711517 -0.709073 19.0779
0.656949 -0.515102 19.5996
0.681526 -1.13803 22.0252
1.62904 -1.66508 20.6275
0.0821023 -0.0493974 21.8172
0.309495 -0.508641 21.6622
-0.112588 0.54494 21.274
-0.153598 0.088457 21.6907
-0.18407 1.09028 20.1298
-0.570282 0.778518 21.4362
-0.570856 1.40598 18.6013
-0.206537 1.47819 15.1026
-0.791584 0.970525 20.8456
-0.47961 1.41893 16.179
-0.690972 0.79018 20.8857
0.978808 -0.204439 18.4213
0.893275 -0.444102 19.3044
-1.20152 1.41426 11.0847
-0.859653 0.486456 3.99676
-1.48581 1.16156 16.9443
-2.43863 0.403109 9.10342
-1.32927 0.680466 18.3594
0.71061 0.857033 19.1176
1.04388 0.212399 19.0916
-1.5814 -0.871474 10.9528
-0.267525 -1.01419 20.7012
-1.57305 -0.770877 18.0955
-0.341126 -0.900588 20.3317
-1.21979 -0.742668 20.0083
0.599575 1.11612 19.8796
0.490994 0.565558 19.8502
0.786962 1.37842 20.6876
0.815194 0.9497 20.3361
0.527667 0.818853 21.6691
0.791097 0.834565 21.1778
0.0627728 -0.185278 21.6167
0.250701 0.111728 21.6598
-0.0944556 -0.504159 21.2818
-0.0965494 -0.371403 21.3576
-0.133472 -0.654963 20.7468
-0.204782 -0.494604 21.0216
-0.145855 -0.405784 20.7733
1.012 -0.604718 20.0076
0.714103 -0.310639 19.7689
0.870141 -0.658403 21.2593
1.56537 -0.841449 20.5627
0.144525 -0.19517 21.5484
0.541195 -0.471839 21.5092
-0.327738 0.144574 21.5949
-0.0900961 -0.108299 21.62
-0.702929 0.444195 21.3564
-0.763596 0.349074 21.4851
-0.821378 0.406662 20.97
-1.03823 0.48134 21.0378
-0.841049 0.398941 20.7752
1.43693 -0.496736 19.7989
0.911817 -0.108662 19.5706
1.31459 -0.68311 21.416
2.36823 -0.261757 20.452
0.254768 -0.341834 21.6628
0.96055 -0.433677 21.5955
-0.457577 0.0201945 21.7157
-0.00104182 -0.252748 21.7989
-1.09898 0.309313 21.195
-1.12505 -0.12995 21.3882
-1.37292 0.182823 20.4251
-1.42595 -0.13347 21.109
-1.31321 -0.166397 20.6149
1.66609 0.310363 19.6614
0.725265 0.402891 19.7623
1.79938 0.0645458 21.2301
1.379 0.772604 20.3659
0.724905 -0.300987 21.8044
1.15021 0.396418 21.3133
-0.407247 -0.381463 21.825
0.306689 -0.07893 21.7349
-1.02676 -0.650165 21.3436
-0.316996 -0.516432 21.4477
-1.20166 -0.626861 20.816
-0.46677 -0.638327 21.1635
-0.403224 -0.556324 20.7844
0.663886 0.587299 20.1525
0.781965 0.628805 20.7979
0.489763 0.27869 21.4165
0.00561393 -0.149848 21.4271
-0.178983 -0.355628 21.1793
-0.213719 -0.37907 20.9385
-1.20999 -0.587859 19.9348
-1.68604 -2.05927 18.6483
-1.21409 -1.08283 19.7149
-1.95888 -1.00858 19.1432
-0.767256 -0.475516 19.4828
-2.41969 -2.0128 20.6001
-1.07138 -0.711266 21.3458
-0.49108 -0.690073 19.7246
-0.805597 -1.00161 21.6118
-1.40447 -1.43371 22.0061
-0.306185 -0.657503 21.6984
-0.182459 -0.281299 21.5819
0.130039 0.133435 16.5536
-0.0381661 -0.175626 21.703
-0.0452345 -0.229534 18.714
0.252708 0.0701964 20.9702
0.415204 0.112142 21.675
0.0705688 0.563336 14.8221
0.346447 0.394535 21.6715
0.47658 0.535047 16.296
0.863295 1.05404 19.5826
0.924661 0.433188 21.3081
0.0144807 1.27879 14.3518
0.693082 0.870694 21.0748
1.22532 1.10047 16.532
1.23105 1.13436 19.9663
1.09052 0.428489 20.7526
0.644421 1.53853 16.177
0.967218 1.0415 20.6692
1.56729 0.930622 18.6437
0.921171 0.891573 20.4086
-1.67249 -0.167142 19.6751
-3.22771 -0.543311 16.3447
-2.41713 0.662514 18.7588
-1.03265 -0.130315 19.148
-5.08974 -0.469764 20.1321
-1.67115 -0.387052 21.4343
-2.85095 -0.043967 21.7659
-0.803169 -0.819396 20.4997
-0.436482 -0.383097 21.7842
-1.09465 -0.767668 20.6305
0.200045 0.17489 17.0942
0.516692 -0.150918 21.7263
1.08434 0.308436 17.1237
1.30934 0.545756 11.2843
1.2941 -0.149525 21.1303
-0.0217302 0.589813 1.64256
1.41122 -0.5552 17.4523
2.10864 0.157615 16.1714
1.45098 -0.147043 20.4795
2.03533 0.48402 8.14202
1.5269 -0.851072 20.2461
1.71804 0.135627 18.6302
-1.12377 0.671114 19.913
-1.28923 1.80594 19.0312
-0.675757 0.850108 20.0126
-0.761253 0.59547 19.4716
-1.77849 1.54315 20.1531
-1.35388 0.634342 20.9138
-1.88692 2.15808 20.7185
-0.851699 0.968381 20.7669
-1.6979 0.881865 21.4322
-0.764589 0.155058 21.6383
-1.58003 1.16398 22.4786
-0.564643 0.496852 21.5507
-0.419347 -0.0416972 22.0043
0.098439 -0.319952 21.6425
-0.0581176 -0.559954 21.9762
-0.0305013 -0.181694 21.5113
0.274229 -0.6885 21.5564
0.411434 -0.563208 21.2649
0.165126 -0.947079 21.3519
0.165683 -0.435899 21.2145
0.426053 -0.818852 21.3545
0.55196 -0.499856 20.8881
0.301637 -1.07505 20.4009
0.198793 -0.464756 20.976
0.400569 -0.73302 20.4994
1.68271 -2.0886 18.6312
-0.00508168 -2.75054 18.6001
-0.0410775 -3.57782 15.521
-0.0117131 -0.968695 18.648
0.00647575 -6.97171 22.9715
0.487246 -0.709315 19.8675
0.00286328 -1.76091 22.4779
-0.00718658 -0.258806 10.8106
-0.130231 0.131489 16.6423
-0.000562344 -0.289818 20.1288
-0.00517786 0.0527428 10.3657
-0.06998 0.562045 14.8318
0.000563313 0.24187 18.4924
-0.0229923 0.391126 8.01922
0.0309523 1.23957 14.1015
-0.019179 0.464187 16.8889
-0.0896447 -0.703996 -1.04188
-0.0639969 0.511667 7.57995
-0.575226 1.57606 15.7754
-0.009063 0.937472 15.0479
0.0248309 -0.306653 1.74963
0.0861571 1.52349 9.57364
3.23926 -0.539571 16.2265
-0.0242794 3.17411 13.9017
-0.0286537 -0.277765 17.6945
0.16508 0.594596 1.2628
-0.0292506 0.372921 0.103842
0.15601 -1.32413 -4.25368
-2.00696 0.577447 6.78436
0.113457 -1.31379 1.25558
0.169834 -1.73992 0.0211103
1.29062 1.76863 19.0721
0.0314349 1.44406 19.7059
0.00366955 1.14796 18.733
0.0696624 3.74199 19.5905
1.90444 2.13372 20.6853
0.0203426 1.8247 20.6205
-0.0219973 4.04621 20.9117
1.59817 1.23138 22.5075
-0.0173667 1.15894 21.8246
-0.0316609 0.525783 22.6286
0.0618547 -0.546977 21.8155
-0.00645531 -0.162963 21.6629
-0.0143862 -0.623928 19.4778
-0.140253 -0.907338 21.0402
0.01023 -0.548046 21.3348
-0.00219912 -0.942273 19.8961
-0.268391 -1.11866 20.2426
0.00121344 -0.506402 20.7303
0.0158283 -0.811008 18.9911
1.22444 -0.598833 19.9192
1.21982 -1.0898 19.701
1.98084 -1.03525 19.098
0.77042 -0.483463 19.4641
2.4186 -2.00402 20.5954
1.07626 -0.713918 21.3373
0.81773 -1.00442 21.5984
1.41684 -1.43719 22.0144
0.322943 -0.664394 21.701
0.188379 -0.285547 21.5723
0.0416353 -0.182865 21.6976
0.053418 -0.252926 18.9528
-0.244871 0.051571 21.0056
-0.402045 0.101065 21.6679
-0.353489 0.392767 21.6669
-0.487247 0.503665 16.6426
-0.86194 1.03036 19.6272
-0.909438 0.426147 21.3043
-0.684039 0.877181 21.0396
-1.19987 1.09886 16.4071
-1.21056 1.14223 19.6911
-1.09796 0.478376 20.7178
-0.97536 1.05574 20.6378
-1.56736 0.978521 17.8241
-0.943625 0.898559 19.971
1.68992 -0.170439 19.6643
2.44503 0.685727 18.7197
1.03211 -0.131051 19.1185
5.1213 -0.461176 20.1282
1.67533 -0.388483 21.4311
2.85981 -0.0472499 21.7428
0.812335 -0.827858 20.5657
0.435275 -0.379074 21.7833
1.08887 -0.790489 20.7076
-0.187616 0.152387 17.2861
-0.504977 -0.15332 21.7431
-1.09259 0.268655 17.4581
-1.30954 0.552341 11.6993
-1.28648 -0.151888 21.1357
-1.4298 -0.500124 16.9896
-2.17623 0.190441 15.56
-1.51809 -0.119525 20.197
-1.55373 -0.86205 19.252
-1.76631 0.170737 17.9409
1.10813 0.655346 19.9255
0.679152 0.807898 20.0263
0.760305 0.590096 19.4753
1.75573 1.47727 20.1637
1.34203 0.619381 20.908
0.857833 0.951776 20.7616
1.70961 0.885084 21.4276
0.779604 0.158704 21.6475
0.569545 0.517627 21.5585
0.433298 -0.0358023 22.0318
-0.0922434 -0.330055 21.651
0.0381346 -0.179175 21.5312
-0.249271 -0.708589 21.5723
-0.427122 -0.592554 21.2726
-0.156613 -0.460957 21.2546
-0.393007 -0.837003 21.4083
-0.552211 -0.574274 20.9398
-0.188096 -0.54924 20.8898
-0.386924 -0.783489 20.4546
-1.5636 -1.11777 19.4669
-1.01321 -1.22154 21.8806
0.0211442 -0.270481 21.3154
0.486344 0.484873 20.1433
1.00373 1.03957 19.9981
1.24231 1.24954 20.1172
-2.49271 -0.285204 18.6904
-2.18836 -0.745688 22.1173
-0.133511 -0.399502 18.421
0.52113 0.578974 14.7311
1.48788 0.394124 13.8388
1.99309 0.0975628 16.279
-1.31189 1.11997 19.5473
-1.77177 1.19839 20.8963
-1.1734 0.431101 21.9649
0.0548096 -0.435654 21.822
0.367948 -0.770754 21.3939
0.511218 -0.83351 21.1729
-0.0234498 -3.43328 17.4672
-0.00116212 -0.933163 14.0559
-0.00675006 -0.0700691 10.0956
-0.00667417 0.205538 9.36339
-0.0673676 -0.0433512 7.56949
0.00683507 1.06518 8.2347
-0.0364008 -0.859358 12.6886
0.0217964 -0.339357 -2.91506
0.243682 -2.04569 -2.6683
0.0283987 2.60439 18.5581
0.0176338 3.33868 20.3462
-0.0361464 2.58394 22.9682
-0.0231487 -0.355703 21.7332
-0.0181639 -0.735156 19.7131
-0.00170809 -1.32344 19.4913
1.57457 -1.1369 19.4447
1.02934 -1.22069 21.864
-0.0087708 -0.280204 21.342
-0.486996 0.468661 20.2356
-0.982878 1.05528 19.9386
-1.23088 1.28428 19.6799
2.5253 -0.289622 18.6313
2.1957 -0.746878 22.114
0.138393 -0.413779 18.5772
-0.534998 0.548836 15.1173
-1.45696 0.434038 13.4214
-2.02966 0.103293 15.6273
1.30238 1.08921 19.5664
1.76335 1.17391 20.8777
1.20091 0.45188 21.9816
-0.0418259 -0.44681 21.8368
-0.33837 -0.801464 21.4035
-0.464788 -0.88267 21.0381
-0.743291 -0.206907 0.969158
0.0140514 -0.0346616 0.214051
-4.59383e-18 6.62434e-19 4.20809e-17
-0.0172022 0.00239789 -0.0170142
-0.0464318 0.0303593 0.109232
-0.0335566 0.0553717 0.488141
-1.88439 0.328549 2.46034
-0.0122267 0.0888715 0.200072
-0.115058 0.0547129 0.412446
-0.00722625 0.000891991 -0.000694772
-0.0264711 0.0334906 -0.0213847
0.00344123 -0.00756231 0.105728
-0.0145566 -0.0346916 0.214963
0.729103 -0.2044 0.95992
0 0 0
0.0349914 0.0230461 0.0829689
0.0148044 0.00204678 -0.0146507
0.0488413 0.0864646 0.690389
0.0237159 0.131466 0.304095
1.91104 0.340964 2.49967
0.116925 0.0546303 0.417612
0.0192789 0.0382706 -0.0274079
0.00459823 -0.000756343 0.00162939
-0.00368054 -0.00696255 0.0956301
0.0141855 -0.00391105 0.211034
0.000183704 8.02256e-05 0.0144084
0 0 0
0 0 0
-0.011853 0.0154771 0.235474
-1.70881e-18 -1.1702e-18 -1.0025e-16
0 0 0
0.00070826 8.68712e-05 0.0252163
-0.0776576 -0.0164702 0.132307
-0.000911489 -0.000807673 0.0531508
0 0 0
-0.0153438 0.0174225 0.0427239
0 0 0
0.103909 0.174508 0.777314
0 0 0
0.0199828 -0.00422083 0.101039
-0.0169685 -0.00240756 0.249772
0 0 0
-0.000274464 0.000121831 0.0220089
0 0 0
0.0161869 0.0133587 0.263479
-0.000649802 8.25153e-05 0.0227278
-0.000450477 0.000489527 0.0561409
0 0 0
0.0666956 -0.00729481 0.0852619
0.0103146 0.0131414 0.0316053
0.000774473 -0.000488106 0.0492998
0 0 0
0 0 0
-0.020806 -0.00398633 0.108261
-0.0877876 0.158932 0.694096
0 0 0
-0.119395 -0.0529099 0.737442
-0.381778 -0.102627 0.173777
-2.93291e-07 6.15307e-06 -0.000136262
1.56619e-06 -0.00151727 -6.07101e-05
0 0 0
-2.35595e-07 6.38889e-09 -3.07203e-06
0.0119174 0.00496437 0.0618495
-0.096635 0.0503465 -0.0072928
0.000155295 0.00242087 0.0365061
0.000174811 -0.000759865 -0.000370569
0.000890885 0.00649766 0.0521781
0 0 0
0.000887794 0.432104 0.298729
8.03536e-05 0.00133268 0.00534923
-7.04016e-05 -0.000211985 0.00205905
0 0 0
0 0 0
-2.94136e-20 7.24845e-19 -3.02602e-18
0.0183388 0.0403755 0.22113
0.00470708 -0.00189575 0.01314
0.373879 -0.0971401 0.167591
0.121189 -0.0539703 0.746825
4.78245e-07 1.22036e-08 -6.14723e-06
0 0 0
0.111394 0.0638676 -0.0104755
-0.0132328 0.00574692 0.0686731
0 0 0
-0.000913011 0.00659771 0.05333
0.000486428 0.000322233 0.00231133
0.000122885 -0.000362492 0.00321616
-0.00449592 -0.00169923 0.012264
-0.0173614 0.0378898 0.20836
0 0 0
0 0 0
0 0 0
5.98974e-19 4.87962e-18 5.39307e-17
-3.02178e-05 0.00083863 0.0209544
-4.65143e-07 -1.84426e-06 0.000523092
-4.43551e-19 -5.53529e-18 -5.01313e-17
0.000281496 0.00210137 0.0216424
-2.83097e-10 2.73809e-09 5.11144e-07
0 0 0
0.00819162 0.0588664 0.25626
-0.00899922 0.0155512 0.192404
0 0 0
-0.000579394 0.131197 0.315948
0.000129032 0.000264743 0.0368347
-3.91262e-07 -0.000249881 0.00113199
0 0 0
0 0 0
0 0 0
0 0 0
0 0 0
-0.000290794 0.00221759 0.023043
0.00856142 0.0149586 0.186615
-0.00868661 0.0611815 0.257361
-0.0424738 -0.0221264 0.22073
-0.01806 -0.03415 0.23305
1.10236e-18 -3.01981e-18 -5.79239e-17
0 0 0
0 0 0
0.00909532 0.0513785 0.31206
0 0 0
0.00445461 0.0657732 0.248634
0.000763409 0.00283405 0.0425608
0.00755992 0.0452839 0.183811
0.0179722 0.0148468 0.146104
0.0171582 -0.00601991 0.0772793
0 0 0
0 0 0
0.00514863 0.00225048 0.0497756
-0.00691522 0.00403557 0.0672532
0 0 0
0 0 0
8.32719e-05 1.15051e-05 0.00175084
-8.78731e-05 1.21286e-05 0.00183943
0 0 0
0 0 0
-0.00266889 0.00291876 0.0438023
0.00202811 0.00237064 0.0353925