# vtk DataFile Version 2.0
tri_press
ASCII
DATASET UNSTRUCTURED_GRID
POINTS 3682 float
-0.765 0.105 -1.872
-0.732263 0.245 1.905
-0.755 0.521334 -1.835
-0.782397 0.795 1.795
0.766562 0.105 -1.865
0.698638 0.235 1.905
0.765 0.52407 -1.825
0.755 0.795 1.80133
-0.785926 0.119829 -0.613
-0.808363 0.133146 0.646
-0.859528 0.707952 -0.625
-0.854721 0.785234 0.585
0.772424 0.11983 -0.608333
0.780276 0.13267 0.648333
0.860234 0.712947 -0.616223
0.838943 0.785299 0.592553
-1.58001 -0.243601 -2.85395
-1.57981 -0.176065 -1.86701
-1.59795 -0.159496 -0.606787
-1.60323 -0.151895 0.663569
-1.55896 -0.0764105 1.92464
-1.54735 -0.0176399 2.91574
-1.55491 0.0320825 3.8991
-1.57374 0.0116991 -2.85229
-1.57732 0.0979218 -1.87081
-1.60671 0.135375 -0.619865
-1.60733 0.147069 0.635837
-1.53784 0.220215 1.88775
-1.53084 0.277618 2.8782
-1.54476 0.326861 3.8631
-1.568 0.492184 -2.83569
-1.58196 0.575808 -1.85282
-1.65524 0.714898 -0.635316
-1.64786 0.775012 0.579143
-1.57586 0.801522 1.79781
-1.5502 0.857623 2.79132
-1.5518 0.913027 3.78474
-1.56643 1.32136 -2.84618
-1.58162 1.41784 -1.8701
-1.6198 1.56217 -0.668887
-1.64082 1.66724 0.522232
-1.62739 1.72275 1.72446
-1.60629 1.76252 2.70267
-1.59089 1.80855 3.69096
-0.787189 -0.240349 -2.85352
-0.779779 -0.170009 -1.86833
-0.79341 -0.166812 -0.603321
-0.812767 -0.162147 0.671964
-0.782924 -0.0669694 1.93727
-0.770564 -0.0114331 2.92506
-0.774998 0.0342023 3.90549
-0.781007 0.00880092 -2.84944
-0.749068 0.28504 2.88654
-0.7634 0.329013 3.86858
-0.771956 0.469168 -2.82569
-0.762729 0.857198 2.79302
-0.765883 0.912785 3.78709
-0.758878 1.30649 -2.83648
-0.765943 1.40424 -1.85985
-0.800532 1.55982 -0.661427
-0.830264 1.67109 0.52498
-0.828929 1.724 1.72404
-0.811981 1.76197 2.70213
-0.797954 1.80777 3.69127
0.776488 -0.239488 -2.84647
0.773988 -0.169676 -1.86181
0.776479 -0.166712 -0.598432
0.762984 -0.163219 0.674929
0.711816 -0.0730114 1.9388
0.742628 -0.0160305 2.92773
0.764929 0.0312548 3.90915
0.774501 0.00983755 -2.84193
0.753493 0.280112 2.88926
0.77438 0.326091 3.87236
0.785876 0.471171 -2.81715
0.774869 0.855222 2.79777
0.785891 0.910877 3.79166
0.844895 1.30861 -2.82859
0.852869 1.40659 -1.8519
0.84402 1.5619 -0.653909
0.808735 1.67206 0.531808
0.779619 1.72413 1.73022
0.778708 1.76164 2.70786
0.785721 1.80715 3.6967
1.56721 -0.241547 -2.83993
1.56716 -0.174468 -1.85379
1.57555 -0.15865 -0.595995
1.5602 -0.153621 0.67126
1.50564 -0.0836566 1.93026
1.51729 -0.0245547 2.92224
1.54011 0.0269934 3.90684
1.56664 0.0141957 -2.83749
1.57022 0.100183 -1.85653
1.58983 0.137021 -0.608249
1.57979 0.14595 0.644037
1.50823 0.212461 1.89346
1.52385 0.270579 2.88495
1.54786 0.321857 3.87108
1.5831 0.496062 -2.81944
1.59195 0.580659 -1.83592
1.65429 0.720038 -0.620255
1.63208 0.77563 0.591638
1.55453 0.79974 1.80827
1.55169 0.854137 2.80074
1.56433 0.909623 3.79401
1.64541 1.32539 -2.83073
1.6565 1.42217 -1.85463
1.65741 1.5659 -0.654231
1.62584 1.66905 0.535598
1.5887 1.72298 1.73662
1.5782 1.76188 2.71404
1.57967 1.80739 3.70181
-0.73657 0.313167 -1.83007
0.000781 0.104148 -1.86935
-0.775447 0.112431 -1.2425
-0.783532 0.52 1.8762
-0.0168125 0.222681 1.92232
-0.782145 0.17724 1.2755
0.005 0.650011 -1.95731
-0.870775 0.678154 -1.23
-0.0136985 0.924766 1.92793
-0.840183 0.811742 1.19
0.74919 0.314535 -1.82841
0.769479 0.112429 -1.23667
0.759271 0.515 1.88562
0.753171 0.170121 1.27667
0.871521 0.677412 -1.22061
0.818406 0.811584 1.19694
-0.797563 0.126068 0.0165
-0.874022 0.41389 -0.619
-0.00675086 0.119779 -0.610667
-0.888534 0.45919 0.6155
-0.0140434 0.122853 0.647167
-0.862214 0.751683 -0.02
0.000352854 1.0746 -0.620612
-0.00788886 1.30085 0.588777
0.776575 0.126025 0.02
0.876243 0.416389 -0.612278
0.872631 0.458985 0.620443
0.85326 0.752795 -0.011835
-0.884394 0.363529 -1.23625
0.873871 0.365462 -1.22864
-0.00298493 0.116944 -1.23958
0.00267642 0.868877 -1.22531
0.0028905 0.313851 -2.08029
-0.882791 0.43654 -0.00175002
0.875454 0.437687 0.00408247
-0.0103971 0.124496 0.01825
-0.003768 1.27537 -0.0159175
-0.872462 0.489595 1.23275
0.894128 0.486992 1.2368
-0.0154279 0.165447 1.27608
-0.0107937 1.26702 1.19347
-0.0152555 0.5175 2.0526
-0.740929 0.209083 -1.84118
-0.382109 0.102722 -1.87253
-0.770296 0.108642 -1.55725
-0.774821 0.3825 1.90752
-0.374538 0.221769 1.92573
-0.789467 0.178858 1.59025
-0.760105 0.41725 -1.84685
-0.375 0.631189 -1.94167
-0.842644 0.629501 -1.5325
-0.768093 0.6575 1.82073
-0.398048 0.89714 1.89872
-0.824543 0.816624 1.4925
0.383671 0.102729 -1.86902
0.748887 0.209768 -1.83772
0.768125 0.10861 -1.55083
0.340913 0.226187 1.91631
0.745554 0.375 1.91191
0.749018 0.179447 1.59083
0.385 0.633775 -1.93789
0.770912 0.419303 -1.84052
0.845227 0.627707 -1.52281
0.370651 0.896627 1.90137
0.740583 0.655 1.82692
0.799751 0.81634 1.49914
-0.780529 0.116287 -0.92775
-0.791721 0.122972 -0.29825
-0.844471 0.259611 -0.616
-0.394809 0.122861 -0.611833
-0.781285 0.169162 0.96075
-0.802757 0.129813 0.33125
-0.871493 0.284645 0.63075
-0.408267 0.133873 0.646583
-0.86216 0.690061 -0.9275
-0.879085 0.567076 -0.622
-0.859877 0.728823 -0.3225
-0.497879 1.02786 -0.622806
-0.848542 0.799577 0.8875
-0.88707 0.629933 0.60025
-0.859509 0.7695 0.2825
-0.54652 1.27347 0.586888
0.770756 0.116325 -0.9225
0.381315 0.122847 -0.6095
0.774473 0.122954 -0.294167
0.845289 0.257632 -0.610306
0.751459 0.16666 0.9625
0.380125 0.133744 0.64775
0.778646 0.129127 0.334167
0.854667 0.281721 0.634388
0.863199 0.692502 -0.918418
0.497146 1.02748 -0.618418
0.881125 0.571111 -0.614251
0.856355 0.73248 -0.314029
0.829922 0.79969 0.894748
0.531852 1.27573 0.590665
0.871404 0.62995 0.606498
0.847366 0.770312 0.290359
-0.885341 0.338348 -1.53316
-0.36684 0.313509 -2.02155
-0.00110196 0.115622 -1.55447
0.00183575 0.208999 -2.10331
-0.894939 0.23798 -1.23938
-0.389216 0.114548 -1.24104
-0.865781 0.504797 1.55448
-0.399394 0.51875 2.06775
-0.0161202 0.178775 1.5992
-0.016034 0.370091 2.12348
-0.859457 0.333418 1.25413
-0.398787 0.165179 1.27579
0.00383821 0.824142 -1.59131
0.00394525 0.481931 -2.0841
-0.896616 0.520841 -1.23313
-0.434049 0.853869 -1.22765
-0.0122461 1.19945 1.5607
-0.014477 0.721133 2.02932
-0.869857 0.650668 1.21138
-0.425489 1.24381 1.19174
0.868976 0.339998 -1.52852
0.37604 0.314193 -2.01988
0.872059 0.238945 -1.23265
0.383247 0.114568 -1.23813
0.882501 0.500996 1.56121
0.372008 0.51625 2.07522
0.884509 0.328557 1.25674
0.368871 0.165046 1.27638
0.887043 0.521437 -1.22463
0.437099 0.853932 -1.22296
0.886293 0.649288 1.21687
0.403806 1.24387 1.19521
-0.85918 0.271802 0.00737499
-0.403297 0.12665 0.017375
-0.889105 0.388709 -0.927625
-0.878316 0.425215 -0.310375
-0.00486789 0.118208 -0.925125
-0.00857398 0.12055 -0.296208
-0.886134 0.447865 0.306875
-0.872774 0.474392 0.924125
-0.0122202 0.125567 0.332708
-0.0147356 0.155438 0.961625
-0.885715 0.600717 -0.010875
-0.547137 1.24181 -0.0179588
0.00151464 0.916708 -0.922959
-0.00170758 1.20804 -0.318265
-0.00582843 1.29748 0.28643
-0.00934127 1.29004 0.891124
0.850362 0.269682 0.0120412
0.382426 0.126587 0.019125
0.88189 0.390925 -0.920459
0.875989 0.427038 -0.304098
0.874195 0.448336 0.312263
0.896294 0.472988 0.928624
0.878198 0.602161 -0.00387628
0.538524 1.24164 -0.0138763
-0.877598 0.223532 -1.54521
-0.888982 0.252419 -0.927688
-0.889224 0.540881 -0.927563
-0.880682 0.469046 -1.53283
0.866936 0.224356 -1.53968
0.875899 0.47037 -1.52567
0.886954 0.543052 -0.919438
0.879878 0.253527 -0.921479
-0.385663 0.112438 -1.55586
0.383459 0.112456 -1.55265
0.383042 0.116639 -0.923813
-0.392777 0.116628 -0.926438
-0.404525 0.804296 -1.5619
-0.431818 0.884015 -0.92523
0.433696 0.885383 -0.920688
0.411049 0.804818 -1.55706
-0.374475 0.209041 -2.03759
-0.37092 0.449591 -2.0409
0.38052 0.450617 -2.03855
0.379856 0.209383 -2.03629
-0.851212 0.266013 -0.304313
-0.867056 0.277364 0.319063
-0.88841 0.616334 0.294688
-0.882563 0.583978 -0.316438
0.847074 0.264032 -0.299132
0.879959 0.586785 -0.309064
0.876647 0.616979 0.301311
0.853635 0.275141 0.323215
-0.399052 0.124758 -0.297229
0.38187 0.124717 -0.295188
0.38061 0.131496 0.333438
-0.405122 0.131581 0.331979
-0.5357 1.16122 -0.320382
-0.554063 1.27211 0.284465
0.541348 1.271 0.288394
0.530811 1.16051 -0.316147
-0.873218 0.314793 0.942438
-0.846718 0.357959 1.57236
-0.859223 0.654084 1.52349
-0.885962 0.63644 0.905813
0.89554 0.312192 0.945562
0.867349 0.635715 0.911686
0.871378 0.652144 1.53017
0.87534 0.351778 1.57602
-0.404995 0.155036 0.961188
0.375994 0.154951 0.962063
0.354892 0.17768 1.59502
-0.386662 0.178693 1.59473
-0.428397 1.26991 0.889312
-0.411768 1.187 1.5266
0.387228 1.19217 1.52992
0.409667 1.27006 0.892936
-0.386966 0.376295 2.09795
0.35646 0.372545 2.10118
0.371329 0.688067 1.97024
-0.398721 0.689317 1.96739
-0.754194 0.157042 -1.85782
-0.573555 0.10128 -1.87485
-0.767688 0.106782 -1.71462
-0.758365 0.31375 1.91108
-0.5534 0.223461 1.92529
-0.775346 0.197448 1.74762
-0.759474 0.469292 -1.84285
-0.565 0.564327 -1.8764
-0.807965 0.58456 -1.68375
-0.778029 0.72625 1.81065
-0.590222 0.859791 1.86058
-0.811073 0.813414 1.64375
0.575117 0.101276 -1.8696
0.758625 0.157384 -1.85226
0.767396 0.106753 -1.70792
0.519775 0.222642 1.91861
0.728864 0.305 1.91522
0.738737 0.192315 1.74792
0.575 0.568285 -1.87081
0.770993 0.471686 -1.8358
0.816918 0.587694 -1.6739
0.562825 0.859657 1.8652
0.75109 0.725 1.81742
0.784809 0.813103 1.65023
-0.781047 0.120238 -0.770375
-0.788953 0.121271 -0.455625
-0.843693 0.175472 -0.6145
-0.590926 0.120228 -0.612417
-0.804623 0.141355 0.803375
-0.805601 0.131438 0.488625
-0.865023 0.196348 0.638375
-0.609383 0.131373 0.646292
-0.859351 0.697513 -0.77625
-0.873316 0.639519 -0.6235
-0.85978 0.718465 -0.47375
-0.724847 0.960192 -0.623903
-0.851615 0.792389 0.73625
-0.877221 0.710746 0.592625
-0.857047 0.777299 0.43375
-0.713227 1.05457 0.585944
0.769331 0.120336 -0.765417
0.577432 0.120213 -0.608917
0.773408 0.121433 -0.45125
0.840961 0.172679 -0.60932
0.77528 0.140252 0.805417
0.581185 0.131238 0.648042
0.779664 0.130695 0.49125
0.84851 0.191676 0.641361
0.86235 0.703358 -0.767321
[...]
POINT_DATA 3682
SCALARS point_scalars float 1
LOOKUP_TABLE default
-113.13
-46.4314
-11.8085
-41.6978
-103.53
-45.2041
-15.9861
-40.3594
-39.1429
-42.0258
-51.1153
-47.8222
-39.8406
-40.1792
-53.2673
-46.2952
15.0093
-103.075
-54.5534
-41.2983
-47.9227
-43.7328
-39.3312
15.0093
-89.9503
-52.3615
-41.4929
-46.5443
-42.6683
-38.2447
-2.92239
-80.5634
-47.5114
-45.0798
-47.3622
-39.4931
-37.8541
-13.8432
-67.4699
-74.0455
-58.9975
-41.5484
-40.3729
-36.5315
-31.6706
-155.669
-38.8956
-42.7213
-48.7992
-38.6096
-38.6863
-31.6706
-38.4249
-38.2683
148.847
-37.5865
-37.8691
47.38
-59.1144
-49.6335
-63.9676
-40.9315
-33.2236
-32.9582
-32.2355
-167.583
-39.5877
-41.2457
-47.794
-41.3018
-38.6159
-32.2355
-38.2495
-38.2749
149.833
-37.59
-37.4839
48.394
-66.6771
-51.7078
-61.2692
-39.8759
-33.0923
-32.6428
-88.147
-106.467
-54.5767
-37.7656
-51.4255
-42.2875
-38.7091
-88.147
-94.1001
-41.9989
-40.4782
-50.2322
-39.8992
-38.1969
1.14045
-100.819
-49.4895
-42.7163
-50.0631
-39.3032
-37.317
-36.4171
-72.6165
-75.119
-58.3489
-41.6893
-39.119
-36.7489
-14.502
-122.402
-58.0375
-40.7268
-43.3706
-40.4412
110.98
-64.6624
-27.1968
-45.0548
-19.6647
-56.588
-39.6418
-42.5062
-62.2736
-46.3171
-37.0814
-41.953
-40.068
-42.5042
-42.6499
-49.4829
3.51874
-66.7635
-36.7801
-43.8665
-38.4686
-49.9275
-69.9564
-63.7927
-55.2876
-14.8653
200.502
-40.4715
-40.7442
-37.973
-85.0692
-42.0155
-44.5549
-42.764
-46.6128
-34.0988
-32.9081
-136.231
-83.426
-43.9808
-44.3102
-46.2363
-10.1053
64.9694
-68.7464
-40.8329
-32.5149
-44.385
-135.304
-43.4751
-81.6867
-44.0496
-41.3844
-47.3852
59.7221
-17.7044
-71.6539
-32.1748
-40.079
-44.9941
-46.8492
-36.7331
-40.2132
-40.3497
-44.1699
-38.2842
-41.6601
-41.888
-52.6848
-45.1876
-50.6927
-6.80352
-45.377
-44.3346
-49.3533
-60.8023
-46.3394
-40.4403
-37.5486
-41.8322
-43.6606
-41.6488
-37.8352
-37.0534
-51.5948
-8.06094
-47.3889
-52.3944
-44.5361
-61.2941
-41.7236
-49.146
-97.8115
171.577
-74.8579
189.966
-68.4674
-56.1712
-45.9546
-35.9073
-45.4638
-38.0225
-41.3716
-42.391
-46.6011
152.464
-69.4138
-23.1486
-33.6813
-32.6372
-42.4715
-47.0843
-94.0003
170.674
-63.0664
-55.9366
-51.8135
-36.2989
-44.2874
-42.7072
-63.8443
-23.1934
-44.9409
-46.8398
-37.9799
-38.0213
-53.0616
-40.1848
-45.9387
-38.5677
-41.5049
-44.7094
-39.1476
-44.5131
-44.1259
-77.0549
10.8934
-57.341
-77.125
-56.4769
-38.3655
-37.9322
-51.0966
-41.6732
-40.1506
-39.7097
-44.3915
-78.4047
-94.0185
-53.0432
-53.6658
-90.4493
-93.2803
-90.2399
-51.9698
-50.8644
-77.4429
-77.0934
-46.3218
-46.3816
-48.4961
-0.467633
-0.639444
-48.5504
159.405
165.394
163.597
157.901
-37.9362
-39.5273
-44.5418
-44.5127
-38.9756
-46.0806
-43.9119
-38.1161
-38.23
-38.3269
-38.5124
-38.8547
-54.3329
-69.6775
-69.4102
-55.1892
-44.4727
-46.0206
-44.7685
-45.4933
-46.6055
-38.9628
-50.9031
-51.1837
-43.9667
-44.0715
-45.7493
-45.1815
-55.4397
-37.9443
-37.8294
-55.1643
-38.3682
-38.3767
-36.0207
-36.1425
-41.521
-167.14
-116.472
-44.8337
-46.0496
-48.2511
-5.00676
55.6892
-64.3957
-41.5198
-34.9444
-43.3246
-164.79
-54.3444
-116.699
-44.9584
-42.8174
-49.0086
51.8953
-14.2042
-72.1379
-34.7617
-41.2338
-42.6594
-42.6616
-37.5292
-40.009
-39.8525
-44.9066
-39.0928
-41.5204
-42.4837
-51.6115
-47.9041
-51.0634
-59.8064
-46.6158
-45.6615
-48.6634
-54.3748
-42.4062
-40.0566
-38.2232
-41.6193
-43.9748
-41.9011
-37.4892
-37.3393
-52.482
-60.5524
-50.1423
-53.0855
-45.408
-53.5021
-43.6549
-47.9163
-19.0986
-12.6863
-102.225
113.058
-126.629
-126.387
-92.5631
41.2581
-68.1915
-51.3257
-66.4474
-56.427
-43.1257
-40.3225
-46.4114
-36.1686
-43.416
-43.6227
-44.5996
-39.8119
-40.7821
-39.1728
-40.4307
-41.7241
96.5872
95.7978
-70.2607
138.591
-67.5311
-57.0113
-70.2496
-41.3257
-29.1742
-28.8926
-28.7494
-28.8458
-43.4559
-48.0228
-43.3498
-47.3348
-17.9032
-24.1301
-121.659
110.34
-66.7029
-50.6441
-61.1037
-55.9127
-40.6817
-39.203
-47.0526
-36.0839
-43.0077
-40.4112
-43.2825
-42.4429
-68.8735
-54.9373
-64.7099
-40.3676
-47.0704
-47.2409
-45.2273
-47.1759
-36.6892
-37.3706
-37.9736
-37.6355
-40.7694
-42.8378
-46.7687
-40.5872
-40.1865
-40.1865
-42.6312
-39.2353
-42.1637
-43.2287
-41.8585
-44.1188
-42.4727
-42.3263
-40.3708
-43.9703
-50.389
-49.7956
-46.7686
-62.3243
3.34527
3.06868
15.4584
-21.1346
-65.7145
-65.6676
-72.4712
-61.7664
-36.742
-37.0189
-37.697
-37.5071
-42.6366
-45.211
-47.5488
-42.478
-37.761
-40.0951
-39.3929
-37.6431
-51.3924
-49.77
-46.9472
-63.552
-86.6573
-69.3312
-69.4409
-59.5051
-80.2454
-63.6798
-63.977
-58.5247
-63.06
-55.7201
-55.6072
-49.8205
-30.3793
-16.8119
-16.9272
-2.15955
192.649
196.019
203.252
191.784
-39.2366
-40.199
-41.0193
-42.0775
-39.7074
-41.0644
-40.5483
-42.3709
-38.0525
-38.5628
-38.3587
-38.0063
-82.7731
-82.5872
-82.7109
-83.0809
-43.8352
-41.7993
-42.305
-41.9242
-47.5607
-44.4361
-44.861
-44.0564
-43.6345
-42.6549
-42.7858
-42.0306
-40.5677
-46.5018
-46.4674
-51.5453
-35.0351
-37.9066
-34.2572
-34.8651
-100.441
108.804
-98.5001
30.4187
-93.1147
-79.1069
-46.3042
-38.4643
-44.544
-40.1662
-46.5739
-45.4568
-88.1158
123.276
-54.424
108.553
-79.8114
-54.3212
-46.7229
-36.7466
-32.2023
-34.6718
-43.2832
-41.2595
-97.4827
25.1172
-114.587
104.727
-90.9161
-78.5952
-44.8404
-40.5496
-49.0759
-38.2344
-52.3711
-46.5021
-53.7075
109.726
-107.295
118.778
-82.7206
-54.6758
-32.0125
-34.3958
-47.2846
-36.6188
-47.9222
-41.059
-52.3906
-46.4746
-36.9816
-37.7031
-46.8955
-38.1898
-42.9935
-39.0371
-45.6949
-43.8129
-38.8935
-39.1333
-40.5104
-43.4024
-40.2388
-43.5872
-54.6515
-18.2434
-47.5641
-44.8925
-47.5099
-71.6141
4.27414
-26.4727
-43.6983
-52.1846
-44.45
-44.2547
-46.5407
-57.8676
-66.5727
-58.9602
-49.9391
-46.3742
-42.9999
-39.1293
-38.6018
-37.9334
-47.5083
-39.7976
-46.806
-43.936
-39.9968
-43.5393
-37.4921
-38.5807
-37.9023
-32.4757
-53.1964
-18.1064
3.10493
-27.5556
-48.3064
-46.8552
-48.9212
-73.8493
-41.0732
-51.1549
-65.9019
-58.4888
-42.8152
-40.5999
-46.3127
-57.5825
-96.1227
-96.7482
167.648
176.503
-75.9842
-75.8256
181.977
180.792
-85.557
-58.4765
-64.153
-50.454
-45.9596
-45.8634
-38.3531
-36.1811
-45.5654
-45.325
-38.0521
-38.0082
-40.7007
-43.7471
-41.68
-43.3467
-46.2267
-46.2235
168.232
167.578
-59.5565
-85.7163
-35.261
-11.7127
-35.6594
-35.3969
-34.2819
-34.439
-43.6427
-44.2162
-50.8748
-42.7468
-94.4964
-92.8201
174.645
166.733
-79.7726
-57.8226
-63.8766
-50.3066
-51.8272
-51.6359
-38.2336
-36.0229
-42.967
-46.9944
-41.8944
-43.6491
-78.9927
-58.7813
-12.1396
-35.5526
-45.1565
-48.2513
-42.4485
-50.731
-37.9899
-38.6714
-37.92
-38.6009
-53.2689
-53.2077
-39.0935
-42.0674
-46.112
-46.1472
-38.4949
-38.5312
-40.5609
-42.7959
-44.3568
-45.0633
-39.0323
-39.1492
-44.3516
-44.419
-44.4387
-44.1209
-82.5436
-73.6263
8.26044
8.22188
-54.7938
-54.5458
-75.5239
-75.5109
-56.3232
-56.244
-38.5528
-38.2764
-37.9692
-38.4004
-51.2209
-51.1701
-40.3941
-43.3811
-41.6907
-39.1834
-42.9212
-38.4012
-45.3186
-44.437
-74.3759
-83.3944
-102.167
-82.1688
-86.5269
-102.919
-46.5606
-46.9539
-59.3483
-57.0987
-49.2958
-60.5723
-59.9996
-46.8779
-79.2943
-96.8025
-86.4726
-84.7456
-110.921
-120.4
-80.2472
-76.0754
-98.0055
-81.2504
-79.5889
-117.25
-50.3207
-47.5652
-58.7979
-59.2742
-46.5709
-56.8798
-58.5823
-47.6102
-105.748
-94.6254
-63.7091
-64.9835
-105.047
-64.457
-63.5656
-94.4825
-42.9842
-42.7846
-50.0611
-49.9007
-42.9176
-50.2469
-50.1391
-42.7921
-59.7668
-45.0275
-31.7427
-60.6319
-42.034
13.741
-4.33278
-28.7425
-41.8616
-28.3301
-4.57761
13.3558
-62.2641
-60.5325
-31.693
-45.6895
51.0604
107.89
189.555
60.0256
89.0992
136.387
197.685
118.497
84.8536
116.841
197.533
135.599
41.0695
56.4619
189.206
106.429
-37.6755
-36.8175
-39.1795
-39.3896
-39.8238
-41.27
-40.1168
-37.1323
-46.2859
-46.8876
-42.4403
-42.9031
-47.773
-42.4985
-41.905
-47.156
-39.1486
-41.1623
-39.9678
-37.7335
-49.6066
-47.9081
-42.8657
-44.4623
-44.7843
-40.7873
-42.0654
-45.733
-37.5905
-37.6387
-39.5074
-38.6974
-38.5215
-39.2364
-38.4267
-37.4534
-38.8019
-37.5184
-38.4611
-39.2505
-39.0892
-40.2875
-38.2882
-37.835
-39.5376
-38.1148
-38.4972
-40.409
-74.0833
-66.8602
-81.5917
-20.6511
-56.8278
-71.1122
-81.4062
-59.5294
-56.1611
-59.7915
-81.4548
-70.946
-76.8364
-20.9794
-81.7335
-68.576
-43.6148
-40.0085
-41.46
-43.6682
-47.0534
-45.4714
-43.7468
-43.0216
-46.5758
-42.5874
-43.7754
-47.0097
-44.8271
-44.3729
-42.5418
-47.8722
-34.2758
-35.6448
-43.6759
-42.2893
-42.5904
-44.9768
-44.7547
-39.3131
-45.6705
-47.2794
-47.8146
-48.5189
-50.3562
-45.4497
-47.2288
-48.1345
-42.3829
-43.8495
-41.94
-40.9094
-42.1015
-41.3934
-42.0238
-43.8735
-45.0787
-44.667
-43.6703
-43.3724
-45.3275
-42.6999
-43.5344
-44.5004
-52.1986
-49.3072
-51.4887
-61.1425
-36.5203
-29.924
-41.3624
-44.6414
-35.9877
-43.9967
-41.2142
-29.7
-51.6829
-61.0739
-51.4013
-49.2052
-42.4309
-39.5831
-38.8027
-37.9818
-40.1139
-37.9947
-38.7402
-39.7241
-36.0217
-31.3264
-34.9733
-36.2629
-36.157
-36.3889
-35.1347
-31.6666
-83.2995
-214.387
-147.985
-45.8373
-45.8054
-48.7975
-5.96554
37.0827
-55.0307
-42.1736
-36.5599
-41.969
-208.283
-81.3789
-150.633
-45.1623
-43.9161
-48.2232
32.9475
-13.6064
-67.8975
-35.9163
-41.2476
-41.3212
-40.4937
-38.0141
-39.719
-39.4428
-43.1111
-40.7494
-41.1189
-42.7563
-51.0391
-49.3537
-51.2744
-59.7626
-47.1937
-46.5633
-48.1707
-51.0181
-40.7941
-39.8186
-38.8226
-40.806
-41.9312
-41.805
-39.1932
-37.7093
-53.4134
-62.4947
-51.7748
-53.5537
-45.9525
-49.6764
-44.9216
-46.9843
-16.0134
-12.9096
-83.9049
74.0672
-122.386
-122.245
-104.101
-33.3956
-62.5382
-54.0426
-64.5641
-56.6907
-42.1693
-40.3681
-44.2214
-37.0717
-43.2943
-43.4771
-44.3782
-40.7023
-40.4498
-39.7605
-40.3668
-41.1668
80.0384
89.7927
-62.6555
140.664
-68.2729
-60.5044
-69.7342
-53.5443
-27.8335
-27.5735
-27.5216
-27.6606
-44.1004
-45.6168
-44.077
-47.2502
-19.0735
-20.3769
-102.596
64.4804
-60.8477
-52.9923
-60.6019
-55.9588
-40.1195
-39.0632
-42.7488
-36.695
-43.0343
-40.9109
-42.5824
-42.3841
-66.5898
-58.2106
-65.7076
-52.429
-46.8862
-46.2632
-44.9657
-47.3813
-36.8464
-37.9226
-37.1958
-37.4021
-41.3
-42.3773
-43.6681
-41.1095
-40.1093
-40.106
-40.7163
-39.7535
-42.3155
-42.6767
-42.1888
-43.2525
-42.5533
-42.4856
-40.9392
-43.5264
-49.6444
-49.6436
-47.9184
-55.7754
3.67877
3.55072
11.605
-8.8938
-66.5868
-66.5531
-69.591
-64.425
-36.7411
-36.8119
-36.912
-37.2191
-43.2294
-44.6313
-44.9649
-43.0748
-38.1473
-39.0595
-39.0745
-38.0531
-50.5111
-47.6734
-48.1396
-56.2023
-77.3478
-69.6034
-69.7569
-64.0192
-70.3035
-63.6461
-64.1365
-60.6186
-58.7994
-55.4088
-55.3531
-52.3198
-22.0926
-15.321
-15.3993
-8.83126
198.098
196.531
204.535
197.614
-39.8291
-40.3023
-40.7288
-41.2389
-40.0862
-40.9008
-40.6391
-41.5423
-37.9987
-38.2669
-38.0982
-37.9663
-84.7227
-83.0021
-84.4021
-84.7408
-42.5582
-41.8988
-42.2026
-41.7586
-46.0532
-44.4762
-44.8092
-44.0015
-43.0147
-42.7216
-42.7862
-42.4721
-43.5804
-46.6081
-46.5592
-49.0716
-34.3095
-36.1571
-34.2035
-34.2418
-30.5679
-20.6287
-98.7136
70.1615
-144.449
-131.62
-116.311
-31.1096
-98.4732
-74.8117
-90.6491
-80.6959
-44.2573
-43.7163
-45.9682
-39.4913
-45.1067
-43.5771
-44.7844
-41.4146
-47.034
-42.8324
-47.3818
-45.852
-6.50435
-14.6381
-67.3308
81.3169
61.3194
81.2978
-34.8338
91.8504
-69.4473
-67.5897
-72.4779
-59.7547
-40.9299
-40.4834
-46.2873
-37.5804
-33.6888
-30.7252
-31.7315
-33.5718
-43.6465
-44.1318
-44.4093
-43.2261
-143.135
-131.233
-115.42
-40.9399
-40.0817
-18.7328
-105.047
70.2904
-96.3351
-72.9798
-88.1489
-80.0737
-44.3464
-43.8541
-45.3179
-41.3031
-41.6899
-41.0049
-44.6327
-38.688
-47.4584
-44.7397
-52.1677
-47.033
58.6765
77.923
-37.8684
89.2232
-13.8416
-20.6159
-88.4849
78.0875
-76.9602
-68.04
-76.2114
-61.2291
-33.4755
-30.3539
-31.4539
-33.2356
-40.6098
-39.726
-44.1064
-37.3594
-43.6561
-46.0119
-46.558
-42.7528
-45.2115
-48.8961
-49.9645
-46.4186
-37.0507
-36.6834
-36.5563
-37.3453
-40.0719
-40.2858
-42.9813
-38.7844
-40.2208
-40.2543
-41.3588
-39.6204
-48.0682
-39.0639
-45.1827
-43.9524
-38.4355
-37.8996
-38.2363
-39.1073
-41.7028
-42.0247
-41.0658
-42.2351
-41.8479
-42.3438
-41.3236
-42.3396
-53.1938
-55.1905
-54.3277
-33.1304
-46.5831
-43.7469
-45.5689
-44.9529
-50.9143
-50.555
-48.9959
-58.7659
-22.1163
1.07371
0.721538
-15.1116
-45.3392
-47.9697
-42.407
-48.3686
-44.8788
-43.9003
-44.3898
-44.3055
-49.0833
-49.7092
-47.8152
-53.2837
-56.9251
-64.3981
-64.0675
-61.4841
-44.8438
-48.2623
-48.6503
-46.1785
-40.3599
-40.229
-41.399
-39.722
-37.7826
-36.924
-38.2424
-37.6467
-41.6354
-42.0547
-43.6852
-40.6119
-47.9402
-39.6791
-45.1307
-43.8985
-41.4719
-42.1818
-41.1543
-42.1258
-37.2952
-37.2871
-37.0655
-38.5972
-37.0903
-37.3329
-37.6413
-35.8387
-52.8572
-52.6708
-53.3682
-34.1674
-23.0959
-0.330449
-0.3669
-16.2698
-48.565
-46.1485
-47.4064
-47.13
-52.7291
-51.9124
-50.5899
-60.4014
-44.6254
-46.9382
-41.1576
-47.8383
-56.7453
-64.3857
-63.2022
-61.972
-42.5545
-40.8895
-42.2902
-41.1456
-48.2168
-51.5005
-47.9475
-52.9982
-88.6807
-97.2763
-96.9367
-98.1544
149.882
181.401
167.724
174.443
-83.0761
-68.2782
-74.9557
-74.8829
147.982
197.525
183.722
182.127
-67.8464
-68.9931
-75.6574
-62.7076
-56.3503
-55.9602
-59.8874
-53.0423
-47.109
-44.5005
-45.9767
-45.8854
-36.2
-35.9548
-37.5239
-35.9143
-44.886
-44.3241
-45.5109
-45.3949
-38.6975
-38.0337
-38.0617
-37.9971
-41.124
-41.6055
-41.0809
-42.3115
-42.1357
-42.5536
-42.1118
-42.6507
-56.9147
-37.9638
-46.1962
-46.1767
136.735
191.764
162.25
161.107
-69.8197
-69.2789
-63.9263
-76.1237
-29.6356
-19.2667
-29.4423
-17.343
-30.8386
-37.6079
-34.3441
-34.2099
-30.9758
-33.728
-33.239
-33.3603
-42.8251
-42.3861
-42.6911
-42.9157
-47.1309
-46.822
-49.088
-44.5517
-103.403
-88.5848
-94.1222
-93.1864
148.519
180.448
171.887
167.01
-62.4965
-63.411
-70.4566
-59.8459
-55.8296
-55.8058
-59.6232
-52.8623
-51.4431
-50.3881
-52.1075
-51.892
-36.1669
-35.9145
-37.7145
-35.813
-43.9391
-44.5642
-43.599
-45.2783
-42.6055
-42.7613
-42.3826
-42.9995
-63.948
-63.9445
-69.7313
-60.3954
-29.4142
-19.3669
-17.4526
-29.5659
-45.443
-44.7576
-44.4581
-46.2402
-46.9612
-46.6701
-44.2524
-48.8302
-37.6421
-38.5306
-37.9255
-38.3134
-37.856
-38.0863
-37.9275
-38.2048
-50.3969
-56.2924
-53.2403
-53.1308
-40.3548
-40.1393
-39.5961
-41.0335
-44.5139
-47.7296
-45.9025
-45.9547
-38.8335
-38.4621
-38.5367
-38.5457
-41.701
-41.3037
-40.9603
-42.1175
-46.2424
-42.1647
-44.4745
-45.0702
-39.7173
-38.7041
-39.1054
-39.1671
-46.3231
-42.0251
-44.4629
-44.5157
-45.3895
-43.0165
-44.3242
-44.1369
-72.0628
-80.4613
-77.9334
-74.443
14.4905
3.55405
10.4683
10.1985
-40.1187
-73.0682
-56.8314
-56.7102
-74.739
-80.3392
-76.7781
-76.7527
-58.8451
-54.0823
-56.4746
-56.4346
-38.2567
-38.9981
-38.4157
-38.3158
-37.7455
-38.1327
-37.9323
-38.0158
-50.2781
-54.6864
-51.1508
-50.9773
-42.0415
-41.2737
-41.011
-42.4131
-39.8144
-40.3378
-40.797
-39.5676
-35.6379
-44.8572
-41.2255
-39.2944
-45.6345
-43.2732
-44.756
-44.3261
-73.5835
-81.0395
-75.375
-79.2462
-87.2852
-93.9458
-94.9295
-96.6723
-52.9341
-51.0259
-55.9169
-53.0749
-54.2269
-50.6325
-56.946
-53.2913
-85.3441
-85.7519
-93.9174
-93.0298
-98.1922
-92.7355
-93.7622
-89.1138
-96.9535
-87.6018
-91.1671
-88.4494
-52.7606
-50.3693
-54.8487
-51.5811
-50.5488
-51.0426
-53.8231
-50.7958
-86.3644
-77.9375
-76.7037
-70.0432
-86.4827
-77.6654
-76.3959
-69.6605
-46.3189
-44.81
-48.1559
-46.1745
-46.4183
-44.8317
-48.2813
-46.2571
-56.8953
-50.6804
-47.1299
-41.5726
-7.00782
3.85962
-6.33067
4.6604
-7.21518
3.23697
-6.78104
4.70305
-56.5833
-51.1315
-47.1457
-41.6032
125.858
126.938
166.955
170.906
144.19
138.207
173.038
173.707
135.272
140.831
172.594
170.28
121.377
116.611
169.748
165.343
-37.9903
-37.9529
-37.9099
-38.4068
-39.4188
-39.9831
-39.0533
-40.1525
-44.5049
-45.4764
-43.6123
-44.4486
-44.6005
-45.9317
-43.2312
-44.266
-38.7913
-39.2467
-38.6998
-39.6494
-46.4437
-47.5078
-44.6355
-45.7289
-43.3576
-44.9762
-42.7906
-44.3491
-37.989
-37.9635
-38.1739
-38.6681
-38.0165
-38.5604
-38.0368
-38.3755
-38.6566
-38.125
-38.4139
-38.1041
-39.0373
-38.6402
-38.8402
-38.6095
-39.1002
-39.3013
-38.8392
-39.0413
-75.9753
-39.7442
-69.7531
-51.8588
-63.9602
-67.6727
-72.0809
-73.6663
-67.2272
-63.6226
-73.56
-72.862
-41.2437
-76.8906
-52.1424
-69.5826
-44.5288
-44.4607
-42.2172
-44.1514
-47.4037
-45.9885
-45.9797
-44.8814
-45.8652
-44.3098
-45.4582
-44.2052
-44.755
-44.3837
-45.8906
-45.777
-47.0598
-38.2585
-44.3993
-44.9042
-40.439
-40.1201
-41.7166
-37.4426
-49.6136
-50.0532
-51.4183
-50.5844
-51.4798
-51.5883
-51.4057
-48.7757
-43.7709
-45.5855
-41.7154
-44.1456
-43.9346
-45.6589
-41.8358
-44.3271
-45.2059
-46.016
-45.6347
-44.4993
-44.8621
-45.1785
-45.2566
-44.0823
-55.0178
-57.4713
-53.2172
-55.982
-34.2987
-39.6771
-36.9623
-41.0252
-33.9527
-39.4126
-36.6087
-40.347
-54.8236
-57.3173
-53.0527
-55.8525
-38.4292
-38.8116
-38.2955
-38.18
-38.8872
-38.2934
-38.1378
-38.2267
-35.437
-36.4067
-35.3503
-36.2122
-36.5067
-35.621
-36.3091
-35.4981
-96.85
47.8585
-129.334
-1.53577
-104.38
-108.491
-46.9928
-41.2349
-46.3892
-45.9783
-48.2286
-46.0776
-64.8852
70.5892
-25.3715
65.3335
-75.2363
-51.9952
-45.6323
-37.7095
-35.2606
-35.3454
-44.9381
-39.9323
-128.328
-16.0241
-105.47
49.6521
-109.221
-107.967
-45.6652
-41.3584
-45.8354
-40.3221
-51.2597
-45.5458
-27.528
60.7935
-81.3237
65.1046
-86.722
-60.1664
-34.6408
-35.2139
-44.4587
-37.4467
-44.4897
-39.3212
-43.6206
-42.8221
-37.4507
-38.122
-41.7764
-38.2391
-40.7631
-39.1426
-45.6268
-42.4974
-39.3524
-39.2582
-40.6396
-42.2953
-41.0623
-42.691
-50.6816
-58.1528
-48.0224
-47.8776
-49.3006
-59.9023
-51.8211
-74.1798
-45.5572
-49.6942
-45.9706
-45.343
-47.46
-52.6836
-55.5667
-53.3488
-43.6232
-42.8938
-41.0017
-39.4285
-38.4636
-38.5491
-42.5442
-39.7213
-43.2689
-41.7519
-40.4738
-42.2894
-37.4738
-38.2035
-37.2089
-37.3933
-51.7426
-57.4869
-51.5833
-74.545
-50.3575
-50.1787
-51.233
-62.2205
-43.9627
-49.1434
-54.8025
-52.611
-44.1873
-43.1343
-46.0822
-52.5282
-89.5579
66.6611
-75.0532
59.9888
-102.057
-101.157
111.882
115.061
-107.045
-40.2556
-106.744
-45.5942
-93.0092
-92.9343
100.406
99.5473
-77.5309
-65.8071
-55.6845
-50.5139
-73.406
-60.962
-59.9982
-53.0127
-44.9465
-38.8604
-45.6954
-37.2847
-45.9132
-47.092
-37.388
-35.9633
-44.149
-40.8651
-44.8702
-40.771
-44.6074
-44.633
-39.7138
-39.7274
-41.8226
-41.6562
-39.3342
-40.1408
-40.3332
-41.5324
-41.4418
-41.9135
-56.293
136.055
-60.119
139.565
-63.5525
-63.2788
141.667
141.116
-77.9621
-57.7465
-61.1938
-42.6915
-64.8187
-77.6684
-41.7821
-34.9395
-29.0765
-29.9207
-28.7845
-29.6311
-29.1398
-29.004
-29.7014
-29.8685
-42.1964
-45.1241
-48.6269
-45.9469
-43.2014
-45.0394
-48.6618
-45.9536
-107.166
63.8624
-95.8883
59.7709
-121.839
-121.086
113.619
109.096
-72.9887
-64.9903
-54.9688
-50.088
-68.3314
-58.4462
-59.4342
-52.6738
-44.011
-38.3528
-43.3291
-36.8749
-47.068
-47.6492
-37.5039
-35.8069
-44.0122
-42.7967
-41.3792
-40.8839
-42.5133
-44.3648
-42.0481
-42.7166
-78.4285
-58.1478
-58.7163
-41.491
-71.1379
-61.0275
-34.7727
-42.6453
-48.9002
-45.5012
-46.6567
-46.1174
-44.817
-46.7069
-45.6475
-48.5791
-36.6358
-37.1602
-37.2595
-37.869
-37.436
-38.5543
-37.5066
-37.7984
-43.3789
-39.912
-43.875
-42.5566
-46.842
-46.5651
-39.9581
-41.4746
-40.9009
-39.7855
-40.9181
-39.8013
-42.6771
-42.6855
-39.1954
-39.2086
-41.6543
-42.6982
-43.124
-43.8372
-41.4627
-42.2274
-43.8279
-44.4369
-41.2318
-43.0138
-41.1448
-43.0095
-40.3416
-40.4145
-43.9567
-43.9524
-48.7177
-57.1587
-48.2238
-54.2893
-46.7909
-46.8638
-64.1681
-60.6242
10.1818
-9.11591
9.72912
-9.4979
15.1805
15.0154
-21.5176
-21.7023
-68.4397
-63.5446
-68.3714
-63.3533
-72.2862
-72.2168
-61.4683
-61.4219
-37.2027
-37.2194
-37.3117
-37.5248
-37.7127
-37.6653
-37.4708
-37.6168
-44.2192
-41.7992
-45.5548
-44.9178
-47.63
-47.5517
-41.7799
-43.3907
-38.2807
-36.8381
-40.6196
-39.8015
-39.9142
-39.0109
-36.8598
-38.597
-49.6129
-58.2166
-47.774
-54.7538
-47.4561
-46.0465
-61.306
-65.8235
-86.7687
-86.0853
-76.4806
-63.5414
-64.0981
-76.6339
-59.4506
-59.7484
-80.111
-79.6615
-70.7554
-60.687
-69.8391
-60.8334
-58.7772
-58.7261
-63.2654
-63.1926
-59.3188
-52.6849
-59.1943
-52.5915
-49.8866
-49.9284
-30.352
-30.4296
-23.7333
-11.1795
-11.3821
-23.7938
-2.81004
-2.80503
189.665