# vtk DataFile Version 2.0
tri_press
ASCII
DATASET UNSTRUCTURED_GRID
POINTS 3682 float
-0.735 0.175 -2.11272
-0.745 0.305 2.13096
-0.735 0.715 -2.06317
-0.655 1.0428 2.175
0.735 0.175 -2.11272
0.745 0.305 2.13096
0.735 0.715 -2.06317
0.655 1.0428 2.175
-0.776514 0.180152 -0.69816
-0.814024 0.189309 0.7164
-0.814927 0.93086 -0.650447
-0.77052 1.02239 0.762277
0.776507 0.180159 -0.69816
0.814071 0.189262 0.7164
0.814985 0.930918 -0.650447
0.770566 1.02243 0.762277
-1.51586 -0.259289 -3.26736
-1.51777 -0.18524 -2.13645
-1.5472 -0.177425 -0.721844
-1.56112 -0.179335 0.693133
-1.51978 -0.102843 2.10777
-1.50832 -0.0376627 3.23884
-1.51571 0.0201109 4.36962
-1.51464 0.0690901 -3.24325
-1.51801 0.166141 -2.11254
-1.55723 0.199751 -0.698287
-1.56025 0.206347 0.716128
-1.48842 0.282158 2.13041
-1.48899 0.346111 3.26145
-1.50725 0.403111 4.39229
-1.51623 0.687232 -3.1945
-1.52448 0.781518 -2.06372
-1.57784 0.94062 -0.650719
-1.53199 1.01195 0.762149
-1.43092 1.04711 2.17518
-1.45948 1.10752 3.3063
-1.49774 1.16803 4.43744
-1.52461 1.74526 -3.12277
-1.53271 1.85587 -1.99226
-1.5533 2.02652 -0.579853
-1.54966 2.15641 0.832154
-1.52511 2.22812 2.24458
-1.51895 2.27548 3.37513
-1.52771 2.32683 4.50607
-0.751865 -0.255018 -3.26748
-0.742967 -0.177346 -2.13662
-0.766441 -0.186375 -0.721821
-0.794926 -0.191773 0.693365
-0.770927 -0.0937462 2.10818
-0.764866 -0.0313453 3.23911
-0.77143 0.022513 4.36978
-0.751985 0.0655913 -3.24329
-0.756233 0.353632 3.26168
-0.76871 0.40569 4.39241
-0.751744 0.658654 -3.19428
-0.732754 1.10793 3.30626
-0.764854 1.16856 4.43743
-0.752675 1.7258 -3.12254
-0.755491 1.83759 -1.99201
-0.778239 2.02191 -0.579704
-0.790266 2.1606 0.832136
-0.781858 2.23064 2.24445
-0.779312 2.27616 3.375
-0.786332 2.32705 4.50597
0.755552 -0.25501 -3.26748
0.760494 -0.17734 -2.13662
0.787518 -0.186372 -0.721821
0.797449 -0.1918 0.693365
0.749169 -0.093756 2.10818
0.727395 -0.0313504 3.23911
0.718723 0.0225102 4.36978
0.744995 0.065598 -3.24329
0.710061 0.353629 3.26168
0.707518 0.405688 4.39241
0.747368 0.658663 -3.19428
0.678515 1.10793 3.30626
0.691778 1.16856 4.43743
0.782215 1.72582 -3.12254
0.789288 1.83762 -1.99201
0.777455 2.02194 -0.579704
0.737781 2.16062 0.832136
0.701754 2.23066 2.24445
0.693171 2.27617 3.375
0.692493 2.32706 4.50597
1.51879 -0.259269 -3.26736
1.52668 -0.18522 -2.13645
1.56149 -0.177411 -0.721844
1.57224 -0.179362 0.693133
1.51803 -0.102864 2.10777
1.48531 -0.0376731 3.23884
1.47263 0.0201055 4.36962
1.50825 0.069111 -3.24325
1.51396 0.166165 -2.11254
1.55856 0.199779 -0.698288
1.57104 0.206322 0.716128
1.49903 0.282138 2.13041
1.46426 0.346103 3.26145
1.45793 0.403107 4.39229
1.51201 0.687258 -3.1945
1.52148 0.781553 -2.06372
1.57654 0.940691 -0.650719
1.53724 1.01199 0.762149
1.43573 1.04711 2.17518
1.42508 1.10752 3.3063
1.43615 1.16803 4.43744
1.54865 1.7453 -3.12277
1.55723 1.85592 -1.99226
1.55065 2.02657 -0.579853
1.5077 2.15646 0.832154
1.45898 2.22814 2.24458
1.44243 2.2755 3.37513
1.44024 2.32685 4.50607
-0.772489 0.445 -2.12543
0 0.171329 -2.11639
-0.754676 0.178657 -1.40544
-0.70753 0.6739 2.16051
0 0.277098 2.15886
-0.82399 0.202676 1.42368
0 0.786752 -2.13492
-0.804042 0.852009 -1.35681
0 1.06778 2.19998
-0.732884 1.05272 1.46864
0.772511 0.445 -2.12546
0.754665 0.178668 -1.40544
0.706564 0.6739 2.15954
0.82411 0.202557 1.42368
0.803954 0.851921 -1.35681
0.732879 1.05271 1.46864
-0.77985 0.20015 0.00911999
-0.881401 0.555506 -0.674303
-3.35858e-06 0.175829 -0.69816
-0.879317 0.605848 0.739338
2.33335e-05 0.185301 0.7164
-0.790044 0.973944 0.055915
2.89918e-05 1.19671 -0.650447
2.26276e-05 1.47179 0.762277
0.779863 0.200137 0.00911999
0.88141 0.555539 -0.674303
0.879328 0.605847 0.739338
0.790051 0.973951 0.055915
-0.868291 0.500253 -1.38112
0.868286 0.500269 -1.38112
-1.67929e-06 0.176098 -1.40544
1.44959e-05 0.965052 -1.35681
0 0.445 -2.31851
-0.880917 0.580677 0.0325175
0.880898 0.580693 0.0325175
9.98749e-06 0.202349 0.00911999
2.58097e-05 1.459 0.055915
-0.886613 0.639874 1.44616
0.88661 0.639874 1.44616
1.16668e-05 0.237345 1.42368
1.13138e-05 1.29736 1.46864
0 0.6739 2.24153
-0.751865 0.31 -2.1172
-0.3675 0.171348 -2.11637
-0.744944 0.176723 -1.75908
-0.774776 0.48945 2.19425
-0.3725 0.278749 2.15721
-0.819335 0.218999 1.77732
-0.751321 0.58 -2.09188
-0.3675 0.75454 -2.10271
-0.781382 0.795365 -1.70999
-0.674214 0.85835 2.1607
-0.3275 1.06288 2.19508
-0.695067 1.04888 1.82182
0.3675 0.171335 -2.11639
0.751814 0.31 -2.11715
0.744938 0.176729 -1.75908
0.3725 0.277094 2.15887
0.774721 0.48945 2.19419
0.817278 0.221056 1.77732
0.3675 0.754529 -2.1027
0.75132 0.58 -2.09188
0.781383 0.795366 -1.70999
0.3275 1.06288 2.19508
0.674216 0.85835 2.16071
0.695075 1.04889 1.82182
-0.764349 0.180651 -1.0518
-0.774 0.194333 -0.34452
-0.863637 0.350489 -0.686232
-0.387653 0.179202 -0.69816
-0.809913 0.205087 1.07004
-0.793625 0.198041 0.36276
-0.871621 0.385104 0.727869
-0.406365 0.188575 0.7164
-0.811177 0.893127 -1.00363
-0.869022 0.753612 -0.662375
-0.801054 0.95097 -0.297266
-0.455433 1.15975 -0.650447
-0.753191 1.03904 1.11546
-0.856512 0.829914 0.750808
-0.785953 1.00384 0.409096
-0.4864 1.44939 0.762277
0.764349 0.180651 -1.0518
0.387648 0.179202 -0.69816
0.774 0.194333 -0.34452
0.863647 0.350505 -0.686232
0.810739 0.204261 1.07004
0.4064 0.188576 0.7164
0.793902 0.197764 0.36276
0.871619 0.385095 0.727869
0.811184 0.893134 -1.00363
0.455468 1.15973 -0.650447
0.869008 0.753634 -0.662375
0.801046 0.950962 -0.297266
0.753212 1.03906 1.11546
0.486435 1.44939 0.762277
0.856516 0.829924 0.750808
0.786097 1.00398 0.409096
-0.851596 0.472627 -1.75328
-0.386245 0.445 -2.2716
-8.39644e-07 0.174741 -1.76092
0 0.308165 -2.22645
-0.857075 0.339455 -1.39328
-0.377339 0.176024 -1.40544
-0.828317 0.656887 1.80333
-0.353765 0.6739 2.22338
5.83339e-06 0.245529 1.79127
0 0.475499 2.29264
-0.887238 0.421275 1.43492
-0.411989 0.237333 1.42368
7.24794e-06 0.889782 -1.74587
0 0.615876 -2.27845
-0.885346 0.676131 -1.36897
-0.402014 0.954554 -1.35681
5.6569e-06 1.12724 1.83431
0 0.870838 2.20307
-0.839933 0.846296 1.4574
-0.366436 1.26951 1.46864
0.851594 0.472635 -1.75329
0.386255 0.445 -2.2716
0.85703 0.339469 -1.39328
0.377332 0.176024 -1.40544
0.828386 0.656887 1.80285
0.353282 0.6739 2.22345
0.887244 0.421215 1.43492
0.412061 0.237333 1.42368
0.885346 0.676095 -1.36897
0.401984 0.95388 -1.35681
0.840001 0.846293 1.4574
0.366445 1.26961 1.46864
-0.868078 0.371566 0.0208187
-0.390785 0.19952 0.00911999
-0.884247 0.52788 -1.02771
-0.881273 0.568092 -0.320893
-2.51893e-06 0.177433 -1.0518
3.31445e-06 0.195314 -0.34452
-0.880558 0.593263 0.385928
-0.895111 0.622861 1.09275
1.66605e-05 0.197431 0.36276
1.75002e-05 0.213422 1.07004
-0.863907 0.791524 0.0442162
-0.499859 1.42617 0.055915
2.17438e-05 0.994103 -1.00363
2.74007e-05 1.38571 -0.297266
2.42186e-05 1.47326 0.409096
1.69707e-05 1.42388 1.11546
0.868098 0.371556 0.0208187
0.390798 0.19952 0.00911999
0.884194 0.527904 -1.02771
0.881259 0.568116 -0.320893
0.880534 0.59327 0.385928
0.895145 0.62286 1.09275
0.86391 0.79154 0.0442162
0.499884 1.42616 0.055915
-0.84019 0.324728 -1.75618
-0.863949 0.353642 -1.03976
-0.870561 0.709657 -1.01567
-0.856576 0.628065 -1.73163
0.840189 0.324734 -1.75618
0.856557 0.628048 -1.73164
0.870571 0.709662 -1.01567
0.863946 0.353659 -1.03976
-0.372419 0.174649 -1.76
0.372416 0.174649 -1.76
0.382792 0.177385 -1.0518
-0.382799 0.177385 -1.0518
-0.384757 0.860477 -1.72793
-0.404731 0.99408 -1.00363
0.404746 0.99408 -1.00363
0.384742 0.860493 -1.72793
-0.376872 0.309082 -2.21818
-0.376872 0.597938 -2.22475
0.376878 0.597938 -2.22476
0.376878 0.309082 -2.21803
-0.865955 0.360979 -0.332707
-0.869734 0.378393 0.374344
-0.860338 0.810783 0.397512
-0.866385 0.772528 -0.309079
0.865952 0.360991 -0.332707
0.866398 0.772556 -0.309079
0.860339 0.810795 0.397512
0.869727 0.378391 0.374344
-0.386981 0.193837 -0.34452
0.386985 0.193837 -0.34452
0.397083 0.19708 0.36276
-0.397059 0.19708 0.36276
-0.498885 1.33544 -0.297266
-0.496657 1.44483 0.409096
0.496686 1.44483 0.409096
0.498912 1.33542 -0.297266
-0.895928 0.409427 1.08139
-0.870309 0.455363 1.79033
-0.801239 0.852323 1.81258
-0.855481 0.830207 1.1041
0.895928 0.409385 1.08139
0.855614 0.830216 1.1041
0.801257 0.852321 1.81234
0.870345 0.455333 1.79009
-0.409495 0.213415 1.07004
0.409554 0.213415 1.07004
0.39228 0.242798 1.7843
-0.392245 0.250984 1.7843
-0.375843 1.40608 1.11546
-0.346968 1.11347 1.82806
0.346972 1.11348 1.82806
0.375869 1.40608 1.11546
-0.363133 0.482475 2.27645
0.362891 0.482475 2.27646
0.340391 0.864594 2.21689
-0.340633 0.864594 2.21686
-0.747574 0.2425 -2.1191
-0.55125 0.17136 -2.11636
-0.740013 0.175821 -1.9359
-0.767047 0.397225 2.16976
-0.55875 0.339498 2.09646
-0.781696 0.262471 1.95414
-0.748942 0.6475 -2.08331
-0.55125 0.741693 -2.08986
-0.763591 0.760583 -1.88658
-0.661615 0.950575 2.16486
-0.49125 1.05673 2.18893
-0.67628 1.04709 1.99841
0.55125 0.171353 -2.11637
0.747591 0.2425 -2.11912
0.740007 0.175827 -1.9359
0.55875 0.286548 2.14941
0.767009 0.397225 2.16972
0.781517 0.26265 1.95414
0.55125 0.741682 -2.08985
0.748884 0.6475 -2.08325
0.763535 0.760527 -1.88658
0.49125 1.05672 2.18892
0.66159 0.950575 2.16483
0.676293 1.0471 1.99841
-0.769186 0.181647 -0.87498
-0.775803 0.186697 -0.52134
-0.850273 0.250222 -0.692196
-0.582103 0.179639 -0.69816
-0.806559 0.202607 0.89322
-0.802014 0.195486 0.53958
-0.855813 0.280711 0.722135
-0.610093 0.189145 0.7164
-0.812937 0.911879 -0.827037
-0.845209 0.843854 -0.656411
-0.808441 0.941366 -0.473856
-0.664793 1.10453 -0.650447
-0.76276 1.03162 0.938867
-0.829172 0.933979 0.756542
-0.776932 1.01181 0.585686
-0.659994 1.29896 0.762277
0.769183 0.18165 -0.87498
0.582098 0.17964 -0.69816
0.773073 0.189427 -0.52134
0.850278 0.250231 -0.692196
0.806704 0.202462 0.89322
0.610122 0.189145 0.7164
0.802056 0.195444 0.53958
0.855815 0.280694 0.722135
0.812917 0.911859 -0.827037
0.664818 1.10451 -0.650447
0.84521 0.843883 -0.656411
0.808445 0.94137 -0.473856
0.762812 1.03167 0.938867
0.660032 1.29898 0.762277
[...]
POINT_DATA 3682
SCALARS point_scalars float 1
LOOKUP_TABLE default
-151.596
-48.2703
-70.0935
-40.2266
-146.08
-47.0627
-69.9762
-38.0261
-41.9806
-38.851
-64.6263
-51.94
-42.0851
-38.6619
-64.4845
-51.724
-137.75
-115.349
-42.9669
-34.5539
-52.8748
-46.0383
-44.1518
-37.0805
-112.14
-41.1423
-34.9648
-47.468
-44.9978
-44.2021
24.4917
-73.3167
-52.3283
-46.3596
-44.0694
-43.0415
-43.0415
-64.3051
-46.4737
-96.6185
-61.8312
-39.401
-40.3634
-40.3634
-85.2186
-182.206
-41.8583
-40.7422
-49.1433
-41.5652
-40.6845
39.8156
-40.6126
-40.6941
169.712
-38.9432
-39.8371
13.1103
-37.7777
-72.5796
-65.1185
-37.3384
-37.9872
-37.0921
-85.0291
-193.59
-42.675
-40.6244
-47.8467
-41.1179
-40.0493
39.7278
-39.9268
-40.1292
169.813
-35.5136
-38.8086
13.0787
-38.2592
-71.9609
-64.8938
-35.2547
-34.5894
-34.5894
-141.776
-114.589
-42.983
-34.28
-51.0578
-45.1482
-42.7918
-37.515
-112.057
-41.0862
-34.8102
-46.4099
-43.1994
-41.9903
24.4595
-73.2653
-52.209
-46.1193
-42.3323
-41.5069
-41.5069
-64.1494
-45.7537
-96.4757
-61.6189
-37.6462
-38.0693
-38.0693
-38.2191
-139.11
-52.3006
-41.4793
-45.1296
-42.4059
-54.0372
-44.1345
-34.3455
-45.784
-38.2094
-52.2664
-39.7941
-42.0438
-44.0654
-45.2774
-35.2648
-43.9242
-42.1861
-41.4091
-43.1653
-56.9973
19.8973
-66.6491
-35.2188
-43.8303
-41.1661
-56.8218
-51.8128
-51.7599
-57.7811
-6.2781
206.582
-42.8548
-42.7184
-35.3967
-98.4761
-49.2877
-48.6106
-42.5588
-39.9711
-33.5133
-53.0525
-152.579
-74.1561
-45.0344
-45.9126
-53.7671
-59.3539
-52.7191
-43.4233
-41.012
-35.8026
-39.9407
-153.385
-53.1006
-74.1388
-45.4054
-43.8374
-52.5591
-52.6586
-59.5932
-43.395
-33.8125
-39.1028
-39.0864
-42.6717
-37.4047
-41.5318
-41.7586
-41.4031
-36.6333
-37.3547
-42.5617
-42.3931
-50.1966
-62.2226
7.04541
-49.8172
-45.5534
-53.9744
-64.9631
-42.6796
-41.8063
-37.3308
-41.4611
-41.6864
-42.4718
-36.6278
-37.1235
-42.113
7.1385
-50.0804
-62.0687
-49.487
-64.8203
-45.3133
-53.7952
-73.4365
184.587
-80.2051
185.817
-51.4045
-56.8379
-47.2672
-38.4609
-43.6788
-39.3182
-47.593
-43.0843
-23.705
171.125
-54.8452
-14.1218
-35.0301
-33.03
-48.1603
-40.8567
-73.3967
184.664
-51.3421
-56.6657
-46.1385
-36.5534
-46.9935
-42.6231
-54.7962
-14.0469
-47.5149
-40.6132
-39.1485
-35.4256
-44.185
-44.0879
-46.8658
-38.0205
-41.9509
-44.6305
-37.0484
-43.5227
-48.4074
-90.1234
16.1827
-60.9942
-77.2159
-52.3978
-39.0283
-35.392
-44.1439
-43.9629
-41.7775
-44.2577
-48.2816
-90.004
-75.5334
-45.3496
-44.4981
-71.0026
-75.4805
-70.9746
-44.4386
-45.4389
-79.2421
-79.5337
-46.1855
-46.178
-26.7869
6.79534
6.81496
-26.7693
160.863
136.037
136.109
161.126
-40.2408
-38.7595
-46.6444
-51.0327
-40.1033
-50.8943
-46.4799
-38.6012
-37.7873
-37.7201
-36.9174
-36.9695
-62.9771
-70.113
-69.999
-63.0122
-44.8378
-51.4714
-45.3482
-46.7859
-44.4699
-46.4112
-44.2094
-50.4195
-42.8277
-42.6578
-44.3371
-44.7735
-53.346
-36.3431
-35.76
-53.1845
-40.83
-40.3094
-35.2759
-37.6732
-75.2798
-179.675
-103.142
-46.0793
-45.7999
-49.2165
-51.0199
-47.4721
-50.6418
-41.3241
-37.0456
-38.9599
-177.089
-74.5164
-103.142
-46.7533
-45.1395
-48.0293
-47.4797
-51.165
-50.548
-34.7999
-39.2206
-37.624
-41.4694
-39.7137
-40.8347
-41.3401
-44.8263
-36.2306
-36.7182
-42.3797
-52.8548
-56.0052
-65.8596
-31.0679
-51.0051
-49.1891
-52.1373
-57.9787
-41.4811
-41.3985
-39.2973
-40.8084
-44.5094
-42.2427
-36.1553
-36.49
-52.7086
-31.1721
-55.8761
-65.6656
-50.7401
-57.7389
-48.9958
-51.9437
-40.0989
-33.4322
-103.911
147.112
-142.741
-142.708
-100.325
130.164
-60.502
-47.2912
-50.4119
-55.3253
-44.1349
-41.3475
-45.725
-39.1506
-45.9355
-45.418
-44.7919
-40.1149
-48.7306
-41.8718
-46.9886
-43.263
-46.094
-45.7339
-32.1236
56.421
-44.5853
-41.5938
-53.8667
-21.4361
-34.8787
-33.7074
-35.131
-29.6663
-42.4016
-48.0491
-46.586
-42.3835
-40.1757
-33.4155
-103.79
147.08
-60.4848
-47.2863
-50.352
-55.0466
-42.6746
-39.6328
-44.2726
-37.4034
-47.8691
-41.7158
-46.4166
-42.7239
-44.5583
-41.5249
-53.8032
-21.3882
-41.7637
-47.6357
-46.0215
-42.0598
-36.4707
-35.4478
-37.7524
-35.3336
-42.4069
-46.5135
-43.2527
-44.4261
-42.0784
-42.1223
-43.6825
-40.3015
-39.4283
-43.23
-41.5498
-40.3471
-43.1821
-43.1358
-39.675
-45.101
-59.4451
-53.9145
-53.3124
-71.277
17.3674
17.3822
28.695
-15.672
-66.4929
-66.4202
-71.6263
-61.1167
-36.4264
-35.3732
-37.6452
-35.2777
-42.3256
-46.4122
-43.1884
-44.3098
-39.1907
-42.9853
-41.3412
-40.0037
-59.2669
-53.7365
-53.1524
-71.0997
-59.3759
-51.6367
-52.1043
-47.3263
-59.3391
-51.5761
-52.0601
-47.2966
-67.8538
-57.5914
-57.589
-51.576
-14.992
-7.68156
-7.66023
3.29977
199.893
179.573
193.463
200.106
-40.5619
-43.4694
-42.4019
-45.4327
-40.4354
-43.3398
-42.2527
-45.292
-35.3976
-36.4353
-35.2686
-35.3817
-95.96
-107.6
-85.4166
-95.9132
-50.1468
-48.2873
-50.0238
-47.4795
-49.2613
-47.6579
-49.3502
-46.966
-42.2411
-42.7505
-42.5157
-43.0045
-36.7234
-40.0669
-39.9361
-44.8956
-35.7959
-37.5061
-33.362
-34.1434
-109.617
118.978
-102.321
76.1372
-75.7648
-77.9055
-47.7787
-40.9522
-46.2733
-42.1136
-53.6236
-46.9713
-83.6205
113.028
-36.133
65.8717
-56.7118
-32.2853
-44.4272
-39.0994
-35.7014
-36.7341
-43.0863
-37.2937
-101.525
76.1721
-109.555
118.927
-75.7181
-77.8846
-45.2094
-40.7978
-46.662
-40.1549
-52.5631
-45.6853
-36.1303
65.8176
-83.1631
112.995
-56.7259
-32.2861
-34.8144
-33.5606
-42.8735
-37.0321
-42.0279
-36.657
-43.9792
-45.161
-38.5157
-37.5324
-41.9797
-40.929
-43.2311
-39.8319
-44.6365
-41.3451
-37.8972
-36.5985
-38.4086
-37.3724
-39.4332
-45.5451
-45.6104
-9.37101
-47.0877
-51.4962
-56.7066
-95.7592
17.5086
-23.1639
-48.9473
-55.0748
-45.9142
-45.5804
-50.6118
-62.0781
-65.7865
-61.9378
-44.1813
-45.1652
-43.2525
-39.5532
-38.4219
-37.4399
-41.9121
-40.797
-44.2595
-41.1914
-39.3637
-45.4348
-37.7573
-36.5226
-38.2162
-37.081
-45.5253
-9.34485
17.5518
-23.0838
-47.0123
-51.3644
-56.5516
-95.5884
-48.6103
-54.8465
-65.6609
-61.7819
-45.7263
-45.2791
-50.4665
-61.9036
-74.2199
-74.6264
168.375
168.108
-80.0817
-80.0748
180.776
180.568
-59.684
-46.3615
-66.6377
-50.6798
-49.4865
-46.6177
-40.486
-38.3216
-43.7858
-44.1172
-40.0282
-39.599
-46.3623
-51.921
-42.7314
-43.5507
-23.7532
-23.756
173.578
173.614
-46.6924
-60.4933
-19.8039
-4.52596
-35.4752
-35.0635
-33.285
-35.0235
-47.3526
-48.2702
-45.5993
-37.8234
-74.1531
-74.6426
168.15
168.35
-59.6194
-46.1836
-66.628
-50.6789
-45.4665
-48.4006
-39.8193
-36.3379
-45.9116
-51.0947
-42.4328
-42.7767
-60.4817
-46.6441
-4.50957
-19.7994
-47.7548
-46.4973
-37.455
-45.41
-39.6528
-38.9231
-36.2508
-35.4027
-44.8339
-44.0605
-41.6999
-47.0767
-46.6984
-46.6925
-37.9744
-37.9467
-40.0871
-43.9954
-44.9569
-45.2822
-36.9993
-37.0261
-43.4717
-43.3717
-47.7602
-49.8677
-97.3034
-76.7393
13.7161
13.7272
-57.0843
-57.0345
-75.8083
-75.7526
-52.4142
-52.3425
-39.5361
-38.7872
-36.2169
-35.3624
-44.0071
-44.8226
-41.5734
-46.9475
-43.8205
-39.9219
-44.5767
-44.9017
-49.7233
-47.586
-76.6187
-97.1212
-107.162
-59.2704
-59.4934
-107.353
-41.9039
-42.7584
-46.831
-46.6523
-50.3546
-46.4439
-47.521
-44.9508
-72.6227
-93.5892
-60.2463
-57.8781
-107.124
-107.285
-59.4411
-59.2419
-72.4307
-57.839
-60.2242
-93.5069
-50.2744
-44.8837
-47.4814
-46.37
-41.8546
-46.3736
-46.7919
-42.6991
-104.529
-100.842
-67.5501
-64.5243
-104.503
-64.5029
-67.2322
-100.829
-42.5646
-43.5722
-51.3575
-49.2301
-42.5431
-49.2378
-51.3565
-43.5548
-41.9303
-26.3794
-15.7265
-32.2854
-10.0125
26.4689
1.65883
-15.7441
-9.99883
-15.6995
1.6763
26.4982
-41.8906
-32.2816
-15.7114
-26.351
48.4321
123.036
174.777
118.63
74.2426
85.046
189.496
131.874
74.2976
131.865
189.485
84.9909
48.4889
123.957
174.867
122.995
-39.8687
-38.3033
-41.069
-42.2545
-37.5357
-39.7102
-40.3904
-37.7052
-49.4384
-51.7682
-44.7555
-43.5084
-57.8574
-47.2964
-46.3337
-54.8275
-39.664
-42.1364
-40.9458
-38.2069
-57.6998
-54.6661
-46.1998
-47.1737
-49.274
-43.306
-44.6034
-51.6131
-37.3629
-37.5893
-40.2468
-39.5076
-39.5439
-40.2159
-36.4088
-35.9881
-39.1828
-35.9355
-36.3953
-40.0145
-38.7288
-39.58
-35.2554
-35.1443
-38.8312
-35.1911
-35.2763
-39.6158
-77.4861
-81.326
-105.156
-15.7133
-57.7379
-70.6854
-84.0534
-63.999
-57.5329
-63.7929
-83.9999
-70.6256
-77.2095
-15.1868
-105.106
-81.1013
-35.9872
-45.3623
-46.9176
-38.7695
-48.0454
-47.0642
-50.461
-52.4547
-42.4785
-44.9427
-49.1835
-45.657
-49.2885
-43.4483
-48.2708
-48.3622
-35.6856
-38.4749
-46.4284
-44.9912
-49.031
-47.8828
-47.7478
-43.1399
-40.9375
-44.1572
-48.2904
-44.181
-47.0467
-51.6132
-49.6351
-45.8371
-46.6729
-45.0934
-43.0267
-42.0047
-46.5
-41.683
-42.8729
-45.0275
-46.1454
-44.7748
-42.244
-44.7674
-47.085
-45.6664
-42.5514
-45.2214
-54.8261
-47.7769
-44.9854
-61.4031
-36.3303
-35.38
-37.1058
-39.0977
-35.2338
-38.6336
-36.8909
-34.8666
-54.5992
-61.3191
-44.8548
-47.515
-44.1866
-40.7965
-38.9792
-40.289
-41.2038
-39.4535
-38.2666
-40.3135
-36.3263
-30.4632
-33.8873
-37.9226
-38.87
-39.5946
-35.5012
-32.8425
-95.0396
-190.36
-141.45
-47.6795
-46.6896
-48.06
-53.2396
-51.4916
-71.649
-41.3172
-37.7835
-39.1003
-193.767
-98.9347
-141.379
-47.3947
-46.3685
-47.74
-51.5748
-53.1973
-71.5685
-35.5421
-39.0982
-37.3913
-42.1466
-40.6693
-42.3995
-41.3375
-42.8342
-37.132
-37.5679
-41.9358
-62.5678
-60.1028
-67.6154
-65.4318
-51.4133
-51.2091
-52.0562
-54.5525
-42.1893
-41.4149
-40.9262
-42.4717
-42.6466
-41.7725
-37.0666
-37.3457
-62.4805
-65.5495
-59.9721
-67.4056
-51.16
-54.2977
-51.0029
-51.8474
-41.0551
-35.9051
-133.058
92.3712
-138.99
-138.967
-118.46
-158.318
-55.8809
-49.572
-50.9409
-53.924
-42.9902
-41.4901
-45.6478
-39.4554
-44.7177
-44.5295
-44.5358
-41.9099
-44.6305
-41.2153
-46.1671
-43.7708
-48.1792
-47.9358
-37.6877
-2.17645
-44.6721
-44.2069
-52.8853
-29.6414
-34.5774
-33.9939
-35.7064
-29.2349
-44.2803
-46.9792
-46.1004
-44.6356
-41.0673
-35.8976
-132.955
92.3698
-55.8417
-49.5542
-50.5727
-53.8994
-41.4192
-39.7842
-43.953
-37.7301
-44.0568
-41.0037
-45.6932
-43.2349
-44.6396
-44.1125
-52.8259
-29.5841
-43.7112
-46.5231
-45.5558
-44.2439
-35.1611
-35.6017
-36.9639
-35.3083
-42.8048
-45.1024
-43.7866
-44.3051
-42.1851
-42.2056
-42.5365
-41.3524
-40.6702
-42.0558
-41.4722
-40.5622
-43.2938
-43.27
-40.6036
-45.3019
-58.2271
-55.6781
-55.4806
-63.4598
19.4785
19.5288
27.4728
7.60369
-66.6373
-66.6015
-69.143
-64.0547
-35.1099
-35.5153
-36.8819
-35.2393
-42.7174
-45.0051
-43.7069
-44.2005
-40.4306
-41.8105
-41.2475
-40.3032
-58.0587
-55.4916
-55.311
-63.2714
-55.2666
-51.7807
-51.8072
-48.9532
-55.2227
-51.7248
-51.7581
-48.9055
-62.5943
-57.8212
-57.8202
-54.2549
-10.8521
-6.59913
-6.59334
-2.1059
199.17
191.833
205.508
198.951
-41.7222
-43.1468
-42.6176
-43.9647
-41.5899
-43.0154
-42.4742
-43.8259
-35.3898
-35.5784
-35.3371
-35.382
-97.7249
-104.743
-91.0827
-97.7031
-50.2975
-48.6856
-50.433
-48.9014
-49.5266
-48.0369
-49.752
-48.3094
-42.1404
-42.6238
-42.5088
-42.8026
-38.0652
-39.9427
-39.8908
-41.9705
-34.3351
-35.3054
-33.6813
-33.4011
-56.3106
-44.2622
-130.406
86.1694
-162.641
-148.339
-124.624
-66.4276
-86.9502
-66.4362
-75.1135
-76.1629
-45.8357
-44.676
-48.1535
-41.4703
-45.089
-45.9506
-46.1069
-43.8293
-51.8461
-54.5874
-55.3443
-47.9511
-58.4958
-50.2134
-111.534
70.9023
-57.5523
-37.0306
-42.9968
-13.0226
-47.9964
-43.6343
-51.7793
-36.5798
-41.1281
-41.1528
-44.9942
-39.4945
-36.2195
-35.2167
-35.8286
-35.8007
-39.2759
-40.804
-41.4895
-38.1144
-161.473
-146.899
-124.628
-66.4521
-56.3333
-44.3872
-130.324
86.163
-86.939
-66.4189
-75.0729
-76.1368
-46.209
-45.2836
-45.0831
-43.1964
-44.6605
-43.305
-46.9289
-40.4682
-50.5239
-53.8407
-54.117
-46.7825
-57.5086
-38.4053
-42.9354
-13.0048
-58.8683
-50.4622
-108.36
70.8128
-47.9329
-43.5888
-51.7567
-36.5416
-33.9321
-33.593
-34.8072
-32.394
-39.1355
-39.325
-43.1048
-37.6374
-38.2058
-40.1012
-40.5203
-37.4144
-41.1536
-45.0372
-43.2611
-44.2641
-39.3381
-37.0965
-38.3326
-37.4699
-41.174
-41.9798
-41.7707
-41.1899
-41.607
-41.9263
-42.2985
-40.834
-42.6013
-41.3469
-43.427
-41.1283
-36.0376
-34.6117
-36.5548
-36.3125
-36.8533
-38.1696
-38.0134
-35.9055
-42.247
-42.9162
-40.1053
-45.292
-46.8986
-42.2334
-46.0695
-24.806
-52.4816
-48.2167
-48.6337
-51.047
-63.8327
-61.0926
-59.4053
-74.4373
-6.66981
14.4917
15.9941
-6.88675
-50.4667
-48.6916
-49.7449
-52.0927
-47.2077
-44.4356
-45.7525
-45.5121
-53.0701
-53.5622
-52.1697
-58.5836
-64.2675
-66.1197
-65.8134
-64.0296
-41.1573
-45.0421
-43.2877
-44.2677
-41.6558
-41.976
-42.3305
-40.9231
-38.5668
-37.0686
-38.0271
-37.3793
-41.1135
-41.9019
-41.7041
-41.0943
-42.335
-41.1107
-43.0082
-41.0426
-42.1352
-42.8469
-40.0258
-45.192
-35.994
-34.5766
-36.5182
-36.2296
-36.6247
-37.9343
-37.8026
-35.6561
-46.8161
-42.171
-45.9876
-24.7567
-6.51401
14.4936
16.0447
-6.80664
-52.3577
-48.1085
-48.5355
-50.9228
-63.6778
-60.925
-59.2459
-74.2886
-50.1782
-48.3286
-49.4171
-51.8324
-64.0567
-66.0112
-65.6732
-63.8845
-46.98
-44.1921
-45.5409
-45.2422
-52.8994
-53.3678
-52.0089
-58.3858
-84.9348
-65.3207
-73.691
-73.7819
167.396
192.61
177.255
183.473
-89.0133
-73.3566
-80.1781
-80.1743
193.078
182.195
183.63
183.675
-50.8274
-51.5261
-54.4823
-49.0369
-56.2408
-57.3395
-61.5762
-53.3137
-46.6682
-49.6511
-47.9216
-47.355
-38.9934
-37.2127
-39.3615
-38.5971
-44.7391
-42.5297
-43.6707
-43.8732
-39.5962
-38.4222
-39.5955
-39.3649
-47.2044
-47.9241
-48.2805
-46.6167
-42.98
-42.9194
-42.9701
-43.1269
-27.9374
-19.0533
-23.7539
-23.752
135.159
189.262
172.502
172.5
-54.8043
-52.2746
-49.797
-57.9607
-17.4925
-9.88955
-16.4469
-9.92577
-35.0616
-35.52
-35.1887
-34.9597
-31.8747
-32.803
-32.7825
-33.7296
-47.5892
-48.9048
-47.8944
-48.5258
-41.4266
-40.3588
-42.8953
-39.1932
-84.8913
-65.2904
-73.6316
-73.78
167.439
192.601
183.492
177.342
-50.7744
-51.4619
-54.4438
-48.9198
-56.2302
-57.3355
-61.5674
-53.2847
-45.3748
-48.6405
-46.2185
-46.8277
-37.1882
-35.2593
-38.1357
-36.7173
-46.6202
-47.3102
-47.7495
-45.9448
-42.5055
-42.5669
-42.6141
-42.5464
-54.7445
-52.2322
-57.9366
-49.7432
-17.4001
-9.85022
-9.80475
-16.5509
-46.9732
-48.2445
-47.9312
-47.1486
-41.1366
-40.1619
-38.9134
-42.6806
-38.4698
-39.9157
-39.3739
-38.9912
-35.3947
-35.4065
-35.5914
-35.3895
-43.6528
-45.606
-44.6369
-44.0132
-44.3394
-43.815
-42.8431
-45.4045
-45.0871
-49.0042
-46.808
-46.8047
-39.4051
-37.2936
-38.0012
-37.9863
-41.6406
-42.1685
-41.0043
-42.8122
-41.5781
-46.5164
-45.1506
-44.6046
-38.3323
-36.1866
-37.042
-37.0557
-44.1199
-43.2624
-43.532
-43.48
-50.6042
-46.8907
-48.1934
-49.0438
-83.4097
-93.9279
-95.305
-82.9733
23.3883
8.99579
15.5207
15.5219
-30.6745
-93.5537
-58.3517
-58.3627
-74.2379
-80.8616
-76.8918
-76.8636
-56.8187
-48.267
-52.464
-52.4184
-38.3534
-39.7923
-39.2562
-38.8644
-35.3508
-35.3821
-35.5583
-35.3533
-43.5958
-45.5839
-43.9641
-44.6069
-44.2173
-43.687
-42.7185
-45.2788
-41.4501
-42.0103
-42.6367
-40.8353
-41.2333
-46.0713
-44.7693
-44.2267
-50.4591
-46.753
-48.9001
-48.0286
-83.3072
-93.844
-82.8547
-95.1832
-88.0863
-75.6381
-74.7497
-66.0217
-44.8137
-42.7189
-46.7554
-44.9694
-45.1378
-45.5675
-44.7675
-44.2116
-70.1029
-62.2642
-73.2196
-66.3344
-88.0291
-75.592
-74.6902
-65.9765
-70.2249
-62.241
-73.2441
-66.2585
-45.0691
-45.5134
-44.7158
-44.1544
-45.0176
-42.675
-46.8386
-44.9841
-89.0649
-78.9371
-79.893
-72.4115
-89.0578
-78.9263
-79.8838
-72.4021
-45.7627
-44.5258
-48.2063
-46.4983
-45.7396
-44.5088
-48.2034
-46.4912
-29.6163
-29.7741
-24.7639
-21.0409
1.13195
11.8946
0.374584
10.9501
1.14788
11.922
0.396972
10.9675
-29.6016
-29.7484
-24.772
-21.0076
146.959
151.057
155.798
175.14
133.259
116.166
149.22
159.24
116.14
133.199
159.31
149.347
151.174
146.894
175.137
155.766
-39.5349
-40.6347
-39.8906
-40.998
-38.2854
-38.6556
-38.8086
-39.3297
-46.2901
-48.4744
-45.2501
-47.0371
-51.3629
-53.7523
-48.8873
-50.528
-39.4107
-40.4797
-39.7701
-40.868
-51.2249
-53.6056
-48.7528
-50.3886
-46.1155
-48.322
-45.0782
-46.8806
-38.1316
-38.4802
-38.6629
-39.1672
-37.6433
-38.9576
-37.0597
-37.9205
-38.6397
-37.5688
-37.8826
-37.0188
-38.1393
-36.7631
-36.9442
-36.1702
-36.8263
-38.1995
-36.2155
-36.984
-74.8823
-43.2695
-84.1328
-59.4048
-66.0236
-67.5437
-72.7519
-73.7767
-67.4215
-65.8657
-73.6902
-72.6337
-43.2037
-74.9208
-59.3054
-84.0175
-44.7711
-42.3472
-45.5021
-44.9003
-49.4336
-52.4199
-50.4744
-54.1172
-44.9454
-44.4406
-45.855
-46.1897
-47.7356
-45.9382
-47.3976
-46.2633
-44.418
-42.0092
-45.1033
-44.5249
-47.3786
-45.5861
-46.9806
-45.8815
-43.6138
-43.3291
-44.6991
-45.2001
-48.3685
-51.393
-49.3954
-53.1229
-41.8575
-43.5331
-42.7826
-43.3189
-41.722
-43.3878
-42.5528
-43.1773
-45.4047
-44.8878
-44.0001
-42.9205
-45.6017
-45.8072
-44.3776
-44.1309
-53.9639
-57.7735
-49.2974
-52.8012
-35.9322
-36.7649
-35.8438
-36.8527
-35.2403
-36.1542
-35.3135
-36.3279
-53.7705
-57.612
-49.1183
-52.7384
-40.8278
-40.9794
-40.6161
-40.5444
-40.2675
-40.2414
-40.0523
-40.0646
-34.6602
-36.3043
-34.0392
-35.732
-38.6039
-37.407
-37.8997
-36.1857
-129.457
59.586
-136.683
-60.9277
-103.669
-104.24
-47.5134
-43.508
-49.9147
-45.2465
-48.8041
-48.1739
-99.5105
58.6075
-54.6335
4.59497
-64.462
-45.5155
-43.3438
-39.3696
-36.2299
-38.3538
-41.1826
-37.1123
-136.612
-60.4626
-129.408
58.8312
-103.64
-104.189
-46.1075
-44.0399
-46.4729
-41.9092
-47.781
-46.6237
-54.6053
4.62545
-99.1344
58.667
-64.2431
-45.4245
-34.8473
-35.4601
-41.4292
-37.2055
-39.6849
-35.9022
-38.132
-42.1227
-39.8056
-39.54
-41.181
-40.2654
-41.3937
-40.5824
-39.626
-46.4859
-37.2993
-38.3045
-37.4672
-32.9797
-39.3528
-45.377
-52.7739
-34.4409
-53.55
-57.7455
-61.4362
-87.377
-14.717
-51.7524
-50.7147
-52.9769
-49.2241
-49.3136
-51.0914
-54.8977
-57.7456
-56.6094
-38.1202
-42.1435
-41.4276
-40.6958
-39.663
-39.117
-41.1413
-40.2124
-39.2607
-46.2373
-39.2346
-45.2199
-36.8718
-38.1838
-37.2691
-32.7432
-52.673
-34.2442
-14.6654
-51.7943
-53.4408
-57.5933
-61.2621
-87.082
-50.463
-52.6945
-57.5131
-56.3748
-49.0463
-49.0702
-50.9238
-54.6686
-135.307
85.5167
-120.938
81.6794
-105.334
-98.7996
135.21
144.477
-120.098
-114.398
-120.082
-114.238
-100.488
-100.482
116.852
117.123
-59.1953
-62.7417
-46.8064
-48.3164
-53.4545
-48.5561
-59.4267
-51.9162
-48.0377
-40.9049
-45.4256
-39.8804
-46.4692
-45.9787
-39.6479
-39.5829
-45.1512
-42.4757
-44.5514
-42.014
-44.7447
-44.9669
-40.4053
-40.1234
-51.7856
-47.0129
-43.3908
-42.1735
-47.4936
-45.9391
-42.5085
-44.3483
-38.3999
-5.41881
-38.3841
-5.46892
-32.05
-32.0775
73.318
73.3103
-54.0015
-32.4491
-46.7163
-26.6571
-48.5761
-57.5827
-23.9108
-18.0862
-35.8487
-32.1233
-35.3145
-29.7951
-35.255
-34.9871
-29.6804
-31.2184
-43.4495
-41.0081
-48.1716
-49.0977
-45.7481
-47.7373
-44.8039
-40.4771
-135.18
85.5353
-120.96
81.6169
-105.26
-98.697
144.467
135.164
-59.1904
-62.7148
-46.7768
-48.3074
-53.4148
-48.5116
-59.4055
-51.9031
-46.5863
-39.9173
-43.6369
-38.2668
-44.5165
-45.1296
-38.38
-38.0006
-50.9853
-46.1701
-43.1681
-41.9003
-47.0179
-45.2824
-42.0967
-43.6145
-53.9329
-32.4177
-46.6283
-26.5982
-57.538
-48.4737
-18.0328
-23.878
-42.7629
-40.4794
-47.7354
-48.7585
-47.2463
-45.0927
-40.085
-44.5116
-37.3071
-35.8874
-36.2544
-35.0291
-37.9084
-37.5358
-35.3254
-35.2969
-42.6853
-42.4845
-45.7705
-47.0336
-42.7727
-44.2561
-43.116
-45.6285
-42.4178
-41.2379
-42.442
-41.3522
-43.6312
-43.6229
-40.2691
-40.1675
-39.4673
-38.2288
-43.353
-43.2666
-40.5838
-42.4164
-39.1744
-42.0626
-40.4717
-45.3378
-40.4303
-45.2832
-39.6121
-39.6299
-45.1107
-45.0767
-57.1228
-68.2953
-53.0801
-58.4251
-52.8365
-53.8967
-75.6879
-67.4043
25.0044
6.27438
25.0459
6.2648
28.2592
28.2512
-15.5023
-15.2077
-68.5763
-64.236
-68.5112
-64.1588
-71.4125
-71.3827
-61.3549
-61.3141
-37.1207
-35.833
-36.0801
-34.9945
-37.8082
-37.431
-35.2726
-35.238
-42.6161
-42.3835
-45.6855
-46.9208
-44.1909
-42.7115
-43.0018
-45.5088
-39.2492
-37.976
-43.1308
-42.9925
-42.2103
-40.3769
-38.8623
-41.746
-56.9515
-68.1093
-52.9126
-58.2255
-53.7376
-52.6769
-67.2198
-75.5167
-59.3696
-59.8658
-55.0256
-48.9308
-49.1621
-56.1189
-47.0197
-47.491
-59.3251
-59.835
-54.9727
-48.8587
-56.0847
-49.1109
-47.46
-46.9826
-67.4337
-67.4313
-62.0036
-54.0272
-62.3713
-54.0263
-51.5109
-51.5101
-15.1089
-15.103
-12.3517
-3.79201
-3.79337
-12.3458
2.95245
2.95977
185.514
199.365
178.398
178.437
192.731
192.731