# vtk DataFile Version 2.0
tet_velo
ASCII
DATASET UNSTRUCTURED_GRID
POINTS 29498 float
-0.705 0.275 -2.41687
-0.737313 0.325 2.475
-0.715 0.755 -2.29103
-0.705 0.872222 2.355
0.705 0.275 -2.41687
0.737313 0.325 2.475
0.715 0.755 -2.29103
0.705 0.872221 2.355
-0.78374 0.223697 -0.786247
-0.810424 0.224451 0.844377
-0.812014 0.894421 -0.742353
-0.800255 0.92507 0.806324
0.783773 0.223664 -0.786247
0.810507 0.224369 0.844377
0.812042 0.894449 -0.742353
0.800252 0.925066 0.806324
-1.48826 -0.0721911 -3.70492
-1.49205 -0.0466549 -2.43324
-1.55123 -0.0821161 -0.800498
-1.5755 -0.089147 0.848737
-1.53373 -0.0242383 2.48287
-1.52017 0.0103603 3.76135
-1.52462 0.0282037 5.02724
-1.48416 0.218627 -3.67146
-1.48761 0.264969 -2.40873
-1.56372 0.243846 -0.791934
-1.57875 0.231894 0.832239
-1.50838 0.284961 2.45061
-1.50353 0.317388 3.72793
-1.51674 0.336112 4.99649
-1.48932 0.764921 -3.58154
-1.4986 0.810577 -2.31542
-1.58187 0.897003 -0.754491
-1.57397 0.908111 0.800636
-1.48932 0.881877 2.36314
-1.49411 0.912746 3.64385
-1.5145 0.943668 4.92563
-1.51132 1.68235 -3.50827
-1.52274 1.7403 -2.25443
-1.5567 1.83181 -0.720067
-1.57244 1.87733 0.796634
-1.55822 1.87316 2.33185
-1.54709 1.8748 3.58749
-1.54534 1.89055 4.86031
-0.732098 -0.0678459 -3.7102
-0.718429 -0.0398253 -2.44095
-0.767413 -0.0925793 -0.799463
-0.799206 -0.0940475 0.859096
-0.77184 -0.00227604 2.50098
-0.761488 0.0254989 3.77364
-0.764887 0.0358524 5.03435
-0.731016 0.217004 -3.67309
-0.748862 0.332273 3.73807
-0.75963 0.342796 5.00186
-0.734183 0.742198 -3.57141
-0.741136 0.912526 3.64222
-0.75916 0.944511 4.92528
-0.742701 1.66818 -3.49825
-0.745703 1.72762 -2.24339
-0.774085 1.83094 -0.713413
-0.796913 1.88191 0.795836
-0.794194 1.87295 2.32615
-0.786113 1.87252 3.58179
-0.783866 1.88868 4.85617
0.742474 -0.0678502 -3.7102
0.750264 -0.039833 -2.44095
0.791474 -0.092611 -0.799463
0.793087 -0.0941078 0.859097
0.745194 -0.00229853 2.50098
0.744962 0.0254807 3.77364
0.748996 0.0358327 5.03435
0.726599 0.217002 -3.67309
0.738633 0.332261 3.73806
0.745595 0.342779 5.00186
0.73101 0.742199 -3.57141
0.727068 0.912516 3.64222
0.739471 0.944496 4.92528
0.779748 1.66818 -3.49825
0.791719 1.72763 -2.24339
0.791644 1.83095 -0.713413
0.764876 1.8819 0.795836
0.737149 1.87294 2.32615
0.733353 1.8725 3.58179
0.736509 1.88867 4.85617
1.49373 -0.0722013 -3.70492
1.5051 -0.0466707 -2.43324
1.56304 -0.0821661 -0.800497
1.5769 -0.0892368 0.848737
1.52616 -0.0242961 2.48287
1.51146 0.0103171 3.76135
1.51261 0.0281617 5.02724
1.47679 0.218623 -3.67146
1.48048 0.264965 -2.40873
1.56105 0.243808 -0.791934
1.58395 0.231802 0.832239
1.51622 0.284912 2.45061
1.50151 0.317352 3.72793
1.50663 0.336074 4.99649
1.48299 0.764922 -3.58154
1.49196 0.810587 -2.31542
1.57793 0.897012 -0.754491
1.57649 0.908076 0.800636
1.49439 0.881844 2.36314
1.48749 0.912717 3.64385
1.49855 0.943634 4.92563
1.54097 1.68235 -3.50827
1.55659 1.7403 -2.25443
1.56835 1.83181 -0.720068
1.5471 1.87731 0.796634
1.5126 1.87314 2.33185
1.50148 1.87477 3.58749
1.50179 1.89052 4.86031
-0.765847 0.515 -2.4098
0 0.249849 -2.44202
-0.770667 0.223052 -1.60156
-0.762712 0.598611 2.45656
0 0.299315 2.50069
-0.797123 0.251471 1.65969
0 0.828256 -2.36429
-0.796427 0.857631 -1.51669
0 0.916275 2.39905
-0.78209 0.928109 1.58066
0.765846 0.515 -2.4098
0.770667 0.223052 -1.60156
0.763006 0.59861 2.45685
0.797057 0.251537 1.65969
0.796403 0.857606 -1.51669
0.782092 0.92811 1.58066
-0.797173 0.223984 0.0290649
-0.876496 0.559059 -0.7643
1.6511e-05 0.220791 -0.786247
-0.895486 0.574761 0.82535
4.13671e-05 0.22084 0.844377
-0.807494 0.911105 0.031985
1.41403e-05 1.14177 -0.742353
-1.77017e-06 1.39122 0.806324
0.797308 0.223848 0.0290649
0.876489 0.559057 -0.7643
0.895487 0.574717 0.82535
0.807497 0.911107 0.031985
-0.858026 0.53703 -1.55913
-0.885517 0.56691 0.030525
-0.886227 0.586686 1.62018
8.25551e-06 0.220623 -1.60156
2.89391e-05 0.220886 0.0290649
2.06836e-05 0.24581 1.65969
0 0.515 -2.5793
0 0.598611 2.4684
7.07013e-06 0.932519 -1.51669
6.18505e-06 1.41588 0.031985
-8.85084e-07 1.01557 1.58066
0.858103 0.537028 -1.55913
0.885513 0.566887 0.030525
0.886228 0.586664 1.62018
-1.09631 0.269984 -2.4128
-0.711714 0.117587 -2.42891
-0.718008 0.246002 -3.04498
-1.12285 0.30498 2.4628
-0.754577 0.161362 2.48799
-0.743088 0.328636 3.10653
-1.1068 0.782789 -2.30323
-0.724591 0.748599 -2.93122
-0.730351 1.24131 -2.26721
-1.09716 0.877049 2.35907
-0.723068 0.892374 2.99861
-0.749597 1.37259 2.34058
0.727632 0.117583 -2.42891
0.7158 0.246001 -3.04498
1.09274 0.269983 -2.4128
0.741253 0.161351 2.48799
0.737973 0.32863 3.10653
1.12677 0.304956 2.4628
0.723005 0.748599 -2.93122
0.753359 1.24131 -2.26721
1.10348 0.782793 -2.30323
0.716034 0.892368 2.99861
0.721075 1.37258 2.34058
1.0997 0.877032 2.35907
-1.17373 0.233772 -0.789091
-0.775576 0.0655591 -0.792855
-1.19459 0.228173 0.838308
-0.804815 0.065202 0.851737
-1.19694 0.895712 -0.748422
-0.793049 1.36268 -0.727883
-1.18711 0.91659 0.80348
-0.798584 1.40349 0.80108
0.787624 0.0655267 -0.792855
1.17241 0.233736 -0.789091
0.801797 0.0651304 0.851737
1.19723 0.228086 0.838308
0.801843 1.3627 -0.727883
1.19499 0.895731 -0.748422
0.782564 1.40348 0.80108
1.18837 0.916571 0.80348
-1.49015 -0.059423 -3.06908
-1.48621 0.0732181 -3.68819
-1.11018 -0.0700185 -3.70756
-1.52164 -0.0643855 -1.61687
-1.48983 0.109157 -2.42099
-1.10524 -0.0432401 -2.4371
-1.56336 -0.0856316 0.0241197
-1.55747 0.0808649 -0.796216
-1.15932 -0.0873477 -0.79998
-1.55461 -0.0566927 1.6658
-1.57712 0.0713734 0.840488
-1.18735 -0.0915972 0.853917
-1.52695 -0.006939 3.12211
-1.52105 0.130361 2.46674
-1.15278 -0.0132572 2.49192
-1.52239 0.019282 4.39429
-1.51185 0.163874 3.74464
-1.14083 0.0179296 3.76749
-1.52068 0.182158 5.01187
-1.14475 0.0320281 5.03079
-1.48589 0.241798 -3.04009
-1.48674 0.491774 -3.6265
-1.10759 0.217815 -3.67227
-1.52567 0.254407 -1.60033
-1.49311 0.537773 -2.36208
-1.57123 0.23787 0.0201524
-1.5728 0.570424 -0.773213
-1.54356 0.258427 1.64142
-1.57636 0.570002 0.816438
-1.50596 0.301175 3.08927
-1.49885 0.583419 2.40687
-1.51014 0.32675 4.36221
-1.49882 0.615067 3.68589
-1.1262 0.324831 3.733
-1.51562 0.63989 4.96106
-1.13818 0.339454 4.99917
-1.49396 0.787749 -2.94848
-1.50032 1.22363 -3.54491
-1.11175 0.753559 -3.57647
-1.54023 0.85379 -1.53496
-1.51067 1.27544 -2.28493
-1.57792 0.902557 0.0230725
-1.56928 1.36441 -0.737279
-1.53164 0.894994 1.58189
-1.5732 1.39272 0.798635
-1.49172 0.897311 3.0035
-1.52377 1.37752 2.3475
-1.5043 0.928207 4.28474
-1.5206 1.39377 3.61567
-1.11762 0.912636 3.64304
-1.52992 1.41711 4.89297
-1.13683 0.944089 4.92545
-1.51703 1.71132 -2.88135
-1.12701 1.67526 -3.50326
-1.53972 1.78605 -1.48725
-1.13422 1.73396 -2.24891
-1.56457 1.85457 0.0382835
-1.16539 1.83138 -0.71674
-1.56533 1.87525 1.56424
-1.18468 1.87962 0.796235
-1.55265 1.87398 2.95967
-1.17621 1.87306 2.329
-1.54621 1.88268 4.2239
-1.1666 1.87366 3.58464
-1.1646 1.88962 4.85824
-0.725264 -0.0538356 -3.07558
-0.731557 0.0745789 -3.69165
0.00518759 -0.067848 -3.7102
-0.742921 -0.0662023 -1.62021
0.0159174 -0.0398292 -2.44095
-0.783309 -0.0933134 0.0298168
0.0120308 -0.0925951 -0.799463
-0.785523 -0.0481618 1.68004
-0.00305957 -0.0940776 0.859096
-0.766664 0.0116114 3.13731
-0.0133231 -0.00228729 2.50098
-0.763188 0.0306757 4.40399
-0.755175 0.178886 3.75585
-0.00826329 0.0254898 3.77364
-0.762258 0.189324 5.0181
-0.00794559 0.0358426 5.03435
-0.732599 0.479601 -3.62225
-0.00220833 0.217003 -3.67309
-0.754246 0.337535 4.36996
-0.744999 0.622399 3.69014
-0.00511458 0.332267 3.73806
-0.759395 0.643654 4.96357
-0.00701747 0.342788 5.00186
-0.738442 1.20519 -3.53483
-0.00158622 0.742198 -3.57141
-0.750148 0.928518 4.28375
-0.763625 1.39252 3.61201
-0.0070341 0.912521 3.64222
-0.771513 1.4166 4.89073
-0.0098443 0.944503 4.92528
-0.744202 1.6979 -2.87082
0.0185236 1.66818 -3.49825
-0.759894 1.77928 -1.4784
0.0230079 1.72762 -2.24339
-0.785499 1.85643 0.0412113
0.00877954 1.83095 -0.713413
-0.795553 1.87743 1.56099
-0.0160184 1.8819 0.795836
-0.790154 1.87274 2.95397
-0.0285224 1.87295 2.32615
-0.78499 1.8806 4.21898
-0.02638 1.87251 3.58179
-0.0236786 1.88867 4.85617
0.746369 -0.0538416 -3.07558
0.734536 0.074576 -3.69165
1.1181 -0.0700257 -3.70756
0.770869 -0.066222 -1.62021
1.12768 -0.0432519 -2.4371
0.792281 -0.0933594 0.0298168
1.17726 -0.0873885 -0.79998
0.76914 -0.0482032 1.68004
1.18499 -0.0916723 0.853917
0.745078 0.0115911 3.13731
1.13568 -0.0132973 2.49192
0.746979 0.0306567 4.40399
0.741797 0.178871 3.75585
1.12821 0.0178989 3.76749
0.747295 0.189306 5.0181
1.1308 0.0319972 5.03079
0.728805 0.4796 -3.62225
1.1017 0.217813 -3.67227
0.742114 0.33752 4.36996
0.73285 0.622388 3.69014
1.12007 0.324807 3.733
0.742533 0.643637 4.96357
1.12611 0.339426 4.99917
0.755379 1.20519 -3.53483
1.107 0.75356 -3.57647
0.73327 0.928506 4.28375
0.730211 1.39251 3.61201
1.10728 0.912617 3.64304
0.73799 1.41658 4.89073
1.11901 0.944065 4.92545
0.785734 1.6979 -2.87082
1.16036 1.67526 -3.50326
0.791682 1.77929 -1.4784
1.17415 1.73396 -2.24891
0.77826 1.85642 0.0412112
1.18 1.83138 -0.71674
0.751013 1.87742 1.56099
1.15599 1.87961 0.796235
0.735251 1.87272 2.95397
1.12488 1.87304 2.329
0.734931 1.88058 4.21898
1.11742 1.87364 3.58464
1.11915 1.88959 4.85824
1.49941 -0.059436 -3.06908
1.48526 0.0732109 -3.68819
1.53407 -0.0644184 -1.61687
1.49279 0.109147 -2.42099
1.56997 -0.0857014 0.0241196
1.56205 0.0808211 -0.796216
1.55153 -0.0567664 1.6658
1.58043 0.0712828 0.840488
1.51881 -0.00698948 3.12211
1.52119 0.130308 2.46674
1.51203 0.0192394 4.39429
1.50649 0.163835 3.74464
1.50962 0.182118 5.01187
1.47864 0.241794 -3.04009
1.47989 0.491773 -3.6265
1.52077 0.254387 -1.60033
1.48622 0.537776 -2.36208
1.5725 0.237805 0.0201523
1.56949 0.57041 -0.773213
1.55009 0.258357 1.64142
1.58022 0.569939 0.816437
1.50887 0.301132 3.08927
1.50531 0.583378 2.40687
1.50407 0.326713 4.36221
1.4945 0.615035 3.68589
1.50259 0.639854 4.96106
1.48747 0.787755 -2.94848
1.51198 1.22364 -3.54491
1.53495 0.853799 -1.53496
1.52427 1.27544 -2.28493
[...]
POINT_DATA 29498
VECTORS point_vectors float
-4.38261 -5.63156 8.94495
0.158704 0.35997 1.33959
-1.72312 1.06431 2.9964
0.00683912 -0.180798 0.436637
4.35816 -5.65362 8.92611
-0.138389 0.339662 1.27227
1.72033 1.06222 2.99329
-0.0291441 -0.143161 0.401198
0.0238161 -0.00586653 0.693707
0.0247828 -0.0424978 0.450987
0 0 0
-3.26037e-18 -5.65915e-18 -2.38441e-17
-0.0247275 -0.00668874 0.6915
-0.0254721 -0.043035 0.455145
0 0 0
0 0 0
-0.471075 -0.190552 19.8461
-1.19716 -0.650473 20.3904
-0.457241 -0.382885 21.2549
0.032324 -0.0562128 21.4674
0.609718 0.294403 21.3768
0.763995 0.329254 20.8506
1.20977 0.268528 20.3742
-0.525873 -0.121433 19.7773
-1.62839 -0.513613 20.3454
-0.586947 -0.456076 21.3144
0.0304113 -0.114226 21.5376
0.822607 0.181907 21.3849
1.04688 0.168804 21.2227
0.939773 0.0415895 21.1126
-0.606789 0.0648386 19.7284
-1.80251 0.167323 20.3241
-1.08646 -0.253971 21.2874
-0.129263 -0.210372 21.6477
0.799397 -0.27616 21.4421
1.1194 -0.284468 21.0026
0.810252 -0.271088 20.4322
-0.429544 0.289987 19.9134
-0.85756 0.596528 20.3395
-0.885793 0.396861 21.0888
-0.235899 -0.0263163 21.5237
0.260839 -0.338134 21.3134
0.411323 -0.394241 21.002
0.387628 -0.331494 20.8619
-0.423757 -0.379927 19.3891
-2.00261 -3.31397 20.4503
-0.21583 -0.364613 21.1271
0.0611276 0.097796 20.4341
0.301831 1.18268 18.4937
0.803782 1.46396 17.5081
0.246427 1.20997 19.1486
-0.530387 -0.29801 19.1823
1.32207 1.53945 11.8566
1.51338 0.820706 13.5993
-0.65424 0.153725 18.958
1.85777 -0.24696 10.7016
1.15935 -0.252906 14.7085
-0.368995 0.54676 19.5931
-0.926261 1.51735 20.1395
-1.33881 1.56996 21.0973
-0.331017 0.161424 21.969
0.20528 -0.636398 21.484
0.423218 -0.930036 20.5595
0.462348 -0.846812 20.4503
0.429678 -0.370891 19.4049
2.07475 -3.17129 20.4198
0.216054 -0.373471 21.254
-0.0641039 0.0980515 20.3742
-0.232511 1.09112 18.0157
-0.712387 1.3125 17.1166
-0.611767 1.03369 18.0218
0.529564 -0.298368 19.1683
-1.04746 1.47636 11.0127
-1.30532 0.788915 12.8498
0.650295 0.156502 18.9577
-1.80501 -0.0814752 10.1907
-0.730313 -0.189056 14.1929
0.379948 0.536567 19.61
0.95909 1.44278 20.1526
1.33847 1.5356 21.0993
0.325348 0.171242 21.9855
-0.197261 -0.643077 21.5111
-0.458843 -0.921549 20.5427
-0.598318 -0.81789 20.2908
0.467098 -0.190669 19.8371
1.17559 -0.624317 20.4041
0.458745 -0.388595 21.2485
-0.0313456 -0.0617942 21.4515
-0.591539 0.287083 21.3435
-0.7458 0.330288 21.0325
-1.08104 0.209806 20.1943
0.523549 -0.120952 19.7639
1.64277 -0.517968 20.3329
0.588485 -0.456429 21.3134
-0.0304131 -0.114694 21.5306
-0.779042 0.166941 21.3782
-0.955331 0.21666 20.8847
-1.0182 0.0151095 20.4968
0.6109 0.0643853 19.715
1.81589 0.170694 20.3182
1.09036 -0.256873 21.2891
0.126303 -0.20964 21.6437
-0.77949 -0.256374 21.4489
-1.10346 -0.317508 20.8564
-1.04029 -0.156477 20.4736
0.422338 0.278154 19.9266
0.845537 0.57114 20.3457
0.871687 0.391701 21.0848
0.241344 -0.0267137 21.5262
-0.262193 -0.345629 21.3206
-0.406265 -0.396985 21.0464
-0.444721 -0.375154 20.8449
-3.88175 -0.476069 4.40144
0.000131322 -0.209887 0.822249
0.0235969 -0.0132972 0.649629
0.133564 -0.106821 0.58294
-0.00930619 0.010779 0.0760125
-0.0516776 0.0545578 0.971194
2.13838e-05 0.119477 0.167112
-0.0485228 -0.0278494 0.208594
-0.0178395 0.0855075 -0.0891523
0.058971 -0.000553439 0.222843
3.88577 -0.442086 4.39543
-0.0239979 -0.0134318 0.648341
-0.120279 -0.0888832 0.541584
0.0496136 0.0537688 0.96247
0.0482137 -0.0276912 0.207754
-0.0623441 0.00181792 0.223161
0.000287496 -0.000596009 0.199386
-0.00108442 -0.00163227 0.130154
-3.15304e-08 -3.18309e-08 8.48481e-05
-0.000310216 0.00216612 0.013273
-6.29531e-06 8.22534e-06 0.00459911
0 0 0
-1.89647e-05 0.0103297 0.0163971
0 0 0
-0.000405016 -0.000618217 0.182438
0.00108244 -0.00164941 0.129863
0.000325312 0.00223825 0.0136414
0 0 0
7.7765e-18 1.35896e-17 -2.28239e-16
-0.00136248 0.0105796 0.08615
0.00184157 0.0066158 0.0467818
1.3519e-09 2.19459e-08 -1.06371e-05
-1.07141e-07 -4.0018e-08 0.000173776
0 0 0
-0.000199657 0.710305 1.17512
0 0 0
1.66224e-05 0.00483964 0.0481662
-1.61287e-05 0.00321921 0.0605823
0 0 0
0 0 0
0.00136536 0.0106253 0.0862667
-0.00185478 0.00679825 0.0468256
-3.15431 -1.44124 20.2851
-3.46184 -5.39398 20.4509
-1.59732 -1.12622 18.0441
1.24431 0.759562 19.265
0.0644332 1.28384 11.5747
0.65948 1.23969 8.45069
-3.70182 0.709379 20.2464
-2.22831 0.879524 17.4034
-2.11125 2.71252 20.0522
1.37503 -0.097495 18.386
0.866641 -0.115925 6.49668
0.875521 -0.559376 16.4162
3.45597 -5.12523 20.4333
1.59616 -1.12943 18.031
3.18823 -1.46323 20.2849
0.00981233 1.17666 11.0448
-0.404578 1.14672 7.84432
-1.1809 0.725923 19.2445
2.22516 0.883185 17.3976
2.13134 2.60369 20.0598
3.72362 0.72218 20.2484
-0.833474 0.194248 6.03409
-0.931628 -0.530013 15.8214
-1.34492 -0.0669787 18.3415
-0.440998 -0.761287 21.3295
0.155729 -0.127282 16.3895
0.0642547 -0.0768699 20.8135
0.15548 0.0797675 15.5633
-1.8092 -0.771846 21.3361
-3.37386 1.95222 21.0203
-0.053154 -0.315436 20.3232
-0.160488 0.170348 18.7689
-0.148898 -0.149774 16.6879
0.436219 -0.763013 21.3182
-0.163576 0.0813937 15.4858
-0.0680202 -0.0810129 20.8436
3.32699 1.88574 21.0625
1.81781 -0.778595 21.3293
0.0864253 0.224384 18.2896
0.050872 -0.312375 20.3337
-0.845964 -0.404096 19.9126
-0.50346 -0.164205 19.8042
-0.500468 -0.302358 19.6182
-0.839187 -0.544954 21.032
-1.42111 -0.60167 20.3724
-1.8017 -1.47197 20.3353
-0.189988 -0.225548 21.386
-0.525685 -0.421974 21.2781
-0.336982 -0.510583 21.4265
0.29792 0.12851 21.456
0.0235814 -0.0815876 21.4833
0.0556285 -0.0330582 21.5684
0.70805 0.356477 21.2383
0.708453 0.249607 21.3997
0.741774 0.713515 21.1845
0.648503 0.217737 20.4778
0.907002 0.248842 21.0333
1.00091 0.701989 20.9142
1.14617 0.168179 20.748
0.819898 0.854646 20.7444
-1.0876 -0.310006 19.7716
-0.571681 -0.0406209 19.7344
-0.573522 -0.214359 19.4817
-1.09326 -0.525749 21.0979
-1.76851 -0.187914 20.337
-0.259936 -0.298083 21.4355
-0.825414 -0.437198 21.3025
0.40606 0.0492771 21.5807
-0.0257954 -0.188791 21.6246
0.994498 0.204422 21.2798
0.88959 -0.0425295 21.4178
0.968203 0.122368 21.1167
1.11436 -0.0619467 21.4608
1.64695 0.629269 18.6972
0.783313 -0.184135 21.1039
0.847454 0.464827 20.6707
-1.2611 0.151448 19.743
-0.557755 0.216916 19.7953
-0.689629 0.107426 19.3854
-1.40914 -0.0986396 20.9793
-1.31611 0.549899 20.2997
-0.610019 -0.269081 21.5596
-1.15239 0.147722 21.1969
0.364081 -0.187291 21.6558
-0.230205 -0.128334 21.6154
1.00102 -0.271924 21.2055
0.498358 -0.39913 21.3776
0.878857 -0.344978 20.9626
0.666876 -0.411559 20.8211
1.5588 -0.46451 19.936
0.514125 -0.349969 20.5727
0.889853 -0.446387 19.925
-0.667008 0.481411 20.0324
-0.449355 0.41373 19.7538
-0.934748 0.50656 20.7237
-1.00054 0.990855 20.2489
-0.611311 0.189533 21.4161
-1.16452 0.816374 21.1382
0.0731023 -0.199452 21.456
-0.298601 0.0350268 21.7181
0.379929 -0.397882 21.223
0.277861 -0.477681 21.3959
0.509519 -0.442267 20.6995
0.487312 -0.620546 21.0437
0.480445 -0.555018 21.1577
-1.07906 -1.25537 18.9643
-0.466707 -0.350939 19.3087
-0.000893024 -0.525152 19.1143
-0.69435 -1.07713 21.7528
0.0326394 -4.7505 21.0538
-0.0511871 -0.117026 20.5859
0.000663848 -0.520312 20.0777
0.150775 0.543263 19.0567
-0.00605292 -0.0547833 17.9664
0.498672 1.39698 18.7572
-0.106172 0.536468 14.4259
0.490535 1.00237 18.8568
0.986828 1.61731 15.3562
-0.268874 1.01768 14.6865
1.10166 1.04192 15.4962
0.0247464 0.63692 13.2207
-0.618645 -0.0837065 19.024
-0.00304894 -0.400061 18.8392
1.89263 0.905097 12.8726
1.98179 0.751907 9.13371
0.342491 -0.518033 1.02568
1.55684 0.363921 13.0388
0.152062 0.286966 9.61034
-0.54279 0.505006 19.2335
-0.0032197 0.225804 18.5023
1.84956 -0.286088 13.6947
1.02682 -1.05607 18.4688
0.477616 -0.790076 -1.32033
0.593472 -0.857331 19.5718
0.189199 -0.857977 3.58378
-0.680688 1.09236 19.616
0.0131588 0.71954 19.4036
-1.07563 1.45408 20.5565
0.0321215 2.10761 20.0448
-0.993192 0.933223 21.959
0.0202749 2.89453 20.8418
0.0386906 -0.360379 21.7623
-0.0136754 0.377426 22.3348
0.273124 -0.760854 21.3186
-0.0056563 -0.675675 21.5466
0.28164 -0.692537 20.5575
0.0482549 -0.966224 19.785
-0.00120177 -0.569949 21.0095
1.09256 -1.21179 18.988
0.470065 -0.345159 19.3136
0.50232 -0.302973 19.617
0.703233 -1.06859 21.7515
1.77342 -1.39268 20.3343
0.049309 -0.117915 20.6489
0.342773 -0.5096 21.4131
-0.148272 0.531781 18.904
-0.0587884 -0.0330213 21.5592
-0.360742 1.26669 18.2243
-0.703889 0.705367 21.0895
-0.801098 0.950698 16.5234
-0.853447 1.51521 15.1101
-0.966013 0.731125 21.0904
-0.971329 0.990278 14.8053
-0.693587 0.869431 20.8449
0.615795 -0.0838134 19.0187
0.574593 -0.216658 19.4788
-1.40224 1.04175 11.5688
-1.63436 0.896617 8.34859
-1.49684 0.676088 18.9536
-1.31506 0.316574 12.181
-1.09601 0.307393 20.6018
0.546361 0.497973 19.2457
0.688318 0.107342 19.3835
-1.64914 -0.23223 12.6615
-1.03037 -1.03326 18.3297
-1.62448 -0.457446 19.9029
-0.598127 -0.793209 19.5167
-0.799448 -0.449673 19.6434
0.698903 1.05856 19.6452
0.45248 0.404536 19.7618
1.08907 1.40113 20.5719
0.998385 0.942333 20.2608
0.990601 0.945307 21.9642
1.15266 0.793763 21.1387
-0.0370741 -0.365064 21.7674
0.299226 0.0422934 21.736
-0.255939 -0.745421 21.3594
-0.278286 -0.495206 21.3948
-0.265475 -0.700068 20.6768
-0.541357 -0.648137 21.1152
-0.538643 -0.608931 20.9919
0.841192 -0.39286 19.9051
0.499941 -0.162606 19.7937
0.839265 -0.536653 21.0181
1.41123 -0.594072 20.3748
0.183727 -0.230146 21.3851
0.525596 -0.423763 21.2732
-0.303016 0.127458 21.4553
-0.0219104 -0.0862781 21.4673
-0.700777 0.351498 21.1578
-0.682742 0.237838 21.3753
-0.727253 0.244731 20.7384
-0.854379 0.275297 20.9605
-1.04199 0.125243 20.3868
1.09372 -0.3085 19.7514
0.57266 -0.0383213 19.7201
1.09611 -0.531864 21.0949
1.79347 -0.191274 20.3348
0.257939 -0.30021 21.4323
0.828798 -0.442321 21.3071
-0.397504 0.0477408 21.5614
0.0256244 -0.189352 21.6141
-0.947785 0.213579 21.1709
-0.851872 -0.0392331 21.4122
-1.04023 0.285268 20.6924
-1.10184 -0.000156394 20.877
-1.00421 -0.133753 20.6116
1.26586 0.152153 19.7287
0.555889 0.209493 19.7986
1.41315 -0.0985599 20.9839
1.29961 0.531381 20.3064
0.608866 -0.269815 21.5595
1.14731 0.147064 21.1949
-0.362973 -0.182132 21.6386
0.231242 -0.131505 21.6194
-0.963792 -0.263668 21.1496
-0.501283 -0.395728 21.3942
-0.952409 -0.277525 21.0278
-0.629171 -0.438143 21.0183
-0.534704 -0.300944 20.7043
0.657546 0.464332 20.0447
0.917165 0.496201 20.7222
0.614673 0.190279 21.4188
-0.0778648 -0.200735 21.4668
-0.392072 -0.400452 21.2624
-0.5373 -0.46528 20.7183
-0.974208 -0.358666 19.8272
-1.33551 -1.25425 18.5136
-1.06683 -0.752084 19.5142
-1.4586 -0.596922 19.1541
-0.534219 -0.281899 19.5632
-2.37741 -1.59052 20.31
-0.975027 -0.537366 21.0642
-0.163047 -0.589193 17.3186
-0.86215 -0.906715 21.3669
-1.26241 -1.03663 21.5927
-0.360674 -0.621889 21.4567
-0.223652 -0.263547 21.4054
0.109434 -0.00385905 15.6166
-0.113303 -0.262252 21.4852
-0.116374 -0.403433 20.9265
0.0787043 -0.0704574 21.3604
0.355711 0.0962954 21.5038
0.00850132 0.529142 13.0192
0.367773 0.32818 21.4841
0.556227 0.371091 20.1818
0.995773 0.771243 20.5402
0.85269 0.290727 21.1881
0.483567 1.48283 13.7716
0.889042 0.800079 20.9035
1.42308 0.789917 19.5267
1.28449 0.666909 19.804
0.838059 0.171114 20.8772
1.34467 0.944775 15.2548
0.812087 0.641431 21.6953
1.34363 0.519753 18.802
0.83212 0.703084 20.8753
-1.20854 -0.102327 19.7243
-2.05674 -0.316894 17.4635
-1.81979 0.363971 19.0022
-0.666879 -0.0631637 19.3831
-3.78707 -0.478311 20.2381
-1.28339 -0.347496 21.0654
-2.22521 -0.222697 21.2931
-0.923467 -0.954021 21.1318
-0.407155 -0.342619 21.5099
-0.80416 -0.718792 20.8821
0.0853804 -0.0636398 20.0378
0.420124 -0.0815654 21.642
0.762646 -0.0121372 19.4269
1.44757 0.384283 17.9711
1.08126 -0.036013 21.3543
1.00891 0.464351 5.22498
1.54945 -0.327279 19.2297
1.88617 0.298927 18.4922
0.98074 -0.108964 20.9458
2.06761 0.584121 12.419
1.49711 -0.52969 20.1172
0.917396 -0.00165441 19.8543
-0.973044 0.425005 19.8629
-1.28117 1.45122 18.8748
-0.739831 0.750156 19.8411
-0.598726 0.345014 19.5325
-1.86684 1.24647 20.1723
-1.28357 0.321145 20.8109
-2.07654 1.73462 20.5892
-1.10325 0.908067 20.6778
-1.91195 0.469739 21.2966
-0.732545 -0.0185728 21.5326
-2.02767 0.295877 21.2604
-0.81751 0.442765 21.6441
-0.381688 -0.14468 21.9633
0.192852 -0.266203 21.5406
0.751307 -0.275479 17.4447
0.0671398 -0.283152 21.6243
0.593979 -0.697893 21.37
0.650327 -0.430505 21.2255
0.891446 -0.858181 17.7198
0.366813 -0.575713 21.165
0.786231 -0.813238 21.33
0.599691 -0.496412 20.8836
0.88489 -1.00238 19.734
0.275781 -0.41348 20.957
0.605022 -0.540476 20.2244
1.34087 -1.23562 18.5283
0.0101626 -1.9105 18.2465
-0.00560646 -1.79474 16.6552
-0.00332087 -0.494814 18.9993
0.00356306 -6.89011 22.6493
0.191441 -0.63327 17.673
0.00632738 -1.31634 21.6187
-0.003149 -0.133868 11.6499
-0.112215 -0.00804383 15.7135
-0.00328819 -0.264194 18.671
-0.00647214 0.024863 10.5361
-0.0138146 0.509791 12.7643
-0.0161231 0.261651 15.9018
-0.218517 0.362348 6.5437
-0.346967 1.33978 13.2234
-0.233016 0.609464 14.7479
-0.315128 -0.37574 -1.31948
-0.104771 0.810135 7.97235
-1.0862 1.03283 13.7148
-0.212336 1.18469 13.9473
0.221414 0.780858 6.93368
0.117208 0.487095 11.2142
2.05589 -0.316166 17.4524
-0.00461995 1.8165 15.2832
0.000212491 -0.120872 18.596
-0.728351 0.668472 4.65139
0.0260319 -0.306971 -1.45625
0.832301 -2.20423 -3.60736
-1.7645 0.610751 10.5507
-0.176756 -1.59294 0.944225
0.23402 -0.0903794 6.42127
1.28924 1.41548 18.9088
0.0192237 1.51126 19.3831
0.00903487 0.692973 18.9021
0.0412445 4.19963 19.9455
2.07742 1.69199 20.6025
0.0334651 2.14027 20.3699
0.0237855 5.254 18.7318
2.03136 0.296994 21.226
-0.00858404 1.93479 22.4699
0.0104557 -0.179018 10.0655
-0.832014 -0.225919 16.5992
-0.00627077 -0.354595 21.8606
-0.0115354 -0.417729 5.79394
-0.933197 -0.793221 17.2253
-0.00859652 -0.847464 21.4109
-0.0997834 -1.23304 10.7619
-0.896024 -1.0182 19.4325
0.0727829 -1.16232 20.072
0.0339655 -0.933941 13.541
0.973991 -0.353852 19.8132
1.06097 -0.738898 19.5263
1.46653 -0.600737 19.1433
0.536213 -0.281732 19.5592
2.35038 -1.54432 20.3124
0.974304 -0.535782 21.0542
0.873777 -0.889838 21.3386
1.25806 -1.03998 21.5928
0.368399 -0.618761 21.4485
0.218284 -0.264746 21.4039
0.117014 -0.262034 21.4839
0.114135 -0.404273 20.9252
-0.0817928 -0.0699975 21.3458
-0.353948 0.095295 21.4979
-0.365627 0.327882 21.4518
-0.552173 0.361321 20.1979
-0.95058 0.755914 20.3982
-0.829774 0.296263 21.1599
-0.840747 0.773072 20.8858
-1.3184 0.763789 19.4564
-1.18095 0.696711 19.9649
-1.01859 0.338038 20.5463
-0.779318 0.786828 21.3632
-1.40456 0.57779 19.5712
-0.835674 0.670323 20.6916
1.21766 -0.104591 19.7144
1.82644 0.368269 18.9919
0.66582 -0.0631465 19.3735
3.83291 -0.481426 20.2401
1.29574 -0.353087 21.0733
2.22948 -0.224927 21.2957
0.92113 -0.959937 21.1108
0.404487 -0.344388 21.5139
0.801379 -0.720457 20.8754
-0.0862529 -0.0692738 20.0805
-0.416862 -0.0800468 21.6242
-0.761914 -0.00620186 19.4558
-1.39288 0.397942 17.994
-1.03738 -0.0227939 21.1886
-1.48898 -0.25746 19.1072
-1.84557 0.273925 18.7221
-0.916653 -0.0814334 20.9257
-1.46812 -0.481373 19.6366
-1.19469 -0.0976354 20.2797
0.958555 0.412676 19.8773
0.744215 0.718998 19.8587
0.599286 0.341542 19.5403
1.8419 1.20055 20.1779
1.27187 0.31785 20.8122
1.09449 0.873978 20.6842
1.88934 0.465491 21.2925
0.734625 -0.0186845 21.5342
0.821894 0.451512 21.6473
0.385708 -0.142842 21.9754
-0.202588 -0.271534 21.5377
-0.0714067 -0.291419 21.6328
-0.611033 -0.691417 21.2585
-0.646393 -0.43374 21.2214
-0.374448 -0.595936 21.1696
-0.819757 -0.808836 21.2089
-0.680806 -0.472644 20.8607
-0.199886 -0.453916 21.0097
-0.489075 -0.518986 20.2901
-1.26187 -0.729969 19.3722
-1.03216 -0.98864 21.4738
-0.0968458 -0.334894 21.3834
0.475226 0.35242 21.0392
1.14673 0.86099 20.3868
1.0638 0.576189 20.7948
-1.72011 -0.171448 18.997
-1.74543 -0.85275 21.5197
-0.289858 -0.552202 20.3585
0.683697 0.329447 19.0244
1.69509 0.264002 18.7238
1.54088 0.194261 18.7362
-1.24441 0.804541 19.4868
-1.81103 0.748559 20.7981
-1.1975 0.0856904 21.9187
0.237896 -0.440344 21.8159
0.743881 -0.786058 21.1383
0.859901 -0.699205 20.4591
0.0102515 -1.98539 17.5187
0.00100487 -0.478022 13.1353
-0.0041355 -0.0566993 10.7349
-0.0246876 0.222199 8.47553
-0.458695 0.220397 6.35405
0.0376757 1.14104 10.9227
-0.00472435 -0.394673 15.4418
0.313617 -0.865077 -3.45192
0.146612 -0.617402 0.786076
0.0256393 2.34163 18.147
0.0252679 2.97337 20.2973
-0.00460254 1.11677 12.4353
0.00645049 -0.256653 5.47074
-0.0753962 -0.657693 8.81045
-0.0227868 -1.40043 12.7751
1.26373 -0.727787 19.3733
1.03682 -0.977825 21.4567
0.0979174 -0.334228 21.3812
-0.473751 0.350386 20.9969
-1.1105 0.828967 20.1798
-1.0596 0.725288 20.7479
1.724 -0.171973 18.9854
1.74467 -0.860034 21.5091
0.289649 -0.554294 20.3599
-0.682231 0.3248 19.0955
-1.58339 0.310146 18.557
-1.55132 0.250909 19.2715
1.23421 0.779808 19.5032
1.78974 0.733247 20.7968
1.20072 0.0898874 21.9193
-0.253388 -0.445711 21.7562
-0.742976 -0.77393 21.0587
-0.787951 -0.73553 20.3575
-2.97939 -1.04924 4.16397
0.0421233 -0.739313 1.5119
-0.078263 -0.275602 2.42416
0.0816492 -0.00129876 0.134386
-0.0287426 0.0270156 0.151068
-0.0579254 0.157914 1.48023
-1.22111 0.0615051 0.751689
-0.202793 1.30108 1.71974
-0.20983 0.0148116 0.9911
-0.0260264 -0.0195452 0.00817955
-0.0304725 0.0460743 -0.0672082
0.0485629 -0.00210161 0.409339
-0.0403993 -0.732134 1.501
3.03395 -1.08814 4.02475
0.0789562 -0.278912 2.44367
0.0236365 0.021025 0.130237
-0.0702139 0.000910434 0.119687
0.0530076 0.149073 1.40483
0.202076 1.30194 1.72364
1.29048 0.0618607 0.793818
0.209831 0.0148457 0.991683
-0.00259794 0.0728985 -0.0932403
0.0290267 -0.00582924 0.0021848
-0.0578799 0.00482235 0.408418
0.0459048 -0.0174315 0.8841
0.00743275 -0.00302016 0.52673
0 0 0
0 0 0
-0.00787216 0.0201607 0.288573
-0.00456148 0.00505392 0.496547
-0.00534693 0.00889432 0.15133
0 0 0
-0.173099 -0.137338 0.46583
-0.000316764 -0.000604992 0.0126014
0 0 0
-0.0444983 0.0248525 0.0625066
0 0 0
0.0043226 0.0299332 0.140734
0 0 0
0.0837971 0.0439654 0.39416
-0.0467677 -0.0178427 0.885613
0 0 0
-0.00781523 -0.00310556 0.526178
0 0 0
0.0075182 0.0201227 0.295245
0 0 0
0.00436908 0.00501067 0.500845
0.00532655 0.00892826 0.151289
0.173904 -0.138505 0.472661
0.0439455 0.0246264 0.0620324
0.000317004 -0.000606971 0.0126511
0 0 0
1.46591e-17 -2.13518e-17 -1.02446e-16
-0.0849939 0.044638 0.397535
-0.00441485 0.0301969 0.140918
0 0 0
0 0 0
-0.252807 0.334673 0.360784
-7.58392e-06 -0.00163103 0.027597
-2.53762e-05 -0.221298 0.082163
0 0 0
-1.21409e-06 1.12647e-07 -2.8485e-05
0.00772511 0.00338567 0.0519788
-0.094939 0.035091 -0.0264511
0 0 0
-0.00310022 -0.00254882 -0.00136406
0.0010958 0.0031526 0.0321801
0 0 0
0 0 0
1.9601e-06 0.00318232 0.0267981
-0.00478432 -0.0104278 0.085672
-0.00121987 0.00052259 0.00525364
-0.00926156 0.0232477 -0.00340979
-0.000256097 0.000543756 -0.00663491
0.00417343 0.00411282 0.0327287
0 0 0
0.252215 0.334852 0.360665
0 0 0
2.16751e-06 2.0083e-07 -5.07284e-05
0 0 0
0.100127 0.0769142 -0.0682263
-0.00751881 0.00380373 0.0501707
0 0 0
-0.00107418 0.00314087 0.0317937
0.00123297 0.000526499 0.00529648
0.00467423 -0.0101847 0.0837866
0 0 0
-0.00394355 0.00401263 0.0304704
0 0 0
3.45096e-18 -1.35522e-19 1.27188e-16
0 0 0
-0.0018448 0.00783073 0.112027
1.59575e-08 4.74296e-08 -6.12901e-05
4.78164e-09 2.7036e-09 -1.00844e-05
-0.000837705 0.00680058 0.0473577
0.00029846 0.00292091 0.0225778
-4.14406e-08 6.556e-09 4.66598e-05
-3.43119e-05 0.000386946 0.011516
0.00562699 0.0198434 0.0744761
0.0625991 0.0882878 0.937811
4.46489e-05 0.00148351 0.00760606
-9.70859e-05 0.164714 0.443609
-1.9799e-05 -0.000930398 0.0410739
5.86358e-05 -0.0209699 0.114968
-8.94702e-19 -3.38911e-20 3.18008e-17
-1.01431e-18 -3.87024e-18 -4.83075e-17
2.05488e-18 -7.97326e-18 7.27721e-17
0.00185563 0.00791061 0.112406
0.000843659 0.00686688 0.0476816
-0.00029854 0.00295439 0.0225083
-0.0638848 0.0887318 0.939769
-0.00567711 0.0199789 0.0748967
-0.00937953 -0.00419837 0.0789265
-0.0220199 -0.00999528 0.148116
-4.1061e-18 -3.81528e-18 1.1955e-16
-0.00242088 -0.0155264 0.0965972
0 0 0
0.00144924 0.00916623 0.060463
0 0 0