# vtk DataFile Version 2.0
tri_press
ASCII
DATASET UNSTRUCTURED_GRID
POINTS 3682 float
-0.705 0.275 -2.41687
-0.737313 0.325 2.475
-0.715 0.755 -2.29103
-0.705 0.872222 2.355
0.705 0.275 -2.41687
0.737313 0.325 2.475
0.715 0.755 -2.29103
0.705 0.872221 2.355
-0.78374 0.223697 -0.786247
-0.810424 0.224451 0.844377
-0.812014 0.894421 -0.742353
-0.800255 0.92507 0.806324
0.783773 0.223664 -0.786247
0.810507 0.224369 0.844377
0.812042 0.894449 -0.742353
0.800252 0.925066 0.806324
-1.48826 -0.0721911 -3.70492
-1.49205 -0.0466549 -2.43324
-1.55123 -0.0821161 -0.800498
-1.5755 -0.089147 0.848737
-1.53373 -0.0242383 2.48287
-1.52017 0.0103603 3.76135
-1.52462 0.0282037 5.02724
-1.48416 0.218627 -3.67146
-1.48761 0.264969 -2.40873
-1.56372 0.243846 -0.791934
-1.57875 0.231894 0.832239
-1.50838 0.284961 2.45061
-1.50353 0.317388 3.72793
-1.51674 0.336112 4.99649
-1.48932 0.764921 -3.58154
-1.4986 0.810577 -2.31542
-1.58187 0.897003 -0.754491
-1.57397 0.908111 0.800636
-1.48932 0.881877 2.36314
-1.49411 0.912746 3.64385
-1.5145 0.943668 4.92563
-1.51132 1.68235 -3.50827
-1.52274 1.7403 -2.25443
-1.5567 1.83181 -0.720067
-1.57244 1.87733 0.796634
-1.55822 1.87316 2.33185
-1.54709 1.8748 3.58749
-1.54534 1.89055 4.86031
-0.732098 -0.0678459 -3.7102
-0.718429 -0.0398253 -2.44095
-0.767413 -0.0925793 -0.799463
-0.799206 -0.0940475 0.859096
-0.77184 -0.00227604 2.50098
-0.761488 0.0254989 3.77364
-0.764887 0.0358524 5.03435
-0.731016 0.217004 -3.67309
-0.748862 0.332273 3.73807
-0.75963 0.342796 5.00186
-0.734183 0.742198 -3.57141
-0.741136 0.912526 3.64222
-0.75916 0.944511 4.92528
-0.742701 1.66818 -3.49825
-0.745703 1.72762 -2.24339
-0.774085 1.83094 -0.713413
-0.796913 1.88191 0.795836
-0.794194 1.87295 2.32615
-0.786113 1.87252 3.58179
-0.783866 1.88868 4.85617
0.742474 -0.0678502 -3.7102
0.750264 -0.039833 -2.44095
0.791474 -0.092611 -0.799463
0.793087 -0.0941078 0.859097
0.745194 -0.00229853 2.50098
0.744962 0.0254807 3.77364
0.748996 0.0358327 5.03435
0.726599 0.217002 -3.67309
0.738633 0.332261 3.73806
0.745595 0.342779 5.00186
0.73101 0.742199 -3.57141
0.727068 0.912516 3.64222
0.739471 0.944496 4.92528
0.779748 1.66818 -3.49825
0.791719 1.72763 -2.24339
0.791644 1.83095 -0.713413
0.764876 1.8819 0.795836
0.737149 1.87294 2.32615
0.733353 1.8725 3.58179
0.736509 1.88867 4.85617
1.49373 -0.0722013 -3.70492
1.5051 -0.0466707 -2.43324
1.56304 -0.0821661 -0.800497
1.5769 -0.0892368 0.848737
1.52616 -0.0242961 2.48287
1.51146 0.0103171 3.76135
1.51261 0.0281617 5.02724
1.47679 0.218623 -3.67146
1.48048 0.264965 -2.40873
1.56105 0.243808 -0.791934
1.58395 0.231802 0.832239
1.51622 0.284912 2.45061
1.50151 0.317352 3.72793
1.50663 0.336074 4.99649
1.48299 0.764922 -3.58154
1.49196 0.810587 -2.31542
1.57793 0.897012 -0.754491
1.57649 0.908076 0.800636
1.49439 0.881844 2.36314
1.48749 0.912717 3.64385
1.49855 0.943634 4.92563
1.54097 1.68235 -3.50827
1.55659 1.7403 -2.25443
1.56835 1.83181 -0.720068
1.5471 1.87731 0.796634
1.5126 1.87314 2.33185
1.50148 1.87477 3.58749
1.50179 1.89052 4.86031
-0.765847 0.515 -2.4098
0 0.249849 -2.44202
-0.770667 0.223052 -1.60156
-0.762712 0.598611 2.45656
0 0.299315 2.50069
-0.797123 0.251471 1.65969
0 0.828256 -2.36429
-0.796427 0.857631 -1.51669
0 0.916275 2.39905
-0.78209 0.928109 1.58066
0.765846 0.515 -2.4098
0.770667 0.223052 -1.60156
0.763006 0.59861 2.45685
0.797057 0.251537 1.65969
0.796403 0.857606 -1.51669
0.782092 0.92811 1.58066
-0.797173 0.223984 0.0290649
-0.876496 0.559059 -0.7643
1.6511e-05 0.220791 -0.786247
-0.895486 0.574761 0.82535
4.13671e-05 0.22084 0.844377
-0.807494 0.911105 0.031985
1.41403e-05 1.14177 -0.742353
-1.77017e-06 1.39122 0.806324
0.797308 0.223848 0.0290649
0.876489 0.559057 -0.7643
0.895487 0.574717 0.82535
0.807497 0.911107 0.031985
-0.858026 0.53703 -1.55913
0.858103 0.537028 -1.55913
8.25551e-06 0.220623 -1.60156
7.07013e-06 0.932519 -1.51669
0 0.515 -2.5793
-0.885517 0.56691 0.030525
0.885513 0.566887 0.030525
2.89391e-05 0.220886 0.0290649
6.18505e-06 1.41588 0.031985
-0.886227 0.586686 1.62018
0.886228 0.586664 1.62018
2.06836e-05 0.24581 1.65969
-8.85084e-07 1.01557 1.58066
0 0.598611 2.4684
-0.744969 0.395 -2.42288
-0.3525 0.251235 -2.44063
-0.758334 0.228526 -2.00921
-0.761666 0.461805 2.47743
-0.368656 0.301453 2.49855
-0.789562 0.265891 2.06734
-0.725077 0.635 -2.33507
-0.3575 0.809167 -2.3452
-0.771873 0.822475 -1.90386
-0.723716 0.735417 2.39564
-0.3525 0.906942 2.38972
-0.751495 0.908115 1.96783
0.3525 0.251274 -2.4406
0.744965 0.395 -2.42288
0.758519 0.228341 -2.00921
0.368656 0.301466 2.49853
0.761637 0.461805 2.4774
0.788955 0.266499 2.06734
0.3575 0.809165 -2.3452
0.725182 0.635 -2.33517
0.771874 0.822475 -1.90386
0.3525 0.90695 2.38973
0.723721 0.735416 2.39564
0.751487 0.908107 1.96783
-0.777371 0.223208 -1.1939
-0.790572 0.223725 -0.378591
-0.849229 0.381823 -0.775274
-0.390774 0.224419 -0.786247
-0.79958 0.242155 1.25203
-0.803648 0.224368 0.436721
-0.893976 0.379095 0.834863
-0.404616 0.223796 0.844377
-0.809739 0.881545 -1.12952
-0.863154 0.736189 -0.753327
-0.809882 0.902891 -0.355184
-0.451813 1.10972 -0.742353
-0.797045 0.932462 1.19349
-0.875975 0.763968 0.815837
-0.804029 0.918242 0.419154
-0.498077 1.35404 0.806324
0.777412 0.223166 -1.1939
0.3908 0.224418 -0.786247
0.790572 0.223725 -0.378591
0.849212 0.38182 -0.775274
0.799829 0.241906 1.25203
0.404678 0.223796 0.844377
0.803724 0.224291 0.436721
0.893976 0.379053 0.834863
0.80977 0.881575 -1.12952
0.451816 1.10968 -0.742353
0.863152 0.736196 -0.753327
0.809889 0.902897 -0.355184
0.797044 0.93246 1.19349
0.498137 1.35417 0.806324
0.875989 0.763951 0.815837
0.804037 0.91825 0.419154
-0.839378 0.526015 -1.98446
-0.382923 0.515 -2.54659
4.12776e-06 0.223016 -2.02179
0 0.382424 -2.58611
-0.843821 0.380041 -1.58034
-0.385329 0.222656 -1.60156
-0.843064 0.592648 2.03837
-0.381356 0.598611 2.53025
1.03418e-05 0.264323 2.08019
0 0.448963 2.5864
-0.87867 0.419078 1.63993
-0.398551 0.24583 1.65969
3.53507e-06 0.896116 -1.94049
0 0.671628 -2.45261
-0.863784 0.69733 -1.53791
-0.39821 0.920002 -1.51669
-4.42542e-07 0.978142 1.98986
0 0.757443 2.4403
-0.862074 0.757397 1.60042
-0.391046 0.990467 1.58066
0.839387 0.526014 -1.98446
0.382923 0.515 -2.54659
0.843821 0.38004 -1.58034
0.385338 0.222655 -1.60156
0.843018 0.592637 2.03851
0.381503 0.598611 2.53033
0.87867 0.419101 1.63993
0.398539 0.24583 1.65969
0.863748 0.697317 -1.53791
0.398205 0.919999 -1.51669
0.862018 0.757387 1.60042
0.391046 0.990554 1.58066
-0.859514 0.386363 0.0297949
-0.397703 0.224172 0.0290649
-0.866836 0.548044 -1.16171
-0.881091 0.562985 -0.366888
1.23833e-05 0.220663 -1.1939
2.27251e-05 0.220836 -0.378591
-0.890063 0.570835 0.427938
-0.889295 0.580723 1.22276
3.51531e-05 0.22093 0.436721
3.10253e-05 0.231031 1.25203
-0.867176 0.749343 0.031255
-0.505073 1.36615 0.031985
1.06052e-05 0.960588 -1.12952
1.01627e-05 1.36943 -0.355184
2.20744e-06 1.41747 0.419154
-1.32763e-06 1.3473 1.19349
0.859515 0.386316 0.0297949
0.397766 0.224172 0.0290649
0.866827 0.548042 -1.16171
0.8811 0.562972 -0.366888
0.89006 0.570802 0.427938
0.889296 0.58069 1.22276
0.867178 0.749333 0.031255
0.505108 1.36621 0.031985
-0.824683 0.38752 -1.99684
-0.854809 0.385709 -1.17781
-0.866111 0.712035 -1.14562
-0.841913 0.666165 -1.94416
0.824728 0.38752 -1.99684
0.841894 0.666159 -1.94416
0.866119 0.712035 -1.14562
0.854253 0.3857 -1.17781
-0.368915 0.225783 -2.0155
0.368919 0.225773 -2.0155
0.388616 0.222547 -1.1939
-0.388596 0.222548 -1.1939
-0.377855 0.88019 -1.92217
-0.402105 0.952774 -1.12952
0.402117 0.952765 -1.12952
0.377852 0.880194 -1.92217
-0.367712 0.388712 -2.55467
-0.370212 0.653314 -2.4424
0.370211 0.653314 -2.44262
0.367711 0.388712 -2.55486
-0.854527 0.384015 -0.372739
-0.865831 0.388186 0.432329
-0.871624 0.756679 0.423546
-0.865722 0.743045 -0.361036
0.854524 0.383988 -0.372739
0.865723 0.743044 -0.361036
0.871621 0.756661 0.423546
0.865838 0.388138 0.432329
-0.394239 0.224295 -0.378591
0.394284 0.224293 -0.378591
0.401192 0.224045 0.436721
-0.401129 0.224046 0.436721
-0.517927 1.3169 -0.355184
-0.505319 1.36758 0.419154
0.505316 1.36757 0.419154
0.517943 1.31691 -0.355184
-0.880312 0.409342 1.2374
-0.84115 0.440442 2.05285
-0.818585 0.746407 2.0031
-0.884042 0.753656 1.20813
0.880313 0.409322 1.2374
0.884046 0.753639 1.20813
0.818578 0.746401 2.00317
0.841113 0.440453 2.05293
-0.401871 0.232229 1.25203
0.401906 0.232229 1.25203
0.383598 0.262382 2.07377
-0.383604 0.262382 2.07377
-0.395587 1.32158 1.19349
-0.371773 0.967325 1.97884
0.371773 0.967326 1.97884
0.395585 1.3216 1.19349
-0.375006 0.455384 2.56536
0.37508 0.455384 2.56534
0.367002 0.746429 2.43876
-0.366928 0.74643 2.43879
-0.726464 0.335 -2.42135
-0.52875 0.253149 -2.43872
-0.741134 0.242296 -2.21304
-0.748934 0.393403 2.47566
-0.552985 0.303958 2.49604
-0.773037 0.285846 2.27117
-0.725225 0.695 -2.31824
-0.53625 0.785985 -2.32201
-0.753901 0.799202 -2.09745
-0.719411 0.803819 2.38037
-0.52875 0.888416 2.37119
-0.733803 0.895725 2.16142
0.52875 0.253145 -2.43873
0.726471 0.335 -2.42136
0.741373 0.242057 -2.21304
0.552985 0.303963 2.49604
0.748917 0.393403 2.47564
0.773057 0.285826 2.27117
0.53625 0.786003 -2.32203
0.725223 0.695 -2.31823
0.753948 0.799249 -2.09745
0.52875 0.888469 2.37125
0.719463 0.803818 2.38042
0.733802 0.895722 2.16142
-0.780503 0.223505 -0.990075
-0.78716 0.223707 -0.582419
-0.832187 0.294909 -0.78076
-0.586746 0.225081 -0.786247
-0.803279 0.235026 1.0482
-0.806977 0.224469 0.640549
-0.893702 0.281023 0.83962
-0.607429 0.224306 0.844377
-0.813331 0.890437 -0.935938
-0.843671 0.818349 -0.74784
-0.810946 0.898655 -0.548769
-0.667464 1.07317 -0.742353
-0.798427 0.928543 0.999908
-0.845744 0.848333 0.81108
-0.802132 0.921646 0.612739
-0.666403 1.17403 0.806324
0.780545 0.223463 -0.990075
0.586766 0.225081 -0.786247
0.78716 0.223707 -0.582419
0.83218 0.294898 -0.78076
0.803566 0.234739 1.0482
0.607481 0.224306 0.844377
0.807068 0.224378 0.640549
0.893703 0.28098 0.83962
0.813391 0.890497 -0.935938
0.66747 1.07315 -0.742353
[...]
POINT_DATA 3682
SCALARS point_scalars float 1
LOOKUP_TABLE default
-101.914
-40.4801
-89.3923
-37.6773
-102.869
-38.1555
-89.6664
-36.1865
-32.7692
-39.3081
-50.9444
-45.6918
-32.7172
-39.1961
-51.2071
-45.6542
-20.1138
-72.4555
-32.45
-35.4464
-41.0466
-40.5991
-35.2939
54.1485
-76.6591
-33.738
-48.9182
-40.3405
-38.9759
-34.2991
7.92606
-80.7747
-41.2136
-41.2046
-39.8939
-37.3471
-33.9854
-64.4767
-54.2428
-77.2504
-52.2479
-38.4863
-37.934
-34.858
124.566
-118.313
-33.3623
-40.8125
-41.3892
-36.4615
-33.1738
150.741
-33.3288
-32.5825
159.993
-32.6078
-32.2677
-28.9328
-64.6897
-77.5687
-56.5296
-36.6907
-34.284
-32.4329
124.434
-126.387
-33.2396
-40.3714
-38.1802
-33.866
-30.5763
149.616
-31.1425
-29.6594
160.097
-30.6353
-29.7253
-27.1238
-64.7421
-77.503
-56.5276
-35.4053
-32.6456
-31.6282
-19.6159
-71.9919
-32.4127
-35.302
-39.1316
-38.2375
-33.0698
55.4426
-124.205
-33.6986
-48.7415
-38.5821
-36.6829
-32.1744
13.9429
-80.7847
-41.2562
-41.1105
-38.4884
-35.2845
-31.9742
-54.2803
-55.9888
-77.2992
-52.2327
-37.7712
-36.2363
-32.9579
-58.2942
-145.709
-43.5773
-36.7649
-32.3787
-39.5197
-113.181
-32.876
-33.8796
-46.0785
-60.789
-43.5369
-34.89
-39.0078
-32.8392
-46.0292
-32.2925
-36.5859
-34.9746
-40.1395
-36.2627
-49.3705
34.0616
-59.1704
-32.2493
-36.5595
-40.0304
-49.2534
-41.0067
-40.9598
-48.6849
-11.7744
193.342
-37.8847
-37.8333
-32.9741
-87.5615
-43.749
-43.2963
-36.9384
-40.11
-29.4012
-61.69
-156.881
-58.164
-38.7717
-36.0921
-40.6329
-19.8679
-97.0329
-45.4983
-36.8656
-33.0646
-40.0611
-156.395
-48.2275
-58.0892
-33.1636
-36.5175
-39.4761
-98.0005
-20.1389
-45.4818
-32.6448
-35.0027
-39.7071
-36.1424
-32.3005
-34.001
-34.6224
-38.2218
-32.9394
-40.77
-36.1501
-30.3433
-40.658
-52.7013
18.7962
-47.1359
-41.3982
-46.4423
-57.1421
-36.0962
-34.6095
-32.2613
-33.9663
-37.9918
-36.082
-32.8654
-40.6305
-30.0987
19.135
-40.6773
-52.7419
-47.0656
-57.147
-41.3067
-46.4099
-57.9663
189.005
-68.9435
165.816
-41.4244
-47.7704
-41.775
-32.0676
-36.1115
-25.0597
-43.4442
-37.2272
-40.4606
155.238
-40.6735
-15.1788
-37.8018
-29.2583
-45.651
-41.3425
-57.9022
189.077
-41.3437
-47.761
-40.7677
-30.1545
-42.904
-36.8981
-40.6306
-15.2134
-45.3301
-41.4001
-34.984
-32.7922
-36.0437
-37.9563
-39.452
-33.1215
-37.1971
-40.779
-34.0414
-37.336
-43.1545
-75.09
11.6649
-88.1358
-71.1438
-50.5284
-34.928
-32.7686
-35.9638
-37.9355
-37.1214
-40.552
-43.1008
-75.084
-58.141
-36.2517
-36.015
-54.9621
-57.7983
-54.9445
-35.89
-36.2007
-67.2815
-67.2821
-38.8469
-38.8594
-41.021
4.97957
4.88118
-41.0319
147.342
128.353
128.181
147.321
-34.8386
-34.6134
-41.1984
-43.3867
-34.8002
-43.3999
-41.1428
-34.5319
-32.8372
-32.8203
-33.8296
-33.8647
-89.1282
-62.3938
-62.3654
-88.947
-39.3526
-41.2905
-41.2211
-42.9343
-39.0978
-42.771
-40.4178
-40.1987
-37.4519
-37.3043
-36.4969
-37.3579
-52.2888
-38.0117
-37.9918
-52.3206
-31.8469
-28.3081
-29.9262
-31.8659
-56.9934
-121.166
-70.665
-40.591
-38.8996
-41.0657
-41.8787
-97.2363
-65.7771
-37.4676
-33.7283
-38.1547
-120.68
-51.695
-70.9149
-36.2027
-38.2354
-39.4687
-95.7464
-42.0504
-65.7795
-32.6524
-35.7516
-37.4186
-36.4152
-32.4749
-32.6503
-33.9717
-38.4553
-32.8584
-38.6307
-36.7039
-40.8299
-44.9619
-53.083
-36.0657
-46.214
-42.7781
-45.7555
-50.2652
-36.367
-33.9544
-32.4263
-32.6149
-38.289
-36.606
-32.7747
-38.4761
-40.8293
-36.1672
-45.0698
-53.1994
-46.1669
-50.2313
-42.7048
-45.7272
-71.704
-32.8257
-71.7469
153.693
-148.979
-148.994
-87.7388
40.4382
-51.1344
-39.6506
-41.7868
-46.1752
-38.1387
-36.6809
-40.0123
-32.9338
-33.9712
-31.9654
-35.065
-27.5931
-39.1583
-37.686
-43.454
-37.4606
-112.474
-113.259
-64.9367
67.7084
-35.7555
-30.8003
-39.0981
-20.1946
-33.8694
-33.6903
-35.3476
-30.4129
-42.4098
-48.6084
-45.4185
-42.9331
-76.7891
-33.2417
-72.0516
153.848
-51.0924
-39.6138
-41.697
-46.155
-36.0173
-34.7945
-38.5178
-31.4073
-38.3897
-37.3033
-42.8954
-37.0243
-35.6721
-30.7095
-39.0633
-20.2228
-42.2594
-48.5491
-45.1933
-42.9786
-32.2394
-32.75
-33.9254
-32.6194
-35.2551
-38.3173
-36.3482
-37.4186
-34.887
-34.8805
-36.8292
-33.7848
-39.9186
-40.4596
-37.4755
-41.2825
-36.2819
-36.2461
-34.9879
-37.4592
-51.5656
-47.6159
-46.4579
-60.2727
30.8279
30.8917
23.1388
-3.87347
-58.6472
-58.6456
-64.8014
-55.9133
-32.1708
-32.6995
-33.8688
-32.5867
-35.2229
-38.3051
-36.2766
-37.4045
-39.8216
-40.3661
-37.3811
-41.085
-51.589
-47.584
-46.3466
-60.2191
-49.4054
-41.1928
-40.8114
-37.583
-49.3354
-41.1369
-40.7626
-37.5159
-57.6209
-48.5213
-48.5183
-43.3071
-24.415
-12.6211
-12.6349
0.317738
188.46
208.426
174.109
188.446
-36.078
-37.9783
-37.3728
-40.1866
-36.0244
-37.9418
-37.3108
-40.1364
-32.9322
-32.8669
-33.3653
-32.9202
-85.5864
-103.287
-78.4381
-85.5829
-43.8531
-43.4824
-45.0973
-41.8102
-43.1702
-42.9841
-44.7046
-41.4979
-36.6927
-37.0515
-36.8719
-36.934
-39.7736
-40.5317
-40.5755
-43.3028
-30.56
-25.1741
-28.5373
-29.0411
-68.8723
123.538
-92.1261
47.0942
-58.3503
-62.6836
-40.2357
-33.081
-37.2402
-33.065
-41.8881
-38.4242
-77.1646
100.913
-66.6603
61.8128
-51.764
-41.1928
-39.8141
-32.688
-35.3804
-32.131
-40.5753
-38.4588
-92.1586
38.1041
-68.2058
124.138
-58.0008
-62.703
-35.7097
-29.7827
-38.6721
-30.9336
-40.7371
-37.3673
-66.6583
62.5259
-77.2825
100.86
-51.7519
-41.1973
-35.1456
-30.7719
-38.5615
-30.8626
-39.934
-38.3724
-34.3583
-38.0151
-33.5512
-32.5292
-36.7613
-34.5274
-36.4218
-33.4413
-39.1343
-37.6315
-33.3611
-33.5927
-33.6808
-40.9352
-34.8627
-37.5792
-35.0959
-5.77374
-37.5009
-42.9008
-47.5622
-75.0478
12.9308
-28.3966
-45.3082
-53.9104
-41.0952
-43.1016
-43.7434
-52.9606
-59.0667
-55.7354
-34.2716
-37.9937
-36.4091
-33.4271
-33.5065
-32.5034
-36.6661
-34.4935
-38.8683
-37.43
-34.8159
-37.4647
-33.2791
-33.5399
-33.5774
-40.7224
-34.9059
-6.04085
13.0641
-28.2666
-37.4267
-42.9316
-47.5981
-75.0367
-45.1932
-53.9195
-59.0245
-55.745
-41.0272
-42.9477
-43.7042
-52.899
-57.7435
-57.8271
191.683
141.204
-68.5641
-68.5499
159.165
157.128
-50.2968
-38.1289
-56.5631
-42.4292
-41.8311
-41.6159
-31.5604
-31.9333
-36.0859
-36.5881
-28.7952
-24.3977
-40.0157
-43.1531
-37.1016
-37.3537
-40.2837
-40.2687
150.948
151.221
-37.0283
-47.8027
-26.0425
-5.28175
-37.8732
-37.8927
-28.7932
-30.2378
-43.1346
-44.5928
-44.5715
-40.2585
-57.6049
-57.7972
141.17
191.747
-50.1212
-38.0571
-56.5608
-42.4171
-40.7006
-40.7617
-28.136
-29.8528
-39.6635
-42.3862
-36.8828
-36.8316
-47.7647
-36.9433
-5.34621
-26.0626
-44.3696
-42.6294
-40.3015
-44.6633
-34.9869
-34.8371
-32.6402
-33.1838
-36.9605
-35.6794
-36.1978
-40.4313
-39.3039
-39.3098
-33.0491
-33.0405
-35.6481
-38.8177
-40.0292
-41.5484
-33.9876
-34.0061
-37.3842
-37.3055
-41.7076
-42.928
-90.4751
-67.3388
10.0325
10.0235
-84.1451
-84.0983
-69.419
-69.4049
-51.016
-51.036
-34.9398
-34.7711
-32.6203
-33.1552
-35.5843
-36.9136
-36.1673
-40.4246
-38.7493
-35.5686
-39.785
-41.3496
-42.9121
-41.6608
-67.3099
-90.5599
-67.2151
-50.0892
-50.1796
-69.5142
-38.4398
-36.344
-37.8515
-38.3595
-39.9863
-35.1046
-37.318
-36.5405
-76.0854
-74.9355
-48.5056
-43.3896
-67.3221
-69.5591
-50.05
-49.9125
-76.1067
-43.3536
-48.4529
-75.0147
-39.947
-36.4702
-37.2432
-35.0073
-38.3649
-38.2838
-37.7863
-36.2559
-89.8204
-88.8549
-57.3643
-54.811
-89.9265
-54.7932
-57.366
-88.8724
-35.7424
-36.7283
-43.02
-41.0842
-35.7632
-41.1054
-43.0253
-36.7347
-64.7332
-28.5457
-24.9019
-65.6639
-4.01355
20.7733
-1.54202
-12.6698
-1.18861
-12.7467
-1.56182
20.799
-64.7541
-65.6133
-24.9246
-28.5623
65.7797
165.107
203.606
49.2591
67.7826
63.7552
171.477
104.863
66.8043
105.402
171.421
63.0309
65.3005
48.7804
203.614
165.256
-33.2521
-33.7573
-36.2875
-35.8133
-32.2639
-35.5232
-35.811
-33.6823
-43.3635
-44.5049
-39.0992
-39.0398
-47.6183
-39.8642
-40.5316
-47.3389
-33.2035
-35.7884
-36.2457
-33.7029
-47.6944
-47.4037
-40.5018
-39.8687
-43.3176
-38.9546
-39.0424
-44.4709
-32.1599
-33.6154
-35.7459
-35.4225
-32.9715
-33.7033
-32.8144
-32.4206
-32.9506
-32.3903
-32.8043
-33.696
-34.5721
-34.9417
-33.3121
-32.935
-34.6292
-32.9769
-33.3268
-34.9669
-80.245
-66.2272
-99.9897
-7.33791
-51.0288
-63.6574
-76.4136
-55.8699
-50.9679
-55.8116
-76.4005
-63.6481
-80.3822
-7.29387
-99.9899
-66.1862
-39.429
-39.238
-40.9387
-41.1727
-40.3165
-40.0322
-43.5629
-42.6254
-39.1515
-42.7482
-43.7031
-40.0408
-45.6862
-41.8271
-42.7274
-45.7915
-39.2327
-40.9506
-40.6037
-38.8941
-45.5963
-45.6386
-42.4427
-41.6239
-38.0725
-38.6401
-43.1014
-42.3625
-38.7463
-41.8258
-42.827
-38.5021
-37.6113
-37.4752
-37.0211
-37.2386
-37.4566
-36.9617
-36.9026
-37.4144
-37.117
-34.9892
-36.6669
-37.1551
-38.7869
-37.8201
-36.9575
-35.9435
-50.7898
-48.1507
-43.6156
-55.9385
-35.9936
-35.3191
-39.9255
-40.7604
-35.5963
-40.7751
-39.9752
-35.252
-50.756
-55.9474
-43.6525
-48.2046
-34.5093
-30.7161
-28.4894
-32.7205
-32.1924
-30.671
-24.5822
-27.4712
-31.2926
-30.153
-28.5019
-31.0271
-32.88
-32.813
-30.1316
-31.1222
-61.7582
-82.7675
-98.3235
-40.572
-39.5541
-41.2429
-57.7738
-74.0783
-71.5712
-37.9672
-34.983
-37.7932
-83.9893
-62.1471
-99.068
-37.0677
-38.2507
-39.2835
-75.365
-57.9296
-71.5201
-33.6609
-36.2831
-36.7499
-33.333
-32.4247
-32.4912
-33.5636
-39.8836
-32.0246
-38.4686
-37.5921
-48.9947
-47.768
-52.6083
-65.8358
-46.0648
-44.6147
-45.6075
-47.7522
-33.2921
-33.5488
-32.5097
-32.442
-39.6898
-37.4793
-31.9221
-38.3376
-49.3155
-66.2476
-47.947
-52.7908
-46.0241
-47.7145
-44.5601
-45.5766
-77.0203
-64.0549
-94.9505
96.5248
-146.95
-146.977
-111
-27.6975
-48.5716
-41.5058
-42.4715
-45.1409
-37.6198
-36.0651
-39.3305
-33.6639
-33.1065
-31.9415
-33.8629
-29.5431
-39.1319
-37.6807
-42.6693
-37.8227
-117.807
-118.318
-81.8274
-25.0357
-33.6782
-32.128
-38.35
-24.5791
-33.7569
-33.7055
-34.3821
-32.3281
-43.9996
-47.4153
-45.5084
-44.3498
-73.4925
-65.9707
-96.0533
98.8536
-48.5155
-41.4654
-42.3959
-45.1128
-35.5868
-34.2425
-37.5496
-32.0146
-38.5894
-37.2695
-42.1182
-37.3467
-33.6715
-32.0718
-38.3315
-24.5803
-43.9259
-47.3643
-45.3593
-44.386
-32.3185
-32.5999
-33.1369
-32.5922
-35.8372
-37.4789
-36.0541
-36.9923
-34.961
-34.9564
-35.8367
-34.3039
-40.152
-40.2895
-38.3509
-41.6105
-36.2773
-36.2591
-35.5601
-36.9901
-50.8214
-48.3519
-47.6889
-54.6568
33.3456
33.2622
32.8359
19.2965
-58.8579
-58.8577
-61.7614
-57.1715
-32.2437
-32.5643
-33.0866
-32.5611
-35.8072
-37.4583
-36.0095
-36.9739
-40.0517
-40.192
-38.2429
-41.4504
-50.6817
-48.3259
-47.5536
-54.5952
-44.291
-41.0766
-40.9363
-39.2282
-44.2304
-41.0269
-40.8903
-39.1745
-52.6907
-48.7512
-48.7497
-45.723
-17.9252
-11.9611
-11.9672
-6.09753
192.73
206.876
170.642
192.726
-36.8766
-38.0618
-37.6169
-38.9941
-36.8238
-38.0169
-37.5605
-38.9432
-32.9668
-32.8825
-33.138
-32.9611
-87.1419
-93.6364
-82.2827
-87.1382
-44.6533
-43.4644
-44.3246
-42.6838
-44.0889
-42.9914
-43.8973
-42.3117
-36.8783
-36.9918
-36.8989
-37.0178
-40.2544
-40.2637
-40.2995
-40.9738
-29.9091
-27.2352
-28.5237
-28.9388
-61.0527
-78.0217
-97.0636
82.1221
-158.196
-143.816
-117.799
-39.5472
-67.1514
-56.6729
-57.3105
-59.8155
-39.3159
-38.3844
-40.468
-34.4116
-37.3644
-34.9658
-36.7022
-34.8285
-41.8774
-39.6903
-42.0744
-38.977
-25.1645
-19.5882
-90.2823
69.6386
-99.5777
-104.565
-85.5936
-3.89729
-51.7333
-41.1184
-49.9804
-41.8406
-37.0911
-36.7609
-40.0102
-33.7413
-33.2355
-33.4276
-34.1977
-32.4451
-39.2859
-41.1233
-40.4169
-38.9675
-158.587
-143.775
-117.815
-42.8622
-52.398
-60.1697
-106.181
82.9037
-67.0943
-56.7375
-57.0869
-59.8354
-34.8092
-32.4534
-34.6872
-31.4736
-37.0234
-36.1506
-38.5741
-32.2708
-40.4257
-38.7974
-40.9013
-37.8676
-99.4046
-104.351
-85.6719
-6.46788
-25.2649
-19.8108
-90.2968
69.635
-51.8794
-41.1161
-49.9647
-41.828
-32.409
-33.3628
-33.8359
-31.5409
-35.3157
-34.8806
-38.3948
-31.9046
-38.759
-40.895
-39.879
-38.8033
-37.2541
-38.024
-34.7242
-37.4948
-32.25
-32.2136
-32.8817
-32.4655
-33.4747
-34.6317
-34.0778
-34.2545
-34.4035
-34.7535
-35.5815
-33.9011
-38.0324
-37.6186
-38.9826
-37.6262
-33.0119
-32.8635
-33.0824
-33.3855
-40.5161
-39.9978
-31.4555
-43.261
-36.1979
-36.2602
-35.4766
-37.1508
-33.0268
-29.5857
-34.7175
-16.7722
-42.5516
-39.3608
-38.9296
-41.9546
-53.2634
-52.0289
-49.9094
-61.7204
2.98488
26.8425
18.5267
0.764863
-46.3984
-47.6892
-46.0471
-50.4408
-41.8527
-40.8267
-41.3423
-42.0135
-46.041
-47.0108
-45.1264
-49.6744
-53.479
-58.2489
-57.9217
-56.7978
-37.2162
-37.9738
-34.65
-37.4679
-34.3881
-34.7436
-35.5688
-33.8877
-32.2099
-32.168
-32.835
-32.4352
-33.4388
-34.5985
-34.035
-34.2225
-37.8178
-37.326
-38.7198
-37.4095
-36.1149
-36.2077
-35.4203
-37.0719
-32.9359
-32.8112
-33.0009
-33.3182
-40.363
-39.8859
-31.3412
-43.074
-32.35
-29.4323
-34.3816
-16.9313
3.63401
27.0436
18.642
0.954702
-42.6048
-39.3614
-38.9113
-41.9861
-53.3381
-52.0473
-49.9511
-61.7193
-46.3395
-47.619
-45.9553
-50.4198
-53.465
-58.2496
-57.8937
-56.8025
-41.7707
-40.7345
-41.265
-41.8915
-46.0112
-46.9771
-45.0921
-49.6127
-64.5489
-54.6913
-57.7315
-58.1052
169.335
186.336
191.769
165.742
-75.6778
-63.3905
-68.8182
-68.8097
125.086
192.685
152.759
151.941
-41.4695
-41.2957
-45.5419
-39.7085
-47.1258
-48.2753
-51.6521
-44.8304
-40.815
-42.9409
-41.8361
-41.723
-32.6503
-30.6795
-31.7363
-32.1847
-35.6964
-36.494
-36.0447
-36.3103
-26.1829
-24.6961
-27.0402
-24.4602
-43.3559
-43.4375
-41.1656
-44.0567
-37.3479
-37.1208
-37.2496
-37.3411
-51.6431
-32.2133
-40.1913
-40.1851
132.654
169.718
149.882
149.733
-40.16
-40.6876
-38.6116
-43.0712
-17.3871
-13.6876
-20.5961
-10.3186
-36.4655
-38.9093
-37.7933
-37.8169
-29.7445
-28.7298
-28.9842
-29.8884
-45.494
-45.723
-44.3769
-45.741
-41.9022
-40.8544
-42.1716
-41.1019
-64.6158
-54.6085
-57.6296
-58.0634
169.462
186.342
165.807
191.843
-41.3798
-41.2291
-45.4279
-39.6279
-47.1115
-48.2698
-51.6455
-44.8197
-39.6145
-42.1126
-40.7589
-40.7974
-31.0584
-28.7648
-28.9071
-30.2531
-42.8042
-42.917
-40.7406
-43.409
-36.9601
-36.8619
-36.982
-36.9275
-40.1103
-40.639
-43.0292
-38.5499
-17.4265
-13.7112
-10.3659
-20.6223
-45.2075
-45.3686
-45.4815
-43.9733
-41.9537
-40.9243
-41.1507
-42.2242
-34.462
-35.5471
-35.006
-34.8792
-32.6981
-32.8708
-32.6824
-32.96
-36.3327
-36.5087
-36.4494
-35.7642
-37.7423
-37.921
-36.9529
-39.2526
-38.0335
-41.1634
-39.4251
-39.4279
-33.3951
-32.9412
-33.1072
-33.1031
-37.2349
-37.2526
-36.3382
-38.0608
-40.7128
-41.1888
-40.3924
-41.1563
-34.4793
-33.6678
-34.0281
-34.0383
-37.4172
-37.1421
-37.3583
-37.3178
-45.0801
-41.5357
-42.0461
-43.5609
-67.1885
-81.8707
-81.2376
-71.0684
16.6726
6.05377
11.1964
11.1956
-45.4683
-105.751
-88.8198
-88.79
-68.0214
-74.6552
-70.762
-70.7558
-52.6815
-47.1546
-50.7292
-50.7416
-34.4047
-35.4927
-34.9533
-34.8179
-32.6695
-32.8528
-32.6606
-32.9343
-36.242
-36.4372
-35.6787
-36.3748
-37.7261
-37.8927
-36.9264
-39.2387
-37.1512
-37.1846
-37.9886
-36.2602
-40.502
-40.9244
-40.1559
-40.9439
-45.0231
-41.4845
-43.5162
-41.9986
-67.1124
-81.8619
-71.0581
-81.1852
-60.5807
-57.7381
-57.7971
-54.8192
-35.3665
-39.4554
-36.7255
-36.9555
-35.9151
-36.5693
-35.673
-35.8341
-63.5084
-53.2393
-56.8204
-51.7758
-60.2506
-57.353
-57.5611
-54.553
-63.5609
-53.2279
-56.7909
-51.7436
-35.7651
-36.4483
-35.5651
-35.7279
-35.2776
-39.2825
-36.6994
-36.932
-75.2786
-65.3596
-68.2851
-61.8251
-75.2697
-65.3721
-68.2665
-61.8302
-38.4621
-37.5312
-40.2959
-39.1288
-38.4789
-37.5439
-40.4486
-39.1378
-51.6618
-41.058
-40.8075
-32.5178
0.702243
9.24791
-0.220348
7.92926
0.454699
9.16582
-0.302936
7.89517
-51.6685
-41.0712
-40.8045
-32.5311
133.767
95.1213
173.676
148.02
117.768
111.019
136.555
146.115
110.71
117.775
146.258
136.595
94.6305
133.678
147.824
173.717
-34.1867
-34.6825
-34.956
-35.5191
-34.1047
-34.3679
-34.7503
-35.1189
-41.0961
-42.303
-39.9085
-41.4469
-43.3381
-45.3117
-41.7725
-43.0525
-34.1451
-34.646
-34.9135
-35.4847
-43.3608
-45.3353
-41.7748
-43.0563
-41.0344
-42.2537
-39.8461
-41.3958
-34.0232
-34.2764
-34.6776
-35.0383
-32.6754
-33.085
-32.6861
-32.9616
-33.0694
-32.654
-32.9487
-32.6678
-34.2816
-33.698
-33.9211
-33.4522
-33.7396
-34.3211
-33.4842
-33.9486
-97.7535
-53.8042
-96.6782
-79.9201
-57.0195
-60.5021
-65.2846
-66.9533
-60.4764
-56.9527
-66.9326
-65.2521
-53.7044
-97.7521
-79.8511
-96.7941
-39.1277
-40.0688
-39.4408
-39.7547
-40.6693
-41.2548
-41.5621
-42.0492
-40.3175
-40.9452
-41.4533
-42.1729
-44.2983
-42.4966
-43.9238
-41.9975
-38.8662
-39.8427
-39.1457
-39.5048
-44.1603
-42.3417
-43.7327
-41.8126
-39.3216
-40.2118
-40.593
-41.5362
-39.3777
-40.1503
-40.4808
-41.141
-37.5172
-37.4319
-37.2638
-37.4001
-37.3406
-37.2987
-37.0854
-37.2853
-36.3101
-36.8696
-36.2231
-36.7268
-37.4538
-37.8459
-36.9229
-37.3921
-53.4233
-54.7386
-48.5027
-51.6826
-36.681
-38.1816
-37.8829
-39.1789
-36.5785
-38.1231
-37.8916
-39.1995
-53.4557
-54.7574
-48.5412
-51.7097
-32.5581
-32.3271
-31.6412
-30.7409
-28.9149
-29.863
-26.3669
-28.0294
-30.3039
-30.4117
-29.2004
-29.7107
-32.2649
-31.9682
-31.8131
-31.0253
-96.3251
65.4829
-119.806
12.5599
-64.023
-84.0493
-41.5119
-35.7895
-38.4758
-36.8332
-40.8625
-39.5514
-89.6432
60.8498
-82.3511
1.24885
-71.4935
-64.2736
-39.462
-34.1671
-34.8349
-33.2045
-38.6329
-36.7405
-120.007
12.1266
-101.439
66.5997
-64.2782
-84.2064
-36.3936
-34.2529
-39.5647
-33.5097
-39.2738
-37.9024
-82.4895
1.19058
-89.7506
61.066
-71.4883
-64.3246
-34.1409
-31.8227
-38.008
-32.4158
-37.712
-36.2404
-37.7733
-35.4935
-32.7354
-32.7908
-33.0813
-33.1554
-34.7216
-33.355
-39.2828
-37.7015
-32.045
-34.2604
-27.2316
-42.7793
-35.4781
-37.614
-41.5504
-22.6937
-42.638
-46.657
-50.3298
-66.7467
-7.50333
-66.2422
-46.2028
-47.8429
-43.2785
-44.1391
-44.6225
-48.3554
-50.4372
-49.9427
-37.7047
-35.4673
-34.7022
-33.3376
-32.6821
-32.7626
-33.0285
-33.1259
-39.0814
-37.5415
-35.4021
-37.4945
-31.9441
-34.2025
-27.1182
-42.5809
-41.5608
-19.9331
-4.45976
-66.1659
-42.6971
-46.7548
-50.4307
-66.8875
-46.1386
-47.8059
-50.3891
-49.9243
-43.2235
-44.0615
-44.5831
-48.3023
-89.5505
92.6702
-95.261
65.1667
-70.1402
-73.0559
161.376
132.678
-113.65
-33.9426
-113.643
-34.4489
-88.461
-88.4679
36.0493
36.2506
-49.68
-53.4656
-38.8621
-40.2864
-46.1697
-39.9895
-49.9483
-43.3307
-39.5584
-34.0159
-40.3638
-33.6153
-39.9812
-40.0755
-32.715
-32.9141
-35.0388
-32.1213
-33.6952
-29.2697
-34.8832
-35.4064
-29.2823
-27.0161
-41.6275
-38.1954
-38.4851
-37.3464
-40.3367
-44.4991
-37.4119
-37.69
-83.4742
-22.2647
-83.5548
-17.4502
-64.9447
-64.9091
58.4432
58.7118
-40.1803
-30.5583
-34.3607
-19.8377
-36.75
-40.6689
-23.6809
-15.8831
-34.2528
-32.3571
-34.1409
-31.8526
-35.3184
-35.2934
-30.208
-30.7542
-42.4995
-41.2868
-46.4191
-50.5464
-43.9956
-45.9508
-44.6277
-41.8327
-94.0943
92.7607
-95.7073
65.5295
-70.4863
-73.238
132.998
161.53
-49.591
-53.4317
-38.8017
-40.2588
-46.0328
-39.9035
-49.9283
-43.3101
-37.7442
-31.9816
-38.6279
-31.8162
-38.6201
-38.4726
-30.8534
-31.2182
-40.8283
-37.4854
-38.1581
-37.06
-39.9013
-43.8172
-37.0526
-37.1565
-40.1436
-30.5636
-34.2565
-19.8518
-40.6233
-36.6859
-15.9283
-23.7041
-42.2216
-41.2725
-46.3021
-50.5716
-45.7625
-43.7085
-41.8661
-44.6792
-32.986
-32.411
-33.2443
-32.915
-33.7408
-33.878
-32.487
-32.7755
-35.1978
-35.5352
-37.2613
-39.1423
-36.3365
-36.3817
-36.5035
-38.5439
-35.7238
-34.2198
-35.7174
-34.2129
-36.8062
-36.8093
-33.7759
-33.7723
-35.2966
-42.5983
-39.5384
-41.2509
-36.4693
-38.309
-41.2103
-41.4976
-35.5552
-37.1241
-35.5253
-37.083
-34.974
-34.9872
-37.4683
-37.4377
-49.8698
-58.011
-46.0104
-51.7597
-44.9833
-48.4727
-63.0834
-57.8625
29.2571
14.7088
29.3417
14.8625
22.5351
22.552
-4.54837
-4.52119
-60.7882
-56.9347
-60.7831
-56.9367
-64.5212
-64.5159
-55.995
-55.9991
-32.9222
-32.3722
-33.1799
-32.8728
-33.6865
-33.8184
-32.4554
-32.7387
-35.1565
-35.509
-37.224
-39.1427
-36.3113
-36.2608
-36.4833
-38.5377
-35.1796
-42.4323
-39.4444
-41.1437
-38.2194
-36.3709
-40.9928
-41.2953
-49.961
-57.9634
-45.9788
-51.6952
-48.4286
-44.947
-57.804
-63.0383
-49.9115
-48.9169
-45.0602
-39.3884
-39.0862
-43.507
-37.6819
-37.4631
-49.8236
-48.8566
-44.9855
-39.3276
-43.46
-39.0251
-37.3927
-37.616
-57.572
-57.5726
-52.4331
-45.506
-52.4319
-45.5016
-43.2013
-43.2038
-24.8043
-24.8052
-18.5026
-7.0667
-7.08464
-18.5084
-0.351389
-0.359922
201.902
168.232
199.415