# vtk DataFile Version 2.0
tet_velo
ASCII
DATASET UNSTRUCTURED_GRID
POINTS 29498 float
-0.717836 0.145 -2.105
-0.694012 0.295 2.085
-0.707454 0.665 -1.965
-0.605 0.939122 2.065
0.717831 0.145 -2.105
0.691993 0.295 2.085
0.707453 0.665 -1.965
0.605 0.939188 2.065
-0.754922 0.149973 -0.708333
-0.794795 0.152158 0.688333
-0.751573 0.834644 -0.621667
-0.719848 0.928445 0.721667
0.754249 0.149969 -0.708333
0.793452 0.152153 0.688333
0.751601 0.834695 -0.621667
0.720059 0.9287 0.721667
-1.45816 -0.251648 -3.24068
-1.4619 -0.190429 -2.1447
-1.4893 -0.184925 -0.746658
-1.50374 -0.184258 0.662121
-1.44703 -0.0898003 2.06107
-1.42907 -0.0177332 3.16147
-1.43597 0.0396415 4.25368
-1.45703 0.0564466 -3.18985
-1.45997 0.135852 -2.0997
-1.4933 0.163779 -0.712035
-1.49878 0.168774 0.680434
-1.40637 0.259707 2.06912
-1.40269 0.330066 3.16877
-1.42275 0.386944 4.26272
-1.45305 0.638943 -3.07323
-1.45289 0.715711 -1.98088
-1.4834 0.844707 -0.629566
-1.44523 0.91262 0.717965
-1.34116 0.943445 2.0703
-1.36749 1.01043 3.17215
-1.40761 1.07465 4.27469
-1.45504 1.6132 -2.9384
-1.457 1.7044 -1.85403
-1.46539 1.84714 -0.520013
-1.45646 1.96065 0.80251
-1.43183 2.02423 2.13709
-1.4259 2.06998 3.22261
-1.43516 2.12252 4.31933
-0.726109 -0.246648 -3.24412
-0.720757 -0.182238 -2.14972
-0.742593 -0.191159 -0.745985
-0.774205 -0.195336 0.668864
-0.737506 -0.0728354 2.07286
-0.726114 -0.00539991 3.16947
-0.732532 0.0458949 4.2583
-0.727768 0.0552754 -3.19091
-0.710525 0.34341 3.17537
-0.725626 0.39309 4.26621
-0.724739 0.617687 -3.06663
-0.683345 1.01263 3.17109
-0.717072 1.07701 4.27447
-0.723314 1.59825 -2.93187
-0.72301 1.69008 -1.84685
-0.73481 1.84375 -0.515682
-0.740684 1.96541 0.80199
-0.731961 2.02687 2.13337
-0.729264 2.0707 3.21891
-0.736182 2.12299 4.31664
0.728757 -0.246633 -3.24412
0.73806 -0.18223 -2.14972
0.762756 -0.191151 -0.745985
0.766808 -0.195326 0.668864
0.697703 -0.0728239 2.07286
0.679175 -0.00537129 3.16947
0.673595 0.0459375 4.25831
0.71814 0.0552869 -3.19091
0.663521 0.343441 3.17537
0.664259 0.393136 4.26621
0.714324 0.617701 -3.06663
0.634532 1.01269 3.17109
0.651532 1.07707 4.27447
0.734581 1.59829 -2.93187
0.73832 1.69013 -1.84685
0.728458 1.84383 -0.515682
0.695266 1.96552 0.80199
0.661851 2.02698 2.13337
0.655166 2.07079 3.21891
0.6565 2.12307 4.31664
1.46165 -0.251609 -3.24068
1.47255 -0.190395 -2.1447
1.50346 -0.184873 -0.746658
1.50837 -0.184193 0.662121
1.43416 -0.089746 2.06107
1.39791 -0.0176611 3.16147
1.38705 0.0397323 4.25368
1.45067 0.0564824 -3.18985
1.4586 0.135883 -2.0997
1.49555 0.163844 -0.712035
1.50823 0.168872 0.680434
1.41511 0.259765 2.06912
1.37689 0.330144 3.16877
1.3732 0.387041 4.26272
1.44526 0.638986 -3.07323
1.45061 0.715755 -1.98088
1.48323 0.844835 -0.629566
1.45221 0.912894 0.717965
1.34882 0.943593 2.0703
1.33878 1.01055 3.17215
1.35342 1.07477 4.27469
1.46376 1.61328 -2.9384
1.46747 1.7045 -1.85403
1.45913 1.8473 -0.520013
1.42121 1.96086 0.80251
1.37583 2.02443 2.13709
1.36158 2.07016 3.22262
1.36186 2.12267 4.31933
-0.749603 0.405 -2.07196
-2.5034e-06 0.148759 -2.10124
-0.740371 0.143495 -1.40667
-0.703242 0.617061 2.12874
-0.00100949 0.32157 2.05843
-0.701818 0.266165 1.38667
-5.06639e-07 0.722447 -2.02245
-0.773324 0.793633 -1.29333
0 0.955304 2.08115
-0.673283 0.944642 1.39333
0.749653 0.405 -2.07201
0.740031 0.143493 -1.40667
0.702763 0.617094 2.12927
0.698237 0.268062 1.38667
0.773323 0.793643 -1.29333
0.673283 0.944698 1.39333
-0.776793 0.149131 -0.00999999
-0.849036 0.492309 -0.665
-0.000336505 0.148363 -0.708333
-0.868434 0.540302 0.705
-0.00067136 0.149731 0.688333
-0.735381 0.881215 0.05
1.41555e-05 1.06268 -0.621667
0.00010519 1.26783 0.721667
0.774669 0.150243 -0.00999999
0.849062 0.492332 -0.665
0.868466 0.540427 0.705
0.735363 0.881231 0.05
-0.896768 0.448654 -1.35
-0.85034 0.516305 0.02
-0.887296 0.578681 1.39
-0.000169504 0.141382 -1.40667
-0.000503932 0.128037 -0.00999999
-0.000840427 0.266503 1.38667
-1.50502e-06 0.405 -2.25485
-0.000504747 0.617077 2.24759
6.82442e-06 0.875686 -1.29333
5.96729e-05 1.28605 0.05
5.25952e-05 1.07126 1.39333
0.896769 0.448666 -1.35
0.850367 0.516379 0.02
0.887233 0.57876 1.39
-1.0889 0.140426 -2.10235
-0.719296 -0.018619 -2.12736
-0.722802 0.100138 -2.64795
-1.05019 0.277354 2.07706
-0.715759 0.111082 2.07893
-0.702269 0.319205 2.63018
-1.08017 0.690355 -1.97294
-0.716097 0.641344 -2.51582
-0.715232 1.17754 -1.90592
-0.97308 0.941283 2.06765
-0.644172 0.975876 2.61805
-0.66848 1.483 2.09919
0.727946 -0.0186151 -2.12736
0.717986 0.100143 -2.64795
1.08822 0.140441 -2.10235
0.694848 0.111088 2.07893
0.677757 0.31922 2.63018
1.05355 0.277383 2.07706
0.710889 0.641351 -2.51582
0.722887 1.17757 -1.90592
1.07903 0.690377 -1.97294
0.619766 0.975938 2.61805
0.633426 1.48308 2.09919
0.976908 0.94139 2.06765
-1.12411 0.156876 -0.710184
-0.748757 -0.0205933 -0.727159
-1.14679 0.160466 0.684384
-0.7845 -0.0215887 0.678599
-1.11748 0.839676 -0.625617
-0.743192 1.3392 -0.568675
-1.08254 0.920533 0.719816
-0.730266 1.44693 0.761829
0.758503 -0.0205906 -0.727159
1.1249 0.156907 -0.710184
0.78013 -0.0215865 0.678599
1.15084 0.160513 0.684384
0.74003 1.33926 -0.568675
1.11741 0.839765 -0.625617
0.707663 1.44711 0.761829
1.08614 0.920797 0.719816
-1.46003 -0.221039 -2.69269
-1.45759 -0.0976009 -3.21526
-1.09213 -0.249148 -3.2424
-1.4756 -0.187677 -1.44568
-1.46094 -0.0272885 -2.1222
-1.09133 -0.186334 -2.14721
-1.49652 -0.184592 -0.0422682
-1.4913 -0.0105733 -0.729346
-1.11595 -0.188042 -0.746321
-1.47538 -0.137029 1.3616
-1.50126 -0.00774213 0.671278
-1.13897 -0.189797 0.665493
-1.43805 -0.0537668 2.61127
-1.4267 0.0849534 2.0651
-1.09227 -0.0813178 2.06696
-1.43252 0.0109542 3.70757
-1.41588 0.156166 3.16512
-1.07759 -0.0115666 3.16547
-1.42936 0.213293 4.2582
-1.08425 0.0427682 4.25599
-1.4585 0.0961495 -2.64478
-1.45504 0.347695 -3.13154
-1.0924 0.055861 -3.19038
-1.47663 0.149815 -1.40587
-1.45643 0.425781 -2.04029
-1.49604 0.166276 -0.0158005
-1.48835 0.504243 -0.670801
-1.45257 0.214241 1.37478
-1.47201 0.540697 0.6992
-1.40453 0.294886 2.61895
-1.37376 0.601576 2.06971
-1.41272 0.358505 3.71574
-1.38509 0.670248 3.17046
-1.05661 0.336738 3.17207
-1.41518 0.730798 4.26871
-1.07419 0.390017 4.26446
-1.45297 0.677327 -2.52705
-1.45404 1.12607 -3.00581
-1.08889 0.628315 -3.06993
-1.46814 0.780209 -1.30522
-1.45494 1.21005 -1.91745
-1.46432 0.878663 0.0441995
-1.47439 1.34592 -0.57479
-1.3932 0.928032 1.39413
-1.45085 1.43664 0.760238
-1.35432 0.976937 2.62122
-1.3865 1.48384 2.10369
-1.38755 1.04254 3.72342
-1.3967 1.54021 3.19738
-1.02542 1.01153 3.17162
-1.42139 1.59858 4.29701
-1.06234 1.07583 4.27458
-1.45602 1.6588 -2.39621
-1.08918 1.60572 -2.93514
-1.46119 1.77577 -1.18702
-1.09001 1.69724 -1.85044
-1.46092 1.90389 0.141248
-1.1001 1.84544 -0.517848
-1.44415 1.99244 1.4698
-1.09857 1.96303 0.80225
-1.42887 2.0471 2.67985
-1.0819 2.02555 2.13523
-1.43053 2.09625 3.77097
-1.07758 2.07034 3.22076
-1.08567 2.12275 4.31799
-0.723433 -0.214443 -2.69692
-0.726939 -0.0956865 -3.21751
0.00132405 -0.246641 -3.24412
-0.731675 -0.186699 -1.44785
0.00865176 -0.182234 -2.14972
-0.758399 -0.193248 -0.0385604
0.0100818 -0.191155 -0.745985
-0.755856 -0.134086 1.37086
-0.0036988 -0.195331 0.668864
-0.73181 -0.0391176 2.62116
-0.0199014 -0.0728296 2.07286
-0.729323 0.0202475 3.71389
-0.71832 0.169005 3.17242
-0.0234697 -0.0053856 3.16947
-0.729079 0.219493 4.26226
-0.0294685 0.0459162 4.25831
-0.726254 0.336481 -3.12877
-0.00481375 0.0552811 -3.19091
-0.718076 0.36825 3.72079
-0.696935 0.67802 3.17323
-0.0235023 0.343425 3.17537
-0.721349 0.735051 4.27034
-0.0306833 0.393113 4.26621
-0.724027 1.10797 -2.99925
-0.00520764 0.617694 -3.06663
-0.700208 1.04482 3.72278
-0.706304 1.54166 3.195
-0.0244067 1.01266 3.17109
-0.726627 1.6 4.29555
-0.03277 1.07704 4.27447
-0.723162 1.64417 -2.38936
0.00563304 1.59827 -2.93187
-0.72891 1.76692 -1.18126
0.00765519 1.69011 -1.84685
-0.737747 1.90458 0.143154
-0.00317577 1.84379 -0.515682
-0.736322 1.99614 1.46768
-0.0227087 1.96546 0.80199
-0.730612 2.04879 2.67614
-0.0350548 2.02693 2.13337
-0.732723 2.09684 3.76777
-0.0370489 2.07074 3.21891
-0.0398407 2.12303 4.31664
0.733409 -0.214432 -2.69692
0.723449 -0.0956732 -3.21751
1.0952 -0.249121 -3.2424
0.750408 -0.18669 -1.44785
1.1053 -0.186313 -2.14721
0.764782 -0.193238 -0.0385604
1.13311 -0.188012 -0.746321
0.732256 -0.134075 1.37086
1.13759 -0.18976 0.665493
0.688439 -0.0390976 2.62116
1.06593 -0.081285 2.06696
0.676385 0.0202831 3.71389
0.671348 0.169035 3.17242
1.03854 -0.0115162 3.16547
0.668927 0.219537 4.26226
1.03032 0.0428349 4.25599
0.716232 0.336494 -3.12877
1.0844 0.0558846 -3.19038
0.66389 0.368288 3.72079
0.649026 0.678064 3.17323
1.02021 0.336792 3.17207
0.657896 0.735103 4.27034
1.01873 0.390088 4.26446
0.724452 1.108 -2.99925
1.07979 0.628344 -3.06993
0.643032 1.04488 3.72278
0.644849 1.54174 3.195
0.986655 1.01162 3.17162
0.654016 1.60007 4.29555
1.00248 1.07592 4.27458
0.73645 1.64421 -2.38936
1.09917 1.60579 -2.93513
0.733389 1.76698 -1.18126
1.1029 1.69732 -1.85044
0.711862 1.90468 0.143154
1.0938 1.84556 -0.517848
0.678559 1.99625 1.46768
1.05824 1.96319 0.80225
0.658509 2.04888 2.67614
1.01884 2.0257 2.13523
0.655833 2.09693 3.76777
1.00837 2.07047 3.22076
1.00918 2.12287 4.31799
1.4671 -0.221002 -2.69269
1.45616 -0.0975631 -3.21526
1.48801 -0.187634 -1.44568
1.46557 -0.0272562 -2.1222
1.50592 -0.184533 -0.0422683
1.49951 -0.0105143 -0.729346
1.47126 -0.13697 1.3616
1.5083 -0.00766061 0.671278
1.41604 -0.0537035 2.61127
1.42463 0.0850095 2.0651
1.39248 0.0110356 3.70757
1.3874 0.156241 3.16512
1.38013 0.213387 4.2582
1.45463 0.0961827 -2.64478
1.44797 0.347734 -3.13154
1.47708 0.149864 -1.40587
1.45461 0.425819 -2.04029
1.50189 0.166358 -0.0158006
1.48939 0.50434 -0.670801
1.46167 0.214318 1.37478
1.48022 0.540883 0.699199
1.396 0.294954 2.61895
1.38196 0.601679 2.06971
1.37504 0.358592 3.71574
1.35783 0.670348 3.17046
1.36331 0.730907 4.26871
1.44794 0.677371 -2.52705
1.45451 1.12613 -3.00581
1.46692 0.780295 -1.30522
1.45904 1.21013 -1.91745
[...]
POINT_DATA 29498
VECTORS point_vectors float
-3.16738 -7.81342 10.266
0.144466 0.617434 2.17551
-2.26602 2.45414 5.44597
-0.116864 -0.161251 0.552237
3.17529 -7.8004 10.246
-0.135385 0.61663 2.2105
2.23618 2.43778 5.39193
0.116545 -0.160371 0.550277
-0.000758709 0.00154962 0.0365439
0.0343322 -0.00086604 0.200882
0 0 0
0 0 0
0 0 0
-0.0439567 0.000796299 0.261462
0 0 0
0 0 0
-0.52645 -0.274638 19.8304
-1.24808 -0.808043 20.4242
-0.34025 -0.412735 21.3382
0.219669 -0.140727 21.4447
0.796313 0.137925 21.264
1.00406 0.133921 20.9205
0.832237 0.0229178 20.611
-0.671032 -0.2139 19.734
-1.77011 -0.68758 20.3763
-0.496345 -0.529213 21.4038
0.151069 -0.333597 21.5373
1.02468 -0.119667 21.297
1.16269 -0.136837 20.971
0.896296 -0.150448 20.923
-0.818477 0.0837756 19.6161
-2.12678 0.210811 20.4092
-1.14198 -0.36811 21.3597
-0.270481 -0.412402 21.6434
0.597102 -0.692802 21.3568
0.786614 -0.696165 21.0294
0.557992 -0.535755 20.4725
-0.554656 0.410391 19.9216
-0.907522 0.664964 20.3985
-0.816927 0.41089 21.0931
-0.273856 -0.0129359 21.3757
0.0830172 -0.310366 21.1994
0.189625 -0.373396 20.974
0.165156 -0.337951 20.6674
-0.497018 -0.603892 19.3457
-1.61818 -3.25474 20.5813
-0.196649 -0.255955 21.4134
0.384715 0.289442 21.0165
0.879602 1.31724 19.002
1.17841 1.49133 18.3946
0.949448 0.917802 18.2659
-0.669973 -0.492736 19.0291
1.5583 1.39314 10.3788
1.60603 0.742799 13.2368
-0.944591 0.186786 18.5979
0.739697 -0.827331 9.98649
0.709526 -0.742401 14.9661
-0.48952 0.793254 19.5281
-0.940173 1.6075 20.1938
-1.05671 1.38507 21.182
-0.275993 0.156881 21.6792
0.0259225 -0.38368 21.2535
0.0879666 -0.495844 20.961
-0.00411195 -0.373123 20.4639
0.500153 -0.591459 19.3618
1.65256 -3.19996 20.5714
0.192477 -0.252251 21.4129
-0.376255 0.310803 20.993
-0.814632 1.33918 18.9581
-1.07447 1.52652 18.2324
-0.926855 1.07173 18.049
0.665505 -0.49814 19.018
-1.41104 1.41864 9.48009
-1.67478 0.972838 11.7888
0.934097 0.190537 18.5802
-0.631245 -0.8035 8.35561
-0.621327 -0.733544 13.322
0.49303 0.787687 19.534
0.956392 1.58664 20.2004
1.05307 1.39284 21.1828
0.278873 0.171136 21.6979
-0.0147243 -0.378267 21.2652
-0.065461 -0.501496 20.8979
-0.0399833 -0.369416 20.6257
0.527463 -0.272869 19.8299
1.23444 -0.789164 20.4307
0.358692 -0.409635 21.3323
-0.214656 -0.142866 21.437
-0.799507 0.146598 21.2706
-1.03677 0.168801 20.8863
-0.841254 0.060448 20.7454
0.674478 -0.213033 19.7244
1.77457 -0.690729 20.3748
0.499237 -0.52851 21.4024
-0.151182 -0.330346 21.5224
-1.00939 -0.125598 21.2968
-1.19235 -0.118973 20.9725
-0.952174 -0.165714 20.8812
0.81848 0.0880565 19.6077
2.13148 0.212635 20.4063
1.14097 -0.367254 21.36
0.266423 -0.409199 21.6372
-0.589331 -0.681782 21.3576
-0.809214 -0.728057 20.9991
-0.637347 -0.613689 20.2982
0.551671 0.406589 19.9287
0.903171 0.655747 20.4021
0.820492 0.416106 21.0954
0.278962 -0.00895601 21.3877
-0.0699757 -0.328897 21.1935
-0.174157 -0.387896 20.933
-0.109209 -0.311967 20.6662
-1.22838 0.0608569 1.12397
-0.000192829 -0.0213704 0.115421
-0.00740066 0.00216496 0.106567
0.0319913 -0.114328 0.163306
-0.000198321 0.00163133 0.0076128
0.00131623 0.00129831 0.0156127
5.61146e-05 0.202719 0.384309
-0.349987 -0.0383493 0.933813
-0.00449546 0.254362 -0.317839
0.0299794 0.00466242 0.213502
1.2388 0.0615355 1.13461
0.00814002 0.0023218 0.11583
-0.0328082 -0.116316 0.165536
-0.00523408 0.00437826 0.056475
0.347861 -0.0388765 0.926991
-0.0298765 0.00467782 0.212811
0.0152181 -0.00245504 0.204999
5.96536e-05 -0.000101694 0.00402139
0 0 0
-0.000595597 0.00114675 0.00879362
1.58452e-05 5.13803e-05 0.00585949
0 0 0
2.58148e-05 0.0450222 0.102155
2.58152e-06 -0.00899884 0.0550463
-0.0073611 -0.00172852 0.103654
-5.88655e-05 -0.000102979 0.00397236
0.000574238 0.00108173 0.00850477
0 0 0
-1.48556e-05 -3.94229e-05 0.000765328
2.59992e-05 0.00211093 0.0164352
8.84054e-05 0.000117031 0.00203906
-1.41062e-07 -9.77962e-08 -3.03682e-05
0.000313933 -0.00242578 0.0593382
0 0 0
-0.00123244 -0.289749 0.383564
-0.00129869 -0.020539 -0.0117076
1.9403e-06 0.0018375 0.021793
2.81204e-05 0.00824293 0.0912407
-1.11719e-05 0.00370135 -0.0117101
1.57064e-05 -4.08698e-05 0.000811234
-2.2799e-05 0.00178656 0.0140086
-0.00122695 0.00243714 0.037306
-3.48538 -1.90614 20.1166
-2.52518 -5.42172 20.7016
-1.8591 -1.57981 17.9177
1.48608 0.371171 17.1541
0.705115 1.40737 13.0856
0.9273 1.13144 7.38579
-4.2902 1.03939 20.1856
-2.90446 1.28272 16.7511
-2.11848 2.87239 20.0323
0.89185 -0.570135 16.6308
-0.166385 -0.558335 5.34816
0.074574 -0.675009 20.2849
2.58668 -5.30635 20.6754
1.86236 -1.59015 17.8972
3.51092 -1.92657 20.1151
-0.658806 1.38637 12.8164
-0.83536 1.09531 7.02003
-1.47732 0.354898 17.2713
2.90373 1.29859 16.7168
2.12781 2.84039 20.0397
4.3103 1.05922 20.1891
0.276934 -0.525395 4.64877
-0.0726153 -0.670579 20.1856
-0.89446 -0.578519 16.7882
-0.0395097 -0.639582 20.1526
-0.173608 0.128243 16.1765
0.318396 -0.359521 19.8079
0.766686 0.173974 16.2065
-1.92588 -1.04986 21.0171
-2.84262 2.01639 21.1447
-0.350249 -0.405996 19.7277
-0.518549 0.0449919 21.9361
0.172306 0.131464 16.2415
0.0426552 -0.641344 20.1654
-0.767698 0.202283 16.1416
-0.327229 -0.364948 19.9005
2.84844 2.03283 21.1415
1.92636 -1.04912 21.0189
0.470425 0.0491597 21.7088
0.360965 -0.418529 19.7926
-0.911053 -0.526553 19.942
-0.60463 -0.25335 19.7905
-0.550989 -0.424489 19.6046
-0.822135 -0.672211 21.174
-1.48686 -0.77245 20.4015
-1.65031 -1.67662 20.4231
-0.0450128 -0.262222 21.3968
-0.432158 -0.484184 21.3649
-0.173118 -0.45489 21.538
0.532262 0.00929212 21.4578
0.188137 -0.244749 21.4681
0.383821 -0.0703592 21.5932
0.923718 0.18462 21.1321
0.923015 0.0259628 21.3187
1.12811 0.59826 20.7869
0.979663 0.0888751 20.7697
1.10599 -0.0211736 21.0441
1.38812 0.595829 20.5665
0.895954 -0.0727142 20.7506
0.932803 0.330597 21.3669
-1.2045 -0.418953 19.7935
-0.762995 -0.0971895 19.6459
-0.741972 -0.376446 19.4184
-1.15931 -0.679026 21.3206
-2.11187 -0.318038 20.3886
-0.157697 -0.433924 21.4452
-0.787864 -0.555386 21.3944
0.589327 -0.225654 21.5721
-0.0463229 -0.453264 21.6323
1.1459 -0.0995036 21.0891
0.952436 -0.489345 21.2509
1.26494 -0.266105 20.5606
1.07603 -0.507435 21.0329
1.73246 0.238824 18.0462
0.821775 -0.552993 20.4956
1.30179 -0.0789833 18.9357
-1.52323 0.173417 19.7056
-0.738668 0.328493 19.7384
-0.955242 0.110977 19.1899
-1.61925 -0.125399 21.2097
-1.47308 0.658029 20.3769
-0.725904 -0.42968 21.5579
-1.1606 0.181314 21.2133
0.240539 -0.51377 21.6244
-0.343305 -0.160204 21.5352
0.704266 -0.73893 21.1809
0.22042 -0.49339 21.2565
0.732644 -0.592359 20.8465
0.343835 -0.552352 20.8927
0.932467 -0.912557 19.6718
0.22564 -0.427754 20.7776
0.829852 -0.991261 19.4016
-0.757661 0.57146 20.0878
-0.588736 0.600415 19.7283
-0.913353 0.565493 20.7813
-1.01537 1.09167 20.3048
-0.561622 0.199952 21.3424
-1.00323 0.790881 21.1569
-0.0509662 -0.194446 21.262
-0.300623 0.0590988 21.5067
0.147926 -0.392223 21.0361
0.0533435 -0.369386 21.2228
0.135815 -0.338462 20.8505
0.151749 -0.465572 20.849
0.0303342 -0.345295 20.754
-1.07747 -1.53601 19.0891
-0.593534 -0.549482 19.1601
-0.00117398 -0.774291 19.0932
-0.536964 -1.13024 22.2288
0.0141367 -4.46643 21.1873
0.0376497 -0.0324079 21.0659
0.00344775 -0.459923 20.276
0.75086 1.00921 19.9959
0.00203386 0.29312 19.2914
1.03814 1.4511 18.972
0.00727589 1.03813 15.9346
1.0866 1.29169 18.8095
1.45724 1.66595 15.2955
0.0164411 1.42277 15.8168
1.26772 0.954944 15.4642
0.0926154 1.79337 17.1197
-0.861742 -0.206414 18.6748
-0.00649127 -0.685283 18.5303
1.83317 0.997318 11.707
1.51968 -0.100647 7.02336
0.021179 0.778087 3.7243
1.49085 0.220996 12.5585
0.100854 1.63979 8.25407
-0.751928 0.749023 19.016
-0.00826386 0.311188 17.8675
0.789289 -0.798208 12.4379
0.187709 -0.880849 20.5228
0.11706 0.673567 -4.57481
0.0293616 -0.744779 20.3315
-0.00211783 -0.422064 1.174
-0.758356 1.31362 19.6978
0.00428219 1.02009 19.3182
-1.00907 1.49862 20.678
0.011641 2.17081 20.0764
-0.705729 0.819065 21.7068
-0.00550091 2.3608 21.1095
-0.0602685 -0.211209 21.4789
-0.0156885 0.334252 21.8577
0.0684909 -0.45382 21.0989
-0.0047836 -0.341623 21.3385
0.0595369 -0.507305 20.7988
0.0074808 -0.553653 20.8113
-0.000858594 -0.268593 20.8016
1.08136 -1.51103 19.122
0.592867 -0.54847 19.1619
0.555845 -0.419994 19.6165
0.551881 -1.1266 22.1899
1.65174 -1.63498 20.4251
-0.0371449 -0.0301456 21.0794
0.187388 -0.463165 21.532
-0.721884 1.01828 19.7049
-0.386717 -0.0639446 21.5949
-0.924378 1.49084 18.5303
-1.13593 0.642883 20.6868
-1.04057 1.39125 18.5352
-1.35415 1.68619 15.0358
-1.44119 0.688872 20.5079
-1.24138 1.11259 15.2389
-0.975886 0.417904 20.9604
0.853686 -0.203471 18.6571
0.748096 -0.3876 19.407
-1.88085 1.14455 10.5593
-1.35512 -0.0124339 5.87149
-1.76361 0.365993 17.5482
-1.40172 0.229995 10.9661
-1.34093 0.00866003 18.2357
0.751977 0.749875 19.0168
0.955096 0.11134 19.1789
-0.742042 -0.811827 10.7399
-0.15783 -0.851482 20.5372
-0.992983 -0.910008 18.7999
-0.0215394 -0.764274 20.2903
-0.817961 -1.02676 19.3432
0.767494 1.30097 19.7061
0.59053 0.592072 19.7343
1.01157 1.49106 20.6796
1.01708 1.07554 20.3093
0.702949 0.84826 21.721
1.00689 0.798153 21.1576
0.066652 -0.209169 21.481
0.307094 0.0694 21.5229
-0.0553669 -0.452216 21.0842
-0.0479764 -0.375518 21.2308
-0.0745455 -0.51259 20.8809
-0.153143 -0.482999 20.8653
-0.0228158 -0.340234 20.7126
0.906023 -0.517434 19.9403
0.609719 -0.252685 19.7875
0.830839 -0.655175 21.1634
1.48014 -0.763434 20.4082
0.056023 -0.267412 21.3948
0.43942 -0.484011 21.3613
-0.531368 0.00445599 21.4503
-0.188151 -0.246798 21.4531
-0.941226 0.202244 21.1314
-0.92187 0.0247984 21.3165
-1.03945 0.104306 20.6832
-1.13699 -0.00178268 21.0421
-0.906462 -0.0356227 20.8895
1.21232 -0.42164 19.7833
0.764295 -0.0980926 19.6369
1.16069 -0.679448 21.3176
2.11809 -0.319453 20.3886
0.15766 -0.430189 21.4385
0.78488 -0.555186 21.3948
-0.584854 -0.223564 21.5618
0.0436874 -0.448935 21.6225
-1.1556 -0.0988858 21.0841
-0.937366 -0.48478 21.2531
-1.35093 -0.241868 20.3681
-1.1052 -0.526724 21.0139
-0.899247 -0.626552 20.3285
1.53001 0.175894 19.6962
0.740521 0.325608 19.7404
1.62053 -0.1249 21.2101
1.47014 0.652438 20.3787
0.720962 -0.426803 21.5557
1.16596 0.183551 21.2161
-0.239267 -0.511091 21.6167
0.35011 -0.160295 21.5482
-0.702529 -0.749108 21.1837
-0.216119 -0.500134 21.2618
-0.734247 -0.627153 20.7947
-0.33147 -0.572313 20.9318
-0.204608 -0.438578 20.7858
0.754244 0.564363 20.094
0.911317 0.563913 20.7834
0.569842 0.209817 21.3526
0.0576896 -0.198479 21.283
-0.1369 -0.391315 21.0431
-0.083258 -0.316569 20.849
-1.05531 -0.506279 19.8782
-1.46539 -1.67795 18.5907
-1.09278 -0.927118 19.6041
-1.6661 -0.874787 19.1308
-0.664673 -0.40553 19.4925
-2.42273 -1.95845 20.3064
-0.994703 -0.682907 21.2379
-0.339819 -0.494527 18.6541
-0.780086 -1.06411 21.5916
-1.26576 -1.4227 21.7775
-0.0997201 -0.541007 21.4686
-0.0982722 -0.363353 21.4137
0.16263 0.0868493 15.7517
0.100483 -0.25198 21.5322
0.156941 -0.441601 19.8377
0.444131 -0.215583 21.1867
0.567444 -0.110929 21.5107
0.961385 1.12122 13.1903
0.843748 0.290407 21.3821
0.962267 -0.123547 17.8321
1.3992 0.519943 19.6067
1.08365 0.0580761 21.0753
1.03453 1.56845 14.1947
1.28093 0.65464 20.6458
1.63943 0.29644 17.8077
1.54422 0.489541 19.3769
1.16681 -0.0780573 20.5517
1.51487 1.16926 14.7491
1.35225 0.623158 20.5781
1.63483 0.136444 18.2423
1.0649 0.209232 19.7396
-1.45289 -0.188499 19.6972
-2.68876 -0.518933 16.846
-2.27938 0.456027 18.8261
-0.90315 -0.140457 19.2173
-4.81895 -0.543422 20.0105
-1.47144 -0.477464 21.3316
-2.58189 -0.300462 21.6788
-0.508759 -1.1625 19.8618
-0.391111 -0.541783 21.5191
-1.15557 -0.917275 20.3241
0.0216877 -0.309286 18.2374
0.459201 -0.446066 21.6025
0.573649 -0.181602 18.1191
1.33942 -0.111389 14.2831
1.08044 -0.523881 21.0526
0.454195 -0.255434 3.19674
0.821755 -0.85022 18.3539
1.6302 -0.469015 17.1043
0.906214 -0.500142 21.0979
1.58343 0.0146291 9.5579
0.892506 -1.02663 19.8689
1.2278 -0.550487 18.2379
-1.16195 0.55548 19.8957
-1.52908 1.89504 18.8262
-0.841109 0.913827 19.8937
-0.802695 0.49622 19.4215
-1.99142 1.42424 20.2343
-1.36526 0.418001 20.9006
-2.13519 1.95328 20.7455
-1.05936 0.957651 20.7539
-1.89297 0.579588 21.3225
-0.794635 -0.000941428 21.4854
-1.97564 0.962072 22.3558
-0.679931 0.450053 21.482
-0.477659 -0.0907345 21.8246
0.0229363 -0.350275 21.4542
0.100085 -0.51457 20.3266
-0.069421 -0.217573 21.3735
0.140848 -0.637405 21.321
0.313126 -0.576173 21.1171
0.110425 -0.783192 20.3724
0.106785 -0.438511 21.0649
0.304755 -0.736431 21.2119
0.394059 -0.476666 20.7223
0.111331 -0.823809 20.207
0.12363 -0.414959 20.9448
0.115954 -0.553515 20.6427
1.46676 -1.66861 18.6045
0.00749521 -2.3356 18.4919
-0.0105872 -2.75846 16.1157
-0.00400567 -0.74784 18.7756
0.000331736 -6.46385 22.9647
0.339144 -0.516354 18.9009
0.007302 -1.34696 22.3128
0.00377785 -0.061419 11.3851
-0.163695 0.0877661 15.7154
-0.0007075 -0.160911 19.4991
0.00531024 0.240748 11.5646
-0.922515 1.1216 13.0254
0.00165337 0.913289 17.4081
-0.00795144 0.677713 7.77585
-0.928332 1.61607 13.8003
0.00716305 1.20623 15.9777
-0.0295463 -0.201975 2.01628
0.00806138 1.26121 9.81409
-1.46939 1.27171 14.4677
0.0579307 1.88716 16.5253
0.0595709 0.970278 4.62537
0.0991836 1.68372 13.3877
2.69065 -0.520641 16.7994
-0.0168982 2.78364 14.0214
-0.00672581 -0.329772 18.0117
-0.317143 -0.231773 2.54988
-0.00591951 0.623695 -3.89606
0.150448 0.231543 -3.3429
-1.53508 0.184211 8.61352
0.0220084 -0.139384 -1.64581
0.108359 0.556188 2.71083
1.5313 1.88636 18.834
0.00771725 1.73674 19.4859
-0.000403805 1.038 18.5587
0.0149376 4.32919 19.8162
2.13597 1.94404 20.7495
0.00510704 2.18759 20.5155
-0.00793314 4.77684 20.2454
1.99589 1.00138 22.3422
-0.019204 1.38112 21.992
-0.0114773 0.287821 20.5256
-0.106415 -0.527594 20.2258
-0.0111725 -0.166924 21.4918
-0.00492985 -0.356694 16.428
-0.0922008 -0.767929 20.1852
0.000720503 -0.437897 21.0376
0.00628905 -0.68438 18.6382
-0.0859447 -0.832972 20.1023
-0.0125122 -0.392686 20.9896
-0.00507842 -0.52062 19.0557
1.06327 -0.500777 19.8743
1.09629 -0.919006 19.6149
1.67493 -0.887142 19.1127
0.67064 -0.412717 19.4901
2.40801 -1.92823 20.3116
0.994767 -0.680514 21.2297
0.797274 -1.05404 21.572
1.27131 -1.42254 21.7744
0.118348 -0.554663 21.5266
0.102251 -0.367368 21.4083
-0.0932539 -0.256261 21.5329
-0.155026 -0.448209 19.8915
-0.445766 -0.212973 21.1873
-0.562222 -0.11558 21.4966
-0.852429 0.316285 21.3412
-0.959687 -0.127643 17.9391
-1.40044 0.545757 19.4281
-1.09627 0.0620116 21.0675
-1.29189 0.706245 20.5847
-1.63413 0.338143 17.314
-1.57428 0.618257 18.8511
-1.26109 -0.0617193 20.3742
-1.34561 0.706652 20.7195
-1.59649 0.202152 18.1158
-1.10464 0.300734 19.0585
1.46063 -0.189633 19.6891
2.28638 0.461162 18.8079
0.903872 -0.140858 19.2077
4.83935 -0.5434 20.0045
1.47316 -0.477953 21.3299
2.58378 -0.301686 21.6785
0.509897 -1.16338 19.8812
0.387092 -0.537929 21.5186
1.15404 -0.91524 20.3463
-0.0259878 -0.335117 18.375
-0.454449 -0.440121 21.599
-0.56097 -0.216922 18.3095
-1.34405 -0.0961725 14.6406
-1.08636 -0.529865 21.0414
-0.818718 -0.83193 17.9226
-1.69731 -0.475238 16.2211
-0.91966 -0.498317 21.0965
-0.907625 -1.02945 19.5612
-1.26897 -0.457169 17.5111
1.16153 0.552978 19.8992
0.842789 0.902268 19.8991
0.80376 0.497823 19.4248
1.9858 1.40406 20.2403
1.36715 0.417508 20.902
1.05939 0.952286 20.755
1.90161 0.583818 21.3252
0.804923 0.000814403 21.4937
0.685099 0.470136 21.4964
0.485091 -0.0885324 21.8467
-0.0204429 -0.355698 21.4633
0.0734719 -0.214841 21.3895
-0.127429 -0.649265 21.3137
-0.305632 -0.585364 21.1123
-0.0980917 -0.451684 21.0804
-0.3059 -0.758842 21.1788
-0.4151 -0.489425 20.7372
-0.118301 -0.439378 20.923
-0.0954668 -0.595835 20.5725
-1.40033 -0.962298 19.3582
-0.924162 -1.24842 21.8403
0.165176 -0.345884 21.2295
1.06145 0.148437 20.306
1.5571 0.583798 19.4038
1.50659 0.393678 19.5217
-2.23101 -0.312962 18.7655
-1.88087 -1.00517 21.5821
-0.122217 -0.837353 18.8172
0.591307 -0.00277733 16.7954
1.43378 -0.358345 15.8044
1.30607 -0.315971 17.216
-1.47852 1.05589 19.473
-1.87694 0.927146 20.9293
-1.28352 0.240872 21.8339
-0.0248488 -0.424284 21.6183
0.234574 -0.694433 21.1648
0.335475 -0.780055 20.8962
0.00116365 -2.71859 17.5374
0.00999357 -0.489301 14.3497
0.00121896 -0.0479992 11.3249
0.000291285 0.744791 8.41757
-0.00946319 0.714693 8.65407
0.0627404 1.36955 10.5099
-0.0140908 -0.743693 13.8286
0.0168315 -0.0272927 -3.13169
0.116516 0.769155 0.442691
0.0048354 2.92175 18.1078
0.00424624 3.33569 20.3115
-0.0225285 2.63129 22.2653
-0.000895077 -0.323942 17.6393
-0.00362672 -0.458166 17.7349
-0.0137871 -0.673809 18.5415
1.40254 -0.963307 19.3624
0.949222 -1.24061 21.8231
-0.158104 -0.352801 21.259
-1.06637 0.158051 20.2449
-1.55591 0.647414 19.0821
-1.46885 0.452521 19.4445
2.24023 -0.31675 18.7443
1.8807 -1.00518 21.5815
0.125622 -0.84427 18.8911
-0.593614 -0.0269456 16.9536
-1.42915 -0.338163 15.2332
-1.33499 -0.304596 16.2687
1.47749 1.05011 19.4813
1.87512 0.925011 20.9317
1.30145 0.250989 21.8492
0.0283724 -0.432685 21.6312
-0.216654 -0.714859 21.1655
-0.285106 -0.81244 20.9044
-1.05523 -0.447246 0.870852
0.0377013 -0.0525576 0.390599
-0.0055418 -0.00150374 0.130556
0.0639151 -0.0239709 0.120893
-0.000184779 0.0179003 0.091032
-0.0244111 0.0238769 0.254163
-0.197474 0.0265674 0.250273
-0.0203303 0.115511 0.257796
-0.5035 0.0679448 1.66013
-0.0438633 -0.0166094 -0.0131293
-0.0845932 0.0343159 -0.0841807
-0.0151709 -0.0276798 0.274988
-0.0352123 -0.0529344 0.392005
1.05719 -0.44745 0.872802
0.00479532 -0.00132924 0.113024
1.26508e-05 0.0108316 0.0579195
-0.0601181 -0.0229823 0.114421
0.0201208 0.0202031 0.217867
0.028158 0.130304 0.297816
0.0501169 0.0069399 0.0640264
0.501578 0.0682379 1.65319
0.0815273 0.0361127 -0.0871868
0.0421985 -0.016104 -0.0125902
0.0148422 -0.0270809 0.271331
-0.00871259 0.000877537 0.107172
-0.000589612 -0.00261944 0.205245
0.000317762 0.000300896 0.010932
0 0 0
0.0185919 0.0713367 0.381146
0.0555543 -0.0067997 0.465204
0 0 0
0 0 0
-0.150755 -0.119523 0.493432
-0.0215672 -0.0511126 0.442994
0 0 0
-0.0152599 0.0104945 0.0305992
0 0 0
0.0490692 0.10484 0.38762
0 0 0
0.0316289 -0.0159919 0.180654
0.015698 -0.00275046 0.19238
0 0 0
0.000314149 -0.000528857 0.0368797
-0.00032911 0.0003108 0.0113737
-0.0015202 0.016207 0.0628413
0 0 0
-0.0556419 -0.00581905 0.447223
0 0 0
0.14856 -0.118082 0.48656
0.0156781 0.0107731 0.0315513
0.0216593 -0.0512517 0.442672
0 0 0
0 0 0
-0.0314992 -0.0159847 0.180609
-0.0488735 0.103417 0.384031
0 0 0
-0.0197448 -0.0145178 0.1785
-0.522737 0.146 0.193166
-2.56175e-07 -1.18645e-05 0.000567751
0 0 0
0 0 0
0.000135508 1.84206e-05 0.00860613
0.00988288 -0.000519789 0.0479771
-0.022914 -0.00492629 0.00187447
8.89567e-06 -0.00830103 0.0979374
0 0 0
0 0 0
0 0 0
0 0 0
3.92691e-06 0.00266859 0.014875
-0.000158244 -0.00108222 0.00931844
-0.0690205 0.0283826 0.268141
-0.000279293 0.00480197 -0.00250927
0 0 0
0.0413123 0.0207088 0.438513
0 0 0
0.526442 0.146484 0.194547
0.019801 -0.0146333 0.179226
-0.000152405 2.06934e-05 0.00912626
4.02325e-06 2.18747e-06 0.000327381
0.0235464 -0.00509712 0.00180407
-0.0092041 -0.000524233 0.0448656
0 0 0
0 0 0
0.0682505 0.0281267 0.265589
0.000201794 -0.00141715 0.0121553
0 0 0
-0.0407142 0.0186959 0.419491
0 0 0
0.00122198 -0.000712522 0.0243047
0.00244155 -0.0029194 0.0375101
1.06579e-05 0.000251507 0.00317733
7.37344e-05 -0.000257943 0.0127813
0.000378561 -0.0087442 0.17738
-2.97148e-05 0.00300214 0.0193292
-0.00546872 0.00612609 0.310737
-5.29104e-06 5.48699e-05 0.00659815
0 0 0
0.0278718 0.0721468 0.294842
-0.0527113 0.0683772 0.808831
0 0 0
0.00153896 0.159286 0.411639
-4.71185e-05 -0.000158438 0.00663884
5.7041e-06 0.000424893 0.00136673
-0.00118294 -0.000731248 0.0250389
0 0 0
-0.00244004 -0.002942 0.0374646
-5.64915e-06 0.000135053 0.00172218
2.78962e-05 0.00293385 0.0190879
0.00308694 0.00489334 0.272624
0.053262 0.0677641 0.809922
-0.0275886 0.0714638 0.293678
-0.0710118 -0.0349056 0.348937
-0.165276 -0.0585535 0.616695
-2.21358e-06 -5.51335e-07 -2.94178e-05
0.0218932 -0.0727511 0.366241
0 0 0
0.0102723 0.0236112 0.175422
0 0 0
0.0374901 0.118967 0.392376
0.000658386 -0.000666923 0.0386865
0.0285824 0.0410982 0.258151