# vtk DataFile Version 2.0
tri_press
ASCII
DATASET UNSTRUCTURED_GRID
POINTS 3682 float
-0.68313 0.105 -2.275
-0.67099 0.295 2.285
-0.701161 0.775 -2.025
-0.659965 1.015 2.195
0.68313 0.105 -2.275
0.67099 0.295 2.285
0.701156 0.775 -2.025
0.659965 1.015 2.195
-0.677194 0.170222 -0.755
-0.707118 0.199586 0.765
-0.812941 0.980512 -0.618334
-0.782479 1.04378 0.788333
0.677245 0.170172 -0.755
0.707122 0.199581 0.765
0.812774 0.980349 -0.618334
0.78247 1.04377 0.788333
-1.42421 -0.360446 -3.50623
-1.41713 -0.273417 -2.33562
-1.41347 -0.213607 -0.81269
-1.41197 -0.183285 0.73305
-1.38312 -0.114856 2.2579
-1.37798 -0.0676534 3.43792
-1.38549 -0.0270979 4.60052
-1.4239 0.00587847 -3.42197
-1.4244 0.108072 -2.26374
-1.43091 0.185986 -0.762866
-1.42309 0.211185 0.748213
-1.36902 0.268731 2.25126
-1.36943 0.314461 3.42968
-1.38313 0.356313 4.59598
-1.43504 0.725423 -3.22165
-1.45837 0.826826 -2.05874
-1.5257 0.985258 -0.63512
-1.48725 1.03413 0.780468
-1.38311 1.02858 2.20626
-1.38029 1.07284 3.38936
-1.39539 1.12424 4.57393
-1.44491 1.9046 -3.00638
-1.4624 2.01256 -1.86044
-1.49796 2.15652 -0.47357
-1.50679 2.23839 0.888875
-1.48044 2.26163 2.27693
-1.45842 2.28327 3.42535
-1.44789 2.32031 4.59754
-0.707268 -0.363764 -3.51354
-0.697153 -0.274939 -2.34629
-0.689128 -0.221929 -0.811259
-0.701722 -0.190777 0.747377
-0.688611 -0.10215 2.28295
-0.683408 -0.0600703 3.45491
-0.687208 -0.0248284 4.61036
-0.702549 -0.00280589 -3.42422
-0.676633 0.3217 3.4437
-0.685807 0.357587 4.6034
-0.705814 0.700941 -3.20764
-0.682484 1.06805 3.38711
-0.695828 1.12092 4.57345
-0.704984 1.89015 -2.99252
-0.713648 2.00022 -1.84517
-0.748408 2.15527 -0.464367
-0.772637 2.24109 0.887771
-0.764185 2.25918 2.26905
-0.747719 2.27868 3.41747
-0.738277 2.31615 4.59182
0.700349 -0.363791 -3.51354
0.68827 -0.274961 -2.34629
0.692528 -0.22197 -0.811259
0.705191 -0.19079 0.747377
0.681776 -0.102155 2.28295
0.690166 -0.0600775 3.45491
0.700083 -0.0248395 4.61036
0.70209 -0.00282701 -3.42422
0.684984 0.321695 3.4437
0.696718 0.357577 4.6034
0.718727 0.700916 -3.20764
0.678612 1.06805 3.38711
0.68994 1.12091 4.57345
0.765867 1.89009 -2.99252
0.776039 2.00016 -1.84517
0.76478 2.1552 -0.464367
0.720242 2.24105 0.887771
0.680874 2.25915 2.26905
0.675398 2.27866 3.41747
0.679666 2.31613 4.59182
1.41494 -0.360515 -3.50623
1.407 -0.273491 -2.33562
1.41337 -0.213695 -0.81269
1.41851 -0.183323 0.73305
1.38864 -0.114873 2.2579
1.38934 -0.0676725 3.43792
1.39981 -0.0271235 4.60052
1.41859 0.00581339 -3.42197
1.41637 0.107997 -2.26374
1.42805 0.185877 -0.762866
1.42908 0.211152 0.748213
1.37947 0.26872 2.25126
1.38197 0.314446 3.42968
1.39516 0.356289 4.59598
1.44412 0.725348 -3.22165
1.45844 0.826728 -2.05874
1.52424 0.985077 -0.63512
1.48783 1.03408 0.780467
1.38534 1.02857 2.20626
1.3789 1.07282 3.38936
1.3906 1.12422 4.57393
1.49732 1.90449 -3.00638
1.51139 2.01244 -1.86044
1.50907 2.1564 -0.47357
1.46436 2.23831 0.888875
1.41199 2.26158 2.27693
1.39477 2.28323 3.42535
1.39342 2.32027 4.59754
-0.713102 0.44 -2.17096
0 0.100123 -2.27988
-0.661178 0.156596 -1.515
-0.699349 0.655 2.27387
0 0.339428 2.24057
-0.716826 0.219521 1.525
-2.5034e-06 0.845576 -2.09558
-0.785087 0.905792 -1.32167
0 1.07226 2.25226
-0.750718 1.05889 1.49167
0.713197 0.44 -2.17105
0.661209 0.156564 -1.515
0.699318 0.655 2.27384
0.716761 0.219586 1.525
0.78509 0.905799 -1.32167
0.750717 1.05889 1.49167
-0.691642 0.185418 0.005
-0.882374 0.575367 -0.686667
2.5226e-05 0.158421 -0.755
-0.888255 0.621684 0.776667
2.26276e-06 0.302862 0.765
-0.79815 1.01259 0.0849999
-8.3339e-05 1.25229 -0.618334
-4.36953e-06 1.461 0.788333
0.691663 0.185397 0.005
0.882361 0.57526 -0.686667
0.888251 0.621678 0.776667
0.798146 1.01259 0.0849999
-0.886358 0.507684 -1.41833
0.886358 0.50763 -1.41833
1.2613e-05 0.164106 -1.515
-4.29212e-05 1.02826 -1.32167
-1.2517e-06 0.44 -2.3574
-0.888202 0.598526 0.045
0.888194 0.598469 0.045
1.37444e-05 0.191245 0.005
-4.38543e-05 1.45095 0.0849999
-0.875526 0.638342 1.50833
0.875588 0.638339 1.50833
1.13138e-06 0.29931 1.525
-2.18477e-06 1.2479 1.49167
0 0.655 2.43029
-0.645374 0.2725 -2.17024
-0.341565 0.100126 -2.27987
-0.652834 0.150117 -1.895
-0.67999 0.475 2.27426
-0.335495 0.352041 2.22796
-0.714849 0.236319 1.905
-0.725071 0.6075 -2.11592
-0.350582 0.829643 -2.07964
-0.756229 0.853501 -1.67333
-0.680941 0.835 2.23572
-0.329982 1.06253 2.24253
-0.708711 1.04031 1.84333
0.341565 0.100119 -2.27988
0.645316 0.2725 -2.17018
0.653173 0.149778 -1.895
0.335495 0.352275 2.22772
0.679974 0.475 2.27424
0.714534 0.236634 1.905
0.350577 0.829627 -2.07963
0.725063 0.6075 -2.11591
0.756233 0.853509 -1.67333
0.329982 1.06251 2.24251
0.680929 0.835 2.23571
0.708728 1.04033 1.84333
-0.665276 0.167319 -1.135
-0.68216 0.180078 -0.375
-0.830438 0.347468 -0.720834
-0.337499 0.166492 -0.755
-0.707048 0.214477 1.145
-0.698951 0.192931 0.385
-0.883699 0.367628 0.770833
-0.354458 0.249424 0.765
-0.803021 0.947159 -0.97
-0.880791 0.794506 -0.6525
-0.803095 0.994099 -0.266667
-0.457963 1.2193 -0.618334
-0.77849 1.06323 1.14
-0.878108 0.854104 0.7825
-0.791035 1.0289 0.436667
-0.477512 1.42493 0.788333
0.665575 0.16702 -1.135
0.337564 0.166439 -0.755
0.682163 0.180075 -0.375
0.830494 0.34737 -0.720834
0.707001 0.214524 1.145
0.355389 0.247569 0.765
0.698988 0.192894 0.385
0.883702 0.367622 0.770833
0.802964 0.947106 -0.97
0.457851 1.21933 -0.618334
0.88081 0.794426 -0.6525
0.803116 0.994123 -0.266667
0.778327 1.06306 1.14
0.47754 1.425 0.788333
0.878107 0.8541 0.7825
0.791033 1.02891 0.436667
-0.876764 0.473842 -1.79465
-0.356552 0.44 -2.32594
6.30651e-06 0.166711 -1.89744
-6.25849e-07 0.270061 -2.22611
-0.888382 0.33214 -1.46667
-0.330582 0.163855 -1.515
-0.818596 0.646671 1.8911
-0.349675 0.655 2.40173
5.6569e-07 0.290239 1.88279
0 0.497214 2.34469
-0.857906 0.428931 1.51667
-0.358412 0.238967 1.525
-2.27123e-05 0.957873 -1.70862
-1.87755e-06 0.642788 -2.26296
-0.885421 0.706738 -1.37
-0.392565 1.01173 -1.32167
-1.09238e-06 1.10891 1.87196
0 0.863629 2.33128
-0.854062 0.848615 1.5
-0.37536 1.21545 1.49167
0.876762 0.473815 -1.79469
0.356598 0.44 -2.32621
0.888383 0.332097 -1.46667
0.330611 0.163795 -1.515
0.818597 0.64667 1.89109
0.349659 0.655 2.40173
0.858051 0.428963 1.51667
0.358381 0.238795 1.525
0.885411 0.706715 -1.37
0.392524 1.01187 -1.32167
0.853899 0.848613 1.5
0.375358 1.21545 1.49167
-0.829958 0.371954 0.025
-0.342469 0.195021 0.005
-0.887299 0.541525 -1.0525
-0.885768 0.586946 -0.320833
1.89195e-05 0.161095 -1.135
1.94852e-05 0.163585 -0.375
-0.888576 0.610105 0.410833
-0.888141 0.630013 1.1425
8.00358e-06 0.231783 0.385
1.69707e-06 0.290747 1.145
-0.884956 0.826446 0.0649999
-0.495177 1.42393 0.0849999
-6.31301e-05 1.06958 -0.97
-6.35966e-05 1.39413 -0.266667
-2.41119e-05 1.47224 0.436667
-3.27715e-06 1.39111 1.14
0.829955 0.37192 0.025
0.342493 0.195011 0.005
0.887293 0.541445 -1.0525
0.885759 0.586865 -0.320833
0.888572 0.610074 0.410833
0.888144 0.630009 1.1425
0.884955 0.82642 0.0649999
0.495137 1.42394 0.0849999
-0.86672 0.30232 -1.84482
-0.888172 0.352467 -1.09375
-0.880914 0.742339 -1.01125
-0.874478 0.657119 -1.73399
0.866707 0.302299 -1.84485
0.874328 0.657107 -1.73401
0.880917 0.74226 -1.01125
0.888172 0.352407 -1.09375
-0.336074 0.168291 -1.89622
0.336088 0.168291 -1.89622
0.334623 0.160982 -1.135
-0.334584 0.161084 -1.135
-0.371573 0.943285 -1.69098
-0.399539 1.04307 -0.97
0.399435 1.04307 -0.97
0.37155 0.94329 -1.69098
-0.349058 0.271281 -2.22303
-0.353567 0.625144 -2.25265
0.353587 0.625144 -2.25263
0.349081 0.271281 -2.22117
-0.828774 0.360423 -0.347917
-0.829236 0.383587 0.397917
-0.883306 0.841162 0.42375
-0.884285 0.811182 -0.29375
0.828833 0.360341 -0.347917
0.88429 0.811127 -0.29375
0.88331 0.841149 0.42375
0.829228 0.383571 0.397917
-0.343806 0.173114 -0.375
0.343834 0.173114 -0.375
0.366094 0.186985 0.385
-0.36608 0.18699 0.385
-0.495266 1.35901 -0.266667
-0.49333 1.4384 0.436667
0.493309 1.43841 0.436667
0.495186 1.35902 -0.266667
-0.871776 0.419783 1.14375
-0.803506 0.451966 1.89805
-0.809533 0.841807 1.86722
-0.874971 0.840674 1.14125
0.871773 0.419796 1.14375
0.874958 0.84067 1.14125
0.809493 0.841807 1.86721
0.803511 0.451981 1.89804
-0.355985 0.235104 1.145
0.355972 0.235038 1.145
0.346938 0.267872 1.89389
-0.346954 0.267903 1.89389
-0.383301 1.36409 1.14
-0.352671 1.09782 1.85765
0.35267 1.09783 1.85765
0.383295 1.3641 1.14
-0.342585 0.486107 2.3099
0.342577 0.486107 2.30988
0.339821 0.849314 2.33738
-0.339829 0.849314 2.33741
-0.698286 0.18875 -2.25665
-0.512348 0.100128 -2.27987
-0.653757 0.141784 -2.085
-0.680624 0.385 2.28476
-0.503242 0.340298 2.2397
-0.713429 0.24515 2.095
-0.708648 0.69125 -2.06599
-0.525871 0.803416 -2.05342
-0.735337 0.820892 -1.84917
-0.676451 0.925 2.22136
-0.494974 1.05091 2.23091
-0.686631 1.02995 2.01917
0.512348 0.100121 -2.27988
0.698205 0.18875 -2.25657
0.653197 0.142343 -2.085
0.503242 0.343998 2.236
0.680626 0.385 2.28476
0.707785 0.250794 2.095
0.525866 0.803393 -2.05339
0.708645 0.69125 -2.06599
0.735339 0.8209 -1.84917
0.494974 1.05092 2.23092
0.676427 0.925 2.22133
0.686633 1.02995 2.01917
-0.665424 0.174582 -0.945
-0.677359 0.177469 -0.565
-0.843282 0.214112 -0.737917
-0.508187 0.166677 -0.755
-0.702359 0.211755 0.955
-0.703433 0.195859 0.575
-0.870992 0.245815 0.767917
-0.527578 0.230925 0.765
-0.811818 0.967673 -0.794167
-0.842903 0.885528 -0.635417
-0.804329 0.983616 -0.4425
-0.672923 1.17485 -0.618334
-0.775691 1.04871 0.964167
-0.837842 0.952717 0.785417
-0.786201 1.03579 0.6125
-0.653531 1.28143 0.788333
0.665464 0.174542 -0.945
0.508219 0.166676 -0.755
0.67739 0.177438 -0.565
0.843274 0.214069 -0.737917
0.702333 0.211781 0.955
0.527567 0.230952 0.765
0.703436 0.195857 0.575
0.871758 0.245429 0.767917
0.811809 0.967667 -0.794167
0.672806 1.17483 -0.618334
0.842924 0.885453 -0.635417
0.804328 0.983619 -0.4425
0.775682 1.0487 0.964167
0.653363 1.2811 0.788333
0.837844 0.952715 0.785417
0.786199 1.03579 0.6125
-0.656086 0.35625 -2.14744
-0.732978 0.52375 -2.15733
-0.829885 0.456921 -1.9828
-0.534827 0.44 -2.26884
[...]
POINT_DATA 3682
SCALARS point_scalars float 1
LOOKUP_TABLE default
-155.482
-44.3937
-58.6021
-36.9602
-156.33
-44.1969
-58.5662
-36.9135
-40.5368
-38.7432
-67.9327
-49.2092
-40.5434
-38.8407
-67.8601
-49.22
-14.9135
-134.796
-47.2034
-35.1601
-46.45
-43.7572
-41.1896
-14.9135
-107.79
-41.668
-42.1944
-45.4529
-40.8144
-38.8776
26.8555
-79.2326
-53.4248
-46.491
-41.5344
-37.3046
-37.3062
-48.279
-51.4358
-94.3784
-58.6492
-37.0744
-36.8137
-35.3175
-4.27524
-181.815
-44.5493
-36.5567
-47.1101
-41.1896
-38.788
-0.977465
-37.5911
-37.8666
134.05
-36.0696
-36.8535
-26.4408
-41.6888
-78.8712
-61.0915
-34.2393
-33.3969
-33.6023
-3.87528
-185.929
-44.4119
-36.4108
-46.7358
-41.1567
-38.7702
-0.518615
-37.5809
-37.8554
131.74
-36.0059
-36.8248
-24.9689
-45.5587
-79.7693
-61.8299
-33.7384
-33.4619
-32.4404
-15.0201
-134.619
-47.2103
-35.7926
-46.2481
-43.8327
-41.1567
-15.0201
-107.574
-41.6605
-42.3023
-45.0831
-40.9115
-38.8562
22.7132
-79.2355
-53.4067
-46.4922
-41.4788
-37.268
-37.2784
-48.2414
-53.0702
-94.7407
-58.5967
-36.644
-36.7629
-35.2698
0.682481
-165.897
-57.4724
-39.3939
-44.5421
-41.6701
-45.9026
-45.8596
-32.4362
-43.8134
0.534856
-57.4834
-39.2574
-41.7187
-45.8302
-43.7962
-38.1887
-44.7778
-38.7686
-43.5509
-35.9285
-54.6238
-2.61278
-64.0038
-38.1806
-44.7698
-43.559
-54.6347
-66.2369
-66.2431
-58.2913
-23.8779
204.165
-42.7541
-42.7553
-40.1301
-84.076
-47.3845
-47.3212
-38.4057
-37.9598
-35.2706
18.246
-171.524
-90.0861
-40.4405
-44.2978
-43.0205
-31.0939
-53.2527
-54.9187
-37.9848
-32.4917
-38.1016
-171.724
18.1381
-89.9978
-44.2853
-40.388
-43.1271
-53.3913
-31.0732
-54.9028
-32.4724
-37.9317
-38.0774
-41.9479
-38.0585
-42.0129
-38.6454
-39.0311
-39.0848
-41.1303
-35.706
-45.6222
-51.8383
-60.4554
-12.7384
-47.7946
-45.8298
-51.991
-62.0182
-42.0085
-38.6567
-38.0395
-42.0234
-39.0581
-35.5777
-39.0735
-41.1635
-45.6583
-12.7403
-51.8188
-60.4327
-47.7479
-62.0089
-45.8337
-51.9933
-101.817
178.379
-90.1921
200.688
-68.7622
-57.3349
-44.7081
-36.785
-44.9058
-37.1436
-46.9522
-39.2763
-35.9198
136.716
-64.4074
-26.5654
-34.357
-31.2387
-46.2409
-38.831
-101.791
179.621
-68.7624
-57.3451
-44.6711
-36.7587
-46.9691
-39.3116
-64.4155
-26.5794
-46.0987
-38.8269
-40.4563
-38.4092
-51.9437
-43.6041
-43.7554
-39.7117
-41.585
-44.9349
-43.7307
-36.3443
-47.975
-79.1488
4.7276
-75.7781
-76.1146
-48.1668
-40.4529
-38.4032
-51.9632
-43.5956
-41.5873
-44.9381
-47.9883
-79.1489
-112.343
-52.4258
-51.0116
-84.0206
-112.334
-83.9751
-51.0132
-52.4391
-90.0783
-90.0394
-43.2266
-43.2051
-44.645
2.20345
2.2192
-44.6611
191.586
109.576
109.421
191.717
-40.4617
-39.2408
-46.5463
-50.4591
-40.4524
-50.449
-46.5503
-39.242
-39.4061
-39.3955
-45.1449
-45.1407
-74.9568
-69.6092
-69.608
-75.3475
-44.0239
-45.406
-43.1438
-46.2968
-44.0294
-46.2915
-43.1051
-45.3708
-36.9785
-36.9696
-44.5086
-44.4005
-49.2041
-34.9458
-34.9414
-49.2362
-37.3151
-37.2923
-34.4842
-34.5373
8.82356
-192.228
-118.358
-41.8688
-44.4891
-46.4071
-40.1709
-63.0966
-62.6402
-38.4576
-33.6165
-36.823
-192.393
8.69574
-118.339
-44.0118
-41.8502
-46.2198
-63.0002
-40.0646
-62.6392
-33.588
-38.4023
-36.7956
-39.3509
-38.2535
-41.4944
-38.1192
-40.006
-38.5374
-40.1536
-37.695
-59.9192
-57.8412
-62.5745
-52.9592
-48.6893
-48.2623
-50.2417
-55.4113
-39.3579
-38.1297
-38.2558
-41.4982
-40.0205
-38.04
-38.5276
-40.232
-59.8844
-52.8817
-57.7981
-62.5552
-48.6987
-55.3744
-48.271
-50.2515
9.45509
-7.37619
-84.061
109.07
-165.856
-165.805
-113.801
122.83
-70.0576
-48.1599
-69.2288
-56.5266
-39.9907
-38.3381
-42.5945
-37.1624
-44.4399
-44.4268
-45.3382
-38.851
-43.8564
-39.1315
-46.466
-40.1968
-46.6372
-46.6762
-42.2053
75.9882
-52.4913
-43.6056
-59.238
-30.1493
-32.3682
-32.3562
-33.2838
-28.7245
-40.4019
-47.6688
-44.5171
-40.4538
9.32026
-7.43269
-84.0529
109.43
-70.0787
-48.1395
-69.2211
-56.5406
-39.9388
-38.3005
-42.5285
-37.1413
-44.0158
-39.153
-46.5035
-40.2514
-52.5093
-43.6064
-59.2359
-30.152
-40.3986
-47.6269
-44.486
-40.4459
-38.856
-37.979
-39.7635
-38.4041
-42.9141
-47.5348
-47.5327
-44.0341
-38.7995
-38.8098
-40.4933
-39.3824
-42.5675
-44.3085
-41.1792
-44.5746
-35.832
-35.833
-39.4856
-35.8863
-57.8366
-55.4938
-51.5963
-65.7464
-3.46574
-3.40322
11.9783
-39.0198
-63.4086
-63.3991
-69.8335
-56.8271
-38.8503
-37.9674
-39.7479
-38.4004
-42.9071
-47.5239
-47.5145
-44.0273
-42.5802
-44.3135
-41.1839
-44.5874
-57.83
-55.4963
-51.6113
-65.7507
-83.3844
-67.6873
-65.0098
-56.4208
-83.3954
-67.6907
-65.0166
-56.4298
-71.6409
-58.064
-58.0721
-49.3933
-37.4061
-24.5133
-24.5146
-8.6147
199.064
200.474
174.666
199.073
-41.1527
-43.1723
-42.2871
-45.0329
-41.1507
-43.1692
-42.2879
-45.0377
-40.3065
-41.5812
-41.6755
-40.3044
-82.937
-87.0116
-78.861
-82.947
-46.8147
-47.1567
-47.4085
-46.4834
-46.8155
-47.1504
-47.2535
-46.5058
-38.4206
-38.7828
-38.8025
-37.2699
-35.2744
-38.2415
-38.2407
-41.7494
-35.8633
-37.4994
-32.2344
-35.8497
-88.6909
107.777
-114.601
79.4932
-108.248
-90.3445
-43.6401
-37.4893
-47.1936
-38.7283
-46.0511
-43.6449
-78.7659
71.1354
-44.9664
62.198
-68.4582
-46.035
-41.851
-36.0195
-33.4068
-32.7499
-41.2635
-35.6509
-114.574
79.7009
-88.6606
107.75
-108.183
-90.2132
-47.1166
-38.7113
-43.5595
-37.4592
-46.0265
-43.6281
-44.9725
62.1066
-78.8305
71.0221
-68.5155
-46.0566
-33.3997
-32.6857
-41.7885
-35.9804
-41.2333
-35.6467
-51.6342
-42.6979
-39.1422
-38.5207
-47.6439
-40.6613
-40.2308
-38.789
-42.2131
-38.1105
-38.1728
-41.795
-37.5137
-44.3258
-38.9138
-36.6368
-50.3505
-9.83482
-50.3821
-51.3238
-55.6085
-81.6574
6.76505
-47.1054
-47.2325
-51.6964
-45.97
-45.9246
-49.8199
-58.4555
-65.0303
-56.7957
-51.6662
-42.7667
-40.2452
-38.7899
-39.118
-38.613
-47.6479
-40.6552
-42.2201
-38.1025
-39.0331
-36.6192
-38.1747
-41.7805
-37.5166
-44.3451
-50.3454
-9.82348
6.76242
-47.6576
-50.3741
-51.3092
-55.581
-81.655
-47.2191
-51.6816
-65.0174
-56.7797
-45.9768
-45.9349
-49.8231
-58.4471
-108.105
-98.8359
191.691
153.439
-90.0846
-90.0728
197.451
197.284
-90.3726
-57.2788
-70.6395
-48.6419
-45.1719
-44.1681
-37.7161
-35.0389
-45.116
-45.0621
-37.422
-37.4136
-45.0785
-47.3579
-37.691
-41.7426
-39.69
-39.6485
129.75
129.896
-54.4182
-80.2702
-37.3963
-10.4012
-34.5107
-34.505
-32.3044
-32.3478
-44.6261
-47.2104
-42.8242
-36.3692
-108.109
-98.7903
153.608
191.702
-90.3715
-57.286
-70.6479
-48.6516
-44.1276
-45.1347
-37.7181
-35.0286
-45.0731
-47.3576
-37.7108
-41.8038
-80.2229
-54.4189
-10.4072
-37.3765
-47.221
-44.6995
-36.3613
-42.8217
-40.507
-40.0876
-40.6023
-39.7233
-52.5955
-51.6131
-41.5059
-46.4243
-43.6613
-43.6517
-39.7652
-39.7605
-39.9198
-43.8044
-44.4953
-45.2873
-45.288
-45.2815
-36.6723
-36.6782
-47.4825
-49.4507
-82.8672
-72.8504
4.16118
4.15208
-75.8429
-75.8335
-75.0454
-75.0748
-48.4936
-48.4908
-40.4994
-40.0867
-40.5995
-39.7199
-51.6195
-52.6055
-41.4976
-46.4152
-43.8079
-39.9212
-44.5021
-45.2903
-49.4529
-47.4908
-72.8465
-82.8971
-102.013
-91.2554
-87.4404
-85.6999
-53.7021
-48.3233
-57.1819
-57.0229
-54.2411
-51.7585
-55.5515
-48.4455
-75.1085
-85.2757
-79.8395
-65.8244
-101.968
-85.7177
-87.4382
-91.2561
-75.1364
-65.8957
-79.8538
-85.3653
-54.2156
-48.4404
-55.5601
-51.7589
-53.6309
-57.0256
-57.1892
-48.3276
-117.086
-113.545
-71.3989
-69.9054
-117.025
-69.9224
-71.4071
-113.54
-39.7897
-40.3857
-49.2098
-48.027
-39.7856
-48.0251
-49.2018
-40.3766
-54.2673
-39.0645
-37.9337
-39.3696
-20.0629
11.4038
-8.73864
-17.7474
-20.3377
-17.7432
-8.74188
11.4145
-54.2538
-39.3833
-37.9552
-39.065
93.2145
80.3679
197.282
125.113
39.0949
84.6558
173.643
122.106
38.9576
122.048
173.653
84.7164
93.082
125.322
197.286
78.9288
-39.467
-39.6959
-41.3844
-41.8315
-37.1742
-38.3744
-40.7879
-38.6815
-48.7174
-51.7738
-44.4968
-43.5405
-57.1424
-47.0958
-45.8135
-53.9569
-39.4455
-41.8255
-41.3795
-39.6844
-57.1111
-53.9576
-45.8123
-47.0871
-48.7267
-43.5466
-44.5001
-51.781
-37.172
-38.6879
-40.7878
-38.3789
-38.3088
-39.2397
-41.2894
-39.7458
-38.3128
-39.7397
-41.2927
-39.2385
-38.6338
-39.5082
-39.3794
-38.0623
-38.6965
-38.0709
-39.3807
-39.5143
-84.9365
-73.0616
-85.7015
-39.1075
-56.0113
-69.0142
-77.7496
-62.5609
-55.9983
-62.5494
-77.7127
-69.0069
-84.861
-39.0841
-85.655
-73.033
-46.3472
-43.7438
-45.9844
-44.7331
-44.6825
-43.1915
-47.2487
-47.7367
-40.6262
-42.7795
-45.8526
-42.3035
-47.7457
-44.5606
-47.0937
-46.8885
-46.3386
-44.7456
-45.9832
-43.7362
-47.7524
-46.8768
-47.1345
-44.5718
-40.5768
-42.2363
-45.9199
-42.7623
-44.579
-47.7447
-47.2394
-43.1194
-35.159
-36.0726
-37.4492
-38.679
-35.1456
-38.7089
-37.4615
-36.0938
-46.7448
-45.568
-38.9708
-43.0537
-46.4669
-42.8805
-38.7366
-45.5399
-53.499
-45.2561
-41.9841
-56.8644
-34.1371
-33.2648
-35.5542
-37.5355
-34.1254
-37.5314
-35.5551
-33.2608
-53.4777
-56.8601
-41.9803
-45.2436
-39.5327
-38.9989
-37.6098
-37.7863
-39.4952
-37.758
-37.5981
-38.9875
-35.3714
-30.1838
-33.1765
-35.819
-35.4223
-35.847
-33.2175
-30.2444
-52.3934
-188.031
-169.226
-43.3123
-43.7076
-47.1013
-46.7166
-54.5751
-70.9988
-38.2316
-34.936
-36.4418
-188.138
-52.4693
-169.374
-43.587
-43.3623
-46.7265
-54.5687
-46.6633
-70.9611
-34.8966
-38.1746
-36.423
-39.7914
-39.6093
-44.2511
-38.4247
-39.438
-37.9292
-36.4339
-39.3245
-68.2682
-62.7353
-65.4251
-82.1292
-49.357
-48.8689
-49.6639
-51.6283
-39.7988
-38.4318
-39.6167
-44.2605
-39.4813
-39.4753
-37.9709
-36.6414
-68.2474
-82.0578
-62.6959
-65.3686
-49.3676
-51.6323
-48.8816
-49.6794
1.42332
-3.71936
-77.7001
69.9846
-165.961
-165.968
-135.389
-97.2203
-62.7177
-52.4495
-67.4359
-56.429
-39.5998
-38.9611
-41.7258
-37.5273
-44.516
-44.5091
-45.9189
-41.7468
-42.598
-39.7151
-45.0632
-40.6346
-45.7934
-45.8183
-47.0818
-58.7248
-50.6756
-43.555
-53.9472
-34.5824
-32.4561
-32.4514
-33.3672
-28.0886
-41.8712
-45.3954
-44.1492
-42.6071
1.24035
-3.87963
-77.6288
69.6963
-62.7705
-52.4264
-67.4206
-56.4397
-39.5339
-38.9155
-41.6668
-37.4962
-42.7046
-39.7213
-45.1053
-40.6945
-50.6671
-43.4434
-53.9465
-34.5859
-41.855
-45.3803
-44.1251
-42.5894
-37.9893
-38.4373
-40.7856
-38.2728
-43.6932
-46.0462
-45.5599
-44.3146
-38.8334
-38.8419
-38.3573
-39.3046
-43.3713
-43.585
-41.7545
-45.3837
-36.0033
-36.0043
-38.2179
-35.2643
-56.124
-54.0742
-53.0544
-59.9956
-2.51562
-2.49959
6.69848
-20.9828
-63.7782
-63.774
-66.6826
-60.5207
-37.993
-38.4276
-40.7554
-38.268
-43.6866
-46.0371
-45.5571
-44.3038
-43.3816
-43.5916
-41.7611
-45.3943
-56.1253
-54.0811
-53.0698
-59.9749
-73.7214
-67.0399
-65.5849
-60.5607
-73.7283
-67.0457
-65.5909
-60.5679
-64.2513
-58.2268
-58.2324
-53.4248
-35.8375
-24.2767
-24.2752
-13.6623
201.971
201.209
195.569
201.981
-41.7551
-42.9544
-42.5457
-43.7813
-41.7553
-42.9539
-42.5465
-43.7833
-40.5979
-41.2853
-39.0802
-40.5957
-83.8807
-85.283
-82.0983
-83.8802
-47.3547
-47.22
-47.5125
-47.0142
-47.3269
-47.1863
-47.4066
-47.0034
-38.9786
-38.485
-38.4931
-37.852
-36.536
-38.03
-38.0291
-39.4541
-35.4668
-36.4407
-33.035
-35.4572
22.5432
15.8166
-53.9635
62.6962
-180.142
-166.719
-139.508
-37.3098
-103.456
-78.9515
-108.338
-90.1871
-40.8621
-40.4423
-42.9023
-38.1426
-44.2193
-44.3462
-46.4604
-40.8629
-44.2946
-44.0059
-46.5337
-43.499
-38.0308
-18.3407
-73.673
32.8675
-52.3235
-51.8379
-53.1602
-36.3199
-55.4173
-52.9552
-63.6316
-48.2327
-38.1705
-38.0793
-41.2928
-36.5072
-32.9127
-32.3075
-33.0375
-32.0074
-37.3677
-38.9312
-39.893
-36.3806
-180.412
-166.695
-139.507
-36.7716
22.4066
15.6768
-54.0697
62.6174
-103.234
-78.9203
-108.27
-90.036
-44.2829
-44.3408
-46.2519
-40.8314
-40.8102
-40.3898
-42.8224
-38.1149
-44.967
-44.1975
-46.5133
-43.5262
-52.336
-51.8803
-53.1411
-36.3115
-37.9858
-18.3461
-73.6858
32.8548
-55.4448
-52.9555
-63.633
-48.262
-32.888
-32.2924
-33.0301
-31.9456
-38.1231
-38.0406
-41.1853
-36.4677
-37.3411
-38.9142
-39.8725
-36.3735
-40.0642
-44.7887
-47.6424
-42.4361
-37.8624
-38.7856
-35.9941
-38.169
-41.7026
-42.4246
-43.7441
-41.2357
-38.7659
-38.3773
-38.371
-39.1279
-39.8846
-38.729
-40.7042
-38.3746
-38.8186
-38.6438
-37.8426
-39.9472
-40.5019
-41.3939
-34.9875
-47.1493
-36.2577
-35.8082
-37.2196
-35.242
-52.3571
-44.1615
-52.022
-23.7614
-54.1368
-49.4906
-51.1565
-51.9418
-61.548
-59.1666
-57.6157
-69.1275
-24.9788
-7.49272
-0.105244
-28.5164
-46.7995
-48.7447
-47.3636
-50.6685
-46.9399
-45.1209
-45.8044
-45.8371
-51.029
-53.8681
-51.0313
-54.9228
-59.1202
-62.9548
-63.393
-59.8561
-40.1015
-44.806
-47.6512
-42.4994
-38.7761
-38.3882
-38.3847
-39.131
-37.8562
-38.7615
-35.9831
-38.2028
-41.7104
-42.3972
-43.7465
-41.1931
-39.888
-38.7744
-40.7204
-38.3748
-36.8894
-35.8214
-37.1494
-35.4032
-38.8047
-38.6339
-37.8427
-39.9307
-40.5954
-41.4108
-34.9933
-47.16
-52.2927
-44.1792
-52.0126
-23.7476
-24.9756
-7.51771
-0.0975491
-28.5314
-54.1123
-49.4765
-51.1393
-51.927
-61.5125
-59.1469
-57.5891
-69.1064
-46.8267
-48.702
-47.3303
-50.6409
-59.1465
-62.9431
-63.3674
-59.8493
-46.9445
-45.125
-45.8103
-45.833
-51.0359
-53.8691
-51.0347
-54.9156
-98.5523
-95.9135
-103.616
-100.108
141.064
192.946
185.15
167.528
-100.772
-80.4814
-90.1523
-90.1461
192.789
200.716
199.895
199.962
-69.0307
-68.2823
-77.5088
-62.3941
-57.0149
-57.6923
-63.2726
-52.5934
-43.6123
-45.8236
-45.0077
-44.4376
-37.1975
-36.399
-37.4301
-35.5572
-45.0482
-41.2027
-44.9812
-44.9587
-37.5935
-37.5153
-37.4296
-37.4006
-46.7473
-47.0919
-45.9215
-47.9898
-39.8739
-39.2009
-38.4588
-40.3527
-41.4429
-27.9744
-36.2756
-36.2788
140.813
143.033
134.829
134.99
-62.4981
-64.8342
-58.4508
-71.1865
-28.2694
-25.0015
-32.0399
-17.4852
-33.717
-34.6492
-34.3893
-34.3878
-30.5047
-31.8842
-31.5731
-31.5983
-45.1801
-47.1149
-45.3627
-46.7679
-39.3531
-38.5135
-40.6331
-37.4972
-98.5894
-95.8635
-103.595
-100.076
140.872
192.999
167.563
185.192
-69.0272
-68.2837
-77.5075
-62.3968
-57.0285
-57.7009
-63.285
-52.6053
-43.5609
-45.8089
-44.4006
-44.9698
-37.1717
-36.3785
-37.4059
-35.5432
-46.7732
-47.1021
-45.9079
-48.0061
-39.9267
-39.2259
-38.4774
-40.4047
-62.4984
-64.8415
-71.2148
-58.4493
-28.2781
-25.0096
-17.4936
-32.026
-45.1338
-46.8145
-46.7588
-45.3097
-39.3474
-38.5048
-37.5171
-40.6293
-39.8248
-40.4984
-40.4889
-40.3179
-38.4083
-40.0503
-39.8018
-38.3281
-50.8876
-53.5717
-52.1665
-51.9458
-43.8221
-43.3922
-42.356
-44.8745
-42.5011
-45.9035
-43.7482
-43.7466
-39.7776
-41.1166
-39.7883
-39.785
-41.2397
-42.015
-40.5888
-42.5956
-44.1534
-45.4619
-44.8121
-45.1025
-40.5775
-45.8399
-44.1657
-44.1632
-36.015
-36.7841
-36.4131
-36.4193
-50.0562
-46.4012
-47.6022
-48.6889
-74.3605
-81.6424
-80.9737
-76.3827
11.3848
-2.7329
4.58204
4.56117
-62.2811
-84.2466
-75.9718
-75.9665
-73.5063
-76.9524
-75.9205
-75.924
-52.3348
-44.6086
-48.2546
-48.2535
-39.8184
-40.4949
-40.4834
-40.3154
-38.4033
-40.0448
-39.8006
-38.3238
-50.8794
-53.5825
-51.9801
-52.1796
-43.8168
-43.3862
-42.3474
-44.8678
-41.2433
-42.0166
-42.5986
-40.5905
-44.158
-45.4681
-44.8174
-45.1027
-50.0685
-46.4134
-48.6988
-47.6083
-74.3788
-81.6704
-76.4001
-80.9793
-111.554
-110.229
-112.757
-106.687
-52.1567
-53.9612
-53.9143
-52.4852
-50.394
-50.4876
-52.3961
-51.161
-72.5137
-74.4541
-93.7893
-88.6933
-111.487
-110.204
-112.753
-106.681
-72.5236
-74.5326
-93.7227
-88.6001
-50.3937
-50.4826
-52.402
-51.1664
-52.1728
-53.9631
-53.9258
-52.4971
-101.35
-90.2291
-90.0213
-79.9629
-101.305
-90.163
-89.9991
-79.9488
-43.044
-42.2817
-45.1355
-43.4249
-43.0131
-42.2605
-45.1222
-43.4085
-44.7722
-44.3829
-41.58
-40.5833
-1.81376
6.74948
-4.91915
3.64179
-1.83405
6.74587
-4.92919
3.63353
-44.7787
-44.3966
-41.5928
-40.5779
174.324
175.89
191.801
193.575
93.1847
111.97
129.458
118.697
111.846
92.7699
118.964
129.448
175.872
175.103
193.619
191.763
-39.5808
-40.5349
-40.5615
-40.7534
-38.6436
-38.4892
-39.8127
-39.156
-46.1899
-48.0597
-45.1099
-46.8783
-51.1325
-53.1485
-48.3072
-49.9658
-39.5685
-40.5253
-40.5549
-40.7459
-51.1182
-53.1338
-48.2956
-49.9641
-46.1966
-48.0637
-45.1137
-46.884
-38.6443
-38.491
-39.8128
-39.1564
-39.1406
-38.9661
-40.1881
-39.576
-38.9617
-39.1234
-39.57
-40.1774
-42.2397
-44.6174
-45.7263
-41.3644
-44.6245
-42.2328
-41.3669
-45.7174
-82.3953
-62.4448
-79.7011
-75.6312
-64.0815
-67.6625
-70.5536
-72.8807
-67.6609
-64.0809
-72.887
-70.5507
-61.1594
-82.4864
-75.6077
-79.7762
-43.4826
-43.3634
-44.4432
-44.228
-44.4754
-45.4973
-45.3164
-46.3298
-42.4015
-42.3834
-43.7537
-43.8628
-46.7406
-46.1412
-46.7251
-45.6613
-43.4883
-43.3819
-44.4523
-44.2345
-46.7271
-46.152
-46.7305
-45.667
-42.3542
-42.3498
-43.7119
-43.8404
-44.4141
-45.463
-45.2806
-46.3127
-37.3203
-36.582
-37.3064
-37.0472
-37.3094
-36.5659
-37.3088
-37.046
-45.837
-44.1289
-44.9802
-43.7403
-45.519
-44.0707
-44.8893
-43.6386
-50.2371
-53.3324
-45.7491
-48.865
-34.1203
-35.2615
-34.7019
-35.5844
-34.1148
-35.2579
-34.6921
-35.584
-50.2282
-53.3228
-45.7234
-48.8605
-37.3106
-37.6619
-37.509
-37.3912
-37.645
-37.2871
-37.3753
-37.4876
-33.5306
-35.571
-33.1341
-35.1695
-35.621
-33.5887
-35.2186
-33.1855
-76.043
93.4995
-148.642
-34.0566
-122.148
-118.32
-44.074
-39.5008
-49.7017
-42.1953
-46.0571
-47.1441
-80.7001
18.0789
-61.805
-14.0532
-70.4624
-58.6153
-41.1111
-36.364
-33.619
-34.6774
-39.0089
-34.9949
-148.222
-34.1329
-76.1966
93.4107
-121.885
-119.328
-49.5323
-42.0259
-43.9612
-39.4749
-45.8151
-47.6269
-61.7795
-14.2483
-80.6654
18.1927
-70.4771
-58.511
-33.6028
-34.6326
-41.0409
-36.3183
-38.9737
-34.9773
-41.0351
-40.2397
-38.6477
-38.3783
-45.4356
-40.0358
-37.1893
-39.0761
-50.2874
-34.6021
-37.199
-39.3775
-35.3457
-45.3624
-37.8547
-36.6107
-58.641
-48.4572
-56.6956
-57.6606
-59.3053
-78.6001
-33.1566
-70.7061
-47.9552
-50.7233
-48.2475
-48.2423
-49.6513
-52.5431
-55.3866
-54.2433
-39.303
-40.2458
-37.1963
-39.0977
-38.6369
-38.3792
-45.4193
-40.056
-50.0185
-34.7387
-37.7259
-36.8001
-37.2049
-39.3078
-35.2973
-45.4566
-58.5868
-48.4591
-33.1621
-70.6025
-56.665
-57.6298
-59.2832
-78.5624
-47.9611
-50.7269
-55.3976
-54.2093
-48.2558
-48.2538
-49.66
-52.5366
-58.2571
57.1082
-81.9402
79.6354
-85.157
-86.7208
85.5307
126.08
-135.775
-72.4587
-135.787
-72.1745
-113.392
-113.39
120.631
120.739
-85.8156
-69.5499
-55.2407
-47.7861
-76.8171
-62.2839
-62.4936
-51.7944
-42.3609
-38.1638
-41.0926
-36.3611
-42.8807
-42.4224
-37.4642
-36.49
-46.0684
-41.6104
-46.059
-41.5852
-45.3805
-45.3813
-38.954
-38.9462
-47.479
-43.2083
-41.7248
-38.8253
-44.6667
-48.7367
-39.3733
-41.9188
-46.8086
-45.1064
-46.8
-44.78
-42.2357
-42.2419
89.371
89.2487
-62.6341
-43.1715
-50.8484
-27.8966
-54.8101
-62.9579
-35.8068
-23.9627
-33.1863
-29.4348
-33.1841
-29.3827
-33.2612
-33.259
-28.9189
-28.949
-41.8399
-38.4471
-46.9604
-47.3844
-43.3992
-45.663
-42.4633
-38.7772
-58.376
57.2387
-81.9429
79.6026
-85.1329
-86.7525
126.068
84.8979
-85.8323
-69.5633
-55.23
-47.7844
-76.8265
-62.2821
-62.5117
-51.8006
-42.2917
-38.1266
-41.0358
-36.3345
-42.3581
-42.8121
-37.4427
-36.4293
-47.5229
-43.3658
-41.7218
-38.8615
-44.654
-48.7757
-39.4219
-42.0264
-62.6487
-43.1666
-50.781
-27.8912
-62.9396
-54.8038
-23.9642
-35.813
-41.8282
-38.4422
-46.9492
-47.3652
-45.6303
-43.381
-38.7729
-42.4532
-40.2203
-39.185
-37.947
-37.7525
-39.6496
-39.9416
-37.7602
-38.3788
-44.22
-42.1881
-47.6815
-47.3215
-47.8294
-47.6704
-42.7281
-45.4541
-37.9223
-39.6421
-37.9318
-39.6407
-40.4573
-40.4524
-39.3607
-39.3594
-36.9016
-47.237
-43.8105
-45.6515
-39.5612
-42.4011
-44.7938
-44.3911
-38.1169
-35.3216
-38.1039
-35.344
-39.5306
-39.5309
-35.9606
-35.97
-55.6989
-64.6116
-53.7343
-59.1972
-51.5178
-52.8753
-69.5389
-62.0944
5.87214
-20.9199
5.88286
-21.0405
12.0229
11.963
-39.1202
-39.1214
-65.9561
-60.5252
-65.9522
-60.5177
-69.6643
-69.6618
-56.7792
-56.7857
-40.21
-39.1783
-37.991
-37.7429
-39.6396
-39.9601
-37.7582
-38.3721
-44.2177
-42.1807
-47.6727
-47.3115
-47.666
-47.8244
-42.7227
-45.4457
-36.907
-47.2551
-43.817
-45.6575
-42.4063
-39.5656
-44.8044
-44.4067
-55.7039
-64.6008
-53.7399
-59.313
-52.8862
-51.5259
-62.1048
-69.5345
-85.4481
-81.1233
-75.6425
-61.6602
-59.3977
-72.0081
-56.805
-56.1382
-85.4546
-81.1355
-75.6452
-61.6655
-72.0176
-59.4029
-56.1467
-56.8136
-71.5784
-71.5822
-64.0686
-53.2339
-64.0799
-53.2433
-49.3524
-49.3476
-39.0895
-39.0847
-35.1414
-14.4376
-14.4402
-35.125
-8.66398
-8.66671