# vtk DataFile Version 2.0
tet_velo
ASCII
DATASET UNSTRUCTURED_GRID
POINTS 29498 float
-0.8273 0.455 -2.395
-0.807626 0.465 2.425
-0.805 0.785 -2.40974
-0.813216 0.865 2.375
0.827299 0.455 -2.395
0.808206 0.465 2.425
0.805 0.785 -2.40974
0.813796 0.865 2.375
-0.848848 0.430227 -0.788333
-0.867105 0.408745 0.818333
-0.834893 0.838821 -0.814827
-0.843719 0.871575 0.780087
0.848889 0.430379 -0.788333
0.867237 0.409 0.818333
0.83494 0.838675 -0.814827
0.844277 0.871746 0.780087
-1.66846 0.240314 -3.66158
-1.66855 0.250239 -2.38095
-1.68795 0.226423 -0.773983
-1.70214 0.203896 0.835353
-1.67349 0.233978 2.44252
-1.66133 0.257298 3.72412
-1.66121 0.272569 5.00392
-1.66497 0.430059 -3.67318
-1.66349 0.448722 -2.39383
-1.68803 0.436112 -0.789149
-1.70202 0.417492 0.816593
-1.65765 0.447211 2.4215
-1.6498 0.469695 3.70294
-1.6545 0.484421 4.98312
-1.65523 0.790682 -3.69307
-1.64719 0.807779 -2.41324
-1.67464 0.844724 -0.816568
-1.68555 0.863027 0.779271
-1.65493 0.865509 2.37617
-1.64752 0.886042 3.65809
-1.65135 0.903726 4.94016
-1.65652 1.37771 -3.73174
-1.65514 1.40289 -2.45367
-1.66527 1.45139 -0.860813
-1.67453 1.49262 0.729514
-1.67158 1.51169 2.3225
-1.66555 1.5228 3.60082
-1.66167 1.53551 4.88161
-0.835771 0.244054 -3.66234
-0.829427 0.255706 -2.38206
-0.843014 0.224019 -0.773834
-0.860994 0.198079 0.836839
-0.839016 0.242454 2.44512
-0.828424 0.263733 3.72589
-0.828169 0.276083 5.00494
-0.836133 0.430842 -3.67341
-0.816569 0.476831 3.70439
-0.822079 0.488035 4.98389
-0.828546 0.781588 -3.69161
-0.815518 0.888187 3.65786
-0.819355 0.905743 4.94011
-0.824669 1.37075 -3.7303
-0.820801 1.39591 -2.45209
-0.82788 1.44936 -0.859859
-0.837513 1.4952 0.729399
-0.837592 1.51384 2.32168
-0.832266 1.52406 3.6
-0.828008 1.53653 4.88102
0.825055 0.244073 -3.66234
0.837493 0.25574 -2.38206
0.852078 0.224153 -0.773835
0.851316 0.198278 0.836839
0.814053 0.242529 2.44512
0.823378 0.263799 3.72589
0.831795 0.276161 5.00494
0.816545 0.430848 -3.67341
0.825163 0.476876 3.70439
0.833991 0.488105 4.98389
0.810063 0.781584 -3.69161
0.82784 0.888228 3.65786
0.836375 0.905809 4.94011
0.832248 1.37075 -3.7303
0.838606 1.3959 -2.45209
0.842606 1.44937 -0.859859
0.837901 1.49527 0.729399
0.831166 1.51392 2.32168
0.833074 1.52414 3.6
0.837794 1.53661 4.88102
1.65846 0.240358 -3.66158
1.67087 0.250308 -2.38095
1.6921 0.226637 -0.773983
1.69731 0.204223 0.835353
1.66217 0.234181 2.44252
1.65875 0.25746 3.72412
1.66519 0.272735 5.00392
1.64955 0.430077 -3.67317
1.66076 0.448734 -2.39383
1.6876 0.436287 -0.789149
1.70291 0.417841 0.816593
1.66062 0.447378 2.4215
1.65772 0.469831 3.70294
1.66577 0.484574 4.98312
1.6411 0.790674 -3.69307
1.64516 0.807732 -2.41324
1.67461 0.844701 -0.816568
1.68778 0.863291 0.779271
1.66034 0.865657 2.37617
1.65964 0.886167 3.65809
1.66772 0.903871 4.94016
1.66241 1.37772 -3.73174
1.66924 1.40289 -2.45367
1.67763 1.45144 -0.860814
1.67684 1.49276 0.729514
1.66944 1.51186 2.3225
1.66892 1.52296 3.60082
1.67251 1.53567 4.88161
-0.754065 0.62 -2.34028
-5.06639e-07 0.429708 -2.42029
-0.870982 0.409706 -1.59167
-0.843985 0.665 2.43356
0.000290006 0.474263 2.41574
-0.846051 0.428188 1.62167
0 0.798307 -2.42305
-0.830432 0.822396 -1.61228
0.000290006 0.8516 2.3616
-0.836677 0.876497 1.57754
0.753827 0.62 -2.34005
0.871 0.409784 -1.59167
0.844452 0.665 2.43345
0.846559 0.428163 1.62167
0.830475 0.822342 -1.61228
0.837246 0.876583 1.57754
-0.846715 0.430748 0.015
-0.865327 0.634524 -0.80158
2.04588e-05 0.183685 -0.788333
-0.870391 0.64016 0.79921
6.56771e-05 0.207344 0.818333
-0.835441 0.851333 -0.01737
2.36244e-05 1.1181 -0.814827
0.000278933 1.30169 0.780087
0.846785 0.430968 0.015
0.865337 0.634527 -0.80158
0.870919 0.640373 0.79921
0.835507 0.851109 -0.01737
-0.892556 0.627262 -1.60198
-0.867504 0.637342 -0.001185
-0.866968 0.65258 1.59961
9.97608e-06 0.207599 -1.59167
4.3068e-05 0.198222 0.015
0.000177842 0.257912 1.62167
-2.5332e-07 0.62 -2.43586
0.000290006 0.665 2.44943
1.18122e-05 0.934243 -1.61228
0.000151278 1.35391 -0.01737
0.000284469 0.955903 1.57754
0.892535 0.627263 -1.60198
0.867504 0.63745 -0.001185
0.867548 0.652687 1.59961
-1.2454 0.451861 -2.39442
-0.828364 0.355353 -2.38853
-0.831717 0.442921 -3.0342
-1.23264 0.456105 2.42325
-0.823321 0.353727 2.43506
-0.812097 0.470916 3.0647
-1.2261 0.79639 -2.41149
-0.816773 0.783294 -3.05068
-0.8129 1.09045 -2.43092
-1.23407 0.865254 2.37558
-0.814367 0.876593 3.01643
-0.825404 1.18942 2.34834
0.832396 0.35537 -2.38853
0.821922 0.442924 -3.0342
1.24403 0.451867 -2.39442
0.81113 0.353765 2.43506
0.816685 0.470938 3.0647
1.23441 0.456189 2.42325
0.807531 0.783292 -3.05068
0.821803 1.09045 -2.43092
1.22508 0.796366 -2.41149
0.820818 0.876614 3.01643
0.822481 1.18946 2.34834
1.23707 0.865328 2.37558
-1.26844 0.433169 -0.788741
-0.845931 0.327123 -0.781084
-1.28456 0.413119 0.817463
-0.86405 0.303412 0.827586
-1.25476 0.841772 -0.815697
-0.831386 1.14409 -0.837343
-1.26463 0.867301 0.779679
-0.840616 1.18339 0.754743
0.850484 0.327266 -0.781084
1.26824 0.433333 -0.788741
0.859276 0.303639 0.827586
1.28507 0.413421 0.817463
0.838773 1.14402 -0.837343
1.25478 0.841688 -0.815697
0.841089 1.18351 0.754743
1.26603 0.867518 0.779679
-1.66851 0.245276 -3.02127
-1.66672 0.335187 -3.66738
-1.25211 0.242184 -3.66196
-1.67825 0.238331 -1.57747
-1.66602 0.34948 -2.38739
-1.24899 0.252972 -2.38151
-1.69504 0.21516 0.0306852
-1.68799 0.331267 -0.781566
-1.26548 0.225221 -0.773909
-1.68781 0.218937 1.63894
-1.70208 0.310694 0.825973
-1.28157 0.200988 0.836096
-1.66741 0.245638 3.08332
-1.66557 0.340594 2.43201
-1.25625 0.238216 2.44382
-1.66127 0.264934 4.36402
-1.65557 0.363496 3.71353
-1.24488 0.260515 3.72501
-1.65786 0.378495 4.99352
-1.24469 0.274326 5.00443
-1.66423 0.439391 -3.0335
-1.6601 0.610371 -3.68312
-1.25055 0.43045 -3.67329
-1.67576 0.442417 -1.59149
-1.65534 0.628251 -2.40354
-1.69503 0.426802 0.0137217
-1.68134 0.640418 -0.802858
-1.67984 0.432351 1.61905
-1.69379 0.64026 0.797932
-1.65373 0.458453 3.06222
-1.65629 0.65636 2.39883
-1.65215 0.477058 4.34303
-1.64866 0.677868 3.68051
-1.23318 0.473263 3.70366
-1.65293 0.694073 4.96164
-1.23829 0.486228 4.9835
-1.65121 0.799231 -3.05315
-1.65588 1.0842 -3.7124
-1.24189 0.786135 -3.69234
-1.66091 0.826252 -1.6149
-1.65117 1.10533 -2.43346
-1.68009 0.853876 -0.0186482
-1.66995 1.14805 -0.83869
-1.67024 0.864268 1.57772
-1.68004 1.17782 0.754393
-1.65122 0.875775 3.01713
-1.66326 1.1886 2.34933
-1.64943 0.894884 4.29913
-1.65653 1.20442 3.62946
-1.23152 0.887114 3.65797
-1.65651 1.21962 4.91089
-1.23535 0.904734 4.94014
-1.65583 1.3903 -3.09271
-1.24059 1.37423 -3.73102
-1.66021 1.42714 -1.65724
-1.23797 1.3994 -2.45288
-1.6699 1.472 -0.0656497
-1.24657 1.45037 -0.860336
-1.67306 1.50216 1.52601
-1.25602 1.49391 0.729457
-1.66857 1.51725 2.96166
-1.25459 1.51277 2.32209
-1.66361 1.52916 4.24122
-1.24891 1.52343 3.60041
-1.24484 1.53602 4.88132
-0.832599 0.24988 -3.0222
-0.835952 0.337448 -3.66787
-0.00535792 0.244063 -3.66234
-0.836221 0.239862 -1.57795
0.00403275 0.255723 -2.38206
-0.852004 0.211049 0.0315023
0.00453201 0.224086 -0.773835
-0.850005 0.220267 1.64098
-0.00483885 0.198178 0.836839
-0.83372 0.253093 3.0855
-0.0124815 0.242492 2.44512
-0.828297 0.269908 4.36541
-0.822497 0.370282 3.71514
-0.00252315 0.263766 3.72589
-0.825124 0.382059 4.99441
0.00181259 0.276122 5.00494
-0.83234 0.606215 -3.68251
-0.00979437 0.430845 -3.67341
-0.819324 0.482433 4.34414
-0.816043 0.682509 3.68112
0.00429713 0.476853 3.70439
-0.820717 0.696889 4.962
0.00595576 0.48807 4.98389
-0.826608 1.07617 -3.71096
-0.0092418 0.781586 -3.69161
-0.817436 0.896965 4.29898
-0.823892 1.20612 3.62893
0.00616124 0.888207 3.65786
-0.823681 1.22114 4.91057
0.00850997 0.905776 4.94011
-0.822735 1.38333 -3.0912
0.00378933 1.37075 -3.7303
-0.82434 1.42263 -1.65597
0.00890276 1.39591 -2.45209
-0.832697 1.47228 -0.0652298
0.00736278 1.44937 -0.859859
-0.837553 1.50452 1.52554
0.000193915 1.49523 0.729399
-0.834929 1.51895 2.96084
-0.00321286 1.51388 2.32168
-0.830137 1.5303 4.24051
0.000403622 1.5241 3.6
0.00489288 1.53657 4.88102
0.831274 0.249907 -3.0222
0.8208 0.33746 -3.66787
1.24176 0.242216 -3.66196
0.844786 0.239947 -1.57795
1.25418 0.253024 -2.38151
0.851697 0.211215 0.0315023
1.27209 0.225395 -0.773909
0.832685 0.220403 1.64098
1.27431 0.20125 0.836096
0.818716 0.253164 3.0855
1.23811 0.238355 2.44382
0.827586 0.26998 4.36541
0.824271 0.370337 3.71514
1.24106 0.260629 3.72501
0.832893 0.382133 4.99441
1.24849 0.274448 5.00443
0.813304 0.606216 -3.68251
1.23305 0.430462 -3.67329
0.829577 0.48249 4.34414
0.826502 0.682552 3.68112
1.24144 0.473353 3.70366
0.835183 0.696957 4.962
1.24988 0.48634 4.9835
0.821155 1.07617 -3.71096
1.22558 0.786129 -3.69234
0.832107 0.897018 4.29898
0.830457 1.20618 3.62893
1.24374 0.887198 3.65797
0.837084 1.22121 4.91057
1.25205 0.90484 4.94014
0.835427 1.38333 -3.0912
1.24733 1.37424 -3.73102
0.840606 1.42264 -1.65598
1.25392 1.3994 -2.45288
0.840253 1.47232 -0.0652299
1.26012 1.4504 -0.860337
0.834534 1.5046 1.52554
1.25737 1.49402 0.729456
0.83212 1.51903 2.96084
1.25031 1.51289 2.32209
0.835434 1.53037 4.24051
1.251 1.52355 3.60041
1.25515 1.53614 4.88131
1.66467 0.245333 -3.02127
1.65401 0.335218 -3.66738
1.68149 0.238472 -1.57747
1.66582 0.349521 -2.38739
1.69471 0.21543 0.0306851
1.68985 0.331462 -0.781566
1.67974 0.219202 1.63894
1.70011 0.311032 0.825973
1.66046 0.24582 3.08332
1.6614 0.34078 2.43201
1.66197 0.265097 4.36402
1.65823 0.363645 3.71353
1.66548 0.378655 4.99352
1.65516 0.439406 -3.0335
1.64533 0.610376 -3.68312
1.67418 0.442511 -1.59149
1.65296 0.628233 -2.40354
1.69525 0.427064 0.0137216
1.6811 0.640494 -0.802858
1.68176 0.43261 1.61905
1.69534 0.640566 0.797932
1.65917 0.458604 3.06222
1.66048 0.656518 2.39883
1.66174 0.477202 4.34303
1.65868 0.677999 3.68051
1.66674 0.694223 4.96164
1.64313 0.799203 -3.05315
1.65175 1.0842 -3.7124
1.65989 0.826217 -1.6149
1.6572 1.10531 -2.43346
1.6812 0.853996 -0.0186483
1.67612 1.14807 -0.838691
1.67406 0.864474 1.57772
1.68231 1.17803 0.754392
[...]
POINT_DATA 29498
VECTORS point_vectors float
-5.04716 -2.07876 6.26832
0.132583 0.249717 1.0487
-9.66963 7.10357 15.1407
0.154532 -0.269989 2.26061
5.06598 -2.07958 6.30058
-0.132793 0.251326 1.04413
9.63197 7.03837 15.1379
-0.15281 -0.262695 2.26131
0.00259359 -0.0062745 0.0774104
-0.0267849 -0.0195044 0.657632
-0.0281696 -0.0451216 0.351978
0.0960373 0.245298 0.732909
-0.0026634 -0.00640447 0.0790053
0.0263572 -0.0181218 0.623734
0.0278299 -0.0443464 0.34624
-0.0968177 0.247057 0.735189
-0.477566 -0.0746177 19.8435
-1.30329 -0.347362 20.3347
-0.505754 -0.265361 21.271
0.0959244 -0.00481976 21.4208
0.604257 0.148336 21.2291
0.799966 0.139019 21.1382
0.778435 0.0711959 20.8721
-0.492052 -0.0251165 19.8157
-1.36637 -0.169087 20.2961
-0.616182 -0.281319 21.2648
0.101136 -0.0636205 21.4648
0.678136 0.0522508 21.2839
0.88034 0.0570749 21.314
0.659398 -0.056087 21.2026
-0.484858 0.0543763 19.8195
-1.42874 0.157559 20.2382
-0.883997 -0.207463 21.2379
0.031313 -0.17465 21.4993
0.653437 -0.16227 21.2597
0.883739 -0.193242 20.8881
0.719501 -0.1788 20.4517
-0.369252 0.199997 19.9061
-0.947788 0.456339 20.2249
-0.930387 0.228057 21.094
-0.128221 -0.0903657 21.475
0.409167 -0.30732 21.2077
0.482529 -0.327607 20.6857
0.402317 -0.237156 20.6705
-0.49359 -0.209245 19.303
-5.53224 -4.6355 19.2298
0.682164 -0.613784 10.5104
0.438417 -0.0222321 13.3765
1.15201 0.740342 14.2079
1.41946 1.07946 16.3921
1.08221 0.666239 15.3667
-0.507701 -0.0824283 19.2734
1.4433 0.765986 12.2665
1.09733 0.408609 14.7004
-0.49128 0.13496 19.2681
1.64635 -0.282839 11.5472
0.964747 -0.169917 14.8306
-0.343304 0.344105 19.5543
-1.43211 1.89242 19.681
-2.63021 1.88119 20.9543
-0.149639 -0.131516 21.6545
0.499773 -0.839236 20.7935
0.617537 -1.00339 20.4267
0.49451 -0.728086 20.1598
0.488197 -0.210331 19.2843
5.49138 -4.48482 19.2958
-0.684528 -0.621073 11.1267
-0.514083 -0.0160457 12.9724
-1.09101 0.757606 13.3714
-1.40285 1.05875 16.204
-0.985854 0.7002 15.6421
0.501965 -0.079763 19.2487
-1.44721 0.759589 12.6651
-1.2903 0.213717 15.304
0.49183 0.135581 19.2483
-1.61062 -0.273193 12.0023
-0.633262 -0.0477655 15.2409
0.341812 0.34454 19.5554
1.44105 1.85052 19.6914
2.59386 1.79757 20.9779
0.15027 -0.128034 21.6597
-0.503392 -0.840296 20.7803
-0.593373 -1.00127 20.2806
-0.486509 -0.687941 20.1558
0.477515 -0.0778323 19.826
1.30045 -0.347104 20.3322
0.505174 -0.268463 21.2741
-0.101588 -0.00671513 21.431
-0.610457 0.147742 21.2197
-0.769311 0.19168 20.6911
-0.812367 0.0683668 20.5345
0.493695 -0.0254834 19.794
1.3757 -0.174186 20.3016
0.616848 -0.287537 21.2716
-0.104112 -0.0646383 21.4743
-0.671713 0.050508 21.2483
-0.851066 0.119823 20.6557
-0.775072 -0.0356823 20.6821
0.487194 0.0526533 19.8017
1.43369 0.154346 20.2379
0.883779 -0.209531 21.2412
-0.0285658 -0.175669 21.497
-0.643553 -0.158722 21.2307
-0.830147 -0.187962 20.6907
-0.743733 -0.0709352 20.6702
0.364289 0.200893 19.9018
0.933785 0.449178 20.2325
0.914412 0.2214 21.0916
0.128342 -0.0886132 21.4742
-0.405918 -0.307433 21.1957
-0.458329 -0.330619 20.8853
-0.3619 -0.220116 20.6321
-1.40788 -0.0498896 0.654531
0 0 0
0.00665693 -0.018344 0.293523
0.148363 -0.0365694 0.930499
-0.00544476 -0.0637678 -0.0378836
0.00960609 -0.000192459 0.0606231
0.00152345 0.800279 1.17105
-0.0655858 -0.106505 0.501433
-0.00805626 0.122179 -0.13273
0.250582 0.264683 1.14569
1.49961 -0.0428564 0.714653
-0.00658011 -0.0180926 0.290157
-0.150547 -0.0402401 0.934662
-0.00952686 -0.000215649 0.0603331
0.0660895 -0.107726 0.506899
-0.253263 0.261016 1.13649
-0.000678942 0.0023614 0.0441783
0 0 0
-0.000137732 -0.000859563 0.0555
-5.84373e-19 1.22853e-17 5.19111e-17
0.00193968 0.00125635 0.0590873
0.064733 0.114936 0.335128
7.28015e-05 0.0222122 0.0394001
2.15034e-05 -0.0141937 0.0804965
0.000632266 0.00219668 0.0418674
1.09255e-18 -1.41975e-17 1.60306e-16
0 0 0
-0.0673346 0.119459 0.358408
-0.00553798 -0.017118 0.0962871
0 0 0
0 0 0
-4.94374e-06 -0.00327513 0.0615711
0.000265883 0.00136972 0.0407016
-0.00103038 0.00360885 0.0438505
-0.00152078 0.0608685 0.0978761
-0.00460915 0.0206503 -0.0159843
-0.000125173 0.00832771 0.110879
-1.24612e-08 1.30183e-08 1.66665e-06
-6.3093e-05 0.000344545 -0.00647369
0.00531096 -0.0162735 0.09177
0 0 0
0 0 0
-2.88015 -0.545553 20.126
-8.44253 -5.96835 18.299
-1.52761 -0.390794 18.2229
1.11308 0.208477 20.5588
0.888524 0.65915 8.56843
0.894126 0.761828 8.25304
-2.86318 0.61373 19.9541
-1.40044 0.492623 18.269
-2.80382 3.03361 19.2346
1.09014 -0.232282 20.6594
1.17392 -0.0733038 8.98561
1.33738 -0.232014 14.7272
8.36507 -5.80483 18.3664
1.5173 -0.391657 18.1976
2.88961 -0.545411 20.1281
-0.819942 0.667904 8.00678
-0.899044 0.745819 8.3915
-1.09833 0.208642 20.5581
1.39947 0.498914 18.2442
2.80141 2.95794 19.2656
2.87324 0.61928 19.9544
-1.18339 -0.0481233 9.17339
-1.3439 -0.222713 14.6279
-1.0789 -0.228296 20.6708
-0.600727 -0.629182 21.5324
0.269417 -0.446017 4.49723
0.260233 -0.0489646 21.2563
0.265126 -0.228885 7.46863
-1.35836 -0.706223 21.4744
-4.80947 0.435253 17.1817
0.198807 -0.323594 21.3248
0.715787 1.20211 10.9257
-0.292425 -0.467132 4.90929
0.599769 -0.627078 21.5326
-0.2895 -0.262756 7.06313
-0.264467 -0.0495563 21.2562
4.74684 0.411456 17.3863
1.35889 -0.707196 21.4766
-0.716932 1.19906 10.9625
-0.196576 -0.326268 21.3405
-0.875208 -0.191395 19.9093
-0.484972 -0.0460203 19.8274
-0.546799 -0.141351 19.5928
-0.952369 -0.324587 21.0088
-1.33916 -0.251929 20.3094
-2.35878 -0.922422 20.2449
-0.168055 -0.138846 21.3751
-0.561382 -0.279974 21.2692
-0.438232 -0.418023 21.523
0.375279 0.0881715 21.3654
0.109743 -0.0346545 21.4458
0.207564 0.0677774 21.5313
0.706787 0.172373 20.9574
0.651245 0.09784 21.264
0.93996 0.396365 21.1944
0.790423 0.0982779 20.9753
0.884335 0.0885494 21.2667
1.22382 0.397367 20.3081
0.656731 -0.0188317 21.1542
0.708359 0.360552 21.1852
-0.927177 -0.0901254 19.8451
-0.491516 -0.00200303 19.8131
-0.563539 -0.0477831 19.5606
-1.06209 -0.261208 21.0211
-1.41481 -0.0399925 20.2755
-0.219788 -0.195796 21.4289
-0.716659 -0.280861 21.2632
0.408211 0.0243465 21.4108
0.0850615 -0.121512 21.4916
0.843967 0.0698751 21.2215
0.69478 -0.0361371 21.2865
0.762514 0.0470647 20.9319
0.904961 -0.0665001 21.1981
1.42761 0.209408 20.0808
0.697268 -0.120108 21.0212
0.716374 0.0958018 20.7486
-0.906245 0.11108 19.8393
-0.45384 0.142866 19.8456
-0.546739 0.108197 19.5604
-1.21257 -0.037773 20.9036
-1.22571 0.352875 20.1951
-0.414674 -0.227083 21.4767
-0.981987 -0.0154964 21.1792
0.394754 -0.144459 21.4105
-0.0472256 -0.149354 21.5092
0.771815 -0.169804 21.0256
0.557183 -0.270995 21.2312
0.691638 -0.247196 20.9125
0.782798 -0.265978 20.7825
1.33814 -0.351001 20.3977
0.553417 -0.224857 20.3096
0.716577 -0.333521 19.9216
-0.66264 0.33368 19.9413
-0.392536 0.261034 19.7263
-1.02952 0.387113 20.708
-1.33572 0.940073 20.0428
-0.581737 0.0455194 21.4323
-1.63197 0.542055 21.1694
0.203633 -0.226061 21.3641
-0.202182 -0.136017 21.7759
0.484031 -0.344441 21.0483
0.497379 -0.52474 21.292
0.45322 -0.409412 20.952
0.610187 -0.626168 20.9156
0.496005 -0.40927 20.4762
-1.387 -0.793791 18.5051
-0.502576 -0.153918 19.2854
-0.00747425 -0.311858 18.9441
-0.0553505 -0.612724 10.8713
-0.0499756 -13.8541 16.3082
0.48018 -0.166743 11.9893
0 0 0
0.90728 0.363937 13.168
0.0274312 0.0177674 0.83562
1.24188 1.0282 15.4017
-0.0664083 0.195304 3.67524
1.36543 0.63097 14.3943
1.4236 0.946677 14.1584
-0.032462 0.707786 6.1374
1.08977 0.537424 15.0336
0.0472331 0.410509 11.4744
-0.504688 0.00744069 19.2625
-0.00894499 -0.112109 18.8738
1.53508 0.645617 13.6147
1.64729 0.254384 9.68893
0.222998 -0.637258 -1.62247
1.10532 0.151639 14.1517
0.0547444 0.136278 9.14007
-0.430333 0.26972 19.4003
-0.00684474 0.194218 18.9171
1.62222 -0.169275 14.9271
1.28488 -0.919732 18.0393
0.144259 -0.559138 -0.422882
0.550257 -0.691159 19.4483
0.05176 -0.577821 4.8523
-0.771897 0.900261 19.2711
0.00222178 0.463934 19.3453
-1.6961 1.58676 20.5756
0.0205595 2.98904 19.3248
-1.53348 0.706361 22.4465
0.0374209 5.22486 19.4445
0.343875 -0.650546 21.0626
-0.00044486 -0.329405 12.9594
0.559703 -0.962855 20.5773
0.00137504 -0.735808 15.5147
0.519762 -0.870974 20.1231
-0.00740175 -1.29656 16.8931
-0.0179918 -0.723912 16.4413
1.38634 -0.793243 18.4949
0.496763 -0.150942 19.2633
0.546848 -0.139536 19.5943
0.107404 -0.62254 11.564
2.33478 -0.904838 20.2537
-0.483575 -0.172664 11.9466
0.44307 -0.423038 21.5173
-0.897029 0.356803 12.4709
-0.217078 0.0717852 21.5204
-1.21796 1.03361 15.063
-0.950475 0.41438 21.0686
-1.03481 0.825554 14.9337
-1.42413 0.926517 14.1912
-1.16365 0.459014 20.6692
-1.13808 0.456959 15.473
-0.759434 0.325875 20.5178
0.502843 0.0066929 19.2405
0.562902 -0.0451581 19.5548
-1.46029 0.624192 13.3182
-1.61301 0.255737 10.4092
-1.3273 0.213555 20.3656
-0.976164 0.120237 14.7343
-0.933749 -0.0462128 20.2658
0.428426 0.272845 19.3925
0.545765 0.112182 19.5553
-1.30637 -0.152041 14.4461
-1.39031 -0.872865 18.2408
-1.3186 -0.347231 20.524
-0.402158 -0.618386 19.6203
-0.652187 -0.261325 19.9041
0.770935 0.89004 19.2774
0.387925 0.261419 19.7339
1.70483 1.54519 20.5831
1.32136 0.908608 20.0533
1.52296 0.691381 22.43
1.59885 0.52615 21.169
-0.347451 -0.652906 21.0642
0.199417 -0.133712 21.7726
-0.564395 -0.965926 20.5698
-0.499962 -0.523348 21.2938
-0.579031 -0.891389 20.3936
-0.56898 -0.643791 20.9256
-0.412721 -0.392808 20.5134
0.88508 -0.197547 19.9086
0.486352 -0.0495401 19.8088
0.947684 -0.325972 21.0071
1.34332 -0.2556 20.3133
0.168624 -0.141237 21.373
0.561713 -0.285004 21.2754
-0.373918 0.0864039 21.3685
-0.115467 -0.0352596 21.4603
-0.711642 0.173777 21.0367
-0.651308 0.0960796 21.2383
-0.888991 0.255433 20.5078
-0.827717 0.150122 20.624
-0.805946 -0.0103127 20.6678
0.933212 -0.0988884 19.8404
0.490977 -0.00209755 19.7904
1.06628 -0.264135 21.0236
1.42275 -0.0447072 20.28
0.219886 -0.198223 21.4308
0.716782 -0.285721 21.2675
-0.404817 0.0218266 21.4088
-0.0826265 -0.123204 21.4889
-0.827047 0.0767409 21.0576
-0.686218 -0.0339021 21.2535
-0.731339 0.013762 20.6933
-0.845205 0.0168127 20.6436
-0.729549 -0.0665411 20.7057
0.911422 0.111533 19.8366
0.457537 0.137552 19.8357
1.21315 -0.0392982 20.9079
1.21403 0.34843 20.2033
0.416052 -0.226651 21.4722
0.971832 -0.0127263 21.1804
-0.389426 -0.14394 21.4066
0.0480344 -0.147215 21.5069
-0.752786 -0.178859 21.0473
-0.551232 -0.274081 21.2092
-0.783643 -0.245332 20.6825
-0.697469 -0.297388 20.6137
-0.657961 -0.139714 20.5362
0.655533 0.331525 19.9508
1.02009 0.381248 20.7099
0.579998 0.0443237 21.4259
-0.206317 -0.228302 21.3664
-0.484448 -0.336879 21.0647
-0.484877 -0.389669 20.8688
-0.898872 -0.134321 19.8788
-1.48849 -0.61765 18.3439
-1.22811 -0.421197 19.4154
-1.33205 -0.205944 19.295
-0.556088 -0.092679 19.5727
-2.65832 -0.779499 20.1857
-1.01196 -0.289609 21.0066
0.148389 -0.339268 3.823
-1.20649 -0.579276 21.4099
-1.42489 -0.591761 21.4873
-0.480083 -0.527008 21.5687
-0.190679 -0.168265 21.403
0.115609 -0.0158714 5.66699
-0.0407242 -0.161406 21.5678
-0.0500936 -0.32914 21.3825
0.244548 0.0163081 21.4214
0.397734 0.0545525 21.3908
0.636958 0.2138 6.6096
0.613235 0.260599 21.3928
0.715909 0.113746 20.8837
1.04733 0.310913 20.7963
0.772218 0.116078 21.0733
1.19432 0.899173 12.1937
1.1024 0.49611 20.7928
1.30654 0.273449 20.4638
1.38023 0.282382 19.991
0.792506 0.0665961 20.9538
1.45239 0.637398 13.9554
0.97538 0.291003 21.039
1.14615 0.30515 20.2306
0.712366 0.228177 20.9669
-0.932206 -0.0102693 19.8266
-1.55745 0.0716318 18.0874
-1.2632 0.267364 19.2783
-0.561446 0.0125726 19.5542
-3.2369 0.0234544 20.0232
-1.12772 -0.171718 20.9769
-1.79235 -0.0494751 21.2764
-0.939909 -0.689508 21.4672
-0.28945 -0.23096 21.4525
-0.461028 -0.641495 21.5636
0.272804 -0.191622 21.0724
0.415006 -0.056836 21.4131
0.738762 -0.193518 20.9081
1.12741 -0.00548697 20.4313
0.818792 -0.0357368 21.1389
0.817323 0.184342 6.47144
1.26906 -0.327247 20.5723
1.4289 0.00720866 20.1166
0.768247 -0.097769 20.8685
1.66806 0.247492 13.585
1.30977 -0.37448 20.2415
0.723935 -0.168392 20.3307
-0.813696 0.257352 19.8665
-1.11205 0.877458 18.7879
-0.802059 0.560674 19.6796
-0.483765 0.201432 19.6206
-1.99171 0.965666 19.9704
-1.17296 0.178339 20.8107
-2.93084 1.39971 20.6301
-1.47086 0.757025 20.7023
-1.91915 -0.0716958 21.3395
-0.516098 -0.113843 21.4739
-0.53804 0.55238 11.2206
-0.98808 0.159565 21.7771
-0.11213 -0.297784 21.6991
0.325013 -0.202158 21.4024
1.32446 0.304805 12.7256
0.283334 -0.378443 21.5061
0.783052 -0.51469 21.1188
0.667752 -0.291971 21.0024
1.37765 -0.64445 16.4948
0.617709 -0.607916 21.002
0.8638 -0.619711 20.8142
0.517532 -0.314229 20.6611
1.1747 -0.746102 19.4847
0.509338 -0.592739 20.4854
0.55064 -0.379661 19.7795
1.48265 -0.616985 18.3255
-0.00395548 -1.39934 17.1252
-0.0183129 -0.673072 16.6965
-0.00843635 -0.211071 18.9078
-0.0549992 -7.47103 5.68504
-0.144242 -0.357273 4.31569
0 0 0
0 0 0
-0.114748 -0.020482 5.63328
0 0 0
0 0 0
-0.613746 0.203923 6.09999
-0.0338106 0.157766 1.84288
-0.0793789 -0.253494 0.418117
-1.15779 0.900116 12.0126
-0.0863653 0.325133 4.56523
-0.00706357 -0.398055 -2.58193
0.165676 0.0973049 2.42848
-1.24686 0.724815 14.1215
0.0681498 1.0161 10.1586
0.0635658 0.3568 2.6974
0.0509887 0.273394 10.3072
1.55096 0.0745064 18.0506
-0.0115665 0.876472 16.9007
-0.00801038 0.00362688 18.8744
-0.828853 0.195894 6.61898
-0.0143145 -0.296874 -1.70447
0.292151 -0.834992 -2.04837
-1.41957 0.246733 13.3368
-0.134816 -1.31727 2.71755
0.0718961 -0.132322 6.82951
1.11184 0.876878 18.7866
0.00665735 1.33252 18.7918
0.00438944 0.388449 19.0643
0.0147356 5.29807 18.8383
2.92857 1.36618 20.6324
0.0233456 2.70209 20.2353
0.0380673 3.34368 8.12755
0.59172 0.499728 11.5542
0.00373772 1.0011 14.7047
0 0 0
-1.32906 0.306874 12.6695
-0.000233003 -0.473027 14.0242
-0.0347652 0.158518 1.04204
-1.38036 -0.625238 16.5452
0.000261166 -0.975286 16.4198
-0.0484443 -0.83043 6.26554
-1.00968 -0.752354 19.0059
0.0930177 -0.725384 17.8474
-0.00091586 -0.957659 10.7979
0.909894 -0.145342 19.8808
1.23186 -0.419788 19.4183
1.34153 -0.206974 19.2831
0.555908 -0.0898115 19.5709
2.64794 -0.770827 20.1912
1.01097 -0.292579 21.0101
1.20488 -0.575407 21.4045
1.42531 -0.592237 21.4935
0.483835 -0.525047 21.5714
0.193181 -0.171079 21.4021
0.0360714 -0.160334 21.5683
0.0488309 -0.329347 21.3859
-0.253162 0.0166247 21.412
-0.394217 0.0515736 21.3913
-0.621783 0.271125 21.3618
-0.708283 0.113545 20.8947
-1.04531 0.318081 20.7038
-0.763231 0.118356 21.0467
-1.09489 0.491403 20.8065
-1.30309 0.250932 20.6007
-1.2744 0.331012 20.3258
-0.744455 0.101132 20.7339
-1.17262 0.513284 20.1673
-1.19324 0.301283 20.3377
-0.901703 0.0728049 20.3188
0.937451 -0.012705 19.8259
1.27358 0.275682 19.2652
0.560636 0.014641 19.546
3.24726 0.0279517 20.0228
1.13154 -0.176748 20.9809
1.79615 -0.0483775 21.2798
0.942135 -0.689823 21.4679
0.289194 -0.232411 21.4518
0.4627 -0.640653 21.5697
-0.272464 -0.193356 21.0771
-0.411303 -0.0573361 21.415
-0.733239 -0.192747 20.9268
-1.11372 -0.00395698 20.4553
-0.804991 -0.0306165 21.0863
-1.24628 -0.320107 20.6732
-1.38975 -0.0268759 20.4251
-0.80633 -0.117113 20.52
-1.06952 -0.247784 20.2998
-0.887991 -0.21874 20.1072
0.816625 0.255774 19.8682
0.798612 0.551992 19.6874
0.47968 0.206715 19.6235
1.97578 0.950195 19.9728
1.16648 0.177671 20.8163
1.45364 0.741189 20.7031
1.89438 -0.0743921 21.3344
0.51549 -0.114557 21.4702
0.975873 0.157234 21.7656
0.114333 -0.295098 21.7011
-0.321731 -0.199718 21.4004
-0.289183 -0.37825 21.5105
-0.778634 -0.510509 21.1089
-0.660961 -0.295875 21.0408
-0.604065 -0.605136 21.0112
-0.910469 -0.584324 20.8424
-0.569935 -0.262538 20.9368
-0.525027 -0.612466 20.7485
-0.383278 -0.323018 20.0219
-1.29091 -0.310018 19.3408
-1.29046 -0.590254 21.4487
-0.0226951 -0.240346 21.5007
0.682383 0.189339 21.1633
1.21838 0.384757 20.6072
1.06348 0.296938 20.5724
-1.36103 0.0339783 19.2378
-1.7069 -0.389582 21.5082
-0.173206 -0.493892 21.1955
0.733829 -0.0436072 20.7291
1.32993 -0.0368333 20.3696
1.28025 -0.0887271 20.1854
-1.06225 0.481446 19.4578
-1.80565 0.371487 20.909
-1.00466 -0.276892 21.8459
0.496444 -0.393662 21.373
0.901178 -0.643629 20.9408
1.12322 -0.441463 20.0193
-0.0115113 -1.0378 16.851
0 0 0
0 0 0
0 0 0
-0.057613 -0.0301508 0.927093
0.0694296 0.694528 6.46546
-0.0174595 0.167459 16.5191
0.0280234 -0.471093 -3.32239
-0.0189481 -0.422128 2.57012
0.00477002 1.38843 17.9258
0.011835 2.9191 19.8518
0 0 0
0.00116093 0.204913 -0.202817
-0.0330299 -0.426606 4.30542
-0.186914 -1.7247 8.36039
1.29834 -0.309416 19.3368
1.28988 -0.584786 21.4455
0.0195287 -0.240114 21.5018
-0.684982 0.19285 21.1167
-1.2121 0.370685 20.6832
-1.2042 0.407998 20.1465
1.37288 0.0382659 19.2247
1.71138 -0.390169 21.5146
0.173246 -0.493929 21.2069
-0.726673 -0.0420783 20.7488
-1.31518 -0.0352543 20.4827
-1.17176 0.0931237 20.7145
1.05984 0.483291 19.4597
1.79169 0.364425 20.9058
0.997575 -0.274187 21.8428
-0.496098 -0.38924 21.3672
-0.896052 -0.630103 20.9342
-0.911867 -0.465847 19.5347
-3.24962 0.417461 2.50653
-0.396712 -1.59741 1.0311
-0.0273669 0.00163439 0.353439
0.154886 0.0286389 0.608246
-0.0176584 -0.00456609 -0.00359141
0.0226513 -0.00302459 0.266186
-2.80839 0.671107 2.70234
-1.89519 7.8776 3.70184
-0.18883 -0.149531 1.42583
0.0238223 -0.0580326 0.719699
-0.0661285 0.0319758 -0.0327772
0.296575 0.193672 1.43196
0.409244 -1.62213 1.05915
3.21457 0.420486 2.48329
0.0272307 0.00186032 0.352585
0.0178748 -0.00564571 -0.00437024
-0.144884 0.0262363 0.584631
-0.0226089 -0.00272103 0.268102
1.90795 7.91791 3.73815
2.81529 0.665806 2.73271
0.183733 -0.146749 1.42753
0.0618182 0.0401111 -0.0396032
-0.0137178 -0.0575931 0.7149
-0.305569 0.198116 1.45702
0.00954454 -0.00886322 0.0614178
7.68463e-05 0.000905678 0.0498948
0.00204569 -0.0113843 0.172103
0 0 0
0.0191833 -0.00457756 0.64295
-0.000845766 0.00292765 0.0488164
0 0 0
-3.96187e-05 -0.0378378 0.434828
-0.0491478 -0.0377693 0.112008
-0.000288931 -0.00111279 0.0097915
0.0589534 0.0999279 0.450097
-0.0599906 0.00960706 0.0455783
0.161449 0.313907 0.971587
0.000226649 0.00192809 0.00737897
0.186554 0.266537 0.773633
0.0143565 -0.0405507 0.102585
-0.00972144 -0.00898001 0.0625922
0 0 0
-0.000172146 0.000892006 0.0497934
-0.00205372 -0.0114687 0.173471
-0.0153046 -0.000963333 0.611945
7.41742e-06 -0.00135901 0.0162998
0.000759521 0.00268231 0.0485377
0 0 0
0.0476285 -0.038811 0.112888
0.0560636 0.00891169 0.0423091
0.000280258 -0.00108587 0.00956711
-0.0589145 0.0998664 0.449543
-0.165745 0.321071 0.977667
-0.0143198 -0.0413046 0.104732
-0.000268913 0.0022955 0.00880914
-0.179117 0.269481 0.773832
0 0 0
0 0 0
6.9759e-05 -0.000433305 0.00835775
0 0 0
0 0 0
0.00761244 -0.0178533 0.12195
-8.29454e-06 -1.32313e-05 -0.000272052
-0.0183755 0.00451687 -0.00322034
0 0 0
-0.0114659 -0.112156 -0.125257
2.06873e-18 -1.74058e-18 3.01474e-17
0 0 0
-0.00145764 0.131364 0.0335924
0.000142714 0.0330319 0.252521
0 0 0
-0.00152636 0.000299556 0.00390542
-0.000790426 0.0118478 -0.00598084
-0.000120081 0.00107091 -0.013313
0.000306381 0.00112706 0.00769477
0.000127777 1.65324e-05 -0.000363468
0 0 0
0 0 0
-0.00689487 -0.0161539 0.112354
0 0 0
0.0215321 0.00645266 -0.004286
0 0 0
0 0 0
-0.00101035 -0.000911455 0.0161525
0.000834003 0.000166971 0.00213247
0 0 0
-0.000140289 1.77242e-05 -0.000391108
-0.000290433 0.00109585 0.00728658
-4.88327e-05 0.000403074 0.00382777
0 0 0
-0.00051999 -0.00720134 0.022139
7.1573e-07 7.56122e-06 5.66825e-05
0 0 0
0 0 0
8.97062e-05 0.00135223 0.00718232
0.00192703 0.00709676 0.0521459
-4.42181e-08 -4.79065e-07 -7.73487e-05
0 0 0
0 0 0
0.0277726 0.0123573 0.295616
0 0 0
6.14464e-05 0.0106208 0.115572
-5.76208e-05 -0.000146386 0.00649218
4.44709e-06 0.00275274 -0.00489602
0 0 0
3.68012e-05 0.000303286 0.00289125
0.000537889 -0.00724742 0.0222622
-3.56179e-06 3.75852e-05 0.000282166
-0.000106375 0.00150858 0.00844855
-0.00164162 0.00613911 0.0445307
-0.0289185 0.0127333 0.298768
-5.18391e-05 0.000368177 0.00155528
-0.0178276 0.0180225 0.147669
-0.00129916 -0.00229861 0.016239
0.00485706 -0.013596 0.0490296
-0.00136545 -0.00977572 0.0298569
-0.000219816 0.00342733 0.0583484
0.000316929 0.00216728 0.0123206
-0.000513305 0.00372799 0.0325966