# vtk DataFile Version 2.0
tet_velo
ASCII
DATASET UNSTRUCTURED_GRID
POINTS 29498 float
-0.675 0.175 -1.94975
-0.615 0.265 2.04022
-0.665 0.505 -1.92598
-0.655 0.605744 2.035
0.675 0.175 -1.9492
0.615 0.265 2.04016
0.666115 0.505 -1.925
0.655 0.605727 2.035
-0.711131 0.148869 -0.61976
-0.7172 0.1528 0.71023
-0.820126 0.69704 -0.605653
-0.81055 0.724379 0.714674
0.711203 0.148797 -0.619414
0.71734 0.15266 0.710373
0.819705 0.695871 -0.605
0.810509 0.723955 0.715
-1.43208 -0.116586 -3.01645
-1.42653 -0.0704756 -1.95645
-1.45169 -0.0839052 -0.626189
-1.43847 -0.0828529 0.706076
-1.36377 -0.0123661 2.0365
-1.34472 0.0155856 3.09734
-1.35274 0.0231739 4.15664
-1.42656 0.100783 -3.00799
-1.42638 0.170556 -1.94906
-1.47205 0.174645 -0.620664
-1.44793 0.16219 0.70866
-1.33372 0.209746 2.03724
-1.32377 0.234626 3.09793
-1.34248 0.244798 4.15754
-1.4248 0.504881 -2.98836
-1.43835 0.574633 -1.92909
-1.54838 0.700033 -0.607299
-1.52297 0.701692 0.71388
-1.37868 0.626751 2.03587
-1.35012 0.650372 3.09698
-1.35888 0.680647 4.15816
-1.43648 1.23423 -2.96608
-1.45285 1.31523 -1.90821
-1.50355 1.43018 -0.589662
-1.52675 1.46514 0.726843
-1.49503 1.42303 2.04552
-1.45802 1.40153 3.10369
-1.43349 1.40699 4.16386
-0.712228 -0.116493 -3.01681
-0.692911 -0.0679953 -1.95713
-0.712467 -0.0981264 -0.62588
-0.722037 -0.0881925 0.707414
-0.67446 0.0182739 2.03871
-0.655401 0.0355829 3.09886
-0.658046 0.0322655 4.15756
-0.707614 0.0938964 -3.00788
-0.631683 0.253342 3.09919
-0.647515 0.251817 4.15824
-0.700924 0.474465 -2.98683
-0.6501 0.645414 3.09685
-0.658743 0.678193 4.15819
-0.69478 1.21642 -2.96461
-0.698457 1.30003 -1.90663
-0.743344 1.43016 -0.588651
-0.782113 1.47042 0.726911
-0.772918 1.41939 2.04496
-0.743121 1.39457 3.10312
-0.720243 1.40107 4.16347
0.692006 -0.116662 -3.01625
0.698613 -0.0680977 -1.95663
0.717685 -0.0982569 -0.62553
0.700866 -0.0883369 0.707589
0.637589 0.0182075 2.03875
0.675129 0.0354957 3.09892
0.706921 0.0321383 4.15767
0.681848 0.0937577 -3.00726
0.679227 0.253278 3.09922
0.711269 0.251699 4.15834
0.69084 0.474289 -2.98608
0.690987 0.645332 3.09691
0.71394 0.678061 4.1583
0.770132 1.21602 -2.96399
0.789741 1.29956 -1.90602
0.785845 1.4296 -0.588148
0.736595 1.46999 0.727262
0.689707 1.41911 2.0452
0.689485 1.39435 3.10331
0.703339 1.40086 4.16366
1.40872 -0.117027 -3.01537
1.4191 -0.0708971 -1.95544
1.44941 -0.0843544 -0.62544
1.42914 -0.0832098 0.706496
1.35372 -0.0125852 2.03669
1.36694 0.0153588 3.09753
1.39916 0.0228916 4.1569
1.40032 0.100352 -3.0068
1.41373 0.170083 -1.94794
1.46697 0.174055 -0.619852
1.45204 0.161805 0.709075
1.34661 0.209575 2.03736
1.36508 0.23443 3.09807
1.40069 0.244529 4.15777
1.41577 0.504355 -2.987
1.43581 0.57394 -1.92766
1.54718 0.698717 -0.606235
1.52521 0.701008 0.71445
1.38726 0.626502 2.03607
1.38416 0.650136 3.09716
1.4088 0.680348 4.15841
1.5007 1.23343 -2.96489
1.52525 1.3143 -1.90705
1.53678 1.42914 -0.588693
1.49291 1.46431 0.727541
1.43187 1.42246 2.04601
1.41546 1.40106 3.1041
1.42072 1.40654 4.16426
-0.673983 0.34 -1.94185
0 0.176981 -1.94749
-0.728329 0.126671 -1.28476
-0.645855 0.435372 2.04847
0 0.228007 2.07718
-0.709158 0.165842 1.37523
0.000557482 0.594891 -2.01538
-0.831344 0.689801 -1.26582
0 0.67065 2.09991
-0.832529 0.764815 1.37484
0.676585 0.34 -1.94313
0.728358 0.126642 -1.28431
0.645828 0.435364 2.04841
0.709178 0.165822 1.37527
0.831506 0.689031 -1.265
0.832589 0.764676 1.375
-0.715332 0.149668 0.045235
-0.816105 0.422955 -0.612707
3.58485e-05 0.173865 -0.619587
-0.873798 0.43859 0.712452
7.03589e-05 0.171707 0.710302
-0.817468 0.71284 0.0545101
-0.000210293 0.989792 -0.605327
-2.065e-05 1.22974 0.714837
0.711891 0.153109 0.04548
0.815565 0.422334 -0.612207
0.870183 0.438307 0.712687
0.817409 0.712215 0.0550001
-0.833977 0.381477 -1.27529
-0.822438 0.430772 0.0498725
-0.888621 0.436981 1.37503
1.79243e-05 0.151558 -1.28453
5.31037e-05 0.174247 0.0453575
3.51794e-05 0.194386 1.37525
0.000278741 0.34 -2.10752
0 0.435368 2.1119
0.000173595 0.829419 -1.26541
-0.000115472 1.27494 0.0547551
-1.0325e-05 1.03182 1.37492
0.833982 0.381167 -1.27465
0.822157 0.430321 0.05024
0.888623 0.436835 1.37513
-1.05069 0.172778 -1.9494
-0.683956 0.0535024 -1.95344
-0.691307 0.134448 -2.47881
-0.974361 0.237373 2.03873
-0.64473 0.141637 2.03947
-0.623342 0.259171 2.56971
-1.05167 0.539817 -1.92754
-0.682962 0.489732 -2.45641
-0.681729 0.902517 -1.91631
-1.01684 0.616247 2.03544
-0.65255 0.625579 2.56592
-0.713959 1.01257 2.03998
0.686807 0.0534512 -1.95291
0.678424 0.134379 -2.47823
1.04436 0.172541 -1.94857
0.626295 0.141604 2.03945
0.647114 0.259139 2.56969
0.980807 0.237288 2.03876
0.678478 0.489645 -2.45554
0.727928 0.90228 -1.91551
1.05096 0.53947 -1.92633
0.672993 0.625529 2.56595
0.672353 1.01242 2.0401
1.02113 0.616115 2.03553
-1.09159 0.161757 -0.620212
-0.711799 0.0253713 -0.62282
-1.08257 0.157495 0.709445
-0.719618 0.0323039 0.708822
-1.18425 0.698537 -0.606476
-0.781735 1.0636 -0.597152
-1.16676 0.713036 0.714277
-0.796332 1.0974 0.720792
0.714444 0.0252702 -0.622472
1.08908 0.161426 -0.619633
0.709103 0.0321613 0.708981
1.08469 0.157232 0.709724
0.802775 1.06274 -0.596574
1.18344 0.697294 -0.605618
0.773552 1.09697 0.721131
1.16786 0.712481 0.714725
-1.42931 -0.0935306 -2.48645
-1.42932 -0.00790137 -3.01222
-1.07216 -0.116539 -3.01663
-1.43911 -0.0771904 -1.29132
-1.42646 0.0500404 -1.95275
-1.05972 -0.0692354 -1.95679
-1.44508 -0.0833791 0.0399433
-1.46187 0.0453697 -0.623427
-1.08208 -0.0910158 -0.626035
-1.40112 -0.0476095 1.37129
-1.4432 0.0396687 0.707368
-1.08025 -0.0855227 0.706745
-1.35424 0.00160973 2.56692
-1.34874 0.0986899 2.03687
-1.01911 0.00295389 2.03761
-1.34873 0.0193797 3.62699
-1.33424 0.125106 3.09763
-1.00006 0.0255842 3.0981
-1.34761 0.133986 4.15709
-1.00539 0.0277197 4.1571
-1.42647 0.13567 -2.47852
-1.42568 0.302832 -2.99817
-1.06709 0.0973396 -3.00793
-1.44921 0.1726 -1.28486
-1.43236 0.372595 -1.93908
-1.45999 0.168417 0.043998
-1.51021 0.437339 -0.613982
-1.39083 0.185968 1.37295
-1.48545 0.431941 0.71127
-1.32874 0.222186 2.56759
-1.3562 0.418248 2.03656
-1.33312 0.239712 3.62773
-1.33695 0.442499 3.09745
-0.977725 0.243984 3.09856
-1.35068 0.462722 4.15785
-0.994997 0.248308 4.15789
-1.43157 0.539757 -2.45873
-1.43064 0.869558 -2.97722
-1.06286 0.489673 -2.9876
-1.49336 0.637333 -1.2682
-1.4456 0.944932 -1.91865
-1.53567 0.700862 0.0532906
-1.52596 1.06511 -0.59848
-1.45082 0.664221 1.37488
-1.52486 1.08341 0.720361
-1.3644 0.638561 2.56642
-1.43686 1.02489 2.0407
-1.3545 0.665509 3.62757
-1.40407 1.02595 3.10033
-1.00011 0.647893 3.09691
-1.39619 1.04382 4.16101
-1.00881 0.67942 4.15818
-1.44466 1.27473 -2.43714
-1.06563 1.22533 -2.96535
-1.4782 1.3727 -1.24893
-1.07565 1.30763 -1.90742
-1.51515 1.44766 0.0685904
-1.12345 1.43017 -0.589157
-1.51089 1.44408 1.38618
-1.15443 1.46778 0.726877
-1.47653 1.41228 2.57461
-1.13398 1.42121 2.04524
-1.44575 1.40426 3.63377
-1.10057 1.39805 3.1034
-1.07687 1.40403 4.16367
-0.70257 -0.092244 -2.48697
-0.709921 -0.0112982 -3.01234
-0.0101111 -0.116577 -3.01653
-0.702689 -0.0830608 -1.2915
0.00285114 -0.0680465 -1.95688
-0.717252 -0.0931594 0.0407672
0.00260903 -0.0981916 -0.625705
-0.698248 -0.0349593 1.37306
-0.0105853 -0.0882647 0.707502
-0.66493 0.0269284 2.56879
-0.0184351 0.0182407 2.03873
-0.656723 0.0339242 3.62821
-0.643542 0.144462 3.09902
0.00986435 0.0355393 3.09889
-0.652781 0.142041 4.1579
0.0244374 0.0322019 4.15762
-0.704269 0.284181 -2.99735
-0.0128829 0.093827 -3.00757
-0.639599 0.25258 3.62872
-0.640892 0.449378 3.09802
0.0237719 0.25331 3.09921
-0.653129 0.465005 4.15822
0.031877 0.251758 4.15829
-0.697852 0.845441 -2.97572
-0.00504189 0.474377 -2.98646
-0.654421 0.661804 3.62752
-0.696611 1.01999 3.09998
0.0204436 0.645373 3.09688
-0.689493 1.03963 4.16083
0.0275984 0.678127 4.15825
-0.696619 1.25823 -2.43562
0.0376763 1.21622 -2.9643
-0.720901 1.3651 -1.24764
0.0456419 1.2998 -1.90633
-0.762729 1.45029 0.0691298
0.0212505 1.42988 -0.5884
-0.777516 1.4449 1.38594
-0.0227589 1.4702 0.727087
-0.75802 1.40698 2.57404
-0.0416058 1.41925 2.04508
-0.731682 1.39782 3.63329
-0.0268183 1.39446 3.10321
-0.00845187 1.40097 4.16357
0.69531 -0.0923799 -2.48644
0.686927 -0.0114522 -3.01176
1.05036 -0.116845 -3.01581
0.708149 -0.0831773 -1.29108
1.05886 -0.0694974 -1.95603
0.709276 -0.0932969 0.0410296
1.08355 -0.0913056 -0.625485
0.669228 -0.0350647 1.37317
1.065 -0.0857734 0.707042
0.656359 0.0268516 2.56883
0.995655 0.00281111 2.03772
0.691025 0.033817 3.62829
0.677178 0.144387 3.09907
1.02103 0.0254272 3.09822
0.709095 0.141919 4.15801
1.05304 0.027515 4.15728
0.686344 0.284023 -2.99667
1.04109 0.0970547 -3.00703
0.695248 0.252488 3.62878
0.685107 0.449305 3.09806
1.02216 0.243854 3.09865
0.712605 0.46488 4.15832
1.05598 0.248114 4.15805
0.730486 0.845155 -2.97504
1.0533 0.489322 -2.98654
0.702463 0.661696 3.6276
0.690236 1.01984 3.10011
1.03757 0.647734 3.09703
0.708639 1.03946 4.16098
1.06137 0.679205 4.15836
0.779937 1.25779 -2.43501
1.13541 1.22473 -2.96444
0.787793 1.36458 -1.24709
1.1575 1.30693 -1.90653
0.76122 1.4498 0.0695569
1.16131 1.42937 -0.588421
0.713151 1.44455 1.38623
1.11475 1.46715 0.727402
0.689596 1.40673 2.57425
1.06079 1.42078 2.0456
0.696412 1.3976 3.63349
1.05247 1.3977 3.10371
1.06203 1.4037 4.16396
1.41391 -0.093962 -2.4854
1.40452 -0.00833761 -3.01108
1.43425 -0.0776257 -1.29044
1.41641 0.0495929 -1.95169
1.43927 -0.0837821 0.0405279
1.45819 0.0448502 -0.622646
1.39143 -0.0478975 1.37159
1.44059 0.0392975 0.707785
1.36033 0.00138678 2.56711
1.35017 0.0984951 2.03702
1.38305 0.0191252 3.62721
1.36601 0.124895 3.0978
1.39992 0.13371 4.15733
1.40702 0.135217 -2.47737
1.40804 0.302353 -2.9969
1.44035 0.172069 -1.2839
1.42477 0.372012 -1.9378
1.4595 0.16793 0.0446115
1.50708 0.436386 -0.613044
1.39933 0.18569 1.37322
1.48863 0.431406 0.711762
1.35585 0.222003 2.56772
1.36694 0.418039 2.03672
1.38289 0.23948 3.62792
1.37462 0.442283 3.09762
1.40475 0.462439 4.15809
1.42579 0.539147 -2.45733
1.45823 0.868895 -2.97594
1.4915 0.636329 -1.26695
[...]
POINT_DATA 29498
VECTORS point_vectors float
-2.91482 -7.02042 10.3494
0.120338 0.0545605 0.277325
-3.02015 1.35104 3.34836
-0.076065 -0.135857 0.0969137
2.88636 -7.10517 10.4394
-0.11997 0.053652 0.2739
2.37577 1.10994 2.90953
0.0779519 -0.137857 0.0974924
0.00040079 0.00509815 0.0848207
0.0146728 0.00238754 0.247696
-0.00618438 -0.0240138 0.195081
0.062452 0.0997323 0.221155
-0.000534518 0.00579491 0.0966875
-0.0136663 0.00223098 0.256157
0.00618364 -0.0264069 0.205798
-0.0469504 0.0750076 0.163811
-0.561827 -0.252491 19.8029
-1.30915 -0.752034 20.3546
-0.452757 -0.500471 21.2481
0.0228965 -0.248576 21.4138
0.859927 0.202068 21.4086
1.2127 0.306832 20.9108
0.859315 0.175011 20.6746
-0.650534 -0.185411 19.7106
-1.69604 -0.610255 20.2755
-0.614219 -0.552752 21.2919
-0.0630024 -0.346578 21.4805
1.0498 -0.0256831 21.4408
1.33231 0.102489 21.0028
0.921996 0.121333 20.8176
-0.707394 -0.0152517 19.6307
-1.89567 -0.0102731 20.1545
-1.03684 -0.332863 21.2126
-0.273129 -0.314513 21.4941
0.850073 -0.52136 21.4354
1.21938 -0.563312 20.9432
1.00516 -0.528661 20.2898
-0.574116 0.278981 19.7772
-1.17627 0.597501 20.1611
-1.10929 0.301764 21.02
-0.41425 -0.0833449 21.3855
0.151211 -0.442967 21.2726
0.416699 -0.571147 20.9966
0.474771 -0.690644 20.5791
-0.545823 -0.544497 19.271
-1.90695 -3.93991 20.5715
-0.0597055 -0.165894 19.7299
0.296113 0.0510068 18.0165
0.198548 1.33811 14.7299
0.985138 1.81371 17.1069
0.824192 1.35029 18.4651
-0.639663 -0.429201 19.0301
1.95048 1.59458 10.3827
1.69758 1.10735 14.3796
-0.752971 -0.0311489 18.8097
1.84797 -0.225641 6.79315
2.14599 0.284806 11.7251
-0.531104 0.587084 19.2687
-1.4943 2.10397 19.5572
-2.16533 1.92466 20.8626
-0.714785 0.191082 22.032
-0.173705 -0.502492 20.1901
0.293517 -1.08625 19.7506
0.248094 -1.0157 20.1691
0.535414 -0.551749 19.2578
1.92958 -3.89591 20.5548
0.0627361 -0.158658 19.762
-0.293243 0.0475396 17.7985
-0.0863614 1.26187 14.1882
-1.04598 1.79515 17.229
-0.844105 1.21484 18.7583
0.630705 -0.438457 19.0076
-2.03338 1.6039 11.3167
-1.73304 0.943555 14.7398
0.745202 -0.0306362 18.7935
-1.90327 -0.316927 7.75896
-2.10122 0.177451 13.0413
0.575661 0.558321 19.3258
1.55035 1.87512 19.6524
2.14386 1.74878 20.916
0.732842 0.230013 22.1049
0.166899 -0.44442 19.7019
-0.244973 -1.03549 19.7914
-0.24372 -1.01979 20.1395
0.567869 -0.262816 19.7928
1.32376 -0.765197 20.3534
0.448749 -0.499831 21.2499
-0.0211817 -0.253561 21.4191
-0.865411 0.20686 21.4136
-1.17397 0.27866 20.9324
-0.862326 0.140054 20.5689
0.659321 -0.193469 19.6954
1.72934 -0.626029 20.2655
0.606586 -0.554952 21.2954
0.0687476 -0.344958 21.4736
-1.02597 -0.0322466 21.4396
-1.26893 0.0634129 20.9929
-0.920006 0.0673235 20.6849
0.71109 -0.0164272 19.6241
1.90144 -0.012955 20.1559
1.03152 -0.337101 21.2129
0.275158 -0.312859 21.4914
-0.834154 -0.515259 21.436
-1.16067 -0.55364 20.9432
-0.935232 -0.448286 20.3698
0.55844 0.257096 19.8116
1.10923 0.508987 20.1943
1.06488 0.270703 21.015
0.43656 -0.0798896 21.4134
-0.132553 -0.475117 21.2905
-0.403799 -0.61961 21.0056
-0.492038 -0.711947 20.5523
-8.66647 1.42955 3.5223
5.9451e-05 -0.00532356 0.151343
-0.0145281 -0.00319492 0.643683
0.0450257 -0.0302438 0.0355446
-0.000397929 0.033693 0.233048
-0.0170846 0.0197057 0.679815
-0.000664933 0.331271 0.578857
-0.122789 -0.140964 1.15878
-0.00189942 0.00271032 -0.0129762
0.0101305 -0.0130939 0.133967
3.20375 -0.48746 2.07662
0.0152422 -0.00340626 0.650342
-0.0449801 -0.0307709 0.0355253
0.0156631 0.0176576 0.682668
0.12186 -0.14353 1.16283
-0.0104543 -0.0135573 0.138936
0.00544976 0.00131086 0.158448
0 0 0
5.52391e-05 0.000636141 0.0229382
-0.0165291 0.00705985 0.0795878
-0.000129555 -0.000183684 0.0704407
0.0283286 0.0588075 0.267862
0.000201987 0.0329122 0.0823478
-1.67711e-05 -0.00351403 0.0518471
-0.0102277 0.00111935 0.193074
0 0 0
0 0 0
-0.0268474 0.0567078 0.260131
-7.10127e-06 -9.17654e-06 0.000301431
-4.84168e-05 0.000549304 0.00424114
0 0 0
0 0 0
0 0 0
8.48415e-07 3.17976e-06 0.0001122
-0.00365073 -0.32219 0.0672087
0 0 0
4.80359e-05 0.000518987 0.00253988
-7.5616e-05 0.0558849 0.329562
3.59232e-05 0.000448683 -0.00129742
5.30904e-06 -7.48895e-06 0.000238457
2.99569e-05 0.000320173 0.002485
0 0 0
-3.31661 -1.73974 19.9735
-3.00389 -6.26289 20.6848
-1.79745 -1.47004 17.8951
1.5406 0.843317 15.1286
-0.0117248 1.03072 7.02385
1.25962 0.823404 6.6156
-4.18426 0.216236 19.5632
-2.28342 0.185765 17.0822
-3.10259 3.61368 18.5743
1.33991 -0.476424 15.1934
0.295282 -0.708839 2.8298
-0.255911 -0.579542 8.08555
3.04609 -6.21033 20.666
1.80244 -1.50239 17.8466
3.37034 -1.77631 19.9633
0.0775164 0.97279 6.74725
-1.33253 0.875901 7.09265
-1.53773 0.81259 15.4547
2.28871 0.193924 17.0465
3.2061 3.28805 18.7072
4.18897 0.209278 19.5798
-0.374519 -0.775619 3.40617
0.556827 -0.612521 5.96487
-1.34108 -0.442639 15.5315
-0.23442 -0.875331 20.829
0.0412281 0.247928 12.3083
-0.100801 -0.450594 19.3552
0.510791 0.0464912 12.025
-1.53075 -0.878632 21.5618
-4.27187 1.02375 19.5776
-0.315164 -0.301486 20.2839
0.301042 0.636056 14.0387
-0.0357672 0.255129 12.3699
0.211834 -0.864682 20.8121
-0.477275 0.0557343 11.8806
0.114134 -0.464183 19.4433
4.14753 0.876927 19.8075
1.51769 -0.894238 21.5598
-0.518898 0.908939 12.46
0.319798 -0.302799 20.3059
-0.938864 -0.483783 19.8932
-0.612294 -0.228108 19.758
-0.588932 -0.369152 19.5777
-0.952327 -0.700448 21.0634
-1.51942 -0.690997 20.3145
-1.95698 -1.7361 20.2978
-0.184504 -0.36193 21.2938
-0.539995 -0.539504 21.2624
-0.192769 -0.60925 21.501
0.386545 -0.0480652 21.5652
-0.0186607 -0.307145 21.4454
0.178394 -0.300456 21.3302
1.06028 0.259426 21.186
0.932623 0.104102 21.4454
1.16954 0.847192 20.2166
1.12408 0.349655 20.8509
1.27549 0.201538 20.9776
1.49178 0.917383 20.0587
0.898844 0.14114 20.7467
0.956206 0.54126 20.8065
-1.18138 -0.362502 19.7471
-0.677847 -0.119958 19.6708
-0.684885 -0.298673 19.4353
-1.23379 -0.671524 21.1159
-1.90725 -0.368048 20.2098
-0.284273 -0.445971 21.3463
-0.844934 -0.506417 21.2701
0.410868 -0.17967 21.6674
-0.186358 -0.359977 21.5108
1.253 0.0210011 21.2151
1.00839 -0.308343 21.4453
1.39351 -0.0181992 20.5425
1.39858 -0.210499 20.8516
2.05295 0.682988 17.9042
1.16437 -0.202307 20.586
1.30692 0.137616 19.8587
-1.32299 0.00672124 19.6519
-0.6895 0.164808 19.6613
-0.803989 -0.0164079 19.2901
-1.56201 -0.203132 20.9718
-1.61917 0.418494 20.118
-0.645082 -0.367993 21.3859
-1.19279 -0.00350586 21.1196
0.268475 -0.376028 21.655
-0.388211 -0.234451 21.464
1.06669 -0.554678 21.2727
0.385877 -0.59932 21.3626
1.10843 -0.476853 21.0826
0.831906 -0.760051 21.0456
1.91299 -0.553372 17.9785
0.58942 -0.61587 20.454
1.50848 -0.691484 19.3079
-0.879121 0.470113 19.8468
-0.572696 0.397063 19.5621
-1.24567 0.513266 20.6546
-1.50024 1.18654 19.9153
-0.801174 0.0960069 21.3165
-1.64814 0.75707 21.0759
-0.098974 -0.2762 21.3793
-0.582511 -0.0069633 21.6565
0.271374 -0.547299 21.1883
0.00789178 -0.578236 21.3907
0.44207 -0.537884 20.8755
0.351806 -0.842912 21.214
0.373054 -0.818401 20.5822
-1.24775 -1.57436 18.87
-0.588672 -0.49376 19.1604
-0.0118775 -0.742125 18.9359
-0.53787 -1.37429 21.6225
-0.00165128 -4.25743 21.8412
0.09339 -0.0557722 18.438
0.00413019 -0.130516 18.8786
0.273749 0.504525 16.1347
-0.00448351 0.0692263 16.9841
0.651827 1.53611 15.8994
-0.0102609 0.731134 12.9145
1.17556 1.60263 17.5271
1.42365 1.7406 14.4759
-0.0261778 1.42044 14.6008
1.21643 1.26538 16.5624
-0.10403 1.98991 16.7843
-0.705327 -0.250603 18.8675
-0.0243904 -0.592443 18.5482
1.98811 1.37413 12.9089
2.23196 0.825912 7.0879
-0.0270591 0.352184 4.23417
2.37934 0.696643 11.9279
-0.126052 2.04144 11.088
-0.660798 0.395132 18.9456
-0.0072844 -0.00441905 18.1864
2.22678 0.0474005 9.50503
0.509666 -1.15424 10.4876
-0.100268 0.638174 -3.26428
0.59612 -1.18949 12.4528
-0.0963655 1.49256 1.58739
-0.993001 1.28394 19.1004
0.0353037 0.761371 18.9914
-1.81077 2.01836 20.4387
0.113579 3.0629 19.2227
-1.83815 1.2046 22.1802
0.101663 4.23791 20.1602
-0.321669 -0.313128 21.3517
-0.0268928 0.350102 18.7712
0.0187259 -0.748141 19.8992
-0.0438386 0.126622 12.644
0.375222 -1.03903 19.5956
-0.00974889 -0.124792 10.8847
-0.00926705 -0.27709 12.1052
1.2451 -1.59109 18.8626
0.57908 -0.502843 19.142
0.594615 -0.385726 19.5622
0.545536 -1.3699 21.6178
1.96201 -1.73937 20.3002
-0.0916817 -0.0397857 18.3831
0.19285 -0.599611 21.4994
-0.259 0.484955 15.8775
-0.181006 -0.299253 21.3164
-0.629348 1.51851 15.8273
-1.1346 0.910782 19.9294
-1.2203 1.53428 17.7583
-1.5074 1.72492 14.8428
-1.4534 0.840115 20.3564
-1.2417 1.11518 16.8908
-0.919465 0.467617 21.3335
0.696571 -0.253854 18.8452
0.705306 -0.305486 19.4029
-2.05333 1.26876 13.2691
-2.29256 0.722928 8.1455
-1.98315 0.511865 18.6525
-2.25093 0.504476 13.2998
-1.25018 0.04051 20.5628
0.692475 0.37526 18.9789
0.811539 -0.0148638 19.2732
-2.16571 -0.0942555 10.5071
-0.479562 -1.14583 10.1451
-1.82038 -0.504788 18.7334
-0.625638 -1.16866 12.8636
-1.45696 -0.777138 19.9038
1.04007 1.17674 19.2249
0.575261 0.359215 19.6137
1.84257 1.83572 20.4859
1.46263 1.01218 19.9783
1.84295 1.20867 22.1784
1.59966 0.686649 21.0729
0.285797 -0.293882 20.8746
0.600158 0.00650058 21.6821
0.0125986 -0.709902 19.478
0.0373873 -0.614883 21.4143
-0.352523 -1.03189 19.486
-0.350897 -0.89558 21.2204
-0.365897 -0.826636 20.5665
0.953853 -0.496815 19.879
0.620675 -0.236809 19.7435
0.954305 -0.70515 21.0697
1.53872 -0.707614 20.3118
0.182368 -0.363212 21.2907
0.534208 -0.53952 21.2647
-0.387356 -0.0545724 21.5641
0.0240656 -0.309904 21.443
-1.04408 0.258163 21.1849
-0.927152 0.0977602 21.4434
-1.0773 0.279165 20.8803
-1.22687 0.160869 21.0045
-0.900736 0.097626 20.6285
1.20216 -0.374798 19.7231
0.686249 -0.125581 19.6576
1.24214 -0.68137 21.1274
1.92657 -0.375133 20.2068
0.282002 -0.446083 21.3388
0.837616 -0.512355 21.2713
-0.403731 -0.178915 21.6581
0.188478 -0.358374 21.5039
-1.20776 0.0100038 21.2039
-0.987701 -0.307066 21.449
-1.28025 -0.052355 20.711
-1.33406 -0.201977 20.8536
-1.0766 -0.152123 20.5901
1.33473 0.00540939 19.6448
0.679365 0.157221 19.6828
1.5615 -0.207648 20.9764
1.5489 0.377326 20.1479
0.64232 -0.370681 21.3814
1.16584 -0.0129731 21.1165
-0.262171 -0.373213 21.6464
0.397509 -0.232913 21.4797
-1.03051 -0.539909 21.2833
-0.386789 -0.632576 21.3743
-1.04359 -0.503011 21.2586
-0.833546 -0.766632 21.0444
-0.562151 -0.581409 20.4865
0.841518 0.415133 19.8988
1.18083 0.453927 20.6587
0.802624 0.0945861 21.3166
0.105426 -0.28906 21.4088
-0.254841 -0.576623 21.2268
-0.425475 -0.558172 20.9119
-1.08922 -0.458096 19.8226
-1.53602 -1.62144 18.3646
-1.18791 -0.872687 19.4978
-1.56513 -0.744549 19.1315
-0.646363 -0.348279 19.5109
-2.54145 -1.84324 20.1641
-1.10778 -0.696588 21.0995
-0.313617 -0.588699 14.373
-0.965119 -1.21277 21.5239
-1.49794 -1.44805 21.8377
-0.16867 -0.738475 21.43
-0.226756 -0.415705 21.3301
0.183436 0.0532233 11.9754
0.035389 -0.401449 21.3361
-0.0142584 -0.540424 19.8413
0.111901 -0.413453 20.6219
0.411223 -0.109367 21.6225
0.011224 0.322097 9.34948
0.578282 0.207797 20.945
0.524054 0.229381 17.596
1.34533 0.937402 18.1854
1.16036 0.138482 21.2033
0.70019 1.44247 10.8104
1.36707 0.879528 20.3166
1.77851 0.772244 17.0485
1.77398 0.796824 19.0091
1.28033 0.167465 20.6482
1.58184 1.48838 15.218
1.52073 0.953241 20.1524
1.80771 0.546177 18.5299
1.11618 0.373558 20.1337
-1.25851 -0.241045 19.6962
-2.19019 -0.784589 17.2698
-1.87009 0.0432772 18.8883
-0.748932 -0.167392 19.3486
-4.24443 -0.867834 19.6702
-1.45583 -0.493536 21.0767
-2.5307 -0.433637 21.5151
-0.835991 -1.04619 21.1562
-0.464715 -0.453284 21.3813
-0.774492 -0.822242 21.003
-0.35149 -0.27471 19.3846
0.364776 -0.307457 21.6951
0.56703 -0.115046 19.1905
1.56887 0.0175236 14.057
1.23745 -0.296692 21.2751
1.41027 -0.160747 4.01763
1.55262 -0.558879 16.9055
2.17183 0.0729659 17.7475
1.44457 -0.252535 20.1653
2.56258 1.04608 9.96034
1.74925 -0.40195 17.7361
1.66238 -0.350468 19.5238
-1.19611 0.307698 19.6995
-1.58834 1.33114 18.1876
-1.0223 0.784256 19.5419
-0.717008 0.254045 19.3827
-2.57329 1.25632 19.6706
-1.53286 0.244137 20.7912
-3.45477 2.19107 20.8114
-1.6746 1.05862 20.611
-2.09858 0.0252341 21.2857
-0.824476 -0.16426 21.3928
-1.8789 -0.245162 16.4995
-1.24461 0.380701 21.6015
-0.596542 -0.302589 21.7323
0.0302358 -0.38707 21.5095
0.659324 0.213039 12.6644
-0.185866 -0.334249 21.5496
0.391146 -0.956451 20.459
0.595756 -0.683464 21.2794
0.0594926 -0.789159 9.44918
0.167743 -0.714113 21.3229
0.920319 -1.00564 20.2815
0.849846 -0.738748 20.6376
0.663762 -1.17278 11.3996
0.467223 -0.946552 20.9566
0.985716 -1.24174 19.8022
1.53124 -1.64424 18.3398
-0.0117244 -2.60678 18.0816
-0.0283481 -2.7967 16.0454
-0.0143834 -0.727788 18.7572
-0.00495396 -4.1204 21.4286
0.323146 -0.592256 14.4227
0.000445794 -1.03622 20.5616
0.00914449 0.187807 10.7477
-0.202083 0.070599 11.8902
0.00488079 -0.0625795 17.6004
-0.0122491 0.0649257 10.3565
-0.0269593 0.296934 9.13168
-0.00343588 0.366814 14.7477
-0.00678389 0.468894 6.14337
-0.726596 1.45493 10.9817
-0.00773606 1.02196 13.7146
-0.0159266 0.0973276 2.8401
-0.0266184 0.886313 9.41751
-1.63681 1.40152 15.5137
-0.0504338 1.89353 15.9348
-0.0834676 1.36333 8.15621
-0.114988 1.99082 14.1698
2.18498 -0.790281 17.2208
-0.0114943 0.922592 14.4975
-0.0117552 -0.348157 18.3082
-1.45498 -0.217857 4.47714
0.00589585 0.539655 -2.95195
-0.0018624 0.491554 -0.499332
-2.4822 0.905887 11.0555
-0.137291 0.890608 -1.23567
-0.10993 2.1414 5.09569
1.61137 1.23554 18.2973
0.080579 1.86021 18.6661
0.0264299 0.562716 18.4559
0.100507 5.41958 18.208
3.39838 1.97882 20.9993
0.115673 3.25648 20.0758
0.0993476 4.34448 13.6234
1.87511 -0.242079 16.3732
-0.00448392 3.3937 22.5199
0 0 0
-0.706812 0.30262 10.9684
-0.021515 -0.0643846 14.771
-0.13415 0.918489 -3.30937
0.0633773 -0.770491 8.42597
-0.0439451 -0.167663 11.7673
0.0403398 1.6616 -7.78818
-0.668277 -1.16169 11.5145
-0.0373637 -0.526567 12.3101
0.0215497 0.276279 -2.6682
1.10762 -0.472898 19.8063
1.2 -0.897743 19.4794
1.59382 -0.77664 19.0814
0.659 -0.370166 19.4801
2.56372 -1.86501 20.1635
1.10948 -0.703425 21.1079
0.968993 -1.20695 21.5252
1.49131 -1.44536 21.8531
0.159975 -0.721264 21.3984
0.222882 -0.415795 21.328
-0.0409006 -0.394297 21.3314
0.000384778 -0.543533 19.8432
-0.105963 -0.421898 20.5724
-0.406776 -0.112521 21.6178
-0.576237 0.230318 20.8099
-0.527536 0.207458 17.7836
-1.32433 0.964966 17.9523
-1.13379 0.126121 21.1994
-1.3611 0.881773 20.2952
-1.77074 0.66656 17.8781
-1.71399 0.678997 19.4919
-1.2206 0.0923158 20.6906
-1.50999 0.88065 20.5834
-1.76563 0.430164 19.3171
-1.06835 0.289294 20.7671
1.2728 -0.249593 19.6813
1.89002 0.0462539 18.8711
0.755156 -0.172522 19.3229
4.28285 -0.875563 19.6738
1.45962 -0.50278 21.0849
2.52836 -0.449651 21.5237
0.809558 -1.05184 21.1353
0.461138 -0.455122 21.375
0.771586 -0.826431 20.9878
0.3577 -0.274354 19.4282
-0.359914 -0.304186 21.6912
-0.560886 -0.124907 19.2693
-1.56351 0.0256737 14.4157
-1.1915 -0.289308 21.2758
-1.53681 -0.533721 17.5791
-2.09697 -0.0665434 18.3623
-1.34339 -0.293164 20.5157
-1.70405 -0.376883 18.4989
-1.60594 -0.446477 20.1677
1.15518 0.282346 19.739
1.01328 0.692277 19.6131
0.707563 0.245442 19.4235
2.4447 1.10679 19.7604
1.4788 0.219664 20.7851
1.59909 0.938191 20.6197
2.03014 0.0189967 21.2759
0.824721 -0.165696 21.3909
1.24716 0.381562 21.601
0.606128 -0.30847 21.6636
-0.0384844 -0.400132 21.5301
0.212488 -0.337255 21.5715
-0.379919 -0.978848 20.2779
-0.593406 -0.702548 21.2916
-0.124724 -0.757969 21.3225
-0.919516 -1.01143 20.2579
-0.848103 -0.730506 20.6398
-0.48103 -0.973822 20.8578
-0.990843 -1.20757 19.8372
-1.37931 -0.843301 19.3449
-1.17618 -1.36169 21.7024
0.0491514 -0.485861 20.8884
0.597166 0.202957 19.5708
1.59643 0.888832 18.646
1.66422 0.749707 19.3411
-1.81885 -0.385472 18.9079
-2.16363 -1.04493 21.7301
-0.325691 -0.69183 19.9704
0.502511 0.0562461 17.996
1.83626 0.0210341 16.1611
2.04544 0.0921533 17.5187
-1.47751 0.668092 19.1335
-2.41781 0.623365 20.9478
-1.43183 -0.272418 21.8099
0.0216949 -0.641889 21.4495
0.629367 -1.03588 20.5337
0.958508 -1.16772 20.5312
-0.020014 -2.85052 17.1861
0.00437266 -0.328708 12.5327
0.00570856 0.0340626 10.2816
-0.00660886 0.257537 8.05056
-0.0102829 0.632369 7.74525
-0.0667591 1.61916 12.0297
-0.0207646 -1.18564 14.81
-0.0104365 -0.00615586 -1.12888
-0.0760788 0.885816 0.910106
0.0619162 2.28026 17.1056
0.0792226 4.45942 19.801
0 0 0
-0.0286666 0.271779 -0.502258
-0.040452 0.974654 -6.20894
0.0201192 0.733755 -5.02369
1.40002 -0.876405 19.3198
1.17871 -1.35634 21.7109
-0.0580688 -0.477662 20.8254
-0.595257 0.208044 19.4464
-1.60472 0.822354 18.8867
-1.63781 0.655406 19.9502
1.8458 -0.392368 18.866
2.14503 -1.05524 21.7253
0.315785 -0.698584 19.9774
-0.501855 0.0456706 18.1439
-1.79764 -0.0125799 17.0455
-2.01195 0.000318868 18.1143
1.45524 0.618112 19.2121
2.32602 0.555828 20.9369
1.43461 -0.275991 21.8077
-0.024695 -0.656849 21.275
-0.624176 -1.04844 20.4474
-0.952994 -1.14333 20.5363
-0.663561 -0.317746 0.516679
0.00754404 -0.0482658 0.279047
-0.00980113 -0.0119597 0.27696
0.0405291 -0.0253718 0.0173744
-0.00510724 0.0278354 0.19327
-0.0956218 0.0686404 0.603859
-2.30952 0.528107 1.80486
-0.0547785 0.306096 0.481557
-0.711331 -0.0569097 2.00625
0.0419303 -0.0603287 0.059943
-0.0264257 -0.00720204 0.00192967
-0.00609232 -0.0262367 0.0302745
-0.00757065 -0.0480302 0.276467
0.730904 -0.354564 0.565998
0.00855467 -0.0118524 0.268021
0.00467723 0.0272197 0.191315
-0.0419296 -0.0263687 0.017748
0.0947218 0.0686001 0.59939
0.0581962 0.266363 0.448098
3.41579 0.90622 2.16668
0.749224 -0.0682721 2.02994
0.0290066 -0.007599 0.00133601
-0.0404446 -0.0581229 0.0578842
0.00613994 -0.0259111 0.029866
0.0209636 -0.00725857 0.562527
0.00803917 0.00166173 0.208108
0.00194972 6.87054e-05 0.0438018
0 0 0
-0.00426488 0.01195 0.477892
0.0105004 0.00173921 0.153611
-0.0465046 -0.0207605 0.30173
0 0 0
-0.00629227 -0.0469282 0.253138
2.95739e-06 -0.000762502 0.0102612
0.00314972 0.0072698 0.131705
-0.108987 0.0199656 0.101791
0.0588448 0.104498 0.63752
0 0 0
0.0431488 0.0815291 0.22513
0.16928 0.0450901 0.561669
-0.0204222 -0.00712438 0.551792
0 0 0
-0.00831778 0.00197278 0.22329
-0.0022054 -0.000142477 0.0480787
0.00455854 0.0123675 0.479721
1.32e-18 2.85931e-19 -5.05072e-17
-0.00789108 -0.000351331 0.0977097
0.0251471 -0.0122793 0.164957
0.00591475 -0.0477314 0.266798
0.0536778 0.00940587 0.0517039
0 0 0
-0.00275495 0.0062392 0.118187
-0.0606136 0.1043 0.637212
-0.169813 0.0455148 0.560747
0 0 0
-0.0501644 0.0988742 0.266952
-0.0126647 -0.00665168 0.0678042
-1.15768 -0.31861 0.31335
4.37815e-05 -0.00292149 0.0632221
0 0 0
5.15592e-06 1.10604e-05 -0.000237167
0 0 0
0 0 0
-0.027677 -0.0415318 -0.00157537
0 0 0
0 0 0
0.00485761 0.0169628 0.231941
0 0 0
-0.000220541 0.508597 0.374588
-0.000109077 0.0566219 0.190226
0 0 0
-0.00773707 0.00590318 0.0302902
-0.00520142 -0.209355 -0.092756
-0.00118251 0.0220899 -0.0649717
0 0 0
-0.000633775 -0.000137417 5.32617e-05
0.655424 -0.171801 0.181451
0.0155675 -0.00819183 0.0822148
0 0 0
-4.6459e-06 1.26438e-05 -0.000273568
0.0226508 -0.0351969 -0.0011034
-2.24626e-18 -1.43632e-18 6.69846e-18
0 0 0
-0.00478939 0.0169266 0.231418
0.00576101 0.00425991 0.0223083
0 0 0
0.000666974 -0.000137787 3.59248e-05
0 0 0
-0.000700525 0.0171513 0.207254
2.09796e-18 1.90185e-19 1.76533e-16
-0.000307743 -0.00191633 0.0400069
0 0 0
0 0 0
0 0 0
-4.31186e-05 0.00033477 0.00184886
0 0 0
0 0 0
1.44125e-07 6.45313e-06 0.000653726
-1.25293e-07 0.000180319 0.000802972
-0.171358 0.0951721 1.35242
0.00110295 0.0363986 0.359238
-0.00011701 0.0680985 0.13654
0.000110436 -0.000650342 0.0167574
-4.74219e-06 0.000263245 -0.000823528
0 0 0
-0.000227359 0.0212159 0.252236
0.000339321 -0.00194951 0.0425308
0 0 0
0 0 0
0 0 0
0.172194 0.0971139 1.3568
4.48513e-07 0.000185092 0.000824333
-0.0606094 -0.0310101 0.334929
-0.0637437 -0.0458543 0.322257
-6.25509e-05 -6.26127e-05 0.00726234
0 0 0
-0.000227918 0.0113937 0.180056
-3.90798e-06 9.25042e-05 0.0010133
-0.0113276 0.027164 0.456681
0 0 0
0.0001036 0.00477089 0.124355
0 0 0
0.165821 0.0180649 0.404867
0.0212536 -0.0211855 0.0864627
-0.00396713 -0.00237503 0.0606671
0.00407049 -0.00239913 0.0607301
0 0 0
0 0 0