# vtk DataFile Version 2.0
tri_press
ASCII
DATASET UNSTRUCTURED_GRID
POINTS 3682 float
-0.675 0.175 -1.94975
-0.615 0.265 2.04022
-0.665 0.505 -1.92598
-0.655 0.605744 2.035
0.675 0.175 -1.9492
0.615 0.265 2.04016
0.666115 0.505 -1.925
0.655 0.605727 2.035
-0.711131 0.148869 -0.61976
-0.7172 0.1528 0.71023
-0.820126 0.69704 -0.605653
-0.81055 0.724379 0.714674
0.711203 0.148797 -0.619414
0.71734 0.15266 0.710373
0.819705 0.695871 -0.605
0.810509 0.723955 0.715
-1.43208 -0.116586 -3.01645
-1.42653 -0.0704756 -1.95645
-1.45169 -0.0839052 -0.626189
-1.43847 -0.0828529 0.706076
-1.36377 -0.0123661 2.0365
-1.34472 0.0155856 3.09734
-1.35274 0.0231739 4.15664
-1.42656 0.100783 -3.00799
-1.42638 0.170556 -1.94906
-1.47205 0.174645 -0.620664
-1.44793 0.16219 0.70866
-1.33372 0.209746 2.03724
-1.32377 0.234626 3.09793
-1.34248 0.244798 4.15754
-1.4248 0.504881 -2.98836
-1.43835 0.574633 -1.92909
-1.54838 0.700033 -0.607299
-1.52297 0.701692 0.71388
-1.37868 0.626751 2.03587
-1.35012 0.650372 3.09698
-1.35888 0.680647 4.15816
-1.43648 1.23423 -2.96608
-1.45285 1.31523 -1.90821
-1.50355 1.43018 -0.589662
-1.52675 1.46514 0.726843
-1.49503 1.42303 2.04552
-1.45802 1.40153 3.10369
-1.43349 1.40699 4.16386
-0.712228 -0.116493 -3.01681
-0.692911 -0.0679953 -1.95713
-0.712467 -0.0981264 -0.62588
-0.722037 -0.0881925 0.707414
-0.67446 0.0182739 2.03871
-0.655401 0.0355829 3.09886
-0.658046 0.0322655 4.15756
-0.707614 0.0938964 -3.00788
-0.631683 0.253342 3.09919
-0.647515 0.251817 4.15824
-0.700924 0.474465 -2.98683
-0.6501 0.645414 3.09685
-0.658743 0.678193 4.15819
-0.69478 1.21642 -2.96461
-0.698457 1.30003 -1.90663
-0.743344 1.43016 -0.588651
-0.782113 1.47042 0.726911
-0.772918 1.41939 2.04496
-0.743121 1.39457 3.10312
-0.720243 1.40107 4.16347
0.692006 -0.116662 -3.01625
0.698613 -0.0680977 -1.95663
0.717685 -0.0982569 -0.62553
0.700866 -0.0883369 0.707589
0.637589 0.0182075 2.03875
0.675129 0.0354957 3.09892
0.706921 0.0321383 4.15767
0.681848 0.0937577 -3.00726
0.679227 0.253278 3.09922
0.711269 0.251699 4.15834
0.69084 0.474289 -2.98608
0.690987 0.645332 3.09691
0.71394 0.678061 4.1583
0.770132 1.21602 -2.96399
0.789741 1.29956 -1.90602
0.785845 1.4296 -0.588148
0.736595 1.46999 0.727262
0.689707 1.41911 2.0452
0.689485 1.39435 3.10331
0.703339 1.40086 4.16366
1.40872 -0.117027 -3.01537
1.4191 -0.0708971 -1.95544
1.44941 -0.0843544 -0.62544
1.42914 -0.0832098 0.706496
1.35372 -0.0125852 2.03669
1.36694 0.0153588 3.09753
1.39916 0.0228916 4.1569
1.40032 0.100352 -3.0068
1.41373 0.170083 -1.94794
1.46697 0.174055 -0.619852
1.45204 0.161805 0.709075
1.34661 0.209575 2.03736
1.36508 0.23443 3.09807
1.40069 0.244529 4.15777
1.41577 0.504355 -2.987
1.43581 0.57394 -1.92766
1.54718 0.698717 -0.606235
1.52521 0.701008 0.71445
1.38726 0.626502 2.03607
1.38416 0.650136 3.09716
1.4088 0.680348 4.15841
1.5007 1.23343 -2.96489
1.52525 1.3143 -1.90705
1.53678 1.42914 -0.588693
1.49291 1.46431 0.727541
1.43187 1.42246 2.04601
1.41546 1.40106 3.1041
1.42072 1.40654 4.16426
-0.673983 0.34 -1.94185
0 0.176981 -1.94749
-0.728329 0.126671 -1.28476
-0.645855 0.435372 2.04847
0 0.228007 2.07718
-0.709158 0.165842 1.37523
0.000557482 0.594891 -2.01538
-0.831344 0.689801 -1.26582
0 0.67065 2.09991
-0.832529 0.764815 1.37484
0.676585 0.34 -1.94313
0.728358 0.126642 -1.28431
0.645828 0.435364 2.04841
0.709178 0.165822 1.37527
0.831506 0.689031 -1.265
0.832589 0.764676 1.375
-0.715332 0.149668 0.045235
-0.816105 0.422955 -0.612707
3.58485e-05 0.173865 -0.619587
-0.873798 0.43859 0.712452
7.03589e-05 0.171707 0.710302
-0.817468 0.71284 0.0545101
-0.000210293 0.989792 -0.605327
-2.065e-05 1.22974 0.714837
0.711891 0.153109 0.04548
0.815565 0.422334 -0.612207
0.870183 0.438307 0.712687
0.817409 0.712215 0.0550001
-0.833977 0.381477 -1.27529
0.833982 0.381167 -1.27465
1.79243e-05 0.151558 -1.28453
0.000173595 0.829419 -1.26541
0.000278741 0.34 -2.10752
-0.822438 0.430772 0.0498725
0.822157 0.430321 0.05024
5.31037e-05 0.174247 0.0453575
-0.000115472 1.27494 0.0547551
-0.888621 0.436981 1.37503
0.888623 0.436835 1.37513
3.51794e-05 0.194386 1.37525
-1.0325e-05 1.03182 1.37492
0 0.435368 2.1119
-0.67213 0.2575 -1.94344
-0.3375 0.171515 -1.9531
-0.69361 0.15889 -1.61725
-0.623518 0.350186 2.03743
-0.3075 0.23366 2.07155
-0.694009 0.183491 1.70772
-0.652266 0.4225 -1.91669
-0.332221 0.574211 -1.99495
-0.785522 0.63475 -1.5959
-0.660801 0.520558 2.05211
-0.3275 0.659069 2.08833
-0.75654 0.698055 1.70492
0.3375 0.171519 -1.95282
0.672374 0.2575 -1.94275
0.693608 0.158892 -1.61675
0.3075 0.233647 2.07153
0.623646 0.350182 2.03752
0.693678 0.183822 1.70771
0.333336 0.574193 -1.99444
0.658209 0.4225 -1.92092
0.785445 0.63365 -1.595
0.3275 0.659099 2.08837
0.660248 0.520545 2.05154
0.756554 0.697961 1.705
-0.727788 0.129712 -0.952258
-0.711446 0.151054 -0.287263
-0.816588 0.259427 -0.616233
-0.34871 0.175042 -0.619673
-0.711951 0.160549 1.04273
-0.715433 0.152067 0.377733
-0.878519 0.254185 0.711341
-0.352754 0.173876 0.710266
-0.828669 0.696355 -0.935735
-0.823364 0.562622 -0.60918
-0.818407 0.70455 -0.275572
-0.459556 0.942191 -0.60549
-0.855138 0.778196 1.04476
-0.836092 0.578444 0.713563
-0.821972 0.726573 0.384592
-0.504368 1.17523 0.714755
0.727784 0.129716 -0.95186
0.348763 0.175043 -0.6195
0.711645 0.150855 -0.286967
0.815755 0.25938 -0.61581
0.712008 0.160492 1.04282
0.352855 0.173884 0.710338
0.711871 0.155629 0.377927
0.875808 0.25446 0.71153
0.828833 0.695679 -0.935
0.457519 0.938374 -0.605163
0.822798 0.561684 -0.608603
0.81824 0.703725 -0.275
0.855254 0.77802 1.045
0.504408 1.17518 0.714919
0.836264 0.57909 0.713844
0.823382 0.727508 0.385
-0.813994 0.360739 -1.60857
-0.336852 0.34 -2.05539
8.96213e-06 0.166083 -1.61601
0.000139371 0.258491 -2.10948
-0.834714 0.254074 -1.28002
-0.364155 0.146861 -1.28464
-0.817742 0.436176 1.71175
-0.322928 0.43537 2.1282
1.75897e-05 0.200821 1.72621
0 0.331687 2.11718
-0.880881 0.301412 1.37513
-0.354561 0.198187 1.37524
0.000365538 0.735168 -1.64039
0.000418112 0.467445 -2.15028
-0.832412 0.535639 -1.27055
-0.415585 0.807425 -1.26561
-5.1625e-06 0.925415 1.73742
0 0.553009 2.16385
-0.890925 0.600898 1.37493
-0.41627 1.00529 1.37488
0.814045 0.360584 -1.60889
0.338432 0.34 -2.05587
0.83472 0.253904 -1.27948
0.364188 0.146862 -1.28442
0.817712 0.436099 1.71177
0.322914 0.435366 2.12827
0.880891 0.301329 1.3752
0.354607 0.198188 1.37526
0.832666 0.535099 -1.26983
0.41584 0.807437 -1.2652
0.890934 0.600756 1.37507
0.41629 1.00526 1.37496
-0.830807 0.259259 0.0475538
-0.3511 0.175036 0.0452963
-0.838043 0.402216 -0.943996
-0.819332 0.426863 -0.281417
2.68864e-05 0.153448 -0.952059
4.44761e-05 0.176081 -0.287115
-0.826342 0.434681 0.381162
-0.890561 0.437785 1.04374
6.17313e-05 0.177547 0.37783
5.27692e-05 0.182236 1.04277
-0.828179 0.575919 0.0521913
-0.520714 1.21773 0.0546326
-1.83492e-05 0.890701 -0.935368
-0.000162882 1.17206 -0.275286
-6.80608e-05 1.27298 0.384796
-1.54875e-05 1.14024 1.04488
0.825156 0.262649 0.04786
0.348586 0.17845 0.0454187
0.837939 0.401751 -0.94343
0.818915 0.426327 -0.280983
0.82613 0.434314 0.381463
0.890562 0.437571 1.04391
0.827949 0.575351 0.05262
0.520708 1.2177 0.0548776
-0.815959 0.255787 -1.61291
-0.839018 0.269993 -0.948127
-0.835969 0.547818 -0.939866
-0.812364 0.47907 -1.60223
0.815883 0.255702 -1.61282
0.812251 0.478799 -1.60195
0.839635 0.547101 -0.939215
0.839047 0.269735 -0.947645
-0.350828 0.165868 -1.61663
0.350844 0.165869 -1.61638
0.359904 0.147916 -0.951959
-0.359852 0.147918 -0.952158
-0.373903 0.718142 -1.61815
-0.412877 0.868904 -0.935551
0.412794 0.869445 -0.935184
0.374588 0.720666 -1.6177
-0.337176 0.257995 -2.08702
-0.334537 0.444973 -2.09652
0.335884 0.444973 -2.09693
0.337966 0.257995 -2.08649
-0.824135 0.259124 -0.28434
-0.839509 0.264299 0.379447
-0.830693 0.57646 0.382877
-0.825887 0.569328 -0.278494
0.820651 0.260917 -0.283975
0.825499 0.56858 -0.277992
0.830636 0.576485 0.383232
0.828812 0.26939 0.379695
-0.349529 0.175792 -0.287189
0.349152 0.175793 -0.287041
0.348976 0.179657 0.377878
-0.351011 0.176287 0.377781
-0.505 1.10969 -0.275429
-0.521076 1.21355 0.384694
0.521092 1.2135 0.384898
0.504507 1.10882 -0.275143
-0.885563 0.298553 1.04323
-0.792485 0.325799 1.70974
-0.820257 0.560728 1.70833
-0.894125 0.591191 1.04425
0.885547 0.298406 1.04337
0.894129 0.590943 1.04446
0.819934 0.560651 1.70839
0.79271 0.325755 1.70974
-0.356563 0.174613 1.04275
0.356656 0.174613 1.0428
0.331053 0.209878 1.71696
-0.331031 0.209889 1.71697
-0.410777 1.11571 1.04482
-0.371885 0.907365 1.72117
0.371895 0.907294 1.72121
0.410767 1.11569 1.04494
-0.315214 0.340937 2.09745
0.315207 0.340935 2.09745
0.325207 0.536777 2.14464
-0.325214 0.536784 2.14458
-0.670316 0.21625 -1.94334
-0.50625 0.172427 -1.95225
-0.688668 0.162582 -1.7835
-0.62992 0.307593 2.04949
-0.46125 0.237689 2.06752
-0.664792 0.213958 1.87397
-0.668533 0.46375 -1.93123
-0.498611 0.5511 -1.97196
-0.735985 0.580599 -1.76094
-0.664787 0.563151 2.05044
-0.49125 0.640773 2.07003
-0.706859 0.652989 1.86996
0.50625 0.172418 -1.95185
0.67044 0.21625 -1.94273
0.688721 0.162529 -1.78298
0.46125 0.237673 2.06749
0.631 0.307591 2.05052
0.664807 0.213943 1.87394
0.499726 0.551058 -1.97118
0.67647 0.46375 -1.93727
0.73844 0.581985 -1.76
0.49125 0.642604 2.07187
0.664668 0.563136 2.05031
0.706936 0.653003 1.87
-0.72719 0.13156 -0.786009
-0.711289 0.149961 -0.453511
-0.792299 0.189928 -0.617997
-0.533319 0.155158 -0.619717
-0.712843 0.158407 0.876479
-0.715424 0.153326 0.543981
-0.861723 0.171561 0.710786
-0.532899 0.167493 0.710248
-0.823994 0.696294 -0.770694
-0.8241 0.631009 -0.607417
-0.819074 0.700603 -0.440613
-0.664385 0.868704 -0.605572
-0.833678 0.752122 0.879714
-0.81424 0.646871 0.714118
-0.815883 0.725098 0.549633
-0.646324 0.927533 0.714714
0.727186 0.131564 -0.785637
0.533375 0.155137 -0.619457
0.711395 0.149855 -0.45319
0.791662 0.189997 -0.617612
0.713093 0.158157 0.876597
0.532967 0.167533 0.710356
0.715499 0.153251 0.54415
0.863666 0.170014 0.710952
0.823719 0.695224 -0.77
0.664379 0.868656 -0.605082
[...]
POINT_DATA 3682
SCALARS point_scalars float 1
LOOKUP_TABLE default
-88.8887
-40.7918
45.5256
-35.8187
-93.9938
-40.705
33.1239
-35.7161
-34.5191
-37.4656
-41.2459
-36.97
-34.5749
-37.7601
-41.039
-36.8324
9.83685
-86.7339
-48.6384
-34.9345
-52.9895
-39.1602
-38.4608
9.83685
-84.9688
-38.2879
-40.1073
-40.7344
-38.6764
-36.6394
73.2385
-84.5204
-40.6508
-36.984
-40.5176
-37.1789
-36.138
39.7038
-62.9599
-46.4137
-43.2129
-41.8168
-36.4671
-36.138
-22.3627
-106.077
-35.6316
-37.3808
-43.0329
-38.4608
-37.7495
43.6555
-38.4608
-36.2664
153.528
-35.9369
-35.8537
92.9065
-43.7166
-43.2038
-54.1479
-32.3732
-34.647
-34.9766
-24.7625
-110.945
-35.6627
-37.5099
-42.7142
-38.3836
-38.3836
30.4986
-38.3836
-36.1837
161.881
-35.8589
-35.9057
92.6121
-44.2423
-49.4068
-54.0072
-32.0931
-34.4508
-35.0032
7.45798
-86.7068
-49.4861
-36.2654
-52.9658
-38.5692
-38.3836
7.45798
-83.5084
-38.4331
-39.5273
-40.5842
-38.5692
-36.5649
65.0843
-81.8209
-40.5223
-37.0701
-40.4354
-37.0248
-36.0518
44.8248
-64.542
-46.1619
-44.7711
-40.8269
-36.3757
-36.0518
67.9184
-108.509
-55.9472
-37.642
-40.9547
-42.0242
20.9924
-59.411
-29.3738
-49.2908
86.8897
-56.0329
-37.532
-41.8778
-59.9717
-49.1706
-31.0812
-36.5949
-35.4794
-28.6059
-37.6448
-44.1814
23.0699
-56.131
-30.1127
-36.7154
-28.1857
-43.8941
-57.093
-57.0826
-55.4769
-19.4709
192.51
-33.6287
-33.2676
-31.8609
-105.044
-50.7014
-50.7135
-39.1495
-33.8166
-34.3903
50.2081
-123.604
-59.031
-38.1118
-41.2867
-46.73
73.6294
30.4765
-66.9903
-37.3846
-32.5229
-39.3824
-123.719
48.0863
-58.9991
-41.2321
-38.0077
-46.6356
30.9312
70.1093
-62.5723
-32.299
-37.3116
-39.2305
-42.9025
-30.4553
-34.8798
-35.4896
-38.9323
-31.8681
-33.5764
-36.7261
-45.3556
-38.08
-45.0389
2.72931
-49.7413
-27.7533
-41.5569
-53.8024
-43.0158
-35.6012
-30.8259
-34.9933
-39.0871
-36.8607
-30.6698
-33.6233
-45.7832
1.48684
-38.2484
-44.6935
-49.5034
-53.7852
-27.8303
-41.3393
-77.3628
169.617
-61.3403
207.111
-55.4771
-55.7071
-45.2411
-36.1127
-41.3765
-36.1093
-49.6146
-40.1676
-14.6306
187.153
-59.4743
-29.4763
-29.7596
-33.7854
-51.5599
-35.3563
-75.4073
169.494
-55.4254
-55.7579
-45.1064
-35.9566
-49.6443
-40.186
-59.5216
-29.258
-51.5241
-35.3006
-31.2673
-31.6762
-45.6401
-34.7442
-45.5397
-31.6283
-29.7717
-45.1923
-33.2487
-38.7027
-37.1379
-89.9054
-3.58941
-31.0736
-78.8957
-41.6363
-31.0238
-31.2758
-45.7293
-34.5378
-29.3531
-45.3284
-36.8329
-89.8113
-70.0116
-44.9398
-45.9255
-77.9853
-68.5144
-75.2433
-46.1584
-45.0422
-62.3419
-62.4138
-45.4367
-45.3693
-21.0444
-14.2666
-14.5781
-21.6949
135.397
174.564
174.046
131.235
-31.8182
-28.0371
-33.6735
-38.3237
-31.8284
-38.0782
-33.4265
-27.5634
-31.3342
-31.5881
-32.2577
-33.018
-42.9854
-67.4527
-67.4133
-42.4317
-43.2476
-46.4503
-43.4088
-46.4098
-43.4051
-46.474
-43.274
-46.2857
-39.8258
-39.8733
-41.7804
-41.7938
-43.0505
-31.2252
-31.1093
-43.0067
-36.8729
-36.8319
-35.6617
-35.7608
-4.24442
-159.472
-92.623
-39.08
-41.6717
-43.7448
70.9522
32.2069
-25.265
-36.8377
-34.2832
-35.8736
-160.028
-9.04929
-92.6021
-41.7263
-38.9784
-43.649
32.0684
59.8221
-29.3689
-34.2096
-36.7483
-35.7443
-42.7967
-31.5977
-33.5714
-35.5267
-38.7017
-33.3866
-38.9706
-37.4583
-42.8763
-39.6374
-43.6716
-30.5383
-38.8227
-30.1496
-40.3575
-47.7742
-43.1464
-35.6787
-31.9655
-33.7371
-38.8016
-37.6819
-33.9401
-40.445
-42.8856
-30.5285
-39.6102
-43.2801
-38.9582
-47.7563
-30.1595
-40.6792
77.6282
94.3222
-102.234
134.978
-110.783
-110.84
-75.8229
96.5171
-57.8424
-48.2255
-54.97
-56.1824
-38.0353
-37.2854
-39.99
-36.6815
-41.0404
-41.0048
-40.8714
-38.0449
-45.5269
-39.8462
-47.2967
-40.6843
23.2573
24.4319
-0.652953
90.193
-65.372
-50.3378
-61.3364
-38.5996
-30.566
-30.3823
-28.4015
-30.1843
-43.8012
-50.1177
-52.2944
-39.6571
82.4901
102.227
-98.9367
137.28
-58.1611
-48.3115
-54.9184
-56.2937
-37.9517
-37.1844
-39.8465
-36.5824
-45.6669
-39.9082
-47.3101
-40.7014
-65.6638
-50.7382
-61.4888
-38.4805
-43.6806
-50.0759
-52.1973
-39.5559
-30.4346
-31.2888
-30.4338
-31.5593
-36.1647
-37.1621
-44.1192
-35.0432
-35.3436
-35.4024
-43.9481
-32.9785
-30.4807
-26.6777
-26.867
-44.6709
-37.7335
-37.7847
-34.736
-37.6087
-45.1955
-42.3409
-39.7504
-61.2868
19.8614
19.8059
13.6318
7.72656
-55.9888
-55.9758
-65.9545
-47.9807
-30.3612
-30.5977
-29.3877
-30.9404
-36.2067
-37.3863
-44.305
-34.8668
-30.1163
-26.4271
-26.718
-44.9819
-44.8822
-42.0152
-39.4581
-61.0888
-66.6838
-56.3053
-58.2475
-49.5707
-67.814
-56.2901
-58.1811
-49.6178
-57.7359
-55.4043
-55.4291
-49.3251
-20.6008
-21.7814
-21.8919
-12.109
185.895
197.892
204.755
186.636
-32.4092
-34.451
-32.102
-35.1935
-32.0297
-34.1359
-31.662
-34.856
-31.8371
-31.2232
-32.4474
-31.6672
-100.078
-99.4223
-90.5485
-100.081
-53.1709
-50.3123
-50.8934
-46.5936
-53.1814
-50.3352
-50.8813
-46.6498
-39.9012
-39.7833
-39.7944
-40.0057
-31.4053
-34.1168
-34.1055
-37.1207
-34.9199
-34.7797
-35.0557
-34.8377
-84.871
148.963
-81.1306
20.2431
-61.7255
-62.1645
-39.9339
-36.7676
-41.0118
-38.1988
-47.9534
-42.8762
-95.1349
138.088
1.52116
105.786
-74.6175
-32.8911
-39.2438
-36.2093
-30.9643
-34.1945
-41.0526
-33.606
-81.2055
18.6627
-82.9414
150.217
-60.9051
-62.2287
-40.9751
-38.1288
-39.7843
-36.7233
-47.5586
-42.8501
1.94578
105.161
-92.6677
139.648
-70.4742
-32.8362
-30.8395
-34.0274
-39.1407
-36.1348
-40.903
-33.4681
-43.5478
-45.1058
-30.319
-31.1367
-45.1905
-32.1262
-43.6995
-32.7123
-41.2273
-38.7708
-28.9536
-32.8791
-23.6182
-44.8357
-34.6914
-37.8691
-46.1025
-27.925
-43.3219
-38.0633
-40.837
-72.8578
-5.58614
-8.02592
-46.8079
-45.3463
-32.2775
-42.1767
-35.9089
-52.8956
-60.3781
-49.1199
-43.6592
-45.1998
-43.7847
-32.8702
-30.3575
-31.4597
-45.5161
-32.3047
-41.3487
-38.8687
-34.8312
-37.9816
-27.1644
-31.9948
-22.827
-45.2289
-46.3041
-27.6963
-5.69019
-6.43263
-43.2625
-37.7928
-40.5528
-72.6548
-46.8296
-45.32
-60.2239
-49.2359
-32.2645
-42.1857
-35.7292
-52.8337
-74.6424
-78.8192
170.532
174.941
-61.653
-61.69
188.588
187.01
-64.4036
-48.3162
-57.7022
-49.6005
-46.4119
-44.8498
-36.7485
-35.949
-41.3963
-41.4041
-36.2961
-36.2437
-44.9723
-58.3524
-39.2695
-40.5181
-15.4612
-15.795
183.416
183.495
-50.5641
-70.5288
-28.114
-22.2248
-30.1962
-30.1339
-35.2941
-35.3855
-50.4684
-47.9349
-38.683
-32.8061
-72.7733
-76.5614
174.466
169.877
-65.3333
-48.3305
-57.785
-49.6567
-44.6928
-46.4006
-36.7021
-35.8618
-45.0368
-58.2672
-39.3087
-40.5265
-71.4976
-50.6631
-22.1075
-29.5928
-47.9407
-50.4104
-32.7135
-38.6458
-31.8625
-30.153
-31.0726
-32.3957
-45.3899
-45.7373
-33.3282
-36.3285
-45.5397
-45.5025
-31.5195
-31.5949
-28.2096
-31.6888
-44.4275
-45.7954
-32.8525
-33.0188
-38.8466
-38.8801
-35.3893
-38.0787
-93.8913
-75.4298
-7.18313
-7.46963
-30.6898
-30.3994
-77.0901
-77.0775
-41.8921
-41.8759
-31.513
-29.7699
-31.1243
-31.8253
-45.7594
-45.4918
-33.1344
-36.1032
-31.3631
-27.5096
-44.5871
-45.8915
-37.8003
-35.0637
-75.3897
-93.906
-85.619
-64.101
-65.4492
-96.2082
-48.4749
-44.4972
-49.0208
-47.4123
-43.0217
-51.0018
-50.0509
-43.8557
-74.2732
-102.356
-68.1439
-71.0124
-84.7213
-94.6599
-66.4868
-65.0562
-73.8354
-71.5343
-69.1905
-98.4308
-43.0245
-43.8258
-50.2007
-51.2774
-48.7244
-47.4354
-49.0411
-44.7668
-87.1586
-76.8472
-57.5978
-58.2717
-87.2207
-58.3299
-57.6374
-76.8945
-42.5134
-44.1491
-49.3517
-49.4981
-42.4009
-49.4299
-49.3233
-44.0984
25.927
-52.539
-21.7877
-2.53559
-30.2311
9.54369
-14.4447
-32.5482
-31.6572
-31.9292
-14.5094
9.72212
25.8006
-2.38687
-22.0574
-52.5048
17.6942
140.42
193.322
64.4076
134.676
105.515
197.649
136.95
134.256
139.511
197.534
104.779
16.8905
62.7397
190.716
142.045
-30.8771
-30.2195
-33.0684
-33.6856
-25.1481
-24.9527
-30.8684
-29.8426
-35.5773
-37.9857
-33.6088
-29.3786
-40.2695
-36.4067
-36.0486
-40.6967
-31.4378
-33.6935
-32.7254
-30.5531
-39.9601
-40.4073
-35.7558
-36.1797
-35.5599
-29.3222
-33.2531
-37.667
-25.0806
-29.1995
-30.355
-24.7181
-32.5236
-32.884
-31.1997
-30.8841
-32.7402
-30.9411
-31.1502
-32.9577
-34.5179
-34.8837
-32.1923
-31.3652
-34.3212
-32.0911
-32.4107
-34.881
-62.1942
-66.4486
-96.9548
5.68481
-50.2508
-65.0178
-88.0834
-56.4213
-50.2653
-56.2903
-88.0709
-65.003
-61.9259
5.74351
-96.7982
-66.2364
-40.9831
-42.94
-45.8191
-44.9023
-41.5288
-40.2673
-55.9074
-57.8421
-37.8055
-47.6978
-52.1944
-39.6405
-37.771
-43.8118
-47.3075
-49.3976
-41.0005
-45.3417
-45.8881
-42.9649
-37.5261
-49.3824
-47.3393
-43.9693
-37.7009
-39.5103
-52.2351
-47.6014
-41.375
-57.7698
-55.8322
-40.1248
-37.6677
-37.9674
-39.5712
-39.6129
-37.7993
-39.6577
-39.5855
-38.0158
-41.5448
-40.8151
-40.0535
-41.9628
-41.6028
-41.9349
-40.0524
-40.834
-46.9785
-43.2035
-37.4333
-48.328
-33.1021
-29.1973
-31.7021
-36.0504
-32.9868
-35.9257
-31.6491
-29.0758
-47.0658
-48.3129
-37.432
-43.1095
-37.8139
-37.9365
-35.5005
-37.0518
-37.7677
-36.9968
-35.4359
-37.885
-35.4718
-31.6596
-35.2874
-36.2374
-35.571
-36.3024
-35.3617
-31.8637
-47.1977
-138.247
-126.051
-39.9762
-41.6662
-42.4863
70.6098
41.6384
-3.51574
-36.5125
-34.5764
-35.2314
-138.611
-52.1152
-126.08
-41.7027
-39.8954
-42.3859
38.4043
62.2661
-2.09479
-34.5053
-36.417
-35.1129
-39.4198
-32.4741
-33.7884
-35.2452
-38.4742
-34.8002
-39.0939
-37.5644
-42.1213
-40.5129
-42.4016
-43.6877
-35.4157
-32.3413
-38.5313
-43.844
-39.839
-35.3815
-32.7383
-33.9614
-38.6727
-37.8287
-35.2212
-39.4749
-42.0367
-43.1398
-40.3749
-42.042
-34.7287
-43.7478
-32.2803
-38.7536
86.6606
79.9447
-70.6956
134.651
-109.292
-109.315
-89.1727
45.0563
-62.4022
-51.5289
-55.1444
-56.2907
-37.8285
-37.4296
-38.955
-36.8766
-40.8953
-40.8773
-40.5082
-39.8945
-42.9203
-40.7845
-45.4023
-41.1452
22.6765
23.1556
12.0544
40.9551
-61.386
-55.0829
-62.1387
-45.1
-29.8615
-29.7644
-28.7652
-29.782
-46.0455
-51.4736
-51.9726
-43.0296
83.3378
88.6827
-62.2206
139.599
-62.5536
-51.612
-55.0866
-56.3872
-37.728
-37.3215
-38.811
-36.7952
-42.9355
-40.6632
-45.3785
-41.1466
-62.3816
-54.7843
-62.3638
-45.3656
-45.9253
-51.3475
-51.8487
-42.9064
-31.0415
-31.1021
-30.4241
-31.384
-36.5314
-37.0178
-40.5391
-35.4331
-35.4802
-35.5129
-39.5389
-34.2531
-29.3296
-27.9289
-25.4284
-38.9093
-37.6765
-37.7025
-35.2222
-38.2977
-44.71
-43.3037
-41.8553
-52.8784
21.9858
22.0136
20.4885
19.2142
-55.9607
-55.9544
-60.7738
-52.0015
-30.1514
-30.3953
-28.3908
-30.7334
-36.4601
-37.1839
-40.7573
-35.3666
-29.0815
-27.571
-25.8385
-38.4103
-44.4116
-43.0239
-41.5832
-52.636
-61.5268
-56.6988
-57.665
-52.8288
-62.7547
-56.6859
-57.6246
-52.8323
-60.4948
-55.631
-55.6419
-51.8555
-21.6895
-19.8299
-19.9404
-15.814
191.029
193.53
195.334
191.381
-32.9389
-34.1201
-32.989
-34.3498
-32.5674
-33.7748
-32.5974
-33.9999
-31.8782
-31.7698
-32.098
-31.7985
-102.766
-101.498
-100.316
-102.749
-52.7616
-50.5807
-50.7562
-48.1179
-52.7626
-50.5982
-50.7577
-48.1485
-38.9318
-39.2923
-39.305
-39.1076
-32.4263
-33.8934
-33.8716
-35.3473
-34.5347
-34.56
-34.5904
-34.4857
25.4545
74.8999
-87.6797
136.176
-139.768
-112.357
-99.864
-26.1456
-73.1858
-49.1152
-57.961
-60.7216
-38.4895
-37.8898
-39.7076
-37.1412
-41.3359
-41.1583
-40.792
-39.5567
-45.3205
-47.1524
-49.172
-44.0549
71.744
78.3607
-47.6616
109.263
27.6431
27.0373
12.3217
59.4083
-51.0773
-69.6916
-73.2718
-42.2323
-37.0854
-37.2522
-38.2018
-36.5482
-33.8433
-31.5103
-30.9929
-33.2814
-37.5676
-41.806
-40.2723
-35.961
-139.667
-112.457
-99.937
-29.1262
21.6389
74.1292
-88.6288
135.362
-73.119
-49.2456
-57.4073
-60.7715
-41.2511
-41.1084
-40.7385
-39.4995
-38.3902
-37.7901
-39.6022
-37.066
-45.2041
-47.2131
-49.0108
-43.9955
28.1376
27.7277
12.6677
59.4272
63.2003
82.9969
-47.1878
115.901
-54.1636
-68.4177
-67.971
-41.986
-33.6041
-31.2886
-30.8552
-33.0707
-37.0102
-37.1451
-38.1153
-36.464
-37.416
-41.6821
-40.1105
-35.8161
-42.9027
-45.3561
-42.523
-44.482
-31.0126
-29.8128
-30.1998
-30.871
-33.8304
-35.7209
-39.6641
-32.6831
-35.3696
-35.2798
-39.7447
-33.8841
-38.5853
-39.0575
-40.9402
-38.7341
-32.3619
-31.4404
-30.0106
-32.6395
-35.8782
-32.0187
-24.3522
-42.9263
-36.4386
-37.3783
-35.5795
-37.3805
-43.5006
-48.804
-45.9152
-37.4176
-38.7518
-37.5497
-40.4077
-37.9651
-44.4392
-45.1984
-42.8606
-56.2794
-11.6137
13.7957
-0.438006
-0.799905
-43.9603
-49.106
-47.2902
-47.919
-28.8924
-27.0723
-30.4533
-31.3026
-42.881
-40.1684
-38.2386
-48.4827
-50.3518
-55.4047
-56.749
-52.1527
-43.07
-45.459
-42.625
-44.5916
-35.4981
-35.367
-39.8419
-34.0159
-31.1216
-30.5198
-30.285
-31.214
-33.9435
-35.8067
-39.8403
-32.9293
-38.75
-39.1687
-41.0446
-38.878
-36.6178
-37.4672
-35.7096
-37.5072
-32.0057
-30.6236
-28.0767
-31.6932
-36.6624
-31.7482
-25.463
-42.6895
-43.8512
-49.6854
-46.1781
-37.7346
-12.251
13.0309
-0.544392
-0.0872724
-38.8334
-37.7697
-40.7343
-37.7685
-44.0672
-44.8817
-42.5551
-55.9628
-45.177
-49.0036
-47.2641
-47.7535
-50.3266
-55.3869
-56.7309
-52.132
-28.9837
-27.0029
-30.4456
-31.1166
-43.0147
-39.7553
-37.8257
-48.4991
-86.4119
-73.0606
-76.0671
-78.3763
142.526
177.204
171.205
164.733
-66.5079
-56.219
-61.3861
-61.4045
111.24
201.736
201.647
200.967
-55.2201
-55.8884
-59.6483
-51.3774
-55.6576
-55.3874
-59.9827
-52.0343
-42.2827
-49.9292
-45.9959
-45.0642
-36.6552
-35.1716
-36.4251
-35.8331
-41.2816
-41.2613
-41.3724
-41.3772
-36.8135
-35.5362
-36.1283
-36.1
-48.6313
-50.0402
-46.4165
-53.0796
-40.4275
-39.9432
-39.9655
-39.8665
-12.1348
-16.0529
-14.5393
-14.6337
149.526
204.114
185.071
184.654
-59.9772
-58.9099
-54.4044
-64.7084
-33.2778
-25.0308
-30.5323
-25.7686
-28.9294
-30.7725
-29.8896
-29.8398
-32.046
-35.3198
-34.2652
-34.3304
-51.8103
-51.0565
-52.6048
-49.2599
-37.3109
-34.5858
-36.9459
-33.9733
-83.9282
-71.5044
-74.147
-76.3397
140.153
177.738
164.236
170.145
-55.1533
-55.8516
-60.8185
-51.3666
-55.7313
-55.4257
-60.0291
-52.0861
-42.1455
-49.822
-44.9093
-45.8914
-36.5333
-35.088
-36.3193
-35.7281
-48.654
-50.0688
-46.4581
-53.1287
-40.4478
-39.9559
-39.994
-39.8809
-60.2227
-58.8661
-66.0994
-54.1637
-33.2378
-24.9695
-25.5613
-31.0262
-51.7656
-51.0292
-49.241
-52.5385
-37.2302
-34.5496
-33.9767
-36.9017
-30.5945
-32.0943
-31.5804
-30.8103
-31.5996
-31.7513
-31.9153
-31.7872
-44.6902
-47.1962
-45.5616
-45.7405
-34.8217
-34.6424
-33.942
-35.4812
-44.1226
-47.2689
-45.5837
-45.5659
-32.1659
-30.9994
-31.5972
-31.6239
-28.1181
-31.0284
-28.8171
-30.6848
-44.905
-45.6982
-44.8481
-45.4975
-33.6982
-33.0227
-33.2531
-33.3206
-38.0508
-39.8196
-38.5965
-38.6068
-38.3182
-36.1436
-36.3576
-37.6908
-74.1853
-96.9677
-96.7873
-81.8402
5.19646
-8.56502
-5.42682
-5.54058
-6.16281
-71.4451
-31.886
-31.5789
-72.3155
-83.9401
-78.3028
-78.2988
-44.8542
-39.2888
-41.6331
-41.6222
-29.9695
-31.7944
-31.1377
-30.5463
-31.0976
-31.4684
-31.3092
-31.4189
-44.8234
-47.2699
-45.8355
-45.6605
-34.6344
-34.3889
-33.7636
-35.2675
-27.7514
-30.5725
-30.3207
-28.337
-45.0988
-45.79
-44.997
-45.6151
-38.0263
-35.8236
-37.3995
-36.0433
-73.975
-96.9826
-81.8043
-96.7361
-80.3491
-66.231
-72.9806
-69.7572
-44.4349
-44.9037
-46.1433
-45.2137
-45.917
-43.9893
-47.789
-45.7554
-78.6578
-75.6868
-78.8312
-75.9188
-78.5882
-65.0953
-71.2066
-68.2886
-76.7566
-72.3689
-76.3639
-73.55
-46.1742
-44.1883
-47.9993
-46.0461
-44.5406
-45.0899
-46.1929
-45.3182
-69.326
-62.6491
-62.0425
-57.1993
-69.399
-62.7221
-62.0977
-57.2833
-45.3623
-44.1669
-47.2668
-45.5073
-45.2795
-44.0902
-47.2077
-45.4527
-12.2345
-34.1375
-17.1416
-25.3991
-19.8428
-10.7728
-18.4689
-11.0056
-19.9665
-11.1284
-18.3503
-10.8989
-10.9844
-34.1329
-17.8519
-26.2897
143.013
88.9469
164.798
176.519
149.246
148.692
177.948
181.218
147.957
149.516
180.826
177.834
87.5728
143.064
177.188
161.92
-30.8853
-31.9676
-31.7889
-32.875
-28.2635
-26.4386
-29.2255
-27.878
-32.92
-34.5522
-32.6853
-34.4515
-38.2211
-39.5092
-37.2814
-38.2917
-30.9077
-31.9531
-31.7274
-32.6633
-37.9435
-39.2504
-37.0457
-38.0324
-32.7849
-34.3509
-32.3988
-34.1118
-27.3764
-24.6303
-28.7252
-26.986
-31.2078
-31.8563
-30.7645
-31.4259
-32.0503
-31.5141
-31.5855
-31.1976
-33.3025
-32.0025
-32.4537
-32.2173
-32.924
-33.6145
-32.8905
-32.7979
-76.3042
-20.7665
-59.2152
-29.9741
-58.3466
-64.2947
-70.4937
-74.4706
-64.2584
-58.2927
-74.4446
-70.4558
-19.9969
-76.3767
-29.2181
-58.8908
-42.4395
-42.9587
-43.8407
-43.9913
-42.5441
-46.4607
-45.8824
-53.0323
-41.1446
-42.1009
-44.2516
-46.6165
-46.674
-45.9045
-47.015
-46.1714
-42.5837
-43.1735
-43.9445
-44.1546
-46.7179
-46.0154
-47.0474
-46.2512
-41.0331
-41.9699
-44.113
-46.5129
-42.6141
-45.6419
-45.7777
-52.9706
-38.9821
-38.3192
-39.8785
-39.7731
-39.0476
-38.3996
-39.9325
-39.8258
-41.4323
-42.248
-41.5835
-41.7562
-41.4562
-42.2636
-41.5942
-41.7577
-44.5468
-46.0451
-40.7295
-42.3482
-30.9396
-32.5074
-30.5667
-32.0267
-30.7941
-32.3791
-30.5101
-31.9307
-44.4973
-46.2704
-40.6996
-42.3196
-36.6425
-36.8481
-36.838
-36.5445
-36.7718
-36.6504
-36.4812
-36.7868
-34.8177
-35.9829
-35.5735
-35.938
-36.0663
-34.957
-36.023
-35.6685
-85.1412
54.2645
-113.457
-50.957
-86.6018
-89.4712
-39.9844
-38.3095
-41.0955
-39.6067
-42.936
-42.1516
-34.0187
94.5116
17.547
98.0667
-57.5146
24.9232
-37.3088
-36.2025
-33.8452
-34.8806
-36.7584
-34.6379
-113.457
-51.8441
-85.3749
51.6029
-86.3279
-89.474
-41.0299
-39.5298
-39.8437
-38.2349
-42.7929
-42.087
17.037
99.0936
-37.5884
111.222
-61.3818
25.1708
-33.6976
-34.7658
-37.2114
-36.1145
-36.643
-34.504
-44.081
-42.2139
-30.8161
-32.1725
-41.6685
-30.9893
-38.6573
-33.7632
-40.7668
-37.5467
-30.2993
-34.0888
-22.2334
-44.7342
-35.2641
-38.4803
-43.078
-38.7763
-40.4674
-39.8693
-41.9947
-58.0701
-27.3624
-41.0524
-36.9416
-47.5436
-34.3567
-30.2656
-38.0342
-45.6318
-49.1424
-47.3252
-44.2828
-42.3277
-38.7878
-33.9483
-31.5481
-32.4201
-41.8062
-31.2731
-40.7409
-37.6753
-35.4788
-38.6732
-32.0879
-34.3694
-25.6454
-45.1949
-43.066
-38.9734
-28.5059
-40.5514
-40.7139
-39.6405
-41.6327
-57.5212
-36.352
-47.9906
-49.1277
-47.339
-34.446
-30.0877
-38.1696
-45.7688
-90.4103
140.907
-75.9808
131.492
-99.6941
-104.112
139.228
133.29
-91.0313
-6.0064
-91.0812
-6.95876
-76.2622
-76.2894
76.5981
75.5539
-64.4778
-56.2734
-47.4629
-48.9357
-59.7066
-50.641
-61.0214
-52.5611
-39.4917
-37.4691
-38.5357
-36.5934
-40.1247
-39.7981
-36.9531
-36.4383
-40.5609
-39.8076
-40.5357
-39.7615
-40.7489
-40.7606
-38.0524
-38.0313
-54.5229
-42.7819
-41.5546
-39.7622
-44.4621
-51.1819
-40.0969
-41.0669
10.9746
44.0623
10.9641
44.0369
-1.63524
-1.70148
97.3319
99.9638
-69.041
-61.5355
-51.2932
-41.7949
-55.2324
-66.602
-44.3548
-36.6727
-29.6359
-31.027
-29.4834
-30.8296
-28.6214
-28.5575
-30.4676
-30.6001
-46.2898
-38.6363
-50.4151
-45.8961
-51.1786
-51.6105
-41.2688
-37.9597
-85.815
141.731
-69.9835
135.835
-97.7806
-99.7949
136.01
141.007
-65.1607
-56.3855
-47.5009
-49.0198
-60.7509
-50.6369
-61.1219
-52.6367
-39.3672
-37.3878
-38.4126
-36.5131
-39.6434
-39.9804
-36.8548
-36.3554
-54.4831
-42.833
-41.5601
-39.7937
-44.4553
-51.2043
-40.1277
-41.0655
-69.4761
-59.5109
-51.5997
-41.7818
-67.4544
-55.2374
-36.3479
-44.3773
-46.1914
-38.5021
-50.4218
-45.7637
-51.5283
-51.0906
-37.8405
-41.1811
-29.8101
-30.7604
-30.2583
-31.7949
-30.5708
-30.1157
-31.4839
-31.8238
-40.6178
-34.3144
-40.2677
-36.6108
-44.3337
-43.8977
-34.3196
-35.6949
-39.6971
-34.0449
-39.7522
-34.1102
-43.8429
-43.8187
-32.9822
-33.0172
-25.2611
-40.9008
-27.0891
-36.2684
-25.7445
-28.0783
-44.7459
-44.3723
-35.0731
-38.3754
-35.1052
-38.4278
-34.7342
-34.7285
-37.6269
-37.6491
-42.821
-55.1186
-39.9184
-50.0951
-38.9506
-40.2975
-63.824
-58.6256
15.6738
16.3523
15.5012
16.3594
12.7992
12.6814
7.52097
7.54145
-59.7374
-51.6167
-59.7228
-51.603
-65.8003
-65.7934
-48.0382
-48.0324
-30.5746
-30.712
-29.6246
-31.0686
-30.0986
-29.4213
-30.9343
-31.1577
-40.7419
-34.3557
-40.5819
-36.4591
-43.9598
-44.6174
-34.2199
-35.47
-25.8367
-40.359
-27.1192
-36.1673
-28.0252
-25.4941
-45.1284
-44.6271
-42.5228
-54.8877
-39.6089
-49.8855
-40.0069
-38.6535
-58.4538
-63.5958
-65.9878
-67.3309
-60.6049
-52.1329
-53.5771
-62.8474
-49.2545
-49.7995
-67.274
-68.5903
-61.8178
-52.1352
-64.1439
-53.5359
-49.8829
-49.2811
-57.8881
-57.9079
-60.1133
-51.9206
-60.1382
-51.9475
-49.3321
-49.32
-20.6817
-20.7185
-24.0293
-18.2391
-18.4445
-23.997
-12.581
-12.7064
189.939
188.012
197.331
196.775
201.314
201.294