# vtk DataFile Version 2.0
tet_velo
ASCII
DATASET UNSTRUCTURED_GRID
POINTS 29498 float
-0.825 0.165 -1.91694
-0.825 0.225 2.0302
-0.825 0.68931 -1.925
-0.795 0.935 1.97472
0.825 0.165 -1.91694
0.825 0.225 2.0302
0.825 0.68931 -1.925
0.795 0.930705 1.975
-0.863258 0.146742 -0.601227
-0.865601 0.164399 0.714487
-0.832045 0.788252 -0.625093
-0.817565 0.865668 0.674813
0.863254 0.146746 -0.601227
0.865599 0.164401 0.714487
0.832263 0.787038 -0.625
0.81802 0.86326 0.675
-1.66322 -0.191824 -2.95025
-1.66824 -0.159017 -1.90399
-1.69392 -0.169163 -0.587874
-1.69836 -0.166806 0.731404
-1.67514 -0.121631 2.04778
-1.6675 -0.0737015 3.09535
-1.66907 -0.0256132 4.1405
-1.66253 0.108123 -2.95994
-1.66529 0.153734 -1.9154
-1.69446 0.156824 -0.602362
-1.69302 0.174019 0.712087
-1.65949 0.227256 2.02543
-1.65711 0.275056 3.07279
-1.66333 0.321255 4.11846
-1.66192 0.677543 -2.97491
-1.66005 0.720911 -1.92973
-1.67039 0.795949 -0.62746
-1.65686 0.864047 0.673675
-1.63176 0.930235 1.97625
-1.64152 0.974739 3.0243
-1.65491 1.01556 4.07255
-1.66607 1.59565 -3.00923
-1.66535 1.6516 -1.9664
-1.66508 1.75028 -0.669228
-1.6593 1.854 0.624541
-1.65227 1.93859 1.92189
-1.65298 1.99062 2.96508
-1.65813 2.03395 4.01158
-0.827561 -0.18521 -2.95125
-0.825644 -0.150003 -1.90545
-0.850289 -0.1731 -0.587647
-0.860231 -0.174689 0.733435
-0.843324 -0.125458 2.05131
-0.838527 -0.0759848 3.09777
-0.84053 -0.0271217 4.14193
-0.829245 0.110625 -2.96024
-0.831955 0.27401 3.0748
-0.837173 0.320617 4.11955
-0.830241 0.665451 -2.97294
-0.820645 0.976643 3.02407
-0.83176 1.01672 4.07255
-0.833696 1.58532 -3.00727
-0.832834 1.64077 -1.96424
-0.833731 1.7453 -0.6679
-0.831596 1.85527 0.62445
-0.828041 1.94205 1.92086
-0.829174 1.99372 2.96405
-0.833179 2.03618 4.01086
0.836911 -0.185476 -2.95123
0.844061 -0.150146 -1.90544
0.861205 -0.173266 -0.587635
0.853735 -0.174912 0.733451
0.826273 -0.125809 2.05134
0.819268 -0.0769874 3.09784
0.816654 -0.0284669 4.14202
0.829287 0.110417 -2.96022
0.814479 0.272715 3.07489
0.813998 0.319065 4.11966
0.825894 0.665194 -2.97292
0.804958 0.974013 3.02424
0.810651 1.01468 4.07269
0.828813 1.58462 -3.00721
0.82937 1.63993 -1.96418
0.827276 1.74404 -0.667805
0.820903 1.85344 0.624583
0.815035 1.9398 1.92102
0.813956 1.9915 2.96421
0.814313 2.03415 4.011
1.67152 -0.192534 -2.9502
1.67915 -0.159638 -1.90394
1.70125 -0.169991 -0.587811
1.69768 -0.168018 0.731491
1.66786 -0.123293 2.0479
1.65355 -0.0760224 3.09551
1.64864 -0.0283447 4.14069
1.66306 0.107475 -2.95989
1.66551 0.153134 -1.91536
1.69563 0.155838 -0.602286
1.69613 0.172383 0.712206
1.6617 0.224969 2.02558
1.64657 0.272182 3.07298
1.64418 0.31816 4.11867
1.65742 0.676763 -2.97485
1.65737 0.72004 -1.92966
1.66977 0.793914 -0.627304
1.65997 0.86039 0.673945
1.63506 0.924965 1.9766
1.6328 0.970168 3.02461
1.63764 1.01167 4.07281
1.66077 1.59417 -3.00911
1.66112 1.64986 -1.96627
1.65927 1.74781 -0.669044
1.65112 1.85054 0.624793
1.64214 1.9344 1.92219
1.63994 1.98642 2.96537
1.64086 2.03003 4.01185
-0.874424 0.427155 -1.97039
0 0.161174 -1.92077
-0.846669 0.153331 -1.25908
-0.807679 0.58 2.00014
0 0.201449 2.05375
-0.842678 0.197322 1.37234
0 0.740892 -1.97658
-0.838828 0.749087 -1.27505
0 0.960039 2.00205
-0.809521 0.903573 1.32477
0.874468 0.427155 -1.97044
0.846955 0.153045 -1.25908
0.806581 0.577853 1.99918
0.842657 0.197343 1.37234
0.838981 0.748523 -1.275
0.810095 0.900568 1.325
-0.864547 0.155453 0.05663
-0.866228 0.467497 -0.61316
-2.36944e-06 0.140779 -0.601227
-0.866298 0.515034 0.69465
-1.0247e-06 0.140968 0.714487
-0.824163 0.826318 0.02486
0.00010893 1.11403 -0.625047
0.000227582 1.47671 0.674907
0.864544 0.155456 0.05663
0.866222 0.466892 -0.613113
0.866301 0.513831 0.694743
0.824507 0.824514 0.025
-0.887958 0.447326 -1.26707
-0.866187 0.491265 0.040745
-0.885618 0.547517 1.34856
-1.18472e-06 0.151368 -1.25908
-1.69707e-06 0.139884 0.05663
-5.12348e-07 0.15531 1.37234
0 0.427155 -2.1103
0 0.578926 2.03613
5.44649e-05 0.87071 -1.27502
0.000168256 1.45637 0.02493
0.000113791 1.47682 1.32488
0.888007 0.447024 -1.26704
0.866185 0.490362 0.040815
0.885644 0.545842 1.34867
-1.24515 0.159367 -1.91617
-0.825322 0.00749849 -1.91119
-0.827123 0.137812 -2.43859
-1.24224 0.226128 2.02781
-0.834162 0.0497708 2.04076
-0.828477 0.249505 2.5525
-1.24253 0.705111 -1.92736
-0.82762 0.677381 -2.44897
-0.828917 1.16504 -1.94462
-1.21338 0.932617 1.97548
-0.807822 0.955821 2.49939
-0.81152 1.43853 1.94779
0.834531 0.007427 -1.91119
0.827144 0.137709 -2.43858
1.24526 0.159067 -1.91615
0.825636 0.0495954 2.04077
0.81974 0.248858 2.55254
1.24335 0.224984 2.02789
0.825447 0.677252 -2.44896
0.827185 1.16462 -1.94459
1.24118 0.704675 -1.92733
0.799979 0.952359 2.49962
0.805018 1.43525 1.94801
1.21503 0.927835 1.9758
-1.27886 0.151783 -0.601794
-0.856774 -0.0131794 -0.594437
-1.27931 0.169209 0.713287
-0.862916 -0.0051448 0.723961
-1.25122 0.792101 -0.626277
-0.832888 1.26677 -0.646497
-1.23721 0.864858 0.674244
-0.82458 1.36047 0.649632
0.862229 -0.01326 -0.594431
1.27944 0.151292 -0.601757
0.859667 -0.00525555 0.723969
1.28086 0.168392 0.713346
0.82977 1.26554 -0.646403
1.25102 0.790476 -0.626152
0.819462 1.35835 0.649792
1.239 0.861825 0.674472
-1.66573 -0.175421 -2.42712
-1.66287 -0.0418507 -2.9551
-1.24539 -0.188517 -2.95075
-1.68108 -0.16409 -1.24593
-1.66677 -0.00264168 -1.90969
-1.24694 -0.15451 -1.90472
-1.69614 -0.167984 0.0717649
-1.69419 -0.00616918 -0.595118
-1.27211 -0.171132 -0.587761
-1.68675 -0.144219 1.38959
-1.69569 0.00360651 0.721746
-1.2793 -0.170748 0.732419
-1.67132 -0.0976662 2.57157
-1.66731 0.0528127 2.03661
-1.25923 -0.123545 2.04955
-1.66828 -0.0496573 3.61793
-1.6623 0.100677 3.08407
-1.25301 -0.0748431 3.09656
-1.6662 0.147821 4.12948
-1.2548 -0.0263674 4.14121
-1.66391 0.130928 -2.43767
-1.66222 0.392833 -2.96743
-1.24589 0.109374 -2.96009
-1.67988 0.155279 -1.25888
-1.66267 0.437322 -1.92256
-1.69374 0.165422 0.0548628
-1.68243 0.476387 -0.614911
-1.67625 0.200638 1.36876
-1.67494 0.519033 0.692881
-1.6583 0.251156 2.54911
-1.64562 0.578746 2.00084
-1.66022 0.298156 3.59562
-1.64931 0.624897 3.04854
-1.24453 0.274533 3.07379
-1.65912 0.668408 4.0955
-1.25025 0.320936 4.119
-1.66099 0.699227 -2.45232
-1.664 1.1366 -2.99207
-1.24608 0.671497 -2.97393
-1.66522 0.75843 -1.27859
-1.6627 1.18626 -1.94806
-1.66362 0.829998 0.0231073
-1.66773 1.27312 -0.648344
-1.64431 0.897141 1.32496
-1.65808 1.35902 0.649108
-1.63664 0.952487 2.50028
-1.64201 1.43441 1.94907
-1.64821 0.99515 3.54842
-1.64725 1.48268 2.99469
-1.23108 0.975691 3.02419
-1.65652 1.52475 4.04207
-1.24333 1.01614 4.07255
-1.66571 1.62363 -2.48781
-1.24988 1.59049 -3.00825
-1.66521 1.70094 -1.31782
-1.24909 1.64619 -1.96532
-1.66219 1.80214 -0.0223435
-1.2494 1.74779 -0.668564
-1.65578 1.89629 1.27322
-1.24545 1.85463 0.624496
-1.65262 1.96461 2.44348
-1.24015 1.94032 1.92138
-1.65555 2.01228 3.48833
-1.24108 1.99217 2.96457
-1.24565 2.03506 4.01122
-0.826603 -0.167607 -2.42835
-0.828403 -0.0372928 -2.95574
0.00467472 -0.185343 -2.95124
-0.837967 -0.161552 -1.24655
0.00920848 -0.150075 -1.90544
-0.85526 -0.173895 0.0728936
0.00545809 -0.173183 -0.587641
-0.851778 -0.150074 1.39237
-0.00324801 -0.174801 0.733443
-0.840925 -0.100722 2.57454
-0.00852569 -0.125634 2.05132
-0.839528 -0.0515532 3.61985
-0.835241 0.0990128 3.08629
-0.00962937 -0.0764861 3.0978
-0.838851 0.146748 4.13074
-0.0119383 -0.0277943 4.14197
-0.829743 0.388038 -2.96659
2.09887e-05 0.110521 -2.96023
-0.834564 0.297314 3.59718
-0.8263 0.625326 3.04944
-0.00873787 0.273363 3.07485
-0.834466 0.668671 4.09605
-0.0115872 0.319841 4.1196
-0.831968 1.12539 -2.9901
-0.00217315 0.665323 -2.97293
-0.826202 0.996684 3.54831
-0.82491 1.48518 2.99406
-0.00784341 0.975328 3.02416
-0.83247 1.52645 4.0417
-0.0105546 1.0157 4.07262
-0.833265 1.61305 -2.48575
-0.00244172 1.58497 -3.00724
-0.833283 1.69303 -1.31607
-0.00173227 1.64035 -1.96421
-0.832663 1.80028 -0.0217248
-0.00322754 1.74467 -0.667853
-0.829818 1.89866 1.27266
-0.00534635 1.85435 0.624517
-0.828608 1.96789 2.44246
-0.00650282 1.94093 1.92094
-0.831177 2.01495 3.48746
-0.0076092 1.99261 2.96413
-0.00943319 2.03517 4.01093
0.840486 -0.167811 -2.42833
0.833099 -0.0375295 -2.95573
1.25421 -0.189005 -2.95071
0.852633 -0.161706 -1.24654
1.26161 -0.154892 -1.90469
0.85747 -0.174089 0.072908
1.28123 -0.171629 -0.587723
0.840004 -0.150361 1.39239
1.27571 -0.171465 0.732471
0.82277 -0.101398 2.57459
1.24707 -0.124551 2.04962
0.817961 -0.0527272 3.61993
0.816874 0.0978638 3.08636
1.23641 -0.0765049 3.09667
0.815326 0.145299 4.13084
1.23265 -0.0284058 4.14135
0.827591 0.387806 -2.96657
1.24617 0.108946 -2.96006
0.814239 0.29589 3.59727
0.809719 0.623364 3.04957
1.23052 0.272449 3.07393
0.812324 0.666873 4.09617
1.22909 0.318612 4.11916
0.827354 1.12491 -2.99007
1.24166 0.670978 -2.97389
0.807804 0.994347 3.54847
0.809457 1.48276 2.99423
1.21888 0.97209 3.02443
0.812482 1.52442 4.04184
1.22414 1.01318 4.07275
0.829091 1.61227 -2.4857
1.24479 1.5894 -3.00816
0.828323 1.69198 -1.31599
1.24525 1.64489 -1.96523
0.82409 1.79874 -0.0216111
1.24327 1.74592 -0.668425
0.817969 1.89662 1.2728
1.23601 1.85199 0.624688
0.814496 1.96565 2.44261
1.22859 1.9371 1.9216
0.814134 2.01282 3.4876
1.22695 1.98896 2.96479
1.22758 2.03209 4.01142
1.67533 -0.176086 -2.42707
1.66729 -0.0425295 -2.95505
1.6902 -0.164814 -1.24588
1.67233 -0.00325157 -1.90965
1.69947 -0.169004 0.0718398
1.69844 -0.00707644 -0.595049
1.68277 -0.145655 1.38969
1.69691 0.00218248 0.721848
1.66071 -0.0996576 2.5717
1.66478 0.050838 2.03674
1.6511 -0.0521836 3.6181
1.65006 0.0980799 3.08424
1.64641 0.144908 4.12968
1.66429 0.130305 -2.43762
1.66024 0.392119 -2.96737
1.68057 0.154486 -1.25882
1.66144 0.436587 -1.92251
1.69588 0.16411 0.0549596
1.6827 0.474876 -0.614795
1.67891 0.198676 1.36889
1.67805 0.516386 0.693075
1.65413 0.248576 2.54928
1.64838 0.574967 2.00109
1.64537 0.295171 3.59582
1.63968 0.621175 3.04879
1.64091 0.664915 4.09574
1.65739 0.698402 -2.45226
1.65909 1.13547 -2.99198
1.66357 0.756977 -1.27848
1.65924 1.18495 -1.94797
[...]
POINT_DATA 29498
VECTORS point_vectors float
-2.86345 -4.08986 8.46295
0.195011 0.243281 2.02426
-3.12057 1.66869 4.26494
0.192368 0.0671711 0.768588
2.8613 -4.13301 8.49342
-0.203546 0.250864 2.06792
3.11981 1.66936 4.26129
-0.164833 0.0222626 0.614786
0.111034 -0.0578421 1.66433
0.00597343 0.0147709 0.756892
-0.000380597 0.00199523 0.0441135
0.00378571 0.0139395 0.0340592
-0.111515 -0.058335 1.66559
-0.00553145 0.0156827 0.756469
0.000366904 0.0019212 0.0427237
-0.00444291 0.0164132 0.0402104
-0.660654 -0.274106 19.938
-1.18429 -0.576182 20.6196
-0.466616 -0.382317 21.3856
-0.0178936 -0.14994 21.6362
0.406842 0.101334 21.6191
0.778675 0.286777 21.455
0.868849 0.349976 20.7587
-0.767417 -0.200758 19.8374
-1.46413 -0.483865 20.5637
-0.607017 -0.399584 21.4111
-0.030348 -0.209263 21.6396
0.502472 -0.0237388 21.6905
0.948926 0.106748 21.6098
1.09805 0.103875 20.8072
-0.776947 0.0407629 19.7789
-1.69278 0.0368669 20.4197
-1.15735 -0.421255 21.4001
-0.366399 -0.411166 21.7779
0.326049 -0.370332 21.75
0.857155 -0.355789 21.5906
0.81761 -0.61535 21.1844
-0.526462 0.307941 19.939
-0.972859 0.531397 20.3114
-1.11923 0.381118 21.1164
-0.571024 0.0606861 21.638
-0.0112209 -0.234739 21.6562
0.335443 -0.386556 21.5431
0.500636 -0.616217 20.7201
-0.75656 -0.746687 19.2316
-2.23094 -3.21482 21.0917
-0.545062 -0.397384 21.7039
-0.00692364 0.117831 20.824
0.365216 0.775744 19.7565
0.746051 1.24947 19.7347
0.895032 1.56428 19.6038
-0.932288 -0.540985 18.8159
0.790641 1.73668 11.8177
2.38726 1.24785 15.0093
-0.987713 0.192013 18.649
1.29113 1.04443 9.18459
2.12726 -0.684757 13.3949
-0.488429 0.634913 19.5124
-1.18214 1.5778 19.8615
-2.0231 1.95664 20.8808
-0.963879 0.651439 22.2373
-0.0970759 -0.279371 21.9364
0.193596 -0.767476 21.6888
0.192942 -0.689333 22.1061
0.755907 -0.734753 19.2348
2.25088 -3.09266 21.0636
0.542012 -0.391243 21.7083
0.0149781 0.119455 20.8224
-0.342302 0.80241 19.6269
-0.710164 1.33929 19.5274
-0.824532 1.63375 19.4519
0.933097 -0.539397 18.8112
-0.82347 1.8193 11.4003
-2.425 1.32736 14.4218
0.984245 0.192863 18.6428
-1.27745 1.03011 8.66388
-2.15973 -0.712695 12.8156
0.485833 0.636685 19.5094
1.18199 1.58622 19.8584
2.02548 1.97825 20.8762
0.96915 0.661906 22.2505
0.108123 -0.289696 21.9514
-0.18435 -0.79048 21.7106
-0.194152 -0.71234 22.1093
0.657656 -0.275343 19.9413
1.17217 -0.571034 20.6171
0.465719 -0.386444 21.382
0.016791 -0.152642 21.6327
-0.417303 0.107985 21.6232
-0.80838 0.318311 21.4469
-0.899348 0.352333 20.7535
0.763613 -0.206943 19.8411
1.46271 -0.486118 20.567
0.607022 -0.402007 21.4158
0.0328082 -0.207003 21.6443
-0.510985 -0.016253 21.7019
-0.981499 0.118014 21.6026
-1.11302 0.117092 20.8031
0.779941 0.0449161 19.7851
1.69986 0.0372293 20.4236
1.15464 -0.423554 21.4075
0.363067 -0.411178 21.7838
-0.340136 -0.367029 21.7567
-0.875025 -0.35335 21.5934
-0.822774 -0.600826 21.2261
0.526688 0.309662 19.9386
0.976473 0.533417 20.3113
1.12764 0.383746 21.1203
0.578282 0.0609765 21.642
0.00378931 -0.241283 21.6377
-0.339707 -0.390158 21.5821
-0.499753 -0.657054 20.7234
-4.06768 -0.124129 5.30354
-7.16469e-06 -0.106866 0.465762
0.114849 -0.0273003 0.894701
-0.06689 0.00204942 -0.017824
0.0138255 -0.0953346 0.00462092
0.0252723 0.0242634 0.998433
-0.000405867 0.605281 1.13843
-0.126958 -0.256805 0.80837
0.000378111 0.0126614 -0.00702761
0.0118721 0.0475174 0.165445
4.0812 -0.125894 5.3192
-0.113534 -0.030828 0.922156
0.0807743 -0.00304505 -0.0413277
-0.0245962 0.025487 0.995327
0.128623 -0.258826 0.814922
-0.0122829 0.0480466 0.166652
0.015421 -0.00335801 0.624819
0 0 0
7.28614e-07 -3.16568e-07 9.79505e-05
0 0 0
3.48185e-07 -4.45815e-08 9.83427e-05
0.00215838 0.0113093 0.028165
-7.09324e-06 0.0236017 0.0391901
-1.93352e-05 4.19522e-05 0.00197926
-0.0151522 -0.0031692 0.624494
0 0 0
0 0 0
-0.00291322 0.0152034 0.0380292
-1.35773e-05 -0.000358471 0.00232079
0 0 0
0.000866542 0.0255561 0.214596
0 0 0
4.9438e-06 -4.72914e-05 0.00961417
3.19752e-06 1.06266e-05 0.000670385
2.41515e-05 -0.42509 0.232187
0.000225299 0.00354555 -5.29389e-05
0 0 0
8.68152e-05 0.00139801 0.0146532
3.07003e-05 -0.000871561 0.0318581
-6.33466e-06 -0.000390123 0.0032162
0 0 0
-0.000536452 0.021266 0.177973
-2.82366 -1.23342 20.811
-3.60235 -4.92233 21.6509
-2.37462 -1.81403 17.7539
0.8964 0.159763 21.2409
0.528387 0.923744 14.1237
0.35751 1.11656 8.3965
-3.34378 0.391464 20.4269
-2.74675 0.948625 17.1217
-2.51493 2.56917 19.6617
0.555927 -0.5507 20.9806
0.647634 1.36033 6.13484
0.619121 0.0300332 15.388
3.59718 -4.76466 21.5597
2.38077 -1.81106 17.7537
2.82444 -1.23367 20.8112
-0.508382 0.954962 13.9739
-0.352084 1.16166 8.17426
-0.91199 0.17054 21.2853
2.74717 0.953747 17.1064
2.51587 2.58003 19.659
3.35385 0.391784 20.4313
-0.617091 1.28053 5.95394
-0.642972 0.0349391 14.9869
-0.580274 -0.559733 20.9997
-0.468868 -0.668043 21.8226
0.165853 -0.221744 17.2032
0.200488 -0.250667 21.7284
0.323333 0.107145 15.7317
-1.82691 -1.13255 21.7374
-5.01001 1.99747 20.6986
-0.386141 -0.900723 21.371
-0.559228 0.486085 15.3473
-0.146318 -0.224478 17.3787
0.471235 -0.666194 21.8236
-0.315397 0.108209 15.6346
-0.196482 -0.247128 21.7351
5.04519 2.02792 20.679
1.8184 -1.13879 21.7288
0.497674 0.531983 14.6676
0.379638 -0.902219 21.3913
-0.986841 -0.460343 20.1406
-0.710803 -0.243604 19.8946
-0.767066 -0.465304 19.6576
-0.845878 -0.497353 21.1797
-1.32678 -0.535965 20.5915
-1.76344 -1.28929 20.7528
-0.227153 -0.270357 21.5393
-0.535909 -0.400603 21.4108
-0.445306 -0.43017 21.6176
0.198709 -0.0205747 21.6965
-0.025304 -0.177836 21.6351
0.0633207 -0.0434377 21.7357
0.577219 0.173053 21.5519
0.448484 0.0670241 21.6424
0.548507 0.370979 21.7012
0.869395 0.19151 21.4294
0.849877 0.208666 21.4065
0.996078 0.797257 21.4278
0.997523 0.244257 20.8311
1.11985 0.7938 21.0099
-1.18979 -0.362228 20.0387
-0.801878 -0.0715419 19.7858
-0.938734 -0.348531 19.4344
-1.02992 -0.471046 21.1896
-1.65829 -0.217192 20.495
-0.290509 -0.324743 21.5761
-0.838509 -0.482996 21.4308
0.229999 -0.114745 21.7443
-0.145733 -0.35978 21.7319
0.714438 0.0394146 21.6579
0.48206 -0.221794 21.7531
1.12461 0.00536843 21.8687
0.989731 -0.100087 21.2151
1.37563 0.461085 21.0585
1.17414 -0.193985 20.6742
1.53636 0.581196 20.941
-1.28537 0.0682383 19.9126
-0.695189 0.231554 19.8341
-0.993289 0.121273 19.3346
-1.47927 -0.218265 21.0806
-1.37462 0.407149 20.3208
-0.771878 -0.446879 21.6849
-1.36758 0.0439303 21.2496
-0.0109956 -0.365627 21.816
-0.585975 -0.158118 21.7545
0.583895 -0.350236 21.6532
0.108539 -0.32897 21.6757
1.10963 -0.429503 21.2377
0.522425 -0.45115 21.4583
1.34854 -0.617682 20.9425
0.637753 -0.704968 21.1275
1.5968 -0.631132 20.1942
-0.740363 0.431656 20.0674
-0.556977 0.460597 19.74
-1.10406 0.506646 20.6859
-1.19783 0.93751 20.1238
-0.908707 0.244204 21.4593
-1.61243 0.895898 21.0924
-0.256988 -0.0948187 21.671
-0.790746 0.239892 21.8893
0.169566 -0.366097 21.5283
-0.0570549 -0.282433 21.7808
0.352039 -0.467527 21.342
0.310268 -0.542146 21.5031
0.337084 -0.580065 21.4698
-1.54368 -1.87566 19.0927
-0.838065 -0.693467 19.0423
0.00185837 -1.06799 18.7446
-1.16495 -1.07825 22.2389
0.0211247 -5.11705 21.5325
-0.201831 -0.100373 21.1408
0.00623753 -0.768837 20.3486
0.207551 0.385311 20.1954
0.00246295 -0.190649 17.7071
0.463206 1.04544 19.2774
0.0256404 0.164607 14.9626
1.13391 1.80217 19.4874
0.75348 1.6415 15.5803
0.0935677 0.323188 11.4308
1.75392 1.38969 16.1076
0.0301053 2.07483 10.5692
-1.00232 -0.217188 18.6416
0.00183672 -0.815047 18.0649
1.95362 1.4639 13.3577
0.66324 1.64784 7.35992
-0.0936613 -2.66101 -5.33732
2.81828 0.699842 14.171
-0.00681547 -0.246086 0.701932
-0.757958 0.59018 19.0866
-0.00325362 0.276531 17.8179
1.82111 -0.33495 12.1146
0.764786 -0.925489 18.8238
-0.0837577 -1.45238 -2.93747
0.948172 -1.39262 19.1958
-0.0327035 -2.03034 -4.99876
-0.815239 1.11684 19.5277
-0.000777031 0.845851 19.2444
-1.52674 1.70337 20.3055
-0.00227742 2.36425 19.5226
-1.78852 1.51748 22.083
-0.0132542 4.1446 20.1747
-0.426787 0.107057 22.1495
-0.00876085 1.49933 22.7662
0.0540264 -0.507564 21.8337
0.00112539 -0.0780249 22.1048
0.349406 -0.929381 21.8896
0.00481232 -0.723815 22.0381
0.0104675 -1.27761 21.9549
1.55199 -1.8369 19.119
0.839361 -0.688271 19.0418
0.774032 -0.466838 19.6603
1.16182 -1.04705 22.2146
1.74039 -1.24917 20.7384
0.205259 -0.0969852 21.15
0.45099 -0.431104 21.6088
-0.196036 0.391875 20.0868
-0.059854 -0.0395153 21.7357
-0.43851 1.08095 19.0557
-0.554109 0.399867 21.6997
-1.08698 1.83875 19.3063
-0.773143 1.71332 15.4739
-1.0349 0.8095 21.3802
-1.68692 1.50039 16.0352
-1.12367 0.826912 21.0144
1.00556 -0.216643 18.6384
0.940927 -0.34742 19.4395
-1.96543 1.52272 12.9621
-0.623876 1.70377 6.78509
-1.45007 0.49234 20.8844
-2.86101 0.773372 13.625
-1.57022 0.608243 20.9122
0.757009 0.59221 19.0788
0.996581 0.11938 19.3292
-1.80962 -0.353166 11.5838
-0.782383 -0.960644 18.5783
-1.38073 -0.613017 20.7927
-0.956262 -1.40174 19.0313
-1.65701 -0.640472 20.0926
0.813577 1.12187 19.5237
0.556567 0.462168 19.7386
1.52862 1.71513 20.3011
1.19999 0.94434 20.1224
1.79946 1.54674 22.095
1.62698 0.90555 21.0935
0.431762 0.105727 22.164
0.795141 0.241207 21.9004
-0.0419779 -0.521901 21.8513
0.0559704 -0.291299 21.7943
-0.339313 -0.944984 21.8959
-0.312292 -0.554268 21.4825
-0.325892 -0.597365 21.5093
0.98246 -0.457493 20.1439
0.708088 -0.242789 19.9044
0.841844 -0.495219 21.1729
1.31704 -0.534801 20.5936
0.227546 -0.274332 21.5376
0.534109 -0.402434 21.4121
-0.203706 -0.0204883 21.7048
0.0256916 -0.179072 21.637
-0.596113 0.184557 21.5552
-0.456824 0.0729444 21.6528
-0.876466 0.208836 21.4261
-0.87755 0.240315 21.4022
-1.02514 0.250357 20.8306
1.18681 -0.366246 20.0459
0.804343 -0.0736419 19.7848
1.02983 -0.474712 21.1916
1.66398 -0.218337 20.4993
0.290849 -0.322995 21.5768
0.837944 -0.48428 21.4394
-0.234806 -0.111386 21.7451
0.146066 -0.356938 21.7383
-0.733152 0.0468347 21.6568
-0.493565 -0.215085 21.7664
-1.14384 0.00706953 21.8428
-1.01404 -0.0989381 21.1912
-1.16921 -0.179927 20.7281
1.28973 0.0703583 19.9168
0.697171 0.229312 19.8323
1.48094 -0.218682 21.0891
1.38058 0.408738 20.3209
0.768232 -0.447809 21.6881
1.37314 0.0405769 21.2516
-0.00114803 -0.363839 21.8214
0.584889 -0.164772 21.7609
-0.61005 -0.357757 21.6533
-0.133119 -0.338263 21.6878
-1.12315 -0.4405 21.1946
-0.539492 -0.455426 21.5389
-0.662259 -0.731591 21.1056
0.742404 0.432793 20.066
1.11035 0.508909 20.6879
0.917066 0.243434 21.4681
0.257464 -0.104064 21.6767
-0.152128 -0.343723 21.538
-0.349133 -0.476094 21.2988
-1.09758 -0.415509 20.0827
-1.94341 -1.98889 18.4694
-1.37851 -0.961148 19.799
-1.90814 -0.833929 19.3645
-0.859426 -0.424276 19.546
-2.25158 -1.33754 20.7936
-0.94049 -0.486366 21.1844
-0.703412 -0.585332 19.0296
-0.952756 -0.746818 21.5168
-1.17208 -0.829906 21.728
-0.443322 -0.512225 21.6715
-0.246881 -0.294861 21.556
0.318241 -0.0463308 16.0753
-0.152382 -0.229608 21.6811
-0.0819826 -0.461421 21.8347
0.143646 -0.0945084 21.7903
0.210574 -0.0579459 21.7151
0.460461 0.359064 14.3168
0.287166 0.152132 21.7496
0.479241 -0.0760707 21.4657
0.753417 0.310697 21.5666
0.630449 0.12708 21.5788
0.716038 1.11487 15.0928
0.745961 0.511217 21.6421
1.14933 0.270173 21.0767
1.20841 0.691803 21.4713
0.977186 0.137001 21.6304
1.5181 1.68861 15.8219
1.24408 0.981682 21.3314
1.87792 0.360737 20.464
1.24655 0.692956 21.0876
-1.30164 -0.134791 19.9372
-2.87471 -0.555342 16.9436
-2.0947 0.306927 19.1416
-1.00675 -0.152946 19.3369
-3.42901 -0.513794 20.6293
-1.26904 -0.383334 21.1623
-2.22529 -0.534131 21.4359
-0.868181 -1.04241 21.8238
-0.464647 -0.466208 21.6411
-1.03336 -1.15774 21.7775
0.123333 -0.599901 21.2955
0.165254 -0.272099 21.8096
0.049046 -0.650667 21.1468
0.901369 -0.189018 20.6677
0.731367 -0.174717 21.659
-0.287111 1.46098 3.52627
0.833527 -0.548326 20.981
1.59117 -0.079783 20.8868
1.19262 -0.147741 22.0134
2.29636 0.898931 10.7883
1.69803 -0.477099 20.1465
1.9194 0.0243772 20.1989
-1.05755 0.357196 19.9539
-1.5547 1.48331 18.7493
-0.899665 0.725631 19.8227
-0.796147 0.375954 19.5237
-2.04692 1.03544 20.1164
-1.44497 0.2587 20.8259
-3.05933 1.85765 20.321
-1.43014 0.952003 20.5737
-2.43657 0.25633 21.334
-1.02347 -0.0831558 21.6165
-3.13046 -0.0504367 20.057
-1.33599 0.615008 21.693
-0.983319 -0.215805 22.1404
-0.192587 -0.238342 21.7783
0.175844 0.557633 14.5179
-0.358335 -0.0519237 21.8869
0.0534654 -0.499146 22.0009
0.348664 -0.40077 21.6731
0.602458 -0.402187 17.4815
0.131385 -0.41665 21.6993
0.690663 -0.741614 21.4838
0.674858 -0.450791 21.3932
1.00176 -1.17832 18.8125
0.3797 -0.688745 21.5545
0.755728 -1.04004 21.1349
1.94916 -1.96009 18.4909
0.0134877 -3.05474 18.2428
0.00185498 -3.28392 15.6779
0.00362994 -1.02405 18.4453
0.0125421 -7.45919 22.8173
0.730059 -0.591976 19.2433
0.0130334 -1.80525 22.5831
0.0015682 -0.232947 11.0166
-0.312144 -0.0446095 16.1101
0.00186161 -0.410191 18.6324
0.00622602 -0.0402932 9.38336
-0.445834 0.369312 14.1526
0.00849193 0.0701064 16.2311
0.055765 0.124117 6.36342
-0.678894 1.17171 14.7854
0.0625323 -0.0144372 13.4543
0.0817634 -0.555973 -4.50988
0.0130377 -0.723822 2.82687
-1.47939 1.74882 15.7423
0.0283258 0.823345 10.6007
-0.0669658 -2.20611 -1.63702
0.0553408 1.24138 6.30478
2.87822 -0.556301 16.9362
-0.00425588 1.85897 14.4186
-0.000783866 -0.279049 17.7712
0.316229 1.42923 3.31571
-0.0344549 -0.152739 -0.671178
-0.075185 -2.86188 -5.80846
-2.31666 0.920579 10.4589
0.00637253 -0.501521 -6.20391
-0.0616407 -1.95294 -5.43001
1.55386 1.48971 18.7397
-0.00175594 1.59296 19.1516
-0.00377014 0.862208 18.5782
-0.00304727 4.55127 19.0312
3.0656 1.86637 20.3196
-0.00516784 2.8303 19.834
-0.00974969 6.39088 16.6889
3.07154 -0.0477134 19.6959
-0.012712 3.67024 22.7643
0.00453003 0.0947916 3.03585
-0.205221 0.58396 14.0277
-0.00282201 0.484923 22.4473
0.044182 0.22903 1.59566
-0.611373 -0.42155 17.0212
0.00411538 -0.369786 22.172
0.0686976 -0.540429 7.39911
-1.00236 -1.20144 18.6251
0.0206102 -0.955979 21.9268
0.0601475 -1.19202 11.2651
1.09218 -0.416053 20.0901
1.37258 -0.949029 19.805
1.90818 -0.833714 19.3675
0.86115 -0.423679 19.5561
2.22686 -1.31054 20.7873
0.9367 -0.485747 21.1818
0.955435 -0.741288 21.4995
1.17396 -0.828409 21.7268
0.448142 -0.513323 21.6684
0.24587 -0.296013 21.5584
0.155657 -0.22942 21.6776
0.0854155 -0.459609 21.8373
-0.139936 -0.0916125 21.7932
-0.215669 -0.0570182 21.7183
-0.286101 0.165082 21.7493
-0.479655 -0.0705794 21.4905
-0.769963 0.33461 21.5543
-0.648766 0.138462 21.5771
-0.76119 0.553648 21.6315
-1.18622 0.300178 21.0169
-1.25258 0.712556 21.4278
-0.988007 0.151014 21.6123
-1.2851 1.03463 21.2804
-1.92401 0.430113 20.3456
-1.24773 0.728311 21.0949
1.30594 -0.137829 19.9399
2.10316 0.307369 19.1361
1.01291 -0.152928 19.3342
3.4378 -0.515652 20.6351
1.26992 -0.385394 21.1684
2.22504 -0.538319 21.4434
0.867377 -1.04169 21.8305
0.464577 -0.46411 21.6455
1.02703 -1.15771 21.7846
-0.121905 -0.597886 21.3324
-0.174855 -0.269963 21.816
-0.0619496 -0.650676 21.1706
-0.925262 -0.187978 20.7152
-0.750611 -0.17325 21.6723
-0.874761 -0.556766 20.9202
-1.65897 -0.0693841 20.6608
-1.21812 -0.161278 21.9771
-1.72021 -0.492437 20.0785
-1.96066 0.0422219 20.1815
1.06244 0.357515 19.9503
0.899509 0.730196 19.8194
0.796327 0.379704 19.519
2.05474 1.04129 20.1136
1.45123 0.256196 20.8272
1.43596 0.958829 20.5734
2.45413 0.253909 21.3354
1.02811 -0.0886674 21.6223
1.34886 0.625974 21.7042
0.9873 -0.221917 22.1507
0.188493 -0.247812 21.7858
0.362277 -0.0546069 21.8976
-0.062995 -0.516979 22.0025
-0.358746 -0.413652 21.6719
-0.139477 -0.440387 21.7077
-0.696058 -0.776928 21.4511
-0.699318 -0.471862 21.4113
-0.382028 -0.703925 21.5545
-0.777769 -1.05251 21.1854
-1.65573 -0.907718 19.6269
-1.07537 -0.77739 21.6175
-0.104034 -0.296751 21.7676
0.409722 0.0754648 21.6997
0.981212 0.436948 21.4334
1.59237 0.718719 21.0895
-2.19029 -0.30338 19.1159
-1.63428 -0.866523 21.7548
-0.27264 -0.860919 21.5658
0.41243 -0.365967 21.0453
1.15001 -0.175025 20.7733
1.90442 -0.00679842 20.3709
-1.41466 0.758652 19.5245
-2.20225 0.611279 20.7726
-1.81068 -0.0552589 22.0391
-0.408683 -0.334443 22.1224
0.33625 -0.63111 21.8742
0.802447 -0.945761 21.572
0.00826809 -3.45983 17.1251
0.00683548 -0.740769 14.2784
0.00219528 -0.114711 9.80481
0.0170098 0.121663 7.97719
0.113006 -0.147658 3.60069
0.0150553 -0.264797 4.16019
-0.00191338 -1.00681 13.9854
-0.0130155 -0.83999 -3.26158
-0.0927284 -3.47315 -7.98768
-0.00461233 2.45081 17.7713
-0.00518958 4.01104 19.3836
-0.00164591 0.0288469 0.310426
0.00714693 -0.0644769 3.35364
0.0696203 0.082369 4.46188
0.0332043 -1.32073 9.54675
1.64869 -0.902259 19.6442
1.07968 -0.776138 21.604
0.108533 -0.296067 21.767
-0.412539 0.0863276 21.6899
-1.01647 0.478147 21.3643
-1.62751 0.790808 21.0559
2.19803 -0.305264 19.1137
1.6345 -0.867601 21.7606
0.273592 -0.858583 21.5845
-0.418094 -0.365827 21.0846
-1.19727 -0.164827 20.7109
-1.97551 0.0212031 20.2306
1.41895 0.763624 19.5182
2.21204 0.612896 20.7713
1.82292 -0.0569389 22.0443
0.408274 -0.347492 22.1352
-0.345706 -0.659778 21.8859
-0.832501 -0.982001 21.6032
-2.61244 -0.605378 3.35837
-0.0442562 -0.507042 1.83457
0.0419129 -0.0459491 0.69498
0.21284 0.103382 1.13139
-0.0789421 0.0310057 0.142647
-0.00187948 0.0777369 1.4369
-3.8666 0.206853 4.59444
-0.522359 2.55128 2.46265
-0.518018 -0.215872 1.30896
0.0748844 0.127425 0.365909
-0.00205272 0.0182627 -0.00871017
0.00421073 0.0189944 0.0802452
0.0438021 -0.507291 1.83382
2.62372 -0.609858 3.37371
-0.0448632 -0.0558868 0.790964
0.0824531 0.0355281 0.15106
-0.22209 0.102011 1.15018
0.00312805 0.0800652 1.4396
0.533354 2.56812 2.4749
3.83555 0.215344 4.5312
0.513901 -0.218877 1.30866
0.00317218 0.0187854 -0.0089959
-0.0826937 0.117267 0.389589
-0.00640189 0.02787 0.116917
0.073872 -0.0513793 1.45367
0.0506771 -0.0256238 1.23801
9.76698e-05 -0.000458706 0.0150669
0 0 0
0 0 0
0.00299295 0.00846078 0.388913
0.000114008 0.00142585 0.0187636
0 0 0
-0.0309592 -0.0401724 0.111295
0.000182135 0.00132209 0.0642727
0.00286342 0.014812 0.0486161
-0.0492633 0.0230498 0.0564425
0.00933085 0.0328252 0.0907756
0.000131084 0.000609486 0.00240677
0 0 0
0.0207771 0.0066262 0.149041
-0.076345 -0.0374026 1.08717
0 0 0
-0.0504021 -0.0254063 1.23737
-7.77925e-05 -0.000441052 0.0151525
0 0 0
0 0 0
-0.00282503 0.00871585 0.388649
-0.000114906 0.00147878 0.0189937
0.0324336 -0.0418238 0.116242
0.0500897 0.0234419 0.0573909
-0.000193138 0.00138304 0.0679819
-0.0027676 0.0142952 0.0470213
-0.00859444 0.0297991 0.0823542
-0.010989 0.00420535 0.0818584
-0.000128853 0.000593604 0.00234097
0 0 0
-0.0017479 -0.00556199 0.0690069
-0.00523139 -0.00053841 0.00269523
0 0 0
0 0 0
0.000178081 -0.00302209 0.0303469
0 0 0
0.000923546 0.000828715 0.0107416
-0.0058301 0.00657579 -0.000153246
0 0 0
0 0 0
4.18601e-05 0.0002194 0.00346587
0.00050112 0.000519273 0.0194302
0 0 0
3.25773e-21 6.44511e-18 3.71554e-17
-0.000784282 -0.00359534 0.0139848
-3.32345e-17 1.02209e-17 6.11713e-17
0 0 0
2.28429e-06 7.88883e-05 -8.34597e-05
0.000799866 0.00548494 0.0260592
0.0043008 -0.00134979 0.0397529
0.0104162 -0.00122268 0.00529003
0.00177983 -0.00559958 0.070048
-0.00220342 -4.30888e-05 0.00971319
-0.000182508 -0.00305318 0.0306422
0.00647437 0.00635794 -0.000123532
-0.0016133 0.00146052 0.0186808
-0.000273246 0.000479645 0.0161699
-1.80267e-05 9.54452e-05 0.00148453
-6.95534e-05 -2.14905e-05 -0.000128223
0.000558993 -0.00258323 0.0100168
-0.00412609 -0.00139739 0.0406524
-0.000806937 0.00613442 0.0298395
3.16948e-06 0.000153695 0.00280623
0 0 0
0 0 0
0 0 0
0 0 0
-1.65804e-07 5.94122e-08 -2.83803e-05
0 0 0
0 0 0
1.85934e-07 -5.10481e-08 3.9713e-05
0.000225919 0.00443134 0.0705794
0.000863557 0.00553678 0.0201798
-0.0744593 0.0449676 1.19312
0 0 0
0.000174474 0.100499 0.156444
-2.06274e-06 3.96895e-05 0.000958166
-6.6479e-05 8.56466e-05 0.00693375
0 0 0
-3.60422e-06 0.000187997 0.00341404
-4.61445e-05 -9.04372e-05 0.000616848
0 0 0
0 0 0
0 0 0
0.0782918 0.0447573 1.22948
-0.000956407 0.00609613 0.022206
-0.0213719 -0.00777946 0.299892
0 0 0
0.00675109 -0.0107105 0.126729
-0.00189621 -0.012677 0.0565701
5.15474e-05 0.00025964 0.0134716
0.000443141 0.00304283 0.0153578
4.10999e-05 0.000535264 0.00590296