# vtk DataFile Version 2.0
tri_press
ASCII
DATASET UNSTRUCTURED_GRID
POINTS 3682 float
-0.634373 0.105 -1.785
-0.753128 0.185 1.665
-0.735 0.605 -1.56756
-0.745 0.695 1.70462
0.650069 0.105 -1.785
0.745 0.185 1.67338
0.755 0.600385 -1.565
0.745 0.697667 1.705
-0.696404 0.109221 -0.635
-0.743146 0.12873 0.515
-0.824348 0.721015 -0.476833
-0.81301 0.736343 0.613893
0.70494 0.10844 -0.632207
0.745333 0.126357 0.520587
0.83717 0.718316 -0.475
0.818836 0.735742 0.615
-1.38754 -0.218746 -2.75723
-1.39266 -0.182232 -1.8608
-1.44363 -0.171673 -0.708999
-1.48681 -0.155756 0.454788
-1.4992 -0.114575 1.60761
-1.50493 -0.0937904 2.50903
-1.51173 -0.0804837 3.40135
-1.38874 0.0561502 -2.66988
-1.3992 0.104926 -1.78005
-1.46387 0.123466 -0.640158
-1.50211 0.132003 0.504973
-1.50029 0.162316 1.64601
-1.50611 0.181975 2.54649
-1.51414 0.196716 3.44079
-1.4332 0.592489 -2.47847
-1.48292 0.642118 -1.58628
-1.56176 0.721092 -0.486917
-1.56245 0.728338 0.608138
-1.51422 0.705322 1.70852
-1.51549 0.725146 2.61026
-1.52412 0.749034 3.51351
-1.47548 1.46014 -2.23703
-1.50763 1.51385 -1.35381
-1.5511 1.58429 -0.274129
-1.57127 1.61025 0.792471
-1.56454 1.60065 1.87252
-1.55567 1.60013 2.7565
-1.55254 1.61258 3.65317
-0.660428 -0.220291 -2.76029
-0.657272 -0.18261 -1.86551
-0.696749 -0.17973 -0.706925
-0.734756 -0.158146 0.46425
-0.749682 -0.102012 1.6231
-0.753868 -0.0857835 2.52004
-0.75887 -0.0771011 3.4084
-0.653243 0.0507741 -2.67019
-0.754505 0.18948 2.5555
-0.76046 0.199222 3.44638
-0.684788 0.575006 -2.46996
-0.758328 0.722535 2.61021
-0.767647 0.747488 3.51457
-0.7151 1.45008 -2.22859
-0.737766 1.50549 -1.34462
-0.774262 1.58393 -0.268186
-0.79819 1.61202 0.792912
-0.79919 1.59839 1.86938
-0.793427 1.59652 2.75343
-0.791945 1.6095 3.65132
0.731438 -0.221339 -2.75911
0.694308 -0.183093 -1.86455
0.723127 -0.180669 -0.704172
0.748832 -0.159877 0.469224
0.747375 -0.102548 1.62973
0.74616 -0.0858979 2.52537
0.744595 -0.077208 3.41266
0.735164 0.0494519 -2.6691
0.7451 0.189778 2.56067
0.743738 0.199335 3.45044
0.772533 0.572284 -2.46818
0.744603 0.723659 2.6129
0.741015 0.747898 3.51773
0.798302 1.44784 -2.22663
0.799192 1.50323 -1.34264
0.792226 1.5822 -0.266262
0.767171 1.6112 0.794745
0.742578 1.59836 1.87127
0.734448 1.59666 2.75561
0.729807 1.60953 3.65383
1.44524 -0.221141 -2.75441
1.41567 -0.184066 -1.85796
1.45656 -0.173821 -0.703856
1.49597 -0.158347 0.463063
1.49875 -0.115668 1.61798
1.49828 -0.0941936 2.51843
1.49718 -0.0808379 3.40947
1.44771 0.0532755 -2.6672
1.40831 0.102765 -1.77774
1.46528 0.12121 -0.635477
1.5056 0.129473 0.512742
1.4983 0.162016 1.65606
1.49805 0.18221 2.55544
1.49695 0.196729 3.44855
1.49749 0.587881 -2.47504
1.49679 0.636922 -1.58273
1.56493 0.717433 -0.483143
1.5642 0.726932 0.612301
1.51102 0.706894 1.71304
1.50075 0.726426 2.61606
1.49653 0.749522 3.51981
1.54945 1.45595 -2.23312
1.5574 1.50969 -1.34986
1.56275 1.58105 -0.270205
1.54356 1.60855 0.796365
1.51427 1.6003 1.8766
1.49972 1.60014 2.76107
1.49121 1.61247 3.65826
-0.720001 0.355 -1.71159
0.00784799 0.101636 -1.78836
-0.669637 0.102862 -1.21
-0.753565 0.44 1.68931
-0.00406399 0.134648 1.71954
-0.766009 0.138993 1.09
0.00999999 0.625163 -1.58875
-0.822937 0.706271 -1.0222
0 0.830011 1.83849
-0.830391 0.767057 1.15926
0.736987 0.352693 -1.70945
0.681301 0.102923 -1.2086
0.750432 0.441334 1.69462
0.762698 0.138146 1.09698
0.834629 0.697895 -1.02
0.832213 0.766999 1.16
-0.719943 0.118808 -0.06
-0.834636 0.415118 -0.555917
0.00426773 0.101124 -0.633603
-0.872889 0.432537 0.564447
0.00109355 0.101258 0.517793
-0.815517 0.725517 0.06853
0.00641104 0.805614 -0.475917
0.00291331 1.12344 0.614447
0.725557 0.116977 -0.05581
0.845552 0.413378 -0.553603
0.877331 0.43105 0.567793
0.824595 0.723621 0.07
-0.859805 0.385059 -1.1161
0.849239 0.383035 -1.1143
0.00605786 0.100689 -1.2093
0.00820552 0.782281 -1.0211
0.00892399 0.353846 -1.89204
-0.859122 0.423827 0.00426501
0.866868 0.422214 0.00709501
0.00268064 0.101166 -0.057905
0.00466218 1.07445 0.069265
-0.896512 0.436268 1.12463
0.896564 0.436192 1.12849
-0.00148522 0.107736 1.09349
0.00145666 1.00805 1.15963
-0.002032 0.440667 1.92441
-0.633252 0.23 -1.70436
-0.313263 0.101644 -1.78836
-0.652935 0.103001 -1.4975
-0.701562 0.3125 1.62537
-0.378596 0.154528 1.69757
-0.770938 0.150627 1.3775
-0.725414 0.48 -1.63749
-0.3625 0.597394 -1.56047
-0.811435 0.688101 -1.29488
-0.766741 0.5675 1.71442
-0.3725 0.803049 1.8121
-0.807031 0.750364 1.43194
0.328958 0.101605 -1.7884
0.652993 0.228846 -1.70669
0.666662 0.102985 -1.4968
0.370468 0.155256 1.70103
0.693598 0.313167 1.62988
0.766414 0.149009 1.38518
0.3825 0.594503 -1.5586
0.74407 0.476539 -1.6353
0.827252 0.681577 -1.2925
0.3725 0.804319 1.81222
0.765268 0.5695 1.71736
0.806981 0.750708 1.4325
-0.686099 0.102962 -0.9225
-0.707638 0.11455 -0.3475
-0.804372 0.242743 -0.595458
-0.347451 0.102406 -0.634302
-0.763651 0.124788 0.8025
-0.732161 0.123152 0.2275
-0.840889 0.264198 0.539723
-0.377181 0.102685 0.516397
-0.823392 0.713392 -0.749515
-0.861787 0.584214 -0.516375
-0.809623 0.712957 -0.204152
-0.416743 0.778864 -0.476375
-0.823981 0.753981 0.886575
-0.866674 0.596302 0.58917
-0.814161 0.730828 0.341212
-0.496393 1.11258 0.61417
0.694313 0.104489 -0.920405
0.355796 0.102398 -0.632905
0.717528 0.110429 -0.344008
0.815341 0.240861 -0.592905
0.761544 0.124723 0.808785
0.37878 0.102675 0.51919
0.735726 0.121386 0.232388
0.844732 0.262003 0.54419
0.838619 0.710824 -0.7475
0.409101 0.736586 -0.475458
0.873093 0.581713 -0.514302
0.814195 0.704281 -0.2025
0.826814 0.752661 0.8875
0.491461 1.09076 0.614723
0.870981 0.594845 0.591397
0.82157 0.729537 0.3425
-0.853861 0.370029 -1.41385
-0.355538 0.354423 -1.87734
0.00695293 0.100802 -1.49883
0.00838599 0.227741 -1.93182
-0.819822 0.24396 -1.16305
-0.331789 0.100675 -1.20965
-0.893621 0.438134 1.40697
-0.377798 0.440333 1.84709
-0.00277461 0.110294 1.40652
-0.003048 0.287657 1.89194
-0.861973 0.287631 1.10731
-0.383747 0.10795 1.09175
0.00910275 0.729532 -1.30492
0.00946199 0.489504 -1.79756
-0.86617 0.545665 -1.06915
-0.407366 0.70298 -1.02165
0.000728328 0.897931 1.49906
-0.001016 0.635339 1.86746
-0.895667 0.601663 1.14194
-0.414467 0.982304 1.15944
0.846614 0.367864 -1.41188
0.372955 0.353269 -1.87601
0.803495 0.242979 -1.16145
0.34368 0.10069 -1.20895
0.890118 0.438763 1.41156
0.3742 0.441 1.84954
0.861989 0.287169 1.11274
0.380607 0.107963 1.09524
0.845979 0.540465 -1.06715
0.421417 0.704119 -1.02055
0.895778 0.601595 1.14425
0.416835 0.9827 1.15981
-0.823046 0.25456 -0.0278675
-0.362346 0.102557 -0.0589525
-0.865286 0.400088 -0.836008
-0.847209 0.419472 -0.275826
0.00516279 0.100711 -0.921453
0.00347418 0.101152 -0.345754
-0.868141 0.428182 0.284356
-0.887594 0.434402 0.844538
0.00188709 0.101223 0.229944
-0.000195838 0.101364 0.805643
-0.8602 0.586112 0.0363975
-0.472309 1.03375 0.0688975
0.00730828 0.785164 -0.748508
0.00553661 0.908836 -0.203326
0.00378774 1.13289 0.341856
0.00218498 1.08436 0.887038
0.83027 0.252567 -0.0243575
0.367381 0.102547 -0.0568575
0.856086 0.398206 -0.833953
0.856479 0.417796 -0.273254
0.874138 0.426632 0.287444
0.887583 0.433621 0.848143
0.867804 0.583953 0.0385475
0.481143 1.03207 0.0696325
-0.810118 0.23698 -1.45567
-0.82978 0.253065 -0.879254
-0.871238 0.556865 -0.792761
-0.857076 0.512832 -1.35436
0.799463 0.235913 -1.45434
0.838672 0.508502 -1.35219
0.854596 0.553156 -0.790726
0.817274 0.251944 -0.877179
-0.322526 0.100808 -1.49817
0.336319 0.100782 -1.49782
0.349142 0.100712 -0.920929
-0.338929 0.100698 -0.921976
-0.384933 0.668011 -1.2999
-0.408167 0.728164 -0.749011
0.421604 0.728396 -0.748004
0.401959 0.667545 -1.29871
-0.3344 0.22887 -1.80916
-0.359019 0.484752 -1.77788
0.377728 0.483022 -1.7773
0.350957 0.228294 -1.80589
-0.809687 0.250663 -0.311663
-0.832993 0.258866 0.255928
-0.86342 0.591199 0.312784
-0.855836 0.582584 -0.239989
0.818714 0.24876 -0.308631
0.865168 0.580193 -0.237877
0.869563 0.589484 0.314972
0.838661 0.256705 0.259916
-0.354901 0.102477 -0.346627
0.361591 0.102468 -0.344881
0.37308 0.102611 0.231166
-0.369764 0.10262 0.228722
-0.426025 0.869304 -0.203739
-0.503986 1.11243 0.341534
0.506095 1.101 0.342178
0.43684 0.867761 -0.202913
-0.861528 0.284132 0.823519
-0.862857 0.300065 1.39223
-0.890664 0.584581 1.41945
-0.890278 0.593051 0.865556
0.860804 0.282936 0.828464
0.88661 0.592496 0.867821
0.890172 0.585548 1.42203
0.865319 0.300168 1.39837
-0.377387 0.101372 0.804071
0.37691 0.101354 0.807214
0.375537 0.112407 1.39585
-0.381172 0.112386 1.39201
-0.409758 1.08856 0.886806
-0.393483 0.880745 1.4655
0.394667 0.881046 1.46578
0.413855 1.06001 0.887269
-0.378197 0.300079 1.8235
0.372334 0.300412 1.82737
0.37335 0.602419 1.86115
-0.375149 0.601419 1.85966
-0.604796 0.1675 -1.71566
-0.473818 0.101661 -1.78834
-0.644629 0.103026 -1.64125
-0.75299 0.24875 1.67083
-0.565862 0.143536 1.70751
-0.747483 0.182364 1.52125
-0.73313 0.5425 -1.60545
-0.54875 0.614847 -1.57766
-0.786431 0.659764 -1.43122
-0.760572 0.63125 1.71422
-0.55875 0.72627 1.7356
-0.782825 0.729491 1.56828
0.489514 0.101606 -1.78839
0.623886 0.166923 -1.7182
0.659339 0.103019 -1.6409
0.557734 0.143682 1.71365
0.749586 0.249083 1.68192
0.746803 0.175908 1.52928
0.56875 0.613859 -1.57822
0.751508 0.538462 -1.60212
0.805501 0.655357 -1.42875
0.55875 0.727489 1.73511
0.759543 0.633584 1.71559
0.782133 0.73033 1.56875
-0.693057 0.104286 -0.77875
-0.697455 0.116451 -0.49125
-0.764366 0.168993 -0.615229
-0.523328 0.103012 -0.634651
-0.748107 0.132051 0.65875
-0.738046 0.125549 0.37125
-0.800638 0.192154 0.527362
-0.566353 0.103329 0.515698
-0.824482 0.717815 -0.613174
-0.854297 0.658229 -0.496604
-0.823882 0.723882 -0.340493
-0.61985 0.748549 -0.476604
-0.813161 0.739827 0.750234
-0.848093 0.670448 0.601532
-0.813578 0.733578 0.477553
-0.674706 0.964471 0.614032
0.700785 0.105305 -0.776306
0.531579 0.102997 -0.632556
0.704802 0.115866 -0.488108
0.774736 0.167353 -0.612556
0.749151 0.129827 0.664686
0.567657 0.103314 0.519888
0.740515 0.123886 0.376488
0.803668 0.189862 0.532388
[...]
POINT_DATA 3682
SCALARS point_scalars float 1
LOOKUP_TABLE default
24.787
-45.3525
-7.49088
-38.707
59.8111
-47.6388
-21.867
-41.4392
-35.3624
-32.3371
-30.2063
-48.9046
-35.4602
-33.4991
-31.0039
-49.6021
24.787
-57.2546
-52.6613
-41.1438
-55.6928
-45.3525
-46.3542
70.7005
-80.5604
-46.7088
-37.5152
-56.2984
-44.1964
-39.077
31.3009
-103.489
-33.7027
-40.3152
-49.0819
-38.909
-38.909
-34.2746
-62.994
-34.315
-58.541
-41.8458
-39.4119
-39.4119
91.5584
-86.0613
-39.5567
-33.4036
-47.1526
-40.9105
-38.4612
142.914
-37.9658
-38.3738
166.566
-34.7948
-34.5846
20.2723
-73.501
-39.7134
-63.3544
-34.9328
-32.4093
-30.1975
118.219
-55.9644
-38.4983
-34.0912
-49.4345
-42.6592
-39.7958
150.694
-39.4647
-39.1218
159.255
-37.3919
-37.3919
-9.13427
-64.7357
-40.1469
-64.5309
-37.415
-35.1894
-33.3738
59.8111
-73.1658
-49.4519
-40.4952
-55.642
-45.3736
-45.3736
21.6226
-130.245
-42.7577
-34.175
-57.9465
-45.3736
-41.7291
36.8102
-123.358
-35.2436
-41.6821
-51.5315
-41.4765
-41.477
-44.5728
-64.3463
-35.9635
-58.6834
-44.3326
-42.2979
-42.2979
48.6019
-132.04
-59.1031
-40.5042
-47.3308
-41.765
-14.8049
-48.2699
-33.1268
-47.8546
43.1552
-58.4053
-42.3439
-42.2125
-43.7672
-48.9729
-31.2793
-35.7439
-37.4938
-35.4879
-36.2222
-50.4022
3.76979
-75.8837
-32.3298
-37.5895
-37.199
-51.9855
-55.4006
-52.1475
-53.3611
-38.028
181.155
-33.1205
-34.9837
-33.705
-44.8471
-44.5314
-45.4002
-41.1394
-41.5678
-36.5424
89.4223
-166.717
-96.0005
-40.7288
-45.071
-46.5242
29.8955
-30.0918
-72.7205
-39.3384
-32.7991
-43.3725
-162.177
86.1658
-97.2619
-46.2957
-42.4404
-48.1788
-28.8725
22.3803
-73.5588
-35.4333
-41.6626
-45.3317
-45.844
-30.8762
-33.795
-37.4901
-45.0389
-32.2373
-30.9684
-35.5731
-34.4011
-33.9989
-35.9783
-4.70632
-46.054
-40.1633
-51.6617
-73.1092
-44.2052
-37.4545
-31.7154
-33.7046
-45.2338
-35.8603
-33.1072
-32.7899
-34.7279
-5.02894
-35.7302
-36.5123
-46.5654
-71.4378
-41.5604
-52.65
-105.185
176.165
-77.3034
182.699
-58.0466
-55.1517
-51.949
-37.3895
-44.5251
-37.6701
-43.239
-41.4143
-68.3256
86.3198
-53.6013
-39.4657
-34.2595
-33.5437
-45.5759
-42.096
-89.2511
176.362
-56.5537
-55.1841
-54.9749
-38.692
-43.5588
-41.7858
-48.7807
-39.3011
-46.6153
-43.4482
-30.8667
-33.1649
-46.2036
-30.3373
-43.2115
-34.6664
-35.7141
-39.4788
-34.3222
-39.2555
-38.5133
-26.3636
-15.3928
21.6802
-102.198
-54.4283
-32.5585
-33.4758
-42.0305
-32.3698
-37.2415
-40.7917
-40.1819
-31.0225
-101.522
-49.6516
-43.622
-97.4284
-92.408
-83.5305
-36.4097
-45.9632
-84.7569
-84.7643
-43.5542
-43.7798
-55.46
-19.6865
-19.2283
-56.0107
114.178
74.2993
76.4106
113.834
-29.3281
-32.8218
-41.1321
-31.7682
-30.8521
-33.8329
-42.9699
-34.0463
-34.0639
-34.2764
-34.0997
-33.7818
14.2104
-97.0444
-97.2813
12.9245
-46.2647
-52.3135
-50.7076
-39.2101
-45.7522
-39.8524
-52.8949
-56.6477
-39.2176
-39.4443
-47.8603
-47.1364
-55.1481
-35.335
-36.7258
-54.9809
-37.673
-38.9523
-37.5705
-35.1812
127.355
-74.0658
-157.843
-43.2381
-46.3811
-48.4903
19.2949
-16.6473
-64.3843
-39.0271
-35.0404
-41.4763
-68.3252
86.8867
-164.732
-47.9003
-44.9892
-50.5704
-12.695
10.1544
-76.1346
-37.8703
-41.5578
-43.9539
-43.4835
-32.8763
-34.307
-37.1217
-31.6361
-32.6471
-31.122
-34.97
-31.5625
-33.6986
-32.4483
-13.6668
-47.1478
-43.8628
-50.6473
-60.9498
-42.1275
-37.0331
-33.3482
-34.002
-32.6302
-35.4342
-33.3468
-32.2959
-32.3128
-13.2493
-34.7805
-35.272
-48.0232
-60.8835
-44.8787
-51.3945
55.0179
36.068
-85.3781
149.167
-136.011
-137.226
-100.917
67.9646
-73.839
-50.5206
-58.0617
-56.8192
-41.1506
-39.8611
-49.9136
-37.2885
-46.226
-47.3164
-47.2455
-40.6672
-43.5589
-42.6013
-42.7473
-41.3376
-19.7662
-19.267
-46.3215
15.0373
-56.9454
-41.357
-53.0395
-41.0066
-32.7269
-33.8815
-32.8176
-29.1197
-46.0084
-47.6841
-46.7283
-44.5686
48.0143
30.2889
-132.704
144.952
-73.4498
-49.3451
-58.5419
-56.7065
-42.8823
-42.0057
-51.7361
-38.7547
-44.5975
-41.8468
-43.2436
-41.7092
-57.3193
-36.2662
-47.1609
-39.7528
-47.6546
-48.291
-47.6782
-45.9638
-31.0766
-31.8642
-30.7679
-32.538
-34.1334
-36.1664
-42.0798
-26.5058
-37.4951
-37.4866
-40.0185
-35.7684
-33.2368
-37.4756
-35.7693
-35.6847
-36.073
-36.1888
-35.1202
-37.5466
-44.7885
-51.6492
-43.5103
-65.1475
2.21318
0.908871
-4.89328
12.1499
-77.148
-74.9443
-88.0774
-64.516
-32.4278
-32.7355
-32.0755
-33.0576
-34.5343
-38.3991
-39.7906
-28.5804
-35.1283
-39.1867
-37.2727
-37.124
-46.4307
-53.158
-44.9338
-66.2864
-70.9748
-56.2749
-55.0295
-50.1413
-65.2194
-54.3358
-50.352
-45.1414
-62.2394
-54.0127
-53.9057
-47.6367
-33.9361
-39.0028
-39.8808
-27.7495
178.695
203.971
141.391
178.906
-31.6724
-31.3834
-34.8904
-35.3887
-33.5368
-33.3962
-36.5879
-37.1505
-33.5412
-33.9086
-33.8247
-33.6851
-34.2236
10.5064
-102.613
-42.1738
-46.8622
-43.7235
-45.0266
-43.352
-48.6129
-44.1992
-46.0249
-41.4591
-42.7212
-41.2385
-41.4363
-41.4889
-37.219
-41.4976
-42.2939
-47.1116
-36.7753
-37.536
-32.1924
-38.0446
-99.2236
59.2534
-115.579
78.3195
-76.7357
-93.132
-51.4658
-38.8559
-44.8936
-39.7281
-50.048
-44.6244
-100.877
93.1118
-49.68
6.19166
-94.8091
-64.2687
-46.892
-36.2214
-33.4187
-33.1998
-49.1641
-37.4263
-114.736
72.8056
-118.775
52.9084
-74.1396
-95.2966
-46.0309
-41.2296
-53.4648
-40.5229
-52.4817
-45.9685
-50.1922
6.77171
-130.708
93.4231
-81.4301
-62.0781
-35.2023
-36.6237
-49.1849
-38.2434
-51.3783
-39.127
-52.5127
-44.4277
-29.6413
-33.2689
-45.1456
-30.6378
-40.358
-35.3412
-50.0536
-39.805
-32.3544
-33.1806
-32.7146
-32.9592
-34.5538
-37.3548
-40.1013
-24.7346
-36.3543
-32.1055
-34.0219
-15.3296
-11.9287
5.0703
-39.4607
-54.0047
-40.9087
-37.5413
-45.8513
-70.8179
-82.6054
-63.7513
-46.5468
-43.9223
-40.1766
-35.4426
-30.9808
-33.6941
-41.4024
-32.1658
-49.8214
-39.9952
-34.8612
-37.6054
-33.4425
-33.6763
-34.0205
-35.9485
-37.4911
-24.7222
-14.7972
3.85825
-37.5698
-34.0475
-35.1078
-17.9769
-39.6948
-54.4199
-81.3674
-62.9119
-42.5907
-38.9675
-46.9418
-72.3127
-103.854
-100.909
172.489
146.56
-79.0571
-79.1476
183.546
179.688
-76.3265
-53.5211
-65.9947
-48.3987
-52.5212
-50.9796
-37.7189
-36.5693
-45.7829
-45.2494
-37.4941
-38.4196
-42.2423
-45.4689
-41.4764
-43.1532
-61.1174
-61.4705
74.3474
75.339
-46.7472
-66.0502
-48.5744
-29.3435
-34.408
-35.1415
-35.2553
-33.0165
-47.75
-43.7638
-46.8849
-37.9757
-89.034
-87.5429
140.451
169.682
-71.6781
-47.9233
-66.1749
-48.2345
-53.2328
-57.8903
-38.8962
-38.2657
-40.9076
-46.0587
-41.736
-43.6513
-61.2579
-42.5376
-29.1625
-48.2428
-42.6825
-49.3653
-39.2455
-48.4649
-29.7494
-32.2528
-33.3756
-33.2927
-46.7572
-45.0148
-29.707
-31.0759
-43.3647
-43.3191
-34.4706
-34.5684
-33.9045
-38.0169
-41.6009
-39.5517
-34.265
-34.1542
-39.2059
-39.336
-40.451
-35.3221
7.91456
-91.4391
-16.1334
-16.3837
20.9421
20.4723
-104.379
-101.605
-54.379
-55.0115
-31.4953
-33.6087
-33.6568
-33.61
-39.5103
-43.4647
-31.5309
-33.1724
-39.576
-35.405
-42.4972
-40.3336
-37.1538
-42.1511
-100.626
5.17295
-119.819
-79.477
-71.9304
-87.0333
-45.031
-46.9674
-51.6251
-53.5073
-35.4838
-45.7723
-48.7745
-38.7253
-78.4927
-97.2862
-68.5976
-64.5793
-131.506
-127.863
-67.4128
-76.4602
-110.722
-60.3933
-63.3126
-132.004
-36.0791
-37.6338
-43.9847
-40.2372
-44.7437
-47.9274
-46.0501
-42.2559
-138.539
-103.989
-63.6182
-69.6105
-142.524
-70.1823
-63.7796
-104.101
-40.3205
-40.0603
-47.6148
-48.8996
-40.7187
-49.297
-47.7074
-40.118
-56.0213
-48.4592
-37.7163
-47.0955
-19.6197
-6.24564
-28.6991
-32.1116
-21.0601
-31.2039
-28.0601
-7.13744
-55.1079
-47.9431
-37.5616
-50.3172
42.8925
127.693
204.865
83.1419
44.4158
13.1732
130.655
142.607
45.3419
137.496
130.982
12.4548
19.7436
73.5278
200.267
126.866
-31.3301
-29.7842
-30.4673
-28.7225
-32.3912
-33.8822
-33.2793
-31.7328
-44.9817
-45.3877
-37.2201
-37.9778
-34.6927
-28.3033
-32.9806
-39.4538
-32.4438
-30.8524
-32.3076
-31.3636
-36.5013
-41.041
-34.9036
-29.8258
-46.2647
-39.7309
-38.9454
-46.6443
-33.4148
-32.9682
-34.9078
-35.4429
-34.641
-35.6866
-33.7707
-32.6662
-34.838
-33.1893
-33.894
-35.7767
-34.3684
-35.128
-33.8261
-33.2119
-33.885
-32.7154
-33.6599
-34.9731
-10.6365
-34.6252
13.0639
11.0833
-64.0498
-89.2372
-89.8221
-83.9368
-64.4635
-87.5195
-105.917
-86.8672
-11.7405
10.5038
10.7904
-35.7733
-23.0396
-41.7916
-42.8139
-35.488
-52.7923
-50.9438
-46.0789
-44.9252
-45.0599
-48.3162
-47.1996
-48.8407
-40.9554
-36.1263
-43.5934
-44.3302
-23.9411
-36.5771
-40.8092
-40.4762
-42.1137
-44.5365
-42.1499
-37.7187
-47.4396
-51.0596
-48.9254
-49.8703
-54.642
-46.0323
-47.3007
-52.1768
-36.8354
-37.4548
-41.4455
-41.6256
-37.1854
-41.8548
-41.6002
-37.5858
-45.9551
-46.7135
-43.1549
-43.5044
-45.221
-42.77
-42.878
-46.328
-56.0824
-49.1874
-46.6126
-65.0219
-35.3691
-32.646
-37.3803
-40.5165
-37.5924
-42.1455
-37.9528
-33.6029
-56.4494
-63.7888
-47.6529
-50.1914
-38.0409
-39.8732
-37.5357
-38.6737
-39.8035
-40.2247
-38.4919
-40.7391
-38.1945
-32.8297
-35.326
-38.6689
-35.6636
-36.9977
-33.2629
-29.6974
60.5563
8.57208
-49.2676
-44.6956
-46.9894
-44.1778
9.86217
5.71795
-45.3814
-39.3158
-35.6391
-39.5591
-21.9552
63.4845
-51.2753
-48.7553
-45.7164
-46.7744
9.69734
-2.05408
-49.2478
-38.4003
-42.0055
-42.0086
-39.3252
-34.4987
-34.7787
-36.6763
-32.3356
-32.6895
-31.5405
-33.871
-30.9747
-32.5028
-30.3408
-22.6547
-47.8475
-46.5721
-49.8477
-53.5368
-38.2658
-36.5609
-34.8842
-34.6626
-33.6185
-34.5916
-33.2559
-32.708
-31.7244
-22.6098
-33.2967
-30.6973
-48.642
-54.2752
-47.3772
-50.5171
52.6465
42.9889
-50.9839
117.452
-132.182
-131.692
-117.145
-45.6839
-65.4165
-54.3398
-60.6244
-57.5524
-40.8658
-40.0753
-45.2898
-38.015
-46.6786
-47.4639
-48.2796
-42.8363
-42.4928
-42.2803
-42.3892
-41.8123
-17.1009
-17.221
-23.6301
-7.36048
-53.3326
-45.0967
-52.3942
-44.69
-33.5813
-34.006
-33.9722
-27.9221
-47.1756
-48.0084
-47.5692
-46.2669
48.077
36.6251
-53.0025
108.106
-64.8767
-53.4172
-59.8869
-57.4106
-42.6418
-42.1017
-47.3258
-39.7778
-43.1652
-42.0345
-43.0058
-42.1415
-50.3524
-39.4381
-45.9642
-42.2594
-48.6396
-48.8963
-48.4819
-47.6449
-31.268
-31.6292
-30.7586
-31.9477
-34.8345
-36.6135
-36.731
-30.384
-37.4865
-37.4964
-38.6256
-36.5044
-34.4065
-36.4397
-35.657
-35.4195
-36.1563
-36.2259
-35.6177
-36.7918
-48.6745
-51.2233
-46.543
-63.6207
3.57094
3.046
-0.470577
8.05914
-76.9735
-75.5056
-82.1383
-70.0266
-32.2211
-32.6455
-32.1165
-32.6831
-35.958
-38.4001
-37.2591
-31.6858
-36.1857
-38.2188
-37.212
-37.395
-50.5821
-52.8033
-48.4529
-65.4054
-61.5667
-55.995
-55.3052
-53.1473
-58.3183
-53.2245
-51.1952
-47.1986
-57.3719
-53.4806
-53.5866
-50.2807
-33.636
-37.892
-38.4495
-36.3332
179.829
199.062
162.761
179.56
-32.2173
-32.2289
-34.0227
-34.1659
-34.1473
-34.1606
-35.8032
-35.9962
-33.6587
-33.7939
-33.7995
-33.7421
-39.9105
-7.41444
-78.6244
-44.3572
-45.5103
-44.1454
-44.7781
-43.916
-46.7577
-44.8786
-45.7097
-44.1609
-41.9682
-41.2632
-41.3593
-41.5652
-39.1858
-41.4688
-41.8399
-43.8358
-36.4621
-37.1446
-34.1759
-37.2634
110.491
85.1146
-58.1361
97.3176
-161.664
-154.824
-152.074
-68.1882
-118.137
-83.6791
-77.7487
-95.9303
-41.5209
-39.351
-47.0202
-38.974
-45.0791
-45.2409
-45.7894
-41.4652
-52.6
-45.2445
-47.6871
-45.1012
27.2606
29.2763
-55.1242
74.6728
-32.1385
-21.9747
-41.2401
-24.544
-74.5985
-62.2475
-82.4868
-73.5125
-39.1556
-39.4463
-42.8025
-36.7315
-33.985
-32.1009
-33.2303
-32.111
-42.8569
-44.2478
-47.0602
-38.694
-164.364
-152.908
-149.087
-38.2574
108.572
66.1921
-97.6336
89.7522
-123.632
-83.7405
-78.2689
-98.4764
-46.7073
-46.2586
-46.7289
-42.9537
-44.0418
-41.2426
-49.2551
-40.7282
-54.0438
-46.4541
-49.5154
-47.313
-32.5685
-21.4236
-40.8246
-22.4167
18.3402
23.3544
-99.1121
71.2392
-83.2598
-63.369
-80.8183
-67.9258
-36.998
-34.199
-34.8257
-36.0886
-41.5753
-41.9287
-45.2401
-38.8397
-44.9978
-46.2134
-49.219
-40.6594
-44.518
-48.0851
-52.0404
-44.824
-31.1254
-31.1417
-30.3425
-32.4595
-33.9566
-33.8631
-38.0961
-32.4793
-37.4084
-37.4673
-38.9338
-36.2062
-39.8542
-42.2769
-50.1885
-41.3455
-32.5539
-32.2054
-32.2892
-32.6887
-30.6856
-32.1993
-32.1156
-27.7749
-35.2314
-35.8971
-35.0468
-36.2849
-32.4879
-37.6925
-38.6999
-29.278
-33.7468
-34.7488
-34.7598
-33.97
-35.1562
-38.9551
-35.7746
-33.1409
-9.53142
-0.759829
-7.70579
0.541483
-45.6961
-47.2852
-42.171
-50.0296
-41.9792
-38.6998
-40.5782
-39.3307
-51.2314
-51.7877
-48.3298
-58.6621
-69.1066
-76.4483
-77.7818
-68.7395
-43.0064
-46.7296
-45.6802
-44.0157
-37.3512
-37.4572
-38.819
-36.219
-31.5999
-32.2856
-31.3643
-33.0983
-33.7362
-33.8728
-36.6407
-33.6783
-41.0935
-41.7179
-50.3625
-41.3079
-35.5954
-36.1088
-35.3393
-36.5476
-33.3652
-32.9867
-33.3064
-33.3039
-32.1991
-34.0543
-33.6042
-30.2564
-33.1185
-35.1008
-37.3583
-29.043
-8.82999
-2.03881
-11.5503
-0.808078
-35.4322
-36.5114
-36.4318
-36.0608
-37.3288
-39.539
-36.1854
-34.9158
-46.1184
-47.6114
-42.3084
-50.6902
-68.829
-73.566
-76.2264
-67.3153
-43.1547
-40.3288
-42.1319
-40.688
-52.0607
-53.0323
-49.9457
-59.8793
-103.728
-84.5692
-106.76
-100.996
155.104
179.998
175.05
158.461
-87.0609
-68.5704
-77.6947
-77.6831
156.039
203.753
183.68
187.156
-57.9489
-56.746
-65.8701
-54.6694
-56.1073
-54.5271
-59.86
-51.6008
-52.8466
-49.0655
-52.4927
-51.4758
-37.2828
-37.0953
-37.5623
-37.0863
-45.4903
-43.6171
-44.6874
-44.5121
-38.1761
-37.7118
-37.2068
-37.8022
-43.048
-43.4384
-42.6326
-43.7973
-41.4962
-41.4851
-41.6776
-42.1432
-67.3405
-45.8145
-65.4646
-64.1313
47.4935
117.822
80.2423
79.8119
-53.3682
-54.2528
-50.1373
-58.1651
-39.8521
-39.5988
-43.7206
-34.1582
-33.2766
-35.6387
-34.2671
-34.6212
-31.3483
-33.24
-34.2054
-32.9523
-45.9015
-45.2857
-46.5301
-44.863
-43.0185
-41.6703
-44.3188
-39.8331
-107.836
-75.8506
-89.0769
-88.5768
158.608
179.407
157.016
180.303
-57.513
-55.3221
-62.5912
-51.3552
-55.9428
-54.4447
-59.9498
-51.5627
-54.5925
-51.8646
-53.9333
-56.7811
-38.706
-38.4653
-38.7859
-38.561
-43.5725
-43.7788
-42.0044
-44.1501
-41.8752
-41.7601
-41.9989
-42.6735
-47.8807
-49.3456
-54.6734
-44.9196
-39.251
-40.0564
-34.1507
-43.6137
-46.9516
-46.3124
-45.7496
-47.8726
-44.4753
-42.7546
-41.1232
-45.7679
-30.6775
-31.2338
-30.235
-31.5806
-32.8682
-33.3847
-33.2187
-33.2385
-46.3164
-47.0848
-46.1757
-45.6903
-30.4502
-30.6401
-29.9921
-30.6736
-41.536
-45.2961
-43.1312
-43.1615
-34.992
-34.1586
-34.5447
-34.622
-35.838
-35.4948
-34.7325
-36.772
-38.5809
-41.2305
-40.2096
-39.3268
-34.7104
-34.11
-34.3376
-34.2617
-38.3452
-40.0833
-39.2384
-39.3056
-40.599
-36.738
-39.7067
-37.1111
-41.2671
-28.5934
-5.78014
-63.981
-9.96159
-20.8355
-15.4431
-15.5465
18.9712
20.648
21.3433
20.8929
-95.416
-105.483
-104.017
-101.625
-58.81
-50.2378
-54.2062
-54.7648
-32.2938
-32.8847
-31.9164
-33.1215
-33.285
-33.6177
-33.5307
-33.5623
-41.3447
-43.6648
-41.1008
-42.5756
-32.3895
-32.7201
-31.9
-32.7596
-37.2315
-37.0799
-38.1977
-36.2793
-39.2546
-40.0002
-41.4649
-40.6357
-42.2244
-38.417
-38.8295
-41.3405
-44.2394
-35.1464
-72.3528
-9.04089
-83.4978
-87.0383
-101.346
-93.8107
-50.8585
-48.2863
-51.8271
-47.9888
-42.1857
-39.5419
-44.7626
-44.5132
-107.446
-96.6086
-99.8579
-77.9913
-103.74
-87.983
-89.5026
-84.4955
-106.937
-82.2521
-85.0128
-70.5767
-36.0528
-37.0221
-39.5379
-37.823
-46.7264
-44.1694
-46.8036
-45.1283
-97.6322
-88.2879
-81.8038
-73.6645
-97.3073
-88.7367
-81.8224
-73.7997
-43.7614
-41.8467
-45.889
-43.3984
-44.0995
-42.0392
-46.1174
-43.5386
-54.6169
-56.985
-55.9254
-52.7504
-21.7201
-15.3229
-24.3605
-17.9311
-21.5228
-14.793
-24.1178
-17.9945
-55.7167
-57.3229
-57.3893
-52.9639
143.068
101.694
148.057
150.912
91.993
38.7222
109.207
68.6516
42.3457
91.1788
70.3269
111.931
93.4206
140.328
149.229
148.99
-29.247
-29.2345
-29.4489
-29.4881
-32.5112
-32.8961
-32.6402
-33.279
-41.1352
-43.116
-39.4176
-40.9018
-29.5446
-32.4649
-31.4475
-33.6483
-30.7554
-30.4648
-31.1562
-31.2104
-30.9093
-34.2656
-33.5075
-35.484
-42.8748
-44.8159
-41.2613
-42.6843
-33.7708
-34.1338
-33.9099
-34.693
-33.7285
-34.5316
-33.6059
-34.3076
-34.6923
-34.0218
-34.4599
-33.8732
-34.4638
-33.9135
-34.2302
-33.8755
-33.5106
-34.1605
-33.5594
-33.9937
2.9095
10.0408
14.1481
19.3815
-87.2456
-90.0674
-98.1197
-101.59
-89.6227
-87.4571
-101.384
-103.308
9.0734
0.756752
18.812
11.9217
-48.6437
-47.1671
-41.9234
-44.1258
-55.474
-51.2172
-52.369
-48.2308
-50.2094
-50.4894
-51.1167
-49.1291
-39.0483
-37.0309
-41.9332
-39.2499
-48.2137
-45.1762
-41.6294
-44.483
-39.285
-38.6962
-39.9143
-40.2828
-52.4616
-52.6493
-53.4193
-51.1172
-59.5067
-54.2794
-57.9941
-49.9825
-39.3172
-38.244
-40.0672
-39.196
-39.5626
-38.4834
-40.3152
-39.3846
-46.9981
-47.4106
-47.6378
-45.1244
-46.2117
-46.6129
-46.992
-44.5178
-55.781
-59.8871
-50.8009
-54.8896
-34.1979
-36.4345
-34.7839
-36.5319
-35.8247
-38.145
-35.8403
-37.8035
-55.3606
-58.7814
-51.6246
-54.8895
-37.8344
-38.0914
-37.8154
-37.6226
-39.3871
-39.3993
-38.7861
-39.0109
-37.0904
-38.2896
-36.1272
-37.9852
-36.2562
-34.149
-35.9667
-33.5798
-65.3603
92.6774
-151.592
-4.99526
-125.368
-166.974
-44.0665
-38.8777
-47.0047
-40.1709
-50.2549
-45.5683
-50.8822
50.2693
-39.8283
5.92978
-64.4973
-57.563
-42.0915
-36.198
-34.8107
-35.3877
-43.5931
-37.4211
-114.811
-24.1846
-75.6371
70.6951
-142.416
-146.38
-48.5284
-42.108
-46.1958
-40.5375
-52.989
-45.3978
-40.1451
9.08414
-75.8747
51.6984
-105.369
-55.693
-37.4093
-38.0768
-44.5808
-38.8302
-45.9529
-39.9257
-45.6726
-41.0752
-31.6741
-33.9168
-38.5747
-32.6397
-38.7406
-35.6291
-26.1354
-36.4821
-32.3277
-33.2189
-31.7937
-29.3453
-34.343
-35.8281
-33.9644
-25.6192
-34.2939
-34.4393
-34.5997
-22.6103
-16.4497
-11.9427
-43.636
-52.5391
-44.4922
-42.7563
-47.9233
-55.8777
-62.1853
-58.488
-44.0749
-40.4932
-38.5079
-35.7191
-32.4767
-34.2062
-37.7378
-32.882
-27.0097
-36.9233
-34.8122
-36.2502
-33.1516
-33.8374
-33.0717
-30.3223
-34.3188
-26.3012
-19.2171
-10.9253
-35.1098
-35.4301
-36.803
-25.6518
-44.7819
-53.0115
-62.5982
-58.6927
-45.6368
-43.8427
-48.9904
-56.9588
-51.5068
98.7637
-52.6925
95.7862
-83.8721
-86.0168
149.443
141.472
-120.649
-47.2732
-121.086
-52.0905
-101.6
-101.535
74.1706
83.9298
-85.5065
-71.2615
-53.758
-49.6523
-66.6671
-52.248
-62.7
-52.7641
-45.3551
-39.464
-44.1742
-37.3158
-50.3633
-49.4747
-37.8191
-37.0635
-47.9101
-42.0391
-47.9193
-44.1615
-47.1504
-46.973
-40.1015
-40.6213
-43.9464
-42.9416
-41.9208
-41.7165
-41.6271
-42.7782
-41.7258
-41.9374
-30.9645
-13.4733
-30.5825
-12.1115
-47.4398
-48.6242
16.4018
16.9357
-61.888
-47.6899
-45.9204
-34.6282
-49.1047
-57.0334
-46.659
-37.1081
-33.6483
-27.7079
-34.3073
-31.2125
-32.6067
-33.0848
-30.3768
-28.513
-48.1654
-42.1547
-45.2309
-47.9469
-47.7852
-45.5582
-47.2024
-42.6731
-64.9373
100.286
-73.6029
90.7415
-129.832
-131.215
136.04
137.936
-81.5349
-71.8264
-49.1101
-49.0501
-63.7414
-52.3312
-62.383
-52.5138
-47.1819
-41.143
-46.4284
-39.1829
-51.6585
-51.9475
-39.5239
-38.7065
-44.9606
-43.7961
-40.9231
-41.8127
-41.1471
-43.6118
-42.0558
-42.5257
-59.7743
-53.8274
-38.9668
-32.1699
-53.0908
-43.321
-36.8762
-45.398
-49.8157
-43.6709
-45.7648
-48.8269
-46.3301
-49.0693
-44.2011
-48.463
-30.4407
-32.0036
-31.7215
-32.2821
-30.4789
-31.425
-32.542
-32.6435
-38.0864
-31.4271
-35.5753
-31.0325
-44.2257
-40.945
-28.2861
-27.331
-38.7305
-36.4085
-38.667
-36.4161
-40.0075
-40.0336
-35.7333
-35.7642
-33.6872
-33.1435
-37.7607
-36.909
-34.7917
-36.7975
-35.5491
-35.8943
-35.456
-36.6279
-35.5908
-36.7463
-35.1226
-35.0448
-37.5039
-37.5701
-42.2258
-49.2539
-48.1315
-61.6588
-44.4724
-41.7562
-49.1039
-78.8182
-1.2926
6.18294
-2.98514
5.56732
-5.0874
-5.50072
12.0112
11.7031
-83.0917
-71.2206
-80.7977
-69.5248
-89.1744
-87.5641
-64.755
-63.8256
-31.6978
-32.7612
-32.8864
-32.9053
-31.7341
-32.7906
-33.0812
-33.1674
-37.8482
-32.4335
-37.4541
-32.5342
-38.4572
-41.0872
-29.7025
-28.9605
-35.3631
-35.1945
-39.4615
-38.5619
-38.4775
-36.2947
-36.9629
-37.2625
-44.0986
-49.1472
-49.9881
-63.0434
-43.4121
-45.9587
-81.3684
-49.8698
-71.888
-69.7548
-63.31
-53.0145
-51.9253
-59.6681
-50.9246
-49.4378
-66.0023
-64.2197
-60.2912
-49.153
-56.2895
-46.1363
-44.5208
-45.4452
-62.6544
-62.8451
-58.154
-50.712
-58.1059
-50.6463
-47.2785
-47.4159
-35.009
-34.7734
-35.8459
-37.2225
-36.8292
-36.1735
-28.069
-27.7209
197.899
154.653
205.056
208.211
134.169
134.442
154.597