# vtk DataFile Version 2.0
tet_velo
ASCII
DATASET UNSTRUCTURED_GRID
POINTS 29498 float
-0.740067 0.245 -2.215
-0.725 0.375 2.26635
-0.70513 0.715 -2.145
-0.711461 1.035 2.295
0.61283 0.245 -2.295
0.735 0.365 2.25443
0.635 0.735 -2.15157
0.745 1.0341 2.275
-0.761957 0.261421 -0.721217
-0.775316 0.286373 0.772567
-0.818955 0.933382 -0.665
-0.777975 0.996957 0.815
0.679984 0.258569 -0.778524
0.743129 0.276147 0.737953
0.782423 0.945456 -0.676047
0.778867 1.00493 0.799477
-1.52182 -0.150111 -3.42673
-1.50219 -0.0756599 -2.23544
-1.51608 -0.0550295 -0.739258
-1.52167 -0.0421456 0.75991
-1.49001 0.023251 2.25644
-1.46877 0.0790666 3.4493
-1.45461 0.131443 4.64025
-1.50405 0.14069 -3.38518
-1.48799 0.236193 -2.19776
-1.51933 0.278519 -0.707478
-1.52179 0.297359 0.783262
-1.47573 0.36375 2.27422
-1.45688 0.418842 3.46765
-1.44563 0.470524 4.66027
-1.4775 0.687726 -3.30654
-1.47105 0.778437 -2.12869
-1.54866 0.935944 -0.649781
-1.52651 0.99429 0.828317
-1.46701 1.03914 2.30907
-1.4469 1.09388 3.50321
-1.43508 1.14818 4.69933
-1.46042 1.63498 -3.19739
-1.45874 1.74039 -2.01691
-1.48632 1.89723 -0.547001
-1.49544 2.0089 0.919974
-1.47347 2.07501 2.39311
-1.44985 2.12191 3.5803
-1.42864 2.17122 4.77298
-0.800735 -0.14567 -3.44942
-0.767456 -0.0692931 -2.2591
-0.769166 -0.0637726 -0.757822
-0.773797 -0.0527599 0.748225
-0.74625 0.0253029 2.24965
-0.725539 0.0798891 3.441
-0.710875 0.130433 4.63013
-0.784927 0.139223 -3.40348
-0.713607 0.420997 3.45862
-0.702059 0.469924 4.64982
-0.754062 0.664424 -3.31745
-0.702615 1.0929 3.49093
-0.690954 1.14711 4.68724
-0.719737 1.6209 -3.20819
-0.70719 1.72781 -2.02676
-0.727962 1.8967 -0.557471
-0.740657 2.01315 0.907619
-0.724368 2.07671 2.37936
-0.702671 2.12209 3.56646
-0.681959 2.17093 4.75936
0.607099 -0.14241 -3.50479
0.629864 -0.0689296 -2.32554
0.683659 -0.0662524 -0.810777
0.728179 -0.0603641 0.713361
0.732155 0.0169322 2.22945
0.752563 0.0737119 3.42
0.772422 0.126103 4.60675
0.607028 0.144268 -3.4567
0.758814 0.414958 3.43961
0.779443 0.465806 4.62734
0.639519 0.675854 -3.3477
0.770592 1.09017 3.47038
0.79197 1.14446 4.66475
0.74199 1.62989 -3.23497
0.773635 1.73716 -2.05024
0.790008 1.90423 -0.579702
0.781839 2.01782 0.885249
0.781381 2.07859 2.35655
0.794284 2.12248 3.54305
0.812282 2.1706 4.73521
1.32595 -0.142846 -3.52784
1.35238 -0.0719244 -2.346
1.41983 -0.0565239 -0.832824
1.47409 -0.0517898 0.69217
1.4823 0.0105679 2.20811
1.49686 0.0686363 3.4032
1.51605 0.123625 4.59181
1.32575 0.151095 -3.48163
1.35118 0.24331 -2.30649
1.43283 0.279997 -0.79749
1.48937 0.288912 0.718986
1.48764 0.351089 2.2301
1.50233 0.408821 3.42434
1.52272 0.463114 4.61344
1.36163 0.706484 -3.37356
1.39254 0.800321 -2.18546
1.50752 0.950562 -0.702269
1.52574 0.999829 0.78073
1.50365 1.03554 2.2646
1.51589 1.0887 3.45927
1.53642 1.14333 4.6529
1.47176 1.65151 -3.25337
1.50769 1.7572 -2.06762
1.53978 1.91076 -0.594856
1.54102 2.01724 0.872899
1.53771 2.0784 2.34601
1.54599 2.12268 3.53249
1.56132 2.17067 4.72398
-0.761781 0.48 -2.21918
-0.0636185 0.241498 -2.2585
-0.755541 0.248681 -1.46811
-0.745817 0.705 2.30826
0.005 0.370596 2.25979
-0.783687 0.297157 1.51946
-0.035065 0.759629 -2.18291
-0.815292 0.87744 -1.405
0.0167695 1.05767 2.30812
-0.752732 1.02399 1.555
0.674284 0.49 -2.27365
0.651074 0.247117 -1.53676
0.772365 0.69955 2.29708
0.764202 0.295436 1.49619
0.753606 0.885123 -1.41381
0.770456 1.02804 1.53724
-0.761758 0.280775 0.0256751
-0.88966 0.597401 -0.693108
-0.0409863 0.258901 -0.74987
-0.879804 0.641665 0.793784
-0.0160933 0.279523 0.75526
-0.799523 0.966228 0.075
-0.0182662 1.26813 -0.670523
0.00044607 1.4888 0.807239
0.707023 0.271892 -0.020285
0.862729 0.602013 -0.727285
0.880729 0.64054 0.768715
0.78245 0.977 0.061715
-0.838898 0.538701 -1.43655
-0.884366 0.619533 0.0503376
-0.871462 0.673333 1.53723
-0.0523024 0.244526 -1.50244
-0.0285398 0.276037 0.00269502
-0.00554667 0.295759 1.50783
-0.0493418 0.485 -2.39157
0.0108847 0.702275 2.32448
-0.0266656 0.950631 -1.4094
-0.00891009 1.48477 0.0683575
0.00860778 1.27043 1.54612
0.876572 0.546006 -1.47529
0.871909 0.621277 0.020715
0.862192 0.670045 1.51672
-1.11403 0.240596 -2.20638
-0.753762 0.0878535 -2.23705
-0.762497 0.192111 -2.80924
-1.10036 0.369375 2.27029
-0.735625 0.200151 2.258
-0.719304 0.397998 2.86249
-1.08809 0.746718 -2.13685
-0.729596 0.689712 -2.73123
-0.70616 1.2214 -2.08588
-1.08923 1.03707 2.30203
-0.707038 1.06395 2.89297
-0.717914 1.55586 2.33718
0.621347 0.0880352 -2.31027
0.609929 0.194634 -2.87585
0.982004 0.244155 -2.30074
0.733578 0.190966 2.24194
0.746907 0.389979 2.84702
1.11132 0.358044 2.24226
0.637259 0.705427 -2.74963
0.704318 1.23608 -2.10091
1.01377 0.76766 -2.16852
0.757796 1.06213 2.87269
0.763191 1.55634 2.31578
1.12432 1.03482 2.2698
-1.14064 0.26997 -0.714347
-0.765561 0.0988243 -0.739519
-1.14855 0.291866 0.777915
-0.774557 0.116807 0.760396
-1.18381 0.934663 -0.657391
-0.773459 1.41504 -0.611235
-1.15224 0.995624 0.821659
-0.759316 1.50505 0.86131
0.681822 0.0961584 -0.79465
1.05641 0.269283 -0.788007
0.735654 0.107892 0.725657
1.11625 0.28253 0.72847
0.786215 1.42484 -0.627874
1.14497 0.948009 -0.689158
0.780353 1.51138 0.842363
1.15231 1.00238 0.790103
-1.512 -0.112886 -2.83109
-1.51293 -0.0047105 -3.40595
-1.16128 -0.147891 -3.43807
-1.50913 -0.0653447 -1.48735
-1.49509 0.0802663 -2.2166
-1.13482 -0.0724765 -2.24727
-1.51888 -0.0485875 0.0103261
-1.5177 0.111745 -0.723368
-1.14262 -0.059401 -0.74854
-1.50584 -0.0094473 1.50818
-1.52173 0.127607 0.771586
-1.14774 -0.0474527 0.754067
-1.47939 0.0511588 2.85287
-1.48287 0.193501 2.26533
-1.11813 0.024277 2.25305
-1.46169 0.105255 4.04477
-1.46282 0.248954 3.45847
-1.09715 0.0794778 3.44515
-1.45012 0.300983 4.65026
-1.08274 0.130938 4.63519
-1.49602 0.188441 -2.79147
-1.49077 0.414208 -3.34586
-1.14449 0.139956 -3.39433
-1.50366 0.257356 -1.45262
-1.47952 0.507315 -2.16323
-1.52056 0.287939 0.0378921
-1.53399 0.607232 -0.67863
-1.49876 0.330555 1.52874
-1.52415 0.645824 0.80579
-1.4663 0.391296 2.87093
-1.47137 0.701446 2.29164
-1.45126 0.444683 4.06396
-1.45189 0.75636 3.48543
-1.08524 0.419919 3.46313
-1.44036 0.809352 4.6798
-1.07385 0.470224 4.65505
-1.47428 0.733081 -2.71761
-1.46896 1.16135 -3.25196
-1.11578 0.676075 -3.31199
-1.50986 0.857191 -1.38924
-1.4649 1.25942 -2.0728
-1.53759 0.965117 0.089268
-1.51749 1.41658 -0.598391
-1.49676 1.01672 1.56869
-1.51098 1.50159 0.874145
-1.45695 1.06651 2.90614
-1.47024 1.55708 2.35109
-1.44099 1.12103 4.10127
-1.44837 1.6079 3.54175
-1.07476 1.09339 3.49707
-1.43186 1.6597 4.73615
-1.06302 1.14765 4.69328
-1.45958 1.68768 -2.60715
-1.09008 1.62794 -3.20279
-1.47253 1.81881 -1.28195
-1.08297 1.7341 -2.02183
-1.49088 1.95306 0.186486
-1.10714 1.89696 -0.552236
-1.48446 2.04196 1.65654
-1.11805 2.01103 0.913796
-1.46166 2.09846 2.9867
-1.09892 2.07586 2.38623
-1.43924 2.14657 4.17664
-1.07626 2.122 3.57338
-1.0553 2.17107 4.76617
-0.784096 -0.107481 -2.85426
-0.792831 -0.00322364 -3.42645
-0.096818 -0.14404 -3.4771
-0.768311 -0.0665329 -1.50846
-0.0687961 -0.0691114 -2.29232
-0.771482 -0.0582662 -0.00479861
-0.0427533 -0.0650125 -0.784299
-0.760024 -0.0137285 1.49894
-0.0228091 -0.056562 0.730793
-0.735895 0.052596 2.84532
-0.0070476 0.0211176 2.23955
-0.718207 0.105161 4.03557
-0.719573 0.250443 3.44981
0.0135117 0.0768005 3.4305
-0.706467 0.300179 4.63998
0.0307737 0.128268 4.61844
-0.769495 0.401823 -3.36046
-0.0889498 0.141745 -3.43009
-0.707833 0.44546 4.05422
-0.708111 0.756948 3.47478
0.0226036 0.417977 3.44912
-0.696506 0.808518 4.66853
0.038692 0.467865 4.63858
-0.7369 1.14266 -3.26282
-0.0572717 0.670139 -3.33258
-0.696784 1.12001 4.08908
-0.702643 1.60749 3.5287
0.0339887 1.09153 3.48066
-0.686456 1.65902 4.7233
0.0505084 1.14579 4.67599
-0.713464 1.67435 -2.61747
0.0111265 1.62539 -3.22158
-0.717576 1.81225 -1.29211
0.0332226 1.73248 -2.0385
-0.73431 1.95493 0.175074
0.0310232 1.90047 -0.568586
-0.732513 2.04493 1.64349
0.0205908 2.01549 0.896434
-0.713519 2.0994 2.97291
0.0285068 2.07765 2.36796
-0.692315 2.14651 4.16291
0.0458066 2.12228 3.55476
0.0651614 2.17076 4.74729
0.618482 -0.10567 -2.91517
0.607064 0.000928816 -3.48074
0.966527 -0.142628 -3.51631
0.656762 -0.067591 -1.56816
0.991122 -0.070427 -2.33577
0.705919 -0.0633082 -0.0487078
1.05174 -0.0613882 -0.8218
0.730167 -0.0217159 1.4714
1.10114 -0.0560769 0.702766
0.742359 0.045322 2.82472
1.10723 0.01375 2.21878
0.762492 0.0999073 4.01337
0.755688 0.244335 3.4298
1.12471 0.0711741 3.4116
0.775932 0.295954 4.61704
1.14423 0.124864 4.59928
0.623273 0.410061 -3.4022
0.966389 0.147681 -3.46916
0.769129 0.440382 4.03347
0.764703 0.752563 3.455
1.13057 0.411889 3.43198
0.785707 0.805134 4.64604
1.15108 0.46446 4.62039
0.690755 1.15287 -3.29134
1.00057 0.691169 -3.36063
0.781281 1.11732 4.06757
0.782438 1.60632 3.50672
1.14324 1.08944 3.46483
0.802126 1.65753 4.69998
1.16419 1.1439 4.65882
0.757813 1.68352 -2.64261
1.10688 1.6407 -3.24417
0.781822 1.82069 -1.31497
1.14066 1.74718 -2.05893
0.785924 1.96103 0.152773
1.1649 1.9075 -0.587279
0.78161 2.04821 1.6209
1.16143 2.01753 0.879074
0.787833 2.10053 2.9498
1.15955 2.07849 2.35128
0.803283 2.14654 4.13913
1.17014 2.12258 3.53777
1.1868 2.17064 4.72959
1.33917 -0.107385 -2.93692
1.32585 0.00412428 -3.50473
1.3861 -0.0642242 -1.58941
1.35178 0.085693 -2.32624
1.44696 -0.0541569 -0.0703266
1.42633 0.111737 -0.815157
1.47819 -0.020611 1.45014
1.48173 0.118561 0.705578
1.48958 0.0396021 2.80566
1.48497 0.180828 2.2191
1.50645 0.0961306 3.99751
1.4996 0.238729 3.41377
1.51938 0.293369 4.60263
1.33846 0.197202 -2.89406
1.34369 0.428789 -3.42759
1.39201 0.261654 -1.55199
1.37186 0.521816 -2.24597
1.4611 0.284454 -0.0392521
1.47018 0.615279 -0.74988
1.48851 0.32 1.47454
1.50756 0.64437 0.749858
1.49499 0.379955 2.82722
1.49564 0.693313 2.24735
1.51252 0.435967 4.01889
1.50911 0.748761 3.4418
1.52957 0.803222 4.63317
1.37708 0.753402 -2.77951
1.41669 1.179 -3.31346
1.45003 0.875441 -1.44386
1.45012 1.27876 -2.12654
1.51663 0.975195 0.0392303
1.52365 1.43066 -0.648563
[...]
POINT_DATA 29498
VECTORS point_vectors float
-2.47539 -5.25276 12.066
0.0401522 0.571108 1.65707
-4.25691 2.20472 4.90052
0.175782 -0.0767919 1.04253
4.03499 -7.80066 11.4518
-0.0942289 0.409631 1.08387
2.2512 1.53118 4.07271
-0.215565 -0.114609 1.0063
0.00102123 0.00139481 0.084707
-0.00126171 0.0003406 0.0360596
0 0 0
0 0 0
0 0 0
-4.3822e-05 -0.000282336 0.0681402
0 0 0
0 0 0
-0.476364 -0.268311 19.8809
-1.11955 -0.734597 20.4716
-0.398035 -0.524277 21.3424
0.101037 -0.112021 21.4431
0.608332 0.261291 21.3682
0.83318 0.296016 21.2722
0.864077 0.0846709 21.1397
-0.599294 -0.217901 19.7745
-1.56497 -0.679368 20.4257
-0.593019 -0.662689 21.4412
0.123244 -0.209228 21.5727
0.832591 0.119591 21.4281
1.11946 0.119855 21.6243
1.10654 -0.0217235 21.0179
-0.712892 0.00278059 19.6507
-1.96451 -0.00365199 20.3022
-1.24919 -0.413772 21.4323
-0.129285 -0.350129 21.7238
0.748059 -0.397346 21.4395
1.10953 -0.529056 20.9849
0.703792 -0.302703 20.7962
-0.539713 0.32528 19.8465
-1.04547 0.638675 20.2869
-1.05918 0.456392 21.217
-0.255125 -0.0566408 21.5793
0.250378 -0.406179 21.3295
0.339485 -0.464533 21.1492
0.34476 -0.420381 20.9327
-0.443932 -0.484828 19.4895
-1.76819 -2.96791 20.6855
0.14582 -0.208791 21.0995
0.149784 0.258089 20.3179
0.175711 1.18959 19.0966
0.545927 1.77316 18.0916
1.0724 1.01335 15.6066
-0.597905 -0.410263 19.1899
1.08823 1.90605 11.5759
1.6657 1.04471 10.6632
-0.737905 0.0209436 18.8918
1.94221 -0.389492 10.6046
1.12212 -0.375393 16.0841
-0.458284 0.627306 19.4173
-1.08347 1.70663 19.9077
-1.62151 1.96046 21.2943
-0.331078 0.117837 22.0535
0.158485 -0.624652 21.4644
0.307544 -0.854866 21.188
0.273412 -0.612204 20.2075
0.349879 -0.48464 19.4281
1.60487 -3.46937 20.3424
-0.110009 -0.166066 21.2785
-0.169587 0.216491 20.456
-0.227308 1.04081 19.1808
-0.563294 1.66489 18.0581
-0.952103 0.882992 16.0544
0.488512 -0.406348 19.1362
-1.00983 1.79996 12.1651
-1.36441 0.790872 10.7169
0.645907 0.0446495 18.8011
-1.8737 -0.322849 12.159
-1.11312 -0.419188 17.081
0.449153 0.585867 19.4549
1.11693 1.55123 19.9342
1.56562 1.75841 21.2614
0.308167 0.147255 22.0172
-0.22078 -0.573401 21.4532
-0.377617 -0.769215 21.24
-0.289395 -0.539441 20.8332
0.454831 -0.279101 19.8047
1.29486 -0.927144 20.2648
0.37739 -0.596953 21.3557
-0.089879 -0.173924 21.472
-0.539991 0.193291 21.3634
-0.788684 0.250295 21.2716
-0.814531 -0.0332378 21.0891
0.566057 -0.218974 19.6742
1.89565 -0.864376 20.1005
0.593662 -0.772104 21.4571
-0.0733995 -0.294266 21.6023
-0.701093 0.0485129 21.4625
-1.01067 0.119745 21.5024
-1.04351 -0.119743 21.4523
0.692802 0.0329616 19.586
2.11478 0.11579 20.0966
1.36223 -0.414824 21.3878
0.230363 -0.321048 21.7262
-0.60534 -0.291687 21.4728
-0.986004 -0.38478 21.0254
-0.687474 -0.248586 21.1098
0.498649 0.302907 19.8569
0.97061 0.585958 20.2672
0.992396 0.423235 21.1396
0.25646 -0.0143192 21.5278
-0.236289 -0.333413 21.3081
-0.332305 -0.374634 21.1289
-0.317088 -0.314824 20.8153
-1.98228 -0.346755 2.51652
-0.00421919 -0.189411 1.43217
0.0755755 -0.00793328 0.598615
-0.0218753 0.0167887 0.00250802
-0.0134293 -0.0391356 -0.0322007
-0.0188371 0.0142385 0.429829
-0.00265907 0.357311 0.491076
-0.0666172 -0.0241583 0.187288
-0.0309323 0.32951 -0.21621
0 0 0
2.04349 0.226342 2.27601
-0.000390966 0.00101868 0.164223
-0.0307397 0.00720615 0.109822
0.0402634 0.0483996 0.967962
0.131433 -0.0371529 0.260151
-0.00049084 0.000517317 0.00169259
-0.00265956 0.00111894 0.0633071
-8.87676e-05 -0.000438577 0.0278345
-1.126e-05 0.000295925 0.0105499
0.00469066 0.0197921 0.089934
-0.000224642 0.000116869 0.0290003
0 0 0
0.000554209 0.196989 0.335
-0.000241206 -0.00398612 0.110882
6.30149e-05 8.7851e-05 0.00636158
4.92406e-05 -1.1827e-05 0.00520504
-0.00106377 0.00604556 0.0337024
0 0 0
-0.000965348 -0.00196084 0.0199598
0 0 0
0.000599843 0.00776123 0.0495588
4.62382e-05 2.38883e-05 0.00287696
-5.2813e-05 4.13659e-05 0.0058792
-5.61691e-05 0.000184248 0.00881244
-0.0299907 0.149993 0.185544
0 0 0
-0.00107474 0.00597048 0.0380044
-0.000134537 0.00193058 0.0406542
0.000150356 0.00439392 -0.00779438
0.00439327 -0.00696269 0.0945785
0 0 0
-0.000609097 0.00544843 0.0377776
-2.90581 -1.64326 20.4519
-2.80946 -4.60633 21.083
-1.70837 -1.35625 18.2432
1.2257 0.844487 18.749
-0.216908 1.39176 12.2014
-0.226523 1.53248 7.55914
-4.01581 0.367562 20.0956
-2.42944 0.553121 17.0714
-2.47344 2.95249 19.5059
1.25849 -0.246584 18.9851
1.23432 0.291151 7.23817
0.704249 -0.798196 18.6599
2.66213 -5.60927 20.3309
1.41085 -1.33526 17.9083
3.50608 -2.2407 19.627
0.0707499 1.21519 12.5282
0.246817 1.42065 7.68723
-1.02736 0.624371 18.8868
2.23358 0.639867 16.8802
2.3406 2.78189 19.4587
4.28354 0.854117 19.5099
-1.11664 0.440077 7.69151
-0.754512 -0.737081 19.5461
-1.03051 -0.176169 19.7269
-0.334898 -1.13034 21.2477
0.591304 0.0310649 16.3153
0.248459 -0.0297429 20.0232
-0.0175546 0.28555 14.8981
-2.10053 -1.10977 21.6094
-4.42034 2.39912 21.3272
0.00570999 -0.47826 20.0725
0.0559616 0.210249 17.7441
-0.2502 0.176472 15.5822
-0.0220987 -0.924148 19.2516
-0.0188483 0.228684 14.703
-0.201793 -0.0468239 19.1674
4.10702 2.22356 21.2886
2.36637 -1.13586 21.3932
0.135926 0.215732 19.4394
0.242434 -0.473923 20.4774
-0.841037 -0.481002 19.9896
-0.551732 -0.249182 19.8409
-0.502186 -0.361773 19.7077
-0.79087 -0.679979 21.0777
-1.34129 -0.732617 20.4561
-1.56591 -1.45924 20.4774
-0.106264 -0.308259 21.4353
-0.488435 -0.597913 21.3896
-0.148846 -0.65991 21.5456
0.331466 0.0727814 21.4663
0.116048 -0.16164 21.5025
0.219716 -0.0443014 21.5007
0.789696 0.355886 21.2347
0.720207 0.213511 21.4075
0.738104 0.698765 21.1774
0.924359 0.376424 20.156
0.970401 0.221325 21.3675
1.00111 0.959852 21.348
0.981711 0.0474243 21.3255
0.890357 0.725187 20.7336
-1.11126 -0.424734 19.8462
-0.658978 -0.135568 19.69
-0.632994 -0.330573 19.53
-1.09651 -0.746865 21.1438
-1.84417 -0.400951 20.3691
-0.178377 -0.435658 21.5388
-0.946679 -0.621145 21.449
0.445825 -0.0436547 21.602
0.0346651 -0.301159 21.6925
0.985617 0.151366 21.2999
0.908703 -0.132162 21.4693
0.977445 0.168968 20.4935
1.22954 -0.194161 21.4415
1.63151 1.01401 18.5493
0.939215 -0.247636 20.952
1.38612 0.511491 15.8406
-1.37798 0.0271869 19.7145
-0.670231 0.206998 19.707
-0.789688 0.00484837 19.3019
-1.66711 -0.27564 21.0095
-1.57297 0.526397 20.2393
-0.670585 -0.419528 21.7016
-1.40414 0.108414 21.328
0.351952 -0.32464 21.6631
-0.278029 -0.198647 21.7046
0.904327 -0.441936 21.3175
0.445364 -0.469271 21.4131
0.86176 -0.441383 20.6646
0.609511 -0.501858 20.9806
1.75082 -0.499946 19.5645
0.469744 -0.419468 21.1205
1.08159 -0.445571 19.401
-0.812353 0.50405 19.9792
-0.571819 0.481177 19.6323
-1.16622 0.609738 20.7251
-1.19544 1.10644 20.1074
-0.685999 0.193387 21.5537
-1.42296 0.981259 21.3029
0.0481265 -0.250209 21.4491
-0.312189 -0.00264316 21.8108
0.375556 -0.41258 21.3055
0.226533 -0.511531 21.4127
0.398045 -0.460244 20.672
0.374981 -0.703181 21.3684
0.323116 -0.560502 21.2461
-1.05543 -1.32219 19.1965
-0.513813 -0.470774 19.3523
-0.0665675 -0.585712 19.2469
-0.413552 -0.938859 21.8485
-0.137126 -4.51725 20.9528
0.18943 0.118346 20.524
-0.0113526 -0.282394 19.8801
0.156835 0.609869 19.9684
-0.0148724 0.0354711 17.9215
0.252906 1.36175 18.644
-0.085854 0.464205 15.4581
0.284943 1.38693 18.061
0.716549 1.97534 14.2634
-0.0658167 1.07825 13.502
1.41254 1.13208 13.0898
-0.163905 1.09221 13.9035
-0.680947 -0.245009 19.0209
-0.106711 -0.515992 18.8181
1.55592 1.77772 11.9843
2.36133 1.01934 8.24037
-0.028532 -0.34436 -2.3382
1.49731 0.411894 12.7889
0.0219658 1.12763 7.36381
-0.651694 0.493218 19.0291
-0.0646872 0.0876255 18.3206
2.29278 -0.271721 13.0926
0.722772 -1.21124 19.3304
-0.0485548 -1.40917 -0.443648
0.721838 -0.977363 18.6799
0.0604177 -1.52659 5.51203
-0.791257 1.22262 19.4632
0.0114215 0.830735 19.2212
-1.36838 1.84045 20.3968
0.0803853 2.35352 19.6835
-0.985325 0.997866 22.1497
0.103687 3.42574 21.1868
0.0104882 -0.383316 21.7447
-0.00106987 0.330236 22.3449
0.247801 -0.789184 21.3218
-0.0269772 -0.641244 21.6758
-0.0114222 -0.529678 21.565
-0.0518873 -0.763161 21.3807
-0.00155142 -0.48922 21.2542
0.894446 -1.42748 19.0318
0.423934 -0.467225 19.2919
0.443741 -0.383839 19.6107
0.32669 -1.05876 22.0362
1.68571 -1.83311 20.1846
-0.191713 0.0812208 20.7652
0.0707007 -0.635445 21.5711
-0.182918 0.560662 19.8559
-0.232969 -0.0847324 21.3874
-0.267161 1.20992 18.6873
-0.687181 0.567912 21.123
-0.383159 1.22333 18.3694
-0.654734 1.91937 14.4568
-0.988662 0.76755 21.3002
-1.19105 0.911037 13.393
-0.850568 0.582961 21.7584
0.57667 -0.233735 18.9082
0.582305 -0.315029 19.3954
-1.37458 1.616 12.7914
-2.18711 1.04432 7.38836
-1.49491 0.751125 18.7461
-1.3312 0.316958 13.0732
-1.19733 0.34304 16.4049
0.581617 0.487017 19.0339
0.721813 0.0399889 19.2273
-1.98434 -0.385517 14.5398
-0.761261 -1.07923 20.1989
-1.48249 -0.424909 20.0038
-0.757585 -0.87756 19.2116
-1.00466 -0.270751 19.4679
0.775433 1.12075 19.5064
0.53759 0.443124 19.6602
1.37188 1.68199 20.424
1.12862 1.0078 20.1068
0.97077 0.951401 22.0573
1.31721 0.875372 21.2265
-0.0609526 -0.339532 21.7254
0.306435 0.0454337 21.7737
-0.330191 -0.726201 21.3007
-0.243834 -0.440564 21.4159
-0.0471018 -0.434605 21.3262
-0.406172 -0.616124 21.3108
-0.347622 -0.491181 21.1999
0.831179 -0.547723 19.8284
0.501393 -0.252815 19.7398
0.908673 -0.894322 21.1409
1.5971 -0.914697 20.1942
0.111755 -0.382185 21.4027
0.469317 -0.681765 21.4067
-0.307674 0.017873 21.4717
-0.0885643 -0.234322 21.5292
-0.695808 0.263494 21.2359
-0.636809 0.138907 21.4298
-0.880697 0.32037 20.1756
-0.884711 0.200341 21.2384
-0.929016 -0.0774946 21.2699
1.12607 -0.449187 19.6135
0.63224 -0.129516 19.6113
1.37006 -0.957551 21.2482
2.22838 -0.393617 20.0618
0.228571 -0.552635 21.533
1.02467 -0.735996 21.4433
-0.37482 -0.11352 21.5641
0.0635611 -0.352644 21.7145
-0.887697 0.0903494 21.3665
-0.725634 -0.148053 21.5252
-0.946681 0.0405771 20.5096
-1.05422 -0.140768 21.319
-0.892438 -0.197981 21.2799
1.35752 0.0788894 19.533
0.623572 0.211908 19.6909
1.8804 -0.189185 21.0236
1.51387 0.553516 20.1641
0.783794 -0.411807 21.6613
1.38231 0.150562 21.2552
-0.234268 -0.271817 21.6534
0.321743 -0.134433 21.6816
-0.786634 -0.331482 21.2412
-0.400759 -0.364841 21.3602
-0.601032 -0.396807 21.0843
-0.553986 -0.420294 21.0191
-0.461408 -0.317272 21.0882
0.755078 0.47054 19.9761
1.0881 0.558522 20.6978
0.66503 0.207946 21.4823
-0.0417603 -0.188772 21.4657
-0.37253 -0.338053 21.3032
-0.503099 -0.466422 20.5161
-0.977949 -0.474941 19.9131
-1.3248 -1.41379 18.8008
-1.03496 -0.832619 19.6981
-1.50786 -0.776653 19.2968
-0.566434 -0.341966 19.6311
-2.09017 -1.63663 20.5061
-0.929228 -0.73128 21.1186
0.174863 -0.417394 18.3611
-0.699107 -1.03376 21.4002
-1.12776 -1.46307 21.5954
-0.178359 -0.896975 21.6244
-0.13491 -0.375374 21.483
0.176011 0.281389 15.1201
0.104784 -0.307085 21.5409
0.106315 -0.507313 20.3111
0.265444 -0.0834521 21.1624
0.394433 0.0220676 21.5446
-0.129169 0.548902 13.5395
0.42997 0.289415 21.4465
0.544696 0.394556 19.4982
0.979195 0.827529 20.0664
0.914428 0.297879 21.2142
0.0784998 1.50471 13.3251
0.8728 0.832457 20.8691
1.37201 0.875437 18.9794
1.22318 1.01974 19.7759
0.935904 0.257798 20.36
1.08823 1.57187 13.5123
0.862639 0.656333 21.5767
1.55814 1.08565 20.4051
1.14941 0.623559 18.1999
-1.28393 -0.254746 19.7714
-2.23222 -0.656859 17.4387
-1.97564 0.154299 18.9166
-0.737345 -0.172994 19.3798
-3.91228 -0.869178 20.2989
-1.43806 -0.585942 21.1157
-2.72848 -0.545655 21.2542
-1.03466 -1.27446 21.2671
-0.399976 -0.495644 21.6425
-0.885567 -0.993817 20.768
0.279989 -0.0576294 19.42
0.451727 -0.174269 21.6733
0.690918 -0.118878 19.5057
1.44718 0.427346 17.8519
1.10091 -0.154514 21.2267
0.622799 1.41407 4.32375
1.42106 -0.421609 19.5249
1.87717 0.318048 18.5604
0.999116 -0.181649 20.4449
2.09772 0.933659 11.0997
1.74191 -0.501926 19.6342
1.31284 -0.0655086 17.8625
-1.15223 0.40427 19.7999
-1.45116 1.5339 18.5684
-0.918063 0.867398 19.7252
-0.743671 0.347425 19.3897
-2.19668 1.28219 19.978
-1.6066 0.328032 20.806
-2.76364 2.18787 20.2441
-1.40126 1.1268 20.6197
-2.39432 0.512609 21.504
-0.84344 -0.0722777 21.6859
-1.86015 0.460954 20.0108
-0.880788 0.471645 21.8221
-0.439483 -0.233531 22.1045
0.16617 -0.332017 21.5934
0.708942 -0.387059 17.8314
0.0303543 -0.302569 21.6045
0.501164 -0.732648 21.5628
0.591916 -0.50722 21.2455
0.679051 -1.05402 19.6316
0.337772 -0.573408 21.0551
0.798861 -0.901221 21.2115
0.486998 -0.627959 20.997
0.732002 -1.10231 18.8444
0.108695 -0.432206 21.2994
0.595949 -0.695212 19.9647
1.10887 -1.43846 18.5683
-0.126625 -1.98904 18.5575
-0.185583 -2.13048 16.7988
-0.0876464 -0.578649 19.0333
-0.162113 -6.95227 22.4211
-0.205649 -0.329625 17.9843
-0.0478475 -1.26627 22.2178
0.0248962 0.0702852 10.9445
-0.168157 0.227254 14.6991
-0.0159137 -0.047215 18.5294
-0.0172518 0.0536561 10.1929
0.0934646 0.516291 13.3989
-0.0237747 0.296059 16.8386
-0.15706 0.244884 6.33533
-0.117895 1.33076 13.5903
-0.129366 0.0125679 14.1488
0.0642757 -1.9557 -2.95274
-0.0501713 0.72204 5.66798
-1.07095 1.38292 13.5263
-0.0745821 0.919039 12.407
0.288627 -2.55803 -2.87928
-0.0709694 1.10992 10.6337
1.94821 -0.584277 17.1502
-0.180079 1.27142 14.8588
-0.0824743 -0.339105 18.5026
-0.196339 1.33226 3.99088
0.0983398 -0.563342 -0.118814
-0.0619258 -1.07471 -4.63604
-1.77763 0.878021 11.7586
0.111055 -2.62765 1.82506
0.0475422 -0.471088 3.67739
1.37562 1.48184 18.5831
0.031189 1.65679 19.1805
-0.0137085 0.669245 18.6572
0.0349012 4.52735 19.0747
2.67179 2.07777 20.2917
0.0814068 2.70362 20.0732
0.0758888 6.91601 19.3724
2.02669 0.598807 21.2873
0.0436629 1.81361 22.5574
-0.03043 -0.0608207 13.1315
-0.683014 -0.378055 19.1097
-0.0153275 -0.346752 21.9746
-0.0267222 -0.668564 10.7973
-0.771282 -0.938482 20.0329
-0.0379517 -0.874496 21.4597
-0.0537533 -1.58163 14.8474
-0.735986 -1.00381 19.6288
0.0149821 -1.20863 21.1124
-0.152506 -0.904037 18.6271
0.989566 -0.526866 19.7279
0.964415 -0.906632 19.4806
1.42437 -0.788421 18.9928
0.511269 -0.37867 19.511
2.40644 -2.13993 19.9844
1.12222 -0.944373 21.1868
0.701543 -1.32553 21.5682
1.36375 -2.11049 21.8059
-0.0290037 -0.815115 21.2195
0.153925 -0.465327 21.4632
-0.149567 -0.33797 21.4052
-0.112633 -0.49532 18.8047
-0.264257 -0.127559 20.7812
-0.348576 -0.0378666 21.526
-0.428051 0.235356 21.3133
-0.514371 0.312706 18.9055
-0.88296 0.635286 20.1778
-0.823859 0.20499 21.2403
-0.823448 0.701687 20.9341
-1.20063 0.645017 19.3146
-1.12167 0.801671 19.9597
-0.913689 0.180474 20.3426
-0.925554 0.507328 21.4154
-1.42334 0.934036 19.9303
-1.02395 0.463001 19.0817
1.31461 -0.235421 19.5226
1.96552 0.249791 18.6351
0.676821 -0.190765 19.285
4.5809 -0.792954 19.354
1.76025 -0.651249 21.204
3.13098 -0.288978 21.4473
0.909682 -1.4391 19.7912
0.520831 -0.574433 21.635
1.15949 -0.921922 20.8442
-0.129777 -0.164508 19.0003
-0.330411 -0.203627 21.6414
-0.458237 -0.1102 19.9533
-1.1301 0.391238 18.0159
-0.928979 -0.14977 21.3301
-1.20151 -0.318876 19.9165
-1.59007 0.207066 19.2029
-0.786148 -0.192972 20.8973
-1.50789 -0.338094 19.6296
-1.18478 -0.114092 18.6991
1.09423 0.420873 19.7486
0.866644 0.797336 19.7457
0.671899 0.345646 19.3953
2.08271 1.29322 19.8899
1.56818 0.378966 20.7678
1.31739 1.01146 20.6226
2.29499 0.528374 21.3971
0.874289 -0.0102792 21.612
0.866198 0.475807 21.7377
0.460779 -0.120469 22.0545
-0.120455 -0.255576 21.5949
-0.049184 -0.247462 21.6038
-0.504643 -0.582639 21.5384
-0.548444 -0.419623 21.2515
-0.346848 -0.490028 21.104
-0.761209 -0.748966 21.1666
-0.64222 -0.670531 20.8903
-0.143302 -0.377317 21.1293
-0.589931 -0.577991 20.4521
-1.25099 -0.851679 19.5065
-0.831213 -1.22572 21.5013
0.156228 -0.442523 21.3785
0.509221 0.328507 20.6976
1.12563 0.944658 19.8711
1.21039 0.870992 20.9909
-1.86435 -0.383729 18.9938
-2.01304 -1.3329 21.5385
-0.162015 -0.714304 20.1039
0.696732 0.36182 18.8055
1.69003 0.320222 18.376
1.79074 0.267281 19.8503
-1.45057 0.837964 19.3279
-2.36125 0.863687 20.6927
-1.38224 0.0364115 22.1556
0.181701 -0.499634 21.8818
0.599684 -0.878096 21.6174
0.460537 -0.870575 20.9033
-0.163776 -2.15723 17.8708
-0.00526759 -0.368106 13.5629
-0.0191486 0.0985144 10.2346
-0.0202207 0.191388 8.83799
-0.134936 -0.988045 3.87169
0.107023 -0.819503 4.76386
-0.161683 -0.816113 15.3767
0.190717 -1.34723 -3.66397
0.0766088 -2.88156 -2.78713
-0.0141016 2.36215 17.792
0.0412251 3.93988 19.471
-0.019851 1.20998 13.5068
-0.0175716 -0.520834 10.6871
-0.0647472 -0.937643 13.31
-0.195223 -1.13287 15.5015
1.17753 -0.89123 19.2369
0.873351 -1.69727 21.832
-0.191855 -0.461036 20.7794
-0.512119 0.258989 20.4076
-1.03943 0.768952 19.9705
-1.16421 0.705145 20.7163
1.77955 -0.374642 18.708
2.59301 -1.4368 21.6761
0.310174 -0.857035 19.1689
-0.512725 0.23885 18.447
-1.33177 0.26797 18.3822
-1.55705 0.173006 19.6839
1.34866 0.814168 19.3014
2.25021 0.899347 20.6889
1.39613 0.135976 22.0481
-0.187637 -0.370903 21.8264
-0.597658 -0.717519 21.513
-0.47632 -0.758395 20.9632
-0.757654 -0.251857 1.02166
-0.00695876 -0.11181 0.351712
0.0526493 -0.0109496 0.922001
0.0686242 0.119135 0.250584
-0.10771 0.0312708 0.0954641
-0.0366869 0.0979587 0.521014
-0.359866 0.040335 0.391747
-0.126832 0.569097 0.610745
-0.439397 0.0217855 1.37883
0.039759 0.0983559 0.2129
-0.0450758 0.125632 -0.0676807
0.0578177 0.0476978 0.365758
0.00394151 -0.340928 1.53548
1.87656 -0.852318 1.37297
-0.00984833 0.000692383 0.140152
0.0872557 0.0182843 0.0551559
-0.0138144 0.0740375 0.122023
0.00286321 0.0416493 0.45635
0.0635072 0.399708 0.548032
1.71353 0.206505 1.78093
0.317906 0.134386 1.22323
-0.00125086 0.0735074 -0.0653565
-0.021315 0.0488585 0.059735
-0.0659249 0.0551346 0.334702
0.0235388 0.00162092 0.157086
-0.0012025 0.000789765 0.0366984
0 0 0
0.000829764 0.000384772 0.0134592
-0.0256037 0.0147822 0.379236
-0.00381832 0.00123609 0.0864043
0 0 0
0 0 0
-0.473494 -0.28136 1.02781
8.7345e-05 0.000678627 0.0723126
0 0 0
0 0 0
0 0 0
0.0150851 0.0488138 0.143721
-1.83717e-17 -2.94764e-17 -1.02577e-16
0.0852412 0.0129558 0.377007
-0.00726162 -0.000752635 0.196576
0 0 0
0 0 0
0 0 0
0.0419037 0.063414 0.277591
3.62098e-05 0.000761344 0.0573614
0.000805127 0.000274605 0.0271039
0 0 0
0.538214 -0.298379 0.778914
0 0 0
0.000999868 0.00730801 0.113164
0 0 0
0 0 0
-0.0710596 0.0108597 0.326208
-0.00536434 0.0265641 0.106843
-1.4985e-17 3.05858e-17 1.15004e-16
0 0 0
-0.0719283 0.00484748 0.0404806
-8.47211e-05 6.39901e-05 0.0205345
-0.00315956 -0.406882 0.112757
-0.00180256 -0.00676595 0.0656802
0 0 0
0 0 0
0 0 0
-0.000386005 0.000856515 0.00835688
-0.0179597 -0.0166664 -0.0672881
0 0 0
6.14454e-07 -4.22868e-07 -2.88366e-05
-1.32958e-17 2.68714e-16 1.36849e-16
-0.000593149 0.0153397 0.0676188
-0.023356 -0.0433988 0.329171
-0.0169132 0.00806585 0.0577733
0 0 0
-4.03485e-05 0.000343651 -0.00290086
0 0 0
-0.00465361 0.000871177 0.000427194
0.11709 0.0267774 0.0701308
1.04332 -0.325602 2.66931
-5.86345e-06 3.39384e-07 4.31655e-05
0.011902 -0.0172128 0.242967
0 0 0
-0.00686344 0.0181191 0.114194
-5.69443e-07 6.04653e-06 0.000269393
0 0 0
0.0156803 0.00847899 0.0590935
0.0217324 -0.0605598 0.39231
0.0030031 0.000582302 0.000543238
-0.0119786 0.150876 0.460445
2.40332e-18 -1.68882e-17 -1.25718e-16
4.90906e-05 3.36233e-05 0.00275802
-0.105774 -0.0194677 0.941365
2.25465e-05 0.000159158 0.00184661
0.00057452 0.0021766 0.0512512
-2.33633e-05 5.63202e-05 0.00331265
0.000289128 0.00215763 0.0115556
0 0 0
-8.58612e-05 0.000116391 0.0172625
0.000153227 0.000439017 0.0183449
0.00255639 0.0143628 0.0514167
-0.0156888 0.0606606 0.894504
0 0 0
0.00131973 0.189803 0.715631
-0.000100292 4.41034e-05 0.0228519
0.000692253 -0.0143602 0.108977
-0.00132074 0.000491692 0.0368724
1.98067e-18 7.71618e-18 6.69456e-17
-0.00537741 -0.0720582 0.70169
5.20994e-20 -5.53242e-18 -3.96831e-17
0 0 0
0 0 0
-0.0194636 0.0246358 0.398375
-0.00236783 0.0206259 0.081412
0 0 0
0 0 0
-7.49475e-18 -3.29026e-18 6.46214e-17
8.72686e-06 -0.000779923 0.00545762
0 0 0
0.00149412 0.0114834 0.0552928
0 0 0
0.00858888 0.033333 0.116299
-0.00089353 0.0080306 0.0781948
0.00275848 0.00756389 0.0256014
0 0 0
0 0 0
0.000775664 3.20006e-06 0.00790903
-0.00164285 9.08525e-05 0.0147053