# vtk DataFile Version 2.0
tet_velo
ASCII
DATASET UNSTRUCTURED_GRID
POINTS 29498 float
-0.795 0.105 -1.70172
-0.732884 0.185 1.735
-0.660423 0.565 -1.725
-0.605 0.835 1.72888
0.795 0.105 -1.70172
0.732888 0.185 1.735
0.660423 0.565 -1.725
0.605 0.835 1.72888
-0.789006 0.116955 -0.556147
-0.777713 0.134209 0.589427
-0.767109 0.78016 -0.573707
-0.743201 0.864727 0.577587
0.789011 0.116952 -0.556147
0.777722 0.134204 0.589427
0.76701 0.780061 -0.573707
0.743202 0.864727 0.577587
-1.56684 -0.276921 -2.61208
-1.5602 -0.204638 -1.69333
-1.54993 -0.188703 -0.547904
-1.51443 -0.189227 0.59637
-1.46468 -0.158884 1.7417
-1.45778 -0.129978 2.65997
-1.46726 -0.0992143 3.57913
-1.55837 0.00588136 -2.62166
-1.55126 0.100109 -1.70229
-1.55143 0.139939 -0.55575
-1.50544 0.149244 0.590274
-1.4311 0.174181 1.7367
-1.4384 0.202145 2.65506
-1.45902 0.233177 3.57402
-1.50184 0.540402 -2.64244
-1.46387 0.632276 -1.7233
-1.5202 0.791699 -0.572859
-1.47161 0.856592 0.577984
-1.35351 0.847065 1.72831
-1.39757 0.871943 2.64643
-1.44509 0.905776 3.56448
-1.46605 1.4782 -2.66929
-1.4528 1.58527 -1.7493
-1.47093 1.74982 -0.597006
-1.4762 1.86304 0.556519
-1.45642 1.90116 1.70875
-1.45425 1.91777 2.62862
-1.46763 1.94134 3.54729
-0.809177 -0.275836 -2.61171
-0.791431 -0.200412 -1.69279
-0.783045 -0.200023 -0.547976
-0.770347 -0.200445 0.595647
-0.744216 -0.156712 1.74043
-0.744414 -0.130019 2.65912
-0.752635 -0.101565 3.57863
-0.812981 -0.000452596 -2.62155
-0.741049 0.202467 2.65435
-0.752489 0.230529 3.57365
-0.7659 0.510172 -2.64314
-0.708482 0.866316 2.64654
-0.746792 0.901453 3.5645
-0.720368 1.4578 -2.66999
-0.702113 1.56629 -1.75007
-0.723386 1.74481 -0.597471
-0.747303 1.86662 0.556575
-0.746855 1.90156 1.70915
-0.748457 1.91566 2.62902
-0.759017 1.93881 3.54758
0.73237 -0.275848 -2.61171
0.782862 -0.200419 -1.69279
0.78479 -0.20003 -0.547976
0.769304 -0.200452 0.595647
0.734839 -0.156715 1.74043
0.699047 -0.130023 2.65912
0.683249 -0.10157 3.57863
0.709936 -0.000463141 -2.62155
0.673479 0.202465 2.65435
0.666346 0.230524 3.57365
0.676797 0.510159 -2.64314
0.628987 0.866314 2.64654
0.644823 0.901448 3.5645
0.754645 1.45777 -2.66999
0.774326 1.56625 -1.75007
0.766922 1.74478 -0.597471
0.718508 1.8666 0.556575
0.670038 1.90155 1.70915
0.657109 1.91565 2.62902
0.655868 1.9388 3.54758
1.50419 -0.276954 -2.61208
1.55145 -0.204669 -1.69333
1.55747 -0.18873 -0.547904
1.52666 -0.189242 0.59637
1.47134 -0.158892 1.7417
1.43088 -0.129987 2.65997
1.41177 -0.0992261 3.57913
1.48447 0.00584863 -2.62166
1.54497 0.100072 -1.70229
1.5578 0.1399 -0.55575
1.51993 0.149232 0.590274
1.44457 0.174175 1.7367
1.40193 0.202138 2.65506
1.39103 0.233166 3.57403
1.44333 0.540361 -2.64244
1.46641 0.63222 -1.7233
1.52998 0.7916 -0.572859
1.48258 0.856573 0.577984
1.35929 0.847059 1.72831
1.34785 0.871936 2.64643
1.36153 0.905765 3.56448
1.49697 1.47814 -2.66929
1.51401 1.5852 -1.7493
1.51138 1.74975 -0.597007
1.46051 1.86299 0.556519
1.3986 1.90114 1.70875
1.37714 1.91776 2.62862
1.37486 1.94132 3.54729
-0.695474 0.335 -1.68112
0 0.101173 -1.70555
-0.788718 0.114263 -1.12893
-0.689399 0.51 1.7524
1.99676e-06 0.20621 1.71379
-0.748044 0.166859 1.16221
0 0.638807 -1.79881
-0.804633 0.763447 -1.14935
0 0.888694 1.78257
-0.70059 0.876353 1.15323
0.695466 0.335 -1.68111
0.788719 0.114262 -1.12893
0.689392 0.51 1.75239
0.748022 0.166884 1.16221
0.804633 0.763447 -1.14935
0.700612 0.876374 1.15323
-0.784173 0.124769 0.01664
-0.816659 0.448558 -0.564927
2.50358e-06 0.127782 -0.556147
-0.833944 0.499468 0.583507
4.15896e-06 0.139613 0.589427
-0.758283 0.825572 0.00194001
-4.94962e-05 0.980949 -0.573707
3.5298e-07 1.21604 0.577587
0.784186 0.124758 0.01664
0.816649 0.448506 -0.564927
0.833949 0.499465 0.583507
0.758266 0.825555 0.00194001
-0.882535 0.391779 -1.13914
-0.822026 0.474013 0.00929001
-0.872599 0.504734 1.15772
1.25179e-06 0.137723 -1.12893
3.33127e-06 0.133424 0.01664
3.07786e-06 0.190226 1.16221
0 0.335 -1.91457
9.98378e-07 0.51 1.96706
-2.47481e-05 0.852768 -1.14935
-2.45716e-05 1.21051 0.00194001
1.7649e-07 1.04168 1.15323
0.882533 0.391753 -1.13914
0.822021 0.473986 0.00929001
0.872601 0.504733 1.15772
-1.17313 0.102555 -1.702
-0.793216 -0.047706 -1.69726
-0.803991 0.0522737 -2.16163
-1.08199 0.17959 1.73585
-0.73855 0.0141439 1.73772
-0.736966 0.193734 2.19468
-1.06215 0.598638 -1.72415
-0.713161 0.537586 -2.18407
-0.681268 1.06564 -1.73753
-0.979257 0.841032 1.7286
-0.656741 0.850658 2.18771
-0.675927 1.36828 1.71901
0.788931 -0.0477096 -1.69726
0.752468 0.0522684 -2.16163
1.16998 0.102536 -1.702
0.733863 0.0141426 1.73772
0.703184 0.193732 2.19468
1.08873 0.179587 1.73585
0.66861 0.537579 -2.18407
0.717375 1.06563 -1.73753
1.06342 0.59861 -1.72415
0.616994 0.850657 2.18771
0.637519 1.36828 1.71901
0.982147 0.84103 1.7286
-1.17022 0.128447 -0.555948
-0.786025 -0.0415337 -0.552061
-1.14158 0.141727 0.58985
-0.77403 -0.0331181 0.592537
-1.14365 0.785929 -0.573283
-0.745247 1.26249 -0.585589
-1.10741 0.860659 0.577785
-0.745252 1.36568 0.567081
0.786901 -0.0415392 -0.552061
1.1734 0.128426 -0.555948
0.773513 -0.033124 0.592537
1.14883 0.141718 0.58985
0.766966 1.26242 -0.585589
1.1485 0.78583 -0.573283
0.730855 1.36567 0.567081
1.11289 0.86065 0.577785
-1.56352 -0.240779 -2.1527
-1.5626 -0.13552 -2.61687
-1.18801 -0.276379 -2.61189
-1.55506 -0.19667 -1.12062
-1.55573 -0.0522643 -1.69781
-1.17581 -0.202525 -1.69306
-1.53218 -0.188965 0.0242333
-1.55068 -0.0243817 -0.551827
-1.16649 -0.194363 -0.54794
-1.48956 -0.174056 1.16903
-1.50994 -0.0199916 0.593322
-1.14239 -0.194836 0.596009
-1.46123 -0.144431 2.20084
-1.44789 0.00764844 1.7392
-1.10445 -0.157798 1.74107
-1.46252 -0.114596 3.11955
-1.44809 0.0360834 2.65752
-1.10109 -0.129999 2.65954
-1.46314 0.0669811 3.57658
-1.10995 -0.10039 3.57888
-1.55481 0.0529952 -2.16198
-1.5301 0.273142 -2.63205
-1.18567 0.00271438 -2.62161
-1.55134 0.120024 -1.12902
-1.50756 0.366193 -1.71279
-1.52843 0.144592 0.0172622
-1.53581 0.465819 -0.564305
-1.46827 0.161713 1.16349
-1.48853 0.502918 0.584129
-1.43475 0.188163 2.19588
-1.3923 0.510623 1.73251
-1.44871 0.217661 3.11454
-1.41799 0.537044 2.65074
-1.08973 0.202306 2.6547
-1.45206 0.569476 3.56925
-1.10575 0.231853 3.57384
-1.48285 0.586339 -2.18287
-1.48394 1.0093 -2.65586
-1.13387 0.525287 -2.64279
-1.49203 0.711988 -1.14808
-1.45833 1.10877 -1.7363
-1.49591 0.824145 0.00256216
-1.49557 1.27076 -0.584933
-1.41256 0.851828 1.15315
-1.47391 1.35981 0.567251
-1.37554 0.859504 2.18737
-1.40497 1.37411 1.71853
-1.42133 0.88886 3.10545
-1.42591 1.39486 2.63753
-1.05302 0.86913 2.64649
-1.45636 1.42356 3.55588
-1.09594 0.903615 3.56449
-1.45942 1.53173 -2.2093
-1.09321 1.468 -2.66964
-1.46187 1.66754 -1.17315
-1.07746 1.57578 -1.74968
-1.47357 1.80643 -0.0202438
-1.09716 1.74732 -0.597239
-1.46631 1.8821 1.13264
-1.11175 1.86483 0.556547
-1.45534 1.90947 2.16869
-1.10164 1.90136 1.70895
-1.46094 1.92956 3.08796
-1.10135 1.91672 2.62882
-1.11332 1.94007 3.54743
-0.800304 -0.238124 -2.15225
-0.811079 -0.138144 -2.61663
-0.0384031 -0.275842 -2.61171
-0.787238 -0.200217 -1.12038
-0.00428464 -0.200416 -1.69279
-0.776696 -0.200234 0.0238357
0.000872658 -0.200026 -0.547976
-0.757282 -0.178579 1.16804
-0.000521646 -0.200448 0.595647
-0.744315 -0.143366 2.19978
-0.00468874 -0.156714 1.74043
-0.748524 -0.115792 3.11887
-0.742731 0.0362238 2.65673
-0.0226832 -0.130021 2.65912
-0.752562 0.0644817 3.57614
-0.034693 -0.101568 3.57863
-0.789441 0.25486 -2.63235
-0.0515226 -0.000457869 -2.62155
-0.746769 0.216498 3.114
-0.724766 0.534392 2.65045
-0.0337847 0.202466 2.65435
-0.749641 0.565991 3.56908
-0.0430717 0.230526 3.57365
-0.743134 0.983986 -2.65657
-0.0445513 0.510165 -2.64314
-0.727637 0.883885 3.10552
-0.728469 1.39099 2.63778
-0.0397475 0.866315 2.64654
-0.752905 1.42013 3.55604
-0.0509845 0.901451 3.5645
-0.71124 1.51204 -2.21003
0.0171387 1.45779 -2.66999
-0.712749 1.65555 -1.17377
0.0361068 1.56627 -1.75007
-0.735345 1.80572 -0.0204482
0.021768 1.74479 -0.597471
-0.747079 1.88409 1.13286
-0.0143973 1.86661 0.556575
-0.747656 1.90861 2.16908
-0.0384083 1.90156 1.70915
-0.753737 1.92724 3.0883
-0.0456737 1.91566 2.62902
-0.0515746 1.93881 3.54758
0.757616 -0.238134 -2.15225
0.721153 -0.138156 -2.61663
1.11828 -0.276401 -2.61189
0.783826 -0.200225 -1.12038
1.16716 -0.202544 -1.69306
0.777047 -0.200241 0.0238356
1.17113 -0.19438 -0.54794
0.752071 -0.178583 1.16804
1.14798 -0.194847 0.596009
0.716943 -0.143369 2.19978
1.10309 -0.157804 1.74107
0.691148 -0.115797 3.11887
0.686263 0.0362209 2.65673
1.06496 -0.130005 2.65954
0.674797 0.0644769 3.57614
1.04751 -0.100398 3.57888
0.693367 0.254848 -2.63235
1.0972 0.00269274 -2.62161
0.669912 0.216494 3.114
0.651233 0.534389 2.65045
1.0377 0.202301 2.6547
0.655584 0.565986 3.56908
1.02869 0.231845 3.57384
0.715721 0.983965 -2.65657
1.06006 0.52526 -2.64279
0.636905 0.883881 3.10552
0.643048 1.39098 2.63778
0.988419 0.869125 2.64649
0.650346 1.42013 3.55604
1.00318 0.903607 3.56449
0.764486 1.51201 -2.21003
1.12581 1.46795 -2.66964
0.770624 1.65551 -1.17377
1.14417 1.57573 -1.74968
0.742715 1.80569 -0.0204483
1.13915 1.74726 -0.597239
0.694273 1.88408 1.13286
1.08951 1.8648 0.556547
0.663574 1.9086 2.16908
1.03432 1.90134 1.70895
0.656488 1.92723 3.0883
1.01712 1.9167 2.62882
1.01536 1.94006 3.54743
1.52782 -0.240811 -2.1527
1.49433 -0.135553 -2.61687
1.55446 -0.196699 -1.12062
1.54821 -0.0522985 -1.69781
1.54206 -0.188986 0.0242333
1.55763 -0.0244151 -0.551827
1.499 -0.174067 1.16903
1.52329 -0.0200053 0.593322
1.45111 -0.14444 2.20084
1.45796 0.00764117 1.7392
1.42132 -0.114606 3.11955
1.4164 0.0360754 2.65752
1.4014 0.0669699 3.57658
1.51472 0.0529602 -2.16198
1.4639 0.273105 -2.63205
1.55138 0.119986 -1.12902
1.50569 0.366146 -1.71279
1.53887 0.144566 0.0172621
1.54389 0.46575 -0.564305
1.48225 0.161703 1.16349
1.50126 0.502902 0.584129
1.42325 0.188156 2.19588
1.40193 0.510617 1.73251
1.39648 0.217652 3.11454
1.37489 0.537037 2.65074
1.37628 0.569465 3.56925
1.45487 0.586291 -2.18287
1.47015 1.00925 -2.65586
1.4982 0.71191 -1.14808
[...]
POINT_DATA 29498
VECTORS point_vectors float
-4.9663 -8.45459 13.3046
0.155131 0.421566 1.71044
-3.1946 2.35973 4.92017
-0.0860472 -0.170169 0.147043
4.9632 -8.45397 13.3194
-0.151319 0.422322 1.72003
3.19811 2.36006 4.92516
0.0863982 -0.169252 0.145017
-0.00725465 -0.000124945 0.0929649
0 0 0
-0.217243 -0.134847 0.417329
0.0174183 0.0278003 0.0894561
0.00727182 -0.000158085 0.0935715
0 0 0
0.212209 -0.132172 0.408866
-0.0173519 0.0276987 0.0893468
-0.642306 -0.354631 19.9533
-1.10289 -0.711231 20.5754
-0.379584 -0.439976 21.2888
0.121612 -0.18372 21.397
0.628213 0.107859 21.3636
0.849947 0.227602 21.0799
0.951424 0.143913 20.7346
-0.821424 -0.270218 19.8173
-1.55111 -0.606711 20.4619
-0.640742 -0.509846 21.3617
-0.00466217 -0.356779 21.49
0.771407 -0.103622 21.4494
1.06718 -0.0191236 21.06
1.05525 -0.170993 20.9234
-0.871952 0.0258073 19.674
-2.12794 0.163248 20.2197
-1.17451 -0.212305 21.3543
-0.401726 -0.34506 21.5856
0.534633 -0.638704 21.4578
0.823654 -0.675112 21.1815
0.868969 -0.606295 20.7725
-0.566408 0.381 19.8746
-0.935438 0.687538 20.2536
-0.850552 0.495267 20.9683
-0.394045 0.0967686 21.2942
-0.018458 -0.238851 21.2085
0.145717 -0.3883 20.9969
0.151202 -0.36517 20.8076
-0.795395 -0.92788 19.3569
-1.32268 -3.04047 21.2729
0.0417547 -0.249882 21.5368
0.283029 0.305595 20.921
0.42238 1.09119 20.1405
0.752152 1.47803 19.2726
0.986753 1.33295 19.2813
-1.0334 -0.76601 18.8901
1.1313 1.50785 10.8822
1.86712 1.20252 13.3035
-1.18769 0.0968573 18.4057
0.616374 -0.749691 7.72651
1.2607 -0.965799 12.7268
-0.507696 0.758129 19.4308
-0.974497 1.75428 19.8794
-1.05728 1.51197 20.9951
-0.479726 0.451139 21.6842
-0.0794277 -0.243429 21.3671
0.063846 -0.496735 21.1238
0.156382 -0.594018 20.8674
0.766532 -0.985164 19.2957
1.29763 -3.05742 21.2945
-0.0431277 -0.24895 21.5411
-0.284096 0.309381 20.9211
-0.405065 1.0924 20.1
-0.646965 1.44973 19.0356
-0.878026 1.47067 18.9052
0.987622 -0.872619 18.7117
-0.894327 1.48804 9.81789
-1.74158 1.36514 12.7986
1.1025 0.0995087 18.2629
-0.335226 -0.661226 4.9614
-1.23382 -0.969805 10.2933
0.519041 0.737587 19.4516
1.04748 1.64926 19.9108
1.07005 1.4232 21.0047
0.477943 0.463336 21.6964
0.0863176 -0.234153 21.3742
-0.052952 -0.511888 21.1129
-0.127373 -0.618921 20.8296
0.675432 -0.376535 19.8807
1.10568 -0.717026 20.5634
0.38775 -0.435439 21.2667
-0.109433 -0.182954 21.3763
-0.623401 0.0980527 21.3546
-0.866816 0.241424 21.0853
-1.00547 0.253709 20.625
0.823158 -0.307762 19.7723
1.55493 -0.607507 20.4602
0.638773 -0.509807 21.352
0.0109216 -0.34849 21.4707
-0.751565 -0.111872 21.4572
-1.1181 -0.00942713 21.0366
-1.17202 -0.144736 20.6788
0.904868 0.0212915 19.6082
2.12387 0.153095 20.22
1.15101 -0.215997 21.347
0.39121 -0.338806 21.5765
-0.527574 -0.632172 21.4494
-0.853915 -0.729035 21.2142
-0.899241 -0.653725 20.7278
0.550533 0.367256 19.8913
0.904521 0.639042 20.2735
0.830608 0.461898 20.9618
0.397773 0.106609 21.3117
0.0285302 -0.244967 21.2243
-0.134659 -0.399591 20.9935
-0.175346 -0.392886 20.8274
-0.131808 -0.0070931 0.132363
-1.25359e-05 -0.0390431 0.525801
-0.0608288 0.019168 0.294011
-0.00378706 -0.00827805 -0.00140729
-1.6218e-05 0.0016912 0.0177372
-0.00641678 0.0110301 0.212552
-8.91358e-05 0.446465 0.589983
-0.147785 0.0140492 0.583775
0.0018235 0.0192668 -0.0232256
0.0261442 0.00307844 0.157384
0.133377 -0.00728534 0.134052
0.0607635 0.0191324 0.293819
0.00321671 -0.00710242 -0.00114677
0.00630273 0.0110006 0.212171
0.15089 0.0165005 0.601454
-0.0259641 0.00321113 0.154953
2.80771e-05 0.000424843 0.027881
0 0 0
1.4493e-05 -0.00707822 0.174231
-0.000375037 0.000510872 0.00243894
-1.60998e-05 0.0272077 0.138477
0.000360968 0.00250695 0.0228609
4.05983e-06 0.00788274 0.0194787
-3.7422e-07 -0.000191529 0.00285265
-2.929e-05 0.000427159 0.0279801
0 0 0
0.000354466 0.000483339 0.00230526
-0.000363637 0.00246005 0.0223812
-0.00208193 -0.00156182 0.0427702
-5.59353e-07 1.89186e-05 0.000158532
0.00091216 0.00238985 0.0252738
-4.37355e-07 -2.06858e-06 -6.67069e-05
-1.22681e-06 9.61821e-05 0.00896832
0 0 0
0.00959673 -0.400908 0.178985
0 0 0
2.45475e-06 0.00851023 0.0461506
-1.96456e-05 0.00167624 0.015305
-8.85863e-06 0.00222924 -0.00534409
0.00207499 -0.001566 0.0426382
5.52503e-07 1.88559e-05 0.000157942
-0.000887921 0.00232535 0.0246359
-2.99755 -1.72025 20.3483
-1.92042 -5.04494 21.8008
-2.49362 -2.12272 18.1667
1.1634 0.621759 17.7021
0.0909735 1.24286 14.5129
0.571872 1.03362 7.6244
-4.53618 0.870296 19.3241
-3.09463 0.830123 16.5764
-2.29635 3.24414 19.1123
0.984728 -0.467659 15.5962
-0.520849 -0.562068 3.48177
-0.115194 -0.542514 20.7357
1.89456 -5.0795 21.8356
2.57796 -2.35769 17.8519
3.00618 -1.73659 20.3458
-0.083884 1.23132 14.446
-0.447849 0.929977 6.55837
-1.16307 0.591233 17.8152
3.12324 0.951713 16.2236
2.34998 3.05614 19.185
4.52512 0.867159 19.3286
0.695922 -0.419584 2.5094
0.0785528 -0.505208 19.8689
-0.993097 -0.470399 15.7203
-0.451801 -1.08366 21.5229
-0.216498 0.143557 16.27
0.142659 -0.312653 19.2828
0.248462 0.387826 15.2598
-1.72445 -0.753273 21.6373
-2.57621 1.89535 21.0913
-0.566387 -0.589127 20.1637
-0.922613 0.393284 22.2313
0.2157 0.143542 16.2833
0.459892 -1.07737 21.549
-0.247687 0.390098 15.259
-0.142812 -0.333092 19.5095
2.54713 1.78521 21.1205
1.71061 -0.740756 21.6359
0.925798 0.407425 22.2227
0.572672 -0.594701 20.2596
-0.942948 -0.539292 20.1455
-0.73983 -0.313923 19.8765
-0.763514 -0.58388 19.6996
-0.812366 -0.645198 21.1283
-1.35552 -0.697626 20.5318
-1.53369 -1.56568 20.692
-0.10822 -0.291397 21.3718
-0.52121 -0.508866 21.3235
-0.145912 -0.639192 21.5742
0.357789 -0.0508879 21.4301
0.0491696 -0.285926 21.4337
0.35768 -0.171048 21.5254
0.783896 0.173177 21.2297
0.691525 0.0175642 21.4142
0.864482 0.498897 21.296
0.902508 0.191655 20.8454
0.961255 0.121514 21.0243
1.1533 0.752602 20.5635
1.06889 -0.0405395 20.6829
1.3297 0.818933 20.0928
-1.22317 -0.452777 19.986
-0.851402 -0.134927 19.7297
-0.96426 -0.483449 19.4371
-1.237 -0.618937 21.1651
-1.97365 -0.333271 20.3327
-0.29294 -0.432802 21.3945
-0.918818 -0.435713 21.4034
0.340908 -0.255085 21.5692
-0.20142 -0.39775 21.5856
0.953667 -0.061605 21.307
0.778829 -0.375303 21.4467
1.06333 -0.081636 20.994
1.01809 -0.382314 21.1325
1.51507 0.602158 18.4796
0.968741 -0.428554 21.2401
1.57319 0.333904 19.2255
-1.47579 0.0903289 19.7258
-0.778706 0.267537 19.7287
-1.1254 0.047674 19.1372
-1.82237 -0.0106651 21.1381
-1.51105 0.662597 20.1865
-0.807903 -0.323535 21.4769
-1.18814 0.256584 21.1455
0.0523023 -0.436226 21.6588
-0.501713 -0.0865938 21.4806
0.691643 -0.661689 21.282
0.0931627 -0.430093 21.3487
0.879253 -0.636346 21.1083
0.338675 -0.584508 21.1317
1.10417 -0.876117 19.1407
0.385764 -0.542007 20.6599
0.983776 -0.824869 20.2937
-0.780367 0.551631 19.9819
-0.595934 0.568794 19.6545
-0.947148 0.647114 20.657
-1.09381 1.16493 20.0778
-0.665677 0.316323 21.1872
-1.03887 0.895625 21.0143
-0.173883 -0.0926424 21.2952
-0.467966 0.247349 21.494
0.081973 -0.315199 21.1392
-0.0484229 -0.252039 21.28
0.227359 -0.410012 20.9446
0.113041 -0.453207 21.0386
0.252539 -0.481407 20.9238
-1.37103 -1.99336 19.4619
-0.930567 -0.858674 19.1226
-0.0472306 -1.40629 18.7948
-0.204605 -1.03232 22.2311
-0.00792954 -3.45349 22.4413
0.144094 0.0421127 20.9735
-0.000430374 -0.30392 20.5658
0.338892 0.611821 20.2906
-0.000925254 0.285567 19.5318
0.594718 1.28745 20.0549
-0.000202948 0.760165 18.2766
0.90116 1.55685 19.4084
0.809608 1.68297 16.0869
0.00267955 1.26865 18.3552
1.33667 1.38912 16.9439
0.0379136 1.64002 17.2962
-1.17274 -0.413829 18.5074
-0.0858238 -1.27653 17.9538
1.5688 1.72537 12.7527
1.47234 0.0706606 5.95432
-0.052441 0.289065 3.80021
2.10566 0.385651 11.1563
0.0734868 1.22614 7.86969
-0.851069 0.713743 18.8824
-0.0905755 0.223199 17.2367
1.15393 -0.906158 10.943
0.11896 -0.875576 20.5782
-0.0116314 0.494043 -4.66704
0.267378 -0.990247 20.3976
0.310342 0.280005 -1.69679
-0.765051 1.30346 19.49
0.016523 0.991144 19.1748
-1.03519 1.72837 20.5423
0.0475607 2.28595 19.6935
-0.874857 1.10318 21.5289
0.0492587 2.37934 20.8778
-0.211639 -0.0039305 21.5275
-0.0135359 0.772839 21.9362
-0.0111136 -0.37741 21.2195
-0.0118298 -0.15289 21.4387
0.128129 -0.583797 20.9914
-0.00286421 -0.484592 21.1296
0.0106104 -0.491216 21.0236
1.36264 -2.11453 19.4086
0.891595 -0.941576 18.9672
0.773081 -0.627286 19.625
0.202173 -1.02618 22.2392
1.54772 -1.593 20.6834
-0.145296 0.0440485 20.9769
0.15374 -0.639971 21.5679
-0.335878 0.615163 20.2794
-0.35281 -0.176386 21.5239
-0.538447 1.29877 19.9457
-0.859914 0.498068 21.2866
-0.736859 1.54948 19.171
-0.667856 1.67921 15.6383
-1.14213 0.812314 20.5597
-1.22073 1.53558 16.4972
-1.33918 0.866272 20.0846
1.10764 -0.432185 18.3527
0.998084 -0.559718 19.3156
-1.39733 1.68439 11.7087
-1.23168 0.169887 4.18326
-1.55662 0.751073 17.6437
-2.2006 0.628209 9.04183
-1.66878 0.518806 18.6782
0.830161 0.733308 18.8449
1.15344 0.0585104 19.0225
-0.961575 -0.876376 8.05163
-0.0747516 -0.881342 20.2549
-1.14893 -0.860857 17.7914
-0.200464 -1.01407 20.2977
-1.12714 -0.836674 19.1409
0.799928 1.24207 19.5261
0.602899 0.551658 19.6717
1.07467 1.62943 20.558
1.07825 1.06644 20.1173
0.879582 1.0903 21.5242
1.02662 0.840843 21.0112
0.210642 0.00251077 21.5383
0.473519 0.260615 21.5034
0.0242856 -0.374005 21.2183
0.0532395 -0.254467 21.2975
-0.0942293 -0.596673 20.9046
-0.104821 -0.482662 21.0726
-0.253855 -0.533621 20.9929
0.979446 -0.568375 20.1071
0.756012 -0.348371 19.8276
0.805505 -0.632441 21.1165
1.33866 -0.694191 20.5361
0.109515 -0.290925 21.3604
0.525685 -0.513431 21.3103
-0.349249 -0.0539292 21.4128
-0.0391804 -0.288903 21.4162
-0.785364 0.182042 21.2178
-0.681098 0.00515133 21.4093
-0.930366 0.236246 20.7973
-1.00002 0.136876 21.0284
-1.12551 0.0817356 20.5696
1.28357 -0.497908 19.9477
0.886196 -0.156145 19.6569
1.23532 -0.624229 21.163
1.98936 -0.34657 20.3272
0.293721 -0.431108 21.3877
0.922397 -0.433765 21.391
-0.332 -0.252396 21.5533
0.207179 -0.395831 21.5659
-0.961139 -0.0696365 21.3033
-0.758492 -0.373953 21.4426
-1.12434 -0.0652145 21.0122
-1.10596 -0.408575 21.1335
-1.11362 -0.368977 20.5768
1.53326 0.105732 19.6709
0.783293 0.277488 19.7127
1.80173 -0.0202481 21.1237
1.47106 0.616988 20.2077
0.789608 -0.319229 21.4681
1.16085 0.238828 21.1359
-0.0542263 -0.434346 21.6445
0.502054 -0.0851101 21.4848
-0.697498 -0.69753 21.2512
-0.0907731 -0.435455 21.3505
-0.909222 -0.698897 21.0469
-0.333541 -0.621319 21.1616
-0.383825 -0.593852 20.7233
0.754601 0.522584 20.0091
0.924468 0.608783 20.66
0.658005 0.310357 21.1858
0.177587 -0.0919567 21.3126
-0.0734111 -0.328057 21.1477
-0.204794 -0.432189 20.9088
-1.11729 -0.510637 20.0627
-1.87765 -2.19899 18.8619
-1.26066 -1.03498 19.8502
-1.84219 -0.924044 19.4136
-0.89062 -0.541834 19.5351
-2.17655 -1.77379 20.5658
-1.02509 -0.679424 21.1582
-0.205387 -0.348012 18.2525
-0.730151 -1.1558 21.5697
-1.65504 -1.71885 22.1289
-0.179741 -0.863078 21.6461
-0.210579 -0.387768 21.379
-0.0200601 0.229282 15.2108
0.139973 -0.391434 21.5231
-0.0790344 -0.637465 20.3371
0.358484 -0.290037 21.0332
0.344303 -0.156377 21.4794
0.180951 0.638836 14.4561
0.584314 0.117673 21.473
0.467585 0.0897348 18.0688
1.04153 0.596327 20.0695
0.865439 0.0690755 21.2616
0.424101 1.4366 15.0548
1.01944 0.617606 21.1021
1.42982 0.572222 17.9274
1.35447 0.714696 20.2201
1.00339 0.0652878 20.9479
1.15384 1.8836 16.9449
1.14169 0.629394 20.4819
1.67651 0.428304 18.9566
1.45743 0.647315 20.0224
-1.43903 -0.217638 19.8258
-3.38892 -0.9956 16.5787
-2.33333 0.22831 18.7932
-1.12747 -0.277055 19.2124
-4.58229 -0.837229 19.715
-1.58879 -0.431782 21.2079
-3.19544 0.126564 22.0925
-0.930162 -0.763105 20.7838
-0.520737 -0.447089 21.4649
-1.26484 -0.894193 20.9272
-0.0842542 -0.368455 18.6108
0.233109 -0.36367 21.6704
0.344457 -0.235121 18.3843
1.29872 0.166077 14.5881
0.943145 -0.387465 21.309
0.176262 -0.491495 2.54038
0.919263 -0.746041 17.3021
1.73053 -0.212779 17.6781
1.17009 -0.363743 20.6185
2.24202 0.319174 8.52366
1.08615 -0.819255 19.9793
1.65007 -0.134593 18.1541
-1.17069 0.463144 19.8197
-1.6031 1.751 18.4974
-0.866864 0.890849 19.7628
-0.889392 0.47506 19.3565
-2.20758 1.53134 19.7787
-1.47157 0.524637 20.8233
-2.30467 2.6047 20.892
-1.14377 1.12493 20.631
-1.82103 0.643744 21.2672
-0.898984 0.0774008 21.3783
-2.32911 1.39108 22.2201
-0.812909 0.622838 21.3621
-0.764443 0.0560388 21.8165
-0.148908 -0.262232 21.4633
-0.253027 -0.285873 21.3513
-0.197685 -0.0519102 21.4184
-0.023454 -0.560356 21.5293
0.246041 -0.536961 21.2603
-0.0398542 -0.650672 20.6435
0.0473624 -0.364318 21.1798
0.273942 -0.766067 21.2153
0.400368 -0.570413 20.9393
0.289248 -1.01874 20.4731
0.155208 -0.505772 20.8383
0.416191 -0.799225 20.8773
1.87774 -2.39641 18.7319
-0.0533356 -3.55258 19.0545
-0.136696 -5.35678 15.347
-0.066144 -1.38055 18.3887
-0.0026206 -3.68434 21.8526
0.209762 -0.345485 18.2298
-0.00196682 -0.921267 22.0037
0.000828336 -0.0477675 11.9633
0.0198814 0.229863 15.2167
-0.00125298 -0.0269186 19.6897
0.000428031 0.314752 11.7107
-0.181479 0.635092 14.4204
-0.000259173 0.487855 18.5964
-0.00300255 0.567056 10.8102
-0.348631 1.38809 14.6856
-0.00378073 0.977556 18.332
-0.0727617 -0.38201 2.87789
-0.0441365 0.975957 12.1468
-0.966755 1.85335 16.6378
0.0231425 1.43092 17.3898
0.0469072 0.442789 4.73856
0.0621191 1.64093 13.6254
3.49505 -1.06435 16.1342
-0.133479 2.3196 12.942
-0.0945289 -0.65099 17.2756
0.0650843 -0.449743 1.84903
-0.0655773 0.589909 -3.92198
0.134762 -0.0560419 -3.69308
-2.12335 0.367762 6.62619
0.302723 0.860354 -4.3085
0.301032 0.521701 -1.53067
1.60553 1.73949 18.5127
0.0453419 1.70081 19.2121
-0.0234714 1.06651 18.2732
0.0664237 4.6666 18.7834
2.34804 2.47604 20.9142
0.0492371 2.38097 20.3967
0.0525416 4.35193 20.2218
2.32566 1.36886 22.2136
0.00630355 1.90606 21.7544
-0.0129672 0.84568 21.354
0.24656 -0.288022 21.2851
-0.0132845 0.107347 21.6573
-0.0146385 -0.187595 13.8399
0.0588135 -0.608817 19.902
-0.00874686 -0.326772 21.2552
-0.011652 -0.542713 14.7623
-0.242219 -0.969294 20.7796
-0.000343307 -0.691171 20.7852
-0.00687093 -0.831362 15.492
1.14007 -0.550248 20.0344
1.29901 -1.1202 19.7976
1.92558 -1.03601 19.3196
0.907352 -0.6007 19.445
2.1956 -1.806 20.5629
1.01859 -0.672611 21.1516
0.732796 -1.15757 21.5671
1.65578 -1.7159 22.1308
0.187949 -0.862249 21.6476
0.210242 -0.393393 21.3741
-0.131781 -0.39284 21.5171
0.0851376 -0.646529 20.4405
-0.352181 -0.296934 21.063
-0.332532 -0.161879 21.4552
-0.583185 0.116161 21.474
-0.471442 0.0689352 18.2902
-1.03968 0.586459 20.096
-0.871054 0.0675495 21.2622
-1.01019 0.671253 21.0566
-1.39324 0.678214 17.4132
-1.40942 0.852949 19.916
-1.03194 0.120626 20.8946
-1.15705 0.669789 20.4846
-1.78286 0.637867 17.9733
-1.54808 0.807314 19.6335
1.50365 -0.247363 19.7592
2.43775 0.287488 18.6492
1.162 -0.307749 19.0881
4.60339 -0.833882 19.7095
1.58758 -0.434789 21.1943
3.1729 0.12881 22.0689
0.946958 -0.763943 20.9026
0.525332 -0.443205 21.4471
1.25457 -0.87404 20.9735
0.0903248 -0.386252 18.8346
-0.224612 -0.363892 21.6512
-0.330539 -0.268664 18.5515
-1.29294 0.152446 14.8105
-0.962472 -0.401681 21.2925
-0.926114 -0.701707 16.5258
-1.83824 -0.171497 16.5992
-1.29811 -0.346499 20.2286
-1.25088 -0.845271 18.6304
-1.77625 -0.119158 17.2781
1.15963 0.45918 19.844
0.869841 0.836405 19.7896
0.895178 0.490025 19.3343
2.16089 1.4335 19.8249
1.41832 0.487564 20.8154
1.13937 1.05514 20.638
1.77246 0.607729 21.2628
0.8847 0.0722718 21.374
0.80972 0.614092 21.356
0.769544 0.0597122 21.8276
0.149854 -0.261266 21.4737
0.202948 -0.0454781 21.4317
0.04019 -0.565314 21.5554
-0.236834 -0.563294 21.2738
-0.0321503 -0.384592 21.2019
-0.240111 -0.813659 21.2185
-0.386795 -0.612822 20.9478
-0.146697 -0.552662 20.8798
-0.435814 -0.89832 20.8238
-1.53581 -1.04327 19.6596
-1.02545 -1.43951 21.7887
0.129522 -0.55779 21.3066
0.614731 0.0913095 20.5261
1.23949 0.643378 20.1524
1.26066 0.513123 20.5559
-2.28242 -0.47051 18.9775
-2.86977 -0.894533 22.4448
-0.381738 -0.692883 19.6306
0.377565 0.0379685 17.0885
1.46896 -0.129406 16.2835
1.9403 -0.263575 18.3428
-1.53566 0.966228 19.3205
-2.10213 1.21537 20.9278
-1.4675 0.378634 21.6825
-0.252561 -0.282535 21.7047
0.117126 -0.674184 21.3482
0.379623 -0.786574 21.0484
-0.0879943 -4.6531 17.7715
0.000544562 -0.165106 13.4633
0.00059425 0.078883 11.4109
0.000257669 0.381917 10.7854
-0.0226182 0.550426 11.064
0.0211332 1.43242 12.8807
-0.156255 -1.81696 12.0343
-0.0608562 -0.557719 -2.5906
0.303396 -0.0866828 -3.48742
0.00431795 2.80459 17.7022
0.0566366 3.93887 20.4735
0.00672872 3.92306 22.6442
-0.0133175 -0.105633 17.0616
-0.0280376 -0.221774 14.6951
-0.0148474 -0.559938 14.9004
1.62536 -1.15306 19.5672
1.02383 -1.44055 21.7931
-0.121836 -0.561623 21.325
-0.614404 0.0793518 20.5888
-1.23636 0.722362 20.003
-1.3228 0.647283 20.0821
2.43511 -0.5434 18.8196
2.86239 -0.886747 22.4298
0.396785 -0.699959 19.8149
-0.37762 0.0104427 17.3366
-1.47577 -0.0809394 15.3128
-2.10068 -0.275077 17.2477
1.53461 0.960385 19.3274
2.05721 1.13423 20.9224
1.45079 0.369926 21.6747
0.255671 -0.284774 21.72
-0.0843069 -0.689857 21.3687
-0.381734 -0.874835 21.0097
-0.0581285 -0.00449568 0.0720818
0.013367 -0.0367944 0.394075
-0.0271115 0.0080648 0.239029
0.0117195 -0.0235774 0.0220395
-0.00602864 0.00783371 0.0635245
-0.0150172 0.0144127 0.242206
0 0 0
-0.348527 1.26709 2.42059
-0.310237 0.157421 0.607335
-0.0140223 -0.0454945 0.0130547
-0.0149285 0.00659653 -0.00903904
-0.00427325 -0.0126249 0.0398
-0.0131788 -0.0371098 0.396905
0.052061 -0.00401221 0.0644873
0.0270913 0.00805636 0.238708
0.00608388 0.00825291 0.0679473
-0.0121324 -0.0240313 0.0229869
0.014446 0.0140851 0.237415
0.313011 1.12596 2.16719
6.98679e-17 2.0261e-18 4.53507e-17
0.302065 0.151416 0.587138
0.0146894 0.00693375 -0.00932427
0.0139473 -0.0470005 0.0136366
0.00413152 -0.0120616 0.0379101
-0.0561392 0.0217994 0.382583
-0.00066139 0.000415006 0.027418
0.00606783 0.0403318 0.171264
-2.81322e-06 2.83779e-05 0.00252281
-0.00743462 0.0144634 0.23726
0 0 0
-0.0103408 -0.00327007 0.182023
0.001128 0.00137654 0.0179832
-0.0512934 -0.0443187 0.142083
0.00197806 -0.0101301 0.0520446
-0.00485418 0.00793467 0.204296
-0.0687302 0.020196 0.0871714
0.0499543 0.0492924 0.184265
0.00859056 0.0220414 0.0699146
0.0104761 0.0169662 0.0755099
0.041474 -0.0118399 0.293096
0.0561329 0.0217978 0.382678
3.02782e-06 3.40681e-05 0.00304404
0.000673853 0.000421075 0.0279664
-0.00647788 0.0413198 0.175551
0.00709861 0.0144038 0.239136
-0.00112625 0.00137482 0.017945
-7.91502e-06 5.54241e-06 0.000397346
0.0102737 -0.00350112 0.180288
0.0510622 -0.0442114 0.141833
0.0686678 0.0202834 0.0873021
-0.00195119 -0.010182 0.0523879
0.00448949 0.00844249 0.203989
-0.0499299 0.0492288 0.184025
-0.0413665 -0.0117964 0.292203
-0.0084454 0.0217874 0.0687111
-0.0104713 0.0169024 0.0755011
-0.22349 -0.0632202 0.691874
-0.641257 -0.0972553 0.105111
0 0 0
0.00355274 -0.102607 -0.0172437
-6.7214e-05 0.000234229 0.00323331
-0.000222532 0.00032248 0.0111775
0.0781899 0.0653003 0.484736
-1.39078e-17 -6.13101e-18 -8.9842e-19
-7.6199e-08 2.44224e-05 0.00121747
-0.000888752 -0.0510469 -0.0183139
0.00147941 0.0037403 0.0389066
3.81043e-05 0.000129509 0.00431913
0.109651 1.12236 -0.166196
1.19472e-05 0.00438937 0.0134468
-0.0013058 0.000233374 0.0457658
0 0 0
0.00259709 0.00482524 -0.00454784
-3.5918e-05 0.000783677 -0.00585954
0.0451901 0.086583 0.70587
0 0 0
0.639288 -0.0996533 0.104768
0.225535 -0.0633032 0.697182
0.000228658 0.000332803 0.011526
8.72366e-05 0.000301891 0.00418712
0 0 0
-0.078409 0.0655215 0.487586
-4.31424e-05 0.000142039 0.00472127
-0.00147695 0.00372704 0.0388752
0 0 0
0.00128709 9.89886e-05 0.0461793
0 0 0
-0.0460093 0.0881935 0.720492
0.00113263 0.0174791 0.202518
0 0 0
0 0 0
0.000134458 0.000376888 0.0128425
-4.31957e-07 4.0064e-06 0.000193574
-8.17756e-07 -9.05416e-08 -9.11607e-06
-0.000261393 0.00264482 0.017026
-0.00178405 0.005473 0.0724559
-1.42923e-06 4.72359e-07 4.17686e-05
-5.00847e-07 5.54542e-06 0.000174017
0.0119774 0.0860486 0.454232
-0.0573656 0.0659447 0.456238
-4.45825e-05 0.00423938 0.0395898
-3.01289e-05 0.137797 0.311921
-3.79996e-06 0.00125195 0.0569221
-2.05451e-05 -0.00158601 0.00947733