# vtk DataFile Version 2.0
tri_press
ASCII
DATASET UNSTRUCTURED_GRID
POINTS 3682 float
-0.825092 0.075 -1.765
-0.795 0.115 1.8583
-0.685 0.550375 -1.705
-0.425 0.864003 1.855
0.825096 0.075 -1.765
0.795 0.115 1.8583
0.685 0.55038 -1.705
0.425 0.864003 1.855
-0.833952 0.0694428 -0.557233
-0.834258 0.0724393 0.650533
-0.716768 0.773352 -0.518333
-0.654052 0.901845 0.668333
0.833937 0.0694607 -0.557233
0.834279 0.0724193 0.650533
0.716717 0.773305 -0.518333
0.654044 0.901839 0.668333
-1.57707 -0.333114 -2.74078
-1.58171 -0.261942 -1.78301
-1.57533 -0.26356 -0.574702
-1.53384 -0.28551 0.637857
-1.47615 -0.269054 1.84653
-1.47389 -0.243012 2.80604
-1.49332 -0.21168 3.76231
-1.57414 -0.0307783 -2.71836
-1.57365 0.0651902 -1.7629
-1.56934 0.0947674 -0.558698
-1.50802 0.0945719 0.647408
-1.41406 0.10809 1.85202
-1.44099 0.133273 2.81124
-1.48108 0.164207 3.76819
-1.51425 0.532516 -2.66761
-1.46722 0.624224 -1.71128
-1.46458 0.794582 -0.521459
-1.35526 0.890385 0.666869
-1.17121 0.876937 1.8571
-1.31211 0.897066 2.81718
-1.4327 0.927713 3.77755
-1.46543 1.53675 -2.60735
-1.44146 1.65072 -1.65418
-1.42419 1.84322 -0.471198
-1.38952 1.9962 0.707236
-1.35496 2.05391 1.89044
-1.38069 2.07194 2.84407
-1.43981 2.09255 3.80213
-0.814037 -0.328951 -2.74214
-0.808016 -0.253475 -1.785
-0.808677 -0.275553 -0.574435
-0.800132 -0.301819 0.640524
-0.777279 -0.27112 1.85119
-0.793268 -0.246169 2.8092
-0.814362 -0.216239 3.76414
-0.82524 -0.0352617 -2.71878
-0.80385 0.131103 2.81385
-0.823084 0.159745 3.76958
-0.779822 0.499696 -2.665
-0.703047 0.890733 2.81677
-0.800223 0.922781 3.77746
-0.734605 1.51231 -2.60477
-0.714202 1.62676 -1.65134
-0.713541 1.83486 -0.469485
-0.713982 2.00122 0.70703
-0.710948 2.05683 1.88897
-0.740781 2.07153 2.8426
-0.791607 2.09105 3.80106
0.761501 -0.328955 -2.74214
0.817566 -0.253474 -1.785
0.827917 -0.275546 -0.574435
0.822152 -0.301831 0.640525
0.78002 -0.271126 1.85119
0.652772 -0.246173 2.8092
0.581196 -0.216244 3.76414
0.734461 -0.0352646 -2.71878
0.582982 0.131099 2.81384
0.533388 0.15974 3.76958
0.688983 0.499693 -2.665
0.455407 0.89073 2.81677
0.472935 0.922776 3.77746
0.721853 1.51229 -2.60477
0.727605 1.62674 -1.65134
0.702793 1.83484 -0.469485
0.631461 2.00121 0.70703
0.551568 2.05682 1.88897
0.517395 2.07153 2.8426
0.498364 2.09104 3.80106
1.5442 -0.333123 -2.74078
1.59583 -0.261949 -1.78301
1.60573 -0.26356 -0.574702
1.57694 -0.285527 0.637857
1.49922 -0.269068 1.84653
1.37885 -0.243023 2.80604
1.29736 -0.211692 3.76231
1.51858 -0.0307889 -2.71836
1.57822 0.0651784 -1.7629
1.5865 0.0947638 -0.558698
1.54119 0.0945526 0.647408
1.43691 0.108078 1.85202
1.30536 0.133264 2.81124
1.24191 0.164196 3.7682
1.45749 0.532502 -2.66761
1.47101 0.624202 -1.71128
1.47727 0.794538 -0.521459
1.37675 0.890367 0.666869
1.1762 0.876927 1.8571
1.14571 0.897057 2.81719
1.15555 0.927701 3.77755
1.45586 1.53673 -2.60735
1.454 1.65069 -1.65418
1.41939 1.84319 -0.471198
1.32854 1.99618 0.707236
1.22404 2.05389 1.89044
1.18143 2.07193 2.84407
1.16715 2.09253 3.80213
-0.718116 0.312687 -1.69807
1.99676e-06 0.0726268 -1.76737
-0.832596 0.069147 -1.16112
-0.624215 0.489502 1.87086
0 0.194445 1.77886
-0.826664 0.0816843 1.25442
0 0.61585 -1.77047
-0.727326 0.688305 -1.11167
0 0.872122 1.86312
-0.543571 0.886969 1.26167
0.718124 0.31269 -1.69808
0.832612 0.0691345 -1.16112
0.624396 0.489502 1.87105
0.82666 0.0816898 1.25442
0.727337 0.688321 -1.11167
0.543592 0.886991 1.26167
-0.835336 0.0697099 0.04665
-0.810187 0.421398 -0.537783
-7.61318e-06 0.0743576 -0.557233
-0.811246 0.487142 0.659433
1.06702e-05 0.0863611 0.650533
-0.690802 0.842991 0.075
-2.54567e-05 0.911311 -0.518333
-3.88805e-06 1.1032 0.668333
0.835341 0.0697069 0.04665
0.810147 0.421383 -0.537783
0.811243 0.487129 0.659433
0.690803 0.842994 0.075
-0.881611 0.367043 -1.13639
0.881612 0.367036 -1.13639
-2.80821e-06 0.0740965 -1.16112
-1.27283e-05 0.798069 -1.11167
9.98378e-07 0.312689 -1.94758
-0.825911 0.45427 0.060825
0.825907 0.454256 0.060825
1.52851e-06 0.0744158 0.04665
-1.46724e-05 1.15392 0.075
-0.892648 0.488322 1.25804
0.892654 0.488315 1.25804
5.3351e-06 0.111496 1.25442
-1.94402e-06 0.94118 1.26167
0 0.489502 1.97565
-0.726358 0.193844 -1.68629
-0.412545 0.0711243 -1.76888
-0.830034 0.0708841 -1.46306
-0.683135 0.302251 1.83811
-0.3975 0.156113 1.81719
-0.821983 0.0871914 1.55636
-0.706906 0.431531 -1.70688
-0.3425 0.59595 -1.75057
-0.727347 0.640524 -1.40833
-0.516112 0.676752 1.85444
-0.2125 0.865096 1.85609
-0.452293 0.843494 1.55833
0.412549 0.0711209 -1.76888
0.726359 0.193845 -1.68629
0.830058 0.0708635 -1.46306
0.3975 0.156126 1.81717
0.683111 0.302251 1.83809
0.82183 0.0873442 1.55636
0.3425 0.595937 -1.75056
0.706977 0.431535 -1.70695
0.727356 0.640538 -1.40833
0.2125 0.865069 1.85607
0.516014 0.676752 1.85434
0.4523 0.843501 1.55833
-0.827863 0.0747064 -0.859175
-0.834762 0.069458 -0.255292
-0.79937 0.25677 -0.547508
-0.41679 0.0722796 -0.557233
-0.83091 0.0766133 0.952475
-0.837395 0.0684767 0.348592
-0.805192 0.288571 0.654983
-0.422911 0.067825 0.650533
-0.717906 0.726688 -0.815
-0.790015 0.610644 -0.528058
-0.700099 0.804485 -0.221667
-0.374676 0.874889 -0.518333
-0.623433 0.919029 0.965
-0.757549 0.706944 0.663883
-0.672474 0.872465 0.371667
-0.367335 1.08314 0.668333
0.828825 0.073747 -0.859175
0.416781 0.0722762 -0.557233
0.834756 0.0694666 -0.255292
0.79934 0.256773 -0.547508
0.830853 0.076671 0.952475
0.422928 0.0678242 0.650533
0.837416 0.0684571 0.348592
0.805192 0.288559 0.654983
0.717907 0.726693 -0.815
0.374621 0.874859 -0.518333
0.790002 0.610629 -0.528058
0.700123 0.804513 -0.221667
0.623379 0.918977 0.965
0.367329 1.08314 0.668333
0.757552 0.706939 0.663883
0.672428 0.872422 0.371667
-0.876677 0.339865 -1.41723
-0.359057 0.312688 -1.96647
-4.05729e-07 0.0739773 -1.46424
1.49757e-06 0.192658 -1.93795
-0.870646 0.218095 -1.14875
-0.4163 0.0706474 -1.16112
-0.869767 0.488912 1.56445
-0.312107 0.489502 1.96587
2.66755e-06 0.120407 1.51664
0 0.341973 1.95614
-0.884012 0.285003 1.25623
-0.41333 0.0998428 1.25442
-6.36417e-06 0.745343 -1.44107
4.99189e-07 0.464269 -2.02175
-0.8864 0.527674 -1.12403
-0.363669 0.769139 -1.11167
-9.72012e-07 0.864703 1.56239
0 0.680812 1.93846
-0.758421 0.687646 1.25985
-0.271787 0.924858 1.26167
0.876673 0.339863 -1.41723
0.359063 0.312689 -1.96661
0.870655 0.218085 -1.14875
0.416305 0.0706459 -1.16112
0.86974 0.488908 1.56454
0.312198 0.489502 1.96519
0.884012 0.285003 1.25623
0.413332 0.0998427 1.25442
0.8864 0.527679 -1.12403
0.363662 0.769214 -1.11167
0.758185 0.687653 1.25985
0.271795 0.924711 1.26167
-0.810276 0.272164 0.0537375
-0.417484 0.0724291 0.04665
-0.875709 0.39422 -0.837088
-0.81805 0.437834 -0.238479
-5.2107e-06 0.0710183 -0.859175
-3.04234e-06 0.0743131 -0.255292
-0.820583 0.470706 0.360129
-0.895632 0.487732 0.958738
6.09935e-06 0.0801375 0.348592
8.00264e-06 0.104315 0.952475
-0.789181 0.664043 0.0679125
-0.410155 1.12795 0.075
-1.90925e-05 0.828127 -0.815
-2.00645e-05 1.06712 -0.221667
-9.28021e-06 1.15259 0.371667
-2.91604e-06 1.02922 0.965
0.810275 0.272156 0.0537375
0.417489 0.0724259 0.04665
0.875697 0.39421 -0.837088
0.818044 0.437819 -0.238479
0.820584 0.470693 0.360129
0.895631 0.487722 0.958738
0.789175 0.664035 0.0679125
0.41015 1.12797 0.075
-0.865797 0.205969 -1.44014
-0.887575 0.231757 -0.848131
-0.841068 0.562524 -0.826044
-0.881218 0.479603 -1.41278
0.865795 0.205965 -1.44015
0.881216 0.479607 -1.41278
0.841076 0.562511 -0.826044
0.887594 0.231754 -0.848131
-0.414422 0.0706019 -1.46365
0.414427 0.0706012 -1.46365
0.416635 0.0653683 -0.859175
-0.41664 0.0687877 -0.859175
-0.353085 0.69112 -1.4247
-0.361033 0.81122 -0.815
0.361004 0.811209 -0.815
0.353081 0.69121 -1.4247
-0.385801 0.193251 -1.93496
-0.350779 0.4479 -1.95643
0.350781 0.447902 -1.9566
0.385806 0.193251 -1.93609
-0.803895 0.264931 -0.246885
-0.811923 0.278273 0.35436
-0.773312 0.685467 0.365898
-0.790366 0.637727 -0.230073
0.803892 0.264922 -0.246885
0.790367 0.637721 -0.230073
0.773309 0.68546 0.365898
0.811922 0.278263 0.35436
-0.417138 0.0723533 -0.255292
0.417136 0.0723497 -0.255292
0.421586 0.0673711 0.348592
-0.421575 0.0673734 0.348592
-0.404849 1.02629 -0.221667
-0.401364 1.13078 0.371667
0.401354 1.13078 0.371667
0.404818 1.02628 -0.221667
-0.888711 0.282397 0.955606
-0.868954 0.293627 1.56041
-0.674138 0.682199 1.56139
-0.751994 0.69107 0.961869
0.88869 0.282388 0.955606
0.752028 0.691069 0.961869
0.674124 0.682203 1.56144
0.868867 0.293627 1.56045
-0.415227 0.0815201 0.952475
0.415239 0.0815345 0.952475
0.405416 0.120097 1.5365
-0.405415 0.120091 1.5365
-0.299407 1.01264 0.965
-0.242143 0.859601 1.56036
0.242148 0.8596 1.56036
0.299408 1.01264 0.965
-0.354804 0.322112 1.99199
0.354849 0.322112 1.992
0.262349 0.678782 1.92228
-0.262304 0.678782 1.92224
-0.797229 0.134422 -1.74715
-0.618819 0.0714937 -1.76851
-0.825779 0.0747261 -1.61403
-0.786355 0.208625 1.89549
-0.59625 0.160082 1.81322
-0.820299 0.0892886 1.70733
-0.695038 0.490953 -1.70503
-0.51375 0.567926 -1.72255
-0.703217 0.592493 -1.55667
-0.439053 0.770378 1.82322
-0.31875 0.8583 1.8493
-0.423685 0.838787 1.70667
0.618823 0.0714899 -1.76851
0.797229 0.134423 -1.74715
0.825793 0.0747159 -1.61403
0.59625 0.160078 1.81322
0.785989 0.208625 1.89513
0.820276 0.089311 1.70733
0.51375 0.567967 -1.72259
0.695038 0.490957 -1.70503
0.703244 0.592525 -1.55667
0.31875 0.859185 1.85018
0.439095 0.770378 1.82326
0.423658 0.83876 1.70667
-0.833856 0.0691259 -0.708204
-0.834359 0.0694485 -0.406263
-0.825379 0.158747 -0.552371
-0.625868 0.0698669 -0.557233
-0.845287 0.0618235 0.801504
-0.837932 0.0683528 0.499563
-0.794532 0.193102 0.652758
-0.631158 0.0649851 0.650533
-0.719049 0.751732 -0.666667
-0.758328 0.694466 -0.523196
-0.713633 0.794118 -0.37
-0.551848 0.836372 -0.518333
-0.634521 0.906216 0.816667
-0.70822 0.805605 0.666108
-0.663378 0.88727 0.52
-0.54304 1.05718 0.668333
0.833829 0.0691554 -0.708204
0.625858 0.0698691 -0.557233
0.834348 0.0694618 -0.406263
0.825573 0.158649 -0.552371
0.846774 0.060337 0.801504
[...]
POINT_DATA 3682
SCALARS point_scalars float 1
LOOKUP_TABLE default
-90.5673
-38.8004
-9.69246
-32.627
-90.2097
-38.5139
-9.40152
-32.4143
-36.6341
-27.7954
-44.7504
-53.066
-36.6016
-27.6762
-44.6047
-53.0553
-78.785
-157.995
-37.0875
-27.8697
-43.5942
-39.2605
-39.2605
-78.785
-128.284
-38.0721
-31.0717
-43.2415
-39.2605
-39.2605
12.1574
-123.448
-51.1805
-45.3802
-45.8556
-32.6385
-31.8652
-15.8818
-80.3083
-77.9832
-66.7509
-34.4347
-34.4347
-31.8264
36.3055
-154.368
-36.775
-31.7924
-43.2189
-33.758
-33.758
36.3055
-33.758
-33.758
139.844
-31.529
-30.3247
30.0659
-57.2908
-57.2571
-68.7226
-32.862
-32.862
-31.8264
-36.7192
-153.772
-37.0803
-28.3574
-41.9554
-33.1941
-30.8088
-36.7192
-31.9046
-29.2632
139.424
-29.6035
-29.6035
30.0516
-57.9586
-55.5959
-69.0905
-32.6711
-31.0378
-30.7122
-78.2946
-158.167
-37.0548
-27.7013
-43.4831
-39.022
-39.022
-78.2946
-128.058
-38.0402
-31.0389
-42.8553
-39.022
-33.8439
12.5197
-123.324
-51.1465
-45.4028
-45.6058
-31.8676
-29.9268
-15.7802
-80.2109
-77.9623
-66.266
-34.1708
-32.6711
-31.5885
43.3056
-105.807
-52.9978
-32.8334
-33.6924
-39.3809
15.8097
-59.0132
-31.4324
-44.278
43.2699
-52.9361
-32.552
-39.2643
-59.0328
-44.1959
-31.8042
-41.1725
-37.6115
-33.242
-37.7437
-60.8587
14.3148
-63.5934
-31.5
-41.1563
-33.2301
-60.7721
-67.1372
-67.127
-51.148
-29.1939
204.265
-37.5071
-37.5033
-33.2394
-107.261
-46.858
-46.6752
-37.0219
-41.3957
-23.4532
33.4281
-123.715
-78.3993
-34.0306
-35.3574
-42.5417
32.6635
10.0809
-70.2725
-32.3847
-31.3929
-37.0738
-123.707
33.2287
-78.3709
-35.0362
-33.7734
-42.2721
9.89578
32.7685
-70.2964
-31.3
-32.1304
-36.9919
-45.2993
-32.2874
-40.4209
-37.6341
-37.6083
-31.7956
-26.3414
-37.0515
-40.2854
-48.0572
-60.7887
5.51267
-51.5386
-46.302
-55.116
-62.6017
-45.6075
-37.6104
-32.2349
-40.3986
-37.5667
-37.0144
-31.7248
-26.3054
-40.3615
5.39704
-48.0269
-60.7937
-51.4698
-62.5779
-46.4169
-55.0288
-108.596
166.594
-65.9875
202.897
-65.0249
-52.1147
-47.8873
-29.2787
-36.7083
-23.7385
-44.3977
-37.6732
-43.9004
158.588
-67.5161
-36.7044
-36.7077
-29.2889
-50.4909
-41.663
-108.529
163.434
-65.001
-52.0326
-47.6561
-28.7182
-44.2289
-37.5474
-67.567
-36.9183
-50.3285
-41.6917
-33.7091
-33.1442
-52.656
-35.6686
-42.6988
-34.7882
-36.7198
-39.4764
-36.3213
-36.9704
-47.8999
-98.8171
-8.99308
-29.3269
-87.7327
-49.4723
-33.7071
-32.9035
-52.646
-35.6493
-36.7168
-39.3218
-47.8536
-98.7433
-105.103
-54.4866
-49.681
-118.142
-105.052
-118.064
-49.6618
-54.4742
-68.7665
-68.7184
-43.0846
-42.7404
-32.5695
-17.8301
-17.8952
-32.27
142.445
104.527
104.338
148.329
-33.786
-32.6153
-45.7826
-44.4591
-33.7638
-44.4156
-45.7346
-32.6007
-34.5082
-34.4498
-34.9637
-34.9942
-29.0873
-83.1618
-83.1141
-29.3806
-45.684
-47.3246
-40.8838
-45.4112
-45.5604
-45.401
-40.6501
-47.0541
-37.348
-37.2757
-38.0816
-38.1942
-49.6719
-36.682
-36.6489
-49.6477
-30.1385
-29.5853
-30.3562
-30.5712
-0.318051
-155.384
-106.791
-37.3923
-37.843
-43.4891
19.9467
10.9247
-39.9111
-32.3555
-31.6552
-34.3258
-155.447
-7.24916
-106.563
-37.4787
-37.067
-44.2858
11.1757
20.9978
-39.788
-31.4898
-32.0835
-34.209
-42.3933
-33.6729
-39.3758
-37.0598
-36.2865
-30.5665
-25.732
-35.7771
-39.58
-51.2979
-59.5129
-10.1519
-50.7605
-50.2281
-53.4588
-61.5949
-42.347
-37.0276
-33.6334
-39.3403
-36.2068
-35.7101
-30.5021
-25.6844
-39.2928
-9.49323
-51.2834
-59.4401
-50.7054
-61.5609
-50.2713
-53.4054
35.765
43.2164
-151.476
124.95
-107.394
-107.375
-77.6463
130.298
-62.1919
-47.9599
-63.236
-52.2731
-33.2516
-32.4245
-38.7629
-31.7277
-34.5739
-34.2793
-36.8283
-24.9583
-38.4171
-37.5161
-43.6801
-37.5132
12.8704
10.6745
-27.7087
14.0695
-67.9295
-47.9647
-68.0962
-43.4013
-31.2696
-31.2832
-34.1537
-29.5278
-40.1029
-48.5713
-47.3856
-42.3234
35.6393
43.3619
-151.456
124.906
-62.128
-47.8407
-63.2146
-52.1846
-32.9513
-32.1482
-38.4351
-31.4692
-38.2695
-37.3598
-43.5218
-37.3864
-68.025
-48.0296
-68.1199
-43.5151
-40.0582
-48.4856
-47.2424
-42.1666
-31.6692
-29.7005
-33.5579
-32.6205
-40.4256
-42.986
-44.2048
-36.541
-37.6519
-37.6297
-40.8588
-36.0076
-28.9739
-40.0212
-35.1797
-30.8509
-37.8069
-37.787
-36.4247
-37.9187
-60.7127
-57.7292
-54.0526
-85.64
11.6696
11.5059
4.49816
3.67095
-63.2242
-63.2063
-74.3119
-55.5996
-31.5867
-30.3068
-33.5662
-32.3081
-40.4085
-42.9675
-44.1915
-36.5215
-28.9452
-40.0501
-35.1771
-30.8416
-60.6409
-57.6547
-53.9829
-85.7037
-81.221
-66.7853
-67.2528
-58.167
-81.1901
-66.7646
-67.2523
-58.1612
-57.5316
-51.4722
-51.4121
-46.2205
-37.6984
-31.6666
-31.8821
-19.3379
195.173
201.064
202.919
195.206
-35.2489
-36.321
-37.6467
-41.9315
-35.2447
-36.3094
-37.6455
-41.929
-33.1518
-34.0053
-35.3766
-33.0678
-106.623
-83.2422
-100.484
-106.612
-46.3742
-45.4571
-50.4341
-45.2137
-46.1459
-45.278
-50.2732
-45.0494
-36.3026
-37.3534
-37.2652
-36.4282
-38.6383
-41.4584
-41.4457
-45.0699
-25.019
-23.2682
-26.5858
-24.5195
-154.528
119.083
-84.1825
89.9332
-99.9635
-70.7518
-43.0154
-31.5404
-37.8704
-31.2567
-48.0796
-39.6476
-100.321
101.933
-53.2002
25.4596
-104.828
-56.039
-36.676
-31.1995
-34.1236
-30.2994
-39.4881
-36.6909
-84.1446
89.6048
-154.384
119.279
-99.9378
-70.6971
-37.6267
-30.7719
-42.675
-31.2201
-47.7848
-39.5496
-51.4205
25.2524
-100.378
101.99
-104.637
-55.9651
-34.0687
-30.1137
-36.4017
-30.9807
-39.2913
-36.637
-56.5667
-42.5551
-33.7783
-33.8582
-43.8301
-35.2366
-40.9917
-35.746
-44.5345
-36.7308
-32.3768
-34.0903
-30.5892
-22.3648
-35.8839
-39.9508
-49.5541
-25.2281
-45.857
-42.1958
-51.3286
-56.4744
-6.8251
-0.30313
-48.3622
-50.2469
-44.0729
-43.5389
-50.8407
-70.5522
-72.4599
-55.4397
-56.7018
-42.9488
-40.9787
-35.7028
-33.7536
-33.7812
-43.8287
-35.2185
-44.4235
-36.6672
-35.8465
-39.917
-32.3559
-34.0268
-30.5609
-22.3209
-49.5263
-25.4974
-6.67585
-0.403287
-45.82
-42.1605
-51.3006
-56.678
-48.3089
-50.2348
-72.4301
-55.4112
-43.8728
-43.5497
-50.7514
-70.5116
-107.713
-112.133
161.869
144.074
-66.586
-66.5568
194.388
194.144
-78.8952
-56.3929
-59.0027
-46.8454
-47.1615
-46.7308
-29.5352
-29.8621
-36.9592
-37.0743
-25.1568
-24.6938
-43.454
-43.9231
-37.2565
-37.7706
-40.5858
-42.949
164.982
164.853
-59.8569
-83.2953
-39.444
-21.554
-36.717
-36.703
-29.5707
-29.7355
-45.9737
-50.7267
-45.1445
-38.8951
-107.656
-112.073
144.806
161.135
-78.8628
-56.3749
-58.9403
-46.7365
-46.5179
-46.8917
-29.0171
-29.5123
-43.3114
-43.7014
-37.1501
-37.6302
-83.3072
-59.8581
-21.732
-39.9765
-50.6666
-45.7743
-38.8669
-45.0923
-33.5633
-33.5138
-33.7251
-33.6309
-54.0372
-51.3092
-34.5988
-38.4047
-42.9309
-42.6144
-34.7568
-34.7256
-34.4265
-40.9477
-46.2298
-40.4914
-35.532
-35.5393
-36.9932
-36.9597
-47.4719
-46.1706
-70.6032
-96.0599
-10.646
-10.6333
-29.6064
-29.608
-87.2993
-87.2703
-49.6972
-49.6716
-33.5447
-33.5179
-33.6462
-34.0993
-51.2886
-54.0335
-34.5786
-38.3765
-40.9598
-34.4155
-46.0784
-40.4966
-46.1242
-47.4256
-95.981
-70.4907
-133.968
-75.8545
-80.6376
-162.26
-43.988
-44.1318
-57.8154
-54.82
-45.052
-57.609
-58.5639
-43.9519
-39.4938
-128.973
-81.8872
-90.9941
-133.717
-162.211
-80.6081
-75.8067
-39.17
-91.0137
-81.8618
-128.957
-44.9718
-43.9188
-58.5654
-57.6043
-43.988
-54.795
-57.8088
-44.1267
-92.9163
-78.5464
-57.93
-59.9163
-92.8683
-59.4655
-57.8901
-78.5219
-40.754
-40.9199
-46.3265
-46.7987
-40.7852
-46.9249
-46.4346
-40.9598
-34.2176
-50.3511
-39.6078
-35.0004
-18.437
1.76694
-18.9143
-33.8197
-18.5036
-33.9967
-19.0273
1.61329
-33.9006
-29.5555
-40.2047
-50.4672
103.703
123.438
191.007
139.8
59.7508
5.24711
198.775
115.203
59.5579
115.161
198.849
6.84924
103.811
134.436
191.067
123.548
-35.3448
-33.5065
-34.5658
-35.9112
-30.5183
-32.4579
-35.3276
-33.2108
-50.0582
-52.7832
-42.0948
-38.4893
-48.9377
-38.2566
-39.8897
-52.9447
-35.3233
-35.8929
-34.5519
-33.4849
-48.9303
-52.8056
-39.877
-38.2264
-49.9765
-38.5386
-42.0996
-52.9623
-30.4849
-33.2154
-35.3234
-32.4372
-35.1077
-35.9796
-33.9584
-33.1214
-35.0535
-33.0007
-33.9225
-35.9529
-34.8863
-36.322
-34.8318
-32.8842
-34.9502
-32.2351
-34.6587
-36.3377
-16.2199
-84.0033
-81.7942
3.80089
-67.1599
-73.9338
-100.205
-75.6837
-67.0218
-75.5746
-100.162
-73.9186
-16.0795
3.67059
-81.7385
-83.7053
-22.134
-42.2946
-44.1719
-23.1085
-42.6597
-41.2688
-44.9624
-43.0229
-35.6598
-43.3849
-50.5355
-37.7445
-48.3243
-38.4219
-46.2293
-49.139
-22.1137
-23.0729
-44.0222
-42.1547
-48.2971
-49.0519
-46.082
-38.4327
-35.4232
-37.4441
-50.2862
-43.2344
-42.3416
-42.8032
-44.7349
-40.7911
-41.4202
-38.4357
-36.6779
-36.4449
-41.3902
-36.3005
-36.6384
-38.4097
-40.2714
-36.8177
-36.6151
-37.4551
-40.5484
-37.6121
-36.6957
-36.9955
-55.8898
-45.9065
-45.0958
-55.4768
-34.0738
-34.1626
-38.7268
-39.2954
-33.9979
-39.1956
-38.7152
-34.1375
-55.8158
-55.465
-45.0852
-45.7966
-33.4508
-27.3846
-24.3802
-31.6795
-33.0272
-31.4157
-23.8895
-26.9101
-30.8348
-29.6476
-27.4418
-31.149
-31.0736
-31.3943
-27.7443
-29.7514
-40.3601
-166.84
-142.45
-39.25
-37.9236
-42.6846
6.13318
-7.17591
-43.4787
-32.5799
-32.148
-33.0572
-166.886
-39.5772
-142.368
-37.6191
-39.01
-41.4283
-7.13712
6.99553
-43.3316
-31.9458
-32.3054
-32.9175
-38.747
-34.8577
-39.3202
-36.3956
-28.3901
-30.5893
-26.644
-32.5559
-38.8006
-51.2748
-55.3656
-22.386
-51.9249
-52.1163
-53.2226
-58.4796
-38.7099
-36.3577
-34.8227
-39.2867
-28.1331
-32.4662
-30.528
-26.559
-38.3139
-21.7391
-51.2958
-55.4083
-51.8924
-58.4329
-52.0789
-53.1769
41.5743
43.2026
-40.3403
90.7442
-104.138
-104.126
-90.0881
33.7577
-56.7856
-49.9711
-60.3273
-51.9429
-32.9642
-32.5326
-34.893
-31.5784
-33.5395
-33.472
-35.6986
-27.9357
-37.8599
-37.8541
-43.0307
-37.4686
14.9449
13.4607
-17.884
24.2457
-64.0334
-53.1944
-64.7741
-50.18
-31.3035
-31.3102
-33.0255
-29.6842
-42.0013
-46.3469
-46.0542
-42.9959
41.509
43.2123
-40.4821
90.5122
-56.6881
-49.9037
-60.2929
-51.8603
-32.6745
-32.2505
-34.5756
-31.3187
-37.7536
-37.7226
-42.8894
-37.336
-64.1928
-53.2607
-64.7574
-50.2486
-41.9216
-46.2565
-45.9372
-42.8636
-31.7187
-31.5592
-33.0876
-32.5931
-40.7648
-42.0657
-44.7516
-38.1405
-37.6096
-37.5948
-38.6733
-36.7508
-30.8375
-36.2748
-34.4258
-31.8344
-37.6614
-37.6519
-36.8436
-37.6979
-61.2336
-59.1201
-57.2234
-69.3089
12.6953
12.6133
10.1758
12.2375
-63.2808
-63.2753
-68.7945
-59.3603
-31.5831
-31.974
-33.0349
-31.9791
-40.7486
-42.0493
-44.7394
-38.1233
-30.8153
-36.2881
-34.4205
-31.8173
-61.1509
-59.0427
-57.1398
-69.2248
-73.0555
-67.2055
-67.1695
-61.9674
-73.0335
-67.1879
-67.1638
-61.9584
-54.1103
-51.2338
-51.1991
-48.4552
-34.1834
-29.5143
-29.6357
-24.1428
200.611
202.065
202.343
200.626
-36.2707
-36.7592
-37.9067
-39.255
-36.2666
-36.7521
-37.9055
-39.2541
-33.1293
-33.6723
-34.0783
-33.128
-107.185
-101.954
-103.19
-107.186
-46.6724
-46.1139
-47.9752
-45.9605
-46.4723
-45.9321
-47.7894
-45.7872
-36.7278
-37.0228
-36.9933
-36.7113
-40.0383
-41.4255
-41.4194
-43.0811
-24.0761
-23.2504
-24.6202
-23.7558
18.122
32.4332
-101.374
97.953
-139.541
-115.178
-102.891
5.71346
-84.2794
-68.5427
-92.552
-70.6911
-34.3464
-33.6561
-37.0686
-32.7074
-36.7402
-35.3305
-36.353
-32.1136
-41.4549
-39.1232
-47.5977
-39.6659
26.5
38.6088
4.51257
73.1339
15.6953
11.7925
-20.1881
26.0987
-55.8769
-70.9069
-77.8048
-62.2023
-32.3914
-32.4474
-34.5753
-31.6386
-31.4665
-31.357
-32.8146
-30.5107
-35.6779
-38.5499
-38.4181
-36.7694
-139.54
-115.159
-102.877
6.47461
17.9107
32.261
-101.328
97.7848
-84.1531
-68.5391
-92.5286
-70.6383
-36.3805
-35.0332
-36.074
-31.6969
-34.0997
-33.3529
-36.784
-32.4123
-41.3258
-38.9546
-47.2726
-39.5444
15.8516
10.3281
-18.8753
25.8013
26.7972
38.7694
3.97782
73.4089
-55.8559
-70.7716
-77.8452
-62.1863
-31.339
-31.2535
-32.7501
-30.3527
-32.1381
-32.188
-34.2928
-31.411
-35.5808
-38.4753
-38.2772
-36.7055
-43.9585
-46.704
-55.0433
-41.8753
-32.8745
-31.8958
-33.6102
-33.0376
-40.5259
-40.2223
-42.9052
-36.9523
-37.509
-37.6663
-38.8829
-36.505
-41.3521
-37.9567
-42.0935
-36.1016
-30.8331
-30.2146
-32.1202
-33.4148
-25.63
-27.6129
-28.7884
-22.4889
-36.4409
-37.8551
-36.4375
-38.5255
-39.0899
-42.7154
-45.3086
-32.422
-49.843
-44.5318
-50.7086
-42.0713
-63.2294
-60.277
-55.4439
-80.0527
-0.980129
9.64527
0.74679
6.07325
-50.5208
-50.9469
-48.9106
-51.7454
-47.8877
-44.3876
-46.5016
-43.7987
-54.202
-56.2643
-53.2725
-60.9855
-62.1871
-62.9569
-66.5907
-58.6019
-44.2824
-46.5332
-55.1554
-42.2907
-37.4814
-37.6445
-38.8718
-36.4699
-32.8291
-31.8334
-33.5788
-32.9605
-40.5003
-40.2043
-42.8887
-36.9367
-41.6315
-37.7946
-42.0076
-36.0226
-36.3915
-37.8252
-36.3974
-38.4977
-30.7685
-30.1219
-32.0806
-33.3185
-25.5889
-27.5804
-28.7548
-22.4578
-39.0483
-42.7293
-45.2939
-32.5389
-0.266082
9.34795
0.253749
6.02276
-49.8167
-44.5061
-50.6744
-42.044
-63.2289
-60.2317
-55.4269
-80.1251
-50.4691
-50.8594
-48.8557
-51.7123
-62.1699
-62.9354
-66.5627
-58.5706
-48.0603
-44.4012
-46.298
-43.8233
-54.1219
-56.1917
-53.1755
-60.9192
-137.416
-94.1109
-108.472
-109.143
133.126
192.348
169.968
159.761
-69.8609
-61.4126
-66.0744
-66.0589
191.241
200.498
197.896
197.959
-64.1119
-66.1295
-71.0644
-59.9422
-52.3183
-51.7893
-55.1827
-49.2471
-45.6039
-47.8086
-47.4106
-48.0692
-30.6096
-27.0891
-29.4666
-29.1522
-38.5006
-36.5073
-36.3791
-36.4199
-23.4284
-23.414
-24.4037
-24.0596
-43.6178
-45.0182
-43.5963
-44.0401
-37.5957
-37.721
-37.5131
-37.7719
-37.8136
-42.3188
-45.0286
-46.566
88.675
205.583
160.061
159.836
-68.6002
-67.1617
-63.5725
-73.2397
-38.9045
-34.3844
-30.1739
-31.145
-35.4867
-37.593
-36.7155
-36.7083
-29.8658
-28.3897
-29.3339
-29.4203
-48.5928
-53.0829
-48.2849
-52.1512
-41.9079
-41.5208
-43.4119
-40.1604
-137.342
-94.0674
-108.41
-109.082
133.324
192.38
158.451
169.71
-64.0901
-66.1065
-71.0371
-59.923
-52.2311
-51.715
-55.1118
-49.1499
-45.2821
-47.5798
-47.8421
-47.1622
-30.1893
-26.5267
-28.9145
-28.6361
-43.4541
-44.8459
-43.442
-43.8485
-37.4836
-37.5623
-37.4073
-37.6442
-68.6401
-67.1746
-73.2437
-63.5985
-39.0727
-34.6266
-31.3339
-30.5565
-48.4108
-52.9468
-52.0401
-48.109
-41.8821
-41.542
-40.1249
-43.243
-33.4461
-34.3899
-33.5752
-33.7242
-32.8982
-33.2714
-33.4378
-32.8756
-47.8456
-55.6322
-53.3329
-51.8274
-35.7434
-35.9503
-35.0716
-36.7847
-42.5481
-44.0591
-42.6552
-42.4547
-35.3209
-34.3312
-34.7789
-34.763
-35.9531
-37.279
-35.4125
-38.7781
-29.7267
-44.2161
-44.174
-37.1661
-36.0222
-36.505
-35.5493
-35.549
-37.9921
-36.5236
-36.8959
-36.881
-51.3383
-45.1417
-47.9762
-46.951
-93.9222
-103.362
-92.2826
-97.986
-2.07175
-14.0794
-9.42374
-9.42719
-13.7121
-57.9244
-28.4685
-28.4953
-81.0343
-95.0923
-87.6779
-87.6612
-52.6625
-47.132
-49.6239
-49.6188
-33.4486
-34.3859
-33.5639
-33.73
-32.6254
-33.1176
-33.3403
-33.1916
-47.8343
-55.6313
-51.8092
-53.3258
-35.7225
-35.9345
-35.0526
-36.7631
-35.9503
-37.2771
-38.786
-35.4046
-29.6404
-44.0837
-43.9657
-37.0916
-51.2723
-45.1158
-46.9077
-47.9188
-93.8812
-103.332
-97.9104
-92.2097
-129.164
-104.081
-106.337
-90.1123
-55.25
-49.2623
-53.0354
-54.5562
-49.6859
-46.2921
-54.2242
-50.5266
-126.976
-116.632
-114.336
-100.857
-129.118
-104.036
-106.283
-90.0764
-126.85
-116.553
-114.279
-100.84
-49.6616
-46.263
-54.2108
-50.5152
-55.2481
-49.2059
-53.0449
-54.5425
-73.4087
-70.0116
-67.4805
-63.2174
-73.3621
-69.9588
-67.4403
-63.1615
-43.1891
-42.9464
-44.306
-43.1842
-42.8414
-42.4091
-44.5978
-42.8659
-41.3668
-47.0912
-31.3992
-47.9362
-21.4915
-12.743
-18.9949
-13.6648
-21.8057
-12.694
-19.1377
-13.5854
-40.1659
-47.0496
-32.5303
-48.1707
128.213
135.46
153.956
189.713
119.189
61.6755
129.134
152.579
61.5339
118.92
152.463
128.704
128.771
128.44
189.877
154.511
-33.6239
-34.2838
-33.6442
-34.197
-32.1989
-31.7791
-33.1839
-33.4663
-45.0867
-48.4274
-43.4397
-46.5314
-43.2304
-47.4693
-41.2371
-45.3744
-33.5999
-34.2632
-33.6223
-34.1763
-43.2043
-47.4304
-41.1978
-45.3419
-45.0262
-48.3495
-43.4303
-46.476
-32.1825
-31.7569
-33.1788
-33.4528
-34.2605
-35.0461
-34.0546
-34.6701
-34.9952
-34.1912
-34.6249
-33.9871
-35.3149
-34.5409
-35.2942
-34.6014
-34.5801
-35.3465
-34.6409
-35.3123
-31.7135
-12.4855
-46.5311
-29.4825
-79.8436
-78.1494
-90.9854
-86.0375
-78.1134
-79.782
-85.9956
-90.9264
-12.5745
-31.8205
-29.4738
-46.5672
-45.0611
-36.5033
-43.5907
-46.3885
-46.3341
-47.3536
-47.2455
-45.9848
-38.6587
-40.2261
-41.3518
-42.983
-47.8721
-44.132
-49.307
-43.6717
-44.9445
-36.4105
-43.4586
-46.2534
-47.8285
-44.1332
-49.2799
-43.6745
-38.404
-40.004
-41.1147
-42.7672
-46.0279
-47.1183
-46.9625
-45.748
-36.9016
-38.2817
-37.1672
-37.2292
-36.8593
-38.2296
-37.0734
-37.1801
-37.9671
-38.6529
-38.3038
-37.8799
-38.1545
-38.6985
-38.454
-38.0043
-49.8268
-52.2606
-47.3431
-49.6293
-35.4173
-36.6681
-36.7065
-37.7941
-35.3759
-36.6246
-36.6842
-37.7674
-49.8089
-52.2474
-47.3137
-49.6001
-31.2214
-30.6666
-30.0295
-26.9182
-30.1921
-30.8318
-26.3545
-29.514
-30.5407
-30.6267
-29.9816
-30.0933
-30.8478
-30.7058
-30.3707
-30.1839
-117.055
71.5362
-123.979
36.3055
-120.321
-96.2223
-37.4183
-34.1484
-38.7397
-35.4178
-43.8767
-43.139
-14.9451
66.983
-17.4307
11.9798
-40.2797
-33.6483
-34.6335
-31.606
-32.784
-31.1225
-35.2981
-34.1713
-123.958
36.4019
-116.974
71.8327
-119.908
-96.1392
-38.418
-35.0814
-37.1298
-33.8439
-43.9574
-42.9465
-17.1703
12.2333
-15.0846
67.0591
-40.154
-33.4482
-32.6646
-30.9056
-34.3517
-31.3487
-35.0985
-34.0686
-45.0355
-40.5445
-35.5502
-34.3194
-41.5189
-37.8811
-38.2929
-35.9332
-28.2759
-41.5379
-29.8239
-34.5199
-28.5016
-21.618
-34.9662
-38.4535
-44.0769
-30.2995
-49.9729
-47.9742
-54.2308
-48.8361
-14.8263
-10.6307
-49.4384
-54.7483
-50.0723
-49.2456
-52.1124
-58.8781
-64.0102
-59.2925
-45.02
-40.4767
-38.276
-35.8878
-35.5235
-34.2643
-41.4908
-37.8633
-28.1419
-41.6001
-34.8996
-38.374
-29.7808
-34.4477
-28.4637
-21.5723
-43.9416
-30.0938
-13.9594
-10.4319
-49.9137
-47.9561
-54.2168
-48.6678
-49.3845
-54.6808
-63.9758
-59.3532
-50.3215
-49.194
-52.0709
-58.8167
-69.6728
87.7033
-4.10333
91.3309
-160.831
-144.489
123.733
125.793
-91.9095
-33.9449
-91.8967
-34.6659
-77.495
-77.48
99.7827
101.06
-71.6143
-59.2353
-53.0878
-46.8163
-68.8735
-58.4967
-55.4793
-49.3586
-35.5888
-32.2604
-34.537
-31.7146
-39.3529
-38.4343
-31.4808
-31.3075
-36.9941
-30.912
-36.737
-30.5464
-36.1362
-36.1777
-24.0568
-23.928
-40.9291
-37.8036
-40.4238
-36.1346
-42.7187
-42.5567
-36.9063
-37.5589
-33.4907
20.7441
-38.9423
19.8969
-27.984
-23.8003
10.0253
8.39139
-85.4902
-58.924
-52.7799
-40.8123
-65.8202
-75.0575
-46.9883
-38.3885
-32.9855
-29.8951
-32.9573
-29.8435
-34.1687
-34.156
-29.5451
-29.6009
-42.067
-39.536
-49.5265
-46.9253
-45.2538
-48.8438
-43.9771
-40.7475
-69.751
87.832
-4.15627
91.5014
-160.823
-144.483
125.701
123.727
-71.557
-59.1593
-53.0111
-46.6806
-68.8402
-58.4701
-55.4021
-49.2523
-35.2771
-32.0087
-34.2314
-31.4674
-38.1195
-39.0287
-31.1859
-30.9986
-40.742
-37.6584
-40.2801
-36.0073
-42.5728
-42.3804
-36.7931
-37.4157
-85.6205
-58.9906
-52.7902
-40.9247
-75.0292
-65.891
-38.4973
-47.1298
-41.9484
-39.4859
-49.4429
-46.8222
-48.7176
-45.0921
-40.6537
-43.9132
-33.076
-32.3482
-31.9915
-29.9069
-33.4942
-33.4801
-32.9038
-31.7879
-43.5331
-37.5422
-46.7956
-39.3609
-44.102
-43.9586
-36.1625
-37.1517
-38.6767
-36.7432
-38.6537
-36.7184
-40.9246
-40.9634
-35.9993
-35.9845
-30.8321
-26.7809
-39.4392
-38.5523
-33.6065
-37.2013
-26.3318
-33.8892
-36.8409
-37.4088
-36.8224
-37.3874
-36.3373
-36.3442
-37.9077
-37.8964
-56.4915
-78.1682
-55.3319
-63.8686
-53.5808
-53.4613
-91.4184
-81.177
7.43226
11.2388
7.27515
11.0877
3.77006
3.82305
4.11603
4.00348
-68.302
-59.4366
-68.2841
-59.4231
-74.2265
-74.22
-55.5223
-55.5155
-33.0431
-32.212
-32.1136
-30.8905
-33.4809
-33.5041
-32.7385
-32.2811
-43.5192
-37.5259
-46.7675
-39.3367
-43.9346
-44.0935
-36.1438
-37.1281
-30.8056
-26.7413
-39.471
-38.586
-37.2185
-33.5924
-26.2943
-33.8811
-56.4556
-78.0521
-55.2507
-63.8141
-53.4045
-53.4705
-81.4053
-91.1935
-81.0395
-81.7141
-73.0848
-61.3651
-62.2472
-73.4106
-58.0397
-58.3445
-81.013
-81.6808
-73.0567
-61.3502
-73.4014
-62.2481
-58.3418
-58.034
-57.6171
-57.5955
-54.4033
-48.7388
-54.3556
-48.6597
-46.1906
-46.2645
-37.8941
-38.2353
-34.0755
-25.1022
-25.2642
-34.4617
-19.5691
-19.6281
193.057
196.706
198.092
198.181
202.136
202.138
196.754