# vtk DataFile Version 2.0
tri_press
ASCII
DATASET UNSTRUCTURED_GRID
POINTS 3682 float
-0.735 0.125 -1.91725
-0.675 0.235 2.09493
-0.715 0.645 -1.88095
-0.565 0.795 2.02725
0.735 0.125 -1.91725
0.667304 0.235 2.095
0.715 0.645 -1.88095
0.565 0.795 2.02725
-0.791176 0.0854908 -0.579857
-0.807001 0.0863319 0.757537
-0.736663 0.766663 -0.578217
-0.703942 0.833942 0.724517
0.788616 0.0854858 -0.579833
0.801885 0.0863177 0.757583
0.73667 0.76667 -0.578217
0.703956 0.833956 0.724517
-1.47887 -0.241457 -2.97175
-1.48753 -0.212265 -1.91571
-1.52352 -0.239741 -0.577419
-1.51884 -0.239144 0.767847
-1.43455 -0.140625 2.10673
-1.41096 -0.0816095 3.16564
-1.42058 -0.0457766 4.21923
-1.47768 0.065676 -2.96606
-1.48287 0.112709 -1.91381
-1.52463 0.10064 -0.582267
-1.50527 0.0973127 0.752395
-1.3785 0.183733 2.0846
-1.37398 0.240165 3.14303
-1.4008 0.27662 4.19775
-1.46804 0.644218 -2.94496
-1.46106 0.689771 -1.89127
-1.47854 0.773315 -0.583358
-1.42585 0.810876 0.7221
-1.29404 0.80353 2.03068
-1.32656 0.857591 3.09052
-1.37771 0.908299 4.15083
-1.4633 1.59346 -2.93938
-1.46011 1.65253 -1.89089
-1.45742 1.75012 -0.594209
-1.4375 1.81739 0.694994
-1.40448 1.83667 1.99203
-1.39705 1.85616 3.04127
-1.4091 1.88983 4.09779
-0.737318 -0.235026 -2.97398
-0.734188 -0.203149 -1.91897
-0.769569 -0.247488 -0.576973
-0.791494 -0.245575 0.772243
-0.735972 -0.112549 2.1144
-0.72114 -0.0615386 3.17085
-0.729856 -0.0349585 4.22225
-0.741155 0.0669077 -2.96675
-0.697986 0.260273 3.14733
-0.718341 0.286499 4.20003
-0.735667 0.626744 -2.94067
-0.661226 0.859711 3.08984
-0.703773 0.911306 4.15069
-0.731206 1.58154 -2.93513
-0.728172 1.64125 -1.88621
-0.731877 1.74893 -0.59139
-0.731132 1.82305 0.694661
-0.718582 1.83792 1.98962
-0.715178 1.85507 3.03887
-0.723972 1.88906 4.09604
0.74321 -0.235026 -2.97397
0.760574 -0.20315 -1.91896
0.786545 -0.247493 -0.576951
0.766463 -0.245584 0.772284
0.67469 -0.112553 2.11446
0.653661 -0.0615406 3.1709
0.648715 -0.0349601 4.22228
0.728845 0.066908 -2.96674
0.635842 0.260271 3.14737
0.638856 0.286498 4.20006
0.718396 0.626745 -2.94067
0.603768 0.859711 3.08986
0.626689 0.911305 4.15071
0.729872 1.58154 -2.93513
0.731087 1.64125 -1.88621
0.71965 1.74893 -0.591384
0.682968 1.82306 0.694668
0.643265 1.83792 1.98963
0.635916 1.85507 3.03888
0.638581 1.88906 4.09606
1.48631 -0.241457 -2.97173
1.50421 -0.212266 -1.91569
1.53636 -0.239746 -0.577382
1.51364 -0.239155 0.767912
1.40835 -0.140633 2.10681
1.36328 -0.081614 3.16571
1.35191 -0.0457801 4.21929
1.47138 0.0656771 -2.96605
1.48366 0.11271 -1.9138
1.52731 0.100638 -0.582235
1.51371 0.0973026 0.752455
1.38452 0.183726 2.08468
1.3378 0.240161 3.1431
1.33583 0.276617 4.19781
1.45599 0.64422 -2.94495
1.4588 0.689774 -1.89127
1.4801 0.773323 -0.583347
1.43628 0.810885 0.722122
1.30488 0.803529 2.03071
1.29392 0.85759 3.09057
1.31457 0.908297 4.15087
1.4617 1.59346 -2.93937
1.46138 1.65254 -1.89088
1.44757 1.75013 -0.594196
1.40175 1.8174 0.695011
1.34642 1.83667 1.99205
1.32979 1.85616 3.0413
1.33153 1.88983 4.09782
-0.764471 0.385 -1.93857
0 0.111093 -1.93116
-0.77889 0.0894432 -1.24855
-0.616012 0.515 2.0571
-0.00384802 0.206314 2.12365
-0.742298 0.159368 1.42623
0 0.78941 -2.02536
-0.767528 0.747528 -1.22958
0 0.874282 2.10653
-0.685652 0.865652 1.37588
0.764473 0.385 -1.93857
0.777613 0.0894376 -1.24854
0.613964 0.515 2.05894
0.735989 0.159264 1.42629
0.767495 0.747495 -1.22958
0.68563 0.86563 1.37588
-0.798285 0.0867153 0.0888399
-0.857284 0.426077 -0.579037
-0.0012802 0.0814288 -0.579845
-0.87387 0.460137 0.741027
-0.00255827 0.087311 0.75756
-0.712757 0.792757 0.07315
3.18209e-06 1.07313 -0.578217
7.07013e-06 1.24812 0.724517
0.794444 0.0867075 0.088875
0.857282 0.426078 -0.579025
0.8739 0.460137 0.74105
0.712748 0.792748 0.07315
-0.8647 0.405538 -1.23907
0.864699 0.405539 -1.23906
-0.000640099 0.0936472 -1.24855
1.59104e-06 0.901782 -1.22958
0 0.385 -2.25784
-0.862243 0.443107 0.080995
0.862242 0.443107 0.0810125
-0.00191923 0.0814535 0.0888575
5.12611e-06 1.26429 0.07315
-0.878028 0.487568 1.40106
0.878042 0.487568 1.40109
-0.00320314 0.160198 1.42626
3.53507e-06 1.09133 1.37588
-0.00192401 0.515 2.24602
-0.769784 0.255 -1.94796
-0.3675 0.110342 -1.93191
-0.772258 0.0919085 -1.5829
-0.627499 0.375 2.05801
-0.339424 0.214072 2.11588
-0.727297 0.178537 1.76058
-0.746447 0.515 -1.91647
-0.3575 0.766543 -2.00249
-0.761514 0.716514 -1.55527
-0.584802 0.655 2.03647
-0.2825 0.851013 2.08326
-0.651575 0.856575 1.70157
0.3675 0.110339 -1.93191
0.769785 0.255 -1.94796
0.771619 0.0919063 -1.5829
0.331728 0.213666 2.11632
0.624662 0.375 2.061
0.722711 0.176068 1.76065
0.3575 0.766533 -2.00248
0.746443 0.515 -1.91647
0.761529 0.716529 -1.55527
0.2825 0.851017 2.08327
0.583894 0.655 2.03751
0.651573 0.856573 1.70157
-0.787627 0.0848731 -0.914205
-0.794736 0.086097 -0.245508
-0.878546 0.228626 -0.579447
-0.396403 0.0831106 -0.579851
-0.746348 0.151152 1.09189
-0.801823 0.0873437 0.423188
-0.884304 0.2513 0.749282
-0.404133 0.0881146 0.757548
-0.761116 0.766116 -0.9039
-0.834964 0.615365 -0.578627
-0.724798 0.779798 -0.252533
-0.423391 1.03002 -0.578217
-0.704273 0.859273 1.0502
-0.848589 0.676881 0.732772
-0.705 0.81 0.398833
-0.432869 1.20284 0.724517
0.785708 0.0848684 -0.914188
0.393844 0.0831046 -0.579839
0.791536 0.0860906 -0.245479
0.878633 0.22794 -0.579429
0.740849 0.150879 1.09194
0.399018 0.0881054 0.757572
0.797343 0.0873344 0.423229
0.884253 0.250047 0.749317
0.761122 0.766122 -0.9039
0.423383 1.02999 -0.578217
0.834964 0.615368 -0.578621
0.724781 0.779781 -0.252533
0.704263 0.859263 1.0502
0.432879 1.20284 0.724517
0.848581 0.676873 0.732783
0.705123 0.810123 0.398833
-0.855924 0.395269 -1.58882
-0.382235 0.385 -2.19988
-0.00032005 0.0976572 -1.58985
0 0.248046 -2.18392
-0.86186 0.247491 -1.24381
-0.389765 0.0868579 -1.24855
-0.819907 0.501284 1.72908
-0.308968 0.515 2.22896
-0.00352558 0.168298 1.77496
-0.00288601 0.360657 2.26077
-0.866597 0.323468 1.41365
-0.372751 0.160408 1.42625
7.95522e-07 0.863791 -1.62747
0 0.587205 -2.20388
-0.870005 0.576533 -1.23433
-0.383763 0.877944 -1.22958
1.76753e-06 0.977768 1.74121
-0.000962004 0.694641 2.21531
-0.878003 0.67661 1.38847
-0.342824 1.05532 1.37588
0.855923 0.395269 -1.58882
0.382236 0.385 -2.19999
0.861867 0.247488 -1.2438
0.388486 0.0868542 -1.24854
0.819516 0.501284 1.73001
0.30602 0.515 2.22969
0.866623 0.323416 1.41369
0.366393 0.160412 1.42628
0.869996 0.576517 -1.23432
0.383748 0.877962 -1.22958
0.877954 0.676599 1.38849
0.342817 1.05533 1.37588
-0.897527 0.231279 0.0849175
-0.399527 0.0852349 0.0888487
-0.860628 0.415808 -0.909053
-0.860847 0.434592 -0.249021
-0.000960149 0.0865358 -0.914196
-0.00159972 0.0814366 -0.245494
-0.860341 0.451622 0.411011
-0.890454 0.473853 1.07104
-0.00223875 0.0835178 0.423209
-0.00288071 0.121237 1.09191
-0.834255 0.64131 0.0770725
-0.451817 1.21941 0.07315
2.38657e-06 0.913994 -0.9039
4.1541e-06 1.21318 -0.252533
6.09812e-06 1.2762 0.398833
5.3026e-06 1.18916 1.0502
0.897702 0.230228 0.0849438
0.395689 0.0852283 0.0888662
0.860531 0.415808 -0.909044
0.860845 0.434592 -0.249006
0.860365 0.451622 0.411031
0.890419 0.473853 1.07107
0.834233 0.641297 0.0770813
0.45182 1.21941 0.07315
-0.852505 0.251245 -1.58586
-0.865637 0.251637 -0.911629
-0.834714 0.586452 -0.906476
-0.852748 0.545767 -1.57204
0.852495 0.251244 -1.58586
0.852708 0.545758 -1.57204
0.834714 0.586445 -0.906472
0.865628 0.251635 -0.911616
-0.378633 0.0951056 -1.58638
0.377993 0.0950973 -1.58637
0.391077 0.0814013 -0.914192
-0.392997 0.0814011 -0.914201
-0.370632 0.843898 -1.59137
-0.376047 0.879229 -0.9039
0.376042 0.87919 -0.9039
0.370624 0.843887 -1.59137
-0.374868 0.251523 -2.13246
-0.369868 0.551103 -2.15285
0.369868 0.551103 -2.15281
0.374868 0.251523 -2.13252
-0.891855 0.228044 -0.247265
-0.894154 0.23967 0.4171
-0.831641 0.654205 0.404922
-0.835351 0.628708 -0.250777
0.891994 0.227171 -0.247243
0.835351 0.628708 -0.25077
0.831641 0.654202 0.404932
0.89432 0.238466 0.41713
-0.398391 0.0833205 -0.245501
0.395193 0.0833127 -0.245487
0.397354 0.0866663 0.423219
-0.40183 0.0866742 0.423199
-0.45871 1.16692 -0.252533
-0.451988 1.23041 0.398833
0.451995 1.23041 0.398833
0.458711 1.16692 -0.252533
-0.880086 0.298351 1.08146
-0.824348 0.349234 1.74483
-0.803176 0.665805 1.71532
-0.894357 0.661825 1.06062
0.880081 0.298322 1.0815
0.893891 0.661823 1.06063
0.802924 0.6658 1.71579
0.824088 0.349208 1.74533
-0.388765 0.121383 1.0919
0.383028 0.121385 1.09192
0.349061 0.169841 1.7678
-0.356087 0.16987 1.76777
-0.347396 1.15364 1.0502
-0.312662 0.951428 1.72139
0.312658 0.951409 1.72139
0.347399 1.15365 1.0502
-0.324196 0.367828 2.22844
0.318874 0.367828 2.22986
0.29426 0.674821 2.18188
-0.295734 0.674821 2.18146
-0.762783 0.19 -1.943
-0.55125 0.112281 -1.92997
-0.760746 0.101337 -1.75008
-0.622354 0.305 2.04757
-0.507212 0.23728 2.09266
-0.683063 0.224854 1.92776
-0.723017 0.58 -1.891
-0.53625 0.719299 -1.95525
-0.747456 0.689956 -1.71811
-0.57469 0.725 2.03165
-0.42375 0.823734 2.05598
-0.617473 0.834973 1.86441
0.55125 0.112261 -1.92999
0.76288 0.19 -1.94309
0.760522 0.10124 -1.75007
0.499516 0.234164 2.09583
0.620335 0.305 2.05235
0.679392 0.221149 1.92782
0.53625 0.719263 -1.95521
0.722849 0.58 -1.89084
0.747477 0.689977 -1.71811
0.42375 0.823743 2.05599
0.574269 0.725 2.0322
0.617473 0.834973 1.86441
-0.789392 0.0851916 -0.747031
-0.792958 0.0857922 -0.412683
-0.872816 0.138081 -0.579652
-0.593405 0.0850692 -0.579854
-0.747747 0.147669 0.924711
-0.803589 0.0876608 0.590363
-0.878165 0.15256 0.753409
-0.605405 0.0875477 0.757543
-0.7443 0.7618 -0.741058
-0.817717 0.706966 -0.578422
-0.730661 0.773161 -0.415375
-0.616124 0.970534 -0.578217
-0.706598 0.849098 0.887358
-0.787537 0.761048 0.728644
-0.704631 0.822131 0.561675
-0.619027 1.11963 0.724517
0.787151 0.0851873 -0.747011
0.590845 0.0850642 -0.579836
0.790077 0.0857865 -0.412656
0.872703 0.137173 -0.579631
0.742456 0.147509 0.924761
0.600289 0.0875368 0.757578
0.798789 0.0876507 0.590406
0.878075 0.150679 0.75345
0.744311 0.761811 -0.741058
[...]
POINT_DATA 3682
SCALARS point_scalars float 1
LOOKUP_TABLE default
-135.969
-33.9818
-45.6602
-31.2985
-135.511
-33.6523
-47.4678
-30.9226
-39.2907
-46.1183
-47.8362
-46.2096
-39.2201
-46.3686
-47.7823
-46.1743
-74.3203
-73.5057
-37.2777
-45.919
-45.4005
-33.9818
-29.8535
20.305
-85.6136
-36.9154
-42.1474
-42.1451
-30.0339
-29.5562
46.0206
-82.3246
-41.844
-37.8457
-41.708
-29.8776
-29.4407
-9.08447
-68.07
-59.9178
-56.4888
-37.8958
-31.1482
-30.2372
36.0552
-130.395
-39.1893
-46.7294
-35.1941
-29.7069
-28.0933
143.623
-29.2248
-28.4287
150.609
-28.9794
-27.7777
-41.4298
-56.5881
-47.2103
-62.5884
-34.6811
-29.374
-27.9787
35.8692
-130.096
-39.2172
-47.23
-33.617
-29.3717
-27.656
143.758
-28.8316
-27.9304
153.094
-27.2571
-27.2571
-41.9399
-56.564
-46.5303
-64.7725
-34.0103
-28.748
-27.5921
-74.5605
-73.3351
-37.2193
-46.0303
-44.9384
-33.617
-29.3861
28.4677
-85.6263
-36.8897
-42.2001
-41.6372
-33.617
-29.2486
45.978
-82.344
-41.7929
-37.7508
-41.5093
-29.5817
-29.1152
-8.38584
-67.9238
-59.6228
-56.4079
-37.6122
-30.7964
-29.4534
-56.6145
-107.378
-49.1985
-30.9329
-31.3324
-37.4174
-72.739
-48.8261
-28.7414
-46.1451
-56.8079
-49.17
-30.5439
-37.2537
-48.8152
-46.007
-38.1572
-37.6277
-40.8333
-36.8611
-44.0652
-49.5439
4.41921
-65.3469
-38.1543
-37.5914
-36.8037
-49.4881
-53.7892
-53.7706
-50.2856
-20.1066
209.359
-40.1321
-40.1069
-39.6805
-83.9511
-45.9935
-45.732
-35.9909
-41.0785
-20.6406
-43
-111.693
-72.0084
-31.7572
-32.9339
-42.4792
-42.609
-76.6733
-59.7845
-31.0044
-29.2947
-38.5717
-112.104
-43.2159
-72.2424
-32.6079
-31.3382
-41.6707
-76.7215
-43.0973
-59.6872
-29.0801
-30.6213
-38.3396
-39.3466
-38.0246
-36.4839
-40.4105
-38.1027
-39.7823
-40.7947
-44.4007
-39.1805
-40.4604
-50.6476
-1.78137
-51.7606
-37.3945
-46.3124
-62.8123
-39.2472
-40.3869
-38.0383
-36.4332
-38.0574
-44.3632
-39.773
-40.7608
-39.1686
-1.74473
-40.4159
-50.609
-51.6455
-62.767
-37.3825
-46.2722
-82.6386
167.851
-65.6166
135.969
-51.4598
-49.9148
-43.6219
-27.4152
-33.4797
-23.5244
-43.5073
-36.1936
-43.6439
161.94
-55.8302
-26.3069
-33.4967
-24.1597
-49.4354
-41.6317
-82.6224
167.856
-51.4419
-49.8601
-43.146
-26.7651
-43.2345
-36.1085
-55.8033
-26.2813
-49.2191
-41.5718
-38.7703
-39.2419
-42.8985
-39.5877
-44.4163
-39.643
-38.2295
-45.204
-41.4083
-40.6587
-43.1687
-76.9465
2.56573
-61.1945
-78.3568
-52.442
-38.7383
-39.2492
-42.8467
-39.562
-38.1997
-45.0288
-43.1402
-76.9166
-79.0861
-41.728
-41.9059
-77.7046
-79.1082
-77.7241
-41.9015
-41.6653
-66.4813
-66.6013
-44.0076
-44.0628
-45.1528
-4.94473
-4.98606
-45.1377
121.734
116.004
116.029
121.542
-37.9307
-38.8556
-40.5161
-42.6677
-37.9144
-42.6331
-40.4981
-38.8206
-39.1965
-39.1967
-40.8898
-40.8881
-56.8589
-72.1574
-72.1185
-56.7454
-41.6086
-43.8843
-43.3392
-47.4783
-41.4425
-47.272
-42.921
-43.4183
-39.9478
-39.967
-34.4418
-34.6526
-52.3866
-34.3522
-34.2558
-52.3446
-28.6219
-28.1735
-27.7008
-28.1838
-75.0662
-126.628
-85.0379
-32.8598
-33.3847
-37.5059
-39.5357
-72.4024
-72.7252
-31.134
-29.8565
-34.8711
-126.192
-74.9741
-84.8985
-33.1005
-32.4252
-36.9749
-73.2332
-40.1677
-72.5469
-29.5569
-30.7553
-34.5716
-38.8103
-38.2016
-37.341
-39.6056
-44.4925
-41.4031
-42.3079
-45.5974
-43.4841
-42.8609
-49.5551
-36.8108
-48.6877
-42.307
-45.5489
-57.5845
-38.6763
-39.5699
-38.2212
-37.176
-44.3526
-45.4119
-41.4188
-42.4138
-43.4375
-36.7425
-42.8142
-49.5137
-48.6436
-57.5127
-42.2981
-45.5171
-45.4431
-56.942
-86.4665
101.452
-107.711
-107.741
-82.4157
80.2709
-57.6581
-43.3674
-49.902
-49.3415
-31.2465
-30.8811
-35.8387
-29.4573
-31.9666
-31.6963
-33.0954
-27.3241
-38.4509
-36.4733
-41.435
-36.1341
-74.6644
-74.6869
-57.6465
83.0859
-53.8671
-41.2536
-57.5098
-34.7353
-28.9456
-28.85
-30.74
-27.1897
-42.6019
-49.1352
-48.0242
-43.4881
-45.5876
-57.0592
-86.4635
101.388
-57.5838
-43.3919
-49.8816
-49.2979
-30.8376
-30.502
-35.3838
-29.1281
-37.8813
-36.3408
-41.17
-35.9944
-53.8434
-41.2168
-57.4982
-34.717
-42.4476
-49.0415
-47.8873
-43.3942
-38.0204
-38.7569
-38.1873
-38.7171
-36.9566
-38.7481
-37.9764
-38.7656
-40.7319
-40.6803
-42.2589
-40.1443
-38.5149
-36.5162
-35.9997
-42.1745
-44.259
-44.1938
-42.3353
-44.3345
-50.3852
-48.1745
-47.7536
-63.0741
3.695
3.70818
12.5323
-17.2475
-64.8371
-64.8063
-72.8054
-58.7475
-38.0236
-38.751
-38.1575
-38.7182
-36.9156
-38.6017
-37.9285
-38.736
-38.4832
-36.4589
-35.9614
-42.0989
-50.3387
-48.1214
-47.7089
-63.0456
-66.3073
-52.7858
-54.6413
-49.5574
-66.2932
-52.7667
-54.6277
-49.5161
-56.3136
-50.1499
-50.0921
-47.3936
-33.2409
-21.4017
-21.3961
-9.89764
196.819
162.809
194.925
196.83
-39.4595
-39.9477
-39.5828
-41.2596
-39.431
-39.9229
-39.5549
-41.2339
-39.5659
-39.4489
-40.3486
-39.5549
-82.8696
-84.7363
-82.9334
-82.8528
-47.6115
-44.8927
-47.4607
-45.2951
-47.281
-44.626
-47.2144
-45.1014
-33.6544
-36.0839
-36.0273
-38.4916
-36.8313
-41.2127
-41.1853
-46.0613
-23.833
-21.2022
-21.7729
-23.0839
-86.9545
83.4239
-85.5161
42.6268
-77.748
-68.0072
-36.465
-29.7374
-35.1622
-29.9942
-44.3877
-36.3793
-81.0354
62.1849
-58.1003
60.6414
-67.9733
-51.5567
-35.7594
-29.2825
-31.4289
-28.728
-42.6583
-35.6453
-85.4722
42.2952
-86.9685
83.7115
-77.8649
-68.2615
-34.819
-29.5942
-35.973
-29.4274
-43.954
-36.0067
-58.0641
60.9073
-81.1786
62.633
-67.9726
-51.4893
-31.292
-28.3906
-35.3426
-28.9385
-42.2799
-35.4937
-40.7844
-42.8618
-37.4874
-38.5514
-35.9571
-37.2384
-41.918
-39.4697
-39.9904
-38.6564
-39.1891
-40.4872
-39.0528
-42.746
-42.3082
-44.9684
-42.0269
-18.2947
-39.2105
-41.6993
-46.8067
-67.0965
4.12314
-22.4272
-48.9143
-53.173
-37.2629
-40.3679
-44.3526
-57.4926
-67.8692
-58.46
-39.8226
-42.8076
-41.887
-39.4572
-37.4875
-38.5508
-35.8961
-37.2085
-39.8499
-38.6013
-42.2753
-44.9315
-39.1274
-40.47
-39.0386
-42.7409
-42.0297
-18.2498
4.19555
-22.1271
-39.1666
-41.6621
-46.7641
-67.0777
-48.7998
-53.1126
-67.8308
-58.4124
-37.2539
-40.3029
-44.3376
-57.4484
-81.1105
-82.7166
118.178
148.187
-65.2969
-65.4017
136.12
136.216
-63.3066
-47.5293
-56.283
-47.2572
-43.6562
-43.5933
-27.6575
-28.0722
-33.6933
-33.7914
-25.5637
-24.8431
-42.2412
-46.3579
-38.2284
-34.5632
-43.5519
-43.5445
156.83
157.058
-50.0581
-67.5666
-37.2141
-15.624
-33.7591
-33.7085
-24.9699
-25.4825
-48.0412
-47.3786
-46.463
-37.6386
-81.0946
-82.7278
148.098
118.065
-63.2883
-47.4961
-56.2701
-47.1978
-43.1626
-43.1822
-27.0564
-27.5212
-42.047
-45.9715
-38.1441
-34.3878
-67.5498
-50.0086
-15.6274
-37.1903
-47.2043
-47.7375
-37.5646
-46.4141
-38.4436
-38.8859
-39.0329
-39.8959
-42.4333
-42.9385
-38.7083
-40.7784
-44.3522
-44.4877
-39.5942
-39.5607
-38.3682
-38.8358
-43.4336
-46.6506
-41.1837
-41.0372
-40.5925
-40.5738
-42.4336
-42.9137
-76.904
-74.7853
0.134578
0.112744
-60.9809
-61.0138
-77.0508
-77.0286
-52.3812
-52.3691
-38.4216
-38.8539
-39.0327
-39.9076
-42.8892
-42.3666
-38.6852
-40.7504
-38.8108
-38.3373
-43.2776
-46.4698
-42.8864
-42.4096
-74.7487
-76.8639
-81.3157
-61.7019
-64.9875
-89.0143
-35.3166
-37.252
-48.7457
-45.7057
-41.2023
-49.3005
-50.0804
-38.3865
-80.6495
-83.3514
-67.0824
-64.7197
-81.3419
-89.0184
-64.9745
-61.6594
-80.7418
-64.6903
-67.0638
-83.3619
-41.1568
-38.345
-50.0338
-49.0566
-35.3362
-45.7281
-48.7052
-37.1999
-89.0731
-82.5824
-56.0115
-56.8343
-88.8752
-56.794
-56.114
-82.6146
-40.9844
-42.1641
-47.3923
-45.512
-41.04
-45.5613
-47.5599
-42.3051
-62.1724
-44.2442
-34.2897
-57.4036
-19.098
10.4371
-10.8231
-26.1142
-19.1091
-26.0958
-10.82
10.4351
-62.0258
-57.3999
-34.282
-44.2223
39.0148
85.8469
156.736
79.7742
46.2365
87.3685
187.204
89.9087
47.4086
90.0363
187.207
87.2639
39.2136
79.6747
156.754
85.8314
-37.1487
-37.8104
-39.1384
-38.0393
-40.1461
-37.2462
-39.1815
-38.5827
-41.941
-46.5968
-40.5471
-35.4263
-45.2198
-39.9793
-41.2303
-47.2496
-37.1572
-38.0088
-39.1113
-37.7934
-45.1821
-47.2078
-41.2044
-39.947
-41.9162
-35.3921
-40.5213
-46.537
-40.1132
-38.5448
-39.1514
-37.2126
-38.8171
-39.9376
-39.3289
-38.5034
-38.8068
-38.5003
-39.3262
-39.9474
-42.1945
-42.2937
-40.2214
-39.4006
-42.2429
-39.4015
-40.2139
-42.2727
-58.5162
-68.8517
-82.2276
-16.3148
-56.8743
-71.5855
-81.253
-59.8124
-56.8259
-59.7449
-81.2337
-71.5648
-58.4554
-16.292
-82.1972
-68.7807
-45.7606
-39.8247
-43.9944
-42.4574
-36.8867
-36.1433
-46.8445
-45.7949
-36.177
-46.3745
-48.4184
-35.9192
-46.9339
-39.9234
-46.6249
-48.7468
-45.6588
-42.3878
-43.795
-39.6266
-46.9191
-48.622
-46.4334
-39.8577
-35.7849
-35.4688
-48.0959
-46.1478
-36.3426
-45.4712
-46.5014
-35.6842
-44.8838
-44.3991
-38.4688
-37.4356
-45.1459
-37.3313
-38.4458
-44.3631
-37.065
-33.3785
-33.8187
-35.6926
-37.8051
-35.9305
-33.8776
-33.541
-56.9371
-48.1608
-46.0975
-58.8053
-32.4521
-30.9702
-37.0791
-39.2135
-32.2347
-39.0956
-37.0454
-30.8969
-56.7775
-58.779
-46.0724
-48.085
-30.9619
-28.2229
-24.6332
-29.4625
-30.5939
-29.1536
-23.9357
-27.9449
-29.0214
-27.412
-23.4722
-29.0795
-29.3505
-29.4196
-24.1574
-27.6739
-98.214
-141.406
-99.169
-33.6409
-33.5157
-35.134
-41.7609
-49.4816
-88.2014
-31.2342
-30.3193
-33.0649
-141.228
-98.1538
-99.1863
-33.3019
-33.3619
-33.2066
-55.0159
-43.2131
-87.1068
-29.9757
-30.864
-32.7301
-39.4209
-38.7151
-37.1531
-39.1705
-52.6901
-42.6147
-42.7234
-46.3442
-46.1528
-44.8617
-48.7723
-58.1582
-47.3663
-44.9444
-45.4781
-49.8961
-39.3055
-39.1344
-38.7314
-36.7698
-52.4482
-46.2531
-42.7479
-42.9651
-46.0809
-58.0609
-44.811
-48.7352
-47.3311
-49.859
-44.9203
-45.4386
-60.4257
-57.3711
-94.9973
59.2422
-107.247
-107.158
-93.5539
-60.3247
-52.5201
-46.2537
-49.4498
-49.082
-31.085
-30.8478
-33.1128
-29.8198
-31.5318
-31.3859
-33.1507
-28.53
-37.6751
-36.4532
-39.503
-36.6603
-71.9851
-72.0044
-66.6602
-36.8422
-53.1487
-44.4421
-54.8071
-41.4327
-28.859
-28.8147
-29.6954
-28.1297
-44.1132
-47.3828
-46.54
-45.3494
-60.6443
-57.5179
-94.9854
59.3038
-52.5119
-46.236
-49.4264
-49.0343
-30.6858
-30.4678
-32.6729
-29.4971
-37.249
-36.3124
-39.2433
-36.4536
-53.1863
-44.3879
-54.8334
-41.4033
-43.9659
-47.2618
-46.3993
-45.2382
-38.0792
-38.4649
-37.8389
-38.402
-37.2302
-38.1239
-37.329
-38.4166
-40.9166
-40.729
-41.3484
-40.5991
-37.6567
-36.3315
-36.3131
-39.3311
-44.1121
-44.0213
-43.1183
-44.5569
-50.1671
-48.8348
-48.9851
-54.0213
3.97826
3.98982
11.3589
-6.0894
-65.2859
-65.2717
-69.1835
-61.8561
-38.093
-38.4613
-37.7966
-38.3985
-37.1926
-38.0861
-37.2886
-38.3835
-37.6108
-36.268
-36.2651
-39.2678
-50.1172
-48.7786
-48.9475
-53.9644
-59.2533
-53.313
-54.2407
-51.3231
-59.2364
-53.2936
-54.2242
-51.2953
-53.0078
-50.1573
-50.2734
-48.7108
-26.45
-20.4506
-20.4483
-14.9962
201.109
191.153
203.786
201.16
-39.7483
-40.1026
-39.9256
-40.578
-39.7208
-40.0784
-39.8984
-40.5538
-39.6274
-39.5146
-39.9594
-39.6306
-83.7367
-85.5243
-83.4617
-83.7251
-46.7884
-45.3335
-46.7963
-45.3334
-46.4958
-45.0698
-46.5423
-45.1057
-34.3887
-36.0198
-35.9899
-37.1719
-38.8605
-41.1761
-41.1601
-43.4772
-21.9227
-21.0283
-20.9676
-21.4256
-49.5431
-42.4343
-121.387
73.5228
-117.978
-108.472
-98.504
-27.5058
-78.8863
-65.2737
-76.8666
-69.1693
-32.2107
-31.4564
-34.1922
-30.4387
-32.9991
-32.6125
-34.749
-31.2875
-40.7428
-40.7158
-44.9201
-37.9696
-40.6198
-54.1664
-82.7344
25.8317
-81.4423
-76.2736
-69.3894
-6.71166
-64.881
-56.2787
-62.7869
-54.9516
-31.042
-30.9192
-33.0696
-29.8762
-29.4697
-29.055
-30.1289
-28.9064
-36.7872
-40.5368
-40.0375
-36.8202
-117.399
-108.421
-98.4683
-28.1126
-49.6949
-42.5998
-121.408
73.5451
-79.2926
-65.1856
-77.0776
-69.4386
-32.6612
-32.2322
-34.354
-30.8724
-31.7247
-31.0397
-33.6855
-30.0785
-40.0931
-39.9833
-44.4239
-37.5095
-81.4614
-77.1971
-69.3652
-6.51944
-41.0124
-54.1395
-82.4254
25.5743
-64.7197
-56.2049
-62.7277
-54.8542
-29.2091
-28.8986
-29.95
-28.6275
-30.6608
-30.5395
-32.6597
-29.5395
-36.5242
-40.3367
-39.7775
-36.6339
-38.8171
-40.5782
-38.8184
-41.5501
-38.1404
-37.887
-37.3969
-38.2393
-36.5705
-36.6761
-36.2216
-37.0178
-40.0731
-40.5323
-41.2677
-39.7909
-39.3549
-36.9948
-39.5533
-38.316
-40.3955
-39.069
-39.1873
-40.1417
-41.7684
-39.777
-39.9505
-42.7166
-44.8559
-44.3407
-43.2695
-45.1805
-40.863
-39.4492
-41.4227
-28.1253
-41.6597
-39.4506
-39.5634
-41.1785
-50.3417
-50.7916
-49.0618
-57.5414
-12.0509
1.82711
3.52256
-11.633
-50.3937
-50.3641
-51.0972
-53.7705
-39.3615
-37.066
-36.1569
-38.1705
-45.7887
-47.0897
-45.4558
-50.3614
-62.5384
-63.8811
-65.7421
-60.2302
-38.7647
-40.5127
-37.652
-41.4919
-40.0461
-40.5154
-41.2353
-39.7786
-38.1498
-37.9006
-37.388
-38.2369
-36.5171
-36.6291
-36.1436
-36.9892
-39.3742
-36.8849
-39.4562
-38.3268
-44.7371
-44.2681
-43.2222
-45.1559
-40.3954
-39.0592
-39.1117
-40.1265
-41.777
-39.7451
-39.9582
-42.6856
-40.8743
-39.4264
-41.4087
-28.0711
-11.9317
1.85765
3.52124
-11.6077
-41.6121
-39.4104
-39.5192
-41.1372
-50.3078
-50.7468
-49.0218
-57.5029
-50.3352
-50.3368
-51.0102
-53.6784
-62.4916
-63.8419
-65.6997
-60.1813
-39.3738
-37.0262
-36.1491
-38.1177
-45.767
-47.0317
-45.4228
-50.3097
-87.9659
-74.1591
-81.5023
-82.995
133.76
180.453
148.797
160.805
-72.5119
-60.8222
-65.5904
-65.7494
121.62
128.232
137.377
137.317
-50.6938
-52.2241
-56.7031
-49.0996
-49.627
-50.0595
-52.7868
-48.5971
-39.1371
-46.754
-43.6164
-43.6949
-28.9923
-25.4904
-27.4362
-28.0999
-33.4645
-33.6692
-33.5322
-33.5892
-25.496
-22.1703
-23.9638
-23.5986
-42.6856
-44.221
-42.8826
-44.8657
-36.0264
-36.1746
-37.2281
-35.0817
-50.7636
-39.1012
-43.4464
-43.4476
130.401
180.163
162.069
162.062
-56.9832
-54.9136
-53.3894
-60.874
-29.8043
-23.2134
-31.9522
-20.9193
-32.119
-35.0376
-33.5796
-33.6002
-25.7577
-22.7681
-24.1847
-24.4826
-49.4317
-48.6259
-49.5572
-47.9367
-42.3216
-41.3553
-44.0034
-39.5582
-87.9735
-74.1505
-81.4842
-83.0036
133.744
180.487
160.729
149.009
-50.6753
-52.2058
-56.6853
-49.0814
-49.5787
-49.9894
-52.7739
-48.5315
-38.6701
-46.3393
-43.2443
-43.1355
-28.5564
-24.7182
-26.7617
-27.5157
-42.4122
-43.9502
-42.651
-44.5465
-35.9509
-36.099
-37.151
-34.9712
-56.9553
-54.8967
-60.8554
-53.3825
-29.7697
-23.2022
-20.9052
-31.9298
-49.253
-48.3803
-47.7352
-49.3104
-42.2482
-41.3099
-39.4866
-43.9498
-38.5378
-39.1199
-38.6156
-38.9005
-39.019
-39.4096
-39.1174
-39.5481
-39.9712
-46.2548
-42.6732
-43.0721
-39.1733
-39.812
-39.1178
-40.0662
-43.2088
-45.8091
-44.332
-44.5463
-39.7977
-39.488
-39.6865
-39.5695
-37.026
-39.0161
-38.2282
-38.4184
-43.9946
-45.5082
-44.3518
-45.9923
-41.7688
-40.9403
-41.4551
-41.1607
-42.2054
-39.7433
-40.6539
-40.6513
-45.264
-42.0882
-42.6272
-43.0511
-69.7448
-81.1776
-79.5208
-75.3469
8.79274
-3.63304
1.65253
1.49936
-29.8035
-78.0935
-62.2758
-62.2819
-76.0946
-80.8832
-78.2673
-78.2563
-55.8371
-48.9628
-52.3266
-52.3084
-38.5079
-39.0904
-38.5892
-38.8704
-39.0231
-39.4217
-39.1228
-39.5581
-39.9117
-46.2136
-43.0236
-42.6128
-39.1469
-39.7876
-39.0917
-40.0399
-36.9946
-38.9864
-38.3908
-38.1972
-43.8685
-45.3335
-44.1835
-45.8122
-45.2286
-42.0619
-43.0273
-42.6002
-69.692
-81.1469
-75.3072
-79.484
-83.2706
-78.0722
-79.6124
-71.2166
-41.2941
-37.8795
-44.5009
-42.0299
-41.8763
-39.7482
-46.0313
-42.6801
-81.5241
-72.9487
-80.7917
-74.2802
-83.2921
-78.1331
-79.6219
-71.203
-81.5789
-72.9667
-80.8097
-74.2491
-41.9037
-39.698
-46.0252
-42.6452
-41.2247
-37.8212
-44.3957
-41.9549
-74.304
-67.4911
-65.8964
-61.0966
-74.3909
-67.6783
-65.9516
-61.1156
-43.6413
-42.8133
-45.3752
-44.2464
-43.7037
-42.8645
-45.4236
-44.303
-51.3031
-47.2746
-44.2619
-42.0047
-9.71712
0.769965
-10.7243
-2.17563
-9.70265
0.940889
-10.7214
-2.16674
-51.3012
-47.2312
-44.2475
-41.9677
110.023
101.883
121.323
127.458
94.9395
89.9713
133.986
142.569
90.1887
95.4456
142.552
133.952
101.76
109.979
127.779
120.897
-37.6897
-37.6382
-38.0482
-38.2868
-39.081
-38.8286
-38.8692
-38.6307
-39.2459
-42.6629
-39.3914
-41.551
-42.243
-44.1727
-41.6998
-42.8514
-37.6832
-37.6197
-38.0256
-38.2654
-42.2064
-44.1316
-41.6701
-42.8203
-39.2348
-42.7648
-39.3701
-41.5384
-39.0403
-38.7999
-38.836
-38.5984
-38.9164
-39.2298
-39.0644
-39.4352
-39.2151
-38.9114
-39.4358
-39.0614
-41.5397
-40.7305
-41.0116
-40.3091
-40.7394
-41.5516
-40.2996
-40.9857
-65.1159
-31.5181
-74.8059
-57.9025
-65.9682
-70.3156
-73.6402
-75.2649
-70.2768
-65.9784
-75.233
-73.6038
-31.5316
-65.1001
-57.9681
-74.7873
-40.7786
-41.7025
-42.2743
-42.5695
-40.1228
-43.9108
-43.7105
-46.2019
-39.3178
-43.8073
-43.2805
-46.3015
-47.3241
-43.7294
-47.8801
-47.5848
-40.6087
-41.5809
-42.1038
-42.4106
-47.1514
-43.682
-47.6808
-47.3688
-38.8934
-43.4048
-42.8672
-45.935
-39.5902
-43.4463
-43.2553
-45.7994
-39.1899
-41.7579
-39.2299
-40.4357
-39.1395
-41.8084
-39.2133
-40.4126
-34.605
-35.0523
-33.9828
-34.414
-34.8632
-35.3237
-34.1412
-34.583
-52.7096
-55.886
-49.1073
-52.3269
-32.8438
-34.8405
-34.0653
-35.9013
-32.7241
-34.7154
-33.9812
-35.8186
-52.6603
-55.8393
-49.0621
-52.2931
-29.3542
-29.3117
-28.1249
-26.9857
-28.8812
-29.0172
-26.413
-27.555
-27.991
-28.4146
-26.3833
-27.4696
-28.8305
-28.4005
-28.005
-26.9495
-113.724
53.236
-107.086
9.17443
-78.9733
-90.6134
-34.9378
-31.6421
-35.8293
-32.0749
-37.0696
-38.5991
-79.8714
9.0607
-74.26
-0.0900261
-78.2605
-69.375
-33.2948
-29.9976
-31.0849
-29.4906
-36.1428
-33.3758
-106.97
9.20325
-113.659
53.0375
-78.9347
-90.4057
-35.28
-31.7607
-34.2133
-31.2401
-36.5082
-37.9775
-74.1521
0.26245
-79.7186
10.8562
-78.2078
-69.1116
-30.8266
-29.1684
-32.8926
-29.6456
-35.7711
-33.1233
-36.1699
-40.5262
-37.3611
-38.4875
-36.1241
-37.164
-40.1368
-39.1798
-46.2139
-44.6745
-40.5396
-41.9466
-41.5881
-48.7071
-43.6071
-48.0543
-42.1451
-38.0388
-41.6563
-44.6363
-47.5952
-59.5272
-25.938
-45.5071
-48.9104
-50.0462
-41.5616
-44.6748
-44.3264
-49.5399
-56.4964
-56.9118
-36.1053
-40.4523
-40.0932
-39.1603
-37.3759
-38.4814
-35.8993
-37.2103
-46.0688
-44.8574
-43.5258
-47.7025
-40.4384
-41.9218
-41.5046
-49.2019
-42.0911
-38.0647
-25.9219
-45.4682
-41.6062
-44.5911
-47.5592
-59.4849
-48.8422
-50.0097
-56.4291
-56.8396
-41.5584
-44.5176
-44.2992
-49.4949
-111.123
66.1839
-82.1754
44.9697
-88.6616
-85.7098
98.42
98.1264
-93.8039
-67.7723
-93.793
-67.4329
-82.3537
-82.4141
65.5594
65.329
-60.0953
-57.1987
-44.5465
-44.5033
-55.1545
-47.3682
-52.6278
-47.2046
-33.6401
-30.01
-32.9387
-29.9884
-35.8961
-35.7364
-29.4652
-29.4949
-33.5725
-29.3341
-33.3622
-28.8898
-33.1507
-33.1883
-27.706
-27.3731
-44.3949
-36.7145
-38.2465
-36.8274
-40.7143
-43.3936
-36.8136
-36.0008
-66.9703
-20.3309
-66.9918
-20.2052
-57.0384
-57.0237
86.0184
85.9851
-59.4043
-47.9603
-47.0448
-34.7918
-54.0604
-61.5171
-39.8982
-29.1749
-29.7897
-28.3235
-29.7055
-28.176
-30.8252
-30.7855
-27.151
-27.276
-44.5214
-40.7779
-49.3836
-49.5524
-47.8702
-48.1309
-45.8118
-41.2886
-111.152
66.3151
-82.1827
44.8839
-88.6676
-85.7051
98.1804
98.3473
-60.0359
-57.1536
-44.6014
-44.4787
-55.132
-47.3644
-52.5857
-47.1636
-33.1592
-29.6576
-32.5135
-29.6579
-35.2798
-35.4333
-29.1419
-29.1584
-43.957
-36.4049
-38.1051
-36.6652
-40.4864
-42.9794
-36.6887
-35.792
-59.3635
-47.9319
-47.0669
-34.7649
-61.5081
-54.0455
-29.1378
-39.8906
-44.2737
-40.6338
-49.2663
-49.46
-47.9862
-47.6444
-41.1836
-45.7292
-37.6062
-38.1873
-38.3323
-39.0988
-37.9792
-38.3866
-38.5898
-39.0373
-36.7514
-37.7578
-38.3105
-39.4274
-37.7019
-38.0877
-38.3666
-39.2326
-41.5445
-40.2832
-41.4271
-40.2922
-42.2028
-42.2855
-40.0733
-40.1042
-37.3022
-41.2351
-35.1826
-37.7151
-36.6278
-35.4474
-42.5364
-41.4482
-43.0901
-44.8159
-43.0769
-44.7576
-42.3618
-42.297
-44.391
-44.3058
-49.6218
-55.8167
-47.7251
-51.9796
-46.986
-47.786
-66.1157
-62.3778
9.4757
-6.66977
9.49028
-6.63499
11.8543
11.8581
-17.105
-17.0934
-68.2293
-61.3471
-68.2039
-61.3214
-72.2114
-72.2003
-58.8028
-58.7861
-37.5805
-38.1857
-38.2823
-39.0835
-37.9575
-38.3524
-38.5919
-39.0331
-36.7033
-37.7209
-38.2678
-39.3945
-38.0428
-37.6521
-38.3364
-39.2021
-37.2748
-41.1652
-35.1374
-37.6643
-35.4104
-36.5897
-42.4599
-41.3889
-49.5887
-55.7619
-47.6784
-51.9231
-47.7444
-46.9391
-62.3197
-66.0146
-65.6531
-66.6643
-58.0923
-50.3972
-52.2811
-60.1112
-49.2239
-49.8209
-65.6401
-66.6478
-58.0754
-50.3708
-60.0929
-52.2757
-49.7655
-49.1827
-56.1014
-56.3715
-52.688
-48.85
-52.661
-48.6337
-47.3029
-47.6395
-33.5578
-33.5537
-27.5818
-16.24
-16.2356
-27.5757