# vtk DataFile Version 2.0
tri_press
ASCII
DATASET UNSTRUCTURED_GRID
POINTS 3682 float
-0.764053 0.195 -2.055
-0.775 0.435 2.23365
-0.735494 0.685 -2.135
-0.775 0.905 2.21915
0.764054 0.195 -2.055
0.775 0.435 2.23365
0.735 0.685 -2.13553
0.775 0.905 2.21915
-0.765429 0.277273 -0.62545
-0.84538 0.280971 0.8041
-0.787499 0.79717 -0.683617
-0.767285 0.83712 0.767767
0.765429 0.277273 -0.62545
0.84466 0.281691 0.8041
0.787412 0.797412 -0.68397
0.767226 0.837226 0.76759
-1.54519 -0.125093 -3.17968
-1.54099 -0.0565542 -2.02724
-1.55414 0.00673012 -0.598276
-1.61059 0.0332736 0.826268
-1.60161 0.144191 2.25486
-1.58702 0.229113 3.40547
-1.58284 0.297331 4.55945
-1.54115 0.126745 -3.2119
-1.53715 0.198864 -2.05707
-1.5521 0.274017 -0.623843
-1.61376 0.291118 0.807388
-1.58806 0.403448 2.24019
-1.57636 0.48733 3.3911
-1.57633 0.554938 4.54437
-1.53 0.628849 -3.28244
-1.52283 0.700277 -2.12843
-1.5559 0.795776 -0.680313
-1.5667 0.831216 0.769321
-1.57055 0.900901 2.21701
-1.56567 0.983784 3.36701
-1.56719 1.05811 4.51675
-1.53219 1.4084 -3.37189
-1.53222 1.47921 -2.21466
-1.54758 1.5631 -0.759386
-1.55748 1.62494 0.700575
-1.55925 1.68777 2.15559
-1.56014 1.75025 3.31228
-1.56081 1.81852 4.46439
-0.776221 -0.126482 -3.17834
-0.767667 -0.0570509 -2.02524
-0.766553 0.00912153 -0.598602
-0.819692 0.0275561 0.823468
-0.808388 0.161019 2.25
-0.795514 0.242384 3.40216
-0.793131 0.305397 4.55752
-0.775648 0.123277 -3.21158
-0.783963 0.501579 3.38838
-0.787099 0.563071 4.54292
-0.765521 0.621492 -3.28529
-0.777381 0.989722 3.36742
-0.779803 1.06302 4.51681
-0.760083 1.40515 -3.37469
-0.756521 1.47702 -2.21773
-0.769361 1.5642 -0.76126
-0.777104 1.62615 0.70072
-0.775858 1.68826 2.15707
-0.775611 1.7509 3.31376
-0.775507 1.81957 4.46545
0.756818 -0.126427 -3.17845
0.766908 -0.0570174 -2.02528
0.786177 0.00922581 -0.598623
0.821636 0.0280518 0.823453
0.777053 0.161213 2.24999
0.781184 0.242542 3.40214
0.78492 0.305575 4.55749
0.749125 0.123318 -3.21173
0.783733 0.501685 3.38836
0.787546 0.563229 4.54288
0.743349 0.621539 -3.28561
0.785364 0.989809 3.3674
0.790727 1.06316 4.51677
0.774731 1.40526 -3.37496
0.782724 1.47715 -2.218
0.783278 1.56436 -0.761492
0.780893 1.62631 0.700562
0.786545 1.68841 2.15697
0.790649 1.75105 3.31368
0.793697 1.81973 4.46538
1.52811 -0.124946 -3.17993
1.53893 -0.0564159 -2.02741
1.56436 0.00701578 -0.598396
1.6117 0.0340007 0.826194
1.58581 0.144688 2.25482
1.57601 0.229494 3.40541
1.5758 0.297709 4.55937
1.52006 0.126872 -3.21222
1.53307 0.198985 -2.0573
1.55182 0.274246 -0.624011
1.61354 0.29188 0.807301
1.58765 0.40387 2.24016
1.57622 0.487649 3.39106
1.57699 0.555285 4.5443
1.51343 0.62899 -3.28298
1.52088 0.700438 -2.12905
1.55434 0.796092 -0.680768
1.56657 0.831614 0.769083
1.57495 0.901205 2.21694
1.57425 0.984053 3.36695
1.57792 1.05843 4.51666
1.54362 1.40864 -3.37239
1.55226 1.47948 -2.21517
1.55931 1.56342 -0.759816
1.56229 1.62527 0.700271
1.56975 1.68809 2.15539
1.57497 1.75057 3.31212
1.57881 1.81886 4.46424
-0.766861 0.44 -2.11209
5.06639e-07 0.182877 -2.06712
-0.890776 0.110102 -1.34023
-0.742558 0.67 2.19396
0 0.421526 2.24712
-0.787584 0.380592 1.51888
-0.000247002 0.682039 -2.1323
-0.79553 0.775118 -1.40931
0 0.892053 2.2062
-0.747114 0.847031 1.49346
0.766759 0.44 -2.1125
0.819761 0.181117 -1.34023
0.742398 0.67 2.1938
0.802916 0.365259 1.51888
0.795429 0.775429 -1.40975
0.747134 0.847134 1.49337
-0.77305 0.311477 0.089325
-0.824588 0.537221 -0.654533
2.03417e-07 0.161094 -0.62545
-0.849071 0.559045 0.785933
-0.000360102 0.133346 0.8041
-0.779003 0.818756 0.042075
-4.35404e-05 0.981317 -0.683793
-2.95342e-05 1.26196 0.767679
0.773071 0.311456 0.089325
0.824616 0.537343 -0.65471
0.848804 0.559458 0.785845
0.778933 0.818933 0.04181
-0.894153 0.488611 -1.37477
0.894153 0.488671 -1.37499
3.55028e-07 0.167193 -1.34023
-0.000145271 0.869881 -1.40953
-0.000123248 0.44 -2.24147
-0.826921 0.548133 0.0657
0.82698 0.548401 0.0655675
-0.000179949 0.161158 0.089325
-3.65373e-05 1.29621 0.0419425
-0.802424 0.614523 1.50617
0.802403 0.614729 1.50612
-0.000180051 0.223275 1.51888
-1.47671e-05 0.991796 1.49341
0 0.67 2.22856
-0.721768 0.3175 -2.03985
-0.382026 0.182888 -2.06711
-0.796863 0.183102 -1.69761
-0.749986 0.5525 2.20501
-0.3875 0.421514 2.24714
-0.745154 0.443934 1.87626
-0.762056 0.5625 -2.13442
-0.367871 0.667567 -2.1177
-0.775391 0.739938 -1.77215
-0.722435 0.7875 2.17021
-0.3875 0.891948 2.2061
-0.717523 0.832482 1.8563
0.382027 0.182848 -2.06715
0.722011 0.3175 -2.04035
0.796481 0.183485 -1.69761
0.3875 0.421552 2.2471
0.749994 0.5525 2.20502
0.745155 0.443933 1.87626
0.367377 0.667354 -2.11775
0.762028 0.5625 -2.13516
0.775216 0.740216 -1.77264
0.3875 0.891919 2.20607
0.722259 0.7875 2.17003
0.717476 0.832476 1.85626
-0.836674 0.185116 -0.982838
-0.769209 0.294405 -0.268063
-0.794867 0.407318 -0.639992
-0.410997 0.162618 -0.62545
-0.810409 0.336854 1.16149
-0.776823 0.328615 0.446713
-0.847767 0.419738 0.795017
-0.455791 0.141316 0.8041
-0.791579 0.786208 -1.04646
-0.823345 0.675846 -0.669075
-0.783269 0.807981 -0.320771
-0.42975 0.961201 -0.683705
-0.759096 0.843973 1.13061
-0.811964 0.699975 0.77685
-0.774553 0.829348 0.404921
-0.468449 1.21912 0.767723
0.836489 0.185301 -0.982838
0.410998 0.162618 -0.62545
0.769215 0.2944 -0.268063
0.794877 0.407381 -0.64008
0.832435 0.314829 1.16149
0.454954 0.14191 0.8041
0.776854 0.328585 0.446713
0.848231 0.419826 0.794973
0.791484 0.786484 -1.04686
0.429555 0.961107 -0.683882
0.823315 0.676028 -0.66934
0.78319 0.80819 -0.32108
0.759049 0.844049 1.13048
0.468384 1.21916 0.767634
0.811891 0.70028 0.776718
0.774483 0.829483 0.4047
-0.855623 0.464305 -1.74343
-0.383492 0.44 -2.21985
4.30834e-07 0.176384 -1.70367
-6.13704e-05 0.311438 -2.01613
-0.891468 0.299356 -1.3575
-0.445388 0.167192 -1.34023
-0.7759 0.642261 1.85006
-0.371279 0.67 2.22856
-9.00256e-05 0.234833 1.883
0 0.545763 2.21641
-0.816183 0.497557 1.51252
-0.393882 0.227349 1.51888
-0.000196136 0.825785 -1.77092
-0.000185125 0.561019 -2.23103
-0.831421 0.631864 -1.39204
-0.397838 0.869025 -1.40942
-7.38356e-06 0.87044 1.84981
0 0.781027 2.21145
-0.784437 0.730777 1.49981
-0.373564 0.961738 1.49344
0.855662 0.464336 -1.74374
0.383318 0.44 -2.21998
0.892014 0.334894 -1.35761
0.409881 0.164668 -1.34023
0.775894 0.642365 1.84996
0.371199 0.67 2.22856
0.813881 0.489994 1.5125
0.401368 0.223193 1.51888
0.831389 0.63205 -1.39237
0.397642 0.869029 -1.40964
0.784433 0.730932 1.49975
0.37356 0.961767 1.49339
-0.79975 0.429922 0.0775125
-0.423397 0.162754 0.089325
-0.849462 0.512916 -1.01465
-0.825869 0.542677 -0.294417
2.79222e-07 0.0921541 -0.982838
-8.9873e-05 0.161152 -0.268063
-0.82813 0.553589 0.425817
-0.846774 0.586784 1.14605
-0.000270026 0.1612 0.446713
-0.000270077 0.190719 1.16149
-0.819678 0.691803 0.0538875
-0.498039 1.27452 0.0420088
-9.44057e-05 0.89126 -1.04666
-4.00388e-05 1.22171 -0.320925
-3.30358e-05 1.29578 0.404811
-2.21507e-05 1.1448 1.13055
0.799784 0.430049 0.0774462
0.423223 0.162753 0.089325
0.849628 0.513007 -1.01485
0.825929 0.542872 -0.294571
0.828204 0.55393 0.425706
0.846022 0.587094 1.14598
0.819635 0.692006 0.0536888
0.497935 1.27454 0.0418763
-0.855617 0.308428 -1.72052
-0.83892 0.353302 -0.998744
-0.828342 0.64953 -1.03056
-0.811799 0.597182 -1.75779
0.855421 0.326197 -1.72068
0.81194 0.597275 -1.75819
0.828304 0.649714 -1.03085
0.839364 0.371101 -0.998843
-0.413707 0.176348 -1.70064
0.395954 0.176348 -1.70064
0.396298 0.0959394 -0.982838
-0.414051 0.0920055 -0.982838
-0.382854 0.79794 -1.77154
-0.395804 0.882202 -1.04656
0.395663 0.882237 -1.04676
0.382509 0.797845 -1.77178
-0.382759 0.314469 -2.08894
-0.375681 0.56176 -2.19601
0.375347 0.56176 -2.19436
0.382672 0.314469 -2.08796
-0.79731 0.41862 -0.28124
-0.801112 0.436153 0.436265
-0.818401 0.697179 0.415369
-0.821514 0.683826 -0.307594
0.797335 0.418712 -0.281317
0.821477 0.684018 -0.307826
0.818341 0.697432 0.415203
0.801162 0.43636 0.436209
-0.417199 0.162683 -0.268063
0.417112 0.162682 -0.268063
0.433852 0.162805 0.446713
-0.434209 0.162806 0.446713
-0.491291 1.17265 -0.320848
-0.49872 1.27777 0.404866
0.498631 1.2778 0.404755
0.491109 1.17255 -0.321003
-0.838196 0.458783 1.15377
-0.759206 0.525029 1.86316
-0.754086 0.759138 1.85318
-0.798783 0.71443 1.13833
0.838035 0.455285 1.15374
0.799267 0.714637 1.13823
0.75407 0.759216 1.85311
0.758105 0.521247 1.86311
-0.408376 0.191878 1.16149
0.411759 0.190611 1.16149
0.394434 0.248457 1.87963
-0.390691 0.240906 1.87963
-0.378611 1.11263 1.13058
-0.380532 0.858682 1.85306
0.38053 0.858693 1.85303
0.378579 1.11265 1.13051
-0.37939 0.549131 2.21886
0.37935 0.549131 2.2188
0.37935 0.784263 2.20752
-0.37939 0.784263 2.20752
-0.720059 0.25625 -2.02458
-0.57304 0.184533 -2.06547
-0.772356 0.197153 -1.87631
-0.772929 0.49375 2.22977
-0.58125 0.421512 2.24714
-0.758267 0.441276 2.05496
-0.761691 0.62375 -2.14763
-0.551682 0.702922 -2.15299
-0.753492 0.710519 -1.95358
-0.750224 0.84625 2.19619
-0.58125 0.904761 2.21891
-0.745217 0.867696 2.03773
0.573041 0.184423 -2.06558
0.72002 0.25625 -2.02466
0.760766 0.208744 -1.87631
0.58125 0.421565 2.24709
0.772862 0.49375 2.2297
0.758237 0.441307 2.05496
0.551188 0.703058 -2.15352
0.761356 0.62375 -2.14819
0.753291 0.710791 -1.95409
0.58125 0.90477 2.21892
0.75022 0.84625 2.19618
0.745178 0.867678 2.03771
-0.76327 0.268976 -0.804144
-0.767318 0.28584 -0.446756
-0.780105 0.342317 -0.632721
-0.61653 0.163312 -0.62545
-0.811789 0.325018 0.982794
-0.778414 0.337481 0.625406
-0.846944 0.350169 0.799558
-0.677711 0.156892 0.8041
-0.789554 0.791704 -0.86504
-0.807525 0.737559 -0.676346
-0.785388 0.802579 -0.502194
-0.623359 0.908654 -0.683661
-0.763099 0.840455 0.94919
-0.792527 0.769999 0.772309
-0.770991 0.833306 0.586344
-0.63933 1.07105 0.767745
0.763271 0.268976 -0.804144
0.62553 0.145312 -0.62545
0.767324 0.285835 -0.446756
0.780115 0.342346 -0.632765
0.835353 0.301454 0.982794
0.677724 0.155966 0.8041
0.778439 0.337456 0.625406
0.846876 0.350543 0.799536
0.789461 0.791961 -0.865415
0.623134 0.908561 -0.683926
[...]
POINT_DATA 3682
SCALARS point_scalars float 1
LOOKUP_TABLE default
-76.8006
-37.8966
-33.5002
-36.2482
-76.9168
-37.9863
-34.5597
-36.4872
-34.5969
-53.8869
-43.7654
-45.9958
-35.488
-44.8796
-43.9099
-45.9409
-15.1415
-44.7719
-36.0403
-53.3457
-35.926
-38.116
-38.116
-42.5986
-49.1858
-35.8615
-53.3457
-35.926
-38.116
-38.116
28.3278
-97.6283
-39.3079
-42.1192
-35.3679
-35.3679
-42.2808
-18.9708
-70.8474
-47.8489
-54.71
-35.3679
-35.3679
-35.3679
155.81
-86.912
-34.4006
-56.1844
-37.9029
-31.2333
-31.2333
159.003
-31.2333
-31.2333
181.776
-31.5062
-30.5719
66.7725
-94.3485
-27.7301
-62.4728
-35.3679
-35.3679
-42.2808
156.41
-79.9736
-38.2866
-41.8049
-36.8296
-31.3606
-31.3606
156.986
-31.3606
-31.3606
182.535
-31.5885
-30.6511
51.5942
-95.1217
-27.8932
-62.4989
-35.595
-35.595
-42.3874
31.8686
-62.8166
-38.4295
-44.873
-35.899
-38.2265
-38.2265
-43.7945
-63.3635
-36.1907
-43.9054
-35.899
-38.2265
-38.2265
27.5153
-98.3864
-39.4795
-41.828
-35.595
-35.595
-42.3874
-19.2242
-69.5057
-47.7698
-54.666
-35.595
-35.595
-35.595
-57.4718
-107.362
-70.8351
-35.9322
-23.4379
-36.0318
41.0777
-48.1708
-30.7305
-40.9353
-57.6388
-75.1704
-36.1079
-38.3324
-48.0508
-40.9818
-31.8713
-37.535
-44.3305
-40.3886
-40.0165
-50.3674
24.9898
-59.3912
-32.8321
-37.8005
-39.4606
-50.5637
-67.3686
-66.8146
-68.4849
-29.6884
159.109
-36.479
-36.9782
-35.1729
-101.27
-36.9532
-37.3542
-32.8684
-37.2094
-24.9962
-45.1881
-103.896
-34.5622
-36.8392
-28.0572
-29.2387
-61.0211
6.91945
-48.0614
-37.7047
-30.5933
-31.8067
-99.4323
-45.5537
-52.4026
-28.2605
-37.0109
-29.0908
10.7275
-60.639
-48.7148
-30.6317
-37.8734
-31.8446
-53.9802
-31.6459
-35.5995
-42.4117
-38.2945
-30.6507
-44.9677
-42.02
-35.975
-39.7533
-51.852
11.6337
-43.0192
-42.479
-47.8748
-58.3484
-52.9416
-42.708
-32.1821
-35.9398
-40.2748
-40.7743
-31.4343
-40.7566
-36.0369
11.4712
-39.9117
-52.0919
-43.1107
-58.3463
-42.2438
-47.9177
-45.6016
161.284
-97.2965
148.824
-72.8864
-68.013
-31.4658
-28.1316
-31.6743
-22.8943
-37.0017
-32.4607
-56.1372
158.151
-54.8481
-33.8992
-34.0434
-30.4989
-37.5282
-37.7169
-46.6395
161.646
-70.7673
-72.3064
-31.5022
-28.2395
-37.5935
-33.7003
-54.6285
-33.9975
-37.7673
-37.7132
-33.6927
-34.157
-50.424
-36.5076
-58.2389
-37.4776
-35.4149
-42.0279
-35.1263
-36.3949
-42.9285
-89.9879
-2.30904
-23.361
-74.258
-44.0663
-34.3504
-34.4011
-50.4034
-36.9573
-35.5379
-42.5047
-43.2801
-90.0761
-46.0157
-49.2619
-44.8434
-48.5093
-45.972
-48.8058
-44.8137
-49.1775
-88.1954
-86.6651
-57.5959
-58.0888
-56.5821
-9.82552
-9.9111
-56.6278
142.384
159.435
157.869
143.118
-33.5505
-32.3935
-41.7343
-43.1454
-34.0668
-43.4774
-41.8242
-32.7208
-36.0059
-36.3236
-34.8509
-34.646
-34.4587
-69.2465
-69.2715
-34.6204
-39.8212
-30.2506
-31.3006
-41.4074
-40.8419
-41.5772
-31.3673
-30.1985
-36.6852
-36.5634
-31.7592
-33.4247
-44.6577
-34.0162
-34.0236
-44.6758
-27.7331
-27.8845
-30.2256
-30.1796
-59.8609
-42.1653
-72.3354
-37.2657
-30.4126
-25.5584
-34.1879
6.47376
-62.3822
-41.4546
-33.6223
-27.3632
-39.4364
-58.7769
-71.3014
-30.6215
-37.4173
-25.4356
1.65656
-30.5134
-62.3089
-33.655
-41.5707
-27.3404
-39.9171
-32.0766
-34.8908
-39.4156
-40.1167
-24.9544
-50.7122
-48.0448
-36.6252
-42.1539
-50.7246
-12.8396
-44.5516
-43.6668
-46.7905
-53.587
-40.035
-39.8586
-32.6939
-35.3733
-39.601
-40.9455
-25.762
-43.9575
-36.6007
-13.0166
-42.305
-50.8843
-44.5609
-53.5495
-43.5625
-46.755
-50.1113
-57.5873
-67.3986
119.759
-107.074
-105.278
-132.267
138.001
-85.2288
-65.9696
-72.7795
-71.0633
-36.1089
-37.1958
-31.5273
-29.6595
-25.0906
-25.2649
-28.4605
-22.362
-33.4857
-37.4373
-36.329
-32.99
53.4738
53.838
-70.3566
117.947
-49.8185
-41.5589
-53.0711
-37.0984
-30.4966
-30.524
-32.4444
-30.0683
-37.2195
-42.46
-38.1751
-39.1375
-50.7885
-57.4926
-68.8636
120.467
-74.9713
-65.9105
-71.7807
-94.8693
-36.3052
-37.3667
-31.5658
-29.749
-33.2489
-39.2366
-37.4216
-34.357
-49.7207
-41.5095
-52.9471
-37.1378
-37.4846
-42.5682
-38.3358
-39.1192
-31.7893
-31.7749
-32.7255
-33.0485
-36.3553
-38.566
-41.9584
-36.5326
-43.8149
-44.018
-50.7931
-40.1857
-38.8973
-42.7139
-35.5501
-41.4336
-40.7263
-40.6748
-35.6148
-38.4723
-51.6527
-48.8787
-46.438
-66.8021
23.4194
23.3618
9.28661
28.1213
-58.8824
-58.8841
-68.0685
-50.4175
-32.6667
-32.5756
-33.4815
-33.7715
-36.6557
-38.7797
-42.0157
-36.945
-37.1924
-42.2661
-35.0566
-41.2422
-51.9007
-49.0166
-46.7123
-66.9444
-68.7587
-70.5495
-59.4631
-61.1902
-68.3213
-69.0821
-59.1877
-61.0843
-81.5058
-68.2106
-69.2343
-58.0109
-43.2803
-30.5676
-30.6109
-15.4658
157.99
146.753
202.766
158.329
-34.7369
-36.5839
-36.008
-39.3999
-35.3114
-37.1014
-36.4172
-39.8148
-34.8922
-36.0167
-34.9398
-35.0567
-99.042
-131.702
-83.1861
-99.0704
-33.7663
-37.2348
-36.86
-40.0242
-33.9067
-37.7264
-37.1952
-40.2676
-31.7905
-32.4995
-33.1545
-34.6775
-35.1063
-37.3653
-37.3623
-39.8768
-26.0055
-23.601
-27.1722
-26.0829
-66.9056
100.348
-124.582
106.886
-39.991
-73.8657
-29.3417
-29.6379
-30.5688
-27.8417
-29.6341
-33.0234
-64.9174
163.966
-73.6735
120.935
-50.3648
-50.1479
-30.1939
-31.206
-31.9167
-30.2929
-31.0415
-33.8058
-120.09
110.06
-68.8045
101.131
-51.4794
-60.0483
-30.3225
-28.0114
-29.2266
-29.744
-29.5036
-31.9392
-74.2755
113.442
-65.4785
164.136
-50.4439
-50.205
-31.9395
-30.3557
-30.2295
-31.2622
-31.1044
-33.8233
-50.6899
-56.9482
-32.4536
-34.2165
-41.2393
-33.8261
-49.5663
-38.3327
-39.2129
-36.7044
-31.3696
-33.9919
-29.4026
-41.7663
-35.5599
-39.225
-42.4156
-17.41
-40.0654
-41.8262
-47.2701
-83.3657
0.0496312
5.11364
-41.6576
-47.3348
-41.8229
-42.1352
-44.5937
-57.5534
-64.937
-50.6093
-50.9887
-53.6334
-49.2228
-38.6874
-32.9978
-34.7584
-41.3734
-34.2938
-40.9564
-36.4383
-35.2601
-38.5689
-31.8769
-34.793
-28.7581
-41.9251
-42.3921
-17.5059
-0.056637
5.00133
-40.0932
-42.0873
-47.543
-83.3123
-41.8067
-47.3239
-64.9436
-50.6124
-41.6904
-42.0825
-44.6791
-57.5819
-40.3817
-47.4
141.554
196.263
-95.3436
-94.9704
148.743
148.974
-78.5065
-63.2858
-78.997
-55.0255
-30.839
-31.6499
-27.8464
-28.974
-31.3925
-32.9792
-24.5995
-24.7363
-39.4732
-33.9749
-34.5385
-31.5761
-55.7985
-55.8571
147.454
147.349
-50.7822
-54.768
-43.2401
-22.313
-34.0806
-34.0802
-30.269
-30.2543
-34.5506
-39.3039
-40.6362
-35.6979
-43.7907
-47.8224
196.056
141.853
-76.4701
-63.2861
-80.3244
-60.5357
-31.6892
-30.8196
-27.9813
-29.0484
-40.3743
-34.1518
-34.6332
-32.3487
-54.544
-50.6728
-22.3254
-43.3228
-39.5495
-34.6568
-35.6901
-40.632
-33.7138
-33.3233
-34.7168
-34.131
-49.1038
-48.336
-34.6674
-39.3848
-58.4479
-58.0934
-37.1544
-37.366
-33.6434
-38.6459
-40.5842
-41.5329
-35.0581
-34.9837
-36.4552
-36.4662
-42.1928
-43.4224
-113.558
-73.4703
-4.0205
-4.06129
-23.4017
-23.3489
-73.262
-73.2747
-44.1152
-44.1148
-34.3398
-33.892
-35.0154
-34.2973
-48.4058
-49.0843
-35.1518
-39.7791
-38.7107
-33.8547
-41.1425
-41.8473
-43.7849
-42.455
-73.5117
-113.375
-68.8609
-85.0826
-76.6412
-73.2787
-40.6412
-41.4556
-63.1306
-63.3261
-39.7348
-47.6826
-56.1822
-41.2438
-62.5454
-63.8417
-59.0688
-52.3176
-71.1664
-73.2711
-75.1683
-75.7281
-62.5609
-52.1965
-58.7365
-64.5898
-39.7584
-41.2204
-56.2925
-47.6179
-40.8154
-64.2718
-62.7103
-41.6474
-110.697
-130.781
-80.741
-79.4201
-101.81
-63.7652
-80.7133
-129.219
-44.9771
-50.574
-58.6088
-65.3427
-46.4379
-53.107
-57.0384
-50.4679
-61.3692
-43.7344
-43.4331
-67.6439
-11.1756
7.48846
-16.9563
-27.3963
-11.3588
-27.4419
-16.984
7.43604
-61.6197
-67.78
-43.4819
-43.8165
100.945
119.95
146.607
139.506
128.201
131.743
202.962
176.782
128.105
177.531
203.081
133.7
102.506
139.865
146.829
120.366
-32.7892
-32.7038
-34.8039
-34.857
-26.3605
-32.5172
-34.3313
-32.3891
-44.0279
-45.344
-38.9575
-39.1862
-45.8663
-38.7446
-39.6111
-47.2924
-33.305
-35.301
-35.3781
-33.4065
-46.0718
-47.5781
-40.047
-39.0736
-43.9845
-38.8908
-39.2614
-45.5584
-26.2499
-33.0466
-34.8256
-31.7528
-35.9625
-39.5821
-35.5947
-33.3935
-36.1872
-34.221
-35.7903
-39.8019
-36.3971
-35.4841
-34.8571
-33.5325
-36.5812
-33.1029
-34.7245
-35.4775
-48.7672
-75.8305
-128.762
26.1462
-54.3292
-67.7292
-81.3859
-60.9506
-54.3189
-61.0337
-81.4032
-67.7387
-48.9996
26.1305
-127.816
-75.9828
-39.9795
-38.4384
-40.4256
-41.7996
-27.4109
-30.697
-33.7883
-34.1518
-28.9246
-35.1048
-34.2349
-31.3393
-42.9114
-42.264
-39.3738
-40.0484
-39.9638
-41.8129
-41.1983
-39.899
-42.9184
-40.2269
-39.637
-42.1466
-28.956
-31.3954
-34.3448
-35.2017
-27.2756
-34.102
-33.9767
-30.6683
-37.9988
-38.6266
-34.5386
-34.4476
-37.8393
-35.2092
-34.738
-38.4347
-31.7382
-28.9191
-32.0619
-31.8068
-32.0967
-31.2624
-31.4299
-29.1001
-50.3228
-42.9438
-39.9296
-50.4168
-31.9828
-32.2256
-35.2894
-36.2621
-32.0094
-36.2643
-35.2853
-32.2353
-50.2905
-50.4182
-39.926
-42.9313
-29.8798
-24.3823
-25.0968
-29.6078
-29.9881
-29.7066
-25.2131
-24.5493
-33.5237
-30.0652
-27.7252
-30.1834
-33.4891
-30.1092
-27.692
-30.0366
-94.5952
-35.0436
-119.206
-37.7726
-32.5232
-31.8735
-38.5124
32.05
-93.6228
-39.3267
-38.7469
-25.0796
-32.5295
-91.8788
-119.615
-32.6146
-37.8824
-31.8004
32.3119
-29.1214
-93.9816
-38.817
-39.4912
-25.172
-36.6007
-32.8857
-34.6585
-37.3503
-44.8986
-33.0391
-51.5497
-56.3069
-39.501
-43.1663
-49.9485
-32.6976
-45.2618
-44.5965
-46.3213
-49.5737
-37.0399
-37.8007
-33.5795
-35.2832
-41.403
-42.3129
-30.8565
-43.9897
-39.6521
-32.9962
-43.3231
-50.0539
-45.2349
-49.5199
-44.5299
-46.2677
-54.7871
-44.8378
-86.0294
72.3506
-107.356
-106.529
-188.241
69.4382
-89.88
-65.4397
-71.8364
-71.6353
-36.2089
-36.8642
-33.3042
-31.2266
-24.0256
-24.154
-27.1326
-22.1313
-35.6502
-37.6112
-36.0825
-34.1185
48.3908
48.8081
-71.7883
82.5603
-48.6149
-46.1761
-50.984
-41.0161
-30.305
-30.3192
-31.9235
-30.454
-38.8968
-41.4822
-39.2827
-41.4281
-55.2211
-45.9186
-87.0424
72.6839
-77.4777
-69.6438
-72.8918
-100.313
-36.4013
-37.0496
-33.4067
-31.4267
-36.5281
-38.9154
-37.9552
-35.835
-48.5204
-46.2044
-50.8653
-41.0054
-38.4373
-41.5695
-39.3981
-41.6176
-31.9573
-31.9155
-32.2919
-31.1292
-36.9088
-38.2131
-38.9876
-36.8486
-44.2083
-44.3133
-47.1971
-42.0467
-38.898
-41.6651
-35.9452
-42.2128
-40.3781
-40.3326
-35.2501
-41.2838
-51.1074
-49.5935
-48.1459
-58.2083
24.6958
24.6684
15.7483
31.5638
-59.0375
-59.0402
-64.1115
-54.6637
-32.8681
-32.7795
-33.1345
-33.4994
-37.1898
-38.4563
-39.1651
-37.1937
-37.8276
-41.0511
-35.3202
-41.7327
-51.3401
-49.7633
-48.3781
-58.3658
-69.1426
-68.9803
-65.1684
-65.0104
-68.505
-67.8693
-64.8561
-64.7178
-76.3233
-68.2887
-68.8293
-62.7508
-35.8995
-29.8195
-29.8375
-23.3855
157.772
130.179
199.663
158.027
-35.5096
-36.4697
-36.0957
-37.7613
-36.0422
-36.9942
-36.5843
-38.2199
-35.0831
-35.4941
-34.9944
-35.167
-100.781
-118.795
-90.5677
-100.797
-35.1912
-37.0791
-36.8907
-38.971
-35.4559
-37.5558
-37.2581
-39.462
-32.0362
-32.6825
-33.0561
-33.736
-36.0827
-37.2538
-37.2518
-38.328
-24.8779
-24.2603
-25.6649
-24.9257
-43.2333
-44.6833
-113.948
89.3384
-76.028
-107.023
-177.785
43.6643
-54.1027
-60.5311
-40.3537
-59.7673
-36.9367
-36.4497
-32.5663
-30.9367
-29.2243
-26.6447
-30.3864
-27.7469
-27.3444
-30.9676
-29.3389
-30.8603
-41.3343
-64.4676
-98.2214
124.027
16.8761
51.7477
-63.4077
54.5156
-51.2682
-49.2597
-50.5247
-49.165
-37.51
-37.0299
-31.5682
-32.898
-31.594
-30.3703
-30.8904
-30.4655
-25.7038
-34.6013
-31.2822
-33.3681
-71.9298
-103.803
-173.831
48.2001
-43.3737
-44.9641
-115.638
89.6574
-49.9346
-79.3616
-57.5599
-40.1996
-29.4023
-26.8691
-30.7634
-27.9505
-37.0829
-36.6347
-32.5012
-31.0566
-27.2198
-30.8444
-29.2014
-30.2686
18.2018
52.9308
-65.0807
58.1081
-40.0886
-64.3413
-99.1571
125.293
-51.2107
-49.1516
-50.3432
-49.2546
-31.546
-30.403
-30.9241
-30.5139
-37.6867
-37.1906
-31.6836
-32.9662
-25.7257
-34.6272
-31.3358
-33.391
-44.7923
-56.9885
-51.2904
-55.1753
-31.8002
-31.7745
-32.0237
-31.2768
-35.1215
-35.9357
-37.4654
-34.3977
-41.1297
-43.2197
-45.5043
-40.0666
-38.8353
-37.8819
-38.7489
-36.6342
-29.3021
-31.4471
-30.9165
-30.9257
-47.882
-41.7299
-34.0858
-45.686
-43.2361
-41.2943
-35.381
-42.6281
-35.0783
-39.4748
-40.1934
-25.3919
-40.6116
-39.0997
-39.2546
-40.9322
-51.3108
-51.9893
-49.2969
-64.7106
1.18264
19.3969
4.46478
13.9168
-43.7134
-42.4852
-42.2616
-45.5913
-42.9376
-42.3932
-42.3
-42.5293
-47.3303
-48.278
-45.9134
-53.0546
-57.8663
-58.6574
-62.7219
-54.4455
-45.0369
-56.4603
-52.6203
-49.6508
-41.569
-43.4851
-45.5981
-40.4315
-32.2813
-32.5372
-32.607
-31.1148
-35.5127
-36.2521
-37.666
-34.8461
-39.818
-40.3679
-40.6342
-37.0559
-40.1474
-40.6852
-34.9856
-41.3172
-30.0091
-32.1808
-31.5704
-32.7387
-42.1129
-38.8848
-32.5222
-43.8332
-34.9717
-39.509
-40.1542
-25.4649
0.993322
19.2994
4.5377
13.7287
-40.7703
-39.2812
-39.3558
-41.1478
-51.5499
-52.2283
-49.5533
-65.014
-43.7698
-42.5949
-42.3816
-45.5535
-57.8502
-58.6633
-62.727
-54.4446
-42.7833
-42.0586
-42.0893
-42.3534
-47.3299
-48.3695
-45.9836
-53.0746
-50.5754
-55.4186
-44.3951
-45.3941
143.625
159.145
135.925
185.681
-110.971
-87.2189
-96.8816
-96.5923
151.215
147.23
149.464
149.58
-73.0816
-71.9693
-77.8311
-68.7105
-68.9193
-67.985
-78.0645
-60.6513
-30.9904
-32.493
-31.1536
-31.5581
-29.0129
-26.9824
-28.0002
-28.3847
-30.1479
-31.7464
-31.4771
-32.1087
-22.9282
-22.9418
-22.8863
-22.9661
-36.6741
-37.2411
-38.4572
-35.7024
-32.6124
-32.362
-33.5871
-31.2066
-62.6977
-50.5456
-56.1783
-56.2078
143.269
185.376
145.418
145.254
-54.1973
-54.459
-53.0591
-55.9037
-36.1052
-32.1637
-35.6487
-29.1404
-33.281
-34.5945
-34.0449
-34.0439
-30.2853
-28.9048
-30.0053
-29.9856
-37.8162
-37.1982
-36.1059
-38.4497
-38.182
-37.5023
-39.0648
-36.6135
-52.5492
-55.7497
-46.3791
-45.9534
143.656
159.428
185.855
135.971
-71.2992
-70.036
-74.3887
-67.7578
-74.1041
-70.1739
-78.3915
-65.8775
-31.0134
-32.5636
-31.5959
-31.1631
-29.112
-27.09
-28.1198
-28.4792
-37.5133
-37.7532
-39.6219
-36.0736
-33.9821
-33.2336
-34.5207
-32.8928
-54.0182
-54.3156
-55.7369
-52.7888
-36.1776
-32.2217
-29.1744
-35.767
-38.0154
-37.4861
-38.7201
-36.2723
-38.1755
-37.4974
-36.627
-39.0616
-33.1886
-34.1582
-33.7297
-33.5561
-33.6117
-34.5806
-34.3691
-34.0742
-45.0954
-55.7359
-49.2314
-50.755
-36.5666
-36.5811
-35.5558
-37.8446
-55.3521
-53.9091
-58.3472
-58.1417
-38.7151
-36.6546
-37.4744
-37.59
-35.408
-35.7158
-34.4573
-36.9924
-41.4769
-41.0434
-41.2866
-41.6996
-35.3381
-34.9842
-35.125
-35.0903
-37.2873
-35.5831
-36.1166
-36.4364
-44.7821
-41.1189
-42.5629
-43.2282
-77.6359
-95.1303
-104.054
-79.0308
3.91593
-8.71314
-2.8036
-2.82437
9.68327
-103.699
-22.8197
-22.804
-71.3899
-78.1468
-73.9951
-74.0015
-46.861
-41.7293
-44.1153
-44.1149
-33.8882
-34.7745
-34.3844
-34.1844
-33.9295
-34.8084
-34.6458
-34.2766
-45.0068
-55.7267
-50.8047
-49.1838
-36.9863
-37.0735
-36.016
-38.2746
-35.2755
-36.004
-37.0702
-34.6163
-41.7666
-41.318
-41.857
-42.086
-45.0943
-41.4988
-43.5916
-42.8767
-77.7992
-95.1762
-79.0979
-104.243
-44.1301
-45.2872
-41.077
-79.0148
-49.9931
-45.5703
-56.7729
-49.2163
-43.8226
-42.4061
-47.7722
-45.7126
-53.6766
-49.4573
-47.4321
-49.5732
-44.0507
-52.2407
-45.4378
-80.1801
-54.0485
-49.6479
-47.7922
-49.6042
-43.7951
-42.4008
-47.9041
-45.6862
-49.7582
-45.6811
-56.41
-48.8798
-102.257
-82.4775
-92.4557
-80.0118
-98.7584
-76.9373
-91.9099
-81.5618
-56.4891
-54.3366
-55.0528
-58.3147
-57.9593
-55.4976
-49.8134
-58.1066
-61.4607
-53.9775
-56.3335
-50.167
-13.0828
-4.55355
-16.0322
-6.38117
-13.1777
-4.65193
-16.091
-6.44402
-61.6141
-54.0521
-56.3922
-50.2128
117.087
130.536
142.399
149.225
178.703
144.871
181.117
145.924
140.649
178.013
145.776
180.609
131.66
118.456
149.52
143.233
-32.9812
-33.5985
-33.6254
-34.1002
-31.8879
-31.4491
-32.9649
-32.8967
-41.6841
-43.2721
-40.2227
-41.8528
-42.6592
-45.1825
-41.0982
-43.3446
-33.5098
-34.0771
-34.2012
-34.6
-42.9561
-45.4875
-41.4572
-43.6986
-41.658
-43.3735
-40.2922
-42.0462
-32.2931
-31.485
-33.447
-33.1598
-35.1391
-36.9851
-35.2632
-36.6431
-37.3195
-35.5155
-36.9444
-35.5714
-34.942
-34.938
-34.9399
-34.6343
-34.3609
-35.0727
-34.3276
-34.8439
-63.6652
-10.2495
-72.5712
-24.2638
-62.8379
-67.8011
-70.3008
-72.0392
-67.8184
-62.8723
-72.0588
-70.3294
-10.2394
-63.9709
-24.2702
-72.4778
-39.5597
-40.1887
-39.3941
-40.0463
-29.1032
-30.0323
-30.5006
-31.9674
-29.9551
-31.1639
-31.4871
-32.9539
-41.4752
-41.9228
-40.5595
-41.33
-40.8801
-40.5461
-40.5529
-40.7454
-41.6238
-41.9922
-40.7888
-41.5474
-29.9981
-31.2328
-31.5395
-33.0262
-28.992
-29.9272
-30.4602
-32.0438
-36.7749
-37.8311
-35.6871
-36.3772
-36.6185
-37.4196
-35.6256
-36.5049
-31.018
-31.8849
-31.5855
-31.8238
-32.0926
-33.2481
-34.5143
-33.1597
-45.5323
-47.3033
-42.5024
-44.2851
-33.0099
-33.9375
-34.0618
-34.9629
-33.0239
-33.9493
-34.0649
-34.9649
-45.5261
-47.302
-42.4877
-44.2816
-28.8439
-27.8072
-27.7105
-26.0726
-27.9576
-28.9737
-26.2477
-27.859
-30.294
-30.5982
-29.9785
-29.6673
-30.5436
-30.2227
-29.6126
-29.9363
-116.173
95.7269
-177.355
29.1593
-69.0259
-97.7488
-32.0507
-31.4426
-35.2412
-29.9445
-26.2663
-30.3898
-104.981
109.175
-77.6051
107.124
-61.2584
-61.1987
-27.8036
-35.9467
-32.5207
-33.582
-28.2025
-32.5313
-169.84
30.0681
-118.065
96.1502
-69.8988
-89.4493
-35.1957
-30.0745
-31.9556
-31.5721
-26.132
-30.0586
-77.9803
108.221
-104.258
111.767
-61.1445
-61.5729
-32.5543
-33.6159
-27.8699
-35.9651
-28.2381
-32.5329
-40.1923
-41.1151
-32.3957
-32.428
-37.0291
-33.4661
-42.2664
-37.4201
-39.6465
-40.8289
-25.6668
-31.6293
-33.2096
-45.8648
-39.1067
-44.0109
-38.5656
-25.221
-40.2726
-44.3448
-48.0571
-66.8376
-8.54112
-19.0887
-43.6969
-47.0134
-43.8465
-43.5271
-45.139
-50.751
-53.4824
-51.6214
-40.3642
-38.4158
-42.5142
-37.7089
-32.9444
-33.116
-37.2878
-34.0223
-39.321
-39.1805
-35.5937
-40.9144
-25.8613
-37.1934
-30.8978
-42.6071
-38.5868
-25.2592
-8.70741
-19.1648
-40.3736
-44.5179
-48.2303
-66.7494
-43.707
-46.9964
-53.4577
-51.5775
-43.7488
-43.4672
-45.1101
-50.7203
-101.99
64.1166
-95.4386
121.704
-73.3081
-65.6578
110.16
157.647
-185.257
69.2721
-184.261
70.0975
-132.226
-131.578
138.767
138.934
-87.5993
-83.9119
-63.4287
-54.2872
-81.6783
-68.9263
-86.4523
-60.0219
-33.4433
-30.9411
-33.3143
-31.6834
-31.2753
-31.5114
-29.6369
-29.7553
-27.909
-24.0625
-28.0883
-24.267
-28.5418
-28.6764
-22.8771
-22.9735
-34.1075
-31.1393
-38.0714
-34.7132
-38.0228
-35.747
-34.1264
-31.0228
-76.9454
114.616
-77.1349
114.799
-68.7841
-68.8544
121.782
121.93
-51.6183
-45.0727
-45.3714
-33.6481
-50.6641
-53.3231
-40.4878
-32.566
-31.2263
-30.2521
-31.2472
-30.2801
-32.4414
-32.4465
-30.2083
-30.1992
-35.7291
-36.8335
-40.9723
-45.7271
-37.0172
-39.4418
-40.8331
-37.5795
-102.33
64.3044
-96.3081
122.164
-73.6715
-66.8408
158.149
110.498
-76.0707
-58.4637
-64.3905
-68.4321
-75.6628
-68.385
-88.3247
-76.9388
-33.5066
-31.0572
-33.4356
-31.7696
-31.5633
-31.2851
-29.7312
-29.8407
-33.747
-31.6706
-39.7473
-36.3023
-39.2294
-36.2278
-35.6911
-32.458
-51.5231
-45.1538
-45.3251
-33.6776
-53.1908
-50.5355
-32.5961
-40.5521
-35.811
-36.8298
-41.1174
-45.7415
-39.6292
-37.1628
-37.5768
-40.8195
-32.2206
-31.3937
-32.0362
-30.7391
-32.7183
-32.6364
-33.1435
-33.0214
-38.0522
-35.3617
-39.3123
-38.5982
-41.8561
-41.8498
-35.6628
-37.6371
-46.7911
-41.5255
-46.9023
-41.9039
-50.7835
-50.6907
-40.0884
-40.1941
-34.0634
-42.338
-40.1801
-42.5762
-34.2262
-37.4297
-40.9153
-41.9793
-35.0063
-41.8691
-35.0366
-41.5755
-35.5655
-35.5517
-38.5658
-38.4505
-49.2135
-61.5689
-46.8094
-55.0219
-45.8666
-46.9662
-70.9457
-63.3617
13.1604
29.7166
13.3374
29.5897
8.90604
8.88225
27.8761
27.8717
-63.69
-54.3642
-63.6986
-54.3441
-68.024
-68.0297
-50.4332
-50.4339
-32.9865
-30.7551
-32.7692
-32.2227
-33.4681
-33.3571
-33.8993
-33.6351
-38.2428
-35.758
-39.4578
-38.8753
-41.8395
-41.9795
-36.093
-38.0031
-33.1958
-41.4237
-39.773
-42.2396
-37.0511
-33.538
-40.4757
-41.8542
-49.4787
-61.7754
-46.9951
-55.1136
-47.2574
-46.1081
-63.4717
-71.1213
-73.6591
-62.4216
-74.0348
-67.0249
-57.91
-60.3841
-61.9647
-60
-72.1009
-62.1242
-72.0939
-66.296
-60.1045
-57.6882
-59.8838
-61.7836
-81.2122
-81.9575
-77.1964
-61.9317
-75.5319
-63.4486
-58.3664
-57.6236
-43.175
-43.1965
-36.3167
-24.6169
-24.6462
-36.3606
-15.8196
-15.836
130.485
199.724
146.762
146.873
197.399