# vtk DataFile Version 2.0
tet_velo
ASCII
DATASET UNSTRUCTURED_GRID
POINTS 29498 float
-0.840856 0.125 -1.535
-0.835003 0.285 1.655
-0.73113 0.655 -1.545
-0.506511 1.325 1.365
0.840856 0.125 -1.535
0.834957 0.285 1.655
0.731135 0.655 -1.545
0.506519 1.325 1.365
-0.806096 0.211143 -0.471667
-0.814252 0.254368 0.591667
-0.714232 0.936308 -0.575
-0.637931 1.15821 0.395
0.806101 0.211122 -0.471667
0.814248 0.254342 0.591667
0.714287 0.936358 -0.575
0.637931 1.15821 0.395
-1.58618 -0.367889 -2.29027
-1.58828 -0.233383 -1.47698
-1.55176 -0.160473 -0.411235
-1.51849 -0.154061 0.673296
-1.50819 -0.13114 1.74062
-1.51703 -0.0531424 2.56166
-1.53097 0.0547953 3.36835
-1.58736 -0.0404878 -2.32882
-1.58658 0.115171 -1.52573
-1.54135 0.227803 -0.478144
-1.49508 0.284284 0.577842
-1.47178 0.334012 1.62722
-1.50055 0.414167 2.44693
-1.52674 0.517626 3.25667
-1.54072 0.572986 -2.37973
-1.50321 0.721462 -1.57278
-1.45615 0.964671 -0.588824
-1.35078 1.16923 0.388522
-1.25275 1.3175 1.37427
-1.38422 1.39032 2.19785
-1.48232 1.46915 3.02263
-1.49163 1.65626 -2.52628
-1.46854 1.82995 -1.7333
-1.4362 2.11411 -0.779606
-1.39163 2.40408 0.153976
-1.36881 2.62562 1.10865
-1.40346 2.74541 1.90366
-1.46252 2.83709 2.71825
-0.817786 -0.361886 -2.29629
-0.820717 -0.22217 -1.48577
-0.793882 -0.165525 -0.410056
-0.781745 -0.178481 0.685095
-0.789003 -0.169029 1.76125
-0.812359 -0.080238 2.57565
-0.829304 0.0376163 3.37645
-0.827596 -0.0434766 -2.33068
-0.833614 0.391021 2.45848
-0.842636 0.503477 3.26278
-0.792351 0.542746 -2.36819
-0.742918 1.38822 2.19599
-0.821152 1.46553 3.02224
-0.75376 1.63035 -2.51486
-0.738094 1.80294 -1.72073
-0.725164 2.09974 -0.772027
-0.708319 2.40593 0.153066
-0.704749 2.63496 1.10216
-0.740598 2.75365 1.89717
-0.792352 2.84232 2.71354
0.776108 -0.361884 -2.29629
0.812936 -0.222173 -1.48577
0.803918 -0.16554 -0.410056
0.815263 -0.178502 0.685095
0.812982 -0.169036 1.76125
0.689813 -0.0802436 2.57565
0.616112 0.0376105 3.37645
0.763082 -0.0434739 -2.33067
0.628526 0.391017 2.45848
0.573171 0.503472 3.26278
0.726852 0.542751 -2.36819
0.515513 1.38822 2.19599
0.519927 1.46552 3.02224
0.726031 1.63036 -2.51486
0.72272 1.80295 -1.72073
0.695636 2.09976 -0.772027
0.645737 2.40594 0.153066
0.595247 2.63495 1.10216
0.565966 2.75365 1.89717
0.543803 2.84231 2.71354
1.56309 -0.367883 -2.29027
1.59543 -0.233382 -1.47698
1.57627 -0.16049 -0.411235
1.5628 -0.154092 0.673296
1.53632 -0.131158 1.74062
1.43156 -0.0531557 2.56166
1.3501 0.0547829 3.36835
1.55172 -0.040479 -2.32882
1.5946 0.115181 -1.52573
1.55806 0.227794 -0.478144
1.52244 0.284252 0.577842
1.4864 0.333997 1.62722
1.37013 0.414156 2.44693
1.30222 0.517615 3.25667
1.5028 0.573001 -2.37973
1.50977 0.721486 -1.57278
1.46772 0.964709 -0.588824
1.36721 1.16922 0.388522
1.25226 1.31749 1.37427
1.22788 1.39032 2.19785
1.22552 1.46914 3.02263
1.46965 1.65628 -2.52628
1.45814 1.82997 -1.7333
1.41604 2.11413 -0.779606
1.3443 2.40409 0.153975
1.27549 2.62561 1.10865
1.24469 2.7454 1.90366
1.22965 2.83708 2.71825
-0.804238 0.39 -1.55825
0 0.121126 -1.53887
-0.844366 0.147181 -1.00333
-0.749426 0.805 1.58867
-2.30074e-05 0.229887 1.71011
-0.849659 0.244653 1.12333
2.5034e-06 0.721516 -1.61152
-0.758692 0.831665 -1.06
4.02331e-06 1.32052 1.36052
-0.590294 1.25968 0.88
0.804499 0.39 -1.5585
0.844293 0.147246 -1.00333
0.749427 0.805 1.58869
0.849677 0.244596 1.12333
0.758666 0.831633 -1.06
0.590315 1.25969 0.88
-0.809953 0.232977 0.06
-0.812398 0.573725 -0.523333
2.72534e-06 0.129468 -0.471667
-0.807838 0.706291 0.493333
-2.04488e-06 0.129849 0.591667
-0.677565 1.04874 -0.09
2.78635e-05 1.18941 -0.575
1.94976e-07 1.41921 0.395
0.809942 0.232964 0.06
0.812406 0.57374 -0.523333
0.807843 0.706274 0.493333
0.677559 1.04873 -0.09
-0.897526 0.481863 -1.03167
-0.810762 0.640008 -0.015
-0.805732 0.755645 1.00167
1.36267e-06 0.1225 -1.00333
3.40227e-07 0.129659 0.06
-1.25261e-05 0.205574 1.12333
1.2517e-06 0.39 -1.75514
-9.49204e-06 0.805 1.69132
1.51834e-05 0.91136 -1.06
1.40292e-05 1.40074 -0.09
2.10914e-06 1.40723 0.88
0.897527 0.48187 -1.03167
0.810769 0.640007 -0.015
0.805851 0.755637 1.00167
-1.21372 0.120085 -1.53037
-0.830786 -0.0485851 -1.51038
-0.834226 0.0407617 -1.93284
-1.15339 0.309506 1.64111
-0.812003 0.0579855 1.70813
-0.834309 0.338011 2.05674
-1.11717 0.688231 -1.55889
-0.761741 0.598873 -1.9566
-0.734612 1.22897 -1.63287
-0.879629 1.32125 1.36963
-0.624714 1.35661 1.7805
-0.60563 1.97998 1.23358
0.826896 -0.0485863 -1.51038
0.801969 0.040763 -1.93284
1.21773 0.12009 -1.53037
0.823969 0.0579819 1.70813
0.731741 0.338009 2.05674
1.16068 0.309498 1.64111
0.728993 0.598876 -1.9566
0.726927 1.22897 -1.63287
1.12045 0.688243 -1.55889
0.511016 1.35661 1.7805
0.550883 1.97998 1.23358
0.879391 1.32124 1.36963
-1.17372 0.219473 -0.474906
-0.799989 0.022809 -0.440861
-1.15466 0.269326 0.584755
-0.797999 0.0379435 0.638381
-1.08519 0.950489 -0.581912
-0.719698 1.51803 -0.673514
-0.994353 1.16372 0.391761
-0.673125 1.78207 0.274033
0.80501 0.0227908 -0.440862
1.18208 0.219458 -0.474906
0.814755 0.03792 0.638381
1.16835 0.269297 0.584755
0.704962 1.51806 -0.673514
1.091 0.950533 -0.581912
0.641834 1.78207 0.274033
1.00257 1.16371 0.391761
-1.58723 -0.300636 -1.88362
-1.58677 -0.204188 -2.30954
-1.20198 -0.364887 -2.29328
-1.57002 -0.196928 -0.944108
-1.58743 -0.0591062 -1.50136
-1.2045 -0.227777 -1.48137
-1.53513 -0.157267 0.131031
-1.54656 0.0336653 -0.444689
-1.17282 -0.162999 -0.410645
-1.51334 -0.1426 1.20696
-1.50678 0.0651112 0.625569
-1.15012 -0.166271 0.679195
-1.51261 -0.092141 2.15114
-1.48998 0.101436 1.68392
-1.1486 -0.150084 1.75094
-1.524 0.00082646 2.965
-1.50879 0.180512 2.5043
-1.16469 -0.0666902 2.56866
-1.52885 0.286211 3.31251
-1.18014 0.0462058 3.3724
-1.58697 0.0373414 -1.92728
-1.56404 0.266249 -2.35428
-1.20748 -0.0419822 -2.32975
-1.56397 0.171487 -1.00194
-1.54489 0.418316 -1.54926
-1.51821 0.256043 0.0498491
-1.49875 0.596237 -0.533484
-1.48343 0.309148 1.10253
-1.42293 0.726759 0.483182
-1.48617 0.37409 2.03708
-1.36226 0.825755 1.50074
-1.51365 0.465896 2.8518
-1.44238 0.902246 2.32239
-1.16708 0.402594 2.4527
-1.50453 0.993385 3.13965
-1.18469 0.510552 3.25972
-1.52197 0.647224 -1.97626
-1.51618 1.11462 -2.453
-1.16654 0.557866 -2.37396
-1.47968 0.843066 -1.0808
-1.48587 1.2757 -1.65304
-1.40346 1.06695 -0.100151
-1.44617 1.53939 -0.684215
-1.30176 1.24337 0.881396
-1.3712 1.78666 0.271249
-1.31848 1.35391 1.78606
-1.31078 1.97156 1.24146
-1.43327 1.42973 2.61024
-1.39384 2.06787 2.05075
-1.06357 1.38927 2.19692
-1.47242 2.15312 2.87044
-1.15174 1.46734 3.02243
-1.48008 1.7431 -2.12979
-1.12269 1.6433 -2.52057
-1.45237 1.97203 -1.25646
-1.10331 1.81644 -1.72702
-1.41391 2.25909 -0.312815
-1.08068 2.10693 -0.775817
-1.38022 2.51485 0.631312
-1.04997 2.40501 0.153521
-1.38614 2.68551 1.50615
-1.03678 2.63029 1.1054
-1.43299 2.79125 2.31096
-1.07203 2.74953 1.90042
-1.12744 2.8397 2.71589
-0.819251 -0.292028 -1.89103
-0.822691 -0.202681 -2.31348
-0.0208389 -0.361885 -2.29629
-0.807299 -0.193847 -0.947911
-0.00389026 -0.222171 -1.48577
-0.787814 -0.172003 0.137519
0.00501816 -0.165532 -0.410056
-0.785374 -0.173755 1.22317
0.0167587 -0.178492 0.685095
-0.800681 -0.124633 2.16845
0.0119892 -0.169033 1.76125
-0.820832 -0.0213108 2.97605
-0.822987 0.155392 2.51706
-0.0612734 -0.0802408 2.57565
-0.83597 0.270547 3.31962
-0.106596 0.0376134 3.37645
-0.809974 0.249635 -2.34943
-0.0322568 -0.0434753 -2.33067
-0.838125 0.447249 2.86063
-0.788266 0.889621 2.32723
-0.102544 0.391019 2.45848
-0.831894 0.984502 3.14251
-0.134732 0.503475 3.26278
-0.773056 1.08655 -2.44153
-0.0327497 0.542749 -2.36819
-0.782035 1.42687 2.60911
-0.741758 2.07094 2.04658
-0.113702 1.38822 2.19599
-0.806752 2.15392 2.86789
-0.150612 1.46553 3.02224
-0.745927 1.71664 -2.1178
-0.0138644 1.63035 -2.51486
-0.731629 1.95134 -1.24638
-0.00768713 1.80294 -1.72073
-0.716741 2.25284 -0.309481
-0.0147639 2.09975 -0.772027
-0.706534 2.52044 0.627611
-0.0312911 2.40593 0.153066
-0.722673 2.6943 1.49966
-0.0547508 2.63495 1.10216
-0.766475 2.79799 2.30536
-0.0873159 2.75365 1.89717
-0.124275 2.84232 2.71354
0.794522 -0.292028 -1.89103
0.769595 -0.202679 -2.31348
1.1696 -0.364884 -2.29328
0.808427 -0.193856 -0.947911
1.20418 -0.227777 -1.48137
0.80959 -0.172021 0.137519
1.19009 -0.163015 -0.410645
0.814122 -0.173769 1.22317
1.18903 -0.166297 0.679195
0.751397 -0.12464 2.16845
1.17465 -0.150097 1.75094
0.652962 -0.0213166 2.97605
0.659169 0.155387 2.51706
1.06069 -0.0666996 2.56866
0.594642 0.270541 3.31962
0.983105 0.0461967 3.3724
0.744967 0.249639 -2.34943
1.1574 -0.0419764 -2.32975
0.600849 0.447245 2.86063
0.57202 0.889617 2.32723
0.999328 0.402587 2.4527
0.546549 0.984497 3.14251
0.937695 0.510543 3.25972
0.726442 1.08656 -2.44153
1.11482 0.557876 -2.37396
0.51772 1.42687 2.60911
0.54074 2.07093 2.04658
0.871696 1.38927 2.19692
0.531865 2.15392 2.86789
0.872722 1.46733 3.02243
0.724376 1.71665 -2.1178
1.09784 1.64332 -2.52057
0.709178 1.95135 -1.24638
1.09043 1.81646 -1.72702
0.670686 2.25285 -0.309481
1.05584 2.10694 -0.775817
0.620492 2.52044 0.627611
0.995018 2.40501 0.153521
0.580607 2.6943 1.49966
0.935367 2.63028 1.1054
0.554884 2.79798 2.30535
0.905328 2.74953 1.90042
0.886729 2.8397 2.71589
1.57926 -0.300633 -1.88362
1.55741 -0.204181 -2.30954
1.58585 -0.196936 -0.944108
1.59502 -0.0591006 -1.50136
1.56953 -0.157291 0.131031
1.56716 0.0336522 -0.44469
1.54956 -0.142625 1.20696
1.54262 0.0650801 0.625569
1.48394 -0.0921569 2.15114
1.51136 0.101419 1.68392
1.39083 0.00081361 2.965
1.40085 0.1805 2.5043
1.32616 0.286199 3.31251
1.57316 0.037351 -1.92728
1.52726 0.266261 -2.35428
1.57633 0.171488 -1.00194
1.55219 0.418333 -1.54926
1.54025 0.256023 0.049849
1.51289 0.596251 -0.533484
1.50442 0.309124 1.10253
1.44482 0.726737 0.483182
1.42827 0.374076 2.03708
1.36933 0.825742 1.50074
1.33617 0.465885 2.8518
1.299 0.902236 2.32239
1.26387 0.993375 3.13965
1.50628 0.647244 -1.97626
1.48622 1.11464 -2.453
1.48874 0.843097 -1.0808
1.48395 1.27573 -1.65304
1.41746 1.06697 -0.100151
[...]
POINT_DATA 29498
VECTORS point_vectors float
-4.83263 -10.9801 19.683
0.414209 0.37634 1.50279
-0.85111 0.610127 1.28482
0.028954 -0.201333 0.897828
4.84687 -11.1185 19.6564
-0.4062 0.401117 1.51936
0.842398 0.602548 1.2711
-0.019547 -0.235745 0.953808
0.024805 0.0110348 0.267695
0.00315771 -0.030782 0.307948
0 0 0
0 0 0
-0.0245417 0.0115238 0.268357
-0.00268889 -0.028318 0.30841
0 0 0
0 0 0
-0.773289 -0.503421 20.083
-1.1252 -0.760521 20.8215
-0.341691 -0.399784 21.4977
0.15519 -0.216489 21.5789
0.648453 -0.00881497 21.6151
0.919944 0.112602 21.2928
1.11422 0.0548992 21.1316
-0.995451 -0.442512 19.92
-1.59592 -0.689218 20.7546
-0.525732 -0.583655 21.5881
-0.00251643 -0.530182 21.634
0.648795 -0.454188 21.7732
1.02214 -0.383574 21.4818
1.24291 -0.514618 21.3605
-1.17816 -0.0420444 19.684
-2.26928 0.0586668 20.4322
-1.61378 -0.349611 21.5245
-0.987437 -0.342176 21.8128
-0.395337 -0.416879 21.8003
0.0598873 -0.575944 21.5855
0.403682 -0.702241 21.2938
-0.629335 0.396871 19.8856
-0.920398 0.672788 20.2191
-0.883889 0.620661 20.8477
-0.530884 0.351738 21.2321
-0.242635 0.0569456 21.2961
-0.132108 -0.097161 21.1957
-0.00265342 -0.186132 21.1236
-0.908022 -1.26006 19.4556
-1.64266 -2.90461 21.5116
-0.521907 -0.309342 21.593
0.24854 0.0734969 20.7798
0.82398 0.920013 20.7267
1.44434 1.34961 20.0536
1.9614 1.40197 18.2849
-1.31361 -1.26278 18.7865
1.37865 0.262622 9.15902
2.37385 0.171595 13.3284
-1.72771 -0.0223634 17.8387
-0.114452 -0.341163 14.5359
0.354643 -1.09561 19.1971
-0.561434 0.784564 19.4315
-0.963928 1.54004 19.7861
-0.997816 1.58453 20.7983
-0.515412 0.755906 21.4091
-0.180647 0.212806 21.4418
-0.0727823 -0.0382731 21.2972
-0.00291887 -0.177388 21.4021
0.884131 -1.29465 19.4256
1.64553 -2.92378 21.5144
0.535423 -0.296352 21.6822
-0.231476 0.0738826 20.9403
-0.827193 0.942782 20.9273
-1.16982 1.5933 19.0701
-1.65723 2.01522 17.7863
1.2889 -1.33275 18.6739
-0.805453 0.699245 3.88446
-2.22987 1.35433 6.3899
1.67589 -0.0103341 17.6514
0.524224 -0.337074 7.85957
0.0733346 -1.26044 13.0057
0.552033 0.798645 19.4144
0.959156 1.566 19.7746
0.974295 1.6296 20.7968
0.502913 0.787636 21.4269
0.184446 0.231869 21.4685
0.0860343 -0.0413732 21.318
0.0150682 -0.195803 21.1903
0.783546 -0.506446 20.0822
1.11736 -0.730409 20.8189
0.363099 -0.398235 21.4827
-0.142682 -0.215709 21.5791
-0.641049 0.000519643 21.6119
-1.03218 0.20893 21.3343
-1.3014 0.228125 21.1998
1.01687 -0.472294 19.9023
1.58489 -0.671189 20.7493
0.532187 -0.575919 21.5808
0.00760541 -0.493914 21.6124
-0.655973 -0.423402 21.7762
-1.29698 -0.393907 21.5509
-1.5178 -0.400445 21.2668
1.21902 -0.0231232 19.6243
2.23427 0.0571277 20.4435
1.5925 -0.345068 21.5177
0.960184 -0.341461 21.8068
0.371449 -0.438946 21.8295
0.00525863 -0.700177 21.7432
-0.389929 -0.905329 21.6008
0.634621 0.407932 19.8778
0.926549 0.680112 20.2172
0.900777 0.638309 20.8539
0.538758 0.373293 21.2468
0.245597 0.0698419 21.3284
0.141954 -0.123452 21.2517
0.0256938 -0.241941 21.0479
3.49054e-16 2.55836e-17 -3.28909e-16
-7.24602e-06 -0.0278304 0.165862
0.0373483 -0.0254975 0.752387
-0.0223091 -0.0954113 0.0547151
0.00926992 0.0900048 0.406766
0.0487182 -0.0134326 0.480845
1.62281e-05 0.0509262 0.0657317
-0.39909 -0.145231 0.712871
0.0085024 0.0257021 -0.0153781
0.0160629 0.0220062 0.128168
0 0 0
-0.0379557 -0.0255019 0.742117
0.0164507 -0.0908965 0.0600056
-0.0499887 -0.0138449 0.480364
0.396832 -0.143937 0.710306
-0.0154193 0.0208003 0.130645
0.0134249 -0.00032311 0.406252
0.000228575 0.000882465 0.00362659
-8.80757e-07 3.31366e-06 0.000446563
0.00155104 0.0232608 0.0486506
8.56492e-06 4.70968e-05 0.00908382
0.000167961 0.000515861 0.0014583
1.10677e-05 0.00736248 0.010571
0 0 0
-0.0127919 0.000824106 0.405826
-0.000227325 0.000877046 0.00363641
-0.00156823 0.0239318 0.0489988
-0.000135222 0.000415206 0.00117506
-1.04335e-05 -7.03299e-05 0.00148599
0.000123035 0.00206056 0.00468763
0 0 0
-4.90806e-07 -6.01862e-07 -3.4031e-05
9.70451e-07 2.03845e-06 0.00114393
0 0 0
3.48487e-05 -0.198339 0.0893762
0.0039989 -0.013259 0.000948991
-0.000102368 0.0140762 0.069172
0 0 0
1.03885e-05 -3.4593e-05 0.0010289
1.06823e-05 -7.13235e-05 0.00151296
-0.000123575 0.00207999 0.00473043
0 0 0
-3.09031 -1.73847 20.97
-2.65666 -4.57091 21.7034
-2.81458 -2.86787 18.3168
1.17087 -0.363865 20.0388
1.47154 0.893611 15.7171
0.878871 0.0299356 6.59854
-4.77158 0.758646 20.1585
-4.20941 1.00259 15.6744
-2.50571 2.87643 19.1734
-0.278014 -0.100551 18.3736
-0.359372 -0.019231 8.03325
-0.374654 0.233849 21.7618
2.63507 -4.60784 21.7161
2.82609 -3.05972 18.1884
3.06947 -1.71385 20.9708
-1.49504 0.928869 16.0704
-0.249384 0.0131813 3.5325
-1.20111 -0.335712 20.2694
4.23918 1.0871 15.3251
2.50166 2.91557 19.155
4.74343 0.750157 20.1643
0.935561 -0.17332 4.93422
0.389355 0.247334 21.7942
0.264423 -0.1478 18.5124
0.0857577 -0.838809 21.3856
-0.169407 0.308851 12.8205
0.31286 -0.617828 19.8271
1.20327 -0.457235 12.697
-2.85924 -0.968617 22.0244
-2.95429 2.66197 20.8406
-1.56597 -0.494472 21.3965
-1.13405 1.11847 22.162
0.17223 0.328352 12.9322
-0.0475018 -0.860732 21.5792
-1.1029 -0.455669 13.3213
-0.297331 -0.629759 20.1882
2.9722 2.7522 20.8172
2.848 -0.949433 22.0324
1.12904 1.16433 22.2099
1.58804 -0.519116 21.6044
-1.03095 -0.666308 20.3834
-0.886822 -0.490039 20.0011
-0.915773 -0.814012 19.8422
-0.788933 -0.591037 21.3534
-1.38956 -0.751382 20.7945
-1.57243 -1.48594 21.083
-0.0619085 -0.281299 21.5406
-0.432239 -0.500693 21.527
-0.205714 -0.307559 21.7979
0.379657 -0.124626 21.6221
0.0961102 -0.379021 21.6029
0.31851 -0.0865425 21.7384
0.810326 0.0418315 21.5089
0.69641 -0.207252 21.6964
0.953372 0.35584 21.7344
1.14017 0.0686095 21.2002
1.04014 -0.147125 21.4068
1.42439 0.552359 21.2349
1.25799 -0.0966081 21.0973
1.5998 0.573432 21.1026
-1.36433 -0.593986 20.1894
-1.1404 -0.273136 19.7607
-1.24199 -0.745043 19.5002
-1.18157 -0.645627 21.4532
-2.03353 -0.394427 20.6507
-0.184857 -0.533943 21.5683
-1.01707 -0.651057 21.6257
0.226023 -0.510069 21.7743
-0.450764 -0.706112 21.7215
0.845134 -0.405563 21.6552
0.116358 -0.795706 21.8117
1.20311 -0.395164 21.3696
0.573647 -0.776981 21.5704
1.69543 -0.317084 20.3708
0.882656 -0.823145 21.4717
1.78682 -0.355567 20.3251
-1.77163 0.0248226 19.8624
-0.942891 0.322672 19.7218
-1.53287 -0.030196 19.0127
-2.01686 -0.0801298 21.2285
-1.58025 0.633944 20.212
-1.29292 -0.413302 21.6947
-1.47982 0.496255 21.1173
-0.664716 -0.320313 21.8244
-0.869919 0.26268 21.5608
-0.165686 -0.519708 21.7159
-0.360196 -0.0618995 21.5711
0.246499 -0.664469 21.4997
-0.101691 -0.264906 21.4481
-0.137029 -0.63391 21.3302
0.116556 -0.405875 21.3072
0.346454 -0.920335 21.721
-0.804587 0.54438 20.0043
-0.66622 0.590875 19.6651
-0.971583 0.689224 20.5462
-1.01326 1.0573 20.036
-0.72098 0.508869 21.1202
-1.0333 1.04437 20.8508
-0.355485 0.169627 21.3084
-0.538414 0.557774 21.3147
-0.171959 -0.0518448 21.3058
-0.222475 0.134176 21.3789
-0.0509085 -0.169945 21.3103
-0.110779 -0.0873053 21.2813
-0.0178661 -0.219502 21.1831
-1.46322 -2.30706 19.8808
-1.10093 -1.29816 19.2075
-0.0312835 -1.91374 18.9906
-0.942331 -1.21817 22.5718
-0.00973316 -3.86143 22.2452
-0.154161 -0.100538 20.7949
0.00597742 -0.449704 19.6297
0.620793 0.549139 20.677
-0.000404917 0.224504 18.8057
1.08058 1.12982 20.6213
0.0218565 0.944971 18.8659
1.76137 1.53102 19.8083
1.90022 1.17163 15.308
0.104218 1.58874 17.1924
2.44496 1.37586 15.7297
0.252134 2.41523 15.5112
-1.61735 -0.847512 18.0952
-0.0550585 -2.09255 17.6384
1.97573 0.289752 10.7946
-0.0594163 -0.721956 5.60654
0.0587283 -0.0384895 0.370626
0.966488 -0.860335 10.7103
0.539453 1.67851 2.08414
-1.07649 0.843969 18.6979
-0.0809134 0.0869614 16.0454
0.167603 -0.771416 17.2936
-0.157366 -0.150433 21.5574
-0.173699 0.503734 -0.435276
0.0303055 -0.486592 21.3933
0.0779569 -0.289562 5.23345
-0.805115 1.22918 19.4949
-0.0146606 1.07932 19.1056
-1.05451 1.66787 20.2608
-0.0112204 2.16054 19.5045
-0.786193 1.2501 21.2505
-0.014664 2.28636 20.7066
-0.322785 0.429199 21.5161
-0.0226214 1.04628 21.5094
-0.116925 0.0637978 21.4193
-0.0124474 0.282507 21.504
-0.0545172 -0.130133 21.463
-0.0158771 -0.0142972 21.35
-0.0284798 -0.209221 21.2021
1.45429 -2.36713 19.8546
1.08339 -1.34682 19.0967
0.926974 -0.855074 19.833
0.948798 -1.21368 22.5708
1.57523 -1.48849 21.0921
0.175281 -0.0731288 21.014
0.213867 -0.315501 21.7919
-0.620239 0.55317 20.8346
-0.290928 -0.112475 21.7314
-0.988233 1.23806 20.3583
-0.937003 0.346846 21.737
-1.43893 1.96746 18.835
-1.43658 1.60692 12.2022
-1.55003 0.823655 21.1017
-1.92882 2.05604 12.5741
-1.96846 1.13182 19.9226
1.59033 -0.886792 17.9623
1.29402 -0.823145 19.4188
-1.62312 1.19238 5.66083
0.387871 -0.434863 -0.026769
-1.74225 0.0219133 15.181
-0.334649 -0.896985 0.620591
-2.42457 -0.0121174 16.0397
1.05296 0.883006 18.6306
1.58512 -0.032518 18.8618
0.234554 -0.839879 10.7057
0.216018 -0.0929358 21.6574
0.093734 -0.55441 19.1108
0.0476306 -0.475639 21.4589
-0.392613 -1.12211 19.8258
0.790456 1.25719 19.475
0.667361 0.600619 19.6531
1.04261 1.70293 20.2533
1.0157 1.07184 20.0296
0.7526 1.29623 21.2599
1.03767 1.06736 20.8532
0.316584 0.458601 21.5336
0.547416 0.589986 21.3378
0.127333 0.0717994 21.4459
0.210672 0.149995 21.3981
0.073418 -0.146449 21.4568
0.0881495 -0.071719 21.2901
0.019904 -0.196303 21.3936
1.03359 -0.676627 20.3707
0.903598 -0.499228 19.9832
0.788887 -0.582733 21.3426
1.39313 -0.728176 20.7916
0.0819467 -0.284737 21.5311
0.454813 -0.488741 21.5146
-0.366555 -0.127095 21.6164
-0.0785806 -0.353595 21.5943
-0.851473 0.0942383 21.5076
-0.685805 -0.188626 21.6933
-1.30326 0.215015 21.2655
-1.26541 -0.112239 21.5141
-1.52569 -0.138481 21.493
1.38517 -0.613209 20.1862
1.18683 -0.294812 19.7164
1.16699 -0.640243 21.4416
2.02801 -0.397021 20.643
0.190711 -0.514044 21.5574
1.00906 -0.627559 21.6117
-0.22694 -0.480853 21.7534
0.43519 -0.6772 21.7205
-0.96723 -0.42593 21.6748
-0.160385 -0.782029 21.8321
-1.46786 -0.409206 21.542
-0.64445 -0.986205 21.6863
-1.10408 -0.861211 20.6097
1.81854 0.0373399 19.8349
0.960959 0.338927 19.6963
1.98763 -0.0859259 21.2199
1.58671 0.633063 20.2141
1.26978 -0.403677 21.6905
1.48914 0.49922 21.1243
0.645448 -0.32725 21.8396
0.882039 0.267414 21.578
0.175923 -0.569984 21.7867
0.367868 -0.065814 21.5893
-0.257212 -0.818421 21.6582
0.144386 -0.303262 21.4381
-0.0721459 -0.433493 21.164
0.809707 0.552946 19.9976
0.980485 0.703087 20.5441
0.735477 0.524131 21.1331
0.363118 0.190109 21.3449
0.186543 -0.0471188 21.3433
0.0775301 -0.226943 21.3877
-1.23624 -0.687024 20.2795
-2.01382 -2.69953 19.2751
-1.36862 -1.24494 20.169
-2.19076 -1.26472 19.6383
-1.08749 -0.809962 19.6657
-2.20175 -1.70167 21.0499
-0.981563 -0.652431 21.3997
-1.10077 -0.739551 19.3229
-0.819674 -0.830931 21.8139
-1.24283 -1.25184 22.5763
0.0229238 -0.4256 21.8886
-0.117345 -0.418546 21.5456
0.449861 -0.0226798 12.5252
0.0860847 -0.140985 21.6937
0.350608 -0.667067 20.4525
0.448206 -0.316583 21.2267
0.352532 -0.323768 21.6906
1.56984 0.27698 14.551
0.651268 0.0925918 21.804
0.472868 -0.644506 20.1213
1.25355 0.0727664 21.294
0.893866 -0.151088 21.5902
1.60187 1.04505 15.347
1.16765 0.435064 21.5505
1.42524 -0.385096 20.1882
1.6922 0.172402 21.088
1.2579 -0.114083 21.3765
2.26536 1.26083 15.3916
1.48699 0.509127 21.2358
1.80612 -0.32845 20.0254
1.79661 0.115714 20.2956
-1.69281 -0.361378 20.0017
-4.22469 -1.76351 16.1109
-2.9766 0.238437 18.8212
-1.46541 -0.463517 19.158
-4.68667 -0.873757 20.6904
-1.62416 -0.513236 21.4597
-3.48558 -0.225877 22.0921
-0.706347 -1.60779 20.9063
-0.649426 -0.739895 21.6934
-2.32887 -0.887858 21.8404
-0.281816 -0.858259 18.2527
-0.280139 -0.671078 21.7923
-0.816091 -0.143468 20.1182
0.476906 -0.163896 15.9969
0.331786 -0.784716 21.8401
-0.936981 -1.19217 2.34328
-0.428476 -0.476281 20.894
0.639344 -0.885783 19.5796
0.759039 -0.795165 21.5365
0.614229 -0.737389 8.368
0.149618 -0.813425 21.6672
1.14434 -0.865453 20.0892
-1.28898 0.477317 19.8743
-1.8201 1.81651 18.4471
-0.885389 0.883216 19.7623
-1.08711 0.523604 19.2892
-2.21997 1.39041 19.8526
-1.64043 0.630323 20.7154
-2.63598 2.62007 20.1827
-1.09734 1.1017 20.4341
-2.18146 1.10399 21.1531
-1.20518 0.380335 21.4006
-2.26743 2.12489 22.0908
-0.808781 0.832108 21.1912
-1.08329 0.566693 21.7939
-0.574522 0.0935293 21.5775
-0.638931 0.534666 21.964
-0.349049 0.308992 21.4481
-0.412541 0.0683694 21.675
-0.218427 -0.16737 21.4433
-0.264383 0.0458728 21.6242
-0.186249 0.00897943 21.4225
-0.147261 -0.239287 21.4877
0.0289779 -0.339684 21.3139
-0.0760736 -0.338584 21.4745
-0.0679839 -0.187525 21.4047
0.0517048 -0.433138 21.2105
2.00067 -2.82206 19.2184
-0.0235671 -3.74008 19.6492
-0.0840923 -6.45879 15.9747
-0.0491895 -2.08391 18.3989
-0.00317462 -5.30344 23.321
1.10778 -0.738982 19.2929
0.00175049 -1.47166 22.8605
0.00109571 0.00235349 8.28595
-0.423289 0.0174826 12.9513
0.00425293 -0.145332 18.5553
-0.00586118 0.129127 9.0419
-1.54057 0.268439 14.8997
0.010401 0.686773 18.6916
0.0564496 0.700164 9.70512
-1.31295 1.24811 13.5383
0.056656 1.2116 18.5278
0.0521269 -0.742224 0.793888
0.160395 0.862487 7.73997
-1.73059 1.82767 12.1163
0.167914 1.95358 16.6527
0.427072 0.796497 0.81692
0.335918 2.67173 8.50625
4.25607 -1.85419 15.7623
-0.107324 2.76065 11.1659
-0.0746666 -1.31598 16.382
1.29973 -0.917076 0.899935
-0.00873571 1.10125 -0.627059
-0.128033 0.564814 -4.13516
-0.275819 -0.72015 0.138203
-0.217476 0.138378 1.47391
0.0559057 1.46131 -4.39205
1.79467 1.8937 18.401
-0.0107817 1.67988 19.1696
-0.04131 1.33861 17.8962
-0.0149592 4.59675 18.2429
2.64015 2.66485 20.1689
-0.0237161 2.37083 20.0358
-0.0352244 5.36546 19.9848
2.26814 2.23269 22.1171
-0.0228349 1.76237 21.3074
-0.0248158 1.88527 22.481
0.638004 0.564794 22.013
-0.0171321 0.578785 21.6141
-0.013794 0.461952 21.854
0.286045 0.0735842 21.6167
-0.0152912 0.10715 21.5187
-0.0288604 0.083311 21.7599
0.134868 -0.300866 21.5628
-0.014967 -0.156888 21.4966
-0.013807 -0.413006 21.5153
1.21153 -0.660085 20.2646
1.39027 -1.28135 20.1615
2.24367 -1.32257 19.5935
1.09956 -0.863484 19.6264
2.20688 -1.6927 21.0542
0.979004 -0.640112 21.3953
0.824068 -0.826059 21.8049
1.24819 -1.23534 22.5462
0.0103721 -0.454074 21.9228
0.133247 -0.406088 21.5308
-0.0743443 -0.156218 21.6936
-0.319484 -0.675511 20.6801
-0.417137 -0.340713 21.4027
-0.332312 -0.298199 21.6709
-0.627313 0.0721934 21.8067
-0.488425 -0.632364 20.4195
-1.24518 0.0826802 21.3378
-0.978206 -0.113907 21.6143
-1.21903 0.583462 21.4664
-1.5576 -0.141627 18.0968
-1.98913 0.54974 19.408
-1.5566 -0.0398252 21.4256
-1.72661 0.910638 20.996
-2.23699 0.110486 15.985
-2.23344 0.951708 17.4718
1.72031 -0.378002 19.9931
3.0307 0.257648 18.7039
1.52373 -0.501481 19.027
4.64242 -0.865148 20.6907
1.60254 -0.503693 21.4319
3.46037 -0.227686 22.0812
0.742116 -1.5862 21.1064
0.650047 -0.707687 21.6774
2.30209 -0.887121 21.8639
0.30553 -0.921443 18.6972
0.255694 -0.652407 21.8012
0.820865 -0.176463 20.2487
-0.532977 -0.195205 16.3821
-0.402558 -0.876553 21.6228
0.293474 -0.302857 18.4547
-0.550941 -0.691242 13.0126
-0.875659 -1.01965 21.7507
-0.252533 -0.887437 20.1388
-1.32978 -0.937079 14.6242
1.30852 0.496188 19.8588
0.886629 0.898642 19.7506
1.10517 0.564156 19.2353
2.22632 1.40337 19.8513
1.64882 0.632417 20.7205
1.1096 1.12964 20.4266
2.20634 1.12957 21.1578
1.21812 0.387093 21.4135
0.817772 0.868664 21.2043
1.09898 0.589646 21.8295
0.583261 0.0930573 21.5988
0.363306 0.332164 21.4826
0.413294 0.0647108 21.7056
0.241072 -0.179808 21.5192
0.155508 0.0189765 21.4101
0.164015 -0.233625 21.5348
-0.00164217 -0.388152 21.3688
0.0686827 -0.161599 21.4226
-0.0252709 -0.509677 21.3835
-1.74658 -1.35907 19.9378
-0.947189 -0.974383 22.1253
0.328679 -0.263604 21.4415
0.811655 -0.24362 21.323
1.52585 0.106022 21.2112
1.94254 0.200064 20.8171
-2.91607 -0.698124 19.0391
-2.28298 -1.16185 22.8567
-0.38757 -1.49755 19.355
-0.264733 0.0418911 17.1311
0.379069 -0.694645 17.5543
0.900293 -0.994388 20.1978
-1.69456 1.00169 19.2954
-2.26766 1.32463 20.6084
-1.75277 0.90633 21.6536
-0.659413 0.270975 21.7594
-0.270951 -0.0890627 21.5305
-0.017004 -0.373409 21.3926
-0.0501304 -5.14345 18.5055
0.000671003 -0.469683 13.1426
-0.00144825 0.0171617 8.25434
0.034644 0.58044 8.70711
0.0875956 0.603265 8.17338
0.21967 1.50215 7.77791
-0.102235 -3.09992 10.7064
-0.0699733 -0.39839 -2.28088
-0.0488504 1.15107 -4.79032
-0.0409406 2.93798 17.3269
-0.0251717 4.54534 19.2228
-0.0447884 3.95664 22.4075
-0.021137 0.910497 22.1371
-0.0301354 0.287673 21.6565
-0.00702222 -0.168328 21.707
1.78137 -1.40478 19.9245
0.959277 -0.970337 22.1117
-0.286762 -0.309811 21.5827
-0.777302 -0.246627 21.4782
-1.66339 0.30149 20.5758
-2.31156 0.699354 18.8699
2.98767 -0.727452 18.9667
2.27326 -1.14661 22.8219
0.421595 -1.52526 19.7533
0.254326 -0.0301949 17.5178
-0.481552 -0.527429 14.0336
-0.91504 -0.805354 13.7277
1.70338 1.03192 19.2667
2.28111 1.34481 20.6078
1.78316 0.932503 21.6747
0.671501 0.287697 21.7992
0.280178 -0.0792689 21.5907
0.069905 -0.385535 21.4622
-0.783606 -0.355049 0.689494
0.0671146 -0.38203 1.85725
-0.00150519 0.00355616 0.0187908
-0.00737624 -0.0344506 0.0192514
-0.00619431 0.105226 0.247772
0.0473359 0.0149153 1.21384
-1.59996 0.529208 1.30078
-0.0508178 0.280572 0.303378
-0.0601072 0.0212408 0.183973
-0.0459165 -0.0677349 0.0434089
-0.0143107 0.0129123 -0.0119442
0.022031 0.0257656 0.316567
-0.0777701 -0.390128 1.87038
0.769256 -0.351198 0.687493
0.00160208 0.00385025 0.0206366
0.0134293 0.0841924 0.246216
0.00674942 -0.0314853 0.0188275
-0.0480314 0.0194466 1.21487
0.0526176 0.282199 0.307046
1.58491 0.54647 1.73005
0.0605063 0.0213 0.184758
0.0208445 0.0107937 -0.0104898
0.0451649 -0.074457 0.0534109
-0.02206 0.0222808 0.34047
-0.0232031 0.106158 1.50662
0.00429513 0.00342275 0.116301
0.000291559 0.00140791 0.00211964
-9.87047e-05 0.000115768 0.00877629
0.113906 -1.14602 5.36063
0.00612206 0.00333821 0.391213
1.94371e-06 0.000819665 0.00216039
0.000636292 1.05894e-05 0.00658353
-0.546512 -0.348319 0.93185
-0.00126346 -0.00097594 0.051128
0 0 0
-0.140026 0.119116 0.248737
0.00637655 0.0138156 0.036353
0 0 0
0.00125342 0.0032312 0.00590632
0.00141663 0.000639089 0.0214558
0.0234676 0.106245 1.50726
0.000105623 0.000115283 0.00876638
-0.00419385 0.00369888 0.117105
-0.000294718 0.00143322 0.00215743
-0.0586302 -1.11068 5.30108
-0.000630321 9.99962e-06 0.00665624
-0.00401648 0.00724822 0.37216
-1.73936e-06 0.000824119 0.00212898
0.553253 -0.35045 0.940961
0.145486 0.122797 0.256438
0.00128622 -0.000932007 0.0518482
0 0 0
-0.00628102 0.0136066 0.036977
-0.00127347 0.000606092 0.0208809
0 0 0
-0.00132588 0.00341709 0.00629543
-0.000275224 -0.000654697 0.00633923
-0.496002 -0.184648 0.171318
-9.39821e-07 -3.08848e-07 -3.67263e-05
1.31773e-05 0.00101914 -0.000220912
9.04581e-06 6.3433e-05 0.000683325
-0.00841833 0.00234609 0.146986
0 0 0
-0.038722 -0.0316011 0.00106592
0 0 0
0 0 0
-0.000734659 -0.000174847 0.0321806
0 0 0
0 0 0
-7.34726e-07 0.0108765 0.0349394
-0.00502931 -0.0222161 0.155932
0 0 0
0.000741225 0.000858269 -0.000731643
0.000315322 -0.00080566 0.0166621
0 0 0
0.00304063 -0.000770292 0.0353921
0.499407 -0.182067 0.171313
0.000284451 -0.000673821 0.00653458
0.00843202 0.00230279 0.147893
-9.4414e-06 6.69659e-05 0.000717831
0.040271 -0.0263396 0.000405953
0 0 0
0 0 0
0.000729933 -5.78582e-05 0.0322816
0 0 0
0.00509934 -0.022194 0.155918
-0.00256711 -0.000836205 0.0359406
0 0 0
-0.000150747 0.00605264 0.0209682
0.00092025 3.98171e-05 0.014978
0.0390829 -0.0319492 0.128149
0.000844252 0.00515838 0.0257252
-4.62893e-07 3.94692e-06 0.000451895
-8.59811e-07 9.22378e-08 2.50708e-05
0.000229289 0.00277948 0.00598536
0.000217145 0.0032723 0.00570637
0 0 0
0.00278071 0.045868 0.141179
0.0362743 0.100008 0.245174
0 0 0
-5.21602e-05 0.00126705 0.00225938
0.000211373 0.193661 0.491496
0.000136881 0.0027878 0.0659795
4.30096e-06 -1.66325e-05 0.000762
-0.000900908 4.00203e-05 0.0150538
0.000157788 0.00617066 0.0211688
-0.0384159 -0.0312932 0.125767
-0.000839216 0.00516072 0.0258376
-0.000225583 0.00279879 0.005984
-0.00023158 0.00343568 0.00588324
1.97787e-05 3.2439e-05 0.000335608
-0.0364363 0.0998542 0.246276