# vtk DataFile Version 2.0
tri_press
ASCII
DATASET UNSTRUCTURED_GRID
POINTS 3682 float
-0.695 0.155 -1.79196
-0.611653 0.225 1.875
-0.695 0.703834 -1.705
-0.671545 0.815 1.735
0.705 0.155 -1.78846
0.685 0.255 1.77655
0.705 0.705 -1.69956
0.655 0.815721 1.735
-0.705151 0.1404 -0.56964
-0.674333 0.166769 0.65268
-0.813952 0.86766 -0.558333
-0.803474 0.902055 0.588333
0.752939 0.133728 -0.600123
0.764173 0.14916 0.588213
0.816746 0.87032 -0.554707
0.796112 0.903259 0.590147
-1.44848 -0.229873 -2.73782
-1.43984 -0.186636 -1.79522
-1.43625 -0.18728 -0.573181
-1.39003 -0.170105 0.665267
-1.32784 -0.124806 1.88858
-1.31829 -0.106617 2.83754
-1.32816 -0.0971514 3.77354
-1.45421 0.0885174 -2.71589
-1.45268 0.151114 -1.7814
-1.46933 0.163615 -0.569784
-1.41529 0.172273 0.651324
-1.3259 0.194903 1.86448
-1.32449 0.211657 2.8134
-1.34252 0.224532 3.75124
-1.46607 0.699391 -2.65462
-1.47607 0.761198 -1.72052
-1.55579 0.871765 -0.559896
-1.52132 0.888261 0.598687
-1.39882 0.83191 1.763
-1.38565 0.844647 2.7304
-1.39808 0.869353 3.68883
-1.50281 1.71915 -2.60238
-1.51568 1.79117 -1.67537
-1.55894 1.89425 -0.538336
-1.58192 1.9338 0.587493
-1.56028 1.90763 1.73042
-1.53383 1.89231 2.6697
-1.51695 1.89749 3.62193
-0.715268 -0.230215 -2.74533
-0.697139 -0.185666 -1.80752
-0.690372 -0.202072 -0.583348
-0.662812 -0.174565 0.655247
-0.627861 -0.102723 1.88036
-0.619086 -0.0922935 2.82691
-0.624106 -0.0906848 3.76076
-0.719679 0.082865 -2.71919
-0.625879 0.223348 2.80602
-0.639504 0.228998 3.73918
-0.723977 0.674419 -2.64846
-0.681575 0.838851 2.71866
-0.692101 0.866351 3.6762
-0.748722 1.70428 -2.59777
-0.752135 1.77842 -1.67025
-0.794265 1.89373 -0.53769
-0.835065 1.9375 0.580581
-0.835047 1.90435 1.71775
-0.81494 1.88639 2.6559
-0.798907 1.89234 3.60828
0.727849 -0.231127 -2.74925
0.735129 -0.187303 -1.81355
0.769234 -0.208456 -0.61197
0.773521 -0.184759 0.599209
0.726741 -0.0894714 1.80388
0.747003 -0.0820272 2.76719
0.767339 -0.0854092 3.71491
0.713637 0.0826039 -2.71963
0.723267 0.235922 2.74792
0.745719 0.234724 3.69567
0.715566 0.674858 -2.64694
0.682161 0.843541 2.69154
0.701245 0.869783 3.64426
0.742874 1.70425 -2.6012
0.757126 1.7786 -1.67335
0.742115 1.89369 -0.542773
0.684333 1.93685 0.572145
0.632538 1.90367 1.70505
0.6273 1.88622 2.63824
0.63706 1.89253 3.58634
1.46223 -0.23207 -2.7492
1.47334 -0.190199 -1.81196
1.51176 -0.197269 -0.620982
1.50589 -0.183558 0.576543
1.4472 -0.115044 1.77261
1.45118 -0.0941741 2.73431
1.47209 -0.0893106 3.68737
1.44868 0.0874892 -2.72129
1.45944 0.149735 -1.78766
1.51263 0.15551 -0.608996
1.50235 0.156601 0.569677
1.41537 0.208083 1.7517
1.42346 0.226075 2.71531
1.44843 0.232969 3.66934
1.45295 0.6997 -2.6557
1.47189 0.762516 -1.71809
1.55295 0.871569 -0.569802
1.51942 0.883039 0.571015
1.39347 0.831902 1.72082
1.38786 0.850623 2.67222
1.40797 0.874481 3.62583
1.48429 1.71876 -2.61116
1.50189 1.79102 -1.68408
1.49812 1.89353 -0.551513
1.44319 1.93197 0.567024
1.37834 1.90593 1.70141
1.35922 1.89164 2.63229
1.36187 1.89755 3.57738
-0.711612 0.429417 -1.76509
0.005 0.133717 -1.81149
-0.721705 0.12607 -1.1808
-0.680299 0.52 1.8437
0.0366735 0.232936 1.83284
-0.635308 0.203569 1.26384
0.005 0.800963 -1.79883
-0.795631 0.826902 -1.13167
-0.00827253 0.875015 1.79465
-0.776411 0.89743 1.16167
0.721724 0.43 -1.76073
0.749901 0.123432 -1.19429
0.713259 0.53536 1.79903
0.72661 0.200057 1.18238
0.800813 0.827599 -1.12713
0.766587 0.900521 1.16257
-0.685399 0.157928 0.04152
-0.874904 0.50403 -0.563987
0.0238937 0.155533 -0.584882
-0.872891 0.534412 0.620507
0.0449202 0.176364 0.620447
-0.814397 0.890542 0.015
0.00139677 1.14443 -0.55652
-0.00368113 1.30205 0.58924
0.754215 0.145785 -0.00595498
0.879202 0.502024 -0.577415
0.866931 0.52621 0.58918
0.812362 0.892723 0.01772
-0.883877 0.466723 -1.15623
0.878842 0.466012 -1.16071
0.0144469 0.14712 -1.18755
0.00319838 0.938084 -1.1294
0.005 0.429708 -2.04215
-0.880664 0.519221 0.02826
0.879429 0.514117 0.0058825
0.0344069 0.167819 0.0177825
-0.00114218 1.32832 0.01636
-0.864487 0.527206 1.21275
0.874162 0.530785 1.17248
0.0407969 0.207323 1.22311
-0.00597683 1.1342 1.16212
0.0142005 0.52768 2.03899
-0.693881 0.292209 -1.7691
-0.345 0.132349 -1.81374
-0.725925 0.122962 -1.48638
-0.650325 0.3725 1.8637
-0.28749 0.229295 1.85359
-0.634124 0.203642 1.56942
-0.722827 0.566625 -1.75457
-0.345 0.785598 -1.78511
-0.76834 0.788392 -1.41833
-0.682559 0.6675 1.79599
-0.339909 0.875361 1.79518
-0.745823 0.87806 1.44833
0.355 0.13243 -1.81191
0.70374 0.2925 -1.76497
0.744869 0.121798 -1.49138
0.360837 0.234779 1.81388
0.717405 0.39518 1.80607
0.725955 0.207379 1.47947
0.355 0.786312 -1.78252
0.733016 0.5675 -1.7498
0.775842 0.789236 -1.41335
0.323364 0.876546 1.796
0.693304 0.675541 1.77619
0.732172 0.8795 1.44879
-0.71454 0.132123 -0.87522
-0.696235 0.148203 -0.26406
-0.8707 0.281879 -0.566813
-0.343251 0.142721 -0.577261
-0.644357 0.195633 0.95826
-0.678095 0.164119 0.3471
-0.872377 0.301208 0.636593
-0.316607 0.167765 0.636563
-0.808955 0.851444 -0.845
-0.870499 0.69888 -0.56116
-0.815171 0.880097 -0.271667
-0.453946 1.10138 -0.557427
-0.791552 0.901352 0.875
-0.868524 0.733405 0.60442
-0.810667 0.89803 0.301667
-0.48218 1.25926 0.588787
0.754964 0.125036 -0.897208
0.389598 0.142267 -0.592503
0.749128 0.144206 -0.303039
0.876504 0.287659 -0.588769
0.76326 0.15674 0.885298
0.403537 0.164782 0.60433
0.759399 0.147267 0.291129
0.868797 0.311063 0.588697
0.811783 0.851963 -0.84092
0.455465 1.10016 -0.555613
0.875004 0.699687 -0.566061
0.815914 0.882881 -0.268493
0.781866 0.902407 0.87636
0.475038 1.2603 0.589693
0.862409 0.730178 0.589663
0.805856 0.899609 0.303933
-0.872086 0.44807 -1.46066
-0.353306 0.429563 -2.00192
0.00972342 0.14126 -1.49952
0.005 0.281713 -2.03085
-0.873634 0.296397 -1.16852
-0.353629 0.130511 -1.18417
-0.856636 0.523603 1.52823
-0.333049 0.52384 2.00431
0.0387352 0.215722 1.52798
0.025437 0.380308 2.0124
-0.850942 0.365388 1.2383
-0.297256 0.209862 1.24348
0.00409919 0.892225 -1.46411
0.005 0.615336 -1.99723
-0.885918 0.646813 -1.14395
-0.396216 0.923216 -1.13053
-0.00712468 1.02397 1.47839
0.00296398 0.701347 1.91951
-0.865101 0.712318 1.18721
-0.391194 1.10864 1.16189
0.863183 0.448006 -1.46072
0.363362 0.429854 -2.00021
0.867754 0.294722 -1.1775
0.382174 0.13059 -1.19092
0.87099 0.533073 1.48576
0.36373 0.53152 1.99218
0.863519 0.365421 1.17743
0.383703 0.188481 1.20275
0.882913 0.646806 -1.14392
0.402005 0.923869 -1.12827
0.872055 0.715653 1.16753
0.380305 1.1098 1.16235
-0.877403 0.291389 0.03489
-0.331457 0.150951 0.0296513
-0.885877 0.485377 -0.86011
-0.87889 0.511626 -0.267863
0.0191703 0.152724 -0.886214
0.0291503 0.161486 -0.28355
-0.879897 0.526817 0.324383
-0.866209 0.530809 0.91663
0.0396636 0.172395 0.319115
0.0428585 0.196207 0.921779
-0.875891 0.719062 0.02163
-0.498035 1.28996 0.01568
0.00229758 0.976785 -0.84296
0.000127298 1.27503 -0.27008
-0.00241165 1.33335 0.3028
-0.00482898 1.23195 0.87568
0.878282 0.299221 -3.62396e-05
0.396078 0.153269 0.00591376
0.88435 0.484018 -0.869064
0.880903 0.50807 -0.285766
0.875035 0.520163 0.297531
0.874944 0.528497 0.880829
0.87489 0.717917 0.0118012
0.495491 1.29029 0.01704
-0.866551 0.294303 -1.47352
-0.87833 0.309306 -0.867665
-0.875634 0.666329 -0.852555
-0.874696 0.606719 -1.4395
0.856656 0.293611 -1.47605
0.868557 0.607153 -1.43703
0.873182 0.666489 -0.854992
0.87276 0.306299 -0.883136
-0.349315 0.127883 -1.49295
0.368587 0.126681 -1.49545
0.385295 0.133369 -0.891711
-0.347129 0.132503 -0.880717
-0.370608 0.880875 -1.44122
-0.401247 0.948844 -0.84398
0.405538 0.934348 -0.84194
0.378503 0.881189 -1.43873
-0.349153 0.286961 -1.98134
-0.349153 0.590981 -1.93672
0.359181 0.591418 -1.93015
0.359181 0.287106 -1.98127
-0.874269 0.286525 -0.265962
-0.877535 0.294976 0.335742
-0.87554 0.727899 0.313025
-0.873846 0.709296 -0.269765
0.878737 0.292768 -0.294403
0.876415 0.709536 -0.27713
0.870292 0.724869 0.300732
0.875873 0.303975 0.29433
-0.338583 0.144378 -0.273805
0.391936 0.149572 -0.293294
0.400637 0.157367 0.305122
-0.324905 0.157613 0.333107
-0.492923 1.22954 -0.270873
-0.498957 1.29231 0.302233
0.49411 1.29298 0.303367
0.492485 1.22924 -0.269287
-0.857938 0.357989 0.937445
-0.841358 0.368944 1.54882
-0.842773 0.689909 1.48828
-0.862945 0.715276 0.895815
0.866879 0.351553 0.883063
0.853976 0.715194 0.878594
0.848778 0.695597 1.46727
0.859618 0.380301 1.48261
-0.305981 0.171182 0.940019
0.394125 0.180032 0.903538
0.37227 0.219404 1.50372
-0.292373 0.21864 1.5487
-0.397386 1.20298 0.87534
-0.365551 1.00521 1.46336
0.351834 1.0064 1.46359
0.38826 1.2039 0.87602
-0.31027 0.376404 1.98419
0.362283 0.387744 1.97466
0.343547 0.688444 1.92864
-0.336479 0.684424 1.92421
-0.69664 0.223604 -1.78273
-0.52 0.137739 -1.80878
-0.718381 0.131063 -1.63917
-0.616957 0.29875 1.85532
-0.449571 0.223718 1.86773
-0.630447 0.206762 1.72221
-0.712808 0.63523 -1.73368
-0.52 0.763207 -1.76355
-0.743085 0.757528 -1.56167
-0.683984 0.74125 1.77243
-0.505727 0.87151 1.79142
-0.718421 0.856267 1.59167
0.53 0.138283 -1.80561
0.706805 0.22375 -1.77915
0.729957 0.133377 -1.63992
0.522918 0.231633 1.80847
0.706739 0.32509 1.79685
0.727123 0.209543 1.62801
0.53 0.764192 -1.75958
0.722946 0.63625 -1.72862
0.751548 0.758245 -1.55645
0.489182 0.87207 1.79144
0.678176 0.745631 1.75962
0.704048 0.858072 1.59189
-0.707479 0.138628 -0.72243
-0.699745 0.14525 -0.41685
-0.848077 0.181063 -0.568227
-0.521781 0.146402 -0.573451
-0.658425 0.182121 0.80547
-0.674418 0.16724 0.49989
-0.849704 0.195814 0.644637
-0.498497 0.161213 0.644622
-0.813745 0.861843 -0.701667
-0.858066 0.79119 -0.559747
-0.814614 0.873931 -0.415
-0.658153 1.03293 -0.55788
-0.797197 0.901388 0.731667
-0.856075 0.827768 0.596377
-0.807275 0.900248 0.445
-0.654163 1.10333 0.58856
0.757063 0.126271 -0.748666
0.562622 0.15529 -0.596313
0.754217 0.135783 -0.451581
0.852817 0.191646 -0.594446
0.76602 0.150646 0.736756
0.574674 0.175333 0.596272
0.762031 0.147969 0.439671
0.849686 0.213511 0.588455
0.815543 0.86242 -0.697813
0.659385 1.0318 -0.55516
[...]
POINT_DATA 3682
SCALARS point_scalars float 1
LOOKUP_TABLE default
-87.205
-44.6112
-21.2458
-37.3208
-84.9839
-46.256
-26.8473
-37.4531
-42.1207
-42.4027
-56.3534
-50.9552
-42.2979
-39.236
-56.5239
-50.5291
-73.6556
-93.4989
-50.594
-41.4735
-49.4486
-44.0738
-37.9308
-73.6556
-97.0406
-43.1141
-42.2801
-50.3534
-39.0418
-37.4059
32.3728
-82.4765
-50.804
-46.7125
-45.12
-37.9293
-36.9558
-18.1362
-59.8421
-82.4266
-62.5251
-39.9
-36.3626
-35.3567
-0.0699724
-143.245
-42.1915
-41.9643
-45.1561
-40.9393
-37.7
18.4083
-37.7563
-37.406
143.238
-36.3854
-36.8002
-5.5875
-47.3026
-75.567
-64.706
-35.8297
-33.5633
-32.9362
-55.5673
-141.365
-42.6723
-39.2193
-48.8765
-41.1775
-37.7163
9.56774
-37.8005
-37.5763
144.736
-36.7457
-37.006
-1.60813
-48.4793
-66.9388
-65.5294
-34.9899
-33.1074
-32.7244
-78.2309
-110.682
-52.8855
-39.2909
-51.7611
-43.4693
-38.3378
-48.7181
-110.682
-44.8474
-40.0289
-51.4238
-40.4612
-37.8337
27.697
-83.4336
-51.6872
-45.4465
-49.6236
-38.284
-37.0679
-17.6185
-60.8874
-81.0253
-61.706
-38.7936
-35.9314
-35.6259
-7.35505
-132.424
-62.2463
-38.1848
-43.7388
-38.1803
-48.2253
-53.2885
-31.3711
-42.8016
-11.5726
-61.6352
-39.245
-39.5548
-51.922
-43.2103
-38.213
-44.9251
-42.8216
-43.1137
-41.5748
-57.9819
0.914425
-60.9484
-38.2327
-46.0838
-41.3678
-58.72
-70.6841
-67.5601
-61.1042
-14.9645
203.689
-44.1441
-44.8874
-38.7399
-98.1319
-40.749
-41.6525
-40.2741
-37.0684
-34.5006
-11.0359
-126.184
-92.6366
-39.6182
-44.488
-43.2271
-14.6889
-34.863
-58.8249
-38.0322
-31.8805
-39.8749
-125.082
-15.1773
-90.6014
-44.6684
-40.9026
-42.3842
-36.6345
-18.2509
-59.788
-32.3417
-38.6227
-40.0846
-48.4239
-39.5389
-42.9779
-42.4609
-40.5017
-38.9819
-42.5117
-40.1951
-48.1512
-48.6415
-59.5954
-6.94252
-46.0713
-45.1766
-54.9175
-59.815
-48.62
-42.5579
-39.2505
-44.6182
-47.3549
-40.3289
-38.2314
-40.0791
-47.5729
-8.14742
-49.463
-61.018
-45.6501
-59.6072
-43.9591
-54.7651
-120.175
173.327
-83.5111
175.695
-68.8839
-60.5217
-47.8753
-36.7289
-40.395
-37.429
-39.6697
-39.2833
-40.0704
149.883
-71.1675
-21.7034
-32.4892
-32.1081
-41.5532
-38.0128
-113.5
170.978
-66.4791
-60.7232
-47.9023
-36.8756
-40.4812
-40.4545
-67.8469
-22.1449
-42.7002
-38.0202
-40.9474
-38.5379
-53.8464
-43.4507
-49.6785
-40.6983
-44.1978
-39.8462
-38.8036
-40.1462
-48.6848
-89.3172
10.41
-72.7447
-81.6745
-45.3442
-41.6781
-38.2185
-53.7494
-45.2449
-43.62
-38.4821
-49.399
-89.8398
-117.389
-52.2521
-54.2687
-82.3092
-112.023
-86.6299
-52.9981
-52.3018
-83.2692
-83.1475
-49.4383
-49.3844
-40.959
-2.42598
-3.58761
-41.1734
163.717
157.316
151.49
161.468
-40.6733
-41.7092
-47.3279
-48.6386
-42.1648
-50.3864
-46.6211
-41.133
-40.3436
-40.0722
-38.7578
-38.4532
-68.5295
-75.4837
-75.4716
-69.3898
-40.3749
-46.841
-47.3918
-41.934
-41.6587
-40.279
-48.7509
-46.7617
-42.5244
-40.9072
-41.652
-40.5439
-46.5527
-33.3608
-33.5393
-46.4195
-37.9695
-37.9929
-34.7543
-34.0248
-23.7525
-134.028
-115.267
-41.729
-43.6483
-47.4367
-12.3507
-29.6153
-55.5992
-38.0218
-33.8446
-38.5673
-135.63
-22.2962
-113.435
-45.6009
-43.006
-48.973
-34.8948
-13.5131
-56.9886
-34.2245
-38.4656
-38.9019
-45.046
-40.534
-41.9549
-41.9225
-43.6036
-39.8127
-41.4763
-41.0182
-52.342
-52.4446
-58.5319
-52.5898
-48.7346
-47.8676
-53.0467
-55.1614
-47.2762
-42.5234
-41.3875
-42.1152
-40.9079
-40.0944
-38.8453
-39.7129
-51.282
-51.7786
-53.3674
-60.7097
-48.2971
-55.0453
-46.4024
-52.6324
-3.31208
-10.6834
-58.3063
109.188
-130.845
-129.554
-100.19
61.5362
-74.8043
-53.9474
-67.3279
-60.9808
-38.6755
-38.0853
-45.5047
-36.8675
-44.5176
-44.1011
-43.0169
-39.4165
-38.7227
-37.8009
-39.1013
-39.2096
-47.3763
-47.2192
-49.9914
68.1591
-57.3328
-48.9581
-68.9374
-32.5729
-31.4825
-31.7866
-31.0501
-30.7617
-41.3272
-43.7289
-42.5677
-40.3616
-6.99497
-13.6028
-77.858
106.85
-73.7054
-53.9964
-64.9022
-61.337
-40.1244
-39.0991
-46.9727
-36.9686
-39.1392
-38.7393
-39.1408
-40.7688
-56.2959
-47.3942
-66.6294
-32.5134
-41.8892
-43.7898
-43.5049
-40.4556
-38.3122
-38.3312
-38.845
-38.1914
-43.5741
-46.3767
-49.1894
-43.6911
-42.8606
-42.6567
-45.8772
-41.8143
-42.7765
-43.8061
-43.915
-42.1229
-41.6704
-41.3833
-39.5567
-39.5832
-59.0775
-56.3701
-52.1301
-68.9041
0.461141
0.726146
17.6858
-32.7166
-60.4199
-60.4073
-70.4301
-52.5108
-38.684
-38.0857
-40.2293
-38.2856
-45.2226
-47.3866
-48.4952
-45.6243
-40.6987
-42.3798
-42.4839
-39.4912
-60.3032
-56.653
-52.8932
-69.9216
-90.7592
-70.1643
-70.6944
-60.313
-82.9354
-67.2972
-67.3406
-59.6754
-70.624
-61.2813
-61.0854
-54.6876
-27.0012
-16.3021
-16.5782
-2.0979
199.544
196.886
188.201
198.46
-42.6737
-44.0065
-43.9895
-45.8964
-43.4169
-45.0739
-44.1707
-46.7121
-38.6747
-39.3439
-38.5419
-38.691
-96.0679
-96.6271
-91.7642
-96.1907
-43.0708
-40.3473
-41.1971
-39.9185
-43.9855
-41.2083
-42.0849
-40.8312
-39.5855
-39.4945
-40.6361
-40.1825
-34.4954
-37.2811
-37.2636
-40.4812
-35.0699
-36.2595
-32.5332
-35.6291
-75.2473
98.8913
-98.8859
78.0496
-111.76
-85.7776
-48.3438
-38.281
-42.2873
-39.3065
-47.5179
-41.2425
-65.3009
87.753
-48.4809
52.961
-66.5612
-46.1297
-43.6771
-36.1755
-32.1241
-33.4356
-44.332
-35.0563
-98.7064
81.6907
-91.245
97.1953
-100.119
-85.5617
-42.839
-39.8649
-50.5718
-38.1492
-45.9305
-42.1514
-49.2966
64.9075
-76.2612
86.2052
-72.1377
-46.4895
-32.3987
-34.1192
-44.0612
-36.5919
-45.0609
-35.2673
-49.8292
-49.2675
-38.8234
-40.0116
-48.7111
-41.3199
-46.0236
-41.0757
-40.6889
-40.8336
-40.8721
-38.7689
-41.9837
-42.9868
-39.6597
-40.5889
-54.4412
-21.0318
-49.6127
-48.4746
-52.8108
-77.3367
4.23934
-35.3801
-43.3884
-48.1898
-46.4706
-43.5227
-50.2128
-61.5173
-67.4021
-53.1778
-50.7198
-49.63
-46.336
-41.3141
-40.9474
-39.8725
-47.912
-43.0678
-47.871
-42.1628
-39.1568
-40.8434
-39.5905
-38.0167
-40.781
-38.7542
-53.2537
-21.3633
3.73054
-35.746
-49.6072
-50.4941
-54.4224
-79.0415
-42.7961
-47.8429
-67.0738
-52.8885
-45.7375
-42.2868
-49.9744
-61.5505
-121.292
-110.248
161.376
168.15
-82.9395
-82.4757
178.665
177.257
-87.2658
-58.4307
-70.2935
-53.9471
-46.7255
-48.6298
-37.3852
-35.2451
-40.9493
-40.5896
-37.6357
-37.8574
-38.6852
-42.4016
-39.4141
-39.6563
-39.573
-39.6804
157.883
157.021
-61.2139
-94.0203
-32.2045
-12.1671
-32.771
-32.8748
-33.3316
-32.8172
-44.4619
-40.7115
-41.4922
-35.2494
-114.973
-106.276
166.204
165.072
-82.0019
-58.3521
-70.2025
-54.0489
-49.2404
-47.2757
-37.5131
-36.1513
-40.0622
-42.4637
-39.9061
-41.3307
-87.3219
-59.58
-12.7135
-32.3654
-40.4043
-46.3275
-35.3171
-41.4372
-40.859
-41.0454
-38.8576
-38.3018
-53.2432
-54.5566
-41.926
-45.4636
-49.6933
-49.5293
-40.7804
-40.5461
-43.1775
-45.3483
-39.8047
-40.544
-38.8113
-38.6657
-40.5667
-40.6633
-47.8722
-49.1202
-91.9541
-83.0707
6.804
6.84713
-70.2996
-69.8607
-80.3205
-80.3447
-45.5789
-45.5816
-41.8672
-41.2348
-38.8488
-38.2563
-54.1739
-52.8904
-43.6623
-47.1667
-44.7955
-42.5461
-40.1648
-38.0536
-50.1322
-47.9048
-83.2123
-92.6038
-78.6305
-85.6685
-89.4673
-65.0989
-49.9687
-49.022
-59.6029
-57.041
-53.1822
-60.6425
-60.5529
-48.8792
-65.7472
-59.445
-92.2
-77.8346
-94.8289
-83.6651
-82.6487
-81.2671
-71.5605
-73.2893
-84.5021
-73.5581
-52.4471
-48.7591
-59.6285
-58.4065
-52.7732
-57.1239
-59.2943
-47.8509
-103.263
-100.276
-70.6938
-71.6046
-104.26
-71.6563
-70.4742
-99.5486
-46.3202
-45.957
-54.4599
-54.3184
-45.3415
-53.7972
-54.6442
-45.5666
-47.9289
-39.7183
-28.0292
-49.2389
-27.1239
14.3579
-4.89434
-25.2979
-27.0346
-25.5514
-5.35987
14.2626
-48.7624
-49.6458
-28.1447
-39.8931
49.7072
101.837
194.647
63.5025
44.6294
72.6617
178.49
109.968
40.7251
107.965
177.825
73.8924
48.3092
68.6571
193.912
99.1653
-41.0497
-39.938
-42.441
-42.2926
-41.0479
-42.9288
-42.6043
-39.4898
-48.9228
-50.9263
-45.5053
-44.9787
-52.7564
-45.701
-45.9407
-52.8197
-41.664
-44.3001
-43.4325
-39.7836
-54.658
-53.9551
-47.0224
-47.4003
-48.6761
-43.7451
-45.8611
-51.3946
-40.1361
-40.0515
-42.8863
-41.7178
-40.6583
-41.6578
-39.3764
-38.4933
-41.2073
-38.6717
-39.3157
-41.7084
-39.0773
-39.541
-38.5133
-38.436
-39.5995
-38.2475
-38.4427
-39.3117
-83.8068
-73.4379
-95.2224
-30.753
-58.23
-70.3304
-90.9182
-64.9179
-57.8643
-65.3269
-91.0038
-70.2741
-84.3245
-30.5979
-95.5115
-74.993
-46.5107
-37.4762
-39.4514
-42.6325
-49.9999
-46.787
-42.7261
-41.2507
-42.7967
-43.7137
-43.4288
-44.0545
-45.8424
-42.4995
-40.2369
-42.4286
-37.3839
-38.9789
-40.5672
-38.6343
-45.117
-42.0496
-40.6988
-40.6858
-42.4134
-45.2194
-44.6172
-46.0417
-51.5609
-41.0765
-43.4387
-49.5582
-40.8095
-39.7058
-40.4145
-38.9983
-40.0707
-40.2739
-40.1918
-39.7702
-44.2764
-43.0622
-39.9229
-39.937
-44.9431
-39.0201
-39.3778
-42.0942
-51.1985
-43.9415
-40.7831
-52.5864
-33.6137
-31.3182
-34.6418
-37.2823
-33.8494
-37.4289
-34.6929
-31.5735
-50.8345
-52.4743
-40.7604
-43.7291
-41.6254
-39.0301
-36.6853
-37.4657
-40.2178
-37.4174
-37.018
-39.6412
-35.9097
-32.1801
-33.6723
-36.8878
-35.5777
-36.549
-33.0763
-31.5991
-50.9666
-139.185
-126.474
-43.4792
-44.9428
-46.0413
-15.7751
-28.5296
-43.8858
-37.7966
-35.2289
-37.7023
-146.036
-46.8888
-130.557
-46.2226
-44.752
-49.7621
-31.7443
-18.9574
-44.6366
-35.5039
-38.1528
-38.0171
-43.1308
-41.5359
-41.24
-41.8233
-43.3427
-40.4423
-41.0453
-41.9164
-54.7975
-54.596
-57.503
-66.4168
-49.8681
-49.383
-52.0625
-52.2447
-45.0838
-42.3199
-41.59
-42.0226
-39.4035
-40.2535
-38.7457
-39.1398
-53.4413
-65.6397
-55.1363
-59.3967
-49.5789
-52.2121
-48.301
-51.506
-1.76702
-8.81378
-49.7114
63.9645
-134.057
-129.63
-114.727
-48.7367
-67.8921
-57.8132
-65.7225
-61.4868
-38.5365
-37.9433
-41.0535
-37.0009
-43.9936
-44.0349
-45.4261
-40.6028
-37.9145
-38.3465
-38.2644
-38.7052
-48.6145
-48.2883
-49.8438
-28.9663
-56.6782
-51.8187
-62.9158
-40.3951
-31.3562
-31.5146
-30.7674
-30.6641
-42.0243
-43.1646
-42.5791
-42.0726
-6.86758
-11.6123
-74.7057
60.5418
-66.8638
-57.5829
-63.7023
-61.3897
-39.5037
-39.2201
-42.6852
-37.4452
-39.1567
-38.5385
-38.6351
-40.7758
-55.4602
-50.8829
-61.2358
-40.2994
-42.7184
-43.2827
-43.4005
-41.9117
-38.3112
-38.319
-38.1067
-38.1183
-44.3359
-45.607
-46.3101
-44.2794
-42.8875
-42.6687
-43.7498
-42.5236
-43.0004
-43.4033
-43.5025
-42.7424
-41.3995
-41.7104
-40.3199
-40.4617
-58.8493
-57.0197
-55.3224
-62.5564
0.499356
0.592683
11.6516
-12.3713
-60.9649
-60.9337
-65.8021
-56.2474
-38.23
-38.0584
-38.6859
-38.3819
-45.6841
-46.6413
-46.6052
-45.7691
-41.1182
-41.831
-41.9063
-40.5969
-59.7768
-57.6589
-56.1985
-63.2961
-79.0049
-70.6161
-70.5022
-64.8168
-73.4963
-67.5573
-67.598
-63.6003
-65.5189
-61.263
-61.234
-57.7481
-20.6268
-14.903
-15.098
-8.6896
202.299
195.102
200.711
202.503
-43.4086
-44.2208
-44.0205
-44.9734
-44.2023
-45.1444
-44.4993
-45.7561
-38.6981
-38.9536
-38.6174
-38.8591
-97.3132
-97.693
-95.2805
-97.4461
-41.7116
-40.5839
-40.9436
-40.219
-42.6315
-41.5034
-41.8526
-41.1598
-39.6316
-39.7431
-40.6345
-40.3914
-35.7143
-37.1347
-37.1311
-38.5127
-34.4544
-35.3859
-32.7126
-34.805
-8.06601
-1.13062
-52.6004
64.1846
-129.194
-128.17
-113.263
-71.4957
-103.958
-83.9076
-96.521
-87.9677
-40.6632
-38.9775
-42.9963
-38.7648
-44.5395
-44.623
-44.2259
-40.8648
-44.1495
-40.7713
-47.5567
-42.2106
-15.6595
-12.5466
-47.2109
48.3159
-33.8976
-40.8428
-50.308
-26.0742
-61.382
-56.3994
-65.3376
-51.3028
-37.9136
-38.144
-40.6311
-36.5845
-32.4904
-31.6492
-31.9002
-32.5367
-39.1991
-40.6207
-42.0509
-36.6622
-128.759
-127.424
-112.96
-71.5104
-12.4944
-7.24546
-75.779
63.0043
-101.717
-82.3332
-95.6961
-87.4358
-45.0627
-44.2734
-43.8534
-41.4273
-41.5923
-40.4274
-45.4195
-38.8556
-44.6059
-40.3519
-44.2785
-42.2906
-36.2853
-41.5942
-50.9832
-28.6389
-18.2619
-16.4792
-58.7363
44.4295
-63.6382
-57.3164
-69.0856
-52.0657
-32.8634
-32.0349
-32.3291
-33.2485
-38.5018
-38.9134
-41.3866
-37.0444
-39.3324
-40.8613
-42.7351
-36.9148
-47.302
-50.8956
-46.7157
-48.9574
-39.9104
-39.1449
-38.8196
-39.6812
-42.3323
-43.2691
-45.6427
-42.0031
-42.2021
-42.6119
-43.7237
-41.7206
-42.9835
-37.9213
-40.4657
-41.333
-39.3739
-38.6295
-39.0854
-38.7942
-42.2267
-42.661
-42.1007
-43.5313
-40.299
-40.8075
-40.6203
-39.7516
-49.8935
-47.4539
-53.9813
-33.7905
-50.2537
-47.3526
-48.8204
-48.4366
-59.7729
-59.496
-55.8569
-65.9055
-20.8042
-0.816538
1.74387
-20.0696
-47.2258
-44.8412
-44.6054
-46.9783
-46.0948
-44.3736
-45.8976
-44.2868
-54.0275
-55.6536
-52.39
-57.7582
-59.1828
-60.6115
-63.9416
-56.616
-48.1615
-50.9124
-48.5874
-49.5089
-42.6925
-42.3789
-44.0853
-41.9711
-40.9526
-38.6174
-39.8727
-39.6727
-43.8663
-44.9388
-45.7943
-43.6583
-43.8924
-42.7025
-48.7857
-43.1336
-39.2654
-40.3049
-39.6347
-41.1814
-38.485
-38.0701
-38.5838
-38.2999
-39.8939
-40.4398
-40.4219
-39.6803
-49.2782
-46.7567
-52.9092
-33.9797
-20.6408
-0.607782
1.42399
-19.5869
-51.2081
-48.2914
-49.2806
-50.0595
-61.1934
-60.8091
-57.4063
-67.0603
-46.8476
-44.7888
-44.0859
-46.6522
-59.0741
-60.467
-63.496
-56.2693
-44.9348
-43.0772
-44.8526
-43.1139
-53.7603
-55.6971
-52.5848
-57.7177
-101.833
-103.565
-120.078
-114.16
142.624
192.682
167.359
176.389
-91.3235
-76.4905
-83.4536
-82.7245
130.061
200.228
171.435
178.63
-68.1255
-69.5706
-76.1669
-63.2543
-60.9176
-60.9959
-65.1202
-56.9573
-48.2483
-45.2899
-47.0469
-48.445
-36.8525
-35.9687
-37.054
-35.8939
-40.1484
-40.1452
-40.6219
-40.5968
-37.8054
-37.0904
-37.4544
-37.5905
-39.2777
-40.1036
-39.0098
-40.6804
-39.3414
-39.2292
-39.548
-39.1642
-44.9045
-33.7026
-39.6239
-39.6489
110.113
176.989
158.792
161.713
-72.5831
-70.8457
-65.2105
-79.8765
-26.4187
-18.5051
-27.0051
-16.9416
-32.0196
-33.4397
-32.6153
-32.6575
-32.0886
-32.5013
-32.5231
-32.2331
-41.9093
-41.4363
-42.741
-40.7831
-38.8169
-37.548
-39.6585
-36.4699
-106.903
-94.3933
-113.303
-108.4
140.312
191.209
173.494
166.36
-65.7896
-67.0019
-71.9912
-62.5415
-60.9949
-60.7316
-65.1278
-57.0647
-50.8138
-45.8643
-48.638
-47.6069
-36.9822
-36.4552
-37.1905
-36.5182
-39.8584
-40.8594
-40.0247
-41.3563
-40.7753
-40.6836
-40.2483
-40.5047
-69.8704
-67.384
-74.358
-63.282
-26.7606
-18.8977
-17.4846
-27.255
-43.0669
-42.4786
-41.556
-43.9331
-38.8428
-37.5439
-36.5053
-39.6337
-40.2265
-41.8756
-40.9006
-40.8944
-38.3134
-38.8609
-38.6172
-38.334
-52.0352
-56.57
-53.6928
-54.1722
-43.4159
-43.7019
-42.7114
-44.2745
-47.733
-52.0003
-49.7347
-49.5462
-41.2911
-39.9514
-40.7831
-40.5689
-44.1342
-44.06
-43.7913
-44.7207
-40.9088
-39.9457
-39.696
-40.1101
-39.1304
-38.6194
-38.7832
-38.8269
-40.2416
-40.0224
-40.2405
-40.4126
-50.2085
-47.0509
-48.2802
-49.064
-80.8637
-94.3405
-91.1798
-86.1171
16.0775
3.46501
8.97732
8.75903
-52.8536
-89.8015
-72.8913
-72.1593
-76.1986
-87.0981
-81.3069
-81.3294
-48.5492
-42.752
-45.425
-45.408
-40.9917
-42.5826
-41.8619
-41.3865
-38.2174
-38.4198
-38.3922
-38.3019
-51.4386
-56.0932
-54.2211
-53.3281
-45.4488
-45.1257
-44.4971
-46.1097
-43.1538
-43.9628
-44.1306
-43.2337
-38.132
-40.1893
-39.4089
-38.0446
-50.894
-47.9616
-49.9606
-48.6189
-82.146
-94.5545
-86.5978
-91.8603
-110.709
-116.028
-120.312
-102.005
-51.1186
-50.5343
-54.9814
-52.8249
-54.1359
-51.5715
-57.4694
-54.4224
-64.9259
-70.6635
-97.3962
-104.945
-116.06
-109.931
-114.643
-95.4184
-78.8167
-77.1956
-97.0702
-96.314
-52.8407
-50.6278
-56.6831
-53.7808
-51.5575
-50.4978
-54.8173
-52.7572
-90.6233
-84.2032
-83.031
-76.333
-90.4164
-84.1032
-83.07
-76.1637
-49.6024
-47.7811
-51.4969
-49.5976
-49.4232
-47.8558
-51.3627
-49.3549
-45.062
-43.1258
-40.3564
-36.6011
-10.4401
1.80997
-5.79355
3.32984
-9.63143
1.14104
-6.45876
2.438
-45.5693
-43.3538
-40.6275
-36.7739
134.61
145.447
158.879
173.488
129.232
130.114
158.222
159.323
136.313
129.258
158.051
154.274
148.727
130.594
171.471
159.547
-40.1401
-40.9151
-40.6864
-41.2344
-41.1318
-41.8184
-41.3537
-42.444
-46.9366
-48.6226
-46.3144
-47.4579
-48.4966
-50.5383
-46.985
-48.7896
-41.5294
-42.5891
-41.9745
-42.8598
-50.5076
-52.2865
-48.5089
-50.2439
-46.3129
-48.0384
-45.657
-47.2368
-40.6908
-41.0196
-41.1028
-41.7737
-40.1909
-40.6076
-39.6587
-40.7255
-40.8476
-39.9379
-40.2578
-39.2667
-39.0359
-38.3313
-38.596
-38.3473
-38.7387
-39.2329
-38.4817
-38.1429
-83.2098
-50.7458
-83.5976
-68.6116
-68.6995
-71.5295
-79.5494
-79.0816
-71.3867
-67.8765
-79.0063
-79.659
-50.4254
-83.2114
-68.2882
-84.0296
-40.7906
-41.7072
-38.9516
-39.989
-49.4998
-47.1712
-46.4788
-44.5002
-46.329
-45.8414
-48.3705
-46.4458
-42.5712
-42.6881
-41.3386
-41.2327
-43.7009
-40.9816
-40.8463
-40.776
-41.6918
-41.3298
-39.7607
-39.0753
-46.9606
-46.9891
-49.5493
-48.6319
-49.9169
-46.3809
-47.02
-44.2296
-41.5674
-41.5967
-41.0089
-41.5718
-41.4703
-40.7738
-40.2478
-41.9024
-41.9134
-42.1197
-41.1391
-42.4277
-40.9654
-40.7545
-40.4999
-40.1441
-47.3232
-49.4836
-43.8213
-46.0043
-32.6684
-33.9976
-33.0065
-34.1948
-32.8798
-34.1532
-33.1352
-34.3034
-47.1486
-49.3717
-43.7579
-45.9135
-38.1568
-38.2692
-37.72
-37.8138
-38.3381
-38.0271
-37.9303
-37.8255
-34.5524
-36.0129
-34.1501
-35.3022
-35.3471
-33.986
-34.3572
-33.6137
-65.0574
32.2897
-122.028
-62.1632
-98.274
-108.452
-45.4198
-42.6311
-46.0113
-43.6355
-50.0341
-45.8903
-46.7485
24.9571
-47.1865
3.71131
-59.4581
-51.2891
-40.5707
-36.494
-33.1178
-34.7754
-41.1459
-35.2181
-123.166
-61.4471
-78.8804
33.4199
-105.318
-107.709
-45.1156
-42.3747
-47.6425
-40.9466
-52.012
-45.6256
-47.3285
3.59575
-53.6931
20.4532
-63.7329
-52.3226
-33.4256
-35.1898
-40.539
-36.6717
-41.2816
-35.4495
-44.863
-45.4115
-40.937
-40.5089
-46.4121
-41.6698
-42.818
-41.2186
-48.8596
-41.408
-40.0259
-39.6695
-40.8422
-42.5238
-40.1677
-41.281
-53.8407
-48.3467
-52.6223
-52.5324
-55.4076
-67.4867
-36.4787
-70.1507
-47.6529
-49.7207
-48.4864
-46.6583
-51.0904
-55.206
-56.6761
-53.2281
-49.3736
-46.685
-43.6587
-41.9795
-41.1474
-41.1908
-47.4217
-41.9575
-39.7574
-40.1276
-39.3874
-40.3351
-39.6329
-39.1389
-39.6474
-39.1916
-52.4412
-47.1485
-35.6096
-70.6942
-52.7464
-54.0429
-57.8984
-69.4995
-46.9597
-49.3676
-56.1778
-52.6705
-47.0522
-45.7423
-50.4336
-54.6913
-49.6643
65.68
-50.9384
64.3534
-62.3867
-58.4747
104.284
111.759
-115.771
-71.8018
-114.451
-74.3564
-100.653
-99.6474
-166.303
56.7927
-83.1408
-72.7907
-56.1197
-53.7518
-74.2288
-61.6876
-65.9196
-57.1254
-41.9935
-37.6982
-41.0971
-36.8177
-46.1409
-44.6541
-37.1927
-36.6557
-44.3032
-40.3004
-44.2999
-41.118
-43.5489
-42.5434
-39.1077
-39.1694
-39.9152
-38.4459
-37.0715
-38.459
-38.0079
-39.7299
-39.1664
-38.8347
-50.6143
-33.4901
-50.4457
-34.6824
-49.4769
-49.6036
66.1893
61.7355
-67.6196
-46.5041
-56.0705
-36.1551
-65.0296
-73.5914
-36.1503
-28.8412
-30.9636
-30.9972
-31.2791
-31.4904
-31.0032
-31.1774
-31.2254
-30.8775
-43.1044
-38.9301
-43.018
-43.3087
-44.1797
-42.0262
-42.2504
-38.8301
-74.2422
61.4346
-67.5582
57.9735
-82.6801
-75.2951
110.005
101.464
-79.2902
-72.2313
-56.1235
-54.0786
-69.865
-61.2636
-66.1228
-57.5044
-43.983
-37.9706
-41.7158
-37.2633
-46.0832
-48.4989
-37.2037
-36.8893
-40.2248
-39.5029
-38.4603
-39.5427
-38.5835
-39.9727
-40.4834
-39.6349
-63.8934
-46.4256
-53.7331
-35.9754
-69.8806
-63.1851
-28.99
-36.1989
-44.1446
-39.3284
-43.0989
-43.3758
-43.0427
-44.1637
-38.8825
-42.0139
-38.3034
-38.4023
-38.3766
-38.2101
-39.836
-38.8604
-38.3035
-38.1767
-45.8575
-42.8991
-47.1117
-45.8192
-49.288
-49.2126
-43.0334
-44.5242
-43.9927
-42.4954
-43.6598
-42.3435
-45.9074
-45.8882
-41.7837
-41.7251
-42.747
-43.061
-44.3811
-43.2129
-43.5142
-44.3734
-42.3457
-42.2571
-39.9866
-40.504
-40.139
-40.8642
-39.2278
-39.5973
-39.8318
-38.944
-55.9484
-64.219
-53.5854
-59.9807
-51.6878
-52.6703
-71.155
-66.7968
10.3666
-14.5888
10.2296
-14.5924
16.7444
16.6389
-31.7063
-31.7564
-65.4876
-56.6249
-65.4031
-56.5077
-70.5509
-70.5177
-52.6731
-52.673
-38.8829
-38.6106
-39.3969
-38.22
-40.196
-40.0877
-37.9939
-38.8007
-45.711
-44.4667
-47.6872
-47.3656
-48.4644
-48.2516
-45.0072
-46.3902
-41.2099
-40.1657
-43.0738
-41.5405
-43.0314
-42.1868
-38.6812
-40.1133
-57.1593
-65.618
-54.246
-60.3812
-53.6295
-52.1955
-67.4204
-72.2166
-90.9128
-91.3242
-78.1992
-64.2881
-64.9153
-78.9207
-60.153
-60.3772
-83.1089
-83.2426
-72.9196
-63.2521
-73.801
-63.5187
-59.5353
-59.713
-70.7819
-70.5757
-65.5806
-57.691
-65.395
-57.4552
-54.631
-54.6687
-27.0452
-27.1737
-21.9293
-11.4132
-11.7552
-22.1356
-2.9265
-3.0307