# vtk DataFile Version 2.0
tet_velo
ASCII
DATASET UNSTRUCTURED_GRID
POINTS 29498 float
-0.675 0.225 -2.14215
-0.742025 0.375 2.205
-0.77209 0.815 -1.975
-0.675 1.16825 2.135
0.675 0.225 -2.14215
0.74203 0.375 2.205
0.772085 0.815 -1.975
0.675 1.16825 2.135
-0.759111 0.213231 -0.6931
-0.811875 0.232809 0.75595
-0.808599 1.00162 -0.605
-0.768797 1.11193 0.765
0.759114 0.213229 -0.6931
0.811888 0.232798 0.75595
0.80863 1.00166 -0.605
0.768791 1.11193 0.765
-1.43736 -0.230171 -3.3084
-1.4479 -0.165833 -2.18082
-1.51059 -0.169372 -0.729726
-1.55187 -0.162127 0.737277
-1.52022 -0.0622502 2.18971
-1.50855 0.0214608 3.32385
-1.51448 0.0945447 4.44585
-1.44147 0.124473 -3.25324
-1.45295 0.210614 -2.1343
-1.52472 0.230089 -0.698586
-1.55519 0.248488 0.744241
-1.49364 0.350719 2.18147
-1.49174 0.43322 3.3145
-1.50719 0.504858 4.43907
-1.48412 0.789144 -3.12074
-1.52179 0.872251 -1.99853
-1.56283 1.01155 -0.616709
-1.53104 1.09987 0.759514
-1.44922 1.16758 2.14285
-1.46944 1.24632 3.27915
-1.50056 1.32023 4.41647
-1.52399 1.89816 -2.98143
-1.54465 1.99917 -1.87106
-1.56124 2.16235 -0.514865
-1.55245 2.30605 0.82429
-1.52967 2.40518 2.18131
-1.52367 2.47289 3.29341
-1.53082 2.54018 4.4221
-0.689293 -0.222097 -3.3135
-0.688896 -0.154026 -2.18826
-0.742017 -0.176633 -0.728728
-0.789683 -0.173675 0.74727
-0.770018 -0.0518798 2.20718
-0.762582 0.029519 3.33571
-0.768205 0.0987783 4.45271
-0.687756 0.125484 -3.25481
-0.753189 0.442852 3.32427
-0.765036 0.509614 4.44424
-0.721969 0.766151 -3.11097
-0.735464 1.25005 3.27758
-0.762492 1.32348 4.41613
-0.757855 1.88132 -2.97177
-0.774513 1.98267 -1.86041
-0.791563 2.15758 -0.508446
-0.793617 2.31062 0.82352
-0.78325 2.40966 2.17581
-0.78027 2.47592 3.28792
-0.786363 2.54254 4.4181
0.755723 -0.222094 -3.3135
0.73011 -0.154024 -2.18826
0.774531 -0.176635 -0.728728
0.793525 -0.173682 0.747271
0.745923 -0.0518824 2.20718
0.730686 0.0295172 3.33571
0.724202 0.0987769 4.45271
0.752856 0.125487 -3.25481
0.718442 0.442851 3.32427
0.716368 0.509612 4.44424
0.778104 0.766155 -3.11097
0.694715 1.25005 3.27758
0.70405 1.32348 4.41613
0.772516 1.88133 -2.97177
0.768648 1.98268 -1.86041
0.75775 2.15759 -0.508446
0.731658 2.31063 0.82352
0.706178 2.40966 2.17581
0.699768 2.47592 3.28792
0.698114 2.54254 4.4181
1.49209 -0.230162 -3.3084
1.47306 -0.165826 -2.18082
1.52869 -0.169369 -0.729726
1.56113 -0.162136 0.737277
1.51486 -0.0622565 2.18971
1.48768 0.021457 3.32385
1.47712 0.0945416 4.44585
1.4868 0.124482 -3.25324
1.45214 0.210626 -2.1343
1.52263 0.230097 -0.698587
1.56262 0.248478 0.744241
1.50139 0.350714 2.18147
1.47218 0.433216 3.3145
1.4664 0.504855 4.43907
1.51849 0.789156 -3.12074
1.51444 0.872269 -1.99853
1.55381 1.01158 -0.616709
1.53231 1.09987 0.759514
1.45231 1.16757 2.14285
1.44219 1.24631 3.27915
1.44926 1.32023 4.41647
1.53336 1.89818 -2.98143
1.5335 1.99919 -1.87106
1.52677 2.16237 -0.514865
1.4975 2.30606 0.82429
1.46202 2.40519 2.18131
1.44911 2.47289 3.29341
1.44603 2.54018 4.4221
-0.761615 0.52 -2.09664
0 0.227104 -2.14005
-0.723354 0.212816 -1.41763
-0.773064 0.771625 2.23455
2.5034e-06 0.314485 2.26551
-0.824535 0.256319 1.48048
-2.5034e-06 0.899147 -2.05915
-0.82611 0.944076 -1.29
0 1.1944 2.16115
-0.740519 1.15871 1.45
0.761638 0.52 -2.09667
0.723355 0.212817 -1.41763
0.773121 0.771625 2.23461
0.824459 0.256399 1.48048
0.82611 0.944081 -1.29
0.740525 1.15872 1.45
-0.794963 0.213549 0.031425
-0.870425 0.607427 -0.64905
1.82492e-06 0.235731 -0.6931
-0.864458 0.672371 0.760475
6.97416e-06 0.239883 0.75595
-0.791618 1.0597 0.08
1.53373e-05 1.39887 -0.605
-2.81537e-06 1.57603 0.765
0.794968 0.213547 0.031425
0.870421 0.607443 -0.64905
0.864456 0.672364 0.760475
0.791611 1.05969 0.08
-0.891763 0.563713 -1.35381
-0.875471 0.639899 0.0557125
-0.895864 0.721998 1.46524
9.12458e-07 0.238519 -1.41763
4.39954e-06 0.237989 0.031425
4.73878e-06 0.268285 1.48048
-1.2517e-06 0.52 -2.37268
1.2517e-06 0.771625 2.2868
6.41696e-06 1.06876 -1.29
6.26098e-06 1.58166 0.08
-1.40768e-06 1.42504 1.45
0.89177 0.563721 -1.35381
0.875469 0.639903 0.0557125
0.895864 0.721994 1.46524
-1.06397 0.217807 -2.13822
-0.681948 0.0354872 -2.1652
-0.681378 0.175242 -2.69848
-1.11783 0.36286 2.19323
-0.756022 0.16156 2.20609
-0.747607 0.408926 2.76464
-1.14694 0.843625 -1.98677
-0.74703 0.790575 -2.54298
-0.773302 1.39883 -1.9177
-1.06211 1.16791 2.13893
-0.705232 1.20915 2.70629
-0.729125 1.78895 2.1554
0.702555 0.0354879 -2.1652
0.713928 0.175244 -2.69848
1.06357 0.217813 -2.13822
0.743976 0.161559 2.20609
0.730236 0.408926 2.76464
1.12171 0.362857 2.19323
0.775095 0.790578 -2.54298
0.770367 1.39884 -1.9177
1.14326 0.843634 -1.98677
0.684858 1.20915 2.70629
0.690589 1.78895 2.1554
1.06365 1.16791 2.13893
-1.14191 0.22166 -0.695843
-0.750564 0.0182988 -0.710914
-1.18353 0.240649 0.750096
-0.800779 0.0295671 0.75161
-1.18571 1.00659 -0.610854
-0.800081 1.5796 -0.556723
-1.14992 1.1059 0.762257
-0.781207 1.71128 0.79426
0.766823 0.0182972 -0.710914
1.14087 0.221663 -0.695843
0.802707 0.0295583 0.75161
1.18726 0.240638 0.750096
0.78319 1.57963 -0.556723
1.18122 1.00662 -0.610854
0.750225 1.71128 0.79426
1.15055 1.1059 0.762257
-1.44263 -0.198002 -2.74461
-1.43941 -0.052849 -3.28082
-1.06333 -0.226134 -3.31095
-1.47924 -0.167603 -1.45527
-1.45042 0.0223905 -2.15756
-1.0684 -0.15993 -2.18454
-1.53123 -0.165749 0.00377556
-1.51765 0.0303588 -0.714156
-1.1263 -0.173002 -0.729227
-1.53605 -0.112189 1.46349
-1.55353 0.0431807 0.740759
-1.17078 -0.167901 0.742274
-1.51439 -0.0203947 2.75678
-1.50693 0.144234 2.18559
-1.14512 -0.057065 2.19845
-1.51151 0.0580028 3.88485
-1.50014 0.22734 3.31917
-1.13556 0.0254899 3.32978
-1.51083 0.299701 4.44246
-1.14134 0.0966615 4.44928
-1.44721 0.167544 -2.69377
-1.46279 0.456808 -3.18699
-1.06461 0.124978 -3.25403
-1.48883 0.220352 -1.41644
-1.48737 0.541433 -2.06642
-1.53995 0.239289 0.0228275
-1.54377 0.62082 -0.657648
-1.52442 0.299604 1.46285
-1.54311 0.674178 0.751878
-1.49269 0.391969 2.74798
-1.47143 0.759148 2.16216
-1.49946 0.469039 3.87678
-1.48059 0.839768 3.29682
-1.12246 0.438036 3.31938
-1.50388 0.912544 4.42777
-1.13611 0.507236 4.44166
-1.50295 0.830697 -2.55964
-1.50405 1.34365 -3.05109
-1.10304 0.777647 -3.11586
-1.54231 0.941901 -1.30762
-1.53322 1.43571 -1.93479
-1.54694 1.05571 0.0714025
-1.56204 1.58695 -0.565787
-1.49013 1.13372 1.45118
-1.54174 1.70296 0.791902
-1.45933 1.20695 2.711
-1.48944 1.78638 2.16208
-1.485 1.28327 3.84781
-1.49656 1.8596 3.28628
-1.10245 1.24818 3.27836
-1.51569 1.9302 4.41928
-1.13153 1.32186 4.4163
-1.53432 1.94867 -2.42624
-1.14092 1.88974 -2.9766
-1.55295 2.08076 -1.19296
-1.15958 1.99092 -1.86573
-1.55685 2.2342 0.154713
-1.1764 2.15997 -0.511655
-1.54106 2.35562 1.5028
-1.17303 2.30834 0.823905
-1.52667 2.43904 2.73736
-1.15646 2.40742 2.17856
-1.52725 2.50654 3.85775
-1.15197 2.47441 3.29066
-1.15859 2.54136 4.4201
-0.689094 -0.188061 -2.75088
-0.688524 -0.0483064 -3.28416
0.0332154 -0.222095 -3.3135
-0.715457 -0.165329 -1.45849
0.0206072 -0.154025 -2.18826
-0.76585 -0.175154 0.00927126
0.0162566 -0.176634 -0.728728
-0.779851 -0.112777 1.47723
0.00192056 -0.173678 0.74727
-0.7663 -0.0111804 2.77144
-0.0120477 -0.0518811 2.20718
-0.765394 0.0641486 3.89421
-0.757885 0.236186 3.32999
-0.0159476 0.0295181 3.33571
-0.76662 0.304196 4.44848
-0.0220015 0.0987776 4.45271
-0.704863 0.445817 -3.18289
0.0325502 0.125486 -3.25481
-0.759112 0.476233 3.88426
-0.744326 0.846451 3.30092
-0.0173733 0.442852 3.32427
-0.763764 0.916548 4.43019
-0.0243338 0.509613 4.44424
-0.739912 1.32373 -3.04137
0.0280674 0.766153 -3.11097
-0.748978 1.28677 3.84685
-0.757867 1.86298 3.28275
-0.0203741 1.25005 3.27758
-0.774427 1.93301 4.41712
-0.029221 1.32348 4.41613
-0.766184 1.93199 -2.41609
0.00733055 1.88132 -2.97177
-0.783038 2.07013 -1.18443
-0.00293248 1.98267 -1.86041
-0.79259 2.2341 0.157537
-0.0169064 2.15759 -0.508446
-0.788434 2.36014 1.49966
-0.0309795 2.31062 0.82352
-0.78176 2.44279 2.73186
-0.0385355 2.40966 2.17581
-0.783317 2.50923 3.85301
-0.0402511 2.47592 3.28792
-0.0441245 2.54254 4.4181
0.742917 -0.188059 -2.75088
0.75429 -0.0483032 -3.28416
1.12391 -0.226128 -3.31095
0.75232 -0.165329 -1.45849
1.10159 -0.159925 -2.18454
0.784028 -0.175158 0.00927125
1.15161 -0.173002 -0.729227
0.769724 -0.112782 1.47723
1.17733 -0.167909 0.742274
0.738305 -0.0111826 2.77144
1.13039 -0.0570695 2.19845
0.727444 0.0641471 3.89421
0.724564 0.236184 3.32999
1.10918 0.0254871 3.32978
0.720285 0.304195 4.44848
1.10066 0.0966593 4.44928
0.76548 0.445821 -3.18289
1.11983 0.124985 -3.25403
0.717405 0.476232 3.88426
0.706579 0.84645 3.30092
1.09531 0.438034 3.31938
0.710209 0.916547 4.43019
1.09138 0.507234 4.44166
0.77531 1.32374 -3.04137
1.14829 0.777656 -3.11586
0.699383 1.28676 3.84685
0.697242 1.86298 3.28275
1.06845 1.24818 3.27836
0.701082 1.93301 4.41712
1.07666 1.32185 4.4163
0.770582 1.932 -2.41609
1.15294 1.88975 -2.9766
0.763199 2.07014 -1.18443
1.15107 1.99094 -1.86573
0.744704 2.23411 0.157537
1.14226 2.15998 -0.511655
0.718918 2.36014 1.49966
1.11458 2.30834 0.823905
0.702973 2.44279 2.73186
1.0841 2.40742 2.17856
0.698941 2.50923 3.85301
1.07444 2.47441 3.29066
1.07207 2.54136 4.4201
1.48257 -0.197994 -2.74461
1.48945 -0.05284 -3.28082
1.50088 -0.167598 -1.45527
1.4626 0.0223999 -2.15756
1.54491 -0.165753 0.00377552
1.52566 0.0303635 -0.714156
1.538 -0.112196 1.46349
1.56188 0.0431711 0.740759
1.50127 -0.0203998 2.75678
1.50813 0.144228 2.18559
1.4824 0.0579993 3.88485
1.47993 0.227337 3.31917
1.47176 0.299699 4.44246
1.46947 0.167554 -2.69377
1.50264 0.456819 -3.18699
1.48739 0.220361 -1.41644
1.48329 0.541447 -2.06642
1.54263 0.239287 0.0228274
1.53822 0.620839 -0.657648
1.53201 0.299596 1.46285
1.54747 0.674172 0.751877
1.48678 0.391965 2.74798
1.47685 0.759143 2.16216
1.46929 0.469036 3.87678
1.45718 0.839766 3.29682
1.45783 0.912542 4.42777
1.51646 0.830713 -2.55964
1.52592 1.34367 -3.05109
1.53413 0.941926 -1.30762
1.52397 1.43573 -1.93479
1.54306 1.05572 0.0714024
1.54029 1.58698 -0.565787
1.49231 1.13372 1.45118
[...]
POINT_DATA 29498
VECTORS point_vectors float
-0.943401 -1.39827 2.52114
0.242761 0.170377 0.559616
-2.04565 0.543851 3.86482
-0.228977 -0.295787 0.364736
0.948245 -1.39903 2.51809
-0.245682 0.164684 0.55681
2.04473 0.542415 3.86276
0.223362 -0.276165 0.329464
-0.00669957 0.0059477 0.199968
0.051919 -0.0247079 1.29121
0 0 0
0 0 0
0.00663931 0.0059352 0.199913
-0.0527438 -0.0253382 1.29056
0 0 0
0 0 0
-0.580699 -0.38043 19.8389
-1.23386 -0.936907 20.5594
-0.391235 -0.474321 21.511
0.114174 -0.167074 21.6753
0.710537 0.129376 21.6376
1.02712 0.2225 21.4476
1.06113 -0.0127697 20.9654
-0.760839 -0.31737 19.7219
-1.88701 -0.860097 20.4996
-0.567557 -0.620276 21.6191
0.0778028 -0.325517 21.7506
0.931212 -0.149183 21.7579
1.35422 -0.160119 21.3878
1.35409 -0.17987 21.3362
-0.921751 0.0374119 19.6301
-2.09121 0.0629487 20.499
-1.24773 -0.411277 21.5806
-0.307653 -0.431829 21.8563
0.41787 -0.703165 21.7286
0.734023 -0.838879 21.5803
0.727822 -0.457098 21.5136
-0.605123 0.403073 19.9503
-0.955351 0.601106 20.4713
-0.891516 0.422162 21.2468
-0.310322 -0.0424792 21.5935
-0.0110417 -0.232758 21.401
0.147303 -0.354307 21.207
0.179896 -0.324636 20.5763
-0.504845 -0.706438 19.3602
-1.43959 -3.12102 20.7835
-0.161523 -0.413273 21.9136
0.179489 0.0767255 21.5272
0.74804 1.26627 20.07
1.46236 1.64927 17.9906
1.57885 1.17451 17.8688
-0.721237 -0.671568 18.9276
2.17536 0.973929 11.9344
2.4885 1.16088 14.442
-1.16692 0.240136 18.2886
0.714263 -0.994562 8.64296
1.21096 -1.44531 14.3397
-0.544062 0.818754 19.5736
-1.02045 1.54464 20.1631
-1.23294 1.48465 21.4116
-0.400672 0.253152 21.8899
-0.108535 -0.229006 21.5899
-0.00327541 -0.462611 21.0268
0.0973363 -0.490666 20.9726
0.53595 -0.683735 19.3972
1.49382 -2.98722 20.7313
0.15539 -0.419806 21.8956
-0.183176 0.0743814 21.5375
-0.708555 1.2739 19.9899
-1.4021 1.70648 18.0105
-1.57789 1.21458 17.3862
0.771865 -0.613698 19.0007
-2.13205 1.04209 10.9288
-2.54363 1.262 13.8554
1.20947 0.220186 18.4065
-0.543792 -0.788999 6.94769
-1.19984 -1.41794 13.4887
0.549459 0.812693 19.5807
1.01664 1.55367 20.1604
1.22684 1.5569 21.4127
0.390364 0.274451 21.9106
0.101406 -0.218965 21.6117
0.00155332 -0.429965 21.0806
-0.0922147 -0.47207 21.0586
0.557966 -0.357178 19.8815
1.20652 -0.889739 20.5676
0.407856 -0.471813 21.4984
-0.108701 -0.174902 21.6687
-0.713996 0.126183 21.639
-1.0535 0.225868 21.4176
-1.06029 0.0331634 21.0532
0.745907 -0.301942 19.7453
1.89023 -0.859794 20.4976
0.566574 -0.619123 21.6169
-0.0744708 -0.325657 21.7414
-0.909058 -0.159663 21.7567
-1.36315 -0.167931 21.4064
-1.43802 -0.171934 21.1569
0.904115 0.0327349 19.6615
2.11672 0.0705111 20.499
1.26259 -0.417402 21.5854
0.30653 -0.43351 21.8561
-0.408019 -0.699427 21.72
-0.71749 -0.845745 21.6269
-0.874403 -0.561266 21.182
0.602785 0.398092 19.9557
0.963087 0.611456 20.4682
0.909322 0.442872 21.2449
0.325682 -0.0330063 21.6182
0.0198738 -0.241237 21.4157
-0.126632 -0.361009 21.1275
-0.189977 -0.393721 20.5629
-0.414565 -0.0893659 0.833002
0 0 0
-0.00472057 0.000426861 0.254013
0.0285459 -0.0561139 0.140443
-0.00245526 0.0709546 0.142909
0.0170665 0.00879748 0.459979
-3.47411e-05 0.0829518 0.191057
-0.135838 -0.164181 0.528157
-0.00507605 0.0343374 -0.086265
0.00241921 0.00314861 0.0349182
0.415276 -0.0895541 0.834665
0.00495865 0.000453213 0.253572
-0.0274058 -0.0600727 0.140998
-0.0176412 0.00857188 0.461662
0.135745 -0.164223 0.527955
-0.00241309 0.00318329 0.0343009
-0.00158439 0.000922367 0.732238
0 0 0
0 0 0
0.000160735 0.00129508 0.00591876
-8.36415e-07 0.00030002 0.00589912
0 0 0
0.000131833 0.0721837 0.15727
-4.37247e-06 -0.000222125 0.00368195
0.0012891 0.000847009 0.730666
-3.07742e-20 3.43647e-18 6.63113e-17
-0.000148852 0.00119554 0.00546553
0 0 0
-5.44708e-05 -0.00015181 0.00227203
0.000102406 0.0010264 0.00863045
2.19129e-05 0.000230217 0.00351103
0 0 0
8.15295e-21 -1.9037e-19 -3.97755e-17
0 0 0
0 0 0
0 0 0
-7.54339e-07 0.000403376 0.00316496
-1.52855e-05 0.00786091 0.0975984
-0.000177636 0.00270306 -0.00501944
6.15948e-05 -0.000172371 0.00257476
-0.000102105 0.00101894 0.00859365
-2.13906e-05 0.000224195 0.00345677
-3.5299 -2.24334 20.2939
-2.26796 -4.94775 21.0589
-2.10442 -2.10901 17.7796
1.5693 0.22841 18.9815
0.659529 1.49271 12.5716
1.54102 0.581511 7.15238
-3.99638 0.577164 20.4132
-3.62418 1.43432 16.6803
-2.3275 2.5823 19.9287
0.499778 -0.693348 18.3816
-0.782928 -0.934815 3.84381
-0.167291 -0.430584 20.6118
2.33603 -4.82249 21.0014
2.13014 -2.01148 17.8962
3.53628 -2.25448 20.2891
-0.607477 1.47219 12.2624
-1.48888 0.486276 6.62288
-1.55588 0.200347 19.0707
3.58713 1.28119 16.9042
2.32495 2.59473 19.924
4.03363 0.591451 20.4155
0.933578 -0.947081 2.76126
0.120363 -0.377676 19.8343
-0.476872 -0.689785 18.4282
-0.236789 -0.859334 21.247
-0.00887064 -0.0668374 18.647
0.212807 -0.304787 20.5719
0.246936 0.134129 17.3203
-1.99577 -1.1356 21.8944
-3.71492 2.10941 21.7503
-0.36528 -0.662785 20.6613
-0.68976 0.125157 21.5731
0.015504 -0.0849911 18.8233
0.234435 -0.858896 21.2342
-0.249394 0.132456 17.33
-0.211341 -0.312076 20.6198
3.76582 2.25427 21.7319
2.00919 -1.15072 21.8921
0.639729 0.152585 21.3208
0.364627 -0.657409 20.6434
-0.962632 -0.651049 20.0152
-0.666616 -0.349589 19.7954
-0.590562 -0.535705 19.612
-0.827393 -0.750615 21.2933
-1.55222 -0.937533 20.5265
-1.5567 -1.77515 20.5636
-0.102805 -0.27865 21.5951
-0.503817 -0.574811 21.5481
-0.240845 -0.570369 21.6946
0.376495 -0.0213883 21.7445
0.0847174 -0.254108 21.7032
0.201195 -0.141502 21.8053
0.92464 0.204551 21.4566
0.857407 0.0158922 21.7148
1.01169 0.537419 21.635
1.17376 0.156244 20.7668
1.22131 0.164712 21.2973
1.4539 0.780531 21.3595
1.23297 -0.129143 21.1515
1.28458 0.521548 21.4657
-1.34271 -0.578457 19.8315
-0.872791 -0.163415 19.6399
-0.820863 -0.478016 19.3754
-1.23102 -0.808733 21.4469
-2.19007 -0.395976 20.4919
-0.200598 -0.459473 21.6582
-0.911059 -0.628653 21.6173
0.402385 -0.247508 21.8595
-0.080584 -0.423445 21.8588
1.18218 -0.138645 21.5847
0.816763 -0.524493 21.7782
1.412 -0.0137207 21.2756
1.19334 -0.478909 21.5652
2.08997 0.192613 19.2819
1.04583 -0.454932 21.3722
1.96001 0.33177 18.2859
-1.65433 0.104802 19.787
-0.81231 0.319221 19.7497
-1.14517 0.132937 19.0811
-1.71307 -0.209263 21.2502
-1.52901 0.557769 20.4458
-0.752774 -0.467394 21.7927
-1.30715 0.160653 21.4304
0.0688823 -0.49391 21.8697
-0.451287 -0.168495 21.7695
0.607471 -0.805709 21.5873
0.0364304 -0.425287 21.575
0.707607 -0.613803 21.7105
0.261165 -0.642267 21.1993
0.880522 -1.03389 18.3232
0.405689 -0.544094 21.0829
1.24051 -1.03146 18.3263
-0.817587 0.532377 20.1929
-0.625257 0.58368 19.7904
-1.00882 0.559133 20.8914
-1.08482 1.00683 20.3355
-0.614896 0.182748 21.5224
-1.13148 0.83086 21.3321
-0.11544 -0.173508 21.4958
-0.406736 0.0910597 21.7512
0.0592337 -0.285926 21.4071
-0.0210222 -0.250316 21.4944
0.16624 -0.346052 20.979
0.0823878 -0.44427 21.3559
0.188409 -0.483226 20.6306
-1.07988 -1.75355 19.2077
-0.614099 -0.694799 19.1374
0.0384929 -0.898239 19.1492
-0.525314 -1.22418 22.091
0.034254 -4.08672 21.3584
0.00838689 -0.119067 21.5901
0.00125094 -0.505865 21.8134
0.4482 0.527692 21.043
-0.00266174 0.0540488 20.6309
1.06482 1.55748 19.982
-0.00620862 0.979796 17.9959
1.21847 1.46483 18.9607
1.94874 2.0354 15.1608
-0.015854 1.92189 17.4616
2.07378 1.33788 15.746
0.109972 2.28035 16.9288
-1.00012 -0.311051 18.4466
0.0478628 -0.874152 18.4145
2.34099 1.16733 13.3194
2.03612 -0.895731 7.15024
0.000364752 0.873292 2.42611
2.10815 -0.268555 14.524
0.143086 2.07175 9.13597
-0.879892 0.865846 18.9525
0.0501368 0.412463 17.3456
0.884225 -1.56844 10.5366
0.111768 -0.924675 21.7628
0.0394576 0.55333 -6.44686
0.162527 -0.844781 18.4729
0.0703327 0.655805 3.56761
-0.815293 1.26804 19.7815
0.00806814 1.09358 19.3481
-1.1995 1.62625 20.6834
-0.0072882 2.16583 19.9565
-0.806588 0.832537 21.8997
-0.0370874 2.62658 21.428
-0.201695 -0.0798107 21.7612
-0.0252445 0.477018 22.0835
-0.0175448 -0.353009 21.4824
-0.0114165 -0.124576 21.5412
0.149328 -0.585067 20.9975
-0.00178101 -0.46094 21.4323
-0.00730593 -0.457247 20.9162
1.1018 -1.64336 19.2787
0.653538 -0.649014 19.1985
0.592701 -0.511205 19.6625
0.542857 -1.22696 22.0561
1.53668 -1.66753 20.5631
-0.0147336 -0.125887 21.6135
0.24745 -0.574585 21.6877
-0.442447 0.526724 20.9681
-0.199947 -0.145678 21.8008
-1.00673 1.55671 19.6862
-1.01421 0.558284 21.5824
-1.16096 1.56795 18.854
-1.84367 2.03681 14.9033
-1.48618 0.8416 21.3783
-2.13189 1.43078 15.2106
-1.34808 0.597039 21.3052
1.07288 -0.301159 18.574
0.811339 -0.461431 19.4261
-2.38936 1.34362 12.4168
-1.67711 -0.717416 5.2657
-2.17328 0.217202 18.8423
-2.10151 -0.103754 13.6801
-2.0197 0.437188 17.7835
0.90351 0.843436 18.9793
1.13436 0.121607 19.1622
-0.627289 -1.42496 9.04656
-0.0885458 -0.877772 21.9293
-0.866489 -1.03025 17.471
-0.174942 -0.848355 17.4658
-1.22818 -1.09773 17.6711
0.817751 1.26522 19.7831
0.62626 0.579304 19.7977
1.18462 1.65861 20.6761
1.08463 1.01682 20.3329
0.790772 0.903845 21.9308
1.15515 0.889668 21.3381
0.193855 -0.0686203 21.7461
0.413142 0.11543 21.7661
0.0107465 -0.325173 21.4975
0.0511237 -0.238296 21.5142
-0.126716 -0.549766 20.9472
-0.0758145 -0.466557 21.3182
-0.173073 -0.477887 20.7081
0.946332 -0.611814 20.027
0.660838 -0.33736 19.8192
0.834098 -0.728649 21.2691
1.52766 -0.915108 20.5381
0.0982448 -0.285959 21.5971
0.508479 -0.577347 21.5359
-0.377289 -0.0268923 21.7461
-0.0791194 -0.257837 21.6873
-0.936124 0.212625 21.4639
-0.848671 0.00559949 21.7135
-1.28012 0.198018 20.722
-1.22357 0.158111 21.3174
-1.23692 -0.075541 21.2519
1.31584 -0.557965 19.8354
0.862628 -0.157988 19.6565
1.23277 -0.809958 21.4446
2.21236 -0.402884 20.4934
0.198829 -0.461266 21.655
0.915207 -0.635501 21.623
-0.394282 -0.250569 21.8476
0.0800213 -0.425377 21.8529
-1.17997 -0.14252 21.5945
-0.79783 -0.525086 21.7768
-1.48018 -0.00226549 21.2274
-1.21797 -0.49607 21.622
-1.18272 -0.535251 21.0831
1.62919 0.093332 19.8045
0.799564 0.303519 19.7701
1.72423 -0.212523 21.2589
1.54201 0.569906 20.4398
0.753535 -0.469505 21.7941
1.33479 0.173015 21.4331
-0.0672997 -0.490883 21.859
0.460939 -0.172464 21.7927
-0.585826 -0.804554 21.5843
-0.0337967 -0.441839 21.5769
-0.725637 -0.640472 21.7567
-0.228754 -0.640479 21.231
-0.32318 -0.498471 21.4691
0.816856 0.532258 20.1919
1.01551 0.574581 20.8884
0.634222 0.203549 21.5312
0.123372 -0.159369 21.5234
-0.0564785 -0.295961 21.4068
-0.1385 -0.365544 21.2002
-1.15043 -0.639041 19.9278
-1.49016 -2.03513 18.6589
-1.12929 -1.10307 19.6851
-1.87946 -1.11338 19.1119
-0.715333 -0.532375 19.4963
-2.32507 -2.14189 20.5015
-1.03523 -0.812427 21.3695
-0.297686 -0.780652 20.7266
-0.779676 -1.14681 21.6626
-1.31341 -1.59066 22.1609
-0.212257 -0.703787 21.7758
-0.159672 -0.390508 21.6144
0.0715265 0.0687329 17.7513
0.00468228 -0.310827 21.7158
0.055783 -0.513018 20.7597
0.253755 -0.238191 21.5964
0.380018 -0.127487 21.7979
0.612107 0.48987 15.0545
0.526171 0.11797 21.8836
0.588824 -0.101002 20.0283
1.36324 0.490755 20.7522
1.09159 0.0765092 21.5809
1.2769 1.57701 14.054
1.25673 0.714371 21.2771
1.86578 0.159721 19.4287
1.61749 0.722902 19.8773
1.34104 -0.0141719 20.9243
1.87626 1.39514 14.4213
1.53258 0.649711 21.1086
2.19641 0.137181 19.6034
1.54359 0.506605 19.5982
-1.58855 -0.276116 19.7512
-3.40619 -0.888538 16.3838
-2.58848 0.439102 18.8897
-1.03642 -0.240404 19.115
-4.54586 -0.819032 20.2762
-1.57356 -0.586539 21.4249
-2.69124 -0.525859 21.7475
-0.73114 -1.19754 20.869
-0.43625 -0.53965 21.7482
-1.04293 -1.02356 21.2016
0.105874 -0.354775 19.4247
0.289831 -0.403198 21.9187
0.200651 -0.375888 19.5748
1.24459 -0.425474 17.2955
1.03741 -0.591688 21.6188
0.250244 -1.35813 3.67116
0.572134 -0.949574 19.6241
1.67443 -0.707002 18.2634
1.07226 -0.519226 21.3952
2.27882 0.186228 10.0956
0.92225 -1.05034 18.7674
1.78938 -1.22019 18.8844
-1.24866 0.503772 19.9666
-1.65799 1.89595 18.9182
-0.883393 0.849601 19.9723
-0.903136 0.541101 19.4148
-2.10049 1.2516 20.2482
-1.50923 0.398144 20.9835
-2.78288 2.12478 20.479
-1.20068 0.988964 20.8238
-2.14615 0.5593 21.6251
-0.893879 -0.0305356 21.7267
-2.14568 0.768205 22.6217
-0.778592 0.454359 21.7021
-0.642085 -0.114471 22.0464
-0.132754 -0.311244 21.7109
-0.157942 -0.317857 20.9422
-0.186328 -0.131276 21.6595
-0.0678668 -0.543222 21.686
0.15841 -0.526565 21.5221
-0.0979757 -0.615523 21.1991
0.00759613 -0.341331 21.3586
0.156552 -0.757743 21.3416
0.497628 -0.76875 20.7543
0.145729 -0.816609 19.6396
0.213592 -0.586287 20.8872
0.164568 -0.523827 22.553
1.53135 -1.91916 18.7608
0.0654446 -2.53189 18.7633
0.0661857 -3.52273 15.9504
0.0331979 -0.916095 18.7976
0.0243223 -5.93132 23.0452
0.289848 -0.817523 20.8537
0.00855269 -1.36338 22.5504
-0.0023715 -0.116974 14.4908
-0.0689059 0.0680616 17.873
-0.00319963 -0.206873 20.9643
-0.00237689 0.148451 13.2285
-0.609183 0.482827 14.9365
-0.00209138 0.478249 19.3288
-0.0182181 0.673958 9.36852
-1.20528 1.56462 13.6863
-0.00491142 1.29096 17.5541
-0.0309358 -0.252705 1.74347
-0.0261813 2.02877 9.96954
-1.84366 1.5086 14.098
0.0408195 2.44469 16.5188
0.0687975 1.9314 4.11693
0.125228 2.22782 13.9794
3.39723 -0.822141 16.6659
0.0913787 3.68945 12.9417
0.0579733 -0.446061 17.6486
-0.135484 -1.38389 3.07112
-0.0103128 0.707513 -4.74423
0.190338 1.94997 -2.28268
-2.16304 0.169074 8.14302
-0.11253 0.186166 -1.88214
0.210657 2.97894 -1.6929
1.66698 1.85439 18.9402
0.00294593 1.72418 19.5237
0.0381156 1.25771 18.4234
-0.00602888 4.19213 19.4709
2.78089 2.1729 20.4535
-0.0180794 2.4788 20.4418
-0.0473256 5.92777 20.9311
2.17466 0.821681 22.4547
-0.0412763 1.48895 22.198
-0.0223338 0.526343 20.1085
0.0558754 -0.311471 20.1715
-0.0162548 0.0281107 21.8359
-0.0351717 -0.00517028 15.7071
0.108989 -0.54189 20.597
-0.0191643 -0.26908 21.4754
-0.0601376 -0.785308 18.5939
-0.142865 -0.818971 19.7039
0.00591384 -0.643102 20.5776
0.010221 -0.776487 19.5398
1.11903 -0.611064 19.943
1.11157 -1.04148 19.742
1.85081 -1.05343 19.1818
0.717265 -0.500356 19.5473
2.30287 -2.07164 20.498
1.03812 -0.806261 21.3496
0.800981 -1.12537 21.6288
1.31319 -1.59067 22.1497
0.229877 -0.701284 21.7725
0.157389 -0.391075 21.6111
0.00441927 -0.319754 21.7117
-0.0548806 -0.516498 20.7774
-0.250491 -0.24323 21.6185
-0.376774 -0.1318 21.7919
-0.526856 0.115464 21.8743
-0.587596 -0.11427 20.1153
-1.36268 0.491618 20.6612
-1.09792 0.0719744 21.5803
-1.27046 0.745973 21.2486
-1.85714 0.16458 19.1682
-1.63644 0.8122 19.508
-1.44155 0.0339606 20.8835
-1.52325 0.711875 21.1897
-2.28327 0.173486 19.229
-1.60669 0.604523 19.1438
1.5663 -0.27124 19.7816
2.5255 0.413451 18.9645
1.02579 -0.233627 19.1737
4.57613 -0.822279 20.2715
1.58545 -0.591691 21.4318
2.70237 -0.530559 21.7575
0.724976 -1.2029 20.8265
0.434882 -0.542638 21.75
1.04219 -1.02609 21.1718
-0.103893 -0.362949 19.4767
-0.28824 -0.405122 21.9175
-0.195035 -0.374075 19.5597
-1.22347 -0.439251 17.3662
-1.03006 -0.605285 21.6017
-0.508733 -0.916797 19.0056
-1.71038 -0.759759 17.3753
-1.11194 -0.49144 21.3632
-0.887506 -1.11822 17.6564
-1.85617 -1.13949 18.3749
1.23984 0.493073 19.9734
0.883087 0.848589 19.9726
0.906989 0.525643 19.444
2.10419 1.26407 20.2411
1.53925 0.398242 20.9847
1.20508 1.02136 20.8201
2.21216 0.59443 21.6387
0.91339 -0.0247162 21.7346
0.789201 0.491191 21.7306
0.65577 -0.103611 22.0668
0.13817 -0.313907 21.7173
0.189963 -0.127919 21.6742
0.0974247 -0.52749 21.7023
-0.15621 -0.546049 21.5299
0.000519392 -0.346051 21.3886
-0.153078 -0.774973 21.4298
-0.54241 -0.7616 20.4628
-0.213513 -0.617719 20.836
-0.162794 -0.600569 21.9511
-1.46888 -1.17138 19.4438
-0.968048 -1.36942 21.9222
0.0609496 -0.413936 21.6304
0.638492 0.0187072 21.3054
1.66967 0.584971 20.5086
1.96421 0.388887 20.1815
-2.5359 -0.465267 18.7634
-2.04391 -1.17756 21.9546
-0.185597 -0.805686 20.0189
0.418305 -0.0754115 18.6263
1.46971 -0.68239 18.4861
1.92354 -0.771462 19.0799
-1.5863 1.03218 19.5463
-2.22493 0.907276 20.9007
-1.37026 0.152131 22.0733
-0.223025 -0.356857 21.8906
0.0483345 -0.656787 21.6748
0.476388 -0.706015 21.3264
0.0570341 -3.13966 17.7861
-0.00641545 -0.574849 16.6583
-0.00253786 -0.0149385 13.4894
-0.00607746 0.374864 11.1911
-0.0228368 0.740442 8.71166
0.0536588 1.96174 10.3043
0.0998405 -1.19334 12.7552
0.0274003 0.444464 -1.11816
0.278184 2.37813 -1.59038
0.0244743 3.08781 18.1548
-0.0215059 4.2419 19.4712
-0.0411035 2.58237 21.8883
-0.0173662 -0.0817828 17.5398
-0.0568117 0.00036337 16.4984
-0.0350639 -0.914846 18.6336
1.44561 -1.08851 19.4964
0.985249 -1.35498 21.8904
-0.0541758 -0.420451 21.6632
-0.637052 0.012608 21.2919
-1.68791 0.603615 20.3287
-1.93331 0.410497 20.0803
2.45668 -0.450646 18.8529
2.03944 -1.18302 21.9295
0.185165 -0.80621 20.0104
-0.416339 -0.0904284 18.7017
-1.4419 -0.686464 18.1044
-2.00095 -0.683212 18.1964
1.5761 1.01166 19.5627
2.2452 0.935862 20.8911
1.41628 0.165432 22.0999
0.229488 -0.356878 21.9041
-0.0167446 -0.655606 21.6924
-0.355664 -0.777313 21.8858
-0.422341 -0.184607 0.773615
-0.00361247 -0.00304298 0.0279051
-0.0229619 -0.00178464 0.297661
0.0263789 -0.0140498 0.0998715
-0.00325425 0.0552567 0.150533
0.0746856 0.272384 1.80168
-0.670342 0.00176118 1.03767
-0.010554 0.0377518 0.0977619
-0.339149 -0.0949785 1.13611
0.0275385 -0.111645 0.139192
-0.0567248 0.0241065 -0.0636135
-0.012336 -0.0425574 0.16832
0.00413348 -0.00308388 0.0283926
0.414939 -0.181221 0.762886
0.0229084 -0.00175743 0.296589
-0.000191854 0.0547206 0.148663
-0.0264147 -0.0152723 0.0994557
-0.077068 0.267534 1.77318
0.0104778 0.0375121 0.0972946
0.699387 0.00198076 1.08249
0.338563 -0.0950277 1.13406
0.0490861 0.0302417 -0.0779298
-0.0243136 -0.1151 0.135367
0.0119437 -0.0408548 0.164443
0.00120749 -0.00267149 0.221074
-0.0020833 0.0033405 0.602699
0.000591688 0.000543415 0.0409651
0 0 0
0.0400073 0.0766664 0.423668
-0.00838349 0.0213673 1.30965
-7.54186e-05 0.00495504 0.0442557
0 0 0
-0.326317 -0.21805 0.659885
-5.7306e-05 0.00117738 0.0133253
0 0 0
-0.0335692 0.031482 0.0863589
0 0 0
0.00758779 0.0463326 0.188297
0 0 0
0.0293232 0.00152988 0.211873
-0.00119432 -0.0026633 0.220838
0 0 0
0.00185388 0.00329698 0.602394
-0.000598316 0.000530415 0.0412343
-0.0435145 0.0760481 0.420847
-6.63429e-18 -6.09698e-19 9.43856e-17
0.00789926 0.0209716 1.31397
7.53254e-05 0.00485284 0.0437574
0.326471 -0.217868 0.659337
0.0349089 0.0328312 0.0898914
5.94475e-05 0.00122184 0.0138291
0 0 0
0 0 0
-0.029628 0.00163025 0.211836
-0.00754969 0.0462048 0.187354
0 0 0
0 0 0
-0.132405 0.0542047 0.0685201
0 0 0
0 0 0
0 0 0
0 0 0
0 0 0
0 0 0
-0.000114708 0.00235229 0.0292144
0 0 0
0.000155786 0.000333177 0.00899477
0.00540813 0.00590658 0.101667
-0.000132258 1.15581 0.772365
-5.59521e-07 0.00659073 0.0306807
-0.00426553 -0.0206207 0.155977
-0.00380442 0.000721749 0.00572141
-0.00237577 -0.0575627 -0.000421222
-4.53273e-05 0.000212273 -0.000584945
0 0 0
-0.000607901 -1.95851e-05 3.27202e-05
0.131727 0.0539541 0.0681745
0 0 0
-1.89135e-18 1.2447e-19 7.03171e-17
0 0 0
0 0 0
0 0 0
-0.00572032 0.00603263 0.106101
-0.000157123 0.000323168 0.00893851
0.00364164 0.000690873 0.0054762
0.00432076 -0.020688 0.15652
0.000556821 1.37983e-06 7.19626e-06
-0.00017295 2.5404e-05 0.00340282
-3.76685e-05 0.00442911 0.0530862
2.39647e-18 1.90744e-19 8.20736e-17
0.0190389 -0.0220172 0.255968
-8.89987e-05 0.00718801 0.0519543
2.03964e-21 -7.85841e-19 -6.6874e-17
0 0 0
0.000970203 0.00929451 0.0518913
-0.00667311 0.00773585 0.0994653
0 0 0
8.69778e-05 0.00142672 0.102973
0.000495119 0.011478 0.0503359
0.00278003 0.046108 0.633326
6.68267e-06 0.0311853 0.0721765
6.94533e-06 0.00900953 0.032689
-5.39169e-06 0.000134259 0.0106965
-7.64937e-06 -0.00032809 0.00206837
-5.61815e-19 5.31648e-20 1.90118e-17
3.68933e-05 0.0043926 0.0529251
-0.0169691 -0.0193623 0.227509
8.94809e-05 0.00720911 0.0521798
-0.000968961 0.00925434 0.0517834
0.00667718 0.00769655 0.0995587
-0.00312208 0.0460779 0.630712
-0.000141846 0.0118355 0.0529519
7.07021e-18 1.64677e-17 -1.35119e-16
-0.344018 -0.141079 1.23388
-0.00103666 0.00116135 0.0834255
0 0 0
-6.69339e-05 0.00440667 0.0701678
0.000576784 0.0200558 0.0944476
0.000896166 0.011491 0.115177
0.0117037 0.0640684 0.262712
-0.00055997 -0.000100896 0.0212907
0 0 0