# vtk DataFile Version 2.0
tet_velo
ASCII
DATASET UNSTRUCTURED_GRID
POINTS 29498 float
-0.805 0.205 -2.02122
-0.765 0.275 2.06104
-0.755 0.813562 -1.905
-0.620436 1.195 2.065
0.805 0.205 -2.01963
0.765 0.275 2.06088
0.755 0.815 -1.9052
0.625 1.195 2.06299
-0.834684 0.185316 -0.660467
-0.837821 0.192179 0.700287
-0.784553 1.01512 -0.581667
-0.747481 1.15004 0.741667
0.834747 0.185253 -0.65946
0.837374 0.192626 0.70071
0.785863 1.01586 -0.58247
0.750291 1.15029 0.74026
-1.59947 -0.272235 -3.13101
-1.60364 -0.207001 -2.05763
-1.61851 -0.220145 -0.695892
-1.60155 -0.237663 0.673498
-1.54469 -0.18719 2.03588
-1.53244 -0.128256 3.11241
-1.5416 -0.0676681 4.1831
-1.5976 0.0999173 -3.08679
-1.59919 0.189274 -2.01747
-1.61853 0.205605 -0.662945
-1.58823 0.212987 0.695067
-1.50208 0.27036 2.0503
-1.50632 0.328827 3.12621
-1.52892 0.387342 4.19806
-1.57583 0.794902 -2.98748
-1.55963 0.879484 -1.91629
-1.57335 1.03316 -0.587245
-1.51516 1.14153 0.739236
-1.40218 1.1956 2.06892
-1.452 1.24882 3.14606
-1.50608 1.30266 4.22374
-1.56018 1.97796 -2.86685
-1.55236 2.08571 -1.80141
-1.54874 2.27296 -0.484639
-1.53027 2.44599 0.824056
-1.50355 2.55393 2.14107
-1.50479 2.61178 3.20703
-1.52409 2.66259 4.28075
-0.806248 -0.263507 -3.13324
-0.801099 -0.193788 -2.06098
-0.818062 -0.228646 -0.69536
-0.823419 -0.253582 0.678108
-0.789758 -0.19021 2.04391
-0.786167 -0.130356 3.11773
-0.795092 -0.07 4.18605
-0.810749 0.100451 -3.08742
-0.777526 0.328804 3.13042
-0.791589 0.386066 4.20014
-0.79467 0.767729 -2.98284
-0.734978 1.24935 3.14479
-0.779001 1.30292 4.22313
-0.778948 1.95661 -2.86235
-0.771361 2.06413 -1.7965
-0.775018 2.26477 -0.481849
-0.775482 2.45077 0.823323
-0.76713 2.56005 2.13803
-0.77155 2.61592 3.20398
-0.787291 2.66529 4.27845
0.790662 -0.263236 -3.13241
0.81572 -0.193715 -2.05982
0.831302 -0.228592 -0.694555
0.818064 -0.253263 0.678422
0.764993 -0.190077 2.04379
0.724477 -0.130232 3.11731
0.705489 -0.0698437 4.18552
0.775907 0.100829 -3.08661
0.698682 0.328889 3.12981
0.688993 0.386206 4.19949
0.758861 0.768552 -2.98261
0.652111 1.24943 3.14358
0.66844 1.30306 4.22224
0.779325 1.95727 -2.86247
0.783525 2.06479 -1.79678
0.771855 2.26529 -0.482394
0.734418 2.4511 0.82248
0.694991 2.56028 2.137
0.683531 2.61612 3.203
0.680956 2.66549 4.27759
1.58982 -0.271621 -3.12969
1.61404 -0.206616 -2.05604
1.63278 -0.219835 -0.694857
1.61148 -0.237134 0.673679
1.54172 -0.186828 2.03536
1.49152 -0.127948 3.11152
1.4672 -0.0673291 4.18206
1.57543 0.100712 -3.08554
1.59979 0.189818 -2.0159
1.62527 0.205953 -0.662088
1.60291 0.213548 0.694933
1.51463 0.270659 2.04938
1.46108 0.329086 3.12498
1.4458 0.387657 4.1968
1.55222 0.796259 -2.98702
1.55951 0.881021 -1.91614
1.57902 1.03412 -0.587891
1.52849 1.14206 0.737585
1.41314 1.19587 2.06655
1.40112 1.24907 3.14402
1.41462 1.30297 4.22208
1.56055 1.97918 -2.86707
1.56223 2.08693 -1.80191
1.54782 2.27393 -0.485622
1.5011 2.44665 0.822537
1.44722 2.55441 2.13922
1.42877 2.6122 3.20522
1.42674 2.663 4.27912
-0.806801 0.509281 -1.98991
0 0.192697 -2.03273
-0.823706 0.191294 -1.34084
-0.725853 0.735 2.09616
0 0.309822 2.02614
-0.803094 0.231906 1.38066
0 0.891452 -1.98227
-0.79596 0.940523 -1.24333
0.00228199 1.23227 2.10127
-0.713798 1.20236 1.40333
0.805589 0.51 -1.988
0.824267 0.190733 -1.33955
0.727373 0.735 2.09431
0.803187 0.231813 1.3808
0.797588 0.942588 -1.24384
0.716801 1.2018 1.40163
-0.838658 0.186342 0.01991
-0.890535 0.600216 -0.621067
3.14653e-05 0.172329 -0.659963
-0.888654 0.671112 0.720977
-0.000223515 0.175591 0.700498
-0.771512 1.08808 0.08
0.000655305 1.35767 -0.582068
0.00140501 1.52245 0.740963
0.838696 0.186304 0.020625
0.893089 0.600558 -0.620965
0.891084 0.671459 0.720485
0.773042 1.08804 0.078895
-0.893741 0.554748 -1.29209
-0.890018 0.635664 0.049955
-0.895037 0.703056 1.392
1.57326e-05 0.162688 -1.34019
-9.6025e-05 0.173088 0.0202675
-0.000111758 0.179997 1.38073
0 0.50964 -2.28268
0.001141 0.735 2.16212
0.000327653 1.05534 -1.24358
0.00103016 1.50937 0.0794475
0.0018435 1.41116 1.40248
0.895216 0.555279 -1.29169
0.892492 0.636008 0.04976
0.895066 0.703229 1.39121
-1.2021 0.197137 -2.01934
-0.803049 0.00560601 -2.0411
-0.807874 0.152725 -2.55432
-1.13354 0.27268 2.05567
-0.777379 0.0423951 2.05248
-0.771263 0.301902 2.59573
-1.15732 0.846523 -1.91065
-0.774835 0.790646 -2.44392
-0.763181 1.43885 -1.85075
-1.01131 1.1953 2.06696
-0.677707 1.22218 2.6049
-0.693783 1.87753 2.10151
0.81036 0.00564232 -2.03972
0.790454 0.152914 -2.55312
1.20239 0.197409 -2.01777
0.764997 0.0424613 2.05234
0.731841 0.301945 2.59535
1.13982 0.272829 2.05513
0.756931 0.791776 -2.44391
0.769263 1.4399 -1.85099
1.15725 0.84801 -1.91067
0.638556 1.22222 2.60329
0.659996 1.87764 2.1
1.01907 1.19543 2.06477
-1.22661 0.195461 -0.661706
-0.826373 -0.0216651 -0.677913
-1.21302 0.202583 0.697677
-0.83062 -0.0307015 0.689198
-1.17895 1.02414 -0.584456
-0.779786 1.63994 -0.531758
-1.13132 1.14579 0.740451
-0.761482 1.80041 0.782495
0.833024 -0.0216697 -0.677007
1.23001 0.195603 -0.660774
0.827719 -0.0303186 0.689566
1.22014 0.203087 0.697822
0.778859 1.64057 -0.532432
1.18244 1.02499 -0.58518
0.742354 1.8007 0.78137
1.13939 1.14617 0.738923
-1.60156 -0.239618 -2.59432
-1.59854 -0.0861588 -3.1089
-1.20286 -0.267871 -3.13212
-1.61108 -0.213573 -1.37676
-1.60142 -0.00886317 -2.03755
-1.20237 -0.200394 -2.05931
-1.61003 -0.228904 -0.0111971
-1.61852 -0.00727019 -0.679418
-1.21829 -0.224396 -0.695626
-1.57312 -0.212426 1.35469
-1.59489 -0.0123377 0.684282
-1.21249 -0.245622 0.675803
-1.53857 -0.157723 2.57415
-1.52338 0.041585 2.04309
-1.16722 -0.1887 2.0399
-1.53702 -0.097962 3.64776
-1.51938 0.100285 3.11931
-1.1593 -0.129306 3.11507
-1.53526 0.159837 4.19058
-1.16835 -0.0688341 4.18458
-1.5984 0.144596 -2.55213
-1.58672 0.44741 -3.03713
-1.20418 0.100184 -3.08711
-1.60886 0.19744 -1.34021
-1.57941 0.534379 -1.96688
-1.60338 0.209296 0.016061
-1.59594 0.61938 -0.625095
-1.54515 0.241674 1.37268
-1.55169 0.677259 0.717151
-1.5042 0.299593 2.58826
-1.45213 0.732979 2.05961
-1.51762 0.358084 3.66214
-1.47916 0.788822 3.13614
-1.14193 0.328816 3.12832
-1.5175 0.845001 4.2109
-1.16026 0.386704 4.1991
-1.56773 0.837193 -2.45189
-1.568 1.38643 -2.92716
-1.18525 0.781315 -2.98516
-1.56649 0.95632 -1.25177
-1.556 1.4826 -1.85885
-1.54425 1.08734 0.0759954
-1.56104 1.65306 -0.535942
-1.45867 1.16856 1.40408
-1.52271 1.79376 0.781646
-1.42709 1.22221 2.60749
-1.45286 1.87477 2.105
-1.47904 1.27574 3.6849
-1.47839 1.9303 3.17654
-1.09349 1.24909 3.14543
-1.51508 1.98262 4.25225
-1.14254 1.30279 4.22343
-1.55627 2.03184 -2.33413
-1.16956 1.96729 -2.8646
-1.55055 2.17934 -1.14302
-1.16186 2.07492 -1.79896
-1.5395 2.35947 0.169708
-1.16188 2.26887 -0.483244
-1.51691 2.49996 1.48256
-1.15287 2.44838 0.823689
-1.50417 2.58286 2.67405
-1.13534 2.55699 2.13955
-1.51444 2.63718 3.74389
-1.13817 2.61385 3.2055
-1.15569 2.66394 4.2796
-0.803673 -0.228647 -2.59711
-0.808498 -0.0815281 -3.11033
-0.00779293 -0.263372 -3.13282
-0.80958 -0.211217 -1.37817
0.00731067 -0.193752 -2.0604
-0.82074 -0.241114 -0.00862587
0.00661998 -0.228619 -0.694957
-0.806588 -0.221896 1.36101
-0.00267712 -0.253423 0.678265
-0.787962 -0.160283 2.58082
-0.0123822 -0.190144 2.04385
-0.790629 -0.100178 3.65189
-0.781846 0.0992244 3.12407
-0.030845 -0.130294 3.11752
-0.79334 0.158033 4.19309
-0.0448014 -0.0699219 4.18578
-0.802709 0.43409 -3.03513
-0.0174207 0.10064 -3.08702
-0.784557 0.357435 3.66528
-0.756252 0.789079 3.13761
-0.0394216 0.328847 3.13012
-0.785295 0.844493 4.21163
-0.051298 0.386136 4.19981
-0.786809 1.36217 -2.92259
-0.0179044 0.768141 -2.98273
-0.75699 1.27614 3.68396
-0.753264 1.93264 3.17439
-0.0414334 1.24939 3.14419
-0.783146 1.9841 4.25079
-0.0552804 1.30299 4.22268
-0.775155 2.01037 -2.32943
0.000188266 1.95694 -2.86241
-0.77319 2.16445 -1.13918
0.00608208 2.06446 -1.79664
-0.77525 2.35777 0.170737
-0.00158164 2.26503 -0.482122
-0.771306 2.50541 1.48067
-0.0205324 2.45094 0.822901
-0.76934 2.58799 2.671
-0.0360693 2.56017 2.13752
-0.77942 2.6406 3.74122
-0.0440094 2.61602 3.20349
-0.0531676 2.66539 4.27802
0.803191 -0.228476 -2.59611
0.783285 -0.0812036 -3.10951
1.19024 -0.267429 -3.13105
0.823511 -0.211154 -1.37719
1.21488 -0.200165 -2.05793
0.824683 -0.240928 -0.0080665
1.23204 -0.224213 -0.694706
0.791529 -0.22167 1.36111
1.21477 -0.245199 0.67605
0.744735 -0.160155 2.58055
1.15335 -0.188453 2.03958
0.714983 -0.100038 3.65141
0.71158 0.0993287 3.12356
1.108 -0.12909 3.11441
0.697241 0.158181 4.1925
1.08634 -0.0685864 4.18379
0.767384 0.434691 -3.03461
1.17567 0.100771 -3.08608
0.693838 0.357548 3.66465
0.675397 0.789162 3.1367
1.07988 0.328987 3.1274
0.678717 0.844633 4.21086
1.0674 0.386932 4.19815
0.769093 1.36291 -2.92254
1.15554 0.782406 -2.98482
0.660276 1.27625 3.68291
0.667821 1.93278 3.17329
1.02662 1.24925 3.1438
0.674698 1.98427 4.24991
1.04153 1.30302 4.22216
0.781425 2.01103 -2.32963
1.16994 1.96822 -2.86477
0.77769 2.16504 -1.13959
1.17288 2.07586 -1.79935
0.753136 2.3582 0.170043
1.15984 2.26961 -0.484008
0.714704 2.50569 1.47974
1.11776 2.44888 0.822509
0.689261 2.5882 2.67
1.07111 2.55734 2.13811
0.682243 2.6408 3.7403
1.05615 2.61416 3.20411
1.05385 2.66424 4.27836
1.60193 -0.239118 -2.59286
1.58263 -0.0854544 -3.10762
1.62341 -0.213225 -1.37545
1.60691 -0.00839864 -2.03597
1.62213 -0.228484 -0.0105893
1.62902 -0.00694094 -0.678473
1.5766 -0.211981 1.35452
1.60719 -0.0117931 0.684306
1.51662 -0.157388 2.57344
1.52817 0.0419154 2.04237
1.47936 -0.0976384 3.64679
1.4763 0.100569 3.11825
1.4565 0.160164 4.18943
1.58761 0.145265 -2.55072
1.56382 0.448486 -3.03628
1.61253 0.197886 -1.33899
1.57965 0.53542 -1.96602
1.61409 0.20975 0.0164226
1.60214 0.620035 -0.624989
1.55877 0.242103 1.37216
1.5657 0.677803 0.716259
1.48785 0.299872 2.58718
1.46389 0.733263 2.05797
1.45344 0.358371 3.66089
1.4311 0.789078 3.1345
1.43021 0.845316 4.20944
1.55586 0.83864 -2.45158
1.55639 1.38772 -2.92705
1.56926 0.957569 -1.25202
1.56087 1.48397 -1.85903
1.55375 1.08809 0.0748471
1.56342 1.65402 -0.536756
1.47082 1.16896 1.40207
[...]
POINT_DATA 29498
VECTORS point_vectors float
-1.734 -3.62079 8.01212
0.399559 0.397442 1.84745
-1.10909 0.681339 2.11868
-0.345113 -0.403756 0.336884
1.63101 -3.40493 7.72861
-0.446209 0.383926 1.9334
0.983679 0.610559 1.87561
0.375452 -0.347063 0.305104
-0.000233033 0.00968976 0.488554
0.00790583 0.00585192 0.899452
0 0 0
0 0 0
-0.000367492 0.00797557 0.47409
-0.00450074 0.00744429 0.804386
0 0 0
0 0 0
-0.620253 -0.342108 19.9539
-1.11374 -0.747562 20.6485
-0.362096 -0.431009 21.4887
0.138757 -0.125359 21.6751
0.670071 0.132958 21.6071
0.968803 0.254662 21.295
1.03082 0.146995 20.4435
-0.79486 -0.289325 19.8345
-1.6626 -0.675173 20.6061
-0.56994 -0.542845 21.5866
0.0887815 -0.310073 21.7692
0.889394 -0.120027 21.7431
1.23694 -0.0518305 21.3425
1.20461 0.0175508 21.0702
-0.966572 0.059092 19.7043
-2.0584 0.119172 20.5555
-1.22039 -0.318272 21.6272
-0.309131 -0.412283 21.8939
0.439995 -0.696334 21.7429
0.752124 -0.748173 21.5127
0.642879 -0.588612 21.0931
-0.58717 0.40721 20.0373
-0.876419 0.61118 20.5104
-0.767827 0.428755 21.2486
-0.294453 0.0222213 21.5463
-0.0175701 -0.201122 21.3251
0.109489 -0.321595 21.1106
0.150699 -0.281006 20.8109
-0.656417 -0.805127 19.4289
-1.54826 -2.77631 20.9723
-0.239689 -0.416513 21.9794
0.108302 0.101941 21.9532
0.672156 1.02774 21.4201
1.06911 1.42142 20.854
0.858052 1.13085 20.8138
-0.912511 -0.685509 18.933
1.87763 1.35437 11.9749
2.08169 1.0715 14.8729
-1.30532 0.321923 18.3253
0.640229 -1.06216 10.1115
1.21816 -1.5791 16.4784
-0.529445 0.828935 19.6396
-0.920465 1.49089 20.26
-0.915718 1.23573 21.4218
-0.32916 0.223223 21.8472
-0.0553079 -0.218902 21.5303
0.0495047 -0.459245 21.2005
0.13107 -0.464637 20.8186
0.652796 -0.803927 19.4308
1.55749 -2.7121 20.958
0.236506 -0.421358 21.9668
-0.110649 0.0960757 21.9483
-0.65001 1.03586 21.2996
-0.976363 1.45297 20.4664
-0.752897 1.36928 20.5306
0.904536 -0.704893 18.8874
-1.64253 1.21851 9.77283
-2.16373 1.49413 12.486
1.29465 0.336735 18.2488
0.0476277 -0.754124 6.39592
-1.12001 -1.56763 13.137
0.527625 0.82899 19.6382
0.921808 1.47653 20.2624
0.909153 1.24511 21.4196
0.312495 0.230952 21.8652
0.0458982 -0.203522 21.547
-0.0692539 -0.43424 21.1198
-0.0994714 -0.41052 20.7126
0.627781 -0.352274 19.9502
1.10614 -0.740558 20.6519
0.37021 -0.438656 21.4664
-0.125841 -0.138331 21.6648
-0.671671 0.123755 21.6035
-0.981023 0.268645 21.2756
-1.05649 0.218677 20.5787
0.795617 -0.296893 19.8194
1.65939 -0.678938 20.6086
0.572452 -0.542625 21.5842
-0.0819258 -0.30923 21.7604
-0.856445 -0.148328 21.7486
-1.27417 -0.0571686 21.3834
-1.21122 0.102313 21.2724
0.990507 0.0683123 19.6795
2.05743 0.123327 20.5555
1.21417 -0.31224 21.6262
0.304589 -0.404608 21.8831
-0.414105 -0.681021 21.7195
-0.708515 -0.803761 21.6068
-0.940429 -0.774963 20.5813
0.584949 0.407142 20.0368
0.871575 0.607563 20.511
0.767023 0.430859 21.2438
0.302299 0.0373402 21.5471
0.0194345 -0.221348 21.3435
-0.110325 -0.319892 21.1814
-0.14036 -0.282377 20.8143
-1.82884 -0.2252 2.95901
-0.000740714 -0.0205419 0.158487
-0.00283768 -0.000891038 0.34548
-0.0208258 -0.0283556 0.00211068
-0.000991786 0.00441091 0.030657
0.0303929 0.0135207 0.494347
-6.60215e-05 0.0372115 0.0773282
-0.134176 -0.0706339 0.424041
-0.0744223 0.328412 -0.405837
0.00268392 0.00340036 0.0273428
1.69738 -0.234266 2.72318
-0.00215274 -0.00111486 0.406972
0.0177111 -0.0272746 0.00261387
-0.0206014 0.00697946 0.32363
0.164438 -0.0881202 0.506522
-0.00383743 0.00500257 0.0383769
0.0097945 0.0241386 1.14823
0.000109279 0.00204743 0.0353096
-9.7809e-05 0.000195992 0.0347343
8.27416e-05 0.00170189 0.0122167
1.6829e-05 2.79159e-05 0.002491
0 0 0
-3.97512e-05 0.0200107 0.0549025
-3.86079e-05 -0.000166627 0.00397739
-0.00793077 0.0245099 1.10691
-9.08475e-05 0.00218398 0.035692
-7.5786e-05 0.00160159 0.0117147
0 0 0
0 0 0
3.19952e-05 0.000999686 0.0080589
0.000179657 0.00103977 0.0114069
1.15907e-05 -2.56481e-05 0.00238838
-0.000103326 5.34216e-06 0.030189
1.66614e-05 3.78896e-05 0.00583156
8.13713e-05 -0.0756326 0.0775869
0 0 0
-1.06731e-05 0.000507159 0.00237568
-6.31348e-05 0.0101225 0.0885994
5.28096e-08 5.25588e-08 -3.30749e-07
0.00445967 -0.00525234 0.0701764
-2.67919e-05 0.000828056 0.00670537
-0.00025684 0.00227899 0.025165
-3.00831 -1.70984 20.6638
-2.40726 -4.31711 21.3934
-2.4461 -2.0724 17.9696
1.41131 0.309834 19.3573
0.9657 1.28121 16.9258
1.26252 0.843144 8.69677
-3.9946 0.702586 20.4955
-3.6928 1.61229 16.7481
-2.24614 2.63803 19.8757
0.682598 -0.537136 18.0207
-0.469969 -0.815134 4.91074
-0.266716 -0.4825 21.7252
2.42022 -4.27184 21.3678
2.45389 -2.1378 17.8924
3.01856 -1.71326 20.6503
-0.943828 1.26536 16.5681
-1.1641 0.662919 7.27244
-1.38643 0.260081 19.4304
3.689 1.67609 16.6315
2.2409 2.61972 19.8749
3.99416 0.712784 20.4788
0.835831 -0.750491 2.8912
0.265343 -0.422224 21.6383
-0.634546 -0.530722 18.2255
-0.349548 -0.924296 21.9275
-0.0451641 -0.0820479 19.479
0.303583 -0.323352 21.0834
0.273377 0.221028 18.712
-1.9608 -0.851601 22.063
-2.84321 2.07895 21.7863
-0.371477 -0.556866 21.1835
-0.765082 0.189886 22.4239
0.0438749 -0.101054 19.602
0.374169 -0.941187 21.9253
-0.264198 0.212614 18.6361
-0.292042 -0.343331 21.1801
2.83851 2.11373 21.78
1.95519 -0.839979 22.0539
0.750751 0.21416 22.3985
0.379111 -0.564932 21.2497
-0.926809 -0.592054 20.1601
-0.725023 -0.336265 19.8885
-0.670162 -0.543519 19.7244
-0.790212 -0.643889 21.2641
-1.40589 -0.759237 20.6428
-1.51488 -1.49508 20.7121
-0.0822054 -0.258403 21.6215
-0.477726 -0.505446 21.5314
-0.272827 -0.515063 21.7241
0.39216 0.0178513 21.7098
0.105249 -0.231399 21.7096
0.198095 -0.0706155 21.8002
0.852488 0.206601 21.4449
0.759026 0.0406162 21.6595
0.83412 0.498272 21.7577
0.884333 0.222712 21.362
1.12971 0.153556 21.3709
1.26393 0.726786 21.2448
1.17273 0.0353705 20.6764
1.06722 0.554366 21.2792
-1.28708 -0.506658 20.0079
-0.907733 -0.136837 19.7118
-0.933632 -0.485127 19.4686
-1.15102 -0.695364 21.4017
-1.99755 -0.354713 20.5892
-0.21418 -0.428602 21.6796
-0.88987 -0.548087 21.6306
0.425401 -0.21884 21.8399
-0.085446 -0.419778 21.8905
1.09794 -0.0756614 21.5527
0.825794 -0.486105 21.7031
1.2959 -0.249924 21.3496
1.14692 -0.456217 21.4205
1.85127 0.28711 19.3953
0.913504 -0.430013 21.2497
1.66009 0.0686858 19.9806
-1.62543 0.130556 19.8786
-0.823305 0.363512 19.8145
-1.21598 0.164986 19.1543
-1.74698 -0.118006 21.2957
-1.42884 0.617692 20.4447
-0.760767 -0.400803 21.8207
-1.20414 0.229181 21.4415
0.107479 -0.503519 21.8781
-0.433994 -0.140001 21.7605
0.59904 -0.766933 21.5908
0.0577613 -0.430878 21.5764
0.828763 -0.663434 21.5309
0.284856 -0.61728 21.3265
0.92717 -0.973636 20.4508
0.411649 -0.716747 20.6832
1.24463 -1.1287 20.1975
-0.757967 0.53616 20.2358
-0.619347 0.603253 19.8595
-0.889658 0.578415 20.9236
-0.993016 1.00212 20.4149
-0.530136 0.195497 21.4834
-0.899659 0.766954 21.3563
-0.119714 -0.104151 21.4901
-0.323739 0.0898352 21.7042
0.0678509 -0.271994 21.3581
-0.0144788 -0.24666 21.4298
0.136741 -0.259714 21.1078
0.0551327 -0.381396 21.5105
0.212554 -0.480983 20.6856
-1.22984 -1.73306 19.4587
-0.781066 -0.766296 19.1909
-0.00327408 -1.11705 19.0486
-0.674111 -1.21159 22.0506
0.0125421 -3.99771 21.5504
-0.0550286 -0.126095 21.874
-0.00648344 -0.588672 21.9954
0.363869 0.49916 21.8654
-0.00501868 -0.0251596 21.6496
0.880408 1.25448 20.8565
-0.0171961 1.04187 19.9312
1.26007 1.61577 20.4227
1.5388 1.73107 17.5989
0.0173125 1.56392 18.8845
1.51716 1.29959 17.5205
-0.0353737 2.44083 18.4991
-1.23376 -0.332396 18.4853
-0.0228133 -1.04963 18.1905
2.11158 1.13345 13.4797
1.11544 -0.726792 6.03771
-0.0133334 0.662222 4.89364
2.31072 -0.282007 13.4489
0.277372 2.41771 9.3869
-0.932403 0.931603 19.0016
-0.0438191 0.606819 17.0871
1.09978 -1.24826 12.7042
0.013065 -0.814316 21.71
0.0719467 1.45001 -5.44135
0.0340589 -0.69774 20.5088
0.156975 0.959714 0.462891
-0.742276 1.22672 19.8655
-0.000932702 1.0722 19.4628
-1.02194 1.51755 20.8395
0.00347375 2.01416 20.0643
-0.606142 0.711425 21.8098
-0.00709975 1.96978 21.4527
-0.167434 -0.0759123 21.6897
-0.01831 0.408577 22.009
0.0182979 -0.291241 21.3508
-0.013147 -0.156316 21.5172
0.0499994 -0.34341 21.4772
-0.012258 -0.363896 21.4123
-0.00595466 -0.510942 20.6385
1.23015 -1.73345 19.4582
0.775474 -0.779475 19.1635
0.669531 -0.547091 19.7189
0.669783 -1.18871 22.0373
1.51112 -1.47845 20.7039
0.0509145 -0.131109 21.8707
0.278789 -0.531761 21.7154
-0.343119 0.497173 21.8181
-0.199643 -0.0840982 21.792
-0.820197 1.25607 20.6998
-0.83855 0.493683 21.7532
-1.19991 1.76043 20.0002
-1.43464 1.71469 17.046
-1.27398 0.794211 21.2464
-1.39318 1.55035 17.1008
-1.10756 0.631166 21.4397
1.21806 -0.34596 18.3898
0.943379 -0.511316 19.4275
-2.08665 1.30629 11.3255
-0.772889 -0.780717 3.86935
-1.93529 0.35046 18.6815
-2.13744 -0.201965 9.5953
-1.81102 0.200422 19.0167
0.922537 0.941633 18.9857
1.21202 0.165673 19.1158
-0.676948 -1.11402 9.5835
0.0183785 -0.714225 21.8678
-0.901754 -0.970317 19.1794
-0.0454529 -0.687099 20.7191
-1.20622 -1.27337 19.3287
0.742967 1.22305 19.8654
0.617346 0.603364 19.8581
1.01879 1.51268 20.837
0.990589 0.99217 20.4146
0.595047 0.729325 21.8144
0.896549 0.773439 21.3539
0.150446 -0.0674058 21.6868
0.319741 0.113602 21.7149
-0.0291903 -0.262559 21.3549
0.0146733 -0.222372 21.3915
-0.0385058 -0.26097 21.7612
-0.0522144 -0.404672 21.4865
-0.211565 -0.465611 20.7149
0.921786 -0.572812 20.1594
0.727182 -0.335857 19.8761
0.799107 -0.644775 21.2502
1.38638 -0.764899 20.6474
0.0990315 -0.268569 21.6131
0.476827 -0.508155 21.5221
-0.388734 0.0102322 21.7141
-0.100724 -0.237584 21.6983
-0.866969 0.200199 21.4517
-0.74441 0.02494 21.6634
-0.919976 0.266909 21.3234
-1.16561 0.150694 21.412
-1.19426 0.124768 20.8569
1.2966 -0.519867 19.9991
0.915061 -0.140654 19.6988
1.14876 -0.698935 21.3986
2.0007 -0.353251 20.5927
0.218311 -0.426847 21.6766
0.891468 -0.542815 21.6334
-0.418096 -0.223392 21.8335
0.0874076 -0.417205 21.8796
-1.0987 -0.0957999 21.5574
-0.786955 -0.483259 21.7043
-1.48851 -0.166065 21.2453
-1.17982 -0.508447 21.4611
-1.1578 -0.580354 20.7438
1.64762 0.136451 19.8656
0.826491 0.370742 19.8043
1.74711 -0.112011 21.2924
1.41965 0.615159 20.4423
0.755076 -0.393565 21.8161
1.20393 0.230873 21.4388
-0.100263 -0.491078 21.8602
0.434445 -0.137223 21.7726
-0.547333 -0.768001 21.5992
-0.0469363 -0.425097 21.5656
-0.829571 -0.727424 21.6864
-0.238418 -0.613707 21.3881
-0.268416 -0.671714 21.1234
0.753973 0.533782 20.2353
0.886403 0.578384 20.9172
0.536102 0.205611 21.4832
0.131416 -0.0855954 21.4849
-0.0665075 -0.259211 21.3478
-0.137366 -0.297254 21.1118
-1.14087 -0.581741 20.0754
-1.79359 -2.10201 18.8096
-1.16593 -1.04434 19.8709
-1.90018 -1.02074 19.4312
-0.819834 -0.524962 19.5743
-2.13675 -1.72821 20.7184
-0.986335 -0.682256 21.3214
-0.620218 -0.961728 21.4174
-0.818013 -1.0108 21.6137
-1.32916 -1.3712 22.1002
-0.245347 -0.660012 21.8107
-0.148176 -0.357093 21.6326
0.120069 0.0970972 18.8049
-0.0111917 -0.269644 21.7282
0.0345344 -0.590735 21.4555
0.313191 -0.175317 21.7505
0.396262 -0.0847265 21.7457
0.588776 0.626783 17.3622
0.50224 0.181846 21.8527
0.690328 -0.0394667 20.1456
1.19889 0.479481 21.2984
0.98298 0.0989758 21.4905
1.19598 1.45038 17.2394
1.07396 0.685073 21.3979
1.63615 0.312781 19.4807
1.50977 0.609336 21.3848
1.08393 0.0258803 21.3296
1.69846 1.49721 16.9845
1.35822 0.913135 21.1537
2.15347 0.303641 19.1884
1.23317 0.423577 21.3921
-1.54955 -0.22428 19.8818
-3.74283 -0.67696 16.4988
-2.5962 0.520115 19.02
-1.16498 -0.221842 19.2172
-4.25226 -0.672739 20.6049
-1.51621 -0.517466 21.4256
-2.84871 -0.356168 21.8063
-0.95474 -1.0804 21.4427
-0.460572 -0.501482 21.7706
-1.09132 -0.782785 21.5476
0.0637782 -0.367016 19.5413
0.318775 -0.407321 21.902
0.31533 -0.344648 19.7651
1.16427 -0.172345 15.783
1.03143 -0.51835 21.5299
-0.171887 -1.1519 2.55279
0.659215 -0.856374 19.603
1.53719 -0.378701 18.7534
1.22499 -0.574907 21.2815
1.93891 -0.0722632 9.27305
1.0731 -1.11615 20.5472
1.99676 -1.06024 19.2206
-1.18466 0.536573 20.0228
-1.6836 1.93121 19.0416
-0.841961 0.846337 20.0565
-0.942875 0.565085 19.4995
-2.01476 1.32925 20.256
-1.44535 0.467606 21.0272
-2.60071 2.41301 20.6613
-1.05558 0.990453 20.9044
-1.86947 0.676652 21.6323
-0.846136 0.0309071 21.7036
-1.86378 1.05268 22.4941
-0.621201 0.41234 21.6565
-0.602621 -0.0467898 22.0249
-0.124271 -0.297638 21.6946
-0.320287 -0.323539 22.067
-0.112598 -0.126496 21.6145
-0.0388512 -0.532799 21.6425
0.174757 -0.545201 21.444
-0.164365 -0.606465 21.6664
0.0238112 -0.311816 21.1864
0.160192 -0.664792 21.1092
0.423411 -0.555063 20.9589
0.119858 -0.845199 20.7167
0.145767 -0.449342 20.9441
0.0512546 -0.4367 22.2793
1.79334 -2.12948 18.7875
-0.000646323 -2.81481 18.8784
-0.037049 -4.28136 15.4473
-0.0124804 -1.13395 18.6032
0.00540183 -5.63216 23.0546
0.591394 -0.922075 21.455
0.00529311 -1.56182 22.5213
-0.0121358 -0.170824 14.5087
-0.119327 0.0932207 18.8368
-0.00921826 -0.273128 21.5679
-0.00303157 0.0629613 13.7799
-0.55908 0.583214 17.4169
-0.00553295 0.403735 20.8552
-0.0587558 0.965815 11.0122
-1.09088 1.41738 16.392
-0.0129276 1.25943 19.2022
-0.0779645 0.0128731 2.7183
-0.0361203 1.41206 12.9155
-1.63511 1.62198 16.4478
0.0299676 1.95208 18.988
0.187957 1.40289 5.70717
0.223269 2.52941 15.0372
3.77365 -0.70165 16.3027
-0.063004 4.13002 12.806
-0.0435859 -0.481504 17.3454
0.316369 -1.28862 1.62228
-0.108715 0.753714 -4.82171
0.416747 0.525312 -2.67063
-1.51315 0.0869083 5.73785
-0.0936728 0.642454 -1.15343
0.474527 2.68781 -2.45884
1.67504 1.93916 19.0304
0.00351004 1.6509 19.6416
-0.0187611 1.41354 18.407
0.00629968 4.12457 19.3924
2.59083 2.4129 20.6569
5.12642e-05 2.17504 20.6877
-0.0108121 4.54179 21.5542
1.87637 1.10875 22.504
-0.0164277 1.13942 21.9669
-0.0215113 0.752661 22.5352
0.315661 -0.301191 22.0685
-0.0176551 0.00519558 21.7567
-0.0450832 -0.0552087 20.5735
0.196867 -0.529636 21.7421
-0.0224089 -0.260338 21.6433
-0.0946437 -0.560366 20.8452
-0.105189 -0.802705 20.6526
-0.0273221 -0.479191 21.0481
-0.0149125 -0.620117 21.4515
1.13825 -0.589167 20.0684
1.16622 -1.05594 19.8703
1.92664 -1.05875 19.3997
0.828083 -0.544955 19.5449
2.12554 -1.70732 20.7065
0.980498 -0.685372 21.3148
0.815856 -1.01396 21.5969
1.33047 -1.38071 22.0782
0.266232 -0.678786 21.7981
0.152736 -0.36551 21.6297
0.0111263 -0.28405 21.7188
-0.0181402 -0.607422 21.4825
-0.303941 -0.190267 21.7481
-0.387516 -0.099187 21.7347
-0.502414 0.168982 21.8452
-0.676028 -0.0592477 20.219
-1.19234 0.461562 21.2387
-0.993549 0.0973508 21.4932
-1.07043 0.691265 21.3842
-1.62367 0.330711 18.9974
-1.56517 0.674796 21.1221
-1.27802 0.097105 21.2033
-1.44568 1.01795 21.1415
-2.16027 0.423907 18.702
-1.38035 0.49715 20.6364
1.5735 -0.227158 19.8702
2.62485 0.535596 18.9686
1.17463 -0.226751 19.1708
4.26216 -0.672661 20.5869
1.51602 -0.513275 21.4267
2.84761 -0.34373 21.8008
0.981324 -1.06307 21.5001
0.46282 -0.495779 21.7712
1.08697 -0.773837 21.5715
-0.0598421 -0.389695 19.7386
-0.306492 -0.401099 21.9046
-0.296628 -0.365272 19.8801
-1.12118 -0.21342 15.9163
-1.00799 -0.545111 21.5063
-0.571679 -0.763997 18.6368
-1.5284 -0.405313 17.0407
-1.32001 -0.538199 21.2794
-1.08482 -1.18953 18.9514
-2.11691 -0.915198 18.1611
1.1861 0.540031 20.019
0.840118 0.842406 20.0552
0.9404 0.573563 19.4816
2.00576 1.31971 20.253
1.44235 0.468632 21.0257
1.05068 0.986097 20.9009
1.86948 0.687874 21.6296
0.846102 0.0377833 21.6987
0.621825 0.429486 21.6639
0.606802 -0.0366947 22.0303
0.127587 -0.289454 21.6976
0.121902 -0.111453 21.6412
0.0590671 -0.504165 21.6433
-0.155017 -0.527365 21.4506
-0.0241354 -0.319009 21.2335
-0.144893 -0.665763 21.225
-0.43667 -0.492855 20.855
-0.137858 -0.471448 20.8916
-0.02583 -0.522286 22.2352
-1.53715 -1.07922 19.6368
-0.996652 -1.16388 21.8082
0.0760522 -0.379899 21.7529
0.696756 0.0988458 21.6361
1.44219 0.58947 21.1435
1.80877 0.729299 20.9058
-2.58415 -0.413791 18.9943
-2.21273 -1.06127 22.3218
-0.337945 -0.776118 20.4275
0.471483 -0.0334211 18.1964
1.31457 -0.442364 17.435
1.74574 -0.552372 19.6027
-1.52247 1.03333 19.6376
-2.11368 1.03537 21.0032
-1.26234 0.273574 22.0081
-0.196998 -0.349921 21.8676
0.0675547 -0.619113 21.5399
0.415625 -0.740603 21.2955
-0.0124804 -3.78574 17.6427
0.00612787 -0.915784 17.413
-0.0149468 -0.0645625 13.5979
0.00684069 0.29961 12.7093
-0.0383376 1.05578 11.8618
0.141622 1.97041 13.5033
-0.060526 -1.04909 11.9454
0.0546642 -0.193577 -0.808287
0.523619 2.10741 -2.15201
-0.0113989 3.02465 18.3227
-0.00249536 4.22157 19.9629
-0.0213613 2.5468 22.8188
-0.0236969 0.00799346 21.6857
-0.0624365 -0.157926 20.6249
-0.0571796 -0.708962 20.7694
1.54961 -1.10339 19.6142
1.00278 -1.16716 21.788
-0.0646089 -0.398156 21.7553
-0.684268 0.0847976 21.6183
-1.44298 0.6105 21.0569
-1.87578 0.85576 20.4876
2.61623 -0.418161 18.9408
2.22507 -1.05633 22.3124
0.353981 -0.773237 20.5515
-0.465966 -0.0679047 18.3802
-1.23454 -0.435453 16.5561
-1.85739 -0.467771 17.7909
1.52081 1.04373 19.6296
2.10617 1.03441 20.9994
1.26493 0.282243 22.0129
0.20538 -0.336782 21.8706
-0.0333718 -0.608867 21.5513
-0.272202 -0.818515 21.8396
-1.3536 -0.284311 1.6302
-0.00766994 -0.0245498 0.199486
-0.0543938 -0.0480732 1.01904
0.0386734 -0.0232885 0.11481
0.000137477 0.00443574 0.0264956
0.0770813 0.0730482 1.42478
-0.718786 0.0241647 1.12638
-0.00355349 0.0109813 0.0250299
-0.227972 -0.0240762 0.622692
-0.0479224 -0.0378767 -0.00845777
-0.668922 0.122831 -0.186214
0.00709395 -0.0264083 0.134242
0.00720972 -0.0240708 0.193501
1.23078 -0.292089 1.64136
0.0661206 -0.0364059 0.953827
0.00548747 0.0613706 0.250929
-0.0420803 -0.0317351 0.129616
-0.0867729 0.0806791 1.40377
0.00327979 0.0103822 0.0236372
0.681744 0.0234167 1.07643
0.289968 -0.0301309 0.774794
0.568575 0.281995 -0.306221
0.0843435 -0.0602229 -0.0172731
-0.00860167 -0.0316772 0.165442
0.00365966 -0.00111058 0.0942136
-0.00176017 0.0211929 0.705611
1.96102e-05 0.000232628 0.00523097
0 0 0
0.0536043 0.0357135 0.268234
0.0015319 0.0101339 0.610801
-0.000176848 0.00248458 0.0329405
0 0 0
0 0 0
0 0 0
0 0 0
-0.0360045 0.0453513 0.132463
0.0149219 0.0238096 0.128098
0 0 0
0 0 0
0.00401811 -0.00226475 0.0341327
-0.00176036 -0.00162121 0.093204
0 0 0
0.0030668 0.0206473 0.68885
-7.64469e-06 0.000230324 0.00460409
0 0 0
0 0 0
-0.000671045 0.00989602 0.576852
0.000198001 0.00259747 0.0336023
0 0 0
0.0359341 0.0458733 0.1336
0 0 0
0 0 0
-0.0143042 0.0206965 0.115006
-0.00397849 -0.0021706 0.0328045
0 0 0
0 0 0
-0.00832942 -0.0090505 0.0816737
-0.105543 -0.0184331 0.0519079
-5.19944e-05 -0.000118184 0.00602978
-2.82039e-05 -0.140627 0.00973103
0 0 0
0.000718947 -0.000384963 0.0259289
0.0149147 -0.00245697 0.112453
-0.0130616 -0.0143078 0.00080715
-0.0065217 0.0652292 0.204537
-0.000737643 -0.0107741 0.00217664
0.000363308 0.00121567 0.0235073
0 0 0
0.000932369 0.146105 0.0528502
-7.1452e-05 0.0472576 0.18163
-0.0322227 -0.0973813 0.573365
2.35678e-17 -1.08607e-17 -2.92011e-17
-0.0390875 -0.120961 0.0245258
-0.000902136 0.00226572 -0.00789798
0.000169392 0.000295444 0.00293144
-0.000311894 -0.00163232 0.0072497
0.177862 0.0442215 0.0550395
0.00904 -0.0104749 0.0938291
-0.000378827 -0.000138877 0.0127979
0.00661197 0.000457458 0.150191
0.0127491 -0.0206474 0.00170553
-0.00215064 -0.000571938 0.0149071
-0.0126281 0.0049614 0.202921
-0.000301403 0.000850455 0.020986
-5.81539e-18 -2.70799e-18 -7.24504e-18
0.0275648 -0.0792529 0.475637
-7.95065e-05 -0.00181162 0.00824283
-0.00041859 0.000732829 0.00705869
-6.80104e-05 0.0013341 0.0150575
0.00019658 6.316e-05 0.00589856
8.62133e-05 -0.000297241 0.00775338
8.4187e-05 0.00270219 0.0260566
-0.00033636 0.00112152 0.0710494
-1.16857e-06 7.10078e-07 0.000611628
0.000190201 0.00259238 0.0181687
-3.78805e-05 0.000947472 0.00841388
-8.86759e-06 1.80038e-05 0.0100434
9.76847e-05 -0.000198496 0.0290926
0 0 0
-0.00883043 0.0144162 0.128888
-2.19132e-05 0.006598 0.0145844
0.000162641 0.00851647 0.0409145
-9.56335e-05 0.00125713 0.0284119
-6.03305e-05 -0.000966965 0.0121397
-0.000607415 0.000157519 0.0176454
7.63833e-05 0.00134179 0.0150255
0.000857903 -0.00127762 0.0616083
-8.03242e-05 0.00278051 0.026729
-0.000192436 0.0026431 0.0185324
-0.000152729 0.00214974 0.0202541