# vtk DataFile Version 2.0
tet_velo
ASCII
DATASET UNSTRUCTURED_GRID
POINTS 29498 float
-0.75611 0.175 -1.835
-0.708178 0.305 1.945
-0.754616 0.735 -1.875
-0.675 0.915 1.96405
0.756482 0.175 -1.835
0.715 0.305 1.93926
0.755 0.736094 -1.875
0.675 0.915 1.96491
-0.773151 0.185315 -0.575
-0.793837 0.191985 0.685
-0.797995 0.864918 -0.595317
-0.743197 0.896658 0.684367
0.775672 0.185316 -0.576913
0.797839 0.192655 0.681173
0.798019 0.865415 -0.59503
0.743652 0.89735 0.68494
-1.52997 -0.199576 -2.84213
-1.53094 -0.153256 -1.82642
-1.5391 -0.142238 -0.56709
-1.53591 -0.132367 0.688275
-1.48607 -0.0528235 1.94726
-1.47021 0.00342487 2.96131
-1.47464 0.0460764 3.97835
-1.53081 0.111717 -2.85467
-1.5335 0.171124 -1.83678
-1.54499 0.194825 -0.573373
-1.53169 0.199504 0.688361
-1.45739 0.27594 1.95139
-1.45137 0.330865 2.96581
-1.46523 0.373403 3.9822
-1.53164 0.713995 -2.88556
-1.53692 0.772632 -1.86871
-1.55635 0.864548 -0.591842
-1.50102 0.887952 0.68656
-1.42907 0.91628 1.9632
-1.43746 0.970033 2.97783
-1.46 1.01977 3.9916
-1.5329 1.68345 -2.91606
-1.53617 1.74839 -1.89602
-1.54117 1.8378 -0.612572
-1.52474 1.89417 0.675407
-1.49796 1.9284 1.95897
-1.4882 1.96236 2.97924
-1.4896 2.0038 3.99523
-0.762679 -0.197692 -2.84104
-0.758504 -0.149695 -1.82487
-0.766508 -0.146658 -0.567971
-0.781859 -0.137259 0.6847
-0.747469 -0.0372831 1.94154
-0.73546 0.014901 2.95719
-0.738893 0.052476 3.97564
-0.763643 0.10942 -2.85443
-0.721875 0.342804 2.96257
-0.733086 0.379551 3.98007
-0.763384 0.698367 -2.88825
-0.712428 0.972842 2.97785
-0.731042 1.02244 3.99116
-0.763479 1.67438 -2.91876
-0.765106 1.74062 -1.89896
-0.77632 1.83778 -0.614429
-0.774769 1.89683 0.675376
-0.760508 1.9289 1.96009
-0.753625 1.96213 2.9803
-0.753749 2.00384 3.99583
0.764633 -0.19746 -2.8414
0.767969 -0.149615 -1.82537
0.781303 -0.146528 -0.569736
0.778282 -0.136766 0.681406
0.723634 -0.0370794 1.93712
0.722428 0.0150945 2.95388
0.726662 0.0527183 3.9732
0.759544 0.109723 -2.85462
0.71429 0.342938 2.95943
0.72185 0.379771 3.97781
0.760076 0.699005 -2.88835
0.699152 0.972979 2.97678
0.714089 1.02267 3.98967
0.772237 1.67493 -2.91901
0.774378 1.74118 -1.89915
0.759927 1.83829 -0.614605
0.729724 1.8973 0.675175
0.70947 1.92926 1.95975
0.708494 1.96245 2.97968
0.713058 2.00415 3.99491
1.53214 -0.199039 -2.84301
1.53719 -0.152891 -1.82761
1.55079 -0.141789 -0.569964
1.54224 -0.131524 0.683199
1.48307 -0.052258 1.94076
1.46575 0.0039063 2.95568
1.46704 0.0466002 3.97379
1.52761 0.112368 -2.85525
1.53253 0.171564 -1.8374
1.5494 0.195269 -0.575725
1.54252 0.200443 0.683798
1.47028 0.276411 1.94522
1.45288 0.331276 2.96062
1.45883 0.373895 3.97797
1.52856 0.715066 -2.88591
1.53544 0.773806 -1.86884
1.55611 0.865401 -0.592299
1.50566 0.888962 0.685579
1.43599 0.916762 1.96175
1.4332 0.970451 2.9753
1.44768 1.02027 3.98863
1.53854 1.68449 -2.91664
1.54059 1.74944 -1.89651
1.52604 1.83878 -0.613099
1.48836 1.89507 0.674749
1.45612 1.92915 1.95801
1.44893 1.96303 2.97781
1.45232 2.00444 3.99331
-0.795562 0.455 -1.8952
0.000185996 0.172195 -1.83781
-0.768302 0.176486 -1.205
-0.745812 0.61 2.00875
0.003411 0.297413 1.94972
-0.769645 0.229855 1.315
0.000191987 0.795225 -1.93468
-0.816309 0.839962 -1.23516
0 0.93334 1.98282
-0.749371 0.946102 1.32421
0.796445 0.455547 -1.8957
0.769757 0.176478 -1.20596
0.749193 0.61 2.00628
0.774777 0.23047 1.31022
0.815904 0.840149 -1.23502
0.749336 0.946185 1.32493
-0.78222 0.189924 0.055
-0.873184 0.525116 -0.585158
0.00126025 0.181292 -0.575957
-0.847686 0.544322 0.684683
0.00200108 0.188746 0.683087
-0.765282 0.875474 0.044525
1.20266e-05 1.02392 -0.595173
0.000227301 1.22437 0.684653
0.785628 0.190113 0.05213
0.874255 0.525366 -0.585972
0.848223 0.545002 0.683057
0.765914 0.876461 0.044955
-0.884207 0.490058 -1.22008
-0.855539 0.534719 0.0497625
-0.887684 0.577161 1.3196
0.000723125 0.174341 -1.20548
0.00163066 0.188269 0.053565
0.00270604 0.219831 1.31261
0.000188991 0.455274 -2.20316
0.0017055 0.61 2.16598
0.000102007 0.912702 -1.23509
0.000119664 1.22128 0.04474
0.000113651 1.09944 1.32457
0.883827 0.490456 -1.22049
0.856641 0.535184 0.0485425
0.887181 0.577501 1.31757
-1.14481 0.173062 -1.83589
-0.757307 0.0126527 -1.82994
-0.759876 0.14221 -2.34471
-1.08278 0.29047 1.9482
-0.727823 0.133858 1.94327
-0.715027 0.323902 2.45379
-1.14577 0.753816 -1.87186
-0.759 0.716683 -2.38163
-0.759861 1.23781 -1.88698
-1.05203 0.91564 1.96362
-0.693714 0.943921 2.47095
-0.717754 1.42195 1.96207
0.762226 0.0126924 -1.83019
0.758013 0.142361 -2.34481
1.14451 0.173282 -1.8362
0.719317 0.13396 1.93819
0.714645 0.323969 2.44934
1.09264 0.290705 1.94224
0.757538 0.71755 -2.38168
0.764689 1.23864 -1.88708
1.14522 0.75495 -1.87192
0.687076 0.94399 2.47084
0.692235 1.42213 1.96233
1.05549 0.915881 1.96333
-1.15907 0.19007 -0.574187
-0.76983 0.0193283 -0.571486
-1.16276 0.195745 0.68668
-0.787848 0.0273631 0.68485
-1.17717 0.864733 -0.593579
-0.787158 1.35135 -0.604873
-1.12211 0.892305 0.685464
-0.758983 1.39675 0.679871
0.778488 0.019394 -0.573325
1.16253 0.190292 -0.576319
0.788061 0.0279443 0.68129
1.17018 0.196549 0.682486
0.778973 1.35185 -0.604817
1.17706 0.865408 -0.593664
0.736688 1.39732 0.680057
1.12465 0.893156 0.685259
-1.53045 -0.176416 -2.33427
-1.53039 -0.0439295 -2.8484
-1.14632 -0.198634 -2.84158
-1.53502 -0.147747 -1.19675
-1.53222 0.00893395 -1.8316
-1.14472 -0.151475 -1.82564
-1.5375 -0.137302 0.0605927
-1.54204 0.0262935 -0.570231
-1.1528 -0.144448 -0.56753
-1.51099 -0.0925952 1.31777
-1.5338 0.0335686 0.688318
-1.15888 -0.134813 0.686488
-1.47814 -0.0246993 2.45428
-1.47173 0.111558 1.94933
-1.11677 -0.0450533 1.9444
-1.47243 0.0247506 3.46983
-1.46079 0.167145 2.96356
-1.10284 0.00916294 2.95925
-1.46994 0.20974 3.98027
-1.10677 0.0492762 3.97699
-1.53216 0.14142 -2.34572
-1.53123 0.412856 -2.87012
-1.14723 0.110568 -2.85455
-1.53925 0.182974 -1.20508
-1.53521 0.471878 -1.85275
-1.53834 0.197165 0.0574938
-1.55067 0.529687 -0.582607
-1.49454 0.237722 1.31988
-1.51636 0.543728 0.68746
-1.45438 0.303403 2.4586
-1.44323 0.59611 1.9573
-1.4583 0.352134 3.47401
-1.44442 0.650449 2.97182
-1.08662 0.336835 2.96419
-1.46261 0.696586 3.9869
-1.09916 0.376477 3.98113
-1.53428 0.743314 -2.37714
-1.53227 1.19872 -2.90081
-1.14751 0.706181 -2.88691
-1.54663 0.81859 -1.23028
-1.53654 1.26051 -1.88237
-1.52869 0.87625 0.0473593
-1.54876 1.35117 -0.602207
-1.46505 0.902116 1.32488
-1.51288 1.39106 0.680984
-1.43326 0.943157 2.47051
-1.46351 1.42234 1.96108
-1.44873 0.994901 3.48471
-1.46283 1.4662 2.97854
-1.07494 0.971438 2.97784
-1.4748 1.51178 3.99341
-1.09552 1.02111 3.99138
-1.53453 1.71592 -2.40604
-1.14819 1.67892 -2.91741
-1.53867 1.79309 -1.2543
-1.15064 1.74451 -1.89749
-1.53296 1.86598 0.0314173
-1.15875 1.83779 -0.613501
-1.51135 1.91128 1.31719
-1.14975 1.8955 0.675391
-1.49308 1.94538 2.4691
-1.12923 1.92865 1.95953
-1.4889 1.98308 3.48723
-1.12091 1.96225 2.97977
-1.12167 2.00382 3.99553
-0.760591 -0.173693 -2.33295
-0.763161 -0.0441364 -2.84773
0.000977042 -0.197576 -2.84122
-0.762506 -0.148176 -1.19642
0.00473288 -0.149655 -1.82512
-0.774183 -0.141958 0.0583644
0.00739779 -0.146593 -0.568854
-0.764664 -0.087271 1.31312
-0.00178837 -0.137013 0.683053
-0.741464 -0.0111911 2.44936
-0.0119175 -0.0371813 1.93933
-0.737176 0.0336885 3.46641
-0.728667 0.178853 2.95988
-0.00651565 0.0149978 2.95553
-0.735989 0.216013 3.97785
-0.00611519 0.0525971 3.97442
-0.763513 0.403893 -2.87134
-0.00204916 0.109571 -2.85452
-0.727481 0.361177 3.47132
-0.717152 0.657823 2.97021
-0.00379242 0.342871 2.961
-0.732064 0.700996 3.98561
-0.00561766 0.379661 3.97894
-0.763431 1.18637 -2.90351
-0.00165384 0.698686 -2.8883
-0.721735 0.997642 3.4845
-0.733026 1.46748 2.97908
-0.00663785 0.972911 2.97731
-0.742395 1.51314 3.99349
-0.00847632 1.02255 3.99041
-0.764292 1.7075 -2.40886
0.00437881 1.67466 -2.91888
-0.770713 1.7892 -1.2567
0.00463605 1.7409 -1.89906
-0.775544 1.86731 0.0304733
-0.00819664 1.83804 -0.614517
-0.767638 1.91286 1.31773
-0.0225224 1.89706 0.675275
-0.757066 1.94551 2.4702
-0.0255191 1.92908 1.95992
-0.753687 1.98299 3.48807
-0.0225653 1.96229 2.97999
-0.0203457 2.004 3.99537
0.766301 -0.173537 -2.33339
0.762089 -0.0438685 -2.84801
1.14839 -0.198249 -2.84221
0.774636 -0.148072 -1.19756
1.15258 -0.151253 -1.82649
0.779793 -0.141647 0.055835
1.16605 -0.144159 -0.56985
0.750958 -0.0869229 1.30926
1.16026 -0.134145 0.682303
0.723031 -0.0109924 2.4455
1.10335 -0.0446687 1.93894
0.724545 0.0339064 3.46354
0.718359 0.179016 2.95665
1.09409 0.00950041 2.95478
0.724256 0.216245 3.9755
1.09685 0.0496592 3.97349
0.75981 0.404364 -2.87149
1.14358 0.111045 -2.85493
0.71807 0.361355 3.46862
0.706721 0.657959 2.9681
1.08358 0.337107 2.96002
0.71797 0.701219 3.98374
1.09034 0.376833 3.97789
0.766156 1.18697 -2.90368
1.14432 0.707035 -2.88713
0.706621 0.997823 3.48323
0.703823 1.46771 2.97823
1.06618 0.971715 2.97604
0.713573 1.51341 3.99229
1.08089 1.02147 3.98915
0.773307 1.70806 -2.40908
1.15539 1.67971 -2.91782
0.767152 1.78974 -1.25688
1.15748 1.74531 -1.89783
0.744825 1.86779 0.030285
1.14298 1.83853 -0.613852
0.719597 1.91328 1.31746
1.10904 1.89618 0.674962
0.708982 1.94586 2.46971
1.08279 1.92921 1.95888
0.710776 1.9833 3.48729
1.07871 1.96274 2.97874
1.08269 2.0043 3.99411
1.53467 -0.175965 -2.33531
1.52988 -0.0433354 -2.84913
1.54399 -0.14734 -1.19879
1.53486 0.0093365 -1.83251
1.54651 -0.136657 0.0566179
1.55009 0.0267398 -0.572844
1.51265 -0.0918911 1.31198
1.54238 0.0344594 0.683499
1.47441 -0.0241758 2.44822
1.47667 0.112076 1.94299
1.4664 0.0252532 3.46474
1.45932 0.167591 2.95815
1.46294 0.210248 3.97588
1.53007 0.141966 -2.34632
1.52809 0.413717 -2.87058
1.54096 0.183417 -1.20656
1.53398 0.472685 -1.85312
1.54596 0.197856 0.0540367
1.55275 0.530335 -0.584012
1.5064 0.238427 1.31451
1.52409 0.544703 0.684688
1.46158 0.303843 2.45292
1.45313 0.596586 1.95348
1.45585 0.352585 3.46929
1.44304 0.650864 2.96796
1.45326 0.697082 3.9833
1.532 0.744436 -2.37737
1.53355 1.19978 -2.90127
1.54577 0.819603 -1.23057
1.53802 1.26162 -1.88268
[...]
POINT_DATA 29498
VECTORS point_vectors float
-1.01777 -2.56939 7.93718
0.000617396 0.175014 0.46016
-1.87662 1.56235 4.05036
0.0695513 -0.128882 0.40463
1.95761 -4.54966 11.7456
-0.0282849 0.172089 0.448101
1.8306 1.55448 4.05904
-0.0680931 -0.129282 0.399286
0.00499794 0.0162886 0.458749
0.201521 -0.320099 2.16173
-0.0384266 -0.0232573 0.110653
-1.16298e-17 -1.8916e-17 -2.96752e-17
-0.00534744 0.0213442 0.619358
-0.225878 -0.329842 2.41297
0.0398633 -0.0243238 0.116625
0 0 0
-0.673927 -0.348595 19.8877
-1.12076 -0.635574 20.6364
-0.368463 -0.277473 21.2387
0.0554323 -0.0601677 21.3101
0.552753 0.215554 21.2289
0.794575 0.300086 20.959
0.771449 0.20348 20.0044
-0.84997 -0.23967 19.7727
-1.57091 -0.528018 20.6278
-0.503471 -0.34046 21.3125
0.0271719 -0.149954 21.3762
0.762609 0.0811045 21.3263
1.01737 0.127402 20.8751
0.939104 0.0123858 20.1281
-0.871294 0.116709 19.69
-1.79845 0.210139 20.4686
-0.898415 -0.165139 21.2809
-0.173866 -0.224823 21.4949
0.703394 -0.389946 21.3313
0.914618 -0.431479 20.9826
0.546321 -0.347476 20.573
-0.489717 0.355857 19.9678
-0.791196 0.596952 20.3743
-0.686601 0.373433 20.9947
-0.241903 0.0237506 21.2714
0.156711 -0.273712 21.1953
0.303899 -0.363937 20.981
0.356337 -0.391454 20.7327
-0.760584 -0.866603 19.2449
-1.47124 -2.82974 21.3295
-0.271331 -0.288539 21.4845
0.0924408 0.0810805 20.5282
0.444863 1.10492 18.2267
0.685613 1.32933 17.8102
0.491751 1.06265 18.2641
-1.01259 -0.686132 18.7627
0.769828 1.27259 9.23885
1.6315 0.922752 12.2609
-1.05895 0.325531 18.5175
1.27315 -0.57884 10.2358
1.19135 -0.77138 14.2613
-0.425773 0.699406 19.6247
-0.811864 1.43915 20.2073
-0.855364 1.17211 21.0707
-0.30222 0.242412 21.681
0.111481 -0.452798 21.3
0.20761 -0.607505 20.9946
0.16506 -0.471484 20.6351
0.748282 -0.861904 19.2438
1.48367 -2.79062 21.31
0.266381 -0.287682 21.4815
-0.0921669 0.0856304 20.5163
-0.40596 1.08876 18.0215
-0.665428 1.31103 17.5611
-0.478527 1.07694 18.1684
1.01103 -0.685311 18.7565
-0.713745 1.24514 8.92005
-1.64824 0.937014 11.8772
1.056 0.327815 18.5129
-1.26716 -0.556581 9.89048
-1.20233 -0.776391 13.9347
0.427352 0.696098 19.6292
0.814552 1.42282 20.2108
0.850285 1.19411 21.0683
0.298408 0.259759 21.7016
-0.102976 -0.46294 21.3103
-0.198699 -0.609542 21.0037
-0.167544 -0.475283 20.6913
0.678056 -0.350611 19.8861
1.12388 -0.629432 20.6419
0.377321 -0.286849 21.2295
-0.0455569 -0.0664607 21.3048
-0.544245 0.211206 21.2369
-0.792126 0.305601 20.9617
-0.785648 0.205478 19.9978
0.84835 -0.238402 19.7717
1.57628 -0.533491 20.6317
0.507661 -0.339935 21.3094
-0.0232798 -0.152042 21.3717
-0.744593 0.0703892 21.3291
-1.01125 0.126028 20.8834
-0.946736 0.0178993 20.1146
0.871298 0.114896 19.6929
1.7959 0.21402 20.4721
0.899767 -0.161129 21.2846
0.170624 -0.220804 21.4953
-0.693957 -0.379444 21.3248
-0.916117 -0.434147 20.9826
-0.550321 -0.352844 20.572
0.487021 0.354706 19.972
0.788141 0.592681 20.3747
0.693017 0.385258 20.9963
0.247969 0.0312287 21.2892
-0.155206 -0.284237 21.2115
-0.304573 -0.388745 20.9615
-0.338353 -0.388587 20.7081
-0.734703 -0.128734 1.04042
8.61705e-05 -0.0218236 0.220966
0.000786623 -0.0012299 0.189755
0.029774 0.0144099 0.104767
-9.98491e-05 0.0028092 0.0159811
-0.00553178 0.0516277 0.745995
0.000208482 0.128278 0.408052
-0.462438 -0.0995675 1.53458
-6.05718e-05 0.000446738 -0.00339601
0.0878703 0.0452233 0.454574
0.807674 -0.143509 1.14709
-0.00136951 -0.00169291 0.227507
-0.0335105 0.017981 0.116234
0.00894625 0.0405049 0.720995
0.467802 -0.0997354 1.53707
-0.0888042 0.044213 0.453703
0.00666538 0.0292495 1.43411
0.000926765 -0.00152511 0.0309754
0 0 0
0 0 0
1.58261e-05 4.06412e-05 0.0137892
0 0 0
-1.30725e-05 0.0123324 0.0267448
-8.22138e-05 -0.000404402 0.01009
-0.00545797 0.0342177 1.70311
-0.000917198 -0.00150506 0.0315864
1.39194e-17 3.37342e-17 1.57309e-16
0 0 0
0 0 0
6.92943e-05 0.000349579 0.00321384
0.00145855 0.00523692 0.0620178
1.17249e-08 -7.90716e-08 -4.15534e-05
-2.77807e-08 -4.11645e-07 -7.73692e-05
-1.29574e-06 3.6518e-05 0.000888115
-0.000665051 -0.0567305 0.143278
0.000280864 0.000609378 -0.000193708
-3.26424e-05 0.00503987 0.0519172
5.30822e-05 0.00190967 0.0222247
-2.99105e-06 -0.000762897 0.00477285
0 0 0
-2.41884e-05 0.000117888 0.00108099
-0.000844136 0.00321004 0.0370074
-3.0036 -1.62966 20.8869
-2.22532 -4.31826 21.9584
-2.72837 -2.46273 17.779
1.24037 0.563024 17.9651
0.212461 1.25894 10.9441
0.205542 0.949648 5.59306
-3.73286 0.875378 20.414
-3.06121 1.40206 16.9151
-1.90799 2.67164 20.1096
1.26374 -0.408797 18.0904
0.636651 -0.229775 6.17161
0.314408 -0.820319 20.4707
2.24182 -4.28686 21.9202
2.73673 -2.47046 17.7685
3.00609 -1.62987 20.8866
-0.175074 1.22273 10.6586
-0.165405 0.920894 5.46722
-1.22116 0.532626 18.1613
3.06072 1.41304 16.905
1.91005 2.6469 20.1118
3.72598 0.878921 20.4175
-0.604904 -0.211254 5.94231
-0.324503 -0.829415 20.2782
-1.25233 -0.416493 18.1987
-0.288949 -0.535229 21.0887
-0.096547 0.0701199 16.5274
0.0545205 -0.189073 20.2375
0.336545 -0.0109271 15.6725
-1.44292 -0.586139 21.444
-2.09527 1.57479 21.1164
-0.146522 -0.429085 19.5489
-0.627358 0.187809 21.7462
0.0913964 0.0721343 16.7583
0.305632 -0.539913 21.1317
-0.328167 -0.00556285 15.623
-0.0603531 -0.18863 20.3763
2.09854 1.61443 21.1204
1.44731 -0.584001 21.4416
0.588509 0.200648 21.4865
0.14427 -0.432425 19.5785
-0.994545 -0.537105 20.1267
-0.785036 -0.305894 19.8381
-0.779255 -0.561951 19.6161
-0.740102 -0.46831 21.1322
-1.34311 -0.617422 20.6415
-1.56388 -1.42691 20.8257
-0.137734 -0.155812 21.2972
-0.45263 -0.328222 21.27
-0.286239 -0.375529 21.4657
0.278454 0.078642 21.3813
0.0337591 -0.112983 21.3263
0.102979 -0.0541243 21.4497
0.694544 0.285052 21.1028
0.661443 0.172437 21.2875
0.767034 0.603912 21.0316
0.764422 0.218769 21.1191
0.927765 0.208151 20.9595
1.03247 0.691357 20.7228
0.86467 0.106177 20.0682
0.815231 0.475553 20.9936
-1.34496 -0.403487 19.985
-0.886506 -0.0863043 19.6986
-0.993926 -0.455815 19.3634
-1.04155 -0.439811 21.2334
-1.75001 -0.191775 20.5649
-0.199887 -0.245335 21.3312
-0.700445 -0.313937 21.3125
0.349105 -0.027184 21.4886
-0.0570619 -0.214112 21.4612
0.93028 0.117124 21.1225
0.835538 -0.155968 21.3245
0.960909 0.0212843 21.4215
1.05339 -0.190397 20.8479
1.44761 0.538351 18.7655
0.796713 -0.202691 20.4186
1.38597 0.347434 19.9418
-1.45084 0.18136 19.8472
-0.681176 0.331317 19.8036
-1.05181 0.19371 19.2158
-1.37021 0.00565676 21.1253
-1.24558 0.591309 20.3786
-0.527996 -0.2324 21.418
-0.934806 0.184627 21.132
0.256605 -0.268657 21.5568
-0.274308 -0.0998304 21.428
0.868206 -0.414444 21.092
0.33631 -0.397571 21.2879
0.930609 -0.45367 20.8497
0.519696 -0.480863 20.9877
1.26396 -0.778858 19.8524
0.43106 -0.521465 20.9638
1.06078 -0.65403 20.121
-0.648839 0.508582 20.1122
-0.511774 0.527284 19.799
-0.778914 0.515238 20.7283
-0.90548 0.97782 20.3005
-0.505657 0.205331 21.2091
-0.84122 0.676589 21.064
-0.0185095 -0.144326 21.273
-0.289802 0.104602 21.4829
0.235398 -0.36324 21.0384
0.154457 -0.376768 21.2389
0.230381 -0.372031 20.8103
0.26707 -0.508532 20.8366
0.190201 -0.362472 20.4577
-1.44218 -2.08233 19.3615
-0.897633 -0.837761 18.9899
-0.00331632 -1.30864 18.7827
-0.626707 -1.02728 22.0332
0.00322032 -3.10738 22.0388
-0.0879991 -0.0353583 20.8647
-0.00100617 -0.248011 21.0903
0.302692 0.510025 19.431
0.000149502 0.122423 19.5821
0.529182 1.23722 18.2147
-0.00587366 0.773657 15.9414
0.839684 1.34671 17.5057
0.86718 1.44867 13.523
-0.0328621 0.858035 15.449
1.11786 0.991287 14.3113
-0.000940902 1.43375 14.7833
-1.12577 -0.229931 18.4583
-0.00384374 -1.11752 17.8388
1.46194 1.37024 11.4037
1.37509 0.463222 6.33808
-0.000775652 -0.857828 -0.754896
1.7799 0.195063 11.3325
0.00141271 -0.18855 1.88148
-0.727385 0.760619 19.1108
-0.00292867 0.54613 17.5105
1.48338 -0.792952 13.0499
0.375411 -1.01403 20.5522
0.0182892 -0.426633 0.955581
0.30663 -0.820229 20.3472
0.0249459 -1.94418 5.39417
-0.660341 1.14555 19.7625
0.0034929 0.891839 19.4385
-0.84125 1.32159 20.7072
0.00632711 1.94718 20.1121
-0.693555 0.82909 21.5353
-0.0125204 1.89172 21.026
-0.0209897 -0.200255 21.5369
-0.0157344 0.432998 21.9207
0.174402 -0.558593 21.1163
0.00151571 -0.501343 21.3699
0.253899 -0.608616 20.8562
0.00394601 -0.707234 21.0184
0.00795884 -0.877965 20.2335
1.44055 -2.06321 19.3696
0.897853 -0.834288 18.989
0.780836 -0.558572 19.6115
0.62848 -1.0219 22.0166
1.56353 -1.40813 20.8122
0.0850455 -0.0366819 20.8714
0.295614 -0.382968 21.4576
-0.292823 0.504616 19.2479
-0.102177 -0.0528306 21.4475
-0.494379 1.2139 17.9553
-0.760558 0.623206 20.9612
-0.825178 1.35756 17.3662
-0.834977 1.43255 13.2513
-1.02719 0.70717 20.6907
-1.10088 1.0061 14.1851
-0.811366 0.498861 21.0352
1.12696 -0.228254 18.451
0.995171 -0.458248 19.3556
-1.45323 1.3813 11.1068
-1.3311 0.478548 5.9411
-1.43738 0.547838 18.6711
-1.79967 0.20858 10.8787
-1.37857 0.372001 19.8876
0.72779 0.759372 19.1127
1.0516 0.19478 19.2104
-1.49253 -0.7948 12.7176
-0.37722 -1.0239 20.4373
-1.27729 -0.7689 19.7045
-0.304081 -0.822771 20.391
-1.09144 -0.666812 20.083
0.662882 1.13686 19.7684
0.512755 0.522298 19.8027
0.839844 1.32738 20.7058
0.904295 0.969432 20.3015
0.687808 0.859338 21.5471
0.8464 0.695568 21.0662
0.0251069 -0.204718 21.5485
0.294664 0.11518 21.5049
-0.168798 -0.564401 21.1173
-0.150491 -0.387485 21.2497
-0.245295 -0.62346 20.8406
-0.263261 -0.521304 20.8437
-0.195174 -0.369313 20.4631
0.990893 -0.526348 20.1464
0.782261 -0.304095 19.8397
0.750098 -0.471137 21.1238
1.34142 -0.619483 20.6454
0.137367 -0.162347 21.3
0.458623 -0.3305 21.2571
-0.269106 0.0701204 21.3729
-0.0266082 -0.117376 21.3175
-0.690649 0.29197 21.1081
-0.649025 0.165482 21.2896
-0.769015 0.2112 21.0995
-0.925382 0.205764 20.9683
-0.880126 0.111351 20.049
1.34774 -0.40426 19.9906
0.885869 -0.0868833 19.7003
1.04343 -0.442546 21.2298
1.7572 -0.196896 20.5708
0.201794 -0.24751 21.334
0.703551 -0.317773 21.3186
-0.340336 -0.0303617 21.4808
0.0569037 -0.212639 21.4594
-0.91403 0.106612 21.1308
-0.814807 -0.153206 21.3331
-0.96492 0.020929 21.4201
-1.05183 -0.190338 20.8525
-0.805031 -0.211473 20.4001
1.44899 0.182472 19.8501
0.680778 0.329091 19.8066
1.36892 0.0107616 21.127
1.24444 0.588554 20.3789
0.526724 -0.228198 21.4195
0.945079 0.184947 21.1345
-0.253859 -0.26567 21.5504
0.281429 -0.0991833 21.4422
-0.864934 -0.41062 21.0934
-0.338469 -0.405073 21.2965
-0.931223 -0.455524 20.8548
-0.527069 -0.497497 20.9866
-0.441713 -0.521586 20.9708
0.646508 0.504411 20.1147
0.778863 0.519468 20.7294
0.514663 0.217926 21.22
0.0192749 -0.148063 21.284
-0.235915 -0.373181 21.0522
-0.224277 -0.386583 20.8002
-1.17047 -0.514141 20.0668
-2.00226 -2.42861 18.7527
-1.32882 -1.10127 19.8617
-2.07917 -1.03218 19.3804
-0.901131 -0.523785 19.4865
-2.15546 -1.60639 20.8705
-0.901569 -0.485412 21.169
-0.502593 -0.612474 19.2239
-0.789795 -0.809132 21.4972
-1.18516 -0.957252 21.8285
-0.267509 -0.440135 21.5422
-0.180061 -0.216757 21.3104
0.0646505 0.160541 15.7418
-0.0526401 -0.171918 21.415
0.0174068 -0.284643 20.5106
0.128654 -0.13142 21.2202
0.307201 0.0251296 21.4339
0.337138 0.507223 13.1218
0.408612 0.224544 21.3971
0.537945 0.103345 19.4738
1.03113 0.638603 20.061
0.83384 0.21874 21.1036
0.392312 1.27849 12.2232
0.915371 0.696687 20.8082
1.37886 0.573561 18.5638
1.31333 0.697129 19.5179
0.867473 0.125042 21.1982
1.14553 1.46447 14.2884
1.00418 0.740331 20.7543
1.41376 0.509586 18.4028
1.085 0.397803 20.4183
-1.4448 -0.135976 19.9023
-3.55238 -0.660045 16.4444
-2.28119 0.513183 19.0472
-1.12222 -0.136989 19.192
-4.12834 -0.536673 20.6535
-1.25967 -0.264242 21.2131
-2.06861 0.0153522 21.6617
-0.649791 -0.69855 21.021
-0.330238 -0.293517 21.3832
-0.739705 -0.833497 20.584
0.0226583 -0.150622 18.6865
0.335761 -0.162607 21.5488
0.513808 -0.142546 19.1656
1.39404 0.178229 16.676
0.976963 -0.172781 21.1414
0.249605 0.442835 2.70892
1.24028 -0.643913 19.1304
1.63155 -0.0946904 17.9193
1.01998 -0.253 21.4285
2.13384 0.196634 9.47551
1.21261 -0.70417 20.2341
1.30834 -0.0852545 19.6941
-1.02438 0.499081 19.9672
-1.3967 1.74234 19.0109
-0.731709 0.784965 19.9304
-0.766357 0.498254 19.5174
-1.78914 1.29596 20.272
-1.15314 0.407956 20.8753
-1.75034 1.77725 20.9621
-0.888143 0.874093 20.7318
-1.45384 0.505273 21.2332
-0.647748 0.017181 21.3507
-1.81345 1.00435 22.1059
-0.632098 0.441961 21.3473
-0.466096 -0.042318 21.727
0.0719917 -0.24884 21.4343
0.0879531 -0.452963 21.2668
-0.0128598 -0.178861 21.4006
0.356605 -0.628569 21.3785
0.417045 -0.466562 21.1211
0.359229 -0.907759 20.4451
0.217038 -0.455688 21.0888
0.506718 -0.717103 21.1563
0.471614 -0.46566 20.6422
0.416153 -0.983895 20.3969
0.307008 -0.490084 20.8807
0.385279 -0.645491 20.3288
2.00598 -2.41785 18.7584
0.00234328 -3.51471 19.0473
-0.00660361 -6.01617 15.2437
-0.00116003 -1.30801 18.2978
-0.00450027 -3.23729 22.5616
0.497972 -0.631478 19.3935
-0.00010694 -0.924756 22.2082
0.00342134 0.0515837 13.7498
-0.0591343 0.162184 15.8189
-0.0018439 -0.0385665 20.138
0.00309582 0.114456 12.3353
-0.335658 0.489456 12.9444
-0.00118153 0.443386 17.7526
-0.0144161 0.614989 7.3105
-0.354297 1.24098 11.9402
-0.0112427 0.708195 15.6901
-0.0169321 -0.693909 -0.683767
-0.0230847 0.119176 6.36058
-1.13154 1.47108 14.1483
-0.00264358 1.28792 15.0157
-0.0160059 0.544559 1.58785
-0.00115373 0.659626 8.18305
3.55894 -0.657372 16.4269
-0.0062233 3.58856 13.3742
-0.00253089 -0.333944 17.3028
-0.203936 0.437645 2.58212
-0.0118021 0.478217 0.458144
0.0365485 -1.30266 -3.73645
-2.133 0.212463 9.13812
0.03956 -0.953493 2.68048
0.0519292 -0.856286 0.809464
1.39702 1.73384 19.018
0.00487809 1.52077 19.5571
0.000134743 1.08607 18.6482
0.00532827 3.88725 20.0156
1.74679 1.78242 20.9589
-0.00262665 1.88119 20.6394
-0.0188908 3.58935 20.5426
1.85411 1.04041 22.0742
-0.0200734 1.4614 21.7676
-0.010135 0.477239 20.7457
-0.137901 -0.444967 20.8992
-0.00287682 -0.207837 21.6649
0.00659444 -0.789527 16.909
-0.35829 -0.909076 20.2858
0.00134057 -0.637686 21.1766
0.0173421 -1.04384 19.0278
-0.399438 -1.00021 20.3731
0.0092535 -0.533702 20.9602
0.0180886 -0.454821 19.7165
1.16361 -0.508911 20.0896
1.32916 -1.09452 19.8565
2.08652 -1.03497 19.3712
0.903748 -0.52776 19.4821
2.14617 -1.59125 20.8598
0.906597 -0.489612 21.1552
0.79636 -0.807534 21.4798
1.19612 -0.953629 21.82
0.285576 -0.44482 21.5443
0.179957 -0.218319 21.315
0.0596042 -0.175736 21.4124
-0.0038822 -0.291973 20.6183
-0.125669 -0.128961 21.2316
-0.295067 0.0163865 21.422
-0.405558 0.227864 21.3555
-0.52764 0.0915164 19.6538
-1.01909 0.63941 20.0177
-0.823914 0.216987 21.1097
-0.907592 0.7112 20.7748
-1.36355 0.561225 18.607
-1.29707 0.70852 19.4475
-0.870666 0.120782 21.188
-1.01132 0.762004 20.7326
-1.40387 0.52913 18.2787
-1.07847 0.419271 20.3789
1.45431 -0.139557 19.9009
2.2846 0.519073 19.0409
1.12455 -0.134981 19.1859
4.12406 -0.535707 20.6589
1.26358 -0.26582 21.2164
2.06877 0.0172168 21.6546
0.665057 -0.695971 21.06
0.329678 -0.294656 21.3917
0.742008 -0.831075 20.6012
-0.0315362 -0.164433 18.8285
-0.328341 -0.160259 21.5493
-0.511087 -0.157507 19.2343
-1.38266 0.157386 16.8297
-0.965769 -0.170016 21.1495
-1.24258 -0.632046 19.0726
-1.6238 -0.0846808 17.6844
-1.02855 -0.254831 21.4322
-1.23187 -0.7067 20.1741
-1.32122 -0.0871029 19.4215
1.02272 0.497382 19.9698
0.731706 0.777795 19.9335
0.76461 0.497737 19.5174
1.7834 1.28692 20.2698
1.15839 0.408519 20.8752
0.887895 0.87887 20.731
1.47186 0.514817 21.2323
0.657551 0.0211577 21.3595
0.642448 0.466757 21.363
0.474138 -0.0375566 21.7467
-0.0739734 -0.253227 21.4411
0.0179908 -0.180748 21.4234
-0.353792 -0.642328 21.3779
-0.4229 -0.477205 21.1253
-0.213965 -0.473001 21.0952
-0.501922 -0.732975 21.1418
-0.471121 -0.486777 20.6443
-0.316722 -0.501671 20.8906
-0.374488 -0.671377 20.2923
-1.69884 -1.13889 19.6122
-0.942235 -0.890093 21.6654
0.00389545 -0.222838 21.3326
0.519265 0.191569 20.8282
1.16372 0.725206 19.7308
1.18037 0.650192 19.7434
-2.48098 -0.282661 19.014
-1.76175 -0.588115 22.0751
-0.0784163 -0.530086 19.6722
0.473207 0.0566622 18.0988
1.52029 0.0402022 17.2944
1.54894 9.63225e-05 18.1826
-1.33607 0.948874 19.5968
-1.57718 0.864284 20.9733
-1.09591 0.205193 21.6363
0.0565659 -0.333117 21.6569
0.438962 -0.701572 21.1559
0.508335 -0.752605 20.9468
0.00184141 -4.72351 17.9451
0.00671482 -0.275075 16.5255
-0.00159131 0.0911389 12.5825
-0.00290188 0.348359 9.79992
-0.0412612 0.0757325 6.83555
-0.00881896 1.03766 8.09573
-0.0110888 -1.02912 11.8372
0.00812265 -0.275041 -2.93548
0.0299164 -0.378697 -2.45102
0.00349683 2.78257 18.3621
-0.00385506 2.83742 20.7345
-0.022279 2.692 22.168
0.000586048 -0.566799 18.5896
0.00663772 -0.870271 18.1687
0.0154105 -1.24685 19.1177
1.69706 -1.13718 19.6125
0.953954 -0.886301 21.6434
0.00736076 -0.226834 21.351
-0.509533 0.185178 20.8257
-1.14753 0.728529 19.648
-1.17558 0.676948 19.5928
2.49202 -0.281375 19.0056
1.76582 -0.585738 22.0689
0.0879361 -0.530809 19.7576
-0.471827 0.043859 18.2724
-1.50621 0.047556 17.2753
-1.56901 0.00155399 17.9451
1.33286 0.944005 19.5977
1.57913 0.868351 20.9689
1.12603 0.222985 21.6529
-0.0573862 -0.339327 21.6669
-0.43281 -0.717785 21.1627
-0.513158 -0.766205 20.9858
-0.52772 -0.256244 0.940714
-0.00141685 -0.0801171 0.438861
-0.028169 0.00140269 0.435785
0.0457965 0.0413123 0.099204
-0.00240866 0.00202896 0.00760614
-0.0236317 0.133202 1.18656
-2.34533 0.147686 2.70224
-0.00793744 0.080647 0.23033
-0.23769 0.0383806 1.11987
0.0171971 -0.00545259 0.0426622
-0.00300147 -0.000692678 0.000764052
0.0485383 -0.0111604 0.513782
0.00152982 -0.0868896 0.476113
0.451736 -0.230876 0.805658
0.0281206 0.00150091 0.422143
0.00354247 0.00382706 0.0118417
-0.0447804 0.0444042 0.0947713
0.0220903 0.130897 1.21903
0.00914505 0.0849881 0.243347
2.43508 0.160665 2.7501
0.224859 0.0344186 1.06262
0.0026879 -0.000643562 0.000607603
-0.0279779 -0.00774048 0.0671395
-0.04902 -0.0108581 0.506168
-0.00063475 0.00055225 0.0161258
0.00905184 0.0140936 0.66452
0 0 0
0 0 0
-0.0129045 0.0323222 0.5852
0.0313951 0.00826346 1.59827
-0.00166302 0.000706831 0.0132458
0 0 0
-0.34837 -0.217619 1.19226
-3.08272e-05 -0.00727089 0.068623
0 0 0
-0.0557613 0.0328081 0.0919178
-5.629e-17 -6.42714e-17 -2.14136e-16
0 0 0
0 0 0
0.00528948 -0.000316715 0.0328927
0.00458313 0.0067842 0.0749712
0 0 0
-0.0117503 0.0189832 0.902123
0 0 0
0.00627804 0.0256281 0.463626
-3.43753e-06 1.04382e-07 0.00011087
-0.0372044 0.000855993 1.91298
1.62679e-17 7.73888e-18 1.34151e-16
0.351129 -0.21039 1.17512
0.0494149 0.0295937 0.0821444
6.6282e-05 -0.00733361 0.0701127
-1.54575e-18 -2.71972e-18 -2.91812e-16
0 0 0
-0.00579387 -0.000380636 0.0361523
0 0 0
0 0 0
-0.00676687 -0.0138029 0.211733
-0.0458328 0.00602717 0.0298588
-4.16951e-08 2.19119e-06 -0.000336664
0 0 0
-0.000305264 6.86843e-05 0.0162478
-1.22167e-06 -2.82713e-07 3.58852e-05
0.0151728 0.00769631 0.0919994
-0.00169332 0.000602963 -0.000321648
-2.32105e-05 0.00139733 0.0157542
0 0 0
2.30599e-05 0.00014406 0.00150476
1.34375e-05 6.90934e-05 0.00166
0.00183007 1.76088 0.490868
1.59226e-05 0.0200018 0.120469
-0.00389378 -0.0139803 0.168348
0 0 0
0 0 0
-3.67882e-06 0.000104038 -0.000279162
0.0164928 0.0420755 0.36361
0.00157884 -0.00189776 0.00684493
0.0478816 0.00620371 0.031134
0.00685442 -0.0119528 0.205142
-1.92117e-06 4.44141e-07 -5.71112e-05
0.000324085 2.41967e-05 0.0168115
0.00142433 0.000509449 -0.000277921
-0.0114655 0.00583679 0.0706314
-7.08679e-06 2.40734e-05 0.000590445
-9.32899e-05 0.00105523 0.0108483
-2.74315e-17 -4.66131e-18 -9.92478e-17
0.0042923 -0.0140756 0.170063
-0.00152187 -0.00180536 0.00652267
-0.014051 0.0332347 0.284925
0.0029265 0.017984 0.181383
0 0 0
0.00055912 -0.00611619 0.0769793
0.000467899 0.000997962 0.0199657
0 0 0
0 0 0
8.81208e-05 0.0011775 0.00519095
-9.19788e-06 0.000105752 0.0138361
0 0 0
-4.16047e-07 1.91677e-05 0.00047477
0.00518082 0.0112567 0.0509298
-0.022585 0.0276261 0.289442
-3.3563e-05 0.000852233 0.0116075
8.12209e-05 0.104455 0.354369
2.01537e-05 0.000707782 0.0403398
1.58854e-05 -0.00440269 0.0241365
0 0 0
-0.000173838 0.00173086 0.0320887
-0.000319895 -0.00617867 0.073749
-0.000396392 0.000835456 0.0163878
-3.30721e-05 0.000534477 0.00227026
0.000106926 0.000221245 0.0307369