# vtk DataFile Version 2.0
tri_press
ASCII
DATASET UNSTRUCTURED_GRID
POINTS 3682 float
-0.725924 0.155 -2.055
-0.657486 0.275 2.165
-0.691385 0.595 -2.045
-0.643855 0.795 2.115
0.725929 0.155 -2.055
0.657486 0.275 2.165
0.69139 0.595 -2.045
0.64386 0.795 2.115
-0.726649 0.171462 -0.648334
-0.724161 0.191138 0.758333
-0.795381 0.781506 -0.658334
-0.78732 0.855955 0.728333
0.726654 0.171461 -0.648334
0.724404 0.190897 0.758333
0.795378 0.781498 -0.658334
0.787299 0.855929 0.728333
-1.48266 -0.194348 -3.16596
-1.47649 -0.129663 -2.04864
-1.47415 -0.109043 -0.641455
-1.44804 -0.0964286 0.769754
-1.38983 -0.0414248 2.17728
-1.37824 -0.00738511 3.29626
-1.38692 0.0189377 4.41217
-1.47893 0.0685029 -3.16815
-1.47679 0.151635 -2.05301
-1.48643 0.191363 -0.649721
-1.45208 0.203648 0.755371
-1.3634 0.245366 2.15905
-1.36119 0.277602 3.27775
-1.37929 0.305288 4.39431
-1.46615 0.569743 -3.16692
-1.46681 0.651445 -2.05095
-1.53199 0.790514 -0.661296
-1.49945 0.840965 0.726945
-1.37174 0.811057 2.11699
-1.36773 0.841067 3.23651
-1.3875 0.879102 4.3563
-1.46045 1.43244 -3.18011
-1.46666 1.52594 -2.06714
-1.49629 1.66395 -0.683963
-1.50723 1.74699 0.6949
-1.48003 1.75835 2.07828
-1.45551 1.76464 3.19169
-1.44385 1.78636 4.30929
-0.746894 -0.194144 -3.16725
-0.733956 -0.127018 -2.05052
-0.731035 -0.119534 -0.641203
-0.726718 -0.104628 0.772282
-0.692656 -0.0270321 2.1817
-0.682737 0.00121418 3.29926
-0.687272 0.0215942 4.41391
-0.744987 0.0626909 -3.16855
-0.668839 0.285773 3.28022
-0.681777 0.306838 4.39562
-0.730882 0.544363 -3.16445
-0.671971 0.835678 3.23612
-0.688789 0.875597 4.35622
-0.714834 1.41607 -3.17766
-0.713457 1.5111 -2.06444
-0.742078 1.66141 -0.682339
-0.769376 1.75117 0.694705
-0.763064 1.75703 2.07689
-0.744527 1.76046 3.1903
-0.733224 1.7824 4.30828
0.71581 -0.194154 -3.16725
0.72722 -0.127024 -2.05052
0.729437 -0.119566 -0.641203
0.715206 -0.104793 0.772282
0.672031 -0.0270961 2.1817
0.684219 0.00116325 3.29926
0.698892 0.0215382 4.41391
0.708851 0.0626847 -3.16855
0.678568 0.285739 3.28022
0.695976 0.306789 4.39562
0.707756 0.544357 -3.16445
0.672074 0.835651 3.23612
0.690346 0.875553 4.35622
0.764946 1.41605 -3.17766
0.779065 1.51108 -2.06444
0.772906 1.66139 -0.682339
0.728175 1.75114 0.694705
0.682755 1.75699 2.07689
0.677905 1.76042 3.1903
0.685682 1.78235 4.30828
1.45396 -0.194373 -3.16596
1.46662 -0.129688 -2.04864
1.47248 -0.109122 -0.641455
1.44707 -0.0966647 0.769754
1.38864 -0.0415872 2.17728
1.38643 -0.00750688 3.29626
1.40102 0.0188193 4.41217
1.44919 0.068484 -3.16815
1.46905 0.151622 -2.05301
1.48569 0.191313 -0.649722
1.45927 0.2034 0.755371
1.37587 0.245227 2.15905
1.37645 0.2775 3.27775
1.39545 0.30518 4.39431
1.45086 0.569726 -3.16692
1.46739 0.651433 -2.05095
1.5348 0.790483 -0.661296
1.50393 0.840853 0.726945
1.37801 0.810961 2.11699
1.37236 0.840983 3.23652
1.39129 0.879005 4.3563
1.50419 1.43241 -3.18011
1.52017 1.5259 -2.06714
1.52177 1.66389 -0.683964
1.47722 1.74692 0.694899
1.41824 1.75826 2.07828
1.40025 1.76455 3.19169
1.40207 1.78627 4.30929
-0.739568 0.375 -2.08091
2.5034e-06 0.167836 -2.04216
-0.735093 0.154425 -1.35167
-0.700551 0.535 2.18988
0 0.26835 2.17165
-0.717121 0.206771 1.46167
2.5034e-06 0.718754 -2.16875
-0.789953 0.734823 -1.35167
2.5034e-06 0.889216 2.20922
-0.767128 0.877018 1.42167
0.739624 0.375 -2.08096
0.735082 0.15444 -1.35167
0.700503 0.535 2.18983
0.717396 0.206497 1.46167
0.789959 0.734824 -1.35167
0.767119 0.877004 1.42167
-0.723569 0.183136 0.0549999
-0.834983 0.476484 -0.653334
2.34065e-06 0.171209 -0.648334
-0.864313 0.523546 0.743333
0.000121609 0.189613 0.758333
-0.793214 0.820594 0.035
-1.38465e-06 1.11509 -0.658334
-1.05779e-05 1.33335 0.728333
0.72354 0.183168 0.0549999
0.834978 0.476479 -0.653334
0.864322 0.523413 0.743333
0.793232 0.820607 0.035
-0.837896 0.425742 -1.35167
0.837895 0.42574 -1.35167
2.42202e-06 0.156163 -1.35167
5.59372e-07 0.887285 -1.35167
2.5034e-06 0.375 -2.34425
-0.850564 0.500015 0.045
0.85058 0.499946 0.045
6.19748e-05 0.180351 0.0549999
-5.98129e-06 1.34305 0.035
-0.877338 0.529273 1.44167
0.877348 0.529206 1.44167
6.08044e-05 0.206247 1.46167
-4.03727e-06 1.12477 1.42167
1.2517e-06 0.535 2.33344
-0.735292 0.265 -2.0705
-0.362961 0.171543 -2.03846
-0.737495 0.147726 -1.70333
-0.691757 0.405 2.19018
-0.328743 0.269548 2.17045
-0.695329 0.23286 1.81333
-0.737369 0.485 -2.08485
-0.345691 0.693457 -2.14346
-0.771726 0.695968 -1.69833
-0.686155 0.665 2.16639
-0.321926 0.872937 2.19294
-0.727426 0.857943 1.76833
0.362966 0.171464 -2.03854
0.735302 0.265 -2.07051
0.737439 0.147787 -1.70333
0.328743 0.269549 2.17045
0.691759 0.405 2.19018
0.695328 0.232862 1.81333
0.345696 0.693394 -2.14339
0.737395 0.485 -2.08487
0.771753 0.69599 -1.69833
0.321931 0.872942 2.19294
0.68621 0.665 2.16644
0.72749 0.858003 1.76833
-0.729388 0.164427 -1
-0.725494 0.176914 -0.296667
-0.842993 0.292885 -0.650834
-0.365387 0.167208 -0.648334
-0.712785 0.206811 1.11
-0.721549 0.189452 0.406667
-0.858715 0.325103 0.750833
-0.362601 0.189213 0.758333
-0.786034 0.751532 -1.005
-0.830292 0.63655 -0.655834
-0.798091 0.804844 -0.311667
-0.459426 1.07177 -0.658334
-0.777402 0.866665 1.075
-0.843215 0.69845 0.735833
-0.793801 0.841808 0.381667
-0.49531 1.29794 0.728333
0.729453 0.164366 -1
0.365392 0.167208 -0.648334
0.725491 0.17692 -0.296667
0.842991 0.292882 -0.650834
0.713002 0.206594 1.11
0.362784 0.189213 0.758333
0.721739 0.189265 0.406667
0.858712 0.32498 0.750833
0.786024 0.751517 -1.005
0.459413 1.07174 -0.658334
0.83029 0.636545 -0.655834
0.798091 0.804838 -0.311667
0.777393 0.86665 1.075
0.495305 1.29796 0.728333
0.843227 0.698379 0.735833
0.793784 0.841787 0.381667
-0.822452 0.400371 -1.71629
-0.369783 0.375 -2.26946
2.46271e-06 0.154787 -1.69692
2.5034e-06 0.271418 -2.29373
-0.830594 0.290083 -1.35167
-0.367545 0.149629 -1.35167
-0.798148 0.532137 1.81577
-0.350275 0.535 2.31243
3.04022e-05 0.231125 1.81666
6.25849e-07 0.401675 2.33258
-0.866156 0.368022 1.45167
-0.35853 0.206623 1.46167
1.53138e-06 0.826957 -1.76021
2.5034e-06 0.546877 -2.27254
-0.842292 0.580282 -1.35167
-0.394976 0.877337 -1.35167
-7.66937e-07 0.955779 1.81544
1.87755e-06 0.712108 2.26711
-0.845648 0.703146 1.43167
-0.383566 1.09397 1.42167
0.822449 0.40037 -1.71632
0.369813 0.375 -2.26945
0.830601 0.29009 -1.35167
0.367542 0.149629 -1.35167
0.79815 0.532103 1.81575
0.350252 0.535 2.31243
0.866168 0.367852 1.45167
0.358728 0.206623 1.46167
0.842296 0.580282 -1.35167
0.39498 0.877348 -1.35167
0.845665 0.703105 1.43167
0.383557 1.09398 1.42167
-0.846268 0.311975 0.05
-0.363554 0.178143 0.0549999
-0.821478 0.451113 -1.0025
-0.842879 0.48825 -0.304167
2.38133e-06 0.166718 -1
3.21577e-05 0.173156 -0.296667
-0.857801 0.511781 0.394167
-0.888967 0.52641 1.0925
9.17918e-05 0.187573 0.406667
9.12067e-05 0.200208 1.11
-0.841986 0.670353 0.04
-0.510067 1.30874 0.035
-4.1264e-07 0.909655 -1.005
-3.68297e-06 1.28668 -0.311667
-8.27961e-06 1.34908 0.381667
-7.3076e-06 1.26883 1.075
0.846265 0.311954 0.05
0.363609 0.178143 0.0549999
0.821467 0.45111 -1.0025
0.842877 0.488213 -0.304167
0.857803 0.511679 0.394167
0.888967 0.526309 1.0925
0.841999 0.670323 0.04
0.510067 1.30874 0.035
-0.817478 0.277542 -1.70981
-0.841739 0.307028 -1.00125
-0.819369 0.604639 -1.00375
-0.827089 0.532641 -1.70731
0.817474 0.277545 -1.70982
0.827085 0.532641 -1.70732
0.819369 0.604635 -1.00375
0.842171 0.30703 -1.00125
-0.365253 0.145425 -1.70012
0.365254 0.145425 -1.70012
0.365435 0.160499 -1
-0.365434 0.160499 -1
-0.370334 0.81768 -1.72927
-0.396334 0.898052 -1.005
0.396334 0.898051 -1.005
0.370338 0.817682 -1.72927
-0.366372 0.268209 -2.21936
-0.357737 0.515938 -2.21776
0.357755 0.515938 -2.21741
0.366389 0.268209 -2.21942
-0.83966 0.304915 -0.300417
-0.851383 0.319093 0.400417
-0.845635 0.685919 0.387917
-0.836281 0.653522 -0.307917
0.839663 0.304901 -0.300417
0.836284 0.653504 -0.307917
0.845622 0.685855 0.387917
0.851379 0.319022 0.400417
-0.365233 0.171151 -0.296667
0.365262 0.171151 -0.296667
0.362449 0.185172 0.406667
-0.362331 0.185172 0.406667
-0.506955 1.23467 -0.311667
-0.506983 1.31193 0.381667
0.506977 1.31193 0.381667
0.506991 1.23474 -0.311667
-0.875681 0.362682 1.10125
-0.798394 0.386511 1.81455
-0.777848 0.684073 1.79205
-0.865985 0.696448 1.08375
0.875666 0.362503 1.10125
0.866049 0.696388 1.08375
0.77785 0.684053 1.79204
0.798367 0.386426 1.81454
-0.360275 0.199732 1.11
0.360496 0.199734 1.11
0.343736 0.231568 1.815
-0.343637 0.231568 1.815
-0.388616 1.23869 1.075
-0.352746 0.948253 1.79189
0.352744 0.948273 1.79189
0.388601 1.23868 1.075
-0.339509 0.403338 2.31571
0.339498 0.403338 2.31571
0.336092 0.688554 2.25434
-0.3361 0.688554 2.25429
-0.730901 0.21 -2.06304
-0.544442 0.159912 -2.05009
-0.736587 0.146485 -1.87917
-0.680857 0.34 2.18383
-0.493115 0.270397 2.1696
-0.679285 0.251052 1.98917
-0.71655 0.54 -2.0671
-0.518538 0.636153 -2.08615
-0.744515 0.658444 -1.87167
-0.663708 0.73 2.1394
-0.482891 0.840333 2.16033
-0.686237 0.827068 1.94167
0.544447 0.159748 -2.05025
0.73083 0.21 -2.06297
0.736701 0.146376 -1.87917
0.493115 0.270421 2.16958
0.680861 0.34 2.18383
0.679263 0.251074 1.98917
0.518543 0.63613 -2.08613
0.716462 0.54 -2.067
0.74454 0.658464 -1.87167
0.482896 0.840648 2.16065
0.663012 0.73 2.1387
0.686253 0.82708 1.94167
-0.728213 0.16775 -0.824167
-0.726159 0.174101 -0.4725
-0.829271 0.209948 -0.649584
-0.546901 0.16757 -0.648334
-0.718705 0.198742 0.934167
-0.723171 0.189979 0.5825
-0.847764 0.229957 0.754583
-0.543429 0.190079 0.758333
-0.792076 0.767887 -0.831667
-0.817668 0.711444 -0.657084
-0.797605 0.794044 -0.485
-0.672699 1.01723 -0.658334
-0.782169 0.861118 0.901667
-0.822411 0.780774 0.732083
-0.790556 0.848878 0.555
-0.663437 1.12119 0.728333
0.728243 0.167724 -0.824167
0.546905 0.16757 -0.648334
0.726598 0.173665 -0.4725
0.829273 0.209946 -0.649584
0.718895 0.198554 0.934167
0.543582 0.190079 0.758333
0.723359 0.189794 0.5825
0.847721 0.229857 0.754583
0.792078 0.767884 -0.831667
0.672705 1.01724 -0.658334
0.817664 0.711436 -0.657084
0.797602 0.794036 -0.485
[...]
POINT_DATA 3682
SCALARS point_scalars float 1
LOOKUP_TABLE default
-95.4725
-44.0324
-27.4192
-34.9067
-95.6419
-43.9215
-27.4076
-34.7863
-36.0367
-38.5057
-47.9387
-44.6317
-36.0119
-38.4919
-47.9346
-44.6878
-36.2193
-86.1406
-34.7228
-35.6444
-42.9123
-38.4263
-37.087
37.3465
-90.6007
-35.5396
-36.3233
-42.6027
-37.087
-36.3332
43.9121
-75.2942
-42.1479
-41.172
-38.7304
-36.6403
-36.3332
-35.6379
-50.3611
-74.5894
-51.738
-38.4182
-35.1574
-35.6036
52.7518
-130.368
-36.0099
-38.4442
-42.3814
-37.9961
-36.1028
52.5072
-36.0282
-35.7119
166.232
-35.3145
-35.338
24.0062
-41.1112
-49.4247
-60.6612
-33.2488
-32.7733
-31.9514
42.7862
-131.115
-35.9729
-38.3501
-42.3754
-37.9135
-36.0049
52.2931
-35.967
-35.6526
179.566
-35.2316
-35.2923
23.5037
-40.5997
-51.0125
-60.6438
-32.6341
-32.6089
-31.7502
-10.2557
-86.1855
-34.734
-35.5814
-42.7938
-38.3368
-37.0019
37.8498
-90.5471
-35.5548
-36.3887
-42.4829
-37.0019
-36.249
43.9591
-75.6671
-42.1356
-41.1661
-38.6044
-36.5448
-36.249
-35.5708
-54.2353
-74.575
-51.9537
-36.4875
-35.0602
-35.4383
-41.0307
-98.0941
-48.3269
-38.0446
-40.7465
-42.3391
-27.8823
-57.5102
-28.1316
-44.3929
-41.0098
-48.3409
-37.9338
-42.372
-57.4959
-44.3411
-34.1163
-37.3787
-37.2358
-36.1765
-37.7253
-48.9398
16.1109
-60.5789
-34.1204
-37.3741
-36.1417
-49.1253
-47.9539
-47.9669
-54.4769
-9.91812
197.826
-38.6177
-38.6204
-34.7522
-91.1949
-47.6006
-47.5349
-41.4906
-35.1621
-31.0146
-55.3998
-107.17
-67.9091
-39.6327
-41.4478
-44.0262
-26.6111
2.02886
-50.3948
-36.7887
-31.5011
-38.3545
-107.271
-55.1798
-67.8736
-41.3947
-39.5205
-43.9534
1.63976
-26.5668
-50.4002
-31.3338
-36.6417
-38.2728
-38.5055
-34.8457
-35.7502
-36.9041
-37.8386
-34.3878
-33.3761
-37.6033
-37.0812
-41.1219
-50.182
2.83718
-44.3552
-40.8205
-46.8454
-58.0845
-38.4121
-36.9084
-34.9926
-35.7548
-37.7852
-37.5997
-34.4681
-33.348
-37.0525
2.88982
-41.1103
-50.1461
-44.3797
-58.081
-40.8317
-46.849
-73.6016
176.017
-74.7353
103.083
-46.5578
-53.5096
-42.3832
-34.4737
-42.7653
-35.0427
-45.6834
-41.5884
-30.7585
173.031
-49.2943
-16.5954
-31.2518
-28.201
-48.8151
-36.2649
-73.6029
176.097
-46.591
-53.5074
-42.2747
-34.4082
-45.6149
-41.5766
-49.2931
-16.6122
-48.7504
-36.2524
-35.8886
-34.5881
-40.353
-38.5059
-42.4647
-35.7782
-37.9511
-44.6968
-35.1974
-38.6963
-42.8231
-81.7119
15.0753
-77.4533
-73.9325
-45.4841
-35.8911
-34.5812
-40.3292
-38.4968
-37.9544
-44.6748
-42.8473
-81.6807
-71.6992
-40.4865
-37.8748
-74.5514
-71.6949
-74.5157
-37.7801
-40.46
-74.5213
-74.5179
-41.7444
-41.8136
-33.8419
4.93841
4.97934
-33.8606
117.624
146.166
146.078
117.6
-35.939
-35.517
-42.2098
-42.817
-35.9233
-42.8063
-42.2191
-35.5457
-35.3552
-35.4125
-35.1332
-35.1338
-75.212
-64.6342
-64.6144
-75.2349
-42.7142
-43.8888
-40.5994
-44.0581
-42.7562
-44.0343
-40.4956
-43.7775
-38.6584
-38.6578
-43.0077
-43.0296
-46.6818
-32.3959
-32.3661
-46.6991
-36.172
-36.1098
-33.3245
-33.5043
-68.7434
-115.29
-89.847
-41.1755
-41.9838
-42.731
-28.3441
-0.0514972
-55.8505
-35.7886
-33.5603
-36.0683
-115.442
-68.7655
-90.014
-41.9107
-41.063
-42.6443
0.0189805
-28.237
-55.9109
-33.4257
-35.6586
-35.9609
-36.6825
-34.8957
-35.0655
-36.2099
-38.7289
-35.7514
-34.6167
-37.7023
-42.8227
-44.0411
-49.5405
-51.9524
-44.8374
-42.98
-45.4991
-50.1723
-36.7082
-36.2166
-34.9857
-35.0768
-38.652
-37.6912
-35.7427
-34.548
-42.7657
-52.0264
-44.0297
-49.5248
-44.7956
-50.1608
-43.0215
-45.5229
-46.4926
-34.8343
-87.3437
138.28
-101.208
-101.275
-90.0834
30.5382
-55.6152
-44.2214
-46.0797
-51.3944
-38.6751
-37.541
-39.4785
-35.0622
-40.949
-40.9186
-41.6729
-37.3582
-45.2899
-39.3678
-44.6231
-41.8044
-13.2959
-13.606
-41.2269
119.972
-53.4748
-41.0464
-52.7408
-24.8239
-29.2276
-29.0986
-31.3458
-26.6758
-41.0214
-45.368
-46.3416
-38.6221
-46.3115
-34.9037
-87.3619
138.181
-55.6173
-44.1917
-46.1565
-51.3866
-38.5613
-37.4229
-39.3433
-34.9811
-45.238
-39.4743
-44.5289
-41.7972
-53.4611
-41.0505
-52.747
-24.8081
-40.9169
-45.3038
-46.2783
-38.6023
-33.9518
-35.2349
-34.0469
-34.3081
-36.3076
-38.8182
-36.6321
-38.0144
-37.1868
-37.1894
-39.3593
-35.9096
-34.0686
-38.6911
-37.5113
-40.2486
-37.6371
-37.6358
-36.1111
-37.3973
-50.6171
-48.3886
-46.0389
-63.1253
13.0785
13.2153
28.4939
-19.352
-60.3077
-60.3053
-66.3124
-52.8925
-33.6621
-35.1976
-34.0953
-34.2992
-36.3055
-38.8095
-36.6206
-38.0141
-34.0531
-38.6804
-37.5003
-40.2491
-50.3701
-48.3807
-46.1045
-63.1127
-56.2451
-47.2455
-48.7454
-45.2353
-56.2607
-47.2665
-48.7506
-45.2189
-62.64
-54.3676
-54.383
-48.6934
-21.4296
-11.7439
-11.7657
1.93044
187.321
143.415
188.361
187.356
-37.1207
-38.7493
-38.4108
-40.5979
-37.1182
-38.7382
-38.4155
-40.6095
-34.7262
-34.6715
-35.5506
-34.7194
-90.7489
-87.926
-82.3111
-90.7441
-49.0667
-46.5593
-49.0173
-45.3345
-48.9785
-46.4961
-48.9493
-45.3079
-43.6118
-41.516
-41.5101
-39.4827
-32.3655
-35.477
-35.4733
-38.9725
-32.6382
-33.6543
-29.5402
-32.4837
-90.5798
101.666
-90.9038
24.7869
-69.9653
-72.0641
-40.8366
-36.5447
-41.9572
-37.9256
-44.8639
-43.3301
-78.9081
102.709
-40.8626
102.945
-68.2205
-38.8977
-38.2914
-34.6134
-31.4127
-32.2864
-39.907
-33.568
-90.9489
28.4123
-90.6122
101.427
-69.9478
-72.043
-41.9226
-37.8541
-40.7076
-36.4746
-44.7548
-43.2926
-40.8274
103.09
-79.073
102.712
-68.2455
-38.8741
-31.3544
-32.0786
-38.165
-34.505
-39.8119
-33.5278
-39.5804
-40.4323
-35.2362
-34.951
-36.2758
-35.7998
-38.8407
-35.5769
-42.1572
-38.3023
-34.1442
-34.8699
-35.2723
-43.8621
-36.0648
-37.3681
-37.9818
-8.40622
-38.9036
-42.2508
-46.1243
-70.5014
13.6094
-30.8338
-44.309
-49.0534
-41.4561
-40.5323
-44.791
-54.7172
-60.7637
-53.8151
-39.3594
-40.4093
-38.8373
-35.5878
-35.5767
-35.0511
-36.2662
-35.8204
-41.6626
-38.301
-36.0636
-37.3617
-34.7085
-34.8764
-35.2636
-43.8078
-37.9611
-8.39737
13.7555
-30.7715
-38.8762
-42.2423
-46.1057
-70.453
-44.2996
-49.033
-60.747
-53.8017
-41.4677
-40.5183
-44.8001
-54.6856
-73.4174
-73.4144
134.561
174.993
-75.5612
-75.5535
97.1482
97.3517
-54.5423
-43.195
-61.5291
-47.7143
-43.2764
-41.5012
-35.6376
-34.1626
-42.8287
-42.8383
-35.4762
-35.4216
-43.1326
-50.6136
-39.4664
-43.8145
-31.6786
-31.6677
161.118
160.498
-48.1127
-58.336
-25.3473
-5.4032
-31.6
-31.5757
-30.3398
-30.5581
-44.5875
-47.386
-40.2068
-33.663
-73.4333
-73.3998
174.968
134.685
-54.5686
-43.2022
-61.5282
-47.7074
-41.3975
-43.1648
-35.5694
-34.0188
-43.1177
-50.5232
-39.4642
-43.8042
-58.3401
-48.2149
-5.40359
-25.3581
-47.338
-44.4989
-33.6381
-40.2
-35.7296
-35.9298
-34.5153
-35.2575
-41.0555
-38.8469
-36.8766
-40.4674
-42.3639
-42.3691
-35.7225
-35.7131
-36.4782
-39.7392
-43.6998
-44.7216
-35.1957
-35.1969
-38.7015
-38.7028
-42.7081
-43.0959
-85.049
-71.9086
11.8046
11.8991
-73.1283
-73.121
-72.2595
-72.2567
-45.5618
-45.5588
-35.6682
-35.9244
-34.4044
-35.257
-38.7713
-41.0289
-36.8655
-40.4593
-39.7446
-36.485
-43.6867
-44.6998
-43.0908
-42.7179
-71.8635
-85.0271
-88.9317
-53.2538
-55.3317
-89.8202
-35.4024
-36.2202
-43.995
-42.3513
-40.8824
-44.2391
-47.4859
-37.482
-69.2796
-84.2382
-56.9998
-61.3901
-89.0789
-89.8234
-55.347
-53.3742
-69.4269
-61.3437
-57.0112
-84.2993
-40.8465
-37.468
-47.5292
-44.2305
-35.4228
-42.6736
-43.986
-36.2045
-90.3429
-90.1782
-62.5507
-59.0581
-90.4797
-59.0499
-62.5601
-90.1795
-37.8989
-39.2932
-48.4633
-46.2366
-37.9054
-46.2564
-48.4669
-39.2967
-52.3633
-32.3968
-22.2395
-41.5165
-21.6676
24.1376
-0.0913973
-18.1428
-21.6037
-18.1584
-0.267526
24.1477
-52.2901
-41.5531
-22.2459
-32.4616
58.1059
114.36
135.884
37.9959
71.1892
120.149
183.12
136.893
70.7888
136.869
183.287
120.029
58.3169
37.8909
135.955
113.983
-34.8791
-34.4928
-36.8228
-36.7038
-35.2931
-35.8946
-36.987
-35.7278
-43.6393
-45.8606
-40.1001
-39.3188
-45.6532
-39.8166
-40.7647
-46.5745
-34.9399
-36.7121
-36.7945
-33.9422
-45.6353
-46.5043
-40.7606
-39.8134
-43.6661
-39.3187
-40.1079
-45.8725
-35.2728
-35.6662
-36.9879
-35.8877
-35.0666
-35.8432
-34.6139
-34.2032
-35.0984
-33.9971
-34.5969
-35.8432
-35.9386
-36.1068
-35.4899
-35.0316
-35.9392
-35.032
-35.4926
-36.1067
-77.3843
-66.8385
-87.4444
-16.6509
-52.0383
-65.2717
-80.3656
-58.5437
-52.0103
-58.5224
-80.358
-65.269
-77.3635
-16.641
-87.4221
-66.8402
-41.2615
-41.5426
-44.2086
-42.2271
-42.6435
-40.0864
-50.2976
-50.3882
-37.3698
-43.1442
-46.9099
-39.0135
-43.105
-38.3191
-46.4761
-46.485
-41.1628
-42.2038
-44.2024
-41.9862
-43.0835
-46.4361
-46.4311
-38.3186
-37.2494
-38.8787
-46.8232
-43.05
-42.5162
-50.2814
-50.2144
-39.9554
-37.4367
-37.4123
-39.5073
-39.4192
-37.4194
-39.432
-39.504
-37.4094
-42.176
-41.7284
-43.6519
-44.1156
-42.2285
-44.1357
-43.6574
-41.7474
-48.8938
-43.3893
-39.1589
-52.9328
-32.4669
-31.282
-32.7536
-35.4148
-32.3871
-35.388
-32.7438
-31.2511
-48.8711
-52.9309
-39.154
-43.37
-38.7466
-37.5238
-34.5586
-35.8384
-38.6588
-35.7712
-34.4699
-37.4829
-33.9841
-28.7169
-31.5078
-34.5675
-34.1084
-34.6678
-31.6944
-28.9493
-82.0263
-129.114
-114.508
-42.9445
-42.9437
-41.6376
-27.1706
10.5538
-60.0696
-35.3768
-33.7903
-35.1118
-129.417
-82.1312
-114.598
-42.8587
-42.8342
-41.5474
10.4382
-27.1093
-60.0558
-33.6637
-35.2738
-34.9915
-37.0131
-35.2106
-35.5811
-35.8636
-38.3932
-36.8116
-38.9676
-37.9307
-47.0756
-45.8491
-48.6816
-63.937
-44.7
-43.9119
-44.9774
-47.3021
-37.0135
-35.8653
-35.19
-35.5761
-38.3316
-37.9123
-36.7881
-38.9892
-47.0565
-63.9528
-45.8312
-48.6702
-44.8147
-47.3053
-43.9647
-45.0173
-42.4392
-39.5894
-88.6284
77.1517
-99.5484
-99.576
-90.8875
-173.478
-51.5848
-45.8713
-46.5665
-49.7892
-38.3352
-37.9069
-38.2217
-35.7299
-40.8034
-40.7872
-41.143
-38.8791
-45.3055
-40.57
-43.5467
-41.9975
-28.2317
-28.2086
-53.0827
61.1285
-60.3787
-48.2946
-55.9255
-39.4792
-28.6714
-28.588
-31.0892
-26.5425
-42.3891
-44.7305
-44.9116
-42.2721
-42.3461
-39.6609
-88.7888
77.1743
-51.5882
-45.886
-46.637
-49.7865
-38.2219
-37.7961
-38.1008
-35.6398
-45.3015
-40.6471
-43.4948
-41.9984
-60.3502
-48.3285
-55.9457
-39.4813
-42.3263
-44.6893
-44.8557
-42.2492
-33.9205
-34.5695
-33.7512
-34.1718
-36.7814
-38.016
-36.9066
-37.7692
-37.2538
-37.2578
-38.3041
-36.3681
-34.7529
-37.492
-37.0451
-35.3799
-37.6843
-37.684
-36.7497
-37.6518
-50.357
-48.3273
-47.854
-55.4311
15.4783
15.4555
26.384
2.55494
-60.3644
-60.3632
-63.5439
-56.549
-33.9213
-34.5388
-33.8141
-34.1602
-36.7781
-38.01
-36.8986
-37.768
-34.7366
-37.462
-37.036
-35.3823
-50.3634
-48.3237
-47.9982
-55.4331
-51.5525
-47.6214
-48.326
-45.9227
-51.5668
-47.6379
-48.3354
-45.9322
-58.3976
-54.5028
-54.5316
-51.0905
-16.9306
-10.4192
-10.4288
-3.90583
188.364
176.632
206.66
188.217
-37.8148
-38.7221
-38.4485
-39.5161
-37.8147
-38.7172
-38.4542
-39.5226
-34.7411
-34.6015
-35.0497
-34.7389
-91.1606
-92.4879
-85.8447
-91.1614
-49.8591
-46.9842
-48.3466
-45.7467
-49.7812
-46.92
-48.2787
-45.7028
-43.096
-41.4908
-41.4848
-40.4129
-33.6821
-35.2334
-35.2315
-36.7236
-31.4933
-32.3482
-29.8585
-31.3902
-58.9007
-52.2327
-87.8566
40.6429
-109.531
-104.679
-95.423
-205.17
-79.0678
-60.9769
-70.3031
-69.3468
-40.2122
-39.1283
-40.3557
-37.3056
-41.7889
-41.1533
-41.5372
-39.4866
-43.066
-44.2935
-44.7754
-43.4606
-28.0362
-30.1142
-75.3823
71.9843
-0.602739
-8.75997
-55.1472
69.7298
-53.4339
-51.6752
-60.1591
-40.8454
-36.2716
-37.0606
-36.9964
-35.0815
-32.5405
-30.1807
-31.1038
-32.0329
-37.4317
-39.307
-39.5655
-34.7587
-109.508
-104.783
-95.5484
-205.426
-58.7373
-51.9708
-87.9451
41.7835
-79.1065
-60.9617
-70.2761
-69.3261
-41.725
-41.1116
-41.4947
-39.4806
-40.1004
-39.0156
-40.2302
-37.2211
-42.9916
-44.2299
-44.6703
-43.4104
-0.910213
-9.74674
-54.9975
69.3811
-27.9396
-30.1157
-75.4379
71.8545
-53.2616
-51.77
-60.234
-40.8096
-32.4257
-30.0206
-31.0415
-31.8297
-36.1153
-36.9307
-36.8713
-34.9642
-37.3338
-39.2281
-39.4694
-34.7053
-37.2673
-41.5409
-39.3346
-39.5035
-34.7327
-34.4507
-35.0237
-34.7731
-35.5204
-35.9962
-35.8027
-35.9236
-36.5921
-37.1129
-37.9422
-36.0142
-38.8074
-37.8247
-43.0295
-38.131
-34.9271
-34.6073
-32.8454
-34.6736
-33.6136
-33.6073
-34.7351
-37.0973
-37.6304
-37.6103
-36.7104
-37.5231
-39.2878
-37.9106
-37.9446
-22.62
-42.5206
-39.8707
-40.1235
-41.7845
-49.8647
-50.5028
-48.1884
-58.8332
-13.9838
9.71252
11.7042
-12.4321
-44.2662
-44.9182
-44.4758
-46.3508
-41.8466
-39.7335
-41.0734
-40.6807
-46.1038
-47.6499
-45.9832
-50.7352
-53.5138
-60.1786
-60.8884
-56.9118
-37.2733
-41.383
-38.8884
-39.4652
-36.5978
-37.1156
-37.9431
-36.0217
-34.8985
-34.1654
-35.4375
-34.8775
-35.535
-35.9937
-35.8026
-35.9382
-38.7423
-37.8643
-41.8905
-38.1232
-37.6253
-37.6078
-36.7079
-37.5169
-34.9441
-34.5954
-33.7091
-34.6939
-33.5657
-33.5852
-34.7172
-37.063
-39.2649
-37.8804
-37.9183
-22.6102
-14.0055
9.54457
11.8068
-12.3651
-42.5103
-39.8605
-40.1026
-41.7734
-49.8406
-50.4272
-48.1613
-58.799
-44.1279
-44.863
-44.4895
-46.4637
-53.4862
-60.1734
-60.875
-56.9047
-41.8708
-39.7346
-41.0851
-40.6808
-46.1185
-47.6264
-45.9929
-50.7055
-87.0949
-63.4145
-73.3134
-73.4401
165.725
178.588
161.513
185.75
-83.3687
-67.5406
-74.5325
-74.5017
63.7903
109.421
102.503
104.882
-46.2123
-46.9081
-50.0671
-44.7726
-52.6148
-54.0901
-57.482
-50.1422
-40.8055
-44.945
-42.8863
-41.934
-34.9675
-33.7935
-35.1076
-34.1775
-42.2542
-43.205
-42.7697
-42.7752
-35.9424
-34.3951
-35.2291
-35.19
-45.2379
-46.1494
-43.929
-49.1441
-41.6666
-41.5467
-40.4395
-43.2341
-33.4451
-27.0938
-31.136
-31.1289
154.38
178.694
166.754
166.804
-50.5857
-49.0179
-47.764
-53.7004
-20.1903
-13.9167
-21.0239
-10.7239
-31.187
-31.4227
-31.346
-31.3338
-27.4716
-28.8692
-28.6777
-28.8099
-47.4882
-49.443
-47.2103
-49.1168
-37.2306
-35.7741
-38.0181
-34.793
-87.088
-63.4261
-73.322
-73.4306
165.737
178.628
185.792
161.591
-46.2546
-46.9341
-50.0945
-44.824
-52.6088
-54.0927
-57.4816
-50.1909
-40.6823
-44.8484
-41.8282
-42.7763
-34.8744
-33.6483
-35.0871
-34.0357
-45.1568
-46.0869
-43.896
-49.0281
-41.6432
-41.5406
-40.433
-43.2267
-50.5825
-49.0198
-53.7011
-47.6877
-20.1992
-13.9398
-10.7414
-21.0345
-47.422
-49.377
-49.0267
-47.1343
-37.2134
-35.7467
-34.7907
-38.0102
-35.0505
-36.4452
-35.7318
-35.9851
-34.4563
-34.6741
-34.4568
-34.8448
-36.5327
-44.8722
-40.4508
-39.3267
-38.3455
-38.585
-37.5988
-39.4439
-40.7323
-45.3902
-42.4853
-42.4889
-35.6538
-35.237
-35.7679
-35.7621
-37.857
-38.1781
-37.0866
-38.8413
-44.0856
-45.3671
-44.1239
-45.4608
-35.5976
-35.3641
-35.1906
-35.1918
-37.9504
-39.042
-38.7381
-38.7456
-44.2519
-41.6788
-42.8335
-43.0003
-72.1231
-88.1044
-81.2513
-77.3583
22.0011
7.52945
13.9264
13.9614
-51.7162
-87.9534
-76.5124
-76.5357
-69.8089
-78.5056
-73.569
-73.5661
-49.3035
-41.893
-45.4569
-45.4566
-35.0628
-36.4421
-35.7222
-35.9819
-34.4496
-34.6657
-34.4447
-34.8417
-36.5183
-44.8521
-39.2935
-40.4259
-38.3418
-38.5718
-37.5884
-39.4357
-37.8565
-38.1826
-38.8452
-37.0903
-44.0483
-45.3499
-44.1054
-45.4373
-44.2881
-41.6955
-43.0167
-42.8543
-72.2133
-88.0842
-77.3448
-81.2177
-84.6697
-70.9104
-73.258
-61.7257
-40.0368
-37.4865
-42.6369
-40.7139
-37.9234
-37.7671
-42.2722
-37.9431
-80.466
-75.1821
-73.8554
-65.2522
-84.6962
-70.8965
-73.2718
-61.7308
-80.4341
-75.1149
-73.8277
-65.27
-37.9116
-37.7502
-42.3031
-37.8042
-39.9136
-37.4909
-42.511
-40.683
-83.8789
-74.0212
-75.6742
-67.5811
-83.8749
-74.0083
-75.6755
-67.5791
-41.1644
-40.1111
-44.5359
-42.1362
-41.1789
-40.1176
-44.5449
-42.1426
-37.3412
-36.63
-32.4508
-30.4836
0.0501978
9.49027
-0.608831
9.03816
0.0732797
9.531
-0.573753
9.10055
-37.2998
-36.6641
-32.4491
-30.4966
129.83
114.193
125.608
93.2121
119.309
129.741
157.55
156.435
130.101
118.979
156.379
157.436
104.602
130.265
93.1598
125.647
-35.3957
-36.0817
-35.8503
-36.3411
-34.843
-35.5029
-35.7353
-35.9965
-41.905
-43.4887
-40.8049
-42.5301
-42.5957
-44.3167
-41.6092
-42.9261
-35.4071
-36.1062
-35.7801
-36.3323
-42.5883
-44.3032
-41.6
-42.9155
-41.9127
-43.4979
-40.8131
-42.541
-34.9923
-35.5008
-35.7517
-36.0119
-35.135
-35.3614
-34.9795
-35.6032
-35.3759
-35.2256
-35.5906
-34.8706
-35.5514
-35.0376
-35.1731
-35.1637
-35.0367
-35.552
-35.1641
-35.1744
-86.477
-48.1717
-82.3432
-70.6195
-59.1944
-62.1319
-67.1452
-69.5054
-62.1031
-59.1717
-69.5029
-67.1253
-48.132
-86.3531
-70.5991
-82.3807
-42.3114
-43.202
-43.0728
-43.1919
-41.7528
-44.3439
-43.5
-47.2737
-39.4303
-40.2314
-41.0514
-42.5563
-44.0939
-41.3693
-45.891
-43.8393
-42.1854
-43.1296
-43.1455
-43.1852
-44.0726
-41.3363
-45.8865
-43.8134
-39.3132
-40.1324
-40.9451
-42.4551
-41.6353
-44.2346
-43.3871
-47.2081
-38.4872
-37.9251
-39.0002
-38.6877
-38.4894
-37.9216
-38.9993
-38.6869
-42.4936
-43.1338
-42.9135
-43.4287
-42.5222
-43.1623
-42.9295
-43.4449
-47.583
-50.3492
-43.0168
-45.9317
-31.8613
-32.8905
-31.9646
-32.8762
-31.8163
-32.8562
-31.9385
-32.851
-47.529
-50.3345
-42.9942
-45.9253
-36.2221
-36.7765
-35.8694
-35.8778
-36.7116
-36.1607
-35.815
-35.8048
-32.6885
-34.5451
-31.8755
-33.812
-34.6614
-32.8884
-33.9679
-32.0837
-97.7532
-6.00155
-101.022
-71.928
-85.739
-90.8326
-41.7485
-39.4625
-41.897
-40.429
-43.1597
-42.2851
-66.7085
49.5411
-42.8356
42.7906
-61.7007
-54.7534
-36.3335
-34.3797
-32.5342
-34.0901
-36.7962
-34.2221
-101.28
-71.3588
-97.857
-5.8745
-85.8378
-90.9254
-41.837
-40.3891
-41.6277
-39.3778
-43.043
-42.2206
-42.7903
40.8527
-66.7088
49.4904
-61.7978
-54.7593
-32.421
-33.9623
-36.2259
-34.2529
-36.6797
-34.1204
-34.5115
-37.3313
-35.2299
-34.8114
-36.3009
-35.0567
-37.0426
-35.4619
-40.2353
-37.7117
-35.1837
-35.8836
-35.931
-39.0699
-36.6861
-37.6213
-42.183
-41.4896
-42.7109
-44.9649
-47.3975
-61.1055
-32.7599
-69.8569
-44.2089
-46.2624
-43.2193
-42.8605
-44.6814
-48.6817
-50.9926
-49.5119
-34.5119
-37.3264
-37.0421
-35.4803
-35.3194
-34.8727
-36.3234
-35.0842
-40.0927
-37.68
-36.6791
-37.6051
-35.1644
-35.884
-35.9116
-38.9358
-42.149
-41.3762
-32.7199
-69.7636
-42.6856
-44.9519
-47.3815
-61.0877
-44.2554
-46.2038
-50.9732
-49.493
-43.2548
-42.9147
-44.7144
-48.6731
-89.6717
63.6974
-85.0106
82.9402
-88.8579
-86.1494
133.743
143.487
-92.6791
-153.253
-92.7222
-153.155
-90.1034
-90.1002
28.9083
29.5169
-53.5465
-57.1843
-42.6265
-45.2893
-50.3186
-44.23
-55.1113
-48.3798
-39.059
-36.4729
-37.5961
-35.2555
-39.7616
-39.2885
-35.5549
-34.7387
-41.2695
-39.1279
-41.2464
-39.0886
-41.6866
-41.6962
-37.4756
-37.4473
-48.4805
-44.447
-40.0804
-39.4055
-42.5814
-48.3311
-40.4757
-43.8292
-54.1086
70.2292
-54.0278
67.1772
-40.5342
-40.53
114.075
113.975
-59.0109
-40.7771
-42.5462
-31.4454
-50.5395
-57.0649
-26.4122
-21.8135
-31.0858
-28.3604
-31.0447
-28.1561
-31.3156
-31.3027
-27.1939
-27.334
-42.3699
-38.022
-45.719
-45.6028
-45.1357
-46.5336
-41.0421
-36.7702
-89.8081
63.4102
-85.0981
82.8725
-88.8698
-86.1694
143.458
133.572
-53.3533
-57.1799
-43.0253
-45.2598
-50.3573
-44.3276
-55.105
-48.3672
-38.9345
-36.3878
-37.4598
-35.1507
-39.1509
-39.6302
-35.4845
-34.6451
-48.3908
-44.4131
-40.6405
-39.4423
-42.471
-48.2278
-40.4802
-43.818
-58.9249
-40.8265
-42.5343
-31.4723
-57.0573
-50.4432
-21.8316
-26.3927
-42.2752
-37.977
-45.6609
-45.4372
-46.4769
-45.0544
-36.7092
-41.0148
-34.0568
-33.9878
-35.8954
-34.9732
-33.9916
-35.1875
-34.134
-34.582
-36.18
-36.5415
-38.0969
-39.3631
-36.3837
-36.97
-37.2855
-38.863
-38.3495
-36.3056
-38.3515
-36.3065
-39.3777
-39.3828
-35.8984
-35.8985
-35.337
-35.9348
-39.0371
-37.8753
-36.5796
-38.393
-41.825
-38.9099
-36.7344
-37.5723
-36.7338
-37.5703
-36.1099
-36.1082
-37.3685
-37.3641
-48.7023
-57.3295
-47.3208
-53.3771
-46.1073
-46.3576
-64.3538
-60.939
23.2179
-1.5327
23.3608
-1.43573
27.5754
27.5804
-18.7052
-18.6901
-63.1576
-56.7434
-63.1528
-56.7398
-66.0798
-66.0783
-52.8452
-52.8399
-33.4303
-33.8114
-35.8143
-34.9669
-34.069
-35.1733
-34.1145
-34.5773
-36.1729
-36.5455
-38.0859
-39.3573
-36.9587
-36.3705
-37.2889
-38.8607
-35.3238
-35.9174
-39.0375
-37.8882
-38.3853
-36.572
-41.8129
-38.9314
-48.5702
-57.3281
-47.323
-53.3376
-46.3611
-46.1272
-60.9221
-64.3586
-55.7901
-56.5505
-50.7351
-45.374
-46.5424
-52.3465
-44.3975
-46.6193
-55.8051
-56.5659
-50.7551
-45.3923
-52.3546
-46.5635
-46.5835
-44.3856
-62.7887
-62.7973
-58.3389
-51.0055
-58.3518
-51.0027
-48.606
-48.6077
-21.5331
-21.5353
-18.1008
-5.66256
-5.70458
-18.1126
1.43348
1.44309
169.024
198.444
135.907