# vtk DataFile Version 2.0
tet_velo
ASCII
DATASET UNSTRUCTURED_GRID
POINTS 29498 float
-0.775 0.425 -1.72257
-0.815 0.385 1.68435
-0.761401 1.035 -1.545
-0.605 1.6513 1.585
0.775 0.425 -1.72257
0.815 0.385 1.68435
0.761397 1.035 -1.545
0.605 1.6513 1.585
-0.825027 0.374973 -0.58693
-0.825994 0.374006 0.54871
-0.734626 1.26579 -0.501667
-0.698492 1.48722 0.541667
0.825027 0.374973 -0.58693
0.825994 0.374006 0.54871
0.734601 1.26577 -0.501667
0.698493 1.48723 0.541667
-1.53341 -0.107411 -2.63046
-1.5451 -0.0344127 -1.75892
-1.57382 -0.0767111 -0.620893
-1.56886 -0.134306 0.535711
-1.54939 -0.139318 1.6753
-1.55016 -0.077871 2.55451
-1.55941 0.0111796 3.41953
-1.53544 0.293624 -2.57486
-1.54197 0.397266 -1.7134
-1.57109 0.398662 -0.593336
-1.5533 0.406078 0.535038
-1.5192 0.434924 1.65687
-1.53471 0.498486 2.53478
-1.5539 0.581274 3.40281
-1.52861 1.02039 -2.43775
-1.51868 1.11506 -1.57248
-1.50134 1.29971 -0.515339
-1.44837 1.49348 0.53526
-1.3754 1.63623 1.59417
-1.45795 1.69049 2.47589
-1.52356 1.74387 3.3588
-1.52297 2.30002 -2.30149
-1.51534 2.43249 -1.45004
-1.49694 2.69432 -0.422832
-1.46994 2.99179 0.584483
-1.45547 3.21843 1.61266
-1.47702 3.32774 2.46613
-1.51526 3.39808 3.33896
-0.763959 -0.0906354 -2.63642
-0.767494 -0.0105028 -1.76761
-0.799019 -0.0843132 -0.619727
-0.804717 -0.161487 0.54738
-0.798585 -0.178584 1.6957
-0.809685 -0.104766 2.56835
-0.82124 -0.00493852 3.42754
-0.77055 0.29918 -2.5767
-0.818347 0.476708 2.54619
-0.827211 0.569127 3.40885
-0.769012 0.987935 -2.42634
-0.758928 1.69328 2.47405
-0.811977 1.74422 3.35841
-0.769297 2.26956 -2.29021
-0.765937 2.39952 -1.43761
-0.756471 2.6765 -0.415337
-0.744299 2.996 0.583584
-0.742187 3.23319 1.60624
-0.764535 3.34133 2.45971
-0.797972 3.40775 3.3343
0.783133 -0.0906379 -2.63642
0.797741 -0.0105042 -1.76761
0.820341 -0.084314 -0.619727
0.819166 -0.161487 0.54738
0.802471 -0.178584 1.6957
0.725682 -0.104766 2.56835
0.679831 -0.00493884 3.42754
0.770211 0.299178 -2.5767
0.687283 0.476707 2.54619
0.653301 0.569127 3.40885
0.756834 0.987932 -2.42634
0.615317 1.69328 2.47405
0.619736 1.74422 3.35841
0.740729 2.26956 -2.29021
0.734788 2.39951 -1.43761
0.722048 2.67649 -0.415337
0.696927 2.996 0.583584
0.665047 3.23319 1.60624
0.646627 3.34133 2.45971
0.632597 3.40775 3.3343
1.55604 -0.107418 -2.63046
1.57018 -0.0344191 -1.75892
1.59619 -0.0767157 -0.620893
1.59307 -0.134307 0.535711
1.56076 -0.139319 1.6753
1.49043 -0.0778716 2.55451
1.43843 0.0111784 3.41953
1.54166 0.293617 -2.57486
1.54823 0.397258 -1.7134
1.57938 0.398655 -0.593337
1.56995 0.406078 0.535038
1.52852 0.434924 1.65687
1.45084 0.498486 2.53478
1.40806 0.581273 3.40281
1.52085 1.02038 -2.43775
1.51684 1.11504 -1.57248
1.50312 1.29969 -0.515339
1.45833 1.49348 0.53526
1.37618 1.63623 1.59417
1.35931 1.69049 2.47589
1.35888 1.74387 3.3588
1.49749 2.3 -2.30149
1.4883 2.43248 -1.45004
1.46789 2.6943 -0.422833
1.43104 2.99178 0.584483
1.38863 3.21843 1.61266
1.36895 3.32773 2.46613
1.35932 3.39808 3.33896
-0.746333 0.73 -1.61192
0 0.410898 -1.73667
-0.810739 0.389261 -1.15475
-0.768322 1.01815 1.693
0 0.373139 1.69621
-0.820238 0.379762 1.11653
-1.99676e-06 1.07484 -1.58484
-0.734807 1.13719 -1.02333
0 1.66471 1.59841
-0.670147 1.58766 1.06333
0.746216 0.73 -1.6118
0.810796 0.389204 -1.15475
0.7681 1.01815 1.69278
0.820231 0.379769 1.11653
0.734793 1.13718 -1.02333
0.670148 1.58767 1.06333
-0.820397 0.379603 -0.01911
-0.830285 0.820382 -0.544298
0 0.371085 -0.58693
-0.835688 0.930615 0.545188
0 0.370914 0.54871
-0.723552 1.3835 0.02
-1.27503e-05 1.38523 -0.501667
9.95264e-07 1.71111 0.541667
0.820397 0.379603 -0.01911
0.830274 0.820371 -0.544298
0.835687 0.930617 0.545188
0.723554 1.38351 0.02
-0.896195 0.775191 -1.08904
-0.837697 0.875499 0.000445038
-0.826597 0.974383 1.08993
0 0.389504 -1.15475
0 0.371011 -0.01911
0 0.370949 1.11653
-9.98378e-07 0.73 -1.72849
0 1.01815 1.77851
-7.37354e-06 1.15123 -1.02333
-5.87753e-06 1.70819 0.02
4.97632e-07 1.71116 1.06333
0.896195 0.775185 -1.08904
0.837697 0.875494 0.000445038
0.826595 0.974383 1.08993
-1.15849 0.411133 -1.71799
-0.771247 0.207249 -1.74509
-0.772775 0.36209 -2.14963
-1.1671 0.409962 1.67061
-0.806793 0.103208 1.69003
-0.816673 0.430854 2.11527
-1.14004 1.07503 -1.55874
-0.765207 1.01147 -1.98567
-0.763669 1.71726 -1.4913
-0.990202 1.64376 1.58958
-0.681964 1.67229 2.02953
-0.673594 2.44225 1.59562
0.78637 0.207248 -1.74509
0.772605 0.362089 -2.14963
1.16162 0.411129 -1.71799
0.808735 0.103208 1.69003
0.751141 0.430854 2.11527
1.17176 0.409962 1.67061
0.759115 1.01147 -1.98567
0.748092 1.71726 -1.4913
1.13912 1.07502 -1.55874
0.610159 1.67229 2.02953
0.635024 2.44225 1.59562
0.990588 1.64376 1.58958
-1.19806 0.386817 -0.590133
-0.812023 0.14533 -0.603329
-1.18965 0.390042 0.541874
-0.815355 0.10626 0.548045
-1.11799 1.28275 -0.508503
-0.745549 1.97115 -0.458502
-1.07343 1.49035 0.538464
-0.721395 2.24161 0.562625
0.822684 0.145329 -0.603329
1.2022 0.386814 -0.590133
0.82258 0.106259 0.548045
1.19797 0.390042 0.541874
0.728325 1.97113 -0.458502
1.11886 1.28273 -0.508503
0.69771 2.24161 0.562625
1.07841 1.49036 0.538464
-1.53926 -0.070912 -2.19469
-1.53442 0.0931062 -2.60266
-1.14868 -0.0990233 -2.63344
-1.55946 -0.0555619 -1.18991
-1.54354 0.181427 -1.73616
-1.1563 -0.0224578 -1.76326
-1.57134 -0.105508 -0.0425907
-1.57246 0.160975 -0.607115
-1.18642 -0.0805121 -0.62031
-1.55912 -0.136812 1.10551
-1.56108 0.135886 0.535375
-1.18679 -0.147896 0.541546
-1.54977 -0.108595 2.1149
-1.53429 0.147803 1.66609
-1.17399 -0.158951 1.6855
-1.55478 -0.0333457 2.98702
-1.54244 0.210307 2.54464
-1.17992 -0.0913185 2.56143
-1.55665 0.296227 3.41117
-1.19032 0.00312054 3.42353
-1.53871 0.345445 -2.14413
-1.53203 0.657007 -2.50631
-1.15299 0.296402 -2.57578
-1.55653 0.397964 -1.15337
-1.53032 0.756162 -1.64294
-1.5622 0.40237 -0.0291493
-1.53622 0.849187 -0.554338
-1.53625 0.420501 1.09596
-1.50083 0.949781 0.535149
-1.52696 0.466705 2.09582
-1.4473 1.03558 1.62552
-1.54431 0.53988 2.96879
-1.49633 1.09449 2.50533
-1.17653 0.487597 2.54048
-1.53873 1.16257 3.38081
-1.19055 0.575201 3.40583
-1.52365 1.06772 -2.00512
-1.52579 1.6602 -2.36962
-1.14881 1.00416 -2.43205
-1.51001 1.20738 -1.04391
-1.51701 1.77378 -1.51126
-1.47486 1.3966 0.00996075
-1.49914 1.99701 -0.469085
-1.41188 1.56486 1.06471
-1.45915 2.24264 0.559872
-1.41668 1.66336 2.03503
-1.41544 2.42733 1.60341
-1.49076 1.71718 2.91735
-1.46748 2.50911 2.47101
-1.10844 1.69188 2.47497
-1.51941 2.57098 3.34888
-1.16777 1.74405 3.35861
-1.51915 2.36626 -1.87577
-1.14613 2.28479 -2.29585
-1.50614 2.56341 -0.936437
-1.14064 2.41601 -1.44383
-1.48344 2.84305 0.0808257
-1.12671 2.68541 -0.419084
-1.46271 3.10511 1.09857
-1.10712 2.9939 0.584034
-1.46624 3.27308 2.03939
-1.09883 3.22581 1.60945
-1.49614 3.36291 2.90254
-1.12078 3.33453 2.46292
-1.15662 3.40292 3.33663
-0.765727 -0.0505691 -2.20201
-0.767255 0.104272 -2.60656
0.00958692 -0.0906366 -2.63642
-0.783257 -0.047408 -1.19367
0.0151232 -0.0105035 -1.76761
-0.801868 -0.1229 -0.0361734
0.0106607 -0.0843136 -0.619727
-0.801651 -0.170035 1.12154
0.00722461 -0.161487 0.54738
-0.804135 -0.141675 2.13203
0.00194271 -0.178584 1.6957
-0.815463 -0.0548523 2.99794
-0.814016 0.185971 2.55727
-0.0420016 -0.104766 2.56835
-0.824226 0.282094 3.41819
-0.0707043 -0.00493868 3.42754
-0.769781 0.643558 -2.50152
-0.000169724 0.299179 -2.5767
-0.822779 0.522917 2.97752
-0.788637 1.085 2.51012
-0.0655321 0.476708 2.54619
-0.819594 1.15667 3.38363
-0.0869548 0.569127 3.40885
-0.769155 1.62875 -2.35827
-0.00608925 0.987934 -2.42634
-0.785452 1.71875 2.91623
-0.761731 2.51731 2.46688
-0.0718054 1.69328 2.47405
-0.804974 2.57599 3.34636
-0.0961203 1.74422 3.35841
-0.767617 2.33454 -1.86391
-0.0142841 2.26956 -2.29021
-0.761204 2.53801 -0.926472
-0.0155746 2.39952 -1.43761
-0.750385 2.83625 0.0841238
-0.0172113 2.6765 -0.415337
-0.743243 3.1146 1.09491
-0.0236861 2.996 0.583584
-0.753361 3.28726 2.03297
-0.03857 3.23319 1.60624
-0.781253 3.37454 2.89701
-0.0589536 3.34133 2.45971
-0.0826876 3.40775 3.3343
0.790437 -0.050571 -2.20201
0.776672 0.10427 -2.60656
1.16959 -0.099028 -2.63344
0.809041 -0.0474091 -1.19367
1.18396 -0.0224617 -1.76326
0.819753 -0.122901 -0.0361734
1.20826 -0.0805149 -0.62031
0.810818 -0.170036 1.12154
1.20612 -0.147897 0.541546
0.764077 -0.141675 2.13203
1.18161 -0.158951 1.6855
0.702757 -0.0548526 2.99795
0.706482 0.185971 2.55727
1.10806 -0.0913189 2.56143
0.666566 0.282094 3.41819
1.05913 0.00311976 3.42354
0.763522 0.643555 -2.50152
1.15594 0.296397 -2.57578
0.670292 0.522917 2.97752
0.6513 1.085 2.51012
1.06906 0.487597 2.54048
0.636519 1.15667 3.38363
1.03068 0.5752 3.40583
0.748781 1.62874 -2.35827
1.13884 1.00416 -2.43205
0.617527 1.71875 2.91623
0.630972 2.51731 2.46688
0.987311 1.69188 2.47497
0.626166 2.57599 3.34636
0.98931 1.74405 3.35861
0.737758 2.33454 -1.86391
1.11911 2.28478 -2.29585
0.728418 2.538 -0.926473
1.11154 2.416 -1.44383
0.709488 2.83625 0.0841237
1.09497 2.6854 -0.419085
0.680987 3.1146 1.09491
1.06398 2.99389 0.584034
0.655837 3.28726 2.03297
1.02684 3.22581 1.60945
0.639612 3.37454 2.897
1.00779 3.33453 2.46292
0.995961 3.40292 3.33663
1.56311 -0.0709186 -2.19469
1.54885 0.0930992 -2.60266
1.58318 -0.0555674 -1.18991
1.55921 0.181419 -1.73616
1.59463 -0.105511 -0.0425908
1.58778 0.16097 -0.607115
1.57691 -0.136813 1.10551
1.58151 0.135885 0.535375
1.52559 -0.108595 2.11491
1.54464 0.147803 1.66609
1.46443 -0.0333466 2.98702
1.47063 0.210307 2.54464
1.42325 0.296226 3.41117
1.54495 0.345437 -2.14413
1.53125 0.656999 -2.50631
1.56381 0.397956 -1.15337
1.53254 0.756151 -1.64294
1.57466 0.402366 -0.0291493
1.54125 0.849172 -0.554338
1.54924 0.420501 1.09596
1.51414 0.94978 0.535149
1.48968 0.466705 2.09582
1.45235 1.03558 1.62552
1.42945 0.539879 2.96879
1.40507 1.09449 2.50533
1.38347 1.16257 3.38081
1.51884 1.06771 -2.00512
1.50917 1.66019 -2.36962
1.50998 1.20737 -1.04391
1.50257 1.77376 -1.51126
1.48072 1.39659 0.00996068
1.48551 1.997 -0.469086
1.41725 1.56486 1.06471
1.44468 2.24263 0.559872
[...]
POINT_DATA 29498
VECTORS point_vectors float
-1.64289 -3.91138 5.98896
0.207183 0.447302 2.35971
-2.24233 2.57068 4.30897
0.0573943 -0.142912 0.576682
1.64428 -3.92131 5.98592
-0.207999 0.44647 2.35498
2.24749 2.57589 4.3154
-0.0573771 -0.142079 0.575559
-0.117178 0.160451 1.53902
0.153413 -0.0711924 2.0952
-2.3477 -0.939356 2.60616
1.81684e-05 7.88046e-05 0.000224646
0.115931 0.164317 1.51974
-0.153541 -0.0712219 2.09449
2.34459 -0.936552 2.60301
-1.79792e-05 7.80634e-05 0.00022236
-0.661102 -0.482094 19.9719
-1.12841 -0.875991 20.5784
-0.475392 -0.572061 21.3993
-0.0120772 -0.254434 21.5977
0.439989 0.0948518 21.751
0.796196 0.320467 21.4489
1.04575 0.362948 21.2177
-0.871271 -0.397159 19.8248
-1.73999 -0.81903 20.5362
-0.735885 -0.749687 21.5443
-0.131262 -0.533157 21.7562
0.627577 -0.27512 21.9799
1.13543 -0.128003 21.7918
1.36812 -0.176977 21.5019
-1.2559 0.0497538 19.6329
-2.19689 0.136557 20.4655
-1.80335 -0.322089 21.4633
-0.983703 -0.368432 21.9696
-0.242573 -0.566051 21.8904
0.192706 -0.668344 21.6072
0.526672 -0.828093 21.4831
-0.588692 0.448779 20.0491
-0.829023 0.560381 20.4694
-0.744079 0.432793 21.0667
-0.462712 0.147016 21.2855
-0.197119 -0.0624233 21.5243
0.0123027 -0.127496 21.4445
-0.0383511 -0.121319 20.9983
-0.66621 -1.0053 19.3966
-1.41819 -2.89561 20.6577
-0.441325 -0.708935 21.9149
-0.0378727 -0.151417 21.8595
0.311383 0.553083 22.0756
0.733858 1.18871 21.7346
1.25753 1.58907 20.7366
-1.04802 -0.994479 18.708
1.8392 1.10689 11.3992
2.86961 1.09689 15.1361
-1.70974 0.482617 17.7834
-0.29829 -0.844572 12.7809
0.631036 -1.89259 18.6043
-0.57398 0.876337 19.704
-0.804283 1.26349 20.2188
-0.743161 1.14781 21.0482
-0.421933 0.434247 21.404
-0.20488 0.000151757 21.7228
-0.0442057 -0.107194 21.5736
-0.0204146 -0.155344 21.4006
0.671002 -0.987689 19.4185
1.4442 -2.80921 20.6398
0.44219 -0.69636 21.9059
0.0339769 -0.149101 21.8639
-0.315398 0.552672 22.0745
-0.619748 1.26903 21.6956
-1.18668 1.81006 20.5895
1.0481 -0.989586 18.7059
-1.40925 0.91778 7.79164
-2.6941 1.76284 12.4551
1.69804 0.490931 17.7437
0.737527 -0.848287 7.5911
-0.262961 -1.8346 13.0769
0.555865 0.899155 19.6868
0.79175 1.28111 20.2118
0.719294 1.18243 21.0575
0.39491 0.435735 21.411
0.181748 4.9158e-06 21.6878
0.0110339 -0.0905908 21.493
0.0305234 -0.1512 21.4559
0.666264 -0.480607 19.9717
1.09931 -0.83992 20.5912
0.472926 -0.568823 21.3859
0.0150959 -0.261978 21.5964
-0.437528 0.0863316 21.746
-0.810104 0.365199 21.471
-1.11406 0.484955 21.2344
0.883878 -0.405403 19.7961
1.73841 -0.819509 20.5279
0.739015 -0.742054 21.5341
0.140281 -0.526154 21.7474
-0.606315 -0.27658 21.9645
-1.30566 -0.0942971 21.7083
-1.60219 -0.0885223 21.3672
1.25756 0.0589524 19.6188
2.19753 0.137877 20.4685
1.79969 -0.31945 21.4626
0.971927 -0.36386 21.9595
0.241858 -0.564374 21.8917
-0.159702 -0.748058 21.8458
-0.53356 -0.927798 21.8278
0.594576 0.460375 20.0386
0.839064 0.58194 20.4609
0.750276 0.445813 21.0693
0.473496 0.163853 21.2922
0.210079 -0.0428432 21.5753
0.00268628 -0.123909 21.5646
0.0332975 -0.12049 21.1653
0 0 0
-0.000169417 -0.123715 0.468499
-0.0683429 0.00580887 1.00862
0.0256196 -0.311727 0.218803
0.000972494 0.102166 0.639003
0.0182207 0.00309427 0.843034
1.24033e-05 0.195303 0.575064
-0.586893 -0.22998 0.711777
-1.13443e-05 0.0140979 -0.00445727
0.0149801 0.0319642 0.293542
0 0 0
0.0680812 0.00559758 1.00909
-0.0258249 -0.309167 0.216486
-0.0184216 0.00304722 0.842603
0.586015 -0.22935 0.710048
-0.0149516 0.0318914 0.293488
0.0659647 -0.0210328 1.82716
5.73774e-05 -0.00572088 0.028516
0 0 0
0.000352278 0.00294179 0.0064238
2.67126e-08 1.19937e-10 4.88541e-06
9.63824e-06 0.000115333 0.000417218
1.13983e-05 0.0056391 0.00774101
0 0 0
-0.0659712 -0.0207931 1.8255
-4.82834e-05 -0.0057532 0.0285297
-0.000366462 0.00304926 0.00667492
-1.14896e-05 0.000137553 0.000497941
0 0 0
0.000772482 0.0225068 0.0599705
0 0 0
-3.18089e-08 5.0754e-07 -1.88811e-05
-2.49451e-07 -1.43521e-08 -4.213e-05
-1.96873e-07 -3.47111e-08 -5.76865e-05
0 0 0
-2.48288e-05 -0.0341966 -0.00471123
-2.48164e-05 7.18901e-05 0.000363766
2.28553e-06 0.0173123 0.151117
-7.09782e-07 8.62696e-06 0.00226416
-8.74398e-06 1.84514e-05 -0.000179856
-0.000768218 0.0224737 0.0600021
0 0 0
-3.45334 -2.1241 20.4126
-2.47929 -4.91217 20.8051
-2.41095 -2.46502 17.6626
1.23579 0.17195 21.0582
0.561195 0.90827 20.4797
1.13631 0.843328 8.50664
-4.3023 1.00174 20.3851
-4.15402 2.20716 16.0967
-1.93022 2.3088 19.8767
-0.377805 -0.530021 20.066
-0.648259 -0.405286 7.48518
-0.402 0.0877248 21.819
2.51942 -4.79274 20.7764
2.4119 -2.46364 17.6624
3.42655 -2.09794 20.4151
-0.566287 0.90832 20.4972
-0.820906 0.513381 6.0885
-1.2298 0.154084 21.1184
4.15409 2.24004 16.0291
1.91652 2.36183 19.8613
4.30827 1.00841 20.3826
1.05197 -0.413848 5.12118
0.388667 0.112242 21.8212
0.380614 -0.528242 20.0618
-0.270726 -1.12145 21.9912
-0.466865 -0.38354 21.0395
0.225897 -0.529737 21.0347
0.0770182 -0.0404333 20.1891
-3.38512 -0.754809 21.6318
-2.42413 2.58113 20.9001
-1.55684 -0.585763 22.3246
-0.966819 0.853224 22.1872
0.456206 -0.376046 21.0783
0.286018 -1.11896 22.0013
-0.0794156 -0.0383536 20.261
-0.213291 -0.545803 21.1154
2.43083 2.67452 20.8773
3.36415 -0.754075 21.6415
0.954167 0.889502 22.2037
1.54304 -0.584097 22.3464
-0.946476 -0.713909 20.1605
-0.771036 -0.461243 19.9022
-0.73968 -0.734 19.693
-0.859785 -0.79227 21.164
-1.44219 -0.903579 20.5457
-1.43978 -1.65842 20.5698
-0.205561 -0.394525 21.5422
-0.577866 -0.645695 21.489
-0.407606 -0.657149 21.6618
0.198794 -0.103206 21.7136
-0.0350628 -0.379602 21.6655
0.0419218 -0.20737 21.7492
0.645411 0.188023 21.6542
0.582374 -0.0531383 21.8412
0.503388 0.322856 21.9272
0.988868 0.280585 21.4695
1.04198 0.029911 21.5247
0.949692 0.707574 21.6155
1.22352 0.221313 21.1418
1.23723 0.89693 21.3686
-1.40823 -0.628952 19.9721
-1.09418 -0.22764 19.6904
-1.10473 -0.67896 19.3194
-1.32703 -0.865189 21.3229
-2.27252 -0.422579 20.4849
-0.371201 -0.648978 21.6318
-1.25267 -0.735436 21.5754
0.176817 -0.417364 21.8838
-0.553564 -0.654258 21.9195
0.945204 -0.210831 21.8371
0.293166 -0.727337 21.9608
1.3728 -0.234262 21.6384
0.780326 -0.752626 21.8102
1.91822 0.269394 20.4032
1.13445 -0.733662 21.2725
2.06378 0.30486 20.5912
-1.84206 0.142409 19.8362
-0.930577 0.420947 19.8228
-1.55391 0.177617 18.9427
-2.03863 -0.0797234 21.1244
-1.45171 0.597728 20.3834
-1.4482 -0.379248 21.8048
-1.39441 0.462307 21.1651
-0.561718 -0.43158 21.9985
-0.761685 0.136192 21.6632
-0.0209793 -0.652899 21.8501
-0.296582 -0.145045 21.6331
0.437822 -0.785438 21.6159
-0.0686182 -0.333258 21.5477
0.00942343 -0.939042 21.8592
0.0954947 -0.423258 21.314
0.611867 -1.19509 20.9664
-0.717655 0.518534 20.2396
-0.621419 0.64763 19.8882
-0.779793 0.528423 20.6973
-0.862576 0.863128 20.3724
-0.624205 0.29139 21.2242
-0.811487 0.766159 21.0626
-0.308337 0.0158078 21.4272
-0.565987 0.344343 21.3327
-0.131747 -0.100654 21.5063
-0.248168 0.0152588 21.7429
0.0853632 -0.147813 21.3435
-0.0212283 -0.116591 21.628
-0.0373815 -0.135665 21.2099
-1.08996 -1.91708 19.4953
-0.821883 -1.04677 19.0982
0.00662095 -1.35543 19.0204
-0.831404 -1.58001 21.9009
0.0243846 -3.92088 20.9323
-0.209031 -0.334562 21.8297
0.00711496 -1.00984 22.1375
0.112584 0.105155 22.011
0.00177149 -0.277599 21.873
0.509477 0.892433 21.9535
0.000488112 0.513712 22.1223
0.996556 1.44588 21.6447
1.21875 1.66117 19.2556
0.024358 1.33546 21.6452
1.92318 2.01559 18.9953
0.0366366 1.98413 20.229
-1.47006 -0.501743 17.9662
-0.000414621 -1.46502 17.9019
2.48216 1.52995 13.7273
0.509351 -1.21939 5.60057
0.0920148 0.357075 3.3705
2.37179 -1.04252 10.3276
0.525257 2.09959 4.52382
-1.02546 1.14833 18.9766
-0.0160675 0.92392 16.2513
0.110192 -1.31199 15.6965
-0.201889 -0.222979 21.6257
-0.314977 0.614985 -2.89956
-0.0413539 -0.549541 21.2836
-0.229756 -1.07937 1.89033
-0.716168 1.13083 19.9315
-0.0105168 1.10912 19.5391
-0.811109 1.30075 20.6165
-0.0226129 1.72872 20.0361
-0.517837 0.743137 21.4136
-0.0189977 1.59613 21.0751
-0.281304 0.134998 21.6623
-0.0219245 0.646779 21.439
-0.169358 -0.0891224 21.7491
-0.0106071 0.137925 21.8014
0.0530982 -0.148336 21.4705
0.0176934 -0.11942 21.69
-0.00375185 -0.110284 21.3299
1.10893 -1.86753 19.5167
0.826635 -1.0392 19.1099
0.740916 -0.721477 19.7099
0.846396 -1.55438 21.8854
1.42027 -1.58155 20.5671
0.20563 -0.330901 21.8203
0.412477 -0.659047 21.6457
-0.117334 0.106473 22.0091
-0.0422687 -0.213967 21.7435
-0.46658 0.912533 21.9725
-0.504089 0.317467 21.9237
-0.84763 1.65172 21.682
-0.994766 1.79533 18.7509
-0.967037 0.819225 21.6509
-1.81175 2.45533 17.7097
-1.32592 1.12814 21.4704
1.46578 -0.505831 17.9461
1.08996 -0.677064 19.3254
-2.12382 1.56188 10.3927
-0.0321741 -0.980341 1.32724
-2.15425 0.589896 19.0575
-1.93562 -0.402297 4.49735
-2.60993 0.658815 18.7113
1.01302 1.16801 18.9555
1.55503 0.184197 18.92
0.522783 -1.25947 10.7365
0.215032 -0.17221 21.6195
-0.0302493 -0.8496 19.5226
0.123343 -0.531776 21.4472
-0.621434 -1.5427 19.7773
0.704263 1.14106 19.9237
0.617968 0.662878 19.8764
0.787188 1.32026 20.609
0.865129 0.896499 20.3577
0.505486 0.775502 21.4142
0.807376 0.796457 21.0597
0.256342 0.139728 21.6249
0.562134 0.368954 21.3432
0.147671 -0.0871111 21.669
0.245218 0.0117617 21.7533
-0.0275834 -0.143748 21.476
0.0295214 -0.113946 21.6124
0.029616 -0.143977 21.3004
0.934883 -0.698278 20.1855
0.772221 -0.470876 19.8904
0.852755 -0.767091 21.1421
1.41194 -0.887923 20.5416
0.20391 -0.399873 21.5326
0.574209 -0.634833 21.4727
-0.200533 -0.110476 21.7126
0.0377802 -0.372919 21.6556
-0.65418 0.20202 21.6609
-0.574 -0.0575471 21.8299
-1.03673 0.35729 21.4983
-1.13927 0.120238 21.5983
-1.40353 0.286851 21.252
1.38171 -0.64718 19.9489
1.11507 -0.238024 19.6653
1.32377 -0.857336 21.3087
2.26154 -0.427638 20.4794
0.380923 -0.642886 21.6251
1.24177 -0.735613 21.5713
-0.166109 -0.414386 21.8788
0.543848 -0.641612 21.9135
-0.98814 -0.196449 21.8572
-0.290148 -0.72284 21.9606
-1.5676 -0.23384 21.5546
-0.843269 -0.893979 21.7944
-1.23247 -0.880336 21.4929
1.84948 0.150643 19.8383
0.934473 0.433066 19.8159
2.03371 -0.0752415 21.1262
1.46494 0.617876 20.3789
1.43448 -0.374903 21.8008
1.41841 0.480326 21.1695
0.558863 -0.428656 21.9939
0.771998 0.148778 21.6708
0.0491536 -0.681033 21.901
0.302172 -0.141484 21.6518
-0.382164 -0.932614 21.8621
0.0797747 -0.338585 21.5678
-0.0863027 -0.502669 21.3717
0.72622 0.535282 20.2294
0.786063 0.550745 20.6912
0.633211 0.30232 21.2355
0.316744 0.0306253 21.4758
0.148252 -0.0936177 21.614
-0.0902309 -0.149635 21.4853
-1.15288 -0.690213 20.0531
-1.61386 -2.30216 18.7967
-1.15414 -1.2405 19.8877
-2.06549 -1.21177 19.2526
-0.887145 -0.745318 19.5572
-2.21488 -2.02619 20.5516
-1.09429 -0.849497 21.2471
-1.04292 -1.47916 22.2725
-0.905415 -1.17611 21.4998
-1.44064 -1.69586 22.2499
-0.364339 -0.744741 21.8382
-0.257194 -0.504137 21.5807
-0.145943 -0.0919234 20.245
-0.124654 -0.38176 21.6705
0.148879 -0.76301 21.3246
0.156989 -0.303266 21.7879
0.219701 -0.237429 21.7913
0.270013 0.213971 20.1932
0.238506 0.00682829 21.8678
0.482935 -0.244458 21.0175
0.846254 0.347009 21.9829
0.826054 0.0735677 21.7267
0.898082 1.35725 19.8603
0.739428 0.560429 21.8146
1.62972 0.221899 20.7761
1.44307 0.616631 21.7042
1.2104 0.099672 21.5746
1.65551 1.94778 19.249
1.09376 0.703885 21.4619
2.14109 0.360563 20.3415
1.80086 0.64427 20.8473
-1.77863 -0.32233 19.8722
-4.21066 -0.747393 15.3522
-2.99733 0.64526 18.8869
-1.42165 -0.381386 19.0038
-5.26497 -0.799413 20.3784
-1.85088 -0.619806 21.3378
-3.20123 -0.0313654 21.5611
-1.39817 -1.54593 20.1161
-0.894858 -0.751488 21.7735
-2.54266 -0.750445 22.1587
-0.340282 -0.893287 18.8052
-0.165655 -0.627425 22.0108
-0.86973 -0.517424 21.4959
0.776523 -0.537074 17.0946
0.55746 -0.766864 21.8569
-0.331809 -1.95139 2.938
-0.31628 -0.726345 21.2146
1.11145 -1.0128 19.3407
1.04876 -0.833452 21.9342
1.2181 -1.02421 7.9662
0.463469 -1.14788 21.3316
1.67481 -1.01259 20.1554
-1.23179 0.567994 20.0229
-1.52122 1.94532 19.193
-0.765741 0.778267 20.1108
-1.09531 0.719461 19.4476
-1.80709 1.26256 20.1836
-1.47305 0.546493 20.7858
-2.10511 2.2182 20.2487
-0.829782 0.875045 20.6884
-1.94656 1.11384 21.1805
-1.1095 0.334319 21.5119
-1.78214 1.872 22.1326
-0.691724 0.521559 21.3781
-0.938428 0.427399 21.9265
-0.479067 -0.045575 21.7154
-0.592852 0.332409 22.0223
-0.366548 0.115459 21.7575
-0.36327 -0.064694 21.773
-0.21436 -0.217973 21.5565
-0.339576 -0.0715755 21.8152
-0.218237 -0.0763417 21.6362
-0.113991 -0.333744 21.5915
0.0340237 -0.389686 21.3012
-0.0431637 -0.466631 21.3998
0.0641605 -0.160647 21.4549
0.0175532 -0.535615 21.3905
1.62225 -2.26703 18.8196
0.0162645 -2.74086 19.1259
-0.000888405 -4.38749 15.6619
0.00587408 -1.44915 18.584
0.0242352 -6.18633 21.8921
1.0397 -1.48383 22.366
0.0125677 -2.01803 22.2069
0.000727124 -0.742624 18.4622
0.139127 -0.0880322 20.3163
0.00393985 -0.540529 21.8992
-0.000376021 -0.190288 17.2711
-0.272946 0.215188 20.2419
0.00062412 0.0013173 22.0643
0.00139841 0.577509 17.5832
-0.787109 1.36795 19.4846
0.00508566 0.916049 21.8122
0.015764 -0.226309 2.21779
0.0472164 1.30185 15.177
-1.3557 2.02168 17.7845
0.0454705 1.82975 21.7165
0.198303 1.01439 4.03795
0.0263457 2.32281 13.7255
4.20316 -0.754666 15.3217
-0.0213517 4.62439 12.4671
-0.00946747 -0.696474 16.5788
0.649983 -2.04277 1.20696
-0.192091 0.894393 -2.15211
-0.109102 1.2949 -2.91765
-0.907164 -0.766242 2.54017
-0.195659 1.004 -0.979227
0.192674 2.04281 -4.51202
1.50611 1.98881 19.1691
-0.0169542 1.43762 19.7604
-0.0150558 1.69823 18.408
-0.0280744 3.5502 19.4022
2.09745 2.26556 20.227
-0.0294007 1.80213 20.4839
-0.0429334 4.69354 20.3915
1.77596 1.92783 22.1527
-0.0213416 1.12674 21.5347
-0.0203323 1.43182 22.3521
0.57951 0.358603 22.032
-0.0086207 0.300843 21.9138
-0.017265 0.361331 21.9
0.324787 -0.0287987 21.807
-0.00256862 -0.0736383 21.6338
-0.0462375 -0.00741387 21.6036
0.0740477 -0.400381 21.3908
0.0212564 -0.0919668 21.2818
0.00507713 -0.498332 21.4058
1.14998 -0.718699 20.0723
1.14873 -1.20069 19.911
2.06286 -1.20389 19.2524
0.877119 -0.73815 19.5693
2.17237 -1.94841 20.5491
1.071 -0.836171 21.2293
0.90342 -1.14914 21.4712
1.44751 -1.67894 22.2317
0.367708 -0.744851 21.8261
0.257148 -0.497882 21.5742
0.125748 -0.386842 21.6679
-0.132452 -0.772497 21.3731
-0.150682 -0.314618 21.7892
-0.217728 -0.236806 21.7862
-0.23936 0.00069453 21.8637
-0.478685 -0.261287 21.0866
-0.844421 0.33699 21.9818
-0.857697 0.0934434 21.7428
-0.738392 0.604756 21.8299
-1.69313 0.408697 19.6707
-1.55895 0.905354 21.3963
-1.34793 0.204254 21.6309
-1.12074 0.846258 21.447
-2.48719 0.736958 19.2708
-1.87508 1.18009 20.2554
1.78762 -0.32726 19.8636
3.00978 0.657158 18.8624
1.42859 -0.374421 18.9941
5.24503 -0.794631 20.3759
1.84533 -0.627565 21.3293
3.20044 -0.0332415 21.5552
1.41095 -1.54238 20.2353
0.883065 -0.739155 21.7584
2.52747 -0.737821 22.1632
0.359266 -0.923861 19.0178
0.161946 -0.623307 22.0073
0.872063 -0.516677 21.4989
-0.773326 -0.550261 17.1987
-0.602837 -0.846608 21.813
0.286141 -0.633765 19.9134
-1.09105 -0.976024 16.2855
-1.16114 -0.95837 21.9238
-0.417654 -1.19859 20.2253
-2.00802 -1.12289 15.8806
1.24391 0.587385 20.0146
0.763124 0.805787 20.0958
1.09918 0.743776 19.4253
1.81495 1.29364 20.1699
1.49416 0.56495 20.7843
0.826101 0.911086 20.6811
1.96402 1.15112 21.1751
1.12589 0.352391 21.5145
0.687628 0.555023 21.3878
0.948038 0.4462 21.9403
0.493609 -0.0289643 21.7247
0.372771 0.126204 21.7896
0.372962 -0.0516086 21.7797
0.215382 -0.222911 21.61
0.24513 -0.0726369 21.5413
0.158414 -0.292758 21.5838
-0.00884841 -0.399993 21.4129
-0.0539224 -0.159754 21.4362
0.0272973 -0.543393 21.3164
-1.54804 -1.33186 19.6125
-1.13247 -1.36337 21.781
-0.00716916 -0.455807 21.758
0.407213 -0.0654602 21.9472
1.20974 0.562392 21.8283
1.69837 0.772451 21.3955
-3.02466 -0.517237 18.7395
-2.988 -1.41212 22.4669
-0.823518 -1.52928 19.3973
0.0786227 -0.301998 18.0383
0.829979 -0.938748 18.2666
1.42295 -0.947713 20.0982
-1.53011 1.11183 19.698
-1.92727 1.1821 20.6393
-1.54282 0.855185 21.7735
-0.5989 0.117151 21.8857
-0.240782 -0.19496 21.6448
-0.00270839 -0.508074 21.458
0.0156973 -3.61385 17.9578
0.00823757 -1.77879 20.7512
0.000640474 -0.356507 17.4048
-0.000370319 0.0185059 17.1449
0.0159926 0.948674 16.1559
0.0716131 1.71095 14.2065
-0.0111251 -0.886525 10.6206
-0.0803472 -0.85099 -1.10355
-0.176745 2.11821 -4.49993
-0.0236584 2.9667 18.6094
-0.0317824 3.62465 19.5436
-0.0270945 3.09312 22.4037
-0.0168168 0.677197 22.1079
-0.0417492 0.196979 21.7827
-0.0522879 -0.311327 21.6889
1.51935 -1.30689 19.6426
1.13977 -1.34028 21.7497
0.0140275 -0.467127 21.7535
-0.404132 -0.0747135 21.9477
-1.25394 0.691679 21.616
-1.89871 1.11057 21.0959
3.03604 -0.513074 18.7318
2.97816 -1.4069 22.4639
0.830398 -1.51272 19.5005
-0.0722309 -0.334825 18.1897
-0.849183 -0.76431 16.5336
-1.43905 -0.914438 17.0986
1.52863 1.13668 19.6792
1.94508 1.21575 20.6271
1.56725 0.891349 21.7858
0.602158 0.130288 21.895
0.26283 -0.175702 21.6534
0.0156311 -0.553062 21.4145
-2.26195 -0.470084 2.03024
-0.0421557 -0.233605 0.899147
-0.045424 0.0140484 0.370915
0.000767856 -0.02693 0.0219811
-0.00625217 0.0696884 0.371415
0.023003 0.00552177 1.00536
-1.18155 0.337871 0.923308
-0.025559 0.435976 0.888422
-0.628254 0.000126698 1.15019
-0.00688038 -0.045795 0.0873336
-0.0172181 -0.00059995 0.0152416
0.00658313 0.0122441 0.612289
0.0421368 -0.233964 0.901141
2.28275 -0.474091 2.04792
0.0450665 0.0138086 0.368434
0.00548604 0.0679341 0.353612
-0.000795559 -0.0269974 0.0220247
-0.0236549 0.00529054 1.00533
0.0257467 0.432714 0.886375
1.18557 0.339815 0.927842
0.627793 -0.000275065 1.14611
0.0171178 -0.000530926 0.0151835
0.007301 -0.0454601 0.0855059
-0.00640421 0.0124053 0.609855
0.0130138 -0.022662 0.804099
0.0458832 0.027458 1.71047
0 0 0
0 0 0
0.0177306 0.00741624 0.754637
0.0588963 -0.00844647 1.92911
0.000233857 0.00594991 0.0117077
0 0 0
-0.231907 -0.0327817 0.122767
-0.000752635 0.000123546 0.0172774
-0.00261713 0.00140367 0.0360755
-0.00626471 0.00260257 0.00605508
0.00965884 0.0297104 0.094072
0 0 0
0.000257123 0.000989761 0.0016859
2.61688e-07 1.04129e-07 7.35645e-06
-0.014677 -0.0251065 0.83017
0 0 0
-0.0457329 0.0280064 1.70768
0 0 0
-0.0178562 0.00731428 0.754675
0 0 0
-0.0589766 -0.00839644 1.92799
-0.000230607 0.00601073 0.0117639
0.233228 -0.0328405 0.12329
0.00649766 0.00269561 0.00626946
0.000757294 0.000124689 0.0175701
0.00277113 0.00141983 0.0378631
-0.00966593 0.0297689 0.0940621
1.59216e-07 -6.35071e-08 -4.50282e-06
0 0 0
-0.00028394 0.00109347 0.00186238
-0.000167324 -6.32269e-05 0.00217857
0 0 0
1.80306e-08 4.51691e-07 -9.07305e-06
-0.000159613 -0.358201 0.0426401
-1.59538e-06 0.000152423 0.000812726
0 0 0
3.50148e-18 -6.0898e-18 4.03005e-17
-0.00920368 -0.0286147 0.00111934
-6.51816e-08 -5.98322e-08 -2.63853e-05
-8.8738e-05 -0.0855688 0.0235694
4.67875e-08 0.000136759 0.00128354
3.19144e-06 4.74903e-08 8.20172e-05
0 0 0
-1.32739e-09 1.51466e-06 8.52861e-06
-0.177244 -0.341776 0.806502
-0.00117828 0.000142256 0.00107749
-2.90296e-07 -0.000428277 5.0356e-05
-1.25185e-07 -1.30899e-05 0.00034859
1.72056e-06 6.01865e-06 2.84467e-05
0.000143815 3.41258e-06 0.00332533
0 0 0
0.000172077 -6.76539e-05 0.00220991
0 0 0
1.7755e-06 0.000161453 0.000858884
0.00942235 -0.0293667 0.00115197
0 0 0
-3.1312e-06 4.6791e-08 8.04996e-05
-4.64236e-08 0.000135551 0.00127479
0.00117317 0.000141745 0.00107387
0.177131 -0.341895 0.806866
-0.000145638 3.43863e-06 0.0033243
-3.78231e-06 1.34739e-05 6.38248e-05
1.11216e-06 -1.57057e-05 -6.81489e-05
0 0 0
0.0140191 -0.0464969 0.245709
0.000567582 0.0122121 0.0711261
0 0 0
-2.17255e-07 -9.35268e-09 -3.84247e-05
0.000319366 0.00396765 0.00932168
0 0 0
4.4301e-08 1.55545e-09 7.65225e-06
-1.31062e-07 -9.57356e-09 -3.06671e-05
0.0504793 0.16423 0.31294
-0.0058654 0.0154101 0.0856783
0 0 0
-0.000124575 0.285082 0.457908
-3.70539e-07 5.88547e-06 0.000178492
-6.55588e-07 -1.27382e-06 -0.000114975
0 0 0
-1.13463e-06 -1.60076e-05 -6.95067e-05
-0.0139681 -0.046509 0.245606
-0.000552106 0.0121382 0.0711793
-0.00032366 0.00405959 0.00949506
0 0 0
0.00556921 0.0146248 0.0814585
-0.0501482 0.16351 0.312604