# vtk DataFile Version 2.0
tri_press
ASCII
DATASET UNSTRUCTURED_GRID
POINTS 3682 float
-0.775 0.425 -1.72257
-0.815 0.385 1.68435
-0.761401 1.035 -1.545
-0.605 1.6513 1.585
0.775 0.425 -1.72257
0.815 0.385 1.68435
0.761397 1.035 -1.545
0.605 1.6513 1.585
-0.825027 0.374973 -0.58693
-0.825994 0.374006 0.54871
-0.734626 1.26579 -0.501667
-0.698492 1.48722 0.541667
0.825027 0.374973 -0.58693
0.825994 0.374006 0.54871
0.734601 1.26577 -0.501667
0.698493 1.48723 0.541667
-1.53341 -0.107411 -2.63046
-1.5451 -0.0344127 -1.75892
-1.57382 -0.0767111 -0.620893
-1.56886 -0.134306 0.535711
-1.54939 -0.139318 1.6753
-1.55016 -0.077871 2.55451
-1.55941 0.0111796 3.41953
-1.53544 0.293624 -2.57486
-1.54197 0.397266 -1.7134
-1.57109 0.398662 -0.593336
-1.5533 0.406078 0.535038
-1.5192 0.434924 1.65687
-1.53471 0.498486 2.53478
-1.5539 0.581274 3.40281
-1.52861 1.02039 -2.43775
-1.51868 1.11506 -1.57248
-1.50134 1.29971 -0.515339
-1.44837 1.49348 0.53526
-1.3754 1.63623 1.59417
-1.45795 1.69049 2.47589
-1.52356 1.74387 3.3588
-1.52297 2.30002 -2.30149
-1.51534 2.43249 -1.45004
-1.49694 2.69432 -0.422832
-1.46994 2.99179 0.584483
-1.45547 3.21843 1.61266
-1.47702 3.32774 2.46613
-1.51526 3.39808 3.33896
-0.763959 -0.0906354 -2.63642
-0.767494 -0.0105028 -1.76761
-0.799019 -0.0843132 -0.619727
-0.804717 -0.161487 0.54738
-0.798585 -0.178584 1.6957
-0.809685 -0.104766 2.56835
-0.82124 -0.00493852 3.42754
-0.77055 0.29918 -2.5767
-0.818347 0.476708 2.54619
-0.827211 0.569127 3.40885
-0.769012 0.987935 -2.42634
-0.758928 1.69328 2.47405
-0.811977 1.74422 3.35841
-0.769297 2.26956 -2.29021
-0.765937 2.39952 -1.43761
-0.756471 2.6765 -0.415337
-0.744299 2.996 0.583584
-0.742187 3.23319 1.60624
-0.764535 3.34133 2.45971
-0.797972 3.40775 3.3343
0.783133 -0.0906379 -2.63642
0.797741 -0.0105042 -1.76761
0.820341 -0.084314 -0.619727
0.819166 -0.161487 0.54738
0.802471 -0.178584 1.6957
0.725682 -0.104766 2.56835
0.679831 -0.00493884 3.42754
0.770211 0.299178 -2.5767
0.687283 0.476707 2.54619
0.653301 0.569127 3.40885
0.756834 0.987932 -2.42634
0.615317 1.69328 2.47405
0.619736 1.74422 3.35841
0.740729 2.26956 -2.29021
0.734788 2.39951 -1.43761
0.722048 2.67649 -0.415337
0.696927 2.996 0.583584
0.665047 3.23319 1.60624
0.646627 3.34133 2.45971
0.632597 3.40775 3.3343
1.55604 -0.107418 -2.63046
1.57018 -0.0344191 -1.75892
1.59619 -0.0767157 -0.620893
1.59307 -0.134307 0.535711
1.56076 -0.139319 1.6753
1.49043 -0.0778716 2.55451
1.43843 0.0111784 3.41953
1.54166 0.293617 -2.57486
1.54823 0.397258 -1.7134
1.57938 0.398655 -0.593337
1.56995 0.406078 0.535038
1.52852 0.434924 1.65687
1.45084 0.498486 2.53478
1.40806 0.581273 3.40281
1.52085 1.02038 -2.43775
1.51684 1.11504 -1.57248
1.50312 1.29969 -0.515339
1.45833 1.49348 0.53526
1.37618 1.63623 1.59417
1.35931 1.69049 2.47589
1.35888 1.74387 3.3588
1.49749 2.3 -2.30149
1.4883 2.43248 -1.45004
1.46789 2.6943 -0.422833
1.43104 2.99178 0.584483
1.38863 3.21843 1.61266
1.36895 3.32773 2.46613
1.35932 3.39808 3.33896
-0.746333 0.73 -1.61192
0 0.410898 -1.73667
-0.810739 0.389261 -1.15475
-0.768322 1.01815 1.693
0 0.373139 1.69621
-0.820238 0.379762 1.11653
-1.99676e-06 1.07484 -1.58484
-0.734807 1.13719 -1.02333
0 1.66471 1.59841
-0.670147 1.58766 1.06333
0.746216 0.73 -1.6118
0.810796 0.389204 -1.15475
0.7681 1.01815 1.69278
0.820231 0.379769 1.11653
0.734793 1.13718 -1.02333
0.670148 1.58767 1.06333
-0.820397 0.379603 -0.01911
-0.830285 0.820382 -0.544298
0 0.371085 -0.58693
-0.835688 0.930615 0.545188
0 0.370914 0.54871
-0.723552 1.3835 0.02
-1.27503e-05 1.38523 -0.501667
9.95264e-07 1.71111 0.541667
0.820397 0.379603 -0.01911
0.830274 0.820371 -0.544298
0.835687 0.930617 0.545188
0.723554 1.38351 0.02
-0.896195 0.775191 -1.08904
0.896195 0.775185 -1.08904
0 0.389504 -1.15475
-7.37354e-06 1.15123 -1.02333
-9.98378e-07 0.73 -1.72849
-0.837697 0.875499 0.000445038
0.837697 0.875494 0.000445038
0 0.371011 -0.01911
-5.87753e-06 1.70819 0.02
-0.826597 0.974383 1.08993
0.826595 0.974383 1.08993
0 0.370949 1.11653
4.97632e-07 1.71116 1.06333
0 1.01815 1.77851
-0.802258 0.5775 -1.70883
-0.3875 0.411671 -1.7359
-0.802795 0.397205 -1.43866
-0.798519 0.701575 1.69553
-0.4075 0.374949 1.6944
-0.819933 0.380067 1.40044
-0.760359 0.8825 -1.58495
-0.380701 1.07213 -1.58213
-0.75979 1.09778 -1.28417
-0.706226 1.33472 1.65856
-0.3025 1.66246 1.59616
-0.656248 1.63816 1.32417
0.3875 0.411646 -1.73592
0.802304 0.5775 -1.70888
0.802745 0.397255 -1.43866
0.4075 0.375711 1.69364
0.798493 0.701575 1.69551
0.819946 0.380054 1.40044
0.380698 1.07212 -1.58212
0.760358 0.8825 -1.58495
0.759776 1.09777 -1.28417
0.3025 1.66247 1.59617
0.706226 1.33472 1.65856
0.656246 1.63816 1.32417
-0.818827 0.381173 -0.87084
-0.815219 0.384781 -0.30302
-0.828398 0.597306 -0.565614
-0.412717 0.372623 -0.58693
-0.821388 0.378612 0.83262
-0.825989 0.374011 0.2648
-0.834553 0.650455 0.546949
-0.413045 0.372363 0.54871
-0.697367 1.16414 -0.7625
-0.80731 1.05551 -0.522983
-0.732033 1.32759 -0.240833
-0.386404 1.36368 -0.501667
-0.683911 1.53704 0.8025
-0.770717 1.21073 0.543428
-0.713037 1.43738 0.280833
-0.405215 1.7111 0.541667
0.819649 0.380351 -0.87084
0.412717 0.372623 -0.58693
0.815223 0.384777 -0.30302
0.828397 0.597299 -0.565614
0.821376 0.378624 0.83262
0.413045 0.372363 0.54871
0.825989 0.374011 0.2648
0.834556 0.650454 0.546949
0.697322 1.1641 -0.7625
0.386389 1.36369 -0.501667
0.807312 1.05551 -0.522983
0.732033 1.32759 -0.240833
0.683907 1.53703 0.8025
0.405216 1.7111 0.541667
0.770716 1.21074 0.543428
0.713044 1.43739 0.280833
-0.895805 0.752596 -1.35048
-0.373167 0.73 -1.70908
0 0.397664 -1.44571
-4.99189e-07 0.570449 -1.86138
-0.898048 0.582226 -1.1219
-0.405369 0.389501 -1.15475
-0.81333 0.996266 1.39146
-0.384161 1.01815 1.76614
0 0.3709 1.40637
0 0.695644 1.85255
-0.897129 0.677072 1.10323
-0.410119 0.370954 1.11653
-4.68515e-06 1.11486 -1.30409
-1.49757e-06 0.902421 -1.69325
-0.863845 0.95619 -1.05619
-0.367407 1.14961 -1.02333
2.48816e-07 1.70148 1.33087
0 1.34143 1.72409
-0.751983 1.28102 1.07663
-0.335073 1.71116 1.06333
0.895805 0.752593 -1.35042
0.373108 0.73 -1.70894
0.898048 0.582195 -1.1219
0.405398 0.389501 -1.15475
0.81325 0.996267 1.39135
0.38405 1.01815 1.76615
0.897129 0.677076 1.10323
0.410115 0.370954 1.11653
0.863842 0.956182 -1.05619
0.367393 1.14961 -1.02333
0.751973 1.28102 1.07663
0.335074 1.71116 1.06333
-0.832661 0.625744 -0.00933246
-0.4116 0.372504 -0.01911
-0.887671 0.797787 -0.81667
-0.835264 0.847941 -0.271927
0 0.381353 -0.87084
0 0.371065 -0.30302
-0.840065 0.903057 0.272817
-0.822922 0.952499 0.81756
0 0.370958 0.2648
0 0.370964 0.83262
-0.805408 1.14189 0.0102225
-0.441126 1.70454 0.02
-1.00619e-05 1.17322 -0.7625
-9.31393e-06 1.61024 -0.240833
-2.44113e-06 1.7111 0.280833
7.46448e-07 1.71116 0.8025
0.832659 0.625743 -0.00933246
0.4116 0.372504 -0.01911
0.887654 0.797778 -0.81667
0.835268 0.847932 -0.271927
0.840062 0.903055 0.272817
0.822922 0.9525 0.81756
0.805405 1.14189 0.0102225
0.441091 1.70448 0.02
-0.897392 0.579863 -1.39457
-0.897448 0.589952 -0.843755
-0.816336 0.999639 -0.789585
-0.861148 0.919345 -1.31732
0.897392 0.579847 -1.39454
0.857724 0.919341 -1.31729
0.816331 0.999626 -0.789585
0.897449 0.589933 -0.843755
-0.396435 0.397581 -1.44219
0.396449 0.397581 -1.44219
0.408956 0.381353 -0.87084
-0.408942 0.381353 -0.87084
-0.374054 1.11346 -1.29413
-0.367363 1.17161 -0.7625
0.367343 1.17161 -0.7625
0.374045 1.11346 -1.29413
-0.380334 0.573975 -1.83992
-0.376934 0.89246 -1.67349
0.376903 0.89246 -1.67349
0.380304 0.573975 -1.83992
-0.826637 0.613471 -0.287473
-0.838584 0.635611 0.268808
-0.782338 1.17345 0.276825
-0.807777 1.09941 -0.25638
0.826635 0.613467 -0.287473
0.807774 1.09941 -0.25638
0.782323 1.17344 0.276825
0.838582 0.635611 0.268808
-0.412148 0.372584 -0.30302
0.412148 0.372584 -0.30302
0.412325 0.372428 0.2648
-0.412325 0.372428 0.2648
-0.440287 1.58716 -0.240833
-0.424809 1.7111 0.280833
0.424807 1.7111 0.280833
0.440276 1.58716 -0.240833
-0.896074 0.664691 0.82509
-0.896494 0.689324 1.39595
-0.742042 1.30787 1.35782
-0.7616 1.24497 0.81003
0.896074 0.664694 0.82509
0.761597 1.24497 0.81003
0.74181 1.30787 1.35776
0.896494 0.689326 1.3959
-0.411558 0.370968 0.83262
0.411556 0.370969 0.83262
0.408808 0.370906 1.40341
-0.408809 0.370906 1.40341
-0.342159 1.71116 0.8025
-0.318787 1.70131 1.32752
0.318787 1.70131 1.32752
0.342161 1.71116 0.8025
-0.39583 0.69861 1.83969
0.395775 0.69861 1.83969
0.343275 1.33808 1.71613
-0.34333 1.33808 1.71605
-0.791422 0.50125 -1.7185
-0.58125 0.413211 -1.73436
-0.79944 0.40056 -1.58061
-0.813247 0.543287 1.69643
-0.61125 0.380425 1.68892
-0.820257 0.379743 1.5424
-0.76575 0.95875 -1.56985
-0.571051 1.06785 -1.57785
-0.768525 1.07432 -1.41458
-0.659108 1.49301 1.62528
-0.45375 1.65796 1.59166
-0.648645 1.66275 1.45458
0.58125 0.413196 -1.73437
0.791461 0.50125 -1.71854
0.799403 0.400597 -1.58061
0.61125 0.380598 1.68875
0.813202 0.543287 1.69638
0.820286 0.379713 1.5424
0.571047 1.068 -1.578
0.765719 0.95875 -1.56982
0.768525 1.07432 -1.41458
0.45375 1.65796 1.59166
0.659108 1.49301 1.62528
0.648649 1.66275 1.45458
-0.822068 0.377932 -0.728885
-0.81999 0.38001 -0.444975
-0.826459 0.486267 -0.576272
-0.619126 0.373289 -0.58693
-0.826162 0.373838 0.690665
-0.825993 0.374007 0.406755
-0.829915 0.51241 0.54783
-0.61961 0.373003 0.54871
-0.678476 1.17745 -0.632083
-0.775806 1.16307 -0.512325
-0.736194 1.29956 -0.37125
-0.572122 1.33795 -0.501667
-0.6912 1.51213 0.672083
-0.734115 1.34873 0.542547
-0.705794 1.46233 0.41125
-0.606978 1.70941 0.541667
0.824999 0.375001 -0.728885
0.619126 0.373291 -0.58693
0.81999 0.38001 -0.444975
0.826456 0.486264 -0.576272
0.826161 0.373839 0.690665
0.61961 0.373004 0.54871
0.825993 0.374007 0.406755
0.829913 0.512411 0.54783
0.678162 1.17713 -0.632083
0.572062 1.33786 -0.501667
0.775824 1.16307 -0.512325
0.736194 1.29956 -0.37125
0.691202 1.51213 0.672083
0.606978 1.70941 0.541667
0.734098 1.34873 0.542547
0.705796 1.46233 0.41125
-0.801191 0.65375 -1.68727
-0.753412 0.80625 -1.5985
-0.886522 0.741298 -1.4812
[...]
POINT_DATA 3682
SCALARS point_scalars float 1
LOOKUP_TABLE default
-65.2248
-68.928
-98.4852
-49.9791
-65.7715
-68.9228
-98.0937
-49.9469
-53.0946
-35.6521
-85.5074
-62.673
-53.0037
-35.6561
-85.4221
-62.6268
-23.9794
-137.901
-58.7492
-27.8256
-63.758
-69.4749
-52.2152
-36.6271
-135.643
-64.6141
-35.5378
-66.4372
-53.3382
-51.2286
3.59457
-115.439
-72.0135
-59.5079
-48.8359
-46.309
-46.3753
-105.082
-74.6261
-126.286
-64.942
-50.3806
-50.7157
-51.5798
-56.9229
-161.433
-54.8742
-40.146
-63.4897
-52.2989
-52.2989
65.7307
-50.4687
-50.319
162.598
-42.3959
-43.0857
-90.7057
-45.5583
-134.836
-64.942
-49.468
-46.257
-46.257
-56.4853
-161.724
-57.6075
-40.1466
-63.5371
-52.2964
-52.1907
65.6162
-50.3349
-50.4693
163.116
-41.6488
-41.949
-100.173
-44.4271
-135.03
-66.2871
-49.4689
-44.9846
-44.4699
-24.6734
-138.814
-59.2245
-27.8567
-63.6238
-69.443
-52.1953
-38.1795
-135.638
-64.6936
-35.5855
-66.4323
-53.3124
-51.2062
3.53384
-114.936
-72.0102
-59.399
-48.8145
-46.1728
-46.2887
-104.663
-74.58
-123.242
-65.0817
-50.3889
-50.6816
-46.238
6.42177
-151.182
-60.5611
-51.9815
-60.8568
-47.8475
-97.8266
-40.4488
-38.4407
-52.7124
6.38061
-60.54
-51.9597
-47.8476
-40.4732
-52.7091
-37.3842
-50.2252
-51.3198
-47.7954
-43.5599
-81.3599
62.156
-76.4854
-37.3799
-50.2204
-47.7946
-81.3341
-73.2476
-73.246
-66.8603
4.91727
184.58
-49.1268
-49.1351
-43.6324
-143.373
-54.5221
-54.5073
-48.6717
-55.6196
-47.7892
0.916741
-176.256
-86.3712
-54.8082
-62.5236
-52.8779
-40.8426
-103.079
-66.654
-46.5262
-41.0542
-49.5605
-176.274
0.913398
-86.2401
-62.5845
-54.7913
-52.8696
-102.471
-40.3488
-66.5957
-41.0585
-46.487
-49.5684
-50.0892
-39.6204
-49.8211
-50.6609
-46.3035
-38.0823
-38.7534
-42.7323
-28.5493
-62.7475
-98.6811
53.4685
-57.342
-57.74
-71.0505
-73.71
-49.9832
-50.6738
-39.607
-49.818
-46.289
-42.7326
-38.0783
-38.7183
-28.5276
53.4248
-62.736
-98.6392
-57.3106
-73.7102
-57.7236
-71.0185
-113.409
168.457
-89.656
189.374
-70.0454
-65.5668
-57.5373
-47.8425
-53.171
-50.0644
-52.7575
-48.4882
-26.3655
158.632
-67.5778
-3.3569
-47.7678
-34.7251
-52.8061
-55.3273
-113.369
168.472
-70.0049
-65.5597
-57.5012
-47.8367
-52.737
-48.5022
-67.5789
-3.33872
-52.8384
-55.322
-41.9291
-42.7097
-59.8356
-48.8327
-55.7966
-46.3835
-48.8031
-48.0357
-42.8055
-45.5655
-65.7264
-143.505
25.769
-44.1536
-98.3463
-64.1771
-41.933
-42.7075
-59.8395
-48.8276
-48.8143
-48.0448
-65.7087
-143.465
-103.127
-57.584
-59.0115
-90.6209
-103.141
-90.1165
-58.9968
-57.5822
-89.2892
-89.2625
-54.6252
-54.6342
-31.7025
16.3239
16.3444
-31.6638
186.212
152.425
152.582
186.234
-42.6555
-41.6673
-61.3068
-67.002
-42.6569
-66.9673
-61.2829
-41.6683
-45.4305
-45.4313
-41.9799
-41.9816
-28.4851
-94.4621
-94.4563
-28.767
-49.1146
-57.7986
-51.8826
-53.8625
-49.0521
-53.887
-51.8582
-57.7507
-45.2512
-45.2551
-53.331
-53.2851
-62.8263
-48.5945
-48.5926
-62.8133
-49.9798
-49.9701
-38.9192
-38.9152
11.64
-172.937
-126.637
-58.6397
-63.4655
-58.6868
-65.3287
-92.6592
-90.9776
-45.3545
-43.498
-49.8317
-172.556
11.6627
-126.597
-63.4656
-58.6137
-58.6761
-95.5986
-64.1294
-89.9153
-43.5036
-45.3403
-49.8387
-50.5991
-44.643
-51.5556
-49.795
-43.1849
-37.9838
-33.3622
-41.7675
-27.8106
-86.0735
-108.767
19.0529
-59.9423
-60.0038
-66.3785
-67.4553
-51.2814
-49.8316
-44.6087
-51.5457
-43.1994
-41.7676
-37.9806
-33.3529
-27.685
19.0013
-86.0958
-108.736
-59.898
-67.4505
-59.9537
-66.3374
-4.59443
-8.50421
-146.323
132.837
-149.965
-149.924
-114.97
73.3626
-69.6138
-53.9954
-65.7355
-63.5416
-53.4835
-48.4641
-54.1025
-47.9816
-61.335
-61.3769
-56.293
-51.3412
-49.8116
-46.4654
-51.2244
-48.2178
-95.0035
-95.0345
-51.9819
85.1984
-50.2656
-32.092
-64.4694
-14.7799
-39.1433
-39.149
-43.5519
-33.2967
-50.8058
-54.5067
-52.8379
-54.8326
-4.72688
-8.69191
-146.212
132.952
-69.6109
-53.8384
-65.674
-63.5197
-53.4685
-48.4241
-54.0785
-47.9641
-49.8086
-46.4626
-51.2108
-48.2284
-50.2257
-32.0923
-64.4425
-14.754
-50.8069
-54.4904
-52.8389
-54.8265
-38.3123
-37.93
-39.5566
-41.4139
-49.4778
-53.4206
-53.9027
-49.0329
-51.1459
-51.15
-54.2152
-48.5739
-43.2082
-53.4537
-48.3992
-47.6309
-43.3969
-43.3972
-43.0078
-44.4449
-87.6117
-76.0963
-72.3477
-126.795
61.3448
61.3523
37.9359
37.867
-75.7397
-75.7364
-85.5539
-69.6525
-38.3046
-37.9265
-39.5587
-41.4088
-49.4752
-53.4094
-53.9045
-49.0301
-43.2093
-53.4694
-48.3828
-47.6297
-87.5884
-76.0686
-72.3095
-126.762
-86.9565
-72.3899
-73.2669
-64.4577
-86.934
-72.3728
-73.2769
-64.4598
-75.8085
-66.493
-66.4874
-60.4032
-9.93457
2.96305
2.97009
15.4272
180.66
203.951
180.215
180.718
-44.7725
-49.0465
-49.0111
-55.8415
-44.7787
-49.0474
-49.0245
-55.8515
-43.4071
-44.7472
-42.9977
-43.4061
-142.654
-132.282
-118.528
-142.647
-57.0153
-53.8125
-53.3083
-50.7465
-56.9806
-53.7885
-53.3273
-50.764
-50.7209
-48.6268
-48.6365
-46.9763
-51.87
-55.5335
-55.5309
-59.5829
-48.0063
-47.9772
-41.0262
-48.0002
-134.506
151.845
-118.797
69.3597
-96.8592
-88.3095
-63.6399
-49.4043
-56.7682
-50.8595
-56.1564
-53.463
-136.955
125.913
-59.6085
73.6442
-83.5173
-40.6919
-49.8655
-42.2014
-45.5136
-37.9242
-50.7339
-49.6643
-118.771
69.3323
-134.507
151.923
-97.274
-88.2567
-56.8524
-50.8508
-63.6411
-49.4104
-56.127
-53.4949
-59.5777
74.1271
-137.006
125.867
-83.3552
-40.6199
-45.5088
-37.9515
-49.8258
-42.197
-50.7321
-49.6642
-54.8457
-53.7344
-40.4598
-43.9779
-58.603
-44.8609
-53.4744
-47.6946
-51.2351
-45.022
-39.4713
-40.8678
-41.0072
-35.6855
-42.2099
-44.0041
-62.391
2.10764
-59.3879
-66.2258
-79.7615
-90.972
26.2758
36.9468
-55.6886
-60.8971
-59.5505
-55.5335
-65.9712
-84.4417
-81.962
-67.598
-54.8414
-53.7337
-53.492
-47.7004
-40.4619
-43.9734
-58.6212
-44.8616
-51.2064
-45.0245
-42.2091
-44.0061
-39.4694
-40.8647
-40.9967
-35.9598
-62.3675
2.1249
26.3026
36.9487
-59.3683
-66.206
-79.7163
-90.831
-55.6558
-60.8802
-81.9605
-67.5834
-59.5259
-55.535
-65.9344
-84.4288
-108.264
-113.169
189.086
168.858
-89.2525
-89.2395
191.153
191.168
-82.8996
-61.6154
-74.5892
-59.2287
-61.3227
-54.0327
-48.988
-43.1598
-53.2188
-53.1838
-50.1583
-50.1516
-51.4147
-54.7489
-46.7326
-50.6332
-26.7368
-26.7219
163.696
163.744
-62.0597
-76.2771
-17.4616
6.58483
-48.0662
-48.0651
-35.922
-35.9289
-52.596
-53.0458
-58.6973
-52.1575
-108.253
-113.176
168.91
188.757
-82.8375
-61.5961
-74.5687
-59.2322
-54.0088
-61.2786
-48.9845
-43.1575
-51.3959
-54.7205
-46.7403
-50.6583
-76.4535
-62.0424
6.59936
-17.4407
-53.0825
-52.6068
-52.1548
-58.6884
-42.0377
-41.8436
-43.7799
-42.1309
-58.6848
-59.2817
-45.2036
-55.7832
-55.335
-55.3375
-46.1509
-46.1514
-44.5085
-53.8002
-44.2068
-51.6623
-42.6165
-42.6174
-45.4632
-45.4658
-63.3973
-66.4677
-106.601
-116.556
23.6514
23.6554
-40.9902
-41.0046
-97.4511
-97.4487
-63.823
-63.8184
-42.0402
-41.8481
-43.7784
-42.1287
-59.2725
-58.6803
-45.2042
-55.7652
-53.8409
-44.5299
-44.1569
-51.6838
-66.4338
-63.3893
-116.54
-106.861
-136.953
-77.74
-85.8765
-146.923
-58.8936
-56.0662
-63.4339
-58.0748
-68.0886
-61.9205
-65.2606
-54.8781
-123.563
-133.747
-86.932
-69.1357
-136.995
-146.849
-85.8451
-77.6089
-123.764
-69.0834
-86.9633
-135.612
-68.0157
-54.8707
-65.2614
-61.8797
-59.092
-58.034
-63.4276
-56.0848
-119.66
-114.79
-75.3358
-72.5993
-119.632
-72.5627
-75.3269
-114.772
-52.0186
-54.1101
-60.0779
-57.4362
-51.9575
-57.4487
-60.0817
-54.1049
-67.2618
-26.851
-11.423
-52.9584
9.69196
36.503
13.3977
-6.10277
9.70225
-6.08061
13.3956
36.4662
-67.0254
-52.9591
-11.4147
-26.8183
104.142
156.387
201.084
81.0959
70.6528
91.3272
179.236
135.017
71.0388
135.021
179.257
91.2896
103.85
81.1781
201.093
156.365
-43.4602
-39.7224
-44.8566
-46.614
-38.4853
-44.4581
-44.6194
-39.588
-62.8426
-68.8817
-54.8065
-52.5461
-83.1421
-54.9014
-56.1533
-75.9055
-43.4608
-46.6126
-44.8595
-39.7241
-83.1301
-75.8591
-56.1462
-54.8869
-62.7946
-52.4358
-54.8265
-68.8609
-38.4778
-39.5895
-44.6282
-44.4457
-46.5441
-48.4058
-44.5652
-42.3769
-46.5467
-42.3713
-44.5646
-48.408
-41.1001
-42.8011
-42.7745
-40.9375
-41.1018
-40.9417
-42.7756
-42.8016
-17.3537
-115.867
-127.737
38.1335
-74.3687
-84.6851
-117.68
-100.536
-74.3541
-100.547
-117.679
-84.683
-17.6187
38.006
-127.719
-115.854
-29.1456
-50.3363
-49.9612
-42.689
-63.8153
-58.2548
-56.4846
-52.9777
-49.36
-51.77
-55.0546
-51.6369
-57.6496
-52.0917
-52.0752
-54.1032
-29.1947
-42.6951
-49.9946
-50.3204
-57.6012
-54.0893
-52.0991
-52.1153
-49.3506
-51.5886
-55.0301
-51.7759
-63.7683
-52.9583
-56.4531
-58.2519
-43.1316
-44.3273
-46.897
-46.4753
-43.1327
-46.4811
-46.9022
-44.3285
-58.1088
-56.3812
-50.7403
-50.4646
-58.0634
-50.446
-50.7219
-56.3087
-63.7335
-57.4569
-59.3509
-69.114
-47.7042
-44.0139
-51.932
-52.3627
-47.7073
-52.3608
-51.9306
-44.0131
-63.4754
-69.1092
-59.3471
-57.4464
-50.3945
-51.2099
-48.1696
-49.1967
-50.3773
-49.1782
-48.1654
-51.2049
-40.8468
-34.7352
-41.6427
-44.8632
-40.8458
-44.8782
-41.6486
-34.73
-21.6475
-128.32
-146.937
-63.7521
-65.3503
-62.8916
-72.0463
-77.3394
-119.046
-46.6202
-45.2689
-50.7832
-132.258
-21.953
-147.087
-65.387
-63.7247
-62.9058
-77.617
-71.872
-118.718
-45.2523
-46.6046
-50.7719
-57.0428
-47.1897
-53.2274
-49.8578
-34.288
-36.9057
-32.2832
-40.8438
-46.5001
-100.535
-110.196
-26.559
-61.2539
-61.4695
-64.4062
-64.8694
-57.5807
-49.8619
-47.1439
-53.1647
-34.2988
-40.8443
-36.9047
-32.2864
-46.3633
-26.1633
-100.491
-110.174
-61.2054
-64.8085
-61.4177
-64.362
-10.7362
5.36363
-105.094
82.1512
-149.493
-149.48
-133.841
-57.1607
-64.9899
-56.9638
-62.7945
-62.0588
-52.9339
-50.508
-52.517
-48.6146
-61.7106
-61.7385
-58.4786
-53.4791
-48.6926
-47.0678
-49.986
-48.1108
-96.4449
-96.4565
-70.1708
-56.898
-45.3012
-35.8462
-57.7538
-23.6285
-38.6316
-38.6393
-41.462
-35.2832
-51.2782
-53.4687
-52.7982
-53.9072
-10.8542
5.27344
-105.262
81.731
-64.9689
-56.9112
-62.7582
-62.0303
-52.9099
-50.4816
-52.5036
-48.5923
-48.692
-47.0663
-49.9778
-48.1173
-45.2732
-35.8172
-57.7658
-23.6066
-51.2809
-53.4604
-52.7956
-53.901
-39.6002
-37.8631
-38.1645
-40.3724
-49.7406
-51.2454
-51.5883
-49.4288
-51.2797
-51.2813
-52.8258
-49.8833
-45.4983
-50.0372
-48.0309
-47.7139
-43.5216
-43.5217
-43.2417
-43.954
-84.2553
-78.6779
-76.2701
-98.7804
61.6758
61.6782
52.8499
56.0811
-76.2749
-76.2733
-80.6679
-72.8548
-39.5912
-37.8593
-38.1651
-40.365
-49.7375
-51.2368
-51.5859
-49.4258
-45.4974
-50.0401
-48.0039
-47.7142
-84.2393
-78.652
-76.2466
-98.7514
-79.3717
-73.0826
-73.3777
-68.2536
-79.3605
-73.073
-73.3833
-68.2536
-71.1331
-66.7525
-66.7483
-63.1281
-1.55981
4.41466
4.41773
10.4713
183.736
191.787
187.706
183.734
-46.6509
-49.1274
-49.0976
-52.2083
-46.6583
-49.1318
-49.1089
-52.2178
-43.5755
-44.1267
-43.259
-43.5619
-142.978
-157.036
-131.526
-142.978
-55.5996
-54.302
-53.5625
-53.8239
-55.5814
-54.2774
-53.5575
-53.8055
-49.652
-48.6208
-48.6258
-47.7876
-53.8405
-55.5714
-55.5702
-57.529
-47.8391
-48.4454
-44.1412
-47.8362
3.85058
0.182543
-98.4689
111.041
-184.514
-152.856
-140.14
-45.5492
-102.381
-76.2762
-92.6533
-87.7978
-56.346
-53.6165
-61.2354
-50.1538
-62.41
-61.5503
-59.204
-53.1617
-54.573
-51.007
-55.2485
-53.4808
-59.8908
-22.9883
-143.638
73.4928
-105.806
-99.1994
-82.4132
-25.0594
-75.5756
-57.2619
-81.0268
-48.0987
-45.848
-47.605
-49.0777
-43.6256
-42.0602
-39.9932
-43.6836
-38.6867
-48.1417
-49.9111
-50.3909
-50.1408
-184.565
-152.969
-140.128
-45.6483
3.87974
0.223507
-98.6779
111.028
-102.248
-76.1129
-93.0275
-87.7316
-62.4368
-61.6075
-59.3599
-53.1074
-56.3278
-53.5899
-61.2055
-50.1375
-54.5669
-50.9999
-55.2098
-53.5014
-108.412
-99.1948
-82.3229
-25.2284
-62.5682
-22.4678
-142.239
73.4795
-75.529
-57.2038
-80.9039
-48.0494
-42.079
-39.9981
-43.642
-38.6835
-45.8227
-47.5516
-49.0218
-43.6198
-48.1547
-49.9193
-50.3919
-50.1425
-47.9896
-51.7822
-51.4725
-52.6701
-42.0662
-37.9082
-39.5707
-42.4506
-50.3958
-49.4925
-55.2697
-46.5959
-50.2659
-50.905
-52.2237
-49.034
-48.0263
-45.8161
-51.0898
-45.0602
-38.2992
-37.7483
-38.6549
-40.1452
-35.8666
-41.0345
-39.9551
-37.5333
-42.2481
-43.1598
-42.4314
-43.2453
-28.3164
-30.0688
-58.3026
-9.89047
-72.6474
-57.5817
-60.6875
-64.8928
-103.527
-92.197
-87.1188
-139.015
45.879
58.214
41.4638
51.5149
-58.6021
-55.64
-56.4292
-59.8549
-58.4073
-56.542
-58.6828
-56.5878
-68.6313
-73.6477
-68.3251
-77.0506
-71.7759
-75.3477
-77.4095
-70.3932
-47.7959
-51.5118
-51.4822
-52.6743
-50.2888
-50.9125
-52.2513
-49.0434
-42.0455
-37.8999
-39.5689
-42.4386
-50.3931
-49.4835
-55.2643
-46.5964
-48.0212
-45.8137
-51.0745
-45.0596
-42.2483
-43.1601
-42.431
-43.2463
-38.2954
-37.7446
-38.6524
-40.1406
-35.8429
-41.0187
-39.9348
-37.3819
-28.303
-30.0588
-58.2436
-9.87689
45.8736
58.4575
41.4556
51.4593
-72.6637
-57.5678
-60.6709
-64.8789
-103.493
-92.1701
-87.0821
-138.755
-58.5645
-55.617
-56.3923
-59.8525
-71.7861
-75.3439
-77.4099
-70.3845
-58.3717
-56.562
-58.6629
-56.5795
-68.5941
-73.6191
-68.2901
-77.0182
-135.859
-97.0869
-111.568
-113.794
157.862
176.345
175.877
171.266
-100.36
-81.6122
-89.1551
-89.1435
156.261
200.902
190.561
190.57
-68.1267
-71.3153
-75.8218
-65.2011
-64.7011
-65.8511
-69.9626
-61.7968
-55.9416
-57.5101
-61.2387
-55.6762
-47.7202
-48.2113
-48.4012
-45.641
-54.6145
-51.8898
-53.1776
-53.1585
-51.2591
-48.2136
-50.1674
-50.1643
-52.033
-53.3173
-52.0688
-53.6999
-48.3818
-48.5744
-47.5819
-49.5174
-37.1197
-17.4555
-25.738
-25.7331
141.011
167.851
160.355
160.395
-65.4793
-71.8346
-63.8357
-70.4789
-8.26172
0.35523
-9.46334
1.81307
-45.6447
-49.7338
-47.8535
-47.853
-33.0523
-37.4191
-35.0655
-35.0675
-52.8377
-53.1687
-52.7019
-52.8996
-55.1193
-55.4864
-56.9223
-53.8611
-135.745
-97.0623
-111.532
-113.809
157.909
176.375
171.299
175.745
-68.0695
-71.2887
-75.768
-65.172
-64.6867
-65.8452
-69.9526
-61.7959
-55.9058
-57.4763
-55.6398
-61.2188
-47.7105
-48.2022
-48.3898
-45.6325
-52.0151
-53.2955
-52.0505
-53.6764
-48.3952
-48.5872
-47.5924
-49.5362
-65.4501
-71.8415
-70.4699
-63.8198
-8.23801
0.367589
1.84761
-9.44445
-52.8424
-53.2013
-52.9362
-52.7245
-55.113
-55.4825
-53.8574
-56.9153
-40.6664
-43.288
-41.9529
-41.8907
-42.1693
-43.1291
-43.2009
-42.3734
-57.465
-61.7352
-59.4869
-59.6361
-48.8404
-48.9271
-46.733
-51.8558
-54.7928
-58.0862
-55.4911
-55.4935
-47.4103
-45.498
-46.3105
-46.3106
-48.6711
-48.9479
-46.5868
-51.1812
-47.8825
-48.7129
-47.0597
-49.4042
-42.8617
-42.8477
-42.749
-42.7495
-44.9806
-46.2362
-45.543
-45.5444
-69.332
-59.916
-65.1582
-66.2887
-137.771
-142.613
-137.185
-128.298
29.7985
20.5293
25.1641
25.1578
9.26366
-87.8691
-43.5708
-43.5767
-91.3421
-107.093
-98.1079
-98.1067
-66.7802
-61.7874
-64.0649
-64.0627
-40.6697
-43.2929
-41.9561
-41.8953
-42.1659
-43.1276
-43.1989
-42.3712
-57.4682
-61.7389
-59.6364
-59.4873
-48.8343
-48.9254
-46.7317
-51.8463
-48.6768
-48.9621
-51.2141
-46.5447
-47.8837
-48.8039
-46.9697
-49.4187
-69.2959
-59.9289
-66.2566
-65.1463
-137.774
-142.597
-128.231
-137.163
-129.719
-100.018
-106.059
-91.531
-56.4788
-57.1332
-58.9943
-58.1588
-60.3756
-59.1018
-60.445
-59.3259
-106.074
-86.3425
-104.158
-83.1648
-129.728
-100.261
-106.064
-91.4883
-106.415
-86.1315
-103.785
-82.5136
-60.3592
-59.0782
-60.4319
-59.3142
-56.4698
-57.1347
-58.984
-58.1575
-101.331
-88.9947
-89.3934
-80.6339
-101.302
-88.9573
-89.3755
-80.6105
-54.4969
-53.7239
-57.0236
-55.0059
-54.5096
-53.7284
-57.0299
-55.0088
-43.7152
-35.8838
-28.7334
-23.8579
10.575
19.6528
10.8941
20.8969
10.5917
19.6826
10.9041
20.9142
-43.6481
-35.8408
-28.6982
-23.8351
173.866
150.496
194.733
188.839
145.879
130.341
161.395
158.945
130.655
145.906
159.026
161.47
150.524
173.888
188.85
194.796
-41.4982
-43.5512
-42.1968
-43.891
-40.4667
-41.5199
-41.7651
-43.0162
-60.3042
-62.9951
-57.8052
-62.6543
-66.7426
-74.4566
-61.0637
-66.565
-41.5002
-43.552
-42.1985
-43.892
-66.7122
-74.4158
-61.0334
-66.5315
-60.2671
-62.9625
-57.8151
-62.6448
-40.4658
-41.5164
-41.7685
-43.0215
-44.8563
-46.5004
-44.554
-45.8686
-46.5033
-44.8559
-45.8695
-44.5534
-42.0402
-41.4925
-42.3515
-42.0009
-41.4947
-42.0415
-42.0029
-42.3526
-29.4974
11.5709
-61.4042
-34.6456
-91.1345
-87.5053
-103.58
-96.4051
-87.5013
-91.1276
-96.4016
-103.572
11.6397
-28.6401
-34.5478
-61.4217
-51.1165
-38.6092
-51.1416
-45.8359
-59.9523
-56.951
-58.4657
-56.1354
-50.95
-51.2238
-52.7311
-52.3595
-54.7936
-54.4622
-53.2686
-53.4986
-51.0675
-38.8576
-51.118
-45.79
-54.7959
-54.4784
-53.3027
-53.5293
-50.9165
-51.2124
-52.6668
-52.3655
-59.9479
-56.9261
-58.3691
-56.0986
-45.1064
-44.609
-45.9681
-45.3851
-45.1102
-44.6118
-45.9736
-45.3886
-54.7928
-53.4183
-53.2848
-51.9262
-54.7308
-53.3772
-53.2402
-51.8923
-62.0449
-65.1084
-60.6758
-63.4495
-47.0665
-49.2411
-48.3976
-50.4624
-47.0646
-49.2394
-48.396
-50.4602
-62.0211
-65.0933
-60.6648
-63.4416
-49.5991
-50.874
-48.8362
-50.1252
-50.863
-49.5912
-50.1164
-48.8302
-37.9073
-40.6592
-37.3011
-40.9997
-40.6636
-37.9044
-41.0047
-37.2963
-104.074
94.4937
-145.597
-12.7383
-135.84
-121.217
-68.4565
-51.8196
-61.2181
-53.424
-63.2431
-59.5726
-154.47
38.6038
-101.265
1.9911
-106.16
-73.8364
-48.7639
-42.1317
-46.6248
-41.147
-49.7398
-49.984
-145.507
-12.5036
-104.196
94.6186
-135.223
-121.17
-61.2761
-53.4119
-68.4394
-51.7956
-63.1554
-59.6105
-102.036
4.3805
-154.567
38.5455
-106.333
-73.7718
-46.6914
-41.1473
-48.7348
-42.1338
-49.7278
-49.9843
-53.2721
-51.2699
-43.395
-45.6761
-64.2949
-45.8591
-51.2494
-48.0977
-34.519
-43.0429
-37.9504
-40.2523
-36.4318
-28.2534
-41.3464
-42.4256
-52.9184
-9.61753
-82.0714
-85.3055
-94.6522
-93.2881
16.8805
8.80512
-58.7916
-61.6806
-61.3715
-58.827
-64.6561
-69.9157
-71.5972
-64.7539
-53.7186
-51.5255
-51.3022
-48.1113
-43.3854
-45.6588
-64.2652
-45.8594
-34.5428
-43.0441
-41.3457
-42.4265
-37.9449
-40.2499
-36.422
-28.2511
-52.7897
-9.64778
16.9035
8.82573
-82.0577
-85.3269
-94.6469
-93.4523
-58.7396
-61.6317
-71.5809
-64.8708
-61.3199
-58.7713
-64.6115
-69.8759
-89.2854
114.284
-111.654
83.591
-150.039
-143.526
140.961
136.567
-133.663
-46.7984
-133.64
-46.5395
-114.774
-114.757
97.7548
97.8455
-74.1219
-71.2878
-55.6995
-55.9226
-70.9994
-61.6249
-67.8842
-59.8286
-55.6416
-49.8751
-50.0859
-45.726
-55.4677
-52.7254
-48.7815
-46.4659
-58.4597
-53.3373
-58.5791
-53.3391
-56.2998
-56.2615
-51.2524
-51.2493
-52.0999
-50.3254
-49.0566
-46.4281
-50.6618
-51.9982
-47.3014
-49.2588
-72.2337
-49.7689
-72.2432
-49.8156
-51.3059
-51.3058
86.414
86.3798
-65.1123
-34.4988
-53.6143
-15.7906
-63.2185
-65.5278
-20.6101
-10.3015
-41.705
-36.1478
-41.7911
-36.1473
-43.6769
-43.6765
-33.7194
-33.7497
-51.4858
-52.1453
-54.4043
-56.2032
-52.2946
-53.4384
-55.946
-53.8229
-89.5255
114.253
-112.46
83.5093
-149.952
-143.422
136.605
140.921
-74.1084
-71.2493
-55.6207
-55.8641
-70.9246
-61.5673
-67.8599
-59.8108
-55.6262
-49.8581
-50.0333
-45.7039
-52.6829
-55.4478
-48.7636
-46.4485
-52.085
-50.3369
-49.0417
-46.4311
-50.6484
-51.9821
-47.3096
-49.273
-65.0527
-34.4648
-53.5741
-15.7791
-65.5465
-63.1811
-10.2788
-20.58
-51.4893
-52.1412
-54.3868
-56.1926
-53.4308
-52.2998
-53.8191
-55.9375
-38.6637
-41.3905
-38.6195
-40.0663
-39.6383
-39.5824
-41.8581
-41.1322
-52.144
-47.6932
-53.1938
-54.1088
-54.7438
-53.7218
-47.6393
-51.204
-52.6381
-49.592
-52.6451
-49.595
-54.291
-54.2892
-48.558
-48.5588
-43.8974
-42.5986
-51.7164
-53.2829
-46.4088
-50.3841
-45.4023
-49.711
-43.006
-43.8056
-43.0058
-43.8062
-42.9633
-42.9635
-44.4142
-44.4149
-80.8499
-113.604
-72.2635
-86.0062
-70.5327
-74.0285
-119.458
-112.041
51.233
55.0363
51.4035
55.0896
37.3644
37.8655
37.6474
37.8411
-79.8641
-72.2202
-79.8616
-72.2161
-85.3118
-85.3106
-69.4968
-69.4947
-38.6632
-41.3803
-38.6189
-40.0606
-39.6402
-39.5845
-41.8525
-41.1274
-52.1477
-47.693
-53.1952
-54.0955
-53.7257
-54.7458
-47.6373
-51.1969
-43.8763
-42.6209
-51.4998
-53.3041
-50.3767
-46.4072
-45.3986
-49.7162
-80.8118
-113.647
-72.2379
-85.9757
-73.989
-70.5071
-111.86
-119.57
-86.8742
-87.3174
-78.3814
-67.2826
-68.6522
-79.2525
-63.9518
-65.1558
-86.8496
-87.3327
-78.3565
-67.2715
-79.2815
-68.658
-65.1598
-63.9502
-75.5465
-75.5392
-70.7952
-62.7187
-70.7882
-62.714
-60.3338
-60.3369
-10.2259
-10.2219
-3.29592
8.42134
8.42807
-3.28821
14.8864
14.8967
188.656
184.023
203.353
203.356
181.728
181.717
184.099
188.656