# vtk DataFile Version 2.0
tet_velo
ASCII
DATASET UNSTRUCTURED_GRID
POINTS 29498 float
-0.735 0.115 -1.80511
-0.843063 0.175 1.735
-0.735 0.794959 -1.615
-0.500604 1.435 1.565
0.735 0.115 -1.80511
0.843037 0.175 1.735
0.775 0.815 -1.56514
0.50058 1.435 1.565
-0.78167 0.124351 -0.625073
-0.795258 0.166784 0.554963
-0.737796 1.08923 -0.555
-0.669364 1.31228 0.505
0.781759 0.124254 -0.625073
0.795568 0.166457 0.554963
0.741832 1.07997 -0.52176
0.671292 1.30757 0.52162
-1.4638 -0.468563 -2.7384
-1.48219 -0.362733 -1.84692
-1.5051 -0.347286 -0.662166
-1.49524 -0.359167 0.549665
-1.49745 -0.355758 1.73675
-1.51372 -0.297523 2.63961
-1.53264 -0.209383 3.52203
-1.46478 -0.0391796 -2.67926
-1.48306 0.0961498 -1.80288
-1.50798 0.153312 -0.641988
-1.48004 0.196207 0.532134
-1.46638 0.222191 1.69567
-1.50181 0.282224 2.59646
-1.5323 0.366193 3.48273
-1.46037 0.756226 -2.5314
-1.47529 0.882688 -1.65713
-1.46942 1.11967 -0.579373
-1.3738 1.31858 0.49298
-1.25264 1.43217 1.57429
-1.39038 1.48412 2.48099
-1.49515 1.54434 3.38794
-1.4509 2.14577 -2.3945
-1.45955 2.30701 -1.53361
-1.45401 2.59508 -0.502063
-1.4207 2.88732 0.505694
-1.39749 3.0894 1.54147
-1.43056 3.18698 2.41119
-1.49121 3.25721 3.30624
-0.72113 -0.457272 -2.7389
-0.733603 -0.346498 -1.85297
-0.759952 -0.358856 -0.655905
-0.762882 -0.383896 0.568587
-0.782038 -0.392673 1.76657
-0.812182 -0.324509 2.66052
-0.833595 -0.227066 3.5353
-0.721307 -0.0376781 -2.6712
-0.83887 0.258895 2.6139
-0.850515 0.351319 3.49325
-0.715531 0.722574 -2.50253
-0.750253 1.48005 2.4807
-0.835262 1.53942 3.3899
-0.714826 2.11541 -2.36779
-0.727655 2.2743 -1.50585
-0.737482 2.57789 -0.482787
-0.731532 2.88987 0.510886
-0.730841 3.09884 1.53702
-0.766592 3.19455 2.4061
-0.820918 3.26161 3.30341
0.764471 -0.456225 -2.72854
0.757634 -0.346866 -1.84967
0.781668 -0.359516 -0.653915
0.803939 -0.384467 0.569948
0.819116 -0.39299 1.76753
0.688508 -0.325019 2.66243
0.607314 -0.227853 3.53854
0.762345 -0.0346806 -2.65725
0.624342 0.258516 2.61531
0.561999 0.350571 3.49629
0.77587 0.731097 -2.4729
0.504904 1.4795 2.4828
0.503238 1.53852 3.39358
0.760149 2.11779 -2.34266
0.741575 2.27544 -1.47981
0.702273 2.57543 -0.461018
0.643015 2.88674 0.525705
0.579718 3.09667 1.5463
0.543774 3.19288 2.41336
0.515696 3.26011 3.31016
1.50972 -0.467198 -2.71465
1.505 -0.363874 -1.83097
1.52859 -0.350027 -0.650853
1.54198 -0.361213 0.556588
1.53194 -0.356968 1.7409
1.42568 -0.298887 2.64488
1.33757 -0.21114 3.52938
1.50573 -0.0351946 -2.64913
1.49139 0.0961756 -1.78087
1.51516 0.14928 -0.626256
1.50605 0.193706 0.540264
1.48128 0.221275 1.6986
1.3631 0.281023 2.60101
1.28825 0.364479 3.48981
1.51357 0.766322 -2.4811
1.50239 0.892495 -1.59943
1.47426 1.11106 -0.536587
1.38711 1.3124 0.515419
1.24717 1.43031 1.58091
1.21618 1.48248 2.48733
1.20707 1.54233 3.39635
1.49471 2.1491 -2.34739
1.47352 2.30797 -1.48572
1.42511 2.59052 -0.461624
1.3469 2.88157 0.534184
1.26416 3.08512 1.56033
1.22398 3.18357 2.4263
1.20125 3.25416 3.32023
-0.791026 0.45498 -1.76608
0 0.111345 -1.80877
-0.759633 0.118378 -1.21509
-0.755071 0.805 1.73324
-1.29938e-05 0.171447 1.73855
-0.825198 0.164854 1.14498
0.02 0.890052 -1.67514
-0.759713 0.965411 -1.085
-1.19805e-05 1.45994 1.58994
-0.607491 1.39615 1.035
0.808325 0.465 -1.73845
0.760808 0.117198 -1.21509
0.754983 0.805 1.73317
0.823413 0.166617 1.14498
0.766162 0.955232 -1.04345
0.608441 1.39379 1.04331
-0.789864 0.144168 -0.035055
-0.876842 0.606792 -0.590037
4.43885e-05 0.121543 -0.625073
-0.883764 0.739532 0.529982
0.000155173 0.129112 0.554963
-0.71213 1.20931 -0.025
0.00201834 1.32288 -0.53838
0.000963988 1.52258 0.51331
0.789957 0.144062 -0.035055
0.876824 0.602113 -0.573417
0.883567 0.737014 0.538292
0.715307 1.20252 -6.99759e-05
-0.889152 0.530886 -1.15005
-0.886974 0.673162 -0.0300275
-0.876486 0.772266 1.08999
2.21943e-05 0.120789 -1.21509
9.9781e-05 0.12533 -0.035055
7.10898e-05 0.158585 1.14498
0.00999999 0.45999 -2.03128
-1.24872e-05 0.805 1.91775
0.0110092 1.03986 -1.06423
0.00149116 1.50206 -0.012535
0.000476004 1.50706 1.03916
0.889288 0.533557 -1.12927
0.88701 0.669564 -0.0175625
0.877267 0.771007 1.09415
-1.10903 0.105575 -1.804
-0.734301 -0.115749 -1.82904
-0.728154 0.038661 -2.23815
-1.15472 0.198595 1.71534
-0.81255 -0.108836 1.75079
-0.840967 0.216948 2.17445
-1.10514 0.838823 -1.63606
-0.725266 0.758767 -2.05876
-0.731327 1.53463 -1.56042
-0.876624 1.43358 1.56965
-0.625428 1.45753 2.02285
-0.615722 2.26692 1.55101
0.746317 -0.115933 -1.82739
0.748672 0.0401597 -2.23118
1.1132 0.105588 -1.79299
0.831077 -0.108995 1.75127
0.733689 0.216758 2.17515
1.16216 0.198138 1.7168
0.775435 0.773048 -2.01902
0.758288 1.54522 -1.52248
1.1387 0.853748 -1.58228
0.502742 1.45725 2.0239
0.540149 2.26584 1.55565
0.873874 1.43265 1.57296
-1.14482 0.138832 -0.633531
-0.770811 -0.117252 -0.640489
-1.13765 0.181496 0.543549
-0.77907 -0.108556 0.561775
-1.10361 1.10445 -0.567187
-0.737639 1.83356 -0.518894
-1.02158 1.31543 0.49899
-0.700448 2.10108 0.507943
0.781713 -0.117631 -0.639494
1.14846 0.136767 -0.625665
0.799754 -0.109005 0.562456
1.15081 0.180081 0.547614
0.722053 1.8277 -0.491389
1.10804 1.09551 -0.529173
0.657153 2.09716 0.523662
1.0292 1.30999 0.518519
-1.47299 -0.415648 -2.29266
-1.46429 -0.253871 -2.70883
-1.09246 -0.462917 -2.73865
-1.49365 -0.35501 -1.25454
-1.48263 -0.133292 -1.8249
-1.1079 -0.354615 -1.84994
-1.50017 -0.353227 -0.0562506
-1.50654 -0.0969869 -0.652077
-1.13253 -0.353071 -0.659035
-1.49635 -0.357463 1.14321
-1.48764 -0.0814799 0.540899
-1.12906 -0.371531 0.559126
-1.50558 -0.326641 2.18818
-1.48192 -0.0667836 1.71621
-1.13974 -0.374215 1.75166
-1.52318 -0.253453 3.08082
-1.50776 -0.00764944 2.61804
-1.16295 -0.311016 2.65007
-1.53247 0.078405 3.50238
-1.18312 -0.218224 3.52866
-1.47392 0.0284851 -2.24107
-1.46257 0.358523 -2.60533
-1.09305 -0.0384288 -2.67523
-1.49552 0.124731 -1.22243
-1.47917 0.489419 -1.73
-1.49401 0.17476 -0.0549271
-1.4887 0.636491 -0.610681
-1.47321 0.209199 1.1139
-1.42692 0.757394 0.512557
-1.4841 0.252208 2.14607
-1.35951 0.827179 1.63498
-1.51705 0.324208 3.03959
-1.44609 0.883171 2.53872
-1.17034 0.27056 2.60518
-1.51372 0.955268 3.43534
-1.19141 0.358756 3.48799
-1.46783 0.819457 -2.09426
-1.45563 1.451 -2.46295
-1.08795 0.7394 -2.51696
-1.47235 1.00118 -1.11825
-1.46742 1.59485 -1.59537
-1.42161 1.21913 -0.0431964
-1.46171 1.85737 -0.540718
-1.31322 1.37537 1.03364
-1.39725 2.10295 0.499337
-1.32151 1.45814 2.02764
-1.32507 2.26078 1.55788
-1.44277 1.51423 2.93447
-1.41047 2.33555 2.44609
-1.07032 1.48208 2.48084
-1.49318 2.40078 3.34709
-1.16521 1.54188 3.38892
-1.45522 2.22639 -1.96405
-1.08286 2.13059 -2.38114
-1.45678 2.45104 -1.01784
-1.0936 2.29065 -1.51973
-1.43736 2.7412 0.00181544
-1.09575 2.58648 -0.492425
-1.4091 2.98836 1.02358
-1.07612 2.8886 0.50829
-1.41403 3.13819 1.97633
-1.06417 3.09412 1.53925
-1.46088 3.2221 2.85871
-1.09858 3.19076 2.40864
-1.15606 3.25941 3.30482
-0.727366 -0.401885 -2.29594
-0.721219 -0.247475 -2.70505
0.0216704 -0.456749 -2.73372
-0.746777 -0.352677 -1.25444
0.0120156 -0.346682 -1.85132
-0.761417 -0.371376 -0.0436593
0.0108583 -0.359186 -0.65491
-0.77246 -0.388284 1.16758
0.0205283 -0.384182 0.569267
-0.79711 -0.358591 2.21355
0.0185394 -0.392832 1.76705
-0.822889 -0.275787 3.09791
-0.825526 -0.0328069 2.63721
-0.0618373 -0.324764 2.66148
-0.842055 0.0621268 3.51427
-0.113141 -0.227459 3.53692
-0.718419 0.342448 -2.58686
0.0205187 -0.0361794 -2.66422
-0.844693 0.305107 3.05357
-0.794562 0.869473 2.5473
-0.107264 0.258706 2.6146
-0.842888 0.945368 3.44157
-0.144258 0.350945 3.49477
-0.715179 1.41899 -2.43516
0.0301693 0.726836 -2.48771
-0.792757 1.50973 2.9353
-0.758423 2.3373 2.4434
-0.122674 1.47978 2.48175
-0.82809 2.40051 3.34665
-0.166012 1.53897 3.39174
-0.721241 2.19486 -1.93682
0.0226615 2.1166 -2.35523
-0.732568 2.42609 -0.994316
0.00696009 2.27487 -1.49283
-0.734507 2.73388 0.0140493
-0.0176045 2.57666 -0.471903
-0.731187 2.99436 1.02395
-0.0442586 2.88831 0.518295
-0.748716 3.1467 1.97156
-0.0755612 3.09776 1.54166
-0.793755 3.22808 2.85475
-0.111409 3.19372 2.40973
-0.152611 3.26086 3.30678
0.761052 -0.401545 -2.2891
0.763408 -0.245453 -2.69289
1.13709 -0.461711 -2.7216
0.769651 -0.353191 -1.25179
1.13131 -0.35537 -1.84032
0.792804 -0.371992 -0.0419836
1.15513 -0.354771 -0.652384
0.811528 -0.388729 1.16874
1.17296 -0.37284 0.563268
0.753812 -0.359004 2.21498
1.17553 -0.374979 1.75422
0.647911 -0.276436 3.10048
0.656425 -0.0332513 2.63887
1.05709 -0.311953 2.65366
0.584656 0.0613589 3.51741
0.97244 -0.219497 3.53396
0.769107 0.348208 -2.56508
1.13404 -0.0349376 -2.65319
0.59317 0.304543 3.0558
0.564623 0.86901 2.54905
0.993719 0.269769 2.60816
0.532618 0.944545 3.44494
0.925127 0.357525 3.49305
0.76801 1.42444 -2.40778
1.14472 0.748709 -2.477
0.504071 1.50901 2.93819
0.524339 2.33619 2.44808
0.860544 1.48099 2.48506
0.509467 2.39932 3.35187
0.855154 1.54042 3.39497
0.750862 2.19661 -1.91124
1.12743 2.13344 -2.34503
0.721924 2.42544 -0.970416
1.10755 2.29171 -1.48277
0.672644 2.73109 0.0323435
1.06369 2.58298 -0.461321
0.611367 2.99171 1.036
0.994959 2.88415 0.529944
0.561746 3.14477 1.97983
0.92194 3.0909 1.55332
0.529735 3.2265 2.86176
0.883875 3.18822 2.41983
0.858471 3.25714 3.3152
1.50736 -0.415536 -2.27281
1.50772 -0.251196 -2.68189
1.51679 -0.35695 -1.24091
1.49819 -0.133849 -1.80592
1.53528 -0.35562 -0.0471324
1.52187 -0.100373 -0.638554
1.53696 -0.359091 1.14874
1.52401 -0.0837535 0.548426
1.47881 -0.327927 2.19289
1.50661 -0.0678463 1.71975
1.38162 -0.255013 3.08713
1.39439 -0.00893213 2.62294
1.31291 0.0766697 3.5096
1.49856 0.0304905 -2.215
1.50965 0.365563 -2.56511
1.50327 0.122728 -1.20356
1.49689 0.494335 -1.69015
1.5106 0.171493 -0.0429962
1.49471 0.630168 -0.581421
1.49366 0.207491 1.11943
1.44658 0.753056 0.527841
1.42219 0.251149 2.1498
1.36422 0.82579 1.63976
1.32568 0.322751 3.04541
1.28964 0.881752 2.54417
1.24766 0.953405 3.44308
1.50798 0.829408 -2.04026
1.50414 1.45771 -2.41424
1.48832 1.00178 -1.06801
1.48796 1.60023 -1.54257
[...]
POINT_DATA 29498
VECTORS point_vectors float
-3.98158 -8.07479 12.3739
0.240432 0.361074 2.93074
-0.431499 0.205819 0.859435
0.0441439 -0.071767 0.376848
3.99995 -8.12166 12.3819
-0.238506 0.363339 2.92323
2.73978 1.23586 5.47328
-0.0428436 -0.0807435 0.392811
-0.0991986 0.137437 1.22132
0.00421954 0.00585416 0.252181
0 0 0
0.00170263 0.00314559 0.0149648
0.0971156 0.136531 1.22712
-0.00445871 0.00599926 0.258634
-0.000551163 0.00474218 0.0356299
-0.00162306 0.00307396 0.0108484
-0.64763 -0.468641 20.0257
-1.11174 -0.915118 20.7039
-0.411919 -0.49503 21.591
0.105465 -0.167913 21.6945
0.550103 0.111886 21.7247
0.886474 0.272061 21.4957
0.971146 0.291679 21.1574
-0.990592 -0.476241 19.7915
-1.93355 -0.927893 20.6457
-0.687731 -0.711709 21.7479
0.00544117 -0.455563 21.8417
0.722271 -0.215807 21.9421
1.1777 -0.145345 21.5942
1.29685 -0.22219 21.5096
-1.40345 0.104433 19.5325
-2.47375 0.236514 20.5642
-1.69201 -0.205151 21.678
-0.823462 -0.353207 22.0492
-0.125128 -0.638588 21.9441
0.21002 -0.714661 21.6378
0.519079 -0.739666 21.7163
-0.604609 0.522057 20.1013
-0.778186 0.633018 20.54
-0.62521 0.443388 21.1661
-0.368915 0.138402 21.356
-0.148152 -0.043623 21.4322
-0.0482027 -0.132232 21.3912
0.0181042 -0.140359 21.1193
-0.618951 -1.02125 19.5312
-1.25584 -2.70525 20.9982
-0.205423 -0.468078 22.0192
0.127774 0.0604706 21.9436
0.491561 0.704081 21.9777
0.841876 1.1312 21.587
1.18408 1.36576 21.2708
-1.14372 -1.22429 18.6721
1.57011 0.781552 11.3719
2.42527 1.13409 14.7541
-2.01275 0.589623 17.2573
0.0283836 -0.629015 14.2229
0.628117 -1.41538 18.6253
-0.548186 0.98936 19.7749
-0.740892 1.35806 20.3645
-0.590164 1.02248 21.1945
-0.275499 0.352325 21.4511
-0.141492 0.00420395 21.5481
-0.0578156 -0.142993 21.5031
0.0263221 -0.160751 21.4248
0.645075 -1.00585 19.5693
1.27589 -2.64607 20.9969
0.195765 -0.476229 22.004
-0.146656 0.0499098 21.9277
-0.516053 0.68099 21.9765
-0.712888 1.24544 21.6144
-0.962148 1.82814 20.1484
1.19777 -1.20274 18.7157
-1.04712 0.723249 6.45896
-2.21018 1.97084 9.93626
2.16349 0.616846 17.5001
0.431223 -0.48029 6.82144
0.0522999 -1.50883 11.8739
0.583928 0.986288 19.7985
0.759759 1.35256 20.3895
0.573492 1.03935 21.2308
0.253467 0.361373 21.4685
0.109289 -0.00889067 21.4594
0.0295108 -0.151516 21.2655
0.0432316 -0.157208 21.1599
0.64562 -0.463041 20.0594
1.08387 -0.876671 20.7021
0.41853 -0.491295 21.584
-0.098095 -0.181003 21.6936
-0.554202 0.0839103 21.6798
-0.944695 0.338745 21.5529
-1.10521 0.461161 21.0789
1.00539 -0.473831 19.8358
1.91025 -0.924371 20.6991
0.67953 -0.699813 21.7353
0.0103326 -0.440016 21.8159
-0.718699 -0.215103 21.9364
-1.3934 -0.0960013 21.6049
-1.79963 -0.0452872 20.8129
1.4222 0.0860858 19.63
2.36287 0.179751 20.6741
1.63674 -0.233758 21.7016
0.794076 -0.355527 22.0436
0.11189 -0.647497 21.9566
-0.192476 -0.882149 21.7772
-0.542312 -1.06895 21.3662
0.618692 0.512277 20.1357
0.787562 0.625956 20.573
0.630501 0.458377 21.1845
0.379554 0.135674 21.3554
0.170445 -0.0266678 21.5463
0.0648338 -0.142325 21.6177
-0.00968987 -0.136545 21.4221
-0.718156 -0.0695794 0.984276
-0.000143482 -0.134869 0.839362
-0.00736822 0.00130757 0.266372
0.00333981 -0.0657172 0.0775616
1.26258e-05 0.0121352 0.124279
0.047918 0.0622658 1.60318
0.00306276 0.164013 0.352612
-0.465865 -0.0671573 0.812555
0.00381554 0.00149253 0.0127913
0.0203122 0.0223739 0.159868
0.839072 -0.105104 1.33088
0.0058403 0.000254814 0.251901
-0.00415731 -0.0628333 0.0774456
-0.0458803 0.0650501 1.30995
0.0912062 -0.0317598 0.194821
-0.0232379 0.0244965 0.187366
0.00397397 0.0391086 1.35809
-0.000104917 0.000446577 0.00843773
2.18618e-05 -0.000291767 0.0395444
0.000621438 0.00560179 0.0293518
0.000251623 0.00349308 0.114043
0.0036244 0.0113942 0.0458582
0.000135841 0.0458321 0.0983703
-1.61782e-06 7.93332e-06 0.000693239
-0.00383191 0.0392539 1.36084
0.000150416 0.000575947 0.0115797
-0.000239752 0.00216146 0.0112209
-0.00299379 0.013056 0.0648171
0 0 0
-3.47603e-05 0.00100272 0.00780704
-3.22292e-06 0.0272185 0.130558
-2.42409e-08 1.88411e-07 6.42843e-06
3.23086e-09 -8.823e-09 -1.25426e-06
0 0 0
0.0204653 0.289141 0.353555
0 0 0
0 0 0
2.28306e-05 0.0132728 0.0945417
4.98913e-05 -0.000361624 0.00891626
0 0 0
0.000129951 0.00342257 0.0271263
-0.000253281 0.0360661 0.168544
-3.54415 -2.40683 20.6554
-2.12128 -4.61487 21.2473
-2.71184 -3.10592 17.662
1.07042 0.135645 20.196
0.77542 0.967613 19.9412
1.14994 0.733316 8.87362
-4.78126 0.903767 20.5854
-5.00886 2.64635 15.6528
-2.0483 2.64974 19.9165
0.0865067 -0.410634 17.3651
-0.26088 -0.17539 7.56184
-0.248143 0.0145305 21.8154
2.12638 -4.48254 21.2279
2.76566 -3.00244 17.8109
3.51001 -2.39569 20.707
-0.807781 0.969032 20.0721
-0.704781 0.556546 5.19289
-1.07997 0.117119 20.3329
5.34093 2.61265 16.2773
2.08368 2.55175 20.0138
4.4431 0.769682 20.8215
0.798847 -0.0725136 4.53068
0.246009 0.0335851 21.8358
-0.109446 -0.436718 17.5001
-0.238248 -1.0655 21.7572
-0.0632907 -0.0495482 20.5128
0.229843 -0.376586 19.7346
0.274298 0.248349 19.1046
-2.91647 -0.627721 22.2085
-2.00606 2.21477 21.4359
-1.23717 -0.543711 21.8456
-0.741286 0.723075 22.1149
0.0449287 -0.0642645 20.7212
0.23977 -1.06685 21.7805
-0.286675 0.235334 19.2569
-0.216466 -0.406128 20.0246
2.01826 2.26379 21.4874
2.81043 -0.672168 22.1814
0.719436 0.754391 22.149
1.19194 -0.547756 21.9151
-0.948947 -0.741521 20.2203
-0.797248 -0.516276 19.899
-0.694103 -0.756537 19.8179
-0.798301 -0.756877 21.3674
-1.47945 -0.989776 20.6746
-1.36992 -1.67049 20.7912
-0.0956119 -0.308382 21.651
-0.519779 -0.609691 21.6483
-0.260299 -0.569999 21.7932
0.312622 -0.039824 21.7623
0.0704322 -0.298748 21.7291
0.202215 -0.118628 21.7984
0.721219 0.205726 21.6249
0.626748 -0.0100281 21.7832
0.662457 0.359972 21.8578
0.940608 0.218843 21.4086
1.02688 0.123245 21.571
0.973745 0.61569 21.631
1.12088 0.14272 21.4078
1.30538 0.725255 20.9921
-1.55353 -0.744017 20.0097
-1.27218 -0.271305 19.5854
-1.18367 -0.812355 19.2977
-1.37276 -0.89005 21.5588
-2.44955 -0.473831 20.675
-0.26522 -0.58042 21.7666
-1.19216 -0.701861 21.8004
0.291085 -0.337612 21.9391
-0.360522 -0.62204 21.9665
0.986541 -0.170929 21.7851
0.501038 -0.687364 21.8782
1.29883 -0.15627 21.3485
0.908145 -0.71245 21.6193
1.68196 0.184 20.2673
1.22645 -0.730618 21.307
2.04058 0.0589587 20.1328
-2.09652 0.216817 19.8459
-1.07039 0.555485 19.7821
-1.84115 0.271901 18.7496
-2.14123 -0.0076024 21.3346
-1.46787 0.770811 20.4701
-1.29436 -0.328523 21.9511
-1.27775 0.548125 21.3294
-0.404424 -0.455073 22.0521
-0.631038 0.171779 21.691
0.0582206 -0.692251 21.7881
-0.210469 -0.153604 21.648
0.42903 -0.783807 21.512
0.0164662 -0.328621 21.525
0.0414114 -0.923926 21.6323
0.135692 -0.410436 21.2696
0.522081 -1.13595 21.4059
-0.725801 0.604504 20.3059
-0.62466 0.751822 19.957
-0.727086 0.602159 20.8184
-0.833845 0.98209 20.4734
-0.51356 0.301638 21.2474
-0.640587 0.732497 21.1953
-0.260467 0.0100924 21.4057
-0.403439 0.290884 21.4464
-0.126299 -0.104938 21.4849
-0.204176 0.0202965 21.6985
0.0308628 -0.176859 21.3443
-0.0671577 -0.138869 21.7013
0.0166844 -0.132487 21.4273
-1.0546 -1.90841 19.6979
-0.849152 -1.1639 19.1579
0.0374324 -1.37449 19.2506
-0.557289 -1.31068 22.1265
0.0175376 -3.52542 21.4339
-0.0197574 -0.123334 21.9648
0.00249307 -0.598079 22.2559
0.299279 0.293811 22.0596
0.0024331 0.0276616 21.9146
0.669191 0.941813 21.8358
0.0101783 0.745192 21.7869
1.0757 1.27762 21.4294
1.31472 1.48813 19.0645
0.0703581 1.39021 21.4048
1.93191 1.70394 18.2629
0.173505 1.96431 19.8639
-1.72076 -0.693133 17.659
0.0344008 -1.80269 17.8568
2.1389 1.14528 13.5545
0.337954 -1.13692 5.95685
0.142743 0.349206 3.95678
1.96996 -1.28458 12.1463
0.245045 1.88801 4.62736
-1.1613 1.42059 18.8746
0.138119 1.17119 15.3802
0.199038 -1.05995 17.2546
-0.127779 -0.289031 21.6212
-0.259918 -0.0394711 0.188215
-0.0120121 -0.500266 20.9476
-0.0740749 -0.43265 4.75907
-0.649908 1.23197 20.0269
0.0159096 1.23542 19.6377
-0.716068 1.25361 20.8064
0.010257 1.79887 20.2273
-0.407696 0.665509 21.4215
-0.0116301 1.34669 21.3056
-0.199492 0.112459 21.5624
-0.0269984 0.525892 21.5775
-0.11931 -0.0986274 21.6712
-0.00821124 0.108879 21.6871
0.00890633 -0.155148 21.5354
0.0163338 -0.145171 21.7815
0.0285058 -0.152899 21.5399
1.07489 -1.85917 19.7082
0.87993 -1.14691 19.2158
0.714118 -0.731459 19.8261
0.558927 -1.30899 22.1117
1.34727 -1.59031 20.789
0.00426376 -0.127561 21.9513
0.264146 -0.573029 21.766
-0.326033 0.301721 22.057
-0.188249 -0.13904 21.7866
-0.622087 0.991723 21.8272
-0.654775 0.333278 21.854
-0.876336 1.56309 21.343
-0.928017 1.66059 17.5686
-0.988587 0.792635 21.581
-1.65768 2.38245 16.8921
-1.36223 1.04788 21.193
1.81606 -0.660804 17.7824
1.21097 -0.805383 19.3397
-1.703 1.39394 7.91109
0.344059 -0.963545 -0.455317
-1.80293 0.609109 16.5516
-0.951466 -0.255242 1.06558
-2.42159 0.906329 16.4558
1.23722 1.40615 18.946
1.88866 0.268235 18.8755
0.550404 -1.00145 8.73863
0.110452 -0.255645 21.628
-0.122255 -0.772661 18.1687
0.0455823 -0.435165 21.4028
-0.63412 -1.43677 19.0908
0.680401 1.21942 20.0545
0.648297 0.746703 19.9832
0.717851 1.2593 20.8296
0.842871 0.971523 20.5044
0.382081 0.703 21.4388
0.633849 0.751106 21.225
0.167159 0.11034 21.4821
0.388359 0.325238 21.4737
0.10634 -0.100657 21.4975
0.188563 0.0107851 21.675
0.0705737 -0.151714 21.3355
0.0873087 -0.146218 21.6547
-0.0229611 -0.16673 21.4288
0.92572 -0.700996 20.2856
0.814943 -0.513406 19.9304
0.787004 -0.733587 21.3583
1.45646 -0.958499 20.7055
0.0917866 -0.315168 21.635
0.521839 -0.594951 21.6284
-0.312924 -0.0635718 21.7502
-0.0542466 -0.290203 21.7003
-0.737105 0.231179 21.6323
-0.620498 -0.0145471 21.7747
-1.04384 0.398394 21.3375
-1.17154 0.232348 21.5727
-1.47712 0.437979 21.3183
1.53608 -0.729443 20.0623
1.28693 -0.255527 19.6599
1.34991 -0.871135 21.5537
2.36393 -0.468169 20.7394
0.272935 -0.566974 21.7576
1.1564 -0.698016 21.7945
-0.291677 -0.327025 21.9362
0.351014 -0.596341 21.9704
-1.06555 -0.160024 21.8016
-0.51136 -0.685328 21.8881
-1.66707 -0.0112504 21.39
-1.01148 -0.902981 21.6574
-1.50037 -0.890547 20.8436
2.07765 0.186827 19.9802
1.06391 0.530615 19.8618
2.06616 -0.0425785 21.3661
1.47164 0.748742 20.5268
1.24125 -0.33702 21.9513
1.28969 0.540728 21.3701
0.388306 -0.455641 22.0565
0.635652 0.169329 21.719
-0.025034 -0.774454 21.8317
0.221872 -0.159018 21.674
-0.421843 -0.986704 21.7068
0.0149123 -0.356209 21.4972
-0.0912824 -0.470421 21.1682
0.723713 0.606843 20.3346
0.730601 0.606345 20.8466
0.512558 0.298383 21.2888
0.272011 0.0177901 21.5112
0.13778 -0.100821 21.668
-0.0298889 -0.15421 21.6241
-1.21153 -0.781401 20.1271
-1.618 -2.56584 19.0655
-1.10358 -1.23236 20.0205
-2.19709 -1.46251 19.3131
-0.923148 -0.830016 19.5708
-2.1513 -2.11216 20.7549
-1.05034 -0.856366 21.4597
-0.413027 -1.1689 22.2428
-0.785002 -1.13185 21.703
-1.54616 -1.77101 22.4995
-0.179675 -0.728418 22.0063
-0.161328 -0.432286 21.7001
0.090514 0.176967 19.516
0.0138418 -0.256402 21.8362
0.10596 -0.66694 20.4193
0.327083 -0.254848 21.647
0.310205 -0.169055 21.8205
0.5172 0.426955 19.5301
0.398448 0.0842578 21.9304
0.402329 -0.182794 20.0303
0.928804 0.307482 21.7331
0.855464 0.0762835 21.6714
1.01545 1.30377 19.2054
0.825366 0.535715 21.7371
1.49805 0.144106 20.44
1.40832 0.577725 21.2484
1.20004 0.140266 21.4917
1.63165 1.73141 19.2561
1.15685 0.726281 21.2124
1.9238 0.183206 20.2374
1.68475 0.720923 21.1637
-1.997 -0.389584 19.8426
-5.02259 -1.12845 15.0204
-3.55947 0.800741 18.7423
-1.65844 -0.46428 18.8507
-5.26885 -0.91444 20.649
-1.90965 -0.606986 21.5885
-3.52475 -0.128145 21.9064
-1.07749 -1.40878 20.7673
-0.739832 -0.711293 21.9575
-2.08 -0.639863 22.1648
-0.0839795 -0.230868 17.3431
0.0216268 -0.579156 21.979
-0.381524 -0.362507 19.6214
0.974801 0.0652569 14.3607
0.711761 -0.753921 21.8177
-0.630967 -1.57462 2.63571
-0.0931815 -0.668049 19.9242
1.19394 -0.787604 19.2363
1.03749 -0.728654 21.6167
1.03333 -1.05521 9.36109
0.350811 -1.03968 21.7393
1.5667 -0.963581 20.5765
-1.33843 0.73975 20.0514
-1.66907 2.30797 19.1677
-0.742887 0.903198 20.1647
-1.20677 0.908291 19.395
-1.95068 1.51084 20.2533
-1.46458 0.696833 20.9391
-2.12808 2.4436 20.5912
-0.753548 0.904717 20.8371
-1.71466 1.12579 21.419
-0.983519 0.373598 21.5937
-1.36329 1.50754 22.0986
-0.514008 0.500707 21.3805
-0.754732 0.385541 21.8977
-0.378345 -0.0116965 21.6849
-0.414943 0.265074 21.9604
-0.290175 0.0725493 21.7134
-0.265815 -0.103531 21.7597
-0.0875917 -0.252614 21.5841
-0.19118 -0.159909 21.7332
-0.144083 -0.092563 21.8307
-0.0454477 -0.351161 21.4708
0.059152 -0.36395 21.3096
-0.0510656 -0.438175 21.6134
0.0252672 -0.151398 21.6537
0.0819233 -0.473938 21.1692
1.65701 -2.47569 19.1295
0.0329188 -2.72526 19.3944
0.0539923 -5.58239 15.9449
0.0282107 -1.6663 18.6853
0.0115128 -5.59936 22.8158
0.406938 -1.21683 22.4393
0.0122107 -1.47833 22.4965
0.00282604 -0.27987 17.5929
-0.101675 0.172112 19.6221
0.0105996 -0.222721 21.9854
0.0046257 0.120819 15.8125
-0.54477 0.440708 19.7012
0.0121599 0.354502 22.003
0.0318361 0.810631 16.4575
-0.878108 1.41916 18.8033
0.0300654 1.08547 21.5824
0.0600238 0.0591614 2.09402
0.109259 1.34985 14.9757
-1.1737 2.0669 17.8056
0.1143 1.84234 21.076
0.417608 0.929959 4.3889
0.264297 2.47465 14.7212
5.3219 -1.06558 15.3884
0.205476 5.91179 11.3149
0.0782654 -1.01751 15.9286
1.10855 -1.58851 0.435758
-0.192317 0.969719 0.0637892
-0.169197 0.81358 -2.03628
-0.17851 -0.607352 0.409491
-0.437809 0.585594 2.09514
0.512803 2.62183 -4.12264
1.7177 2.21333 19.2925
0.0153447 1.53551 19.8841
0.0576923 2.02044 18.3198
0.0384827 3.84267 19.4684
2.18127 2.45599 20.6316
-0.0055994 1.68923 20.7553
-0.0247013 3.79531 21.2859
1.35075 1.54617 22.1492
-0.0204372 0.936567 21.5402
-0.0216454 1.15046 22.2863
0.401834 0.281508 21.9826
-0.0301911 0.193128 21.8578
-0.0152314 0.148649 21.852
0.177772 -0.110714 21.7396
-0.00410668 -0.10598 22.0151
-0.0301011 -0.164529 21.7266
0.0605534 -0.404315 21.4093
0.023888 -0.146818 21.7432
0.0289478 -0.532917 21.2693
1.20792 -0.756399 20.1699
1.09461 -1.18803 20.0628
2.21339 -1.43236 19.3822
0.944786 -0.807401 19.6109
2.11714 -2.05285 20.7845
1.03012 -0.83009 21.4459
0.78832 -1.09489 21.6805
1.52318 -1.75675 22.5044
0.197215 -0.728218 21.9896
0.165492 -0.42061 21.6995
-0.000348816 -0.268913 21.8309
-0.0924773 -0.684815 20.6246
-0.298053 -0.281869 21.7566
-0.298883 -0.165473 21.8187
-0.388531 0.0820199 21.9119
-0.424949 -0.205757 20.2754
-0.923069 0.280605 21.8044
-0.905358 0.107314 21.7117
-0.841888 0.603677 21.7326
-1.54187 0.408477 18.2504
-1.53999 0.918002 20.8486
-1.45407 0.335326 21.2872
-1.20742 1.03447 21.1493
-2.23132 0.681838 16.565
-2.03989 1.42486 18.7413
1.98007 -0.359433 19.9479
3.4723 0.735161 19.063
1.72513 -0.444117 18.95
5.03721 -0.893998 20.8551
1.83483 -0.601958 21.5898
3.37414 -0.212122 21.9245
1.03858 -1.39581 20.7035
0.720047 -0.690048 21.9454
1.99363 -0.637199 22.1664
0.105148 -0.319602 17.8054
-0.030722 -0.570963 21.9984
0.371906 -0.376345 19.7948
-0.986476 0.0638872 14.4369
-0.800647 -0.834357 21.7355
0.0150686 -0.529628 17.7011
-0.958827 -0.716378 12.2741
-1.42178 -1.06603 21.3093
-0.295777 -1.03687 18.5477
-2.08277 -1.34712 14.0587
1.33318 0.707879 20.1345
0.754597 0.893725 20.1967
1.21314 0.875399 19.476
1.93606 1.45395 20.3155
1.46591 0.671466 20.9849
0.758485 0.910804 20.8602
1.7348 1.13581 21.4615
0.979164 0.366103 21.6242
0.508507 0.531061 21.4169
0.754455 0.394518 21.9307
0.386327 -0.0210648 21.7262
0.264188 0.0939203 21.7257
0.267963 -0.098162 21.7702
0.131671 -0.262911 21.6351
0.139612 -0.0991671 21.7995
0.110393 -0.331131 21.5457
-0.0295574 -0.417541 21.4405
0.000382052 -0.15843 21.6223
0.013403 -0.511308 20.9802
-1.55237 -1.41527 19.7524
-1.00714 -1.42808 22.0386
0.147565 -0.429881 21.788
0.530962 -0.0712205 21.7367
1.23546 0.441442 21.5342
1.63801 0.643667 21.1987
-3.44092 -0.629476 18.6171
-2.6011 -1.38458 22.7083
-0.48893 -0.922924 18.6279
0.272852 0.331716 16.1572
0.951475 -0.549429 16.8377
1.46589 -0.870704 20.2065
-1.64799 1.33537 19.6911
-1.91807 1.33641 20.8595
-1.22386 0.764498 21.8106
-0.438928 0.0773441 21.8492
-0.157961 -0.232993 21.6454
0.00541216 -0.412251 21.519
0.0366999 -3.95699 18.4565
0.00617101 -1.12087 20.9149
0.00345136 -0.0582909 16.1893
0.0366635 0.384286 15.8175
0.0543406 1.11231 15.4772
0.236949 1.85012 15.1761
0.171278 -1.42169 9.11524
-0.0693024 -1.33409 -0.28438
-0.253036 1.59351 -3.69752
0.0736814 3.32218 18.6499
0.0115818 3.99609 20.0565
-0.0352347 2.37777 22.2857
-0.0178535 0.479342 22.0664
-0.0272304 -0.00492769 21.7531
-0.0334131 -0.324468 21.3562
1.56658 -1.38725 19.7931
1.00777 -1.39772 22.0098
-0.116152 -0.445073 21.8363
-0.527606 -0.081421 21.8433
-1.28307 0.641366 21.1604
-1.76597 1.12379 20.2588
3.45685 -0.597488 18.8555
2.47839 -1.36158 22.6528
0.501348 -0.975505 18.9844
-0.272017 0.285368 16.3587
-0.860192 -0.516517 12.7335
-1.43995 -0.913194 13.5205
1.65393 1.27262 19.7789
1.92507 1.30765 20.9092
1.23501 0.777113 21.8534
0.446389 0.0951372 21.8698
0.177708 -0.222119 21.6933
0.0430812 -0.464663 21.6454
-0.125747 -0.0418035 0.11074
-0.00926862 -0.164921 0.771187
-0.0374938 0.00697959 0.342699
0.0674848 -0.0641673 0.21327
-0.00388387 0.0391852 0.171046
0.0122677 0.0880785 2.04818
-0.785524 0.164411 0.888302
-0.0732455 0.341841 0.694682
-0.284828 0.0431738 0.671512
0 0 0
-0.0179288 -0.00690687 0.038333
0.038469 -0.00990974 0.473159
0.0084323 -0.17058 0.787904
1.55639 -0.526364 2.03884
0.0379071 0.00668174 0.342214
0 0 0
-0.064445 -0.0583634 0.204576
-0.017454 0.0800529 1.65575
0.0445181 0.188301 0.392796
0.70156 0.0643228 1.01582
0.47779 -0.0370425 1.26439
0.0242145 -0.00902587 0.0434303
0 0 0
-0.0354021 -0.0133373 0.468787
-0.0246554 0.00152611 0.612596
-0.0140677 0.073794 1.49534
0.00902353 -0.000117603 0.176998
0 0 0
0.0467932 -0.0991117 0.852502
0.00702282 0.0131602 0.726875
0 0 0
0 0 0
-0.590045 -0.173659 1.0291
-0.00439228 -0.00159632 0.0998233
0.00601075 0.023593 0.0821727
-0.0144387 0.0204195 0.0476952
0.0147289 0.0154362 0.0860568
0 0 0
0 0 0
0.000541901 0.000100235 0.00774852
0.0266536 0.00613224 0.606062
0 0 0
0.0136479 0.0733473 1.49953
-0.00327023 0.00480978 0.161082
-0.0479643 -0.145625 0.797091
-1.14035e-05 3.45287e-07 0.000182202
-0.00736932 0.0132309 0.729779
0 0 0
0.16483 -0.0796088 0.411387
0.03166 0.0443578 0.108527
0.00202608 -0.000435228 0.0445698
-0.00136293 0.0106795 0.0511726
-0.00979712 0.0126968 0.0717642
-0.000759374 0.000139023 0.0114319
0 0 0
0 0 0
-0.0206065 -0.0327882 0.360674
-0.197567 0.0870486 0.125888
-9.42927e-09 3.98991e-07 1.04428e-05
0 0 0
-0.00266703 0.00100339 0.0513287
5.31444e-08 -1.52266e-06 -4.95376e-05
0.0295609 0.0163165 0.270287
-0.0253883 -0.0543815 0.00778689
0 0 0
0.00128259 -0.0639462 0.00977315
1.80082e-06 3.81246e-05 0.000522733
-6.16152e-18 -4.30952e-18 -1.1408e-16
0.000305773 0.0857884 0.0338449
0.000117931 0.0053884 0.0225002
-0.0228065 -0.0580178 0.267452
-0.212063 0.103087 0.412923
0.00171868 0.000220869 -0.000852331
9.4194e-05 -0.000317857 0.00812745
0 0 0
0.00077826 -0.000417823 0.0117145
0.292094 0.124955 0.190203
0.0288997 -0.0261432 0.304397
-7.57629e-08 -1.30204e-06 -4.26191e-05
0.00370858 0.00139787 0.0707572
0.0294006 -0.0535065 0.007297
-0.0295074 0.0166105 0.265421
0 0 0
0 0 0
0 0 0
0.0320325 -0.0857598 0.360213
-0.000803156 -0.000499858 0.0137402
0 0 0
0 0 0
0 0 0
0.00693719 -0.00408146 0.178941
-8.69364e-05 0.000728922 0.00794901
0 0 0
7.6932e-08 -1.88655e-07 -2.5314e-05
9.58433e-05 0.00268174 0.0154228
0.00333332 0.0165775 0.0633862
-2.23184e-08 7.17361e-08 1.01062e-05
0 0 0
0.00657776 0.0170574 0.0803935
-0.00801309 0.0146428 0.101097
7.36011e-05 0.0383137 0.077423
0.000135424 0.179242 0.530165
2.45896e-05 0.00121973 0.0191301
-2.37553e-06 -8.9734e-06 0.000762056
0 0 0
0 0 0
0 0 0
0.000164705 0.00108015 0.0129969
-3.02097e-05 0.00054073 0.00297707
-0.00278419 0.0140253 0.0531683
0.00919488 0.0161873 0.112588
-0.0155305 0.0462401 0.184272
-0.00186979 -0.00577877 0.0519197
-0.234882 -0.172407 0.925246
-0.000598096 -0.000508332 0.0751006
-0.000831265 -0.0025589 0.0155654
0.000844676 0.0163798 0.208735
0.011683 0.0309183 0.16763
0 0 0
0.00958568 0.02109 0.0959776
-0.0011687 0.00253226 0.012772
0 0 0