# vtk DataFile Version 2.0
tri_press
ASCII
DATASET UNSTRUCTURED_GRID
POINTS 3682 float
-0.735 0.115 -1.80511
-0.843063 0.175 1.735
-0.735 0.794959 -1.615
-0.500604 1.435 1.565
0.735 0.115 -1.80511
0.843037 0.175 1.735
0.775 0.815 -1.56514
0.50058 1.435 1.565
-0.78167 0.124351 -0.625073
-0.795258 0.166784 0.554963
-0.737796 1.08923 -0.555
-0.669364 1.31228 0.505
0.781759 0.124254 -0.625073
0.795568 0.166457 0.554963
0.741832 1.07997 -0.52176
0.671292 1.30757 0.52162
-1.4638 -0.468563 -2.7384
-1.48219 -0.362733 -1.84692
-1.5051 -0.347286 -0.662166
-1.49524 -0.359167 0.549665
-1.49745 -0.355758 1.73675
-1.51372 -0.297523 2.63961
-1.53264 -0.209383 3.52203
-1.46478 -0.0391796 -2.67926
-1.48306 0.0961498 -1.80288
-1.50798 0.153312 -0.641988
-1.48004 0.196207 0.532134
-1.46638 0.222191 1.69567
-1.50181 0.282224 2.59646
-1.5323 0.366193 3.48273
-1.46037 0.756226 -2.5314
-1.47529 0.882688 -1.65713
-1.46942 1.11967 -0.579373
-1.3738 1.31858 0.49298
-1.25264 1.43217 1.57429
-1.39038 1.48412 2.48099
-1.49515 1.54434 3.38794
-1.4509 2.14577 -2.3945
-1.45955 2.30701 -1.53361
-1.45401 2.59508 -0.502063
-1.4207 2.88732 0.505694
-1.39749 3.0894 1.54147
-1.43056 3.18698 2.41119
-1.49121 3.25721 3.30624
-0.72113 -0.457272 -2.7389
-0.733603 -0.346498 -1.85297
-0.759952 -0.358856 -0.655905
-0.762882 -0.383896 0.568587
-0.782038 -0.392673 1.76657
-0.812182 -0.324509 2.66052
-0.833595 -0.227066 3.5353
-0.721307 -0.0376781 -2.6712
-0.83887 0.258895 2.6139
-0.850515 0.351319 3.49325
-0.715531 0.722574 -2.50253
-0.750253 1.48005 2.4807
-0.835262 1.53942 3.3899
-0.714826 2.11541 -2.36779
-0.727655 2.2743 -1.50585
-0.737482 2.57789 -0.482787
-0.731532 2.88987 0.510886
-0.730841 3.09884 1.53702
-0.766592 3.19455 2.4061
-0.820918 3.26161 3.30341
0.764471 -0.456225 -2.72854
0.757634 -0.346866 -1.84967
0.781668 -0.359516 -0.653915
0.803939 -0.384467 0.569948
0.819116 -0.39299 1.76753
0.688508 -0.325019 2.66243
0.607314 -0.227853 3.53854
0.762345 -0.0346806 -2.65725
0.624342 0.258516 2.61531
0.561999 0.350571 3.49629
0.77587 0.731097 -2.4729
0.504904 1.4795 2.4828
0.503238 1.53852 3.39358
0.760149 2.11779 -2.34266
0.741575 2.27544 -1.47981
0.702273 2.57543 -0.461018
0.643015 2.88674 0.525705
0.579718 3.09667 1.5463
0.543774 3.19288 2.41336
0.515696 3.26011 3.31016
1.50972 -0.467198 -2.71465
1.505 -0.363874 -1.83097
1.52859 -0.350027 -0.650853
1.54198 -0.361213 0.556588
1.53194 -0.356968 1.7409
1.42568 -0.298887 2.64488
1.33757 -0.21114 3.52938
1.50573 -0.0351946 -2.64913
1.49139 0.0961756 -1.78087
1.51516 0.14928 -0.626256
1.50605 0.193706 0.540264
1.48128 0.221275 1.6986
1.3631 0.281023 2.60101
1.28825 0.364479 3.48981
1.51357 0.766322 -2.4811
1.50239 0.892495 -1.59943
1.47426 1.11106 -0.536587
1.38711 1.3124 0.515419
1.24717 1.43031 1.58091
1.21618 1.48248 2.48733
1.20707 1.54233 3.39635
1.49471 2.1491 -2.34739
1.47352 2.30797 -1.48572
1.42511 2.59052 -0.461624
1.3469 2.88157 0.534184
1.26416 3.08512 1.56033
1.22398 3.18357 2.4263
1.20125 3.25416 3.32023
-0.791026 0.45498 -1.76608
0 0.111345 -1.80877
-0.759633 0.118378 -1.21509
-0.755071 0.805 1.73324
-1.29938e-05 0.171447 1.73855
-0.825198 0.164854 1.14498
0.02 0.890052 -1.67514
-0.759713 0.965411 -1.085
-1.19805e-05 1.45994 1.58994
-0.607491 1.39615 1.035
0.808325 0.465 -1.73845
0.760808 0.117198 -1.21509
0.754983 0.805 1.73317
0.823413 0.166617 1.14498
0.766162 0.955232 -1.04345
0.608441 1.39379 1.04331
-0.789864 0.144168 -0.035055
-0.876842 0.606792 -0.590037
4.43885e-05 0.121543 -0.625073
-0.883764 0.739532 0.529982
0.000155173 0.129112 0.554963
-0.71213 1.20931 -0.025
0.00201834 1.32288 -0.53838
0.000963988 1.52258 0.51331
0.789957 0.144062 -0.035055
0.876824 0.602113 -0.573417
0.883567 0.737014 0.538292
0.715307 1.20252 -6.99759e-05
-0.889152 0.530886 -1.15005
0.889288 0.533557 -1.12927
2.21943e-05 0.120789 -1.21509
0.0110092 1.03986 -1.06423
0.00999999 0.45999 -2.03128
-0.886974 0.673162 -0.0300275
0.88701 0.669564 -0.0175625
9.9781e-05 0.12533 -0.035055
0.00149116 1.50206 -0.012535
-0.876486 0.772266 1.08999
0.877267 0.771007 1.09415
7.10898e-05 0.158585 1.14498
0.000476004 1.50706 1.03916
-1.24872e-05 0.805 1.91775
-0.759287 0.28499 -1.78187
-0.3675 0.111358 -1.80875
-0.74686 0.117146 -1.5101
-0.841415 0.49 1.77647
-0.421538 0.171566 1.73843
-0.832052 0.172006 1.43999
-0.766819 0.624969 -1.69435
-0.3575 0.869676 -1.67224
-0.767582 0.900411 -1.35
-0.629214 1.12 1.6505
-0.250308 1.45433 1.58433
-0.5676 1.42913 1.3
0.3675 0.111354 -1.80876
0.769907 0.29 -1.77002
0.746947 0.117056 -1.5101
0.421512 0.199872 1.71013
0.840879 0.49 1.77596
0.829224 0.17481 1.43999
0.3975 0.87603 -1.64364
0.792518 0.64 -1.65265
0.782681 0.897216 -1.3043
0.250284 1.45445 1.58445
0.629445 1.12 1.65075
0.567951 1.42784 1.30416
-0.779209 0.112807 -0.920083
-0.785917 0.134109 -0.330064
-0.872163 0.344118 -0.607555
-0.389262 0.126048 -0.625073
-0.808454 0.167593 0.849973
-0.792526 0.155511 0.259954
-0.856942 0.444443 0.542473
-0.403264 0.136523 0.554963
-0.754218 1.03279 -0.82
-0.848685 0.868696 -0.572518
-0.727085 1.15139 -0.29
-0.412916 1.29611 -0.54669
-0.640531 1.35632 0.77
-0.785238 1.03024 0.517491
-0.692323 1.26237 0.24
-0.380342 1.50971 0.509155
0.77934 0.112669 -0.920083
0.389326 0.126049 -0.625073
0.785999 0.134016 -0.330064
0.871589 0.342035 -0.599245
0.809536 0.166491 0.849973
0.403491 0.136525 0.554963
0.792641 0.15538 0.259954
0.856708 0.443165 0.546628
0.759106 1.02271 -0.782605
0.422824 1.30322 -0.53007
0.85215 0.862454 -0.547588
0.730657 1.14333 -0.260915
0.641994 1.35281 0.782465
0.383275 1.50937 0.517465
0.788199 1.02768 0.529956
0.69538 1.25712 0.260775
-0.882128 0.492933 -1.45806
-0.390513 0.457485 -1.98301
1.10971e-05 0.117946 -1.51193
0.005 0.285667 -1.89567
-0.875145 0.324632 -1.18257
-0.379805 0.120551 -1.21509
-0.868319 0.788633 1.41161
-0.377542 0.805 1.89076
2.9048e-05 0.163796 1.44177
-1.27405e-05 0.488224 2.0312
-0.89044 0.46856 1.11749
-0.412564 0.158672 1.14498
0.0155046 0.97753 -1.36968
0.015 0.675021 -1.8267
-0.883818 0.748149 -1.11752
-0.374352 1.04605 -1.07461
0.000232012 1.48788 1.31455
-1.22339e-05 1.13247 1.78911
-0.747359 1.08421 1.0625
-0.303507 1.49894 1.03708
0.882429 0.499278 -1.43386
0.409163 0.462495 -1.97806
0.875548 0.325377 -1.17218
0.380415 0.120554 -1.21509
0.868101 0.788004 1.41366
0.377485 0.805 1.8911
0.890513 0.468812 1.11956
0.411742 0.173479 1.14498
0.884907 0.744394 -1.08636
0.388585 1.02774 -1.05384
0.751988 1.0824 1.06873
0.304458 1.49868 1.04123
-0.861051 0.397349 -0.0325412
-0.396622 0.13127 -0.035055
-0.895255 0.568839 -0.870041
-0.883424 0.639977 -0.310032
3.32914e-05 0.123625 -0.920083
7.20847e-05 0.123436 -0.330064
-0.887858 0.706347 0.249977
-0.876305 0.755899 0.809986
0.000127477 0.127222 0.259954
0.000113132 0.140003 0.849973
-0.829322 0.95612 -0.0275137
-0.41862 1.48228 -0.0187675
0.00651375 1.1889 -0.801303
0.00175475 1.4437 -0.275458
0.00122758 1.52142 0.250388
0.000719996 1.51787 0.776233
0.861743 0.395183 -0.0263087
0.396741 0.131271 -0.035055
0.887582 0.567835 -0.851344
0.883346 0.635838 -0.29549
0.887571 0.703289 0.260365
0.87607 0.754011 0.816219
0.832766 0.951844 -0.00881623
0.42406 1.48361 -0.00630248
-0.865753 0.304811 -1.48408
-0.884078 0.345102 -0.895062
-0.8603 0.798081 -0.845021
-0.882388 0.686559 -1.40403
0.865576 0.307689 -1.47198
0.885295 0.692197 -1.36908
0.862756 0.792718 -0.816974
0.884212 0.34428 -0.885713
-0.373653 0.117674 -1.51101
0.373958 0.117673 -1.51101
0.385658 0.123438 -0.920083
-0.385309 0.123439 -0.920083
-0.365926 0.970064 -1.35984
-0.37112 1.16318 -0.810651
0.380255 1.17258 -0.791954
0.393043 0.9739 -1.33699
-0.379006 0.285328 -1.89536
-0.374006 0.649995 -1.78332
0.403331 0.65751 -1.7738
0.388331 0.287834 -1.8951
-0.870254 0.36891 -0.320048
-0.857274 0.421757 0.254966
-0.812345 0.995715 0.244989
-0.841948 0.91388 -0.300016
0.871197 0.366343 -0.312777
0.845311 0.908575 -0.278202
0.816336 0.992688 0.26057
0.857341 0.420116 0.260159
-0.392937 0.128669 -0.330064
0.393029 0.12867 -0.330064
0.400112 0.133905 0.259954
-0.399939 0.133904 0.259954
-0.426883 1.41143 -0.282729
-0.403668 1.50437 0.245194
0.407677 1.50451 0.255581
0.434927 1.41639 -0.268186
-0.876353 0.460859 0.829979
-0.887667 0.47928 1.4258
-0.730017 1.1021 1.35581
-0.765443 1.05506 0.789993
0.87684 0.460274 0.833096
0.766111 1.05235 0.799342
0.729939 1.1012 1.35891
0.887295 0.479406 1.42683
-0.405057 0.140175 0.849973
0.404802 0.140175 0.849973
0.416627 0.189388 1.44088
-0.417051 0.161345 1.44088
-0.318854 1.50938 0.773116
-0.276908 1.48184 1.30727
0.277371 1.48162 1.30935
0.320293 1.50905 0.779349
-0.39954 0.489112 2.00074
0.399499 0.489112 2.00062
0.313885 1.12624 1.76972
-0.313925 1.12624 1.76975
-0.745955 0.199995 -1.7923
-0.55125 0.111375 -1.80874
-0.740829 0.116174 -1.65761
-0.84139 0.3325 1.75488
-0.6323 0.172006 1.73799
-0.833793 0.177268 1.5875
-0.754741 0.709964 -1.6585
-0.54625 0.849051 -1.66035
-0.763066 0.85946 -1.4825
-0.565085 1.2775 1.60792
-0.375456 1.44982 1.57982
-0.540463 1.43842 1.4325
0.55125 0.111371 -1.80874
0.750984 0.2025 -1.7861
0.740971 0.116031 -1.65761
0.632275 0.172016 1.73798
0.841497 0.3325 1.75502
0.833808 0.177228 1.5875
0.58625 0.860923 -1.6198
0.779708 0.7275 -1.60484
0.78082 0.858088 -1.43472
0.375432 1.44984 1.57984
0.565151 1.2775 1.60801
0.540652 1.4378 1.43458
-0.785631 0.113387 -0.772578
-0.783794 0.12923 -0.477569
-0.828638 0.233374 -0.616314
-0.585347 0.125439 -0.625073
-0.796268 0.172776 0.702468
-0.793763 0.161276 0.407459
-0.854722 0.291302 0.548718
-0.607869 0.134437 0.554963
-0.748931 1.06393 -0.6875
-0.77773 0.97121 -0.563759
-0.732798 1.12067 -0.4225
-0.610769 1.2635 -0.550845
-0.655979 1.33533 0.6375
-0.730451 1.17284 0.511246
-0.685339 1.29182 0.3725
-0.562509 1.48631 0.507078
0.785625 0.113386 -0.772578
0.585405 0.125426 -0.625073
0.783883 0.129131 -0.477569
0.82834 0.232311 -0.612159
0.796222 0.172804 0.702468
0.608059 0.134431 0.554963
0.793871 0.161152 0.407459
0.854465 0.290647 0.550796
0.753818 1.05469 -0.652183
0.62401 1.27496 -0.525915
0.786168 0.965801 -0.534674
0.73683 1.11224 -0.391338
[...]
POINT_DATA 3682
SCALARS point_scalars float 1
LOOKUP_TABLE default
-151.954
-63.5829
-56.5241
-44.2122
-149.493
-63.5227
-82.0993
-44.9802
-47.7433
-40.5432
-85.0338
-62.2394
-47.6841
-40.4352
-79.5124
-61.9606
-54.2699
-121.125
-59.8914
-40.7199
-63.2655
-68.3398
-47.9762
-48.3183
-108.062
-61.5541
-41.9244
-58.3455
-47.8525
-46.3921
22.5327
-110.246
-62.0656
-54.7855
-48.3882
-43.392
-42.0956
-59.9522
-58.6765
-102.589
-68.6864
-46.6
-43.7262
-43.7262
-68.7314
-184.962
-50.3687
-42.5124
-62.392
-49.2246
-47.8115
-48.5194
-45.8722
-45.7107
127.435
-38.3946
-39.0492
-41.9057
-29.6608
-95.9675
-70.1043
-47.1404
-43.7262
-43.7262
-65.4166
-182.579
-50.1345
-42.5491
-62.3557
-49.4673
-47.6614
-47.5179
-45.9068
-46.1308
118.426
-37.4794
-39.4427
-44.7618
-30.9545
-92.9215
-70.3795
-46.0913
-43.6181
-41.4773
-116.29
-122.426
-59.5931
-40.6006
-63.1651
-68.5647
-46.9438
-116.29
-123.237
-61.1429
-41.909
-58.4122
-48.1687
-45.8732
-7.53349
-115.089
-61.4035
-54.8772
-49.0487
-41.9099
-41.6194
-67.2122
-49.7131
-98.7785
-68.8925
-47.172
-44.4717
-44.4717
-46.471
-155.061
-65.6559
-46.2768
-55.7114
-47.4183
-41.6212
-64.7742
-39.6246
-53.2992
-69.2929
-65.6077
-46.777
-47.5574
-61.1125
-53.5175
-41.0949
-52.9885
-48.8828
-48.2644
-46.4613
-71.9401
-23.879
-74.9242
-41.2033
-52.6212
-48.4203
-70.7545
-75.3256
-74.486
-69.4461
11.4547
203.118
-49.1249
-49.1601
-43.9653
-104.202
-49.308
-49.6426
-47.3475
-56.3488
-41.9466
-46.3854
-156.803
-98.9462
-53.824
-57.0798
-49.644
-40.1117
-55.1092
-77.0699
-41.3418
-40.7233
-49.7645
-156.68
-55.4092
-98.9141
-55.3182
-54.126
-49.1154
-43.2275
-61.253
-75.6299
-41.131
-42.0841
-50.2306
-55.7052
-42.4605
-50.5859
-48.5094
-30.9544
-40.731
-43.0576
-45.1177
-80.4466
-62.7095
-77.0025
-28.8635
-58.0578
-56.6736
-66.0334
-72.2856
-55.8229
-48.5346
-42.5362
-50.1852
-25.8904
-44.6027
-40.7973
-43.1154
-80.8655
-32.4328
-62.0415
-75.3595
-58.0169
-71.9964
-56.7244
-65.4188
-111.944
183.305
-97.8536
190.801
-73.0689
-68.5119
-55.0251
-41.1218
-49.9082
-46.3859
-50.2426
-46.9611
-20.0679
159.75
-76.6858
-1.7858
-47.9454
-33.4453
-51.0212
-55.938
-108.393
180.305
-72.6733
-68.5386
-55.4886
-41.6315
-50.601
-47.9194
-75.2381
0.328753
-51.474
-56.0015
-44.4875
-43.1256
-64.4875
-50.2718
-56.1363
-45.6113
-49.1715
-48.0225
-44.0806
-47.0196
-60.0813
-98.643
10.8309
-81.0221
-90.0199
-64.5881
-44.5964
-43.2386
-63.5429
-50.096
-49.2225
-48.3228
-59.851
-98.443
-112.428
-62.2432
-64.7864
-109.79
-108.977
-105.021
-63.5544
-61.9941
-97.6608
-97.6792
-55.5836
-55.5518
-27.3654
4.87218
2.47377
-27.3438
179.431
138.185
135.365
178.501
-45.4916
-43.928
-58.916
-62.1071
-45.5671
-61.3963
-59.3616
-44.0191
-44.8258
-44.8766
-43.3559
-42.9841
-71.8757
-84.8499
-84.2708
-73.9937
-41.8312
-53.4735
-50.9765
-53.6584
-42.3046
-53.7929
-51.5708
-53.8363
-46.3432
-47.5477
-50.172
-50.2222
-63.5936
-48.3035
-48.5133
-63.4728
-45.9598
-45.9844
-36.6483
-35.6212
-47.5312
-181.789
-133.417
-58.2818
-60.0664
-51.734
-46.5947
-39.8086
-79.1122
-41.2069
-41.8875
-46.62
-180.993
-48.4434
-133.674
-60.2616
-58.5437
-51.6833
-48.2179
-72.9067
-79.9081
-42.5301
-41.9597
-47.1735
-57.3443
-44.313
-49.3164
-47.8492
-38.3159
-40.6987
-40.6681
-43.7934
-86.4796
-72.2045
-78.9761
-58.4425
-60.0865
-59.1231
-65.7821
-67.8967
-57.1299
-47.8619
-44.334
-49.0054
-37.699
-43.8852
-40.6986
-40.5892
-85.6373
-68.4992
-70.4488
-76.6205
-59.9624
-67.5644
-59.038
-65.4105
-45.4534
-39.372
-125.202
125.194
-155.409
-155.355
-121.281
77.2822
-78.7944
-59.4793
-70.9111
-67.4834
-48.1888
-43.0147
-52.154
-41.9676
-56.0559
-55.1166
-51.6651
-46.705
-47.3396
-55.4005
-50.2152
-46.7534
-40.709
-43.8744
-34.1356
101.24
-62.7827
-63.3984
-74.3299
-19.5458
-39.8232
-40.0234
-43.7553
-34.9559
-52.2729
-55.5943
-51.8093
-55.3618
-66.5651
-52.4306
-127.592
115.07
-78.809
-60.0345
-70.742
-67.5265
-48.6024
-43.6715
-52.6403
-42.4925
-47.4831
-61.4416
-50.6857
-47.4775
-65.2444
-70.0381
-72.0278
-17.8256
-52.4933
-55.7435
-52.18
-55.4296
-41.4875
-40.7977
-42.048
-42.1904
-51.5172
-56.9072
-57.4303
-51.0299
-48.7423
-48.7582
-51.8754
-47.1809
-45.308
-51.9251
-48.659
-47.9531
-46.322
-46.2269
-44.8696
-45.6534
-74.3418
-69.1444
-64.8353
-88.3617
-23.3795
-25.5834
-4.43454
-46.5686
-74.4734
-74.3269
-81.8674
-69.5781
-41.5843
-40.898
-42.1327
-42.303
-51.0497
-56.4279
-56.5012
-50.8416
-45.4536
-52.0112
-48.7617
-48.1935
-72.9571
-68.2801
-64.5591
-87.0293
-88.038
-74.3749
-76.1608
-68.5598
-85.476
-73.5475
-75.0795
-67.9839
-80.9126
-69.2794
-69.2925
-61.7466
-4.61467
8.67729
9.47307
17.8007
201.698
190.143
158.693
198.511
-46.2167
-49.6215
-49.1432
-52.7526
-46.308
-49.5983
-49.3229
-52.3746
-43.7288
-44.5421
-43.7937
-43.7971
-103.343
-101.53
-98.1867
-102.856
-52.7162
-49.6376
-50.4605
-47.8419
-53.242
-50.0142
-50.7021
-48.204
-48.1532
-47.1755
-47.5129
-48.2845
-52.276
-56.256
-56.2941
-60.2624
-41.7815
-43.1475
-35.8254
-42.0177
-126.916
95.9111
-122.263
67.1117
-113.173
-97.923
-55.7283
-45.587
-52.2097
-46.166
-52.4792
-50.1905
-103.429
88.8318
-41.8996
76.4201
-89.7794
-39.0065
-47.2136
-38.2436
-44.3993
-36.3318
-50.3867
-48.7584
-122.263
72.2926
-134.609
93.4958
-110.274
-97.9398
-51.9059
-46.2729
-55.8576
-45.6634
-52.2592
-49.8382
-39.6258
71.0133
-106.377
70.8783
-88.888
-39.4109
-44.7122
-36.9573
-47.8638
-38.9985
-50.9748
-49.042
-61.8004
-55.2672
-43.2652
-43.9002
-58.0078
-46.946
-51.442
-46.4334
-37.052
-46.1959
-41.7086
-42.0267
-43.6487
-41.8008
-43.692
-44.862
-69.6223
-12.2714
-62.6587
-62.2415
-69.2922
-99.3523
-9.79861
-50.6109
-55.6832
-61.9871
-58.0435
-54.6795
-61.5852
-76.2231
-78.2146
-67.8578
-61.836
-55.3366
-51.4956
-46.4682
-43.364
-43.96
-57.4055
-46.7714
-37.687
-47.1286
-43.904
-45.4615
-41.7803
-42.1832
-43.731
-41.9217
-68.261
-13.9957
-13.2051
-53.6534
-61.8637
-61.3173
-68.5969
-96.2162
-55.7616
-61.6367
-77.7738
-67.6682
-56.6337
-55.1016
-61.8833
-75.5934
-110.316
-117.103
177.017
135.293
-97.9496
-97.9598
187.3
187.569
-85.6068
-66.2225
-80.1605
-60.9211
-54.2972
-52.4071
-42.7265
-37.2437
-49.8585
-50.0117
-46.2042
-46.2156
-46.7461
-51.3708
-48.0193
-47.8223
-21.4632
-21.4764
153.32
151.534
-70.3192
-89.9102
-15.1222
8.62462
-48.0689
-48.1747
-34.4512
-33.9431
-52.1091
-52.6513
-59.7639
-52.2906
-107.309
-110.448
135.391
177.286
-84.4042
-66.0637
-80.1844
-60.9578
-52.9598
-54.8054
-43.066
-38.203
-47.312
-51.7123
-49.7661
-48.5197
-85.0259
-68.8855
7.93721
-14.7605
-52.891
-52.5779
-52.4175
-59.7513
-44.7689
-44.297
-43.7357
-42.8805
-63.3292
-64.4779
-47.3226
-54.8646
-56.0055
-55.9918
-45.405
-45.4017
-46.1017
-53.9884
-44.5988
-51.0628
-43.909
-43.7469
-46.6549
-47.29
-59.6891
-60.5797
-98.7062
-92.846
10.1907
8.98185
-77.1463
-79.6802
-89.1563
-88.7609
-64.3594
-64.2721
-44.9058
-44.4282
-43.8106
-43.065
-63.1333
-62.5962
-47.2836
-54.5024
-53.9883
-46.1589
-44.878
-51.3131
-60.4239
-59.4804
-91.9597
-99.0509
-113.541
-86.0089
-86.2583
-126.413
-62.0775
-58.0979
-67.5202
-65.4146
-71.932
-67.9273
-70.5161
-59.0096
-92.7235
-121.215
-88.4642
-81.5208
-119.696
-132.405
-84.805
-85.1215
-95.5554
-78.3078
-84.9189
-124.384
-71.7029
-58.0948
-69.3235
-69.3704
-61.9137
-65.336
-67.097
-57.589
-124.586
-121.718
-80.8197
-79.5257
-124.601
-79.5457
-80.834
-121.71
-51.4966
-51.7616
-61.592
-60.1918
-51.4766
-60.1009
-61.5775
-51.7478
-47.6869
-29.0548
-6.79207
-35.5832
-41.6893
-4.26535
15.5516
-9.06162
-58.2007
-10.6477
15.3106
-5.86569
-48.7589
-35.7192
-6.6821
-29.3578
57.5412
105.813
186.168
48.8567
50.5609
107.714
143.182
92.167
29.0313
78.5578
148.103
91.1773
59.3578
44.0391
186.029
99.2959
-44.8445
-42.3367
-46.6825
-48.5255
-41.43
-45.8649
-46.1424
-41.9277
-61.7211
-63.3753
-52.7531
-52.4951
-70.3633
-55.3939
-53.9491
-66.5955
-44.8143
-48.3437
-46.745
-42.4293
-68.6815
-66.1485
-53.8318
-55.0051
-60.3395
-52.5031
-53.4096
-62.9357
-41.4386
-42.0336
-46.2913
-45.9474
-45.6454
-47.0026
-44.3256
-42.8124
-45.6817
-42.8978
-44.3698
-47.0237
-42.4729
-44.674
-43.6365
-42.0931
-42.4276
-41.9489
-43.5145
-44.6319
-83.6198
-96.1138
-102.154
-46.85
-72.3429
-81.3373
-96.5826
-82.4036
-71.756
-81.046
-96.1983
-81.0731
-91.3283
-49.203
-102.211
-96.858
-38.3676
-49.2584
-45.4122
-44.8998
-56.4058
-55.6612
-51.7585
-50.754
-46.7961
-52.288
-52.4259
-49.3194
-57.4868
-51.317
-51.3877
-53.9553
-38.1056
-45.1158
-45.8251
-50.4508
-57.5462
-54.1641
-51.6551
-51.5594
-47.4719
-49.9022
-52.9407
-52.7673
-56.5445
-51.0499
-52.1915
-56.0894
-41.7191
-45.2835
-48.0692
-49.0194
-42.0274
-50.2351
-48.8955
-45.6364
-52.1995
-51.3625
-48.2222
-47.9037
-52.6063
-47.5561
-48.0488
-51.8814
-64.2577
-58.8634
-60.1706
-69.3044
-45.1383
-43.9159
-52.2932
-52.126
-45.5415
-52.3336
-52.3588
-44.0681
-64.0478
-69.2313
-60.1768
-58.8673
-46.4099
-46.4977
-42.7552
-43.2713
-46.4621
-43.6318
-42.9211
-46.5479
-38.5692
-35.593
-36.4202
-40.2905
-37.9051
-39.4734
-35.8947
-35.1957
-60.4614
-166.266
-181.309
-63.1912
-62.7562
-53.3294
-53.2347
-37.2326
-69.4498
-42.3344
-43.0282
-45.5212
-166.406
-58.4647
-182.325
-63.2267
-63.2697
-53.2984
-51.0399
-77.7987
-88.1186
-43.7408
-43.1108
-46.2284
-53.0082
-45.6898
-48.7228
-47.6282
-39.6699
-40.8089
-40.1323
-42.4469
-90.7135
-77.47
-80.3129
-95.1559
-61.038
-60.6782
-64.2632
-64.2425
-52.886
-47.619
-45.6723
-48.5556
-39.4548
-42.4565
-40.7347
-40.0307
-83.2332
-97.623
-73.907
-77.7771
-60.8486
-63.9125
-60.5177
-63.7716
-45.882
-43.0808
-96.9341
57.1015
-153.544
-153.493
-137.634
-91.2205
-71.4927
-61.6401
-69.0451
-66.64
-47.1085
-44.8055
-49.2591
-42.7646
-55.7574
-55.644
-53.6766
-49.1179
-46.5124
-49.025
-49.462
-46.9829
-41.9018
-41.4705
-40.9048
-57.1087
-60.1442
-64.5523
-76.2533
-35.8447
-39.4691
-39.5604
-41.4833
-36.293
-52.4168
-54.4409
-52.3428
-54.7466
-65.4876
-58.6882
-104.997
37.7327
-71.3426
-61.6462
-68.8236
-66.6794
-47.5564
-45.3822
-49.7349
-43.2458
-46.3337
-49.2294
-49.3266
-47.5432
-60.9057
-67.327
-70.8252
-40.4388
-52.6282
-54.5257
-52.5747
-54.9043
-41.2828
-41.1907
-41.7443
-41.5276
-51.9024
-54.7406
-54.3542
-51.9415
-48.8774
-48.8852
-50.0178
-48.1482
-46.7734
-50.0296
-48.4243
-48.0424
-46.5007
-46.5251
-45.4985
-46.1558
-73.1051
-70.5967
-68.1526
-78.7169
-23.5647
-24.5433
-15.4429
-36.9035
-74.8268
-74.7532
-78.2654
-72.0979
-41.3832
-41.2938
-41.8434
-41.6364
-51.5211
-54.2128
-53.9508
-51.5549
-46.9213
-50.1918
-48.5384
-48.2206
-71.7803
-69.6656
-67.3604
-77.35
-80.1486
-74.7255
-76.1084
-71.9389
-78.7885
-73.8918
-75.1464
-70.8581
-74.6251
-69.419
-69.4241
-65.2763
4.35803
10.1566
11.1949
16.2616
198.942
198.701
175.109
200.361
-47.6962
-49.4199
-49.0555
-50.7475
-47.7679
-49.4193
-49.1717
-50.5514
-43.8772
-44.1917
-43.8301
-43.9124
-104.174
-104.705
-100.843
-103.884
-50.2848
-49.1462
-50.2295
-48.5772
-50.7611
-49.5128
-50.6874
-48.9231
-47.4008
-47.2984
-47.4628
-47.402
-54.3478
-56.3236
-56.3439
-58.3522
-41.8318
-42.9731
-39.5897
-41.9536
-51.6616
-39.4877
-99.3327
61.6725
-167.989
-154.082
-140.278
-86.9427
-112.663
-87.4872
-114.541
-97.3844
-56.334
-50.0581
-55.9904
-46.6684
-58.385
-56.3957
-54.5405
-48.6153
-50.1967
-48.7365
-51.388
-50.0396
-42.974
-34.4448
-86.5235
34.3051
-46.9016
-47.1714
-48.6491
-5.44764
-74.9309
-71.6672
-88.0273
-53.0009
-41.1161
-42.0183
-44.5795
-39.2631
-40.9911
-39.9003
-42.2262
-37.2755
-47.7933
-51.4586
-50.2229
-49.3231
-167.605
-154.038
-140.323
-85.2839
-63.1688
-58.2731
-102.108
46.9929
-112.799
-87.4217
-111.174
-97.3876
-57.9581
-53.9868
-53.2968
-48.6362
-56.5732
-50.4133
-56.3274
-46.8432
-49.3608
-49.1548
-51.1634
-49.548
-43.0901
-47.5347
-44.9912
-37.1501
-68.7162
-56.4635
-97.3556
10.7979
-76.3013
-72.7094
-85.7643
-52.9534
-41.5666
-40.2616
-42.5707
-37.7988
-41.8621
-42.7383
-45.2892
-39.9577
-48.2722
-51.8579
-50.7754
-49.6787
-54.975
-57.0793
-60.3685
-55.2998
-43.2849
-41.9765
-42.8329
-43.1554
-49.9673
-51.8941
-54.7565
-48.0124
-48.2929
-48.583
-49.8675
-47.4267
-34.9096
-48.5801
-30.5998
-44.9852
-40.7486
-40.8212
-41.391
-41.2252
-41.9309
-44.0539
-43.4878
-42.5401
-44.3357
-45.8217
-44.7149
-44.6227
-86.5312
-75.7694
-76.5902
-42.4297
-66.861
-59.3315
-62.5977
-62.4529
-77.9174
-75.7119
-71.962
-91.6763
-34.7348
-25.888
-18.275
-38.5084
-59.1426
-56.6341
-56.6665
-60.0713
-57.5745
-54.5467
-57.5287
-55.7314
-65.5298
-67.5935
-63.7285
-70.0267
-70.83
-73.587
-75.1587
-69.9896
-54.9463
-57.8557
-60.5199
-55.3711
-48.3161
-48.6053
-49.8913
-47.4556
-43.3417
-42.065
-42.8967
-43.2211
-49.4886
-51.2816
-53.88
-47.8092
-33.7249
-51.2538
-30.5405
-45.8213
-44.4053
-45.3485
-43.6483
-45.0571
-40.7929
-40.9061
-41.4609
-41.3273
-41.9548
-44.1574
-43.5776
-42.6408
-84.3065
-75.6563
-75.562
-48.2728
-39.6042
-28.7685
-20.9095
-41.8622
-65.4281
-58.7559
-61.9939
-61.5096
-76.0826
-74.1697
-70.8703
-87.0235
-59.0711
-56.7118
-56.736
-60.1796
-70.5446
-73.3374
-74.7978
-69.7738
-57.6516
-54.6094
-57.4828
-55.952
-64.9823
-66.8277
-63.3157
-69.3704
-124.103
-99.57
-109.666
-115.324
161.58
192.287
180.806
166.313
-108.759
-88.5957
-97.854
-97.8561
160.921
190.899
189.679
189.782
-71.9461
-73.7527
-77.5495
-69.2634
-68.0773
-68.9339
-73.7056
-64.3736
-54.6589
-54.4273
-55.0597
-53.6903
-41.3832
-41.4929
-42.4519
-39.4355
-50.4256
-49.2872
-49.8715
-49.9434
-46.3084
-44.5524
-46.2132
-46.2211
-50.2685
-50.2968
-48.9375
-50.7142
-46.7678
-47.0488
-46.9418
-47.044
-26.9637
-13.4682
-20.1123
-20.2263
160.263
162.464
158.64
157.983
-75.8754
-76.925
-73.7157
-81.2779
-10.5337
4.85289
-7.25035
1.74225
-45.8293
-50.2345
-47.9943
-48.0478
-33.7821
-33.7731
-33.7378
-33.4908
-51.1081
-51.4245
-51.2758
-51.7983
-55.7034
-56.1291
-57.8313
-54.1822
-120.821
-95.7614
-107.11
-109.678
159.347
194.923
160.495
180.558
-71.777
-73.2106
-76.782
-68.9476
-68.112
-68.9548
-73.7346
-64.406
-55.1249
-54.9804
-54.2184
-55.5114
-41.9811
-41.8509
-42.8328
-40.1091
-50.7083
-50.5582
-49.5695
-51.0885
-47.5359
-47.7869
-47.9649
-48.0355
-74.0955
-75.3796
-78.9132
-72.1481
-5.3752
5.93741
5.67175
-7.75358
-51.5957
-51.858
-51.9778
-51.9099
-55.7786
-56.1787
-54.2839
-57.8575
-43.2109
-45.1852
-44.7788
-44.5276
-42.7273
-43.44
-43.3872
-42.9792
-61.8152
-65.7495
-63.7216
-64.8141
-50.5885
-49.936
-48.5788
-52.2257
-53.8679
-58.7388
-56.0392
-56.0327
-46.3287
-45.0022
-45.4534
-45.4692
-48.9984
-49.2319
-47.5459
-51.0718
-47.8881
-47.9506
-46.3735
-49.4566
-44.4074
-43.8884
-44.0366
-43.9724
-46.2781
-48.7566
-46.7085
-46.9914
-63.2475
-56.2403
-59.9758
-60.3373
-95.2826
-101.922
-100.925
-96.3754
2.53757
15.4641
10.8199
10.3605
-60.5686
-96.252
-79.4048
-81.0709
-85.8309
-94.5654
-89.8752
-89.6969
-67.0243
-62.2707
-64.6027
-64.5618
-43.2856
-45.3111
-44.8383
-44.6618
-42.844
-43.5366
-43.4788
-43.1218
-60.201
-65.659
-63.6911
-62.8736
-50.4088
-49.8481
-48.4699
-52.0087
-49.0002
-49.3888
-50.9721
-47.6239
-48.1392
-48.2718
-46.6537
-49.7644
-63.1207
-55.9411
-60.033
-60.0598
-94.7442
-101.787
-95.7111
-100.69
-131.195
-112.694
-111.531
-96.655
-61.9014
-59.6262
-64.0187
-62.5763
-66.8576
-63.4137
-66.9853
-64.1403
-109.986
-98.3325
-116.927
-99.4988
-130.317
-109.617
-108.33
-94.7599
-112.631
-96.3733
-110.873
-95.1196
-65.8036
-62.2895
-66.2891
-62.8081
-61.8997
-59.9943
-63.7315
-62.1633
-108.936
-97.8907
-97.6537
-88.0187
-108.948
-97.9048
-97.6726
-88.0442
-55.3516
-53.4221
-58.0734
-55.7385
-55.3042
-53.3932
-58.0371
-55.7154
-34.4513
-32.6768
-24.0295
-20.9808
-1.05307
-1.06596
8.03568
8.0048
-3.45581
-3.3162
6.85067
6.19953
-33.5233
-32.3603
-23.7892
-20.4312
146.257
148.158
178.376
184.139
129.4
128.574
139.418
143.768
134.379
124.334
142.938
133.186
148.545
146.214
183.859
177.876
-44.2272
-46.3443
-45.3572
-46.2917
-42.6571
-43.8385
-44.1447
-44.8147
-58.7293
-59.6539
-56.0045
-59.3262
-62.1357
-66.0479
-57.4921
-61.4649
-44.3077
-46.2104
-45.3597
-46.2712
-61.1591
-65.426
-57.228
-61.0787
-58.6214
-61.6219
-55.7122
-59.0681
-42.723
-43.9092
-44.2803
-44.8614
-44.43
-45.5491
-44.2114
-45.1394
-45.5912
-44.4858
-45.1819
-44.2727
-43.9864
-42.8207
-43.6998
-43.1691
-42.5478
-42.9246
-42.9161
-43.3937
-76.3624
-59.6609
-87.5345
-74.0044
-81.9894
-81.3761
-88.6304
-87.1098
-80.9186
-81.3505
-86.5895
-87.9761
-63.806
-78.5338
-77.2533
-89.7463
-41.175
-40.4604
-44.1993
-43.0224
-54.3426
-53.0409
-53.8316
-52.2256
-49.2644
-50.5673
-51.5177
-51.7428
-54.5173
-54.0657
-53.2036
-52.8529
-41.7051
-40.763
-44.5786
-43.3671
-54.6317
-54.5436
-53.365
-53.0904
-49.8852
-51.1555
-52.1308
-52.291
-54.6866
-53.2087
-54.301
-52.6342
-46.4231
-45.5854
-48.6706
-46.4929
-47.5046
-46.4212
-50.9304
-47.5172
-50.9112
-50.0011
-50.1965
-49.4609
-51.0309
-50.2347
-50.1607
-48.969
-63.0097
-65.6911
-61.6651
-63.9061
-46.3911
-48.5516
-48.1668
-50.3415
-46.6426
-48.8027
-48.3225
-50.508
-62.842
-65.5411
-61.6153
-63.7973
-45.65
-45.9042
-44.3659
-46.1196
-45.9459
-45.6952
-46.1366
-44.5485
-36.6065
-37.7629
-35.5591
-37.4981
-36.8984
-35.8278
-36.2155
-34.6839
-104.044
52.4558
-148.795
-52.883
-117.133
-124.783
-59.7663
-48.6711
-55.7917
-49.5274
-54.8382
-52.6499
-88.2635
14.6538
-57.1673
4.82924
-90.3639
-55.0785
-44.588
-38.9068
-43.3181
-38.8596
-46.8271
-45.7612
-148.969
-53.0873
-98.4416
47.22
-119.746
-124.821
-55.5049
-49.388
-59.8738
-48.7661
-54.8519
-52.3798
-51.8613
-8.75413
-95.7417
-10.5642
-91.608
-59.5877
-43.8062
-39.5616
-45.3044
-39.6033
-47.4893
-46.2346
-62.7244
-52.0991
-44.4676
-45.0585
-56.6748
-46.3029
-49.0605
-46.8406
-37.2357
-39.4324
-41.1498
-41.5268
-41.1453
-39.666
-42.9551
-43.3157
-78.7416
-84.1727
-72.8548
-70.8225
-73.9781
-103.625
-49.1767
-63.3588
-58.7058
-61.3066
-60.5218
-58.1957
-63.7115
-68.4845
-70.04
-65.8092
-62.5583
-52.0765
-49.0708
-46.8076
-44.4471
-45.0924
-55.9689
-46.1517
-36.7214
-39.2545
-42.9816
-43.5088
-41.1443
-41.5653
-41.117
-39.5256
-77.8936
-94.8604
-63.1963
-78.5664
-71.3574
-69.6468
-72.3172
-95.3354
-58.6707
-61.2175
-69.5365
-65.75
-60.5857
-58.2062
-63.3655
-68.3472
-107.384
51.0962
-84.4786
39.7829
-127.564
-129.073
118.737
118.09
-138.35
-76.676
-138.364
-76.0258
-121.485
-121.477
38.3657
39.902
-84.9915
-78.8587
-63.5805
-59.5805
-77.0899
-68.1094
-72.7965
-63.4038
-53.1568
-44.0857
-46.7785
-40.6384
-54.9174
-50.2725
-43.0482
-40.7862
-53.9351
-48.6135
-53.1029
-48.7415
-51.5341
-51.8071
-46.7418
-46.7378
-49.4007
-47.5052
-53.7582
-51.2822
-50.1783
-50.4106
-46.8372
-46.7574
-43.4406
-39.7478
-41.9878
-44.1977
-34.1611
-34.4731
112.164
104.599
-75.5307
-41.6469
-73.2834
-32.9084
-69.7425
-77.5895
-24.3358
-12.9367
-41.6652
-36.4854
-41.8373
-36.7865
-43.7927
-43.8703
-35.1389
-34.9429
-52.3228
-52.5158
-54.6622
-57.9344
-51.8268
-53.005
-57.0915
-53.8251
-109.431
36.9079
-101.764
16.7202
-130.096
-126.693
102.158
113.929
-84.3904
-78.8644
-63.8921
-59.8015
-76.3404
-68.4375
-72.825
-63.479
-53.553
-44.4473
-47.4052
-41.2619
-50.7937
-55.3553
-43.4515
-41.4318
-49.8441
-47.7844
-56.3848
-53.3788
-51.0207
-50.8709
-47.8049
-47.2745
-73.3567
-44.6888
-74.2163
-40.3826
-75.0175
-69.0998
-13.9756
-23.2792
-52.7678
-52.708
-54.8373
-58.2615
-53.2764
-52.2327
-53.9605
-57.1198
-42.0131
-42.0442
-41.5703
-41.1909
-42.0435
-41.9191
-42.4722
-42.0563
-54.7948
-49.5264
-57.6014
-56.0211
-57.7905
-57.7473
-49.5698
-52.9563
-49.8673
-47.986
-49.8802
-48.0044
-51.6909
-51.6841
-47.1274
-47.1361
-45.624
-45.0854
-52.219
-51.5908
-47.2208
-50.2652
-46.2862
-49.612
-45.2221
-46.3533
-45.0956
-46.4689
-44.8313
-44.8133
-45.5124
-45.6655
-70.4377
-83.8985
-66.0155
-74.3008
-64.0141
-65.5922
-91.6338
-86.2969
-15.0362
-36.7068
-16.8818
-38.7262
-4.19196
-5.00068
-46.2564
-47.1939
-77.7763
-71.7557
-77.5651
-71.6536
-81.7643
-81.6281
-69.5425
-69.512
-42.0938
-42.1348
-41.6733
-41.3089
-42.1389
-42.0127
-42.5714
-42.1848
-54.2179
-49.2748
-57.0889
-55.5218
-56.6539
-57.1819
-49.3867
-52.6412
-45.7399
-45.2477
-52.3495
-51.7604
-50.3433
-47.3116
-46.5337
-49.8414
-69.3996
-82.1634
-65.3843
-73.3706
-65.3405
-63.4489
-84.1434
-90.1574
-87.286
-87.7847
-79.0803
-70.798
-73.4064
-80.4734
-67.9855
-69.2172
-85.486
-84.7815
-78.091
-70.1995
-79.0181
-71.7265
-68.45
-67.4339
-80.8446
-80.8492
-74.4796
-65.1067
-74.4955
-65.121
-61.6466
-61.6407
-4.53946
-5.09939
1.47471
12.633
13.5756
2.48473
17.3531