# vtk DataFile Version 2.0
tet_velo
ASCII
DATASET UNSTRUCTURED_GRID
POINTS 29498 float
-0.795 0.235 -2.26207
-0.645 0.295 2.24543
-0.795 0.846646 -2.225
-0.545 0.875871 2.275
0.795 0.235 -2.26207
0.645 0.295 2.24539
0.795 0.846646 -2.225
0.545 0.875871 2.275
-0.811489 0.188511 -0.75957
-0.790599 0.179401 0.74293
-0.803908 0.948629 -0.725
-0.745355 0.983151 0.775
0.811959 0.188041 -0.759583
0.790599 0.179401 0.742903
0.803912 0.948633 -0.725
0.745357 0.983153 0.775
-1.57958 -0.149788 -3.48018
-1.58573 -0.13502 -2.27919
-1.582 -0.168782 -0.776622
-1.52333 -0.175436 0.726446
-1.40754 -0.104497 2.22905
-1.38247 -0.0768307 3.43026
-1.39841 -0.0729621 4.63108
-1.58399 0.195751 -3.46254
-1.59128 0.226878 -2.26182
-1.58911 0.2052 -0.759741
-1.50868 0.187624 0.742564
-1.34389 0.238194 2.24469
-1.34137 0.262857 3.44586
-1.37766 0.268765 4.64676
-1.58444 0.859325 -3.42657
-1.59017 0.889931 -2.22574
-1.58048 0.95378 -0.725366
-1.473 0.957642 0.774833
-1.27969 0.892111 2.27526
-1.30786 0.915335 3.47654
-1.36612 0.940344 4.67784
-1.57146 1.93125 -3.37447
-1.57128 1.97238 -2.17402
-1.55801 2.03917 -0.674456
-1.5156 2.05996 0.824573
-1.45644 2.02277 2.32417
-1.4331 2.00325 3.52468
-1.43719 2.00614 4.72571
-0.788867 -0.146497 -3.48035
-0.791565 -0.129764 -2.27942
-0.799669 -0.178254 -0.776595
-0.787394 -0.179319 0.726753
-0.714294 -0.0723764 2.22959
-0.697607 -0.0548736 3.43062
-0.70927 -0.0618019 4.63128
-0.792367 0.194511 -3.4626
-0.671324 0.283802 3.44616
-0.697416 0.27813 4.64692
-0.793175 0.841594 -3.42626
-0.644855 0.913693 3.47648
-0.692425 0.940704 4.67783
-0.787834 1.92023 -3.37417
-0.789998 1.96256 -2.17369
-0.791712 2.03949 -0.674256
-0.783494 2.06556 0.824545
-0.758263 2.02122 2.32399
-0.742893 1.99873 3.5245
-0.744298 2.00245 4.72558
0.798729 -0.146565 -3.48035
0.802195 -0.129872 -2.27943
0.803449 -0.178572 -0.776608
0.760261 -0.179386 0.72673
0.661822 -0.072391 2.22956
0.651478 -0.0548945 3.4306
0.656803 -0.0618322 4.63127
0.796016 0.194473 -3.4626
0.630462 0.283789 3.44614
0.64452 0.278105 4.6469
0.794295 0.841572 -3.42626
0.595634 0.913682 3.47647
0.627451 0.940681 4.67781
0.78493 1.92018 -3.37417
0.780298 1.96252 -2.17369
0.754217 2.03944 -0.674259
0.69307 2.06553 0.824541
0.632745 2.02119 2.32398
0.624062 1.9987 3.52449
0.631472 2.00241 4.72557
1.59136 -0.149948 -3.48019
1.59583 -0.135258 -2.27919
1.59046 -0.169227 -0.776643
1.52245 -0.175614 0.726408
1.39442 -0.104551 2.229
1.35671 -0.0768857 3.43021
1.35786 -0.0730307 4.63104
1.59018 0.195638 -3.46255
1.59446 0.226733 -2.26183
1.59615 0.204738 -0.759759
1.52563 0.187481 0.74253
1.36264 0.238166 2.24464
1.32606 0.262818 3.44582
1.3383 0.268706 4.64673
1.58726 0.859252 -3.42657
1.59128 0.889879 -2.22574
1.58431 0.953619 -0.725372
1.48541 0.957552 0.774821
1.29271 0.892089 2.27524
1.28275 0.9153 3.47651
1.3144 0.94029 4.67782
1.56874 1.93115 -3.37448
1.56174 1.97229 -2.17403
1.52606 2.03907 -0.674464
1.44404 2.05987 0.824562
1.35613 2.0227 2.32415
1.33076 2.00318 3.52466
1.33414 2.00607 4.72569
-0.807023 0.540823 -2.25556
0 0.23019 -2.26688
-0.80482 0.21018 -1.51082
-0.633947 0.585435 2.29916
0 0.294343 2.24607
-0.728452 0.226548 1.49418
0 0.947476 -2.32583
-0.816785 0.914968 -1.475
0 0.898837 2.29797
-0.696965 0.981299 1.525
0.807008 0.540823 -2.25554
0.805105 0.209895 -1.51083
0.633814 0.585435 2.29901
0.72853 0.22647 1.49415
0.81678 0.914963 -1.475
0.696957 0.981291 1.525
-0.799412 0.185588 -0.00831997
-0.88863 0.56857 -0.742285
0.000235185 0.186111 -0.759577
-0.881179 0.581276 0.758965
0 0.178498 0.742917
-0.769775 0.961034 0.0250001
1.77017e-06 1.21647 -0.725
1.06421e-06 1.43658 0.775
0.799412 0.185588 -0.00834
0.888625 0.568337 -0.742292
0.881174 0.581277 0.758952
0.769774 0.961033 0.0250001
-0.884761 0.554697 -1.49291
-0.89969 0.574923 0.00834006
-0.861182 0.583356 1.50959
0.000117592 0.19174 -1.51082
0.000117592 0.185884 -0.00832999
0 0.214262 1.49416
0 0.540823 -2.34533
0 0.585435 2.39739
8.85084e-07 1.01987 -1.475
1.41719e-06 1.44014 0.0250001
5.32104e-07 1.19864 1.525
0.884762 0.55458 -1.49291
0.89969 0.574807 0.00833005
0.861186 0.583356 1.50957
-1.19314 0.230939 -2.26194
-0.793282 0.0526178 -2.27075
-0.793684 0.214755 -2.86233
-0.994444 0.266597 2.24506
-0.679647 0.111312 2.23751
-0.658162 0.289401 2.8458
-1.19259 0.868288 -2.22537
-0.794087 0.84412 -2.82563
-0.792499 1.4046 -2.19934
-0.912346 0.883991 2.27513
-0.594928 0.894782 2.87574
-0.651631 1.44855 2.29949
0.798598 0.052564 -2.27075
0.795508 0.214736 -2.86233
1.19473 0.230867 -2.26195
0.653411 0.111305 2.23748
0.637731 0.289395 2.84576
1.00382 0.266583 2.24502
0.794647 0.844109 -2.82563
0.787649 1.40458 -2.19934
1.19314 0.868262 -2.22537
0.570317 0.894776 2.87574
0.588873 1.44853 2.29949
0.918855 0.88398 2.27512
-1.2003 0.196855 -0.759655
-0.805579 0.00512845 -0.768083
-1.14964 0.183512 0.742747
-0.788996 4.06303e-05 0.734842
-1.19219 0.951204 -0.725183
-0.79781 1.49406 -0.699628
-1.10918 0.970397 0.774917
-0.764424 1.52436 0.799773
0.807704 0.00473444 -0.768096
1.20405 0.19639 -0.759671
0.77543 7.2781e-06 0.734817
1.15811 0.183441 0.742717
0.779064 1.49404 -0.699629
1.19411 0.951126 -0.725186
0.719214 1.52434 0.799771
1.11539 0.970353 0.77491
-1.58265 -0.142404 -2.87968
-1.58178 0.0229812 -3.47136
-1.18422 -0.148142 -3.48026
-1.58386 -0.151901 -1.5279
-1.5885 0.045929 -2.2705
-1.18865 -0.132392 -2.2793
-1.55266 -0.172109 -0.025088
-1.58555 0.0182089 -0.768181
-1.19083 -0.173518 -0.776608
-1.46543 -0.139966 1.47775
-1.51601 0.00609423 0.734505
-1.15536 -0.177377 0.7266
-1.395 -0.0906637 2.82965
-1.37571 0.0668486 2.23687
-1.06092 -0.0884365 2.22932
-1.39044 -0.0748964 4.03067
-1.36192 0.0930134 3.43806
-1.04004 -0.0658521 3.43044
-1.38803 0.0979014 4.63892
-1.05384 -0.067382 4.63118
-1.58763 0.211314 -2.86218
-1.58421 0.527538 -3.44456
-1.18818 0.195131 -3.46257
-1.59019 0.216039 -1.51078
-1.59072 0.558404 -2.24378
-1.54889 0.196412 -0.00858833
-1.58479 0.57949 -0.742553
-1.42628 0.212909 1.49363
-1.49084 0.572633 0.758699
-1.34263 0.250526 2.84528
-1.31179 0.565153 2.25997
-1.35951 0.265811 4.04631
-1.32462 0.589096 3.4612
-1.00635 0.27333 3.44601
-1.37189 0.604555 4.6623
-1.03754 0.273447 4.64684
-1.5873 0.874628 -2.82615
-1.57795 1.39529 -3.40052
-1.18881 0.85046 -3.42641
-1.58533 0.921855 -1.47555
-1.58073 1.43116 -2.19988
-1.52674 0.955711 0.0247338
-1.56924 1.49648 -0.699911
-1.37635 0.924877 1.52505
-1.4943 1.5088 0.799703
-1.29378 0.903723 2.8759
-1.36807 1.45744 2.29971
-1.33699 0.92784 4.07719
-1.37048 1.45929 3.50061
-0.976359 0.914514 3.47651
-1.40165 1.47324 4.70178
-1.02927 0.940524 4.67784
-1.57137 1.95182 -2.77425
-1.17965 1.92574 -3.37432
-1.56465 2.00578 -1.42424
-1.18064 1.96747 -2.17385
-1.53681 2.04956 0.0750585
-1.17486 2.03933 -0.674356
-1.48602 2.04136 1.57437
-1.14955 2.06276 0.824559
-1.44477 2.01301 2.92442
-1.10735 2.022 2.32408
-1.43514 2.00469 4.1252
-1.08799 2.00099 3.52459
-1.09074 2.00429 4.72565
-0.790216 -0.13813 -2.87988
-0.790617 0.0240072 -3.47147
0.00493093 -0.146531 -3.48035
-0.795617 -0.154009 -1.52801
0.00531533 -0.129818 -2.27943
-0.793531 -0.178787 -0.0249208
0.00189021 -0.178413 -0.776601
-0.750844 -0.125848 1.47817
-0.0135662 -0.179353 0.726742
-0.705951 -0.063625 2.83011
-0.026236 -0.0723837 2.22958
-0.703439 -0.0583377 4.03095
-0.684466 0.114464 3.43839
-0.0230646 -0.054884 3.43061
-0.703343 0.108164 4.6391
-0.0262333 -0.0618171 4.63127
-0.792771 0.518052 -3.44443
0.00182429 0.194492 -3.4626
-0.68437 0.280966 4.04654
-0.65809 0.598748 3.46132
-0.0204307 0.283796 3.44615
-0.694921 0.609417 4.66237
-0.026448 0.278117 4.64691
-0.790505 1.38091 -3.40022
0.00055986 0.841583 -3.42626
-0.66864 0.927198 4.07716
-0.693874 1.45621 3.50049
-0.0246109 0.913688 3.47648
-0.718361 1.47158 4.70171
-0.0324872 0.940692 4.67782
-0.788916 1.94139 -2.77393
-0.00145204 1.92021 -3.37417
-0.790855 2.00102 -1.42397
-0.00484995 1.96254 -2.17369
-0.787603 2.05252 0.0751449
-0.0187479 2.03946 -0.674257
-0.770878 2.04339 1.57427
-0.0452116 2.06554 0.824543
-0.750578 2.00998 2.92424
-0.0627589 2.02121 2.32399
-0.743595 2.00059 4.12504
-0.0594153 1.99871 3.5245
-0.0564128 2.00243 4.72558
0.800462 -0.138218 -2.87989
0.797373 0.023954 -3.47147
1.19505 -0.148257 -3.48027
0.802822 -0.154222 -1.52802
1.19901 -0.132565 -2.27931
0.781855 -0.178979 -0.0249388
1.19696 -0.173899 -0.776625
0.711042 -0.125888 1.47815
1.14135 -0.1775 0.726569
0.65665 -0.0636427 2.83008
1.02812 -0.0884711 2.22928
0.654141 -0.0583634 4.03093
0.64097 0.114447 3.43837
1.00409 -0.0658901 3.43041
0.650662 0.108136 4.63908
1.00733 -0.0674315 4.63115
0.795155 0.518022 -3.44443
1.1931 0.195056 -3.46257
0.637491 0.280947 4.04652
0.613048 0.598736 3.46131
0.978261 0.273303 3.44598
0.635985 0.609393 4.66236
0.991412 0.273405 4.64681
0.789612 1.38088 -3.40022
1.19078 0.850412 -3.42642
0.611542 0.927181 4.07714
0.609848 1.45619 3.50048
0.93919 0.914491 3.47649
0.629461 1.47155 4.70169
0.970927 0.940485 4.67782
0.782614 1.94135 -2.77393
1.17684 1.92567 -3.37433
0.767257 2.00098 -1.42397
1.17102 1.9674 -2.17386
0.723643 2.05248 0.0751411
1.14014 2.03926 -0.674361
0.662908 2.04336 1.57426
1.06856 2.0627 0.824552
0.628404 2.00995 2.92424
0.994436 2.02195 2.32407
0.627767 2.00056 4.12503
0.97741 2.00094 3.52458
0.982805 2.00424 4.72563
1.59359 -0.142603 -2.87969
1.59077 0.0228451 -3.47137
1.59314 -0.152242 -1.52792
1.59515 0.0457378 -2.27051
1.55645 -0.17242 -0.0251174
1.59331 0.0177558 -0.768201
1.45843 -0.140082 1.47771
1.52404 0.00593383 0.734469
1.37556 -0.0907185 2.82961
1.37853 0.0668072 2.23682
1.35729 -0.0749582 4.03063
1.34138 0.092966 3.43802
1.34808 0.0978377 4.63888
1.59232 0.211186 -2.86219
1.58872 0.527445 -3.44456
1.59531 0.215736 -1.51079
1.59287 0.558306 -2.24378
1.56089 0.19611 -0.00861462
1.59023 0.579178 -0.742566
1.44413 0.212824 1.49359
1.50552 0.572517 0.758675
1.34435 0.250492 2.84523
1.32767 0.565127 2.25994
1.33218 0.265762 4.04627
1.3044 0.589059 3.46117
1.32635 0.604498 4.66227
1.58927 0.874566 -2.82616
1.578 1.3952 -3.40053
1.5878 0.921749 -1.47556
1.57651 1.43108 -2.19989
[...]
POINT_DATA 29498
VECTORS point_vectors float
-2.41122 -3.33998 7.21434
0.0944795 0.152231 0.741623
-3.58819 2.42712 5.86247
-0.134436 -0.0641699 0.0261903
2.39465 -3.32002 7.19835
-0.101555 0.14875 0.745649
3.5636 2.41017 5.844
0.138137 -0.0653619 0.024361
0.0716168 -0.0131855 0.810083
0.0210309 -0.0255799 0.461095
0 0 0
0 0 0
-0.0741781 -0.0140435 0.836896
-0.0209574 -0.0255393 0.459409
0 0 0
0 0 0
-0.567966 -0.25829 19.8757
-1.23344 -0.665154 20.5961
-0.447209 -0.345041 21.4276
0.143418 -0.0119505 21.617
0.768714 0.317912 21.4742
0.986857 0.381183 21.1375
0.896841 0.182344 20.9351
-0.678352 -0.167665 19.7775
-1.71209 -0.550888 20.5527
-0.595509 -0.400181 21.4747
0.184341 -0.147744 21.7416
1.13079 0.140748 21.3695
1.39156 0.150773 21.1026
1.19454 0.0322286 21.2053
-0.750077 0.112337 19.7085
-1.81587 0.284502 20.4916
-1.03318 -0.186455 21.4441
-0.0189756 -0.384836 21.7736
0.931813 -0.759648 21.0338
1.30692 -0.740221 20.5559
0.928866 -0.629784 20.4347
-0.438659 0.344913 20.0056
-0.761739 0.576898 20.4683
-0.716559 0.374525 21.1779
-0.245006 -0.0662916 21.4829
0.118212 -0.391804 21.3527
0.227739 -0.420919 21.224
0.304115 -0.331329 21.1851
-0.553453 -0.591424 19.342
-1.94666 -3.03835 20.7454
-0.477759 -0.393205 21.7498
-0.0148133 0.209456 21.3356
0.65939 1.24334 19.4111
1.10836 1.46624 18.9719
1.08349 0.936156 18.6254
-0.769528 -0.449708 18.9371
2.01495 1.41138 12.7588
2.00698 1.21635 14.4751
-0.860413 0.28215 18.7655
1.04875 -0.81238 4.96226
1.44636 -0.207194 14.2883
-0.393597 0.640836 19.6983
-0.774985 1.35578 20.3237
-0.92097 1.21222 21.2386
-0.318443 0.108518 21.8162
-0.0382365 -0.415594 21.4675
0.104243 -0.74622 21.759
0.17707 -0.802746 19.6307
0.559859 -0.587982 19.3501
1.95154 -2.97982 20.7533
0.4838 -0.387255 21.7586
0.0321853 0.199854 21.2669
-0.589014 1.22649 19.0457
-1.06731 1.51898 18.7279
-1.09255 0.973214 18.0009
0.770799 -0.445835 18.9356
-1.90801 1.36844 12.1973
-1.99273 1.25685 13.8349
0.860569 0.282449 18.767
-0.912703 -0.689232 3.48073
-1.45947 -0.0306936 13.484
0.395244 0.642348 19.6978
0.773543 1.36549 20.3219
0.918086 1.27514 21.2371
0.313062 0.145072 21.8386
0.0681268 -0.376624 21.5078
-0.0465181 -0.75003 21.7624
-0.1722 -0.86953 18.815
0.561982 -0.247242 19.875
1.21889 -0.653712 20.5996
0.454138 -0.348472 21.4191
-0.13907 -0.0145524 21.613
-0.775376 0.330301 21.4875
-1.01861 0.418016 21.1149
-0.92288 0.24493 20.9877
0.67373 -0.166275 19.7811
1.70334 -0.547259 20.5488
0.594277 -0.397927 21.4754
-0.178778 -0.150476 21.7216
-1.10321 0.119849 21.3982
-1.42627 0.163337 21.0436
-1.223 0.0991664 21.2709
0.749265 0.112105 19.7136
1.81194 0.28404 20.4997
1.02873 -0.184577 21.4476
0.0224494 -0.37479 21.7761
-0.920843 -0.750029 21.1999
-1.32588 -0.772974 20.4643
-0.967718 -0.735955 20.178
0.43777 0.346622 20.0076
0.766831 0.582877 20.469
0.737034 0.393196 21.1867
0.258172 -0.0578576 21.5293
-0.0918161 -0.399309 21.3858
-0.232734 -0.506737 21.3101
-0.2772 -0.387838 21.3717
-2.53924 -0.0531384 3.49417
2.1296e-05 -0.13059 0.436975
-0.00714828 0.00248319 0.37529
0.000341594 -0.0754552 0.028515
-1.20741e-05 0.00287273 0.0173151
0.0200315 0.00585192 0.186273
0.00107311 4.57803 4.31859
-0.433165 -0.160414 1.46138
-0.000944797 0.0259803 -0.0636699
0.0198534 -0.0219264 0.131816
2.54573 -0.0526389 3.49865
0.00793549 0.00220723 0.399092
-0.000146158 -0.0752664 0.028236
-0.0198198 0.00574462 0.182612
0.433005 -0.160755 1.45882
-0.0202871 -0.0226776 0.134842
0.0166598 -0.00256599 0.694319
0 0 0
0 0 0
0 0 0
0 0 0
0 0 0
-0.000184037 0.0300604 0.0645711
-1.13186e-05 -0.00160324 0.0403811
-0.0167087 -0.00273988 0.694437
0 0 0
0 0 0
0 0 0
0.000478155 -0.00812672 0.0785626
0.000111841 0.00100103 0.0155467
0.00233458 0.00177105 0.0313221
-7.85532e-05 -0.00094837 0.0184358
-1.87018e-07 -2.46173e-08 3.08366e-05
-4.9927e-21 2.13184e-18 3.17255e-17
0 0 0
-0.000860444 -0.109693 0.0413867
-5.56626e-05 0.000621327 0.00840704
-3.30046e-05 0.00711415 0.114811
-1.93228e-05 0.00317072 -0.00467905
-0.000495449 -0.00814869 0.0785579
-0.000106327 0.000959982 0.0154276
-0.00233636 0.00176973 0.0311139
-3.21024 -1.50478 20.5779
-3.16382 -4.71001 21.1093
-2.13318 -1.56133 17.7749
1.58485 0.655448 16.1719
0.840398 1.17449 12.547
1.58265 0.863178 8.70085
-3.56575 1.03831 20.535
-2.48417 1.15627 17.3445
-1.84861 2.52602 20.2997
0.689958 -1.00107 11.0009
-0.289976 -0.926403 1.31942
0.0774665 -0.516327 13.9998
3.17376 -4.64497 21.1005
2.14438 -1.55256 17.7516
3.19919 -1.49997 20.5834
-0.76949 1.14453 12.0423
-1.53269 0.840836 8.18973
-1.58692 0.638634 16.466
2.48547 1.15769 17.3486
1.83707 2.53789 20.3014
3.55955 1.0392 20.5356
0.353843 -0.863933 0.834014
-0.0541674 -0.472913 12.7714
-0.722911 -0.981671 11.3427
-0.467676 -0.702315 21.4528
-0.0132459 -0.16666 18.7463
0.383365 0.0613378 19.9134
0.224046 0.220062 17.3056
-1.54176 -0.679416 21.3592
-2.56694 1.69774 21.3062
0.218033 -0.496226 18.3429
-0.453537 -0.170719 20.3925
0.0213476 -0.16687 18.8019
0.474256 -0.703982 21.496
-0.228362 0.210354 17.112
-0.380684 0.044054 20.0867
2.60764 1.80985 21.2666
1.53789 -0.673953 21.3728
0.283036 -0.0989912 19.0908
-0.200891 -0.517682 18.5439
-0.963509 -0.487859 20.0262
-0.639344 -0.228566 19.8207
-0.624904 -0.403826 19.6261
-0.84 -0.514225 21.21
-1.41708 -0.629264 20.5843
-1.70941 -1.44271 20.6227
-0.140998 -0.175036 21.5697
-0.533613 -0.385365 21.4454
-0.394694 -0.434981 21.6132
0.446108 0.148562 21.6274
0.153549 -0.086024 21.6365
0.156989 0.103208 21.7727
0.927411 0.399515 21.3516
0.958889 0.269633 21.5328
0.937462 0.805988 21.2709
0.961766 0.426681 20.7546
1.15026 0.329643 21.2361
1.20886 0.990645 21.0953
1.04569 0.107286 21.0702
1.0824 0.698618 21.4215
-1.27885 -0.361202 19.8711
-0.730715 -0.0335194 19.7309
-0.779077 -0.290562 19.4313
-1.10319 -0.47804 21.303
-1.87063 -0.173028 20.5644
-0.221953 -0.291732 21.6359
-0.803603 -0.368466 21.4697
0.631916 -0.0114283 21.6494
0.122214 -0.283769 21.7949
1.28245 0.158898 21.1883
1.22904 -0.323111 20.9031
1.18899 0.256471 20.8675
1.46024 -0.288772 20.7262
1.83587 0.76208 18.2016
1.26903 -0.410742 19.9589
1.59827 0.640268 18.3992
-1.3615 0.24263 19.8165
-0.615161 0.306102 19.8381
-0.87389 0.191382 19.3631
-1.39021 0.0380438 21.1786
-1.23653 0.620824 20.4559
-0.553118 -0.297802 21.7398
-1.02196 0.224228 21.3079
0.498537 -0.552124 21.629
-0.258914 -0.219222 21.6633
1.10719 -0.765422 21.1242
0.281479 -0.602923 21.4449
1.16286 -0.692907 20.2204
0.548998 -0.699366 21.457
1.73009 -1.08345 16.2086
0.425992 -0.421447 20.8364
1.21218 -1.03312 18.26
-0.633165 0.498488 20.1747
-0.456057 0.478581 19.8686
-0.772197 0.508913 20.8412
-0.852442 0.926005 20.4069
-0.525959 0.177817 21.4289
-0.889497 0.687803 21.2589
-0.036054 -0.245053 21.387
-0.300847 -0.00823188 21.6697
0.241314 -0.476336 21.3798
0.0395878 -0.429284 21.4351
0.337383 -0.693499 20.7784
0.248789 -0.70448 21.5161
0.212954 -0.526938 21.8351
-1.24387 -1.5823 19.0824
-0.652703 -0.517345 19.1414
0.00241545 -0.754958 19.0015
-1.04584 -1.09313 21.9997
0.0126883 -4.767 20.8996
-0.198264 -0.0868674 21.4218
-0.0002556 -0.815242 21.0888
0.329702 0.685245 20.3852
-0.00551695 -0.162243 19.2642
0.913548 1.40766 19.7323
0.0221951 0.882681 15.8857
0.64209 1.47262 20.2197
1.57325 1.65125 16.5961
0.0214503 1.40147 16.656
1.54523 1.07625 16.5503
-0.0128263 1.46483 17.0636
-0.803614 -0.0938595 18.8134
0.00112318 -0.584152 18.463
2.06192 1.36687 14.0733
2.23672 -0.00522174 7.98902
0.0622577 1.59279 6.56562
2.17114 0.823593 12.3159
0.143637 1.51004 12.6891
-0.61964 0.690475 19.2347
0.00111519 0.405981 18.1723
1.62253 -0.881762 8.46962
0.500199 -1.21372 17.094
0.160232 1.88392 -5.70426
0.303641 -1.27379 16.9449
0.169464 1.48881 -1.25702
-0.607671 1.0835 19.8562
-0.000964926 0.802502 19.556
-0.830521 1.25462 20.793
-0.00565258 1.84641 20.2399
-0.708001 0.733163 21.8043
-0.0350462 1.97561 21.1819
-0.108492 -0.234419 21.6096
-0.0257916 0.346761 22.0153
0.034227 -0.57703 21.3934
-0.027174 -0.237777 21.6721
0.0770826 -0.516761 22.0106
-0.0244836 -0.616108 21.8792
0.0220642 -0.333734 21.6253
1.25082 -1.56424 19.0981
0.65598 -0.512569 19.1435
0.629249 -0.400713 19.635
1.04547 -1.07925 21.9875
1.70311 -1.42282 20.6281
0.207056 -0.0886806 21.4007
0.397136 -0.436929 21.6101
-0.296287 0.661973 19.9336
-0.153708 0.111964 21.7809
-0.809264 1.40946 19.2906
-0.921435 0.858967 21.2367
-0.585651 1.60757 19.985
-1.53611 1.69408 16.3686
-1.18908 1.03042 21.1426
-1.54264 1.11503 15.9179
-1.06339 0.731584 21.4943
0.80491 -0.0933599 18.8137
0.781658 -0.28888 19.4413
-2.02857 1.49664 13.8317
-2.20993 0.0324583 6.80499
-1.87207 0.838996 17.8168
-2.218 0.934382 11.6099
-1.65065 0.730724 17.8745
0.617683 0.691066 19.2341
0.875719 0.191451 19.3623
-1.5495 -0.876806 6.67209
-0.466744 -1.19601 16.3198
-1.80332 -1.12587 15.2912
-0.292757 -1.38081 16.4257
-1.28819 -0.918557 17.6019
0.607014 1.08868 19.8534
0.459741 0.478315 19.8687
0.821549 1.28289 20.7865
0.853889 0.932746 20.4075
0.703264 0.803784 21.8431
0.898742 0.726175 21.2589
0.119673 -0.213107 21.5841
0.320953 0.0137102 21.6997
0.00956326 -0.524943 21.4397
-0.00743205 -0.441658 21.4458
-0.117605 -0.537553 22.2535
-0.215117 -0.738304 21.7396
-0.186898 -0.640911 21.4348
0.953235 -0.475249 20.0239
0.629687 -0.224758 19.826
0.843316 -0.514437 21.2026
1.40193 -0.617966 20.5976
0.149693 -0.182646 21.569
0.529855 -0.387013 21.444
-0.449032 0.143855 21.6323
-0.153731 -0.0933335 21.618
-0.940677 0.415538 21.3416
-0.954243 0.263536 21.5207
-0.952093 0.452737 20.8395
-1.16911 0.359904 21.2124
-1.07294 0.172048 21.1293
1.26992 -0.356522 19.8678
0.726487 -0.0326115 19.7183
1.09732 -0.477679 21.2978
1.86966 -0.171105 20.5676
0.217484 -0.287178 21.6318
0.800248 -0.366811 21.4722
-0.615008 -0.0220619 21.6676
-0.114237 -0.279099 21.8117
-1.28071 0.155967 21.197
-1.20346 -0.318091 20.9985
-1.17954 0.27385 20.9382
-1.49965 -0.278916 20.5719
-1.32746 -0.324888 19.4395
1.3595 0.243231 19.8235
0.612788 0.305063 19.8379
1.38553 0.0384457 21.1851
1.24153 0.62461 20.4573
0.550651 -0.291917 21.7376
1.03942 0.219322 21.3148
-0.491641 -0.540701 21.6318
0.268354 -0.226205 21.6878
-1.11519 -0.774909 21.118
-0.270716 -0.625088 21.4574
-1.25035 -0.763439 20.0265
-0.554469 -0.794039 21.4505
-0.41495 -0.525388 20.3955
0.634421 0.501589 20.1736
0.786637 0.517545 20.8471
0.539518 0.189571 21.4548
0.0531308 -0.253329 21.4386
-0.207052 -0.478669 21.3208
-0.242938 -0.600565 21.1191
-1.1033 -0.451395 19.969
-1.62254 -1.67202 18.5596
-1.21372 -0.907289 19.6807
-1.77508 -0.751231 19.2162
-0.706417 -0.356171 19.5258
-2.40321 -1.61704 20.6448
-0.971637 -0.51109 21.2508
-0.949952 -0.592852 20.2369
-0.930719 -0.82792 21.5471
-1.20991 -0.984791 21.937
-0.38415 -0.519961 21.6654
-0.184665 -0.24665 21.5812
0.22117 0.0169478 17.5662
-0.104182 -0.179591 21.6997
-0.0274964 -0.334366 20.6043
0.303054 0.101455 21.5485
0.536435 0.0912235 21.6553
0.594467 0.613303 14.1587
0.524225 0.444176 21.7077
0.867368 0.365599 17.8743
1.31453 0.869983 19.8118
1.13455 0.297529 21.2282
1.24183 1.46421 14.8974
1.1331 0.90892 21.0233
1.87862 0.685632 17.6858
1.50889 1.03167 19.7399
1.20052 0.314337 20.6459
1.26255 1.47668 17.7836
0.886552 0.647495 21.4621
1.62335 0.242582 19.8525
1.3271 0.677966 20.5467
-1.3818 -0.0898471 19.8118
-2.69705 -0.340431 16.9479
-2.03068 0.559324 19.0955
-0.851242 -0.0480536 19.3236
-4.21346 -0.35069 20.5083
-1.31735 -0.2914 21.3213
-1.92434 0.0242472 21.6568
-0.942619 -0.685513 20.4404
-0.361565 -0.33917 21.737
-0.636524 -0.817433 19.884
0.346975 -0.176396 17.1363
0.654929 -0.270263 21.4078
0.842378 -0.250365 15.3466
1.44814 -0.362738 11.4523
1.39954 -0.334756 20.8714
1.02134 -0.580746 3.56576
1.21583 -1.0066 14.673
2.15841 -0.283977 15.9949
1.38784 -0.191169 20.2852
2.56421 0.763657 11.3082
1.85521 -1.13088 18.138
1.72008 0.206426 16.1374
-0.9928 0.530749 19.9986
-1.28555 1.6095 19.0917
-0.68849 0.758445 20.0256
-0.673752 0.464438 19.5799
-1.69981 1.28085 20.4
-1.16085 0.431747 20.9655
-1.77332 1.63017 20.8993
-0.889298 0.835788 20.8343
-1.64468 0.506626 21.4237
-0.68757 -0.0163626 21.6212
-1.87209 0.529773 22.1523
-0.659516 0.36997 21.6177
-0.416751 -0.261269 21.9561
0.0765541 -0.424375 21.5917
0.189986 -0.486708 17.3286
-0.0849331 -0.258138 21.5151
0.118037 -0.787055 21.0646
0.465572 -0.722651 21.2551
0.218059 -0.836891 15.5122
0.153186 -0.518802 21.163
0.587152 -1.17494 20.5675
0.597014 -0.872707 20.612
0.410798 -1.42491 18.582
0.0285818 -0.392227 21.9106
0.364817 -0.847616 18.8907
1.62826 -1.65614 18.5822
0.00771247 -2.44768 18.3892
0.000530037 -2.73083 15.94
0.00239525 -0.69831 18.6971
0.0101245 -7.46607 21.6837
0.951996 -0.58685 20.268
0.00457328 -1.97424 22.4685
-0.0012507 -0.317597 13.0461
-0.223687 0.0168806 17.4918
-0.00495833 -0.431464 19.8718
0.00438429 -0.0901958 11.5308
-0.582923 0.596296 13.7456
0.00603624 0.381533 17.2617
0.00922785 0.660696 7.81753
-1.14013 1.46716 14.321
0.0239967 1.13748 16.1826
0.0226852 0.374173 3.20436
0.0618459 1.92112 11.9006
-1.21375 1.60542 17.5444
0.00643334 1.89838 17.5554
0.0937296 2.25566 9.25372
0.133716 1.54619 14.9795
2.69598 -0.341622 16.9555
-0.000305745 2.21144 15.0396
0.00327194 -0.167402 17.9249
-0.942899 -0.546738 3.20719
-0.019614 1.18841 -4.17658
0.133018 0.979846 -0.57539
-2.6743 0.955964 10.1818
0.145245 2.01525 -6.0921
0.16774 1.48007 7.48915
1.28198 1.61357 19.0896
-0.00246458 1.4556 19.6823
0.000465376 0.900718 18.8689
0.000745974 3.81616 20.2336
1.75812 1.6548 20.8899
-0.0180763 1.76271 20.665
-0.0378692 4.23079 20.3561
1.96054 0.569396 21.933
-0.0401609 1.35684 22.0854
-0.00808286 0.17485 17.5398
-0.269956 -0.4476 15.9174
-0.0191923 -0.100377 21.631
-0.108092 0.194691 4.83782
-0.176543 -0.798229 14.2415
-0.0147462 -0.403711 21.5948
-0.0259443 -0.618639 6.81294
-0.382697 -1.51598 17.8069
0.0262075 -0.430083 21.9718
0.0169625 -0.996675 13.4248
1.09096 -0.451729 19.9681
1.20666 -0.895433 19.6875
1.77176 -0.742727 19.235
0.702152 -0.35728 19.532
2.39202 -1.59776 20.6463
0.968048 -0.514238 21.2534
0.931193 -0.823621 21.5378
1.21351 -0.97703 21.9289
0.39301 -0.520424 21.6585
0.183103 -0.253699 21.5794
0.104771 -0.178846 21.7002
0.0339551 -0.341571 20.7064
-0.299607 0.105021 21.5241
-0.53229 0.0856409 21.6553
-0.516961 0.47314 21.6702
-0.867867 0.350315 18.1222
-1.31443 0.896303 19.6804
-1.14262 0.309854 21.227
-1.12624 0.954058 20.9802
-1.86809 0.706464 17.4833
-1.5537 1.11582 19.3084
-1.19585 0.340234 20.7253
-0.869944 0.72944 21.4848
-1.66092 0.33873 19.52
-1.3881 0.773487 20.0365
1.37191 -0.0915968 19.8085
2.02804 0.558044 19.0996
0.854694 -0.0476513 19.3347
4.19969 -0.347959 20.5047
1.31704 -0.289741 21.3215
1.92137 0.026302 21.6556
0.946503 -0.682226 20.4935
0.358107 -0.338043 21.7354
0.64014 -0.817442 19.9906
-0.343317 -0.193444 17.3877
-0.637086 -0.269161 21.4568
-0.832849 -0.279388 15.6154
-1.45873 -0.349956 11.7994
-1.39727 -0.339181 20.8691
-1.19288 -1.0181 14.0828
-2.21881 -0.318274 15.1822
-1.44724 -0.225375 20.1632
-1.95353 -0.956386 17.1334
-1.77273 0.304747 15.5247
0.991594 0.534684 19.9991
0.689597 0.760442 20.0253
0.671447 0.462938 19.5794
1.70088 1.28659 20.3995
1.1711 0.431735 20.9709
0.891369 0.85403 20.8314
1.67245 0.533038 21.4207
0.705141 -0.0194697 21.6402
0.679327 0.421811 21.6457
0.43565 -0.26064 21.9866
-0.0718916 -0.440218 21.6065
0.0953103 -0.255337 21.5205
-0.104753 -0.753961 20.5359
-0.447503 -0.755004 21.334
-0.11093 -0.544706 21.2663
-0.601277 -1.23629 19.6215
-0.580145 -0.907718 20.781
0.0156332 -0.463375 21.5467
-0.353853 -0.9531 18.4106
-1.49753 -0.896774 19.4459
-1.04202 -0.861441 21.6904
-0.0284447 -0.239555 21.6395
0.761645 0.473032 20.7924
1.48938 0.891401 19.8747
1.26458 0.510866 20.7414
-2.13488 -0.173519 18.9209
-1.83598 -0.556055 22.1261
-0.2175 -0.511064 18.4525
0.785325 0.0229901 14.4694
1.83113 -0.399626 14.5078
1.96404 -0.394052 18.4728
-1.24143 0.958614 19.6557
-1.58411 0.80554 21.0093
-1.1192 0.0994434 21.9709
-0.0235066 -0.58612 21.7741
0.322485 -0.921311 21.1329
0.513103 -1.05411 21.408
0.00595111 -2.71332 17.4647
0.0011328 -1.21463 15.7511
0.00215426 -0.140102 11.6229
0.00720478 0.357008 9.13452
0.0179408 0.866577 9.54942
0.0991741 2.03955 13.3135
0.000625391 -0.66967 14.0171
0.00424426 0.461017 -0.880031
0.0997976 2.45237 2.15678
-0.00162077 2.52129 18.3812
-0.0104842 2.59903 20.6273
-0.050742 2.23507 21.1356
-0.0191567 -0.20522 10.1387
-0.0504015 0.170229 5.19057
0.00964492 -0.409768 7.4283
1.48819 -0.881741 19.4649
1.04636 -0.859222 21.6822
0.0337213 -0.240785 21.6372
-0.758484 0.484613 20.7511
-1.49072 0.945354 19.6855
-1.29692 0.630938 20.4076
2.13237 -0.172467 18.9342
1.83503 -0.552816 22.1237
0.226296 -0.515449 18.6283
-0.793662 0.00241924 14.8095
-1.82332 -0.421098 14.0849
-2.04268 -0.317213 17.5567
1.2398 0.959953 19.6548
1.58722 0.819152 21.0078
1.15817 0.118187 22.0009
0.0368514 -0.609634 21.6677
-0.269297 -0.889204 20.4173
-0.488984 -1.13245 20.9237
-0.657033 -0.127524 1.24754
-0.0127108 -0.0928839 0.415888
-0.0272073 0.00784153 0.433613
0.0431008 -0.0284761 0.090282
0.000446315 0.00501296 0.0292161
0.0214937 0.0258792 0.25305
-6.25803 1.05578 6.66889
-0.194129 1.27929 2.40995
-0.277707 -0.16719 1.44284
-0.0108271 -0.0308877 0.00625519
-0.0947629 0.00422491 -0.0342306
-0.0652359 -0.0749172 0.0937822
0.0129755 -0.0927119 0.414495
0.67016 -0.130722 1.27151
0.0263172 0.00767224 0.418778
-0.000484528 0.00492385 0.0286151
-0.0425844 -0.0285028 0.0890797
-0.0217044 0.0256691 0.252461
0.144931 1.12573 2.17305
6.25132 1.06259 6.65877
0.276851 -0.166651 1.43564
0.0944861 0.00622873 -0.0368081
0.0110895 -0.0309455 0.00610127
0.0639649 -0.0731486 0.0913528
0.118975 -0.0369655 1.59449
0.0400737 -0.00750984 0.746562
0 0 0
0.00122977 -1.92067e-05 0.0111394
0.0345809 0.00194013 0.310919
0.000475052 0.00300262 0.456106
0.00176938 0.00462231 0.105227
0 0 0
-0.300373 -0.17492 0.705678
0 0 0
0 0 0
-0.0730477 0.0420645 0.131962
0.00213405 0.00204642 0.0197997
0.0123556 0.0247695 0.18386
0 0 0
0.0117296 -0.00395338 0.114517
-0.118912 -0.0365999 1.58833
-0.00123277 -1.93314e-05 0.0112063
-0.0394766 -0.00659904 0.740223
0 0 0
-0.0344352 0.00192545 0.30949
0 0 0
-0.000473211 0.0030129 0.45574
-0.00176728 0.00460119 0.105416
0.299631 -0.175334 0.702075
0.0721307 0.0430915 0.134166
0 0 0
0 0 0
-0.00209129 0.00200922 0.0193755
-0.0119039 -0.00396505 0.115629
-0.0125718 0.0248836 0.184544
0 0 0
-0.0151102 -0.0102211 0.192528
-0.064081 0.0220677 0.0250765
-2.63221e-07 -0.000111722 0.00347445
-1.22737e-06 -0.00194801 0.000375535
0 0 0
0.00125655 -0.000620262 0.0128896
0.00179005 -0.00120228 0.0100417
-0.0179193 -0.0306824 0.0114655
-1.85434e-06 0.000639085 0.00601815
-5.10181e-05 -0.00598433 -0.000491573
0.00809014 0.00992955 0.166313
0 0 0
0 0 0
-0.000261 0.00457994 0.071358
0 0 0
-0.00582487 0.000604901 0.0115186
0 0 0
-6.35567e-07 1.85908e-05 -0.000101625
0.00643339 -0.00578472 0.0548447
0 0 0
0.0487909 0.0177987 0.0191092
0.0151101 -0.0102737 0.192358
-0.00124164 -0.000614451 0.0127752
0 0 0
0.0174965 -0.0312265 0.0116658
-0.00186533 -0.00125375 0.0104617
0 0 0
-0.00810095 0.00988102 0.166483
0.00587214 0.000663095 0.0123968
-2.97456e-18 1.77407e-17 -4.92504e-17
0 0 0
-0.00613861 -0.00557843 0.0527395
-0.00165957 0.00973266 0.201666
0.000707129 -6.68082e-06 0.0117237
-5.20902e-05 -0.000367952 0.00281128
-6.2314e-07 1.7011e-06 6.80969e-05
-7.38942e-05 0.00112447 0.0430581
6.09399e-08 4.86268e-09 -7.46186e-06
-4.351e-07 -1.37049e-06 -1.6209e-05
0.00131154 0.00161542 0.0392139
-1.98496e-07 -3.37279e-08 4.11225e-05
-4.91537e-08 2.51335e-05 0.000412184
0.000294784 0.00169534 0.018188
-0.00585887 0.0144869 0.331156
-0.000138761 0.00060942 0.00401213
-9.95772e-05 0.147841 0.401925
-8.30639e-06 0.000430934 0.0715972
-3.64416e-07 -6.00335e-05 0.000791092
-0.000709759 -6.74248e-06 0.0117672
0.00165823 0.00966544 0.200585
5.03674e-05 -0.000359008 0.00272979
1.31497e-07 3.54444e-07 1.4352e-05
1.29993e-06 -4.08046e-06 -4.84185e-05
-0.00131154 0.00160901 0.0392104
0.00575572 0.0145525 0.328609
-0.000294995 0.00169507 0.0182135
0 0 0
-0.163399 -0.0826383 0.804362
-0.000458102 -0.000701254 0.0219998
-0.000311278 -0.00132502 0.00610469
-0.000877058 0.00100738 0.0659068
-8.58628e-06 0.000232376 0.00392343