# vtk DataFile Version 2.0
tri_press
ASCII
DATASET UNSTRUCTURED_GRID
POINTS 3682 float
-0.753398 0.245 -1.975
-0.698114 0.445 2.175
-0.705 0.977919 -1.935
-0.645 1.45218 1.875
0.755 0.245 -1.9783
0.713718 0.425 2.165
0.705 0.975 -1.94079
0.65424 1.435 1.885
-0.809126 0.237511 -0.591667
-0.812247 0.282628 0.791667
-0.753782 1.20479 -0.665
-0.718021 1.34711 0.605
0.810718 0.235522 -0.5972
0.832541 0.259938 0.7839
0.758632 1.19889 -0.665527
0.725167 1.33567 0.609737
-1.52267 -0.314363 -2.99336
-1.52624 -0.232849 -1.93096
-1.56092 -0.227876 -0.545368
-1.55594 -0.202483 0.862168
-1.48757 -0.0796007 2.24958
-1.46522 0.0263877 3.32094
-1.46832 0.123378 4.37544
-1.51825 0.122446 -3.01308
-1.51799 0.229511 -1.96277
-1.56241 0.261364 -0.598826
-1.5461 0.305353 0.774754
-1.44822 0.434959 2.14085
-1.43936 0.539788 3.21117
-1.45481 0.634349 4.26953
-1.49721 0.942958 -3.02184
-1.47864 1.0468 -1.96715
-1.51409 1.21957 -0.680274
-1.47642 1.34405 0.598098
-1.39764 1.45592 1.88751
-1.41215 1.55711 2.96558
-1.44108 1.65082 4.04385
-1.49328 2.30541 -3.11816
-1.48578 2.43105 -2.08026
-1.49107 2.63466 -0.828042
-1.48323 2.82415 0.400056
-1.46257 2.96831 1.65412
-1.45699 3.06558 2.69585
-1.46233 3.15661 3.76126
-0.764957 -0.306203 -3.00195
-0.753928 -0.220405 -1.9428
-0.78621 -0.240418 -0.545378
-0.79845 -0.223199 0.874821
-0.750495 -0.0815069 2.2728
-0.734557 0.0237532 3.33679
-0.737577 0.118509 4.38451
-0.768671 0.122338 -3.01683
-0.716604 0.539299 3.22524
-0.72944 0.630504 4.27677
-0.753575 0.914246 -3.00982
-0.697947 1.55432 2.96473
-0.7217 1.64722 4.04415
-0.744712 2.28256 -3.10578
-0.735061 2.40806 -2.06621
-0.743206 2.62405 -0.819286
-0.747009 2.82322 0.399487
-0.737667 2.96775 1.64736
-0.733963 3.06349 2.68908
-0.736783 3.15342 3.75636
0.748577 -0.308897 -3.00531
0.779181 -0.222137 -1.94638
0.81025 -0.245499 -0.550281
0.801994 -0.241509 0.86832
0.724332 -0.100915 2.26535
0.717402 0.00565423 3.3325
0.720075 0.101655 4.38221
0.728755 0.120126 -3.02036
0.705794 0.520993 3.22198
0.713407 0.613517 4.27528
0.710902 0.911098 -3.01386
0.684628 1.53719 2.96772
0.704074 1.6308 4.04498
0.742239 2.27706 -3.1083
0.752052 2.40205 -2.06824
0.747522 2.61615 -0.819738
0.723224 2.81229 0.401065
0.703482 2.95428 1.65012
0.703182 3.04912 2.69143
0.709106 3.13889 3.75778
1.50936 -0.321247 -2.99983
1.53974 -0.239144 -1.93768
1.5804 -0.240812 -0.55314
1.57306 -0.233574 0.853128
1.49087 -0.11603 2.24016
1.46168 -0.00854979 3.31442
1.4589 0.0903941 4.37132
1.48911 0.11635 -3.0197
1.51653 0.224554 -1.96919
1.56921 0.250642 -0.60564
1.57141 0.273134 0.767613
1.4739 0.397459 2.13362
1.44388 0.504389 3.20674
1.44758 0.601108 4.26685
1.46499 0.935642 -3.02875
1.47522 1.0395 -1.97387
1.51902 1.20735 -0.682699
1.49191 1.31876 0.601095
1.41809 1.42223 1.89441
1.4141 1.52359 2.96915
1.43194 1.61858 4.04493
1.48837 2.29394 -3.12291
1.49694 2.41852 -2.08407
1.49499 2.61848 -0.82916
1.46793 2.80227 0.402329
1.43917 2.94171 1.65838
1.43391 3.03724 2.69959
1.43978 3.12788 3.76359
-0.789833 0.611459 -2.01563
0.000800997 0.235149 -1.9865
-0.787317 0.2352 -1.28333
-0.726255 0.94859 2.0797
0.00780201 0.400703 2.2043
-0.74709 0.371905 1.48333
0 1.02282 -1.98425
-0.716255 1.07822 -1.3
0.00462002 1.46869 1.9051
-0.696393 1.41453 1.24
0.791286 0.61 -2.02083
0.787838 0.235282 -1.28775
0.737736 0.93 2.07876
0.745173 0.370425 1.47445
0.722077 1.0772 -1.30316
0.704762 1.4004 1.24737
-0.827593 0.243163 0.1
-0.860734 0.72115 -0.628333
0.000796018 0.22241 -0.594433
-0.86876 0.814871 0.698333
0.0101466 0.202253 0.787783
-0.73533 1.27538 -0.03
0.00242495 1.46863 -0.665263
0.0035729 1.65516 0.607368
0.827713 0.241646 0.09335
0.86374 0.717204 -0.631363
0.872103 0.797806 0.696818
0.741188 1.26657 -0.027895
-0.865313 0.666305 -1.29167
0.865273 0.663602 -1.29545
0.000798508 0.218392 -1.28554
0.00121247 1.12044 -1.30158
0.000400499 0.61073 -2.21814
-0.864503 0.76801 0.035
0.869906 0.757505 0.0327275
0.00547129 0.229608 0.096675
0.00299892 1.62349 -0.0289475
-0.873848 0.881731 1.36167
0.884942 0.863903 1.36091
0.00897428 0.356809 1.47889
0.00409646 1.647 1.24368
0.00621101 0.939295 2.11204
-0.784203 0.42823 -2.0079
-0.376299 0.235173 -1.98565
-0.775654 0.234804 -1.62917
-0.673146 0.696795 2.08831
-0.345156 0.405432 2.20707
-0.731861 0.399193 1.82917
-0.750842 0.794689 -1.97874
-0.3525 1.0049 -1.96416
-0.720564 1.03801 -1.6175
-0.717295 1.20039 2.00902
-0.32019 1.46731 1.89693
-0.680946 1.4436 1.5575
0.3779 0.235178 -1.9873
0.786118 0.4275 -2.01254
0.776734 0.234825 -1.63303
0.36076 0.40321 2.19429
0.689768 0.6775 2.08592
0.730685 0.396473 1.81973
0.3525 1.00419 -1.9678
0.750899 0.7925 -1.98357
0.72444 1.037 -1.62197
0.32943 1.45916 1.90236
0.727705 1.1825 2.0136
0.689877 1.42807 1.56618
-0.799867 0.23471 -0.9375
-0.817712 0.240985 -0.245833
-0.847615 0.472988 -0.61
-0.408604 0.221081 -0.59305
-0.745356 0.361579 1.1375
-0.83336 0.249456 0.445833
-0.87208 0.532962 0.745
-0.420076 0.204388 0.789725
-0.701671 1.10816 -0.9825
-0.83658 0.97763 -0.646667
-0.741464 1.23699 -0.3475
-0.425657 1.43666 -0.665132
-0.714943 1.38856 0.9225
-0.817237 1.09292 0.651667
-0.727485 1.31206 0.2875
-0.420976 1.62864 0.606184
0.799762 0.234918 -0.942475
0.409759 0.220962 -0.595817
0.816906 0.240893 -0.251925
0.849145 0.470404 -0.614282
0.743076 0.360963 1.12918
0.434624 0.204535 0.785842
0.833052 0.247867 0.438625
0.872554 0.518756 0.740359
0.710268 1.10796 -0.984343
0.431941 1.43658 -0.665395
0.840955 0.972929 -0.648445
0.746695 1.22951 -0.346711
0.722816 1.37589 0.928553
0.430673 1.62802 0.608553
0.82866 1.08175 0.653278
0.734241 1.30218 0.290921
-0.862112 0.638882 -1.65365
-0.394716 0.611095 -2.17911
0.000799752 0.218852 -1.63602
0.000600748 0.42294 -2.16075
-0.866085 0.450752 -1.2875
-0.393259 0.218379 -1.28444
-0.835259 0.91516 1.72068
-0.360022 0.943943 2.09431
0.00838815 0.352887 1.84159
0.00700651 0.669999 2.11913
-0.881973 0.626818 1.4225
-0.369058 0.357088 1.48111
0.000606237 1.08361 -1.64292
0.000200249 0.816775 -2.15645
-0.846627 0.872261 -1.29583
-0.357521 1.10489 -1.30079
0.00435824 1.63705 1.57439
0.00541551 1.20399 2.06014
-0.783461 1.14813 1.30083
-0.346148 1.62949 1.24184
0.860298 0.636801 -1.65814
0.395843 0.610365 -2.17978
0.866088 0.449442 -1.2916
0.394318 0.218421 -1.28665
0.84179 0.896951 1.71983
0.371974 0.934647 2.09873
0.882114 0.617164 1.41768
0.377074 0.356532 1.47667
0.850877 0.870403 -1.29931
0.361645 1.10711 -1.30237
0.794879 1.13215 1.30414
0.354429 1.6294 1.24553
-0.860866 0.498178 0.0675
-0.41662 0.225268 0.0983375
-0.859725 0.693727 -0.96
-0.863663 0.74458 -0.296667
0.000797263 0.218034 -0.939988
0.00313365 0.229775 -0.248879
-0.866552 0.791441 0.366667
-0.889984 0.848301 1.03
0.00780892 0.236026 0.442229
0.00956042 0.202593 1.13334
-0.832993 1.03823 0.00250001
-0.447188 1.61148 -0.0294737
0.00181871 1.20637 -0.983421
0.00271194 1.59894 -0.347105
0.00328591 1.64691 0.28921
0.00383468 1.65644 0.925526
0.862057 0.492951 0.0630387
0.421788 0.225236 0.0950125
0.863445 0.690403 -0.963409
0.869039 0.737354 -0.299318
0.869968 0.777655 0.364773
0.894712 0.830854 1.02886
0.839608 1.02907 0.00241622
0.455049 1.61094 -0.0284213
-0.865829 0.439491 -1.64141
-0.875189 0.465041 -0.94875
-0.839896 0.917615 -0.97125
-0.841663 0.833475 -1.63558
0.865307 0.438471 -1.64558
0.845266 0.831451 -1.64006
0.843454 0.914224 -0.973876
0.866599 0.462902 -0.952942
-0.384779 0.218856 -1.63259
0.386109 0.218859 -1.63452
0.400038 0.218083 -0.941231
-0.398712 0.218018 -0.938744
-0.355011 1.066 -1.63021
-0.3666 1.17595 -0.982961
0.371087 1.17704 -0.983882
0.357072 1.06566 -1.63245
-0.385507 0.425585 -2.13973
-0.373608 0.805732 -2.07459
0.374172 0.804637 -2.07193
0.386872 0.42522 -2.13997
-0.854648 0.485379 -0.27125
-0.863895 0.516859 0.40625
-0.826015 1.06602 0.327083
-0.837065 1.00907 -0.322083
0.855648 0.481654 -0.275622
0.842018 1.00187 -0.323014
0.832237 1.05446 0.327847
0.864579 0.507217 0.401699
-0.411397 0.225605 -0.247356
0.414538 0.22557 -0.250402
0.420749 0.2298 0.440427
-0.410837 0.22985 0.444031
-0.459513 1.57025 -0.347303
-0.437136 1.62617 0.288355
0.446922 1.6276 0.290066
0.466838 1.57045 -0.346908
-0.88436 0.587784 1.08375
-0.854988 0.661806 1.77492
-0.764653 1.17426 1.63909
-0.807896 1.11456 0.97625
0.884538 0.573018 1.07902
0.821173 1.09944 0.978708
0.773802 1.15732 1.64301
0.856849 0.647332 1.76978
-0.385054 0.202589 1.13542
0.399209 0.202601 1.13126
0.368917 0.365055 1.83066
-0.357107 0.364728 1.83538
-0.351686 1.63566 0.924013
-0.333169 1.62499 1.56595
0.34193 1.6246 1.57029
0.3594 1.63688 0.927039
-0.352589 0.683397 2.10975
0.366367 0.673749 2.11235
0.350702 1.19325 2.05606
-0.340106 1.20219 2.05182
-0.761757 0.336615 -1.98441
-0.564848 0.237995 -1.98242
-0.769769 0.234659 -1.80208
-0.743787 0.570897 2.18981
-0.521635 0.419799 2.19645
-0.722961 0.414123 2.00208
-0.732854 0.886304 -1.9618
-0.52875 0.991242 -1.94941
-0.71802 1.0132 -1.77625
-0.686488 1.32628 1.94735
-0.482595 1.46465 1.89087
-0.67298 1.4579 1.71625
0.56645 0.23794 -1.98495
0.763364 0.33625 -1.98823
0.770947 0.234833 -1.80566
0.537239 0.412483 2.18127
0.756425 0.55125 2.18014
0.72195 0.410988 1.99236
0.52875 0.98965 -1.95435
0.733147 0.88375 -1.96738
0.721052 1.01233 -1.78138
0.491835 1.45202 1.89862
0.697228 1.30875 1.95555
0.682237 1.44172 1.72559
-0.805065 0.235542 -0.764583
-0.812318 0.240349 -0.41875
-0.794747 0.372061 -0.600833
-0.607619 0.231788 -0.592358
-0.743695 0.35721 0.964583
-0.837515 0.25133 0.61875
-0.85078 0.403487 0.768333
-0.620575 0.234683 0.790696
-0.740464 1.16921 -0.82375
-0.788062 1.08765 -0.655833
-0.744427 1.21769 -0.50625
-0.616651 1.37459 -0.665066
-0.713025 1.36438 0.76375
-0.758966 1.21568 0.628333
-0.722894 1.32973 0.44625
-0.619035 1.58695 0.605592
0.804942 0.235517 -0.769838
0.612516 0.223686 -0.596508
0.8117 0.240319 -0.424563
0.796846 0.369506 -0.605741
0.741054 0.357205 0.956538
0.642697 0.214008 0.784871
0.837468 0.249231 0.611263
0.841847 0.394697 0.76213
0.746975 1.16595 -0.824935
0.623633 1.37443 -0.665461
0.792575 1.0823 -0.656986
0.749431 1.21097 -0.506119
0.720416 1.3522 0.769145
[...]
POINT_DATA 3682
SCALARS point_scalars float 1
LOOKUP_TABLE default
-123.845
-51.8797
-101.08
-44.4867
-119.041
-53.7109
-88.8045
-44.4489
-41.6152
-61.2889
-94.7308
-52.3167
-42.8409
-66.9631
-92.3927
-52.2818
-114.853
-108.89
-36.232
-55.6768
-49.9182
-50.9502
-49.3125
18.9084
-95.0881
-36.232
-52.2563
-51.3486
-49.3125
-49.3125
-5.37387
-106.229
-62.9261
-49.9626
-46.4822
-45.1084
-44.8309
-103.526
-95.3007
-123.559
-55.7771
-46.6044
-45.4657
-42.0652
-18.1754
-167.005
-43.4811
-54.3143
-50.1693
-50.3149
-47.3585
121.832
-45.6669
-45.6669
154.584
-40.8891
-41.6242
-25.4582
-85.4587
-103.548
-59.9306
-46.5569
-41.9402
-39.4152
13.9519
-158.099
-43.6173
-57.7757
-52.9112
-47.6809
-47.1308
120.482
-46.45
-46.4031
154.829
-40.9332
-40.8613
-27.421
-86.0224
-103.886
-60.7575
-46.5231
-43.2912
-40.7536
-115.615
-107.423
-34.9522
-63.9659
-51.0692
-54.3804
-50.7217
25.79
-94.1813
-42.0512
-57.8036
-50.2641
-49.667
-49.3422
-1.70269
-106.571
-62.7254
-49.7657
-46.5264
-45.1123
-45.608
-101.605
-94.316
-121.033
-56.2734
-46.6673
-46.361
-41.9619
-80.7216
-169.95
-59.3903
-46.3442
-48.7928
-51.1496
-81.2093
-33.5202
-33.2709
-49.3986
-81.478
-58.9531
-46.5026
-50.6675
-34.0414
-49.4473
-45.0508
-49.4356
-49.607
-46.3173
-48.2471
-63.1724
6.04712
-61.5139
-44.3699
-49.3357
-46.799
-62.6305
-60.9795
-60.852
-69.0654
2.81481
199.095
-49.0591
-48.9637
-44.2112
-82.2877
-51.9468
-51.1485
-54.5884
-49.9298
-44.7286
-95.9466
-165.784
-85.1852
-45.7618
-49.494
-48.4819
-89.8683
-106.042
-50.8551
-44.4288
-36.3456
-47.2171
-165.36
-98.6363
-86.0798
-49.6962
-45.7738
-47.7006
-109.755
-85.9633
-50.3298
-36.4124
-44.8452
-47.2984
-52.2718
-43.5372
-43.7334
-48.1108
-53.0124
-47.3971
-48.1461
-48.3931
-32.8622
-61.7889
-74.6825
5.34764
-51.9636
-49.6699
-57.8358
-58.0404
-51.0735
-48.1299
-43.7998
-43.9099
-53.422
-48.6273
-45.6856
-49.8659
-33.8027
4.55224
-61.2571
-74.1434
-52.1394
-57.6919
-49.8836
-57.5529
-91.1782
178.648
-96.4545
100.636
-60.66
-66.9548
-50.4035
-44.2729
-48.2446
-45.6252
-51.9908
-53.4975
-30.0661
153.694
-56.1736
-5.28654
-43.866
-32.3922
-49.8771
-50.0825
-90.296
179.702
-60.5999
-66.8883
-50.5995
-44.3069
-50.5136
-53.5033
-56.2682
-5.23337
-49.7776
-49.9956
-45.8313
-44.0873
-51.4683
-49.6513
-56.9899
-45.1545
-47.2142
-49.5992
-43.6506
-61.8085
-56.3475
-80.3326
32.1536
-112.104
-70.0557
-56.5245
-45.5757
-44.0053
-50.8995
-49.3829
-47.5925
-50.2387
-56.0175
-79.8277
-91.2108
-55.6399
-54.9044
-77.6682
-91.3311
-79.0325
-54.3188
-54.1644
-93.1899
-93.3139
-55.1967
-55.3899
-35.2441
17.5492
17.856
-35.2725
117.104
142.259
143.749
115.997
-44.799
-45.52
-52.1469
-59.9548
-44.3673
-59.4418
-51.7909
-46.1262
-44.442
-44.4868
-43.8154
-43.9419
-101.682
-66.4482
-66.4195
-102.015
-50.3383
-51.9274
-47.9803
-49.7254
-50.562
-49.7859
-48.1721
-51.9678
-61.5883
-61.5588
-47.8413
-47.7322
-55.1404
-45.2098
-45.4174
-55.2952
-44.7983
-44.8913
-35.8002
-35.6996
-98.4782
-159.822
-111.187
-48.1317
-49.7578
-49.2026
-77.7895
-97.1979
-77.1629
-43.0468
-38.3398
-46.5664
-161.708
-98.5255
-111.015
-50.6953
-50.1017
-49.0486
-95.8589
-72.5286
-78.3132
-38.4081
-43.4159
-46.3531
-46.5897
-41.1328
-41.7461
-46.2426
-54.5026
-47.4948
-51.3062
-51.7582
-71.8803
-75.676
-82.9122
-42.7898
-50.4817
-50.7417
-54.1523
-55.6791
-46.0449
-46.1685
-36.2741
-42.4235
-55.1828
-53.6788
-50.3285
-56.1596
-72.4997
-44.1199
-74.3781
-81.6151
-50.3744
-55.4953
-51.0385
-54.0754
-97.2287
-92.3312
-104.322
138.598
-164.451
-164.78
-122.045
14.7724
-69.9532
-53.5366
-60.066
-64.1532
-46.1502
-45.1017
-50.1153
-44.2939
-48.9328
-49.2676
-47.5884
-45.3419
-50.4006
-53.2957
-51.4801
-52.4369
-109.202
-109.219
-52.2929
111.641
-41.5414
-31.2756
-51.9487
-14.4397
-34.2421
-34.3499
-39.8946
-30.9505
-48.1853
-50.8024
-49.5033
-50.0196
-96.2054
-89.0231
-107.113
139.099
-69.5134
-53.7654
-59.7722
-64.0206
-46.5365
-45.4469
-50.209
-44.3699
-50.2936
-53.2531
-50.1318
-52.4877
-42.3435
-31.1408
-51.7955
-14.6819
-48.3468
-50.9407
-49.5041
-50.045
-43.6592
-42.4456
-45.6962
-43.9193
-46.6385
-53.2987
-49.6823
-49.7439
-49.2451
-49.2489
-52.3966
-47.1974
-45.8515
-47.8387
-46.6758
-46.4886
-48.5237
-48.6892
-43.8384
-57.4736
-68.6141
-60.187
-59.3944
-72.8889
7.92152
8.09923
52.1315
-107.801
-60.293
-59.5459
-65.2121
-59.1458
-43.2901
-44.8489
-45.225
-43.9731
-46.6375
-53.1324
-49.552
-49.3837
-47.6635
-47.9831
-47.3004
-46.9279
-67.9142
-59.9844
-59.0376
-71.9831
-71.6531
-61.1702
-60.5074
-55.6397
-71.5037
-61.0794
-60.3833
-55.1386
-79.9508
-68.5909
-68.573
-62.0534
-13.4327
0.715403
0.726708
16.5127
193.831
184.209
193.699
194.046
-46.7481
-49.138
-48.2406
-51.9848
-46.7567
-49.2833
-48.298
-51.5419
-44.1652
-44.3368
-44.6139
-44.1529
-82.2804
-97.8369
-73.7954
-82.431
-52.0586
-52.2745
-51.2536
-50.7133
-52.31
-51.1936
-50.9493
-50.3517
-50.3701
-54.3687
-54.3528
-58.6395
-46.9308
-49.8621
-49.8867
-53.0104
-44.2637
-45.2965
-42.606
-44.4051
-97.9698
91.0036
-119.082
40.906
-91.9305
-89.4354
-51.9816
-45.0046
-47.8991
-45.8434
-51.1097
-47.3448
-102.952
110.766
-58.9707
112.643
-67.6909
-39.4985
-46.8476
-39.3544
-43.6499
-34.8885
-47.5055
-46.4397
-119.449
40.8213
-96.5776
90.3945
-92.8152
-89.6586
-47.9532
-45.9088
-52.007
-44.5544
-50.9203
-47.1145
-59.3128
112.723
-105.116
111.899
-68.7558
-39.574
-44.4947
-35.181
-46.9664
-39.9448
-47.6042
-46.5617
-57.7849
-53.2523
-44.3474
-43.5154
-46.7379
-43.4575
-50.7741
-46.101
-50.57
-59.5051
-47.1083
-44.9129
-45.6701
-51.3267
-44.1406
-56.8809
-57.1482
0.0755555
-57.4914
-61.4012
-66.9474
-102.96
34.274
-95.8379
-49.9843
-53.5896
-50.6239
-49.374
-55.1581
-61.4156
-62.4464
-57.8226
-56.403
-52.6491
-50.6686
-46.1581
-44.3068
-43.4388
-46.5358
-43.0173
-50.6086
-59.3411
-44.0349
-57.3727
-46.4042
-44.4723
-47.3927
-50.8498
-56.5547
0.589972
34.2347
-96.6475
-57.0086
-60.8755
-66.4726
-102.058
-50.2281
-54.0464
-62.0116
-57.8113
-50.6522
-49.6376
-54.9447
-61.3834
-90.6716
-88.302
179.167
168.777
-95.5706
-95.6505
119.443
121.186
-70.9324
-54.9849
-77.1458
-60.0804
-50.9618
-49.1107
-44.988
-41.8263
-48.1504
-48.1327
-45.496
-45.5206
-50.0883
-53.498
-58.28
-49.3488
-31.6371
-31.6121
139.761
138.535
-54.0181
-65.4911
-18.1304
6.0772
-44.1891
-44.4049
-33.5867
-33.2747
-48.9721
-50.1587
-52.5238
-47.5207
-90.1931
-88.5968
169.357
179.503
-70.8261
-55.043
-77.1532
-59.9388
-49.5184
-51.3601
-44.9823
-42.8849
-50.831
-52.8302
-58.0863
-49.3696
-65.4076
-53.3462
5.62165
-18.3314
-50.4561
-49.2021
-47.4384
-52.8058
-45.2617
-45.5477
-43.9408
-44.4105
-52.5487
-53.5348
-46.6874
-53.0264
-56.5379
-56.603
-44.9664
-44.9778
-46.1046
-48.7445
-50.3099
-48.5444
-43.6533
-43.6503
-61.7454
-61.7441
-54.527
-58.0995
-94.7753
-71.3283
28.0064
27.9563
-109.319
-109.185
-69.4787
-69.1843
-56.1158
-56.4735
-45.108
-45.9286
-43.9676
-44.6702
-53.1476
-51.2717
-46.3065
-52.744
-48.8633
-46.7204
-50.4766
-49.0614
-57.8575
-54.2643
-70.8373
-94.2217
-102.846
-70.6075
-71.6028
-100.597
-46.0698
-48.5673
-55.3821
-54.0469
-71.5653
-51.4631
-56.5594
-52.4002
-97.3606
-105.407
-71.1925
-58.7627
-101.503
-101.595
-71.5862
-70.345
-99.847
-58.5557
-70.4972
-108.055
-70.8345
-52.037
-55.7921
-50.9584
-45.745
-54.1623
-55.2056
-48.4767
-117.141
-121.13
-79.2355
-73.7713
-117.715
-73.737
-79.2504
-121.324
-48.4728
-51.9765
-61.5174
-57.3679
-49.0859
-57.6079
-61.5694
-52.0126
-63.8231
-25.9055
-14.3446
-54.8467
-1.98539
44.957
14.0097
-5.7374
-1.73758
-5.82459
14.1561
45.2689
-64.5029
-54.9972
-14.4331
-26.3946
37.9543
138.22
190.178
12.6434
51.4988
131.207
182.13
125.099
54.3413
125.878
182.579
135.09
38.1326
12.0931
190.541
136.894
-41.798
-44.9812
-46.6676
-46.5049
-46.728
-45.9975
-46.6323
-44.8965
-52.2105
-57.0816
-50.7214
-47.9819
-71.0846
-53.4998
-51.914
-62.9566
-40.0253
-46.1279
-46.6843
-44.6213
-70.6331
-62.8722
-52.1115
-53.1442
-52.3933
-48.2693
-50.494
-56.6122
-49.0047
-45.7507
-46.8278
-47.0612
-44.6463
-46.9404
-44.2419
-43.3928
-44.518
-43.4909
-44.2526
-46.9695
-45.4809
-43.7769
-44.6527
-45.0656
-46.4606
-44.5813
-44.5997
-43.7877
-108.899
-83.6492
-96.0688
-105.523
-56.3763
-64.4852
-73.2813
-66.145
-56.5708
-65.9614
-73.5436
-63.9423
-111.165
-106.367
-96.0296
-82.8332
-51.9513
-50.9696
-50.5225
-48.8905
-51.1358
-51.2419
-52.9755
-53.4542
-46.1817
-48.556
-50.3731
-48.756
-49.782
-48.4475
-50.2759
-50.6031
-53.4417
-48.723
-50.6366
-50.8705
-49.9281
-50.7836
-50.1985
-48.7896
-46.3096
-48.7526
-50.5407
-48.6399
-50.7406
-53.5416
-53.0071
-51.3796
-56.5304
-57.4357
-58.5904
-58.1769
-60.2415
-57.8371
-58.5784
-57.5256
-48.6469
-47.4392
-50.1605
-48.8431
-48.7626
-48.4069
-50.1441
-47.5168
-53.0419
-52.1463
-52.7418
-59.1605
-47.1867
-40.6882
-46.9725
-48.2288
-47.3347
-47.93
-47.0228
-41.3946
-52.2979
-59.513
-52.8805
-52.5544
-45.2979
-45.3141
-45.1772
-44.9477
-46.2516
-44.9203
-45.2379
-45.3744
-38.2618
-32.1703
-42.7406
-43.0506
-38.0059
-42.6979
-42.3487
-31.9972
-93.5582
-145.178
-137.725
-50.4681
-50.7314
-49.7967
-73.0502
-91.8945
-102.115
-43.6698
-40.1603
-46.2301
-146.925
-92.9285
-140.523
-52.6936
-52.3685
-48.9326
-85.0768
-69.8074
-104.466
-40.2215
-43.5335
-46.2192
-43.7397
-40.7335
-40.5979
-45.0302
-56.7966
-55.6768
-57.4738
-56.4373
-95.3436
-83.9542
-89.5443
-91.3634
-51.5542
-51.5168
-53.1772
-53.465
-44.1713
-45.0932
-41.9089
-42.4206
-58.0877
-61.3874
-52.6166
-61.0446
-93.6291
-93.8995
-82.3782
-88.4619
-51.5141
-53.3654
-51.5616
-53.11
-91.4328
-82.7277
-122.256
57.7182
-165.827
-165.62
-145.373
-120.891
-63.4133
-57.0039
-59.5074
-62.3307
-46.2533
-45.5447
-51.1217
-44.4691
-48.7819
-48.885
-48.8532
-46.708
-50.5753
-51.4167
-51.0299
-52.0662
-92.9795
-92.9134
-70.4253
29.2769
-37.1898
-31.2812
-45.0321
-21.1303
-33.5114
-33.5577
-38.8213
-32.2255
-48.7437
-49.9451
-49.3867
-49.8542
-91.3531
-83.0978
-125.977
60.4465
-63.4345
-56.6377
-59.2267
-62.2013
-46.6148
-45.9969
-51.1612
-44.538
-50.6527
-51.3131
-50.0482
-51.9923
-38.0924
-31.4005
-45.3409
-21.454
-48.8726
-50.0005
-49.5113
-49.6216
-44.2498
-46.0951
-45.8808
-44.1818
-47.9952
-51.1292
-49.4232
-49.6351
-49.527
-49.5231
-50.8482
-48.7092
-46.0217
-47.0928
-46.5604
-45.7603
-48.7209
-48.2262
-42.6758
-56.1913
-65.696
-60.3283
-60.8423
-67.3458
6.59573
6.78283
36.6489
-65.4185
-62.0513
-61.0041
-63.1865
-60.0585
-43.4926
-45.3356
-44.6166
-44.159
-47.9622
-50.9837
-49.3565
-49.3847
-47.1397
-47.2792
-47.2015
-46.0085
-65.1341
-59.9074
-60.3777
-66.7509
-65.443
-61.1543
-60.9105
-57.8902
-65.3469
-61.0743
-60.7842
-57.6742
-74.0877
-69.1615
-69.1454
-65.3354
-4.4365
2.2859
2.33342
9.60483
197.574
202.307
190.176
197.679
-47.8369
-49.0603
-48.7511
-50.2092
-47.7194
-49.0976
-48.7697
-50.0177
-44.2018
-44.2182
-44.4083
-44.1953
-82.2546
-88.8361
-77.3053
-82.5401
-52.2087
-52.2924
-51.4645
-51.7704
-52.4311
-51.4553
-51.0289
-50.6339
-52.2749
-54.5564
-54.5621
-56.9619
-48.4141
-49.9381
-49.9224
-51.4502
-44.3474
-45.1621
-43.1722
-44.3779
-88.026
-95.2548
-115.553
47.1322
-162.821
-160.732
-143.038
-113.279
-99.7183
-75.4344
-87.575
-86.9589
-45.132
-46.0728
-52.8125
-45.2481
-49.3498
-49.4967
-49.0291
-46.743
-48.4089
-49.1193
-50.3827
-47.5872
-78.6613
-92.1726
-126.362
49.7585
-93.3723
-109.229
-76.6687
18.2371
-61.0242
-45.9405
-60.4972
-44.1068
-43.6518
-45.3861
-47.0653
-40.9908
-37.3078
-35.1724
-41.2178
-35.4033
-46.7381
-47.5798
-47.3666
-46.7792
-164.878
-163.325
-143.739
-113.075
-86.3479
-95.6312
-120.862
46.2643
-99.7103
-75.041
-88.4055
-87.2492
-50.1167
-49.3598
-48.5965
-47.1136
-47.6411
-46.4638
-53.1698
-44.6707
-48.4536
-48.6938
-50.1998
-46.2624
-94.47
-110.918
-77.1285
19.6272
-72.3604
-88.2862
-126.559
53.0184
-61.0493
-46.7977
-62.0641
-44.0674
-37.4208
-35.3714
-40.3806
-35.6154
-43.8925
-45.86
-47.4052
-41.4062
-46.7098
-47.7222
-47.4067
-46.9157
-47.5579
-52.1355
-56.4119
-52.2561
-44.2066
-43.2983
-43.1257
-43.4352
-42.5406
-45.371
-44.9921
-43.195
-47.1256
-48.8348
-49.1812
-47.3865
-52.7377
-52.8671
-52.4474
-54.7922
-46.0794
-43.7746
-51.0378
-45.5858
-50.2993
-46.0356
-45.4778
-50.7233
-48.7161
-48.1294
-43.3552
-55.4907
-46.7503
-32.8219
-52.0419
-15.3775
-67.9994
-56.5002
-59.8347
-61.9721
-78.4362
-71.391
-70.5604
-87.5717
-7.99
7.98643
29.6407
-45.6123
-50.6587
-51.791
-50.8383
-50.284
-50.3257
-48.7159
-50.2327
-49.5458
-55.3599
-60.6057
-56.6022
-59.5074
-57.8244
-58.0014
-60.1046
-58.1936
-47.2951
-52.1623
-53.9227
-51.5828
-47.2544
-48.8447
-49.148
-47.435
-44.8435
-43.2925
-44.0133
-43.4188
-42.8358
-45.3665
-45.0316
-43.1717
-52.9375
-53.2172
-52.1507
-55.2598
-49.322
-48.2955
-43.4153
-56.0452
-47.0356
-44.2733
-46.4319
-45.31
-53.0055
-48.6206
-47.6736
-50.6402
-48.6621
-32.2907
-52.3828
-16.0158
-8.86052
8.03745
29.2855
-45.5644
-66.9451
-56.2887
-59.5591
-61.3277
-77.6262
-70.8663
-69.4608
-85.8954
-50.8323
-51.8285
-50.9869
-50.547
-57.8475
-57.639
-59.7155
-57.733
-50.9598
-48.8248
-50.0982
-49.8167
-55.2162
-60.4312
-56.3877
-59.2541
-101.376
-80.1065
-90.6797
-90.3772
164.51
189.703
187.04
169.023
-108.325
-87.2722
-96.2417
-96.2928
96.9448
134.799
105.614
104.478
-60.3299
-60.876
-64.9498
-57.3995
-65.7451
-68.0767
-71.5682
-63.2152
-50.0411
-51.1398
-50.8165
-49.8541
-44.1899
-44.252
-44.7692
-43.2215
-47.8157
-49.0674
-48.282
-48.2351
-45.599
-45.6302
-45.574
-45.6586
-51.7216
-52.005
-51.4391
-52.9495
-52.9826
-54.0578
-56.2787
-51.0625
-40.1457
-21.2657
-30.3626
-30.2801
136.59
185.896
142.875
142.847
-54.6539
-58.828
-54.4725
-60.994
-9.43346
-1.80659
-11.4541
0.804984
-42.261
-45.4227
-43.9248
-44.0529
-31.3871
-37.8619
-32.7019
-32.6036
-49.704
-50.5449
-49.8547
-50.2034
-50.251
-49.9243
-51.2233
-48.6479
-102.154
-79.4642
-90.1216
-90.0499
165.177
190.031
170.048
189.898
-60.2185
-60.8136
-64.8645
-57.412
-65.6319
-67.9445
-71.5366
-63.1097
-50.2694
-51.3976
-50.0704
-51.2038
-44.2878
-44.4006
-44.7822
-43.5208
-50.3501
-50.8167
-50.5238
-52.7334
-53.0841
-54.0818
-56.2279
-51.1699
-54.3771
-58.9637
-60.7227
-54.4028
-9.7523
-1.72211
0.597164
-11.6637
-49.5432
-50.2446
-50.2995
-49.5583
-50.2863
-49.9228
-48.5592
-51.2211
-45.6549
-46.2224
-45.5648
-46.1174
-43.9729
-44.1264
-43.95
-44.407
-50.257
-53.8118
-51.203
-52.5796
-49.7206
-49.436
-48.2954
-51.0927
-54.5607
-59.2687
-56.8873
-56.919
-45.8465
-44.6336
-45.133
-45.1376
-46.8958
-47.5653
-46.7445
-47.7577
-48.1158
-50.0157
-50.0156
-49.3127
-43.7655
-44.0451
-43.6399
-43.6589
-59.3929
-67.1672
-61.5398
-61.651
-57.8059
-53.9664
-55.4634
-57.5929
-77.3155
-81.6282
-86.3397
-75.3152
46.5209
22.8191
30.7569
30.6193
-115.038
-104.702
-111.91
-111.797
-67.7901
-71.853
-69.9003
-69.717
-58.1183
-54.7115
-56.4669
-56.678
-45.2245
-46.07
-45.2743
-46.0525
-43.8531
-44.0978
-43.9269
-44.2682
-49.8558
-53.0538
-52.0554
-50.473
-49.3333
-49.5308
-47.7878
-50.8699
-47.3818
-47.8536
-48.0452
-47.2525
-48.3606
-50.6023
-50.453
-49.6758
-57.6401
-53.4689
-57.057
-55.3416
-77.119
-81.5005
-74.8781
-86.0497
-99.7922
-91.7404
-90.8371
-79.2752
-57.4272
-52.4287
-53.0431
-53.4913
-55.6591
-55.7565
-54.1397
-54.2184
-85.7172
-72.7398
-83.6624
-70.3232
-99.2658
-92.3784
-90.6134
-78.9808
-86.9775
-73.3559
-85.8529
-71.1571
-54.9456
-55.3702
-53.3752
-53.8469
-56.0491
-51.1188
-53.6167
-52.131
-104.978
-91.4803
-94.6365
-84.2532
-105.248
-91.6175
-94.7312
-84.3229
-54.0925
-52.7986
-57.2986
-55.9825
-54.4496
-52.9608
-57.4673
-56.0977
-44.408
-36.8342
-33.7028
-26.286
10.0046
27.6724
10.9326
23.7009
11.058
28.4378
9.49754
23.7206
-44.6051
-36.9458
-33.7646
-26.4575
112.477
119.769
141.844
111.546
142.807
135.762
155.265
137.787
138.951
144.139
138.786
155.311
119.181
109.709
108.914
142.459
-44.3197
-44.1743
-45.08
-45.6515
-45.6987
-45.8068
-45.2914
-45.8161
-51.2381
-54.1486
-50.1069
-52.9549
-60.6224
-64.3628
-55.7623
-58.9275
-43.9548
-43.5768
-44.8634
-45.4056
-60.4019
-63.7878
-55.4738
-58.4451
-51.0486
-53.7656
-49.9958
-52.7059
-46.12
-46.8609
-45.8345
-46.3935
-43.7883
-44.9398
-44.0659
-44.7774
-44.9843
-44.0229
-44.7782
-44.1205
-43.9845
-43.9647
-43.7057
-44.1731
-44.221
-44.1352
-43.9691
-43.7471
-103.498
-108.52
-96.1994
-104.711
-63.7367
-65.0767
-68.7317
-68.2914
-65.3686
-64.0612
-68.1584
-68.3652
-108.503
-102.959
-104.839
-96.039
-50.3276
-50.7034
-50.2342
-50.3139
-51.7058
-51.6313
-51.3344
-52.324
-47.3537
-47.6597
-48.4132
-48.2172
-49.6025
-49.3425
-50.6637
-48.8564
-50.554
-50.8581
-50.6504
-50.5737
-49.82
-49.6627
-50.6962
-49.0856
-47.4586
-47.8569
-48.8452
-48.7254
-51.6369
-51.5901
-51.6667
-52.2721
-61.0699
-58.7964
-67.9367
-61.3976
-60.8876
-59.0272
-68.124
-61.7365
-47.9892
-47.525
-48.0222
-48.2578
-47.5336
-47.5589
-47.9004
-48.3042
-54.0134
-56.1323
-54.0459
-55.5993
-44.4457
-45.7682
-44.6503
-46.1957
-44.7475
-46.0005
-44.8754
-46.3932
-54.254
-56.4194
-54.3449
-55.8122
-44.6379
-45.3001
-45.2736
-45.258
-45.3552
-44.5177
-45.3253
-45.1552
-35.1498
-38.0012
-34.5969
-40.0489
-37.6735
-34.895
-39.0865
-34.3297
-124.731
7.89826
-149.754
-74.902
-106.813
-114.312
-50.2614
-45.5807
-50.0121
-47.4193
-51
-48.6958
-124.82
28.3646
-88.1809
-20.1414
-92.9605
-67.724
-46.252
-39.5955
-43.3905
-37.9206
-46.0907
-49.0187
-151.487
-72.1571
-132.351
11.0344
-106.155
-115.069
-49.7655
-47.7387
-50.9877
-46.8685
-50.1736
-49.3499
-90.3828
-17.7376
-126.33
30.9788
-94.6228
-68.6546
-42.7565
-38.0878
-46.3555
-39.7802
-46.1577
-48.8174
-46.2226
-47.9559
-36.0922
-44.5181
-43.769
-40.9429
-47.2539
-45.8391
-52.9969
-57.6909
-46.6503
-48.3912
-43.6342
-57.8694
-46.6415
-54.0888
-78.0526
-36.0256
-73.806
-73.7742
-76.0543
-112.205
-10.3446
-79.0708
-50.1549
-51.5805
-51.3602
-50.2438
-53.1871
-55.5066
-56.2019
-54.8966
-45.4458
-47.654
-47.0704
-45.7092
-32.8334
-44.0327
-44.1159
-41.1087
-54.6928
-57.3118
-43.915
-58.6978
-52.553
-47.3602
-46.943
-58.8459
-77.6253
-37.8205
-11.6741
-86.5868
-72.7558
-72.9277
-75.2605
-112.28
-50.1534
-51.5253
-55.7779
-54.7741
-51.5511
-50.375
-53.1615
-55.4403
-109.162
66.3736
-123.203
48.746
-102.169
-105.185
146.076
123.527
-144.529
-118.943
-144.918
-116.294
-121.54
-121.625
11.214
9.80914
-69.6014
-71.6185
-53.3975
-56.1338
-64.3558
-56.7113
-68.3732
-60.8504
-52.4349
-44.9533
-49.5391
-43.3337
-50.6682
-49.3748
-44.6839
-43.6614
-48.8833
-46.381
-48.7738
-46.6658
-47.6322
-47.5667
-45.3314
-45.3684
-52.6757
-49.1591
-51.8762
-57.179
-51.0892
-53.6712
-55.1425
-50.2596
-74.1633
36.1042
-74.5064
30.0395
-53.0378
-53.0472
132.066
135.539
-53.1226
-31.9268
-44.4882
-15.2316
-51.1158
-55.0099
-19.4689
-10.0519
-39.1728
-33.2792
-40.0964
-33.3755
-40.0612
-40.2242
-31.3264
-31.2093
-48.3904
-47.6844
-50.8326
-51.7083
-49.054
-49.9274
-51.0922
-49.0922
-115.168
68.5183
-125.308
50.8845
-103.953
-108.412
124.782
146.172
-69.2489
-71.5873
-53.3899
-55.9082
-64.201
-56.549
-68.3049
-60.6219
-52.6703
-44.9713
-49.8573
-43.513
-49.3554
-50.7607
-44.6937
-43.835
-52.7236
-49.0458
-52.4213
-56.5741
-49.8097
-53.3028
-54.9796
-50.4086
-53.0846
-32.4878
-44.0539
-15.6725
-55.5373
-50.7602
-10.3152
-19.8875
-48.5199
-48.3905
-50.8742
-51.8019
-50.0119
-49.0929
-48.8305
-51.2683
-43.6609
-43.5742
-43.2505
-44.5501
-45.3305
-45.6538
-43.6577
-44.4553
-47.4599
-46.4286
-52.8902
-53.4739
-49.0006
-50.8091
-48.2295
-51.4208
-50.5232
-48.3674
-50.5069
-48.3803
-52.3193
-52.3396
-47.1367
-47.1501
-46.0339
-47.0128
-47.8078
-49.0237
-46.4164
-47.2069
-46.9081
-47.5784
-42.4956
-56.1136
-42.7896
-56.4477
-43.8171
-43.7689
-57.4909
-57.5006
-65.3809
-75.3977
-58.5342
-62.9321
-57.0754
-61.1691
-76.6799
-69.2405
36.2778
-61.4719
36.5795
-61.8058
49.9377
49.6758
-108.304
-107.135
-62.292
-59.9211
-61.8096
-59.5074
-65.3599
-64.7338
-59.175
-59.1307
-43.0328
-43.4632
-44.9516
-45.1255
-44.9331
-45.4845
-43.7611
-44.3565
-47.3541
-46.2364
-52.6025
-53.3433
-50.5591
-48.8487
-47.8812
-51.0439
-47.2721
-48.057
-48.0962
-48.3656
-47.5781
-47.1421
-47.4824
-47.9184
-64.891
-74.3195
-58.0519
-62.6435
-60.8418
-56.8126
-68.899
-75.8265
-71.7791
-71.5552
-65.5
-57.9031
-58.0398
-64.8861
-55.5186
-55.9891
-71.6827
-71.3292
-65.471
-57.8006
-64.7306
-57.9449
-55.1436
-55.1674
-79.8587
-79.8617
-73.425
-64.8055
-73.4179
-64.7655
-61.9267
-61.954
-13.8652
-13.7994
-6.95918
7.25959
7.3812
-6.61962
15.7694
15.7111
200.599