# vtk DataFile Version 2.0
tet_velo
ASCII
DATASET UNSTRUCTURED_GRID
POINTS 29498 float
-0.706512 0.225 -2.105
-0.675 0.295 2.19106
-0.675 0.755 -2.03152
-0.635 1.00948 2.135
0.706501 0.225 -2.105
0.675 0.295 2.19092
0.675 0.755 -2.03152
0.635 1.00953 2.135
-0.745011 0.19933 -0.67298
-0.751855 0.205316 0.75904
-0.776579 0.954739 -0.64268
-0.754443 1.03076 0.74616
0.744657 0.199677 -0.673027
0.751828 0.205339 0.758947
0.777579 0.955756 -0.64268
0.754481 1.03083 0.74616
-1.4562 -0.19266 -3.24553
-1.45506 -0.136757 -2.11721
-1.48022 -0.152171 -0.68408
-1.47211 -0.162188 0.757745
-1.41616 -0.106199 2.19161
-1.40235 -0.0629164 3.32351
-1.40944 -0.0268918 4.44877
-1.45158 0.13397 -3.2243
-1.45164 0.214405 -2.1007
-1.49065 0.222469 -0.675968
-1.4716 0.219716 0.75266
-1.38568 0.270423 2.17822
-1.38264 0.312213 3.30952
-1.39998 0.348136 4.43619
-1.43919 0.746076 -3.16974
-1.43722 0.824139 -2.04436
-1.50751 0.964119 -0.64906
-1.47437 1.01793 0.743187
-1.36527 1.01792 2.13932
-1.37267 1.05653 3.27242
-1.39833 1.09802 4.40606
-1.43963 1.79865 -3.12034
-1.44446 1.89388 -2.00142
-1.47233 2.04595 -0.620117
-1.48033 2.15229 0.751887
-1.457 2.19232 2.13365
-1.44147 2.21503 3.25353
-1.43845 2.245 4.38246
-0.729071 -0.18796 -3.24832
-0.714973 -0.128475 -2.12129
-0.736782 -0.163325 -0.683552
-0.746837 -0.172781 0.763175
-0.711965 -0.0955087 2.20112
-0.701776 -0.056009 3.32995
-0.70655 -0.024478 4.45249
-0.728704 0.130831 -3.22517
-0.687851 0.319737 3.31483
-0.700677 0.3503 4.43899
-0.716747 0.716656 -3.16441
-0.679336 1.05494 3.27155
-0.700989 1.09722 4.40586
-0.706126 1.77884 -3.11507
-0.703712 1.8754 -1.99561
-0.730557 2.04184 -0.616621
-0.752745 2.15702 0.751456
-0.746505 2.19402 2.13063
-0.735376 2.21441 3.25051
-0.731638 2.24407 4.38026
0.709346 -0.187784 -3.24833
0.726661 -0.128329 -2.1213
0.747181 -0.163042 -0.683596
0.736095 -0.172694 0.763093
0.685305 -0.0954755 2.20101
0.68538 -0.0559526 3.32987
0.691576 -0.0243915 4.45243
0.695288 0.130966 -3.22517
0.676498 0.319782 3.31475
0.68659 0.35038 4.43893
0.690976 0.716813 -3.16441
0.662075 1.055 3.27151
0.678871 1.09731 4.40582
0.747429 1.77918 -3.11508
0.761249 1.8758 -1.99562
0.755591 2.04228 -0.616632
0.716171 2.1573 0.751441
0.678613 2.19418 2.13061
0.67371 2.21455 3.25048
0.678764 2.24421 4.38023
1.43752 -0.192215 -3.24555
1.45643 -0.136279 -2.11725
1.48612 -0.15159 -0.684154
1.47254 -0.161927 0.757615
1.41052 -0.106073 2.19144
1.39549 -0.0627692 3.32336
1.39954 -0.0267 4.44865
1.42437 0.134386 -3.22432
1.44457 0.214887 -2.10072
1.49044 0.223186 -0.676031
1.47921 0.219941 0.75254
1.39625 0.270514 2.17806
1.38209 0.31234 3.30938
1.39133 0.348317 4.43607
1.42035 0.746548 -3.16975
1.43509 0.824754 -2.04437
1.50933 0.965266 -0.649083
1.47967 1.01827 0.743142
1.37191 1.01806 2.13926
1.36544 1.05669 3.27233
1.38169 1.09822 4.40597
1.47465 1.79933 -3.12036
1.49012 1.89467 -2.00144
1.49281 2.04677 -0.620145
1.45395 2.15285 0.751851
1.40461 2.19267 2.1336
1.38974 2.21533 3.25347
1.39118 2.24529 4.38239
-0.73589 0.49 -2.11339
-5.48363e-06 0.215767 -2.11423
-0.756331 0.181596 -1.38899
-0.705731 0.65224 2.21376
0 0.273258 2.21273
-0.753799 0.209786 1.47505
0 0.834502 -2.11102
-0.756713 0.885793 -1.3371
0 1.05454 2.18003
-0.72006 1.04546 1.44058
0.735914 0.49 -2.11342
0.755152 0.182765 -1.38901
0.705774 0.652265 2.21373
0.754273 0.20931 1.47493
0.75672 0.885809 -1.3371
0.720147 1.04559 1.44058
-0.741 0.209756 0.04303
-0.863714 0.577035 -0.65783
-0.000176719 0.199627 -0.673003
-0.876598 0.61804 0.7526
-1.32813e-05 0.189593 0.758994
-0.76829 0.99553 0.0517401
0.000499925 1.24151 -0.64268
1.87395e-05 1.44224 0.74616
0.74136 0.209391 0.04296
0.865836 0.577716 -0.657853
0.876605 0.618086 0.752554
0.769523 0.996788 0.0517401
-0.894312 0.533517 -1.36305
-0.869907 0.597537 0.047385
-0.886268 0.63514 1.45782
-9.11011e-05 0.181288 -1.389
-9.49999e-05 0.202926 0.042995
-6.64064e-06 0.208909 1.47499
-2.74181e-06 0.49 -2.38627
0 0.652252 2.3423
0.000249962 0.976566 -1.3371
0.000259332 1.44862 0.0517401
9.36977e-06 1.26319 1.44058
0.894308 0.533858 -1.36306
0.871876 0.597901 0.04735
0.886268 0.635176 1.45776
-1.07907 0.219702 -2.10285
-0.710743 0.0482627 -2.11314
-0.717608 0.177916 -2.66508
-1.03034 0.282711 2.18464
-0.693482 0.0997457 2.19609
-0.681426 0.307369 2.75295
-1.05611 0.78957 -2.03794
-0.695873 0.735828 -2.59796
-0.689356 1.3152 -2.01357
-1.00014 1.0137 2.13716
-0.657168 1.03221 2.70327
-0.690752 1.60175 2.13282
0.716581 0.0483357 -2.11315
0.700895 0.177983 -2.66509
1.07554 0.219943 -2.10286
0.680153 0.0997622 2.19596
0.675749 0.307391 2.75283
1.03563 0.282757 2.18449
0.682988 0.735907 -2.59797
0.718124 1.3154 -2.01357
1.05504 0.789877 -2.03794
0.648538 1.03227 2.70325
0.656807 1.60186 2.13281
1.00345 1.0138 2.13713
-1.11783 0.2109 -0.674474
-0.740896 0.0180026 -0.678266
-1.11173 0.212516 0.75585
-0.749346 0.0162674 0.761107
-1.14205 0.959429 -0.64587
-0.753568 1.49829 -0.629651
-1.11441 1.02435 0.744673
-0.753594 1.59389 0.748808
0.745919 0.018317 -0.678311
1.11755 0.211431 -0.674529
0.743961 0.0163223 0.76102
1.11552 0.21264 0.755743
0.766585 1.49902 -0.629656
1.14346 0.960511 -0.645882
0.735326 1.59407 0.7488
1.11707 1.02455 0.744651
-1.45563 -0.164709 -2.68137
-1.45389 -0.0293452 -3.23492
-1.09264 -0.19031 -3.24692
-1.46764 -0.144464 -1.40065
-1.45335 0.0388238 -2.10896
-1.08502 -0.132616 -2.11925
-1.47617 -0.157179 0.0368327
-1.48544 0.0351492 -0.680024
-1.1085 -0.157748 -0.683816
-1.44413 -0.134193 1.47468
-1.47186 0.028764 0.755202
-1.10947 -0.167484 0.76046
-1.40925 -0.0845576 2.75756
-1.40092 0.0821119 2.18492
-1.06406 -0.100854 2.19636
-1.4059 -0.0449041 3.88614
-1.3925 0.124648 3.31651
-1.05207 -0.0594627 3.32673
-1.40471 0.160622 4.44248
-1.05799 -0.0256849 4.45063
-1.45161 0.174187 -2.6625
-1.44539 0.440023 -3.19702
-1.09014 0.132401 -3.22474
-1.47114 0.218437 -1.38834
-1.44443 0.519272 -2.07253
-1.48113 0.221092 0.038346
-1.49908 0.593294 -0.662514
-1.42864 0.245069 1.46544
-1.47298 0.618825 0.747923
-1.38416 0.291318 2.74387
-1.37548 0.644173 2.15877
-1.39131 0.330174 3.87285
-1.37766 0.684374 3.29097
-1.03525 0.315975 3.31217
-1.39916 0.723077 4.42113
-1.05033 0.349218 4.43759
-1.4382 0.785108 -2.60705
-1.43941 1.27236 -3.14504
-1.07797 0.731366 -3.16708
-1.47237 0.894129 -1.34671
-1.44084 1.35901 -2.02289
-1.49094 0.991027 0.0470632
-1.48992 1.50504 -0.634589
-1.41982 1.01793 1.44125
-1.47735 1.58511 0.747537
-1.36897 1.03723 2.70587
-1.41114 1.60512 2.13648
-1.3855 1.07728 3.83924
-1.40707 1.63578 3.26297
-1.026 1.05574 3.27198
-1.41839 1.67151 4.39426
-1.04966 1.09762 4.40596
-1.44205 1.84627 -2.56088
-1.07288 1.78874 -3.1177
-1.4584 1.96992 -1.31077
-1.07409 1.88464 -1.99852
-1.47633 2.09912 0.0658845
-1.10144 2.0439 -0.618369
-1.46867 2.17231 1.44277
-1.11654 2.15465 0.751671
-1.44924 2.20367 2.69359
-1.10175 2.19317 2.13214
-1.43996 2.23001 3.81799
-1.08842 2.21472 3.25202
-1.08504 2.24453 4.38136
-0.722022 -0.158217 -2.6848
-0.728887 -0.0285643 -3.23674
-0.0098624 -0.187872 -3.24833
-0.725878 -0.1459 -1.40242
0.0058439 -0.128402 -2.12129
-0.741809 -0.168053 0.0398115
0.00519954 -0.163184 -0.683574
-0.729401 -0.134145 1.48215
-0.00537103 -0.172738 0.763134
-0.706871 -0.0757588 2.76554
-0.01333 -0.0954921 2.20106
-0.704163 -0.0402435 3.89122
-0.694814 0.131864 3.32239
-0.00819848 -0.0559808 3.32991
-0.703614 0.162911 4.44574
-0.00748714 -0.0244347 4.45246
-0.722725 0.423744 -3.19479
-0.0167077 0.130899 -3.22517
-0.694264 0.335019 3.87691
-0.683593 0.687339 3.29319
-0.00567648 0.31976 3.31479
-0.700833 0.723762 4.42243
-0.0070433 0.35034 4.43896
-0.711437 1.24775 -3.13974
-0.0128852 0.716735 -3.16441
-0.690162 1.07608 3.8387
-0.707356 1.63467 3.26103
-0.00863038 1.05497 3.27153
-0.716313 1.67065 4.39306
-0.011059 1.09727 4.40584
-0.704919 1.82712 -2.55534
0.0206513 1.77901 -3.11507
-0.717134 1.95862 -1.30612
0.0287684 1.8756 -1.99562
-0.741651 2.09943 0.0674174
0.0125171 2.04206 -0.616627
-0.749625 2.17552 1.44104
-0.018287 2.15716 0.751448
-0.74094 2.20421 2.69057
-0.0339457 2.1941 2.13062
-0.733507 2.22924 3.81539
-0.0308331 2.21448 3.2505
-0.0264368 2.24414 4.38024
0.718004 -0.158056 -2.68481
0.702317 -0.0284091 -3.23675
1.07343 -0.19 -3.24694
0.736921 -0.145686 -1.40245
1.09154 -0.132304 -2.11927
0.741638 -0.167868 0.0397487
1.11665 -0.157316 -0.683875
0.7107 -0.134085 1.48205
1.10432 -0.167311 0.760354
0.685342 -0.0757141 2.76544
1.04791 -0.100774 2.19623
0.688478 -0.0401721 3.89115
0.680939 0.131915 3.32231
1.04044 -0.0593609 3.32661
0.689083 0.162994 4.44568
1.04556 -0.0255458 4.45054
0.693132 0.423889 -3.19479
1.05983 0.132676 -3.22475
0.681544 0.335081 3.87684
0.669287 0.687393 3.29313
1.0293 0.316061 3.31206
0.682731 0.723847 4.42237
1.03896 0.349349 4.4375
0.719203 1.248 -3.13975
1.05566 0.731681 -3.16708
0.670473 1.07616 3.83866
0.667892 1.63478 3.261
1.01376 1.05585 3.27192
0.678817 1.67076 4.39302
1.03028 1.09777 4.40589
0.754339 1.82749 -2.55535
1.11104 1.78926 -3.11772
0.75842 1.95904 -1.30613
1.12568 1.88523 -1.99853
0.735881 2.09979 0.0674042
1.1242 2.04452 -0.618389
0.697392 2.17574 1.44103
1.08506 2.15507 0.751646
0.676162 2.20437 2.69055
1.04161 2.19343 2.13211
0.676237 2.22938 3.81536
1.03172 2.21494 3.25198
1.03497 2.24475 4.38131
1.44697 -0.164247 -2.6814
1.43094 -0.0289148 -3.23494
1.47127 -0.143934 -1.4007
1.4505 0.0393041 -2.10898
1.47933 -0.156759 0.0367301
1.48828 0.0357983 -0.680093
1.44153 -0.134 1.47453
1.47587 0.0290066 0.755077
1.403 -0.0844209 2.7574
1.40338 0.0822209 2.18475
1.39752 -0.0447346 3.88601
1.38879 0.124786 3.31637
1.39544 0.160808 4.44236
1.43447 0.174636 -2.66252
1.42236 0.440467 -3.19704
1.46751 0.219036 -1.38838
1.43983 0.51982 -2.07255
1.48483 0.221563 0.0382544
1.49989 0.594226 -0.662557
1.43773 0.245227 1.4653
1.47944 0.619103 0.747841
1.38917 0.291427 2.74372
1.38408 0.644288 2.15866
1.38671 0.330329 3.87272
1.37377 0.684515 3.29086
1.38651 0.723267 4.42102
1.42772 0.785651 -2.60706
1.4475 1.27294 -3.14506
1.47221 0.89501 -1.34673
1.4626 1.35971 -2.02291
1.4945 0.991766 0.0470297
1.50107 1.50602 -0.634614
[...]
POINT_DATA 29498
VECTORS point_vectors float
-0.445186 -2.47593 4.90863
0.0129854 0.127695 0.38401
-0.588339 0.63933 1.3777
0.00624324 -0.0924568 0.266481
0.448777 -2.48002 4.91779
-0.013027 0.127682 0.385044
0.589 0.639661 1.37879
-0.00870237 -0.0944559 0.262764
0.000208841 0.000769192 0.0383788
2.02647e-19 -3.53665e-19 3.15636e-17
0 0 0
0 0 0
-0.00015813 0.000641229 0.0327713
0 0 0
0 0 0
0 0 0
-0.588486 -0.322229 19.83
-1.28637 -0.852148 20.524
-0.372212 -0.420016 21.417
0.0746328 -0.0545043 21.5362
0.601736 0.363246 21.4361
0.820699 0.399826 21.078
0.758395 0.223383 21.0053
-0.725998 -0.241087 19.7024
-1.93564 -0.748905 20.4383
-0.555117 -0.54968 21.5074
0.0587071 -0.176874 21.6608
0.931006 0.245925 21.4679
1.14205 0.244448 21.2284
1.01812 0.174432 21.3762
-0.825034 0.0827044 19.6053
-2.22377 0.286505 20.3298
-1.29076 -0.305173 21.4849
-0.217802 -0.280224 21.8164
0.853401 -0.451448 21.5599
1.02536 -0.523074 21.2684
0.981679 -0.338755 20.7337
-0.504686 0.378782 19.9089
-0.901822 0.68705 20.346
-0.862016 0.516886 21.1534
-0.258587 0.0202356 21.5405
0.184823 -0.299876 21.3866
0.333223 -0.391282 21.1309
0.289841 -0.392995 20.7967
-0.580675 -0.683937 19.2778
-1.51183 -3.28194 20.8439
-0.171842 -0.278894 21.6581
-0.0304454 0.115566 20.9652
0.0850362 1.10834 19.4473
0.373715 1.36583 18.2039
0.787239 0.789535 17.4347
-0.737216 -0.57219 18.9633
0.697822 1.83405 9.84794
1.56987 0.826299 11.4964
-0.957249 0.190717 18.515
1.65641 -0.2692 10.1664
1.3716 -0.443646 15.9512
-0.42 0.723658 19.5832
-0.837948 1.49345 20.1088
-1.03609 1.54758 21.2243
-0.309449 0.205866 21.9686
0.0977299 -0.495551 21.53
0.225542 -0.585805 20.9842
0.0683159 -0.438972 20.6271
0.568757 -0.699506 19.2526
1.52247 -3.22279 20.8267
0.169034 -0.281128 21.6559
0.0390267 0.120261 20.989
-0.0381515 1.10341 19.3486
-0.309102 1.37054 18.1978
-0.800773 0.782184 17.2177
0.717936 -0.597991 18.9127
-0.655679 1.79907 9.56187
-1.56964 0.830698 11.3059
0.934153 0.206943 18.4668
-1.59318 -0.275843 9.54597
-1.40597 -0.442787 15.4235
0.43614 0.709772 19.6083
0.87684 1.43575 20.1295
1.05235 1.50552 21.2231
0.304816 0.227882 21.981
-0.073091 -0.496528 21.5613
-0.197261 -0.601648 20.9911
-0.0560688 -0.452418 20.6981
0.593529 -0.318616 19.8233
1.28398 -0.858718 20.5263
0.384508 -0.425026 21.4175
-0.0709084 -0.0567162 21.5343
-0.598351 0.3765 21.437
-0.824255 0.399677 21.0585
-0.750016 0.238631 21.0247
0.736242 -0.244499 19.6792
1.96085 -0.762481 20.4376
0.561749 -0.551897 21.5104
-0.0579653 -0.175394 21.656
-0.920638 0.241929 21.4532
-1.13776 0.247461 21.2328
-1.03133 0.184338 21.4073
0.833121 0.0871956 19.5937
2.22828 0.287898 20.3317
1.29116 -0.300062 21.4911
0.210817 -0.277482 21.8181
-0.850626 -0.447201 21.5549
-1.02544 -0.522952 21.2812
-1.01807 -0.345384 20.6933
0.497224 0.360186 19.9191
0.888227 0.646359 20.3575
0.851033 0.499652 21.1533
0.26656 0.0262208 21.5555
-0.177726 -0.316421 21.4037
-0.32729 -0.412187 21.106
-0.248152 -0.39468 20.8795
-0.920956 -0.0168372 1.32884
0 0 0
-0.0133101 0.00147664 0.253614
0.0101395 0.00208954 0.0212024
0.000324349 0.00174563 0.0161576
-0.0275803 0.0192444 0.51737
0.000114969 0.030611 0.0830051
-0.0437896 -0.00843543 0.0870251
8.9964e-06 0.00926146 -0.0412202
0 0 0
0.914112 -0.0153607 1.31734
0.0125812 0.0013368 0.249958
-0.0105459 0.00225107 0.0219592
0.0281812 0.0194948 0.527491
0.0439064 -0.0084519 0.087278
0 0 0
0 0 0
0.000176018 0.00206771 0.0351719
3.73714e-06 2.65011e-05 0.0034608
-0.000404082 0.00664803 0.024891
4.36645e-07 1.20981e-05 0.00366055
0 0 0
-4.64791e-05 0.0570056 0.114345
1.33847e-05 -0.00371253 0.0378919
3.5284e-18 1.05281e-18 5.68581e-17
-0.000174486 0.0023754 0.0384119
0.000404799 0.0066836 0.0249315
0 0 0
0 0 0
-0.000598867 0.00688799 0.0344026
6.59625e-05 0.000762877 0.00478508
-7.54655e-08 -2.113e-08 4.02638e-05
1.39734e-05 -0.000800635 0.0362674
-1.67895e-08 9.78781e-08 1.08217e-05
-0.000971246 0.225234 0.595154
0 0 0
-7.89901e-06 0.00192999 0.0137285
1.89235e-05 0.00735742 0.08284
-1.11269e-05 0.00219897 -0.00592875
0 0 0
0.000580645 0.00668174 0.0329191
-4.0828e-05 0.000475097 0.00297815
-3.66788 -2.00384 20.1859
-2.30145 -5.24667 21.084
-2.20083 -1.85137 17.7801
1.21136 1.21586 16.5478
-0.293908 1.32081 11.879
-0.34246 1.22751 6.19387
-4.39252 1.23321 19.947
-3.02566 1.29782 16.7532
-1.93918 2.7114 19.8272
1.41389 -0.070825 16.6895
0.660248 0.167717 5.18977
0.41521 -0.903543 20.2417
2.33231 -5.19716 21.0691
2.20727 -1.90174 17.7172
3.71021 -2.04444 20.1798
0.337999 1.29126 11.6709
0.387506 1.20839 6.04288
-1.21916 1.2028 16.7933
3.04335 1.35235 16.6574
1.97923 2.59728 19.8457
4.39833 1.2381 19.9459
-0.637653 0.176238 4.93826
-0.440683 -0.883952 19.5939
-1.41535 -0.0827236 16.8609
-0.126845 -0.726764 20.2644
-0.0684009 0.116579 16.543
0.147707 0.098128 18.9022
-0.0602498 0.200423 15.7162
-2.19982 -0.91364 21.5942
-3.20954 2.43088 21.3137
-0.127028 -0.230578 20.0067
-0.50113 0.0302171 21.7494
0.0628515 0.110932 16.6407
0.134727 -0.735646 20.2509
0.0695103 0.200221 15.6386
-0.148909 0.0951569 18.9768
3.16764 2.32959 21.3315
2.20721 -0.896847 21.6062
0.496735 0.0333306 21.6923
0.128403 -0.248233 20.0665
-0.974862 -0.581335 19.9839
-0.669512 -0.287639 19.779
-0.639716 -0.493113 19.5759
-0.856761 -0.694906 21.2678
-1.61441 -0.847109 20.4727
-1.67133 -1.78019 20.5548
-0.123152 -0.227188 21.4734
-0.477567 -0.505774 21.4503
-0.205729 -0.464329 21.5855
0.318159 0.155046 21.5874
0.0684083 -0.123141 21.5827
0.0981924 0.0111375 21.6403
0.710739 0.446428 21.3341
0.767918 0.334849 21.5258
0.614279 0.833099 21.1646
0.850594 0.372558 20.6042
1.0126 0.326653 21.2644
0.934227 1.05801 20.9689
0.888355 0.19911 21.1911
0.726268 0.882876 21.4328
-1.33426 -0.4643 19.7891
-0.814293 -0.105229 19.6152
-0.801747 -0.417431 19.3779
-1.25612 -0.726753 21.414
-2.31139 -0.267437 20.3652
-0.227076 -0.375237 21.5744
-0.925378 -0.557936 21.527
0.4419 0.0330906 21.7084
-0.0518438 -0.27512 21.7958
1.07995 0.285578 21.2616
1.06988 -0.117772 21.3728
1.27983 0.176651 20.3384
1.25166 -0.157958 21.323
1.29439 1.09691 17.3992
1.2385 -0.256946 20.9066
1.28017 0.502904 16.7019
-1.55115 0.202701 19.6486
-0.699203 0.306257 19.7232
-0.973881 0.126252 19.15
-1.80359 -0.051754 21.1904
-1.47783 0.720468 20.3031
-0.754878 -0.33864 21.7539
-1.29467 0.306731 21.3175
0.365154 -0.306069 21.8152
-0.317725 -0.0925628 21.7425
1.02762 -0.497205 21.3372
0.410951 -0.471422 21.4875
0.969029 -0.470024 21.0602
0.561714 -0.548849 20.9705
1.57678 -0.613825 19.3257
0.41501 -0.401901 20.9975
1.31436 -0.572421 19.8507
-0.727242 0.558563 20.0744
-0.519662 0.535018 19.7472
-0.955475 0.653522 20.7587
-0.95528 1.06225 20.2309
-0.597637 0.28618 21.4603
-1.04333 0.92623 21.2422
0.0140706 -0.180368 21.4641
-0.307919 0.120952 21.7448
0.261963 -0.381497 21.2038
0.16613 -0.407741 21.4265
0.314168 -0.383562 20.9138
0.292743 -0.543514 20.974
0.159328 -0.417087 21.0325
-1.19011 -1.75846 19.1484
-0.659677 -0.628219 19.119
-0.0128239 -0.922008 18.9788
-0.534221 -1.21461 22.1969
0.00941947 -3.89516 21.4722
-0.107326 -0.102477 21.1948
0.000393792 -0.392755 21.199
0.0441694 0.494425 20.1665
-0.000901913 -0.0505007 19.7665
0.168597 1.24184 19.3454
-0.013103 0.524309 17.1283
0.250944 1.41329 19.1967
0.533543 1.80882 15.1199
0.00875796 0.770687 15.8886
1.18586 0.828086 14.4536
0.000697236 1.22872 14.4574
-0.935669 -0.203398 18.5968
-0.0254725 -0.790433 18.3817
1.3903 1.40021 10.4451
1.92462 0.693567 6.64342
-0.0349662 0.0367119 -1.09988
1.85128 0.277727 11.5438
0.0355308 1.09749 8.75179
-0.716423 0.757768 19.0391
-0.0229361 0.358064 17.7479
1.76278 -0.677005 12.182
0.646102 -1.04701 19.6514
0.0262177 -0.704248 -0.817871
0.507626 -0.929701 19.4747
0.00764539 -1.7803 3.13014
-0.66311 1.17568 19.7146
0.0121339 0.887855 19.3829
-0.995028 1.58849 20.5662
0.051206 1.96205 19.9586
-0.74541 0.962068 21.8644
0.0266087 2.35844 21.1749
-0.0356555 -0.257284 21.7459
-0.010287 0.407186 22.1663
0.175247 -0.611259 21.4113
0.00684657 -0.50802 21.5671
0.198703 -0.837089 20.638
0.0102084 -0.819101 21.0805
-0.00490422 -0.810711 20.927
1.18374 -1.76367 19.1487
0.644145 -0.649195 19.0808
0.641019 -0.500215 19.5697
0.538456 -1.20875 22.1822
1.67519 -1.75996 20.5487
0.109381 -0.0996416 21.2001
0.216697 -0.471646 21.5796
-0.0244489 0.485269 20.0093
-0.0968275 0.0166066 21.6333
-0.13723 1.23794 19.2982
-0.600994 0.862451 21.1337
-0.194575 1.43778 19.1036
-0.488586 1.79769 15.0955
-0.927829 1.07067 20.9762
-1.18845 0.816353 14.2545
-0.723222 0.898689 21.4517
0.903096 -0.203327 18.5337
0.804304 -0.428992 19.3389
-1.39423 1.42995 10.2083
-1.88389 0.6561 6.30561
-1.28853 1.11617 17.3003
-1.85195 0.281936 11.2421
-1.29139 0.509618 16.5472
0.721846 0.753556 19.0448
0.971952 0.128151 19.126
-1.80737 -0.682104 11.6183
-0.599569 -1.09742 19.4183
-1.59915 -0.615899 19.2179
-0.519198 -0.943476 19.3214
-1.31469 -0.58286 19.8073
0.694832 1.13984 19.7397
0.525908 0.519934 19.7679
1.02307 1.529 20.5785
0.95291 0.99177 20.2581
0.744038 0.96857 21.8676
1.03914 0.89855 21.2421
0.044615 -0.251217 21.754
0.312574 0.12139 21.7644
-0.148171 -0.621837 21.4239
-0.151232 -0.42418 21.446
-0.186701 -0.829269 20.694
-0.287689 -0.556264 20.9713
-0.142686 -0.414676 21.0286
0.970685 -0.586204 19.9872
0.671879 -0.286569 19.7621
0.860527 -0.698139 21.2683
1.61786 -0.857073 20.4785
0.12939 -0.23491 21.4763
0.483256 -0.511683 21.4503
-0.31538 0.147698 21.5841
-0.0669163 -0.126066 21.5696
-0.709878 0.451889 21.3327
-0.765116 0.346288 21.4786
-0.86048 0.370612 20.5961
-1.01089 0.328381 21.2567
-0.890854 0.211763 21.2164
1.35648 -0.478137 19.7578
0.819562 -0.106564 19.5964
1.26292 -0.733428 21.4163
2.33728 -0.27052 20.3686
0.225186 -0.370735 21.576
0.932267 -0.557603 21.5339
-0.436346 0.0290737 21.708
0.0494415 -0.272264 21.7933
-1.07872 0.281907 21.2666
-1.05023 -0.11869 21.3892
-1.29138 0.186406 20.3232
-1.25485 -0.160647 21.3244
-1.27595 -0.258508 20.8924
1.56894 0.209142 19.6351
0.69411 0.303158 19.7319
1.80606 -0.0508022 21.1905
1.45195 0.685708 20.3141
0.750336 -0.336872 21.7589
1.28061 0.30151 21.3136
-0.364857 -0.303923 21.8123
0.318021 -0.0960055 21.7582
-1.02877 -0.491148 21.3479
-0.418514 -0.488554 21.4869
-0.969495 -0.479598 21.0353
-0.574848 -0.592096 20.9878
-0.403661 -0.409094 21.0147
0.713158 0.524208 20.0936
0.937895 0.617734 20.7632
0.59913 0.285527 21.4644
-0.0194265 -0.187179 21.4995
-0.254467 -0.395905 21.1955
-0.267548 -0.397128 20.9848
-1.14764 -0.549743 19.8846
-1.66176 -1.95798 18.5669
-1.25834 -1.09822 19.6205
-1.90057 -0.956383 19.0898
-0.747621 -0.480895 19.4756
-2.49076 -2.09201 20.4303
-1.06367 -0.740001 21.3422
-0.449809 -0.707569 18.8939
-0.795277 -1.08574 21.6747
-1.35719 -1.48906 22.1778
-0.114691 -0.575153 21.4806
-0.172353 -0.320216 21.5273
-0.0947867 0.0964233 15.6754
-0.0385667 -0.225946 21.5688
0.0223616 -0.293973 19.1828
0.167314 0.0303278 20.8911
0.377186 0.102992 21.6426
-0.0619943 0.479956 13.9701
0.323927 0.370374 21.5324
0.429895 0.598083 17.9709
0.909359 1.09952 19.6067
0.935877 0.418069 21.2217
-0.131631 1.35271 13.2148
0.745061 0.955053 20.8414
1.32425 1.16636 17.4937
1.0497 1.12876 19.4359
1.16343 0.286169 20.2394
0.51403 1.45111 15.1119
0.801493 0.972836 21.3204
1.55026 0.917343 19.4805
0.974929 0.723636 19.5534
-1.5302 -0.179703 19.659
-3.05316 -0.622206 16.6234
-2.36965 0.525976 18.7582
-0.989423 -0.145842 19.1609
-4.87551 -0.484791 19.9166
-1.63284 -0.454886 21.3807
-2.88138 -0.193983 21.6531
-0.730568 -1.23152 20.0225
-0.46546 -0.445303 21.71
-1.12679 -0.753981 20.7342
0.116967 0.0806844 17.9854
0.467957 -0.146744 21.7651
0.829998 0.182974 18.3618
1.45497 0.624779 14.2071
1.23071 -0.153021 21.2464
0.26928 0.994835 2.97029
1.48191 -0.381103 18.4827
2.02192 0.374094 16.1225
1.26726 -0.250822 20.7946
2.15571 0.631961 8.88908
1.6226 -0.623915 19.7986
1.58025 -0.0446589 16.7129
-1.12865 0.567929 19.8531
-1.37759 1.76742 18.8939
-0.765419 0.867019 19.8969
-0.764962 0.511018 19.4119
-1.92217 1.49363 20.0765
-1.47367 0.538204 20.8612
-2.20655 2.18787 20.4158
-1.07117 1.05797 20.6977
-2.06227 0.757726 21.4541
-0.843441 0.0874269 21.6724
-2.18027 1.05738 22.6567
-0.743226 0.566936 21.662
-0.449665 -0.0841642 22.1002
0.130305 -0.294656 21.684
0.264468 -0.629691 20.7488
-0.00212526 -0.222716 21.608
0.415337 -0.726888 21.6261
0.517813 -0.5396 21.3276
0.456103 -1.02543 20.4717
0.236358 -0.492292 21.2722
0.570407 -0.882343 21.412
0.671108 -0.519702 20.7886
0.538273 -1.13415 19.4423
0.199168 -0.463163 21.1612
0.450786 -0.651795 20.3535
1.65923 -1.9708 18.5336
-0.00395389 -2.72002 18.6236
-0.0465715 -3.64109 15.6274
-0.0140243 -0.903956 18.6739
0.003562 -4.99132 22.4506
0.450069 -0.715055 18.9618
0.0042384 -1.3427 22.3495
-0.00213708 0.00324536 13.3607
0.102103 0.0998556 15.691
-0.00174449 -0.270763 20.3035
0.000248952 0.0316697 12.5508
0.0685184 0.466572 13.803
-0.00257057 0.246471 18.5988
-0.0126813 0.38041 7.90383
0.218519 1.33015 12.9435
-0.0058619 0.298461 16.2251
-0.0158241 -1.44713 -2.60857
-0.0321972 0.802258 7.33812
-0.473072 1.47848 15.0289
0.00983924 1.33598 15.3758
-0.0189596 -1.02672 -0.603337
0.0342551 1.18122 11.5951
3.05586 -0.630027 16.526
-0.0468707 3.08046 13.5921
-0.0257597 -0.333999 17.8476
-0.226669 0.992539 2.77536
0.00551933 0.115848 -0.615743
0.0291539 -1.15906 -4.10922
-2.15905 0.590581 8.64171
0.0259966 -1.64148 0.499354
0.038116 -0.462566 3.44488
1.39295 1.72463 18.9223
0.031398 1.57212 19.4679
0.00273559 1.03849 18.642
0.046659 3.88114 19.6309
2.21324 2.12235 20.4356
0.0399283 2.16981 20.3801
0.0265225 5.26115 20.5423
2.18248 1.06461 22.6662
-0.00285512 1.57734 22.1322
-0.0103713 0.357223 20.6451
-0.279335 -0.654884 20.5723
-0.00304515 -0.228822 21.8851
0.003026 -0.682873 15.0507
-0.454018 -1.01408 20.0354
0.012604 -0.660098 21.4261
0.00499823 -1.08903 16.7388
-0.553874 -1.15205 19.2793
0.00973976 -0.540108 20.7056
0.0252426 -1.12458 18.533
1.15203 -0.56029 19.8782
1.2644 -1.10356 19.6153
1.92209 -0.989785 19.0397
0.756497 -0.500844 19.4525
2.49434 -2.08711 20.4263
1.06532 -0.747579 21.3423
0.808647 -1.0819 21.6587
1.35979 -1.50016 22.1697
0.130159 -0.580894 21.4772
0.174563 -0.325399 21.5293
0.0406701 -0.22627 21.5697
-0.0215789 -0.294425 19.2106
-0.161224 0.0339385 20.8715
-0.375946 0.10048 21.6428
-0.316143 0.381408 21.5152
-0.436583 0.587978 18.1261
-0.898268 1.11262 19.5571
-0.935686 0.416695 21.221
-0.735006 0.970103 20.8203
-1.32366 1.17049 17.4698
-1.04438 1.15959 19.2849
-1.18141 0.296845 20.212
-0.805319 0.985095 21.3072
-1.54352 0.938236 19.454
-0.986586 0.729485 19.3837
1.56502 -0.180153 19.636
2.39675 0.542263 18.7225
0.990156 -0.154945 19.1342
4.91776 -0.486816 19.913
1.64246 -0.458461 21.3843
2.88552 -0.190733 21.6445
0.749676 -1.23503 20.0464
0.463455 -0.443336 21.7166
1.12669 -0.756339 20.7774
-0.123025 0.067671 18.0754
-0.462989 -0.146102 21.7701
-0.821635 0.160805 18.4579
-1.45764 0.625732 14.4231
-1.22331 -0.157764 21.251
-1.48971 -0.376393 18.4102
-2.04831 0.387931 15.9088
-1.28739 -0.255426 20.7607
-1.63846 -0.641662 19.6648
-1.59369 -0.0319998 16.5031
1.11451 0.551766 19.8721
0.768353 0.82124 19.9253
0.765576 0.507283 19.4144
1.89328 1.42998 20.0927
1.45084 0.521277 20.8618
1.06609 1.01245 20.7061
2.03213 0.725589 21.4523
0.843171 0.0873467 21.6755
0.746307 0.572247 21.6646
0.454332 -0.0867732 22.1178
-0.132538 -0.303026 21.6965
0.00781436 -0.226721 21.6185
-0.407342 -0.74929 21.6366
-0.524347 -0.567239 21.2939
-0.228228 -0.516787 21.304
-0.559005 -0.901479 21.4609
-0.706422 -0.517651 20.793
-0.190882 -0.479763 21.1645
-0.450744 -0.678726 20.2589
-1.52627 -1.11996 19.4185
-0.97136 -1.2986 21.9763
0.036772 -0.265926 21.0342
0.424173 0.47105 20.4829
1.01256 1.12518 19.6478
1.13889 0.884754 20.3313
-2.36587 -0.284359 18.7394
-2.11775 -1.05506 21.8198
-0.213379 -0.612282 18.5851
0.604019 0.684073 16.5796
1.59622 0.430804 15.5069
1.82028 0.222012 16.7816
-1.37144 1.04088 19.459
-2.01148 1.11437 20.7862
-1.35919 0.309641 22.0645
0.149062 -0.458302 21.9169
0.541184 -0.817234 21.3797
0.650697 -0.836 21.061
-0.0219503 -3.38516 17.5427
0.000304827 -0.660274 15.8055
-0.000706421 -0.0964657 12.4398
-0.00113105 0.191069 10.5173
-0.0373233 -0.401167 6.76093
-0.0139238 0.671861 7.04842
-0.0432857 -0.977969 13.2329
0.00066681 -0.800611 -3.21485
0.0833448 -1.34674 0.163498
0.0179244 2.7357 18.2532
0.0389346 3.48485 19.8079
-0.00459777 2.99713 22.5895
0.000655983 -0.491294 17.1624
0.00179081 -0.835234 16.1767
0.00845945 -1.2731 17.3325
1.54579 -1.14218 19.3977
0.981382 -1.3006 21.9603
-0.0309109 -0.266352 21.0334
-0.415006 0.474826 20.4434
-0.995348 1.1477 19.5282
-1.13452 0.910262 20.3118
2.40308 -0.289315 18.6911
2.12024 -1.06168 21.7961
0.212485 -0.616906 18.6536
-0.609152 0.662431 16.7149
-1.59633 0.438383 15.4138
-1.83622 0.23376 16.5356
1.36246 1.01685 19.477
1.98516 1.07244 20.7943
1.35934 0.310076 22.0682
-0.143814 -0.470631 21.9447
-0.539979 -0.836219 21.3883
-0.614234 -0.858163 21.179
-0.340594 -0.111407 0.394985
0 0 0
-0.0369585 -0.119694 1.07861
0.00906273 0.0162743 0.0336652
-0.0262081 0.0071227 0.0280846
-0.0686 0.151021 0.919682
-0.132986 0.048194 0.175253
-0.0213236 0.138326 0.338796
-0.0868601 0.0284629 0.3015
0.00503716 0.00560689 0.0301695
0.00251235 0.00567604 -0.0217566
0.00401894 -0.00563944 0.0482222
-9.57717e-18 4.04479e-17 -2.15884e-16
0.352126 -0.11546 0.410016
0.0351184 -0.0997118 0.957483
0.0246943 0.00673141 0.0267103
-0.00933102 0.0161252 0.0338815
0.0724813 0.165256 0.985289
0.0215483 0.138593 0.339875
0.0830706 0.0299356 0.109358
0.0875807 0.0285375 0.302494
-0.00247287 0.0056879 -0.0218687
-0.00536026 0.00561622 0.0303905
-0.00400545 -0.00555479 0.0475201
-0.00644982 0.0116687 0.361118
-0.00298609 -0.000536924 0.0815987
0.00095891 0.00569601 0.118789
0 0 0
-0.0165796 0.0128119 0.299651
0 0 0
-0.000622877 0.00703405 0.0758559
0 0 0
-0.430755 -0.225903 0.675783
-0.000217321 0.00101452 0.0184206
0 0 0
-0.0117311 0.0150057 0.0313936
0 0 0
0.0042062 0.0224991 0.0747599
0 0 0
0.0582733 -0.00789935 0.228582
0.00527581 0.0101967 0.371926
0 0 0
0.00365509 -0.000699193 0.0921841
-0.000878073 0.00580902 0.119451
0.0180248 0.0136437 0.319788
0 0 0
0 0 0
0.000609125 0.00704313 0.0750499
0.476244 -0.2472 0.737472
0.0113573 0.0145825 0.0304758
0.000181454 0.000920666 0.0155026
0 0 0
0 0 0
-0.0581815 -0.00779764 0.227311
-0.004221 0.0225202 0.0745054
0 0 0
-0.254826 -0.0866418 0.726967
-0.1565 0.0246159 0.0683758
1.75676e-05 -0.0209339 0.265737
1.36115e-19 5.46552e-17 -3.11505e-17
-0.000192632 -0.000393416 0.0162891
0 0 0
0 0 0
0 0 0
1.10283e-06 0.000227271 0.00390563
2.43476e-05 -0.00609597 -0.00836347
0 0 0
0 0 0
-0.00458384 2.73435 1.16682
-4.60131e-06 0.00166201 0.00921214
-0.0164069 -0.0344587 0.171076
-0.00234239 0.000758866 0.00609833
0 0 0
-8.84028e-06 0.00393542 -0.0102481
0.000571837 0.000565574 0.00570282
-0.000231845 -0.000189874 0.000668742
0.153946 0.0246253 0.0670121
0.254765 -0.0868142 0.727973
0 0 0
0.000208876 -0.000429831 0.0174637
0 0 0
0 0 0
0 0 0
0 0 0
0.00225267 0.000740538 0.00594235
0.0169038 -0.0354703 0.175908
0.000233247 -0.000196233 0.000686781
-0.00054072 0.000535014 0.00537263
0.0022056 0.0553543 0.416358
0 0 0
0 0 0
-0.000185036 0.00397589 0.025451
-5.13354e-05 0.00168377 0.0789508
0 0 0
-7.96347e-05 0.000941248 0.00400958
-0.000164112 0.00832809 0.0515769
1.91508e-05 -2.08532e-05 0.0595202
-1.99564e-07 3.12538e-06 0.000406332
0 0 0
-0.0259974 0.0352621 0.396997
3.23136e-20 2.61635e-18 5.55805e-18
-1.81459e-05 0.0782153 0.274572
-4.85687e-05 0.000182637 0.0168263
-3.53067e-05 -0.0111637 0.0503437
0 0 0
-0.00263797 0.058502 0.42277
0 0 0
0.000210519 0.00420907 0.0262412
8.86779e-05 0.00104627 0.00440686
0.000159475 0.00828211 0.0511815
0.0272873 0.0363396 0.410786
0 0 0
-0.156312 -0.061072 0.609827
-0.0444596 -0.00736535 0.127036
0 0 0
-0.00112662 -0.00547637 0.0202485
0.00162234 0.0274259 0.285489
-1.36375e-05 0.00266895 0.0144161
0.00286258 0.0705529 0.481095
0.00295321 0.0252671 0.0803043
-3.40655e-06 0.000182474 0.00177144
0.00206269 0.00744806 0.0287154
0.00299763 0.00202737 0.0136882
0.00640585 0.00114154 0.0464541
-0.00346625 -0.00886455 0.101262
0.00339603 -0.00846137 0.0970314
-5.48853e-05 0.00137678 0.0455039