# vtk DataFile Version 2.0
tri_press
ASCII
DATASET UNSTRUCTURED_GRID
POINTS 3682 float
-0.706512 0.225 -2.105
-0.675 0.295 2.19106
-0.675 0.755 -2.03152
-0.635 1.00948 2.135
0.706501 0.225 -2.105
0.675 0.295 2.19092
0.675 0.755 -2.03152
0.635 1.00953 2.135
-0.745011 0.19933 -0.67298
-0.751855 0.205316 0.75904
-0.776579 0.954739 -0.64268
-0.754443 1.03076 0.74616
0.744657 0.199677 -0.673027
0.751828 0.205339 0.758947
0.777579 0.955756 -0.64268
0.754481 1.03083 0.74616
-1.4562 -0.19266 -3.24553
-1.45506 -0.136757 -2.11721
-1.48022 -0.152171 -0.68408
-1.47211 -0.162188 0.757745
-1.41616 -0.106199 2.19161
-1.40235 -0.0629164 3.32351
-1.40944 -0.0268918 4.44877
-1.45158 0.13397 -3.2243
-1.45164 0.214405 -2.1007
-1.49065 0.222469 -0.675968
-1.4716 0.219716 0.75266
-1.38568 0.270423 2.17822
-1.38264 0.312213 3.30952
-1.39998 0.348136 4.43619
-1.43919 0.746076 -3.16974
-1.43722 0.824139 -2.04436
-1.50751 0.964119 -0.64906
-1.47437 1.01793 0.743187
-1.36527 1.01792 2.13932
-1.37267 1.05653 3.27242
-1.39833 1.09802 4.40606
-1.43963 1.79865 -3.12034
-1.44446 1.89388 -2.00142
-1.47233 2.04595 -0.620117
-1.48033 2.15229 0.751887
-1.457 2.19232 2.13365
-1.44147 2.21503 3.25353
-1.43845 2.245 4.38246
-0.729071 -0.18796 -3.24832
-0.714973 -0.128475 -2.12129
-0.736782 -0.163325 -0.683552
-0.746837 -0.172781 0.763175
-0.711965 -0.0955087 2.20112
-0.701776 -0.056009 3.32995
-0.70655 -0.024478 4.45249
-0.728704 0.130831 -3.22517
-0.687851 0.319737 3.31483
-0.700677 0.3503 4.43899
-0.716747 0.716656 -3.16441
-0.679336 1.05494 3.27155
-0.700989 1.09722 4.40586
-0.706126 1.77884 -3.11507
-0.703712 1.8754 -1.99561
-0.730557 2.04184 -0.616621
-0.752745 2.15702 0.751456
-0.746505 2.19402 2.13063
-0.735376 2.21441 3.25051
-0.731638 2.24407 4.38026
0.709346 -0.187784 -3.24833
0.726661 -0.128329 -2.1213
0.747181 -0.163042 -0.683596
0.736095 -0.172694 0.763093
0.685305 -0.0954755 2.20101
0.68538 -0.0559526 3.32987
0.691576 -0.0243915 4.45243
0.695288 0.130966 -3.22517
0.676498 0.319782 3.31475
0.68659 0.35038 4.43893
0.690976 0.716813 -3.16441
0.662075 1.055 3.27151
0.678871 1.09731 4.40582
0.747429 1.77918 -3.11508
0.761249 1.8758 -1.99562
0.755591 2.04228 -0.616632
0.716171 2.1573 0.751441
0.678613 2.19418 2.13061
0.67371 2.21455 3.25048
0.678764 2.24421 4.38023
1.43752 -0.192215 -3.24555
1.45643 -0.136279 -2.11725
1.48612 -0.15159 -0.684154
1.47254 -0.161927 0.757615
1.41052 -0.106073 2.19144
1.39549 -0.0627692 3.32336
1.39954 -0.0267 4.44865
1.42437 0.134386 -3.22432
1.44457 0.214887 -2.10072
1.49044 0.223186 -0.676031
1.47921 0.219941 0.75254
1.39625 0.270514 2.17806
1.38209 0.31234 3.30938
1.39133 0.348317 4.43607
1.42035 0.746548 -3.16975
1.43509 0.824754 -2.04437
1.50933 0.965266 -0.649083
1.47967 1.01827 0.743142
1.37191 1.01806 2.13926
1.36544 1.05669 3.27233
1.38169 1.09822 4.40597
1.47465 1.79933 -3.12036
1.49012 1.89467 -2.00144
1.49281 2.04677 -0.620145
1.45395 2.15285 0.751851
1.40461 2.19267 2.1336
1.38974 2.21533 3.25347
1.39118 2.24529 4.38239
-0.73589 0.49 -2.11339
-5.48363e-06 0.215767 -2.11423
-0.756331 0.181596 -1.38899
-0.705731 0.65224 2.21376
0 0.273258 2.21273
-0.753799 0.209786 1.47505
0 0.834502 -2.11102
-0.756713 0.885793 -1.3371
0 1.05454 2.18003
-0.72006 1.04546 1.44058
0.735914 0.49 -2.11342
0.755152 0.182765 -1.38901
0.705774 0.652265 2.21373
0.754273 0.20931 1.47493
0.75672 0.885809 -1.3371
0.720147 1.04559 1.44058
-0.741 0.209756 0.04303
-0.863714 0.577035 -0.65783
-0.000176719 0.199627 -0.673003
-0.876598 0.61804 0.7526
-1.32813e-05 0.189593 0.758994
-0.76829 0.99553 0.0517401
0.000499925 1.24151 -0.64268
1.87395e-05 1.44224 0.74616
0.74136 0.209391 0.04296
0.865836 0.577716 -0.657853
0.876605 0.618086 0.752554
0.769523 0.996788 0.0517401
-0.894312 0.533517 -1.36305
0.894308 0.533858 -1.36306
-9.11011e-05 0.181288 -1.389
0.000249962 0.976566 -1.3371
-2.74181e-06 0.49 -2.38627
-0.869907 0.597537 0.047385
0.871876 0.597901 0.04735
-9.49999e-05 0.202926 0.042995
0.000259332 1.44862 0.0517401
-0.886268 0.63514 1.45782
0.886268 0.635176 1.45776
-6.64064e-06 0.208909 1.47499
9.36977e-06 1.26319 1.44058
0 0.652252 2.3423
-0.715894 0.3575 -2.10389
-0.353259 0.217064 -2.11294
-0.753827 0.180893 -1.747
-0.708359 0.47362 2.2204
-0.3375 0.277043 2.20898
-0.746889 0.219904 1.83306
-0.711493 0.6225 -2.07851
-0.3375 0.818803 -2.09532
-0.732026 0.836566 -1.68431
-0.686794 0.83086 2.19081
-0.3175 1.04609 2.1716
-0.678305 1.02824 1.78779
0.353248 0.217057 -2.11294
0.715938 0.3575 -2.10394
0.752276 0.182433 -1.74701
0.3375 0.277038 2.20892
0.708337 0.473632 2.22028
0.747708 0.219084 1.83293
0.3375 0.818833 -2.09535
0.711163 0.6225 -2.07818
0.732019 0.836563 -1.68431
0.3175 1.0461 2.17159
0.686761 0.830897 2.19074
0.678318 1.0283 1.78779
-0.75801 0.183124 -1.03099
-0.741827 0.205721 -0.314975
-0.866337 0.357195 -0.665405
-0.372794 0.199077 -0.672992
-0.755285 0.205093 1.11705
-0.748855 0.205108 0.401035
-0.876278 0.380652 0.75582
-0.378617 0.192088 0.759017
-0.773917 0.927537 -0.98989
-0.860525 0.786076 -0.650255
-0.775466 0.978166 -0.29547
-0.444013 1.21007 -0.64268
-0.743751 1.04461 1.09337
-0.866826 0.850054 0.74938
-0.763843 1.01562 0.39895
-0.469634 1.42134 0.74616
0.758015 0.183111 -1.03102
0.372524 0.199085 -0.673015
0.742167 0.205375 -0.315033
0.868278 0.357181 -0.66544
0.755927 0.204449 1.11694
0.378577 0.192126 0.75897
0.748821 0.205138 0.400953
0.876285 0.380678 0.75575
0.773924 0.927556 -0.98989
0.444745 1.21004 -0.64268
0.862326 0.787045 -0.650267
0.776052 0.978772 -0.29547
0.74397 1.04487 1.09337
0.46966 1.42136 0.74616
0.866822 0.8501 0.749357
0.763863 1.01567 0.39895
-0.886328 0.511759 -1.73822
-0.367946 0.49 -2.34006
-4.82924e-05 0.180748 -1.75162
-4.11272e-06 0.352883 -2.33334
-0.896824 0.357557 -1.37602
-0.378211 0.179575 -1.389
-0.821377 0.64369 1.83579
-0.352866 0.652246 2.33208
-3.32032e-06 0.21971 1.84386
0 0.462755 2.38271
-0.879233 0.422463 1.46643
-0.376903 0.209119 1.47502
0.000124981 0.920001 -1.72406
-1.37091e-06 0.662251 -2.33373
-0.895408 0.709655 -1.35007
-0.378232 0.957168 -1.3371
4.68489e-06 1.11837 1.81031
0 0.853394 2.27675
-0.844843 0.8403 1.4492
-0.360025 1.24601 1.44058
0.886323 0.511929 -1.73824
0.367956 0.49 -2.34009
0.896811 0.358312 -1.37604
0.37753 0.179583 -1.38901
0.821353 0.64372 1.83575
0.352887 0.652259 2.33162
0.879115 0.422243 1.46635
0.377133 0.209133 1.47496
0.895406 0.709833 -1.35008
0.378485 0.957177 -1.3371
0.844807 0.840382 1.44917
0.360078 1.24601 1.44058
-0.872562 0.370092 0.0452075
-0.37095 0.205535 0.0430125
-0.872081 0.555276 -1.01044
-0.865187 0.587286 -0.305223
-0.00013391 0.181857 -1.031
-0.000135859 0.206761 -0.315004
-0.874599 0.607788 0.399993
-0.88641 0.62659 1.10521
-5.41406e-05 0.186602 0.400994
-9.96096e-06 0.202593 1.11699
-0.85704 0.815505 0.0495625
-0.485855 1.42575 0.0517401
0.000374944 1.04415 -0.98989
0.000379629 1.38943 -0.29547
0.000139036 1.45878 0.39895
1.40547e-05 1.39496 1.09337
0.874657 0.369627 0.045155
0.370937 0.205549 0.0429775
0.871915 0.555787 -1.01046
0.867273 0.587809 -0.305252
0.874616 0.607994 0.399952
0.886409 0.626631 1.10516
0.859309 0.816649 0.049545
0.4864 1.42572 0.0517401
-0.887411 0.357528 -1.74261
-0.87791 0.37287 -1.02071
-0.859937 0.737771 -1.00016
-0.866838 0.666078 -1.71126
0.887396 0.357906 -1.74262
0.866792 0.666167 -1.71127
0.859921 0.738285 -1.00017
0.877905 0.373504 -1.02074
-0.365735 0.179162 -1.74931
0.365389 0.179162 -1.74931
0.374885 0.18165 -1.03101
-0.375402 0.181646 -1.03099
-0.357866 0.905618 -1.70419
-0.383136 1.02216 -0.98989
0.383762 1.02439 -0.98989
0.357993 0.905629 -1.70419
-0.360602 0.355192 -2.32165
-0.352723 0.642376 -2.30664
0.352728 0.642376 -2.3082
0.360602 0.355192 -2.32164
-0.870114 0.363312 -0.310099
-0.876075 0.374545 0.400514
-0.868031 0.835828 0.399471
-0.863034 0.802916 -0.300346
0.872093 0.363091 -0.310143
0.865069 0.803973 -0.300361
0.868029 0.835856 0.399451
0.876105 0.374836 0.400453
-0.37052 0.205011 -0.31499
0.370375 0.205028 -0.315019
0.377093 0.194167 0.400974
-0.377119 0.194141 0.401015
-0.486976 1.362 -0.29547
-0.484181 1.43642 0.39895
0.484467 1.43641 0.39895
0.487603 1.36194 -0.29547
-0.881521 0.41707 1.11113
-0.843866 0.448041 1.83442
-0.806729 0.83558 1.81179
-0.863226 0.832351 1.09929
0.881328 0.416978 1.11105
0.863248 0.832421 1.09926
0.806712 0.83564 1.81177
0.843837 0.447938 1.83434
-0.376418 0.202934 1.11702
0.37652 0.202944 1.11697
0.357317 0.219739 1.83839
-0.357201 0.219734 1.83846
-0.368619 1.36542 1.09337
-0.338763 1.10898 1.79905
0.338789 1.10901 1.79905
0.368664 1.36544 1.09337
-0.345183 0.468188 2.36287
0.345194 0.468194 2.36286
0.335194 0.842146 2.29956
-0.335183 0.842127 2.29956
-0.721017 0.29125 -2.11426
-0.529885 0.211148 -2.11885
-0.732203 0.200913 -1.926
-0.695466 0.38431 2.20952
-0.50625 0.281974 2.20407
-0.7201 0.248296 2.01206
-0.694617 0.68875 -2.05638
-0.50625 0.800103 -2.07662
-0.713467 0.805737 -1.85791
-0.670534 0.92017 2.17254
-0.47625 1.03446 2.15998
-0.654898 1.01711 1.9614
0.529874 0.211248 -2.11875
0.720508 0.29125 -2.11376
0.731693 0.201412 -1.926
0.50625 0.281955 2.20398
0.695479 0.384316 2.20941
0.720159 0.248237 2.01192
0.50625 0.800106 -2.07663
0.694643 0.68875 -2.05641
0.713465 0.805737 -1.85791
0.47625 1.0345 2.15997
0.670418 0.920214 2.17241
0.654895 1.01715 1.9614
-0.744691 0.198047 -0.851983
-0.737088 0.208857 -0.493978
-0.852167 0.255016 -0.669193
-0.561064 0.194881 -0.672986
-0.754363 0.204411 0.938043
-0.750505 0.205062 0.580038
-0.857077 0.271478 0.75743
-0.5726 0.183973 0.759029
-0.776558 0.942448 -0.816285
-0.846121 0.884192 -0.646468
-0.77627 0.9667 -0.469075
-0.66046 1.18273 -0.64268
-0.749881 1.03847 0.919765
-0.827563 0.948873 0.74777
-0.760262 1.02431 0.572555
-0.639065 1.28011 0.74616
0.743978 0.198752 -0.852023
0.560841 0.194879 -0.673021
0.737078 0.20886 -0.49403
0.852298 0.255513 -0.669233
0.754852 0.203919 0.937944
0.572582 0.183974 0.758959
0.750472 0.205091 0.57995
0.857045 0.271514 0.757349
0.777381 0.943285 -0.816285
0.660886 1.18235 -0.64268
0.84748 0.885164 -0.646473
0.777227 0.967676 -0.469075
[...]
POINT_DATA 3682
SCALARS point_scalars float 1
LOOKUP_TABLE default
-71.858
-39.1366
-30.3832
-38.6816
-71.8184
-39.1311
-30.3473
-38.7113
-37.4666
-37.339
-65.1097
-52.6995
-37.5224
-37.2768
-65.4523
-52.6321
-14.9745
-55.2052
-37.7087
-37.2609
-46.3737
-34.1186
-32.7583
-14.9745
-68.9676
-36.9609
-38.0435
-44.0635
-33.6403
-32.7313
62.9519
-60.8319
-52.3279
-47.4734
-42.8361
-36.5024
-33.4943
-4.19992
-51.0498
-86.7282
-62.3619
-41.2442
-38.6966
-35.084
64.3076
-118.001
-37.3951
-37.8113
-41.1184
-32.0654
-31.8017
64.3076
-32.5102
-31.8035
155.701
-33.7761
-31.6493
11.5216
-38.7776
-85.6658
-68.9974
-39.2336
-35.2446
-34.6523
64.8311
-114.821
-37.5789
-37.7843
-40.5557
-32.0631
-31.5734
64.8311
-32.5121
-31.6366
155.659
-33.7494
-31.2998
5.44523
-39.2815
-85.4468
-68.9698
-38.6879
-35.0735
-34.7978
-14.7182
-55.9619
-37.7497
-37.1993
-46.2885
-34.1165
-32.7634
3.87103
-68.8245
-37.1779
-38.0032
-44.048
-33.6407
-32.7377
62.4623
-61.035
-52.4944
-47.3655
-42.884
-36.5
-33.4583
-4.17178
-51.1081
-85.9481
-62.4409
-40.8326
-38.8508
-34.9428
-6.97145
-95.2966
-56.9101
-36.656
-30.4113
-40.5779
-45.4379
-36.8748
-36.0676
-49.3223
-6.66655
-56.7349
-36.6152
-40.6421
-36.714
-49.2934
-32.793
-41.1944
-38.4104
-41.3708
-38.9182
-56.7826
0.382829
-70.7796
-32.9297
-41.4455
-41.2925
-57.4921
-63.0224
-62.8136
-58.2642
-1.98222
205.592
-40.6764
-41.15
-31.7692
-94.8033
-48.1718
-48.1117
-38.2063
-45.4076
-29.5837
-1.1725
-95.8786
-76.5026
-36.7133
-33.7369
-46.3941
-3.05462
-42.6715
-42.6438
-37.398
-35.7601
-43.2462
-95.9988
-0.728599
-76.2386
-33.7313
-36.7055
-46.4937
-42.4774
-2.85733
-42.5434
-35.7634
-37.393
-43.2417
-48.7101
-33.1348
-37.5947
-38.1253
-38.6576
-35.9607
-38.4575
-38.744
-40.8239
-49.1244
-60.7659
-3.85908
-52.1623
-46.9728
-55.5647
-67.1066
-48.7549
-38.136
-33.2243
-37.7746
-38.7882
-38.7195
-35.9581
-38.4052
-39.8457
-3.79353
-49.3691
-60.9709
-52.0913
-67.0692
-46.8852
-55.5175
-86.0068
176.812
-72.1741
169.128
-62.3831
-57.8664
-45.4808
-32.6207
-38.7255
-22.3103
-45.4449
-38.7679
-25.1469
163.439
-62.5861
-6.99463
-39.5583
-30.9103
-49.7376
-46.1047
-85.7692
177.029
-62.1859
-57.7835
-45.4426
-32.6142
-45.3704
-38.7683
-62.346
-6.95975
-49.7009
-46.0962
-37.334
-31.5177
-48.5757
-40.8237
-49.1637
-33.8597
-41.189
-44.3489
-36.87
-37.7597
-46.6224
-86.0278
21.8954
-84.8632
-82.4529
-56.3629
-37.7285
-31.5405
-48.2511
-41.1448
-41.1195
-44.2828
-47.1818
-86.1866
-86.144
-49.486
-48.7039
-62.0326
-85.9502
-61.8957
-48.1576
-49.2603
-72.6551
-72.672
-49.0188
-49.023
-27.7662
14.9872
15.8288
-27.7126
135.925
123.569
123.477
135.712
-37.0516
-38.4306
-47.3041
-48.4232
-37.2873
-48.7837
-47.2101
-38.3897
-33.3562
-33.3822
-36.5851
-36.5797
-83.489
-74.7692
-74.7617
-83.768
-42.2622
-48.0254
-45.2016
-47.398
-42.2132
-47.3323
-45.1671
-48.0271
-37.9059
-37.9043
-40.3312
-40.3007
-56.7521
-40.1908
-40.1863
-56.7344
-30.2684
-30.283
-33.3666
-33.3607
-15.519
-110.145
-86.6539
-37.1529
-36.5173
-43.6431
-3.34014
-39.0216
-52.7653
-38.0254
-36.1651
-40.2732
-110.157
-15.201
-86.7218
-36.5519
-37.1441
-43.6341
-39.1797
-3.23154
-52.6783
-36.1589
-38.015
-40.2946
-38.2584
-34.758
-36.5373
-37.6399
-39.8721
-36.7863
-37.7996
-38.5978
-61.3032
-56.5699
-62.5888
-68.3928
-52.0429
-51.3549
-54.0104
-59.6175
-38.2385
-37.6607
-34.821
-36.6634
-39.8078
-38.5609
-36.7555
-37.7529
-60.8792
-67.2564
-56.8545
-62.9791
-51.977
-59.5295
-51.2729
-53.9372
-8.07658
-3.79112
-60.9482
115.142
-94.8459
-94.8666
-82.7201
35.0875
-66.952
-51.1505
-60.5771
-57.248
-36.6945
-36.7447
-42.0525
-33.4159
-31.4291
-31.4338
-35.8756
-25.8887
-44.3934
-39.6294
-44.0773
-39.4414
-43.5583
-43.4863
-37.2279
61.8764
-40.4106
-35.5444
-59.9054
-16.3026
-36.0126
-36.013
-38.1489
-33.4287
-47.1979
-50.7379
-48.8837
-48.2485
-7.22671
-3.69817
-60.9585
115.018
-66.6928
-50.9839
-60.4131
-57.1333
-36.6852
-36.7847
-42.0365
-33.4202
-44.2905
-39.4254
-44.0643
-39.4392
-40.3005
-35.2603
-59.6477
-16.187
-47.1729
-50.6929
-48.8559
-48.2364
-33.3509
-33.5685
-34.96
-31.5608
-39.0344
-44.3711
-42.2393
-41.0594
-38.3326
-38.3368
-42.2908
-36.0008
-39.3787
-44.146
-41.283
-41.3896
-38.9844
-38.9823
-37.7266
-38.6693
-58.4541
-56.9823
-52.4011
-69.1098
1.67906
1.42537
24.1443
-41.9789
-70.338
-70.3585
-76.7592
-63.0394
-33.486
-33.6223
-35.2225
-31.6174
-39.2545
-44.6253
-42.2286
-41.3254
-39.3101
-44.0578
-41.1981
-41.3253
-58.791
-57.0607
-52.8272
-69.468
-78.542
-63.1524
-62.645
-55.1012
-78.3361
-62.9515
-62.4266
-54.8595
-65.4308
-58.1593
-58.1291
-52.8752
-13.8399
-2.9099
-2.96033
9.78525
197.771
185.692
187.354
197.814
-38.7016
-40.8051
-40.739
-43.4188
-39.1472
-41.1624
-41.019
-43.9155
-31.6677
-32.2609
-33.9264
-31.6741
-93.1946
-93.7354
-90.3854
-93.2415
-52.8379
-46.9665
-50.7181
-45.7339
-52.8091
-46.9179
-50.6662
-45.6721
-39.4609
-38.3452
-38.3455
-38.735
-41.8992
-45.49
-45.4868
-49.9057
-30.6335
-24.0691
-31.0808
-30.6372
-62.7684
105.724
-84.2354
56.2571
-80.9711
-73.2263
-42.9944
-32.6365
-38.2249
-29.9758
-48.8183
-42.3098
-62.2407
70.6202
-40.175
23.4921
-56.517
-32.7633
-42.5397
-33.8095
-38.1215
-34.0967
-45.1797
-41.1142
-84.1326
56.6598
-62.6226
104.042
-80.806
-73.1964
-38.2294
-30.0131
-42.9607
-32.6411
-48.6519
-42.3611
-40.0852
22.5846
-62.29
70.5668
-56.467
-32.6387
-38.1226
-34.1002
-42.505
-33.8078
-45.1528
-41.112
-49.9235
-48.7552
-35.2955
-33.0167
-39.6473
-37.0728
-41.5718
-35.5856
-40.7442
-38.1301
-37.05
-36.3886
-38.6048
-39.0595
-37.6843
-38.9625
-52.6082
1.44386
-48.1937
-48.8023
-55.5529
-82.2028
18.9354
-50.9585
-49.9555
-56.7966
-47.0673
-47.0942
-52.3025
-63.9406
-70.7422
-62.6146
-49.7641
-48.7522
-41.5633
-35.6062
-35.4725
-33.0693
-39.561
-37.2835
-40.737
-38.1382
-37.6753
-38.9625
-37.0367
-36.3927
-38.5483
-39.0346
-51.8643
1.06433
19.0681
-50.8865
-48.406
-49.1202
-55.8456
-82.8946
-49.9084
-56.7586
-70.7096
-62.5918
-46.972
-47.022
-52.2269
-63.7878
-87.2189
-79.8217
161.362
168.444
-72.1745
-72.1883
169.622
169.544
-78.018
-54.7615
-65.3986
-52.505
-46.5282
-45.2359
-31.4159
-32.7413
-39.1504
-39.1412
-25.5313
-25.5496
-43.1412
-50.6267
-38.9745
-40.3156
-25.6293
-25.6095
149.636
150.484
-54.5878
-76.0278
-18.0045
2.58933
-39.7753
-39.7731
-31.4548
-31.4607
-48.0357
-48.6177
-50.7879
-42.6735
-87.0351
-79.618
168.693
161.516
-77.8221
-54.5654
-65.3976
-52.4739
-45.2001
-46.5018
-31.4249
-32.7452
-43.072
-50.5972
-38.9733
-40.3311
-75.8441
-54.2677
2.34869
-17.9565
-48.5656
-48.0014
-42.6695
-50.7776
-37.2282
-37.77
-32.4826
-33.775
-49.4976
-47.7922
-38.5587
-44.1761
-49.1608
-49.1651
-33.7145
-33.725
-39.6267
-43.7515
-43.6492
-45.378
-36.9985
-36.9947
-37.7922
-37.7896
-47.3701
-47.8631
-88.6196
-80.4922
19.9976
20.0738
-84.5618
-84.6484
-81.1113
-81.1226
-56.2262
-56.221
-37.5125
-38.0587
-32.5114
-33.7908
-47.3894
-49.2275
-38.8237
-44.5319
-43.6652
-39.5598
-43.5822
-45.313
-48.1604
-47.6206
-80.5553
-88.7403
-71.7782
-75.9948
-78.7727
-59.3303
-37.9224
-40.8123
-55.2922
-53.4912
-55.5375
-52.9813
-55.4604
-44.483
-61.1594
-62.7635
-78.4695
-60.6223
-71.9257
-59.4572
-78.5674
-75.8025
-61.1109
-60.2863
-78.2759
-62.7658
-56.1472
-44.5921
-55.1704
-52.6292
-37.8571
-53.3172
-55.0596
-40.7483
-84.9911
-82.8972
-65.4363
-65.252
-84.9642
-65.1303
-65.4125
-82.914
-40.4959
-42.0975
-52.7597
-51.7122
-40.504
-51.7871
-52.7762
-42.1028
-44.0732
-24.3075
-14.9071
-37.5863
-17.4873
22.6712
8.95914
-8.48031
-17.0364
-8.17063
8.80499
22.7519
-44.0941
-37.5411
-14.888
-24.2284
71.851
105.156
183.982
29.5141
46.503
77.2803
184.231
103.249
46.799
103.052
184.179
76.7463
72.3783
35.1743
184.063
105.151
-36.101
-35.3143
-38.6393
-38.6868
-37.6546
-39.4947
-39.1453
-36.2059
-51.6581
-52.9377
-43.5436
-43.9617
-55.5449
-44.3767
-43.9217
-53.2776
-36.2097
-38.9266
-38.9758
-35.54
-55.8715
-53.6643
-44.2842
-44.6638
-51.5901
-43.8653
-43.8313
-53.1284
-37.6216
-36.3982
-39.4166
-39.4174
-35.0807
-35.8714
-32.2735
-32.8727
-35.1189
-32.9402
-32.2838
-35.8794
-37.2287
-37.7841
-33.7171
-33.3075
-37.2463
-33.2776
-33.7103
-37.7856
-88.6865
-73.7179
-90.8736
-39.9511
-61.0284
-75.5268
-88.6894
-66.8851
-60.9103
-67.1771
-88.7178
-75.5237
-88.1272
-39.9804
-90.902
-74.1583
-39.9881
-41.7661
-44.5637
-39.0564
-43.6239
-42.3577
-52.4151
-49.6419
-42.4976
-47.1318
-49.4652
-42.3047
-50.7337
-44.1778
-47.1982
-49.4652
-39.965
-39.0075
-44.5022
-41.6871
-50.6722
-49.4238
-47.1393
-44.1009
-42.5276
-42.272
-49.4371
-47.1098
-43.5939
-49.7104
-52.3867
-42.3264
-39.2717
-38.6557
-38.8015
-39.1303
-39.271
-39.1144
-38.8007
-38.6527
-40.731
-36.5584
-39.6556
-41.3846
-40.7292
-41.3723
-39.6492
-36.5476
-57.2448
-52.872
-50.1294
-63.1325
-38.6467
-38.0658
-42.1059
-44.2939
-38.6489
-44.3943
-42.1038
-38.0661
-57.1865
-63.0696
-50.1252
-52.8282
-32.9947
-27.5667
-26.6132
-32.9562
-32.9646
-32.9601
-26.6883
-27.5396
-34.3852
-33.5532
-31.289
-33.5103
-34.3837
-33.5038
-31.2871
-33.5469
-35.5453
-124.544
-109.063
-38.3237
-37.9393
-42.0419
-10.8133
-38.4406
-54.0293
-38.6294
-36.8518
-38.9291
-124.575
-35.325
-109.622
-37.9528
-38.3129
-42.0242
-38.464
-10.7752
-54.0033
-36.9523
-38.603
-38.9112
-38.4226
-36.6377
-37.2847
-37.309
-38.2971
-37.0832
-36.8158
-38.0563
-66.5886
-60.915
-63.7616
-87.8436
-52.2473
-52.8236
-53.3313
-55.4938
-38.4255
-37.3422
-36.6719
-37.3761
-38.1771
-38.0161
-37.0408
-36.7328
-66.7135
-87.8577
-61.2629
-64.1701
-52.174
-55.4335
-52.7547
-53.2602
-7.57796
-4.2478
-54.179
63.874
-95.6355
-95.6299
-89.7431
-105.865
-61.1601
-53.614
-59.3211
-56.9105
-36.7096
-36.3628
-40.0012
-33.9665
-30.6599
-30.6624
-33.3796
-27.6964
-41.4749
-39.5654
-42.7798
-39.7804
-44.7306
-44.6944
-43.3165
-47.138
-38.5356
-35.9972
-51.7277
-24.4464
-36.0609
-36.0595
-37.0382
-35.7407
-48.4447
-50.0965
-49.0818
-49.7361
-6.59767
-4.40288
-54.5291
63.0827
-60.9558
-53.4447
-59.1553
-56.7712
-36.6991
-36.347
-39.976
-33.9711
-41.5051
-39.4019
-42.8105
-39.7989
-38.5127
-35.7956
-51.4997
-24.3159
-48.38
-50.0456
-49.0453
-49.7199
-33.5108
-31.8515
-33.2023
-32.2783
-39.9976
-42.6031
-41.3747
-41.0684
-38.3264
-38.3286
-39.9046
-37.2719
-40.2941
-42.5668
-41.2848
-41.4827
-38.9527
-38.9515
-38.2841
-39.7292
-57.5413
-56.693
-55.5065
-62.0937
1.21802
1.532
16.4894
-20.3451
-70.7226
-70.7293
-73.7573
-67.2264
-33.6933
-32.001
-33.4276
-32.3668
-40.236
-42.8591
-41.5934
-41.3263
-40.2203
-42.4826
-41.2011
-41.412
-58.0431
-57.1049
-56.2666
-62.4129
-69.3264
-63.0102
-62.93
-58.2924
-69.1176
-62.8017
-62.7133
-58.0666
-61.6083
-58.2026
-58.1885
-55.3894
-7.93087
-2.47
-2.47845
3.64947
204.906
203.819
187.228
204.948
-39.5399
-40.7681
-40.5588
-41.967
-39.9976
-41.1753
-41.1524
-42.451
-31.6756
-31.679
-31.4597
-31.6789
-94.4943
-96.1056
-93.1313
-94.5156
-51.2163
-47.5901
-49.1818
-46.7465
-51.1799
-47.5421
-49.1116
-46.6869
-38.6716
-38.2478
-38.2482
-38.4915
-43.4881
-45.372
-45.3701
-47.5064
-29.8376
-27.2123
-30
-29.8368
0.617597
-6.23833
-54.4508
62.3169
-98.619
-94.5141
-92.7289
-95.5416
-74.3556
-75.3684
-83.9768
-73.5538
-36.6951
-36.6945
-40.0224
-33.4181
-35.0113
-32.5361
-36.2702
-30.7353
-46.302
-45.115
-48.9311
-43.6337
-1.03426
-2.52451
-45.5347
38.3627
-38.7328
-42.6286
-43.6184
-21.5487
-47.0439
-41.276
-52.1978
-36.8808
-37.5752
-37.0238
-40.9317
-34.6279
-35.7512
-35.8359
-37.0574
-34.772
-41.637
-45.0669
-44.2179
-42.0728
-99.1268
-94.528
-92.7652
-95.5482
0.949738
-5.65454
-54.4772
61.7554
-74.2862
-74.9609
-84.1321
-73.4245
-35.0018
-32.5443
-36.2825
-30.767
-36.6871
-36.6862
-39.9958
-33.4218
-46.3898
-45.1104
-48.9834
-43.6646
-38.7263
-42.4113
-43.4767
-22.9971
-0.804654
-2.46746
-45.4326
38.1269
-46.8964
-41.1776
-52.1655
-36.6983
-35.7498
-35.817
-37.0585
-34.7706
-37.5746
-37.0195
-40.9096
-34.6271
-41.6438
-45.0555
-44.2069
-42.0733
-42.9227
-49.3532
-49.4612
-48.5362
-32.8511
-33.4372
-33.8611
-32.7883
-36.9661
-38.4025
-37.864
-37.275
-37.838
-38.2081
-39.503
-37.1854
-38.416
-38.8825
-40.1347
-38.2785
-36.3264
-35.5787
-36.5793
-36.1621
-38.0412
-39.0332
-38.3147
-38.6154
-38.5893
-38.9217
-38.1487
-39.8964
-58.2537
-36.3498
-48.7003
-18.3444
-52.531
-46.4651
-48.6608
-49.0459
-61.7716
-59.6248
-59.1171
-68.6288
-19.4284
1.12051
11.4762
-25.4274
-51.7911
-51.6138
-51.5502
-54.7238
-48.9655
-45.5905
-47.081
-46.8108
-54.564
-56.1928
-54.8409
-59.5767
-63.3925
-69.442
-69.3444
-65.5723
-43.0217
-49.1238
-49.3826
-48.5619
-37.8538
-38.2156
-39.5069
-37.2035
-32.9038
-33.5375
-34.0248
-32.8628
-37.1156
-38.6068
-37.9984
-37.4705
-38.4546
-39.041
-40.1829
-38.3181
-38.5357
-38.9136
-38.1303
-39.8956
-36.3081
-35.5861
-36.5722
-36.1636
-37.9986
-38.9717
-38.2599
-38.571
-57.5508
-35.9411
-47.9892
-17.8418
-19.2113
1.16905
11.7644
-25.4253
-52.7769
-46.7179
-48.888
-49.3144
-62.117
-59.9008
-59.44
-69.0682
-51.6953
-51.5859
-51.4874
-54.6525
-63.3145
-69.4281
-69.3152
-65.5382
-48.8795
-45.5008
-46.9888
-46.726
-54.5039
-56.1781
-54.8003
-59.494
-60.5428
-91.7244
-86.5182
-83.8429
148.525
193.428
171.867
177.047
-74.4674
-69.7605
-72.2275
-72.2347
171.426
170.315
168.483
168.341
-61.7594
-62.827
-68.6145
-57.7489
-57.6834
-58.0161
-61.2644
-54.9659
-43.6619
-48.8454
-45.8427
-45.3257
-33.1571
-31.5687
-32.2384
-32.6253
-37.8775
-39.4292
-38.8237
-38.819
-23.8036
-21.9402
-23.1891
-23.2022
-44.4599
-46.3236
-43.9224
-47.7585
-39.145
-38.5148
-38.8639
-39.3182
-31.7927
-19.5355
-25.166
-25.1545
91.0709
187.537
144.12
144.178
-62.6497
-62.7221
-58.9405
-70.23
-10.8803
-4.55565
-12.7641
-2.0295
-38.7965
-40.709
-39.5934
-39.5926
-31.5454
-31.3786
-31.1405
-31.1385
-48.7558
-51.511
-48.9233
-49.3425
-46.8748
-45.6597
-48.1893
-44.2657
-60.4709
-91.5434
-86.326
-83.5979
148.928
193.5
177.267
172.169
-61.5797
-62.6278
-68.4217
-57.5554
-57.6084
-57.9652
-61.1799
-54.924
-43.6175
-48.8116
-45.2886
-45.81
-33.1469
-31.578
-32.2461
-32.611
-44.3911
-46.2658
-43.8487
-47.7308
-39.1445
-38.5159
-38.8628
-39.3237
-62.4167
-62.4978
-70.0142
-58.6607
-10.7985
-4.55574
-2.06983
-12.7228
-48.7154
-51.4835
-49.3014
-48.8891
-46.868
-45.6532
-44.2529
-48.1848
-36.4332
-38.1605
-37.3143
-37.2978
-31.3855
-31.5531
-32.0587
-31.2053
-44.3805
-53.2527
-48.6668
-48.3287
-40.9153
-40.8033
-39.5484
-42.3612
-45.9798
-50.7406
-49.1373
-49.1396
-35.0201
-32.8071
-33.8127
-33.8176
-41.2869
-41.1294
-40.3768
-42.3039
-42.6772
-45.0715
-44.2299
-44.5471
-37.4548
-36.169
-36.8803
-36.8787
-37.5141
-38.1104
-37.7277
-37.726
-49.0005
-45.0009
-46.1762
-47.8201
-79.1325
-90.8293
-87.1878
-82.9527
25.2604
16.2394
21.7407
20.6261
-70.7849
-90.0689
-85.1154
-85.1511
-79.5338
-86.276
-82.1642
-82.167
-59.2442
-52.9613
-56.1155
-56.1185
-36.7484
-38.5914
-37.6405
-37.8721
-31.4209
-31.567
-32.0844
-31.2216
-44.1144
-52.9724
-47.9693
-48.3797
-41.2115
-41.1397
-39.8451
-42.7013
-41.2019
-41.0727
-42.2253
-40.31
-42.6102
-45.0086
-44.1624
-44.4826
-49.5786
-45.529
-48.2652
-46.8211
-79.4108
-90.9151
-83.067
-87.3464
-69.8535
-84.3407
-87.0556
-91.008
-48.8292
-43.4448
-54.0029
-49.7255
-51.3841
-48.2985
-51.0434
-47.7841
-56.7286
-57.093
-73.3014
-78.0847
-69.7077
-84.2695
-86.8135
-90.79
-56.7027
-56.9782
-73.1004
-77.926
-50.7348
-48.1168
-50.6552
-47.3148
-48.6283
-43.1693
-53.7831
-49.4773
-74.2206
-73.2406
-72.3125
-70.4852
-74.2132
-73.3149
-72.3175
-70.455
-49.2027
-45.2822
-50.546
-49.0925
-49.2069
-45.2925
-50.5653
-49.0967
-34.024
-30.1037
-26.5473
-22.7458
10.9262
19.795
7.91744
17.4296
10.752
19.5367
7.90014
17.7977
-33.9509
-30.0391
-26.5141
-22.6979
119.868
106.323
147.657
169.363
92.2258
97.5649
152.961
136.71
96.6425
91.6663
137.674
153.245
106.353
119.04
169.132
147.618
-36.1303
-37.0189
-36.9671
-37.9258
-37.576
-38.5715
-38.3414
-39.2819
-47.1159
-49.4564
-45.4442
-47.3954
-48.602
-50.8677
-46.2066
-48.1113
-36.3316
-37.2417
-37.2181
-38.1821
-48.9584
-51.208
-46.5772
-48.4471
-47.0127
-49.3728
-45.358
-47.32
-37.5515
-38.52
-38.318
-39.2237
-33.033
-33.9944
-32.9159
-33.6216
-34.0165
-33.0706
-33.6389
-32.9438
-36.9671
-36.4774
-36.7607
-36.4112
-36.4661
-36.9706
-36.3991
-36.7565
-88.1088
-72.3246
-86.1408
-84.0266
-69.5545
-72.4618
-77.8238
-78.3994
-72.4317
-69.439
-78.4067
-77.8539
-72.4589
-88.431
-84.1256
-86.2325
-41.5058
-41.5462
-42.6748
-42.9868
-45.1094
-48.3054
-47.5494
-51.0769
-44.0416
-45.3511
-45.1144
-46.6639
-48.4341
-47.1471
-48.0361
-46.5039
-41.477
-41.5221
-42.6061
-42.9205
-48.3727
-47.0738
-47.9764
-46.4404
-44.0087
-45.3216
-45.0781
-46.6326
-45.0811
-48.2971
-47.5381
-51.0278
-38.044
-37.6423
-38.2338
-37.8144
-38.0452
-37.6393
-38.2325
-37.8114
-39.8252
-41.292
-39.6421
-40.666
-39.8127
-41.2181
-39.6279
-40.6424
-57.1804
-59.6152
-53.6125
-56.4073
-39.1326
-40.4938
-39.9941
-41.346
-39.1316
-40.5216
-39.9901
-41.3438
-57.4251
-59.5947
-53.6039
-56.3988
-31.8543
-29.9932
-30.7232
-28.3149
-30.0189
-31.8578
-28.3308
-30.7342
-33.734
-33.5796
-32.5369
-33.0399
-33.5793
-33.7266
-33.0332
-32.5498
-77.3958
42.2041
-102.642
-41.3027
-75.1882
-85.6192
-40.9564
-34.2066
-38.6857
-34.3539
-44.2124
-41.9716
-42.7808
28.3
-47.2133
3.87121
-59.2839
-48.4058
-41.8719
-35.4386
-37.3529
-35.0363
-41.4613
-39.3269
-102.688
-39.0488
-77.497
42.3932
-75.4185
-85.7104
-38.7145
-34.3485
-40.9315
-34.2189
-44.176
-41.9921
-47.1142
3.65079
-42.7798
28.2612
-59.1215
-48.5859
-37.3546
-35.0338
-41.8016
-35.4142
-41.4113
-39.3304
-37.573
-39.829
-34.8083
-34.9871
-37.7793
-35.7121
-38.8833
-37.0575
-40.9762
-39.712
-36.6561
-36.9534
-38.1273
-35.8275
-37.8193
-40.1642
-58.4968
-55.4523
-56.656
-56.2046
-59.9864
-76.3602
-37.0311
-82.7637
-51.9994
-54.4652
-51.5985
-51.0424
-53.9693
-57.3037
-59.9792
-58.6649
-37.5614
-39.817
-38.892
-37.093
-34.9095
-35.0411
-37.8419
-35.8826
-40.9183
-39.7086
-37.7898
-40.1533
-36.6156
-36.9298
-38.0879
-35.8085
-58.5894
-54.7991
-36.1445
-82.8055
-56.8491
-56.5737
-60.3655
-76.7298
-51.927
-54.4299
-59.8823
-58.5904
-51.5258
-50.9759
-53.9047
-57.2214
-54.2987
57.2094
-56.2272
57.8104
-60.3433
-60.8637
113.482
113.366
-90.0123
-165.716
-90.0097
-159.878
-82.8499
-82.8652
63.7524
60.5333
-73.9547
-65.6064
-52.487
-51.3912
-66.48
-56.2503
-60.8312
-54.3468
-39.8881
-33.5396
-40.6318
-34.1669
-42.0706
-42.1161
-33.2785
-33.401
-34.2796
-28.7341
-34.2921
-28.7402
-36.0679
-36.0615
-26.3629
-26.4479
-48.4857
-42.2193
-40.5133
-39.2998
-42.4863
-45.4955
-39.2406
-40.323
-43.8261
-57.5386
-43.8253
-57.733
-37.4432
-37.4344
67.3668
67.6146
-52.4231
-30.1924
-46.7965
-19.4217
-55.9263
-62.7346
-20.1124
-12.1703
-37.0486
-35.2707
-37.0484
-35.2749
-38.1494
-38.1487
-33.4327
-33.4216
-47.1219
-45.8793
-50.4447
-52.5289
-48.2694
-49.2142
-50.4654
-46.2278
-54.4697
56.773
-56.2346
57.6099
-60.2776
-60.8376
113.099
112.771
-73.8062
-65.4316
-52.3011
-51.2779
-66.2995
-56.0796
-60.7115
-54.2525
-39.8615
-33.5419
-40.601
-34.1654
-42.0854
-42.0406
-33.2829
-33.4095
-48.2285
-42.2154
-40.4089
-39.2278
-42.4371
-45.449
-39.2272
-40.3274
-52.3946
-30.0922
-46.4385
-19.3005
-62.5189
-55.631
-11.9963
-20.0286
-47.1885
-45.8596
-50.3992
-52.438
-49.2067
-48.2581
-46.218
-50.446
-33.9363
-33.0292
-35.1787
-32.6091
-35.747
-35.656
-32.8193
-30.2089
-39.4376
-38.8253
-44.1956
-44.406
-41.3998
-43.2312
-39.7635
-42.5755
-39.8229
-37.2335
-39.8235
-37.2406
-42.1827
-42.1847
-35.8954
-35.8992
-39.4689
-38.9202
-44.1663
-44.1057
-40.2963
-42.4616
-40.0875
-42.8684
-38.2365
-39.9355
-38.2333
-39.9369
-37.7425
-37.7436
-38.768
-38.7662
-57.0971
-64.5684
-55.62
-60.8985
-51.9848
-53.4299
-71.2639
-67.3742
15.4814
-18.5385
15.5526
-18.5837
23.4548
23.5291
-40.9386
-40.852
-73.0121
-66.6528
-73.015
-66.8208
-76.3711
-76.3722
-63.0981
-63.0751
-34.1293
-33.1298
-35.259
-32.644
-35.9568
-35.9584
-32.8862
-30.2537
-39.614
-39.0668
-44.4552
-44.6422
-43.2739
-41.3559
-40.0191
-42.8493
-39.3965
-38.8583
-44.0711
-44.0243
-42.3713
-40.2155
-40.032
-42.7945
-57.3829
-64.9643
-55.7715
-61.1584
-53.7328
-52.5891
-67.5652
-71.8477
-78.5532
-78.0863
-69.5046
-58.5015
-58.1898
-68.9013
-55.1583
-55.2823
-78.3386
-77.8905
-69.3101
-58.2857
-68.7001
-57.9429
-55.0255
-54.9257
-65.4091
-65.3959
-61.5239
-55.279
-61.4916
-55.2558
-52.8373
-52.8456
-14.0991
-14.0689
-8.95625
2.77766
2.74007
-8.95284
10.0034
10.2513
197.977
186.809
183.12
183.812