# vtk DataFile Version 2.0
tet_velo
ASCII
DATASET UNSTRUCTURED_GRID
POINTS 29498 float
-0.667543 0.275 -2.255
-0.692017 0.395 2.365
-0.708673 0.715 -2.155
-0.661025 0.855 2.235
0.667549 0.275 -2.255
0.692022 0.395 2.365
0.708674 0.715 -2.155
0.661034 0.855 2.235
-0.748568 0.242133 -0.715
-0.781209 0.25765 0.825
-0.81282 0.881697 -0.691667
-0.79396 0.925386 0.771667
0.749696 0.241011 -0.715
0.780879 0.257985 0.825
0.812913 0.881786 -0.691667
0.793502 0.924922 0.771667
-1.4307 -0.0684544 -3.46274
-1.43494 -0.0272534 -2.26145
-1.49509 -0.0440832 -0.719467
-1.51742 -0.0315646 0.837945
-1.46322 0.0623812 2.38123
-1.44718 0.111198 3.58889
-1.45429 0.137668 4.78476
-1.42895 0.203155 -3.4403
-1.43493 0.266172 -2.24739
-1.51288 0.264025 -0.720321
-1.5235 0.265574 0.813644
-1.43234 0.341334 2.34218
-1.42694 0.387289 3.54876
-1.44503 0.415501 4.74713
-1.44825 0.711763 -3.37391
-1.47142 0.774412 -2.17782
-1.55931 0.884042 -0.703022
-1.53816 0.903182 0.766346
-1.42008 0.869603 2.24261
-1.42217 0.914193 3.45236
-1.447 0.960136 4.6631
-1.47828 1.57761 -3.33196
-1.49663 1.65213 -2.14736
-1.53428 1.76133 -0.697415
-1.54625 1.81166 0.736004
-1.52151 1.80271 2.18675
-1.50255 1.80643 3.37303
-1.49704 1.83148 4.5754
-0.696748 -0.0651831 -3.46769
-0.68439 -0.0216508 -2.26866
-0.734431 -0.0560447 -0.718499
-0.769586 -0.0359937 0.847637
-0.735295 0.0925071 2.39817
-0.722385 0.131771 3.60038
-0.727149 0.148034 4.79142
-0.694438 0.200279 -3.44183
-0.706277 0.407074 3.55824
-0.72068 0.424274 4.75215
-0.707973 0.687123 -3.36443
-0.701435 0.912885 3.45084
-0.723454 0.960525 4.66278
-0.724762 1.56284 -3.32259
-0.733777 1.63928 -2.13703
-0.766865 1.76141 -0.691189
-0.790968 1.81694 0.735257
-0.783634 1.80104 2.18141
-0.769576 1.80209 3.3677
-0.763957 1.82796 4.57152
0.722633 -0.0653423 -3.46769
0.718126 -0.0219045 -2.26866
0.760587 -0.0567735 -0.718499
0.761887 -0.0359452 0.847637
0.703948 0.0925452 2.39817
0.708655 0.131761 3.60038
0.717235 0.147991 4.79142
0.710938 0.200191 -3.44183
0.701674 0.407066 3.55824
0.713509 0.424235 4.75215
0.725605 0.687072 -3.36443
0.68977 0.912855 3.45084
0.706021 0.960469 4.66278
0.769247 1.56272 -3.32259
0.779268 1.63917 -2.13703
0.774602 1.76125 -0.691189
0.737052 1.81672 0.735257
0.69856 1.80087 2.18141
0.693708 1.80196 3.3677
0.698524 1.82784 4.57152
1.44871 -0.0688258 -3.46274
1.44956 -0.0278059 -2.26145
1.50774 -0.0451059 -0.719467
1.5191 -0.031773 0.837945
1.45556 0.0624067 2.38123
1.44219 0.111153 3.58889
1.44811 0.137562 4.78476
1.43606 0.202897 -3.4403
1.42779 0.265844 -2.24739
1.51009 0.262916 -0.720321
1.52998 0.265403 0.813644
1.4431 0.341402 2.34218
1.43057 0.387258 3.54876
1.44126 0.415402 4.74713
1.45603 0.711598 -3.37391
1.4644 0.774314 -2.17782
1.55382 0.883615 -0.703022
1.5402 0.902635 0.766346
1.42588 0.869527 2.24261
1.41744 0.914108 3.45236
1.43269 0.960005 4.6631
1.51403 1.57735 -3.33196
1.52887 1.65186 -2.14736
1.53603 1.76098 -0.697415
1.50172 1.81123 0.736003
1.45194 1.80238 2.18675
1.43597 1.80616 3.37303
1.43615 1.83124 4.5754
-0.745466 0.495 -2.26236
3.01003e-06 0.266636 -2.26336
-0.716419 0.250203 -1.485
-0.689238 0.625 2.31272
2.5034e-06 0.349623 2.41038
-0.77803 0.284908 1.595
5.06639e-07 0.779607 -2.21961
-0.795798 0.8334 -1.42333
4.50015e-06 0.92237 2.30237
-0.763395 0.926095 1.50333
0.745554 0.495 -2.26244
0.716424 0.250204 -1.485
0.689102 0.625 2.31257
0.778052 0.284891 1.595
0.795793 0.833393 -1.42333
0.763402 0.926094 1.50333
-0.767098 0.247682 0.0549999
-0.879271 0.561915 -0.703334
0.000563929 0.242584 -0.715
-0.886326 0.591518 0.798333
-0.000164561 0.242648 0.825
-0.807939 0.90809 0.04
4.6387e-05 1.10729 -0.691667
-0.00022876 1.37089 0.771667
0.767096 0.24769 0.0549999
0.879142 0.561398 -0.703334
0.885507 0.591453 0.798333
0.808022 0.908168 0.04
-0.849374 0.528457 -1.45417
-0.891542 0.576717 0.0475
-0.863913 0.608259 1.54917
0.00028347 0.249526 -1.485
0.000199684 0.242354 0.0549999
-8.10289e-05 0.269995 1.595
1.75834e-06 0.495 -2.4379
3.50177e-06 0.625 2.36922
2.34468e-05 0.915823 -1.42333
-9.11864e-05 1.37689 0.04
-0.00011213 1.05685 1.50333
0.849376 0.528199 -1.45417
0.891454 0.576426 0.0475
0.864138 0.608227 1.54917
-1.05124 0.270586 -2.25119
-0.675967 0.126675 -2.26183
-0.68099 0.23764 -2.84841
-1.06218 0.368167 2.35359
-0.713656 0.243754 2.38159
-0.699147 0.401037 2.96162
-1.09005 0.744706 -2.16641
-0.708323 0.701062 -2.75972
-0.721225 1.17714 -2.14601
-1.04055 0.862301 2.23881
-0.68123 0.883942 2.84292
-0.72233 1.32802 2.20821
0.692838 0.126548 -2.26183
0.689243 0.237596 -2.84841
1.04767 0.270422 -2.25119
0.697985 0.243773 2.38159
0.696848 0.401033 2.96162
1.06756 0.368201 2.35359
0.717139 0.701036 -2.75972
0.743971 1.17708 -2.14601
1.08654 0.744657 -2.16641
0.675402 0.883928 2.84292
0.679797 1.32793 2.20821
1.04346 0.862264 2.23881
-1.13073 0.253079 -0.717661
-0.7415 0.0930443 -0.716749
-1.15235 0.261612 0.819322
-0.775397 0.110828 0.836319
-1.18607 0.882869 -0.697345
-0.789842 1.32155 -0.691428
-1.16606 0.914284 0.769006
-0.792464 1.37116 0.753462
0.755141 0.0921188 -0.716749
1.12989 0.251963 -0.717661
0.771383 0.11102 0.836319
1.15543 0.261694 0.819322
0.793757 1.32152 -0.691428
1.18337 0.8827 -0.697345
0.765277 1.37082 0.753462
1.16685 0.913779 0.769006
-1.43282 -0.0478539 -2.8621
-1.42982 0.0673505 -3.45152
-1.06372 -0.0668187 -3.46522
-1.46502 -0.0356683 -1.49046
-1.43494 0.119459 -2.25442
-1.05967 -0.0244521 -2.26506
-1.50625 -0.0378239 0.0592394
-1.50399 0.109971 -0.719894
-1.11476 -0.0500639 -0.718983
-1.49032 0.0154083 1.60959
-1.52046 0.117005 0.825795
-1.1435 -0.0337791 0.842791
-1.4552 0.0867895 2.98506
-1.44778 0.201858 2.3617
-1.09926 0.0774441 2.3897
-1.45073 0.124433 4.18683
-1.43706 0.249243 3.56882
-1.08478 0.121484 3.59463
-1.44966 0.276585 4.76595
-1.09072 0.142851 4.78809
-1.43194 0.234664 -2.84385
-1.4386 0.457459 -3.40711
-1.0617 0.201717 -3.44107
-1.47391 0.265098 -1.48385
-1.45318 0.520292 -2.2126
-1.51819 0.264799 0.0466617
-1.5361 0.574033 -0.711672
-1.47792 0.303454 1.57791
-1.53083 0.584378 0.789995
-1.42964 0.364311 2.94547
-1.42621 0.605468 2.2924
-1.43598 0.401395 4.14794
-1.42455 0.650741 3.50056
-1.06661 0.397181 3.5535
-1.44601 0.687818 4.70512
-1.08285 0.419887 4.74964
-1.45983 0.743088 -2.77587
-1.46326 1.14469 -3.35294
-1.07811 0.699443 -3.36917
-1.51536 0.829227 -1.44042
-1.48402 1.21327 -2.16259
-1.54873 0.893612 0.0316617
-1.5468 1.32269 -0.700218
-1.47912 0.886392 1.50448
-1.54221 1.35742 0.751175
-1.42113 0.891898 2.84749
-1.47079 1.33616 2.21468
-1.43458 0.937165 4.05773
-1.46236 1.36031 3.4127
-1.0618 0.913539 3.4516
-1.47202 1.39581 4.61925
-1.08523 0.96033 4.66294
-1.48745 1.61487 -2.73966
-1.10152 1.57022 -3.32728
-1.51546 1.70673 -1.42239
-1.1152 1.6457 -2.14219
-1.54027 1.7865 0.0192946
-1.15057 1.76137 -0.694302
-1.53388 1.80719 1.46138
-1.16861 1.8143 0.73563
-1.51203 1.80457 2.77989
-1.15257 1.80188 2.18408
-1.49979 1.81895 3.97421
-1.13606 1.80426 3.37037
-1.1305 1.82972 4.57346
-0.690569 -0.0434169 -2.86818
-0.695593 0.067548 -3.45476
0.0129424 -0.0652627 -3.46769
-0.709411 -0.0388477 -1.49358
0.0168678 -0.0217776 -2.26866
-0.752009 -0.0460192 0.0645694
0.0130776 -0.0564091 -0.718499
-0.752441 0.0282567 1.6229
-0.0038495 -0.0359695 0.847637
-0.72884 0.112139 2.99928
-0.0156735 0.0925261 2.39817
-0.724767 0.139902 4.1959
-0.714331 0.269422 3.57931
-0.00686523 0.131766 3.60038
-0.723915 0.286154 4.77178
-0.00495736 0.148012 4.79142
-0.701205 0.443701 -3.40313
0.00824998 0.200235 -3.44183
-0.713479 0.415674 4.15519
-0.703856 0.659979 3.50454
-0.0023018 0.40707 3.55824
-0.722067 0.692399 4.70746
-0.00358573 0.424254 4.75215
-0.716367 1.12498 -3.34351
0.00881579 0.687098 -3.36443
-0.712445 0.936705 4.05681
-0.735505 1.35749 3.40927
-0.00583245 0.91287 3.45084
-0.743706 1.39424 4.61715
-0.0087168 0.960497 4.66278
-0.729269 1.60106 -2.72981
0.0222426 1.56278 -3.32259
-0.750321 1.70035 -1.41411
0.0227456 1.63922 -2.13703
-0.778916 1.78917 0.0220338
0.00386847 1.76133 -0.691189
-0.787301 1.80899 1.45833
-0.0269579 1.81683 0.735257
-0.776605 1.80156 2.77456
-0.042537 1.80095 2.18141
-0.766766 1.81502 3.96961
-0.0379341 1.80202 3.3677
-0.0327163 1.8279 4.57152
0.72038 -0.0436234 -2.86818
0.716785 0.0674246 -3.45476
1.08567 -0.067084 -3.46522
0.739356 -0.039339 -1.49358
1.08384 -0.0248552 -2.26506
0.761237 -0.0463594 0.0645694
1.13416 -0.0509397 -0.718983
0.732918 0.0283 1.6229
1.14049 -0.0338591 0.842791
0.706301 0.112153 2.99928
1.07975 0.077476 2.3897
0.712945 0.139876 4.1959
0.705164 0.269414 3.57931
1.07542 0.121457 3.59463
0.715372 0.286113 4.77179
1.08267 0.142776 4.78809
0.718271 0.443632 -3.40313
1.0735 0.201544 -3.44107
0.707591 0.41565 4.15519
0.695722 0.659961 3.50454
1.06612 0.397162 3.5535
0.709765 0.692352 4.70746
1.07738 0.419818 4.74964
0.747426 1.1249 -3.34351
1.09082 0.699335 -3.36917
0.697895 0.936662 4.05681
0.691739 1.35741 3.40927
1.0536 0.913482 3.4516
0.702273 1.39415 4.61715
1.06936 0.960237 4.66294
0.774257 1.60094 -2.72981
1.14164 1.57004 -3.32728
0.776935 1.70021 -1.41411
1.15407 1.64551 -2.14219
0.755827 1.78898 0.0220337
1.15532 1.76112 -0.694302
0.717806 1.80879 1.45833
1.11938 1.81398 0.73563
0.696134 1.80141 2.77456
1.07525 1.80162 2.18408
0.696116 1.8149 3.96961
1.06484 1.80406 3.37037
1.06734 1.82954 4.57346
1.44913 -0.0483158 -2.8621
1.44238 0.0670355 -3.45152
1.47865 -0.0364559 -1.49046
1.43868 0.119019 -2.25442
1.51342 -0.0384394 0.0592393
1.50891 0.108905 -0.719894
1.48733 0.0153169 1.60959
1.52454 0.116815 0.825795
1.44888 0.0867799 2.98506
1.44933 0.201904 2.3617
1.44515 0.124357 4.18683
1.43638 0.249206 3.56882
1.44469 0.276482 4.76595
1.43193 0.23437 -2.84385
1.44604 0.457247 -3.40711
1.46894 0.26438 -1.48385
1.4461 0.520079 -2.2126
1.52003 0.26416 0.0466616
1.53195 0.573265 -0.711672
1.48654 0.303403 1.57791
1.53509 0.584019 0.789995
1.43684 0.36433 2.94547
1.43449 0.605465 2.2924
1.43591 0.40133 4.14794
1.424 0.650683 3.50056
1.43698 0.687704 4.70512
1.46022 0.742956 -2.77587
1.48503 1.14447 -3.35294
1.50911 0.828965 -1.44042
1.49664 1.21309 -2.16259
[...]
POINT_DATA 29498
VECTORS point_vectors float
-0.87814 -1.74354 4.45113
0.0541618 0.0428795 0.188344
-1.98212 1.2096 4.40285
-0.0297408 -0.11427 0.12945
0.880906 -1.74517 4.45699
-0.0542613 0.0422471 0.187095
2.0033 1.22415 4.44295
0.0298294 -0.114761 0.129803
0.0301011 -0.0116841 0.955978
-0.0214986 -0.000622514 0.950957
0 0 0
-1.16419e-17 -1.36015e-17 -7.58443e-17
-0.0328638 -0.01585 1.03835
0.0199695 -0.00252143 0.921626
0 0 0
0 0 0
-0.483399 -0.235288 19.82
-1.19859 -0.717248 20.3719
-0.475191 -0.472095 21.2296
0.0890184 -0.0919923 21.4212
0.745527 0.249367 21.308
1.01124 0.226277 21.079
0.917682 0.131466 20.9443
-0.566623 -0.167662 19.7242
-1.6204 -0.605135 20.3064
-0.652206 -0.567876 21.2929
0.102794 -0.177498 21.521
0.931316 0.0828492 21.3778
1.20751 0.0259757 21.284
1.04789 -0.0517081 21.2105
-0.633078 0.0506477 19.6701
-1.76025 0.0673363 20.2516
-1.18706 -0.300759 21.2383
-0.150019 -0.298034 21.6083
0.808055 -0.437991 21.3815
1.1825 -0.43853 20.8845
0.783047 -0.34707 20.7921
-0.450412 0.274599 19.8745
-0.910899 0.563359 20.2465
-0.981384 0.412208 21.02
-0.333761 -0.0375361 21.4502
0.155183 -0.346879 21.2702
0.343819 -0.529509 20.8302
0.290138 -0.260267 20.8605
-0.410592 -0.443625 19.3901
-1.76006 -3.26964 20.5928
-0.161971 -0.455242 21.0094
0.096221 0.204584 19.7451
0.407401 1.33308 16.557
1.10162 1.61665 17.3743
1.35217 0.969026 15.8539
-0.562061 -0.341441 19.1528
1.60282 1.39175 11.4943
1.75076 0.91182 12.9277
-0.673947 0.0941972 18.9424
2.02402 -0.390849 9.2683
1.2539 -0.198789 15.2712
-0.400629 0.533837 19.4863
-1.00169 1.57206 19.9624
-1.46122 1.70485 20.9513
-0.505379 0.226667 21.9403
0.00347141 -0.545682 21.4623
0.151225 -0.793877 21.3785
0.269631 -0.791949 19.843
0.422363 -0.43642 19.4085
1.81402 -3.05779 20.5587
0.165194 -0.466175 21.0762
-0.0924189 0.205047 19.7034
-0.313371 1.30105 16.0493
-1.08816 1.62238 17.3088
-1.35153 0.962635 15.7213
0.574761 -0.342851 19.1512
-1.59232 1.3985 11.3669
-1.74016 0.912264 12.8254
0.678937 0.0979308 18.9797
-2.01354 -0.378454 8.89392
-1.24635 -0.167102 15.054
0.414852 0.513963 19.4999
1.0351 1.50336 19.9832
1.45993 1.67886 20.9551
0.500148 0.2615 21.9724
0.027707 -0.53828 21.4373
-0.120856 -0.805635 21.3871
-0.264353 -0.818766 19.5762
0.478204 -0.230494 19.8247
1.17278 -0.691992 20.3873
0.476961 -0.469674 21.2199
-0.0843961 -0.0961702 21.4078
-0.748423 0.259289 21.3091
-1.02242 0.22251 21.0521
-0.923877 0.136266 20.9571
0.565053 -0.16371 19.7219
1.63524 -0.612132 20.2988
0.652418 -0.566972 21.2938
-0.0992224 -0.178396 21.5125
-0.920172 0.0834727 21.3252
-1.19791 0.0263394 21.2926
-1.05675 -0.0485624 21.2211
0.62924 0.0488134 19.6742
1.77674 0.0759982 20.2548
1.1935 -0.30327 21.2429
0.148678 -0.297062 21.6129
-0.798855 -0.438318 21.3868
-1.17942 -0.443882 20.8804
-0.791988 -0.360779 20.7304
0.443334 0.266641 19.8872
0.900199 0.541559 20.2581
0.977625 0.411105 21.0183
0.348814 -0.0324576 21.4813
-0.154694 -0.377287 21.2925
-0.336636 -0.555896 20.8008
-0.279081 -0.294642 20.9179
-0.85589 -0.0605921 1.10728
0.000216223 -0.0543661 0.46317
0.0146026 -0.00932391 0.411892
-0.0065582 -0.0224906 0.0270135
-0.000373082 -0.0263191 0.0217975
-0.0425296 0.137106 1.08009
-9.86423e-06 0.28599 0.542804
-0.378574 -0.134584 1.33422
-0.000824929 0.19941 -0.286893
0.0571694 0.018071 0.352432
0.853893 -0.0612389 1.10769
-0.014452 -0.00925826 0.411571
0.00646575 -0.0222943 0.0268162
0.0423347 0.137184 1.08319
0.378755 -0.13487 1.33355
-0.0566306 0.0180824 0.350191
-0.00747839 0.00648191 0.288305
-0.000788144 -0.000526489 0.0309382
-1.00787e-05 -7.33393e-06 0.00270374
0.00058497 0.00600381 0.040157
1.43177e-05 0.000153476 0.0161667
0 0 0
2.61184e-05 0.046623 0.0935066
-1.66278e-06 -0.000512448 0.00943552
0.00766513 0.00666602 0.287027
0.000767249 -0.000545288 0.0302825
-0.000382883 0.0046933 0.0310889
0 0 0
-0.00151011 -0.00259275 0.0316325
-2.87266e-05 0.00237844 0.0177737
0.00311935 0.00354561 0.0267363
-3.4789e-07 -2.75551e-07 9.00665e-05
7.55101e-08 -3.70949e-08 -4.40879e-05
0 0 0
-0.0261946 0.244174 0.610117
0 0 0
7.54801e-06 0.00144151 0.012994
-7.66465e-07 0.0059335 0.0806364
3.81312e-06 0.00369122 -0.00564709
0.00151398 -0.00259171 0.0317297
7.06564e-06 0.00354826 0.0267704
-0.00355581 0.00406002 0.0305198
-3.044 -1.61099 20.2141
-2.80789 -5.1451 20.9182
-1.62913 -1.23441 18.001
1.37819 0.741898 18.03
0.323803 1.29105 8.95726
1.01031 0.991047 7.73977
-3.55872 0.480691 20.1144
-2.28613 0.675451 17.1926
-2.2628 2.73665 19.7045
1.33242 -0.197371 16.6802
0.488924 -0.430276 5.12199
0.567017 -0.493806 14.5831
2.83949 -4.88526 20.8113
1.63681 -1.22159 18.029
3.07083 -1.63613 20.2156
-0.256011 1.25659 8.50402
-0.996842 0.984812 7.64855
-1.37811 0.717892 18.1948
2.28594 0.666512 17.2469
2.28539 2.61954 19.724
3.59046 0.497554 20.1127
-0.448352 -0.415589 4.88873
-0.526474 -0.480922 13.148
-1.32364 -0.19907 16.7931
-0.459586 -0.957103 21.1785
0.135268 -0.205158 16.0099
0.242981 -0.074359 20.4531
0.0988225 0.22578 14.2167
-2.0782 -0.785839 21.4319
-3.53062 2.21731 20.7451
-0.0586212 -0.44507 20.1191
-0.362908 0.0616785 18.4376
-0.121064 -0.235654 16.2783
0.458801 -0.95262 21.1522
-0.103033 0.221452 14.1052
-0.242654 -0.0844361 20.5038
3.51614 2.17749 20.7609
2.08872 -0.792759 21.4216
0.160836 0.216677 17.0725
0.0635241 -0.446583 20.114
-0.874295 -0.468628 19.8878
-0.536078 -0.199479 19.7635
-0.501706 -0.344018 19.6251
-0.83883 -0.631154 20.9903
-1.38757 -0.680738 20.3472
-1.73004 -1.5695 20.3547
-0.177944 -0.285166 21.3777
-0.557277 -0.522792 21.2595
-0.320493 -0.62658 21.4078
0.395719 0.0935763 21.4316
0.0960084 -0.133531 21.4723
0.170688 -0.014948 21.4913
0.92891 0.282163 21.1619
0.84208 0.194211 21.341
0.962122 0.728921 21.0505
0.882623 0.287287 20.6085
1.10937 0.126127 21.1815
1.27512 0.808343 20.5747
1.01154 0.066556 21.0722
1.05771 0.623146 20.4976
-1.09979 -0.361462 19.7343
-0.605435 -0.083339 19.6891
-0.608326 -0.251436 19.4645
-1.12667 -0.632313 21.0251
-1.76001 -0.270964 20.2983
-0.257761 -0.380921 21.4528
-0.942729 -0.499787 21.2674
0.515721 -0.0286493 21.5386
0.00081487 -0.272773 21.6021
1.13541 0.135575 21.1139
0.96179 -0.190104 21.3394
0.921701 0.113045 20.7843
1.18469 -0.240284 21.3822
1.82204 0.575304 19.046
0.952393 -0.355858 20.8295
1.37751 0.408879 17.3985
-1.24371 0.0903535 19.6945
-0.579379 0.202348 19.7489
-0.701047 0.0732269 19.3437
-1.50107 -0.155666 20.8769
-1.35341 0.482738 20.2118
-0.677884 -0.330853 21.5444
-1.26672 0.132602 21.1212
0.361712 -0.336977 21.5955
-0.301916 -0.199827 21.5667
0.992763 -0.440346 21.1604
0.40265 -0.491378 21.3393
0.846421 -0.40685 20.6374
0.578818 -0.619122 21.1482
1.72094 -0.657454 18.6548
0.490851 -0.315461 20.7459
1.04286 -0.772824 19.5704
-0.691904 0.431073 19.9837
-0.486539 0.405536 19.6957
-1.01416 0.522404 20.6271
-1.10475 1.01194 20.1196
-0.721131 0.203817 21.344
-1.30064 0.874598 21.043
-0.0329366 -0.214512 21.4237
-0.434922 0.0564085 21.68
0.240224 -0.440524 21.1778
0.143309 -0.483746 21.349
0.48894 -0.569703 20.6386
0.295769 -0.700314 21.0025
0.270847 -0.481576 20.8803
-1.07625 -1.3914 18.9869
-0.496205 -0.398441 19.265
0.00555538 -0.574381 19.1404
-0.60073 -1.10893 21.7125
0.0283279 -4.41339 21.173
-0.00823487 -0.0852875 20.2472
0.00374571 -0.556736 19.7261
0.192422 0.655584 17.9349
-0.00119503 0.0141475 16.9079
0.724928 1.53088 16.8596
-0.0151567 0.517211 11.4481
0.866871 1.13881 17.5092
1.43558 1.73117 14.1439
0.00374431 1.02182 11.9734
1.65788 1.04743 14.0427
0.0230143 1.05183 14.264
-0.603756 -0.159651 19.044
0.00836506 -0.453433 18.8088
2.01241 1.16451 13.0764
2.22451 0.475509 9.21757
0.00363711 -0.535844 -0.242642
1.66179 0.431759 12.7458
0.0245094 1.01718 9.97599
-0.556189 0.434866 19.1611
0.0114159 0.170565 18.4611
1.96327 -0.39547 11.3876
0.859555 -1.21004 17.6939
0.0407657 -0.103383 -4.467
0.557794 -0.99295 18.7633
0.0368124 -0.202141 0.842263
-0.736433 1.12432 19.4968
0.013102 0.761723 19.3066
-1.16169 1.56156 20.4182
0.036185 2.24663 19.7942
-1.18229 1.09636 21.9035
0.0141507 3.11349 20.6489
-0.155136 -0.287893 21.7117
-0.0315195 0.602672 22.3295
0.125938 -0.713593 21.3221
-0.0173864 -0.333156 21.2875
0.217331 -0.767693 20.167
-0.00698734 -0.82764 21.3684
0.0255982 -0.753826 20.1883
1.09656 -1.34584 19.0523
0.503156 -0.391275 19.2755
0.50582 -0.336687 19.6318
0.614827 -1.10599 21.7211
1.68505 -1.48693 20.3508
0.00842402 -0.0861958 20.2958
0.334922 -0.625369 21.3949
-0.17472 0.63661 17.6727
-0.169544 -0.0134601 21.4835
-0.674449 1.54378 16.5233
-0.953712 0.772645 20.8929
-0.837955 1.17062 17.4583
-1.41362 1.71256 14.021
-1.27959 0.830752 20.5398
-1.64743 1.03998 13.9275
-1.06847 0.636898 20.4144
0.610888 -0.159374 19.0541
0.60574 -0.250814 19.4696
-2.02904 1.18261 12.9116
-2.20608 0.489609 8.98191
-1.82078 0.573963 19.0443
-1.65239 0.446399 12.5686
-1.37863 0.413298 17.3279
0.563761 0.41062 19.1942
0.699325 0.0701672 19.357
-1.97683 -0.383975 11.005
-0.837792 -1.23559 17.4627
-1.74578 -0.649535 18.4664
-0.55737 -1.02323 18.6548
-1.05485 -0.737083 19.3758
0.766336 1.06549 19.5284
0.488556 0.382963 19.7126
1.17867 1.51478 20.4303
1.09499 0.956809 20.1358
1.18033 1.13962 21.9273
1.2968 0.865697 21.0442
0.16237 -0.288854 21.7287
0.444368 0.069514 21.7186
-0.087614 -0.715326 21.3314
-0.116009 -0.492927 21.3713
-0.224904 -0.785812 20.2911
-0.271062 -0.71881 21.1249
-0.270763 -0.543771 20.7044
0.859233 -0.453144 19.8988
0.533013 -0.195692 19.7607
0.83294 -0.61983 20.9761
1.37618 -0.672394 20.3465
0.177321 -0.285063 21.3795
0.559713 -0.520061 21.2537
-0.398056 0.094447 21.4388
-0.0908433 -0.137419 21.4593
-0.93613 0.288298 21.1675
-0.83749 0.189807 21.3486
-0.882384 0.294261 20.6264
-1.11017 0.124425 21.1724
-1.01951 0.0710725 21.0862
1.10195 -0.357529 19.7276
0.604829 -0.0827028 19.6879
1.12833 -0.638242 21.0277
1.78132 -0.275709 20.2969
0.25765 -0.382207 21.4519
0.947253 -0.505804 21.2746
-0.505879 -0.0331901 21.5312
0.0012756 -0.272276 21.5992
-1.12586 0.128377 21.1167
-0.943184 -0.193006 21.3403
-0.914989 0.114137 20.7741
-1.18264 -0.239468 21.3772
-0.95498 -0.357585 20.8146
1.24104 0.0863076 19.6974
0.575809 0.195088 19.7603
1.5135 -0.153181 20.8817
1.33398 0.465073 20.2205
0.677948 -0.332896 21.5467
1.27197 0.131823 21.1218
-0.358712 -0.333774 21.5948
0.311373 -0.206117 21.5865
-0.992657 -0.446073 21.1542
-0.412513 -0.507468 21.3562
-0.855115 -0.398183 20.5991
-0.585945 -0.6446 21.178
-0.51053 -0.360187 20.5944
0.683002 0.409913 20.0025
1.00243 0.50665 20.6304
0.730938 0.213729 21.3541
0.0395446 -0.21962 21.4409
-0.24068 -0.474704 21.2004
-0.54747 -0.590645 20.5366
-0.999388 -0.413125 19.8
-1.33133 -1.38995 18.5336
-1.09998 -0.845827 19.5194
-1.52996 -0.683761 19.1238
-0.560023 -0.318282 19.5488
-2.30517 -1.6723 20.3088
-0.972611 -0.646354 21.0164
-0.0866663 -0.615075 17.2523
-0.821569 -1.01987 21.3082
-1.24625 -1.25685 21.4713
-0.364324 -0.768458 21.4595
-0.209137 -0.333484 21.4154
0.0363899 0.0679183 14.5819
-0.0508847 -0.307695 21.4893
-0.0287835 -0.484903 20.7034
0.228857 -0.0502211 21.2253
0.453746 0.0459813 21.4982
-0.0476998 0.635152 11.1236
0.513329 0.368563 21.2979
0.698922 0.420938 19.2788
1.18684 0.793123 19.6038
1.03216 0.208869 21.1379
0.912976 1.54981 12.2968
1.22668 0.78847 20.7705
1.59197 0.729589 18.4527
1.54858 0.691824 19.8104
0.902162 0.200166 20.6964
1.58282 1.16152 14.2285
0.839231 0.482807 21.3107
1.55137 0.4344 20.6262
1.277 0.549484 18.6123
-1.19997 -0.1608 19.6884
-2.08136 -0.478078 17.4167
-1.82506 0.221251 18.9713
-0.666402 -0.105838 19.3707
-3.68476 -0.648649 20.1223
-1.36512 -0.434884 20.9759
-2.41141 -0.302058 21.1223
-1.09517 -1.12141 20.8071
-0.448878 -0.418589 21.5151
-0.954863 -0.834563 20.9834
0.200929 -0.138831 19.5414
0.487083 -0.197815 21.5691
0.787936 -0.0964147 18.4896
1.48503 0.326204 16.1785
1.13283 -0.234563 21.108
1.07002 0.0933894 4.95739
1.49729 -0.470866 18.2242
1.91459 0.103536 18.4931
1.05654 -0.203294 20.247
2.19955 0.753752 12.3051
1.5726 -0.668375 19.5436
1.28636 -0.074587 17.2127
-0.984038 0.377361 19.8172
-1.34075 1.40155 18.7039
-0.824461 0.763442 19.7557
-0.634277 0.319393 19.4783
-1.94545 1.13645 20.011
-1.37616 0.30842 20.7112
-2.27123 1.88263 20.4512
-1.21857 0.954352 20.5601
-2.11398 0.512024 21.197
-0.833214 -0.0648908 21.4965
-2.34676 0.334584 20.9369
-0.979251 0.513493 21.5946
-0.506951 -0.226036 21.9129
0.109165 -0.34944 21.5032
0.547797 -0.281184 15.7715
-0.068421 -0.274836 21.5505
0.394959 -0.781615 21.1659
0.544833 -0.582742 21.2082
0.593657 -0.775062 16.2406
0.225062 -0.591582 21.2664
0.719514 -0.961269 20.5238
0.545615 -0.625993 20.9975
0.738938 -1.19253 18.6803
0.397529 -0.558834 20.7753
0.551228 -0.664731 19.7267
1.33723 -1.34002 18.5813
0.0226356 -2.10077 18.3627
0.00823237 -2.11947 16.5351
0.00990705 -0.524917 18.947
0.00561996 -6.12149 22.7354
0.10253 -0.648347 17.6025
0.00941469 -1.30687 21.5657
-0.00413785 -0.175718 11.7225
-0.0337573 0.0689224 14.6731
-0.000739076 -0.234024 17.9983
0.000573143 0.0594788 9.46133
0.0598898 0.608871 10.9103
-0.000991778 0.303405 14.0139
-0.0222318 0.296184 3.52193
-0.865853 1.5025 12.0337
-0.0216008 0.567346 11.3693
-0.00406742 -0.638287 -1.62197
0.00364012 0.184567 5.86458
-1.57008 1.19047 14.1804
0.0288049 1.62409 14.3795
0.0188856 0.539754 2.90494
0.0248284 1.0426 12.0125
2.08399 -0.477196 17.4651
0.0194495 1.44676 15.1179
0.0102391 -0.22902 18.4489
-1.04122 0.0915965 4.78962
0.00577305 0.583065 -4.59575
0.0316925 -0.698309 -4.47058
-2.22855 0.785584 12.043
0.0469629 -0.933493 -3.41355
0.0347644 0.743783 5.99022
1.34861 1.3402 18.7576
0.0220719 1.55006 19.2273
0.0130293 0.652363 18.7772
0.0411253 4.45216 19.498
2.27911 1.82941 20.4564
0.028984 2.29706 20.2169
0.01334 5.19125 18.341
2.32024 0.33326 20.6214
-0.023999 2.30515 22.3687
0.010476 -0.027233 9.19508
-0.661189 -0.205481 14.3368
-0.0221117 -0.0608716 21.9089
-0.0244493 0.0921613 2.74363
-0.555975 -0.760822 15.3634
-0.0115774 -0.555291 21.1753
0.0301847 -1.17269 7.91693
-0.750368 -1.22146 18.5264
0.0153293 -0.934335 19.85
0.0142994 -0.955768 13.1803
0.991618 -0.403974 19.7955
1.09239 -0.815893 19.5416
1.52458 -0.679416 19.1275
0.556234 -0.315452 19.554
2.27784 -1.62633 20.3018
0.970384 -0.640842 21.0092
0.831981 -0.994243 21.2815
1.24452 -1.26022 21.4701
0.37474 -0.763179 21.453
0.20859 -0.333826 21.4157
0.0569344 -0.311997 21.4989
0.0286951 -0.486728 20.7267
-0.226736 -0.0511406 21.2122
-0.449364 0.0430613 21.4915
-0.510616 0.379674 21.2691
-0.698992 0.406164 19.3619
-1.18647 0.813172 19.5166
-1.03118 0.207608 21.1425
-1.20993 0.822399 20.6791
-1.58703 0.721125 18.4881
-1.55018 0.702357 19.7921
-0.898686 0.204199 20.7002
-0.843026 0.508907 21.2112
-1.56399 0.431577 20.5666
-1.28287 0.556676 18.5355
1.19847 -0.16463 19.6883
1.81595 0.218431 18.9818
0.662871 -0.100609 19.3837
3.74632 -0.658397 20.1272
1.37503 -0.443635 20.9839
2.42265 -0.30257 21.1257
1.0893 -1.1251 20.7654
0.448032 -0.422031 21.5211
0.957881 -0.839535 20.968
-0.198446 -0.148438 19.5909
-0.479079 -0.199009 21.5679
-0.775227 -0.106353 18.5382
-1.48336 0.315032 16.3339
-1.12602 -0.23638 21.109
-1.49425 -0.466982 18.1471
-1.92644 0.103741 18.3963
-1.06006 -0.20652 20.221
-1.59946 -0.65304 19.5546
-1.2887 -0.0557535 17.0659
0.974693 0.366252 19.8319
0.820206 0.721075 19.7783
0.638055 0.308278 19.4966
1.93388 1.08618 20.0254
1.37105 0.302961 20.7123
1.21443 0.92577 20.5665
2.10811 0.510462 21.1943
0.842414 -0.0695563 21.5057
0.992814 0.536818 21.6119
0.523726 -0.2335 21.9082
-0.11154 -0.358122 21.5231
0.0733799 -0.284239 21.5732
-0.389016 -0.792688 20.9784
-0.549218 -0.614262 21.1917
-0.213496 -0.633674 21.2665
-0.749309 -0.984703 20.1917
-0.642804 -0.666216 20.9408
-0.302119 -0.595527 21.0306
-0.547329 -0.69651 19.6101
-1.28471 -0.797545 19.3428
-0.987197 -1.13479 21.4064
-0.0188046 -0.388202 21.3777
0.634438 0.395467 20.5857
1.47659 0.802783 19.8696
1.1953 0.458603 20.9685
-1.75494 -0.264413 18.9393
-1.92698 -1.04167 21.3776
-0.298959 -0.670924 20.1189
0.816377 0.296518 18.1461
1.75386 0.0962417 17.228
1.71627 0.00447074 19.9875
-1.32176 0.763798 19.3774
-1.95584 0.771581 20.6697
-1.37993 0.0530668 21.9087
0.0969428 -0.535044 21.6064
0.592076 -0.884426 21.0162
0.673399 -0.845273 20.8004
0.0200489 -2.18842 17.6125
0.00180821 -0.482814 13.3253
-0.00110933 -0.0513151 10.1498
-0.00178945 0.199849 6.65347
-0.0143997 -0.325525 3.46775
0.0238453 1.08192 8.64221
0.0111928 -0.542321 15.3702
0.00333158 -0.361146 -4.62194
0.0261419 -0.323716 -2.482
0.0359566 2.24711 17.8738
0.0219579 3.25343 20.1653
-0.00833842 1.45666 12.5678
-0.0156121 0.0267195 4.1342
-0.00247856 0.0357173 4.94173
0.0142297 -0.779139 9.58622
1.27985 -0.786144 19.3605
0.995808 -1.11913 21.3837
0.0218342 -0.38806 21.3811
-0.631376 0.398563 20.5207
-1.48334 0.816088 19.8127
-1.20351 0.470242 20.8889
1.74861 -0.263404 18.9501
1.92881 -1.04931 21.3777
0.296224 -0.67487 20.1221
-0.815442 0.279839 18.2663
-1.74992 0.0959666 17.2235
-1.74097 0.00340398 19.9694
1.31388 0.740121 19.4001
1.9398 0.748481 20.6695
1.40238 0.0559615 21.9253
-0.100082 -0.547084 21.4641
-0.597006 -0.909074 20.9568
-0.665742 -0.892496 20.5145
-1.43324 -0.806915 2.66551
-0.00858183 -0.239748 1.02236
0.00556459 -0.00761928 0.175176
0.110796 -0.0226888 0.269905
-0.0765828 -0.00276589 0.032906
0.00737333 0.0669649 0.496061
-1.60632 0.624911 1.41775
-0.0389828 0.287922 0.618978
-0.325056 0.0762214 1.29837
-0.00627136 -0.0267441 0.0096108
-0.10978 0.0786232 -0.0840646
0.00186937 -0.0229782 0.181598
0.0104932 -0.242698 1.03486
1.42267 -0.800506 2.64673
-0.00448879 -0.00496924 0.139771
0.0763948 -0.00279402 0.0328171
-0.110016 -0.0227637 0.267741
-0.00750137 0.0668251 0.495788
0.0374848 0.276065 0.601588
1.63356 0.636011 1.44406
0.325079 0.0764564 1.30168
0.109719 0.0792409 -0.0845317
0.00632571 -0.0269224 0.00980182
-0.00182841 -0.0228245 0.17991
0.0143292 -0.00708131 0.546731
-0.00633243 -0.00308452 0.65762
-0.00301983 -0.00776681 0.274759
0 0 0
-0.00870291 0.0297944 0.366689
-0.00689293 0.0100124 0.299313
-0.00694069 0.0142345 0.157461
-0.000252437 0.000730782 0.0243065
-0.211474 -0.163053 0.718927
-0.00224665 -0.00264152 0.0493936
0 0 0
-0.0356607 0.0186495 0.0443218
0 0 0
0.00446623 0.0161716 0.0751208
0 0 0
0.105212 0.0315289 0.395433
-0.0179701 -0.00596429 0.57866
0 0 0
0.00595152 -0.00282376 0.642959
0.00286717 -0.00744667 0.263105
0.00932807 0.0301955 0.37131
0.000240966 0.00070445 0.0233515
0.00690313 0.0100256 0.301427
0.007114 0.013437 0.153525
0.211816 -0.163171 0.720723
0.0354361 0.018369 0.0437821
0.00217733 -0.00260689 0.0474272
0 0 0
-3.5448e-17 3.67117e-17 2.21383e-16
-0.106552 0.0319779 0.400118
-0.00645198 0.0236729 0.107497
0 0 0
-0.00360762 -0.00205422 0.0278026
-0.307318 0.335212 0.310895
5.73826e-05 -0.00148259 0.042914
-9.8444e-06 -0.186639 0.125139
0 0 0
9.58612e-06 -6.75238e-07 0.000163022
0.0436314 0.0148305 0.297484
0 0 0
0 0 0
0 0 0
0.0261196 0.0383194 0.388195
-5.90791e-05 0.000397015 0.0096772
7.21651e-05 0.129181 0.0541029
-4.05349e-05 0.0166681 0.0942073
-0.0178371 -0.0221946 0.17671
-0.00813212 0.0034073 0.036102
0 0 0
-3.4665e-06 0.000219729 -0.00311227
0.00401183 0.00229225 0.0315781
0 0 0
0.309068 0.33789 0.313347
0.00363146 -0.00206847 0.0278842
-1.23412e-05 -8.64405e-07 0.000209387
0 0 0
0 0 0
-0.0417176 0.0138867 0.283543
5.66419e-05 0.00039625 0.00968112
-0.0287192 0.0423578 0.428493
0.00817074 0.00342981 0.0362817
0.0171785 -0.0214322 0.170998
0 0 0
-0.0039676 0.00227587 0.0312091
-0.00619775 0.0328976 0.398274
0 0 0
-0.00561051 -0.0123421 0.107842
-0.000805998 0.00163278 0.0340702
0 0 0
0 0 0
3.98704e-05 0.0055414 0.0382231
0 0 0
-2.82899e-08 -2.99328e-09 1.80989e-05
0 0 0
0.00254736 0.0130252 0.0773016
-0.022092 0.0354961 0.61248
0.000171776 0.000869598 0.00928116
-1.3794e-05 0.174084 0.501018
3.65519e-06 1.15795e-05 0.000730245
4.35835e-05 -0.00668823 0.034566
0 0 0
0.00568265 0.0339584 0.402629
0.00614422 -0.0122958 0.105761
0.000812028 0.00160135 0.0343964
-4.23745e-05 0.0053119 0.0364868
0 0 0
0.0223941 0.0353501 0.613693
-0.00226506 0.0114413 0.0685918
0 0 0
-0.0310559 -0.0135981 0.182803
0 0 0
-0.007867 -0.0218245 0.134566
-0.0092974 0.0151639 0.365891
-0.00221549 0.0133171 0.152484
-0.00814703 0.0343209 0.366659