# vtk DataFile Version 2.0
tri_press
ASCII
DATASET UNSTRUCTURED_GRID
POINTS 3682 float
-0.667543 0.275 -2.255
-0.692017 0.395 2.365
-0.708673 0.715 -2.155
-0.661025 0.855 2.235
0.667549 0.275 -2.255
0.692022 0.395 2.365
0.708674 0.715 -2.155
0.661034 0.855 2.235
-0.748568 0.242133 -0.715
-0.781209 0.25765 0.825
-0.81282 0.881697 -0.691667
-0.79396 0.925386 0.771667
0.749696 0.241011 -0.715
0.780879 0.257985 0.825
0.812913 0.881786 -0.691667
0.793502 0.924922 0.771667
-1.4307 -0.0684544 -3.46274
-1.43494 -0.0272534 -2.26145
-1.49509 -0.0440832 -0.719467
-1.51742 -0.0315646 0.837945
-1.46322 0.0623812 2.38123
-1.44718 0.111198 3.58889
-1.45429 0.137668 4.78476
-1.42895 0.203155 -3.4403
-1.43493 0.266172 -2.24739
-1.51288 0.264025 -0.720321
-1.5235 0.265574 0.813644
-1.43234 0.341334 2.34218
-1.42694 0.387289 3.54876
-1.44503 0.415501 4.74713
-1.44825 0.711763 -3.37391
-1.47142 0.774412 -2.17782
-1.55931 0.884042 -0.703022
-1.53816 0.903182 0.766346
-1.42008 0.869603 2.24261
-1.42217 0.914193 3.45236
-1.447 0.960136 4.6631
-1.47828 1.57761 -3.33196
-1.49663 1.65213 -2.14736
-1.53428 1.76133 -0.697415
-1.54625 1.81166 0.736004
-1.52151 1.80271 2.18675
-1.50255 1.80643 3.37303
-1.49704 1.83148 4.5754
-0.696748 -0.0651831 -3.46769
-0.68439 -0.0216508 -2.26866
-0.734431 -0.0560447 -0.718499
-0.769586 -0.0359937 0.847637
-0.735295 0.0925071 2.39817
-0.722385 0.131771 3.60038
-0.727149 0.148034 4.79142
-0.694438 0.200279 -3.44183
-0.706277 0.407074 3.55824
-0.72068 0.424274 4.75215
-0.707973 0.687123 -3.36443
-0.701435 0.912885 3.45084
-0.723454 0.960525 4.66278
-0.724762 1.56284 -3.32259
-0.733777 1.63928 -2.13703
-0.766865 1.76141 -0.691189
-0.790968 1.81694 0.735257
-0.783634 1.80104 2.18141
-0.769576 1.80209 3.3677
-0.763957 1.82796 4.57152
0.722633 -0.0653423 -3.46769
0.718126 -0.0219045 -2.26866
0.760587 -0.0567735 -0.718499
0.761887 -0.0359452 0.847637
0.703948 0.0925452 2.39817
0.708655 0.131761 3.60038
0.717235 0.147991 4.79142
0.710938 0.200191 -3.44183
0.701674 0.407066 3.55824
0.713509 0.424235 4.75215
0.725605 0.687072 -3.36443
0.68977 0.912855 3.45084
0.706021 0.960469 4.66278
0.769247 1.56272 -3.32259
0.779268 1.63917 -2.13703
0.774602 1.76125 -0.691189
0.737052 1.81672 0.735257
0.69856 1.80087 2.18141
0.693708 1.80196 3.3677
0.698524 1.82784 4.57152
1.44871 -0.0688258 -3.46274
1.44956 -0.0278059 -2.26145
1.50774 -0.0451059 -0.719467
1.5191 -0.031773 0.837945
1.45556 0.0624067 2.38123
1.44219 0.111153 3.58889
1.44811 0.137562 4.78476
1.43606 0.202897 -3.4403
1.42779 0.265844 -2.24739
1.51009 0.262916 -0.720321
1.52998 0.265403 0.813644
1.4431 0.341402 2.34218
1.43057 0.387258 3.54876
1.44126 0.415402 4.74713
1.45603 0.711598 -3.37391
1.4644 0.774314 -2.17782
1.55382 0.883615 -0.703022
1.5402 0.902635 0.766346
1.42588 0.869527 2.24261
1.41744 0.914108 3.45236
1.43269 0.960005 4.6631
1.51403 1.57735 -3.33196
1.52887 1.65186 -2.14736
1.53603 1.76098 -0.697415
1.50172 1.81123 0.736003
1.45194 1.80238 2.18675
1.43597 1.80616 3.37303
1.43615 1.83124 4.5754
-0.745466 0.495 -2.26236
3.01003e-06 0.266636 -2.26336
-0.716419 0.250203 -1.485
-0.689238 0.625 2.31272
2.5034e-06 0.349623 2.41038
-0.77803 0.284908 1.595
5.06639e-07 0.779607 -2.21961
-0.795798 0.8334 -1.42333
4.50015e-06 0.92237 2.30237
-0.763395 0.926095 1.50333
0.745554 0.495 -2.26244
0.716424 0.250204 -1.485
0.689102 0.625 2.31257
0.778052 0.284891 1.595
0.795793 0.833393 -1.42333
0.763402 0.926094 1.50333
-0.767098 0.247682 0.0549999
-0.879271 0.561915 -0.703334
0.000563929 0.242584 -0.715
-0.886326 0.591518 0.798333
-0.000164561 0.242648 0.825
-0.807939 0.90809 0.04
4.6387e-05 1.10729 -0.691667
-0.00022876 1.37089 0.771667
0.767096 0.24769 0.0549999
0.879142 0.561398 -0.703334
0.885507 0.591453 0.798333
0.808022 0.908168 0.04
-0.849374 0.528457 -1.45417
0.849376 0.528199 -1.45417
0.00028347 0.249526 -1.485
2.34468e-05 0.915823 -1.42333
1.75834e-06 0.495 -2.4379
-0.891542 0.576717 0.0475
0.891454 0.576426 0.0475
0.000199684 0.242354 0.0549999
-9.11864e-05 1.37689 0.04
-0.863913 0.608259 1.54917
0.864138 0.608227 1.54917
-8.10289e-05 0.269995 1.595
-0.00011213 1.05685 1.50333
3.50177e-06 0.625 2.36922
-0.720722 0.385 -2.2729
-0.33377 0.265504 -2.2645
-0.700482 0.254101 -1.87
-0.717907 0.51 2.36614
-0.346007 0.35026 2.40974
-0.749873 0.325104 1.98
-0.721889 0.605 -2.2035
-0.354336 0.76141 -2.20141
-0.767014 0.788979 -1.78917
-0.664442 0.74 2.26317
-0.33051 0.908173 2.28817
-0.731191 0.909529 1.86917
0.333776 0.265501 -2.2645
0.720728 0.385 -2.2729
0.70051 0.254078 -1.87
0.346012 0.350286 2.40971
0.717845 0.51 2.36607
0.749887 0.325096 1.98
0.354337 0.761321 -2.20132
0.72196 0.605 -2.20357
0.767021 0.788983 -1.78917
0.330519 0.908139 2.28814
0.664543 0.74 2.26326
0.731176 0.909505 1.86917
-0.730855 0.247806 -1.1
-0.759126 0.243615 -0.33
-0.855795 0.381086 -0.709167
-0.372897 0.244568 -0.715
-0.774194 0.276704 1.21
-0.770861 0.255958 0.44
-0.866391 0.408272 0.811667
-0.393449 0.244624 0.825
-0.809859 0.863098 -1.0575
-0.875461 0.736514 -0.6975
-0.811004 0.895518 -0.325833
-0.443457 1.06863 -0.691667
-0.788306 0.935369 1.1375
-0.876581 0.776671 0.785
-0.802631 0.918419 0.405833
-0.49052 1.33499 0.771667
0.730859 0.247808 -1.1
0.373743 0.244571 -0.715
0.758848 0.243898 -0.33
0.85539 0.380719 -0.709167
0.77419 0.276714 1.21
0.393203 0.244624 0.825
0.770881 0.255944 0.44
0.86575 0.408441 0.811667
0.809865 0.863101 -1.0575
0.44351 1.0686 -0.691667
0.875475 0.736316 -0.6975
0.811095 0.895604 -0.325833
0.788281 0.935337 1.1375
0.490217 1.33507 0.771667
0.875974 0.776422 0.785
0.802309 0.918092 0.405833
-0.830348 0.511729 -1.85826
-0.372732 0.495 -2.41564
0.00014324 0.252965 -1.87418
2.38419e-06 0.380818 -2.4316
-0.837436 0.38933 -1.46958
-0.358068 0.249353 -1.485
-0.824861 0.61663 1.93094
-0.344617 0.625 2.36937
-3.92627e-05 0.285625 2.00269
3.00258e-06 0.487311 2.44638
-0.85507 0.446583 1.57208
-0.389056 0.26868 1.595
1.19767e-05 0.874179 -1.82147
1.13249e-06 0.637303 -2.32997
-0.852799 0.680929 -1.43875
-0.397887 0.903953 -1.42333
-5.38149e-05 0.97969 1.90285
4.00096e-06 0.773685 2.28892
-0.844428 0.767177 1.52625
-0.381754 1.02198 1.50333
0.830362 0.5116 -1.8583
0.372778 0.495 -2.41562
0.837519 0.389202 -1.46958
0.358354 0.249354 -1.485
0.824483 0.616613 1.93087
0.344553 0.625 2.36936
0.855618 0.446559 1.57208
0.388985 0.268666 1.595
0.852757 0.680796 -1.43875
0.397908 0.903944 -1.42333
0.844411 0.76716 1.52625
0.381645 1.02205 1.50333
-0.86727 0.393225 0.05125
-0.383819 0.244278 0.0549999
-0.86688 0.545186 -1.07875
-0.889858 0.569316 -0.327917
0.000423699 0.249338 -1.1
0.000381806 0.242464 -0.33
-0.890714 0.584117 0.422917
-0.882975 0.599889 1.17375
1.75614e-05 0.242248 0.44
-0.000122795 0.256734 1.21
-0.885891 0.760479 0.04375
-0.502268 1.339 0.04
3.49169e-05 0.940148 -1.0575
-2.23997e-05 1.32183 -0.325833
-0.000159973 1.38797 0.405833
-0.000170445 1.31189 1.1375
0.867096 0.393147 0.05125
0.384019 0.244279 0.0549999
0.866747 0.544799 -1.07875
0.889736 0.568912 -0.327917
0.88988 0.58394 0.422917
0.882947 0.59984 1.17375
0.885914 0.760385 0.04375
0.502195 1.33899 0.04
-0.815703 0.387165 -1.86413
-0.849175 0.395677 -1.08938
-0.867946 0.701367 -1.06813
-0.823222 0.642964 -1.82371
0.815712 0.387101 -1.86415
0.823274 0.642898 -1.82374
0.867961 0.701194 -1.06813
0.849219 0.395203 -1.08938
-0.345919 0.249623 -1.87209
0.346065 0.249622 -1.87209
0.366742 0.249198 -1.1
-0.366035 0.249198 -1.1
-0.376112 0.859422 -1.80532
-0.402137 0.934124 -1.0575
0.402194 0.934117 -1.0575
0.376123 0.859422 -1.80532
-0.353251 0.382909 -2.4109
-0.363534 0.621152 -2.29808
0.363558 0.621152 -2.29785
0.353277 0.382909 -2.41098
-0.864474 0.385684 -0.328958
-0.866486 0.400921 0.431458
-0.882554 0.769234 0.414375
-0.88407 0.750193 -0.326875
0.864181 0.385464 -0.328958
0.884104 0.750055 -0.326875
0.881842 0.768853 0.414375
0.865635 0.401188 0.431458
-0.378361 0.244417 -0.33
0.378884 0.244419 -0.33
0.388767 0.244141 0.44
-0.388789 0.244141 0.44
-0.510046 1.27818 -0.325833
-0.501517 1.34724 0.405833
0.501328 1.34727 0.405833
0.510084 1.27826 -0.325833
-0.870602 0.435584 1.19188
-0.814808 0.478292 1.95547
-0.797725 0.753589 1.90005
-0.874459 0.762815 1.15563
0.870604 0.435639 1.19188
0.874504 0.762674 1.15563
0.79767 0.75358 1.90002
0.814813 0.47828 1.95544
-0.389871 0.254809 1.21
0.389671 0.255866 1.21
0.367499 0.285012 1.99134
-0.367531 0.285005 1.99134
-0.389424 1.28531 1.1375
-0.356132 0.97197 1.88601
0.356082 0.971975 1.88601
0.389141 1.28535 1.1375
-0.345312 0.498656 2.43689
0.345282 0.498656 2.43688
0.337536 0.756842 2.32849
-0.337564 0.756842 2.32849
-0.698476 0.33 -2.26829
-0.500656 0.268067 -2.26193
-0.688797 0.259765 -2.0625
-0.707119 0.4525 2.36773
-0.519012 0.360647 2.39935
-0.732533 0.348464 2.1725
-0.718174 0.66 -2.18214
-0.531505 0.739566 -2.17957
-0.746624 0.76077 -1.97208
-0.665832 0.7975 2.25218
-0.495768 0.892373 2.27237
-0.707948 0.894104 2.05208
0.500663 0.268502 -2.2615
0.698483 0.33 -2.26829
0.688912 0.259657 -2.0625
0.519017 0.361395 2.3986
0.707162 0.4525 2.36776
0.732557 0.348446 2.1725
0.531506 0.739555 -2.17955
0.717992 0.66 -2.18196
0.746639 0.760784 -1.97208
0.495777 0.892384 2.27238
0.665959 0.7975 2.2523
0.707919 0.894067 2.05208
-0.740875 0.243806 -0.9075
-0.753756 0.242965 -0.5225
-0.81441 0.305495 -0.712084
-0.560783 0.243249 -0.715
-0.776594 0.268284 1.0175
-0.772552 0.260287 0.6325
-0.841116 0.324304 0.818333
-0.587028 0.251739 0.825
-0.812005 0.873062 -0.874583
-0.857907 0.815988 -0.694584
-0.813048 0.889743 -0.50875
-0.649514 1.01791 -0.691667
-0.790514 0.929758 0.954583
-0.856182 0.861484 0.778333
-0.79887 0.922477 0.58875
-0.661479 1.16867 0.771667
0.740509 0.244178 -0.9075
0.561489 0.243251 -0.715
0.754381 0.242346 -0.5225
0.814042 0.305116 -0.712084
0.776433 0.268451 1.0175
0.586824 0.251739 0.825
0.772594 0.26025 0.6325
0.844525 0.322608 0.818333
0.812011 0.873065 -0.874583
0.649509 1.01779 -0.691667
0.857911 0.815909 -0.694584
0.81314 0.889831 -0.50875
0.790248 0.929486 0.954583
0.661325 1.16892 0.771667
0.855603 0.861104 0.778333
[...]
POINT_DATA 3682
SCALARS point_scalars float 1
LOOKUP_TABLE default
-85.0003
-40.3394
-46.0942
-35.4074
-84.7507
-40.3284
-45.8054
-35.3718
-33.6691
-36.2281
-53.5003
-46.1035
-33.7374
-36.315
-53.0886
-46.0743
44.518
-73.2763
-34.0194
-37.1544
-41.2864
-39.3021
-36.1622
104.113
-70.5537
-35.0196
-37.2572
-40.2681
-38.3996
-35.0845
62.7619
-72.8111
-42.9566
-42.0909
-39.5682
-36.3279
-34.0637
-31.023
-49.907
-88.2183
-50.7991
-36.0664
-35.2524
-34.1288
100.66
-124.469
-33.8293
-37.0883
-42.4998
-35.1004
-34.5634
160.926
-34.0914
-33.7164
178.888
-34.0637
-33.7566
5.23881
-51.2308
-75.4058
-57.7282
-34.0341
-32.4073
-32.0257
100.113
-117.431
-33.8847
-37.0866
-42.554
-34.9871
-34.4299
160.779
-34.0475
-33.7142
175.224
-33.7499
-33.7499
5.59895
-53.2839
-77.5623
-57.6772
-33.8853
-32.207
-32.0092
44.5607
-73.0037
-34.0475
-37.3806
-41.2507
-39.2728
-36.1398
103.828
-70.6756
-34.9882
-37.2921
-40.2162
-38.4162
-35.0756
62.3607
-73.1613
-42.8037
-42.1558
-39.5191
-36.2939
-34.0557
-30.6588
-49.9441
-87.4501
-51.0567
-36.0461
-35.2199
-34.1108
-30.1341
-119.926
-41.2273
-34.3855
-32.1585
-42.6391
-84.2312
-30.1026
-32.0808
-41.5586
-30.2982
-41.2311
-34.3554
-42.6241
-30.102
-41.5582
-34.307
-37.4467
-34.6468
-39.2094
-37.1403
-53.0655
34.2922
-59.722
-34.3257
-37.3857
-39.0424
-53.1615
-38.7977
-38.8177
-46.1839
-11.338
194.703
-40.7196
-40.9297
-33.773
-88.3502
-42.1098
-42.1107
-37.2861
-36.5357
-25.0678
-45.3613
-130.374
-56.6983
-38.1997
-35.672
-39.8217
-19.6249
-63.5404
-40.6372
-35.2103
-32.0866
-37.5524
-130.126
-45.407
-57.0857
-35.6542
-38.1769
-39.8136
-63.6748
-19.3859
-40.6451
-32.0701
-35.1815
-37.5491
-35.3975
-33.6296
-34.6706
-34.4217
-38.5013
-34.6264
-37.0946
-36.9388
-27.1587
-42.343
-57.7179
22.113
-47.0855
-42.0533
-49.051
-56.9122
-35.7306
-34.4048
-33.5838
-34.6261
-38.4249
-36.9525
-34.5554
-37.0754
-27.1715
22.1832
-42.1805
-57.7734
-47.0859
-56.9112
-42.0816
-48.9661
-56.1787
189.615
-63.6725
142.098
-39.0814
-45.0687
-39.9997
-31.3849
-36.6678
-25.5221
-42.1373
-37.7162
-36.9336
164.577
-38.6897
-15.5579
-34.5534
-24.4217
-42.0888
-37.9006
-56.1794
189.328
-39.098
-45.0725
-39.9732
-31.3471
-42.1363
-37.7276
-38.7407
-15.595
-42.098
-37.9024
-37.5206
-33.7168
-35.0848
-40.6594
-36.8725
-33.059
-39.2137
-41.6387
-34.8164
-37.298
-47.1288
-79.1656
12.0209
-76.2995
-72.3086
-46.2824
-37.6893
-33.7163
-34.9344
-40.6668
-39.1138
-41.6632
-47.2635
-79.1741
-53.6868
-36.0766
-34.6326
-52.4425
-53.6261
-52.4404
-34.5903
-36.0545
-62.5724
-62.8371
-36.2592
-36.2597
-37.104
4.56182
4.30715
-37.1281
136.763
137.999
137.648
136.806
-36.7937
-36.6167
-42.9182
-46.4367
-36.8059
-46.448
-42.842
-36.5084
-33.0816
-33.1171
-34.703
-34.7068
-85.5665
-64.0281
-64.0064
-85.6714
-40.5597
-40.356
-39.6997
-43.7017
-40.5671
-43.7346
-39.6724
-40.3394
-37.3171
-37.1856
-37.4934
-37.4999
-47.6532
-34.9103
-34.9101
-47.6606
-32.5128
-32.4899
-30.8716
-30.9108
-47.4654
-133.677
-76.9532
-39.1454
-37.5349
-41.1131
-28.8998
-48.6929
-52.0369
-35.4241
-32.3427
-36.249
-133.116
-47.4888
-77.3264
-37.334
-39.1169
-41.0497
-49.5875
-28.8358
-52.1133
-32.334
-35.3665
-36.2327
-33.9881
-33.4087
-33.7432
-34.1027
-36.7804
-34.4498
-36.1625
-36.8324
-32.7785
-46.6278
-58.3953
-8.19215
-45.1307
-44.017
-47.4606
-49.8448
-33.4339
-34.1307
-33.5806
-33.7484
-36.7426
-36.8463
-34.392
-36.2663
-32.8685
-10.2145
-46.3511
-57.6599
-45.13
-49.8033
-44.062
-47.4504
-34.9962
-23.116
-69.3457
154.289
-122.048
-121.959
-83.5184
28.973
-48.2875
-37.3895
-39.5352
-43.5385
-37.0501
-34.8117
-39.4418
-32.88
-33.28
-33.2647
-35.8971
-28.6099
-39.1152
-37.1159
-41.8324
-38.5107
-80.4351
-80.1311
-48.6337
73.4806
-34.5808
-26.9351
-37.0833
-20.2421
-31.914
-31.9013
-33.4104
-24.5527
-38.9229
-46.0272
-41.8879
-39.2628
-35.2437
-23.0742
-69.3324
154.544
-48.2539
-37.4916
-39.5512
-43.467
-37.019
-34.7884
-39.4037
-32.8642
-39.1082
-37.1255
-41.8135
-38.5224
-34.6043
-26.9091
-37.1629
-20.2715
-38.9332
-46.0316
-41.8986
-39.2607
-34.5686
-34.4151
-36.2532
-33.7186
-36.0033
-39.4213
-35.8395
-39.1399
-34.6028
-34.5921
-35.8986
-33.7871
-38.0532
-40.424
-38.9997
-39.3079
-37.0813
-37.09
-35.766
-37.1994
-55.8609
-51.4312
-50.5189
-63.4962
31.7012
31.7633
23.5335
0.986391
-59.39
-59.3893
-65.8523
-53.564
-34.6154
-34.3792
-36.3845
-33.7216
-35.9588
-39.3238
-35.8243
-39.0928
-37.9358
-40.2987
-38.8802
-39.3415
-55.9428
-51.4169
-50.6397
-63.4967
-45.721
-39.0451
-38.8412
-35.5205
-45.7416
-39.0597
-38.8636
-35.5806
-53.5335
-45.951
-45.9524
-40.8692
-23.7841
-12.4565
-12.4906
-0.128553
190.768
199.969
175.11
190.742
-38.9333
-41.1238
-39.6114
-43.3107
-39.1309
-41.2072
-39.5538
-43.4995
-33.7615
-34.4649
-34.1485
-33.7615
-86.9679
-97.5
-79.9631
-86.9681
-41.3914
-41.9766
-42.9819
-43.2505
-41.3835
-41.99
-42.9902
-43.2689
-37.0729
-37.4014
-37.4061
-37.2341
-36.3212
-36.8815
-36.8838
-39.5091
-27.0246
-23.1501
-24.6322
-26.9691
-67.2172
111.385
-82.9038
4.91593
-51.6541
-59.8628
-40.0379
-33.8496
-37.6289
-32.9754
-40.244
-38.4113
-69.4044
104.417
-47.7345
67.0179
-48.5683
-38.2409
-39.4371
-32.8285
-32.8118
-30.9529
-38.9487
-35.4182
-82.6791
7.38599
-67.2131
115.233
-51.6061
-60.1979
-37.6117
-32.9583
-39.9906
-33.8442
-40.2198
-38.4
-47.7622
67.2232
-69.4421
104.856
-48.4919
-38.2876
-32.8071
-30.9213
-39.3894
-32.808
-38.9253
-35.4204
-36.4992
-35.5667
-35.3518
-32.8977
-34.6498
-35.5827
-35.6165
-33.5361
-39.6809
-37.3775
-35.6978
-34.5288
-36.1085
-38.6076
-35.7143
-36.8664
-33.9973
-5.05438
-36.9318
-45.3077
-51.0398
-82.891
13.5132
-5.4005
-44.994
-50.4133
-42.4441
-41.902
-45.704
-54.6767
-60.0419
-54.27
-36.479
-35.75
-35.5033
-33.5569
-35.3507
-32.947
-34.6489
-35.5836
-39.6819
-37.1955
-35.7165
-36.9001
-35.6064
-34.5138
-35.9359
-38.6363
-33.9815
-4.77094
13.5707
-5.24862
-36.8777
-45.1491
-51.0488
-82.8436
-44.9835
-50.4429
-60.0309
-54.2828
-42.3867
-41.7241
-45.6215
-54.6225
-55.4736
-54.998
192.915
141.522
-63.4147
-63.5243
144.406
144.501
-46.6538
-36.2999
-52.2831
-39.9864
-40.0458
-40.1995
-31.7965
-31.1643
-36.9059
-36.9075
-28.5835
-28.7842
-41.0469
-40.7339
-37.3713
-37.5631
-36.5108
-36.5407
160.942
160.455
-34.5439
-44.0794
-26.4047
-5.27858
-34.6787
-34.6766
-25.8337
-25.8775
-40.5685
-44.6164
-40.6656
-36.953
-55.4733
-54.9727
141.08
192.994
-46.6685
-36.282
-52.2748
-40.0378
-40.162
-40.0229
-31.76
-31.1297
-41.0433
-40.7176
-37.3719
-37.5709
-44.1386
-34.4966
-5.36088
-26.4257
-44.6392
-40.5633
-36.9541
-40.6702
-37.4399
-36.6988
-34.3558
-34.0608
-35.6512
-34.9987
-38.6348
-43.0974
-36.7439
-36.7576
-33.0298
-33.0367
-37.8164
-40.8457
-41.1176
-42.2724
-34.7955
-34.7962
-37.3631
-37.2851
-43.1542
-45.3907
-92.4996
-70.3716
10.3136
10.2288
-76.7264
-76.742
-70.2907
-70.2846
-46.8487
-46.8508
-37.5028
-36.6392
-34.3562
-34.0572
-34.7955
-35.6005
-38.6461
-43.103
-40.758
-37.7048
-41.1382
-42.298
-45.4735
-43.2347
-70.355
-92.5156
-69.4011
-48.6941
-46.0143
-68.8508
-35.3375
-35.3532
-36.0635
-36.5455
-38.7053
-34.7158
-34.7295
-36.1857
-66.7461
-69.7631
-45.5671
-41.2615
-69.4449
-68.8156
-46.0271
-48.7096
-66.8451
-41.2985
-45.5912
-69.8078
-38.6653
-36.1516
-34.8769
-34.6672
-35.2298
-36.5623
-36.0256
-35.3535
-80.9611
-83.6798
-53.3591
-50.3748
-80.7779
-50.3471
-53.3582
-83.5859
-34.5928
-35.8255
-40.6906
-38.8999
-34.9892
-38.6478
-40.6838
-35.8536
-51.97
-28.9091
-24.3295
-47.96
3.74873
21.1322
-1.38003
-12.3534
3.56818
-12.3653
-1.43859
21.1147
-51.9398
-47.9739
-24.3229
-28.9442
26.5671
156.571
195.382
9.13094
52.2426
85.789
170.325
100.411
52.2647
100.295
170.202
85.6812
25.7615
11.3363
195.433
156.943
-34.362
-36.1114
-39.2485
-37.1553
-35.0945
-37.5155
-38.1174
-35.6703
-44.7576
-47.0692
-41.101
-40.5265
-50.4961
-41.5259
-43.2759
-50.1099
-34.4002
-37.1366
-39.3261
-36.1737
-50.187
-50.2215
-43.363
-41.4391
-44.7071
-40.4456
-41.0918
-47.1277
-34.9263
-35.6259
-38.0399
-37.3619
-33.3605
-33.7387
-34.4329
-34.4277
-33.4057
-34.4353
-34.4337
-33.744
-35.5338
-35.7464
-34.1306
-33.9955
-35.5372
-34.0062
-34.1319
-35.7441
-85.7212
-70.2517
-97.941
1.38002
-52.0163
-64.6576
-77.4953
-59.9691
-51.9708
-59.7977
-77.485
-64.6512
-84.8758
1.51859
-97.9495
-70.2617
-37.5603
-40.4684
-42.071
-39.0367
-40.7036
-39.5504
-41.1486
-40.1995
-38.6736
-40.0131
-40.9227
-39.517
-43.9279
-39.9617
-44.4752
-44.3818
-37.5038
-39.0763
-42.076
-40.4598
-43.7955
-44.4048
-44.4996
-39.9162
-38.6438
-39.4694
-40.9161
-40.012
-40.662
-40.2007
-41.131
-39.506
-36.5003
-37.1047
-37.2764
-37.4476
-36.5421
-37.4612
-37.2798
-37.1258
-39.0264
-36.4039
-37.2201
-38.5273
-39.1573
-38.5164
-37.218
-36.4102
-50.0688
-42.9577
-39.6863
-53.901
-33.3727
-33.1398
-36.5308
-37.3549
-33.3667
-37.3573
-36.533
-33.1375
-49.989
-53.8986
-39.6916
-42.9684
-34.4005
-30.0957
-26.5828
-33.5158
-34.3228
-33.5055
-26.5259
-30.072
-32.6757
-27.0217
-26.1793
-32.881
-32.6893
-32.8976
-26.2096
-27.0697
-64.1183
-114.281
-94.4497
-39.7226
-38.2059
-41.5153
-40.151
-37.7127
-61.4856
-35.8741
-33.2747
-36.2049
-114.021
-64.0916
-95.9296
-38.2008
-39.7009
-41.5079
-37.848
-39.8964
-61.5778
-33.2499
-35.8146
-36.1736
-33.2867
-33.4344
-33.4806
-33.919
-37.8215
-33.4091
-35.9589
-36.607
-50.3768
-50.7116
-56.7619
-56.59
-45.3981
-45.827
-46.7856
-47.375
-33.0681
-34.0078
-33.6138
-33.5238
-37.8274
-36.6056
-33.4071
-36.1032
-50.0038
-58.1742
-50.2617
-55.831
-45.3496
-47.3313
-45.8062
-46.7792
-24.6028
-33.6742
-71.1321
93.1031
-120.738
-120.688
-100.181
-67.3212
-44.1384
-39.003
-40.2091
-42.442
-35.9536
-34.5065
-38.23
-33.0714
-32.4004
-32.3932
-35.8477
-30.2238
-40.939
-39.7024
-42.9531
-39.7363
-82.7908
-82.8201
-56.6544
5.96188
-32.4305
-28.0197
-35.3736
-23.4131
-31.7741
-31.783
-33.8134
-27.2636
-39.905
-43.1381
-41.7541
-40.2159
-24.9794
-33.6778
-71.0746
92.8174
-44.1166
-39.0517
-40.2233
-42.4198
-35.9124
-34.4841
-38.1835
-33.0522
-40.9327
-39.7009
-42.9258
-39.7417
-32.455
-27.9206
-35.416
-23.4412
-39.9207
-43.1781
-41.7128
-40.2282
-34.2061
-34.3778
-35.2525
-33.8534
-36.6478
-38.3733
-36.6612
-38.2605
-34.6406
-34.6347
-35.234
-34.1787
-38.7579
-39.7195
-38.9655
-38.7856
-37.1162
-37.1204
-36.3859
-37.2936
-54.5314
-51.9111
-51.9284
-56.9837
33.8139
33.835
32.2746
23.8803
-59.654
-59.6526
-62.6694
-56.9676
-34.2882
-34.375
-35.3161
-33.8581
-36.5978
-38.2977
-36.6162
-38.1967
-38.6116
-39.5486
-38.8272
-38.6963
-54.6172
-52.0443
-52.0317
-57.0053
-41.5911
-38.921
-38.7634
-36.4936
-41.6108
-38.935
-38.7855
-36.5232
-49.6042
-46.1269
-46.1263
-43.3197
-17.7593
-11.6135
-11.6355
-5.80196
195.272
210.612
170.064
194.94
-39.7832
-40.9392
-40.1443
-41.7941
-39.9938
-41.0616
-40.2297
-42.0074
-33.7696
-33.7364
-33.9226
-33.7698
-88.0598
-94.1317
-82.9158
-88.0564
-41.566
-41.873
-42.7576
-42.7209
-41.5856
-41.8788
-42.7681
-42.7228
-37.226
-37.3226
-37.3252
-37.4094
-36.4003
-36.619
-36.6206
-37.8308
-25.543
-23.529
-24.9124
-25.5056
-49.0545
-41.9429
-72.3983
66.6918
-127.629
-126.244
-105.372
-75.7341
-63.995
-52.9163
-52.6976
-58.1084
-38.6567
-37.7241
-40.3249
-34.6293
-36.7957
-34.4614
-38.8599
-33.9001
-40.3803
-39.6378
-40.0262
-38.9748
-23.7893
-17.6787
-76.8051
72.7948
-65.6393
-73.6546
-58.0614
3.46373
-47.0311
-36.1609
-45.3589
-38.6312
-35.1694
-35.0271
-38.4538
-33.4622
-32.1372
-32.0235
-32.1817
-31.5572
-37.0594
-38.1896
-38.4583
-36.0181
-126.967
-126.082
-105.181
-72.6568
-48.9496
-42.0656
-72.2783
66.5005
-64.2914
-52.8662
-52.6584
-58.4522
-36.7605
-34.444
-38.8623
-33.8854
-38.6322
-37.696
-40.292
-34.6198
-40.3379
-39.6233
-39.99
-38.9578
-65.6254
-73.7607
-58.0453
3.88336
-23.6609
-17.2791
-76.8653
72.6521
-47.1103
-36.1831
-45.3091
-38.7259
-32.1259
-32.0075
-32.1739
-31.5342
-35.1404
-34.9989
-38.3995
-33.4403
-37.0308
-38.1932
-38.4479
-36.0194
-34.0584
-36.1664
-36.1534
-35.375
-33.4617
-34.566
-34.4535
-33.0039
-34.0954
-35.3791
-34.5666
-35.2165
-34.3359
-34.4963
-35.1409
-33.8673
-38.2638
-37.5001
-38.871
-37.2818
-34.707
-34.6035
-35.0873
-34.3736
-36.1096
-37.5876
-35.7286
-37.8549
-37.0165
-37.0085
-36.3638
-36.8108
-28.8067
-26.516
-32.6122
-13.7866
-44.1458
-40.7993
-39.4268
-44.2736
-58.1446
-57.1209
-54.2593
-66.5135
13.1375
28.456
20.4908
12.8344
-45.9777
-46.5012
-45.8939
-50.1596
-42.8998
-41.2638
-42.2335
-41.5481
-48.2172
-50.3156
-48.0154
-51.1218
-52.6078
-58.5568
-58.1873
-56.4322
-33.5949
-36.3122
-36.1762
-35.7779
-34.3235
-34.4812
-35.1024
-33.8714
-33.5792
-34.4926
-34.4255
-33.0013
-34.0736
-35.327
-34.6517
-35.1947
-38.2353
-37.4733
-38.8497
-37.1276
-37.0317
-37.0203
-36.371
-36.8327
-34.6447
-34.5382
-34.9979
-34.345
-36.0912
-37.4994
-35.5518
-37.8541
-28.868
-26.4886
-32.6159
-13.7654
12.9744
28.5802
20.5874
12.9443
-43.9315
-40.6778
-39.3163
-44.0809
-58.0505
-57.2224
-54.2674
-66.6032
-45.941
-46.5433
-45.911
-50.1765
-52.5857
-58.5628
-58.1731
-56.4379
-42.9281
-41.1662
-42.2011
-41.4527
-48.1726
-50.2284
-47.9156
-51.0405
-63.2262
-49.9029
-55.73
-55.5398
176.496
190.745
198.104
157.75
-71.307
-58.1316
-63.4343
-63.4675
93.2886
172.89
142.682
142.679
-39.2112
-39.0779
-41.8296
-37.0953
-44.4081
-45.5868
-48.034
-42.3278
-40.0769
-40.3987
-40.1038
-40.2741
-32.4525
-29.4421
-31.5195
-31.3081
-36.4382
-36.9286
-36.7266
-36.7275
-27.0589
-23.7729
-26.3384
-26.3106
-41.9318
-42.2611
-42.2347
-41.4731
-38.0169
-37.5331
-37.777
-37.7429
-41.4776
-30.6645
-36.4881
-36.488
133.967
173.911
155.573
155.416
-38.1621
-38.8492
-36.1667
-41.6418
-17.5236
-13.9227
-20.7426
-10.5483
-33.7027
-35.5528
-34.6047
-34.6049
-23.629
-24.5872
-24.5904
-24.6063
-42.0291
-42.3639
-41.1883
-43.5624
-38.4958
-37.3293
-38.8338
-37.4534
-63.2002
-49.9272
-55.7262
-55.5196
176.318
191.471
158.734
198.184
-39.2258
-39.0931
-41.8357
-37.1116
-44.4078
-45.5898
-48.0307
-42.2612
-40.0332
-40.3946
-40.2358
-40.0782
-32.4289
-29.3921
-31.4795
-31.2736
-41.9161
-42.273
-42.2034
-41.5064
-38.033
-37.5402
-37.7837
-37.7528
-38.2453
-38.8816
-41.6941
-36.1724
-17.5552
-13.9609
-10.6068
-20.7677
-42.0407
-42.3713
-43.5741
-41.192
-38.4977
-37.3338
-37.4564
-38.851
-36.7678
-38.2302
-37.5468
-37.0143
-33.7015
-33.7372
-33.6874
-33.851
-35.5149
-35.1445
-35.4022
-35.0195
-39.8561
-41.1453
-39.5755
-41.7986
-36.1675
-38.7681
-36.8434
-36.8508
-33.4943
-34.4837
-33.0717
-33.0749
-39.1983
-39.3226
-38.4663
-39.9452
-40.7664
-42.452
-41.3637
-41.7595
-35.2538
-34.4487
-34.8114
-34.8117
-37.3425
-37.1906
-37.3329
-37.297
-48.9737
-45.1341
-44.3715
-46.0832
-71.1254
-83.9884
-85.1123
-72.9959
17.1458
5.95508
11.6499
11.6168
-41.1093
-97.1628
-77.1361
-77.1457
-69.21
-76.2284
-71.405
-71.4023
-50.1298
-42.2453
-46.1654
-46.145
-36.8901
-38.4168
-37.6377
-37.0787
-33.7019
-33.7371
-33.6884
-33.849
-35.509
-34.9335
-34.7743
-35.3354
-39.8333
-41.1911
-39.5849
-41.8054
-39.0897
-39.2394
-39.8534
-38.3576
-40.8038
-42.4716
-41.3844
-41.7794
-49.1337
-45.2922
-46.2124
-44.5283
-71.1413
-83.9914
-72.9856
-85.1572
-59.5102
-51.9996
-54.5008
-50.0696
-36.3862
-36.0206
-36.1499
-35.7295
-34.2854
-35.2045
-34.4249
-34.9197
-59.2387
-50.5958
-54.0426
-46.5825
-59.5959
-51.953
-54.471
-50.0603
-59.2145
-50.5613
-54.0316
-46.637
-34.2539
-35.1922
-34.355
-34.822
-36.3628
-35.8722
-36.092
-35.6838
-69.798
-61.477
-63.2524
-57.1826
-70.1513
-61.7668
-63.4773
-57.1894
-35.9846
-35.6338
-38.057
-36.5341
-35.9186
-35.7603
-38.0204
-36.5531
-42.1548
-37.3989
-36.6731
-31.9795
-0.0868525
9.46004
-0.262643
8.01309
-0.0901246
8.54178
-0.384511
7.83968
-42.1643
-37.4215
-36.7035
-32.002
133.451
88.454
174.088
145.492
118.222
113.558
144.47
149.149
113.625
118.231
148.849
144.019
88.3839
133.28
145.524
174.136
-35.9295
-36.4307
-37.4382
-37.767
-35.8397
-36.4669
-36.64
-37.3206
-42.6764
-44.1819
-41.78
-43.3944
-45.781
-48.472
-44.5875
-46.4084
-35.9412
-36.4376
-37.4763
-37.7809
-45.7039
-48.4857
-44.593
-46.477
-42.5986
-44.1081
-41.6993
-43.3027
-35.7236
-36.3401
-36.544
-37.2098
-32.9352
-33.3014
-34.3961
-32.9938
-33.3562
-33.0293
-33.0117
-34.3994
-35.1574
-34.6208
-34.7569
-34.3386
-34.6285
-35.1588
-34.3429
-34.7586
-104.243
-36.5575
-99.5697
-74.7911
-58.8393
-61.8762
-66.9794
-68.1038
-61.8562
-58.8153
-68.0926
-66.9559
-36.4036
-104.451
-74.7886
-99.6394
-40.2669
-39.8222
-40.5647
-40.7621
-40.0999
-40.3757
-40.0192
-40.3402
-39.3534
-39.361
-39.9258
-40.0664
-44.1343
-42.831
-44.3804
-43.0336
-40.2696
-39.8378
-40.5664
-40.7774
-44.1572
-42.8253
-44.426
-43.0642
-39.3135
-39.3368
-39.8941
-40.0506
-40.0561
-40.3554
-39.9976
-40.329
-37.3101
-37.1125
-37.2909
-37.3621
-37.149
-37.178
-37.1652
-37.2515
-37.5692
-37.9174
-37.1655
-37.5976
-37.5761
-37.9289
-37.168
-37.5992
-49.0682
-51.6564
-43.5876
-46.8248
-33.7998
-35.1334
-34.7485
-35.9964
-33.7979
-35.1339
-34.7479
-35.9966
-49.0874
-51.6648
-43.5966
-46.8253
-33.4393
-32.6963
-32.1993
-30.9675
-32.6765
-33.4271
-30.9451
-32.1704
-30.8112
-32.1707
-28.8889
-30.9723
-32.1978
-30.8485
-31.0088
-28.9448
-78.7399
6.29499
-106.017
-59.2722
-74.226
-78.8672
-40.7478
-35.4113
-41.4182
-35.6693
-41.2009
-40.3333
-74.7048
47.5057
-64.9487
-5.03394
-59.8644
-53.4831
-38.3303
-33.5193
-32.4872
-32.5294
-37.8382
-34.2944
-105.672
-59.1811
-78.4869
6.11344
-74.5082
-78.6182
-41.3725
-35.456
-40.7134
-35.3953
-41.1623
-40.1012
-64.9445
-5.76888
-74.7678
47.4737
-59.9734
-53.2794
-32.4739
-32.5206
-38.2619
-33.4897
-37.8276
-34.2834
-34.8013
-34.479
-33.7377
-33.382
-33.1032
-33.9849
-34.5418
-33.641
-37.1699
-36.7754
-34.4721
-34.9029
-32.7509
-38.3906
-36.8238
-36.5378
-39.6872
-9.28839
-43.1865
-49.2249
-54.6716
-76.2519
5.13084
-39.6491
-45.0913
-45.7457
-44.2284
-43.6726
-46.8687
-49.1051
-50.8764
-48.2231
-34.5183
-33.8654
-34.5336
-33.6857
-33.8469
-33.4713
-33.1032
-34.0278
-37.1052
-36.8075
-36.8294
-36.5619
-34.3427
-34.8913
-32.2761
-38.8362
-39.6504
-9.81199
4.4847
-40.5247
-43.0629
-48.8016
-54.1082
-76.0927
-45.0487
-45.7208
-50.838
-48.2269
-44.1999
-43.4524
-46.8388
-49.0489
-72.1166
95.6772
-77.0326
64.4917
-69.5047
-68.9526
164.687
131.401
-103.187
-90.9686
-103.074
-94.9554
-83.5539
-83.5381
17.7138
15.6158
-49.5301
-49.1571
-37.0326
-38.0738
-42.8949
-37.5293
-46.5902
-40.981
-39.5509
-34.0071
-38.6492
-33.3309
-39.5082
-39.3283
-33.1955
-32.8865
-36.5691
-31.349
-36.6057
-31.331
-36.025
-36.0278
-28.8382
-28.8251
-39.5686
-39.2455
-39.857
-37.227
-42.1578
-40.6005
-38.3255
-38.3571
-55.2359
12.5166
-55.2595
12.8791
-47.8556
-47.9021
79.1277
79.2275
-39.3167
-30.3134
-32.7006
-17.8715
-35.3988
-38.9774
-24.5453
-16.1606
-33.0942
-29.2263
-33.0924
-29.1858
-33.3226
-33.3216
-25.115
-25.1371
-39.6245
-37.7358
-44.8194
-45.9001
-40.8785
-43.1194
-40.6325
-38.2482
-72.0109
95.0018
-76.9594
63.8885
-69.4783
-68.9768
131.998
165.011
-49.5352
-49.1188
-37.0673
-38.2324
-42.8973
-37.5661
-46.5226
-40.9587
-39.5113
-33.9928
-38.6028
-33.3111
-39.2886
-39.4687
-33.1823
-32.8698
-39.5629
-39.2491
-39.8763
-37.2381
-42.1773
-40.5591
-38.3384
-38.3665
-39.3402
-30.3543
-32.6721
-17.8652
-39.0238
-35.3712
-16.1908
-24.5682
-39.6285
-37.7448
-44.8445
-45.8957
-43.1261
-40.8823
-38.2492
-40.6377
-35.2777
-34.6178
-35.0651
-34.0294
-36.062
-35.9063
-33.6706
-33.8406
-35.6419
-36.4271
-37.8111
-40.5367
-35.5926
-36.0359
-38.0605
-40.2252
-35.1989
-34.1232
-35.179
-34.1246
-35.8791
-35.8919
-33.7704
-33.772
-37.0322
-38.4162
-40.3936
-40.005
-38.2087
-39.7402
-39.1382
-39.5161
-36.3559
-37.1948
-36.3609
-37.2085
-35.7591
-35.7578
-37.1679
-37.1781
-53.338
-61.3912
-49.6628
-55.5669
-48.1029
-50.6888
-66.4632
-61.1989
28.2889
22.4805
28.644
22.408
22.8019
22.7886
1.3573
1.39821
-61.8658
-56.7067
-61.8607
-56.706
-65.5866
-65.5846
-53.6941
-53.6809
-35.3409
-34.6516
-35.0072
-34.0091
-36.1351
-36.0043
-33.6791
-33.8366
-35.6181
-36.3912
-37.7383
-40.4356
-36.0133
-35.5825
-38.0262
-40.1626
-36.7593
-38.487
-40.3233
-39.8063
-39.6367
-38.0719
-39.1755
-39.525
-53.4303
-61.4235
-49.6339
-55.5054
-50.796
-48.4243
-61.3012
-66.469
-45.8351
-45.5826
-41.5694
-36.7138
-36.3827
-41.9158
-35.7762
-35.1215
-45.8526
-45.6062
-41.5858
-36.7311
-41.9336
-36.4453
-35.2588
-35.7853
-53.5528
-53.5528
-49.3081
-43.118
-49.3064
-43.1234
-40.8122
-40.8115
-23.8788
-23.8696
-18.4909
-6.87295
-6.91907
-18.4948
-0.419385
-0.449291
200.257
164.754