# vtk DataFile Version 2.0
tri_press
ASCII
DATASET UNSTRUCTURED_GRID
POINTS 3682 float
-0.845 0.115 -2.01999
-0.659498 0.095 2.045
-0.795 0.685 -1.82031
-0.745 0.878954 2.215
0.845 0.115 -2.01999
0.659498 0.095 2.045
0.795 0.685 -1.82031
0.745 0.878954 2.215
-0.778403 0.113096 -0.664993
-0.709769 0.113229 0.690004
-0.758543 0.729861 -0.475207
-0.791875 0.844511 0.869897
0.778404 0.113095 -0.664993
0.70977 0.113229 0.690004
0.758556 0.729874 -0.475207
0.791874 0.84451 0.869897
-1.6235 -0.229176 -3.19425
-1.61725 -0.206981 -2.11421
-1.55996 -0.210667 -0.758957
-1.483 -0.229619 0.598286
-1.42491 -0.24962 1.95371
-1.4146 -0.239884 3.03456
-1.41825 -0.216202 4.1139
-1.62359 0.0785358 -3.09796
-1.6185 0.10593 -2.01901
-1.55528 0.117305 -0.66568
-1.47803 0.127364 0.688538
-1.4119 0.117563 2.04206
-1.40395 0.128177 3.12277
-1.4109 0.149919 4.20243
-1.60136 0.674517 -2.90262
-1.584 0.697836 -1.82326
-1.54451 0.749583 -0.476672
-1.53223 0.843854 0.86921
-1.47595 0.877633 2.21598
-1.43774 0.884188 3.29711
-1.42466 0.89452 4.37836
-1.56883 1.61695 -2.61704
-1.55697 1.65436 -1.53916
-1.53928 1.74133 -0.195785
-1.53044 1.85739 1.14546
-1.51305 1.93767 2.48894
-1.48757 1.96784 3.56703
-1.46424 1.98354 4.64721
-0.830882 -0.223366 -3.19488
-0.834868 -0.198833 -2.11514
-0.792823 -0.211419 -0.758833
-0.739303 -0.240502 0.599537
-0.699399 -0.267066 1.95589
-0.686915 -0.252454 3.03605
-0.686054 -0.224175 4.11476
-0.831574 0.0818549 -3.09816
-0.669319 0.117238 3.124
-0.676293 0.143235 4.20308
-0.813311 0.669175 -2.90139
-0.69514 0.882531 3.29691
-0.683691 0.89265 4.37832
-0.788515 1.60841 -2.61583
-0.780547 1.64381 -1.53783
-0.767411 1.7336 -0.194982
-0.766452 1.85928 1.14536
-0.759824 1.94338 2.48825
-0.737971 1.9724 3.56635
-0.716013 1.9864 4.64671
0.791653 -0.223365 -3.19488
0.802065 -0.198832 -2.11514
0.758613 -0.211419 -0.758833
0.70515 -0.240502 0.599537
0.676638 -0.267066 1.95589
0.721525 -0.252454 3.03605
0.755166 -0.224175 4.11476
0.799838 0.0818561 -3.09816
0.734866 0.117238 3.124
0.765656 0.143235 4.20308
0.788315 0.669176 -2.9014
0.764064 0.882532 3.29691
0.779199 0.89265 4.37832
0.779274 1.60841 -2.61583
0.778564 1.64382 -1.53783
0.778388 1.7336 -0.194982
0.770581 1.85929 1.14536
0.75747 1.94338 2.48825
0.764301 1.9724 3.56635
0.778516 1.98641 4.64671
1.59089 -0.229173 -3.19425
1.59722 -0.206977 -2.11421
1.53976 -0.210665 -0.758957
1.46047 -0.229619 0.598286
1.41348 -0.24962 1.95371
1.44331 -0.239884 3.03456
1.48035 -0.216201 4.1139
1.60204 0.0785396 -3.09796
1.62015 0.105935 -2.01901
1.55703 0.117309 -0.66568
1.47593 0.127364 0.688538
1.41597 0.117563 2.04206
1.45242 0.128177 3.12277
1.48953 0.14992 4.20243
1.58827 0.674522 -2.90262
1.59078 0.697843 -1.82326
1.55256 0.749595 -0.476672
1.53551 0.843855 0.86921
1.48301 0.877633 2.21598
1.49093 0.884188 3.29711
1.51016 0.89452 4.37836
1.56377 1.61696 -2.61704
1.56006 1.65437 -1.53916
1.55212 1.74134 -0.195785
1.53805 1.8574 1.14546
1.51848 1.93767 2.48894
1.51754 1.96785 3.56703
1.52686 1.98354 4.64721
-0.781938 0.4 -1.88209
0 0.111083 -2.02391
-0.812725 0.113024 -1.34249
-0.728802 0.486977 2.15655
0 0.186241 1.95376
-0.6875 0.101248 1.3675
0 0.783396 -1.91871
-0.843436 0.774095 -1.14776
0 0.878631 2.21468
-0.783244 0.876539 1.54245
0.781939 0.4 -1.88209
0.812726 0.113024 -1.34249
0.72881 0.486977 2.15656
0.687499 0.10125 1.3675
0.843443 0.774102 -1.14776
0.783214 0.876509 1.54245
-0.744075 0.113174 0.0125051
-0.841191 0.421478 -0.5701
4.10109e-07 0.110628 -0.664993
-0.886596 0.47887 0.77995
2.12051e-07 0.110872 0.690004
-0.786463 0.79844 0.197345
6.5051e-06 1.21964 -0.475207
-4.24103e-07 1.3182 0.869897
0.744076 0.113173 0.0125051
0.841193 0.421485 -0.5701
0.886595 0.478869 0.77995
0.786467 0.798444 0.197345
-0.879307 0.410739 -1.24513
0.879305 0.410742 -1.24513
2.05054e-07 0.110503 -1.34249
3.25255e-06 0.888226 -1.14776
0 0.4 -2.1244
-0.768771 0.450174 0.104925
0.768796 0.450177 0.104925
3.1108e-07 0.11075 0.0125051
3.0405e-06 1.36471 0.197345
-0.89816 0.482923 1.45498
0.898159 0.482923 1.45498
1.06026e-07 0.15939 1.3675
-2.12051e-07 0.958596 1.54245
0 0.486977 2.24378
-0.780869 0.2575 -1.91844
-0.4225 0.111089 -2.0239
-0.82989 0.112985 -1.68124
-0.699771 0.290988 2.1064
-0.329749 0.191841 1.94816
-0.672208 0.0994147 1.70625
-0.777095 0.5425 -1.83983
-0.3975 0.725126 -1.86044
-0.81855 0.728879 -1.48403
-0.747985 0.682965 2.19686
-0.3725 0.87877 2.21482
-0.772544 0.886168 1.87872
0.4225 0.111096 -2.02389
0.780889 0.2575 -1.91846
0.82989 0.112985 -1.68124
0.329749 0.192059 1.94794
0.699772 0.290988 2.1064
0.672342 0.099281 1.70625
0.3975 0.725146 -1.86046
0.776784 0.5425 -1.83951
0.818458 0.728788 -1.48403
0.3725 0.878782 2.21483
0.747986 0.682965 2.19686
0.772513 0.886137 1.87872
-0.795561 0.113064 -1.00374
-0.76124 0.113134 -0.326244
-0.886033 0.229169 -0.617547
-0.389164 0.111937 -0.664993
-0.697874 0.107999 1.02875
-0.726908 0.113216 0.351254
-0.899018 0.245632 0.734977
-0.354803 0.112214 0.690004
-0.796049 0.747038 -0.811483
-0.799666 0.575569 -0.522653
-0.756687 0.748335 -0.138931
-0.469484 1.15518 -0.475207
-0.787976 0.860942 1.20617
-0.874728 0.679436 0.824923
-0.795994 0.8283 0.533621
-0.506893 1.30327 0.869897
0.795561 0.113064 -1.00374
0.389165 0.111937 -0.664993
0.76124 0.113134 -0.326244
0.886037 0.229171 -0.617547
0.697093 0.108781 1.02875
0.354803 0.112214 0.690004
0.72691 0.113214 0.351254
0.899017 0.245632 0.734977
0.796058 0.747046 -0.811483
0.469481 1.15516 -0.475207
0.799669 0.575577 -0.522653
0.756659 0.748306 -0.138931
0.787979 0.860945 1.20617
0.506889 1.30326 0.869897
0.874734 0.679439 0.824923
0.796002 0.828308 0.533621
-0.878205 0.40537 -1.56361
-0.390969 0.4 -2.1191
1.02527e-07 0.110439 -1.6832
0 0.255541 -2.18255
-0.880619 0.261882 -1.29381
-0.406363 0.110518 -1.34249
-0.893105 0.48495 1.80576
-0.364401 0.486977 2.24421
5.30128e-08 0.180288 1.66063
0 0.336609 2.2436
-0.843636 0.292086 1.41124
-0.34375 0.144938 1.3675
1.62628e-06 0.840491 -1.53323
0 0.591698 -2.04017
-0.877469 0.592417 -1.19644
-0.421716 0.895669 -1.14776
-1.06026e-07 0.938573 1.87856
0 0.682804 2.17957
-0.895795 0.679731 1.49871
-0.391622 0.95845 1.54245
0.878205 0.405371 -1.56361
0.390969 0.4 -2.11943
0.880624 0.261883 -1.29381
0.406363 0.110518 -1.34249
0.893106 0.48495 1.80577
0.364405 0.486977 2.24421
0.843634 0.292086 1.41124
0.343749 0.144963 1.3675
0.877469 0.592422 -1.19644
0.421723 0.895617 -1.14776
0.895794 0.679716 1.49871
0.391607 0.95845 1.54245
-0.892481 0.213645 0.058715
-0.371981 0.112075 0.0125051
-0.878356 0.416109 -0.907613
-0.840788 0.435826 -0.232588
3.07581e-07 0.110567 -1.00374
3.60594e-07 0.110689 -0.326244
-0.772962 0.464522 0.442438
-0.898062 0.480897 1.11746
2.61566e-07 0.110811 0.351254
1.59038e-07 0.131972 1.02875
-0.746172 0.608585 0.151135
-0.505191 1.30549 0.197345
4.87883e-06 1.05056 -0.811483
4.7728e-06 1.34303 -0.138931
1.3082e-06 1.35138 0.533621
-3.18077e-07 1.14898 1.20617
0.892483 0.213652 0.058715
0.371981 0.112074 0.0125051
0.878359 0.416113 -0.907613
0.840791 0.435831 -0.232588
0.773112 0.464523 0.442438
0.898059 0.480896 1.11746
0.746133 0.608561 0.151135
0.505194 1.30549 0.197345
-0.879466 0.259691 -1.62242
-0.880709 0.264584 -0.955678
-0.854595 0.584043 -0.859548
-0.876611 0.567459 -1.52382
0.879469 0.259692 -1.62242
0.876611 0.567461 -1.52382
0.85451 0.584051 -0.859548
0.88071 0.264586 -0.955678
-0.414431 0.110456 -1.68222
0.414432 0.110456 -1.68222
0.397783 0.110579 -1.00374
-0.397782 0.11058 -1.00374
-0.409608 0.843823 -1.50863
-0.400492 1.00851 -0.811483
0.400502 1.00849 -0.811483
0.409611 0.843823 -1.50863
-0.406735 0.256521 -2.09787
-0.394235 0.567099 -1.98997
0.394235 0.567099 -1.99006
0.406735 0.256521 -2.09796
-0.889253 0.221409 -0.279416
-0.895749 0.229639 0.396846
-0.749997 0.613784 0.488029
-0.748887 0.580061 -0.185759
0.889256 0.221413 -0.279416
0.748862 0.580049 -0.185759
0.750004 0.613786 0.488029
0.89575 0.229642 0.396846
-0.380573 0.112006 -0.326244
0.380573 0.112006 -0.326244
0.363392 0.112144 0.351254
-0.363392 0.112144 0.351254
-0.516846 1.28935 -0.138931
-0.506153 1.3046 0.533621
0.50615 1.30459 0.533621
0.516205 1.28806 -0.138931
-0.852575 0.294068 1.07311
-0.835191 0.291537 1.75601
-0.857248 0.681348 1.84224
-0.896048 0.670711 1.16182
0.852583 0.294068 1.07311
0.896048 0.670703 1.16182
0.85725 0.681341 1.84225
0.835194 0.291537 1.75601
-0.349317 0.13197 1.02875
0.349317 0.13197 1.02875
0.336749 0.14908 1.68344
-0.33675 0.149049 1.68344
-0.39378 1.16239 1.20617
-0.382061 0.958198 1.87864
0.382054 0.958206 1.87864
0.393772 1.16264 1.20617
-0.347075 0.313799 2.2436
0.347077 0.313799 2.2436
0.368452 0.682885 2.25819
-0.368451 0.682885 2.25819
-0.765656 0.18625 -1.92194
-0.63375 0.111099 -2.02389
-0.838419 0.113019 -1.85062
-0.680344 0.192994 2.07641
-0.494623 0.140604 1.9994
-0.663793 0.0992677 1.87563
-0.796671 0.61375 -1.84069
-0.59625 0.681836 -1.81715
-0.796878 0.697043 -1.65217
-0.757605 0.78096 2.21704
-0.55875 0.878766 2.21481
-0.765643 0.889432 2.04686
0.63375 0.111099 -2.02389
0.765581 0.18625 -1.92186
0.838419 0.113019 -1.85062
0.494623 0.141132 1.99887
0.680351 0.192994 2.07642
0.664033 0.0990276 1.87563
0.59625 0.681838 -1.81715
0.796869 0.61375 -1.84089
0.79685 0.697015 -1.65217
0.55875 0.878785 2.21483
0.757446 0.78096 2.21688
0.765524 0.889313 2.04686
-0.786979 0.113083 -0.834368
-0.769821 0.113116 -0.495619
-0.885938 0.144273 -0.64127
-0.583791 0.112502 -0.664993
-0.692723 0.121713 0.859378
-0.718324 0.113237 0.520629
-0.898634 0.13231 0.71249
-0.532288 0.112718 0.690004
-0.779631 0.740784 -0.643345
-0.778972 0.652649 -0.49893
-0.757472 0.738955 -0.307069
-0.66007 1.03463 -0.475207
-0.792927 0.855728 1.03803
-0.843538 0.767092 0.84741
-0.787135 0.829606 0.701759
-0.64103 1.05718 0.869897
0.78698 0.113082 -0.834368
0.583791 0.112502 -0.664993
0.769822 0.113115 -0.495619
0.885942 0.144272 -0.64127
0.696019 0.118417 0.859378
0.532288 0.112718 0.690004
0.718325 0.113236 0.520629
0.898634 0.13231 0.71249
0.779556 0.740709 -0.643345
0.66008 1.03464 -0.475207
0.778975 0.652656 -0.49893
[...]
POINT_DATA 3682
SCALARS point_scalars float 1
LOOKUP_TABLE default
-75.8277
-44.5024
-81.2587
-41.0729
-74.8439
-44.5238
-81.4895
-41.0166
-37.5004
-40.6988
-47.6244
-48.119
-37.4531
-40.6178
-47.5804
-48.1381
-75.8277
-119.182
-41.2568
-38.1904
-49.4578
-38.3985
-34.893
-75.8277
-138.856
-39.1024
-40.6332
-49.3444
-34.893
-34.877
34.7086
-137.25
-42.4145
-44.4722
-42.193
-41.8152
-36.793
-69.7716
-64.2908
-83.7869
-55.0559
-40.9356
-41.2675
-39.2167
86.2307
-75.8277
-38.6967
-39.2137
-42.8023
-38.3985
-33.8291
86.2307
-33.6233
-34.0589
155.037
-35.6786
-35.6786
-27.8678
-41.9234
-102.583
-59.2714
-39.7154
-40.0278
-36.4261
86.3497
-78.5247
-38.6144
-39.113
-42.8971
-38.4272
-33.8074
86.3497
-34.0703
-34.0703
155.237
-35.6872
-35.6872
-27.712
-42.0446
-101.558
-59.7178
-39.6291
-40.002
-36.4282
-74.8439
-109.988
-41.1923
-38.1445
-49.4268
-38.4272
-34.9027
-74.8439
-133.533
-39.0907
-40.585
-49.3641
-34.9027
-34.8856
38.8427
-137.68
-42.3188
-44.3673
-42.1752
-41.8117
-37.2857
-69.9978
-64.329
-82.0326
-55.0954
-40.8292
-41.2161
-40.4991
-12.0366
-121.544
-55.3271
-37.4764
-38.7395
-37.8953
-97.4647
-68.331
-36.9575
-48.9321
-11.8066
-55.1815
-37.4776
-37.8668
-68.1769
-46.7891
-35.1097
-41.7384
-38.4332
-43.2259
-40.1944
-39.9171
-20.078
-59.0142
-35.069
-41.7658
-43.1169
-40.0207
-63.2162
-63.2028
-52.3337
-0.613212
192.024
-32.4594
-32.4225
-36.293
-86.015
-44.3516
-44.3221
-39.5167
-43.5585
-24.5265
-29.1691
-188.164
-82.4804
-39.5405
-39.2585
-44.6989
-9.54871
-7.48741
-65.111
-38.4642
-36.1589
-43.0522
-187.958
-27.3729
-87.9653
-39.2847
-39.5444
-44.7112
-7.47875
-9.44212
-65.3275
-36.1628
-38.4636
-42.7509
-41.4563
-35.0083
-40.2265
-38.5633
-38.8452
-36.3758
-42.835
-39.6854
-55.0395
-43.2221
-43.5221
-35.959
-49.2462
-43.1558
-49.7272
-58.2436
-41.3838
-38.5377
-35
-40.2489
-38.8634
-39.6724
-36.3491
-42.7889
-55.0603
-36.1489
-43.2236
-43.3487
-49.1647
-58.2404
-43.1178
-49.8184
-97.4177
167.933
-72.8831
206.271
-62.2975
-53.9642
-50.8281
-31.3037
-40.0898
-23.9925
-40.4763
-38.6576
-34.8074
130.997
-64.0014
-17.1677
-41.066
-26.7018
-47.4675
-45.0514
-97.7018
167.796
-62.2534
-53.9779
-50.8711
-31.3258
-40.4838
-38.6698
-63.9511
-17.1471
-47.3661
-45.0104
-33.383
-36.2031
-52.2235
-43.021
-43.2528
-36.4002
-28.0121
-43.292
-37.3857
-40.9653
-33.1387
-70.8863
17.4257
-96.3774
-71.0563
-47.0755
-33.3365
-36.1824
-52.184
-43.0072
-28.0507
-43.2155
-33.2119
-70.8927
-105.206
-48.8078
-53.8902
-93.2712
-106.068
-93.2097
-53.868
-48.7699
-79.335
-79.4622
-43.6791
-43.7037
-46.9509
-3.28321
-3.19232
-46.972
156.081
74.7789
74.7913
156.035
-36.875
-32.9904
-26.1262
-41.1795
-36.9333
-41.0139
-26.1833
-32.9752
-36.3583
-36.3372
-37.2607
-37.2807
-98.7887
-60.7831
-60.7719
-97.8791
-39.384
-48.6296
-48.5184
-44.9538
-39.3419
-44.8323
-48.6092
-48.6199
-41.3176
-41.3413
-40.3406
-40.3251
-48.6992
-40.8213
-40.8448
-48.6776
-31.2524
-31.2791
-33.3338
-33.3277
-62.7409
-139.253
-119.333
-43.3726
-39.3206
-36.891
-31.879
22.7764
-94.0546
-40.1377
-36.4919
-41.5457
-135.876
-60.3506
-110.152
-39.3947
-43.3893
-36.9151
22.4745
-31.8145
-93.5504
-36.4805
-40.1407
-41.4331
-38.6955
-35.8991
-39.0422
-38.0953
-40.3947
-38.1232
-42.8634
-39.6071
-52.5609
-45.1237
-46.2015
-72.7064
-51.2179
-46.5876
-48.7311
-51.9362
-38.6376
-38.0605
-35.8648
-39.0043
-40.559
-39.5606
-38.075
-42.7948
-52.5079
-72.6558
-45.1009
-46.1787
-51.2054
-51.9059
-46.5804
-48.7944
-15.435
-6.29359
-155.063
126.53
-130.48
-130.489
-94.0091
157.294
-67.7118
-47.3666
-61.6692
-53.8601
-38.1553
-37.4518
-45.3777
-33.7082
-39.1712
-39.1855
-38.2854
-27.4422
-39.0582
-37.1966
-38.8981
-38.4094
-67.4584
-67.4865
-60.9881
64.2035
-58.5407
-64.1553
-67.8569
-37.4222
-36.5847
-36.5806
-39.0745
-31.404
-42.0558
-49.3388
-48.9752
-45.756
-14.7033
-6.11496
-155.488
126.648
-67.5377
-47.2565
-61.4982
-53.8601
-38.1569
-37.4551
-45.3702
-33.7198
-39.1799
-37.1613
-38.8973
-38.3948
-58.5264
-64.2333
-67.7838
-37.0209
-44.917
-49.0281
-48.777
-45.7354
-34.8001
-35.6784
-33.3793
-35.8713
-41.1742
-42.1715
-46.2932
-40.3926
-38.5268
-38.5111
-40.3428
-37.2114
-41.7025
-42.5989
-24.1331
-44.471
-40.0573
-40.0439
-38.591
-42.8422
-39.9234
-46.3145
-33.3135
-56.2738
-19.9694
-19.9929
5.5333
-77.4933
-59.3663
-59.3628
-64.4169
-53.3872
-34.7582
-35.6515
-33.3449
-35.835
-41.2077
-42.1896
-46.2741
-40.4666
-41.6792
-42.4501
-24.138
-44.3938
-39.9973
-46.4186
-33.422
-56.2396
-74.542
-63.0474
-63.2594
-55.721
-74.5958
-63.0358
-63.2286
-55.6898
-60.0845
-52.9801
-52.9852
-46.943
-17.8207
-4.66495
-4.81318
13.4803
191.713
203.165
169.84
191.901
-32.546
-36.4343
-30.1472
-32.6151
-32.6974
-36.4929
-30.1285
-32.6424
-36.2849
-36.1026
-36.6962
-36.2738
-82.9037
-102.859
-77.7467
-82.8949
-47.0783
-42.4121
-45.7956
-43.155
-47.0935
-42.4097
-45.7491
-43.0969
-40.0347
-39.0299
-39.1024
-39.2699
-42.9794
-44.0359
-43.9696
-44.7064
-26.4388
-22.9927
-26.6921
-26.4558
-139.048
141.162
-109.714
105.39
-98.4391
-81.1264
-47.223
-35.0984
-41.1444
-32.5835
-49.675
-40.1718
-140.93
95.4227
-78.4071
68.8962
-83.2083
-61.2713
-43.5766
-34.7118
-38.1512
-34.8088
-46.3644
-41.2935
-109.855
106.071
-139.939
141.574
-112.213
-81.5062
-41.472
-32.5887
-47.2246
-35.0932
-49.6511
-40.2437
-78.4245
68.9527
-141.244
95.5008
-83.0345
-61.3893
-38.182
-34.8114
-43.5605
-34.7173
-46.1853
-41.3242
-47.4604
-43.2662
-34.5906
-35.8212
-44.4873
-38.0849
-40.707
-37.1534
-38.2537
-40.0093
-34.4881
-36.9821
-35.5171
-44.8581
-38.42
-42.271
-53.7083
-31.1354
-47.4124
-42.6884
-40.5491
-62.9016
-15.5106
-63.8419
-45.5793
-53.2132
-40.01
-44.6433
-40.9031
-52.7468
-59.028
-58.7511
-47.4058
-43.2267
-40.679
-37.1314
-34.5973
-35.8022
-44.4804
-38.13
-38.2125
-40.1392
-38.3999
-42.289
-34.4456
-36.9629
-35.4946
-44.7999
-53.7098
-31.1629
-15.4744
-64.0432
-47.4
-42.7643
-40.6664
-62.8269
-45.4497
-53.1613
-59.0191
-57.9837
-40.0064
-44.5064
-41.0795
-52.7417
-100.042
-95.1519
169.415
127.201
-75.1168
-75.1624
186.989
187.257
-75.5367
-53.8476
-63.2503
-47.8117
-49.8816
-50.5574
-30.874
-32.1257
-40.9814
-41.1026
-26.4276
-26.458
-39.2465
-43.1572
-37.6486
-39.4144
-36.2861
-36.2967
123.055
122.825
-59.0719
-72.759
-29.4266
-8.82755
-41.0957
-41.0929
-27.427
-27.4357
-50.6044
-45.8122
-45.8452
-43.139
-100.576
-95.3488
127.137
169.404
-75.4381
-53.7987
-63.3178
-47.7449
-50.6369
-49.8975
-30.8992
-32.1409
-39.2245
-43.1301
-37.6509
-39.438
-72.715
-59.0599
-8.82568
-29.4337
-45.6793
-50.8193
-43.1516
-45.8193
-35.4827
-32.4822
-36.0294
-36.6056
-50.6507
-53.8589
-38.5414
-42.6045
-43.4444
-43.458
-36.4251
-36.4125
-30.0931
-26.9076
-41.6554
-44.448
-37.3674
-37.3786
-41.4618
-41.4659
-30.3032
-36.1407
-82.4919
-64.439
12.3412
12.454
-96.458
-96.4217
-69.5463
-69.5535
-47.4722
-47.4609
-35.5703
-32.4273
-36.0064
-36.5876
-53.8339
-50.6143
-38.6202
-42.3481
-26.9495
-30.1701
-41.6
-44.3493
-36.1982
-30.3876
-64.4327
-82.5621
-142.02
-75.7143
-75.5622
-151.71
-41.5527
-46.1784
-54.948
-52.9792
-49.1241
-61.512
-56.8302
-46.6636
-109.46
-159.881
-73.9728
-73.2526
-130.588
-152.502
-75.6159
-75.0528
-110.189
-73.1607
-73.988
-160.244
-49.0877
-46.6628
-56.7996
-61.5514
-41.4718
-52.8765
-54.9162
-46.1727
-115.161
-99.1337
-61.8747
-63.9756
-115.506
-64.0938
-61.9039
-99.1876
-40.1576
-40.5242
-47.5044
-47.4349
-40.1949
-47.4699
-47.5137
-40.5323
-115.692
-41.1132
-20.1902
-58.707
-68.3209
0.932346
7.75897
-31.105
-68.2563
-31.1207
7.64561
0.963917
-115.652
-58.7141
-20.183
-41.4409
127.798
143.06
196.503
117.666
63.7152
90.8409
168.2
113.511
63.6425
113.497
168.192
90.9033
127.902
117.394
196.514
143.561
-36.3493
-33.8758
-37.8814
-39.2778
-36.9318
-30.5364
-30.6546
-33.3974
-48.3035
-31.9865
-29.9355
-26.8845
-44.3953
-41.2788
-35.7989
-36.9394
-36.3414
-39.3392
-38.0926
-33.8785
-44.4184
-37.0151
-35.8407
-41.3731
-48.3965
-27.091
-29.9865
-32.1396
-36.8872
-33.3432
-30.5338
-30.4887
-36.6432
-37.2678
-36.1111
-35.6728
-36.6102
-35.6351
-36.1035
-37.2241
-38.2074
-38.5553
-36.6778
-36.4341
-38.1608
-36.4522
-36.6883
-38.5646
-66.9032
-59.1189
-98.26
-63.7219
-51.9899
-63.9572
-74.1577
-54.1982
-51.9753
-54.1829
-74.1473
-63.9437
-66.8581
-63.4745
-98.2294
-59.0542
-44.328
-37.8983
-41.3117
-44.6165
-44.1099
-46.5454
-45.4317
-41.4002
-43.0032
-47.7969
-48.5215
-44.5073
-48.0689
-44.9137
-44.53
-48.5907
-44.311
-44.5293
-41.2759
-37.8785
-48.0049
-48.355
-44.4437
-44.8695
-42.9401
-44.505
-48.5769
-48.7993
-44.0522
-41.4205
-45.3989
-46.5388
-40.7988
-42.7222
-38.0049
-38.1738
-40.7723
-38.1377
-37.9511
-42.7305
-40.5194
-38.9418
-39.5597
-39.7017
-40.4667
-39.6926
-39.4813
-39.0035
-52.3114
-47.9473
-44.9428
-54.5257
-38.9858
-38.6072
-42.8636
-43.5583
-38.9815
-43.6553
-42.9059
-38.648
-52.2586
-54.5163
-44.9383
-47.9377
-39.5022
-29.0147
-25.753
-33.4858
-39.533
-33.5002
-25.7834
-29.0314
-35.3859
-32.8362
-27.3392
-34.2679
-35.3795
-34.2597
-27.3255
-32.7989
-79.2029
-70.5136
-116.276
-45.8314
-39.7482
-42.2933
-57.9309
17.6135
-150.114
-41.6458
-37.7537
-41.1352
-71.7286
-77.0358
-114.277
-39.8026
-45.8579
-42.375
17.0365
-58.2742
-149.796
-37.698
-41.6266
-41.0253
-38.559
-36.6511
-37.9518
-37.7164
-42.2856
-39.2726
-42.8786
-39.9408
-48.8803
-46.1579
-46.9643
-57.4333
-49.5161
-46.9642
-47.3778
-51.075
-38.5093
-37.6842
-36.5994
-37.8967
-42.0028
-39.8641
-39.2128
-42.8206
-48.8431
-57.3926
-46.1257
-46.9336
-49.5105
-51.0416
-46.9667
-47.4064
-12.2223
-8.63418
-129.394
73.2684
-123.217
-123.216
-108.874
-43.9396
-60.7231
-51.079
-59.2091
-53.5448
-37.8893
-37.2739
-40.5877
-34.761
-38.7993
-38.819
-38.6083
-38.2951
-38.2575
-36.6229
-38.2082
-38.7104
-96.9085
-96.916
-88.5721
-2.30002
-64.9462
-68.7896
-70.5252
-52.3496
-36.7743
-36.7998
-37.0849
-35.8819
-47.2772
-48.505
-48.2163
-46.6449
-11.7767
-10.695
-129.504
73.4632
-60.5736
-50.9528
-58.9116
-53.5093
-37.8905
-37.2792
-40.5866
-34.7699
-38.1693
-36.6473
-38.1664
-38.7309
-64.2971
-69.0189
-70.4672
-51.3271
-45.788
-47.9118
-47.4283
-46.3793
-34.9171
-35.219
-34.407
-35.5721
-41.367
-41.905
-43.3651
-40.8044
-38.4177
-38.4096
-39.4876
-37.7098
-42.8246
-42.9342
-32.1289
-44.3498
-40.1445
-40.1428
-39.2235
-41.2307
-39.4813
-44.2439
-33.8348
-51.7169
-19.971
-19.5814
-3.91477
-41.2464
-59.1202
-59.1171
-61.3688
-57.2882
-34.8667
-35.1895
-34.358
-35.5163
-41.3998
-41.9281
-43.3864
-40.8529
-42.758
-42.7947
-32.0599
-44.264
-39.561
-44.3256
-33.9707
-51.6742
-68.1644
-63.0919
-63.3604
-58.9204
-68.173
-63.0825
-63.3394
-58.894
-56.3128
-52.6505
-52.6533
-49.2982
-9.89494
-1.46609
-1.49392
6.70483
191.828
198.973
182.703
191.98
-32.5764
-34.0795
-31.3331
-32.4412
-32.5017
-34.1064
-31.2456
-32.4358
-36.2892
-36.1563
-36.3688
-36.2833
-85.7126
-93.4533
-80.7616
-85.7099
-45.502
-43.444
-45.0982
-43.5627
-45.4939
-43.4242
-45.061
-43.5179
-39.0446
-39.5174
-39.5376
-40.371
-43.5698
-43.6447
-43.6322
-44.4722
-24.9378
-22.9501
-26.8384
-24.9392
-40.629
-21.5719
-102.198
70.7353
-218.082
-149.132
-137.226
19.722
-109.797
-80.5026
-86.5697
-81.6693
-41.0729
-38.6162
-43.8504
-35.5623
-39.4393
-38.4568
-39.3201
-38.7855
-42.2569
-40.0375
-51.8167
-40.5881
-18.8639
-8.20107
-145.778
78.8054
16.8801
-48.2877
-78.1959
40.5639
-75.1393
-58.8415
-77.0934
-62.9664
-38.7736
-37.9631
-41.1537
-35.3123
-36.0793
-36.301
-36.636
-35.8175
-41.8553
-40.9309
-45.3272
-42.1875
-218.022
-149.167
-137.323
21.7146
-38.3394
-20.2962
-98.0813
70.7135
-110.207
-79.1482
-105.44
-82.4897
-39.4986
-38.4469
-39.3485
-38.6646
-41.0795
-38.6185
-43.8449
-35.6118
-42.2754
-40.1451
-52.0249
-40.6317
16.7764
-48.1689
-78.265
40.5286
-18.7563
-8.0761
-146.049
79.0815
-75.4716
-58.9956
-77.0756
-63.1636
-36.095
-36.3405
-36.6497
-35.825
-38.7746
-37.963
-41.1395
-35.3171
-41.666
-43.572
-44.9339
-42.1427
-40.3512
-44.7046
-43.6973
-42.6488
-35.3389
-34.8898
-34.5503
-35.2129
-40.3179
-40.7473
-42.3026
-38.9214
-38.4423
-38.5348
-39.7009
-37.7144
-37.8436
-37.5417
-38.2676
-39.6291
-37.1548
-35.937
-35.9388
-36.7255
-43.986
-41.6813
-38.3908
-50.8285
-39.454
-39.9316
-38.9856
-40.7044
-54.2308
-59.8636
-54.0661
-52.3958
-44.0736
-42.6833
-45.0376
-42.6621
-45.169
-40.4495
-42.0986
-53.9499
-51.8458
-23.7413
-23.6686
-51.766
-50.6538
-48.7889
-48.5416
-50.7588
-45.0142
-42.5646
-43.3237
-44.2467
-50.0172
-49.1747
-47.7608
-50.8713
-54.2351
-59.8544
-57.9823
-59.7455
-40.2833
-44.6058
-43.6162
-42.6001
-38.4115
-38.5133
-39.675
-37.6904
-35.3249
-34.8681
-34.5305
-35.2482
-40.3245
-40.7794
-42.3101
-38.9561
-38.3695
-37.3896
-38.1975
-39.9694
-39.4298
-39.9242
-38.9661
-40.7037
-37.1129
-35.9133
-35.8933
-36.7121
-43.9283
-41.6453
-38.357
-50.7524
-54.1914
-59.8889
-54.0891
-52.4104
-51.8309
-23.7813
-23.6569
-51.8851
-44.0673
-42.6936
-45.022
-42.7092
-45.1967
-40.5085
-41.8333
-53.9105
-50.6027
-48.6316
-48.4538
-50.6652
-54.213
-59.8562
-57.9687
-59.775
-44.9826
-42.5155
-43.3619
-44.1303
-50.1331
-49.2768
-47.9125
-50.8812
-122.32
-83.401
-99.1817
-97.0606
135.452
188.815
171.894
153.469
-82.5427
-65.88
-73.4265
-73.4472
196.085
204.988
201.67
201.713
-62.0003
-62.7446
-68.1396
-57.4833
-54.0107
-53.8627
-57.9688
-50.6766
-50.3729
-49.4851
-49.7047
-51.2705
-32.8417
-28.7826
-30.9834
-31.6726
-38.3863
-40.6977
-40.5096
-40.4514
-25.4232
-23.2743
-24.6341
-24.6544
-39.6887
-41.3174
-39.6799
-41.5991
-38.7721
-38.7576
-37.4328
-38.9619
-45.4182
-25.66
-34.7652
-34.7786
106.567
156.898
134.155
134.158
-65.5063
-63.4974
-60.8818
-67.7489
-25.0394
-10.1955
-23.3185
-12.0822
-39.8576
-41.4148
-40.9999
-40.9988
-27.3232
-26.6673
-27.1408
-27.0968
-48.4948
-46.4957
-48.7181
-46.5133
-45.3588
-44.7599
-45.5392
-44.1771
-122.87
-83.5291
-99.559
-97.2937
135.462
187.719
153.269
171.79
-61.9059
-62.7217
-68.1011
-57.432
-54.0209
-53.8727
-58.0051
-50.6735
-50.3829
-49.5279
-51.3342
-49.7328
-32.8577
-28.8085
-31.0077
-31.6914
-39.6849
-41.3394
-39.6674
-41.5959
-38.7767
-38.7797
-37.44
-38.9784
-65.4416
-63.4572
-67.6973
-60.8521
-24.9577
-10.1871
-12.0729
-23.3155
-48.3409
-46.4345
-46.3824
-48.6991
-45.3396
-44.5382
-44.1401
-45.5271
-33.7483
-32.8547
-34.4253
-32.6129
-36.0651
-36.2674
-36.0924
-36.2992
-50.4628
-53.5183
-51.5792
-53.219
-40.5627
-39.6336
-39.5322
-42.8316
-41.6071
-44.8807
-43.3065
-43.3137
-36.6953
-36.2761
-36.4634
-36.4569
-26.2563
-29.202
-28.7443
-27.5181
-44.0005
-43.065
-42.591
-43.8893
-37.9898
-37.0269
-37.3812
-37.3865
-42.897
-39.4979
-41.0106
-41.0109
-33.2751
-32.841
-31.6987
-34.5768
-61.9897
-78.8693
-75.4241
-67.1883
12.7746
17.496
16.4416
16.397
-93.1329
-103.83
-97.4839
-97.4709
-67.6603
-75.2164
-70.7825
-70.7757
-49.2737
-45.7319
-47.1974
-47.1911
-33.7198
-32.7217
-34.5201
-32.473
-36.0535
-36.2513
-36.0698
-36.28
-50.4259
-53.4857
-53.1854
-51.541
-40.7574
-39.6262
-39.5955
-43.016
-26.2625
-29.2493
-27.5575
-28.7989
-43.9178
-42.9961
-42.5262
-43.8012
-33.3657
-32.8962
-34.6454
-31.779
-61.9646
-78.8636
-67.1863
-75.4509
-126.631
-105.258
-102.076
-86.0058
-48.2303
-46.5349
-50.9356
-49.6836
-53.6273
-50.6748
-56.6395
-53.9619
-111.785
-91.3781
-93.5882
-80.7962
-129.073
-108.512
-102.646
-86.032
-112.018
-91.1422
-93.6969
-80.7553
-53.6102
-50.6518
-56.6278
-53.942
-48.187
-46.5115
-50.8916
-49.6483
-92.5665
-80.4749
-77.3167
-70.3665
-92.7073
-80.6863
-77.395
-70.4673
-43.6124
-41.98
-45.7358
-43.5978
-43.6437
-42.0073
-45.7568
-43.6167
-60.4401
-55.356
-40.6201
-37.1322
-16.0309
-7.40495
-5.14571
5.62418
-16.0296
-7.37344
-5.12615
5.80404
-60.439
-55.4033
-40.7142
-37.1545
148.504
147.837
163.657
170.337
84.9119
71.4382
92.4432
82.2011
71.4334
84.6706
82.3186
93.2003
147.993
148.631
170.447
163.632
-36.5201
-37.46
-36.4188
-37.6562
-33.6638
-33.7185
-32.562
-31.8732
-29.7402
-30.9582
-26.3876
-28.6952
-44.7186
-40.8585
-41.7893
-38.0017
-36.5654
-37.5126
-36.4858
-37.7245
-44.7713
-40.8877
-41.5848
-38.0154
-29.785
-31.099
-26.4393
-28.776
-33.6394
-33.7157
-32.5326
-31.8843
-36.167
-36.6376
-36.1845
-36.4564
-36.6162
-36.1441
-36.4394
-36.1633
-37.8211
-37.187
-37.3329
-36.929
-37.2094
-37.8418
-36.9473
-37.3491
-78.7491
-63.9474
-95.8717
-96.5518
-55.738
-59.6135
-62.3273
-65.6921
-59.6078
-55.7269
-65.6887
-62.3173
-64.5129
-78.5447
-96.3282
-95.4392
-38.433
-40.2237
-39.0826
-40.4267
-47.2825
-49.2726
-49.4515
-45.6311
-45.8934
-47.3622
-49.5163
-50.3987
-44.9221
-44.9435
-45.0212
-44.7689
-38.4006
-40.1711
-39.0509
-40.382
-44.7889
-44.8241
-44.8885
-44.6587
-45.9011
-47.3684
-49.6082
-50.6468
-47.2915
-49.2733
-49.4456
-45.6319
-41.1623
-42.4606
-39.6059
-41.5356
-41.2036
-42.4889
-39.6147
-41.5489
-42.5226
-40.2741
-40.4045
-39.8526
-42.4955
-40.2437
-40.436
-39.8312
-50.3855
-53.1594
-46.7737
-47.9126
-39.5031
-40.9542
-41.0908
-42.0391
-39.5208
-40.9852
-41.1073
-42.0484
-50.3535
-53.1368
-46.7446
-47.8955
-33.9318
-31.7501
-30.9285
-28.8019
-31.7717
-33.9593
-28.8327
-30.9538
-33.8952
-34.25
-30.6281
-32.7631
-34.2431
-33.8921
-32.7527
-30.6216
-83.7758
59.1936
-153.754
48.3999
-139.493
-121.598
-47.2786
-37.6715
-40.8726
-40.3935
-40.0266
-40.3298
-145.931
71.3283
-85.7614
43.9779
-95.9692
-117.468
-41.295
-36.228
-37.9476
-35.9449
-42.7722
-40.4676
-153.722
48.3759
-72.1653
60.7657
-121.608
-122.523
-40.8736
-40.4148
-47.2711
-37.7102
-39.9945
-40.3557
-85.7924
43.7843
-145.832
71.2154
-95.8078
-117.369
-37.9213
-35.9515
-41.2617
-36.2347
-42.6682
-40.4074
-38.5151
-39.8133
-35.3589
-36.3114
-40.9223
-36.7836
-39.0437
-37.2709
-42.3449
-39.8677
-38.0811
-38.1676
-39.1317
-52.9647
-38.911
-40.3326
-50.8341
-60.9643
-46.4695
-44.5987
-45.2382
-53.6072
-73.599
-73.0818
-49.5302
-51.1536
-47.7479
-47.0611
-49.3297
-49.6056
-51.9356
-52.0083
-38.4351
-39.7717
-39.0103
-37.2303
-35.3191
-36.237
-40.8662
-36.7646
-42.4634
-39.76
-38.8705
-40.2881
-38.0273
-38.1236
-39.0811
-52.893
-50.7806
-60.9302
-73.5642
-73.0399
-46.4377
-44.6081
-45.2362
-53.5239
-49.4982
-51.1018
-51.9117
-51.9691
-47.7495
-47.0193
-49.5085
-49.6212
-114.748
77.413
-134.671
70.9276
-153.743
-158.421
135.079
120.436
-117.105
24.1393
-117.151
24.4344
-95.2988
-95.3228
140.888
143.046
-73.5674
-64.5625
-50.8463
-46.9143
-68
-56.7954
-58.026
-50.4205
-41.6276
-34.6382
-40.8588
-35.0559
-45.9437
-44.9166
-33.5118
-33.9275
-38.155
-37.3602
-38.1831
-37.364
-38.246
-38.2332
-27.8777
-27.8884
-40.4338
-39.9588
-37.4252
-38.7213
-38.383
-40.038
-38.1207
-38.6014
-82.3171
30.7599
-82.3141
30.8081
-59.0698
-59.0773
81.6901
81.6017
-69.2722
-48.3557
-63.0766
-53.5145
-64.2441
-68.7526
-36.8054
-34.9221
-36.7828
-35.9536
-36.7942
-35.9541
-38.939
-38.9605
-32.018
-32.0005
-45.3891
-43.3764
-49.6488
-49.588
-49.9297
-49.7949
-46.7634
-44.7006
-113.962
77.8209
-134.964
70.9581
-154.362
-158.771
120.436
135.578
-72.8273
-64.6949
-50.6748
-46.86
-67.7359
-56.6706
-58.0646
-50.3989
-41.6236
-34.6487
-40.8543
-35.082
-44.9115
-45.9337
-33.5252
-33.9375
-40.4665
-40.0206
-37.3934
-38.624
-38.3646
-40.0502
-38.1112
-38.5729
-69.1719
-49.1307
-63.1164
-53.5937
-68.6682
-64.2377
-34.8285
-36.7677
-46.6648
-44.2418
-49.3638
-49.4649
-49.5249
-49.214
-44.7283
-46.7225
-34.2504
-35.1487
-34.8733
-36.5097
-33.5566
-33.1687
-35.7465
-36.0707
-42.9117
-40.0313
-43.7566
-41.4084
-46.5852
-46.4856
-39.8195
-40.783
-39.579
-37.7654
-39.4975
-37.7513
-40.4772
-40.4854
-37.2215
-37.2147
-35.4673
-45.9221
-41.2087
-43.9766
-24.4241
-23.0774
-44.4219
-44.6882
-39.1816
-41.1326
-39.1611
-41.1339
-38.576
-38.5808
-42.8178
-42.8223
-37.0725
-52.2876
-39.9514
-51.2362
-30.2322
-35.4385
-57.6043
-55.0689
-7.99794
-37.9952
-8.00936
-38.0208
4.62757
4.63031
-76.4786
-76.4469
-61.3243
-57.8237
-61.3144
-57.8189
-64.3485
-64.3453
-53.6334
-53.6297
-34.2127
-35.1066
-34.8277
-36.4898
-33.5478
-33.1148
-35.708
-36.0489
-42.9325
-40.0788
-43.7588
-41.4601
-46.485
-46.5754
-39.8879
-40.8631
-35.383
-45.8277
-41.0784
-43.9194
-23.2382
-24.4336
-44.3441
-44.618
-37.1612
-52.2337
-40.1051
-51.2193
-35.5275
-30.3505
-55.0457
-57.5551
-75.0779
-74.4809
-68.4931
-58.4383
-59.5994
-67.8868
-55.2708
-56.3447
-75.14
-74.521
-68.5025
-58.4125
-67.872
-59.5653
-56.3129
-55.2398
-60.8025
-60.8158
-56.5136
-50.1789
-56.5272
-50.1777
-47.0805
-47.0857
-18.1403
-18.1258
-12.9721
1.6986
1.86974
-12.9724
11.9159
12.6516
196.957
181.789