# vtk DataFile Version 2.0
tet_velo
ASCII
DATASET UNSTRUCTURED_GRID
POINTS 29498 float
-0.647637 0.085 -1.905
-0.802023 0.135 1.765
-0.697201 0.755 -1.805
-0.495 1.405 1.70027
0.647632 0.085 -1.905
0.802772 0.135 1.765
0.697197 0.755 -1.805
0.495 1.405 1.70033
-0.692353 0.108413 -0.681667
-0.749106 0.119788 0.541667
-0.75232 1.09419 -0.636577
-0.6732 1.29913 0.531847
0.705714 0.0952981 -0.681667
0.765599 0.103793 0.541667
0.752312 1.09418 -0.636557
0.673193 1.29913 0.531887
-1.34362 -0.51713 -2.8805
-1.34996 -0.393667 -1.92382
-1.37826 -0.374576 -0.699069
-1.40276 -0.41071 0.53673
-1.42291 -0.410592 1.76241
-1.44051 -0.353041 2.72365
-1.45753 -0.267341 3.67645
-1.35145 -0.086384 -2.85024
-1.36089 0.0714731 -1.89955
-1.39597 0.140516 -0.685486
-1.40396 0.156069 0.533521
-1.40198 0.17737 1.74864
-1.43571 0.236854 2.7091
-1.46313 0.318872 3.6637
-1.37779 0.711469 -2.7743
-1.40346 0.860543 -1.82135
-1.43435 1.12799 -0.644715
-1.34616 1.30827 0.528027
-1.22186 1.40554 1.70571
-1.34538 1.45726 2.66846
-1.44038 1.51809 3.63191
-1.40058 2.14227 -2.70168
-1.41488 2.32546 -1.75695
-1.42643 2.6368 -0.598112
-1.40424 2.9267 0.548892
-1.37886 3.1151 1.70831
-1.40365 3.20569 2.65424
-1.45511 3.273 3.61169
-0.653497 -0.510548 -2.88404
-0.651442 -0.381364 -1.92898
-0.673477 -0.390349 -0.69837
-0.704611 -0.442166 0.543678
-0.739516 -0.445866 1.77455
-0.768008 -0.379336 2.73189
-0.786263 -0.28583 3.68123
-0.657565 -0.0923781 -2.85132
-0.796864 0.214571 2.71591
-0.806569 0.303271 3.6673
-0.677328 0.664355 -2.76751
-0.723503 1.45172 2.66739
-0.801642 1.51158 3.63169
-0.698135 2.10483 -2.69496
-0.70966 2.28779 -1.74955
-0.730195 2.61929 -0.593643
-0.733598 2.92904 0.548371
-0.730559 3.12286 1.7045
-0.758887 3.21116 2.65044
-0.805601 3.2753 3.60893
0.700742 -0.51298 -2.88403
0.687631 -0.384727 -1.92898
0.728651 -0.401215 -0.698367
0.778507 -0.454841 0.543682
0.786743 -0.450443 1.77456
0.668874 -0.383173 2.73191
0.597174 -0.290206 3.68125
0.692021 -0.0937489 -2.85132
0.607535 0.212042 2.71593
0.552545 0.299458 3.66733
0.703781 0.663469 -2.7675
0.496652 1.44976 2.66742
0.493446 1.50827 3.63172
0.70487 2.10278 -2.69495
0.702015 2.28586 -1.74953
0.675315 2.61705 -0.593623
0.614967 2.9264 0.548399
0.551753 3.11997 1.70454
0.517633 3.20791 2.65047
0.491323 3.27163 3.60896
1.39041 -0.522987 -2.88049
1.38275 -0.401638 -1.92381
1.42884 -0.391717 -0.699055
1.47788 -0.430855 0.536748
1.47308 -0.422595 1.76243
1.37719 -0.362331 2.72368
1.29865 -0.276671 3.67649
1.38044 -0.0904885 -2.85022
1.36493 0.0667831 -1.89954
1.41467 0.124879 -0.68547
1.44542 0.136307 0.533547
1.42492 0.167612 1.74867
1.31802 0.229281 2.70915
1.25097 0.310472 3.66374
1.39481 0.708624 -2.77429
1.39841 0.858615 -1.82134
1.43149 1.12238 -0.644682
1.35654 1.30004 0.528085
1.21621 1.39908 1.70579
1.18308 1.45116 2.66852
1.17251 1.5107 3.63197
1.4026 2.13772 -2.70165
1.40083 2.32099 -1.75692
1.3737 2.63158 -0.598073
1.30096 2.92061 0.548946
1.21883 3.10857 1.70837
1.17848 3.19868 2.6543
1.15532 3.26536 3.61175
-0.720121 0.42 -1.9027
-2.5034e-06 0.0874221 -1.90258
-0.678489 0.0882121 -1.29333
-0.773879 0.77 1.858
0.000374496 0.136708 1.76329
-0.770071 0.132888 1.15333
-1.99676e-06 0.822115 -1.87211
-0.734371 0.934203 -1.22079
0 1.44598 1.74128
-0.606508 1.37447 1.11606
0.720249 0.42 -1.90283
0.678593 0.0882286 -1.29333
0.773915 0.77 1.85769
0.770528 0.133054 1.15333
0.734338 0.934174 -1.22078
0.606511 1.37448 1.11611
-0.718911 0.115919 -0.07
-0.88237 0.601299 -0.659122
0.00668067 0.100274 -0.681667
-0.881721 0.709461 0.536757
0.00824668 0.106801 0.541667
-0.714869 1.19877 -0.0523649
-3.8073e-06 1.21618 -0.636567
-3.84767e-06 1.49432 0.531867
0.735032 0.10017 -0.07
0.882623 0.594739 -0.659112
0.882457 0.70146 0.536777
0.714877 1.19878 -0.052335
-0.888569 0.51065 -1.25706
-0.890164 0.65538 -0.0611825
-0.866257 0.73973 1.1347
0.00333908 0.0867109 -1.29333
0.00746368 0.103446 -0.07
0.00431059 0.123423 1.15333
-2.25008e-06 0.42 -2.16033
0.000187248 0.77 2.0697
-2.90203e-06 0.972447 -1.22078
-3.82749e-06 1.44992 -0.05235
-1.92384e-06 1.48518 1.11608
0.888468 0.50737 -1.25706
0.890098 0.6481 -0.0611675
0.867714 0.73573 1.13472
-1.00427 0.0782366 -1.90228
-0.649539 -0.148182 -1.91699
-0.652601 -0.00368903 -2.37816
-1.102 0.156185 1.75682
-0.770769 -0.155433 1.76978
-0.799444 0.174786 2.24045
-1.05033 0.807771 -1.81317
-0.687264 0.709677 -2.28625
-0.703431 1.52139 -1.77727
-0.858431 1.40527 1.70299
-0.609252 1.42836 2.18383
-0.612779 2.26393 1.70239
0.667632 -0.149863 -1.91699
0.669826 -0.00437444 -2.37816
1.00628 0.0758916 -1.90227
0.794757 -0.157721 1.76978
0.705153 0.173521 2.24046
1.11385 0.151306 1.75684
0.700489 0.709235 -2.28625
0.699606 1.52043 -1.77727
1.04781 0.806807 -1.81317
0.495826 1.42738 2.18388
0.523377 2.26248 1.70243
0.855607 1.40204 1.70306
-1.04416 0.124465 -0.683576
-0.682915 -0.140968 -0.690018
-1.07654 0.137929 0.537594
-0.726859 -0.161189 0.542673
-1.09333 1.11109 -0.640646
-0.741257 1.85674 -0.61511
-1.00968 1.3037 0.529937
-0.703399 2.11409 0.540109
0.717183 -0.152958 -0.690017
1.06019 0.110088 -0.683568
0.772053 -0.175524 0.542674
1.10551 0.12005 0.537607
0.713813 1.85562 -0.61509
1.0919 1.10828 -0.640619
0.64408 2.11276 0.540143
1.01486 1.29959 0.529986
-1.34679 -0.455398 -2.40216
-1.34754 -0.301757 -2.86537
-0.998558 -0.513839 -2.88227
-1.36411 -0.384122 -1.31144
-1.35543 -0.161097 -1.91169
-1.0007 -0.387515 -1.9264
-1.39051 -0.392643 -0.0811695
-1.38711 -0.11703 -0.692277
-1.02587 -0.382463 -0.698719
-1.41283 -0.410651 1.14957
-1.40336 -0.12732 0.535126
-1.05369 -0.426438 0.540204
-1.43171 -0.381816 2.24303
-1.41244 -0.116611 1.75553
-1.08121 -0.428229 1.76848
-1.44902 -0.310191 3.20005
-1.43811 -0.0580936 2.71638
-1.10426 -0.366188 2.72777
-1.46033 0.025766 3.67007
-1.1219 -0.276585 3.67884
-1.35617 -0.00745544 -2.37489
-1.36462 0.312543 -2.81227
-1.00451 -0.089381 -2.85078
-1.37843 0.105995 -1.29252
-1.38218 0.466008 -1.86045
-1.39997 0.148293 -0.0759823
-1.41516 0.634254 -0.665101
-1.40297 0.16672 1.14108
-1.37506 0.73217 0.530774
-1.41884 0.207112 2.22887
-1.31192 0.791454 1.72718
-1.44942 0.277863 3.1864
-1.39054 0.847055 2.68878
-1.11628 0.225712 2.71251
-1.45176 0.918481 3.6478
-1.13485 0.311072 3.6655
-1.39062 0.786006 -2.29783
-1.38918 1.42687 -2.73799
-1.02756 0.687912 -2.7709
-1.4189 0.994267 -1.23303
-1.40917 1.593 -1.78915
-1.39025 1.21813 -0.0583442
-1.43039 1.8824 -0.621413
-1.28401 1.3569 1.11687
-1.3752 2.11748 0.53846
-1.28362 1.4314 2.18709
-1.30036 2.26032 1.70701
-1.39288 1.48767 3.15019
-1.37451 2.33147 2.66135
-1.03444 1.45449 2.66792
-1.44774 2.39555 3.6218
-1.12101 1.51484 3.6318
-1.40773 2.23386 -2.22931
-1.04936 2.12355 -2.69832
-1.42065 2.48113 -1.17753
-1.06227 2.30662 -1.75325
-1.41534 2.78175 -0.0246096
-1.07831 2.62805 -0.595878
-1.39155 3.0209 1.1286
-1.06892 2.92787 0.548632
-1.39126 3.1604 2.18127
-1.05471 3.11898 1.7064
-1.42938 3.23935 3.13297
-1.08127 3.20842 2.65234
-1.13035 3.27415 3.61031
-0.65247 -0.445956 -2.40651
-0.655531 -0.301463 -2.86768
0.0236226 -0.511764 -2.88404
-0.662459 -0.385857 -1.31368
0.0180946 -0.383045 -1.92898
-0.689044 -0.416258 -0.0773457
0.0275872 -0.395782 -0.698368
-0.722063 -0.444016 1.15912
0.0369478 -0.448504 0.54368
-0.753762 -0.412601 2.25322
0.0236135 -0.448154 1.77456
-0.777135 -0.332583 3.20656
-0.782436 -0.0823824 2.7239
-0.049567 -0.381254 2.7319
-0.796416 0.00872044 3.67427
-0.0945443 -0.288018 3.68124
-0.667446 0.285988 -2.80942
0.0172277 -0.0930635 -2.85132
-0.801717 0.258921 3.19161
-0.760184 0.833145 2.69165
-0.0946648 0.213306 2.71592
-0.804106 0.907426 3.6495
-0.127012 0.301364 3.66732
-0.687731 1.38459 -2.73123
0.0132266 0.663912 -2.76751
-0.762573 1.48165 3.14954
-0.741195 2.33144 2.65891
-0.113426 1.45074 2.6674
-0.803622 2.39344 3.62031
-0.154098 1.50992 3.63171
-0.703898 2.19631 -2.22225
0.00336746 2.10381 -2.69495
-0.719927 2.45354 -1.1716
-0.00382259 2.28682 -1.74954
-0.731896 2.77417 -0.0226362
-0.0274401 2.61817 -0.593633
-0.732078 3.02595 1.12644
-0.0593153 2.92772 0.548385
-0.744723 3.16701 2.17747
-0.0894027 3.12142 1.70452
-0.782244 3.24323 3.12969
-0.120627 3.20954 2.65046
-0.157139 3.27347 3.60895
0.694187 -0.448853 -2.40651
0.696381 -0.303364 -2.86768
1.04558 -0.517983 -2.88226
0.708141 -0.392971 -1.31367
1.03519 -0.393182 -1.92639
0.753579 -0.428028 -0.0773426
1.07874 -0.396466 -0.698711
0.782625 -0.452642 1.15912
1.12819 -0.442848 0.540215
0.727808 -0.416808 2.25323
1.12991 -0.436519 1.7685
0.633024 -0.336689 3.20658
0.638204 -0.0855656 2.72392
1.02303 -0.372752 2.72779
0.57486 0.00462594 3.67429
0.947913 -0.283439 3.67887
0.697901 0.28486 -2.80941
1.03623 -0.0921187 -2.85077
0.58004 0.25575 3.19163
0.552093 0.830901 2.69167
0.96278 0.220661 2.71254
0.522996 0.903862 3.64953
0.901759 0.304965 3.66554
0.704325 1.38313 -2.73123
1.0493 0.686047 -2.7709
0.495049 1.47901 3.14957
0.507142 2.32884 2.65895
0.839864 1.45046 2.66797
0.492385 2.38995 3.62034
0.832978 1.50948 3.63185
0.703442 2.19432 -2.22224
1.05374 2.12025 -2.6983
0.688665 2.45145 -1.17158
1.05142 2.30342 -1.75323
0.645141 2.77173 -0.0226119
1.02451 2.62431 -0.595848
0.58336 3.02319 1.12647
0.957963 2.92351 0.548673
0.534693 3.16394 2.1775
0.885292 3.11427 1.70645
0.504478 3.23977 3.12972
0.848055 3.2033 2.65239
0.823321 3.26849 3.61036
1.38658 -0.462312 -2.40215
1.38543 -0.306738 -2.86536
1.40579 -0.396677 -1.31143
1.37384 -0.167427 -1.91168
1.45336 -0.411286 -0.0811535
1.42175 -0.133419 -0.692263
1.47548 -0.426725 1.14959
1.46165 -0.147274 0.535147
1.42513 -0.392463 2.24306
1.449 -0.127492 1.75555
1.33792 -0.319501 3.20009
1.34761 -0.0665251 2.71641
1.27481 0.0169005 3.67012
1.37268 -0.0118527 -2.37488
1.38763 0.309068 -2.81226
1.3898 0.095831 -1.29251
1.38167 0.462699 -1.86044
1.43004 0.130593 -0.0759616
1.42308 0.623628 -0.665076
1.43517 0.151959 1.14111
1.40098 0.718176 0.530816
1.37147 0.198446 2.22891
1.32057 0.783344 1.72723
1.2845 0.269877 3.18644
1.25055 0.840218 2.68884
1.21174 0.910585 3.64786
1.39661 0.78362 -2.29781
1.39871 1.42317 -2.73797
1.41495 0.990496 -1.23301
[...]
POINT_DATA 29498
VECTORS point_vectors float
-0.570802 -4.49694 8.17435
0.220799 0.259461 4.07
-0.808015 0.440309 1.403
-0.0243765 -0.149839 0.583527
0.57626 -4.49478 8.17427
-0.233573 0.25992 4.06371
0.80283 0.43721 1.39378
0.0221256 -0.137943 0.566305
-0.00600184 0.00330176 0.174687
-0.00846727 0.00415244 0.252105
-0.470449 -0.0634795 0.763977
0.00951047 0.0187386 0.0688937
-0.00103509 -0.00123539 0.170205
-0.00118217 0.00125052 1.22506
0.468507 -0.0629882 0.760345
-0.00946231 0.01865 0.0682784
-0.665589 -0.498773 19.9159
-1.19189 -1.07257 20.7324
-0.382027 -0.565438 21.6189
0.100346 -0.149129 21.7361
0.541986 0.175336 21.7638
0.849866 0.35661 21.5364
0.980567 0.353655 21.095
-0.94429 -0.481581 19.6898
-2.1912 -1.12964 20.5911
-0.704557 -0.798788 21.8126
0.0455833 -0.436354 21.9377
0.816667 -0.124354 21.9077
1.29583 -0.055456 21.5591
1.50244 -0.160926 21.3162
-1.22351 0.128867 19.4509
-2.51526 0.371448 20.3865
-1.79151 -0.157962 21.6175
-0.807359 -0.431681 22.0894
-0.0715346 -0.797308 21.9511
0.30787 -0.895033 21.632
0.600015 -0.772716 21.7651
-0.505481 0.45557 20.0511
-0.664202 0.640157 20.4449
-0.593914 0.433731 21.0974
-0.350917 0.124959 21.3127
-0.135018 -0.0778869 21.5125
-0.0100489 -0.122374 21.3896
0.0566079 -0.108068 20.9881
-0.54601 -0.965033 19.5148
-1.10762 -2.74312 21.0661
-0.162231 -0.461997 22.0251
0.0761461 0.047124 21.9431
0.404348 0.677422 22.0115
0.743696 1.11358 21.5867
1.04869 1.53054 21.0628
-0.944881 -1.09972 18.7622
1.59679 1.09831 11.2925
2.27744 1.03866 14.1084
-1.50606 0.374651 17.7439
-0.124641 -0.77029 12.9694
0.415529 -1.51531 17.5517
-0.402615 0.795147 19.7885
-0.600701 1.18063 20.2581
-0.540257 0.967743 21.0976
-0.26816 0.330233 21.4008
-0.129398 -0.0397305 21.6017
-0.0321254 -0.153598 21.4741
0.0521819 -0.221864 21.2107
0.54465 -0.915287 19.5272
1.1307 -2.63013 21
0.145096 -0.520418 21.9724
-0.104589 0.0329263 21.9133
-0.438979 0.647694 22.0009
-0.649947 1.17197 21.6521
-0.845227 1.7783 20.0919
0.964174 -1.05104 18.8281
-0.966827 0.859201 7.26677
-2.07761 1.77489 10.9596
1.50712 0.352279 17.8394
0.626023 -0.516077 5.56848
-0.0307752 -1.2602 11.7587
0.406198 0.792091 19.7894
0.59578 1.18765 20.2553
0.506153 0.998477 21.1087
0.226984 0.345157 21.4096
0.0973324 -0.0352197 21.4535
0.0177754 -0.142709 21.2037
-0.0676666 -0.183344 20.8224
0.657883 -0.483715 19.9647
1.16437 -1.02983 20.7248
0.397714 -0.554316 21.5737
-0.0765547 -0.165823 21.7406
-0.516687 0.130058 21.6943
-0.883191 0.387593 21.613
-1.06654 0.5093 21.0735
0.928272 -0.47635 19.7277
2.17134 -1.12153 20.5882
0.711018 -0.770654 21.7848
-0.0407174 -0.408675 21.89
-0.785223 -0.133768 21.903
-1.43587 -0.00834931 21.5566
-2.07787 0.0717633 20.4924
1.21266 0.121916 19.4744
2.53536 0.375318 20.388
1.79609 -0.162748 21.6242
0.797534 -0.438427 22.0794
0.0811472 -0.800268 21.9436
-0.1865 -0.970454 21.6072
-0.568885 -1.25268 21.5218
0.50731 0.456098 20.0494
0.66962 0.649419 20.4401
0.610827 0.477219 21.0885
0.370459 0.159955 21.3335
0.16279 -0.0478981 21.6265
0.0275083 -0.149641 21.662
-0.0408472 -0.202446 21.2303
-0.265917 -0.0218252 0.321997
-7.16408e-05 -0.0383046 0.19289
-0.0185659 0.00406251 0.155275
0.0101175 -0.0255469 0.0429066
-0.000330069 0.0252691 0.253089
0.0103548 0.0209316 0.471574
0.00117104 0.323865 0.669558
-0.210447 -0.00359623 0.387173
-0.0320204 0.0972524 0.279764
0.00268266 0.00259071 0.0229674
0.281783 -0.0232298 0.340811
0.017569 0.00378834 0.152431
-0.00984585 -0.0253075 0.0420329
-0.016863 0.0209885 0.494041
0.213974 -0.00330263 0.393681
-0.0026569 0.00257801 0.0224417
0.00276982 -0.00158913 0.100359
-5.47349e-05 -0.0006747 0.0147358
-0.000177035 5.03841e-05 0.0124301
0.00214714 0.00825372 0.0536493
2.51338e-05 3.32692e-05 0.00329135
0.000700352 0.00253322 0.0128554
-3.16615e-05 0.00974589 0.0204442
-1.9466e-05 0.00160271 0.035392
0.000847933 0.000748351 0.0342497
0 0 0
-0.000834529 0.0048557 0.0336408
-0.000697604 0.00252799 0.0128182
-0.000564583 -0.0013613 0.0150784
0.00068754 0.0103301 0.0862712
0.000149721 0.000797552 0.00497147
0 0 0
4.6565e-06 4.31081e-06 0.00085048
9.16844e-08 0.000426981 0.0110052
-0.000100797 -0.027781 0.0597553
0 0 0
-0.000483849 0.0107656 0.0646505
-7.47569e-05 0.0147766 0.0844918
-7.73992e-05 -0.000512828 0.0149222
0.00141618 -0.00356154 0.0402346
0 0 0
-2.06843e-05 0.000104002 0.000662797
-3.85723 -2.89373 20.4474
-1.81628 -4.47628 21.3201
-2.37783 -3.00612 17.8258
1.07496 0.327945 19.2183
0.595732 0.951597 20.0179
1.12152 1.00487 9.13494
-4.67383 1.27053 20.1211
-4.20405 2.11003 15.9171
-1.61207 2.34439 19.8053
0.134521 -0.447107 16.1406
-0.292294 -0.210049 6.98522
-0.248031 -0.0382327 21.7489
1.85071 -4.35298 21.2588
2.39174 -2.89411 17.8949
3.82956 -2.88135 20.4491
-0.641891 0.927796 20.0918
-0.684809 0.759693 5.75324
-1.07773 0.266412 19.5556
4.20674 2.0527 16.0331
1.60788 2.3547 19.8005
4.6919 1.27984 20.12
0.766575 -0.0100706 3.98744
0.226929 0.0184838 21.7694
-0.146829 -0.411331 15.8481
-0.0700981 -0.869798 18.7388
-0.00386161 -0.056969 19.3434
0.249485 -0.119305 17.9809
0.168106 0.220657 19.4949
-3.19491 -0.498227 22.0015
-1.74248 2.10502 21.153
-1.26675 -0.727502 21.5779
-0.737838 0.717958 22.0525
-0.0171672 -0.258517 20.0641
0.229971 -0.898682 19.6326
-0.188974 0.179893 19.9657
-0.268397 -0.229022 19.2248
1.72388 2.16822 21.1413
3.20767 -0.51976 21.9938
0.705033 0.795568 22.0848
1.26846 -0.753598 21.7149
-0.980388 -0.806679 20.1528
-0.800926 -0.526697 19.7988
-0.671997 -0.756819 19.7447
-0.824943 -0.882576 21.3912
-1.62005 -1.19209 20.6647
-1.31786 -1.8427 20.7927
-0.106799 -0.335428 21.6892
-0.485691 -0.692792 21.7395
-0.224633 -0.603827 21.8011
0.305196 0.0171651 21.786
0.108744 -0.274574 21.8301
0.182656 -0.0746364 21.9036
0.715604 0.270422 21.6257
0.683071 0.0917671 21.8248
0.5861 0.382895 21.8966
0.959217 0.346526 21.2239
1.08667 0.230209 21.5681
0.915751 0.684109 21.5711
1.27889 0.190446 21.2205
1.20569 0.725998 21.1404
-1.65246 -0.856619 19.8478
-1.16323 -0.273184 19.4859
-1.04563 -0.760747 19.2856
-1.50804 -1.04971 21.6539
-2.82733 -0.419884 20.4772
-0.273209 -0.614855 21.8681
-1.25119 -0.744719 21.8325
0.372992 -0.289029 21.961
-0.236057 -0.663393 22.0423
1.10457 -0.0686086 21.7669
0.722393 -0.738979 21.8648
1.37557 -0.0666371 21.4359
1.08457 -0.857241 21.649
1.82396 0.365397 19.9645
1.35554 -0.762267 21.2652
2.31559 0.288518 19.7211
-2.0168 0.306988 19.6052
-0.852123 0.482529 19.7402
-1.49776 0.210069 18.7769
-2.20958 0.103618 21.2201
-1.35781 0.822168 20.3208
-1.35965 -0.349891 21.9753
-1.26031 0.622869 21.2039
-0.363049 -0.585701 22.0881
-0.631826 0.170552 21.682
0.109217 -0.843142 21.7632
-0.178452 -0.226244 21.6699
0.496785 -0.849778 21.4769
0.00870279 -0.342592 21.427
0.115014 -1.0468 21.0288
0.0934094 -0.357002 21.3951
0.577891 -1.35951 21.434
-0.609282 0.581941 20.2197
-0.499283 0.621926 19.9312
-0.66034 0.582032 20.737
-0.673957 0.892529 20.3582
-0.488114 0.294273 21.2106
-0.598505 0.689725 21.1309
-0.24197 0.00132536 21.4442
-0.394374 0.276224 21.4101
-0.092087 -0.120253 21.4409
-0.192089 -0.0226829 21.7267
0.004336 -0.149048 21.2793
-0.0356349 -0.155 21.6647
0.0392079 -0.203497 21.2228
-0.955785 -1.88883 19.6811
-0.737142 -1.06958 19.1856
0.0321416 -1.2336 19.2916
-0.464416 -1.2928 22.0451
0.0320004 -3.3566 21.4512
-0.0271288 -0.158721 21.9849
-0.0023387 -0.592966 22.1524
0.207242 0.283861 22.0215
-0.0076727 0.015103 21.9635
0.60056 0.929766 21.7856
0.00118171 0.67433 21.9299
0.896431 1.24457 21.5726
1.16169 1.53708 19.357
0.0413936 1.32386 21.392
1.6319 1.69757 18.9742
0.126961 1.77706 19.9144
-1.33372 -0.609483 17.958
0.0225728 -1.45455 18.1431
2.22036 1.41315 13.1278
0.578057 -1.35107 6.00664
0.0888559 0.422149 4.38298
1.81011 -0.594236 11.7571
0.569437 1.54452 5.69269
-0.838889 1.10059 19.0175
0.0489627 0.658126 16.5208
0.242702 -1.25616 16.5769
-0.115439 -0.337693 21.6401
-0.512406 0.161053 -0.621212
-0.00235941 -0.545155 20.6982
-0.203786 -0.934575 5.47621
-0.519936 1.05275 19.9845
0.00183279 0.951934 19.6729
-0.611694 1.14139 20.6646
-0.00337885 1.42479 20.1665
-0.366805 0.632886 21.3295
-0.0207264 1.23171 21.1592
-0.195355 0.0827846 21.5627
-0.0394886 0.490459 21.4981
-0.100025 -0.102271 21.5584
-0.0128634 0.0256384 21.8034
-0.00186722 -0.134243 21.4814
0.00622815 -0.135437 21.7447
0.0277012 -0.226661 21.1608
0.975523 -1.83252 19.7058
0.759061 -1.03345 19.2397
0.655591 -0.724693 19.7638
0.468094 -1.30278 22.0329
1.28768 -1.74207 20.7828
0.004853 -0.193892 21.965
0.262437 -0.63813 21.7522
-0.259761 0.276438 22.0209
-0.170803 -0.0912938 21.8513
-0.573404 0.943572 21.7749
-0.583296 0.343774 21.8518
-0.74564 1.40463 21.5443
-0.874685 1.67719 18.4407
-0.907974 0.802673 21.4982
-1.41245 2.31603 17.5711
-1.20087 1.13938 21.0215
1.35579 -0.594208 18.0377
1.04819 -0.737395 19.3261
-1.73042 1.46476 8.82657
0.128041 -1.171 -0.00917132
-1.8278 0.783267 16.6833
-1.06364 0.10549 2.1992
-2.27752 0.736177 16.3673
0.847962 1.08591 19.0336
1.48417 0.193097 18.839
0.453465 -0.822863 7.71851
0.09137 -0.262698 21.5495
-0.0841519 -0.84054 17.4424
0.0555472 -0.326496 22.0199
-0.42578 -1.50523 17.8844
0.520334 1.05493 19.9827
0.500914 0.621473 19.9306
0.603172 1.16299 20.6608
0.674779 0.903133 20.3537
0.351945 0.684182 21.3338
0.581393 0.72275 21.1298
0.148134 0.0892123 21.457
0.363098 0.316854 21.4273
0.0698443 -0.0925511 21.365
0.165785 -0.0271304 21.6823
0.0555354 -0.123153 21.3007
0.0448389 -0.153216 21.5942
-0.0536755 -0.222556 21.2297
0.958195 -0.78512 20.1765
0.782673 -0.521382 19.8408
0.823502 -0.838407 21.3356
1.57385 -1.15675 20.6725
0.126659 -0.337583 21.6654
0.506952 -0.667283 21.7128
-0.295324 -0.0242656 21.7647
-0.0956799 -0.255438 21.772
-0.710619 0.25742 21.6552
-0.653412 0.0618642 21.7937
-1.02297 0.447213 21.2034
-1.17162 0.29041 21.5711
-1.60359 0.541676 20.929
1.61487 -0.840636 19.8696
1.15218 -0.265971 19.5118
1.49088 -1.02917 21.6189
2.82561 -0.428948 20.4792
0.267755 -0.580657 21.8346
1.23922 -0.733855 21.8287
-0.365118 -0.278261 21.9391
0.226182 -0.633993 22.0323
-1.16714 -0.0614615 21.7527
-0.707283 -0.731939 21.861
-1.62652 0.0201446 21.4975
-1.23947 -0.950604 21.2687
-1.61923 -1.00581 20.5042
2.00548 0.299794 19.6183
0.851053 0.478171 19.744
2.22149 0.101242 21.2246
1.37085 0.834132 20.3159
1.34532 -0.358602 21.9717
1.29522 0.659948 21.2089
0.359275 -0.587007 22.078
0.654676 0.18715 21.7098
-0.033309 -0.924463 21.8037
0.197486 -0.211217 21.6981
-0.37316 -0.980177 21.7751
0.0372949 -0.34739 21.3534
-0.0582692 -0.524169 21.426
0.611909 0.586607 20.216
0.67431 0.603701 20.7365
0.490409 0.309889 21.2348
0.259348 0.022387 21.5563
0.103212 -0.104248 21.672
-0.00910324 -0.122486 21.5554
-1.25074 -0.887203 20.0236
-1.47598 -2.51827 19.066
-1.05874 -1.31474 19.9302
-2.15347 -1.58663 19.1355
-0.847215 -0.797018 19.5126
-2.15953 -2.47663 20.7265
-1.10955 -1.02351 21.542
-0.239132 -1.16124 21.8937
-0.719722 -1.24011 21.7676
-1.45805 -2.04792 22.2997
-0.118294 -0.756136 21.9962
-0.141509 -0.458105 21.7522
0.10283 0.0628914 18.9662
0.00422116 -0.288634 21.8401
0.0550817 -0.430901 17.9193
0.298955 -0.143156 21.5356
0.367528 -0.109074 21.8282
0.29847 0.45672 19.5027
0.34317 0.127561 21.8992
0.509786 0.0511766 18.2906
0.872897 0.442264 21.6087
0.929381 0.180667 21.6767
0.894234 1.36318 19.5182
0.777763 0.591687 21.6934
1.56773 0.369831 19.3629
1.42701 0.753744 20.9352
1.20837 0.206899 21.4293
1.4944 1.62021 18.6362
1.05601 0.777796 21.1451
1.9583 0.304505 19.7927
1.86341 0.872718 20.6874
-2.05522 -0.374812 19.6223
-4.32413 -1.30375 15.3429
-3.06315 0.756737 18.5855
-1.41042 -0.395895 18.847
-5.88571 -0.741153 20.0353
-2.11287 -0.603047 21.6401
-3.56932 0.178164 21.5987
-0.900543 -1.40593 19.142
-0.725141 -0.738666 22.0446
-2.24655 -0.804377 21.9643
0.145962 -0.113598 16.5664
0.189528 -0.629684 21.9911
-0.345691 -0.497613 19.0098
1.14847 -0.0187624 14.2104
0.94499 -0.803149 21.7378
-0.355982 -1.63141 2.29874
-0.0356633 -0.787885 19.0365
1.44427 -0.885502 18.5408
1.18936 -0.693729 21.7288
1.43627 -1.19595 9.24206
0.347311 -1.08824 21.8838
1.72413 -1.10606 20.1708
-1.16772 0.708687 19.9416
-1.30865 1.90917 19.1759
-0.61183 0.807739 20.1095
-0.933058 0.76553 19.4224
-1.64169 1.45661 20.1095
-1.37829 0.755351 20.8056
-1.72967 2.24253 20.3873
-0.657402 0.862817 20.7254
-1.5999 1.17108 21.2428
-0.987341 0.411478 21.5543
-1.31243 1.54104 21.9231
-0.505815 0.479478 21.3461
-0.747983 0.384176 21.8755
-0.364347 -0.0333908 21.6678
-0.406338 0.232185 21.9169
-0.286853 0.057876 21.7127
-0.2561 -0.15039 21.6967
-0.0641338 -0.294763 21.53
-0.184711 -0.18656 21.6883
-0.111838 -0.10824 21.7604
-0.0589175 -0.372892 21.3844
0.105767 -0.438469 21.1673
-0.0614373 -0.437057 21.1841
-0.00572608 -0.12448 21.5132
0.0582758 -0.548292 21.3822
1.4956 -2.41778 19.1168
0.0492546 -2.49127 19.492
0.0340663 -5.13985 16.3891
0.0323818 -1.45785 18.8072
0.0146701 -5.29808 22.9877
0.252899 -1.28667 22.1887
0.0201943 -1.42033 22.3585
-0.0385148 -0.262045 17.5792
-0.0916355 0.0153058 19.9354
0.00726658 -0.238546 22.0581
0.00257359 0.0791857 16.9993
-0.350967 0.455227 19.6405
-0.00359781 0.257879 21.9633
0.00944284 0.768202 17.1844
-0.789197 1.4111 19.0897
0.0095392 1.00738 21.5
0.0309136 0.147593 2.20646
0.0544635 1.39566 16.1168
-1.03232 1.82391 17.1745
0.107148 1.58222 21.3144
0.046285 0.966789 4.6472
0.371533 2.07892 15.1912
4.27808 -1.28274 15.5622
0.0521665 4.77952 12.2227
0.0471174 -0.886624 16.8003
0.892055 -1.83417 0.467037
-0.280897 0.775472 0.0891123
-0.152195 0.934209 -1.17758
-0.480535 0.0535887 1.44782
-0.329759 0.191777 1.85911
1.05292 2.4099 -2.60924
1.31564 1.89811 19.1791
-2.43395e-05 1.26834 19.8694
0.0130173 1.47229 18.6052
-0.00426221 3.25841 19.4604
1.71959 2.28959 20.3689
-0.0172876 1.45675 20.596
-0.0427432 3.43096 20.9205
1.28951 1.63963 21.9455
-0.0332943 0.886272 21.4479
-0.035511 1.16098 22.2069
0.379077 0.275812 21.9359
-0.0300079 0.160798 21.829
-0.030161 0.100614 21.7542
0.153676 -0.137448 21.6595
0.00503742 -0.106677 21.9065
-0.0552846 -0.200307 21.536
0.0300546 -0.403311 21.3509
0.0158282 -0.125042 21.7325
0.0105531 -0.519404 21.0639
1.21734 -0.85565 20.0567
1.03907 -1.23734 19.9722
2.13535 -1.54887 19.182
0.849681 -0.751147 19.5575
2.11902 -2.3533 20.7085
1.09652 -0.992905 21.499
0.74084 -1.19206 21.6893
1.47497 -2.00138 22.309
0.232943 -0.79472 21.9721
0.153746 -0.431933 21.7365
0.028364 -0.311403 21.8214
-0.0975055 -0.50315 19.1494
-0.262398 -0.193782 21.8283
-0.348278 -0.108026 21.8177
-0.34784 0.100391 21.877
-0.529863 -0.0226101 18.9581
-0.863809 0.362905 21.7423
-0.948521 0.20185 21.6815
-0.773009 0.591602 21.6824
-1.57268 0.574714 17.8779
-1.44448 0.990306 20.7656
-1.37823 0.329781 21.2803
-1.00849 0.970109 21.3231
-2.24446 0.897627 16.4339
-1.7911 1.33003 19.7738
2.02183 -0.38024 19.6492
3.03249 0.735554 18.6244
1.40266 -0.394 18.9004
5.84767 -0.771596 20.0436
2.09916 -0.607808 21.6366
3.58418 0.172692 21.6023
0.921586 -1.3807 19.46
0.700196 -0.716636 22.0337
2.2338 -0.808028 22.0633
-0.120715 -0.257057 17.2394
-0.185597 -0.613719 21.9956
0.344691 -0.486161 18.9224
-1.1285 -0.0330154 14.4006
-1.00758 -0.870033 21.5014
0.0483002 -0.585958 16.4956
-1.18635 -0.761025 12.4701
-1.40736 -0.89726 21.2295
-0.294382 -1.1933 17.7108
-1.9699 -0.741353 14.0797
1.17156 0.708949 19.9406
0.613036 0.810604 20.1064
0.93227 0.754559 19.4341
1.64581 1.4702 20.1035
1.39626 0.780077 20.7996
0.656723 0.897338 20.7169
1.61969 1.23504 21.2387
1.01491 0.437898 21.5719
0.492395 0.53137 21.362
0.757594 0.420404 21.9062
0.382676 -0.0193983 21.7018
0.248323 0.0793362 21.6967
0.256921 -0.125346 21.7087
0.0954629 -0.290108 21.5634
0.112379 -0.10602 21.6699
0.103551 -0.355467 21.5761
-0.0576389 -0.444561 21.3063
-0.0100343 -0.136149 21.5312
-0.0123129 -0.559104 20.582
-1.52018 -1.53341 19.6236
-0.927204 -1.59067 22.1738
0.128182 -0.416755 21.6444
0.514158 0.107037 21.5319
1.21021 0.65425 21.293
1.57468 0.765995 21.0408
-3.24709 -0.667465 18.4255
-2.51369 -1.23457 21.477
-0.312415 -0.848721 17.725
0.421267 0.359911 15.105
1.239 -0.587713 16.523
1.51718 -0.745943 19.6697
-1.36563 1.21189 19.627
-1.70366 1.35708 20.6669
-1.2145 0.812794 21.7352
-0.430482 0.0577147 21.8167
-0.147994 -0.270169 21.6152
0.042377 -0.461348 21.4205
0.0430142 -3.68647 18.6105
-0.0015128 -1.19602 20.8983
-0.0239084 -0.0596542 16.8547
0.0188956 0.319922 16.7455
0.02118 1.11307 16.1965
0.107292 1.66428 15.0262
0.0690013 -2.08783 10.7096
-0.0700289 -1.67353 0.335389
0.551466 2.04578 -2.48082
0.00848452 2.67983 18.7186
-0.027272 3.30069 19.9799
-0.0549654 2.36078 22.0515
-0.0320595 0.447815 22.0049
-0.0385509 -0.0398882 21.6751
-0.0014683 -0.351641 21.4997
1.48906 -1.46298 19.685
0.964561 -1.53282 22.0818
-0.0727431 -0.427125 21.7969
-0.509712 0.0534532 21.7742
-1.21711 0.745258 21.149
-1.64809 1.1144 20.5479
3.20445 -0.66842 18.4836
2.49779 -1.23395 21.4553
0.31751 -0.897384 18.122
-0.408545 0.285245 15.5199
-1.08315 -0.652003 12.4677
-1.83532 -1.11205 13.9111
1.36755 1.20595 19.628
1.71917 1.4001 20.6542
1.25288 0.892274 21.7595
0.440731 0.0833456 21.8392
0.182475 -0.236443 21.6607
0.0570561 -0.43994 21.2344
-0.424639 -0.24379 0.521298
0.0129343 -0.127681 0.555727
-0.0213782 0.00526958 0.217798
0.0215151 -0.00666415 0.0429233
-0.00467405 0.0300496 0.141131
0.0148195 0.0286261 0.991405
-0.735643 0.0962163 1.07297
-0.0316085 0.141792 0.309699
-0.178352 0.0525598 0.428971
-0.000927768 -0.024336 0.0551516
-0.179295 -0.00760465 0.501586
0.0140154 -0.0111986 0.1812
-0.0131229 -0.127633 0.554447
0.423871 -0.243485 0.520141
0.0212997 0.00521711 0.214766
0.00378598 0.028287 0.1341
-0.023513 -0.00807261 0.0468658
-0.0194667 0.032468 1.09174
0.0443456 0.205386 0.452712
0.774529 0.101011 1.13037
0.181778 0.053638 0.43703
0.142491 0.00584007 0.481676
0.00168669 -0.0236561 0.0505589
-0.0150416 -0.0101096 0.178898
-0.00870692 0.00319219 0.410726
0.000104448 6.53996e-05 0.0159772
9.82339e-19 -4.73632e-19 6.74748e-17
0 0 0
0.00138518 0.00162137 0.311146
-0.00288148 0.00144416 0.119994
0 0 0
0 0 0
-0.732098 0.0304641 0.89165
-0.000213341 0.026037 0.406391
0.0032242 0.0109292 0.0627459
-0.0312176 0.0495669 0.10082
0.0057634 0.0069673 0.0435162
0 0 0
0.00471416 0.0106841 0.0321274
0.000677376 0.000589259 0.0160008
0.00815068 0.00180886 0.384686
-0.0017196 -0.000367817 0.0402958
0.00349459 0.00148869 0.188298
0 0 0
-0.00302964 0.00976528 0.31128
1.72112e-18 -6.62243e-19 -6.65709e-17
0.0070754 0.0115553 0.540616
-5.16442e-19 6.40304e-18 6.39536e-17
0.729542 0.0296725 0.889153
0.0339384 0.054213 0.109673
-0.00110326 0.0255179 0.340646
-0.00326146 0.0110845 0.0639605
-0.00580185 0.0070329 0.0434856
-0.000699723 0.000577742 0.0153569
0 0 0
-0.00470957 0.0106777 0.0320686
-0.034746 -0.0191787 0.143284
-0.275138 -0.0688074 0.138678
3.39035e-07 -2.89131e-06 -8.17562e-05
-0.000211375 -1.20287 0.417668
-0.00111616 -0.0109632 0.129718
2.28176e-07 -2.43696e-07 -4.10896e-05
0.0135849 0.00871164 0.16427
0 0 0
-3.17709e-06 1.26359e-05 0.000898427
-0.00039846 -0.0175576 0.00272255
-0.000153304 0.00350105 0.0698696
0.000386331 0.000426978 0.0111412
-0.00165436 0.888975 0.484239
-0.000279972 0.0197989 0.0821404
-0.192188 -0.217701 1.10421
-0.0136778 0.0113423 0.0541146
-0.00199085 0.00812843 -0.0102395
-0.000115338 -0.00100231 0.015093
0 0 0
0.000838256 -0.000670187 0.0190372
0.256903 -0.0643462 0.128973
0.0223058 -0.0128263 0.0921191
3.31934e-07 -1.88655e-07 -3.22903e-05
0.00136796 -0.0059661 0.0903616
0 0 0
-0.0117993 0.00902886 0.157856
-0.00037744 0.000423369 0.0104007
8.28053e-05 0.00367113 0.0796029
0.0135919 0.0113507 0.0540687
0.185812 -0.209873 1.0739
-0.000986681 -0.000659573 0.0191144
0 0 0
0 0 0
0.000419867 9.92072e-05 0.0108363
0 0 0
-0.000435045 0.00285107 0.0560376
2.54173e-06 -2.18642e-06 -0.000146003
7.53702e-08 4.57765e-06 0.000701908
0.00105902 0.00845468 0.0677212
0.00177007 0.00765468 0.0451669
1.40137e-05 1.06358e-05 0.0019305
1.66613e-05 1.80029e-05 0.00159689
0.0318294 0.0819472 0.356016
-0.017103 0.034998 0.177432
-0.00023358 0.0210118 0.0618253
-8.63463e-05 0.0909865 0.21081
-9.36682e-06 0.00074602 0.00867998
-2.24901e-05 -5.72152e-06 0.00808944
-0.000276278 0.000105298 0.0117545
0 0 0
0 0 0
0 0 0