# vtk DataFile Version 2.0
tri_press
ASCII
DATASET UNSTRUCTURED_GRID
POINTS 3682 float
-0.647637 0.085 -1.905
-0.802023 0.135 1.765
-0.697201 0.755 -1.805
-0.495 1.405 1.70027
0.647632 0.085 -1.905
0.802772 0.135 1.765
0.697197 0.755 -1.805
0.495 1.405 1.70033
-0.692353 0.108413 -0.681667
-0.749106 0.119788 0.541667
-0.75232 1.09419 -0.636577
-0.6732 1.29913 0.531847
0.705714 0.0952981 -0.681667
0.765599 0.103793 0.541667
0.752312 1.09418 -0.636557
0.673193 1.29913 0.531887
-1.34362 -0.51713 -2.8805
-1.34996 -0.393667 -1.92382
-1.37826 -0.374576 -0.699069
-1.40276 -0.41071 0.53673
-1.42291 -0.410592 1.76241
-1.44051 -0.353041 2.72365
-1.45753 -0.267341 3.67645
-1.35145 -0.086384 -2.85024
-1.36089 0.0714731 -1.89955
-1.39597 0.140516 -0.685486
-1.40396 0.156069 0.533521
-1.40198 0.17737 1.74864
-1.43571 0.236854 2.7091
-1.46313 0.318872 3.6637
-1.37779 0.711469 -2.7743
-1.40346 0.860543 -1.82135
-1.43435 1.12799 -0.644715
-1.34616 1.30827 0.528027
-1.22186 1.40554 1.70571
-1.34538 1.45726 2.66846
-1.44038 1.51809 3.63191
-1.40058 2.14227 -2.70168
-1.41488 2.32546 -1.75695
-1.42643 2.6368 -0.598112
-1.40424 2.9267 0.548892
-1.37886 3.1151 1.70831
-1.40365 3.20569 2.65424
-1.45511 3.273 3.61169
-0.653497 -0.510548 -2.88404
-0.651442 -0.381364 -1.92898
-0.673477 -0.390349 -0.69837
-0.704611 -0.442166 0.543678
-0.739516 -0.445866 1.77455
-0.768008 -0.379336 2.73189
-0.786263 -0.28583 3.68123
-0.657565 -0.0923781 -2.85132
-0.796864 0.214571 2.71591
-0.806569 0.303271 3.6673
-0.677328 0.664355 -2.76751
-0.723503 1.45172 2.66739
-0.801642 1.51158 3.63169
-0.698135 2.10483 -2.69496
-0.70966 2.28779 -1.74955
-0.730195 2.61929 -0.593643
-0.733598 2.92904 0.548371
-0.730559 3.12286 1.7045
-0.758887 3.21116 2.65044
-0.805601 3.2753 3.60893
0.700742 -0.51298 -2.88403
0.687631 -0.384727 -1.92898
0.728651 -0.401215 -0.698367
0.778507 -0.454841 0.543682
0.786743 -0.450443 1.77456
0.668874 -0.383173 2.73191
0.597174 -0.290206 3.68125
0.692021 -0.0937489 -2.85132
0.607535 0.212042 2.71593
0.552545 0.299458 3.66733
0.703781 0.663469 -2.7675
0.496652 1.44976 2.66742
0.493446 1.50827 3.63172
0.70487 2.10278 -2.69495
0.702015 2.28586 -1.74953
0.675315 2.61705 -0.593623
0.614967 2.9264 0.548399
0.551753 3.11997 1.70454
0.517633 3.20791 2.65047
0.491323 3.27163 3.60896
1.39041 -0.522987 -2.88049
1.38275 -0.401638 -1.92381
1.42884 -0.391717 -0.699055
1.47788 -0.430855 0.536748
1.47308 -0.422595 1.76243
1.37719 -0.362331 2.72368
1.29865 -0.276671 3.67649
1.38044 -0.0904885 -2.85022
1.36493 0.0667831 -1.89954
1.41467 0.124879 -0.68547
1.44542 0.136307 0.533547
1.42492 0.167612 1.74867
1.31802 0.229281 2.70915
1.25097 0.310472 3.66374
1.39481 0.708624 -2.77429
1.39841 0.858615 -1.82134
1.43149 1.12238 -0.644682
1.35654 1.30004 0.528085
1.21621 1.39908 1.70579
1.18308 1.45116 2.66852
1.17251 1.5107 3.63197
1.4026 2.13772 -2.70165
1.40083 2.32099 -1.75692
1.3737 2.63158 -0.598073
1.30096 2.92061 0.548946
1.21883 3.10857 1.70837
1.17848 3.19868 2.6543
1.15532 3.26536 3.61175
-0.720121 0.42 -1.9027
-2.5034e-06 0.0874221 -1.90258
-0.678489 0.0882121 -1.29333
-0.773879 0.77 1.858
0.000374496 0.136708 1.76329
-0.770071 0.132888 1.15333
-1.99676e-06 0.822115 -1.87211
-0.734371 0.934203 -1.22079
0 1.44598 1.74128
-0.606508 1.37447 1.11606
0.720249 0.42 -1.90283
0.678593 0.0882286 -1.29333
0.773915 0.77 1.85769
0.770528 0.133054 1.15333
0.734338 0.934174 -1.22078
0.606511 1.37448 1.11611
-0.718911 0.115919 -0.07
-0.88237 0.601299 -0.659122
0.00668067 0.100274 -0.681667
-0.881721 0.709461 0.536757
0.00824668 0.106801 0.541667
-0.714869 1.19877 -0.0523649
-3.8073e-06 1.21618 -0.636567
-3.84767e-06 1.49432 0.531867
0.735032 0.10017 -0.07
0.882623 0.594739 -0.659112
0.882457 0.70146 0.536777
0.714877 1.19878 -0.052335
-0.888569 0.51065 -1.25706
0.888468 0.50737 -1.25706
0.00333908 0.0867109 -1.29333
-2.90203e-06 0.972447 -1.22078
-2.25008e-06 0.42 -2.16033
-0.890164 0.65538 -0.0611825
0.890098 0.6481 -0.0611675
0.00746368 0.103446 -0.07
-3.82749e-06 1.44992 -0.05235
-0.866257 0.73973 1.1347
0.867714 0.73573 1.13472
0.00431059 0.123423 1.15333
-1.92384e-06 1.48518 1.11608
0.000187248 0.77 2.0697
-0.70325 0.2525 -1.92322
-0.32382 0.081597 -1.9084
-0.664289 0.0853797 -1.59917
-0.81853 0.4525 1.84208
-0.400824 0.137112 1.76289
-0.770516 0.149475 1.45917
-0.734473 0.5875 -1.87966
-0.348602 0.797483 -1.84748
-0.733362 0.862178 -1.51289
-0.664705 1.0875 1.8094
-0.2475 1.44035 1.73563
-0.562956 1.40194 1.40816
0.323815 0.0815902 -1.90841
0.703214 0.2525 -1.92319
0.664343 0.0853841 -1.59917
0.401573 0.137086 1.76291
0.819126 0.4525 1.84213
0.77188 0.148797 1.45917
0.348598 0.798654 -1.84865
0.734565 0.5875 -1.87976
0.73336 0.86218 -1.51289
0.2475 1.44039 1.73571
0.664543 1.0875 1.8091
0.562945 1.40193 1.40822
-0.692571 0.0911629 -0.9875
-0.703476 0.114322 -0.375833
-0.862765 0.317154 -0.670394
-0.341989 0.106038 -0.681667
-0.76091 0.125016 0.8475
-0.734033 0.117829 0.235833
-0.864773 0.389945 0.539212
-0.369455 0.115244 0.541667
-0.735774 1.00662 -0.928683
-0.844137 0.861138 -0.647849
-0.734566 1.14745 -0.344471
-0.394894 1.19265 -0.636572
-0.640129 1.33708 0.823953
-0.785037 1.00809 0.534302
-0.695368 1.25028 0.239741
-0.379042 1.48161 0.531857
0.692789 0.0911279 -0.9875
0.357185 0.0958111 -0.681667
0.720523 0.0975835 -0.375833
0.86318 0.310513 -0.670389
0.769129 0.117358 0.8475
0.386503 0.106137 0.541667
0.75012 0.102177 0.235833
0.863728 0.382777 0.539222
0.735658 1.00651 -0.928668
0.394878 1.19263 -0.636562
0.845032 0.858242 -0.647834
0.734576 1.14746 -0.344446
0.640125 1.33708 0.823998
0.378979 1.48149 0.531877
0.787033 1.0049 0.534332
0.69537 1.25029 0.239776
-0.870431 0.465325 -1.57988
-0.360061 0.42 -2.12676
0.00166829 0.0839822 -1.59796
-2.37674e-06 0.253711 -2.15066
-0.877134 0.299431 -1.2752
-0.337575 0.0867294 -1.29333
-0.860675 0.754865 1.49635
-0.386846 0.77 2.03599
0.00234254 0.12978 1.45831
0.000280872 0.453354 2.15438
-0.878017 0.436309 1.14401
-0.38288 0.123942 1.15333
-2.44939e-06 0.908373 -1.54645
-2.12342e-06 0.621057 -2.10004
-0.895149 0.722426 -1.23892
-0.367187 0.963905 -1.22079
-9.61918e-07 1.46606 1.42868
9.3624e-05 1.10799 1.96815
-0.745557 1.0571 1.12538
-0.303255 1.47788 1.11607
0.870289 0.463685 -1.57995
0.360123 0.42 -2.12644
0.876204 0.297799 -1.27519
0.340966 0.0867267 -1.29333
0.861332 0.752865 1.49621
0.387051 0.77 2.03641
0.877982 0.434392 1.14403
0.387419 0.123918 1.15333
0.895171 0.720772 -1.23892
0.367168 0.963879 -1.22078
0.747353 1.0551 1.12541
0.303254 1.47794 1.1161
-0.866815 0.354511 -0.0655912
-0.355373 0.110383 -0.07
-0.890491 0.555975 -0.958091
-0.886539 0.62834 -0.360152
0.00500988 0.0894589 -0.9875
0.00707217 0.10186 -0.375833
-0.886699 0.682421 0.237787
-0.872571 0.724596 0.835726
0.00785518 0.105033 0.235833
0.00627863 0.112006 0.8475
-0.831552 0.941592 -0.0567737
-0.411553 1.43258 -0.0523575
-3.35466e-06 1.04881 -0.928675
-3.81739e-06 1.36299 -0.344458
-3.83758e-06 1.48109 0.239758
-2.88575e-06 1.49419 0.823975
0.865653 0.347591 -0.0655837
0.371668 0.100967 -0.07
0.89053 0.551055 -0.958084
0.886412 0.62142 -0.36014
0.887101 0.67478 0.237805
0.872953 0.718595 0.835749
0.833209 0.9388 -0.0567512
0.411587 1.43265 -0.0523425
-0.860661 0.275965 -1.58952
-0.883299 0.327144 -0.972796
-0.853574 0.785084 -0.943387
-0.855815 0.654963 -1.54639
0.860677 0.27515 -1.58956
0.856175 0.654136 -1.54642
0.854161 0.782616 -0.943376
0.88327 0.321409 -0.972792
-0.330697 0.0839412 -1.59856
0.33239 0.0839391 -1.59856
0.348582 0.0895295 -0.9875
-0.340206 0.089536 -0.9875
-0.357894 0.892372 -1.52967
-0.371674 1.0239 -0.928679
0.371661 1.02378 -0.928671
0.357883 0.889709 -1.52967
-0.341941 0.253106 -2.11713
-0.354331 0.604279 -2.07433
0.35436 0.604279 -2.07443
0.341969 0.253106 -2.11713
-0.864425 0.336015 -0.367993
-0.865679 0.372285 0.23681
-0.808249 0.974816 0.238764
-0.840275 0.902581 -0.352311
0.863796 0.329362 -0.367987
0.841455 0.899688 -0.352293
0.81193 0.972753 0.23879
0.864706 0.365176 0.236819
-0.348681 0.108211 -0.375833
0.364426 0.09839 -0.375833
0.379087 0.103549 0.235833
-0.361972 0.113699 0.235833
-0.416309 1.33878 -0.344465
-0.399719 1.46594 0.23975
0.399682 1.46587 0.239767
0.416284 1.33874 -0.344452
-0.863624 0.425467 0.841613
-0.868576 0.444405 1.47776
-0.731035 1.0723 1.45226
-0.76892 1.0307 0.82984
0.863119 0.418509 0.841624
0.771625 1.0277 0.829873
0.731471 1.0713 1.45221
0.868524 0.443446 1.47769
-0.376655 0.114984 0.8475
0.387171 0.109693 0.8475
0.394496 0.130365 1.45874
-0.391852 0.130394 1.45874
-0.319928 1.48708 0.823964
-0.275377 1.45984 1.41842
0.275377 1.45986 1.41845
0.319924 1.48698 0.823986
-0.393835 0.452927 2.12671
0.394312 0.452927 2.12664
0.317276 1.09774 1.95271
-0.317173 1.09774 1.95256
-0.671917 0.16875 -1.91058
-0.485728 0.0816084 -1.90839
-0.656653 0.0844998 -1.75208
-0.818613 0.29375 1.81188
-0.601424 0.13194 1.76806
-0.768981 0.159526 1.61208
-0.720165 0.67125 -1.84666
-0.522901 0.786765 -1.83677
-0.724947 0.818254 -1.65895
-0.572754 1.24625 1.74774
-0.37125 1.43079 1.72607
-0.535164 1.40966 1.55422
0.485723 0.0816017 -1.9084
0.671863 0.16875 -1.91054
0.656679 0.0845002 -1.75208
0.602173 0.131961 1.76804
0.818563 0.29375 1.81118
0.771044 0.15818 1.61208
0.522897 0.786822 -1.83682
0.720138 0.67125 -1.84664
0.724905 0.818216 -1.65894
0.37125 1.43068 1.72601
0.572919 1.24625 1.74786
0.535192 1.40968 1.55427
-0.691298 0.100952 -0.834583
-0.695734 0.113548 -0.52875
-0.854989 0.174069 -0.676031
-0.517087 0.107392 -0.681667
-0.754806 0.122604 0.694583
-0.741669 0.118709 0.38875
-0.859013 0.22883 0.540439
-0.559837 0.116403 0.541667
-0.753044 1.0594 -0.78263
-0.790478 0.973787 -0.642213
-0.743395 1.12077 -0.490524
-0.583732 1.16367 -0.636574
-0.656812 1.31825 0.6779
-0.736275 1.15719 0.533074
-0.684774 1.2752 0.385794
-0.560972 1.46007 0.531852
0.697336 0.095129 -0.834583
0.531276 0.0959005 -0.681667
0.713174 0.0963852 -0.52875
0.861914 0.164172 -0.676028
0.764436 0.113504 0.694583
0.576946 0.103175 0.541667
0.756883 0.103961 0.38875
0.855127 0.223053 0.540444
0.752907 1.05927 -0.782612
[...]
POINT_DATA 3682
SCALARS point_scalars float 1
LOOKUP_TABLE default
-120.614
-63.3343
-22.8932
-43.6872
-120.208
-63.0176
-22.8488
-43.0579
-45.8415
-43.1759
-95.3722
-62.8544
-45.9725
-43.5501
-95.4579
-62.6842
-37.2213
-92.6517
-55.0817
-46.9711
-61.4593
-51.2883
-45.1874
13.5887
-72.7281
-49.7553
-45.9003
-58.108
-47.154
-44.286
38.1606
-65.9591
-62.1997
-59.2418
-46.6654
-41.5655
-41.0861
-31.0907
-40.858
-97.2941
-67.5176
-45.0284
-44.6358
-42.8874
-88.9776
-166.229
-46.1403
-42.8608
-60.3657
-47.8804
-44.5927
113.627
-44.3613
-44.0484
158.154
-38.624
-38.3807
-10.7218
-28.9715
-96.9004
-68.8076
-43.8369
-42.7193
-40.786
-54.5228
-164.191
-45.7197
-44.1097
-62.4449
-48.3866
-44.357
113.786
-44.1271
-44.2517
157.764
-35.3476
-36.2385
-10.9464
-28.8034
-92.7614
-69.4409
-44.8996
-40.9362
-39.0699
-62.3163
-106.016
-46.0739
-42.7509
-61.1888
-51.0102
-44.5232
12.0484
-64.1546
-49.183
-43.6934
-57.7762
-46.8857
-43.9903
37.8977
-65.8808
-62.4332
-58.876
-46.0879
-39.7701
-40.5036
-30.9727
-40.701
-96.5122
-67.3623
-44.5266
-43.7327
-42.3755
-14.1883
-146.854
-66.5837
-48.9163
-55.577
-46.3417
-31.0646
-42.5019
-38.1739
-53.2886
-14.3463
-65.5368
-48.3951
-46.0849
-42.4415
-53.0113
-41.4949
-51.8305
-47.5683
-49.5966
-44.5081
-75.4877
6.68321
-75.0059
-42.3474
-51.6192
-49.1355
-75.4474
-74.8773
-74.391
-66.4074
-1.22926
205.402
-50.8491
-51.2657
-42.8438
-99.2655
-47.7084
-47.5035
-46.8888
-56.2187
-42.08
-30.7232
-153.996
-91.8002
-54.7751
-57.2058
-47.871
-20.645
-33.0871
-44.4678
-42.8106
-39.4986
-49.3749
-153.77
-31.2583
-91.2535
-56.9371
-54.4331
-47.6425
-34.7963
-20.5225
-44.4123
-39.0712
-42.1199
-48.9906
-55.0603
-41.8738
-48.8662
-47.047
-43.9773
-42.1421
-45.3253
-43.2882
-35.3917
-63.0602
-85.56
-1.12381
-57.7607
-56.9965
-67.9783
-72.0983
-53.0915
-47.0791
-43.8233
-48.8429
-44.8368
-44.0731
-41.8914
-44.7976
-35.6745
-1.06831
-62.8884
-85.5872
-57.5475
-71.9714
-56.7211
-67.8805
-103.908
179.119
-87.316
133.887
-74.7096
-66.1174
-53.7045
-41.6583
-49.2544
-44.2825
-47.1001
-46.7817
-19.3768
138.303
-76.2183
-6.63957
-47.2927
-32.3796
-50.6453
-56.0758
-103.905
179.123
-73.7159
-65.579
-53.2848
-41.3489
-46.9291
-46.3453
-76.2832
-6.65463
-50.4042
-55.9417
-45.6345
-42.3152
-60.7798
-50.3321
-55.9726
-44.2186
-49.5635
-47.6039
-42.9203
-45.8603
-62.3603
-97.0048
24.3844
-53.5169
-86.944
-65.467
-46.1392
-42.7233
-60.498
-50.5794
-49.3396
-47.2924
-62.2146
-97.1557
-108.463
-59.5245
-62.4053
-66.2819
-108.913
-66.7035
-62.2499
-59.1229
-85.605
-85.3281
-55.0214
-55.9763
-22.2624
14.9854
14.9061
-21.1907
116.485
111.957
112.191
116.516
-45.5685
-45.4393
-59.4619
-63.6435
-46.4933
-63.3699
-59.2958
-45.1854
-43.4042
-44.1335
-42.7295
-42.3108
-51.7701
-83.0628
-82.9698
-51.5721
-44.0767
-50.6028
-49.8613
-53.5995
-43.7772
-53.4564
-49.3581
-50.3642
-45.3647
-45.9059
-48.8605
-49.2354
-64.2636
-47.9904
-47.7972
-64.131
-44.1621
-44.0698
-34.5384
-35.4352
-45.8482
-172.305
-117.007
-60.1564
-60.6045
-49.4599
-17.6803
-25.5278
-50.7541
-41.3765
-41.1347
-46.0463
-172.047
-46.1114
-116.72
-60.2324
-59.915
-48.8789
-25.914
-17.5623
-50.6748
-40.5752
-40.7506
-45.5629
-52.7425
-43.0836
-47.7992
-46.1837
-43.6531
-42.6013
-45.572
-42.8038
-62.9571
-76.0308
-93.6172
-10.7237
-60.3884
-59.8746
-65.1521
-67.7924
-49.6173
-46.5461
-45.283
-45.4524
-44.3748
-44.2244
-42.2711
-43.4776
-62.8051
-10.6748
-75.9929
-93.6321
-60.1978
-67.6663
-59.6542
-65.0211
-14.7054
-20.4584
-64.3207
108.462
-153.035
-152.944
-110.059
5.14314
-77.536
-59.5616
-73.3279
-65.623
-50.8115
-46.5697
-53.6665
-42.128
-56.0505
-55.9213
-51.8354
-45.6269
-45.7644
-45.4566
-45.7465
-46.4911
-37.413
-38.5629
-32.9996
50.6008
-40.8575
-35.3665
-66.6273
-14.9269
-38.5596
-38.342
-42.3676
-35.0839
-51.5272
-55.4668
-52.0518
-55.5044
-15.0012
-20.5264
-64.4217
108.114
-76.7391
-58.204
-72.0981
-64.8427
-50.4099
-45.8861
-53.441
-41.7236
-45.6439
-45.9652
-45.6556
-45.7951
-40.6813
-35.3233
-66.4739
-14.962
-51.2181
-55.2245
-51.7723
-55.2812
-41.3882
-42.1026
-43.626
-41.7382
-49.8914
-55.5905
-54.4847
-50.791
-47.4035
-47.4804
-51.9983
-45.6511
-46.9974
-52.6768
-49.7003
-48.5638
-44.3464
-44.466
-43.4294
-44.577
-79.736
-71.5452
-68.0338
-94.9172
3.69468
3.84355
22.5093
-21.1653
-74.3518
-74.3186
-81.163
-70.6804
-42.9969
-42.0526
-44.9222
-42.4755
-49.9021
-55.516
-54.3066
-50.7122
-46.3176
-52.6482
-49.2155
-48.1032
-79.7422
-71.4842
-67.8686
-94.9041
-91.8538
-75.2453
-75.6355
-66.356
-91.1557
-74.6303
-75.2427
-65.9682
-74.5565
-66.4183
-66.1257
-60.4772
-11.2928
-2.43873
-2.17809
11.5827
199.549
190.064
183.119
199.417
-47.6786
-50.3147
-50.2493
-55.7151
-48.2484
-50.7002
-50.3618
-55.6858
-42.6221
-43.3135
-42.6796
-42.8587
-99.1056
-92.7928
-95.0253
-99.276
-50.8506
-46.9689
-49.8685
-47.1872
-50.4496
-46.6995
-49.511
-46.8647
-47.4437
-46.8999
-46.7
-46.7144
-51.9364
-56.1942
-56.1533
-60.8881
-41.7881
-43.7004
-37.4062
-41.6809
-64.1053
92.453
-111.954
40.2718
-89.8989
-86.2742
-55.5365
-44.2449
-52.2536
-45.9776
-49.1946
-48.8045
-61.4208
83.1138
-33.1869
54.9629
-58.0566
-27.1499
-47.2216
-37.9747
-43.4476
-36.6525
-49.4737
-48.3966
-111.71
40.0398
-65.1352
93.3167
-91.8224
-85.8407
-51.9443
-45.3427
-55.2771
-44.0156
-48.988
-48.3001
-33.0395
54.6945
-61.4387
82.9646
-58.2017
-26.5973
-43.1745
-36.1739
-46.6625
-37.3223
-49.0076
-48.1142
-57.4924
-55.7336
-43.3537
-42.5953
-54.4045
-46.4445
-52.1668
-44.8623
-44.4731
-44.9936
-43.5304
-41.9792
-45.436
-45.0047
-42.7233
-44.2048
-66.0979
0.778224
-61.9819
-63.1927
-72.5953
-76.0911
15.2931
-24.6301
-55.4984
-62.327
-58.2264
-55.1986
-63.0537
-77.0456
-77.5454
-68.7549
-57.0892
-54.1385
-50.9787
-45.4758
-45.6541
-43.8334
-54.2795
-47.1932
-44.5457
-45.9148
-43.199
-44.4262
-42.8794
-42.3765
-45.1309
-44.6002
-65.948
1.11793
15.4121
-24.6281
-61.7929
-63.024
-72.4672
-76.2929
-55.2649
-62.2718
-77.4838
-68.6775
-58.2669
-54.9124
-62.9129
-76.8824
-107.923
-90.0967
162.164
170.763
-86.6027
-86.3735
128.07
125.877
-89.5182
-65.1253
-74.3186
-60.2709
-51.4978
-51.4465
-42.741
-38.2138
-49.1226
-49.3152
-44.2605
-44.227
-45.4672
-49.7052
-46.5209
-47.2796
-20.39
-19.7066
122.005
122.759
-66.8866
-82.0821
-14.876
3.70958
-47.5812
-47.4773
-32.6396
-33.2347
-50.6357
-52.1989
-60.0318
-52.1403
-107.977
-89.1439
170.744
162.147
-88.5109
-64.3081
-73.9072
-59.5467
-50.7771
-51.2511
-42.5626
-37.5059
-45.3012
-49.4905
-46.8304
-46.8705
-82.5426
-66.8631
3.7457
-14.6731
-51.8739
-50.2411
-51.9932
-59.9189
-45.389
-45.7763
-42.552
-42.0208
-60.0286
-61.4225
-47.3694
-55.3022
-55.6255
-56.0686
-43.9533
-44.2607
-47.1126
-52.0955
-45.6646
-50.1443
-42.9137
-42.711
-45.6311
-45.9201
-61.0375
-62.9946
-89.4997
-91.1973
22.3443
22.4017
-51.5708
-51.707
-85.9404
-85.886
-65.2221
-65.1249
-46.3568
-45.4957
-43.2269
-42.5278
-61.214
-59.7317
-47.9939
-55.3033
-51.9617
-46.8772
-45.4015
-49.8133
-62.8527
-60.734
-91.1274
-89.6022
-71.9226
-88.9035
-90.8108
-66.2832
-54.4123
-54.7835
-65.815
-63.7102
-76.9925
-63.4901
-66.7033
-56.4414
-64.0124
-60.5003
-92.0222
-62.5073
-72.7275
-66.638
-89.642
-85.7615
-63.9141
-62.0976
-91.2677
-60.5486
-77.0593
-56.2514
-66.5489
-63.3601
-53.0843
-63.2722
-65.1937
-54.569
-117.363
-110.032
-74.5844
-74.1691
-117.149
-73.5971
-74.3503
-109.83
-50.1997
-51.6164
-60.1478
-58.6296
-52.2351
-59.7136
-60.5178
-52.1258
-35.9948
-21.0724
-12.1934
-33.4148
1.30878
20.746
9.21243
-9.05182
1.43715
-9.33719
9.16332
20.7989
-35.8339
-33.1276
-12.2582
-20.9202
33.5568
107.538
185.297
25.6998
53.8812
57.5836
180.717
123.254
53.844
123.12
180.059
55.3153
33.1747
25.9616
185.287
107.107
-44.033
-42.9712
-47.0673
-48.19
-43.9801
-46.9687
-47.2936
-44.5852
-61.3031
-65.294
-54.4588
-54.0584
-73.9536
-55.5134
-55.2122
-70.389
-47.1572
-48.5293
-48.0096
-45.0879
-73.8362
-70.2813
-55.2468
-55.4514
-61.1037
-53.1765
-54.3762
-65.1614
-43.3264
-43.0528
-47.463
-46.5601
-44.287
-45.4061
-43.0665
-41.9207
-45.0894
-42.9905
-43.3432
-45.6415
-42.8795
-43.4077
-42.6877
-42.2004
-42.3592
-41.7757
-42.4644
-43.2109
-46.1859
-101.414
-92.5329
-21.7781
-71.9815
-80.6097
-94.2887
-84.2502
-71.6081
-84.2818
-94.1838
-80.5818
-46.1756
-22.033
-92.5522
-101.437
-41.8659
-47.5744
-45.2455
-46.7548
-53.7645
-56.7738
-50.5392
-48.3599
-46.29
-49.9406
-50.7386
-50.0917
-57.57
-50.975
-49.5853
-53.758
-43.3788
-45.9953
-44.978
-47.1303
-57.3222
-53.5146
-49.3303
-50.5266
-45.7247
-49.9321
-50.3757
-49.6073
-53.5911
-48.1754
-50.2849
-56.387
-43.1142
-44.4004
-46.7177
-46.1481
-43.0778
-46.7193
-46.858
-44.6041
-51.8184
-51.8208
-47.2467
-46.2017
-52.2079
-46.8149
-47.4704
-51.9842
-64.8705
-59.0062
-60.7836
-70.2265
-44.4236
-42.7078
-52.059
-52.0903
-44.1005
-51.8681
-51.9778
-42.5562
-64.6802
-70.1894
-60.7263
-58.8403
-46.4507
-45.6144
-43.5726
-43.0066
-46.2192
-42.7587
-43.523
-45.5416
-37.5143
-35.3309
-37.3434
-39.5632
-38.0558
-40.1918
-37.675
-35.6112
-71.5828
-163.629
-152.76
-66.5256
-64.1632
-46.6082
-20.3953
-18.6315
-49.4366
-41.4485
-42.2724
-44.6646
-163.339
-71.279
-152.488
-63.852
-66.2223
-46.0893
-18.5513
-20.3595
-49.5053
-41.6593
-40.8315
-44.1012
-48.6028
-44.7498
-45.2025
-45.781
-43.0202
-42.5886
-47.1413
-42.791
-88.8391
-87.3478
-103.43
-48.6809
-61.7247
-61.5213
-63.8234
-65.0553
-46.9445
-46.3333
-46.1955
-43.9639
-44.7413
-44.2434
-42.0046
-42.5426
-88.8191
-48.5542
-87.4025
-103.504
-61.546
-64.8949
-61.3325
-63.6756
-13.8074
-19.0779
-60.9942
52.4617
-149.77
-149.732
-131.735
-93.9949
-71.6881
-62.6117
-71.9449
-65.5036
-49.7336
-48.3046
-51.671
-43.7138
-56.0466
-55.987
-53.6708
-49.04
-46.8965
-45.1444
-45.4936
-46.2649
-33.5292
-34.2294
-40.8182
-2.60674
-40.8051
-39.3269
-58.7728
-23.4944
-38.3037
-38.1911
-40.0528
-35.5725
-52.231
-54.0481
-52.6403
-54.9936
-14.0063
-19.1239
-61.1684
52.2624
-70.7821
-61.4179
-72.5697
-64.6149
-49.3024
-47.6933
-51.1698
-43.2551
-46.2455
-44.6382
-45.4533
-45.5594
-40.7032
-39.241
-58.6643
-23.4845
-51.9553
-53.7918
-52.3602
-54.7097
-41.2498
-42.0597
-40.9678
-41.586
-50.6185
-53.6572
-52.6758
-51.2902
-47.5127
-47.6212
-49.2615
-46.6377
-48.2226
-50.7436
-49.9179
-49.1095
-44.464
-44.5188
-43.8323
-44.5296
-77.5302
-73.4226
-71.4029
-85.2291
4.90143
5.15366
15.5201
-6.30743
-74.8659
-74.8567
-77.7725
-73.1324
-42.3486
-42.1429
-43.4065
-42.352
-50.3907
-53.5428
-52.5397
-51.3688
-47.5526
-50.6005
-49.3198
-48.6819
-77.5094
-73.3745
-71.3189
-85.1844
-81.919
-74.8696
-74.9586
-70.0812
-81.5155
-74.391
-74.5194
-69.6553
-70.2093
-66.4269
-66.3006
-63.1763
-5.78349
-1.5403
-1.2534
3.47262
206.649
202.663
201.285
205.279
-49.1935
-50.5576
-50.6807
-52.9916
-49.8774
-50.9551
-50.8236
-53.113
-42.7622
-43.0128
-42.7427
-42.8917
-99.5462
-99.2272
-97.7306
-99.5938
-48.8731
-46.976
-48.9558
-47.3168
-48.6239
-46.7904
-48.658
-46.9522
-47.162
-46.9245
-46.8125
-46.2418
-54.1734
-56.1908
-56.1847
-58.3846
-41.8723
-41.7399
-41.062
-41.841
-46.3519
-20.2555
-72.335
36.5982
-160.431
-153.633
-140.921
-94.3229
-102.331
-84.6471
-101.273
-87.1303
-57.0024
-52.9196
-58.8047
-46.1691
-58.1067
-56.4133
-54.5791
-48.0926
-49.9619
-47.3906
-48.0968
-48.0461
-18.9668
-22.9855
-56.1506
41.5927
-28.0964
-37.6773
-37.1372
-1.48478
-43.4944
-46.1177
-56.7512
-31.6578
-41.7448
-44.3246
-45.1994
-39.4566
-40.1773
-38.9642
-41.0006
-37.1202
-47.497
-50.2018
-49.3443
-48.9734
-160.164
-153.51
-140.718
-94.2674
-46.7308
-20.6474
-72.6042
36.709
-101.91
-83.9641
-104.261
-86.6791
-57.7798
-56.2008
-54.2958
-48.7218
-56.7223
-52.5474
-58.4323
-45.8758
-49.4481
-46.525
-47.9071
-47.6566
-29.1519
-39.1828
-38.4217
-1.20004
-18.8351
-23.0116
-56.4762
41.4471
-43.3568
-45.9645
-56.743
-31.42
-39.6761
-38.6406
-40.6777
-36.6444
-41.0921
-43.6255
-44.5919
-38.8555
-47.0273
-49.8501
-48.9116
-48.642
-55.1387
-56.7606
-57.742
-55.5023
-42.3284
-41.5784
-41.2299
-42.1804
-48.237
-49.3058
-52.5713
-47.3144
-46.7376
-47.1554
-49.2869
-45.8788
-43.0594
-44.5772
-45.3418
-44.5597
-42.1289
-42.0008
-42.9127
-41.958
-44.9057
-46.0111
-45.3717
-45.1787
-42.8552
-44.0494
-43.017
-43.6248
-42.7769
-31.7907
-63.3822
-7.76296
-68.7954
-58.5364
-62.0155
-62.4262
-89.6999
-82.2153
-77.6806
-105.404
-5.84498
1.67803
10.3041
-11.2269
-59.0738
-56.5149
-56.59
-58.8629
-58.0764
-54.4367
-57.6208
-56.0119
-66.3479
-69.741
-65.404
-72.3291
-70.4629
-73.5052
-74.5266
-70.5089
-51.8585
-55.1944
-57.3602
-53.626
-46.7565
-47.3787
-48.3462
-46.4273
-44.3322
-43.0033
-44.6812
-43.7565
-48.464
-49.364
-52.4247
-47.8476
-43.6366
-45.8759
-46.0042
-45.4674
-43.8389
-44.3451
-43.5447
-44.1694
-41.9102
-41.8243
-42.5917
-42.1478
-44.4041
-45.5104
-44.8713
-44.6951
-42.7226
-31.83
-63.3011
-7.75892
-5.72291
1.83118
10.6373
-11.2823
-68.7627
-58.4047
-61.9132
-62.3193
-89.7274
-82.2449
-77.621
-105.533
-58.876
-56.2946
-56.3667
-58.7081
-70.2749
-73.4359
-74.4103
-70.4048
-57.827
-54.3309
-57.6375
-55.7116
-66.2329
-69.6607
-65.2725
-72.2232
-84.8856
-99.8902
-105.442
-97.955
152.799
194.639
171.064
181.697
-96.4091
-80.2316
-87.0985
-87.0516
82.4246
169.82
131.97
132.022
-74.173
-75.2963
-80.8445
-69.1385
-65.8946
-66.3173
-70.2244
-63.2644
-55.0739
-52.2022
-52.2886
-52.9642
-41.6543
-41.607
-41.0096
-40.5725
-50.425
-48.246
-49.1957
-49.2902
-44.6398
-44.6205
-44.2396
-44.2148
-46.7715
-47.1749
-46.5879
-48.5147
-46.7155
-46.8694
-46.3521
-47.0467
-24.8651
-15.0277
-19.7749
-19.3528
96.044
160.558
129.925
131.525
-70.5538
-77.736
-71.9925
-80.6346
-10.0897
-4.36766
-10.9365
-4.531
-44.8811
-49.5959
-47.4093
-47.3578
-33.7286
-33.3514
-32.3277
-32.6371
-51.4719
-50.6739
-49.7208
-51.4925
-55.8505
-56.2189
-58.0048
-54.1586
-85.0522
-102.092
-105.526
-97.2294
152.659
194.575
181.787
171.021
-72.9269
-74.5388
-79.8565
-68.1544
-65.218
-65.9012
-69.5188
-62.3446
-54.8009
-51.844
-52.3742
-51.9775
-41.264
-41.3967
-40.671
-40.1427
-46.6158
-46.9712
-46.4683
-48.3197
-46.124
-46.5422
-45.7535
-46.557
-71.1113
-77.4378
-79.8889
-71.9082
-10.1185
-4.27368
-4.06139
-10.9355
-51.2186
-50.3923
-51.4161
-49.4681
-55.6674
-56.1303
-54.0191
-57.8804
-44.5797
-46.542
-45.4565
-45.7726
-41.947
-42.4171
-42.3284
-42.2015
-57.814
-63.1007
-60.2648
-61.4262
-50.4615
-50.2187
-48.737
-52.5338
-54.3859
-58.0177
-55.8352
-56.122
-44.8424
-43.6942
-44.1204
-44.274
-49.4689
-49.8991
-48.324
-50.7318
-48.0312
-47.2921
-46.6307
-48.7284
-43.114
-42.7803
-42.9514
-42.8461
-45.1548
-46.9071
-45.7578
-45.9021
-65.7829
-58.3916
-61.8348
-62.611
-94.42
-98.2332
-97.4121
-94.3991
25.0374
17.497
23.874
23.9048
-35.7115
-77.3092
-52.6514
-52.1003
-84.4897
-90.6081
-86.6222
-86.5363
-67.9894
-63.2078
-65.4547
-65.366
-45.7559
-46.9006
-46.3006
-45.8022
-42.6087
-42.8049
-42.9159
-42.6288
-57.6498
-62.8148
-61.124
-60.0104
-50.5465
-50.5985
-48.9504
-52.6485
-49.0747
-49.7652
-50.3943
-48.1287
-47.6912
-46.9677
-46.3976
-48.3404
-65.7114
-58.2754
-62.409
-61.4851
-94.6165
-98.6842
-94.3334
-97.8409
-80.7199
-105.154
-108.097
-104.047
-58.0163
-56.5906
-61.9399
-59.6657
-63.4396
-61.178
-64.6057
-61.6292
-60.229
-57.4579
-77.7677
-77.5144
-82.0883
-106.459
-108.458
-104.067
-59.934
-57.7283
-78.1277
-77.8614
-63.2424
-60.9779
-64.366
-61.456
-57.6058
-56.1394
-61.2861
-59.2344
-96.8121
-86.1179
-85.9801
-79.8237
-96.5405
-85.7541
-85.7135
-79.473
-54.6101
-53.3225
-57.0596
-55.354
-55.8796
-54.487
-57.9105
-56.0391
-27.3773
-24.1594
-21.1631
-18.7574
8.86899
17.0867
8.91919
18.9898
8.57983
17.1177
9.10158
19.0934
-26.5345
-23.2511
-20.3423
-17.9018
109.617
68.7922
151.248
131.795
101.164
80.1175
147.339
115.455
79.4759
101.234
116.552
147.218
68.8126
109.762
131.5
151.322
-44.3497
-45.8754
-45.443
-46.2737
-44.6026
-45.3809
-45.4563
-46.1599
-58.9779
-60.8083
-55.2672
-60.4167
-63.548
-67.857
-58.5086
-63.2523
-45.5212
-46.7944
-46.4472
-47.0657
-63.3242
-67.6396
-58.4557
-63.1292
-58.923
-60.8191
-55.0515
-60.2109
-44.1547
-45.0948
-45.2719
-45.9557
-43.1918
-44.0856
-42.8595
-43.6872
-44.7379
-43.9801
-44.2475
-43.5881
-42.9248
-42.5896
-42.8179
-42.6421
-42.1485
-42.4879
-42.1777
-42.4943
-54.5819
-37.7029
-71.8305
-51.3995
-80.4413
-80.2759
-87.3411
-84.7441
-80.226
-80.3021
-84.6925
-87.2695
-37.5542
-54.45
-50.459
-71.7189
-43.8278
-44.6155
-43.6054
-44.7395
-52.5111
-49.956
-51.0809
-49.988
-48.8809
-49.7476
-50.3082
-50.6503
-54.2726
-54.1624
-52.9869
-51.9166
-43.6225
-44.2585
-43.254
-44.4952
-54.0626
-53.9853
-52.7304
-51.5455
-48.3456
-49.271
-49.7645
-50.2067
-52.2549
-49.7175
-50.846
-49.774
-45.2
-44.7214
-46.1928
-45.489
-45.9343
-45.1025
-47.6262
-45.9352
-50.2464
-48.6744
-49.015
-47.715
-50.5846
-49.1233
-49.2983
-48.1269
-63.305
-66.4775
-62.2425
-64.883
-45.583
-48.1984
-47.766
-50.0064
-45.347
-47.9605
-47.6135
-49.8548
-63.1828
-66.3772
-62.1233
-64.7576
-44.0158
-44.7877
-44.1406
-44.2769
-44.2763
-43.8784
-44.2291
-44.0442
-35.3051
-35.9544
-33.3793
-34.7381
-36.7786
-35.9597
-35.729
-34.2067
-85.4182
1.82044
-148.818
-65.1244
-91.1053
-115.128
-59.348
-49.3209
-55.7586
-50.5454
-52.0247
-50.529
-59.3331
33.6446
-38.6537
9.55245
-59.3446
-41.5853
-44.5067
-38.9646
-42.2776
-38.7428
-46.4427
-45.0574
-148.597
-65.3058
-85.4635
0.849125
-91.2886
-114.804
-55.3944
-50.3156
-59.0981
-49.0736
-52.0817
-50.11
-38.9881
9.40339
-59.5283
33.7555
-59.3143
-41.4113
-41.8571
-38.1665
-43.891
-38.4213
-45.8806
-44.6977
-53.0493
-52.4007
-42.7124
-43.8408
-52.5619
-45.3323
-48.5953
-45.1986
-45.2125
-42.7871
-43.4578
-42.3184
-44.2809
-43.6415
-42.5471
-43.0817
-88.1101
-12.1139
-77.8099
-74.228
-82.7811
-96.4701
-5.46864
-29.5143
-58.9599
-61.5224
-60.749
-58.8038
-63.3811
-68.1221
-69.7619
-66.2295
-50.212
-49.8985
-47.8084
-45.983
-46.5457
-45.0088
-48.5957
-47.586
-46.5404
-42.8259
-43.2378
-43.9396
-42.8552
-42.6226
-43.1604
-43.9206
-88.1375
-12.0204
-5.37996
-29.6197
-77.5588
-74.2148
-82.6925
-96.5285
-58.7532
-61.5105
-69.5701
-66.0872
-60.5493
-58.5608
-63.2165
-67.9916
-67.6627
48.7086
-60.3055
57.3733
-66.6686
-61.8422
105.385
122.975
-137.249
-134.982
-137.143
-134.883
-109.794
-109.723
20.8055
20.8155
-91.2237
-74.5977
-60.8223
-59.3728
-82.0318
-68.4457
-69.6593
-62.3421
-55.6547
-44.4787
-48.3439
-41.6441
-56.2044
-51.702
-41.8725
-41.4895
-53.9325
-48.7875
-53.7885
-48.9509
-51.7807
-51.8589
-45.5519
-45.5183
-46.9492
-46.2559
-48.2618
-45.8
-46.4724
-47.2222
-46.0953
-46.6811
-39.7554
3.61778
-40.5168
-0.385064
-33.069
-33.0401
54.3981
54.5571
-57.3272
-27.6906
-55.4889
-17.9981
-64.0357
-65.3678
-18.0522
-12.2435
-40.3376
-36.0171
-40.163
-35.7381
-42.4923
-42.4131
-35.1017
-35.253
-50.4551
-52.2763
-54.5559
-57.9379
-51.211
-52.8594
-57.1662
-53.9216
-68.0223
48.5028
-60.2791
57.6646
-66.834
-61.9146
122.998
105.279
-85.1728
-73.9372
-58.4198
-58.1446
-80.2302
-67.1132
-68.9901
-61.4289
-55.2393
-44.1645
-47.9351
-41.074
-51.715
-55.7965
-41.4807
-41.0018
-46.7875
-45.6273
-46.2873
-46.6143
-46.5492
-47.0351
-45.2578
-45.9883
-57.2757
-27.5764
-55.3074
-17.8374
-65.0495
-63.9634
-12.3212
-18.0898
-50.1226
-52.2327
-54.3071
-57.7267
-52.5953
-50.9053
-53.7487
-56.9675
-41.2846
-41.626
-43.4689
-41.7645
-42.8557
-44.6774
-41.7509
-41.7571
-51.8033
-48.8713
-55.7712
-55.4441
-54.2228
-54.9793
-49.3351
-52.9249
-49.2736
-46.4304
-49.0111
-46.5901
-51.8564
-52.0885
-45.5638
-45.688
-46.967
-46.8968
-55.4636
-51.3593
-48.2313
-51.6572
-47.575
-49.5396
-43.5959
-44.3807
-43.7883
-44.521
-43.454
-43.3538
-44.5224
-44.645
-74.7278
-98.7332
-68.078
-77.3443
-66.6342
-69.3258
-100.225
-86.5086
14.424
-6.93385
14.5438
-7.06313
22.0795
22.1276
-21.2123
-21.4672
-77.1648
-72.5336
-77.1297
-72.5073
-80.9567
-80.9473
-70.5778
-70.5881
-43.8996
-42.9269
-43.2678
-42.069
-45.5698
-44.3522
-42.6418
-42.35
-51.7331
-49.1448
-55.6907
-55.3112
-54.7769
-54.0694
-49.322
-52.8684
-46.3653
-46.1774
-55.6931
-50.9179
-51.1517
-47.7794
-46.9412
-49.1223
-74.6581
-98.7377
-67.9831
-77.2913
-69.2195
-66.4959
-86.3853
-100.317
-92.0846
-91.4693
-81.6913
-70.1057
-70.1698
-83.1995
-65.9885
-66.5967
-91.493
-90.7016
-81.0778
-69.3818
-82.7389
-69.9486
-66.3564
-65.4686
-74.5664
-74.4597
-70.2365
-63.258
-69.9893
-62.9151
-60.3556
-60.5243
-11.3989
-11.6281
-6.91757
1.85316
2.07071
-6.76507
11.0102
10.9673
195.088
196.253
186.525
186.568