# vtk DataFile Version 2.0
tet_velo
ASCII
DATASET UNSTRUCTURED_GRID
POINTS 29498 float
-0.647499 0.065 -2.075
-0.632024 0.355 2.165
-0.645 0.621365 -1.855
-0.635 0.955 1.99707
0.647499 0.065 -2.075
0.632021 0.355 2.165
0.645 0.621365 -1.855
0.635 0.955 1.99707
-0.711103 0.0929045 -0.661667
-0.770587 0.124929 0.751667
-0.752081 0.842991 -0.570977
-0.735437 0.940892 0.713047
0.711103 0.0929036 -0.661667
0.770585 0.124928 0.751667
0.752065 0.842975 -0.570977
0.735434 0.940889 0.713047
-1.3693 -0.383308 -3.19042
-1.37009 -0.295883 -2.11154
-1.42328 -0.264095 -0.694868
-1.46318 -0.224582 0.747834
-1.39692 -0.0589088 2.1667
-1.36994 0.0530707 3.25631
-1.37267 0.136961 4.32606
-1.36413 -0.0524815 -3.12691
-1.36528 0.0563446 -2.06216
-1.43373 0.10942 -0.670641
-1.46743 0.139503 0.732514
-1.35883 0.293447 2.12651
-1.34286 0.402517 3.21429
-1.35803 0.486943 4.28825
-1.36428 0.573253 -2.96359
-1.37044 0.680674 -1.89349
-1.45623 0.846996 -0.59013
-1.45042 0.917999 0.704072
-1.35323 0.962742 2.00991
-1.33965 1.06936 3.10305
-1.35509 1.17061 4.19786
-1.38308 1.61767 -2.81584
-1.39344 1.73763 -1.76511
-1.42932 1.90642 -0.503669
-1.44521 2.02335 0.729898
-1.42525 2.08991 1.99269
-1.4057 2.15396 3.04624
-1.396 2.23564 4.12693
-0.676318 -0.379022 -3.19876
-0.660943 -0.288556 -2.12371
-0.699505 -0.272308 -0.693235
-0.751767 -0.233336 0.764181
-0.70369 -0.0254736 2.19528
-0.68002 0.0772066 3.2757
-0.681397 0.150047 4.33728
-0.674661 -0.0549468 -3.12948
-0.653208 0.426993 3.23029
-0.66852 0.499068 4.29672
-0.673118 0.548654 -2.9476
-0.651375 1.07287 3.10048
-0.666005 1.17466 4.19731
-0.677532 1.60255 -2.80003
-0.67903 1.72421 -1.74769
-0.709627 1.9059 -0.493169
-0.733495 2.02904 0.728638
-0.726147 2.09043 1.98369
-0.71007 2.15228 3.03726
-0.699968 2.23456 4.1204
0.6753 -0.379024 -3.19876
0.685218 -0.288557 -2.12371
0.726857 -0.272309 -0.693235
0.735614 -0.233337 0.764181
0.64737 -0.025474 2.19528
0.667145 0.0772059 3.2757
0.686045 0.150047 4.33728
0.659826 -0.0549485 -3.12948
0.668314 0.426993 3.23028
0.688814 0.499067 4.29672
0.662344 0.548652 -2.9476
0.669874 1.07287 3.10048
0.690344 1.17466 4.19731
0.717349 1.60255 -2.80003
0.731124 1.7242 -1.74769
0.73025 1.90589 -0.493169
0.701535 2.02903 0.728638
0.675676 2.09043 1.98369
0.677632 2.15228 3.03726
0.687605 2.23456 4.1204
1.36473 -0.383314 -3.19042
1.37818 -0.295888 -2.11154
1.43562 -0.2641 -0.694868
1.4574 -0.224585 0.747833
1.37401 -0.0589105 2.1667
1.36433 0.053069 3.25632
1.37889 0.136959 4.32606
1.34852 -0.0524869 -3.12691
1.35701 0.0563385 -2.06216
1.43086 0.109413 -0.670642
1.47144 0.1395 0.732514
1.36729 0.293446 2.12651
1.35887 0.402515 3.21429
1.37775 0.48694 4.28825
1.3528 0.573246 -2.96359
1.36431 0.680665 -1.89349
1.45231 0.84698 -0.59013
1.45321 0.917993 0.704072
1.36341 0.96274 2.00991
1.35906 1.06936 3.10305
1.37854 1.17061 4.19786
1.41495 1.61766 -2.81584
1.43222 1.73762 -1.76511
1.44393 1.90641 -0.50367
1.42126 2.02335 0.729898
1.38767 2.08991 1.99269
1.38063 2.15395 3.04624
1.38664 2.23564 4.12693
-0.580398 0.343183 -1.89915
0 0.0615552 -2.07844
-0.679004 0.0792497 -1.36833
-0.66833 0.655 2.11585
-1.49012e-06 0.329 2.191
-0.698305 0.242964 1.45833
0 0.69749 -1.93113
-0.745819 0.779456 -1.21299
0 1.02775 2.06982
-0.720673 0.9834 1.35506
0.580952 0.343183 -1.8997
0.679003 0.0792496 -1.36833
0.668327 0.655 2.11585
0.698302 0.242965 1.45833
0.745812 0.77945 -1.21299
0.720675 0.983402 1.35506
-0.742351 0.107411 0.045
-0.883756 0.467948 -0.616322
-3.57242e-08 0.091272 -0.661667
-0.802751 0.53291 0.732357
-6.35163e-07 0.126795 0.751667
-0.746038 0.89422 0.071035
-7.77609e-06 1.09229 -0.570977
-1.41719e-06 1.32545 0.713047
0.742049 0.107711 0.045
0.883732 0.467939 -0.616322
0.802751 0.532909 0.732357
0.746036 0.894219 0.071035
-0.898626 0.405565 -1.29066
-0.823468 0.500429 0.0580175
-0.852723 0.593955 1.4067
-1.78621e-08 0.0763804 -1.36833
-3.35443e-07 0.106872 0.045
-1.06264e-06 0.183186 1.45833
0 0.343183 -2.09569
-7.45058e-07 0.655 2.28125
-3.88805e-06 0.86764 -1.21299
-4.59664e-06 1.31525 0.071035
-7.08594e-07 1.2034 1.35506
0.898632 0.405561 -1.29066
0.82346 0.500424 0.0580175
0.85271 0.593954 1.4067
-1.00639 0.0606723 -2.06858
-0.654221 -0.111778 -2.09936
-0.66108 0.00502662 -2.60224
-0.995426 0.324224 2.14575
-0.667857 0.164763 2.18014
-0.642616 0.390997 2.69764
-1.00772 0.65102 -1.87425
-0.659059 0.585009 -2.4013
-0.662015 1.17279 -1.80134
-0.994115 0.958871 2.00349
-0.643188 1.01393 2.54877
-0.680574 1.52272 1.99038
0.666359 -0.111779 -2.09936
0.653663 0.00502573 -2.60224
1.00225 0.0606693 -2.06858
0.639696 0.164763 2.18014
0.650168 0.390996 2.69764
0.999657 0.324223 2.14575
0.653672 0.585008 -2.4013
0.688062 1.17278 -1.80134
1.00465 0.651015 -1.87425
0.652437 1.01393 2.54877
0.655338 1.52272 1.99038
0.999206 0.95887 2.00349
-1.07241 0.101162 -0.666154
-0.705304 -0.0897015 -0.677451
-1.11901 0.132216 0.74209
-0.761177 -0.0542035 0.757924
-1.10415 0.844993 -0.580553
-0.730854 1.37445 -0.532073
-1.09293 0.929446 0.708559
-0.734466 1.48496 0.720842
0.71898 -0.0897027 -0.677451
1.07098 0.101158 -0.666154
0.7531 -0.0542044 0.757924
1.12101 0.132214 0.74209
0.741158 1.37443 -0.532073
1.10219 0.844977 -0.580553
0.718485 1.48496 0.720842
1.09432 0.929441 0.708559
-1.3697 -0.339596 -2.65098
-1.36672 -0.217895 -3.15866
-1.02281 -0.381165 -3.19459
-1.39669 -0.279989 -1.40321
-1.36769 -0.119769 -2.08685
-1.01552 -0.29222 -2.11763
-1.44323 -0.244338 0.0264829
-1.4285 -0.0773376 -0.682754
-1.06139 -0.268201 -0.694051
-1.43005 -0.141745 1.45727
-1.46531 -0.0425394 0.740174
-1.10747 -0.228959 0.756007
-1.38343 -0.00291903 2.71151
-1.37787 0.117269 2.1466
-1.0503 -0.0421912 2.18099
-1.37131 0.095016 3.79118
-1.3564 0.227794 3.2353
-1.02498 0.0651387 3.26601
-1.36535 0.311952 4.30715
-1.02703 0.143504 4.33167
-1.36471 0.00193159 -2.59453
-1.36421 0.260386 -3.04525
-1.0194 -0.0537141 -3.12819
-1.3995 0.0828822 -1.3664
-1.36786 0.368509 -1.97783
-1.45058 0.124462 0.0309362
-1.44498 0.478208 -0.630386
-1.41313 0.216475 1.42951
-1.45893 0.528751 0.718293
-1.35084 0.347982 2.6704
-1.35603 0.628095 2.06821
-1.35044 0.44473 3.75127
-1.34126 0.735937 3.15867
-0.998034 0.414755 3.22229
-1.35656 0.828776 4.24306
-1.01327 0.493005 4.29248
-1.36736 0.626964 -2.42854
-1.37368 1.09546 -2.88971
-1.0187 0.560953 -2.9556
-1.41333 0.763835 -1.24181
-1.38194 1.20915 -1.8293
-1.45332 0.882498 0.0569712
-1.44277 1.37671 -0.5469
-1.40183 0.940371 1.35699
-1.44782 1.47068 0.716985
-1.34644 1.01605 2.55648
-1.38924 1.52633 2.0013
-1.34737 1.11998 3.65045
-1.37268 1.61166 3.07465
-0.995515 1.07111 3.10176
-1.37554 1.70313 4.16239
-1.01055 1.17263 4.19758
-1.38826 1.67765 -2.29047
-1.03031 1.61011 -2.80793
-1.41138 1.82203 -1.13439
-1.03624 1.73092 -1.7564
-1.43727 1.96489 0.113114
-1.06947 1.90616 -0.498419
-1.43523 2.05663 1.36129
-1.08935 2.0262 0.729268
-1.41548 2.12193 2.51946
-1.0757 2.09017 1.98819
-1.40085 2.1948 3.58659
-1.05789 2.15312 3.04175
-1.04798 2.2351 4.12367
-0.668631 -0.333789 -2.66124
-0.67549 -0.216984 -3.16412
-0.000509043 -0.379023 -3.19876
-0.680224 -0.280432 -1.40847
0.0121376 -0.288557 -2.12371
-0.725636 -0.252822 0.0354728
0.0136762 -0.272308 -0.693235
-0.727728 -0.129405 1.47973
-0.00807612 -0.233337 0.764181
-0.691855 0.0258665 2.73549
-0.0281599 -0.0254738 2.19528
-0.680709 0.113627 3.80649
-0.666614 0.2521 3.25299
-0.00643769 0.0772063 3.2757
-0.674959 0.324557 4.317
0.00232412 0.150047 4.33728
-0.67389 0.246854 -3.03854
-0.00741734 -0.0549477 -3.12948
-0.660864 0.46303 3.7635
-0.652292 0.749931 3.16538
0.00755287 0.426993 3.23028
-0.667262 0.836862 4.24701
0.0101472 0.499067 4.29672
-0.675325 1.0756 -2.87381
-0.00538732 0.548653 -2.9476
-0.65869 1.12376 3.64889
-0.680723 1.61258 3.06887
0.0092495 1.07287 3.10048
-0.682987 1.70461 4.15885
0.0121694 1.17466 4.19731
-0.678281 1.66338 -2.27386
0.019908 1.60255 -2.80003
-0.694329 1.81505 -1.12043
0.0260468 1.72421 -1.74769
-0.721561 1.96747 0.117734
0.0103115 1.9059 -0.493169
-0.729821 2.05973 1.35616
-0.0159798 2.02903 0.728638
-0.718109 2.12136 2.51047
-0.0252358 2.09043 1.98369
-0.705019 2.19342 3.57883
-0.0162192 2.15228 3.03726
-0.00618123 2.23456 4.1204
0.680259 -0.333791 -2.66124
0.667563 -0.216986 -3.16412
1.02002 -0.381169 -3.19459
0.706038 -0.280433 -1.40847
1.0317 -0.292223 -2.11763
0.731236 -0.252823 0.0354728
1.08124 -0.268205 -0.694051
0.691492 -0.129406 1.47973
1.09651 -0.228961 0.756007
0.657258 0.0258659 2.73549
1.01069 -0.0421923 2.18099
0.676595 0.113626 3.80649
0.66773 0.252099 3.25299
1.01574 0.0651374 3.26601
0.68743 0.324557 4.317
1.03247 0.143503 4.33167
0.661085 0.246852 -3.03854
1.00417 -0.0537177 -3.12819
0.678564 0.46303 3.7635
0.669094 0.74993 3.16538
1.01359 0.414754 3.22229
0.689579 0.836861 4.24701
1.03328 0.493004 4.29249
0.689846 1.0756 -2.87381
1.00757 0.560949 -2.9556
0.680109 1.12376 3.64889
0.673753 1.61257 3.06887
1.01447 1.07111 3.10176
0.688975 1.70461 4.15885
1.03444 1.17263 4.19758
0.724236 1.66337 -2.27386
1.06615 1.6101 -2.80793
0.730687 1.81505 -1.12043
1.08167 1.73091 -1.7564
0.715892 1.96746 0.117734
1.08709 1.90615 -0.498419
0.688605 2.05973 1.35616
1.0614 2.02619 0.729268
0.676654 2.12136 2.51047
1.03167 2.09017 1.98819
0.682619 2.19342 3.57883
1.02913 2.15312 3.04175
1.03712 2.2351 4.12366
1.37145 -0.339601 -2.65098
1.35662 -0.2179 -3.15866
1.4069 -0.279994 -1.40321
1.36759 -0.119775 -2.08685
1.44651 -0.244343 0.0264829
1.43324 -0.0773437 -0.682755
1.4157 -0.141748 1.45727
1.46442 -0.0425423 0.740174
1.36917 -0.00292078 2.71151
1.37065 0.117268 2.1466
1.37161 0.0950139 3.79119
1.3616 0.227792 3.23531
1.37832 0.31195 4.30715
1.35276 0.00192582 -2.59453
1.35066 0.26038 -3.04525
1.39393 0.0828756 -1.3664
1.36066 0.368502 -1.97783
1.45115 0.124457 0.0309361
1.44159 0.478196 -0.630386
1.41937 0.216473 1.42951
1.46232 0.528747 0.718293
1.36308 0.347981 2.6704
1.36535 0.628093 2.06821
1.36831 0.444728 3.75127
1.35896 0.735935 3.15867
1.37814 0.828774 4.24306
1.35855 0.626956 -2.42854
1.38388 1.09545 -2.88971
1.40831 0.763822 -1.24181
1.39826 1.20914 -1.8293
[...]
POINT_DATA 29498
VECTORS point_vectors float
-3.81618 -8.19779 9.49217
0.354958 0.134964 0.901735
-2.68931 1.79916 3.46562
-0.0690989 -0.113939 0.113914
3.82016 -8.21476 9.47511
-0.351892 0.136952 0.893537
2.69491 1.80286 3.4762
0.06904 -0.112786 0.111934
-0.00318431 0.00132085 0.049227
0.0103542 0.00178567 0.12165
-0.147425 -0.0888303 0.483399
0.0345176 0.0654139 0.233023
0.00315023 0.0013179 0.0492309
-0.0106108 0.00163724 0.122951
0.147378 -0.0887637 0.4824
-0.0344205 0.0651779 0.232581
-0.492174 -0.32452 19.8213
-1.24541 -1.0627 20.3793
-0.218875 -0.62009 21.5521
0.457341 -0.220131 21.5614
1.04465 -0.0390091 21.3629
1.19822 -0.138721 21.0475
1.02116 -0.205167 20.8837
-0.673036 -0.291337 19.6824
-2.04164 -1.08283 20.1633
-0.547351 -0.874078 21.6964
0.305358 -0.556898 21.6724
1.12552 -0.43197 21.3314
1.2487 -0.481699 20.9981
1.13093 -0.613639 20.2659
-0.922203 0.0592401 19.4768
-2.65292 0.370816 20.1352
-1.43083 -0.411898 21.5637
-0.419197 -0.57153 21.7146
0.391889 -0.814216 21.5171
0.658866 -0.919515 21.0249
0.55671 -0.770628 20.2214
-0.610515 0.452682 19.874
-0.973622 0.768005 20.3645
-0.91492 0.508299 21.1122
-0.394447 0.0399164 21.4111
-0.0175722 -0.282492 21.3124
0.135627 -0.412587 21.0531
0.0710808 -0.438364 20.7577
-0.400588 -0.585516 19.4703
-1.22409 -3.22411 20.5605
0.249455 -0.0564589 22.1302
0.647406 0.670089 21.3446
1.00894 1.68753 17.5012
1.48314 1.77613 16.6997
1.37814 1.22692 16.4231
-0.605678 -0.559132 19.0286
1.68616 1.16673 8.51466
1.8261 0.955324 11.8356
-0.962069 0.138645 18.3836
0.0886208 -0.79502 7.364
0.321492 -1.25251 12.4626
-0.508672 0.870491 19.4553
-0.906615 1.70762 20.0859
-1.08622 1.52846 21.1755
-0.409452 0.35647 21.7456
-0.0780987 -0.266979 21.3703
0.0264208 -0.434273 21.077
0.0156235 -0.347678 21.1427
0.401381 -0.597335 19.4638
1.28776 -3.14346 20.5148
-0.27361 -0.0965417 22.1558
-0.621659 0.696968 21.3624
-0.853907 1.74453 17.0942
-1.45661 1.81444 16.7431
-1.36766 1.2125 16.4289
0.596704 -0.565883 19.0169
-1.6823 1.10973 8.86862
-1.79944 0.842563 12.2354
0.949758 0.139959 18.3655
-0.111152 -0.811458 7.95004
-0.374029 -1.26084 13.161
0.533735 0.840805 19.4631
0.956634 1.63824 20.1009
1.1016 1.49414 21.1745
0.405297 0.378633 21.7532
0.082675 -0.254722 21.376
-0.0204224 -0.426002 21.0519
-0.023292 -0.343661 21.1734
0.490336 -0.326328 19.8268
1.23195 -1.05975 20.3805
0.226776 -0.616808 21.5417
-0.456174 -0.222398 21.5629
-1.08251 -0.0177689 21.357
-1.20249 -0.136534 21.036
-1.02381 -0.202316 20.8769
0.684883 -0.297992 19.6692
2.06717 -1.10653 20.1569
0.545219 -0.879002 21.6996
-0.304769 -0.554616 21.6665
-1.1164 -0.432819 21.3418
-1.22343 -0.468446 21.0268
-1.10592 -0.59424 20.3565
0.924873 0.0600096 19.4666
2.67451 0.386551 20.1302
1.43931 -0.41573 21.5675
0.418032 -0.569723 21.7131
-0.390588 -0.802633 21.4921
-0.647801 -0.89112 21.041
-0.518154 -0.722084 20.3325
0.604965 0.442012 19.8935
0.959779 0.735367 20.3745
0.904815 0.492269 21.1105
0.39882 0.0454938 21.4177
0.030033 -0.291123 21.3031
-0.13064 -0.412068 21.0329
-0.0606929 -0.425888 20.7723
-0.952437 0.12878 0.513213
0.00173028 -0.128391 0.76081
-0.0204413 0.00503684 0.094928
0.0192786 -0.0782175 0.0937859
-0.000133232 0.00500273 0.0193956
0.00128076 0.00194457 0.0869546
0.000630865 0.822923 1.29201
-0.321657 -0.0463153 0.68526
-0.000677993 0.0328909 -0.102332
0.00914431 0.00913731 0.101875
0.99132 0.142544 0.517965
0.020446 0.00503746 0.0947734
-0.0189565 -0.0784939 0.0932323
-0.00122384 0.00195572 0.0863677
0.321801 -0.0464744 0.685426
-0.00925833 0.00936711 0.103317
-8.49892e-05 0.000292304 0.0117587
0.00280908 0.00364642 0.0405113
-1.2673e-05 0.000955168 0.0251474
-0.000380748 0.00462018 0.0173851
-1.5557e-08 -2.03801e-06 -5.89337e-05
0.0247581 0.0560711 0.230487
-1.27649e-06 0.00670732 0.0138011
-2.99632e-06 -0.00101366 0.0125375
3.30213e-05 0.000113104 0.00454959
-0.00276578 0.00376403 0.0402267
0.000382969 0.00464968 0.0173678
-0.0244775 0.0571542 0.230223
-1.38371e-05 -1.21619e-05 0.000358332
0.00312255 0.02512 0.0946598
0.00313799 0.0134155 0.10213
1.02071e-08 7.23765e-08 3.70041e-06
0 0 0
-7.33563e-05 0.00314792 0.0689682
8.79862e-06 0.0398607 0.0276591
-0.00152133 -0.0729024 0.0221891
3.36054e-06 0.00140159 0.00735438
-4.33345e-06 0.00438369 0.0329842
-5.70642e-06 0.000499389 -0.00148794
1.95503e-05 -1.49541e-05 0.000492652
-0.00307745 0.0251979 0.0942482
-0.00312435 0.0133418 0.101463
-3.71526 -2.75535 19.3387
-1.98206 -4.97989 20.5542
-1.61455 -1.64088 17.9945
1.49667 0.40207 14.2031
0.744981 1.50089 9.75225
1.31439 0.828291 5.01779
-5.15439 1.6362 19.2832
-3.00846 1.21211 16.2995
-2.13075 3.19055 19.6657
0.555559 -0.677114 16.8211
-0.693754 -0.691852 4.12554
-0.150497 -0.587546 20.6248
2.03496 -4.99451 20.4828
1.61155 -1.65638 17.9727
3.75182 -2.7909 19.3233
-0.674621 1.44123 9.26599
-1.31979 0.809735 5.17217
-1.50249 0.38146 14.3943
3.01604 1.23566 16.2399
2.17219 3.08267 19.689
5.18542 1.66091 19.269
0.650193 -0.68835 4.36842
0.145139 -0.577107 20.4541
-0.554398 -0.688687 17.0163
0.0329132 -0.457161 17.5793
-0.050568 0.354965 16.6377
0.596894 -0.252147 18.3276
0.521087 0.709656 15.5905
-2.3687 -1.07148 21.4653
-3.08482 2.28607 21.2493
-0.760654 -0.781535 20.4942
-0.906184 0.241144 22.0828
0.0455023 0.346221 16.74
-0.0392609 -0.442307 17.5266
-0.511373 0.718567 15.5438
-0.601713 -0.261051 18.4098
3.07041 2.20951 21.2627
2.37755 -1.07955 21.4551
0.906236 0.259455 22.05
0.759361 -0.767869 20.4464
-0.88179 -0.630797 19.8938
-0.576822 -0.320486 19.7644
-0.490166 -0.461216 19.6536
-0.865333 -1.02637 21.3323
-1.62683 -1.15826 20.292
-1.45822 -1.96467 20.3326
0.168395 -0.36639 21.564
-0.336409 -0.767151 21.6215
0.200709 -0.571553 21.859
0.757871 -0.116584 21.5292
0.40461 -0.389433 21.5837
0.786197 -2.8785e-05 21.6326
1.19541 -0.0102891 21.0808
1.13579 -0.217563 21.3843
1.49362 0.6593 20.1008
1.36704 -0.126814 20.3557
1.25358 -0.328754 21.1041
1.71862 0.652082 19.498
1.0387 -0.274867 21.0283
1.30868 0.347817 19.4965
-1.25898 -0.591972 19.6526
-0.826915 -0.183971 19.5556
-0.689071 -0.427471 19.3949
-1.55466 -1.2107 21.5577
-2.74144 -0.487641 20.0288
-0.0362537 -0.68899 21.6907
-1.00717 -0.788718 21.6991
0.709094 -0.483209 21.6133
-0.0499355 -0.695173 21.7029
1.27053 -0.414624 21.0134
0.856279 -0.784964 21.333
1.33437 -0.48007 20.4607
0.977383 -0.805994 21.1751
1.78853 0.0976072 16.8165
0.825955 -0.886525 20.248
1.49893 -0.305988 17.168
-1.74122 0.204623 19.4572
-0.83092 0.352157 19.6248
-1.06185 0.0896184 18.9976
-2.19635 -0.0363639 21.3603
-1.67061 0.843834 20.2403
-0.870591 -0.570799 21.6991
-1.36791 0.26273 21.3039
0.029639 -0.649232 21.715
-0.53439 -0.165205 21.6118
0.507332 -0.863823 21.3904
0.0461715 -0.495053 21.3634
0.611594 -0.828564 20.6828
0.205855 -0.56758 21.0846
0.70906 -0.95098 19.2469
0.158989 -0.541864 20.9279
0.785881 -1.26382 19.0481
-0.831608 0.644766 20.041
-0.611738 0.669925 19.6682
-1.00662 0.690155 20.7688
-1.06037 1.20753 20.2402
-0.677436 0.261571 21.3781
-1.08429 0.914547 21.159
-0.169947 -0.147833 21.3569
-0.451745 0.17653 21.5503
0.0397885 -0.35184 21.142
-0.0557402 -0.303168 21.3229
0.0811969 -0.339283 21.0815
0.0763173 -0.422747 20.8785
-0.0311287 -0.404291 21.0811
-0.868718 -1.47259 19.2391
-0.500845 -0.625819 19.2393
0.00552966 -0.732987 19.2794
-0.100332 -1.08252 22.4853
0.0169582 -4.03309 21.1454
0.42348 0.29269 21.7459
-0.00422652 -0.0837222 21.7241
0.766587 1.19403 19.2225
0.00488768 0.70921 19.8848
1.23597 1.80234 16.8781
0.0179556 1.36496 14.1793
1.46247 1.45734 16.8682
1.71031 1.80078 12.5383
0.0068257 2.14564 14.3391
1.67071 1.2893 13.3749
-0.0123988 2.17047 16.0262
-0.808494 -0.345891 18.6128
-0.00734929 -0.725588 18.6569
2.04606 0.993848 10.361
1.08415 -0.229183 5.17087
-0.00917605 0.978711 2.66486
1.05622 -0.258114 10.1413
-0.0363327 2.45908 8.34498
-0.798763 0.793076 18.8486
-0.00919536 0.249375 17.5789
0.347218 -0.917385 10.1141
-0.0637265 -0.811622 20.6171
0.00343729 1.42146 -5.33162
-0.12271 -0.803673 19.9905
0.00647518 0.557426 0.89815
-0.745588 1.4088 19.6217
0.0141281 1.07294 19.2617
-1.05174 1.67649 20.6015
0.0446194 2.2024 19.9415
-0.81579 0.994068 21.7076
0.024321 2.41329 21.1107
-0.173394 -0.0699214 21.5942
-0.0210063 0.630466 21.9208
-0.0398992 -0.353346 21.2366
-0.00256531 -0.179601 21.4528
0.0192813 -0.46712 20.7994
-0.00400325 -0.395484 20.8975
0.00250302 -0.239581 21.3329
0.878591 -1.463 19.2512
0.495834 -0.616129 19.2502
0.48178 -0.468537 19.6422
0.113926 -1.12283 22.4125
1.4524 -1.93245 20.3338
-0.42306 0.288354 21.7542
-0.168941 -0.593731 21.84
-0.695816 1.22168 19.0174
-0.788403 0.0174899 21.6302
-1.1527 1.85327 16.7578
-1.48989 0.783986 19.9867
-1.46461 1.47429 16.8668
-1.71394 1.7993 12.5451
-1.72647 0.683057 19.3612
-1.66457 1.24989 13.3906
-1.30771 0.342601 19.5656
0.801509 -0.346308 18.5994
0.694404 -0.4388 19.3788
-2.03469 0.895471 10.7142
-1.1167 -0.272929 5.54019
-1.77016 0.0322026 17.0361
-1.09529 -0.2658 10.7798
-1.47916 -0.363432 17.3789
0.810202 0.780229 18.8686
1.06248 0.0890898 18.9775
-0.370176 -0.930132 10.787
0.0725912 -0.803253 20.5955
-0.701539 -0.927133 19.3617
0.12457 -0.796846 20.0078
-0.800087 -1.2454 19.121
0.784906 1.36243 19.6471
0.62014 0.651936 19.6847
1.07254 1.61551 20.6184
1.06196 1.15257 20.2579
0.815397 1.0021 21.7109
1.07608 0.887956 21.1619
0.176682 -0.0598244 21.5954
0.455263 0.189356 21.5605
0.0456483 -0.343464 21.232
0.0600005 -0.299386 21.3289
-0.0103352 -0.469669 20.7938
-0.0722606 -0.425094 20.8917
0.0332298 -0.401873 21.0783
0.874927 -0.64164 19.9057
0.582305 -0.327792 19.7611
0.870655 -1.01366 21.3227
1.63112 -1.1549 20.2905
-0.157331 -0.369786 21.5618
0.341612 -0.759683 21.6177
-0.766335 -0.124073 21.5308
-0.405904 -0.393276 21.5816
-1.21366 0.00480552 21.0826
-1.14996 -0.214581 21.3429
-1.36893 -0.133682 20.3564
-1.24017 -0.324446 21.1022
-1.03823 -0.281164 21.0127
1.27967 -0.603072 19.634
0.833354 -0.189078 19.5432
1.55565 -1.22451 21.5663
2.77903 -0.494009 20.0128
0.0346635 -0.688987 21.6873
1.00586 -0.797995 21.7035
-0.70367 -0.482435 21.616
0.0500571 -0.693059 21.7031
-1.25261 -0.418218 21.1038
-0.839284 -0.777456 21.3507
-1.30772 -0.495382 20.566
-0.967053 -0.779466 21.1751
-0.790133 -0.839392 20.3512
1.75771 0.210288 19.4369
0.829838 0.347811 19.6354
2.21109 -0.0350812 21.3675
1.65386 0.820674 20.2487
0.871765 -0.572062 21.6998
1.36065 0.257144 21.3018
-0.0277384 -0.646565 21.7094
0.540013 -0.163996 21.6201
-0.506305 -0.847917 21.3778
-0.0426299 -0.498571 21.3668
-0.616676 -0.813255 20.7338
-0.205484 -0.569617 21.0874
-0.163044 -0.54519 20.9154
0.821264 0.623529 20.0564
0.993382 0.661009 20.7711
0.678909 0.263852 21.3805
0.173725 -0.14729 21.3718
-0.0364702 -0.354458 21.1422
-0.0856811 -0.351139 21.0941
-1.03742 -0.647549 19.8022
-1.18509 -1.6772 18.7108
-0.957443 -1.02456 19.6194
-1.56449 -1.03532 19.0127
-0.583183 -0.45941 19.5243
-2.24552 -2.55215 20.0277
-1.13505 -1.19143 21.4556
-0.011554 -0.266205 19.4431
-0.500883 -1.47538 21.8234
-1.21045 -2.71028 21.2739
0.325781 -0.817433 21.5981
0.093712 -0.537057 21.59
0.0761224 0.434357 15.4801
0.498078 -0.233936 21.7082
0.309727 -0.185151 17.663
0.834974 -0.141307 20.7541
0.759776 -0.305575 21.5691
0.561337 1.02256 11.7393
1.14829 0.321475 21.0557
0.961689 0.0315465 15.8608
1.59711 0.631804 17.4584
1.27346 -0.20938 21.0887
1.25518 1.62996 11.4863
1.67432 0.636043 20.0459
1.68644 0.160355 15.1001
1.74344 0.566934 17.4965
1.5147 -0.331093 20.1841
1.8311 1.26881 12.7128
1.55305 0.389451 19.9304
1.75489 -0.229436 17.37
1.3712 0.146091 18.0457
-1.6079 -0.319291 19.4814
-2.70393 -0.810867 16.2156
-2.52132 0.483575 18.3602
-0.890134 -0.25209 19.1549
-6.51178 -0.700891 18.4305
-2.16807 -0.720151 21.5725
-3.59547 0.0721824 22.1624
-0.652691 -1.31566 18.7921
-0.4158 -0.769617 21.7347
-1.42382 -1.14552 20.8753
0.160681 -0.621222 17.0735
0.399503 -0.70414 21.6711
0.0303008 -0.482097 18.9128
1.154 -0.226705 13.6034
0.943473 -0.827169 21.179
0.145552 -0.60013 2.51164
0.474137 -0.913044 18.4105
1.32167 -0.712955 16.0016
0.833881 -0.678794 21.1912
1.15185 -0.0761192 7.56124
0.616839 -1.11195 19.3891
1.25309 -0.850592 17.4944
-1.29266 0.638223 19.7584
-1.55917 2.01375 18.6294
-0.880081 1.01326 19.8305
-0.871328 0.559171 19.2626
-2.19901 1.76339 19.996
-1.6313 0.592549 20.9143
-2.34003 2.42338 20.594
-1.14048 1.13176 20.71
-2.11678 0.742671 21.4306
-0.976083 0.000146065 21.5672
-2.32686 1.15728 22.4905
-0.798114 0.557832 21.5111
-0.739902 -0.0397276 21.8975
-0.163522 -0.348825 21.556
-0.205959 -0.368814 21.252
-0.20299 -0.116258 21.4899
-0.0558201 -0.578334 21.4833
0.140765 -0.538495 21.2178
-0.132985 -0.640066 20.7744
0.00541141 -0.389092 21.1504
0.143937 -0.748855 21.2907
0.333753 -0.536237 20.727
0.113469 -0.796261 19.5649
0.136402 -0.493514 21.2021
-0.0760779 -0.595744 21.2756
1.18311 -1.66932 18.7254
0.0105825 -2.0683 18.8177
-0.0139278 -2.62772 16.6015
-0.00449764 -0.788254 18.9833
0.0211557 -6.72851 22.9557
-0.0201698 -0.329308 19.5295
0.00355283 -1.13218 22.8039
-0.00476215 0.171317 11.7896
-0.0745748 0.435381 15.5066
-0.00303229 0.278755 20.7966
0.000103641 0.553298 11.6645
-0.519272 1.01776 11.5556
0.00861224 1.03113 16.6764
0.00547907 0.810717 5.51561
-1.21532 1.63088 11.3005
0.0108188 1.56964 14.0596
-0.00368049 0.00069992 1.28198
-0.00507772 1.90304 8.31743
-1.83623 1.24758 12.725
0.00921759 2.13612 14.3659
-0.0345499 1.71613 4.49293
-0.0227864 2.22281 12.4215
2.69827 -0.813432 16.165
-0.0212458 2.4407 13.6432
-0.0121539 -0.476391 17.9794
-0.162881 -0.606102 2.66425
0.0222375 1.20253 -4.83736
-0.036492 0.597152 -3.06467
-1.15796 -0.137623 7.87561
0.0331344 0.588992 -1.65576
-0.0326324 1.40232 -0.453424
1.58277 1.95897 18.6523
0.0262891 1.77148 19.4189
0.0074988 1.10829 18.3618
0.0456336 4.35895 19.4431
2.35645 2.35259 20.6194
0.0344633 2.35556 20.4109
0.0265316 5.1259 20.4793
2.33598 1.16871 22.4875
-0.00598951 1.63493 21.9257
-0.0149299 0.79301 21.3378
0.191421 -0.367077 21.1348
-0.00576605 0.0415894 21.699
-0.0118406 -0.19166 16.8683
0.139101 -0.624425 20.6628
0.000333543 -0.278553 21.1741
-0.00706881 -0.429856 17.8524
-0.1152 -0.795148 19.5589
0.000472564 -0.338164 21.4522
-0.00316383 -0.317981 17.3491
1.04272 -0.655213 19.7985
0.956502 -1.01268 19.62
1.57074 -1.04687 18.983
0.584033 -0.455113 19.5257
2.23818 -2.51452 20.0379
1.13744 -1.1877 21.4517
0.527945 -1.46652 21.8015
1.18987 -2.68319 21.1999
-0.298572 -0.832658 21.6157
-0.0917734 -0.540218 21.5861
-0.489765 -0.241073 21.7043
-0.315211 -0.186917 17.6926
-0.835545 -0.128188 20.722
-0.764673 -0.308661 21.5667
-1.1562 0.40215 20.9423
-0.968492 0.0216087 15.9992
-1.58731 0.707245 17.0289
-1.27077 -0.220037 21.0801
-1.68378 0.727753 19.7362
-1.68121 0.125859 15.3831
-1.73801 0.554574 17.5402
-1.4932 -0.343179 20.2265
-1.5573 0.389154 19.9287
-1.73857 -0.291141 17.7002
-1.35862 0.117649 18.1862
1.62168 -0.326726 19.4627
2.53798 0.498333 18.3286
0.889987 -0.255941 19.125
6.563 -0.705141 18.408
2.18033 -0.730576 21.584
3.61316 0.0726351 22.1598
0.644196 -1.31596 18.666
0.41382 -0.772749 21.7335
1.42252 -1.14849 20.8521
-0.156945 -0.630588 17.1212
-0.395497 -0.698553 21.6784
-0.0140745 -0.518196 19.1086
-1.15475 -0.234475 13.8234
-0.922849 -0.819113 21.214
-0.485869 -0.931806 18.8946
-1.29098 -0.711742 16.4387
-0.832604 -0.680133 21.1555
-0.609173 -1.10494 19.536
-1.23453 -0.903636 17.739
1.27989 0.623154 19.7751
0.889186 0.978737 19.8489
0.872096 0.550891 19.2757
2.17783 1.6925 20.0245
1.61666 0.576641 20.9145
1.14061 1.08622 20.7157
2.09677 0.726388 21.4293
0.980275 0.000797052 21.569
0.799653 0.563425 21.5135
0.74837 -0.0326291 21.9088
0.166748 -0.34951 21.5607
0.205663 -0.10825 21.5006
0.0640044 -0.581847 21.4683
-0.139982 -0.541141 21.2211
-0.00017253 -0.387714 21.1556
-0.143216 -0.75115 21.3011
-0.335431 -0.537037 20.7278
-0.136354 -0.500105 21.1983
0.0770688 -0.584238 21.2973
-1.21786 -1.07513 19.3411
-0.543362 -2.09827 22.3222
0.545624 -0.333255 20.8585
1.1916 0.25179 19.0664
1.76035 0.52618 17.7063
1.62624 0.10632 18.601
-2.31862 -0.473981 18.4008
-2.96681 -1.23678 21.2069
0.0482358 -0.980039 17.2685
0.567599 -0.214173 16.0971
1.1554 -0.591508 15.0312
1.12975 -0.568516 16.6743
-1.58718 1.18459 19.2721
-2.18027 1.26148 20.9007
-1.50853 0.297959 21.8951
-0.246013 -0.346341 21.7451
0.00131263 -0.647855 21.3233
0.265983 -0.915823 21.1622
0.000385842 -2.46949 18.0068
-0.00267564 -0.308883 14.254
-0.00302334 0.258949 11.2666
-0.00022506 0.572633 8.25115
0.000340003 0.846714 6.45502
-0.00578461 1.57398 8.39917
-0.0189477 -0.943319 13.799
0.0060838 0.329018 -2.37019
-0.0311718 1.21257 -0.438426
0.0246723 3.01387 17.8842
0.0335349 3.79983 19.9608
-0.00689147 3.42247 22.7344
-0.0115908 -0.153508 18.4132
-0.0099141 -0.10766 17.3677
-0.00349245 -0.500859 17.4697
1.22262 -1.07879 19.3394
0.592732 -2.08045 22.3148
-0.53745 -0.339443 20.8698
-1.18609 0.289793 18.8345
-1.76106 0.54966 17.6092
-1.62168 0.0857354 18.7361
2.33525 -0.48272 18.3593
2.93997 -1.25271 21.0324
-0.0469296 -0.979396 17.2436
-0.566224 -0.236069 16.2098
-1.14475 -0.614383 15.3941
-1.1023 -0.583689 17.0828
1.58283 1.15726 19.3003
2.15735 1.21949 20.9093
1.51469 0.301052 21.898
0.251887 -0.344956 21.7563
0.00255445 -0.648866 21.3255
-0.267234 -0.912244 21.1586
-2.37156 1.22674 1.85882
-0.101667 -0.156553 0.984908
-0.0421693 0.00629241 0.376234
0.0448455 -0.0224492 0.0546914
0 0 0
0.00317398 0.0322516 0.112687
0 0 0
-0.507722 3.12626 3.815
-0.17826 0.218704 0.951426
-0.00563696 -0.0169094 0.0100753
-0.0566221 0.00610257 -0.0302032
-0.0050702 -0.0503399 0.403215
0.101456 -0.158153 0.990625
2.75615 0.937031 1.91
0.0418838 0.00611366 0.374527
0 0 0
-0.04458 -0.0239567 0.0575751
-0.00348233 0.0329139 0.114961
0.515943 3.13473 3.82536
0 0 0
0.179487 0.219396 0.954136
0.0564071 0.0064669 -0.0308999
0.0055693 -0.0164172 0.00958659
0.00476007 -0.0491219 0.39624
-0.00449889 0.000109992 0.0572782
-0.000252613 0.000192836 0.0115424
0.0529044 0.123078 0.51392
0.0006477 0.000664029 0.0205856
0.000459336 0.00108773 0.0106298
0.00100401 0.000363841 0.0199262
0.000818495 -0.00166165 0.0398358
0 0 0
-0.0848462 -0.0502242 0.157665
-0.0315181 -0.0879895 0.512456
0.0064932 0.0222573 0.161103
-0.0372252 0.0285516 0.0702867
0.0117644 0.0287737 0.134142
0.00208226 0.0165977 0.0439595
0.0246961 0.0432123 0.175472
0.0223814 -0.00093225 0.10244
0.00455442 0.000135446 0.0572545
-0.000652963 0.000818878 0.0206681
0.000247486 0.000192569 0.011525
-0.0530018 0.12161 0.508091
-0.000472663 0.00107731 0.0105771
0 0 0
-0.00126322 0.000440579 0.0245829
-0.000831349 -0.00163741 0.040181
0.0845027 -0.0498516 0.156858
0.0371289 0.0284269 0.0700334
0.0315749 -0.0876465 0.511131
-0.00654813 0.0222883 0.16118
-0.0117209 0.0287277 0.133481
-0.0225696 -0.000929941 0.102991
-0.00209577 0.016733 0.044315
-0.0248315 0.0434976 0.176177
-0.666373 -0.233084 1.4441
-0.00345042 0.00182603 0.00088107
0 0 0
0 0 0
-0.00114913 0.00677774 0.0275858
2.29462e-08 -5.77597e-08 -2.65594e-06
0 0 0
-0.0467594 -0.0445232 0.00729175
-2.08192e-05 0.0175658 0.189194
-2.10879e-05 -0.00216591 -0.000391104
0 0 0
1.39135e-18 1.02732e-18 2.26678e-17
-0.00113822 0.81755 0.503521
8.52907e-06 0.0185068 0.0777179
-6.34294e-05 -0.000644053 0.00600237
0 0 0
-0.000827144 -0.0202877 0.0039918
0 0 0
0 0 0
-0.000975462 -0.00213621 0.00712498
0.00142519 0.000745693 0.000364526
0.56523 -0.19947 1.22452
-3.92069e-08 -9.55225e-08 -4.38246e-06
0.00108825 0.00685168 0.0276998
0.046358 -0.0446176 0.00722069
0 0 0
0 0 0
0 0 0
0 0 0
5.48819e-05 -0.000528647 0.00490736
0.000947263 -0.00213963 0.00714827
0 0 0
0.0447832 0.113889 0.811929
0.000216981 0.000121929 0.00579674
3.91106e-05 -0.000646549 0.00733059
0.00205191 0.00342632 0.0250592
0 0 0
-2.48514e-07 8.92886e-06 0.000849557
5.96909e-05 0.00458529 0.0144058
0 0 0
-2.04024e-07 -7.95738e-07 -4.93574e-05
1.56474e-05 0.00166596 0.0258148
0.00658724 0.0397552 0.165903
-0.032007 0.040297 0.433999
0 0 0
1.08414e-06 0.0168651 0.0465877
-2.16179e-06 0.000717453 0.0245078
-1.22936e-05 -0.00223722 0.014241
-0.000218408 0.000122569 0.00582623
-0.0451342 0.114389 0.814366
-3.77179e-05 -0.000602131 0.00707388
-0.0020231 0.00344137 0.0247826
-5.8937e-05 0.00459911 0.0144525
0 0 0