# vtk DataFile Version 2.0
tri_press
ASCII
DATASET UNSTRUCTURED_GRID
POINTS 3682 float
-0.705 0.155 -1.92853
-0.745 0.285 1.88607
-0.735 0.625 -1.73073
-0.688325 0.905 2.015
0.705 0.155 -1.92852
0.745 0.285 1.88607
0.735 0.625 -1.73073
0.688325 0.905 2.015
-0.768347 0.148319 -0.656997
-0.80741 0.165924 0.614537
-0.77565 0.774542 -0.482153
-0.760499 0.868282 0.766424
0.768336 0.148331 -0.65699
0.807373 0.16596 0.61454
0.775648 0.77454 -0.482153
0.760359 0.868142 0.766424
-1.46391 -0.208464 -3.02242
-1.47019 -0.155673 -2.01439
-1.5193 -0.155804 -0.742263
-1.55169 -0.147057 0.534484
-1.52274 -0.0634174 1.807
-1.5115 0.00450992 2.81694
-1.51506 0.0628811 3.82335
-1.46338 0.0736024 -2.93178
-1.46849 0.143582 -1.92625
-1.52642 0.161861 -0.658591
-1.55254 0.178818 0.611136
-1.49935 0.26262 1.87924
-1.4965 0.329414 2.88885
-1.50805 0.386853 3.89601
-1.47661 0.602572 -2.74404
-1.48844 0.670116 -1.73757
-1.53019 0.783231 -0.485555
-1.52062 0.856911 0.764829
-1.45847 0.90601 2.01728
-1.475 0.969749 3.02784
-1.49964 1.03025 4.0387
-1.49761 1.48484 -2.4797
-1.50651 1.56681 -1.47666
-1.52216 1.69901 -0.232095
-1.52452 1.81468 1.00753
-1.51297 1.89133 2.25233
-1.51047 1.94382 3.25587
-1.51688 1.99758 4.26422
-0.718075 -0.202105 -3.0239
-0.713125 -0.146344 -2.01655
-0.753088 -0.161769 -0.741971
-0.789652 -0.15629 0.537387
-0.770526 -0.0534032 1.81207
-0.76336 0.0120503 2.82038
-0.767186 0.0667625 3.82534
-0.71814 0.0744052 -2.93223
-0.754696 0.338071 2.89169
-0.763801 0.390991 3.89751
-0.729198 0.584416 -2.7412
-0.738142 0.97227 3.02739
-0.759472 1.03261 4.0386
-0.744242 1.47146 -2.47689
-0.749373 1.55367 -1.47357
-0.763174 1.69526 -0.23023
-0.771454 1.81859 1.0073
-0.768196 1.89467 2.25074
-0.767426 1.94578 3.25427
-0.772574 1.99906 4.26306
0.744773 -0.202108 -3.02389
0.74272 -0.146343 -2.01654
0.77817 -0.161761 -0.741965
0.790005 -0.15627 0.537391
0.74779 -0.0533978 1.81208
0.734686 0.0120494 2.82038
0.729265 0.0667574 3.82534
0.735418 0.074403 -2.93222
0.724781 0.338069 2.89169
0.723149 0.390985 3.89751
0.741943 0.584413 -2.7412
0.705309 0.972263 3.02739
0.71395 1.0326 4.03861
0.756151 1.47145 -2.47689
0.758833 1.55365 -1.47357
0.755844 1.69523 -0.230229
0.738171 1.81854 1.0073
0.718399 1.89463 2.25074
0.713657 1.94575 3.25428
0.713082 1.99904 4.26306
1.4857 -0.208471 -3.02241
1.48688 -0.155676 -2.01438
1.53377 -0.155807 -0.742252
1.55747 -0.14705 0.53449
1.5163 -0.0634121 1.807
1.49239 0.00450522 2.81694
1.48313 0.0628684 3.82335
1.47465 0.0735959 -2.93176
1.46646 0.143579 -1.92624
1.52566 0.16185 -0.658582
1.55828 0.178809 0.611141
1.50537 0.262625 1.87924
1.47962 0.329408 2.88885
1.47449 0.386838 3.89601
1.48228 0.602562 -2.74403
1.48306 0.670109 -1.73756
1.52565 0.783193 -0.485551
1.52295 0.856788 0.764832
1.46215 0.90598 2.01728
1.45431 0.969728 3.02784
1.46079 1.03023 4.0387
1.50573 1.48482 -2.47969
1.51059 1.56678 -1.47666
1.51287 1.69895 -0.232092
1.4963 1.8146 1.00753
1.47112 1.89126 2.25234
1.4621 1.94377 3.25587
1.46081 1.99753 4.26423
-0.745021 0.39 -1.85465
0 0.149221 -1.9343
-0.750814 0.13752 -1.29276
-0.751739 0.595 1.98561
0 0.287483 1.88359
-0.769178 0.232489 1.2503
0 0.65877 -1.7645
-0.818647 0.763092 -1.10644
0 0.944039 2.05404
-0.750477 0.912706 1.39071
0.74505 0.39 -1.85468
0.750808 0.137526 -1.29276
0.75198 0.595 1.98585
0.769182 0.232485 1.25031
0.818767 0.763213 -1.10644
0.750596 0.912825 1.39071
-0.788706 0.156294 -0.02123
-0.895744 0.461431 -0.569575
-5.72934e-06 0.148565 -0.656993
-0.860639 0.517103 0.69048
-1.83839e-05 0.165916 0.614538
-0.75949 0.812827 0.142135
-1.23806e-06 0.908278 -0.482153
-6.98637e-05 1.18448 0.766424
0.78869 0.15631 -0.021225
0.89505 0.461435 -0.569572
0.861129 0.517051 0.690482
0.75948 0.812818 0.142135
-0.867208 0.425715 -1.1996
0.867193 0.425718 -1.1996
-2.86467e-06 0.137091 -1.29276
-6.19032e-07 0.800807 -1.10644
0 0.39 -2.09429
-0.852847 0.489267 0.0604525
0.852363 0.489243 0.060455
-1.20566e-05 0.156655 -0.0212275
-3.55509e-05 1.17642 0.142135
-0.874005 0.556051 1.32051
0.874011 0.556026 1.32051
-9.19196e-06 0.198037 1.2503
-3.49318e-05 1.07804 1.39071
0 0.595 2.07722
-0.712943 0.2725 -1.87952
-0.3525 0.14954 -1.93399
-0.738351 0.135815 -1.61065
-0.762087 0.44 1.94956
-0.3725 0.288234 1.88284
-0.772031 0.243802 1.56819
-0.759284 0.5075 -1.81196
-0.3675 0.640679 -1.74641
-0.810925 0.728148 -1.41859
-0.722871 0.75 2.00314
-0.344162 0.962593 2.07259
-0.726467 0.915919 1.70286
0.3525 0.149961 -1.93356
0.712948 0.2725 -1.87952
0.738349 0.135817 -1.61064
0.3725 0.288234 1.88284
0.762019 0.44 1.94949
0.772353 0.24348 1.56819
0.3675 0.640684 -1.74641
0.759305 0.5075 -1.81198
0.810898 0.728121 -1.41859
0.344162 0.959389 2.06939
0.723048 0.75 2.00332
0.726599 0.916052 1.70286
-0.762046 0.140454 -0.97488
-0.780412 0.150421 -0.339113
-0.850762 0.295517 -0.613286
-0.384067 0.14866 -0.656995
-0.816342 0.171158 0.93242
-0.800776 0.158391 0.296653
-0.840518 0.338266 0.652508
-0.403976 0.165396 0.614538
-0.801367 0.773036 -0.794298
-0.859959 0.630117 -0.525864
-0.764274 0.790389 -0.170009
-0.403242 0.872242 -0.482153
-0.761034 0.89604 1.07857
-0.846839 0.710827 0.728452
-0.75254 0.8331 0.454279
-0.4466 1.15901 0.766424
0.762033 0.140467 -0.974873
0.384087 0.148603 -0.656992
0.780396 0.150437 -0.339108
0.850839 0.29531 -0.613281
0.816477 0.171023 0.932423
0.40395 0.165392 0.614539
0.80076 0.158407 0.296658
0.838341 0.339461 0.652511
0.801444 0.773113 -0.794298
0.403235 0.872231 -0.482153
0.859884 0.630255 -0.525863
0.764238 0.790352 -0.170009
0.762726 0.897733 1.07857
0.446599 1.15922 0.766424
0.846877 0.710663 0.728453
0.752565 0.833125 0.454279
-0.86177 0.407858 -1.52713
-0.372511 0.39 -2.03099
-1.43233e-06 0.133683 -1.61353
0 0.26961 -2.08265
-0.869006 0.281617 -1.24618
-0.375408 0.136886 -1.29276
-0.866917 0.575526 1.65306
-0.37587 0.595 2.07021
-4.59598e-06 0.224744 1.56695
0 0.441241 2.08869
-0.863336 0.39427 1.28541
-0.384593 0.198038 1.2503
-3.09516e-07 0.619229 -1.43547
0 0.524385 -2.01687
-0.874956 0.594404 -1.15302
-0.409324 0.778696 -1.10644
-1.74659e-05 0.9889 1.72238
0 0.76952 2.08311
-0.87568 0.734379 1.35561
-0.375256 1.03036 1.39071
0.861786 0.407859 -1.52714
0.372525 0.39 -2.03101
0.869005 0.281622 -1.24618
0.375402 0.137089 -1.29276
0.866836 0.575513 1.65318
0.37599 0.595 2.07023
0.863325 0.394255 1.28541
0.384586 0.198038 1.2503
0.875069 0.594465 -1.15302
0.409383 0.778698 -1.10644
0.875678 0.734425 1.35561
0.375281 1.03035 1.39071
-0.843921 0.311208 0.0196113
-0.394543 0.156107 -0.0212287
-0.880263 0.443573 -0.884589
-0.843998 0.475349 -0.254561
-4.297e-06 0.138597 -0.974876
-8.89299e-06 0.149948 -0.33911
-0.859191 0.503185 0.375466
-0.875858 0.536577 1.00549
-1.52203e-05 0.157853 0.296655
-1.37879e-05 0.170325 0.932421
-0.8516 0.673763 0.101294
-0.45577 1.14664 0.142135
-9.28548e-07 0.824251 -0.794298
-1.83945e-05 1.05481 -0.170009
-5.27073e-05 1.19693 0.454279
-5.23978e-05 1.14011 1.07857
0.843887 0.311096 0.019615
0.394553 0.156054 -0.0212262
0.88031 0.443576 -0.884585
0.843222 0.475339 -0.254558
0.859088 0.503147 0.375468
0.875865 0.536538 1.0055
0.851427 0.673783 0.101295
0.455789 1.14675 0.142135
-0.868107 0.277059 -1.56889
-0.88427 0.293246 -0.929734
-0.878162 0.606195 -0.839443
-0.86732 0.550952 -1.47286
0.868103 0.277061 -1.56889
0.86721 0.550983 -1.47286
0.877974 0.606226 -0.839441
0.884257 0.293252 -0.929729
-0.363954 0.132147 -1.61209
0.363951 0.133723 -1.61208
0.379784 0.138551 -0.974874
-0.379792 0.138643 -0.974878
-0.388412 0.72804 -1.42703
-0.398575 0.804237 -0.794298
0.398603 0.804246 -0.794298
0.388442 0.728038 -1.42703
-0.362505 0.271055 -2.02951
-0.370005 0.515942 -1.97365
0.370013 0.515942 -1.97377
0.362513 0.271055 -2.02946
-0.849411 0.302328 -0.296837
-0.840461 0.325617 0.33606
-0.847299 0.691335 0.414873
-0.856199 0.65215 -0.212285
0.84934 0.302214 -0.296833
0.856014 0.652199 -0.212284
0.847332 0.691313 0.414874
0.840238 0.325716 0.336063
-0.390066 0.150862 -0.339112
0.390247 0.150476 -0.339109
0.400784 0.157659 0.296657
-0.400788 0.157695 0.296654
-0.434369 1.01917 -0.170009
-0.461581 1.17362 0.454279
0.461256 1.17311 0.454279
0.43435 1.01917 -0.170009
-0.864175 0.367892 0.968957
-0.860249 0.417135 1.61062
-0.827259 0.742189 1.67796
-0.871262 0.713536 1.04203
0.864321 0.367881 0.968959
0.871683 0.713511 1.04203
0.830144 0.742213 1.67802
0.860292 0.417128 1.61068
-0.394154 0.170332 0.932421
0.394132 0.170323 0.932422
0.378543 0.22479 1.56757
-0.378547 0.22479 1.56757
-0.37777 1.11225 1.07857
-0.359709 0.951197 1.71262
0.359722 0.951062 1.71262
0.377713 1.11243 1.07857
-0.374185 0.440621 2.05948
0.374245 0.440621 2.05945
0.360076 0.75976 2.01786
-0.360016 0.75976 2.03994
-0.716453 0.21375 -1.91151
-0.52875 0.150534 -1.93299
-0.725228 0.141855 -1.76959
-0.758526 0.3625 1.9228
-0.55875 0.286432 1.88464
-0.774493 0.248424 1.72713
-0.748519 0.56625 -1.77272
-0.55125 0.648693 -1.75442
-0.780798 0.684409 -1.57466
-0.695189 0.8275 1.99866
-0.516244 0.937802 2.0478
-0.708961 0.912024 1.85893
0.52875 0.150669 -1.93285
0.716526 0.21375 -1.91157
0.725181 0.141902 -1.76958
0.55875 0.286438 1.88463
0.758496 0.3625 1.92277
0.774448 0.248468 1.72713
0.55125 0.648675 -1.75441
0.74839 0.56625 -1.77259
0.780777 0.684389 -1.57466
0.516244 0.937802 2.0478
0.678331 0.8275 1.98181
0.70909 0.912153 1.85893
-0.767656 0.141928 -0.815938
-0.774273 0.149477 -0.498055
-0.847349 0.203021 -0.635141
-0.576338 0.148229 -0.656996
-0.811925 0.168491 0.773478
-0.806875 0.159375 0.455595
-0.855386 0.236384 0.633523
-0.605588 0.16587 0.614537
-0.791403 0.776683 -0.638226
-0.829677 0.708266 -0.504009
-0.766945 0.779449 -0.326081
-0.592055 0.82861 -0.482153
-0.76021 0.881605 0.922496
-0.819901 0.797671 0.747438
-0.754616 0.848788 0.610351
-0.611228 1.029 0.766424
0.76764 0.141944 -0.815931
0.576389 0.148112 -0.656991
0.77426 0.14949 -0.498049
0.847231 0.202999 -0.635136
0.811915 0.168501 0.773481
0.60562 0.165759 0.61454
0.806849 0.159401 0.455599
0.855537 0.236371 0.633526
0.791438 0.776718 -0.638226
0.592024 0.828551 -0.482153
0.829874 0.708451 -0.504008
[...]
POINT_DATA 3682
SCALARS point_scalars float 1
LOOKUP_TABLE default
-40.0808
-39.5758
-14.0554
-36.4758
-39.8624
-39.2574
-14.3538
-35.9494
-34.7085
-34.4595
-35.2117
-49.5455
-34.7086
-34.4207
-34.5501
-49.5009
-23.482
-75.4228
-46.3817
-34.2561
-41.5146
-39.3293
-32.7587
-13.5754
-65.5484
-47.8888
-33.2388
-43.6065
-33.9368
-31.5611
37.4128
-83.7081
-43.1669
-38.8314
-38.4313
-33.0813
-34.9809
-24.349
-62.114
-76.8226
-48.0594
-36.9621
-36.6238
-36.6238
54.5746
-62.0901
-39.3041
-35.2802
-41.1251
-32.2159
-29.9527
54.5746
-29.9649
-29.0985
145.794
-31.9674
-31.0117
15.0361
-51.5087
-61.7644
-61.729
-34.1331
-33.0041
-30.706
53.9611
-34.0712
-39.8812
-35.1023
-40.8615
-31.9441
-29.2323
50.3416
-29.6588
-28.8319
147.585
-31.7127
-30.798
16.2805
-50.948
-61.3643
-62.1435
-33.1725
-32.7038
-30.0616
-24.3663
-75.4881
-46.4128
-33.6597
-41.4408
-39.0943
-30.8349
-13.639
-65.3618
-47.5946
-33.0812
-43.4583
-33.699
-31.3431
34.373
-83.0412
-42.7451
-38.8472
-38.2153
-33.111
-32.4046
-24.9285
-60.8477
-76.8026
-48.0111
-36.1121
-36.0764
-36.0764
-10.1534
-118.309
-52.4665
-33.533
-31.0056
-34.1856
-36.0816
-52.5016
-30.2399
-43.9928
-9.80432
-52.5017
-33.2985
-34.1191
-52.6785
-43.9021
-32.7615
-43.2606
-37.1011
-34.5673
-36.8386
-51.767
15.197
-69.4101
-32.1689
-43.0916
-34.6264
-51.6846
-53.3318
-53.3606
-54.2404
-27.9639
204.384
-34.8626
-34.9373
-33.4365
-94.6693
-39.4057
-39.2331
-37.9339
-42.7684
-22.7068
-3.95581
-133.528
-75.6172
-35.2935
-33.1054
-36.435
-11.8326
-32.7336
-59.2747
-33.1083
-31.0464
-39.0209
-134.816
-2.25785
-74.6024
-32.8977
-35.0689
-36.2213
-32.68
-11.3668
-58.7967
-30.8126
-32.8416
-38.9186
-41.1739
-33.3963
-36.6116
-36.6306
-47.5754
-33.6855
-33.4905
-36.7148
-35.1618
-38.3314
-49.7468
5.32198
-48.3131
-39.9054
-50.6303
-65.1722
-41.1999
-36.6424
-33.3522
-36.3646
-47.7622
-36.7152
-33.6342
-33.3113
-35.1532
5.20619
-38.1676
-49.6988
-48.3125
-65.1228
-39.9224
-50.5966
-95.105
181.758
-75.215
191.64
-54.6102
-54.0604
-44.7548
-27.9498
-36.1455
-22.4202
-37.2488
-37.4289
-29.7338
59.6076
-51.6951
-32.4517
-35.1789
-26.5933
-42.2996
-42.34
-95.0557
181.77
-54.6636
-53.8133
-44.5483
-27.6614
-37.1238
-37.3844
-51.724
-32.3692
-42.2023
-42.3097
-33.3984
-33.1385
-43.2569
-32.179
-43.587
-35.1314
-35.8967
-37.9416
-34.8633
-39.5532
-41.393
-81.4335
-8.77641
-7.51457
-89.1877
-53.4282
-33.2404
-33.145
-43.3524
-32.1391
-35.887
-38.1383
-41.3506
-81.7856
-92.8199
-43.9929
-39.9274
-89.9275
-92.9267
-89.7054
-40.0382
-44.0317
-75.7429
-75.766
-43.2071
-43.1347
-36.1274
-17.7832
-17.6613
-36.2051
168.734
70.1551
70.1727
167.633
-31.6739
-34.5959
-40.8849
-37.3958
-31.528
-37.3535
-40.8231
-34.5561
-34.4764
-34.5165
-34.5866
-34.5804
-16.6624
-79.3104
-78.8842
-16.7153
-41.3087
-41.0052
-41.6803
-37.605
-41.2153
-37.5689
-41.4671
-40.8308
-39.7759
-39.7626
-36.5384
-36.6446
-51.8792
-35.8337
-35.7827
-51.8505
-28.36
-28.1308
-29.6153
-29.5235
-8.13184
-163.804
-92.0945
-38.2178
-35.4954
-40.4825
-8.51573
-24.9773
-42.4372
-35.2187
-32.691
-36.9118
-164.298
-8.021
-91.7786
-35.2356
-37.9101
-40.4844
-24.1259
-7.19766
-42.6208
-32.4301
-33.849
-36.7689
-40.5748
-32.7602
-33.226
-35.9432
-39.3489
-35.1076
-33.213
-36.4124
-32.6398
-36.6551
-43.3432
-13.0652
-51.6289
-44.5479
-49.598
-58.0332
-40.654
-35.9566
-32.6918
-33.4065
-39.4985
-36.4185
-34.5251
-33.009
-32.041
-13.7375
-36.6059
-43.4061
-51.1503
-58.4069
-44.4123
-49.7852
-9.89612
-18.2199
-66.996
148.541
-121.262
-121.582
-89.8389
105.835
-64.215
-44.9822
-55.0618
-53.4302
-34.0635
-33.327
-40.2275
-29.7846
-31.5838
-31.4442
-35.1243
-25.006
-34.4584
-35.3947
-35.9195
-35.7429
-35.1038
-34.8482
-37.6682
8.20856
-57.8174
-41.7428
-52.9369
-38.2633
-30.3031
-30.2375
-32.5782
-27.4625
-40.8793
-45.6416
-45.7047
-42.4679
-9.10055
-19.5662
-67.3965
148.537
-64.2001
-45.0299
-55.1081
-53.4706
-33.8217
-33.0728
-39.9927
-29.6042
-34.2691
-35.348
-35.8724
-35.6942
-57.9082
-41.8225
-52.8749
-38.1432
-40.7781
-45.6647
-45.6229
-42.4282
-31.7667
-32.033
-34.0575
-32.6758
-40.763
-39.6147
-40.5664
-33.0133
-36.9999
-37.0104
-41.21
-35.5555
-33.8178
-36.3416
-35.6139
-36.2225
-36.8176
-36.818
-36.3289
-37.4383
-50.877
-51.2114
-46.4512
-72.3475
13.3456
13.1153
4.84519
11.31
-68.3199
-68.3004
-78.167
-60.5455
-31.635
-32.846
-33.2352
-32.681
-40.7004
-39.5002
-40.4644
-32.9452
-33.9247
-36.3667
-35.5107
-36.1784
-50.9198
-51.1833
-46.3659
-72.3875
-67.5694
-54.135
-52.5097
-45.5356
-67.4269
-54.184
-52.5425
-45.6025
-63.6915
-54.3716
-54.3844
-47.5314
-5.26377
-29.8061
-29.8655
-23.8659
200.9
203.783
159.524
200.736
-33.7587
-33.4995
-35.6904
-37.2133
-33.6942
-33.3084
-35.5539
-37.2468
-33.3611
-33.4832
-33.9036
-33.3786
-89.3713
-44.23
-96.712
-89.6167
-40.9601
-38.2694
-40.5963
-38.9247
-41.0039
-38.2415
-40.319
-38.764
-36.9665
-37.8534
-37.8285
-38.7646
-38.4954
-42.5759
-42.5597
-47.6117
-25.2566
-21.7917
-23.8272
-24.8759
-72.8118
158.86
-93.3126
113.36
-81.6776
-75.2737
-42.2816
-30.3408
-36.8042
-29.2893
-39.6004
-36.4757
-62.8989
73.6297
-38.9503
2.45585
-79.6625
-45.0232
-38.812
-30.1316
-32.9319
-29.1619
-40.1264
-36.6525
-92.7603
113.704
-72.9185
159.175
-81.5121
-74.4119
-36.6598
-29.084
-42.1337
-30.1264
-39.2735
-36.2896
-38.9987
3.0283
-63.0927
73.579
-79.5145
-44.736
-32.8751
-28.9737
-38.6793
-30.0255
-40.028
-36.5841
-41.619
-42.5583
-32.0575
-33.8626
-45.4775
-33.8604
-40.6957
-35.069
-47.9645
-43.6131
-33.8705
-34.127
-34.3919
-33.1122
-36.109
-37.6185
-39.0941
-24.5183
-37.8685
-35.6709
-42.894
-49.7245
-5.44827
2.75694
-41.0739
-50.5485
-39.7157
-34.9371
-44.1294
-62.0604
-69.8695
-58.0066
-41.5934
-42.6422
-40.7461
-35.0544
-31.9856
-33.8592
-45.6897
-33.7845
-48.4943
-43.6034
-36.1052
-37.6423
-33.9004
-34.1335
-34.1644
-33.9711
-39.1636
-24.9832
-5.48195
2.76295
-37.6434
-35.6584
-42.8883
-49.5948
-41.1455
-50.5539
-69.9664
-57.9956
-39.6594
-34.9005
-43.9246
-61.9679
-98.1986
-92.5014
176.459
149.875
-75.6104
-75.6266
189.683
188.202
-71.4979
-45.4167
-63.9967
-47.0038
-43.0811
-44.7471
-28.0492
-28.115
-36.2492
-36.3069
-25.3353
-25.0803
-37.2158
-38.3363
-38.4271
-36.8144
-28.2435
-27.942
55.1811
54.6639
-44.3498
-64.6145
-34.3823
-27.2593
-35.3783
-35.3494
-27.1699
-27.355
-46.2914
-40.9632
-46.6202
-38.834
-98.1039
-92.397
150.045
176.36
-69.8855
-45.4602
-63.7579
-47.1919
-44.4529
-42.8903
-27.7067
-27.8688
-37.0731
-38.1699
-38.3979
-36.7414
-64.6243
-44.4914
-27.3184
-34.38
-40.8725
-46.0773
-38.8172
-46.6051
-32.2175
-34.2619
-33.1498
-33.6226
-43.519
-41.1834
-31.6429
-33.9492
-43.5873
-43.5417
-34.999
-35.0103
-34.7603
-37.6789
-38.7766
-37.7941
-34.7883
-34.7868
-39.556
-39.5482
-41.4503
-39.615
-43.5855
-89.4096
-11.7512
-11.4593
-9.04348
-9.10592
-88.1396
-88.1019
-52.8128
-52.7985
-32.1567
-34.2146
-33.1509
-33.633
-41.4321
-43.5928
-31.5238
-33.9001
-37.6725
-34.7911
-38.7662
-37.9411
-39.5469
-41.4072
-89.1184
-43.6076
-76.3316
-72.4558
-69.6457
-69.3774
-46.8996
-42.6354
-45.9283
-44.1211
-36.9572
-44.572
-44.6274
-39.4316
-55.3179
-65.4211
-65.5719
-66.2301
-76.3239
-69.5801
-69.0988
-71.7375
-55.4456
-66.3056
-65.5398
-65.5267
-36.8084
-39.1374
-44.7162
-44.7487
-46.8892
-44.1487
-45.983
-42.5062
-96.7143
-91.1164
-63.9099
-63.4197
-95.8044
-63.2618
-63.9312
-90.6216
-40.3497
-41.1383
-47.5843
-46.6886
-40.3037
-46.5517
-47.5342
-41.1035
-45.0548
-44.0591
-15.7027
-38.695
-14.0985
2.20069
-25.1101
-32.0683
-14.8144
-32.2186
-25.0605
2.30414
-45.085
-38.8026
-15.7947
-43.9595
124.702
154.19
198.161
104.441
37.2148
-3.34416
152.512
125.466
37.2771
125.184
152.558
-2.97558
126.031
103.641
197.973
153.999
-31.6413
-31.2261
-32.598
-34.2715
-34.0034
-34.613
-34.2702
-32.4019
-42.9272
-45.9994
-37.7397
-37.098
-38.7004
-33.7382
-35.7936
-45.3096
-31.4609
-34.1786
-32.5047
-31.0247
-38.7274
-45.2444
-35.6299
-33.6956
-42.9222
-37.0318
-37.6023
-46.0552
-33.7192
-32.87
-34.2354
-34.4708
-34.2956
-35.4758
-33.3931
-32.6055
-34.2999
-32.5852
-33.3992
-35.4512
-35.7313
-36.2809
-33.8577
-33.2154
-35.747
-33.171
-33.8608
-36.2819
-20.37
-73.6721
-41.6277
10.3567
-57.9558
-77.0055
-95.8965
-67.2103
-58.0605
-67.1318
-95.755
-76.9941
-19.9739
10.2088
-41.7146
-73.6291
-35.0952
-35.9136
-38.0413
-35.5244
-42.8652
-41.5058
-39.7463
-36.6426
-38.2527
-44.8443
-42.5801
-39.3073
-38.7509
-36.0592
-39.5122
-43.4464
-35.7474
-35.7352
-37.916
-35.7718
-38.604
-43.4272
-39.3867
-35.9133
-37.9864
-39.1753
-42.7248
-44.6431
-43.0868
-36.4249
-39.6381
-41.3059
-38.1048
-37.4876
-38.6997
-36.7298
-38.1022
-36.6839
-38.6844
-37.4863
-38.2861
-35.4807
-36.9263
-35.6861
-38.3539
-35.7882
-36.9657
-35.5755
-55.0144
-46.2917
-47.2833
-59.9026
-34.1681
-32.5967
-38.578
-39.8049
-34.05
-39.7467
-38.56
-32.5705
-54.8361
-59.8908
-47.271
-46.3014
-31.9539
-26.7197
-24.3985
-29.8932
-31.6965
-29.6968
-23.9652
-25.8946
-30.1989
-27.8192
-25.18
-29.7281
-30.4555
-29.8634
-25.4345
-27.9624
-25.7191
-121.995
-115.796
-39.6482
-37.4327
-41.8381
-4.85304
-6.32284
-37.5503
-35.7577
-33.9926
-36.26
-124.439
-26.013
-116.88
-37.1483
-39.314
-41.7375
-6.95782
-4.7209
-37.6799
-33.5842
-34.8145
-36.0509
-38.8843
-33.2981
-33.0127
-35.5373
-36.0116
-34.8193
-32.693
-36.0344
-33.2099
-36.8075
-40.2537
-26.5325
-49.9597
-45.4823
-48.9559
-53.5511
-38.9623
-35.5472
-33.2715
-33.2519
-36.0337
-36.024
-34.7375
-32.5156
-31.2584
-22.0927
-36.711
-40.5968
-49.8285
-53.6879
-45.727
-49.1326
-11.3953
-17.8932
-64.6478
82.3849
-120.49
-120.566
-103.04
61.8841
-57.6185
-48.2514
-54.9175
-52.717
-33.7848
-33.453
-38.8847
-30.4027
-31.1078
-31.0314
-33.067
-26.8629
-34.5106
-34.4003
-35.4321
-34.6406
-34.7333
-34.8423
-63.3878
-22.0541
-56.4784
-46.7424
-55.8819
-45.1586
-30.185
-30.1641
-31.2883
-28.8
-42.1083
-44.7372
-44.809
-43.1797
-12.8443
-17.0876
-64.2401
82.8877
-57.6311
-48.2979
-54.9151
-52.7968
-33.548
-33.207
-38.616
-30.2132
-34.3899
-34.3184
-35.3531
-34.5816
-56.6392
-46.7729
-56.0052
-44.9361
-42.0155
-44.7211
-44.724
-43.0795
-32.5024
-31.7602
-35.1212
-32.4557
-42.6808
-40.8841
-40.4699
-36.5268
-37.095
-37.1011
-39.0528
-36.1837
-33.9783
-35.3971
-35.3661
-33.4897
-36.8465
-36.8471
-36.9973
-36.8782
-51.4475
-51.4943
-49.3264
-59.7074
14.9444
14.8505
11.2058
15.0531
-69.0926
-69.0888
-73.6403
-64.9094
-32.3317
-32.2582
-31.5331
-32.4327
-42.5404
-40.9771
-40.0691
-36.4636
-34.1802
-35.3628
-35.3067
-33.5818
-51.3591
-51.4628
-49.3103
-59.6607
-59.4324
-53.6652
-52.9197
-48.5248
-59.4055
-53.7072
-52.9487
-48.5727
-58.6067
-54.2412
-54.6158
-50.5515
-12.2076
-27.9732
-27.8404
-30.2736
197.376
206.917
187.76
197.238
-34.0566
-34.3105
-35.2897
-35.9207
-34.1004
-34.2771
-35.2454
-36.006
-33.4382
-33.3638
-33.6341
-33.4373
-93.033
-72.9721
-100.641
-92.997
-40.0216
-38.8184
-39.9495
-39.126
-39.9027
-38.7808
-39.5724
-38.8961
-37.3642
-37.955
-37.9422
-38.3536
-40.506
-42.7744
-42.7655
-44.9777
-23.6111
-22.2158
-23.2277
-23.362
6.50072
-10.8841
-65.2226
91.8228
-156.058
-123.956
-110.682
25.2764
-81.336
-72.4062
-71.0822
-73.8218
-36.5601
-34.6071
-40.4554
-31.4512
-34.0593
-32.2482
-34.9542
-30.4655
-37.639
-34.9186
-39.0574
-35.9856
-12.3691
-20.3502
-51.6869
52.9136
-33.4465
-34.6176
-38.3868
-14.2978
-47.2065
-59.4375
-70.5973
-48.7924
-33.9302
-33.0072
-38.6502
-30.8454
-32.8425
-30.6052
-31.3847
-30.3759
-37.6703
-39.7883
-39.8135
-37.5044
-156.588
-124.588
-110.821
24.5838
7.22782
-11.9602
-64.8323
91.6313
-80.5159
-72.1435
-70.7897
-71.9754
-33.8401
-32.0648
-34.7798
-30.1305
-36.2808
-34.3668
-40.2277
-31.2314
-37.4856
-34.6659
-38.6261
-35.8339
-33.2963
-34.7029
-38.3776
-14.3714
-11.176
-22.3206
-51.7378
52.6138
-46.9985
-58.9655
-70.3673
-48.292
-32.1229
-30.4946
-31.3646
-30.0496
-32.724
-32.7461
-38.234
-31.0051
-37.5635
-39.667
-39.6821
-37.4315
-41.1389
-42.63
-39.5643
-42.0307
-32.7807
-32.5995
-32.6161
-33.5579
-35.6211
-37.8787
-42.1072
-34.9187
-36.3435
-36.8668
-38.5548
-35.7197
-39.7145
-40.9051
-46.7282
-46.2153
-33.9775
-32.9953
-33.1296
-33.8782
-33.4383
-33.6946
-33.9896
-33.5006
-36.6193
-36.8007
-36.7223
-36.9679
-33.2032
-37.382
-38.2117
-29.6262
-36.8405
-39.6546
-40.224
-35.758
-47.8355
-50.2395
-45.775
-65.6925
-2.63042
10.3635
0.481271
6.55499
-49.5192
-47.1305
-43.829
-49.7473
-42.9216
-37.4098
-39.432
-38.2193
-49.8093
-50.956
-46.8135
-56.2039
-62.4059
-67.2033
-67.2185
-62.1296
-41.1823
-42.6676
-39.5092
-42.1007
-36.3578
-36.8794
-38.5859
-35.7222
-32.6859
-32.524
-32.5773
-33.5222
-35.9749
-37.8466
-41.839
-34.8308
-39.7726
-40.8887
-46.159
-46.2199
-36.6211
-36.8012
-36.7238
-36.964
-34.1299
-32.9334
-33.1086
-33.8825
-32.8808
-33.9131
-33.6709
-33.3188
-33.0907
-37.6963
-38.1636
-30.0219
-2.50587
10.0047
-0.162114
6.47938
-36.6817
-39.4814
-39.9703
-35.6836
-47.855
-50.2292
-45.7738
-65.7443
-49.0565
-47.3076
-43.903
-49.8191
-62.1462
-67.1781
-67.1833
-62.1373
-42.8949
-37.4224
-39.4614
-38.2453
-49.9299
-50.8503
-46.6118
-56.1829
-88.3506
-79.3995
-97.4289
-94.6012
175.762
190.688
177.331
176.276
-81.1381
-69.6968
-75.3657
-75.3821
172.512
196.701
183.011
181.754
-54.8467
-54.3945
-61.6634
-49.5401
-53.9198
-54.1285
-58.6792
-50.2567
-43.0619
-42.8005
-43.8808
-44.7905
-29.3052
-26.4289
-27.9851
-27.9977
-36.1214
-36.6145
-36.1639
-36.1939
-23.6044
-21.7461
-23.8327
-23.623
-36.6362
-37.8174
-37.0784
-37.6419
-36.8226
-37.7433
-37.8651
-36.966
-35.6444
-14.6571
-29.3147
-28.992
32.0442
112.48
58.9417
58.6595
-51.7649
-52.1218
-47.6517
-57.0142
-35.3796
-30.2439
-32.8244
-31.7715
-33.6968
-36.7981
-35.265
-35.2512
-26.9975
-25.1078
-26.4543
-26.5736
-44.0015
-41.2778
-43.4156
-41.5373
-42.3824
-42.4845
-44.3708
-40.5846
-88.1248
-79.3208
-97.3823
-94.5943
175.795
190.596
176.341
177.317
-54.9101
-54.4515
-61.6638
-49.5994
-53.8481
-54.3871
-58.4909
-50.2938
-42.8408
-42.6722
-44.5757
-43.6555
-29.0662
-26.0689
-27.6755
-27.7305
-36.543
-37.6926
-36.9779
-37.5101
-36.7823
-37.7076
-37.8288
-36.9097
-51.7628
-52.1575
-57.0334
-47.7628
-35.2862
-29.982
-31.7483
-32.7808
-43.9022
-41.1673
-41.4281
-43.2748
-42.3396
-42.4609
-40.5428
-44.3472
-33.2254
-33.531
-32.9614
-33.8062
-32.9288
-33.2811
-33.0532
-33.3351
-41.723
-44.4031
-43.4536
-42.3248
-32.0026
-32.679
-31.7968
-32.7577
-42.0927
-45.2789
-43.6138
-43.5899
-35.1867
-34.2702
-35.032
-35.0377
-35.8362
-35.8508
-35.2755
-36.7625
-37.6657
-38.7883
-38.3599
-37.767
-35.4736
-34.3388
-34.844
-34.8432
-38.2354
-39.6511
-39.5009
-39.4964
-44.173
-39.0184
-41.4976
-40.6475
-76.0708
-85.523
-61.181
-91.7664
-1.28188
-16.3399
-9.70861
-9.59111
2.22025
-24.6194
-7.22505
-7.25695
-83.088
-93.6197
-89.3818
-89.3578
-56.9131
-50.2464
-53.3253
-53.3135
-32.8582
-33.4283
-32.8254
-33.7175
-32.937
-33.2866
-33.0562
-33.345
-41.8732
-44.4858
-42.4761
-43.5416
-31.9738
-32.5408
-31.754
-32.6847
-35.7926
-35.7524
-36.7439
-35.291
-37.6859
-38.6721
-38.4
-38.0616
-44.0838
-38.9944
-40.6364
-41.4341
-77.1313
-85.6494
-92.1569
-61.2456
-68.1544
-88.219
-96.4869
-87.985
-43.5658
-43.1217
-43.5123
-43.8048
-39.7952
-38.0126
-42.6834
-40.2469
-85.6199
-88.2511
-90.7862
-74.6993
-68.3506
-88.18
-96.5498
-89.5069
-85.6419
-87.9833
-90.6118
-74.6707
-39.8614
-38.0122
-42.8199
-40.4525
-43.5846
-43.1486
-43.5522
-43.8543
-82.1202
-75.885
-75.6504
-70.2748
-82.2672
-75.7545
-75.6298
-69.886
-42.9824
-41.6836
-44.9057
-43.4205
-42.9202
-41.6328
-44.7211
-43.3651
-37.1233
-40.4689
-27.2948
-35.0027
-21.2852
-11.2175
-22.6041
-14.3314
-21.3386
-10.8785
-22.6141
-14.3529
-37.2305
-40.5135
-27.3284
-35.0227
177.989
168.235
179.271
184.808
69.47
34.4976
116.298
62.3172
34.1218
70.4327
61.4023
116.452
168.401
178.019
184.396
179.343
-31.5237
-32.0707
-31.9266
-31.6888
-34.4337
-34.463
-34.3236
-34.2533
-40.3656
-42.6222
-39.0321
-41.4557
-36.48
-40.0025
-35.6155
-38.5072
-31.4343
-31.9587
-31.8487
-31.5139
-36.4194
-39.9964
-35.5348
-38.427
-40.2917
-42.5068
-39.0119
-41.416
-34.3959
-34.425
-34.392
-34.4186
-34.1725
-34.6733
-33.7428
-34.7694
-34.6667
-34.1854
-34.7905
-33.7717
-35.2324
-34.3808
-34.7089
-34.0404
-34.3737
-35.2319
-34.0347
-34.7052
-27.4406
-4.11288
-28.3941
-11.4919
-72.2493
-74.8222
-83.648
-84.7647
-74.7504
-71.3784
-84.6468
-83.155
-3.93862
-27.3373
-11.5543
-28.4026
-44.9869
-39.0589
-38.3451
-39.6686
-43.754
-40.3118
-42.043
-39.4014
-39.6835
-40.5942
-43.5866
-45.9323
-38.5702
-36.5899
-39.5163
-37.881
-45.0263
-39.5705
-38.2489
-39.6005
-38.5491
-36.5222
-39.5257
-37.9025
-39.6743
-40.462
-43.2874
-45.6089
-43.6022
-40.129
-41.8692
-39.2253
-40.5417
-38.4741
-39.6044
-39.5943
-40.5285
-38.4632
-39.5835
-39.583
-37.0784
-36.6983
-36.3793
-36.6631
-37.2024
-36.8364
-36.4615
-36.7493
-50.9676
-54.6391
-48.8875
-52.4013
-34.2931
-36.192
-35.5131
-37.2734
-34.2441
-36.1228
-35.4694
-37.2291
-50.9214
-54.5972
-48.8828
-52.3856
-29.5246
-28.5551
-28.3028
-27.0202
-28.3846
-29.2591
-26.3496
-27.9706
-29.2776
-29.3416
-28.5472
-29.0578
-29.6097
-29.2732
-29.0134
-28.5653
-83.3275
89.3926
-116.738
-19.9824
-78.203
-96.8668
-41.4988
-33.6534
-37.0011
-33.0441
-42.6565
-39.395
-41.6029
31.5138
-37.7826
12.511
-47.6029
-40.4196
-38.9148
-31.5512
-32.6019
-32.026
-38.097
-35.1171
-119.601
-14.371
-82.835
88.7075
-78.3497
-96.2575
-36.9457
-32.7793
-41.234
-33.4287
-42.8022
-39.2797
-37.1623
12.3139
-41.7956
31.376
-47.5569
-41.0106
-32.4411
-31.794
-39.4383
-31.4109
-38.0211
-35.004
-43.161
-40.2021
-31.9813
-33.7302
-41.1019
-33.084
-37.781
-34.9768
-38.3323
-38.1828
-36.2399
-35.4619
-33.622
-35.3145
-36.316
-36.9619
-36.2134
-23.1218
-36.9454
-37.4836
-41.1072
-39.193
-11.1137
-15.1537
-45.126
-53.2319
-42.4634
-37.4131
-46.1022
-54.4039
-55.5611
-58.3706
-43.201
-40.2472
-37.8003
-34.9892
-31.6495
-33.7296
-41.0684
-33.266
-38.5729
-38.2058
-36.317
-36.9735
-33.8369
-35.4158
-33.103
-35.6936
-35.9086
-24.3963
-15.1302
-14.0546
-36.6698
-37.5694
-41.1575
-38.2887
-44.773
-52.836
-55.5781
-58.0365
-41.5504
-37.363
-46.1567
-54.423
-63.6791
80.0564
-61.9829
74.5542
-68.208
-66.5008
156.699
142.957
-106.025
-11.4237
-106.713
-8.86816
-90.3381
-90.1012
96.3859
99.3779
-71.6359
-62.8655
-45.0132
-45.8785
-62.1865
-49.6932
-58.0189
-49.5594
-39.588
-30.6678
-39.0831
-30.3857
-40.7755
-39.7306
-29.8045
-29.7809
-33.5599
-27.1719
-33.444
-26.759
-35.2105
-35.2609
-27.2991
-27.1353
-35.5043
-35.1012
-35.5314
-36.1967
-35.9839
-36.0328
-35.9966
-35.3965
-66.8435
-22.9765
-67.0666
-22.6726
-37.2923
-37.4274
5.17095
5.13155
-65.3202
-49.418
-44.5719
-37.6394
-48.3472
-57.8875
-42.0615
-35.1874
-31.0965
-29.2812
-31.0534
-29.1682
-32.5569
-32.5534
-27.4158
-27.5018
-42.4822
-40.5994
-44.8931
-46.2684
-47.2782
-44.4689
-44.9165
-40.6317
-63.2136
79.9223
-61.4412
74.5652
-68.6756
-66.7573
142.828
156.757
-71.3194
-63.0348
-45.0266
-45.9727
-62.1177
-49.7355
-58.0159
-49.659
-39.3563
-30.4644
-38.7825
-30.2102
-39.5043
-40.5496
-29.6212
-29.5941
-35.2582
-34.9775
-35.429
-36.1664
-35.845
-35.9168
-35.9078
-35.3688
-65.4944
-49.3908
-44.6811
-38.0101
-57.9315
-48.4362
-35.1215
-41.9043
-42.3302
-40.4857
-44.8897
-46.4276
-44.4293
-47.1255
-40.5726
-44.8816
-30.149
-32.2663
-33.1418
-32.8632
-33.9925
-31.0417
-32.5547
-32.8702
-39.9548
-38.9098
-45.4901
-35.1114
-41.1277
-40.4547
-32.9976
-33.2833
-38.9251
-36.0899
-38.9471
-36.1039
-41.2758
-41.2564
-35.5538
-35.5574
-34.4352
-31.6856
-36.7492
-35.891
-35.0463
-36.323
-36.3168
-36.3544
-36.9533
-36.8808
-36.9547
-36.8788
-36.3046
-36.3052
-37.4948
-37.489
-48.1903
-62.0718
-48.5644
-57.9366
-46.297
-46.1917
-82.8756
-70.7529
8.59484
13.775
8.41809
13.581
4.12559
4.14306
11.1117
11.0423
-72.6293
-64.0121
-72.6096
-64.0051
-77.9803
-77.9942
-60.3213
-60.3082
-29.9108
-32.2101
-35.6377
-32.9936
-33.7359
-31.6256
-32.5389
-32.9041
-39.7429
-38.8371
-45.0038
-35.0418
-40.1735
-41.004
-32.9167
-33.2023
-34.3818
-31.7748
-36.7194
-36.0071
-36.2341
-34.9236
-36.3147
-36.2696
-48.1563
-62.0723
-48.7888
-57.9089
-46.0042
-46.3269
-70.6787
-82.9117
-68.4327
-66.3309
-60.6122
-49.0552
-48.0598
-58.0462
-45.7337
-45.2442
-68.2066
-66.2702
-60.6844
-49.1067
-58.0529
-48.1212
-45.3169
-45.7953
-63.3151
-63.7292
-58.8115
-50.6166
-58.7949
-50.6535
-47.5256
-47.502
-8.77164
-8.76222
-17.8307
-30.8745
-30.9295
-17.6602
-24.5202
-24.2637
201.332
181.706
199.916