# vtk DataFile Version 2.0
tri_press
ASCII
DATASET UNSTRUCTURED_GRID
POINTS 3682 float
-0.625 0.155 -1.82027
-0.897503 0.205 1.555
-0.624993 0.485 -1.825
-0.565 0.783965 1.815
0.625 0.155 -1.82027
0.897503 0.205 1.555
0.625 0.485 -1.82499
0.565 0.783965 1.815
-0.762732 0.124769 -0.69518
-0.830736 0.164266 0.42991
-0.71519 0.69485 -0.611667
-0.671165 0.770477 0.601667
0.762732 0.124769 -0.69518
0.830735 0.164267 0.42991
0.715181 0.694836 -0.61166
0.671223 0.770533 0.60167
-1.33279 -0.170912 -2.80345
-1.34711 -0.112287 -1.86804
-1.4513 -0.123153 -0.745227
-1.52696 -0.115015 0.359823
-1.57169 -0.0826887 1.48114
-1.58862 -0.049471 2.40922
-1.5971 -0.0116632 3.35087
-1.329 0.0586712 -2.77409
-1.33727 0.143148 -1.82904
-1.4602 0.15176 -0.689057
-1.5229 0.173183 0.442979
-1.55682 0.205008 1.58127
-1.58719 0.237744 2.5106
-1.60266 0.275059 3.44937
-1.32973 0.474155 -2.74014
-1.32976 0.556755 -1.79873
-1.41646 0.701723 -0.598598
-1.39568 0.766905 0.607791
-1.34081 0.789933 1.80624
-1.47394 0.82011 2.73192
-1.56253 0.855886 3.65646
-1.35873 1.2346 -2.62286
-1.36594 1.33463 -1.66824
-1.39514 1.49391 -0.439493
-1.40568 1.61233 0.808271
-1.4145 1.6711 2.03609
-1.4606 1.70226 2.98879
-1.52344 1.7336 3.92296
-0.647954 -0.165966 -2.79776
-0.634649 -0.104023 -1.85973
-0.720441 -0.136213 -0.74634
-0.779662 -0.123373 0.348668
-0.822857 -0.0857583 1.46163
-0.852864 -0.0526985 2.39599
-0.867526 -0.0150263 3.34321
-0.65276 0.0557428 -2.77233
-0.886331 0.235134 2.49969
-0.888184 0.271909 3.44359
-0.655798 0.443882 -2.75104
-0.797222 0.816721 2.73367
-0.870212 0.853114 3.65683
-0.670362 1.21404 -2.63364
-0.670774 1.31536 -1.68012
-0.696448 1.48884 -0.446657
-0.713801 1.61548 0.809132
-0.728949 1.67288 2.04223
-0.773595 1.70237 2.99492
-0.830403 1.73306 3.92742
0.68147 -0.165966 -2.79775
0.701633 -0.104023 -1.85973
0.780139 -0.136211 -0.746339
0.837929 -0.123371 0.348669
0.866434 -0.0857564 1.46163
0.731615 -0.0526951 2.39599
0.644249 -0.0150209 3.34321
0.648751 0.0557427 -2.77233
0.671483 0.235137 2.49969
0.600965 0.271914 3.44359
0.641198 0.443882 -2.75104
0.556031 0.816726 2.73367
0.544892 0.85312 3.65684
0.688276 1.21405 -2.63364
0.697367 1.31537 -1.68012
0.692371 1.48885 -0.446653
0.660827 1.6155 0.809135
0.620308 1.6729 2.04224
0.587423 1.70238 2.99492
0.556191 1.73307 3.92742
1.36492 -0.17091 -2.80344
1.389 -0.112286 -1.86803
1.49558 -0.123146 -0.745224
1.58199 -0.115002 0.359825
1.60743 -0.0826808 1.48114
1.50095 -0.0494618 2.40922
1.40444 -0.0116515 3.35087
1.32809 0.0586712 -2.77408
1.33509 0.143146 -1.82903
1.46484 0.151766 -0.689054
1.54453 0.173203 0.442981
1.56653 0.205014 1.58127
1.44535 0.237753 2.5106
1.35913 0.275071 3.44937
1.31535 0.474154 -2.74013
1.31962 0.556751 -1.79872
1.41125 0.701727 -0.598589
1.40324 0.766958 0.607795
1.33249 0.78995 1.80624
1.3012 0.820123 2.73192
1.27998 0.855901 3.65646
1.37074 1.23461 -2.62285
1.38173 1.33463 -1.66823
1.38759 1.49393 -0.439486
1.3599 1.61237 0.808277
1.3155 1.67113 2.0361
1.28585 1.70229 2.98879
1.26212 1.73362 3.92297
-0.633623 0.32 -1.83126
0 0.151053 -1.82422
-0.694764 0.138986 -1.25773
-0.719467 0.494482 1.67322
0 0.203249 1.55675
-0.859183 0.189569 0.992455
3.48687e-06 0.515326 -1.85532
-0.742516 0.662349 -1.21833
0 0.789241 1.82028
-0.650408 0.809547 1.20833
0.633667 0.32 -1.8313
0.694764 0.138986 -1.25773
0.719575 0.494482 1.67332
0.859158 0.189594 0.992455
0.742602 0.662429 -1.21833
0.650373 0.809511 1.20834
-0.809717 0.131535 -0.132635
-0.757668 0.409809 -0.653423
0 0.122618 -0.69518
-0.796932 0.467371 0.515788
-4.59664e-07 0.130056 0.42991
-0.693684 0.73317 -0.005
-4.39257e-06 0.85421 -0.611663
2.90925e-05 1.11648 0.601668
0.809717 0.131535 -0.132635
0.757692 0.409803 -0.65342
0.796914 0.4674 0.51579
0.693688 0.733171 -0.00499499
-0.897565 0.364905 -1.23803
0.897564 0.364901 -1.23803
0 0.135468 -1.25773
-4.5285e-07 0.792822 -1.21833
1.74344e-06 0.32 -1.99279
-0.788726 0.43859 -0.0688175
0.788705 0.438601 -0.068815
-2.29832e-07 0.129215 -0.132635
1.235e-05 1.07291 -0.00499749
-0.896039 0.480927 1.10039
0.896037 0.480941 1.1004
-2.29832e-07 0.148326 0.992455
1.45462e-05 0.999409 1.20833
0 0.494482 1.8961
-0.6138 0.2375 -1.81025
-0.3125 0.151132 -1.82414
-0.659307 0.147568 -1.539
-0.826838 0.349741 1.63246
-0.448752 0.204637 1.55536
-0.875922 0.199706 1.27373
-0.633907 0.4025 -1.83273
-0.312495 0.510786 -1.85078
-0.696928 0.586848 -1.52167
-0.646452 0.639224 1.74833
-0.2825 0.789101 1.82014
-0.610977 0.800029 1.51167
0.3125 0.15113 -1.82414
0.614042 0.2375 -1.81049
0.659377 0.147499 -1.539
0.448752 0.204635 1.55536
0.826796 0.349741 1.63242
0.87613 0.199498 1.27373
0.312502 0.51051 -1.8505
0.6341 0.4025 -1.83291
0.696981 0.586895 -1.52166
0.2825 0.789109 1.82014
0.646425 0.639224 1.7483
0.606316 0.795368 1.51167
-0.729021 0.131604 -0.976453
-0.788019 0.126357 -0.413908
-0.854736 0.220021 -0.674302
-0.381035 0.124355 -0.69518
-0.848434 0.173443 0.711183
-0.835167 0.13296 0.148638
-0.804617 0.320427 0.472849
-0.423507 0.130883 0.42991
-0.73501 0.684756 -0.915
-0.752541 0.560386 -0.632545
-0.708711 0.718284 -0.308333
-0.381984 0.823304 -0.611665
-0.665502 0.794727 0.905
-0.773096 0.638448 0.558728
-0.680574 0.749973 0.298333
-0.408216 1.08878 0.601668
0.729021 0.131605 -0.976453
0.381035 0.124355 -0.69518
0.788019 0.126357 -0.413908
0.854733 0.220026 -0.6743
0.848416 0.173461 0.711183
0.423519 0.130858 0.42991
0.835166 0.13296 0.148638
0.804616 0.320438 0.47285
0.73503 0.684771 -0.914993
0.381978 0.823303 -0.611662
0.752631 0.560417 -0.63254
0.70867 0.718239 -0.308328
0.665504 0.794728 0.905003
0.408253 1.08876 0.601669
0.773236 0.63855 0.55873
0.680541 0.749938 0.298338
-0.772988 0.342452 -1.53465
-0.316811 0.32 -1.98536
0 0.140754 -1.54097
8.71718e-07 0.235527 -1.94882
-0.899525 0.251945 -1.24788
-0.347382 0.135471 -1.25773
-0.89558 0.487705 1.3868
-0.359734 0.494482 1.88689
-1.14916e-07 0.174973 1.2746
0 0.348866 1.96885
-0.898248 0.335248 1.04642
-0.429592 0.155186 0.992455
1.51701e-06 0.730826 -1.53683
2.61515e-06 0.417663 -1.94877
-0.894116 0.513627 -1.22818
-0.371258 0.758024 -1.21833
7.27312e-06 0.902941 1.51431
0 0.641862 1.87445
-0.812166 0.645237 1.15436
-0.325197 0.986353 1.20833
0.772989 0.342451 -1.53466
0.316834 0.32 -1.98532
0.899523 0.251944 -1.24788
0.347382 0.13547 -1.25773
0.895579 0.487712 1.38686
0.359787 0.494482 1.8869
0.898247 0.335268 1.04643
0.429579 0.159083 0.992455
0.893913 0.513665 -1.22818
0.371301 0.758076 -1.21833
0.812176 0.645226 1.15437
0.325194 0.986365 1.20833
-0.782138 0.293604 -0.100726
-0.405216 0.129659 -0.132635
-0.897478 0.387357 -0.945726
-0.773376 0.4242 -0.36112
0 0.127838 -0.976453
-1.14916e-07 0.123052 -0.413908
-0.793798 0.452981 0.223485
-0.819099 0.474149 0.808091
-3.44748e-07 0.129635 0.148638
-3.44748e-07 0.137059 0.711183
-0.773187 0.601871 -0.0369087
-0.427365 1.0641 -0.00499874
-2.42271e-06 0.798326 -0.914996
3.97869e-06 0.994627 -0.30833
2.07212e-05 1.11747 0.298335
2.18194e-05 1.07922 0.905001
0.782133 0.293607 -0.100725
0.405216 0.12966 -0.132635
0.897478 0.387352 -0.945723
0.773369 0.424202 -0.361118
0.793795 0.453001 0.223488
0.819082 0.474171 0.808093
0.773185 0.60188 -0.036905
0.427378 1.0641 -0.00499624
-0.781983 0.244723 -1.53682
-0.899679 0.259617 -0.961089
-0.888008 0.532978 -0.930363
-0.752213 0.458063 -1.52816
0.781978 0.244722 -1.53683
0.752359 0.458083 -1.52816
0.887988 0.532992 -0.930358
0.899679 0.259615 -0.961088
-0.329941 0.140736 -1.53998
0.329941 0.140733 -1.53998
0.364374 0.12784 -0.976453
-0.364374 0.12784 -0.976453
-0.341876 0.706059 -1.52925
-0.364428 0.807303 -0.914998
0.364445 0.791273 -0.914994
0.341901 0.706057 -1.52924
-0.314655 0.236513 -1.93986
-0.314653 0.410082 -1.94017
0.314668 0.410082 -1.94018
0.314667 0.236513 -1.93986
-0.766891 0.282585 -0.387514
-0.794127 0.306641 0.186062
-0.773767 0.620473 0.260909
-0.765035 0.582214 -0.334727
0.766886 0.28259 -0.387513
0.765051 0.58222 -0.334723
0.773742 0.620481 0.260913
0.794125 0.306647 0.186063
-0.394133 0.124992 -0.413908
0.394133 0.124992 -0.413908
0.414503 0.129988 0.148638
-0.414503 0.129988 0.148638
-0.40887 0.952092 -0.308332
-0.420647 1.08215 0.298334
0.420654 1.08211 0.298337
0.408876 0.952096 -0.308329
-0.819304 0.325533 0.759637
-0.898357 0.342495 1.33027
-0.765022 0.64223 1.44924
-0.80025 0.632081 0.856546
0.8193 0.32555 0.759638
0.800157 0.632096 0.856548
0.764946 0.642225 1.44926
0.898357 0.342505 1.33029
-0.42248 0.137059 0.711183
0.422473 0.137059 0.711183
0.439165 0.185765 1.27417
-0.439172 0.187034 1.27417
-0.330382 1.06198 0.905001
-0.303848 0.892799 1.51299
0.303847 0.892789 1.51299
0.33041 1.06198 0.905002
-0.404243 0.349304 1.9527
0.404269 0.349304 1.9523
0.321144 0.640543 1.88794
-0.321117 0.640543 1.88798
-0.628272 0.19625 -1.82413
-0.46875 0.152138 -1.82313
-0.644687 0.148751 -1.67963
-0.863747 0.277371 1.59531
-0.673127 0.203726 1.55627
-0.886162 0.202903 1.41436
-0.633116 0.44375 -1.83253
-0.468744 0.504654 -1.84465
-0.665491 0.540455 -1.67333
-0.614023 0.711594 1.78996
-0.42375 0.791492 1.82253
-0.529024 0.733033 1.66333
0.46875 0.152126 -1.82314
0.628272 0.19625 -1.82413
0.644781 0.148657 -1.67963
0.673127 0.203727 1.55627
0.863677 0.277371 1.59524
0.886468 0.202598 1.41436
0.468751 0.504629 -1.84462
0.633022 0.44375 -1.83242
0.665504 0.540461 -1.67332
0.42375 0.791509 1.82254
0.614091 0.711594 1.79003
0.529304 0.733313 1.66333
-0.745043 0.12902 -0.835816
-0.775284 0.125655 -0.554544
-0.88134 0.136092 -0.684741
-0.571899 0.12453 -0.69518
-0.853748 0.154692 0.570546
-0.847904 0.133661 0.289274
-0.784787 0.258791 0.45138
-0.633931 0.133956 0.42991
-0.724742 0.689446 -0.763333
-0.740036 0.630703 -0.622106
-0.711933 0.70655 -0.46
-0.55445 0.770802 -0.611666
-0.667692 0.781961 0.753333
-0.742057 0.714426 0.580197
-0.67597 0.760326 0.45
-0.546455 0.943155 0.601667
0.745045 0.129019 -0.835816
0.571899 0.124531 -0.69518
0.775284 0.125655 -0.554544
0.881375 0.136076 -0.68474
0.853745 0.154694 0.570546
0.633931 0.133956 0.42991
0.847901 0.133663 0.289274
0.784785 0.258798 0.45138
0.724746 0.689444 -0.763326
[...]
POINT_DATA 3682
SCALARS point_scalars float 1
LOOKUP_TABLE default
-55.3225
-50.1804
19.5045
-30.2611
-55.2081
-50.2757
19.4652
-30.2801
-40.4067
-22.3094
-39.3667
-41.3077
-40.4058
-22.3586
-39.3323
-41.3467
11.1633
-28.879
-52.6241
-32.9031
-43.2886
-37.3557
-30.2476
11.1633
-11.3449
-53.3702
-32.9031
-47.6804
-30.9077
-29.3368
61.6298
2.52633
-60.1569
-30.5057
-52.4146
-29.5232
-28.6263
24.0447
-40.2665
-55.8099
-49.6585
-31.5605
-30.3588
-29.255
83.9769
-64.1951
-40.1838
-33.6875
-40.0863
-31.8962
-30.5425
83.9769
-29.3368
-28.1846
144.949
-28.8575
-28.1846
86.2491
-56.7116
-41.2112
-59.5723
-30.3588
-28.4517
-27.5039
83.94
-64.0931
-41.1971
-30.3262
-41.0156
-31.8468
-28.9576
83.94
-29.6468
-28.9576
146.596
-27.7835
-27.4767
86.3644
-56.7351
-41.4806
-59.6073
-28.6313
-27.6023
-26.7703
11.1017
-29.1826
-52.9861
-32.9979
-43.4399
-37.3595
-29.5682
11.1017
-11.4395
-53.3464
-32.9979
-47.7785
-30.9476
-28.6615
62.0717
7.83073
-60.0824
-30.6027
-52.5303
-29.5134
-28.6615
23.9119
-40.8571
-56.1405
-49.595
-30.3952
-30.3823
-28.8633
27.1934
-116.912
-56.9685
-34.838
-35.4889
-39.9547
68.9848
-64.1444
-27.5595
-45.1654
25.5895
-56.9451
-34.8742
-39.9533
-64.1586
-45.2106
-36.1353
-41.5257
-38.8549
-26.0647
-35.644
-43.2845
2.32124
-65.7757
-36.2116
-41.4686
-26.1528
-43.3377
-93.0391
-92.9822
-50.1094
-55.5444
193.299
-28.4922
-28.6714
-33.6578
-72.638
-45.3301
-45.286
-39.7106
-40.7335
-21.6331
32.4669
-109.482
-71.0444
-40.2245
-37.4286
-38.3212
22.051
69.8055
-25.8885
-32.7408
-27.5161
-38.2473
-109.453
32.5064
-71.0645
-37.4875
-40.3034
-38.3139
69.9031
20.2464
-25.9218
-27.5267
-32.7197
-38.1042
-43.6765
-33.7581
-47.7271
-38.744
-25.0795
-20.6995
-24.7449
-34.446
-56.1216
-41.9959
-40.7371
-8.50147
-44.8999
-31.9582
-41.4314
-58.1193
-43.6587
-38.7466
-33.7858
-47.6718
-24.5967
-34.5042
-20.7743
-24.8063
-55.9775
-8.12138
-41.9348
-40.8131
-44.9653
-58.1699
-32.0259
-41.2563
19.8866
187.013
-68.1371
187.082
-85.9957
-49.3388
-50.5737
-26.4972
-37.5255
-24.5265
-43.3466
-40.029
-73.6343
193.844
-91.4874
-43.7952
-31.9332
-20.4334
-48.9596
-42.0102
19.8136
186.945
-85.9576
-49.3776
-50.6457
-26.5378
-43.3146
-39.801
-91.3026
-44.2389
-49.027
-42.0184
-28.0658
-32.6851
-61.1877
-31.2615
-42.0032
-36.4357
-28.3859
-23.8389
-33.7134
-37.7336
-33.5864
-74.4853
-21.3632
-9.32113
-77.4242
-53.7851
-28.2477
-32.7034
-61.1421
-31.2716
-28.4834
-23.9016
-33.6812
-74.4452
18.5859
-57.3175
-66.2772
-2.2502
18.6882
-2.4746
-66.1998
-57.284
-65.7118
-65.7032
-41.6122
-41.6161
-60.3532
-32.0097
-30.1852
-60.5005
183.913
190.527
190.531
183.861
-31.4365
-25.6636
-33.3602
-33.4111
-31.4346
-33.4471
-33.4077
-25.7651
-35.7687
-35.7771
-32.6423
-32.6198
-15.0389
-60.9558
-61.0074
-15.1144
-17.979
-44.421
-45.059
-37.2918
-17.9357
-37.3613
-45.0784
-44.4522
-38.0506
-37.775
-36.8815
-36.7942
-52.8807
-32.9898
-32.9993
-52.901
-28.5904
-28.4804
-25.2137
-25.1732
-7.6399
-109.492
-86.2438
-48.0314
-40.9485
-39.636
20.8515
65.4923
-16.1563
-32.5287
-28.5663
-31.6593
-109.464
-7.56123
-86.2091
-41.0228
-48.1323
-39.7577
65.5555
21.9841
-15.7321
-28.596
-32.5726
-31.6383
-41.7392
-37.2738
-51.6157
-38.9023
-33.2514
-28.8617
-22.1962
-32.9805
-47.2714
-41.9125
-38.4238
-23.482
-42.5705
-37.2957
-40.9382
-47.8987
-41.7293
-38.9049
-37.2761
-51.6182
-33.356
-33.0628
-28.9099
-22.2528
-47.2484
-23.4767
-41.8587
-38.4321
-42.5853
-47.9214
-37.3308
-40.9863
28.7299
22.1293
-14.7174
131.474
-115.18
-115.162
-84.9652
79.2231
-64.9237
-49.0077
-80.4954
-50.256
-36.899
-33.7636
-45.814
-28.7695
-36.0819
-36.1065
-36.6429
-27.8049
-38.1107
-45.9836
-41.6076
-37.6632
67.9594
67.9663
-24.8832
150.89
-45.583
-64.4937
-73.3473
-43.7853
-27.4942
-27.5029
-28.693
-22.8943
-42.7476
-46.0713
-46.6832
-44.229
28.8122
25.1193
-14.6392
131.418
-64.9126
-48.9888
-80.4532
-50.281
-36.956
-33.7926
-45.8904
-28.7955
-38.0549
-45.9897
-41.5687
-37.6514
-45.7301
-64.3776
-73.1614
-43.9862
-42.8693
-46.0981
-46.7402
-44.2554
-32.0671
-26.2948
-29.1858
-31.6623
-42.3242
-41.9055
-55.4639
-36.1346
-38.8026
-38.8034
-40.1751
-37.4774
-25.18
-27.9538
-27.7844
-25.3229
-35.4531
-35.4694
-34.4584
-37.4409
-42.5904
-42.5801
-37.6226
-57.2782
0.643529
1.0179
-9.90212
5.94654
-64.6322
-64.5955
-69.6989
-60.6518
-32.1134
-26.4111
-29.3558
-31.6975
-42.2578
-41.8519
-55.3702
-36.0763
-25.2535
-28.0458
-27.8656
-25.4062
-42.6447
-42.6178
-37.6611
-57.3883
-88.8857
-89.6963
-102.128
-71.5576
-88.8155
-89.6499
-102.007
-71.5206
-57.9423
-49.8715
-49.8716
-45.3458
-42.5716
-53.3837
-53.6569
-34.8607
192.624
172.932
202.196
192.586
-27.5809
-29.253
-28.6444
-30.4172
-27.7796
-29.3952
-28.7777
-30.5552
-33.4298
-35.1303
-33.4361
-33.4374
-72.8822
-61.7441
-55.9805
-77.0915
-46.8563
-44.4892
-45.9669
-33.9247
-46.8552
-44.4492
-45.9692
-33.8955
-38.7171
-39.7489
-39.7315
-38.7743
-35.8366
-40.9265
-40.9328
-46.909
-23.3295
-21.3023
-20.8715
-23.3858
-24.2307
119.59
-81.3596
94.8286
-12.316
-64.8695
-49.3932
-30.4986
-37.0608
-31.3318
-41.9921
-36.5867
-18.1812
143.252
-47.0943
159.129
-14.1309
-51.8298
-39.1833
-28.0735
-29.5836
-25.9353
-40.8647
-34.9875
-81.347
94.7741
-24.1898
119.492
-12.129
-64.8737
-37.0789
-30.9918
-49.4813
-30.5405
-42.0177
-36.6359
-47.1519
159.159
-18.0775
143.078
-14.1721
-51.9859
-29.578
-25.96
-39.2176
-28.1
-40.8585
-34.9801
-53.4517
-42.1885
-32.1853
-35.2162
-52.9819
-36.8056
-39.8375
-37.022
-17.1882
-38.0206
-25.3155
-30.8924
-25.6642
-23.0422
-33.2463
-36.8195
-64.9567
-43.4397
-52.5952
-35.7234
-36.4349
-43.3556
-18.6755
-4.76471
-42.5353
-50.3017
-32.527
-33.2817
-37.0249
-49.5175
-57.5716
-58.928
-53.4228
-42.1808
-39.8371
-37.0274
-32.1491
-35.2312
-52.9423
-36.7533
-17.114
-37.4884
-33.2773
-36.9754
-25.4189
-30.9263
-25.7354
-23.0643
-64.7531
-42.0456
-18.352
-4.23136
-52.5343
-35.6814
-36.4907
-43.6048
-42.5994
-50.3284
-57.6333
-58.9619
-32.5699
-33.375
-37.1101
-49.5698
21.8612
10.6307
168.012
193.721
-67.3922
-67.3882
189.531
189.483
-95.2959
-66.5954
-56.937
-44.9714
-46.537
-50.9023
-27.2863
-25.8088
-37.505
-37.4853
-26.1906
-25.9557
-33.9702
-43.1793
-39.949
-37.447
-69.4856
-69.5689
197.723
197.676
-79.1818
-28.4664
-48.5901
-36.8012
-32.1692
-32.1716
-22.6425
-22.6035
-50.5215
-40.9831
-47.3985
-37.081
21.7699
10.6375
193.729
167.969
-95.2078
-66.5647
-56.9193
-44.9478
-50.9556
-46.5805
-27.3398
-25.8536
-33.8278
-43.1663
-40.0165
-37.5187
-28.4958
-79.1819
-37.8924
-48.82
-41.0752
-50.5927
-37.0911
-47.4044
-28.5796
-26.3579
-34.3706
-32.3652
-59.4389
-63.4109
-31.2456
-31.9018
-41.9232
-41.925
-36.3189
-36.3227
-27.0647
-30.3237
-18.8196
-30.7177
-33.4404
-33.4285
-37.7817
-37.7255
-33.6223
-32.955
-47.9703
-64.6781
-23.326
-23.0085
-6.91693
-7.05828
-70.8662
-71.3657
-53.6599
-53.6795
-28.7165
-26.5032
-34.3855
-32.3848
-63.3627
-59.3995
-31.2501
-31.9296
-30.4041
-27.1706
-18.7907
-30.8027
-33.0478
-33.6926
-64.7066
-48.1795
-41.009
-94.3957
-98.7484
-18.1982
-46.7694
-54.973
-69.3502
-61.9387
-51.7553
-77.3131
-74.2026
-53.7902
-20.8738
-13.8685
-46.7787
-32.1444
-40.901
-18.1662
-98.5333
-94.3468
-22.3408
-32.1809
-46.9809
-13.7654
-51.6944
-53.714
-74.179
-77.268
-46.7395
-61.9122
-69.3159
-54.9145
-82.1291
-82.9842
-57.6714
-57.4007
-82.1164
-57.38
-57.6701
-82.9775
-40.0207
-40.0928
-45.2689
-45.6972
-40.0231
-45.7236
-45.2709
-40.0934
-35.8229
-46.2819
-43.4258
-29.0024
-30.2304
-11.8757
-35.4278
-47.4587
-30.5918
-47.5448
-35.7711
-11.5587
-35.4617
-29.0912
-43.553
-46.5076
44.7299
127.121
172.477
81.1529
114.412
158.62
204.799
139.213
114.412
139.096
204.757
158.725
44.5843
81.1102
172.434
126.96
-38.6375
-28.9118
-28.5384
-36.6421
-25.4573
-26.7368
-27.3433
-26.1951
-37.2071
-37.3262
-30.6603
-29.5943
-37.0761
-35.7084
-30.512
-36.808
-38.5947
-36.5945
-28.6945
-28.9898
-37.0659
-36.8938
-30.6326
-35.6497
-37.128
-29.6669
-30.7679
-37.381
-25.5259
-26.337
-27.491
-26.82
-37.0154
-37.3716
-35.006
-33.5522
-37.0233
-33.5789
-35.0121
-37.3739
-31.6774
-34.1994
-33.1942
-31.1405
-31.6341
-31.1045
-33.1846
-34.1849
-28.258
-62.0765
-50.87
4.20777
-48.156
-66.5913
-67.4963
-52.2955
-48.197
-52.3613
-63.2339
-66.7972
-28.2502
4.43454
-51.2908
-62.2732
-23.8723
-32.8512
-34.2147
-23.7212
-46.0879
-50.7924
-44.8914
-41.0971
-36.4496
-45.8155
-51.5391
-40.6299
-39.4044
-28.2718
-35.0654
-44.789
-23.887
-23.7757
-34.0991
-32.8048
-39.4407
-44.8152
-35.1473
-28.3792
-36.4893
-40.6701
-51.5541
-45.8654
-46.1729
-41.0714
-44.8833
-50.9123
-34.7203
-37.3325
-38.8452
-44.9075
-35.012
-44.9426
-38.842
-37.3457
-37.6986
-36.8335
-38.5969
-36.0863
-37.641
-36.1029
-38.5995
-36.8108
-49.9893
-48.2224
-46.9688
-60.2208
-31.4734
-28.8558
-36.0772
-39.6523
-31.4829
-39.6479
-36.081
-28.899
-50.0336
-60.2634
-46.9807
-48.2425
-33.9721
-28.768
-23.5071
-28.908
-34.0315
-28.9431
-23.5703
-28.8387
-27.9732
-23.9927
-22.9678
-28.6233
-27.9375
-28.5576
-22.923
-23.9705
-37.6984
-112.008
-97.7167
-51.2674
-45.2906
-44.158
19.8917
53.8679
-10.2366
-31.4185
-28.9909
-30.3494
-111.928
-37.6008
-97.6272
-45.3912
-51.3767
-44.3235
53.8313
20.4019
-9.90027
-28.9878
-31.3266
-30.303
-41.2837
-39.3263
-44.5563
-39.4064
-25.5518
-31.6142
-21.0807
-30.7239
-42.952
-41.5869
-37.4584
-31.8679
-42.0539
-39.9215
-41.1417
-43.9822
-41.2809
-39.4074
-39.3247
-44.5612
-25.6326
-30.7961
-31.6657
-21.1392
-42.9631
-31.878
-41.5311
-37.4477
-42.0951
-44.0249
-39.953
-41.1537
26.4943
23.9717
-8.18968
72.1279
-116.501
-116.492
-100.859
8.34958
-61.1061
-52.912
-77.8899
-52.3283
-35.7113
-34.248
-39.066
-30.6183
-35.6541
-35.6682
-36.1129
-31.6833
-37.7104
-50.9927
-41.7509
-37.6256
69.109
69.1432
31.9473
100.871
-54.238
-67.1065
-69.0767
-51.9978
-27.5369
-27.5417
-27.5404
-25.274
-43.6004
-45.643
-45.6259
-45.192
26.3027
22.2175
-8.22661
71.1979
-61.0792
-52.8911
-77.8499
-52.3192
-35.7501
-34.2788
-39.1154
-30.6388
-37.6686
-51.5837
-41.7203
-37.6585
-54.3675
-67.0758
-69.0675
-52.0917
-43.6646
-45.6866
-45.685
-45.2549
-30.6277
-30.3801
-34.1853
-31.3062
-41.5182
-41.7011
-46.5836
-39.3635
-38.8409
-38.8413
-39.6759
-38.1595
-25.5283
-26.8498
-27.0234
-25.4871
-35.6077
-35.6134
-34.9845
-36.3627
-43.3998
-43.1646
-40.5488
-47.9902
1.9951
2.13344
-3.61294
5.58183
-65.6547
-65.4453
-67.723
-63.8379
-30.7044
-30.5036
-34.2739
-31.3563
-41.455
-41.6434
-46.5376
-39.307
-25.6107
-26.9399
-27.1062
-25.5847
-43.7004
-43.3058
-40.5281
-48.0501
-113.905
-91.2753
-97.1907
-79.6983
-113.64
-91.2268
-97.1004
-79.655
-53.6662
-50.04
-50.0399
-47.4037
-55.5673
-55.3752
-55.5075
-43.0515
193
186.541
197.748
192.941
-27.9335
-28.56
-28.6994
-29.4551
-28.1218
-28.7424
-28.8511
-29.608
-33.5889
-34.0616
-33.4866
-33.5928
-74.4559
-79.653
-62.7149
-75.0666
-46.3682
-45.4307
-45.5252
-41.3491
-46.3464
-45.389
-45.4893
-41.2961
-39.1791
-39.7237
-39.7181
-39.5443
-38.3408
-40.7831
-40.7866
-43.5601
-22.0496
-20.355
-21.2763
-22.0742
22.4612
30.3623
-18.2813
53.7817
-106.35
-112.84
-95.9596
10.5799
-77.3977
-67.8631
-37.9807
-65.0588
-42.9968
-38.5505
-49.2703
-33.6365
-38.8107
-36.6882
-37.2384
-33.8135
-38.4032
-38.6494
-39.888
-36.7975
19.8161
22.2636
-8.58363
87.4876
68.961
67.0682
26.1541
101.934
-24.1495
-26.5841
-19.7818
-46.2555
-32.8859
-33.0773
-36.2462
-29.4734
-27.6389
-27.4668
-28.2499
-26.4884
-34.507
-40.6777
-39.5638
-36.4264
-106.318
-112.817
-95.9375
10.4874
22.5511
30.423
-18.1422
53.7169
-77.485
-67.877
-38.2331
-65.085
-38.8676
-36.7155
-37.3015
-33.8659
-43.0699
-38.6086
-49.3851
-33.8924
-38.4211
-38.5959
-39.9085
-36.8495
69.1423
67.0912
26.2084
102.51
20.5786
22.9214
-8.64059
86.4694
-24.1392
-26.5955
-19.8185
-46.3482
-27.6485
-27.4817
-28.2954
-26.5053
-32.8734
-33.101
-36.2836
-29.4769
-34.3192
-41.0431
-39.5076
-36.3512
-42.7232
-45.9877
-50.3827
-42.982
-35.4355
-33.2611
-32.2724
-34.8274
-51.8238
-43.9868
-54.545
-40.0313
-38.7472
-38.6991
-39.7928
-37.8112
-24.7134
-28.683
-19.347
-36.5803
-23.4987
-25.1887
-24.0854
-29.0652
-24.4747
-24.9623
-24.9896
-24.1742
-33.6209
-35.1543
-33.7446
-35.367
-51.7135
-60.9723
-61.9569
-46.2206
-42.0435
-42.0203
-45.8138
-38.0923
-38.5974
-42.5368
-38.2151
-44.2632
-15.7639
-2.89236
-13.4921
-5.13911
-43.6808
-45.1838
-44.05
-48.22
-34.243
-29.698
-31.6996
-32.017
-40.9044
-42.1835
-40.3709
-44.7514
-53.4086
-62.4611
-58.0477
-59.2515
-42.7087
-45.9701
-50.3551
-42.97
-38.7516
-38.7006
-39.7936
-37.8149
-35.45
-33.2907
-32.2879
-34.8459
-51.7626
-44.0027
-54.5058
-39.9829
-24.5089
-28.434
-19.1312
-35.9953
-33.7065
-35.1896
-33.7943
-35.4366
-23.5509
-25.2882
-24.196
-29.1011
-24.53
-25.0306
-25.0534
-24.2227
-51.6293
-60.8353
-61.8847
-45.7778
-15.5669
-2.31568
-13.1335
-4.45585
-41.9843
-41.9658
-45.767
-38.038
-38.6799
-42.6407
-38.28
-44.4188
-43.7234
-45.209
-44.114
-48.2669
-53.4088
-62.5076
-58.1194
-59.2962
-34.2933
-29.7704
-31.7525
-32.109
-40.8858
-42.2827
-40.3797
-44.7778
2.92066
7.59191
21.9143
16.8304
172.008
191.276
179.466
190.715
-74.8643
-62.7422
-67.9556
-67.9538
173.456
181.709
187.03
187.008
-83.2252
-87.3095
-112.948
-74.1063
-49.662
-49.5596
-52.8256
-46.7182
-51.9614
-48.4296
-48.0583
-52.3984
-27.6747
-24.8583
-26.5777
-26.2472
-37.0527
-38.2317
-37.5279
-37.5202
-26.297
-22.9645
-24.9625
-24.974
-42.611
-43.8431
-44.5037
-43.0272
-39.1189
-39.7353
-40.792
-38.4332
-57.4887
-55.7795
-71.7283
-71.7716
177.316
201.793
196.304
196.227
-75.2379
-98.3147
-92.6667
-64.8123
-41.2107
-48.278
-46.6406
-40.01
-30.3118
-33.8225
-31.9923
-31.9997
-21.3147
-21.0379
-21.2229
-21.1968
-48.5097
-47.7288
-51.3268
-44.6069
-43.1337
-41.2583
-44.4358
-39.3797
2.98822
6.9461
21.872
16.7234
171.895
191.219
190.675
179.425
-83.1873
-87.2824
-112.825
-74.0743
-49.7592
-49.5627
-52.8503
-46.7035
-52.0825
-48.4628
-52.481
-48.1158
-27.6989
-24.8975
-26.6423
-26.2918
-42.5781
-43.8056
-44.4222
-43.0002
-39.0382
-39.6829
-41.0951
-38.0947
-74.9092
-98.2041
-64.762
-92.6019
-41.5792
-48.6803
-40.6806
-46.9258
-48.5684
-47.7846
-44.6787
-51.3707
-43.2994
-41.2682
-39.3987
-44.4495
-28.4651
-27.6117
-28.3952
-27.2046
-32.1675
-33.1023
-33.1027
-32.4561
-58.3876
-65.6267
-60.3164
-62.0809
-33.3442
-29.9651
-31.2604
-31.5127
-40.6971
-43.4997
-42.0018
-42.0025
-36.8893
-36.1724
-36.3504
-36.3523
-28.2174
-28.5435
-27.6739
-29.2621
-24.7611
-26.6127
-20.7539
-26.7516
-34.0358
-33.5208
-33.6483
-33.6425
-37.803
-38.1626
-37.7352
-37.7228
-35.1372
-32.028
-33.8132
-33.1717
-68.9381
-74.0516
-67.7589
-68.4423
-15.9709
-28.0326
-21.7572
-21.6807
1.76069
-28.1477
-8.75312
-8.73589
-72.1219
-68.2254
-75.8799
-76.2608
-57.1822
-50.2721
-53.8584
-53.871
-28.6358
-27.8061
-28.5658
-27.3734
-32.1947
-33.1147
-33.1178
-32.4751
-58.3322
-65.5877
-62.0332
-60.2741
-33.2952
-30.0593
-31.2711
-31.5283
-28.2981
-28.6496
-29.35
-27.7772
-24.825
-26.6369
-20.7665
-26.8262
-35.2237
-32.1401
-33.2647
-33.8877
-68.9444
-74.0975
-68.2955
-67.8442
1.69214
14.329
22.2691
6.0126
-55.5843
-54.4296
-61.2225
-58.3877
-66.4087
-60.8385
-71.2091
-65.0526
-8.30337
-10.0613
4.35866
-6.29038
1.65201
14.73
22.1829
5.86243
-8.2061
-10.1758
4.10774
-6.39298
-66.3188
-60.7555
-71.1176
-64.998
-55.553
-54.3946
-61.1913
-58.3513
-71.8171
-65.0497
-66.5683
-61.2242
-71.8079
-65.041
-66.5621
-61.2146
-41.7609
-40.2109
-43.0079
-41.7426
-41.766
-40.2126
-43.013
-41.7455
-61.7792
-56.4696
-64.331
-52.8023
-40.5792
-26.2232
-32.2503
-26.0889
-37.7553
-24.0997
-35.5134
-25.5731
-61.8808
-56.6245
-64.4663
-52.9944
162.814
176.759
175.851
188.033
175.562
180.448
193.411
195.015
180.452
175.218
194.958
193.457
176.735
162.716
187.972
175.806
-31.6106
-33.9367
-29.6783
-31.3129
-25.3453
-25.6117
-25.7755
-26.3634
-33.4524
-34.7232
-31.6182
-33.4722
-34.2123
-34.6376
-32.4525
-32.9606
-31.6036
-33.8925
-29.7422
-31.3143
-34.2039
-34.6828
-32.4799
-33.0329
-33.484
-34.7686
-31.6787
-33.5308
-25.4434
-25.6951
-25.8975
-26.4701
-35.4741
-36.3483
-35.462
-36.032
-36.3547
-35.4836
-36.0384
-35.4742
-32.7966
-32.0673
-33.0936
-32.388
-32.0426
-32.7711
-32.3664
-33.0755
-26.0819
-8.3951
-25.4632
-7.71499
-54.9098
-58.8363
-63.4855
-66.1536
-58.8811
-54.9839
-66.4437
-63.5052
-8.14859
-25.9559
-7.84609
-25.6756
-17.9112
-21.3879
-16.2471
-18.2944
-45.8603
-43.3325
-45.5042
-43.5366
-41.9565
-42.6621
-47.8992
-48.2983
-40.3294
-35.1049
-38.996
-33.9515
-17.8394
-21.3791
-16.4709
-18.2732
-40.3907
-35.1984
-39.0794
-34.0444
-41.9816
-42.7057
-47.9248
-48.3427
-45.9208
-43.3589
-45.5404
-43.5426
-38.0578
-37.8426
-38.7461
-37.981
-37.6419
-37.6141
-38.7858
-37.7645
-36.8165
-36.9295
-37.3239
-37.3149
-36.6869
-36.8668
-37.2677
-37.3563
-52.3959
-56.0103
-50.4659
-53.4269
-31.1992
-33.6975
-32.4691
-34.9838
-31.2081
-33.6857
-32.4745
-34.9962
-52.4123
-56.0347
-50.4858
-53.4484
-29.6547
-30.1348
-27.9712
-27.6161
-29.3381
-29.6619
-27.3187
-27.9702
-25.378
-27.0612
-23.5838
-25.497
-27.0219
-25.344
-25.4532
-23.5396
-42.7556
-1.77801
-95.4963
-46.2905
-56.3023
-83.0331
-51.7094
-36.8106
-39.3481
-36.5687
-43.1887
-38.4642
-9.40209
72.9203
19.0115
85.1953
-18.5944
-27.667
-34.3919
-29.3353
-29.9989
-28.1813
-35.3427
-31.1037
-95.4749
-46.5083
-42.6861
-1.82673
-55.8273
-83.0363
-39.4148
-36.6266
-51.799
-36.8425
-43.3036
-38.5405
19.0764
85.479
-9.15921
73.2619
-18.8224
-27.1815
-30.0012
-28.2121
-34.4651
-29.3499
-35.4513
-30.7504
-42.3218
-40.7315
-37.6505
-37.0737
-45.3748
-45.4563
-39.6105
-38.1518
-24.4889
-33.2562
-25.3455
-31.144
-24.6028
-24.5844
-32.0174
-33.9132
-50.3341
-38.9051
-46.5887
-38.4549
-37.9626
-39.2957
-26.0741
-23.3128
-41.5771
-44.7656
-36.8591
-38.0716
-39.5152
-44.3348
-47.7213
-47.4997
-42.3007
-40.7251
-39.6105
-38.1564
-37.6325
-37.0807
-45.3853
-45.4054
-24.5166
-33.6392
-32.0819
-34.02
-25.4225
-31.1883
-24.6596
-24.6323
-50.2741
-39.0389
-26.3033
-23.2981
-46.545
-38.4196
-37.9671
-39.3514
-41.6012
-44.8023
-47.76
-47.561
-36.8925
-38.1089
-39.5874
-44.3734
-11.7064
56.3635
-9.88221
80.3123
-16.1898
-14.8635
128.936
136.015
-99.3999
13.1448
-99.3871
13.1416
-83.9335
-83.9294
77.3357
77.3168
-94.6885
-59.723
-59.61
-46.8364
-106.796
-69.0522
-53.4569
-47.7137
-43.6108
-30.9078
-37.0023
-30.2386
-49.5878
-42.6153
-28.6843
-28.7959
-36.4599
-32.2923
-36.4836
-32.3333
-36.6917
-36.6808
-27.997
-28.0188
-39.7563
-36.248
-37.3162
-49.1069
-43.1497
-40.9247
-41.9628
-36.3646
29.2947
98.628
29.223
98.7434
-25.6464
-25.6817
155.059
155.104
-39.7463
-46.3041
-72.4509
-57.1281
-80.1896
-47.5473
-47.3613
-39.7137
-27.6543
-25.6357
-27.6586
-25.6491
-28.7127
-28.7562
-23.1133
-23.0998
-43.9722
-41.1878
-45.2456
-47.5981
-46.3346
-46.3456
-46.0936
-42.1025
-11.7209
56.2944
-9.93692
82.0445
-16.1337
-14.7716
135.928
128.7
-94.6601
-59.7137
-59.5849
-46.8206
-106.735
-69.0211
-53.4765
-47.6989
-43.6697
-30.9501
-37.0389
-30.2613
-42.6709
-49.7023
-28.7076
-28.8431
-39.7229
-36.18
-37.219
-49.1771
-43.0877
-40.8919
-41.9964
-36.3413
-39.8059
-46.5384
-72.0176
-56.9714
-47.5115
-80.186
-39.8398
-47.591
-44.0682
-41.2526
-45.2715
-47.6206
-46.4001
-46.4337
-42.1239
-46.0762
-30.0861
-33.0819
-25.9445
-29.7393
-28.6203
-27.7162
-32.1748
-31.2578
-52.6835
-39.28
-45.3468
-38.8014
-55.4185
-55.7428
-36.3836
-35.9099
-39.6578
-38.0929
-39.6579
-38.0945
-40.1397
-40.1401
-37.4245
-37.4256
-26.0921
-24.3438
-28.7422
-27.7941
-27.1784
-28.5846
-24.2913
-26.67
-34.7242
-36.2485
-34.74
-36.2632
-34.4081
-34.4015
-37.4148
-37.4097
-39.7888
-49.3716
-40.6354
-46.092
-37.7238
-37.1855
-60.381
-54.4442
-6.13067
3.76745
-5.82159
4.13222
-10.2774
-10.114
5.61028
5.69274
-65.6621
-63.2132
-65.6962
-63.2362
-68.8225
-69.0892
-60.5135
-60.553
-30.153
-33.1173
-26.0887
-29.7888
-28.7583
-27.8753
-32.2049
-31.2943
-52.6225
-39.2274
-45.2803
-38.7394
-55.6683
-55.3568
-36.3286
-35.8501
-26.166
-24.4088
-28.8282
-27.9076
-28.6576
-27.2635
-24.3664
-26.7626
-39.8588
-49.3873
-40.6442
-46.1513
-37.2635
-37.754
-54.5279
-60.5077
-89.9691
-70.3008
-113.937
-77.2075
-85.014
-103.533
-70.4773
-72.8784
-89.9634
-70.3012
-113.716
-77.1724
-103.3
-84.9796
-72.8463
-70.4416
-57.9643
-57.9637
-53.4068
-47.2157
-53.4068
-47.2146
-45.3622
-45.3629
-41.1858
-41.2472
-52.9142
-43.0476
-43.3713
-53.1195
-34.9402
-35.0414
185.947
204.124
173.197
173.179
206.131
206.009
204.076
185.909
-27.8887
-27.4914
-28.794