# vtk DataFile Version 2.0
tet_velo
ASCII
DATASET UNSTRUCTURED_GRID
POINTS 29498 float
-0.693171 0.155 -1.805
-0.829536 0.155 1.755
-0.695 0.759676 -1.745
-0.712055 0.905 1.825
0.693785 0.155 -1.805
0.82953 0.155 1.755
0.705 0.760921 -1.735
0.705 0.911653 1.825
-0.747776 0.14585 -0.618333
-0.77547 0.163611 0.568333
-0.807335 0.914767 -0.555
-0.795195 0.945384 0.635
0.748079 0.145954 -0.618333
0.775659 0.163623 0.568333
0.808136 0.914301 -0.548333
0.791979 0.948388 0.638333
-1.45846 -0.249996 -2.78966
-1.46051 -0.207838 -1.83989
-1.50284 -0.20795 -0.652986
-1.52996 -0.211381 0.533832
-1.55568 -0.219943 1.72074
-1.56913 -0.222942 2.67052
-1.57614 -0.219061 3.62041
-1.45415 0.0923991 -2.75701
-1.45836 0.152044 -1.80728
-1.51714 0.166059 -0.619824
-1.53873 0.168697 0.567814
-1.55871 0.155073 1.75527
-1.57572 0.151939 2.70502
-1.58409 0.156549 3.65479
-1.45606 0.754678 -2.69347
-1.46959 0.813325 -1.74529
-1.55729 0.91911 -0.555829
-1.55179 0.942835 0.634492
-1.50183 0.91471 1.82414
-1.54969 0.911205 2.77394
-1.5831 0.917143 3.72344
-1.47422 1.85212 -2.59458
-1.49 1.92075 -1.64498
-1.53247 2.02507 -0.455897
-1.5582 2.08327 0.73432
-1.56149 2.08685 1.92396
-1.57191 2.08082 2.87474
-1.59001 2.08027 3.82484
-0.718873 -0.250084 -2.78799
-0.707293 -0.206035 -1.83852
-0.739225 -0.218113 -0.652077
-0.758909 -0.216337 0.534162
-0.785855 -0.222286 1.72066
-0.802536 -0.225883 2.6706
-0.810236 -0.222184 3.62069
-0.716028 0.0868173 -2.75485
-0.821595 0.149217 2.70513
-0.822938 0.153274 3.6551
-0.713895 0.730857 -2.69107
-0.799704 0.906645 2.77443
-0.82774 0.913619 3.72395
-0.717317 1.837 -2.59257
-0.723859 1.90715 -1.6431
-0.760437 2.0225 -0.454256
-0.791496 2.08613 0.735628
-0.8025 2.08729 1.92498
-0.814489 2.07965 2.87562
-0.831593 2.07883 3.82566
0.726426 -0.249814 -2.78592
0.727755 -0.205929 -1.83786
0.760261 -0.217902 -0.651678
0.790757 -0.216035 0.534436
0.820757 -0.221783 1.72086
0.771784 -0.224415 2.67098
0.739494 -0.220245 3.62134
0.714663 0.0871435 -2.75205
0.746632 0.151159 2.70541
0.720601 0.155542 3.65571
0.724537 0.731541 -2.68513
0.699605 0.910623 2.77485
0.693741 0.916617 3.72469
0.780587 1.83769 -2.58753
0.790643 1.90787 -1.63788
0.785019 2.02354 -0.44989
0.752831 2.08825 0.7386
0.718302 2.09034 1.92684
0.70065 2.08276 2.87707
0.687661 2.08166 3.82701
1.46377 -0.249362 -2.7849
1.46878 -0.207434 -1.83669
1.51594 -0.207193 -0.650717
1.55666 -0.209798 0.535221
1.58179 -0.21755 1.72157
1.54909 -0.219581 2.67157
1.51551 -0.215159 3.62188
1.4512 0.0930836 -2.75097
1.45229 0.152347 -1.80286
1.51499 0.166751 -0.616668
1.547 0.170884 0.569445
1.56443 0.15849 1.75586
1.52714 0.156186 2.70593
1.49698 0.161025 3.65621
1.46387 0.755783 -2.68338
1.47237 0.814279 -1.73372
1.55457 0.919895 -0.547247
1.54922 0.947424 0.638992
1.48925 0.922574 1.82547
1.47382 0.917997 2.77521
1.46447 0.922787 3.72513
1.52877 1.85353 -2.58513
1.54266 1.92224 -1.63537
1.54995 2.02724 -0.447786
1.52463 2.08728 0.740034
1.48633 2.09246 1.92775
1.46553 2.08663 2.87777
1.45239 2.0857 3.82765
-0.738405 0.457338 -1.81932
0.000306994 0.150001 -1.81
-0.726133 0.144766 -1.21167
-0.818216 0.53 1.83742
-3.01003e-06 0.155849 1.75415
-0.800786 0.161023 1.16167
0.005 0.82914 -1.80884
-0.785912 0.871966 -1.15
-0.00352752 1.04435 1.96102
-0.772671 0.944238 1.23
0.743587 0.457961 -1.81419
0.726642 0.144767 -1.21167
0.816542 0.533326 1.83928
0.800883 0.161022 1.16167
0.789163 0.870206 -1.14167
0.767408 0.948939 1.23167
-0.759596 0.156757 -0.025
-0.881115 0.530309 -0.586667
0.000151334 0.15369 -0.618333
-0.86472 0.554497 0.601667
9.45264e-05 0.174847 0.568333
-0.806968 0.935778 0.04
0.000400683 1.24417 -0.551667
-0.00160814 1.41889 0.636667
0.759894 0.156763 -0.025
0.881584 0.530128 -0.583333
0.864817 0.556005 0.603333
0.806537 0.937824 0.045
-0.884487 0.493823 -1.18083
-0.868883 0.542403 0.00750002
-0.88384 0.542249 1.19583
0.000229164 0.15393 -1.21167
0.00012293 0.167078 -0.025
4.57582e-05 0.16057 1.16167
0.00265349 0.457649 -2.08463
-0.00176527 0.531663 2.08596
0.00270034 0.990475 -1.14583
-0.00060373 1.41098 0.0425
-0.00256783 1.37045 1.23083
0.884451 0.494044 -1.17667
0.869445 0.543067 0.01
0.885028 0.544666 1.19667
-1.07577 0.153522 -1.80614
-0.700232 -0.0255174 -1.82176
-0.704599 0.120909 -2.27992
-1.19412 0.155037 1.75514
-0.807695 -0.0336429 1.73783
-0.825566 0.152108 2.23006
-1.08229 0.7865 -1.74514
-0.704447 0.745267 -2.21803
-0.709429 1.33341 -1.69405
-1.10694 0.909855 1.82457
-0.75588 0.905823 2.29971
-0.757278 1.49615 1.87499
0.71077 -0.0254647 -1.82143
0.704224 0.121072 -2.27853
1.07304 0.153674 -1.80393
0.825143 -0.0333915 1.73793
0.788081 0.15308 2.23021
1.19698 0.156745 1.75543
0.714769 0.746231 -2.21006
0.747822 1.33439 -1.68644
1.08868 0.7876 -1.73436
0.702303 0.911138 2.29992
0.711651 1.501 1.87592
1.09713 0.917114 1.82523
-1.13246 0.155954 -0.619078
-0.743501 -0.0361314 -0.635205
-1.1571 0.166154 0.568074
-0.76719 -0.0263629 0.551248
-1.18231 0.916939 -0.555414
-0.783886 1.46863 -0.504628
-1.1735 0.94411 0.634746
-0.793346 1.51576 0.685314
0.75417 -0.035974 -0.635006
1.13154 0.156353 -0.617501
0.783208 -0.0262063 0.551384
1.16133 0.167253 0.568889
0.796578 1.46892 -0.499112
1.18135 0.917098 -0.54779
0.772405 1.51832 0.688467
1.1706 0.947906 0.638663
-1.45949 -0.228917 -2.31478
-1.4563 -0.0787987 -2.77334
-1.08867 -0.25004 -2.78883
-1.48168 -0.207894 -1.24644
-1.45944 -0.0278974 -1.82358
-1.0839 -0.206937 -1.83921
-1.5164 -0.209665 -0.059577
-1.50999 -0.0209452 -0.636405
-1.12103 -0.213031 -0.652531
-1.54282 -0.215662 1.12729
-1.53434 -0.0213418 0.550823
-1.14443 -0.213859 0.533997
-1.56241 -0.221443 2.19563
-1.5572 -0.0324349 1.73801
-1.17077 -0.221115 1.7207
-1.57263 -0.221001 3.14546
-1.57242 -0.0355015 2.68777
-1.18583 -0.224413 2.67056
-1.58011 -0.0312557 3.6376
-1.19319 -0.220622 3.62055
-1.45625 0.122221 -2.28214
-1.4551 0.423539 -2.72524
-1.08509 0.0896082 -2.75593
-1.48775 0.159051 -1.21355
-1.46397 0.482684 -1.77628
-1.52793 0.167378 -0.0260046
-1.53721 0.542585 -0.587826
-1.54872 0.161885 1.16154
-1.54526 0.555766 0.601153
-1.56721 0.153506 2.23015
-1.53027 0.534892 1.78971
-1.5799 0.154244 3.1799
-1.5627 0.531572 2.73948
-1.19866 0.150578 2.70507
-1.5836 0.536846 3.68911
-1.20351 0.154912 3.65495
-1.46282 0.784002 -2.21938
-1.46514 1.3034 -2.64402
-1.08498 0.742768 -2.69227
-1.51344 0.866218 -1.15056
-1.47979 1.36704 -1.69513
-1.55454 0.930973 0.0393315
-1.54488 1.47209 -0.505863
-1.52681 0.928773 1.22932
-1.555 1.51305 0.684406
-1.52576 0.912958 2.29904
-1.53166 1.50078 1.87405
-1.5664 0.914174 3.24869
-1.5608 1.49601 2.82434
-1.1747 0.908925 2.77419
-1.58656 1.49871 3.77414
-1.20542 0.915381 3.72369
-1.48211 1.88644 -2.11978
-1.09577 1.84456 -2.59358
-1.51123 1.97291 -1.05044
-1.10693 1.91395 -1.64404
-1.54533 2.05417 0.139212
-1.14645 2.02379 -0.455076
-1.55984 2.08506 1.32914
-1.17485 2.0847 0.734974
-1.5667 2.08383 2.39935
-1.182 2.08707 1.92447
-1.58096 2.08055 3.34979
-1.1932 2.08024 2.87518
-1.2108 2.07955 3.82525
-0.713083 -0.228059 -2.31326
-0.717451 -0.0816331 -2.77142
0.0037764 -0.249949 -2.78696
-0.723259 -0.212074 -1.2453
0.010231 -0.205982 -1.83819
-0.749067 -0.217225 -0.0589571
0.0105181 -0.218008 -0.651877
-0.772382 -0.219311 1.12741
0.0159239 -0.216186 0.534299
-0.794195 -0.224085 2.19563
0.0174511 -0.222034 1.72076
-0.806386 -0.224034 3.14564
-0.812066 -0.0383333 2.68786
-0.0153761 -0.225149 2.67079
-0.816587 -0.0344548 3.6379
-0.0353712 -0.221214 3.62101
-0.714961 0.408837 -2.72296
-0.000682376 0.0869804 -2.75345
-0.822267 0.151245 3.18012
-0.81065 0.527931 2.73978
-0.0374815 0.150188 2.70527
-0.825339 0.533447 3.68953
-0.0511688 0.154408 3.65541
-0.715606 1.28393 -2.64182
0.00532123 0.731199 -2.6881
-0.813722 0.910132 3.24919
-0.807097 1.49315 2.82502
-0.0500495 0.908634 2.77464
-0.829667 1.49623 3.7748
-0.0669999 0.915118 3.72432
-0.720588 1.87207 -2.11784
0.0316351 1.83735 -2.59005
-0.742148 1.96483 -1.04868
0.0333923 1.90751 -1.64049
-0.775967 2.05432 0.140686
0.0122912 2.02302 -0.452073
-0.796998 2.08671 1.3303
-0.0193326 2.08719 0.737114
-0.808494 2.08347 2.4003
-0.0420989 2.08882 1.92591
-0.823041 2.07924 3.35064
-0.0569194 2.08121 2.87635
-0.071966 2.08025 3.82633
0.727091 -0.227872 -2.31189
0.720545 -0.0813354 -2.76898
1.0951 -0.249588 -2.78541
0.744008 -0.211916 -1.24477
1.09827 -0.206682 -1.83728
0.775509 -0.216969 -0.058621
1.1381 -0.212548 -0.651197
0.805757 -0.218909 1.12765
1.17371 -0.212917 0.534828
0.79627 -0.223099 2.19592
1.20127 -0.219666 1.72121
0.755639 -0.22233 3.14616
0.759208 -0.036628 2.6882
1.16044 -0.221998 2.67128
0.730047 -0.0323512 3.63853
1.1275 -0.217702 3.62161
0.7196 0.409342 -2.71859
1.08293 0.0901136 -2.75151
0.733616 0.153351 3.18056
0.723119 0.530891 2.74013
1.13689 0.153673 2.70567
0.707171 0.53608 3.6902
1.10879 0.158283 3.65596
0.752562 1.28462 -2.63633
1.0942 0.743662 -2.68426
0.696673 0.91362 3.24977
0.700128 1.49669 2.82596
1.08671 0.91431 2.77503
0.690701 1.49914 3.77585
1.07911 0.919702 3.72491
0.785615 1.87278 -2.11271
1.15468 1.84561 -2.58633
0.787831 1.96571 -1.04389
1.16665 1.91505 -1.63663
0.768925 2.05589 0.144355
1.16748 2.02539 -0.448838
0.735567 2.08929 1.33272
1.13873 2.08776 0.739317
0.709476 2.08655 2.40196
1.10232 2.0914 1.92729
0.694155 2.08221 3.35204
1.08309 2.0847 2.87742
1.07003 2.08368 3.82733
1.46627 -0.228398 -2.3108
1.45748 -0.0781392 -2.76793
1.49236 -0.207314 -1.2437
1.46054 -0.0275434 -1.81978
1.5363 -0.208496 -0.0577483
1.51547 -0.0202212 -0.633693
1.56922 -0.213674 1.1284
1.55183 -0.0194574 0.552333
1.56544 -0.218566 2.19657
1.57311 -0.0295297 1.73871
1.5323 -0.21737 3.14673
1.53812 -0.0316977 2.68875
1.50624 -0.027067 3.63905
1.45174 0.122715 -2.27691
1.45753 0.424434 -2.71718
1.48364 0.159549 -1.20976
1.46233 0.483313 -1.76829
1.531 0.168817 -0.0236118
1.53478 0.543323 -0.581958
1.55571 0.164687 1.16265
1.54811 0.559154 0.604218
1.54579 0.157338 2.2309
1.52684 0.540532 1.79066
1.51206 0.158605 3.18107
1.50048 0.537092 2.74057
1.48072 0.541906 3.69067
1.46812 0.785031 -2.20855
1.49632 1.30466 -2.63426
1.51347 0.867087 -1.14048
[...]
POINT_DATA 29498
VECTORS point_vectors float
0.0808313 -1.63484 3.80849
-0.0135865 0.569132 3.93537
-0.658469 0.636894 1.32752
0.0602735 -0.0769312 0.278245
-0.0831977 -1.66821 3.89439
-0.0653448 0.576413 3.65056
0.812765 0.640978 1.51928
-0.0627958 -0.102753 0.345775
-0.00481886 0.00171547 0.0440922
-0.0339898 0.0101297 0.436383
-0.00103739 0.00107938 0.0478041
0.0114709 0.0156657 0.0543095
0.00529599 0.00182714 0.0500382
0.0356041 0.0107218 0.447696
4.58132e-05 4.21246e-05 0.00183907
-0.00151753 0.00206202 0.0071907
-0.72258 -0.450905 19.8621
-1.2828 -0.938027 20.6206
-0.449953 -0.447237 21.4624
-0.00616773 -0.0810081 21.4837
0.333491 0.164964 21.5028
0.601079 0.328801 21.2997
0.701734 0.287073 21.016
-1.00053 -0.360161 19.6851
-1.97957 -0.860718 20.575
-0.681355 -0.546643 21.5791
-0.0575871 -0.200191 21.5813
0.457663 0.0721363 21.6085
0.773737 0.20745 21.4126
0.900973 0.234402 21.5216
-1.1515 0.133822 19.571
-2.33437 0.293026 20.456
-1.21264 -0.237699 21.5732
-0.251796 -0.238998 21.75
0.565228 -0.256815 21.6728
0.899428 -0.298578 21.3713
1.00103 -0.314138 21.111
-0.628224 0.478085 19.9969
-0.936651 0.70611 20.4649
-0.812727 0.46037 21.2012
-0.302701 0.0427018 21.5347
0.12096 -0.253935 21.4828
0.3172 -0.386836 21.301
0.374274 -0.457923 20.8085
-0.762434 -1.02406 19.2289
-1.19449 -3.19884 21.155
-0.0901353 -0.470425 21.9367
-0.0278316 0.0220524 21.1201
0.0949884 0.548798 21.2801
0.337439 0.95227 21.2142
0.735771 1.17274 20.9169
-1.15327 -0.96548 18.5148
0.346882 1.40668 12.767
1.1219 1.47103 14.5855
-1.50632 0.492345 17.9458
1.50151 0.391439 10.2147
1.99808 -0.318402 14.066
-0.554895 0.95853 19.6272
-0.921088 1.61392 20.2173
-1.05761 1.50726 21.421
-0.37603 0.260524 21.9372
0.0608836 -0.407987 21.6176
0.238778 -0.651984 21.3255
0.242422 -0.684247 21.2098
0.756533 -1.01808 19.2359
1.24095 -3.13669 21.1324
0.107987 -0.466875 21.8602
0.0186356 0.0207285 21.2148
-0.119745 0.567534 21.3499
-0.284456 0.988222 21.1058
-0.586604 1.26632 20.3458
1.16398 -0.968153 18.509
-0.00309217 1.38722 11.0647
-0.958311 1.58803 13.8295
1.53365 0.500898 17.9616
-1.26509 0.340281 6.79218
-2.01369 -0.364449 10.6294
0.582653 0.928784 19.6513
0.964086 1.53559 20.2506
1.05991 1.44692 21.4217
0.37164 0.283815 21.9606
-0.0383424 -0.416749 21.6336
-0.184173 -0.697788 21.344
-0.199656 -0.741096 21.2735
0.732131 -0.453962 19.8621
1.28174 -0.928127 20.6179
0.461904 -0.441882 21.4479
0.0187202 -0.089616 21.4834
-0.337107 0.155858 21.5195
-0.630719 0.339284 21.3042
-0.711815 0.347298 21.0245
1.00563 -0.365796 19.686
1.9922 -0.87726 20.5889
0.68231 -0.548957 21.5792
0.0610879 -0.201014 21.5824
-0.467514 0.0741211 21.6249
-0.83155 0.240829 21.4073
-1.03556 0.218293 21.2826
1.1582 0.131771 19.5816
2.31606 0.282224 20.4826
1.20919 -0.237495 21.5779
0.248495 -0.239873 21.7584
-0.587341 -0.275638 21.6803
-1.01397 -0.34129 21.3468
-1.18899 -0.394772 20.886
0.623441 0.44707 20.0243
0.915793 0.654964 20.4906
0.796524 0.451366 21.2002
0.304667 0.0393247 21.5497
-0.12497 -0.27925 21.5069
-0.312821 -0.4191 21.2865
-0.3405 -0.476529 20.9088
-1.46834 -0.236147 1.76109
2.42296e-05 -0.00146451 0.0492524
-0.0290179 0.00546636 0.219602
0.00470164 0.00709377 0.0126389
0.000743457 -0.000590172 0.0573259
-0.0101284 0.00700167 0.15746
-0.00163977 0.190223 0.444069
-0.104832 -0.045657 0.301111
0.0181386 0.139822 -0.0875351
0.000494348 0.000439408 0.00227735
1.20923 -0.196727 1.50154
0.0295518 0.00572393 0.219536
-0.00528492 0.00551026 0.0129367
0.0116076 0.0078833 0.175629
0.10979 -0.0480922 0.316125
0 0 0
-0.0327559 0.0124093 0.491228
0 0 0
0 0 0
0 0 0
0 0 0
0.00132331 0.00199649 0.00653239
-0.00021081 0.100135 0.21349
4.81502e-05 -0.000192855 0.00759042
0.0347937 0.0123618 0.497183
0 0 0
3.68542e-06 0.000510382 0.00208214
-0.00276712 0.00401557 0.0155579
0 0 0
1.56616e-19 4.02393e-18 2.08351e-17
0.00012455 0.00563754 0.0405484
0 0 0
0 0 0
0 0 0
0 0 0
0.00185426 0.0184658 -0.00590309
0.00180235 0.0151667 0.0874255
-1.98691e-05 0.00073189 0.00775521
3.53704e-05 -0.00352355 0.0342687
0 0 0
1.01277e-22 -2.94047e-18 -1.38159e-17
-0.000143834 0.0122741 0.0879792
-3.85992 -2.5485 20.4582
-1.52035 -5.29282 21.7715
-2.92062 -2.99771 17.5085
0.695997 0.455474 20.6982
-0.119651 0.800322 16.8794
0.241848 1.11905 9.7553
-4.56408 1.20138 20.1824
-3.98281 2.1093 16.2911
-2.16417 2.81987 19.8474
1.18829 -0.027491 19.2486
0.811478 0.561094 5.20186
0.407216 -0.732676 19.0671
1.62603 -5.24753 21.6991
2.93891 -3.0143 17.507
3.88463 -2.57248 20.4784
0.0974305 0.836733 17.2425
-0.0922889 1.07588 8.37471
-0.709178 0.459944 20.7516
4.03284 2.10901 16.3647
2.19923 2.69183 19.8992
4.51171 1.14874 20.2733
-0.535808 0.522841 3.84987
-0.443272 -0.691013 18.2372
-1.22609 -0.0292551 19.0672
-0.293219 -0.815332 20.8673
-0.290232 -0.0770323 17.2933
0.0839565 -0.0405527 19.7985
-0.299566 0.223259 15.6225
-1.91947 -0.770288 21.9979
-3.35339 2.22197 21.7598
-0.173713 -0.448722 21.1615
-0.851562 -0.0212821 21.8679
0.281818 -0.0794417 17.2982
0.304582 -0.819432 20.8398
0.297241 0.236751 15.8342
-0.0800879 -0.0507673 19.9056
3.30307 2.12988 21.7811
1.91526 -0.781544 21.9952
0.825826 0.0175916 21.6122
0.166472 -0.449267 21.1506
-1.06412 -0.717428 20.0953
-0.867183 -0.412702 19.7938
-0.825075 -0.714847 19.5825
-0.88549 -0.759284 21.3036
-1.6251 -0.957221 20.606
-1.57851 -1.84812 20.7264
-0.173695 -0.233397 21.5012
-0.587736 -0.533376 21.4966
-0.278107 -0.586441 21.7204
0.140156 0.0415746 21.5605
-0.0511721 -0.164754 21.4969
0.0445079 -0.0960529 21.5871
0.484128 0.257002 21.4362
0.375738 0.111994 21.5194
0.349288 0.343549 21.6342
0.653641 0.331583 21.2296
0.670487 0.272719 21.314
0.622497 0.643868 21.3737
0.824725 0.280317 21.3388
0.815641 0.732886 20.8852
-1.57427 -0.598498 19.8698
-1.11542 -0.166768 19.5743
-1.15245 -0.614337 19.2488
-1.35204 -0.762504 21.4467
-2.40858 -0.352635 20.5268
-0.302428 -0.365603 21.5711
-0.976355 -0.474515 21.6076
0.159049 -0.0503166 21.6569
-0.145028 -0.247501 21.691
0.645153 0.149219 21.4985
0.553823 -0.0698324 21.7167
0.866448 0.232422 21.0573
0.919851 -0.011947 21.4013
1.12449 0.690997 20.8247
1.08691 0.0238972 21.7532
1.35668 0.627309 20.4102
-1.84168 0.240446 19.7674
-0.903991 0.447346 19.7656
-1.44638 0.266927 18.941
-1.85747 -0.0541143 21.2771
-1.5381 0.735144 20.4177
-0.700532 -0.280353 21.7316
-1.21512 0.254082 21.3992
0.136412 -0.212459 21.772
-0.367466 -0.0935647 21.6827
0.719979 -0.278291 21.5243
0.29587 -0.35782 21.5304
1.01401 -0.293989 21.1149
0.52435 -0.43684 21.2875
1.42874 -0.387028 20.7598
0.625247 -0.491702 21.0144
1.63491 -0.515948 20.6328
-0.811105 0.62404 20.1808
-0.653233 0.724215 19.8203
-0.954726 0.626408 20.8727
-1.03938 1.10447 20.3717
-0.59052 0.240032 21.4802
-1.01757 0.866081 21.3131
-0.0581382 -0.137966 21.4966
-0.370921 0.114809 21.7091
0.232047 -0.365665 21.3327
0.0918486 -0.372093 21.517
0.334914 -0.38868 21.125
0.300752 -0.517833 21.1887
0.256952 -0.474296 21.2144
-1.30931 -2.17815 19.3901
-0.945736 -1.05853 18.9118
0.00177383 -1.48678 18.8301
-0.331931 -1.3585 22.2615
0.0143791 -3.34858 21.8661
-0.0224065 -0.12442 21.5124
0.0027756 -0.346114 21.5354
-0.0180597 0.122923 21.1335
0.00639547 -0.0228018 20.4446
0.215393 0.830283 21.1843
0.0283924 0.335426 20.3779
0.528627 1.04076 21.3393
0.305546 1.27229 17.8519
0.0297639 0.524326 20.1435
0.77372 1.51761 18.8814
0.0490093 1.05338 16.8201
-1.48234 -0.391205 17.9332
-0.000186375 -1.45812 17.5249
0.815265 1.80762 14.1734
0.69346 1.20361 5.9033
-0.156525 -0.573373 0.915773
1.86845 1.10392 11.6565
-0.107315 0.037967 5.51303
-0.985065 1.13192 18.9043
0.0190731 0.996661 16.4818
2.32021 -0.0639879 12.9705
0.651499 -1.08683 20.3156
-0.0233674 -0.869141 -1.29584
0.73887 -1.23914 19.7118
0.628623 -1.07966 -0.0591088
-0.750664 1.35623 19.8343
0.0263565 1.23873 19.4095
-1.07445 1.69603 20.7433
0.0579147 2.1483 20.0431
-0.748744 0.875616 21.8907
0.0338977 2.4095 21.4238
-0.108609 -0.150373 21.834
-0.00470786 0.58939 22.1293
0.154896 -0.555026 21.4781
0.00612682 -0.385277 21.7442
0.256836 -0.691864 21.1989
0.0201402 -0.734775 21.3421
0.0349558 -0.880278 21.0464
1.32134 -2.13336 19.4119
0.94842 -1.05394 18.9169
0.827232 -0.703613 19.5974
0.363177 -1.35734 22.2243
1.57692 -1.80557 20.7219
0.0173422 -0.133919 21.562
0.284432 -0.586012 21.7097
0.00120448 0.134281 21.2999
-0.0356527 -0.103247 21.5891
-0.224047 0.871745 21.2165
-0.347686 0.339822 21.638
-0.39341 1.12769 20.853
-0.198323 1.33582 17.5678
-0.634975 0.68717 21.3765
-0.604013 1.61986 18.2219
-0.839191 0.862219 20.9146
1.49877 -0.390209 17.9352
1.16418 -0.619609 19.2427
-0.564629 1.91479 13.3561
-0.367167 1.21532 3.21724
-1.20579 0.872686 20.1704
-1.79608 1.29147 8.66048
-1.46339 0.93503 19.7543
1.01427 1.10876 18.9617
1.45621 0.266309 18.9562
-2.24939 0.00125474 9.58364
-0.683333 -1.06575 18.6042
-1.59045 -0.335588 19.741
-0.682977 -1.34969 18.9951
-1.83774 -0.509216 19.6833
0.786518 1.30576 19.8666
0.662857 0.683908 19.8601
1.09901 1.6176 20.7668
1.03933 1.02555 20.401
0.745486 0.879491 21.896
1.0096 0.835143 21.3156
0.115833 -0.152641 21.8425
0.378509 0.123915 21.7291
-0.118561 -0.574687 21.4822
-0.0877854 -0.38795 21.5458
-0.222518 -0.745961 21.19
-0.269232 -0.572077 21.2582
-0.269105 -0.552597 21.3206
1.07357 -0.715329 20.0978
0.869972 -0.416559 19.7988
0.886088 -0.742321 21.2917
1.62259 -0.95706 20.6176
0.178758 -0.228438 21.5
0.592846 -0.532032 21.4893
-0.131865 0.0287659 21.5517
0.0616417 -0.174042 21.4996
-0.501695 0.256707 21.4341
-0.381401 0.110311 21.545
-0.68292 0.351418 21.1839
-0.701183 0.320766 21.3392
-0.851043 0.321679 21.3008
1.58814 -0.608292 19.8742
1.12711 -0.167302 19.5776
1.34917 -0.768673 21.4543
2.41974 -0.357838 20.5467
0.305342 -0.365142 21.5747
0.979031 -0.478626 21.609
-0.160908 -0.0512765 21.6577
0.142933 -0.248846 21.6932
-0.678328 0.158896 21.5068
-0.571239 -0.0775647 21.725
-0.968326 0.254692 21.1782
-1.02376 -0.0293112 21.405
-1.24275 -0.0429276 21.5313
1.84536 0.236604 19.787
0.901249 0.438102 19.7913
1.84439 -0.0589604 21.2828
1.50266 0.687205 20.4367
0.697276 -0.278693 21.7379
1.20144 0.253327 21.4004
-0.14401 -0.221775 21.7812
0.369331 -0.104253 21.6938
-0.792333 -0.303568 21.4919
-0.304712 -0.391975 21.5596
-1.13412 -0.327246 21.2812
-0.59194 -0.519599 21.3044
-0.679055 -0.562131 21.0888
0.798859 0.588468 20.214
0.930711 0.588632 20.8833
0.590349 0.239384 21.4866
0.0624351 -0.142194 21.5053
-0.229476 -0.385245 21.3443
-0.335737 -0.436796 21.1152
-1.31399 -0.703476 20.0065
-1.93368 -2.66803 18.734
-1.30707 -1.30184 19.7968
-2.28977 -1.31779 19.1486
-1.00387 -0.694553 19.3941
-2.46551 -2.39904 20.6915
-1.1255 -0.788588 21.3545
-0.262367 -1.00566 19.9474
-0.825499 -1.23155 21.7098
-1.55275 -1.72112 22.2758
-0.261989 -0.712982 21.8697
-0.256727 -0.330829 21.5176
-0.257643 0.157268 16.1171
-0.0516098 -0.275887 21.6263
-0.00983557 -0.372708 20.0603
0.101385 -0.0978774 21.2776
0.123623 -0.0192665 21.5938
-0.29226 0.214221 15.942
0.132302 0.0743729 21.625
0.198957 0.165278 20.3171
0.518546 0.429558 21.3668
0.560028 0.215812 21.4408
0.0873281 1.15432 17.2613
0.52735 0.518049 21.4913
0.959563 0.574543 20.6685
0.817297 0.668486 21.0043
0.794012 0.332589 21.274
0.563126 1.43942 18.3107
0.738058 0.704162 20.9859
1.19033 0.599684 21.0808
1.06519 0.934906 20.7204
-1.83595 -0.266315 19.7588
-4.51064 -0.745707 15.6224
-2.85148 0.693946 18.7814
-1.41214 -0.234712 18.9481
-5.43514 -0.569885 20.1477
-1.70208 -0.468987 21.4428
-2.98892 -0.150627 21.8806
-0.922401 -0.991263 21.3574
-0.481074 -0.391261 21.669
-0.907753 -0.763755 21.6118
0.0534774 -0.132638 19.4799
0.170286 -0.134374 21.7541
0.477636 -0.0365685 20.2148
0.986903 0.417895 18.7971
0.794621 -0.0435457 21.4871
-0.293562 0.793159 2.44135
1.28425 -0.274682 20.3494
1.45104 0.298739 19.8203
1.08612 0.00937576 21.2095
1.73515 1.16702 10.3884
1.3729 -0.469479 20.9967
1.73764 0.280706 18.9422
-1.28044 0.638866 19.9917
-1.64788 2.14039 19.0038
-0.860272 0.962293 20.0293
-1.04545 0.757345 19.3816
-2.08029 1.52598 20.1998
-1.50672 0.513306 20.9906
-2.63075 2.45978 20.553
-1.11593 1.06504 20.8512
-1.98773 0.669248 21.6382
-0.794595 0.0574272 21.6573
-2.18962 0.789126 22.6842
-0.721973 0.50496 21.6595
-0.533189 -0.133448 22.0564
0.00400726 -0.234157 21.6769
-0.0154663 -0.46705 20.4572
-0.100108 -0.169271 21.6716
0.341699 -0.630609 21.7606
0.452035 -0.429458 21.4317
0.474255 -0.906615 19.8149
0.213135 -0.456491 21.4015
0.668092 -0.782318 21.3773
0.612171 -0.431742 21.1576
1.00626 -1.04678 19.67
0.345787 -0.550047 21.1178
0.758492 -0.745343 21.1512
1.94357 -2.63993 18.7544
0.01589 -3.4622 19.1047
-0.0002438 -7.00782 14.6391
0.00168609 -1.54163 18.2554
0.0113758 -3.826 22.4017
0.25618 -1.04798 20.2716
0.00414926 -1.11386 22.4216
0.00590744 -0.0091872 14.1976
0.246905 0.155818 16.2864
0.00168978 -0.0776359 21.006
0.00807981 0.0747375 12.6824
0.29249 0.240748 16.2734
0.0123047 0.0268564 20.3456
0.0508245 0.271175 13.3171
-0.0486277 1.20459 17.0835
0.0350551 0.467901 20.1561
0.0166875 -0.584326 1.84536
0.078514 0.182269 13.3823
-0.355992 1.57299 17.6026
0.0370927 0.896609 19.6767
-0.176786 0.193014 3.36019
0.0707453 1.10302 13.2828
4.54944 -0.739877 15.6329
0.0500474 5.70299 12.576
0.009235 -0.566636 16.4374
0.588846 0.769481 1.27729
0.00894218 0.835098 -0.304061
-0.16547 -1.8275 -4.50886
-1.3016 1.18448 7.01594
0.233694 -0.996956 -1.59737
0.186466 -2.8008 -4.66071
1.6771 2.05484 19.0878
0.0394374 1.78941 19.6303
0.029537 1.68215 18.3457
0.0674543 4.13372 19.4554
2.65099 2.35565 20.5956
0.0509861 2.44439 20.5713
0.0278394 5.55149 21.1839
2.18836 0.793638 22.6727
-0.0010391 1.52258 22.2103
-0.00519931 0.621373 19.4551
-0.0615188 -0.420393 19.671
-0.000917143 -0.0435493 21.9637
0.0312456 -0.498624 11.3917
-0.512606 -0.828022 18.2493
0.0107779 -0.57044 21.5872
0.132406 -0.848617 11.9109
-0.943078 -1.15703 18.756
0.0238141 -0.807632 21.2178
0.161349 -1.19016 13.6294
1.31794 -0.706675 20.0155
1.31366 -1.28424 19.8116
2.30903 -1.33039 19.1424
1.0156 -0.701466 19.393
2.45332 -2.36131 20.6975
1.12348 -0.782701 21.349
0.834555 -1.2055 21.6904
1.53964 -1.71581 22.2843
0.277007 -0.719636 21.8595
0.2601 -0.327799 21.5228
0.060998 -0.285738 21.6241
0.0195098 -0.380597 20.125
-0.0949223 -0.109902 21.3331
-0.120142 -0.0291005 21.5867
-0.129452 0.0662329 21.6336
-0.198805 0.159379 20.3874
-0.526497 0.411338 21.465
-0.577509 0.228624 21.4429
-0.542285 0.540433 21.4972
-1.01369 0.674948 20.3781
-0.827685 0.791434 20.827
-0.84501 0.336148 21.253
-0.748627 0.791377 20.9433
-1.29494 0.820188 20.2568
-1.14037 1.11559 20.5516
1.85127 -0.269599 19.7654
2.86346 0.689031 18.8205
1.42883 -0.235351 18.9498
5.42564 -0.575658 20.2125
1.69669 -0.475135 21.4472
2.95148 -0.185007 21.8647
0.925022 -0.99126 21.3331
0.480147 -0.392838 21.6734
0.898629 -0.76159 21.5918
-0.0555403 -0.137308 19.5513
-0.176782 -0.135096 21.7661
-0.496076 -0.0228486 20.1419
-1.01709 0.421871 18.7482
-0.850675 -0.0481141 21.4881
-1.38814 -0.189444 19.3708
-1.56493 0.463857 18.2445
-1.19955 -0.012089 21.3314
-1.67961 -0.460183 19.734
-1.96105 0.549204 17.9519
1.2597 0.610896 20.0162
0.862644 0.895493 20.07
1.04786 0.73443 19.4219
2.04711 1.41257 20.2482
1.47895 0.484553 20.9973
1.11193 1.01912 20.8586
1.96236 0.643974 21.6434
0.794438 0.0535661 21.6659
0.722881 0.506892 21.6667
0.544748 -0.136006 22.0792
-0.00768642 -0.253214 21.6975
0.110517 -0.169765 21.6996
-0.324874 -0.675427 21.799
-0.475233 -0.48387 21.4581
-0.192235 -0.497707 21.4239
-0.628889 -0.894022 21.4282
-0.662724 -0.552597 21.1457
-0.354868 -0.6253 21.2091
-0.725534 -0.995398 21.1021
-1.77554 -1.40209 19.4854
-1.0734 -1.47681 22.006
0.00997447 -0.342415 21.5154
0.182169 0.0989439 21.2993
0.729447 0.583342 21.2515
1.00172 0.731699 20.8708
-2.98306 -0.405666 18.6663
-2.45864 -0.962649 22.5475
-0.280306 -0.611654 20.1243
0.29186 0.229697 19.1731
1.19282 0.351447 19.1218
1.60441 0.237747 19.7936
-1.63626 1.24594 19.5711
-2.17124 1.12523 20.9659
-1.25306 0.168584 22.0581
-0.0187303 -0.397963 21.9552
0.510316 -0.722277 21.5399
0.690125 -0.884861 21.2312
0.0131737 -5.01496 17.8433
0.00479003 -0.391609 16.3685
0.00638089 0.105201 13.286
0.0234829 0.00907788 12.9218
0.0661616 0.270733 13.1395
0.0907441 0.707599 13.3427
0.022951 -0.776674 9.20339
-0.0266391 0.192443 -2.27745
-0.00822345 -2.45216 -5.7572
0.0491905 3.27671 18.4421
0.0575468 4.25442 19.7789
-0.00923893 2.8164 22.3279
0.0128322 -0.290734 15.7172
0.0768733 -0.529177 11.2347
0.162212 -1.27622 13.268
1.7787 -1.40051 19.496
1.07933 -1.45247 21.9839
0.00441179 -0.351835 21.5347
-0.181764 0.0884037 21.3709
-0.754778 0.636371 21.1976
-1.05605 0.845145 20.7714
3.00376 -0.405694 18.6845
2.42318 -0.971515 22.5471
0.280479 -0.609319 20.1455
-0.296097 0.236877 19.1563
-1.26137 0.467391 18.1494
-1.91516 0.482293 18.0669
1.63112 1.1774 19.6234
2.13661 1.06915 20.9823
1.25277 0.168097 22.0684
0.0308565 -0.418708 21.9924
-0.48135 -0.798094 21.5875
-0.684943 -0.996713 21.4444
0 0 0
-0.00604714 -0.00826721 0.207143
-0.0280161 -0.00638065 0.278541
0.0597694 0.0127922 0.210537
-0.00324907 0.000159399 0.0415338
-0.0341029 0.0315318 0.603794
0 0 0
-0.0362567 0.129037 0.331441
-0.181068 0.0214651 0.599191
0.0103316 0.00894961 0.0341893
0 0 0
0.00752824 0.00264092 0.03611
0.00677947 -0.00846143 0.210987
0 0 0
0.029469 -0.00680949 0.293287
0.00573744 0.000240791 0.0769122
-0.0650695 0.0127076 0.226642
0.0352593 0.030218 0.582999
0.0384619 0.13368 0.343441
0.110915 0.0344204 0.156637
0.11626 0.0121932 0.378966
0 0 0
-0.00284596 0.00317191 0.0181946
-0.00253479 0.000914063 0.0128277
-0.00234098 -0.000672823 0.0463955
-0.0142093 0.00518119 0.221239
-0.000513088 0.0149658 0.17162
0 0 0
-0.0165466 -0.0105633 0.441939
-0.0412066 0.0137118 0.575536
-0.000694504 0.00521377 0.0265088
0 0 0
-0.127762 -0.12259 0.505371
4.28843e-05 0.00123802 0.0267445
0.00165859 0.0029795 0.0135979
-0.0269226 0.0329527 0.0817375
0.0186484 0.0213236 0.0770836
0.00819016 0.0466986 0.146437
0 0 0
0.0643697 0.0180268 0.359289
0.0016136 -0.0011073 0.050559
3.56586e-18 3.78934e-18 1.12266e-16
0.0139737 0.00546632 0.220575
-0.00239384 0.0010302 0.0954475
0.0200107 -0.00768428 0.475919
0 0 0
0.0426036 0.0143824 0.578201
0.00107704 0.00817502 0.0414744
0.111436 -0.105562 0.423
0.0285999 0.0354715 0.0876535
-6.09865e-05 0.00129447 0.0265068
-0.0018456 0.00332578 0.0149913
-0.00592341 0.00682438 0.0249827
-0.0565406 0.0151735 0.320869
-0.0077113 0.0441082 0.138453
0 0 0
0 0 0
0 0 0
0 0 0
0 0 0
-6.47875e-05 -1.04593e-05 0.00301278
0 0 0
0.000322467 0.00101331 0.00782553
0 0 0
0 0 0
0 0 0
0 0 0
-0.000356955 -4.5051e-06 0.0207071
0 0 0
5.53999e-06 0.0071929 0.0300104
-0.00573616 -0.01788 0.123134
-0.0212304 0.0159536 0.0866682
0 0 0
4.89841e-05 -0.000725463 0.00535434
0.0109442 0.122574 0.483927
0.00550203 -0.00231278 0.0288514
0 0 0
0.000425339 -0.000239376 0.00275179
0.000139523 9.25576e-06 0.00176649
4.75589e-05 -1.57258e-05 0.00231365
0.00834612 0.00320256 -0.00146247
-0.00329215 0.0100224 0.0788205
0 0 0
0 0 0
0.0393871 0.0282173 0.175513
0.000397656 -0.00155075 0.010566
-0.00251468 -0.0013895 0.0150991
-0.00984931 0.109868 0.45112
-0.000737131 0.00367107 0.0392028
0 0 0
0 0 0
0.000123715 0.0016972 0.0109771
0 0 0
0 0 0
6.4195e-06 0.000291707 0.00128485
-0.00230393 0.0120134 0.0467145
0 0 0
0 0 0
0.00483057 0.0309583 0.120657
-0.0207924 0.0310037 0.559282
-0.000177125 0.011201 0.0225238
8.93366e-05 0.0582904 0.199334
8.82537e-05 0.00324826 0.0898
0.000207291 -0.000806987 0.0125086
0 0 0
0.000744429 0.00367405 0.0386249
0 0 0
-0.000144053 0.00186778 0.0110973
-7.36599e-06 0.000312862 0.00137301
0.0028017 0.0147493 0.0567987
0.0188979 0.027941 0.517365
-0.00566213 0.0350561 0.13729
-0.0791604 -0.0565144 0.53114
-0.259441 -0.0613245 0.820704
0.000683597 -4.05653e-05 0.0367139
-0.000622556 -0.011986 0.082324
-0.000719518 0.00656116 0.0878755
0.00176517 0.0115586 0.0550275
-0.000999546 0.00492239 0.0312918
0.000488781 0.00512988 0.0176242
-0.00127038 0.0235826 0.139445
0.00336278 0.0184817 0.0573267
0 0 0
0.0311485 0.0397841 0.267073
0 0 0
0 0 0
0 0 0
0 0 0
0 0 0
0 0 0
0 0 0
0 0 0
0 0 0
0 0 0
-0.000662693 3.48718e-05 0.0179608
0.00177214 0.00012755 0.0505094
0 0 0
0 0 0