# vtk DataFile Version 2.0
tri_press
ASCII
DATASET UNSTRUCTURED_GRID
POINTS 3682 float
-0.693171 0.155 -1.805
-0.829536 0.155 1.755
-0.695 0.759676 -1.745
-0.712055 0.905 1.825
0.693785 0.155 -1.805
0.82953 0.155 1.755
0.705 0.760921 -1.735
0.705 0.911653 1.825
-0.747776 0.14585 -0.618333
-0.77547 0.163611 0.568333
-0.807335 0.914767 -0.555
-0.795195 0.945384 0.635
0.748079 0.145954 -0.618333
0.775659 0.163623 0.568333
0.808136 0.914301 -0.548333
0.791979 0.948388 0.638333
-1.45846 -0.249996 -2.78966
-1.46051 -0.207838 -1.83989
-1.50284 -0.20795 -0.652986
-1.52996 -0.211381 0.533832
-1.55568 -0.219943 1.72074
-1.56913 -0.222942 2.67052
-1.57614 -0.219061 3.62041
-1.45415 0.0923991 -2.75701
-1.45836 0.152044 -1.80728
-1.51714 0.166059 -0.619824
-1.53873 0.168697 0.567814
-1.55871 0.155073 1.75527
-1.57572 0.151939 2.70502
-1.58409 0.156549 3.65479
-1.45606 0.754678 -2.69347
-1.46959 0.813325 -1.74529
-1.55729 0.91911 -0.555829
-1.55179 0.942835 0.634492
-1.50183 0.91471 1.82414
-1.54969 0.911205 2.77394
-1.5831 0.917143 3.72344
-1.47422 1.85212 -2.59458
-1.49 1.92075 -1.64498
-1.53247 2.02507 -0.455897
-1.5582 2.08327 0.73432
-1.56149 2.08685 1.92396
-1.57191 2.08082 2.87474
-1.59001 2.08027 3.82484
-0.718873 -0.250084 -2.78799
-0.707293 -0.206035 -1.83852
-0.739225 -0.218113 -0.652077
-0.758909 -0.216337 0.534162
-0.785855 -0.222286 1.72066
-0.802536 -0.225883 2.6706
-0.810236 -0.222184 3.62069
-0.716028 0.0868173 -2.75485
-0.821595 0.149217 2.70513
-0.822938 0.153274 3.6551
-0.713895 0.730857 -2.69107
-0.799704 0.906645 2.77443
-0.82774 0.913619 3.72395
-0.717317 1.837 -2.59257
-0.723859 1.90715 -1.6431
-0.760437 2.0225 -0.454256
-0.791496 2.08613 0.735628
-0.8025 2.08729 1.92498
-0.814489 2.07965 2.87562
-0.831593 2.07883 3.82566
0.726426 -0.249814 -2.78592
0.727755 -0.205929 -1.83786
0.760261 -0.217902 -0.651678
0.790757 -0.216035 0.534436
0.820757 -0.221783 1.72086
0.771784 -0.224415 2.67098
0.739494 -0.220245 3.62134
0.714663 0.0871435 -2.75205
0.746632 0.151159 2.70541
0.720601 0.155542 3.65571
0.724537 0.731541 -2.68513
0.699605 0.910623 2.77485
0.693741 0.916617 3.72469
0.780587 1.83769 -2.58753
0.790643 1.90787 -1.63788
0.785019 2.02354 -0.44989
0.752831 2.08825 0.7386
0.718302 2.09034 1.92684
0.70065 2.08276 2.87707
0.687661 2.08166 3.82701
1.46377 -0.249362 -2.7849
1.46878 -0.207434 -1.83669
1.51594 -0.207193 -0.650717
1.55666 -0.209798 0.535221
1.58179 -0.21755 1.72157
1.54909 -0.219581 2.67157
1.51551 -0.215159 3.62188
1.4512 0.0930836 -2.75097
1.45229 0.152347 -1.80286
1.51499 0.166751 -0.616668
1.547 0.170884 0.569445
1.56443 0.15849 1.75586
1.52714 0.156186 2.70593
1.49698 0.161025 3.65621
1.46387 0.755783 -2.68338
1.47237 0.814279 -1.73372
1.55457 0.919895 -0.547247
1.54922 0.947424 0.638992
1.48925 0.922574 1.82547
1.47382 0.917997 2.77521
1.46447 0.922787 3.72513
1.52877 1.85353 -2.58513
1.54266 1.92224 -1.63537
1.54995 2.02724 -0.447786
1.52463 2.08728 0.740034
1.48633 2.09246 1.92775
1.46553 2.08663 2.87777
1.45239 2.0857 3.82765
-0.738405 0.457338 -1.81932
0.000306994 0.150001 -1.81
-0.726133 0.144766 -1.21167
-0.818216 0.53 1.83742
-3.01003e-06 0.155849 1.75415
-0.800786 0.161023 1.16167
0.005 0.82914 -1.80884
-0.785912 0.871966 -1.15
-0.00352752 1.04435 1.96102
-0.772671 0.944238 1.23
0.743587 0.457961 -1.81419
0.726642 0.144767 -1.21167
0.816542 0.533326 1.83928
0.800883 0.161022 1.16167
0.789163 0.870206 -1.14167
0.767408 0.948939 1.23167
-0.759596 0.156757 -0.025
-0.881115 0.530309 -0.586667
0.000151334 0.15369 -0.618333
-0.86472 0.554497 0.601667
9.45264e-05 0.174847 0.568333
-0.806968 0.935778 0.04
0.000400683 1.24417 -0.551667
-0.00160814 1.41889 0.636667
0.759894 0.156763 -0.025
0.881584 0.530128 -0.583333
0.864817 0.556005 0.603333
0.806537 0.937824 0.045
-0.884487 0.493823 -1.18083
0.884451 0.494044 -1.17667
0.000229164 0.15393 -1.21167
0.00270034 0.990475 -1.14583
0.00265349 0.457649 -2.08463
-0.868883 0.542403 0.00750002
0.869445 0.543067 0.01
0.00012293 0.167078 -0.025
-0.00060373 1.41098 0.0425
-0.88384 0.542249 1.19583
0.885028 0.544666 1.19667
4.57582e-05 0.16057 1.16167
-0.00256783 1.37045 1.23083
-0.00176527 0.531663 2.08596
-0.706051 0.306169 -1.80242
-0.346432 0.148417 -1.81158
-0.714757 0.144777 -1.50833
-0.831038 0.3425 1.80337
-0.41477 0.154304 1.7557
-0.808778 0.164394 1.45833
-0.727242 0.608507 -1.7927
-0.345 0.813713 -1.79623
-0.761321 0.836686 -1.4475
-0.781393 0.7175 1.84747
-0.357791 0.987172 1.90551
-0.754759 0.937014 1.5275
0.347046 0.148453 -1.81155
0.709262 0.30648 -1.80017
0.715461 0.144636 -1.50833
0.414763 0.154365 1.75564
0.830336 0.344163 1.80444
0.808326 0.164891 1.45833
0.355 0.81397 -1.79086
0.735091 0.609441 -1.78539
0.767024 0.835506 -1.43833
0.350736 0.990491 1.9055
0.778008 0.72249 1.84938
0.747354 0.941446 1.52833
-0.73715 0.145112 -0.915
-0.75339 0.1516 -0.321667
-0.876991 0.306807 -0.6025
-0.370451 0.156493 -0.618333
-0.789258 0.161186 0.865
-0.769966 0.157751 0.271667
-0.872178 0.333013 0.585
-0.38633 0.171944 0.568333
-0.802335 0.899078 -0.8525
-0.875896 0.738374 -0.570833
-0.807742 0.925864 -0.2575
-0.467717 1.20797 -0.553333
-0.785377 0.946255 0.9325
-0.864277 0.767101 0.618333
-0.800842 0.940342 0.3375
-0.497547 1.38043 0.635833
0.737434 0.145287 -0.915
0.370076 0.1579 -0.618333
0.753704 0.151641 -0.321667
0.877502 0.306706 -0.600833
0.789259 0.161335 0.865
0.384069 0.176849 0.568333
0.769951 0.158019 0.271667
0.872507 0.33368 0.585833
0.803935 0.897539 -0.845
0.469506 1.20971 -0.55
0.876524 0.738046 -0.565833
0.80806 0.926786 -0.251667
0.780832 0.949802 0.935
0.493786 1.38084 0.6375
0.86395 0.769973 0.620833
0.799135 0.942983 0.341667
-0.882329 0.475581 -1.50008
-0.367876 0.457494 -2.05213
0.000268079 0.153958 -1.51083
0.00148024 0.303825 -2.07931
-0.888573 0.319294 -1.19625
-0.362952 0.151104 -1.21167
-0.878686 0.536124 1.51663
-0.409991 0.530832 2.06535
2.13741e-05 0.160532 1.45791
-0.000884138 0.343756 2.09356
-0.873802 0.351636 1.17875
-0.40037 0.155997 1.16167
0.00385017 0.920393 -1.47734
0.00382674 0.643395 -2.06069
-0.889109 0.682895 -1.16542
-0.391606 0.981112 -1.14792
-0.00304768 1.31655 1.59593
-0.00264639 0.788007 2.02951
-0.885084 0.743243 1.21292
-0.38762 1.34646 1.23042
0.882353 0.476002 -1.49543
0.37312 0.457805 -2.05149
0.888571 0.319406 -1.19417
0.363436 0.151187 -1.21167
0.880613 0.538996 1.51797
0.407388 0.532495 2.06603
0.874061 0.352844 1.17917
0.400465 0.158383 1.16167
0.886146 0.682125 -1.15917
0.395932 0.981745 -1.14375
0.884322 0.746802 1.21417
0.38242 1.34736 1.23125
-0.87894 0.31723 -0.00874998
-0.376705 0.167981 -0.025
-0.886222 0.512066 -0.88375
-0.874746 0.536356 -0.289583
0.000190249 0.153906 -0.915
0.000137132 0.16074 -0.321667
-0.866861 0.54845 0.304583
-0.873874 0.548373 0.89875
0.000108728 0.167064 0.271667
7.01423e-05 0.167695 0.865
-0.87304 0.756648 0.02375
-0.50577 1.37735 0.04125
0.00155051 1.08451 -0.84875
-0.000101524 1.36954 -0.254583
-0.00110594 1.4238 0.339583
-0.00208799 1.4006 0.93375
0.879562 0.317469 -0.00749998
0.375155 0.171628 -0.025
0.886229 0.512086 -0.88
0.875286 0.536597 -0.286667
0.866971 0.549536 0.306667
0.874357 0.550336 0.9
0.873273 0.758086 0.0275
0.504933 1.37833 0.04375
-0.888091 0.312732 -1.5042
-0.891655 0.328687 -0.899375
-0.884982 0.702716 -0.868125
-0.884065 0.645701 -1.47379
0.888099 0.312943 -1.50188
0.884751 0.645783 -1.46688
0.884552 0.70217 -0.8625
0.887978 0.328723 -0.8975
-0.354692 0.151144 -1.50958
0.355241 0.151294 -1.50958
0.368775 0.151847 -0.915
-0.368382 0.151067 -0.915
-0.368303 0.907921 -1.46242
-0.397536 1.05761 -0.850625
0.4001 1.05953 -0.846875
0.375466 0.907245 -1.45784
-0.357154 0.304997 -2.05074
-0.356438 0.625951 -2.00622
0.36406 0.626418 -2.00607
0.360083 0.305153 -2.05023
-0.877968 0.312017 -0.305625
-0.877247 0.324277 0.288125
-0.868678 0.761884 0.321042
-0.874408 0.747481 -0.273542
0.878582 0.312062 -0.304167
0.874901 0.748068 -0.269167
0.868621 0.764034 0.324167
0.877566 0.324808 0.289167
-0.373096 0.1632 -0.321667
0.372743 0.164509 -0.321667
0.380748 0.171967 0.271667
-0.383424 0.16615 0.271667
-0.505778 1.33073 -0.256042
-0.50543 1.38643 0.338542
0.503081 1.38703 0.340625
0.50619 1.33196 -0.253125
-0.87438 0.355345 0.881875
-0.867076 0.347068 1.48748
-0.881147 0.730372 1.52206
-0.865717 0.746592 0.915625
0.874445 0.356329 0.8825
0.865504 0.7495 0.9175
0.879788 0.734646 1.52315
0.868084 0.348504 1.48815
-0.394029 0.163323 0.865
0.394171 0.17062 0.865
0.407614 0.158122 1.45812
-0.40757 0.156003 1.45812
-0.393011 1.37657 0.933125
-0.372705 1.30626 1.56171
0.366578 1.30823 1.56213
0.388803 1.37688 0.934375
-0.41238 0.343128 2.04624
0.411076 0.34396 2.04689
0.379062 0.755248 1.99403
-0.383891 0.752754 1.99563
-0.719639 0.230584 -1.82374
-0.519802 0.142961 -1.81704
-0.709035 0.144818 -1.65667
-0.831218 0.24875 1.78012
-0.622153 0.153321 1.75668
-0.809902 0.168953 1.60667
-0.71673 0.684091 -1.77446
-0.52 0.798928 -1.78285
-0.738375 0.808396 -1.59625
-0.739232 0.81125 1.82874
-0.534923 0.956713 1.87588
-0.740479 0.928079 1.67625
0.520416 0.142956 -1.81704
0.721344 0.23074 -1.82241
0.709618 0.144823 -1.65667
0.622147 0.15335 1.75665
0.831083 0.249582 1.78087
0.811493 0.167381 1.60667
0.53 0.801092 -1.77658
0.725295 0.685181 -1.76545
0.746205 0.808406 -1.58667
0.527868 0.961153 1.87533
0.735965 0.817071 1.83165
0.732278 0.932651 1.67667
-0.741968 0.145976 -0.766667
-0.748014 0.151293 -0.47
-0.850343 0.207349 -0.610417
-0.560111 0.149176 -0.618333
-0.781081 0.163682 0.716667
-0.770187 0.163212 0.42
-0.838297 0.241075 0.576667
-0.581786 0.166005 0.568333
-0.8055 0.907588 -0.70375
-0.850724 0.831125 -0.562917
-0.80758 0.920357 -0.40625
-0.689454 1.16523 -0.554167
-0.790299 0.945832 0.78375
-0.840226 0.861487 0.626667
-0.798417 0.943261 0.48625
-0.659322 1.18881 0.635417
0.742193 0.146184 -0.766667
0.560453 0.149175 -0.618333
0.748353 0.151337 -0.47
0.850862 0.207294 -0.609583
0.78124 0.163698 0.716667
0.582116 0.165733 0.568333
0.770242 0.163383 0.42
0.838478 0.241453 0.577083
0.806845 0.906729 -0.696667
0.690819 1.166 -0.549167
[...]
POINT_DATA 3682
SCALARS point_scalars float 1
LOOKUP_TABLE default
-134.034
-53.1416
-23.0647
-44.2277
-134.302
-56.8606
-31.2449
-44.4428
-44.17
-32.2174
-69.4104
-52.1782
-44.1275
-32.4
-69.463
-52.413
-26.5902
-118.091
-54.942
-34.4538
-52.6412
-55.1496
-37.1804
-0.657321
-114.575
-55.3283
-37.7952
-50.9537
-40.8891
-36.5438
34.2421
-94.8801
-56.8651
-45.4168
-52.425
-39.2255
-37.2448
-35.1091
-59.6301
-98.486
-60.9835
-46.8493
-45.3553
-39.3296
-62.3122
-151.079
-44.7051
-32.3865
-48.5105
-41.5096
-34.5497
46.5043
-36.0509
-34.3322
134.4
-37.5863
-36.5882
-8.98964
-37.8577
-91.0348
-62.7969
-45.7995
-39.6028
-38.5906
-62.0358
-146.33
-44.9595
-32.5682
-48.9937
-39.9018
-34.8633
37.1631
-37.1186
-35.0579
135.813
-38.0705
-36.3098
-6.01592
-38.7049
-91.0497
-62.6644
-45.9027
-39.7382
-38.799
-28.0497
-118.53
-55.0775
-34.5524
-56.6828
-57.0437
-38.1
17.5386
-117.695
-55.9516
-37.7877
-53.4754
-41.935
-37.429
30.5297
-93.4288
-57.2347
-45.5444
-53.3787
-39.7394
-37.8591
-36.6347
-59.7762
-97.6684
-61.1372
-45.7247
-42.6382
-39.4623
11.9128
-104.647
-60.1778
-44.337
-42.4713
-38.6529
-25.4521
-54.9105
-38.7235
-50.9048
8.64488
-60.3029
-45.1164
-38.9617
-55.284
-51.2483
-35.638
-49.1628
-42.3016
-39.7509
-32.3115
-58.6315
-19.7599
-70.5765
-35.8172
-49.2966
-39.8909
-58.7977
-69.3172
-68.9939
-57.2115
-2.98245
203.829
-42.9835
-43.2147
-34.9581
-96.5644
-43.5525
-43.9056
-37.7256
-53.6478
-31.5801
22.2591
-107.421
-86.8414
-48.4529
-45.3592
-42.1366
-3.63777
-25.2841
-58.7449
-43.0918
-38.8176
-49.7803
-107.588
17.8701
-86.6666
-46.9124
-49.4502
-41.976
-26.7675
-10.4373
-59.2009
-39.0209
-43.6356
-50.0398
-48.0972
-38.2329
-44.8481
-42.7086
-31.5442
-35.2816
-36.9674
-32.2647
-60.6855
-55.5395
-62.6114
-27.2206
-50.4417
-44.4999
-54.314
-64.6498
-47.7343
-42.649
-38.4985
-44.9969
-31.3393
-32.419
-35.4888
-37.1591
-60.4994
-28.06
-55.6489
-62.7704
-50.6769
-64.7731
-44.6931
-54.5592
-119.889
166.976
-74.8983
191.329
-68.3898
-57.7238
-47.9384
-34.4723
-39.6045
-27.3677
-42.2877
-37.8999
-20.0617
129.416
-69.2524
-10.1125
-44.8374
-37.6615
-45.431
-52.9308
-118.078
165.704
-68.5834
-57.7924
-48.6575
-35.5539
-42.5545
-38.2379
-69.0202
-11.3659
-45.8649
-52.9142
-38.9887
-34.9843
-56.5687
-45.2077
-47.416
-38.0034
-41.6751
-38.5123
-34.0828
-33.6266
-48.8847
-88.9214
17.6921
-93.6698
-81.9096
-61.3013
-39.2505
-34.9261
-55.1076
-45.3964
-41.8603
-38.7401
-49.2643
-88.9868
-118.594
-56.6571
-58.8719
-102.759
-118.008
-104.236
-57.8345
-54.1171
-76.0089
-76.0459
-47.6486
-47.6273
-24.6026
10.061
10.2052
-24.624
158.421
114.409
115.594
157.417
-40.7642
-38.0976
-45.7796
-51.623
-40.9733
-51.9727
-45.9939
-38.2803
-37.9332
-38.001
-34.1193
-34.0687
-89.6088
-73.6529
-73.9729
-89.5902
-37.5524
-46.2304
-50.2043
-43.0652
-37.5112
-43.2552
-50.8031
-46.8323
-33.5996
-33.773
-40.572
-40.388
-59.4182
-46.5266
-46.52
-59.483
-34.9374
-36.1869
-38.2182
-37.8917
-17.7078
-120.102
-120.372
-53.6772
-48.9716
-44.6321
-10.17
-26.155
-54.8252
-42.7747
-39.7593
-47.5505
-120.323
-18.394
-120.404
-50.4434
-54.499
-43.3534
-27.507
-17.3444
-56.1309
-40.0562
-43.5514
-47.9491
-46.0467
-40.6524
-44.094
-42.5868
-32.4623
-34.3089
-35.0759
-32.3783
-69.5529
-61.0262
-65.6292
-85.9476
-51.197
-48.1921
-52.9598
-58.6301
-45.9854
-42.5614
-40.7722
-44.1224
-32.6618
-32.5061
-34.3135
-35.3106
-69.5572
-87.2332
-61.284
-65.6642
-51.4771
-58.9389
-48.4112
-53.1995
15.8662
3.1091
-85.5216
93.8524
-105.326
-105.355
-87.472
64.5629
-70.8208
-52.8884
-66.0021
-58.7421
-45.7605
-43.4902
-49.3023
-36.5635
-43.1331
-44.7806
-40.4993
-31.6441
-40.081
-37.9435
-41.7679
-38.1036
-24.9191
-24.9639
-26.9296
15.3062
-54.8295
-55.2803
-66.9836
-22.0088
-38.7468
-38.961
-39.93
-38.6076
-50.7152
-50.1637
-48.5035
-51.2731
13.8446
-2.54675
-90.5789
91.1922
-70.778
-52.931
-66.3491
-58.6575
-46.6345
-44.5808
-50.3281
-37.3374
-40.3369
-38.2363
-42.0295
-38.2758
-55.1309
-55.3242
-66.456
-21.7668
-50.9674
-50.3834
-48.7786
-51.6745
-37.4895
-34.9412
-37.8495
-35.1318
-46.904
-51.4896
-52.6579
-46.7177
-42.4017
-42.3997
-44.3933
-40.4166
-39.0989
-41.8213
-40.8254
-38.5969
-32.2708
-32.3303
-33.5837
-31.8088
-60.3313
-56.0945
-53.2788
-70.3637
-20.9679
-21.6775
6.34615
-55.1197
-69.3998
-69.4183
-75.7185
-65.8245
-37.0752
-35.1156
-38.0863
-35.184
-47.041
-51.6195
-52.4936
-46.8451
-39.2063
-41.9701
-40.9715
-38.7435
-60.4917
-56.2961
-53.5844
-70.5556
-84.8079
-69.1803
-69.1798
-60.1538
-84.4781
-69.161
-68.737
-60.3293
-64.9296
-57.3445
-57.3609
-51.5766
-12.017
-5.85412
-6.77805
10.5036
198.244
199.615
183.826
197.944
-41.595
-43.9416
-42.21
-45.3638
-41.8461
-44.1523
-42.4596
-45.5427
-34.9124
-37.3061
-34.2858
-34.9087
-95.424
-104.559
-88.939
-95.5326
-45.2039
-42.7645
-44.4686
-40.8878
-45.6521
-43.0632
-44.8885
-41.1198
-38.6665
-37.7367
-38.1541
-36.6589
-49.1536
-53.4177
-53.4285
-57.1821
-32.5131
-28.0979
-34.0389
-33.3179
-100.402
84.0105
-89.7047
53.0318
-114.482
-79.2878
-49.3134
-37.4124
-41.9548
-37.0456
-45.1522
-41.1509
-71.1763
79.6042
-30.0216
29.5
-76.1672
-32.7418
-52.0333
-37.9672
-41.1117
-37.8453
-50.2191
-47.5205
-89.7456
54.7043
-102.707
83.1425
-109.967
-79.269
-42.397
-38.1095
-50.3334
-38.344
-45.6365
-41.4037
-29.7799
28.2426
-71.4125
78.2178
-77.2279
-32.6685
-41.2172
-38.2014
-53.0037
-38.4735
-50.7656
-47.5036
-56.1574
-47.8555
-39.5682
-38.0374
-52.2334
-42.2366
-44.7862
-40.1141
-33.9947
-33.5983
-37.2445
-34.3538
-37.5295
-36.4139
-33.546
-31.8049
-60.3554
-5.82412
-55.8819
-53.7286
-56.5281
-84.7607
-2.60034
-57.0923
-46.5114
-55.5297
-45.9704
-43.467
-50.3997
-62.5892
-68.7633
-62.3695
-52.594
-47.966
-44.7758
-40.2372
-39.8199
-38.2086
-52.1598
-42.4301
-33.2772
-33.6895
-33.5714
-31.9861
-37.3863
-34.4034
-37.6847
-36.6449
-60.0306
-6.07993
-2.96212
-57.4103
-55.8281
-53.9196
-56.7363
-84.4468
-46.8262
-55.7474
-68.8974
-62.3921
-46.2802
-43.6881
-50.8661
-62.7059
-119.594
-114.932
164.17
156.694
-74.9986
-75.016
188.09
187.786
-84.395
-58.7958
-65.843
-51.8451
-46.9487
-48.7313
-34.2495
-35.8403
-39.9181
-39.7659
-29.7326
-30.878
-40.2324
-43.8432
-36.7096
-39.0587
-20.9952
-20.9914
124.503
123.812
-61.5958
-85.0225
-16.9133
0.304841
-45.3233
-45.3916
-37.8987
-37.6675
-47.4558
-43.019
-56.0173
-49.4679
-118.704
-113.795
154.349
163.057
-84.1276
-59.4468
-65.8592
-51.8978
-49.2434
-47.6628
-35.512
-36.6086
-40.5043
-44.2624
-36.8283
-39.2904
-84.8373
-61.3685
1.92662
-16.8044
-43.492
-47.8955
-49.4886
-56.0584
-39.7721
-38.6619
-37.2717
-34.3165
-56.5164
-57.542
-43.2898
-47.92
-47.4752
-47.3057
-37.995
-37.997
-40.8566
-43.5099
-37.6834
-40.4352
-34.1166
-34.1076
-33.5668
-33.6969
-47.5104
-50.1298
-99.9164
-80.1693
16.0232
16.4625
-92.2574
-92.5945
-79.9525
-79.9853
-60.769
-60.8091
-39.9701
-38.9052
-37.2603
-34.3757
-55.9873
-54.7509
-43.4827
-47.9854
-43.7079
-41.0362
-37.8234
-40.7281
-50.3523
-47.728
-80.0847
-100.627
-101.4
-81.3293
-85.1422
-94.6776
-52.763
-52.6822
-59.9069
-55.8854
-61.3681
-62.1611
-60.5404
-53.3868
-63.2872
-82.2997
-84.1332
-75.5026
-102.886
-99.9227
-84.7463
-81.4711
-65.7944
-75.5625
-83.9828
-86.3986
-60.9705
-53.3532
-60.5701
-61.5547
-52.9513
-57.5907
-60.1296
-52.4443
-97.1529
-87.7236
-65.0638
-67.6315
-97.1659
-67.6457
-65.0751
-87.7434
-45.1476
-44.4863
-51.6486
-52.3209
-45.2362
-52.2504
-51.6324
-44.488
-34.2973
-26.5138
-13.0637
-27.4712
-64.4227
5.22322
8.41822
-15.0711
-63.4153
-15.2279
9.39223
5.07144
-34.2532
-27.5291
-13.1971
-26.1136
28.2131
84.6129
194.087
95.9283
43.1229
21.7003
182.652
102.943
41.5535
100.529
181.036
22.4382
30.2618
92.5001
194.076
84.0132
-41.0271
-38.5737
-42.395
-44.8784
-36.182
-40.2312
-41.1488
-37.6141
-51.0326
-51.6392
-44.4177
-42.8945
-58.9652
-49.556
-46.2862
-54.4585
-41.2235
-45.0185
-42.6115
-38.5312
-59.0486
-54.6511
-46.5695
-49.7028
-51.1458
-43.0653
-44.6662
-51.8892
-36.3011
-37.8656
-41.3801
-40.3528
-40.3144
-40.3183
-37.3415
-37.2697
-40.3741
-36.9809
-37.3455
-40.3308
-33.736
-33.5962
-34.3018
-34.6195
-33.6723
-34.5665
-34.2893
-33.5726
-101.487
-75.7304
-103.027
-54.7567
-59.5086
-74.1561
-87.1029
-66.1418
-59.5654
-66.2873
-87.1347
-74.1782
-99.7809
-54.455
-103.221
-75.8883
-33.9687
-39.8326
-40.4456
-38.0981
-48.559
-48.9377
-44.3176
-42.8482
-50.866
-49.8904
-46.0685
-50.757
-47.4027
-40.7109
-41.4431
-46.8942
-34.3091
-38.2209
-40.8062
-40.3242
-47.7328
-47.0832
-41.6127
-40.912
-51.427
-51.8369
-46.4909
-50.1854
-49.5313
-43.2162
-44.7629
-49.8421
-31.9755
-31.7399
-36.6541
-36.7806
-32.0197
-36.8992
-36.9078
-31.8209
-44.1077
-41.2515
-38.8536
-39.7156
-43.5714
-39.4708
-38.7436
-40.8314
-56.8578
-53.2717
-56.9447
-65.0621
-44.0569
-40.3119
-49.4586
-50.2563
-44.1923
-50.2995
-49.4309
-40.399
-56.9511
-65.1027
-56.9561
-53.3427
-40.0697
-33.2957
-29.525
-36.6395
-41.0392
-37.4523
-30.7095
-34.2241
-38.3907
-38.369
-34.4438
-37.6382
-37.7884
-36.9688
-33.8408
-38.2426
-63.7822
-140.934
-137.701
-57.6532
-52.6994
-44.1853
-16.1609
-18.4333
-51.8833
-44.0842
-41.3692
-45.6644
-139.804
-64.6343
-137.624
-53.7743
-58.9173
-47.2885
-21.7194
-23.8438
-51.1547
-41.6977
-44.741
-45.8273
-45.3382
-42.2982
-44.7296
-42.802
-32.4599
-32.4709
-34.029
-32.3151
-70.206
-64.7884
-66.9979
-89.4305
-51.5263
-50.2247
-52.4795
-55.5728
-45.2797
-42.8049
-42.3738
-44.6977
-32.6439
-32.4517
-32.5736
-34.2319
-70.4552
-89.3212
-64.825
-67.0791
-51.8689
-55.7475
-50.4999
-52.7362
13.1299
8.06113
-40.9762
57.6809
-105.015
-105.027
-95.7755
-80.4122
-64.9774
-56.2231
-64.0774
-59.0479
-45.1108
-43.4548
-49.6413
-37.9003
-42.6129
-42.9616
-40.7287
-34.8068
-39.2871
-38.0088
-40.6451
-38.0401
-25.2283
-24.9773
-27.7062
-10.9725
-55.1501
-55.1152
-62.4151
-36.5954
-38.7479
-38.939
-39.2831
-38.5253
-51.0674
-50.544
-49.6296
-51.6
11.8684
2.12791
-44.1279
56.6905
-65.0264
-56.3801
-64.4261
-59.0328
-45.9822
-44.2212
-50.6031
-38.7766
-39.7103
-38.2313
-40.9761
-38.0856
-55.7352
-55.0778
-62.2215
-36.8429
-51.3407
-50.9988
-50.1658
-51.7392
-36.518
-35.2934
-36.8349
-35.2347
-48.1709
-50.2389
-50.8991
-47.7162
-42.3728
-42.3734
-43.2916
-41.8708
-39.2527
-40.6234
-40.2426
-39.0942
-32.307
-32.3338
-32.5206
-32.1726
-59.541
-57.422
-56.368
-63.4717
-20.3007
-20.6039
-5.73873
-37.3009
-70.3199
-70.2994
-72.924
-68.1211
-35.9022
-35.4824
-37.0523
-35.3411
-48.1373
-50.3752
-50.8931
-47.9981
-39.3855
-40.7724
-40.3788
-39.2332
-59.768
-57.5488
-56.6044
-63.6931
-75.9683
-69.5386
-69.3349
-64.3481
-75.6707
-69.3364
-68.8218
-64.1794
-60.8113
-57.2989
-57.307
-54.1478
-7.96564
-2.70266
-3.79674
3.4483
202.652
201.912
202.595
202.324
-42.2205
-43.4401
-42.6275
-44.0379
-42.4697
-43.6661
-42.8738
-44.1817
-34.9446
-36.1045
-34.6138
-34.9453
-96.2328
-102.54
-92.7216
-96.3887
-44.3667
-43.1766
-44.1015
-42.6136
-44.7572
-43.4719
-44.5045
-42.8364
-38.2135
-37.697
-37.8023
-37.2352
-51.3228
-53.5694
-53.5661
-55.3837
-31.736
-30.3418
-32.3362
-32.2
12.0328
17.1928
-39.2939
47.7843
-112.056
-106.22
-99.0826
-51.2126
-100.048
-77.8949
-105.23
-81.7136
-50.4669
-47.2502
-50.6115
-39.8391
-46.5287
-43.994
-42.8452
-40.0724
-43.6224
-41.0178
-43.7689
-41.4548
-4.46008
-0.395063
-47.1375
44.8393
-28.5889
-23.3819
-29.5223
-14.4633
-57.0443
-56.9678
-68.7774
-42.3064
-42.7769
-43.057
-48.5399
-38.7934
-39.0897
-38.7731
-39.6227
-38.4891
-48.8462
-50.1341
-49.5239
-48.817
-112.599
-106.286
-99.188
-51.1374
9.42902
14.9238
-39.343
45.517
-99.9029
-77.7955
-103.493
-81.6701
-48.0925
-47.6083
-43.4573
-40.9092
-51.4521
-48.2128
-51.7064
-40.7957
-43.1599
-41.0682
-44.0156
-41.5747
-30.4863
-23.7231
-29.4916
-13.4866
-12.6677
-6.34536
-49.6181
40.7812
-57.4673
-57.6978
-69.9952
-41.3829
-39.3219
-38.9437
-39.8085
-38.7588
-43.3371
-43.7755
-49.0848
-39.396
-49.1536
-50.5309
-50.0723
-48.9475
-47.2824
-50.143
-53.2907
-47.9177
-38.8241
-37.6218
-38.7064
-38.0911
-44.0513
-45.8837
-48.9208
-43.4852
-42.6198
-42.3972
-43.9735
-41.78
-31.3025
-35.2154
-30.6219
-33.5274
-35.6524
-34.9896
-36.565
-34.6326
-36.0212
-38.4316
-37.2853
-36.5616
-32.41
-32.2878
-32.5296
-32.0574
-68.5061
-57.0307
-61.6419
-30.8988
-57.7898
-53.3741
-56.0381
-54.6828
-63.9211
-61.4214
-59.2684
-70.5117
-41.1314
-23.0283
-12.0232
-40.4486
-50.7928
-50.1517
-48.503
-52.901
-45.9783
-43.1102
-46.0951
-43.9809
-53.5553
-55.033
-52.381
-58.1101
-61.4201
-67.8791
-66.3436
-64.143
-47.0946
-49.9216
-50.0604
-47.9065
-42.5798
-42.3767
-43.9814
-41.7702
-38.9814
-38.1494
-38.987
-38.3066
-44.0692
-45.9634
-48.954
-43.451
-31.8773
-34.9358
-30.3553
-33.6211
-32.5126
-32.3733
-32.629
-32.239
-35.9016
-35.1919
-36.7491
-34.7314
-36.2288
-38.5669
-37.4767
-36.7493
-68.0187
-57.5528
-61.3674
-32.5708
-40.6032
-23.9029
-12.86
-41.4071
-57.9085
-53.4728
-56.1211
-54.8236
-64.0648
-61.5861
-59.4531
-70.6355
-51.0518
-50.3885
-48.9094
-53.0617
-61.7265
-67.8924
-66.4573
-64.1578
-46.2067
-43.2847
-46.2057
-44.1963
-53.8148
-55.3054
-52.6917
-58.3172
-125.242
-99.4632
-118.654
-116.822
131.177
188.864
166.3
170.415
-80.8568
-69.7045
-74.901
-74.9097
176.632
194.212
191.018
191.134
-67.359
-68.8405
-75.1491
-63.1259
-57.9444
-57.5018
-61.4877
-54.5322
-48.5394
-46.4186
-47.6789
-48.2324
-36.0885
-33.2831
-34.4015
-34.7135
-40.0545
-39.1489
-39.7045
-39.6175
-28.8696
-26.7255
-27.7026
-28.3703
-42.1218
-42.4811
-41.8106
-42.9323
-38.0391
-37.8057
-37.3331
-38.4789
-24.7568
-16.0075
-20.1342
-20.1074
83.3598
151.686
124.119
123.823
-69.1801
-68.8185
-65.1561
-75.4904
-14.4865
-8.68806
-13.2935
-3.57303
-43.1284
-46.7852
-45.0277
-45.0634
-37.4883
-37.3281
-37.74
-37.6205
-46.6516
-44.9483
-46.4299
-44.0134
-52.3436
-53.0525
-54.1841
-51.2092
-124.912
-98.6361
-117.388
-115.47
129.777
188.151
170.064
164.894
-67.6269
-68.9475
-75.1805
-63.527
-58.0675
-57.5387
-61.4755
-54.5967
-49.4374
-46.9401
-48.9338
-48.3882
-36.9763
-34.3195
-35.5852
-35.6477
-42.3543
-42.7582
-42.1328
-43.2736
-38.288
-38.9896
-36.9939
-38.7356
-68.8131
-68.526
-75.516
-64.5319
-14.1825
-9.27508
-5.1117
-13.4657
-46.9692
-45.4169
-44.3141
-47.24
-52.4031
-53.0818
-51.2917
-54.1759
-38.2835
-39.9176
-39.3592
-38.8856
-35.076
-34.9183
-36.0731
-34.5906
-53.7558
-58.6895
-56.544
-56.964
-45.8082
-44.4118
-44.3224
-46.3707
-45.7796
-49.2927
-47.4416
-47.4387
-38.7902
-37.512
-38.0355
-38.0401
-41.2985
-41.9581
-41.1185
-42.4956
-38.2493
-39.1755
-37.8015
-39.3382
-34.4877
-34.0965
-34.1261
-34.1202
-32.6914
-35.0312
-33.5858
-33.6531
-50.9329
-47.0365
-48.2331
-49.4814
-81.3918
-93.4737
-94.3779
-83.7195
13.7354
17.4878
17.1511
17.4187
-72.7832
-102.323
-93.1232
-93.5299
-78.9751
-85.4261
-81.3864
-81.4384
-63.5536
-59.2336
-61.181
-61.2041
-38.5332
-40.1757
-39.5806
-39.1584
-35.0132
-34.8829
-36.1674
-34.573
-53.4817
-57.2948
-55.4927
-54.9898
-45.9772
-44.6186
-44.5119
-46.5396
-41.4564
-42.1702
-42.6878
-41.2933
-38.4088
-39.4427
-37.9721
-39.6194
-51.228
-47.3092
-49.7439
-48.5193
-81.4553
-93.6493
-83.7597
-94.6803
-137.498
-117.474
-121.348
-99.4866
-56.7029
-53.5357
-57.5209
-56.4528
-59.7099
-56.7783
-60.1061
-58.4151
-91.926
-87.6772
-108.933
-99.4596
-138.106
-116.839
-120.78
-98.7191
-91.0051
-89.484
-109.112
-99.4237
-59.0979
-56.4853
-59.2356
-56.8144
-53.6541
-52.6569
-56.3904
-54.4042
-82.3416
-77.0414
-75.3373
-70.6842
-82.3638
-77.0399
-75.367
-70.7448
-47.7749
-46.0583
-49.5354
-47.5408
-47.686
-46.0566
-49.4835
-47.5324
-27.9684
-27.9317
-22.062
-20.5123
4.91881
6.93803
5.69298
13.4062
4.12628
6.65768
7.37988
13.8833
-28.1802
-27.7073
-21.9646
-20.2901
104.834
124.17
160.185
178.876
111.043
105.511
125.531
118.958
101.309
111.162
118.2
123.209
126.787
102.944
178.485
159.012
-40.0024
-41.4481
-40.1573
-41.7609
-37.5053
-37.8116
-38.3676
-39.2367
-45.4092
-47.6262
-44.7652
-46.7397
-52.7443
-53.8646
-49.6851
-50.8715
-40.2282
-41.6837
-40.3565
-41.9661
-52.9117
-54.0769
-49.8657
-51.1171
-45.7475
-47.96
-44.9777
-46.8583
-37.6687
-37.9836
-38.5556
-39.4367
-37.9814
-38.6607
-37.4151
-37.9674
-38.7032
-38.0993
-37.9881
-37.4636
-34.3393
-34.1786
-34.1189
-34.2779
-34.2192
-34.4292
-34.028
-34.1362
-94.6789
-72.3008
-97.5005
-87.6569
-68.3708
-71.2506
-76.1697
-77.6403
-71.3923
-68.4323
-77.689
-76.2391
-72.76
-95.4278
-88.0848
-97.9709
-36.6286
-36.0658
-38.6541
-37.9472
-48.0231
-45.7453
-46.4155
-44.997
-51.6839
-51.1401
-49.3308
-49.1392
-44.6847
-43.2055
-42.9628
-41.6829
-36.6778
-36.4775
-38.7298
-37.8762
-44.9705
-43.4513
-43.3601
-41.9224
-52.73
-51.7322
-49.75
-49.0553
-48.8301
-46.3086
-47.0812
-45.4758
-33.6913
-32.6262
-35.0119
-33.562
-33.6919
-32.9092
-35.2868
-33.7385
-41.3507
-41.0386
-40.2686
-39.8617
-41.1123
-40.9127
-40.0301
-39.7078
-58.474
-61.1118
-57.6964
-60.0285
-44.9194
-47.0342
-45.7834
-47.6683
-45.2468
-46.967
-45.8526
-47.7044
-58.7091
-61.2012
-57.6963
-60.0646
-36.5865
-35.6399
-34.3574
-32.4978
-37.0121
-37.6195
-33.8397
-35.6496
-37.8733
-38.361
-38.1847
-38.4361
-38.0149
-37.507
-38.0024
-37.9431
-65.481
11.7623
-116.85
-75.0874
-108.191
-104.34
-52.9341
-42.5035
-45.3835
-43.7632
-47.1341
-43.8685
-52.29
32.5151
-37.1866
7.95684
-61.2061
-40.9876
-48.6462
-39.1386
-41.7134
-38.7952
-49.4241
-45.5838
-116.968
-76.3004
-66.1416
12.6104
-109.009
-104.301
-46.21
-44.757
-54.8493
-43.383
-47.6004
-44.1145
-38.199
5.31892
-55.9937
28.5291
-61.6218
-42.0574
-41.925
-39.2285
-49.2712
-39.7649
-49.8848
-45.7639
-47.1302
-45.4984
-40.7808
-40.4743
-52.6136
-42.1735
-43.7388
-41.9549
-32.717
-32.0914
-35.6783
-33.846
-35.5534
-34.5287
-32.6556
-32.2653
-64.8487
-84.2248
-61.2294
-60.2564
-61.8786
-75.3317
-73.537
-97.6667
-49.3157
-54.0383
-48.7542
-47.7652
-51.4017
-56.2709
-58.6101
-57.8647
-47.127
-45.4277
-43.6686
-41.9782
-40.9238
-40.5733
-52.7465
-42.3182
-33.0948
-32.1827
-32.7223
-32.3837
-35.8864
-33.9102
-35.6294
-34.7571
-64.9547
-85.165
-74.0694
-97.8459
-61.4043
-60.3068
-61.9791
-75.3615
-49.744
-54.1788
-58.8129
-57.9924
-49.1615
-48.0411
-51.9631
-56.4036
-21.3876
55.4222
-48.1339
60.521
-92.2411
-83.0821
83.4703
104.636
-96.3785
-58.5686
-96.3995
-57.7822
-87.6355
-87.6485
113.618
117.945
-78.5893
-69.0717
-53.8857
-52.7977
-72.1909
-60.9689
-62.5717
-55.2858
-50.3061
-38.4182
-49.6321
-37.9238
-49.1161
-49.9423
-36.5992
-36.6429
-41.2838
-36.4747
-42.0713
-37.3906
-40.7429
-40.5422
-31.9477
-32.385
-41.7837
-39.6625
-39.2185
-36.8106
-41.7337
-41.9981
-37.4578
-38.802
-28.0013
-9.24668
-28.1057
-9.01682
-27.2127
-27.325
15.8886
14.3372
-62.6491
-38.5936
-60.284
-34.5261
-64.6204
-71.972
-24.087
-20.8406
-39.2034
-38.6087
-39.2615
-38.9382
-40.0715
-40.1262
-38.4599
-38.4094
-50.2714
-50.7393
-48.6477
-51.3355
-49.1417
-47.5306
-52.4023
-50.9596
-24.8878
54.1507
-51.5429
57.5038
-97.4942
-87.8587
103.581
81.8768
-78.917
-69.0418
-55.7283
-52.7742
-72.4275
-61.7325
-62.3453
-55.3041
-51.2668
-39.2924
-50.3822
-38.6744
-50.9908
-50.0438
-37.3379
-37.3923
-42.0872
-39.8736
-39.784
-37.0887
-41.9935
-42.3576
-37.5931
-39.0486
-63.1112
-39.3034
-59.9441
-36.7013
-71.3611
-64.341
-19.2932
-23.7914
-50.5808
-51.0725
-48.6795
-51.47
-47.7718
-49.4145
-51.4159
-52.1878
-37.8208
-37.3341
-36.6828
-34.7901
-38.3075
-37.6545
-36.1533
-34.7839
-49.8529
-45.7041
-52.5458
-50.4618
-52.7578
-52.8137
-45.8872
-48.089
-43.3723
-41.9456
-43.369
-41.9525
-44.4575
-44.4574
-40.4052
-40.4104
-39.7001
-38.5219
-42.3637
-41.1657
-40.365
-41.6521
-38.1326
-39.5252
-32.4504
-32.1388
-32.4867
-32.2082
-33.6263
-33.6115
-31.7968
-31.8384
-57.399
-66.6486
-54.0685
-60.483
-52.5815
-53.8131
-72.8518
-68.1352
-6.31399
-35.9724
-6.69688
-36.7776
6.09716
6.07087
-54.8608
-55.0076
-71.7154
-67.0599
-71.7438
-67.0932
-75.1598
-75.1625
-65.6439
-65.6854
-37.4747
-36.9303
-37.0117
-34.9044
-38.4632
-37.9301
-35.6066
-34.8415
-49.8654
-45.9315
-52.6691
-50.6084
-52.7247
-52.5196
-46.0067
-48.2388
-39.8048
-38.6283
-42.5154
-41.353
-41.8059
-40.5023
-38.2499
-39.6968
-57.6447
-66.8555
-54.2575
-60.6816
-54.0734
-52.7612
-68.3245
-73.0282
-85.0418
-84.3385
-76.0127
-64.1001
-64.7484
-75.1231
-60.0628
-60.3991
-84.6662
-84.0472
-75.9136
-64.2301
-75.0771
-64.1215
-60.4382
-60.4262
-64.9658
-64.973
-60.9597
-54.2378
-60.9717
-54.2558
-51.5986
-51.5913
-12.2679
-12.3437
-9.44233
1.20733
1.03176
-9.85101
9.63304
10.4198
196.13
198.46