# vtk DataFile Version 2.0
tri_press
ASCII
DATASET UNSTRUCTURED_GRID
POINTS 3682 float
-0.763052 0.245 -1.995
-0.703935 0.325 2.055
-0.749676 0.705 -1.975
-0.595 1.025 2.0439
0.764687 0.245 -1.995
0.703846 0.325 2.055
0.748876 0.705 -1.975
0.595 1.02591 2.045
-0.80072 0.214293 -0.645
-0.799008 0.222966 0.705
-0.803 0.91655 -0.635367
-0.753297 1.02507 0.704267
0.801687 0.214386 -0.645
0.799544 0.222915 0.705
0.802227 0.916613 -0.635
0.752469 1.02512 0.705
-1.54389 -0.156852 -3.07528
-1.54842 -0.0954933 -1.99933
-1.5663 -0.114879 -0.649099
-1.53973 -0.126729 0.703156
-1.46451 -0.0624904 2.05356
-1.44864 -0.0069409 3.13033
-1.46057 0.0425726 4.20556
-1.5446 0.142833 -3.06892
-1.54952 0.230621 -1.99409
-1.57507 0.238393 -0.645869
-1.53077 0.240747 0.703237
-1.41838 0.302964 2.05166
-1.4199 0.35719 3.12833
-1.44704 0.405935 4.20391
-1.54022 0.693179 -3.05339
-1.54187 0.777582 -1.97817
-1.57132 0.930335 -0.637002
-1.49542 1.0112 0.703383
-1.34948 1.03144 2.04477
-1.38415 1.08153 3.12204
-1.4352 1.13334 4.19938
-1.53693 1.66365 -3.03778
-1.53895 1.76933 -1.9641
-1.54454 1.94551 -0.626167
-1.52417 2.08639 0.709541
-1.48456 2.15588 2.04762
-1.47265 2.19458 3.12161
-1.48195 2.23632 4.19778
-0.769731 -0.149647 -3.07586
-0.764558 -0.0840417 -2.00021
-0.786037 -0.126094 -0.648862
-0.789223 -0.139968 0.704594
-0.743877 -0.0542759 2.05599
-0.735333 -0.00147232 3.13207
-0.744935 0.0442803 4.20666
-0.772685 0.14149 -3.06905
-0.720921 0.363884 3.12986
-0.739318 0.407828 4.20482
-0.769191 0.662818 -3.05205
-0.692543 1.08108 3.12215
-0.734472 1.13337 4.19962
-0.764536 1.6418 -3.03642
-0.76455 1.74817 -1.96258
-0.777993 1.93944 -0.625148
-0.78213 2.09179 0.709687
-0.767182 2.15961 2.04719
-0.760809 2.19585 3.12118
-0.767633 2.23685 4.19753
0.772776 -0.149618 -3.07578
0.784106 -0.0840125 -2.00017
0.800157 -0.126026 -0.648812
0.779212 -0.139965 0.704658
0.712579 -0.0542288 2.05608
0.689986 -0.00129916 3.13233
0.683976 0.0445067 4.20702
0.761716 0.141509 -3.06899
0.668016 0.364129 3.13019
0.670103 0.4081 4.20523
0.756378 0.662837 -3.05197
0.629894 1.08159 3.12284
0.651157 1.13373 4.20016
0.776255 1.64185 -3.03621
0.77979 1.74824 -1.96234
0.762358 1.93953 -0.624777
0.711744 2.09196 0.710211
0.6627 2.15992 2.04781
0.652629 2.1962 3.12179
0.654437 2.23716 4.19808
1.54852 -0.156778 -3.07507
1.56128 -0.0954117 -1.99915
1.57991 -0.114752 -0.648853
1.54741 -0.126606 0.703498
1.46059 -0.0622351 2.054
1.42182 -0.00655289 3.13095
1.41168 0.0430212 4.20629
1.53825 0.142892 -3.06873
1.54994 0.230682 -1.99391
1.58047 0.238525 -0.645573
1.54586 0.240898 0.703701
1.43338 0.303369 2.05226
1.39368 0.357704 3.12908
1.39253 0.406462 4.20473
1.53158 0.693238 -3.05315
1.53994 0.777639 -1.9779
1.57265 0.930462 -0.63639
1.50422 1.01148 0.704444
1.35756 1.03239 2.04616
1.34642 1.08236 3.12324
1.36625 1.13401 4.20042
1.54586 1.66377 -3.03735
1.54875 1.76946 -1.96359
1.53018 1.9457 -0.625441
1.46845 2.08673 0.710531
1.39972 2.15645 2.04878
1.37787 2.19521 3.12275
1.3774 2.23692 4.19884
-0.792628 0.475 -2.02126
0.000817508 0.217323 -2.02268
-0.780903 0.23063 -1.32
-0.698023 0.675 2.09801
-4.45247e-05 0.310234 2.06977
-0.757048 0.268406 1.38
-0.000400007 0.798772 -2.06877
-0.814492 0.848929 -1.30518
0 1.04747 2.06646
-0.720192 1.07108 1.37408
0.793644 0.475 -2.02186
0.782125 0.230755 -1.32
0.696869 0.675455 2.09745
0.757188 0.268464 1.38
0.81417 0.849425 -1.305
0.719865 1.07164 1.375
-0.80341 0.215083 0.03
-0.882244 0.565421 -0.640183
0.000483602 0.182102 -0.645
-0.893159 0.624019 0.704633
0.00026792 0.198514 0.705
-0.776655 0.969317 0.03445
-0.000386879 1.17294 -0.635183
-0.000414055 1.42675 0.704633
0.804076 0.215191 0.03
0.881252 0.565499 -0.64
0.892374 0.624016 0.705
0.775833 0.96935 0.035
-0.872963 0.520211 -1.31259
0.872851 0.52025 -1.3125
0.000650555 0.187598 -1.32
-0.000393443 0.975244 -1.30509
0.00020875 0.475 -2.24872
-0.889701 0.59472 0.032225
0.888937 0.594758 0.0325
0.000375761 0.189938 0.03
-0.000400467 1.41962 0.034725
-0.895934 0.649509 1.37704
0.895929 0.649736 1.3775
0.000111698 0.230621 1.38
-0.000207027 1.26596 1.37454
-2.22623e-05 0.675227 2.17511
-0.783926 0.36 -2.01422
-0.381117 0.217999 -2.022
-0.771934 0.237858 -1.6575
-0.72283 0.5 2.09835
-0.35199 0.311177 2.06882
-0.731538 0.295656 1.7175
-0.777459 0.59 -2.00444
-0.375038 0.780803 -2.0508
-0.805749 0.800629 -1.64009
-0.644546 0.85 2.06899
-0.2975 1.04362 2.06257
-0.666549 1.05699 1.70899
0.382752 0.217946 -2.02205
0.785304 0.36 -2.01457
0.773412 0.237871 -1.6575
0.351901 0.311195 2.06881
0.722514 0.500227 2.09838
0.734708 0.292541 1.7175
0.374238 0.780794 -2.05079
0.778744 0.59 -2.00592
0.805352 0.801042 -1.64
0.2975 1.04366 2.06271
0.643679 0.850683 2.06897
0.666015 1.05736 1.71
-0.799868 0.213405 -0.9825
-0.802022 0.214731 -0.3075
-0.866786 0.377205 -0.642592
-0.407245 0.183944 -0.645
-0.766683 0.257031 1.0425
-0.79991 0.220324 0.3675
-0.876666 0.408201 0.704817
-0.405201 0.199078 0.705
-0.811859 0.885852 -0.970275
-0.873272 0.75631 -0.637775
-0.79191 0.945016 -0.300458
-0.444596 1.13055 -0.635275
-0.736694 1.04803 1.03918
-0.85696 0.841411 0.70445
-0.76566 0.997878 0.369358
-0.465538 1.40328 0.70445
0.800957 0.213519 -0.9825
0.408236 0.183942 -0.645
0.802895 0.214775 -0.3075
0.865948 0.377704 -0.6425
0.767029 0.257027 1.0425
0.405726 0.199075 0.705
0.79906 0.221803 0.3675
0.875878 0.408507 0.705
0.811374 0.886195 -0.97
0.44547 1.13388 -0.635092
0.872461 0.756417 -0.6375
0.79086 0.944811 -0.3
0.735842 1.04806 1.04
0.46473 1.40334 0.704817
0.856153 0.841432 0.705
0.76496 0.998043 0.37
-0.865587 0.497605 -1.66693
-0.396209 0.475 -2.20316
0.000734031 0.197797 -1.67134
0.000513129 0.346162 -2.13054
-0.863286 0.37542 -1.3163
-0.390126 0.187587 -1.32
-0.842635 0.662255 1.73752
-0.349023 0.675114 2.15265
3.35866e-05 0.259913 1.72488
-3.33935e-05 0.492731 2.25214
-0.883614 0.458958 1.37852
-0.378468 0.23065 1.38
-0.000396725 0.920586 -1.68693
-9.56282e-05 0.636886 -2.22237
-0.876656 0.68457 -1.30889
-0.407443 0.966698 -1.30514
-0.000103514 1.10661 1.7205
-1.11312e-05 0.861347 2.11352
-0.828617 0.860294 1.37556
-0.360199 1.23906 1.37431
0.863305 0.497625 -1.66718
0.396926 0.475 -2.20356
0.860116 0.375502 -1.31625
0.391388 0.187583 -1.32
0.842072 0.662595 1.73747
0.348423 0.675341 2.15296
0.88391 0.4591 1.37875
0.37865 0.23065 1.38
0.877161 0.684837 -1.30875
0.406888 0.966721 -1.30505
0.828347 0.86069 1.37625
0.359829 1.24204 1.37477
-0.879736 0.388312 0.0311125
-0.407554 0.190436 0.03
-0.878629 0.542816 -0.976388
-0.886256 0.580071 -0.303979
0.000567078 0.18201 -0.9825
0.000429681 0.188848 -0.3075
-0.894062 0.609369 0.368429
-0.895366 0.636764 1.04084
0.000321841 0.19047 0.3675
0.000189809 0.210268 1.0425
-0.866394 0.798626 0.0333375
-0.488111 1.39364 0.0345875
-0.000390161 0.975933 -0.970138
-0.000393673 1.35933 -0.300229
-0.000407261 1.43609 0.369679
-0.000310541 1.38338 1.03959
0.878857 0.388799 0.03125
0.408292 0.190433 0.03
0.878624 0.542875 -0.97625
0.885508 0.580129 -0.30375
0.893292 0.609387 0.36875
0.895363 0.636876 1.04125
0.864934 0.798328 0.03375
0.487352 1.39376 0.0348625
-0.852987 0.36771 -1.66221
-0.867583 0.382639 -0.979444
-0.875041 0.712778 -0.973331
-0.871367 0.637285 -1.65351
0.854347 0.367751 -1.66234
0.871301 0.637419 -1.65359
0.875006 0.712947 -0.973125
0.867583 0.382723 -0.979375
-0.385622 0.197632 -1.66442
0.38707 0.197629 -1.66442
0.396237 0.182008 -0.9825
-0.395122 0.182012 -0.9825
-0.39124 0.91303 -1.66351
-0.404568 0.945166 -0.970206
0.403904 0.945532 -0.970069
0.390563 0.912982 -1.66347
-0.388663 0.353081 -2.17906
-0.385624 0.613443 -2.17806
0.385582 0.613443 -2.18
0.389839 0.353081 -2.17901
-0.874727 0.382025 -0.30574
-0.882851 0.395931 0.367965
-0.869903 0.824132 0.368894
-0.873722 0.779413 -0.302219
0.873838 0.382534 -0.305625
0.872936 0.779492 -0.301875
0.869187 0.824202 0.369375
0.882008 0.396333 0.368125
-0.406539 0.188911 -0.3075
0.407404 0.188907 -0.3075
0.408413 0.191946 0.3675
-0.407782 0.191949 0.3675
-0.490171 1.30973 -0.300344
-0.483164 1.41114 0.369519
0.482377 1.41122 0.36984
0.491777 1.31455 -0.300115
-0.885798 0.441225 1.04167
-0.854543 0.479479 1.72751
-0.80045 0.855147 1.72326
-0.850176 0.84242 1.04001
0.885796 0.441283 1.04188
0.849345 0.842628 1.04063
0.800169 0.855686 1.72374
0.85426 0.479664 1.72749
-0.388919 0.210299 1.0425
0.389278 0.210299 1.0425
0.365275 0.259481 1.72119
-0.365229 0.259481 1.72119
-0.368527 1.36563 1.03938
-0.32885 1.08706 1.71475
0.328664 1.09003 1.71525
0.367928 1.3656 1.03979
-0.350506 0.496365 2.23017
0.350162 0.496479 2.2302
0.322962 0.856015 2.14337
-0.323261 0.855673 2.14439
-0.778013 0.3025 -2.00913
-0.572085 0.228789 -2.01121
-0.769676 0.239246 -1.82625
-0.721008 0.4125 2.0843
-0.527962 0.316983 2.06302
-0.728805 0.29926 1.88625
-0.759475 0.6475 -1.98563
-0.562357 0.748833 -2.01883
-0.790155 0.765257 -1.80755
-0.625886 0.9375 2.06256
-0.44625 1.03887 2.05779
-0.631421 1.04164 1.87645
0.57372 0.228728 -2.01127
0.779472 0.3025 -2.00926
0.771214 0.239271 -1.82625
0.527873 0.317554 2.06245
0.720861 0.412614 2.08437
0.728707 0.299341 1.88625
0.561557 0.748985 -2.01898
0.758835 0.6475 -1.98548
0.789746 0.765653 -1.8075
0.44625 1.03893 2.058
0.624577 0.938296 2.06222
0.630583 1.04171 1.8775
-0.800496 0.213647 -0.81375
-0.801366 0.214517 -0.47625
-0.857932 0.28366 -0.643796
-0.608 0.191084 -0.645
-0.772294 0.25055 0.87375
-0.79818 0.222924 0.53625
-0.865136 0.301934 0.704909
-0.606612 0.202007 0.705
-0.807638 0.901409 -0.802821
-0.851434 0.843079 -0.636571
-0.797322 0.930649 -0.467913
-0.656802 1.08956 -0.635321
-0.746702 1.03825 0.871721
-0.815404 0.938379 0.704358
-0.759919 1.01192 0.536813
-0.638488 1.27232 0.704358
0.801532 0.213743 -0.81375
0.609155 0.190778 -0.645
0.802286 0.214585 -0.47625
0.857988 0.28396 -0.64375
0.771897 0.251361 0.87375
0.607303 0.201659 0.705
0.798741 0.222921 0.53625
0.865142 0.301996 0.705
0.806817 0.90142 -0.8025
0.656374 1.0903 -0.635046
0.850614 0.84315 -0.63625
0.796552 0.930721 -0.4675
0.746077 1.03851 0.8725
0.637647 1.27232 0.704909
0.814593 0.938416 0.705
[...]
POINT_DATA 3682
SCALARS point_scalars float 1
LOOKUP_TABLE default
-151.974
-45.4431
-40.3402
-35.5558
-145.428
-45.3611
-41.0478
-35.5499
-40.6789
-44.0215
-55.9475
-49.9952
-40.6301
-44.147
-55.9619
-49.8973
-75.6485
-119.244
-39.394
-48.5221
-47.4532
-41.6044
-38.5091
2.79546
-114.882
-39.2614
-41.9936
-46.3783
-40.6349
-37.591
-45.2364
-100.309
-47.187
-45.4823
-41.8421
-37.2206
-36.7863
-34.7448
-62.525
-94.4316
-60.1406
-37.2096
-34.7646
-34.8315
-12.5303
-147.006
-40.904
-44.2847
-45.3783
-37.8853
-37.4354
-12.5303
-37.1558
-36.7069
151.64
-33.6488
-35.6992
72.4
-47.2521
-72.2878
-61.5494
-34.7968
-33.5245
-33.5245
-13.2855
-153.649
-40.8205
-44.3012
-45.1353
-38.8687
-37.3854
-13.2855
-37.0073
-36.6472
151.648
-33.4916
-35.751
76.7371
-47.1939
-65.0645
-61.6812
-34.2491
-33.4916
-32.379
-83.2931
-114.991
-39.3312
-48.0406
-47.3651
-41.5079
-38.1835
1.78291
-110.835
-39.2123
-42.7105
-46.3559
-40.5916
-37.5704
-41.5447
-106.549
-47.1601
-45.4136
-41.9934
-37.1914
-35.9644
-31.8664
-62.8016
-95.54
-60.3078
-37.2121
-34.7712
-34.5582
-57.4229
-125.37
-48.5268
-37.6221
-41.0883
-43.2465
-18.363
-49.1472
-32.9479
-45.1151
-59.9346
-48.3564
-37.56
-43.1822
-49.2035
-45.2529
-38.9251
-41.0465
-44.1292
-42.3805
-42.8529
-56.4468
24.4579
-65.9899
-38.9143
-40.9563
-42.2555
-56.4028
-50.1638
-50.0835
-57.0731
-16.4133
202.575
-42.4262
-42.3928
-40.0209
-92.0828
-46.9519
-47.0414
-44.9991
-38.7137
-30.2729
-59.1586
-120.363
-70.2568
-40.3844
-42.2891
-45.7932
-34.0882
-12.3809
-61.974
-36.7238
-32.7435
-37.6691
-120.369
-62.0186
-70.2921
-42.0324
-40.3357
-45.828
-12.3303
-33.4802
-62.151
-32.794
-36.6816
-37.6735
-47.3876
-38.659
-39.3546
-43.1536
-42.0703
-40.6224
-40.3224
-42.7815
-38.8315
-45.5897
-58.9361
12.1882
-47.518
-45.9866
-54.2399
-63.3477
-47.2529
-43.1453
-38.6074
-39.2977
-42.203
-42.7673
-40.4932
-40.2018
-39.0727
12.2479
-45.5688
-58.7207
-47.4748
-63.3726
-45.9342
-54.1614
-76.9111
177.682
-74.9859
124.421
-49.4705
-54.6227
-46.6566
-34.3461
-45.2067
-35.3447
-45.6611
-44.7977
-36.9584
186.442
-51.1124
-22.6819
-33.1451
-30.2686
-45.989
-39.6185
-76.6718
177.859
-49.3694
-54.5913
-46.6716
-34.3213
-45.7481
-44.7869
-51.0956
-22.5572
-46.0937
-39.6667
-39.9576
-39.5611
-43.3418
-42.2494
-49.3859
-40.4716
-43.1449
-43.0055
-41.6491
-44.9686
-47.2956
-85.8684
9.24382
-73.7416
-79.4261
-51.2038
-40.0271
-39.548
-43.5384
-42.2141
-43.1147
-42.9726
-47.1944
-85.4801
-74.3537
-43.8419
-42.9263
-78.9773
-74.489
-78.7691
-43.1799
-44.0395
-72.7241
-72.6648
-48.1127
-48.1035
-40.2906
-0.758817
-0.602104
-40.3933
132.591
153.801
153.497
131.955
-39.4762
-40.9976
-48.2296
-48.294
-39.5609
-48.2132
-48.16
-40.9357
-39.7645
-39.7446
-41.219
-41.2218
-56.6086
-71.8888
-71.8246
-58.7251
-43.337
-48.1029
-43.3285
-45.5897
-43.2288
-45.3224
-43.3492
-48.2327
-44.5854
-44.5453
-45.6306
-45.6052
-51.9325
-34.3379
-34.3008
-51.9686
-36.5722
-36.5523
-32.9889
-33.0401
-88.098
-133.269
-96.2821
-42.1847
-43.5888
-44.6535
-29.4184
-21.8227
-67.27
-36.9623
-33.0799
-35.9056
-133.63
-101.278
-96.3013
-43.6777
-42.1229
-45.1367
-22.3902
-30.2668
-65.8024
-33.1032
-36.9528
-35.8814
-42.1616
-39.3322
-39.3498
-41.8481
-46.5761
-40.1994
-38.9019
-43.2571
-45.3881
-49.3566
-59.7952
-24.8198
-49.0899
-48.6962
-52.1373
-56.4073
-42.1719
-41.8385
-39.2891
-39.2948
-46.0144
-43.2767
-40.2609
-38.9793
-45.7683
-27.171
-49.3682
-59.7345
-49.0208
-56.329
-48.6658
-52.043
-56.8511
-48.4537
-110.272
137.473
-122.913
-122.937
-93.7505
37.9585
-55.618
-40.7474
-49.0123
-51.7238
-39.1578
-36.6775
-43.4876
-35.1566
-41.4031
-41.3888
-43.2979
-37.0654
-46.2045
-41.7777
-44.8174
-43.9046
-22.3489
-21.3253
-41.0092
63.7987
-55.3808
-41.1468
-51.4579
-30.8018
-32.8888
-32.8665
-32.784
-26.197
-41.2292
-45.3927
-44.9637
-41.3315
-60.3459
-49.0239
-110.227
137.114
-55.5433
-40.8732
-48.6964
-51.6168
-39.1021
-36.6462
-43.4605
-35.1351
-45.697
-41.7461
-44.9191
-43.8694
-55.3159
-41.2134
-51.4924
-30.7535
-41.2346
-45.3932
-45.0871
-41.4807
-38.5072
-39.496
-39.1992
-39.1815
-40.0563
-42.7
-41.0439
-41.7823
-43.9114
-43.9145
-46.2649
-42.2437
-41.2725
-44.0609
-42.8473
-41.9837
-42.78
-42.7711
-42.5558
-44.3704
-58.3513
-54.4541
-51.698
-69.1145
22.0325
21.9592
23.5949
-3.10471
-65.2366
-65.2345
-72.5481
-58.9269
-38.4733
-39.5177
-39.1746
-39.1635
-39.9975
-42.6345
-41.1271
-41.6931
-41.1316
-43.9685
-42.6982
-41.7678
-58.2493
-54.2494
-51.6635
-68.7321
-59.6321
-49.971
-50.3663
-44.9751
-59.5112
-49.8646
-50.3732
-44.9123
-63.9212
-56.4407
-56.4299
-53.3241
-29.0037
-18.273
-17.9689
-3.56314
198.35
163.929
198.687
198.493
-40.9986
-42.4326
-42.8316
-44.465
-40.9773
-42.3882
-42.7578
-44.4306
-39.8853
-39.9632
-40.5868
-39.8794
-91.17
-95.2258
-86.6403
-90.9481
-48.8125
-46.6279
-47.3947
-44.235
-48.9381
-46.6295
-47.6731
-44.3119
-45.3834
-44.9635
-44.9594
-44.8617
-35.3869
-38.8212
-38.8611
-43.9564
-31.7032
-34.105
-30.2659
-31.6517
-109.666
116.573
-92.5118
44.2901
-72.4908
-72.255
-45.0415
-36.7378
-43.8902
-37.788
-47.9388
-45.9327
-104.712
100.629
-41.1638
81.5085
-77.5964
-44.8159
-42.07
-35.2464
-33.2017
-32.141
-40.9752
-35.2962
-92.477
54.5792
-108.737
116.067
-72.8737
-72.2163
-43.9029
-37.7209
-45.0299
-36.7257
-48.1693
-46.1326
-40.983
84.2479
-105.395
99.7353
-77.7088
-44.6647
-33.1733
-32.0947
-42.1142
-35.2178
-40.9863
-35.2737
-44.4523
-47.5704
-38.8799
-39.1138
-40.3239
-39.3928
-45.2229
-41.3412
-43.0458
-43.1648
-39.9443
-40.9285
-40.9925
-41.4569
-42.2947
-44.2037
-42.4168
-12.551
-43.2842
-47.4306
-53.0092
-88.3813
10.047
-11.0188
-48.0082
-53.7019
-47.225
-44.3052
-51.5426
-62.4612
-66.691
-58.6274
-44.6547
-47.647
-45.2217
-41.3278
-38.826
-39.071
-40.4468
-39.3678
-42.8825
-43.0086
-42.288
-44.1651
-39.842
-40.9494
-40.7213
-41.3702
-42.7223
-12.302
11.5716
-13.7279
-43.2833
-47.3746
-52.8608
-88.1474
-47.8643
-53.7654
-66.692
-58.6097
-47.1642
-44.344
-51.4624
-62.2754
-75.5181
-77.1964
155.616
173.95
-74.2074
-74.1933
130.281
129.875
-58.2815
-44.441
-61.4388
-51.6109
-47.9994
-45.2382
-36.3917
-34.0652
-45.3364
-45.3321
-35.8382
-35.8167
-43.5233
-49.0431
-44.4892
-45.5356
-37.3031
-37.2519
185.729
184.651
-45.3928
-61.662
-31.9704
-11.097
-33.5053
-33.4697
-31.1343
-31.1651
-44.6802
-45.8956
-44.659
-36.2436
-75.6164
-77.0298
174.287
155.893
-58.317
-44.1445
-61.3857
-51.6105
-45.2492
-48.0852
-36.3715
-34.0111
-43.5451
-49.1156
-44.4655
-45.5471
-61.4567
-45.51
-10.845
-31.8684
-45.9662
-44.6842
-36.2685
-44.8772
-39.889
-40.4032
-39.4402
-40.1865
-43.5453
-42.7956
-40.6886
-44.5657
-49.0411
-49.0417
-40.2726
-40.2643
-41.8245
-45.2335
-43.2632
-43.3339
-41.5649
-41.5705
-44.9033
-44.8878
-48.6353
-48.7091
-96.5215
-79.1761
6.28986
6.61676
-68.9288
-68.9336
-78.1003
-78.0445
-51.3526
-51.3809
-39.8744
-40.3376
-39.421
-40.18
-43.0182
-43.7143
-40.5549
-44.5211
-45.1947
-41.7945
-43.2444
-43.1819
-48.577
-48.5803
-78.8011
-94.0648
-105.902
-57.3428
-59.0247
-111.037
-40.3137
-40.7069
-45.3144
-42.2584
-44.7787
-44.4852
-44.7219
-41.7034
-89.2002
-107.631
-60.1533
-63.2453
-105.106
-110.628
-58.9283
-57.4582
-91.4676
-63.2098
-59.9727
-107.905
-44.9314
-41.7673
-44.7073
-44.586
-40.3453
-42.2989
-45.2129
-40.8149
-95.4609
-93.1274
-63.2266
-59.2337
-95.3102
-59.1284
-63.2101
-93.1479
-43.914
-46.0254
-52.904
-48.4899
-43.926
-48.4447
-52.9067
-46.0318
-49.0776
-37.4841
-29.9055
-40.1283
-11.6054
20.0946
-5.6039
-21.2033
-12.1144
-21.1138
-5.3842
20.5868
-49.2277
-39.8862
-29.8299
-37.3972
59.489
112.612
171.773
58.9062
74.2509
123.24
184.751
131.589
74.2028
131.304
185.131
128.081
61.635
59.0006
172.087
111.857
-38.8075
-39.0189
-40.8744
-40.2641
-39.8635
-41.6134
-41.4168
-39.8108
-50.3127
-52.4059
-45.0363
-44.72
-51.9915
-43.9194
-44.7363
-53.2623
-38.7865
-40.3341
-40.8186
-38.9588
-51.9137
-53.2413
-44.6461
-43.865
-50.304
-44.6233
-44.929
-52.28
-39.8424
-39.7988
-41.3493
-41.4591
-40.1993
-42.0256
-39.8086
-38.9146
-40.1866
-38.8691
-39.8025
-42.0193
-41.4045
-42.4841
-40.4693
-39.885
-41.4134
-39.9012
-40.4732
-42.4905
-75.4434
-77.3763
-94.4134
-2.32375
-57.8913
-71.5208
-85.563
-63.5681
-57.7741
-63.1392
-85.4402
-71.5002
-77.0601
-3.71439
-94.0133
-76.8186
-45.2455
-42.7636
-44.0285
-41.1189
-46.9377
-44.2385
-49.0017
-48.4738
-39.691
-42.7517
-46.9179
-43.1411
-47.6613
-43.681
-45.1122
-45.3987
-44.8736
-40.9256
-44.0707
-42.7816
-47.534
-45.4591
-45.1778
-43.5681
-39.7051
-43.1402
-46.971
-42.804
-46.8916
-48.4663
-49.1728
-44.2232
-44.4868
-44.3446
-44.7898
-43.6398
-44.4391
-43.6038
-44.7793
-44.33
-44.0953
-43.4545
-45.4362
-45.6368
-44.1086
-45.6865
-45.4337
-43.4597
-52.397
-46.7379
-43.9201
-58.9722
-33.9056
-32.878
-35.6344
-37.4506
-33.8839
-37.4868
-35.6281
-32.8554
-52.2295
-58.9808
-43.9671
-46.8529
-38.5109
-37.2765
-34.9246
-36.7167
-38.4121
-36.7108
-34.8882
-37.2606
-34.8913
-27.9805
-31.3631
-35.511
-34.9131
-35.5357
-31.41
-28.0359
-114.087
-157.339
-129.513
-44.228
-44.8053
-45.7419
-31.4006
-29.6982
-65.8422
-36.8428
-33.6365
-35.4656
-157.72
-121.066
-127.402
-44.7476
-44.1507
-45.5373
-30.3769
-32.058
-67.7776
-33.5007
-36.8408
-35.4397
-41.8876
-39.6684
-40.1038
-41.0498
-50.1981
-41.0901
-37.0367
-43.7631
-51.9521
-51.6145
-59.1118
-60.5507
-49.2914
-49.3936
-51.0932
-52.8408
-41.8599
-41.035
-39.6485
-40.0268
-49.9949
-43.811
-41.215
-37.9392
-52.2218
-61.0733
-51.593
-58.9595
-49.2133
-52.7306
-49.2731
-50.9658
-56.9468
-53.755
-115.195
86.5138
-125.386
-125.381
-108.33
-81.5411
-51.9072
-45.5737
-48.7102
-49.4141
-38.5739
-36.9091
-41.4532
-35.7705
-41.276
-41.2686
-42.1999
-38.5371
-44.3254
-42.6115
-44.7103
-43.049
-20.8664
-20.9511
-29.9875
-6.81962
-53.1808
-44.3273
-51.6614
-38.5877
-32.9329
-32.9208
-32.8804
-28.4321
-42.9033
-45.1704
-44.8714
-44.0908
-59.8749
-55.3869
-116.337
86.6161
-51.7988
-45.7299
-48.3821
-49.4121
-38.5045
-36.8753
-41.4311
-35.7436
-44.155
-42.5943
-44.7498
-43.0367
-53.2366
-44.3707
-51.7016
-38.6381
-42.9921
-45.2778
-45.0058
-44.2372
-38.5233
-39.0339
-39.1406
-38.9878
-40.4399
-41.7607
-40.809
-41.3915
-44.0601
-44.0585
-45.0804
-43.4824
-41.7878
-43.1242
-42.5233
-42.2991
-42.8267
-42.8222
-42.2949
-43.5356
-57.9965
-55.2646
-54.5203
-61.6272
23.4911
23.5095
27.3484
13.8845
-65.8768
-65.8697
-69.2711
-62.3244
-38.5069
-39.011
-39.1091
-38.9645
-40.3649
-41.6809
-40.7902
-41.2979
-41.6494
-43.016
-42.39
-42.1277
-57.8822
-55.4883
-54.5025
-61.4228
-54.1673
-50.0245
-50.2968
-47.0298
-54.0268
-49.9125
-50.2574
-46.9495
-60.2597
-56.8172
-56.8161
-55.0954
-23.0314
-16.9406
-16.8572
-9.89048
203.708
194.477
206.881
203.865
-41.622
-42.4581
-42.2493
-43.3457
-41.5987
-42.4175
-42.2107
-43.3025
-39.9725
-39.9267
-40.2403
-39.9702
-91.9071
-94.8182
-90.0638
-91.7973
-48.4924
-46.8593
-47.1324
-45.2502
-48.6274
-46.8876
-47.2785
-45.3651
-45.1162
-44.9782
-44.9758
-44.8808
-36.8249
-38.6747
-38.7112
-40.9801
-30.6249
-32.0802
-30.4701
-30.595
-72.2808
-56.5423
-124.366
78.4218
-129.342
-120.695
-105.429
-44.04
-81.0694
-61.721
-71.4946
-71.7475
-41.2661
-39.6842
-43.8995
-37.3185
-43.1355
-41.6124
-42.9529
-39.1073
-43.0489
-47.9267
-47.4368
-46.0788
-30.8063
-43.626
-94.6316
61.7611
-14.7959
-20.8518
-35.3517
-6.83299
-64.4548
-59.2621
-70.762
-49.9469
-36.7063
-36.7808
-41.3607
-35.7292
-32.7829
-32.7886
-32.956
-31.6068
-36.706
-39.1457
-39.595
-36.0538
-129.781
-120.812
-105.548
-48.7188
-77.6259
-60.0363
-124.081
78.2616
-81.1473
-61.708
-71.6059
-71.7298
-43.0268
-41.5817
-42.9261
-39.1961
-41.214
-39.6374
-43.8473
-37.2878
-44.1317
-47.9257
-47.6982
-46.5178
-15.4239
-18.0187
-34.8502
-8.85926
-30.5441
-43.8613
-96.6246
61.4262
-64.5009
-59.3779
-71.0436
-49.8293
-32.7471
-32.7505
-32.9169
-31.5664
-36.6687
-36.7419
-41.3896
-35.6966
-36.6938
-39.1544
-39.6103
-36.0399
-42.9412
-44.6426
-44.7267
-47.9519
-38.8909
-38.6041
-39.5137
-38.8859
-39.2758
-39.6588
-39.5318
-39.2985
-42.5712
-43.5262
-44.1835
-42.4846
-42.2373
-41.5313
-43.4372
-42.625
-40.0172
-40.6908
-38.6633
-41.0616
-40.0033
-40.8151
-40.7596
-39.9637
-43.014
-42.7395
-42.1871
-43.3743
-40.3031
-39.3604
-41.5928
-25.8827
-47.3022
-43.944
-44.2616
-46.733
-59.2968
-58.8046
-56.188
-68.0761
3.33089
18.961
14.5301
2.8491
-48.4683
-46.5305
-47.2483
-49.7709
-47.0309
-45.1609
-46.7186
-45.3107
-52.9144
-54.8537
-53.3582
-58.1965
-60.9004
-64.7113
-65.6316
-61.7372
-42.9957
-44.5059
-44.8962
-47.956
-42.5637
-43.5208
-44.1765
-42.4735
-38.8538
-38.5532
-39.4784
-38.8464
-39.2287
-39.6022
-39.5118
-39.2579
-42.1507
-41.4892
-43.3335
-42.5062
-43.0047
-42.7266
-42.1776
-43.3484
-39.7921
-40.9
-38.5121
-41.0538
-39.8757
-40.6822
-40.5349
-39.7297
-40.6381
-39.4497
-41.8323
-26.0289
1.89313
18.8
14.8854
2.87655
-47.2948
-43.8984
-44.2529
-46.6603
-59.1481
-58.6831
-56.007
-67.9259
-48.4094
-46.4669
-47.2274
-49.773
-60.9662
-64.7034
-65.6252
-61.6912
-46.9933
-45.0904
-46.6672
-45.2854
-52.8355
-54.531
-52.9359
-57.9509
-91.2002
-67.2031
-76.3182
-76.9943
153.687
194.846
168.95
178.729
-83.5358
-68.5092
-74.6854
-74.6813
128.526
137.865
126.066
125.566
-49.1896
-49.8786
-53.2057
-46.3979
-53.2212
-55.5791
-57.8076
-52.9814
-45.264
-48.1855
-47.2604
-45.9971
-34.9549
-33.135
-35.3505
-34.4998
-44.2883
-45.5432
-45.2476
-45.2462
-35.7168
-34.9098
-35.4847
-35.4719
-45.0174
-46.1094
-44.2895
-46.4965
-44.624
-44.8948
-44.568
-45.0666
-40.4329
-33.7358
-36.8042
-36.7709
145.238
191.599
185.43
182.412
-51.2002
-50.6876
-47.8322
-55.6531
-26.6034
-20.1131
-28.0853
-17.2125
-32.954
-34.0384
-33.2726
-33.2454
-29.246
-29.8294
-30.4124
-30.4291
-45.3898
-46.7532
-45.2943
-45.9074
-40.2222
-39.127
-41.7665
-37.7434
-91.1665
-67.0292
-76.1289
-76.8558
153.572
194.731
178.884
169.259
-48.9878
-49.7872
-53.1336
-46.3974
-53.1875
-55.5681
-57.7724
-52.9644
-45.2425
-48.2858
-46.0244
-47.2822
-34.9342
-33.0856
-35.3548
-34.4521
-45.1003
-46.1553
-44.3457
-46.5854
-44.6048
-44.8875
-44.5511
-45.0651
-51.1969
-50.6888
-55.5299
-47.9107
-26.5053
-19.9675
-17.0155
-27.9933
-45.5195
-47.1152
-46.0805
-45.3829
-40.3111
-39.1851
-37.7804
-41.7805
-39.5819
-40.5148
-39.6748
-39.8009
-39.3857
-39.7376
-39.4427
-39.8427
-41.8956
-44.0499
-43.4507
-43.0486
-42.0845
-42.3642
-41.357
-43.2183
-47.6743
-51.2752
-49.2678
-49.2672
-41.0185
-40.1399
-40.3737
-40.373
-43.0201
-43.2362
-42.4009
-44.0725
-42.3654
-43.6012
-43.2306
-42.7946
-42.5894
-41.0623
-41.5887
-41.5881
-44.8659
-44.8221
-44.9563
-44.949
-48.5043
-45.8317
-47.1296
-49.1614
-76.6955
-89.8667
-89.8195
-82.5245
16.164
2.68048
8.16999
8.35402
-33.3534
-95.6204
-71.803
-72.0835
-75.9387
-82.8311
-79.117
-79.0913
-55.0378
-47.4756
-51.2344
-51.2507
-39.5826
-40.5711
-39.6661
-39.8144
-39.3731
-39.7291
-39.4261
-39.833
-42.1181
-44.0854
-43.2642
-43.6256
-41.9899
-42.3237
-41.2951
-43.1811
-42.942
-43.1778
-44.0421
-42.3709
-42.242
-43.5894
-43.2046
-42.7309
-48.4446
-45.904
-49.1488
-47.0158
-76.3862
-89.505
-82.0534
-88.9275
-88.9283
-73.7257
-74.9227
-65.2009
-44.2445
-41.7329
-44.9126
-43.5264
-43.0187
-42.8746
-43.4581
-42.7522
-90.4141
-79.8668
-77.6995
-70.1219
-88.9607
-74.0917
-75.1316
-65.308
-89.8982
-79.7285
-77.5915
-70.0212
-43.323
-43.0246
-43.5953
-42.9757
-44.4624
-41.9951
-44.7137
-43.6911
-81.8833
-72.2609
-73.4819
-66.0653
-81.814
-72.2015
-73.4541
-66.0044
-47.6134
-46.465
-49.8244
-48.6203
-47.5618
-46.457
-49.8179
-48.616
-38.2308
-42.1048
-38.353
-36.7521
-3.05366
4.32454
-6.17217
2.87409
-2.85657
4.73386
-5.84185
3.27052
-38.1782
-41.9956
-38.2475
-36.635
130.189
133.7
140.083
137.88
121.614
130.014
167.259
170.709
133.721
121.073
171.645
166.869
131.968
129.123
141.87
140.114
-39.1424
-39.3813
-39.7254
-40.0342
-40.523
-41.0853
-41.0821
-41.3775
-47.7816
-49.7788
-46.7662
-48.6459
-47.963
-50.4698
-46.3729
-48.5123
-39.1656
-39.3524
-39.5155
-40.0656
-47.8833
-50.3602
-46.31
-48.3581
-47.7142
-49.7009
-46.7095
-48.5824
-40.4538
-41.0527
-41.0251
-41.3451
-39.4335
-40.188
-39.5194
-40.0452
-40.1709
-39.4026
-40.0328
-39.4984
-42.1969
-40.9854
-41.411
-40.6865
-40.9798
-42.2009
-40.6905
-41.4147
-76.6782
-29.5915
-85.1081
-64.586
-66.236
-69.3579
-75.011
-75.8233
-69.2945
-66.12
-75.7602
-74.9212
-31.6414
-76.0214
-66.0596
-87.1568
-43.3546
-43.3206
-43.1611
-43.2272
-46.6086
-48.2228
-48.1222
-49.3235
-42.8304
-42.1074
-44.0794
-43.9419
-47.5006
-44.7833
-45.9953
-44.1776
-43.0389
-43.193
-43.1665
-43.2033
-47.3268
-44.6103
-46.0453
-43.9706
-42.8304
-42.1084
-44.0825
-43.9318
-46.6323
-48.3783
-48.2415
-49.5051
-44.1716
-44.5481
-44.4103
-44.7929
-44.0978
-44.5001
-44.378
-44.7671
-44.7975
-45.8248
-45.4672
-45.8589
-44.771
-45.7612
-45.4564
-45.8355
-52.371
-55.1641
-48.4014
-51.5193
-33.8133
-34.8507
-33.8738
-35.0009
-33.7549
-34.8316
-33.8179
-35.0158
-52.645
-55.186
-48.4348
-51.572
-36.6425
-36.8214
-36.5239
-36.242
-36.7883
-36.6308
-36.22
-36.5039
-32.7323
-34.437
-31.7303
-33.4055
-34.4868
-32.7708
-33.4679
-31.7699
-126.737
28.8816
-108.446
-48.474
-102.54
-94.5845
-45.2875
-39.2467
-44.2131
-40.4679
-47.4523
-43.5695
-78.7655
54.9828
-33.1649
25.8165
-79.0375
-57.3852
-39.3567
-35.5074
-33.331
-34.2242
-38.1632
-34.443
-108.705
-51.0559
-126.73
28.6846
-102.46
-94.2446
-44.2327
-40.414
-45.214
-39.2165
-47.3444
-43.3816
-32.7427
24.8562
-78.6688
54.8894
-77.3823
-57.2968
-33.3025
-34.1905
-39.328
-35.4696
-38.1471
-34.4262
-41.4439
-43.3918
-38.8624
-39.6407
-39.9618
-39.0316
-42.8939
-41.1895
-49.2098
-45.358
-40.1608
-40.8675
-39.675
-43.7218
-41.9291
-45.5593
-44.8309
-35.762
-46.5806
-51.4679
-55.5353
-77.6746
-11.3497
-48.2128
-48.3818
-50.8029
-49.2803
-47.8996
-51.3345
-54.8653
-56.832
-54.4861
-41.3956
-43.4413
-42.8593
-41.2044
-38.8437
-39.6191
-39.9227
-38.9941
-48.5142
-45.1151
-41.9407
-45.5892
-40.152
-40.8834
-39.67
-43.382
-45.1013
-36.2499
-13.3604
-54.5594
-46.6049
-51.3947
-55.4773
-77.5949
-48.3068
-50.7048
-56.7322
-54.358
-49.2303
-47.8842
-51.3083
-54.7655
-122.302
80.162
-106.129
88.5561
-111.706
-109.516
129.108
138.754
-106.957
-120.625
-106.993
-120.302
-93.5962
-93.5989
50.2208
49.9305
-56.8452
-57.5591
-40.7846
-45.2561
-52.6467
-45.4759
-55.1696
-50.0736
-42.1271
-36.9624
-41.8532
-35.8272
-43.9254
-43.3423
-35.8596
-35.4643
-42.3768
-38.8667
-42.3653
-38.8532
-43.3317
-43.3345
-36.9755
-36.9665
-47.9217
-45.6262
-42.212
-42.9112
-43.6176
-44.642
-43.8188
-44.9529
-31.8938
-23.6037
-31.7845
-24.4806
-41.0393
-40.9283
67.0516
59.0438
-60.552
-42.5942
-44.0038
-33.0658
-47.1166
-57.047
-35.2411
-24.6621
-32.9251
-28.3235
-32.9018
-28.2879
-32.811
-32.7985
-26.6655
-26.7017
-42.0048
-39.1268
-45.2117
-47.5229
-43.8123
-45.7483
-43.9034
-39.1183
-122.322
79.924
-107.896
87.1231
-111.202
-109.436
138.28
128.169
-56.8861
-57.4797
-41.0837
-45.1236
-52.331
-45.5743
-55.045
-49.9795
-42.0826
-36.9492
-41.7861
-35.8033
-43.3131
-43.9057
-35.8353
-35.4477
-47.8607
-45.2897
-42.1606
-42.8566
-43.6354
-44.7268
-43.8065
-44.8852
-60.6416
-42.5464
-44.1047
-33.0638
-57.0484
-47.1999
-24.5519
-35.229
-42.0377
-39.1916
-45.1666
-47.8352
-45.8878
-43.923
-39.2447
-44.0227
-37.7521
-38.7047
-40.0589
-39.7624
-39.0789
-39.4157
-39.0272
-39.5179
-40.0356
-40.2115
-41.9743
-43.3125
-40.8383
-41.3505
-40.9426
-42.7132
-44.8493
-43.3384
-44.8086
-43.3386
-46.1055
-46.1856
-42.1733
-42.1713
-41.3873
-41.1543
-44.3411
-43.7984
-42.1689
-43.6799
-41.4221
-42.8766
-42.2468
-43.4343
-42.2391
-43.4219
-42.4969
-42.4996
-44.3763
-44.3693
-55.938
-65.1447
-53.9091
-58.6648
-52.5373
-52.9214
-72.5854
-66.3633
24.2519
11.9563
25.0612
11.1409
22.9807
23.2114
-2.22078
-2.92557
-68.5888
-62.3712
-68.57
-62.3714
-72.3151
-72.3027
-58.9742
-58.9818
-37.7005
-38.6699
-40.1136
-39.7559
-39.0508
-39.3911
-38.9733
-39.4894
-40.0271
-40.1461
-41.9609
-43.2231
-41.4237
-40.9288
-40.8826
-42.6553
-41.2473
-40.8967
-44.2744
-43.717
-43.5486
-42.0134
-41.2474
-42.6693
-55.9811
-64.9292
-53.8086
-58.3974
-52.905
-52.4467
-65.9343
-72.1645
-59.3191
-60.0316
-53.8474
-46.9471
-47.2155
-54.5683
-45.185
-44.7636
-59.2433
-59.7993
-53.6923
-46.8463
-54.2979
-47.2241
-44.7068
-45.1221
-63.6398
-63.6358
-59.6155
-54.5665
-59.5469
-54.5588
-53.2097
-53.2104
-29.296
-29.2591
-24.1148
-11.7427
-11.5716
-24.0226
-4.05523
-3.92771
196.556
196.796