# vtk DataFile Version 2.0
tet_velo
ASCII
DATASET UNSTRUCTURED_GRID
POINTS 29498 float
-0.884607 0.425 -2.095
-0.855 0.585 2.26198
-0.875 1.08227 -2.255
-0.765 1.655 1.94885
0.875 0.625 -2.28495
0.855 0.585 2.26198
0.875 1.08227 -2.255
0.765 1.655 1.94885
-0.85554 0.497531 -0.642673
-0.890317 0.506219 0.809654
-0.840808 1.27565 -0.853717
-0.804231 1.46665 0.547567
0.869802 0.610198 -0.769307
0.891945 0.568055 0.746337
0.840814 1.27566 -0.853717
0.804236 1.46666 0.547567
-1.7309 -0.0701008 -3.13365
-1.72968 0.0228033 -1.98391
-1.70857 0.0711164 -0.525766
-1.71493 0.0606522 0.941038
-1.70042 0.108206 2.40013
-1.6952 0.193972 3.55423
-1.69885 0.293923 4.7026
-1.73544 0.27401 -3.20034
-1.73507 0.386802 -2.06189
-1.70513 0.47849 -0.622348
-1.70846 0.519836 0.817842
-1.68065 0.604069 2.25938
-1.68349 0.688699 3.4158
-1.69367 0.77996 4.56962
-1.7323 0.950064 -3.34322
-1.72742 1.08314 -2.22958
-1.68785 1.26969 -0.829826
-1.64682 1.45399 0.564958
-1.61251 1.62348 1.97018
-1.64709 1.6978 3.13234
-1.67817 1.76297 4.29944
-1.72166 2.07003 -3.59126
-1.71522 2.21198 -2.47328
-1.69522 2.44847 -1.0978
-1.66905 2.71438 0.266291
-1.65456 2.93809 1.65081
-1.66214 3.05916 2.78759
-1.67896 3.14426 3.94244
-0.871203 -0.0168961 -3.18158
-0.87416 0.0795069 -2.03403
-0.852733 0.105114 -0.560022
-0.870621 0.0571283 0.928155
-0.862969 0.0904774 2.40251
-0.862602 0.185998 3.55242
-0.867204 0.295388 4.69529
-0.87504 0.31131 -3.23659
-0.861225 0.684627 3.41313
-0.867417 0.78402 4.56186
-0.87226 0.953564 -3.3585
-0.833627 1.71337 3.12044
-0.858955 1.77679 4.28737
-0.86964 2.07178 -3.60479
-0.867872 2.20904 -2.48342
-0.857404 2.45103 -1.10858
-0.841816 2.72997 0.251487
-0.833935 2.9624 1.633
-0.84202 3.08345 2.76975
-0.856394 3.16624 3.92514
0.866177 0.10912 -3.30429
0.868827 0.234954 -2.18627
0.875881 0.210646 -0.674089
0.881976 0.117382 0.865039
0.852155 0.111181 2.38104
0.821786 0.205636 3.53196
0.805192 0.319948 4.66967
0.867113 0.433931 -3.35474
0.80536 0.697373 3.39985
0.793949 0.805076 4.5399
0.864973 1.014 -3.41693
0.774661 1.72361 3.10976
0.779877 1.7955 4.26785
0.840824 2.11658 -3.64952
0.834492 2.24372 -2.51837
0.821489 2.47792 -1.13628
0.807182 2.75185 0.228624
0.795521 2.98196 1.61254
0.789615 3.10438 2.74789
0.785341 3.19014 3.90021
1.73146 0.152356 -3.35204
1.73373 0.267702 -2.22683
1.73226 0.253207 -0.718656
1.73291 0.171975 0.823502
1.7012 0.166276 2.33968
1.66722 0.242886 3.50324
1.64675 0.347454 4.64675
1.73231 0.487365 -3.40798
1.73438 0.632604 -2.30163
1.72158 0.650273 -0.805605
1.72126 0.620098 0.712105
1.68599 0.647649 2.21423
1.64869 0.72725 3.37565
1.63287 0.827307 4.52024
1.72649 1.08427 -3.47401
1.72572 1.18993 -2.33338
1.69092 1.34657 -0.910017
1.65286 1.50214 0.513733
1.61488 1.65341 1.93911
1.6079 1.72979 3.09901
1.61109 1.80548 4.2551
1.69536 2.16484 -3.6861
1.68622 2.29001 -2.55202
1.66509 2.51084 -1.16203
1.64015 2.7652 0.21322
1.6209 2.98291 1.60396
1.61402 3.10514 2.73959
1.61198 3.19474 3.88978
-0.887842 0.753635 -2.18304
-0.00480351 0.504988 -2.20999
-0.850226 0.481113 -1.36884
-0.871632 1.12 2.16705
0 0.585065 2.26192
-0.865935 0.552333 1.53582
0 1.08115 -2.25388
-0.848408 1.16947 -1.55436
0 1.65441 1.94826
-0.785775 1.56199 1.24821
0.861446 0.853635 -2.25642
0.880727 0.609273 -1.52713
0.871632 1.12 2.16705
0.876351 0.573649 1.50416
0.848408 1.16947 -1.55436
0.785776 1.56199 1.24821
-0.856181 0.518623 0.08349
-0.896677 0.886593 -0.748195
0.00713088 0.419193 -0.70599
-0.887688 0.986436 0.67861
0.000814026 0.432869 0.777995
-0.822748 1.37138 -0.153075
2.87084e-06 1.43833 -0.853717
2.51737e-06 1.68842 0.547567
0.866929 0.603071 -0.011485
0.891592 0.942929 -0.811512
0.884906 1.01736 0.646952
0.82275 1.37138 -0.153075
-0.888505 0.820114 -1.4616
-0.892159 0.936515 -0.0347925
-0.881544 1.05322 1.39201
0.00116369 0.369618 -1.44798
0.00397246 0.427445 0.0360025
0.000407013 0.492248 1.51999
-0.00240175 0.803635 -2.25691
0 1.12 2.19127
1.43542e-06 1.16274 -1.55436
2.69411e-06 1.68842 -0.153075
1.25868e-06 1.68842 1.24821
0.887838 0.898282 -1.54074
0.888255 0.980143 -0.08228
0.880115 1.06868 1.37618
-1.30984 0.405901 -2.07845
-0.879383 0.252253 -2.06451
-0.879823 0.368155 -2.6658
-1.26782 0.594535 2.26068
-0.858984 0.337739 2.33225
-0.858112 0.634813 2.83755
-1.30121 1.08271 -2.24229
-0.87363 1.01792 -2.80675
-0.871436 1.64566 -2.36921
-1.18876 1.63924 1.95952
-0.799314 1.68418 2.53464
-0.799467 2.3087 1.79093
0.871914 0.429977 -2.23561
0.871057 0.529465 -2.81984
1.30469 0.628802 -2.29329
0.853577 0.34809 2.32151
0.83018 0.641186 2.83092
1.2705 0.616324 2.2381
0.869987 1.04814 -2.83597
0.854746 1.66299 -2.38669
1.30036 1.1361 -2.29419
0.769831 1.68931 2.5293
0.78026 2.31848 1.78069
1.18994 1.65421 1.94398
-1.28033 0.48801 -0.632511
-0.854137 0.301323 -0.601348
-1.29939 0.513027 0.813748
-0.880469 0.281673 0.868904
-1.26433 1.27267 -0.841772
-0.849106 1.86334 -0.981149
-1.22553 1.46032 0.556262
-0.823023 2.09831 0.399527
0.872841 0.410422 -0.721698
1.29569 0.630235 -0.787456
0.886961 0.342718 0.805688
1.3066 0.594076 0.729221
0.831152 1.87679 -0.994998
1.26587 1.31111 -0.881867
0.805709 2.10925 0.388096
1.22855 1.4844 0.53065
-1.73029 -0.0236488 -2.55878
-1.73317 0.101954 -3.16699
-1.30105 -0.0434985 -3.15762
-1.71912 0.0469598 -1.25484
-1.73237 0.204803 -2.0229
-1.30192 0.0511551 -2.00897
-1.71175 0.0658843 0.207636
-1.70685 0.274803 -0.574057
-1.28065 0.0881154 -0.542894
-1.70767 0.0844292 1.67058
-1.71169 0.290244 0.87944
-1.29277 0.0588903 0.934596
-1.69781 0.151089 2.97718
-1.69053 0.356138 2.32975
-1.28169 0.0993418 2.40132
-1.69703 0.243947 4.12842
-1.68934 0.441335 3.48502
-1.2789 0.189985 3.55333
-1.69626 0.536942 4.63611
-1.28303 0.294656 4.69895
-1.73526 0.330406 -2.63112
-1.73387 0.612037 -3.27178
-1.30524 0.29266 -3.21847
-1.7201 0.432646 -1.34212
-1.73124 0.734971 -2.14574
-1.70679 0.499163 0.0977471
-1.69649 0.87409 -0.726087
-1.69455 0.561953 1.53861
-1.67764 0.986912 0.6914
-1.68207 0.646384 2.83759
-1.64658 1.11377 2.11478
-1.68858 0.73433 3.99271
-1.66529 1.19325 3.27407
-1.27236 0.686663 3.41447
-1.68592 1.27147 4.43453
-1.28054 0.78199 4.56574
-1.72986 1.0166 -2.7864
-1.72698 1.51005 -3.46724
-1.30228 0.951814 -3.35086
-1.70763 1.17642 -1.5297
-1.72132 1.64756 -2.35143
-1.66734 1.36184 -0.132434
-1.69153 1.85908 -0.963813
-1.62967 1.53873 1.26757
-1.65794 2.08419 0.415624
-1.6298 1.66064 2.55126
-1.63354 2.28078 1.81049
-1.66263 1.73039 3.71589
-1.65461 2.37848 2.95997
-1.24036 1.70558 3.12639
-1.67857 2.45361 4.12094
-1.26856 1.76988 4.29341
-1.71844 2.14101 -3.03227
-1.29565 2.0709 -3.59803
-1.70522 2.33023 -1.78554
-1.29155 2.21051 -2.47835
-1.68213 2.58143 -0.415755
-1.27631 2.44975 -1.10319
-1.6618 2.82624 0.958549
-1.25543 2.72218 0.258889
-1.65835 2.99863 2.2192
-1.24425 2.95024 1.6419
-1.67055 3.10171 3.36502
-1.25208 3.07131 2.77867
-1.26768 3.15525 3.93379
-0.872681 0.0313054 -2.6078
-0.873121 0.147207 -3.20909
-0.00251287 0.0461122 -3.24293
-0.863446 0.0923107 -1.29702
-0.00266627 0.15723 -2.11015
-0.861677 0.0811214 0.184067
0.0115739 0.15788 -0.617055
-0.866795 0.0738029 1.66533
0.00567755 0.0872552 0.896597
-0.862786 0.138238 2.97747
-0.00540708 0.100829 2.39178
-0.864903 0.240693 4.12386
-0.861914 0.435312 3.48278
-0.020408 0.195817 3.54219
-0.86731 0.539704 4.62857
-0.0310058 0.307668 4.68248
-0.87365 0.632437 -3.29755
-0.00396321 0.37262 -3.29566
-0.864321 0.734323 3.98749
-0.847426 1.199 3.26678
-0.0279326 0.691 3.40649
-0.863186 1.2804 4.42461
-0.036734 0.794548 4.55088
-0.87095 1.51267 -3.48165
-0.00364366 0.983782 -3.38772
-0.846291 1.74508 3.7039
-0.837824 2.39841 2.94509
-0.029483 1.71849 3.1151
-0.857675 2.47152 4.10625
-0.0395389 1.78614 4.27761
-0.868756 2.14041 -3.04411
-0.0144082 2.09418 -3.62715
-0.862638 2.33004 -1.796
-0.0166902 2.22638 -2.5009
-0.84961 2.5905 -0.428547
-0.0179574 2.46448 -1.12243
-0.837875 2.84618 0.942245
-0.0173168 2.74091 0.240056
-0.837977 3.02292 2.20138
-0.0192071 2.97218 1.62277
-0.849207 3.12485 3.34744
-0.0262022 3.09392 2.75882
-0.0355266 3.17819 3.91268
0.867502 0.172037 -2.74528
0.866645 0.271526 -3.32951
1.29882 0.130738 -3.32816
0.872354 0.2228 -1.43018
1.30128 0.251328 -2.20655
0.878929 0.164014 0.0954754
1.30407 0.231926 -0.696372
0.867065 0.114282 1.62304
1.30745 0.144679 0.844271
0.836971 0.158409 2.9565
1.27667 0.138729 2.36036
0.813489 0.262792 4.10081
0.813573 0.451505 3.4659
1.2445 0.224261 3.5176
0.79957 0.562512 4.60478
1.22597 0.333701 4.65821
0.866043 0.723965 -3.38584
1.29971 0.460648 -3.38136
0.799654 0.751224 3.96987
0.790011 1.21049 3.2548
1.22702 0.712311 3.38775
0.786913 1.30029 4.40387
1.21341 0.816191 4.53007
0.852898 1.56529 -3.53322
1.29573 1.04914 -3.44547
0.777269 1.75956 3.6888
0.782138 2.414 2.92882
1.19128 1.7267 3.10438
0.782609 2.49282 4.08403
1.19548 1.80049 4.26147
0.837658 2.18015 -3.08395
1.26809 2.14071 -3.66781
0.82799 2.36082 -1.82733
1.26036 2.26686 -2.5352
0.814336 2.61488 -0.453827
1.24329 2.49438 -1.14915
0.801351 2.8669 0.920581
1.22367 2.75852 0.220922
0.792568 3.04317 2.18022
1.20821 2.98244 1.60825
0.787478 3.14726 3.32405
1.20182 3.10476 2.74374
1.19866 3.19244 3.895
1.73259 0.210029 -2.78943
1.73188 0.31986 -3.38001
1.733 0.260454 -1.47274
1.73406 0.450153 -2.26423
1.73259 0.212591 0.0524231
1.72692 0.45174 -0.76213
1.71705 0.169126 1.58159
1.72709 0.396037 0.767804
1.68421 0.204581 2.92146
1.69359 0.406963 2.27695
1.65699 0.29517 4.07499
1.65796 0.485068 3.43945
1.63981 0.58738 4.58349
1.73334 0.559985 -2.85481
1.7294 0.785819 -3.441
1.72798 0.641439 -1.55362
1.73005 0.911269 -2.3175
1.72142 0.635185 -0.04675
1.70625 0.998421 -0.857811
1.70363 0.633873 1.46317
1.68706 1.06112 0.612919
1.66734 0.68745 2.79494
1.65044 1.15053 2.07667
1.64078 0.777278 3.94795
1.62829 1.22852 3.23733
1.62198 1.31639 4.38767
1.7261 1.1371 -2.90369
1.71092 1.62456 -3.58005
1.70832 1.26825 -1.6217
1.70597 1.73997 -2.4427
1.67189 1.42435 -0.198142
1.67801 1.9287 -1.03602
1.63387 1.57778 1.22642
1.64651 2.13367 0.363476
1.61139 1.6916 2.51906
1.61789 2.31816 1.77153
1.60949 1.76763 3.67705
1.61096 2.41746 2.9193
[...]
POINT_DATA 29498
VECTORS point_vectors float
-6.09163 -4.63787 20.6139
0.363894 0.116842 2.00947
-11.6872 8.00979 15.1981
0.233975 -0.210641 1.83963
7.72977 -2.71819 7.74251
-0.406656 0.109509 2.29922
11.1562 6.74933 15.9032
-0.219462 -0.200476 1.78441
0.0261534 -0.0595408 0.387419
0.0899606 -0.103521 1.42097
-0.00220183 -0.00567 0.0440723
0 0 0
-6.84253e-18 -1.53354e-17 7.16516e-17
0.0997396 -0.0731858 0.886858
0.0023791 -0.00570555 0.047852
6.62419e-06 -3.28305e-05 -0.000105865
-0.686435 -0.423746 20.0442
-1.05586 -0.655634 20.918
-0.279617 -0.344165 21.5957
0.179208 -0.125569 21.6949
0.68136 0.102583 21.655
1.00438 0.121663 21.2957
0.998263 -0.00631442 21.1971
-0.789126 -0.306904 19.9322
-1.44183 -0.573544 20.8607
-0.431532 -0.465473 21.6378
0.144227 -0.307546 21.7576
0.744496 -0.201364 21.797
1.17481 -0.136432 21.3455
1.10113 -0.127496 21.2126
-0.77203 -0.0280419 19.8055
-1.67068 0.0487988 20.5439
-1.20056 -0.427065 21.5411
-0.398329 -0.473155 21.8009
0.0853712 -0.587257 21.7374
0.525209 -0.70427 21.3028
0.589231 -0.703438 21.2435
-0.41738 0.210715 19.9685
-0.765791 0.447443 20.2897
-0.855016 0.419679 20.9889
-0.495744 0.0847951 21.5331
-0.200772 -0.103827 21.5426
-0.0783683 -0.237861 21.4665
0.0495457 -0.21053 21.397
-0.771876 -0.887298 19.3669
-2.17629 -2.84902 21.6322
-0.00435697 0.0240108 21.4437
0.393107 0.301371 21.4979
1.04691 1.0877 21.4204
1.58571 1.65648 19.4756
1.70926 1.24356 18.5738
-0.941233 -0.723926 18.9835
2.6021 0.446398 11.4051
2.19733 0.291758 16.9567
-0.901653 0.0805012 18.772
0.383995 -1.43701 15.1295
0.527663 -1.11158 15.696
-0.345913 0.392779 19.6629
-0.832703 1.12022 19.9176
-1.06011 1.32048 20.9464
-0.506434 0.45146 21.763
-0.252728 0.0224077 21.7187
-0.100808 -0.192245 21.7753
0.00816898 -0.295624 21.2309
0.744688 -0.749885 19.2493
3.66168 -3.96799 21.1974
-0.439743 -0.0775664 19.788
-0.519176 0.271866 21.1407
-1.12281 1.073 21.2469
-1.64681 1.77062 19.2659
-1.85009 1.37802 18.2123
0.82901 -0.530351 18.9552
-2.58268 0.606168 10.2986
-2.3319 0.371696 16.3977
0.80366 0.125739 18.8638
-0.0330884 -1.41637 12.7973
-0.508485 -1.10624 13.5095
0.325174 0.381083 19.6781
0.784713 1.10337 19.9039
0.994724 1.32455 20.9175
0.497655 0.470638 21.7715
0.244646 0.0252624 21.7008
0.0823752 -0.17372 21.7065
-0.000245511 -0.263413 21.2646
0.649094 -0.290473 19.9546
1.30642 -0.610749 20.7007
0.361107 -0.402065 21.5799
-0.163639 -0.166645 21.6828
-0.683912 0.0651715 21.6683
-1.05699 0.149988 21.3043
-1.08364 0.0282599 21.3415
0.678461 -0.191142 19.8737
1.60901 -0.379416 20.545
0.600234 -0.545948 21.5952
-0.108039 -0.384213 21.7446
-0.72375 -0.259712 21.8089
-1.24993 -0.155413 21.412
-1.13538 -0.171267 21.4402
0.673506 0.0356665 19.8052
1.61197 0.138099 20.3576
1.29795 -0.292026 21.4372
0.47159 -0.466785 21.8005
-0.016911 -0.560685 21.6966
-0.494576 -0.702812 21.451
-0.521576 -0.794536 20.9553
0.372229 0.197443 19.9719
0.703786 0.429441 20.2636
0.848515 0.433255 20.9387
0.502405 0.0987849 21.5145
0.214665 -0.0884487 21.517
0.0713833 -0.207878 21.4507
-0.0364417 -0.172519 21.3295
-2.38594 -0.428272 3.48317
-0.0273439 -1.21911 0.948005
0.0237489 -0.0323272 0.303932
0.1271 -0.308057 0.760708
-0.00947752 0.0326493 0.174677
0.034469 -0.0870312 0.605975
-0.0344885 4.99441 2.67136
-0.363205 -0.200249 0.543853
-0.0154787 0.100654 -0.0664245
0.00283398 0.0156643 0.18662
5.83893 0.0928957 4.29914
-0.0239812 -0.0518241 0.20507
-0.122134 -0.316167 0.735247
-0.0779353 -0.17693 1.23835
0.355571 -0.193849 0.530053
-0.00307903 0.0163862 0.180454
0.0287224 -0.0281447 0.818217
0.000366934 -0.00127944 0.0306888
0 0 0
2.30623e-05 0.000146475 0.00123066
-0.000776771 0.000596552 0.0322138
-1.5495e-05 -9.43421e-05 -0.000177598
2.3375e-05 0.000890003 0.00168422
-5.03067e-07 2.64854e-08 0.000214356
0 0 0
0 0 0
-2.66134e-05 0.000178623 0.00134912
0 0 0
0.000101008 -0.00859845 0.0141945
0 0 0
0.000866786 0.00554798 0.0637844
0 0 0
0 0 0
0 0 0
0.000476167 0.0194567 0.013365
-2.02732e-06 -2.7977e-05 -1.41072e-07
-6.31727e-07 -1.06081e-06 -7.5655e-06
1.14306e-07 -1.78153e-06 -7.09509e-05
1.48024e-07 -7.21907e-08 -3.79879e-05
6.70866e-05 -0.00572341 0.0108709
-4.84311e-05 0.000351558 0.00157621
-0.000707674 0.00498425 0.0501111
-2.60325 -1.25912 21.172
-3.33206 -3.84738 22.1113
-2.5344 -2.21659 18.1032
1.27137 -0.251466 21.2402
1.74075 0.913968 16.9274
1.62389 0.137123 9.12584
-3.27871 0.536755 20.3681
-2.32243 0.692115 17.4155
-1.94109 2.1541 19.5453
-0.148777 -0.757966 21.2267
-0.316418 -0.649431 9.89533
-0.443604 -0.0722664 21.8424
7.6269 -5.88756 20.7835
2.23436 -1.30646 17.6862
3.3331 -0.870355 20.4419
-1.8631 0.84334 17.3228
-1.4995 0.133329 8.58012
-1.27604 -0.301305 21.3769
2.19936 0.737716 17.5209
1.87255 2.14997 19.502
3.1252 0.615951 20.214
0.574305 -0.649943 8.94075
0.44043 -0.0407217 21.8374
0.194412 -0.718989 21.1389
-0.312966 -0.691212 22.0552
1.21765 -0.0782154 14.239
0.289641 -0.359701 21.4918
1.0159 0.0850612 16.9722
-2.15518 -1.15244 21.9311
-2.90715 2.33714 20.6577
-0.698182 -0.958016 21.8614
-1.09186 0.464597 22.2637
-1.19264 -0.806234 7.73893
0.415026 -0.899563 22.0138
-1.18037 -0.170432 15.1688
-0.350339 -0.460594 21.4765
2.78865 2.39394 20.617
2.39842 -0.965193 21.855
1.07201 0.514964 22.2644
0.770832 -0.902281 21.8476
-1.01696 -0.582815 20.3499
-0.729417 -0.375112 19.9935
-0.823978 -0.618968 19.7572
-0.668169 -0.505128 21.4075
-1.19742 -0.634469 20.8923
-1.59216 -1.27214 21.1268
-0.0166377 -0.220232 21.6696
-0.329595 -0.398999 21.622
-0.160985 -0.383104 21.8106
0.399012 -0.0310822 21.713
0.18412 -0.209497 21.7208
0.313737 -0.0394691 21.8315
0.840889 0.189752 21.5162
0.771186 -0.0442225 21.7456
0.956597 0.428844 21.7661
0.991716 0.352995 21.0295
1.19181 0.0408623 21.3588
1.3612 0.638794 21.3176
1.14167 -0.046925 21.4169
1.28525 0.442511 21.3527
-1.26042 -0.487009 20.1924
-0.815685 -0.197568 19.8302
-0.975878 -0.513065 19.5289
-0.958692 -0.523955 21.4365
-1.68785 -0.319994 20.7143
-0.0869512 -0.371413 21.7148
-0.751607 -0.571384 21.6457
0.408966 -0.249324 21.8096
-0.023431 -0.484777 21.7992
0.986236 -0.113766 21.6165
0.520488 -0.543869 21.8519
1.16648 -0.0012834 21.0438
1.00782 -0.61605 21.1581
1.98401 0.0444926 21.3309
0.976424 -0.427173 21.4694
1.75063 -0.443017 19.7353
-1.29101 0.0381915 19.9399
-0.591158 0.159518 19.8633
-0.929969 0.0170049 19.3628
-1.43638 -0.167539 21.1784
-1.23722 0.411336 20.323
-0.733028 -0.47485 21.7895
-1.25358 0.190329 21.2244
-0.145677 -0.502802 21.7717
-0.57609 -0.118152 21.6863
0.311994 -0.669842 21.7014
-0.154519 -0.322358 21.7089
0.693763 -0.85229 21.9974
0.0901991 -0.389566 21.4506
0.554068 -1.11367 21.0794
0.1914 -0.524495 21.3324
0.553997 -0.920305 22.3684
-0.596998 0.330051 20.0652
-0.407495 0.287066 19.8121
-0.847938 0.458387 20.6505
-0.875495 0.734152 20.1322
-0.724186 0.274382 21.3763
-1.02089 0.742121 21.0185
-0.330501 -0.0307014 21.5035
-0.596611 0.198349 21.6534
-0.141619 -0.191831 21.4649
-0.286729 -0.0802844 21.6409
0.0158764 -0.21518 21.3603
-0.134744 -0.217931 21.7934
0.0872545 -0.278615 21.1214
-1.58398 -2.09132 19.4211
-0.84001 -0.833524 19.1868
-0.00369076 -1.20268 18.8371
-0.921835 -0.839783 22.4127
-0.111452 -6.71139 21.7489
0.197999 0.14104 21.415
-0.0139056 -0.269217 14.6348
0.723416 0.592132 21.4754
-0.00666719 0.0244588 16.5378
1.3548 1.43232 21.1028
-0.00781083 1.08768 17.4964
1.60561 1.27889 18.8766
2.2582 1.39601 18.0748
0.0274419 2.18925 15.624
1.93897 1.17822 17.0747
0.120802 1.79332 17.0178
-0.99682 -0.360641 18.7243
-0.00579561 -0.883788 18.1857
2.57268 0.945007 14.7976
1.73606 -0.778212 8.37493
0.111137 2.38371 3.99317
1.74586 -0.838634 12.4757
0.172428 3.34227 8.06201
-0.597674 0.444862 19.2286
-0.00637823 0.227348 17.9992
0.405848 -1.45755 14.548
-0.237824 -0.420153 21.821
-0.0887078 0.563455 -2.47551
0.141413 -0.787743 20.6801
0.0833488 0.373243 8.24551
-0.573849 0.744527 19.6732
-0.00405906 0.487331 19.5097
-0.985265 1.30444 20.3962
-0.0188033 1.62503 19.6113
-0.834864 1.00293 21.5804
-0.0327202 2.02745 20.7868
-0.336257 0.17365 21.7386
-0.0186583 0.736973 21.8993
-0.171094 -0.110502 21.8189
-0.0139675 0.153508 21.828
-0.0239114 -0.293077 21.5941
-0.00611213 -0.173116 22.062
-0.0239252 -0.349266 20.9003
1.68117 -1.8703 18.8886
0.782359 -0.677908 19.0846
0.782427 -0.46979 19.6262
1.06302 -0.766153 21.6004
2.17188 -1.32467 20.8137
-0.472503 0.0843883 20.3088
0.21806 -0.452021 21.8433
-0.828715 0.553527 21.2006
-0.335549 -0.0671113 21.8331
-1.43316 1.46355 20.983
-0.993388 0.391105 21.7977
-1.68811 1.51565 18.3549
-2.28275 1.47524 17.3905
-1.4341 0.677009 21.3589
-2.11919 1.24373 16.8617
-1.4014 0.568901 20.8007
0.860331 -0.186385 18.7893
0.849637 -0.310492 19.4788
-2.59898 1.21502 13.97
-1.36911 -0.74588 5.1642
-2.10116 0.0773608 21.3504
-1.66609 -0.814689 10.5218
-1.91468 -0.489227 19.1701
0.53179 0.425731 19.3151
0.818188 0.0756792 19.418
-0.130555 -1.51211 12.6051
0.257217 -0.365132 21.8016
-0.512366 -1.06615 20.3153
-0.129432 -0.756334 20.6999
-0.527334 -1.07162 22.326
0.538526 0.726212 19.6792
0.37271 0.268708 19.825
0.945972 1.32029 20.3713
0.813845 0.710151 20.1244
0.812187 1.0424 21.5138
0.993844 0.771881 20.9774
0.323298 0.188756 21.7152
0.615197 0.241099 21.6531
0.160673 -0.0969069 21.793
0.299001 -0.0510039 21.6999
0.0181171 -0.279853 21.6222
0.120307 -0.195808 21.8185
-0.121052 -0.284856 20.995
1.04564 -0.49913 20.1248
0.670228 -0.241438 19.9089
0.875368 -0.53299 21.3334
1.46406 -0.499452 20.6353
0.0514256 -0.260114 21.6643
0.477702 -0.483426 21.5929
-0.39663 -0.0627347 21.7132
-0.153135 -0.269928 21.725
-0.903012 0.125551 21.5687
-0.73822 -0.0975604 21.7454
-1.05683 0.35268 21.0686
-1.20829 0.000189838 21.335
-1.19822 -0.0259632 21.3952
1.1438 -0.294382 19.9797
0.691792 -0.0971472 19.8252
1.17076 -0.493275 21.3282
1.68535 -0.0945608 20.451
0.169303 -0.462624 21.7
0.946502 -0.53536 21.5553
-0.375527 -0.319432 21.7912
0.0920474 -0.517288 21.7971
-0.995246 -0.181829 21.6555
-0.465932 -0.570014 21.821
-1.18931 -0.148333 21.1472
-0.981319 -0.672137 21.174
-0.95766 -0.526979 21.5969
1.13286 0.114896 19.891
0.514883 0.160423 19.8605
1.50595 -0.0912273 21.036
1.14978 0.433253 20.2586
0.859983 -0.4172 21.7604
1.24187 0.273132 21.1611
0.191669 -0.494184 21.7658
0.605936 -0.0705007 21.6703
-0.254571 -0.665445 21.694
0.162683 -0.295101 21.6761
-0.652322 -0.869461 22.0041
-0.0433058 -0.387577 21.4678
-0.210598 -0.534709 21.5181
0.54456 0.30553 20.0622
0.791874 0.446313 20.6001
0.731483 0.302505 21.3468
0.338885 -0.0186821 21.481
0.154624 -0.159 21.4824
-0.00508138 -0.201265 21.2719
-1.10321 -0.559268 20.2923
-2.08083 -2.29762 18.7924
-1.39089 -1.11201 20.0668
-1.94117 -1.01857 19.6115
-0.887521 -0.578936 19.6435
-2.07465 -1.37134 21.1613
-0.781176 -0.536982 21.4339
-0.0210364 -0.41088 17.1889
-0.762237 -0.722241 21.7789
-1.13509 -0.867182 21.995
-0.169773 -0.535195 21.922
-0.0307444 -0.279063 21.7037
0.955075 -0.0442717 15.4418
0.103164 -0.192137 21.7838
0.0678113 -0.469302 21.6684
0.35429 -0.200883 21.835
0.428032 -0.131996 21.7662
1.31245 0.259027 16.4779
0.602946 0.131978 21.872
0.652626 -0.356125 21.3318
1.20732 0.165109 21.6532
0.998805 0.0335648 21.5012
2.02659 1.21424 16.6188
1.23673 0.580902 21.5762
1.68719 -0.127567 21.3086
1.79108 0.401561 20.5989
1.03892 0.217986 21.3394
2.30264 1.32595 17.1187
1.08767 0.498121 21.6679
1.97704 -0.151117 20.6341
1.51266 0.374889 19.8566
-1.37584 -0.29818 20.0312
-2.91817 -0.868996 17.0527
-2.00329 0.229686 19.1686
-0.992588 -0.227642 19.3813
-3.5588 -0.48591 20.9316
-1.26378 -0.418615 21.3642
-2.11164 -0.415893 21.4852
-0.539367 -0.996197 21.9352
-0.31395 -0.544403 21.7852
-1.23597 -1.13726 21.9748
0.325678 -0.860056 21.3153
0.214793 -0.487184 21.8396
-0.393847 -0.713227 21.1727
0.78857 -0.859939 20.7028
0.766303 -0.569578 21.7771
0.20412 -1.13644 5.44263
0.157065 -0.939221 21.3596
1.41969 -0.96881 21.2846
1.03098 -0.591349 21.5103
1.59613 -1.22198 9.23619
0.84259 -0.871509 20.2944
1.78435 -0.764967 20.027
-0.92498 0.297483 19.9604
-1.17846 1.11157 18.9443
-0.630507 0.511417 19.8698
-0.658804 0.279281 19.5618
-1.71918 0.988108 20.041
-1.33198 0.316168 20.8006
-2.20873 1.81665 20.4348
-1.01377 0.796399 20.5393
-2.06736 0.683039 21.2227
-0.967786 0.0350375 21.5915
-2.19968 1.4873 22.5126
-0.828027 0.532461 21.4442
-0.845038 0.00726961 21.9221
-0.334662 -0.214158 21.6975
-0.658436 0.121735 21.9543
-0.424476 0.00332572 21.6154
-0.323001 -0.269898 21.7629
-0.00748794 -0.394256 21.6224
-0.338028 -0.251774 21.7977
-0.199314 -0.155346 21.8016
-0.0128939 -0.541105 21.6342
0.202746 -0.52955 21.0389
-0.162917 -0.605784 21.8299
-0.040996 -0.212126 21.6061
0.197636 -0.713086 21.0889
2.08676 -1.80359 18.2668
-0.0152805 -3.31069 18.1247
-0.0319324 -2.94865 15.7153
-0.00294885 -1.05204 18.5677
-0.452816 -11.7002 21.6946
-0.65794 -1.13285 8.84014
0.0433454 -1.58399 19.4045
-0.086039 0.0643257 3.09515
-0.971685 -0.418946 11.6114
-0.00561727 -0.13482 15.2006
-0.0427106 0.04592 7.25142
-1.41863 0.0549111 15.8861
-0.0102478 0.514713 16.7839
-0.0483182 0.856701 8.78097
-2.04491 1.18641 16.4423
-0.00889269 1.55228 17.0621
-0.0321063 0.673227 3.00895
0.00570681 2.43039 9.86921
-2.39067 1.55773 16.8762
0.106891 2.44839 15.2755
0.256968 2.80058 5.809
0.117757 2.1159 14.0227
2.44984 -0.284636 17.1801
-0.0155318 1.583 15.0823
-0.00807728 -0.373052 18.0189
-0.0300495 -1.05582 4.49058
-0.131552 1.07092 -2.39082
0.138591 0.493859 -4.52213
-1.37548 -1.40647 6.49021
-0.275347 0.300732 1.18827
0.109726 2.01834 2.41228
1.08587 1.06547 19.011
-0.00978005 0.996625 19.3796
-0.00865921 0.632998 18.9002
-0.0290155 3.63893 18.8436
2.14418 1.88619 20.4011
-0.0253246 1.83212 20.1997
-0.0373111 4.52479 19.9194
2.16744 1.60029 22.4948
-0.0191564 1.58535 21.7159
-0.0185662 1.19932 22.5172
0.64403 0.155183 21.9564
-0.016704 0.329743 21.8938
-0.0174858 0.35156 21.9714
0.340176 -0.207345 21.7919
-0.0206534 -0.0457266 22.1462
-0.0479291 -0.0237835 21.9571
0.23836 -0.560414 22.0052
-0.0103306 -0.231385 21.9011
-0.00957523 -0.295576 20.1466
1.12798 -0.403934 20.0383
1.47645 -0.933744 19.7116
1.83644 -0.588846 19.3102
0.831761 -0.42757 19.5392
2.77929 -1.20676 20.665
1.01494 -0.534627 21.3789
1.00424 -0.75801 21.7974
1.40025 -0.908836 22.0361
0.226361 -0.655973 21.9756
0.0884503 -0.36844 21.6832
-0.123011 -0.224731 21.8011
-0.120576 -0.629269 21.5753
-0.405828 -0.244583 21.826
-0.413343 -0.189431 21.7654
-0.623794 0.104562 21.8767
-0.668995 -0.433876 21.367
-1.25635 0.120221 21.7697
-0.993003 -0.019001 21.5902
-1.28962 0.584672 21.5876
-1.73232 -0.192206 21.1238
-1.88813 0.418292 20.8055
-1.13881 0.177474 21.2975
-1.26795 0.549565 21.3199
-2.13123 -0.172386 20.5123
-1.67857 0.387638 19.5197
1.19431 -0.0980852 19.9074
1.788 0.302769 19.1995
0.909535 -0.116257 19.3729
3.64453 -0.104048 20.3032
1.39907 -0.344976 21.2359
2.29084 -0.304795 21.3386
0.996404 -1.24471 22.0061
0.446 -0.560633 21.7702
1.40038 -1.02069 22.0528
-0.199528 -0.977593 21.3138
-0.164107 -0.520578 21.8409
0.454781 -0.697324 21.3242
-0.698892 -0.859559 20.5243
-0.691027 -0.616964 21.8106
-0.071382 -0.88877 21.1252
-1.318 -0.992719 20.1473
-1.01471 -0.707037 21.7405
-0.787168 -0.951701 20.0767
-1.72263 -0.781673 18.2706
0.824643 0.301545 19.9489
0.582854 0.501135 19.8522
0.568505 0.280476 19.614
1.58143 0.989352 19.974
1.27429 0.397444 20.7162
0.950615 0.795691 20.5021
2.01192 0.742839 21.1518
1.00112 0.0995306 21.5481
0.825233 0.575538 21.396
0.864287 0.0677107 21.9166
0.351211 -0.196614 21.7093
0.433048 0.030604 21.6535
0.328209 -0.234627 21.7484
0.0457941 -0.353449 21.6014
0.195433 -0.128393 21.8508
0.0475267 -0.511972 21.7163
-0.168115 -0.549447 20.8803
0.0453193 -0.204045 21.6135
-0.206736 -0.748278 20.5433
-1.6971 -1.13361 19.8646
-0.909813 -0.814495 21.8635
0.128248 -0.329269 21.8365
0.696134 -0.0863377 21.7569
1.50164 0.346045 21.2513
1.81389 0.510049 20.1089
-2.21679 -0.445364 19.2011
-1.62834 -0.627792 22.152
0.094428 -0.97666 21.6199
0.450577 -0.803359 20.8926
1.15611 -0.839551 20.3443
1.71116 -0.719983 20.7117
-1.16607 0.624353 19.5687
-1.85816 0.807921 20.7059
-1.55067 0.327089 21.9386
-0.519998 -0.13925 21.8154
-0.169851 -0.401769 21.6918
0.0926916 -0.568941 21.1487
-0.0289446 -3.56138 16.9397
-0.0277546 -0.0988369 3.54636
-0.0397894 0.0244245 5.1652
-0.066477 0.513541 7.71223
-0.0240982 1.40552 9.50303
0.0612704 2.16711 9.79386
-0.0320008 -0.816586 14.3997
0.0886265 0.380835 -3.26999
0.345018 1.47576 0.819877
-0.0134696 1.70107 18.3146
-0.0381596 3.426 19.8928
-0.0247453 3.16788 22.926
-0.0171323 0.615208 22.107
-0.0307996 0.271915 21.8998
-0.0387867 -0.5249 21.181
1.67575 -0.793551 19.5061
1.12018 -0.81188 21.8819
-0.189724 -0.396762 21.8679
-0.74209 -0.133137 21.8219
-1.60202 0.308268 21.4632
-1.97815 0.47068 20.3136
1.91969 -0.1583 19.1477
1.86849 -0.682736 21.9435
0.160762 -1.19009 21.7802
-0.360557 -0.831911 20.7367
-1.06121 -0.850823 20.0466
-1.63008 -0.791739 18.7726
1.03329 0.59882 19.5943
1.79168 0.877325 20.6413
1.58408 0.439029 21.8947
0.534693 -0.103827 21.8109
0.191907 -0.364351 21.6964
-0.0478543 -0.546804 21.3164
-0.55115 -0.0681119 1.50738
-0.0307962 -0.335713 0.424653
0.107155 -0.440092 3.53012
0.0299566 -0.0538092 0.10358
-0.00525704 0.128335 0.447535
0.21588 -0.0238174 1.088
-3.94114 -0.192141 3.26779
-0.653884 5.45398 2.92081
-0.84454 -0.534615 2.92334
0.121308 -0.088265 0.790156
-0.271162 -0.0240727 0.082289
0.010925 0.0197401 0.657731
0.00341202 -0.0275809 0.0202915
0.220341 -0.0209266 0.283302
-0.0334177 -0.0671312 0.345348
-0.00293296 0.124623 0.444573
-0.033842 -0.0578737 0.109502
-0.187942 -0.0311413 0.999924
0.6795 5.6008 2.88589
8.83559 1.65781 7.85642
0.84176 -0.507129 2.97523
0.256426 -0.0154694 0.0718493
-0.11247 -0.0919575 0.755972
-0.0111662 0.0199689 0.641034
0.231211 -0.431468 2.66553
0.0515444 -0.0544422 0.909979
6.651e-05 -0.000370364 0.0024803
0 0 0
0.017495 -0.0129441 0.18412
0.0223007 -0.0278557 0.596867
0 0 0
0 0 0
-0.309758 -0.108718 0.126878
0.00337934 0.0216883 0.0681859
0.000599243 0.003102 0.00570038
-0.000737062 0.000792695 0.00157135
0.0131249 0.0320242 0.153054
0 0 0
0 0 0
1.12845e-05 1.43241e-07 9.14551e-05
-0.00228707 -0.0340311 0.253397
-0.000703344 4.5911e-05 0.00138158
0 0 0
0 0 0
-0.0475869 -0.0560753 0.6754
0 0 0
0 0 0
8.52306e-07 0.000116175 0.0016721
0.22709 -0.0704828 0.0894002
0.000770432 0.00077917 0.00156186
-0.000658569 0.00450323 0.0153589
-0.000549455 0.00284026 0.00507804
-0.0130196 0.0323362 0.147358
-1.0296e-05 1.31245e-07 8.13033e-05
0 0 0
0 0 0
-6.27411e-05 -0.00310023 0.00277688
1.16989e-05 4.3906e-06 -3.44879e-06
0.000593313 -0.00205834 0.0219782
-0.0187409 -1.04453 0.0608352
0.000871403 -0.019139 0.0436209
0 0 0
0.000264616 0.000694049 0.0201281
-1.89686e-05 -1.78762e-05 1.20319e-06
-1.85259e-06 3.28905e-05 0.000268023
-0.000246774 -0.00282604 0.000457672
0 0 0
0 0 0
-0.000362496 0.558289 0.0904787
2.1457e-06 6.1996e-05 0.000530837
-0.000453751 -0.0250015 0.0527644
0 0 0
0 0 0
-9.80772e-08 2.33831e-08 1.18961e-05
9.12347e-05 0.000453843 0.00382261
-2.04573e-06 -6.69843e-08 -4.22781e-05
0.0864118 0.0434347 0.035239
0.00224555 -0.0211216 0.0276067
0 0 0
-8.64937e-05 -0.00196422 0.00525228
1.67743e-05 -1.65724e-05 6.88615e-07
-0.000479779 0.0014105 0.078364
0 0 0
4.65552e-06 -7.96172e-05 0.0055795
0 0 0
1.51882e-05 -0.000131077 0.000320378
2.19568e-06 -6.69571e-08 -4.12797e-05
-5.36957e-05 0.000265797 0.00211646
4.6351e-07 1.00866e-06 7.1728e-05
0 0 0
-0.00138229 -0.0431766 0.143952
1.32756e-05 7.98322e-05 0.000599829
-4.47825e-05 1.3815e-05 0.000809912
0 0 0
9.6534e-07 6.49261e-06 4.04363e-05
0.000392669 0.000700167 0.017591
-8.82814e-06 2.00739e-05 0.00209559
0 0 0
0.00113144 0.0060595 0.0137787
-6.17268e-06 -3.35663e-06 -0.000159414
0 0 0
0.000200247 0.155104 0.566249
-2.31695e-07 7.17768e-07 9.10492e-05
1.74498e-07 -8.99914e-08 -7.26822e-05
0 0 0
0 0 0
7.53687e-05 -0.00148692 0.00563825
-5.97107e-06 4.02788e-05 0.000187099
-4.7904e-05 0.000343688 0.00185006
-0.000673378 0.00402018 0.0324265
6.61558e-06 -3.36709e-06 -0.000159328
-0.000462746 0.00254987 0.00544362
0.00081726 -0.021177 0.138872
-6.33076e-07 -8.40166e-06 9.7539e-06
0.00104502 -0.00629105 0.0262524
-0.000248006 -0.00327945 0.0142818