# vtk DataFile Version 2.0
tet_velo
ASCII
DATASET UNSTRUCTURED_GRID
POINTS 29498 float
-0.785 0.475 -2.2117
-0.782892 0.475 2.285
-0.815 0.795 -2.22625
-0.775 0.865 2.22511
0.791625 0.545 -2.275
0.78289 0.475 2.285
0.815 0.795 -2.22609
0.774919 0.855 2.235
-0.843552 0.415745 -0.7128
-0.873793 0.384801 0.7861
-0.836515 0.853182 -0.742463
-0.825516 0.87885 0.741324
0.857136 0.453244 -0.755
0.85698 0.427155 0.765
0.837704 0.851064 -0.73906
0.828027 0.874748 0.74797
-1.61401 0.258969 -3.39388
-1.62018 0.254242 -2.19717
-1.66641 0.202278 -0.696696
-1.69296 0.171075 0.805713
-1.64729 0.219077 2.30641
-1.62899 0.247406 3.50415
-1.63059 0.258717 4.70065
-1.61537 0.444145 -3.39526
-1.61983 0.454778 -2.20198
-1.67084 0.416809 -0.707271
-1.68968 0.388635 0.787044
-1.62023 0.438667 2.28238
-1.60951 0.463763 3.48126
-1.61913 0.472607 4.67967
-1.62957 0.793275 -3.40253
-1.63781 0.812279 -2.21795
-1.66514 0.846543 -0.735143
-1.65748 0.856986 0.745762
-1.60448 0.858052 2.23056
-1.59975 0.877761 3.43282
-1.61166 0.890103 4.63619
-1.64849 1.37025 -3.42237
-1.65378 1.39534 -2.23593
-1.66038 1.44665 -0.759422
-1.65639 1.48654 0.713766
-1.64177 1.50009 2.19363
-1.63271 1.50636 3.38703
-1.63045 1.51421 4.58612
-0.792381 0.280908 -3.40895
-0.787992 0.277685 -2.21279
-0.828574 0.210327 -0.707167
-0.86636 0.174705 0.802343
-0.82937 0.23914 2.30807
-0.814072 0.263247 3.50489
-0.815672 0.270091 4.69983
-0.794884 0.459034 -3.40659
-0.795885 0.479467 3.48238
-0.805899 0.483257 4.67905
-0.80822 0.789257 -3.40729
-0.789267 0.884387 3.43178
-0.799993 0.897213 4.63473
-0.823846 1.3687 -3.42618
-0.826985 1.39287 -2.23844
-0.832429 1.44992 -0.761545
-0.832842 1.49439 0.711093
-0.825212 1.50643 2.19045
-0.817949 1.51174 3.38386
-0.81506 1.51993 4.58295
0.827605 0.324907 -3.4491
0.829016 0.331845 -2.26313
0.857719 0.248235 -0.744726
0.835582 0.209066 0.781887
0.786809 0.250961 2.30177
0.796387 0.272013 3.50046
0.804843 0.280153 4.69453
0.817308 0.501806 -3.44536
0.79782 0.483737 3.481
0.807363 0.491083 4.67544
0.81838 0.810166 -3.42597
0.797219 0.884055 3.43438
0.809515 0.90256 4.6331
0.822231 1.38385 -3.43913
0.823899 1.40422 -2.24776
0.824412 1.4581 -0.767376
0.815864 1.50033 0.708229
0.80503 1.51107 2.18923
0.80633 1.51725 3.38202
0.811223 1.52727 4.5796
1.64435 0.336638 -3.46469
1.64787 0.339559 -2.27641
1.6849 0.268749 -0.75873
1.67424 0.226503 0.769648
1.62137 0.249103 2.29029
1.61393 0.269204 3.49273
1.62 0.280778 4.68863
1.6328 0.518387 -3.46262
1.62659 0.539917 -2.28019
1.68049 0.476785 -0.765623
1.68109 0.440286 0.756009
1.61785 0.460266 2.27275
1.61084 0.47901 3.4747
1.61973 0.490839 4.67064
1.63403 0.839537 -3.44386
1.63351 0.848439 -2.25
1.66557 0.870477 -0.756223
1.66041 0.873815 0.738305
1.60893 0.864179 2.23271
1.60845 0.885176 3.43254
1.62037 0.903762 4.63074
1.64532 1.40244 -3.4499
1.64856 1.42123 -2.25739
1.65206 1.46646 -0.774168
1.6429 1.50179 0.70507
1.62686 1.51264 2.18847
1.62382 1.51981 3.38135
1.62735 1.5304 4.57816
-0.822616 0.635 -2.24159
0.0033125 0.447992 -2.30536
-0.854449 0.4052 -1.46225
-0.808193 0.67 2.2843
-9.83477e-07 0.444091 2.31591
-0.847187 0.411056 1.53555
0 0.850646 -2.28182
-0.839381 0.837714 -1.48436
-4.05014e-05 0.857378 2.22743
-0.813961 0.885628 1.48322
0.813238 0.67 -2.26047
0.878973 0.44453 -1.515
0.806302 0.665 2.2874
0.856343 0.414669 1.525
0.839898 0.836579 -1.48258
0.816559 0.87996 1.49148
-0.84705 0.411896 0.0366501
-0.873835 0.634464 -0.727632
0.00679186 0.268016 -0.7339
-0.876999 0.631826 0.763712
-0.00840637 0.251984 0.77555
-0.83315 0.86815 -0.00056994
0.000594223 1.13662 -0.740762
0.00125551 1.32284 0.744647
0.85765 0.439608 0.005
0.873075 0.652154 -0.74703
0.87658 0.650951 0.756485
0.835364 0.865405 0.00445497
-0.895187 0.634732 -1.4733
-0.877236 0.633145 0.0180401
-0.869784 0.650913 1.50938
0.00505218 0.310255 -1.48863
-0.000807256 0.259624 0.020825
-0.00420368 0.296166 1.53028
0.00165625 0.6525 -2.36617
-2.07424e-05 0.6675 2.34548
0.000297111 0.940012 -1.48347
0.000924869 1.35026 0.00194252
0.000607507 0.950077 1.48735
0.890612 0.661077 -1.49879
0.876748 0.651553 0.00472748
0.869651 0.657976 1.50824
-1.20241 0.464889 -2.20684
-0.786496 0.376342 -2.21225
-0.789942 0.467017 -2.80915
-1.20156 0.456834 2.28369
-0.806131 0.35707 2.29653
-0.789389 0.477233 2.88369
-1.22641 0.803639 -2.2221
-0.81161 0.792128 -2.81677
-0.820993 1.09394 -2.23235
-1.18974 0.861526 2.22784
-0.782134 0.874693 2.82845
-0.800106 1.18571 2.20778
0.810321 0.438422 -2.26907
0.804466 0.523403 -2.86018
1.20911 0.542458 -2.27759
0.784849 0.36298 2.29338
0.790355 0.479368 2.883
1.20037 0.467633 2.27887
0.81669 0.802583 -2.82603
0.81945 1.09961 -2.23692
1.22425 0.821719 -2.23805
0.786069 0.869527 2.83469
0.789974 1.18303 2.21212
1.19193 0.85959 2.23386
-1.2572 0.416277 -0.710035
-0.836063 0.313036 -0.709984
-1.28174 0.386718 0.786572
-0.870076 0.279753 0.794222
-1.25083 0.849862 -0.738803
-0.834472 1.15155 -0.752004
-1.2415 0.867918 0.743543
-0.829179 1.18662 0.726208
0.857428 0.35074 -0.749863
1.26881 0.465015 -0.760312
0.846281 0.31811 0.773444
1.26904 0.43372 0.760505
0.831058 1.15458 -0.753218
1.25164 0.86077 -0.747642
0.821945 1.18754 0.7281
1.24422 0.874281 0.743138
-1.6171 0.256605 -2.79553
-1.61469 0.351557 -3.39457
-1.2032 0.269938 -3.40142
-1.64329 0.22826 -1.44693
-1.62 0.35451 -2.19958
-1.20409 0.265963 -2.20498
-1.67968 0.186677 0.0545086
-1.66862 0.309543 -0.701983
-1.24749 0.206303 -0.701932
-1.67013 0.195076 1.55606
-1.69132 0.279855 0.796379
-1.27966 0.17289 0.804028
-1.63814 0.233242 2.90528
-1.63376 0.328872 2.2944
-1.23833 0.229109 2.30724
-1.62979 0.253062 4.1024
-1.61925 0.355584 3.4927
-1.22153 0.255327 3.50452
-1.62486 0.365662 4.69016
-1.22313 0.264404 4.70024
-1.6176 0.449462 -2.79862
-1.62247 0.61871 -3.3989
-1.20513 0.45159 -3.40093
-1.64534 0.435793 -1.45463
-1.62882 0.633528 -2.20997
-1.68026 0.402722 0.0398868
-1.66799 0.631676 -0.721207
-1.65496 0.413651 1.53471
-1.67358 0.622811 0.766403
-1.61487 0.451215 2.88182
-1.61236 0.64836 2.25647
-1.61432 0.468185 4.08046
-1.60463 0.670762 3.45704
-1.2027 0.471615 3.48182
-1.6154 0.681355 4.65793
-1.21252 0.477932 4.67936
-1.63369 0.802777 -2.81024
-1.63903 1.08176 -3.41245
-1.21889 0.791266 -3.40491
-1.65147 0.829411 -1.47655
-1.64579 1.10381 -2.22694
-1.66131 0.851765 0.00530982
-1.66276 1.1466 -0.747282
-1.63098 0.857519 1.48816
-1.65694 1.17176 0.729764
-1.60212 0.867907 2.83169
-1.62313 1.17907 2.21209
-1.6057 0.883932 4.0345
-1.61623 1.19206 3.40992
-1.19451 0.881074 3.4323
-1.62106 1.20216 4.61116
-1.20583 0.893658 4.63546
-1.65113 1.38279 -2.82915
-1.23617 1.36947 -3.42427
-1.65708 1.42099 -1.49768
-1.24038 1.39411 -2.23719
-1.65838 1.46659 -0.0228282
-1.2464 1.44828 -0.760483
-1.64908 1.49331 1.4537
-1.24462 1.49047 0.712429
-1.63724 1.50322 2.79033
-1.23349 1.50326 2.19204
-1.63158 1.51029 3.98658
-1.22533 1.50905 3.38545
-1.22275 1.51707 4.58454
-0.790187 0.279297 -2.81087
-0.793632 0.369971 -3.40777
0.0176119 0.302907 -3.42903
-0.808283 0.244006 -1.45998
0.0205119 0.304765 -2.23796
-0.847467 0.192516 0.0475878
0.0145727 0.229281 -0.725947
-0.847865 0.206922 1.55521
-0.0153891 0.191885 0.792115
-0.821721 0.251194 2.90648
-0.0212809 0.24505 2.30492
-0.814872 0.266669 4.10236
-0.804979 0.371357 3.49363
-0.00884279 0.26763 3.50267
-0.810785 0.376674 4.68944
-0.00541436 0.275122 4.69718
-0.801552 0.624145 -3.40694
0.011212 0.48042 -3.42598
-0.800892 0.481362 4.08071
-0.792576 0.681927 3.45708
0.000967312 0.481602 3.48169
-0.802946 0.690235 4.65689
0.000732159 0.48717 4.67724
-0.816033 1.07898 -3.41673
0.00507975 0.799711 -3.41663
-0.79463 0.8908 4.03326
-0.803608 1.19807 3.40782
0.0039757 0.884221 3.43308
-0.807527 1.20857 4.60884
0.00476078 0.899886 4.63392
-0.825416 1.38079 -2.83231
-0.000807501 1.37628 -3.43265
-0.829707 1.42139 -1.49999
-0.00154308 1.39855 -2.2431
-0.832635 1.47215 -0.025226
-0.00400841 1.45401 -0.76446
-0.829027 1.50041 1.45077
-0.00848915 1.49736 0.709661
-0.82158 1.50908 2.78716
-0.0100911 1.50875 2.18984
-0.816505 1.51583 3.98341
-0.00580938 1.5145 3.38294
-0.00191873 1.5236 4.58128
0.82831 0.328376 -2.85612
0.822456 0.413356 -3.44723
1.23598 0.330772 -3.4569
0.843368 0.29004 -1.50393
1.23844 0.335702 -2.26977
0.84665 0.228651 0.0185808
1.27131 0.258492 -0.751728
0.811195 0.230013 1.54183
1.25491 0.217784 0.775768
0.791598 0.261487 2.90111
1.20409 0.250032 2.29603
0.800615 0.276083 4.09749
0.797103 0.377875 3.49073
1.20516 0.270609 3.49659
0.806103 0.385618 4.68498
1.21242 0.280466 4.69158
0.817844 0.655986 -3.43567
1.22505 0.510096 -3.45399
0.802591 0.48741 4.07822
0.797519 0.683896 3.45769
1.20433 0.481374 3.47785
0.808439 0.696821 4.65427
1.21354 0.490961 4.67304
0.820306 1.09701 -3.43255
1.2262 0.824851 -3.43492
0.803367 0.893307 4.03374
0.801774 1.20065 3.4082
1.20284 0.884615 3.43346
0.810369 1.21492 4.60635
1.21494 0.903161 4.63192
0.823065 1.39404 -2.84344
1.23378 1.39315 -3.44451
0.824156 1.43116 -1.50757
1.23623 1.41273 -2.25257
0.820138 1.47922 -0.0295733
1.23824 1.46228 -0.770772
0.810447 1.5057 1.44873
1.22938 1.50106 0.706649
0.80568 1.51416 2.78562
1.21595 1.51185 2.18885
0.808777 1.52226 3.98081
1.21507 1.51853 3.38169
1.21929 1.52884 4.57888
1.64611 0.338098 -2.87055
1.63858 0.427512 -3.46366
1.66639 0.304154 -1.51757
1.63723 0.439738 -2.2783
1.67957 0.247626 0.005459
1.6827 0.372767 -0.762176
1.64781 0.237803 1.52997
1.67767 0.333394 0.762828
1.61765 0.259154 2.89151
1.61961 0.354685 2.28152
1.61696 0.274991 4.09068
1.61239 0.374107 3.48371
1.61986 0.385808 4.67964
1.6297 0.529152 -2.87141
1.63341 0.678962 -3.45324
1.65354 0.508351 -1.52291
1.63005 0.694178 -2.2651
1.68079 0.458536 -0.00480704
1.67303 0.673631 -0.760923
1.64947 0.450276 1.51438
1.67075 0.65705 0.747157
1.61435 0.469638 2.87372
1.61339 0.662223 2.25273
1.61529 0.484925 4.07267
1.60965 0.682093 3.45362
1.62005 0.697301 4.65069
1.63377 0.843988 -2.84693
1.63967 1.12099 -3.44688
1.64954 0.859458 -1.50311
1.64103 1.13483 -2.25369
1.66299 0.872146 -0.00895911
1.65882 1.16847 -0.765196
1.63467 0.868997 1.48551
1.65166 1.1878 0.721687
[...]
POINT_DATA 29498
VECTORS point_vectors float
-2.0126 -2.24612 3.85508
0.0452978 0.240178 0.478661
-3.9017 3.32464 6.59705
0.195809 -0.292185 1.63423
2.50301 -1.53536 2.61035
-0.0444117 0.243009 0.485598
6.39973 3.94669 8.73002
-0.152496 -0.218194 1.30285
0.000813765 -0.00344979 0.0500722
-0.162887 0.0118797 1.3416
-0.043685 -0.0471079 0.360021
0.0272848 0.0415221 0.154834
-0.00454779 -0.0221584 0.247032
0 0 0
0.0345539 -0.0370459 0.295353
-0.0284656 0.0468737 0.18326
-0.534016 -0.108792 19.8142
-1.29991 -0.376274 20.4027
-0.573414 -0.217349 21.1814
0.00549619 0.0408496 21.3477
0.571828 0.25776 21.2119
0.700053 0.25323 21.2158
0.804583 0.0493503 20.8745
-0.556529 -0.0454513 19.8065
-1.39096 -0.192905 20.3859
-0.649414 -0.212695 21.1913
0.031467 0.00400275 21.4131
0.68095 0.152334 21.2709
0.85845 0.187003 21.4299
0.901035 0.0420117 21.0724
-0.556781 0.0622974 19.7909
-1.41742 0.147991 20.3309
-0.854206 -0.133577 21.1758
-0.0118244 -0.10241 21.4735
0.729678 -0.0891668 21.2685
0.938124 -0.147156 20.6713
0.731671 -0.0497365 20.9586
-0.449952 0.213662 19.885
-0.957874 0.459119 20.2923
-0.863075 0.244098 21.0591
-0.140466 -0.0397566 21.425
0.439853 -0.277347 21.2001
0.577635 -0.323913 20.8427
0.415135 -0.222028 20.7212
-0.578357 -0.292244 19.1586
-4.32585 -4.85336 19.9696
-0.0719082 -0.565468 12.9083
0.211793 -0.125779 14.3193
0.699298 1.13612 13.0125
0.957564 1.35773 14.5419
0.954762 0.627853 14.3206
-0.599443 -0.143236 19.1066
1.47741 1.17234 12.2187
1.22934 0.416713 11.6701
-0.621547 0.153949 19.052
2.26658 -0.164746 11.4266
1.16952 -0.137894 15.1408
-0.46303 0.472657 19.4243
-1.52942 1.95245 19.9705
-2.3868 1.64368 20.9987
-0.253494 -0.0419693 21.882
0.596141 -0.892289 21.0287
0.869805 -0.967519 19.9405
0.545026 -0.746953 20.2489
0.553409 -0.232183 19.2164
5.04724 -4.27603 19.2417
0.0176265 -0.511116 12.1451
-0.281855 -0.29421 11.0652
-0.536619 1.17819 11.1561
-0.958162 1.37851 14.0799
-0.963388 0.607576 14.0169
0.574939 -0.0861667 19.1602
-1.49122 1.15496 12.2388
-1.22035 0.395788 11.6277
0.615978 0.155254 19.0976
-2.26375 -0.149346 11.6076
-1.15541 -0.144982 15.3237
0.449671 0.461745 19.4384
1.49183 1.91757 19.9549
2.35289 1.68055 20.9753
0.254522 -0.0266282 21.9218
-0.584248 -0.907621 21.0001
-0.850718 -0.97195 19.9284
-0.532787 -0.752953 20.2457
0.488652 -0.0660974 19.8463
1.29869 -0.27446 20.3116
0.620078 -0.220846 21.1753
-0.00267469 0.0307334 21.3796
-0.59873 0.258943 21.2271
-0.708027 0.257379 21.2348
-0.82186 0.0537183 20.9247
0.503827 -0.0237702 19.8292
1.39401 -0.132907 20.2861
0.705423 -0.208187 21.1699
-0.0115046 -0.0137266 21.4289
-0.67878 0.143114 21.2717
-0.858077 0.177318 21.4131
-0.905556 0.0445229 21.1144
0.524611 0.0743942 19.8154
1.38691 0.182901 20.2888
0.882009 -0.109922 21.1684
0.0247983 -0.108966 21.4738
-0.722034 -0.0910243 21.2659
-0.928662 -0.154012 20.6586
-0.728033 -0.0551297 20.9473
0.431747 0.205436 19.8959
0.928393 0.457438 20.2799
0.87005 0.253662 21.0521
0.150131 -0.0366026 21.4322
-0.440065 -0.288674 21.2036
-0.571991 -0.333564 20.849
-0.412399 -0.231798 20.69
-3.97931 -0.62315 2.22695
0 0 0
-0.0202014 -0.0152587 0.792186
-0.023099 -0.0212097 0.145563
2.77406e-05 -0.0527277 -0.0406557
0.026673 0.0236968 0.418661
0.00142033 0.499046 0.93014
-0.173097 -0.12738 0.824646
5.82677e-06 0.00278419 -0.0130389
0.0913613 0.0851187 0.363506
13.4471 0.555622 6.8231
-0.0155643 -0.0619383 1.24214
-0.0196283 -0.0224206 0.25508
-0.0213221 0.022694 0.400645
0.18014 -0.131291 0.860668
-0.022377 0.020714 0.0892273
4.52529e-05 0.000245597 0.0397247
-2.56787e-05 -0.00022537 0.00919886
2.78614e-05 -0.000462809 0.0238836
4.76143e-06 0.000497689 0.00384452
0.000294692 0.000784097 0.0690567
0.0766528 0.0975707 0.355956
-8.81632e-05 0.028722 0.0483693
1.38261e-05 -0.00252119 0.0298377
-8.04379e-06 0.00443539 0.157274
1.18272e-05 -0.000313877 0.00513234
0 0 0
-0.0852877 0.105097 0.394672
-0.000586374 -0.018141 0.124149
9.66057e-07 2.04282e-05 0.000243047
0.000856479 0.00151607 0.018341
0 0 0
2.22587e-05 -1.72005e-05 0.00452883
3.61868e-07 6.62108e-05 0.00115294
0.0344364 0.124731 0.096546
-6.57972e-05 0.0246694 -0.00535805
-0.000276529 0.00347948 0.0583455
-1.98417e-05 3.02629e-05 0.00401148
0 0 0
0.00719257 -0.0279795 0.155736
-2.23672e-05 0.000256269 0.0022394
-0.0010962 0.00187274 0.0227926
-3.03337 -0.671496 20.3469
-6.7321 -6.77927 19.6182
-1.90774 -0.648227 17.827
1.2121 0.449424 20.2183
0.620814 1.00994 6.9047
0.706659 1.17876 7.47751
-2.82465 0.539003 20.2223
-1.86225 0.600987 17.8934
-2.92759 3.17413 19.9464
1.30064 -0.1702 20.1473
1.23734 -0.00721152 8.0192
1.41394 -0.296933 14.55
8.10594 -5.80892 18.3112
1.78557 -0.394039 17.9471
3.04436 -0.389615 20.0373
-0.455713 1.00859 5.67208
-0.705196 1.17914 7.45083
-1.21257 0.447136 20.2072
1.83463 0.587416 17.9478
2.87698 3.11792 19.9188
2.77808 0.582478 20.1742
-1.25695 0.0238922 8.09988
-1.42197 -0.28088 14.1537
-1.29628 -0.16337 20.1507
-0.74229 -0.380093 21.4228
0.0319813 -0.324 4.93209
0.119103 0.0843126 21.366
0.00176549 -0.415567 7.94233
-1.3084 -0.528945 21.3401
-4.11644 0.484905 18.4216
0.153612 -0.273651 20.8118
0.485812 0.900647 12.892
-0.139008 -0.398691 4.86889
0.816292 -0.407407 21.4879
0.0767516 -0.128551 2.9666
-0.132483 0.0671974 21.2589
4.12931 0.553923 18.4641
1.35275 -0.504749 21.3375
-0.510774 1.01538 12.2919
-0.134719 -0.271354 20.8502
-0.97534 -0.249636 19.9062
-0.540795 -0.0808046 19.8051
-0.619592 -0.18975 19.5457
-0.969462 -0.32137 20.9483
-1.35129 -0.284373 20.3971
-2.39435 -1.06777 20.3503
-0.264176 -0.0989949 21.3212
-0.607632 -0.21964 21.1977
-0.707505 -0.350212 21.4135
0.296923 0.15634 21.3355
0.0286137 0.0289094 21.3807
0.00765858 0.114082 21.5083
0.639469 0.289894 20.9519
0.63517 0.212254 21.2467
0.842269 0.592301 21.0935
0.609605 0.256954 20.2054
0.778402 0.228248 21.3474
1.06572 0.538337 20.299
0.871945 0.0432151 20.984
0.736495 0.441332 20.3652
-1.0298 -0.125667 19.876
-0.560682 0.000304925 19.7984
-0.644374 -0.089656 19.5102
-1.05767 -0.216663 20.9646
-1.42086 -0.0556246 20.3662
-0.292336 -0.122052 21.3615
-0.726041 -0.197174 21.1854
0.376295 0.10208 21.4055
0.0237629 -0.0516375 21.4522
0.765193 0.16784 20.9919
0.731829 0.0503355 21.2637
0.744372 0.144875 20.3043
0.908606 0.0282446 21.1778
1.34113 0.556366 19.3111
0.839768 0.0146989 21.0601
1.019 0.231522 17.6279
-1.02495 0.122849 19.8447
-0.519161 0.158423 19.8328
-0.669381 0.101432 19.4972
-1.1571 0.0100958 20.8822
-1.22852 0.343774 20.3139
-0.436941 -0.14302 21.4152
-0.913559 0.0385079 21.1328
0.402315 -0.0719536 21.4446
-0.0755447 -0.0961372 21.4756
0.868949 -0.113841 21.1207
0.60391 -0.235896 21.2445
0.659656 -0.0982384 20.668
0.778939 -0.337952 20.9235
1.49477 -0.248648 20.4962
0.564642 -0.144275 20.7854
1.01295 -0.254407 20.1801
-0.730982 0.371345 19.9911
-0.503334 0.311965 19.6875
-0.960942 0.378534 20.7117
-1.35519 0.94035 20.1702
-0.549385 0.0895524 21.3568
-1.45364 0.496898 21.1578
0.218306 -0.181955 21.371
-0.216368 -0.0733938 21.7222
0.541282 -0.33661 21.0202
0.564894 -0.519629 21.3108
0.510344 -0.438122 20.8231
0.656872 -0.674204 20.8601
0.495075 -0.453859 20.5147
-1.60552 -1.1182 18.3682
-0.591981 -0.236137 19.1294
0.0105639 -0.384862 18.7628
-0.953208 -0.683662 15.2839
0.327078 -11.2969 15.9317
0.0470451 -0.149346 12.9696
0.00716421 -0.0615751 3.07325
0.385102 0.508604 12.7005
0.00978547 -0.00234539 4.85157
0.773686 1.29446 14.4327
-0.0842744 0.0634308 3.53566
1.1045 0.970502 15.1744
1.1632 1.35363 13.506
-0.0185196 0.439981 5.22903
1.1274 0.52886 12.6426
0.0243713 0.559736 10.5917
-0.612355 0.0299155 19.0701
0.0357658 -0.170155 18.5953
1.60645 1.18197 13.9311
2.20856 0.505479 10.0917
0.000962819 -0.619808 -3.9771
1.25659 0.153454 12.6215
0.00876575 0.428205 7.21064
-0.536656 0.352771 19.2545
0.0102362 0.235636 18.609
1.79207 -0.125443 13.4896
1.47717 -0.970698 17.7981
-0.0175607 -1.14973 -0.706911
0.91048 -0.598218 19.4275
-0.011696 -1.157 5.84803
-0.959898 1.12273 19.2372
-0.0040873 0.621062 19.173
-1.61214 1.42414 20.6103
0.00423982 3.20166 19.7769
-1.45247 0.661636 22.3359
-0.0200572 4.77839 19.412
0.390467 -0.630817 21.2885
0.0022375 -0.175333 13.8508
0.700799 -1.02616 20.853
0.00598503 -0.868424 15.4913
0.572876 -0.964364 19.9977
0.0142903 -1.43997 17.0716
4.00172e-05 -0.990128 19.7254
1.54953 -0.890563 18.4296
0.564993 -0.174659 19.1842
0.592492 -0.149777 19.5683
0.758762 -0.499841 13.6732
2.41503 -0.833277 20.1795
-0.0624997 -0.141662 10.8255
0.744951 -0.359581 21.3968
-0.255539 0.41971 9.82589
-0.00465323 0.120787 21.4682
-0.723447 1.33738 13.4671
-0.897687 0.631598 20.7918
-1.14488 0.989463 14.7326
-1.16455 1.36165 13.3006
-1.08958 0.580139 20.1315
-1.13015 0.508158 12.44
-0.769043 0.422754 19.9921
0.601701 0.0674581 19.1172
0.603997 -0.0478283 19.5402
-1.61695 1.19561 13.9583
-2.21247 0.494565 10.2182
-1.33545 0.538926 19.3821
-1.23935 0.138768 12.7667
-1.02954 0.212681 17.5536
0.519303 0.357805 19.2825
0.640688 0.114844 19.5221
-1.78244 -0.12554 13.6941
-1.46644 -0.971584 17.7814
-1.47963 -0.237346 20.5136
-0.903993 -0.59711 19.5481
-1.00144 -0.241651 20.2006
0.933873 1.10423 19.2534
0.481314 0.309152 19.6991
1.58157 1.43705 20.6
1.32106 0.930004 20.1517
1.44801 0.721928 22.3451
1.45317 0.529726 21.1378
-0.38334 -0.632074 21.3158
0.226693 -0.062175 21.7292
-0.696385 -1.03589 20.8367
-0.565233 -0.528722 21.3184
-0.556196 -0.959319 20.0384
-0.659266 -0.677661 20.8777
-0.472818 -0.468989 20.4978
0.899332 -0.172758 19.8916
0.496181 -0.0454686 19.8353
1.01741 -0.277748 20.9037
1.3534 -0.19311 20.2984
0.289266 -0.111943 21.3251
0.670131 -0.214705 21.1703
-0.310188 0.150022 21.3594
-0.011958 0.0123503 21.4148
-0.664148 0.273381 20.9945
-0.642609 0.199332 21.255
-0.624334 0.246929 20.1581
-0.790705 0.228395 21.356
-0.890253 0.0479238 21.0302
0.952608 -0.0738535 19.8528
0.515521 0.0229601 19.8199
1.10636 -0.195431 20.94
1.43468 0.0179853 20.2872
0.323025 -0.138408 21.3589
0.773087 -0.195197 21.1747
-0.381243 0.0893828 21.4194
-0.0131545 -0.0655287 21.4538
-0.779789 0.166338 21
-0.731078 0.0422316 21.2741
-0.737988 0.13528 20.2936
-0.907205 0.0165251 21.1473
-0.83873 0.0101198 21.0648
0.962674 0.139447 19.8561
0.495481 0.161838 19.8419
1.16502 0.040666 20.8585
1.20713 0.357269 20.2873
0.456564 -0.141269 21.4145
0.932845 0.0569477 21.1256
-0.397008 -0.0792288 21.4435
0.0853409 -0.0957161 21.478
-0.854958 -0.118023 21.1103
-0.594284 -0.240463 21.2465
-0.646922 -0.102142 20.6823
-0.754997 -0.35519 20.8913
-0.558788 -0.153017 20.7649
0.700553 0.366571 19.9952
0.957434 0.390393 20.7076
0.566397 0.0977512 21.3558
-0.21441 -0.189984 21.3674
-0.536979 -0.344758 21.0343
-0.531843 -0.447238 20.8336
-1.00609 -0.183805 19.8891
-1.75195 -0.933679 18.0477
-1.38048 -0.547053 19.3635
-1.58172 -0.312979 19.247
-0.632635 -0.144952 19.5212
-2.7562 -0.925869 20.3483
-1.01707 -0.267283 20.9576
-0.262775 -0.137343 6.14013
-1.30487 -0.569145 21.2924
-1.42009 -0.422825 21.4246
-0.720671 -0.357231 21.4489
-0.273918 -0.108392 21.3445
0.0617729 -0.0712217 5.72727
-0.298394 -0.101805 21.4948
-0.215732 -0.142573 21.3615
0.0537219 0.111682 21.4793
0.340349 0.130976 21.3687
0.201792 0.38093 5.94676
0.436311 0.371021 21.3694
0.650464 0.293328 20.8402
1.03932 0.542675 20.5225
0.694391 0.211257 20.977
0.719107 1.24121 11.2032
0.991454 0.64033 20.7897
1.32307 0.466447 20.2423
1.24118 0.567384 19.5666
0.678576 0.197311 20.2609
1.36425 1.08277 14.555
0.664181 0.509294 21.1666
1.18831 0.721156 20.2835
0.909635 0.34236 18.6784
-1.03499 -0.0310458 19.8605
-1.95272 -0.0125671 17.7391
-1.4987 0.276598 19.2571
-0.663584 0.0142347 19.4938
-3.0973 -0.045091 20.2445
-1.11205 -0.138618 20.9442
-1.65237 -0.0587477 21.223
-0.904998 -0.488161 21.4237
-0.336917 -0.14699 21.3848
-0.488809 -0.525004 21.21
0.243143 -0.071116 20.9939
0.399862 0.0313299 21.4344
0.783243 -0.119753 20.466
1.33639 0.16614 19.9839
0.883172 0.062195 21.0872
0.932745 0.621829 6.17406
1.51638 -0.244268 20.2166
1.43879 0.237487 19.677
0.752318 0.0201346 20.4217
1.70777 0.628732 13.2559
1.30432 -0.270453 20.0059
1.04838 -0.0318071 18.5115
-0.904424 0.284192 19.9037
-1.40116 1.15035 18.6287
-0.925432 0.625692 19.6972
-0.580259 0.228765 19.584
-2.01443 0.946146 20.183
-1.12073 0.199997 20.805
-2.48073 1.18244 20.5358
-1.37173 0.689967 20.729
-1.72926 0.0368032 21.3063
-0.512537 -0.052594 21.4046
-0.891938 0.144879 14.8981
-0.906966 0.187635 21.6768
-0.173848 -0.214838 21.641
0.333088 -0.157369 21.4147
1.3452 0.279119 13.2454
0.296073 -0.333903 21.56
0.876369 -0.517344 21.0818
0.722086 -0.282488 20.9525
1.39819 -0.680557 16.2888
0.692815 -0.631548 21.0505
1.06282 -0.623097 20.5343
0.559709 -0.281409 20.6444
1.28572 -0.827142 18.6856
0.599769 -0.607841 20.6168
0.862022 -0.338222 20.0463
1.69187 -0.651106 18.1136
0.0384167 -1.85388 16.7115
0.0261484 -0.932926 15.8613
0.0263051 -0.303839 18.7014
0 0 0
0.115474 -0.108864 4.07213
0.00113894 -0.122246 2.39685
0 0 0
-0.0129124 -0.0225946 4.17938
0.00821328 -0.0191933 3.55608
0 0 0
-0.0821857 0.220626 3.54303
-0.00132966 0.207444 4.25664
-0.0522554 -0.32866 0.0139826
-0.619369 1.24234 10.5679
-0.0570635 -0.884865 1.83561
0.00149782 -1.93878 -4.64401
-0.0112151 0.142501 0.710373
-1.39048 1.09955 14.3475
0.0283556 -0.752541 6.11375
0.00719667 -2.46618 -2.81933
0.0169818 0.508582 8.60301
1.83162 0.132001 17.9083
0.0113573 1.23301 15.939
0.0197719 0.0751306 18.5885
-0.944998 0.626328 6.29493
0.00183874 -0.804229 -0.636489
-0.0078902 -0.8477 -3.17263
-1.70503 0.61853 13.3924
-0.023313 -2.2115 2.61767
-0.000200888 -0.195009 6.21036
1.36462 1.12325 18.6768
0.00341622 1.75759 18.6742
0.00671895 0.498355 18.8512
0.00257882 5.5974 19.9317
2.45152 1.21607 20.5726
-0.00392647 2.55504 20.2278
-0.0257858 3.39909 8.42051
0.864728 0.196622 14.6052
-0.0154465 1.26852 16.3457
0 0 0
-1.34089 0.284128 12.7999
6.07971e-05 -0.521726 14.2506
0.0115308 -0.0223742 0.877228
-1.39377 -0.670106 16.1091
0.0074104 -1.07274 16.255
-0.000896786 -1.5677 8.19502
-1.27618 -0.824767 18.7815
0.00687666 -0.823336 17.344
-0.00316344 -1.4541 10.9705
0.934656 -0.120625 19.8769
1.27008 -0.387122 19.4157
1.42888 -0.166488 19.2819
0.5923 -0.102969 19.5552
2.73036 -0.663734 20.1094
1.06475 -0.227626 20.9144
1.3869 -0.519314 21.2618
1.51557 -0.377155 21.3393
0.77114 -0.36505 21.4863
0.310388 -0.124156 21.3472
0.307128 -0.108795 21.5218
0.237696 -0.180181 21.4463
-0.0726844 0.105733 21.3409
-0.348398 0.11894 21.3922
-0.460413 0.381877 21.1811
-0.651316 0.280726 20.8528
-1.07099 0.55312 20.3697
-0.707873 0.205482 21.0062
-1.025 0.640281 20.6347
-1.3357 0.456288 20.2297
-1.25149 0.589688 19.4924
-0.685499 0.186989 20.2631
-0.70805 0.547891 21.1068
-1.21573 0.737287 20.229
-0.935825 0.323899 18.408
0.969246 0.0290763 19.8418
1.4196 0.293952 19.3078
0.632967 0.043505 19.52
3.03917 0.101648 20.095
1.14529 -0.0926917 20.9031
1.68533 -0.0373167 21.202
0.996597 -0.504817 21.4719
0.36996 -0.152413 21.3863
0.515303 -0.510611 21.221
-0.239301 -0.0991931 20.9532
-0.403945 0.0196442 21.4403
-0.775223 -0.117844 20.4877
-1.33449 0.169068 19.998
-0.875015 0.0504503 21.0953
-1.49541 -0.240084 20.245
-1.42674 0.216893 19.7816
-0.734402 0.013498 20.4421
-1.27975 -0.263968 20.0308
-1.04724 -0.044935 18.7203
0.867448 0.282676 19.8983
0.888719 0.610775 19.6995
0.548449 0.237446 19.5995
1.96564 0.958915 20.1538
1.1177 0.213534 20.7903
1.35583 0.714931 20.711
1.73834 0.075914 21.2869
0.530685 -0.0449502 21.4051
0.929844 0.213057 21.6765
0.189055 -0.210642 21.6363
-0.329301 -0.162888 21.4157
-0.29334 -0.335233 21.5685
-0.87798 -0.520811 21.0591
-0.713381 -0.290673 20.9627
-0.682247 -0.63663 21.0557
-1.04805 -0.618704 20.5623
-0.564002 -0.28559 20.681
-0.598455 -0.600279 20.6079
-0.853188 -0.332977 20.0315
-1.50182 -0.426485 19.3074
-1.36979 -0.490652 21.3407
-0.25884 -0.10958 21.4497
0.548365 0.345391 21.1496
1.16392 0.562992 20.5032
0.915296 0.617629 20.7397
-1.60085 -0.0206122 19.2087
-1.53528 -0.266815 21.4244
-0.204892 -0.324038 21.1771
0.78001 0.114086 20.4638
1.51216 0.136268 20.0055
1.28989 0.245169 20.0865
-1.24778 0.555216 19.487
-1.6753 0.376444 20.8931
-0.950987 -0.162321 21.7487
0.490132 -0.34662 21.3949
0.998708 -0.637537 20.9038
1.09336 -0.471449 20.3617
0.0416933 -1.51215 16.2125
0 0 0
0 0 0
2.43045e-05 0.00444698 0.0774357
-0.0301497 -1.62961 -2.20835
0.017816 -1.63906 1.62088
0.0260359 0.151395 15.7122
0.0101295 -1.50141 -3.08331
-0.0110453 -2.42178 -0.775019
0.00639698 2.01361 17.5121
-0.0112229 2.47548 18.6074
0 0 0
-0.00494789 0.472689 -0.212968
0.00852897 -0.659263 4.33686
-0.000360397 -1.74308 9.40596
1.36791 -0.283347 19.3486
1.45491 -0.444881 21.3243
0.261929 -0.126993 21.4977
-0.569323 0.34233 21.0325
-1.17913 0.563146 20.4483
-0.954912 0.643712 20.6766
1.44702 0.0523133 19.2636
1.5993 -0.233158 21.3447
0.24987 -0.366602 21.2443
-0.78037 0.106782 20.4971
-1.5009 0.127999 20.0611
-1.2783 0.21558 20.0905
1.1857 0.544696 19.5011
1.67597 0.423347 20.8708
0.969212 -0.148083 21.7439
-0.488694 -0.34725 21.3739
-0.990405 -0.641883 20.8867
-1.08971 -0.471458 20.3872
-4.18688 -2.12855 4.08887
-0.668123 -2.2194 3.36757
-0.0365654 -0.0599853 1.14788
0.29494 0.0500124 0.770603
0 0 0
0.0354757 0.0263355 0.530856
-3.15223 1.21564 2.12506
-0.0217965 0.426132 0.821548
-0.099461 -0.0505884 0.993484
0.0988673 -0.0183238 0.28378
0.000622692 0.000953593 -0.0047165
0.237971 0.157934 1.2469
1.44141 -4.19314 4.0599
2.40114 -0.34608 2.49066
0.323322 -0.218448 2.47766
0 0 0
-0.307554 0.0576409 0.804098
-0.0264967 0.0179844 0.460689
0.0248264 0.373446 0.730742
8.27547 3.7605 6.55607
0.10747 -0.043607 1.05992
-0.00100991 0.00142986 -0.00706368
-0.0484453 -0.0206809 0.123757
-0.113724 0.0760423 0.602404
0.00574696 -0.0185811 0.225659
0.000180842 -0.000821599 0.0308621
0 0 0
6.78046e-06 -1.44881e-05 0.000789519
0.0201 0.00555669 0.688425
9.74079e-06 7.58944e-05 0.00959424
0 0 0
0.00127886 0.000509498 0.0659567
-0.361871 -0.310492 0.927763
-0.00501685 -0.0188678 0.348692
0.0863527 0.088321 0.445101
-0.075969 0.0213106 0.0802976
0.0083881 0.0149754 0.0579727
0 0 0
0.0697436 0.0765669 0.294935
0.0677381 -0.00470474 0.334682
-0.00561994 -0.00472426 0.467794
-8.22455e-07 -1.96753e-06 0.000109276
-0.000276295 -0.0046049 0.236896
-1.78518e-05 -0.000440884 0.00591683
-0.0156325 0.00143147 0.569435
-0.000292153 0.00021419 0.0154719
0.00157231 0.0119506 0.241821
0 0 0
0.333533 -0.283449 0.858154
0.06641 0.0193048 0.0713273
0 0 0
-0.0820845 0.0819433 0.417282
-0.0248345 0.0309271 0.0938181
-0.0597895 -0.00697951 0.315412
0 0 0
-0.0894314 0.0940836 0.375286
-0.0273514 -0.0007524 0.217073
-0.127012 0.0258358 0.0391004
0 0 0
-0.0192119 -0.120686 0.138762
-0.000119781 -0.00357746 0.0378921
0 0 0
0.000580851 0.000693481 0.00976288
-0.0129683 0.00820497 -0.00267861
0 0 0
-0.000194583 0.0626527 -0.0487582
0.000283839 0.000183325 0.00377385
0.0001273 0.00069554 0.0116964
0 0 0
-0.00049757 0.0300666 0.345247
-0.00226322 -0.00796517 0.0332181
-0.00972689 0.000298877 0.0255199
-2.14175e-05 0.00880538 -0.000754347
-2.41753e-05 0.000206575 -0.0018271
0.000866679 0.00218012 0.0137053
0 0 0
0.223978 0.116464 0.0601107
0 0 0
0 0 0
-6.25919e-05 -0.0099724 0.113358
0.00360287 0.00227551 -0.000768025
-0.000648392 0.000766892 0.010828
-0.000145714 0.000806367 0.0134218
0 0 0
0.010586 0.000382234 0.0285732
0.0205381 -0.0729306 0.30877
0 0 0
-4.37327e-18 1.09488e-17 6.87161e-17
0 0 0
0 0 0
4.83072e-05 -0.00409713 0.0181189
2.57855e-06 0.00107198 0.0097137
3.33209e-07 -1.62857e-06 5.37284e-05
0.000105551 -0.00242955 0.0773479
7.26696e-06 0.000415964 0.00258247
7.94672e-05 0.000482614 0.00385796
2.41045e-07 -1.40057e-07 5.79724e-05
0 0 0
0.000532771 0.00681389 0.0319842
0.0796801 0.0915436 0.807906
0 0 0
0.000260035 0.0338378 0.247766
-0.000188851 -0.00037295 0.015585
2.3442e-05 0.00377926 -0.00608244
0 0 0
-3.45561e-20 -4.5045e-19 -7.78206e-18
-2.01277e-05 -0.00490383 0.0205967
2.92683e-06 0.000434548 0.00406443
-7.08473e-06 0.000403593 0.00253782
-1.17234e-05 6.28608e-05 0.000496694
-0.0844515 0.0936352 0.869207
0 0 0
0 0 0
-0.00025332 -0.000100126 0.00340886
0 0 0
-0.0109934 -0.0543413 0.186785
-6.33044e-19 1.37617e-18 7.40202e-17
0.00199249 0.0175643 0.10934
0 0 0
0 0 0