# vtk DataFile Version 2.0
tri_press
ASCII
DATASET UNSTRUCTURED_GRID
POINTS 3682 float
-0.785 0.475 -2.2117
-0.782892 0.475 2.285
-0.815 0.795 -2.22625
-0.775 0.865 2.22511
0.791625 0.545 -2.275
0.78289 0.475 2.285
0.815 0.795 -2.22609
0.774919 0.855 2.235
-0.843552 0.415745 -0.7128
-0.873793 0.384801 0.7861
-0.836515 0.853182 -0.742463
-0.825516 0.87885 0.741324
0.857136 0.453244 -0.755
0.85698 0.427155 0.765
0.837704 0.851064 -0.73906
0.828027 0.874748 0.74797
-1.61401 0.258969 -3.39388
-1.62018 0.254242 -2.19717
-1.66641 0.202278 -0.696696
-1.69296 0.171075 0.805713
-1.64729 0.219077 2.30641
-1.62899 0.247406 3.50415
-1.63059 0.258717 4.70065
-1.61537 0.444145 -3.39526
-1.61983 0.454778 -2.20198
-1.67084 0.416809 -0.707271
-1.68968 0.388635 0.787044
-1.62023 0.438667 2.28238
-1.60951 0.463763 3.48126
-1.61913 0.472607 4.67967
-1.62957 0.793275 -3.40253
-1.63781 0.812279 -2.21795
-1.66514 0.846543 -0.735143
-1.65748 0.856986 0.745762
-1.60448 0.858052 2.23056
-1.59975 0.877761 3.43282
-1.61166 0.890103 4.63619
-1.64849 1.37025 -3.42237
-1.65378 1.39534 -2.23593
-1.66038 1.44665 -0.759422
-1.65639 1.48654 0.713766
-1.64177 1.50009 2.19363
-1.63271 1.50636 3.38703
-1.63045 1.51421 4.58612
-0.792381 0.280908 -3.40895
-0.787992 0.277685 -2.21279
-0.828574 0.210327 -0.707167
-0.86636 0.174705 0.802343
-0.82937 0.23914 2.30807
-0.814072 0.263247 3.50489
-0.815672 0.270091 4.69983
-0.794884 0.459034 -3.40659
-0.795885 0.479467 3.48238
-0.805899 0.483257 4.67905
-0.80822 0.789257 -3.40729
-0.789267 0.884387 3.43178
-0.799993 0.897213 4.63473
-0.823846 1.3687 -3.42618
-0.826985 1.39287 -2.23844
-0.832429 1.44992 -0.761545
-0.832842 1.49439 0.711093
-0.825212 1.50643 2.19045
-0.817949 1.51174 3.38386
-0.81506 1.51993 4.58295
0.827605 0.324907 -3.4491
0.829016 0.331845 -2.26313
0.857719 0.248235 -0.744726
0.835582 0.209066 0.781887
0.786809 0.250961 2.30177
0.796387 0.272013 3.50046
0.804843 0.280153 4.69453
0.817308 0.501806 -3.44536
0.79782 0.483737 3.481
0.807363 0.491083 4.67544
0.81838 0.810166 -3.42597
0.797219 0.884055 3.43438
0.809515 0.90256 4.6331
0.822231 1.38385 -3.43913
0.823899 1.40422 -2.24776
0.824412 1.4581 -0.767376
0.815864 1.50033 0.708229
0.80503 1.51107 2.18923
0.80633 1.51725 3.38202
0.811223 1.52727 4.5796
1.64435 0.336638 -3.46469
1.64787 0.339559 -2.27641
1.6849 0.268749 -0.75873
1.67424 0.226503 0.769648
1.62137 0.249103 2.29029
1.61393 0.269204 3.49273
1.62 0.280778 4.68863
1.6328 0.518387 -3.46262
1.62659 0.539917 -2.28019
1.68049 0.476785 -0.765623
1.68109 0.440286 0.756009
1.61785 0.460266 2.27275
1.61084 0.47901 3.4747
1.61973 0.490839 4.67064
1.63403 0.839537 -3.44386
1.63351 0.848439 -2.25
1.66557 0.870477 -0.756223
1.66041 0.873815 0.738305
1.60893 0.864179 2.23271
1.60845 0.885176 3.43254
1.62037 0.903762 4.63074
1.64532 1.40244 -3.4499
1.64856 1.42123 -2.25739
1.65206 1.46646 -0.774168
1.6429 1.50179 0.70507
1.62686 1.51264 2.18847
1.62382 1.51981 3.38135
1.62735 1.5304 4.57816
-0.822616 0.635 -2.24159
0.0033125 0.447992 -2.30536
-0.854449 0.4052 -1.46225
-0.808193 0.67 2.2843
-9.83477e-07 0.444091 2.31591
-0.847187 0.411056 1.53555
0 0.850646 -2.28182
-0.839381 0.837714 -1.48436
-4.05014e-05 0.857378 2.22743
-0.813961 0.885628 1.48322
0.813238 0.67 -2.26047
0.878973 0.44453 -1.515
0.806302 0.665 2.2874
0.856343 0.414669 1.525
0.839898 0.836579 -1.48258
0.816559 0.87996 1.49148
-0.84705 0.411896 0.0366501
-0.873835 0.634464 -0.727632
0.00679186 0.268016 -0.7339
-0.876999 0.631826 0.763712
-0.00840637 0.251984 0.77555
-0.83315 0.86815 -0.00056994
0.000594223 1.13662 -0.740762
0.00125551 1.32284 0.744647
0.85765 0.439608 0.005
0.873075 0.652154 -0.74703
0.87658 0.650951 0.756485
0.835364 0.865405 0.00445497
-0.895187 0.634732 -1.4733
0.890612 0.661077 -1.49879
0.00505218 0.310255 -1.48863
0.000297111 0.940012 -1.48347
0.00165625 0.6525 -2.36617
-0.877236 0.633145 0.0180401
0.876748 0.651553 0.00472748
-0.000807256 0.259624 0.020825
0.000924869 1.35026 0.00194252
-0.869784 0.650913 1.50938
0.869651 0.657976 1.50824
-0.00420368 0.296166 1.53028
0.000607507 0.950077 1.48735
-2.07424e-05 0.6675 2.34548
-0.815066 0.555 -2.2379
-0.390844 0.407931 -2.31209
-0.849674 0.410151 -1.83697
-0.809453 0.5725 2.29856
-0.391446 0.450307 2.30969
-0.828789 0.429279 1.91028
-0.823256 0.715 -2.23837
-0.4075 0.834481 -2.26569
-0.838749 0.827916 -1.8553
-0.793922 0.7675 2.25703
-0.38752 0.847887 2.21297
-0.801866 0.882699 1.85416
0.397469 0.442463 -2.34421
0.805886 0.6075 -2.27119
0.868824 0.461239 -1.895
0.391445 0.450375 2.30963
0.808669 0.57 2.30027
0.830829 0.433622 1.905
0.4075 0.834473 -2.2656
0.819676 0.7325 -2.24884
0.838971 0.827311 -1.85433
0.387439 0.846362 2.22139
0.79133 0.76 2.26192
0.804637 0.876378 1.86324
-0.841052 0.418421 -1.08753
-0.846538 0.412584 -0.338075
-0.866174 0.521364 -0.720216
-0.454857 0.268927 -0.72335
-0.867505 0.390914 1.16083
-0.84872 0.410051 0.411375
-0.870391 0.510816 0.774906
-0.473186 0.25422 0.780825
-0.83859 0.84609 -1.11341
-0.871104 0.751787 -0.735048
-0.834524 0.860358 -0.371517
-0.472345 1.10367 -0.741613
-0.822579 0.885079 1.11227
-0.866304 0.762861 0.752518
-0.828904 0.87307 0.370377
-0.510757 1.2981 0.742985
0.85672 0.460221 -1.135
0.477688 0.269181 -0.74445
0.85913 0.444689 -0.375
0.869608 0.550448 -0.751015
0.872262 0.405312 1.145
0.466953 0.254238 0.770275
0.858424 0.432272 0.385
0.872999 0.535944 0.760743
0.839438 0.844459 -1.11082
0.474469 1.10448 -0.739911
0.867546 0.757687 -0.743045
0.836281 0.857982 -0.367303
0.824912 0.879972 1.11973
0.51385 1.29721 0.746308
0.865269 0.769332 0.752228
0.831282 0.869663 0.376213
-0.88117 0.634866 -1.85745
-0.41048 0.64375 -2.28189
0.00418234 0.315715 -1.89699
0.00248437 0.550246 -2.38348
-0.885078 0.519966 -1.46778
-0.424698 0.309041 -1.47544
-0.853915 0.660456 1.89684
-0.404107 0.66875 2.31472
-0.00210233 0.319702 1.92309
-1.08629e-05 0.555795 2.39023
-0.866719 0.530985 1.52247
-0.425695 0.29338 1.53291
0.000148556 0.915852 -1.88264
0.000828125 0.751573 -2.36004
-0.870661 0.736223 -1.47883
-0.419542 0.917152 -1.48391
0.000283503 0.906729 1.85739
-3.06219e-05 0.762439 2.33294
-0.859545 0.76827 1.4963
-0.406677 0.937658 1.48528
0.866833 0.665539 -1.87963
0.407447 0.66125 -2.30182
0.890573 0.552803 -1.50689
0.442012 0.31147 -1.50181
0.853691 0.661488 1.89782
0.403141 0.66625 2.31369
0.866881 0.536322 1.51662
0.42607 0.293023 1.52764
0.868964 0.748828 -1.49068
0.420098 0.917184 -1.48302
0.859247 0.768968 1.49986
0.408583 0.936722 1.48942
-0.868972 0.519106 0.0273451
-0.461541 0.260536 0.0287375
-0.87518 0.634598 -1.10047
-0.876161 0.633804 -0.354796
0.00592202 0.278902 -1.11126
0.0029923 0.260001 -0.356538
-0.877491 0.632485 0.390876
-0.880312 0.641369 1.13655
-0.00460681 0.2591 0.398188
-0.00630502 0.273678 1.15291
-0.870743 0.758422 0.00873506
-0.525074 1.32713 0.000686288
0.000445667 0.950148 -1.11211
0.000759546 1.33789 -0.36941
0.00109019 1.34464 0.373295
0.000931511 1.16881 1.116
0.872137 0.543111 0.00486374
0.472985 0.260489 0.0129125
0.874237 0.656616 -1.12291
0.87547 0.651853 -0.371151
0.877124 0.651252 0.380606
0.879568 0.654463 1.13236
0.869415 0.765158 0.00459123
0.527549 1.32664 0.00319874
-0.878634 0.537483 -1.84721
-0.865657 0.522535 -1.094
-0.873737 0.740023 -1.10694
-0.863843 0.725612 -1.85638
0.883033 0.580152 -1.88731
0.865301 0.740664 -1.86698
0.870814 0.750218 -1.11686
0.870131 0.552751 -1.12895
-0.407771 0.324247 -1.86698
0.419741 0.324915 -1.896
0.436988 0.279219 -1.12313
-0.421539 0.278566 -1.09939
-0.413521 0.894785 -1.86897
-0.418751 0.925062 -1.11276
0.419623 0.924831 -1.11147
0.413799 0.894751 -1.86849
-0.400662 0.552623 -2.36921
-0.40899 0.733286 -2.29425
0.407474 0.742036 -2.31275
0.402458 0.578873 -2.33621
-0.868664 0.51969 -0.346435
-0.869837 0.514883 0.401126
-0.869464 0.761112 0.380626
-0.870087 0.754686 -0.363156
0.87167 0.546381 -0.373076
0.868183 0.761274 -0.369227
0.86823 0.767689 0.378409
0.872813 0.539405 0.382803
-0.459753 0.261624 -0.347306
0.476896 0.261717 -0.365769
0.468728 0.259845 0.391594
-0.466144 0.259817 0.404781
-0.546609 1.3112 -0.370463
-0.521626 1.32004 0.371836
0.524411 1.31935 0.374754
0.548664 1.31087 -0.368356
-0.890903 0.519649 1.14869
-0.851978 0.551742 1.90356
-0.845093 0.767885 1.8755
-0.867714 0.761804 1.12441
0.893482 0.537688 1.13868
0.866823 0.765909 1.12605
0.845195 0.764484 1.88053
0.852114 0.553161 1.90141
-0.433398 0.27212 1.15687
0.425178 0.271762 1.14896
0.408757 0.321207 1.91405
-0.408571 0.321274 1.91668
-0.409404 1.14799 1.11413
-0.397099 0.897819 1.85578
0.398011 0.897311 1.86032
0.411612 1.14513 1.11786
-0.397777 0.564148 2.3572
0.397293 0.562898 2.35876
0.39529 0.761219 2.30305
-0.395814 0.764969 2.30268
-0.802232 0.515 -2.227
-0.587922 0.461412 -2.24195
-0.824707 0.435205 -2.02434
-0.803235 0.52375 2.29884
-0.587169 0.458968 2.30103
-0.815797 0.442183 2.09764
-0.818282 0.755 -2.23146
-0.61125 0.812446 -2.24368
-0.833813 0.818396 -2.04078
-0.787247 0.81625 2.24386
-0.58126 0.842487 2.20508
-0.792312 0.877729 2.03964
0.594547 0.511719 -2.29162
0.803075 0.57625 -2.27741
0.837794 0.49555 -2.085
0.587167 0.458896 2.3011
0.802321 0.5225 2.29918
0.816765 0.444406 2.095
0.61125 0.812482 -2.24359
0.810131 0.76375 -2.23026
0.833923 0.818093 -2.04021
0.581179 0.839949 2.21746
0.785148 0.8075 2.25048
0.795511 0.871422 2.04912
-0.840885 0.4185 -0.900163
-0.845326 0.413884 -0.525438
-0.859288 0.466342 -0.716508
-0.685534 0.269676 -0.718075
-0.868532 0.389975 0.973463
-0.849264 0.409419 0.598738
-0.869768 0.448971 0.780503
-0.705873 0.254745 0.783463
-0.837473 0.849557 -0.927937
-0.857989 0.804574 -0.738756
-0.835438 0.856688 -0.55699
-0.678938 1.02744 -0.742038
-0.826 0.883917 0.926797
-0.853112 0.824456 0.746921
-0.826185 0.874935 0.55585
-0.676391 1.10498 0.742154
0.854901 0.45876 -0.945
0.713067 0.269903 -0.749725
0.858081 0.449018 -0.565
0.863326 0.501869 -0.753008
0.874134 0.40672 0.955
0.704972 0.254685 0.767638
0.857876 0.42954 0.575
0.866522 0.480783 0.762871
0.838482 0.847672 -0.924939
0.681978 1.02956 -0.739486
0.857428 0.806777 -0.741053
[...]
POINT_DATA 3682
SCALARS point_scalars float 1
LOOKUP_TABLE default
-77.0922
-37.4311
-94.4125
-38.3439
-19.3405
-37.412
-100.32
-38.0789
-33.8389
-34.9245
-44.9118
-40.3521
-34.1892
-31.8728
-45.0917
-40.0149
-22.5087
-69.3568
-33.8235
-39.5456
-37.6872
-36.8843
-32.7714
-66.2267
-96.3137
-34.1022
-36.1538
-38.1788
-39.0733
-32.7714
-52.6955
-113.784
-37.4885
-37.6323
-38.0783
-39.7452
-32.7714
-64.3033
-105.308
-44.265
-40.4502
-36.8085
-38.1024
-38.5271
172.083
-87.6256
-34.148
-40.1659
-36.8734
-29.7547
-29.7547
172.083
-29.7547
-29.7547
172.083
-30.3431
-29.7547
8.18999
-115.118
-46.4146
-55.8872
-36.0082
-31.8329
-28.874
163.749
-60.3877
-34.8621
-38.5079
-36.8153
-29.7422
-29.7422
174.375
-29.7422
-29.7422
174.375
-29.7422
-29.7422
14.3643
-109.38
-54.641
-55.9825
-36.1567
-31.3946
-28.8643
-32.0279
-88.4583
-34.1234
-34.2681
-37.5447
-36.8623
-32.7244
28.946
-103.927
-34.1125
-33.336
-38.0032
-39.089
-32.7244
28.946
-111.819
-37.3584
-37.6693
-38.2387
-39.7735
-32.7244
-87.2681
-112.755
-42.9708
-40.9814
-36.5974
-37.5915
-38.3459
-32.8385
75.4054
-39.5643
-36.8523
-22.3165
-36.7424
-96.7539
-29.8827
-32.0743
-40.6115
23.2404
-42.6765
-36.8389
-37.7096
-29.806
-40.431
-34.6512
-35.0541
-38.876
-35.957
-38.5269
-46.1746
37.5241
-56.3171
-35.0392
-35.3161
-35.9489
-46.0963
-37.6834
-37.4236
-46.5281
-10.6998
200.531
-37.4793
-37.9525
-36.0655
-80.5478
-36.9669
-37.0948
-35.3389
-39.19
-26.0753
-30.3414
-3.73563
-67.565
-37.9857
-27.799
-36.1544
-37.959
-103.301
-49.616
-37.9421
-31.4875
-37.3464
37.8411
28.946
-64.8658
-27.7347
-37.8415
-36.1019
-101.801
-31.3333
-49.2408
-31.4036
-37.3533
-37.2261
-32.6484
-35.1831
-33.9169
-38.3951
-37.5413
-34.0545
-34.1832
-38.4643
-25.9045
-38.2723
-49.9724
23.9517
-45.1666
-38.2533
-43.8959
-55.9021
-32.0974
-38.7353
-35.3777
-34.1197
-37.582
-38.3502
-34.3422
-33.6948
-25.8496
23.5491
-38.4923
-49.9701
-45.1045
-55.9348
-38.1853
-43.5435
-52.266
179.605
-77.2703
200.438
-39.0558
-42.7224
-35.9504
-28.8405
-31.3074
-21.9563
-36.7372
-35.9244
-42.0201
164.746
-34.7775
-15.7485
-35.9558
-26.9358
-37.8581
-39.8894
-53.2573
178.548
-40.6779
-44.0398
-36.0106
-28.8084
-37.0573
-35.9902
-34.7442
-15.5636
-37.8772
-39.8491
-35.7166
-35.6323
-31.139
-38.119
-41.2484
-36.6402
-36.6108
-39.0558
-35.9221
-37.8369
-40.6077
-68.9314
14.9411
-119.923
-65.434
-43.6123
-36.0866
-35.633
-30.6526
-38.69
-36.8437
-39.1193
-41.2464
-68.7106
-58.1636
-31.696
-30.2883
-52.0201
-56.0309
-52.2938
-30.0462
-31.4714
-71.7081
-76.451
-41.0972
-41.1691
-44.2784
5.97127
6.18975
-43.9499
181.215
176.254
162.949
180.315
-35.9456
-34.9588
-39.6785
-42.1
-36.3433
-42.6144
-39.66
-35.2428
-36.2033
-36.2705
-35.3219
-35.4101
-110.844
-58.424
-58.2404
-109.647
-38.1015
-35.686
-35.9929
-40.7439
-38.8067
-40.817
-36.016
-35.7391
-37.7563
-37.7644
-33.1936
-33.183
-44.834
-35.9151
-35.8654
-44.8059
-28.4854
-28.3854
-28.9744
-29.0067
-71.3848
-13.1843
-70.0943
-37.9365
-31.8831
-37.8819
-46.6809
-68.5852
-77.4464
-38.5244
-32.2103
-36.2605
94.157
-1.11625
-78.3309
-31.8328
-37.8849
-37.8472
-69.1139
-69.6098
-76.7273
-32.0931
-38.1413
-36.1682
-32.6263
-34.6048
-33.7356
-36.8395
-39.3395
-32.5663
-34.3306
-40.8067
-32.8997
-41.0655
-49.7716
-39.3086
-43.4368
-39.4322
-42.4803
-47.8454
-32.6599
-37.2751
-34.9197
-33.9368
-39.5376
-40.9785
-33.4196
-32.822
-32.962
-40.4392
-41.3318
-49.8205
-43.6425
-46.6882
-39.3612
-42.0441
-37.6882
-33.1055
-81.9754
168.328
42.6422
53.2545
-123.827
133.868
-49.4045
-38.1315
-39.4808
-40.0676
-39.0612
-36.4636
-36.9116
-29.8453
-25.1194
-25.1079
-29.632
-22.0055
-35.2117
-38.8292
-36.6611
-35.8541
-106.68
-106.843
-70.9827
54.033
-37.4812
-25.9093
-33.4978
-20.9795
-31.7524
-31.7337
-33.6949
-29.5372
-38.875
-43.5583
-38.6183
-40.7178
70.2002
-40.4976
-88.8331
170.27
-52.9816
-37.9739
-41.5126
-43.5315
-38.7274
-36.223
-36.9753
-29.8351
-35.4211
-38.0213
-37.3768
-36.1879
-37.2965
-25.8139
-33.4759
-20.7339
-38.791
-43.1906
-38.5585
-40.6593
-35.4434
-34.2124
-35.1729
-34.9265
-34.3284
-36.3048
-32.4274
-37.2149
-38.7512
-38.8948
-39.9869
-37.1904
-35.0465
-36.8622
-35.8553
-37.6963
-38.5109
-38.4543
-36.4168
-39.104
-48.0629
-45.7593
-42.5743
-54.0793
36.2336
36.1776
26.9763
-19.075
-56.5187
-56.5265
-60.57
-51.6517
-35.6311
-34.4566
-35.6226
-34.774
-34.5221
-36.5221
-32.3799
-37.6442
-34.9628
-37.1163
-36.0432
-37.83
-47.9483
-45.4246
-42.7343
-53.8073
-45.5079
-38.7384
-36.2449
-33.4076
-44.8172
-39.736
-36.1686
-33.1384
-57.6827
-45.2015
-45.8008
-41.7616
-24.3149
-11.7477
-11.6406
2.5941
196.206
203.772
192.532
196.446
-36.4926
-38.1366
-37.0247
-38.7755
-36.976
-38.7895
-37.4647
-39.2636
-35.9787
-36.6831
-35.7967
-35.9997
-78.3823
-94.5815
-71.4909
-78.2742
-35.7187
-36.7464
-37.3242
-38.9655
-35.8095
-37.0329
-37.3899
-39.0537
-33.4644
-35.5248
-35.5421
-36.6425
-37.9331
-39.3998
-39.3826
-40.4341
-27.2674
-24.3829
-26.7116
-27.2215
-78.8586
163.723
-97.0331
114.168
-62.1648
-71.9307
-37.1303
-30.4079
-33.9806
-26.4829
-35.888
-35.2065
-81.8383
165.202
-73.8428
67.6485
-51.7737
-47.5856
-36.6999
-30.2622
-33.6233
-29.8447
-36.137
-36.5508
-97.4478
150.093
-88.7473
173.935
-59.2964
-78.0473
-33.9038
-26.4272
-37.1738
-30.3567
-35.8951
-35.1919
-73.3179
60.7556
-84.4036
166.548
-51.9049
-46.9809
-33.5649
-29.7609
-36.7927
-30.0593
-36.0432
-36.4965
-31.9805
-42.42
-35.4804
-35.7139
-32.0653
-35.3384
-39.9179
-36.6786
-37.7984
-37.2239
-34.4745
-34.651
-34.087
-37.3246
-36.1002
-38.9318
-30.2164
-7.25742
-33.7276
-41.1988
-44.8352
-68.8595
15.2327
-17.3512
-42.4638
-48.5991
-38.5365
-39.9175
-41.2162
-48.4532
-57.3477
-53.9161
-32.019
-39.0886
-40.1794
-36.819
-35.8221
-35.585
-32.1749
-35.6748
-38.2151
-37.2402
-35.9926
-38.9044
-34.8321
-34.422
-34.4882
-37.1037
-30.1544
-7.0678
15.5465
-21.598
-33.5464
-41.6312
-45.0575
-67.4363
-42.5999
-48.4085
-57.4117
-53.8133
-38.4172
-40.0407
-41.0635
-48.0889
-54.7273
-52.0615
178.937
180.594
-74.2013
-77.2728
206.163
205.808
-48.3153
-36.9197
-53.4779
-39.9292
-35.9899
-35.9253
-29.0185
-29.0709
-31.8254
-31.8284
-24.9243
-24.8966
-39.7053
-35.1986
-36.7386
-34.5258
-42.1213
-41.9669
190.487
195.221
-31.155
-41.5311
-28.097
-4.66516
-35.9376
-35.9076
-27.6595
-27.7677
-36.5082
-39.4589
-41.4132
-38.0906
-54.1006
-52.7314
177.436
184.564
-49.5201
-36.5192
-55.958
-39.6926
-35.9644
-36.0397
-29.0236
-29.0211
-39.2334
-35.3627
-36.7272
-34.6055
-41.7937
-30.9005
-4.48205
-27.8706
-39.6123
-36.5382
-38.0383
-41.3778
-36.3299
-35.2926
-36.2682
-35.3082
-31.5358
-30.9133
-36.7827
-39.8834
-41.3838
-41.1541
-36.5746
-36.641
-35.7255
-37.6956
-38.9041
-39.5697
-35.8045
-35.8198
-37.8136
-37.8247
-40.4868
-42.1437
-81.3614
-63.2499
12.3319
12.4722
-116.074
-116.214
-63.9997
-63.9359
-43.8247
-43.8158
-36.6415
-35.5442
-36.2874
-35.2872
-30.2806
-31.1101
-37.3405
-40.2034
-38.0091
-36.0658
-38.9826
-39.8119
-42.6272
-40.8219
-62.868
-80.9092
-72.5026
-48.6683
-47.1851
-80.4547
-32.2433
-32.2089
-35.4382
-38.1328
-35.6285
-29.8884
-32.6262
-32.9797
-79.3085
-83.115
-42.8904
-40.3809
-85.3658
-89.2708
-47.6305
-50.8967
-78.9279
-40.3877
-42.9822
-86.1625
-35.1247
-32.6623
-31.9725
-29.7697
-32.3072
-36.699
-34.8058
-32.1685
-105.849
-115.067
-56.0453
-52.8058
-96.1261
-56.6848
-57.3383
-110.925
-40.5059
-40.1215
-41.4472
-33.9117
-40.2012
-31.0577
-41.2211
-39.8934
-81.1128
-31.7081
-25.0389
-70.5057
-10.0473
24.842
0.875168
-13.0107
-10.1907
-12.7948
0.988789
24.9852
-79.5616
-70.2781
-24.922
-31.3641
60.2675
171.508
198.139
120.451
81.9992
90.7414
188.969
169.373
80.7103
166.233
191.636
73.008
151.769
150.777
197.472
172.653
-34.9552
-35.8635
-37.0658
-36.0959
-33.3074
-34.941
-36.0095
-34.7747
-40.0774
-42.5085
-38.2349
-36.8864
-44.2096
-38.8715
-39.7401
-44.4889
-35.1653
-36.4864
-37.6372
-36.1733
-44.5036
-44.5862
-40.1613
-39.2322
-39.8933
-37.0695
-38.6982
-42.453
-34.016
-35.1004
-36.431
-35.2763
-35.9683
-37.0579
-36.6034
-35.4731
-36.0159
-35.435
-36.6412
-37.1515
-34.4011
-36.3199
-35.6834
-34.4654
-34.7183
-34.5153
-35.6768
-36.3477
-80.0602
-59.2851
-93.1559
-10.6887
-47.1021
-59.9012
-69.6483
-52.1676
-46.8664
-51.8373
-69.5534
-59.8802
-79.1635
-11.69
-93.0396
-58.778
-37.7054
-39.4058
-39.5866
-37.4042
-36.9818
-36.9693
-35.4163
-35.0418
-36.1208
-36.9706
-36.0913
-36.8096
-41.8325
-38.5209
-38.9693
-40.6983
-37.571
-37.4232
-39.2053
-38.9634
-41.9745
-40.679
-39.2193
-38.7258
-36.1744
-36.8871
-36.1521
-36.952
-36.991
-35.1578
-35.5535
-37.0371
-38.0739
-39.0767
-36.7061
-36.5226
-37.9062
-36.2932
-36.7105
-39.0695
-36.9479
-30.9608
-33.7695
-35.7738
-37.0353
-35.4729
-33.7515
-31.0335
-52.6846
-43.3296
-40.7259
-52.2647
-34.3355
-33.6427
-38.0077
-38.6206
-34.2547
-38.5677
-37.9775
-33.6058
-53.8546
-52.1468
-40.7219
-43.2361
-30.7304
-22.6264
-26.63
-29.9667
-30.7032
-29.9469
-26.5668
-22.5856
-30.7206
-29.3729
-27.5984
-29.9628
-30.9694
-30.0251
-27.6355
-29.4703
-70.2864
-27.1294
-88.3504
-37.5987
-32.9891
-38.193
-74.0066
-78.6315
-105.301
-38.4867
-33.6875
-36.6967
94.3426
-17.7207
-80.1505
-32.9233
-37.5588
-37.9921
-71.0252
-89.9214
-107.664
-33.6615
-37.917
-36.9307
-33.6404
-34.5217
-33.683
-33.169
-38.1877
-29.8599
-34.7283
-37.9736
-41.2851
-43.1891
-47.3797
-56.4563
-42.1237
-39.9595
-41.329
-41.1049
-33.4461
-34.8857
-34.3786
-33.9534
-34.1668
-35.0155
-32.8906
-32.0134
-41.2326
-56.672
-43.3944
-47.5664
-42.3033
-40.8574
-39.855
-41.1312
-32.7425
-32.8822
-122.99
144.649
72.4898
67.8167
-144.83
60.8144
-43.323
-37.4446
-39.5013
-39.5625
-38.0908
-36.7976
-38.7551
-30.9853
-22.9393
-22.9449
-28.1896
-22.1289
-35.7266
-38.612
-36.4084
-35.8692
-109.008
-105.636
-80.9803
-42.9155
-33.173
-27.5912
-32.1542
-24.5909
-32.0121
-32.0117
-32.6906
-31.5672
-39.8478
-41.6975
-39.3448
-41.5493
7.573
-10.1621
-127.665
154.91
-46.9678
-40.2753
-41.9175
-43.6274
-38.1252
-36.5915
-38.9357
-30.854
-37.015
-37.6563
-37.665
-36.398
-33.1018
-27.4854
-31.9196
-24.3524
-39.5992
-41.4701
-39.0588
-41.4886
-35.2228
-34.2788
-34.8904
-34.482
-34.5783
-35.5535
-33.6046
-36.2231
-38.8269
-38.8833
-39.5945
-38.0749
-35.518
-36.3933
-35.7102
-36.709
-38.4169
-38.4783
-36.6297
-39.4497
-47.4649
-46.4867
-44.8269
-49.2674
37.7603
37.7054
37.7296
23.4628
-56.4072
-56.4084
-58.4326
-54.2706
-35.5564
-34.6809
-35.3299
-34.6093
-34.8519
-35.8383
-33.7397
-36.6567
-35.497
-36.4678
-35.8091
-36.6239
-47.0485
-46.3092
-44.7532
-49.0113
-40.805
-38.2134
-36.98
-36.2723
-40.8104
-38.6708
-36.7875
-35.8809
-51.4393
-46.0634
-46.425
-42.955
-17.4945
-10.7782
-10.7247
-4.00876
197.199
202.949
196.535
196.802
-36.9584
-37.8318
-37.2756
-38.0351
-37.4416
-38.3844
-37.6595
-38.5597
-36.0363
-36.2945
-35.8948
-36.0534
-80.0676
-86.8814
-75.4912
-80.0165
-36.1831
-36.9017
-37.094
-38.0949
-36.2957
-37.1015
-37.2113
-38.0859
-34.4588
-35.377
-35.3763
-35.9782
-38.6418
-39.2257
-39.2161
-39.604
-26.5151
-24.961
-26.5016
-26.4985
-37.9754
-48.3807
-112.156
119.064
-2.5175
17.2152
-104.003
54.6147
-69.7045
-57.8216
-64.7002
-72.834
-37.5485
-38.2718
-38.2081
-31.3059
-29.9909
-26.9038
-32.0301
-26.84
-36.6213
-35.297
-36.0301
-36.2906
-45.3703
-37.3091
-118.407
139.033
-88.751
-100.671
-90.2172
-19.0774
-59.7278
-42.7895
-51.7743
-48.4001
-38.6472
-36.8408
-39.1638
-31.7063
-31.6593
-31.5542
-32.5548
-30.673
-36.554
-38.3637
-36.6968
-37.5592
63.479
40.536
-63.062
92.4838
14.9032
122.637
-108.515
164.776
-63.8992
-56.782
-62.0876
-77.0254
-29.9271
-26.8324
-31.9624
-26.7744
-37.5235
-38.1502
-38.3066
-31.2732
-36.582
-35.2845
-36.0074
-36.3013
-89.7392
-96.7666
-89.0241
-26.735
-41.4384
-38.8016
-123.211
130.016
-59.1929
-42.4831
-51.3941
-47.712
-31.5706
-31.5027
-32.4761
-30.5481
-38.2548
-36.3195
-39.3083
-31.5259
-36.3625
-38.2067
-36.4128
-37.4736
-33.4011
-36.4718
-32.2767
-40.824
-35.1014
-35.3292
-35.301
-35.2353
-33.8082
-34.0872
-32.8684
-34.6851
-37.9979
-38.6205
-39.5415
-37.4613
-37.6622
-37.6278
-37.571
-37.1028
-33.4143
-34.3515
-34.2326
-34.253
-34.0981
-34.4375
-33.8343
-34.8705
-38.7542
-38.5561
-36.533
-39.1752
-28.6873
-25.0799
-28.515
-15.9316
-39.5737
-37.1143
-36.072
-40.0496
-49.775
-49.1819
-47.7906
-56.6187
1.84963
33.8615
21.9374
10.907
-44.7588
-44.026
-43.6863
-50.3048
-38.8378
-37.5541
-38.1632
-38.9117
-43.1213
-44.8655
-42.6176
-45.7016
-54.8847
-56.5789
-57.0821
-56.6159
-32.6961
-35.0081
-32.3156
-33.8918
-38.5191
-38.8581
-39.9289
-37.6778
-34.9917
-35.6129
-35.5768
-35.3517
-34.0216
-34.3128
-33.0571
-35.0195
-38.3031
-37.7276
-37.821
-37.0823
-38.6398
-38.4676
-36.4113
-39.0788
-33.9613
-34.4888
-34.5615
-34.1746
-33.1546
-34.4001
-34.0828
-34.2771
-28.8008
-25.0501
-28.1641
-15.7782
1.61489
33.7935
22.269
9.73195
-39.8137
-37.2293
-36.0285
-40.4754
-49.6687
-48.8627
-47.8464
-56.3082
-44.7826
-43.6719
-43.8727
-50.1946
-54.778
-56.606
-57.1596
-56.7594
-38.763
-37.7483
-38.1184
-38.9739
-42.8928
-44.6357
-42.5024
-45.3342
-62.3809
-49.3898
-53.5035
-52.1924
177.646
192.263
181.393
179.833
-91.6346
-65.7765
-75.6057
-77.3271
166.369
204.784
219.637
200.366
-39.318
-38.896
-42.4182
-37.9309
-41.1251
-44.0348
-47.6143
-39.9825
-36.3599
-35.6559
-35.9816
-35.9092
-29.4709
-28.139
-28.8189
-29.0073
-30.4644
-32.322
-31.4514
-31.4541
-21.0909
-23.8213
-22.8471
-22.7878
-36.7019
-36.751
-38.7696
-35.5645
-36.0599
-35.7443
-36.3013
-35.4055
-53.4865
-32.0325
-42.0661
-42.0011
130.643
178.177
189.526
184.416
-34.051
-35.5074
-32.6951
-37.6595
-18.4641
-13.3301
-21.7951
-10.1741
-34.84
-37.0613
-35.9589
-35.9422
-28.3944
-26.8015
-27.8796
-27.9293
-38.1708
-37.5795
-37.0605
-38.4177
-40.2315
-39.6181
-40.5872
-39.1022
-64.9586
-48.0429
-53.6242
-52.9906
171.109
195.698
177.884
181.808
-41.1771
-40.2765
-44.3374
-38.4586
-43.1669
-44.9331
-49.4861
-40.5962
-36.3824
-35.7309
-35.9391
-36.0361
-29.4333
-28.1209
-28.8222
-28.9629
-37.08
-37.0359
-38.9236
-35.8141
-36.1791
-35.778
-36.3245
-35.4857
-34.0845
-35.4411
-37.9656
-32.5976
-18.2514
-13.1768
-9.99619
-21.586
-38.1445
-37.6127
-38.44
-37.0944
-40.1877
-39.5903
-39.0535
-40.5524
-35.4481
-36.0136
-36.1263
-35.4234
-35.3515
-35.8544
-35.9173
-35.4087
-31.5624
-31.5596
-31.3558
-30.9968
-37.7397
-38.2731
-37.3403
-38.9614
-40.1985
-41.7765
-41.3787
-41.1911
-36.2415
-37.0823
-36.6289
-36.6448
-36.1409
-36.8539
-36.1766
-37.0462
-38.5221
-39.172
-38.9568
-39.2179
-36.1284
-35.8116
-35.8966
-35.8971
-38.482
-37.2018
-37.8362
-37.8401
-41.5132
-39.708
-40.7446
-41.1654
-59.9721
-75.201
-74.4645
-66.2833
20.4396
8.98509
14.0217
14.0986
-98.0256
-105.29
-116.958
-117.133
-62.8909
-68.2234
-65.0999
-65.0646
-46.9002
-41.6073
-43.5414
-43.51
-35.8564
-36.5202
-36.4505
-35.7747
-35.3257
-35.8708
-35.9282
-35.407
-31.2452
-31.05
-30.4766
-30.8545
-38.2877
-38.8981
-37.993
-39.3969
-36.3526
-37.1462
-37.3096
-36.4547
-38.9654
-39.0273
-39.0007
-39.3421
-41.9074
-40.1811
-41.5874
-41.0662
-59.7207
-75.0269
-65.8704
-74.1455
-63.3888
-59.9925
-56.3516
-54.5966
-31.7827
-31.8704
-33.6774
-31.6372
-30.2203
-31.5332
-30.2104
-30.6076
-61.8315
-51.8616
-51.9034
-45.915
-64.0421
-57.859
-55.1979
-55.1334
-62.6692
-51.9785
-52.4863
-46.2629
-30.0844
-31.3452
-29.8417
-30.0849
-31.8058
-31.6287
-33.3061
-31.2915
-87.9838
-72.3431
-72.3332
-60.9582
-98.9775
-77.7748
-76.7386
-64.3608
-40.9215
-39.9911
-41.0128
-41.3136
-41.6646
-40.0369
-41.2321
-41.1245
-56.4521
-46.8012
-42.8828
-35.2615
0.289051
10.2487
0.728699
9.88601
0.540128
10.5031
0.929085
10.0585
-56.0512
-46.3394
-42.6476
-34.9843
151.082
173.42
180.389
197.569
169.816
143.696
180.217
193.003
120.673
163.507
176.936
171.439
179.953
172.032
196.121
180.989
-35.721
-35.7858
-36.2337
-36.2186
-34.7279
-34.5323
-35.2311
-35.2193
-38.9603
-40.3731
-38.6205
-39.9975
-41.9109
-43.3016
-40.8619
-42.1017
-36.047
-36.1217
-36.5475
-36.831
-42.3374
-43.7086
-41.2378
-42.5722
-38.9193
-40.2203
-38.8515
-40.0808
-35.0245
-34.8731
-35.4637
-35.6726
-36.0012
-35.8129
-36.5929
-36.3563
-35.9183
-36.0367
-36.4751
-36.6208
-35.5716
-34.9447
-35.6259
-35.2791
-35.0883
-35.6573
-35.3329
-35.6668
-97.3078
-84.2221
-93.0726
-111.405
-51.9348
-58.2608
-60.2955
-62.0988
-58.4575
-51.3253
-62.0006
-59.9698
-86.6664
-95.3142
-111.18
-92.509
-37.9069
-38.3032
-39.1705
-38.5264
-36.0149
-35.7293
-35.8259
-35.2817
-36.1151
-36.0876
-35.9504
-36.1923
-41.4402
-40.6233
-40.2495
-40.0921
-38.6476
-38.6333
-39.2196
-38.9613
-41.4485
-40.8007
-40.1953
-40.2313
-36.1655
-36.0675
-35.992
-36.1817
-36.0344
-35.759
-35.877
-35.359
-37.5378
-38.4163
-37.117
-37.7748
-37.5748
-38.414
-37.1056
-37.7711
-32.9977
-34.1106
-32.404
-33.7652
-33.0313
-34.1002
-32.4
-33.7061
-45.9715
-48.492
-42.825
-44.1928
-34.7797
-36.0941
-35.9004
-36.9994
-34.7172
-36.0345
-35.8595
-36.9672
-45.8405
-48.375
-42.7638
-44.1415
-29.7678
-27.1336
-28.8986
-27.3882
-27.0744
-29.6926
-27.0769
-28.8679
-29.2528
-29.3475
-28.4308
-29.0012
-29.4171
-29.3431
-29.0483
-28.5516
-107.074
34.7595
-76.7109
10.1063
-71.0489
-87.3191
-38.1245
-31.8231
-34.9673
-31.1516
-37.403
-39.0178
-115.342
99.7637
-99.0201
29.7444
-77.5402
-78.6629
-38.4509
-32.9016
-33.2885
-31.4432
-36.0076
-35.3835
-28.4476
131.822
-93.6658
157.603
-81.945
-92.4898
-34.9136
-31.1136
-38.1801
-31.7847
-37.3709
-38.9651
-96.4139
26.3712
-119.741
63.1616
-77.162
-78.892
-33.171
-31.1536
-38.8752
-32.5662
-36.0422
-35.3775
-32.3223
-35.6709
-34.6744
-34.9307
-32.8876
-34.3305
-38.844
-36.4673
-38.1835
-40.7614
-32.8793
-33.4015
-31.9074
-36.4005
-35.3614
-39.8394
-34.314
-24.906
-38.551
-43.005
-47.3633
-59.5777
-15.4731
-68.8351
-42.7181
-47.4331
-39.5634
-40.4295
-41.3431
-44.0958
-47.0534
-48.0789
-32.4518
-35.4305
-40.9948
-36.7289
-34.9712
-35.1535
-33.0821
-34.6408
-38.1897
-42.9004
-35.1235
-40.3246
-33.6928
-33.1093
-33.5284
-33.8455
-34.0919
-25.2496
-15.5583
-71.4028
-38.6873
-43.3246
-47.4488
-59.818
-42.8827
-47.8307
-46.7328
-48.9763
-39.4987
-40.6017
-41.0941
-43.6264
-119.565
143.228
-120.843
148.515
-82.0909
-82.8141
169.817
168.472
-127.507
72.3319
-117.299
92.431
-120.077
-122.464
107.592
115.981
-48.9363
-50.8656
-38.7563
-27.0089
-42.6372
-38.3629
-46.6458
-35.7481
-38.4384
-30.8767
-39.0868
-31.2289
-36.9734
-36.8566
-29.9061
-29.9752
-29.1089
-23.7923
-29.0399
-23.761
-30.1796
-30.2207
-22.115
-22.158
-34.9772
-35.8102
-39.1929
-36.3914
-38.7562
-35.287
-36.3107
-35.6892
-83.8548
-20.1302
-83.471
-29.7296
-69.7466
-69.6861
68.1143
56.445
-39.5123
-33.7451
-28.3038
-18.6074
-31.3682
-36.4902
-25.9857
-16.7937
-32.5836
-31.4702
-32.5528
-31.3949
-33.6863
-33.6689
-29.5454
-29.5735
-37.8213
-39.7891
-41.6606
-45.7433
-37.7303
-39.6077
-41.8493
-39.6661
-113.302
162.037
-129.06
150.072
-89.0451
-87.4237
168.434
172.345
-51.6221
-56.1639
-37.0788
-35.5793
-45.9711
-38.9698
-48.8067
-40.0395
-38.5817
-30.7979
-39.3389
-31.0491
-36.9356
-37.0262
-29.8901
-29.894
-35.1463
-36.1862
-38.5699
-35.8779
-38.8984
-35.6054
-36.1936
-35.7338
-39.2152
-33.3734
-28.0104
-18.4093
-36.5795
-31.3086
-16.5725
-25.7075
-37.3441
-39.8099
-41.6021
-45.5257
-39.5092
-37.6748
-39.5887
-41.7795
-35.6325
-35.0483
-34.4723
-33.6812
-35.6221
-34.8231
-35.2503
-34.5653
-33.158
-35.2964
-34.6172
-37.7836
-32.2864
-32.627
-36.5457
-37.9243
-39.6264
-37.9077
-39.8036
-38.012
-40.0515
-39.9302
-37.1529
-37.1973
-34.8092
-35.8949
-36.66
-37.5566
-35.4078
-36.3688
-37.5249
-38.0443
-36.5853
-39.383
-36.5385
-39.3419
-36.3935
-36.4027
-39.1134
-39.1073
-46.489
-52.5153
-44.2966
-48.5354
-43.2949
-43.2711
-56.5427
-54.2284
34.4842
22.6391
34.6211
22.3017
26.4759
26.54
-15.2083
-15.5908
-58.059
-54.8544
-58.048
-54.8741
-60.4125
-60.3994
-51.412
-51.3127
-35.8951
-35.0727
-34.7641
-33.9995
-36.0049
-35.2899
-35.1505
-34.6259
-33.2363
-35.6448
-34.6179
-38.1693
-32.4988
-32.2346
-37.0305
-38.338
-35.0606
-35.7229
-36.8768
-37.8015
-36.5019
-35.6651
-37.5206
-38.143
-46.4222
-52.1964
-44.155
-48.2153
-43.3776
-43.3608
-53.9104
-56.2392
-46.349
-44.2403
-42.2049
-37.2534
-34.5104
-38.7993
-34.4481
-32.936
-46.5242
-43.596
-42.7437
-37.5354
-39.0424
-34.1738
-32.5156
-33.9872
-56.9534
-57.678
-50.037
-42.0105
-50.9376
-42.6545
-41.7313
-41.6152
-24.4511
-24.3936
-18.2878
-5.41691
-5.31194
-18.1747
1.8728
1.93636
198.63
196.008
200.719
200.616
193.3
193.506