# vtk DataFile Version 2.0
tet_velo
ASCII
DATASET UNSTRUCTURED_GRID
POINTS 29498 float
-0.758784 0.275 -2.275
-0.716681 0.385 2.325
-0.766002 0.805 -2.125
-0.695 0.995 2.24137
0.758289 0.275 -2.275
0.716187 0.385 2.325
0.76551 0.805 -2.125
0.695 0.995 2.24083
-0.815864 0.240552 -0.741667
-0.835282 0.243767 0.791667
-0.817454 0.943453 -0.669543
-0.786137 0.999136 0.785913
0.815352 0.24057 -0.741667
0.834794 0.243761 0.791667
0.817181 0.943507 -0.669723
0.785835 0.998999 0.785553
-1.55968 -0.105854 -3.50108
-1.56475 -0.0700057 -2.30565
-1.60391 -0.0933769 -0.770289
-1.61007 -0.0929933 0.78078
-1.54131 0.00283239 2.31747
-1.51884 0.0662677 3.51938
-1.52377 0.10999 4.7093
-1.55833 0.208486 -3.45412
-1.56268 0.263376 -2.26721
-1.61094 0.255971 -0.746998
-1.60563 0.253889 0.780244
-1.50275 0.342955 2.30194
-1.49225 0.404332 3.50273
-1.50927 0.448015 4.69518
-1.56162 0.800515 -3.3383
-1.56737 0.854042 -2.14814
-1.60831 0.947252 -0.681029
-1.57343 0.982046 0.780589
-1.47992 0.998917 2.24918
-1.47948 1.05811 3.45311
-1.50209 1.11227 4.65807
-1.57177 1.776 -3.22316
-1.57705 1.84233 -2.04468
-1.58949 1.94707 -0.602877
-1.58265 2.02053 0.822134
-1.55616 2.05591 2.26473
-1.54112 2.08768 3.44487
-1.53809 2.12913 4.64135
-0.771954 -0.0997333 -3.50615
-0.765124 -0.0611522 -2.31303
-0.800475 -0.100856 -0.769358
-0.825509 -0.0996035 0.790562
-0.777128 0.0254863 2.33461
-0.758931 0.0828287 3.53097
-0.762407 0.119138 4.71596
-0.772612 0.208928 -3.4557
-0.736114 0.421372 3.51224
-0.751215 0.456708 4.70017
-0.775494 0.781145 -3.32869
-0.726915 1.06149 3.45141
-0.746355 1.11585 4.6576
-0.780882 1.76329 -3.21369
-0.782715 1.83057 -2.03424
-0.79684 1.94573 -0.59664
-0.802553 2.02518 0.821254
-0.790162 2.05758 2.25917
-0.778571 2.08776 3.43932
-0.774421 2.12938 4.63728
0.782861 -0.0997291 -3.50619
0.789586 -0.0611475 -2.31305
0.81828 -0.100847 -0.769382
0.805472 -0.0996102 0.790531
0.728415 0.0254813 2.33456
0.737035 0.0828207 3.53084
0.748822 0.119126 4.71578
0.772034 0.208931 -3.45573
0.733369 0.421365 3.51208
0.748095 0.456696 4.69997
0.773106 0.78115 -3.32873
0.726887 1.06148 3.45107
0.746103 1.11583 4.65734
0.794209 1.7633 -3.21379
0.798891 1.83057 -2.03437
0.791433 1.94572 -0.596822
0.763733 2.02514 0.820997
0.739485 2.05754 2.25886
0.739743 2.08773 3.43902
0.747201 2.12936 4.63701
1.56764 -0.105844 -3.50118
1.57671 -0.0699925 -2.30574
1.61361 -0.0933728 -0.77041
1.60368 -0.0930197 0.780612
1.52162 0.002813 2.31725
1.50589 0.0662467 3.51907
1.51389 0.109964 4.70894
1.55629 0.208497 -3.45421
1.55931 0.263394 -2.26729
1.61071 0.255979 -0.747144
1.61113 0.253844 0.780016
1.51057 0.342938 2.30165
1.49578 0.404312 3.50236
1.50895 0.447988 4.69478
1.55724 0.800528 -3.33841
1.56253 0.854066 -2.14827
1.606 0.947269 -0.68133
1.578 0.981921 0.780068
1.48924 0.998875 2.2485
1.48558 1.05808 3.45252
1.5043 1.11224 4.65757
1.58124 1.77601 -3.22337
1.58707 1.84234 -2.04493
1.58317 1.94705 -0.603234
1.55238 2.02046 0.821648
1.51712 2.05584 2.26416
1.50931 2.08763 3.44431
1.5143 2.12908 4.64083
-0.815765 0.54 -2.25337
-0.000247508 0.2515 -2.2985
-0.821517 0.223583 -1.50833
-0.712003 0.69 2.28935
-0.000247002 0.336974 2.37303
-0.821616 0.268749 1.55833
-0.000245988 0.887797 -2.2078
-0.826218 0.908716 -1.39727
0 1.03028 2.27638
-0.768763 1.02526 1.51364
0.815289 0.54 -2.25339
0.820705 0.2239 -1.50833
0.711941 0.69 2.28926
0.828373 0.261498 1.55833
0.825754 0.908662 -1.39736
0.768448 1.02503 1.51319
-0.821874 0.245859 0.025
-0.8923 0.592003 -0.705605
-0.000256177 0.235806 -0.741667
-0.893956 0.621452 0.78879
-0.000243988 0.219347 0.791667
-0.804518 0.974017 0.058185
-0.000136768 1.29412 -0.669633
-0.000150904 1.44477 0.785733
0.82139 0.245848 0.025
0.893311 0.592039 -0.705695
0.89348 0.62138 0.78861
0.804253 0.973998 0.057915
-0.878965 0.566001 -1.4528
-0.895935 0.606727 0.0415925
-0.889417 0.655726 1.53599
-0.000251843 0.236883 -1.50833
-0.000250083 0.23694 0.025
-0.000245495 0.264171 1.55833
-0.000246748 0.54 -2.46184
-0.000123501 0.69 2.34703
-0.000191378 0.998434 -1.39732
-0.000143836 1.46018 0.05805
-7.54518e-05 1.23058 1.51342
0.878979 0.566019 -1.45285
0.896574 0.606709 0.0414575
0.889355 0.65569 1.53576
-1.16073 0.269188 -2.2711
-0.761954 0.106924 -2.29402
-0.765698 0.241964 -2.86535
-1.10972 0.363977 2.31347
-0.746905 0.205243 2.32981
-0.726397 0.403186 2.91862
-1.16669 0.829521 -2.13657
-0.770748 0.793073 -2.72685
-0.774358 1.31778 -2.07962
-1.08746 0.996959 2.24528
-0.710958 1.02824 2.84639
-0.742581 1.52629 2.25027
0.773937 0.106926 -2.29403
0.765162 0.241966 -2.86537
1.1588 0.269197 -2.27115
0.722301 0.205241 2.32978
0.724778 0.403183 2.91854
1.11338 0.363969 2.31332
0.769308 0.793075 -2.72687
0.7822 1.31779 -2.07968
1.16402 0.829533 -2.13664
0.710943 1.02824 2.84595
0.717242 1.52627 2.24985
1.09212 0.996938 2.24467
-1.2134 0.248261 -0.744332
-0.80817 0.0698482 -0.755512
-1.22045 0.248828 0.785955
-0.830395 0.0720818 0.791115
-1.21288 0.945352 -0.675286
-0.807147 1.44459 -0.633092
-1.17978 0.990591 0.783251
-0.794345 1.51216 0.803584
0.816816 0.0698614 -0.755525
1.21303 0.248274 -0.744405
0.820133 0.0720753 0.791099
1.22296 0.248802 0.785841
0.804307 1.44461 -0.633273
1.21159 0.945388 -0.675527
0.774784 1.51207 0.803275
1.18192 0.99046 0.782811
-1.56221 -0.0879297 -2.90337
-1.55901 0.051316 -3.4776
-1.16582 -0.102793 -3.50361
-1.58433 -0.0816913 -1.53797
-1.56372 0.0966849 -2.28643
-1.16494 -0.065579 -2.30934
-1.60699 -0.0931851 0.00524562
-1.60742 0.0812969 -0.758644
-1.20219 -0.0971164 -0.769823
-1.57569 -0.0450805 1.54912
-1.60785 0.0804481 0.780512
-1.21779 -0.0962984 0.785671
-1.53008 0.03455 2.91842
-1.52203 0.172894 2.30971
-1.15922 0.0141593 2.32604
-1.5213 0.0881288 4.11434
-1.50555 0.2353 3.51106
-1.13889 0.0745482 3.52517
-1.51652 0.279002 4.70224
-1.14309 0.114564 4.71263
-1.56051 0.235931 -2.86066
-1.55997 0.504501 -3.39621
-1.16547 0.208707 -3.45491
-1.58681 0.259673 -1.5071
-1.56503 0.558709 -2.20767
-1.60828 0.25493 0.0166229
-1.60962 0.601611 -0.714014
-1.55419 0.298422 1.54109
-1.58953 0.617968 0.780416
-1.4975 0.373643 2.90234
-1.49134 0.670936 2.27556
-1.50076 0.426173 4.09896
-1.48587 0.731222 3.47792
-1.11418 0.412852 3.50749
-1.50568 0.780142 4.67663
-1.13024 0.452361 4.69768
-1.56449 0.827279 -2.74322
-1.56669 1.28826 -3.28073
-1.16856 0.79083 -3.33349
-1.58784 0.900647 -1.41459
-1.57221 1.34819 -2.09641
-1.59087 0.964649 0.04978
-1.5989 1.44716 -0.641953
-1.52668 0.990482 1.51489
-1.57804 1.50129 0.801362
-1.4797 1.02852 2.85115
-1.51804 1.52741 2.25696
-1.49079 1.08519 4.05559
-1.5103 1.5729 3.44899
-1.1032 1.0598 3.45226
-1.52009 1.6207 4.64971
-1.12422 1.11406 4.65784
-1.57441 1.80917 -2.63392
-1.17633 1.76965 -3.21842
-1.58327 1.8947 -1.32378
-1.17988 1.83645 -2.03946
-1.58607 1.9838 0.109629
-1.19316 1.9464 -0.599759
-1.5694 2.03822 1.54343
-1.1926 2.02286 0.821694
-1.54864 2.07179 2.8548
-1.17316 2.05674 2.26195
-1.5396 2.10841 4.04311
-1.15985 2.08772 3.44209
-1.15625 2.12926 4.63932
-0.768539 -0.0804427 -2.90959
-0.772283 0.0545973 -3.48093
0.00545332 -0.0997312 -3.50617
-0.7828 -0.081004 -1.54119
0.0122307 -0.0611499 -2.31304
-0.812992 -0.10023 0.0106023
0.00890272 -0.100851 -0.76937
-0.801319 -0.0370586 1.56259
-0.0100187 -0.0996069 0.790547
-0.76803 0.0541575 2.93279
-0.0243568 0.0254838 2.33459
-0.760669 0.100983 4.12346
-0.747522 0.2521 3.5216
-0.0109479 0.0828247 3.5309
-0.756811 0.287923 4.70806
-0.00679243 0.119132 4.71587
-0.774053 0.495037 -3.3922
-0.000289143 0.20893 -3.45572
-0.743664 0.43904 4.10621
-0.731514 0.741429 3.48182
-0.00137231 0.421369 3.51216
-0.748785 0.786279 4.67889
-0.0015599 0.456702 4.70007
-0.778188 1.27222 -3.27119
-0.00119394 0.781147 -3.32871
-0.736635 1.08867 4.0545
-0.752743 1.57462 3.44536
-1.42355e-05 1.06148 3.45124
-0.760388 1.62262 4.64744
-0.00012598 1.11584 4.65747
-0.781799 1.79693 -2.62396
0.00666319 1.7633 -3.21374
-0.789778 1.88815 -1.31544
0.00808785 1.83057 -2.03431
-0.799697 1.98546 0.112307
-0.00270359 1.94572 -0.596731
-0.796357 2.04138 1.54021
-0.0194097 2.02516 0.821125
-0.784367 2.07267 2.84924
-0.0253386 2.05756 2.25901
-0.776496 2.10857 4.0383
-0.0194142 2.08774 3.43917
-0.0136098 2.12937 4.63715
0.786223 -0.0804383 -2.90962
0.777447 0.0546011 -3.48096
1.17525 -0.102787 -3.50369
0.803933 -0.0809973 -1.54122
1.18315 -0.06557 -2.3094
0.811876 -0.100229 0.0105744
1.21595 -0.09711 -0.769896
0.766943 -0.0370645 1.56255
1.20458 -0.096315 0.785572
0.732725 0.054151 2.9327
1.12502 0.0141471 2.32591
0.742929 0.100973 4.12331
0.735202 0.252093 3.52146
1.12146 0.0745337 3.52495
0.748459 0.287911 4.70788
1.13136 0.114545 4.71236
0.77257 0.495041 -3.39223
1.16416 0.208714 -3.45497
0.740732 0.439031 4.10602
0.730128 0.74142 3.48157
1.11457 0.412839 3.50722
0.747099 0.786265 4.67865
1.12852 0.452342 4.69737
0.783657 1.27222 -3.27126
1.16517 0.790839 -3.33357
0.736495 1.08866 4.0542
0.733315 1.5746 3.44504
1.10623 1.05978 3.4518
0.746652 1.6226 4.64718
1.1252 1.11404 4.65745
0.79655 1.79694 -2.62408
1.18772 1.76965 -3.21858
0.795162 1.88814 -1.31559
1.19298 1.83645 -2.03965
0.777583 1.98543 0.112087
1.1873 1.94638 -0.600028
0.751609 2.04134 1.53993
1.15806 2.0228 0.821322
0.739614 2.07264 2.84894
1.1283 2.05669 2.26151
0.743472 2.10854 4.03802
1.12452 2.08768 3.44167
1.13075 2.12922 4.63892
1.57218 -0.0879183 -2.90346
1.56197 0.0513262 -3.4777
1.59516 -0.0816827 -1.53808
1.56801 0.0967006 -2.28652
1.60865 -0.0931963 0.00510113
1.61216 0.0813031 -0.758777
1.56265 -0.0451034 1.54893
1.60741 0.0804119 0.780314
1.51375 0.0345298 2.91816
1.51609 0.172875 2.30945
1.50989 0.0881051 4.11401
1.50083 0.235279 3.51072
1.51142 0.278976 4.70186
1.5578 0.235945 -2.86075
1.55676 0.504512 -3.39631
1.58501 0.259686 -1.50722
1.56092 0.55873 -2.20778
1.61092 0.254911 0.016436
1.60835 0.601624 -0.714237
1.56085 0.298391 1.54083
1.59457 0.617882 0.780042
1.50317 0.373625 2.90201
1.49991 0.670907 2.27508
1.50237 0.42615 4.09857
1.49068 0.731197 3.47744
1.50663 0.780112 4.67617
1.55988 0.827297 -2.74334
1.56924 1.28827 -3.28089
1.58426 0.900668 -1.4148
1.5748 1.3482 -2.0966
[...]
POINT_DATA 29498
VECTORS point_vectors float
-1.92925 -2.29857 3.93724
0.0662345 0.173159 0.338571
-1.83871 0.775516 3.10114
0.0151568 -0.160559 0.605169
1.87952 -2.22288 3.80809
-0.0689567 0.172457 0.335781
1.82014 0.76645 3.07468
-0.0147019 -0.162769 0.610034
0.0634601 -0.00537665 1.28259
0.0518452 0.0946315 1.58663
0 0 0
0 0 0
-0.0637637 -0.00555807 1.27762
-0.0586427 0.10971 1.63589
0 0 0
0 0 0
-0.544109 -0.251735 19.8699
-1.2288 -0.666691 20.5196
-0.417462 -0.379949 21.3505
0.0573556 -0.0591855 21.5254
0.604977 0.300148 21.3874
0.811658 0.302248 21.4222
0.87654 0.0941617 20.9724
-0.647205 -0.17766 19.7704
-1.68941 -0.586699 20.4931
-0.515554 -0.440806 21.4236
0.0853606 -0.127495 21.612
0.849074 0.142554 21.4606
1.14514 0.19775 21.5765
1.09469 -0.0181918 21.3733
-0.779042 0.0759425 19.6717
-1.86446 0.130054 20.5066
-1.05112 -0.276119 21.4364
-0.131764 -0.257966 21.7163
0.763804 -0.342522 21.4821
1.07666 -0.406473 20.9833
0.75072 -0.260151 21.0188
-0.536537 0.359552 19.9475
-0.943361 0.582722 20.4572
-0.822579 0.357779 21.2322
-0.210102 -0.0359021 21.5457
0.250274 -0.351173 21.3797
0.367607 -0.391302 21.2346
0.320858 -0.322225 20.8515
-0.496103 -0.532133 19.3562
-1.99981 -3.4623 20.6699
-0.288448 -0.252414 21.5097
0.00448355 0.16032 20.719
0.32003 1.28221 17.9804
0.652578 1.54677 17.6697
1.09747 0.947647 15.9377
-0.72137 -0.441276 18.9928
1.04962 1.56212 10.6763
1.62436 0.779246 11.024
-0.921516 0.230616 18.6824
1.77765 -0.340446 10.7232
1.16439 -0.488745 16.4064
-0.510009 0.740577 19.5635
-1.03067 1.5876 20.2695
-1.26185 1.47558 21.4219
-0.264461 0.096442 21.988
0.197368 -0.583383 21.466
0.312403 -0.726101 21.263
0.263464 -0.604318 20.5681
0.5026 -0.526621 19.3713
2.03707 -3.35406 20.6523
0.285832 -0.256142 21.5075
0.00499231 0.162396 20.6512
-0.183007 1.25297 17.2582
-0.619837 1.55184 17.5393
-1.10017 0.948328 15.7567
0.723664 -0.44017 18.987
-1.04817 1.56999 10.6323
-1.62746 0.7909 11.0171
0.917726 0.235056 18.6826
-1.77263 -0.344505 10.7381
-1.15833 -0.485112 16.4126
0.515995 0.731216 19.5752
1.0397 1.57009 20.2743
1.26164 1.48952 21.4232
0.261388 0.107627 22.0133
-0.18479 -0.591497 21.4802
-0.303918 -0.740123 21.2677
-0.262035 -0.613033 20.4509
0.535655 -0.244859 19.8627
1.21454 -0.65548 20.5319
0.416513 -0.386953 21.3474
-0.0566917 -0.0606124 21.516
-0.614848 0.31598 21.4041
-0.819544 0.324254 21.4249
-0.885092 0.10244 20.9849
0.649818 -0.179665 19.7668
1.69708 -0.584887 20.494
0.51912 -0.440024 21.4275
-0.0839607 -0.126903 21.613
-0.838686 0.133922 21.4692
-1.14294 0.189317 21.5689
-1.11018 -0.0197441 21.3675
0.781534 0.0765267 19.6709
1.87512 0.13104 20.5106
1.05316 -0.278069 21.444
0.126325 -0.255898 21.7199
-0.754594 -0.333259 21.4951
-1.07644 -0.408268 21.0051
-0.756707 -0.263594 21.0218
0.534353 0.357775 19.9535
0.935836 0.576756 20.4612
0.829223 0.361323 21.2358
0.217781 -0.036388 21.544
-0.244373 -0.358353 21.3618
-0.361449 -0.394116 21.2173
-0.322234 -0.34201 20.8912
-1.25775 -0.0577697 1.81994
-0.000101585 -0.0211347 0.102298
0.0149652 -0.017088 1.596
-0.0157699 -0.00730373 0.00140225
0.00115135 -0.0416602 -0.0216598
0.0152795 0.064573 0.384442
0.000576015 0.555822 1.09204
-0.272431 -0.148177 0.883311
4.56137e-05 0.025969 -0.114374
0 0 0
1.2467 -0.0580278 1.80749
-0.0143113 -0.0132555 1.53249
0.0155915 -0.00780573 0.00208756
-0.0397567 0.149362 0.842479
0.272025 -0.146433 0.8798
0 0 0
-0.0318882 0.036231 0.953801
5.04735e-07 -1.9792e-06 -8.77311e-05
-1.57201e-20 9.10985e-19 6.39422e-17
0 0 0
0.000107168 -0.000974956 0.119684
0 0 0
0.00133501 0.0427664 0.0904785
-3.5052e-06 -0.000953846 0.0147983
0.0350664 0.0371232 0.905503
1.77694e-05 5.08293e-05 0.00225896
0 0 0
0 0 0
-0.000258866 -0.001079 0.0200933
0 0 0
0.000714781 0.000860636 0.00840331
-1.63634e-09 -3.73784e-08 5.93907e-06
0 0 0
-5.2749e-05 0.000725814 0.0267104
-2.36359e-05 -0.0173744 0.0293573
0 0 0
-4.72014e-07 0.00016284 0.00158181
7.07098e-06 0.000405702 0.00800438
-1.13432e-07 0.00179942 -0.00345911
6.6954e-05 -0.000306628 0.00559064
8.06877e-08 6.59742e-06 4.22731e-05
-0.000164596 0.00019456 0.00192119
-3.293 -1.53182 20.4699
-3.21574 -5.52541 20.8084
-2.04605 -1.4931 17.7914
1.30812 0.766936 18.4125
0.146011 1.37419 9.88956
0.315257 1.24112 7.05714
-3.76102 0.636661 20.6177
-2.95038 1.29492 16.988
-2.34396 2.76862 20.2541
1.29297 -0.146679 18.2552
0.773542 0.00567035 6.16672
0.739056 -0.772554 18.8142
3.27195 -5.4141 20.7408
2.04884 -1.49436 17.7861
3.31139 -1.54674 20.4649
-0.0382476 1.33222 9.20794
-0.319266 1.25172 7.03313
-1.31269 0.75666 18.51
2.95042 1.30096 16.9823
2.34782 2.74091 20.2558
3.77995 0.644667 20.6177
-0.767902 -0.00876749 6.17627
-0.763392 -0.763851 18.3101
-1.27636 -0.177661 18.3319
-0.316482 -0.710088 21.3759
0.068515 0.0509659 16.6113
0.200484 -0.0544793 20.8775
0.0610145 0.216162 15.7779
-1.67701 -0.814647 21.6252
-3.51675 1.76131 21.6831
-0.0605706 -0.358379 20.2808
-0.187169 0.133245 20.0443
-0.0621341 0.0521894 16.7915
0.318325 -0.712391 21.3698
-0.0637493 0.212136 15.4419
-0.198485 -0.0593434 20.9092
3.52498 1.77812 21.6746
1.68005 -0.818535 21.6123
0.0855242 0.201085 19.4108
0.0624521 -0.366309 20.3332
-0.925598 -0.46873 19.9904
-0.610974 -0.221958 19.8277
-0.58542 -0.376857 19.6251
-0.820598 -0.548407 21.1598
-1.43309 -0.639546 20.5068
-1.79765 -1.51246 20.5053
-0.158194 -0.22134 21.4589
-0.469179 -0.398038 21.376
-0.296089 -0.42903 21.5237
0.322955 0.116028 21.5269
0.06356 -0.0812871 21.537
0.108872 0.0237738 21.6271
0.752387 0.346321 21.2099
0.731215 0.234368 21.4422
0.805064 0.74105 21.1664
0.765856 0.359549 20.2606
0.978397 0.249999 21.4993
0.991999 0.974983 21.0476
1.00258 0.0551313 21.1709
0.875739 0.733428 21.6667
-1.21791 -0.37621 19.8347
-0.743835 -0.0734607 19.739
-0.741325 -0.277111 19.4623
-1.06261 -0.544853 21.2556
-1.81016 -0.246093 20.5464
-0.204037 -0.29082 21.5178
-0.759749 -0.44483 21.4309
0.438314 0.00882727 21.6622
0.0143035 -0.220973 21.7124
1.01482 0.183344 21.2883
0.910628 -0.115845 21.5061
0.94447 0.131731 20.4248
1.20903 -0.130861 21.2103
1.71484 0.709016 18.6922
0.972147 -0.197573 21.077
1.33877 0.376615 16.7302
-1.43073 0.163991 19.8146
-0.686316 0.303065 19.7671
-0.920033 0.142546 19.2614
-1.4296 -0.122351 21.1424
-1.39905 0.54495 20.4592
-0.58704 -0.2999 21.6586
-1.08542 0.157466 21.3453
0.344326 -0.258667 21.7057
-0.22229 -0.122909 21.6677
0.937587 -0.406828 21.3024
0.451898 -0.405683 21.4408
0.666244 -0.476397 21.0589
0.555958 -0.469692 20.9487
1.57651 -0.553212 19.5141
0.456778 -0.332043 21.0761
1.14782 -0.455782 19.5082
-0.785834 0.503535 20.1549
-0.575282 0.556342 19.7669
-0.949245 0.508826 20.8652
-1.07129 1.00191 20.3825
-0.536349 0.172912 21.497
-1.11143 0.752351 21.3514
0.0648788 -0.222717 21.4451
-0.249864 0.00643395 21.7705
0.355745 -0.410583 21.2848
0.231318 -0.450316 21.4594
0.521845 -0.511117 20.5739
0.375914 -0.610603 21.2375
0.334165 -0.517618 21.223
-1.2157 -1.54501 19.0073
-0.600912 -0.499014 19.1688
0.00254458 -0.688357 19.043
-0.747333 -0.997135 21.9499
0.0258126 -5.07705 21.2473
-0.131071 -0.0610702 21.0012
0.00391114 -0.537962 19.979
0.174037 0.636656 19.2343
0.00351379 -0.043281 17.9854
0.425592 1.38669 17.9051
-0.0321547 0.388625 12.8036
0.62084 1.2543 17.8068
1.04102 1.83728 13.965
-0.0208625 0.745867 10.8857
1.43242 0.975961 13.1732
0.0289592 0.936087 12.6453
-0.802905 -0.15261 18.8266
-0.00210681 -0.569915 18.548
1.94253 1.43233 12.2777
2.02007 0.815648 7.29642
-0.00666276 -2.17446 -3.82594
1.55352 0.210988 12.5268
0.00590488 0.851347 7.14472
-0.729581 0.706286 19.0831
-0.000997813 0.385472 18.0329
1.96464 -0.600183 12.7458
0.763526 -1.04601 19.4853
-0.00408158 -1.18415 -0.459825
0.597831 -0.965474 19.1551
-0.00437415 -1.47222 4.67128
-0.801304 1.26811 19.7452
0.00525733 0.967947 19.3227
-1.1891 1.54928 20.7323
0.0161873 2.31187 20.1089
-0.78988 0.75835 21.996
-0.00745467 2.74914 21.4132
0.0563959 -0.36441 21.7427
-0.0107593 0.26114 22.2649
0.262843 -0.66384 21.3045
0.00505558 -0.624223 21.7225
0.127654 -0.591701 21.3851
0.0114548 -0.778822 21.4505
0.000159839 -0.626922 21.3961
1.22998 -1.51248 19.0373
0.607523 -0.488946 19.1741
0.583223 -0.376724 19.6372
0.763977 -1.01009 22.0547
1.7632 -1.45227 20.4977
0.135673 -0.0652723 20.9815
0.299171 -0.429133 21.5151
-0.142075 0.614882 18.9374
-0.105369 0.028371 21.6283
-0.333957 1.37897 17.2501
-0.794133 0.804759 21.0642
-0.57389 1.29349 17.707
-1.00114 1.83225 13.7951
-0.997786 1.0068 21.0222
-1.43488 0.993682 13.0851
-0.876682 0.755178 21.6007
0.802346 -0.152332 18.8242
0.745294 -0.277491 19.4547
-1.96095 1.44472 12.2225
-2.01911 0.806339 7.31023
-1.71678 0.708523 18.7001
-1.5471 0.218115 12.5365
-1.34848 0.381343 16.7168
0.729045 0.700432 19.0856
0.920416 0.141637 19.2563
-1.97609 -0.603379 12.7588
-0.754282 -1.06608 19.3574
-1.58023 -0.553251 19.5604
-0.600119 -0.976421 19.1071
-1.13733 -0.458219 19.5175
0.813086 1.25401 19.753
0.580178 0.547007 19.7743
1.1931 1.54167 20.7347
1.06957 0.98133 20.3884
0.791665 0.790047 22.0154
1.11632 0.758897 21.3537
-0.054257 -0.374536 21.7599
0.256828 0.0149778 21.7879
-0.239189 -0.684397 21.3289
-0.229842 -0.471823 21.4636
-0.11805 -0.607124 21.4377
-0.379151 -0.633977 21.2454
-0.331017 -0.535782 21.2472
0.916442 -0.462776 19.9821
0.606267 -0.222466 19.8178
0.821034 -0.554545 21.1488
1.42161 -0.631197 20.5223
0.158341 -0.22528 21.4606
0.473127 -0.402792 21.3759
-0.327812 0.120544 21.5306
-0.0595354 -0.0841846 21.5299
-0.767631 0.356701 21.2133
-0.736387 0.239207 21.4497
-0.770256 0.370018 20.3127
-0.981241 0.256786 21.4969
-1.0146 0.0588453 21.1751
1.2253 -0.377029 19.837
0.746237 -0.0730373 19.7303
1.06483 -0.545772 21.2593
1.82437 -0.247888 20.5464
0.206821 -0.29157 21.5177
0.761688 -0.449212 21.4378
-0.43295 0.00808405 21.6566
-0.0123434 -0.221792 21.707
-1.00959 0.177314 21.305
-0.900319 -0.121051 21.525
-0.935101 0.137346 20.4218
-1.20595 -0.13646 21.2158
-0.983284 -0.199806 21.0746
1.43485 0.163349 19.8175
0.681523 0.302097 19.7767
1.43111 -0.123095 21.1531
1.39632 0.541729 20.4624
0.585614 -0.298143 21.662
1.09067 0.155125 21.3523
-0.344614 -0.256717 21.7062
0.226146 -0.126933 21.6776
-0.934815 -0.4091 21.2956
-0.445914 -0.416103 21.4685
-0.694339 -0.48434 21.09
-0.551489 -0.481617 20.9652
-0.460484 -0.345802 21.0901
0.782868 0.500948 20.1635
0.946534 0.508469 20.8641
0.548867 0.17363 21.5083
-0.0750706 -0.226696 21.4954
-0.349995 -0.404368 21.2771
-0.514315 -0.541063 20.6116
-1.06916 -0.438404 19.9346
-1.51998 -1.56055 18.5138
-1.19216 -0.865889 19.616
-1.70016 -0.732925 19.1788
-0.672021 -0.335121 19.5411
-2.4693 -1.68041 20.5132
-0.928482 -0.548348 21.1931
-0.459583 -0.447209 18.1965
-0.866391 -0.872088 21.5324
-1.13419 -1.02466 21.8934
-0.260011 -0.540328 21.5784
-0.179011 -0.246202 21.4792
0.0517947 0.0416674 15.8821
-0.0778708 -0.203523 21.5613
-0.032259 -0.37459 20.9966
0.182266 -0.0154134 21.4792
0.381018 0.0742764 21.5843
0.0494759 0.725421 12.402
0.425123 0.356897 21.5801
0.667874 0.349641 20.136
1.09562 0.799517 20.1946
0.904571 0.27667 21.2191
0.472919 1.59028 12.1019
0.969885 0.817755 20.7161
1.45318 0.712746 18.9528
1.35535 0.82241 19.9684
0.855163 0.24564 20.3427
1.51736 1.29928 13.19
0.738238 0.658952 21.831
1.54534 0.889805 20.6084
1.13523 0.568575 18.9872
-1.35306 -0.143051 19.8204
-2.71767 -0.383263 17.0052
-2.20741 0.451849 19.0155
-0.853645 -0.105682 19.3258
-4.04074 -0.507625 20.5808
-1.2848 -0.407679 21.2638
-2.23707 -0.412364 21.5478
-0.81891 -0.955017 21.3379
-0.356764 -0.355098 21.603
-0.766407 -0.719272 20.975
0.166463 -0.075807 19.73
0.442121 -0.123789 21.7439
0.711534 -0.0352513 19.2574
1.40594 0.391742 16.7914
1.05835 -0.139491 21.2598
0.457504 0.688213 3.53046
1.37398 -0.353303 18.8924
1.80327 0.0698943 18.7654
0.906898 -0.187631 20.5618
2.13862 0.700887 11.2736
1.63028 -0.46442 19.6544
1.30152 -0.180045 18.1655
-1.11765 0.492017 19.967
-1.58918 1.8226 18.9214
-0.874318 0.868423 19.9595
-0.782865 0.47796 19.4679
-2.01627 1.22929 20.3693
-1.30456 0.334897 20.964
-2.45873 1.82729 20.7065
-1.16298 0.92167 20.8589
-1.87824 0.405583 21.5733
-0.671256 0.00822184 21.6151
-1.72324 0.402418 21.4581
-0.710025 0.37046 21.73
-0.359358 -0.139475 22.0345
0.167023 -0.272291 21.5813
0.642873 -0.480263 19.2893
0.0536347 -0.273699 21.6296
0.512544 -0.672869 21.5612
0.585822 -0.477236 21.2564
0.707939 -0.967376 19.8472
0.323196 -0.522645 21.2396
0.732748 -0.823879 21.2718
0.600765 -0.645347 20.9501
0.710643 -1.11164 19.528
0.215212 -0.428217 21.1609
0.524393 -0.637507 20.2598
1.52721 -1.54453 18.5299
0.0163454 -2.37538 18.2888
-0.00200571 -2.57806 15.9798
0.000238894 -0.652222 18.7526
0.0157318 -7.54221 22.8611
0.469634 -0.459077 18.4097
0.0144131 -1.43948 21.623
-0.00414224 -0.129146 10.7197
-0.0359354 0.0283279 15.7956
-0.00266743 -0.288145 18.554
0.00869868 0.0584647 10.239
-0.0151134 0.64861 12.0845
0.00397132 0.25812 15.2832
-0.0291368 0.160663 4.10689
-0.402107 1.56253 11.7629
-0.0514479 0.202258 11.9272
0.0018723 -0.970887 -4.01467
-0.0137626 -0.714294 3.52988
-1.49546 1.34253 13.1538
0.0472162 1.00269 12.0766
-0.0102346 -1.9841 -2.46237
0.017099 0.915824 9.73366
2.71678 -0.382572 16.9997
-0.00309906 2.56608 14.3151
-0.00100404 -0.24191 17.8954
-0.471221 0.677156 3.53112
-0.0017844 -0.00787361 -0.97632
-0.00836325 -1.79125 -3.9993
-2.14385 0.71605 11.2699
-0.00464646 -2.37427 1.19626
0.000907346 -0.283446 3.85868
1.59002 1.80875 18.927
0.00906 1.77662 19.463
0.00436396 1.0149 18.598
0.0136304 4.39621 20.0329
2.45538 1.81443 20.7079
0.00683605 2.40304 20.4952
-0.00706356 5.7855 20.3842
1.70547 0.420359 21.2064
-0.0185392 1.47768 22.4113
0.00348358 -0.0836507 15.0462
-0.721279 -0.453683 18.6063
-0.00104872 -0.379588 21.8552
0.0098146 -0.689218 11.3841
-0.709229 -0.955045 19.4622
0.00924856 -0.750915 21.4517
0.000211591 -1.45625 15.0453
-0.71611 -1.12275 19.4521
0.00717107 -1.10892 21.1372
0.0101149 -1.06505 18.7335
1.06274 -0.436171 19.9238
1.17886 -0.834518 19.6498
1.70491 -0.733885 19.166
0.673848 -0.335627 19.5386
2.45976 -1.65211 20.507
0.93054 -0.550929 21.1874
0.869774 -0.861913 21.5118
1.13918 -1.02831 21.8949
0.272482 -0.542121 21.5808
0.179185 -0.247244 21.483
0.0827294 -0.203436 21.5615
0.0370956 -0.37559 21.0074
-0.182597 -0.00820182 21.4386
-0.382026 0.0741053 21.5857
-0.426651 0.383355 21.5241
-0.666476 0.336823 20.2411
-1.09717 0.849623 19.899
-0.90662 0.282166 21.222
-0.966374 0.871108 20.7187
-1.45903 0.703224 19.0026
-1.3585 0.845484 19.9186
-0.852679 0.253682 20.3673
-0.718436 0.683321 21.8846
-1.5573 0.867259 20.6004
-1.14366 0.579093 18.897
1.35187 -0.144995 19.8177
2.2122 0.453025 19.0062
0.857522 -0.106543 19.3191
4.06781 -0.506266 20.5804
1.29327 -0.411873 21.2696
2.24161 -0.411654 21.5515
0.822295 -0.956587 21.3367
0.355593 -0.355504 21.6077
0.766953 -0.716848 20.9841
-0.166222 -0.0849054 19.7944
-0.440119 -0.125846 21.7411
-0.703591 -0.0577241 19.3605
-1.41448 0.373338 16.9555
-1.05726 -0.141016 21.2782
-1.37049 -0.366255 18.9555
-1.80383 0.0615882 18.7903
-0.911796 -0.187731 20.5829
-1.61153 -0.469823 19.6736
-1.30159 -0.179456 18.1679
1.11105 0.489163 19.9739
0.876358 0.852171 19.9678
0.782143 0.474589 19.4708
2.00495 1.214 20.3699
1.30607 0.334884 20.9678
1.1635 0.915797 20.8597
1.88584 0.407523 21.574
0.67693 0.00387088 21.6231
0.72011 0.385844 21.7431
0.365202 -0.137729 22.0484
-0.175548 -0.283697 21.5957
-0.0500264 -0.279896 21.6231
-0.512453 -0.690702 21.5706
-0.598306 -0.494111 21.2144
-0.314244 -0.552066 21.2452
-0.738864 -0.834353 21.3031
-0.627426 -0.642795 20.9648
-0.182176 -0.425022 21.2022
-0.527259 -0.65189 20.221
-1.4295 -0.851185 19.4104
-0.961492 -0.952171 21.6981
-0.0205091 -0.276048 21.4875
0.581887 0.372219 21.0724
1.22184 0.817897 20.0186
1.11891 0.757644 21.2698
-2.16131 -0.237446 18.8953
-1.66985 -0.946164 22.0253
-0.229743 -0.531249 20.3962
0.714768 0.297774 18.6801
1.65272 0.209445 18.0702
1.74548 0.181131 19.7651
-1.48261 0.95261 19.5636
-1.92822 0.749108 20.9879
-1.08816 0.0655808 22.0117
0.224586 -0.434842 21.8722
0.614628 -0.775237 21.3966
0.631705 -0.82831 20.7399
0.00875736 -2.50765 17.4225
-0.00354362 -0.494498 12.5347
-0.00168123 -0.0875294 9.88062
0.00382128 0.18362 7.6692
-0.0186871 -0.598032 2.03215
0.0184908 -0.4907 4.80712
-0.00149391 -0.575557 14.1336
-0.0163016 -0.554987 -3.55945
-0.0102027 -2.67054 -3.35886
0.00815265 2.97943 18.0286
0.00621485 3.53949 20.1072
-0.00445455 1.44543 17.0188
0.00403283 -0.526063 11.672
0.0147983 -0.832368 13.3699
0.0114614 -1.02791 15.976
1.42729 -0.839898 19.4119
0.970753 -0.94714 21.678
0.0275375 -0.276998 21.485
-0.579019 0.386376 21.012
-1.23365 0.862468 19.8703
-1.12811 0.769231 21.2625
2.16517 -0.237306 18.8899
1.67056 -0.947894 22.0191
0.232915 -0.53214 20.423
-0.712699 0.28212 18.7715
-1.65534 0.197469 18.1353
-1.73906 0.164802 19.7683
1.47606 0.942723 19.5712
1.92492 0.746372 20.9868
1.10144 0.0734126 22.022
-0.227881 -0.445692 21.8911
-0.615772 -0.786807 21.4004
-0.624871 -0.832158 20.7384
0 0 0
-0.00585683 -0.0334157 0.168288
-0.142534 -0.0552337 2.05599
0.0222964 -0.00114554 0.0515786
-0.0646836 0.0232053 0.0462297
0.0113166 0.0781327 0.522872
0 0 0
-0.180658 1.00113 1.36068
-0.107382 -0.0516064 0.371942
-0.0543305 0.00959145 -0.0272035
-0.0027211 0.0254064 -0.0589939
0.0324958 0.00142862 0.242171
0.0058533 -0.0334073 0.168296
0 0 0
0.137471 -0.0530056 2.02156
0.0583522 0.0216091 0.0443861
-0.02261 -0.00226366 0.0515695
-0.0120525 0.076395 0.507536
0.180118 1.00091 1.36414
0 0 0
0.0970481 -0.0473725 0.340091
0.00377928 0.0243508 -0.0577034
0.0531394 0.00797986 -0.0262072
-0.0334717 0.00154827 0.251356
0.0519545 0.0858834 1.22714
-0.000381999 0.00757584 1.25365
-0.00024344 0.00132872 0.0437775
0 0 0
7.60829e-05 0.00993449 0.275151
-0.0223266 0.0258795 0.723379
0.0333018 0.0657487 0.865169
0.0148271 -0.00325976 0.24636
-0.401546 -0.269394 0.910873
0 0 0
0 0 0
-0.0233581 0.0194834 0.0521441
0 0 0
0.00295331 0.0142828 0.0631382
-1.36521e-17 -2.09265e-17 -9.16806e-17
0.0673827 0.0130288 0.326715
-0.066662 0.103049 1.21135
0 0 0
-0.000372665 0.00817275 1.24884
0.000226844 0.00116758 0.0395639
0.000396329 0.0121501 0.346575
-0.0148913 -0.003184 0.248559
0.01635 0.0223552 0.671762
-0.0319865 0.0652487 0.845715
0.387994 -0.263938 0.916223
0.0223811 0.0188093 0.0501471
0 0 0
0 0 0
0 0 0
-0.0658082 0.0118994 0.322926
-0.00175203 0.00861717 0.0383712
0 0 0
-0.12575 0.00367843 0.894406
-0.0669965 0.0298445 0.036514
-1.38843e-05 -0.00702868 0.129692
0 0 0
-0.000341505 -0.00176376 0.0415334
0.00188635 1.80756e-05 0.0238889
0.00286103 0.00182353 0.0214542
0 0 0
1.66029e-06 4.32748e-05 0.0009237
-7.89519e-05 -0.00027799 -0.00409388
0 0 0
-0.00313792 0.000970884 0.124519
-0.0054828 1.97463 1.35828
-0.000272558 0.00240841 0.0177126
-0.0028914 -0.0180388 0.0921418
-0.00246357 0.00032393 0.00382033
-0.000267229 0.0345292 0.000251252
0 0 0
0.0027209 0.00313335 0.026606
-0.000855088 -0.00011099 8.20891e-05
0.0715043 0.0317474 0.0389963
0.131309 -0.00359176 0.880451
-0.0021331 1.84061e-05 0.0268415
0.000454761 -0.00219771 0.0524997
1.36937e-17 4.32437e-18 -1.47329e-18
-0.00285016 0.00179089 0.0213905
0.00168396 0.000574335 0.0696014
-0.00832282 0.00712603 0.0776189
0.00262251 0.000345064 0.00407353
0.0030148 -0.0194325 0.0980356
0.000959617 -0.000118659 7.97825e-05
-0.00280073 0.00315583 0.0275077
0 0 0
-4.37508e-20 -2.12244e-21 -9.07438e-19
0 0 0
0 0 0
1.27121e-20 -1.36724e-18 -5.93001e-17
-8.31482e-09 -4.72208e-09 2.30185e-05
1.62726e-07 -2.34958e-05 -0.000146731
2.56524e-05 0.000726794 0.00572601
4.93611e-20 -3.64869e-19 6.94886e-17
0 0 0
9.11593e-05 0.000428189 0.00159227
0.0340615 0.0472558 0.752834
-5.45771e-06 0.00361727 0.00912899
4.24638e-06 0.0383029 0.183297
2.34994e-05 -9.31667e-06 0.0029791
-3.7955e-07 -0.0050487 0.0171017
0 0 0
0 0 0
0 0 0
2.40021e-05 0.000705192 0.00570399
4.87592e-06 0.000466873 0.00292251
-2.5966e-05 0.000712986 0.00572762
-0.0342203 0.0478763 0.760248
-0.000133822 0.000620611 0.00232174
-0.00101198 -0.00977763 0.0731689
-0.000413821 -0.00115626 0.018909
0 0 0
-0.000751953 -0.00320141 0.0263796
0 0 0
0 0 0
0 0 0
0.00247269 0.013258 0.0530101
-3.2918e-05 0.00229656 0.0227759
0.00110277 0.00543161 0.0251473