# vtk DataFile Version 2.0
tri_press
ASCII
DATASET UNSTRUCTURED_GRID
POINTS 3682 float
-0.758784 0.275 -2.275
-0.716681 0.385 2.325
-0.766002 0.805 -2.125
-0.695 0.995 2.24137
0.758289 0.275 -2.275
0.716187 0.385 2.325
0.76551 0.805 -2.125
0.695 0.995 2.24083
-0.815864 0.240552 -0.741667
-0.835282 0.243767 0.791667
-0.817454 0.943453 -0.669543
-0.786137 0.999136 0.785913
0.815352 0.24057 -0.741667
0.834794 0.243761 0.791667
0.817181 0.943507 -0.669723
0.785835 0.998999 0.785553
-1.55968 -0.105854 -3.50108
-1.56475 -0.0700057 -2.30565
-1.60391 -0.0933769 -0.770289
-1.61007 -0.0929933 0.78078
-1.54131 0.00283239 2.31747
-1.51884 0.0662677 3.51938
-1.52377 0.10999 4.7093
-1.55833 0.208486 -3.45412
-1.56268 0.263376 -2.26721
-1.61094 0.255971 -0.746998
-1.60563 0.253889 0.780244
-1.50275 0.342955 2.30194
-1.49225 0.404332 3.50273
-1.50927 0.448015 4.69518
-1.56162 0.800515 -3.3383
-1.56737 0.854042 -2.14814
-1.60831 0.947252 -0.681029
-1.57343 0.982046 0.780589
-1.47992 0.998917 2.24918
-1.47948 1.05811 3.45311
-1.50209 1.11227 4.65807
-1.57177 1.776 -3.22316
-1.57705 1.84233 -2.04468
-1.58949 1.94707 -0.602877
-1.58265 2.02053 0.822134
-1.55616 2.05591 2.26473
-1.54112 2.08768 3.44487
-1.53809 2.12913 4.64135
-0.771954 -0.0997333 -3.50615
-0.765124 -0.0611522 -2.31303
-0.800475 -0.100856 -0.769358
-0.825509 -0.0996035 0.790562
-0.777128 0.0254863 2.33461
-0.758931 0.0828287 3.53097
-0.762407 0.119138 4.71596
-0.772612 0.208928 -3.4557
-0.736114 0.421372 3.51224
-0.751215 0.456708 4.70017
-0.775494 0.781145 -3.32869
-0.726915 1.06149 3.45141
-0.746355 1.11585 4.6576
-0.780882 1.76329 -3.21369
-0.782715 1.83057 -2.03424
-0.79684 1.94573 -0.59664
-0.802553 2.02518 0.821254
-0.790162 2.05758 2.25917
-0.778571 2.08776 3.43932
-0.774421 2.12938 4.63728
0.782861 -0.0997291 -3.50619
0.789586 -0.0611475 -2.31305
0.81828 -0.100847 -0.769382
0.805472 -0.0996102 0.790531
0.728415 0.0254813 2.33456
0.737035 0.0828207 3.53084
0.748822 0.119126 4.71578
0.772034 0.208931 -3.45573
0.733369 0.421365 3.51208
0.748095 0.456696 4.69997
0.773106 0.78115 -3.32873
0.726887 1.06148 3.45107
0.746103 1.11583 4.65734
0.794209 1.7633 -3.21379
0.798891 1.83057 -2.03437
0.791433 1.94572 -0.596822
0.763733 2.02514 0.820997
0.739485 2.05754 2.25886
0.739743 2.08773 3.43902
0.747201 2.12936 4.63701
1.56764 -0.105844 -3.50118
1.57671 -0.0699925 -2.30574
1.61361 -0.0933728 -0.77041
1.60368 -0.0930197 0.780612
1.52162 0.002813 2.31725
1.50589 0.0662467 3.51907
1.51389 0.109964 4.70894
1.55629 0.208497 -3.45421
1.55931 0.263394 -2.26729
1.61071 0.255979 -0.747144
1.61113 0.253844 0.780016
1.51057 0.342938 2.30165
1.49578 0.404312 3.50236
1.50895 0.447988 4.69478
1.55724 0.800528 -3.33841
1.56253 0.854066 -2.14827
1.606 0.947269 -0.68133
1.578 0.981921 0.780068
1.48924 0.998875 2.2485
1.48558 1.05808 3.45252
1.5043 1.11224 4.65757
1.58124 1.77601 -3.22337
1.58707 1.84234 -2.04493
1.58317 1.94705 -0.603234
1.55238 2.02046 0.821648
1.51712 2.05584 2.26416
1.50931 2.08763 3.44431
1.5143 2.12908 4.64083
-0.815765 0.54 -2.25337
-0.000247508 0.2515 -2.2985
-0.821517 0.223583 -1.50833
-0.712003 0.69 2.28935
-0.000247002 0.336974 2.37303
-0.821616 0.268749 1.55833
-0.000245988 0.887797 -2.2078
-0.826218 0.908716 -1.39727
0 1.03028 2.27638
-0.768763 1.02526 1.51364
0.815289 0.54 -2.25339
0.820705 0.2239 -1.50833
0.711941 0.69 2.28926
0.828373 0.261498 1.55833
0.825754 0.908662 -1.39736
0.768448 1.02503 1.51319
-0.821874 0.245859 0.025
-0.8923 0.592003 -0.705605
-0.000256177 0.235806 -0.741667
-0.893956 0.621452 0.78879
-0.000243988 0.219347 0.791667
-0.804518 0.974017 0.058185
-0.000136768 1.29412 -0.669633
-0.000150904 1.44477 0.785733
0.82139 0.245848 0.025
0.893311 0.592039 -0.705695
0.89348 0.62138 0.78861
0.804253 0.973998 0.057915
-0.878965 0.566001 -1.4528
0.878979 0.566019 -1.45285
-0.000251843 0.236883 -1.50833
-0.000191378 0.998434 -1.39732
-0.000246748 0.54 -2.46184
-0.895935 0.606727 0.0415925
0.896574 0.606709 0.0414575
-0.000250083 0.23694 0.025
-0.000143836 1.46018 0.05805
-0.889417 0.655726 1.53599
0.889355 0.65569 1.53576
-0.000245495 0.264171 1.55833
-7.54518e-05 1.23058 1.51342
-0.000123501 0.69 2.34703
-0.786994 0.4075 -2.26391
-0.379516 0.251503 -2.2985
-0.816717 0.222725 -1.89167
-0.751198 0.5375 2.34403
-0.358464 0.343931 2.36607
-0.780091 0.315931 1.94167
-0.786357 0.6725 -2.18466
-0.383124 0.874923 -2.19492
-0.818798 0.879547 -1.76114
-0.713301 0.8425 2.27516
-0.3475 1.02589 2.27212
-0.737776 1.01603 1.87751
0.379021 0.251491 -2.29851
0.786506 0.4075 -2.26391
0.816321 0.222626 -1.89167
0.35797 0.343917 2.36608
0.75085 0.5375 2.34392
0.779731 0.315798 1.94167
0.382632 0.875019 -2.19502
0.78584 0.6725 -2.18464
0.81832 0.879519 -1.76118
0.3475 1.02582 2.27179
0.713269 0.8425 2.27484
0.737609 1.0159 1.87701
-0.822838 0.22792 -1.125
-0.818743 0.243332 -0.358333
-0.86751 0.409563 -0.723636
-0.411083 0.232133 -0.741667
-0.83267 0.252036 1.175
-0.826164 0.247227 0.408333
-0.880854 0.424492 0.790228
-0.426332 0.214419 0.791667
-0.827683 0.931931 -1.03341
-0.874396 0.777487 -0.687574
-0.811673 0.959421 -0.305679
-0.482154 1.2655 -0.669588
-0.789675 1.02442 1.14978
-0.875179 0.82786 0.787352
-0.793922 0.985171 0.422049
-0.495031 1.42573 0.785823
0.822447 0.227817 -1.125
0.410575 0.232134 -0.741667
0.81821 0.24337 -0.358333
0.867068 0.409936 -0.723681
0.833229 0.250984 1.175
0.425844 0.214416 0.791667
0.825695 0.247202 0.408333
0.880342 0.424468 0.790138
0.827248 0.931865 -1.03354
0.481839 1.26545 -0.669678
0.873934 0.777117 -0.687709
0.811401 0.959436 -0.305904
0.786495 1.02137 1.14937
0.494718 1.42564 0.785643
0.874297 0.827509 0.787082
0.793716 0.98517 0.421734
-0.876674 0.553001 -1.85309
-0.408006 0.54 -2.43125
-0.000249675 0.236146 -1.90342
-0.000247128 0.39575 -2.4162
-0.877075 0.394792 -1.48057
-0.410884 0.227905 -1.50833
-0.847188 0.672863 1.91267
-0.356063 0.69 2.33598
-0.000246248 0.278097 1.96568
-0.000185251 0.513487 2.45057
-0.881669 0.462238 1.54716
-0.410931 0.22757 1.55833
-0.000218683 0.963439 -1.80256
-0.000246368 0.713898 -2.35657
-0.87892 0.737359 -1.42504
-0.413205 0.991087 -1.39729
-3.77259e-05 1.06708 1.8949
-6.17504e-05 0.86014 2.33429
-0.860628 0.840494 1.52481
-0.384419 1.20778 1.51353
0.876675 0.55301 -1.85312
0.407521 0.54 -2.43125
0.877078 0.39496 -1.48059
0.410227 0.227903 -1.50833
0.846711 0.672845 1.91251
0.355909 0.69 2.336
0.885798 0.458594 1.54705
0.414064 0.22757 1.55833
0.878947 0.737341 -1.4251
0.412781 0.991082 -1.39734
0.860183 0.84036 1.52448
0.384186 1.20806 1.5133
-0.870766 0.420362 0.0332962
-0.415267 0.23299 0.025
-0.880244 0.579002 -1.0792
-0.894005 0.599365 -0.332006
-0.00025401 0.231506 -1.125
-0.00025313 0.233249 -0.358333
-0.897603 0.614089 0.415191
-0.89583 0.638589 1.16239
-0.000247036 0.2313 0.408333
-0.000244742 0.259544 1.175
-0.875089 0.802803 0.0498887
-0.512056 1.43655 0.0581175
-0.000164073 1.10193 -1.03348
-0.000140302 1.43279 -0.305792
-0.00014737 1.46138 0.421892
-0.000113178 1.3858 1.14958
0.870314 0.420613 0.0332287
0.414774 0.232985 0.025
0.879761 0.579029 -1.07927
0.895274 0.599374 -0.332119
0.898617 0.614044 0.415034
0.89583 0.638535 1.16219
0.87476 0.802527 0.0496862
0.511761 1.4365 0.0579825
-0.876411 0.401146 -1.87238
-0.865615 0.405535 -1.1021
-0.874703 0.752543 -1.05631
-0.874863 0.704929 -1.80711
0.876409 0.40123 -1.87239
0.875648 0.70492 -1.80715
0.874198 0.752557 -1.05641
0.865143 0.405632 -1.10214
-0.3952 0.228017 -1.89754
0.394624 0.228013 -1.89754
0.408887 0.220697 -1.125
-0.409472 0.220698 -1.125
-0.398164 0.957762 -1.78185
-0.411 1.08126 -1.03344
0.410652 1.08125 -1.03351
0.397707 0.957782 -1.78187
-0.393761 0.401625 -2.37849
-0.395565 0.693199 -2.33219
0.395077 0.693199 -2.33232
0.393271 0.401625 -2.37853
-0.86918 0.414942 -0.34517
-0.874402 0.423131 0.411762
-0.875261 0.815395 0.41862
-0.875168 0.790358 -0.318843
0.868735 0.415252 -0.345226
0.87473 0.790014 -0.319012
0.874813 0.81516 0.418384
0.873925 0.423241 0.411684
-0.413388 0.232136 -0.358333
0.412889 0.23213 -0.358333
0.419067 0.226184 0.408333
-0.419558 0.226186 0.408333
-0.524434 1.40569 -0.305736
-0.508002 1.44006 0.42197
0.507698 1.43999 0.421813
0.524129 1.40563 -0.305848
-0.890008 0.447423 1.16869
-0.846824 0.499869 1.92717
-0.826634 0.841497 1.89509
-0.87773 0.825394 1.15608
0.890029 0.445582 1.16859
0.877267 0.825274 1.15578
0.826189 0.84143 1.89476
0.846105 0.498047 1.92709
-0.414347 0.227611 1.175
0.415669 0.227571 1.175
0.386017 0.261883 1.95367
-0.384697 0.262613 1.95367
-0.388782 1.36188 1.14968
-0.36596 1.06163 1.8862
0.365843 1.06155 1.88595
0.388514 1.36061 1.14947
-0.357264 0.525493 2.44684
0.356939 0.525493 2.45314
0.351704 0.85132 2.32986
-0.351782 0.85132 2.32999
-0.783017 0.34125 -2.27958
-0.56915 0.251633 -2.29837
-0.806421 0.230192 -2.08333
-0.736292 0.46125 2.33687
-0.537573 0.353471 2.35653
-0.757897 0.340955 2.13333
-0.781358 0.73875 -2.16001
-0.574563 0.848781 -2.16878
-0.808125 0.857998 -1.94307
-0.709605 0.91875 2.26372
-0.52125 1.01763 2.26394
-0.719429 1.00855 2.05944
0.568655 0.251622 -2.29838
0.78198 0.34125 -2.27904
0.805884 0.230234 -2.08333
0.537078 0.353572 2.35643
0.735942 0.46125 2.33688
0.757498 0.34086 2.13333
0.574071 0.848775 -2.16878
0.780975 0.73875 -2.16012
0.807642 0.857986 -1.94309
0.52125 1.0176 2.2635
0.70955 0.91875 2.26325
0.7193 1.00845 2.05892
-0.814963 0.238625 -0.933334
-0.817274 0.241972 -0.55
-0.849899 0.320952 -0.732651
-0.612779 0.237733 -0.741667
-0.833929 0.247949 0.983333
-0.828979 0.24724 0.6
-0.863666 0.33133 0.790948
-0.638535 0.213637 0.791667
-0.821394 0.936518 -0.851476
-0.857662 0.866338 -0.678559
-0.81449 0.951364 -0.487611
-0.692098 1.18907 -0.669566
-0.78267 1.00654 0.967846
-0.850397 0.923368 0.786633
-0.788448 0.990572 0.603981
-0.667056 1.26538 0.785868
0.814432 0.238661 -0.933334
0.612523 0.237232 -0.741667
0.81673 0.242021 -0.55
0.849502 0.321107 -0.732674
0.834603 0.24678 0.983333
0.638046 0.213634 0.791667
0.828496 0.247229 0.6
0.863187 0.331305 0.790903
0.821025 0.936497 -0.851633
0.691818 1.18909 -0.669701
[...]
POINT_DATA 3682
SCALARS point_scalars float 1
LOOKUP_TABLE default
-106.055
-38.8442
-70.3877
-38.0511
-104.832
-38.993
-70.2493
-38.1415
-35.3363
-43.3517
-55.0559
-48.125
-35.3166
-43.5682
-55.0497
-48.1665
0.99132
-104.809
-35.4326
-41.7376
-41.7776
-37.8312
-34.2812
0.99132
-122.064
-37.1752
-41.9507
-41.5955
-38.0479
-34.3868
21.2786
-97.0708
-43.8676
-43.6195
-41.4821
-36.0365
-34.1239
-47.7006
-66.5936
-92.1149
-58.3508
-39.4458
-37.0507
-37.0507
82.0678
-169.441
-36.6311
-41.1929
-39.7623
-33.6874
-32.7158
82.0678
-32.5662
-32.5662
160.928
-33.5016
-32.5662
-20.7314
-63.3018
-80.3924
-59.6738
-36.8625
-35.0206
-33.8133
80.4488
-141.587
-36.3022
-41.9069
-39.8038
-33.8225
-32.8671
80.4488
-32.8008
-32.8008
162.726
-33.5776
-32.8008
-20.6281
-62.9048
-79.766
-59.638
-37.0236
-34.8104
-33.7751
-5.84379
-105.8
-35.413
-42.0961
-41.8192
-38.0028
-34.4361
7.1429
-121.537
-37.1654
-40.3455
-41.7784
-38.2236
-34.5333
21.1879
-97.0236
-43.9514
-43.5866
-41.5854
-36.153
-34.2232
-47.8498
-66.6549
-91.8216
-58.3152
-39.4865
-37.133
-37.133
-59.3684
-155.821
-49.4027
-35.9263
-28.9613
-47.2156
-101.594
-41.369
-35.7555
-48.2226
-59.3255
-49.3141
-36.0404
-47.0085
-41.3971
-48.2617
-33.9041
-40.4746
-38.2933
-40.3375
-43.3243
-51.3707
-11.0665
-64.2125
-33.7848
-40.5563
-40.3413
-51.3923
-47.6055
-47.6937
-55.5468
-7.73603
204.7
-40.0675
-40.0917
-34.6014
-84.6993
-46.9673
-47.1679
-38.1234
-43.1289
-27.9216
-39.2818
-161.699
-73.6154
-37.9119
-32.9668
-41.3603
-59.3292
-82.5642
-60.4934
-36.6338
-34.7184
-41.6489
-161.701
-39.4663
-73.7483
-33.0811
-38.0819
-41.4332
-82.3416
-59.119
-60.7265
-34.7471
-36.7982
-41.6569
-46.5641
-34.0851
-37.0137
-37.9629
-39.7485
-34.9298
-40.7456
-41.8631
-44.9709
-45.6585
-54.2127
-18.4765
-48.6766
-43.6337
-49.2673
-61.7069
-46.8842
-37.9564
-34.0826
-37.0143
-39.8849
-42.039
-35.5564
-40.4841
-44.376
-18.6167
-45.7125
-54.2076
-48.4933
-61.7017
-43.5453
-49.3143
-70.0522
188.313
-80.1964
129.142
-47.8071
-53.963
-43.221
-31.7411
-36.8295
-20.4625
-46.8654
-39.5402
-41.2988
157.087
-46.4376
-13.961
-38.7928
-29.0603
-46.5859
-43.967
-70.1359
188.194
-47.8404
-53.9511
-43.2528
-31.8472
-47.2765
-39.4074
-46.5099
-13.959
-46.6381
-43.9716
-36.7432
-34.1231
-38.9465
-40.382
-45.0143
-35.4321
-40.1197
-42.5647
-36.5064
-38.0325
-44.7438
-73.2228
19.8215
-101.03
-71.7834
-53.9416
-36.76
-34.1263
-38.7105
-40.4839
-40.2258
-42.5939
-44.7944
-73.2675
-75.3349
-42.3064
-40.4826
-73.1706
-75.3585
-73.9886
-40.2859
-42.1607
-75.6281
-75.6438
-44.3347
-44.3205
-43.3608
10.044
10.0824
-43.3534
152.569
131.89
131.879
152.587
-36.5348
-37.4932
-43.4719
-45.8956
-36.523
-46.0014
-43.505
-37.5791
-34.7515
-34.732
-36.0771
-35.9709
-95.3934
-63.747
-63.7443
-95.6526
-42.0024
-42.4876
-42.8056
-45.0074
-42.2151
-44.9877
-42.847
-42.4961
-38.5847
-38.6799
-38.6969
-38.6374
-54.6773
-39.2513
-39.2587
-54.7081
-30.5703
-30.8483
-32.3363
-32.2622
-38.9136
-181.127
-95.2233
-37.9113
-35.6595
-41.381
-62.1189
-63.6646
-83.7089
-37.8396
-35.0016
-39.3755
-180.857
-39.3739
-94.9197
-35.9601
-38.0732
-41.4256
-63.7764
-61.713
-83.63
-35.0514
-37.949
-39.4112
-36.2327
-34.3298
-35.7128
-37.091
-33.5825
-36.1808
-41.7635
-42.0192
-52.3739
-49.2442
-55.2851
-76.9937
-48.1406
-45.4616
-48.7957
-54.043
-36.2143
-37.0634
-34.2791
-35.7059
-33.0509
-41.9691
-36.0888
-42.3441
-52.4104
-77.1781
-49.2815
-55.2648
-48.2538
-54.0492
-45.4603
-48.8572
-47.4487
-52.5176
-111.926
149.262
-155.32
-155.34
-105.499
105.868
-58.2065
-43.2588
-47.7554
-51.7334
-36.3526
-36.3363
-42.2658
-33.2991
-30.1462
-30.2211
-33.8119
-23.7133
-43.0554
-41.1962
-47.1957
-41.9589
-111.364
-111.831
-65.262
71.1784
-49.0402
-38.1953
-45.2855
-22.9947
-35.3178
-35.32
-36.9594
-32.814
-44.758
-50.0903
-46.6192
-45.934
-47.4367
-52.1678
-112.13
149.596
-58.1691
-42.0925
-47.7268
-51.6892
-36.4651
-36.4547
-42.3213
-33.3802
-43.3629
-41.2407
-46.9624
-40.5858
-49.0476
-38.1966
-45.2603
-23.0049
-44.7865
-50.1316
-46.6609
-45.9602
-33.7782
-34.5784
-36.007
-33.572
-38.4572
-42.4407
-40.771
-40.4985
-38.228
-38.2257
-41.0146
-36.5177
-39.618
-41.7401
-40.6147
-41.2951
-43.6549
-43.6729
-38.1332
-38.6213
-52.7546
-50.6403
-47.6236
-59.8215
-11.635
-11.3866
16.3301
-60.7489
-63.8361
-63.8301
-67.9483
-60.363
-33.6532
-34.825
-36.0493
-33.4684
-38.4887
-42.5154
-40.796
-40.483
-39.5809
-41.7434
-40.69
-41.2169
-52.7698
-50.6433
-47.6937
-59.8013
-58.0886
-47.7375
-47.2894
-42.6637
-58.133
-47.8366
-47.3544
-42.7106
-66.1441
-55.0678
-55.3686
-48.0924
-22.9996
-9.30732
-9.30059
5.17256
204.382
193.492
153.853
204.389
-38.668
-40.152
-39.908
-42.0811
-38.7011
-40.1645
-39.9779
-42.1252
-34.5485
-34.8913
-35.614
-34.5575
-82.4776
-94.4925
-76.797
-82.498
-44.7144
-46.8078
-46.8518
-44.696
-44.8329
-47.2251
-46.9977
-44.694
-37.8595
-38.4739
-38.4589
-37.8096
-40.2678
-43.3274
-43.3311
-47.2387
-29.2714
-26.8985
-28.9372
-29.3669
-104.669
129.403
-104.298
123.51
-78.3314
-72.3315
-41.6206
-33.2393
-36.8553
-30.7709
-42.0164
-39.9796
-98.8684
95.5177
-67.1414
74.8552
-69.7631
-48.9914
-41.8091
-33.4827
-36.9358
-33.327
-42.3539
-39.8166
-104.195
123.279
-104.406
131.851
-78.4683
-72.4413
-36.9863
-30.7213
-41.6725
-33.4135
-42.0519
-40.1983
-67.0564
75.0977
-98.4982
95.4281
-69.5339
-49.0102
-36.9533
-33.3856
-41.8701
-33.5531
-42.3933
-39.8325
-45.7534
-43.6567
-35.6598
-34.1508
-37.8279
-36.6704
-40.6384
-35.6546
-41.3144
-38.6941
-36.8507
-35.3643
-38.456
-37.0248
-37.2068
-38.5684
-43.5859
-9.70788
-43.6421
-46.4162
-48.9274
-70.3418
6.16212
-63.6675
-46.6899
-57.2369
-43.435
-43.7052
-45.8524
-54.3232
-62.7461
-60.7963
-45.5084
-43.7234
-40.6351
-35.6455
-35.6588
-34.1479
-37.8174
-36.6569
-41.7018
-38.8868
-37.2807
-38.2425
-36.9928
-35.8376
-38.4867
-37.0883
-43.4483
-9.2036
6.23222
-62.2791
-43.6061
-46.4904
-48.9665
-70.353
-46.6342
-57.1024
-62.7386
-60.8048
-43.4857
-43.7359
-45.7998
-54.3957
-73.2191
-71.5578
181.043
138.864
-79.2316
-79.2334
141.691
142.884
-57.4754
-42.594
-63.943
-46.2484
-42.9694
-43.0604
-31.8161
-31.7242
-37.4213
-37.378
-24.8371
-25.1222
-43.6746
-44.2702
-38.3706
-39.8882
-41.2086
-41.1887
158.471
159.82
-41.8438
-56.0841
-27.5581
-2.1482
-38.9066
-38.9091
-30.1201
-30.0415
-44.5663
-46.8876
-48.1163
-40.9043
-73.1522
-71.6622
138.904
180.941
-57.4492
-42.6563
-63.9401
-46.2419
-43.1024
-42.9785
-31.9735
-31.8199
-43.5201
-44.4708
-38.4072
-39.9762
-56.1461
-41.8013
-2.14521
-27.5449
-46.9265
-44.6171
-40.9153
-48.1318
-36.546
-36.9176
-34.2591
-34.8756
-40.2235
-38.9008
-38.4422
-42.7226
-44.8109
-44.8082
-35.25
-35.2428
-39.1096
-41.6933
-42.3144
-43.483
-36.2653
-36.2228
-38.13
-38.135
-43.8044
-44.4209
-83.3735
-67.0958
17.1224
17.7296
-97.5626
-97.6119
-70.2541
-70.2488
-54.1375
-54.1437
-36.5598
-36.9991
-34.2286
-34.9869
-38.6044
-40.1193
-38.4779
-42.8478
-41.8128
-39.1901
-42.3401
-43.4511
-44.4755
-43.8552
-67.11
-83.4023
-95.8214
-57.5453
-57.9784
-106.219
-36.2452
-39.3754
-42.6276
-41.9817
-47.306
-41.5873
-42.3249
-42.1033
-94.8488
-107.719
-57.3765
-53.795
-95.2487
-105.832
-57.8267
-57.5859
-94.7392
-53.8121
-57.4673
-110.414
-47.3319
-42.1224
-42.3739
-41.5612
-36.2235
-42.0808
-42.7019
-39.3858
-101.943
-104.629
-65.8348
-61.3123
-101.727
-61.2885
-65.8498
-104.631
-39.6932
-40.8824
-47.6495
-44.3409
-39.6844
-44.3783
-47.6521
-40.8828
-71.0123
-33.6984
-23.8724
-65.7308
-50.5231
14.5544
3.06397
-14.8426
-49.8994
-14.8932
3.08034
14.5845
-70.98
-65.6704
-23.8612
-33.7031
95.3077
149.34
190.87
122.907
50.6013
76.428
144.793
102.105
50.5992
102.354
145.034
74.8952
94.4706
122.858
190.92
149.811
-35.6116
-35.7909
-38.545
-38.4123
-37.826
-39.8217
-38.7055
-36.2609
-45.4581
-46.5842
-41.7599
-41.9381
-49.4799
-42.9849
-42.1998
-48.0796
-35.6101
-38.3994
-38.6129
-35.7738
-49.5214
-47.9396
-42.2344
-43.032
-45.5082
-42.0256
-41.818
-46.6195
-37.8804
-36.4146
-38.7852
-39.8898
-34.809
-36.2907
-34.7
-33.5894
-34.7892
-33.4696
-34.6945
-36.2321
-36.1103
-37.5912
-35.4796
-34.852
-36.1597
-34.5961
-35.4475
-37.5539
-78.2194
-63.9289
-91.4983
-59.9151
-53.074
-66.7435
-75.0138
-57.0951
-53.1014
-57.1099
-75.0102
-66.7373
-78.3478
-59.8036
-91.5014
-63.7787
-33.3123
-42.8243
-44.1444
-40.4687
-41.7763
-41.8118
-44.577
-44.0139
-41.0946
-44.2827
-44.7287
-42.1225
-46.3228
-42.2085
-45.7128
-47.9105
-32.6496
-40.5433
-44.0526
-43.0741
-46.3667
-47.8748
-45.7697
-42.1267
-41.1522
-42.2035
-44.7945
-44.3311
-41.8358
-44.3444
-44.699
-41.8722
-39.4714
-38.5359
-37.9883
-39.4676
-39.5061
-40.266
-37.9933
-38.5159
-40.5355
-34.7187
-38.2431
-42.4362
-40.3718
-41.9755
-38.236
-34.6558
-54.3416
-50.9949
-47.4433
-60.2391
-37.456
-36.9577
-40.4597
-42.2125
-37.4821
-42.2136
-40.46
-36.9633
-54.4204
-60.2582
-47.4585
-51.0218
-33.8333
-26.5776
-28.8014
-33.4388
-34.1542
-33.5147
-29.0355
-26.5068
-33.8481
-32.8637
-30.1292
-33.3696
-33.7827
-33.2882
-30.0412
-32.8011
-65.0753
-144.647
-108.558
-38.4096
-37.22
-40.6501
-63.275
-58.4964
-87.5063
-38.3262
-35.8999
-38.5262
-144.294
-66.5561
-108.846
-37.3924
-38.5774
-40.7399
-58.6299
-62.9968
-87.4618
-35.9616
-38.4313
-38.57
-35.9208
-34.5089
-35.3069
-36.2872
-35.3907
-37.4511
-42.3108
-42.5087
-54.526
-52.6829
-55.5241
-65.7589
-48.0994
-47.5857
-48.2253
-49.9799
-35.8962
-36.2722
-34.4828
-35.2935
-34.5093
-42.3479
-37.4153
-43.4879
-54.4938
-65.8317
-52.6968
-55.5086
-48.1625
-50.0044
-47.619
-48.3385
-56.0212
-57.828
-116.955
80.1215
-155.863
-155.864
-127.886
-5.4746
-52.0117
-45.4755
-47.8449
-50.2921
-35.7999
-36.1973
-41.5004
-33.8613
-29.1428
-29.1866
-31.6335
-26.4124
-43.5726
-45.3884
-47.2301
-45.4701
-104.867
-104.776
-81.1772
10.1636
-44.6123
-39.0912
-44.2882
-31.2603
-35.5551
-35.5452
-36.0355
-34.5401
-46.3975
-49.1636
-47.1711
-48.4533
-56.1007
-57.7633
-116.854
80.1374
-52.0973
-45.318
-47.7873
-50.2179
-35.9026
-36.3221
-41.5252
-33.9519
-45.2931
-43.1796
-47.532
-44.4004
-44.6356
-39.1143
-44.0126
-31.2962
-46.4369
-49.2135
-47.2064
-48.5044
-33.586
-34.5852
-35.1496
-32.6768
-39.5182
-41.3778
-40.4862
-40.4962
-38.3059
-38.3052
-39.8377
-37.143
-39.8886
-41.0525
-41.2904
-39.924
-43.4176
-43.4167
-39.6988
-41.0624
-52.033
-51.1253
-49.6185
-55.1762
-11.1549
-10.9731
5.69911
-28.7522
-64.1382
-64.1352
-66.1111
-62.4707
-33.384
-34.675
-35.1706
-32.2587
-39.5795
-41.4615
-40.4714
-40.5826
-39.8854
-41.0621
-41.4452
-39.8151
-52.0711
-51.1371
-49.6641
-55.1466
-52.0082
-47.5485
-47.4228
-44.6994
-52.1209
-47.6793
-47.4931
-44.7515
-60.3883
-55.7438
-55.7298
-51.8054
-15.294
-8.11848
-8.11405
-1.36066
204.365
207.716
178.173
204.308
-39.3837
-40.1313
-39.9759
-40.8594
-39.4198
-40.0954
-40.0005
-40.8646
-34.6204
-34.9834
-34.2714
-34.6259
-84.2395
-90.0063
-80.3849
-84.2479
-46.1661
-46.8964
-46.9692
-45.9975
-46.3751
-47.1683
-47.1443
-46.0615
-37.8527
-38.244
-38.2378
-37.9284
-41.599
-43.1809
-43.1815
-44.9882
-28.3634
-28.3818
-28.269
-28.4187
-30.3803
-45.0772
-110.496
75.1127
-167.677
-155.393
-125.959
44.6695
-84.8892
-64.7645
-76.3911
-69.8573
-37.929
-37.2732
-41.0876
-34.0635
-34.1063
-31.6138
-35.209
-31.4078
-41.6241
-42.9262
-41.5541
-40.9774
-56.3333
-51.5812
-111.858
39.8234
-72.6994
-97.1547
-82.5331
-26.6118
-70.6691
-53.8595
-66.864
-52.8398
-37.1122
-36.6149
-41.4962
-34.0719
-34.6884
-35.018
-35.855
-33.8406
-40.4205
-43.0185
-42.0742
-40.5483
-167.615
-155.418
-125.983
44.0435
-30.8919
-45.5636
-110.167
74.5869
-85.0381
-64.7265
-76.5088
-70.2987
-34.4456
-31.702
-35.3545
-31.531
-38.1017
-37.4112
-41.2024
-34.195
-41.6883
-43.0093
-41.5976
-41.1324
-72.5814
-97.3329
-82.4815
-27.262
-56.0091
-51.5006
-112.064
39.8456
-70.7259
-53.9371
-66.7704
-52.848
-34.7279
-35.0313
-35.8742
-33.8944
-37.0285
-36.7465
-41.5859
-34.1558
-40.4416
-43.034
-42.115
-40.5761
-39.7646
-45.5726
-47.3049
-43.0885
-34.1293
-33.8766
-34.8139
-33.7899
-36.4174
-37.629
-37.3648
-36.9106
-37.5299
-37.9719
-39.9737
-36.344
-39.9603
-39.5629
-41.1942
-38.9244
-35.559
-34.8933
-36.0032
-34.5185
-41.6107
-39.4922
-39.4373
-35.2487
-41.3448
-43.3633
-38.9867
-39.7943
-52.3521
-40.2086
-45.6577
-30.7762
-47.3951
-43.7874
-44.8604
-46.2012
-54.9069
-53.6019
-51.8844
-60.508
-37.1159
-13.4864
-3.80469
-39.0315
-47.0875
-49.7998
-48.0007
-53.2019
-44.3196
-42.5685
-43.3481
-42.8889
-49.1545
-50.0564
-48.0958
-51.025
-58.6092
-63.274
-62.7606
-62.154
-39.5991
-46.7281
-47.0891
-43.2513
-37.5343
-37.9706
-39.9691
-36.3383
-34.1263
-33.8112
-34.805
-33.838
-36.417
-37.6106
-37.3563
-36.924
-40.3532
-40.1454
-41.4516
-39.1921
-41.3742
-43.4484
-39.0676
-40.1179
-35.6046
-35.3984
-36.3042
-35.2631
-41.6653
-39.3854
-39.4483
-34.5996
-51.5171
-40.1705
-45.4451
-30.7024
-37.3101
-13.6569
-3.74305
-39.6333
-47.4389
-43.8454
-44.8889
-46.2628
-54.85
-53.5929
-51.8999
-60.5055
-47.4494
-49.333
-47.952
-53.0439
-58.6156
-63.2665
-62.7721
-62.1438
-44.2654
-42.5463
-43.3922
-42.7659
-49.142
-50.0566
-48.0192
-51.1092
-82.6939
-66.0256
-71.0024
-68.8847
171.757
200.177
192.046
171.091
-90.026
-72.7034
-79.8955
-79.896
132.517
165.257
125.89
126.012
-47.8714
-47.9331
-52.1078
-44.7893
-52.8953
-54.8172
-58.6045
-50.0175
-42.6927
-43.8068
-43.2048
-43.1556
-32.7151
-30.4172
-32.0545
-31.5491
-35.9399
-37.6237
-36.9889
-36.9688
-21.8355
-23.2179
-22.4182
-22.4718
-47.0124
-46.5681
-45.7276
-45.4997
-40.513
-38.7806
-38.7293
-39.3065
-52.2329
-32.1209
-41.0063
-40.9969
122.081
163.241
144.406
144.316
-45.6791
-47.1697
-43.3363
-50.4024
-17.8307
-11.2596
-20.2393
-7.93579
-37.9806
-39.3136
-38.82
-38.8208
-30.7113
-29.2161
-29.4177
-29.6371
-46.463
-46.7508
-45.6423
-47.1164
-44.5397
-43.5613
-45.8186
-42.2873
-80.032
-66.6243
-71.0983
-68.8688
171.839
200.271
171.058
192.06
-47.8795
-47.979
-52.144
-44.8097
-52.8663
-54.8115
-58.5907
-50.0087
-42.7281
-43.8399
-43.1948
-43.2206
-32.8047
-30.5414
-32.1506
-31.6507
-47.2134
-46.9702
-44.9665
-46.0601
-40.0731
-38.7326
-38.6864
-39.2624
-45.7533
-47.2321
-50.4859
-43.3416
-17.8373
-11.2478
-7.93008
-20.2383
-46.5088
-46.8391
-47.1683
-45.704
-44.5455
-43.5604
-42.3064
-45.827
-36.3794
-37.6605
-36.742
-36.7806
-33.8488
-34.3686
-34.2319
-34.0317
-39.4949
-41.3611
-39.1183
-38.8024
-40.4356
-40.2041
-39.4969
-41.3457
-42.6407
-46.7738
-44.9632
-44.9652
-35.8736
-35.094
-35.3907
-35.3857
-40.3041
-39.9949
-39.6273
-40.7096
-42.032
-43.5862
-42.4322
-42.9558
-36.6103
-36.3221
-36.5049
-36.4835
-38.3921
-37.7443
-38.0196
-38.02
-46.0685
-43.5084
-44.0886
-44.4472
-65.8357
-78.9803
-77.509
-70.6707
21.1543
11.9949
19.2008
19.0837
-91.6331
-97.9647
-99.6549
-99.6892
-69.8015
-74.1062
-71.4285
-71.427
-57.2079
-50.2325
-53.8941
-53.8967
-36.408
-37.6751
-36.7347
-36.8338
-33.8225
-34.3783
-34.2108
-34.0771
-39.3565
-41.3334
-38.5177
-38.8976
-40.3918
-40.3744
-39.5807
-41.4611
-40.4107
-40.0327
-40.8106
-39.729
-42.0121
-43.5958
-42.4683
-42.9625
-46.1387
-43.5918
-44.4435
-44.1423
-65.8208
-79.0105
-70.6914
-77.5587
-86.7278
-77.5054
-74.1769
-65.1064
-43.5982
-38.991
-44.9495
-41.2625
-41.8924
-42.4272
-41.0951
-39.5593
-84.2264
-71.4135
-74.5778
-63.6758
-86.5716
-77.5811
-74.0809
-65.3828
-83.8315
-71.4878
-75.3206
-63.8542
-41.7624
-42.3447
-41.0307
-39.3101
-43.6895
-38.932
-44.789
-41.152
-85.6576
-73.7048
-77.7757
-70.4508
-85.6789
-73.726
-77.9059
-70.4568
-43.993
-41.9982
-45.6235
-44.6206
-43.9684
-41.9902
-45.6141
-44.6148
-54.7652
-46.0835
-41.9984
-35.2171
3.09362
11.7983
3.52698
14.3686
3.08443
11.84
3.54048
14.3979
-54.7234
-46.0951
-41.9827
-35.213
148.362
148.456
164.12
148.213
115.224
106.307
133.164
139.312
106.866
115.02
138.49
133.366
148.224
148.065
148.299
164.142
-36.2132
-36.6601
-36.6087
-37.2503
-37.1974
-37.9355
-37.1151
-38.2191
-43.4119
-44.4101
-42.6342
-43.5768
-46.0902
-47.0484
-44.404
-45.4679
-36.2141
-36.6374
-36.6278
-37.2399
-46.1696
-47.1059
-44.5384
-45.5359
-43.4518
-44.4046
-42.7366
-43.6319
-37.2911
-37.9733
-37.2052
-38.2991
-34.3923
-35.1466
-34.4467
-35.0332
-35.1332
-34.3652
-35.0207
-34.42
-36.2016
-35.8464
-36.187
-35.663
-35.6573
-36.1179
-35.5459
-36.1186
-86.9283
-83.9505
-87.052
-95.8587
-58.241
-63.5405
-65.6142
-67.9971
-63.549
-58.2207
-67.9915
-65.6044
-83.3693
-86.9337
-95.9635
-87.0752
-41.6131
-41.5368
-42.7834
-42.1936
-41.8747
-42.2287
-42.5728
-43.2281
-42.0823
-42.6035
-42.9457
-43.6161
-45.6866
-44.2241
-45.9268
-44.1384
-41.9901
-42.1836
-42.7989
-42.243
-45.6712
-44.2089
-45.9497
-44.0874
-42.1372
-42.647
-42.9875
-43.6624
-41.9001
-42.2531
-42.5761
-43.3206
-38.6692
-39.212
-38.0939
-38.3456
-38.8191
-38.8693
-38.1881
-38.392
-38.2443
-39.3832
-37.8692
-39.9451
-38.0745
-39.217
-37.795
-39.9241
-56.3529
-58.576
-51.0545
-54.4828
-38.1409
-39.487
-39.0375
-40.0071
-38.1543
-39.4927
-39.0426
-40.0038
-56.3352
-58.6293
-51.0448
-54.4843
-32.7039
-30.5313
-31.3001
-28.1338
-30.5686
-33.0499
-28.1727
-31.5461
-32.8213
-33.1577
-30.9285
-32.0436
-33.0936
-32.7566
-31.9582
-30.859
-108.194
71.3569
-126.297
1.38475
-88.3169
-100.806
-41.2815
-34.6228
-38.6682
-34.5528
-41.9495
-40.5646
-102.922
19.8511
-80.2174
-5.69431
-89.8508
-72.7751
-41.0312
-34.5863
-36.2434
-34.2434
-40.485
-38.1338
-126.303
-0.00818367
-108.636
70.3129
-87.1999
-100.466
-38.8751
-34.9179
-41.3795
-34.7951
-41.9968
-40.6816
-80.1875
-5.47164
-102.999
20.0631
-89.7834
-72.7236
-36.2781
-34.3017
-41.1032
-34.6663
-40.541
-38.1567
-35.9243
-38.2662
-34.892
-34.2593
-35.8445
-35.6043
-39.0181
-35.4076
-34.4622
-39.2028
-37.3594
-35.785
-38.7163
-36.4838
-38.219
-40.0682
-49.7181
-64.5947
-48.4744
-49.466
-53.1932
-63.4981
-65.7021
-83.8706
-47.7246
-50.007
-45.3752
-45.6485
-47.7803
-49.9775
-53.04
-53.7998
-35.9
-38.2483
-38.9433
-35.4185
-34.8766
-34.122
-35.83
-35.6059
-33.6601
-38.9963
-38.1953
-39.9879
-37.3551
-35.5119
-38.7532
-35.9602
-49.7806
-64.5374
-65.7452
-84.4272
-48.5082
-49.5039
-53.2067
-63.5341
-47.8085
-50.1074
-53.0668
-53.7333
-45.3983
-45.6954
-47.8282
-50.0385
-116.725
85.6638
-115.728
51.756
-108.954
-111.85
150.498
129.004
-127.144
-10.6768
-127.147
-10.88
-105.256
-105.261
72.6576
71.8946
-57.1048
-59.4441
-41.788
-43.5056
-51.962
-44.6716
-56.1176
-48.0563
-41.0394
-34.0767
-41.5989
-33.9074
-42.1584
-42.2507
-33.5072
-33.2074
-32.7602
-28.2604
-32.8345
-28.5158
-34.1162
-34.0856
-24.4631
-24.5565
-43.9663
-41.1884
-42.4786
-40.5008
-44.5333
-45.6079
-40.4118
-40.5507
-82.087
30.0568
-81.771
29.067
-65.1712
-65.1456
99.1315
99.009
-52.7867
-40.1495
-41.193
-25.9842
-42.6466
-48.7624
-28.1699
-18.5667
-35.8991
-34.285
-35.9082
-34.299
-36.966
-36.9687
-32.7928
-32.6916
-44.3973
-44.1155
-48.8869
-52.2474
-45.4859
-47.5802
-48.5254
-43.9149
-116.443
85.636
-116.035
51.6694
-108.59
-113.125
129.953
150.907
-57.1273
-59.4058
-41.3315
-43.3211
-52.0081
-44.5866
-56.0674
-48.0007
-41.1412
-34.1658
-41.5858
-34.0022
-42.3184
-42.2169
-33.578
-33.2931
-44.1649
-42.3591
-42.8354
-40.3562
-44.1324
-45.8541
-40.8097
-39.4739
-52.7599
-40.1634
-41.1728
-26.0531
-48.7893
-42.6508
-18.5897
-28.1747
-44.4404
-44.141
-48.9119
-52.3144
-47.606
-45.5346
-43.9141
-48.5294
-34.8065
-33.1407
-35.5021
-34.4487
-35.9229
-36.0557
-33.4492
-33.7268
-38.7612
-38.4097
-42.233
-42.7845
-40.0445
-41.3998
-39.524
-41.4781
-39.5547
-37.1404
-39.5533
-37.1342
-40.9751
-40.9747
-36.4605
-36.4559
-40.9248
-38.3398
-42.6375
-41.3398
-40.2568
-41.093
-40.8725
-41.8577
-39.4002
-41.0673
-39.4332
-41.0709
-38.0383
-38.0203
-38.5488
-38.5454
-50.6006
-57.2692
-48.8735
-53.0587
-46.9134
-48.3492
-61.2544
-58.91
4.22763
-28.7203
4.42295
-28.5181
15.8842
15.8937
-60.4254
-60.4021
-65.3482
-62.3635
-65.3455
-62.346
-67.7006
-67.7001
-60.3765
-60.3802
-34.7438
-32.9723
-35.7122
-34.7635
-35.9222
-36.1467
-33.2797
-33.8312
-38.7295
-38.4753
-42.225
-42.8642
-41.431
-40.0597
-39.5057
-41.4909
-41.0616
-38.1562
-42.7706
-41.2469
-41.1658
-40.333
-40.8179
-41.7426
-50.5629
-57.269
-48.8882
-53.1003
-48.3576
-46.949
-58.8519
-61.2909
-58.0115
-57.7947
-51.9406
-44.7403
-44.2528
-51.4284
-42.6043
-42.4164
-57.7852
-57.8789
-52.0963
-44.8152
-51.5377
-44.3025
-42.4729
-42.6752
-65.966
-65.9658
-60.1742
-51.3441
-60.1547
-51.4639
-47.9876
-47.989
-23.0722
-23.0638
-16.4279
-2.63722
-2.62606
-16.4233
4.27346
4.28237
204.453
173.863
192.899