# vtk DataFile Version 2.0
tet_velo
ASCII
DATASET UNSTRUCTURED_GRID
POINTS 29498 float
-0.695 0.315 -2.20892
-0.719919 0.385 2.235
-0.723703 0.845 -2.135
-0.665147 1.025 2.275
0.695 0.315 -2.20892
0.719919 0.385 2.235
0.723703 0.845 -2.135
0.665147 1.025 2.275
-0.759675 0.281964 -0.727614
-0.797816 0.275463 0.753693
-0.786091 0.986906 -0.665
-0.765648 1.04598 0.805
0.758922 0.282718 -0.727614
0.798049 0.27523 0.753693
0.784967 0.985783 -0.665
0.765644 1.04598 0.805
-1.45277 -0.0644201 -3.41997
-1.45819 -0.0288539 -2.23946
-1.50724 -0.053685 -0.757858
-1.53372 -0.0663965 0.726016
-1.4919 0.00242064 2.20781
-1.47794 0.049574 3.38926
-1.48328 0.0823546 4.56898
-1.45186 0.250063 -3.38708
-1.45725 0.304794 -2.2078
-1.51757 0.298538 -0.728398
-1.53556 0.287841 0.752019
-1.46308 0.350608 2.23163
-1.45932 0.395983 3.41293
-1.47458 0.4287 4.59302
-1.46506 0.843822 -3.31812
-1.47962 0.89678 -2.13837
-1.53466 0.994047 -0.666675
-1.51547 1.03044 0.804216
-1.42699 1.03084 2.27612
-1.44086 1.07354 3.45789
-1.46858 1.11454 4.6398
-1.48663 1.83198 -3.22317
-1.49801 1.89884 -2.04511
-1.51978 2.00851 -0.577089
-1.52288 2.08571 0.888499
-1.50433 2.11452 2.35664
-1.4958 2.13508 3.53495
-1.4989 2.16401 4.71562
-0.71235 -0.059216 -3.4207
-0.705341 -0.0206949 -2.24052
-0.745453 -0.0615921 -0.757715
-0.781005 -0.0748149 0.727446
-0.75413 0.0198117 2.21031
-0.74439 0.0619337 3.39096
-0.749007 0.0885936 4.56996
-0.711767 0.249241 -3.3873
-0.732272 0.40889 3.41433
-0.744176 0.43458 4.59376
-0.721914 0.822545 -3.31672
-0.71767 1.07481 3.45766
-0.741659 1.11627 4.63975
-0.735709 1.81741 -3.22179
-0.741769 1.88506 -2.04359
-0.761797 2.00575 -0.576171
-0.7745 2.09022 0.888389
-0.768686 2.11625 2.35586
-0.763222 2.1349 3.53416
-0.765259 2.16378 4.71505
0.735952 -0.0592471 -3.4207
0.733873 -0.0205987 -2.24052
0.769594 -0.0611598 -0.757716
0.778468 -0.0748856 0.727446
0.726318 0.0197619 2.21031
0.717723 0.0618953 3.39096
0.716654 0.0885483 4.56996
0.726036 0.249183 -3.3873
0.707456 0.408862 3.41433
0.710508 0.434536 4.59376
0.734058 0.822427 -3.31672
0.688234 1.07478 3.45766
0.700845 1.11622 4.63975
0.757838 1.81715 -3.22179
0.762665 1.88473 -2.04359
0.757542 2.00538 -0.576171
0.730617 2.09002 0.888389
0.702205 2.11615 2.35586
0.696983 2.13483 3.53416
0.698424 2.1637 4.71505
1.4712 -0.0645327 -3.41997
1.47288 -0.0288176 -2.23946
1.52056 -0.0532976 -0.757858
1.53878 -0.0664255 0.726016
1.48477 0.0023042 2.20781
1.46181 0.0494818 3.38926
1.45699 0.0822571 4.56898
1.46003 0.249873 -3.38708
1.45345 0.304612 -2.2078
1.51574 0.298845 -0.728398
1.54267 0.28777 0.752019
1.4717 0.350493 2.23163
1.44769 0.395899 3.41293
1.44777 0.428605 4.59302
1.47026 0.843476 -3.31811
1.47391 0.896231 -2.13837
1.52934 0.993189 -0.666675
1.51848 1.03031 0.804215
1.43211 1.03074 2.27612
1.4235 1.07346 3.45789
1.43424 1.11444 4.6398
1.50345 1.83147 -3.22317
1.51101 1.89821 -2.04511
1.51264 2.00787 -0.57709
1.48639 2.08534 0.888499
1.44941 2.11432 2.35664
1.43705 2.13492 3.53495
1.43641 2.16386 4.71562
-0.754031 0.58 -2.21664
0 0.308367 -2.21555
-0.733547 0.292273 -1.46827
-0.715518 0.705 2.27798
0 0.384476 2.23552
-0.772545 0.316554 1.49435
0 0.916594 -2.20659
-0.781364 0.94242 -1.4
0 1.05731 2.30732
-0.751487 1.07158 1.54
0.754266 0.58 -2.21687
0.733556 0.292264 -1.46827
0.715521 0.705 2.27799
0.772417 0.316682 1.49435
0.781368 0.942424 -1.4
0.751444 1.07154 1.54
-0.759904 0.297555 0.0130399
-0.827345 0.634435 -0.696307
-0.000376782 0.260133 -0.727614
-0.854063 0.660723 0.779347
0.000116673 0.268729 0.753693
-0.772656 1.01323 0.0700001
-0.000561796 1.32046 -0.665
-2.47613e-06 1.49823 0.805
0.759828 0.297632 0.0130399
0.827322 0.63425 -0.696307
0.854055 0.660604 0.779347
0.772651 1.01323 0.0700001
-0.833836 0.607218 -1.43413
-0.838357 0.647579 0.04152
-0.865304 0.682862 1.51717
-0.000188391 0.266322 -1.46827
-0.000130055 0.261502 0.0130399
5.83365e-05 0.306357 1.49435
0 0.58 -2.36823
0 0.705 2.326
-0.000280898 1.02711 -1.4
-0.000282136 1.50366 0.0700001
-1.23806e-06 1.24482 1.54
0.833846 0.607125 -1.43413
0.838343 0.647427 0.04152
0.865403 0.682802 1.51717
-1.07612 0.309897 -2.20836
-0.700171 0.147153 -2.22472
-0.703384 0.28212 -2.79811
-1.0915 0.367804 2.23332
-0.737024 0.202406 2.22265
-0.726095 0.396945 2.82466
-1.10166 0.87089 -2.13668
-0.722809 0.833773 -2.72586
-0.732736 1.36503 -2.0893
-1.04607 1.02792 2.27556
-0.691409 1.0499 2.86633
-0.716917 1.57062 2.31543
0.714436 0.147201 -2.22472
0.710518 0.282091 -2.79811
1.07422 0.309806 -2.20836
0.723119 0.202381 2.22265
0.713688 0.396931 2.82466
1.09581 0.367747 2.23332
0.728881 0.833713 -2.72586
0.743184 1.36486 -2.0893
1.0988 0.870615 -2.13668
0.676691 1.04989 2.86633
0.683676 1.57058 2.31543
1.04863 1.02787 2.27556
-1.13862 0.290251 -0.728006
-0.752564 0.110186 -0.742664
-1.16669 0.281652 0.752856
-0.78941 0.100324 0.74057
-1.16037 0.990477 -0.665837
-0.773944 1.49633 -0.620586
-1.14056 1.03821 0.804608
-0.770074 1.5681 0.846695
0.764258 0.110779 -0.742665
1.13733 0.290782 -0.728006
0.788259 0.100172 0.74057
1.17036 0.2815 0.752856
0.771254 1.49558 -0.620586
1.15715 0.989486 -0.665837
0.74813 1.568 0.846695
1.14206 1.03814 0.804608
-1.45548 -0.046637 -2.82972
-1.45231 0.0928215 -3.40353
-1.08256 -0.061818 -3.42034
-1.48272 -0.0412694 -1.49866
-1.45772 0.13797 -2.22363
-1.08177 -0.0247744 -2.23999
-1.52048 -0.0600407 -0.0159209
-1.51241 0.122427 -0.743128
-1.12635 -0.0576385 -0.757787
-1.51281 -0.0319879 1.46691
-1.53464 0.110722 0.739018
-1.15736 -0.0706057 0.726731
-1.48492 0.0259973 2.79853
-1.47749 0.176514 2.21972
-1.12301 0.0111161 2.20906
-1.48061 0.0659643 3.97912
-1.46863 0.222778 3.4011
-1.11116 0.0557539 3.39011
-1.47893 0.255527 4.581
-1.11614 0.0854741 4.56947
-1.45455 0.277429 -2.79744
-1.45846 0.546942 -3.3526
-1.08181 0.249652 -3.38719
-1.48741 0.301666 -1.4681
-1.46843 0.600787 -2.17308
-1.52656 0.29319 0.0118103
-1.52611 0.646293 -0.697536
-1.49932 0.319225 1.49183
-1.52551 0.659139 0.778117
-1.4612 0.373295 2.82228
-1.44504 0.690722 2.25388
-1.46695 0.412341 4.00297
-1.45009 0.734762 3.43541
-1.0958 0.402436 3.41363
-1.47158 0.771621 4.61641
-1.10938 0.43164 4.59339
-1.47234 0.870301 -2.72824
-1.47585 1.3379 -3.27064
-1.09349 0.833183 -3.31742
-1.50714 0.945414 -1.40252
-1.48881 1.39781 -2.09174
-1.52506 1.01224 0.0687704
-1.52722 1.50128 -0.621882
-1.47123 1.03064 1.54017
-1.51917 1.55807 0.846357
-1.43392 1.05219 2.867
-1.46566 1.57268 2.31638
-1.45472 1.09404 4.04884
-1.46833 1.60431 3.49642
-1.07927 1.07417 3.45777
-1.48374 1.63927 4.67771
-1.10512 1.1154 4.63977
-1.49232 1.86541 -2.63414
-1.11117 1.8247 -3.22248
-1.50889 1.95367 -1.3111
-1.11989 1.89195 -2.04435
-1.52133 2.04711 0.155705
-1.14079 2.00713 -0.57663
-1.51361 2.10011 1.62257
-1.14869 2.08797 0.888444
-1.50007 2.1248 2.94579
-1.13651 2.11538 2.35625
-1.49735 2.14954 4.12528
-1.12951 2.13499 3.53455
-1.13208 2.16389 4.71533
-0.708846 -0.0399554 -2.83061
-0.712058 0.0950124 -3.404
0.0118008 -0.0592315 -3.4207
-0.725397 -0.0411435 -1.49912
0.0142656 -0.0206468 -2.24052
-0.763229 -0.0682035 -0.0151349
0.0120706 -0.061376 -0.757715
-0.767567 -0.0275016 1.46888
-0.00126839 -0.0748503 0.727446
-0.74926 0.0408727 2.80063
-0.0139058 0.0197868 2.21031
-0.746698 0.0752637 3.98046
-0.738331 0.235412 3.40264
-0.0133332 0.0619145 3.39096
-0.746592 0.261587 4.58186
-0.0161765 0.0885709 4.56996
-0.716841 0.535893 -3.35201
0.00713425 0.249212 -3.3873
-0.738224 0.421735 4.00404
-0.724971 0.741848 3.436
-0.0124078 0.408876 3.41433
-0.742918 0.775423 4.61675
-0.0168343 0.434558 4.59376
-0.728812 1.31998 -3.26925
0.00607193 0.822486 -3.31672
-0.729664 1.09554 4.04871
-0.740446 1.60486 3.49591
-0.0147179 1.07479 3.45766
-0.753459 1.64002 4.6774
-0.0204069 1.11624 4.63975
-0.738739 1.85124 -2.63269
0.0110646 1.81728 -3.22179
-0.751783 1.94541 -1.30988
0.0104477 1.88489 -2.04359
-0.768148 2.04799 0.156109
-0.00212735 2.00557 -0.576171
-0.771593 2.10323 1.62212
-0.0219414 2.09012 0.888389
-0.765954 2.12558 2.94501
-0.0332407 2.1162 2.35586
-0.764241 2.14934 4.1246
-0.0331198 2.13487 3.53416
-0.0334173 2.16374 4.71505
0.734912 -0.0399229 -2.83061
0.730994 0.0949678 -3.404
1.10358 -0.0618899 -3.42034
0.751733 -0.0408792 -1.49912
1.10338 -0.0247081 -2.23999
0.774031 -0.0680227 -0.0151349
1.14507 -0.0572287 -0.757787
0.752393 -0.0275619 1.46888
1.15862 -0.0706555 0.726731
0.722021 0.0408286 2.80063
1.10554 0.0110331 2.20906
0.717189 0.0752218 3.98046
0.71259 0.235379 3.40264
1.08977 0.0556886 3.39011
0.713581 0.261542 4.58186
1.08682 0.0854027 4.56947
0.730047 0.535805 -3.35201
1.09303 0.249528 -3.38719
0.708982 0.421699 4.00404
0.697845 0.741821 3.436
1.07757 0.40238 3.41363
0.705676 0.775379 4.61675
1.07914 0.431571 4.59339
0.745948 1.31979 -3.26925
1.10216 0.832952 -3.31742
0.69454 1.0955 4.04871
0.692609 1.60481 3.49591
1.05587 1.07412 3.45777
0.699635 1.63996 4.6774
1.06754 1.11533 4.63977
0.760252 1.85094 -2.63269
1.13064 1.82431 -3.22248
0.760103 1.94506 -1.30988
1.13684 1.89147 -2.04435
0.744079 2.0477 0.156109
1.13509 2.00663 -0.57663
0.716411 2.10309 1.62212
1.1085 2.08768 0.888444
0.699594 2.12549 2.94501
1.07581 2.11524 2.35625
0.697704 2.14927 4.1246
1.06702 2.13488 3.53455
1.06742 2.16378 4.71533
1.47204 -0.0466751 -2.82972
1.46561 0.09267 -3.40353
1.49672 -0.0410576 -1.49866
1.46316 0.137897 -2.22363
1.52967 -0.0598615 -0.015921
1.51815 0.122774 -0.743128
1.51177 -0.0320606 1.46691
1.54072 0.110672 0.739017
1.47329 0.025893 2.79853
1.47823 0.176399 2.21972
1.4594 0.0658695 3.97912
1.45475 0.22269 3.4011
1.45238 0.255431 4.581
1.45674 0.277242 -2.79744
1.46514 0.546674 -3.3526
1.48459 0.301729 -1.4681
1.46368 0.600421 -2.17308
1.5292 0.293307 0.0118102
1.52254 0.646017 -0.697536
1.50718 0.319131 1.49183
1.53058 0.659039 0.778117
1.45969 0.373196 2.82228
1.45191 0.690619 2.25388
1.44773 0.412252 4.00297
1.43559 0.734678 3.43541
1.44101 0.771522 4.61641
1.47208 0.869854 -2.72824
1.48685 1.33747 -3.27064
1.50162 0.94471 -1.40252
1.49246 1.39722 -2.09174
1.52391 1.01175 0.0687703
1.52099 1.50053 -0.621882
1.4753 1.03053 1.54017
[...]
POINT_DATA 29498
VECTORS point_vectors float
-4.87308 -6.6924 10.4835
0.084576 0.241458 0.981187
-3.00559 2.30617 4.1029
0.0675944 -0.0814536 0.398751
4.87347 -6.69435 10.4795
-0.0809627 0.259934 1.0219
2.99826 2.30055 4.10355
-0.0616219 -0.0895677 0.402789
0.13516 -0.0681244 1.72237
0.134812 -0.160389 2.45506
-0.00684424 0.00154832 0.176675
0 0 0
-0.131565 -0.0644527 1.62782
-0.134843 -0.162975 2.48538
0.00611565 0.00054531 0.0979045
0 0 0
-0.53527 -0.254356 19.8306
-1.24667 -0.724906 20.4326
-0.475859 -0.376587 21.3034
0.00370637 -0.0615861 21.4191
0.515597 0.312049 21.3387
0.732791 0.363462 21.2552
0.736647 0.104408 21.097
-0.63027 -0.194893 19.6978
-1.74311 -0.604105 20.4178
-0.58012 -0.459276 21.3831
-0.0214325 -0.142484 21.5229
0.773599 0.239589 21.3967
0.993095 0.26195 21.4907
0.964857 0.0751133 21.495
-0.725605 0.0728116 19.6439
-1.89086 0.182143 20.3532
-1.11198 -0.262275 21.3585
-0.169004 -0.192586 21.6856
0.855528 -0.286889 21.3919
1.08888 -0.365327 21.0472
0.756379 -0.184284 20.9429
-0.474172 0.328479 19.9206
-0.891627 0.592538 20.3676
-0.842046 0.409186 21.169
-0.165133 -0.0314382 21.5078
0.305694 -0.357629 21.2798
0.386943 -0.391129 21.0486
0.357496 -0.336426 20.8154
-0.474702 -0.490423 19.3607
-1.96833 -3.25889 20.4547
-0.39865 -0.370614 21.4576
0.0696869 0.0421379 20.9588
0.257469 1.02815 19.4943
0.537286 1.52373 18.0907
0.81074 0.796599 16.5852
-0.610814 -0.387211 19.0586
1.11738 1.69984 12.4288
1.39022 0.77002 11.2141
-0.734416 0.178225 18.821
1.98486 -0.305095 11.1384
1.20649 -0.361789 16.5251
-0.41476 0.638177 19.604
-0.910456 1.47437 20.1553
-1.21345 1.53612 21.3038
-0.18824 0.0651311 21.9414
0.26693 -0.639758 21.4092
0.389854 -0.792456 21.1098
0.315032 -0.574165 20.5618
0.482323 -0.479701 19.3744
1.99647 -3.07814 20.4247
0.386221 -0.354665 21.4415
-0.0690355 0.0482884 20.9493
-0.230495 1.05044 19.2424
-0.515988 1.5513 18.0299
-0.832015 0.809196 16.2399
0.620326 -0.382971 19.0652
-1.09186 1.74313 11.9986
-1.41996 0.844368 10.9864
0.739835 0.173007 18.842
-1.96097 -0.323013 10.2634
-1.19228 -0.334739 16.0229
0.422857 0.629559 19.6136
0.924224 1.45209 20.1657
1.21504 1.54785 21.3031
0.183959 0.0719145 21.9626
-0.229637 -0.666401 21.4331
-0.377199 -0.833292 21.1147
-0.321568 -0.601437 20.2755
0.535467 -0.251161 19.8424
1.22439 -0.700414 20.4429
0.48301 -0.376684 21.2981
0.00263233 -0.0665914 21.414
-0.523436 0.323289 21.3469
-0.741803 0.363526 21.2106
-0.727447 0.140992 21.1272
0.63282 -0.196033 19.7044
1.75235 -0.607372 20.4165
0.58448 -0.461078 21.3865
0.0218662 -0.144308 21.5249
-0.773731 0.227463 21.4204
-1.00664 0.257576 21.4697
-0.972338 0.101838 21.486
0.722637 0.0729358 19.6512
1.90477 0.185416 20.3552
1.11865 -0.268306 21.3644
0.16454 -0.192186 21.6918
-0.857522 -0.286539 21.4009
-1.09714 -0.388843 21.0495
-0.798203 -0.196953 20.7845
0.473177 0.324121 19.9297
0.88753 0.578547 20.3711
0.849229 0.416715 21.1747
0.17571 -0.0238575 21.5203
-0.299423 -0.36798 21.2747
-0.380169 -0.434137 21.0475
-0.373165 -0.380368 20.8766
-4.40655 -0.379389 5.02675
1.57822e-05 -0.297799 1.44613
0.00496174 -0.00643151 0.167874
-0.047331 0.0546182 0.0106231
0.00019343 0.00058206 0.00291269
-0.013206 0.0126819 0.162536
-0.000119663 0.719985 1.13256
-0.248827 -0.190473 1.10281
0.0075304 0.207383 -0.177397
0.0132318 0.0110169 0.0657695
4.5333 -0.388142 5.16579
-0.0042118 -0.00514782 0.143012
0.0452414 0.0474235 0.0136505
0.0132843 0.013351 0.179341
0.248794 -0.190495 1.10435
-0.0126922 0.0104934 0.0636386
0.0359436 0.00920907 1.20921
-5.44595e-05 -0.00216449 0.0705423
0 0 0
-0.00669937 0.0295623 0.123693
7.30399e-05 0.000494257 0.0650085
0 0 0
-3.92398e-05 0.0834854 0.149951
3.28855e-06 -0.00238529 0.040748
-0.0356815 0.00950398 1.19983
5.8461e-05 -0.00232527 0.0726822
0.00670886 0.0296286 0.123979
0 0 0
9.4479e-05 -0.0011602 0.0132884
0.000632242 0.0208147 0.121003
0.0138305 0.0124597 0.111186
0 0 0
9.01571e-05 0.00107914 0.0385438
0.00031416 0.000790512 0.0165074
-0.000197115 0.112618 0.0782391
0.00301566 0.062214 -0.0165114
-0.00018552 0.000208173 0.00216566
1.52159e-06 0.000630865 0.0125251
2.91054e-06 0.0015905 -0.00309225
-9.43248e-05 -0.00114925 0.0132987
-0.00062232 0.0205496 0.119638
-0.0140165 0.0120727 0.112268
-3.2765 -1.60969 20.35
-3.36896 -5.29182 20.4586
-1.79478 -1.35676 17.8652
1.16059 0.8197 19.2386
-0.0793324 1.25226 12.6588
-0.066891 1.35417 7.48563
-3.74966 0.74888 20.2892
-2.35016 0.998028 17.2727
-2.13087 2.64396 19.9635
1.40876 -0.0466524 18.0265
1.13171 0.29564 6.81438
0.861888 -0.862735 19.0282
3.42065 -5.10841 20.4441
1.80019 -1.34189 17.8923
3.29296 -1.61821 20.3515
0.101952 1.23429 12.5067
0.112996 1.38966 7.39102
-1.17399 0.8025 19.2522
2.34857 0.982643 17.3073
2.14068 2.59831 19.9734
3.78505 0.761821 20.2909
-1.08533 0.248998 6.40506
-0.883798 -0.868421 18.3341
-1.40476 -0.0690192 18.1246
-0.337176 -0.675828 21.2858
0.0597046 -0.0706017 17.2589
-0.0037959 -0.202694 20.9775
0.419874 -0.115954 17.1105
-1.82118 -0.873057 21.4648
-3.54163 1.96887 21.3989
-0.126667 -0.236245 20.2796
-0.016512 0.149005 19.9601
-0.0475834 -0.07442 17.4423
0.336509 -0.674597 21.2704
-0.429401 -0.112272 17.0824
0.00229364 -0.204505 21.0096
3.56335 1.98284 21.3885
1.82464 -0.889428 21.4235
-0.0475595 0.176706 19.5865
0.128497 -0.242203 20.2944
-0.935537 -0.502332 19.9429
-0.602275 -0.228628 19.7603
-0.563712 -0.394666 19.6214
-0.884368 -0.576739 21.097
-1.49259 -0.700949 20.4336
-1.81263 -1.5731 20.3752
-0.194569 -0.215301 21.386
-0.522269 -0.417654 21.3463
-0.376565 -0.449459 21.501
0.245245 0.121462 21.4753
-0.00786905 -0.108938 21.4613
0.0401907 -0.0686979 21.5411
0.657479 0.403805 21.2006
0.634608 0.294579 21.3834
0.617946 0.671922 21.3073
0.810032 0.42843 20.1091
0.838921 0.334574 21.1297
0.844245 0.856953 21.4113
0.850752 0.0897608 21.296
0.654372 0.676333 21.8517
-1.20081 -0.392357 19.7573
-0.692975 -0.0664186 19.6705
-0.666124 -0.291229 19.4016
-1.12693 -0.562277 21.2073
-1.95683 -0.216125 20.3862
-0.258598 -0.311443 21.4505
-0.850998 -0.449125 21.3815
0.364685 0.0445788 21.6241
-0.084913 -0.168273 21.6402
0.896187 0.297429 21.2324
0.923084 0.00611948 21.4107
0.975658 0.191036 20.2172
1.13894 -0.0185376 21.3922
1.45262 0.920212 18.8859
0.953317 -0.0998769 21.1194
1.16775 0.42992 16.5502
-1.37069 0.168752 19.7159
-0.613135 0.280712 19.7496
-0.796129 0.136542 19.2766
-1.48284 -0.0971621 21.0568
-1.35047 0.577905 20.3374
-0.63839 -0.280511 21.61
-1.15849 0.192154 21.2683
0.396439 -0.211069 21.6833
-0.208278 -0.0876809 21.6499
1.00028 -0.309495 21.2278
0.516716 -0.409355 21.3635
0.781477 -0.331091 20.8471
0.61921 -0.409784 20.9361
1.74787 -0.348778 19.689
0.50834 -0.316884 21.0032
1.16453 -0.250183 19.6582
-0.712072 0.486155 20.0812
-0.483548 0.477263 19.763
-0.936314 0.532625 20.775
-0.982628 0.963582 20.2792
-0.541794 0.207906 21.4632
-1.08684 0.8062 21.2575
0.120463 -0.223631 21.4278
-0.186154 0.0155041 21.7182
0.412403 -0.365836 21.2352
0.31244 -0.482221 21.3604
0.488327 -0.425213 20.5581
0.446812 -0.638738 21.229
0.389397 -0.516046 21.177
-1.10497 -1.43344 18.9995
-0.550219 -0.444785 19.1966
0.00763444 -0.652301 19.0799
-1.01575 -1.25643 22.0074
0.0339114 -4.92549 20.5614
-0.112498 -0.0588388 21.009
0.0107264 -0.705047 20.0941
0.225051 0.510951 20.4145
0.00426978 -0.0601826 18.5022
0.265737 1.16704 19.0271
0.0387866 0.423383 15.1528
0.204639 1.1472 18.7153
0.695576 1.84272 15.2488
0.00022354 0.903722 13.7849
1.12615 0.879454 13.9163
0.0719394 0.947438 14.2257
-0.686877 -0.137279 18.8975
0.00462754 -0.528542 18.6377
1.38358 1.47596 12.6623
2.31999 0.908645 8.67773
-0.0647573 -0.230894 -1.93674
1.47287 0.336656 12.7948
0.0537921 0.960629 8.17044
-0.603211 0.606413 19.177
0.0101415 0.257376 18.2752
2.18952 -0.319824 13.1545
0.83474 -1.15376 19.8406
0.0187092 -1.52963 -0.213945
0.786512 -0.932481 19.0344
0.00858035 -1.76395 5.12801
-0.684723 1.13466 19.7106
0.00792004 0.806939 19.4277
-1.1088 1.51087 20.5961
0.0190677 2.10018 19.9997
-0.717398 0.780961 21.9663
-0.00492161 2.72222 21.3146
0.120789 -0.405898 21.7114
-0.005527 0.172687 22.2078
0.355445 -0.790998 21.2556
0.0117558 -0.745046 21.5949
0.126122 -0.484887 21.3171
0.0194 -0.854368 21.2908
-0.00285891 -0.574661 21.185
1.12898 -1.37994 19.0379
0.560202 -0.436815 19.2075
0.563695 -0.38272 19.627
1.01254 -1.21086 21.9497
1.78194 -1.50938 20.3778
0.111119 -0.0560464 21.0111
0.385582 -0.456479 21.485
-0.220324 0.52726 20.4178
-0.0385203 -0.0665355 21.5445
-0.234917 1.19162 18.8632
-0.624124 0.707819 21.2903
-0.133181 1.19666 18.7
-0.68758 1.86401 15.2604
-0.858589 0.912949 21.4519
-1.14439 0.900031 13.6281
-0.672024 0.695316 21.5672
0.694299 -0.133618 18.9236
0.671467 -0.287461 19.4129
-1.40283 1.56068 12.0549
-2.22557 0.907759 8.19897
-1.44792 0.979023 18.7307
-1.46578 0.381202 12.4599
-1.19615 0.473103 16.2362
0.611089 0.594167 19.187
0.796722 0.134763 19.2867
-2.27007 -0.285342 12.1988
-0.824871 -1.21002 19.5041
-1.79385 -0.34094 19.4333
-0.802057 -0.979469 18.8673
-1.1659 -0.282987 19.5101
0.69497 1.11835 19.7238
0.48872 0.468852 19.771
1.11364 1.4977 20.6
0.978718 0.940204 20.2857
0.709862 0.808568 21.9866
1.09111 0.8139 21.2591
-0.110116 -0.419486 21.7233
0.191044 0.0190332 21.74
-0.308139 -0.804194 21.28
-0.305954 -0.509867 21.3795
-0.09394 -0.527147 21.3989
-0.449672 -0.675045 21.2367
-0.365311 -0.524635 21.1686
0.922508 -0.488218 19.9553
0.602518 -0.2255 19.7659
0.883556 -0.569078 21.0846
1.48329 -0.690801 20.4345
0.191688 -0.213842 21.3973
0.528184 -0.41746 21.3444
-0.248263 0.121276 21.4813
0.0110446 -0.111816 21.4579
-0.667337 0.431032 21.1932
-0.641846 0.292078 21.3964
-0.851963 0.439154 20.071
-0.84748 0.337454 21.1304
-0.848679 0.122201 21.3313
1.19971 -0.389532 19.761
0.6939 -0.0680581 19.68
1.12983 -0.568135 21.2108
1.97786 -0.219638 20.3854
0.262011 -0.313557 21.456
0.853397 -0.454631 21.3877
-0.36146 0.0415683 21.621
0.0814014 -0.168695 21.6449
-0.907817 0.297118 21.2333
-0.924454 0.000793618 21.4209
-1.00838 0.206893 20.1501
-1.1667 -0.0385894 21.4085
-0.993939 -0.114259 20.9859
1.3708 0.16763 19.7187
0.610208 0.277207 19.7565
1.49079 -0.0983248 21.0674
1.34625 0.574121 20.3384
0.639417 -0.282834 21.6128
1.17219 0.193924 21.2719
-0.398802 -0.214487 21.6803
0.210154 -0.0903412 21.667
-1.01243 -0.323063 21.2136
-0.521232 -0.425146 21.3979
-0.836811 -0.320838 20.7868
-0.648895 -0.464608 20.9689
-0.521603 -0.354449 21.0085
0.710628 0.473931 20.0908
0.934565 0.530125 20.7769
0.551254 0.214226 21.4738
-0.128291 -0.235865 21.4744
-0.413762 -0.371152 21.2521
-0.432104 -0.44208 20.6747
-1.09146 -0.464712 19.8327
-1.43027 -1.50042 18.4993
-1.15411 -0.914098 19.5502
-1.64063 -0.730686 19.0962
-0.629247 -0.363742 19.5279
-2.45572 -1.71541 20.3334
-1.0007 -0.572735 21.1595
-0.737277 -0.729415 19.1893
-0.977089 -0.918963 21.4585
-1.2707 -0.990676 21.8057
-0.34758 -0.519171 21.5664
-0.22239 -0.265825 21.4161
0.28852 0.0549443 16.4515
-0.101169 -0.215593 21.488
-0.0212702 -0.404056 21.0123
0.0565272 -0.137311 21.4352
0.303881 0.0893432 21.5483
0.23942 0.517248 14.771
0.315589 0.296757 21.5836
0.542516 0.348022 20.2032
0.880601 0.800218 20.4724
0.781343 0.372435 21.228
0.179418 1.31888 14.0674
0.717228 0.802595 21.068
1.25777 0.831812 19.5295
0.981062 0.944413 19.9015
0.900907 0.318464 20.1809
0.928063 1.25952 14.0216
0.76345 0.582109 21.5096
1.42525 1.02261 20.5767
0.90757 0.555752 19.2708
-1.35242 -0.122318 19.7113
-2.33856 -0.327384 17.0767
-1.95952 0.412541 18.9472
-0.825021 -0.10797 19.2913
-4.09266 -0.553107 20.2805
-1.35778 -0.393579 21.1825
-2.22545 -0.283914 21.4438
-0.865911 -0.985603 20.9636
-0.427638 -0.339642 21.5384
-0.87006 -0.756432 21.0019
-0.0924584 -0.0661619 19.701
0.43179 -0.0455857 21.7076
0.807161 0.0203481 19.2401
1.43257 0.48285 17.2823
1.05838 -0.0224572 21.2221
0.493954 1.20025 4.22635
1.50039 -0.256682 19.103
1.77717 0.384703 18.2384
0.951713 -0.0871995 20.5463
1.96454 0.821901 11.344
1.67348 -0.276873 19.9112
1.27968 0.0207806 18.0353
-1.01198 0.471411 19.8727
-1.36016 1.57926 18.9049
-0.767164 0.800932 19.8993
-0.655947 0.426387 19.4791
-1.90003 1.25819 20.2128
-1.32891 0.374861 20.8555
-2.29666 1.83699 20.5324
-1.10698 0.940308 20.7282
-1.94499 0.49238 21.4385
-0.714238 0.0378233 21.589
-1.71021 0.557866 21.7755
-0.673436 0.415503 21.6806
-0.298472 -0.0759902 22.0038
0.232134 -0.259984 21.573
0.751418 -0.516298 19.3274
0.134794 -0.296284 21.5908
0.640104 -0.67505 21.502
0.649405 -0.432639 21.2068
0.856876 -1.03183 19.8699
0.396132 -0.52606 21.0557
0.851386 -0.79579 21.1011
0.576337 -0.60255 20.9101
0.828635 -1.07122 19.2449
0.189422 -0.371023 21.2059
0.640905 -0.615639 20.1312
1.43804 -1.44677 18.5439
0.0189005 -2.1215 18.3011
0.0172459 -2.1642 16.3853
0.00710597 -0.608222 18.8746
0.0266435 -7.95671 21.419
0.758867 -0.739497 19.5561
0.0222587 -1.95996 22.2063
-0.00310304 -0.160168 11.0588
-0.283624 0.0585222 16.5315
0.00286303 -0.303036 18.8292
0.00957134 0.0571839 10.5399
-0.23568 0.525186 14.6269
0.0165127 0.300421 16.8353
0.0709613 0.227154 5.95919
-0.141136 1.35957 13.8991
0.0105073 0.0411497 14.0511
-0.0216751 -1.69443 -3.65885
-0.0334737 0.917331 5.97043
-0.863082 1.35095 14.0982
-0.0143347 1.10421 13.0047
-0.114944 -2.19657 -1.96271
0.0628658 0.954034 11.1981
2.34011 -0.32963 17.1233
0.0135807 1.80982 15.078
0.00875377 -0.203569 18.3132
-0.505787 1.20912 3.98605
-0.018072 -0.577575 0.106099
-0.00661883 -1.0136 -4.29165
-2.03038 0.891443 10.6951
0.0469678 -2.65886 1.97056
0.0394019 -0.537067 4.41681
1.36687 1.55679 18.9229
0.0119153 1.56451 19.4755
0.00814924 0.821952 18.8032
0.0155168 4.06228 19.755
2.29817 1.82215 20.5381
0.00974089 2.2394 20.3439
-0.00841785 6.28413 20.0666
1.67598 0.571122 21.4905
-0.0154298 1.37702 22.3364
-0.00092662 -0.10365 16.1516
-0.797027 -0.549978 18.9642
0.00345712 -0.479222 21.7853
0.0192863 -0.858525 11.7269
-0.850823 -1.0345 19.378
0.0174948 -0.935862 21.3544
0.0127289 -1.70616 15.3252
-0.864621 -1.11729 18.9963
-0.00513876 -1.26175 21.0376
0.0541449 -0.993596 18.6569
1.08 -0.454125 19.8432
1.14532 -0.884435 19.5675
1.63906 -0.725442 19.1065
0.63619 -0.359927 19.5374
2.43145 -1.6767 20.3257
1.00267 -0.569639 21.1558
0.980249 -0.899875 21.4342
1.27405 -0.990927 21.81
0.358843 -0.520113 21.557
0.224166 -0.267529 21.4241
0.108698 -0.221202 21.4895
0.0242827 -0.40437 21.0201
-0.0534687 -0.134673 21.4255
-0.305025 0.0891924 21.5526
-0.319466 0.310907 21.5864
-0.552079 0.338109 20.2767
-0.898039 0.823521 20.4153
-0.793828 0.381305 21.2285
-0.72638 0.849873 21.0615
-1.28571 0.854055 19.4313
-0.974465 1.01276 19.7219
-0.943108 0.331374 20.1147
-0.747973 0.627104 21.6244
-1.41754 1.05157 20.5448
-0.934086 0.58421 18.9017
1.35386 -0.12348 19.7153
1.95468 0.408016 18.9578
0.820406 -0.105629 19.3093
4.1335 -0.557524 20.2859
1.36463 -0.397058 21.1929
2.22839 -0.2943 21.4294
0.863872 -0.99085 20.9407
0.428919 -0.342582 21.5446
0.873049 -0.758103 20.9612
0.0912853 -0.0736071 19.7536
-0.43164 -0.0508085 21.7153
-0.802394 0.00258112 19.2797
-1.43994 0.445609 17.3794
-1.07404 -0.0343171 21.2146
-1.5196 -0.261833 18.9743
-1.83204 0.421143 17.7763
-0.998073 -0.070279 20.5014
-1.6671 -0.309354 19.8498
-1.29678 0.0613742 17.5904
1.00641 0.467445 19.8795
0.766824 0.782462 19.9117
0.655635 0.419491 19.4888
1.89064 1.23962 20.214
1.33205 0.376396 20.8576
1.10696 0.933655 20.73
1.96005 0.499655 21.4392
0.72508 0.0372559 21.5975
0.681288 0.431159 21.6977
0.307124 -0.0729646 22.0256
-0.240473 -0.272697 21.5922
-0.135644 -0.310523 21.6079
-0.647644 -0.706566 21.5152
-0.665286 -0.461494 21.1855
-0.389382 -0.564576 21.0742
-0.870801 -0.82807 21.178
-0.593288 -0.606707 21.0151
-0.198976 -0.413043 21.2123
-0.660463 -0.665491 19.9536
-1.37952 -0.866595 19.3501
-1.1047 -0.958211 21.6255
-0.0423808 -0.286419 21.4971
0.448811 0.314673 21.257
1.00138 0.902595 20.3157
1.08986 0.771778 21.0131
-1.97054 -0.249638 18.8829
-1.81492 -0.881215 21.7826
-0.279542 -0.630639 20.1362
0.746499 0.354333 18.9584
1.57943 0.389696 18.2343
1.62028 0.410974 20.3274
-1.29248 0.899178 19.5042
-1.88666 0.811157 20.8227
-1.12131 0.162509 21.9796
0.327574 -0.414316 21.8385
0.730793 -0.778166 21.487
0.584412 -0.77541 20.7342
0.0203284 -2.3312 17.492
0.00651843 -0.93933 13.4296
0.000509344 -0.0360955 10.2066
0.0325549 0.267146 8.5528
0.0191578 -0.657829 4.51009
-0.061369 -0.431723 5.49488
0.0161508 -0.585369 15.0251
-0.078231 -1.22233 -3.33776
0.0390612 -2.69136 -1.92717
0.0158045 2.45539 18.1532
0.0082422 3.27978 19.9006
-0.00745148 1.38834 17.6356
0.0074777 -0.622962 12.1839
0.0358172 -1.11308 13.9117
0.059673 -1.22762 15.6734
1.37015 -0.851903 19.3726
1.11 -0.950712 21.5983
0.0504912 -0.287712 21.4818
-0.456737 0.319962 21.2487
-1.03323 0.939289 20.2486
-1.08242 0.811992 21.0004
1.96636 -0.247695 18.8993
1.81504 -0.886356 21.7867
0.280604 -0.633685 20.1471
-0.749378 0.331467 19.056
-1.61576 0.397207 18.1067
-1.65126 0.44164 20.0055
1.28751 0.88747 19.5173
1.88434 0.806857 20.8225
1.14087 0.172236 21.9951
-0.333236 -0.429299 21.8629
-0.739349 -0.812141 21.4914
-0.586914 -0.794753 20.7461
-0.459679 -0.13734 0.611663
-0.0432409 -0.50613 1.49998
-0.00925814 -0.00847075 0.284411
0.153149 0.0778368 0.353889
-0.000900738 0.000121266 0.000634074
-0.0731023 0.137173 0.668525
-4.78105 0.514842 5.14067
-0.324001 1.60817 1.9019
-0.3603 -0.0923808 1.66631
0.0189673 0.0666506 0.0598999
-0.011743 0.114396 -0.0707
0.0300586 -0.00992707 0.231805
0.0431868 -0.506151 1.4999
0.475348 -0.141519 0.63037
0.00930773 -0.0083105 0.282695
0.00612359 0.00234789 0.0118067
-0.161364 0.0718402 0.362103
0.0637261 0.145967 0.736589
0.2916 1.45013 1.71395
4.77928 0.516826 5.13649
0.364054 -0.0932059 1.68489
0.0196323 0.107682 -0.0679564
-0.0197804 0.0602771 0.0615124
-0.0284642 -0.0108719 0.231707
-0.096081 -0.130662 1.65705
0.0600677 -0.039773 1.37494
0 0 0
0 0 0
-0.00683132 0.0189298 0.29188
0.0532165 -0.0106683 1.24232
-0.0258448 0.0188219 0.202514
0.00604024 -0.000284933 0.0832167
-0.209198 -0.172082 0.481083
-0.000530253 -0.00104954 0.041916
0 0 0
-0.0720414 0.0536437 0.115171
0 0 0
0 0 0
0 0 0
0.0403038 0.000246684 0.184597
0.0972486 -0.130871 1.67268
0 0 0
-0.0639603 -0.0443438 1.49514
0 0 0
0.00674047 0.0179142 0.277958
-0.00157335 0.00618903 0.108593
-0.0531132 -0.0105406 1.24165
0.0254887 0.0183774 0.199785
0.208572 -0.171163 0.481332
0.0726733 0.0539206 0.115888
0.000537824 -0.00116675 0.0421194
0 0 0
0 0 0
-0.0400926 0.000407034 0.184661
0 0 0
0 0 0
0 0 0
-1.30012 0.297036 0.797134
0 0 0
0 0 0
0.000830952 -0.00130153 0.0356538
0.00142133 -0.00123904 0.0248088
0.00330264 0.00223554 0.0234372
-0.00613675 0.00628424 -0.00141487
0.000248835 0.000396439 0.00555669
0.0109339 0.0581754 -0.058646
-7.37344e-18 -2.3423e-17 -1.49769e-16
0 0 0
-0.00583185 2.39789 1.28325
2.60028e-06 0.00238519 0.0162965
-0.00246911 -0.0212879 0.099316
-0.00607989 0.000706469 0.00954038
0.00139171 0.0244559 -0.00219918
1.32001e-05 0.000174711 -0.00226078
0.00124133 0.000426664 0.0114092
-0.00141517 0.000376529 -0.000653759
1.30389 0.294832 0.795997
0 0 0
-0.00141493 -0.00123644 0.02476
-0.000912415 -0.00141348 0.0388348
0.00617731 0.00578721 -0.00128449
-0.00352617 0.00229814 0.0251724
0.000142049 0.000227988 0.00891464
0 0 0
0.00601468 0.000699938 0.00944206
0.00280084 -0.0249818 0.116083
0.00146614 0.000384432 -0.000676962
-0.00177259 0.000568154 0.0164507
0 0 0
0.00291939 0.000319453 0.035096
0 0 0
-0.000568456 0.00343432 0.036962
6.39049e-05 -7.20148e-05 0.00676498
-2.61915e-07 -5.61439e-08 -3.84633e-05
0.00148969 0.0328262 0.127054
0 0 0
-5.67032e-08 -3.75384e-08 -7.37022e-06
1.03995e-05 0.000175608 0.00396221
0 0 0
0.0590658 0.0414698 0.6939
0 0 0
-1.6369e-06 0.0563484 0.281356
2.15479e-06 1.37724e-05 0.0169507
1.13086e-05 -0.00896751 0.0302679
-0.00288062 0.000324945 0.0350668
0 0 0
-0.00053541 -0.00401087 0.0271841
0.000530544 0.00313395 0.0342006
-0.0014978 0.03281 0.126943
0 0 0
-0.0591781 0.0417324 0.699421
0 0 0
-6.96077e-19 4.98936e-18 -4.18213e-17
-0.0192533 -0.0171065 0.109999
0.00284629 -0.00353322 0.0411161
-6.76334e-05 -0.000703551 0.00314895
-1.89626e-05 2.86744e-05 0.00104706
-4.02388e-05 0.000551404 0.00317756
0 0 0
0.000830079 0.0111635 0.037758
0 0 0
0 0 0