# vtk DataFile Version 2.0
tri_press
ASCII
DATASET UNSTRUCTURED_GRID
POINTS 3682 float
-0.695 0.315 -2.20892
-0.719919 0.385 2.235
-0.723703 0.845 -2.135
-0.665147 1.025 2.275
0.695 0.315 -2.20892
0.719919 0.385 2.235
0.723703 0.845 -2.135
0.665147 1.025 2.275
-0.759675 0.281964 -0.727614
-0.797816 0.275463 0.753693
-0.786091 0.986906 -0.665
-0.765648 1.04598 0.805
0.758922 0.282718 -0.727614
0.798049 0.27523 0.753693
0.784967 0.985783 -0.665
0.765644 1.04598 0.805
-1.45277 -0.0644201 -3.41997
-1.45819 -0.0288539 -2.23946
-1.50724 -0.053685 -0.757858
-1.53372 -0.0663965 0.726016
-1.4919 0.00242064 2.20781
-1.47794 0.049574 3.38926
-1.48328 0.0823546 4.56898
-1.45186 0.250063 -3.38708
-1.45725 0.304794 -2.2078
-1.51757 0.298538 -0.728398
-1.53556 0.287841 0.752019
-1.46308 0.350608 2.23163
-1.45932 0.395983 3.41293
-1.47458 0.4287 4.59302
-1.46506 0.843822 -3.31812
-1.47962 0.89678 -2.13837
-1.53466 0.994047 -0.666675
-1.51547 1.03044 0.804216
-1.42699 1.03084 2.27612
-1.44086 1.07354 3.45789
-1.46858 1.11454 4.6398
-1.48663 1.83198 -3.22317
-1.49801 1.89884 -2.04511
-1.51978 2.00851 -0.577089
-1.52288 2.08571 0.888499
-1.50433 2.11452 2.35664
-1.4958 2.13508 3.53495
-1.4989 2.16401 4.71562
-0.71235 -0.059216 -3.4207
-0.705341 -0.0206949 -2.24052
-0.745453 -0.0615921 -0.757715
-0.781005 -0.0748149 0.727446
-0.75413 0.0198117 2.21031
-0.74439 0.0619337 3.39096
-0.749007 0.0885936 4.56996
-0.711767 0.249241 -3.3873
-0.732272 0.40889 3.41433
-0.744176 0.43458 4.59376
-0.721914 0.822545 -3.31672
-0.71767 1.07481 3.45766
-0.741659 1.11627 4.63975
-0.735709 1.81741 -3.22179
-0.741769 1.88506 -2.04359
-0.761797 2.00575 -0.576171
-0.7745 2.09022 0.888389
-0.768686 2.11625 2.35586
-0.763222 2.1349 3.53416
-0.765259 2.16378 4.71505
0.735952 -0.0592471 -3.4207
0.733873 -0.0205987 -2.24052
0.769594 -0.0611598 -0.757716
0.778468 -0.0748856 0.727446
0.726318 0.0197619 2.21031
0.717723 0.0618953 3.39096
0.716654 0.0885483 4.56996
0.726036 0.249183 -3.3873
0.707456 0.408862 3.41433
0.710508 0.434536 4.59376
0.734058 0.822427 -3.31672
0.688234 1.07478 3.45766
0.700845 1.11622 4.63975
0.757838 1.81715 -3.22179
0.762665 1.88473 -2.04359
0.757542 2.00538 -0.576171
0.730617 2.09002 0.888389
0.702205 2.11615 2.35586
0.696983 2.13483 3.53416
0.698424 2.1637 4.71505
1.4712 -0.0645327 -3.41997
1.47288 -0.0288176 -2.23946
1.52056 -0.0532976 -0.757858
1.53878 -0.0664255 0.726016
1.48477 0.0023042 2.20781
1.46181 0.0494818 3.38926
1.45699 0.0822571 4.56898
1.46003 0.249873 -3.38708
1.45345 0.304612 -2.2078
1.51574 0.298845 -0.728398
1.54267 0.28777 0.752019
1.4717 0.350493 2.23163
1.44769 0.395899 3.41293
1.44777 0.428605 4.59302
1.47026 0.843476 -3.31811
1.47391 0.896231 -2.13837
1.52934 0.993189 -0.666675
1.51848 1.03031 0.804215
1.43211 1.03074 2.27612
1.4235 1.07346 3.45789
1.43424 1.11444 4.6398
1.50345 1.83147 -3.22317
1.51101 1.89821 -2.04511
1.51264 2.00787 -0.57709
1.48639 2.08534 0.888499
1.44941 2.11432 2.35664
1.43705 2.13492 3.53495
1.43641 2.16386 4.71562
-0.754031 0.58 -2.21664
0 0.308367 -2.21555
-0.733547 0.292273 -1.46827
-0.715518 0.705 2.27798
0 0.384476 2.23552
-0.772545 0.316554 1.49435
0 0.916594 -2.20659
-0.781364 0.94242 -1.4
0 1.05731 2.30732
-0.751487 1.07158 1.54
0.754266 0.58 -2.21687
0.733556 0.292264 -1.46827
0.715521 0.705 2.27799
0.772417 0.316682 1.49435
0.781368 0.942424 -1.4
0.751444 1.07154 1.54
-0.759904 0.297555 0.0130399
-0.827345 0.634435 -0.696307
-0.000376782 0.260133 -0.727614
-0.854063 0.660723 0.779347
0.000116673 0.268729 0.753693
-0.772656 1.01323 0.0700001
-0.000561796 1.32046 -0.665
-2.47613e-06 1.49823 0.805
0.759828 0.297632 0.0130399
0.827322 0.63425 -0.696307
0.854055 0.660604 0.779347
0.772651 1.01323 0.0700001
-0.833836 0.607218 -1.43413
0.833846 0.607125 -1.43413
-0.000188391 0.266322 -1.46827
-0.000280898 1.02711 -1.4
0 0.58 -2.36823
-0.838357 0.647579 0.04152
0.838343 0.647427 0.04152
-0.000130055 0.261502 0.0130399
-0.000282136 1.50366 0.0700001
-0.865304 0.682862 1.51717
0.865403 0.682802 1.51717
5.83365e-05 0.306357 1.49435
-1.23806e-06 1.24482 1.54
0 0.705 2.326
-0.723513 0.4475 -2.21178
-0.3475 0.30961 -2.21431
-0.716433 0.301477 -1.83859
-0.755597 0.545 2.29437
-0.35996 0.384394 2.23561
-0.758245 0.338764 1.86467
-0.735135 0.7125 -2.17209
-0.361852 0.889756 -2.17976
-0.769004 0.910181 -1.7675
-0.699131 0.865 2.28529
-0.332574 1.04799 2.29799
-0.720072 1.06005 1.9075
0.3475 0.309604 -2.21432
0.723567 0.4475 -2.21183
0.716362 0.301548 -1.83859
0.35996 0.384496 2.2355
0.755595 0.545 2.29437
0.758673 0.338336 1.86467
0.361852 0.889141 -2.17914
0.735129 0.7125 -2.17208
0.769103 0.910279 -1.7675
0.332574 1.04799 2.29799
0.699124 0.865 2.28528
0.720082 1.06006 1.9075
-0.771863 0.261866 -1.09794
-0.757601 0.291948 -0.357287
-0.810449 0.44973 -0.71196
-0.385404 0.260293 -0.727614
-0.77627 0.304919 1.12402
-0.764222 0.301148 0.383367
-0.859476 0.451325 0.76652
-0.400436 0.268924 0.753693
-0.782023 0.962959 -1.0325
-0.821114 0.817869 -0.680653
-0.779203 0.999898 -0.2975
-0.455497 1.27802 -0.665
-0.761485 1.0617 1.1725
-0.82823 0.86254 0.792174
-0.768965 1.02942 0.4375
-0.485019 1.47649 0.805
0.772044 0.261686 -1.09794
0.38484 0.260291 -0.727614
0.758664 0.290885 -0.357287
0.810457 0.449817 -0.71196
0.776201 0.304989 1.12402
0.400611 0.268924 0.753693
0.764221 0.301148 0.383367
0.859479 0.451204 0.76652
0.782035 0.962971 -1.0325
0.45472 1.27816 -0.665
0.821127 0.817508 -0.680653
0.778821 0.999516 -0.2975
0.761492 1.06171 1.1725
0.485017 1.4765 0.805
0.828219 0.862475 0.792174
0.768959 1.02941 0.4375
-0.821284 0.593609 -1.82539
-0.377016 0.58 -2.33964
-9.41956e-05 0.284556 -1.84191
0 0.444184 -2.28918
-0.829847 0.449746 -1.4512
-0.366867 0.266322 -1.46827
-0.803597 0.693931 1.89758
-0.357759 0.705 2.3072
2.91683e-05 0.333388 1.86494
0 0.544738 2.36724
-0.86754 0.499708 1.50576
-0.386243 0.307488 1.49435
-0.000140449 0.986201 -1.8033
0 0.748297 -2.33965
-0.831187 0.774819 -1.41707
-0.390822 1.02617 -1.4
-6.19032e-07 1.12857 1.92366
0 0.881157 2.28259
-0.823765 0.877221 1.52859
-0.375744 1.23773 1.54
0.821282 0.593563 -1.8255
0.377133 0.58 -2.33968
0.829836 0.449695 -1.4512
0.366684 0.266322 -1.46827
0.803602 0.693901 1.89758
0.35776 0.705 2.3072
0.867539 0.499742 1.50576
0.386238 0.304301 1.49435
0.831253 0.774775 -1.41707
0.390544 1.02611 -1.4
0.823868 0.87717 1.52859
0.375721 1.23779 1.54
-0.821737 0.461264 0.02728
-0.388507 0.262549 0.0130399
-0.820596 0.620827 -1.06522
-0.832807 0.641007 -0.327393
-0.000282587 0.253056 -1.09794
-0.000253418 0.26073 -0.357287
-0.837677 0.654151 0.410433
-0.882455 0.671792 1.14826
-6.69081e-06 0.268895 0.383367
8.75048e-05 0.288271 1.12402
-0.831459 0.843381 0.05576
-0.498299 1.48211 0.0700001
-0.000421347 1.07619 -1.0325
-0.000421966 1.48561 -0.2975
-0.000142306 1.50683 0.4375
-1.8571e-06 1.42994 1.1725
0.821742 0.461201 0.02728
0.388358 0.262548 0.0130399
0.820582 0.620688 -1.06522
0.832798 0.640839 -0.327393
0.837667 0.654016 0.410433
0.882448 0.671703 1.14826
0.831458 0.843307 0.05576
0.498041 1.48216 0.0700001
-0.811775 0.448623 -1.83199
-0.823219 0.453973 -1.08158
-0.817138 0.792745 -1.04886
-0.816453 0.743659 -1.79644
0.811728 0.448597 -1.83205
0.816421 0.743637 -1.7965
0.817149 0.792396 -1.04886
0.823241 0.454089 -1.08158
-0.357184 0.284505 -1.84025
0.357092 0.284505 -1.84025
0.372978 0.253056 -1.09794
-0.373447 0.253056 -1.09794
-0.376337 0.988104 -1.7854
-0.392074 1.05401 -1.0325
0.391373 1.05401 -1.0325
0.376198 0.988115 -1.7854
-0.362258 0.445842 -2.26322
-0.369434 0.730398 -2.24769
0.369492 0.730398 -2.24768
0.362317 0.445842 -2.26324
-0.816764 0.455162 -0.34234
-0.821511 0.465842 0.3969
-0.830737 0.853407 0.423967
-0.826389 0.830676 -0.312447
0.816767 0.455175 -0.34234
0.826405 0.830464 -0.312447
0.83074 0.853342 0.423967
0.821495 0.46576 0.3969
-0.386932 0.261467 -0.357287
0.386576 0.261465 -0.357287
0.393019 0.268668 0.383367
-0.393006 0.268668 0.383367
-0.516346 1.45896 -0.2975
-0.494618 1.48522 0.4375
0.494465 1.4852 0.4375
0.515858 1.45911 -0.2975
-0.886381 0.4839 1.13614
-0.816193 0.522354 1.88113
-0.780105 0.87111 1.90254
-0.843736 0.865287 1.16038
0.886398 0.483829 1.13614
0.843776 0.86523 1.16038
0.780124 0.871085 1.90254
0.816193 0.522371 1.88113
-0.392547 0.28888 1.12402
0.39266 0.287543 1.12402
0.373099 0.335705 1.8648
-0.373101 0.331058 1.8648
-0.379285 1.41639 1.1725
-0.354159 1.12581 1.91558
0.354147 1.12582 1.91558
0.379271 1.41642 1.1725
-0.358859 0.544869 2.35734
0.35886 0.544869 2.35732
0.345167 0.873079 2.24709
-0.345166 0.873079 2.24708
-0.707389 0.38125 -2.20848
-0.52125 0.311231 -2.21269
-0.707244 0.306711 -2.02376
-0.735536 0.465 2.26246
-0.539939 0.38438 2.23562
-0.740784 0.36018 2.04984
-0.730998 0.77875 -2.15512
-0.542777 0.865635 -2.15563
-0.75821 0.889447 -1.95125
-0.686133 0.945 2.28414
-0.49886 1.04119 2.29119
-0.696586 1.0465 2.09125
0.52125 0.31123 -2.21269
0.707572 0.38125 -2.20866
0.707273 0.306681 -2.02376
0.539939 0.384495 2.2355
0.735536 0.465 2.26246
0.740952 0.360012 2.04984
0.542777 0.865611 -2.15561
0.730969 0.77875 -2.15509
0.758065 0.889301 -1.95125
0.49886 1.04114 2.29114
0.686125 0.945 2.28413
0.696582 1.04649 2.09125
-0.763376 0.274308 -0.912777
-0.762102 0.283493 -0.54245
-0.794287 0.361235 -0.719787
-0.57728 0.261648 -0.727614
-0.777936 0.299298 0.938857
-0.768815 0.300509 0.56853
-0.852306 0.351564 0.760107
-0.600469 0.269508 0.753693
-0.78017 0.971046 -0.84875
-0.81278 0.906977 -0.672827
-0.780803 0.991559 -0.48125
-0.662435 1.21575 -0.665
-0.762991 1.05327 0.98875
-0.819083 0.965333 0.798587
-0.767523 1.03792 0.62125
-0.6442 1.29897 0.805
0.763378 0.274306 -0.912777
0.576835 0.261597 -0.727614
0.762046 0.283549 -0.54245
0.794265 0.361479 -0.719787
0.777698 0.299536 0.938857
0.600615 0.269508 0.753693
0.768924 0.3004 0.56853
0.852224 0.351487 0.760107
0.780175 0.971051 -0.84875
0.662153 1.21659 -0.665
0.812827 0.906535 -0.672827
0.780734 0.99149 -0.48125
0.76299 1.05326 0.98875
0.644194 1.29896 0.805
0.819087 0.965305 0.798587
0.767534 1.03793 0.62125
-0.754089 0.51375 -2.22953
[...]
POINT_DATA 3682
SCALARS point_scalars float 1
LOOKUP_TABLE default
-83.5335
-37.8771
-72.6428
-36.8292
-83.5326
-38.4969
-72.3316
-37.0408
-37.4079
-39.0875
-54.5267
-48.4662
-37.5251
-39.2013
-53.9947
-48.5691
55.7853
-83.4695
-36.9626
-37.1236
-38.9979
-37.0699
-32.6424
20.2679
-83.4695
-36.2037
-36.2268
-37.3546
-36.4893
-32.6424
71.7952
-102.946
-46.9046
-44.1191
-38.6955
-36.5193
-36.5193
-76.8261
-70.7989
-96.8464
-59.493
-38.0088
-36.9557
-36.4212
134.489
-162.717
-39.0428
-41.7152
-37.0126
-31.8467
-31.281
132.42
-31.281
-31.6237
154.293
-33.8853
-33.0771
-9.6159
-66.2012
-91.1317
-60.6772
-36.4631
-35.0926
-34.5131
134.254
-138.613
-38.4751
-41.6586
-36.7927
-32.3609
-31.7491
132.532
-31.8156
-32.0458
155.195
-33.5832
-33.34
-11.5092
-65.9447
-90.4987
-60.5364
-36.3941
-35.1245
-34.4826
55.788
-83.5873
-37.0152
-37.3687
-38.9494
-37.6407
-33.1568
11.7559
-83.5873
-36.1918
-35.122
-37.5784
-37.223
-33.1568
71.79
-103.438
-46.7065
-44.2315
-38.9375
-36.7913
-36.7913
-76.5377
-70.7254
-97.2671
-59.517
-38.1403
-37.1909
-36.3553
-47.6719
-208.707
-47.9191
-35.3367
-26.8348
-40.2322
-89.7227
-40.3455
-34.4448
-48.7607
-47.6032
-48.0846
-35.752
-40.934
-40.3702
-48.7165
-33.9538
-38.1239
-41.5031
-36.2538
-37.8502
-51.2233
17.5579
-65.0023
-33.9984
-38.0968
-36.3457
-51.3176
-49.8844
-49.9029
-55.9031
-5.36951
205.288
-38.985
-39.0604
-36.1918
-82.799
-49.369
-49.5887
-36.5766
-43.2766
-26.7804
-60.2484
-186.65
-69.7773
-36.6918
-31.2275
-41.254
-53.4544
-69.603
-53.6357
-35.932
-34.0222
-41.7034
-186.626
-60.1947
-69.7633
-31.4689
-37.1161
-41.2564
-70.8021
-53.4064
-53.7151
-34.0904
-36.2572
-41.7777
-42.9002
-34.5747
-36.2289
-40.818
-40.0706
-31.1499
-32.8816
-37.9429
-37.0591
-42.7105
-54.1983
1.67294
-50.7319
-40.102
-48.5542
-61.0219
-42.9409
-40.8241
-34.6586
-36.2189
-40.4473
-38.2812
-31.2298
-32.9927
-37.053
1.93152
-42.6075
-54.3387
-50.7746
-61.0161
-40.1682
-48.6659
-70.8887
187.9
-80.8736
102.028
-50.7673
-53.7024
-41.2774
-30.5162
-33.7767
-21.731
-47.1489
-36.7301
-36.0854
167.285
-48.2387
-12.9715
-39.1674
-31.7522
-48.1443
-44.0728
-70.933
188.005
-50.7825
-53.712
-41.4557
-30.993
-47.4156
-37.6073
-48.3464
-13.0118
-48.2639
-44.0755
-35.8935
-35.3102
-39.5373
-38.5965
-48.345
-37.0723
-36.0154
-48.4139
-35.3625
-37.5443
-43.9219
-73.0746
23.6503
-115.103
-69.4554
-54.2873
-35.9585
-35.347
-39.3723
-38.6277
-36.1067
-48.5655
-44.0236
-73.106
-73.0399
-42.3652
-38.8156
-62.8278
-73.1711
-62.9054
-38.7753
-42.3188
-78.0187
-78.0172
-47.2
-47.1968
-40.9492
9.59422
9.53922
-40.9981
106.114
142.034
141.806
105.992
-35.541
-32.4001
-40.8382
-43.6863
-35.5794
-43.7238
-40.9544
-32.488
-36.4991
-36.5559
-34.8585
-34.7704
-108.187
-63.1778
-63.1995
-108.216
-45.2387
-40.8203
-41.2633
-48.7884
-45.4404
-48.8878
-41.4224
-40.998
-37.6363
-37.8253
-35.6751
-34.4116
-55.2921
-39.2414
-39.2642
-55.2743
-28.2837
-29.0785
-32.1895
-31.9132
-46.7593
-138.219
-96.2791
-36.7116
-34.5487
-38.5354
-55.1325
-58.1948
-74.074
-37.4917
-34.2238
-39.1113
-138.217
-45.6775
-96.3044
-35.1322
-37.3584
-38.2176
-57.0164
-55.3713
-74.0342
-34.3724
-37.7685
-39.241
-41.4893
-35.0828
-36.2023
-39.9331
-39.1395
-26.1883
-32.4181
-40.3254
-45.5751
-47.7002
-54.7827
-71.4731
-49.6081
-44.6784
-47.7887
-53.8904
-41.5133
-39.9397
-35.1087
-36.1747
-39.101
-40.8658
-26.2501
-32.6889
-45.2804
-70.1034
-47.413
-54.857
-49.656
-53.9419
-44.7879
-47.9282
-47.6136
-49.9392
-90.3508
155.873
-195.558
-195.537
-109.151
92.2978
-56.11
-41.3194
-50.865
-50.9544
-36.1271
-35.2956
-38.9046
-31.663
-28.0996
-28.2692
-31.1281
-22.7194
-42.4385
-40.0374
-45.4925
-37.85
-84.3875
-82.3765
-58.045
93.0079
-46.7586
-36.0103
-45.7685
-23.1509
-34.3041
-34.3276
-36.6372
-31.1237
-44.5598
-50.0856
-47.5498
-46.3081
-51.366
-49.119
-90.4013
156.448
-55.9469
-41.307
-50.8654
-50.9682
-36.5198
-35.7646
-39.157
-32.0298
-43.1016
-40.6528
-45.8176
-38.7087
-46.9538
-36.022
-45.7961
-23.182
-44.6032
-50.1164
-47.6419
-46.3024
-34.5145
-32.6515
-34.6368
-34.0982
-37.0533
-39.849
-37.585
-38.2931
-41.35
-41.3531
-44.8138
-38.6176
-34.0358
-38.1459
-34.487
-37.8111
-37.7919
-37.8078
-36.1576
-37.788
-53.3946
-50.3904
-47.8876
-59.8936
14.8006
14.8494
38.043
-68.179
-64.5082
-64.5093
-66.6974
-61.2115
-34.5163
-32.7165
-34.6922
-34.144
-37.0409
-39.7952
-37.5684
-38.2872
-34.1361
-38.2953
-34.5814
-37.9052
-53.5016
-50.48
-48.0072
-59.9061
-57.7092
-50.6897
-49.3321
-42.6745
-57.7361
-50.701
-49.3928
-42.6903
-65.843
-55.3624
-55.366
-51.33
-20.3807
-7.34495
-7.36359
8.95904
200.315
168.92
196.912
200.359
-37.235
-39.3778
-37.7806
-41.0295
-37.3051
-39.4355
-37.867
-41.1158
-36.066
-36.2461
-35.0718
-36.0845
-80.8813
-95.7806
-75.4412
-80.8959
-45.1779
-48.1344
-49.0972
-53.438
-45.342
-48.3899
-49.262
-53.6124
-35.7937
-36.5002
-36.9922
-37.0873
-40.9194
-43.418
-43.4146
-46.9861
-28.4849
-27.3312
-30.0537
-28.9051
-79.4577
104.831
-107.687
98.2567
-73.2011
-74.004
-37.7579
-31.0809
-33.5926
-28.8448
-41.0117
-36.9573
-91.5664
120.631
-64.5286
82.3241
-57.682
-45.6052
-39.2426
-32.2954
-36.4846
-31.6428
-41.4813
-39.7953
-107.687
98.3451
-79.3323
104.83
-73.2654
-73.9976
-33.437
-29.6777
-37.9658
-31.6533
-41.1638
-37.4801
-64.6186
83.5882
-91.7098
120.627
-57.7409
-45.647
-36.5345
-31.8986
-39.4686
-32.5385
-41.6137
-39.8308
-44.8525
-45.5636
-34.5247
-35.9006
-36.9977
-35.3528
-44.1328
-37.9645
-43.772
-38.1406
-31.1101
-34.0113
-28.5672
-36.4757
-35.2899
-38.052
-39.2584
-9.06824
-39.678
-43.7185
-48.2754
-74.1293
19.8042
-43.8553
-49.3775
-56.5923
-40.4192
-44.5987
-43.9432
-54.4677
-61.9701
-61.5258
-44.8384
-45.567
-44.1379
-37.9698
-34.609
-35.9643
-36.9895
-35.3596
-44.0195
-38.5732
-35.4723
-37.6656
-31.1946
-34.114
-28.6661
-36.5844
-39.2177
-9.1755
19.739
-43.4208
-39.5912
-43.6966
-48.3432
-74.2368
-49.4528
-56.5668
-62.0134
-61.5474
-40.533
-44.6861
-44.0942
-54.4823
-71.436
-68.1906
182.2
170.019
-80.2042
-80.2027
105.162
105.087
-57.3436
-43.08
-63.0845
-49.0464
-41.0871
-41.3641
-30.6912
-31.9872
-34.544
-33.8374
-23.8132
-24.4889
-53.3672
-46.4302
-37.2413
-36.0936
-37.0161
-37.034
157.227
157.369
-42.4631
-55.8472
-25.6735
-1.83953
-39.163
-39.1699
-32.2072
-32.0424
-44.5504
-52.1626
-48.3067
-41.4348
-71.5281
-68.2173
170.001
182.272
-57.34
-43.0729
-63.0868
-49.0573
-41.5343
-41.2643
-31.1887
-32.2787
-53.6177
-46.6368
-37.647
-37.758
-55.8396
-42.3881
-1.9015
-25.7317
-52.2771
-44.7
-41.438
-48.3039
-36.345
-34.6597
-35.5313
-34.5765
-41.0841
-39.2314
-36.8699
-40.7662
-48.0804
-48.0776
-36.9264
-36.9405
-33.8569
-38.2137
-46.6073
-47.7047
-35.244
-35.2
-37.5685
-37.6085
-42.0549
-43.5954
-86.0449
-68.0166
19.9862
19.9862
-114.85
-114.873
-68.169
-68.178
-54.578
-54.5826
-36.3968
-34.7394
-35.5571
-34.6295
-39.1806
-40.8307
-36.904
-40.7995
-38.3124
-33.9456
-46.7895
-47.7931
-43.6696
-42.1661
-68.0409
-86.1106
-74.0771
-56.0101
-57.6485
-83.4812
-37.3398
-37.2303
-42.8996
-43.4697
-42.4672
-39.9554
-42.6769
-38.1999
-88.1371
-93.5363
-57.7406
-52.5692
-74.0112
-83.4481
-57.6612
-56.0074
-88.2806
-52.607
-57.7698
-93.7332
-42.3107
-38.1475
-42.6335
-39.9423
-37.3367
-43.4618
-42.914
-37.2393
-105.104
-108.824
-65.2373
-59.1314
-105.11
-59.1298
-65.2392
-108.818
-43.7561
-44.646
-50.8691
-45.3373
-43.7561
-45.3179
-50.8655
-44.6446
-68.5314
-32.0147
-21.8436
-59.1693
-22.9887
34.2756
5.49899
-13.4588
-24.3099
-13.5266
5.52705
34.3238
-68.5855
-59.1597
-21.8666
-32.0823
117.296
150.564
174.366
106.872
82.1665
89.8382
185.025
133.675
82.4589
133.47
185.036
89.6192
117.113
106.842
174.384
151.421
-34.2885
-35.1694
-37.6577
-36.6385
-25.8966
-31.0191
-35.9894
-33.3643
-43.6353
-45.1554
-39.6692
-37.6265
-48.7936
-40.6044
-41.4068
-47.5924
-34.2923
-36.6423
-37.7129
-35.2006
-48.7966
-47.6788
-41.4735
-40.589
-43.7836
-37.7424
-39.7674
-45.2901
-26.0021
-33.437
-36.071
-31.1141
-37.1468
-38.461
-36.0824
-34.7992
-37.1445
-34.8349
-36.1042
-38.472
-33.1463
-36.0828
-34.9386
-34.2249
-32.9551
-34.1549
-34.9137
-36.0256
-83.2116
-65.6368
-94.8028
-56.9601
-53.4844
-65.7162
-74.0189
-57.7185
-53.5336
-57.7445
-74.0301
-65.7195
-83.536
-57.0334
-94.827
-65.6737
-36.1942
-50.53
-53.775
-37.2714
-38.3164
-38.7145
-45.8956
-47.4724
-39.4697
-44.4149
-44.6687
-39.1616
-47.7056
-40.1664
-54.5455
-49.778
-36.1758
-37.3802
-53.9897
-50.8342
-47.7514
-49.8639
-54.7094
-40.1975
-39.6694
-39.4003
-44.8267
-44.5293
-38.4568
-47.6995
-46.0674
-38.9603
-37.6393
-37.8934
-37.0777
-37.7859
-37.0871
-37.8491
-37.2298
-37.8278
-35.4269
-31.7905
-36.2603
-39.8457
-36.9468
-37.4972
-35.7382
-31.8149
-55.7416
-51.6768
-47.2605
-61.3939
-36.9967
-36.5909
-41.1057
-42.4871
-37.0905
-42.5027
-41.1044
-36.609
-55.7836
-61.4016
-47.2609
-51.6283
-31.6977
-24.7913
-28.3678
-32.0839
-32.8335
-32.4368
-28.8197
-25.2957
-32.5784
-31.5149
-30.5213
-32.2882
-32.3277
-31.9814
-30.2438
-31.3547
-63.6773
-144.258
-136.122
-38.0132
-36.12
-37.7676
-63.2607
-45.5793
-98.0398
-36.9332
-35.2121
-37.7762
-144.224
-63.6411
-136.083
-37.1571
-38.7755
-37.7766
-45.7328
-62.7889
-98.1853
-35.3997
-37.1861
-37.9422
-38.2848
-35.7258
-36.5435
-39.2181
-44.0481
-26.1898
-36.4956
-42.8886
-50.7961
-51.057
-56.204
-68.9506
-48.9873
-47.2189
-48.0737
-50.5764
-38.3251
-39.1779
-35.6407
-36.4838
-44.0603
-42.9295
-26.2941
-36.7081
-50.6354
-68.4577
-50.5749
-56.03
-48.936
-50.6768
-47.3422
-48.1684
-50.3594
-55.718
-103.611
95.6234
-202.557
-202.537
-136.764
22.9771
-50.8637
-45.459
-49.007
-49.3868
-35.7287
-35.3898
-37.8842
-32.2317
-27.1707
-27.2682
-29.1847
-24.4333
-40.2244
-40.641
-43.7777
-38.5184
-89.5746
-89.5165
-75.4777
4.0509
-42.8814
-38.0847
-44.3307
-29.9982
-34.3906
-34.3989
-35.4475
-33.2796
-46.5116
-48.785
-47.4984
-49.2897
-52.9399
-55.8897
-103.784
95.2716
-50.9252
-45.4232
-49.0052
-49.4006
-36.116
-35.5253
-38.2092
-32.584
-41.0597
-41.0882
-44.224
-39.6444
-42.7565
-38.1015
-44.348
-30.0469
-46.5323
-48.8087
-47.5641
-49.269
-34.6957
-33.2955
-34.1607
-33.8833
-37.5827
-38.8977
-37.9674
-38.2285
-41.4863
-41.4883
-43.4465
-39.6948
-35.1881
-37.5956
-34.6512
-35.7295
-37.8084
-37.8141
-36.6807
-38.1924
-52.5515
-50.8964
-49.7248
-54.8186
17.4036
17.4409
32.5446
-9.48956
-64.8942
-64.8925
-66.2173
-63.4763
-34.7368
-33.3388
-34.213
-33.9262
-37.5648
-38.8592
-37.9423
-38.2087
-35.2841
-37.7209
-34.7543
-35.8088
-52.6413
-50.9864
-49.8341
-54.8658
-54.2584
-50.3718
-49.6394
-45.9048
-54.2817
-50.3869
-49.6654
-45.9043
-60.0188
-55.7619
-55.764
-53.3068
-12.7407
-5.93576
-5.94454
1.55067
203.746
188.703
202.066
203.78
-37.9602
-39.311
-38.4734
-40.0327
-38.0331
-39.3787
-38.5557
-40.113
-36.2445
-36.0878
-35.6212
-36.2546
-82.2967
-88.1555
-79.1461
-82.3054
-48.9714
-48.6778
-49.9018
-51.3509
-49.1272
-48.9256
-50.0771
-51.526
-36.2579
-36.5118
-36.7591
-36.8367
-41.6981
-43.3198
-43.3183
-44.9471
-27.881
-26.8348
-29.0516
-28.0962
-59.4582
-50.0974
-89.6946
74.3717
-165.593
-185.227
-137.676
62.7946
-81.5482
-61.0805
-72.2727
-71.7258
-36.7315
-37.7104
-37.1866
-32.3097
-33.1042
-29.5035
-33.0706
-29.728
-38.8992
-41.8905
-41.99
-38.4335
-50.6033
-61.5385
-127.908
87.2404
-84.4615
-61.1368
-78.845
20.1046
-65.4118
-47.485
-56.5393
-47.9182
-36.4882
-35.4207
-38.1492
-33.0337
-34.0108
-34.1559
-35.1038
-33.3079
-40.4508
-43.0949
-41.7927
-40.5377
-165.596
-185.189
-137.672
62.7924
-57.7769
-49.1762
-89.7457
74.2991
-81.5902
-61.0222
-72.325
-71.7192
-33.2811
-29.7067
-32.2553
-30.6411
-37.3214
-38.5381
-37.524
-32.8179
-38.6164
-42.1549
-42.0988
-38.4955
-84.811
-62.5323
-78.386
25.1615
-51.2061
-61.0332
-127.986
87.6204
-65.3862
-47.4911
-56.6059
-47.9763
-34.1156
-34.1964
-35.1736
-33.4172
-36.7696
-35.8862
-38.4331
-33.2923
-40.6329
-43.1495
-41.9055
-40.5875
-47.1819
-34.7221
-46.0261
-43.4555
-35.398
-34.234
-34.2335
-35.3716
-36.1038
-36.5697
-36.8124
-35.6147
-40.3734
-41.1447
-42.7441
-39.007
-40.4637
-39.6562
-43.5053
-38.8647
-29.4566
-31.818
-30.845
-32.8304
-32.4132
-33.3709
-26.9405
-35.3625
-38.4158
-37.8819
-36.1697
-38.6079
-40.8241
-35.3258
-39.7678
-23.8918
-44.7322
-41.0223
-41.2897
-43.5529
-54.4925
-54.2841
-51.2744
-62.0039
-18.4839
10.5384
17.1057
-17.7944
-49.6996
-50.4472
-50.1253
-53.4159
-41.8476
-38.9421
-40.5205
-42.1766
-48.0145
-49.2036
-46.9257
-51.0039
-58.3039
-63.5784
-62.2566
-62.5496
-47.2885
-34.6988
-46.0182
-43.4743
-40.3766
-41.1492
-42.7515
-39.0128
-35.2963
-34.4104
-34.3149
-35.4907
-36.0868
-36.5607
-36.8082
-35.6106
-40.5895
-40.1189
-43.7898
-39.338
-39.8005
-37.9235
-36.5371
-38.4054
-29.5365
-31.8925
-30.926
-32.9226
-32.5905
-33.4763
-27.0431
-35.441
-40.7621
-35.332
-39.7377
-23.9077
-17.2638
10.6684
17.2383
-17.5441
-44.5729
-40.9449
-41.1826
-43.4851
-54.7445
-54.3619
-51.3776
-62.1592
-49.713
-50.5529
-50.1852
-53.4548
-58.3199
-63.5838
-62.2387
-62.5703
-41.9242
-39.0474
-40.6255
-42.2604
-48.1412
-49.3068
-47.0633
-51.0761
-84.9115
-61.2648
-70.5233
-69.8718
172.4
193.927
195.882
167.318
-91.6928
-72.4922
-80.7414
-80.74
118.245
139.124
101.656
101.597
-50.8239
-50.9734
-53.4971
-47.2327
-52.5329
-54.6318
-57.5146
-51.0122
-40.1624
-42.3297
-41.2686
-41.2969
-31.2074
-29.5287
-30.5032
-31.3067
-32.5393
-34.9048
-34.0075
-33.6899
-20.7308
-23.5357
-21.081
-21.511
-46.4179
-47.7723
-50.6984
-49.034
-36.8268
-36.6055
-37.0634
-36.6088
-45.9501
-29.4348
-36.2367
-36.2429
132.562
188.707
163.291
162.988
-47.0203
-49.0474
-42.8576
-53.4304
-17.6403
-9.69404
-19.2262
-7.08418
-37.8847
-40.2916
-39.1727
-39.175
-30.4702
-30.9737
-31.8688
-31.7821
-47.8227
-48.4488
-46.4174
-50.0459
-44.7966
-43.6365
-45.961
-42.4134
-84.9983
-61.2856
-70.5923
-69.8836
171.776
193.872
167.918
195.946
-50.8348
-50.987
-53.5028
-47.2298
-52.5461
-54.638
-57.5196
-51.0237
-40.3775
-42.4908
-41.4756
-41.4435
-31.6403
-30.0222
-30.9329
-31.6798
-46.7043
-48.0257
-50.962
-49.2719
-37.8064
-37.2279
-37.4603
-37.9357
-47.081
-49.1513
-53.4797
-42.8908
-17.6669
-9.72728
-7.12021
-19.2809
-47.9311
-48.5787
-50.151
-46.5586
-44.8613
-43.6631
-42.4223
-45.947
-35.0753
-36.5764
-36.3091
-35.3703
-34.4637
-35.9142
-35.2684
-34.993
-37.4683
-41.647
-39.9605
-39.2828
-38.3609
-39.077
-37.6379
-39.6242
-46.5216
-49.8531
-48.296
-48.2947
-37.7365
-36.5712
-37.0295
-37.0362
-34.8654
-36.8942
-34.7679
-37.2002
-43.9565
-51.6232
-47.1985
-48.9437
-35.7106
-35.161
-35.3359
-35.3144
-37.6542
-37.3718
-37.5336
-37.5703
-46.6018
-42.3745
-43.0295
-43.6112
-67.0444
-78.2953
-78.6891
-70.5303
32.8025
16.0904
22.5503
22.5574
-107.375
-107.097
-115.195
-115.21
-67.673
-72.0361
-69.1452
-69.1509
-58.3368
-50.0863
-54.3571
-54.3581
-35.1358
-36.6444
-36.3684
-35.415
-34.5084
-35.9425
-35.2982
-35.0353
-37.3492
-41.722
-39.2243
-39.8672
-38.3704
-39.1226
-37.6706
-39.656
-34.9553
-36.9846
-37.2959
-34.8575
-44.0777
-51.7874
-47.3608
-49.078
-46.7164
-42.4677
-43.7043
-43.1361
-67.1085
-78.32
-70.5806
-78.7063
-87.6042
-74.3244
-71.7632
-61.1367
-43.5069
-39.2246
-41.3733
-41.9945
-38.9014
-38.6127
-41.2404
-38.7055
-73.0219
-59.9489
-65.6734
-57.0343
-87.7533
-74.4179
-71.8795
-61.1373
-73.0681
-60.0181
-65.7113
-57.0377
-38.8619
-38.5557
-41.2312
-38.6684
-43.4757
-39.2006
-41.3636
-41.8697
-89.2942
-76.1848
-79.2663
-69.5496
-89.293
-76.1852
-79.2642
-69.5482
-46.6325
-45.8087
-47.9356
-47.7023
-46.6348
-45.8066
-47.9278
-47.6994
-50.7629
-43.4606
-38.5843
-33.2079
2.68545
15.3731
3.997
15.2361
2.57539
15.2672
3.93315
15.1974
-50.8078
-43.4811
-38.6306
-33.2716
109.565
117.201
138.521
104.91
135.315
114.08
163.375
150.268
112.809
135.349
150.096
163.335
117.154
109.538
103.573
138.538
-34.9016
-35.3002
-35.9766
-36.2019
-31.5858
-30.3897
-33.7234
-33.0848
-40.511
-42.2898
-39.4506
-41.3746
-43.529
-45.6413
-42.1002
-44.0444
-34.954
-35.3223
-36.0223
-36.2377
-43.5382
-45.6911
-42.1351
-44.1035
-40.6263
-42.4233
-39.5561
-41.4888
-31.6726
-30.4815
-33.8068
-33.1728
-36.4187
-37.1323
-35.9281
-36.7308
-37.1491
-36.5368
-36.756
-35.9685
-34.9406
-34.9255
-35.0623
-34.7217
-34.8322
-34.8137
-34.6589
-34.995
-99.1105
-85.5445
-97.3037
-111.551
-58.6298
-61.9654
-65.2071
-66.3902
-61.9813
-58.6251
-66.403
-65.227
-85.157
-99.1943
-111.585
-97.4141
-44.4868
-43.06
-48.733
-45.7537
-39.1663
-40.6839
-40.9301
-42.579
-40.3635
-41.3045
-41.3659
-42.8159
-49.1351
-45.3514
-52.2514
-48.8497
-44.7079
-43.2178
-48.9593
-45.9397
-49.2242
-45.4188
-52.3801
-48.9367
-40.547
-41.45
-41.5283
-42.963
-39.3487
-40.8495
-41.1135
-42.7703
-37.6049
-37.8747
-37.5862
-37.6232
-38.1571
-37.7791
-37.9929
-37.6555
-34.5253
-36.5232
-34.9689
-36.9678
-33.7142
-34.7869
-34.2166
-35.2711
-56.4953
-59.0712
-51.4734
-54.7303
-37.8643
-39.4062
-39.2057
-40.4877
-37.8973
-39.437
-39.2198
-40.5045
-56.5044
-59.0966
-51.4892
-54.803
-30.2582
-28.253
-29.4917
-26.2898
-29.0069
-30.9676
-27.0703
-30.1907
-31.719
-32.1808
-32.599
-32.4169
-31.9135
-31.3993
-32.1506
-32.3846
-106.153
102.564
-144.867
26.5695
-76.7267
-102.594
-37.7443
-33.0282
-37.2176
-32.8055
-38.9567
-37.8007
-114.292
60.2575
-83.8975
16.8386
-83.8074
-69.8636
-38.6636
-33.5718
-35.8016
-33.3832
-39.4263
-37.795
-144.903
26.5793
-106.257
102.477
-76.6882
-102.605
-34.7823
-34.6444
-38.0695
-33.8363
-38.9796
-36.3281
-83.9287
19.2343
-114.316
61.0725
-83.8926
-69.8899
-35.9026
-33.5689
-38.9135
-33.8136
-39.5953
-37.8908
-39.2197
-43.1653
-34.2002
-36.3838
-36.7263
-34.9323
-41.0337
-38.0169
-39.3852
-37.646
-25.7632
-31.5018
-20.5575
-37.9554
-34.0516
-40.5208
-44.2586
-45.4446
-45.1107
-49.0378
-51.7854
-64.4157
-40.0975
-87.0136
-49.0857
-51.0939
-43.7836
-46.8817
-46.4661
-50.2766
-53.5065
-54.1147
-39.2279
-43.167
-41.0402
-38.0161
-34.2153
-36.3685
-36.7379
-34.9085
-39.4639
-37.4374
-34.158
-40.1092
-25.858
-31.5964
-20.6838
-37.968
-44.0453
-44.9431
-38.6466
-87.3237
-44.9225
-48.9428
-51.8741
-64.8658
-49.1579
-51.1715
-53.5701
-54.1791
-43.9088
-47.006
-46.6205
-50.3743
-93.1946
104.278
-118.072
82.4632
-86.301
-93.0124
164.357
131.786
-137.72
44.6291
-137.713
44.6203
-109.287
-109.283
84.2856
84.0956
-55.6724
-57.626
-43.9627
-43.1825
-53.5115
-47.191
-54.8217
-47.9885
-37.6774
-32.7023
-37.9638
-32.5254
-38.8705
-39.0536
-31.8048
-31.7785
-30.2599
-26.0778
-30.0703
-26.5155
-31.2892
-31.2637
-23.1972
-23.4784
-48.2103
-39.473
-47.1353
-38.439
-49.3505
-48.0792
-38.0433
-37.6657
-83.8065
18.1463
-83.7414
17.4102
-57.8069
-57.7982
80.5545
80.7188
-50.6646
-37.5015
-39.176
-23.9672
-41.7041
-50.0784
-27.8677
-17.5315
-35.2033
-33.3314
-35.2118
-33.3923
-36.6408
-36.651
-31.3424
-31.254
-44.3075
-43.4752
-49.6861
-52.1771
-46.0987
-48.8295
-49.0711
-44.2836
-93.1722
104.189
-117.994
82.0995
-86.3456
-93.109
131.458
165.435
-55.645
-57.6102
-43.9511
-43.1885
-53.5357
-47.1822
-54.8274
-48.0004
-38.0088
-33.0389
-38.2701
-32.8288
-39.3001
-39.1272
-32.1623
-32.1175
-48.5005
-40.7877
-47.5005
-38.8686
-49.636
-48.3723
-37.6775
-39.8254
-50.7191
-37.5565
-39.1709
-24.0262
-50.1049
-41.7068
-17.5942
-27.9135
-44.3914
-43.4986
-49.748
-52.178
-48.9129
-46.2056
-44.2873
-49.055
-34.624
-34.74
-32.8208
-33.4267
-35.1731
-34.0895
-34.4041
-33.3189
-37.3276
-36.6988
-39.0337
-40.3575
-37.5133
-37.7683
-37.418
-39.411
-43.3063
-39.532
-43.3118
-39.5358
-44.7613
-44.76
-38.5487
-38.5551
-30.3732
-35.0697
-38.2003
-38.7894
-32.5118
-36.3283
-37.7082
-38.0823
-36.6708
-38.0633
-36.7189
-38.043
-36.1486
-36.1233
-37.8163
-37.7917
-51.0556
-58.718
-48.3552
-53.6963
-46.1611
-48.3737
-62.5952
-59.5827
28.7958
-8.57888
29.0011
-8.39091
37.2374
37.2722
-64.955
-64.9482
-65.5595
-63.0157
-65.5568
-63.0534
-66.4569
-66.4593
-61.3137
-61.3196
-34.6318
-34.7732
-32.8898
-33.4902
-35.2242
-34.153
-34.4417
-33.3733
-37.3207
-36.6922
-38.9765
-40.3172
-37.7335
-37.5218
-37.4184
-39.399
-30.4709
-35.1664
-38.3075
-38.8109
-36.4288
-32.606
-37.8104
-38.1518
-51.1557
-58.7861
-48.4738
-53.7411
-48.4839
-46.2888
-59.5768
-62.6181
-57.7627
-57.96
-54.0085
-46.7864
-44.9798
-54.3354
-42.9443
-42.6524
-57.7828
-57.9877
-54.0195
-46.7921
-54.376
-44.9342
-42.6488
-42.9689
-65.8096
-65.8084
-59.3506
-52.7994
-59.3503
-52.8032
-51.2139
-51.2117
-20.6434
-20.6525
-14.2253
-0.759145
-0.783207
-14.2463
7.97486
7.96664
190.604
189.826
170.661
170.676
190
189.901
189.866
190.613