# vtk DataFile Version 2.0
tet_velo
ASCII
DATASET UNSTRUCTURED_GRID
POINTS 29498 float
-0.795 0.115 -1.82213
-0.755 0.235 1.81283
-0.825 0.605 -1.64923
-0.695 0.865 1.79454
0.787142 0.115 -1.825
0.755 0.235 1.81185
0.823631 0.605 -1.645
0.695 0.865 1.79372
-0.784972 0.151695 -0.610477
-0.796422 0.166912 0.601177
-0.764238 0.674238 -0.501307
-0.780797 0.820797 0.646617
0.777266 0.154162 -0.612717
0.794507 0.166207 0.599567
0.765306 0.676219 -0.49876
0.781045 0.821501 0.64748
-1.5687 -0.209745 -2.81689
-1.57263 -0.161688 -1.87346
-1.56527 -0.132242 -0.659951
-1.55912 -0.122536 0.566664
-1.52822 -0.0771326 1.78128
-1.52132 -0.0259681 2.73015
-1.52695 0.0272031 3.66904
-1.57202 0.0544198 -2.75227
-1.57515 0.106334 -1.81606
-1.56233 0.15224 -0.615091
-1.55696 0.18356 0.591823
-1.50715 0.233993 1.79406
-1.50827 0.285032 2.74202
-1.52091 0.336745 3.68302
-1.58253 0.565818 -2.60581
-1.58981 0.613689 -1.66799
-1.55073 0.693739 -0.510647
-1.54091 0.811686 0.642483
-1.47088 0.865581 1.80122
-1.48927 0.912464 2.75198
-1.51468 0.959984 3.70346
-1.57876 1.3734 -2.43343
-1.57854 1.43421 -1.50455
-1.56125 1.54633 -0.36869
-1.54667 1.68261 0.753647
-1.53312 1.78167 1.89057
-1.52944 1.83551 2.82168
-1.5351 1.882 3.76626
-0.782468 -0.203773 -2.82116
-0.79234 -0.153132 -1.87984
-0.786062 -0.131035 -0.659472
-0.788785 -0.133886 0.574448
-0.770597 -0.0807254 1.79516
-0.767365 -0.0283006 2.73945
-0.772219 0.0252638 3.67429
-0.782023 0.0581248 -2.75327
-0.761715 0.284153 2.74963
-0.770102 0.335577 3.68691
-0.791215 0.562329 -2.59716
-0.746485 0.91282 2.75038
-0.767598 0.960309 3.70288
-0.795805 1.36675 -2.42505
-0.799948 1.42573 -1.49539
-0.787052 1.54051 -0.363132
-0.781011 1.68606 0.753094
-0.778887 1.78712 1.88596
-0.777621 1.83933 2.81701
-0.782001 1.88457 3.76278
0.795814 -0.203173 -2.82227
0.781819 -0.152442 -1.88198
0.778852 -0.129348 -0.661372
0.7841 -0.133947 0.572992
0.757305 -0.0807877 1.79408
0.743157 -0.0282457 2.7385
0.737485 0.0254178 3.67344
0.805031 0.0585329 -2.75396
0.731836 0.284192 2.74871
0.730365 0.335713 3.68608
0.813994 0.562727 -2.59562
0.711056 0.912903 2.74961
0.720266 0.960482 3.70217
0.780244 1.36761 -2.42382
0.770256 1.4267 -1.49396
0.765033 1.54162 -0.362059
0.752906 1.68688 0.753511
0.728426 1.78761 1.88583
0.72197 1.83972 2.81665
0.721623 1.88493 3.76234
1.58134 -0.208277 -2.81851
1.56785 -0.159865 -1.87614
1.5602 -0.129539 -0.662612
1.55975 -0.121941 0.564308
1.52613 -0.0771154 1.77922
1.50587 -0.0257768 2.72832
1.4981 0.0275737 3.6674
1.58988 0.0556604 -2.75311
1.57322 0.10783 -1.81808
1.55781 0.155385 -0.617188
1.56045 0.183991 0.589728
1.51363 0.233881 1.79205
1.49222 0.285167 2.74025
1.48871 0.337081 3.68143
1.59916 0.567032 -2.60378
1.59027 0.615105 -1.66491
1.55069 0.696728 -0.508845
1.54471 0.812957 0.642512
1.47419 0.865741 1.79985
1.46708 0.912713 2.75052
1.47493 0.960393 3.70209
1.56673 1.37517 -2.43135
1.55557 1.43617 -1.50221
1.54244 1.54846 -0.366958
1.52321 1.68423 0.754279
1.4922 1.7827 1.89029
1.48056 1.83633 2.82099
1.47909 1.88277 3.76539
-0.852924 0.36 -1.7786
-0.00392902 0.112686 -1.82588
-0.79282 0.130513 -1.2163
-0.772082 0.55 1.85077
0 0.203114 1.84423
-0.78761 0.189056 1.207
-0.0006845 0.711801 -1.75392
-0.866533 0.711533 -1.07527
0 0.945928 1.87506
-0.761123 0.866123 1.22058
0.848945 0.36 -1.77856
0.783543 0.133242 -1.21886
0.771693 0.55 1.84948
0.786063 0.189294 1.20571
0.866835 0.712975 -1.07188
0.761301 0.866529 1.2206
-0.785402 0.164598 -0.00465
-0.770427 0.412967 -0.555892
-0.00385266 0.151022 -0.611597
-0.829441 0.493854 0.623897
-0.000957251 0.162916 0.600372
-0.77657 0.75157 0.072655
0.000534076 1.03258 -0.500033
0.000124007 1.21711 0.647048
0.777786 0.168285 -0.00657505
0.76636 0.41519 -0.555738
0.83003 0.493854 0.623523
0.777558 0.753242 0.07436
-0.872008 0.386483 -1.14579
-0.784872 0.45341 0.0340025
-0.894043 0.521927 1.21379
-0.00389084 0.114198 -1.21758
-0.00240496 0.147444 -0.00561252
-0.000478626 0.178841 1.20636
-0.00230676 0.36 -1.91842
0 0.55 2.03628
-7.52121e-05 0.870617 -1.07357
0.000329041 1.24007 0.0735075
6.20036e-05 1.09023 1.22059
0.87234 0.387595 -1.14537
0.78683 0.454522 0.0338925
0.894056 0.521927 1.21315
-1.18507 0.110667 -1.8191
-0.79367 -0.0190662 -1.85098
-0.788512 0.0865624 -2.2877
-1.13107 0.234496 1.80345
-0.762799 0.0771373 1.80399
-0.758358 0.259576 2.28123
-1.20741 0.609344 -1.65861
-0.808108 0.583665 -2.1232
-0.812474 1.01536 -1.57231
-1.08294 0.86529 1.79788
-0.720742 0.88891 2.27246
-0.736944 1.32606 1.84025
0.78448 -0.0187211 -1.85349
0.796086 0.0867665 -2.28948
1.18018 0.111415 -1.82154
0.756153 0.0771061 1.80296
0.743418 0.259596 2.28028
1.13431 0.23444 1.80195
0.818812 0.583863 -2.12031
0.796944 1.01585 -1.56948
1.20695 0.610053 -1.65496
0.703028 0.888952 2.27167
0.711713 1.32631 1.83978
1.0846 0.86537 1.79678
-1.17365 0.151968 -0.612784
-0.785517 0.0103301 -0.634975
-1.17669 0.175236 0.5965
-0.792603 0.0165127 0.587813
-1.15748 0.683989 -0.505977
-0.775645 1.10738 -0.432219
-1.16085 0.816241 0.64455
-0.780904 1.25343 0.699856
0.778059 0.012407 -0.637045
1.16754 0.154773 -0.614952
0.789304 0.0161298 0.586279
1.17748 0.175099 0.594647
0.76517 1.10892 -0.43041
1.158 0.686473 -0.503802
0.766976 1.25419 0.700496
1.16288 0.817229 0.644996
-1.57066 -0.185717 -2.34517
-1.57036 -0.0776624 -2.78458
-1.17559 -0.206759 -2.81903
-1.56895 -0.146965 -1.26671
-1.57389 -0.0276774 -1.84476
-1.18248 -0.15741 -1.87665
-1.5622 -0.127389 -0.0466434
-1.5638 0.00999929 -0.637521
-1.17567 -0.131638 -0.659712
-1.54367 -0.0998344 1.17397
-1.55804 0.030512 0.579244
-1.17395 -0.128211 0.570556
-1.52477 -0.0515504 2.25572
-1.51769 0.07843 1.78767
-1.14941 -0.078929 1.78822
-1.52413 0.000617466 3.19959
-1.51479 0.129532 2.73608
-1.14434 -0.0271344 2.7348
-1.52393 0.181974 3.67603
-1.14958 0.0262335 3.67166
-1.57358 0.0803767 -2.28416
-1.57728 0.310119 -2.67904
-1.17702 0.0562723 -2.75277
-1.56874 0.129287 -1.21558
-1.58248 0.360011 -1.74202
-1.55965 0.1679 -0.011634
-1.55653 0.42299 -0.562869
-1.53206 0.208776 1.19294
-1.54894 0.497623 0.617153
-1.50771 0.259512 2.26804
-1.48901 0.549787 1.79764
-1.51459 0.310888 3.21252
-1.49877 0.598748 2.747
-1.13499 0.284592 2.74583
-1.5178 0.648364 3.69324
-1.14551 0.336161 3.68496
-1.58617 0.589753 -2.1369
-1.58065 0.96961 -2.51962
-1.18687 0.564074 -2.60149
-1.57027 0.653714 -1.08932
-1.58417 1.02395 -1.58627
-1.54582 0.752712 0.0659179
-1.55599 1.12004 -0.439668
-1.50589 0.838633 1.22185
-1.54379 1.24715 0.698065
-1.48007 0.889023 2.2766
-1.502 1.32362 1.8459
-1.50198 0.936224 3.22772
-1.50935 1.37399 2.78683
-1.11788 0.912642 2.75118
-1.52489 1.42099 3.73486
-1.14114 0.960146 3.70317
-1.57865 1.4038 -1.96899
-1.18728 1.37008 -2.42924
-1.56989 1.49027 -0.936619
-1.18924 1.42997 -1.49997
-1.55396 1.61447 0.192478
-1.17415 1.54342 -0.365911
-1.53989 1.73214 1.32211
-1.16384 1.68434 0.753371
-1.53128 1.80859 2.35613
-1.156 1.78439 1.88826
-1.53227 1.85875 3.29397
-1.15353 1.83742 2.81934
-1.15855 1.88328 3.76452
-0.787404 -0.178453 -2.3505
-0.782246 -0.0728241 -2.78722
0.00667271 -0.203473 -2.82172
-0.789201 -0.142084 -1.26965
-0.00526049 -0.152787 -1.88091
-0.787423 -0.13246 -0.042512
-0.00360473 -0.130191 -0.660422
-0.779691 -0.107306 1.1848
-0.00234213 -0.133917 0.57372
-0.768981 -0.054513 2.2673
-0.00664591 -0.0807565 1.79462
-0.769792 -0.0015184 3.20687
-0.76454 0.127926 2.74454
-0.0121043 -0.0282732 2.73898
-0.77116 0.18042 3.6806
-0.017367 0.0253408 3.67387
-0.786619 0.310227 -2.67522
0.0115039 0.0583289 -2.75361
-0.765909 0.309865 3.21827
-0.7541 0.598486 2.75
-0.0149399 0.284172 2.74917
-0.76885 0.647943 3.69489
-0.0198684 0.335645 3.68649
-0.79351 0.964539 -2.51111
0.0113893 0.562528 -2.59639
-0.757041 0.936564 3.22663
-0.762053 1.37608 2.78369
-0.0177142 0.912862 2.75
-0.774799 1.42244 3.73283
-0.0236657 0.960395 3.70252
-0.797876 1.39624 -1.96022
-0.00778047 1.36718 -2.42444
-0.7935 1.48312 -0.929263
-0.0148459 1.42621 -1.49468
-0.784031 1.61329 0.194981
-0.0110096 1.54107 -0.362596
-0.779949 1.73659 1.31953
-0.014052 1.68647 0.753303
-0.778254 1.81323 2.35148
-0.0252305 1.78737 1.88589
-0.779811 1.86195 3.28989
-0.0278255 1.83953 2.81683
-0.030189 1.88475 3.76256
0.788816 -0.177808 -2.35213
0.800422 -0.0723202 -2.78811
1.18858 -0.205725 -2.82039
0.780336 -0.140895 -1.27168
1.17484 -0.156154 -1.87906
0.781476 -0.131647 -0.0441902
1.16953 -0.129443 -0.661992
0.770703 -0.107367 1.18353
1.17193 -0.127944 0.56865
0.750231 -0.0545167 2.26629
1.14172 -0.0789515 1.78665
0.740321 -0.00141396 3.20597
0.737496 0.127973 2.74361
1.12451 -0.0270113 2.73341
0.733925 0.180566 3.67976
1.11779 0.0264958 3.67042
0.809512 0.31063 -2.67479
1.19746 0.0570967 -2.75354
0.731101 0.309953 3.2174
0.721446 0.598548 2.74916
1.11203 0.284679 2.74448
0.725316 0.648098 3.69413
1.10954 0.336397 3.68376
0.797119 0.965167 -2.50972
1.20657 0.564879 -2.5997
0.715661 0.936693 3.22589
0.716513 1.37631 2.78313
1.08907 0.912808 2.75007
0.720945 1.42271 3.73225
1.0976 0.960437 3.70213
0.77525 1.39715 -1.95889
1.17348 1.37139 -2.42759
0.767645 1.48416 -0.928012
1.16291 1.43144 -1.49809
0.75897 1.61425 0.195726
1.15374 1.54504 -0.364509
0.740666 1.73725 1.31967
1.13806 1.68556 0.753895
0.725198 1.81367 2.35124
1.11031 1.78515 1.88806
0.721797 1.86233 3.28949
1.10127 1.83802 2.81882
1.10036 1.88385 3.76386
1.5746 -0.184071 -2.34733
1.58561 -0.0763082 -2.78581
1.56403 -0.144702 -1.26938
1.57053 -0.0260176 -1.84711
1.55998 -0.12574 -0.0491524
1.55901 0.0129229 -0.6399
1.54294 -0.0995283 1.17176
1.5601 0.0310249 0.577018
1.516 -0.0514461 2.25377
1.51988 0.0783826 1.78563
1.50199 0.000898446 3.19786
1.49904 0.129695 2.73428
1.49341 0.182327 3.67441
1.58155 0.0817452 -2.2856
1.59452 0.311346 -2.67845
1.56551 0.131608 -1.21763
1.58174 0.361468 -1.7415
1.55913 0.169688 -0.0137298
1.55425 0.426056 -0.563016
1.53704 0.208936 1.19089
1.55258 0.498474 0.61612
1.50292 0.259524 2.26615
1.49391 0.549811 1.79595
1.49046 0.311124 3.21084
1.47965 0.59894 2.74539
1.48182 0.648737 3.69176
1.59471 0.591069 -2.13435
1.58294 0.971101 -2.51757
1.57048 0.655917 -1.08688
[...]
POINT_DATA 29498
VECTORS point_vectors float
-7.46744 -10.8844 17.5513
0.0587703 0.236267 0.815325
-2.13818 0.964893 3.92637
0.0296633 -0.119341 0.596616
6.88024 -10.4431 16.3139
-0.0521568 0.231033 0.806657
2.00111 0.58201 3.85782
-0.037701 -0.106989 0.58555
-0.00685001 0.00346519 0.102612
0.00526468 0.000414147 0.0615226
0.0014061 0.00107299 0.068419
0.0700019 0.192846 0.396442
0.0141087 0.00496321 0.227218
-0.0151844 -0.00119492 0.181183
-0.000277373 0.00138142 0.0812575
-0.066617 0.182972 0.372993
-0.626126 -0.306481 19.8821
-1.13076 -0.630439 20.4739
-0.385585 -0.398011 21.2352
0.0175691 -0.200084 21.276
0.478768 0.0717446 21.3032
0.741328 0.215292 21.0793
0.789874 0.135141 21.0534
-0.797849 -0.248537 19.8182
-1.4945 -0.547402 20.5094
-0.507088 -0.446873 21.298
-0.0771655 -0.299109 21.3374
0.617863 -0.0425432 21.4848
0.925356 0.0318895 21.1462
0.904499 -0.0727737 21.3845
-1.01399 0.0149167 19.7364
-1.68267 -0.0310965 20.615
-0.864266 -0.362309 21.3013
-0.362067 -0.256164 21.4685
0.488166 -0.374285 21.4825
0.804863 -0.4294 21.065
0.785905 -0.443164 20.7945
-0.768235 0.431814 19.965
-1.06199 0.536056 20.5346
-0.858609 0.281405 21.1126
-0.31978 0.0119792 21.3482
0.116088 -0.261801 21.2015
0.277494 -0.358149 21.0667
0.3276 -0.387232 20.7244
-0.690322 -0.730942 19.2465
-1.86394 -3.57841 20.7322
-0.0255061 0.0732473 20.5643
0.210274 0.155652 19.5304
0.244117 1.03194 18.3794
0.565109 1.46451 18.1644
0.839228 1.30702 17.9275
-0.976939 -0.66827 18.7895
0.716602 1.47281 8.85209
1.52371 1.07471 11.9373
-1.51448 0.233434 18.1141
1.15905 -0.249471 10.0654
1.31812 -0.721902 14.3132
-0.915159 1.18789 19.3289
-1.51189 1.9367 20.3706
-1.67718 1.54042 21.3077
-0.394002 0.275268 21.9025
0.0847696 -0.423491 21.4173
0.218926 -0.6633 21.0961
0.199054 -0.665633 20.6434
0.690864 -0.716338 19.2682
1.87536 -3.63104 20.7176
0.0399813 0.101599 20.613
-0.211416 0.163058 19.5782
-0.225462 0.992847 18.2802
-0.507303 1.42396 18.044
-0.791261 1.33405 17.5642
0.987233 -0.649555 18.8437
-0.484923 1.43928 7.85498
-1.49695 1.13398 10.7763
1.52423 0.228563 18.1759
-1.05982 -0.168106 8.60136
-1.33274 -0.714315 13.1892
0.917889 1.20478 19.3206
1.4913 2.01023 20.362
1.68425 1.60845 21.3049
0.383671 0.295613 21.9274
-0.0790144 -0.428492 21.4402
-0.214337 -0.662332 21.1036
-0.194455 -0.686581 20.6279
0.622232 -0.302067 19.8888
1.13684 -0.633796 20.4687
0.389338 -0.397726 21.2364
-0.0137664 -0.202843 21.2673
-0.478355 0.0690987 21.317
-0.740508 0.235565 21.0967
-0.850857 0.132792 20.9012
0.788306 -0.242153 19.8344
1.50268 -0.549101 20.5065
0.506581 -0.450747 21.2979
0.0806067 -0.298717 21.3286
-0.598475 -0.050175 21.4825
-0.924793 0.03055 21.1509
-0.986238 -0.0593535 21.2348
0.9762 0.0192843 19.7568
1.68831 -0.0306027 20.6162
0.864762 -0.362642 21.2975
0.365488 -0.254908 21.4649
-0.474242 -0.363587 21.4773
-0.816454 -0.441008 21.0668
-0.852367 -0.470018 20.6735
0.782279 0.442022 19.9571
1.09066 0.560235 20.5402
0.869518 0.291441 21.1149
0.326026 0.0190909 21.3588
-0.114278 -0.266528 21.2163
-0.279356 -0.383275 21.0467
-0.325866 -0.383432 20.7843
-10.3786 -0.573673 13.6815
-0.00435465 -0.00806309 0.209197
-0.0611132 0.0379943 0.533328
0.00801267 0.00624286 0.048979
-0.00290769 0.0269835 0.109768
-0.0320204 0.0308108 0.590791
0.00213192 0.0291851 0.0845459
-0.158437 -0.185503 1.60211
-0.00572066 0.0267839 -0.0410236
0.012299 0.00833442 0.0704794
10.6117 -0.63545 13.2773
0.0376949 0.0215089 0.314598
-0.00574654 0.00872836 0.0463941
0.0261324 0.0252358 0.54702
0.166876 -0.204324 1.62705
-0.0127741 0.00862439 0.072051
0.00719907 -0.000124541 0.172448
0 0 0
0.000262768 0.000495284 0.0444492
-0.000357162 0.000707752 0.00252916
-1.41517e-19 6.62093e-19 6.41462e-17
0.022033 0.175405 0.340202
-0.000513595 0.0485244 0.123694
-0.000144178 -0.00130919 0.0111971
-0.00577833 0.00108512 0.134256
0 0 0
0.000587077 0.00126065 0.00416772
-0.0198201 0.17042 0.31148
0 0 0
-0.00026448 0.0016575 0.00666628
0 0 0
4.16102e-05 0.00097297 0.0395651
0 0 0
-5.67415e-05 0.000243208 0.0119102
0 0 0
-0.00541036 0.0312879 -0.0126472
-5.73906e-05 0.00711608 0.0399368
-0.000100494 0.0161279 0.126215
-8.14446e-06 -3.94454e-06 4.28955e-05
0 0 0
0.00035789 0.00454622 0.0200243
0 0 0
-2.99853 -1.58766 20.4886
-2.899 -5.64818 20.809
-2.41425 -1.89258 17.8581
1.04752 0.465198 19.0608
-0.236377 1.22897 12.0579
0.104072 1.00347 5.69617
-3.56239 0.302933 20.7684
-4.23048 1.49412 16.6293
-3.07467 3.06218 20.3969
1.03981 -0.286865 19.0348
0.523466 -0.0140694 5.7853
0.412708 -0.591484 19.7311
2.96191 -5.74457 20.7673
2.39381 -1.857 17.9092
3.04149 -1.62329 20.4624
0.256716 1.17633 11.9092
0.0844367 0.893871 5.33001
-1.0269 0.450402 19.158
4.21331 1.41367 16.7571
3.05742 3.16905 20.3918
3.59217 0.316357 20.7794
-0.431698 0.0853211 5.04209
-0.445806 -0.574064 19.4801
-1.01796 -0.278719 19.0076
-0.153885 -0.794556 21.4625
-0.153819 0.498491 13.6027
-0.0109467 -0.4442 20.1038
0.363507 0.117314 13.9125
-1.03346 -1.14669 21.2947
-3.99885 0.99006 20.5642
-0.622084 -0.443778 20.7845
-0.513324 0.348834 20.3799
0.172996 0.53007 13.4549
0.105324 -0.765148 21.3063
-0.377484 0.125297 14.0484
-0.00322559 -0.446167 20.1317
4.08523 1.04577 20.4383
1.05363 -1.15372 21.2808
0.397939 0.422586 19.8932
0.626602 -0.431684 20.7601
-0.928479 -0.47901 20.0591
-0.729082 -0.279825 19.8464
-0.72308 -0.473283 19.5998
-0.842899 -0.569349 21.1091
-1.32739 -0.610699 20.4977
-1.75858 -1.51756 20.4615
-0.132561 -0.280914 21.2521
-0.462355 -0.434719 21.2502
-0.118016 -0.479068 21.5283
0.204591 -0.0721071 21.3931
-0.021892 -0.254346 21.2846
0.20178 -0.238533 21.35
0.654157 0.162574 21.1836
0.539567 0.0127462 21.3734
0.737741 0.424837 21.1831
0.836186 0.190176 21.0648
0.845993 0.141366 21.1051
1.00793 0.681458 20.5306
0.847187 0.0311837 21.2189
1.17005 0.694774 20.2366
-1.20825 -0.41059 19.9948
-0.930757 -0.115924 19.75
-0.964296 -0.413298 19.4027
-1.07527 -0.535231 21.1879
-1.71359 -0.306669 20.5532
-0.231223 -0.376078 21.2667
-0.671207 -0.451297 21.3155
0.197489 -0.174334 21.5069
-0.236936 -0.332272 21.4084
0.808017 0.00925638 21.2598
0.595119 -0.23262 21.4835
0.979087 0.000109132 20.7932
0.921182 -0.242333 21.114
1.41191 0.525081 19.2479
0.85126 -0.249948 21.479
1.56314 0.318614 18.5069
-1.50217 0.0215557 20.014
-0.933904 0.285909 19.8261
-1.36468 0.0844017 19.1445
-1.2917 -0.210941 21.1751
-1.47144 0.377285 20.5714
-0.629484 -0.3532 21.3576
-1.02707 -0.0210154 21.2122
0.0331233 -0.26058 21.6022
-0.385454 -0.122233 21.4648
0.669519 -0.404729 21.2621
0.256526 -0.369189 21.3338
0.851313 -0.43294 20.9833
0.457599 -0.493492 21.0577
1.17691 -0.685867 20.3377
0.426312 -0.419097 20.637
1.09626 -0.629945 20.4698
-0.981987 0.533855 20.196
-0.908637 0.723977 19.7003
-0.993804 0.427686 20.872
-1.42381 1.06973 20.4837
-0.611918 0.152003 21.2975
-1.2675 0.627451 21.2412
-0.0664331 -0.132799 21.342
-0.39409 0.120448 21.5969
0.215175 -0.339537 21.0976
0.126181 -0.349407 21.3403
0.324406 -0.420869 20.8288
0.276066 -0.529498 20.9896
0.336006 -0.437431 20.8844
-1.37045 -1.76836 19.0858
-0.824154 -0.72466 19.043
0.00745107 -1.06122 18.7709
-0.370231 -1.01816 22.5045
-0.0221596 -4.77502 21.8408
0.0838921 0.171278 19.7511
-0.00656171 -0.0121715 18.1975
0.251531 0.436534 18.985
-0.00459125 0.147765 16.9258
0.332224 1.2863 18.0977
-0.0323888 0.523519 15.0147
0.820768 1.55271 17.4543
0.537123 1.51299 13.6608
-0.0839491 0.538541 13.6484
1.24041 1.21743 14.2291
-0.0278769 1.28138 12.826
-1.29443 -0.354658 18.3316
0.0255146 -1.0215 17.8753
1.2706 1.83921 11.1334
1.23005 0.677034 6.16529
-0.0219175 -1.1445 -2.99407
1.73865 0.211673 11.0886
0.0310145 -0.178961 0.88153
-1.30904 1.03332 18.6504
0.030852 0.5504 16.4995
1.77902 -0.516407 13.0808
0.560007 -0.908825 20.1936
0.0390868 -0.493501 0.148398
0.46645 -0.983263 20.2328
0.172367 -1.2822 4.27596
-1.27421 1.77287 19.6869
-0.0115355 1.7439 18.8829
-1.58674 1.63102 20.8259
-0.0419924 3.04739 20.1462
-1.0606 0.964655 21.925
-0.0365777 3.51944 21.194
-0.0544579 -0.184878 21.651
-0.0150184 0.419624 22.2613
0.163865 -0.550304 21.2476
-0.00485794 -0.486228 21.5298
0.237126 -0.652054 20.8487
0.000837473 -0.751747 21.2792
0.00196468 -0.874469 21.2325
1.36289 -1.75123 19.0883
0.828833 -0.708153 19.0706
0.719768 -0.463544 19.6118
0.395108 -1.0018 22.5192
1.78305 -1.54888 20.4547
-0.0770608 0.191939 19.7953
0.106737 -0.46648 21.5308
-0.257363 0.419576 18.9453
-0.20304 -0.234614 21.3423
-0.286046 1.21516 17.9676
-0.719166 0.429264 21.128
-0.697322 1.53651 17.2521
-0.375602 1.45714 13.0231
-0.988274 0.716386 20.4758
-1.17407 1.24768 13.7986
-1.19044 0.755931 20.1826
1.29991 -0.352156 18.3888
0.959369 -0.397132 19.4246
-1.10988 1.72176 10.0889
-1.03828 0.704631 4.82158
-1.40284 0.603944 18.9064
-1.70056 0.297571 9.80301
-1.54305 0.431194 18.2844
1.32014 1.0285 18.6642
1.33594 0.100541 19.204
-1.73332 -0.488588 11.7564
-0.554003 -0.918708 20.0587
-1.1789 -0.627356 19.9621
-0.444207 -1.02002 20.1918
-1.14377 -0.651614 20.4168
1.2591 1.8198 19.6734
0.908539 0.7299 19.696
1.58046 1.70682 20.8063
1.43704 1.116 20.4795
1.05739 1.0161 21.9483
1.29037 0.655753 21.249
0.0515186 -0.183932 21.6593
0.394342 0.130136 21.6125
-0.161062 -0.552504 21.2585
-0.125364 -0.352228 21.3517
-0.228018 -0.668987 20.8307
-0.27579 -0.537251 21.0092
-0.328727 -0.476092 20.8371
0.927034 -0.480671 20.0562
0.726809 -0.270791 19.8594
0.847116 -0.573133 21.1222
1.32989 -0.61584 20.4978
0.122965 -0.28182 21.2561
0.463386 -0.436965 21.2521
-0.198298 -0.0764133 21.3823
0.0263364 -0.257204 21.277
-0.643574 0.164242 21.1819
-0.530596 0.00818979 21.383
-0.84667 0.189587 21.0515
-0.850071 0.154836 21.1001
-0.921824 0.0364098 21.054
1.19903 -0.414269 19.9949
0.919166 -0.115078 19.7615
1.07879 -0.540843 21.2035
1.72252 -0.305806 20.5541
0.226543 -0.3778 21.2655
0.667541 -0.453717 21.3166
-0.19063 -0.173827 21.4961
0.240572 -0.33403 21.4047
-0.792787 0.00435046 21.2568
-0.575821 -0.230427 21.4811
-0.996696 -0.0028898 20.8434
-0.93204 -0.252399 21.1336
-0.917436 -0.274957 21.402
1.4936 0.024246 20.0266
0.927632 0.287978 19.8283
1.28424 -0.215026 21.1796
1.48743 0.404873 20.5788
0.631037 -0.35386 21.3513
1.03512 -0.0186928 21.2158
-0.0265824 -0.257911 21.5944
0.396029 -0.1181 21.4664
-0.661489 -0.404975 21.2614
-0.253025 -0.366531 21.3435
-0.867946 -0.444857 21.0474
-0.467022 -0.508064 21.0743
-0.454697 -0.454699 20.7151
0.997133 0.54729 20.1965
1.01644 0.436742 20.8736
0.621406 0.160476 21.306
0.0623126 -0.134257 21.3634
-0.215772 -0.344401 21.117
-0.319878 -0.434775 20.8227
-1.09639 -0.46407 20.0226
-1.87362 -1.99327 18.5125
-1.24741 -0.935242 19.7008
-1.90778 -0.891323 19.3544
-0.845588 -0.461382 19.4915
-2.31989 -1.63358 20.4906
-0.972519 -0.572975 21.1372
-0.380866 -0.0636578 16.6408
-0.85577 -1.05582 21.6151
-1.2995 -1.28427 22.1108
-0.0734548 -0.636353 21.597
-0.184426 -0.33606 21.2525
0.0501594 0.32144 13.4938
0.111928 -0.299477 21.3632
0.0692337 -0.542332 20.5597
0.163833 -0.379877 21.002
0.198308 -0.128395 21.4414
0.0706078 0.447812 12.816
0.402395 0.0042664 21.3849
0.30415 -0.0848904 19.5362
0.907799 0.468849 20.3603
0.732931 0.0933326 21.221
0.132788 1.39252 12.4019
0.899388 0.618018 20.8289
1.22064 0.552014 18.705
1.29917 0.637908 20.1357
0.913766 0.0931418 20.8583
1.02324 1.86261 14.7239
1.1467 0.574619 20.5559
1.52308 0.367827 19.0373
1.37071 0.49622 19.6261
-1.44352 -0.191567 19.9528
-3.73266 -0.739533 16.5434
-2.58064 0.303943 19.232
-1.18594 -0.212017 19.246
-3.71831 -0.653905 20.5897
-1.22418 -0.422343 21.2279
-1.99632 -0.50684 21.872
-0.37592 -0.896543 20.6551
-0.40938 -0.419748 21.3159
-0.897057 -0.94965 20.9235
-0.289791 -0.415667 19.8036
0.105965 -0.254419 21.5747
0.148981 -0.0251618 19.9782
1.19961 0.233949 18.0844
0.821636 -0.235095 21.2266
0.140509 0.522305 2.55935
1.07668 -0.532797 19.6684
1.54426 -0.0196688 18.981
0.980169 -0.244528 20.9467
2.03695 0.565267 9.30875
1.04579 -0.730447 20.6692
1.45935 0.000298142 18.5759
-1.32018 0.426423 20.0789
-2.40355 2.3631 18.7767
-1.2656 1.03157 19.9983
-1.21836 0.566206 19.3559
-2.35703 1.06838 20.5527
-1.28946 0.170106 21.0062
-3.04471 1.60701 21.2507
-1.38779 0.82967 20.9189
-1.84205 0.0410717 21.4102
-0.746093 -0.0825443 21.3801
-2.31036 0.362549 20.5162
-0.854858 0.415054 21.5324
-0.635427 -0.0153136 21.839
-0.0363876 -0.230738 21.4929
0.261561 -0.211041 19.9947
-0.0641338 -0.156606 21.4975
0.270935 -0.549988 21.5084
0.393666 -0.437452 21.2072
0.454209 -0.741802 20.0143
0.216397 -0.442117 21.1944
0.515436 -0.729663 21.1216
0.445433 -0.507234 20.8977
0.577681 -1.05821 20.2209
0.299226 -0.547964 20.7973
0.530462 -0.676255 20.9128
1.8667 -1.96303 18.5222
0.00342637 -3.10323 18.2775
0.0291087 -4.24878 15.0921
0.0136982 -1.08461 18.3722
-0.0225263 -5.41429 22.7049
0.368853 -0.0241857 16.6602
-0.0162458 -0.889563 21.3727
0.0123668 0.228832 8.24105
-0.0558249 0.348166 13.4611
-0.00233565 0.061932 17.1865
-0.000752232 0.123974 9.17968
-0.110451 0.418729 12.8632
-0.00740634 0.280608 15.9154
-0.0541627 0.376137 7.59631
-0.061279 1.28568 12.0186
-0.0705643 0.420229 14.1595
-0.18434 -0.82696 -1.29368
-0.153327 -0.0917983 4.7703
-0.890376 1.82592 14.4417
-0.0744659 1.04285 13.2435
0.0177957 -0.0821443 -0.639435
-0.00382111 0.547429 6.58697
3.68648 -0.729312 16.6609
0.0594434 4.78956 11.4313
0.0332751 -0.571962 16.9622
0.0448032 0.575329 2.14449
-0.0754705 0.785699 -0.121603
0.177943 -1.17002 -4.05314
-1.86184 0.474933 8.13527
0.118042 -0.674842 1.26409
0.231855 -0.855736 -1.02504
2.39844 2.39794 18.7565
-0.0267419 2.72342 19.315
0.00596015 1.82389 17.5749
-0.0244379 5.11326 20.1259
3.04641 1.65681 21.2387
-0.049153 2.95315 20.4351
-0.0580445 4.95101 15.4305
2.32906 0.383968 20.4021
-0.0290289 2.06454 22.7013
-0.00228571 -0.203551 12.163
-0.323334 -0.197924 19.7057
-0.00671195 -0.217618 21.8296
-0.000925892 -0.647338 12.7549
-0.460016 -0.733689 19.9471
-0.0033435 -0.62956 21.3208
-6.13779e-05 -0.995078 15.5072
-0.586731 -1.05081 20.2507
0.00843126 -0.71084 21.1413
0.0368103 -1.07715 17.8571
1.09222 -0.469628 20.016
1.2449 -0.927564 19.7001
1.89164 -0.881684 19.3722
0.841063 -0.449227 19.5106
2.33563 -1.66165 20.4716
0.97929 -0.579165 21.1571
0.860664 -1.06411 21.6375
1.29359 -1.29799 22.1705
0.050005 -0.619661 21.6011
0.178148 -0.336713 21.2583
-0.119591 -0.28836 21.3585
-0.0979027 -0.536535 20.4998
-0.169461 -0.374804 21.0019
-0.190537 -0.133122 21.4259
-0.396127 0.0044338 21.3665
-0.296213 -0.0901471 19.6253
-0.89053 0.463944 20.3549
-0.722328 0.0928285 21.2216
-0.878647 0.626171 20.7758
-1.18912 0.575039 18.5287
-1.26935 0.690227 19.8944
-0.930898 0.0899939 20.9143
-1.15611 0.64606 20.5153
-1.50485 0.493165 18.5302
-1.37019 0.608484 19.4007
1.43983 -0.189238 19.9602
2.55663 0.302816 19.2557
1.17573 -0.197862 19.2677
3.77329 -0.660046 20.5685
1.22033 -0.424401 21.2352
1.99116 -0.516095 21.8844
0.344272 -0.923489 20.4721
0.411172 -0.423895 21.3135
0.916449 -0.949305 20.8711
0.293856 -0.422639 19.7631
-0.10186 -0.250812 21.5708
-0.136481 -0.0250306 19.9911
-1.17695 0.240116 18.0777
-0.811307 -0.238004 21.2353
-1.07292 -0.477354 19.3915
-1.5423 0.064122 18.4019
-0.993742 -0.259222 20.9897
-1.10677 -0.717793 20.2831
-1.48647 0.00700315 17.8701
1.3142 0.423987 20.0736
1.27504 1.05639 19.9929
1.23744 0.578437 19.3595
2.39248 1.11144 20.5542
1.29573 0.176281 21.0126
1.40178 0.871056 20.9169
1.8756 0.0448089 21.4086
0.754917 -0.0788778 21.3833
0.871592 0.437359 21.5533
0.636559 -0.00686592 21.8508
0.041733 -0.224927 21.4994
0.0616471 -0.152893 21.5098
-0.268659 -0.554577 21.5103
-0.393619 -0.440701 21.2117
-0.215394 -0.456354 21.1951
-0.510031 -0.748146 21.1221
-0.454126 -0.52756 20.8915
-0.291442 -0.558073 20.8047
-0.528557 -0.721118 20.8096
-1.56117 -0.953651 19.5487
-1.00609 -1.17871 21.8206
0.140576 -0.437774 21.1692
0.403721 -0.0583575 20.6747
1.13403 0.570628 20.2465
1.27416 0.478233 20.2617
-2.43976 -0.369996 19.1355
-1.72967 -0.919089 22.1696
-0.172815 -0.770351 19.964
0.170598 -0.0455614 19.6126
1.35937 0.0854764 18.2707
1.64797 -0.0334844 18.9253
-1.97564 1.02538 19.6305
-2.0127 0.432194 21.2094
-1.3383 0.0182805 21.7323
-0.0567819 -0.259994 21.7956
0.408437 -0.654367 21.2993
0.493537 -0.74222 20.9595
0.0106261 -3.84284 17.0393
-0.00706985 -0.0343828 10.8042
0.00844162 0.150037 8.76483
-0.00975397 0.191046 8.49376
-0.152572 -0.110049 6.04419
-0.0602803 0.842709 6.08517
0.0517521 -1.29225 10.9016
-0.00958871 -0.147538 -2.91431
0.204077 -1.11514 -4.16911
-0.00896789 4.69642 17.6393
-0.033392 3.83085 19.7236
-0.00485243 0.946895 9.58447
0.00486433 -0.527756 12.1683
-0.00655121 -0.689065 13.8113
0.0264815 -1.30689 17.6524
1.54545 -0.948872 19.5472
0.996809 -1.18401 21.8552
-0.159566 -0.424293 21.1556
-0.395139 -0.0625304 20.6843
-1.10502 0.578891 20.2088
-1.26259 0.582204 19.8216
2.40648 -0.350138 19.146
1.70973 -0.95046 22.2057
0.174507 -0.797346 19.9143
-0.157635 -0.0416849 19.588
-1.32523 0.137387 17.9065
-1.7199 0.0127743 18.1641
1.99077 1.04757 19.62
2.03888 0.43946 21.2176
1.35077 0.0292403 21.7409
0.0512439 -0.256818 21.7954
-0.400368 -0.664522 21.3135
-0.510795 -0.772412 20.8763
-2.06597 -0.523151 2.14776
-0.058136 -0.0340555 0.488451
-0.0723507 0.0243095 0.377507
0.044254 0.0346071 0.138369
-0.0344081 0.0676873 0.246173
-0.0328288 0.0326175 0.415668
-0.948899 0.0759891 1.27209
0.0564861 0.224176 0.431119
-0.271813 -0.110835 1.20333
0.0181024 -0.00970882 0.0640164
-0.0261701 -0.00686074 0.0147111
0.00415014 -0.00210986 0.0747654
0.11544 -0.103998 0.950968
1.94669 -0.574077 1.9811
0.0404834 0.00984144 0.254125
0.0326209 0.0574058 0.218531
-0.0370903 0.0311074 0.111981
0.0317992 0.0320547 0.412816
-0.0238699 0.154918 0.333175
0.691958 0.0402988 1.11043
0.354647 -0.14497 1.55043
0.0166974 -0.0033395 0.00664082
-0.0140021 -0.0056216 0.051634
-0.00428341 -0.00192041 0.0740537
-0.0208073 0.0140127 0.378264
9.07396e-05 0.00156404 0.086742
0.0376113 0.0702801 0.435241
1.14418e-18 6.26846e-19 3.73571e-17
-0.0321688 0.026187 0.511863
0.030399 0.00309413 0.47285
0 0 0
1.94145e-18 7.67211e-19 7.83118e-17
-0.0332769 -0.438487 1.62323
0 0 0
0.00668342 0.0327028 0.117161
-0.0146299 0.00750388 0.0253363
0.0249472 0.0353258 0.0939745
-0.000506118 0.00884774 0.0185614
0.0694557 0.185831 0.340937
0.052152 -0.015397 0.180835
0.0128125 0.0116823 0.299628
-0.00046612 1.97986e-05 0.0185448
-0.00020995 0.00147954 0.0823661
-0.0238417 0.107737 0.459245
0.0268233 0.0264064 0.510277
0 0 0
-0.049731 -0.000368162 0.696166
0 0 0
0.0841167 -0.383206 1.42902
0.0161979 0.00840584 0.0281915
-0.000342249 -0.000616422 0.00252046
-0.00637417 0.0368141 0.13002
-0.0273503 0.0385675 0.101993
-0.0494825 -0.0146224 0.171372
0.000259273 0.00503279 0.0101415
-0.0691191 0.185104 0.335178
0 0 0
-0.661722 -0.0688135 0.0912099
-6.90834e-05 0.00130789 0.0200346
0 0 0
7.15055e-06 0.000159061 0.00152585
0 0 0
0 0 0
-0.0643607 0.0242261 -0.015924
0 0 0
0 0 0
0 0 0
0 0 0
0 0 0
-2.2036e-05 0.00645601 0.0290422
-8.28527e-06 -8.03308e-05 0.00141351
-0.0594909 0.0326432 0.224003
-0.00230777 0.0341066 -0.0147156
0 0 0
0.000107715 0.00165631 0.0103636
0.000138673 -0.000488057 0.00168068
0 0 0
0 0 0
0 0 0
0.00138071 0.000899093 0.28726
0.0716137 0.0309988 -0.0183413
0 0 0
7.4222e-05 0.000136749 0.00820824
-0.00102176 0.0239042 0.24261
0.0522549 0.0296784 0.209096
1.67344e-18 6.57824e-18 -1.35177e-16
-0.000185328 -0.000532105 0.00184155
-0.000105444 0.0015643 0.00958015
0 0 0
0 0 0
0.00394086 0.00334915 0.0672973
0 0 0
0.000513238 0.000744598 0.0630951
8.33443e-05 0.000308479 0.0259359
-0.000460077 0.00368158 0.0137448
-0.00112613 0.00363565 0.0562791
-2.73204e-06 0.000162858 0.0106318
0 0 0
-5.34283e-19 3.1043e-17 1.02508e-16
-0.0750815 0.179553 1.36643
0 0 0
3.49797e-05 0.23976 0.616142
-1.6448e-05 -0.000899143 0.0490466
4.23734e-05 -0.00346741 0.0285734
-0.000421045 0.00028566 0.00464281
0 0 0
-0.000622509 0.00111151 0.0132301
0 0 0
0.000585935 0.00458838 0.0158174
0.00118222 0.00417185 0.0577446
0.0704874 0.173653 1.31434
-1.6374e-05 0.000723078 0.0020597
0 0 0
-0.00330274 -0.00379319 0.0689599
0.00167461 0.00803958 0.0643532
0.00648425 -0.00039153 0.119249
0 0 0
0 0 0
0 0 0
5.26816e-05 0.0146354 0.0324752
0 0 0
-0.00968251 0.0292185 0.110431