# vtk DataFile Version 2.0
tet_velo
ASCII
DATASET UNSTRUCTURED_GRID
POINTS 29498 float
-0.786779 0.085 -1.175
-0.775 0.155 1.73146
-0.775 0.52904 -1.085
-0.804771 0.635 1.595
0.786779 0.085 -1.175
0.775 0.155 1.73147
0.775 0.52904 -1.085
0.804778 0.635 1.595
-0.77903 0.112156 -0.20618
-0.735585 0.175008 0.76264
-0.818132 0.597568 -0.191667
-0.819714 0.624547 0.701667
0.778976 0.11221 -0.206177
0.735836 0.174757 0.762647
0.818368 0.597802 -0.191667
0.81966 0.624488 0.701667
-1.58508 -0.180852 -1.92194
-1.58093 -0.147716 -1.17712
-1.56896 -0.110392 -0.206347
-1.53388 -0.0623922 0.779617
-1.53712 -0.0598874 1.75167
-1.54506 -0.0570007 2.50276
-1.5473 -0.0443366 3.24225
-1.58364 0.0482028 -1.90408
-1.58226 0.0855025 -1.1675
-1.57581 0.120827 -0.21142
-1.53669 0.170454 0.751458
-1.54775 0.169697 1.70899
-1.55267 0.172941 2.45901
-1.55193 0.186392 3.20096
-1.57934 0.504104 -1.84717
-1.5815 0.542148 -1.10747
-1.60684 0.595965 -0.202849
-1.59654 0.628962 0.696426
-1.58368 0.640771 1.6025
-1.57334 0.644752 2.35564
-1.56469 0.656381 3.10976
-1.5753 1.21107 -1.81856
-1.57862 1.24991 -1.09017
-1.59163 1.29868 -0.210022
-1.5999 1.33084 0.653856
-1.59662 1.34825 1.53479
-1.58796 1.35891 2.26483
-1.57881 1.37096 3.01071
-0.795892 -0.182448 -1.92681
-0.790701 -0.149433 -1.18422
-0.784833 -0.115325 -0.205393
-0.753636 -0.0602965 0.789162
-0.759486 -0.0679752 1.76835
-0.764738 -0.0640568 2.51408
-0.764755 -0.0492749 3.2488
-0.794111 0.0457254 -1.90558
-0.769585 0.165136 2.46835
-0.767507 0.181141 3.20591
-0.788467 0.497926 -1.83784
-0.783985 0.639491 2.35414
-0.776359 0.652044 3.10944
-0.780126 1.20768 -1.80933
-0.779985 1.24721 -1.08
-0.791435 1.29836 -0.203892
-0.802441 1.33024 0.653121
-0.802719 1.34637 1.52954
-0.795773 1.35666 2.25959
-0.78809 1.36874 3.0069
0.779399 -0.182422 -1.92681
0.782045 -0.149412 -1.18422
0.770538 -0.115312 -0.20539
0.751419 -0.0604566 0.789168
0.777864 -0.0680382 1.76836
0.788844 -0.0641038 2.51409
0.795883 -0.0493232 3.24881
0.779685 0.0457477 -1.90558
0.791937 0.165104 2.46836
0.797531 0.181098 3.20591
0.781651 0.497955 -1.83784
0.80065 0.639466 2.35414
0.799441 0.652007 3.10945
0.806226 1.20773 -1.80933
0.812653 1.24727 -1.08
0.812671 1.29842 -0.203891
0.80254 1.33025 0.653122
0.794244 1.34634 1.52954
0.793487 1.35663 2.25959
0.795158 1.3687 3.0069
1.56881 -0.180788 -1.92194
1.57147 -0.147645 -1.17712
1.55915 -0.11037 -0.206342
1.5313 -0.0626032 0.779626
1.54712 -0.060043 1.75168
1.56452 -0.0571113 2.50277
1.5751 -0.0444368 3.24226
1.57069 0.0482716 -1.90408
1.57823 0.0855921 -1.1675
1.57397 0.120909 -0.211415
1.53571 0.170217 0.751467
1.54896 0.169559 1.709
1.56889 0.172847 2.45902
1.57805 0.186299 3.20097
1.5752 0.50419 -1.84717
1.58272 0.542275 -1.10747
1.60896 0.596181 -0.202847
1.59562 0.628867 0.696429
1.58154 0.640673 1.6025
1.58362 0.644676 2.35565
1.58428 0.6563 3.10977
1.59868 1.21118 -1.81856
1.60627 1.25004 -1.09017
1.60995 1.29879 -0.21002
1.60114 1.33086 0.653858
1.59046 1.3482 1.5348
1.58664 1.35885 2.26484
1.58588 1.37089 3.01072
-0.796351 0.30702 -1.14546
0 0.0812467 -1.17875
-0.778234 0.103249 -0.69059
-0.82899 0.395 1.70233
0 0.207638 1.67883
-0.781079 0.139218 1.24705
0 0.636265 -1.19223
-0.789346 0.556085 -0.638333
3.48687e-06 0.699671 1.65967
-0.837316 0.654846 1.14833
0.796323 0.30702 -1.14543
0.778222 0.103261 -0.690588
0.828957 0.395 1.7023
0.781117 0.13918 1.24706
0.790145 0.556882 -0.638333
0.837322 0.654847 1.14833
-0.789369 0.11152 0.27823
-0.686406 0.354862 -0.198923
-2.72626e-05 0.095573 -0.206178
-0.731407 0.399777 0.732153
0.000125405 0.100808 0.762643
-0.821914 0.614048 0.255
0.000118153 0.903649 -0.191667
-2.69135e-05 0.932343 0.701667
0.789411 0.111478 0.278235
0.686438 0.355006 -0.198922
0.731564 0.399623 0.732157
0.82128 0.613411 0.255
-0.802374 0.330941 -0.664462
-0.687539 0.37732 0.266615
-0.897998 0.397389 1.19769
-1.36313e-05 0.0905258 -0.690589
4.90714e-05 0.0981497 0.278233
6.27027e-05 0.122311 1.24705
0 0.30702 -1.59443
1.74344e-06 0.395 1.79822
5.90764e-05 0.723381 -0.638333
4.56196e-05 0.973772 0.255
-1.17133e-05 0.773922 1.14833
0.802374 0.331013 -0.664461
0.687549 0.377315 0.266618
0.897999 0.397311 1.1977
-1.18452 0.0852512 -1.17125
-0.78874 -0.0322163 -1.17961
-0.790445 0.0653627 -1.54029
-1.16137 0.162348 1.72022
-0.767243 0.0435124 1.74991
-0.772292 0.160068 2.0999
-1.17825 0.535594 -1.09624
-0.781734 0.513483 -1.46142
-0.777492 0.888123 -1.0825
-1.19423 0.637885 1.59875
-0.794378 0.637245 1.97457
-0.803745 0.990684 1.56227
0.784412 -0.032206 -1.17961
0.783232 0.0653738 -1.54029
1.1825 0.085296 -1.17125
0.776432 0.0434809 1.74992
0.783469 0.160052 2.09991
1.16198 0.16228 1.72023
0.778325 0.513497 -1.46142
0.793827 0.888157 -1.0825
1.17886 0.535657 -1.09624
0.802714 0.637233 1.97457
0.799511 0.990672 1.56227
1.19316 0.637836 1.59875
-1.17742 0.116492 -0.2088
-0.781932 -0.00158451 -0.205786
-1.13614 0.172731 0.757049
-0.74461 0.0573558 0.775901
-1.21248 0.596767 -0.197258
-0.804784 0.947963 -0.197779
-1.20813 0.626754 0.699046
-0.811077 0.977392 0.677394
0.774757 -0.00155057 -0.205783
1.17647 0.11656 -0.208796
0.743627 0.0571504 0.775907
1.13577 0.172487 0.757057
0.81552 0.948112 -0.197779
1.21367 0.596992 -0.197257
0.8111 0.977367 0.677394
1.20764 0.626677 0.699048
-1.58301 -0.164284 -1.54953
-1.58436 -0.0663248 -1.91301
-1.19049 -0.18165 -1.92438
-1.57495 -0.129054 -0.691733
-1.5816 -0.0311066 -1.17231
-1.18582 -0.148574 -1.18067
-1.55142 -0.086392 0.286635
-1.57238 0.00521772 -0.208883
-1.1769 -0.112858 -0.20587
-1.5355 -0.0611398 1.26564
-1.53529 0.0540307 0.765538
-1.14376 -0.0613444 0.78439
-1.54109 -0.0584441 2.12721
-1.54243 0.0549047 1.73033
-1.1483 -0.0639313 1.76001
-1.54618 -0.0506686 2.8725
-1.54886 0.0579703 2.48089
-1.1549 -0.0605287 2.50842
-1.54961 0.0710278 3.22161
-1.15603 -0.0468057 3.24553
-1.58295 0.0668527 -1.53579
-1.58149 0.276153 -1.87563
-1.18888 0.0469641 -1.90483
-1.57903 0.103165 -0.689461
-1.58188 0.313825 -1.13749
-1.55625 0.14564 0.270019
-1.59132 0.358396 -0.207134
-1.54222 0.170075 1.23022
-1.56662 0.399708 0.723942
-1.55021 0.171319 2.084
-1.56571 0.405234 1.65574
-1.5523 0.179667 2.82999
-1.563 0.408847 2.40733
-1.16113 0.169039 2.46368
-1.55831 0.421386 3.15536
-1.15972 0.183767 3.20344
-1.58042 0.523126 -1.47732
-1.57732 0.857587 -1.83287
-1.18391 0.501015 -1.8425
-1.59417 0.569056 -0.65516
-1.58006 0.896028 -1.09882
-1.60169 0.612463 0.246789
-1.59923 0.947322 -0.206435
-1.59011 0.634866 1.14946
-1.59822 0.979903 0.675141
-1.57851 0.642761 1.97907
-1.59015 0.99451 1.56864
-1.56901 0.650566 2.7327
-1.58065 1.00183 2.31024
-1.17866 0.642121 2.35489
-1.57175 1.01367 3.06024
-1.17052 0.654212 3.1096
-1.57696 1.23049 -1.45437
-1.17772 1.20937 -1.81395
-1.58512 1.27429 -0.650096
-1.1793 1.24856 -1.08509
-1.59576 1.31476 0.221917
-1.19153 1.29852 -0.206957
-1.59826 1.33955 1.09432
-1.20117 1.33054 0.653489
-1.59229 1.35358 1.89981
-1.19967 1.34731 1.53217
-1.58339 1.36494 2.63777
-1.19187 1.35779 2.26221
-1.18345 1.36985 3.00881
-0.793296 -0.16594 -1.55552
-0.795001 -0.0683611 -1.9162
-0.00824651 -0.182435 -1.92681
-0.787767 -0.132379 -0.694808
-0.00432799 -0.149422 -1.18422
-0.769234 -0.0878107 0.291885
-0.00714757 -0.115318 -0.205391
-0.756561 -0.0641358 1.27876
-0.00110835 -0.0603765 0.789165
-0.762112 -0.066016 2.14122
0.0091889 -0.0680067 1.76836
-0.764746 -0.0566658 2.88144
-0.767161 0.0505397 2.49121
0.0120532 -0.0640803 2.51408
-0.766131 0.0659331 3.22736
0.015564 -0.049299 3.24881
-0.791289 0.271826 -1.87171
-0.00721323 0.0457366 -1.90558
-0.768546 0.173139 2.83713
-0.776785 0.402313 2.41125
0.0111763 0.16512 2.46835
-0.771933 0.416593 3.15768
0.0150118 0.18112 3.20591
-0.784297 0.852802 -1.82358
-0.00340829 0.497941 -1.83784
-0.780172 0.645767 2.73179
-0.789879 0.998076 2.30686
0.00833228 0.639478 2.35414
-0.782225 1.01039 3.05817
0.011541 0.652025 3.10945
-0.780056 1.22744 -1.44467
0.0130501 1.20771 -1.80933
-0.78571 1.27278 -0.641946
0.0163341 1.24724 -1.08
-0.796938 1.3143 0.224615
0.0106178 1.29839 -0.203891
-0.80258 1.3383 1.09133
4.93138e-05 1.33024 0.653122
-0.799246 1.35151 1.89456
-0.00423755 1.34636 1.52954
-0.791931 1.3627 2.63324
-0.00114265 1.35665 2.25959
0.00353433 1.36872 3.0069
0.780722 -0.165917 -1.55552
0.779542 -0.068337 -1.9162
1.1741 -0.181605 -1.92438
0.776292 -0.132362 -0.694806
1.17676 -0.148529 -1.18067
0.760978 -0.0878841 0.291889
1.16485 -0.112841 -0.205866
0.764642 -0.0642474 1.27877
1.14136 -0.0615299 0.784397
0.783354 -0.066071 2.14122
1.16249 -0.0640406 1.76002
0.792364 -0.0567135 2.88145
0.790391 0.0505003 2.49122
1.17668 -0.0606076 2.50843
0.796707 0.0658874 3.22736
1.18549 -0.04688 3.24553
0.780668 0.271851 -1.87171
1.17519 0.0470096 -1.90483
0.794734 0.173101 2.83713
0.796294 0.402285 2.41125
1.18041 0.168976 2.46369
0.798486 0.416552 3.15768
1.18779 0.183699 3.20344
0.793938 0.852844 -1.82358
1.17843 0.501072 -1.8425
0.800046 0.645736 2.7318
0.797069 0.998049 2.30687
1.19214 0.642071 2.3549
0.7973 1.01036 3.05818
1.19186 0.654153 3.10961
0.80944 1.2275 -1.44467
1.20245 1.20946 -1.81395
0.812662 1.27285 -0.641946
1.20946 1.24866 -1.08508
0.807605 1.31433 0.224616
1.21131 1.2986 -0.206956
0.798392 1.33829 1.09133
1.20184 1.33055 0.65349
0.793866 1.35149 1.89457
1.19235 1.34727 1.53217
0.794323 1.36267 2.63325
1.19006 1.35774 2.26221
1.19052 1.3698 3.00881
1.57014 -0.164217 -1.54953
1.56975 -0.0662581 -1.91301
1.56531 -0.129008 -0.691729
1.57485 -0.0310267 -1.17231
1.54523 -0.0864867 0.286642
1.56656 0.00526935 -0.208878
1.53921 -0.0613231 1.26565
1.53351 0.0538071 0.765546
1.55582 -0.0585771 2.12722
1.54804 0.054758 1.73034
1.56981 -0.050774 2.87251
1.5667 0.0578679 2.4809
1.57658 0.0709313 3.22162
1.57446 0.0669319 -1.53579
1.57295 0.276231 -1.87562
1.5761 0.10325 -0.689459
1.58047 0.313933 -1.13749
1.55484 0.145563 0.270026
1.59146 0.358545 -0.207131
1.54233 0.169888 1.23023
1.56566 0.399542 0.723948
1.55892 0.171203 2.08401
1.56525 0.405116 1.65575
1.57347 0.179573 2.83
1.57626 0.408761 2.40733
1.58117 0.4213 3.15537
1.57896 0.523232 -1.47732
[...]
POINT_DATA 29498
VECTORS point_vectors float
-7.00648 -7.61817 19.3347
-0.037014 0.536249 2.05985
-0.869751 0.369169 2.2574
0.107724 -0.234692 0.787965
7.14623 -7.67931 19.4209
0.0370681 0.538918 2.05916
0.883469 0.375085 2.28981
-0.10729 -0.236294 0.790531
0.256946 0.711871 5.99758
0.0190758 -0.0775801 0.0124455
-0.804117 -0.791765 8.26864
0.541455 2.94428 5.10392
-0.256393 0.70212 5.97191
-0.0224483 -0.0821976 0.0101291
0.803045 -0.78109 8.30649
-0.544221 2.94482 5.12911
-0.728804 -0.271848 19.9882
-0.979123 -0.423328 20.5318
-0.473335 -0.282375 20.9738
-0.200017 -0.195867 21.1148
0.325687 0.0266116 21.1905
0.61133 0.158033 20.8661
0.637521 0.109883 20.6423
-0.847574 -0.218709 19.939
-1.15593 -0.336604 20.5144
-0.565727 -0.269964 21.0003
-0.323999 -0.209884 21.1164
0.356078 -0.0415692 21.215
0.683576 0.0290007 20.913
0.705306 0.0545512 20.546
-0.96543 0.0748453 19.888
-1.28164 0.0362626 20.5386
-0.745596 -0.106234 20.9766
-0.415307 -0.0943962 21.1122
0.185868 -0.136102 21.2443
0.597246 -0.214599 21.013
0.725539 -0.21503 20.5326
-0.70127 0.397362 20.0011
-0.888446 0.446544 20.424
-0.701613 0.28092 20.8407
-0.342516 0.114478 21.0438
0.0408417 -0.108059 21.069
0.26682 -0.28194 20.9221
0.364561 -0.314233 20.784
-1.13078 -1.12376 19.1687
-1.83386 -3.08137 21.2125
-0.269429 0.0549213 19.8399
0.544437 -0.82788 15.2388
0.334329 0.888451 16.2253
0.777496 1.37834 17.1601
0.973332 1.24125 16.9536
-1.6215 -1.0137 18.6278
0.780046 1.16503 9.69074
1.4609 1.38748 12.5782
-2.22607 0.539882 18.0354
0.849649 -0.386791 7.71361
1.56099 -0.576328 11.2903
-0.933204 1.15225 19.4237
-1.37457 1.72462 20.2677
-1.3775 1.31382 21.1649
-0.45093 0.498974 21.6127
0.0695903 -0.226513 21.4651
0.262379 -0.652052 21.1828
0.365607 -0.813551 20.8722
1.12819 -1.14839 19.1491
1.8031 -3.1179 21.2229
0.310964 0.0565491 19.5771
-0.564168 -0.835765 15.173
-0.37134 0.901607 16.5883
-0.819109 1.36821 17.3888
-0.987228 1.12518 17.4677
1.63654 -1.03413 18.5769
-0.892377 1.16831 10.3522
-1.47196 1.26564 13.0911
2.23936 0.551171 18.0074
-0.903627 -0.390747 8.36328
-1.58632 -0.598152 12.2209
0.933409 1.11586 19.4562
1.3894 1.64515 20.2847
1.3654 1.25457 21.1514
0.44997 0.499958 21.6117
-0.0700394 -0.228323 21.4698
-0.261874 -0.653604 21.1827
-0.369328 -0.80865 20.8628
0.73849 -0.280471 19.9821
0.984555 -0.430361 20.5326
0.474916 -0.285838 20.9728
0.194326 -0.198464 21.1231
-0.323903 0.0187128 21.1842
-0.603939 0.147497 20.8633
-0.623842 0.102838 20.6552
0.863735 -0.221328 19.9204
1.15723 -0.332699 20.5195
0.566891 -0.272303 20.9957
0.321757 -0.212796 21.1222
-0.358441 -0.0460836 21.22
-0.675359 0.0218266 20.9168
-0.676526 0.064045 20.4705
0.970447 0.072773 19.887
1.28391 0.0353106 20.5431
0.746551 -0.108185 20.9759
0.414844 -0.095921 21.1172
-0.18773 -0.13819 21.2467
-0.605554 -0.204012 20.9773
-0.716019 -0.211091 20.4868
0.691748 0.382453 20.0118
0.867431 0.425349 20.4301
0.69019 0.276536 20.8377
0.341555 0.11405 21.045
-0.0375391 -0.111029 21.0681
-0.260198 -0.282003 20.9203
-0.363208 -0.30664 20.7839
-1.77275 -0.0990612 3.72491
4.181e-05 0.00214894 0.0649766
-0.180977 0.171834 2.4645
0.0303874 -0.0892279 0.200525
0.000148056 -0.00421111 -0.010086
-0.013589 0.0157555 0.288925
1.71874e-05 0.108666 0.378061
-0.0747462 -0.16114 1.10197
0.00053224 0.00227577 -0.0023381
0.00841169 0.0415707 0.206495
1.81019 -0.102728 3.78779
0.182445 0.171033 2.4539
-0.032107 -0.0872943 0.201807
0.0155345 0.0168173 0.284837
0.0818019 -0.173848 1.1945
-0.00804907 0.0416579 0.206859
-0.0633157 0.187918 8.18115
-0.000447538 0.00184839 -0.000226406
-6.39568e-06 -1.58635e-05 0.0358286
0 0 0
-6.54199e-05 0.00110806 0.0319533
0.0412628 0.567768 4.90194
4.03956e-05 0.0019835 0.00687596
-1.08379e-07 -0.0009108 0.00496286
0.0701057 0.183481 8.12959
0.000376879 0.00190726 -6.35102e-05
0 0 0
0.0496407 0.589115 5.10865
-0.000141118 -0.00110702 0.0336747
-1.84342e-05 0.000651832 0.00174064
-1.8521e-05 0.000118062 0.00213251
-1.33016e-07 8.20123e-05 0.00490302
-2.61458e-06 2.34395e-05 0.00476812
-6.29746e-07 -1.54019e-06 -0.000122949
-0.000149365 -0.0129818 0.0490134
0 0 0
-2.3782e-06 0.00622451 0.016563
-8.12382e-06 0.000241736 0.00442142
0 0 0
0.000134671 -0.00104786 0.0335232
1.85803e-05 0.000632145 0.00169129
1.7744e-05 0.000115864 0.00211044
-2.35038 -0.979484 20.7146
-2.76596 -4.6941 22.0595
-3.30737 -2.45071 18.2031
0.747771 0.100384 20.7955
-0.134987 1.04262 10.7237
0.114229 0.887759 6.56549
-2.72818 0.245924 20.7524
-4.98644 1.90593 17.2722
-2.76144 2.61954 20.4537
0.453181 -0.280259 21.3616
-0.110236 -0.338529 4.50033
0.547074 -0.207226 19.1965
2.74979 -4.76109 22.0799
3.32068 -2.48151 18.1547
2.36088 -1.008 20.7134
0.110373 1.07315 10.9612
-0.178155 0.905726 6.97829
-0.748907 0.0925609 20.8001
5.01187 1.93448 17.2309
2.76899 2.52792 20.4671
2.71428 0.250683 20.7495
0.0270507 -0.345834 4.92237
-0.559428 -0.202687 19.1362
-0.454926 -0.281167 21.3561
-0.459562 -0.531761 21.397
-0.221663 0.713656 13.9501
-0.678313 -0.579978 20.597
1.57723 -2.08474 6.99193
-1.09756 -0.403921 21.2685
-2.67868 0.938691 21.3344
-0.786847 -0.107236 21.2341
-0.621689 0.643795 20.4717
0.255372 0.726348 13.6428
0.45633 -0.5279 21.3395
-1.63376 -2.11018 6.94665
0.690944 -0.577914 20.5542
2.62662 0.893834 21.3775
1.09154 -0.403005 21.2584
0.62611 0.647042 20.4672
0.789824 -0.104869 21.2215
-0.94368 -0.373856 20.1931
-0.800076 -0.251968 19.9538
-0.998558 -0.567422 19.6852
-0.749511 -0.37173 20.8624
-1.08143 -0.389685 20.5318
-1.57086 -1.1072 20.6835
-0.311518 -0.235205 20.9946
-0.523908 -0.284656 20.975
-0.368956 -0.421843 21.2113
0.0272163 -0.109687 21.1703
-0.262652 -0.211878 21.1172
-0.25419 -0.530676 21.1628
0.508639 0.105751 21.065
0.329609 -0.00974642 21.2095
0.617521 0.239852 21.2318
0.62183 0.152904 20.7223
0.643026 0.108195 20.8718
0.985032 0.517821 20.7353
0.672355 0.0934695 20.5575
0.9423 0.494562 20.4491
-1.0893 -0.299362 20.153
-0.969963 -0.089318 19.8856
-1.25591 -0.453034 19.5026
-0.89774 -0.306666 20.8949
-1.30889 -0.159035 20.5266
-0.395649 -0.241591 21.0095
-0.668467 -0.208931 21.0137
-0.0283976 -0.139308 21.2364
-0.392479 -0.154426 21.1168
0.55502 0.0176673 21.0964
0.283535 -0.0909548 21.2542
0.792324 0.0543059 20.8525
0.68622 -0.100467 20.9499
1.25549 0.27408 20.4364
0.76883 -0.0780032 20.5512
1.16719 0.203028 20.4924
-1.22055 0.0783238 20.1342
-0.892796 0.272599 19.925
-1.53427 0.158515 19.3426
-1.02335 -0.0515129 20.8588
-1.15591 0.320138 20.4562
-0.556929 -0.118833 21.0215
-0.807356 0.122401 20.9158
-0.165752 -0.0995815 21.2277
-0.417407 0.0331502 21.1055
0.438358 -0.172925 21.136
0.0780851 -0.140943 21.1748
0.673692 -0.250912 20.8282
0.406951 -0.290682 20.9601
1.08477 -0.429221 20.8511
0.582495 -0.356858 20.6595
1.30774 -0.388242 19.8047
-0.837879 0.44497 20.1765
-0.883071 0.676597 19.757
-0.83106 0.373969 20.6621
-1.22679 0.91342 20.3789
-0.530683 0.196609 20.969
-1.01952 0.581047 20.9985
-0.148255 0.0117629 21.0889
-0.460331 0.258749 21.2613
0.168545 -0.20176 21.0112
0.0472211 -0.144822 21.2417
0.31672 -0.317252 20.8202
0.315657 -0.429959 21.0273
0.432693 -0.51539 20.6146
-1.79459 -2.24689 19.4441
-1.38209 -1.12106 18.8813
-0.0228301 -2.35311 18.2872
-0.699451 -0.989451 21.8444
-0.00430482 -2.32547 22.6724
-0.121806 -0.0228333 17.2329
-0.0124136 -0.0421382 17.5545
0.435136 0.249521 15.4498
-0.00610031 0.184947 13.0138
0.491831 1.1383 16.6187
0.0113633 0.638353 14.0469
0.93744 1.42938 16.9794
0.741641 1.37356 13.6082
0.0108101 1.06226 15.3208
1.21738 1.37506 14.917
-0.000244473 1.28063 15.385
-2.1052 -0.454104 18.0972
-0.0448226 -2.67326 16.2569
1.2731 1.26956 11.2487
1.0258 0.395069 5.64014
0.0287762 -0.104479 1.30771
1.70379 0.476844 9.35248
-0.0110853 0.787121 4.8444
-1.55042 1.20426 18.782
-0.0249355 2.22691 13.9924
1.38037 -0.527625 9.82985
0.825564 -0.745251 19.2379
-0.0230417 0.109145 -3.16204
0.82678 -1.01816 19.335
-0.0360565 -0.721048 -0.0121476
-1.21167 1.58711 19.7608
0.0212365 1.90466 18.9294
-1.44439 1.53422 20.7569
0.0465007 2.91359 20.041
-0.968609 0.925595 21.5423
0.0275993 3.01516 21.3812
-0.100416 0.125548 21.5647
-0.000548546 0.623415 22.1852
0.170736 -0.452744 21.3057
-0.000374991 -0.360921 21.3031
0.32898 -0.774185 21.0102
-0.000253187 -0.736487 21.0195
-0.00226641 -1.04438 20.4366
1.79148 -2.29786 19.4334
1.38198 -1.14601 18.8581
1.00951 -0.579951 19.6681
0.702015 -1.01185 21.9228
1.58806 -1.13599 20.6882
0.129111 -0.0268644 17.0005
0.368871 -0.426864 21.2205
-0.413517 0.267386 15.5647
0.264863 -0.538539 21.1621
-0.524743 1.13537 16.8868
-0.609188 0.220106 21.2635
-0.952385 1.32892 17.4344
-0.856392 1.38248 14.302
-0.966268 0.471589 20.8003
-1.22921 1.25386 15.435
-0.914464 0.454073 20.5088
2.12157 -0.460968 18.0476
1.26493 -0.464608 19.4792
-1.33621 1.23809 11.8677
-1.07832 0.389597 6.32491
-1.21894 0.231048 20.7316
-1.73347 0.453679 10.4304
-1.10215 0.164382 20.8183
1.55037 1.19588 18.7943
1.54397 0.162548 19.3291
-1.43184 -0.514096 10.5963
-0.822464 -0.743605 19.3156
-1.05842 -0.423288 20.8851
-0.818852 -1.00059 19.445
-1.25581 -0.384096 19.9201
1.22397 1.51086 19.7851
0.875797 0.651063 19.7746
1.44417 1.46518 20.7632
1.20395 0.862709 20.3843
0.965767 0.909719 21.5293
0.998568 0.555207 20.9898
0.0990998 0.125171 21.5661
0.460297 0.259401 21.2604
-0.169688 -0.45433 21.3074
-0.0480578 -0.147172 21.2469
-0.330441 -0.771604 21.0086
-0.315479 -0.435272 21.0254
-0.430566 -0.511497 20.6124
0.947319 -0.380974 20.2016
0.809148 -0.258067 19.9427
0.759044 -0.379275 20.8696
1.08065 -0.389746 20.5361
0.314856 -0.237475 20.994
0.52558 -0.289424 20.9698
-0.0249545 -0.110889 21.1688
0.257382 -0.2142 21.126
-0.501182 0.0949772 21.058
-0.328687 -0.0171638 21.2049
-0.605445 0.136879 20.7225
-0.637131 0.099136 20.8756
-0.640764 0.102579 20.4809
1.09838 -0.296829 20.1647
0.979257 -0.090142 19.8706
0.90131 -0.310202 20.8985
1.31258 -0.160827 20.5226
0.401129 -0.243969 21.01
0.669989 -0.209446 21.0133
0.0293521 -0.14124 21.2392
0.390765 -0.157785 21.1235
-0.545905 0.011343 21.1032
-0.285462 -0.0927886 21.2607
-0.769944 0.0457349 20.8346
-0.673851 -0.105454 20.9582
-0.747494 -0.0709699 20.4832
1.22875 0.0775457 20.1384
0.880726 0.26658 19.9368
1.02554 -0.0513797 20.8628
1.13232 0.313171 20.4654
0.556289 -0.119744 21.0266
0.798198 0.122915 20.9143
0.16746 -0.100031 21.2331
0.417447 0.0303383 21.1067
-0.433639 -0.172719 21.1146
-0.081269 -0.137575 21.166
-0.662962 -0.241059 20.8229
-0.404621 -0.292172 20.9505
-0.579474 -0.348 20.6731
0.818039 0.427558 20.1849
0.810433 0.358469 20.6602
0.526104 0.195207 20.9666
0.147986 0.0112934 21.09
-0.174435 -0.203772 21.01
-0.321699 -0.310642 20.8251
-1.03667 -0.343973 20.1666
-2.45926 -2.49008 18.9008
-1.43121 -0.913885 19.9542
-1.96137 -0.773638 19.7532
-1.12528 -0.520644 19.6054
-1.93174 -1.09864 20.6904
-0.831535 -0.349738 20.8832
-0.671807 -0.135611 16.4303
-0.900717 -0.744578 21.2773
-1.22081 -0.723473 21.4752
-0.385735 -0.472024 21.2925
-0.354797 -0.246665 20.9916
0.0513202 0.123495 12.1889
-0.206388 -0.384278 21.0733
-0.325199 -0.492471 21.149
-0.463921 -0.617384 20.9558
-0.002954 -0.13217 21.1949
-0.0283632 0.311631 8.84436
0.155435 -0.215808 21.4088
-0.0862813 -0.355186 20.9848
0.685635 0.172542 21.1047
0.529572 0.064418 21.0797
0.343126 1.20486 12.1605
0.836858 0.402035 21.0268
1.02093 0.191618 20.7862
1.13253 0.403403 20.6586
0.679016 0.10529 20.751
1.09805 1.35331 14.3873
1.02214 0.52446 20.5629
1.24557 0.398232 20.1575
1.00679 0.368212 20.6744
-1.25196 -0.116681 20.1238
-5.02612 -0.905342 16.9651
-2.42593 0.303744 19.6462
-1.43139 -0.184133 19.3774
-2.8062 -0.39093 20.7455
-1.0031 -0.202752 20.9059
-1.66149 -0.212233 21.3595
-0.696515 -0.587146 21.4345
-0.489242 -0.194426 21.0208
-0.851596 -0.350212 21.2249
-0.841748 -0.311472 20.8084
-0.10854 -0.116271 21.248
-0.464789 -0.0349128 21.4618
0.693265 -0.105307 20.9882
0.522772 -0.0952998 21.1405
-0.0858839 0.0288365 2.68893
0.817417 -0.373497 20.9735
1.2945 0.00495684 20.3659
0.777411 -0.0997897 20.7922
1.60359 0.442403 7.843
1.2283 -0.404307 19.7768
1.52085 -0.17575 19.4679
-1.07799 0.318808 20.1384
-2.36416 2.24353 19.1428
-1.1319 0.874738 20.0262
-1.2358 0.578016 19.5495
-1.91871 0.869573 20.4752
-1.01738 0.214445 20.7521
-2.77479 1.50754 21.1708
-1.18067 0.746428 20.754
-1.32455 0.190318 21.1459
-0.621008 0.0695881 21.0121
-1.80018 0.636312 21.2485
-0.760565 0.420123 21.1772
-0.651044 0.163032 21.3372
-0.180745 -0.027283 21.1751
0.198792 0.506386 19.7552
-0.188439 0.0767835 21.2983
0.160374 -0.247445 21.4554
0.276333 -0.22914 21.0816
0.631492 -0.485047 18.9034
0.200194 -0.302764 21.1492
0.568987 -0.568634 21.1282
0.485994 -0.327127 20.8386
0.903178 -0.949418 19.2877
0.404536 -0.492287 20.8344
0.645881 -0.656366 21.1276
2.47193 -2.53624 18.8654
-0.0192707 -4.35385 20.1304
0.0433698 -5.70838 15.3139
-0.0289508 -2.62677 17.4385
0.00258702 -1.29429 17.6235
0.682704 -0.119105 16.2501
-0.00209621 -0.465521 20.3103
-0.00660187 0.0515643 9.40001
-0.0462062 0.112028 11.9908
-0.00464123 0.035542 14.901
-0.00839984 0.155542 5.80059
0.0571054 0.331635 8.89387
0.00638846 0.311152 13.3968
0.0177154 0.519376 5.99359
-0.434891 1.22604 12.7752
0.0119071 0.591922 14.4299
0.0327362 -0.766729 0.34708
0.0321353 0.588145 9.03776
-1.16273 1.32262 15.0241
-0.00205005 1.25306 14.961
0.0135975 0.35634 2.94829
-0.0108155 1.1727 10.8376
5.08024 -0.909741 16.8751
-0.0231096 5.90919 8.16073
-0.0445701 -1.03149 13.5229
0.0030414 0.0265093 3.0729
0.0184501 1.22235 -2.20494
-0.038614 -0.62609 -4.9034
-1.65104 0.416176 8.68125
-0.0406917 -0.246881 -1.94833
-0.0191606 -0.124423 -1.87726
2.35924 2.17849 19.1754
0.0388563 2.66032 19.4162
0.0148774 2.6441 17.47
0.0334513 4.63931 20.1625
2.72302 1.44147 21.1643
0.0437688 3.03258 20.4858
0.0266787 4.41571 18.4475
1.79672 0.624317 21.3124
0.00927781 1.94808 22.3136
-0.000543165 -0.318294 9.72385
-0.204289 0.507666 19.7103
-0.000799932 -0.0533664 21.6788
0.00290546 -0.47765 8.34993
-0.630557 -0.484551 18.9192
-7.32169e-05 -0.494426 21.3474
0.00226563 -0.624322 10.3578
-0.902362 -0.940496 19.3485
-0.000598801 -0.955069 20.9759
-0.0156427 -1.27744 13.3971
1.03783 -0.346173 20.1818
1.44628 -0.945317 19.9503
1.98337 -0.792344 19.7427
1.1353 -0.533617 19.581
1.95283 -1.11966 20.6916
0.837915 -0.356322 20.8903
0.907299 -0.763957 21.2919
1.23288 -0.738072 21.477
0.383936 -0.474709 21.2797
0.359015 -0.251738 20.9899
0.207796 -0.388052 21.0737
0.321757 -0.484253 21.0697
0.477903 -0.621138 20.9109
0.00521958 -0.134189 21.1931
-0.150998 -0.21654 21.4242
0.084832 -0.3598 20.986
-0.68213 0.160379 21.1174
-0.519147 0.057724 21.0748
-0.816173 0.371154 21.0783
-1.00882 0.175567 20.846
-1.11534 0.360454 20.7136
-0.653968 0.094978 20.7372
-0.9894 0.462852 20.6808
-1.20884 0.361781 20.5101
-0.980895 0.329728 20.7155
1.26869 -0.119098 20.1152
2.43426 0.307767 19.6393
1.45487 -0.188728 19.3524
2.79309 -0.388255 20.7435
1.00588 -0.204169 20.9081
1.66087 -0.208522 21.3586
0.689851 -0.58708 21.392
0.490447 -0.195725 21.0261
0.849079 -0.351032 21.2105
0.840566 -0.300015 20.7602
0.108766 -0.117548 21.2543
0.464202 -0.0351374 21.4657
-0.69304 -0.106214 20.9827
-0.515962 -0.0980795 21.1307
-0.814646 -0.373822 20.9873
-1.25723 -0.021537 20.511
-0.766582 -0.107182 20.7816
-1.17823 -0.408128 19.9951
-1.46638 -0.17322 19.5965
1.05759 0.311842 20.1467
1.11508 0.836995 20.0407
1.22167 0.56627 19.567
1.88727 0.837969 20.475
0.99968 0.212715 20.7512
1.1531 0.717679 20.7466
1.30443 0.188002 21.1387
0.614619 0.0683333 21.0161
0.753844 0.41041 21.1678
0.652639 0.164557 21.3378
0.176834 -0.0284739 21.1835
0.188291 0.0778531 21.2984
-0.162819 -0.247189 21.4555
-0.281089 -0.231429 21.0734
-0.203046 -0.305824 21.1485
-0.562876 -0.5599 21.1228
-0.492532 -0.311993 20.8486
-0.402393 -0.492019 20.8283
-0.647919 -0.647209 21.1103
-1.67565 -0.875023 19.8639
-1.05385 -0.754677 21.3815
-0.247157 -0.445131 21.1031
0.0676006 -0.306989 21.2226
0.951158 0.321384 20.9427
1.12975 0.478021 20.5667
-2.41164 -0.304937 19.5861
-1.47651 -0.499937 21.5221
-0.532286 -0.520224 21.1698
-0.363279 -0.233182 21.4338
1.02074 -0.0939588 20.6451
1.37058 -0.0751812 19.7262
-1.7258 0.861917 19.8614
-1.65166 0.461224 20.9962
-0.998722 0.124778 21.2605
-0.283567 0.07783 21.4955
0.401511 -0.437094 21.2891
0.677855 -0.625183 20.9568
-0.0313007 -6.62575 20.9009
-0.00376415 -0.0231523 11.8934
-0.00273183 0.0498473 7.46025
0.0120365 0.141786 6.60611
0.0362071 0.0396725 7.37929
0.0122336 0.915694 9.15747
0 0 0
0.00177097 -0.408005 -3.82195
-0.0512636 -0.173423 -3.43962
0.0329625 4.81083 18.4345
0.0377131 4.29829 19.3049
0.000579497 1.09441 12.519
0.0014711 -0.499247 8.00198
0.00199756 -0.200263 8.8881
0.000254441 -1.09556 11.5884
1.70269 -0.900598 19.8529
1.06439 -0.772127 21.396
0.249821 -0.442752 21.0668
-0.0679939 -0.308139 21.2406
-0.937144 0.295138 20.9687
-1.09766 0.418558 20.6729
2.43488 -0.309787 19.5714
1.47673 -0.499768 21.5208
0.526496 -0.513224 21.1085
0.361842 -0.23137 21.4186
-1.0063 -0.102055 20.674
-1.31596 -0.076536 19.9742
1.70422 0.835619 19.8749
1.62899 0.452609 20.9876
0.991625 0.122821 21.2546
0.284124 0.0794187 21.4993
-0.401193 -0.436321 21.2828
-0.673713 -0.617423 20.9459
-2.26192 -0.651232 4.02452
-0.0528329 0.00601689 0.171207
-0.244922 0.281078 4.59247
0.103625 -0.00814376 0.217405
0 0 0
-0.0429443 0.0208204 0.319115
-1.03317 0.0881022 1.75127
-0.0336355 0.308114 0.888268
-0.445505 -0.146271 2.14306
0.00574656 -0.0275768 0.0604683
-0.01263 0.00136041 -0.00347903
0.0629531 -0.00717012 0.660796
0.0516736 0.0056907 0.168062
2.37633 -0.689002 4.23707
0.252318 0.276914 4.57855
0 0 0
-0.103289 -0.00489855 0.218198
0.0448678 0.0204634 0.326726
0.0336837 0.310037 0.892744
1.03447 0.0883158 1.75598
0.445819 -0.146443 2.14312
0.0123908 0.00133528 -0.00339857
-0.00563615 -0.0278268 0.0607858
-0.0634873 -0.00706374 0.671268
-0.00669247 0.0566203 0.153053
0.216149 0.590537 7.67901
-0.000162529 0.000748566 5.9371e-05
0 0 0
-0.000884085 0.0386795 0.193044
0.0798697 -0.186324 5.2616
0.000164872 0.00151211 -8.46599e-05
0 0 0
0.0225726 -0.0627705 0.172237
0.000373876 0.000520728 0.00245476
-0.0781341 0.041581 7.41587
-0.0758136 0.0941208 0.373529
0.0199074 0.0912164 0.0934915
0 0 0
0.247242 0.801054 3.73535
0.070327 -0.0196188 0.190561
0.00663217 0.0564563 0.152744
0 0 0
-0.210209 0.582406 7.65754
0.000142692 0.000718899 8.74897e-05
0.0117554 0.0345045 0.135842
0 0 0
-0.0799832 -0.187452 5.22257
-6.66049e-05 0.000593633 -4.25365e-05
-0.0229872 -0.0625867 0.173003
0.0755788 0.093762 0.37215
-0.000381097 0.000538935 0.00252307
0.0803523 0.0654018 7.5427
-0.0197053 0.0906233 0.0932378
-0.0701669 -0.019568 0.190239
0 0 0
-0.243095 0.803696 3.78151
-0.000286801 -0.00121062 0.01546
-0.17341 -0.0467099 0.138431
1.41253e-06 0.000183364 0.00782999
-4.24881e-05 -0.000391552 0.000116941
-0.00017989 0.000214546 0.00773901
0 0 0
0.000172711 0.000899926 0.0090751
0 0 0
-4.12124e-07 -1.66009e-06 -0.000120007
0.000233515 -0.0741799 -0.0185119
-5.37915e-05 0.000529317 0.00888002
0 0 0
0.000202753 0.475608 0.55636
0 0 0
-2.90453e-06 -0.000180992 0.00369688
0 0 0
6.24231e-20 2.16585e-17 -1.21829e-17
7.08196e-06 0.000156984 0.00592527
-5.09602e-05 0.00025857 0.00292357
0 0 0
0.142638 -0.0384305 0.113647
0.000294848 -0.00122087 0.0156996
0 0 0
0.000169057 0.000189924 0.00740316
0 0 0
-0.00017423 0.000904843 0.0091598
0 0 0
5.09637e-05 0.000504213 0.00868891
0 0 0
2.79532e-06 -0.000179234 0.00373144
0 0 0
5.16279e-05 0.000262475 0.00298088
-0.0017089 0.0126257 0.0315176
0 0 0
0.0175841 -0.012048 0.0546777
0.00116111 0.00833341 0.0345579
0 0 0
-2.85533e-06 7.7073e-05 0.00862175
0 0 0
-0.0076358 0.00122423 0.0764242
-6.50652e-08 5.59785e-07 0.000108177
0 0 0
-7.40157e-05 0.00044924 0.00122822
0.0162282 0.0171075 0.296526
0.000269273 0.0352055 0.0956099
2.16869e-05 0.0329358 0.195433
-8.18539e-06 -0.000799779 0.0127068
8.15893e-06 -0.00061273 0.00402876
0 0 0
0.00170725 0.0124878 0.0310068
-0.0427463 -0.0287197 0.132137
-0.00112134 0.00868551 0.0348674
0 0 0
0.00807724 0.00146718 0.0815722
-0.0161659 0.0169858 0.292456
6.15973e-05 0.000423525 0.00125589
0 0 0
-2.46693e-05 -4.7877e-05 0.000995585
0.0622241 -0.00654482 0.215128
0 0 0
1.43925e-05 0.00358084 0.012707
0 0 0