# vtk DataFile Version 2.0
tri_press
ASCII
DATASET UNSTRUCTURED_GRID
POINTS 3682 float
-0.838343 0.575 -2.445
-0.786177 0.535 2.445
-0.805 0.815 -2.46277
-0.815 0.884107 2.425
0.835 0.575 -2.44802
0.786228 0.535 2.445
0.805 0.815 -2.46279
0.815 0.88473 2.425
-0.836594 0.546027 -0.815
-0.863611 0.488288 0.815
-0.837198 0.8669 -0.833514
-0.872646 0.922051 0.795743
0.83602 0.544389 -0.817014
0.864448 0.486371 0.813993
0.837263 0.867173 -0.833527
0.872598 0.922418 0.795737
-1.68256 0.404089 -3.73949
-1.67859 0.410757 -2.43565
-1.68503 0.37428 -0.805563
-1.69935 0.317604 0.82465
-1.66039 0.326875 2.45475
-1.64457 0.339394 3.75865
-1.64488 0.344705 5.06247
-1.67791 0.552711 -3.74814
-1.67334 0.568544 -2.44448
-1.68468 0.551406 -0.814669
-1.70384 0.505721 0.815142
-1.64181 0.515049 2.44498
-1.63067 0.5267 3.74892
-1.63695 0.531239 5.05282
-1.66329 0.828866 -3.76561
-1.65252 0.841283 -2.46234
-1.6822 0.882106 -0.833121
-1.71105 0.909774 0.796026
-1.65925 0.887178 2.42533
-1.63953 0.895305 3.72936
-1.63942 0.902343 5.03346
-1.6601 1.30692 -3.79231
-1.65833 1.33163 -2.48896
-1.67268 1.392 -0.860099
-1.69137 1.44923 0.768595
-1.68859 1.46462 2.3976
-1.6748 1.46362 3.70124
-1.66315 1.46352 5.00516
-0.847965 0.408226 -3.74025
-0.840584 0.417317 -2.43645
-0.838699 0.37211 -0.806111
-0.858078 0.30596 0.824435
-0.829479 0.334573 2.45477
-0.814416 0.345104 3.75861
-0.813493 0.347162 5.06235
-0.846886 0.553138 -3.74872
-0.797727 0.533648 3.74887
-0.805199 0.533988 5.05269
-0.834063 0.817548 -3.76587
-0.804894 0.89653 3.72917
-0.805979 0.903608 5.03327
-0.824492 1.29686 -3.79254
-0.819423 1.32096 -2.48914
-0.828411 1.38744 -0.86028
-0.846984 1.45292 0.768358
-0.84989 1.46813 2.39732
-0.837845 1.46538 3.70096
-0.826419 1.4646 5.00488
0.821447 0.407976 -3.74221
0.833806 0.416926 -2.43887
0.842619 0.370792 -0.807925
0.845552 0.304466 0.823431
0.797398 0.334075 2.45443
0.819368 0.34479 3.75829
0.837147 0.346835 5.06194
0.815944 0.553009 -3.7506
0.824757 0.533533 3.74865
0.842112 0.533758 5.05234
0.810452 0.81749 -3.76681
0.834916 0.896679 3.729
0.847387 0.90351 5.03296
0.83927 1.29674 -3.79326
0.847765 1.32088 -2.4897
0.855318 1.38739 -0.860729
0.848703 1.45289 0.767988
0.83473 1.46812 2.39699
0.837538 1.46532 3.70061
0.845986 1.46446 5.00448
1.65833 0.4035 -3.74297
1.67026 0.409888 -2.43952
1.68457 0.372309 -0.808635
1.69192 0.315352 0.822778
1.64669 0.325676 2.45379
1.65086 0.338618 3.75784
1.66705 0.343986 5.06158
1.65283 0.55233 -3.75145
1.66675 0.568085 -2.4483
1.68252 0.549649 -0.817589
1.70426 0.503581 0.813458
1.64652 0.514212 2.44426
1.65258 0.526211 3.74828
1.67026 0.530685 5.05203
1.64596 0.828668 -3.76771
1.65142 0.841226 -2.46402
1.6829 0.881807 -0.834413
1.71273 0.909341 0.795203
1.66586 0.887174 2.42484
1.66499 0.895242 3.72883
1.67739 0.902027 5.03275
1.673 1.30664 -3.79384
1.68226 1.3314 -2.49023
1.69545 1.39179 -0.861137
1.69558 1.44905 0.767739
1.68129 1.46447 2.39685
1.67898 1.46341 3.70047
1.68423 1.46318 5.00431
-0.831419 0.695 -2.46363
-0.00167152 0.552185 -2.46932
-0.855177 0.542805 -1.63
-0.79552 0.709554 2.42993
2.55108e-05 0.571806 2.40819
-0.834602 0.501936 1.63
0 0.819608 -2.46739
-0.840487 0.860338 -1.64814
0 0.899901 2.44048
-0.867679 0.926935 1.61037
0.834504 0.695 -2.46991
0.85526 0.539945 -1.63252
0.795743 0.709865 2.43013
0.833097 0.502926 1.6295
0.840499 0.860454 -1.64816
0.867828 0.927603 1.61037
-0.825776 0.541484 0
-0.857147 0.706464 -0.824257
-0.000286768 0.299887 -0.816007
-0.892149 0.70517 0.805372
0.000418705 0.339081 0.814497
-0.834985 0.874538 -0.018885
3.28087e-05 1.10789 -0.83352
-2.42186e-05 1.35361 0.79574
0.825416 0.540198 -0.00151002
0.857517 0.705781 -0.82527
0.892564 0.704394 0.804865
0.835139 0.875004 -0.018895
-0.862739 0.700732 -1.63907
0.862728 0.700391 -1.64034
-0.000979145 0.325228 -1.63126
1.64043e-05 0.967802 -1.64815
-0.000835761 0.695 -2.48511
-0.848555 0.705817 -0.00944251
0.848911 0.705088 -0.0102025
6.59688e-05 0.31003 -0.000755012
4.29503e-06 1.36895 -0.01889
-0.883393 0.707362 1.62019
0.88429 0.70713 1.61993
0.000222108 0.393827 1.62975
-1.21093e-05 0.996304 1.61037
1.27554e-05 0.709709 2.44915
-0.836653 0.635 -2.45609
-0.420007 0.54163 -2.47913
-0.852691 0.552971 -2.0375
-0.828241 0.622277 2.47486
-0.393076 0.530139 2.44986
-0.814223 0.514635 2.0375
-0.823926 0.755 -2.46892
-0.4025 0.824281 -2.47206
-0.840478 0.855404 -2.05546
-0.769329 0.79683 2.39153
-0.4075 0.895864 2.4366
-0.859451 0.923633 2.01769
0.416664 0.542268 -2.48
0.841212 0.635 -2.46542
0.855448 0.547154 -2.04027
0.393127 0.529813 2.45019
0.828252 0.622433 2.47483
0.811806 0.51682 2.03725
0.4025 0.824485 -2.47227
0.823051 0.755 -2.46965
0.839875 0.854853 -2.05547
0.4075 0.896026 2.43645
0.769291 0.797297 2.39148
0.859289 0.924042 2.01768
-0.845974 0.544327 -1.2225
-0.831383 0.543557 -0.4075
-0.851402 0.62398 -0.819628
-0.479537 0.300763 -0.815503
-0.856131 0.488088 1.2225
-0.83166 0.52792 0.4075
-0.885065 0.593136 0.810186
-0.466681 0.343514 0.814748
-0.839136 0.863912 -1.24083
-0.852626 0.789409 -0.828885
-0.836518 0.871146 -0.426199
-0.46243 1.07509 -0.833517
-0.871932 0.926262 1.20306
-0.881078 0.81295 0.800558
-0.842872 0.887351 0.388429
-0.519877 1.30491 0.795742
0.845601 0.542206 -1.22477
0.478558 0.300756 -0.81651
0.83097 0.542042 -0.409262
0.850959 0.62299 -0.821142
0.85569 0.487731 1.22175
0.465841 0.345911 0.814245
0.831396 0.52682 0.406242
0.884919 0.592176 0.809429
0.838955 0.863887 -1.24084
0.463317 1.07687 -0.833524
0.85266 0.789112 -0.829399
0.836262 0.871149 -0.426211
0.872129 0.926926 1.20305
0.519621 1.30468 0.795738
0.882314 0.813272 0.800301
0.842897 0.88774 0.388421
-0.870698 0.697866 -2.05135
-0.416127 0.695 -2.40702
-0.00132533 0.355222 -2.05029
-0.00125364 0.623593 -2.47741
-0.85933 0.621769 -1.63454
-0.428078 0.325757 -1.63063
-0.872111 0.708458 2.02506
-0.397754 0.709631 2.43183
0.000123809 0.414195 2.01897
1.91331e-05 0.640758 2.47836
-0.867488 0.604649 1.62509
-0.41719 0.394639 1.62987
8.20217e-06 0.953892 -2.05777
-0.000417881 0.757304 -2.48605
-0.859803 0.780535 -1.64361
-0.420235 0.946776 -1.64815
-6.05466e-06 0.972285 2.02543
6.3777e-06 0.804805 2.43519
-0.883355 0.817148 1.61528
-0.433846 0.999359 1.61037
0.870512 0.697695 -2.05512
0.416834 0.695 -2.40714
0.859352 0.620168 -1.63643
0.42714 0.325693 -1.63189
0.872469 0.708497 2.02503
0.397878 0.709787 2.43217
0.867763 0.605028 1.62471
0.41666 0.396242 1.62962
0.85962 0.780423 -1.64425
0.420258 0.946888 -1.64815
0.880053 0.817366 1.61515
0.433908 0.999656 1.61037
-0.840052 0.622207 -0.00472125
-0.470051 0.311366 -0.000377506
-0.860962 0.703598 -1.23166
-0.853416 0.70614 -0.41685
-0.000632957 0.293283 -1.22363
-0.000110399 0.307365 -0.408381
-0.848819 0.705493 0.397965
-0.894661 0.706266 1.21278
0.000242337 0.324763 0.406871
0.000320407 0.367654 1.22212
-0.845708 0.792146 -0.0141638
-0.525993 1.33875 -0.0188875
2.46065e-05 0.975296 -1.24084
1.85519e-05 1.35594 -0.426205
-9.9618e-06 1.37433 0.388425
-1.8164e-05 1.16482 1.20306
0.839708 0.621371 -0.00585628
0.46962 0.311357 -0.00113252
0.859663 0.703086 -1.2328
0.852986 0.705435 -0.417736
0.849316 0.704741 0.397331
0.894703 0.705762 1.2124
0.845709 0.791888 -0.0145488
0.526018 1.33887 -0.0188925
-0.868586 0.628384 -2.04443
-0.859643 0.624007 -1.22708
-0.856667 0.783608 -1.23625
-0.864911 0.767767 -2.0534
0.86822 0.627584 -2.0477
0.864685 0.767711 -2.0553
0.856108 0.78345 -1.23682
0.859005 0.622627 -1.22878
-0.424043 0.355505 -2.0439
0.421902 0.355585 -2.04528
0.422503 0.293301 -1.2242
-0.423259 0.293311 -1.22307
-0.411368 0.928089 -2.05661
-0.419409 0.956802 -1.24083
0.419453 0.956813 -1.24084
0.411379 0.928184 -2.05662
-0.418067 0.629296 -2.40026
-0.409314 0.756152 -2.4386
0.409667 0.756152 -2.43852
0.416749 0.629296 -2.4001
-0.845666 0.623124 -0.412175
-0.846058 0.615922 0.402732
-0.850917 0.79631 0.393197
-0.849178 0.790783 -0.421524
0.845271 0.622212 -0.413499
0.849052 0.790434 -0.421974
0.851238 0.796193 0.392876
0.846939 0.614461 0.401787
-0.47425 0.307152 -0.40794
0.473545 0.307143 -0.408821
0.470113 0.323868 0.406556
-0.47015 0.323871 0.407185
-0.549863 1.31822 -0.426202
-0.528241 1.33244 0.388427
0.52815 1.33244 0.388423
0.549969 1.31847 -0.426208
-0.881814 0.600689 1.21764
-0.857305 0.613463 2.03128
-0.874297 0.806989 2.02137
-0.884781 0.815379 1.20792
0.881836 0.600205 1.21707
0.88533 0.815386 1.20773
0.873123 0.807332 2.02136
0.857404 0.61373 2.03114
-0.424393 0.367968 1.22231
0.424547 0.36795 1.22193
0.404893 0.423094 2.02811
-0.405133 0.427365 2.02824
-0.43509 1.11904 1.20306
-0.420673 0.97233 2.02156
0.420704 0.972386 2.02156
0.435097 1.11727 1.20305
-0.395415 0.631517 2.48154
0.395502 0.631595 2.48145
0.402689 0.801051 2.39645
-0.402627 0.800818 2.39693
-0.842879 0.605 -2.45592
-0.629175 0.557755 -2.46262
-0.857154 0.552349 -2.24125
-0.805665 0.578638 2.45839
-0.589626 0.531361 2.44864
-0.804977 0.52004 2.24125
-0.815105 0.785 -2.46649
-0.60375 0.820892 -2.46866
-0.837127 0.84959 -2.25911
-0.805944 0.840469 2.42205
-0.61125 0.862804 2.40362
-0.846961 0.913605 2.22134
0.625832 0.558153 -2.46449
0.840199 0.605 -2.45882
0.852867 0.553434 -2.24414
0.589677 0.53118 2.44882
0.805401 0.578716 2.45808
0.802023 0.522904 2.24112
0.60375 0.821538 -2.46933
0.814636 0.785 -2.46683
0.836974 0.849463 -2.25913
0.61125 0.880935 2.42128
0.795102 0.841014 2.4112
0.846576 0.913817 2.22134
-0.83952 0.546941 -1.01875
-0.834045 0.544736 -0.61125
-0.844272 0.584867 -0.817314
-0.718049 0.303428 -0.815252
-0.860354 0.487705 1.01875
-0.845164 0.510575 0.61125
-0.884855 0.535454 0.812593
-0.684992 0.376209 0.814874
-0.838153 0.865393 -1.03717
-0.84516 0.828279 -0.831199
-0.836841 0.869006 -0.629856
-0.662446 0.99626 -0.833515
-0.873925 0.925792 0.999401
-0.875694 0.866916 0.798151
-0.858 0.904942 0.592086
-0.701329 1.12362 0.795743
0.839167 0.544941 -1.02089
0.71692 0.30331 -0.816762
0.833479 0.543231 -0.613138
0.843823 0.583523 -0.819078
0.860045 0.487075 1.01787
0.685151 0.376127 0.814119
0.844599 0.509918 0.610118
0.884674 0.534278 0.811711
0.837975 0.865396 -1.03718
[...]
POINT_DATA 3682
SCALARS point_scalars float 1
LOOKUP_TABLE default
-29.2116
-34.7937
-0.916933
-35.1706
-40.8434
-34.8949
-7.10898
-34.0961
-32.4359
-33.7151
-35.7308
-41.2958
-32.4238
-33.8465
-35.3816
-41.3899
-19.6263
-117.322
-32.3392
-34.9198
-34.3708
-34.5737
-34.5737
-19.6263
-152.123
-32.3582
-35.0758
-34.5985
-34.5737
-34.5737
32.8848
-150.984
-34.1495
-38.0708
-38.9376
-32.4984
-30.1017
32.8848
-88.6415
-34.3282
-41.8718
-36.8185
-35.2437
-35.2437
76.6455
-121.491
-33.7385
-34.9813
-34.852
-29.3171
-27.3739
76.6455
-27.3739
-27.3739
46.1122
-27.3739
-27.3739
59.3639
-98.4056
-46.5161
-54.5779
-32.1782
-32.659
-27.3739
72.4471
-150.612
-33.6779
-35.1334
-34.5626
-29.3121
-27.3735
72.4471
-27.3735
-27.3735
62.6808
-27.7873
-27.3735
26.6564
-103.024
-46.4401
-54.494
-32.2903
-31.1814
-27.1459
-72.7058
-114.659
-32.3209
-35.0026
-34.1448
-34.6103
-34.6103
72.4471
-144.292
-32.3545
-35.0052
-34.7011
-34.6103
-34.6103
32.6912
-140.377
-34.0693
-38.232
-39.3511
-32.5357
-30.1344
26.6564
-88.9789
-33.96
-41.9292
-37.2827
-34.6087
-34.6087
9.84473
136.171
-36.1716
-31.6263
-26.3055
-33.2397
70.0092
-30.982
-25.057
-35.5851
32.6912
-36.4126
-31.7105
-33.3972
-31.4322
-35.3811
-31.0055
-32.6528
-41.9959
-35.3549
-34.7883
-38.1594
35.4104
-57.8951
-30.9266
-32.6389
-35.5691
-38.3825
-33.1057
-33.123
-54.4505
-20.2173
204.238
-32.9039
-32.8526
-36.1446
-71.4219
-32.9906
-33.0449
-31.0928
-36.0281
-22.9589
56.5725
129.359
-57.8029
-34.3466
-27.5086
-31.5274
33.2619
78.2666
-52.953
-30.8991
-26.5387
-34.0036
126.69
47.2005
-58.0126
-27.4771
-34.4063
-31.6555
77.3217
42.4851
-52.2218
-26.218
-31.2607
-34.142
-32.4446
-33.0983
-32.3706
-40.4207
-34.7967
-26.4782
-32.7103
-34.6482
-23.7599
-34.2231
-43.2208
16.2835
-41.0232
-37.1959
-32.7659
-57.853
-32.3185
-40.4449
-32.9925
-32.3628
-34.7657
-34.6239
-26.4228
-32.7452
-24.1108
16.548
-34.1661
-43.0304
-40.9369
-57.7289
-37.6995
-32.7582
-55.7716
196.656
-86.4066
196.135
-34.1267
-51.6423
-31.9443
-25.0925
-29.7246
-23.0208
-32.7734
-31.452
-56.6521
175.964
-32.4111
-23.0861
-30.5267
-23.4679
-33.5715
-36.4346
-55.1736
195.761
-34.2051
-51.8451
-32.0859
-25.0314
-32.8468
-31.4838
-32.4451
-23.1408
-33.6178
-36.4463
-31.5366
-35.1877
-28.272
-35.9362
-50.9454
-37.2687
-26.9821
-36.0282
-35.2691
-32.8075
-34.8956
-60.0336
4.73466
-113.812
-62.8109
-41.5291
-31.4702
-35.1905
-28.1082
-35.8018
-26.4892
-36.1297
-35.0444
-59.8898
-56.2654
-30.1469
-27.3819
-55.3005
-55.8859
-54.5768
-27.1266
-30.2291
-91.4645
-92.313
-48.4054
-48.3756
-57.0705
-2.06766
-2.05285
-57.1161
197.991
200.047
200.171
196.134
-33.9722
-26.1771
-28.9016
-38.8445
-33.8615
-38.7053
-28.4306
-25.5816
-36.3221
-36.1259
-34.925
-34.8929
-98.7554
-54.6792
-54.8014
-98.3432
-35.2647
-31.3729
-32.5099
-37.1987
-35.2629
-37.2821
-32.7915
-31.5421
-32.5416
-32.6235
-30.3244
-30.2622
-42.5914
-30.9001
-30.9092
-42.5915
-25.0045
-24.9748
-25.5782
-25.6597
-23.0461
139.788
-97.8143
-34.6624
-29.3515
-32.3539
0.780771
72.0989
-80.7754
-33.4957
-27.7612
-35.0063
158.62
-46.5487
-93.9897
-29.2089
-34.7361
-32.177
72.2989
-1.78743
-81.7406
-27.88
-33.1688
-35.2225
-31.485
-33.0844
-32.3192
-36.9315
-36.7988
-28.3995
-31.7937
-34.7603
-27.4213
-35.3112
-41.8227
-23.5105
-43.4593
-38.6702
-35.7117
-51.8228
-31.5263
-36.9952
-33.0074
-32.294
-36.9184
-34.8172
-28.5222
-31.9725
-27.4017
-24.2244
-35.1244
-41.9741
-43.2649
-51.8098
-39.0013
-36.1548
35.7581
48.8324
-90.3952
187.141
130.709
130.295
-116.286
177.69
-46.585
-32.9587
-35.0149
-47.3199
-32.954
-31.8632
-35.1341
-26.4087
-26.243
-26.228
-29.0775
-23.8754
-31.8115
-35.5497
-33.0747
-32.2553
42.5601
42.8604
-100.202
134.991
-39.1396
-25.9122
-32.1146
-26.0273
-25.3216
-25.2962
-27.9024
-24.0405
-33.7915
-38.6312
-33.708
-37.2797
2.61306
60.5039
-88.9411
189.446
-46.8535
-33.1398
-35.1382
-47.5822
-33.0109
-31.7849
-35.188
-26.3772
-31.5401
-35.631
-33.2654
-31.973
-38.8808
-26.1633
-32.2285
-26.3215
-33.7741
-38.6248
-33.5546
-37.2903
-32.3715
-28.1889
-31.2462
-33.4359
-32.4094
-33.3012
-29.6134
-35.1037
-41.5885
-41.6241
-45.817
-39.8935
-33.9605
-36.0218
-28.7755
-37.3293
-34.7042
-34.7087
-35.2448
-33.7157
-41.4233
-35.7356
-35.7896
-47.294
31.9525
32.0643
17.1918
11.4019
-58.8614
-58.7504
-59.849
-47.3735
-32.2807
-28.1583
-31.1753
-33.4283
-32.4248
-33.2497
-29.4062
-35.0923
-34.0417
-36.5699
-28.9472
-37.2842
-41.2809
-35.2676
-36.089
-47.4126
-41.9328
-33.5701
-32.7235
-29.3195
-41.7997
-33.6254
-32.7403
-29.4689
-66.3928
-53.8563
-53.9458
-49.985
-34.6506
-20.9256
-20.9377
-7.76179
199.865
203.545
192.289
199.914
-32.1177
-34.9702
-30.1102
-33.9631
-32.0519
-34.812
-29.7878
-33.9896
-35.9106
-36.1093
-35.2201
-35.9209
-69.2906
-83.8492
-65.1648
-69.1459
-31.6081
-32.8179
-33.2603
-36.1961
-31.6759
-32.8786
-33.2772
-36.1116
-30.4409
-31.2566
-31.2571
-31.9396
-33.5134
-36.1807
-36.1886
-38.3033
-23.765
-22.6469
-23.2929
-23.7178
-90.2884
186.411
-99.9924
200.369
-56.7339
-83.4841
-33.9171
-26.6221
-29.7613
-26.3313
-31.1614
-31.023
-89.6368
193.536
-87.7745
150.366
-55.5487
-57.6866
-35.0607
-26.6688
-28.6655
-25.5871
-32.4956
-32.341
-107.579
192.066
-89.5447
190.772
-56.4556
-83.6214
-30.2445
-26.2596
-33.7981
-26.6117
-31.3173
-31.0397
-86.3246
151.257
-87.9462
196.234
-54.9097
-57.134
-28.6606
-25.3264
-35.61
-26.5966
-32.7659
-32.3568
-31.0569
-43.1656
-33.5238
-34.4927
-30.9058
-33.715
-44.1563
-38.4593
-34.6033
-32.5812
-26.0384
-33.7881
-27.8124
-36.3128
-35.5316
-33.132
-26.0409
-10.583
-29.4953
-37.8316
-40.8041
-60.4877
5.63389
-19.1525
-38.041
-46.6033
-31.9145
-39.1311
-29.8861
-41.6478
-55.7071
-49.4948
-31.1544
-43.1557
-44.1569
-38.5064
-33.4176
-34.3045
-30.8021
-33.6439
-34.5342
-32.5824
-35.5849
-33.1772
-25.4964
-33.8858
-28.2839
-36.3559
-26.1564
-10.6717
5.71305
-22.0009
-29.2679
-37.8393
-40.6652
-60.3852
-38.2242
-46.5786
-55.7219
-49.4826
-32.1565
-39.1085
-29.5123
-41.6553
-56.1325
-55.5884
196.428
197.436
-90.4479
-90.8341
195.727
195.913
-43.3059
-30.6286
-65.3603
-45.2728
-31.6675
-32.3542
-24.9137
-25.4576
-29.8901
-29.8202
-23.3672
-23.3135
-38.3674
-31.1889
-31.8816
-31.3398
-56.916
-57.3883
199.968
199.977
-28.43
-40.8659
-37.6588
-12.2653
-30.5424
-30.5488
-23.9888
-24.0306
-32.3383
-36.1069
-39.1994
-33.5183
-55.5628
-54.8684
197.2
194.955
-43.2984
-30.7678
-65.6985
-45.4981
-32.5685
-31.7859
-24.8502
-25.3766
-38.3988
-31.2161
-31.9579
-30.6734
-40.7134
-28.5978
-12.2338
-37.5609
-36.299
-32.1038
-33.5289
-39.2006
-33.2121
-28.6921
-35.1437
-34.4395
-29.0609
-27.7043
-34.8809
-37.2063
-50.1747
-50.1239
-37.1609
-36.9466
-26.4066
-27.6651
-35.6554
-36.1913
-35.1631
-35.1456
-32.7872
-32.7736
-32.1917
-37.5686
-72.0898
-54.7651
2.98773
3.005
-110.695
-110.634
-61.467
-61.4882
-41.7997
-41.7815
-33.1107
-28.7446
-35.1476
-34.4621
-27.5963
-28.9764
-34.7453
-37.0719
-27.1445
-25.8903
-35.6876
-36.2541
-37.3919
-31.8545
-54.6027
-72.0099
-91.1626
-44.3869
-42.532
-90.4884
-31.2524
-30.1993
-29.9416
-31.5352
-29.0089
-27.653
-28.782
-29.5173
-89.4391
-89.8653
-41.3826
-40.5677
-89.7839
-89.2844
-42.4869
-44.5057
-88.3571
-40.4787
-41.2319
-87.8514
-28.7956
-29.2514
-29.007
-27.819
-31.1953
-31.7191
-30.0257
-30.0814
-102.393
-109.961
-66.5291
-60.2305
-102.247
-60.6906
-66.7625
-111.51
-38.3725
-45.3293
-49.3649
-39.7487
-38.3226
-39.42
-49.1884
-45.3192
-81.6158
-38.3725
-35.3875
-95.3393
-9.47659
14.9841
-8.91549
-17.2876
-10.282
-17.4027
-8.90325
14.9968
-81.7741
-95.7195
-35.3592
-37.9734
178.337
185.478
199.128
190.236
156.136
158.88
199.514
189.572
158.016
191.668
199.618
162.124
185.956
190.312
199.187
188.367
-33.372
-32.7706
-33.9473
-34.2695
-28.1635
-27.8511
-29.3123
-28.2907
-33.0442
-33.5706
-31.127
-30.1207
-39.7859
-36.224
-36.1339
-39.2706
-33.2946
-34.2218
-33.8305
-32.683
-39.8633
-39.0767
-35.9477
-36.2394
-33.803
-30.1326
-30.8167
-33.0885
-28.4131
-28.3252
-29.229
-28.152
-36.0507
-39.3602
-35.8602
-33.4953
-36.0066
-33.5255
-35.8724
-39.594
-36.6557
-35.2777
-35.0405
-32.6536
-36.4224
-32.6686
-35.0253
-35.2582
-65.6603
-53.1819
-82.1274
14.8708
-44.7684
-58.9855
-62.9248
-43.4333
-44.8816
-43.0436
-63.048
-58.9251
-64.497
15.0321
-82.3256
-53.2932
-35.8889
-38.3931
-37.0842
-36.7147
-32.8666
-34.6699
-31.4187
-31.2096
-35.1409
-32.3128
-31.8597
-35.2801
-40.3191
-38.1675
-35.7355
-36.3378
-35.9932
-36.7224
-37.0468
-38.3776
-40.2785
-36.4581
-35.8493
-38.044
-35.7527
-35.5967
-31.8076
-32.107
-32.6504
-31.0788
-31.5055
-34.6746
-33.0525
-33.6062
-31.9537
-31.922
-33.1153
-32.1863
-31.989
-33.6224
-31.3443
-29.3189
-30.4447
-31.398
-30.7415
-31.9447
-30.7549
-29.1724
-50.4651
-40.8342
-38.4253
-47.6027
-30.65
-27.9811
-33.4192
-34.4461
-30.6764
-34.4908
-33.418
-27.9748
-50.4707
-47.6025
-38.4302
-40.8609
-27.75
-24.4795
-23.4182
-26.2149
-27.7824
-26.1767
-23.3557
-24.4291
-27.0097
-24.2546
-23.9201
-26.642
-27.2739
-26.6778
-23.9597
-24.2998
-26.0527
166.248
-142.597
-34.6743
-31.5157
-33.2934
10.3058
59.9894
-88.5787
-34.0259
-29.1685
-34.9909
173.265
-55.8214
-140.477
-31.4907
-34.7657
-32.8319
37.837
4.22841
-89.0127
-29.4169
-34.3025
-35.3663
-32.0029
-32.8703
-32.3257
-33.7416
-36.6018
-28.2459
-32.6538
-35.5352
-31.1167
-35.5371
-39.821
-36.6155
-43.5271
-39.9549
-37.5628
-47.1288
-32.0325
-33.7158
-32.8073
-32.3029
-36.8396
-35.6475
-27.9732
-32.8698
-30.7609
-36.1505
-35.2585
-39.2199
-43.507
-47.1766
-40.163
-37.7575
38.8827
17.0792
-148.404
187.356
135.808
136.92
-59.249
157.364
-40.7179
-34.1002
-35.5882
-43.2646
-32.1493
-31.573
-38.1584
-27.238
-26.1475
-26.157
-29.4989
-25.23
-31.7746
-34.8693
-33.1743
-32.6337
66.092
61.82
-94.5926
107.553
-34.3251
-27.9155
-31.9539
-27.9089
-25.1298
-25.1259
-26.6317
-24.6217
-34.3629
-36.8112
-34.4025
-38.1665
-17.5757
36.8893
-145.992
190.664
-40.9608
-34.3331
-35.7307
-43.4602
-32.1865
-31.5856
-38.3728
-27.2274
-31.7172
-35.4884
-33.3748
-32.3402
-34.7097
-28.3212
-32.1036
-28.7172
-34.1762
-36.6912
-34.2193
-38.1595
-31.7211
-29.9087
-31.1152
-31.2199
-32.4795
-32.9093
-31.2346
-34.0583
-41.8869
-41.9126
-43.6877
-40.679
-34.3822
-35.7302
-33.0224
-37.4783
-34.7659
-34.7702
-35.0467
-34.3933
-40.1571
-37.3173
-36.9269
-43.6161
34.2153
33.7608
24.0655
36.785
-58.226
-58.1237
-58.6308
-52.3638
-31.6648
-29.8177
-31.0375
-31.2042
-32.486
-32.8768
-31.1977
-34.0657
-34.5178
-36.1435
-33.4166
-37.5262
-40.0529
-37.2086
-37.2108
-43.6288
-36.7263
-33.322
-32.8866
-30.7333
-36.7042
-33.358
-32.8924
-30.8968
-59.4622
-54.2513
-54.2735
-51.4742
-27.0368
-20.3851
-20.3818
-13.9697
203.939
203.894
200.349
203.968
-32.4808
-34.1035
-31.8848
-33.4447
-32.4207
-34.0049
-31.7879
-33.4136
-36.0816
-35.9154
-35.6691
-36.0894
-70.8777
-76.2877
-67.7577
-70.8327
-32.0556
-32.8819
-33.015
-34.6032
-32.0999
-32.9368
-33.046
-34.5483
-30.7391
-31.1758
-31.1828
-31.5497
-34.9469
-36.0772
-36.0963
-37.0431
-23.3309
-22.7676
-23.2042
-23.2666
-6.27482
48.402
-140.395
169.251
130.505
121.43
9.57729
181.194
-73.7306
-50.3692
-56.8669
-73.5952
-34.606
-33.7321
-34.5521
-28.2827
-28.2448
-26.9542
-30.9948
-26.8566
-31.5765
-31.1048
-31.4009
-31.2965
17.0146
47.1565
-140.738
193.325
72.8897
42.5191
-101.114
118.469
-68.4045
-46.5899
-54.0287
-54.8797
-30.8152
-30.7953
-39.4906
-27.5044
-26.9095
-25.6957
-27.5998
-26.0185
-35.3389
-33.5066
-33.1835
-33.8138
194.637
124.701
11.1496
174.38
-13.594
33.1204
-143.149
174.637
-71.4588
-51.2039
-56.913
-73.4688
-28.2115
-26.9154
-30.9789
-26.8214
-34.653
-33.7911
-34.6155
-28.2884
-31.5115
-31.3364
-31.5983
-31.1533
73.411
46.7019
-100.251
118.303
20.3492
17.7282
-138.257
187.681
-63.4474
-45.9685
-53.337
-53.9226
-27.1459
-25.6607
-27.5975
-25.601
-33.1918
-30.4447
-40.0669
-27.4647
-35.5095
-33.6853
-33.3896
-33.8592
-31.7316
-33.3858
-31.7686
-37.8569
-33.3016
-32.8892
-33.3006
-32.897
-32.3173
-32.4282
-31.5199
-33.1791
-39.7006
-41.0831
-42.1318
-39.1845
-34.7672
-34.5779
-34.1965
-33.5102
-26.9558
-26.5693
-26.1923
-30.2577
-32.1917
-33.0028
-29.7564
-37.0247
-34.6814
-34.5525
-35.4842
-33.6096
-24.9016
-24.917
-25.2754
-16.6827
-34.7311
-33.789
-31.6887
-36.3523
-42.9632
-42.519
-42.009
-51.3983
-2.20193
27.6048
9.92143
10.9352
-42.1247
-39.5317
-39.2881
-45.3141
-37.9512
-36.5084
-35.2379
-39.1347
-33.0751
-33.1397
-31.1201
-38.1594
-54.8524
-59.0195
-56.0726
-56.0082
-31.6773
-33.6505
-31.7885
-37.4446
-39.7354
-41.1148
-42.1441
-39.2134
-33.2219
-32.785
-33.1945
-32.8338
-32.303
-32.4351
-31.5408
-33.1208
-34.7402
-34.6857
-34.0612
-33.3397
-34.7218
-34.5347
-35.6739
-33.5138
-27.1099
-26.2084
-25.9549
-30.3542
-32.2427
-33.0054
-29.7116
-37.1109
-24.9501
-25.4287
-25.1946
-16.8939
-2.42499
27.5906
9.97105
10.6355
-34.6307
-33.7258
-31.5345
-36.3931
-42.8223
-42.3641
-41.841
-51.272
-41.9706
-39.4878
-39.2121
-45.2941
-54.8046
-59.0284
-55.9405
-56.0175
-38.3232
-37.0961
-36.1959
-39.2486
-33.5533
-32.9743
-30.9398
-38.1949
-68.1459
-48.145
-56.0125
-55.6229
193.127
198.534
196.224
197.072
-99.1646
-74.3484
-87.49
-87.6821
188.194
203.201
196.42
197.016
-34.4424
-33.8481
-38.0762
-31.9488
-50.2719
-53.0183
-56.9964
-47.439
-33.1949
-31.3971
-31.838
-32.104
-25.7203
-24.4156
-24.9901
-25.2907
-29.38
-30.0763
-29.7741
-29.7395
-23.3583
-22.756
-22.9088
-22.8835
-32.9361
-32.7638
-35.4674
-31.61
-31.6308
-31.3828
-31.7963
-31.661
-75.992
-44.3169
-57.529
-56.7327
160.704
184.15
180.695
180.602
-32.3439
-32.5515
-30.0498
-35.921
-24.8599
-21.7777
-29.4083
-17.515
-29.1905
-32.0297
-30.5301
-30.5308
-23.5563
-23.3789
-23.5355
-23.5588
-33.646
-33.3842
-32.7925
-34.8259
-36.73
-36.3045
-37.8244
-34.9461
-67.2129
-47.8728
-55.4047
-54.9453
193.499
198.379
196.507
195.006
-34.5463
-33.9152
-38.12
-32.074
-50.4954
-53.1768
-57.2561
-47.6803
-33.3148
-31.4815
-32.2768
-31.9443
-25.6631
-24.3552
-24.9327
-25.2184
-33.0805
-32.8316
-35.4804
-31.625
-31.6519
-31.3798
-31.8908
-31.164
-32.4096
-32.5734
-35.9444
-30.2099
-24.9614
-21.8184
-17.5164
-29.4322
-33.5839
-33.4199
-35.1217
-32.7592
-36.7483
-36.3058
-34.957
-37.8368
-31.3916
-31.7453
-32.479
-30.4697
-34.7218
-35.6189
-35.0332
-34.7493
-28.6817
-28.4019
-28.623
-27.9328
-35.7235
-35.577
-35.3952
-36.4879
-48.7907
-49.4024
-50.5702
-50.5623
-38.5653
-36.52
-37.3555
-37.1603
-24.8994
-28.2767
-26.7022
-27.3231
-36.6077
-36.0183
-35.8445
-36.1098
-34.9439
-35.4938
-35.2397
-35.2303
-33.2691
-32.3117
-32.7877
-32.8015
-35.2645
-34.4634
-33.8361
-36.5795
-52.4807
-65.5595
-64.7136
-57.0942
11.327
-1.62983
4.11616
4.11027
-92.5171
-96.8414
-112.622
-112.107
-61.3059
-63.7504
-62.4257
-62.6042
-43.9282
-39.7627
-41.597
-41.5855
-31.3229
-31.6725
-32.418
-30.3638
-34.7125
-35.6264
-35.0425
-34.762
-28.4014
-28.3217
-27.775
-28.4567
-35.6655
-35.4075
-35.2541
-36.3613
-24.9944
-27.9051
-26.8093
-26.2799
-36.6055
-36.1239
-35.9125
-36.1919
-35.4985
-34.5431
-36.5226
-33.8135
-52.4921
-65.6294
-56.8074
-64.6635
-68.9196
-56.6431
-56.0741
-48.8374
-30.6371
-30.2911
-30.1312
-29.597
-27.2094
-27.9261
-27.5296
-27.5416
-67.4374
-55.518
-55.3814
-47.3061
-68.1154
-56.3845
-55.5607
-48.7111
-66.3813
-54.8459
-54.6165
-46.8387
-26.7631
-27.7934
-27.5193
-27.367
-30.7241
-30.1633
-30.2843
-29.5982
-115.718
-89.6831
-91.572
-74.683
-117.605
-90.3178
-92.2561
-75.2007
-46.9716
-47.1727
-45.7659
-49.6151
-46.8559
-47.1704
-45.611
-49.5808
-74.7016
-57.9198
-56.6406
-46.0772
-5.89603
2.26815
-7.03875
0.911692
-5.80468
2.26951
-7.0043
0.925707
-74.6553
-58.012
-56.6222
-45.9504
194.005
199.151
197.21
197.355
197.27
185.662
197.893
205.344
186.616
198.066
202.33
197.808
196.906
194.509
197.141
195.545
-33.7401
-33.9307
-33.6841
-34.424
-26.0623
-24.9817
-26.9549
-26.2586
-27.8044
-29.2217
-28.2345
-29.9254
-38.6717
-39.8202
-38.0258
-38.3639
-33.6355
-33.8389
-33.6206
-34.2953
-38.5851
-39.6804
-37.8889
-38.1851
-27.8681
-28.7359
-27.7107
-29.4073
-25.5142
-25.4605
-26.4366
-25.6818
-35.7111
-37.4032
-35.5545
-36.8369
-37.177
-35.5256
-36.6198
-35.5345
-34.8849
-34.685
-35.0693
-34.8448
-34.6355
-34.8417
-34.8192
-35.0444
-85.2346
-52.6037
-88.027
-106.418
-45.9417
-56.9567
-54.2404
-59.1697
-57.0965
-46.0066
-59.166
-54.3536
-52.9602
-85.2271
-105.918
-87.8869
-35.0046
-35.7097
-35.8954
-35.4669
-32.7182
-31.2797
-31.5159
-30.9595
-33.4783
-32.4922
-32.4905
-32.091
-37.694
-38.2039
-36.5488
-36.6379
-34.9995
-35.6911
-35.9211
-35.4732
-37.7738
-38.1711
-36.6042
-36.7065
-33.5883
-32.7669
-32.7577
-32.2335
-32.8173
-31.5071
-31.6735
-31.0508
-32.3489
-32.8352
-32.2004
-32.6806
-32.4784
-32.8837
-32.2687
-32.7265
-30.3104
-30.7158
-30.0603
-30.4628
-29.9201
-30.6727
-29.943
-30.8328
-43.8285
-45.5003
-40.5356
-42.0749
-29.736
-31.44
-30.6229
-32.123
-29.7406
-31.4483
-30.631
-32.1374
-43.8156
-45.538
-40.532
-42.0522
-25.7634
-25.5521
-24.8679
-24.2197
-25.4859
-25.7251
-24.1556
-24.8082
-25.4707
-26.0412
-24.6083
-25.5125
-26.0806
-25.5833
-25.5743
-24.6674
-144.548
148.074
-9.87117
173.731
-93.0679
-109.617
-34.3162
-29.4046
-32.9938
-28.3935
-32.5688
-31.4346
-123.264
146.104
-107.768
131.724
-84.0339
-78.6452
-37.9685
-28.1626
-30.4756
-27.5165
-35.2759
-32.5122
-38.5202
181.794
-148.323
151.512
-91.1321
-108.285
-32.9168
-28.4117
-34.2314
-29.4481
-32.2608
-32.0163
-106.316
134.358
-121.483
137.08
-84.4883
-80.0958
-30.1588
-27.4386
-39.0179
-27.9263
-35.7803
-32.5852
-31.3782
-33.2295
-33.2197
-33.624
-31.675
-32.8821
-37.1487
-36.2724
-36.1102
-36.4745
-28.2601
-33.1476
-27.9496
-35.941
-39.7289
-33.1027
-28.1863
-20.9411
-31.8641
-38.131
-40.8085
-51.3364
-11.299
-50.5177
-41.5988
-47.9474
-36.1522
-40.4053
-34.085
-40.4996
-45.8392
-52.3541
-31.3612
-33.4266
-37.0181
-36.4078
-33.1349
-33.5481
-31.6979
-32.814
-36.2622
-36.5461
-39.3715
-33.1969
-28.4337
-33.3193
-27.995
-36.0381
-28.0429
-22.0726
-12.7143
-50.2177
-31.5825
-38.0304
-40.8997
-50.9928
-41.553
-47.838
-46.0421
-52.164
-36.6947
-40.4656
-34.8626
-40.5591
-150.465
184.541
-148.75
188.232
-90.4839
-90.1045
186.038
188.042
-2.48433
160.237
-0.534261
162.912
-119.354
-120.403
177.686
178.021
-45.4142
-55.1217
-32.1728
-37.594
-38.8936
-32.6126
-52.8922
-43.3321
-36.1182
-27.4076
-39.669
-27.5428
-34.9968
-35.253
-26.3253
-26.5413
-29.4747
-25.4951
-29.463
-25.4746
-29.1864
-28.9904
-23.9314
-23.9066
-31.5388
-32.2431
-37.2122
-32.5358
-35.8702
-31.4963
-31.8003
-32.4835
-87.0472
106.271
-84.9389
107.852
-99.9133
-100.848
141.13
140.509
-40.1733
-39.0593
-27.0142
-21.4313
-29.5714
-35.2098
-31.5805
-21.4386
-26.7557
-24.7667
-26.7452
-24.7316
-27.9216
-27.9086
-23.8098
-23.8235
-32.9907
-35.3389
-37.0194
-42.1034
-32.772
-34.9401
-38.9431
-35.8
-150.923
189.766
-147.696
188.131
-89.0947
-88.3962
190.415
188.47
-45.5818
-55.4857
-32.3551
-37.7973
-39.0656
-32.7452
-53.2492
-43.5999
-36.2627
-27.4084
-39.8511
-27.5232
-35.3674
-35.0297
-26.2953
-26.5226
-31.3482
-31.9822
-37.1033
-32.8272
-35.9678
-31.4818
-32.0309
-31.7821
-40.0893
-38.1494
-27.1992
-21.3595
-35.3636
-29.6987
-21.5063
-31.6824
-32.8852
-35.3786
-37.0904
-42.0823
-35.0673
-32.5493
-35.8043
-38.9599
-32.5384
-32.1078
-28.1927
-29.9335
-32.0886
-30.1237
-33.3997
-33.0139
-31.285
-33.4689
-31.3174
-34.9899
-29.8756
-29.5291
-34.6373
-35.5867
-43.2753
-40.2975
-43.2955
-40.3458
-45.5137
-45.5239
-39.606
-39.8614
-31.6036
-37.0022
-34.0622
-38.129
-28.1325
-29.4168
-36.9902
-37.7697
-34.9944
-34.2839
-35.0095
-34.2905
-35.2526
-35.2445
-33.6889
-33.6972
-40.2989
-47.8295
-34.6591
-39.7267
-34.465
-37.8313
-49.9705
-45.2256
21.945
35.7142
21.8728
35.7402
16.6781
16.6815
12.0084
11.9856
-58.2618
-52.3268
-58.1378
-52.3869
-59.7772
-59.6067
-47.3437
-47.3646
-32.4457
-32.0736
-28.2005
-29.8894
-32.0289
-30.0361
-33.4709
-32.9976
-31.312
-33.4496
-31.2119
-34.9964
-29.2751
-29.719
-34.6046
-35.5958
-31.6303
-37.0841
-34.9141
-38.1898
-29.5407
-28.3139
-36.9744
-37.6794
-40.1349
-47.7968
-34.1855
-39.5835
-37.7767
-34.8092
-45.23
-50.0222
-42.2441
-41.6444
-37.3088
-31.3944
-30.3993
-36.2221
-29.6078
-29.0288
-42.1654
-41.5001
-37.3019
-31.5159
-36.1888
-30.5806
-29.2338
-29.7048
-66.2825
-66.451
-59.6188
-50.738
-59.6127
-50.956
-49.85
-49.7504
-34.8768
-34.8594
-27.6224
-14.8584
-14.8585
-27.6295
-8.05199
-8.05242
199.622
199.898
205.258
205.174
194.692
194.93
199.994
199.65