# vtk DataFile Version 2.0
tri_press
ASCII
DATASET UNSTRUCTURED_GRID
POINTS 3682 float
-0.742951 0.175 -2.155
-0.715 0.275 2.15659
-0.705 0.745 -2.12683
-0.585 1.105 2.27347
0.742946 0.175 -2.155
0.715 0.275 2.15659
0.705 0.745 -2.12683
0.585 1.105 2.27372
-0.755225 0.186742 -0.717803
-0.775797 0.190186 0.719393
-0.81065 1.01065 -0.660064
-0.77678 1.13678 0.806703
0.755223 0.186741 -0.717803
0.775796 0.190186 0.719393
0.810641 1.01064 -0.65998
0.776778 1.13678 0.80687
-1.51371 -0.305127 -3.34756
-1.51074 -0.215133 -2.18593
-1.51621 -0.202853 -0.749509
-1.50086 -0.218396 0.68095
-1.44564 -0.171707 2.11687
-1.43694 -0.125715 3.27603
-1.45001 -0.0802777 4.43975
-1.51124 0.0492356 -3.32282
-1.51147 0.166823 -2.15796
-1.52847 0.213501 -0.715785
-1.50076 0.214117 0.723721
-1.40779 0.256177 2.16533
-1.41501 0.300837 3.32492
-1.44172 0.34604 4.48767
-1.49738 0.715231 -3.28167
-1.49727 0.828777 -2.11805
-1.55988 1.02959 -0.655706
-1.49996 1.12334 0.808718
-1.33914 1.11836 2.2705
-1.38105 1.15803 3.4289
-1.43516 1.20651 4.58691
-1.49029 1.88862 -3.19769
-1.49562 2.0239 -2.02964
-1.52138 2.23921 -0.557678
-1.52133 2.39914 0.920654
-1.48797 2.46142 2.39231
-1.47606 2.48976 3.55974
-1.48544 2.52492 4.72097
-0.761128 -0.302012 -3.34563
-0.749123 -0.207491 -2.18313
-0.752338 -0.215573 -0.749858
-0.76101 -0.235636 0.677241
-0.733655 -0.166984 2.11037
-0.731574 -0.123875 3.27164
-0.741941 -0.0819956 4.43722
-0.761419 0.042691 -3.32222
-0.72557 0.303697 3.32132
-0.741641 0.344219 4.48579
-0.747118 0.677814 -3.28531
-0.696989 1.15278 3.42956
-0.741775 1.20257 4.5871
-0.731036 1.86228 -3.20128
-0.729744 1.99879 -2.03359
-0.758722 2.23173 -0.560039
-0.782643 2.40453 0.920998
-0.775945 2.46362 2.39443
-0.770317 2.4886 3.56186
-0.777723 2.52297 4.72252
0.737063 -0.302013 -3.34561
0.750992 -0.207492 -2.18312
0.763594 -0.215575 -0.749847
0.765701 -0.235637 0.677255
0.721161 -0.166984 2.11039
0.689173 -0.123876 3.2717
0.676618 -0.0819963 4.43731
0.725862 0.0426898 -3.3222
0.662186 0.303697 3.3214
0.658635 0.344218 4.48589
0.72157 0.677812 -3.2853
0.615426 1.15278 3.42972
0.633652 1.20257 4.58722
0.77642 1.86228 -3.20124
0.788484 1.99878 -2.03353
0.774047 2.23172 -0.559955
0.713474 2.40452 0.921117
0.650885 2.46362 2.39457
0.635252 2.4886 3.562
0.63407 2.52297 4.72265
1.49408 -0.305131 -3.34751
1.50973 -0.215137 -2.18589
1.527 -0.202857 -0.749453
1.51758 -0.218398 0.681028
1.4542 -0.171709 2.11697
1.41414 -0.125716 3.27617
1.39828 -0.0802796 4.43991
1.48459 0.0492322 -3.32278
1.50588 0.16682 -2.15792
1.53154 0.213496 -0.715718
1.51679 0.214114 0.723827
1.42502 0.256176 2.16547
1.38315 0.300836 3.32509
1.37614 0.346039 4.48786
1.48121 0.715227 -3.28162
1.49761 0.828772 -2.11799
1.56304 1.02958 -0.655567
1.50846 1.12333 0.808959
1.34427 1.11835 2.27081
1.32847 1.15802 3.42917
1.34439 1.2065 4.58714
1.52967 1.88862 -3.19759
1.54253 2.02389 -2.02952
1.53343 2.2392 -0.557513
1.46789 2.39914 0.920879
1.38651 2.46142 2.39257
1.35734 2.48976 3.56
1.35254 2.52491 4.72121
-0.76554 0.46 -2.18248
-2.47359e-06 0.171319 -2.15868
-0.753632 0.176328 -1.4364
-0.710839 0.69 2.27587
0 0.273514 2.15808
-0.769339 0.208653 1.43799
0 0.824726 -2.20656
-0.81633 0.93633 -1.39345
0 1.13246 2.30106
-0.717701 1.1577 1.54009
0.765571 0.46 -2.18251
0.753628 0.176327 -1.4364
0.7106 0.69 2.27575
0.769337 0.208654 1.43799
0.816318 0.936318 -1.39341
0.717676 1.15768 1.5403
-0.76568 0.188295 0.000795007
-0.886353 0.598696 -0.688934
-8.35759e-07 0.186792 -0.717803
-0.887063 0.663483 0.763048
-4.34672e-07 0.188196 0.719393
-0.793886 1.07389 0.0733199
-4.24103e-06 1.351 -0.660022
-1.41719e-06 1.44685 0.806787
0.765679 0.188294 0.000795007
0.886353 0.598691 -0.688892
0.887064 0.663482 0.763132
0.793878 1.07388 0.073445
-0.869879 0.529348 -1.41492
0.869868 0.529346 -1.4149
-1.65468e-06 0.173671 -1.4364
-2.12051e-06 1.03367 -1.39343
-1.2368e-06 0.46 -2.32873
-0.886475 0.63109 0.0370575
0.886478 0.631086 0.03712
-6.35216e-07 0.187672 0.000795007
-2.82911e-06 1.47209 0.0733824
-0.8949 0.676742 1.48904
0.894985 0.676741 1.48914
-2.17336e-07 0.200944 1.43799
-7.08594e-07 1.27198 1.54019
0 0.69 2.39979
-0.760102 0.3175 -2.1746
-0.371477 0.171326 -2.15867
-0.748713 0.175242 -1.7957
-0.730979 0.4825 2.23429
-0.3575 0.273558 2.15803
-0.762485 0.221511 1.79729
-0.74848 0.6025 -2.16787
-0.3525 0.816277 -2.19811
-0.771399 0.851399 -1.76014
-0.656265 0.8975 2.28302
-0.2925 1.13169 2.30022
-0.656665 1.13667 1.90678
0.371472 0.171318 -2.15868
0.760086 0.3175 -2.17458
0.748709 0.175242 -1.7957
0.3575 0.273578 2.15801
0.730951 0.4825 2.23432
0.76249 0.221506 1.79729
0.3525 0.81631 -2.19814
0.748481 0.6025 -2.16787
0.771472 0.851472 -1.76012
0.2925 1.13169 2.30034
0.657502 0.8975 2.28444
0.656752 1.13675 1.90701
-0.750967 0.184996 -1.0771
-0.760634 0.187337 -0.358504
-0.872888 0.36667 -0.703368
-0.378 0.185993 -0.717803
-0.772502 0.199486 1.07869
-0.770737 0.189243 0.360094
-0.876744 0.404178 0.741221
-0.388097 0.188795 0.719393
-0.820227 0.980227 -1.02676
-0.882723 0.821784 -0.674499
-0.800662 1.04066 -0.293372
-0.486499 1.34317 -0.660043
-0.762244 1.16224 1.1734
-0.875721 0.922032 0.784876
-0.786929 1.10693 0.440012
-0.463179 1.44139 0.806745
0.750964 0.184995 -1.0771
0.377998 0.185993 -0.717803
0.760632 0.187337 -0.358504
0.872883 0.366668 -0.703348
0.7725 0.199486 1.07869
0.388096 0.188795 0.719393
0.770737 0.18924 0.360094
0.876744 0.404177 0.741263
0.820255 0.980255 -1.02669
0.48641 1.343 -0.660001
0.882714 0.821775 -0.674436
0.800638 1.04064 -0.293268
0.76217 1.16217 1.17358
0.463173 1.44138 0.806828
0.875696 0.922017 0.785001
0.78693 1.10693 0.440158
-0.857432 0.494674 -1.7987
-0.382771 0.46 -2.29782
-2.06413e-06 0.173106 -1.79754
-1.85519e-06 0.315659 -2.29195
-0.866778 0.352838 -1.42566
-0.376817 0.173653 -1.4364
-0.842053 0.683371 1.88245
-0.35542 0.69 2.37846
-1.08668e-07 0.220777 1.79803
0 0.481757 2.39424
-0.895613 0.442697 1.46352
-0.384669 0.200937 1.43799
-1.06026e-06 0.946886 -1.79999
-6.18398e-07 0.642363 -2.3735
-0.875308 0.732839 -1.40419
-0.408166 1.02204 -1.39344
-3.54297e-07 1.15379 1.92062
0 0.911232 2.30187
-0.865418 0.917221 1.51456
-0.358851 1.23495 1.54014
0.857431 0.494673 -1.79871
0.382785 0.46 -2.29782
0.866776 0.352836 -1.42565
0.376813 0.173654 -1.4364
0.84208 0.68337 1.88245
0.3553 0.69 2.37853
0.895613 0.442697 1.46357
0.384668 0.200937 1.43799
0.87532 0.732832 -1.40415
0.408158 1.02205 -1.39342
0.865406 0.917209 1.51472
0.358838 1.23492 1.54024
-0.875014 0.385224 0.0189262
-0.383166 0.187332 0.000795007
-0.88399 0.564022 -1.05193
-0.886457 0.614893 -0.325938
-1.24522e-06 0.185979 -1.0771
-7.35488e-07 0.187178 -0.358504
-0.886675 0.647287 0.400053
-0.893538 0.670113 1.12604
-5.34944e-07 0.188166 0.360094
-3.26004e-07 0.190362 1.07869
-0.882975 0.873885 0.0551887
-0.495411 1.46992 0.0733512
-3.18077e-06 1.20802 -1.02672
-3.53507e-06 1.44117 -0.29332
-2.12315e-06 1.4724 0.440085
-1.06289e-06 1.38761 1.17349
0.875011 0.385224 0.0189575
0.383165 0.187332 0.000795007
0.883991 0.564018 -1.0519
0.886457 0.614889 -0.325886
0.886674 0.647284 0.400126
0.893544 0.670111 1.12614
0.882969 0.873878 0.0552825
0.495407 1.46992 0.0734137
-0.854056 0.335169 -1.7972
-0.873376 0.372778 -1.06452
-0.883517 0.768756 -1.03934
-0.855795 0.66767 -1.77942
0.854055 0.335168 -1.7972
0.855791 0.667666 -1.77941
0.883512 0.768749 -1.0393
0.873375 0.372776 -1.0645
-0.374147 0.173082 -1.79662
0.374143 0.173082 -1.79662
0.377212 0.185933 -1.0771
-0.377215 0.185932 -1.0771
-0.380333 0.952687 -1.78006
-0.406747 1.19656 -1.02674
0.406738 1.19653 -1.02671
0.380329 0.952683 -1.78005
-0.377124 0.31658 -2.26566
-0.367635 0.622431 -2.35332
0.367642 0.622431 -2.35329
0.377128 0.31658 -2.26566
-0.873925 0.37596 -0.342221
-0.876049 0.394616 0.380074
-0.880312 0.89844 0.420032
-0.882847 0.847833 -0.309655
0.873916 0.375962 -0.342195
0.882845 0.847828 -0.309577
0.880312 0.898437 0.420142
0.876045 0.394616 0.38011
-0.380614 0.1866 -0.358504
0.380613 0.1866 -0.358504
0.38563 0.188063 0.360094
-0.385632 0.188063 0.360094
-0.507715 1.44006 -0.293346
-0.485666 1.4684 0.440048
0.485662 1.4684 0.440121
0.507712 1.44007 -0.293294
-0.895786 0.434766 1.10237
-0.852037 0.462599 1.83987
-0.830451 0.907361 1.89462
-0.878351 0.908677 1.14972
0.895784 0.434766 1.10242
0.878295 0.908669 1.14986
0.830432 0.907354 1.89473
0.851948 0.462599 1.83987
-0.386284 0.190361 1.07869
0.386283 0.190361 1.07869
0.371084 0.220725 1.79766
-0.371085 0.220725 1.79766
-0.373621 1.38171 1.17344
-0.325675 1.15365 1.9137
0.325669 1.15364 1.91382
0.373613 1.3817 1.17354
-0.35646 0.482129 2.3702
0.3564 0.482129 2.37021
0.3239 0.904366 2.32583
-0.32396 0.904366 2.32651
-0.751782 0.24625 -2.16505
-0.557214 0.171338 -2.15866
-0.746219 0.174734 -1.97535
-0.725132 0.37875 2.19758
-0.53625 0.274229 2.15736
-0.740487 0.24651 1.97694
-0.726032 0.67375 -2.14664
-0.52875 0.807202 -2.18903
-0.751533 0.811533 -1.94348
-0.617192 1.00125 2.2748
-0.43875 1.12702 2.29552
-0.621309 1.12131 2.09012
0.557209 0.17133 -2.15867
0.751759 0.24625 -2.16503
0.746214 0.174734 -1.97535
0.53625 0.274237 2.15735
0.725101 0.37875 2.19758
0.740495 0.246502 1.97694
0.52875 0.807478 -2.18931
0.725962 0.67375 -2.14657
0.751438 0.811438 -1.94347
0.43875 1.12673 2.29542
0.617013 1.00125 2.27484
0.62138 1.12138 2.09036
-0.75341 0.185555 -0.897453
-0.757841 0.187128 -0.538154
-0.860382 0.253543 -0.710586
-0.566497 0.186599 -0.717803
-0.777989 0.190997 0.899043
-0.773262 0.18972 0.539744
-0.863163 0.278736 0.730307
-0.581804 0.189776 0.719393
-0.815623 0.995623 -0.843409
-0.850943 0.918345 -0.667281
-0.805658 1.02566 -0.476718
-0.694067 1.26789 -0.660053
-0.771114 1.15111 0.990049
-0.822062 1.02731 0.79579
-0.782879 1.12288 0.623358
-0.669079 1.38728 0.806724
0.753408 0.185554 -0.897453
0.566495 0.186599 -0.717803
0.75784 0.187127 -0.538154
0.860382 0.25354 -0.710576
0.777989 0.190995 0.899043
0.581803 0.189777 0.719393
0.773261 0.189719 0.539744
0.863153 0.27874 0.730328
0.815623 0.995623 -0.843336
0.694071 1.26791 -0.659991
0.85094 0.918339 -0.667208
0.805659 1.02566 -0.476624
[...]
POINT_DATA 3682
SCALARS point_scalars float 1
LOOKUP_TABLE default
-153.307
-42.4515
-37.8292
-37.7527
-153.535
-42.4476
-37.7883
-37.7119
-40.6104
-37.4915
-61.4999
-53.0865
-40.6112
-37.4737
-61.4934
-53.1341
-93.2364
-98.6648
-41.4684
-37.2103
-46.8177
-36.8302
-33.6108
53.7739
-110.104
-42.2527
-38.424
-43.7019
-36.5099
-33.8105
65.7587
-82.3806
-52.8271
-48.2414
-43.4415
-36.3515
-35.5245
-8.48388
-38.9759
-82.8888
-60.7833
-39.5475
-37.9293
-37.3561
26.1908
-194.711
-41.248
-37.6265
-41.8765
-34.0487
-32.7687
122.445
-33.294
-32.593
173.36
-35.9143
-33.8101
8.63117
-26.518
-78.1209
-66.015
-36.9207
-37.3561
-35.96
26.0833
-194.363
-41.4126
-37.5713
-41.8972
-34.0499
-32.3295
122.191
-32.8679
-32.1104
173.55
-36.0343
-33.2594
-3.94224
-26.4501
-78.1122
-66.0028
-36.8731
-36.8689
-35.3953
-91.6421
-96.7686
-40.3005
-37.1787
-46.8053
-36.8124
-33.6923
53.2778
-110.198
-42.2442
-38.4301
-43.7483
-36.247
-33.7025
65.7273
-82.3985
-52.8025
-48.2565
-43.442
-36.5463
-35.501
-8.54067
-42.4263
-83.1502
-60.794
-38.8748
-37.3384
-37.3384
-43.5936
-174.308
-56.9974
-36.4493
-33.2784
-40.805
-22.4826
-55.3211
-35.5531
-50.7452
-43.6428
-56.9883
-36.443
-40.8109
-55.1677
-50.7219
-36.6785
-47.0225
-42.6507
-42.4942
-38.6028
-54.752
-55.9347
-67.1756
-36.6701
-47.0163
-42.4964
-54.7346
-57.7709
-57.765
-65.9598
11.1329
194.162
-43.1043
-43.1009
-37.4407
-86.6815
-50.4529
-50.4495
-40.8503
-46.2057
-31.613
-46.1272
-193.022
-80.557
-37.5738
-35.7377
-48.5216
-37.0951
-16.6757
-45.9332
-36.0693
-35.7479
-42.2672
-193.293
-46.2913
-80.5418
-35.7419
-37.5576
-48.5349
-16.6957
-37.1697
-45.9144
-35.7459
-36.0689
-42.2625
-45.8746
-37.5805
-43.2707
-41.806
-39.8601
-36.7935
-39.6943
-38.549
-66.8195
-52.6106
-57.2852
-51.4183
-55.8273
-47.9924
-52.7803
-65.7522
-45.8775
-41.802
-37.574
-43.2621
-39.8659
-38.5481
-36.7826
-39.6967
-66.87
-51.3386
-52.6082
-57.2631
-55.8315
-65.7399
-48.0073
-52.8072
-84.0275
183.991
-92.5602
135.434
-56.556
-64.1384
-46.6025
-33.5134
-40.2335
-24.5081
-48.6769
-41.1884
-18.145
156.245
-59.7046
4.99035
-40.853
-33.4314
-49.6003
-46.4022
-84.0051
184.066
-56.5336
-64.1339
-46.5857
-33.5142
-48.6812
-41.1949
-59.6885
4.97078
-49.5957
-46.3914
-40.0014
-37.1245
-51.0544
-44.3596
-51.0378
-38.8233
-42.5551
-46.3682
-37.5199
-40.1691
-48.8006
-79.8383
-13.6717
-93.7329
-76.422
-55.7101
-39.9964
-37.1206
-51.0795
-44.3524
-42.5586
-46.3729
-48.8128
-79.8314
-82.3959
-48.6
-55.9616
-83.8521
-82.3814
-83.8204
-55.9703
-48.7285
-90.4007
-90.3975
-49.909
-49.9119
-22.4074
-17.2622
-17.1819
-22.386
133.513
162.132
162.147
133.497
-40.9961
-39.6846
-47.2357
-49.6953
-40.9896
-49.6822
-47.251
-39.6834
-38.3413
-38.3376
-37.2823
-37.2858
-86.5152
-71.291
-71.2808
-86.5536
-43.4429
-48.567
-45.8094
-49.3768
-43.4513
-49.3736
-45.7982
-48.539
-40.2134
-40.2175
-41.8163
-41.7944
-56.5469
-40.745
-40.7456
-56.5406
-31.3972
-31.3976
-34.1743
-34.1772
-53.6904
-185.374
-113.153
-39.7124
-38.3326
-44.1621
-28.5881
-18.4833
-50.412
-36.4823
-36.2495
-39.4921
-185.344
-42.9307
-113.114
-38.3369
-39.6981
-44.0962
-18.6003
-28.5996
-50.3187
-36.2554
-36.4761
-39.4857
-41.6223
-38.5673
-41.0253
-40.8203
-44.2747
-36.9799
-38.2646
-38.5931
-64.3167
-56.9568
-59.3102
-79.1553
-54.0236
-50.9681
-52.8479
-61.75
-41.6002
-40.8158
-38.5603
-41.0284
-44.3348
-38.5916
-36.9793
-38.2464
-64.334
-79.1523
-56.9528
-59.2927
-54.0645
-61.7505
-51.0082
-52.8965
-40.1646
-45.8113
-104.953
145.412
-193.479
-193.295
-116.724
134.577
-65.8367
-51.2965
-55.9701
-61.3295
-36.7532
-35.9713
-42.435
-34.3144
-33.9307
-33.9323
-37.1022
-24.2793
-44.614
-41.5409
-46.17
-41.2194
-21.5217
-21.7457
-22.2372
71.4768
-46.98
-70.2945
-62.2196
-5.20477
-35.7078
-35.7061
-38.2883
-34.1809
-46.0263
-53.5991
-50.9178
-47.3491
-40.2412
-45.8225
-104.832
145.204
-65.8247
-51.2962
-55.9505
-61.2687
-36.731
-35.9535
-42.424
-34.3135
-44.6208
-41.5443
-46.1788
-41.2259
-47.0469
-70.2504
-62.1897
-5.22377
-46.0191
-53.6013
-50.9185
-47.4047
-36.9577
-36.7384
-38.7222
-36.791
-45.0761
-49.3982
-49.1463
-45.5099
-42.4478
-42.4456
-46.0327
-40.3339
-41.1005
-44.3636
-42.4565
-43.2639
-38.5804
-38.5797
-37.9443
-39.3992
-55.5251
-53.6579
-52.913
-65.2416
-54.5474
-54.565
-29.4613
-80.3981
-66.8577
-66.85
-71.8443
-61.5808
-36.9525
-36.7341
-38.7037
-36.7862
-45.0689
-49.3933
-49.144
-45.5022
-41.1059
-44.3702
-42.4629
-43.2701
-55.5
-53.6619
-52.9084
-65.2229
-65.9945
-57.2168
-58.2488
-52.347
-65.9752
-57.2008
-58.2307
-52.3437
-77.4554
-65.6504
-65.6489
-57.2287
-3.86537
9.64963
9.63591
7.66998
189.932
170.346
202.297
189.934
-41.467
-43.4742
-42.801
-45.1567
-41.4629
-43.4687
-42.8019
-45.1554
-37.3627
-37.9036
-37.3342
-37.3606
-85.1381
-90.6158
-81.2063
-85.133
-50.4463
-50.0055
-49.986
-47.618
-50.4303
-50.0065
-49.9748
-47.6166
-40.6967
-40.9444
-40.9479
-40.8892
-42.9096
-46.2295
-46.2285
-50.462
-32.0259
-26.4836
-33.9421
-32.0191
-113.247
91.1841
-115.731
117.614
-81.3572
-86.1533
-43.2608
-33.3747
-38.8862
-31.621
-49.8536
-43.8975
-84.9805
96.355
-23.3876
78.9341
-72.8424
-26.4942
-43.3817
-34.5324
-38.0337
-34.4022
-43.8811
-40.8639
-115.724
117.791
-113.229
91.1675
-81.3427
-86.1486
-38.871
-31.6213
-43.2362
-33.3715
-49.7833
-43.93
-23.401
78.9632
-84.9873
96.2992
-72.8182
-26.4673
-38.0339
-34.3809
-43.3595
-34.5383
-43.8933
-40.8686
-48.0492
-48.3992
-39.3032
-37.8035
-45.3659
-41.9531
-44.9474
-39.7103
-41.303
-40.1966
-38.5973
-37.0066
-39.6594
-41.2376
-37.7797
-39.594
-59.8891
-38.0262
-54.5724
-51.2468
-53.7178
-71.3195
-31.117
-77.1673
-53.8896
-58.336
-47.266
-48.1046
-50.4093
-61.0817
-68.5971
-61.3868
-48.1752
-48.3964
-44.9433
-39.7065
-39.2983
-37.7906
-45.3541
-41.9447
-41.308
-40.2035
-37.7769
-39.5962
-38.5513
-37.002
-39.664
-41.2421
-59.9069
-37.9503
-31.1438
-77.1497
-54.5742
-51.2403
-53.6987
-71.3125
-53.904
-58.3334
-68.5928
-61.3921
-47.2894
-48.113
-50.436
-61.0634
-83.7056
-84.0519
163.886
193.806
-92.5077
-92.5083
128.571
128.539
-65.2414
-50.9755
-75.3217
-55.8575
-47.5383
-46.2811
-31.9604
-34.0029
-40.6207
-40.6161
-26.9353
-26.936
-45.7079
-51.2995
-41.0117
-41.5341
-19.0712
-19.0693
166.38
166.483
-57.4568
-67.5119
-9.76765
3.13818
-40.8496
-40.8496
-33.6837
-33.6435
-49.1787
-50.8117
-50.951
-43.2486
-83.6941
-84.0057
193.578
163.938
-65.2297
-50.8536
-75.3166
-55.8541
-46.2642
-47.5178
-31.9594
-34.0024
-45.7117
-51.2818
-41.0171
-41.5436
-67.5136
-57.4592
3.1469
-9.76807
-50.8101
-49.1743
-43.2487
-50.9463
-40.3823
-39.7958
-37.5215
-37.0614
-49.5083
-52.9874
-42.6058
-46.4621
-50.7338
-50.735
-38.7036
-38.7015
-41.0279
-44.2834
-45.2256
-47.6771
-37.4613
-37.4634
-40.1864
-40.1882
-47.5826
-47.4909
-82.4628
-74.5183
-13.9929
-13.9259
-92.1888
-92.1944
-75.2766
-75.2726
-55.8921
-55.8897
-40.3777
-39.7958
-37.5179
-37.0577
-53.0082
-49.5604
-42.5986
-46.4539
-44.2893
-41.0296
-45.2322
-47.6769
-47.4723
-47.5763
-74.5113
-82.4322
-109.392
-64.6238
-65.7588
-110.303
-43.3449
-47.2981
-51.7389
-50.2048
-58.84
-61.292
-53.9574
-51.3902
-69.1954
-95.0109
-66.2135
-67.1653
-109.507
-110.114
-65.7449
-64.6136
-69.1686
-67.1768
-66.2019
-94.9736
-58.8468
-51.3891
-53.9811
-61.2862
-43.3164
-50.104
-51.723
-47.2949
-113.289
-117.408
-76.6483
-71.39
-113.288
-71.5213
-77.1458
-117.421
-43.4948
-45.7759
-56.9222
-54.1638
-43.4997
-53.9311
-56.4748
-45.7781
-31.9104
-16.6331
-5.18117
-22.5462
-74.1767
-29.2733
6.58643
-10.7422
-74.2306
-10.7412
6.60521
-29.2987
-31.5874
-22.5629
-5.18849
-16.6481
62.7572
137.24
167.116
95.5521
78.6391
77.8065
198.917
126.797
78.6343
126.896
198.928
76.8835
62.5717
95.6231
167.143
137.103
-40.3655
-38.9017
-41.8717
-43.6112
-38.5887
-40.9943
-41.1968
-38.5936
-50.5362
-51.2094
-44.6689
-44.1618
-55.1612
-47.8066
-45.386
-52.3378
-40.3589
-43.6028
-41.8666
-38.8966
-55.1502
-52.3227
-45.3792
-47.7989
-50.5796
-44.1718
-44.6718
-51.208
-38.5961
-38.6181
-41.1962
-40.999
-38.9858
-40.1794
-37.8084
-37.1061
-38.9811
-37.1015
-37.8064
-40.1772
-37.5409
-37.9058
-37.2649
-36.7644
-37.5445
-36.7695
-37.2669
-37.9073
-77.8845
-66.4896
-89.1357
-79.4129
-61.1406
-71.1608
-79.7569
-62.4195
-61.1367
-62.3964
-79.753
-71.1554
-77.8702
-79.3688
-89.1391
-66.4475
-45.1617
-43.8466
-46.7343
-41.5043
-43.9006
-42.8509
-51.1079
-49.9769
-41.7722
-47.9691
-50.0685
-42.7124
-51.1691
-45.8638
-48.6957
-52.2541
-45.1753
-41.5069
-46.7345
-43.8476
-51.2001
-52.2598
-48.6942
-45.8724
-41.7575
-42.6901
-50.0625
-47.9688
-43.8829
-50.0344
-51.0838
-42.8288
-40.3234
-39.4188
-40.935
-41.1493
-40.3298
-41.1561
-40.9381
-39.4194
-40.869
-37.5655
-40.9124
-42.5313
-40.905
-42.5192
-40.9081
-37.5668
-60.4397
-52.589
-50.475
-61.5894
-38.1472
-38.2185
-43.0683
-43.8015
-38.1497
-43.802
-43.0689
-38.2181
-60.4461
-61.5917
-50.4675
-52.5787
-34.3448
-27.1867
-28.6518
-33.5057
-34.3435
-33.5006
-28.6507
-27.1869
-34.6306
-34.2311
-34.1062
-34.3469
-34.5867
-34.3459
-34.0845
-34.2501
-78.4103
-182.369
-152.853
-41.6863
-40.1078
-42.2607
-31.8749
-17.1683
-49.5365
-37.2223
-36.871
-38.329
-182.257
-78.7433
-152.816
-40.1086
-41.6786
-42.2668
-17.3111
-31.8162
-49.5898
-36.868
-37.2005
-38.318
-42.1614
-39.2234
-40.4492
-40.4812
-39.9728
-37.4012
-36.61
-38.5357
-62.9198
-59.5915
-60.4881
-69.673
-53.3502
-51.8168
-53.0145
-56.1433
-42.1598
-40.4772
-39.2152
-40.4651
-39.9507
-38.5309
-37.4029
-36.5816
-62.922
-69.6593
-59.5869
-60.4747
-53.3986
-56.1595
-51.8658
-53.0632
-41.9429
-46.6897
-86.6187
57.3352
-187.431
-187.628
-141.658
-156.161
-60.7878
-53.6977
-55.6957
-59.337
-36.6929
-36.0819
-40.4953
-34.5719
-33.4378
-33.4382
-35.3223
-27.3841
-42.9593
-41.7705
-44.2454
-41.0414
-24.306
-24.4183
-31.919
33.455
-49.1734
-64.565
-66.1035
-25.2621
-35.5567
-35.6025
-37.1324
-35.0191
-48.0826
-51.7965
-51.2177
-49.3634
-42.0016
-46.7166
-86.8035
57.2209
-60.7766
-53.692
-55.6814
-59.3301
-36.6774
-36.0922
-40.4756
-34.5662
-42.9676
-41.7754
-44.2527
-41.0467
-49.1547
-64.473
-66.0816
-25.247
-48.0676
-51.7591
-51.211
-49.3844
-36.7267
-36.6145
-37.4263
-36.7015
-45.9997
-48.1149
-47.9582
-46.2069
-42.583
-42.5819
-44.2004
-41.3673
-41.6976
-43.3848
-42.4842
-42.7693
-38.5967
-38.5962
-38.2184
-38.9849
-54.9924
-54.2663
-53.333
-59.1411
-55.6696
-55.6848
-41.7496
-70.6275
-67.1041
-67.1021
-69.6891
-64.4009
-36.7234
-36.6049
-37.4065
-36.6955
-45.993
-48.1093
-47.9542
-46.1999
-41.7011
-43.3895
-42.491
-42.7736
-54.9738
-54.2525
-53.3234
-59.1107
-60.8735
-57.4466
-58.1198
-55.1802
-60.8679
-57.4356
-58.1119
-55.1758
-71.288
-65.8647
-65.8642
-61.0898
3.63262
10.7985
10.7592
12.6097
192.355
185.768
199.852
192.365
-42.2539
-43.2802
-42.9312
-44.09
-42.2492
-43.2754
-42.9309
-44.0879
-37.4206
-37.6248
-37.3522
-37.4184
-86.2906
-89.6077
-83.3714
-86.2884
-51.1538
-50.3243
-50.4049
-48.6533
-51.1466
-50.3223
-50.4019
-48.6527
-40.8426
-40.899
-40.9006
-40.6609
-44.4243
-46.2459
-46.244
-48.302
-31.7107
-28.6743
-33.3968
-31.6829
-52.0643
-41.7484
-88.5477
51.0585
-189.85
-192.683
-142.738
48.3105
-93.0357
-72.1686
-81.7395
-83.3479
-38.679
-36.9534
-41.7515
-34.4759
-36.9344
-34.7034
-37.369
-32.5859
-45.8068
-47.2917
-50.7761
-45.2108
-31.9452
-43.4171
-71.8471
44.772
-14.6558
-17.4899
-32.4864
42.9949
-49.7726
-46.0834
-60.049
-29.6501
-36.2179
-35.9521
-41.1759
-34.7187
-35.9153
-35.7131
-36.7768
-34.9356
-41.0947
-43.947
-42.9532
-41.2685
-189.872
-193.709
-142.7
48.4562
-55.9291
-41.8511
-88.6006
49.6943
-93.0138
-72.1548
-81.7232
-83.3392
-36.9394
-34.7063
-37.3737
-32.5871
-38.6643
-36.9341
-41.7332
-34.4704
-45.7605
-47.2926
-50.7293
-45.2456
-14.7468
-17.4867
-32.1268
43.0253
-32.0055
-43.492
-71.8289
44.6311
-49.6364
-46.1182
-60.0345
-29.6132
-35.9103
-35.713
-36.7759
-34.9333
-36.2327
-35.9327
-41.1097
-34.7198
-41.0904
-43.9397
-42.9351
-41.2738
-42.4784
-49.8717
-46.3066
-47.4302
-37.8949
-37.1736
-38.2108
-37.5973
-42.5062
-44.1268
-44.2522
-42.5343
-41.3004
-42.1834
-43.2155
-40.6511
-41.1775
-39.9412
-40.4987
-40.0794
-36.8696
-36.5054
-37.3895
-36.8723
-38.8942
-40.5545
-39.6405
-39.6357
-38.5337
-38.5675
-38.131
-39.0218
-66.2696
-70.7765
-63.4902
-75.4363
-54.9182
-50.794
-53.3981
-51.922
-58.3667
-56.4043
-55.5276
-63.2259
-59.5272
-52.9171
-38.5768
-67.9286
-54.9457
-54.8523
-54.4393
-57.8486
-49.9925
-45.7851
-47.614
-48.364
-52.6702
-53.2055
-51.6363
-56.4653
-65.2344
-66.4875
-67.3985
-63.7587
-42.4752
-49.8761
-46.3568
-47.428
-41.2959
-42.1801
-43.2113
-40.6471
-37.8879
-37.1676
-38.206
-37.5922
-42.4975
-44.1187
-44.2423
-42.5257
-41.2159
-39.9456
-40.5005
-40.0889
-38.5327
-38.5666
-38.1291
-39.0223
-36.8666
-36.5
-37.3257
-36.8667
-38.8897
-40.5586
-39.6441
-39.6415
-66.3067
-70.8253
-63.5353
-75.3492
-59.4538
-52.913
-38.6419
-67.868
-54.9149
-50.7895
-53.3965
-51.9148
-58.3508
-56.3738
-55.5089
-63.2073
-54.9801
-54.8452
-54.4539
-57.8428
-65.2261
-66.4082
-67.391
-63.767
-50.0166
-45.7942
-47.6391
-48.3741
-52.7054
-53.2213
-51.6698
-56.5984
-103.139
-72.9541
-83.4975
-84.326
177.594
188.516
175.033
190.464
-102.491
-84.5249
-92.6371
-92.6358
119.689
153.438
132.555
132.541
-56.2387
-56.8926
-59.6636
-53.9953
-62.8972
-65.1083
-69.2977
-59.6214
-44.5682
-49.0164
-46.9775
-46.4511
-33.8881
-32.7799
-32.7043
-33.8298
-38.9031
-40.7657
-40.2941
-40.2919
-23.9482
-25.3333
-25.185
-25.186
-47.2911
-49.4873
-46.5918
-49.4577
-41.2323
-41.0797
-40.7859
-41.4094
-19.2916
-12.4494
-18.3617
-18.3621
122.365
196.245
160.146
159.465
-60.1283
-58.9449
-59.1001
-62.3962
1.28608
7.55049
-2.97484
7.52943
-39.5613
-41.8048
-40.8626
-40.8626
-33.2045
-33.461
-33.5302
-33.5176
-49.9249
-49.681
-49.3977
-50.0254
-46.7641
-46.3203
-48.3843
-44.8005
-103.079
-72.9374
-83.4819
-84.2955
178.29
188.501
190.277
175.147
-56.2165
-56.8728
-59.6502
-53.9526
-62.8918
-65.1054
-69.2921
-59.617
-44.555
-49.0012
-46.4341
-46.9575
-33.8868
-32.7844
-32.7034
-33.8287
-47.3007
-49.4891
-46.5966
-49.4585
-41.2393
-41.0847
-40.7912
-41.4172
-60.1057
-58.9163
-62.3909
-59.0952
1.24239
7.56187
7.55905
-2.97615
-49.9154
-49.6766
-50.0228
-49.3933
-46.7752
-46.3188
-44.7994
-48.3819
-39.3779
-40.7525
-40.1585
-39.8821
-36.9564
-37.2604
-37.2798
-37.0603
-50.3362
-51.1618
-50.2055
-51.9235
-44.8461
-43.91
-43.4326
-45.3757
-48.2639
-53.9542
-50.9306
-50.931
-39.4831
-38.2992
-38.7789
-38.7778
-42.4846
-42.6816
-41.7724
-43.4241
-45.3001
-46.6998
-45.8228
-47.029
-37.6991
-37.3948
-37.4954
-37.4965
-39.769
-40.8325
-40.1705
-40.1713
-51.6255
-46.4895
-48.1376
-47.9296
-74.0526
-83.1932
-82.5225
-76.3866
-21.9291
-3.23734
-13.7467
-13.7204
-93.3956
-91.2239
-93.3613
-93.364
-74.1829
-78.8887
-76.1373
-76.1352
-58.7427
-53.3445
-55.7455
-55.7444
-39.3606
-40.7474
-40.1556
-39.8777
-36.9521
-37.2575
-37.2761
-37.0564
-50.3403
-51.1875
-51.9388
-50.2451
-44.8386
-43.9034
-43.4256
-45.368
-42.4897
-42.6837
-43.4288
-41.775
-45.3056
-46.7017
-45.8268
-47.0318
-51.6406
-46.4897
-47.921
-48.1465
-74.0481
-83.1858
-76.3792
-82.5125
-103.612
-82.1319
-82.7185
-71.7786
-48.5984
-46.6515
-50.074
-48.7577
-57.6251
-55.4498
-56.0232
-54.353
-94.2425
-80.486
-84.1758
-73.6231
-103.585
-82.1155
-82.7067
-71.7672
-94.2249
-80.4283
-84.13
-73.5928
-57.6302
-55.4542
-56.0458
-54.3737
-48.8042
-46.6394
-50.1347
-48.8263
-100.477
-88.5465
-91.766
-82.3326
-100.474
-88.5432
-91.7659
-82.3284
-49.2153
-47.073
-52.8899
-50.3775
-49.2183
-47.077
-52.8919
-50.3797
-22.1403
-25.322
-20.4929
-17.537
-21.7813
-24.3578
-6.36341
-15.0435
-21.7379
-24.3723
-6.38812
-14.9215
-22.1049
-25.2868
-20.4849
-17.5311
121.224
130.209
144.005
134.193
138.158
119.473
190.718
168.877
119.503
138.281
168.875
190.7
130.235
122.171
134.196
144.018
-40.2844
-41.438
-40.6373
-41.7825
-39.1163
-39.6674
-39.7133
-40.3796
-47.2175
-49.1153
-45.4324
-47.3035
-50.438
-51.6165
-47.7826
-48.8872
-40.2785
-41.4307
-40.6316
-41.7754
-50.4242
-51.6021
-47.7726
-48.8837
-47.2346
-49.1373
-45.4403
-47.3094
-39.1149
-39.6704
-39.7111
-40.3803
-38.0595
-38.9383
-37.8729
-38.5408
-38.9345
-38.0554
-38.5378
-37.8693
-37.4913
-37.147
-37.3859
-37.1361
-37.1512
-37.4946
-37.1398
-37.3886
-81.2819
-84.4237
-83.0837
-90.2685
-67.1516
-70.0838
-72.8873
-73.7397
-70.0779
-67.1422
-73.7325
-72.8799
-84.309
-81.3402
-90.2922
-83.0678
-41.6153
-41.2046
-45.2136
-44.5889
-45.7691
-48.6858
-48.0545
-50.9666
-44.501
-45.1885
-46.1136
-47.8614
-51.3373
-48.642
-50.1406
-48.3994
-41.6222
-41.2191
-45.2147
-44.6011
-51.3335
-48.6481
-50.1291
-48.3993
-44.489
-45.1821
-46.0982
-47.8517
-45.7425
-48.6488
-48.0312
-50.9304
-40.2697
-39.8248
-40.9394
-40.1971
-40.2751
-39.8278
-40.9447
-40.1998
-40.5561
-42.7505
-41.0846
-42.1121
-40.5601
-42.7218
-41.0775
-42.0989
-57.232
-59.1374
-53.868
-56.1618
-39.3574
-40.7349
-40.8078
-41.9556
-39.3579
-40.7371
-40.8082
-41.9549
-57.2282
-59.1335
-53.8667
-56.1574
-32.5281
-31.2921
-31.6037
-29.3073
-31.2929
-32.5279
-29.3064
-31.6034
-34.4352
-34.4668
-33.7515
-33.9875
-34.4647
-34.4694
-33.9871
-33.6967
-103.101
17.1141
-144.923
-77.6878
-116.579
-111.702
-42.3895
-35.8936
-39.587
-35.3757
-44.9019
-42.0097
-61.9298
38.9206
-30.7875
49.2937
-59.0093
-40.5567
-40.5922
-34.9254
-36.9523
-35.3227
-40.7485
-38.6055
-144.929
-77.6793
-103.14
16.8615
-114.854
-111.697
-39.5921
-35.3695
-42.3694
-35.8872
-44.8986
-41.947
-30.9523
49.3141
-61.8981
38.8059
-58.9384
-40.5358
-36.955
-35.3506
-40.5773
-34.9638
-40.7457
-38.6054
-38.5347
-42.7702
-39.2237
-38.6763
-42.4069
-40.9401
-42.0841
-39.7869
-47.065
-41.0352
-37.5209
-37.3603
-38.512
-36.3095
-37.9791
-39.3093
-61.4484
-73.9827
-57.8151
-56.0165
-57.4652
-66.4124
-80.0029
-87.1903
-52.3568
-56.5094
-50.7495
-50.9333
-51.5344
-56.1531
-60.9854
-61.0982
-38.5036
-42.7639
-42.0794
-39.7824
-39.2176
-38.6708
-42.4115
-40.9317
-47.0236
-41.0481
-37.9828
-39.3109
-37.4869
-37.3563
-38.5406
-36.3052
-61.4575
-74.0271
-79.9945
-87.1716
-57.8141
-56.0141
-57.4511
-66.3985
-52.4014
-56.5276
-60.9872
-61.1029
-50.7909
-50.9699
-51.5864
-56.1589
-96.1821
55.2506
-75.4461
67.5616
-109.14
-99.5806
144.889
136.933
-143.634
20.3778
-143.678
20.4388
-117.445
-117.443
52.9702
52.8823
-64.755
-68.898
-50.5516
-52.6781
-58.6571
-53.5884
-65.9487
-57.224
-40.789
-34.2432
-40.8357
-34.5425
-42.5626
-42.5926
-33.8695
-34.3685
-35.8715
-28.7593
-35.8736
-28.759
-37.2294
-37.2296
-25.4525
-25.4707
-47.7174
-43.0837
-42.7467
-41.3896
-44.9185
-46.1361
-40.8825
-41.8384
-32.2565
35.5092
-32.2263
36.6259
-22.3024
-22.3153
73.6394
73.3121
-62.1052
-25.062
-66.0173
-44.7298
-62.6327
-65.2771
-10.6989
-4.6507
-36.9975
-34.8233
-36.997
-34.8072
-38.2749
-38.2747
-34.1948
-34.204
-46.6725
-44.6764
-52.5192
-54.9204
-49.9909
-50.9593
-49.4986
-45.4413
-96.335
54.9646
-75.6554
67.4284
-108.947
-99.4084
136.915
144.696
-64.7444
-68.8889
-50.5473
-52.6752
-58.6464
-53.5487
-65.9412
-57.2724
-40.7679
-34.2385
-40.8063
-34.5419
-42.5887
-42.5444
-33.865
-34.3665
-47.7322
-43.0941
-42.7491
-41.3956
-44.9223
-46.1491
-40.8886
-41.8474
-62.0901
-25.1105
-65.9936
-44.6951
-65.2938
-62.6143
-4.6846
-10.7197
-46.6043
-44.6728
-52.5292
-54.8951
-50.9702
-49.9863
-45.4396
-49.493
-37.6769
-36.984
-37.4336
-36.6852
-38.7122
-38.5436
-36.9117
-36.7516
-46.042
-44.3242
-50.3006
-48.5802
-48.1674
-50.1265
-44.5187
-46.5875
-43.9718
-41.1896
-43.9696
-41.1873
-45.8913
-45.8923
-40.2796
-40.2784
-41.0079
-40.697
-44.2519
-44.4846
-41.706
-43.2732
-42.446
-44.327
-38.2161
-38.9652
-38.2149
-38.9651
-37.9315
-37.9323
-39.4097
-39.4099
-54.166
-60.4534
-52.4145
-57.6605
-51.6635
-53.566
-65.7313
-63.4044
-40.3684
-69.5768
-40.3969
-69.595
-29.2178
-29.2292
-80.1947
-80.1777
-69.2331
-64.231
-69.2275
-64.2341
-71.6863
-71.6839
-61.5889
-61.589
-37.672
-36.9793
-37.4538
-36.6795
-38.7336
-38.4487
-36.9049
-36.7466
-46.0359
-44.316
-50.2972
-48.5733
-50.125
-48.1657
-44.5109
-46.5797
-41.0152
-40.6997
-44.2617
-44.4852
-43.2806
-41.7117
-42.4523
-44.333
-54.1466
-60.4195
-52.421
-57.6391
-53.5561
-51.6545
-63.3862
-65.6994
-66.0167
-65.9993
-60.2022
-54.7669
-55.6587
-61.4762
-51.9061
-52.7285
-66.0009
-65.9814
-60.1901
-54.7463
-61.4699
-55.6663
-52.7475
-51.8956
-77.4149
-77.4139
-71.0852
-60.855
-71.0832
-60.8905
-57.1905
-57.191
-4.09836
-4.10549
2.25421
11.4532
11.4658
2.23574
7.40563
7.49074