# vtk DataFile Version 2.0
tri_press
ASCII
DATASET UNSTRUCTURED_GRID
POINTS 3682 float
-0.636896 0.145 -1.605
-0.853011 0.215 1.615
-0.625 0.44519 -1.655
-0.675 0.685 1.76877
0.6369 0.145 -1.605
0.853011 0.215 1.615
0.625 0.44519 -1.655
0.675 0.685 1.76877
-0.733787 0.14348 -0.531667
-0.828041 0.144599 0.541667
-0.741241 0.624701 -0.513743
-0.727422 0.674152 0.627513
0.733792 0.143479 -0.531667
0.82805 0.144591 0.541667
0.741231 0.624691 -0.513743
0.727428 0.674158 0.627513
-1.36202 -0.134308 -2.50446
-1.36647 -0.07802 -1.61858
-1.45122 -0.0771599 -0.547007
-1.54588 -0.0869358 0.5109
-1.58573 -0.0426341 1.58133
-1.59198 -0.00243064 2.46156
-1.59292 0.0343318 3.35223
-1.35494 0.0636126 -2.50504
-1.35623 0.139549 -1.61175
-1.45906 0.160907 -0.526953
-1.55274 0.156863 0.551727
-1.58028 0.201392 1.63522
-1.59251 0.240821 2.51641
-1.59695 0.276995 3.40486
-1.35127 0.429432 -2.52526
-1.35022 0.50355 -1.63478
-1.45383 0.630083 -0.503683
-1.47898 0.669113 0.632228
-1.4618 0.688186 1.76202
-1.53042 0.725181 2.6404
-1.57441 0.763167 3.51791
-1.38025 1.09031 -2.50453
-1.38965 1.17646 -1.60388
-1.43351 1.30673 -0.450757
-1.46637 1.39629 0.717003
-1.48391 1.4406 1.86941
-1.51164 1.46935 2.76858
-1.54522 1.50111 3.6535
-0.668888 -0.132119 -2.50007
-0.650762 -0.0730394 -1.61219
-0.710381 -0.0852207 -0.547865
-0.783512 -0.096346 0.502313
-0.815745 -0.0379124 1.56631
-0.828929 0.000648203 2.45137
-0.834664 0.0350411 3.34633
-0.669441 0.0591977 -2.50369
-0.846707 0.244812 2.50801
-0.846065 0.277885 3.40042
-0.666222 0.403996 -2.53366
-0.798074 0.724884 2.64176
-0.835559 0.762914 3.51819
-0.675115 1.07377 -2.51284
-0.674376 1.16133 -1.61303
-0.707713 1.30332 -0.456273
-0.736845 1.39901 0.717665
-0.75292 1.44195 1.87414
-0.778686 1.46947 2.7733
-0.809211 1.50092 3.65693
0.676388 -0.132121 -2.50007
0.693705 -0.0730404 -1.61219
0.760363 -0.085223 -0.547865
0.825895 -0.0963516 0.502313
0.834806 -0.0379144 1.56631
0.761461 0.000646676 2.45137
0.712817 0.0350396 3.34633
0.649751 0.0591965 -2.50369
0.730546 0.244811 2.50801
0.690473 0.277883 3.40042
0.645661 0.403995 -2.53366
0.668894 0.724884 2.64176
0.660783 0.762913 3.51819
0.712649 1.07377 -2.51284
0.728517 1.16133 -1.61303
0.734077 1.30331 -0.456273
0.719262 1.39901 0.717665
0.699957 1.44195 1.87414
0.682527 1.46947 2.7733
0.664885 1.50092 3.65693
1.36788 -0.134311 -2.50446
1.38889 -0.0780239 -1.61858
1.48259 -0.077165 -0.547007
1.58074 -0.0869434 0.5109
1.6029 -0.0426392 1.58133
1.54283 -0.00243414 2.46156
1.48752 0.0343284 3.35223
1.33811 0.063609 -2.50504
1.34891 0.139545 -1.61175
1.45838 0.160902 -0.526953
1.56295 0.156856 0.551727
1.58457 0.201388 1.63522
1.51508 0.240818 2.51641
1.46459 0.276992 3.40486
1.33234 0.429428 -2.52526
1.34143 0.503545 -1.63478
1.44791 0.630074 -0.503683
1.48066 0.669115 0.632227
1.45685 0.688185 1.76202
1.43745 0.725179 2.64041
1.42223 0.763165 3.51791
1.40967 1.09031 -2.50453
1.42927 1.17645 -1.60388
1.45215 1.30672 -0.450758
1.45108 1.39628 0.717003
1.43539 1.4406 1.86941
1.42117 1.46935 2.76858
1.40756 1.5011 3.6535
-0.637264 0.295095 -1.63632
1.99676e-06 0.141628 -1.60837
-0.686409 0.143173 -1.06833
-0.758712 0.45 1.68659
0 0.210276 1.61972
-0.821807 0.198519 1.07833
0 0.492484 -1.70229
-0.785032 0.636857 -1.08437
0 0.811668 1.89544
-0.75316 0.731525 1.19814
0.63726 0.295095 -1.63631
0.686413 0.143172 -1.06833
0.75861 0.45 1.68649
0.821365 0.198961 1.07833
0.785037 0.636862 -1.08437
0.753117 0.731482 1.19814
-0.781035 0.143919 0.005
-0.796081 0.38409 -0.522705
2.14381e-06 0.140908 -0.531667
-0.741353 0.409375 0.58459
4.69588e-06 0.140976 0.541667
-0.716169 0.631264 0.056885
-4.94699e-06 0.923156 -0.513743
3.18209e-06 1.02976 0.627513
0.781114 0.143842 0.005
0.795804 0.384085 -0.522705
0.741361 0.409374 0.58459
0.716167 0.631262 0.056885
-0.823351 0.339593 -1.07635
0.823345 0.33959 -1.07635
2.07028e-06 0.140821 -1.06833
-2.47349e-06 0.706512 -1.08437
9.98378e-07 0.295095 -1.90911
-0.728314 0.396733 0.0309425
0.728318 0.39673 0.0309425
3.41985e-06 0.140984 0.005
-8.8245e-07 1.03855 0.056885
-0.895203 0.429688 1.13824
0.895203 0.429687 1.13824
2.34794e-06 0.157972 1.07833
1.59104e-06 0.967783 1.19814
0 0.45 1.92507
-0.636912 0.220047 -1.62049
-0.318447 0.141641 -1.60836
-0.662453 0.143286 -1.33667
-0.811797 0.3325 1.65673
-0.426506 0.210274 1.61973
-0.833962 0.210206 1.34667
-0.63684 0.370143 -1.65137
-0.3125 0.487449 -1.69726
-0.7211 0.557107 -1.36969
-0.733797 0.5675 1.74462
-0.3375 0.743607 1.82738
-0.749749 0.743931 1.48346
0.318451 0.141633 -1.60837
0.637101 0.220047 -1.62068
0.662457 0.143285 -1.33667
0.426506 0.210275 1.61973
0.811799 0.3325 1.65673
0.833873 0.210295 1.34667
0.3125 0.487459 -1.69727
0.637024 0.370143 -1.65155
0.721183 0.557191 -1.36969
0.3375 0.743958 1.82773
0.733824 0.5675 1.74465
0.749742 0.743925 1.48346
-0.710111 0.143314 -0.8
-0.757444 0.143666 -0.263333
-0.806381 0.243062 -0.527186
-0.366877 0.142226 -0.531667
-0.818398 0.178084 0.81
-0.804381 0.144415 0.273333
-0.735759 0.301456 0.563128
-0.414167 0.14249 0.541667
-0.795415 0.663058 -0.799058
-0.767437 0.503783 -0.518224
-0.709554 0.608831 -0.228429
-0.426461 0.885604 -0.513743
-0.732116 0.694664 0.912828
-0.740427 0.544783 0.606052
-0.722153 0.653066 0.342199
-0.438514 1.00157 0.627513
0.710117 0.143311 -0.8
0.366881 0.142226 -0.531667
0.757449 0.143664 -0.263333
0.806375 0.242993 -0.527186
0.81839 0.178094 0.81
0.414174 0.14249 0.541667
0.804416 0.144383 0.273333
0.735763 0.301454 0.563128
0.795445 0.663088 -0.799058
0.426462 0.885622 -0.513743
0.767384 0.503821 -0.518224
0.709559 0.608836 -0.228429
0.731907 0.694455 0.912828
0.43852 1.00157 0.627513
0.74043 0.544784 0.606052
0.722182 0.653094 0.342199
-0.753995 0.317344 -1.35633
-0.318632 0.295095 -1.87356
2.03352e-06 0.140956 -1.33835
1.49757e-06 0.218362 -1.85623
-0.812381 0.241383 -1.07234
-0.343204 0.140833 -1.06833
-0.89295 0.439844 1.41241
-0.379356 0.45 1.87492
1.17397e-06 0.18411 1.34903
0 0.330138 1.91024
-0.886127 0.314103 1.10829
-0.410902 0.157968 1.07833
-1.23675e-06 0.630713 -1.39333
4.99189e-07 0.39379 -1.88086
-0.826897 0.488225 -1.08036
-0.392517 0.705872 -1.08437
7.95522e-07 0.903801 1.54679
0 0.630834 1.90975
-0.895628 0.580606 1.16819
-0.376579 0.938992 1.19814
0.754001 0.317342 -1.35633
0.31863 0.295095 -1.87357
0.812357 0.241381 -1.07234
0.343208 0.140832 -1.06833
0.892952 0.439844 1.41236
0.379305 0.45 1.87491
0.886189 0.314324 1.10829
0.410683 0.157969 1.07833
0.826897 0.488226 -1.08036
0.392517 0.705867 -1.08437
0.895628 0.580585 1.16819
0.376559 0.939 1.19814
-0.722429 0.286449 0.0179712
-0.390536 0.14241 0.005
-0.826868 0.361842 -0.799529
-0.723013 0.390412 -0.245881
2.10705e-06 0.140854 -0.8
2.78183e-06 0.14099 -0.263333
-0.733935 0.403054 0.307766
-0.755018 0.419531 0.861414
4.05786e-06 0.140979 0.273333
3.52191e-06 0.140974 0.81
-0.724216 0.514986 0.0439138
-0.445426 1.00959 0.056885
-3.71024e-06 0.799098 -0.799058
-2.91472e-06 1.00827 -0.228429
1.14982e-06 1.04065 0.342199
2.38657e-06 1.00556 0.912828
0.722429 0.286429 0.0179712
0.39056 0.14241 0.005
0.826862 0.361837 -0.799529
0.723025 0.390407 -0.245881
0.733942 0.403052 0.307766
0.755007 0.419531 0.861414
0.724218 0.514983 0.0439138
0.445436 1.00961 0.056885
-0.743161 0.230715 -1.3465
-0.816481 0.252584 -0.799764
-0.829802 0.49631 -0.799293
-0.751921 0.429184 -1.36301
0.743146 0.230714 -1.3465
0.75193 0.429184 -1.36301
0.829803 0.496307 -0.799293
0.816463 0.252581 -0.799764
-0.330825 0.140967 -1.33751
0.330829 0.140967 -1.33751
0.355052 0.140865 -0.8
-0.355048 0.140865 -0.8
-0.352509 0.629392 -1.38151
-0.38157 0.760578 -0.799058
0.381565 0.76058 -0.799058
0.352509 0.629393 -1.38151
-0.318539 0.219205 -1.82376
-0.315566 0.381966 -1.87443
0.315565 0.381966 -1.87437
0.318541 0.219205 -1.82374
-0.717754 0.288081 -0.254607
-0.727613 0.294693 0.29055
-0.731497 0.529472 0.324983
-0.718433 0.495688 -0.237155
0.717752 0.288036 -0.254607
0.718435 0.495719 -0.237155
0.7315 0.529472 0.324983
0.727614 0.294683 0.29055
-0.37868 0.142371 -0.263333
0.378694 0.142371 -0.263333
0.402367 0.14245 0.273333
-0.402352 0.14245 0.273333
-0.444964 0.965636 -0.228429
-0.446768 1.01517 0.342199
0.446773 1.01518 0.342199
0.444958 0.965633 -0.228429
-0.796263 0.295545 0.835707
-0.881999 0.323302 1.37954
-0.895389 0.574053 1.44794
-0.756033 0.561185 0.887121
0.796194 0.295653 0.835707
0.75606 0.561175 0.887121
0.895389 0.574042 1.44791
0.882004 0.323412 1.37952
-0.41246 0.140979 0.81
0.412355 0.140979 0.81
0.418594 0.183935 1.34785
-0.418704 0.183366 1.34785
-0.370144 0.982187 0.912828
-0.35704 0.879793 1.51512
0.35703 0.879796 1.51512
0.370137 0.982196 0.912828
-0.402931 0.331319 1.88068
0.402905 0.331319 1.88065
0.358403 0.599167 1.86197
-0.358428 0.599167 1.86196
-0.636988 0.182524 -1.61283
-0.477672 0.141655 -1.60834
-0.650486 0.143331 -1.47083
-0.833966 0.27375 1.63743
-0.639758 0.213532 1.61647
-0.837426 0.218663 1.48083
-0.637172 0.407666 -1.65943
-0.46875 0.475628 -1.68544
-0.677703 0.505802 -1.51234
-0.705662 0.62625 1.75796
-0.50625 0.717011 1.80078
-0.735535 0.737627 1.62611
0.477676 0.141648 -1.60835
0.637095 0.182524 -1.61293
0.65049 0.143331 -1.47083
0.639758 0.213533 1.61647
0.833906 0.27375 1.63737
0.837551 0.218539 1.48083
0.46875 0.475642 -1.68545
0.637168 0.407666 -1.65943
0.677935 0.506033 -1.51234
0.50625 0.717066 1.80084
0.705664 0.62625 1.75796
0.735617 0.737708 1.62611
-0.721966 0.14338 -0.665833
-0.745546 0.143643 -0.3975
-0.799813 0.178407 -0.529426
-0.550354 0.142809 -0.531667
-0.839867 0.144693 0.675833
-0.816213 0.144505 0.4075
-0.729864 0.249045 0.552398
-0.621319 0.143114 0.541667
-0.768412 0.643963 -0.656401
-0.758645 0.566395 -0.515984
-0.706261 0.59763 -0.371086
-0.605977 0.799405 -0.513743
-0.729697 0.684336 0.770171
-0.734258 0.609634 0.616783
-0.724975 0.663797 0.484856
-0.596756 0.865437 0.627513
0.721973 0.143377 -0.665833
0.550358 0.142808 -0.531667
0.74555 0.143642 -0.3975
0.800044 0.178256 -0.529426
0.839876 0.144686 0.675833
0.621325 0.143113 0.541667
0.816223 0.144497 0.4075
0.72987 0.24904 0.552398
[...]
POINT_DATA 3682
SCALARS point_scalars float 1
LOOKUP_TABLE default
-76.7581
-49.5835
41.9194
-33.4135
-76.8099
-49.6685
41.9454
-33.4049
-41.6921
-23.6136
-49.9863
-27.2767
-41.6936
-23.7071
-49.9699
-27.3401
-33.3406
-52.1588
-48.453
-23.1647
-48.3242
-48.3948
-31.4096
121.955
-41.7518
-52.232
-23.7422
-49.6802
-34.8986
-31.4096
82.8739
-25.0457
-60.6703
-27.3404
-55.5418
-34.2972
-31.4096
39.7329
-22.769
-60.3217
-35.652
-40.5622
-33.5465
-33.5465
92.4582
-110.954
-38.9327
-22.9736
-42.6287
-34.4051
-30.8157
170.127
-31.133
-30.0344
170.127
-29.9965
-29.2827
143.031
-7.4044
-57.2018
-46.1951
-36.4105
-30.289
-29.0541
92.3088
-110.935
-42.7931
-23.0718
-43.0218
-34.8723
-31.2899
170.187
-30.3266
-28.557
170.187
-29.1262
-28.1583
143.43
-7.29619
-57.6828
-46.2174
-35.9426
-32.3488
-29.0225
-33.504
-52.1068
-48.416
-23.2627
-48.288
-48.3738
-31.4067
121.755
-41.7186
-52.2056
-23.8341
-49.777
-34.8985
-31.4067
103.816
-25.0981
-60.6306
-27.4188
-55.6613
-34.3134
-31.4067
39.7585
-22.7703
-61.7061
-35.7155
-40.5569
-33.5381
-33.2391
16.5274
-92.6375
-52.2282
-36.7801
-32.7265
-40.7065
49.0564
-52.121
-27.4882
-51.4823
17.6884
-52.2203
-36.724
-40.615
-52.0396
-51.4406
-22.8316
-50.7464
-32.8276
-16.2758
-32.646
-31.1582
-32.4347
-54.032
-22.9209
-50.7434
-16.3779
-31.2112
-76.2892
-76.2621
-45.9348
-14.8936
170.925
-23.4867
-23.5912
-29.364
-74.9843
-52.7267
-52.6581
-38.5116
-42.0842
-20.97
4.01532
-96.0654
-67.6412
-42.177
-34.8944
-41.2426
23.0699
59.3696
-21.0056
-34.5532
-29.46
-46.738
-96.0501
3.98441
-67.6367
-34.8966
-42.3033
-40.8675
59.6068
23.0391
-21.0376
-29.4458
-34.5599
-46.7258
-41.2293
-28.3304
-52.464
-33.0761
-21.4052
-14.4885
-16.2915
-31.5924
-71.3379
-47.6944
-35.0783
-40.2366
-31.4453
-19.4535
-29.3551
-49.656
-41.2227
-33.0799
-28.346
-52.4546
-21.4984
-31.5981
-14.249
-16.4111
-71.3377
-40.3702
-47.6897
-35.0656
-31.4708
-49.6701
-19.5193
-29.4398
-27.8665
150.491
-61.2705
83.6237
-69.3571
-46.4753
-49.1261
-27.7608
-35.5752
-25.8579
-51.2222
-37.594
-8.23088
108.106
-89.4731
-28.364
-34.3665
-23.0932
-53.3452
-43.3815
-27.8468
150.492
-69.341
-46.4717
-49.1591
-27.7451
-51.1019
-37.6008
-89.4366
-28.3227
-53.287
-43.3783
-22.5968
-28.186
-55.1397
-29.9141
-37.5251
-30.2064
-20.8253
-2.86048
-30.2018
-36.6305
-25.6796
-60.8653
5.95463
-68.3645
-62.0315
-47.8146
-22.6912
-28.1987
-55.1256
-29.9099
-20.8961
-3.1616
-25.7696
-60.8658
-33.9803
-50.9036
-60.2166
-29.0003
-33.9791
-28.9557
-60.1979
-50.8972
-61.5943
-61.5864
-38.0052
-38.0054
-9.26371
-7.40894
-7.41899
-9.24678
74.1467
130.443
129.576
74.0811
-29.4634
-20.1001
-23.3121
-31.5214
-29.4595
-31.5157
-23.3918
-20.1391
-29.5964
-29.6057
-28.9041
-28.9009
-62.3915
-54.3694
-54.3989
-61.9264
-0.79645
-45.8609
-57.0874
-14.0702
-1.07655
-14.2496
-57.1205
-45.9028
-37.3437
-37.3502
-35.5233
-35.5916
-47.4645
-35.8388
-35.8354
-47.4717
-29.756
-29.7407
-27.738
-27.7489
-27.4407
-106.946
-85.0146
-48.9352
-39.1317
-41.5182
33.2127
57.1137
7.60181
-33.9492
-30.7437
-40.6067
-106.922
-27.5723
-84.9771
-39.1444
-48.9542
-42.5731
57.4938
33.221
7.44028
-30.7273
-33.7282
-40.6021
-38.8012
-34.5668
-52.3346
-33.8402
-26.0419
-23.0671
-16.6682
-30.2939
-60.9646
-48.0214
-40.08
-61.9917
-27.8494
-22.4024
-27.8942
-39.8752
-38.7899
-33.8441
-34.561
-52.3193
-26.0987
-30.3133
-23.2679
-16.7693
-60.9313
-62.0611
-48.011
-40.0467
-27.9183
-39.9149
-22.4605
-27.9713
15.6928
16.4948
-38.2032
94.6775
-93.1801
-93.1456
-73.5764
-15.2605
-59.7794
-45.4563
-66.243
-47.507
-38.1544
-35.8806
-52.2483
-29.62
-33.2457
-33.2449
-34.2293
-27.74
-40.7727
-53.2787
-47.224
-36.6106
51.4868
51.6005
18.1898
80.8198
-27.7149
-73.2552
-80.1613
-37.3293
-28.206
-28.2031
-30.7844
-26.0976
-53.3432
-38.2061
-53.3528
-47.9638
15.1842
16.523
-38.2077
94.6608
-59.7763
-45.4494
-66.2303
-47.5031
-38.174
-35.9471
-52.3927
-29.6072
-40.6929
-52.9924
-47.1032
-36.8364
-27.6805
-73.2801
-80.1194
-37.2781
-53.3214
-38.2024
-53.2856
-47.9453
-25.0493
-21.013
-23.1144
-26.4344
-51.5031
-48.3867
-53.9525
-36.916
-32.8889
-32.8891
-34.8541
-31.2759
-16.0523
-17.3549
-19.0217
-10.7843
-32.4857
-32.4876
-31.2271
-34.4342
-32.5482
-29.8748
-27.6906
-44.5145
-31.2849
-31.3096
-9.44691
-50.9157
-52.9355
-52.9405
-57.826
-51.0235
-25.0817
-21.178
-23.2064
-26.4678
-51.4831
-48.3844
-53.9317
-36.887
-16.1651
-17.4396
-19.1012
-10.9437
-32.5772
-29.9418
-27.7626
-44.5224
-78.5406
-72.4931
-81.1386
-60.8455
-78.6078
-72.4747
-81.0779
-60.8206
-52.5077
-46.0489
-46.043
-41.0974
-23.589
-18.3092
-18.2996
2.23028
168.142
126.878
202.995
167.898
-22.7968
-25.7926
-21.9704
-24.4467
-22.8986
-25.8542
-22.054
-24.5457
-29.1247
-29.5681
-29.5724
-29.1288
-72.1739
-76.8245
-67.7833
-72.1852
-49.3731
-52.9607
-55.2426
-25.8421
-49.3351
-52.8472
-55.2637
-25.853
-37.2156
-38.4778
-38.4806
-39.8357
-38.2998
-42.2449
-42.2464
-45.2079
-24.0289
-22.8605
-21.7812
-24.0136
-51.7837
60.4378
-74.7501
-22.1418
-47.2996
-62.0032
-48.1373
-31.5751
-35.4227
-32.3439
-44.2527
-35.575
-23.7656
119.952
16.0817
77.1568
-31.7331
-7.76146
-43.0097
-29.6195
-33.1261
-28.1369
-51.2432
-39.8824
-74.738
-22.2717
-51.7203
60.4499
-47.2829
-61.9952
-35.425
-32.393
-48.2259
-31.5654
-44.0075
-35.4979
16.2053
78.0644
-23.8151
119.779
-31.7329
-7.70679
-33.0971
-28.1446
-43.0299
-29.6086
-51.2389
-39.8714
-46.5572
-39.0301
-29.9909
-28.9026
-50.5079
-36.5987
-35.3006
-31.0076
-2.96614
-39.3092
-20.7227
-26.8187
-18.9101
-11.3691
-30.0618
-34.3856
-65.1845
-37.3946
-59.5575
-37.5391
-32.9802
-51.236
-17.6606
-52.2206
-21.8732
-45.4733
-21.7882
-16.1468
-25.4615
-40.5025
-52.4404
-48.8859
-46.5539
-39.1484
-35.2499
-31.014
-30.0018
-28.9125
-50.4922
-36.5853
-3.07063
-39.3196
-30.0638
-34.3932
-20.7104
-26.7972
-18.9986
-11.5326
-65.1805
-37.3777
-17.6535
-52.9768
-59.5218
-37.4982
-32.9693
-51.1962
-21.9534
-45.4824
-52.4593
-48.8875
-21.8535
-16.2527
-25.5402
-40.5282
-30.162
-27.0297
118.188
182.948
-61.2945
-61.283
82.6857
83.2491
-77.6458
-56.3908
-52.9681
-41.5012
-47.5057
-51.4921
-28.5532
-27.7606
-35.6525
-35.6941
-27.8802
-27.8722
-39.001
-46.5782
-40.7907
-36.6142
-9.75106
-9.74477
120.439
120.139
-67.4343
-46.6697
-26.7978
-16.8085
-34.9926
-34.9821
-24.9776
-24.9887
-53.3465
-22.9919
-45.5707
-39.8927
-30.1689
-26.9783
181.465
118.199
-77.6216
-56.3857
-52.963
-41.4996
-51.5457
-47.5306
-28.542
-27.7487
-39.0026
-46.4976
-40.7867
-36.6058
-46.6905
-67.4146
-16.7964
-26.8263
-23.1317
-53.3635
-39.8885
-45.5632
-25.0091
-20.9155
-28.6353
-28.2653
-53.2561
-57.5923
-29.5476
-30.5447
-37.657
-37.6596
-30.1034
-30.1063
-20.3005
-21.8596
-1.61217
-7.42796
-29.8903
-29.8883
-36.6932
-36.7518
-24.3962
-27.8797
-61.2427
-57.3614
2.00725
2.02347
-67.0434
-67.0021
-60.2935
-60.2979
-47.525
-47.5297
-25.0497
-21.0079
-28.6471
-28.2746
-57.5717
-53.2495
-29.543
-30.542
-21.9358
-20.3629
-1.78233
-7.59894
-27.942
-24.4788
-57.4249
-61.2884
-61.8769
-71.1775
-81.3634
-45.4585
-44.7793
-52.2134
-58.8209
-53.0382
-60.8978
-74.9388
-64.0117
-56.6965
-13.3522
-31.2279
-66.7658
-32.3485
-61.8461
-45.4336
-81.38
-71.1931
-13.4414
-32.3354
-66.8817
-31.2747
-60.8592
-56.6099
-63.9869
-74.9181
-44.7656
-53.0266
-58.807
-52.1927
-77.5252
-73.5599
-52.6039
-53.7369
-77.5117
-53.7322
-52.5959
-73.5429
-36.4439
-34.796
-41.3026
-42.598
-36.4437
-42.6003
-41.3067
-34.7972
12.9733
-26.5554
-24.7516
17.2549
-51.6881
-10.1684
-2.98461
-37.1507
-51.5741
-37.1737
-2.98646
-10.1857
13.0006
17.2818
-24.7471
-26.5686
-7.86031
77.0823
126.005
-14.7303
87.8757
80.4278
201.175
122.187
87.7273
122.014
201.417
80.3051
-7.79294
-14.4207
125.847
77.0752
-37.2236
-24.8534
-25.2012
-36.6618
-19.2118
-18.728
-21.2693
-21.215
-24.0775
-26.5308
-23.0387
-20.1405
-38.4996
-37.4091
-26.6403
-29.8574
-37.2038
-36.6429
-25.2526
-24.8871
-38.4624
-29.9027
-26.7078
-37.3677
-24.146
-20.2102
-23.1248
-26.6104
-19.3145
-21.3161
-21.3544
-18.811
-31.1283
-31.2505
-29.3897
-27.3884
-31.1378
-27.413
-29.3935
-31.2521
-28.3049
-30.9166
-29.29
-26.2103
-28.3179
-26.1818
-29.3036
-30.915
-56.7364
-47.4273
-73.6083
-47.1424
-39.6729
-56.445
-65.9646
-42.4061
-39.7081
-42.4335
-65.9739
-56.4607
-56.6819
-47.1558
-73.5882
-47.5111
-12.1785
-43.2359
-29.7001
-10.4242
-45.183
-49.6474
-48.0562
-44.4425
-41.7784
-61.1268
-50.911
-53.7832
-20.3663
-12.7549
-23.5521
-34.5972
-12.3364
-10.5911
-29.6447
-43.2717
-20.4513
-34.6149
-23.1115
-12.8889
-41.7972
-53.8622
-50.8977
-61.0467
-45.4816
-44.3472
-47.9901
-49.7517
-33.307
-34.4055
-39.9644
-42.4322
-33.3276
-42.2895
-39.9658
-34.4077
-36.4342
-34.49
-37.1506
-35.0452
-36.4246
-35.1224
-37.1414
-34.494
-39.4341
-48.3618
-45.1245
-50.3874
-35.567
-31.342
-38.7586
-44.1783
-35.545
-44.1613
-38.7549
-31.3352
-39.4644
-50.3902
-45.121
-48.3369
-35.0987
-29.043
-25.3299
-30.2825
-35.0943
-30.2718
-25.3193
-29.0349
-29.8413
-26.7133
-24.4217
-29.597
-29.8542
-29.6072
-24.4345
-26.6979
-49.3117
-118.041
-93.1247
-49.7865
-43.3797
-45.0517
39.7103
56.9572
16.834
-33.7004
-31.7215
-38.3441
-117.995
-49.5134
-93.104
-43.4139
-49.8464
-45.0311
57.0595
39.7334
16.9343
-31.7059
-33.6508
-38.3357
-40.6934
-39.0536
-50.4702
-35.2912
-24.3922
-22.1372
-19.1549
-29.3375
-55.5093
-48.8047
-45.0966
-59.6118
-27.0757
-24.5923
-27.5517
-34.5483
-40.6774
-35.294
-39.0516
-50.4571
-24.4712
-29.4029
-22.2311
-19.3012
-55.4899
-59.5725
-48.7932
-45.0687
-27.1416
-34.624
-24.6517
-27.6193
16.9735
15.6077
-22.5155
63.5477
-92.7933
-92.7594
-82.4244
-83.1926
-56.286
-48.5258
-63.6366
-49.0182
-37.3249
-36.5619
-44.6796
-31.1118
-32.8695
-32.869
-33.5006
-28.1027
-39.8379
-42.4883
-45.6013
-36.3593
49.0935
49.066
32.7014
61.3152
-35.5257
-63.4532
-67.4306
-39.5922
-27.4948
-27.4905
-29.9493
-25.8486
-52.98
-47.4262
-52.1734
-52.2889
18.0204
17.0082
-22.7219
63.5891
-56.2787
-48.5175
-63.6214
-49.0132
-37.3408
-36.5739
-44.8784
-31.0985
-39.6666
-42.3111
-45.4581
-36.39
-35.4516
-63.4919
-67.3602
-39.5672
-52.9244
-47.48
-52.1055
-52.3671
-23.6245
-22.0284
-22.4688
-24.5381
-50.537
-49.609
-55.5887
-41.9825
-32.8285
-32.8279
-33.7789
-31.9987
-16.1055
-16.7941
-17.9013
-13.8757
-32.5841
-32.5849
-31.8924
-33.4933
-31.6296
-30.5991
-29.2929
-38.8577
-31.8717
-31.4782
-20.073
-40.8463
-53.7305
-53.7329
-55.8956
-52.4063
-23.6789
-22.1492
-22.5633
-24.597
-50.5168
-49.6274
-55.6031
-41.9515
-16.213
-16.8851
-17.9895
-14.0051
-31.6731
-30.6584
-29.3545
-38.8705
-94.4373
-74.966
-78.5827
-66.8665
-94.31
-74.9522
-78.5217
-66.8407
-49.0232
-45.8804
-45.8757
-43.3455
-22.3721
-15.6978
-15.6944
-7.24518
170.505
147.199
196.4
170.771
-23.1059
-24.5186
-22.6854
-23.9272
-23.2096
-24.6061
-22.781
-24.0306
-29.3085
-29.4304
-29.4291
-29.303
-74.1477
-77.4054
-70.8058
-74.1508
-50.5818
-52.807
-53.4791
-60.8459
-50.5303
-52.7006
-53.4564
-60.6123
-37.8322
-38.5354
-38.5378
-39.8634
-40.3969
-42.114
-42.1146
-43.6129
-22.1581
-21.8948
-21.4298
-22.1448
-4.74744
11.2673
-50.1825
48.9921
-97.1427
-93.9682
-85.2658
-73.8021
-74.1702
-63.4894
-57.5098
-62.6588
-45.4981
-39.9808
-54.6967
-34.3325
-36.5246
-33.8612
-35.2356
-33.3814
-41.5052
-40.9134
-43.0773
-36.9606
26.6794
19.6162
-6.53512
83.2058
60.5548
54.8236
31.198
71.0557
-10.1816
-24.8839
-26.4523
-9.25156
-34.0093
-35.2169
-38.5236
-30.8626
-30.292
-28.743
-32.2764
-28.7864
-42.3219
-49.4834
-48.9217
-43.2143
-97.1319
-93.9465
-85.253
-73.831
-4.83128
11.1641
-50.2818
48.9137
-74.1532
-63.4862
-57.5011
-62.6518
-36.5313
-33.8609
-35.2397
-33.4885
-45.4724
-39.9016
-55.0139
-34.3257
-41.0221
-40.7704
-42.6494
-36.8783
60.8602
54.9898
31.1793
71.5834
26.6718
19.4157
-6.62447
83.3389
-10.2772
-24.9455
-26.4655
-9.31676
-30.2726
-28.7254
-32.2534
-28.7865
-34.0318
-35.2169
-38.5363
-30.8542
-42.3082
-49.4613
-48.9219
-43.1973
-40.1938
-43.2389
-44.0037
-39.9614
-31.0789
-26.7317
-29.4898
-28.1534
-53.3641
-51.7817
-52.6442
-42.6534
-33.4182
-32.8771
-34.3368
-31.9232
-29.2156
-44.3466
-9.99941
-39.0563
-22.5124
-19.5058
-15.718
-25.4189
-16.4667
-16.1774
-17.6878
-14.4332
-30.9332
-32.2037
-30.7848
-32.7697
-67.1879
-73.8188
-68.997
-57.2086
-47.5022
-48.0114
-55.6781
-41.7999
-37.0607
-33.626
-33.9673
-43.4315
-53.0009
-32.2153
-28.0147
-46.5878
-29.1791
-34.0446
-26.801
-37.4979
-20.9269
-18.306
-20.6042
-17.942
-28.5156
-29.795
-26.8853
-36.1622
-45.0796
-51.8466
-51.4542
-49.7123
-40.1875
-43.2327
-43.9995
-39.9584
-33.4222
-32.8792
-34.3391
-31.9281
-31.0821
-26.7558
-29.5013
-28.1768
-53.3652
-51.7717
-52.625
-42.6362
-29.2659
-44.3792
-10.1424
-39.0753
-30.9419
-32.2073
-30.7886
-32.7766
-21.5566
-19.8627
-15.1397
-25.2258
-16.5866
-16.2922
-17.794
-14.5711
-67.2167
-73.7561
-68.9674
-57.2058
-53.0944
-32.3102
-28.0591
-46.9152
-47.4885
-48.0137
-55.6534
-41.7723
-37.0284
-33.6347
-33.9538
-43.4082
-29.2561
-34.0168
-26.8388
-37.5328
-45.1091
-51.8549
-51.4669
-49.7192
-20.9884
-18.381
-20.6658
-18.0266
-28.6049
-29.868
-26.9625
-36.2154
-34.1536
-29.5784
-28.8814
-26.9429
134.781
167.817
134.419
168.668
-66.8804
-56.6358
-61.3298
-61.3206
58.2009
105.844
76.7609
77.9589
-68.7009
-70.359
-84.4577
-61.8302
-46.8853
-46.1892
-49.6173
-43.9573
-49.8939
-49.0601
-48.2856
-50.1669
-28.9653
-26.1147
-27.9871
-27.8108
-34.9381
-36.299
-35.5921
-35.6192
-26.6644
-24.9173
-27.8607
-27.8554
-49.3276
-51.9435
-56.4509
-48.0844
-36.2733
-38.3027
-39.1877
-36.9909
4.74142
-16.6364
-9.3553
-9.3535
91.6388
170.021
114.303
113.164
-90.4679
-84.1943
-74.9568
-85.5651
-33.9379
-22.8236
-29.8182
-22.7675
-32.6387
-36.4517
-34.5972
-34.5964
-24.7282
-22.222
-23.7564
-23.7667
-51.1578
-54.2013
-55.1924
-36.5823
-45.0537
-42.5808
-44.5585
-41.8226
-34.1124
-29.6859
-28.8737
-26.9082
134.772
166.629
167.965
134.465
-68.6852
-70.3397
-84.4487
-61.814
-46.8821
-46.1847
-49.6125
-43.8446
-49.969
-49.049
-50.2045
-48.3145
-28.9516
-26.1023
-27.9737
-27.7963
-49.2251
-51.8234
-56.2242
-48.0015
-36.4252
-38.3059
-39.1872
-36.9721
-90.438
-84.1382
-85.5902
-74.935
-33.8148
-22.805
-22.7574
-29.7677
-51.145
-54.1796
-36.5809
-55.1975
-45.0447
-42.5817
-41.8187
-44.555
-22.7307
-22.6387
-23.65
-21.7132
-27.4441
-28.7449
-28.3577
-28.1589
-54.0641
-57.4566
-54.2335
-56.3838
-33.1939
-27.6206
-29.7547
-30.403
-36.0994
-39.1818
-37.5798
-37.5822
-30.6996
-29.85
-30.1329
-30.1339
-19.9876
-21.4292
-20.5201
-21.2948
-7.39384
2.67872
-2.43649
-4.76918
-30.6703
-29.8462
-30.1716
-30.1708
-35.4655
-38.0334
-36.5979
-36.5985
-26.5607
-24.9898
-24.9467
-26.6349
-52.4401
-69.2086
-59.1522
-59.7122
-0.555154
7.42703
4.2095
4.20791
-60.6542
-74.8003
-68.0306
-68.0184
-59.7089
-65.0879
-61.579
-61.5831
-49.4812
-46.505
-47.694
-47.6967
-22.8254
-22.7378
-23.7204
-21.814
-27.4646
-28.7526
-28.3701
-28.1705
-54.0429
-57.4468
-56.3642
-54.2236
-33.164
-27.641
-29.7505
-30.3985
-20.0599
-21.4997
-21.3696
-20.5874
-7.60605
2.38488
-2.74953
-4.98794
-26.6432
-25.084
-26.7138
-25.0353
-52.4879
-69.2312
-59.7923
-59.1883
-42.8447
-38.5675
-31.5198
-35.6253
-49.0041
-49.939
-52.9957
-52.0828
-62.1344
-59.0737
-63.0161
-58.9162
-28.475
-31.3796
-27.7462
-22.513
-42.8153
-38.5479
-31.5364
-35.6163
-28.4623
-31.3574
-27.6911
-22.4778
-62.124
-59.0478
-62.9979
-58.8962
-49.0015
-49.9257
-52.9942
-52.0783
-67.2784
-61.72
-61.3421
-57.0475
-67.2682
-61.7122
-61.3334
-57.0411
-38.5617
-36.5696
-39.7462
-37.7652
-38.5621
-36.6241
-39.7473
-37.7593
1.83286
-10.1465
-9.45308
-19.8058
-19.7852
-9.69986
-11.348
-1.42386
-19.7774
-9.69511
-11.3406
-1.39925
1.47484
-10.1409
-9.43601
-19.8187
69.2944
27.5215
96.8645
84.3076
141.891
93.4961
165.398
123.091
94.6114
142.025
133.727
164.054
27.4722
69.4902
84.101
96.8498
-29.1386
-33
-26.7711
-29.2086
-20.3538
-19.6483
-20.4155
-20.1847
-22.5897
-24.3264
-22.4762
-23.9001
-34.513
-32.2226
-31.011
-29.5583
-29.1439
-32.9899
-26.7838
-29.2038
-34.4745
-32.2129
-31.0078
-29.5845
-22.6616
-24.4064
-22.5546
-23.9806
-20.3709
-19.7036
-20.4587
-20.2352
-29.2864
-30.2758
-29.0729
-29.8734
-30.2836
-29.2993
-29.8794
-29.0837
-29.3966
-28.028
-29.5231
-28.5086
-28.028
-29.3948
-28.5023
-29.5197
-58.7123
-58.3191
-62.3737
-64.0467
-46.2807
-53.3152
-55.9528
-58.3546
-53.3402
-46.3037
-58.37
-55.9414
-57.8471
-58.5467
-63.9558
-62.4077
-0.298017
-6.97574
-3.59902
-0.940589
-46.252
-45.2327
-46.688
-46.0965
-53.968
-58.0856
-54.2291
-55.3336
-17.831
-14.6171
-15.5506
-10.4786
-0.846307
-7.17453
-4.20041
-1.22454
-17.9717
-14.7611
-15.8018
-10.6353
-54.0258
-58.0987
-54.2775
-55.3326
-46.4081
-45.1392
-46.7247
-46.0286
-38.4363
-35.6913
-39.057
-36.9521
-38.451
-35.6992
-39.0648
-36.9549
-35.6799
-34.6921
-35.7195
-36.1463
-35.7594
-34.788
-35.7671
-36.0988
-48.3682
-48.2792
-46.5395
-47.4323
-34.126
-36.9941
-35.5182
-38.1197
-34.1136
-36.9945
-35.5149
-38.1152
-48.3798
-48.2869
-46.5354
-47.4373
-30.7701
-30.964
-29.0165
-28.0748
-30.949
-30.7552
-28.0608
-29.0047
-27.8049
-28.8296
-26.2755
-27.6843
-28.8387
-27.8107
-27.6964
-26.2851
-71.2383
-0.503993
-94.3173
-44.8975
-69.5702
-80.4061
-50.8117
-38.9296
-37.8255
-36.2618
-44.1421
-37.9849
2.22649
80.4272
32.7967
75.0659
-5.61192
15.4735
-38.223
-30.8187
-32.99
-30.1069
-41.7457
-37.0688
-94.3022
-44.7964
-71.258
-0.530711
-69.5267
-80.3908
-37.8404
-36.2729
-50.8185
-38.9039
-44.5645
-38.0539
32.475
74.949
2.22232
80.5008
-5.79081
15.3593
-32.9742
-30.0906
-38.2364
-30.8093
-41.7574
-37.0536
-41.4438
-37.7401
-36.1584
-31.6839
-49.1876
-43.3066
-35.046
-32.4839
-12.7923
-32.2397
-21.7492
-26.9833
-18.0243
-14.8645
-29.2235
-31.7154
-60.7762
-61.107
-53.8934
-42.9146
-39.143
-48.6342
-57.4843
-61.6693
-23.621
-35.6012
-23.2188
-21.2908
-25.9485
-35.2093
-39.6931
-39.7308
-41.427
-37.7379
-35.0481
-32.4905
-36.1297
-31.6908
-49.1565
-43.2913
-12.9458
-32.2747
-29.2295
-31.7371
-21.9084
-27.0213
-18.13
-14.999
-60.7371
-61.0949
-57.6129
-61.6396
-53.8689
-42.8871
-39.1072
-48.6044
-23.6931
-35.6604
-39.7293
-39.768
-23.2776
-21.3602
-26.0207
-35.3457
-36.425
58.5846
-12.4403
72.5758
-42.6661
-33.5723
83.1654
109.265
-82.5163
-73.736
-82.4944
-74.0388
-73.5461
-73.5325
-16.9922
-17.1928
-69.5718
-55.3225
-51.3243
-43.6177
-81.386
-58.3888
-50.5173
-44.9576
-53.5421
-32.1939
-39.3833
-30.9143
-50.9094
-53.4516
-29.944
-29.6154
-33.9324
-29.9477
-33.9319
-29.9891
-34.283
-34.2844
-29.4157
-29.3887
-43.28
-36.4769
-45.0158
-43.3397
-52.026
-45.4203
-38.0311
-36.2328
32.0109
64.2768
32.0421
64.319
17.7822
17.7919
80.9299
80.8815
-30.2967
-25.4454
-78.1212
-53.3913
-83.3953
-56.03
-30.9422
-39.1921
-30.8091
-27.6752
-30.8059
-27.7117
-31.0492
-31.0453
-26.2694
-26.2741
-56.8313
-48.0706
-36.1279
-43.8413
-58.5627
-42.4021
-49.5762
-46.148
-36.5707
58.6057
-12.5831
72.6743
-42.6596
-33.5912
109.151
83.1869
-69.5816
-55.3187
-51.3107
-43.6138
-81.3716
-58.3734
-50.5186
-44.9543
-54.6311
-32.1883
-39.4021
-30.9039
-53.6011
-51.0265
-29.9321
-29.6031
-43.1823
-36.4338
-44.9716
-43.1764
-51.799
-45.3093
-37.8353
-36.4804
-30.2778
-25.3908
-78.1017
-53.4259
-55.9663
-83.3884
-39.2388
-30.7695
-56.8578
-48.0397
-36.1797
-43.7913
-42.4775
-58.5469
-46.1286
-49.555
-24.71
-26.4146
-20.237
-23.9974
-23.9645
-22.1034
-26.8334
-26.2122
-54.0146
-42.289
-56.3222
-41.4477
-53.0773
-55.3155
-36.8034
-37.1872
-33.895
-32.0257
-33.8945
-32.0266
-34.8517
-34.8532
-31.3382
-31.3381
-17.5015
-13.7928
-19.0251
-15.2209
-18.7977
-19.4973
-10.5276
-11.6823
-31.5719
-33.381
-31.5737
-33.4716
-31.1812
-31.1803
-34.4536
-34.4543
-31.1163
-40.7791
-27.8877
-37.2779
-27.0034
-28.7152
-45.9636
-43.4674
-20.9258
-39.1538
-20.9508
-39.1919
-9.51422
-9.52424
-48.9627
-48.93
-54.7342
-51.5857
-54.7411
-51.5897
-57.4751
-57.4806
-50.8678
-50.8688
-24.7426
-26.4477
-20.4207
-24.0812
-24.0294
-22.2085
-26.8772
-26.2466
-54.0032
-42.2614
-56.2479
-41.4137
-55.2767
-53.0574
-36.7797
-37.1555
-17.598
-13.9293
-19.0995
-15.3312
-19.5713
-18.8795
-10.6921
-11.8291
-31.1532
-40.7789
-27.9621
-37.3107
-28.7778
-27.0804
-43.4688
-45.9699
-80.7989
-73.649
-88.7593
-64.665
-70.2876
-95.189
-59.9554
-62.6282
-80.9362
-73.7814
-88.6813
-64.6503
-95.2833
-70.2547
-62.6024
-59.9368
-52.5713
-52.5647
-49.0352
-43.5709
-49.0282
-43.566
-41.1122
-41.1154
-23.8014
-23.7997
-25.4212
-11.3764
-11.371
-25.4119
1.05895
1.05661
145.696
199.65
125.077
126.661
198.224