# vtk DataFile Version 2.0
tet_velo
ASCII
DATASET UNSTRUCTURED_GRID
POINTS 29498 float
-0.715 0.145 -2.13863
-0.701167 0.285 2.175
-0.741168 0.465 -2.085
-0.715 0.743744 2.125
0.715 0.145 -2.13852
0.701295 0.285 2.175
0.74106 0.465 -2.085
0.715 0.744058 2.125
-0.755246 0.146809 -0.700753
-0.800171 0.14394 0.737123
-0.820509 0.645978 -0.681667
-0.806395 0.733501 0.721667
0.755365 0.146733 -0.70068
0.800268 0.143929 0.73716
0.820497 0.646143 -0.681667
0.806424 0.733776 0.721667
-1.4956 -0.157727 -3.28229
-1.49565 -0.0951508 -2.14582
-1.5296 -0.0931086 -0.707056
-1.55554 -0.0982328 0.738664
-1.50575 -0.00656148 2.17802
-1.48691 0.0643085 3.31735
-1.49038 0.120699 4.45137
-1.49396 0.0536772 -3.26791
-1.49638 0.135998 -2.13522
-1.54124 0.161902 -0.703165
-1.56221 0.161092 0.731998
-1.47922 0.249845 2.16471
-1.46803 0.319034 3.30355
-1.48059 0.374843 4.43869
-1.5067 0.441129 -3.22944
-1.52353 0.520772 -2.09531
-1.58595 0.655574 -0.686801
-1.5754 0.718383 0.719257
-1.48951 0.747726 2.12842
-1.47436 0.813516 3.26869
-1.48429 0.87645 4.4094
-1.52651 1.13183 -3.19772
-1.54 1.22631 -2.06876
-1.56859 1.37347 -0.671454
-1.57844 1.48682 0.718411
-1.5583 1.54876 2.11608
-1.53824 1.59336 3.24578
-1.52683 1.64465 4.38272
-0.736858 -0.152902 -3.28449
-0.727627 -0.0869777 -2.14905
-0.751588 -0.0999141 -0.7066
-0.788403 -0.109855 0.743042
-0.753737 0.0101349 2.18566
-0.736311 0.0764742 3.32253
-0.73772 0.126833 4.45437
-0.734107 0.0517916 -3.26857
-0.716398 0.332323 3.30783
-0.728533 0.380934 4.44096
-0.742081 0.417584 -3.22516
-0.721042 0.815864 3.26801
-0.730819 0.878866 4.40926
-0.751996 1.11563 -3.19348
-0.758451 1.21097 -2.0641
-0.783575 1.36999 -0.66864
-0.801679 1.49158 0.718083
-0.793812 1.55143 2.11368
-0.777483 1.59414 3.24338
-0.76646 1.64519 4.38098
0.747902 -0.152881 -3.28442
0.742529 -0.0869781 -2.14896
0.769354 -0.0999479 -0.706534
0.777464 -0.109852 0.743079
0.715011 0.0101592 2.18567
0.735414 0.0765497 3.32254
0.753339 0.126937 4.45439
0.742308 0.0518105 -3.2685
0.737507 0.33242 3.30783
0.756094 0.381054 4.44097
0.753872 0.417612 -3.22512
0.741777 0.816063 3.26801
0.757458 0.879025 4.40927
0.787539 1.1157 -3.19346
0.795466 1.21106 -2.06408
0.792095 1.37012 -0.668624
0.765908 1.49175 0.718096
0.741648 1.55162 2.11369
0.742686 1.59433 3.2434
0.750938 1.64536 4.381
1.50149 -0.157669 -3.28216
1.50004 -0.0951151 -2.14568
1.53643 -0.0930892 -0.706945
1.5516 -0.0981548 0.738732
1.49137 -0.00643877 2.17805
1.4901 0.0644853 3.31738
1.50581 0.120911 4.4514
1.49558 0.0537372 -3.26779
1.49028 0.13605 -2.13508
1.53803 0.161944 -0.703059
1.56517 0.161217 0.732059
1.4868 0.250015 2.16474
1.48735 0.319252 3.30357
1.50592 0.375083 4.43872
1.51197 0.441212 -3.22937
1.51931 0.520875 -2.09525
1.58178 0.6558 -0.686755
1.57637 0.718741 0.719287
1.49644 0.748137 2.12844
1.49294 0.813869 3.26871
1.50846 0.876756 4.40942
1.5554 1.13199 -3.19766
1.56693 1.2265 -2.06872
1.57256 1.37373 -0.671417
1.54949 1.48715 0.718441
1.51731 1.54912 2.1161
1.50948 1.59371 3.2458
1.5134 1.64498 4.38275
-0.704239 0.305 -2.08797
0 0.144293 -2.13928
-0.739004 0.142024 -1.41969
-0.735893 0.514372 2.17781
6.40154e-05 0.261522 2.19848
-0.766722 0.198417 1.45606
-5.40018e-05 0.534206 -2.15421
-0.818354 0.593005 -1.38333
0 0.747373 2.12847
-0.772939 0.750864 1.42333
0.70421 0.305 -2.08794
0.739026 0.142023 -1.4196
0.735718 0.514529 2.17757
0.766792 0.198454 1.45608
0.81832 0.593113 -1.38333
0.77283 0.751036 1.42333
-0.775085 0.147999 0.018185
-0.852844 0.396394 -0.69121
5.93101e-05 0.141903 -0.700717
-0.86708 0.438721 0.729395
4.83351e-05 0.14406 0.737142
-0.821106 0.697394 0.02
-6.30348e-06 0.818916 -0.681667
1.45262e-05 1.09898 0.721667
0.775094 0.148054 0.01824
0.855021 0.396438 -0.691173
0.871586 0.438852 0.729413
0.821063 0.697562 0.02
-0.83576 0.350697 -1.40151
-0.863281 0.417557 0.0190925
-0.860732 0.476546 1.4397
2.96551e-05 0.136307 -1.41965
5.38226e-05 0.142993 0.0182125
5.61753e-05 0.169126 1.45607
-2.70009e-05 0.305 -2.21211
3.20077e-05 0.514451 2.19611
-3.01526e-05 0.741601 -1.38333
4.11137e-06 1.11301 0.02
7.26311e-06 0.917037 1.42333
0.835748 0.350719 -1.40147
0.863283 0.417645 0.01912
0.860869 0.476691 1.43971
-1.10569 0.140499 -2.13692
-0.721314 0.0290111 -2.14384
-0.724554 0.0983958 -2.7036
-1.09019 0.267423 2.16985
-0.727452 0.147567 2.18033
-0.708782 0.308662 2.74141
-1.13235 0.492886 -2.09015
-0.741624 0.441292 -2.65508
-0.749809 0.837985 -2.07455
-1.10226 0.745735 2.12671
-0.718021 0.779804 2.6965
-0.754406 1.14759 2.11934
0.728764 0.029011 -2.14374
0.728654 0.0984053 -2.70351
1.10264 0.140525 -2.1368
0.708153 0.14758 2.18033
0.719401 0.30871 2.74142
1.09405 0.267508 2.16987
0.747466 0.441306 -2.65506
0.768263 0.838031 -2.07454
1.13018 0.492937 -2.09012
0.728388 0.780061 2.69651
0.728324 1.14784 2.11935
1.10572 0.746098 2.12672
-1.14824 0.154356 -0.701959
-0.753417 0.0234475 -0.703677
-1.18119 0.152516 0.734561
-0.794287 0.0170425 0.740083
-1.20323 0.650776 -0.684234
-0.802042 1.00798 -0.675154
-1.1909 0.725942 0.720462
-0.804037 1.11254 0.719875
0.762359 0.0233927 -0.703607
1.1467 0.154338 -0.701869
0.788866 0.0170386 0.740119
1.18272 0.152573 0.73461
0.806296 1.00813 -0.675146
1.20114 0.650971 -0.684211
0.786166 1.11277 0.719881
1.1914 0.726258 0.720477
-1.49562 -0.126439 -2.71405
-1.49478 -0.0520248 -3.2751
-1.11623 -0.155314 -3.28339
-1.51263 -0.0941297 -1.42644
-1.49601 0.0204235 -2.14052
-1.11164 -0.0910643 -2.14744
-1.54257 -0.0956707 0.0158038
-1.53542 0.0343966 -0.70511
-1.1406 -0.0965114 -0.706828
-1.53064 -0.0523971 1.45834
-1.55887 0.0314296 0.735331
-1.17197 -0.104044 0.740853
-1.49633 0.0288735 2.74768
-1.49248 0.121642 2.17136
-1.12974 0.00178669 2.18184
-1.48864 0.0925036 3.88436
-1.47747 0.191671 3.31045
-1.11161 0.0703914 3.31994
-1.48548 0.247771 4.44503
-1.11405 0.123766 4.45287
-1.49517 0.0948375 -2.70156
-1.50033 0.247403 -3.24867
-1.11403 0.0527344 -3.26824
-1.51881 0.14895 -1.41919
-1.50996 0.328385 -2.11526
-1.55172 0.161497 0.0144167
-1.5636 0.408738 -0.694983
-1.52071 0.205469 1.44835
-1.5688 0.439737 0.725628
-1.47362 0.28444 2.73413
-1.48437 0.498786 2.14657
-1.47431 0.346938 3.87112
-1.4712 0.566275 3.28612
-1.09221 0.325678 3.30569
-1.48244 0.625647 4.42405
-1.10456 0.377889 4.43983
-1.51511 0.48095 -2.66237
-1.51661 0.78648 -3.21358
-1.12439 0.429356 -3.2273
-1.55474 0.588173 -1.39105
-1.53177 0.873541 -2.08204
-1.58068 0.686978 0.0162279
-1.57727 1.01452 -0.679128
-1.53246 0.733055 1.42384
-1.57692 1.1026 0.718834
-1.48194 0.780621 2.69855
-1.52391 1.14824 2.12225
-1.47933 0.844983 3.83904
-1.5063 1.20344 3.25723
-1.0977 0.81469 3.26835
-1.50556 1.26055 4.39606
-1.10755 0.877658 4.40933
-1.53326 1.17907 -2.63324
-1.13925 1.12373 -3.1956
-1.55429 1.29989 -1.37011
-1.14922 1.21864 -2.06643
-1.57351 1.43014 0.0234784
-1.17608 1.37173 -0.670047
-1.56837 1.51779 1.41724
-1.19006 1.4892 0.718247
-1.54827 1.57106 2.68093
-1.17606 1.55009 2.11488
-1.53254 1.619 3.81425
-1.15786 1.59375 3.24458
-1.14665 1.64492 4.38185
-0.732243 -0.11994 -2.71677
-0.735483 -0.050555 -3.27653
0.0055221 -0.152891 -3.28445
-0.739608 -0.0934459 -1.42782
0.00745063 -0.0869779 -2.149
-0.769995 -0.104885 0.018221
0.00888311 -0.099931 -0.706567
-0.77107 -0.0498602 1.46435
-0.00546931 -0.109853 0.74306
-0.745024 0.0433046 2.75409
-0.0193627 0.010147 2.18566
-0.737015 0.101654 3.88845
-0.726354 0.204399 3.31518
-0.000448361 0.076512 3.32254
-0.733126 0.253884 4.44767
0.00780973 0.126885 4.45438
-0.738094 0.234688 -3.24687
0.00410039 0.0518011 -3.26854
-0.722465 0.356629 3.87439
-0.71872 0.574094 3.28792
0.0105543 0.332372 3.30783
-0.729676 0.6299 4.42511
0.0137806 0.380994 4.44097
-0.747038 0.766607 -3.20932
0.00589564 0.417598 -3.22514
-0.72593 0.847365 3.83863
-0.749263 1.205 3.2557
0.0103676 0.815964 3.26801
-0.748639 1.26203 4.39512
0.0133197 0.878945 4.40926
-0.755223 1.1633 -2.62879
0.0177715 1.11567 -3.19347
-0.771013 1.29048 -1.36637
0.0185076 1.21102 -2.06409
-0.792627 1.43078 0.0247211
0.00426021 1.37005 -0.668632
-0.797746 1.5215 1.41588
-0.0178856 1.49167 0.718089
-0.785648 1.57278 2.67853
-0.0260818 1.55153 2.11369
-0.771972 1.61967 3.81218
-0.0173985 1.59423 3.24339
-0.00776119 1.64528 4.38099
0.745215 -0.11993 -2.71669
0.745105 -0.0505353 -3.27646
1.1247 -0.155275 -3.28329
0.755941 -0.093463 -1.42775
1.12128 -0.0910466 -2.14732
0.773409 -0.1049 0.0182723
1.15289 -0.0965185 -0.706739
0.746238 -0.0498462 1.46437
1.16453 -0.104003 0.740905
0.725213 0.0433545 2.75411
1.10319 0.00186023 2.18186
0.744377 0.101743 3.88846
0.73646 0.204485 3.31519
1.11276 0.0705175 3.31996
0.754716 0.253995 4.44768
1.12957 0.123924 4.45289
0.74809 0.234711 -3.24681
1.11895 0.0527738 -3.26815
0.7468 0.356737 3.8744
0.739642 0.574242 3.28792
1.11243 0.325836 3.3057
0.756776 0.630039 4.42512
1.13101 0.378069 4.43985
0.770705 0.766658 -3.20929
1.13292 0.429412 -3.22724
0.749618 0.847544 3.83864
0.742232 1.2052 3.2557
1.11736 0.814966 3.26836
0.754198 1.26219 4.39513
1.13296 0.877891 4.40935
0.791502 1.16338 -2.62877
1.17147 1.12385 -3.19556
0.79378 1.29059 -1.36635
1.1812 1.21878 -2.0664
0.779002 1.43094 0.0247356
1.18233 1.37193 -0.670021
0.753778 1.52169 1.41589
1.1577 1.48945 0.718268
0.742167 1.57298 2.67854
1.12948 1.55037 2.1149
0.746812 1.61984 3.8122
1.12608 1.59402 3.2446
1.13217 1.64517 4.38187
1.50077 -0.126392 -2.71392
1.49854 -0.0519659 -3.27497
1.51823 -0.0941021 -1.42631
1.49516 0.0204674 -2.14038
1.54401 -0.095622 0.0158936
1.53723 0.0344272 -0.705002
1.52148 -0.0522968 1.45839
1.55838 0.031531 0.735395
1.49074 0.0290233 2.74771
1.48908 0.121788 2.17139
1.49795 0.092698 3.88439
1.48872 0.191869 3.31047
1.50586 0.247997 4.44506
1.49293 0.0948935 -2.70143
1.50378 0.247475 -3.24858
1.51415 0.148997 -1.41907
1.50479 0.328462 -2.11516
1.5516 0.16158 0.0145002
1.5599 0.408872 -0.694907
1.52598 0.205616 1.4484
1.57077 0.439979 0.725673
1.48707 0.284634 2.73415
1.49162 0.499076 2.14659
1.49663 0.347168 3.87115
1.49014 0.56656 3.28614
1.50719 0.62592 4.42407
1.51564 0.481043 -2.66231
1.53369 0.786599 -3.21351
1.55054 0.588337 -1.391
[...]
POINT_DATA 29498
VECTORS point_vectors float
-7.12683 -8.19563 15.3508
0.0977663 0.203265 0.868138
-6.33983 1.98777 10.2721
0.184703 -0.477746 2.37106
7.11878 -8.18998 15.3496
-0.103154 0.202777 0.868865
6.25715 2.01425 10.1281
-0.193564 -0.473396 2.396
0.00199224 0.00033851 0.161967
0.0347161 0.0212264 1.80099
-0.0555611 -0.0652288 0.309736
0.0170202 0.0253877 0.108092
-0.00113585 0.000628226 0.16537
-0.0347384 0.0205471 1.80769
0.0558895 -0.0659254 0.311612
-0.0164304 0.0246784 0.106464
-0.439756 -0.158609 19.8392
-1.08766 -0.512541 20.2835
-0.490694 -0.408963 21.0613
0.0761351 -0.126692 21.2607
0.66254 0.140748 21.0834
0.848182 0.101131 20.9642
0.697794 -0.0818707 20.7194
-0.503806 -0.119137 19.7988
-1.31657 -0.387662 20.2194
-0.651177 -0.437693 21.0878
0.0426328 -0.196947 21.3206
0.796786 -0.00455734 21.1547
0.954365 -0.06621 20.8371
0.80638 -0.158233 20.8966
-0.545444 0.00445315 19.7416
-1.40366 -0.00509191 20.1919
-0.956819 -0.236377 21.0218
-0.156306 -0.262947 21.4075
0.672157 -0.338404 21.1548
0.786826 -0.42866 20.8378
0.589355 -0.355183 20.6938
-0.464928 0.21256 19.8314
-0.970371 0.454126 20.1918
-0.901926 0.302469 20.8678
-0.290545 -0.0126304 21.2515
0.216259 -0.329323 21.0823
0.332952 -0.3728 20.7742
0.279563 -0.324542 20.5646
-0.429128 -0.365971 19.38
-2.19469 -3.44606 20.3651
0.0630276 -0.2411 19.7564
0.222557 0.250238 19.3988
0.615252 1.30897 16.2657
1.18311 1.40781 15.8934
0.976927 0.477031 15.569
-0.480684 -0.271837 19.2495
1.6008 1.29614 11.1096
1.33937 0.359971 12.2226
-0.592318 0.0209175 19.0773
1.83762 -0.81765 11.8104
0.940453 -0.252307 14.9674
-0.45992 0.447543 19.3873
-1.41047 1.81787 19.7429
-1.56357 1.53459 20.7192
-0.496654 0.24708 21.8791
0.125531 -0.599747 21.2422
0.268801 -0.753863 20.6667
0.0926949 -0.525882 20.842
0.437118 -0.354858 19.3976
2.24716 -3.35042 20.3567
-0.0559019 -0.262495 20.035
-0.216407 0.255436 19.3155
-0.504983 1.27877 15.6165
-1.17143 1.40816 15.9007
-0.970468 0.480516 15.774
0.486357 -0.265923 19.2586
-1.62821 1.2567 11.8983
-1.3074 0.337712 12.6124
0.602834 0.018935 19.0906
-1.86417 -0.811817 12.3221
-0.913993 -0.285679 15.2891
0.470532 0.43211 19.4145
1.41892 1.7143 19.7799
1.56469 1.51234 20.7263
0.491095 0.273572 21.919
-0.112092 -0.611377 21.249
-0.256242 -0.761132 20.7006
-0.087257 -0.530296 20.8654
0.442794 -0.156858 19.835
1.08166 -0.506771 20.2899
0.497603 -0.41132 21.059
-0.0816445 -0.125758 21.265
-0.666417 0.155817 21.0972
-0.833199 0.0996779 20.9537
-0.696165 -0.0972371 20.6755
0.507203 -0.118437 19.7969
1.32962 -0.39621 20.2203
0.655385 -0.443437 21.0922
-0.0408685 -0.19778 21.3216
-0.785475 -0.00946732 21.1532
-0.928477 -0.062713 20.8073
-0.812467 -0.186192 20.8362
0.541782 0.00427599 19.75
1.41502 -0.00439689 20.2003
0.96126 -0.237283 21.0304
0.158032 -0.262927 21.4121
-0.667175 -0.333781 21.1542
-0.76683 -0.414516 20.7974
-0.575243 -0.335616 20.6763
0.464544 0.205139 19.8455
0.95392 0.436364 20.2056
0.898863 0.300086 20.8692
0.299312 -0.0208331 21.266
-0.215798 -0.335655 21.1012
-0.330326 -0.382687 20.7646
-0.276042 -0.330561 20.5448
-2.75472 -0.704439 3.08585
-0.000756393 -0.0270559 0.128358
0.00944409 -0.00376265 0.402743
0.131506 -0.0978269 0.492742
-0.000703614 -0.0191855 0.0294353
0 0 0
5.74202e-05 0.508999 0.690089
-0.135199 -0.0145962 0.689751
-0.000945851 0.0916918 -0.195673
0.0744888 0.0562331 0.467138
2.75968 -0.704306 3.09703
-0.00964746 -0.00423998 0.404604
-0.133659 -0.0969231 0.494096
0 0 0
0.134135 -0.0144981 0.685522
-0.0731055 0.0548034 0.461419
-0.00777429 0.00469675 0.626597
0 0 0
-4.59304e-07 -2.2528e-06 0.00260376
0 0 0
4.60628e-05 0.000906327 0.0453254
0.00679201 0.0281057 0.161609
-0.00337104 0.014156 0.0385824
-2.31828e-05 -0.00056779 0.0114448
0.00775705 0.0048913 0.632149
0 0 0
0 0 0
-0.00673609 0.0276791 0.158261
-0.01117 -0.0461905 0.463327
0 0 0
0 0 0
5.03454e-05 -1.71152e-05 0.0129157
-8.40357e-08 1.00337e-07 0.000131144
5.88709e-08 6.75181e-06 0.000398074
0.00162995 -0.108266 0.0396457
0 0 0
-0.000357042 0.0308264 0.247021
0.000379361 0.0472516 0.304073
5.29175e-05 0.00127929 -0.00362611
0.0110961 -0.0456865 0.458667
-6.35544e-19 -4.59677e-18 -3.88083e-17
0 0 0
-2.6455 -1.17692 20.0864
-3.69401 -5.23841 20.2154
-1.43657 -0.953965 18.2785
1.31291 0.452924 18.6721
0.530592 1.18589 9.54616
0.927135 1.08382 7.12821
-3.03088 0.0904066 19.9089
-1.85739 0.169037 17.8073
-3.01264 2.9753 19.1695
1.14051 -0.456973 19.2216
0.925047 -0.42967 7.87787
0.592482 -0.732309 17.7108
3.71336 -5.12102 20.1954
1.43646 -0.947039 18.2911
2.66708 -1.19297 20.0786
-0.44685 1.15893 9.00929
-0.968052 1.08337 7.41525
-1.30929 0.443035 18.74
1.85638 0.168266 17.8306
3.01302 2.84639 19.218
3.04365 0.0929951 19.9073
-0.969861 -0.424459 8.19862
-0.594473 -0.738979 17.2639
-1.13043 -0.464199 19.2463
-0.577423 -0.889268 21.1346
0.313243 -0.0354713 13.8549
0.189137 -0.248044 20.9188
0.157639 0.262956 14.4912
-1.58905 -0.664023 21.2021
-2.95685 1.38144 20.2586
-0.226275 -0.523271 21.0405
-0.454832 0.0858521 18.9439
-0.297272 -0.0488773 14.0967
0.57834 -0.89202 21.1194
-0.159258 0.261688 14.427
-0.185589 -0.24961 20.9254
2.94786 1.35772 20.2782
1.59401 -0.667141 21.2042
0.320881 0.191614 18.0418
0.224704 -0.517706 21.0292
-0.78734 -0.329803 19.9088
-0.477384 -0.142148 19.8266
-0.482583 -0.252825 19.6266
-0.838639 -0.490948 20.8452
-1.20224 -0.460131 20.2535
-1.73128 -1.25472 20.2293
-0.2044 -0.281823 21.2006
-0.57479 -0.432854 21.0709
-0.318295 -0.649136 21.2653
0.373258 0.0233739 21.2429
0.0594216 -0.165965 21.2729
0.191888 -0.109015 21.4104
0.801718 0.191591 20.917
0.737495 0.0741427 21.1353
1.00698 0.506133 20.7664
0.775104 0.0425155 20.3463
0.906556 0.0204775 20.8032
1.18026 0.530768 20.6453
0.75225 -0.117422 20.8157
0.786253 0.379504 20.6345
-0.901733 -0.242314 19.8331
-0.521904 -0.0612629 19.7472
-0.557528 -0.214271 19.5583
-1.04689 -0.458252 20.8625
-1.43752 -0.209468 20.2003
-0.316904 -0.350165 21.2327
-0.828077 -0.374512 21.0685
0.428178 -0.0682577 21.331
-0.0605748 -0.255124 21.3829
0.931533 0.0128007 20.9595
0.791407 -0.187425 21.1232
0.89118 -0.122233 20.5037
0.934807 -0.271185 21.1187
1.45939 0.344603 18.3856
0.768642 -0.352196 20.8297
1.05892 0.106699 17.4287
-0.990353 0.0074924 19.7899
-0.511598 0.126672 19.7681
-0.646559 0.018714 19.4473
-1.2586 -0.125679 20.7661
-1.26883 0.300999 20.1649
-0.632966 -0.281498 21.2815
-1.04194 0.0706155 20.9469
0.30736 -0.265662 21.3661
-0.288968 -0.160141 21.361
0.799492 -0.397518 20.9471
0.395074 -0.397542 21.1123
0.635385 -0.351681 20.6946
0.464198 -0.518781 20.7524
1.21965 -0.669709 18.7925
0.345626 -0.31287 20.3755
0.658047 -0.585002 19.8903
-0.733141 0.354364 19.9151
-0.512294 0.331482 19.6119
-0.990831 0.409871 20.5744
-1.27251 0.950405 20.0157
-0.663663 0.157637 21.1589
-1.30245 0.6992 20.8889
0.0246557 -0.202778 21.1957
-0.423866 0.0558926 21.5362
0.261539 -0.378503 20.9763
0.202301 -0.468725 21.1358
0.329521 -0.397307 20.6778
0.333183 -0.573585 20.7728
0.208365 -0.403689 20.3701
-1.05864 -1.14593 18.946
-0.454906 -0.318904 19.3147
0.00219715 -0.500335 19.113
-0.472792 -0.871921 21.0591
-0.00430765 -5.17294 21.2708
0.149176 -0.038125 19.3103
-0.00143713 -0.302855 17.1546
0.321257 0.682958 17.5419
0.00458629 0.0799617 15.7931
0.778933 1.43953 16.1675
-0.0182353 0.638668 10.9392
0.916281 1.0491 16.4343
1.40922 1.58685 13.9314
-0.00238412 1.12598 10.634
1.17485 0.463186 13.6717
-0.0130586 1.26722 12.9202
-0.546093 -0.167665 19.1141
0.00352264 -0.453791 18.8914
1.72077 0.766858 11.9687
1.80848 0.142899 10.4288
-0.0134695 0.524022 0.80638
1.34451 0.0338778 12.2779
-0.0324264 0.750372 8.52072
-0.551791 0.300161 19.1491
0.00566027 0.045764 18.6051
1.06502 -0.86872 13.3546
0.508174 -1.04521 19.0256
-0.019846 -0.506074 -0.458799
0.311584 -0.634776 20.6607
-0.0443578 -0.991554 8.09514
-0.903702 1.07399 19.2292
0.00922601 0.624404 19.1105
-1.42616 1.59732 20.4936
0.0474027 2.96788 19.4677
-1.44228 1.26817 21.7335
0.0120267 2.90044 20.2704
-0.0318979 -0.348912 21.5515
-0.0164621 0.594428 22.3837
0.206332 -0.69903 21.0852
0.00115568 -0.537347 21.4153
0.131293 -0.704794 20.4741
0.0106805 -0.747758 21.0869
0.00125784 -0.519161 21.0614
1.06199 -1.11948 18.979
0.461738 -0.31039 19.3281
0.487156 -0.25228 19.6291
0.47449 -0.889051 21.1573
1.71517 -1.22678 20.2307
-0.144765 -0.0320076 19.3856
0.33694 -0.64176 21.2585
-0.289845 0.680305 17.2636
-0.192335 -0.106533 21.3933
-0.707266 1.45627 15.7088
-1.0056 0.574077 20.5895
-0.919279 1.03523 16.4928
-1.43351 1.56436 13.9573
-1.17838 0.531914 20.637
-1.15848 0.466525 13.9606
-0.771821 0.367087 20.8679
0.552898 -0.164497 19.1224
0.558808 -0.21591 19.5574
-1.66353 0.722727 12.6366
-1.8514 0.126356 11.1564
-1.4393 0.277056 18.6867
-1.31628 0.0109089 12.647
-1.03991 0.0886473 17.8032
0.565852 0.290082 19.1754
0.646046 0.0174755 19.4573
-1.06477 -0.847724 13.7611
-0.498006 -1.04934 18.8572
-1.1689 -0.662897 19.1439
-0.308319 -0.641253 20.7314
-0.645554 -0.598652 20.2416
0.917332 1.03053 19.2696
0.510202 0.317133 19.6311
1.43594 1.54879 20.5004
1.25338 0.895461 20.034
1.44249 1.3004 21.7528
1.29324 0.689571 20.8905
0.0368416 -0.357899 21.5576
0.431725 0.0662208 21.5571
-0.193198 -0.708915 21.088
-0.198499 -0.483402 21.1467
-0.114324 -0.714365 20.4804
-0.333814 -0.584676 20.817
-0.202689 -0.411734 20.3868
0.783135 -0.322714 19.9094
0.481463 -0.141132 19.8239
0.843022 -0.489921 20.8379
1.20413 -0.462643 20.2611
0.212738 -0.288549 21.1916
0.576404 -0.437209 21.0737
-0.375961 0.0298978 21.2555
-0.0621968 -0.165329 21.2788
-0.810712 0.183326 20.887
-0.736129 0.0794693 21.1404
-0.759844 0.0243903 20.3961
-0.881232 0.022301 20.7811
-0.755356 -0.139567 20.7642
0.905916 -0.243886 19.826
0.522288 -0.0630651 19.7547
1.05475 -0.468178 20.8646
1.45272 -0.211844 20.1996
0.314092 -0.349047 21.2325
0.829057 -0.37742 21.0792
-0.424754 -0.0734026 21.3276
0.0631518 -0.254945 21.3876
-0.914029 -0.000414462 20.9662
-0.780794 -0.184743 21.1239
-0.848204 -0.131439 20.6164
-0.933291 -0.260668 21.1041
-0.759441 -0.330775 20.812
0.990034 0.00679989 19.7993
0.507087 0.124219 19.7814
1.2671 -0.12447 20.7729
1.25189 0.294454 20.177
0.632925 -0.282123 21.2887
1.04163 0.0705507 20.9523
-0.309425 -0.2637 21.369
0.292314 -0.162826 21.3725
-0.78311 -0.385869 20.953
-0.401524 -0.409864 21.1175
-0.600784 -0.343921 20.7678
-0.467374 -0.521825 20.7519
-0.336417 -0.315258 20.3698
0.727419 0.34273 19.9319
0.979618 0.40324 20.5763
0.67412 0.156425 21.1665
-0.0182484 -0.211331 21.2149
-0.264142 -0.390283 20.9782
-0.322659 -0.396857 20.7115
-0.847775 -0.300286 19.8747
-1.28202 -1.11967 18.6501
-1.01219 -0.624569 19.5451
-1.25643 -0.513862 19.3322
-0.527937 -0.234709 19.59
-2.11512 -1.2808 20.1762
-0.944658 -0.487474 20.854
0.290701 -0.378048 15.775
-0.899721 -0.974128 21.1803
-1.41262 -1.11666 21.3209
-0.411925 -0.789289 21.2655
-0.254736 -0.327494 21.2139
0.148214 0.0647836 13.8093
-0.0564371 -0.40348 21.3404
-0.168777 -0.606175 20.9987
0.212477 -0.18352 21.2578
0.392995 -0.0204493 21.2766
0.0688212 0.52018 10.9908
0.575023 0.245335 21.1834
0.707435 0.187658 19.8252
1.19345 0.514501 19.9476
0.879323 0.1241 20.9498
0.874876 1.39869 11.8774
1.1527 0.608965 20.4647
1.52549 0.423247 19.1843
1.27022 0.518882 19.134
0.82196 -0.0529518 20.5
1.30316 0.934637 13.6308
1.04376 0.408511 20.4767
1.36901 0.112146 19.5283
0.915184 0.244489 18.8659
-0.989974 -0.122872 19.7885
-1.78308 -0.52695 17.8613
-1.49421 0.0612103 19.1717
-0.589665 -0.114836 19.4728
-3.13177 -0.639002 19.965
-1.17284 -0.303049 20.8291
-2.09048 -0.308658 21.083
-1.01821 -0.908903 21.2851
-0.474522 -0.352751 21.2688
-1.04049 -0.738923 21.3039
0.0878219 -0.378805 20.5922
0.384386 -0.187744 21.3552
0.630909 -0.379077 20.1117
1.3746 0.039925 18.2633
0.912539 -0.223074 20.9286
1.03061 0.158432 5.17052
1.23652 -0.605111 19.6484
1.6348 -0.0985902 18.6655
0.829115 -0.274214 20.7174
1.71424 0.111487 11.7543
0.939862 -0.603207 18.9602
1.07181 -0.220161 17.4779
-0.906187 0.226455 19.8239
-1.4364 1.04423 18.5116
-0.924198 0.666851 19.6131
-0.580777 0.208679 19.4996
-2.09305 0.89237 19.9089
-1.20423 0.198544 20.6524
-2.62924 1.82094 20.8443
-1.32428 0.837174 20.5696
-1.80168 0.234365 20.9877
-0.758006 -0.0573234 21.2559
-2.97478 0.379625 20.4494
-1.03084 0.456327 21.3903
-0.501159 -0.172599 21.7589
0.132852 -0.284304 21.29
0.568164 -0.423975 17.8263
0.0156955 -0.280293 21.362
0.43977 -0.681252 21.2549
0.497103 -0.467854 20.9468
0.565589 -0.940616 18.6281
0.292245 -0.555523 20.962
0.528837 -0.783523 20.5914
0.394643 -0.382138 20.4189
0.534359 -0.92516 19.439
0.298561 -0.516173 20.6977
0.390346 -0.565225 20.637
1.28943 -1.10898 18.6802
0.0121071 -1.84095 18.189
0.00791761 -1.6585 16.8427
0.00230877 -0.5085 18.9793
-0.0195628 -7.33537 23.3328
-0.260635 -0.412012 16.0722
-0.0102391 -0.935243 19.7532
0.0100079 -0.0309747 8.96211
-0.145856 0.0718045 13.8832
0.00173367 -0.151041 16.0142
0.00691196 0.112586 9.07818
-0.0727393 0.486149 10.6423
0.00751351 0.346799 13.2124
-0.0262196 0.327678 4.12039
-0.855192 1.39879 11.7477
-0.0339571 0.584625 10.4432
0.00220622 -0.44618 -1.03274
-0.0171793 1.02288 5.23899
-1.31628 0.898518 13.7487
0.0113616 1.28916 10.8775
-0.01419 0.242147 1.8301
-0.0218913 1.04699 11.003
1.78856 -0.526712 17.8755
0.0135094 0.597185 15.7311
0.00581121 -0.23085 18.7447
-1.07657 0.147483 5.43616
-0.00122561 0.0909281 -2.00502
-0.0251977 -0.535985 -3.7936
-1.65776 0.065364 12.4134
-0.0465783 -0.543451 4.17019
-0.0392743 -0.246123 6.22843
1.44285 1.01502 18.5511
0.0243909 1.66664 18.7254
0.00982642 0.427984 18.7824
0.0446611 5.64981 18.6034
2.62836 1.76659 20.843
0.0234152 2.58101 20.3654
-0.0149 3.1468 16.4535
3.01506 0.389523 20.3802
-0.00491839 2.97239 22.4197
-0.000640356 -0.107342 9.17983
-0.637911 -0.378569 16.9616
-0.00469063 -0.290553 21.7431
-0.00130429 -0.338569 7.7071
-0.567072 -0.93763 18.3679
0.00113822 -0.691912 21.2611
0.000183281 -1.04902 14.1613
-0.533099 -0.92944 19.4109
0.00106887 -0.693535 21.0484
-0.00351937 -1.20262 14.5822
0.849937 -0.29876 19.869
1.00978 -0.617006 19.5591
1.25825 -0.517549 19.3313
0.529729 -0.236129 19.5896
2.10795 -1.26846 20.1752
0.948382 -0.494924 20.8492
0.90934 -0.957468 21.1641
1.42 -1.12407 21.3225
0.423734 -0.781188 21.2607
0.257631 -0.334077 21.2042
0.0618006 -0.400701 21.3389
0.167575 -0.605065 20.9908
-0.210682 -0.181411 21.2438
-0.39332 -0.0143838 21.2867
-0.578888 0.26691 21.1403
-0.705483 0.183695 19.8617
-1.18544 0.550701 19.7699
-0.867414 0.110338 20.941
-1.15647 0.639471 20.4205
-1.5071 0.390296 19.337
-1.25838 0.483533 19.2856
-0.796958 -0.0644704 20.5827
-1.03897 0.4142 20.4947
-1.37352 0.0862337 19.5622
-0.89811 0.229782 19.1703
0.992154 -0.123805 19.7846
1.48866 0.0581584 19.1834
0.591303 -0.114 19.4801
3.18914 -0.648563 19.9676
1.18161 -0.305579 20.8349
2.0969 -0.306123 21.0859
1.01927 -0.91131 21.2836
0.470901 -0.351066 21.2802
1.03961 -0.739555 21.2934
-0.0854058 -0.382874 20.6324
-0.383735 -0.187054 21.3618
-0.629312 -0.381319 20.1269
-1.37118 0.0294179 18.3634
-0.892828 -0.219058 20.9268
-1.21739 -0.612099 19.8228
-1.56804 -0.130353 18.9381
-0.801107 -0.270197 20.793
-0.930167 -0.586856 19.2999
-1.05649 -0.239031 17.8305
0.895088 0.21741 19.8405
0.917347 0.636373 19.6381
0.582663 0.204959 19.5158
2.03894 0.849146 19.9249
1.19704 0.198726 20.6576
1.30905 0.807445 20.5699
1.7949 0.23321 20.9886
0.764284 -0.0594084 21.2626
1.04076 0.47197 21.397
0.512708 -0.17752 21.7656
-0.132385 -0.290833 21.3022
-0.0144487 -0.288176 21.3727
-0.446633 -0.693834 21.1719
-0.499549 -0.473644 20.9544
-0.281198 -0.571251 20.9655
-0.529735 -0.789858 20.5963
-0.38955 -0.384121 20.42
-0.29393 -0.53526 20.6537
-0.393628 -0.565937 20.6267
-1.13812 -0.57793 19.44
-1.10049 -1.08146 21.2582
-0.0913642 -0.511049 21.2486
0.658849 0.215932 20.6646
1.39451 0.572852 19.7355
1.17299 0.249616 19.7329
-1.43513 -0.252698 19.2014
-1.83083 -0.766636 21.2791
-0.44725 -0.768494 20.9127
0.78308 0.0055603 19.5339
1.55822 -0.0963552 18.8407
1.37947 -0.12103 19.4026
-1.24686 0.50741 19.3596
-1.90674 0.557365 20.7541
-1.4059 0.0211707 21.61
0.153187 -0.464747 21.5681
0.576428 -0.763742 20.8329
0.569294 -0.677332 20.5949
0.00787806 -2.00843 17.5535
0.0118185 -0.18502 10.6581
0.00919408 -0.012502 8.77843
0.00408146 0.171651 6.49605
-0.00689011 0.0545923 3.96657
-0.00427136 0.717195 6.15354
0.0138581 -0.925804 15.8377
-0.00268891 -0.541186 -4.14463
-0.0556489 -0.16212 -1.06105
0.0237653 1.92913 17.3135
0.0174517 3.32382 20.2287
0.00352485 1.38191 9.89473
0.00423656 -0.392107 7.70333
-0.00138766 -0.606838 11.257
0.000455689 -0.866931 15.5665
1.13455 -0.572881 19.4469
1.1041 -1.07463 21.2419
0.0944226 -0.508841 21.2493
-0.657527 0.228198 20.5789
-1.39481 0.566601 19.7203
-1.17052 0.239018 19.7719
1.43218 -0.253772 19.2077
1.83794 -0.770827 21.2839
0.44663 -0.768185 20.9078
-0.783382 -0.00354255 19.5971
-1.53244 -0.122403 19.0995
-1.3535 -0.134739 19.5866
1.22413 0.487495 19.3955
1.89131 0.546308 20.753
1.42077 0.0219269 21.621
-0.159754 -0.478528 21.5385
-0.573529 -0.773346 20.8348
-0.570368 -0.680916 20.5917
-1.87207 -0.621203 1.49565
0.0185395 -0.153648 0.294636
0.0109932 -0.0587358 1.02127
0.115123 0.0484234 0.413334
-0.052586 0.0371079 0.192284
0.055298 0.0796937 0.585221
-3.56297 0.138859 4.14369
0 0 0
-0.0867229 -0.0181844 0.437514
0.00569993 -0.02983 0.085296
-0.0927456 0.0331574 -0.0747862
0.0852582 0.0211616 0.589314
0.00573722 0.00410156 0.128851
1.86597 -0.619187 1.49463
-0.00772056 -0.0526208 0.949404
0.054002 0.0356543 0.188939
-0.117336 0.0485951 0.418246
-0.0531298 0.0814548 0.587644
0 0 0
3.55136 0.1369 4.13341
0.0866752 -0.0181122 0.439384
0.0962414 0.0356363 -0.0762643
-0.00483863 -0.029998 0.0859691
-0.0877776 0.01994 0.589207
0.00835905 -0.00220957 0.314206
0.000359519 0.00140152 0.429154
0 0 0
0 0 0
-0.0136131 0.03715 0.406323
-0.00506404 0.00324623 0.801652
0 0 0
0 0 0
-0.0357861 -0.0367794 0.154742
-0.000588621 -0.00135619 0.00988115
-0.0229035 -0.0198004 0.402303
0 0 0
0.0457367 0.0622022 0.33077
0 0 0
0.0251364 0.0405161 0.187183
0.0298492 -0.00237323 0.214377
-0.0111418 -0.00397393 0.335737
0 0 0
-0.000511981 0.00240349 0.469749
0 0 0
0.0133495 0.0371707 0.409867
0 0 0
0.00392506 0.00304273 0.738565
0.00375387 0.00192956 0.10248
0.0336104 -0.0345479 0.145599
0 0 0
0.000694228 -0.00162637 0.0115732
0.0222677 -0.0193142 0.396241
-0.0467359 0.0634605 0.337286
-0.0311573 -0.00239545 0.224132
0 0 0
-0.0268992 0.042377 0.194217
-0.000141441 -0.000231158 0.0022334
0 0 0
1.88547e-07 -3.63798e-07 3.19049e-05
0.00286783 -0.317017 -0.0414135
0 0 0
-7.0422e-06 -4.66734e-07 -0.0001723
0.00664694 0.00355259 0.100011
0 0 0
0 0 0
-2.38168e-05 -0.00421987 -0.00139749
0.00133753 0.0154757 0.130403
6.16505e-07 7.50356e-07 4.65851e-05
0.00314887 1.72053 0.556944
-2.43561e-05 0.00328723 0.0156817
0 0 0
0 0 0
0 0 0
0 0 0
0 0 0
-1.80302e-06 -8.4215e-07 2.90355e-06
0 0 0
0.000543466 -0.00086237 0.0084531
3.69943e-06 -1.19454e-07 -8.18405e-05
0 0 0
0 0 0
-0.00670531 0.00366347 0.100821
-4.97133e-07 6.62783e-07 4.11807e-05
-0.00178299 0.0256413 0.20606
0 0 0
0 0 0
-1.12349e-06 5.17087e-07 -1.76953e-06
0 0 0
0 0 0
0 0 0
0 0 0
-6.73642e-05 4.01822e-05 0.00648737
8.41427e-09 3.58656e-07 0.000118176
-6.0894e-08 7.51066e-08 0.000102227
-8.68515e-05 0.000772202 0.00514019
0.00501247 0.0137231 0.0971412
-1.87768e-07 4.32095e-07 0.000248229
3.91263e-05 0.000895759 0.0435313
0.00030851 0.00137627 0.0105256
-0.114473 0.178133 1.1398
-4.45776e-05 0.000902985 0.0100972
0.00102287 0.0687239 0.161624
-1.59369e-05 -9.61464e-05 0.00488115
-3.02637e-05 -0.000194253 0.000872176
0 0 0
0 0 0
0 0 0
5.75846e-05 3.49904e-05 0.00568114
5.82589e-05 0.000512846 0.00338206
-0.00488857 0.0137266 0.0961507
0.115632 0.180747 1.15344
-0.000336807 0.00149482 0.0113728
0 0 0
-0.0279598 -0.0320477 0.293288
0 0 0
-0.00111506 -0.0236011 0.322373
0 0 0
-5.41333e-05 -3.29758e-05 0.00327425
0 0 0
0.00132713 0.0172908 0.0930231
0.000334832 0.00292855 0.0216615
0.00853822 0.0166156 0.103277
0 0 0
0.000547256 0.000283729 0.00540471
1.63339e-08 -1.10528e-07 6.94882e-06
1.71569e-08 3.16026e-08 -1.63264e-06
4.9962e-07 4.07874e-08 1.31613e-05
-4.4079e-08 2.77533e-09 1.10804e-06
0 0 0
0 0 0
0 0 0