# vtk DataFile Version 2.0
tri_press
ASCII
DATASET UNSTRUCTURED_GRID
POINTS 3682 float
-0.715 0.145 -2.13863
-0.701167 0.285 2.175
-0.741168 0.465 -2.085
-0.715 0.743744 2.125
0.715 0.145 -2.13852
0.701295 0.285 2.175
0.74106 0.465 -2.085
0.715 0.744058 2.125
-0.755246 0.146809 -0.700753
-0.800171 0.14394 0.737123
-0.820509 0.645978 -0.681667
-0.806395 0.733501 0.721667
0.755365 0.146733 -0.70068
0.800268 0.143929 0.73716
0.820497 0.646143 -0.681667
0.806424 0.733776 0.721667
-1.4956 -0.157727 -3.28229
-1.49565 -0.0951508 -2.14582
-1.5296 -0.0931086 -0.707056
-1.55554 -0.0982328 0.738664
-1.50575 -0.00656148 2.17802
-1.48691 0.0643085 3.31735
-1.49038 0.120699 4.45137
-1.49396 0.0536772 -3.26791
-1.49638 0.135998 -2.13522
-1.54124 0.161902 -0.703165
-1.56221 0.161092 0.731998
-1.47922 0.249845 2.16471
-1.46803 0.319034 3.30355
-1.48059 0.374843 4.43869
-1.5067 0.441129 -3.22944
-1.52353 0.520772 -2.09531
-1.58595 0.655574 -0.686801
-1.5754 0.718383 0.719257
-1.48951 0.747726 2.12842
-1.47436 0.813516 3.26869
-1.48429 0.87645 4.4094
-1.52651 1.13183 -3.19772
-1.54 1.22631 -2.06876
-1.56859 1.37347 -0.671454
-1.57844 1.48682 0.718411
-1.5583 1.54876 2.11608
-1.53824 1.59336 3.24578
-1.52683 1.64465 4.38272
-0.736858 -0.152902 -3.28449
-0.727627 -0.0869777 -2.14905
-0.751588 -0.0999141 -0.7066
-0.788403 -0.109855 0.743042
-0.753737 0.0101349 2.18566
-0.736311 0.0764742 3.32253
-0.73772 0.126833 4.45437
-0.734107 0.0517916 -3.26857
-0.716398 0.332323 3.30783
-0.728533 0.380934 4.44096
-0.742081 0.417584 -3.22516
-0.721042 0.815864 3.26801
-0.730819 0.878866 4.40926
-0.751996 1.11563 -3.19348
-0.758451 1.21097 -2.0641
-0.783575 1.36999 -0.66864
-0.801679 1.49158 0.718083
-0.793812 1.55143 2.11368
-0.777483 1.59414 3.24338
-0.76646 1.64519 4.38098
0.747902 -0.152881 -3.28442
0.742529 -0.0869781 -2.14896
0.769354 -0.0999479 -0.706534
0.777464 -0.109852 0.743079
0.715011 0.0101592 2.18567
0.735414 0.0765497 3.32254
0.753339 0.126937 4.45439
0.742308 0.0518105 -3.2685
0.737507 0.33242 3.30783
0.756094 0.381054 4.44097
0.753872 0.417612 -3.22512
0.741777 0.816063 3.26801
0.757458 0.879025 4.40927
0.787539 1.1157 -3.19346
0.795466 1.21106 -2.06408
0.792095 1.37012 -0.668624
0.765908 1.49175 0.718096
0.741648 1.55162 2.11369
0.742686 1.59433 3.2434
0.750938 1.64536 4.381
1.50149 -0.157669 -3.28216
1.50004 -0.0951151 -2.14568
1.53643 -0.0930892 -0.706945
1.5516 -0.0981548 0.738732
1.49137 -0.00643877 2.17805
1.4901 0.0644853 3.31738
1.50581 0.120911 4.4514
1.49558 0.0537372 -3.26779
1.49028 0.13605 -2.13508
1.53803 0.161944 -0.703059
1.56517 0.161217 0.732059
1.4868 0.250015 2.16474
1.48735 0.319252 3.30357
1.50592 0.375083 4.43872
1.51197 0.441212 -3.22937
1.51931 0.520875 -2.09525
1.58178 0.6558 -0.686755
1.57637 0.718741 0.719287
1.49644 0.748137 2.12844
1.49294 0.813869 3.26871
1.50846 0.876756 4.40942
1.5554 1.13199 -3.19766
1.56693 1.2265 -2.06872
1.57256 1.37373 -0.671417
1.54949 1.48715 0.718441
1.51731 1.54912 2.1161
1.50948 1.59371 3.2458
1.5134 1.64498 4.38275
-0.704239 0.305 -2.08797
0 0.144293 -2.13928
-0.739004 0.142024 -1.41969
-0.735893 0.514372 2.17781
6.40154e-05 0.261522 2.19848
-0.766722 0.198417 1.45606
-5.40018e-05 0.534206 -2.15421
-0.818354 0.593005 -1.38333
0 0.747373 2.12847
-0.772939 0.750864 1.42333
0.70421 0.305 -2.08794
0.739026 0.142023 -1.4196
0.735718 0.514529 2.17757
0.766792 0.198454 1.45608
0.81832 0.593113 -1.38333
0.77283 0.751036 1.42333
-0.775085 0.147999 0.018185
-0.852844 0.396394 -0.69121
5.93101e-05 0.141903 -0.700717
-0.86708 0.438721 0.729395
4.83351e-05 0.14406 0.737142
-0.821106 0.697394 0.02
-6.30348e-06 0.818916 -0.681667
1.45262e-05 1.09898 0.721667
0.775094 0.148054 0.01824
0.855021 0.396438 -0.691173
0.871586 0.438852 0.729413
0.821063 0.697562 0.02
-0.83576 0.350697 -1.40151
0.835748 0.350719 -1.40147
2.96551e-05 0.136307 -1.41965
-3.01526e-05 0.741601 -1.38333
-2.70009e-05 0.305 -2.21211
-0.863281 0.417557 0.0190925
0.863283 0.417645 0.01912
5.38226e-05 0.142993 0.0182125
4.11137e-06 1.11301 0.02
-0.860732 0.476546 1.4397
0.860869 0.476691 1.43971
5.61753e-05 0.169126 1.45607
7.26311e-06 0.917037 1.42333
3.20077e-05 0.514451 2.19611
-0.707927 0.225 -2.11161
-0.3575 0.145692 -2.13791
-0.724679 0.145835 -1.77916
-0.739936 0.399686 2.19781
-0.350551 0.27074 2.18926
-0.737539 0.238114 1.81553
-0.730167 0.385 -2.09395
-0.370611 0.485226 -2.10523
-0.788927 0.538168 -1.73417
-0.698629 0.629058 2.12459
-0.3575 0.749889 2.13107
-0.741442 0.744776 1.77417
0.3575 0.149976 -2.13357
0.707941 0.225 -2.11157
0.723848 0.146676 -1.77906
0.35068 0.270867 2.18913
0.740144 0.399765 2.19792
0.737668 0.238102 1.81554
0.370503 0.485239 -2.10524
0.730108 0.385 -2.09394
0.788983 0.53835 -1.73417
0.3575 0.750104 2.13112
0.698756 0.629294 2.12468
0.741027 0.744658 1.77417
-0.748213 0.143329 -1.06022
-0.765288 0.147282 -0.341284
-0.812129 0.26756 -0.695982
-0.376764 0.146016 -0.700735
-0.772315 0.18231 1.09659
-0.786133 0.147465 0.377654
-0.82691 0.294688 0.733259
-0.397146 0.149831 0.737133
-0.821704 0.621764 -1.0325
-0.853159 0.529427 -0.686438
-0.826395 0.677274 -0.330833
-0.425115 0.762161 -0.681667
-0.798459 0.750975 1.0725
-0.849193 0.592339 0.725531
-0.816182 0.717879 0.370833
-0.486342 1.08255 0.721667
0.748591 0.142982 -1.06014
0.376863 0.146017 -0.700698
0.765885 0.146738 -0.34122
0.815357 0.266503 -0.695927
0.772372 0.182349 1.09662
0.397239 0.149832 0.737151
0.785049 0.148623 0.3777
0.833373 0.292667 0.733287
0.821521 0.62174 -1.0325
0.425472 0.762984 -0.681667
0.853389 0.529105 -0.68642
0.826352 0.677424 -0.330833
0.798402 0.751181 1.0725
0.486554 1.08305 0.721667
0.849494 0.591558 0.72554
0.816161 0.718087 0.370833
-0.792995 0.327848 -1.74474
-0.352133 0.305 -2.16999
1.48275e-05 0.140364 -1.77946
-1.35005e-05 0.224647 -2.2328
-0.807943 0.24636 -1.4106
-0.369487 0.137882 -1.41967
-0.819948 0.495459 1.80875
-0.367931 0.514411 2.1924
6.00953e-05 0.213961 1.82727
4.80115e-05 0.387986 2.25906
-0.839802 0.337482 1.44788
-0.383333 0.169539 1.45607
-4.20772e-05 0.68799 -1.76877
-4.05014e-05 0.419603 -2.25467
-0.845398 0.471851 -1.39242
-0.409192 0.706778 -1.38333
3.63156e-06 0.798176 1.7759
1.60038e-05 0.630912 2.11833
-0.813211 0.613705 1.43152
-0.386466 0.901045 1.42333
0.792974 0.327859 -1.7447
0.352092 0.305 -2.17006
0.8082 0.246371 -1.41053
0.369528 0.137882 -1.41962
0.820025 0.49561 1.80864
0.367875 0.51449 2.19242
0.8421 0.337572 1.44789
0.383424 0.169539 1.45608
0.845332 0.471916 -1.3924
0.409145 0.706963 -1.38333
0.813102 0.613863 1.43152
0.386419 0.901263 1.42333
-0.823071 0.280834 0.0186388
-0.386303 0.147921 0.0181988
-0.844237 0.373545 -1.04636
-0.858759 0.406976 -0.336059
4.44826e-05 0.137271 -1.06018
5.65664e-05 0.14245 -0.341252
-0.86739 0.428139 0.374244
-0.875512 0.457634 1.08455
5.10789e-05 0.143526 0.377677
5.22552e-05 0.160093 1.09661
-0.855525 0.564141 0.0195462
-0.498562 1.08122 0.02
-1.82281e-05 0.778514 -1.0325
-1.09606e-06 0.980524 -0.330833
9.3188e-06 1.11395 0.370833
1.08947e-05 1.02998 1.0725
0.823114 0.280887 0.01868
0.386375 0.147921 0.0182262
0.84423 0.373578 -1.04632
0.858675 0.407042 -0.336027
0.867333 0.428249 0.374267
0.875545 0.457772 1.08456
0.85556 0.564297 0.01956
0.498642 1.0815 0.02
-0.764574 0.23568 -1.76195
-0.827481 0.258981 -1.05329
-0.863044 0.496519 -1.03943
-0.815709 0.428426 -1.73945
0.764581 0.235686 -1.76188
0.815655 0.428458 -1.73944
0.863057 0.496603 -1.03941
0.827264 0.258978 -1.05323
-0.363494 0.142075 -1.77931
0.363514 0.142075 -1.77926
0.37362 0.138959 -1.06016
-0.37354 0.138958 -1.0602
-0.389902 0.651173 -1.75147
-0.409725 0.750025 -1.0325
0.409695 0.750231 -1.0325
0.389824 0.651429 -1.75147
-0.354816 0.224823 -2.19597
-0.361372 0.402302 -2.19486
0.361297 0.402302 -2.19511
0.354796 0.224823 -2.19581
-0.817748 0.274123 -0.338672
-0.827226 0.286643 0.375949
-0.8616 0.582861 0.372539
-0.85622 0.547724 -0.333446
0.817853 0.274386 -0.338623
0.856376 0.547652 -0.33343
0.861685 0.582507 0.37255
0.827405 0.287196 0.375983
-0.381534 0.146967 -0.341268
0.38162 0.146967 -0.341236
0.391807 0.148876 0.377689
-0.391724 0.148876 0.377666
-0.464159 0.926333 -0.330833
-0.496711 1.0904 0.370833
0.496789 1.09066 0.370833
0.46408 0.926289 -0.330833
-0.845372 0.314406 1.09057
-0.797149 0.368584 1.81214
-0.786138 0.621382 1.79146
-0.863693 0.599908 1.07852
0.843981 0.314481 1.09059
0.863416 0.600089 1.07853
0.780501 0.621578 1.7914
0.797425 0.368668 1.81209
-0.391697 0.163429 1.0966
0.391791 0.163429 1.09661
0.367052 0.213587 1.82141
-0.366942 0.21348 1.8214
-0.394828 1.01347 1.0725
-0.371983 0.788469 1.77503
0.371959 0.788679 1.77503
0.394819 1.01976 1.0725
-0.359241 0.393836 2.24306
0.359277 0.393875 2.24306
0.362688 0.630103 2.15279
-0.362715 0.629985 2.1528
-0.711938 0.185 -2.12559
-0.53625 0.145705 -2.13791
-0.721423 0.143834 -1.9589
-0.728839 0.342343 2.19469
-0.525859 0.266409 2.19359
-0.720988 0.259922 1.99527
-0.737738 0.425 -2.09154
-0.55589 0.462026 -2.08203
-0.776364 0.5129 -1.90958
-0.694199 0.686401 2.11218
-0.53625 0.751167 2.13238
-0.720878 0.736918 1.94958
0.53625 0.145699 -2.13783
0.71196 0.185 -2.12553
0.7213 0.143963 -1.95879
0.525987 0.278282 2.18172
0.729114 0.342382 2.19486
0.721127 0.259905 1.99527
0.555782 0.462038 -2.08204
0.737695 0.425 -2.09158
0.776429 0.513083 -1.90958
0.53625 0.751486 2.13247
0.694263 0.686676 2.11223
0.720285 0.73663 1.94958
-0.752399 0.1444 -0.880488
-0.760203 0.14711 -0.521019
-0.817149 0.190454 -0.698368
-0.565952 0.146519 -0.700744
-0.771535 0.177834 0.916858
-0.794875 0.14398 0.557389
-0.825428 0.213371 0.735191
-0.596928 0.150347 0.737128
-0.823319 0.636084 -0.857083
-0.836905 0.587738 -0.684053
-0.825122 0.663296 -0.50625
-0.643556 0.745558 -0.681667
-0.802458 0.74227 0.897083
-0.82886 0.663453 0.723599
-0.811356 0.725758 0.54625
-0.664453 0.944192 0.721667
0.752451 0.144385 -0.88041
0.566042 0.146519 -0.700689
0.760263 0.147098 -0.52095
0.817274 0.190662 -0.698303
0.77168 0.177779 0.91689
0.59702 0.150348 0.737156
0.795048 0.143887 0.55743
0.825605 0.213906 0.735223
0.82317 0.636103 -0.857083
[...]
POINT_DATA 3682
SCALARS point_scalars float 1
LOOKUP_TABLE default
-39.4241
-34.7111
-21.3511
-33.1225
-39.5671
-34.973
-22.3874
-33.1378
-30.7314
-34.0092
-29.9331
-44.0356
-30.895
-34.076
-30.0588
-44.0029
13.7975
-130.454
-30.1482
-34.3087
-33.5381
-33.867
-33.867
13.7975
-127.878
-33.8461
-35.9107
-34.3104
-33.1893
-31.5937
32.0901
-74.6273
-30.9108
-36.3429
-35.5516
-31.7434
-31.7434
32.0901
-84.6771
-30.6883
-51.32
-32.5346
-33.6645
-31.594
-9.99266
-163.269
-30.462
-35.5186
-33.0799
-29.6375
-28.8857
-9.99266
-28.5075
-28.1163
148.585
-28.7465
-27.7785
83.8833
-84.0189
-17.8369
-57.3804
-31.266
-29.6453
-29.6453
-12.2759
-163.26
-30.9697
-35.2364
-33.1788
-29.6101
-29.1479
78.6268
-28.485
-28.4299
149.272
-28.7309
-27.7575
81.9473
-84.3918
-17.8037
-57.5378
-31.2774
-29.7681
-29.7681
13.8843
-130.746
-31.2208
-34.3054
-33.425
-33.8347
-33.8347
13.8843
-128.02
-34.3572
-37.9046
-34.2425
-33.1644
-31.4378
32.4862
-74.5529
-31.1944
-36.5604
-35.4931
-31.747
-31.747
32.4862
-84.8148
-30.7064
-51.8001
-33.1298
-33.7048
-30.2273
-34.9345
-165.408
-42.1012
-31.1353
-27.5642
-33.4071
43.7163
-34.043
-26.905
-38.9772
-40.7082
-42.0735
-31.1281
-33.404
-34.0358
-39.0398
-30.3859
-32.0788
-31.2575
-32.9014
-34.7045
-46.5823
13.1721
-61.5843
-30.5051
-32.734
-33.273
-46.5939
-42.4027
-42.3267
-45.9145
-25.3253
198.564
-35.1223
-35.0808
-30.5906
-106.397
-40.378
-40.3261
-36.0002
-36.5989
-22.8157
-18.9838
-195.864
-55.428
-33.3477
-29.7786
-35.141
-24.0732
30.1345
-52.3911
-32.2747
-27.0289
-33.7639
-176.534
-19.2028
-55.4219
-29.7992
-33.3222
-35.0711
32.5056
-24.3463
-52.4342
-26.9995
-32.2906
-33.7202
-33.4637
-29.8278
-31.0084
-30.8519
-34.2233
-31.205
-33.3047
-34.5662
-32.7212
-29.9201
-44.1662
3.07105
-44.3887
-38.9594
-46.465
-59.1511
-33.4181
-30.937
-29.9594
-33.0907
-34.1993
-34.572
-31.0668
-33.555
-32.5725
2.98768
-30.1488
-44.24
-44.475
-59.1053
-38.9897
-46.3969
-54.1322
188.93
-68.9309
156.237
-41.8988
-44.6797
-33.6435
-26.2194
-33.8826
-21.4793
-38.3647
-36.1851
-42.9499
178.095
-43.2673
-28.3932
-30.7068
-22.7289
-38.8841
-37.0875
-54.0699
189.133
-41.7921
-44.8753
-33.4573
-26.1556
-38.4568
-36.1634
-43.121
-28.2527
-38.9658
-37.1006
-32.8798
-30.3755
-34.8231
-33.6446
-36.262
-30.1884
-35.893
-39.8742
-32.1253
-34.1566
-40.5167
-95.0344
-9.74954
1.45531
-77.5653
-47.6833
-32.8282
-30.3975
-34.5416
-33.6205
-35.785
-39.8554
-40.5036
-94.7561
-54.6016
-34.483
-35.5458
-52.3466
-54.4903
-52.3316
-35.4201
-34.1607
-66.6812
-67.1324
-35.6947
-35.5889
-46.8401
-14.6736
-14.555
-46.469
175.339
176.028
176.636
174.754
-31.6702
-33.7997
-39.9942
-37.6844
-31.6053
-37.7117
-39.9137
-33.676
-29.8844
-29.9344
-31.9363
-31.9336
-2.17638
-69.3022
-69.0629
-2.59906
-37.9617
-34.6069
-33.9616
-42.8911
-37.7317
-43.0632
-33.7362
-34.4796
-33.894
-33.9035
-34.642
-34.807
-48.3254
-31.1795
-31.1938
-48.4801
-26.4238
-26.4038
-25.9781
-26.0147
-33.2892
-120.543
-86.7652
-34.3399
-31.3391
-33.5483
-28.1945
25.7457
-65.7999
-32.9706
-28.3447
-32.24
-120.084
-33.3002
-86.8127
-31.5377
-34.3845
-33.4717
26.8986
-28.3895
-66.1229
-28.3239
-33.0074
-32.0091
-32.9179
-29.8593
-30.1817
-30.3602
-38.6238
-32.5274
-33.4534
-35.3108
-31.2491
-30.0166
-35.7688
-9.30596
-44.4091
-41.1083
-45.5668
-52.1831
-33.0212
-30.4325
-29.8249
-31.3149
-38.7162
-35.3337
-32.372
-33.7537
-31.2816
-9.35026
-30.1696
-35.8712
-44.4483
-52.121
-41.1094
-45.4249
-21.6551
-29.6657
-82.5102
162.152
-178.374
-162.544
-93.1801
69.0403
-45.7761
-36.9777
-42.1993
-43.2777
-32.4596
-31.3364
-35.26
-27.5245
-28.1654
-28.1504
-30.112
-24.4553
-42.3282
-33.9181
-38.2611
-36.1033
28.9648
29.6479
-40.4116
99.4317
-36.7319
-38.2761
-39.8186
-30.5822
-27.0912
-27.0951
-28.8621
-21.7136
-35.7131
-43.55
-38.3966
-38.7226
-22.0015
-29.8861
-82.4578
162.512
-45.7157
-37.0547
-42.1077
-43.3471
-32.445
-31.3393
-35.2138
-27.5082
-42.1454
-33.9263
-38.2247
-36.1642
-36.7548
-37.8663
-39.7031
-30.4055
-35.748
-43.5528
-38.4743
-38.7429
-30.2418
-30.7978
-31.9578
-30.1936
-31.7773
-31.0759
-32.6444
-32.3234
-31.1646
-31.2241
-34.0999
-30.5394
-32.5337
-36.3455
-35.7315
-41.3832
-34.6036
-34.6081
-33.3559
-34.2434
-46.844
-45.6476
-43.1273
-68.4238
9.2999
9.89336
0.294219
16.8353
-61.3992
-61.3788
-68.0807
-56.7478
-30.2127
-30.7928
-31.9495
-30.1815
-33.4138
-31.4526
-32.625
-32.376
-32.6537
-36.5195
-35.5527
-41.2708
-46.8711
-45.6733
-43.122
-68.392
-43.017
-42.7513
-42.1269
-37.8038
-43.0049
-42.6703
-42.0326
-37.7078
-54.5987
-45.728
-45.8673
-40.0071
-35.2494
-26.3918
-23.3772
-17.5435
197.745
200.025
206.012
196.683
-33.7419
-34.7173
-35.4619
-37.5995
-33.6897
-34.6852
-35.4023
-37.5666
-30.5514
-30.2277
-31.2293
-30.5702
-102.788
-35.8062
-89.2241
-100.513
-35.2551
-38.3812
-41.4125
-38.1827
-35.2181
-38.5456
-41.4981
-38.1944
-37.3811
-36.0907
-36.064
-34.3614
-33.3368
-36.6334
-36.6652
-41.1849
-23.9579
-19.3289
-22.4899
-23.9248
-87.7331
146.939
-92.9051
52.0275
-54.3307
-65.281
-34.1435
-27.9537
-32.0114
-27.7664
-34.7634
-34.87
-76.07
163.503
-46.9427
116.241
-51.8612
-49.5773
-33.9476
-27.5528
-29.0113
-26.2541
-33.6301
-32.0608
-93.8895
55.5315
-87.6351
147.411
-54.2143
-65.3323
-31.84
-27.7437
-34.0643
-27.9315
-34.6409
-34.8823
-50.2117
116.933
-75.9762
163.794
-51.8634
-48.9174
-29.0008
-26.2273
-33.3836
-27.5315
-33.5592
-32.0446
-33.8837
-35.0034
-30.7328
-29.6361
-34.6956
-30.8214
-33.7517
-30.1069
-36.8604
-33.3682
-32.8762
-31.6846
-34.1965
-37.2072
-33.1695
-34.5118
-36.4577
-20.3166
-31.2656
-33.9925
-40.5813
-43.7933
-5.86648
9.13343
-43.4131
-49.4468
-40.8195
-41.3515
-42.8707
-55.3436
-62.3041
-57.6227
-33.4321
-35.0706
-33.8324
-30.1745
-30.7334
-29.6943
-32.7983
-30.7842
-36.7489
-33.3735
-33.1744
-34.5213
-32.7314
-31.6495
-33.9879
-37.3823
-36.3779
-20.2474
-5.75701
8.61677
-31.334
-34.0928
-40.6269
-44.1243
-43.4789
-49.4177
-62.1404
-57.4591
-40.728
-41.3581
-42.7905
-55.2126
-54.6029
-53.3679
187.772
191.475
-68.8112
-69.15
177.208
174.443
-43.7044
-37.6966
-53.1824
-39.0778
-34.313
-33.8279
-25.9309
-26.0002
-34.1499
-34.2223
-23.592
-23.5703
-36.5166
-37.7673
-34.2073
-37.6795
-43.3692
-43.4217
186.687
188.254
-38.8794
-41.4006
-38.5527
-21.3022
-30.8358
-30.8537
-23.4729
-23.4975
-34.9025
-42.6005
-41.7042
-33.7078
-54.5131
-53.3118
192.006
188.095
-43.8059
-37.7116
-53.4753
-39.0761
-33.6088
-34.1709
-25.8879
-25.9621
-36.7027
-37.6428
-34.2138
-37.5652
-41.3608
-38.7896
-21.2012
-38.353
-42.615
-35.224
-33.8385
-41.7091
-32.5787
-33.3692
-29.9963
-31.0196
-34.6181
-35.0974
-32.4507
-35.3295
-36.2001
-36.1269
-30.1242
-30.1584
-34.6662
-38.105
-39.1597
-40.7468
-32.0961
-32.088
-34.1054
-34.1116
-39.3505
-39.8712
-36.0425
-80.1633
-10.9012
-10.7655
5.78879
2.3382
-76.3792
-76.1617
-47.8185
-47.7697
-32.5331
-33.2898
-30.0318
-31.0296
-34.8957
-34.2972
-32.3968
-35.3391
-38.0058
-34.5508
-39.0916
-40.7371
-39.885
-39.3088
-79.9102
-35.6745
-86.3874
-40.9937
-43.3052
-86.5832
-32.8584
-33.6623
-37.7652
-38.0617
-31.8505
-40.5698
-38.2064
-31.4625
-75.2012
-80.1075
-43.1924
-38.0076
-86.3835
-86.5005
-43.2809
-41.0426
-75.1374
-38.0276
-43.1668
-80.0753
-31.8866
-31.553
-38.1039
-40.4638
-32.7497
-38.2449
-37.6986
-32.5279
-94.5166
-92.9514
-54.4796
-50.9654
-94.3793
-51.0239
-54.6955
-93.7666
-33.2968
-34.0801
-39.9213
-38.1166
-33.2161
-37.9811
-39.8244
-34.0296
-43.3007
-39.9549
-36.7571
-40.4269
-15.5539
-1.11832
-18.9377
-25.2459
-15.5609
-25.1575
-18.9392
-0.789427
-43.1308
-40.5784
-36.7481
-39.6499
78.3182
162.777
197.365
79.0661
91.1626
125.804
200.008
156.566
92.1851
156.869
199.752
125.806
82.0646
79.5678
196.663
163.17
-30.1058
-31.5011
-33.3192
-31.4185
-33.9258
-34.7708
-34.2519
-32.3872
-43.6121
-41.9173
-37.4036
-38.0058
-35.5018
-33.0953
-36.9899
-42.8894
-30.0733
-31.3659
-33.2773
-31.4501
-35.6009
-42.9057
-36.9826
-33.197
-43.5385
-37.8979
-37.3505
-41.8855
-33.8205
-32.3111
-34.1783
-34.5372
-29.7812
-30.4476
-30.183
-29.8321
-29.8317
-29.8546
-30.209
-30.4922
-33.1326
-33.3775
-31.2001
-30.7975
-33.1426
-30.8128
-31.1875
-33.3723
-10.2642
-74.0455
-36.274
15.5327
-52.8079
-67.0212
-88.3616
-60.327
-52.4881
-60.3281
-87.8093
-66.862
-10.2987
15.655
-39.8925
-74.1935
-37.171
-35.5589
-37.198
-38.9068
-33.8486
-34.7474
-36.5779
-38.6038
-32.5807
-34.9857
-34.5754
-35.6288
-42.7894
-41.1497
-39.5623
-42.4976
-37.2138
-39.3472
-37.2537
-35.64
-42.8272
-42.5285
-39.5792
-41.1688
-32.0814
-35.5512
-34.6704
-35.1786
-33.775
-38.4753
-36.473
-34.6652
-34.5381
-34.3163
-34.3175
-33.9412
-34.5577
-33.9599
-34.3222
-34.323
-32.464
-30.6375
-37.3737
-37.8255
-34.629
-37.9554
-37.4247
-30.7118
-51.251
-43.4784
-41.1431
-57.1706
-29.688
-28.8506
-33.409
-35.0026
-29.6684
-35.0064
-33.4149
-28.8466
-51.332
-57.4002
-41.2014
-43.4958
-29.1247
-25.5392
-22.1227
-27.5114
-29.0721
-27.4848
-22.0934
-25.5267
-27.9543
-23.5266
-23.3671
-27.5189
-27.9744
-27.5471
-23.3922
-23.5457
-24.6895
-49.0175
-120.592
-35.5676
-32.6486
-33.1588
-23.9764
9.89717
-27.3507
-33.4769
-30.0671
-30.3684
-49.1746
-24.8098
-120.673
-32.7069
-35.8349
-33.2326
8.57668
-24.506
-27.6828
-30.1194
-33.4974
-30.2817
-30.5244
-29.8946
-30.2698
-30.0533
-39.9884
-33.8761
-33.9188
-36.1638
-31.1332
-30.1283
-30.7607
-21.8562
-44.0758
-42.2249
-44.9903
-47.9697
-30.7464
-30.1356
-29.8984
-30.7737
-40.07
-36.2072
-33.9549
-34.07
-31.2099
-21.9276
-30.2663
-30.8645
-44.0958
-47.8373
-42.2112
-44.8883
-28.001
-43.9705
-108.086
125.471
-171.07
-164.484
-115.777
39.4879
-45.7157
-39.1119
-42.5617
-42.2751
-31.8983
-30.9221
-34.632
-28.1862
-27.5676
-27.5614
-28.671
-26.1728
-38.8054
-34.2428
-36.9357
-35.8588
36.8494
37.033
-13.2711
64.4304
-34.1884
-35.7776
-35.8987
-33.1747
-26.8334
-26.8625
-28.3536
-23.8912
-37.142
-40.861
-38.4823
-39.097
-27.6904
-45.6347
-107.911
125.626
-45.6185
-39.072
-42.4794
-42.2899
-31.9037
-30.9228
-34.6285
-28.1667
-38.7806
-34.2474
-36.9204
-35.9202
-34.1679
-35.6022
-35.8491
-32.9209
-37.2278
-40.9093
-38.5497
-39.1486
-30.1818
-30.6268
-31.0114
-30.1839
-31.952
-31.5043
-33.4094
-31.6283
-31.2247
-31.2563
-32.4767
-30.9345
-32.2469
-34.6356
-35.0693
-35.3702
-34.7768
-34.7855
-33.9923
-35.3253
-46.7643
-45.9217
-44.674
-55.5625
11.6207
12.307
6.79341
17.5849
-61.5217
-61.528
-64.7372
-59.222
-30.1482
-30.5346
-31.1067
-30.1992
-32.8576
-32.0914
-33.8184
-32.105
-32.4721
-34.8426
-34.6846
-35.8032
-46.7812
-45.9249
-44.6798
-55.6025
-43.2987
-42.852
-41.9308
-39.1662
-43.268
-42.7818
-41.8484
-39.0955
-50.0709
-45.8961
-45.9724
-42.6435
-30.2558
-25.6874
-25.5535
-21.5629
198.551
197.723
201.849
198.071
-34.3323
-34.9605
-35.264
-36.2542
-34.2847
-34.9241
-35.2139
-36.216
-30.6005
-30.3755
-30.8649
-30.6063
-107.925
-91.14
-95.8904
-105.556
-39.1506
-39.2761
-40.8627
-38.1592
-38.6593
-39.2968
-40.8883
-38.2079
-37.5639
-36.0357
-36.0242
-35.2171
-34.7846
-36.5703
-36.63
-38.7003
-23.2345
-20.7934
-22.829
-23.214
-20.212
-14.1935
-117.148
136.486
-174.041
-190.462
-121.42
-10.5997
-67.9135
-46.8109
-54.6114
-60.9383
-33.6926
-33.091
-33.2585
-29.391
-30.6227
-28.8796
-30.5532
-28.975
-34.2495
-36.5259
-34.8964
-35.6633
-18.8158
-30.8259
-87.0558
123.093
39.1681
31.0506
0.54633
38.0473
-70.7503
-44.1531
-51.9805
-49.4263
-32.7116
-31.6226
-35.6203
-28.6215
-27.4706
-27.0913
-28.0632
-26.6766
-32.7338
-34.4202
-33.6801
-33.0936
-169.864
-174.386
-118.65
-1.29118
-20.3587
-14.4106
-117.135
136.631
-68.9225
-46.6115
-54.4764
-60.7647
-30.7832
-28.869
-30.5649
-28.9592
-33.6617
-33.0672
-33.2202
-29.3699
-34.1376
-36.3107
-34.7708
-35.5724
43.0741
30.8611
0.963236
37.6238
-19.1622
-31.0854
-87.0332
123.15
-70.8518
-44.174
-52.0012
-49.307
-27.4499
-27.0535
-28.0462
-26.6524
-32.7302
-31.632
-35.6244
-28.6036
-32.5533
-34.5237
-33.6266
-33.0594
-32.5609
-35.0237
-33.4286
-34.3039
-29.7044
-29.7998
-30.1951
-29.6081
-30.8643
-31.4223
-33.4727
-30.3843
-30.6951
-30.9801
-32.2878
-30.4683
-33.1422
-34.1569
-36.1739
-33.1029
-30.8624
-30.8457
-31.9477
-31.496
-33.6257
-32.9744
-34.4009
-34.4957
-34.6622
-34.6333
-33.8672
-35.4924
-30.4892
-36.3497
-34.7272
-24.4056
-29.8842
-30.3721
-29.4713
-31.4009
-42.4617
-45.952
-41.9779
-56.234
-1.36761
6.15736
-2.2177
7.92317
-44.285
-44.2428
-43.6138
-47.2634
-40.1416
-37.9215
-41.4024
-38.4006
-46.0465
-46.0985
-44.577
-50.7516
-57.3637
-60.954
-60.7443
-58.892
-32.9811
-34.9192
-33.0135
-34.3481
-30.7737
-31.0599
-32.3714
-30.5425
-29.7002
-29.9158
-30.2651
-29.6791
-32.7248
-33.2658
-34.6336
-30.7589
-33.1469
-34.1508
-36.1034
-33.1007
-34.6738
-34.635
-33.8734
-35.4945
-30.5307
-30.8171
-31.799
-31.4085
-34.1742
-33.0886
-33.8306
-35.2374
-30.469
-36.2163
-34.8079
-24.3756
-1.47563
6.55159
-2.10806
7.52754
-30.0664
-30.6668
-29.6705
-31.5773
-42.5634
-45.9855
-42.0307
-56.4922
-44.3405
-44.2812
-43.6828
-47.383
-57.323
-60.8974
-60.6043
-58.8952
-40.1427
-38.0115
-41.3583
-38.4317
-45.9388
-46.0651
-44.5028
-50.6603
-67.2511
-45.8601
-54.5318
-53.929
178.047
193.776
188.767
189.782
-79.0506
-60.642
-69.0002
-69.1605
108.682
198.963
172.261
172.514
-41.7392
-42.5476
-44.0263
-38.9932
-44.0997
-45.2201
-48.8427
-41.5044
-35.0043
-33.5971
-33.9443
-33.6062
-26.9546
-25.1082
-25.927
-26.0946
-32.1926
-35.8905
-33.9556
-33.9903
-22.8667
-20.4085
-22.2222
-22.2062
-38.1454
-38.4903
-36.6781
-40.1458
-36.244
-36.2097
-35.0861
-38.287
-47.6883
-39.1319
-42.9172
-42.9514
155.667
202.631
195.488
195.353
-42.6159
-42.4294
-40.6674
-41.119
-29.7028
-27.4599
-33.3074
-24.5814
-29.6284
-31.902
-30.7616
-30.7667
-22.3136
-22.7173
-22.8595
-22.8962
-38.5619
-40.3909
-36.5198
-41.6218
-37.7444
-36.8085
-39.2395
-35.283
-67.1901
-45.8343
-54.4531
-53.889
178.472
193.63
190.051
189.085
-41.6305
-42.453
-43.9931
-38.9558
-44.2444
-45.4073
-49.0797
-41.6658
-34.8029
-33.4983
-33.3932
-33.7781
-26.9257
-25.0779
-25.8815
-26.037
-38.1207
-38.6532
-36.6998
-40.2496
-36.2605
-36.1756
-35.0831
-38.2086
-42.465
-42.3183
-41.0497
-40.5706
-29.5344
-27.3517
-24.4726
-33.1459
-38.6436
-40.4658
-41.6615
-36.7328
-37.7563
-36.8588
-35.2882
-39.2541
-32.6618
-33.2949
-32.6542
-33.1088
-30.284
-30.4687
-30.1579
-30.6669
-33.2769
-36.7141
-34.6863
-35.0083
-32.9881
-34.2978
-32.9738
-34.4657
-34.9654
-37.8781
-36.2304
-36.19
-30.3076
-30.1508
-30.1877
-30.201
-35.9137
-35.7451
-35.2324
-36.8391
-41.8396
-38.9796
-39.3803
-40.3791
-32.7053
-31.6479
-32.1366
-32.1375
-33.5543
-34.2819
-34.1476
-34.1519
-41.9895
-39.0292
-40.2079
-40.2982
-84.1888
-98.9253
-68.8844
-88.4838
-5.2024
-13.9278
-10.1018
-10.0135
12.2825
-14.8668
3.83265
1.24156
-72.3759
-83.9931
-77.4371
-77.3014
-52.2064
-44.1365
-47.7688
-47.661
-32.6149
-33.2428
-32.6108
-33.0408
-30.2997
-30.4941
-30.1865
-30.6826
-32.8168
-36.5311
-34.7617
-34.3843
-32.9794
-34.267
-32.9311
-34.4583
-35.7819
-35.6659
-36.7337
-35.1226
-41.6705
-39.0235
-39.3557
-40.384
-41.9814
-39.0059
-40.3008
-40.1809
-83.624
-98.0156
-88.2376
-69.2964
-67.9374
-54.4181
-54.9393
-44.3816
-34.6868
-34.5162
-36.3341
-34.5817
-36.1979
-34.0787
-37.52
-35.1559
-64.3861
-51.702
-52.9997
-45.8047
-67.8755
-54.3011
-54.8494
-44.2907
-64.3942
-51.6935
-52.9549
-45.7689
-36.0963
-34.0076
-37.3964
-34.9886
-34.2555
-33.9903
-36.1776
-34.2519
-77.693
-66.3204
-67.7503
-58.7445
-78.1793
-66.5725
-68.2103
-59.1291
-35.3962
-34.5408
-37.2263
-35.9549
-35.3286
-34.4446
-37.1095
-35.8529
-51.676
-48.5928
-44.2287
-42.3108
-17.092
-10.0312
-18.196
-12.2807
-17.0022
-9.89577
-18.0931
-12.144
-51.0003
-47.5618
-44.3113
-42.0316
127.299
119.305
183.224
177.984
161.141
160.227
189.765
188.522
161.379
161.689
191.45
190.333
120.697
127.5
172.753
183.253
-31.3727
-31.1082
-32.0808
-31.9998
-33.6657
-34.0051
-33.5138
-34.0132
-40.3591
-41.2237
-39.219
-39.5467
-36.1574
-39.141
-36.5269
-38.8896
-31.3277
-31.0178
-32.0307
-31.9376
-36.2064
-39.1799
-36.5461
-38.9043
-40.2512
-41.1403
-39.1345
-39.4865
-33.5435
-33.8513
-33.4108
-33.895
-29.7705
-29.9293
-29.8976
-30.01
-29.9891
-29.8198
-30.0586
-29.9406
-32.524
-31.8402
-32.0107
-31.4398
-31.8483
-32.5211
-31.4347
-32.001
-11.0156
5.13948
-14.7972
2.70229
-61.9737
-65.3469
-74.4777
-73.8354
-65.1592
-61.6822
-73.55
-74.1227
4.62249
-11.1441
1.10327
-14.6991
-37.451
-39.1945
-37.1447
-38.8151
-34.5535
-34.644
-34.5759
-35.2817
-34.2224
-33.7981
-33.9909
-34.1892
-43.5445
-42.5243
-42.6826
-41.7511
-37.2726
-38.9745
-36.8903
-38.5816
-43.6183
-42.4512
-42.8143
-41.7158
-33.4988
-33.6223
-33.7467
-34.3684
-34.4413
-34.5155
-34.4459
-35.1401
-33.676
-33.4242
-34.0067
-34.0433
-33.6851
-33.4381
-34.0164
-34.0509
-33.2376
-34.7948
-34.3975
-36.1684
-33.4258
-34.9822
-34.5153
-36.325
-49.0339
-53.2846
-44.6753
-47.9691
-30.1117
-31.4742
-30.9608
-32.392
-30.0968
-31.5435
-30.9783
-32.3843
-49.1105
-53.2881
-44.7862
-48.0321
-27.341
-26.9553
-26.1768
-25.2875
-26.9371
-27.2639
-25.2617
-26.1428
-26.0219
-26.7711
-24.7516
-25.9544
-26.8
-26.0546
-25.9935
-24.7862
-123.141
75.5159
-133.271
20.9156
-85.8444
-92.2159
-33.2077
-31.006
-32.537
-30.7931
-33.6474
-34.1685
-64.0569
101.702
33.2263
75.4247
-70.8849
-40.9914
-33.9643
-29.8045
-28.6606
-28.3467
-32.4956
-30.5202
-132.826
23.072
-123.162
76.9122
-85.9061
-92.1348
-33.8757
-30.1313
-33.1943
-30.9438
-33.5884
-33.977
31.262
76.8182
-64.1507
101.912
-70.9633
-41.6887
-28.6372
-28.3261
-33.8658
-29.8161
-32.1504
-30.4793
-32.1728
-33.136
-29.8732
-29.7204
-30.9468
-29.8926
-31.2555
-30.0118
-38.6816
-34.9859
-33.1569
-33.2013
-34.6985
-37.5264
-34.0111
-36.4447
-32.0024
-23.7014
-30.0613
-31.62
-35.8574
-29.8488
-13.039
-6.79954
-43.2926
-47.2003
-43.2946
-41.2335
-44.3356
-48.9706
-52.0222
-51.3339
-32.2689
-33.2208
-31.3351
-30.0777
-29.8362
-29.7465
-31.7321
-30.1439
-38.4279
-35.0176
-34.0214
-36.4727
-33.0242
-33.2004
-34.6622
-37.6962
-32.0378
-23.7371
-13.0698
-6.86327
-30.187
-31.7581
-35.9633
-29.8664
-43.338
-47.2005
-51.7238
-51.3561
-43.2453
-41.2626
-44.2341
-48.7138
-115.681
132.362
-102.565
125.617
-84.528
-81.3706
163.659
159.404
-117.349
13.6624
-117.597
24.4689
-92.8609
-93.1509
67.232
68.2595
-39.3242
-48.7064
-37.7669
-37.3173
-44.7073
-39.479
-47.178
-40.3084
-33.9974
-28.6379
-35.4621
-28.3248
-35.0842
-35.6166
-27.3848
-27.5673
-29.1938
-27.187
-29.1623
-27.17
-30.1986
-30.2119
-24.8182
-24.8097
-40.6381
-39.1985
-34.6711
-33.6437
-36.0915
-40.713
-34.8106
-38.512
-4.59085
59.4504
-4.53806
59.1513
-41.3785
-41.3907
110.072
109.889
-36.9743
-39.311
-40.876
-29.8708
-41.6914
-36.8542
-34.7791
-27.5162
-28.2262
-25.202
-28.2082
-25.1813
-28.8231
-28.8202
-21.9607
-22.0182
-35.1805
-36.0203
-42.875
-44.6554
-36.5409
-40.4973
-40.9336
-36.8887
-115.456
132.513
-102.54
125.702
-84.4497
-81.3242
159.739
164.034
-39.2947
-48.6761
-37.9346
-37.3498
-44.6422
-39.4701
-47.2528
-40.3728
-33.9745
-28.6142
-35.5208
-28.3038
-35.5597
-34.9992
-27.3602
-27.5488
-40.4884
-38.8721
-34.7062
-33.6521
-36.0792
-40.7527
-34.922
-38.8074
-36.9856
-39.1537
-40.8392
-29.7506
-36.7861
-41.6149
-27.4891
-34.5329
-35.2662
-36.0294
-42.8979
-44.5938
-40.5515
-36.6579
-36.8989
-40.9581
-30.735
-29.8642
-31.4535
-30.7435
-31.5462
-32.2405
-29.9903
-30.4799
-33.5746
-30.791
-30.9268
-31.8194
-33.2333
-32.054
-31.7745
-32.7577
-32.3748
-30.8403
-32.4324
-30.8904
-34.2133
-34.1842
-30.5109
-30.5349
-34.3996
-35.973
-37.9877
-36.7302
-35.1683
-36.67
-40.9402
-41.6458
-34.4188
-35.0381
-34.4177
-35.036
-33.4153
-33.4177
-34.2124
-34.2192
-44.6748
-58.1071
-43.6904
-52.8128
-42.5332
-43.2826
-74.2207
-64.0613
4.31908
13.5986
4.72967
14.8781
-0.202844
0.076092
16.216
16.7106
-64.1228
-59.1463
-64.0389
-59.1921
-67.8415
-67.7699
-56.8488
-57.1188
-30.6931
-29.8664
-31.4161
-30.7149
-31.5051
-32.146
-30.005
-30.4751
-34.5985
-31.2586
-31.2125
-32.0707
-32.1474
-33.1285
-31.7727
-32.8453
-33.6902
-36.9385
-37.9525
-36.9659
-36.5295
-34.9484
-40.8578
-41.6134
-44.696
-58.1746
-43.6819
-52.934
-43.2856
-42.5181
-64.0272
-74.3444
-43.2904
-43.2016
-44.4314
-39.1947
-39.5703
-42.4108
-37.7528
-37.9374
-43.275
-43.1783
-44.3713
-39.1449
-42.387
-39.5033
-37.8347
-37.6656
-54.5637
-54.6729
-50.0331
-42.4023
-50.2028
-42.5179
-40.0117
-39.9585
-35.7211
-35.7292
-31.7292
-22.3258
-22.7353
-32.6064
-17.9851
-17.9703
197.492
198.592
195.65
195.339
203.543