# vtk DataFile Version 2.0
tet_velo
ASCII
DATASET UNSTRUCTURED_GRID
POINTS 29498 float
-0.831386 0.245 -1.705
-0.829883 0.255 1.735
-0.845 0.945 -1.67359
-0.845 1.14354 1.665
0.831386 0.245 -1.705
0.829883 0.255 1.735
0.845 0.945 -1.67357
0.845 1.14354 1.665
-0.822152 0.257067 -0.558333
-0.830384 0.251667 0.588333
-0.878683 1.04486 -0.560727
-0.892165 1.12452 0.552137
0.822152 0.257067 -0.558333
0.830384 0.251667 0.588333
0.878674 1.04485 -0.560713
0.892172 1.12453 0.552143
-1.68504 -0.185816 -2.6053
-1.68138 -0.146722 -1.70151
-1.67723 -0.139516 -0.553967
-1.67733 -0.158398 0.600378
-1.67273 -0.164191 1.74849
-1.67309 -0.149596 2.65509
-1.67544 -0.125896 3.5565
-1.68491 0.19192 -2.60175
-1.68422 0.240573 -1.70165
-1.68389 0.265401 -0.560683
-1.68535 0.265511 0.583325
-1.67334 0.26619 1.72494
-1.67369 0.281169 2.63106
-1.67671 0.303576 3.53357
-1.69193 0.929244 -2.58515
-1.70219 0.974817 -1.68366
-1.72672 1.05865 -0.565736
-1.73259 1.12412 0.549789
-1.69676 1.14465 1.66836
-1.68784 1.15636 2.57588
-1.68669 1.17212 3.48384
-1.69796 2.10813 -2.58567
-1.70563 2.16524 -1.68923
-1.72096 2.26633 -0.582278
-1.73234 2.36446 0.517393
-1.72774 2.42273 1.6247
-1.71729 2.44666 2.52188
-1.70895 2.46346 3.42615
-0.840155 -0.183326 -2.60748
-0.837252 -0.141934 -1.70469
-0.830475 -0.142636 -0.553539
-0.832094 -0.168958 0.604653
-0.831811 -0.174727 1.75596
-0.830808 -0.157489 2.66016
-0.831352 -0.131492 3.55943
-0.837472 0.190477 -2.60241
-0.829713 0.274581 2.63524
-0.831636 0.298814 3.53578
-0.840763 0.915639 -2.58096
-0.83922 1.15435 2.57521
-0.838859 1.17005 3.48369
-0.842308 2.09659 -2.58153
-0.846381 2.15326 -1.68468
-0.858578 2.26045 -0.57953
-0.872324 2.36616 0.517066
-0.873405 2.42608 1.62235
-0.865093 2.44888 2.51953
-0.857856 2.46459 3.42444
0.838769 -0.183327 -2.60748
0.830256 -0.141935 -1.70469
0.827994 -0.142636 -0.553538
0.833956 -0.168958 0.604654
0.83472 -0.174726 1.75597
0.844343 -0.157489 2.66016
0.851538 -0.131491 3.55943
0.842109 0.190476 -2.60241
0.845567 0.274581 2.63524
0.852288 0.298814 3.53578
0.8509 0.915638 -2.58095
0.849323 1.15435 2.57521
0.85194 1.17005 3.48369
0.866265 2.09658 -2.58152
0.869991 2.15325 -1.68467
0.870666 2.26045 -0.579521
0.85942 2.36616 0.517072
0.844714 2.42608 1.62236
0.842954 2.44888 2.51953
0.845138 2.46459 3.42444
1.68198 -0.185818 -2.60529
1.67496 -0.146724 -1.7015
1.67374 -0.139517 -0.553963
1.67822 -0.158397 0.600381
1.67698 -0.164191 1.74849
1.68552 -0.149596 2.6551
1.694 -0.125895 3.5565
1.68592 0.191917 -2.60173
1.68109 0.24057 -1.70164
1.68139 0.265399 -0.560677
1.68556 0.265513 0.583328
1.67673 0.26619 1.72494
1.6867 0.28117 2.63106
1.69505 0.303577 3.53357
1.69906 0.929241 -2.58513
1.70262 0.974812 -1.68363
1.72588 1.05864 -0.565719
1.73142 1.12412 0.549798
1.6965 1.14465 1.66836
1.69452 1.15636 2.57588
1.69761 1.17212 3.48384
1.71904 2.10813 -2.58565
1.72484 2.16524 -1.68922
1.72978 2.26633 -0.582262
1.72147 2.36446 0.517404
1.70444 2.42274 1.62471
1.69804 2.44666 2.52188
1.69717 2.46347 3.42615
-0.868611 0.595 -1.71971
0 0.2414 -1.7086
-0.822143 0.255659 -1.13167
-0.875752 0.69927 1.73831
0 0.254544 1.73546
-0.82226 0.261207 1.16167
0 1.07623 -1.80481
-0.875573 1.00866 -1.11716
0 1.26187 1.78333
-0.85912 1.12457 1.10857
0.868611 0.595 -1.7197
0.822136 0.255666 -1.13167
0.875733 0.69927 1.73829
0.822264 0.261203 1.16167
0.875573 1.00866 -1.11714
0.859114 1.12456 1.10857
-0.826268 0.254367 0.015
-0.874246 0.650965 -0.55953
3.52321e-08 0.240705 -0.558333
-0.877942 0.688096 0.570235
0 0.241421 0.588333
-0.878676 1.07795 -0.00429499
-4.56108e-06 1.28954 -0.56072
3.39282e-06 1.65116 0.55214
0.826268 0.254367 0.015
0.874204 0.65096 -0.559523
0.877934 0.688099 0.570238
0.878667 1.07794 -0.00428504
-0.871236 0.622982 -1.12441
-0.867993 0.66953 0.0053525
-0.878259 0.693683 1.13512
1.76161e-08 0.240696 -1.13167
1.76161e-08 0.241415 0.015
0 0.240725 1.16167
0 0.595 -1.96617
0 0.69927 1.96678
-2.28054e-06 1.25663 -1.11715
-5.84129e-07 1.51919 -0.00429001
1.69641e-06 1.57483 1.10857
0.871236 0.62298 -1.1244
0.867984 0.66953 0.00535747
0.878259 0.693685 1.13512
-1.2578 0.242787 -1.70332
-0.834319 0.0515329 -1.70484
-0.834429 0.217739 -2.15371
-1.25161 0.260595 1.72997
-0.830847 0.0401367 1.74548
-0.829798 0.26479 2.18512
-1.2736 0.959908 -1.67862
-0.842882 0.930319 -2.12728
-0.845691 1.54913 -1.67913
-1.27088 1.14409 1.66668
-0.84211 1.14894 2.1201
-0.859203 1.78481 1.64368
0.830821 0.0515327 -1.70484
0.836748 0.217738 -2.1537
1.25624 0.242785 -1.70332
0.832302 0.0401368 1.74548
0.837725 0.26479 2.18512
1.2533 0.260595 1.72997
0.84795 0.930319 -2.12726
0.857496 1.54913 -1.67912
1.27381 0.959906 -1.6786
0.847162 1.14894 2.1201
0.844857 1.78481 1.64368
1.27075 1.14409 1.66668
-1.25302 0.261234 -0.559508
-0.826313 0.0572152 -0.555936
-1.25787 0.258589 0.585829
-0.831239 0.0413542 0.596493
-1.3027 1.05176 -0.563231
-0.86863 1.65266 -0.570128
-1.31238 1.12432 0.550963
-0.882244 1.74534 0.534602
0.825073 0.0572151 -0.555936
1.25177 0.261233 -0.559505
0.83217 0.0413542 0.596494
1.25797 0.25859 0.585831
0.87467 1.65265 -0.570117
1.30228 1.05175 -0.563216
0.875796 1.74534 0.534608
1.31179 1.12433 0.550971
-1.68321 -0.166269 -2.15341
-1.68497 0.00305204 -2.60352
-1.2626 -0.184571 -2.60639
-1.67931 -0.143119 -1.12774
-1.6828 0.0469259 -1.70158
-1.25932 -0.144328 -1.7031
-1.67728 -0.148957 0.0232054
-1.68056 0.0629423 -0.557325
-1.25385 -0.141076 -0.553753
-1.67503 -0.161294 1.17444
-1.68134 0.0535566 0.591851
-1.25471 -0.163678 0.602516
-1.67291 -0.156894 2.20179
-1.67303 0.0509994 1.73671
-1.25227 -0.169459 1.75223
-1.67426 -0.137746 3.10579
-1.67339 0.0657864 2.64308
-1.25195 -0.153543 2.65763
-1.67607 0.0888401 3.54503
-1.2534 -0.128694 3.55796
-1.68456 0.216247 -2.1517
-1.68842 0.560582 -2.59345
-1.26119 0.191199 -2.60208
-1.68405 0.252987 -1.13116
-1.69321 0.607695 -1.69265
-1.68462 0.265456 0.0113208
-1.7053 0.662026 -0.56321
-1.67935 0.26585 1.15413
-1.70897 0.694815 0.566557
-1.67351 0.27368 2.178
-1.68505 0.705419 1.69665
-1.6752 0.292373 3.08231
-1.68076 0.718765 2.60347
-1.2517 0.277875 2.63315
-1.6817 0.737847 3.5087
-1.25417 0.301195 3.53467
-1.69706 0.952031 -2.1344
-1.69494 1.51869 -2.58541
-1.26634 0.922441 -2.58306
-1.71446 1.01673 -1.1247
-1.70391 1.57003 -1.68644
-1.72965 1.09138 -0.00797349
-1.72384 1.66249 -0.574007
-1.71467 1.13438 1.10907
-1.73247 1.74429 0.533591
-1.6923 1.1505 2.12212
-1.71225 1.78369 1.64653
-1.68726 1.16424 3.02986
-1.70256 1.80151 2.54888
-1.26353 1.15535 2.57554
-1.69782 1.81779 3.45499
-1.26277 1.17108 3.48376
-1.7018 2.13669 -2.13745
-1.27013 2.10236 -2.5836
-1.7133 2.21579 -1.13576
-1.27601 2.15925 -1.68696
-1.72665 2.3154 -0.0324426
-1.28977 2.26339 -0.580904
-1.73004 2.3936 1.07105
-1.30233 2.36531 0.51723
-1.72251 2.43469 2.07329
-1.30057 2.42441 1.62353
-1.71312 2.45506 2.97401
-1.29119 2.44777 2.5207
-1.2834 2.46403 3.42529
-0.838703 -0.16263 -2.15608
-0.838813 0.00357564 -2.60495
-0.000692982 -0.183326 -2.60748
-0.833864 -0.142285 -1.12911
-0.00349792 -0.141934 -1.70469
-0.831284 -0.155797 0.0255572
-0.00124056 -0.142636 -0.553538
-0.831953 -0.171842 1.18031
0.000930949 -0.168958 0.604653
-0.831309 -0.166108 2.20806
0.00145466 -0.174726 1.75597
-0.83108 -0.14449 3.1098
-0.83026 0.058546 2.6477
0.0067678 -0.157489 2.66016
-0.831494 0.0836611 3.54761
0.0100929 -0.131492 3.55943
-0.839118 0.553058 -2.59169
0.00231837 0.190477 -2.60241
-0.830675 0.286697 3.08551
-0.834467 0.714465 2.60522
0.00792707 0.274581 2.63524
-0.835247 0.734432 3.50974
0.0103259 0.298814 3.53578
-0.841536 1.50611 -2.58125
0.00506863 0.915638 -2.58096
-0.839039 1.1622 3.02945
-0.852156 1.80161 2.54737
0.00505165 1.15435 2.57521
-0.848357 1.81732 3.45407
0.0065404 1.17005 3.48369
-0.844345 2.12492 -2.1331
0.0119786 2.09658 -2.58152
-0.852479 2.20685 -1.1321
0.0118049 2.15326 -1.68467
-0.865451 2.3133 -0.0312317
0.00604434 2.26045 -0.579525
-0.872864 2.39612 1.06971
-0.00645207 2.36616 0.517069
-0.869249 2.43748 2.07094
-0.0143454 2.42608 1.62235
-0.861475 2.45673 2.97198
-0.0110695 2.44888 2.51953
-0.00635909 2.46459 3.42444
0.834513 -0.162631 -2.15608
0.840439 0.00357485 -2.60494
1.26037 -0.184572 -2.60638
0.829125 -0.142286 -1.12911
1.25261 -0.144329 -1.70309
0.830975 -0.155797 0.0255579
1.25086 -0.141077 -0.55375
0.834338 -0.171842 1.18031
1.25609 -0.163678 0.602517
0.839532 -0.166107 2.20806
1.25585 -0.169459 1.75223
0.84794 -0.14449 3.1098
0.844955 0.0585462 2.6477
1.26493 -0.153542 2.65763
0.851913 0.0836615 3.54761
1.27277 -0.128693 3.55797
0.846505 0.553057 -2.59168
1.26401 0.191197 -2.60207
0.848928 0.286698 3.08551
0.847445 0.714465 2.60522
1.26613 0.277875 2.63315
0.852114 0.734432 3.50974
1.27367 0.301196 3.53467
0.858583 1.50611 -2.58124
1.27498 0.922439 -2.58304
0.850631 1.1622 3.02945
0.846139 1.80161 2.54737
1.27192 1.15536 2.57554
0.848539 1.81732 3.45407
1.27477 1.17109 3.48377
0.868128 2.12492 -2.13309
1.29265 2.10236 -2.58358
0.870329 2.20685 -1.13209
1.29741 2.15925 -1.68694
0.865043 2.3133 -0.0312244
1.30022 2.26339 -0.580892
0.852067 2.39612 1.06971
1.29045 2.36531 0.517238
0.843834 2.43748 2.07094
1.27458 2.42441 1.62353
0.844046 2.45673 2.97199
1.2705 2.44777 2.52071
1.27116 2.46403 3.4253
1.67847 -0.166271 -2.1534
1.68395 0.00304969 -2.60351
1.67435 -0.143121 -1.12773
1.67803 0.0469232 -1.70157
1.67598 -0.148957 0.023209
1.67756 0.0629408 -0.55732
1.6776 -0.161294 1.17444
1.68189 0.0535578 0.591854
1.68125 -0.156893 2.20179
1.67685 0.0509999 1.73672
1.68976 -0.137745 3.1058
1.68611 0.0657872 2.64308
1.69452 0.0888409 3.54503
1.6835 0.216244 -2.15169
1.69249 0.560579 -2.59343
1.68124 0.252985 -1.13116
1.69185 0.607691 -1.69263
1.68348 0.265456 0.0113255
1.70364 0.662021 -0.563198
1.68114 0.265852 1.15413
1.70849 0.694818 0.566563
1.68171 0.27368 2.178
1.68661 0.70542 1.69665
1.69087 0.292374 3.08231
1.69061 0.718766 2.60347
1.69633 0.737848 3.5087
1.70084 0.952027 -2.13438
1.70905 1.51868 -2.58539
1.71425 1.01673 -1.12468
1.71373 1.57002 -1.68642
1.72865 1.09138 -0.00796054
1.72783 1.66249 -0.573991
1.71396 1.13439 1.10908
[...]
POINT_DATA 29498
VECTORS point_vectors float
-5.93331 -6.67511 14.6732
0.115445 1.14294 6.30864
-4.01265 1.40922 6.45656
0.202064 0.0530066 0.802272
5.86421 -6.57026 14.6953
-0.117692 1.12634 6.27023
4.01235 1.409 6.45528
-0.202808 0.0561701 0.799934
0.159569 0.263299 1.81436
-0.542584 -0.951193 8.24207
-0.053139 -0.116022 0.585629
0.195547 0.263681 1.30519
-0.16255 0.263161 1.81556
0.528069 -0.951608 8.25327
0.0530111 -0.115887 0.585292
-0.1967 0.262623 1.30209
-0.817788 -0.446546 20.0757
-1.10962 -0.650862 20.8769
-0.442785 -0.354289 21.4502
-0.114787 -0.131875 21.5634
0.196605 0.125151 21.6475
0.455975 0.293095 21.4362
0.671787 0.387499 21.465
-1.0194 -0.353433 19.9619
-1.55114 -0.568235 20.8715
-0.562095 -0.364594 21.539
-0.151435 -0.183744 21.6264
0.294586 0.0767374 21.7367
0.670936 0.229492 21.5807
1.00374 0.270126 21.6456
-1.15781 0.140341 19.8366
-1.74416 0.136958 20.7844
-0.985414 -0.189293 21.4774
-0.416551 -0.216686 21.7409
0.265296 -0.190135 21.8089
0.727149 -0.228644 21.6245
1.04472 -0.29469 21.1881
-0.585664 0.419958 20.1653
-0.77647 0.535391 20.621
-0.670368 0.391426 21.1418
-0.372275 0.167668 21.5488
0.0116433 -0.105555 21.6142
0.216021 -0.259485 21.4756
0.352909 -0.313684 21.1854
-0.986728 -1.22459 19.3639
-1.69085 -2.79847 21.3689
-0.47446 -0.288525 22.0556
-0.217941 -0.103029 21.6347
-0.0355007 0.410096 21.6167
0.225878 0.86977 21.4722
0.708768 1.31813 21.089
-1.53546 -1.21685 18.4915
0.258382 1.3098 12.3004
1.1875 1.80541 14.2455
-1.95741 0.612876 17.9243
1.37885 0.748291 9.03736
2.49665 -0.359297 13.8589
-0.579845 0.899458 19.7892
-0.887602 1.35741 20.4545
-0.873817 1.10783 21.1695
-0.553938 0.577796 21.8985
-0.0343307 -0.167299 21.8322
0.16277 -0.482257 21.5441
0.245805 -0.546544 21.0576
0.977201 -1.22587 19.3514
1.68409 -2.8318 21.3788
0.48223 -0.285558 22.0611
0.219022 -0.100183 21.632
0.0336698 0.399348 21.6088
-0.242407 0.85524 21.5221
-0.72941 1.28991 21.2464
1.54066 -1.20865 18.5013
-0.297489 1.28743 12.7704
-1.22822 1.75202 14.6749
1.96568 0.612427 17.9573
-1.40992 0.77854 9.37493
-2.53148 -0.321463 14.2144
0.589224 0.882823 19.7991
0.896793 1.32089 20.4561
0.873871 1.09515 21.17
0.553123 0.589954 21.9037
0.0366741 -0.16521 21.838
-0.160653 -0.473992 21.5542
-0.240486 -0.581848 21.1062
0.819903 -0.453985 20.079
1.11339 -0.664897 20.8573
0.444428 -0.35995 21.4436
0.11084 -0.134728 21.563
-0.188069 0.104019 21.6395
-0.452511 0.284676 21.4232
-0.677788 0.378136 21.4331
1.0208 -0.358843 19.9704
1.55447 -0.569039 20.8727
0.562638 -0.366768 21.5432
0.151144 -0.183072 21.6283
-0.292654 0.0776001 21.7476
-0.640071 0.219953 21.6064
-0.983788 0.255472 21.6196
1.14965 0.141184 19.8498
1.741 0.139232 20.7914
0.984396 -0.190855 21.4781
0.414362 -0.215562 21.7446
-0.259931 -0.189086 21.802
-0.697018 -0.225066 21.6285
-1.0162 -0.294186 21.1909
0.582228 0.412871 20.1749
0.76615 0.519117 20.6239
0.669844 0.385317 21.1401
0.372829 0.17321 21.5508
0.00245841 -0.103995 21.5961
-0.210304 -0.257885 21.4675
-0.292534 -0.310694 21.1842
-3.24812 -0.371172 5.43143
6.1598e-05 -0.0602074 0.534749
0.0529677 0.0294036 1.2772
0.175589 0.15489 0.956215
-0.00114916 0.0095147 0.0298404
-0.208267 0.248092 5.03786
-0.000193655 0.323719 0.422761
-0.169731 -0.136755 1.21574
-0.000423069 0.00993214 -0.0124229
0.0279523 0.0483427 0.184658
3.25886 -0.36688 5.43833
-0.0595666 0.0280032 1.28823
-0.17368 0.158331 0.945183
0.197154 0.244223 5.02711
0.169721 -0.136963 1.21618
-0.0280669 0.0486074 0.184568
0.461054 0.492719 8.93673
0.00468192 -0.0138037 0.0550996
-2.49102e-06 6.70437e-05 0.00694646
-0.0846248 0.125637 0.303034
0 0 0
0.0160032 0.06622 0.462622
-6.55249e-06 5.75853e-05 0.000175918
0 0 0
-0.47531 0.490946 8.95503
-0.00467256 -0.0137536 0.054865
0.0822055 0.12742 0.313132
-0.016069 0.0665016 0.462415
0 0 0
-0.000535765 0.00157865 0.0454892
-0.000280216 0.00691677 0.0567601
9.04342e-08 -7.9283e-08 -1.09927e-05
6.10211e-08 5.4278e-08 2.71173e-05
-1.57917e-08 7.92088e-10 3.9504e-06
-7.62133e-06 -1.91467e-05 1.19773e-05
-1.48714e-05 0.000116267 -9.13486e-06
-1.89585e-07 6.56692e-05 0.000542957
0.000107159 0.133096 0.228174
-1.78979e-07 -6.46344e-06 2.44804e-05
-1.11179e-18 -7.87342e-18 2.76495e-17
0.000539634 0.00157583 0.04529
0.000293672 0.00696418 0.0565359
-2.82219 -1.45724 21.1577
-2.8894 -4.39149 21.9554
-3.40015 -3.08701 17.8957
0.488564 0.244659 21.4899
0.0689698 0.649053 18.7624
0.0206505 1.00219 10.1559
-3.4543 0.536428 21.0077
-4.72089 2.13574 16.7663
-2.24632 2.58917 20.4068
0.536106 -0.363863 21.5878
0.941182 0.797825 5.93701
0.0997878 -0.514233 21.9789
2.90812 -4.43444 21.9667
3.40407 -3.07252 17.901
2.83503 -1.46199 21.1582
-0.0739987 0.635722 18.7313
-0.0340032 0.999828 10.4645
-0.480475 0.236631 21.495
4.70742 2.11447 16.8202
2.24976 2.53919 20.4074
3.45356 0.536348 21.0038
-0.963062 0.846589 6.13817
-0.096042 -0.517998 22.0048
-0.529608 -0.354623 21.5787
-0.411903 -0.620408 21.9845
-0.206324 0.268595 19.444
-0.147449 -0.327179 21.5685
-0.0512975 -0.0730509 18.6288
-1.41177 -0.614133 21.7896
-2.03809 1.39892 21.2148
-0.64201 -0.524482 22.0368
-1.37272 0.581404 22.645
0.208995 0.270313 19.3531
0.403263 -0.626446 21.9864
0.0497644 -0.0733228 18.595
0.142162 -0.327198 21.5625
2.0385 1.38136 21.2171
1.41024 -0.615076 21.7844
1.37987 0.597623 22.6589
0.642017 -0.524979 22.0301
-1.07959 -0.611706 20.3842
-0.931678 -0.420609 19.9991
-0.995847 -0.761496 19.7833
-0.800775 -0.525507 21.3027
-1.30286 -0.615718 20.8586
-1.54175 -1.33894 21.0199
-0.236047 -0.229736 21.5059
-0.515729 -0.343144 21.4996
-0.37662 -0.380841 21.7005
0.0351453 -0.020496 21.6236
-0.131034 -0.147444 21.5723
-0.0841004 -0.110016 21.6387
0.327165 0.229992 21.5956
0.23672 0.10553 21.6654
0.213927 0.287455 21.7539
0.587418 0.415342 21.4875
0.561818 0.277583 21.5688
0.510277 0.597272 21.6411
0.813653 0.337858 21.3832
0.797188 0.841013 21.3898
-1.42519 -0.520215 20.2613
-1.19245 -0.157664 19.8242
-1.35951 -0.663877 19.43
-1.03611 -0.480451 21.3942
-1.75379 -0.25824 20.875
-0.299782 -0.280195 21.554
-0.765259 -0.353639 21.5356
0.0514639 -0.0616522 21.7189
-0.249546 -0.257981 21.6789
0.497812 0.164232 21.6398
0.331362 -0.0689179 21.778
0.834979 0.280306 21.2655
0.791973 0.0167498 21.6425
0.94359 0.553765 21.2609
1.1096 0.0519136 21.5352
1.42435 0.607453 20.5588
-1.61971 0.213656 20.1626
-0.869241 0.398764 19.9767
-1.62911 0.276812 19.2037
-1.35403 -0.0341257 21.2961
-1.2652 0.525868 20.6408
-0.712762 -0.249585 21.6123
-1.01176 0.215863 21.2892
-0.0727807 -0.193884 21.833
-0.539317 -0.000733853 21.6841
0.51639 -0.196513 21.681
0.0658937 -0.214282 21.7152
0.877726 -0.24269 21.4839
0.389687 -0.34927 21.5412
1.12 -0.454286 21.4549
0.585918 -0.480655 21.2192
1.60039 -0.591477 20.7244
-0.719187 0.508619 20.3333
-0.630587 0.632555 19.9769
-0.769777 0.485239 20.9074
-0.923103 0.887906 20.5394
-0.540982 0.286119 21.3804
-0.848491 0.664952 21.1706
-0.172707 0.0325493 21.6016
-0.494739 0.290078 21.698
0.115488 -0.181848 21.4709
0.0166049 -0.169983 21.7421
0.25188 -0.313104 21.2393
0.218185 -0.369923 21.5001
0.362058 -0.48882 21.0312
-1.56346 -2.25363 19.7253
-1.24633 -1.28894 18.9567
-0.00510242 -1.91862 18.7565
-0.895992 -1.13245 22.2204
-0.00697882 -3.68107 22.0008
-0.289741 -0.0539512 21.6869
-0.00232393 -0.577254 22.183
-0.140759 0.0981264 21.6486
-0.0048334 -0.244092 21.1123
0.0513169 0.62722 21.5435
-0.0139974 0.112493 20.5524
0.468377 1.06088 21.343
0.368405 1.10771 19.0806
-0.0213974 0.221293 20.2271
0.875611 1.74442 18.1374
-0.0132109 1.14471 16.5406
-1.96342 -0.490693 17.8214
0.00628096 -2.09447 17.0602
0.820893 1.80856 14.2175
0.231905 1.6177 5.23234
0.020291 -1.25091 -4.05828
2.33596 1.23619 9.91855
0.0799377 -1.26222 0.454002
-1.11687 1.19712 19.0722
0.0149732 1.20848 15.7533
1.90737 0.194888 11.647
0.438658 -0.895396 21.7332
0.011966 -0.486608 -0.757993
0.735794 -1.25939 21.2108
-0.0289173 -1.73058 -1.05441
-0.78395 1.23064 20.0512
0.0072944 1.25634 19.5356
-0.900442 1.22433 20.9012
0.0124654 1.9889 20.3524
-0.801534 0.966565 21.5663
0.00936779 1.79375 21.0999
-0.258883 0.12911 22.005
-0.00603087 1.11796 22.2286
0.0729838 -0.334477 21.7008
-0.00165114 -0.144416 21.9796
0.212001 -0.626435 21.588
-0.00194894 -0.609533 21.8911
0.00445819 -1.00291 21.265
1.55752 -2.26654 19.7145
1.24527 -1.2832 18.9541
1.00294 -0.768481 19.7569
0.901292 -1.13485 22.2313
1.55578 -1.36115 21.0162
0.293579 -0.0512934 21.683
0.37603 -0.376547 21.6971
0.141482 0.0941056 21.643
0.0856189 -0.106807 21.6302
-0.0525456 0.606781 21.5621
-0.211598 0.279928 21.7451
-0.488818 1.01501 21.4827
-0.380949 1.0803 19.1065
-0.503772 0.558746 21.6431
-0.910387 1.71047 18.2128
-0.786365 0.784583 21.3666
1.96028 -0.483061 17.8522
1.36135 -0.660813 19.4309
-0.85895 1.73931 14.6199
-0.248954 1.59741 5.70084
-0.910919 0.516615 21.3415
-2.31232 1.19169 10.4454
-1.37952 0.577127 20.7675
1.1206 1.17541 19.0925
1.6217 0.271745 19.2161
-1.94018 0.202606 12.0936
-0.439245 -0.89252 21.7459
-1.09329 -0.459965 21.6368
-0.74631 -1.24857 21.1528
-1.57203 -0.582797 20.7672
0.793098 1.19933 20.0616
0.630474 0.618324 19.9893
0.90594 1.20357 20.9034
0.917535 0.864363 20.5402
0.800853 0.967215 21.5656
0.841456 0.656791 21.1668
0.257176 0.137571 22.0107
0.492553 0.292867 21.6978
-0.0702253 -0.333723 21.7095
-0.0240101 -0.173405 21.7599
-0.221595 -0.667993 21.5492
-0.212307 -0.362979 21.5031
-0.304097 -0.47148 21.1948
1.08667 -0.632354 20.3594
0.928334 -0.422322 20.0083
0.790981 -0.532606 21.3021
1.30719 -0.622655 20.8509
0.237665 -0.234042 21.4972
0.513294 -0.347398 21.4968
-0.0404491 -0.0266971 21.6173
0.13213 -0.150455 21.57
-0.328463 0.223478 21.59
-0.236052 0.100935 21.6638
-0.594061 0.407916 21.4812
-0.538131 0.27373 21.5637
-0.797365 0.312415 21.3286
1.42989 -0.521453 20.2637
1.19353 -0.156566 19.8312
1.03319 -0.482656 21.4048
1.75549 -0.257608 20.8863
0.299623 -0.279195 21.5567
0.767631 -0.356887 21.5387
-0.0504467 -0.0704346 21.6994
0.247039 -0.262282 21.6768
-0.47671 0.156797 21.6873
-0.333363 -0.0687862 21.767
-0.782816 0.271325 21.2505
-0.761087 0.0108898 21.6641
-1.08371 0.0706023 21.5413
1.6121 0.213162 20.1714
0.860057 0.389782 19.9894
1.35333 -0.0360907 21.2992
1.25103 0.514916 20.6379
0.712819 -0.25039 21.612
1.0099 0.214847 21.2887
0.070297 -0.191727 21.8224
0.535709 0.00162107 21.693
-0.509348 -0.20045 21.6988
-0.067092 -0.204197 21.7306
-0.873983 -0.243487 21.4876
-0.409154 -0.349269 21.5212
-0.640091 -0.466551 21.161
0.712405 0.494693 20.3374
0.766262 0.474177 20.9041
0.541606 0.289782 21.3767
0.174345 0.0400553 21.6081
-0.119029 -0.178753 21.4762
-0.275701 -0.33619 21.2399
-1.23789 -0.591086 20.3203
-2.29704 -2.77791 19.0783
-1.41631 -1.19635 20.144
-2.29896 -1.17484 19.7468
-1.1835 -0.745295 19.605
-2.14878 -1.49203 21.0987
-0.920183 -0.503636 21.3448
-1.04419 -0.679859 21.7685
-0.890937 -0.812295 21.7023
-1.32111 -0.946668 22.1061
-0.338959 -0.443738 21.826
-0.264447 -0.235534 21.5308
-0.0161843 0.353191 18.6962
-0.147993 -0.183065 21.6039
-0.0988836 -0.443217 21.6078
-0.0588114 -0.192171 21.6696
0.0468662 -0.030912 21.661
0.014241 0.235132 18.5814
0.0252998 0.0620127 21.7313
0.098387 -0.0633903 21.5083
0.362272 0.312878 21.7725
0.410485 0.203936 21.6119
0.126931 0.880221 18.686
0.337245 0.447805 21.6862
0.713895 0.415621 21.3077
0.743302 0.649402 21.5568
0.698274 0.347273 21.38
0.618017 1.53691 18.455
0.696249 0.744733 21.3362
1.19041 0.724406 21.0052
1.09311 0.869047 21.5287
-1.6563 -0.220102 20.1897
-5.39018 -1.0709 15.9748
-2.85781 0.589063 19.4026
-1.67777 -0.255859 19.1706
-3.74766 -0.516634 21.1982
-1.25206 -0.298842 21.404
-2.05711 -0.175631 21.821
-0.750651 -0.665315 22.1743
-0.469902 -0.345019 21.5972
-1.12888 -0.715654 21.9429
-0.236894 -0.359991 21.7001
0.0390914 -0.155734 21.7942
-0.065306 -0.400981 21.8805
0.638959 0.0274255 21.3678
0.593612 -0.0129386 21.7482
-0.379588 1.56776 2.72007
0.883729 -0.338513 21.0722
1.24972 0.17072 20.9337
0.970592 0.0258344 21.3179
1.16825 1.38191 7.90573
1.50893 -0.530245 21.1753
1.75997 0.121442 21.0683
-1.15891 0.529542 20.2502
-1.84366 2.11516 19.3265
-0.820321 0.826422 20.2408
-1.15257 0.719051 19.6102
-1.83993 1.16009 20.5556
-1.17978 0.38772 21.0405
-2.02447 1.81129 21.2724
-0.913241 0.783261 20.9149
-1.50897 0.524251 21.3714
-0.823503 0.104824 21.5232
-2.37981 1.3607 21.9535
-0.717713 0.50863 21.4768
-0.846199 0.140268 21.9969
-0.22075 -0.10993 21.7824
-0.380685 -0.0580643 22.4512
-0.230091 0.0488086 21.7751
0.0821961 -0.29686 21.9258
0.249441 -0.280802 21.6381
0.267833 -0.705358 21.8389
0.11661 -0.264924 21.5748
0.472247 -0.598608 21.6944
0.512933 -0.401484 21.4327
0.618923 -1.10688 21.4523
0.259208 -0.448961 21.3932
0.684938 -0.721049 20.9598
2.29972 -2.78353 19.07
-0.0084269 -3.76567 19.3775
0.00733338 -7.8264 15.37
0.00130266 -2.16439 18.058
-0.0039488 -5.0011 23.5016
1.0586 -0.678449 21.7091
-0.00324057 -1.48534 22.7516
-0.00112352 -0.126934 15.119
0.0161768 0.353074 18.638
-0.00291179 -0.311741 21.466
-0.00454245 -0.0855795 13.7126
-0.0194261 0.230331 18.5577
-0.00568884 -0.0985407 20.8772
-0.0273847 0.194098 13.14
-0.127653 0.854196 18.7124
-0.0183672 0.14104 20.5317
-0.0395532 -0.454548 -0.953929
0.0041482 -0.15214 11.1499
-0.635899 1.48811 18.543
-0.0338193 0.656617 18.91
0.035818 -1.7227 -4.08842
0.0477187 0.7206 10.348
5.366 -1.05477 16.023
0.023676 6.04665 10.9829
0.0120585 -0.889516 15.5084
0.357067 1.56944 2.95962
-0.027726 1.53457 -0.178606
0.0495576 -1.5646 -4.09569
-1.1591 1.34432 8.41333
0.0485758 -0.547172 -1.33886
0.00104913 -2.45893 -6.27023
1.84815 2.07002 19.3418
0.010078 1.77841 19.846
0.0162585 1.91839 18.2805
0.0178743 4.62628 20.1182
2.02592 1.77696 21.2693
0.0107258 1.85069 20.8395
0.0100615 3.06918 20.759
2.37777 1.36264 21.9519
-0.000227164 1.77198 21.6131
-0.0116069 2.21661 22.8562
0.378158 -0.0532767 22.4598
-0.0058598 0.303035 22.2129
-0.00665214 -0.334276 15.3
-0.267296 -0.701145 21.8302
0.00222777 -0.342613 21.8272
-0.00162017 -0.69937 15.3439
-0.610514 -1.10794 21.5023
0.0120865 -0.664726 21.2851
-0.00292392 -1.52736 16.7954
1.243 -0.601363 20.3188
1.42491 -1.20877 20.1292
2.30271 -1.17337 19.7442
1.18487 -0.748868 19.6142
2.16763 -1.51041 21.1076
0.915666 -0.509402 21.3465
0.891451 -0.813551 21.7058
1.31458 -0.953504 22.1149
0.332091 -0.439572 21.826
0.261617 -0.236977 21.5356
0.145591 -0.179773 21.5989
0.0911492 -0.445098 21.6018
0.0582703 -0.190061 21.6657
-0.0442342 -0.0409726 21.6424
-0.025174 0.0587948 21.7205
-0.0998066 -0.065986 21.5161
-0.354505 0.304786 21.7698
-0.395215 0.196832 21.6354
-0.326219 0.43309 21.677
-0.693722 0.389853 21.3697
-0.723424 0.618437 21.556
-0.673816 0.336567 21.366
-0.686827 0.714611 21.3134
-1.16326 0.667932 21.3043
-1.08678 0.822257 21.5198
1.65962 -0.221221 20.1946
2.84099 0.581678 19.4144
1.67163 -0.255109 19.1825
3.75804 -0.517549 21.2038
1.25413 -0.30332 21.4099
2.05607 -0.177505 21.8175
0.750194 -0.669424 22.1783
0.469286 -0.346493 21.6037
1.12923 -0.716844 21.9372
0.238972 -0.362468 21.6947
-0.0340114 -0.15506 21.793
0.0671856 -0.400616 21.8732
-0.623606 0.0259094 21.3662
-0.581958 -0.0203718 21.7561
-0.867752 -0.328042 21.0946
-1.21249 0.161473 21.0207
-0.940191 0.0225012 21.3131
-1.51055 -0.5318 21.3351
-1.72731 0.0838857 21.2182
1.14522 0.516669 20.2509
0.8154 0.804545 20.2468
1.14712 0.702503 19.623
1.82672 1.13712 20.5571
1.17197 0.385083 21.0378
0.907078 0.769887 20.9179
1.5012 0.517462 21.3709
0.82294 0.107613 21.5211
0.718682 0.509919 21.4753
0.853609 0.142869 22.0022
0.219374 -0.106964 21.7749
0.225211 0.0473304 21.786
-0.0853396 -0.296985 21.9419
-0.250763 -0.281731 21.6321
-0.119867 -0.261922 21.5889
-0.479343 -0.579243 21.7543
-0.566373 -0.377832 21.4709
-0.261084 -0.488106 21.3946
-0.705978 -0.725516 20.9952
-1.87048 -1.24109 19.9491
-1.06877 -0.880623 21.9058
-0.0757994 -0.262507 21.6532
0.11255 0.0300059 21.7806
0.544473 0.502194 21.6151
0.935801 0.816608 21.5048
-3.05307 -0.408899 19.3691
-1.72668 -0.550701 22.1965
-0.37168 -0.6355 21.8687
0.133154 -0.149932 21.6037
0.93538 0.128438 21.1102
1.64835 0.105645 21.1421
-1.59117 1.03102 19.9222
-1.66094 0.823792 21.1576
-1.34297 0.340317 21.7173
-0.311282 -0.0908503 22.0559
0.309474 -0.451198 21.8533
0.585487 -0.709231 21.3677
-0.00324824 -5.41466 18.3716
-0.00142612 -0.819743 18.4111
-0.0019632 -0.0695958 14.0016
-0.00930925 -0.0248325 13.4069
-0.0421836 -0.083618 12.1083
0.000413052 0.153377 10.7648
0.0150757 -2.00023 7.62595
-0.0294112 0.773973 -1.99797
0.044621 -2.2266 -5.33667
0.0189791 3.75497 18.4608
0.0133593 3.30014 21.2
-0.00184675 4.55308 21.1703
-0.00845083 0.103026 20.0106
-0.00395474 -0.520265 15.4797
-0.00677243 -1.1586 15.7791
1.8789 -1.24959 19.9492
1.06594 -0.883851 21.9113
0.0721388 -0.259206 21.6519
-0.107485 0.0284345 21.7767
-0.530332 0.480026 21.6255
-0.929033 0.793011 21.4917
3.04379 -0.407647 19.3796
1.72795 -0.554334 22.2029
0.370456 -0.639172 21.8675
-0.129971 -0.15192 21.598
-0.908028 0.118663 21.2111
-1.61634 0.0716675 21.3741
1.57638 1.00499 19.9314
1.6513 0.810725 21.1558
1.34314 0.340709 21.717
0.315466 -0.0885338 22.0624
-0.303504 -0.446409 21.8772
-0.587993 -0.709539 21.4318
-5.45609 -0.772765 10.9745
-0.0371403 -0.148294 0.881421
-0.0246383 0.0113377 1.41821
0.11289 0.0665589 0.506759
-0.0916019 -0.0123048 0.195835
-0.445908 0.0890689 4.15362
-1.99797 -0.087251 3.67227
-0.247534 0.636206 1.03875
-0.447395 -0.120963 1.66639
0.186631 0.140059 0.645562
0.000527538 0.0222679 -0.0279736
0.0320459 0.0462876 0.187546
0.0364763 -0.149105 0.889792
5.49855 -0.655429 11.0721
0.016462 0.00833265 1.4065
0.0900331 -0.0163755 0.187791
-0.107138 0.0656585 0.490063
0.436784 0.0835158 4.12748
0.247398 0.636481 1.03897
2.00935 -0.0830792 3.69483
0.447531 -0.120736 1.66668
-0.00383323 0.0237311 -0.0290077
-0.19757 0.153732 0.684456
-0.0323525 0.0467702 0.187464
0.0860606 0.0320998 1.81676
0.514515 0.590867 7.1026
0.0295466 -0.0268001 0.30565
0 0 0
-0.0186512 0.243201 4.6483
0.331646 0.337032 9.89611
0 0 0
0 0 0
-0.0966551 -0.0998355 0.69456
2.72297e-05 -0.00126205 0.00930149
-0.0505372 -0.0682319 0.373085
0 0 0
0.0133512 0.0604145 0.176538
1.6673e-05 0.000860002 0.0036953
0.0350352 0.0933736 0.557016
0.0299724 0.0127046 0.293868
-0.0927192 0.0267224 1.83143
0 0 0
-0.528124 0.587951 7.11635
-0.0294287 -0.0263076 0.303546
-0.000873173 0.256142 4.59665
0 0 0
-0.345565 0.337246 9.91656
0 0 0
0.0965376 -0.0997899 0.694176
0 0 0
-2.70662e-05 -0.00125054 0.0092015
0.0507188 -0.0683436 0.372898
-0.0135462 0.0611681 0.178002
-0.0301291 0.012751 0.293567
-1.67143e-05 0.00086372 0.00370644
-0.0349325 0.0932175 0.556185
1.49478e-05 -9.18129e-05 0.000404149
0 0 0
-4.95996e-08 1.92822e-08 3.00629e-06
-1.05333e-08 -1.33688e-05 1.89189e-06
-2.64704e-05 -4.73385e-05 0.0013885
-5.08106e-06 2.49577e-07 4.41485e-05
3.244e-06 0.00522396 0.0458149
-0.0486959 0.0381277 -0.00380357
2.75929e-07 -2.62011e-08 -3.42709e-05
-0.0218178 -0.131852 -0.258785
-0.00118876 0.00516986 0.0404877
-5.31831e-07 -3.26973e-09 4.50303e-05
-0.00127684 1.21742 0.356159
-4.07245e-06 0.0503987 0.22057
5.79861e-08 -6.49627e-06 4.76328e-05
0 0 0
0.000182968 0.0117927 -0.00594191
-3.42669e-07 5.90762e-05 -0.00013926
9.08347e-08 1.93479e-05 9.83828e-05
0.00358143 -0.00177861 0.0154607
0 0 0
-7.14148e-06 -4.39048e-05 0.000191771
5.71554e-06 2.77128e-07 4.86564e-05
2.90389e-05 -4.22875e-05 0.0013804
0.0478854 0.0391589 -0.0041908
1.03385e-05 0.00527582 0.0455616
-8.55118e-08 8.0437e-10 -8.92527e-06
0.00119635 0.00519545 0.0405022
0 0 0
-5.55854e-08 -6.4748e-06 4.71855e-05
-0.00343321 -0.00166756 0.0147567
-9.31352e-08 1.95333e-05 9.84766e-05
0 0 0
0 0 0
7.80304e-05 -0.000592809 0.00257572
0.00595473 -0.0127406 0.102806
1.66066e-07 -2.19123e-07 -2.89906e-05
4.58987e-08 -6.15517e-08 -1.72134e-05
-0.0117957 0.0383145 0.250525
-0.000804157 0.00914569 0.0681123
-1.77121e-08 -3.04994e-09 -3.45522e-06
5.35601e-09 1.07591e-09 -6.46779e-06
-3.98326e-08 -8.18704e-07 -9.9835e-06
-0.13169 0.121605 0.320737
-1.28504e-05 0.00438262 0.0459978
0 0 0
0 0 0
-1.07138e-05 -0.00332879 0.0252939
0 0 0
0 0 0
-7.98488e-05 -0.000609683 0.00263184
-0.00589007 -0.0126531 0.102438
0.0118 0.0382483 0.249896
0.000846401 0.00920234 0.0679167