# vtk DataFile Version 2.0
tet_velo
ASCII
DATASET UNSTRUCTURED_GRID
POINTS 29498 float
-0.830749 0.135 -1.745
-0.655 0.225 1.85713
-0.805 0.69695 -1.755
-0.815 0.805 1.7575
0.830749 0.135 -1.745
0.653533 0.225 1.855
0.805 0.69695 -1.755
0.815 0.805 1.7575
-0.796517 0.140649 -0.54429
-0.75356 0.155023 0.65642
-0.87034 0.794974 -0.584167
-0.867375 0.824692 0.586667
0.796031 0.140646 -0.545
0.752612 0.154993 0.655
0.870342 0.794975 -0.584167
0.867371 0.824688 0.586667
-1.66854 -0.215126 -2.67156
-1.65909 -0.181558 -1.72305
-1.62713 -0.171864 -0.52162
-1.57006 -0.15805 0.685843
-1.49445 -0.108033 1.88778
-1.47428 -0.0777706 2.83877
-1.47664 -0.0563892 3.78514
-1.66599 0.088889 -2.68718
-1.66208 0.132523 -1.74193
-1.63535 0.150533 -0.546223
-1.57264 0.159794 0.652226
-1.47746 0.202359 1.84851
-1.45872 0.23142 2.7991
-1.4658 0.253522 3.74643
-1.65598 0.682812 -2.71013
-1.6581 0.726188 -1.76371
-1.68917 0.796289 -0.588355
-1.66329 0.815828 0.584948
-1.59065 0.811637 1.76092
-1.51905 0.839976 2.71308
-1.49013 0.869516 3.66541
-1.64281 1.62599 -2.76664
-1.64633 1.67445 -1.82462
-1.66237 1.74184 -0.658913
-1.6658 1.77878 0.500456
-1.63705 1.78688 1.66658
-1.59394 1.79772 2.60948
-1.55305 1.81804 3.55859
-0.843901 -0.214518 -2.67358
-0.836001 -0.179796 -1.72601
-0.812548 -0.177117 -0.521508
-0.78264 -0.160962 0.68918
-0.727885 -0.0956964 1.89383
-0.702814 -0.0694489 2.84276
-0.698934 -0.0523909 3.7873
-0.840099 0.0864321 -2.68785
-0.671905 0.239486 2.80242
-0.682252 0.256864 3.74801
-0.828064 0.670189 -2.70654
-0.718075 0.839057 2.71226
-0.694657 0.869326 3.66501
-0.810543 1.6185 -2.76313
-0.809451 1.66799 -1.82074
-0.825889 1.74168 -0.656634
-0.839593 1.78102 0.500011
-0.823946 1.78603 1.66432
-0.786243 1.79567 2.60721
-0.748582 1.81633 3.55686
0.806767 -0.214519 -2.67374
0.810931 -0.179797 -1.72621
0.786582 -0.177123 -0.522178
0.737913 -0.160983 0.687939
0.681263 -0.0957044 1.89217
0.761023 -0.0694553 2.84146
0.818296 -0.0523979 3.78629
0.811286 0.0864313 -2.68794
0.78824 0.239482 2.80116
0.839068 0.256858 3.74705
0.814099 0.670189 -2.7066
0.843727 0.839053 2.71166
0.864927 0.86932 3.6643
0.849513 1.6185 -2.76328
0.859397 1.66799 -1.82088
0.856197 1.74168 -0.656807
0.833857 1.78102 0.499784
0.820617 1.78602 1.66402
0.834712 1.79567 2.6068
0.857377 1.81632 3.55635
1.63197 -0.21513 -2.67195
1.63599 -0.181562 -1.72355
1.60547 -0.171876 -0.522758
1.5375 -0.158081 0.68386
1.46969 -0.108054 1.88524
1.52097 -0.077786 2.8365
1.58236 -0.0564043 3.78324
1.63996 0.0888866 -2.68745
1.65489 0.132521 -1.74222
1.63126 0.150525 -0.547182
1.56632 0.159762 0.650398
1.48065 0.202341 1.84604
1.54177 0.231407 2.79695
1.60166 0.253509 3.74463
1.6473 0.68281 -2.71032
1.66104 0.726188 -1.76384
1.69284 0.796286 -0.588703
1.66332 0.815813 0.584276
1.60075 0.811625 1.75998
1.61306 0.839965 2.71179
1.64 0.869504 3.66401
1.67763 1.62599 -2.76698
1.68882 1.67444 -1.82495
1.68936 1.74183 -0.659319
1.66587 1.77877 0.499925
1.64285 1.78687 1.66589
1.64504 1.79771 2.60862
1.65946 1.81803 3.55757
-0.830933 0.415975 -1.76306
0 0.157976 -1.72202
-0.807574 0.143884 -1.14465
-0.792532 0.515 1.86485
-0.000733495 0.30229 1.77877
-0.699861 0.19443 1.25678
0 0.776028 -1.83408
-0.857664 0.765955 -1.16958
0 0.918838 1.87134
-0.868209 0.841867 1.17208
0.830982 0.415975 -1.76311
0.800072 0.151141 -1.145
0.79264 0.515 1.86462
0.701172 0.191897 1.255
0.857667 0.765959 -1.16958
0.86821 0.841869 1.17208
-0.77592 0.146955 0.056065
-0.867512 0.467811 -0.564228
-0.000242907 0.141496 -0.544645
-0.885685 0.489858 0.621543
-0.000474077 0.155949 0.65571
-0.86905 0.810025 0.00125003
6.71715e-07 0.940395 -0.584167
-2.04939e-06 1.32466 0.586667
0.775198 0.146943 0.055
0.867456 0.46781 -0.564583
0.885693 0.489841 0.620833
0.868987 0.809962 0.00125003
-0.876321 0.441893 -1.15711
-0.884 0.478834 0.0286575
-0.873308 0.502429 1.21443
-0.000121454 0.139842 -1.14482
-0.000358492 0.147772 0.0555325
-0.000603786 0.193257 1.25589
0 0.415975 -2.1149
-0.000366747 0.515 2.09829
3.35858e-07 0.8879 -1.16958
-6.88838e-07 1.29017 0.00125003
-1.0247e-06 1.23026 1.17208
0.876328 0.441893 -1.15729
0.883978 0.478826 0.028125
0.873323 0.50242 1.21354
-1.24642 0.133762 -1.74347
-0.833375 -0.0223978 -1.7355
-0.835424 0.110716 -2.21643
-1.06623 0.213679 1.85282
-0.691442 0.0646518 1.87548
-0.663452 0.232243 2.32978
-1.23155 0.711569 -1.75936
-0.816532 0.68357 -2.23077
-0.807226 1.18247 -1.78787
-1.20282 0.808318 1.75921
-0.766537 0.822028 2.23488
-0.819473 1.29551 1.71091
0.82084 -0.0223985 -1.7356
0.821017 0.110716 -2.21647
1.24282 0.133761 -1.74361
0.667398 0.0646478 1.87358
0.720886 0.232241 2.32808
1.06709 0.213671 1.85052
0.80955 0.683569 -2.2308
0.832199 1.18247 -1.78794
1.23302 0.711569 -1.75942
0.829364 0.822027 2.23458
0.817809 1.29551 1.71076
1.20788 0.808312 1.75874
-1.21594 0.145591 -0.545257
-0.804533 -0.018234 -0.532899
-1.1631 0.157409 0.654323
-0.7681 -0.00296928 0.6728
-1.27975 0.795631 -0.586261
-0.848115 1.26833 -0.620401
-1.26533 0.82026 0.585807
-0.853484 1.30286 0.543339
0.791307 -0.0182385 -0.533589
1.21364 0.145585 -0.546091
0.745262 -0.0029946 0.67147
1.15947 0.157378 0.652699
0.863269 1.26833 -0.620487
1.28159 0.795631 -0.586435
0.850614 1.30285 0.543226
1.26534 0.82025 0.585471
-1.66382 -0.198342 -2.19731
-1.66727 -0.0631185 -2.67937
-1.25622 -0.214822 -2.67257
-1.64311 -0.176711 -1.12234
-1.66059 -0.0245176 -1.73249
-1.24755 -0.180677 -1.72453
-1.59859 -0.164957 0.0821118
-1.63124 -0.0106653 -0.533922
-1.21984 -0.17449 -0.521564
-1.53226 -0.133042 1.28681
-1.57135 0.000871932 0.669035
-1.17635 -0.159506 0.687512
-1.48436 -0.092902 2.36327
-1.48596 0.0471626 1.86815
-1.11117 -0.101865 1.89081
-1.47546 -0.0670799 3.31196
-1.4665 0.0768245 2.81893
-1.08854 -0.0736098 2.84077
-1.47122 0.0985665 3.76579
-1.08779 -0.0543901 3.78622
-1.66404 0.110706 -2.21456
-1.66098 0.385851 -2.69866
-1.25304 0.0876606 -2.68752
-1.64872 0.141528 -1.14408
-1.66009 0.429356 -1.75282
-1.604 0.155164 0.0530014
-1.66226 0.473411 -0.567289
-1.52505 0.181076 1.25037
-1.61796 0.487811 0.618587
-1.46809 0.216889 2.3238
-1.53406 0.506998 1.80472
-1.46226 0.242471 3.27277
-1.48889 0.535698 2.75609
-1.06531 0.235453 2.80076
-1.47797 0.561519 3.70592
-1.07403 0.255193 3.74722
-1.65704 0.7045 -2.23692
-1.64939 1.1544 -2.73839
-1.24202 0.676501 -2.70834
-1.67364 0.761239 -1.17603
-1.65222 1.20032 -1.79416
-1.67623 0.806058 -0.00170365
-1.67577 1.26906 -0.623634
-1.62697 0.813732 1.17294
-1.66454 1.29731 0.542702
-1.55485 0.825806 2.237
-1.61385 1.29926 1.71375
-1.50459 0.854746 3.18925
-1.55649 1.31885 2.66128
-1.11856 0.839516 2.71267
-1.52159 1.34378 3.612
-1.09239 0.869421 3.66521
-1.64457 1.65022 -2.29563
-1.22668 1.62225 -2.76489
-1.65435 1.70814 -1.24176
-1.22789 1.67122 -1.82268
-1.66408 1.76031 -0.0792283
-1.24413 1.74176 -0.657774
-1.65143 1.78283 1.08352
-1.2527 1.7799 0.500234
-1.6155 1.7923 2.13803
-1.2305 1.78645 1.66545
-1.5735 1.80788 3.08404
-1.19009 1.7967 2.60834
-1.15082 1.81718 3.55772
-0.839951 -0.197157 -2.19979
-0.842 -0.064043 -2.68072
-0.0185668 -0.214519 -2.67366
-0.824274 -0.178456 -1.12376
-0.012535 -0.179796 -1.72611
-0.797594 -0.169039 0.0838359
-0.0129829 -0.17712 -0.521843
-0.755263 -0.128329 1.29151
-0.0223637 -0.160972 0.68856
-0.715349 -0.0825726 2.3683
-0.0233109 -0.0957004 1.893
-0.700874 -0.0609199 3.31503
-0.687359 0.0850186 2.82259
0.0291046 -0.0694521 2.84211
-0.690593 0.102237 3.76766
0.0596809 -0.0523944 3.7868
-0.834082 0.378311 -2.6972
-0.0144069 0.0864317 -2.6879
-0.677078 0.248175 3.27522
-0.69499 0.539271 2.75734
0.0581674 0.239484 2.80179
-0.688454 0.563095 3.70651
0.0784082 0.256861 3.74753
-0.819304 1.14435 -2.73484
-0.00698266 0.670189 -2.70657
-0.706366 0.854191 3.18863
-0.752159 1.31736 2.65973
0.0628263 0.839055 2.71196
-0.721619 1.34283 3.61093
0.0851353 0.869323 3.66466
-0.809997 1.64325 -2.29193
0.019485 1.6185 -2.7632
-0.81767 1.70484 -1.23868
0.0249731 1.66799 -1.82081
-0.832741 1.76135 -0.0783117
0.0151537 1.74168 -0.656721
-0.83177 1.78352 1.08217
-0.00286822 1.78102 0.499898
-0.805095 1.79085 2.13577
-0.00166445 1.78602 1.66417
-0.767413 1.806 3.08203
0.0242343 1.79567 2.607
0.0543973 1.81632 3.5566
0.808849 -0.197158 -2.19997
0.809026 -0.0640441 -2.68084
1.21937 -0.214825 -2.67284
0.798756 -0.17846 -1.12419
1.22346 -0.18068 -1.72488
0.762248 -0.169053 0.0828808
1.19603 -0.1745 -0.522468
0.709588 -0.128343 1.29005
1.13771 -0.159532 0.6859
0.721143 -0.0825799 2.36681
1.07548 -0.101879 1.8887
0.789659 -0.0609266 3.31388
0.774631 0.0850132 2.82131
1.141 -0.0736206 2.83898
0.828682 0.10223 3.76667
1.20033 -0.0544011 3.78477
0.812692 0.37831 -2.69727
1.22562 0.087659 -2.6877
0.813654 0.24817 3.27411
0.815984 0.539268 2.75641
1.165 0.235444 2.79905
0.851998 0.563089 3.70568
1.22036 0.255183 3.74584
0.831806 1.14435 -2.73494
1.2307 0.6765 -2.70846
0.854327 0.854187 3.18798
0.83922 1.31736 2.65923
1.22839 0.839509 2.71173
0.861152 1.34282 3.61033
1.25246 0.869412 3.66416
0.854455 1.64325 -2.29208
1.26357 1.62224 -2.76513
0.857797 1.70484 -1.23884
1.27411 1.67122 -1.82291
0.845027 1.76135 -0.0785113
1.27278 1.74176 -0.658063
0.827237 1.78352 1.0819
1.24987 1.7799 0.499855
0.827665 1.79084 2.13541
1.23173 1.78645 1.66495
0.846044 1.80599 3.08158
1.23987 1.79669 2.60771
1.25842 1.81717 3.55696
1.63398 -0.198346 -2.19775
1.63596 -0.0631215 -2.6797
1.62073 -0.176719 -1.12315
1.64544 -0.0245206 -1.73288
1.57149 -0.164978 0.0805515
1.61837 -0.0106757 -0.53497
1.5036 -0.133067 1.28455
1.55191 0.000840898 0.667129
1.49533 -0.0929199 2.36087
1.47517 0.0471436 1.86564
1.55166 -0.0670951 3.30987
1.53137 0.0768104 2.81673
1.59201 0.0985521 3.76393
1.64742 0.110704 -2.21483
1.64363 0.385849 -2.69889
1.64307 0.141523 -1.1447
1.65796 0.429354 -1.75303
1.59879 0.155144 0.0516082
1.66205 0.473406 -0.567942
1.52349 0.181052 1.24822
1.61482 0.487788 0.617337
1.51121 0.216874 2.3215
1.5407 0.506983 1.80301
1.57171 0.242458 3.27079
1.57742 0.535686 2.75437
1.62083 0.561506 3.70432
1.65417 0.704499 -2.23708
1.66247 1.1544 -2.73865
1.67694 0.761237 -1.17627
[...]
POINT_DATA 29498
VECTORS point_vectors float
-4.08332 -5.06468 17.1306
0.0868803 0.21292 0.863437
-2.98738 2.34202 6.80041
0.0490999 -0.15239 0.496997
4.09161 -5.09455 17.2069
-0.073275 0.211652 0.882235
2.97446 2.34381 6.7851
-0.0480635 -0.153825 0.496238
0.00130463 0.000317229 0.0315084
7.86672e-05 7.39468e-05 0.00233575
-0.0751436 -0.09013 0.287646
0.0473543 0.131921 0.461008
-0.00147065 0.000302281 0.03573
-0.000280732 0.000249652 0.00774223
0.0757705 -0.0909625 0.290369
-0.0475622 0.132802 0.460758
-0.7259 -0.357947 20.0153
-1.03333 -0.598202 20.7032
-0.425019 -0.432458 21.3315
0.146256 -0.181448 21.5481
0.741602 0.0807712 21.4425
1.00345 0.206222 21.1992
0.941153 0.133737 20.9155
-0.838884 -0.263003 19.9112
-1.33268 -0.503922 20.6372
-0.609372 -0.474466 21.3507
0.0931718 -0.332251 21.6077
0.873533 -0.154836 21.5709
1.21513 -0.0764856 21.2432
1.28902 -0.208574 20.7594
-0.922614 0.0427245 19.8001
-1.62292 0.0618783 20.4917
-1.04698 -0.288049 21.2643
-0.303651 -0.426228 21.6239
0.453795 -0.54922 21.569
0.83916 -0.661961 21.2804
0.976752 -0.731497 20.9131
-0.557943 0.346052 19.9757
-0.861602 0.516905 20.3461
-0.889002 0.358339 20.965
-0.509669 0.0263349 21.3928
-0.0975549 -0.300226 21.3711
0.0979764 -0.4447 21.1413
0.188012 -0.428394 21.1265
-0.924174 -0.998696 19.2868
-1.59676 -2.64674 21.4055
-0.111852 -0.443477 21.5457
0.352883 0.302337 20.5125
0.853468 1.27382 19.1344
1.25308 1.60647 19.35
1.17113 1.52033 19.494
-1.22786 -0.835139 18.7414
1.8499 1.42579 10.9474
2.0225 1.19487 13.559
-1.34038 0.318281 18.4052
0.28253 -0.998778 4.26591
1.04984 -0.808245 7.66044
-0.544881 0.750508 19.5534
-1.02137 1.5213 20.0714
-1.28973 1.47069 20.853
-0.899895 0.602818 21.9405
-0.337069 -0.255157 21.5534
-0.186968 -0.532227 21.4665
0.0299136 -0.728218 20.1062
0.90543 -1.04022 19.2527
1.53087 -2.71624 21.4502
0.0893665 -0.417892 21.3418
-0.322924 0.325549 20.3555
-0.76522 1.32198 18.9509
-1.35561 1.4991 19.3706
-1.25637 1.23582 20.0469
1.22069 -0.86255 18.6737
-2.14136 1.22571 12.7976
-2.02108 0.782016 15.5164
1.33512 0.326864 18.3654
-0.789295 -0.964065 9.28
-1.44268 -0.91333 13.4999
0.556856 0.729888 19.5796
1.02879 1.42495 20.0947
1.3058 1.41289 20.8648
0.9009 0.609956 21.9452
0.33738 -0.253594 21.5542
0.154921 -0.543404 21.4547
-0.085075 -0.779329 20.5048
0.744231 -0.376931 19.9881
1.05512 -0.622363 20.7019
0.426173 -0.436115 21.3327
-0.153495 -0.173208 21.5445
-0.754551 0.0916082 21.4585
-0.969234 0.179553 21.1632
-0.876344 0.0323645 20.966
0.857272 -0.275948 19.8925
1.34704 -0.509411 20.6394
0.613259 -0.477834 21.3495
-0.089306 -0.33762 21.6082
-0.869744 -0.161315 21.5742
-1.08964 -0.0936717 21.2442
-1.00617 -0.281466 20.9934
0.927497 0.0440662 19.7933
1.61521 0.0589714 20.4916
1.04184 -0.285767 21.2613
0.30531 -0.425454 21.6219
-0.44805 -0.545575 21.5632
-0.74237 -0.589104 21.2674
-0.92508 -0.719618 20.7843
0.551733 0.335949 19.9879
0.839442 0.480886 20.3591
0.868255 0.33861 20.965
0.509385 0.0263716 21.3929
0.0957054 -0.300468 21.372
-0.105783 -0.429587 21.1373
-0.217387 -0.434779 21.0488
-0.812042 -0.150934 1.49525
1.99348e-05 -0.000609622 0.00772177
0.0227915 -0.00729411 0.357555
0.042438 -0.0206298 0.104467
0 0 0
0 0 0
0.0103266 0.171384 0.480086
-0.223054 -0.129525 0.95109
0.000160092 0.0073192 -0.0134792
0.114291 0.201317 1.18415
0.815967 -0.154926 1.5007
-0.000526163 -0.000190669 0.0100731
-0.042912 -0.0206854 0.106618
0 0 0
0.222608 -0.129228 0.949492
-0.114415 0.201388 1.18835
0.00211639 0.000625001 0.0492745
-0.0113412 -0.0166984 0.148382
-6.98532e-08 -2.09815e-07 -2.94881e-05
7.21483e-05 0.000939383 0.0191302
1.26167e-06 0.000374616 0.0130382
0.0273296 0.0751675 0.364022
0 0 0
7.84714e-07 -2.14386e-05 0.00835328
-0.00218412 0.000578566 0.0491574
0.011309 -0.0165488 0.147921
-6.93956e-05 0.000958881 0.019063
-0.0271182 0.0743607 0.359528
-0.000791749 -0.00368976 0.0578422
-0.000189576 0.000497108 0.0153851
6.68201e-07 4.7774e-07 2.99462e-05
0 0 0
-1.71189e-09 4.46447e-08 4.02727e-06
0 0 0
-7.87588e-05 -0.0110349 0.0180612
2.64244e-05 -0.00448092 0.00257208
-3.13349e-06 0.00100751 0.00944432
9.15837e-07 0.0191972 0.0820899
0.000368543 0.00198897 -0.00411227
0.000712227 -0.00383468 0.0591295
0.000209625 0.000549598 0.0170312
0 0 0
-2.4851 -1.2607 20.8626
-2.4009 -3.95205 21.91
-3.0511 -2.42406 18.0727
1.51829 0.206279 17.9356
0.907798 1.30779 13.1021
1.26392 0.953931 7.21902
-3.22635 0.418253 20.5029
-3.62149 1.41176 17.0377
-2.3009 2.59694 19.9283
0.775001 -0.916581 20.3205
-0.40359 -1.09624 3.6968
-0.0739278 -0.551869 16.3592
2.35831 -4.07005 21.9971
3.10656 -2.53639 17.9591
2.49751 -1.27321 20.8693
-0.834676 1.29958 12.776
-1.46211 1.01825 8.68153
-1.51823 0.212127 17.9105
3.64434 1.45671 16.9743
2.31121 2.46825 19.949
3.21162 0.412498 20.5054
-0.0222656 -1.10954 5.79508
0.0696004 -0.546833 16.2975
-0.76815 -0.923813 20.4081
-0.591554 -0.885023 21.7157
0.286052 -0.171188 16.4327
0.357128 -0.404247 20.5042
0.468463 0.347731 14.6977
-1.64957 -0.660046 21.5319
-2.86574 1.66128 20.7098
-0.346712 -0.840159 21.7296
-1.45005 -0.112441 20.7822
-0.290818 -0.157364 16.1898
0.59474 -0.886824 21.7123
-0.445345 0.34642 14.3371
-0.351795 -0.406943 20.4161
2.85538 1.58539 20.7382
1.64549 -0.660075 21.5288
1.43745 -0.0986748 20.6785
0.350025 -0.838638 21.7282
-0.990476 -0.518172 20.2509
-0.801628 -0.311891 19.9495
-0.894931 -0.599046 19.7123
-0.755186 -0.531319 21.1311
-1.19862 -0.558115 20.6691
-1.47059 -1.2374 20.8813
-0.141762 -0.317961 21.4848
-0.5235 -0.479102 21.3499
-0.328892 -0.622835 21.5969
0.442984 -0.0311795 21.5745
0.111383 -0.268841 21.5525
0.335438 -0.128821 21.7465
0.896808 0.150754 21.2963
0.804898 -0.0404672 21.4703
1.10107 0.521865 21.249
1.00908 0.169228 21.0816
1.13835 0.0471784 21.1727
1.46357 0.752717 20.6718
1.19459 0.00240829 20.7432
1.37744 0.683656 20.8599
-1.18612 -0.414095 20.1428
-0.930992 -0.0841362 19.8222
-1.11303 -0.470904 19.4714
-0.993139 -0.501676 21.1272
-1.56251 -0.231659 20.5789
-0.279059 -0.43056 21.5149
-0.846748 -0.452581 21.3471
0.467195 -0.23877 21.6647
-0.107879 -0.428356 21.6429
1.09011 -0.102662 21.3746
0.699006 -0.414096 21.5891
1.21061 -0.0486661 21.0745
1.12129 -0.444554 21.2494
1.99288 0.380614 18.9038
1.1392 -0.540727 21.2118
1.87374 0.191659 19.4876
-1.35558 0.0779636 20.0091
-0.772384 0.278377 19.8542
-1.21449 0.150835 19.2803
-1.34794 -0.126226 21.0193
-1.27626 0.440428 20.3779
-0.726556 -0.388022 21.5093
-1.12593 0.118134 21.1079
0.106729 -0.468021 21.6449
-0.529077 -0.207482 21.5484
0.655684 -0.601192 21.4402
0.0803698 -0.503406 21.4533
0.951513 -0.624946 21.2013
0.353953 -0.664245 21.2338
1.30151 -1.07905 19.2236
0.531606 -0.661024 21.0872
1.21853 -1.02539 19.218
-0.72821 0.458239 20.1051
-0.620161 0.532851 19.7751
-0.920254 0.477396 20.6754
-1.0556 0.923146 20.2289
-0.760723 0.221849 21.2242
-1.18741 0.77312 20.9557
-0.270623 -0.146419 21.404
-0.746535 0.216305 21.6209
0.00796306 -0.371858 21.2461
-0.195018 -0.327448 21.4678
0.24698 -0.531985 21.1167
0.0207709 -0.545915 21.2512
0.236696 -0.709263 20.8758
-1.62037 -2.10584 19.5651
-1.09788 -0.976482 18.9948
-0.034049 -1.6651 18.646
-0.598844 -1.10054 22.1053
-0.0107318 -3.19706 22.1045
0.154614 -0.0837515 20.8905
-0.00292949 -0.436757 20.8272
0.572958 0.764417 19.7067
0.000647398 0.215714 19.2916
1.04332 1.51277 19.202
0.0235496 1.14343 17.5614
1.34794 1.50386 18.6178
1.55216 1.76293 15.5664
-0.0322367 1.6795 17.7004
1.55982 1.39287 17.0468
-0.0650599 2.13397 18.9033
-1.40639 -0.303602 18.3592
-0.0343818 -1.47416 17.5022
2.11426 1.67842 13.2099
1.37732 -0.0947702 5.02141
-0.10074 1.1162 6.53397
2.4077 0.562442 10.5672
-0.336174 1.77741 9.68112
-0.911234 0.803945 19.0383
-0.0207152 0.665379 16.9239
1.24528 -1.11616 6.14757
-0.00129247 -0.94855 16.1555
-0.0644669 1.23207 -3.18501
0.328228 -1.16046 17.3455
-0.647593 2.18915 -2.26987
-0.811545 1.20469 19.6646
0.0138003 1.04723 19.2819
-1.1353 1.47934 20.5423
0.0379979 2.2295 19.8954
-1.37238 1.34047 21.5448
0.0382207 2.58535 20.5576
-0.500868 0.0106482 21.7759
-0.00612512 1.44887 22.3982
-0.270061 -0.377174 21.4922
-0.00194729 0.23107 21.9646
-0.0515466 -0.689366 21.442
0.0201994 -0.0989853 21.5926
0.0413885 -0.41488 19.2777
1.60777 -2.21537 19.5251
1.08496 -1.02221 18.9376
0.919015 -0.642198 19.6572
0.56361 -1.08787 22.0908
1.50347 -1.30667 20.9042
-0.144661 -0.0647219 20.7834
0.320846 -0.63626 21.6114
-0.516549 0.764779 19.4397
-0.354511 -0.101089 21.7658
-1.05255 1.50994 19.2245
-1.11246 0.601594 21.1374
-1.46728 1.28488 18.8363
-1.75949 1.46963 16.5518
-1.40303 0.639706 20.8039
-1.66911 1.07646 17.6997
-1.36245 0.468959 20.6215
1.40472 -0.310699 18.2947
1.12845 -0.491494 19.4353
-2.32373 1.31618 15.1046
-1.72257 -0.293131 8.81339
-1.75385 0.175008 20.0667
-2.2476 0.049447 14.01
-1.91303 0.115904 19.8958
0.917832 0.790838 19.0568
1.22536 0.152738 19.26
-1.65652 -1.14273 11.5158
-0.0930734 -1.00498 17.8215
-1.15286 -1.03774 20.7281
-0.411432 -1.25439 18.368
-1.07933 -0.869186 20.6104
0.822741 1.14729 19.7014
0.622275 0.506298 19.8
1.14615 1.41145 20.5487
1.03971 0.859153 20.247
1.37612 1.31356 21.5405
1.16038 0.732627 20.959
0.501332 0.0134333 21.7785
0.747849 0.219147 21.6233
0.257806 -0.390553 21.4813
0.194289 -0.326966 21.4686
-0.00526172 -0.728291 21.2847
-0.0412699 -0.536368 21.2559
-0.285448 -0.552742 20.5012
1.01232 -0.541322 20.2434
0.823264 -0.327436 19.9267
0.761543 -0.54254 21.1441
1.21955 -0.576138 20.6708
0.139545 -0.316957 21.4969
0.527971 -0.48614 21.3465
-0.455825 -0.0299594 21.5844
-0.11079 -0.275094 21.5488
-0.887808 0.145626 21.2962
-0.817579 -0.0363474 21.4891
-0.969807 0.125818 21.1128
-1.04316 0.0524611 21.1733
-0.941755 -0.0698217 20.957
1.20641 -0.431537 20.1362
0.946563 -0.0908208 19.8048
0.999645 -0.508232 21.131
1.56734 -0.233096 20.5782
0.281115 -0.434714 21.5185
0.84885 -0.453803 21.3444
-0.465113 -0.242174 21.6672
0.111201 -0.430925 21.6433
-1.01727 -0.11602 21.3739
-0.692561 -0.415833 21.5888
-1.07961 -0.0277283 20.9048
-0.994978 -0.385918 21.2594
-1.0352 -0.539793 21.1077
1.36073 0.078717 20.0073
0.768565 0.27374 19.8613
1.34119 -0.126257 21.0174
1.24995 0.420008 20.385
0.724596 -0.386041 21.5081
1.10315 0.118916 21.104
-0.10432 -0.464286 21.6425
0.530542 -0.2067 21.5472
-0.622575 -0.579407 21.417
-0.0799795 -0.498668 21.4538
-0.790647 -0.526704 21.0117
-0.352803 -0.577955 21.2031
-0.46142 -0.555553 21.0734
0.713331 0.432949 20.1274
0.90445 0.447635 20.6787
0.750169 0.215446 21.2186
0.269524 -0.146194 21.4039
-0.01435 -0.368095 21.2458
-0.241351 -0.504444 21.071
-1.11287 -0.475504 20.1879
-2.25017 -2.47507 18.9747
-1.35901 -1.03713 20.0145
-2.02502 -0.933825 19.6398
-1.02886 -0.548805 19.5884
-1.93855 -1.3166 20.8666
-0.882266 -0.534735 21.1262
-0.354487 -0.690417 19.0746
-0.823728 -0.895575 21.4749
-1.27003 -1.03366 21.6939
-0.408635 -0.747777 21.6598
-0.217029 -0.39412 21.4939
0.388607 0.0792244 15.0121
0.00755359 -0.401439 21.6833
-0.112742 -0.688957 21.3059
0.406156 -0.257306 21.5039
0.439178 -0.137107 21.609
0.545957 0.728398 12.9836
0.724501 0.18473 21.701
0.918865 -0.120801 18.8378
1.39378 0.438587 20.2491
1.01564 0.0295776 21.3173
1.23494 1.55964 14.3241
1.31454 0.66829 21.0096
1.8109 0.249198 18.3074
1.7157 0.613614 20.2353
1.12017 0.0387615 21.2275
1.74165 1.63928 16.5124
1.53362 0.767947 20.6253
1.84999 0.508628 18.6703
1.66913 0.537987 20.4176
-1.35174 -0.150412 20.0455
-4.16786 -0.752253 16.6431
-2.32935 0.363806 19.3079
-1.24139 -0.18697 19.2837
-3.30162 -0.577571 20.7521
-1.20895 -0.355449 21.1078
-2.12912 -0.206485 21.3904
-1.03528 -0.871563 21.7298
-0.489477 -0.476424 21.5387
-1.10627 -0.858843 21.9135
0.11321 -0.617967 20.8429
0.304346 -0.408593 21.6745
0.233375 -0.837478 21.1315
1.31426 -0.474011 19.0419
0.958461 -0.424149 21.3873
0.481727 -0.884419 2.76036
0.967844 -1.04256 19.7807
1.87312 -0.487851 18.4824
1.23243 -0.479705 21.1151
2.14806 0.180605 8.07215
1.35287 -0.905026 18.7805
2.00752 -0.372388 18.7336
-1.07907 0.399409 20.0269
-1.67279 1.71538 18.9396
-0.863239 0.769268 19.911
-0.931987 0.484847 19.5041
-1.89952 1.04994 20.2193
-1.24334 0.300224 20.8066
-2.29578 1.82049 20.7673
-1.15361 0.88262 20.6242
-1.85366 0.403266 21.141
-0.910116 -0.050348 21.4017
-3.56229 1.14957 22.0819
-1.09876 0.573724 21.3748
-0.895003 -0.228699 21.92
-0.165702 -0.367493 21.547
-0.2488 -0.441434 18.3969
-0.403009 -0.107514 21.5809
-0.0622831 -0.72413 21.6115
0.227357 -0.595916 21.3602
-0.106127 -0.677102 15.8286
-0.0875908 -0.436777 21.3692
0.214002 -1.00515 21.2813
0.453358 -0.685271 21.0982
0.260784 -1.32887 17.1138
0.119767 -0.672104 20.9422
0.452495 -1.1152 20.8437
2.27511 -2.62152 18.8907
-0.0420908 -3.8867 19.2585
-0.0373812 -7.38333 15.2726
-0.0285428 -1.68796 18.0907
0.0041345 -3.42397 22.6377
0.339633 -0.635041 18.7161
-0.00163215 -1.19384 22.2671
-0.00271545 -0.0931214 13.3952
-0.379674 0.0920934 14.7505
-0.00071023 -0.113424 19.947
0.00549812 0.222545 11.7794
-0.518087 0.673638 12.6383
0.0121078 0.631999 18.2149
0.0171565 0.935032 9.41917
-1.32577 1.55299 14.8557
-0.000114034 1.4102 17.6442
-0.0108646 0.325026 3.45255
-0.0508119 1.57899 12.9351
-1.90281 1.35666 16.8671
-0.0647946 1.86147 18.301
-0.137924 2.20742 9.09295
-0.296402 2.10645 14.8311
4.24567 -0.76767 16.4916
-0.0332545 4.30403 12.8111
-0.0323576 -0.518446 16.7126
-0.803144 -0.883814 4.36876
0.0747209 0.205466 -2.09825
-0.124121 0.654855 -0.439231
-2.27511 -0.242555 12.2551
-0.500724 1.66197 -3.85238
-0.572672 1.77581 3.60693
1.67718 1.67884 18.9867
0.0237351 1.72063 19.3679
0.00789642 1.2873 18.3641
0.0402617 4.39489 19.6901
2.29786 1.75057 20.7784
0.0324058 2.23766 20.3536
0.0329812 3.96092 19.3094
3.50838 1.1239 22.1029
0.0169519 2.87259 21.665
-0.00159992 0.564075 12.6036
0.240137 -0.434679 18.3175
-0.0032974 0.479704 22.0088
0.00647431 0.279522 2.20486
0.101281 -0.726326 16.9919
0.0117885 0.113114 21.6781
0.204566 0.326522 0.489638
-0.349069 -1.30878 18.0675
0.026481 -0.369796 21.0772
0.277614 0.258036 6.10245
1.14045 -0.498309 20.1806
1.40538 -1.10095 19.9798
2.07295 -0.970569 19.6089
1.04698 -0.591843 19.5389
1.97488 -1.36721 20.8864
0.891862 -0.549348 21.1346
0.821439 -0.924452 21.4946
1.27263 -1.04226 21.7009
0.401834 -0.760921 21.6684
0.218871 -0.401644 21.503
-0.0257896 -0.39805 21.6959
0.113699 -0.68995 21.2744
-0.427017 -0.247827 21.416
-0.4456 -0.14572 21.615
-0.74003 0.243659 21.5882
-0.91009 -0.131702 18.8192
-1.40954 0.488593 20.0721
-0.966541 0.0233465 21.3196
-1.30551 0.654111 21.0402
-1.71803 0.185678 19.0996
-1.61892 0.446988 20.6409
-1.01339 0.0503172 21.0773
-1.39343 0.529791 20.7407
-1.62185 0.126524 20.3609
-1.69257 0.358404 20.3209
1.36964 -0.154289 20.0344
2.34865 0.368478 19.2952
1.2647 -0.189781 19.2484
3.30672 -0.576458 20.7533
1.21061 -0.35876 21.1064
2.12224 -0.208745 21.3852
1.03592 -0.870474 21.7295
0.491523 -0.478884 21.537
1.1069 -0.855646 21.9176
-0.108322 -0.614826 20.8063
-0.300746 -0.4088 21.6765
-0.226184 -0.833215 21.1696
-1.3179 -0.481073 19.1253
-0.903743 -0.396765 21.3788
-0.910426 -1.0586 20.6205
-1.675 -0.5568 20.1775
-1.07679 -0.385099 20.935
-1.22335 -0.931079 20.8841
-1.63933 -0.369562 19.8899
1.06568 0.388576 20.0377
0.858582 0.719098 19.9391
0.926593 0.472207 19.5236
1.86507 0.986866 20.2328
1.21892 0.291147 20.8047
1.1313 0.818528 20.633
1.8111 0.384606 21.1453
0.901281 -0.0484353 21.3957
1.08365 0.556983 21.3695
0.897789 -0.226749 21.9222
0.165357 -0.36447 21.5452
0.403228 -0.106522 21.5822
0.0604564 -0.720714 21.6149
-0.231375 -0.578853 21.3413
0.0766523 -0.437664 21.362
-0.262698 -0.945571 21.4963
-0.406071 -0.653024 21.009
-0.094967 -0.58088 20.9851
-0.377355 -0.84784 21.3086
-1.67068 -1.01346 19.8781
-1.01429 -0.978955 21.5709
-0.00909434 -0.549809 21.6729
0.892142 0.0894891 20.7672
1.609 0.559009 20.385
1.65427 0.648591 20.401
-2.45008 -0.374205 19.3264
-1.7952 -0.721257 21.6957
-0.455775 -0.813293 21.4152
0.66669 -0.523935 20.033
1.59259 -0.515755 18.3746
2.0335 -0.41802 18.7714
-1.47614 0.834937 19.6485
-1.84317 0.70871 20.8487
-1.64101 0.103119 21.7077
-0.348838 -0.490906 21.8071
0.0656406 -0.877704 21.4621
0.377752 -1.04979 21.2316
-0.0391428 -5.41918 18.2098
0.00336554 -0.575441 16.3776
-0.000537809 0.0503772 12.0435
0.013525 0.509632 10.3045
-0.0103075 1.11524 11.1397
-0.114814 2.15633 14.4261
-0.0567469 -1.23962 10.0534
0.0319678 -0.577002 -0.165706
-0.397606 1.17571 0.675918
0.0289947 3.12829 17.9896
0.0327967 3.33845 20.4559
0.0146981 5.69132 20.4148
0.000324923 -0.144468 6.58464
0.0562634 0.51794 1.35468
0.0386873 0.658335 1.70577
1.71032 -1.06569 19.852
1.00641 -1.00082 21.5868
-0.00850292 -0.552353 21.6323
-0.907179 0.12179 20.5391
-1.57343 0.494576 20.584
-1.47001 0.346649 20.9584
2.49778 -0.379466 19.2976
1.7947 -0.722121 21.6985
0.456061 -0.81411 21.4018
-0.652484 -0.520545 20.0647
-1.54955 -0.557271 19.6301
-1.62363 -0.458555 20.5066
1.4572 0.803528 19.6705
1.80408 0.676067 20.8463
1.61564 0.0975509 21.6997
0.349524 -0.488799 21.8092
-0.0996592 -0.831924 21.4748
-0.39361 -0.923026 21.3882
-1.01291 -0.283292 2.22894
-0.0135509 -0.0441904 0.344174
-0.020372 -0.0124415 0.898326
0.0852312 -0.0199179 0.137822
4.72711e-05 0.000325926 0.00105173
0.0130879 0.00846931 0.152559
-0.865449 -0.0245477 1.13812
-0.026712 0.173737 0.399792
-0.5394 -0.0443511 1.72056
0.0549111 -0.078171 0.186713
-0.0706701 -0.0140632 -0.0167246
0.0504167 -0.00859364 0.877848
0.0176362 -0.043416 0.341137
1.01131 -0.287297 2.23213
0.0158536 -0.00787297 0.628179
0 0 0
-0.0865352 -0.0193565 0.139298
-0.0196595 0.0091493 0.276109
0.0246375 0.171134 0.395837
0.737109 -0.0286725 0.980315
0.5382 -0.0424044 1.72067
0.0706047 -0.0142517 -0.0162717
-0.0542947 -0.0774623 0.185981
-0.049191 -0.0108534 0.87941
0.0296837 -0.0123155 0.491015
0.0047526 3.87052e-05 0.134248
-0.0132884 -0.0434603 0.412384
0 0 0
-0.000697206 0.0216702 0.168031
0.003334 0.000825612 0.0846526
-0.000168028 -0.000844241 0.236692
0 0 0
-0.118052 -0.202503 0.588973
-0.000627881 -0.000620878 0.0174698
-0.0146956 -0.0171378 0.285276
0 0 0
0.0717435 0.114536 0.552736
0.000408095 0.0027442 0.022316
0.0649678 0.147926 0.510881
0.0621905 0.013193 0.466731
-0.0316265 -0.017501 0.499635
0 0 0
-0.00462277 -1.07424e-05 0.133476
0.0139535 -0.0440711 0.41449
0.00571378 0.031492 0.138343
0 0 0
-0.00286306 0.000787224 0.0768837
-5.06084e-05 -0.000592986 0.233686
0.118212 -0.202787 0.59055
0 0 0
0.000643004 -0.000631539 0.0180232
0.0146427 -0.0171 0.284994
-0.0724137 0.117366 0.557545
-0.0629364 0.0134185 0.466637
-0.000399786 0.00274338 0.0218853
-0.0649043 0.14762 0.508469
-0.00174022 -0.00330065 0.0420721
-0.00862694 -0.00189235 0.00472263
0 0 0
-0.000368444 -1.60077 0.554365
-0.000607879 -0.00111043 0.0309878
2.27715e-05 1.2224e-06 0.00191702
0 0 0
-0.00184583 -0.00441008 0.000369924
0 0 0
0.00026428 -0.113641 -0.0256645
0.00140591 0.000245365 0.0305086
0 0 0
-0.000612205 0.467178 0.296487
1.91943e-05 0.0893399 0.514086
-0.00173143 -0.00571727 0.0542867
-0.0107551 0.00385989 0.0423643
6.54706e-05 -0.0264493 0.00617642
0.000165994 0.00108078 -0.00269322
0.000530151 0.00114518 0.0341637
-0.00307779 -0.00622474 0.0256663
0.00719521 -0.00158495 0.00394174
0.00195258 -0.00384139 0.0475372
-2.8069e-05 1.4466e-06 0.00175343
0.000116437 -0.0002068 0.00592347
0.00183745 -0.00438992 0.000364497
0 0 0
0 0 0
0 0 0
0.0107282 0.00383943 0.0422032
0.00173419 -0.00571567 0.0544689
0.00311628 -0.00630807 0.0258959
-0.000443445 0.000968623 0.0285499
-0.00167936 0.00285787 0.206728
5.29099e-05 1.38684e-05 0.00115298
-4.39471e-18 4.93953e-18 -2.8284e-17
-0.00060195 -0.000698232 0.0322264
6.53697e-07 1.25056e-06 -0.000299808
5.44629e-08 3.28239e-08 2.03388e-05
4.81125e-05 0.00369218 0.0577086
0.00446927 -0.00513926 0.0903856
-4.18575e-06 0.000300996 0.0260997
0 0 0
0.00010907 0.00322482 0.0255782
-0.242974 0.358478 1.39571
-8.87146e-06 0.00119369 0.0131014
1.33741e-05 0.024646 0.042096
-1.40355e-05 0.0199322 0.233688
2.57945e-05 -0.00329944 0.052748
-6.33167e-05 1.59953e-05 0.00133723
0.00152193 0.00209006 0.200085
0 0 0
0.000596015 -0.000702378 0.0321775
-4.62235e-05 0.00376721 0.0588798
-0.0038517 -0.00323306 0.093406
0.241675 0.358416 1.39392
-8.70684e-05 0.0026495 0.0209569