# vtk DataFile Version 2.0
tri_press
ASCII
DATASET UNSTRUCTURED_GRID
POINTS 3682 float
-0.669641 0.205 -2.255
-0.765 0.355 2.22667
-0.681605 0.475 -2.275
-0.739822 0.875 2.115
0.669636 0.205 -2.255
0.765 0.355 2.22667
0.681605 0.475 -2.275
0.739812 0.875 2.115
-0.842554 0.113874 -0.76111
-0.852558 0.185655 0.73278
-0.842638 0.749961 -0.811667
-0.819826 0.841076 0.651667
0.842241 0.114183 -0.76111
0.852554 0.185658 0.73278
0.842631 0.749957 -0.811667
0.819917 0.841174 0.651667
-1.48184 -0.159999 -3.41052
-1.49262 -0.0961506 -2.22764
-1.6172 -0.143502 -0.732962
-1.65472 -0.107772 0.767868
-1.60462 0.0255339 2.26307
-1.58749 0.117735 3.44848
-1.59044 0.193144 4.62919
-1.47274 0.075883 -3.4315
-1.47981 0.179446 -2.25197
-1.63641 0.152433 -0.763231
-1.65526 0.191676 0.728254
-1.57607 0.317379 2.21757
-1.56831 0.407272 3.40255
-1.58063 0.482419 4.58426
-1.47795 0.472121 -3.4649
-1.48725 0.574551 -2.2841
-1.63484 0.75035 -0.816193
-1.63313 0.824079 0.649546
-1.55512 0.88028 2.11803
-1.55699 0.967741 3.30428
-1.57534 1.05186 4.49092
-1.51962 1.23818 -3.53796
-1.53585 1.36511 -2.36174
-1.59209 1.56505 -0.903742
-1.62192 1.70877 0.547668
-1.61167 1.79027 2.00598
-1.60193 1.85315 3.18287
-1.6003 1.92438 4.36618
-0.718033 -0.147688 -3.41249
-0.692578 -0.0792064 -2.23052
-0.802523 -0.162558 -0.732576
-0.844141 -0.114035 0.771731
-0.808258 0.0457532 2.26982
-0.795063 0.132045 3.45306
-0.797791 0.200679 4.63184
-0.717374 0.0773475 -3.43211
-0.779104 0.422009 3.40633
-0.790432 0.489585 4.58626
-0.721899 0.433376 -3.46112
-0.770671 0.969935 3.30367
-0.787282 1.05454 4.49079
-0.739337 1.21308 -3.53423
-0.741402 1.34208 -2.35762
-0.785807 1.5619 -0.901261
-0.818943 1.71514 0.54737
-0.817369 1.79284 2.00386
-0.809979 1.85366 3.18075
-0.807745 1.92484 4.36463
0.740098 -0.14764 -3.41249
0.763493 -0.0791336 -2.23052
0.843322 -0.162345 -0.732576
0.829837 -0.113985 0.771731
0.773159 0.0457667 2.26982
0.775609 0.132066 3.45306
0.780996 0.20071 4.63184
0.705868 0.0773748 -3.43211
0.771538 0.422023 3.40633
0.779498 0.489612 4.58626
0.70808 0.433393 -3.46112
0.763169 0.969951 3.30367
0.775959 1.05457 4.49079
0.793253 1.21312 -3.53423
0.815047 1.34212 -2.35762
0.82132 1.56195 -0.901261
0.795602 1.7152 0.54737
0.77267 1.79289 2.00386
0.770697 1.85371 3.18075
0.774429 1.92488 4.36463
1.49363 -0.159885 -3.41052
1.52235 -0.0959869 -2.22764
1.63587 -0.143192 -0.732962
1.65079 -0.107629 0.767868
1.59081 0.0255856 2.26307
1.57527 0.117789 3.44848
1.57686 0.193213 4.62919
1.45668 0.0759641 -3.4315
1.46715 0.179546 -2.25197
1.63053 0.152756 -0.763231
1.65892 0.191808 0.728254
1.58239 0.31741 2.21757
1.56696 0.407315 3.40255
1.57251 0.482481 4.58427
1.45906 0.472176 -3.4649
1.47291 0.57459 -2.2841
1.62718 0.750485 -0.816193
1.63554 0.824236 0.649546
1.56125 0.880326 2.11803
1.55544 0.967789 3.30428
1.56661 1.05193 4.49092
1.56124 1.23827 -3.53796
1.5892 1.3652 -2.36174
1.61739 1.56516 -0.903743
1.60439 1.7089 0.547668
1.57677 1.79038 2.00598
1.56861 1.85324 3.18287
1.56995 1.92447 4.36618
-0.693547 0.34 -2.28292
-2.5034e-06 0.264035 -2.19596
-0.827071 0.088463 -1.50806
-0.739449 0.615 2.15787
0 0.296148 2.28552
-0.8888 0.190307 1.47973
0 0.520289 -2.32029
-0.840896 0.691254 -1.54333
-4.97699e-06 0.930565 2.17057
-0.794289 0.872503 1.38333
0.693504 0.34 -2.28288
0.826995 0.0885352 -1.50806
0.73946 0.615 2.15789
0.888812 0.190294 1.47973
0.840866 0.691227 -1.54333
0.794268 0.872491 1.38333
-0.829407 0.167913 -0.014165
-0.889576 0.431917 -0.786389
-0.000156522 0.134885 -0.76111
-0.895329 0.513366 0.692223
-2.24638e-06 0.154632 0.73278
-0.831601 0.795888 -0.08
-3.78214e-06 0.875459 -0.811667
4.54723e-05 1.27867 0.651667
0.829407 0.167911 -0.014165
0.88958 0.43207 -0.786389
0.895328 0.513416 0.692223
0.831594 0.795885 -0.08
-0.874512 0.385959 -1.52569
0.874548 0.386035 -1.52569
-7.95126e-05 0.109252 -1.50806
-1.89107e-06 0.780673 -1.54333
-1.2517e-06 0.34 -2.3958
-0.892728 0.472641 -0.0470825
0.892727 0.472743 -0.0470825
-7.93841e-05 0.144607 -0.014165
2.08451e-05 1.26082 -0.08
-0.887082 0.564183 1.43153
0.887084 0.564208 1.43153
-1.12319e-06 0.160129 1.47973
2.02476e-05 1.12915 1.38333
-2.48849e-06 0.615 2.27196
-0.673358 0.2725 -2.26073
-0.334822 0.242274 -2.21773
-0.770363 0.124725 -1.88153
-0.792405 0.485 2.23245
-0.3825 0.306636 2.27503
-0.813214 0.286339 1.8532
-0.680944 0.4075 -2.27233
-0.340802 0.511915 -2.31191
-0.795929 0.617806 -1.90917
-0.753016 0.745 2.14982
-0.369913 0.923804 2.1638
-0.774591 0.881287 1.74917
0.334817 0.242424 -2.21758
0.673501 0.2725 -2.26087
0.770407 0.124676 -1.88153
0.3825 0.306637 2.27503
0.792331 0.485 2.23238
0.813131 0.286422 1.8532
0.340802 0.511866 -2.31187
0.680513 0.4075 -2.2719
0.795939 0.617817 -1.90917
0.369904 0.923756 2.16376
0.752966 0.745 2.14977
0.774509 0.881215 1.74917
-0.844587 0.0913933 -1.13458
-0.848472 0.128402 -0.387638
-0.868465 0.271695 -0.773749
-0.422766 0.121558 -0.76111
-0.891583 0.167077 1.10625
-0.839472 0.178295 0.359308
-0.888695 0.342135 0.712502
-0.432601 0.157503 0.73278
-0.852167 0.731008 -1.1775
-0.887435 0.601603 -0.799028
-0.83704 0.772845 -0.445833
-0.440404 0.850877 -0.811667
-0.809851 0.859583 1.0175
-0.886874 0.691869 0.671945
-0.825891 0.81866 0.285833
-0.506765 1.25363 0.651667
0.844605 0.0913719 -1.13458
0.42253 0.121557 -0.76111
0.848294 0.128577 -0.387638
0.868508 0.271828 -0.773749
0.891579 0.16708 1.10625
0.432597 0.157503 0.73278
0.839481 0.178284 0.359308
0.888699 0.342158 0.712502
0.852252 0.731096 -1.1775
0.452949 0.875978 -0.811667
0.887437 0.601679 -0.799028
0.837035 0.772844 -0.445833
0.809902 0.859641 1.0175
0.506839 1.25364 0.651667
0.886796 0.691882 0.671945
0.825887 0.818661 0.285833
-0.828895 0.362979 -1.90431
-0.346774 0.34 -2.37629
-4.1008e-05 0.127795 -1.85201
-1.87755e-06 0.302018 -2.29918
-0.865248 0.237211 -1.51687
-0.413575 0.109367 -1.50806
-0.872213 0.589591 1.7947
-0.369726 0.615 2.24966
-5.61596e-07 0.222071 1.88262
-1.24425e-06 0.455574 2.29842
-0.88431 0.377245 1.45563
-0.4444 0.160129 1.47973
-9.45536e-07 0.695349 -1.93181
-6.25849e-07 0.430144 -2.39133
-0.881874 0.538607 -1.53451
-0.420449 0.771881 -1.54333
7.63532e-06 1.01354 1.77695
-3.73274e-06 0.772783 2.2693
-0.879222 0.718343 1.40743
-0.397134 1.10616 1.38333
0.828917 0.363018 -1.90429
0.346751 0.34 -2.37627
0.865264 0.237285 -1.51687
0.413458 0.109366 -1.50806
0.872217 0.589604 1.79471
0.369729 0.615 2.24966
0.884303 0.377251 1.45563
0.444405 0.160129 1.47973
0.881873 0.538631 -1.53451
0.420432 0.771871 -1.54333
0.879235 0.718349 1.40743
0.397144 1.10633 1.38333
-0.880936 0.310344 -0.0306238
-0.423192 0.139363 -0.014165
-0.883038 0.408938 -1.15604
-0.890433 0.452279 -0.416736
-0.000118017 0.101156 -1.13458
-0.000117953 0.142446 -0.387638
-0.89538 0.493004 0.32257
-0.894815 0.538774 1.06188
-4.08152e-05 0.152053 0.359308
-1.68479e-06 0.154576 1.10625
-0.88829 0.647327 -0.0635413
-0.515985 1.22874 -0.08
-2.83661e-06 0.825682 -1.1775
8.53146e-06 1.0839 -0.445833
3.31587e-05 1.2885 0.285833
3.28599e-05 1.2211 1.0175
0.880945 0.310388 -0.0306238
0.423113 0.13936 -0.014165
0.883042 0.409053 -1.15604
0.890436 0.452406 -0.416736
0.895376 0.493079 0.32257
0.894817 0.538812 1.06188
0.888266 0.647367 -0.0635413
0.516026 1.22879 -0.08
-0.829525 0.254855 -1.89292
-0.87762 0.255053 -1.14531
-0.884861 0.564773 -1.16677
-0.828972 0.473053 -1.90674
0.829528 0.254893 -1.89291
0.829283 0.473065 -1.90673
0.884861 0.564822 -1.16677
0.877627 0.255206 -1.14531
-0.374199 0.128072 -1.86677
0.374137 0.128072 -1.86677
0.41725 0.101222 -1.13458
-0.417465 0.101223 -1.13458
-0.380626 0.691061 -1.92049
-0.420885 0.818562 -1.1775
0.420873 0.81857 -1.1775
0.380617 0.691043 -1.92049
-0.340798 0.287259 -2.36364
-0.343788 0.418822 -2.37361
0.343777 0.418822 -2.37365
0.340784 0.287259 -2.36475
-0.872993 0.291873 -0.402187
-0.886431 0.325432 0.340939
-0.88841 0.670012 0.304202
-0.887687 0.624377 -0.431285
0.873021 0.291961 -0.402187
0.887676 0.624435 -0.431285
0.888393 0.670055 0.304202
0.886427 0.325471 0.340939
-0.422093 0.132232 -0.387638
0.421936 0.13223 -0.387638
0.42802 0.148102 0.359308
-0.428061 0.148104 0.359308
-0.484843 1.05311 -0.445833
-0.520671 1.25978 0.285833
0.520915 1.26018 0.285833
0.48496 1.05333 -0.445833
-0.891729 0.363378 1.08406
-0.864448 0.431122 1.82395
-0.85996 0.731671 1.77193
-0.885787 0.697782 1.03969
0.891735 0.363394 1.08406
0.885799 0.697822 1.03969
0.859938 0.731675 1.77194
0.864443 0.431126 1.82395
-0.43534 0.154576 1.10625
0.435341 0.154576 1.10625
0.413453 0.224518 1.86791
-0.41345 0.216057 1.86791
-0.403512 1.20119 1.0175
-0.383524 0.990562 1.76306
0.383524 0.990532 1.76306
0.403563 1.20161 1.0175
-0.376113 0.470287 2.37678
0.376114 0.470287 2.37661
0.369816 0.758891 2.2445
-0.36982 0.758891 2.2445
-0.667012 0.23875 -2.25338
-0.502231 0.193612 -2.26639
-0.723341 0.161523 -2.06826
-0.786633 0.42 2.23749
-0.57375 0.322387 2.25928
-0.7944 0.315376 2.03993
-0.688319 0.44125 -2.28071
-0.511204 0.499195 -2.2992
-0.748887 0.556523 -2.09208
-0.749143 0.81 2.13513
-0.554868 0.911508 2.15151
-0.760992 0.881929 1.93208
0.502226 0.193675 -2.26633
0.667323 0.23875 -2.25369
0.723556 0.161304 -2.06826
0.57375 0.321716 2.25995
0.786628 0.42 2.23749
0.794324 0.315452 2.03993
0.511204 0.499174 -2.29917
0.688199 0.44125 -2.28059
0.748852 0.556488 -2.09208
0.554858 0.91163 2.15163
0.749182 0.81 2.13518
0.761125 0.882072 1.93208
-0.860393 0.0858114 -0.947846
-0.843386 0.123264 -0.574374
-0.847697 0.196691 -0.76743
-0.629382 0.124272 -0.76111
-0.892098 0.156339 0.919516
-0.845473 0.182518 0.546044
-0.870616 0.263901 0.722641
-0.6588 0.139138 0.73278
-0.846065 0.739147 -0.994584
-0.873868 0.680198 -0.805347
-0.839599 0.761162 -0.62875
-0.649548 0.816471 -0.811667
-0.815007 0.850499 0.834583
-0.860554 0.770075 0.661806
-0.823081 0.830091 0.46875
-0.690719 1.1022 0.651667
0.864079 0.0821212 -0.947846
0.629254 0.124134 -0.76111
0.843252 0.123395 -0.574374
0.847729 0.196828 -0.76743
0.892098 0.156338 0.919516
0.658691 0.13935 0.73278
0.845479 0.18251 0.546044
0.870616 0.263913 0.722641
[...]
POINT_DATA 3682
SCALARS point_scalars float 1
LOOKUP_TABLE default
-6.64354
-42.3753
39.4035
-41.3315
-6.28933
-42.3761
39.2441
-41.1117
-39.2827
-27.4375
-37.2391
-49.1147
-39.0149
-27.0076
-37.2269
-49.1567
35.075
-48.3927
-48.1674
-39.4615
-42.6817
-40.503
-37.3885
87.9876
-42.5555
-39.3379
-39.2125
-43.2911
-41.5761
-37.1731
99.1717
-36.1132
-37.8219
-44.1079
-44.0899
-37.1617
-36.5629
41.9547
-32.2736
-35.5278
-59.4769
-37.6795
-39.1835
-37.4998
164.977
-42.588
-36.479
-29.431
-42.6986
-37.0527
-36.696
165.465
-36.7377
-36.607
192.553
-35.9165
-36.5299
121.087
-18.1533
-4.79992
-67.4936
-34.0298
-33.7464
-32.8996
164.004
-42.9218
-36.2653
-29.5385
-42.8337
-36.9531
-36.6003
166.282
-36.6776
-36.543
192.552
-35.8331
-36.46
119.001
-19.3656
-11.6166
-67.4417
-33.4353
-33.3255
-32.6357
35.5846
-48.5025
-49.0818
-34.5516
-42.5714
-40.3361
-37.3285
87.7385
-42.4535
-39.3476
-39.8855
-43.1829
-41.2649
-37.1084
101.135
-36.1431
-37.789
-44.1956
-43.9797
-37.0502
-36.4843
41.7673
-32.4445
-35.5644
-59.7065
-37.5039
-38.9751
-37.2674
36.7187
51.7574
-54.5195
-37.7433
-37.4115
-46.7753
74.3874
-43.3172
-29.5578
-43.5497
36.626
-54.5058
-37.6273
-46.6826
-43.201
-43.5014
-32.8357
-38.6153
-44.1739
-39.9518
-37.4691
-53.931
21.2993
-70.3581
-32.9474
-38.6148
-39.9487
-53.801
-54.1728
-54.1494
-64.6233
-24.1989
148.625
-39.5453
-39.5163
-36.2018
-105.315
-43.1571
-43.0859
-46.5383
-39.2018
-29.3212
27.3885
31.8907
-71.6143
-41.1359
-39.2954
-45.8316
40.0779
74.6368
-37.8142
-39.0369
-30.8716
-37.798
31.7994
27.4996
-71.5313
-39.3866
-41.1017
-45.704
74.3265
39.828
-37.9221
-30.6909
-38.8818
-37.7279
-43.1055
-37.4152
-39.7495
-42.7551
-43.0715
-32.486
-35.1144
-36.625
-39.7519
-38.2521
-54.4157
9.61453
-47.3432
-43.9083
-50.9166
-66.653
-42.9851
-42.8069
-37.4118
-39.76
-43.0037
-36.6269
-32.44
-35.0979
-39.8393
8.38391
-38.2202
-54.3061
-47.343
-66.6072
-43.9172
-50.8894
-50.1051
176.98
-97.5854
3.2629
-52.6851
-59.3752
-44.7747
-34.2311
-44.388
-35.5034
-44.6962
-47.2594
-24.2072
201.035
-57.8877
-27.5526
-31.9984
-27.1192
-42.7092
-40.1485
-50.0277
177.165
-52.666
-59.3328
-44.6758
-34.0291
-44.6054
-47.2269
-57.8936
-27.5018
-42.6516
-40.1309
-36.3084
-35.5303
-41.6007
-38.7386
-52.1576
-37.4046
-39.34
-41.9424
-35.8336
-42.3645
-45.1495
-98.1822
-3.86544
10.6157
-89.871
-51.8878
-36.2825
-35.6432
-41.6107
-38.7118
-39.3077
-41.9198
-45.1077
-99.2365
-54.3218
-41.8775
-41.4159
-45.948
-54.3478
-46.0485
-41.4519
-41.8539
-84.1888
-84.1954
-49.7238
-49.8009
-26.4392
-11.4151
-11.3969
-26.4267
97.95
192.93
192.957
99.7454
-36.6295
-36.1965
-44.065
-43.5217
-36.6202
-43.4702
-44.0437
-36.1447
-36.6819
-36.6948
-35.0874
-35.1045
-2.618
-78.075
-78.0164
-2.32985
-42.8434
-45.9231
-42.2555
-43.0623
-42.806
-43.0314
-42.1604
-45.8403
-42.551
-42.5573
-45.4228
-45.7457
-52.1476
-33.2135
-33.1595
-52.1548
-36.485
-36.3982
-33.5721
-33.8204
25.0512
-39.9548
-42.1738
-41.8343
-39.6913
-42.8796
39.8972
65.9395
-13.4045
-40.1727
-33.7022
-36.9942
-40.307
26.1649
-42.5427
-39.7891
-41.8001
-42.5561
65.9155
39.7449
-13.4814
-33.5028
-39.9883
-36.8896
-47.3436
-35.3436
-39.7377
-40.7531
-45.7469
-30.897
-30.8984
-35.0728
-34.6651
-37.8716
-45.6739
-8.55441
-48.3758
-46.7216
-49.6384
-58.5664
-47.4067
-40.8194
-35.3511
-39.7734
-46.1368
-35.0328
-30.8195
-30.7232
-34.6923
-8.73826
-37.8315
-45.4387
-48.389
-58.512
-46.7352
-49.6386
32.2175
39.1154
-39.1259
170.624
50.4179
50.3906
-138.171
35.3766
-60.0447
-43.7164
-52.9137
-56.1373
-39.4737
-38.5012
-44.1502
-35.3435
-38.2474
-38.2628
-40.6918
-35.2526
-58.2601
-43.9527
-45.6224
-48.204
71.9841
72.8015
-5.43346
148.149
-42.2543
-41.4615
-56.1912
-32.2089
-29.795
-29.6956
-30.1292
-25.925
-40.6357
-45.7974
-42.5697
-42.1272
31.7439
39.0939
-39.0993
170.619
-60.0745
-43.5749
-52.8727
-56.075
-39.3426
-38.3771
-44.0256
-35.2051
-58.1834
-43.8777
-45.5268
-48.0306
-42.2855
-41.7833
-56.1846
-32.1396
-40.5633
-45.7772
-42.5162
-42.1017
-35.5245
-36.4331
-34.8102
-34.8116
-38.9482
-38.1971
-39.3466
-38.3938
-43.964
-43.9968
-53.3482
-39.37
-38.3239
-41.7447
-39.381
-41.5869
-37.1706
-37.1736
-36.327
-39.523
-54.4646
-52.4346
-49.1872
-75.5678
18.908
18.5773
8.23561
28.5422
-69.7522
-69.7223
-79.6148
-60.6378
-35.5331
-36.2608
-34.7883
-34.963
-38.9555
-38.183
-39.366
-38.3777
-38.3179
-41.7377
-39.3546
-41.5941
-54.406
-52.3885
-49.1908
-75.594
-61.1064
-53.6593
-55.3115
-46.7506
-61.1841
-53.6354
-55.2997
-46.7538
-78.3876
-63.2949
-63.2876
-55.6338
-28.4223
-24.9159
-24.8763
-15.5418
155.674
106.074
209.051
155.674
-37.8386
-39.4108
-39.4951
-41.8442
-37.8121
-39.3845
-39.4625
-41.8119
-36.0309
-36.4304
-35.7983
-36.1666
-103.258
-39.2929
-102.503
-103.073
-44.2301
-43.8756
-42.9632
-43.2225
-44.1455
-43.7942
-42.8882
-43.1708
-50.5626
-46.7574
-46.7475
-44.2923
-35.0647
-39.4651
-39.4605
-44.9533
-31.3986
-30.9316
-28.7588
-31.1423
-42.063
123.809
-127.915
2.87074
-56.1217
-74.4551
-44.259
-36.7472
-41.9519
-37.2158
-46.4152
-46.0185
-34.6625
177.362
-4.10862
148.618
-44.6728
-27.1243
-41.9849
-35.4872
-31.364
-32.6002
-40.5912
-34.8942
-127.901
1.98396
-42.1293
123.828
-56.1406
-74.1973
-41.4219
-37.1264
-44.1132
-36.7007
-46.3286
-45.7505
-4.00985
148.603
-34.7319
177.402
-44.7667
-27.1207
-31.2671
-32.3105
-41.8692
-35.3383
-40.4918
-34.8098
-41.6995
-47.2372
-35.8792
-35.8945
-43.7688
-36.6816
-51.7368
-38.6758
-43.3414
-43.7871
-34.6289
-33.6208
-35.7301
-42.0774
-35.626
-39.2124
-42.1107
-20.9434
-37.8678
-40.9592
-47.9314
-61.4757
-0.911321
16.5113
-44.8435
-53.1636
-43.6382
-43.5063
-47.7611
-61.9518
-72.2732
-60.8486
-41.644
-47.1253
-51.9233
-38.6919
-35.8716
-35.8801
-43.8661
-36.6941
-43.2602
-43.8058
-35.6256
-39.2209
-34.5757
-33.6083
-35.6737
-42.1616
-42.1506
-21.1324
-1.16616
16.1721
-37.8845
-40.9015
-47.8553
-59.0306
-44.826
-53.0633
-72.2047
-60.7809
-43.6158
-43.4984
-47.739
-61.923
-52.1868
-48.2656
142.879
203.034
-95.6841
-95.699
42.5792
43.0672
-62.5457
-45.684
-68.8495
-52.1611
-45.4724
-43.7458
-35.7347
-34.3303
-44.7492
-44.8099
-35.5308
-35.4835
-43.5047
-48.7738
-44.6304
-52.7345
-24.8128
-24.7751
201.639
201.631
-47.5637
-57.831
-30.0418
-20.5585
-32.3506
-32.3219
-29.5998
-29.9596
-42.1821
-43.2722
-45.3656
-36.0803
-52.1978
-48.2637
203.053
143.228
-62.5544
-45.6596
-68.9405
-52.1136
-43.6544
-45.3703
-35.5494
-34.1215
-43.4408
-48.6272
-44.6265
-52.8561
-57.8517
-47.6088
-20.5222
-30.0162
-43.2301
-42.1047
-36.0599
-45.3616
-36.5498
-36.5514
-35.7922
-35.2156
-41.7888
-41.4605
-37.4882
-40.5563
-51.58
-51.592
-37.2174
-37.2291
-37.8292
-41.353
-42.2879
-41.9236
-35.6268
-35.6252
-42.2894
-42.325
-44.5672
-44.8644
-40.0064
-91.284
-5.70462
-5.61467
8.35116
8.34601
-88.0425
-87.8353
-52.0286
-52.0372
-36.5358
-36.4981
-35.8232
-34.9951
-41.4823
-41.7832
-37.4667
-40.5196
-41.327
-37.7899
-42.2654
-41.8956
-44.8258
-44.5408
-91.2562
-39.8974
-39.5549
-62.1105
-61.2141
-39.8776
-45.9099
-41.2349
-46.6697
-45.1299
-37.0687
-49.0605
-47.1096
-38.1945
-29.7099
-37.7917
-60.4709
-51.5923
-39.7766
-39.8824
-61.2247
-62.0662
-29.7676
-51.65
-60.55
-37.7784
-37.0844
-38.2115
-47.128
-49.165
-46.0882
-45.0921
-46.6567
-41.2723
-93.5982
-143.984
-76.5032
-62.1091
-93.5806
-62.2743
-76.5174
-144.077
-50.3169
-52.9604
-54.7976
-48.6487
-50.0147
-48.7213
-54.8142
-52.942
-4.22075
-32.3424
-29.0126
-4.62549
-15.6385
5.75783
-16.681
-27.8771
-15.8771
-27.7924
-16.6873
5.78691
-3.67826
-4.71689
-29.0267
-32.2569
98.0473
155.91
103.704
35.8528
152.01
146.885
199.684
178.151
151.973
178.171
199.72
146.797
98.2431
38.184
103.724
155.921
-35.4648
-35.8
-37.7356
-37.5241
-33.7684
-37.916
-38.0007
-36.4855
-47.0062
-48.7229
-41.5809
-41.2023
-43.3105
-39.329
-41.644
-49.3486
-35.4838
-37.5239
-37.71
-35.786
-43.1711
-49.2985
-41.611
-39.2966
-47.0017
-41.1817
-41.5522
-48.689
-33.6937
-36.3993
-37.9608
-37.8785
-37.1083
-39.1573
-36.2324
-34.9749
-37.1426
-34.9753
-36.2578
-39.1713
-33.9251
-36.1929
-35.518
-34.214
-33.9209
-34.4711
-35.6845
-36.188
-17.3226
-83.3744
-36.8505
26.6553
-58.5801
-78.2847
-101.744
-67.6032
-58.5548
-67.5924
-101.936
-78.2433
-16.8986
26.4488
-36.6836
-83.3621
-43.459
-43.8409
-43.1873
-41.4674
-43.6248
-44.4392
-45.9678
-52.2977
-40.4021
-41.2418
-42.8066
-43.6178
-45.9139
-42.4709
-43.1714
-43.9459
-43.6625
-41.5034
-43.1299
-43.7659
-45.91
-43.9105
-43.1308
-42.4732
-40.2867
-43.4888
-42.7265
-41.1637
-43.4486
-52.1234
-45.8742
-44.2967
-40.3296
-39.433
-44.3743
-45.4123
-40.4135
-45.5835
-44.371
-39.4361
-41.9842
-40.9524
-51.2204
-55.1645
-42.7245
-55.2036
-51.1925
-41.1051
-54.8896
-47.1006
-44.8566
-60.7412
-32.919
-30.4722
-35.2829
-38.016
-32.8159
-37.9705
-35.2658
-30.4081
-54.8739
-60.7179
-44.8637
-47.0857
-37.4303
-35.5472
-33.0159
-35.8794
-37.3272
-35.8049
-32.7888
-35.4475
-34.9607
-28.2643
-30.9351
-35.4535
-35.1595
-35.5819
-31.2356
-28.6043
19.4275
-30.0708
-45.8354
-42.1901
-40.7853
-42.2892
39.6466
55.9215
8.79522
-40.4216
-35.9224
-37.424
-29.7855
19.125
-46.8774
-40.7865
-42.1637
-42.2201
55.9258
39.4942
9.77868
-35.7429
-40.2206
-37.2747
-47.6994
-36.0095
-39.3427
-40.0005
-30.1408
-31.4145
-28.7919
-31.329
-36.3125
-37.8172
-40.3279
-23.5136
-48.9234
-47.9739
-49.3303
-53.1867
-48.4245
-40.04
-36.0483
-39.2455
-30.7082
-31.3034
-31.258
-28.2476
-36.3726
-23.3007
-37.8074
-40.0836
-48.9641
-53.175
-48.0048
-49.3417
34.3911
39.9741
-39.0513
137.95
51.5696
51.5393
-28.7704
32.0656
-61.9537
-49.9367
-53.0815
-55.3706
-37.6231
-38.2812
-44.4553
-35.6126
-37.6693
-37.6666
-39.3708
-36.1603
-53.58
-44.2775
-46.1487
-46.8787
74.4086
73.9014
18.0856
100.615
-41.6282
-44.7391
-49.4911
-36.5203
-29.6544
-29.6194
-29.9958
-26.9577
-41.6384
-44.5598
-42.8883
-43.5026
34.1244
40.1284
-39.201
138.016
-61.9354
-49.8192
-53.039
-55.3174
-37.4792
-38.117
-44.3012
-35.4764
-53.4683
-44.1936
-46.053
-46.7536
-41.4659
-44.6008
-49.4621
-36.4294
-41.5868
-44.5294
-42.8363
-43.4663
-38.8446
-30.3219
-33.6506
-33.0174
-38.5777
-38.4559
-39.0408
-38.3488
-44.0876
-44.1035
-48.9853
-41.3238
-39.184
-40.7842
-39.6141
-40.5402
-37.3688
-37.371
-36.6998
-38.0298
-54.309
-53.3648
-51.4791
-62.0768
20.7302
20.5366
14.1908
27.8719
-70.2358
-70.2138
-74.8223
-65.5314
-38.8699
-30.1294
-33.6632
-33.3329
-38.5823
-38.4478
-39.0544
-38.3393
-39.1805
-40.7777
-39.5961
-40.5426
-54.2398
-53.2658
-51.4709
-62.0509
-57.3008
-53.9608
-54.55
-50.4683
-57.2828
-53.9384
-54.5276
-50.4679
-71.1532
-64.3177
-64.3153
-59.1329
-26.553
-24.3869
-24.3723
-20.1932
148.968
127.531
184.03
149.018
-38.6606
-39.5429
-39.5337
-40.5997
-38.6322
-39.5175
-39.5015
-40.5691
-36.14
-36.238
-36.159
-36.2687
-104.804
-74.5508
-110.893
-104.704
-43.6635
-43.5085
-43.0916
-43.019
-43.5877
-43.432
-43.0187
-42.9526
-47.9291
-46.5956
-46.5901
-45.3815
-36.9742
-39.2374
-39.2331
-41.7046
-29.9084
-28.7494
-29.0996
-29.7374
26.1547
30.4733
-39.3932
100.599
-9.51424
43.5353
-89.4213
18.2215
-55.7163
-49.7194
-58.5597
-73.1126
-41.614
-40.4334
-42.5908
-37.4905
-39.3725
-38.8619
-41.1448
-38.0308
-43.6007
-51.5679
-46.3391
-45.3713
40.2116
39.3823
-33.9103
140.575
70.0728
76.8818
17.2973
108.392
-30.2903
-39.1855
-42.5437
-28.4399
-39.5812
-38.7591
-44.6622
-36.136
-31.844
-30.1249
-30.8308
-31.6524
-36.9201
-38.6695
-39.326
-36.0158
-9.81864
43.4188
-89.3977
17.9273
26.721
29.9571
-39.6335
100.143
-55.8161
-50.0403
-58.5578
-73.0146
-39.4673
-38.8746
-41.2305
-37.9527
-41.5055
-40.3393
-42.4769
-37.4204
-43.2923
-51.4446
-46.2055
-45.1065
70.0355
73.2169
16.9073
108.431
40.0447
39.316
-34.0733
140.829
-30.4843
-39.2273
-42.6349
-28.5381
-31.6376
-30.0049
-30.7115
-31.3821
-39.4122
-38.6079
-44.5078
-35.9869
-36.9892
-38.6047
-39.2405
-35.9104
-37.9413
-41.3075
-41.3284
-45.5006
-35.5224
-34.2345
-35.9858
-35.5895
-40.0773
-39.5353
-42.9674
-37.5681
-41.6348
-43.6919
-47.0686
-40.2401
-44.8403
-44.2581
-43.2517
-42.6665
-31.7779
-36.0418
-33.6269
-31.8747
-32.6365
-37.3989
-35.5498
-39.6391
-36.4447
-36.9253
-36.0796
-36.9097
-36.9293
-39.9407
-42.029
-28.6794
-38.0241
-38.1387
-37.577
-39.3387
-52.1455
-54.4608
-50.5983
-74.7432
1.079
15.4187
5.3801
15.0728
-47.861
-46.5781
-46.1303
-50.6357
-45.3272
-42.7236
-44.0182
-43.5428
-50.2423
-51.7197
-49.4185
-55.8247
-64.0951
-68.5909
-69.466
-64.5848
-36.9256
-41.3098
-41.2548
-45.3523
-41.7055
-43.7343
-47.2477
-40.2655
-35.5269
-34.2439
-35.9908
-35.581
-40.0831
-39.5443
-43.0319
-37.592
-44.6991
-44.1845
-43.1588
-42.6981
-36.4421
-36.927
-36.0799
-36.9153
-31.7302
-35.9522
-33.5771
-31.8567
-32.618
-37.3882
-35.4896
-39.7334
-37.0354
-40.2254
-42.0768
-28.9416
-1.03238
16.0031
5.83294
13.6959
-37.9805
-38.1181
-37.5838
-39.274
-51.9884
-54.3862
-50.5092
-74.5116
-47.8604
-46.5673
-46.1231
-50.6034
-64.0897
-68.5659
-69.4235
-64.5429
-45.3316
-42.7203
-44.0298
-43.532
-50.2158
-51.6835
-49.3962
-55.7824
-42.7798
-60.2695
-50.9146
-49.22
183.16
165.632
160.502
196.093
-124.708
-84.6972
-97.4354
-97.4395
38.6115
82.697
46.9462
46.9173
-52.5315
-53.2847
-56.6577
-49.3734
-57.4033
-61.5645
-64.6143
-55.1248
-44.353
-44.8585
-45.1897
-44.3018
-34.9697
-33.0413
-34.3114
-34.3803
-42.4667
-47.2137
-44.5097
-44.5371
-35.2378
-34.2389
-35.5435
-35.5161
-45.1504
-44.2323
-43.259
-46.7238
-47.4531
-46.9911
-45.8492
-49.1057
-18.1827
-27.9795
-24.4069
-24.4106
181.069
211.163
202.065
202.189
-59.5265
-56.111
-52.4782
-57.5437
-29.7213
-25.9338
-29.067
-24.5865
-30.7662
-33.5401
-32.1441
-32.1319
-26.2571
-28.2545
-27.9174
-28.1424
-42.5411
-42.9083
-42.2795
-42.9455
-40.8257
-39.8125
-42.6207
-37.8965
-42.8215
-60.3339
-50.822
-49.1917
183.052
165.731
196.135
160.841
-52.5051
-53.27
-56.6156
-49.3451
-57.3395
-61.5457
-64.5759
-55.0931
-44.2438
-44.7679
-44.2068
-45.0871
-34.814
-32.7798
-34.121
-34.1798
-45.057
-44.1466
-43.1852
-46.6064
-47.3657
-46.9754
-45.8308
-49.0864
-59.5314
-56.1088
-57.4905
-52.5121
-29.6689
-25.847
-24.5345
-29.0104
-42.4869
-42.842
-42.8902
-42.2118
-40.7821
-39.8362
-37.8998
-42.6146
-35.5916
-36.9599
-36.5452
-36.1683
-35.2553
-35.8434
-35.6127
-35.4849
-40.0983
-43.9151
-41.6341
-41.6424
-38.4662
-39.1114
-38.0041
-39.5397
-51.4557
-53.1712
-52.0406
-52.0435
-38.2572
-36.7887
-37.342
-37.3492
-39.2886
-39.3774
-38.6167
-40.2769
-41.6003
-42.8282
-42.0404
-41.9253
-36.0824
-35.6454
-35.7727
-35.7677
-41.216
-43.252
-42.2447
-42.2457
-47.1026
-43.3736
-44.9906
-45.1623
-98.3243
-100.465
-63.5794
-99.3455
2.28333
-10.2523
-4.36286
-4.2954
23.1106
-6.80748
9.99815
9.88774
-84.5519
-96.5506
-89.5004
-89.4259
-56.1595
-48.0045
-51.9342
-51.9341
-35.5666
-36.9324
-36.5303
-36.1254
-35.3631
-35.9504
-35.6576
-35.2479
-40.1159
-43.9214
-41.6585
-41.6372
-38.4424
-39.0863
-37.9802
-39.5081
-39.2584
-39.3452
-40.2482
-38.5805
-41.5953
-42.7947
-42.0187
-41.9012
-47.0451
-43.338
-45.1248
-44.95
-98.3309
-100.476
-99.5301
-63.6645
-46.9859
-54.9108
-53.8434
-61.1837
-41.9516
-41.2917
-43.3019
-41.8613
-41.6768
-39.3352
-44.2169
-41.371
-39.3812
-44.1308
-47.1067
-52.8299
-47.0149
-54.9551
-53.8829
-61.1634
-39.3443
-44.2545
-47.1576
-52.9224
-41.717
-39.3604
-44.2588
-41.4003
-41.9126
-41.2764
-43.2833
-41.8488
-99.8662
-78.0137
-90.9811
-73.3401
-99.8388
-77.8224
-91.0061
-73.5013
-48.5042
-49.66
-50.2062
-50.7629
-48.6075
-49.8341
-50.2609
-50.7992
-19.3226
-27.6413
-25.588
-29.8934
-16.1657
-5.91753
-16.4877
-7.96192
-16.2371
-6.02527
-16.4803
-7.87402
-19.118
-27.6222
-25.5377
-29.9837
118.087
50.4522
120.837
35.8706
188.544
177.839
200.722
195.331
177.827
188.592
195.348
200.745
52.8667
118.041
36.1452
121.807
-36.2773
-36.5851
-36.5532
-37.0248
-35.4115
-35.7915
-36.5853
-36.9687
-43.8859
-45.8789
-42.5329
-44.3006
-42.3296
-45.6003
-41.8658
-44.366
-36.2691
-36.5809
-36.5402
-37.0085
-42.2742
-45.5374
-41.8237
-44.3214
-43.8677
-45.859
-42.5088
-44.2831
-35.3552
-35.7407
-36.5309
-36.9245
-36.3657
-37.5528
-36.1634
-37.0271
-37.5627
-36.3755
-37.0404
-36.1836
-35.4061
-34.7198
-35.4136
-35.0008
-34.7375
-35.4115
-35.0254
-35.4229
-17.6232
10.8245
-21.2704
4.59491
-69.9904
-75.6572
-83.4329
-85.0435
-75.6735
-69.971
-84.6218
-83.1872
11.0636
-17.3737
4.62323
-21.053
-43.1489
-42.2678
-43.9563
-42.5581
-45.0823
-46.1428
-45.6692
-47.7342
-42.11
-41.3714
-43.0656
-42.3892
-44.0116
-43.2836
-43.1608
-42.1515
-43.0935
-42.2725
-43.9008
-42.5308
-43.9865
-43.2566
-43.131
-42.1219
-42.0116
-41.2717
-42.974
-42.3049
-44.9295
-46.0617
-45.5685
-47.6268
-43.0747
-41.5548
-43.5662
-42.3264
-43.0862
-41.5632
-43.5689
-42.3299
-42.8595
-45.6221
-45.0689
-48.954
-43.8371
-46.0164
-45.2004
-49.2803
-52.6183
-56.1643
-48.5988
-52.0521
-32.1309
-33.9368
-32.6922
-34.4729
-32.0629
-33.8735
-32.6464
-34.3806
-52.6003
-56.1564
-48.6086
-52.0697
-36.7441
-36.7364
-36.4457
-35.6492
-36.6671
-36.6941
-35.5367
-36.3303
-32.988
-34.7202
-31.8898
-33.8988
-34.9037
-33.2647
-34.1251
-32.2209
-33.759
76.3167
-68.1975
42.9906
-39.8768
-73.439
-42.5811
-38.0968
-41.4034
-38.2846
-43.1625
-42.1995
-21.8623
122.902
35.677
116.529
-24.7378
-0.773508
-43.0706
-36.4061
-32.4305
-34.9392
-39.2115
-34.3368
-68.2568
42.4121
-34.1633
75.9312
-40.1527
-73.5587
-42.5799
-38.1473
-42.4812
-38.0439
-42.9442
-41.6655
35.4517
116.457
-21.5585
122.426
-24.8138
-0.483952
-32.3211
-34.7135
-42.9191
-36.211
-39.167
-34.0937
-46.4043
-49.9429
-35.2722
-36.1776
-45.0069
-36.36
-46.1067
-37.9443
-42.8154
-44.5248
-32.8597
-30.49
-33.0242
-35.6912
-34.7771
-34.5048
-36.608
-25.5668
-37.0202
-40.3088
-44.8542
-43.1053
-12.7133
-8.71542
-47.2591
-51.526
-46.8621
-46.2569
-48.4788
-53.4613
-57.4777
-56.9649
-46.7935
-50.481
-46.3763
-37.9862
-35.2862
-36.1821
-45.1541
-36.3968
-43.93
-44.6462
-34.7857
-34.5288
-32.7815
-30.4598
-32.9072
-36.0933
-36.6645
-25.7222
-13.4013
-8.59822
-37.0202
-40.1356
-44.6582
-42.6549
-47.2676
-51.5169
-57.4735
-56.9109
-46.8754
-46.2657
-48.4789
-53.4269
-44.133
119.61
-38.7002
142.629
-39.5271
-38.6513
164.955
176.433
-37.7212
34.3987
-39.2203
37.0668
-144.547
-144.492
33.997
34.0156
-57.9894
-61.8897
-43.4785
-46.9899
-56.5615
-49.4554
-60.8295
-51.7707
-42.5986
-36.0959
-45.5981
-36.1126
-44.3201
-43.9436
-34.9916
-35.4897
-39.9378
-36.8009
-39.9188
-36.689
-40.7988
-40.8577
-35.2846
-35.2352
-55.2532
-60.6006
-43.8596
-43.7198
-43.5455
-49.2357
-47.3741
-49.7672
15.6284
108.743
15.8368
106.406
-5.33714
-5.46409
144.725
147.267
-47.0355
-34.6735
-47.8915
-33.7947
-53.4409
-50.7511
-31.6755
-30.4524
-30.1615
-28.8498
-30.0871
-28.5767
-30.2189
-30.1837
-26.5176
-26.7362
-40.8588
-39.458
-44.8019
-47.5683
-41.8592
-43.246
-44.9306
-40.0488
-44.176
119.407
-39.0978
142.824
-39.5187
-38.6151
176.446
164.925
-57.9597
-61.8902
-43.3739
-46.9251
-56.5267
-49.3884
-60.7602
-51.7036
-42.464
-36.0101
-45.427
-35.9805
-43.8241
-44.1875
-34.8397
-35.3599
-55.1469
-60.5197
-43.7796
-43.7141
-43.4633
-49.119
-47.4013
-49.5686
-47.1033
-34.7959
-48.1414
-33.9379
-50.7288
-53.5054
-30.3267
-31.6117
-40.7839
-39.3906
-44.7772
-47.548
-43.1994
-41.8009
-40.0171
-44.9015
-34.5607
-35.2142
-36.894
-35.9226
-35.7878
-34.8131
-34.9148
-34.7182
-40.579
-37.891
-37.8407
-38.7271
-39.9135
-38.7852
-37.9191
-38.8613
-48.6732
-41.0495
-48.7204
-41.0715
-53.1277
-53.1208
-39.3009
-39.3086
-38.0666
-39.6519
-41.5522
-41.8503
-38.6758
-40.2646
-41.4007
-42.0353
-36.6199
-37.691
-36.6236
-37.6933
-36.3086
-36.2901
-39.5066
-39.5083
-51.8948
-64.6968
-50.7139
-58.9691
-48.854
-49.4002
-83.0161
-71.1316
11.8717
25.5548
11.9153
25.311
7.52965
7.66604
28.1417
28.121
-73.7817
-65.3766
-73.7654
-65.3428
-79.3161
-79.2941
-60.6639
-60.6474
-34.5678
-35.2347
-36.7652
-35.426
-35.7793
-34.7542
-34.9991
-34.4406
-40.6067
-37.8937
-37.8506
-38.6961
-38.8022
-39.937
-37.9099
-38.8376
-38.037
-39.6927
-41.5412
-41.841
-40.2422
-38.6435
-41.4214
-42.0385
-51.8381
-64.6727
-50.6725
-58.9401
-49.4028
-48.8083
-71.1333
-83.0255
-61.2075
-60.9887
-56.4937
-50.3372
-51.2714
-57.9338
-46.6867
-46.9504
-61.2249
-61.0657
-56.4688
-50.3337
-57.9269
-51.28
-46.9597
-46.6817
-77.7504
-77.7541
-69.5777
-58.4174
-69.5792
-58.257
-55.4527
-55.4595
-28.7642
-28.7661
-27.3722
-21.2793
-21.2716
-27.333
-15.7527
-15.7671
129.631
188.002
98.9947
99.2064
197.37
197.349
187.984
129.641
-37.8342
-37.913
-38.5641