# vtk DataFile Version 2.0
tri_press
ASCII
DATASET UNSTRUCTURED_GRID
POINTS 3682 float
-0.712652 0.305 -2.015
-0.775 0.365 2.0738
-0.715 0.782129 -1.965
-0.75202 0.995 2.005
0.712646 0.305 -2.015
0.775 0.365 2.07378
0.715 0.782127 -1.965
0.752014 0.995 2.005
-0.784895 0.273539 -0.652067
-0.817435 0.281783 0.710867
-0.818239 0.943985 -0.641667
-0.801301 0.985664 0.681667
0.784891 0.273539 -0.652074
0.817379 0.281837 0.710853
0.818229 0.943976 -0.641667
0.801291 0.985657 0.681667
-1.50266 -0.0579106 -3.09199
-1.50464 -0.0164315 -2.01751
-1.56088 -0.0362565 -0.653548
-1.59532 -0.0414363 0.718378
-1.57833 0.0149657 2.08301
-1.57025 0.0583186 3.16078
-1.57156 0.0938678 4.23247
-1.49764 0.23295 -3.08123
-1.49951 0.295441 -2.01107
-1.57186 0.292484 -0.654814
-1.59971 0.290506 0.705003
-1.56509 0.345205 2.06201
-1.5616 0.387454 3.13923
-1.56772 0.422555 4.21221
-1.49968 0.778576 -3.04858
-1.50652 0.839757 -1.97679
-1.59183 0.946772 -0.64753
-1.59227 0.977945 0.678922
-1.54975 0.997536 2.00894
-1.55392 1.03779 3.08779
-1.56536 1.07675 4.16716
-1.52108 1.70218 -3.02939
-1.53175 1.77615 -1.96352
-1.56768 1.8911 -0.647105
-1.5875 1.96908 0.660779
-1.58289 2.00769 1.97761
-1.57843 2.03547 3.04434
-1.57857 2.06735 4.11939
-0.741239 -0.0534484 -3.09455
-0.726272 -0.00921888 -2.02123
-0.770903 -0.0452711 -0.653051
-0.805086 -0.0484011 0.72338
-0.793563 0.0242815 2.09175
-0.787452 0.0649215 3.16671
-0.788834 0.0969984 4.2359
-0.739787 0.230965 -3.08201
-0.781076 0.394736 3.14412
-0.786424 0.425698 4.2148
-0.740108 0.75471 -3.04369
-0.774964 1.03884 3.087
-0.785458 1.07785 4.16699
-0.746641 1.68677 -3.02455
-0.748473 1.76206 -1.95819
-0.777674 1.88858 -0.643891
-0.799611 1.97229 0.660391
-0.79972 2.00919 1.97485
-0.796547 2.03581 3.04159
-0.796419 2.06754 4.11738
0.745038 -0.0534481 -3.09455
0.75447 -0.00921837 -2.02124
0.79469 -0.0452649 -0.653057
0.806018 -0.048365 0.723369
0.778195 0.0242953 2.09174
0.775393 0.0649319 3.1667
0.775424 0.0970094 4.23589
0.728897 0.230964 -3.08201
0.771414 0.394742 3.14411
0.773152 0.425708 4.21479
0.731992 0.754709 -3.04369
0.763316 1.03885 3.087
0.769053 1.07786 4.16698
0.785891 1.68677 -3.02455
0.799267 1.76206 -1.95819
0.801088 1.88857 -0.643892
0.783236 1.97229 0.660389
0.768507 2.00919 1.97485
0.766136 2.03581 3.04159
0.766959 2.06755 4.11738
1.50225 -0.0579098 -3.09199
1.51497 -0.0164303 -2.01751
1.57212 -0.0362437 -0.653559
1.5987 -0.0413874 0.71836
1.57397 0.0149996 2.08298
1.56308 0.0583432 3.16076
1.56076 0.0938904 4.23245
1.48507 0.232949 -3.08123
1.49155 0.295439 -2.01107
1.56869 0.292489 -0.654823
1.60247 0.290556 0.704986
1.56908 0.345234 2.06199
1.55743 0.387474 3.13921
1.55722 0.422576 4.21219
1.48985 0.778573 -3.04858
1.5 0.839751 -1.97679
1.5877 0.946765 -0.647533
1.5928 0.977955 0.678915
1.55213 0.997553 2.00893
1.54722 1.0378 3.08778
1.55152 1.07677 4.16715
1.55261 1.70218 -3.02939
1.56969 1.77614 -1.96353
1.5848 1.8911 -0.647109
1.57486 1.96908 0.660773
1.5576 2.0077 1.9776
1.55174 2.03548 3.04434
1.55118 2.06737 4.11938
-0.762423 0.543564 -2.0386
-3.01003e-06 0.298224 -2.02178
-0.76501 0.273034 -1.33353
-0.823261 0.68 2.09915
0 0.350267 2.08852
-0.82795 0.291659 1.39233
0 0.817961 -2.00083
-0.831325 0.927763 -1.30333
-3.01003e-06 1.03019 2.04019
-0.793702 1.00737 1.34333
0.762488 0.543564 -2.03867
0.765005 0.273034 -1.33354
0.823145 0.68 2.09903
0.828604 0.291003 1.39232
0.831312 0.927748 -1.30333
0.793696 1.00737 1.34333
-0.805172 0.273654 0.0294
-0.892858 0.608762 -0.646867
-2.04093e-06 0.27082 -0.65207
-0.885332 0.633723 0.696267
-2.80511e-05 0.270906 0.71086
-0.807557 0.962611 0.02
-4.53841e-06 1.26467 -0.641667
-5.36527e-06 1.47982 0.681667
0.805169 0.273654 0.02939
0.892848 0.608758 -0.64687
0.885324 0.633747 0.69626
0.807548 0.962605 0.02
-0.887534 0.576163 -1.31843
0.887535 0.576161 -1.31844
-2.52548e-06 0.270635 -1.33354
-2.26921e-06 0.989403 -1.30333
-1.50502e-06 0.543564 -2.17386
-0.892672 0.621243 0.0247
0.892662 0.621252 0.024695
-1.5046e-05 0.27088 0.029395
-4.95184e-06 1.4765 0.02
-0.88825 0.656862 1.36783
0.888246 0.656873 1.36783
-1.40255e-05 0.280353 1.39233
-4.18765e-06 1.26761 1.34333
-1.50502e-06 0.68 2.16643
-0.760448 0.424282 -2.04971
-0.356328 0.298482 -2.02152
-0.754897 0.27295 -1.67427
-0.825726 0.5225 2.11307
-0.3875 0.380287 2.05851
-0.816633 0.313171 1.73307
-0.744555 0.662847 -2.00764
-0.3575 0.811814 -1.99469
-0.79344 0.875223 -1.63417
-0.796088 0.8375 2.06052
-0.376012 1.02725 2.03725
-0.77965 1.00798 1.67417
0.356321 0.298472 -2.02153
0.760446 0.424282 -2.04971
0.754892 0.27295 -1.67427
0.3875 0.350685 2.0881
0.826084 0.5225 2.11342
0.816516 0.313288 1.73305
0.3575 0.811803 -1.99468
0.744429 0.662845 -2.00752
0.793442 0.875224 -1.63417
0.376005 1.02724 2.03724
0.795932 0.8375 2.06037
0.779646 1.00798 1.67417
-0.775127 0.273112 -0.9928
-0.795082 0.273548 -0.311333
-0.886307 0.417435 -0.649467
-0.392449 0.27218 -0.652069
-0.825085 0.284328 1.0516
-0.814903 0.274118 0.370133
-0.874164 0.446363 0.703567
-0.410649 0.272509 0.710863
-0.824801 0.935893 -0.9725
-0.885555 0.791377 -0.644267
-0.81329 0.95369 -0.310833
-0.467602 1.22129 -0.641667
-0.798227 0.997245 1.0125
-0.880407 0.828239 0.688967
-0.804153 0.973861 0.350833
-0.500785 1.43301 0.681667
0.775122 0.273112 -0.992805
0.392445 0.27218 -0.652072
0.795079 0.273548 -0.311342
0.886305 0.417431 -0.649472
0.825083 0.284329 1.05159
0.410604 0.272515 0.710857
0.815229 0.27379 0.370122
0.874158 0.446388 0.703557
0.824813 0.935905 -0.9725
0.467554 1.22121 -0.641667
0.885546 0.791371 -0.644268
0.813277 0.953679 -0.310833
0.798222 0.997244 1.0125
0.500754 1.43296 0.681667
0.880391 0.828244 0.688964
0.804153 0.973865 0.350833
-0.873735 0.559864 -1.67852
-0.381212 0.543564 -2.16228
-2.76776e-06 0.270618 -1.67766
-2.25753e-06 0.420894 -2.18244
-0.879175 0.424598 -1.32598
-0.382506 0.270635 -1.33353
-0.895294 0.668431 1.73349
-0.411631 0.68 2.16358
-7.01277e-06 0.311206 1.74042
-7.52509e-07 0.515133 2.15234
-0.884088 0.47426 1.38008
-0.413982 0.280863 1.39233
-1.1346e-06 0.92224 -1.65208
-7.52509e-07 0.680762 -2.07061
-0.888613 0.751963 -1.31088
-0.415664 0.982062 -1.30333
-3.59884e-06 1.05806 1.69176
-2.25753e-06 0.855097 2.12711
-0.876476 0.832118 1.35558
-0.396853 1.23561 1.34333
0.873827 0.559862 -1.67855
0.381243 0.543564 -2.1623
0.879171 0.424597 -1.32599
0.382501 0.270635 -1.33354
0.895334 0.668437 1.73343
0.411572 0.68 2.16359
0.884093 0.473938 1.38007
0.414295 0.280689 1.39232
0.888604 0.751955 -1.31088
0.415655 0.982055 -1.30333
0.876462 0.832123 1.35558
0.396846 1.23561 1.34333
-0.889405 0.427207 0.02705
-0.402575 0.272303 0.0293975
-0.889915 0.592463 -0.98265
-0.892739 0.615002 -0.311083
-2.28321e-06 0.270649 -0.992803
-8.54347e-06 0.27085 -0.311338
-0.889806 0.627483 0.360483
-0.887974 0.645293 1.03205
-2.15485e-05 0.27091 0.370128
-2.10383e-05 0.271616 1.05159
-0.885784 0.809762 0.02235
-0.513855 1.4397 0.02
-3.40381e-06 1.04293 -0.9725
-4.74513e-06 1.42991 -0.310833
-5.15855e-06 1.48483 0.350833
-4.77646e-06 1.42523 1.0125
0.889395 0.427214 0.0270425
0.402559 0.272303 0.0293925
0.889886 0.592459 -0.982653
0.892729 0.615005 -0.311088
0.88979 0.6275 0.360478
0.887974 0.64531 1.03204
0.885768 0.80976 0.0223475
0.513846 1.4397 0.02
-0.86993 0.42444 -1.67639
-0.893646 0.432875 -0.987725
-0.887374 0.764168 -0.977575
-0.854649 0.707405 -1.65634
0.869973 0.424439 -1.67641
0.854594 0.7074 -1.65636
0.887231 0.764161 -0.977576
0.893922 0.432873 -0.987729
-0.369417 0.270618 -1.67596
0.369411 0.270618 -1.67596
0.387473 0.270649 -0.992804
-0.387477 0.270649 -0.992801
-0.386582 0.917488 -1.64312
-0.412393 1.01907 -0.9725
0.412384 1.01908 -0.9725
0.386577 0.917493 -1.64312
-0.36877 0.422588 -2.12647
-0.369356 0.671805 -2.09508
0.369372 0.671804 -2.09504
0.368782 0.422588 -2.12654
-0.887899 0.4223 -0.311208
-0.887286 0.434034 0.365308
-0.883847 0.819376 0.355658
-0.885683 0.800576 -0.310958
0.88789 0.422302 -0.311215
0.885672 0.800573 -0.31096
0.88383 0.819377 0.355656
0.88728 0.434049 0.3653
-0.397512 0.272241 -0.311336
0.397502 0.272241 -0.31134
0.406594 0.272384 0.370125
-0.406631 0.272368 0.37013
-0.516864 1.38277 -0.310833
-0.508562 1.43884 0.350833
0.508549 1.43883 0.350833
0.516809 1.38267 -0.310833
-0.885115 0.466007 1.04183
-0.88158 0.49838 1.73328
-0.863367 0.834809 1.70383
-0.879097 0.820906 1.02228
0.885116 0.465865 1.04181
0.87909 0.820912 1.02227
0.863376 0.834812 1.7038
0.881533 0.498219 1.73324
-0.411357 0.274315 1.0516
0.411485 0.273746 1.05159
0.400898 0.310804 1.73674
-0.400741 0.310805 1.73675
-0.398753 1.40477 1.0125
-0.386432 1.05352 1.68297
0.386426 1.05346 1.68297
0.398744 1.40476 1.0125
-0.399566 0.518817 2.18566
0.399536 0.518817 2.18563
0.393789 0.846298 2.12066
-0.393821 0.846298 2.12066
-0.737038 0.364641 -2.03284
-0.53449 0.298999 -2.021
-0.736817 0.285933 -1.84463
-0.810519 0.44375 2.10359
-0.58125 0.351102 2.0877
-0.803607 0.331295 1.90343
-0.73012 0.722488 -1.98666
-0.53625 0.803744 -1.98661
-0.761392 0.835848 -1.79958
-0.778567 0.91625 2.03727
-0.564016 1.02299 2.03299
-0.773105 1.00876 1.83958
0.534484 0.298991 -2.02101
0.737077 0.364641 -2.03289
0.736926 0.285819 -1.84463
0.58125 0.351117 2.08767
0.810625 0.44375 2.10368
0.803632 0.331269 1.90341
0.53625 0.803747 -1.98662
0.730093 0.722486 -1.98664
0.761494 0.835948 -1.79958
0.56401 1.02307 2.03307
0.778761 0.91625 2.03747
0.773068 1.00873 1.83958
-0.779943 0.273394 -0.822434
-0.790037 0.273495 -0.4817
-0.842958 0.341809 -0.650767
-0.588667 0.272869 -0.652068
-0.820785 0.28353 0.881233
-0.817357 0.276762 0.5405
-0.843247 0.365349 0.707217
-0.615987 0.273255 0.710865
-0.820456 0.938875 -0.807083
-0.863692 0.873578 -0.642967
-0.816031 0.949104 -0.47625
-0.678251 1.1533 -0.641667
-0.799817 0.991507 0.847084
-0.854978 0.914014 0.685317
-0.802726 0.979762 0.51625
-0.671619 1.25049 0.681667
0.779939 0.273394 -0.822439
0.588663 0.272869 -0.652073
0.790033 0.273495 -0.481708
0.84295 0.341809 -0.650773
0.820783 0.28353 0.881219
0.615951 0.273255 0.710855
0.817391 0.276726 0.540488
0.843251 0.365371 0.707205
[...]
POINT_DATA 3682
SCALARS point_scalars float 1
LOOKUP_TABLE default
-83.5296
-45.2144
-28.3894
-43.3709
-85.7627
-45.0036
-28.5286
-43.2697
-37.16
-28.6508
-59.2857
-49.0743
-37.1455
-28.6333
-59.2445
-49.1054
4.87125
-72.5388
-36.9696
-34.6631
-46.2195
-42.8677
-37.6273
57.9144
-77.6062
-38.252
-35.9721
-47.6993
-42.2167
-38.0147
-21.5984
-70.4113
-48.42
-43.4646
-49.3549
-40.727
-39.081
-7.3048
-44.3814
-87.1451
-60.4032
-44.146
-42.8184
-40.8035
87.151
-114.431
-37.4212
-32.1281
-42.5381
-36.794
-36.0715
150.789
-35.8087
-35.8087
176.458
-36.4676
-35.9862
17.7805
-39.1483
-73.8948
-62.0563
-41.2435
-39.2178
-37.3031
89.0331
-110.283
-37.4059
-32.0044
-42.2521
-36.7193
-35.5568
150.847
-35.4903
-35.4903
176.526
-36.3557
-35.8489
20.3028
-39.3016
-74.8314
-62.047
-40.8358
-38.916
-37.2454
4.85949
-72.5326
-36.9602
-34.2808
-46.0747
-42.5298
-37.4155
64.6497
-77.5951
-38.2403
-34.5465
-47.5331
-42.011
-37.8
-18.2168
-70.4383
-48.4196
-43.4207
-49.2325
-40.5603
-38.9015
-7.54544
-44.344
-86.9708
-60.3922
-44.0114
-42.7176
-40.6801
-27.4636
-149.137
-53.5615
-40.7252
-29.5082
-40.8622
-30.0796
-49.5811
-39.8922
-50.0419
-27.4558
-53.5439
-40.5566
-40.8064
-49.5782
-50.0363
-34.6715
-42.4298
-41.0245
-38.5086
-36.7203
-54.7295
4.42604
-69.951
-34.6679
-42.4184
-38.4826
-54.697
-56.1806
-56.1739
-59.6582
-2.77509
204.48
-41.3971
-41.3991
-35.7808
-98.5254
-40.6118
-40.5621
-39.7071
-44.5522
-30.8596
-37.2738
-171.31
-73.9307
-41.8473
-34.7261
-42.3161
-26.4023
-30.8837
-42.6459
-41.8916
-38.4708
-44.4259
-170.563
-37.3233
-74.0482
-34.3556
-41.6451
-42.146
-30.8576
-26.3233
-42.6556
-38.4513
-41.751
-44.405
-44.9936
-35.1785
-39.1583
-40.303
-37.8879
-34.443
-34.2073
-36.3056
-44.2009
-47.4622
-60.2699
-3.91084
-49.5246
-42.9472
-52.7056
-64.5109
-44.9781
-40.3142
-35.1738
-39.1473
-37.5144
-36.279
-34.46
-34.4301
-44.3593
-3.86566
-47.4447
-60.2383
-49.5095
-64.5024
-42.9211
-52.7484
-73.1002
197.13
-85.5151
122.639
-54.3224
-58.2396
-44.5682
-35.3512
-37.0343
-23.2201
-39.6276
-40.3786
-24.2447
147.933
-58.62
-12.2837
-41.4111
-34.858
-43.6858
-45.3376
-73.1177
197.239
-54.3108
-58.2737
-44.4761
-35.1522
-39.5792
-40.3182
-58.6783
-12.2864
-43.6311
-45.376
-37.7431
-35.4286
-44.6099
-42.1705
-47.8183
-37.3387
-40.076
-39.9472
-35.6683
-38.694
-46.4478
-89.6808
24.0725
-100.965
-78.4956
-55.9008
-37.7424
-35.4312
-44.5708
-42.1629
-40.0819
-39.8904
-46.454
-89.6782
-71.2331
-46.1724
-45.3406
-63.7784
-71.2866
-63.7621
-45.3303
-46.1695
-83.3588
-83.4989
-46.8682
-46.8493
-27.8413
7.6007
7.6314
-27.8631
73.6299
137.127
137.691
72.5734
-37.9666
-37.3562
-44.5926
-48.6167
-37.9585
-48.6044
-44.5979
-37.3782
-36.7994
-36.806
-35.3033
-35.3065
-84.2836
-70.3065
-70.3035
-84.2271
-39.3458
-42.8606
-44.9632
-42.5525
-39.1998
-42.4961
-44.9031
-42.7574
-38.6149
-38.5599
-38.8424
-39.141
-56.8412
-42.061
-42.0611
-56.8394
-31.8271
-31.5985
-36.1655
-36.2814
-47.8753
-154.47
-90.5896
-42.9317
-38.7939
-44.7663
-22.3318
-18.4636
-38.5232
-43.1706
-38.6433
-43.8566
-154.415
-48.1258
-90.5681
-39.0028
-42.7107
-44.6106
-17.9712
-22.1064
-38.6645
-38.5712
-43.043
-43.8104
-38.8389
-35.8718
-37.3844
-39.0301
-43.2338
-33.5048
-25.9452
-35.9041
-51.0444
-52.5966
-61.4227
-56.4365
-48.8758
-46.0724
-50.2766
-55.5382
-38.8232
-39.0288
-35.8634
-37.3747
-43.2478
-35.8679
-33.5411
-26.3024
-51.1071
-56.6425
-52.5729
-61.3638
-48.8803
-55.5411
-46.0665
-50.3329
-30.4507
-25.686
-70.8257
167.971
-182.891
-181.456
-104.812
58.7159
-62.6009
-47.4874
-52.771
-55.9128
-40.9882
-41.3484
-49.3475
-36.0908
-30.7775
-30.5437
-33.2466
-23.2759
-45.3868
-38.176
-39.8065
-41.1959
-31.9798
-32.0088
-35.8671
78.4939
-49.3255
-49.114
-60.7174
-24.7076
-39.4215
-39.4274
-40.3767
-37.3483
-46.266
-50.9167
-45.2073
-47.5647
-30.5221
-25.6261
-70.8598
168.022
-62.579
-47.4714
-52.8655
-55.9084
-40.802
-41.1833
-49.193
-35.9589
-45.4261
-37.8691
-39.7381
-41.0982
-49.3171
-48.2258
-60.7096
-24.7129
-46.2589
-50.8852
-45.1685
-47.5591
-34.6307
-34.8054
-36.5649
-35.0009
-40.5818
-44.4135
-43.1915
-42.3349
-40.8736
-40.8843
-43.9386
-38.8659
-36.7541
-40.4743
-39.0314
-39.2529
-36.6654
-36.6528
-36.0576
-37.5976
-58.1643
-53.7155
-50.439
-67.1184
4.09296
4.07647
31.7912
-39.9359
-68.7027
-68.7013
-73.5896
-62.3536
-34.6292
-34.7915
-36.5629
-34.9969
-40.5701
-44.3998
-43.1811
-42.3239
-36.7363
-40.438
-39.0333
-39.0664
-58.0935
-53.7329
-50.4294
-67.084
-67.9198
-55.1101
-57.1986
-48.5913
-67.919
-55.0989
-57.2512
-48.5838
-69.9799
-59.4367
-59.464
-52.8321
-15.2014
-5.17288
-5.17241
9.29004
201.531
195.157
180.988
201.592
-39.748
-41.7817
-41.094
-43.5198
-39.7482
-41.7781
-41.095
-43.5238
-35.718
-36.3443
-35.5698
-35.7216
-97.676
-106.807
-86.7391
-97.6862
-42.9159
-40.0735
-42.2701
-40.301
-42.8501
-40.0257
-42.2127
-40.2415
-40.0665
-39.8944
-39.8378
-39.6559
-41.9581
-44.8465
-44.8431
-49.0475
-32.4633
-25.0991
-32.2897
-32.2597
-72.369
133.907
-106.497
25.0157
-64.7495
-78.7465
-47.6797
-35.5747
-36.896
-31.4349
-41.8657
-40.9637
-62.5093
119.703
-41.1768
88.817
-56.9881
-32.3046
-48.3688
-36.3139
-40.3149
-37.0271
-44.7623
-42.6779
-106.852
25.7314
-72.3895
133.916
-64.8015
-78.8595
-36.104
-31.4938
-47.5081
-35.349
-41.7517
-40.6865
-41.1761
88.3697
-62.5964
119.655
-56.9895
-32.3382
-40.3052
-36.9559
-48.2541
-36.1974
-44.7084
-42.6771
-51.7652
-45.429
-36.616
-36.0907
-40.689
-38.01
-43.1126
-38.1769
-38.4215
-38.2926
-36.0247
-34.7893
-35.9443
-38.5256
-35.6874
-37.6458
-46.0004
-14.9413
-45.5177
-48.5442
-54.3861
-85.3089
15.0951
-41.9083
-44.9063
-59.8847
-43.3726
-42.745
-48.7368
-60.2588
-65.944
-61.3279
-51.7281
-45.4283
-43.1272
-38.1858
-36.6097
-36.1361
-40.6733
-37.9992
-38.1753
-38.2069
-35.6749
-37.5911
-36.051
-34.786
-35.9871
-38.1315
-45.9852
-14.9396
15.1522
-41.9923
-45.5047
-48.5317
-54.3625
-85.2953
-44.8748
-59.8502
-65.9385
-61.3254
-43.3682
-42.6844
-48.7725
-60.2467
-71.8877
-70.1927
174.064
172.114
-85.5158
-85.6162
45.4442
43.8792
-66.1137
-47.5842
-68.2742
-51.6578
-43.9571
-44.4694
-33.3993
-35.7212
-37.5022
-37.6948
-25.9143
-25.6399
-39.4353
-44.7803
-39.5469
-41.4899
-25.0275
-25.0241
144.036
144.017
-49.0027
-71.0106
-21.116
-3.0291
-41.6361
-41.6378
-35.4303
-35.5382
-44.2416
-43.0915
-50.2675
-42.9506
-71.9205
-70.1714
172.25
174.037
-66.1065
-47.5482
-68.3327
-51.6824
-44.3895
-43.8623
-33.0876
-35.5582
-39.3659
-44.7099
-39.5501
-41.2011
-71.0177
-48.9287
-2.99953
-21.1226
-43.0424
-44.1928
-42.9514
-50.2643
-37.8249
-38.0302
-35.9167
-35.2296
-44.9598
-44.7867
-40.107
-44.7536
-47.6689
-47.6528
-37.2289
-37.2357
-38.8343
-41.924
-39.9083
-40.9476
-35.5939
-35.5949
-38.6037
-38.6566
-45.7878
-47.7723
-105.685
-78.654
19.5391
19.726
-91.0237
-91.0564
-76.4254
-76.4323
-55.711
-55.7126
-37.8205
-38.0295
-35.9213
-35.2303
-44.7677
-44.9372
-40.099
-44.7469
-41.9281
-38.8469
-39.8665
-40.882
-47.7698
-45.8061
-78.6501
-105.689
-71.7098
-64.1984
-66.6801
-73.5919
-38.634
-42.1338
-47.9999
-47.3763
-48.366
-49.4897
-48.8795
-44.1666
-51.5347
-67.5155
-70.5527
-66.9133
-71.7931
-73.6056
-66.6781
-64.3529
-51.6995
-66.9002
-70.5555
-67.5828
-48.3446
-44.1538
-48.7966
-49.4622
-38.6269
-47.1679
-47.9858
-42.1219
-98.1899
-109.117
-69.708
-65.4302
-98.1162
-65.4213
-69.7543
-109.425
-41.7764
-43.8103
-52.6676
-49.8261
-41.7776
-49.8277
-52.6475
-43.7975
-43.9844
-28.6464
-16.4551
-37.3206
-23.7209
28.0696
6.18601
-19.604
-23.6931
-19.5863
6.1999
28.0816
-43.967
-37.3539
-16.4626
-28.6544
66.4179
168.615
169.961
26.0461
86.9395
87.8454
176.638
147.758
87.2851
147.761
176.758
87.8601
66.4837
25.2831
169.822
168.573
-36.8029
-36.5033
-39.8976
-40.2425
-33.9064
-37.5698
-39.7302
-36.7453
-47.0733
-50.2044
-42.9692
-40.9585
-54.6715
-44.8102
-44.241
-53.4094
-36.7941
-40.2317
-39.8934
-36.5
-54.6504
-53.4047
-44.237
-44.7988
-47.0959
-40.9513
-42.9714
-50.2347
-33.9625
-36.7422
-39.7323
-37.5878
-37.2477
-38.7434
-36.2408
-35.4098
-37.2465
-35.4078
-36.2461
-38.7517
-34.9778
-35.9501
-35.5022
-34.8271
-34.99
-34.8329
-35.5003
-35.9557
-95.2032
-74.8837
-110.292
-38.4
-56.701
-71.8259
-84.9991
-64.8425
-56.6793
-64.8245
-84.9992
-71.8219
-95.1041
-37.8691
-110.275
-74.8578
-44.0648
-38.9945
-39.9276
-37.7092
-46.5131
-48.7652
-43.2359
-46.979
-46.9518
-44.4372
-43.7363
-49.3166
-45.9167
-40.5504
-41.1532
-45.5391
-44.0372
-37.3724
-39.8636
-38.6763
-45.8847
-45.4962
-41.0953
-40.4608
-46.8501
-49.1802
-43.6831
-44.3967
-46.354
-46.9532
-43.1651
-48.5992
-37.4928
-37.5918
-39.7018
-39.4216
-37.4285
-39.3366
-39.6747
-37.571
-38.968
-34.0039
-40.3488
-42.3338
-39.3372
-42.5115
-40.4827
-34.4186
-54.5437
-52.5462
-49.3487
-62.042
-40.8269
-40.338
-42.2345
-44.4841
-40.8087
-44.4863
-42.2421
-40.3362
-54.5886
-62.0417
-49.3559
-52.5372
-36.3169
-26.2214
-27.9
-35.5483
-36.1419
-35.3777
-27.6346
-26.1629
-36.8464
-37.2413
-33.5999
-36.0238
-36.9484
-36.1481
-33.7632
-37.2893
-64.5415
-128.976
-99.8279
-44.1211
-41.851
-44.0576
-25.281
-6.34108
-45.7779
-43.817
-40.2548
-44.0525
-128.69
-64.964
-99.7123
-41.6935
-43.9031
-43.8681
-10.0472
-25.2922
-45.7752
-40.1515
-43.6976
-43.9414
-37.6694
-36.2871
-36.9386
-38.2366
-37.3623
-31.8997
-22.1767
-35.2207
-57.9922
-55.9713
-60.7445
-78.7089
-48.9049
-48.0977
-49.6264
-51.4357
-37.6562
-38.2303
-36.2742
-36.927
-37.1711
-35.1782
-31.9365
-22.2506
-57.953
-78.6493
-55.9381
-60.7376
-48.9222
-51.468
-48.1168
-49.671
-30.6576
-27.2656
-55.47
108.393
-173.287
-173.049
-129.186
-19.1459
-56.8643
-49.4102
-53.6439
-54.471
-40.6966
-41.1704
-46.494
-36.5594
-29.5728
-29.4131
-31.1126
-25.6193
-46.0305
-39.4151
-40.4002
-41.4713
-29.7958
-29.8619
-46.0506
15.4716
-50.2673
-49.8488
-58.0751
-33.984
-39.767
-39.7712
-39.9135
-38.8209
-48.1318
-50.1857
-47.3062
-49.9028
-30.6967
-27.2596
-55.4866
108.369
-56.8479
-49.3954
-53.4201
-54.4575
-40.5138
-41.0012
-46.3283
-36.4031
-46.0129
-39.3811
-40.3904
-41.391
-50.2458
-49.8809
-58.0707
-34.0092
-48.1241
-50.1651
-47.2794
-49.8998
-34.5546
-34.8353
-35.6598
-34.8362
-41.5271
-43.3321
-42.7195
-42.3439
-40.9812
-40.9868
-42.3868
-39.8527
-37.6483
-39.4858
-38.6646
-38.7401
-36.705
-36.699
-36.3495
-37.1943
-56.5449
-54.3089
-52.5534
-59.9079
4.3963
4.41679
22.3543
-14.9838
-69.6465
-69.645
-72.825
-66.0407
-34.5525
-34.8287
-35.6576
-34.8297
-41.5157
-43.3201
-42.7079
-42.3329
-37.6344
-39.452
-38.657
-38.655
-56.5294
-54.3135
-52.5284
-59.8778
-61.0019
-55.6519
-56.6964
-52.085
-60.9977
-55.6424
-56.6879
-52.0606
-64.2521
-59.9723
-59.984
-55.9736
-9.25199
-3.33182
-3.33218
2.75659
207.658
208.169
199.185
207.706
-40.5446
-41.5937
-41.202
-42.3507
-40.5459
-41.5926
-41.2088
-42.3538
-35.7687
-36.013
-35.6324
-35.7709
-98.5754
-103.13
-92.8332
-98.5824
-41.4328
-40.2919
-41.1908
-40.5641
-41.3702
-40.2481
-41.1366
-40.5102
-40.1921
-39.7712
-39.7374
-39.4346
-43.1151
-44.6443
-44.6427
-46.2475
-31.3959
-27.7429
-32.2965
-31.2715
-44.4392
-29.7772
-57.0462
76.1791
-166.973
-181.367
-138.243
-45.0423
-77.348
-69.631
-70.891
-75.3055
-42.2605
-41.3946
-45.4874
-36.5553
-35.8194
-32.9169
-36.4603
-31.9553
-42.0514
-40.8771
-42.113
-41.8372
-26.0483
-20.3867
-62.6604
81.6664
-19.7832
-31.6649
-48.9699
41.2169
-37.7214
-40.9861
-51.5717
-34.5905
-42.34
-41.247
-46.3619
-37.0357
-38.3033
-38.9316
-39.3179
-37.5742
-43.8206
-44.9509
-44.561
-43.4385
-166.993
-178.409
-139.122
-41.9387
-44.4489
-29.8946
-57.123
76.2349
-77.4424
-69.6038
-70.9278
-75.4711
-36.4977
-32.1475
-34.7516
-32.7212
-42.0498
-41.2021
-45.2624
-36.3682
-41.8497
-40.9081
-41.9718
-41.609
-19.6545
-31.6639
-49.0579
41.1617
-25.8597
-20.2272
-62.839
81.7104
-37.8313
-41.0381
-51.5981
-34.6087
-38.26
-38.9292
-39.2992
-37.5326
-42.2131
-41.0902
-46.2397
-36.9018
-43.7941
-44.9401
-44.5193
-43.4296
-41.7361
-45.8323
-50.8431
-44.5705
-35.4151
-34.7225
-35.7356
-35.7057
-38.1225
-39.7264
-39.6331
-38.2751
-39.838
-40.6029
-41.7096
-39.0656
-38.0758
-38.1344
-38.452
-38.0525
-34.1119
-34.926
-35.6137
-34.5011
-30.9474
-36.0124
-35.2395
-35.3768
-36.0709
-36.5738
-35.989
-37.1328
-46.9737
-46.7372
-46.1112
-33.4306
-49.5475
-45.7454
-46.5131
-48.2289
-61.095
-59.41
-57.9639
-69.4925
-20.4206
2.05308
8.43596
-23.8662
-49.0514
-49.8753
-46.3662
-56.3182
-44.5685
-41.5535
-43.0762
-42.7678
-51.3169
-53.3311
-50.9003
-56.5955
-61.0303
-67.1863
-65.2837
-63.9014
-41.7184
-45.8152
-50.7782
-44.563
-39.8436
-40.6164
-41.7222
-39.0759
-35.4073
-34.7187
-35.7305
-35.7005
-38.1126
-39.7142
-39.6199
-38.2643
-38.0949
-37.7939
-38.1768
-37.9222
-36.0391
-36.5542
-35.9703
-37.095
-34.1703
-34.8905
-35.6424
-34.5078
-31.492
-35.9971
-35.3313
-35.1693
-46.9736
-46.731
-46.0956
-33.4349
-20.3692
2.12783
8.43089
-23.8587
-49.528
-45.7294
-46.5017
-48.2132
-60.9984
-59.3703
-57.9673
-69.464
-49.0443
-49.8611
-46.3328
-56.3138
-61.019
-67.1832
-65.2834
-63.8919
-44.5503
-41.5195
-43.0616
-42.7217
-51.3739
-53.3566
-50.9534
-56.5882
-78.5946
-72.9453
-72.5491
-72.6555
188.702
205.914
200.138
187.441
-94.0729
-77.3254
-85.4996
-85.5335
96.1678
169.529
38.203
37.6432
-53.2881
-54.7969
-59.0896
-50.4149
-57.2235
-59.3343
-62.6952
-54.6841
-47.0194
-43.7084
-44.3942
-44.5428
-35.9175
-34.0153
-34.3247
-35.7589
-35.2889
-38.9317
-37.1597
-37.2559
-22.9368
-23.2984
-23.6017
-23.4456
-39.7411
-39.9249
-39.74
-43.7499
-40.7606
-40.1365
-39.6571
-41.362
-28.6911
-20.588
-24.4349
-24.4343
135.001
153.221
147.995
148.154
-59.6151
-57.9679
-53.0891
-65.5418
-17.7242
-8.13377
-16.6468
-7.95917
-40.9489
-41.2774
-41.4438
-41.4452
-36.3311
-33.5608
-34.9781
-35.0442
-44.2948
-43.1148
-43.757
-43.3061
-46.1635
-45.0381
-47.4123
-43.9599
-78.602
-72.9683
-72.5773
-72.6662
188.814
206.037
187.58
200.211
-53.2777
-54.7851
-59.0785
-50.4021
-57.2377
-59.3723
-62.7386
-54.7096
-46.9134
-43.6342
-44.4573
-44.2978
-35.7596
-33.7896
-34.0756
-35.5881
-39.6897
-39.8747
-39.6883
-43.737
-40.6773
-40.0713
-39.6218
-41.3984
-59.6228
-58.056
-65.5634
-53.0617
-17.7277
-8.13387
-7.95803
-16.6528
-44.2463
-43.058
-43.2549
-43.7116
-46.1627
-45.0409
-43.9625
-47.4146
-36.9711
-39.1123
-37.8501
-37.6691
-35.2179
-35.5959
-35.6273
-35.2887
-43.8143
-46.0601
-44.7598
-44.5916
-42.2462
-42.026
-41.112
-43.3459
-45.7563
-50.1254
-47.7991
-47.7916
-38.0278
-36.7862
-37.3089
-37.3127
-39.5487
-40.6554
-39.4505
-40.9042
-39.4567
-40.2906
-40.0154
-40.4469
-35.8291
-35.584
-35.6374
-35.6377
-38.0467
-39.6388
-38.6587
-38.6477
-48.5661
-44.7859
-45.821
-47.5647
-77.2133
-96.1324
-98.6289
-83.5567
30.9909
16.2643
22.3051
22.0651
-69.3751
-111.111
-97.9577
-97.9306
-75.4101
-81.9237
-77.8001
-77.8037
-59.1916
-52.1651
-55.522
-55.5226
-36.9698
-39.1117
-37.8479
-37.6708
-35.2175
-35.6001
-35.6307
-35.29
-43.8043
-46.0454
-44.5708
-44.7201
-42.2365
-42.0203
-41.104
-43.3392
-39.5535
-40.6566
-40.9087
-39.459
-39.3716
-40.2303
-39.9735
-40.383
-48.5723
-44.7901
-47.5678
-45.8329
-77.2011
-96.1354
-83.5561
-98.6378
-77.5785
-69.706
-71.3491
-71.3778
-47.8647
-44.0862
-44.9525
-45.3718
-45.5666
-45.0426
-46.4842
-45.0718
-63.2564
-59.8313
-68.0382
-67.9438
-77.6037
-69.7643
-71.3905
-71.3893
-63.2875
-59.8223
-68.0338
-67.9279
-45.5592
-45.009
-46.4782
-45.0515
-47.861
-44.1036
-44.8975
-45.3684
-92.6897
-81.5562
-84.653
-75.4152
-92.9054
-81.6411
-84.8108
-75.4984
-46.2293
-44.8771
-49.099
-47.3835
-46.2202
-44.8603
-49.0774
-47.3605
-32.3991
-30.0636
-25.9865
-24.9221
-0.38763
12.463
2.13084
14.8346
-0.416034
12.5076
2.15562
14.8462
-32.3685
-30.0795
-26.0153
-24.9421
91.0348
76.3239
140.237
72.5453
128.813
120.156
148.679
140.715
117.956
128.912
140.733
148.826
74.9179
90.5151
73.1091
140.137
-37.0907
-38.2855
-37.7647
-39.216
-36.4168
-37.0592
-37.591
-38.3942
-43.9725
-46.5703
-43.0921
-45.2452
-48.7121
-51.298
-46.4296
-48.2015
-37.0829
-38.276
-37.7584
-39.2078
-48.7001
-51.2815
-46.421
-48.1931
-43.9785
-46.579
-43.0968
-45.26
-36.439
-37.0938
-37.5993
-38.4099
-36.4701
-37.4125
-36.3132
-37.0541
-37.4202
-36.4729
-37.0621
-36.3187
-35.4481
-35.0686
-35.4779
-35.2428
-35.0736
-35.4561
-35.2425
-35.4803
-95.1612
-58.7531
-98.5241
-84.4758
-64.689
-67.6465
-74.3585
-74.2121
-67.6384
-64.6859
-74.2145
-74.3631
-58.8758
-95.1452
-84.5318
-98.4307
-38.8908
-40.3279
-39.2569
-39.6209
-45.3709
-42.484
-43.3538
-42.7126
-46.2756
-45.0869
-44.5696
-44.5527
-43.8934
-42.7514
-42.6494
-41.6665
-38.7032
-40.2876
-39.1558
-39.5522
-43.8508
-42.6938
-42.5961
-41.6033
-46.1941
-45.0335
-44.4952
-44.4894
-45.2486
-42.3733
-43.2558
-42.6199
-38.5339
-38.0394
-39.453
-38.6331
-38.4704
-37.9207
-39.4585
-38.6032
-37.52
-39.7123
-38.0806
-40.0821
-38.0327
-40.0175
-38.3495
-40.4928
-58.4497
-59.2993
-54.0051
-56.1133
-41.2409
-42.2875
-41.8507
-42.4877
-41.2382
-42.2874
-41.8512
-42.4899
-58.452
-59.2982
-54.0037
-56.1136
-34.773
-31.6477
-32.9264
-28.008
-31.3343
-34.4699
-27.7383
-32.5831
-36.5675
-36.2464
-35.9831
-35.7536
-36.3599
-36.6622
-35.8974
-36.0942
-68.6701
22.6015
-127.634
-22.0593
-74.9045
-91.9205
-45.3994
-37.8705
-38.346
-38.607
-45.9419
-40.862
-63.4549
63.9171
-53.1952
41.3739
-44.0468
-41.3044
-46.405
-38.1622
-39.6661
-37.5458
-45.9985
-41.8091
-127.547
-22.0416
-68.7082
22.7678
-75.1025
-91.8079
-38.1388
-38.1995
-45.183
-37.8894
-45.8002
-40.6238
-53.246
41.4443
-63.5581
64.0227
-44.1991
-41.418
-39.6803
-37.45
-46.2716
-38.0447
-45.9124
-41.7758
-38.0158
-40.9984
-36.0924
-36.7071
-37.8105
-37.0181
-40.1836
-38.0035
-47.1194
-38.0284
-33.703
-34.2318
-31.6524
-32.193
-35.2996
-37.2278
-51.2486
-46.3381
-50.4099
-53.776
-58.5489
-75.5337
-33.8419
-73.5663
-48.1157
-51.1351
-46.4802
-45.8353
-48.9293
-52.5314
-55.7863
-54.7697
-38.0041
-40.9918
-40.1822
-38.0151
-36.0848
-36.7018
-37.7993
-37.009
-47.2535
-37.9585
-35.2766
-37.1771
-33.7513
-34.2273
-31.771
-32.5729
-51.2021
-46.315
-33.8203
-73.5398
-50.3932
-53.7543
-58.5043
-75.5069
-48.1083
-51.1598
-55.7779
-54.7903
-46.489
-45.8134
-48.9777
-52.5543
-54.3293
107.653
-61.179
95.2486
-73.3389
-69.0627
173.163
160.229
-140.4
-9.22919
-141.022
-7.93597
-107.57
-107.639
2.97491
2.94475
-65.585
-63.7161
-46.7585
-48.6276
-58.416
-49.2678
-60.0685
-52.5992
-46.3429
-36.1527
-48.1677
-36.5893
-48.965
-49.3852
-35.7331
-36.2231
-32.4114
-27.9965
-32.0882
-27.8277
-33.4441
-33.6503
-24.3958
-24.3041
-47.6234
-43.1004
-37.3869
-39.0649
-39.4665
-46.6315
-39.9482
-43.2938
-47.1191
24.8456
-46.9863
25.0175
-36.3003
-36.3051
79.4309
79.6386
-61.2039
-34.9596
-50.6022
-33.5936
-53.6205
-64.8252
-26.4333
-21.6716
-39.7026
-38.3655
-39.6994
-38.3536
-40.3779
-40.3773
-37.3017
-37.3272
-45.1865
-45.2928
-48.2068
-54.1362
-44.7481
-45.3119
-49.8829
-45.8133
-54.3205
107.622
-61.2609
95.3104
-73.3596
-69.1151
160.254
173.21
-65.2798
-63.6898
-46.7399
-48.6175
-58.2288
-49.3473
-60.0621
-52.5964
-46.1552
-35.9834
-48.0238
-36.4501
-49.2376
-48.8064
-35.5826
-36.0988
-47.6429
-42.9924
-36.8004
-38.9469
-39.463
-46.5725
-39.8635
-43.1632
-61.2
-34.9493
-50.6008
-33.5718
-64.8264
-53.58
-21.672
-26.4348
-45.1542
-45.2937
-48.1715
-54.1277
-45.2639
-44.7129
-45.8118
-49.8751
-35.5485
-35.1396
-35.9891
-34.7299
-36.5313
-36.7363
-35.1803
-34.8895
-41.1862
-40.3391
-44.1813
-44.6493
-42.6848
-43.6781
-41.2783
-43.4497
-42.2401
-39.72
-42.2603
-39.7297
-44.0625
-44.0557
-38.8314
-38.8361
-36.977
-36.0248
-40.5705
-40.4797
-38.2791
-39.9679
-38.6326
-39.8935
-36.2869
-37.1721
-36.2783
-37.1549
-36.0379
-36.0403
-37.6067
-37.5971
-56.0442
-65.084
-52.2677
-58.4757
-49.6992
-53.2876
-69.9867
-64.9197
20.597
-13.7014
20.6558
-13.6978
30.5249
30.5843
-39.5558
-39.3454
-70.8372
-65.1505
-70.8325
-65.15
-73.1451
-73.1418
-62.1987
-62.1914
-35.5467
-35.1347
-35.9837
-34.7173
-36.5283
-36.7344
-35.1774
-34.8844
-41.1741
-40.3277
-44.1683
-44.6371
-43.6665
-42.6746
-41.2676
-43.4385
-37.0041
-36.1659
-40.5493
-40.4161
-39.9642
-38.2883
-38.2898
-39.7729
-56.0935
-65.0581
-52.2991
-58.4504
-53.2862
-49.7166
-64.8881
-69.9611
-67.2784
-69.0734
-59.9565
-51.1363
-52.6284
-63.1227
-48.3335
-48.5976
-67.2745
-69.0709
-59.9514
-51.1194
-63.1362
-52.5706
-48.5808
-48.3241
-69.9274
-69.9441
-64.0013
-55.772
-64.0363
-55.7951
-53.1004
-53.0907
-15.4899
-15.4955
-11.1277
0.116672
0.115748
-11.1276
8.35875
8.36343
203.363
198.362
180.153