# vtk DataFile Version 2.0
tet_velo
ASCII
DATASET UNSTRUCTURED_GRID
POINTS 29498 float
-0.861281 0.135 -1.885
-0.685 0.275 2.10592
-0.735 0.665 -1.96252
-0.615 0.965 2.06567
0.861284 0.135 -1.885
0.685 0.275 2.10578
0.735 0.665 -1.96252
0.615 0.965 2.06567
-0.835516 0.148671 -0.554693
-0.803294 0.168799 0.775614
-0.804572 0.874572 -0.61979
-0.753029 0.963029 0.72294
0.835519 0.148671 -0.55474
0.80331 0.168785 0.77552
0.804568 0.874568 -0.61979
0.753037 0.963037 0.72294
-1.67215 -0.285359 -2.92251
-1.66653 -0.210985 -1.8533
-1.63443 -0.193511 -0.523317
-1.56683 -0.183909 0.804167
-1.46994 -0.111278 2.13394
-1.44844 -0.0533448 3.20212
-1.45879 -0.00215014 4.27221
-1.667 0.0323246 -2.9568
-1.66182 0.128025 -1.88623
-1.63345 0.168356 -0.553822
-1.55003 0.183573 0.777469
-1.41893 0.251782 2.10964
-1.41506 0.308383 3.178
-1.44096 0.359483 4.24768
-1.61348 0.634104 -3.02886
-1.57794 0.727595 -1.95881
-1.59582 0.883461 -0.617934
-1.50871 0.951989 0.723826
-1.3687 0.972768 2.06447
-1.38748 1.02639 3.13233
-1.42844 1.08275 4.20003
-1.56764 1.65929 -3.1276
-1.55108 1.76727 -2.05568
-1.54939 1.93016 -0.71077
-1.52856 2.04814 0.636821
-1.48766 2.10544 1.9816
-1.4706 2.14372 3.05327
-1.47214 2.18924 4.12232
-0.863902 -0.282493 -2.92172
-0.852665 -0.204965 -1.85214
-0.831798 -0.202962 -0.523491
-0.805433 -0.194513 0.802567
-0.742898 -0.101383 2.13116
-0.728198 -0.0469465 3.20023
-0.735382 1.61424e-08 4.2711
-0.868495 0.0280956 -2.95656
-0.706036 0.315432 3.17644
-0.724597 0.361419 4.24684
-0.824459 0.606872 -3.03041
-0.685042 1.02487 3.13257
-0.717618 1.08189 4.20006
-0.777762 1.64111 -3.12912
-0.760542 1.7504 -2.05736
-0.770159 1.92632 -0.711788
-0.77614 2.05213 0.636932
-0.759876 2.10665 1.98246
-0.748238 2.14286 3.05412
-0.747219 2.18813 4.12293
0.791011 -0.282494 -2.92173
0.836692 -0.204965 -1.85215
0.823159 -0.202964 -0.523535
0.778382 -0.194523 0.802486
0.698701 -0.101387 2.13105
0.694057 -0.0469491 3.20014
0.701601 -2.42563e-06 4.27104
0.775762 0.028095 -2.95656
0.679238 0.315431 3.17635
0.693451 0.361417 4.24678
0.743758 0.606872 -3.03041
0.655823 1.02487 3.13253
0.683564 1.08189 4.20002
0.794211 1.64111 -3.12913
0.806694 1.7504 -2.05737
0.789631 1.92632 -0.7118
0.736265 2.05213 0.636917
0.691176 2.10665 1.98244
0.686892 2.14286 3.05409
0.69588 2.18813 4.1229
1.61346 -0.285361 -2.92254
1.65527 -0.210987 -1.85333
1.63581 -0.193516 -0.523391
1.56258 -0.183922 0.804036
1.45746 -0.111287 2.13377
1.4302 -0.0533506 3.20197
1.4346 -0.00215554 4.27209
1.60197 0.0323229 -2.95682
1.65875 0.128023 -1.88625
1.64156 0.168353 -0.553885
1.56345 0.183561 0.777348
1.43321 0.251775 2.10947
1.40737 0.308378 3.17786
1.42056 0.359478 4.24756
1.56187 0.634103 -3.02888
1.58253 0.727593 -1.95882
1.60725 0.883458 -0.617957
1.52155 0.951991 0.723781
1.3814 0.972765 2.0644
1.37722 1.02639 3.13225
1.40532 1.08275 4.19994
1.58327 1.65928 -3.12762
1.5912 1.76727 -2.0557
1.57073 1.93016 -0.710797
1.50474 2.04814 0.636786
1.4392 2.10544 1.98156
1.42302 2.14372 3.05321
1.42947 2.18923 4.12225
-0.824822 0.4 -1.95044
1.51992e-06 0.134122 -1.88588
-0.860075 0.130159 -1.21985
-0.715158 0.62 2.15095
0 0.278749 2.1021
-0.766452 0.199595 1.44077
0 0.768277 -2.0658
-0.802306 0.802306 -1.29116
0 1.00446 2.10513
-0.713249 0.993249 1.39431
0.824865 0.4 -1.95048
0.860133 0.130104 -1.21987
0.715258 0.62 2.15098
0.766412 0.199635 1.44065
0.802125 0.802125 -1.29116
0.713239 0.993239 1.39431
-0.823366 0.154774 0.11046
-0.883668 0.511621 -0.587242
1.15421e-06 0.118559 -0.554717
-0.882177 0.565914 0.749277
7.79014e-06 0.136057 0.775567
-0.790706 0.930706 0.051575
-2.11788e-06 1.15896 -0.61979
3.88805e-06 1.38274 0.72294
0.823572 0.15457 0.11039
0.883845 0.511619 -0.587265
0.882183 0.565911 0.74923
0.790725 0.930725 0.051575
-0.881239 0.455811 -1.2555
-0.891572 0.538768 0.0810175
-0.896025 0.592957 1.41754
1.33706e-06 0.0956441 -1.21986
4.47217e-06 0.127243 0.110425
3.89507e-06 0.142845 1.44071
7.59959e-07 0.4 -2.28897
0 0.62 2.30019
-1.05894e-06 0.947255 -1.29116
8.85084e-07 1.38383 0.051575
1.94402e-06 1.21677 1.39431
0.881239 0.45581 -1.25551
0.891574 0.538765 0.0809825
0.896026 0.592955 1.41748
-1.26155 0.131513 -1.88561
-0.856973 -0.0349824 -1.86857
-0.864888 0.0815478 -2.42078
-1.05197 0.263391 2.10778
-0.713949 0.0868083 2.11854
-0.695518 0.295216 2.64118
-1.15647 0.696298 -1.96066
-0.77973 0.635936 -2.49646
-0.747771 1.2077 -2.00994
-0.991852 0.968884 2.06507
-0.650021 0.994935 2.59912
-0.687438 1.53583 2.02406
0.848988 -0.0349826 -1.86858
0.818523 0.0815475 -2.42078
1.26002 0.131512 -1.88562
0.69185 0.0868065 2.11841
0.682119 0.295215 2.64107
1.0591 0.263387 2.10763
0.739379 0.635936 -2.49647
0.770847 1.2077 -2.00994
1.15876 0.696297 -1.96067
0.635412 0.994935 2.5991
0.653088 1.53583 2.02405
0.998199 0.968883 2.06504
-1.23448 0.158513 -0.554258
-0.833657 -0.0271454 -0.539092
-1.17666 0.176186 0.776541
-0.804363 -0.0128568 0.78909
-1.20019 0.879016 -0.618862
-0.787366 1.40044 -0.665789
-1.13087 0.957509 0.723383
-0.764584 1.50758 0.679936
0.829339 -0.0271465 -0.539138
1.23854 0.158512 -0.554313
0.790846 -0.0128689 0.789003
1.18338 0.176173 0.776434
0.7971 1.40044 -0.665795
1.20591 0.879013 -0.618874
0.744651 1.50759 0.679928
1.13729 0.957514 0.723361
-1.66934 -0.248172 -2.38791
-1.66957 -0.126517 -2.93966
-1.26802 -0.283926 -2.92212
-1.65048 -0.202248 -1.18831
-1.66417 -0.0414801 -1.86976
-1.2596 -0.207975 -1.85272
-1.60063 -0.18871 0.140425
-1.63394 -0.0125778 -0.538569
-1.23311 -0.198237 -0.523404
-1.51839 -0.147594 1.46905
-1.55843 -0.000168006 0.790818
-1.18613 -0.189211 0.803367
-1.45919 -0.0823114 2.66803
-1.44444 0.070252 2.12179
-1.10642 -0.106331 2.13255
-1.45362 -0.0277475 3.73717
-1.43175 0.127519 3.19006
-1.08832 -0.0501456 3.20117
-1.44988 0.178666 4.25995
-1.09709 -0.00107506 4.27166
-1.66441 0.0801748 -2.42151
-1.64024 0.333214 -2.99283
-1.26775 0.0302101 -2.95668
-1.64763 0.148191 -1.22002
-1.61988 0.42781 -1.92252
-1.59174 0.175964 0.111823
-1.61463 0.525908 -0.585878
-1.48448 0.217677 1.44355
-1.52937 0.567781 0.750647
-1.41699 0.280082 2.64382
-1.39382 0.612275 2.08705
-1.42801 0.333933 3.71284
-1.40127 0.667388 3.15517
-1.06055 0.311908 3.17722
-1.4347 0.721117 4.22385
-1.08278 0.360451 4.24726
-1.59571 0.68085 -2.49384
-1.59056 1.1467 -3.07823
-1.21897 0.620488 -3.02964
-1.58688 0.805528 -1.28837
-1.56451 1.24743 -2.00724
-1.55226 0.917725 0.0529457
-1.57261 1.40681 -0.664352
-1.43871 0.962378 1.39415
-1.51863 1.50007 0.680323
-1.37809 0.99958 2.5984
-1.42818 1.53911 2.02303
-1.40796 1.05457 3.66618
-1.42904 1.58506 3.0928
-1.03626 1.02563 3.13245
-1.45029 1.63599 4.16117
-1.07303 1.08232 4.20005
-1.55936 1.71328 -2.59164
-1.1727 1.6502 -3.12836
-1.55024 1.84872 -1.38322
-1.15581 1.75884 -2.05652
-1.53898 1.98915 -0.0369744
-1.15978 1.92824 -0.711279
-1.50811 2.07679 1.30921
-1.15235 2.05014 0.636876
-1.47913 2.12458 2.51744
-1.12377 2.10605 1.98203
-1.47137 2.16648 3.58779
-1.10942 2.14329 3.05369
-1.10968 2.18868 4.12263
-0.858283 -0.243729 -2.38693
-0.866198 -0.127199 -2.93914
-0.0364453 -0.282494 -2.92172
-0.842231 -0.203963 -1.18781
-0.00798664 -0.204965 -1.85215
-0.818615 -0.198737 0.139538
-0.00431941 -0.202963 -0.523513
-0.774165 -0.147948 1.46686
-0.0135253 -0.194518 0.802526
-0.735548 -0.074165 2.66569
-0.0220985 -0.101385 2.1311
-0.73179 -0.0234733 3.73567
-0.717117 0.134243 3.18833
-0.0170701 -0.0469478 3.20018
-0.72999 0.180709 4.25897
-0.0168908 -1.20474e-06 4.27107
-0.846477 0.317484 -2.99348
-0.0463663 0.0280953 -2.95656
-0.715316 0.338426 3.71164
-0.695539 0.670152 3.1545
-0.0133989 0.315432 3.17639
-0.721108 0.721655 4.22345
-0.015573 0.361418 4.24681
-0.801111 1.12399 -3.07977
-0.0403504 0.606872 -3.03041
-0.70133 1.05338 3.66631
-0.71664 1.58387 3.09334
-0.0146096 1.02487 3.13255
-0.732418 1.63501 4.1615
-0.017027 1.08189 4.20004
-0.769152 1.69576 -2.59324
0.00822441 1.64111 -3.12913
-0.765351 1.83836 -1.38457
0.023076 1.7504 -2.05736
-0.77315 1.98923 -0.0374283
0.009736 1.92632 -0.711794
-0.768008 2.07939 1.30969
-0.019937 2.05213 0.636924
-0.754057 2.12476 2.51829
-0.0343498 2.10665 1.98245
-0.747728 2.1655 3.58852
-0.0306732 2.14286 3.0541
-0.0256692 2.18813 4.12292
0.813851 -0.24373 -2.38694
0.783387 -0.1272 -2.93915
1.20223 -0.283928 -2.92213
0.829925 -0.203964 -1.18784
1.24598 -0.207976 -1.85274
0.800771 -0.198743 0.139475
1.22948 -0.19824 -0.523463
0.738542 -0.147955 1.46677
1.17048 -0.189222 0.803261
0.696379 -0.0741681 2.66559
1.07808 -0.106337 2.13241
0.697829 -0.0234758 3.73559
0.686648 0.134241 3.18825
1.06213 -0.0501499 3.20106
0.697526 0.180707 4.25891
1.0681 -0.00107898 4.27156
0.75976 0.317484 -2.99349
1.18887 0.030209 -2.95669
0.686345 0.338424 3.71157
0.667531 0.67015 3.15444
1.0433 0.311904 3.1771
0.688508 0.721653 4.2234
1.05701 0.360447 4.24717
0.768985 1.12399 -3.07977
1.15282 0.620487 -3.02964
0.669694 1.05338 3.66627
0.671358 1.58387 3.09331
1.01652 1.02563 3.13239
0.689722 1.63501 4.16146
1.04444 1.08232 4.19998
0.800452 1.69575 -2.59325
1.18874 1.6502 -3.12838
0.798163 1.83836 -1.38458
1.19895 1.75884 -2.05653
0.762948 1.98923 -0.0374415
1.18018 1.92824 -0.711298
0.713721 2.07939 1.30968
1.1205 2.05014 0.636851
0.689034 2.12476 2.51826
1.06519 2.10605 1.982
0.691386 2.16549 3.58849
1.05496 2.14329 3.05365
1.06268 2.18868 4.12258
1.63437 -0.248174 -2.38794
1.60771 -0.126519 -2.93968
1.64554 -0.202251 -1.18836
1.65701 -0.041482 -1.86979
1.5992 -0.188719 0.140322
1.63868 -0.0125812 -0.538638
1.51002 -0.147604 1.4689
1.56302 -0.000180251 0.790692
1.44383 -0.0823187 2.66787
1.44533 0.0702439 2.12162
1.4324 -0.0277531 3.73703
1.41879 0.127514 3.18991
1.42758 0.178661 4.25982
1.63036 0.0801731 -2.42153
1.58192 0.333213 -2.99285
1.65015 0.148188 -1.22007
1.62064 0.427808 -1.92253
1.6025 0.175957 0.111732
1.6244 0.525906 -0.585921
1.49833 0.217668 1.44341
1.5425 0.567776 0.750565
1.42029 0.280076 2.64366
1.4073 0.61227 2.08694
1.41397 0.333928 3.71271
1.3923 0.667384 3.15505
1.41294 0.721113 4.22375
1.5722 0.680848 -2.49385
1.57257 1.14669 -3.07825
1.59489 0.805525 -1.28839
1.58686 1.24743 -2.00726
[...]
POINT_DATA 29498
VECTORS point_vectors float
-5.09619 -4.18496 17.4804
0.197128 0.21481 0.864393
-1.46795 0.964787 2.21127
-0.163415 -0.149879 0.164922
5.76849 -4.84348 20.041
-0.198531 0.216395 0.877053
1.46771 0.964336 2.21257
0.161696 -0.147939 0.16067
0.120105 -0.0834098 1.49004
0.00283082 0.00236303 0.189509
-0.00199027 -0.00123449 0.0129403
0 0 0
-0.11393 -0.0824171 1.48694
-0.00444565 0.00225779 0.208198
0.00192564 -0.00119972 0.0124759
0 0 0
-0.657336 -0.321163 20.0086
-1.03467 -0.616263 20.7503
-0.331106 -0.368203 21.393
0.192281 -0.0931342 21.5872
0.799512 0.191923 21.4563
1.05205 0.231746 21.1286
0.968767 0.08314 20.6909
-0.770315 -0.237787 19.9076
-1.39581 -0.527385 20.6957
-0.518884 -0.446847 21.4341
0.160502 -0.258043 21.6661
1.06374 -0.073389 21.5259
1.29204 -0.080585 21.2264
1.11479 -0.039579 20.9641
-0.828588 0.0258753 19.7387
-1.86707 0.0904868 20.4636
-1.13182 -0.282055 21.4215
-0.245346 -0.40863 21.751
0.566985 -0.765819 21.5703
0.882895 -0.832984 21.2925
0.739504 -0.62688 20.6707
-0.500989 0.332226 19.9286
-0.896902 0.602519 20.3138
-0.859875 0.450833 21.0485
-0.378918 0.047868 21.4404
0.028199 -0.265845 21.4146
0.216678 -0.435762 21.2411
0.249911 -0.561779 20.7044
-0.820152 -0.945399 19.3746
-1.55017 -2.53149 21.5214
-0.172381 -0.30333 21.687
0.188388 0.252622 20.8792
0.763733 1.26952 19.0387
1.20386 1.51245 18.4383
1.07824 1.06121 18.6398
-1.08374 -0.779985 18.911
1.98454 1.27962 10.5558
2.10138 0.956853 13.7146
-1.14807 0.141981 18.6151
0.25899 -0.884001 6.98332
1.00561 -1.26662 12.2721
-0.444918 0.652411 19.5487
-0.920465 1.51736 20.0124
-1.12141 1.48977 21.0596
-0.419672 0.346694 21.8168
-0.0705865 -0.282418 21.441
0.0591257 -0.513248 21.1899
0.0557723 -0.400052 21.5422
0.814534 -0.995843 19.3217
1.53299 -2.56745 21.545
0.161987 -0.302792 21.7087
-0.17633 0.259679 20.7713
-0.670661 1.27564 18.8864
-1.10672 1.50528 18.1512
-1.0436 1.15073 18.4541
1.06694 -0.823251 18.8002
-1.90859 1.24931 9.98364
-2.15049 1.06942 12.9605
1.12524 0.161868 18.4315
-0.181934 -0.823103 5.88004
-0.952416 -1.2479 11.1915
0.450841 0.644 19.5587
0.946082 1.43871 20.0375
1.12661 1.45189 21.0634
0.41378 0.376857 21.8325
0.0825344 -0.261038 21.457
-0.0426307 -0.488296 21.1733
-0.0768506 -0.40261 21.6568
0.687818 -0.358756 19.9777
1.04963 -0.620503 20.7515
0.343166 -0.37314 21.3835
-0.187311 -0.0927932 21.583
-0.796272 0.202794 21.4614
-1.06246 0.240176 21.11
-0.969969 0.109196 20.7356
0.818066 -0.262541 19.8681
1.39091 -0.536684 20.7071
0.51949 -0.446629 21.432
-0.155259 -0.256825 21.6533
-1.03749 -0.0825651 21.5285
-1.29392 -0.0718451 21.2238
-1.1186 -0.0188183 20.9937
0.853856 0.0331394 19.7004
1.85236 0.0885531 20.4689
1.11662 -0.275879 21.4195
0.238284 -0.394297 21.745
-0.562573 -0.745821 21.5351
-0.88992 -0.841344 21.2876
-0.767232 -0.65504 20.5715
0.497591 0.330041 19.9367
0.87234 0.572308 20.3319
0.840621 0.437198 21.0458
0.381995 0.0504889 21.4477
-0.0126417 -0.281927 21.4086
-0.210846 -0.43168 21.2012
-0.191205 -0.575898 20.8027
-0.777076 -0.138607 1.21944
0 0 0
0.0123987 -0.114103 3.69824
-0.0289272 -0.173198 0.0892245
0 0 0
0.008351 0.00329112 0.128653
-0.000441757 0.138843 0.375489
-0.0135833 -0.00808122 0.0400679
-0.000510442 0.0099301 -0.0368693
0 0 0
0.783753 -0.151045 1.23197
0.0156018 -0.121713 3.76242
0.0291564 -0.17686 0.0913547
-0.00362196 0.000896246 0.117904
0.00929797 -0.0055278 0.027455
0 0 0
0.00562052 0.0099578 0.566579
-0.000152992 -0.000176029 0.00672121
-9.96356e-05 0.000418431 0.0336069
0.000241906 0.00222812 0.018082
0 0 0
0 0 0
0.00409155 0.0838031 0.162386
-2.2152e-05 -0.00319476 0.0475405
-0.00776579 0.00358921 0.56979
0.000254661 -0.000289499 0.0109594
-0.000242812 0.00218538 0.0179941
-1.33754e-17 2.19611e-17 1.3061e-16
0 0 0
5.26285e-05 0.00286221 0.0275358
0.00649226 0.0108431 0.131073
0.000666 -0.00183314 0.0435175
0.000281029 -4.51698e-05 0.0683907
0 0 0
1.7239e-05 -0.518848 0.244178
-0.0101256 -0.215994 0.130718
3.60759e-07 0.00100708 0.00965803
-1.95552e-05 0.0102326 0.13009
0.000196209 0.00192645 -0.00488446
0 0 0
-5.31677e-05 0.00287082 0.0276318
-0.00656994 0.0110079 0.131853
-2.51242 -1.26826 20.9992
-2.46311 -3.67204 22.0242
-2.7541 -2.20881 18.3612
1.61962 0.483687 17.3173
0.781588 1.31276 12.2975
1.35085 0.783876 7.31181
-3.92887 0.598043 20.3635
-3.34414 0.987559 16.8976
-2.2596 2.80387 19.725
0.750371 -0.757897 16.3046
-0.703831 -0.851822 3.42825
-0.125204 -0.549394 19.8771
2.41861 -3.71076 22.0284
2.83133 -2.4806 18.1305
2.51337 -1.27326 20.9898
-0.676218 1.28938 11.8651
-1.27862 0.74859 7.02307
-1.60463 0.461492 17.507
3.37955 1.08031 16.5749
2.28686 2.68806 19.7414
3.90659 0.586558 20.3651
0.794517 -0.81658 2.92902
0.103709 -0.51497 19.3863
-0.753497 -0.761231 16.6095
-0.398846 -0.791476 21.7274
0.288304 -0.0698108 16.8637
0.403984 -0.221374 20.4682
0.307 0.340681 15.5228
-1.97555 -0.765001 21.6543
-2.98244 2.04894 21.115
-0.252714 -0.567412 20.2121
-0.843383 0.105376 21.8159
-0.276533 -0.0667775 16.8267
0.40949 -0.78171 21.728
-0.301035 0.348802 15.3199
-0.39987 -0.23385 20.6109
2.96516 1.99012 21.1284
1.95728 -0.751884 21.6522
0.81135 0.124029 21.5483
0.266196 -0.578003 20.3334
-0.94438 -0.519186 20.2625
-0.718928 -0.292874 19.9493
-0.804039 -0.55143 19.7691
-0.674122 -0.504408 21.2322
-1.23857 -0.578962 20.7277
-1.47851 -1.23712 20.9523
-0.0739974 -0.239239 21.5284
-0.433219 -0.427646 21.4207
-0.237517 -0.469811 21.6099
0.479514 0.0527695 21.5827
0.170182 -0.184167 21.5944
0.290233 -0.00101636 21.6899
0.935389 0.252404 21.3754
0.948884 0.0854876 21.5361
1.06917 0.683646 21.2097
1.0369 0.192413 20.9938
1.20267 0.0811974 21.2922
1.43662 0.81968 20.7678
1.10029 -0.00702369 20.8225
1.1025 0.492529 21.2655
-1.1817 -0.404694 20.1202
-0.825998 -0.108841 19.7996
-1.00839 -0.429215 19.5392
-0.951072 -0.50152 21.2587
-1.72555 -0.239954 20.5899
-0.189029 -0.373835 21.5826
-0.8059 -0.464116 21.4503
0.56589 -0.160011 21.7372
-0.00476703 -0.398105 21.7607
1.24978 -0.058112 21.3124
0.999898 -0.516258 21.4461
1.45126 -0.15195 20.8424
1.24689 -0.534291 21.2073
1.95153 0.353386 18.5146
1.07954 -0.521444 20.6116
1.60291 0.0208157 19.5202
-1.38481 0.0805109 19.8816
-0.70904 0.258227 19.8031
-1.07475 0.0879777 19.2945
-1.51521 -0.128145 21.1646
-1.3715 0.549612 20.321
-0.717602 -0.352843 21.6798
-1.19088 0.216842 21.2345
0.21632 -0.537934 21.7461
-0.432305 -0.150367 21.6313
0.712771 -0.810865 21.3752
0.127529 -0.493658 21.4413
0.929236 -0.745838 20.911
0.370126 -0.604759 21.0897
1.075 -0.980798 19.2873
0.302198 -0.616557 20.9195
1.32751 -1.33449 19.2581
-0.708471 0.47431 20.0569
-0.535528 0.492146 19.7371
-0.934911 0.565492 20.7121
-0.995068 1.01102 20.1789
-0.672871 0.253965 21.3789
-1.07504 0.84749 21.1059
-0.145123 -0.14174 21.4149
-0.450981 0.183892 21.6065
0.107766 -0.382573 21.2173
-0.0351185 -0.321036 21.4228
0.16555 -0.329968 21.1696
0.129168 -0.47753 20.9429
0.00448964 -0.382914 21.4174
-1.52995 -2.01336 19.6484
-0.936188 -0.858034 19.1534
-0.0535095 -1.51059 18.8421
-0.635398 -0.891467 22.2103
-0.00494041 -3.09793 22.2918
0.0406514 -0.0304704 21.2146
0.00109666 -0.261109 20.3565
0.454443 0.693411 19.9928
0.0123668 0.107411 19.1163
0.981324 1.45251 19.0906
-0.00658388 1.08123 16.4277
1.1953 1.51803 19.0194
1.66473 1.63965 15.5753
0.000465059 1.47868 16.1132
1.50948 1.20654 16.4164
0.0273056 2.15747 16.5515
-1.18592 -0.354867 18.617
-0.0948486 -1.34009 17.8893
2.18526 1.01801 11.9381
1.69239 -0.426271 6.7326
0.0132143 0.896519 3.46525
2.19185 0.240667 12.802
0.0804964 2.20198 9.29436
-0.780397 0.632581 19.0904
-0.0929171 0.277385 17.4852
0.665727 -0.988501 9.67827
0.0402225 -0.977892 20.2442
0.0585974 1.77206 -7.04352
0.0583026 -1.08522 19.7107
0.025861 1.18887 -4.28107
-0.720039 1.12786 19.6212
0.00438418 0.852909 19.31
-1.05225 1.53056 20.5482
0.0372041 2.14917 19.8171
-0.894421 1.04411 21.7004
0.0234721 2.41936 20.9154
-0.174602 -0.0947899 21.6813
-0.0122901 0.690754 21.9933
-0.0289378 -0.390814 21.3645
-0.00541508 -0.154757 21.5737
0.0796644 -0.605729 20.9876
-0.00352381 -0.407608 21.1496
-6.286e-05 -0.360269 21.7109
1.5031 -2.12932 19.6351
0.900373 -0.940939 19.0452
0.797493 -0.593126 19.7226
0.621377 -0.895574 22.2092
1.48842 -1.29056 20.9619
-0.0420161 -0.0300118 21.0854
0.238568 -0.477762 21.6096
-0.419788 0.694863 19.8022
-0.293698 0.00511943 21.6935
-0.906171 1.48049 18.9296
-1.05055 0.733574 21.1252
-1.15483 1.57571 18.7995
-1.57904 1.62928 15.3011
-1.44991 0.868659 20.7516
-1.46788 1.28872 16.2302
-1.13279 0.54176 21.2796
1.15843 -0.379011 18.4068
1.01946 -0.491783 19.4398
-2.20395 1.07917 11.2558
-1.60059 -0.393746 6.0162
-1.97076 0.403374 18.2473
-2.14115 0.244467 11.7963
-1.63317 0.07151 19.2004
0.77249 0.647313 19.0508
1.09124 0.0860784 19.1989
-0.589768 -0.956646 8.5329
0.0225177 -0.94346 19.8216
-1.07841 -1.00447 19.071
-0.0524352 -1.11954 19.4384
-1.328 -1.36542 19.1747
0.731181 1.0908 19.6444
0.535714 0.482496 19.7471
1.06508 1.49682 20.5518
0.994128 0.958297 20.198
0.894638 1.06277 21.7035
1.06839 0.820674 21.108
0.17704 -0.0768795 21.6803
0.456546 0.198292 21.6117
0.0419852 -0.368437 21.3628
0.0352586 -0.313355 21.4289
-0.056553 -0.60848 20.9821
-0.13316 -0.472964 20.9841
-0.020767 -0.418378 21.4243
0.969612 -0.541344 20.2588
0.748317 -0.318994 19.9144
0.68414 -0.507363 21.2285
1.24456 -0.586644 20.7311
0.0835964 -0.244771 21.5248
0.435353 -0.434265 21.4148
-0.481978 0.0528671 21.5935
-0.168448 -0.188084 21.5816
-0.93713 0.26156 21.3844
-0.938904 0.0841103 21.536
-1.06608 0.197507 20.9548
-1.20631 0.0872799 21.3089
-1.10609 0.0204721 20.8688
1.2232 -0.437522 20.1182
0.865833 -0.124397 19.7552
0.946908 -0.504072 21.2615
1.72329 -0.243288 20.5999
0.188892 -0.37099 21.5799
0.800308 -0.462033 21.4539
-0.552726 -0.161251 21.725
0.00750039 -0.392446 21.7503
-1.23913 -0.0609791 21.3108
-0.970129 -0.508562 21.4503
-1.49538 -0.127497 20.7973
-1.25127 -0.552586 21.2067
-1.11902 -0.558317 20.5261
1.43285 0.0859415 19.8688
0.712608 0.259314 19.801
1.5009 -0.124133 21.1623
1.34463 0.526967 20.3327
0.711792 -0.348103 21.672
1.16684 0.213598 21.2327
-0.207456 -0.527767 21.7342
0.433371 -0.151603 21.6422
-0.709602 -0.808726 21.3688
-0.114724 -0.4985 21.4574
-0.924124 -0.763589 20.8465
-0.370931 -0.637436 21.1137
-0.329858 -0.620146 21.0355
0.704089 0.464803 20.0674
0.912514 0.547101 20.7133
0.677364 0.252715 21.3804
0.143775 -0.143296 21.4366
-0.0883456 -0.363318 21.2131
-0.147757 -0.364039 21.176
-1.08098 -0.464752 20.184
-2.11413 -2.31356 19.0858
-1.30619 -1.01093 20.0596
-1.92313 -0.859944 19.6984
-0.889444 -0.498602 19.6678
-1.92078 -1.30502 20.9956
-0.82458 -0.520883 21.2458
-0.445794 -0.520441 19.6559
-0.70409 -0.75582 21.5528
-1.04138 -0.921514 21.8058
-0.26026 -0.598455 21.6521
-0.136897 -0.321951 21.548
0.352538 0.0811453 15.9444
0.033011 -0.253832 21.6645
0.00906101 -0.526553 21.2095
0.398169 -0.0927131 21.4306
0.513716 -0.0513753 21.6366
0.537539 0.623491 13.7624
0.644063 0.302672 21.6832
0.83892 0.103385 19.0354
1.41699 0.657748 20.1373
1.16448 0.139984 21.314
1.13057 1.44922 13.73
1.28649 0.783193 20.8606
1.85159 0.40367 18.387
1.60672 0.676668 19.9384
1.32258 0.0569404 20.7945
1.69408 1.29343 15.4392
1.46366 0.827462 20.8609
2.02782 0.242986 18.9449
1.27431 0.406977 20.0815
-1.36404 -0.182998 19.9648
-3.62661 -0.933347 16.9678
-2.32724 0.303489 19.0919
-1.10012 -0.220087 19.354
-3.70973 -0.648632 20.7829
-1.27547 -0.390056 21.2585
-2.37848 -0.365143 21.6645
-0.927431 -1.013 21.5576
-0.409503 -0.462992 21.6471
-1.14713 -0.84047 21.2963
0.237016 -0.360203 19.1753
0.463587 -0.417007 21.742
0.460552 -0.401148 18.6139
1.42061 -0.287714 14.8146
1.19387 -0.568592 21.2918
0.451007 -0.906248 3.31337
0.764148 -0.983844 18.1528
1.81505 -0.533549 17.5564
1.17603 -0.564619 21.2565
2.11634 0.0322561 9.54958
1.15138 -1.28979 19.6979
1.68905 -0.741875 18.9066
-1.08231 0.436777 19.9342
-1.5658 1.58605 18.7753
-0.800342 0.793941 19.8528
-0.8144 0.42002 19.4816
-1.97245 1.29084 20.1137
-1.3578 0.39807 20.867
-2.29243 2.05469 20.6553
-1.09781 0.975091 20.6694
-1.91904 0.618566 21.3363
-0.85877 0.0242102 21.5596
-2.33171 0.962812 22.4334
-0.832628 0.55943 21.5146
-0.634575 -0.108399 21.9667
-0.0814319 -0.341216 21.5944
-0.173969 -0.432477 20.712
-0.188847 -0.133185 21.5772
-0.0222373 -0.622168 21.5863
0.260202 -0.575234 21.329
-0.109869 -0.672433 20.2441
0.0439803 -0.40231 21.2625
0.185488 -0.776632 21.6585
0.477317 -0.531388 20.9508
0.258024 -1.02533 19.3784
0.184477 -0.575234 21.3703
0.148282 -0.737905 21.6279
2.09921 -2.49958 18.9925
-0.0517287 -3.68462 19.3962
-0.143757 -6.72589 15.4058
-0.0658852 -1.42162 18.3835
0.0142686 -2.9886 21.3951
0.43452 -0.526045 19.5496
0.00212906 -1.08832 22.0709
0.00416051 0.0468266 11.7873
-0.33815 0.084001 15.8219
0.00534464 -0.0559976 19.4463
0.0231549 0.0676083 10.8952
-0.510359 0.571879 13.4403
0.010308 0.55542 17.6921
-0.0367976 0.788307 7.1477
-1.02215 1.46997 13.2057
-0.00539086 1.31617 16.4109
-0.0149194 -0.106745 1.71053
-0.00603294 1.55699 10.0583
-1.66112 1.34487 15.2127
0.00223823 2.14735 16.975
0.0576275 1.09008 4.59751
0.0714344 2.08443 13.8987
3.77352 -1.01903 16.5371
-0.14469 2.86306 12.9242
-0.100131 -0.567977 17.2931
-0.35013 -0.901815 2.91904
-0.00375969 1.19458 -4.93696
0.096706 0.637654 -2.68839
-2.06461 0.1188 8.82275
-0.0197634 1.61537 -6.44396
0.0993648 1.87465 0.602545
1.5624 1.59791 18.7653
0.0144063 1.56405 19.3382
-0.0143124 0.950528 18.5205
0.04974 4.39229 19.3117
2.30152 2.00718 20.665
0.0289179 2.21909 20.3691
0.0253945 4.82208 20.0426
2.34892 0.96764 22.4324
-0.0116822 1.87009 21.9452
-0.0142372 0.606152 20.1735
0.142513 -0.422099 20.34
-0.00753774 0.0576769 21.7578
-0.0168933 -0.127429 13.3594
0.11781 -0.628863 19.7709
-0.00176861 -0.250273 21.3688
-0.0169754 -0.438712 14.991
-0.244469 -1.0084 19.0763
0.00166988 -0.47554 21.5584
-0.0125357 -0.611863 14.5052
1.12422 -0.499847 20.1755
1.34003 -1.08445 20.0189
2.0218 -0.976517 19.577
0.893114 -0.554855 19.5846
1.93898 -1.33393 20.9953
0.825057 -0.526095 21.245
0.703929 -0.773046 21.5558
1.04944 -0.915934 21.7921
0.275723 -0.601647 21.6457
0.1383 -0.325649 21.5476
-0.0350742 -0.25639 21.6639
0.00184349 -0.524945 21.2719
-0.394682 -0.0943322 21.4085
-0.508719 -0.0545275 21.6337
-0.640964 0.323649 21.652
-0.831852 0.0856474 19.1913
-1.40265 0.681842 19.9355
-1.16354 0.139935 21.3139
-1.27214 0.808728 20.8268
-1.84441 0.413798 18.2552
-1.6279 0.736545 19.5974
-1.37941 0.0767895 20.7302
-1.45846 0.879205 20.9065
-2.0037 0.252336 18.904
-1.30855 0.460232 19.7496
1.42574 -0.198281 19.9561
2.4007 0.331327 19.005
1.12898 -0.222955 19.2213
3.69613 -0.65395 20.777
1.26932 -0.387435 21.2608
2.36561 -0.359195 21.6528
0.932143 -1.00221 21.5948
0.406395 -0.457152 21.6496
1.13773 -0.830572 21.3683
-0.234163 -0.387276 19.3793
-0.450956 -0.406548 21.7447
-0.44263 -0.437129 18.8378
-1.42123 -0.28021 15.1444
-1.17659 -0.571021 21.3115
-0.748545 -0.975443 17.9569
-1.84343 -0.546924 17.1051
-1.18529 -0.553111 21.2545
-1.16644 -1.30406 19.4684
-1.72554 -0.690378 18.5978
1.08017 0.434492 19.9412
0.802957 0.767046 19.8708
0.81481 0.436224 19.4544
1.94727 1.23259 20.1322
1.33273 0.390461 20.8665
1.08506 0.932789 20.6744
1.88961 0.6012 21.3327
0.853727 0.0246997 21.5554
0.834422 0.564253 21.5181
0.641295 -0.10537 21.9756
0.0846043 -0.340902 21.5986
0.191335 -0.123422 21.5909
0.0366315 -0.626407 21.5939
-0.25139 -0.583368 21.3198
-0.0401977 -0.410351 21.2576
-0.185729 -0.794904 21.655
-0.486821 -0.581187 20.9663
-0.185436 -0.600417 21.3634
-0.115749 -0.768836 21.4715
-1.61055 -1.01731 19.8897
-0.84931 -0.836917 21.6621
0.0686186 -0.372268 21.6059
0.828886 0.240916 20.8411
1.61894 0.719662 19.9754
1.77459 0.61079 20.114
-2.38003 -0.409434 19.2152
-1.67034 -0.863477 22.0424
-0.275274 -0.784652 20.4333
0.697495 -0.0216213 17.5508
1.56985 -0.541344 16.0787
1.79719 -0.372834 17.9708
-1.43868 0.881598 19.4684
-1.93995 0.91241 20.8702
-1.39476 0.245699 21.905
-0.168482 -0.413615 21.7908
0.09018 -0.708175 21.4224
0.48347 -1.02263 21.0535
-0.0828608 -5.15875 18.2153
0.0173275 -0.592664 14.7135
0.00747737 0.0505902 11.01
0.00114728 0.351841 9.24669
-0.0236703 0.760144 8.2059
0.0598316 1.69816 10.838
-0.188605 -1.92326 11.5585
-0.00137745 0.167042 -2.03123
0.117371 1.03642 -0.694062
-0.00729991 2.73009 17.8088
0.0299223 3.50243 20.2084
-0.0105753 3.36248 22.2228
-0.0114501 -0.168483 16.1987
-0.0276164 -0.0278393 14.0701
-0.0177874 -0.721699 14.9656
1.6656 -1.09998 19.8479
0.863128 -0.845776 21.6602
-0.056429 -0.375424 21.6001
-0.821352 0.244923 20.733
-1.60173 0.755322 19.7204
-1.75506 0.619909 20.0552
2.49772 -0.430519 19.1149
1.66597 -0.857798 22.0296
0.283499 -0.790103 20.5775
-0.704594 -0.0540643 17.8436
-1.56184 -0.539264 15.8904
-1.81322 -0.356328 17.5128
1.43845 0.883262 19.4667
1.90544 0.883078 20.8713
1.39304 0.245004 21.9015
0.17659 -0.415048 21.8061
-0.0747998 -0.709079 21.4348
-0.446295 -1.04682 21.2605
-1.37661 -0.442985 2.38402
0 0 0
-0.134376 -0.118717 5.42713
0.0575329 -0.0365034 0.0524265
0.00365896 0.0160169 0.0728713
0.022999 0.0689437 0.445486
-0.698577 0.0249173 1.02306
-0.016279 0.183377 0.438669
-0.108436 0.0241424 0.359549
-0.0186454 -0.0902682 0.0208667
-0.0464632 0.00891874 -0.0437707
-0.0122565 -0.0180104 0.0804194
0 0 0
1.35966 -0.493626 2.38383
0.171984 -0.173027 5.61823
-0.00574948 0.0207677 0.0931564
-0.0582552 -0.0370927 0.0524577
-0.0188282 0.0706761 0.444075
0.017458 0.185016 0.442586
0.701996 0.022318 1.027
0.108778 0.024452 0.360329
0.0450901 0.00985499 -0.0460574
0.0190065 -0.0896364 0.0203322
0.0123414 -0.0181899 0.0834657
0.160841 -0.0772849 1.59693
0.0477112 -0.0128907 1.02602
0.00497405 -0.00570088 0.314956
0 0 0
0.012575 0.0125208 0.364959
-0.00771322 0.0206636 0.4549
9.49135e-19 4.27216e-18 1.1018e-16
0 0 0
-0.171093 -0.134244 0.422966
1.03471e-18 -1.33739e-18 -3.41115e-17
0.00379148 0.0128047 0.0787976
-0.0617907 0.0536714 0.13559
0 0 0
0 0 0
0 0 0
0.0195611 -0.00194638 0.123566
-0.150973 -0.0754106 1.59701
0 0 0
-0.0448164 -0.0127984 1.02892
-0.00520314 -0.00648425 0.317184
-0.0149652 0.0111772 0.357512
0 0 0
0.00712744 0.0198276 0.450632
0 0 0
0.172608 -0.136128 0.423723
0.0618718 0.0538199 0.134717
0 0 0
-0.00473747 0.0155185 0.0941154
0 0 0
-0.0195784 -0.0018884 0.123273
0 0 0
0 0 0
0.000153677 -0.00441631 0.0766218
-1.77648 -0.966485 1.24806
9.20261e-07 -4.06069e-06 0.000248164
0 0 0
-0.000137234 -0.000294146 0.0109961
0 0 0
0.0112616 -0.0107102 0.0698337
-0.135391 -0.0923803 0.0434096
0 0 0
-0.000449817 -0.023219 -0.00744828
0 0 0
0 0 0
-0.00179605 1.56985 1.10413
0.0091898 0.284915 0.711667
5.56616e-05 -0.00149478 0.0155422
-0.00408007 0.00219022 0.0167608
0 0 0
0 0 0
0 0 0
-0.00243465 0.00077287 -0.00282396
1.79299 -0.973067 1.25869
-0.000109841 -0.00429848 0.0749111
0 0 0
0.000119414 -0.00033931 0.0111083
0.137674 -0.0965908 0.0446512
-0.0114679 -0.0108139 0.0707825
-0.00906741 0.0130999 0.227881
0 0 0
0.00401006 0.00216508 0.0165384
-5.95526e-05 -0.00148791 0.0156341
0.00238025 0.000781495 -0.00282823
0 0 0
-3.45584e-05 0.000698126 0.0117177
-7.80445e-19 1.30848e-20 -3.54569e-17
-1.01077e-05 -8.01567e-05 0.000595555
-0.00042212 0.00302126 0.0400356
4.34685e-06 0.00036393 0.00483632
-7.4799e-07 3.36918e-07 2.94055e-05
0.00112321 0.00785618 0.0709861
-0.00142047 0.0030832 0.0283898
0 0 0
2.74634e-06 3.80638e-06 0.00035156
0 0 0
-0.100313 0.0894113 1.2223
0 0 0
8.24842e-06 0.156895 0.391091
-1.36738e-06 5.67261e-05 0.00291279
-2.37361e-05 -0.0034992 0.0130191
0 0 0
3.46497e-05 0.00072211 0.0123595
1.19626e-05 -9.59456e-05 0.000706395
0.000423464 0.003021 0.0399811
-0.000621685 0.00464457 0.042517
0.00144543 0.00310225 0.0287281
0.101358 0.0920724 1.24524
0 0 0
-0.000911889 -0.00147358 0.0370765
-0.00379892 -0.00557424 0.0649555
0 0 0
0 0 0
0 0 0
7.1137e-19 1.09663e-17 7.95572e-17
7.18031e-19 5.43178e-18 8.11567e-17
0 0 0
0.000381908 0.00140425 0.0461416
0 0 0
0.00239849 -0.000267809 0.00857673
-1.09926e-18 2.27187e-18 -1.24205e-17
0 0 0
0 0 0
0 0 0
0 0 0
0 0 0
0 0 0
0 0 0
0 0 0
0.00107125 0.000792026 0.0758717
-0.000217521 0.000252082 0.00604621
0.00100063 0.00567978 0.0690068
-0.00160498 0.00619081 0.1016
-2.58684 -4.37434 2.79492