# vtk DataFile Version 2.0
tri_press
ASCII
DATASET UNSTRUCTURED_GRID
POINTS 3682 float
-0.695 0.485 -2.35553
-0.765 0.435 2.32349
-0.726563 0.865 -2.325
-0.725 0.94376 2.315
0.695 0.485 -2.35553
0.765 0.435 2.32349
0.726565 0.865 -2.325
0.725 0.94376 2.315
-0.811822 0.374845 -0.795857
-0.843817 0.349516 0.763817
-0.820915 0.986126 -0.778334
-0.817913 1.0099 0.768334
0.811823 0.374843 -0.795857
0.84386 0.349473 0.763817
0.820929 0.986139 -0.778334
0.817929 1.00991 0.768334
-1.49184 0.189174 -3.60594
-1.50044 0.187633 -2.36341
-1.58888 0.100915 -0.803397
-1.62956 0.0599429 0.75923
-1.58848 0.10564 2.31946
-1.57362 0.127167 3.56307
-1.57742 0.131136 4.80468
-1.48748 0.444604 -3.59535
-1.49367 0.468336 -2.35424
-1.60258 0.398597 -0.796759
-1.63311 0.358513 0.76189
-1.56167 0.394637 2.31962
-1.55601 0.413927 3.56304
-1.56903 0.418146 4.80508
-1.50128 0.906461 -3.57052
-1.51491 0.928746 -2.32887
-1.60951 0.99127 -0.78026
-1.61575 0.990801 0.767431
-1.53459 0.951279 2.31629
-1.54202 0.968146 3.56026
-1.56418 0.983019 4.80439
-1.53636 1.7134 -3.54306
-1.55068 1.75322 -2.30336
-1.58808 1.83402 -0.758961
-1.60838 1.87695 0.78263
-1.59841 1.86564 2.32716
-1.59022 1.85569 3.56714
-1.59098 1.85634 4.80985
-0.725453 0.197425 -3.60678
-0.711303 0.199216 -2.36463
-0.785808 0.0890122 -0.803233
-0.829333 0.0534835 0.760875
-0.801326 0.127278 2.32234
-0.790383 0.142425 3.56502
-0.793907 0.13908 4.80581
-0.724627 0.445721 -3.59561
-0.777324 0.42937 3.56465
-0.78843 0.42545 4.80593
-0.736025 0.881456 -3.56891
-0.766353 0.969427 3.56
-0.786232 0.98509 4.80433
-0.755859 1.6966 -3.54146
-0.761031 1.73749 -2.3016
-0.789974 1.83168 -0.757905
-0.81404 1.88256 0.782504
-0.813768 1.8674 2.32626
-0.808055 1.85523 3.56624
-0.808079 1.85595 4.8092
0.755357 0.197425 -3.60678
0.761453 0.199216 -2.36463
0.819815 0.089007 -0.803233
0.82328 0.0534555 0.760875
0.771632 0.127267 2.32234
0.767893 0.142417 3.56502
0.769115 0.139073 4.80581
0.735345 0.445722 -3.59561
0.760878 0.429365 3.56465
0.76531 0.425443 4.80593
0.742721 0.881458 -3.56891
0.746932 0.969425 3.56
0.758408 0.985085 4.80433
0.788745 1.6966 -3.54146
0.800197 1.73749 -2.3016
0.804108 1.83169 -0.757905
0.782988 1.88256 0.782504
0.757383 1.8674 2.32626
0.753161 1.85523 3.56624
0.755033 1.85594 4.8092
1.51319 0.189175 -3.60594
1.52394 0.187634 -2.36341
1.60558 0.100907 -0.803397
1.63097 0.0599066 0.75923
1.57875 0.105614 2.31946
1.55967 0.12715 3.56307
1.55705 0.13112 4.80468
1.49067 0.444607 -3.59535
1.48662 0.46834 -2.35424
1.59867 0.398597 -0.79676
1.63781 0.358477 0.76189
1.56884 0.394615 2.31962
1.54904 0.413913 3.56304
1.55055 0.418133 4.80508
1.49958 0.906465 -3.57052
1.50497 0.928753 -2.32887
1.60269 0.991285 -0.78026
1.6178 0.990803 0.767431
1.53953 0.951269 2.31629
1.53132 0.968137 3.56026
1.54071 0.983009 4.80439
1.56133 1.7134 -3.54305
1.57748 1.75323 -2.30336
1.59542 1.83403 -0.758962
1.58267 1.87695 0.78263
1.55252 1.86564 2.32716
1.54197 1.85569 3.56714
1.54149 1.85633 4.80985
-0.690777 0.675 -2.32026
0 0.490364 -2.35017
-0.776358 0.406975 -1.57569
-0.748256 0.68938 2.3225
0 0.431647 2.32684
-0.801418 0.395248 1.54365
1.01328e-06 0.890176 -2.35018
-0.800453 0.952277 -1.55167
0 0.951326 2.32257
-0.797537 1.00291 1.54167
0.690647 0.675 -2.32013
0.776519 0.406814 -1.57569
0.748253 0.68938 2.3225
0.801417 0.395249 1.54365
0.800445 0.952267 -1.55167
0.797529 1.0029 1.54167
-0.826161 0.363839 -0.0160201
-0.872965 0.680485 -0.787095
7.0596e-07 0.222487 -0.795857
-0.880735 0.679707 0.766075
2.12104e-05 0.213616 0.763817
-0.828708 1.00731 -0.005
7.39267e-06 1.33921 -0.778334
7.76614e-06 1.54409 0.768334
0.826158 0.363842 -0.0160201
0.872966 0.680491 -0.787095
0.88073 0.679693 0.766075
0.828708 1.00731 -0.005
-0.831641 0.677743 -1.56368
0.831575 0.677746 -1.56368
3.5298e-07 0.231611 -1.57569
4.20298e-06 0.973556 -1.55167
5.06639e-07 0.675 -2.35176
-0.890099 0.680096 -0.01051
0.890098 0.680092 -0.01051
1.09582e-05 0.229213 -0.0160201
7.57941e-06 1.54532 -0.005
-0.843141 0.684544 1.54266
0.843137 0.684537 1.54266
1.06052e-05 0.28849 1.54365
3.88307e-06 1.13761 1.54167
0 0.68938 2.33018
-0.739852 0.58 -2.38486
-0.3475 0.491912 -2.34862
-0.754396 0.42727 -1.96561
-0.7883 0.56219 2.35467
-0.3825 0.432146 2.32634
-0.768127 0.430206 1.93357
-0.716759 0.77 -2.33072
-0.363281 0.886326 -2.34633
-0.774921 0.920051 -1.93833
-0.746899 0.81657 2.32902
-0.3625 0.950257 2.3215
-0.771179 0.983245 1.92833
0.3475 0.491827 -2.3487
0.739887 0.58 -2.38489
0.754408 0.427258 -1.96561
0.3825 0.432145 2.32635
0.788425 0.56219 2.35479
0.768102 0.430232 1.93357
0.363283 0.88632 -2.34632
0.716743 0.77 -2.3307
0.774944 0.920073 -1.93833
0.3625 0.950273 2.32151
0.746883 0.81657 2.32901
0.771097 0.983163 1.92833
-0.811553 0.373447 -1.18578
-0.821993 0.36634 -0.405938
-0.849847 0.523938 -0.791476
-0.429584 0.251319 -0.795857
-0.817015 0.377985 1.15374
-0.825938 0.365729 0.373898
-0.856567 0.517466 0.764946
-0.442108 0.241146 0.763817
-0.815421 0.973939 -1.165
-0.872438 0.846055 -0.782714
-0.827422 0.999327 -0.391667
-0.485954 1.31367 -0.778334
-0.809016 1.0077 1.155
-0.878576 0.859429 0.767204
-0.82634 1.01163 0.381667
-0.534136 1.52736 0.768334
0.811537 0.373463 -1.18578
0.430625 0.24924 -0.795857
0.821983 0.366351 -0.405938
0.849849 0.52394 -0.791476
0.81702 0.37798 1.15374
0.442205 0.241015 0.763817
0.825938 0.365729 0.373898
0.856602 0.51743 0.764946
0.81542 0.973936 -1.165
0.485916 1.31357 -0.778334
0.872439 0.846061 -0.782714
0.827398 0.999301 -0.391667
0.80899 1.00767 1.155
0.534147 1.52736 0.768334
0.87859 0.859434 0.767204
0.826371 1.01166 0.381667
-0.790533 0.676371 -1.94197
-0.345388 0.675 -2.3458
1.7649e-07 0.30229 -1.96293
2.5332e-07 0.582682 -2.42706
-0.808048 0.542359 -1.56969
-0.388179 0.262592 -1.57569
-0.811691 0.686962 1.93258
-0.374128 0.68938 2.33495
5.3026e-06 0.310571 1.93525
0 0.560513 2.36438
-0.827365 0.539896 1.54316
-0.400704 0.290067 1.54365
2.60813e-06 0.952323 -1.95092
7.59959e-07 0.782588 -2.37574
-0.829311 0.81501 -1.55767
-0.400224 0.973138 -1.55167
1.94154e-06 1.01783 1.93212
0 0.820353 2.34007
-0.842107 0.843727 1.54216
-0.398767 1.11824 1.54167
0.790711 0.676373 -1.94191
0.345324 0.675 -2.3458
0.808048 0.54228 -1.56969
0.38826 0.262945 -1.57569
0.811687 0.686958 1.93258
0.374126 0.68938 2.33496
0.826983 0.539893 1.54316
0.400714 0.260525 1.54365
0.829313 0.815006 -1.55767
0.400224 0.973138 -1.55167
0.842115 0.843719 1.54216
0.398766 1.11825 1.54167
-0.865987 0.518039 -0.013265
-0.434305 0.254066 -0.0160201
-0.853179 0.679114 -1.17539
-0.885379 0.680291 -0.398803
5.2947e-07 0.213542 -1.18578
5.83207e-06 0.229071 -0.405938
-0.889337 0.679902 0.377783
-0.867649 0.682125 1.15437
1.60843e-05 0.233622 0.373898
1.59078e-05 0.207493 1.15374
-0.892002 0.860001 -0.00775501
-0.540497 1.52861 -0.005
5.79782e-06 1.02231 -1.165
7.48604e-06 1.5306 -0.391667
7.67277e-06 1.54972 0.381667
5.82461e-06 1.44388 1.155
0.865988 0.518037 -0.013265
0.436615 0.249468 -0.0160201
0.853183 0.679118 -1.17539
0.88538 0.680292 -0.398803
0.889337 0.679893 0.377783
0.867615 0.682115 1.15437
0.891972 0.859983 -0.00775501
0.540504 1.52861 -0.005
-0.786606 0.56118 -1.95379
-0.832608 0.535012 -1.18058
-0.854876 0.824158 -1.17019
-0.798524 0.792505 -1.94015
0.786577 0.56114 -1.95376
0.798534 0.792503 -1.94012
0.854874 0.824161 -1.17019
0.832601 0.534974 -1.18058
-0.367839 0.304888 -1.96427
0.36788 0.306426 -1.96427
0.397086 0.228555 -1.18578
-0.397045 0.226203 -1.18578
-0.381753 0.951955 -1.94463
-0.405339 1.03641 -1.165
0.405346 1.01062 -1.165
0.381754 0.951956 -1.94463
-0.346444 0.581341 -2.41321
-0.354335 0.776294 -2.34397
0.354303 0.776294 -2.34427
0.346412 0.581341 -2.41324
-0.861428 0.519233 -0.402371
-0.864742 0.51602 0.37584
-0.887071 0.860606 0.379725
-0.88398 0.853908 -0.395235
0.861424 0.519236 -0.402371
0.883992 0.853915 -0.395235
0.88703 0.860583 0.379725
0.864776 0.515993 0.37584
-0.431283 0.254015 -0.405938
0.433642 0.249308 -0.405938
0.437127 0.249807 0.373898
-0.433518 0.256984 0.373898
-0.557442 1.50957 -0.391667
-0.539754 1.53286 0.381667
0.539761 1.53285 0.381667
0.557434 1.50954 -0.391667
-0.854472 0.527254 1.15405
-0.79523 0.551043 1.93308
-0.811857 0.830148 1.93046
-0.864591 0.844265 1.15468
0.854443 0.527238 1.15405
0.864579 0.844261 1.15468
0.811879 0.830145 1.93046
0.795229 0.551042 1.93308
-0.411301 0.278541 1.15374
0.411327 0.217006 1.15374
0.391607 0.256764 1.93441
-0.391602 0.32599 1.93441
-0.40386 1.43211 1.155
-0.380633 1.01456 1.93022
0.380633 1.01462 1.93022
0.403867 1.43211 1.155
-0.378314 0.561352 2.35598
0.378313 0.561352 2.35602
0.368313 0.818461 2.3373
-0.368314 0.818461 2.3402
-0.718149 0.5325 -2.37092
-0.52125 0.493329 -2.3472
-0.726487 0.454346 -2.16057
-0.78095 0.498595 2.34338
-0.57375 0.432679 2.32581
-0.782256 0.416911 2.12853
-0.724602 0.8175 -2.3308
-0.544922 0.88154 -2.34154
-0.755708 0.897491 -2.13167
-0.740047 0.880165 2.32611
-0.54375 0.948834 2.32007
-0.752538 0.967951 2.12167
0.52125 0.493202 -2.34733
0.718148 0.5325 -2.37092
0.725373 0.45546 -2.16057
0.57375 0.432679 2.32581
0.781108 0.498595 2.34354
0.777592 0.421575 2.12853
0.544924 0.881509 -2.34151
0.724678 0.8175 -2.33088
0.755709 0.897491 -2.13167
0.54375 0.948838 2.32008
0.73988 0.880165 2.32594
0.752465 0.967878 2.12167
-0.804417 0.381416 -0.990816
-0.816966 0.370534 -0.600898
-0.833236 0.448191 -0.793666
-0.646637 0.261215 -0.795857
-0.819801 0.374366 0.958776
-0.823032 0.369468 0.568858
-0.838776 0.439199 0.764381
-0.66665 0.247955 0.763817
-0.823783 0.985647 -0.971667
-0.855555 0.92053 -0.780524
-0.824545 0.993103 -0.585
-0.706062 1.25515 -0.778334
-0.813258 1.00859 0.961667
-0.857858 0.93947 0.767769
-0.822897 1.01154 0.575
-0.702198 1.32098 0.768334
0.804417 0.381416 -0.990816
0.646863 0.260764 -0.795857
0.816963 0.370537 -0.600898
0.833229 0.448195 -0.793666
0.819768 0.374399 0.958776
0.668474 0.244362 0.763817
0.823037 0.369463 0.568858
0.838795 0.43917 0.764381
0.82379 0.985653 -0.971667
0.706067 1.25514 -0.778334
0.855557 0.920537 -0.780524
0.824536 0.993093 -0.585
0.813275 1.00861 0.961667
[...]
POINT_DATA 3682
SCALARS point_scalars float 1
LOOKUP_TABLE default
-21.934
-53.4211
-43.3976
-42.2221
-23.1711
-53.3845
-43.2355
-41.762
-44.7263
-49.3485
-70.0709
-46.4656
-44.6538
-51.2354
-69.9546
-46.4393
23.5276
-80.6788
-44.1862
-47.766
-52.5001
-52.8548
-46.6691
51.1745
-93.8935
-45.0821
-47.766
-49.2137
-47.6355
-46.6691
51.1745
-78.8198
-55.492
-45.369
-43.2909
-44.662
-47.6355
-35.9711
-52.887
-115.386
-50.6737
-40.5522
-43.4103
-43.4103
156.543
-39.7
-46.2824
-53.0519
-50.8992
-44.2334
-44.2334
156.543
-44.2334
-44.2334
155.696
-42.1183
-44.2334
48.4139
-66.796
-115.771
-50.5181
-38.2561
-41.792
-42.1183
156.62
-75.3753
-46.2649
-53.2474
-51.0555
-44.1042
-44.1042
156.62
-44.1042
-44.1042
152.234
-41.6813
-44.1042
43.5276
-65.9019
-124.052
-51.101
-37.6159
-41.2213
-41.6813
16.6115
-83.3541
-44.1134
-48.246
-50.4159
-52.7165
-46.5498
50.5804
-93.6157
-44.9913
-48.246
-48.8868
-47.4914
-46.5498
50.5804
-78.8445
-55.4513
-45.3333
-43.0053
-44.2926
-47.4914
-35.7942
-52.4727
-115.104
-50.5147
-40.2954
-42.9721
-42.9721
-1.63772
32.0836
-44.1424
-47.2066
-45.7722
-46.3471
-54.5891
-20.6313
-36.092
-40.8774
-1.33921
-44.3377
-47.0003
-46.4345
-20.49
-40.7841
-43.2042
-47.0936
-50.6393
-44.5719
-46.5205
-55.5059
36.3742
-53.1093
-43.0197
-46.9948
-44.5459
-55.4208
-37.4971
-37.3698
-74.8584
6.61032
202.049
-46.6587
-46.5489
-42.8469
-82.3482
-43.4154
-43.4143
-49.163
-35.3981
-41.9921
7.05335
25.0422
-64.3452
-49.5464
-46.0911
-43.3749
0.0282217
-61.2373
-32.0876
-45.3309
-36.1747
-38.7695
24.1264
5.306
-64.1828
-46.0244
-49.3314
-44.0235
-61.0268
0.255487
-32.008
-35.6656
-45.0134
-38.5675
-49.3442
-43.9158
-44.7353
-48.6252
-45.1301
-43.0595
-41.5906
-48.5492
-32.4196
-54.6757
-63.3543
21.9003
-43.463
-45.3528
-50.1696
-51.5549
-48.7854
-48.9812
-43.8598
-44.6433
-45.3006
-44.0466
-42.7227
-41.6301
-32.4317
22.0659
-54.5679
-63.2471
-43.4043
-51.4988
-45.3189
-50.1283
-49.9102
194.928
-74.7539
193.58
-39.1239
-69.0599
-42.9143
-42.1444
-53.1191
-41.2254
-45.4299
-49.3742
-26.2636
172.927
-31.5885
1.68283
-36.3042
-41.2219
-42.0171
-36.6821
-49.8138
196.024
-38.97
-67.2544
-42.8699
-42.1017
-45.4559
-49.838
-31.4607
1.61432
-41.9681
-36.5448
-44.6495
-42.4773
-40.1261
-48.4013
-62.3185
-44.473
-45.4147
-44.6072
-42.1839
-49.6599
-51.1738
-73.7262
32.4575
-126.848
-64.0099
-40.2027
-44.5125
-42.2041
-39.9623
-48.3157
-45.2914
-44.6184
-51.0919
-73.6688
-51.3011
-44.0678
-39.0366
-46.1664
-51.1857
-46.0817
-38.9091
-43.8808
-88.5186
-88.3211
-61.4469
-64.0636
-27.9262
23.1492
22.7534
-27.9446
183.643
181.041
180.291
183.676
-45.6637
-44.1498
-47.5393
-54.6964
-45.5848
-54.6058
-47.4617
-43.9497
-43.6643
-43.8958
-41.6605
-42.2395
-118.075
-59.2803
-59.2286
-118.028
-44.4796
-42.5836
-41.9709
-44.3082
-44.541
-44.2733
-41.7931
-42.7226
-47.6183
-49.8565
-54.5943
-51.6016
-41.5061
-36.7376
-36.5454
-41.4391
-41.4002
-41.3156
-41.2605
-41.3703
2.87676
1.08993
-75.082
-53.479
-46.9966
-47.615
-35.8453
-1.77789
-54.3906
-44.2433
-37.8633
-40.2216
0.864473
-1.09083
-74.2668
-46.935
-53.3179
-46.362
-1.76928
-35.7864
-54.2907
-37.148
-43.8537
-39.8866
-42.9093
-43.9162
-44.25
-47.5176
-45.5392
-42.177
-43.3077
-50.8629
-62.945
-60.9643
-66.9786
-84.0478
-45.2397
-46.1641
-48.1768
-49.4304
-42.7772
-47.5758
-43.9322
-44.1648
-45.3665
-49.9985
-41.6764
-43.5699
-62.8853
-84.2684
-60.8519
-66.8692
-45.2056
-49.3609
-46.1348
-48.1448
-25.0234
-16.6378
-79.8479
179.162
32.2187
31.3809
-65.5669
107.071
-50.6479
-36.7586
-40.6328
-57.8892
-47.8425
-46.1877
-44.847
-42.5053
-45.9435
-45.5475
-49.7801
-43.6246
-45.4832
-45.2635
-46.249
-48.0834
-52.0375
-52.0197
-58.1763
124.971
-26.2236
-19.2067
-28.6816
-6.02866
-36.091
-35.8895
-36.5969
-39.5483
-38.8745
-43.4423
-41.1338
-37.7226
-25.0405
-16.3011
-79.4984
178.906
-50.534
-36.0789
-40.4467
-57.9549
-48.8493
-45.9319
-44.6545
-42.4443
-45.4058
-45.3401
-46.2331
-48.1505
-26.1441
-18.6868
-28.5283
-5.98999
-38.761
-43.3577
-41.0566
-37.6596
-43.3895
-43.0911
-43.6903
-42.2954
-45.6662
-49.9076
-43.8133
-48.0782
-49.8505
-50.7551
-54.6729
-47.1653
-43.5158
-44.8934
-44.62
-45.0717
-49.398
-43.8376
-42.5722
-48.4622
-59.1096
-52.6745
-54.3722
-63.9576
34.5973
34.6388
58.5813
-91.2913
-53.0649
-53.0373
-58.0601
-48.6501
-43.2765
-42.8644
-43.5374
-41.9951
-45.5702
-49.8113
-43.7005
-47.9951
-43.5528
-44.8567
-44.5336
-45.0471
-59.0095
-52.6131
-54.2892
-63.8556
-42.0672
-38.3888
-34.7691
-36.1697
-41.9642
-38.2501
-34.6426
-35.9819
-81.3272
-74.5415
-71.5507
-68.5532
-7.73919
5.51339
5.39332
20.2046
201.286
202.478
194.011
201.281
-45.5358
-47.5133
-46.1608
-48.3029
-45.4125
-47.4165
-46.0353
-48.2136
-42.8557
-43.3499
-42.6131
-42.9204
-80.3581
-99.7039
-72.2559
-80.3431
-42.6891
-44.2501
-42.908
-44.1158
-42.6817
-44.2688
-42.8857
-44.1368
-52.9669
-48.762
-50.073
-50.4206
-35.8957
-35.8365
-35.7052
-36.6722
-42.0225
-41.9977
-41.5474
-41.9885
-83.1512
162.184
-57.6298
123.337
-54.1283
-89.5226
-43.8359
-41.6903
-51.6627
-43.7174
-42.4674
-50.3623
-73.654
170.471
-59.7294
154.283
-42.4474
-29.7398
-43.4928
-41.5268
-36.8159
-39.9695
-40.9533
-37.0332
-60.0929
122.307
-82.8406
161.618
-54.0304
-88.943
-50.1276
-43.4277
-43.5579
-41.5572
-42.779
-51.7393
-59.7254
153.863
-73.5081
170.158
-42.3664
-29.7329
-36.5222
-39.7405
-43.273
-41.3122
-40.7637
-36.845
-47.8441
-62.6618
-44.5972
-43.5572
-42.9707
-45.2572
-53.1584
-45.6857
-44.6728
-47.5236
-43.526
-42.1945
-43.4198
-47.3185
-42.9347
-48.7143
-39.5538
7.16944
-47.3543
-55.6919
-58.9189
-85.1024
40.5744
-88.3094
-44.09
-45.4294
-46.0665
-44.3001
-49.202
-54.4239
-54.939
-51.366
-47.6803
-61.77
-53.3597
-45.8304
-44.526
-43.6084
-42.8323
-45.191
-44.7935
-48.6995
-41.9925
-45.4602
-43.2701
-41.7039
-43.2529
-47.3192
-39.4696
6.84097
41.1506
-88.3464
-47.2432
-55.6007
-58.8249
-85.0074
-44.0335
-45.3356
-54.8847
-51.3066
-46.0121
-44.273
-49.1504
-54.3562
-50.4397
-49.7294
193.668
190.426
-77.1115
-84.8582
193.939
193.837
-44.3641
-32.8246
-70.5509
-62.4525
-42.8197
-42.6236
-42.0602
-41.4798
-55.4871
-52.3222
-41.2481
-41.2046
-44.5634
-43.3784
-48.5112
-51.6311
-26.5932
-26.6125
175.1
175.122
-31.276
-36.6766
-11.1446
13.6662
-36.458
-36.3302
-41.2163
-41.28
-41.2915
-43.1617
-37.5928
-36.6954
-50.3368
-49.6412
191.129
193.905
-44.2631
-32.5057
-68.027
-61.7253
-42.5247
-42.842
-42.0083
-41.3572
-44.642
-43.442
-49.7639
-48.6495
-36.5628
-31.1315
13.6587
-11.1897
-43.1244
-41.214
-36.5482
-37.5114
-45.1478
-44.5988
-42.7728
-42.3652
-41.8783
-39.8159
-46.7383
-50.7521
-61.7547
-63.2426
-44.2283
-44.4818
-44.7094
-46.2863
-44.5685
-44.2476
-41.9035
-42.4052
-48.2182
-49.4425
-48.8004
-51.6549
-88.9832
-65.1547
29.3789
31.5639
-126.291
-126.311
-62.9161
-62.8974
-40.4776
-40.4277
-45.0428
-44.4262
-42.7952
-41.8343
-39.666
-41.7179
-46.6562
-50.6625
-46.189
-44.5522
-44.5995
-44.2448
-51.5689
-48.7123
-65.1496
-88.9153
-80.6793
-46.3631
-44.0059
-85.0044
-42.9835
-43.1917
-35.097
-32.9006
-54.1751
-31.1985
-35.1255
-45.0282
-64.9827
-78.2933
-38.7046
-33.5686
-80.1014
-85.0288
-43.8957
-46.277
-64.8502
-33.4551
-38.592
-78.1021
-54.0471
-44.9182
-34.9672
-31.0754
-42.824
-32.4792
-34.8496
-43.0713
-48.0193
-64.602
-80.0481
-61.5033
-48.5956
-61.7277
-74.4
-67.1456
-52.8411
-55.021
-64.1825
-49.6587
-52.6071
-51.5641
-66.6355
-54.0875
-59.7447
-15.401
-8.56931
-58.9134
2.73449
54.5175
18.8122
3.61774
1.1303
3.67848
18.606
54.639
-59.7456
-58.9157
-8.62296
-15.3945
102.089
176.15
199.085
111.343
120.224
138.311
195.213
175.039
120.51
174.579
195.231
138.328
100.893
110.885
199.063
175.946
-44.3004
-44.0375
-46.2001
-46.4679
-42.6544
-43.9968
-45.3537
-43.7943
-47.4071
-51.165
-47.2411
-45.2166
-60.702
-50.8616
-49.2586
-55.9155
-44.2541
-46.39
-46.0983
-43.9295
-60.6038
-55.8252
-49.1643
-50.7739
-47.369
-45.1472
-47.1362
-51.0991
-42.3608
-43.5942
-45.2049
-43.8822
-45.1044
-46.7654
-43.1912
-42.7013
-45.1232
-42.613
-43.5198
-46.9903
-42.0301
-41.8367
-42.1434
-41.7626
-42.8179
-42.1755
-42.5867
-43.2726
-107.092
-71.887
-97.594
-84.1502
-51.2881
-57.4893
-70.1852
-58.6232
-51.2286
-58.5473
-70.1689
-57.4676
-106.954
-85.3435
-97.5807
-71.7886
-46.6391
-44.6254
-44.775
-46.0016
-43.1758
-45.239
-43.073
-43.6443
-42.3882
-40.3918
-42.1282
-44.5264
-44.8546
-44.5598
-43.6739
-42.8542
-46.6409
-45.9503
-44.8216
-44.7606
-44.8156
-42.7937
-43.6641
-44.5263
-42.1164
-44.3333
-42.0857
-40.2868
-42.9703
-43.7349
-43.105
-45.0158
-46.0481
-48.4312
-49.4243
-45.6025
-45.1616
-47.4177
-50.7442
-47.9669
-53.373
-49.5689
-52.8909
-49.0953
-53.6241
-50.4342
-53.3818
-50.4337
-47.5765
-39.3872
-36.9257
-49.5202
-37.2044
-36.6556
-36.1598
-37.1997
-36.866
-37.0953
-36.0366
-36.4986
-47.5473
-49.4834
-36.8594
-39.2615
-44.1138
-43.6643
-42.0207
-42.3673
-43.9524
-42.287
-41.9886
-43.4971
-40.5398
-39.6839
-41.5589
-41.6293
-40.9445
-41.7798
-41.6064
-39.7925
2.37175
-4.17953
-58.9035
-55.2035
-49.2222
-52.4579
-34.4661
18.8755
-81.864
-43.5313
-39.3483
-40.3023
-4.05704
0.651834
-59.3103
-49.2541
-55.1028
-51.7743
18.4867
-34.7792
-81.7517
-38.7254
-43.1029
-39.9225
-44.6074
-44.0414
-44.0624
-46.1935
-50.39
-38.8171
-47.6298
-53.9718
-72.3563
-66.0702
-68.7419
-104.148
-45.9024
-46.451
-47.1887
-47.8287
-44.5262
-46.1663
-43.9912
-43.9827
-50.2603
-56.0333
-38.4589
-48.0919
-72.1952
-103.938
-65.9514
-68.6298
-45.8733
-47.7988
-46.4243
-47.1592
1.25752
-12.0067
-113.383
150.203
31.9905
31.5833
-11.2234
58.3051
-46.7969
-42.1909
-41.8102
-52.5834
-47.9473
-46.9542
-45.6884
-43.4992
-45.893
-45.6604
-48.0216
-44.8966
-46.9922
-45.6991
-46.2374
-46.2265
-69.7554
-69.1515
-87.4177
51.8201
-23.6571
-15.1921
-24.9289
-11.3427
-36.1642
-36.0673
-36.4013
-37.4721
-38.8359
-41.4297
-40.7697
-39.3148
1.36884
-11.8547
-113.451
150.264
-46.8886
-41.6732
-41.6736
-52.895
-47.9686
-46.7214
-45.4581
-43.3929
-46.8403
-45.8673
-46.2293
-46.6546
-23.5454
-14.9358
-24.7742
-11.2836
-38.745
-41.347
-40.6812
-39.2154
-42.9263
-43.3991
-43.4118
-42.0739
-46.3225
-48.2436
-45.5734
-47.6424
-50.2946
-50.978
-52.3757
-49.2785
-44.1936
-44.7577
-44.317
-45.2578
-48.5546
-47.179
-42.1188
-46.5529
-57.1225
-53.9396
-55.1085
-59.6456
36.0287
36.129
56.8738
-7.82132
-53.1064
-53.0922
-55.5917
-50.7089
-42.7858
-43.1851
-43.2503
-41.8304
-46.2251
-48.1432
-45.4633
-47.5527
-44.2074
-44.7208
-44.2663
-45.2015
-57.0301
-53.8656
-55.0253
-59.5331
-39.3146
-37.8597
-36.1735
-34.6597
-39.1701
-37.7261
-36.0481
-34.5169
-83.1758
-75.6337
-73.5323
-69.7784
-0.142086
6.40637
6.34578
13.9764
202.745
202.333
201.406
202.769
-46.0618
-47.0095
-46.5181
-47.4187
-45.9453
-46.9076
-46.3986
-47.3187
-42.9378
-43.0328
-43.2208
-42.987
-81.8236
-89.8691
-76.6905
-81.8157
-42.9142
-43.7669
-43.1148
-43.9209
-42.9075
-43.7745
-43.1034
-43.9316
-50.3824
-46.102
-50.2325
-48.7195
-35.6273
-35.5489
-35.4692
-35.9177
-41.972
-42.1153
-41.7905
-41.9518
4.83106
31.6847
-99.0548
153.842
11.6735
32.2939
-0.215254
34.1413
-68.6823
-56.1001
-59.0448
-85.1333
-51.6478
-46.4538
-47.2226
-43.9994
-46.641
-46.0939
-48.2835
-45.3792
-39.3954
-44.5721
-42.6579
-47.6832
-23.5371
-13.0886
-110.13
142.073
-25.1942
-65.0016
-93.7887
89.2595
-43.9686
-29.9898
-36.4297
-31.0784
-44.8705
-45.7617
-43.8818
-42.4482
-36.7451
-36.0382
-36.5604
-37.6158
-39.0822
-38.5391
-40.0406
-37.3115
10.8383
31.2582
-1.07662
33.1509
-1.05268
31.3112
-98.7561
154.005
-68.0564
-55.9887
-58.9326
-84.5724
-46.4631
-45.667
-48.9232
-44.8133
-51.4618
-46.327
-46.9331
-43.864
-40.366
-44.8598
-43.1089
-48.9396
-24.8218
-65.0011
-93.7778
89.2099
-23.3641
-12.8342
-109.915
142.53
-43.8824
-30.1411
-36.3474
-31.0449
-36.0795
-35.7022
-36.162
-37.2017
-44.5141
-45.4747
-43.5727
-42.1992
-38.8204
-38.3981
-39.8423
-37.1236
-48.2863
-34.9352
-50.0005
-51.4912
-43.6938
-43.7536
-44.2526
-43.5382
-44.3961
-45.2117
-43.8509
-45.1824
-48.1849
-49.0996
-50.9927
-47.0881
-44.2121
-44.7393
-44.9447
-46.0787
-42.9441
-42.7678
-43.2748
-41.8974
-42.1107
-42.5311
-43.0712
-47.1401
-47.9531
-49.7916
-43.363
-50.22
-46.7992
-23.007
-39.3331
-5.76408
-57.4587
-52.0133
-51.6477
-55.4863
-65.1229
-61.0979
-61.5954
-72.3772
1.6112
32.6382
43.5755
-14.4383
-44.2845
-43.3443
-43.7599
-43.885
-45.721
-45.1036
-45.5718
-45.0588
-49.0541
-51.2066
-49.904
-52.4068
-50.5053
-52.9603
-53.1299
-52.4017
-47.9465
-34.5594
-49.8594
-50.2294
-48.3757
-49.6141
-51.5466
-47.1341
-43.6686
-43.6675
-44.1882
-43.5024
-44.3066
-45.1173
-43.7473
-45.1072
-44.2769
-44.9368
-45.0854
-46.2142
-45.3116
-43.3276
-41.4913
-46.5737
-42.5339
-42.5139
-42.9852
-41.7123
-42.256
-42.5413
-42.989
-47.0914
-46.7832
-23.1035
-39.2983
-5.79603
2.16194
32.7316
43.8996
-14.4831
-57.3502
-51.8959
-51.5369
-55.3879
-65.0207
-60.9901
-61.4945
-72.2654
-44.2346
-43.2739
-43.7051
-43.818
-50.4243
-52.9199
-53.0723
-52.3422
-45.6889
-45.0679
-45.5248
-45.0331
-49.0194
-51.1546
-49.8568
-52.3528
-61.1193
-44.4966
-50.3183
-49.7374
190.273
199.463
194.499
192.716
-85.191
-74.1691
-74.2586
-77.7087
163.265
199.691
193.657
193.581
-39.8471
-38.7097
-41.2734
-37.1277
-63.1221
-71.6399
-73.2445
-66.1153
-43.447
-42.8366
-42.9479
-42.7769
-42.2902
-42.0152
-42.2091
-41.8591
-51.2601
-53.2853
-53.7717
-52.7394
-42.7431
-41.6584
-41.2289
-41.2061
-46.0395
-44.9373
-45.3798
-44.2238
-48.0937
-49.5736
-48.7519
-51.0882
-40.4111
-16.2218
-26.2515
-26.2378
154.995
186.394
174.817
174.922
-29.8994
-33.226
-30.8257
-33.6196
-1.44605
3.96081
-4.32381
8.07755
-36.4598
-36.1208
-36.3673
-36.2982
-41.4198
-41.289
-41.1655
-41.2017
-41.569
-42.5102
-41.4357
-42.5515
-37.141
-36.2496
-36.9798
-36.6265
-60.9114
-44.8282
-50.2166
-49.6468
190.597
199.588
194.281
195.22
-39.67
-38.5632
-41.1642
-36.9588
-63.4987
-68.8335
-72.1976
-63.5663
-43.3274
-42.8177
-42.6763
-42.9374
-42.2525
-41.9708
-42.1664
-41.7919
-46.0477
-44.9675
-45.4482
-44.2458
-48.5949
-50.3881
-53.4748
-49.1792
-29.7615
-33.1003
-33.4931
-30.6779
-1.44352
3.83837
8.0188
-4.38167
-41.5062
-42.4741
-42.5047
-41.377
-37.0317
-36.1042
-36.4773
-36.8746
-44.2349
-45.0836
-44.7974
-44.7026
-42.3272
-42.6681
-42.5555
-42.5843
-41.8778
-39.1121
-40.8298
-39.9469
-48.2621
-48.099
-47.5013
-49.4991
-58.5105
-65.2415
-61.8596
-62.5633
-45.4215
-43.7801
-44.3889
-44.5801
-45.0713
-45.6647
-45.0521
-45.8394
-44.6593
-44.4808
-44.6432
-44.4443
-42.2446
-41.8377
-42.0212
-42.4206
-48.1874
-55.1914
-49.1367
-50.2613
-53.132
-49.4976
-49.974
-50.8634
-68.8294
-77.8338
-79.9754
-68.5538
45.1126
25.8894
31.5849
32.5001
-135.65
-111.385
-126.924
-126.923
-60.668
-67.5167
-63.7425
-63.7331
-44.6941
-37.8311
-40.2612
-40.2383
-44.0909
-44.9535
-44.6767
-44.5463
-42.0212
-42.4794
-42.4321
-42.0173
-41.7517
-38.9356
-39.7891
-40.6672
-48.1803
-48.0076
-47.4174
-49.4116
-44.9615
-45.5398
-45.7296
-44.913
-44.6601
-44.4956
-44.6625
-44.4493
-53.0458
-49.4182
-50.7829
-49.8783
-68.7444
-77.8073
-68.5176
-79.9275
-59.6501
-51.6964
-50.7803
-48.9509
-45.8959
-42.7263
-40.5825
-43.0422
-38.4097
-42.8041
-35.1674
-39.4482
-56.0294
-44.2947
-48.0598
-40.5049
-59.4363
-51.5754
-50.6741
-48.8242
-55.9031
-44.2115
-47.9712
-40.4213
-38.2965
-42.6907
-35.0193
-39.3066
-45.7161
-42.5395
-40.3386
-42.8751
-93.7803
-89.7898
-83.3454
-74.2893
-95.4855
-89.4412
-87.8532
-74.3638
-65.7333
-57.9907
-57.7397
-60.4897
-66.0598
-58.3232
-58.569
-64.6569
-41.4477
-28.8021
-27.161
-18.8332
15.1374
30.9233
17.974
27.4332
16.6951
31.4864
18.9687
26.3399
-41.4539
-28.8106
-27.1861
-18.8641
178.491
166.316
195.809
193.794
178.136
173.752
186.28
177.049
173.008
177.023
176.937
186.16
165.972
179.013
193.692
195.773
-45.1098
-45.3375
-45.5719
-46.2197
-43.861
-43.9026
-44.2357
-44.4215
-46.8956
-48.2014
-46.917
-48.0074
-55.1959
-56.8684
-52.4244
-53.5348
-45.034
-45.2717
-45.4799
-46.1393
-55.1072
-56.7778
-52.3341
-53.4466
-46.8329
-48.1349
-46.8286
-47.9373
-43.6364
-43.6975
-44.048
-44.2447
-43.4689
-44.4419
-43.1288
-43.9566
-44.6744
-43.6146
-44.1991
-43.2807
-41.8823
-41.6896
-41.497
-41.6776
-42.1962
-42.5579
-42.1465
-42.3287
-102.397
-121.578
-99.3048
-123.399
-56.6916
-56.8376
-61.6236
-61.6035
-56.8014
-56.6187
-61.5747
-61.5838
-121.704
-102.489
-123.404
-99.4321
-44.4841
-44.3851
-44.7743
-44.5758
-39.8229
-42.5331
-42.7149
-43.1351
-42.709
-41.4793
-42.4102
-41.5802
-44.2854
-44.6374
-43.6152
-44.0759
-44.5738
-44.4224
-44.8542
-44.621
-44.2316
-44.5853
-43.5887
-44.0627
-42.5069
-41.289
-42.2141
-41.4788
-39.8672
-42.743
-42.7857
-43.241
-47.7843
-48.4709
-47.4512
-47.593
-50.6878
-46.6896
-48.9862
-49.2563
-53.7171
-51.9972
-59.3058
-48.1043
-51.1861
-50.5935
-52.1384
-50.8379
-43.005
-47.6276
-38.9502
-40.8421
-36.7783
-36.87
-36.5915
-36.7093
-36.5369
-36.6792
-36.4207
-36.5485
-42.7763
-47.5639
-38.8717
-40.8218
-41.5037
-42.6479
-41.7598
-41.2618
-42.4903
-41.3967
-41.1965
-41.6921
-41.1438
-41.1166
-41.2032
-41.1912
-41.2858
-41.2368
-41.3364
-41.2915
-84.2631
96.1258
11.377
54.2829
-80.5128
-55.7498
-49.6676
-46.7282
-49.4993
-46.4314
-44.7554
-55.823
-96.3606
129.111
-96.3862
59.7718
-57.9403
-58.0734
-43.0643
-42.4316
-37.4207
-39.3353
-41.475
-37.5363
11.2961
53.2665
-84.0375
94.9311
-79.9058
-56.0039
-49.4049
-46.1584
-49.3343
-46.5818
-43.5688
-55.0428
-96.1602
60.0731
-96.2241
129.352
-57.8249
-58.0032
-37
-38.7072
-42.7426
-42.0444
-41.1721
-37.1961
-43.2724
-47.611
-44.0348
-43.7317
-43.7355
-44.4747
-49.392
-46.2541
-45.926
-45.9116
-42.4108
-42.3359
-41.6969
-49.2585
-42.7885
-50.3038
-59.9156
-42.8846
-59.411
-61.2319
-64.2354
-82.9117
-11.1319
-118.49
-45.0543
-46.0852
-46.5337
-45.6056
-47.969
-49.7801
-50.1454
-48.4176
-43.0965
-47.6298
-49.4897
-46.1866
-44.006
-44.7001
-43.6272
-44.4109
-45.8482
-45.514
-41.2564
-49.4836
-42.0272
-41.5895
-41.5605
-49.2569
-59.7588
-43.8647
-13.3759
-118.419
-59.2777
-61.1292
-64.1332
-82.7852
-45.0151
-46.0622
-50.0843
-48.3578
-46.4998
-45.5902
-47.9363
-49.7416
-108.989
146.939
-117.122
146.587
-83.0243
-80.6939
178.231
177.85
-11.3435
45.23
-12.7203
44.5698
-64.332
-66.3529
114.07
113.787
-47.7681
-58.3052
-34.2839
-45.021
-43.3184
-38.4856
-57.1626
-54.0606
-46.3654
-43.2392
-45.013
-42.7872
-44.9263
-44.7727
-42.6041
-42.1759
-48.0921
-45.0657
-47.4936
-44.7058
-49.6909
-50.0493
-43.6528
-43.5687
-44.6352
-48.6936
-44.8578
-45.0616
-44.9941
-45.4066
-47.2744
-49.2155
-92.3149
62.3822
-92.3179
62.3623
-58.8092
-58.7383
132.574
132.787
-30.0064
-18.6508
-28.5759
-1.99334
-29.3732
-30.8552
-9.97225
-1.71152
-36.3817
-37.4211
-36.1931
-37.2491
-36.6313
-36.553
-39.7548
-39.8144
-39.749
-37.4559
-42.8124
-42.3971
-40.4602
-42.0093
-38.2826
-37.4066
-109.146
146.937
-116.874
146.667
-82.8092
-80.4513
177.509
178.039
-47.6998
-57.8712
-33.7825
-43.5707
-43.2575
-38.1748
-56.8689
-54.3958
-46.1068
-43.1149
-44.7452
-42.5962
-44.5646
-44.7323
-42.5477
-42.0795
-44.7115
-47.8737
-45.1152
-46.0504
-45.0832
-45.4185
-47.9808
-48.0009
-29.9078
-18.6168
-28.4089
-1.48504
-30.7201
-29.1939
-1.64123
-9.95548
-39.6381
-37.3591
-42.7409
-42.2891
-41.9435
-40.3747
-37.3068
-38.1935
-43.7752
-43.1344
-43.5
-42.0119
-43.97
-44.0647
-42.4317
-42.3213
-44.4377
-46.2277
-47.8323
-50.5698
-43.4532
-44.3394
-47.1899
-49.4051
-51.5556
-48.6797
-52.9265
-49.0783
-55.063
-54.3789
-47.0324
-47.2125
-43.6945
-45.7192
-44.8712
-44.8989
-44.3111
-44.9305
-45.2592
-44.8875
-43.7092
-49.7852
-40.865
-46.6373
-42.1776
-43.1004
-48.8558
-48.7846
-58.0994
-64.9719
-52.2153
-55.7986
-52.3006
-55.374
-67.4564
-61.0637
55.1158
-10.2511
55.1447
-10.287
57.8932
57.9077
-90.0502
-90.6702
-55.2185
-51.0375
-55.1941
-51.0055
-57.9539
-57.9431
-48.9199
-48.9008
-43.6639
-43.0011
-43.2847
-41.7245
-43.8383
-43.8862
-42.2471
-41.8615
-44.3287
-46.1432
-47.7217
-50.4755
-44.2287
-43.3368
-47.1092
-49.3196
-43.636
-45.652
-44.8192
-44.8652
-44.8536
-44.2137
-45.2187
-44.8638
-58.0034
-64.8564
-52.1523
-55.7063
-55.2881
-52.2231
-60.9651
-67.3565
-43.6565
-40.2593
-40.7336
-35.3239
-33.7955
-36.4334
-35.8259
-35.8976
-43.5387
-40.1811
-40.6106
-35.2137
-36.2873
-33.6496
-35.7285
-35.6102
-81.7527
-77.8677
-79.317
-69.8974
-76.3199
-64.1265
-68.1722
-68.5575
-7.90038
-7.92607
-1.12582
12.5414
12.3622
-1.20701
19.862
19.8094
200.642
200.081
199.979
199.835
196.826
196.856