# vtk DataFile Version 2.0
tri_press
ASCII
DATASET UNSTRUCTURED_GRID
POINTS 3682 float
-0.835 0.245 -1.82251
-0.870234 0.355 1.755
-0.785 0.775 -1.76429
-0.755 1.025 1.92248
0.835 0.245 -1.82251
0.870234 0.355 1.755
0.785 0.775 -1.76429
0.755 1.025 1.92248
-0.874449 0.253962 -0.630007
-0.878648 0.298175 0.562497
-0.815027 0.89836 -0.535367
-0.797405 0.974072 0.693557
0.874373 0.254038 -0.630007
0.878639 0.298183 0.562497
0.815027 0.89836 -0.535367
0.797372 0.974038 0.693557
-1.66895 -0.122338 -2.8409
-1.67293 -0.0731165 -1.87231
-1.69941 -0.055058 -0.680747
-1.70476 -0.0263052 0.503485
-1.6959 0.0231609 1.69443
-1.69524 0.0690106 2.65999
-1.69862 0.116605 3.63116
-1.66522 0.17566 -2.7987
-1.66532 0.237272 -1.82613
-1.69758 0.265763 -0.627479
-1.69616 0.303842 0.567891
-1.67961 0.35564 1.76584
-1.68681 0.401344 2.73192
-1.6954 0.448208 3.70189
-1.64332 0.747614 -2.72451
-1.62434 0.807847 -1.75345
-1.64746 0.903143 -0.529972
-1.62974 0.972074 0.696085
-1.59776 1.02536 1.91886
-1.64257 1.06937 2.88344
-1.67663 1.11409 3.84754
-1.63588 1.67 -2.58585
-1.62836 1.74001 -1.60933
-1.63136 1.84815 -0.374049
-1.63023 1.94537 0.869085
-1.62892 2.01687 2.10399
-1.64298 2.06366 3.07971
-1.66425 2.10767 4.04779
-0.83937 -0.11844 -2.83855
-0.83252 -0.0673564 -1.86888
-0.856752 -0.0604286 -0.681207
-0.865173 -0.0313553 0.498881
-0.862058 0.0209804 1.68638
-0.867354 0.0673399 2.65453
-0.872634 0.115194 3.628
-0.843332 0.175722 -2.79797
-0.871959 0.400342 2.72742
-0.875676 0.447182 3.69951
-0.82752 0.734208 -2.72901
-0.838078 1.06918 2.88416
-0.865645 1.11384 3.84769
-0.816367 1.66021 -2.5903
-0.807932 1.73046 -1.61424
-0.812198 1.84506 -0.377007
-0.81635 1.9471 0.86944
-0.819384 2.01892 2.10652
-0.833149 2.06503 3.08224
-0.851604 2.10853 4.04963
0.824777 -0.118429 -2.83855
0.851187 -0.0673394 -1.86888
0.872234 -0.0603772 -0.681207
0.873147 -0.03134 0.498881
0.862583 0.0209839 1.68638
0.819834 0.067343 2.65453
0.794179 0.115198 3.628
0.807716 0.175728 -2.79797
0.799241 0.400343 2.72742
0.780049 0.447184 3.69951
0.789833 0.734211 -2.72901
0.760185 1.06918 2.88416
0.762535 1.11384 3.84769
0.814969 1.66021 -2.5903
0.821066 1.73046 -1.61424
0.819003 1.84506 -0.377007
0.805006 1.9471 0.86944
0.789248 2.01892 2.10652
0.779743 2.06503 3.08224
0.772371 2.10853 4.04963
1.6591 -0.122315 -2.8409
1.68438 -0.0730799 -1.87231
1.71334 -0.0549889 -0.680747
1.7178 -0.0262758 0.503485
1.70087 0.0231706 1.69443
1.66121 0.0690183 2.65999
1.63165 0.116613 3.63116
1.64142 0.175676 -2.79869
1.66476 0.237294 -1.82613
1.70173 0.265833 -0.627479
1.70483 0.303862 0.567891
1.68412 0.355645 1.76584
1.64009 0.401349 2.73192
1.61549 0.448214 3.7019
1.6169 0.747623 -2.72451
1.62223 0.807854 -1.75345
1.64974 0.90316 -0.529972
1.63565 0.97206 0.696084
1.59871 1.02536 1.91886
1.58978 1.06937 2.88344
1.58906 1.11409 3.84754
1.63403 1.67001 -2.58585
1.63855 1.74002 -1.60933
1.63808 1.84815 -0.37405
1.62319 1.94537 0.869085
1.60413 2.01686 2.10399
1.59503 2.06365 3.07971
1.59045 2.10767 4.04779
-0.821504 0.51 -1.8049
0 0.241069 -1.82644
-0.860219 0.243986 -1.22626
-0.823212 0.69 1.84933
0 0.346195 1.76381
-0.858348 0.342681 1.15875
0 0.836971 -1.82626
-0.840223 0.87689 -1.14983
0 1.05715 1.95463
-0.801609 1.02494 1.30802
0.821511 0.51 -1.80491
0.860221 0.243985 -1.22626
0.823194 0.69 1.84932
0.858068 0.34296 1.15875
0.840133 0.8768 -1.14983
0.801606 1.02494 1.30802
-0.868941 0.283676 -0.033755
-0.874379 0.576161 -0.582687
-3.80784e-05 0.248508 -0.630007
-0.884154 0.636123 0.628027
-4.31347e-06 0.249338 0.562497
-0.800977 0.930977 0.079095
0 1.16479 -0.535367
-1.67586e-05 1.32806 0.693557
0.868943 0.283674 -0.033755
0.874385 0.576199 -0.582687
0.884157 0.636111 0.628027
0.800974 0.930974 0.079095
-0.894172 0.54308 -1.18804
0.894172 0.5431 -1.18804
-1.90392e-05 0.241285 -1.22626
0 0.951676 -1.14983
0 0.51 -2.15336
-0.871479 0.606142 0.02267
0.871484 0.606155 0.02267
-2.11959e-05 0.248933 -0.033755
-8.37932e-06 1.34115 0.079095
-0.896779 0.663062 1.23338
0.896779 0.663055 1.23338
-2.15673e-06 0.272804 1.15875
-8.37932e-06 1.21247 1.30802
0 0.69 2.14883
-0.819875 0.3775 -1.80533
-0.4175 0.241109 -1.8264
-0.848574 0.243529 -1.52438
-0.85295 0.5225 1.80839
-0.435117 0.353055 1.75695
-0.86046 0.352672 1.45687
-0.795652 0.6425 -1.777
-0.3925 0.812041 -1.80133
-0.815171 0.828504 -1.45706
-0.791529 0.8575 1.88833
-0.3775 1.05203 1.94951
-0.784137 1.0308 1.61525
0.4175 0.241096 -1.82641
0.819888 0.3775 -1.80534
0.848575 0.243528 -1.52438
0.435117 0.353053 1.75695
0.852947 0.5225 1.80839
0.860269 0.352862 1.45687
0.3925 0.81204 -1.80133
0.796937 0.6425 -1.77828
0.815174 0.828507 -1.45706
0.3775 1.05205 1.94953
0.791449 0.8575 1.88825
0.784143 1.03081 1.61525
-0.871081 0.245227 -0.928133
-0.867057 0.273457 -0.331881
-0.877403 0.413567 -0.606347
-0.43848 0.248762 -0.630007
-0.889915 0.299011 0.860623
-0.870824 0.293896 0.264371
-0.890166 0.462767 0.595262
-0.451132 0.250144 0.562497
-0.826335 0.886335 -0.842598
-0.878241 0.754029 -0.559027
-0.810006 0.916672 -0.228136
-0.46058 1.13771 -0.535367
-0.804463 1.00446 1.00079
-0.879927 0.824672 0.660792
-0.796587 0.94992 0.386326
-0.47631 1.30626 0.693557
0.87095 0.245358 -0.928133
0.438423 0.248761 -0.630007
0.86705 0.273464 -0.331881
0.87742 0.413598 -0.606347
0.892081 0.296844 0.860623
0.451126 0.250144 0.562497
0.870833 0.293887 0.264371
0.890169 0.462762 0.595262
0.826316 0.886316 -0.842598
0.460579 1.13771 -0.535367
0.878239 0.754046 -0.559027
0.810084 0.91675 -0.228136
0.804464 1.00446 1.00079
0.476286 1.30627 0.693557
0.879936 0.824661 0.660792
0.79657 0.949904 0.386326
-0.8921 0.52654 -1.49647
-0.410752 0.51 -2.06539
-9.51959e-06 0.241006 -1.52635
0 0.375534 -2.13738
-0.890229 0.393533 -1.20715
-0.430119 0.241308 -1.22626
-0.896322 0.676531 1.54136
-0.411606 0.69 2.11794
-1.07837e-06 0.308819 1.46128
0 0.518097 2.11507
-0.89535 0.502871 1.19607
-0.429175 0.313305 1.15875
0 0.905311 -1.48804
0 0.673485 -2.13934
-0.896102 0.709985 -1.16894
-0.420111 0.942479 -1.14983
-4.18966e-06 1.10675 1.63133
0 0.873576 2.07576
-0.893314 0.844002 1.2707
-0.400809 1.19233 1.30802
0.892099 0.52655 -1.49648
0.410756 0.51 -2.06538
0.890229 0.393542 -1.20715
0.430101 0.241308 -1.22626
0.896323 0.676528 1.54135
0.411597 0.69 2.11785
0.895349 0.503008 1.19607
0.429033 0.313315 1.15875
0.896102 0.70995 -1.16894
0.420067 0.942477 -1.14983
0.893325 0.843997 1.2707
0.400799 1.19233 1.30802
-0.875414 0.442307 -0.0055425
-0.442938 0.249391 -0.033755
-0.895403 0.559621 -0.885365
-0.87154 0.591152 -0.280008
-2.85588e-05 0.241563 -0.928133
-2.96371e-05 0.248499 -0.331881
-0.873301 0.621133 0.325348
-0.896043 0.649593 0.930705
-1.27547e-05 0.249406 0.264371
-3.2351e-06 0.250355 0.860623
-0.877021 0.788956 0.0508825
-0.487188 1.30945 0.079095
0 1.00765 -0.842598
-4.18966e-06 1.29475 -0.228136
-1.2569e-05 1.34469 0.386326
-1.2569e-05 1.28169 1.00079
0.875416 0.442313 -0.0055425
0.442918 0.24939 -0.033755
0.895403 0.559649 -0.885365
0.871545 0.591177 -0.280008
0.873307 0.621133 0.325348
0.896042 0.649583 0.930705
0.876864 0.788882 0.0508825
0.487163 1.30942 0.079095
-0.885885 0.385517 -1.51043
-0.894996 0.404297 -0.906749
-0.887929 0.723623 -0.863981
-0.895306 0.676243 -1.47677
0.885884 0.385521 -1.51043
0.895306 0.676225 -1.47677
0.887917 0.723615 -0.863981
0.894997 0.40433 -0.906749
-0.42381 0.241032 -1.52537
0.4238 0.241032 -1.52537
0.433634 0.241583 -0.928133
-0.433681 0.241583 -0.928133
-0.406306 0.886608 -1.47255
-0.413812 0.985198 -0.842598
0.41379 0.985199 -0.842598
0.406283 0.886621 -1.47255
-0.414126 0.376517 -2.0433
-0.401626 0.657993 -2.02918
0.401628 0.657993 -2.0295
0.414128 0.376517 -2.0433
-0.876087 0.428098 -0.305945
-0.880715 0.453574 0.29486
-0.876746 0.80595 0.355837
-0.877334 0.771344 -0.254072
0.876097 0.428116 -0.305945
0.877308 0.771342 -0.254072
0.876759 0.805951 0.355837
0.880715 0.453576 0.29486
-0.440688 0.249119 -0.331881
0.440649 0.249119 -0.331881
0.447002 0.249806 0.264371
-0.447015 0.249807 0.264371
-0.487713 1.25124 -0.228136
-0.487493 1.31935 0.386326
0.487477 1.31935 0.386326
0.487683 1.25119 -0.228136
-0.896906 0.48501 0.895664
-0.893368 0.512686 1.49912
-0.87321 0.850751 1.5783
-0.891173 0.82455 0.965746
0.89691 0.485078 0.895664
0.891176 0.824536 0.965746
0.873207 0.850749 1.5783
0.893368 0.512754 1.49911
-0.434251 0.250484 0.860623
0.434175 0.250484 0.860623
0.432075 0.331509 1.45908
-0.432146 0.33151 1.45908
-0.39976 1.27155 1.00079
-0.389154 1.10071 1.62329
0.389149 1.10074 1.62329
0.399738 1.27158 1.00079
-0.423361 0.520299 2.09593
0.423357 0.520299 2.09594
0.394548 0.865538 2.03638
-0.394553 0.865538 2.03647
-0.817306 0.31125 -1.80379
-0.62625 0.24114 -1.82637
-0.842689 0.243363 -1.67345
-0.864435 0.43875 1.78454
-0.652676 0.350083 1.75992
-0.863457 0.355725 1.60594
-0.783537 0.70875 -1.76385
-0.58875 0.795001 -1.78429
-0.800836 0.802502 -1.61067
-0.776339 0.94125 1.90848
-0.56625 1.04823 1.94571
-0.768354 1.02669 1.76886
0.62625 0.241134 -1.82638
0.81746 0.31125 -1.80394
0.842689 0.243362 -1.67345
0.652676 0.35003 1.75997
0.86441 0.43875 1.78451
0.864133 0.35505 1.60594
0.58875 0.794999 -1.78429
0.782563 0.70875 -1.76288
0.800837 0.802503 -1.61067
0.56625 1.04824 1.94572
0.776327 0.94125 1.90847
0.768336 1.02667 1.76886
-0.876226 0.246134 -0.77907
-0.86614 0.268323 -0.480944
-0.881759 0.330848 -0.618177
-0.6574 0.249492 -0.630007
-0.881467 0.301407 0.71156
-0.874716 0.296055 0.413434
-0.889823 0.377763 0.578879
-0.676574 0.250793 0.562497
-0.815801 0.887468 -0.688982
-0.849686 0.827721 -0.547197
-0.813717 0.908717 -0.381751
-0.665668 1.07376 -0.535367
-0.801051 0.989384 0.847172
-0.852194 0.906136 0.677174
-0.794467 0.959467 0.539941
-0.655866 1.17818 0.693557
0.876066 0.246294 -0.77907
0.657353 0.249491 -0.630007
0.866111 0.268352 -0.480944
0.881745 0.330894 -0.618177
0.88147 0.301404 0.71156
0.676568 0.250792 0.562497
0.87474 0.296031 0.413434
0.889825 0.377762 0.578879
0.81582 0.887487 -0.688982
0.665664 1.07376 -0.535367
0.849682 0.827728 -0.547197
0.813718 0.908718 -0.381751
0.801044 0.989377 0.847172
[...]
POINT_DATA 3682
SCALARS point_scalars float 1
LOOKUP_TABLE default
-77.8425
-48.7186
-55.9161
-38.1643
-77.9085
-48.5715
-55.8798
-38.0437
-41.4671
-35.6932
-49.0879
-43.8013
-41.4499
-35.6394
-49.0867
-43.8084
-91.4662
-91.4662
-44.1252
-35.2836
-42.9604
-38.4056
-34.1427
-91.4662
-93.1138
-42.3017
-36.2617
-47.1593
-35.1434
-32.3831
11.9771
-83.3021
-41.5614
-39.2465
-45.2359
-38.3251
-31.8362
-30.4188
-49.1936
-78.8414
-52.7043
-38.2929
-38.2929
-38.2929
45.772
-147.372
-41.8925
-36.0204
-40.4228
-34.3215
-31.9622
113.059
-33.1421
-31.326
140.974
-31.7148
-30.8659
-17.2116
-35.9647
-69.4134
-59.096
-35.7831
-34.6219
-32.3665
42.6715
-131.473
-41.8665
-35.8771
-40.4135
-34.1782
-31.8207
109.712
-32.3768
-30.5675
140.956
-31.5558
-30.7177
-17.2953
-35.9489
-69.3483
-59.2961
-35.5574
-34.0585
-30.9714
-91.6723
-91.6723
-44.0881
-35.2488
-43.0517
-38.2508
-34.0099
-91.6723
-92.8779
-42.2689
-36.2085
-47.0755
-35.016
-32.0251
11.7655
-83.6152
-41.5457
-39.2475
-45.123
-38.1942
-31.7527
-29.5604
-49.254
-78.5709
-52.7142
-38.173
-38.173
-38.173
-71.4489
-107.43
-54.943
-40.9683
-35.8954
-37.1613
-26.7062
-55.2242
-30.5451
-47.0804
-71.5746
-54.9475
-40.8142
-37.1374
-55.168
-47.067
-33.4746
-39.8051
-40.7906
-36.5223
-39.102
-49.4255
-7.95658
-66.2996
-33.461
-39.7884
-36.5101
-49.4053
-58.2742
-58.2548
-57.1922
-7.03154
205.342
-36.7898
-36.775
-35.7716
-86.5445
-40.9485
-40.901
-43.0507
-43.9925
-20.881
-66.4157
-126.077
-80.0805
-45.7286
-38.534
-36.886
-52.6158
-37.4468
-45.9641
-38.8743
-31.5706
-43.1294
-126.024
-66.4765
-80.0786
-38.425
-45.5398
-36.743
-37.3498
-53.1738
-46.0465
-31.503
-38.7439
-43.0737
-44.3735
-33.8189
-39.4261
-40.394
-43.4302
-33.5719
-36.1003
-39.0587
-46.9048
-41.6856
-51.7517
-18.6218
-46.0051
-38.0822
-46.9138
-62.6775
-44.3634
-40.388
-33.8081
-39.416
-43.9319
-39.0476
-33.5508
-36.0741
-46.8852
-18.6243
-41.6703
-51.7345
-46.0164
-62.7537
-38.0888
-46.8797
-86.9069
165.857
-74.565
120.44
-57.6569
-57.5078
-44.8034
-30.6354
-38.9184
-25.0306
-39.5279
-40.1624
-20.4676
169.634
-59.4164
-17.9699
-35.9819
-25.3872
-43.1402
-44.6835
-86.8664
165.852
-57.6481
-57.5025
-44.7184
-30.4776
-39.4818
-40.1352
-59.3967
-17.9543
-43.0924
-44.675
-35.1336
-35.3439
-47.3272
-37.4283
-46.9982
-36.5944
-35.861
-39.6437
-36.7123
-42.6204
-41.0366
-77.4322
16.3476
-79.6572
-76.8015
-54.4842
-35.1189
-35.3374
-47.31
-37.415
-35.8473
-39.628
-41.015
-77.4348
-88.2592
-46.4482
-47.5555
-78.6616
-88.2407
-78.6352
-47.5351
-46.4295
-77.5649
-77.5529
-46.8499
-46.8555
-24.5083
1.84342
1.90224
-24.5062
97.5309
123.684
123.646
97.5886
-35.5597
-34.1263
-39.5303
-42.2682
-35.5467
-42.255
-39.5245
-34.1081
-36.1896
-36.1841
-36.2721
-36.281
-66.0353
-68.3659
-68.3699
-66.0011
-40.2137
-41.7173
-49.3176
-40.3953
-40.2344
-40.3632
-49.225
-41.6414
-44.6917
-44.6786
-37.3983
-37.4421
-54.8061
-36.9084
-36.9269
-54.7994
-30.9396
-30.7854
-30.6258
-30.7527
-50.8916
-151.066
-108.241
-50.3165
-41.5401
-39.5204
-53.8306
-46.0054
-59.8167
-38.6771
-33.6959
-39.3076
-151.016
-51.0197
-108.178
-41.4269
-50.1358
-39.4943
-45.9473
-53.4534
-59.7481
-33.5864
-38.5466
-39.2119
-43.4226
-34.7328
-39.9044
-39.6457
-39.2584
-33.8704
-36.0425
-38.4675
-46.6137
-44.5389
-51.111
-50.3216
-45.4135
-40.4967
-45.124
-51.6516
-43.3733
-39.6358
-34.7244
-39.8965
-39.056
-38.4401
-33.8463
-36
-46.579
-50.4021
-44.5215
-51.0775
-45.4334
-51.6289
-40.5061
-45.1334
-71.7087
-65.6167
-94.7816
117.154
-112.781
-112.775
-89.0672
12.8959
-63.7887
-48.0231
-57.0311
-56.2857
-42.9432
-39.4937
-49.1453
-31.9095
-36.6177
-36.553
-37.2085
-29.126
-37.3416
-44.3365
-38.5868
-38.6683
-28.7664
-28.3477
-21.8386
-29.8311
-50.7608
-50.7765
-62.047
-30.8402
-30.7088
-30.6685
-33.3065
-25.8743
-45.0181
-47.4506
-45.1205
-47.3076
-71.809
-65.6422
-94.8014
117.167
-63.7868
-48.01
-57.0367
-56.2796
-42.7877
-39.3489
-49.0143
-31.8196
-37.2981
-44.169
-38.5345
-38.6406
-50.7057
-50.768
-62.0104
-30.8127
-44.9144
-47.5531
-45.0861
-47.3076
-33.5385
-33.8219
-34.4192
-34.569
-39.6938
-40.3785
-43.7657
-37.8873
-40.7036
-40.7013
-43.73
-37.9407
-36.1152
-37.1935
-35.951
-38.1727
-39.1337
-39.1286
-37.7205
-40.6489
-50.6064
-48.0513
-44.3151
-59.7063
-11.9259
-11.6531
14.1305
-36.3399
-65.5748
-65.5946
-71.3635
-60.7342
-33.5262
-33.8058
-34.4051
-34.5589
-39.6808
-40.3604
-43.7433
-37.8735
-36.0978
-37.1893
-35.9365
-38.1627
-50.5838
-48.0367
-44.2944
-59.6909
-69.1148
-58.2344
-58.5655
-51.1775
-69.0959
-58.2191
-58.5436
-51.1587
-64.6746
-57.4363
-57.435
-51.4179
-16.5375
-9.77623
-9.77272
4.08545
192.876
182.753
199.83
192.684
-35.8267
-37.1602
-36.2774
-38.4149
-35.8116
-37.1464
-36.2625
-38.3701
-35.6703
-35.9173
-36.0496
-35.6679
-84.3805
-85.9728
-83.0901
-84.4163
-42.4139
-40.1634
-41.9514
-40.0794
-42.3491
-40.1164
-41.9028
-40.0473
-40.831
-42.5785
-42.563
-44.6285
-39.2939
-44.0225
-44.0177
-48.9254
-25.3923
-22.5582
-23.9512
-25.077
-99.8063
82.0706
-97.0148
3.03982
-86.1023
-79.0549
-45.3743
-32.8257
-37.6132
-32.597
-39.9591
-37.1112
-82.8777
90.2435
-26.8427
50.3954
-58.0412
-29.2593
-43.9228
-31.9157
-33.9759
-30.6204
-47.021
-39.1243
-96.992
1.61331
-99.7821
81.9173
-86.1098
-79.0433
-37.5483
-32.4254
-45.3098
-32.709
-39.874
-37.0564
-26.8071
50.3836
-82.7246
90.2296
-58.1224
-29.2488
-33.942
-30.5013
-43.8057
-31.81
-46.9345
-39.2239
-46.1492
-46.2187
-34.7393
-35.4271
-44.2919
-36.1139
-43.4632
-37.6109
-42.215
-45.7847
-33.3292
-35.3515
-34.8205
-38.2481
-37.4083
-41.327
-47.6299
-21.5454
-43.2345
-41.8367
-46.0321
-70.8212
0.714045
-39.2697
-41.0789
-54.408
-38.5616
-39.1066
-42.7855
-53.9072
-65.571
-58.7209
-46.1328
-46.21
-43.4571
-37.6054
-34.7277
-35.369
-44.2607
-36.1006
-42.3751
-45.8068
-37.398
-41.3167
-33.3117
-35.3365
-34.8002
-38.2369
-47.6093
-21.5923
0.740912
-39.2781
-43.2181
-41.8242
-46.0192
-70.8258
-41.0636
-54.3833
-65.5644
-58.6954
-38.5566
-39.0929
-42.7784
-53.8704
-87.6694
-86.5098
148.686
155.821
-75.5633
-75.559
105.871
105.696
-68.9419
-50.4251
-65.7079
-51.419
-43.1983
-47.4808
-30.8269
-30.9791
-38.7167
-38.7467
-27.3798
-27.1938
-39.8238
-40.0512
-45.1836
-38.5454
-21.2608
-21.2198
152.57
150.634
-51.8281
-71.1758
-21.7573
-8.66904
-36.2345
-36.2268
-27.8099
-27.9831
-46.3267
-41.3191
-49.8677
-40.4653
-87.639
-86.4696
155.846
148.675
-68.9402
-50.407
-65.7007
-51.414
-47.3853
-43.1204
-30.6781
-30.8455
-39.8013
-39.9913
-45.1664
-38.5124
-71.1354
-51.8109
-8.60202
-21.7664
-41.2844
-46.2682
-40.4517
-49.8688
-35.3617
-34.2544
-35.5212
-35.6008
-46.952
-47.2148
-36.4381
-39.1784
-47.0633
-47.0644
-36.5935
-36.5913
-34.8718
-37.3144
-39.6106
-40.2516
-36.6343
-36.6382
-42.8596
-42.8515
-40.3044
-41.6181
-76.38
-73.203
13.7229
13.9905
-74.491
-74.5899
-75.3823
-75.404
-54.558
-54.5583
-35.3478
-34.2383
-35.5089
-35.5933
-47.197
-46.9323
-36.4245
-39.1656
-37.304
-34.855
-39.6058
-40.2365
-41.6026
-40.2955
-73.1847
-76.4228
-95.2676
-67.7706
-69.3775
-99.7382
-44.8375
-44.1094
-50.8909
-50.022
-44.1574
-52.3449
-51.4223
-43.4434
-75.5006
-91.4442
-69.0728
-70.1337
-95.1483
-99.7525
-69.3702
-67.7712
-75.4734
-70.0264
-69.0439
-91.346
-44.138
-43.4262
-51.404
-52.3295
-44.8023
-50.0018
-50.8722
-44.0803
-104.88
-91.3465
-65.3497
-65.2284
-104.863
-65.2208
-65.3482
-91.3393
-42.8758
-43.6912
-51.527
-50.3613
-42.8873
-50.3677
-51.5283
-43.6936
-32.7003
-31.2452
-17.7689
-22.8822
-33.9443
11.2843
0.880608
-26.2576
-33.9118
-26.2281
0.953152
11.5675
-32.6635
-22.7288
-17.7758
-31.1939
23.9911
105.633
172.855
6.36895
70.423
38.0123
179.801
111.678
70.6878
111.673
179.403
36.4989
23.7434
6.63854
172.675
105.595
-35.4999
-34.5351
-36.1763
-36.9408
-34.1839
-35.2363
-35.0797
-33.9404
-42.0611
-43.838
-37.8277
-36.886
-45.8546
-39.3495
-38.7606
-44.9234
-35.4889
-36.9266
-36.1621
-34.5229
-45.8373
-44.9027
-38.7461
-39.345
-42.0533
-36.8766
-37.8148
-43.8307
-34.16
-33.9244
-35.064
-35.2197
-36.6805
-37.8954
-35.8656
-34.7487
-36.6719
-34.7148
-35.8632
-37.8939
-36.5547
-37.6912
-35.9546
-34.7699
-36.5749
-34.7819
-35.9579
-37.6992
-71.3538
-64.1758
-84.3813
-35.8484
-51.9879
-70.4089
-81.5485
-56.3078
-51.9557
-56.286
-81.5813
-70.4267
-71.1729
-35.7761
-84.4452
-64.1651
-38.147
-40.1333
-39.8673
-38.1841
-42.9191
-48.0178
-41.2364
-38.8391
-42.6806
-48.3473
-43.9298
-47.0446
-40.9603
-38.2275
-40.3651
-42.0796
-38.1015
-38.1767
-39.841
-40.1005
-40.9718
-42.0394
-40.3329
-38.2117
-42.5581
-46.9163
-43.8637
-48.2946
-42.8662
-38.7754
-41.1736
-47.9627
-40.9312
-40.7432
-44.5859
-44.9792
-40.9093
-44.9515
-44.5733
-40.7373
-37.7582
-37.2446
-40.4275
-37.0617
-37.8323
-37.101
-40.4467
-37.2828
-51.4582
-50.649
-49.191
-60.1622
-35.8395
-33.4498
-39.6288
-43.0641
-35.7804
-43.0561
-39.6223
-33.4414
-51.4819
-60.1693
-49.1938
-50.6351
-35.5022
-30.1821
-26.4119
-32.1174
-35.3735
-32.0188
-26.1507
-30.1192
-32.0492
-28.3251
-27.1537
-31.8135
-32.1649
-31.8704
-27.5314
-28.4277
-45.2741
-139.226
-125.499
-51.4722
-44.9195
-40.8663
-60.4498
-54.4204
-67.7806
-38.3129
-35.912
-37.5809
-139.245
-45.4051
-125.594
-44.8026
-51.2904
-40.9262
-54.479
-59.4571
-67.7258
-35.7882
-38.187
-37.4751
-43.4638
-37.0574
-40.5561
-39.3672
-37.3175
-35.0949
-35.8243
-36.9928
-47.551
-46.5461
-50.1588
-60.9003
-44.4973
-41.7999
-44.4623
-46.8528
-43.4306
-39.3543
-37.0472
-40.5429
-37.222
-36.9437
-35.0654
-35.7739
-47.547
-60.9177
-46.5339
-50.1352
-44.5234
-46.8611
-41.8226
-44.3667
-72.5126
-69.0565
-104.065
55.2172
-109.131
-109.155
-98.7536
-80.7374
-58.3949
-51.2433
-56.4412
-55.3985
-41.9479
-39.9961
-46.2855
-33.6073
-36.0817
-36.0464
-36.3858
-32.3569
-36.8169
-38.7669
-37.6396
-37.6953
-27.2286
-26.7926
-24.4539
-37.8793
-51.6909
-54.982
-61.3201
-42.1104
-30.5916
-30.6075
-31.8164
-28.6488
-46.1644
-47.5528
-46.4614
-46.4443
-72.6192
-69.145
-104.104
55.2164
-58.3957
-51.2605
-56.4491
-55.3954
-41.7888
-39.8486
-46.1329
-33.4768
-36.7758
-38.7296
-37.5831
-37.6133
-51.8682
-54.9024
-61.2893
-42.0945
-46.1109
-47.5051
-46.4247
-46.4353
-33.5482
-33.8354
-34.1122
-33.8715
-39.8707
-39.9283
-42.1666
-38.4052
-40.7333
-40.7324
-42.6626
-38.9156
-36.2769
-36.8458
-36.1588
-37.3235
-39.0965
-39.0941
-38.3216
-39.879
-50.0833
-48.6379
-47.1646
-53.3283
-9.33692
-8.94901
5.31843
-20.1883
-65.9615
-65.9766
-69.1371
-63.5023
-33.5351
-33.8206
-34.0988
-33.8581
-39.8538
-39.9101
-42.145
-38.3913
-36.2619
-36.8371
-36.1445
-37.314
-50.0608
-48.6187
-47.1454
-53.3059
-63.2418
-58.2845
-58.5679
-54.4448
-63.2233
-58.2669
-58.547
-54.4259
-60.701
-57.2615
-57.2624
-54.1179
-13.1386
-7.75929
-7.75255
-1.49802
198.849
196.371
206.338
198.757
-36.2396
-37.012
-36.5702
-37.5441
-36.2246
-36.9976
-36.5549
-37.528
-35.742
-35.7854
-35.8625
-35.7407
-86.1877
-86.0675
-85.9312
-86.2149
-41.6287
-40.5309
-41.4667
-40.6129
-41.5731
-40.4849
-41.4186
-40.5726
-41.8283
-42.9466
-42.9382
-44.1718
-41.5508
-43.9545
-43.95
-46.2442
-22.6677
-21.4914
-21.718
-22.4384
-59.5751
-70.1371
-116.276
53.7093
-134.497
-118.474
-111.948
-86.9476
-90.1441
-70.5482
-83.2387
-78.9433
-47.2484
-44.2185
-49.0317
-35.3709
-39.4623
-37.8407
-37.7147
-35.146
-38.1093
-36.9072
-38.802
-37.0115
-44.8709
-54.7681
-84.9075
34.8822
-42.6816
-32.0725
-30.1306
-52.9662
-51.3875
-48.7262
-51.5652
-35.5448
-38.4956
-39.1895
-40.9956
-33.7477
-32.4262
-30.9683
-32.6705
-30.832
-41.1017
-43.9799
-44.9138
-40.568
-134.436
-118.45
-111.915
-85.9945
-59.655
-70.2233
-116.42
53.6592
-90.1066
-70.5457
-83.2456
-78.932
-39.3463
-37.7415
-37.6333
-35.0179
-47.0735
-44.0406
-48.886
-35.2207
-37.9193
-36.8018
-38.6888
-36.935
-42.6493
-31.8361
-30.0722
-53.1521
-45.0531
-55.0349
-84.9539
34.7136
-51.3707
-48.7164
-51.6782
-35.5295
-32.3369
-30.9176
-32.6251
-30.7306
-38.3658
-39.0485
-40.874
-33.6259
-41.0161
-43.9454
-44.8702
-40.5207
-43.0904
-45.0214
-45.1895
-45.3733
-34.3438
-33.7168
-34.2131
-34.5371
-39.6214
-39.6127
-42.3236
-37.0931
-40.1026
-40.5945
-42.3132
-38.5836
-39.1909
-49.2669
-43.7495
-45.8111
-33.6991
-33.6833
-33.3858
-34.3245
-36.1095
-36.1216
-35.4519
-37.0162
-38.7978
-39.1784
-38.1438
-40.0984
-47.5749
-47.9473
-48.0301
-35.7186
-42.6762
-41.0104
-41.888
-41.8793
-51.6434
-51.5529
-48.4604
-58.6142
-28.2958
-13.8711
-8.28287
-29.9486
-45.3976
-46.1746
-42.933
-50.0691
-39.2278
-37.5055
-38.1081
-38.5037
-46.181
-47.3171
-45.0043
-49.559
-58.6518
-64.6361
-64.8404
-61.2496
-43.0609
-45.0149
-45.1744
-45.3588
-40.0951
-40.5904
-42.3071
-38.5781
-34.332
-33.7048
-34.2024
-34.5263
-39.6051
-39.6039
-42.3128
-37.0771
-38.6877
-49.701
-44.3313
-46.1164
-38.7816
-39.1704
-38.1328
-40.0876
-33.675
-33.6646
-33.368
-34.3045
-36.0754
-36.1007
-35.4271
-36.9927
-47.5414
-47.9466
-48.0111
-35.7586
-28.359
-13.7983
-8.27438
-29.9298
-42.6589
-40.994
-41.8694
-41.865
-51.6027
-51.5476
-48.4417
-58.5994
-45.4172
-46.224
-42.928
-50.0749
-58.4694
-64.6638
-64.8463
-61.2662
-39.2339
-37.5088
-38.0964
-38.4992
-46.4403
-47.3047
-44.9736
-49.5409
-94.5227
-77.0341
-87.3824
-86.4053
143.956
181.974
158.283
170.733
-81.014
-69.2309
-74.8356
-74.8369
68.9446
159.453
104.898
103.495
-57.339
-58.1079
-62.7345
-53.7824
-57.1314
-57.5899
-61.2567
-54.2557
-46.5072
-43.5349
-43.9683
-45.9892
-31.4846
-28.4013
-30.6436
-30.7668
-38.0944
-39.9171
-38.8614
-38.876
-26.6972
-23.408
-25.7589
-25.6403
-39.1932
-39.8285
-39.5273
-39.6483
-39.3941
-41.7213
-41.3109
-39.1234
-21.4805
-18.7574
-20.4282
-20.3794
109.182
189.999
161.39
172.324
-60.7221
-58.763
-55.294
-64.1446
-23.186
-13.1538
-20.3489
-13.3265
-34.6133
-37.5092
-36.0552
-36.0524
-25.576
-25.4643
-26.2656
-26.4476
-44.0265
-42.4726
-44.2295
-41.9383
-45.7958
-44.1869
-47.1677
-42.4872
-94.5312
-77.0064
-87.3486
-86.3618
143.914
181.904
170.738
158.259
-57.3373
-58.0954
-62.7293
-53.769
-57.1255
-57.5859
-61.2506
-54.2507
-46.4039
-43.4602
-45.8992
-43.8869
-31.3882
-28.1344
-30.4912
-30.6134
-39.1465
-39.7812
-39.4911
-39.5957
-39.3681
-41.6998
-41.2882
-39.0931
-60.7006
-58.7418
-64.0876
-55.2743
-23.1593
-13.1501
-13.2927
-20.347
-43.9873
-42.4237
-41.8946
-44.1755
-45.786
-44.1805
-42.4756
-47.1686
-34.7877
-35.4668
-35.2445
-34.7725
-35.0035
-35.5516
-35.3746
-35.4253
-45.4507
-48.8685
-47.1476
-47.3881
-37.5971
-37.2732
-36.8707
-38.1832
-45.2273
-49.0596
-46.9829
-46.9831
-37.1722
-36.1779
-36.5786
-36.5943
-35.8556
-36.0224
-35.2852
-36.5857
-38.8136
-39.986
-39.3825
-39.982
-37.1774
-36.3338
-36.6962
-36.698
-41.573
-43.9553
-42.6492
-42.6448
-42.5947
-39.4056
-40.6756
-41.2944
-69.6627
-81.6884
-74.7818
-76.2333
18.6219
10.0632
15.7091
15.9173
-57.9277
-87.6877
-77.3497
-76.9225
-73.7247
-80.0982
-76.501
-76.5196
-57.5238
-51.7748
-54.488
-54.4897
-34.7732
-35.4518
-35.2303
-34.7577
-34.9952
-35.5469
-35.3683
-35.4184
-45.4334
-48.85
-47.3715
-47.1287
-37.5834
-37.2601
-36.857
-38.1701
-35.8283
-36.0076
-36.5738
-35.2708
-38.8028
-39.9644
-39.3721
-39.9641
-42.5659
-39.3879
-41.2848
-40.6506
-69.6451
-81.714
-76.2312
-74.7897
-96.7583
-87.921
-88.0379
-77.2388
-46.2485
-45.818
-48.1409
-46.7613
-47.3384
-44.6426
-50.0278
-47.3545
-78.3671
-70.5909
-85.9596
-78.6044
-96.726
-87.9128
-88.0117
-77.2314
-78.2585
-70.5948
-85.9193
-78.5501
-47.3201
-44.6259
-50.0137
-47.335
-46.2297
-45.7957
-48.1218
-46.7419
-86.0181
-78.2854
-76.6032
-70.9654
-86.0021
-78.2735
-76.593
-70.9564
-46.5125
-45.0405
-48.9927
-47.0171
-46.4992
-45.0463
-48.9979
-47.0209
-24.8066
-26.8772
-22.6378
-23.6817
-8.33758
3.4191
-3.08532
8.76335
-8.34879
3.48955
-2.99558
8.9401
-24.7929
-26.8724
-22.6269
-23.6881
104.281
41.8988
130.12
97.5315
103.08
100.333
130.982
137.848
100.213
103.024
137.661
130.967
41.8857
104.459
97.4766
130.184
-35.0972
-35.6923
-35.4143
-36.0304
-33.5848
-34.3729
-33.9796
-34.5556
-39.1735
-40.9521
-38.3189
-40.0214
-42.2592
-44.2286
-40.6026
-42.1205
-35.0847
-35.6792
-35.4015
-36.0169
-42.2488
-44.2149
-40.5901
-42.115
-39.1711
-40.9482
-38.31
-40.0137
-33.5673
-34.3534
-33.9621
-34.5373
-35.8551
-36.8294
-35.7461
-36.4135
-36.824
-35.8482
-36.4097
-35.7405
-36.8172
-35.9212
-36.5048
-35.8604
-35.9329
-36.827
-35.8686
-36.5111
-67.5284
-50.9401
-74.9337
-71.0151
-61.6903
-66.178
-70.9091
-72.9318
-66.1812
-61.6708
-72.9497
-70.8928
-50.9482
-67.3943
-71.0559
-74.9376
-40.8363
-39.8062
-39.886
-39.7516
-43.1549
-40.9095
-42.4794
-40.7008
-46.7611
-48.8617
-48.7078
-49.2595
-40.4273
-39.6663
-40.968
-40.4806
-40.9097
-39.8179
-39.8834
-39.7565
-40.4029
-39.6519
-40.9352
-40.4585
-46.657
-48.768
-48.6028
-49.1735
-43.0762
-40.8333
-42.403
-40.6306
-45.2332
-42.7723
-48.9036
-43.5351
-45.3212
-42.762
-48.8861
-43.5234
-37.6175
-37.278
-38.421
-37.9638
-37.6709
-37.3266
-38.4565
-38.0006
-55.1458
-56.8157
-52.3746
-54.7105
-35.4724
-37.7008
-36.4511
-38.6332
-35.4457
-37.6482
-36.4297
-38.6157
-55.1278
-56.8062
-52.377
-54.7111
-32.0829
-31.3111
-30.811
-29.2486
-31.167
-31.9627
-29.0571
-30.6589
-30.4859
-31.3199
-29.418
-30.8135
-31.4257
-30.6135
-30.9338
-29.5839
-126.593
24.8894
-127.859
-48.2356
-96.7416
-108.317
-48.2915
-38.575
-38.9938
-38.1863
-41.4753
-38.3687
-86.7779
20.1703
-37.5483
-1.43975
-69.2577
-39.8644
-40.1244
-33.9137
-34.5202
-32.9074
-41.4405
-37.7351
-127.838
-48.1669
-126.938
24.8814
-96.7748
-108.298
-38.9069
-38.0529
-48.1719
-38.4216
-41.4603
-38.3105
-37.4998
-1.00542
-87.0229
19.9664
-69.1697
-39.7932
-34.4445
-32.7808
-40.0003
-33.7895
-41.3172
-37.6613
-44.0213
-42.665
-34.7688
-35.7541
-42.4675
-36.7371
-41.547
-37.7844
-38.2732
-41.3597
-33.7678
-35.3962
-35.095
-37.0505
-37.3473
-39.6672
-45.3713
-48.2301
-43.4467
-45.2844
-48.2353
-60.555
-39.7105
-55.5718
-43.2331
-48.2614
-41.2832
-40.5024
-43.7419
-47.7383
-50.9477
-51.5243
-43.9729
-42.6449
-41.5363
-37.7752
-34.7606
-35.7429
-42.4322
-36.7212
-38.1325
-41.1764
-37.3234
-39.6369
-33.7449
-35.37
-35.0644
-36.9962
-45.3493
-48.0999
-39.6854
-55.6807
-43.4307
-45.2674
-48.2107
-60.4935
-43.2637
-48.2922
-50.9247
-51.5328
-41.2766
-40.5134
-43.7706
-47.7276
-111.16
57.0005
-94.8164
53.9343
-97.3654
-93.3541
113.026
118.87
-102.379
-96.3176
-102.374
-82.4322
-89.5686
-89.5731
4.36871
3.12267
-66.1753
-64.3238
-48.5413
-49.3652
-61.8236
-53.209
-60.4578
-53.1019
-48.8062
-34.2781
-42.7669
-33.1914
-48.6053
-48.6471
-31.9578
-31.8646
-36.9293
-33.0764
-36.8793
-32.9931
-37.2366
-37.2575
-29.3963
-29.2989
-38.1315
-36.9035
-41.2558
-45.1381
-38.7929
-38.5969
-40.3823
-37.6465
-24.9023
-45.583
-24.6581
-44.1064
-22.1647
-21.9707
18.0842
-12.4166
-57.8391
-40.2696
-53.5394
-40.0338
-56.999
-65.9027
-30.6361
-28.8517
-32.0052
-29.8193
-31.9935
-29.8447
-33.3233
-33.3211
-27.0885
-27.4691
-47.1932
-44.0067
-43.4583
-48.6883
-45.9662
-43.4172
-49.0232
-45.6476
-111.212
56.9525
-94.9891
53.8735
-97.3919
-93.357
118.862
113.012
-66.1768
-64.3181
-48.5245
-49.3558
-61.8222
-53.2108
-60.4513
-53.1654
-48.6052
-34.1386
-42.6296
-33.0693
-48.5178
-48.4733
-31.8655
-31.7798
-38.0681
-36.8551
-41.1858
-45.0964
-38.7549
-38.5433
-40.3552
-37.6176
-57.7283
-40.2366
-53.5269
-40.0187
-65.8453
-56.9691
-28.8185
-30.6051
-47.0991
-43.9654
-43.481
-48.6693
-43.3319
-45.9109
-45.5928
-49.0162
-34.0568
-33.9809
-34.0081
-34.0589
-34.3296
-34.4145
-34.6176
-34.6529
-42.144
-37.8848
-42.1321
-39.6052
-43.9245
-43.6408
-37.4072
-38.5622
-42.5636
-38.8193
-42.5605
-38.8181
-43.7092
-43.7101
-37.9935
-37.9926
-35.7071
-36.9991
-36.8753
-37.7348
-35.5821
-36.3142
-38.2035
-38.2102
-38.3728
-39.9435
-38.3682
-39.9381
-37.6659
-37.6678
-40.7551
-40.7521
-47.4741
-55.6238
-46.1048
-51.5079
-44.0414
-44.4179
-61.617
-58.0649
0.82601
-23.852
0.983036
-23.7093
13.6341
13.8356
-38.1997
-37.9483
-68.191
-62.9458
-68.2203
-62.9584
-71.1405
-71.1495
-60.5908
-60.5897
-34.045
-33.9695
-33.9922
-34.0433
-34.3167
-34.4004
-34.6078
-34.6421
-42.1291
-37.8699
-42.1131
-39.5918
-43.6239
-43.9036
-37.3931
-38.5487
-35.6884
-36.9854
-36.8609
-37.7325
-36.3023
-35.5662
-38.195
-38.1986
-47.4547
-55.6036
-46.0945
-51.4778
-44.3993
-44.0249
-58.0366
-61.5955
-69.2417
-69.0322
-63.2839
-54.3465
-54.6922
-63.1878
-51.1101
-51.3579
-69.228
-69.0075
-63.2758
-54.3295
-63.1626
-54.6726
-51.3391
-51.0913
-65.0026
-65.0032
-60.9823
-54.2995
-60.9808
-54.2983
-51.4451
-51.4448
-16.8851
-16.8863
-15.1779
-4.42896
-4.39346