# vtk DataFile Version 2.0
tri_press
ASCII
DATASET UNSTRUCTURED_GRID
POINTS 3682 float
-0.765395 0.155 -2.115
-0.681451 0.255 2.315
-0.755 0.825 -1.95387
-0.645 1.02856 2.135
0.7654 0.155 -2.115
0.681457 0.255 2.315
0.755 0.825 -1.95387
0.645 1.02856 2.135
-0.817468 0.108279 -0.638333
-0.816392 0.114707 0.838334
-0.788505 0.963025 -0.590914
-0.766582 1.04562 0.772043
0.817461 0.108292 -0.638333
0.816765 0.11434 0.838334
0.788534 0.963054 -0.590914
0.766577 1.04562 0.772043
-1.55174 -0.303993 -3.26676
-1.55783 -0.270454 -2.13097
-1.58988 -0.302468 -0.651364
-1.57478 -0.303618 0.851127
-1.48592 -0.209813 2.33266
-1.46061 -0.147717 3.47789
-1.46816 -0.104593 4.60565
-1.55049 0.0860982 -3.22708
-1.55461 0.140005 -2.10371
-1.5947 0.125724 -0.646225
-1.56616 0.126875 0.821491
-1.43816 0.212493 2.28115
-1.42823 0.272389 3.42478
-1.45064 0.315516 4.55624
-1.54565 0.823969 -3.11579
-1.5433 0.875802 -1.98772
-1.57082 0.971531 -0.607756
-1.52869 1.02503 0.764152
-1.40659 1.03489 2.14629
-1.41068 1.09186 3.29462
-1.44165 1.14543 4.44443
-1.54651 2.02589 -3.03436
-1.54652 2.09417 -1.92332
-1.55074 2.21082 -0.58022
-1.53856 2.30215 0.738368
-1.50645 2.34313 2.08265
-1.48884 2.37331 3.19618
-1.48652 2.41286 4.33356
-0.772451 -0.295991 -3.2741
-0.767295 -0.259263 -2.14167
-0.799797 -0.311007 -0.649929
-0.811101 -0.311631 0.865502
-0.750116 -0.187449 2.35779
-0.73048 -0.131618 3.49494
-0.735858 -0.096023 4.61552
-0.774747 0.0880779 -3.22934
-0.704381 0.288958 3.43884
-0.72309 0.323584 4.56369
-0.772047 0.804215 -3.10173
-0.691499 1.09416 3.29236
-0.717511 1.14832 4.44394
-0.771159 2.01173 -3.02045
-0.769629 2.08043 -1.908
-0.777629 2.20814 -0.570986
-0.781872 2.3078 0.73726
-0.768732 2.34565 2.07474
-0.755595 2.37359 3.18828
-0.751616 2.41309 4.32782
0.777195 -0.295997 -3.2741
0.790849 -0.259267 -2.14167
0.813348 -0.311043 -0.649929
0.784638 -0.311877 0.865502
0.69621 -0.187544 2.35779
0.702978 -0.131691 3.49494
0.715486 -0.0961021 4.61552
0.765257 0.0880748 -3.22934
0.695888 0.288909 3.43884
0.712742 0.323514 4.56369
0.759619 0.804214 -3.10173
0.68404 1.09413 3.29236
0.708187 1.14826 4.44394
0.775003 2.01172 -3.02045
0.778544 2.08043 -1.908
0.77037 2.20813 -0.570986
0.737734 2.30777 0.73726
0.704008 2.3456 2.07474
0.702628 2.37354 3.18827
0.711355 2.41303 4.32782
1.55595 -0.304011 -3.26676
1.57057 -0.27047 -2.13097
1.59907 -0.302558 -0.651364
1.56708 -0.30396 0.851127
1.4656 -0.210051 2.33266
1.44488 -0.147892 3.47789
1.45333 -0.10476 4.60565
1.54381 0.0860886 -3.22708
1.55345 0.140006 -2.10371
1.59689 0.125683 -0.646225
1.5747 0.126517 0.821491
1.44929 0.212288 2.28115
1.42997 0.272242 3.42478
1.4453 0.315364 4.55624
1.53552 0.823964 -3.11579
1.54009 0.87581 -1.98772
1.57129 0.971539 -0.607756
1.53636 1.0249 0.764151
1.41815 1.03476 2.14629
1.41335 1.09174 3.29462
1.43714 1.1453 4.44443
1.54843 2.02587 -3.03436
1.5517 2.09416 -1.92332
1.54379 2.21079 -0.58022
1.50508 2.30208 0.738367
1.45743 2.34303 2.08265
1.44577 2.37319 3.19618
1.45151 2.41274 4.33356
-0.820208 0.49 -2.09445
2.5034e-06 0.157862 -2.11214
-0.804522 0.118549 -1.37667
-0.703758 0.64178 2.26553
2.98023e-06 0.25321 2.31679
-0.80189 0.131885 1.57667
0 0.876626 -2.0055
-0.80224 0.9245 -1.27239
0 1.05878 2.16522
-0.764299 1.0956 1.45352
0.820312 0.49 -2.09455
0.804531 0.118545 -1.37667
0.70376 0.64178 2.26553
0.802163 0.131617 1.57667
0.802243 0.924503 -1.27239
0.764283 1.09558 1.45352
-0.819116 0.109307 0.1
-0.879168 0.535652 -0.614623
-3.70183e-06 0.145338 -0.638333
-0.878313 0.580165 0.805188
0.000186318 0.158851 0.838334
-0.787537 1.01432 0.090565
1.42825e-05 1.25625 -0.590914
-2.82911e-06 1.45353 0.772043
0.819225 0.109204 0.1
0.879175 0.535673 -0.614623
0.878317 0.579978 0.805188
0.786234 1.01301 0.090565
-0.893275 0.512826 -1.32453
0.893288 0.512836 -1.32453
-5.99219e-07 0.166743 -1.37667
7.14126e-06 0.996148 -1.27239
1.2517e-06 0.49 -2.35927
-0.865204 0.557908 0.0952825
0.865207 0.557826 0.0952825
9.13081e-05 0.149467 0.1
5.7267e-06 1.45353 0.090565
-0.885624 0.610972 1.51509
0.885628 0.610879 1.51509
9.46492e-05 0.196396 1.57667
-1.41455e-06 1.27896 1.45352
1.49012e-06 0.64178 2.33143
-0.802122 0.3225 -2.11404
-0.382696 0.154122 -2.11588
-0.800468 0.121265 -1.74583
-0.698551 0.44839 2.29621
-0.340724 0.253526 2.31647
-0.746974 0.188139 1.94583
-0.808409 0.6575 -2.04496
-0.3775 0.85994 -1.98881
-0.788779 0.884909 -1.61313
-0.679023 0.83517 2.20491
-0.3225 1.04853 2.15497
-0.702886 1.06032 1.79426
0.382701 0.153196 -2.1168
0.802102 0.3225 -2.11402
0.800494 0.121244 -1.74583
0.34073 0.253584 2.31642
0.698554 0.44839 2.29621
0.745862 0.189256 1.94583
0.3775 0.859927 -1.9888
0.808232 0.6575 -2.04478
0.788751 0.884881 -1.61313
0.3225 1.04853 2.15497
0.679024 0.83517 2.20491
0.702914 1.06034 1.79426
-0.815907 0.108502 -1.0075
-0.818756 0.108329 -0.269167
-0.839316 0.326467 -0.626478
-0.404984 0.134312 -0.638333
-0.805254 0.127183 1.2075
-0.819453 0.110308 0.469167
-0.877034 0.332595 0.821761
-0.407462 0.138061 0.838334
-0.807469 0.955859 -0.931653
-0.882736 0.773789 -0.602769
-0.781743 0.982393 -0.250174
-0.452901 1.22695 -0.590914
-0.763989 1.06916 1.11278
-0.863223 0.833282 0.788616
-0.770665 1.02357 0.431304
-0.478737 1.44047 0.772043
0.815904 0.10851 -1.0075
0.404078 0.136115 -0.638333
0.818746 0.108345 -0.269167
0.839323 0.32648 -0.626478
0.807459 0.124984 1.2075
0.396837 0.159874 0.838334
0.819772 0.109995 0.469167
0.877037 0.332411 0.821761
0.807486 0.955876 -0.931653
0.452915 1.22693 -0.590914
0.882744 0.773808 -0.602769
0.783006 0.983656 -0.250174
0.763986 1.06916 1.11278
0.478743 1.44049 0.772043
0.863221 0.833185 0.788616
0.770743 1.02365 0.431304
-0.884161 0.501413 -1.70949
-0.410103 0.49 -2.28252
9.52088e-07 0.164779 -1.7444
1.87755e-06 0.323931 -2.36048
-0.891266 0.315688 -1.3506
-0.402261 0.135506 -1.37667
-0.864714 0.626376 1.89031
-0.351878 0.64178 2.3245
4.88147e-05 0.218186 1.94673
2.23517e-06 0.447495 2.37601
-0.885105 0.371429 1.54588
-0.400898 0.185659 1.57667
3.57063e-06 0.945923 -1.63894
6.25849e-07 0.683313 -2.29922
-0.895692 0.718663 -1.29846
-0.401117 0.988278 -1.27239
-7.07277e-07 1.1014 1.80937
7.45058e-07 0.850278 2.27021
-0.86359 0.853286 1.48431
-0.38215 1.26682 1.45352
0.884157 0.501418 -1.70954
0.410157 0.49 -2.28259
0.891265 0.315691 -1.3506
0.402265 0.141989 -1.37667
0.864716 0.62633 1.89031
0.351881 0.64178 2.3244
0.885108 0.371248 1.54588
0.401129 0.175482 1.57667
0.895692 0.71867 -1.29846
0.401125 0.988283 -1.27239
0.863599 0.853231 1.48431
0.382141 1.26682 1.45352
-0.824012 0.342681 0.0976413
-0.406796 0.13482 0.1
-0.883237 0.524239 -0.969576
-0.872228 0.54678 -0.25967
-2.15053e-06 0.159013 -1.0075
4.38032e-05 0.147043 -0.269167
-0.867676 0.569037 0.450235
-0.895339 0.595568 1.16014
0.000138813 0.150915 0.469167
0.000140484 0.188313 1.2075
-0.872733 0.809294 0.0929237
-0.497467 1.44133 0.090565
1.07119e-05 1.06059 -0.931653
1.00046e-05 1.41041 -0.250174
1.4488e-06 1.45354 0.431304
-2.12183e-06 1.40787 1.11278
0.823998 0.342623 0.0976413
0.40508 0.138491 0.1
0.883245 0.524255 -0.969576
0.872227 0.546749 -0.25967
0.867663 0.568902 0.450235
0.895341 0.595429 1.16014
0.872778 0.808949 0.0929237
0.497175 1.44138 0.090565
-0.891319 0.319094 -1.72766
-0.883036 0.318827 -0.988538
-0.890438 0.734001 -0.950615
-0.894344 0.688082 -1.66131
0.891318 0.319095 -1.72769
0.894344 0.688085 -1.66133
0.890441 0.734016 -0.950615
0.883036 0.318837 -0.988538
-0.392479 0.13529 -1.74512
0.392483 0.144914 -1.74512
0.405497 0.133925 -1.0075
-0.405498 0.121928 -1.0075
-0.389308 0.936425 -1.62604
-0.397681 1.02623 -0.931653
0.3977 1.02623 -0.931653
0.389312 0.936414 -1.62604
-0.3964 0.323215 -2.29919
-0.393802 0.670407 -2.24177
0.393828 0.670407 -2.24169
0.396429 0.323215 -2.29918
-0.83163 0.334591 -0.264419
-0.830076 0.347862 0.459701
-0.867928 0.821263 0.44077
-0.87758 0.791464 -0.254922
0.831627 0.334568 -0.264419
0.877627 0.791312 -0.254922
0.867957 0.821045 0.44077
0.830048 0.347752 0.459701
-0.40589 0.134566 -0.269167
0.404875 0.136711 -0.269167
0.399093 0.152912 0.469167
-0.409276 0.132147 0.469167
-0.501542 1.38685 -0.250174
-0.488706 1.44211 0.431304
0.488557 1.44213 0.431304
0.501409 1.38689 -0.250174
-0.89398 0.359432 1.18382
-0.850716 0.409909 1.91807
-0.838339 0.844228 1.84229
-0.863532 0.83309 1.13646
0.893984 0.359204 1.18382
0.863554 0.833014 1.13646
0.838355 0.844201 1.84229
0.850704 0.409819 1.91807
-0.4045 0.172017 1.2075
0.404802 0.167556 1.2075
0.37093 0.222145 1.94628
-0.370811 0.240201 1.94628
-0.382722 1.3992 1.11278
-0.352325 1.09512 1.80181
0.35232 1.09512 1.80181
0.382714 1.39922 1.11278
-0.346301 0.447943 2.36958
0.346305 0.447943 2.36958
0.33719 0.842724 2.26207
-0.337189 0.842724 2.26207
-0.793441 0.23875 -2.1242
-0.574046 0.153672 -2.11633
-0.798424 0.12264 -1.93042
-0.682929 0.351695 2.29853
-0.511088 0.259239 2.31076
-0.714061 0.221721 2.13042
-0.779976 0.74125 -1.99769
-0.56625 0.841886 -1.97076
-0.775903 0.858968 -1.7835
-0.663206 0.931865 2.17115
-0.48375 1.04077 2.14721
-0.674347 1.04484 1.96463
0.574051 0.153524 -2.11648
0.793471 0.23875 -2.12423
0.798455 0.122614 -1.93042
0.511093 0.259241 2.31076
0.682868 0.351695 2.29847
0.714055 0.221733 2.13042
0.56625 0.841864 -1.97073
0.779979 0.74125 -1.99769
0.775878 0.858943 -1.7835
0.48375 1.04076 2.1472
0.663187 0.931865 2.17113
0.674337 1.04483 1.96463
-0.816559 0.108519 -0.822917
-0.818112 0.108304 -0.45375
-0.825412 0.218863 -0.632406
-0.610724 0.1223 -0.638333
-0.809792 0.121976 1.02292
-0.819515 0.110915 0.65375
-0.875719 0.209148 0.830047
-0.611268 0.127702 0.838334
-0.792679 0.954134 -0.761283
-0.852381 0.876787 -0.596841
-0.785374 0.972959 -0.420544
-0.661273 1.17613 -0.590914
-0.770435 1.06254 0.942413
-0.83505 0.949526 0.78033
-0.769413 1.03539 0.601674
-0.648922 1.29557 0.772043
0.816551 0.108532 -0.822917
0.610819 0.122104 -0.638333
0.818103 0.108318 -0.45375
0.825422 0.218871 -0.632406
0.808369 0.123405 1.02292
0.610687 0.129335 0.838334
0.819944 0.110491 0.65375
0.875722 0.208965 0.830047
0.793102 0.954557 -0.761283
0.66129 1.17613 -0.590914
[...]
POINT_DATA 3682
SCALARS point_scalars float 1
LOOKUP_TABLE default
-87.945
-40.7105
-77.574
-40.8064
-85.5421
-40.6037
-77.6457
-40.7518
-38.5252
-43.635
-63.4703
-50.8612
-38.5201
-43.5728
-63.8619
-50.8413
-67.7983
-90.372
-38.8209
-42.102
-46.1482
-40.9108
-40.0325
7.42444
-94.6999
-39.042
-42.4324
-46.6287
-40.9108
-36.58
62.1062
-90.9405
-50.5816
-46.6372
-48.2957
-39.0582
-37.5152
-71.1742
-67.5478
-95.0251
-62.3485
-50.4576
-40.9528
-40.288
24.4294
-124.403
-38.2958
-43.8291
-40.4651
-39.2742
-37.238
85.4548
-36.1617
-35.8542
145.068
-37.7156
-36.6235
18.7437
-50.2294
-78.8714
-65.7281
-48.829
-39.4597
-38.7221
26.365
-122.642
-38.1615
-43.2328
-39.9944
-39.1811
-37.1073
86.3706
-36.0477
-35.7125
146.282
-37.6526
-36.4976
18.0924
-50.7806
-79.199
-65.564
-47.6586
-39.42
-38.7032
-65.9192
-91.8824
-38.7197
-42.4459
-46.0874
-40.826
-39.9308
9.35905
-95.6939
-39.0077
-43.1691
-46.5507
-40.826
-36.482
61.6632
-91.018
-50.7001
-46.5955
-48.2263
-38.9638
-37.4253
-71.2535
-67.6282
-98.4693
-62.4014
-50.4423
-40.902
-40.2306
-102.636
-126.846
-52.4495
-38.6756
-30.5288
-48.4149
-53.4634
-46.375
-40.1944
-55.6916
-95.4713
-52.4251
-38.5761
-48.9188
-46.3619
-55.6735
-36.0762
-42.9348
-41.1288
-41.9708
-45.7133
-53.3113
2.55854
-69.4744
-36.0448
-42.9497
-41.9302
-53.1454
-56.6817
-56.7158
-55.5701
-7.73969
205.078
-40.2849
-40.222
-39.9502
-99.196
-49.6328
-49.6104
-40.9452
-47.6446
-33.1594
-92.7276
-122.984
-76.665
-38.0471
-35.5722
-43.5404
-71.4293
-58.8963
-58.8739
-39.4937
-39.5704
-46.2998
-128.157
-91.8238
-77.7072
-35.4023
-37.941
-43.4205
-58.8842
-71.5776
-58.8642
-39.5571
-39.4127
-46.2841
-50.5565
-36.7906
-40.0697
-41.774
-43.2402
-34.8458
-43.8532
-46.5043
-46.8797
-49.1117
-61.5503
-3.36387
-49.2941
-45.2135
-54.3389
-65.9447
-50.336
-41.7694
-37.0263
-40.0652
-43.7895
-42.782
-34.4902
-43.8619
-46.8137
-3.17771
-49.2065
-61.7378
-49.3156
-65.9216
-45.1749
-54.279
-84.9799
172.514
-77.3214
188.71
-57.4085
-54.7466
-48.6732
-36.5714
-37.8267
-25.0395
-51.2597
-43.0581
-31.605
148.894
-54.7945
-14.7147
-42.2934
-35.2699
-51.3527
-48.5919
-85.109
172.293
-57.439
-55.0452
-48.6097
-36.493
-51.3718
-44.8666
-54.8319
-14.68
-51.3015
-48.5807
-37.393
-39.0764
-46.9306
-41.9464
-45.1453
-40.9011
-38.8998
-46.4291
-41.502
-41.0616
-46.728
-86.5356
18.4516
-95.6591
-77.2767
-59.9282
-37.3236
-40.3255
-46.918
-41.9374
-38.798
-46.4093
-46.7152
-86.5343
-86.7567
-49.435
-47.6066
-80.9623
-86.9175
-81.0795
-47.6326
-49.3797
-79.6311
-79.0955
-45.3808
-45.7072
-36.6366
5.95418
6.12263
-36.6243
159.211
119.52
120.659
159.132
-38.9892
-34.6613
-45.6905
-48.9488
-38.9866
-49.0136
-45.6126
-34.4645
-39.4329
-40.1259
-40.3613
-40.9824
-85.1501
-70.8339
-70.821
-85.3339
-47.1647
-46.0061
-49.6807
-46.3852
-47.1645
-46.4075
-49.6396
-45.9491
-41.3028
-42.1655
-38.9772
-38.4184
-60.8708
-42.8965
-42.8917
-60.8338
-33.4037
-33.2105
-37.3366
-37.4094
-55.9746
-130.7
-100.942
-38.5288
-38.7601
-41.6773
-74.3872
-71.6812
-70.7412
-40.3035
-39.4326
-43.1433
-127.322
-54.946
-102.303
-38.6277
-38.4296
-41.6291
-71.5746
-74.5309
-70.8346
-39.3997
-40.232
-43.1135
-41.7795
-37.4279
-39.1683
-40.8112
-43.9412
-31.6443
-43.3556
-45.1747
-54.4891
-54.535
-63.2834
-51.3003
-51.8058
-48.5451
-52.0274
-56.8791
-41.6224
-40.6723
-37.5956
-39.1554
-42.6033
-43.1075
-30.7089
-44.0257
-54.8305
-50.7158
-54.6971
-63.3718
-51.9091
-56.8888
-48.5308
-52.0762
-65.5541
-79.8936
-110.964
125.506
-124.668
-130.784
-93.8556
-11.4804
-61.6017
-46.352
-56.2943
-53.6944
-38.5052
-38.8461
-46.5173
-37.5001
-32.0327
-31.9241
-34.8027
-25.8968
-47.1307
-44.4661
-52.9818
-44.8733
-55.5618
-55.5381
-43.159
42.528
-48.8082
-44.5913
-51.1755
-24.5021
-40.0665
-40.0435
-41.3706
-36.7828
-50.389
-52.9775
-53.8292
-50.8686
-67.0508
-80.5534
-111.503
128.644
-61.8187
-46.3345
-56.3196
-53.7726
-38.3991
-38.7549
-46.4298
-37.4474
-47.1076
-44.7629
-53.1336
-46.0757
-48.8139
-44.5786
-51.2138
-24.366
-50.3867
-52.7864
-53.826
-50.8687
-36.7634
-36.171
-36.7747
-38.2921
-41.4788
-45.3528
-44.3764
-42.3815
-41.4621
-41.2882
-42.3932
-41.8614
-42.7522
-43.4342
-39.3246
-43.0776
-46.8311
-44.7567
-43.2072
-41.3142
-59.1377
-58.7726
-51.0658
-64.6317
2.03194
2.06808
23.4498
-42.0045
-68.7925
-68.7798
-72.1598
-67.5799
-36.8629
-36.1279
-36.7031
-39.0526
-41.4839
-45.3954
-44.3814
-42.4003
-42.7197
-43.4027
-39.2406
-43.0431
-58.8822
-58.6971
-50.6102
-64.6121
-67.4716
-57.4828
-55.8139
-52.0063
-67.5425
-57.5125
-55.8466
-52.0172
-65.0881
-55.3699
-55.5188
-48.4943
-19.3808
-9.57839
-9.55704
5.04126
194.653
201.539
176.625
194.617
-38.5478
-41.3032
-39.279
-42.8295
-38.479
-41.2717
-39.1902
-42.7685
-39.92
-40.4751
-40.4767
-40.0199
-97.854
-103.61
-86.0389
-97.8487
-48.3986
-50.2345
-50.4471
-49.8848
-48.2993
-50.2269
-50.3957
-49.8656
-39.8764
-41.9043
-43.2633
-40.6798
-44.3533
-47.8938
-47.8863
-52.5682
-34.3686
-28.0592
-34.0238
-34.2558
-112.037
134.464
-101.253
8.06564
-85.3243
-78.7701
-46.5144
-36.2169
-37.0978
-33.3084
-44.3953
-40.6896
-99.0271
81.2397
-48.9165
37.1931
-73.3503
-43.1594
-46.0111
-37.9445
-41.3342
-37.9772
-48.0436
-43.6999
-101.303
7.24868
-112.739
134.719
-85.5792
-79.8258
-36.8611
-33.1217
-46.4182
-36.0973
-44.3512
-40.6189
-48.9201
36.7842
-99.0663
81.1319
-73.4133
-43.1408
-41.3218
-37.9271
-45.9585
-37.8799
-48.0136
-43.6873
-50.2208
-46.0145
-38.0564
-38.5614
-41.7135
-39.4221
-44.1472
-40.2755
-46.7885
-42.0502
-33.7568
-39.6996
-30.5571
-42.1223
-43.0613
-41.3156
-47.8236
-13.3252
-48.0712
-49.4335
-54.4394
-85.455
12.5287
-36.4974
-47.7957
-62.6209
-45.146
-45.8729
-50.5344
-60.2808
-66.859
-66.9931
-50.162
-45.5173
-43.2736
-40.6133
-38.0614
-38.8193
-41.6946
-39.423
-46.8323
-42.8086
-41.3022
-41.2031
-33.464
-39.3968
-30.4139
-42.0692
-47.8683
-13.2375
12.6796
-36.6117
-48.0949
-49.5059
-54.6161
-84.9767
-48.4831
-62.5614
-66.8456
-66.9502
-45.1011
-45.7957
-50.485
-60.2474
-86.1102
-82.8856
174.386
148.16
-78.2842
-77.9323
180.953
180.932
-68.1883
-53.268
-65.0054
-47.0986
-47.661
-49.6964
-34.6126
-36.5311
-38.2692
-37.831
-28.217
-28.0381
-50.4574
-47.1116
-41.5672
-41.2822
-32.9796
-32.9752
145.383
145.374
-50.6725
-64.7912
-24.7338
-4.97836
-42.4552
-42.457
-35.8571
-35.9273
-49.9204
-50.9097
-53.6635
-45.0359
-86.2332
-83.015
148.09
174.277
-68.2823
-53.2529
-65.1696
-47.6935
-49.6638
-47.6022
-34.4352
-36.4221
-50.4959
-46.9567
-42.3274
-41.1882
-64.844
-50.6947
-4.9256
-24.7126
-50.8479
-49.9064
-45.0278
-53.6292
-38.3941
-36.0574
-39.3142
-39.8476
-47.8523
-46.4224
-40.2837
-44.6122
-45.2013
-45.455
-41.2194
-40.6582
-36.7562
-42.1411
-46.7345
-45.9429
-41.086
-41.7541
-41.0014
-41.5127
-46.1256
-48.0189
-100.698
-78.3046
15.0056
15.0223
-91.4479
-91.4699
-75.8406
-75.833
-60.1992
-60.1937
-38.3633
-35.9262
-39.3037
-39.7293
-46.417
-47.8083
-40.2768
-44.6264
-42.0605
-36.6211
-46.7229
-45.9422
-47.9309
-46.0542
-78.2907
-100.683
-98.6611
-66.5503
-68.2254
-113.989
-41.0247
-43.2021
-52.5459
-52.9404
-50.9764
-48.8197
-51.0528
-45.6826
-89.5852
-106.342
-66.5271
-60.5267
-99.7525
-114.355
-68.3015
-66.6632
-89.5666
-60.5476
-66.5922
-106.713
-51.0762
-45.704
-51.0826
-48.8279
-40.9853
-52.8994
-52.5481
-43.1985
-103.888
-96.3808
-65.24
-63.8774
-105.258
-64.052
-65.2294
-95.6979
-43.3279
-42.4781
-48.6037
-46.2517
-43.8154
-45.7795
-48.1465
-43.1177
-57.6865
-32.3185
-20.7348
-44.1442
-18.4318
21.875
2.57694
-18.71
-17.8956
-18.6381
2.60179
21.9056
-57.6954
-44.1422
-20.6546
-32.2938
29.7809
117.923
194.469
-26.4179
10.3122
81.0394
160.369
104.124
10.3081
105.411
160.294
81.0177
39.2689
-25.8124
194.485
119.24
-38.4922
-37.6203
-39.6342
-40.815
-27.2217
-35.5375
-37.3826
-35.7028
-48.9282
-52.802
-42.3481
-42.456
-55.3569
-45.1307
-43.7958
-55.1103
-38.497
-40.8184
-39.6
-37.5964
-55.4861
-55.4977
-43.7647
-45.1685
-48.955
-42.3952
-42.2758
-52.6589
-26.6267
-35.543
-37.2751
-35.4361
-39.2352
-41.4941
-40.2805
-38.3436
-39.3157
-38.7095
-40.0836
-41.5254
-40.8803
-42.5757
-40.2935
-39.0631
-41.8989
-38.7862
-40.5517
-43.8216
-95.7775
-75.4289
-103.282
-37.8485
-57.6306
-71.0151
-84.3903
-70.2299
-57.6106
-70.114
-84.3814
-71.0062
-98.966
-37.8996
-103.296
-75.2569
-42.0506
-49.9773
-50.4825
-43.0436
-46.771
-46.3857
-47.6005
-46.1334
-45.4178
-50.1631
-48.9234
-46.3084
-49.9307
-43.9086
-50.151
-52.5796
-41.7487
-43.0075
-50.484
-50.0576
-49.742
-52.1456
-50.1286
-43.8439
-45.3677
-46.2309
-48.8865
-50.1368
-46.6938
-45.9915
-47.554
-46.2879
-41.328
-41.1192
-40.7981
-42.4754
-40.1724
-43.1785
-41.3878
-41.0153
-38.3244
-35.3749
-39.3929
-43.6353
-38.3654
-43.5365
-39.5963
-35.4742
-57.8782
-56.4313
-52.7755
-67.5913
-41.6856
-41.3277
-44.535
-46.5811
-41.6669
-46.5668
-44.531
-41.3227
-57.9058
-67.5721
-52.768
-56.3935
-36.1066
-28.4116
-30.4495
-36.7872
-35.9377
-36.6793
-30.2839
-28.2604
-38.118
-37.3413
-35.0522
-37.5239
-38.1719
-37.6015
-35.1361
-37.3007
-62.3683
-124.367
-118.214
-39.6523
-39.7545
-41.2309
-73.2437
-82.519
-87.8126
-40.8963
-39.6698
-41.8679
-118.165
-60.7796
-119.798
-39.632
-39.5505
-41.1642
-82.5588
-73.3379
-87.8711
-39.6204
-40.8298
-41.8108
-39.4068
-37.7586
-38.7884
-39.8292
-43.8223
-42.5311
-41.9024
-44.5193
-63.2805
-58.6069
-63.5053
-82.3849
-50.1238
-50.2964
-51.3632
-53.1102
-39.3479
-39.6708
-37.7703
-38.7275
-42.813
-43.8151
-43.096
-43.0156
-63.6328
-83.0339
-58.872
-63.5581
-50.0249
-53.1262
-50.3093
-51.5074
-85.8711
-98.6466
-137.067
70.1621
-124.173
-127.282
-109.12
-147.062
-56.5994
-49.2733
-54.6688
-53.0555
-38.6864
-38.8017
-43.772
-37.714
-30.9478
-30.8903
-32.5964
-27.7901
-48.1999
-45.0287
-54.1786
-45.4831
-54.4908
-54.4794
-47.5137
-83.6408
-48.3884
-46.141
-51.4602
-32.9029
-40.1766
-40.185
-40.7098
-39.1813
-52.9814
-55.055
-54.902
-53.6196
-87.5109
-106.962
-137.291
72.5389
-56.5587
-49.2658
-54.6833
-53.0432
-38.5832
-38.7065
-43.668
-37.627
-48.7417
-45.443
-54.3693
-46.2428
-48.3754
-46.1428
-51.4738
-32.8641
-52.9846
-55.0363
-54.8995
-53.6063
-36.5889
-36.1965
-36.2335
-37.5775
-42.1914
-44.1229
-43.455
-42.6066
-42.5322
-41.1138
-40.2393
-42.2357
-41.9514
-42.6319
-40.4737
-42.2702
-46.0146
-45.0324
-44.6201
-43.1324
-55.1356
-56.4286
-51.2812
-59.1973
2.61369
2.62621
15.7437
-15.8921
-69.3007
-69.2941
-70.5565
-69.2482
-36.8517
-36.0618
-36.1335
-37.7602
-42.2006
-44.1499
-43.466
-42.6232
-41.9271
-42.5838
-40.4315
-42.2242
-55.0823
-56.2586
-51.5402
-59.063
-61.1568
-57.2892
-56.454
-53.757
-61.2077
-57.3206
-56.4852
-53.7768
-59.9564
-55.425
-55.6186
-51.7845
-13.3201
-8.1423
-8.13087
-2.37915
199.452
199.429
195.759
199.461
-39.4367
-40.842
-39.6328
-41.4191
-39.3712
-40.7933
-39.5571
-41.3576
-39.9484
-39.9894
-40.1586
-40.0544
-98.8987
-102.269
-92.682
-98.8983
-48.8215
-49.7613
-49.9353
-50.6134
-48.7965
-49.7429
-49.9095
-50.5935
-40.5746
-40.9805
-41.5308
-40.823
-45.8438
-47.7148
-47.7115
-49.7232
-33.4566
-30.7271
-33.637
-33.3895
-70.5187
-79.8651
-135.011
79.0837
-122.477
-122.952
-113.584
-113.169
-90.6056
-68.6612
-83.0367
-77.1325
-38.2647
-38.2283
-43.7568
-36.6695
-37.3837
-33.6573
-35.8235
-34.4611
-42.5864
-45.512
-43.5718
-41.8015
-74.9101
-68.9131
-109.228
26.685
-64.0213
-57.4027
-54.5407
-87.3612
-64.743
-53.2944
-67.0457
-48.1265
-39.8742
-38.987
-43.4559
-38.1316
-39.4131
-39.7634
-40.5211
-38.7527
-44.4742
-47.8896
-47.2175
-44.5733
-124.857
-128.591
-116.057
-113.781
-69.3531
-80.4103
-135.516
80.0781
-91.8957
-69.0598
-83.3842
-78.6786
-37.2317
-33.5009
-35.6787
-34.2729
-38.1593
-38.121
-43.6453
-36.5703
-42.4405
-45.3233
-43.4728
-41.6682
-64.1141
-57.3713
-54.5327
-87.4586
-75.0469
-69.1725
-109.349
26.6025
-64.7381
-53.3024
-67.0653
-48.1147
-39.3945
-39.7485
-40.5085
-38.7346
-39.7971
-38.8283
-43.3903
-38.0567
-44.4519
-47.8795
-47.184
-44.5443
-43.1941
-46.8886
-50.9956
-45.5599
-37.2878
-36.7648
-37.3945
-37.9542
-39.6186
-40.6587
-40.7098
-39.7228
-41.6429
-41.7545
-43.8844
-40.4181
-43.5707
-42.9535
-45.2268
-42.6128
-34.253
-36.0546
-33.7254
-38.3059
-44.4677
-43.2984
-35.8287
-41.5503
-45.7676
-47.5181
-44.7962
-43.497
-51.6165
-45.4431
-49.3523
-30.3945
-51.6119
-46.9233
-48.4642
-49.2808
-62.3192
-60.8025
-58.253
-69.9747
-15.6419
1.50885
8.94195
-20.7947
-51.5226
-49.973
-48.5923
-56.3897
-46.9787
-44.3045
-45.0459
-45.5839
-52.8041
-57.2282
-52.867
-56.9434
-65.8
-67.7684
-66.186
-67.2077
-43.0099
-46.7552
-50.8747
-45.1659
-41.7022
-41.2204
-42.3086
-41.2601
-37.4307
-37.1483
-37.3913
-38.1105
-39.6105
-40.6591
-40.6978
-39.723
-42.671
-43.692
-45.3977
-43.3819
-42.3864
-43.9297
-42.5287
-41.5587
-33.6736
-35.997
-33.3613
-37.779
-44.438
-43.272
-35.8078
-41.5094
-50.646
-45.3744
-49.3551
-30.2889
-14.7267
1.53066
9.15219
-20.4344
-51.741
-46.9866
-48.5553
-49.365
-62.4387
-60.9964
-58.5055
-70.1113
-51.6523
-49.8133
-48.6897
-56.3869
-65.7548
-67.7513
-66.1659
-67.1769
-46.9344
-44.2894
-45.0046
-45.4983
-52.713
-57.1605
-52.8274
-56.8931
-96.8197
-75.4333
-85.5234
-83.8267
156.352
186.485
178.192
158.986
-85.041
-70.7602
-77.6563
-77.4669
104.874
203.925
185.947
185.982
-57.0321
-57.4965
-62.0298
-54.5655
-54.1886
-55.2259
-59.3777
-50.7417
-48.3584
-48.5239
-48.1998
-49.0403
-37.424
-35.4142
-35.8501
-36.4041
-36.3918
-39.1198
-37.9973
-37.8227
-25.1367
-26.0457
-26.0551
-25.9485
-51.5124
-50.7742
-50.176
-48.8931
-43.9456
-42.7806
-42.1799
-42.3363
-38.1461
-25.0941
-32.0551
-32.0519
125.104
165.169
143.563
143.496
-53.169
-55.2479
-52.2938
-58.7009
-18.7343
-11.7003
-19.7838
-10.6987
-41.9336
-43.1649
-42.3424
-42.3345
-35.457
-34.6369
-35.3932
-35.4335
-52.4035
-51.0454
-50.2159
-51.7511
-49.2882
-48.1995
-50.9335
-46.6093
-97.1609
-75.5322
-85.651
-83.9583
154.008
186.427
158.865
177.991
-57.0643
-57.5257
-62.0896
-54.5722
-54.4813
-55.3042
-59.6645
-51.2214
-48.2831
-48.4737
-48.9802
-48.1413
-37.2489
-35.2901
-35.7038
-36.2882
-51.7229
-50.7885
-50.224
-48.8718
-45.6347
-44.4725
-43.1503
-43.1896
-53.2078
-55.2793
-58.7506
-52.296
-18.6875
-11.6722
-10.6535
-19.7407
-52.3783
-50.9702
-51.6693
-50.1871
-49.2705
-48.1931
-46.6013
-50.9204
-37.0764
-37.8748
-38.0281
-36.7479
-38.7802
-39.5457
-39.424
-39.2194
-45.5297
-49.6271
-47.5383
-46.5836
-42.2283
-41.665
-41.0967
-43.0474
-44.0358
-46.1163
-45.2002
-45.2284
-41.2768
-40.7841
-41.0041
-40.8389
-38.8585
-39.1163
-37.8611
-40.2933
-43.9974
-48.6741
-46.5762
-46.2346
-42.2592
-40.8775
-41.3878
-41.5963
-41.0557
-40.9167
-40.9607
-41.2409
-49.355
-44.7413
-46.3199
-47.2569
-73.0346
-94.9079
-91.2495
-84.0934
25.1271
11.8409
17.6693
17.6526
-72.1466
-102.646
-95.2326
-95.2458
-74.3191
-81.1071
-76.9245
-76.9207
-64.3011
-56.0767
-60.0741
-60.0683
-37.0067
-37.8051
-37.9802
-36.6542
-40.2632
-39.9987
-38.9081
-39.8637
-45.5244
-49.625
-46.5822
-47.5034
-42.2312
-41.6499
-41.0852
-43.047
-38.761
-39.0183
-40.2033
-37.7452
-43.9756
-48.6545
-46.7769
-46.2156
-49.112
-44.6813
-47.1354
-46.2707
-73.0455
-94.8996
-84.0711
-91.2111
-96.1967
-86.6605
-86.5721
-76.5895
-49.9953
-45.1376
-51.0552
-48.4716
-47.8949
-47.7317
-48.8739
-46.7798
-91.0939
-78.4494
-81.8263
-72.1972
-96.6295
-86.8698
-86.7045
-76.712
-91.2534
-78.5383
-81.9505
-72.2752
-47.9573
-47.7191
-48.9153
-46.7834
-49.9349
-45.1006
-51.0292
-48.4139
-89.7202
-79.4344
-79.4687
-71.7199
-89.0136
-79.9767
-78.5679
-71.5356
-45.2992
-44.5847
-45.7641
-45.2322
-45.7429
-45.2322
-45.3637
-45.5471
-42.6536
-39.2619
-35.0573
-30.3441
-2.03332
10.9648
1.1619
11.0664
-1.94343
11.068
1.21932
11.1258
-42.6569
-39.2485
-35.0495
-30.3299
159.343
100.567
169.491
170.925
91.186
83.3399
145.785
132.675
84.1825
91.4313
133.06
145.747
100.298
156.967
170.868
169.525
-38.5427
-39.2133
-38.7326
-39.4874
-34.0653
-33.5041
-35.4577
-35.5248
-45.316
-48.2785
-43.9512
-46.0169
-49.3077
-51.3565
-46.5598
-48.5714
-38.5434
-39.2159
-38.7168
-39.4847
-49.3714
-51.4772
-46.5944
-48.6196
-45.2612
-48.1891
-43.8765
-45.9425
-33.8296
-33.3022
-35.2911
-35.3583
-39.0194
-40.1116
-39.1552
-40.0447
-39.8641
-39.4558
-40.3864
-40.5915
-40.6334
-39.9632
-40.7585
-40.4166
-40.4814
-41.8851
-40.2835
-41.4113
-83.4798
-63.5187
-95.8035
-87.3532
-65.1341
-68.5628
-74.0325
-73.9248
-68.5514
-65.1227
-73.9122
-74.0202
-63.9749
-83.8077
-87.4085
-95.8493
-47.3401
-45.0669
-48.5758
-46.8474
-46.1537
-45.1644
-46.9126
-46.4073
-48.859
-48.9838
-50.1488
-49.8681
-47.136
-46.2693
-48.2907
-45.6817
-47.3485
-45.0302
-48.5973
-46.8442
-47.2903
-46.2955
-48.2261
-45.693
-48.8006
-48.939
-50.1058
-49.8466
-46.0839
-45.1138
-46.8537
-46.3707
-41.7207
-41.1089
-41.4023
-40.9973
-42.394
-41.7543
-42.1438
-41.8127
-37.9398
-39.5407
-38.7066
-39.9448
-37.4108
-39.3176
-37.7119
-40.1624
-61.8154
-64.3893
-57.1808
-60.7253
-42.2475
-43.2159
-42.6466
-43.8876
-42.2373
-43.2033
-42.642
-43.8727
-61.7811
-64.526
-57.1725
-60.7078
-35.3216
-33.1534
-33.894
-30.8687
-32.96
-35.1631
-30.6616
-33.7053
-37.5502
-37.7846
-36.6036
-36.9598
-37.8494
-37.6186
-37.0462
-36.683
-113.799
33.9055
-123.458
-89.2235
-92.6289
-104.195
-43.7125
-36.8008
-37.9994
-37.5371
-46.2311
-39.2115
-93.086
-5.63778
-66.6328
-53.8792
-84.1726
-63.3408
-43.8448
-38.5313
-40.5916
-38.4493
-44.3585
-42.1211
-119.975
-89.3312
-114.937
34.5656
-93.8786
-105.852
-37.9473
-37.3945
-43.6212
-36.6773
-46.1735
-39.213
-66.6333
-53.4372
-93.5734
-5.79911
-84.2351
-63.36
-40.5689
-38.3989
-43.7851
-38.4563
-44.3216
-42.0993
-41.5782
-43.0539
-37.9806
-38.6132
-39.7673
-38.7846
-42.0407
-39.7191
-43.7566
-42.0237
-27.0293
-41.1463
-34.7731
-41.0572
-43.7711
-43.1743
-53.7232
-50.1954
-53.3352
-55.1968
-59.257
-77.6986
-29.507
-72.189
-51.3687
-54.7726
-48.492
-48.8231
-51.129
-54.6311
-56.9922
-54.8486
-41.4969
-42.6841
-41.6736
-39.7167
-37.9611
-38.6455
-39.7401
-38.7848
-42.9499
-40.6084
-42.3002
-42.2506
-25.9443
-40.2798
-35.5822
-40.6322
-54.0457
-49.8044
-28.7914
-69.933
-53.5026
-55.3417
-59.4448
-78.2261
-51.486
-54.8402
-56.9843
-54.8869
-48.5114
-48.788
-51.1564
-54.655
-151.015
76.7093
-120.991
58.2452
-111.815
-109.455
115.292
129.327
-109.394
-139.22
-111.81
-140.438
-94.6767
-94.3295
-17.2065
-16.9511
-64.8116
-62.9488
-50.9283
-45.768
-60.3983
-53.3945
-58.3083
-49.6605
-43.5115
-37.0462
-43.8083
-37.8366
-46.363
-46.833
-37.3389
-37.5032
-33.6414
-30.0604
-33.5978
-29.9189
-34.9216
-34.9586
-26.6231
-26.5316
-46.7749
-45.3237
-48.4555
-43.2195
-49.7492
-49.063
-43.2601
-44.6675
-48.5744
-94.4847
-48.5675
-94.5136
-43.1731
-43.1731
63.869
63.8132
-57.1713
-38.0836
-48.982
-29.6802
-50.3252
-55.6054
-27.5726
-20.9456
-40.6614
-39.4192
-40.6567
-39.3822
-41.3546
-41.3518
-36.8524
-36.8763
-49.9957
-48.5752
-51.8357
-58.5883
-52.4257
-54.2645
-53.5234
-48.4641
-150.6
77.628
-121.155
57.7613
-112.479
-109.813
132.43
117.948
-64.9274
-63.1999
-50.8786
-45.9123
-60.4595
-53.3933
-58.396
-49.8849
-43.3998
-36.9515
-43.7115
-37.7554
-46.7513
-46.2664
-37.243
-37.4189
-46.7239
-45.3028
-48.5815
-43.6985
-49.8586
-49.0345
-44.5641
-45.49
-56.4046
-38.0669
-48.9886
-29.6164
-55.6397
-50.3489
-20.8915
-27.5499
-49.9888
-48.5678
-51.7319
-58.5536
-54.2431
-52.4098
-48.4301
-53.4869
-37.0529
-37.7516
-35.7038
-38.0406
-37.2077
-36.3491
-38.2893
-38.4734
-42.1243
-41.1163
-45.439
-45.2087
-43.7382
-45.0615
-41.5885
-43.684
-41.2959
-41.6639
-40.3986
-42.193
-42.3746
-42.5972
-41.9061
-41.6618
-38.734
-41.8942
-42.992
-43.9584
-37.5928
-40.8605
-43.1732
-43.1128
-44.8954
-43.6591
-43.8216
-42.7461
-42.966
-43.4602
-41.2126
-41.1045
-57.4406
-64.7558
-55.8232
-65.5234
-50.126
-54.7344
-69.9018
-67.4074
15.1394
-13.5942
15.1597
-13.5499
23.0625
23.0772
-41.6875
-41.2278
-69.6061
-69.1169
-69.5958
-69.0994
-71.8803
-71.8758
-67.5742
-67.5651
-37.0156
-37.9877
-35.5325
-37.9528
-37.1616
-36.2464
-38.8021
-38.5439
-42.1246
-41.1222
-45.4746
-45.2505
-45.0737
-43.738
-41.6022
-43.7112
-38.6908
-41.855
-42.95
-43.9187
-40.789
-37.4907
-43.1376
-43.0711
-57.2139
-64.5848
-55.6893
-65.4243
-53.3444
-51.0074
-67.3267
-69.8225
-68.0221
-67.1641
-62.1036
-54.5518
-52.9281
-60.353
-52.4403
-51.426
-68.0946
-67.2352
-62.1556
-54.5647
-60.3993
-52.9515
-51.44
-52.4474
-65.1635
-65.1523
-60.0765
-51.4774
-59.9168
-51.8587
-48.6347
-48.3294
-19.6397
-19.635
-14.8609
-4.75249
-4.72967
-14.8428
4.21146
4.22504