# vtk DataFile Version 2.0
tet_velo
ASCII
DATASET UNSTRUCTURED_GRID
POINTS 29498 float
-0.735 0.065 -2.12107
-0.697368 0.185 2.185
-0.7341 0.575 -1.995
-0.615 0.928624 2.225
0.735 0.065 -2.12107
0.697371 0.185 2.185
0.725 0.575 -1.99997
0.725 0.979767 2.085
-0.730216 0.0972396 -0.685713
-0.725428 0.129484 0.749643
-0.81868 0.817154 -0.588334
-0.774918 0.930967 0.818333
0.73028 0.0971773 -0.685713
0.725477 0.129437 0.749643
0.821237 0.806159 -0.638313
0.784293 0.904138 0.723344
-1.50912 -0.360672 -3.26295
-1.50034 -0.270671 -2.13826
-1.49152 -0.236896 -0.697806
-1.46664 -0.230348 0.75634
-1.42992 -0.196412 2.19811
-1.41537 -0.147316 3.329
-1.40935 -0.0886511 4.45006
-1.50771 -0.0506734 -3.22169
-1.50403 0.0616491 -2.10171
-1.50205 0.12253 -0.667762
-1.46123 0.145081 0.774908
-1.39759 0.176954 2.20949
-1.38908 0.22819 3.33511
-1.39045 0.287679 4.45494
-1.50945 0.535828 -3.11929
-1.51775 0.645955 -1.9928
-1.56136 0.832078 -0.57918
-1.49552 0.923173 0.837613
-1.35944 0.937091 2.24878
-1.35406 0.990474 3.3537
-1.36579 1.05127 4.46618
-1.50779 1.55384 -2.99993
-1.51273 1.68012 -1.87978
-1.52609 1.87388 -0.491749
-1.504 2.02695 0.889084
-1.44343 2.1108 2.27218
-1.40429 2.15874 3.38213
-1.38499 2.20826 4.49709
-0.757375 -0.359841 -3.27627
-0.744855 -0.266717 -2.15399
-0.739408 -0.248516 -0.711404
-0.736431 -0.242719 0.743305
-0.722684 -0.198296 2.18612
-0.706587 -0.14723 3.3101
-0.6948 -0.0884421 4.42719
-0.754408 -0.0577207 -3.2329
-0.683787 0.232517 3.30675
-0.677333 0.289778 4.42711
-0.752979 0.503922 -3.12455
-0.640507 0.996199 3.31201
-0.649762 1.05571 4.42967
-0.745229 1.53049 -3.01029
-0.744425 1.65728 -1.8925
-0.761214 1.86422 -0.512926
-0.756628 2.02927 0.856722
-0.711545 2.11739 2.23275
-0.676734 2.16477 3.34252
-0.658157 2.21315 4.46011
0.731254 -0.361643 -3.28736
0.734192 -0.267741 -2.15977
0.730607 -0.249548 -0.717944
0.716631 -0.242877 0.735061
0.693916 -0.196203 2.17402
0.708602 -0.139332 3.27612
0.730749 -0.0789678 4.38123
0.730903 -0.0592203 -3.24216
0.717967 0.244833 3.26355
0.74173 0.301917 4.37447
0.735382 0.501991 -3.13729
0.749469 1.02251 3.22472
0.767744 1.07205 4.36053
0.774059 1.52601 -3.03932
0.787153 1.65168 -1.92687
0.782448 1.85668 -0.562225
0.758519 2.02476 0.788599
0.756158 2.12411 2.15302
0.772458 2.17582 3.26509
0.789043 2.22371 4.38967
1.48059 -0.365359 -3.2921
1.48551 -0.275098 -2.1634
1.48141 -0.242228 -0.730217
1.45604 -0.230758 0.712042
1.42447 -0.185711 2.14102
1.43117 -0.130692 3.24981
1.45169 -0.0707905 4.3563
1.48289 -0.0552906 -3.24926
1.49491 0.0567904 -2.1268
1.49925 0.11433 -0.707085
1.46975 0.143447 0.714994
1.42838 0.197148 2.1327
1.43733 0.252405 3.23826
1.46019 0.309961 4.34938
1.49344 0.530089 -3.1539
1.51136 0.638693 -2.03183
1.56408 0.81429 -0.661377
1.51867 0.90772 0.700309
1.45809 0.98158 2.07142
1.46431 1.03 3.20003
1.48428 1.07972 4.33368
1.53132 1.54481 -3.06016
1.54641 1.66914 -1.95016
1.54655 1.86035 -0.588197
1.51767 2.01967 0.760275
1.49838 2.12178 2.12319
1.50337 2.17763 3.23525
1.51611 2.22724 4.36072
-0.778625 0.32 -2.10211
0 0.0640953 -2.12197
-0.734088 0.0796398 -1.40339
-0.692255 0.556812 2.24107
1.49012e-06 0.191728 2.17827
-0.73828 0.13036 1.46732
-0.00454998 0.656729 -2.07921
-0.827247 0.746935 -1.29167
0.055 0.973678 2.17448
-0.744337 0.979173 1.52167
0.775201 0.32 -2.10572
0.73415 0.0795783 -1.40339
0.759314 0.582384 2.18313
0.724582 0.144061 1.46732
0.826848 0.744309 -1.31914
0.767629 0.954935 1.40417
-0.725601 0.115583 0.031965
-0.878217 0.457197 -0.637023
3.16801e-05 0.110087 -0.685713
-0.868411 0.530226 0.783988
2.43987e-05 0.131495 0.749643
-0.798189 0.875451 0.115
0.00127844 1.19501 -0.613323
0.0046874 1.35293 0.770838
0.725676 0.115509 0.031965
0.876195 0.451668 -0.662013
0.86764 0.516787 0.736493
0.802305 0.854688 0.042515
-0.896665 0.388598 -1.34753
-0.877717 0.493711 0.0734825
-0.863792 0.543519 1.49449
1.58401e-05 0.0997439 -1.40339
2.80394e-05 0.125311 0.031965
1.29444e-05 0.135776 1.46732
-0.00227499 0.32 -2.32931
0.0275007 0.569598 2.27643
-0.00163577 0.840028 -1.3054
0.00298292 1.3561 0.0787575
0.0298437 1.18012 1.46292
0.896744 0.385834 -1.36127
0.875356 0.484228 0.03724
0.864233 0.549585 1.43575
-1.11951 0.0633245 -2.11139
-0.739928 -0.100858 -2.13753
-0.744704 0.00363963 -2.67699
-1.04748 0.180977 2.19725
-0.710026 -0.00664778 2.18556
-0.690577 0.208758 2.74588
-1.12593 0.610477 -1.9939
-0.74354 0.539461 -2.55978
-0.739263 1.11614 -1.94375
-0.987221 0.932858 2.23689
-0.627753 0.962412 2.7685
-0.663272 1.52301 2.22888
0.734596 -0.101371 -2.14042
0.732951 0.00288987 -2.68162
1.11495 0.0608952 -2.12393
0.695643 -0.00560165 2.17951
0.707669 0.214917 2.72427
1.06288 0.191074 2.15885
0.730191 0.538496 -2.56863
0.756076 1.11334 -1.96342
1.11818 0.606847 -2.0159
0.737235 1.00114 2.65486
0.740579 1.55194 2.11901
1.09155 0.980674 2.07821
-1.11613 0.109885 -0.676738
-0.734812 -0.0756379 -0.698559
-1.09333 0.137282 0.762276
-0.730929 -0.0566175 0.746474
-1.19002 0.824616 -0.583757
-0.789947 1.34069 -0.55063
-1.13522 0.92707 0.827973
-0.765773 1.48012 0.837528
0.730443 -0.0761851 -0.701828
1.11477 0.105754 -0.696399
0.721054 -0.0567197 0.742352
1.09761 0.136442 0.732319
0.801842 1.33142 -0.600269
1.19266 0.810224 -0.649845
0.771406 1.46445 0.755971
1.15148 0.905929 0.711826
-1.50473 -0.315671 -2.70061
-1.50842 -0.205673 -3.24232
-1.13325 -0.360256 -3.26961
-1.49593 -0.253783 -1.41803
-1.50218 -0.104511 -2.11998
-1.1226 -0.268694 -2.14613
-1.47908 -0.233622 0.0292669
-1.49678 -0.0571827 -0.682784
-1.11546 -0.242706 -0.704605
-1.44828 -0.21338 1.47722
-1.46393 -0.0426336 0.765624
-1.10153 -0.236534 0.749822
-1.42265 -0.171864 2.76355
-1.41376 -0.00972886 2.2038
-1.0763 -0.197354 2.19211
-1.41236 -0.117983 3.88953
-1.40222 0.0404371 3.33205
-1.06098 -0.147273 3.31955
-1.3999 0.099514 4.4525
-1.05207 -0.0885466 4.43863
-1.50587 0.00548784 -2.6617
-1.50858 0.242577 -3.17049
-1.13106 -0.0541971 -3.2273
-1.50304 0.0920898 -1.38473
-1.51089 0.353802 -2.04725
-1.48164 0.133806 0.0535729
-1.5317 0.477304 -0.623471
-1.42941 0.161017 1.4922
-1.47838 0.534127 0.80626
-1.39333 0.202572 2.7723
-1.37852 0.557023 2.22914
-1.38976 0.257935 3.89502
-1.37157 0.609332 3.34441
-1.03643 0.230353 3.32093
-1.37812 0.669475 4.46056
-1.03389 0.288729 4.44103
-1.5136 0.590892 -2.55604
-1.50862 1.04484 -3.05961
-1.13121 0.519875 -3.12192
-1.53955 0.739017 -1.28599
-1.51524 1.16304 -1.93629
-1.52844 0.877626 0.129217
-1.54372 1.35298 -0.535464
-1.42748 0.930132 1.54319
-1.49976 1.47506 0.863349
-1.35675 0.963783 2.80124
-1.40143 1.52395 2.26048
-1.35992 1.02087 3.90994
-1.37917 1.5746 3.36792
-0.997283 0.993337 3.33286
-1.37539 1.62976 4.48164
-1.00777 1.05349 4.44793
-1.51026 1.61698 -2.43986
-1.12651 1.54217 -3.00511
-1.51941 1.777 -1.18576
-1.12858 1.6687 -1.88614
-1.51504 1.95041 0.198668
-1.14365 1.86905 -0.502337
-1.47371 2.06887 1.58063
-1.13031 2.02811 0.872903
-1.42386 2.13477 2.82716
-1.07749 2.1141 2.25247
-1.39464 2.1835 3.93961
-1.04051 2.16175 3.36233
-1.02157 2.21071 4.4786
-0.751115 -0.313279 -2.71513
-0.755891 -0.208781 -3.25458
-0.0130601 -0.360742 -3.28181
-0.742131 -0.257616 -1.4327
-0.00533155 -0.267229 -2.15688
-0.737919 -0.245617 0.0159502
-0.00440031 -0.249032 -0.714674
-0.729557 -0.220507 1.46471
-0.00989991 -0.242798 0.739183
-0.714635 -0.172763 2.74811
-0.014384 -0.197249 2.18007
-0.700694 -0.117836 3.86865
-0.695187 0.0426435 3.30843
0.00100745 -0.143281 3.29311
-0.686067 0.100668 4.42715
0.0179746 -0.0837049 4.40421
-0.753693 0.223101 -3.17873
-0.0117526 -0.0584705 -3.23753
-0.68056 0.261147 3.86693
-0.662147 0.614358 3.30938
0.0170904 0.238675 3.28515
-0.663548 0.672745 4.42839
0.0321982 0.295847 4.40079
-0.749104 1.01721 -3.06742
-0.00879844 0.502957 -3.13092
-0.645135 1.02596 3.87084
-0.658621 1.58048 3.32726
0.0544811 1.00935 3.26836
-0.65396 1.63443 4.44489
0.0589906 1.06388 4.3951
-0.744827 1.59389 -2.45139
0.014415 1.52825 -3.0248
-0.75282 1.76075 -1.20271
0.0213637 1.65448 -1.90969
-0.758921 1.94675 0.171898
0.0106168 1.86045 -0.537575
-0.734086 2.07333 1.54474
0.000945469 2.02701 0.82266
-0.69414 2.14108 2.78764
0.0223069 2.12075 2.19289
-0.667446 2.18896 3.90132
0.0478617 2.17029 3.30381
0.0654434 2.21843 4.42489
0.732723 -0.314692 -2.72356
0.731078 -0.210431 -3.26476
1.10592 -0.363501 -3.28973
0.7324 -0.258644 -1.43886
1.10985 -0.27142 -2.16158
0.723619 -0.246212 0.00855886
1.10601 -0.245888 -0.72408
0.705273 -0.21954 1.45454
1.08633 -0.236818 0.723551
0.701259 -0.167768 2.72507
1.0592 -0.190957 2.15752
0.719676 -0.10915 3.82868
0.713285 0.0527504 3.26984
1.06988 -0.135012 3.26297
0.73624 0.111474 4.37785
1.09122 -0.0748792 4.36876
0.733142 0.221386 -3.18973
1.1069 -0.0572554 -3.24571
0.729849 0.273375 3.81901
0.733718 0.633669 3.24413
1.07765 0.248619 3.25091
0.754737 0.686985 4.3675
1.10096 0.305939 4.36193
0.754721 1.014 -3.08831
1.11441 0.51604 -3.14559
0.758606 1.04728 3.79263
0.760963 1.59916 3.2449
1.10689 1.02625 3.21238
0.778394 1.64788 4.3751
1.12601 1.07589 4.34711
0.780606 1.58884 -2.4831
1.15269 1.53541 -3.04974
0.7848 1.75418 -1.24455
1.16678 1.66041 -1.93851
0.770483 1.94072 0.113187
1.1645 1.85852 -0.575211
0.757339 2.07443 1.47081
1.1381 2.02221 0.774437
0.764308 2.14997 2.70906
1.12727 2.12294 2.13811
0.780751 2.19977 3.82738
1.13791 2.17672 3.25017
1.15258 2.22548 4.37519
1.48305 -0.320228 -2.72775
1.48174 -0.210325 -3.27068
1.48346 -0.258663 -1.44681
1.49021 -0.109154 -2.1451
1.46873 -0.236493 -0.00908761
1.49033 -0.0639487 -0.718651
1.44026 -0.208235 1.42653
1.4629 -0.0436555 0.713518
1.42782 -0.158201 2.69542
1.42643 0.0057183 2.13686
1.44143 -0.100741 3.80305
1.43425 0.0608565 3.24404
1.45594 0.119585 4.35284
1.4889 0.000749888 -2.68803
1.48817 0.237399 -3.20158
1.49708 0.0855603 -1.41694
1.50313 0.347742 -2.07931
1.4845 0.128889 0.0039548
1.53167 0.46431 -0.684231
1.44907 0.170297 1.42385
1.49421 0.525584 0.707652
1.43286 0.224776 2.68548
1.44324 0.589364 2.10206
1.44876 0.281183 3.79382
1.45082 0.641203 3.21915
1.47223 0.694843 4.34153
1.5024 0.584391 -2.59286
1.51238 1.03745 -3.10703
[...]
POINT_DATA 29498
VECTORS point_vectors float
-1.58041 -5.05875 8.55769
-0.0284363 0.147663 0.477362
-0.850753 0.712283 1.61437
0.000886805 0.0531007 0.179635
1.58512 -5.05012 8.54262
0.0252986 0.14998 0.486124
0.849131 0.610383 1.5512
-0.433846 -0.0437542 3.22414
0.000330909 0.000714919 0.0420225
0 0 0
0.00272034 0.00851156 0.0468018
0 0 0
-0.000183234 0.000680276 0.0392298
0 0 0
-0.012614 0.0250859 0.102448
0 0 0
-0.548787 -0.31641 19.8759
-1.20863 -0.841912 20.5747
-0.270656 -0.469289 21.4853
0.217394 -0.0915493 21.5726
0.655977 0.271568 21.4772
0.880218 0.347448 21.0598
0.868177 0.159455 20.8664
-0.708498 -0.268701 19.7838
-1.75871 -0.743914 20.5045
-0.498172 -0.663123 21.5632
0.184635 -0.290592 21.7103
0.922489 0.116086 21.4829
1.21688 0.0932111 21.2888
1.12336 0.0649781 21.2876
-0.863672 0.01898 19.6337
-2.10417 0.0194566 20.4871
-1.19585 -0.441144 21.5691
-0.204424 -0.408795 21.8362
0.750957 -0.577671 21.6168
0.985799 -0.630057 21.3408
0.980767 -0.440804 20.7021
-0.613049 0.406024 19.9014
-1.05684 0.700185 20.3876
-0.951713 0.43836 21.2723
-0.271455 -0.0131692 21.6063
0.159924 -0.34138 21.3926
0.265201 -0.415225 21.1271
0.208881 -0.377857 20.9011
-0.513323 -0.623188 19.4083
-1.43163 -3.20689 21.0758
0.0145279 -0.0939317 21.7827
0.121446 0.2831 20.8814
0.202994 1.03143 19.9507
0.385607 1.33812 18.5691
0.859518 0.869751 17.785
-0.725961 -0.562971 19.0316
0.69246 1.82395 9.64214
1.60606 0.838578 11.2196
-1.05182 0.0663596 18.5102
1.59502 -0.164733 8.24906
1.27636 -0.398343 14.3793
-0.54132 0.808172 19.4269
-1.13878 1.78104 20.0107
-1.39655 1.72094 21.4773
-0.274945 0.202122 21.961
0.0892033 -0.478333 21.5447
0.200509 -0.618983 21.1132
0.0576655 -0.485873 20.3754
0.495884 -0.625362 19.3997
1.42088 -3.25377 21.087
-0.0031704 -0.0898629 21.7963
-0.0954993 0.285549 20.817
-0.163031 1.0109 19.8023
-0.337837 1.32962 18.361
-0.888746 0.870527 18.1116
0.691098 -0.565315 19.0169
-0.694345 1.86513 9.74923
-1.62593 0.815014 12.1354
1.0085 0.0676984 18.5029
-1.62648 -0.0997067 11.4915
-1.24608 -0.482488 16.6411
0.534584 0.763149 19.4423
1.15394 1.69472 20.0017
1.40539 1.70493 21.4235
0.314591 0.263475 21.972
-0.0934919 -0.4462 21.5235
-0.207013 -0.567429 21.1038
-0.076806 -0.422464 20.7163
0.539572 -0.315715 19.86
1.21613 -0.872405 20.5525
0.287673 -0.482957 21.4917
-0.205807 -0.106375 21.5796
-0.657087 0.254254 21.4848
-0.881324 0.334967 21.024
-0.849741 0.155175 20.7512
0.697847 -0.268485 19.7722
1.778 -0.764307 20.4672
0.515267 -0.677329 21.5694
-0.163345 -0.306649 21.7034
-0.852924 0.0611174 21.5247
-1.14834 0.0806557 21.3312
-1.09208 0.00121192 21.0976
0.837684 0.0169163 19.6259
2.11773 0.0309876 20.4281
1.2488 -0.457744 21.5476
0.282946 -0.395841 21.8214
-0.572147 -0.471403 21.5873
-0.902457 -0.512226 21.3409
-0.735485 -0.452462 20.8979
0.579207 0.376751 19.9008
1.03541 0.660739 20.345
0.970369 0.456521 21.2101
0.324427 0.0269537 21.5717
-0.13056 -0.296334 21.4217
-0.29727 -0.353035 21.2358
-0.306129 -0.431376 20.7757
-0.79472 -0.0912646 1.02989
-0.000130198 -0.0259529 0.829351
-0.00450526 0.0028358 0.0670912
-0.00742573 0.00811128 0.0182506
-0.000924026 0.00874051 0.0235049
-0.00514937 -0.0185396 0.909364
0.00016698 0.278229 0.437642
-0.593291 -0.292667 0.961789
-0.00172428 0.0118281 -0.0256692
0.0478757 0.0313804 0.18796
0.547088 -0.0612745 0.713883
0.00423772 0.00265818 0.0635204
-0.00659395 -0.00260406 0.0773232
0.00797988 0.00928747 0.332976
0.618535 -0.243909 1.11653
-0.01425 0.0282377 0.0900205
0 0 0
-3.24596e-05 0.00154716 0.00941476
-3.62172e-05 9.5276e-05 0.0515632
0.000496894 0.00871588 0.0336577
1.68678e-05 0.00258377 0.0820727
0 0 0
8.29894e-05 0.0925802 0.189127
-1.93794e-05 -9.05412e-05 0.00169005
0 0 0
-2.53742e-06 3.19352e-05 0.00038105
-0.000674974 0.0114014 0.0442292
0 0 0
0.000141251 -0.00355621 0.0408878
-0.000457517 0.00746148 0.0336075
0.00154805 0.00813783 0.0410413
0 0 0
-6.01218e-06 9.75035e-05 0.00798943
-1.82328e-07 -1.25299e-06 -7.30766e-05
-2.66253e-05 -0.00484259 0.00922965
0 0 0
-0.00442427 0.0113364 0.0609056
-0.000153228 0.00168755 0.033288
8.73975e-05 0.00123972 -0.00277269
-0.00148742 -0.0098717 0.119372
7.66648e-05 0.00121512 0.00580858
-8.75242e-05 0.0123703 0.0550298
-3.47737 -2.21328 20.4527
-2.03055 -5.42766 22.0374
-2.01179 -1.86116 17.9975
1.11459 1.08916 17.3857
-0.126849 1.18788 13.4172
-0.178689 1.11996 6.25145
-4.49409 0.508559 20.3182
-3.20927 0.929234 16.5265
-2.58151 3.03181 19.6255
1.25212 0.244563 15.4522
0.579506 0.315303 3.74985
0.514668 -0.777145 18.8754
2.01868 -5.49403 22.0503
1.97976 -1.8599 17.9714
3.47443 -2.20179 20.3891
0.137144 1.13849 13.0905
0.114448 1.1319 6.33121
-1.10604 0.999679 17.66
3.14701 0.92402 16.4666
2.5973 2.9565 19.5866
4.56604 0.538993 20.2155
-0.932143 0.308789 7.32066
-0.320588 -0.789831 20.9714
-0.926578 -0.305833 19.2387
0.0159697 -0.789205 19.6819
0.0949769 0.232707 14.8586
0.292365 0.246877 17.7449
-0.0924035 0.314782 13.8142
-2.06328 -1.1606 21.7421
-3.94898 2.08432 21.9876
-0.285533 -0.447371 20.0997
-0.401532 0.193176 21.047
-0.0845299 0.237749 14.8058
-0.0117279 -0.785336 19.7232
0.0923626 0.313286 13.7052
-0.313203 0.20337 17.996
3.95925 2.07998 21.8469
2.09307 -1.18763 21.7818
0.521231 0.295387 20.6596
0.422241 -0.587982 20.4354
-0.928385 -0.564838 20.0386
-0.622687 -0.299293 19.8224
-0.582708 -0.464842 19.6735
-0.742469 -0.712476 21.3063
-1.47612 -0.833901 20.5612
-1.60734 -1.73128 20.6716
0.0286125 -0.249692 21.5498
-0.378904 -0.571651 21.5169
0.0149742 -0.479673 21.7044
0.42335 0.090382 21.5825
0.198957 -0.190053 21.6161
0.316621 0.0554348 21.5316
0.788394 0.355408 21.313
0.782347 0.219663 21.4905
0.709697 0.664004 21.3497
0.839646 0.311601 20.8514
1.06415 0.20113 21.2531
0.997225 0.945276 20.7212
0.995768 0.112216 21.077
0.936847 0.874782 21.0171
-1.25518 -0.519223 19.892
-0.809286 -0.150973 19.6663
-0.790166 -0.421966 19.4158
-1.12716 -0.788642 21.4257
-2.10754 -0.421241 20.5061
-0.0976911 -0.479357 21.6522
-0.855941 -0.664218 21.5793
0.519522 -0.0861921 21.6887
0.0290539 -0.449322 21.7924
1.11542 0.145431 21.3635
1.013 -0.248658 21.4062
1.36298 0.07351 20.3032
1.21187 -0.313629 21.5301
1.27479 1.04917 16.9416
1.27553 -0.410908 20.9556
1.37821 0.531732 16.8445
-1.57126 0.0649897 19.7616
-0.818676 0.288308 19.7151
-1.05889 0.0371256 19.1371
-1.7354 -0.319612 21.2564
-1.63832 0.577421 20.362
-0.686139 -0.43898 21.7656
-1.32002 0.128902 21.4383
0.302826 -0.454212 21.7933
-0.33477 -0.152171 21.7516
0.906836 -0.60262 21.307
0.353094 -0.489775 21.4732
0.921244 -0.637259 20.9903
0.517879 -0.624329 21.0437
1.54582 -0.46094 18.3063
0.376392 -0.444948 20.8885
1.13634 -0.6652 19.6709
-0.853549 0.58014 20.0665
-0.645022 0.588378 19.6689
-1.10435 0.65632 20.8473
-1.23421 1.18446 20.2139
-0.629389 0.211699 21.549
-1.22737 0.908224 21.4032
-0.00193552 -0.209941 21.5007
-0.320983 0.0637834 21.7686
0.256533 -0.393108 21.2783
0.133515 -0.4235 21.4806
0.302412 -0.406466 20.863
0.262091 -0.580918 21.1336
0.175431 -0.450399 20.9511
-1.10829 -1.63328 19.2671
-0.632934 -0.646781 19.1987
-0.00705375 -0.834246 19.1548
-0.363284 -0.958139 22.4534
-0.0100076 -3.89108 21.5468
0.109307 0.157989 21.2078
-0.00856747 -0.111933 21.2155
0.144862 0.579674 20.3438
-0.00596407 0.152285 19.467
0.258361 1.20673 19.3755
-0.0147338 0.571863 17.5696
0.562628 1.61193 18.3756
0.567966 1.69401 14.6211
-0.0113227 0.857715 16.2626
1.24213 0.843515 14.4878
-0.00308174 1.34992 13.2848
-0.932553 -0.367743 18.6636
-0.0127496 -0.816762 18.5026
1.23668 1.58563 10.7153
1.44717 1.02927 5.61302
0.0795727 0.0847852 -2.25802
1.89443 0.322239 9.46056
-0.115818 1.14812 7.71606
-0.825944 0.672067 18.9115
-0.011722 0.161237 17.6499
1.67428 -0.685319 10.3417
0.560299 -1.09189 19.759
-0.216529 -0.736192 0.301079
0.367074 -0.957409 19.7799
-0.0707618 -1.7525 3.90517
-0.874445 1.38386 19.549
0.0179346 1.0307 19.1673
-1.38335 1.9183 20.5947
0.03903 2.46964 19.7306
-0.818381 0.921179 22.0214
0.0264916 3.03073 21.4787
-0.0134636 -0.253527 21.7774
-0.000570668 0.460375 22.1617
0.153442 -0.575164 21.3809
-0.00664344 -0.468795 21.6047
0.132651 -0.727304 21.0193
-0.0159917 -0.755897 21.0946
0.0150411 -0.703636 20.9502
1.08168 -1.6322 19.2504
0.598669 -0.643027 19.1828
0.561629 -0.465762 19.6591
0.371604 -0.96321 22.4718
1.61625 -1.77335 20.6134
-0.0955718 0.161303 21.1987
-0.00205042 -0.476768 21.7184
-0.119991 0.589966 20.212
-0.308325 0.0668682 21.5295
-0.235494 1.19335 19.299
-0.690128 0.696517 21.2283
-0.633429 1.49801 18.32
-0.584301 1.65667 14.4816
-1.02834 0.904668 20.64
-1.25925 0.846874 14.9883
-0.976755 0.838099 20.9501
0.895826 -0.375818 18.6577
0.782587 -0.432311 19.3987
-1.31317 1.44968 10.6597
-1.58427 0.938519 7.34357
-1.38281 0.883636 17.913
-1.82257 0.269356 11.9642
-1.37116 0.466882 18.1357
0.808257 0.645859 18.9341
1.03126 0.0336738 19.1201
-1.51712 -0.635461 13.6404
-0.55561 -0.986547 20.3513
-1.20038 -0.61399 19.926
-0.379194 -0.887403 20.0445
-1.16734 -0.570894 19.976
0.872944 1.31226 19.5561
0.611087 0.557095 19.678
1.39771 1.8341 20.5748
1.21388 1.11868 20.1915
0.860335 0.966011 21.9753
1.24482 0.905713 21.3429
0.0246252 -0.210176 21.7833
0.37739 0.12794 21.7414
-0.161553 -0.557771 21.4282
-0.116854 -0.378424 21.4838
-0.165784 -0.723729 20.7684
-0.262712 -0.51104 21.0516
-0.161805 -0.42205 20.9839
0.916929 -0.577708 20.0197
0.614459 -0.299156 19.8021
0.770634 -0.740483 21.3038
1.49178 -0.861297 20.5309
-0.00440515 -0.268363 21.545
0.394173 -0.583224 21.5301
-0.404886 0.060139 21.5809
-0.188223 -0.210501 21.6188
-0.794802 0.320219 21.3506
-0.754489 0.181335 21.5046
-0.856794 0.263509 21.0174
-1.05048 0.196144 21.2469
-0.979047 0.0895899 20.9562
1.24746 -0.520616 19.8553
0.790242 -0.153035 19.6536
1.1543 -0.805954 21.4184
2.12796 -0.415797 20.4294
0.120402 -0.491855 21.6384
0.88291 -0.671147 21.5697
-0.474047 -0.123972 21.6966
0.0294296 -0.463007 21.8029
-1.02777 0.117174 21.3232
-0.837425 -0.292933 21.531
-1.25083 0.0555387 20.9758
-1.11855 -0.312273 21.1261
-1.07418 -0.38448 21.0016
1.53065 0.0634982 19.7183
0.786132 0.263726 19.7188
1.77513 -0.297657 21.217
1.60131 0.546579 20.3256
0.745333 -0.446773 21.7359
1.36465 0.152783 21.3807
-0.164949 -0.404339 21.7755
0.416963 -0.125502 21.7502
-0.787588 -0.497028 21.4084
-0.285557 -0.421098 21.5002
-0.856946 -0.538096 21.0583
-0.485936 -0.499187 21.1293
-0.432187 -0.499173 20.96
0.818185 0.53681 20.0497
1.08793 0.648663 20.7912
0.672669 0.231251 21.5119
0.0364996 -0.159349 21.5205
-0.212689 -0.362058 21.2426
-0.309841 -0.419462 20.9164
-1.10081 -0.558823 19.9611
-1.47718 -1.84916 18.7014
-1.12532 -0.993801 19.7125
-1.74963 -0.971136 19.2294
-0.67772 -0.458119 19.5268
-2.35027 -2.09308 20.6139
-0.935407 -0.754689 21.3696
-0.301524 -0.220879 17.2777
-0.587322 -1.05129 21.7304
-1.00444 -1.5858 21.983
0.0869626 -0.655842 21.3502
-0.0385764 -0.374342 21.5627
0.0369594 0.298699 13.9723
0.224614 -0.175842 21.5927
0.244947 -0.217507 18.4322
0.371672 0.0809911 20.4106
0.463973 0.0112591 21.6351
-0.0692918 0.545821 13.7946
0.474196 0.343067 21.4504
0.508357 0.617604 17.7748
0.887786 0.911319 19.769
0.938103 0.304413 21.307
0.0304922 1.33445 13.624
0.864778 0.821209 21.0498
1.31379 1.09259 17.7852
1.33451 1.12437 20.1613
1.1684 0.191947 20.4274
0.577954 1.66174 15.2868
1.03272 0.964846 20.771
1.63114 0.811345 19.4074
1.15362 0.821319 19.838
-1.50594 -0.275636 19.7584
-2.9313 -0.927356 16.738
-2.48395 0.276711 18.7738
-0.960641 -0.257318 19.2133
-4.65435 -0.900524 20.2955
-1.46244 -0.617494 21.3999
-2.83106 -0.785784 21.7229
-0.642176 -1.40993 20.5981
-0.368679 -0.587522 21.7419
-1.11205 -0.990305 21.1886
0.29807 0.0655491 18.002
0.500404 -0.312718 21.6749
0.630989 0.133076 18.2161
1.35628 0.762869 14.4393
1.18986 -0.271393 21.2881
0.125312 1.11179 2.15574
1.29854 -0.156145 16.9902
2.03044 0.42969 16.3735
1.32508 -0.447485 20.4885
2.17956 0.809698 7.49847
1.50445 -0.618346 19.2169
1.57871 -0.0467706 15.2754
-1.27359 0.494006 19.8826
-1.74685 1.86418 18.5703
-0.969078 0.935797 19.8106
-0.902094 0.472167 19.3545
-2.34082 1.38223 20.0964
-1.62141 0.362157 20.9675
-3.13467 2.41791 20.3377
-1.37319 1.16173 20.7771
-2.17819 0.521421 21.696
-0.82854 -0.0228657 21.7136
-2.04057 0.704364 22.062
-0.771626 0.479888 21.7546
-0.499455 -0.0928438 22.0999
0.0866143 -0.323046 21.6881
0.345198 -0.543727 20.2288
-0.0356593 -0.225395 21.6308
0.347903 -0.703611 21.6655
0.493109 -0.598271 21.3098
0.462135 -0.989483 20.1337
0.201432 -0.519423 21.3337
0.520491 -0.887126 21.5636
0.567859 -0.609017 21.0293
0.49005 -1.12727 19.8646
0.143982 -0.445163 21.0416
0.370131 -0.703275 20.3359
1.45026 -1.85982 18.6778
-0.0172723 -2.47869 18.7051
-0.0266931 -3.35163 16.2091
-0.0124211 -0.842863 18.8361
0.00840614 -4.82644 22.9652
0.313463 -0.217878 17.309
-0.00537135 -0.98361 22.7318
-0.00329143 0.149958 10.8789
-0.0458758 0.291811 13.9079
-0.00332642 0.0819851 20.1186
-3.36872e-05 0.154575 10.4902
0.0986619 0.562229 13.2152
0.0017435 0.365235 18.4593
-0.0299473 0.398983 9.36588
-0.013205 1.28799 13.2962
-0.0185855 0.565866 16.8755
0.0148421 -0.966327 -1.47586
0.026378 0.650689 7.91405
-0.74531 1.5223 15.2219
-0.00584758 1.22728 15.2691
0.0840685 -0.480264 -1.1165
-0.0949424 1.31094 10.1802
2.87423 -0.916441 16.7191
-0.0267447 2.26943 13.3484
-0.0133854 -0.501558 17.9377
-0.315353 0.98081 3.46838
-0.000473739 0.185922 0.246166
-0.125808 -2.11128 -4.10749
-1.85939 0.654839 9.65166
-0.274616 -1.79429 1.96769
-0.161316 -0.604424 3.08974
1.72813 1.78086 18.5728
0.0235525 1.8395 19.238
0.00310002 0.98032 18.3949
0.0375314 4.67821 19.0905
3.0741 2.30571 20.3833
0.0492396 2.94634 20.2482
0.0369437 6.44577 20.9931
2.23835 0.709504 22.1935
0.0100023 1.61225 22.3177
-0.00486087 0.33497 18.7432
-0.246639 -0.451404 20.6552
-0.00208675 -0.186711 21.8258
-0.0163893 -0.63698 15.8092
-0.401165 -0.921716 21.0235
-0.0128515 -0.611356 21.4137
-0.0230836 -1.15393 17.7868
-0.431445 -1.07815 20.1203
-0.0126691 -0.617154 20.7336
-0.0539311 -1.02727 19.2156
1.09272 -0.56409 19.9311
1.1044 -1.00116 19.6845
1.72552 -0.978982 19.1967
0.660857 -0.455083 19.5207
2.36317 -2.13335 20.5632
0.960378 -0.777163 21.3709
0.59903 -1.08354 21.742
1.03878 -1.621 22.0232
-0.0805426 -0.647696 21.3301
0.0518459 -0.39317 21.5542
-0.216382 -0.173428 21.6026
-0.223355 -0.21442 18.3887
-0.358891 0.0885954 20.308
-0.435093 -0.0214991 21.637
-0.473862 0.347887 21.4313
-0.517059 0.562422 17.7615
-0.871677 0.89151 19.7129
-0.91521 0.257824 21.3168
-0.833019 0.819607 20.9935
-1.34675 0.95648 18.2647
-1.34255 0.958762 20.3907
-1.14938 0.155267 20.6506
-1.07941 0.973893 20.7245
-1.68051 0.644305 19.0857
-1.13046 0.722684 20.4739
1.48912 -0.272884 19.7267
2.44386 0.259461 18.7169
0.927426 -0.256859 19.2088
4.75027 -0.910727 20.1698
1.49924 -0.613653 21.377
2.90276 -0.767899 21.6762
0.656004 -1.39777 20.6002
0.403102 -0.588468 21.7152
1.17428 -1.02045 21.188
-0.269074 -0.0751396 18.4313
-0.377101 -0.346531 21.7504
-0.327387 -0.209396 19.7878
-1.32395 0.534395 16.9847
-1.04586 -0.307757 21.2993
-1.07218 -0.486737 19.845
-1.78444 0.179602 18.0694
-1.15887 -0.351142 21.3346
-1.31454 -0.641222 20.2438
-1.556 -0.0881254 17.9592
1.22952 0.458802 19.8642
0.942027 0.883873 19.8116
0.873922 0.452094 19.3635
2.29814 1.32921 20.0616
1.62507 0.379804 20.9093
1.35527 1.11953 20.7287
2.22152 0.54705 21.6186
0.891892 -0.0125993 21.675
0.823874 0.520592 21.7087
0.610881 -0.0591754 22.0942
-0.00168468 -0.274423 21.6847
0.0670249 -0.191645 21.6344
-0.301792 -0.601238 21.6706
-0.411925 -0.488288 21.3566
-0.191259 -0.467428 21.3103
-0.466697 -0.789172 21.4865
-0.562057 -0.524415 20.9725
-0.193385 -0.449881 21.1125
-0.382853 -0.644378 20.6221
-1.41748 -1.04415 19.4934
-0.692453 -1.3334 22.0371
0.297173 -0.244081 20.7498
0.539359 0.448421 20.0789
1.09715 1.0202 19.926
1.30868 0.989368 20.3594
-2.30915 -0.519248 18.8218
-1.81056 -1.41027 22.1635
-0.00625162 -0.699885 19.1285
0.683736 0.673647 16.6717
1.5574 0.567411 15.8508
1.90016 0.250662 17.2993
-1.64511 1.00648 19.37
-2.45703 0.919015 20.9076
-1.31047 0.15752 22.0934
0.0773725 -0.437342 21.97
0.48291 -0.801033 21.3913
0.539656 -0.918475 20.8862
-0.0224649 -3.05668 17.7136
-0.00486335 -0.121057 13.4327
-0.00298794 0.154324 10.4156
0.00181253 0.258322 10.2746
-0.0493772 0.0190308 8.35046
0.0490948 0.923418 7.42627
-0.0380469 -1.29522 13.6488
0.0706851 -0.766949 -2.77817
-0.287178 -2.32308 -1.57276
0.0174754 2.94491 17.6376
0.0421299 4.61742 19.2206
0.00785127 2.29045 20.4544
-0.00713897 -0.426136 16.5783
-0.0047724 -0.782755 16.7822
-0.0151232 -1.1301 18.0417
1.39926 -1.05133 19.4627
0.715073 -1.36918 22.0622
-0.286915 -0.242624 20.7169
-0.527372 0.450099 19.8908
-1.09782 0.937782 19.9453
-1.3775 0.918675 20.3078
2.2715 -0.515656 18.7912
1.89838 -1.41329 22.2847
0.0362754 -0.762056 19.2889
-0.629663 0.424342 17.7966
-1.46912 0.286112 17.5273
-1.80108 0.00865003 18.029
1.60347 0.958362 19.3458
2.41569 0.926905 20.8744
1.40847 0.178336 22.0582
-0.00781074 -0.363215 21.9454
-0.43176 -0.710106 21.4372
-0.620753 -0.773308 20.941
-0.705787 -0.219632 0.478272
-0.00637176 -0.047909 0.322352
-0.0162769 0.00115006 0.154098
0.0385804 0.0442078 0.12245
0 0 0
-0.0758383 0.0364848 0.398312
-1.01533 0.306486 1.15138
-0.11197 0.541187 0.674598
-0.348518 0.0481246 0.843721
-0.051577 0.0366482 -0.0290366
0.0211822 0.0730143 -0.103774
0.00251074 -0.00798957 0.0840057
0.00632041 -0.0481471 0.3233
0.95316 -0.284105 0.617355
0.0156222 0.00147681 0.147353
0 0 0
-0.0584929 0.0413384 0.144405
0.0770638 0.0387337 0.428685
0.0386212 0.366255 0.559738
1.0055 0.302488 1.1519
0.386929 0.131522 1.07463
-0.0031044 0.00418584 -0.0202495
-0.047177 0.0141581 0.174286
-0.0152512 5.97922e-05 0.0901874
0.00418405 0.00195654 0.0655246
6.09839e-07 7.43873e-06 0.000326138
0 0 0
0.00229233 0.000934843 0.0461345
-0.0122114 0.0129916 0.185042
0 0 0
0 0 0
0.00384844 0.00142284 0.0923246
-0.0517317 -0.0390135 0.17379
0.000337662 0.00241613 0.0106604
0 0 0
-0.060466 0.0597616 0.164646
0 0 0
0.0234812 0.0609535 0.206018
0 0 0
0.0366085 -0.00323207 0.203989
-0.00417698 0.00185941 0.0632756
-0.00249854 0.000997503 0.0491315
0 0 0
9.35244e-19 -3.11573e-18 -3.74607e-17
0.0127684 0.0207033 0.191615
-0.00372257 0.0015996 0.0969233
0 0 0
0 0 0
0.176872 -0.126206 0.445931
0.0422346 0.0514401 0.121801
0 0 0
-0.0132124 0.0287766 0.0810508
0 0 0
-0.0511074 -0.00188409 0.247667
-0.00558962 0.0321127 0.115243
0 0 0
-0.00240946 -0.00350248 0.0390624
-0.0967095 -0.00198044 0.0369595
-7.69707e-20 1.10292e-18 3.03002e-17
0 0 0
0.00218416 -0.000394309 0.0706744
0.00137315 0.00037067 0.0141846
0.0270731 0.0290241 0.174964
-0.00108753 0.00104575 -0.000806926
0 0 0
-0.00188758 -0.000355671 -0.0105054
0.00166941 0.0229035 0.157367
0.000154925 0.000684137 0.0307177
0.0352259 0.801096 0.648638
-0.00120429 0.0130701 0.0663987
0.00106899 -0.029123 0.162064
-0.0632157 0.0114103 0.0887782
0 0 0
0 0 0
0.00668177 0.0178304 0.0816688
-0.00142863 0.00036132 -0.000981842
0.0558582 -0.00173366 0.021483
0.0156202 -0.0135582 0.141174
-0.00164877 0.00056473 0.0179801
-0.00278455 0.000161441 0.0777924
0 0 0
-0.0143373 0.0175823 0.100463
0 0 0
0.00147184 0.0169819 0.115761
0.0264265 0.00381989 0.036446
-0.00162391 -0.0164031 0.0934
0.00136256 -0.000673108 0.00130377
-0.00964387 0.0326423 0.134041
0 0 0
0.00291208 0.0011098 0.101462
0 0 0
-0.000101327 0.00182726 0.00902296
0 0 0
-2.86979e-06 1.09622e-05 0.000959513
-0.000160138 0.0133223 0.0514915
0.00322322 0.0162568 0.0767614
1.73358e-08 -2.04897e-07 -1.96615e-05
1.29848e-06 1.47792e-05 0.00123446
0.0186812 0.0656935 0.204187
0.00160321 0.024575 0.257551
2.26517e-05 0.0115831 0.0205675
-5.46486e-05 0.0261359 0.129781
0 0 0
-0.000394338 -0.00719021 0.0386412
-0.0030901 0.00117258 0.105651
0 0 0
0 0 0
0 0 0
2.08364e-05 0.00617857 0.0242401
-0.000782529 0.0107625 0.050097
-0.00548649 0.105589 0.983349
-0.00247188 0.0176395 0.0558647
-0.0213808 -0.0250496 0.198213
-0.0210426 -0.0302108 0.254746
0 0 0
-0.000952001 -0.00891245 0.0841741
0 0 0
0.0013308 0.00734762 0.0234281
0 0 0
0.00643161 0.0458373 0.149904
0.00394854 0.0231099 0.143308
0.0145751 0.0337748 0.140773
0.0480854 0.0967426 0.481116
0.0108515 0.00750854 0.0678177