# vtk DataFile Version 2.0
tet_velo
ASCII
DATASET UNSTRUCTURED_GRID
POINTS 29498 float
-0.742233 0.325 -2.155
-0.689596 0.415 2.255
-0.743632 0.775 -2.055
-0.685 1.03393 2.225
0.742227 0.325 -2.155
0.689594 0.415 2.255
0.743627 0.775 -2.055
0.685 1.03393 2.225
-0.837251 0.242436 -0.685
-0.839156 0.252985 0.785
-0.809678 0.9469 -0.628334
-0.767273 1.01035 0.798333
0.836653 0.24303 -0.685
0.839293 0.252845 0.785
0.809679 0.946904 -0.628334
0.767269 1.01035 0.798333
-1.54194 -0.0543792 -3.33903
-1.55086 -0.022309 -2.18038
-1.61357 -0.0802265 -0.709264
-1.61394 -0.084958 0.770578
-1.52518 0.0277803 2.24243
-1.49618 0.1061 3.40467
-1.50061 0.162764 4.56026
-1.53877 0.244585 -3.30461
-1.54498 0.304545 -2.1507
-1.62154 0.265501 -0.688007
-1.60453 0.262755 0.778582
-1.47872 0.371925 2.2421
-1.46347 0.448074 3.40373
-1.48186 0.503887 4.56073
-1.53878 0.784858 -3.2236
-1.5411 0.843111 -2.0679
-1.59771 0.94966 -0.634752
-1.55529 0.992471 0.795326
-1.4593 1.03389 2.2293
-1.45151 1.10729 3.39273
-1.47225 1.17197 4.55671
-1.55219 1.71396 -3.13468
-1.55647 1.79129 -1.98546
-1.57131 1.92159 -0.566365
-1.56293 2.021 0.843393
-1.53292 2.08059 2.26294
-1.51525 2.12835 3.4131
-1.5098 2.18189 4.57235
-0.760442 -0.0433696 -3.34182
-0.750085 -0.00740517 -2.18446
-0.810211 -0.0910263 -0.708716
-0.833744 -0.0924214 0.776056
-0.768876 0.050881 2.25201
-0.744789 0.123521 3.41117
-0.747764 0.172861 4.56402
-0.762113 0.247653 -3.30547
-0.714566 0.466495 3.40909
-0.732228 0.51394 4.56356
-0.763565 0.759086 -3.21824
-0.706992 1.11323 3.39187
-0.724826 1.17757 4.55653
-0.770296 1.69661 -3.12938
-0.770261 1.77496 -1.97963
-0.786526 1.91915 -0.562846
-0.79115 2.02671 0.842971
-0.775241 2.08426 2.25993
-0.760994 2.13057 3.41009
-0.754237 2.18402 4.57017
0.774664 -0.0432867 -3.34182
0.791008 -0.00727193 -2.18446
0.832502 -0.0906429 -0.708717
0.801628 -0.0924318 0.776056
0.705271 0.0508629 2.25201
0.722995 0.123519 3.41117
0.741579 0.172869 4.56402
0.756146 0.2477 -3.30547
0.722946 0.466492 3.40909
0.74396 0.513946 4.56356
0.753211 0.759114 -3.21824
0.722946 1.11323 3.39187
0.746266 1.17758 4.55653
0.783118 1.69667 -3.12938
0.790365 1.77501 -1.97963
0.783562 1.9192 -0.562846
0.755885 2.02675 0.842971
0.735251 2.08428 2.25993
0.738886 2.13059 3.41009
0.749613 2.18404 4.57017
1.5517 -0.0541871 -3.33903
1.57045 -0.0220188 -2.18038
1.62508 -0.079705 -0.709264
1.60032 -0.0848656 0.770578
1.49677 0.0277576 2.24243
1.4828 0.106103 3.40468
1.497 0.162786 4.56026
1.53218 0.244721 -3.30461
1.54076 0.304726 -2.1507
1.62104 0.266062 -0.688008
1.60973 0.262798 0.778582
1.48651 0.371883 2.2421
1.47449 0.448069 3.40373
1.49426 0.503903 4.56073
1.52712 0.784946 -3.2236
1.5339 0.843178 -2.0679
1.59505 0.949863 -0.634752
1.56118 0.992537 0.795326
1.47164 1.03387 2.2293
1.47067 1.10729 3.39273
1.49403 1.17199 4.55671
1.56018 1.71407 -3.13468
1.56869 1.7914 -1.98546
1.56716 1.9217 -0.566366
1.53662 2.02109 0.843393
1.50416 2.08064 2.26294
1.4996 2.12839 3.4131
1.50792 2.18194 4.57235
-0.772877 0.55 -2.13494
-2.98023e-06 0.266071 -2.21393
-0.853686 0.219774 -1.42
-0.705064 0.724465 2.25777
-1.01328e-06 0.38121 2.28879
-0.800313 0.298056 1.52
-2.5034e-06 0.846764 -2.12676
-0.835224 0.919519 -1.34167
0 1.03413 2.2252
-0.7332 1.0292 1.51167
0.772894 0.55 -2.13497
0.853549 0.219906 -1.42
0.705071 0.724465 2.25777
0.800141 0.298225 1.52
0.835245 0.919544 -1.34167
0.73327 1.02927 1.51167
-0.842078 0.243836 0.0500001
-0.86537 0.594668 -0.656667
-0.000298954 0.242966 -0.685
-0.847784 0.631667 0.791667
6.83317e-05 0.254783 0.785
-0.789938 0.980087 0.0849999
4.54217e-07 1.15827 -0.628334
-2.35439e-06 1.42048 0.798333
0.842086 0.243824 0.0500001
0.865362 0.594967 -0.656667
0.84778 0.631596 0.791667
0.789938 0.980089 0.0849999
-0.896822 0.572334 -1.38083
-0.856702 0.613168 0.0675
-0.855638 0.678066 1.51583
-0.000150967 0.220584 -1.42
-0.000115311 0.248906 0.0500001
3.36592e-05 0.287925 1.52
-2.74181e-06 0.55 -2.37185
-5.06639e-07 0.724465 2.34638
-1.02459e-06 0.970826 -1.34167
-9.50084e-07 1.42727 0.0849999
-1.17719e-06 1.17417 1.51167
0.89682 0.572483 -1.38083
0.856697 0.613281 0.0675
0.855674 0.67803 1.51583
-1.1436 0.314773 -2.15285
-0.746159 0.158797 -2.16973
-0.752173 0.286327 -2.73023
-1.08416 0.393463 2.24855
-0.729236 0.23294 2.25351
-0.702081 0.440747 2.83205
-1.14236 0.809055 -2.06145
-0.753598 0.767043 -2.63662
-0.756947 1.27498 -2.01731
-1.07215 1.03391 2.22715
-0.695996 1.07358 2.80843
-0.730121 1.5591 2.24246
0.766618 0.158864 -2.16973
0.749186 0.28635 -2.73023
1.14149 0.314863 -2.15285
0.697432 0.232931 2.25351
0.70627 0.440746 2.83204
1.08805 0.393441 2.24855
0.748419 0.767057 -2.63662
0.766996 1.27501 -2.01731
1.13876 0.809089 -2.06145
0.703973 1.07358 2.80843
0.710126 1.55911 2.24246
1.07832 1.0339 2.22715
-1.22939 0.253969 -0.686504
-0.823731 0.075705 -0.696858
-1.22184 0.25787 0.781791
-0.83645 0.0802819 0.780528
-1.20369 0.94828 -0.631543
-0.798102 1.43302 -0.59559
-1.16128 1.00141 0.79683
-0.779212 1.51853 0.820652
0.834577 0.0761934 -0.696858
1.22885 0.254546 -0.686504
0.820461 0.0802068 0.780528
1.22451 0.257822 0.781791
0.79662 1.43305 -0.59559
1.20237 0.948383 -0.631543
0.761577 1.51855 0.820652
1.16423 1.00144 0.79683
-1.5464 -0.0383441 -2.75971
-1.54036 0.0951028 -3.32182
-1.15119 -0.0488744 -3.34043
-1.58222 -0.0512677 -1.44482
-1.54792 0.141118 -2.16554
-1.15047 -0.0148571 -2.18242
-1.61375 -0.0825922 0.0306572
-1.61755 0.0926373 -0.698636
-1.21189 -0.0856264 -0.70899
-1.56956 -0.0285888 1.50651
-1.60923 0.0888987 0.77458
-1.22384 -0.0886897 0.773317
-1.51068 0.0669402 2.82355
-1.50195 0.199853 2.24227
-1.14703 0.0393306 2.24722
-1.4984 0.134432 3.98247
-1.47982 0.277087 3.4042
-1.12048 0.114811 3.40792
-1.49124 0.333325 4.56049
-1.12419 0.167812 4.56214
-1.54188 0.274565 -2.72765
-1.53878 0.514721 -3.2641
-1.15044 0.246119 -3.30504
-1.58326 0.285023 -1.41935
-1.54304 0.573828 -2.1093
-1.61303 0.264128 0.0452872
-1.60962 0.60758 -0.66138
-1.54163 0.31734 1.51034
-1.57991 0.627613 0.786954
-1.4711 0.41 2.82292
-1.46901 0.702907 2.2357
-1.47266 0.475981 3.98223
-1.45749 0.777683 3.39823
-1.08902 0.457285 3.40641
-1.47706 0.837928 4.55872
-1.10704 0.508914 4.56215
-1.53994 0.813984 -2.64575
-1.54548 1.24941 -3.17914
-1.15117 0.771972 -3.22092
-1.5694 0.896385 -1.35133
-1.54878 1.3172 -2.02668
-1.5765 0.971066 0.080287
-1.58451 1.43562 -0.600558
-1.5073 1.01318 1.51231
-1.55911 1.50674 0.81936
-1.4554 1.07059 2.81102
-1.49611 1.55724 2.24612
-1.46188 1.13963 3.97472
-1.48338 1.61782 3.40291
-1.07925 1.11026 3.3923
-1.49103 1.67693 4.56453
-1.09854 1.17477 4.55662
-1.55433 1.75262 -2.56007
-1.16124 1.70528 -3.13203
-1.56389 1.85644 -1.27591
-1.16337 1.78313 -1.98254
-1.56712 1.97129 0.138514
-1.17892 1.92037 -0.564606
-1.54792 2.05079 1.55317
-1.17704 2.02386 0.843182
-1.52408 2.10447 2.83802
-1.15408 2.08243 2.26144
-1.51253 2.15512 3.99273
-1.13812 2.12946 3.4116
-1.13202 2.18296 4.57126
-0.755263 -0.0253874 -2.76314
-0.761277 0.102142 -3.32365
0.00711134 -0.0433281 -3.34182
-0.780148 -0.0492158 -1.44659
0.0204615 -0.00733855 -2.18446
-0.821978 -0.0917239 0.0336698
0.0111455 -0.0908346 -0.708716
-0.80131 -0.0207702 1.51403
-0.016058 -0.0924266 0.776056
-0.756833 0.087201 2.83159
-0.0318025 0.0508719 2.25201
-0.746277 0.148191 3.9876
-0.729678 0.295008 3.41013
-0.010897 0.12352 3.41117
-0.739996 0.343401 4.56379
-0.00309222 0.172865 4.56402
-0.762839 0.50337 -3.26186
-0.00298351 0.247676 -3.30547
-0.723397 0.490217 3.98633
-0.710779 0.789863 3.40048
0.00419021 0.466494 3.40909
-0.728527 0.845758 4.56005
0.00586554 0.513943 4.56356
-0.76693 1.22785 -3.17381
-0.00517715 0.7591 -3.21824
-0.715909 1.1454 3.9742
-0.733993 1.6219 3.40098
0.00797705 1.11323 3.39187
-0.739531 1.6808 4.56335
0.0107201 1.17758 4.55653
-0.770279 1.73579 -2.5545
0.00641097 1.69664 -3.12938
-0.778393 1.84705 -1.27124
0.010052 1.77499 -1.97963
-0.788838 1.97293 0.140062
-0.00148214 1.91917 -0.562846
-0.783196 2.05549 1.55145
-0.0176329 2.02673 0.842971
-0.768117 2.10742 2.83501
-0.019995 2.08427 2.25993
-0.757615 2.15729 3.99013
-0.0110537 2.13058 3.41009
-0.00231201 2.18403 4.57017
0.782836 -0.0252793 -2.76314
0.765405 0.102206 -3.32365
1.16318 -0.0487369 -3.34043
0.811755 -0.0489574 -1.44659
1.18073 -0.0146454 -2.18242
0.817065 -0.0915373 0.0336698
1.22879 -0.0851739 -0.70899
0.753449 -0.0207844 1.51403
1.20098 -0.0886487 0.773317
0.714133 0.087191 2.83159
1.10102 0.0393103 2.24722
0.732287 0.148194 3.9876
0.722971 0.295006 3.41013
1.1029 0.114811 3.40792
0.742769 0.343407 4.56379
1.11929 0.167828 4.56214
0.754678 0.503407 -3.26186
1.14417 0.24621 -3.30504
0.733453 0.490219 3.98633
0.722946 0.789862 3.40048
1.09872 0.457281 3.40641
0.745113 0.845763 4.56005
1.11911 0.508924 4.56215
0.768164 1.22789 -3.17381
1.14016 0.77203 -3.22092
0.734606 1.14541 3.9742
0.730916 1.62191 3.40098
1.09681 1.11026 3.3923
0.747939 1.68081 4.56335
1.12015 1.17478 4.55662
0.786742 1.73584 -2.5545
1.17165 1.70537 -3.13203
0.786963 1.8471 -1.27124
1.17953 1.78321 -1.98254
0.769723 1.97297 0.140062
1.17536 1.92045 -0.564606
0.745568 2.05552 1.55145
1.14625 2.02392 0.843182
0.737069 2.10744 2.83501
1.11971 2.08246 2.26144
0.744249 2.15731 3.99013
1.11924 2.12949 3.4116
1.12877 2.18299 4.57126
1.56107 -0.038103 -2.75971
1.54194 0.0952671 -3.32182
1.59776 -0.0508619 -1.44482
1.5556 0.141354 -2.16554
1.6127 -0.0822853 0.0306572
1.62306 0.0931787 -0.698636
1.54854 -0.028554 1.50651
1.60503 0.0889662 0.77458
1.48978 0.0669302 2.82355
1.49164 0.19982 2.24227
1.4899 0.134444 3.98247
1.47865 0.277086 3.4042
1.49563 0.333345 4.56049
1.53647 0.274724 -2.72765
1.52965 0.514834 -3.2641
1.5809 0.285394 -1.41935
1.53733 0.573952 -2.1093
1.61539 0.26443 0.0452871
1.60805 0.607963 -0.66138
1.54812 0.31734 1.51034
1.58546 0.627668 0.786954
1.4805 0.409976 2.82292
1.47908 0.702875 2.2357
1.48438 0.475986 3.98223
1.47258 0.777681 3.39823
1.49414 0.837945 4.55872
1.53051 0.814062 -2.64575
1.54365 1.24951 -3.17914
1.56447 0.89652 -1.35133
1.55129 1.31729 -2.02668
1.57812 0.9712 0.0802869
1.58111 1.43578 -0.600559
[...]
POINT_DATA 29498
VECTORS point_vectors float
-2.4203 -2.28379 4.39227
0.0881585 0.156859 0.392435
-1.43862 1.60309 3.25659
0.26558 -0.229095 1.46664
2.41573 -2.28285 4.3899
-0.0891077 0.156293 0.393342
1.44318 1.60857 3.26529
-0.268022 -0.225527 1.46276
0.0219423 -0.00273415 0.630534
0.0159955 0.0492414 1.38681
0 0 0
0 0 0
-0.0186421 -0.00247702 0.574866
-0.0164977 0.0501054 1.40805
0 0 0
0 0 0
-0.577846 -0.248895 19.8518
-1.26733 -0.681459 20.4662
-0.372437 -0.367497 21.3232
0.112784 -0.0693553 21.4177
0.616259 0.24339 21.2892
0.815731 0.268921 21.1027
0.833269 -0.0152487 21.0547
-0.650188 -0.173291 19.7242
-1.68173 -0.496136 20.4271
-0.468401 -0.410795 21.3854
0.148656 -0.151737 21.4951
0.861358 0.0904968 21.4195
1.08817 0.08977 21.5126
1.12109 -0.0497572 21.1366
-0.74729 0.0754001 19.6853
-1.854 0.172056 20.425
-0.98208 -0.276381 21.3611
-0.114561 -0.321545 21.6129
0.731806 -0.422565 21.4401
0.92861 -0.522035 21.0181
0.73335 -0.281072 20.8536
-0.520215 0.33992 19.9251
-0.889823 0.587127 20.4054
-0.796848 0.342273 21.1158
-0.227792 -0.0389197 21.4762
0.212278 -0.331164 21.2765
0.309782 -0.365873 21.0823
0.242149 -0.296678 20.7495
-0.557527 -0.485635 19.2681
-2.26701 -3.78455 20.3824
-0.138662 -0.187613 21.5689
0.141888 0.279079 20.8088
0.278101 1.24002 17.7567
0.726336 1.72507 16.9692
1.11467 0.84883 15.3816
-0.708115 -0.385528 18.9521
1.52997 1.5594 11.2075
1.71672 0.771054 10.7269
-0.898212 0.219453 18.6943
1.75864 -0.509996 12.567
1.0395 -0.546661 17.3459
-0.485273 0.695698 19.5497
-0.969126 1.52973 20.2085
-1.21947 1.40409 21.2216
-0.290708 0.149405 21.8486
0.160874 -0.531569 21.3837
0.252313 -0.614405 21.0648
0.151687 -0.473592 20.5434
0.561372 -0.480311 19.2746
2.32135 -3.53684 20.3698
0.136436 -0.190717 21.5572
-0.126574 0.292397 20.7267
-0.105502 1.20566 16.9529
-0.701164 1.73522 16.8278
-1.11211 0.837601 15.2867
0.708156 -0.39113 18.9431
-1.53786 1.5432 11.391
-1.6918 0.745841 10.8662
0.887021 0.220158 18.677
-1.75496 -0.516917 12.9939
-1.03197 -0.563386 17.6235
0.490055 0.69016 19.5608
0.982102 1.50004 20.2168
1.21936 1.41033 21.2215
0.289073 0.161327 21.869
-0.149504 -0.533262 21.3945
-0.246122 -0.621627 21.0617
-0.154912 -0.471761 20.5264
0.581654 -0.241377 19.8582
1.2522 -0.646644 20.4787
0.368087 -0.364645 21.3141
-0.114624 -0.0657746 21.4089
-0.631228 0.274163 21.2958
-0.823759 0.268328 21.1104
-0.829702 -0.00703486 21.0663
0.658675 -0.17687 19.7172
1.69305 -0.501063 20.43
0.467876 -0.409932 21.3846
-0.14498 -0.150576 21.4947
-0.847149 0.101354 21.3515
-1.07537 0.0938804 21.5106
-1.11956 -0.0592018 21.3109
0.748663 0.077802 19.682
1.86625 0.165882 20.4276
0.979529 -0.278483 21.3728
0.114854 -0.318368 21.6139
-0.721017 -0.401674 21.3906
-0.922732 -0.50166 21.0024
-0.713229 -0.271916 20.9036
0.520093 0.341786 19.9399
0.880523 0.575277 20.4202
0.799146 0.34107 21.1202
0.231029 -0.0417961 21.4631
-0.20739 -0.331896 21.2657
-0.297944 -0.367186 21.058
-0.23657 -0.299931 20.759
-2.474 -0.061076 3.28885
3.53099e-05 -0.095981 0.240988
0.0348558 -0.0566993 0.999118
0.0801937 0.0522747 0.213347
0.00672633 -0.00507601 -0.00904851
-0.0104493 0.0244766 0.292024
0.00155532 0.121179 0.325175
-0.343317 -0.137474 1.08124
-0.000146754 0.00571498 -0.0499127
0.0158294 0.00726614 0.0515107
2.50713 -0.0605166 3.33146
-0.0363261 -0.0563278 0.986406
-0.0795013 0.0528775 0.211978
0.0101927 0.0242048 0.281925
0.34531 -0.137561 1.08645
-0.0165321 0.00758095 0.0537728
-0.00465974 0.0408026 1.62607
2.13742e-18 -1.2674e-18 1.26218e-16
4.9861e-05 0.000100372 0.0151203
0.000141924 0.00129177 0.00775655
-1.90524e-05 0.00341321 0.0762896
7.87514e-18 1.02402e-17 3.89128e-17
-3.62855e-05 0.0341974 0.0790741
7.4416e-07 -0.000304874 0.00643915
0.00495757 0.0410422 1.63337
0 0 0
-0.000141295 0.00128667 0.00772252
0 0 0
-4.47251e-05 -0.000211615 0.00369246
-2.16988e-06 -1.86191e-05 -0.000132107
0.0717431 0.0496271 0.502741
0 0 0
4.63825e-09 1.29353e-08 1.4297e-06
2.7561e-08 -1.67631e-06 -0.00010439
0.0084574 1.24354 1.09242
0 0 0
-2.89887e-06 1.23554e-05 0.000107489
-3.88998e-06 0.00673253 0.102391
2.00298e-07 0.00144631 -0.00285422
4.54234e-05 -0.000215512 0.00375148
2.64468e-06 -2.27318e-05 -0.000161228
-0.0700692 0.0494454 0.493715
-3.48934 -1.3924 20.2026
-3.96074 -5.95525 20.0489
-2.12637 -1.32072 17.6511
1.38201 0.743894 18.1811
-0.0278571 1.3703 9.17239
0.240211 1.34771 6.34763
-3.81614 0.803684 20.2538
-2.78821 1.12903 17.0599
-2.14608 2.77877 20.0914
1.19545 -0.404583 18.6216
1.12553 -0.00256289 7.94073
0.412644 -0.853166 20.4371
4.07556 -5.61664 19.9817
2.12775 -1.3276 17.6315
3.50594 -1.40514 20.2011
0.16518 1.27093 8.35753
-0.262811 1.34878 6.4456
-1.36689 0.720407 18.233
2.78214 1.13854 17.0345
2.15936 2.73249 20.0911
3.84117 0.81909 20.2436
-1.15204 0.00370878 8.20365
-0.432277 -0.836447 20.1161
-1.18349 -0.419909 18.7721
-0.27028 -0.674922 21.6948
0.225085 0.142526 16.3668
0.332247 -0.109694 20.9522
0.254523 0.337816 16.199
-1.59617 -0.887559 21.5704
-3.06126 1.75015 21.3147
-0.12116 -0.593673 20.2794
-0.622212 0.0210986 21.61
-0.223194 0.12574 16.639
0.270747 -0.675187 21.6931
-0.246379 0.335344 15.8579
-0.327968 -0.112412 20.9871
3.06518 1.7579 21.3098
1.60033 -0.893501 21.5594
0.566833 0.0612327 21.2325
0.1251 -0.603249 20.3468
-0.973145 -0.474606 19.9704
-0.623018 -0.21659 19.7975
-0.622464 -0.377051 19.5877
-0.895621 -0.576695 21.1551
-1.47514 -0.611059 20.4338
-1.9578 -1.56338 20.3915
-0.0986946 -0.217689 21.3881
-0.421266 -0.370705 21.3468
-0.22814 -0.39847 21.5259
0.351959 0.0896941 21.3803
0.12191 -0.0932743 21.4258
0.212397 0.0407537 21.5159
0.76143 0.310608 21.1669
0.734811 0.194284 21.3509
0.818652 0.698031 21.048
0.887269 0.287389 20.2841
0.941432 0.206297 21.1325
1.01926 0.817311 20.9511
0.946598 -0.0485178 21.2514
0.864181 0.564316 20.6343
-1.21045 -0.326001 19.8499
-0.736582 -0.0609191 19.711
-0.73387 -0.28388 19.3869
-1.12592 -0.51389 21.2499
-1.83236 -0.186366 20.4271
-0.132301 -0.300621 21.441
-0.695606 -0.425095 21.3785
0.463332 -0.0223604 21.5189
0.0631732 -0.266266 21.5933
0.981677 0.14438 21.215
0.920921 -0.174246 21.4685
1.04684 0.0352408 20.3449
1.10932 -0.231752 21.0981
1.75497 0.721359 18.6031
0.948715 -0.231387 21.0125
1.42219 0.366113 15.9318
-1.37284 0.157169 19.8091
-0.664534 0.269258 19.7798
-0.901788 0.146325 19.2521
-1.4092 -0.0702077 21.1361
-1.37121 0.550063 20.389
-0.562085 -0.341768 21.5639
-1.05208 0.128704 21.2443
0.344839 -0.333564 21.5865
-0.256267 -0.151568 21.5644
0.86184 -0.455603 21.1953
0.395512 -0.431006 21.3258
0.625203 -0.429613 21.0056
0.509838 -0.461984 20.8859
1.39072 -0.682201 19.5858
0.355638 -0.302087 20.8969
0.985156 -0.519787 19.701
-0.755538 0.492514 20.0954
-0.55569 0.527223 19.7381
-0.905941 0.493587 20.7951
-1.03418 1.00447 20.3202
-0.545025 0.154668 21.3891
-1.05985 0.715246 21.2126
0.0416409 -0.20601 21.3322
-0.287897 0.0148399 21.6308
0.309159 -0.373982 21.1778
0.18614 -0.43073 21.3485
0.416173 -0.421637 20.6204
0.32685 -0.558597 21.0769
0.231748 -0.43859 21.0718
-1.29576 -1.54391 18.887
-0.62865 -0.430344 19.1119
0.0078824 -0.698761 18.9103
-0.67528 -1.222 22.1846
0.0515334 -5.43325 21.3113
0.0313522 0.0599512 20.9918
0.00566353 -0.334117 20.6748
0.238195 0.656628 19.3376
1.21078e-05 0.107622 18.8657
0.389498 1.37753 17.3346
-0.0456311 0.443543 13.4956
0.596432 1.20741 16.5702
0.982099 1.88415 13.0906
-0.0318346 1.07432 10.8409
1.43026 0.849154 12.8116
0.0162113 1.03661 12.9395
-0.824119 -0.118756 18.8012
-0.00391651 -0.537621 18.4554
1.76586 1.43507 12.2196
2.5106 0.595275 8.9578
0.00687309 -0.985252 -4.43649
1.45689 0.102723 13.7192
-0.00994098 0.707059 6.37437
-0.736264 0.67463 19.0866
-0.00958763 0.35623 17.9572
1.67334 -0.73516 13.8112
0.57225 -0.985888 20.015
-0.0198581 -1.08205 1.07457
0.463139 -0.813309 19.5053
-0.0116514 -1.39558 6.61207
-0.767452 1.22817 19.6934
0.00467183 0.946085 19.3133
-1.10498 1.44861 20.6642
0.0203143 2.15791 20.0444
-0.822958 0.808932 21.8453
-0.00330512 2.6393 21.0521
0.0248789 -0.297604 21.6694
-0.0148615 0.374145 22.087
0.220665 -0.618546 21.243
0.00376295 -0.565467 21.5131
0.109692 -0.586283 21.0176
0.00627114 -0.709258 21.1532
0.000769806 -0.563434 21.1133
1.31091 -1.48191 18.9277
0.632867 -0.426571 19.1142
0.6213 -0.373321 19.5915
0.705368 -1.2109 22.1556
1.90548 -1.46784 20.401
-0.0295775 0.0643884 20.984
0.233373 -0.399976 21.5173
-0.188485 0.65622 19.0375
-0.209065 0.0501959 21.5189
-0.221894 1.33209 16.7242
-0.808094 0.769393 20.9505
-0.565097 1.23106 16.5084
-0.974884 1.88475 12.9823
-1.00972 0.878944 20.7321
-1.41611 0.833134 12.8366
-0.87224 0.565131 20.5757
0.816334 -0.120759 18.786
0.738796 -0.28213 19.3805
-1.75937 1.43192 12.4627
-2.54934 0.591644 9.1851
-1.71752 0.687169 18.7301
-1.44163 0.0836025 13.9228
-1.40903 0.34892 16.0897
0.735115 0.672389 19.0843
0.899319 0.146702 19.246
-1.65129 -0.748352 14.262
-0.565829 -0.985974 19.9969
-1.36791 -0.668103 19.7471
-0.462078 -0.80673 19.524
-0.977185 -0.497857 19.7459
0.776057 1.20889 19.7092
0.558138 0.519044 19.7438
1.10704 1.4386 20.6667
1.03245 0.983428 20.3257
0.823978 0.840106 21.862
1.06103 0.719152 21.2144
-0.0238991 -0.296058 21.6787
0.293098 0.0256362 21.6433
-0.202526 -0.620623 21.2391
-0.188045 -0.442727 21.3544
-0.106491 -0.589847 21.039
-0.335495 -0.572438 21.0851
-0.228137 -0.443192 21.0769
0.972582 -0.467427 19.995
0.629885 -0.212042 19.7992
0.885182 -0.554699 21.1472
1.47079 -0.595459 20.4328
0.0953174 -0.216869 21.3911
0.42775 -0.36511 21.3397
-0.358203 0.101243 21.398
-0.121625 -0.0942564 21.4266
-0.781623 0.339634 21.1593
-0.741823 0.206887 21.3529
-0.908264 0.295233 20.2401
-0.934217 0.207603 21.1343
-0.951118 -0.0490697 21.2452
1.21784 -0.333215 19.8232
0.735349 -0.0569922 19.7115
1.13239 -0.517679 21.2544
1.85497 -0.18843 20.4413
0.138263 -0.300472 21.4382
0.697187 -0.424731 21.3856
-0.455527 -0.028332 21.5156
-0.0582246 -0.265288 21.5902
-0.966002 0.138736 21.2181
-0.908611 -0.159904 21.3672
-1.01874 0.041877 20.377
-1.09653 -0.231154 21.0862
-0.937774 -0.220435 21.0639
1.37452 0.157887 19.8054
0.666712 0.26989 19.786
1.41421 -0.0767676 21.1519
1.36502 0.55261 20.3916
0.561917 -0.341948 21.5661
1.05729 0.123413 21.2514
-0.340246 -0.329644 21.5821
0.258057 -0.15648 21.5761
-0.845084 -0.45111 21.176
-0.389654 -0.433278 21.3492
-0.604358 -0.409035 20.9549
-0.518558 -0.467541 20.9132
-0.356846 -0.306939 20.8573
0.751232 0.487445 20.0944
0.901589 0.489849 20.8018
0.55756 0.152982 21.4017
-0.0481985 -0.209722 21.3807
-0.308618 -0.366628 21.179
-0.399968 -0.46021 20.6353
-1.07741 -0.414574 19.9063
-1.6571 -1.54309 18.3372
-1.25803 -0.905697 19.5446
-1.73707 -0.627389 19.1535
-0.692567 -0.358907 19.5137
-2.64814 -1.64397 20.3059
-0.98291 -0.567991 21.1966
-0.114476 -0.663712 16.4134
-0.938478 -0.958847 21.6108
-1.3558 -1.02975 21.977
-0.211911 -0.499792 21.6193
-0.114037 -0.241194 21.4099
0.253681 0.173338 16.1106
0.0284291 -0.169871 21.5037
0.0831814 -0.403638 21.3123
0.299256 -0.021944 21.4404
0.412935 0.0440353 21.4517
0.0639454 0.627366 12.7331
0.472537 0.332293 21.4465
0.718519 0.286186 19.9565
1.1205 0.779732 19.871
0.883177 0.26025 21.1813
0.193523 1.42906 11.2407
0.964603 0.788261 20.7404
1.48729 0.698728 18.6927
1.24374 0.839889 19.2558
0.973992 0.167836 20.3012
1.37817 1.294 12.9504
1.00797 0.541774 20.9674
1.63223 0.754881 20.3197
1.13095 0.437876 18.0708
-1.33636 -0.115355 19.8037
-2.69849 -0.303078 16.9597
-2.09269 0.414684 18.9953
-0.877421 -0.0917161 19.2852
-4.23027 -0.354751 20.1582
-1.31817 -0.355226 21.2473
-2.19978 -0.189835 21.6643
-0.702758 -0.914928 21.3345
-0.29984 -0.385262 21.5101
-0.826068 -0.917482 20.9586
0.281165 -0.286264 19.8246
0.46325 -0.169303 21.5946
0.647182 -0.301519 19.3701
1.51328 0.224524 17.5017
1.0294 -0.218086 21.201
0.776935 0.967916 4.5982
1.27627 -0.583711 19.3142
1.81446 0.0289737 17.9056
0.89337 -0.26102 20.75
2.12662 0.399267 11.0792
1.249 -0.624513 19.8972
1.245 -0.290675 18.7326
-1.06631 0.454109 19.947
-1.49469 1.7267 18.8707
-0.830893 0.840222 19.9114
-0.754705 0.444273 19.4676
-1.9553 1.29437 20.2636
-1.26048 0.333753 20.9201
-2.15025 1.79279 20.7644
-1.08627 0.893421 20.7775
-1.78874 0.401833 21.3748
-0.687612 -0.019993 21.5119
-1.98049 0.565307 22.1255
-0.723744 0.384854 21.5865
-0.425197 -0.167314 21.9125
0.122151 -0.299478 21.482
0.225282 -0.576262 20.7691
0.0104634 -0.254867 21.517
0.415164 -0.673548 21.4793
0.503945 -0.488676 21.2068
0.482005 -0.982441 20.6778
0.266132 -0.501581 21.1442
0.584289 -0.808863 21.1895
0.561156 -0.565043 20.762
0.487057 -0.970381 19.7053
0.115098 -0.340427 21.0831
0.401055 -0.542087 20.3657
1.66378 -1.50761 18.3766
0.0289695 -2.49248 18.0695
-0.00626767 -2.50728 15.676
0.00430552 -0.625708 18.6887
0.0239232 -7.94815 21.7219
0.164992 -0.725761 16.9981
0.0160679 -1.35999 21.9705
-0.0038289 0.0693085 11.5669
-0.252085 0.174212 16.0525
-0.000702593 -0.0871253 19.4585
0.00292128 0.147798 11.086
-0.0243496 0.58454 12.1915
0.0022677 0.329235 16.279
-0.0577133 0.201764 3.94928
-0.0783547 1.39631 10.8054
-0.108374 -0.138445 11.5237
0.00545013 -1.90002 -4.07727
-0.0162158 0.570455 3.21212
-1.38594 1.30379 12.8823
-0.0147699 0.71663 9.91703
0.013827 -2.21882 -4.205
0.00332268 1.0213 10.0718
2.69682 -0.299508 16.9319
-0.0290945 2.55777 14.2269
-0.00524938 -0.17927 18.042
-0.782306 0.966235 4.71641
-8.34599e-05 -0.369091 -0.184803
-0.0229604 -0.771089 -3.51224
-2.09996 0.389028 11.4119
-0.020646 -1.67485 3.82669
-0.0254311 -0.681552 3.41023
1.49443 1.71478 18.8795
0.0105634 1.81308 19.4227
-0.000554009 0.961776 18.6211
0.0101774 4.17594 19.9491
2.14985 1.77716 20.7665
0.00929339 2.19258 20.4534
-0.00567064 5.28651 19.3372
2.00037 0.568675 22.0668
-0.0205603 1.6163 22.2284
0.00176642 0.122402 17.6485
-0.266653 -0.565736 20.4194
-0.000249476 -0.29152 21.7254
0.00242764 -0.745227 14.0568
-0.469761 -0.984051 20.6756
0.00500295 -0.687421 21.2462
-0.00391682 -1.26212 17.1575
-0.485893 -0.966744 19.7171
0.00245285 -0.843631 20.7886
-0.00429781 -0.954785 19.353
1.09349 -0.41385 19.9089
1.24783 -0.873719 19.5688
1.74422 -0.631665 19.1444
0.696669 -0.357976 19.5138
2.57993 -1.58581 20.3136
0.976719 -0.551221 21.1984
0.948016 -0.932531 21.5756
1.35782 -1.03207 21.9831
0.222008 -0.50288 21.6106
0.115734 -0.238109 21.4127
-0.0272861 -0.169911 21.5042
-0.0792845 -0.404613 21.3235
-0.303084 -0.0110221 21.3875
-0.411153 0.0433955 21.4563
-0.47546 0.362883 21.4028
-0.717516 0.276201 20.0228
-1.11288 0.856108 19.5195
-0.876699 0.264136 21.1834
-0.957137 0.845517 20.699
-1.47508 0.674289 18.7835
-1.23657 0.85203 19.2064
-0.966986 0.172223 20.3016
-1.00359 0.569768 20.9829
-1.61187 0.714314 20.3456
-1.12829 0.429367 18.1214
1.35017 -0.112164 19.8023
2.11208 0.424558 18.9735
0.882332 -0.0915808 19.2786
4.26491 -0.357908 20.1557
1.32804 -0.356974 21.2503
2.20465 -0.193062 21.6707
0.701759 -0.918806 21.3202
0.303575 -0.384831 21.5149
0.827664 -0.916771 20.9699
-0.278087 -0.293037 19.887
-0.457325 -0.169692 21.6101
-0.636257 -0.322962 19.4758
-1.48993 0.1915 17.582
-1.01468 -0.217381 21.2069
-1.25742 -0.588571 19.4424
-1.77089 0.00324887 18.2072
-0.853286 -0.240473 20.7939
-1.22825 -0.599929 20.0665
-1.22839 -0.302062 18.9694
1.06902 0.455995 19.9528
0.830192 0.825577 19.9252
0.750329 0.443606 19.462
1.94306 1.27799 20.2634
1.26138 0.335755 20.9276
1.08358 0.884442 20.7784
1.79318 0.40433 21.3717
0.695143 -0.0240235 21.518
0.72983 0.404377 21.5919
0.433065 -0.163913 21.9236
-0.128371 -0.311707 21.4943
-0.0113028 -0.260072 21.5186
-0.412551 -0.681276 21.488
-0.511909 -0.500227 21.1525
-0.259959 -0.519049 21.1547
-0.591994 -0.805903 21.1993
-0.58923 -0.573518 20.8157
-0.110041 -0.349509 21.0901
-0.399079 -0.53949 20.3695
-1.47699 -0.843552 19.3726
-1.12285 -1.02285 21.7942
0.0856567 -0.261818 21.5056
0.62953 0.326673 21.0256
1.22779 0.852782 19.6538
1.37763 0.695182 20.5498
-2.03587 -0.179079 18.9757
-1.91852 -0.759757 22.1583
-0.128216 -0.708003 20.588
0.81292 0.0948267 19.0095
1.62288 0.105574 18.0659
1.58926 -0.0941846 19.4417
-1.38936 0.923135 19.525
-1.80944 0.769854 20.9586
-1.16416 0.0603517 21.8816
0.124213 -0.450636 21.7765
0.52868 -0.758825 21.2853
0.548038 -0.74903 20.6636
0.0222616 -2.63628 16.9814
0.0020186 -0.346001 11.7412
-0.000208372 0.0518516 11.0488
-0.00167502 0.193898 8.07611
-0.030709 -1.21991 0.96247
-0.000350059 -0.7077 2.81618
-0.00847088 -0.33106 14.0523
0.0102596 -0.842546 -2.98576
-0.0380895 -1.65591 -0.38546
0.000614344 2.8143 18.0906
0.00604233 3.18962 20.2492
-0.0118402 2.17593 19.9656
0.00162733 -0.526377 13.8307
0.00538356 -0.87005 15.5218
-0.00474643 -0.987995 17.9426
1.4761 -0.829392 19.3823
1.12754 -1.00702 21.7699
-0.0841205 -0.261681 21.5001
-0.629285 0.352676 20.842
-1.23537 0.887531 19.5388
-1.37779 0.700976 20.5475
2.04687 -0.182228 18.9634
1.92047 -0.764322 22.164
0.130381 -0.709077 20.6052
-0.811053 0.074519 19.123
-1.59797 0.0888912 18.2061
-1.56414 -0.118074 19.7293
1.38522 0.917118 19.525
1.8031 0.766854 20.9553
1.17383 0.065586 21.888
-0.124767 -0.455799 21.7915
-0.531213 -0.76327 21.2872
-0.544047 -0.733274 20.6453
-1.5071 -0.503382 2.23768
0.00293771 -0.148516 0.286406
-0.103702 -0.326404 2.02057
0.138566 0.0656162 0.336073
-0.0485029 0.0131133 0.0249552
0.00625446 0.108628 0.420644
-0.412246 0.131464 0.478007
-0.000688721 0.0111014 0.0272301
-0.58447 -0.0146488 2.05068
0.0713045 0.0302992 0.184743
0.0018411 0.00213045 -0.0193314
0.0174439 0.00396223 0.112195
-0.00268314 -0.146448 0.283185
1.49991 -0.500966 2.22759
0.105066 -0.332874 2.0565
0.0481691 0.0122889 0.0240559
-0.13174 0.0676809 0.331432
-0.00654147 0.108383 0.421958
0.000578609 0.00919927 0.0225792
0.402401 0.128009 0.467775
0.584142 -0.0144197 2.04998
-0.00206381 0.00213939 -0.0193978
-0.0708486 0.0309654 0.183779
-0.0176828 0.00410511 0.112517
0.0212503 0.00852133 0.954709
0.0125123 0.0172173 1.00863
0 0 0
0 0 0
0.00294544 0.0236468 0.316235
-0.00985824 0.077561 1.90743
0.000539683 0.00428368 0.0395881
0 0 0
-0.208524 -0.195924 0.618632
0 0 0
0 0 0
-0.00737042 0.00425732 0.00810508
0 0 0
0 0 0
0 0 0
0.114385 0.0361056 0.619886
-0.0184316 0.0153578 0.92642
0 0 0
-0.0116292 0.0167151 0.969675
-2.40362e-19 -3.71105e-20 1.04166e-17
-0.0029172 0.0232283 0.310091
0 0 0
0.011228 0.0811524 2.01502
-0.000540217 0.00427807 0.0395982
0.208991 -0.196182 0.620063
0.00779017 0.00447093 0.0085571
0 0 0
0 0 0
0 0 0
-0.11449 0.03624 0.620645
0 0 0
0 0 0
-0.00512231 -0.000385933 0.0396657
-0.514479 0.408754 0.570932
0 0 0
0 0 0
-0.000997797 -0.00276649 0.13533
0 0 0
0.00236589 0.00135268 0.0164691
-0.0170292 0.00970904 0.000212417
6.4538e-08 -1.98121e-06 -0.000107084
-0.00140019 0.0516562 -0.030206
0 0 0
0 0 0
-0.000168511 0.297053 0.14076
-1.86477e-06 0.00248331 0.0154146
0 0 0
0 0 0
0 0 0
-1.42135e-06 9.59185e-05 -0.00187448
0.00305682 0.00542487 0.0390687
-0.00184666 0.00131252 -0.00328387
0.514789 0.410791 0.573064
0.00471084 -0.00036324 0.0366414
0 0 0
0.000996192 -0.00282246 0.135062
0.0171103 0.00980822 0.000206273
-0.00236163 0.00135366 0.0163798
0 0 0
4.52747e-18 -3.49184e-17 -2.42694e-16
0 0 0
0 0 0
0.0018116 0.00134272 -0.00330829
-0.00306558 0.00548883 0.0390815
0.000112766 0.000776482 0.00813957
0 0 0
0 0 0
0 0 0
0 0 0
-1.53649e-07 -3.60392e-07 -3.55824e-05
3.97407e-05 0.000348065 0.00224416
-0.000637933 0.0101952 0.0586241
6.9187e-08 2.15649e-07 2.57629e-05
-5.1794e-07 0.000142299 0.00416121
0 0 0
0.00970777 0.0596237 0.63461
-3.60401e-05 0.00129391 0.00244015
6.43471e-06 0.428899 1.05323
-2.05614e-06 4.53543e-05 0.033527
7.85474e-07 -1.43676e-05 -4.1051e-05
0 0 0
-0.000112833 0.000777915 0.00814681
0 0 0
0 0 0
0 0 0
0.000579354 0.00959686 0.055064
-0.00963658 0.0597814 0.635783
0 0 0
-0.0638066 -0.0275168 0.427693
-0.0024921 -0.000709253 0.0233722
0.0141172 -0.0131865 0.27928
0 0 0
2.56441e-05 9.8384e-05 0.00166051
1.80318e-18 1.23455e-17 9.11357e-17
0.000226706 0.00159535 0.0150682
0 0 0
-5.49106e-05 0.000695188 0.00754568
0 0 0
0.00190949 0.00146482 0.013073
0.00421199 0.00196833 0.0283335
0 0 0
0 0 0
0 0 0
0 0 0
0 0 0
0 0 0
0 0 0
0 0 0
0.000122895 0.000808674 0.0238038
-0.000126421 0.000814502 0.0239867
0 0 0
0 0 0
-0.244668 -0.320713 0.150747
0.244267 -0.319938 0.150284