# vtk DataFile Version 2.0
tri_press
ASCII
DATASET UNSTRUCTURED_GRID
POINTS 3682 float
-0.805 0.145 -1.84599
-0.762379 0.275 2.145
-0.655 0.574981 -1.915
-0.609809 0.765 1.985
0.775 0.145 -1.8496
0.736521 0.275 2.145
0.655028 0.575 -1.915
0.609811 0.765 1.985
-0.816118 0.163008 -0.51566
-0.84204 0.166213 0.81467
-0.810807 0.809191 -0.615
-0.794695 0.871483 0.685
0.794904 0.155603 -0.518067
0.826497 0.154517 0.813467
0.810873 0.80925 -0.615
0.794695 0.871478 0.685
-1.61308 -0.221968 -2.84649
-1.60396 -0.146889 -1.79422
-1.61247 -0.127807 -0.463016
-1.60476 -0.125912 0.874257
-1.54431 -0.0591162 2.20597
-1.53147 -0.0239306 3.26077
-1.54237 -0.00316951 4.31094
-1.59599 0.046005 -2.8913
-1.58723 0.144671 -1.84244
-1.61346 0.188986 -0.517311
-1.5966 0.183493 0.810477
-1.49487 0.229173 2.13621
-1.49965 0.261963 3.19064
-1.52567 0.285302 4.24187
-1.52675 0.553892 -2.97285
-1.4907 0.65068 -1.92326
-1.58831 0.819777 -0.618895
-1.55334 0.85287 0.683293
-1.39903 0.788873 1.98832
-1.44412 0.819708 3.04407
-1.50008 0.860452 4.10029
-1.48293 1.45988 -3.1179
-1.47476 1.56993 -2.07262
-1.5131 1.7279 -0.778237
-1.53422 1.803 0.5096
-1.51317 1.78684 1.80446
-1.50659 1.77821 2.85074
-1.51874 1.79442 3.90352
-0.839713 -0.224395 -2.8493
-0.813491 -0.147007 -1.79793
-0.813312 -0.143526 -0.463297
-0.827324 -0.138247 0.877724
-0.796136 -0.0357702 2.21251
-0.791438 -0.00972862 3.26514
-0.800656 0.00139657 4.31335
-0.836107 0.0360132 -2.89257
-0.776641 0.275412 3.19422
-0.792861 0.288194 4.24365
-0.774496 0.519234 -2.96951
-0.729447 0.811978 3.04326
-0.7759 0.855212 4.09994
-0.712948 1.43828 -3.11457
-0.695069 1.55087 -2.06886
-0.731919 1.72512 -0.776058
-0.772421 1.80737 0.509033
-0.77465 1.78279 1.80208
-0.772919 1.7704 2.84836
-0.782132 1.7872 3.90171
0.717888 -0.225844 -2.85163
0.772013 -0.14896 -1.80082
0.797442 -0.149992 -0.465465
0.802263 -0.147203 0.876524
0.738027 -0.0390478 2.2121
0.70187 -0.0124349 3.26475
0.688186 -0.00165674 4.31286
0.695436 0.0351995 -2.89482
0.679357 0.273625 3.19396
0.675495 0.285527 4.24323
0.678326 0.518711 -2.97062
0.642505 0.8106 3.04306
0.662913 0.8529 4.09957
0.802129 1.43702 -3.11542
0.829355 1.54969 -2.06952
0.824488 1.72371 -0.776584
0.765517 1.80564 0.508598
0.703938 1.78082 1.80169
0.688877 1.76818 2.84794
0.688648 1.78468 3.90124
1.50497 -0.225478 -2.85064
1.55764 -0.15159 -1.79883
1.59491 -0.138255 -0.466682
1.59329 -0.139807 0.872023
1.51461 -0.0676344 2.20482
1.46565 -0.0304607 3.2598
1.44646 -0.00966424 4.30988
1.48451 0.043559 -2.89524
1.54825 0.141948 -1.847
1.59645 0.179726 -0.520794
1.59652 0.169715 0.808467
1.48987 0.222172 2.13535
1.43833 0.256617 3.18987
1.42894 0.279443 4.24093
1.46024 0.552196 -2.97534
1.48898 0.64957 -1.92523
1.59586 0.816503 -0.620419
1.56605 0.8473 0.682319
1.40782 0.784259 1.98773
1.39053 0.815417 3.04344
1.40753 0.855309 4.09945
1.56461 1.45708 -3.1197
1.59123 1.56717 -2.07412
1.59856 1.72462 -0.779458
1.54315 1.79901 0.508591
1.46732 1.78242 1.80357
1.44057 1.77342 2.84983
1.43774 1.78919 3.90252
-0.709249 0.35999 -1.85974
-0.015 0.141407 -1.85139
-0.81994 0.144624 -1.18083
-0.649139 0.52 2.02805
-0.012929 0.293857 2.12614
-0.819498 0.203317 1.47984
1.40071e-05 0.66168 -2.00169
-0.801549 0.760732 -1.265
1.01328e-06 0.843198 2.0632
-0.746378 0.862367 1.335
0.697874 0.36 -1.86516
0.794444 0.14081 -1.18383
0.642061 0.52 2.03389
0.802604 0.193663 1.47923
0.801628 0.760803 -1.265
0.746394 0.86238 1.335
-0.830835 0.162854 0.149505
-0.877389 0.4861 -0.56533
-0.0106072 0.132166 -0.516863
-0.878047 0.518848 0.749835
-0.00777135 0.139335 0.814068
-0.812 0.849586 0.035
3.30094e-05 0.999461 -0.615
4.45832e-08 1.24071 0.685
0.810508 0.155253 0.1477
0.877195 0.482427 -0.566533
0.877885 0.512998 0.749233
0.812062 0.849643 0.035
-0.881597 0.423045 -1.22291
0.881551 0.421213 -1.22442
-0.0128036 0.12254 -1.18233
2.35082e-05 0.897021 -1.265
-0.007493 0.359995 -2.08225
-0.892736 0.502474 0.0922525
0.892416 0.497712 0.09135
-0.00918927 0.127368 0.148603
1.6527e-05 1.28659 0.035
-0.887099 0.519424 1.40742
0.887184 0.516499 1.40712
-0.0103502 0.169988 1.47953
5.28931e-07 1.06753 1.335
-0.00646399 0.52 2.12578
-0.738995 0.252495 -1.83474
-0.41 0.13959 -1.8523
-0.812902 0.144379 -1.51341
-0.66926 0.3975 2.05002
-0.387654 0.296659 2.12334
-0.785847 0.244251 1.81242
-0.684702 0.467486 -1.88995
-0.327493 0.642994 -1.98301
-0.773263 0.712844 -1.59
-0.648164 0.6425 2.02521
-0.304904 0.822812 2.04281
-0.699065 0.834655 1.66
0.38 0.139649 -1.85405
0.725558 0.2525 -1.8465
0.785463 0.142164 -1.51672
0.361796 0.294247 2.12575
0.658738 0.3975 2.05889
0.770117 0.233777 1.81212
0.327521 0.643023 -1.98303
0.681809 0.4675 -1.89544
0.773125 0.712698 -1.59
0.304906 0.822881 2.04288
0.644742 0.6425 2.02825
0.699111 0.834698 1.66
-0.813683 0.158162 -0.848243
-0.823821 0.162587 -0.183078
-0.866655 0.314604 -0.540495
-0.422793 0.128727 -0.516262
-0.823025 0.192509 1.14725
-0.83457 0.166401 0.482088
-0.871663 0.336721 0.782253
-0.439523 0.12354 0.814369
-0.799707 0.778491 -0.94
-0.869481 0.660337 -0.590165
-0.812353 0.830339 -0.29
-0.431543 0.956638 -0.615
-0.772576 0.868965 1.01
-0.854734 0.704347 0.717418
-0.802338 0.859525 0.36
-0.475038 1.21148 0.685
0.792202 0.150679 -0.85095
0.399772 0.128637 -0.517465
0.803025 0.155109 -0.185183
0.865512 0.304284 -0.5423
0.805947 0.182694 1.14635
0.420945 0.123761 0.813768
0.815565 0.157822 0.480583
0.870368 0.324669 0.78135
0.799769 0.778545 -0.94
0.43149 0.95643 -0.615
0.869986 0.658814 -0.590767
0.812376 0.830356 -0.29
0.772575 0.86896 1.01
0.47504 1.21148 0.685
0.855641 0.701914 0.717117
0.802366 0.859547 0.36
-0.869925 0.391518 -1.54133
-0.358371 0.359993 -2.03543
-0.0139018 0.123173 -1.51686
-0.0112465 0.250701 -2.10074
-0.870343 0.283834 -1.20187
-0.416372 0.113955 -1.18158
-0.854012 0.519712 1.71773
-0.327802 0.52 2.15943
-0.0116396 0.196873 1.80284
-0.00969649 0.406928 2.17728
-0.878141 0.361371 1.44363
-0.414924 0.159167 1.47968
1.87577e-05 0.829077 -1.63334
-0.0037395 0.510837 -2.11751
-0.883887 0.591889 -1.24396
-0.400763 0.875706 -1.265
7.71105e-07 0.972472 1.6991
-0.00323149 0.681599 2.09314
-0.889078 0.690896 1.37121
-0.373189 1.04234 1.335
0.869749 0.390607 -1.54479
0.34519 0.359998 -2.03872
0.870229 0.281012 -1.20413
0.39082 0.113802 -1.18308
0.852471 0.518249 1.72051
0.317798 0.52 2.16023
0.878224 0.355081 1.44318
0.396127 0.159359 1.47938
0.883882 0.591008 -1.24471
0.400826 0.875702 -1.265
0.889397 0.68944 1.37106
0.373197 1.04185 1.335
-0.877141 0.324986 0.120879
-0.428485 0.128166 0.149054
-0.880026 0.454572 -0.894121
-0.885374 0.494287 -0.236539
-0.0117054 0.132631 -0.849596
-0.00989823 0.131934 -0.18413
-0.887548 0.510661 0.421044
-0.894384 0.519136 1.07863
-0.00848031 0.134286 0.481335
-0.00906076 0.154163 1.1468
-0.880458 0.690075 0.0636263
-0.496076 1.24826 0.035
2.82588e-05 0.932737 -0.94
2.47682e-05 1.17475 -0.29
8.28578e-06 1.29075 0.36
2.86757e-07 1.1622 1.01
0.875422 0.314502 0.119525
0.407552 0.127525 0.148151
0.879531 0.45182 -0.895475
0.885066 0.49007 -0.237592
0.88749 0.505355 0.420292
0.894345 0.514748 1.07818
0.881158 0.688137 0.063175
0.496112 1.24826 0.035
-0.865673 0.268165 -1.52737
-0.870735 0.304194 -0.871182
-0.867238 0.619767 -0.917061
-0.880981 0.529687 -1.56566
0.865705 0.266756 -1.53075
0.88014 0.529254 -1.56739
0.867612 0.618423 -0.917738
0.870442 0.300013 -0.873213
-0.413186 0.113661 -1.51513
0.38541 0.113762 -1.51679
0.391484 0.128558 -0.850273
-0.414867 0.128543 -0.848919
-0.364128 0.812506 -1.61167
-0.403075 0.91466 -0.94
0.403139 0.914666 -0.94
0.364173 0.812497 -1.61167
-0.384186 0.251598 -2.03931
-0.342932 0.489162 -2.07653
0.336356 0.489169 -2.07817
0.362595 0.251601 -2.04248
-0.871385 0.320051 -0.209808
-0.878451 0.328829 0.451566
-0.867902 0.697364 0.390522
-0.875416 0.675429 -0.263269
0.870035 0.309609 -0.211388
0.876019 0.673699 -0.263796
0.868762 0.695206 0.390146
0.877069 0.317499 0.450438
-0.42562 0.128485 -0.183604
0.403496 0.128414 -0.184657
0.413383 0.127374 0.480959
-0.43315 0.12756 0.481712
-0.474513 1.12385 -0.29
-0.500874 1.2605 0.36
0.500888 1.26049 0.36
0.474551 1.12385 -0.29
-0.88663 0.351951 1.11294
-0.843879 0.379435 1.76507
-0.811847 0.666698 1.68887
-0.86369 0.69303 1.04431
0.885248 0.344419 1.11226
0.864952 0.690839 1.04409
0.811203 0.66597 1.69025
0.843141 0.376291 1.76631
-0.419915 0.133175 1.14703
0.402745 0.133227 1.14658
0.378961 0.191002 1.80748
-0.401289 0.190712 1.80763
-0.385268 1.13874 1.01
-0.339046 0.960671 1.67955
0.339052 0.960684 1.67955
0.385272 1.13848 1.01
-0.357728 0.402214 2.15885
0.339797 0.402214 2.1603
0.311352 0.66205 2.13147
-0.316353 0.66205 2.13095
-0.774848 0.198748 -1.84321
-0.6075 0.141906 -1.84954
-0.809981 0.14366 -1.6797
-0.755559 0.33625 2.13725
-0.575016 0.276614 2.14339
-0.760945 0.272793 1.97871
-0.671693 0.521233 -1.90432
-0.491246 0.601065 -1.94108
-0.721458 0.65124 -1.7525
-0.631316 0.70375 2.00744
-0.457356 0.804143 2.02414
-0.670779 0.81617 1.8225
0.5775 0.141957 -1.85219
0.752152 0.19875 -1.84992
0.78119 0.142624 -1.68316
0.549159 0.283121 2.13688
0.705121 0.33625 2.10944
0.73572 0.271988 1.97856
0.491274 0.600638 -1.94064
0.669793 0.52125 -1.90659
0.72148 0.651253 -1.7525
0.457359 0.804939 2.02494
0.629296 0.70375 2.00865
0.670796 0.816184 1.8225
-0.812354 0.163131 -0.681951
-0.819969 0.162798 -0.349369
-0.852335 0.233331 -0.528078
-0.625624 0.133529 -0.515961
-0.827076 0.184818 0.980961
-0.835025 0.169587 0.648379
-0.862585 0.2486 0.798461
-0.650686 0.125068 0.81452
-0.805467 0.794051 -0.7775
-0.843299 0.736341 -0.602583
-0.812318 0.820503 -0.4525
-0.634553 0.909671 -0.615
-0.782559 0.869147 0.8475
-0.82958 0.790347 0.701209
-0.79706 0.864047 0.5225
-0.668994 1.10974 0.685
0.790935 0.155759 -0.684508
0.601855 0.133085 -0.517766
0.79899 0.15533 -0.351625
0.850947 0.219574 -0.530183
0.806717 0.17811 0.979908
0.630808 0.124966 0.813617
0.817616 0.159584 0.647025
0.860927 0.233346 0.797408
0.805541 0.794118 -0.7775
0.634741 0.90996 -0.615
0.843612 0.735624 -0.602883
0.812368 0.820546 -0.4525
0.782571 0.869155 0.8475
0.669025 1.10979 0.685
[...]
POINT_DATA 3682
SCALARS point_scalars float 1
LOOKUP_TABLE default
-117.503
-40.9314
36.9394
-35.3148
-121.912
-40.0113
37.3325
-35.6327
-34.8667
-35.3095
-41.247
-50.6708
-35.0921
-35.9655
-41.2801
-50.7635
-67.2178
-114.989
-35.1651
-46.3422
-40.5508
-40.9319
-40.9319
-25.4037
-135.443
-36.8236
-40.305
-36.9508
-40.9319
-40.9319
56.1634
-135.244
-40.1974
-45.834
-46.4877
-40.9319
-40.9319
40.8457
-60.9584
-31.5971
-66.4938
-38.3391
-35.0325
-35.2545
-44.8133
-152.399
-35.2025
-50.1292
-41.1665
-40.3865
-40.3865
-44.8133
-40.3865
-40.3865
154.725
-35.9285
-35.8548
89.3073
-36.2623
-9.89077
-71.9783
-34.9437
-32.3582
-33.7161
-74.1603
-139.572
-35.3925
-49.3462
-39.7475
-38.7192
-38.7192
69.0232
-38.7192
-36.7266
152.006
-36.0857
-35.9898
89.8993
-37.8254
-19.823
-73.1155
-34.4572
-32.4445
-34.0275
-49.6874
-124.887
-35.2021
-47.5413
-39.7475
-39.7475
-40.5465
-49.6874
-143.711
-36.8619
-38.9933
-49.3646
-39.7475
-40.5465
62.3927
-135.056
-40.2009
-45.9239
-47.4322
-37.3624
-36.6719
41.5807
-65.4759
-32.0949
-66.5706
-38.1521
-35.3539
-35.5202
40.7325
-94.9245
-51.2637
-37.1211
-39.3816
-42.7786
13.9267
-63.9113
-28.1
-43.8901
46.3346
-51.6298
-37.2008
-43.1899
-63.9151
-43.9814
-38.144
-38.1689
-37.0843
-39.2232
-43.3431
-57.9988
13.0312
-60.1162
-37.1487
-38.1243
-39.1462
-58.0547
-60.7439
-60.8534
-51.396
-33.1991
201.6
-43.2251
-43.246
-37.0684
-102.945
-45.5651
-45.9348
-45.4503
-36.6828
-33.1222
13.4698
-101.924
-75.9726
-37.2558
-39.0102
-48.2234
41.1518
23.0805
-63.034
-36.5436
-30.9402
-38.9748
-101.856
21.4584
-75.7258
-39.0011
-37.3253
-49.2855
23.4842
44.5008
-62.919
-31.4365
-36.7381
-39.2012
-45.151
-35.2429
-36.9846
-36.6292
-41.1736
-38.1355
-36.9255
-42.4635
-40.6613
-40.2918
-55.3876
3.29602
-44.7483
-46.1808
-53.5216
-59.3599
-43.9464
-36.7662
-35.0202
-37.0749
-41.3061
-42.6412
-38.4005
-36.8603
-40.6019
3.07762
-40.2593
-55.4077
-44.8234
-59.3821
-46.1375
-53.5905
-102.721
176.274
-67.2169
204.083
-57.5522
-51.715
-49.7211
-36.0949
-46.3142
-36.4309
-44.7397
-45.041
-45.279
183.995
-63.4972
-38.3695
-32.5874
-32.8192
-47.1696
-37.2847
-103.981
174.806
-57.608
-51.9315
-50.143
-36.1938
-45.2733
-45.3938
-63.581
-38.3097
-47.3951
-37.3453
-39.8433
-36.7001
-45.309
-40.2385
-43.0048
-35.8117
-42.4663
-42.252
-39.9679
-44.4029
-49.8489
-97.6446
-11.8904
-20.0771
-86.3874
-44.6517
-39.9828
-36.7709
-45.2523
-40.242
-42.4842
-42.3783
-49.843
-97.653
-93.7667
-45.2438
-43.47
-117.105
-94.8712
-117.548
-43.4159
-44.9008
-69.8663
-70.4233
-43.1339
-42.6302
-48.0417
-17.8445
-17.7567
-47.9734
168.736
168.336
169.562
170.173
-37.8131
-40.0973
-47.1633
-45.7945
-37.8023
-45.7614
-47.2001
-39.7555
-35.4197
-35.6861
-38.6895
-38.5509
-19.9785
-81.0228
-81.0479
-19.9939
-42.3001
-48.9947
-44.3193
-39.4051
-42.3862
-39.48
-44.64
-49.7545
-44.9182
-44.9436
-45.8598
-45.5888
-45.3134
-33.0935
-33.2028
-45.328
-36.7168
-36.7948
-34.5674
-34.2006
-16.3719
-120.813
-101.134
-39.7795
-39.1884
-37.959
38.11
27.3735
-13.19
-36.072
-33.1862
-36.8894
-124.275
-16.0577
-110.633
-38.7402
-40.1358
-39.9166
27.5415
40.5297
-12.9607
-33.6091
-36.3287
-37.1641
-36.0959
-34.9151
-36.034
-35.96
-47.2452
-37.2171
-36.177
-42.5345
-38.2852
-41.7891
-49.9676
-13.7484
-46.1482
-48.4008
-50.9848
-56.971
-35.9985
-36.2238
-34.8607
-35.9794
-46.2711
-42.9689
-37.4965
-35.9153
-38.2681
-13.8158
-41.7592
-49.9881
-46.2419
-56.999
-48.426
-51.0445
27.6385
41.7606
-135.417
122.213
-95.2472
-95.8691
-74.8196
113.71
-59.8006
-43.797
-55.5336
-51.8179
-37.3771
-37.291
-40.6093
-36.0362
-39.1778
-39.3432
-43.3062
-37.3931
-48.7205
-41.6412
-44.5262
-43.3066
22.8554
23.3451
-22.1785
110.338
-74.8536
-51.2398
-66.639
-45.8113
-28.8852
-29.2804
-31.4104
-29.7245
-41.4322
-44.6913
-46.7381
-38.9406
39.0658
44.4006
-132.975
128.921
-60.6962
-45.9051
-55.8403
-52.146
-37.2831
-37.4537
-40.9715
-36.1395
-49.889
-42.3573
-45.2078
-44.3818
-74.6581
-51.291
-66.677
-45.7596
-41.5859
-44.7719
-46.9223
-38.9742
-35.2904
-37.3471
-39.0535
-36.5165
-37.5663
-39.0857
-39.1544
-38.9012
-36.9604
-37.0252
-38.8703
-36.1047
-37.7563
-42.2058
-41.525
-37.6143
-43.0737
-43.1181
-41.5067
-43.6864
-56.7066
-56.2267
-53.4422
-78.6767
10.5649
10.4875
0.518398
12.0394
-59.6481
-59.656
-72.4157
-51.5793
-36.2996
-37.3673
-39.1749
-36.7067
-37.505
-39.0287
-39.053
-38.8738
-37.7078
-42.1419
-41.5194
-37.7353
-56.7479
-56.2902
-53.4681
-78.7541
-74.5956
-59.5268
-62.0462
-51.1818
-74.9273
-59.4876
-62.1094
-51.191
-57.8412
-51.5199
-51.5926
-47.2652
-43.4643
-34.5323
-34.5004
-22.3598
194.714
201.119
204.139
195.491
-41.4348
-41.6819
-43.2832
-45.9277
-41.4253
-41.6898
-43.2923
-45.9217
-36.8654
-36.0269
-39.0542
-36.892
-102.39
-70.0927
-100.003
-102.389
-47.6364
-45.1322
-46.0185
-43.5176
-48.1388
-45.5742
-46.2899
-43.7533
-46.4436
-45.5403
-45.641
-44.7889
-33.9923
-36.8416
-36.8546
-40.0975
-33.5903
-35.4325
-33.2724
-34.0174
-144.808
76.4218
-77.6088
80.1539
-88.2684
-71.5724
-40.8522
-36.8095
-44.4059
-37.3426
-48.6074
-46.8461
-61.7051
121.453
-26.567
108.523
-104.61
-55.7421
-39.7756
-35.3862
-31.5799
-32.5933
-41.3572
-34.1371
-77.82
70.0496
-145.747
74.7575
-89.0968
-73.5545
-44.5413
-37.4459
-41.4689
-36.8101
-49.6834
-46.5809
-26.4029
109.26
-55.1404
123.475
-104.394
-55.6812
-31.781
-33.0754
-40.052
-35.6142
-41.6313
-34.2966
-45.5238
-42.938
-36.8132
-34.66
-38.405
-36.9911
-38.4583
-35.4724
-41.8923
-43.1434
-39.3922
-37.8515
-39.426
-41.1987
-40.3374
-44.743
-43.2858
-25.1721
-38.4923
-43.0347
-49.8622
-64.133
-7.77705
4.52182
-41.9518
-46.8204
-43.715
-41.132
-49.9191
-63.858
-69.9675
-51.5389
-45.0736
-43.2074
-38.5458
-35.583
-36.6619
-35.163
-38.1527
-36.8938
-41.8761
-43.1607
-40.5223
-44.6566
-39.1389
-37.9554
-39.4352
-41.0768
-43.2419
-25.1256
-7.83626
4.43689
-38.449
-43.0083
-49.8427
-64.0663
-41.9758
-46.8457
-69.9856
-51.5635
-43.8142
-41.0758
-49.9813
-63.8887
-98.3001
-110.256
172.341
180.211
-67.9381
-67.9221
191.064
192.26
-69.6186
-49.6415
-58.5822
-47.8332
-49.0622
-46.8115
-36.4599
-35.4233
-46.2148
-46.0874
-36.5699
-36.6578
-43.1901
-48.1851
-44.8167
-46.0376
-46.2696
-46.2337
182.944
183.437
-52.6992
-81.1757
-47.4985
-27.7635
-32.7371
-32.8004
-33.4698
-33.2492
-48.5243
-42.7567
-40.6235
-34.9356
-99.6957
-110.878
179.531
170.041
-69.996
-49.6623
-59.0875
-47.6453
-47.1913
-49.6788
-36.5237
-35.6399
-43.4198
-48.84
-44.9659
-46.3781
-81.2963
-52.6757
-27.6953
-47.4606
-42.8797
-48.9183
-34.9937
-40.6588
-38.9184
-39.9987
-36.0089
-37.619
-45.1997
-44.4675
-38.9147
-42.3118
-43.0631
-42.9252
-35.7179
-35.7914
-41.2796
-44.3405
-42.303
-40.3719
-39.7082
-39.5877
-44.5343
-44.5732
-49.1411
-47.8269
-57.8033
-93.7497
-13.1639
-13.0892
-18.2885
-18.1014
-86.1392
-86.1574
-44.8338
-44.8329
-38.9702
-39.9126
-36.0942
-37.7231
-44.3974
-45.0622
-38.8954
-42.2857
-44.3367
-41.233
-42.4301
-40.6207
-47.8035
-49.1811
-93.7665
-57.8008
-124.526
-66.9018
-72.0826
-148.355
-37.3988
-38.7951
-50.4608
-48.5944
-39.1936
-53.7889
-51.657
-39.4387
-20.6689
-112.239
-77.9912
-89.905
-133.674
-142.304
-72.4845
-67.2436
-19.5865
-90.0221
-78.2035
-114.891
-39.1687
-39.3914
-51.6674
-53.7577
-36.8932
-48.7539
-50.4711
-38.658
-84.7117
-75.6454
-58.1925
-58.4788
-85.5886
-60.4858
-58.2214
-75.9503
-37.9022
-38.8776
-47.4364
-46.9677
-37.7084
-47.14
-47.4273
-38.7695
-22.4022
-54.145
-44.7102
-24.0089
-19.7083
-1.47978
-24.0099
-35.661
-19.6282
-35.6085
-23.8909
-1.9743
-22.354
-23.7641
-44.6946
-54.0151
64.5609
96.8947
191.427
108.194
85.6627
109.406
198.256
129.447
87.5961
133.663
198.565
110.44
-7.1551
97.6558
192.731
107.566
-36.0839
-37.941
-40.1461
-37.8433
-38.3581
-40.547
-41.5938
-39.0967
-47.2499
-52.3718
-45.552
-43.3091
-46.3109
-40.5609
-43.9385
-51.779
-35.9089
-37.8004
-40.1372
-37.9852
-46.2773
-51.7846
-43.9334
-40.5457
-47.3078
-43.298
-45.5673
-52.4219
-38.391
-39.1229
-41.5521
-40.6024
-34.9457
-35.9561
-35.9741
-35.9719
-35.2013
-36.1348
-36.0394
-36.0223
-39.4699
-41.6378
-38.3925
-37.2593
-39.1303
-37.0723
-38.3252
-41.5035
-24.1241
-86.1105
-63.4234
10.4443
-59.5716
-71.7414
-98.3558
-69.6886
-59.5819
-69.7314
-98.3637
-71.7469
-24.3281
10.5087
-63.6043
-86.1996
-44.4754
-42.6782
-43.3793
-39.1327
-38.9329
-40.9119
-48.0978
-48.223
-38.6789
-45.2362
-48.2421
-40.2386
-43.6696
-38.2194
-43.4234
-44.3807
-44.3394
-38.9954
-43.6649
-43.003
-43.7313
-44.4872
-43.6093
-38.1911
-38.9863
-40.5639
-48.616
-45.3811
-40.0758
-48.317
-48.5804
-41.3498
-46.3255
-43.9605
-45.074
-43.6679
-47.0224
-42.8276
-44.9962
-43.9022
-43.5263
-43.399
-46.5013
-46.9951
-42.5492
-45.9454
-46.2721
-43.4134
-50.8725
-42.4971
-40.2332
-51.1844
-32.6298
-31.4355
-34.2224
-36.1797
-32.898
-36.271
-34.2569
-31.55
-50.9026
-51.1903
-40.2419
-42.481
-36.9078
-37.3522
-35.8397
-36.3912
-37.3453
-36.3862
-35.9183
-37.2934
-34.7852
-31.0227
-33.6614
-36.4558
-34.4508
-36.3001
-33.5246
-30.6182
-59.0817
-146.214
-138.279
-38.9712
-40.4787
-38.1036
37.1581
42.6106
10.2716
-35.7322
-34.1624
-36.0518
-159.309
-58.8697
-134.692
-37.3921
-40.5122
-39.4306
43.4549
38.7268
10.5779
-34.5254
-36.0272
-36.3516
-35.3048
-34.9391
-35.2784
-34.8342
-50.2482
-35.4072
-35.5334
-40.1406
-39.3886
-42.0914
-46.2911
-28.6603
-49.2087
-48.8762
-49.8369
-53.217
-35.3875
-35.1999
-34.9568
-35.3251
-53.6644
-41.4687
-36.8752
-34.6149
-39.3856
-28.8983
-42.0997
-46.2214
-49.3029
-53.2559
-48.9378
-49.8968
35.9981
43.179
-34.6253
56.7808
-94.7747
-95.2959
-84.0234
41.3372
-55.2681
-47.7593
-54.7115
-51.3253
-37.0185
-37.3082
-38.9735
-36.3913
-39.4479
-39.4233
-41.9155
-38.1031
-44.008
-42.9758
-44.5084
-42.7785
19.895
17.7722
2.74826
52.735
-70.8195
-57.0101
-67.5941
-55.3216
-28.3841
-28.6829
-29.4557
-28.4553
-42.8264
-44.4475
-45.1913
-40.9551
44.1221
46.8849
-26.9064
61.396
-55.6182
-48.3955
-54.9629
-51.93
-37.1587
-37.3959
-39.2218
-36.4508
-44.1261
-43.4868
-44.5046
-43.3292
-70.9093
-57.0984
-67.6307
-55.2975
-42.9452
-44.544
-45.3195
-41.0199
-36.9572
-36.8102
-38.7568
-36.6715
-37.9313
-38.5502
-38.3473
-38.479
-37.033
-37.0522
-37.8997
-36.5292
-38.4198
-40.6417
-40.7039
-37.7832
-43.2313
-43.2691
-42.3052
-43.4157
-57.3087
-57.4678
-55.4545
-65.8117
12.2574
12.4602
7.20611
15.8833
-60.0481
-60.0469
-65.3257
-54.9187
-36.8698
-37.0952
-39.0964
-36.8638
-37.8507
-38.4859
-38.2568
-38.4382
-38.3963
-40.5443
-40.6502
-37.671
-57.3594
-57.5326
-55.4925
-65.8674
-66.9344
-60.0573
-61.5418
-55.539
-67.0979
-60.1634
-61.6247
-55.6087
-54.3282
-51.4168
-51.3952
-49.1119
-38.2597
-33.5936
-33.5789
-28.1684
199.791
200.758
203.178
199.953
-42.2517
-42.4959
-43.4678
-44.4948
-42.2634
-42.519
-43.4735
-44.5086
-37.0396
-36.0545
-38.6339
-37.1772
-103.023
-93.7771
-102.703
-103.006
-46.0272
-45.3613
-45.8132
-44.6018
-46.5102
-45.7994
-46.1442
-44.8753
-45.8069
-45.5049
-45.396
-45.205
-35.2995
-36.6989
-36.7062
-38.1596
-33.3587
-34.3221
-33.4673
-33.2354
2.69358
20.4233
-109.453
47.4663
-106.499
-98.9642
-88.4803
-13.1612
-88.803
-66.3447
-84.2315
-72.7864
-37.1608
-37.5593
-38.4009
-37.1075
-38.9749
-39.2405
-41.7829
-38.0513
-41.6159
-52.2577
-48.5151
-48.8511
38.8027
40.7748
23.0454
76.0274
21.0557
24.431
1.52357
55.33
-42.7089
-75.6797
-68.8149
-58.475
-36.2863
-36.9464
-37.987
-35.7011
-32.1644
-29.7007
-30.8077
-31.8192
-37.7243
-40.0584
-40.3183
-35.8491
-108.794
-98.1296
-88.5898
8.94557
15.2993
32.1864
-93.1999
50.2375
-88.1436
-67.2141
-84.6215
-74.4556
-39.1291
-39.3886
-41.8429
-38.123
-37.5144
-37.5268
-38.8662
-36.908
-43.5791
-52.7873
-49.8258
-48.7011
21.7087
24.536
1.64925
55.9281
41.5342
43.8081
24.8976
77.6294
-42.758
-75.336
-68.8228
-58.3337
-32.6205
-30.2048
-31.1244
-32.3226
-36.5165
-37.1116
-38.2583
-35.9259
-38.0001
-40.2428
-40.5773
-36.0389
-38.3069
-49.0228
-46.5051
-44.0179
-35.0577
-35.5212
-35.8336
-34.6728
-36.6015
-37.2716
-37.4199
-36.8353
-36.6239
-36.8224
-37.4559
-35.8935
-41.8439
-40.9402
-41.5453
-41.443
-38.2083
-38.5396
-39.2152
-37.412
-36.5472
-37.2486
-38.1662
-37.1834
-42.4749
-42.9797
-41.6683
-43.8216
-38.9126
-44.9233
-43.0205
-32.4015
-41.014
-39.7672
-39.5933
-41.5818
-54.1032
-55.8007
-52.5412
-72.5399
-3.0236
7.69659
-3.02414
6.46693
-45.1659
-44.9131
-43.6471
-46.6225
-47.6751
-43.5674
-45.8578
-42.966
-52.1619
-54.8765
-51.4251
-57.9136
-59.5059
-59.4737
-64.0073
-55.3407
-38.422
-47.7136
-45.5645
-43.4004
-36.8381
-36.8825
-37.5062
-36.044
-35.0732
-35.9042
-35.4242
-35.1255
-36.6498
-37.2256
-37.3799
-36.7401
-41.3005
-41.301
-41.2085
-41.4913
-42.5908
-43.0549
-41.7487
-43.8828
-37.6073
-37.5388
-39.5011
-37.511
-36.4816
-37.2621
-38.1442
-37.7927
-38.8774
-44.5778
-42.9822
-32.3426
-2.91858
7.51707
-3.18233
6.36524
-40.9803
-39.7128
-39.5656
-41.5542
-54.0937
-55.8525
-52.5392
-72.5605
-45.2456
-44.9914
-43.7093
-46.6367
-59.5403
-59.4882
-64.0305
-55.3668
-47.7203
-43.5431
-45.8185
-42.9419
-52.228
-54.9331
-51.4907
-57.955
-133.474
-85.6114
-100.32
-106.914
160.106
185.528
174.694
176.371
-70.5022
-62.0431
-67.359
-67.3698
183.909
202.252
198.42
199.085
-56.5067
-58.5335
-62.9325
-52.7959
-51.9652
-51.7631
-54.8847
-49.4818
-44.0056
-49.9745
-48.6372
-47.9727
-36.2155
-35.4915
-36.2848
-35.8499
-44.5957
-46.7437
-46.2854
-46.2274
-36.7492
-36.1211
-36.5096
-36.528
-44.607
-44.9443
-44.2838
-45.4932
-44.5245
-45.3825
-44.8496
-45.4289
-39.0412
-47.8387
-46.7011
-46.6976
151.644
196.686
183.994
184.377
-64.6462
-62.7266
-57.4934
-71.1988
-41.0856
-36.1566
-42.1605
-33.6433
-31.7915
-33.2259
-32.6419
-32.6744
-31.7577
-32.987
-33.213
-33.1281
-47.5749
-46.4017
-48.1216
-45.0582
-37.8256
-37.0576
-38.7851
-35.9749
-135.186
-86.2977
-101.65
-107.966
162.053
186.051
176.34
171.579
-56.7404
-58.4848
-63.1944
-53.2148
-52.1601
-51.3616
-55.1975
-49.5406
-44.4014
-50.5898
-48.3822
-49.1733
-36.2712
-35.5314
-36.3577
-36.0294
-45.3064
-45.4598
-44.882
-46.3059
-44.9999
-45.6138
-45.1506
-45.7984
-64.7282
-62.7975
-70.9743
-57.5124
-41.0255
-36.1083
-33.5818
-42.0986
-47.7748
-46.5915
-45.2119
-48.2873
-37.8839
-37.0788
-36.0135
-38.8287
-39.4026
-40.5936
-39.4877
-39.9296
-36.6444
-36.65
-36.3216
-37.1673
-41.3726
-48.4998
-45.2893
-44.8591
-39.5558
-40.9242
-39.5588
-41.1894
-40.1446
-45.8711
-43.0957
-42.9791
-35.854
-35.8897
-35.7657
-35.7989
-41.9726
-42.9152
-41.9125
-43.2896
-40.0055
-42.7687
-42.3088
-41.964
-40.6564
-39.3372
-39.9296
-39.8794
-44.0456
-44.8043
-44.4132
-44.423
-51.4369
-47.6914
-49.9771
-48.7846
-89.8358
-99.3848
-79.3131
-95.7797
-6.2783
-17.0972
-12.1341
-12.1422
-1.50581
-37.548
-19.4577
-19.4571
-79.3123
-94.8389
-86.4095
-86.4156
-47.5917
-42.2234
-44.7447
-44.7448
-39.7218
-40.5938
-39.5785
-39.9378
-36.7536
-36.7788
-36.3611
-37.3068
-41.2709
-48.4882
-44.8442
-45.165
-39.5467
-40.914
-39.5483
-41.1758
-41.9693
-42.9264
-43.2933
-41.9008
-40.2261
-42.9408
-42.4498
-42.1972
-51.4763
-47.6257
-48.7581
-50.0278
-89.7797
-99.3963
-95.7997
-79.3011
-115.488
-91.4523
-96.349
-79.4625
-45.414
-41.0149
-47.9826
-45.1885
-43.2351
-39.8664
-47.8188
-43.9144
-135.903
-121.701
-113.237
-98.659
-119.74
-92.4479
-97.5336
-80.0626
-135.593
-121.754
-113.74
-99.0546
-43.1917
-39.8456
-47.798
-43.8863
-45.012
-40.7817
-47.7572
-44.9721
-73.2464
-70.684
-68.896
-63.5181
-73.614
-71.9352
-68.8184
-64.1993
-43.0735
-39.9445
-46.3922
-43.2042
-42.522
-39.872
-45.9855
-42.7186
-39.376
-50.8747
-46.5869
-51.0212
-21.0728
-12.7941
-22.9072
-14.8531
-21.0212
-12.718
-22.8337
-14.718
-39.2841
-50.8193
-46.5164
-50.964
127.839
156.841
171.312
181.405
146.07
147.295
176.158
175.476
148.586
148.182
176.841
178.3
163.744
133.681
183.115
169.334
-37.3933
-37.3868
-38.3175
-38.2897
-39.6594
-40.08
-40.0079
-40.6356
-46.0524
-48.4509
-45.745
-48.184
-44.634
-47.6063
-43.7845
-46.7627
-37.3965
-37.3463
-38.3792
-38.258
-44.6023
-47.5866
-43.7709
-46.7421
-46.1007
-48.4958
-45.7578
-48.2045
-39.4002
-40.0463
-39.7868
-40.5446
-35.0294
-35.3267
-35.7657
-35.6409
-35.5734
-35.6208
-35.7474
-35.8892
-39.1883
-38.2774
-39.1468
-38.2246
-38.1076
-38.9534
-38.0829
-39.043
-32.2022
-5.42497
-36.4736
-18.3946
-73.1944
-75.6533
-88.3234
-85.1417
-75.6687
-73.108
-85.1687
-88.3482
-5.51216
-32.2304
-18.4848
-36.6257
-42.2256
-42.633
-42.567
-42.292
-44.2572
-48.9293
-49.3554
-50.3924
-41.7801
-42.531
-45.6113
-47.4527
-40.4915
-39.2348
-40.5958
-39.205
-42.2386
-42.4569
-42.6764
-42.3842
-40.527
-39.3062
-40.7551
-39.3506
-42.1
-42.8557
-45.9528
-47.8314
-44.9441
-49.7476
-50.0677
-51.1647
-44.522
-44.7904
-45.2048
-44.6807
-44.5818
-44.6983
-45.3071
-44.727
-45.2188
-46.0804
-45.9948
-46.4143
-45.0311
-45.8477
-45.7163
-46.1803
-45.666
-48.1221
-42.8209
-45.0478
-32.1771
-33.418
-32.9165
-33.9025
-32.338
-33.5496
-33.0051
-33.9877
-45.7168
-48.1614
-42.8454
-45.0574
-36.7395
-36.9935
-36.5797
-36.6939
-37.043
-36.8296
-36.75
-36.6493
-33.7306
-35.2261
-33.4214
-35.1322
-34.8977
-33.3137
-34.8419
-33.1193
-130.929
20.7776
-100.923
-35.9484
-113.624
-89.1819
-36.9527
-36.9219
-41.0633
-37.8144
-37.7518
-40.3623
14.9997
72.9682
13.6079
53.2826
-16.5642
-22.6091
-37.4084
-35.0125
-32.5118
-33.7811
-38.0131
-34.3204
-102.61
-62.2826
-118.226
45.563
-125.91
-91.1231
-40.7825
-38.0075
-37.4361
-37.8844
-39.6456
-43.1074
14.2795
56.7709
16.1595
73.9918
-15.9799
-22.5423
-32.8556
-34.1612
-37.7199
-35.3012
-38.3008
-34.6068
-36.4184
-36.4865
-35.3388
-34.7207
-36.5669
-35.9357
-36.1344
-35.2823
-46.2577
-47.6002
-37.5594
-38.2956
-37.4162
-40.2978
-40.8347
-47.0027
-39.5382
-31.1308
-39.9357
-43.9016
-48.4495
-51.7451
-15.5627
-12.4993
-44.8821
-47.7729
-48.3523
-45.5884
-49.1948
-54.6794
-57.3259
-53.6829
-36.1393
-36.9676
-36.554
-35.4871
-35.2487
-35.1177
-36.2066
-35.7788
-46.6798
-46.7957
-41.15
-46.3646
-37.6233
-38.6009
-37.3737
-41.391
-39.5163
-31.1354
-15.5713
-12.6691
-39.9128
-43.8766
-48.4458
-51.8689
-44.9707
-47.8403
-57.3475
-53.7228
-48.4068
-45.6581
-49.2376
-54.7135
-77.1975
48.3832
1.22207
68.0023
-144.244
-130.014
110.718
129.283
-85.0405
-4.14516
-84.9156
-9.16684
-74.9767
-75.1497
80.4355
98.7224
-63.4817
-59.3967
-46.7647
-45.9436
-60.7857
-51.2526
-54.491
-49.1206
-38.7244
-36.6036
-38.4567
-36.4073
-40.7349
-40.3766
-36.0886
-36.2764
-41.818
-38.1864
-41.9025
-38.039
-43.3084
-43.2614
-37.3073
-37.333
-48.5122
-45.7529
-41.9582
-42.5183
-43.9109
-45.4086
-43.1313
-44.0578
-3.47624
48.1291
-3.28176
48.1969
-22.2061
-22.0659
112.588
113.337
-85.2373
-60.7023
-53.3683
-43.2807
-59.6037
-76.4939
-49.7078
-40.8537
-29.8556
-29.3436
-30.0902
-29.791
-31.4124
-31.4705
-30.1784
-29.9376
-43
-38.151
-44.5371
-44.5631
-46.9181
-45.9634
-40.5995
-37.4808
-53.3203
52.2183
9.83959
69.6919
-140.403
-128.442
136.158
119.938
-63.2331
-60.9944
-47.901
-46.3376
-61.1896
-51.4845
-55.9897
-49.3045
-38.9584
-36.5896
-38.733
-36.5611
-40.6981
-41.1373
-36.1625
-36.439
-49.1917
-47.4767
-42.3306
-42.8747
-44.3638
-46.6093
-44.2371
-44.9453
-85.6123
-60.5274
-53.5781
-43.2231
-76.3298
-59.5708
-40.8063
-49.6223
-43.204
-38.2655
-44.6399
-44.5908
-46.1181
-47.117
-37.5544
-40.6065
-36.1772
-35.3996
-38.5046
-36.9101
-38.7188
-39.0472
-36.4775
-36.8475
-37.9088
-37.5853
-39.6266
-39.8401
-38.9783
-39.4378
-38.3545
-39.5701
-37.7481
-36.3916
-37.8128
-36.4709
-38.8409
-38.8334
-36.0513
-36.0795
-39.2029
-36.5828
-42.9978
-40.0931
-40.9765
-42.3198
-37.9896
-37.4356
-42.5765
-43.4454
-42.6859
-43.4436
-41.6287
-41.6082
-43.7397
-43.7563
-54.0379
-67.3049
-54.1175
-61.5893
-53.3811
-52.5876
-88.1552
-74.2589
3.96475
13.3306
3.96923
13.4245
-0.122755
-0.608114
11.5284
11.6126
-65.3184
-55.391
-65.3288
-55.3975
-71.8711
-71.8746
-51.0567
-51.0613
-36.7849
-35.9614
-37.5804
-37.0984
-38.678
-39.2305
-36.5903
-36.9433
-37.7878
-37.5218
-39.321
-39.7905
-39.3728
-38.858
-38.319
-39.5455
-39.1706
-36.58
-42.976
-40.0667
-42.3157
-40.9975
-38.0589
-37.4305
-54.0601
-67.3451
-54.1736
-61.6348
-52.5997
-53.4087
-74.3156
-88.2048
-73.3481
-76.4605
-65.0114
-54.4982
-56.3851
-68.7601
-50.717
-51.3575
-73.706
-76.72
-65.2124
-54.6131
-68.8477
-56.4208
-51.3823
-50.7422
-57.9125
-57.9427
-54.5649
-49.1918
-54.5933
-49.2895
-47.3147
-47.2866
-43.6437
-43.6347
-39.3838
-29.2237
-29.1919
-39.3506
-22.8424
-22.8175
193.09
197.096
198.475
198.417
202.447
202.658
197.351
193.958