# vtk DataFile Version 2.0
tet_velo
ASCII
DATASET UNSTRUCTURED_GRID
POINTS 29498 float
-0.851212 0.355 -2.155
-0.825 0.435 2.06865
-0.845 0.78906 -2.115
-0.844863 0.905 2.115
0.851198 0.355 -2.155
0.825 0.435 2.06865
0.845 0.78906 -2.115
0.844843 0.905 2.115
-0.831402 0.392739 -0.747117
-0.846349 0.395722 0.660767
-0.846125 0.828878 -0.705
-0.845902 0.867347 0.705
0.831382 0.39275 -0.747117
0.846366 0.3957 0.660767
0.846126 0.828885 -0.705
0.845884 0.867342 0.705
-1.69463 0.106903 -3.30336
-1.69183 0.136189 -2.1762
-1.68002 0.164707 -0.768374
-1.68455 0.172117 0.639029
-1.67769 0.200028 2.04682
-1.67329 0.228996 3.1738
-1.67252 0.257461 4.3011
-1.69457 0.326127 -3.2826
-1.69282 0.35576 -2.15521
-1.67883 0.390665 -0.74697
-1.68609 0.401912 0.66108
-1.67471 0.433778 2.06928
-1.67048 0.462831 3.19629
-1.67059 0.490584 4.32352
-1.69227 0.763714 -3.24167
-1.69134 0.792248 -2.11437
-1.68739 0.832711 -0.704687
-1.68878 0.867179 0.705147
-1.68555 0.902591 2.11479
-1.67608 0.930536 3.24171
-1.67205 0.956724 4.3686
-1.68859 1.43172 -3.17869
-1.68807 1.46189 -2.05107
-1.68793 1.50501 -0.6407
-1.68793 1.55051 0.770126
-1.68578 1.59237 2.18047
-1.68154 1.62175 3.30804
-1.67705 1.64854 4.43517
-0.850504 0.107002 -3.30322
-0.850638 0.136874 -2.176
-0.837459 0.166332 -0.7684
-0.843812 0.167963 0.638761
-0.837863 0.199301 2.04635
-0.83298 0.228883 3.17348
-0.831877 0.257413 4.30092
-0.849883 0.325494 -3.28255
-0.827991 0.463448 3.19603
-0.829215 0.490947 4.32338
-0.847286 0.761855 -3.24193
-0.832591 0.931989 3.24175
-0.829531 0.957689 4.36861
-0.843902 1.42986 -3.17894
-0.843458 1.45984 -2.05135
-0.843765 1.50366 -0.640872
-0.844162 1.55082 0.770147
-0.842412 1.59373 2.18062
-0.838432 1.62309 3.30819
-0.83419 1.6496 4.43527
0.842429 0.107004 -3.30322
0.841223 0.136877 -2.176
0.835763 0.166337 -0.768401
0.841032 0.16795 0.638761
0.828216 0.199296 2.04635
0.838093 0.228879 3.17348
0.845115 0.25741 4.30092
0.845092 0.325495 -3.28255
0.841937 0.463445 3.19603
0.848077 0.490943 4.32338
0.845048 0.761856 -3.24193
0.848977 0.931987 3.24175
0.851731 0.957685 4.36861
0.845942 1.42987 -3.17894
0.846223 1.45985 -2.05136
0.845483 1.50366 -0.640872
0.844735 1.55082 0.770147
0.845614 1.59373 2.18062
0.848118 1.62309 3.30819
0.851086 1.64959 4.43527
1.68775 0.106907 -3.30336
1.68636 0.136195 -2.1762
1.67845 0.164712 -0.768374
1.68196 0.1721 0.639029
1.67271 0.200015 2.04682
1.67738 0.228987 3.1738
1.68424 0.257452 4.3011
1.69087 0.326131 -3.2826
1.69248 0.355765 -2.15521
1.67875 0.390674 -0.74697
1.6853 0.401894 0.66108
1.67488 0.433766 2.06928
1.68027 0.462823 3.19629
1.68691 0.490576 4.32352
1.6914 0.763717 -3.24167
1.69259 0.792252 -2.11437
1.68787 0.83272 -0.704687
1.68849 0.867171 0.705147
1.68722 0.902583 2.11479
1.68859 0.93053 3.24171
1.69169 0.956717 4.3686
1.69066 1.43172 -3.17868
1.69076 1.4619 -2.05107
1.68973 1.50502 -0.6407
1.68892 1.55051 0.770126
1.68947 1.59237 2.18047
1.69117 1.62174 3.30804
1.69346 1.64853 4.43517
-0.820083 0.57203 -2.10698
-7.00355e-06 0.376473 -2.13353
-0.880029 0.335148 -1.45106
-0.855565 0.67 2.11246
0 0.434973 2.06868
-0.842955 0.40808 1.36471
0 0.790405 -2.11634
-0.846224 0.80963 -1.41
-1.00136e-05 0.907416 2.11742
-0.845717 0.886508 1.41
0.820216 0.57203 -2.10712
0.880017 0.335148 -1.45106
0.861042 0.67 2.11795
0.842946 0.408087 1.36471
0.846211 0.809621 -1.41
0.845705 0.886513 1.41
-0.830191 0.402915 -0.043175
-0.850489 0.610808 -0.726058
-1.0432e-05 0.250134 -0.747117
-0.850485 0.631534 0.682883
8.44849e-06 0.275236 0.660767
-0.845996 0.848094 0
5.30019e-07 1.1497 -0.705
-8.91016e-06 1.33505 0.705
0.830168 0.402931 -0.043175
0.850475 0.610818 -0.726058
0.850471 0.631521 0.682883
0.845985 0.848094 0
-0.894248 0.591419 -1.43053
-0.850468 0.621171 -0.0215875
-0.866412 0.650767 1.38735
-8.71775e-06 0.241934 -1.45106
-9.9173e-07 0.268205 -0.043175
4.22425e-06 0.346982 1.36471
-3.50177e-06 0.57203 -2.13335
-5.00679e-06 0.67 2.1378
2.6501e-07 0.90214 -1.41
-4.19007e-06 1.34185 0
-9.46187e-06 1.01201 1.41
0.894248 0.591424 -1.43053
0.850461 0.62117 -0.0215875
0.866373 0.650761 1.38735
-1.27201 0.35538 -2.15511
-0.850925 0.245937 -2.1655
-0.850547 0.340247 -2.71878
-1.24985 0.434389 2.06897
-0.831431 0.31715 2.0575
-0.826496 0.449224 2.63234
-1.26817 0.790654 -2.11469
-0.846143 0.775457 -2.67846
-0.844229 1.12445 -2.08318
-1.26521 0.903796 2.11489
-0.838727 0.918495 2.67838
-0.843638 1.24937 2.14781
0.846211 0.245939 -2.1655
0.848145 0.340248 -2.71878
1.27184 0.355382 -2.15511
0.826608 0.317148 2.0575
0.833468 0.449222 2.63234
1.24994 0.434383 2.06897
0.845024 0.775458 -2.67847
0.845611 1.12445 -2.08318
1.2688 0.790656 -2.11469
0.84691 0.918494 2.67838
0.845229 1.24936 2.14781
1.26603 0.903791 2.11489
-1.25512 0.391702 -0.747043
-0.834431 0.279536 -0.757759
-1.26622 0.398817 0.660924
-0.845081 0.281842 0.649764
-1.26676 0.830794 -0.704843
-0.844945 1.16627 -0.672936
-1.26734 0.867263 0.705074
-0.845032 1.20908 0.737573
0.833572 0.279544 -0.757759
1.25507 0.391712 -0.747043
0.843699 0.281825 0.649764
1.26583 0.398797 0.660924
0.845805 1.16627 -0.672936
1.267 0.830803 -0.704843
0.845309 1.20908 0.737573
1.26719 0.867257 0.705074
-1.69323 0.121546 -2.73978
-1.6946 0.216515 -3.29298
-1.27257 0.106952 -3.30329
-1.68592 0.150448 -1.47229
-1.69232 0.245974 -2.16571
-1.27123 0.136532 -2.1761
-1.68228 0.168412 -0.0646724
-1.67943 0.277686 -0.757672
-1.25874 0.165519 -0.768387
-1.68112 0.186072 1.34293
-1.68532 0.287015 0.650055
-1.26418 0.17004 0.638895
-1.67549 0.214512 2.61031
-1.6762 0.316903 2.05805
-1.25778 0.199664 2.04659
-1.6729 0.243229 3.73745
-1.67188 0.345913 3.18504
-1.25313 0.228939 3.17364
-1.67155 0.374023 4.31231
-1.2522 0.257437 4.30101
-1.6937 0.340943 -2.7189
-1.69342 0.544921 -3.26213
-1.27223 0.32581 -3.28258
-1.68582 0.373212 -1.45109
-1.69208 0.574004 -2.13479
-1.68246 0.396289 -0.0429447
-1.68311 0.611688 -0.725828
-1.6804 0.417845 1.36518
-1.68743 0.634546 0.683114
-1.6726 0.448304 2.63278
-1.68013 0.668184 2.09204
-1.67053 0.476708 3.75991
-1.67328 0.696684 3.219
-1.24924 0.463139 3.19616
-1.67132 0.723654 4.34606
-1.2499 0.490766 4.32345
-1.6918 0.777981 -2.67802
-1.69043 1.09772 -3.21018
-1.26978 0.762784 -3.2418
-1.68937 0.812479 -1.40953
-1.6897 1.12707 -2.08272
-1.68809 0.849945 0.000230252
-1.68766 1.16886 -0.672693
-1.68717 0.884885 1.40997
-1.68835 1.20885 0.737637
-1.68082 0.916564 2.67825
-1.68567 1.24748 2.14763
-1.67406 0.94363 3.80516
-1.67881 1.27614 3.27488
-1.25434 0.931263 3.24173
-1.67455 1.30263 4.40189
-1.25079 0.957206 4.36861
-1.68833 1.44681 -2.61488
-1.26625 1.43079 -3.17881
-1.688 1.48345 -1.34588
-1.26576 1.46087 -2.05121
-1.68793 1.52776 0.0647131
-1.26585 1.50434 -0.640786
-1.68685 1.57144 1.4753
-1.26604 1.55067 0.770136
-1.68366 1.60706 2.74426
-1.2641 1.59305 2.18055
-1.6793 1.63514 3.8716
-1.25999 1.62242 3.30812
-1.25562 1.64907 4.43522
-0.850571 0.121938 -2.73961
-0.850193 0.216248 -3.29289
-0.00403733 0.107003 -3.30322
-0.844049 0.151603 -1.4722
-0.00470749 0.136876 -2.176
-0.840635 0.167148 -0.0648196
-0.00084779 0.166335 -0.7684
-0.840837 0.183632 1.34256
-0.00139012 0.167956 0.638761
-0.835421 0.214092 2.60992
-0.00482343 0.199298 2.04635
-0.832429 0.243148 3.7372
-0.830486 0.346165 3.18476
0.00255629 0.228881 3.17348
-0.830546 0.37418 4.31215
0.00661889 0.257412 4.30092
-0.848584 0.543674 -3.26224
-0.00239563 0.325494 -3.28255
-0.828603 0.477197 3.75971
-0.830291 0.697718 3.21889
0.00697265 0.463446 3.19603
-0.829373 0.724318 4.346
0.00943088 0.490945 4.32338
-0.845594 1.09586 -3.21044
-0.00111922 0.761855 -3.24193
-0.831061 0.944839 3.80518
-0.835512 1.27754 3.27497
0.00819316 0.931988 3.24175
-0.831861 1.30364 4.40194
0.0111 0.957687 4.36861
-0.84368 1.44485 -2.61515
0.00102018 1.42986 -3.17894
-0.843612 1.48175 -1.34611
0.00138242 1.45985 -2.05135
-0.843963 1.52724 0.0646374
0.000859006 1.50366 -0.640872
-0.843287 1.57228 1.47538
0.000286557 1.55082 0.770147
-0.840422 1.60841 2.74441
0.0016009 1.59373 2.18062
-0.836311 1.63634 3.87173
0.00484252 1.62309 3.30819
0.00844822 1.64959 4.43527
0.841826 0.12194 -2.73961
0.84376 0.216249 -3.29289
1.26509 0.106955 -3.30329
0.838493 0.151607 -1.4722
1.26379 0.136536 -2.1761
0.838398 0.167144 -0.0648196
1.25711 0.165525 -0.768387
0.834624 0.183623 1.34256
1.26149 0.170025 0.638895
0.833154 0.214087 2.60992
1.25046 0.199655 2.04659
0.841604 0.243144 3.7372
0.840015 0.346162 3.18475
1.25774 0.228933 3.17364
0.846596 0.374176 4.31215
1.26468 0.257431 4.30101
0.84507 0.543675 -3.26224
1.26798 0.325813 -3.28257
0.845007 0.477194 3.75971
0.845457 0.697716 3.21889
1.26111 0.463134 3.19616
0.849904 0.724314 4.346
1.26749 0.49076 4.32345
0.845495 1.09586 -3.21044
1.26823 0.762787 -3.2418
0.850354 0.944836 3.80518
0.848547 1.27754 3.27497
1.26879 0.931259 3.24173
0.851409 1.30364 4.40194
1.27171 0.957201 4.36861
0.846083 1.44486 -2.61515
1.2683 1.43079 -3.17881
0.845853 1.48175 -1.34611
1.26849 1.46087 -2.05121
0.845109 1.52724 0.0646373
1.26761 1.50434 -0.640786
0.845174 1.57227 1.47538
1.26682 1.55066 0.770136
0.846866 1.60841 2.7444
1.26754 1.59305 2.18055
0.849602 1.63634 3.87173
1.26965 1.62242 3.30812
1.27227 1.64906 4.43522
1.68705 0.121551 -2.73978
1.68931 0.216519 -3.29298
1.68241 0.150454 -1.47229
1.68942 0.24598 -2.16571
1.68021 0.168406 -0.0646724
1.6786 0.277693 -0.757672
1.67733 0.186058 1.34293
1.68363 0.286997 0.650055
1.67505 0.214501 2.61031
1.67379 0.31689 2.05805
1.68081 0.24322 3.73745
1.67883 0.345905 3.18504
1.68558 0.374014 4.31231
1.69168 0.340948 -2.7189
1.69114 0.544924 -3.26213
1.68562 0.37322 -1.45109
1.69254 0.574009 -2.13479
1.68203 0.396284 -0.0429448
1.68331 0.611697 -0.725828
1.68009 0.41783 1.36518
1.6869 0.634532 0.683114
1.67758 0.448294 2.63278
1.68105 0.668174 2.09204
1.68359 0.4767 3.75991
1.68443 0.696676 3.219
1.6893 0.723647 4.34606
1.692 0.777985 -2.67802
1.69103 1.09772 -3.21018
1.69023 0.812486 -1.40953
1.69167 1.12707 -2.08272
1.68818 0.849945 0.000230163
1.6888 1.16887 -0.672693
1.68786 0.884877 1.40997
1.6887 1.20884 0.737636
1.68791 0.916556 2.67825
[...]
POINT_DATA 29498
VECTORS point_vectors float
-2.88535 -2.92651 5.1158
0.338005 0.384873 2.20693
-4.71683 3.14161 9.93179
0.256204 0.0185931 1.9471
2.89216 -2.93372 5.12868
-0.333277 0.388948 2.21021
4.71592 3.14039 9.9279
-0.255691 0.0180782 1.94893
0.00109097 -0.00280348 0.0338395
-0.0297984 -0.0479175 0.648953
-0.00878666 -0.0135985 0.0855961
0.00383632 0.017177 0.0706293
-0.00108164 -0.00276821 0.0336981
0.030626 -0.047555 0.650923
0.00894461 -0.0137404 0.0859634
-0.003874 0.0172037 0.0704224
-0.527406 -0.149527 19.883
-1.16192 -0.449694 20.4274
-0.490297 -0.333411 21.2679
0.0844137 -0.135952 21.3859
0.546047 0.0419972 21.2809
0.782555 0.157234 20.9531
0.767608 0.0468168 20.6775
-0.57768 -0.079913 19.8254
-1.36744 -0.283342 20.4217
-0.601658 -0.378319 21.2674
0.0429792 -0.214702 21.4473
0.591524 -0.0718115 21.3413
0.854148 0.063547 20.6912
0.81232 -0.0686482 20.8268
-0.619601 0.0397149 19.7987
-1.44186 0.0872882 20.3929
-0.883947 -0.316459 21.2504
-0.103468 -0.305833 21.4763
0.515628 -0.268979 21.2961
0.760133 -0.278363 20.8302
0.666891 -0.28558 20.9209
-0.510162 0.259871 19.9067
-0.997206 0.460632 20.3559
-0.925159 0.16847 21.1306
-0.225294 -0.121755 21.4453
0.281317 -0.331723 21.2454
0.469934 -0.432982 20.8606
0.344366 -0.296949 20.9082
-0.564434 -0.363451 19.2681
-3.51379 -4.09761 19.8462
0.675079 -0.399298 13.7252
0.896464 -0.0999605 14.5781
1.21994 0.817113 16.2276
1.49343 1.4938 17.3112
1.1343 0.769687 16.5058
-0.647036 -0.235722 19.1087
1.60009 1.14344 12.954
1.55076 0.736535 14.951
-0.695662 0.137645 19.0159
1.75914 -0.174112 11.0974
1.3864 -0.264744 15.709
-0.518331 0.560084 19.4243
-1.51339 1.80526 20.0003
-2.62644 1.94011 21.2829
-0.468254 -0.0219859 21.8571
0.211169 -0.741914 21.0589
0.455641 -0.900407 20.5099
0.270883 -0.749545 19.7948
0.563708 -0.364671 19.2619
3.52149 -4.19985 19.8212
-0.674404 -0.401293 13.6378
-0.896782 -0.102809 14.4618
-1.20135 0.835991 15.9553
-1.49239 1.47734 17.3749
-1.12307 0.744922 16.6708
0.648461 -0.235672 19.1099
-1.64686 1.07448 13.4279
-1.53503 0.704302 15.1768
0.694005 0.13699 19.0102
-1.77859 -0.180369 11.6771
-1.3892 -0.298475 15.9371
0.518828 0.559335 19.4253
1.51275 1.79967 20.0009
2.6237 1.93061 21.2817
0.468017 -0.0209217 21.8604
-0.212907 -0.740366 21.0699
-0.44264 -0.897463 20.5929
-0.267351 -0.735297 19.831
0.535538 -0.156087 19.8772
1.18421 -0.449385 20.4327
0.497599 -0.335912 21.2634
-0.0826948 -0.136388 21.39
-0.547119 0.0454 21.2886
-0.772687 0.156855 20.9497
-0.759339 0.0507795 20.6929
0.58213 -0.0868348 19.8192
1.38177 -0.28459 20.4334
0.608202 -0.375787 21.2665
-0.0418831 -0.213626 21.4559
-0.590748 -0.0694633 21.3407
-0.841067 0.0481457 20.7192
-0.795525 -0.061137 20.8078
0.615666 0.044909 19.8023
1.44177 0.0891364 20.3977
0.884022 -0.31541 21.2527
0.100225 -0.305917 21.4837
-0.516853 -0.265945 21.3011
-0.741796 -0.267458 20.8323
-0.66423 -0.286384 20.8957
0.512981 0.259499 19.9157
0.995298 0.456009 20.3531
0.926616 0.163848 21.1306
0.226771 -0.121717 21.4459
-0.27555 -0.329814 21.253
-0.464416 -0.434682 20.8428
-0.337168 -0.271389 20.8577
-2.62045 -0.249415 1.16916
0 0 0
0.00768813 -0.0122947 0.23532
-0.00580805 -0.141208 0.211862
0.00071444 -0.0187475 -0.0216719
0.0568622 0.0295292 1.079
-7.61623e-05 0.684653 1.03575
-0.222871 -0.481331 1.2476
-0.000423984 0.293455 -0.314946
0.0406164 0.0929578 0.389091
2.65823 -0.258398 1.18982
-0.00773892 -0.0122721 0.234496
-0.0745804 -0.00560314 0.688201
-0.0562093 0.0296055 1.07819
0.222796 -0.481329 1.24671
-0.0407758 0.0930881 0.389839
-1.70192e-05 0.0061125 0.12017
4.0426e-05 -0.000401649 0.00506417
-1.08111e-06 4.26039e-05 0.00448264
0 0 0
-5.69349e-05 -0.00445842 0.109042
0.00695951 0.0325958 0.0905856
-4.63425e-07 0.000574816 0.000966541
3.38574e-06 -6.98616e-05 0.00154338
8.18295e-06 0.00602747 0.119477
-3.9035e-05 -0.00039117 0.00491981
0 0 0
-0.00696496 0.0326094 0.0909038
-0.00145078 -0.00632621 0.0156173
0.000255791 0.00362967 0.0239219
0.000859983 0.00206066 0.0266232
-6.56127e-08 -6.04873e-09 -2.01261e-06
-1.38411e-07 -3.29429e-07 -2.09731e-05
-6.77532e-08 6.52425e-05 0.00079448
0 0 0
-2.3606e-20 2.57689e-18 -1.70811e-18
-4.0861e-07 0.000184088 0.00206103
3.87171e-12 3.91975e-08 7.1544e-07
0 0 0
0.0014903 -0.00647458 0.015987
-0.000258922 0.00366814 0.024205
-0.00079635 0.00197482 0.0256459
-2.83477 -0.893398 20.2674
-5.36184 -5.67122 19.4395
-1.78748 -0.867469 18.0653
1.00633 -0.0258537 20.5906
1.09082 0.628407 11.109
0.783966 0.929778 8.95569
-2.8611 0.513638 20.2872
-1.97048 0.686538 17.745
-2.89456 2.9266 19.9573
0.850583 -0.486742 21.0567
0.908667 0.0809913 8.20119
0.998761 -0.281063 14.4111
5.39218 -5.79924 19.423
1.78591 -0.871089 18.0587
2.84075 -0.894401 20.2728
-1.07391 0.643897 10.9444
-0.827289 0.906945 9.20087
-1.0038 -0.0267006 20.5906
1.96956 0.68914 17.7367
2.89221 2.91908 19.9559
2.85622 0.509449 20.2927
-0.936041 0.0857828 8.47031
-0.994559 -0.279969 14.4357
-0.849978 -0.487393 21.0607
-0.517881 -0.795121 21.268
0.462454 -0.39123 4.55665
0.262579 -0.340321 20.7588
0.367664 -0.569598 7.21344
-1.35562 -0.88578 21.5681
-5.57056 0.526267 18.7659
-0.0281199 -0.632802 21.3944
0.53406 1.03071 9.89959
-0.451885 -0.380866 4.47109
0.519046 -0.79468 21.2667
-0.36056 -0.566573 7.08775
-0.262371 -0.340892 20.7488
5.55151 0.524041 18.8003
1.35282 -0.884714 21.5681
-0.529883 1.02673 9.89033
0.0267005 -0.632385 21.3893
-0.887473 -0.303222 19.9833
-0.546919 -0.123348 19.8484
-0.609589 -0.248686 19.5998
-0.920763 -0.424546 21.0067
-1.29301 -0.398372 20.4277
-2.10783 -1.15056 20.3208
-0.174025 -0.24037 21.3564
-0.524411 -0.365887 21.2786
-0.303985 -0.516052 21.5417
0.337307 -0.0218971 21.418
0.0786696 -0.181939 21.4247
0.321629 -0.132039 21.4375
0.696585 0.0897512 21.1879
0.577007 -0.0191183 21.3133
0.905767 0.242429 21.1642
0.768492 0.0581095 21.1763
0.839741 0.118673 20.7596
1.1526 0.421691 20.9924
0.789816 -0.0383602 20.8634
0.861255 0.175448 21.6165
-1.04317 -0.175128 19.9107
-0.607482 -0.033006 19.8074
-0.69341 -0.170238 19.511
-1.06807 -0.340797 21.05
-1.45931 -0.141954 20.4189
-0.238795 -0.318851 21.4114
-0.709045 -0.37303 21.2556
0.351557 -0.119259 21.4674
-0.00446709 -0.281831 21.4706
0.768105 -0.0357198 21.1553
0.579919 -0.165763 21.3136
0.868605 -0.048947 21.1615
0.827235 -0.0875514 20.7047
1.39839 0.106518 20.4793
0.81218 -0.26807 20.8985
1.29047 0.131246 20.2515
-1.10442 0.0926968 19.902
-0.600667 0.172557 19.831
-0.758482 0.108705 19.4554
-1.2238 -0.0992281 20.9675
-1.28131 0.329212 20.3738
-0.48321 -0.335504 21.4514
-0.962172 -0.082767 21.2014
0.255356 -0.271482 21.4537
-0.179332 -0.227399 21.496
0.679552 -0.291377 21.2299
0.416069 -0.346456 21.3103
0.82109 -0.338119 20.7483
0.590096 -0.472595 21.0613
1.2199 -0.530648 20.9758
0.454809 -0.267516 20.8516
1.20383 -0.506672 19.4379
-0.778493 0.392262 20.043
-0.569756 0.370019 19.6942
-1.01955 0.339128 20.7678
-1.37891 0.910921 20.2305
-0.617314 0.0148579 21.3911
-1.60632 0.504858 21.2637
0.0806562 -0.249169 21.3891
-0.358914 -0.122422 21.71
0.375016 -0.386839 21.0948
0.300759 -0.51606 21.3483
0.433103 -0.481685 20.757
0.423077 -0.669567 20.9211
0.272051 -0.417043 20.7488
-1.37842 -1.13116 18.6732
-0.588774 -0.316723 19.1788
-0.00113826 -0.563388 18.878
-0.929096 -0.652915 18.2924
-0.0224596 -8.4297 18.2801
0.798121 -0.157567 13.8301
-0.0027899 0.0421338 4.95039
1.12698 0.459655 15.1169
0.00426287 0.0925858 6.72067
1.26144 1.17317 16.5782
-0.00483119 0.429154 7.72822
1.28573 1.08257 16.0293
1.58396 1.36908 15.7556
0.00261912 0.651867 8.08276
1.34253 0.753111 15.7284
-0.0196942 1.23658 12.7777
-0.68363 -0.0607693 19.0482
-0.000852917 -0.332147 18.5988
1.67946 0.967021 14.3757
1.8543 0.354569 8.72876
0.00937899 -0.486905 -2.26068
1.60788 0.244738 14.0527
-0.0289723 0.628527 4.70227
-0.651943 0.423479 19.1816
-0.00154167 0.250787 18.4512
1.44132 -0.20819 12.8757
1.20227 -1.07821 17.4927
-0.0479806 -0.149143 -3.84381
0.903186 -0.821402 18.6305
-0.0383257 -0.710457 0.194444
-1.00912 1.23589 19.3483
0.000932478 0.781759 19.1192
-1.86483 1.57026 20.5087
0.00356182 3.09841 19.639
-1.5044 0.70436 22.28
0.00346675 5.6372 20.8734
0.0449456 -0.549758 21.3115
-0.00103616 0.159308 17.326
0.339063 -0.920097 21.0126
4.60796e-05 -0.382224 17.4275
0.273309 -0.876495 20.1177
-0.00119352 -0.959082 17.7525
-0.00574609 -0.914004 19.0166
1.38025 -1.13825 18.6604
0.591542 -0.317303 19.177
0.6127 -0.25162 19.5924
0.888317 -0.67108 18.0009
2.13128 -1.17407 20.3158
-0.798177 -0.155977 13.7249
0.301259 -0.514681 21.5421
-1.1247 0.464994 14.9398
-0.323444 -0.12864 21.428
-1.25482 1.17787 16.5277
-0.912027 0.253699 21.141
-1.29411 1.06417 16.2034
-1.61361 1.32273 16.076
-1.14851 0.416716 20.9922
-1.32905 0.724612 15.9238
-0.846479 0.169032 21.6461
0.681282 -0.0611997 19.0468
0.701685 -0.167917 19.5059
-1.68825 0.935311 14.6838
-1.90179 0.305457 9.37739
-1.36777 0.101275 20.6533
-1.59374 0.208361 14.3253
-1.27336 0.117812 20.3541
0.651183 0.423167 19.1778
0.758115 0.10886 19.4609
-1.46414 -0.238062 13.2939
-1.18267 -1.07219 17.6097
-1.20295 -0.548472 21.1455
-0.907053 -0.80693 18.6893
-1.194 -0.488933 19.5676
1.00849 1.2326 19.3519
0.570033 0.365905 19.6883
1.86305 1.56411 20.5095
1.37566 0.905498 20.2299
1.50184 0.703546 22.279
1.59944 0.502818 21.2602
-0.0455253 -0.547444 21.3204
0.357382 -0.122654 21.7048
-0.339646 -0.913814 21.0297
-0.300559 -0.515449 21.349
-0.275991 -0.867511 20.1869
-0.430968 -0.660682 20.9137
-0.267117 -0.404455 20.7689
0.897055 -0.29306 19.9855
0.555588 -0.131853 19.84
0.921255 -0.424168 21.009
1.30804 -0.39917 20.4326
0.174598 -0.240159 21.3587
0.52744 -0.365883 21.276
-0.337315 -0.0275226 21.4125
-0.0774343 -0.180173 21.4323
-0.692986 0.0874333 21.1754
-0.575608 -0.0162414 21.3186
-0.76439 0.059877 21.1841
-0.824834 0.110335 20.7539
-0.776418 -0.0296054 20.8509
0.984926 -0.183925 19.9206
0.60544 -0.0321518 19.8076
1.07163 -0.344253 21.0487
1.46663 -0.143523 20.4272
0.244134 -0.318614 21.4138
0.712626 -0.370932 21.2565
-0.35279 -0.124504 21.4625
0.00231063 -0.282088 21.4769
-0.767441 -0.0394747 21.1548
-0.576014 -0.162918 21.3233
-0.855898 -0.0410145 21.1455
-0.815765 -0.084512 20.6891
-0.810567 -0.267019 20.8828
1.09165 0.089093 19.9187
0.607559 0.171598 19.8357
1.2158 -0.0907594 20.9764
1.2824 0.321479 20.3807
0.481947 -0.334044 21.4543
0.963498 -0.0845154 21.2016
-0.263017 -0.269144 21.4519
0.179217 -0.225865 21.4939
-0.670431 -0.285519 21.225
-0.405686 -0.348626 21.3159
-0.820298 -0.339617 20.7301
-0.572149 -0.477555 21.0137
-0.452115 -0.27406 20.8177
0.7777 0.386501 20.042
1.0197 0.332704 20.7717
0.618196 0.0131884 21.3913
-0.0794217 -0.25571 21.3846
-0.369129 -0.386396 21.1161
-0.44166 -0.469684 20.7558
-0.974388 -0.263333 19.9491
-1.5595 -1.01246 18.391
-1.23862 -0.612752 19.5253
-1.50148 -0.41934 19.3122
-0.652179 -0.232771 19.5529
-2.4177 -1.05747 20.3193
-1.00156 -0.406606 21.0466
0.339361 -0.46053 8.48467
-1.10607 -0.7457 21.5124
-1.38569 -0.814525 21.6774
-0.367219 -0.688153 21.4448
-0.191093 -0.286041 21.3876
0.331624 -0.172734 5.76459
0.0745665 -0.314907 21.5152
-0.0226029 -0.558468 20.8361
0.303558 -0.246369 21.1514
0.35959 -0.076124 21.4493
0.790336 0.17359 8.92721
0.632045 0.0694479 21.3209
0.657662 -0.159836 20.6501
0.982356 0.114917 20.8551
0.744473 0.0251494 21.1742
1.36911 1.0535 13.5338
1.11807 0.392638 21.0534
1.30202 0.0877393 20.5084
1.32359 0.270133 20.477
0.853561 -0.0237109 21.2078
1.47604 0.98569 15.0206
1.43297 0.32731 19.8693
1.47038 0.112816 19.6583
1.07844 0.151313 20.9695
-1.08585 -0.0752165 19.8919
-2.06106 -0.16644 17.5585
-1.63553 0.281531 19.285
-0.732199 -0.0435989 19.4782
-3.27431 -0.184506 20.2797
-1.1606 -0.266898 21.0528
-1.76474 -0.234929 21.339
-0.852986 -0.822362 21.3251
-0.328788 -0.353533 21.4352
-0.574174 -0.839538 21.6655
0.189969 -0.511836 20.9481
0.320014 -0.193131 21.4695
0.490711 -0.473202 21.1485
0.960456 -0.274525 20.8305
0.755091 -0.163952 21.251
0.431534 0.391194 5.42646
1.14401 -0.440801 20.5922
1.43271 -0.232924 20.7928
0.864733 -0.219279 21.1357
1.58688 0.440358 10.5836
1.05956 -0.4635 20.8036
1.34772 -0.36023 19.3571
-1.00384 0.284886 19.9519
-1.52662 1.3627 18.5825
-0.994773 0.70259 19.756
-0.701482 0.269127 19.5412
-2.03835 0.90533 20.254
-1.19224 0.139578 20.862
-3.11267 1.23399 20.5717
-1.51778 0.702355 20.735
-1.9784 -0.137642 21.3995
-0.586384 -0.183862 21.4441
-0.420028 0.518636 11.1278
-0.995126 0.142571 21.699
-0.3881 -0.36598 21.7564
0.180432 -0.280916 21.4249
1.10328 0.283767 11.6631
0.0728561 -0.355275 21.5314
0.518519 -0.586017 21.3482
0.538465 -0.379392 21.0909
1.08513 -0.636966 16.1146
0.421961 -0.624097 21.1966
0.707145 -0.80701 21.2305
0.524282 -0.373501 20.7473
1.04478 -1.03907 17.7449
0.654882 -0.542632 20.6256
0.904829 -0.488374 19.5827
1.56311 -1.02605 18.375
-0.0081279 -1.89957 17.486
-0.00208019 -1.43632 16.2185
-0.000254458 -0.465745 18.7715
-0.0214644 -12.192 15.5648
-0.353488 -0.464143 8.22782
0.00276648 -0.384805 7.10352
-0.000192306 0.003012 0.316946
-0.326326 -0.170594 5.63669
0.00273789 0.0837228 5.70534
-0.000891697 -0.0358606 1.85803
-0.784061 0.17524 8.77122
0.00126783 0.408826 7.11115
-0.00903141 0.188632 2.63946
-1.37891 1.04705 13.5891
-0.00457071 0.162156 7.93662
0.0210977 -0.842457 -2.61347
0.00651837 0.31577 3.20646
-1.48332 0.960613 15.2654
-0.00163896 0.875131 9.01525
-0.00761144 0.119661 1.85787e-06
-0.0243332 0.932555 8.73997
2.06068 -0.168494 17.5482
-0.00170237 1.39995 15.7191
-0.00417752 -0.111294 18.3589
-0.489448 0.36895 5.66837
-0.00448773 -0.223342 -3.69251
-0.0433036 -0.698015 -4.46036
-1.5715 0.406285 11.0251
-0.035371 -0.419069 -1.6485
-0.0313938 0.0481831 3.17587
1.52554 1.36117 18.58
0.00200438 1.87445 18.8086
-0.000418475 0.642406 18.6583
0.00276667 5.41937 19.2756
3.11065 1.23072 20.5783
0.00387145 3.06736 19.964
-0.000985876 6.03423 9.23348
0.424146 0.515459 11.1918
-0.000710822 1.80023 20.5543
0 0 0
-1.08876 0.27695 11.6078
-0.00014917 -0.213445 17.0217
-0.00187991 0.606806 0.364874
-1.07898 -0.630176 16.2879
0.000853831 -0.69744 17.741
-0.0197424 -1.09086 6.48972
-1.0314 -1.02495 17.8782
-0.00174435 -0.861096 17.9286
-0.00872645 -1.12696 9.39709
0.945266 -0.245967 19.9503
1.25175 -0.623969 19.5132
1.5057 -0.418558 19.3094
0.659176 -0.23379 19.548
2.44059 -1.06544 20.3183
1.00704 -0.414489 21.0445
1.10089 -0.748304 21.5238
1.38908 -0.816844 21.6796
0.366066 -0.687036 21.4396
0.195536 -0.286716 21.3883
-0.0760812 -0.310777 21.5126
0.0244455 -0.559089 20.831
-0.30525 -0.246385 21.1305
-0.358864 -0.0825257 21.4425
-0.637062 0.0746248 21.3006
-0.655797 -0.160783 20.6452
-0.984882 0.118041 20.8216
-0.741706 0.0235615 21.1671
-1.1184 0.394706 21.0511
-1.2897 0.0826351 20.537
-1.30008 0.266881 20.5948
-0.844671 -0.019014 21.2198
-1.41751 0.318184 19.917
-1.43792 0.0968818 19.7912
-1.05992 0.143422 21.0001
1.09424 -0.0760561 19.9026
1.6312 0.283051 19.2913
0.736708 -0.0427296 19.4776
3.27199 -0.185082 20.2859
1.15671 -0.262309 21.0573
1.76522 -0.235436 21.3378
0.853276 -0.824457 21.3287
0.33294 -0.353188 21.4373
0.573913 -0.84076 21.6652
-0.190026 -0.51378 20.9446
-0.328814 -0.192371 21.4687
-0.489673 -0.473093 21.1494
-0.958065 -0.276548 20.8545
-0.739452 -0.157362 21.2629
-1.13095 -0.44101 20.6179
-1.40749 -0.245014 20.9963
-0.863802 -0.218782 21.126
-1.03304 -0.452084 20.8567
-1.34049 -0.383701 19.6168
1.00244 0.283372 19.947
0.993661 0.698052 19.7595
0.699343 0.269824 19.5427
2.03508 0.899796 20.2526
1.19379 0.134164 20.8677
1.51294 0.698493 20.7334
1.97207 -0.137556 21.3961
0.589055 -0.183954 21.447
0.993611 0.142516 21.6947
0.387737 -0.364569 21.7479
-0.17904 -0.282628 21.4237
-0.0732437 -0.354807 21.5323
-0.518154 -0.585542 21.3574
-0.522577 -0.369688 21.1474
-0.421368 -0.623086 21.1841
-0.697859 -0.796268 21.2892
-0.526 -0.389402 20.7617
-0.652053 -0.531718 20.5997
-0.907307 -0.475963 19.6242
-1.36677 -0.549973 19.4472
-1.22206 -0.823484 21.584
0.0436225 -0.455494 21.2697
0.661126 -0.0484268 20.9814
1.23888 0.257059 20.5929
1.54388 0.265176 19.3137
-1.68166 -0.0992039 19.2252
-1.71487 -0.518534 21.6634
-0.183907 -0.727614 21.0836
0.608866 -0.346246 20.8952
1.27707 -0.219014 20.451
1.31529 -0.199376 20.3881
-1.36002 0.630409 19.4881
-1.88301 0.258803 20.9162
-1.1159 -0.327876 21.8139
0.193978 -0.458307 21.5635
0.69552 -0.684849 21.2007
0.583014 -0.607279 21.2516
-0.00420079 -1.87436 16.8554
0.00108563 -0.0046986 0.444055
0.000953072 0.0165242 1.02729
-0.000192075 0.193246 2.56521
0.00393993 -0.360225 1.95483
-0.00468582 0.510317 4.4559
-0.00359267 -0.203652 15.4252
0.000291533 -0.86558 -4.74758
-0.0295843 0.259427 0.932682
0.000191951 2.23287 17.5014
0.00223111 3.5433 19.4147
0 0 0
0.000361039 0.484927 -0.0978797
-0.00428574 -0.134375 2.46701
-0.00900996 -0.816238 9.76921
1.37189 -0.557428 19.4416
1.22346 -0.824219 21.5943
-0.0443537 -0.455114 21.2549
-0.662599 -0.0482173 20.9498
-1.23275 0.257688 20.6011
-1.5161 0.256188 19.4292
1.68653 -0.100574 19.2269
1.71645 -0.520731 21.6628
0.184956 -0.73065 21.0831
-0.607315 -0.348819 20.9004
-1.265 -0.222648 20.4871
-1.28169 -0.221631 20.5147
1.36069 0.630214 19.4867
1.8787 0.258618 20.9135
1.11301 -0.327781 21.8094
-0.19385 -0.457997 21.5596
-0.683402 -0.683106 21.1963
-0.560886 -0.586591 21.2879
0 0 0
-0.333536 -3.26713 2.81832
-0.000812709 -0.00697162 0.867224
0.125679 0.257551 0.732225
-0.0604036 0.0387754 0.0964317
0.123444 -0.00939424 1.40966
-3.50964 0.527605 3.00423
-0.21235 2.25785 1.89969
-0.227169 -0.278007 1.31925
0.181691 0.0611206 1.05665
-0.0554369 0.0451688 -0.0261009
0.0894089 0.112957 0.585098
0.333182 -3.26596 2.81667
0 0 0
0.00123786 -0.00617149 0.831064
0.0630004 0.0384752 0.0966594
-0.124158 0.260445 0.734049
-0.122801 -0.00906934 1.40753
0.218976 2.24041 1.89561
3.71028 0.564185 3.1806
0.226047 -0.277948 1.31773
0.0552784 0.0454778 -0.0263081
-0.180806 0.0604554 1.05424
-0.0894963 0.113034 0.585337
0.098471 -0.0474989 0.453652
0.00146402 0.000652821 0.11772
3.89413e-05 -0.000225202 0.00284277
0 0 0
0.0760241 -0.0406214 1.10574
0.000466415 0.0101601 0.199382
0 0 0
0 0 0
-0.414924 -0.408221 0.894463
0 0 0
0.00572406 0.0257206 0.0810455
-0.106732 0.0796 0.140538
0.0168875 0.0439755 0.162662
0 0 0
0.00324277 0.0166583 0.0496399
0.0102865 -0.00245606 0.0763264
-0.0986231 -0.0477982 0.452543
-0.000296213 7.66506e-06 0.00163183
-0.00144105 0.000699638 0.117167
-4.19672e-05 -0.000242446 0.00307654
-0.0734508 -0.0387781 1.09161
0 0 0
-0.000475267 0.0101462 0.200962
0 0 0
0.414656 -0.408118 0.894396
0.107001 0.0797976 0.140911
0 0 0
-0.00576941 0.0259296 0.0817982
-0.0169773 0.0441705 0.162696
-0.0103305 -0.00246629 0.0765993
0 0 0
-0.00324975 0.0166873 0.0496868
-0.00296596 -0.0139599 0.0159308
-0.00826503 -0.00111656 0.00261505
6.47771e-07 -3.38364e-06 8.02691e-05
0 0 0
0 0 0
0 0 0
0.00128497 0.00303043 0.0466016
1.12545e-17 -1.94733e-18 1.03877e-18
0 0 0
-5.02556e-05 -0.00545915 -0.00185836
0 0 0
0 0 0
0 0 0
-3.60042e-05 0.0314374 0.27532
0 0 0
-0.000226206 3.85884e-05 0.0004665
-1.55255e-05 0.00325373 -0.0011716
-1.47997e-08 -3.82331e-07 3.99162e-06
0 0 0
0 0 0
0.00870124 -0.00119421 0.002754
0.000839599 -0.00390072 0.00445278
0 0 0
0 0 0
-3.93629e-17 -6.88924e-18 3.6676e-18
-0.0014546 0.00343993 0.0528283
0 0 0
0 0 0
0.000224111 3.83108e-05 0.000463334
0 0 0
0 0 0
0 0 0
-1.11646e-05 0.000186049 0.00200033
4.59231e-05 3.40996e-06 0.000407263
-3.53684e-18 2.44772e-17 -5.98835e-17
0.000154245 0.00132719 0.0142077
7.143e-06 1.52679e-05 0.000715288
0 0 0
0.000224054 0.00466792 0.0294282
0.00127928 0.00593598 0.0558994
7.02392e-08 8.44612e-07 5.34099e-05
-8.09513e-06 0.00108517 0.012646
-1.65808e-06 -3.54e-05 -0.000151835
0.005777 0.00688791 0.144337
-0.000114493 0.000887135 -0.0109828
-8.90431e-07 0.000913704 0.00708327
2.23263e-06 9.047e-06 0.0145231
5.7641e-05 0.0133935 -0.0133734
-0.00199774 0.000160256 0.017619
1.09123e-05 0.000182102 0.00196528
0 0 0
-0.000152662 0.00131185 0.0140562
-0.000224534 0.00468749 0.0295203
-0.00128006 0.00595848 0.0559962
-0.00577779 0.00684352 0.143563
1.77193e-06 -3.79269e-05 -0.000162934
0 0 0
0 0 0
-3.8113e-06 1.57902e-05 -4.40169e-05
0 0 0
-1.07158e-06 0.000537529 0.0127714
-4.38849e-07 -8.30502e-06 -6.18114e-05