# vtk DataFile Version 2.0
tri_press
ASCII
DATASET UNSTRUCTURED_GRID
POINTS 3682 float
-0.675 0.235 -1.91397
-0.745 0.415 1.94912
-0.695 0.737451 -1.795
-0.684286 0.925 1.955
0.675 0.235 -1.91397
0.745 0.415 1.94711
0.695 0.735 -1.80186
0.684294 0.925 1.955
-0.770399 0.222934 -0.626273
-0.78582 0.290846 0.661423
-0.776609 0.885148 -0.545
-0.759228 0.933855 0.705
0.770381 0.222952 -0.626943
0.785805 0.290862 0.660084
0.777528 0.88443 -0.549573
0.759477 0.933281 0.702713
-1.42968 -0.130305 -2.9656
-1.43688 -0.0824243 -1.95001
-1.50566 -0.0714811 -0.661606
-1.52953 -0.0130191 0.633998
-1.50425 0.0907669 1.923
-1.49726 0.150593 2.94152
-1.5016 0.194868 3.9545
-1.42639 0.160981 -2.92055
-1.43187 0.226292 -1.9088
-1.51739 0.242053 -0.627576
-1.53002 0.290077 0.656753
-1.48496 0.379638 1.93865
-1.48562 0.437458 2.95671
-1.49673 0.483231 3.97092
-1.43522 0.714974 -2.81938
-1.4454 0.781411 -1.80517
-1.52118 0.881759 -0.549453
-1.51044 0.919785 0.703226
-1.44647 0.934929 1.95954
-1.46575 0.992803 2.97934
-1.49029 1.05134 3.99961
-1.46004 1.61442 -2.69638
-1.47085 1.68847 -1.68836
-1.49968 1.78849 -0.44383
-1.51141 1.84489 0.792387
-1.50211 1.86733 2.037
-1.50012 1.89677 3.0452
-1.50668 1.94157 4.06122
-0.699424 -0.127127 -2.96911
-0.687623 -0.0777246 -1.95441
-0.747904 -0.0819983 -0.662033
-0.774917 -0.0123572 0.637833
-0.759665 0.111958 1.93036
-0.756514 0.164987 2.94631
-0.760886 0.202365 3.95697
-0.699314 0.159744 -2.92281
-0.751767 0.450875 2.96067
-0.7596 0.489459 3.97267
-0.706605 0.697146 -2.81676
-0.735964 0.991832 2.97809
-0.756991 1.05164 3.99885
-0.719523 1.60438 -2.69355
-0.723112 1.68014 -1.68501
-0.747081 1.78948 -0.44222
-0.764391 1.84816 0.790999
-0.763643 1.86541 2.03368
-0.763586 1.8933 3.04194
-0.76912 1.93888 4.05866
0.721237 -0.127516 -2.97068
0.728466 -0.0778193 -1.95505
0.7742 -0.0820349 -0.662939
0.775077 -0.0123846 0.636475
0.746585 0.111933 1.92865
0.730485 0.164932 2.94482
0.72271 0.202271 3.95557
0.704015 0.15916 -2.92481
0.719237 0.450834 2.95928
0.715425 0.489369 3.97134
0.70858 0.695821 -2.82089
0.697991 0.991768 2.97724
0.704828 1.05153 3.99768
0.748294 1.60343 -2.69715
0.757737 1.67921 -1.68873
0.757481 1.78881 -0.445378
0.735516 1.84772 0.788746
0.712362 1.86512 2.03211
0.705873 1.89308 3.04056
0.70405 1.93867 4.05726
1.44558 -0.131157 -2.96923
1.45643 -0.0829125 -1.95267
1.52001 -0.0717651 -0.664236
1.53542 -0.0132065 0.631175
1.50271 0.0906514 1.92003
1.48021 0.150441 2.93865
1.46947 0.194651 3.95169
1.42665 0.159816 -2.92495
1.42643 0.225561 -1.91209
1.51548 0.24167 -0.630645
1.53581 0.289841 0.65391
1.49107 0.379556 1.93592
1.46698 0.437325 2.95406
1.46017 0.483021 3.96824
1.43207 0.712895 -2.82649
1.43805 0.779106 -1.81323
1.51733 0.88064 -0.555667
1.5132 0.919087 0.699504
1.44883 0.93472 1.95774
1.44066 0.99261 2.97725
1.4455 1.05109 3.99714
1.48237 1.61269 -2.70318
1.49515 1.68681 -1.69526
1.50532 1.78724 -0.449778
1.4878 1.84404 0.787966
1.45933 1.86676 2.03375
1.44828 1.8963 3.0423
1.44547 1.94115 4.05834
-0.714331 0.486226 -1.88382
0 0.228445 -1.92053
-0.738353 0.213314 -1.27012
-0.733787 0.67 1.9712
0 0.385519 1.9776
-0.838397 0.279936 1.30527
0 0.764743 -1.82695
-0.76501 0.840505 -1.17
3.99351e-06 0.944548 1.97455
-0.712873 0.920543 1.33
0.711633 0.485 -1.88455
0.728563 0.223104 -1.27046
0.733488 0.67 1.9699
0.838566 0.279767 1.3036
0.765417 0.838868 -1.17572
0.713035 0.92029 1.32886
-0.774278 0.260722 0.017575
-0.831587 0.554041 -0.585637
-8.83767e-06 0.200147 -0.626608
-0.827744 0.61235 0.683212
-7.74448e-06 0.213827 0.660753
-0.75596 0.897542 0.08
0.000459536 1.13955 -0.547287
0.000124285 1.38245 0.703857
0.774304 0.260696 0.01657
0.831541 0.553691 -0.588258
0.827439 0.612071 0.681398
0.756378 0.896731 0.07657
-0.876216 0.520133 -1.22006
0.875508 0.519346 -1.22309
-4.41883e-06 0.183977 -1.27029
0.000229768 0.897749 -1.17286
0 0.485613 -1.76927
-0.828846 0.583196 0.0487875
0.828846 0.582881 0.04657
-8.29108e-06 0.205439 0.0170725
0.00029191 1.36798 0.078285
-0.885892 0.641175 1.31764
0.885975 0.641036 1.31623
-3.87224e-06 0.218241 1.30443
6.41392e-05 1.30849 1.32943
1.99676e-06 0.67 2.02474
-0.675939 0.360613 -1.88017
-0.3375 0.230686 -1.91828
-0.702172 0.228661 -1.59205
-0.748207 0.5425 1.96898
-0.3725 0.385752 1.97787
-0.790669 0.348497 1.6272
-0.703493 0.611838 -1.83824
-0.3475 0.752144 -1.81202
-0.738973 0.797946 -1.4825
-0.712976 0.7975 1.96704
-0.342141 0.941611 1.97161
-0.706171 0.930363 1.6425
0.3375 0.230699 -1.91827
0.677641 0.36 -1.88358
0.701126 0.229707 -1.59221
0.3725 0.385259 1.97735
0.74851 0.5425 1.96777
0.790063 0.349104 1.62535
0.3475 0.756222 -1.82075
0.699758 0.61 -1.83965
0.739193 0.795919 -1.48879
0.342149 0.941653 1.97165
0.712691 0.7975 1.96625
0.70546 0.929441 1.64193
-0.76067 0.21183 -0.948198
-0.774989 0.239177 -0.304349
-0.806068 0.38595 -0.605955
-0.390343 0.201263 -0.626441
-0.828386 0.269114 0.983348
-0.782239 0.273594 0.339499
-0.814695 0.447642 0.672318
-0.411499 0.215167 0.661088
-0.776695 0.868712 -0.8575
-0.826471 0.730781 -0.565318
-0.765161 0.890222 -0.2325
-0.43922 1.11464 -0.546143
-0.729268 0.920416 1.0175
-0.805456 0.779088 0.694106
-0.752965 0.911069 0.3925
-0.481876 1.3628 0.704428
0.765857 0.206643 -0.9487
0.386257 0.209408 -0.626776
0.774975 0.239191 -0.305187
0.806004 0.3858 -0.607601
0.828226 0.269274 0.98184
0.411238 0.215666 0.660419
0.782243 0.27359 0.338327
0.814663 0.447446 0.670741
0.777107 0.867283 -0.862645
0.439625 1.11325 -0.54843
0.826691 0.730139 -0.568916
0.766161 0.889789 -0.236502
0.72949 0.92002 1.01579
0.482264 1.36279 0.703285
0.805619 0.778757 0.692056
0.753183 0.910261 0.389642
-0.84145 0.503179 -1.55194
-0.357165 0.485919 -1.9599
-2.20942e-06 0.198966 -1.59541
0 0.357029 -1.77012
-0.83204 0.366724 -1.24509
-0.369179 0.188446 -1.27021
-0.840735 0.655588 1.64442
-0.366893 0.67 2.02591
-1.93612e-06 0.278249 1.64102
9.98378e-07 0.527759 2.05228
-0.886806 0.460556 1.31145
-0.4192 0.218849 1.30485
0.000114884 0.86472 -1.4999
0 0.625178 -1.76261
-0.891848 0.680319 -1.19503
-0.38239 0.890695 -1.17143
3.40664e-05 1.12425 1.65199
2.99513e-06 0.807274 2.04216
-0.8008 0.780859 1.32382
-0.356404 1.29985 1.32971
0.840838 0.502173 -1.55382
0.355816 0.485306 -1.95984
0.83564 0.371225 -1.24677
0.364279 0.197839 -1.27037
0.841219 0.655518 1.64306
0.366745 0.67 2.02587
0.886808 0.460401 1.30991
0.419281 0.218803 1.30402
0.890725 0.679107 -1.1994
0.382824 0.890208 -1.17429
0.800908 0.780663 1.32254
0.35655 1.3002 1.32914
-0.813038 0.416221 0.0331813
-0.399703 0.207961 0.0173238
-0.866695 0.537087 -0.902849
-0.83062 0.568618 -0.268425
-6.62825e-06 0.186212 -0.948449
-8.56437e-06 0.203942 -0.304768
-0.826061 0.597773 0.366
-0.880413 0.626763 1.00042
-8.01778e-06 0.212317 0.338913
-5.80836e-06 0.216006 0.982594
-0.815626 0.75198 0.0643938
-0.487601 1.3523 0.0791425
0.000344652 0.958714 -0.860073
0.000375723 1.32009 -0.234501
0.000208098 1.37708 0.391071
9.42121e-05 1.36999 1.01664
0.81302 0.416066 0.03157
0.398939 0.209485 0.0168213
0.872182 0.536518 -0.905673
0.830624 0.568286 -0.270844
0.826081 0.597476 0.363984
0.880426 0.626554 0.998813
0.815831 0.751416 0.06157
0.488268 1.35222 0.0774275
-0.790523 0.363668 -1.57199
-0.848026 0.377606 -0.925523
-0.859447 0.699957 -0.880174
-0.839606 0.646079 -1.51722
0.791966 0.365612 -1.57302
0.838171 0.644553 -1.5213
0.860256 0.699084 -0.884159
0.849572 0.379773 -0.927186
-0.353339 0.203847 -1.59373
0.35089 0.205531 -1.59381
0.374733 0.192257 -0.948574
-0.377191 0.189972 -0.948323
-0.364945 0.860298 -1.4912
-0.385232 0.961627 -0.858786
0.385909 0.943998 -0.861359
0.365162 0.859586 -1.49435
-0.347333 0.358821 -1.95859
-0.352333 0.618508 -1.88205
0.351658 0.617589 -1.88295
0.346658 0.358514 -1.95849
-0.810858 0.400433 -0.286387
-0.81355 0.43209 0.352749
-0.808129 0.764328 0.37925
-0.821068 0.741391 -0.250462
0.81082 0.400279 -0.288015
0.821285 0.740789 -0.253673
0.809907 0.764677 0.376813
0.813537 0.431908 0.351156
-0.393954 0.20675 -0.304559
0.392413 0.209816 -0.304977
0.404237 0.214278 0.33862
-0.4046 0.213567 0.339206
-0.49132 1.28929 -0.2335
-0.485137 1.35835 0.391786
0.485655 1.35829 0.390356
0.491624 1.28809 -0.235501
-0.885304 0.456077 0.991886
-0.841653 0.501528 1.63581
-0.765666 0.78918 1.64346
-0.807751 0.776981 1.00896
0.885319 0.455934 0.990326
0.807851 0.77667 1.0073
0.765781 0.789082 1.64249
0.842093 0.501451 1.63421
-0.406057 0.217461 0.982971
0.40609 0.217603 0.982217
0.395891 0.276602 1.63318
-0.39585 0.277051 1.63411
-0.367978 1.3618 1.01707
-0.349273 1.11742 1.64724
0.349349 1.1176 1.64696
0.368175 1.36184 1.01621
-0.369696 0.53513 2.03488
0.369622 0.53513 2.03481
0.354447 0.802387 2.03018
-0.354517 0.802387 2.03021
-0.631847 0.297806 -1.85345
-0.50625 0.232469 -1.9165
-0.689742 0.230675 -1.75301
-0.751168 0.47875 1.96361
-0.55875 0.399708 1.96416
-0.770267 0.379317 1.78816
-0.701271 0.674645 -1.81864
-0.52125 0.749917 -1.80863
-0.720408 0.77112 -1.63875
-0.698169 0.86125 1.96056
-0.513214 0.935666 1.96567
-0.693858 0.926311 1.79875
0.50625 0.232523 -1.91645
0.630914 0.2975 -1.85337
0.689482 0.230934 -1.75309
0.55875 0.398891 1.96347
0.750182 0.47875 1.96087
0.769772 0.379812 1.78623
0.52125 0.74693 -1.81263
0.697775 0.6725 -1.82115
0.720615 0.768977 -1.64532
0.513221 0.935698 1.9657
0.698105 0.86125 1.96024
0.693949 0.926292 1.79846
-0.768593 0.214323 -0.787236
-0.772687 0.231063 -0.465311
-0.789753 0.303682 -0.616114
-0.584114 0.204612 -0.626357
-0.818853 0.268231 0.822386
-0.783823 0.282427 0.500461
-0.799577 0.369584 0.666871
-0.615235 0.219857 0.661256
-0.778775 0.879052 -0.70125
-0.802767 0.808578 -0.555159
-0.770996 0.887795 -0.38875
-0.643299 1.07066 -0.545572
-0.737336 0.920223 0.86125
-0.785777 0.858189 0.699553
-0.751349 0.917714 0.54875
-0.642201 1.19162 0.704714
0.767683 0.215234 -0.787822
0.579029 0.214761 -0.62686
0.772675 0.231075 -0.466065
0.789745 0.3036 -0.617272
0.816005 0.271078 0.820962
0.614452 0.221402 0.660251
0.783823 0.282427 0.499205
0.799547 0.369497 0.665412
0.779462 0.878001 -0.706109
0.643513 1.06871 -0.549002
0.803058 0.807759 -0.559245
[...]
POINT_DATA 3682
SCALARS point_scalars float 1
LOOKUP_TABLE default
-17.9445
-43.2144
-68.7242
-37.114
-17.8932
-42.8379
-64.194
-36.9037
-40.5778
-26.876
-64.1138
-48.8206
-40.007
-27.0624
-63.9058
-48.6209
-66.8149
-142.904
-57.5434
-27.0665
-65.3151
-44.5465
-42.9736
64.2508
-104.385
-57.4221
-19.395
-45.8288
-43.3486
-43.2309
40.9941
-50.868
-48.7451
-36.6333
-46.9269
-39.6498
-39.9509
-65.9057
-46.7597
-101.774
-56.2983
-37.5571
-36.8948
-36.8948
3.18609
-66.8149
-42.4297
-33.9228
-47.4841
-39.07
-37.6562
114.311
-38.1113
-37.4491
146.402
-36.5782
-35.2996
4.47776
-42.6669
-92.0841
-53.8725
-35.1841
-36.8948
-35.2996
2.36879
-6.65621
-41.8174
-33.8762
-47.2429
-38.7198
-37.5604
8.68513
-37.7111
-37.3264
145.779
-35.7848
-35.0226
-1.95396
-42.3697
-92.9109
-53.9229
-34.9274
-36.6832
-35.0226
2.36879
-6.8969
-58.2945
-33.1942
-65.7987
-42.8335
-42.3747
8.68513
-8.80557
-58.0869
-31.9337
-46.7209
-42.989
-42.9826
8.68513
-56.2441
-48.7522
-36.6569
-46.7491
-39.4624
-39.7656
-66.5819
-46.662
-91.615
-56.6773
-36.9124
-36.6832
-36.6832
88.3495
-185.659
-60.7613
-41.1992
-38.8071
-49.157
-97.9661
-50.2486
-29.6275
-44.3264
64.7604
-56.9792
-41.0578
-49.2528
-52.7227
-44.2167
-34.559
-41.6085
-43.9916
-29.0274
-38.7474
-51.1508
20.7748
-58.6803
-34.3304
-41.7078
-29.09
-51.1526
-64.7634
-64.7414
-66.9739
-6.70492
198.992
-38.1136
-38.1058
-37.0852
-93.9835
-51.5193
-51.3624
-48.4447
-39.2611
-35.1917
66.6035
-185.898
-78.9457
-42.5112
-40.0307
-53.8715
-0.310235
-36.7891
-47.3856
-40.5005
-32.5639
-40.307
-185.867
62.8683
-77.855
-39.956
-42.429
-53.8461
-32.2265
1.15511
-47.4789
-32.2159
-40.343
-40.0692
-50.492
-35.7022
-40.1056
-43.4497
-48.9273
-32.0602
-26.5172
-38.3654
-47.3881
-48.7307
-57.2498
8.7629
-46.2147
-40.7011
-46.3864
-55.179
-51.2546
-42.9906
-35.5574
-40.1695
-49.4611
-38.279
-32.1208
-26.6526
-45.8956
8.91842
-48.9343
-57.2033
-46.1908
-55.1648
-40.6475
-46.3459
-66.2878
202.14
-88.2013
200.79
-63.8588
-65.0642
-52.0657
-36.4737
-48.6075
-37.2282
-51.9547
-48.3426
-42.9814
172.922
-62.2286
-11.296
-31.6424
-32.4192
-47.6727
-41.0073
-66.1716
204.357
-63.698
-64.7215
-51.9595
-36.3126
-51.8705
-48.3657
-62.5473
-11.4376
-47.5681
-40.9611
-35.1405
-36.3961
-57.4866
-39.7618
-54.0899
-38.5838
-35.3054
-41.3092
-36.5446
-42.6146
-43.8551
-82.5901
17.1448
-66.7863
-69.5316
-50.8823
-35.0736
-36.3564
-57.8157
-39.78
-35.3392
-41.2622
-43.8453
-82.7296
-71.2786
-52.8957
-55.2105
-49.7427
-71.3706
-49.9301
-55.5972
-53.0575
-86.034
-86.0227
-53.4575
-53.1473
-42.9858
9.24948
8.86195
-42.8751
182.025
141.398
139.837
183.196
-36.6414
-32.6114
-40.8034
-46.8806
-36.6058
-46.9154
-40.8478
-32.6747
-37.8232
-37.6804
-35.6889
-35.7575
-69.9027
-61.6903
-61.6811
-69.0153
-43.09
-53.519
-44.7355
-46.3209
-42.9293
-46.1979
-44.5979
-53.4567
-42.4705
-42.4482
-49.7625
-49.7747
-50.5107
-32.9144
-32.8037
-50.4947
-37.3131
-37.2152
-35.4339
-35.717
90.2507
-48.6949
-117.847
-44.0063
-40.352
-45.2505
-24.0304
-32.4247
-62.8681
-39.7692
-34.7391
-38.1278
-49.7627
88.3104
-118.263
-40.2862
-42.3859
-45.2055
-25.8393
-16.3069
-64.401
-34.4564
-39.5623
-37.9521
-53.1181
-36.6589
-39.8896
-42.7508
-32.7548
-30.5914
-25.9054
-37.1148
-60.1252
-54.9288
-59.5336
-52.0749
-46.2584
-44.4633
-44.6302
-53.5947
-54.1685
-41.7934
-36.5605
-39.8638
-30.1514
-37.0146
-30.9703
-26.2207
-60.6894
-50.4528
-55.0577
-59.9847
-46.2279
-53.6779
-44.3977
-44.5839
125.224
45.0472
-86.9634
135.051
-179.775
-180.721
-116.642
159.869
-64.4908
-53.9486
-63.2661
-61.5406
-41.2652
-40.9817
-44.4373
-37.1936
-39.0829
-39.05
-43.3494
-37.5693
-54.4119
-49.3311
-51.2376
-49.0945
-59.8994
-64.8502
-73.0729
187.415
-45.2025
-44.4221
-57.4654
-20.804
-30.5154
-30.2848
-30.8084
-30.0716
-42.3895
-45.4267
-45.7807
-44.355
122.98
43.9146
-87.7414
138.076
-69.5954
-52.348
-61.9442
-60.9144
-41.1263
-40.8018
-44.3201
-37.0471
-54.4598
-49.5241
-51.2289
-49.1907
-45.7742
-43.7097
-58.2914
-21.1551
-42.2716
-45.3559
-45.6731
-44.3595
-35.0823
-32.9999
-34.6112
-35.5011
-40.3041
-44.2024
-46.2132
-40.3528
-43.8521
-43.7569
-48.8426
-40.5482
-27.1139
-34.3088
-33.305
-31.0268
-38.659
-38.6481
-37.3862
-40.5132
-54.4331
-48.5152
-46.5732
-64.1656
19.0849
19.1283
27.2452
-6.37517
-58.0321
-58.018
-63.2709
-54.7642
-34.9346
-32.607
-34.495
-35.2386
-40.3726
-44.3474
-46.4651
-40.404
-27.2134
-34.4435
-33.3783
-30.916
-54.3954
-48.448
-46.5188
-64.1955
-72.3832
-64.8019
-65.6081
-60.3197
-72.6392
-64.6973
-65.5389
-60.0952
-74.6839
-66.6448
-66.3787
-59.6768
-22.9602
-7.67778
-7.7631
5.13125
203.119
200.498
196.148
202.789
-36.4099
-39.0967
-36.8743
-40.4589
-36.3822
-39.0929
-36.8844
-40.4397
-36.8963
-37.4887
-36.9473
-36.9533
-92.9714
-119.423
-78.3894
-93.0709
-52.8386
-52.2862
-50.1241
-51.8343
-52.7906
-52.1473
-49.9781
-51.707
-54.2039
-48.4181
-48.3778
-45.13
-33.8447
-39.3899
-39.3525
-45.3693
-35.7146
-35.8126
-34.5228
-35.5913
-102.061
112.562
-115.601
103.546
-73.0883
-83.4096
-44.9359
-37.6735
-44.1752
-38.1267
-53.1459
-49.8846
-66.5424
138.088
-68.2966
123.131
-51.2885
-41.3336
-42.3334
-37.2265
-32.4358
-33.7354
-42.6877
-34.5945
-115.926
102.997
-101.27
111.94
-72.4493
-82.6227
-44.1322
-38.0391
-44.8506
-37.5617
-53.1303
-49.7499
-66.3902
123.573
-68.204
137.508
-51.361
-41.566
-32.2505
-33.3874
-42.1687
-37.0232
-42.5231
-34.4477
-47.0101
-50.8031
-36.2157
-36.9287
-49.2977
-37.5812
-48.2952
-39.748
-41.7477
-44.7765
-32.2836
-34.5646
-30.4389
-21.5766
-36.709
-40.479
-52.1919
-9.8829
-50.7306
-47.8243
-50.765
-82.8932
15.8879
-19.0554
-46.0839
-48.7364
-40.5291
-42.7318
-43.2201
-53.6413
-57.776
-53.1815
-47.6488
-51.5456
-48.3802
-39.6585
-36.147
-36.7608
-49.5284
-37.5639
-40.7273
-44.7021
-36.5928
-40.4557
-32.362
-34.5267
-30.5638
-21.3967
-52.0013
-8.38548
14.8518
-18.4837
-51.1876
-47.941
-50.7738
-82.6821
-46.0382
-48.7868
-57.7373
-53.135
-40.5682
-42.6848
-43.2597
-53.591
-71.3304
-58.2202
202.302
173.045
-86.8006
-87.0349
201.281
199.749
-74.6269
-56.8047
-72.1347
-58.102
-52.4007
-48.2758
-36.8391
-36.3363
-49.0031
-49.0053
-37.2422
-37.2284
-55.2053
-55.3181
-44.7654
-54.8646
-43.2891
-43.2496
159.47
158.046
-58.289
-70.5902
-26.2172
-1.14161
-32.0201
-31.9483
-33.328
-33.5594
-46.8591
-47.4781
-47.0253
-35.2097
-70.9382
-58.5632
178.621
203.587
-75.2494
-57.3559
-72.4854
-57.7879
-48.1914
-52.2952
-36.7131
-36.1428
-55.046
-55.2306
-44.7683
-54.8998
-70.657
-57.4298
-1.26173
-26.4145
-47.4219
-46.7075
-35.1319
-46.9616
-35.9692
-34.0709
-36.7528
-36.0428
-59.197
-56.0225
-37.7671
-42.6293
-53.8861
-53.7438
-38.3809
-38.3862
-33.7004
-37.4428
-41.5834
-42.7536
-36.3637
-36.3688
-42.5652
-42.5802
-42.1868
-45.7515
-111.606
-68.6854
15.4304
15.3931
-62.1332
-61.5551
-67.8827
-67.8743
-50.7994
-50.781
-35.9136
-34.0356
-36.8281
-35.7238
-56.4753
-59.0322
-37.7503
-42.6571
-37.4631
-33.7498
-41.8916
-42.5435
-45.7495
-42.1447
-68.8167
-111.453
-108.565
-74.4501
-72.2671
-94.947
-51.943
-47.0194
-58.4707
-55.9683
-54.724
-51.7421
-62.3603
-47.714
-64.3535
-70.7657
-73.3162
-55.7921
-108.872
-95.0803
-72.157
-74.9209
-64.8147
-56.1094
-73.3756
-72.106
-55.1633
-48.0357
-61.8755
-49.637
-51.9931
-56.9307
-58.5858
-47.334
-116.942
-115.63
-74.197
-67.9503
-117.082
-70.0675
-73.98
-115.525
-47.957
-48.664
-59.2262
-55.6952
-48.1443
-55.5756
-59.288
-48.7499
-62.9293
-30.0179
-24.0745
-69.7749
-15.6509
24.7633
3.8166
-14.023
-16.6148
-13.8936
3.69833
24.906
-63.3883
-70.0091
-24.141
-30.4519
104.413
131.087
202.359
155.757
105.245
153.251
180.97
136.53
105.04
135.92
184.552
161.146
101.522
165.767
201.893
131.154
-36.8282
-35.5503
-37.2372
-38.5141
-30.0396
-31.5341
-35.278
-33.4906
-43.0794
-44.9537
-39.0568
-36.3588
-52.809
-43.3838
-41.6067
-48.8647
-36.7728
-38.5436
-37.2197
-35.4936
-53.0164
-48.8759
-41.6046
-43.4752
-43.1003
-36.2674
-39.0758
-44.8985
-30.1754
-33.4149
-35.2822
-31.6394
-38.4887
-40.3302
-37.2997
-35.9227
-38.5693
-35.818
-37.3244
-40.3195
-35.1676
-37.2329
-36.4978
-34.7103
-35.2537
-35.0076
-36.7969
-37.2378
-91.1363
-72.7615
-117.047
-5.25512
-50.7747
-62.2586
-76.6687
-58.0091
-50.6148
-58.0064
-76.7054
-62.2497
-91.8984
-5.09452
-116.371
-72.8011
-19.1825
-54.7806
-54.3835
-25.039
-45.0059
-44.5879
-54.7634
-55.798
-40.7676
-44.4118
-50.0412
-43.3086
-44.6212
-38.2312
-49.8037
-45.9078
-19.3634
-24.8362
-54.1931
-54.8056
-44.5231
-45.8545
-49.7405
-37.8038
-40.6037
-43.1636
-49.979
-44.2935
-44.9584
-55.7522
-54.6764
-44.4671
-42.1905
-40.4617
-45.0595
-43.8507
-41.8468
-43.8609
-45.0259
-40.4684
-46.4783
-43.5953
-54.3351
-52.2368
-46.5124
-52.2205
-54.3074
-43.6199
-48.7345
-47.164
-45.8517
-54.3497
-33.6422
-31.3086
-34.2044
-37.7134
-33.4507
-37.6113
-34.1554
-31.218
-48.6992
-54.3274
-45.8217
-47.0398
-38.4116
-37.6422
-36.1517
-37.3594
-38.3007
-37.2311
-36.0515
-37.6074
-35.533
-30.9627
-35.0876
-36.9648
-35.7885
-37.1349
-35.243
-31.2592
49.8766
0.917715
-133.146
-43.9772
-41.9045
-43.6596
-42.2
-35.5273
-83.9409
-38.0377
-35.6698
-36.4475
0.782465
50.6131
-132.687
-41.7131
-42.6269
-43.5222
-25.0406
-35.6926
-84.8
-35.4234
-38.4228
-36.2451
-43.4644
-38.1902
-40.0214
-41.9862
-21.4607
-29.0558
-26.3004
-32.0464
-66.161
-58.7966
-61.3868
-86.4665
-47.804
-47.3227
-45.3553
-52.141
-42.9851
-40.8421
-37.9966
-39.7868
-22.1145
-32.2409
-29.1451
-26.5274
-66.3332
-84.7981
-58.7695
-61.6897
-47.769
-52.0702
-47.2232
-45.2749
85.8219
71.6694
-104.951
140
-184.353
-183.085
-144.762
36.9582
-60.5309
-57.5943
-63.5496
-60.7239
-41.2189
-41.125
-42.2346
-37.874
-38.873
-38.8562
-41.1899
-37.9889
-50.365
-48.6222
-50.7984
-49.0209
-82.0741
-94.567
-89.8352
89.6708
-47.8772
-48.8139
-57.2455
-31.9806
-29.9052
-29.7719
-30.4879
-29.658
-43.435
-44.9559
-45.0406
-42.7738
78.727
71.3029
-103.135
139.21
-62.8907
-50.6698
-60.5169
-58.088
-41.0801
-40.9661
-42.0884
-37.7177
-50.4643
-48.7377
-50.841
-49.1056
-48.4367
-49.9558
-59.7436
-32.7087
-43.3281
-44.8617
-44.9408
-42.683
-35.8029
-33.6342
-34.532
-34.3344
-40.9821
-42.7435
-43.3065
-40.852
-43.9452
-43.9111
-45.9003
-42.1138
-27.5561
-31.0687
-31.3804
-28.2199
-38.7239
-38.7213
-38.0062
-39.592
-52.8632
-49.8248
-48.7997
-56.7222
20.3112
20.3034
26.5749
9.49151
-58.5222
-58.5159
-60.8574
-56.6367
-35.5519
-33.414
-34.4007
-33.8881
-41.089
-42.8598
-43.4893
-40.9402
-27.6638
-31.2034
-31.4997
-28.2428
-52.89
-49.7687
-48.7649
-56.6885
-69.1228
-64.6341
-65.3003
-61.9751
-69.1237
-64.5557
-65.321
-61.7887
-70.6738
-66.8737
-67.1523
-63.0897
-13.5492
-6.88341
-6.9337
-1.01526
198.67
199.834
198.916
198.513
-37.1447
-38.6188
-37.5616
-39.1674
-37.1183
-38.6108
-37.5572
-39.1615
-37.01
-37.1952
-37.2041
-37.0346
-93.8275
-107.191
-84.7285
-93.8743
-52.1136
-52.1012
-50.9028
-51.6954
-52.0129
-51.9411
-50.7525
-51.5689
-50.46
-48.3587
-48.3385
-46.6211
-36.0133
-39.0856
-39.0751
-42.7459
-35.3449
-35.519
-35.0837
-35.2736
78.6506
53.1191
-141.166
131.816
-131.354
-180.953
-153.534
10.7605
-92.1306
-74.0661
-75.5522
-80.8943
-43.2186
-41.6943
-42.5225
-38.5905
-40.1263
-39.7376
-42.1278
-38.7659
-47.528
-63.3795
-53.5688
-50.7777
-24.6033
15.0431
-89.4795
122.485
-34.3996
-29.214
-83.2819
60.0555
-47.1254
-46.2099
-52.624
-41.6567
-39.9024
-40.6064
-41.1377
-37.8076
-33.598
-31.4323
-32.5908
-32.6476
-39.0846
-40.6358
-41.4003
-37.3657
-136.218
-181.292
-153.422
9.47329
80.273
45.3081
-140.118
133.568
-92.0046
-73.702
-74.9036
-79.9231
-40.0387
-39.6838
-42.061
-38.6667
-42.7836
-41.5806
-42.4895
-38.4898
-47.4615
-63.5545
-53.6099
-50.6745
-30.9445
-36.7513
-85.8994
46.9688
-17.2732
13.5782
-86.5031
123.659
-47.8039
-46.6536
-52.4386
-41.9349
-33.2772
-31.1119
-32.3625
-32.2903
-39.7221
-40.4133
-40.9649
-37.6231
-38.8549
-40.5523
-41.2003
-37.2034
-52.6199
-51.186
-48.3953
-50.5404
-36.4339
-35.313
-35.9575
-35.9664
-40.0178
-40.2396
-43.2198
-38.5011
-43.2063
-43.6881
-44.9268
-41.6077
-48.2147
-47.8885
-41.9061
-48.3693
-32.0062
-32.2076
-32.1583
-33.0633
-25.9139
-26.9114
-28.6443
-24.6417
-37.8742
-38.5414
-37.4446
-39.4228
-54.5392
-43.8924
-51.9472
-25.2922
-51.5214
-46.1334
-48.995
-48.294
-58.6355
-55.9525
-53.4656
-66.1993
-10
15.9535
14.4519
-3.63728
-46.5106
-45.5396
-46.6537
-46.2689
-42.4327
-37.918
-40.9274
-41.8842
-45.5662
-47.2632
-45.1448
-49.7597
-53.3191
-57.1357
-57.449
-55.0117
-55.2323
-54.527
-49.9422
-51.7195
-42.5594
-43.478
-44.971
-41.2654
-36.3004
-35.1879
-35.8504
-35.8989
-40.0848
-40.3046
-43.3829
-38.5109
-45.8604
-48.2764
-41.5861
-48.5127
-37.71
-38.5118
-37.3292
-39.3871
-32.1954
-32.201
-32.2377
-33.0522
-26.1639
-27.0298
-28.7908
-24.643
-54.6621
-40.6012
-50.594
-24.3509
-9.40852
16.086
14.5139
-3.34421
-51.7068
-46.3244
-49.2958
-48.4488
-58.7046
-55.92
-53.4514
-66.1241
-46.4902
-45.4847
-46.6188
-46.2118
-53.6843
-57.109
-57.4413
-54.9749
-42.3583
-37.9731
-41.0409
-41.8198
-45.528
-47.2129
-45.1049
-49.6989
-68.508
-72.8539
-68.7046
-62.528
179.372
204.705
203.426
187.258
-100.476
-80.5289
-87.4808
-87.8473
200.607
200.814
200.719
200.614
-63.471
-64.6679
-68.207
-60.5509
-63.5109
-65.9547
-68.6853
-61.3048
-47.4497
-54.1291
-52.2389
-50.954
-36.93
-36.0879
-36.6445
-36.4125
-46.0294
-52.7374
-48.7605
-48.7628
-38.113
-35.8935
-36.8874
-36.8335
-51.4049
-52.1769
-53.0812
-54.3703
-48.6609
-48.4162
-46.373
-50.8988
-53.913
-33.3209
-43.0066
-43.0002
174.537
185.712
168.286
167.663
-59.2488
-65.5903
-58.3119
-64.9543
-14.6165
-9.0023
-18.6143
-6.64768
-31.0937
-32.5603
-31.7715
-31.732
-31.256
-33.5983
-32.71
-32.8432
-46.6474
-48.9564
-47.1658
-47.7023
-42.4487
-40.5006
-45.8111
-37.5662
-68.8446
-72.6985
-68.5343
-62.6046
180.636
200.698
191.058
205.058
-63.0574
-64.5856
-68.0156
-60.5334
-63.3653
-65.6234
-68.5319
-60.9377
-47.3387
-53.9269
-50.8428
-52.122
-36.7762
-35.9401
-36.5001
-36.236
-51.3654
-52.0542
-52.9701
-54.3111
-48.71
-48.4053
-46.3855
-50.9074
-59.7504
-65.4604
-65.6211
-57.6813
-14.756
-9.09946
-6.71585
-18.8368
-46.5499
-48.8407
-47.6096
-47.0268
-42.4149
-40.3934
-37.4977
-45.7573
-34.8344
-35.7419
-35.5936
-34.6295
-35.9518
-36.7119
-36.4684
-36.6942
-51.0604
-60.6429
-58.6343
-56.6013
-40.0342
-39.4498
-38.6838
-41.1107
-51.9009
-56.6647
-54.0144
-53.962
-39.4282
-37.9461
-38.5107
-38.4365
-34.4279
-36.1162
-34.4004
-36.2755
-36.2641
-47.9709
-41.8954
-40.7994
-36.8957
-36.484
-36.5042
-36.5152
-41.538
-43.7932
-42.5997
-42.6077
-44.9712
-42.0226
-43.0085
-44.8136
-73.1502
-90.4922
-97.2681
-74.4872
23.4558
10.5135
16.93
16.853
-32.4488
-108.745
-65.2652
-65.0161
-66.1078
-73.4003
-69.1008
-69.0821
-53.1251
-48.3176
-50.8386
-50.8274
-34.7467
-35.6996
-35.5245
-34.5682
-35.9479
-36.7315
-36.5233
-36.5999
-51.529
-60.271
-56.8823
-59.0626
-40.068
-39.4658
-38.6886
-41.1379
-34.4798
-36.1397
-36.3167
-34.4415
-36.2639
-47.6978
-41.8921
-40.575
-44.9545
-42.0551
-44.8472
-42.9949
-73.1501
-90.6503
-74.482
-97.4673
-84.0044
-71.6303
-73.015
-75.6231
-49.5362
-57.4957
-54.4627
-57.853
-52.2744
-54.1985
-58.1386
-56.3109
-54.9408
-47.6153
-54.0944
-62.0288
-83.6199
-71.422
-72.4332
-75.506
-55.4986
-47.4603
-54.2328
-62.0274
-52.327
-54.8998
-58.258
-56.7243
-49.4901
-58.3569
-55.1381
-57.7212
-98.0822
-84.9351
-85.9883
-77.6191
-98.59
-84.6295
-86.5454
-79.0394
-52.8285
-51.7595
-55.1914
-53.7013
-52.4579
-51.4063
-55.3728
-53.5204
-52.4092
-42.0102
-43.4876
-35.1221
1.64327
12.2395
4.0496
13.689
2.51717
14.6147
3.68054
12.615
-52.4879
-42.1142
-43.4085
-35.2779
150.882
151.81
193.156
197.379
140.551
144.213
140.516
149.611
142.192
140.236
153.702
143.578
152.356
152.023
197.412
194.29
-36.3981
-37.0264
-36.2808
-37.0874
-32.3621
-31.7314
-33.4469
-33.0763
-38.1383
-41.676
-39.047
-41.5616
-47.4392
-48.8293
-44.3986
-46.443
-36.3454
-36.9938
-36.2336
-37.0666
-47.5363
-48.8835
-44.4382
-46.3982
-38.2561
-41.7489
-39.0595
-41.4465
-32.4311
-31.825
-33.4654
-33.1356
-37.4568
-38.6343
-37.2051
-38.1715
-38.5367
-37.3533
-38.1168
-37.0241
-36.0531
-35.1303
-36.1125
-35.1806
-35.1637
-36.1306
-35.4856
-36.1558
-97.4175
-36.7036
-94.6136
-60.9828
-57.5965
-59.7468
-65.0688
-65.7617
-59.7272
-57.6024
-65.7643
-65.0361
-36.2689
-97.2614
-59.9001
-93.848
-42.9632
-27.9941
-50.8664
-43.0269
-48.1409
-54.04
-52.631
-57.6676
-43.7138
-43.923
-45.1317
-45.843
-45.7519
-44.0435
-47.6708
-46.0591
-42.6181
-27.3067
-50.6152
-42.7918
-45.6656
-43.9563
-47.615
-45.891
-43.5517
-43.7778
-44.9832
-45.6916
-48.1007
-54.0252
-52.5412
-57.5528
-42.3212
-41.5538
-43.4762
-42.5306
-42.2226
-41.5359
-43.4731
-42.5343
-46.6626
-50.3611
-49.3399
-54.1762
-46.6857
-50.4234
-49.3413
-54.1451
-50.1239
-51.9146
-48.4436
-50.6358
-32.4863
-33.5476
-32.3973
-33.8566
-32.3328
-33.4131
-32.3028
-33.753
-50.1054
-51.8897
-48.4044
-50.6127
-37.4914
-37.7387
-37.0583
-36.8726
-37.6567
-37.3877
-36.7822
-36.9475
-34.4193
-36.2791
-34.2046
-35.838
-36.5122
-34.7427
-36.0689
-34.4942
-132.028
129.895
-169.477
50.8239
-113.043
-115.927
-43.0497
-39.4268
-44.935
-39.1639
-45.0419
-47.6444
-89.1223
89.2477
-84.1526
47.3454
-64.6675
-62.3909
-40.6087
-36.8633
-33.825
-34.9885
-39.1114
-35.3376
-169.808
49.2997
-127.559
129.517
-113.57
-116.076
-44.8674
-39.0541
-43.0156
-39.2265
-44.9965
-47.5906
-84.1814
48.9045
-88.2868
92.5109
-65.2981
-63.5429
-33.6317
-34.696
-40.3991
-36.6089
-38.9508
-35.1265
-54.1504
-47.5417
-36.4861
-37.5158
-43.4253
-37.9598
-44.1633
-40.6092
-24.8138
-44.125
-30.1964
-32.9538
-28.2121
-21.8176
-35.9824
-39.3001
-57.4753
-47.8052
-54.7069
-54.0369
-55.5093
-72.715
-28.352
-75.8553
-45.9308
-47.2445
-43.2535
-45.1768
-44.1614
-47.806
-53.6511
-50.3018
-54.224
-48.057
-43.8687
-39.8859
-36.365
-37.6391
-43.479
-37.9112
-24.6347
-42.9712
-35.8101
-39.0341
-30.4653
-33.2576
-28.3739
-21.9206
-57.8352
-45.9962
-27.4282
-74.1156
-54.89
-54.2503
-55.8018
-74.0629
-45.8526
-47.2174
-53.491
-50.4372
-43.1452
-45.0959
-44.1388
-47.702
-123.46
135.88
-90.5469
144.592
-90.7267
-77.9161
140.291
136.956
-146.673
54.1013
-146.191
57.354
-116.181
-116.023
159.551
159.406
-72.505
-65.2352
-55.0646
-54.1466
-66.6971
-60.0069
-65.8086
-58.3402
-42.2684
-38.0568
-41.5968
-37.6796
-44.588
-44.3903
-37.2693
-37.166
-41.4293
-38.1154
-41.3918
-38.0745
-43.466
-43.4797
-37.5198
-37.4894
-57.1292
-52.4763
-53.5972
-44.6861
-52.3938
-54.4708
-44.5103
-52.2082
-89.2853
100.663
-90.4187
109.379
-72.492
-72.8837
173.496
180.275
-55.5852
-34.461
-49.9614
-26.9097
-54.2301
-55.5587
-25.177
-17.0894
-31.2022
-30.5327
-31.0376
-30.3066
-30.9728
-30.8907
-30.3527
-30.5199
-43.3381
-39.8488
-45.5345
-45.011
-45.1619
-46.1238
-46.8755
-40.6873
-122.929
138.253
-86.3826
145.132
-91.0524
-78.8964
135.8
139.642
-73.5654
-68.9525
-56.0439
-55.0706
-66.7641
-59.9944
-67.3168
-57.9116
-42.1281
-37.9237
-41.4072
-37.5122
-44.2407
-44.4726
-37.1326
-37.0084
-57.1729
-52.5626
-53.7479
-44.759
-52.3606
-54.422
-44.5189
-52.2839
-55.7122
-35.0344
-48.2434
-26.8197
-55.8294
-53.7966
-17.2446
-25.4229
-43.2568
-39.7226
-45.483
-44.938
-46.0262
-45.0546
-40.6928
-46.7768
-35.4075
-35.2437
-33.2962
-33.6652
-35.2149
-33.9714
-35.6545
-35.8351
-42.799
-39.247
-45.3489
-43.7704
-46.212
-46.6631
-39.3277
-41.7456
-45.689
-41.9726
-45.6522
-41.8751
-48.8625
-48.8702
-40.4345
-40.5082
-29.5977
-24.8893
-35.169
-35.7105
-32.2742
-34.6639
-28.3054
-33.3286
-37.8704
-39.5254
-37.8771
-39.5227
-37.3537
-37.3525
-40.5024
-40.5055
-51.3223
-61.5888
-46.8445
-52.7748
-45.7802
-47.6327
-67.8908
-60.7642
24.2507
7.78064
24.2596
7.92893
26.3714
26.2212
-5.1849
-5.10212
-60.0927
-56.1254
-60.0805
-56.1067
-63.0595
-63.0572
-54.6384
-54.6261
-35.413
-34.9927
-33.1209
-32.7877
-35.1215
-33.8208
-35.4957
-35.5175
-42.9595
-39.2794
-45.6048
-43.8835
-46.9178
-46.4335
-39.3625
-41.8244
-29.7173
-24.8801
-35.2177
-35.6566
-34.6736
-32.3693
-28.1257
-33.2431
-51.2834
-61.6048
-46.7514
-52.7191
-47.6391
-45.6874
-60.7719
-67.972
-71.9376
-72.6889
-67.8659
-61.2481
-62.6542
-70.2445
-59.2415
-61.2563
-71.9427
-72.9903
-67.8269
-61.321
-70.3394
-62.3302
-60.9325
-59.2167
-74.5341
-74.4321
-70.2503
-62.8377
-70.0023
-62.5125
-59.6005
-59.4793
-23.4576
-23.5168
-14.8539
-2.48559
-2.57095
-14.97
4.793
4.732
203.068
201.473
200.422
200.269
198.933
198.394
199.016
203.686
-36.8613
-35.9033
-38.0802
-40.2919