# vtk DataFile Version 2.0
tet_velo
ASCII
DATASET UNSTRUCTURED_GRID
POINTS 29498 float
-0.670066 0.205 -1.885
-0.555 0.135 2.04528
-0.675 0.672353 -1.715
-0.550489 0.875 1.985
0.674149 0.205 -1.885
0.55632 0.135 2.045
0.685 0.666705 -1.715
0.555 0.87686 1.985
-0.695951 0.117426 -0.574907
-0.645709 0.10598 0.735187
-0.724314 0.83072 -0.481667
-0.703438 0.918897 0.751667
0.699233 0.117307 -0.575
0.647952 0.105977 0.735
0.731305 0.826395 -0.481667
0.708513 0.916988 0.751667
-1.36655 -0.166132 -2.94372
-1.36955 -0.144056 -1.9264
-1.37429 -0.211739 -0.614328
-1.3118 -0.255711 0.713195
-1.22345 -0.250685 2.02657
-1.20793 -0.239035 3.05026
-1.22024 -0.226615 4.06215
-1.36651 0.139241 -2.8863
-1.37219 0.18827 -1.87736
-1.38623 0.145264 -0.580216
-1.3061 0.122014 0.723848
-1.18567 0.124956 2.02247
-1.18263 0.135714 3.04508
-1.20699 0.147446 4.05947
-1.36796 0.697358 -2.74993
-1.3797 0.743627 -1.73783
-1.40968 0.847964 -0.493005
-1.34571 0.90628 0.746386
-1.19668 0.883385 1.99268
-1.18931 0.889882 3.01851
-1.2132 0.901564 4.04531
-1.36274 1.67754 -2.60303
-1.37006 1.7471 -1.60242
-1.37985 1.88515 -0.38248
-1.36676 1.99818 0.820928
-1.32466 2.03376 2.04168
-1.29439 2.03732 3.044
-1.28108 2.04081 4.06242
-0.67896 -0.158053 -2.94868
-0.675846 -0.131489 -1.93364
-0.691059 -0.225043 -0.613393
-0.662917 -0.268337 0.722841
-0.60766 -0.249482 2.04346
-0.594517 -0.239049 3.0617
-0.601381 -0.228375 4.06876
-0.677558 0.138677 -2.88783
-0.572604 0.136808 3.05452
-0.590855 0.145982 4.06445
-0.676742 0.66683 -2.74045
-0.575879 0.887197 3.01696
-0.595547 0.899681 4.04495
-0.670757 1.65406 -2.59366
-0.675238 1.72375 -1.5921
-0.690422 1.87669 -0.376266
-0.700209 2.00296 0.82016
-0.6842 2.03771 2.03632
-0.661267 2.03863 3.03864
-0.64814 2.04105 4.05851
0.685505 -0.159295 -2.9487
0.686078 -0.131918 -1.93367
0.685125 -0.225359 -0.613481
0.633866 -0.268477 0.722678
0.574728 -0.24949 2.04324
0.594903 -0.238928 3.06153
0.616204 -0.228316 4.06863
0.684235 0.13704 -2.88785
0.5916 0.137136 3.05435
0.615746 0.146161 4.06432
0.692045 0.663404 -2.74046
0.590714 0.887988 3.01688
0.614021 0.899966 4.04485
0.711599 1.65108 -2.59368
0.714078 1.72065 -1.59212
0.699809 1.87409 -0.376289
0.652555 2.00143 0.82013
0.605056 2.03718 2.03628
0.601723 2.03842 3.03859
0.612138 2.04085 4.05845
1.37113 -0.168993 -2.94377
1.37333 -0.146053 -1.92646
1.37133 -0.213202 -0.614477
1.30147 -0.256352 0.712934
1.21499 -0.250652 2.02623
1.21479 -0.238889 3.04996
1.23657 -0.226618 4.0619
1.37155 0.135653 -2.88633
1.37375 0.185552 -1.8774
1.38974 0.143201 -0.580342
1.31583 0.121321 0.723607
1.20036 0.125456 2.02214
1.20485 0.136211 3.0448
1.23214 0.147639 4.05924
1.38181 0.69145 -2.74995
1.38864 0.736782 -1.73784
1.41859 0.842562 -0.493051
1.35722 0.904061 0.746297
1.20996 0.884537 1.99256
1.20669 0.890813 3.01834
1.23217 0.901884 4.04513
1.40008 1.67196 -2.60308
1.40335 1.74139 -1.60246
1.38863 1.88038 -0.382533
1.33194 1.99525 0.820858
1.26505 2.03255 2.04159
1.24636 2.03671 3.04389
1.25038 2.04027 4.06229
-0.689335 0.438677 -1.8168
0.00204149 0.141108 -1.94889
-0.744829 0.0993925 -1.22995
-0.573828 0.505 2.03622
0.000660002 0.207819 1.97232
-0.599438 0.121407 1.39023
0.005 0.747164 -1.79264
-0.744851 0.79673 -1.09833
0.0022555 0.884813 1.99388
-0.658102 0.928087 1.36833
0.696368 0.435853 -1.81679
0.748113 0.0997313 -1.23
0.577836 0.50593 2.03718
0.600949 0.121676 1.39
0.754582 0.79298 -1.09833
0.662847 0.928015 1.36833
-0.673256 0.109277 0.08014
-0.748217 0.474073 -0.528287
0.00164064 0.101046 -0.574953
-0.750779 0.512438 0.743427
0.00112191 0.104285 0.735093
-0.719255 0.880187 0.135
0.00349543 1.11162 -0.481667
0.00253747 1.19978 0.751667
0.675974 0.109261 0.08
0.751989 0.471851 -0.528333
0.754803 0.511483 0.743333
0.724861 0.876644 0.135
-0.895441 0.456375 -1.16414
-0.749486 0.493256 0.10757
-0.85586 0.508719 1.37928
0.00184106 0.0937699 -1.22998
0.00138128 0.108321 0.08007
0.000890957 0.119399 1.39012
0.00352074 0.437265 -2.04492
0.00145775 0.505465 2.12718
0.00424771 0.898752 -1.09833
0.00301645 1.2205 0.135
0.00239648 1.02455 1.36833
0.895473 0.453852 -1.16417
0.753559 0.491667 0.1075
0.855873 0.508706 1.37917
-1.02113 0.196635 -1.88118
-0.672956 0.0367556 -1.90932
-0.673812 0.171839 -2.38642
-0.870335 0.129978 2.03387
-0.58133 -0.0572411 2.04437
-0.563802 0.135904 2.5499
-1.02735 0.70799 -1.72641
-0.675871 0.669591 -2.22772
-0.675119 1.19805 -1.65355
-0.873583 0.879193 1.98884
-0.563184 0.881099 2.50098
-0.617344 1.45635 2.01066
0.680113 0.036541 -1.90933
0.679192 0.17102 -2.38642
1.02395 0.195276 -1.8812
0.565524 -0.057245 2.04412
0.57396 0.136068 2.54968
0.87834 0.130228 2.03357
0.688522 0.665054 -2.22773
0.699539 1.19368 -1.65356
1.03682 0.701744 -1.72642
0.572857 0.882424 2.50094
0.580028 1.45702 2.01064
0.882481 0.880699 1.98878
-1.04109 0.131345 -0.577561
-0.693505 -0.0538082 -0.59415
-0.975904 0.113997 0.729517
-0.654313 -0.0811785 0.729014
-1.067 0.839342 -0.487336
-0.707368 1.3537 -0.428966
-1.02457 0.912589 0.749026
-0.701824 1.46093 0.785913
0.692179 -0.0540259 -0.594241
1.04449 0.130254 -0.577671
0.640909 -0.0812498 0.728839
0.98189 0.113649 0.729304
0.715557 1.35025 -0.428978
1.07495 0.834479 -0.487359
0.680534 1.45921 0.785898
1.03287 0.910525 0.748982
-1.36805 -0.155094 -2.43506
-1.36653 -0.0134455 -2.91501
-1.02276 -0.162092 -2.9462
-1.37192 -0.177897 -1.27036
-1.37087 0.0221068 -1.90188
-1.0227 -0.137772 -1.93002
-1.34305 -0.233725 0.0494336
-1.38026 -0.0332373 -0.597272
-1.03268 -0.218391 -0.61386
-1.26763 -0.253198 1.36988
-1.30895 -0.0668487 0.718521
-0.987358 -0.262024 0.718018
-1.21569 -0.24486 2.53841
-1.20456 -0.0628644 2.02452
-0.915557 -0.250084 2.03501
-1.21409 -0.232825 3.55621
-1.19528 -0.0516609 3.04767
-0.901223 -0.239042 3.05598
-1.21362 -0.0395845 4.06081
-0.910811 -0.227495 4.06545
-1.36935 0.163755 -2.38183
-1.36723 0.4183 -2.81811
-1.02204 0.138959 -2.88707
-1.37921 0.166767 -1.22879
-1.37595 0.465948 -1.80759
-1.34616 0.133639 0.071816
-1.39796 0.496614 -0.53661
-1.24588 0.123485 1.37316
-1.3259 0.514147 0.735117
-1.18415 0.130335 2.53377
-1.19117 0.504171 2.00757
-1.19481 0.14158 3.55228
-1.18597 0.512798 3.0318
-0.877616 0.136261 3.0498
-1.2101 0.524505 4.05239
-0.898922 0.146714 4.06196
-1.37383 0.720493 -2.24388
-1.36535 1.18745 -2.67648
-1.02235 0.682094 -2.74519
-1.39469 0.795795 -1.11542
-1.37488 1.24536 -1.67012
-1.37769 0.877122 0.12669
-1.39477 1.36656 -0.437742
-1.27119 0.894833 1.36953
-1.35623 1.45223 0.783657
-1.19299 0.886634 2.5056
-1.26067 1.45857 2.01718
-1.20126 0.895723 3.53191
-1.24185 1.4636 3.03126
-0.882595 0.88854 3.01774
-1.24714 1.47119 4.05387
-0.904374 0.900623 4.04513
-1.3664 1.71232 -2.10272
-1.01675 1.6658 -2.59835
-1.37496 1.81612 -0.992449
-1.02265 1.73543 -1.59726
-1.37331 1.94167 0.219224
-1.03514 1.88092 -0.379373
-1.34571 2.01597 1.4313
-1.03348 2.00057 0.820544
-1.30953 2.03554 2.54284
-1.00443 2.03574 2.039
-1.28774 2.03906 3.55321
-0.97783 2.03797 3.04132
-0.964612 2.04093 4.06047
-0.677403 -0.144771 -2.44116
-0.678259 -0.00968766 -2.91826
0.00327263 -0.158674 -2.94869
-0.683453 -0.178266 -1.27352
0.00511565 -0.131703 -1.93365
-0.676988 -0.24669 0.0547237
-0.00296714 -0.225201 -0.613437
-0.635289 -0.25891 1.38315
-0.0145255 -0.268407 0.722759
-0.601088 -0.244265 2.55258
-0.0164661 -0.249486 2.04335
-0.597949 -0.233712 3.56523
-0.583561 -0.0511206 3.05811
0.000192972 -0.238988 3.06162
-0.596118 -0.0411963 4.0666
0.00741131 -0.228346 4.06869
-0.67715 0.402754 -2.81414
0.00333873 0.137859 -2.88784
-0.581729 0.141395 3.55948
-0.574242 0.512002 3.03574
0.00949807 0.136972 3.05444
-0.593201 0.522832 4.0547
0.0124459 0.146072 4.06438
-0.673749 1.16044 -2.66706
0.00765153 0.665117 -2.74045
-0.585713 0.893439 3.53095
-0.618573 1.46291 3.0278
0.00741728 0.887593 3.01692
-0.621844 1.47037 4.05173
0.00923701 0.899824 4.0449
-0.672998 1.68891 -2.09288
0.020421 1.65257 -2.59367
-0.68283 1.80022 -0.984181
0.0194199 1.7222 -1.59211
-0.695315 1.93982 0.221947
0.00469341 1.87539 -0.376277
-0.692204 2.02033 1.42824
-0.0238267 2.00219 0.820145
-0.672733 2.03817 2.53748
-0.0395721 2.03744 2.0363
-0.654704 2.03984 3.54858
-0.029772 2.03852 3.03861
-0.0180013 2.04095 4.05848
0.685792 -0.145607 -2.44119
0.68487 -0.0111276 -2.91827
1.02832 -0.164144 -2.94624
0.685601 -0.178638 -1.27357
1.0297 -0.138985 -1.93007
0.659496 -0.246918 0.0545982
1.02823 -0.21928 -0.613979
0.604297 -0.258984 1.38296
0.967667 -0.262414 0.717806
0.584815 -0.244209 2.55239
0.894857 -0.250071 2.03474
0.605554 -0.233622 3.56508
0.593252 -0.0508959 3.05794
0.904848 -0.238908 3.05575
0.615975 -0.0410778 4.06647
0.926387 -0.227467 4.06526
0.68814 0.400222 -2.81415
1.02789 0.136347 -2.88709
0.603673 0.141648 3.55934
0.591157 0.512562 3.03562
0.898226 0.136673 3.04958
0.614884 0.523063 4.05459
0.923944 0.1469 4.06178
0.701822 1.15724 -2.66707
1.03693 0.677427 -2.7452
0.602367 0.893977 3.53087
0.596219 1.4632 3.02773
0.898704 0.889401 3.01761
0.613079 1.47041 4.05165
0.923097 0.900925 4.04499
0.712839 1.68587 -2.0929
1.05584 1.66152 -2.59838
0.706943 1.79737 -0.984202
1.05871 1.73102 -1.59729
0.676182 1.93776 0.22192
1.04422 1.87724 -0.379411
0.628805 2.0193 1.4282
0.992249 1.99834 0.820494
0.603389 2.0378 2.53743
0.935053 2.03486 2.03893
0.60693 2.03963 3.54852
0.924042 2.03756 3.04124
0.93126 2.04056 4.06037
1.37223 -0.157523 -2.43512
1.37134 -0.01667 -2.91505
1.37233 -0.179627 -1.27047
1.37354 0.0197495 -1.90193
1.3364 -0.234777 0.0492285
1.38054 -0.0350006 -0.597409
1.25823 -0.253502 1.36958
1.30865 -0.0675156 0.718271
1.21489 -0.24477 2.5381
1.20767 -0.0625978 2.02419
1.22568 -0.232754 3.55593
1.20982 -0.0513391 3.04738
1.23436 -0.0394895 4.06057
1.37265 0.160602 -2.38187
1.37668 0.413552 -2.81814
1.38175 0.164376 -1.22887
1.3812 0.461167 -1.80762
1.35279 0.132261 0.0716328
1.40417 0.492881 -0.536696
1.25809 0.123388 1.37287
1.33652 0.512691 0.734952
1.20261 0.130833 2.53347
1.20516 0.504997 2.00735
1.2185 0.141925 3.55202
1.20577 0.513512 3.03157
1.23216 0.524762 4.05218
1.38522 0.714116 -2.2439
1.39094 1.18171 -2.67651
[...]
POINT_DATA 29498
VECTORS point_vectors float
-0.902931 -1.81692 3.90732
-0.18408 0.43768 2.40807
-1.05866 0.958697 2.01032
-0.0312531 -0.0296972 0.137502
0.904385 -1.7738 3.76809
0.219982 0.482381 2.57673
1.40146 1.37349 2.96231
0.0397288 -0.0576335 0.165653
-0.0519554 0.014532 0.268269
0.0519482 -0.00884125 0.320933
0 0 0
0.0212624 0.0381296 0.0750635
0.0332349 0.008468 0.183298
-0.0447368 -0.00694071 0.294823
0 0 0
-0.0215784 0.0385202 0.075191
-0.638714 -0.307975 19.7422
-1.47548 -0.948011 20.3292
-0.356431 -0.332049 21.4306
0.0309127 -0.0702762 21.36
0.541873 0.425013 21.3383
0.748637 0.60032 20.8967
0.696751 0.538827 21.05
-0.822322 -0.204278 19.5923
-2.2072 -0.705417 20.2495
-0.386135 -0.420315 21.5531
0.00886012 -0.215524 21.3745
1.04349 0.403254 20.8742
1.19874 0.541416 20.7253
0.895248 0.396973 20.7921
-0.957588 0.178334 19.5385
-2.39155 0.448696 20.355
-1.02279 -0.321287 21.4986
-0.318277 -0.234134 21.5624
0.803141 -0.52551 21.0995
1.14693 -0.619312 20.6492
0.931092 -0.471128 20.411
-0.59781 0.506662 19.9492
-0.889782 0.739842 20.4771
-0.698557 0.454793 21.1378
-0.193342 0.0382111 21.3495
0.122269 -0.317766 21.1863
0.279913 -0.39841 20.9569
0.268021 -0.366376 20.5471
-0.601942 -0.629737 19.1534
-1.88799 -3.73769 20.2291
-0.359941 -0.163095 21.9077
-0.038893 -0.00317977 21.3588
0.142191 0.903782 20.8215
0.421341 1.14033 20.2195
0.341816 1.15674 19.3873
-0.811971 -0.492449 18.7259
0.313867 1.42195 10.6786
0.947747 1.48204 14.0701
-1.15094 0.405228 18.2319
0.908184 -0.33411 5.86691
1.53826 -0.601738 10.8013
-0.50881 0.977634 19.5542
-0.862041 1.67848 20.2996
-0.811457 1.22477 21.3606
-0.145292 0.141967 21.6059
0.130482 -0.414922 21.2858
0.203545 -0.649692 20.9524
0.201031 -0.473149 20.7626
0.602203 -0.628044 19.1633
1.90532 -3.68498 20.2317
0.363297 -0.173652 21.9082
0.0555465 0.0040914 21.3207
-0.107975 0.901621 20.7874
-0.452266 1.13229 20.1651
-0.357215 1.13546 19.5387
0.817768 -0.480769 18.7484
-0.42722 1.48486 11.2281
-0.985017 1.43964 14.4135
1.14239 0.388213 18.2669
-0.992121 -0.406654 6.43316
-1.53619 -0.624253 11.2824
0.536113 0.952017 19.5759
0.900009 1.63352 20.313
0.819373 1.21807 21.3613
0.151873 0.151814 21.6193
-0.101044 -0.43038 21.3055
-0.168248 -0.676675 20.9142
-0.205629 -0.488937 20.8076
0.640785 -0.309532 19.7438
1.46029 -0.93531 20.3354
0.357369 -0.333942 21.4306
-0.0240499 -0.0689064 21.3695
-0.549122 0.451087 21.3544
-0.767807 0.577292 20.8867
-0.68606 0.534525 21.0769
0.817778 -0.206471 19.5983
2.1963 -0.711328 20.2573
0.392176 -0.422476 21.5515
-0.0123162 -0.217127 21.4381
-1.03579 0.393748 20.9572
-1.19932 0.512175 20.7434
-0.876216 0.377297 20.7338
0.957458 0.163437 19.5533
2.37593 0.41904 20.3672
1.01783 -0.322181 21.4935
0.307803 -0.233826 21.596
-0.817884 -0.527757 21.173
-1.16728 -0.618303 20.6909
-0.911904 -0.474983 20.4016
0.590378 0.487381 19.9597
0.884702 0.71534 20.4774
0.700025 0.451318 21.1406
0.199556 0.0411426 21.3587
-0.112564 -0.343357 21.1763
-0.271909 -0.424463 20.9422
-0.258627 -0.367581 20.5302
-0.983532 0.0776221 1.05355
0.000240274 -0.0976361 0.305067
-0.0295364 0.00212455 0.270619
-0.0202324 -0.00408962 -0.0306966
0.000214301 0.000315654 0.000890692
-0.00394885 0.00618675 0.20959
-0.00043322 0.230913 0.534253
-0.204327 -0.0999174 0.559866
0.00322405 0.0315347 -0.0356694
0.00313442 -0.00111099 0.0187629
1.26253 -0.0105001 1.47162
0.0324824 0.00324526 0.304186
0.0282864 -0.0062935 -0.0385299
0.00404309 0.00599117 0.205564
0.334236 -0.174125 0.917079
-0.000145428 -8.05236e-05 0.000944667
-0.0028372 0.0031391 0.153327
7.83357e-20 1.93494e-18 -5.19312e-18
-1.98815e-07 7.33467e-07 0.000184761
0 0 0
3.60078e-06 4.24354e-05 0.0021913
0 0 0
-1.38422e-05 0.0239751 0.0598311
0.000192549 -0.00829346 0.0599684
0.00387467 0.00405996 0.208629
-4.65005e-05 9.85823e-06 6.08043e-05
0 0 0
0 0 0
0 0 0
0 0 0
4.30322e-18 1.56427e-17 1.1597e-16
-1.90673e-07 1.23786e-06 0.000218979
1.29476e-06 8.81114e-06 0.00233641
7.22592e-05 0.000620011 0.031843
0.00110604 0.0088237 0.0047696
0.0048751 0.0536876 -0.0326412
6.45768e-05 0.000598078 0.0031791
-0.000120063 0.0012391 0.035557
5.39509e-05 0.00030842 -0.000839683
0 0 0
-4.05769e-07 3.95775e-05 0.000115949
0 0 0
-4.09863 -2.01473 19.4878
-3.19364 -5.91327 19.9203
-2.33176 -1.59988 17.3255
0.93121 1.31408 13.0942
0.0383602 1.03774 14.8387
-0.313902 0.887976 6.96613
-4.71007 1.58981 19.8306
-3.51383 1.86484 16.382
-2.09348 3.08175 20.1149
1.20853 0.160243 11.8816
0.086818 0.0227554 2.97399
0.364623 -0.791444 20.7771
3.23936 -5.85036 19.9253
2.34049 -1.59121 17.3548
4.07723 -2.01536 19.5231
0.000996882 1.03056 14.6297
0.252703 0.958981 7.20504
-0.979254 1.35326 13.5073
3.53851 1.83466 16.4288
2.14043 2.99396 20.1395
4.65906 1.44134 19.9043
-0.126102 -0.0582369 3.21226
-0.345489 -0.824345 20.6377
-1.25441 0.118044 12.4662
0.463752 0.0148192 18.8938
-0.705966 0.388586 16.1943
-0.0921949 0.123075 16.5588
0.201327 -0.0539801 15.677
-1.56541 -1.08901 20.9524
-2.56162 1.94839 21.6734
-0.361573 0.0483678 18.9289
-0.289108 0.109996 22.0968
0.688979 0.364425 16.1408
-0.435939 0.00186981 19.0326
-0.20072 -0.0373472 15.4678
0.0633568 0.127532 16.8003
2.58083 1.92206 21.6755
1.54442 -1.08593 21.0253
0.260728 0.0964849 21.9579
0.366904 -0.0153718 19.1636
-1.05251 -0.591006 19.8329
-0.742539 -0.271768 19.654
-0.681089 -0.465931 19.4933
-1.04275 -0.808864 21.2944
-1.83757 -0.872636 20.2896
-1.96331 -1.97901 20.1575
-0.0795553 -0.13076 21.3291
-0.346938 -0.356985 21.5
-0.240805 -0.223602 21.6934
0.253183 0.118445 21.4655
0.0512719 -0.121212 21.4069
0.0244972 -0.0123001 21.4398
0.669064 0.522448 21.1778
0.773878 0.456378 21.343
0.467081 0.790722 21.3035
0.803436 0.557987 20.6693
1.03813 0.654589 20.7932
0.686706 0.985625 20.8922
0.762267 0.521928 20.8987
0.707813 0.711198 20.7569
-1.49068 -0.413265 19.6213
-0.912034 -0.063668 19.5461
-0.917088 -0.323235 19.2194
-1.54316 -0.738728 21.5753
-2.57067 -0.162005 20.2585
-0.0133676 -0.292307 21.4515
-0.621362 -0.530024 21.6541
0.419773 0.0140876 21.466
-0.143491 -0.313416 21.3521
1.184 0.479769 20.7794
1.1436 -0.019057 20.0452
1.23085 0.449723 20.6535
1.54706 0.0210982 19.8613
1.31598 1.28242 15.6708
1.34808 0.121212 20.498
1.32385 0.801518 17.3555
-1.70204 0.325111 19.6316
-0.83575 0.435285 19.7138
-1.18066 0.23552 19.0084
-1.74094 0.0396159 21.4345
-1.53685 0.832805 20.4203
-0.630531 -0.373654 21.5191
-1.08453 0.260457 21.3105
0.206536 -0.293322 21.6639
-0.280689 -0.030181 21.5328
0.98074 -0.549173 20.7679
0.342741 -0.441162 21.3107
1.14391 -0.547374 20.804
0.508091 -0.590155 21.1257
1.44041 -0.301255 14.8413
0.494426 -0.638932 20.4949
1.33088 -0.332859 16.724
-0.786817 0.674013 20.1464
-0.621766 0.722852 19.7396
-0.861962 0.652037 20.8455
-0.997176 1.17524 20.394
-0.451386 0.242407 21.3247
-0.811833 0.775401 21.2589
0.00772214 -0.149922 21.3012
-0.194206 0.0957591 21.4534
0.213657 -0.38802 21.0786
0.145342 -0.365788 21.2512
0.282671 -0.425163 20.8883
0.246516 -0.514912 20.9094
0.179976 -0.393772 20.4103
-1.3054 -1.72319 18.778
-0.703659 -0.58264 18.9553
-0.000203382 -0.836571 18.8101
-0.5734 -1.56858 22.517
0.0162293 -5.1231 20.9856
-0.206809 0.0156596 21.4482
-0.00655229 -0.54779 21.1566
0.0510706 0.405441 21.2012
-0.00700929 -0.10535 20.7313
0.201328 1.00211 20.6642
0.00752105 0.639217 19.8217
0.454962 1.25169 18.897
0.109242 1.4696 16.1925
0.015005 1.01208 18.6039
0.23854 1.62934 17.7321
0.0186677 1.14333 16.7498
-1.05351 -0.143712 18.3454
0.00508797 -0.662398 18.0633
1.08217 1.47248 12.8791
0.518906 0.660431 1.81865
-0.0114593 -0.233708 3.66121
2.58511 0.915261 7.57876
-0.0293023 0.695663 7.8913
-0.877779 1.05663 18.841
0.0174833 0.641193 17.3069
1.65151 -0.598915 9.60202
0.493938 -1.05086 20.6954
-0.0303589 -0.602154 0.847838
0.546943 -0.849929 20.6536
-0.0939563 -2.17942 5.19904
-0.731137 1.47552 19.7938
0.014565 1.2122 19.3468
-0.919942 1.54108 20.8319
0.031349 2.22144 20.1839
-0.476698 0.67784 21.6587
0.0076155 1.87704 21.4586
0.0353915 -0.212999 21.4836
-0.00689874 0.228634 21.7356
0.165904 -0.535397 21.1285
0.0103281 -0.474976 21.3683
0.302328 -0.64506 20.8413
0.0128442 -0.80619 20.7713
0.00101874 -1.00641 20.0006
1.30444 -1.7069 18.7934
0.709179 -0.576805 18.9674
0.672296 -0.456634 19.505
0.584734 -1.56414 22.5156
1.93798 -1.93644 20.1709
0.21266 0.00489488 21.454
0.24276 -0.221178 21.6965
-0.0338852 0.391395 21.164
-0.0126322 0.0047028 21.453
-0.181009 1.02051 20.6142
-0.454519 0.843301 21.2987
-0.450918 1.26029 18.9846
-0.146404 1.47767 16.303
-0.72591 0.967644 20.8609
-0.240794 1.58766 17.9389
-0.712381 0.723937 20.6961
1.05317 -0.144758 18.3739
0.912 -0.328385 19.2261
-1.13126 1.47326 13.2279
-0.714766 0.682639 2.60703
-1.37136 1.2489 16.1868
-2.58659 0.906017 8.52614
-1.26106 0.774348 18.1849
0.867501 0.989406 18.9372
1.18137 0.220537 19.024
-1.68216 -0.662478 10.0237
-0.48056 -1.07751 20.7101
-1.4659 -0.362003 15.4731
-0.533629 -0.848906 20.6706
-1.29699 -0.385937 17.3651
0.770626 1.42734 19.8158
0.62865 0.702153 19.7566
0.945163 1.51115 20.8376
1.00448 1.13777 20.4057
0.47691 0.69006 21.6692
0.822449 0.769955 21.2564
-0.0177898 -0.224816 21.4869
0.197954 0.100044 21.4795
-0.135185 -0.559649 21.1246
-0.142837 -0.386391 21.2583
-0.28877 -0.667871 20.823
-0.242136 -0.550277 20.9348
-0.186496 -0.405094 20.4548
1.05232 -0.589367 19.8364
0.740003 -0.277376 19.6665
1.03787 -0.806212 21.2895
1.82343 -0.870379 20.2973
0.0816593 -0.130555 21.3364
0.349698 -0.361389 21.5013
-0.257379 0.137675 21.4828
-0.0569368 -0.12084 21.4257
-0.672472 0.54628 21.1571
-0.779885 0.465152 21.3619
-0.804068 0.540795 20.6429
-1.04931 0.642863 20.8185
-0.742041 0.487191 20.8546
1.4825 -0.416307 19.6295
0.912132 -0.0704269 19.5522
1.5277 -0.738106 21.5646
2.54345 -0.178245 20.2691
0.0211761 -0.288141 21.454
0.629781 -0.525624 21.6422
-0.419756 0.0138565 21.5353
0.137978 -0.304479 21.4418
-1.17015 0.464126 20.7813
-1.14963 -0.0412897 20.2591
-1.22059 0.436947 20.6771
-1.52372 0.00513897 20.078
-1.32178 0.0867458 20.4794
1.69986 0.304439 19.6444
0.822127 0.420527 19.7322
1.72581 0.0253263 21.4239
1.52504 0.801135 20.4305
0.630721 -0.369401 21.5298
1.07767 0.253172 21.3096
-0.222281 -0.29014 21.7064
0.28086 -0.0305701 21.5501
-0.991883 -0.563537 20.847
-0.352456 -0.46459 21.3225
-1.13548 -0.541804 20.8103
-0.512461 -0.610304 21.1247
-0.509735 -0.64152 20.4906
0.786558 0.650193 20.1438
0.860089 0.635908 20.8612
0.459317 0.249317 21.3327
-0.000151049 -0.158324 21.3207
-0.208627 -0.40645 21.0853
-0.288043 -0.441443 20.8948
-1.31002 -0.560312 19.7324
-1.77438 -1.81461 18.1452
-1.30297 -1.04508 19.3965
-2.00471 -0.837506 18.8265
-0.801831 -0.441659 19.3625
-2.87364 -2.19076 19.8893
-1.29978 -0.820481 21.4667
-0.376886 -0.813773 17.6155
-1.06049 -1.39053 21.8573
-1.8201 -1.63879 22.6028
-0.00954205 -0.0653814 21.468
-0.0157851 -0.173554 21.3703
-0.341273 0.234235 15.826
-0.0573561 0.0131738 21.3966
0.399683 0.366396 17.3734
0.0300708 0.00271118 20.2249
0.361933 0.099406 21.5513
0.169751 0.409737 14.875
0.232573 0.314985 21.5824
0.244449 0.522759 13.778
0.709578 1.09213 19.1768
0.910344 0.545132 20.9915
0.0761059 1.08988 15.3823
0.539856 0.881763 21.0638
1.08908 1.28011 15.3301
0.945865 1.17512 19.6527
1.03215 0.723926 20.7585
0.662179 1.47607 16.5593
0.766302 0.938965 20.8602
1.43731 1.15684 16.249
0.709705 0.932555 20.5305
-1.70655 -0.102046 19.5693
-3.37719 -0.248954 16.1654
-2.63264 0.700545 18.6691
-1.07708 -0.081326 19.0433
-5.40445 -0.252065 19.3321
-1.77163 -0.390219 21.6447
-2.77461 -0.103268 22.3044
0.187815 -0.888495 16.7901
-0.251397 -0.492972 21.5835
-1.05821 -0.830926 20.1215
-0.0466494 0.524442 14.156
0.368472 -0.194477 21.3592
0.844502 0.848822 15.9478
0.66593 0.257358 6.2478
1.29721 -0.0151442 19.8322
-0.320815 0.473851 0.522286
1.25455 -0.0139892 13.781
1.60396 0.527413 12.1236
1.49502 0.161879 19.0708
1.95934 1.07528 5.98568
1.62331 -0.487605 15.6602
1.83801 0.495433 16.9612
-1.24604 0.69196 19.8975
-1.58866 2.20223 18.87
-0.855526 1.04188 19.9728
-0.938342 0.68865 19.3405
-2.0198 1.68538 20.2901
-1.39315 0.562928 21.0304
-2.19877 2.15981 20.9143
-0.978936 1.03532 20.8543
-1.68245 0.620074 21.4962
-0.695789 0.0963848 21.4807
-1.34063 0.913904 22.1978
-0.512837 0.423929 21.4787
-0.33975 0.0492643 21.7878
0.0912718 -0.23187 21.4999
0.258098 -0.511636 21.1771
0.0129642 -0.178033 21.3931
0.332457 -0.614082 21.4313
0.460801 -0.525088 21.1758
0.4266 -0.907295 20.5923
0.198156 -0.463519 21.1185
0.533359 -0.827305 20.9366
0.530029 -0.624539 20.8561
0.418737 -1.09081 20.5491
0.331348 -0.516996 20.9371
0.552166 -0.792386 19.9936
1.778 -1.80253 18.1692
0.0065493 -2.70035 18.0343
0.00982177 -2.8926 15.0626
0.00332413 -0.846224 18.4509
0.0221372 -7.09067 21.2821
0.372113 -0.812221 17.5943
0.00170193 -1.51469 21.7382
-0.00537459 -0.134823 12.4713
0.323628 0.213037 15.6826
-0.00731208 -0.27086 20.8238
0.0103358 -0.025482 12.4158
-0.156722 0.406594 14.7529
0.00661979 0.227219 20.3347
0.0287712 0.571406 10.7594
-0.0585096 1.12367 15.3665
0.0201307 0.675845 19.4154
0.113104 -0.492652 1.21535
0.0410172 0.814522 12.4405
-0.667787 1.49328 16.7771
0.0248732 1.17761 16.0964
0.0336732 0.539669 6.63205
0.0237391 1.67547 13.703
3.36645 -0.267007 16.2267
0.0353838 4.00904 13.4246
0.00907641 -0.184389 17.5311
0.204148 0.462329 0.869998
0.0138229 0.327669 0.115634
-0.101471 -1.37103 -5.48229
-2.03396 1.03792 6.74145
-0.0267429 -1.40369 2.47627
-0.267831 -2.1968 -3.08154
1.6162 2.13991 18.9163
0.019567 1.87509 19.6115
0.0179881 1.38981 18.4358
0.0430937 4.38433 19.8996
2.22277 2.10226 20.9315
0.0211874 2.22144 20.7347
0.0114555 4.28558 21.6711
1.35737 0.940135 22.2085
-0.0105647 1.01295 21.8865
-0.00343499 0.240591 22.0964
-0.254089 -0.55189 21.1174
0.00150315 -0.242425 21.5258
0.0219927 -0.752828 18.0651
-0.396731 -0.943676 20.5671
0.0122355 -0.625252 21.1153
0.0275569 -1.07661 18.7237
-0.39321 -1.12468 20.5341
0.0161845 -0.546318 20.9007
0.0221021 -0.553342 18.8618
1.30437 -0.567547 19.7446
1.29849 -1.03652 19.4075
2.00305 -0.841244 18.8431
0.800758 -0.438107 19.3629
2.83966 -2.15943 19.9044
1.29204 -0.820111 21.4599
1.05406 -1.37655 21.8453
1.81675 -1.61705 22.6024
0.0177091 -0.061737 21.4674
0.0197746 -0.177637 21.3879
0.0653035 0.0181418 21.4075
-0.396246 0.324896 17.7011
-0.0294249 0.0191464 20.1909
-0.365396 0.107489 21.5634
-0.22313 0.343624 21.5764
-0.270042 0.526781 14.2558
-0.702564 1.1316 19.1147
-0.91942 0.557396 21.0388
-0.545562 0.913666 21.0153
-1.13245 1.29392 15.6553
-0.986694 1.16377 19.8028
-1.03119 0.71128 20.77
-0.769401 0.947899 20.8712
-1.47046 1.14695 16.8992
-0.717874 0.887882 20.717
1.69562 -0.113838 19.5809
2.60538 0.667055 18.7084
1.07546 -0.078085 19.0623
5.34419 -0.296985 19.405
1.74926 -0.395043 21.6274
2.72713 -0.110159 22.3367
-0.1499 -0.885711 17.0868
0.249104 -0.481381 21.5516
1.02903 -0.834829 20.2162
0.0384935 0.414013 14.615
-0.37029 -0.190877 21.5534
-0.819277 0.763819 16.261
-0.776476 0.311388 6.90203
-1.31784 -0.046992 20.1082
-1.32487 -0.0699068 14.433
-1.72195 0.482778 13.0705
-1.47777 0.126208 19.3077
-1.62399 -0.496446 16.2936
-1.80087 0.442721 17.708
1.23577 0.664006 19.9158
0.867231 1.01466 19.9896
0.955769 0.671688 19.3615
2.01601 1.61098 20.3032
1.37713 0.541768 21.0299
0.984647 1.01116 20.8611
1.68493 0.604695 21.4954
0.699022 0.0954636 21.4891
0.52046 0.436609 21.495
0.341324 0.0426732 21.8193
-0.098756 -0.243065 21.5163
-0.0149021 -0.188716 21.4146
-0.32561 -0.656724 21.455
-0.466997 -0.551076 21.1779
-0.192635 -0.486926 21.1236
-0.524384 -0.86609 20.92
-0.537078 -0.643679 20.8602
-0.322196 -0.538786 20.9234
-0.561534 -0.794351 20.0302
-1.62178 -1.01719 19.1718
-1.38304 -1.64992 22.3834
0.0916934 0.180843 20.5823
0.361205 0.405269 19.8911
0.780828 1.1078 19.3084
1.02728 1.15577 19.8192
-2.50355 -0.169404 18.5438
-2.19121 -0.839032 21.8575
0.316879 -0.533525 15.223
0.331042 0.915004 12.2222
1.00567 0.415228 9.58449
1.88199 0.574432 13.916
-1.56055 1.29857 19.4844
-1.909 1.09359 21.1125
-1.02579 0.322122 21.7856
0.131791 -0.31061 21.6648
0.438653 -0.741694 21.2358
0.611016 -0.875794 20.7041
0.0113398 -3.15136 16.7763
-0.000282875 -0.545451 13.3817
-0.00100522 -0.0462809 12
0.0139495 0.208916 11.8023
0.0575056 0.371943 11.683
0.0525776 1.2278 12.6803
0.0206225 -0.133965 12.476
-0.0662065 -0.632267 -3.97704
-0.100432 -1.48318 -5.20074
0.0393246 3.29148 18.2746
0.0224265 3.73322 20.3821
-0.0105057 1.91297 22.4388
0.0108265 -0.531182 19.8897
0.0251377 -0.878834 18.2725
0.0256173 -1.41333 18.4953
1.61366 -1.01743 19.1907
1.37163 -1.62464 22.3602
-0.0852295 0.186969 20.5829
-0.355582 0.421888 19.7825
-0.815954 1.20431 19.3922
-1.05863 1.17801 20.0023
2.50427 -0.180436 18.5754
2.22202 -0.840006 22.0087
-0.300124 -0.562391 15.6273
-0.354109 0.899818 12.8452
-1.11707 0.425753 10.352
-1.91013 0.525777 14.5689
1.56381 1.2538 19.5128
1.89739 1.06197 21.113
1.03943 0.321186 21.8003
-0.136162 -0.338342 21.6796
-0.435802 -0.785696 21.2367
-0.596319 -0.903215 20.693
-2.27384 -0.549163 2.3836
0.006504 -0.236141 0.634735
0.204853 -0.615128 1.81752
-0.0131477 -0.00238934 -0.0107726
-0.00515935 0.00278015 0.00788042
-0.016311 0.0169889 0.244918
-1.12493 0.385343 1.5876
-0.0796715 0.581385 1.22654
-0.258493 0.270807 1.3378
-0.0663998 0.00871106 -0.0486235
-0.0152117 0.0143722 -0.0124565
-0.00702336 -0.023513 0.192659
-0.00569086 -0.216196 0.584623
1.75575 -0.112189 1.37614
-0.227823 -0.666201 1.82843
0.00585592 0.00286252 0.00804448
0.0108266 -0.0030201 -0.010316
0.021573 0.0223804 0.31847
0.090715 0.676067 1.41629
1.27831 0.425297 1.78491
0.150477 0.158091 0.792919
0.0203926 0.00554879 -0.00363186
0.0660999 0.00349014 -0.049196
0.013409 -0.0287313 0.208599
-0.0197528 0.00262111 0.141614
-0.0361088 0.0190118 0.530991
0 0 0
-2.22795e-18 6.04778e-19 6.98819e-17
-0.0113805 0.00558141 0.176185
0.0121848 -0.0028703 0.16166
0 0 0
8.93102e-05 2.78872e-05 0.0020019
0 0 0
0 0 0
0 0 0
-0.0573676 0.0976744 0.249169
0.025418 0.040964 0.103098
-3.20655e-18 -2.68109e-17 -3.25498e-17
0 0 0
0.0375785 -0.0165731 0.168001
0.00669596 0.000730068 0.0495119
-1.68313e-18 -5.53202e-19 -4.13999e-17
0.0314565 0.0159341 0.49734
0 0 0
0.0103948 0.00526998 0.168942
-0.000199071 7.00227e-05 0.00484392
-0.0109991 -0.00221227 0.149097
0 0 0
4.37939e-17 -4.42643e-17 1.39737e-16
0.0708129 0.124195 0.316234
-0.000207034 0.000566658 0.0102023
0 0 0
-0.0287263 0.0478174 0.121644
-0.0341704 -0.0164442 0.163932
0 0 0
4.75321e-06 -1.15353e-05 -2.96796e-05
-0.628176 -0.127557 1.68172
-0.707407 0.375426 0.381796
-1.45565e-05 -0.000924799 0.0290897
0.000318846 -0.00759161 0.000523711
0 0 0
-0.000106494 2.23481e-05 0.0023354
0.0283851 -0.0140501 0.107796
-0.0597489 0.0384704 -0.0189938
5.74785e-05 0.000151913 0.00299985
0.0120087 0.0143117 -0.0242236
0 0 0
0.000487244 0.000733814 0.0397379
0 0 0
0.000540665 0.0101929 0.0517908
-0.000502412 -0.000696416 0.0407414
-0.0204684 0.0131683 0.0871684
0 0 0
0 0 0
0.202893 0.384886 2.1073
-0.000260124 -0.00082774 0.0027643
0.691087 0.374815 0.36953
0.551123 -0.109621 1.48065
0.000100249 2.21311e-05 0.00233922
0 0 0
0.0607759 0.0343818 -0.0167205
-0.031781 -0.0127618 0.110649
-0.000320647 0.000689085 0.0374412
0 0 0
0.00759063 0.00500166 0.03255
0.000510446 -0.000661576 0.0384893
0.000319993 -0.000751687 0.00250494
-0.202237 0.383381 2.11424
0 0 0
7.3591e-05 1.65986e-05 0.00305642
0.0590353 -0.0480288 0.265793
-6.47144e-05 0.00236118 0.0041612
-2.56721e-07 1.78019e-07 0.000199174
0 0 0
0 0 0
0 0 0
5.37353e-07 7.26125e-07 0.000400349
-1.20803e-07 8.59676e-07 0.000125341
1.13613e-05 0.000500944 0.00122194
0.0040911 0.00482117 0.112173
0 0 0
-1.09033e-06 0.00193263 0.0135544
-0.000153977 3.00814e-06 0.0188563
2.54154e-05 -0.000608708 0.00246513
-5.62356e-05 1.28057e-05 0.0023901
0 0 0
-0.0571961 -0.0459485 0.2552
-1.46184e-05 0.000159276 0.000482373
0 0 0
0 0 0
-0.0022997 0.00269107 0.06356
-2.87654e-05 0.00235882 0.00565274
-0.837254 -0.00286314 1.76277
-1.08077 -0.267908 2.03098
0.0253902 -0.000797774 0.286694
0 0 0
0 0 0
0 0 0
-3.61078e-07 3.56309e-05 0.0001521
0 0 0
0 0 0
0 0 0
0.0853429 0.00363951 0.239046
0 0 0
0.000233933 -0.000275503 0.00665475
-0.000695919 -0.000816752 0.0206146