# vtk DataFile Version 2.0
tet_velo
ASCII
DATASET UNSTRUCTURED_GRID
POINTS 29498 float
-0.775 0.245 -2.11248
-0.814574 0.355 2.155
-0.722874 0.805 -2.085
-0.785 1.02884 2.215
0.768631 0.245 -2.115
0.815 0.355 2.16098
0.719061 0.805 -2.085
0.785 1.02891 2.215
-0.789687 0.280171 -0.689987
-0.801812 0.317904 0.732507
-0.815453 0.951484 -0.651667
-0.804968 0.994904 0.781667
0.787145 0.278609 -0.689673
0.806479 0.311398 0.735653
0.812012 0.950608 -0.651667
0.802078 0.993331 0.781667
-1.57563 -0.133722 -3.27499
-1.56991 -0.0738682 -2.13228
-1.58247 -0.0368606 -0.70987
-1.59365 -0.00992448 0.710291
-1.60225 0.024906 2.13253
-1.60464 0.0588159 3.27434
-1.60439 0.0966742 4.41791
-1.56931 0.173071 -3.25727
-1.56449 0.244816 -2.11347
-1.58795 0.293019 -0.689311
-1.5976 0.323611 0.733672
-1.60393 0.358534 2.15763
-1.607 0.392575 3.29957
-1.60699 0.430443 4.44287
-1.54828 0.772201 -3.22494
-1.53647 0.843246 -2.08175
-1.59929 0.953414 -0.650309
-1.60079 0.997988 0.781701
-1.58934 1.03261 2.21286
-1.60024 1.06594 3.35347
-1.60656 1.10286 4.49459
-1.5467 1.74272 -3.16925
-1.54699 1.81953 -2.02452
-1.57482 1.92547 -0.589765
-1.59553 2.00016 0.847025
-1.59951 2.04802 2.28148
-1.60179 2.08187 3.42559
-1.60483 2.11677 4.56769
-0.796313 -0.134703 -3.27463
-0.780962 -0.0736218 -2.13146
-0.786679 -0.043703 -0.709723
-0.794383 -0.0158105 0.7099
-0.803297 0.0211905 2.13156
-0.806427 0.055397 3.27395
-0.806467 0.0934837 4.41802
-0.79565 0.168147 -3.2573
-0.811703 0.389527 3.29915
-0.810176 0.427432 4.44308
-0.776297 0.754802 -3.22626
-0.805936 1.06319 3.35419
-0.81123 1.10025 4.49525
-0.762171 1.73174 -3.17046
-0.755582 1.80974 -2.0258
-0.778618 1.92285 -0.59043
-0.799677 2.00004 0.847374
-0.804338 2.04712 2.28254
-0.806644 2.08045 3.42671
-0.809396 2.11515 4.56868
0.755169 -0.135298 -3.27581
0.776868 -0.0742106 -2.13293
0.793915 -0.0456636 -0.709357
0.809593 -0.0205092 0.712546
0.814033 0.0193907 2.13595
0.802126 0.0539016 3.27734
0.795302 0.0917783 4.42052
0.741715 0.167769 -3.25862
0.795407 0.388533 3.30253
0.790197 0.425923 4.44547
0.733058 0.754465 -3.22686
0.783911 1.06238 3.35572
0.78346 1.09888 4.49698
0.791476 1.73087 -3.17063
0.80713 1.80881 -2.02587
0.809714 1.92161 -0.590313
0.796581 1.99852 0.847707
0.788177 2.04563 2.28312
0.785008 2.07896 3.42756
0.783208 2.11357 4.56975
1.53813 -0.13523 -3.2768
1.56003 -0.0755749 -2.13411
1.58614 -0.0407188 -0.709234
1.6065 -0.0171065 0.714298
1.61303 0.0202224 2.13886
1.60448 0.055194 3.28003
1.59675 0.0930415 4.42252
1.52521 0.171917 -3.25926
1.55112 0.24369 -2.11585
1.58473 0.289757 -0.689052
1.60355 0.316132 0.737401
1.60854 0.354624 2.16395
1.59869 0.389569 3.30507
1.59182 0.427121 4.44729
1.51527 0.771154 -3.22613
1.52999 0.84231 -2.08277
1.59648 0.951118 -0.650397
1.59956 0.993712 0.782908
1.58875 1.02972 2.21509
1.58514 1.06338 3.35664
1.5835 1.09982 4.49793
1.57028 1.74086 -3.16956
1.58729 1.81752 -2.02463
1.60037 1.92287 -0.589477
1.59472 1.997 0.847812
1.58653 2.04485 2.2828
1.58281 2.07871 3.42738
1.58095 2.1135 4.56985
-0.785937 0.525 -2.13574
-0.0031845 0.239806 -2.11893
-0.795079 0.24985 -1.40123
-0.83676 0.69192 2.22197
0.000212997 0.353065 2.15992
-0.824714 0.319931 1.44375
-0.00190648 0.855075 -2.13508
-0.796581 0.90566 -1.36833
0 1.02901 2.21514
-0.795757 1.01264 1.49833
0.781025 0.525 -2.13718
0.791915 0.247778 -1.40234
0.835059 0.691955 2.22305
0.830631 0.313307 1.44832
0.793206 0.905473 -1.36833
0.793302 1.01088 1.49833
-0.793782 0.301005 0.02126
-0.854829 0.615827 -0.670827
-0.00127115 0.248887 -0.68983
-0.853418 0.656404 0.757087
0.00233308 0.26493 0.73408
-0.813947 0.97693 0.0649999
-0.00172036 1.24676 -0.651667
-0.00144534 1.54422 0.781667
0.796251 0.295564 0.02299
0.851122 0.614609 -0.67067
0.849145 0.652364 0.75866
0.810769 0.975694 0.0649999
-0.860179 0.570414 -1.38478
-0.852207 0.636115 0.04313
-0.873007 0.674162 1.47104
-0.00222782 0.236685 -1.40179
0.000530967 0.256915 0.022125
0.00127304 0.268082 1.44604
-0.00254549 0.525 -2.28891
0.000106499 0.691937 2.2344
-0.00181342 0.97702 -1.36833
-0.00158285 1.5436 0.0649999
-0.000722672 1.51863 1.49833
0.865738 0.569804 -1.38534
0.84804 0.633487 0.043995
0.891498 0.67216 1.47333
-1.16974 0.244908 -2.11297
-0.777981 0.0856891 -2.12197
-0.785325 0.206573 -2.68489
-1.20925 0.356767 2.15631
-0.808936 0.188095 2.14328
-0.813139 0.372263 2.72708
-1.12967 0.824123 -2.08337
-0.749586 0.779901 -2.65563
-0.739228 1.30737 -2.0554
-1.18717 1.03073 2.21393
-0.795468 1.04602 2.78459
-0.794669 1.53798 2.24877
0.772749 0.0853947 -2.12396
0.755173 0.206385 -2.68681
1.15988 0.244345 -2.11543
0.814517 0.187195 2.14846
0.805204 0.371766 2.73175
1.21177 0.354812 2.16246
0.726059 0.779733 -2.65593
0.763095 1.30691 -2.05543
1.12453 0.823655 -2.08389
0.784456 1.04565 2.78536
0.786588 1.53727 2.24906
1.18688 1.02932 2.21504
-1.18882 0.286595 -0.689649
-0.788183 0.118234 -0.699855
-1.19971 0.320757 0.733089
-0.798098 0.151047 0.721203
-1.20737 0.952449 -0.650988
-0.797035 1.43717 -0.621048
-1.20288 0.996446 0.781684
-0.802323 1.49747 0.81452
0.79053 0.116473 -0.699515
1.18594 0.284183 -0.689363
0.808036 0.145445 0.7241
1.20501 0.313765 0.736527
0.810863 1.43611 -0.62099
1.20425 0.950863 -0.651032
0.799329 1.49592 0.814687
1.20082 0.993521 0.782287
-1.57277 -0.103795 -2.70364
-1.57247 0.0196747 -3.26613
-1.18597 -0.134212 -3.27481
-1.57619 -0.0553644 -1.42108
-1.5672 0.0854739 -2.12287
-1.17544 -0.073745 -2.13187
-1.58806 -0.0233926 0.000210664
-1.58521 0.128079 -0.699591
-1.18458 -0.0402818 -0.709797
-1.59795 0.00749074 1.42141
-1.59563 0.156843 0.721981
-1.19402 -0.0128675 0.710096
-1.60344 0.0418609 2.70343
-1.60309 0.19172 2.14508
-1.20277 0.0230482 2.13204
-1.60451 0.077745 3.84613
-1.60582 0.225695 3.28695
-1.20553 0.0571064 3.27415
-1.60569 0.263559 4.43039
-1.20543 0.095079 4.41797
-1.5669 0.208944 -2.68537
-1.5588 0.472636 -3.2411
-1.18248 0.170609 -3.25728
-1.57622 0.268917 -1.40139
-1.55048 0.544031 -2.09761
-1.59278 0.308315 0.0221803
-1.59362 0.623216 -0.66981
-1.60077 0.341072 1.44565
-1.5992 0.660799 0.757686
-1.60546 0.375554 2.7286
-1.59664 0.695572 2.18524
-1.60699 0.411509 3.87122
-1.60362 0.729256 3.32652
-1.20935 0.391051 3.29936
-1.60678 0.766649 4.46873
-1.20858 0.428937 4.44297
-1.54238 0.807724 -2.65334
-1.54749 1.25746 -3.1971
-1.16229 0.763502 -3.2256
-1.56788 0.89833 -1.36603
-1.54173 1.33139 -2.05313
-1.60004 0.975701 0.0656963
-1.58706 1.43944 -0.620037
-1.59506 1.0153 1.49728
-1.59816 1.49907 0.814363
-1.59479 1.04927 2.78316
-1.59443 1.54031 2.24717
-1.6034 1.0844 3.92403
-1.60101 1.5739 3.38953
-1.20309 1.06456 3.35383
-1.6057 1.60981 4.53114
-1.2089 1.10155 4.49492
-1.54684 1.78113 -2.59689
-1.15443 1.73723 -3.16986
-1.56091 1.8725 -1.30714
-1.15129 1.81464 -2.02516
-1.58518 1.96282 0.12863
-1.17672 1.92416 -0.590097
-1.59752 2.02409 1.56425
-1.19761 2.0001 0.8472
-1.60065 2.06494 2.85353
-1.20192 2.04757 2.28201
-1.60331 2.09932 3.99664
-1.20422 2.08116 3.42615
-1.20711 2.11596 4.56818
-0.788638 -0.104162 -2.70305
-0.795981 0.0167218 -3.26596
-0.0205721 -0.135 -3.27522
-0.783821 -0.0586624 -1.42059
-0.00204725 -0.0739162 -2.1322
-0.790531 -0.0297567 8.83634e-05
0.00361813 -0.0446833 -0.70954
-0.79884 0.00269001 1.42073
0.00760514 -0.0181598 0.711223
-0.804862 0.0382937 2.70276
0.00536809 0.0202906 2.13375
-0.806447 0.0744403 3.84599
-0.809065 0.222462 3.28655
-0.00215095 0.0546493 3.27565
-0.808322 0.260458 4.43055
-0.00558279 0.092631 4.41927
-0.785974 0.461474 -3.24178
-0.0269673 0.167958 -3.25796
-0.81094 0.408479 3.87111
-0.80882 0.726359 3.32667
-0.008148 0.38903 3.30084
-0.810703 0.763839 4.46916
-0.00998979 0.426677 4.44428
-0.769234 1.24327 -3.19836
-0.0216198 0.754634 -3.22656
-0.808583 1.08172 3.92472
-0.80629 1.57182 3.39045
-0.0110127 1.06279 3.35495
-0.810313 1.6077 4.53196
-0.013885 1.09956 4.49611
-0.758876 1.77074 -2.59813
0.0146528 1.73131 -3.17054
-0.7671 1.8663 -1.30812
0.0257739 1.80928 -2.02583
-0.789147 1.96144 0.128472
0.0155482 1.92223 -0.590372
-0.802008 2.02358 1.56495
-0.00154806 1.99928 0.84754
-0.805491 2.06379 2.85462
-0.00808066 2.04637 2.28283
-0.80802 2.0978 3.99769
-0.0108175 2.07971 3.42713
-0.0130939 2.11436 4.56921
0.766018 -0.104754 -2.70437
0.748442 0.0162359 -3.26721
1.14665 -0.135264 -3.2763
0.785391 -0.0599371 -1.42114
1.16845 -0.0748928 -2.13352
0.801754 -0.0330864 0.00159443
1.19003 -0.0431912 -0.709296
0.811813 -0.000559282 1.42425
1.20805 -0.0188079 0.713422
0.808079 0.0366461 2.70665
1.21353 0.0198065 2.13741
0.798714 0.0728399 3.84893
0.798766 0.221217 3.28994
1.2033 0.0545478 3.27869
0.792749 0.258851 4.433
1.19603 0.0924099 4.42152
0.737386 0.461117 -3.24274
1.13346 0.169843 -3.25894
0.792802 0.407228 3.874
0.789659 0.725457 3.32912
1.19705 0.389051 3.3038
0.786828 0.762403 4.47123
1.19101 0.426522 4.44638
0.762267 1.24267 -3.19874
1.12416 0.76281 -3.2265
0.783686 1.08063 3.92635
0.78446 1.57067 3.39164
1.18453 1.06288 3.35618
0.783334 1.60623 4.53336
1.18348 1.09935 4.49745
0.799303 1.76984 -2.59825
1.18088 1.73587 -3.17009
0.808422 1.86521 -1.30809
1.19721 1.81316 -2.02525
0.803148 1.96006 0.128697
1.20504 1.92224 -0.589895
0.792379 2.02207 1.56541
1.19565 1.99776 0.84776
0.786593 2.0623 2.85534
1.18736 2.04524 2.28296
0.784108 2.09626 3.99866
1.18391 2.07884 3.42747
1.18208 2.11353 4.5698
1.54908 -0.105402 -2.70545
1.53167 0.0183437 -3.26803
1.57309 -0.0581469 -1.42167
1.55558 0.0840574 -2.12498
1.59632 -0.0289127 0.00253194
1.58544 0.124519 -0.699143
1.60977 0.00155793 1.42658
1.60502 0.149513 0.725849
1.60876 0.0377082 2.70944
1.61079 0.187423 2.15141
1.60062 0.0741178 3.85127
1.60159 0.222382 3.29255
1.59429 0.260081 4.43491
1.53817 0.207803 -2.68756
1.52024 0.471536 -3.24269
1.56793 0.266723 -1.40245
1.54056 0.543 -2.09931
1.59414 0.302944 0.0241745
1.59061 0.620437 -0.669725
1.60604 0.335378 1.45067
1.60155 0.654922 0.760154
1.60361 0.372096 2.73451
1.59865 0.692172 2.18952
1.59526 0.408345 3.87618
1.59192 0.726472 3.33085
1.58766 0.763471 4.47261
1.52263 0.806732 -2.65445
1.54278 1.25601 -3.19784
1.56324 0.896714 -1.36659
1.55864 1.32991 -2.0537
[...]
POINT_DATA 29498
VECTORS point_vectors float
-1.46883 -2.19363 4.87891
0.487912 0.268317 2.30048
-3.04049 3.35708 4.88693
-0.126374 -0.607231 1.13676
1.70822 -2.78048 5.42912
-0.610592 0.2627 2.63655
3.34234 3.76387 5.48291
0.268898 -0.678804 1.03909
0.0347681 0.000648144 0.677405
0.0133144 -0.0165898 1.17178
-0.00794352 -0.00612209 0.0856073
0 0 0
-0.0513676 -0.00726885 0.791499
-0.0413933 -0.0428999 1.05731
0.00646792 -0.00604729 0.0618562
0 0 0
-0.574524 -0.298757 19.8989
-1.19269 -0.708196 20.5707
-0.410729 -0.539775 21.4126
0.0778394 -0.291797 21.5826
0.617102 -0.0300358 21.6343
0.959722 0.175942 21.2808
0.988459 -0.02284 20.8628
-0.663619 -0.227301 19.7946
-1.58464 -0.626511 20.5217
-0.570352 -0.655814 21.4714
0.015195 -0.417643 21.6574
0.65241 -0.250685 21.7169
1.18728 -0.10947 21.1989
1.19253 -0.223386 21.2748
-0.745662 0.0223288 19.6886
-1.88781 0.0544317 20.3575
-1.27269 -0.440366 21.4041
-0.347994 -0.471589 21.7325
0.372899 -0.539606 21.7068
0.992427 -0.691852 21.1609
0.825118 -0.354352 21.5148
-0.521051 0.306594 19.9052
-0.970955 0.560535 20.3095
-1.06817 0.387755 21.142
-0.440806 -0.0305962 21.5718
0.0107073 -0.310406 21.5333
0.267051 -0.425171 21.3758
0.312434 -0.324137 21.0036
-0.58524 -0.595721 19.3697
-1.98653 -3.23673 20.9216
0.0624186 -0.0593217 21.0443
0.412559 0.197353 19.8626
1.12738 1.07435 20.1562
1.59879 1.60949 18.7545
1.54888 1.13273 18.5763
-0.697928 -0.484076 19.0775
2.14046 1.2689 14.3645
2.13705 1.1747 15.4936
-0.860454 0.133245 18.7543
1.57571 -1.06564 9.92924
1.56188 -1.03155 15.0069
-0.463905 0.624996 19.523
-1.03348 1.5326 19.9767
-1.73607 1.93448 21.0859
-0.61652 0.303727 22.0261
-0.160073 -0.36702 21.6848
0.10774 -0.845483 21.5852
0.104976 -0.697008 20.6533
0.55929 -0.615138 19.3149
2.02244 -3.27204 20.8862
-0.0726708 -0.0523938 21.1507
-0.45581 0.15977 20.049
-1.16527 0.985779 20.1542
-1.61854 1.50949 18.6033
-1.57066 1.13454 18.3683
0.671152 -0.517643 19.008
-2.13339 1.12255 13.6295
-2.18542 1.27431 15.0835
0.816046 0.138681 18.6831
-1.40413 -1.06604 7.62153
-1.46575 -0.919834 13.7913
0.4714 0.609024 19.5432
1.05166 1.4669 19.9943
1.72995 1.83493 21.1003
0.592519 0.325058 22.0059
0.144178 -0.245992 21.6418
-0.100839 -0.734346 21.6356
-0.0949254 -0.617051 20.1708
0.573308 -0.304148 19.8764
1.19691 -0.719964 20.562
0.400203 -0.541652 21.4029
-0.0734603 -0.307492 21.5631
-0.601545 -0.0675029 21.6121
-0.948292 0.132771 21.296
-1.00277 -0.0279733 20.8999
0.675023 -0.242953 19.7596
1.61431 -0.641596 20.5016
0.55697 -0.657308 21.469
-0.00663581 -0.427607 21.6347
-0.627261 -0.288799 21.6961
-1.15109 -0.176814 21.232
-1.22638 -0.222163 21.3608
0.750602 0.028787 19.6647
1.90356 0.0633406 20.3465
1.25973 -0.445404 21.4005
0.359619 -0.471367 21.7057
-0.299353 -0.54963 21.6762
-0.935411 -0.738392 21.1608
-0.803089 -0.377958 21.7033
0.515119 0.300806 19.9155
0.941819 0.532035 20.3243
1.0309 0.369064 21.1339
0.438941 -0.0188835 21.5496
0.0176773 -0.279435 21.5015
-0.227083 -0.393125 21.4122
-0.288697 -0.321008 21.0919
-1.85569 -0.131852 1.97913
-0.00552983 -0.0606746 0.523493
0.0526259 -0.00325947 0.745973
-0.0506521 -0.0871318 0.0656694
-0.029217 0.151419 0.593325
0.0297458 0.000415955 0.372093
0.0110272 0.464297 0.948381
-0.508252 -0.208723 1.02057
-0.0566512 -0.110085 0.0440152
0 0 0
2.60571 -0.181315 2.6287
-0.0465963 -0.0030162 0.743798
-0.0652524 -0.067816 0.410118
-0.0127366 -0.00399612 0.195802
0.470015 -0.166706 0.937739
0 0 0
-0.00572451 0.0304494 0.46447
-1.44411e-18 4.95863e-18 -1.26283e-16
4.78673e-05 1.00224e-05 0.0026653
0 0 0
-2.77075e-05 1.66963e-05 0.00390198
0 0 0
-0.000115089 0.0137881 0.0200644
5.41823e-07 -7.75085e-07 6.34357e-05
0.00339919 0.0149952 0.328756
0 0 0
0 0 0
0 0 0
0 0 0
0 0 0
0 0 0
8.93418e-05 6.09114e-07 0.00679396
-0.000305923 0.00114936 0.0458637
0 0 0
0.000217298 0.180916 0.15348
0 0 0
-1.7633e-06 0.00365898 0.0351471
3.07159e-06 2.22113e-05 0.000554871
-0.000767515 -0.000797426 0.0115382
0 0 0
0 0 0
0 0 0
-2.94147 -1.51512 20.5536
-3.22579 -4.94061 21.3352
-2.0506 -1.61192 18.0099
1.14814 -0.218 20.8178
1.39941 0.998731 15.2227
1.50016 0.838349 10.3164
-3.82132 0.687062 20.1045
-2.55215 0.936803 17.1689
-2.23832 2.64472 19.7433
0.483266 -0.746145 20.0263
-0.0158326 -1.08758 5.93187
0.177558 -0.301625 16.1001
3.27434 -4.96693 21.2575
2.02781 -1.66491 17.9179
2.99233 -1.55585 20.5104
-1.37438 0.9032 15.0614
-1.47561 0.583095 9.79708
-1.13584 -0.29519 20.7621
2.49195 0.936316 17.0872
2.2606 2.57803 19.758
3.84748 0.720626 20.0578
0.495367 -1.26799 3.89718
-0.107524 -0.0287808 15.3556
-0.316157 -0.786146 19.8642
-0.266621 -1.13251 21.6796
0.541067 0.258883 14.9506
0.243586 -0.557072 20.7335
0.431981 0.132575 13.9128
-2.19238 -1.18673 21.6664
-4.53845 2.21686 20.9
-0.460916 -0.872473 20.5467
-0.344202 0.313192 16.6001
-0.546516 0.267296 15.2468
0.238606 -1.12391 21.6435
-0.52516 0.0857287 14.3543
-0.223404 -0.597322 20.8212
4.41816 2.09263 20.954
2.16868 -1.20711 21.629
0.312323 0.378101 16.3062
0.478652 -0.872267 20.5334
-0.952246 -0.531222 20.0586
-0.640111 -0.267173 19.8709
-0.638243 -0.4454 19.632
-0.856495 -0.659503 21.1912
-1.36523 -0.678622 20.5313
-1.69952 -1.48489 20.6181
-0.11692 -0.400213 21.5135
-0.480309 -0.583845 21.4372
-0.124084 -0.618232 21.64
0.3146 -0.165011 21.6767
0.0632619 -0.350714 21.6074
0.309644 -0.267266 21.6427
0.827477 0.0614754 21.524
0.663835 -0.135504 21.6842
1.01059 0.212215 21.6622
1.02669 0.115154 20.8993
1.09463 0.133777 21.2084
1.40996 0.456453 21.4046
1.11505 -0.143715 21.0151
1.25549 0.371709 21.5013
-1.17735 -0.418392 19.9224
-0.733939 -0.1064 19.7228
-0.759931 -0.387127 19.4853
-1.12268 -0.691178 21.2502
-1.81342 -0.338686 20.455
-0.242144 -0.545308 21.5677
-0.907425 -0.657323 21.4413
0.287811 -0.333883 21.7499
-0.140518 -0.493825 21.731
0.963267 -0.190387 21.5614
0.583396 -0.441433 21.7725
1.20596 -0.0814653 21.2476
1.07924 -0.326407 21.4251
1.72937 0.0685426 20.3957
1.07073 -0.405993 21.3026
1.64091 0.213472 19.32
-1.36684 0.079288 19.7915
-0.667022 0.228557 19.7663
-0.882881 0.0790805 19.2669
-1.59771 -0.219438 21.0518
-1.45057 0.488591 20.2934
-0.80025 -0.510538 21.6774
-1.38414 0.0863699 21.2723
0.00873433 -0.46582 21.7784
-0.5013 -0.215866 21.6887
0.664237 -0.589365 21.5538
0.116272 -0.446406 21.5975
0.803705 -0.538067 21.3536
0.537333 -0.606486 21.5174
1.24874 -0.839847 20.5386
0.481233 -0.319015 21.8251
1.44413 -1.00619 18.9727
-0.77087 0.465772 20.0164
-0.550908 0.469111 19.6996
-1.09922 0.513034 20.7123
-1.09565 0.991951 20.1628
-0.78775 0.181753 21.4915
-1.47668 0.898824 21.1704
-0.178561 -0.19879 21.5654
-0.559956 0.0777219 21.7907
0.211771 -0.459004 21.4616
-0.0613418 -0.382122 21.6268
0.393772 -0.832805 20.4428
0.230327 -0.659426 21.5185
0.160723 -0.514408 21.8898
-1.24901 -1.61044 19.1472
-0.641584 -0.539898 19.2236
-0.0196658 -0.861884 18.9877
-0.593364 -0.921976 22.0945
-0.046753 -4.90582 21.5045
0.28915 0.137296 20.2425
-0.00123549 -0.311412 18.4517
0.704747 0.442884 20.0306
-0.0123875 -0.00261433 15.5572
1.39432 1.39243 20.3062
-0.0579783 1.01225 15.7043
1.47353 1.41145 19.3128
2.01558 1.92055 16.947
-0.0572001 2.10185 17.0333
1.90103 1.27496 16.9646
0.00569277 2.4024 17.7326
-0.833401 -0.205295 18.845
-0.0314567 -0.712608 18.5957
2.1017 1.027 14.7701
2.17218 -0.641576 7.08802
-0.0166324 1.64027 6.48953
2.25453 0.214504 14.8345
0.0511159 2.34167 12.2094
-0.700184 0.579723 19.0945
-0.0260829 0.232444 18.1109
1.82309 -0.896497 11.46
0.623427 -1.2711 18.0954
0.624571 2.49044 -5.17058
0.396702 -1.1976 15.6311
0.420777 2.70789 -1.36643
-0.768268 1.13879 19.5648
0.00818816 0.830245 19.3029
-1.3468 1.65455 20.3653
0.0467624 2.20498 19.7623
-1.27039 1.09377 22.1145
0.0506059 3.7169 20.7215
-0.301531 -0.106641 21.8155
-0.0229207 0.816739 22.4546
-0.0271128 -0.606247 21.5838
-0.0921223 0.099965 21.9581
-0.0453017 -0.652922 22.3528
-0.123004 -0.560223 21.7931
-0.197385 -0.383802 21.6385
1.222 -1.6487 19.0973
0.615221 -0.566391 19.1614
0.634733 -0.468925 19.6049
0.604555 -0.911785 22.1554
1.70711 -1.50509 20.6004
-0.316164 0.114973 20.4402
0.123918 -0.610888 21.6242
-0.764964 0.39197 20.1945
-0.298434 -0.294238 21.6428
-1.42241 1.27332 20.2519
-0.999363 0.153113 21.6456
-1.50858 1.3597 19.2276
-2.05679 1.8044 16.5927
-1.39693 0.410026 21.4288
-1.94576 1.32286 16.6592
-1.29852 0.338659 21.5398
0.795311 -0.21033 18.7518
0.754219 -0.398266 19.4314
-2.13266 1.04279 14.1661
-2.10149 -0.806968 6.10019
-1.72375 -0.000835628 20.141
-2.23965 0.209531 14.2691
-1.69023 0.276543 19.1354
0.692546 0.582552 19.0803
0.871704 0.0821283 19.2274
-1.52256 -0.967221 9.1777
-0.531211 -1.09944 16.9528
-1.13014 -0.908167 20.0754
-0.294227 -0.972958 14.0244
-1.40159 -1.21623 18.5502
0.779123 1.08665 19.5973
0.549023 0.45883 19.7145
1.35987 1.58811 20.3841
1.08385 0.933264 20.1854
1.25624 1.07406 22.0853
1.44292 0.848731 21.1623
0.275825 -0.0500927 21.7726
0.552147 0.0966781 21.7663
0.0229046 -0.467542 21.6201
0.0892917 -0.310809 21.5964
-0.0345158 -0.594744 22.757
-0.199115 -0.593263 21.5599
-0.148371 -0.523293 22.1539
0.953787 -0.546722 20.0399
0.652161 -0.278729 19.8426
0.855903 -0.666204 21.1925
1.38445 -0.692621 20.5175
0.113314 -0.405605 21.4996
0.470163 -0.5845 21.431
-0.309847 -0.190012 21.6644
-0.0541154 -0.361702 21.5844
-0.803364 0.021712 21.5186
-0.641605 -0.173839 21.6596
-1.04587 0.0828166 20.8785
-1.0622 0.0832372 21.2121
-1.14269 -0.142983 21.0833
1.20799 -0.44142 19.8877
0.743013 -0.118781 19.7005
1.13147 -0.703648 21.2645
1.84135 -0.3355 20.4434
0.236476 -0.54806 21.5516
0.895836 -0.659971 21.4411
-0.2767 -0.358378 21.7299
0.152654 -0.499582 21.7033
-0.919196 -0.24061 21.5655
-0.527132 -0.475685 21.7402
-1.19696 -0.11942 21.2797
-1.05022 -0.377992 21.453
-1.07171 -0.402244 21.4679
1.38409 0.0869304 19.7671
0.664472 0.228219 19.7613
1.60049 -0.219904 21.0623
1.42403 0.478246 20.2953
0.796062 -0.512552 21.6592
1.35441 0.0839927 21.2596
0.0213806 -0.473203 21.7282
0.507933 -0.207116 21.67
-0.585862 -0.608339 21.5509
-0.0594522 -0.422501 21.5469
-0.735594 -0.538963 21.3965
-0.480633 -0.634094 21.6474
-0.448937 -0.363041 21.9493
0.760596 0.448493 20.029
1.06375 0.492702 20.7105
0.775198 0.182007 21.4706
0.188838 -0.172892 21.5468
-0.167226 -0.418226 21.4975
-0.256518 -0.862811 20.2696
-1.06627 -0.493637 20.015
-1.61198 -1.71073 18.6683
-1.24926 -0.97622 19.6844
-1.66393 -0.805636 19.3428
-0.70082 -0.418545 19.5612
-2.26654 -1.64384 20.5964
-0.960183 -0.684523 21.2212
0.191829 -0.305401 17.7533
-0.789219 -1.02477 21.6055
-1.28534 -1.35171 21.9254
-0.125266 -0.858949 21.6943
-0.165651 -0.464557 21.5373
0.446387 0.252402 14.3456
0.145365 -0.41012 21.648
0.0871821 -0.829614 21.1574
0.321212 -0.43307 21.3984
0.313754 -0.247052 21.7091
0.852745 0.2667 14.3786
0.574994 -0.105864 21.7154
0.494443 -0.410958 20.7828
1.14554 0.0171359 21.4559
0.929759 -0.0653021 21.5628
1.65462 1.4108 15.9624
1.31541 0.418579 21.5062
1.60947 -0.0462839 20.7837
1.54704 0.376839 21.1374
1.18537 -0.071904 20.8772
1.77716 1.28325 15.9532
1.65765 0.516812 21.0072
2.04248 0.0860056 20.0234
1.40287 0.31549 20.7889
-1.34282 -0.200423 19.8263
-2.6661 -0.532075 17.0833
-2.02861 0.308973 18.9772
-0.87515 -0.160734 19.3077
-3.90447 -0.639369 20.3226
-1.42275 -0.539052 21.1912
-2.59545 -0.361565 21.3974
-0.996199 -1.43909 21.2081
-0.486196 -0.609978 21.6331
-1.17516 -1.22042 21.3982
0.0585076 -0.690731 19.9938
0.176158 -0.42238 21.8019
-0.0080441 -0.635809 20.1707
0.94374 -0.543409 20.1224
0.891716 -0.443883 21.7019
0.54805 -0.778621 4.7397
0.824461 -0.870821 20.0789
1.71266 -0.404305 20.1804
1.05114 -0.354474 21.3025
2.34573 0.913652 10.8409
1.49947 -0.964445 20.3739
1.75506 -0.749512 18.6707
-1.08474 0.393017 19.8992
-1.44429 1.5312 18.778
-0.830791 0.777543 19.8276
-0.735833 0.380328 19.4475
-2.02267 1.20365 20.0752
-1.48693 0.287016 20.8222
-2.56465 1.93031 20.2764
-1.33316 0.984042 20.6038
-2.44178 0.425301 21.3525
-0.968314 -0.0772345 21.6236
-2.27506 0.272545 20.342
-1.08314 0.477852 21.7479
-0.776138 -0.22491 22.0249
-0.15665 -0.329313 21.6903
0.20851 0.13952 15.5689
-0.243639 -0.182863 21.7031
-0.00280169 -0.600136 21.7531
0.323299 -0.580908 21.4694
0.248292 -0.760174 16.9818
0.0885186 -0.515053 21.5015
0.520375 -1.00881 21.3782
0.484733 -0.742436 20.934
0.385059 -1.53177 18.4716
0.088442 -0.545844 22.0236
0.423117 -0.655918 19.6194
1.59911 -1.75884 18.5768
-0.0307185 -2.53745 18.397
-0.0493811 -2.77528 16.1208
-0.0273425 -0.878514 18.7538
-0.0823091 -7.28255 23.2806
-0.181399 -0.285841 18.0603
-0.0166107 -1.33707 21.513
0.0153631 0.0269407 8.33389
-0.502468 0.208566 14.7495
-0.00422161 -0.0976329 16.3416
-0.0111303 0.0326195 7.63889
-0.928638 0.193527 14.6797
-0.0244598 0.276687 15.2384
-0.104857 0.747592 7.97521
-1.65232 1.24254 15.7074
-0.079163 1.37929 16.1801
-0.227312 0.187362 3.92099
-0.12884 2.36501 12.4854
-1.7718 1.23162 15.4994
-0.0259007 2.53988 17.0301
0.0591358 2.44257 8.44633
0.0216265 2.36461 15.2116
2.64112 -0.564303 16.9538
-0.0404481 1.77325 14.8001
-0.0295848 -0.288474 18.0504
-0.433818 -1.138 4.33264
0.441954 1.02984 -3.5001
0.409727 1.7185 -0.539623
-2.34509 0.802664 10.0296
0.477077 3.1085 -5.16486
0.313254 2.91482 3.48648
1.44434 1.51247 18.7941
0.0245224 1.59601 19.2903
-0.00534931 0.813866 18.6592
0.037086 4.27205 19.435
2.56574 1.84884 20.3077
0.0423764 2.50827 20.0023
0.0493714 6.83702 17.6345
2.33689 0.26526 20.6813
0.00253095 2.3325 22.6669
-0.0170191 0.0629725 6.27345
-0.2368 0.235347 15.1462
-0.0496002 0.222191 21.9278
-0.856643 0.611796 1.45517
-0.0728596 -0.408537 15.9168
-0.100398 -0.186708 22.1841
-0.185152 -0.68501 3.41897
-0.280763 -1.49964 17.188
-0.20096 -0.552374 22.2296
0.0358553 -1.33444 12.4454
1.08573 -0.512886 19.9852
1.26821 -1.01991 19.6405
1.69555 -0.820928 19.2681
0.706925 -0.448525 19.5303
2.29646 -1.67986 20.5706
0.963858 -0.695592 21.2308
0.792357 -1.03583 21.6152
1.29274 -1.37755 21.9849
0.108297 -0.848512 21.681
0.161959 -0.465518 21.522
-0.136663 -0.415798 21.6339
-0.0881714 -0.828295 21.1628
-0.306472 -0.463571 21.3914
-0.303881 -0.26859 21.6923
-0.569003 -0.144226 21.7301
-0.47922 -0.461479 20.8808
-1.13185 -0.0470095 21.4431
-0.898599 -0.111224 21.559
-1.28398 0.336223 21.5078
-1.55135 -0.164506 20.7045
-1.52047 0.348148 21.0577
-1.19081 -0.1139 20.8869
-1.65447 0.483248 21.0871
-2.10879 0.0646421 19.8369
-1.45105 0.324693 20.7113
1.36619 -0.20683 19.802
2.07248 0.333224 18.9003
0.888545 -0.163184 19.261
3.98237 -0.633621 20.2616
1.43294 -0.541784 21.2076
2.61103 -0.344714 21.4384
0.957173 -1.45096 21.1353
0.4809 -0.611943 21.6166
1.16966 -1.22581 21.3703
-0.0248598 -0.690588 19.932
-0.159205 -0.442297 21.7747
0.0459545 -0.651109 20.1241
-0.861192 -0.648985 20.0012
-0.814042 -0.477308 21.6991
-0.573566 -0.920075 19.6931
-1.64512 -0.492179 19.6872
-1.01133 -0.365276 21.3704
-1.52723 -1.04624 20.1338
-1.74252 -0.790337 18.3247
1.07677 0.390868 19.9005
0.830298 0.747615 19.8502
0.729733 0.381929 19.4385
1.9847 1.15099 20.0803
1.45844 0.284074 20.8221
1.30336 0.924357 20.6191
2.38519 0.401145 21.3378
0.960218 -0.0735899 21.5994
1.06671 0.470873 21.722
0.779572 -0.204147 21.9844
0.182413 -0.319019 21.6533
0.243913 -0.140324 21.6726
0.120196 -0.509577 21.665
-0.277818 -0.563945 21.4662
-0.0484641 -0.428218 21.4821
-0.428613 -0.94958 21.4329
-0.547776 -0.70844 20.9405
-0.0669078 -0.545739 22.4161
-0.364082 -0.611944 18.9148
-1.44624 -0.945414 19.5238
-0.959807 -1.22118 21.7547
0.172676 -0.619442 21.5283
0.586307 -0.282431 21.4372
1.51346 0.229153 21.3041
1.99326 0.331296 20.4523
-2.00184 -0.314176 19.0327
-2.09409 -1.13807 21.9155
-0.298855 -1.1683 20.5718
0.330005 -0.508843 20.1314
1.4221 -0.570003 20.1643
1.68646 -0.445446 20.423
-1.38508 0.823738 19.4423
-2.15366 0.771084 20.7147
-1.57068 -0.0239029 22.0709
-0.312805 -0.37884 21.8733
0.244077 -0.818585 21.6506
0.665734 -0.996189 21.1448
-0.0473181 -2.92042 17.459
0.0321473 -0.34366 11.2299
-0.00296461 0.0448329 7.76315
-0.0238423 0.145132 7.87744
-0.157933 1.04963 9.56112
-0.0183735 2.23124 12.3332
-0.0526031 -0.806111 14.4803
0.260277 0.244559 -0.226847
0.425088 2.06066 3.40163
0.00804968 2.48795 17.9619
0.0333232 3.48093 19.5414
-0.0110614 0.517449 6.66204
-0.124092 -0.14546 5.78197
-0.645823 0.407921 1.54361
-0.128338 0.0355007 3.30365
1.46246 -0.992013 19.4802
0.961032 -1.23659 21.7804
-0.172372 -0.620796 21.498
-0.574112 -0.327807 21.4612
-1.4708 0.138216 21.2814
-1.99095 0.287569 20.5028
2.05818 -0.32095 18.9404
2.11909 -1.14317 21.9828
0.290357 -1.17511 20.5169
-0.302713 -0.554152 20.1939
-1.27388 -0.694058 19.9403
-1.73859 -0.425855 19.9308
1.37303 0.809374 19.4479
2.10769 0.742269 20.7253
1.55711 -0.026269 22.031
0.344657 -0.34382 21.8095
-0.0867441 -0.700926 21.6201
-0.559451 -1.03098 21.3199
-0.307087 -0.075886 0.281489
0.112253 -0.1996 0.904403
0.0623871 -0.0577851 0.714933
0.355374 0.054892 1.29341
-0.0336607 0.112379 0.395944
0.190037 0.0206579 1.29984
-1.24783 0.206758 0.867204
-0.0887058 0.434642 0.670658
-0.512427 0.0518991 1.53599
0.0577126 -0.0883299 0.190942
-0.150953 -0.11737 0.0490489
0 0 0
-0.0671101 -0.170846 0.852677
1.34008 -0.309435 1.21449
-0.0492656 -0.0410665 0.625005
-0.0135978 0.118256 0.443101
-0.391673 0.0291286 1.38428
-0.103528 0.0972546 0.855784
0.0890753 0.443325 0.679438
2.72517 -0.0590767 1.52924
0.424585 0.0536934 1.39947
0.083967 -0.160624 0.0506695
-0.045891 -0.128518 0.192303
0 0 0
0.0362381 0.12191 0.683828
0.00309176 0.00195752 0.201949
0.000297373 0.000234258 0.0237361
0 0 0
0.0593095 -0.019601 0.626889
-0.0210741 0.0504182 0.812183
-0.001187 0.0051738 0.046425
0.000334282 1.93474e-05 0.00515672
-0.342835 -0.189098 0.473989
7.51521e-20 3.56151e-18 -1.1181e-16
0 0 0
-0.209557 0.0826834 0.22195
0 0 0
0 0 0
-1.37573e-17 -2.96838e-17 -8.74051e-17
0.0473323 0.0287019 0.44946
-0.0269372 0.0985919 0.627871
-0.000450448 2.58883e-05 0.00325044
-0.0102137 0.000398694 0.377202
-0.000257616 0.000180768 0.0198769
-0.04611 -0.0299276 0.652939
-0.000182219 1.658e-05 0.00235968
0.0117672 0.0435872 0.904055
0.00264171 0.0180705 0.112728
0.165496 -0.0936669 0.231581
0.183496 0.0712394 0.194556
0 0 0
0 0 0
0 0 0
-0.0513287 0.0271104 0.441975
0 0 0
0 0 0
-0.00245692 -0.00167584 0.0272314
-0.0889655 -0.0205606 0.0516345
0.000135776 -0.000915147 0.0306663
0 0 0
0 0 0
2.41654e-05 1.50185e-06 9.092e-05
0 0 0
0 0 0
-0.000144292 0.000423243 0.00435711
-0.00971358 -0.0288033 -0.0151136
1.4009e-05 -0.000138003 0.0178743
-2.41677e-06 -2.96985e-07 -3.46062e-05
-0.00333622 2.29995 1.80501
-0.000388056 0.0125552 0.0842755
-0.00540427 -0.0189059 0.0916813
-0.00852977 0.00125375 0.014184
8.82232e-19 2.91223e-18 1.7405e-19
-3.87805e-05 3.39262e-05 -4.23071e-05
0.000169356 0.00104261 0.0105626
0.000989099 -0.00455388 0.0771337
0.0793026 -0.0208716 0.0469024
0.0175945 -0.00826875 0.091268
-5.73067e-05 1.30565e-06 0.000654857
0 0 0
0 0 0
0 0 0
0 0 0
-0.00152792 0.00430758 0.267895
0.00967018 0.00146838 0.0165659
0.00333388 -0.0113836 0.0545275
-0.00487861 -0.00455669 0.0818259
0 0 0
-0.0010629 0.00698117 0.0705182
0.00143082 0.000379854 0.020717
0 0 0
0 0 0
0.000210719 0.00119623 0.0529557
2.89239e-06 1.82663e-06 0.000290785
0 0 0
0 0 0
-7.80544e-06 4.43434e-06 0.0010137
-5.55058e-06 3.78189e-06 0.000698047
0 0 0
-0.00400598 0.0534265 0.761221
0 0 0
-0.00124895 0.371707 0.707279
0.000692477 -0.000445204 0.0570293
-1.11671e-05 -4.3277e-05 0.00145763
-0.00213597 0.000639912 0.026611
0.000595713 0.00703961 0.052168
0 0 0
0 0 0
0 0 0
0 0 0
0.00815848 0.0509185 0.732321
0 0 0
-0.00186318 -0.00125013 0.0154174
0 0 0
0.00276811 -0.0271345 0.15196
-0.000163287 -0.00647849 0.0190209
-0.0001318 0.00134305 0.0190638
0 0 0
-0.00425502 0.0219495 0.142238
0 0 0
-0.00634364 0.00453184 0.0844704
0 0 0
-4.26752e-05 -0.000836007 0.00886569
0.000817192 0.00405465 0.0853043
-1.11473e-05 -7.34798e-06 0.000306819
5.78944e-05 -2.23183e-05 0.00068505
0.0120704 0.00155589 0.0807566
-0.00275214 0.000900856 0.0331529
0.00038095 2.40819e-05 0.00379136
-0.00089189 5.72901e-05 0.00798902
0.00101479 7.95792e-05 0.0148571
-0.00188771 0.000139696 0.0243876
1.29623e-05 1.18194e-06 0.000238965
-8.9558e-05 8.3693e-06 0.00129947
0.000894571 0.000861874 0.00943458