# vtk DataFile Version 2.0
tri_press
ASCII
DATASET UNSTRUCTURED_GRID
POINTS 3682 float
-0.877112 0.155 -2.025
-0.876468 0.415 2.235
-0.9 0.775 -2.155
-0.835 1.02948 2.135
0.877112 0.155 -2.025
0.876468 0.415 2.235
0.9 0.775 -2.155
0.835 1.02948 2.135
-0.819549 0.299015 -0.605
-0.854768 0.350248 0.815
-0.885138 0.866631 -0.725
-0.862557 0.950544 0.705
0.819548 0.299016 -0.605
0.854777 0.350239 0.815
0.885144 0.866637 -0.725
0.862556 0.950543 0.705
-1.7354 -0.210027 -3.10569
-1.73055 -0.123205 -1.96568
-1.69129 -0.00254127 -0.545939
-1.69632 0.0614347 0.87179
-1.7129 0.121355 2.29136
-1.71868 0.17996 3.43054
-1.72141 0.24352 4.57125
-1.74029 0.0837276 -3.16709
-1.74017 0.164899 -2.02599
-1.69229 0.291906 -0.604306
-1.70094 0.357745 0.816481
-1.71552 0.421298 2.23798
-1.72179 0.480399 3.37729
-1.72465 0.543691 4.51768
-1.75188 0.688419 -3.29271
-1.76544 0.768687 -2.15202
-1.73712 0.87106 -0.723519
-1.71176 0.954624 0.705694
-1.69645 1.02969 2.13401
-1.71336 1.08806 3.27291
-1.72517 1.14889 4.41168
-1.74732 1.59423 -3.47361
-1.75184 1.67087 -2.33143
-1.74509 1.76223 -0.899685
-1.73203 1.84923 0.534217
-1.72369 1.93178 1.96586
-1.72527 1.99456 3.10782
-1.73125 2.05633 4.24769
-0.868761 -0.215155 -3.10504
-0.875694 -0.128534 -1.96474
-0.836809 0.00143081 -0.546066
-0.843418 0.0568258 0.870525
-0.859273 0.115898 2.28915
-0.865304 0.175903 3.42904
-0.867704 0.240659 4.57038
-0.867205 0.0790666 -3.16689
-0.87257 0.476843 3.37606
-0.87248 0.541109 4.51702
-0.874136 0.688534 -3.29394
-0.864866 1.08673 3.27311
-0.874533 1.14737 4.41172
-0.874745 1.59433 -3.47484
-0.881118 1.67104 -2.33278
-0.880024 1.76128 -0.900497
-0.873889 1.84816 0.534315
-0.870011 1.93139 1.96655
-0.872638 1.99419 3.10852
-0.878408 2.05579 4.24819
0.872665 -0.215154 -3.10504
0.851981 -0.128534 -1.96474
0.833011 0.00143066 -0.546066
0.861253 0.0568198 0.870526
0.873139 0.115896 2.28915
0.856554 0.175901 3.42904
0.845978 0.240657 4.57038
0.886534 0.0790671 -3.16689
0.847915 0.476842 3.37606
0.839341 0.541107 4.51702
0.897253 0.688535 -3.29394
0.832444 1.08673 3.27311
0.830253 1.14737 4.41172
0.878124 1.59433 -3.47484
0.87143 1.67104 -2.33278
0.859917 1.76128 -0.900497
0.847174 1.84816 0.534315
0.837071 1.93139 1.96655
0.831678 1.99419 3.10852
0.827342 2.05579 4.24819
1.74083 -0.210026 -3.10569
1.72119 -0.123204 -1.96568
1.69154 -0.00254161 -0.545939
1.70976 0.0614267 0.87179
1.72394 0.121349 2.29136
1.71396 0.179957 3.43054
1.70334 0.243516 4.57125
1.75584 0.0837292 -3.16709
1.74268 0.164901 -2.02599
1.69402 0.291908 -0.604306
1.7051 0.357736 0.816481
1.71829 0.421293 2.23798
1.70655 0.480395 3.37729
1.6969 0.543688 4.51768
1.7711 0.688421 -3.29271
1.76992 0.76869 -2.15202
1.73748 0.871065 -0.723519
1.71142 0.954621 0.705694
1.6938 1.02968 2.13401
1.689 1.08805 3.27291
1.68604 1.14888 4.41168
1.7514 1.59424 -3.47361
1.74428 1.67087 -2.33143
1.72769 1.76223 -0.899685
1.70826 1.84923 0.534217
1.69332 1.93178 1.96586
1.68633 1.99456 3.10782
1.68199 2.05633 4.24769
-0.88843 0.465 -2.08987
0 0.141572 -2.03843
-0.880649 0.194689 -1.315
-0.824477 0.72224 2.15374
0 0.414673 2.23533
-0.893923 0.354319 1.525
0 0.758949 -2.13895
-0.896381 0.824628 -1.44
0 1.03031 2.13583
-0.851228 0.992462 1.42
0.888428 0.465 -2.08987
0.880645 0.194693 -1.315
0.824477 0.72224 2.15374
0.893923 0.354319 1.525
0.896387 0.824634 -1.44
0.851226 0.992459 1.42
-0.837186 0.324604 0.105
-0.899948 0.582823 -0.665
-5.66348e-07 0.139234 -0.605
-0.899928 0.650396 0.76
4.59664e-06 0.140105 0.815
-0.873823 0.908563 -0.00999999
3.08298e-06 1.13325 -0.725
-4.10273e-07 1.41433 0.705
0.837188 0.324602 0.105
0.899948 0.582826 -0.665
0.899928 0.650391 0.76
0.873824 0.908564 -0.00999999
-0.898414 0.523911 -1.3775
0.898414 0.523913 -1.3775
-2.83174e-07 0.132163 -1.315
1.54149e-06 0.942491 -1.44
0 0.465 -2.23108
-0.899938 0.616609 0.0475
0.899938 0.616609 0.0475
2.01515e-06 0.139686 0.105
1.33635e-06 1.41104 -0.00999999
-0.896685 0.686318 1.4725
0.896685 0.686315 1.4725
2.29832e-06 0.149593 1.525
-2.05137e-07 1.38879 1.42
0 0.72224 2.15313
-0.881742 0.31 -2.05641
-0.438556 0.141394 -2.03861
-0.878079 0.175646 -1.67
-0.894166 0.56862 2.23807
-0.438234 0.414663 2.23534
-0.872316 0.397539 1.88
-0.899957 0.62 -2.12818
-0.45 0.76742 -2.14742
-0.899943 0.801566 -1.7975
-0.835081 0.87586 2.14971
-0.4175 1.03031 2.13583
-0.844504 1.01236 1.7775
0.438556 0.141394 -2.03861
0.886014 0.31 -2.06068
0.878072 0.175653 -1.67
0.438234 0.414683 2.23532
0.894173 0.56862 2.23807
0.872315 0.39754 1.88
0.45 0.767412 -2.14741
0.899957 0.62 -2.12818
0.899943 0.801566 -1.7975
0.4175 1.03032 2.13584
0.835081 0.87586 2.14971
0.844497 1.01235 1.7775
-0.810747 0.286204 -0.96
-0.828361 0.311816 -0.25
-0.880174 0.430706 -0.635
-0.448024 0.142627 -0.605
-0.891761 0.334868 1.17
-0.845936 0.337467 0.46
-0.894622 0.491685 0.7875
-0.478464 0.143011 0.815
-0.890754 0.845624 -1.0825
-0.899907 0.728409 -0.695
-0.879491 0.887608 -0.3675
-0.50897 1.13275 -0.725
-0.856965 0.971575 1.0625
-0.899429 0.809563 0.7325
-0.868228 0.929591 0.3475
-0.54724 1.41436 0.705
0.810741 0.28621 -0.96
0.448023 0.142627 -0.605
0.828358 0.311819 -0.25
0.880175 0.430708 -0.635
0.891766 0.334863 1.17
0.478471 0.143011 0.815
0.845939 0.337464 0.46
0.894638 0.491672 0.7875
0.890754 0.845624 -1.0825
0.508973 1.13274 -0.725
0.899907 0.728413 -0.695
0.879491 0.887608 -0.3675
0.856962 0.971572 1.0625
0.547239 1.41436 0.705
0.89943 0.809561 0.7325
0.868227 0.929591 0.3475
-0.898553 0.494456 -1.73369
-0.444215 0.465 -2.23108
-1.41587e-07 0.131621 -1.67671
0 0.303286 -2.16959
-0.894564 0.3593 -1.34625
-0.440325 0.133538 -1.315
-0.899956 0.704279 1.81312
-0.412238 0.72224 2.15381
1.14916e-06 0.171162 1.88016
0 0.568456 2.24376
-0.898422 0.520318 1.49875
-0.446961 0.150432 1.525
7.70744e-07 0.902284 -1.78947
0 0.611974 -2.24162
-0.896836 0.67427 -1.40875
-0.44819 0.915051 -1.44
-1.02568e-07 1.37443 1.77792
0 0.876277 2.14926
-0.892425 0.83939 1.44625
-0.425614 1.38879 1.42
0.898553 0.494457 -1.73369
0.444214 0.465 -2.23108
0.894563 0.359303 -1.34625
0.440322 0.133522 -1.315
0.899956 0.704278 1.81312
0.412238 0.72224 2.15381
0.898422 0.520317 1.49875
0.446963 0.150432 1.525
0.896836 0.674274 -1.40875
0.448195 0.915052 -1.44
0.892426 0.839387 1.44625
0.425613 1.38879 1.42
-0.887413 0.461181 0.0762499
-0.46327 0.14279 0.105
-0.899978 0.553367 -1.02125
-0.899943 0.599716 -0.30875
-4.24761e-07 0.138862 -0.96
7.24399e-07 0.139452 -0.25
-0.899933 0.633503 0.40375
-0.89697 0.668357 1.11625
3.30589e-06 0.139887 0.46
3.44748e-06 0.147039 1.17
-0.8999 0.769096 0.01875
-0.562496 1.41097 -0.00999999
2.31223e-06 0.9809 -1.0825
2.20966e-06 1.35073 -0.3675
4.63039e-07 1.42359 0.3475
-3.07705e-07 1.40284 1.0625
0.887413 0.46118 0.0762499
0.463272 0.14279 0.105
0.899978 0.55337 -1.02125
0.899943 0.599718 -0.30875
0.899933 0.6335 0.40375
0.89697 0.668353 1.11625
0.8999 0.769096 0.01875
0.562498 1.41097 -0.00999999
-0.891936 0.33465 -1.70184
-0.873249 0.400109 -0.990625
-0.899956 0.699498 -1.05188
-0.897031 0.647135 -1.76559
0.891936 0.334652 -1.70184
0.897031 0.647137 -1.76559
0.899956 0.699503 -1.05188
0.87325 0.400112 -0.990625
-0.43944 0.133482 -1.67336
0.439439 0.133465 -1.67336
0.425048 0.140941 -0.96
-0.42505 0.140941 -0.96
-0.449095 0.876991 -1.79349
-0.445379 0.951263 -1.0825
0.445384 0.951262 -1.0825
0.449097 0.877 -1.79349
-0.441385 0.306643 -2.17079
-0.447107 0.615987 -2.24049
0.447107 0.615987 -2.24049
0.441385 0.306643 -2.17079
-0.883761 0.44596 -0.279375
-0.890993 0.476445 0.431875
-0.899895 0.789444 0.375625
-0.899905 0.748753 -0.338125
0.88376 0.445961 -0.279375
0.899905 0.748755 -0.338125
0.899895 0.789443 0.375625
0.890993 0.476443 0.431875
-0.455661 0.142679 -0.25
0.455662 0.142679 -0.25
0.470886 0.142871 0.46
-0.470882 0.142871 0.46
-0.575101 1.3506 -0.3675
-0.559392 1.42171 0.3475
0.559425 1.42178 0.3475
0.575104 1.3506 -0.3675
-0.898617 0.51032 1.14313
-0.899979 0.544469 1.84656
-0.887545 0.857625 1.79531
-0.897637 0.81993 1.08938
0.898617 0.510316 1.14313
0.897638 0.819927 1.08938
0.887545 0.857624 1.79531
0.899979 0.544469 1.84656
-0.437171 0.147854 1.17
0.437177 0.147854 1.17
0.442598 0.171304 1.88008
-0.442597 0.171304 1.88008
-0.428446 1.40284 1.0625
-0.421557 1.37445 1.77771
0.421556 1.37445 1.77771
0.428445 1.40284 1.0625
-0.425236 0.568538 2.24376
0.425236 0.568538 2.24376
0.414869 0.876069 2.14924
-0.414869 0.876069 2.14924
-0.883863 0.2325 -2.04514
-0.657834 0.141394 -2.03861
-0.877995 0.164923 -1.8475
-0.885227 0.49181 2.23644
-0.657351 0.414658 2.23534
-0.874382 0.40628 2.0575
-0.899943 0.6975 -2.14155
-0.675 0.775397 -2.1554
-0.899945 0.788256 -1.97625
-0.835617 0.95267 2.14293
-0.62625 1.03029 2.13581
-0.839805 1.02097 1.95625
0.657834 0.141394 -2.03861
0.88371 0.2325 -2.04499
0.877988 0.164931 -1.8475
0.657351 0.414688 2.23531
0.891857 0.49181 2.24307
0.87439 0.406271 2.0575
0.675 0.775372 -2.15537
0.899942 0.6975 -2.14155
0.899945 0.788256 -1.97625
0.62625 1.03031 2.13583
0.835633 0.95267 2.14295
0.839804 1.02097 1.95625
-0.815164 0.292594 -0.7825
-0.823916 0.305455 -0.4275
-0.860884 0.359349 -0.62
-0.672542 0.14331 -0.605
-0.891398 0.324425 0.9925
-0.850358 0.343851 0.6375
-0.877552 0.419538 0.80125
-0.715827 0.148209 0.815
-0.887948 0.85613 -0.90375
-0.899887 0.801202 -0.71
-0.882284 0.877089 -0.54625
-0.763286 1.13215 -0.725
-0.859769 0.961067 0.88375
-0.881448 0.880281 0.71875
-0.865396 0.940071 0.52625
-0.725304 1.22326 0.705
0.815159 0.292599 -0.7825
0.672541 0.14331 -0.605
0.82391 0.30546 -0.4275
0.860884 0.359351 -0.62
0.891398 0.324424 0.9925
0.715832 0.148209 0.815
0.850365 0.343845 0.6375
0.877551 0.419534 0.80125
0.887948 0.85613 -0.90375
0.763287 1.13215 -0.725
0.899887 0.801205 -0.71
0.882289 0.877094 -0.54625
0.859768 0.961066 0.88375
0.725294 1.22324 0.705
0.881448 0.880279 0.71875
0.865394 0.940069 0.52625
-0.875875 0.3875 -2.06393
-0.89997 0.5425 -2.1148
-0.897349 0.479728 -1.91178
-0.666322 0.465 -2.23108
-0.219278 0.141547 -2.03845
0.219278 0.141596 -2.0384
-7.07935e-08 0.137293 -1.85757
0 0.222429 -2.17821
-0.879359 0.185172 -1.4925
[...]
POINT_DATA 3682
SCALARS point_scalars float 1
LOOKUP_TABLE default
-124.383
-56.0225
-97.1026
-51.2843
-123.317
-51.8669
-96.889
-43.2407
-38.8822
-30.4986
-59.6062
-45.3239
-38.6185
-29.8261
-59.1785
-44.1515
-67.7463
-153.079
-39.3756
-58.0373
-56.24
-58.6213
-54.4141
-67.7463
-166.724
-41.3484
-40.0192
-52.2068
-53.7357
-53.7357
53.3262
-153.82
-53.3469
-42.9816
-55.6411
-53.7357
-53.7357
-89.3692
-153.82
-90.2299
-53.7695
-50.6369
-51.9696
-48.8591
10.4269
-134.432
-38.3732
-37.1291
-58.6518
-52.9303
-50.5651
10.4269
-51.1861
-48.156
105.812
-50.2402
-47.8012
45.4986
-122.486
-55.5112
-60.3682
-52.0346
-47.1044
-48.8591
9.01722
-133.799
-38.2456
-34.0141
-56.2131
-48.8746
-46.4015
9.01722
-46.1972
-46.3917
105.898
-42.3916
-44.2908
45.4024
-119.552
-54.8812
-59.6506
-44.2733
-38.9179
-40.8346
-68.779
-151.55
-39.0814
-56.5469
-52.524
-51.897
-50.8768
-68.779
-165.2
-41.0261
-38.4224
-48.6399
-50.8768
-49.6719
53.192
-153.551
-52.9494
-41.8323
-49.0124
-49.6719
-49.6719
-89.2087
-153.551
-90.4396
-53.0451
-42.5972
-43.8936
-40.8346
-146.086
-171.729
-54.9723
-49.7454
-46.9975
-47.1453
51.54
-45.6779
-34.7835
-44.4454
-146.124
-54.742
-43.7179
-45.4069
-45.4206
-41.5891
-37.4535
-43.5034
-45.2603
-40.4372
-43.4319
-51.957
23.1991
-61.3929
-37.0049
-43.1572
-39.3091
-51.3158
-51.3228
-51.0699
-67.1747
-20.5007
196.33
-41.5527
-40.9842
-40.5776
-92.0154
-43.9997
-41.596
-49.6268
-46.2296
-42.2254
-140.441
-167.389
-75.9982
-53.7856
-47.6973
-51.0459
-143.015
24.5852
-71.4004
-51.1647
-42.8238
-46.7892
-167.308
-136.102
-74.7326
-46.4864
-49.7766
-48.759
18.3655
-143.228
-71.0652
-31.831
-44.1742
-41.9562
-44.2972
-37.8887
-40.8072
-43.6961
-45.6016
-36.674
-38.3874
-42.582
-43.232
-48.9932
-56.8714
18.2661
-44.181
-42.5071
-47.8816
-56.3047
-44.0278
-43.5988
-37.5503
-40.502
-44.4069
-42.3074
-36.0877
-37.3578
-42.9083
18.4953
-48.6106
-56.3499
-42.4002
-55.5332
-41.3342
-47.0527
-77.1022
194.269
-96.508
152.966
-53.5868
-64.7789
-47.5634
-45.4338
-52.9702
-46.2793
-45.115
-49.9016
-59.2542
156.438
-48.6152
-23.6032
-41.5505
-39.8379
-43.6398
-47.3085
-76.8373
194.272
-53.305
-64.6577
-43.8933
-40.5154
-42.9932
-49.3444
-48.3674
-23.4627
-40.9656
-45.2887
-38.9075
-39.6485
-45.0545
-42.5863
-52.735
-41.6751
-40.2515
-42.5624
-41.2296
-45.9808
-45.4116
-81.5713
4.90101
-76.7976
-76.6615
-52.3675
-38.3917
-39.4961
-44.7705
-42.1484
-39.4833
-40.9168
-44.8049
-81.0228
-77.302
-45.4518
-44.8278
-74.6301
-76.8964
-73.9967
-44.5272
-45.1799
-92.3031
-92.2529
-50.6953
-50.7996
-60.879
1.73087
1.88807
-60.7429
147.643
153.452
153.406
147.592
-39.752
-38.1117
-43.3445
-47.9887
-39.3619
-47.5107
-42.5332
-37.4196
-40.525
-40.4063
-40.031
-40.221
-95.0962
-67.574
-66.7514
-94.2874
-43.6038
-48.5398
-47.0981
-42.9969
-42.0934
-41.2532
-42.7702
-45.5001
-45.6943
-45.4031
-53.8066
-54.8418
-51.6123
-46.4688
-41.3847
-50.6018
-47.3786
-46.5434
-37.3813
-44.601
-131.577
-155.273
-99.2632
-55.8142
-48.1726
-50.5784
-112.084
-0.888837
-100.103
-52.182
-44.6648
-49.1409
-155.535
-132.144
-99.1546
-46.1021
-51.1535
-47.8267
-0.823131
-111.851
-99.8953
-34.9819
-44.5323
-42.6801
-40.2421
-38.2807
-39.8194
-40.3673
-49.8452
-35.1682
-35.7597
-38.6608
-54.7426
-53.6608
-58.507
-62.6878
-44.5864
-44.004
-46.3954
-50.5198
-39.9928
-40.1985
-37.985
-39.5333
-48.5307
-38.2081
-34.5033
-34.9686
-54.3535
-62.498
-53.2571
-58.0371
-43.1481
-49.3722
-42.8184
-45.4207
-135.452
-149.967
-106.316
169.663
-171.467
-171.41
-120.831
30.5745
-61.2561
-57.6673
-53.8519
-61.0347
-51.0785
-50.2935
-50.8296
-46.1613
-47.446
-46.9031
-51.8234
-46.5558
-50.7528
-45.0707
-45.8964
-49.9524
41.6441
40.3076
-103.896
126.34
-54.228
-42.5097
-48.1361
-28.7389
-39.1924
-32.0775
-36.6721
-38.389
-45.3119
-44.0364
-44.0834
-47.3634
-135.424
-149.885
-106.057
169.873
-61.0602
-57.4232
-53.5687
-60.9634
-45.2978
-44.0244
-46.0301
-39.8655
-48.7147
-43.6406
-43.9286
-49.0721
-53.9288
-42.234
-47.8902
-28.5304
-41.6238
-41.797
-41.2898
-44.635
-37.6048
-37.168
-38.1634
-37.6462
-41.886
-45.6819
-43.6978
-43.4542
-44.8582
-44.8103
-48.4026
-43.0851
-39.6971
-41.2335
-39.98
-41.9917
-43.3178
-43.1904
-42.1074
-45.2311
-54.5196
-49.6694
-48.7828
-65.5
23.5544
23.6251
15.0728
-1.26929
-60.4576
-60.0542
-67.7494
-56.4158
-37.2167
-36.6465
-37.6735
-37.3655
-41.5613
-45.3178
-43.3865
-43.065
-38.593
-40.0841
-39.064
-40.6003
-53.9437
-48.9465
-48.1547
-64.8324
-60.3295
-52.7661
-49.865
-47.2915
-60.069
-52.4982
-49.617
-47.0315
-79.1247
-66.5309
-66.4896
-58.9547
-36.3261
-21.7834
-21.7063
-6.59468
197.068
184.045
199.15
197.061
-40.0365
-42.1986
-40.6065
-43.4656
-39.4914
-41.7014
-40.1255
-42.8748
-40.3634
-40.8983
-40.7082
-40.2915
-89.916
-104.605
-88.1054
-89.6772
-45.0312
-44.456
-43.5447
-43.1383
-42.1082
-42.1866
-41.0311
-41.164
-52.465
-49.737
-49.4589
-47.4462
-43.87
-46.8241
-45.6901
-49.027
-43.8973
-41.8899
-42.0041
-41.3122
-106.329
135.516
-115.459
49.4332
-75.207
-85.9352
-50.3046
-47.4669
-54.6875
-47.3796
-49.9873
-54.8284
-105.365
155.664
-100.325
118.18
-73.0435
-61.2785
-50.5845
-45.8134
-42.6578
-44.0923
-46.8894
-48.5167
-115.327
49.4438
-106.044
135.95
-74.7966
-85.6769
-53.0717
-46.4521
-46.3337
-45.5662
-47.329
-53.3593
-100.128
121.377
-105.15
155.686
-72.8273
-61.1381
-35.839
-34.7842
-44.8426
-37.8097
-42.3276
-42.8116
-45.0664
-47.7554
-38.771
-38.342
-42.0409
-40.2257
-46.6256
-41.6992
-44.5105
-45.9507
-37.4103
-37.4958
-37.5977
-42.4154
-41.0769
-45.4628
-45.6963
-7.46906
-47.4385
-48.8875
-52.1248
-83.85
13.3572
-13.2095
-43.5411
-48.2229
-42.748
-42.7234
-45.8893
-56.1458
-61.2529
-53.9903
-44.7968
-47.6301
-46.5322
-41.593
-38.4017
-38.1323
-41.76
-39.8831
-43.116
-45.6022
-40.8541
-45.173
-36.6871
-37.3952
-36.7814
-41.0398
-45.391
-7.21717
13.5499
-12.831
-47.0975
-48.4597
-51.6232
-83.2077
-41.7696
-46.7286
-60.5343
-53.1443
-41.7798
-41.2914
-45.0622
-55.308
-77.7198
-75.88
179.88
197.037
-95.4255
-95.4339
151.954
151.99
-61.7087
-52.1552
-75.8876
-57.0045
-47.829
-47.2742
-45.2512
-45.3759
-53.0759
-53.5909
-46.8649
-46.543
-44.0155
-46.7884
-47.4876
-53.6562
-59.731
-59.6632
157.651
157.606
-44.7449
-57.2565
-38.9653
-10.7445
-43.6139
-40.6623
-38.3636
-42.2817
-45.1118
-43.1776
-49.0842
-46.2659
-77.3922
-75.6464
197.068
179.858
-61.3801
-51.8789
-75.8866
-56.8844
-43.3007
-44.4527
-40.6775
-40.0989
-42.242
-44.2361
-47.0631
-52.9074
-57.0246
-44.523
-10.9746
-38.8385
-41.0356
-41.7351
-43.2099
-47.695
-39.3307
-38.5394
-39.8974
-39.7744
-45.7567
-44.692
-41.0237
-45.0809
-52.2202
-52.2689
-41.3957
-41.3391
-39.2197
-41.5495
-42.9171
-42.8357
-40.9254
-41.0187
-45.8311
-45.661
-44.3112
-46.9845
-95.7938
-74.5742
4.4617
4.40224
-77.9078
-77.7374
-75.0911
-74.801
-52.3257
-51.7852
-38.8826
-37.9424
-39.7628
-39.6029
-44.3996
-45.4799
-40.6086
-44.6223
-40.7584
-38.4785
-41.3293
-41.1385
-46.4456
-43.6152
-73.9707
-95.2452
-101.46
-61.0469
-61.3819
-108.231
-41.1645
-42.9175
-50.118
-54.7945
-51.4425
-44.6092
-45.7245
-44.9395
-103.884
-104.912
-58.9235
-56.2904
-101.108
-108.053
-61.0873
-60.7124
-103.679
-56.0622
-58.6813
-104.697
-51.0825
-44.6145
-45.4948
-44.3441
-40.9005
-54.531
-49.8452
-42.622
-107.316
-119.581
-78.3269
-70.6403
-107.064
-70.5055
-78.2891
-119.476
-41.6206
-47.9079
-58.4068
-54.8142
-41.6182
-55.2458
-58.4548
-47.9552
-93.0633
-42.2625
-37.3842
-106.965
-18.0495
15.2664
-7.67362
-18.3368
-17.6524
-18.1448
-7.5957
15.3316
-92.8408
-106.877
-37.3149
-42.1203
7.99063
151.081
179.359
94.0495
107.245
126.223
204.32
180.155
107.048
180.236
204.311
126.171
7.19242
94.0479
179.569
151.458
-39.2345
-38.4066
-40.534
-41.5383
-36.4101
-38.8475
-39.5384
-37.8246
-44.807
-47.126
-42.3244
-41.1269
-53.2894
-45.7569
-44.164
-50.5648
-38.9127
-41.1725
-40.0593
-37.9828
-52.8391
-50.0051
-43.6476
-45.3512
-43.8234
-40.1772
-41.6479
-46.4107
-35.6593
-37.2559
-38.906
-37.9736
-39.1406
-42.747
-40.6573
-37.8553
-38.9576
-37.612
-40.5937
-42.6954
-37.2347
-41.8058
-40.42
-37.6782
-37.5427
-38.0243
-40.5013
-41.915
-97.0575
-72.6634
-103.681
-1.77025
-52.897
-66.4517
-86.0799
-60.1966
-51.9341
-59.4529
-85.8083
-66.1191
-96.4737
-1.67247
-103.453
-72.0294
-44.7341
-44.5695
-43.5154
-42.1338
-49.8887
-50.6219
-45.8589
-48.0866
-49.5827
-45.1761
-44.7982
-50.9311
-43.7199
-42.0572
-42.9111
-43.6356
-43.188
-40.7454
-41.633
-42.9276
-42.2645
-41.4184
-40.8685
-40.6487
-43.6188
-45.6568
-41.6859
-41.6268
-46.5505
-45.7299
-43.1052
-46.165
-49.2727
-45.359
-47.5331
-47.1057
-48.3598
-46.4575
-47.3211
-45.2173
-55.4933
-51.9012
-52.4334
-54.1529
-57.6835
-55.3382
-52.8052
-52.6948
-48.2747
-47.9878
-49.2491
-55.9966
-46.9429
-39.4397
-44.9666
-47.2945
-39.1241
-43.546
-43.2221
-35.2016
-46.8962
-55.5366
-48.4885
-46.026
-47.485
-46.9956
-43.6319
-45.8418
-45.6418
-39.5725
-41.6949
-46.5753
-36.0477
-36.3537
-41.0223
-39.5688
-45.4424
-46.1864
-43.7422
-41.3424
-123.24
-136.975
-137.273
-58.2725
-49.713
-51.3877
-92.1954
0.339764
-146.213
-52.152
-45.8805
-48.9203
-138.954
-122.04
-136.909
-46.9909
-51.777
-48.3793
0.786043
-91.9809
-145.952
-37.7755
-44.2317
-41.7793
-39.4051
-38.6228
-39.3425
-38.3971
-38.9663
-33.6968
-33.2127
-25.671
-59.6485
-56.4586
-58.9927
-85.0987
-44.9456
-44.569
-45.7677
-48.1581
-39.1509
-38.156
-38.2573
-39.0697
-37.5388
-25.8356
-33.0031
-32.5467
-59.2394
-84.6071
-56.0433
-58.5448
-43.6521
-47.0066
-43.3897
-44.7026
-129.855
-144.814
-137.675
53.6757
-172.093
-172.061
-144.291
-100.295
-58.3242
-54.3812
-53.7013
-58.1922
-49.592
-50.0602
-56.7554
-46.456
-47.2153
-46.9381
-48.6295
-46.7435
-48.7233
-45.9003
-46.3241
-47.945
50.2032
48.9877
-94.2953
102.596
-48.9356
-43.8991
-48.0318
-36.2017
-36.9534
-33.4875
-35.1923
-37.2628
-44.774
-44.1684
-44.2208
-45.6907
-130.038
-144.823
-137.467
54.2259
-57.7739
-54.2185
-53.4314
-57.9865
-43.4786
-44.102
-50.5274
-40.4121
-46.8308
-44.3313
-44.4487
-46.683
-48.6887
-43.6356
-47.7842
-35.963
-41.5379
-41.6428
-41.3971
-42.683
-37.5174
-37.3479
-37.8008
-36.9419
-42.5634
-44.4712
-43.5082
-43.463
-45.1599
-45.1362
-46.6975
-44.0495
-40.056
-40.828
-40.0867
-41.0646
-43.4276
-43.3653
-42.7348
-44.1725
-53.1134
-50.7647
-50.3764
-58.8776
23.3912
23.4237
21.5694
15.6697
-61.2134
-61.0089
-64.4601
-58.738
-37.1006
-36.8629
-37.3289
-36.5344
-42.2276
-44.116
-43.1806
-43.0968
-38.9405
-39.6891
-39.073
-39.8055
-52.5064
-50.0852
-49.7405
-58.2009
-54.9333
-52.0929
-50.7982
-48.8392
-54.6772
-51.834
-50.5487
-48.5857
-72.4987
-66.9885
-66.9679
-62.8478
-28.5469
-21.3139
-21.2776
-12.813
197.125
187.203
203.794
197.122
-40.7188
-41.8145
-41.2037
-42.3554
-40.1611
-41.2821
-40.5896
-41.7742
-40.5352
-40.6872
-40.5991
-40.5001
-91.5293
-97.8508
-89.5021
-91.4107
-44.5571
-44.1892
-43.7849
-43.4798
-41.9065
-41.8513
-41.325
-41.3032
-50.8019
-49.6531
-49.4612
-48.4644
-44.9216
-46.5385
-45.9579
-47.5792
-42.9941
-41.8724
-42.3795
-41.6758
-139.776
-131.993
-142.403
17.1703
-161.841
-170.47
-139.716
-94.9108
-86.0351
-67.7978
-74.1122
-81.2052
-54.2302
-52.9097
-51.2954
-48.1431
-47.8587
-47.5658
-50.4558
-47.47
-49.1234
-54.2438
-50.4517
-51.1622
-136.785
-149.552
-143.232
77.5443
-3.20882
30.5904
-109.13
86.1604
-81.6135
-61.0645
-73.367
-64.7445
-51.6386
-50.5053
-55.3291
-46.2108
-43.9738
-41.0681
-41.9059
-43.9345
-48.034
-45.9629
-46.7945
-46.953
-161.713
-170.395
-139.602
-94.939
-140.499
-131.543
-144.083
11.4378
-85.5676
-67.6902
-73.6009
-80.6906
-46.3081
-46.7034
-48.6661
-46.4568
-50.5102
-48.1379
-46.8394
-45.6977
-46.6606
-52.0004
-47.9848
-49.5164
-5.43414
31.1169
-106.382
93.2534
-136.6
-149.82
-143.007
77.5165
-81.404
-60.9082
-73.1472
-64.5235
-32.6451
-31.094
-34.0153
-33.7698
-44.2942
-43.93
-48.362
-39.1475
-42.4515
-41.7485
-42.1228
-41.4975
-41.6558
-48.3342
-44.7922
-45.4139
-38.0815
-37.7615
-38.3437
-37.315
-40.2947
-41.354
-41.2409
-40.4591
-42.7848
-44.3419
-45.1179
-42.5078
-47.0857
-44.8435
-44.8595
-45.9539
-36.0115
-36.9818
-37.0292
-36.3367
-37.512
-39.1144
-37.6234
-40.0804
-42.1502
-43.0631
-41.7933
-43.7946
-48.7912
-42.0208
-45.3074
-24.1693
-50.9438
-47.1811
-48.3211
-49.0736
-57.6635
-55.5566
-54.5311
-67.7573
4.03893
22.5505
19.3821
5.66585
-44.3899
-43.9679
-43.7441
-46.317
-43.4155
-41.7473
-42.5785
-42.5836
-47.0477
-48.6773
-46.868
-52.4175
-53.5968
-59.0767
-59.0843
-55.9563
-41.4029
-48.0651
-44.5228
-45.2096
-42.6667
-44.2687
-45.0245
-42.4063
-37.7645
-37.3996
-37.99
-37.0051
-39.9975
-41.0397
-40.9499
-40.1369
-45.9437
-43.5481
-43.5381
-45.2842
-41.7686
-42.8656
-41.5449
-43.5089
-35.3886
-36.4292
-36.4066
-35.8554
-36.591
-38.038
-36.7243
-38.7927
-48.4323
-41.7277
-44.9934
-23.8435
4.40875
22.6816
19.6068
5.90781
-50.5517
-46.808
-47.9596
-48.6691
-57.1699
-55.0098
-54.0169
-67.1941
-42.7951
-41.9742
-41.9602
-44.5403
-52.5624
-58.4812
-58.365
-55.1484
-42.2332
-40.587
-41.5157
-41.2883
-46.1515
-47.9059
-46.0376
-51.5796
-89.1284
-67.622
-77.6573
-76.5298
189.96
195.591
184.94
200.746
-107.293
-87.0565
-96.1775
-96.2009
147.269
166.311
151.906
151.923
-53.9946
-53.1837
-56.696
-51.9324
-63.2079
-65.8567
-69.8196
-60.8681
-48.9557
-46.078
-47.682
-47.4248
-45.8804
-44.759
-45.2387
-45.4738
-52.1039
-53.2493
-52.9416
-53.1901
-46.4007
-44.6862
-46.5207
-46.3546
-45.4715
-44.7642
-44.4628
-45.8901
-50.006
-49.8177
-48.5832
-51.4558
-76.3808
-46.9663
-59.2674
-59.216
125.936
190.248
157.201
156.087
-48.141
-49.0897
-45.9963
-52.1451
-25.6278
-22.4363
-31.0005
-16.9298
-39.9215
-42.669
-42.4332
-40.8931
-38.7213
-41.1866
-39.0473
-41.0509
-44.0104
-43.4726
-44.3379
-43.5092
-47.6582
-47.0582
-48.1206
-46.6164
-88.8725
-67.3573
-77.3667
-76.2823
189.936
195.587
200.757
184.973
-53.7084
-52.9087
-56.3948
-51.6579
-63.142
-65.7947
-69.7451
-60.7742
-44.8159
-42.8309
-43.6071
-44.1632
-40.0199
-40.9762
-40.1558
-40.4815
-43.4297
-42.5875
-42.5256
-43.5639
-49.3068
-49.4
-48.098
-50.8159
-47.8932
-48.905
-51.9075
-45.718
-25.4548
-22.3343
-16.791
-30.8975
-41.2397
-40.8889
-41.1181
-41.3376
-45.3261
-45.4294
-44.1229
-46.459
-38.5638
-39.3766
-39.1381
-38.7299
-39.1808
-40.058
-39.7341
-39.6658
-44.0652
-46.2745
-45.4254
-44.7716
-43.0114
-42.5401
-41.809
-43.839
-50.4017
-55.5422
-52.5478
-52.5712
-42.3039
-41.2162
-41.6128
-41.585
-40.0653
-40.5122
-39.723
-41.0015
-42.5923
-42.7879
-42.6677
-42.7352
-41.6294
-40.9043
-41.1474
-41.1934
-45.5806
-46.6006
-45.8443
-45.7528
-47.0997
-44.2192
-44.8109
-46.0539
-73.8876
-86.7452
-88.2508
-77.8354
9.95433
-1.09985
4.7479
4.78066
-32.3696
-105.928
-77.4305
-77.3711
-71.4748
-83.1378
-76.2955
-76.1476
-54.3157
-50.5952
-52.4317
-52.1557
-38.0576
-38.8458
-38.6577
-38.1759
-38.989
-39.9462
-39.5906
-39.5035
-43.7689
-46.003
-44.4835
-45.1456
-42.6012
-42.0733
-41.383
-43.3913
-39.228
-39.8036
-40.1141
-38.9673
-41.0752
-40.9917
-41.0494
-41.0613
-46.4813
-43.622
-45.4846
-44.1618
-73.2364
-86.3795
-77.2625
-87.7097
-88.5031
-76.3578
-77.6363
-68.4689
-45.2986
-43.3805
-49.8715
-45.6444
-44.9945
-45.8358
-44.3542
-44.5799
-86.7142
-73.3485
-75.082
-64.3791
-88.2013
-75.9317
-77.2683
-68.1047
-86.4996
-73.1313
-74.8553
-64.1526
-44.6913
-45.516
-44.1169
-44.2833
-45.0274
-43.1059
-49.5982
-45.3697
-102.424
-89.4725
-94.2021
-83.7104
-102.379
-89.4106
-94.178
-83.3447
-49.5741
-48.4251
-53.3633
-51.6079
-49.6868
-48.5212
-53.4823
-51.6836
-77.2442
-60.8919
-61.2474
-48.8864
-1.46619
6.21352
-4.73485
3.10176
-1.25887
6.49576
-4.58623
3.21572
-77.102
-60.7421
-61.1471
-48.7581
141.309
140.765
163.448
151.431
164.158
115.436
187.781
153.346
115.973
164.154
154.828
187.703
140.799
141.376
151.495
163.362
-39.2303
-39.9822
-39.5399
-40.2714
-37.7025
-37.8543
-38.285
-38.6295
-42.9611
-44.5439
-42.3495
-43.7603
-48.48
-49.8737
-46.4526
-47.4949
-38.8492
-39.617
-39.122
-39.8706
-48.0283
-49.3842
-45.9851
-46.9868
-42.077
-43.7222
-41.5489
-43.0105
-37.0305
-37.1041
-37.6443
-37.911
-39.9299
-41.045
-40.155
-41.025
-40.9329
-39.7825
-40.9375
-40.0287
-40.411
-39.4241
-40.5482
-39.7538
-39.6421
-40.6148
-39.9341
-40.6912
-113.663
-49.2319
-105.24
-79.0801
-60.8806
-64.2261
-70.9843
-72.4432
-64.1193
-60.1141
-72.0398
-70.3512
-48.4025
-112.836
-78.7762
-104.68
-44.1043
-43.4873
-43.7421
-43.1734
-49.1899
-48.9745
-48.0671
-47.6613
-48.4053
-46.9986
-47.1639
-46.0249
-43.2652
-42.8693
-42.9174
-42.8902
-42.65
-42.0658
-42.1116
-41.6916
-41.4995
-41.2884
-40.9945
-41.1706
-43.4963
-42.5297
-43.02
-42.1845
-45.7243
-46.1387
-44.8429
-44.8765
-45.8311
-45.6597
-46.5431
-45.7769
-45.4252
-45.3551
-46.1697
-45.5263
-52.9108
-54.109
-53.4004
-53.9589
-54.1939
-55.364
-54.1802
-54.8392
-51.4432
-53.032
-50.2119
-52.0406
-46.7353
-48.1302
-45.0449
-46.0917
-39.9232
-42.5041
-40.8691
-42.22
-50.2326
-52.1076
-49.04
-51.249
-47.4216
-47.4324
-46.6484
-47.1764
-46.6563
-46.0622
-46.6386
-44.6455
-35.8399
-36.9527
-37.7758
-38.7753
-45.2277
-44.2149
-44.9904
-43.5447
-138.451
-32.2083
-132.109
-97.8442
-98.9389
-102.453
-51.3376
-48.247
-52.9483
-47.6835
-49.7888
-55.4139
-149.131
75.6413
-95.143
80.9274
-101.116
-97.5067
-52.8567
-45.9694
-43.9771
-45.333
-49.1755
-50.4064
-131.816
-99.3092
-137.607
-35.2289
-98.6542
-102.527
-50.5395
-45.7584
-47.312
-45.7625
-46.7546
-53.1121
-95.0744
81.7559
-148.905
75.8524
-100.908
-97.2633
-36.5075
-35.5181
-45.841
-38.1719
-43.0619
-42.3826
-40.7019
-40.1184
-38.7492
-37.757
-40.264
-39.4674
-42.0464
-39.5122
-46.9035
-55.3356
-35.8485
-34.6254
-35.8963
-39.8501
-37.0303
-45.0333
-53.9834
-52.3219
-52.9238
-53.5157
-56.076
-73.1212
-27.1105
-94.9782
-44.034
-46.7811
-44.3628
-43.8041
-45.4666
-50.0384
-51.6252
-49.3373
-40.4475
-39.9319
-41.766
-39.3391
-38.442
-37.5166
-39.991
-39.1652
-45.3962
-54.1476
-36.6951
-44.2976
-35.1375
-34.0845
-35.1001
-38.2292
-53.6117
-51.8595
-26.6157
-94.3829
-52.5418
-53.0894
-55.6147
-72.6084
-42.5886
-45.3564
-50.5769
-48.0864
-43.2855
-42.4963
-44.4872
-49.0694
-138.584
59.0859
-138.45
61.8532
-107.586
-105.167
156.98
175.726
-142.151
-99.13
-142.094
-99.1386
-120.533
-120.445
70.6244
70.6109
-60.4723
-66.3585
-56.295
-55.4236
-56.6258
-52.7014
-65.2742
-58.1225
-54.3683
-46.4026
-57.3421
-46.538
-50.997
-50.9909
-45.9739
-46.2467
-49.2854
-47.1641
-48.4201
-46.6982
-51.7554
-52.1525
-46.6969
-46.4824
-48.9601
-58.8071
-44.7704
-45.9654
-45.0937
-46.7841
-48.2644
-52.1285
-91.2693
93.9552
-95.2212
93.7711
-103.89
-103.83
130.99
130.959
-56.2662
-47.74
-44.5839
-29.8169
-45.9359
-51.7066
-35.3035
-23.211
-38.8189
-40.68
-33.0771
-34.9351
-38.0262
-35.7006
-37.1118
-39.6394
-45.1615
-46.0926
-43.8004
-45.758
-44.5779
-43.8201
-47.2813
-46.4335
-138.477
60.0564
-138.234
62.0015
-107.4
-104.935
175.844
156.39
-60.1747
-66.2578
-56.0368
-55.1723
-56.3217
-52.4309
-65.1671
-58.3646
-48.7943
-40.4116
-50.602
-40.2873
-45.9432
-46.3173
-39.5304
-39.951
-46.7327
-57.1919
-43.2076
-45.0774
-43.2961
-44.6318
-47.5223
-51.1404
-56.0405
-47.5417
-44.3167
-29.5637
-51.4705
-45.6621
-23.0344
-35.1593
-41.5505
-42.1004
-41.5707
-43.4624
-41.3203
-41.4267
-43.3848
-45.0057
-37.9852
-37.0827
-37.4839
-36.8004
-38.2895
-38.0436
-37.6245
-37.4073
-42.2208
-41.6681
-45.4327
-45.7825
-43.3147
-44.1841
-42.3672
-44.3138
-46.2918
-43.6834
-46.2446
-43.6343
-48.2636
-48.3145
-43.0029
-42.9776
-39.0263
-40.9323
-41.0919
-41.5961
-39.3277
-40.5424
-42.052
-41.9536
-42.5677
-44.1316
-42.4499
-43.9976
-42.0249
-42.0784
-45.2992
-45.229
-52.5489
-63.164
-48.3864
-55.4156
-48.0004
-49.7265
-68.7994
-62.6703
22.1018
15.4439
22.182
15.5195
15.1316
15.1622
-1.30315
-1.25771
-63.3051
-58.0879
-62.94
-57.6592
-67.4865
-67.3173
-56.3693
-56.1353
-37.5773
-36.733
-36.937
-36.3153
-37.8322
-37.5144
-37.3645
-37.0905
-41.9122
-41.3244
-45.0887
-45.3975
-43.8674
-43.0115
-41.9887
-43.9169
-38.0476
-39.6719
-40.0511
-40.3228
-39.6121
-38.424
-40.6633
-40.5547
-51.9807
-62.5538
-47.6656
-54.6656
-49.1337
-47.3314
-61.965
-68.1574
-60.9184
-59.4586
-56.1962
-50.5736
-47.2514
-53.5681
-48.6789
-46.4253
-60.6425
-59.2092
-55.9184
-50.3075
-53.3242
-47.0059
-46.1683
-48.4128
-78.9053
-78.5644
-71.8643
-62.3392
-71.8246
-62.2949
-58.7938
-58.8166
-36.4471
-36.4122
-28.812
-14.2471
-14.1688
-28.739
-6.80268
-6.76591
187.156
204.201
181.361
180.572
202.509
202.5
204.193
187.147