# vtk DataFile Version 2.0
tri_press
ASCII
DATASET UNSTRUCTURED_GRID
POINTS 3682 float
-0.693591 0.195 -1.965
-0.765 0.275 2.06808
-0.699131 0.645 -1.835
-0.685 0.944358 2.005
0.689471 0.195 -1.965
0.755 0.275 2.07301
0.695 0.645009 -1.835
0.685 0.941866 2.005
-0.753718 0.185343 -0.62064
-0.790754 0.198777 0.72372
-0.789829 0.840194 -0.555
-0.777271 0.932132 0.725
0.747636 0.185344 -0.618997
0.78268 0.19881 0.727007
0.786896 0.83919 -0.555
0.773721 0.928301 0.725
-1.45234 -0.18112 -3.04331
-1.45449 -0.11916 -1.99339
-1.50208 -0.12154 -0.647245
-1.53299 -0.126253 0.711807
-1.5197 -0.0769168 2.05904
-1.51591 -0.0300541 3.11431
-1.52055 0.0153091 4.15975
-1.44847 0.101133 -3.00172
-1.45087 0.185314 -1.95884
-1.51242 0.206495 -0.625431
-1.53652 0.214713 0.713652
-1.50204 0.2641 2.04829
-1.50533 0.310078 3.1026
-1.5163 0.354625 4.15016
-1.45158 0.627066 -2.90029
-1.46013 0.708553 -1.85458
-1.5345 0.851697 -0.565081
-1.52718 0.924485 0.719712
-1.45596 0.949856 2.01034
-1.48044 0.99187 3.06654
-1.50794 1.03668 4.12407
-1.468 1.54249 -2.79737
-1.47861 1.64104 -1.7615
-1.51014 1.79979 -0.492941
-1.5253 1.92537 0.761498
-1.51621 1.99134 2.03048
-1.51417 2.02845 3.06724
-1.52167 2.06659 4.11764
-0.717944 -0.176608 -3.04725
-0.706035 -0.111194 -1.99911
-0.743031 -0.131438 -0.645817
-0.775583 -0.138264 0.720962
-0.771375 -0.0746687 2.07454
-0.771011 -0.0291548 3.12509
-0.775415 0.0141887 4.16633
-0.716493 0.0983061 -3.00282
-0.768469 0.311904 3.11142
-0.774984 0.353714 4.15525
-0.71759 0.599826 -2.89207
-0.746847 0.989759 3.0658
-0.77052 1.03497 4.12443
-0.721358 1.52303 -2.78918
-0.724203 1.62231 -1.75249
-0.750769 1.79372 -0.487374
-0.772253 1.92828 0.761228
-0.77271 1.99317 2.0264
-0.772884 2.02845 3.06322
-0.779456 2.06596 4.11492
0.719213 -0.176881 -3.04689
0.72447 -0.111344 -1.99865
0.758489 -0.131628 -0.644268
0.774782 -0.138481 0.723834
0.753613 -0.074946 2.07839
0.73159 -0.0298893 3.12811
0.720234 0.0131598 4.16867
0.706235 0.0980973 -3.00261
0.719027 0.311034 3.11435
0.712186 0.352569 4.15747
0.710686 0.599573 -2.89193
0.696475 0.988032 3.06718
0.701755 1.03347 4.12607
0.758818 1.5223 -2.78883
0.76971 1.62142 -1.75216
0.768948 1.79231 -0.486975
0.743285 1.92624 0.761752
0.715689 1.99107 2.02711
0.70721 2.02655 3.06417
0.703898 2.06425 4.11607
1.45053 -0.181848 -3.04241
1.45902 -0.119799 -1.99224
1.5076 -0.122491 -0.644611
1.53498 -0.127508 0.716396
1.51219 -0.078221 2.06493
1.48729 -0.0318185 3.11956
1.47298 0.0131686 4.16416
1.43675 0.100481 -3.0011
1.44035 0.18474 -1.95818
1.50492 0.20534 -0.623213
1.53585 0.212921 0.717882
1.50082 0.262504 2.05399
1.47363 0.308025 3.10757
1.46328 0.35227 4.15435
1.44336 0.626291 -2.89984
1.45197 0.707739 -1.85429
1.52848 0.849479 -0.564277
1.52645 0.919927 0.721268
1.45625 0.94604 2.01251
1.4456 0.988622 3.06952
1.44844 1.03372 4.12731
1.49905 1.54094 -2.79658
1.51314 1.63919 -1.76072
1.52308 1.79703 -0.492001
1.50247 1.92158 0.762727
1.46924 1.98739 2.03208
1.45548 2.0248 3.06924
1.45083 2.06326 4.12
-0.738319 0.42 -1.94196
-0.00206 0.190904 -1.9691
-0.744443 0.169383 -1.29282
-0.744707 0.609679 2.05625
-0.005 0.273287 2.07226
-0.7773 0.237465 1.3959
-0.00206551 0.728825 -1.91882
-0.78804 0.786157 -1.195
0 0.977782 2.03967
-0.75109 0.9582 1.365
0.734181 0.420004 -1.94195
0.739241 0.169485 -1.292
0.739506 0.608433 2.05851
0.76846 0.237285 1.40001
0.784529 0.785681 -1.195
0.749007 0.95473 1.365
-0.773127 0.191169 0.05154
-0.876687 0.512769 -0.58782
-0.0030407 0.179412 -0.619819
-0.880367 0.565455 0.72436
-0.00403661 0.197483 0.725363
-0.780025 0.882638 0.085
-0.00146681 1.19964 -0.555
-0.00177497 1.35822 0.725
0.76606 0.191176 0.054005
0.872397 0.512267 -0.586998
0.876743 0.563556 0.726003
0.77652 0.879958 0.085
-0.854459 0.466384 -1.24391
0.859089 0.466136 -1.2435
-0.00255035 0.164163 -1.29241
-0.00176616 0.908114 -1.195
-0.00206275 0.420002 -2.19849
-0.876138 0.539112 0.06827
0.871922 0.537911 0.0695025
-0.00353866 0.187966 0.0527725
-0.00162089 1.34817 0.085
-0.876201 0.587567 1.38045
0.876356 0.585994 1.3825
-0.0045183 0.224724 1.39795
-0.000887486 1.19579 1.365
-0.0025 0.609056 2.12855
-0.714913 0.3075 -1.95244
-0.347825 0.190842 -1.96916
-0.730884 0.170325 -1.62891
-0.767639 0.44234 2.07495
-0.385 0.273195 2.07112
-0.781272 0.24611 1.73199
-0.730466 0.5325 -1.90022
-0.350598 0.715919 -1.90592
-0.775817 0.74781 -1.515
-0.712741 0.777018 2.02851
-0.3425 0.972159 2.03342
-0.718934 0.952168 1.685
0.343706 0.191132 -1.96887
0.710468 0.307502 -1.95212
0.726937 0.169661 -1.6285
0.375 0.27338 2.0734
0.759868 0.441716 2.07838
0.77085 0.247023 1.73651
0.346467 0.715988 -1.90598
0.72652 0.532507 -1.9004
0.772044 0.747624 -1.515
0.3425 0.971923 2.03443
0.709037 0.775149 2.02854
0.717665 0.948959 1.685
-0.757571 0.168873 -0.95673
-0.765422 0.186256 -0.28455
-0.872659 0.320328 -0.60423
-0.379609 0.179919 -0.620229
-0.77432 0.227827 1.05981
-0.785162 0.191751 0.38763
-0.89045 0.354671 0.72404
-0.397859 0.197202 0.724542
-0.793783 0.818025 -0.875
-0.871588 0.695646 -0.57141
-0.784082 0.860572 -0.235
-0.475714 1.18005 -0.555
-0.770406 0.951392 1.045
-0.869477 0.769123 0.72468
-0.780552 0.909289 0.405
-0.486506 1.33914 0.725
0.738304 0.182549 -0.955498
0.373529 0.179916 -0.619408
0.754628 0.19048 -0.282496
0.873078 0.317275 -0.602998
0.765983 0.227634 1.06351
0.389786 0.197219 0.726185
0.777603 0.19176 0.390506
0.892038 0.35002 0.726505
0.790595 0.817318 -0.875
0.472991 1.17997 -0.555
0.867695 0.694753 -0.570999
0.781176 0.859042 -0.235
0.767331 0.947483 1.045
0.48378 1.33888 0.725
0.86614 0.766382 0.725502
0.777153 0.906162 0.405
-0.845944 0.443192 -1.59293
-0.370191 0.420001 -2.15714
-0.00230517 0.166131 -1.63075
-0.00206137 0.305453 -2.15655
-0.851654 0.317884 -1.26837
-0.373497 0.163374 -1.29261
-0.861439 0.598623 1.71835
-0.373604 0.609367 2.10332
-0.00475915 0.244152 1.73511
-0.00375 0.441172 2.20192
-0.880791 0.412516 1.38818
-0.390909 0.224682 1.39693
-0.00191583 0.849233 -1.55691
-0.00206413 0.574414 -2.08165
-0.855842 0.626271 -1.21946
-0.394903 0.892302 -1.195
-0.000443743 1.04714 1.70233
-0.00125 0.793419 2.08835
-0.859295 0.772883 1.37273
-0.375989 1.18224 1.365
0.846619 0.44307 -1.59272
0.366059 0.420003 -2.15715
0.860449 0.31781 -1.26775
0.368345 0.164169 -1.2922
0.857366 0.597214 1.72051
0.368503 0.608744 2.10126
0.879348 0.41164 1.39126
0.381971 0.224766 1.39898
0.862866 0.625909 -1.21925
0.391382 0.892261 -1.195
0.855667 0.770362 1.37375
0.37406 1.18208 1.365
-0.888304 0.333304 0.059905
-0.389018 0.188198 0.0521562
-0.862634 0.489577 -0.915865
-0.874676 0.52594 -0.259775
-0.00279553 0.16224 -0.956114
-0.00328968 0.183719 -0.283523
-0.879184 0.552283 0.396315
-0.877493 0.576511 1.05241
-0.00378764 0.189664 0.389068
-0.00427746 0.207449 1.06166
-0.868993 0.731331 0.076635
-0.496278 1.32631 0.085
-0.00161649 1.06062 -0.875
-0.00154385 1.30547 -0.235
-0.00169793 1.36587 0.405
-0.00133123 1.30935 1.045
0.889211 0.329434 0.0617537
0.381948 0.188197 0.0533887
0.858585 0.489202 -0.915249
0.870831 0.525089 -0.258748
0.875612 0.550733 0.397753
0.877775 0.574775 1.05425
0.865148 0.729398 0.0772513
0.493462 1.32609 0.085
-0.842108 0.312692 -1.61092
-0.856992 0.33347 -0.936298
-0.867852 0.651376 -0.895433
-0.84683 0.579385 -1.55397
0.847577 0.312656 -1.61061
0.848964 0.579208 -1.55386
0.863575 0.650819 -0.895124
0.864521 0.333308 -0.935373
-0.360661 0.165006 -1.62983
0.356025 0.166082 -1.62963
0.370322 0.162246 -0.955806
-0.375938 0.161716 -0.956422
-0.372751 0.848856 -1.53596
-0.395275 1.04384 -0.875
0.392048 1.04378 -0.875
0.368924 0.848866 -1.53596
-0.359008 0.306476 -2.11233
-0.360395 0.553457 -2.08376
0.356263 0.55346 -2.08338
0.354882 0.306478 -2.10252
-0.883934 0.325089 -0.272163
-0.889542 0.343905 0.391973
-0.869411 0.750314 0.400658
-0.868579 0.712633 -0.247388
0.884642 0.321606 -0.270622
0.865028 0.711379 -0.246874
0.865705 0.747921 0.401377
0.890782 0.339648 0.394129
-0.385606 0.181472 -0.284037
0.376594 0.186346 -0.283009
0.387258 0.189924 0.389787
-0.394835 0.189906 0.388349
-0.500104 1.2814 -0.235
-0.497405 1.34476 0.405
0.494625 1.34449 0.405
0.497315 1.28121 -0.235
-0.888429 0.397316 1.05611
-0.864259 0.427428 1.72517
-0.829964 0.774951 1.70167
-0.868484 0.760838 1.0487
0.882412 0.396411 1.05888
0.865127 0.758145 1.04963
0.826264 0.772756 1.70275
0.85952 0.426678 1.72851
-0.394152 0.207411 1.06073
0.385646 0.207487 1.06258
0.378485 0.244201 1.73581
-0.387955 0.243961 1.73355
-0.382756 1.30332 1.045
-0.359244 1.03891 1.69367
0.35828 1.03858 1.69367
0.380016 1.30323 1.045
-0.379302 0.441756 2.17645
0.371751 0.441444 2.17678
0.355501 0.784284 2.05791
-0.358052 0.785219 2.05689
-0.704808 0.25125 -1.95927
-0.520708 0.191475 -1.96853
-0.704785 0.190115 -1.79696
-0.754698 0.35867 2.05989
-0.575 0.27315 2.07055
-0.776884 0.256807 1.90003
-0.711237 0.58875 -1.86405
-0.524865 0.6874 -1.8774
-0.757931 0.716862 -1.675
-0.69874 0.860688 2.01663
-0.51375 0.962132 2.02309
-0.700167 0.946463 1.845
0.516588 0.191453 -1.96855
0.700498 0.251251 -1.95909
0.70089 0.189644 -1.79675
0.565 0.273425 2.07397
0.745474 0.358358 2.06373
0.766722 0.257215 1.90476
0.520734 0.688342 -1.87833
0.707167 0.588758 -1.86411
0.753973 0.716768 -1.675
0.51375 0.961703 2.02453
0.696469 0.858508 2.01622
0.699324 0.943404 1.845
-0.747707 0.185045 -0.788685
-0.75957 0.185799 -0.452595
-0.864564 0.227147 -0.612435
-0.567769 0.180418 -0.620435
-0.793673 0.202166 0.891765
-0.785742 0.19748 0.555675
-0.881986 0.256031 0.72388
-0.594565 0.197471 0.724131
-0.791361 0.828664 -0.715
-0.846799 0.775966 -0.563205
-0.786753 0.85018 -0.395
-0.68804 1.12066 -0.555
-0.774034 0.941958 0.885
-0.832468 0.855175 0.72484
-0.779382 0.921182 0.565
-0.668301 1.20846 0.725
0.741869 0.185048 -0.787247
0.561687 0.180422 -0.619202
0.753243 0.185802 -0.450746
0.861843 0.225567 -0.610997
0.785349 0.202205 0.895257
0.586413 0.197654 0.726596
0.777865 0.197561 0.558756
0.88016 0.253014 0.726756
0.788328 0.827837 -0.715
0.68468 1.11905 -0.555
0.843372 0.77501 -0.563
0.784203 0.849283 -0.395
0.770819 0.938185 0.885
0.665248 1.20658 0.725
[...]
POINT_DATA 3682
SCALARS point_scalars float 1
LOOKUP_TABLE default
-86.9789
-46.0291
-13.3673
-38.3376
-89.3639
-45.2557
-14.6131
-38.0265
-38.3299
-38.7873
-58.6764
-48.3674
-38.4865
-38.6993
-58.4852
-48.4226
-80.5402
-84.0452
-38.7318
-38.6005
-48.9521
-45.3517
-42.7639
-15.7474
-107.27
-39.4678
-39.2202
-47.2722
-40.5071
-37.3234
67.2126
-93.0997
-50.9898
-44.5092
-43.4705
-39.2844
-36.9787
-7.17916
-58.0219
-79.9141
-57.8728
-39.9532
-38.3852
-38.3852
6.64377
-146.537
-38.4495
-38.7233
-46.8153
-39.939
-39.3127
6.64377
-36.7762
-36.5973
160.248
-36.5114
-36.3771
56.4943
-34.1106
-77.1389
-61.155
-36.128
-35.8122
-34.7638
-7.93117
-142.702
-38.7173
-38.6776
-44.9804
-39.528
-38.9103
-7.93117
-36.515
-36.2489
159.944
-36.2271
-36.0936
57.2176
-34.3598
-77.4884
-60.0534
-36.0607
-34.6536
-33.8582
-79.3104
-84.363
-38.1814
-38.3469
-46.8914
-44.7441
-44.7441
-15.291
-99.722
-39.1391
-38.9201
-46.8799
-44.7441
-37.1231
67.7862
-90.262
-50.5795
-44.8789
-43.2458
-39.097
-36.7825
-8.99772
-58.0529
-81.1193
-59.4027
-37.8357
-38.0993
-38.0993
0.81338
-117.372
-52.1288
-38.8554
-36.6358
-37.6617
-6.95112
-49.7268
-35.6884
-45.502
-4.15036
-52.2354
-38.4159
-37.9849
-51.1346
-45.4779
-35.9698
-45.12
-40.0208
-41.7342
-38.2672
-51.8756
-35.9373
-65.1754
-36.0148
-44.5264
-41.7785
-51.4635
-52.8897
-54.8082
-57.9455
11.9777
207.351
-41.3242
-41.1455
-36.2939
-80.722
-42.7475
-43.1542
-39.6998
-39.575
-26.1525
-5.22775
-114.982
-72.9163
-41.5225
-40.2809
-43.2551
-1.14224
-3.13729
-54.7938
-38.5709
-34.4356
-40.0522
-116.459
-5.5058
-70.6407
-39.7975
-41.1083
-42.7078
-3.08298
0.754115
-53.6119
-34.2368
-38.3957
-40.0045
-47.0832
-37.5768
-40.5174
-39.2894
-38.5084
-38.0089
-39.5239
-38.3571
-56.1419
-50.7407
-54.9387
-40.5577
-47.5386
-44.6062
-48.7207
-62.3045
-42.9221
-39.3676
-36.8924
-39.8109
-38.3225
-38.3695
-38.0152
-39.4149
-56.8701
-40.5663
-50.2074
-54.4098
-47.1926
-62.1797
-44.9705
-48.6902
-80.2718
180.87
-72.4356
163.204
-52.337
-56.5651
-46.9242
-34.338
-39.3238
-28.9047
-41.1616
-39.6549
-21.8051
147.588
-52.9614
4.68135
-34.5096
-25.3491
-44.6257
-40.7423
-82.1621
180.928
-53.935
-56.5521
-46.6347
-33.8001
-41.5117
-39.6596
-55.6748
5.18919
-45.0108
-40.7228
-38.9301
-36.0321
-44.3628
-42.8029
-49.2074
-37.4864
-41.2702
-41.7964
-37.7355
-40.3113
-45.1528
-72.9042
6.32939
-87.9779
-74.1694
-51.2558
-38.6121
-36.0824
-45.4664
-42.5992
-41.0806
-41.555
-46.2266
-72.8814
-80.3749
-42.646
-48.708
-81.349
-84.0657
-80.0996
-48.8033
-44.5204
-70.5617
-71.111
-48.1212
-48.9141
-26.5287
1.22634
1.23402
-26.6472
173.956
106.488
106.868
173.114
-39.2497
-38.9303
-44.5114
-47.0762
-38.798
-47.1951
-44.4963
-38.6133
-37.3989
-37.0529
-37.6307
-37.6256
-82.5181
-67.5115
-67.4559
-82.3724
-41.844
-48.0343
-44.6787
-45.4801
-40.6428
-42.7966
-44.4932
-48.2176
-40.2653
-40.2921
-40.0159
-40.2092
-52.6807
-35.5503
-35.475
-52.6648
-35.8609
-35.4453
-32.8895
-33.4358
-31.7037
-127.568
-95.4119
-44.0609
-42.9946
-43.7189
-3.53209
4.11635
-54.3958
-38.9585
-34.923
-37.854
-127.78
-27.7894
-94.0874
-42.4459
-43.3645
-43.3327
3.58455
-2.48089
-53.0921
-34.5873
-38.735
-37.8755
-39.3797
-37.4994
-38.9913
-38.579
-44.7611
-37.3571
-39.2267
-38.6774
-58.8681
-55.1151
-56.8733
-80.3715
-48.2735
-47.3096
-48.428
-55.9658
-39.2306
-38.6731
-37.6865
-38.416
-45.2234
-38.7103
-37.2526
-38.6626
-58.7211
-80.6155
-54.3228
-56.7777
-48.0916
-55.9027
-47.5068
-48.5858
-0.94637
-1.08002
-105.192
125.204
-116.602
-116.326
-88.7543
65.0594
-62.2726
-49.2446
-51.6572
-55.4594
-40.5627
-38.5
-45.5767
-36.1061
-37.9049
-37.5856
-38.3615
-31.4676
-40.6315
-38.1021
-40.5923
-39.0733
-5.49918
-5.21104
-24.3735
61.9028
-53.2588
-53.4966
-53.2821
-7.32467
-35.1692
-35.0883
-34.1593
-26.3342
-42.8957
-46.6893
-44.8333
-42.6994
-4.67266
-1.19052
-97.5318
123.608
-68.884
-51.953
-53.4452
-55.7974
-40.1651
-38.2009
-44.8193
-35.7516
-40.0076
-38.7062
-40.8969
-39.1135
-54.4364
-54.5519
-55.4926
-7.27997
-42.8004
-46.7765
-44.9713
-42.7049
-35.9377
-36.519
-37.2362
-35.8621
-42.5157
-47.6923
-44.235
-43.9959
-39.7953
-39.7996
-42.9125
-38.4642
-40.5381
-42.8529
-41.03
-42.1443
-38.2668
-38.2791
-37.3789
-39.3996
-52.8819
-50.3967
-50.4468
-61.5576
-36.8111
-36.8705
-13.3843
-61.444
-64.6215
-64.595
-70.9559
-59.0714
-35.8977
-36.5105
-37.1454
-35.9202
-41.845
-46.9508
-43.7564
-43.5369
-40.5365
-43.0683
-40.9389
-41.5484
-52.7557
-49.9401
-50.6454
-61.4811
-63.1697
-52.7326
-53.0154
-47.606
-65.7139
-54.3882
-55.2073
-49.7312
-65.5095
-57.4349
-57.6325
-52.2747
-6.67851
10.1419
10.2411
16.296
197.239
182.725
153.483
198.328
-40.1655
-41.8738
-41.4425
-43.2323
-39.988
-41.7932
-41.0718
-42.867
-36.1806
-36.3087
-36.7056
-36.2028
-79.0865
-83.2385
-77.7978
-79.0732
-45.3169
-41.9235
-43.9563
-41.6547
-46.1214
-42.3135
-44.5048
-41.5439
-39.8764
-39.7142
-39.6978
-39.8645
-36.6204
-39.8565
-39.8423
-44.3999
-30.0231
-26.2861
-25.977
-29.2975
-103.099
115.652
-85.5684
100.299
-79.5061
-70.0591
-46.0386
-36.8192
-40.0268
-36.9993
-48.5402
-41.083
-81.2012
69.5428
-25.4747
70.7912
-74.3723
-33.4617
-43.54
-35.7903
-34.3699
-33.8318
-42.5728
-36.5951
-86.9725
88.6441
-93.1543
116.964
-80.261
-71.0211
-39.7546
-36.5704
-45.5601
-36.5403
-48.61
-40.8237
-25.371
71.3816
-77.5201
69.2332
-71.4541
-33.4954
-34.2512
-33.2975
-43.292
-35.4765
-42.5965
-36.5249
-42.0703
-47.6617
-37.8688
-37.2485
-41.5345
-39.7058
-42.0568
-37.8662
-41.7724
-40.0663
-38.2743
-37.6542
-39.0686
-40.6866
-37.4032
-39.4453
-52.3887
-19.343
-49.7076
-49.0183
-51.0541
-70.0257
-18.5837
-60.907
-48.5986
-53.8703
-44.1507
-42.2165
-47.6067
-57.3325
-65.5877
-59.136
-43.1913
-46.6355
-42.0382
-38.0038
-37.3599
-36.7586
-40.597
-39.1754
-39.7866
-40.0494
-37.4418
-39.4491
-38.0509
-37.6685
-38.7987
-42.513
-52.3844
-19.2699
-18.5309
-60.942
-49.4537
-48.8501
-51.2053
-70.0036
-45.3593
-53.898
-65.5466
-59.061
-44.3763
-44.0563
-47.7939
-57.2442
-80.1169
-82.5156
169.606
160.111
-71.8864
-72.0971
171.867
171.764
-62.2587
-46.9602
-63.9318
-51.2742
-48.0454
-45.6557
-35.4127
-34.0184
-39.4886
-39.5994
-32.3352
-31.7482
-40.1446
-44.8426
-39.7083
-40.2709
-22.627
-22.8002
132.902
131.612
-49.8217
-65.0134
-11.867
10.8665
-34.8024
-34.7519
-28.7596
-29.3955
-44.8789
-43.4953
-45.687
-37.4922
-83.3638
-82.2869
160.392
167.695
-65.3279
-48.9463
-64.4675
-51.6567
-45.3831
-48.0895
-34.9363
-33.5112
-39.9554
-44.9631
-39.7435
-40.0957
-66.4406
-51.8474
10.9628
-12.6142
-44.6633
-44.8351
-37.4481
-45.6802
-39.4959
-38.9302
-36.0252
-36.5181
-43.5335
-45.9915
-41.123
-44.2102
-49.0159
-49.2054
-37.5143
-37.3558
-40.1395
-42.5047
-41.7147
-42.9302
-37.6901
-37.7018
-40.3033
-40.3225
-48.0983
-44.2758
-76.4616
-71.0842
5.65615
5.66777
-85.424
-85.3906
-72.8457
-72.8152
-51.564
-51.5594
-39.2102
-38.5198
-36.0472
-36.568
-46.4195
-45.4593
-40.7734
-44.4466
-42.4794
-40.0439
-41.566
-42.0553
-45.1898
-44.84
-70.9707
-76.4493
-105.083
-62.1885
-62.6853
-105.994
-39.1764
-42.7505
-47.2813
-47.5711
-54.1725
-51.5555
-48.3055
-46.6985
-69.0928
-96.0539
-64.1774
-64.5149
-97.8273
-96.1184
-65.1559
-66.8783
-65.7752
-66.0467
-66.5762
-90.1247
-54.2724
-46.3539
-50.4405
-52.7868
-38.4892
-49.0056
-49.157
-42.0868
-87.8027
-86.9058
-64.8266
-63.0291
-88.763
-64.1905
-65.1154
-87.9927
-41.0031
-42.6159
-51.9884
-50.752
-41.185
-50.4737
-51.9955
-42.703
-33.4325
-19.5856
-8.58567
-24.8738
-68.1997
-14.2893
15.4343
-3.88418
-68.4865
-4.16449
15.5646
-14.2975
-33.5388
-24.754
-8.21747
-19.8331
87.1321
111.369
168.655
94.5809
65.0058
80.4359
168.151
118.955
65.1476
119.16
166.018
80.4638
93.4387
88.0567
168.07
112.106
-37.9158
-37.5635
-40.6612
-41.7812
-37.9146
-40.11
-40.2478
-37.5262
-46.9894
-50.0123
-43.2434
-42.185
-52.8459
-46.1732
-43.2533
-47.707
-37.6725
-41.2278
-40.501
-37.3479
-52.7154
-48.788
-43.3794
-45.7874
-47.2446
-42.2056
-42.6497
-47.815
-37.5354
-37.3254
-39.8535
-40.0062
-37.432
-38.2587
-36.1968
-35.8281
-37.6449
-35.8235
-36.1875
-38.3191
-37.4439
-37.3842
-36.6626
-36.4967
-37.4327
-36.4505
-36.6371
-37.3634
-75.8759
-65.1229
-81.8268
-59.659
-55.9472
-70.1215
-76.0735
-59.0098
-55.8255
-58.9084
-76.0505
-70.0985
-76.348
-59.7102
-81.7934
-64.5449
-41.171
-39.0877
-40.9063
-41.4794
-46.9431
-45.567
-44.6943
-43.6067
-41.8771
-43.7273
-45.6087
-44.9312
-46.3149
-42.7845
-42.603
-45.1713
-43.099
-41.1974
-40.7217
-39.0379
-46.8424
-46.1333
-42.7355
-42.5669
-41.5302
-44.5479
-46.0027
-43.732
-46.5696
-44.1757
-45.1981
-44.9356
-40.212
-39.3845
-39.8512
-39.1564
-40.0428
-39.4109
-39.8496
-39.4123
-41.0861
-38.7324
-39.9386
-40.1426
-41.3935
-40.4648
-40.0076
-38.8954
-53.952
-47.8169
-44.7125
-59.2257
-35.1334
-34.1843
-36.8867
-38.9841
-34.9887
-38.9365
-36.8649
-34.1031
-53.7386
-59.2043
-44.7047
-47.7925
-38.093
-33.6828
-30.652
-36.6209
-37.7213
-36.4172
-29.8573
-32.9389
-35.4128
-28.8399
-29.1409
-35.6391
-35.742
-35.9699
-29.8513
-29.4388
-63.4324
-144.107
-132.63
-46.0702
-44.9656
-44.2825
-8.79222
-5.16907
-30.0848
-39.3046
-35.6839
-36.938
-143.96
-59.4012
-130.685
-44.6493
-45.0132
-44.2529
-5.22976
-8.65061
-29.4516
-35.4234
-38.9248
-36.7581
-38.8722
-37.8686
-38.1869
-38.2125
-40.525
-37.8409
-38.9997
-38.889
-59.2968
-56.2953
-58.0667
-66.7538
-48.1656
-47.8221
-48.3409
-52.0357
-39.0038
-38.3504
-38.0162
-37.697
-40.4241
-38.8269
-37.7007
-38.4446
-58.8611
-66.3533
-56.282
-57.4955
-48.1338
-51.9425
-48.037
-48.4492
0.734492
-0.293472
-62.3163
86.2097
-117.009
-116.837
-98.5508
-1.31587
-56.6131
-47.3525
-51.5493
-54.1585
-39.8125
-38.4371
-43.2029
-36.2928
-36.974
-36.786
-37.6055
-32.7234
-39.1987
-38.0971
-38.8378
-38.3586
-6.7181
-7.38577
-16.5123
3.00669
-52.59
-52.3179
-52.3734
-25.8736
-35.5094
-35.4772
-34.5783
-30.3063
-43.925
-46.4526
-44.9771
-44.6378
-4.87691
-2.97112
-53.6453
88.8586
-62.1283
-52.3509
-53.5564
-55.1461
-39.5116
-38.0038
-42.7527
-36.0154
-39.6828
-38.124
-39.0895
-38.5275
-54.26
-53.4652
-54.2958
-26.1143
-43.9923
-46.4018
-45.1176
-44.6233
-35.8853
-36.144
-36.4818
-35.8068
-43.761
-46.4481
-44.526
-44.8944
-39.9362
-39.9311
-41.2591
-39.1027
-41.0572
-42.2859
-41.4123
-41.824
-38.2578
-38.2637
-37.7591
-38.7917
-52.5079
-51.0414
-51.8474
-56.091
-36.1966
-36.2027
-26.0748
-44.1662
-64.9141
-64.8456
-68.1017
-62.2733
-35.9098
-36.1637
-36.5417
-35.8615
-43.2107
-45.7315
-44.1592
-44.2201
-41.0601
-42.4121
-41.4394
-41.7664
-52.1062
-50.4559
-51.1636
-55.6741
-57.6697
-52.8469
-52.9632
-49.9761
-58.3359
-54.5959
-55.061
-53.0915
-61.3518
-57.7801
-58.1133
-54.7883
3.71823
11.5378
11.5809
16.251
205.409
197.586
194.771
206.553
-40.6962
-41.5167
-41.2979
-42.1396
-40.5014
-41.446
-40.9472
-41.9332
-36.2514
-36.2173
-36.4647
-36.2685
-80.3399
-81.9518
-79.6482
-80.3367
-43.7637
-42.2483
-43.3306
-41.9355
-44.2865
-42.6547
-43.8428
-42.2373
-39.6206
-39.7219
-39.7118
-39.796
-37.9328
-39.652
-39.6445
-41.8479
-27.4453
-25.8975
-26.0938
-26.9643
-9.66245
-2.87108
-57.939
90.6077
-119.972
-115.927
-97.0111
-9.38385
-76.1116
-69.6617
-78.6263
-70.7306
-42.3405
-40.9847
-44.9656
-37.636
-41.4945
-38.9911
-39.9581
-37.9509
-42.9467
-41.9074
-46.9253
-41.6688
1.5164
-0.904655
-56.0345
43.2329
-2.46009
-3.21746
-14.0855
26.9965
-60.2693
-55.4433
-67.5052
-41.2458
-38.4747
-38.6592
-43.0749
-36.2169
-34.3762
-34.6754
-34.0962
-34.1311
-38.8012
-41.1608
-41.0387
-37.9874
-123.874
-115.954
-97.7856
-7.65368
-7.51826
-5.18912
-54.2765
87.7639
-75.4917
-67.5857
-77.536
-70.1575
-41.0078
-38.5713
-39.5994
-37.5578
-41.7876
-40.5419
-44.4794
-37.2373
-42.4122
-41.576
-47.1601
-41.399
-3.0033
-3.67878
-14.0282
26.1303
0.462176
0.791398
-57.0087
45.2401
-60.067
-54.965
-64.4834
-41.0023
-34.164
-34.5317
-33.9315
-33.7444
-38.1661
-38.4807
-42.7902
-35.921
-38.6967
-41.0231
-41.0669
-37.9754
-42.9395
-50.8769
-42.6398
-47.3865
-37.3815
-36.7578
-37.791
-37.3393
-39.6478
-41.5605
-40.8548
-39.8946
-38.9603
-39.5244
-40.4782
-38.4225
-42.2117
-37.0984
-42.1788
-39.5592
-37.6618
-36.9795
-37.9097
-37.8091
-39.2273
-40.0063
-39.3419
-39.8484
-38.4644
-38.2896
-37.8258
-38.8649
-59.1481
-56.204
-54.4343
-53.8324
-52.2918
-49.0923
-50.5407
-50.1649
-55.9463
-53.6415
-53.0084
-60.5248
-52.9849
-37.0624
-29.3392
-51.0965
-47.774
-46.9825
-47.0605
-50.272
-45.8232
-43.6796
-44.3939
-44.0505
-48.477
-49.2488
-48.7763
-52.8076
-60.7298
-64.0672
-64.2894
-60.8071
-40.808
-46.7592
-42.4236
-46.1157
-39.0755
-39.5689
-40.5291
-38.5369
-37.7642
-35.9565
-37.1203
-36.7167
-39.039
-40.8895
-40.0419
-39.0882
-42.1401
-37.4018
-40.0701
-39.3075
-38.4706
-38.3048
-37.8423
-38.8716
-37.5971
-36.9394
-37.8494
-37.8052
-38.9665
-40.0153
-39.1441
-39.9813
-59.392
-56.8136
-54.5209
-54.6713
-53.6892
-37.059
-29.2772
-51.1104
-52.1609
-48.4136
-50.2076
-49.7184
-55.4956
-53.3981
-52.9325
-60.5448
-47.3361
-46.9014
-46.6083
-50.0232
-60.5334
-64.0359
-64.2357
-60.7438
-46.1262
-44.0091
-44.6445
-44.5307
-48.5807
-49.3916
-48.9249
-52.6623
-94.0739
-71.1663
-80.1386
-81.4951
155.544
196.672
174.143
175.131
-78.3569
-70.156
-72.4456
-72.0322
133.125
175.076
163.71
164.328
-52.0374
-52.5853
-56.7991
-49.4192
-56.1439
-57.0259
-59.8544
-53.6938
-46.5267
-46.6876
-47.6453
-46.3377
-35.276
-32.6861
-34.8677
-34.3696
-38.9104
-39.8255
-39.3564
-39.4098
-30.3012
-27.7379
-30.1264
-29.6895
-40.7665
-41.6516
-40.5855
-42.6425
-39.5461
-39.7215
-39.6813
-39.727
-25.7443
-13.9024
-21.583
-21.746
123.561
148.259
143.33
143.629
-53.7206
-52.9689
-50.6024
-58.3071
0.800357
7.92435
-3.48586
9.83104
-34.2492
-35.3556
-34.5835
-34.5563
-25.4615
-25.6558
-26.1163
-26.5795
-44.6769
-44.4531
-45.0767
-43.7539
-41.5676
-40.2408
-42.83
-38.9658
-92.6232
-73.9853
-82.3957
-82.2409
155.658
195.261
175.38
172.41
-53.7186
-54.2684
-57.5557
-51.8533
-55.5148
-57.126
-59.8079
-54.0287
-46.0712
-47.0019
-46.0696
-47.4608
-34.8587
-32.0267
-34.3448
-33.8309
-41.0656
-41.9964
-40.6064
-42.8782
-39.5802
-39.7109
-39.7025
-39.7313
-56.3729
-55.6307
-59.9421
-54.0083
1.29368
8.20717
10.088
-3.41779
-44.9202
-44.9773
-44.0591
-45.223
-41.5489
-40.2222
-38.9417
-42.8193
-38.311
-39.4265
-39.1131
-38.9681
-35.9484
-36.0941
-35.9731
-36.2265
-44.31
-45.2962
-43.8712
-45.0055
-43.3956
-42.3215
-42.1856
-43.5931
-45.7352
-50.2681
-49.0342
-48.9285
-38.0254
-36.7635
-37.5653
-37.2268
-40.9917
-41.5009
-40.6553
-41.8817
-42.2103
-41.755
-41.5389
-42.1528
-37.6162
-37.0421
-37.788
-37.7232
-40.3122
-40.0006
-40.4066
-40.529
-47.9464
-44.6518
-45.6979
-45.0283
-67.3621
-76.8157
-73.7744
-72.3032
-3.57029
12.4572
6.16101
6.17894
-80.997
-84.8005
-87.0468
-87.0769
-73.1997
-75.7131
-73.8647
-73.8504
-55.1098
-47.6333
-51.3203
-51.3063
-38.0677
-39.0958
-38.8656
-38.5838
-36.0036
-36.1268
-36.007
-36.2801
-44.2068
-46.7372
-45.9412
-45.5259
-42.9722
-42.2369
-41.8122
-43.45
-40.8035
-41.0819
-41.7186
-40.4341
-41.6407
-41.485
-41.6241
-41.608
-48.2544
-44.2296
-44.9237
-45.4073
-67.1366
-76.777
-72.2421
-73.7468
-96.5677
-80.5184
-80.1433
-69.6771
-42.2715
-41.6869
-44.7863
-43.0487
-50.5045
-48.7616
-48.5652
-47.1565
-88.5731
-78.5585
-82.2441
-73.6432
-93.9286
-83.4477
-83.3396
-73.7261
-84.5939
-75.8256
-82.2244
-76.51
-50.7495
-48.6241
-49.3069
-47.3081
-43.8842
-42.4099
-45.6087
-45.0484
-74.7978
-70.1232
-71.0675
-68.8246
-76.2373
-70.9277
-71.3537
-69.2642
-46.9368
-44.976
-49.193
-48.7338
-48.2369
-45.1734
-49.5499
-48.9068
-30.0238
-29.7057
-23.8315
-19.5588
-3.60512
-7.44823
7.06224
4.41737
-4.35842
-7.42996
7.0957
4.42465
-30.322
-30.0631
-24.013
-20.1803
120.937
172.834
171.557
173.013
98.3891
93.7002
132.222
120.199
93.976
98.7336
120.753
132.714
152.755
125.643
172.162
171.662
-38.2793
-39.4073
-39.5614
-40.1022
-38.6049
-38.9135
-38.9977
-39.4517
-44.3077
-45.5336
-43.447
-44.9318
-48.0055
-48.75
-45.5994
-46.1002
-37.9483
-38.9226
-39.1601
-39.797
-48.0223
-48.7884
-45.6873
-46.4565
-44.3397
-45.7368
-43.404
-44.7593
-38.3347
-38.6202
-38.662
-39.2428
-37.3791
-37.5451
-36.688
-37.5312
-37.8227
-36.8952
-37.2988
-36.2309
-37.5949
-37.6302
-37.7238
-36.9176
-37.6061
-37.5671
-36.8704
-37.6972
-79.8161
-76.8553
-78.6788
-83.7554
-63.1346
-66.6891
-68.8548
-70.6356
-66.6147
-62.7702
-70.6047
-68.7852
-76.9997
-80.3895
-83.6685
-78.5333
-41.7902
-42.3329
-40.1575
-41.8691
-47.5047
-48.3647
-47.9355
-46.9848
-44.4956
-43.9344
-45.1812
-44.7019
-48.082
-43.5443
-44.59
-43.9111
-40.1531
-42.6067
-39.732
-41.0371
-42.9297
-43.5502
-44.3962
-42.5994
-44.2342
-43.7999
-44.9405
-44.6493
-46.5236
-48.4724
-48.2234
-48.0934
-40.2682
-40.4215
-39.8804
-40.3582
-40.3221
-40.3581
-39.9178
-40.3814
-39.8957
-40.381
-39.7156
-40.2374
-40.1283
-40.6167
-39.8711
-40.4727
-53.0864
-56.1119
-48.9722
-51.958
-34.9231
-36.04
-35.1192
-36.357
-34.823
-35.9771
-35.0553
-36.2911
-53.0935
-56.0842
-48.9586
-51.9507
-36.5718
-36.2086
-35.6897
-34.4809
-35.8054
-36.2666
-33.9826
-35.2428
-33.0301
-34.1978
-31.6345
-33.0347
-34.6029
-33.6032
-33.5606
-32.3073
-66.6669
34.1819
-104.798
3.34145
-96.7241
-88.9113
-46.7926
-39.012
-41.6532
-39.939
-46.6867
-42.2033
-49.6169
45.09
-19.1198
33.256
-60.2939
-41.2678
-42.2269
-36.336
-34.5457
-35.5463
-39.6831
-36.2054
-105.604
5.77476
-67.0953
37.7129
-92.2679
-88.821
-41.2519
-39.6279
-46.0518
-38.7535
-46.3184
-41.9217
-18.7951
33.958
-47.2051
48.544
-58.0336
-41.5025
-34.3391
-35.234
-41.8041
-35.9888
-39.6446
-36.104
-38.8463
-40.4773
-37.6521
-37.3464
-38.6285
-38.2635
-39.6506
-37.8735
-44.1303
-41.8888
-37.0226
-37.4641
-38.6436
-38.1511
-37.9374
-39.4146
-56.5238
-68.6109
-54.451
-54.107
-54.9077
-64.0204
-77.8597
-82.8645
-48.0319
-50.8545
-47.0586
-46.8269
-47.8852
-52.0559
-55.4481
-54.6248
-38.1807
-40.3122
-39.676
-38.0441
-37.5984
-37.5607
-37.8037
-37.9828
-45.5252
-41.762
-37.9486
-39.3949
-36.8015
-37.4114
-38.238
-37.1224
-56.4702
-69.314
-77.7514
-83.4175
-54.5609
-53.6251
-55.2047
-64.1139
-47.6977
-50.6789
-55.2736
-54.6425
-47.2085
-47.173
-48.1455
-51.9575
-61.6542
77.5208
-59.6543
72.6762
-106.379
-100.665
120.349
125.776
-97.9085
-22.6949
-97.7643
-24.5097
-87.6215
-87.7461
50.7858
55.7459
-62.1091
-62.6465
-48.3421
-50.3243
-55.8512
-48.5257
-58.6162
-53.5855
-44.0552
-37.0208
-43.9797
-36.378
-45.344
-45.5022
-36.456
-35.9804
-38.3867
-34.4754
-38.1582
-34.0806
-38.4498
-38.5361
-31.814
-31.4994
-41.8044
-40.2774
-37.9887
-38.7322
-39.5065
-41.0979
-39.1112
-39.5966
-17.5038
11.7312
-17.6853
11.7349
-24.3495
-24.3169
69.9384
69.7446
-59.1283
-29.5856
-52.2737
-34.7689
-51.4894
-58.074
-14.8045
-3.22531
-34.3623
-31.6044
-34.2809
-31.159
-34.1784
-34.1356
-26.9448
-27.3347
-42.9823
-41.0813
-46.06
-49.4844
-44.4648
-44.8489
-45.3523
-40.7737
-53.5884
82.5123
-57.4273
69.163
-97.3314
-93.9148
124.381
119.159
-67.5655
-65.3691
-49.5645
-49.8939
-57.9791
-51.3248
-59.2631
-53.2998
-43.4831
-36.7424
-43.5628
-36.0858
-44.8968
-44.8965
-36.2099
-35.6683
-42.2035
-39.8564
-37.9455
-39.3563
-39.6739
-41.3912
-39.1812
-39.6927
-60.2606
-29.4587
-53.4818
-35.4996
-60.4663
-52.6593
-2.2713
-14.6704
-43.018
-41.1017
-46.1877
-49.0573
-44.9103
-44.6165
-40.7754
-45.3737
-36.7567
-35.7707
-36.7592
-36.4141
-37.4483
-37.428
-35.8014
-36.0524
-42.3364
-42.4409
-47.4653
-47.483
-43.3746
-45.4243
-42.8289
-45.0789
-41.0178
-38.8822
-40.9999
-38.9211
-42.6629
-42.9549
-38.3694
-38.5414
-40.3738
-40.9065
-42.5923
-42.8129
-40.4925
-41.5764
-41.8261
-42.43
-37.7552
-38.785
-37.7645
-38.8051
-37.3188
-37.3426
-39.3773
-39.3968
-51.2767
-57.6765
-50.0275
-54.2069
-50.9743
-50.642
-63.1022
-60.2689
-24.887
-44.5698
-24.9208
-44.4251
-13.528
-13.5365
-61.0032
-61.0071
-67.5014
-62.2599
-67.4643
-62.2375
-70.7773
-70.7735
-59.1386
-59.1288
-36.5513
-35.7539
-36.7331
-36.4428
-37.3116
-37.2271
-35.8275
-36.1208
-41.6969
-41.8248
-46.7897
-46.5138
-45.0451
-42.7568
-42.3588
-44.6388
-40.365
-40.9157
-42.6154
-43.0141
-41.5364
-40.3614
-40.8639
-42.1123
-51.2659
-57.476
-49.5535
-53.9467
-48.645
-49.3369
-60.1804
-62.7467
-62.7552
-63.4199
-57.2442
-49.7482
-50.3102
-57.8889
-47.4765
-47.8852
-65.3028
-66.0962
-57.9198
-52.6146
-59.2631
-53.2393
-50.2002
-49.4344
-65.2044
-65.4839
-60.7751
-54.4856
-60.9414
-54.4899
-52.2808
-52.2181
-7.34871
-7.27994
2.05377
14.7279
14.8595
2.18856
16.0976
16.1007
188.706
196.405