# vtk DataFile Version 2.0
tri_press
ASCII
DATASET UNSTRUCTURED_GRID
POINTS 3682 float
-0.765 0.115 -1.95472
-0.689594 0.175 1.955
-0.68234 0.655 -1.885
-0.723766 0.795 1.945
0.765 0.115 -1.95472
0.68959 0.175 1.955
0.682344 0.655 -1.885
0.723766 0.795 1.945
-0.771577 0.103288 -0.65148
-0.766305 0.103424 0.65176
-0.779799 0.785317 -0.608333
-0.789425 0.827801 0.668333
0.771575 0.103288 -0.65148
0.766302 0.103424 0.65176
0.779796 0.785311 -0.608333
0.789471 0.827845 0.668333
-1.54251 -0.250137 -3.00643
-1.53554 -0.21324 -1.97448
-1.54096 -0.219929 -0.670558
-1.52718 -0.225236 0.638717
-1.47555 -0.180815 1.94309
-1.45987 -0.15192 2.97725
-1.46167 -0.131653 4.00732
-1.53397 0.0574293 -2.98113
-1.52722 0.109806 -1.95208
-1.54441 0.11809 -0.653324
-1.5275 0.112884 0.647824
-1.45459 0.150282 1.94709
-1.44454 0.177804 2.98087
-1.45278 0.198517 4.01181
-1.49918 0.648521 -2.92306
-1.47698 0.699704 -1.89291
-1.54269 0.790653 -0.612269
-1.54435 0.816672 0.666489
-1.47804 0.802942 1.94764
-1.4566 0.828641 2.98252
-1.45681 0.85646 4.01774
-1.48499 1.62014 -2.85593
-1.48048 1.68124 -1.82976
-1.50749 1.77519 -0.557737
-1.52898 1.83233 0.708561
-1.51924 1.84375 1.98086
-1.50092 1.85165 3.00761
-1.4863 1.86871 4.03993
-0.785931 -0.248152 -3.00815
-0.768843 -0.209134 -1.97699
-0.770954 -0.227382 -0.670222
-0.770927 -0.23165 0.642077
-0.734634 -0.168533 1.94897
-0.719651 -0.143776 2.98123
-0.719174 -0.128149 4.00963
-0.785658 0.0544796 -2.98166
-0.701772 0.186037 2.98416
-0.710099 0.201486 4.01355
-0.755642 0.629241 -2.91977
-0.711203 0.827281 2.98199
-0.711866 0.855919 4.01763
-0.729021 1.60766 -2.85268
-0.717573 1.66985 -1.82618
-0.739835 1.77331 -0.555579
-0.766395 1.83564 0.708302
-0.765743 1.84386 1.97902
-0.750178 1.85001 3.00576
-0.735911 1.86715 4.03859
0.730643 -0.248151 -3.00815
0.76355 -0.209134 -1.97699
0.769688 -0.22738 -0.670222
0.750356 -0.231648 0.642077
0.703011 -0.168532 1.94897
0.729135 -0.143774 2.98123
0.750881 -0.128145 4.00963
0.715258 0.05448 -2.98166
0.734597 0.186039 2.98416
0.756053 0.20149 4.01355
0.697827 0.629242 -2.91977
0.746588 0.827285 2.98199
0.762185 0.855925 4.01763
0.7667 1.60766 -2.85268
0.785634 1.66985 -1.82618
0.790474 1.77332 -0.555579
0.769449 1.83565 0.708302
0.749646 1.84388 1.97902
0.752829 1.85002 3.00576
0.763541 1.86716 4.03859
1.49297 -0.250135 -3.00643
1.52444 -0.213239 -1.97448
1.53811 -0.219923 -0.670558
1.5159 -0.225226 0.638717
1.46247 -0.180809 1.94309
1.47048 -0.151913 2.97725
1.4917 -0.131644 4.00732
1.47928 0.0574306 -2.98113
1.51855 0.109805 -1.95208
1.54358 0.118097 -0.653324
1.52858 0.112899 0.647824
1.46039 0.150287 1.94709
1.47163 0.177811 2.98087
1.49482 0.198526 4.01181
1.4589 0.648522 -2.92306
1.47663 0.699703 -1.89291
1.54701 0.790661 -0.612269
1.54791 0.816715 0.666489
1.48576 0.802956 1.94764
1.48701 0.828651 2.98252
1.5036 0.856472 4.01774
1.5178 1.62015 -2.85593
1.53729 1.68124 -1.82976
1.55199 1.77521 -0.557737
1.53759 1.83236 0.708561
1.5134 1.84378 1.98086
1.50952 1.85167 3.00761
1.51631 1.86873 4.03993
-0.72286 0.385 -1.91905
0 0.11665 -1.95307
-0.774362 0.10307 -1.3031
-0.724807 0.485 1.96813
-1.99676e-06 0.142292 1.98771
-0.759875 0.107287 1.30338
1.99676e-06 0.655005 -1.88501
-0.78062 0.769709 -1.24667
0 0.874097 2.0241
-0.786195 0.841 1.30667
0.722882 0.385 -1.91907
0.774361 0.10307 -1.3031
0.724802 0.485 1.96812
0.759488 0.107671 1.30338
0.780632 0.769718 -1.24667
0.78619 0.840994 1.30667
-0.768994 0.103303 0.000140011
-0.882065 0.444303 -0.629907
-7.01147e-07 0.100603 -0.65148
-0.874125 0.465613 0.660047
-1.33117e-06 0.100609 0.65176
-0.781837 0.803784 0.03
-1.85092e-06 0.920136 -0.608333
2.29402e-05 1.11515 0.668333
0.768992 0.103303 0.000140011
0.882062 0.4443 -0.629907
0.874132 0.465635 0.660047
0.781805 0.80375 0.03
-0.879019 0.414651 -1.27488
0.879019 0.41465 -1.27488
-3.50573e-07 0.100597 -1.3031
7.29195e-08 0.801428 -1.24667
9.98378e-07 0.385 -2.18009
-0.881856 0.454958 0.01507
0.881852 0.454967 0.01507
-1.01616e-06 0.100607 0.000140011
1.05446e-05 1.1092 0.03
-0.869878 0.475306 1.30502
0.869878 0.475317 1.30502
-1.66396e-06 0.100736 1.30338
1.14701e-05 0.999942 1.30667
-9.98378e-07 0.485 2.19497
-0.70511 0.25 -1.89807
-0.3825 0.119451 -1.95027
-0.775703 0.103013 -1.62891
-0.724418 0.33 1.97878
-0.344798 0.181586 1.94841
-0.755927 0.10995 1.62919
-0.710159 0.52 -1.90958
-0.341169 0.642223 -1.87222
-0.737685 0.718559 -1.56583
-0.720449 0.64 1.95273
-0.361883 0.862879 2.01288
-0.759449 0.822469 1.62583
0.3825 0.119449 -1.95027
0.706182 0.25 -1.89914
0.775702 0.103013 -1.62891
0.344794 0.181538 1.94846
0.724404 0.33 1.97877
0.756874 0.109 1.62919
0.341173 0.642192 -1.87219
0.710247 0.52 -1.90967
0.737716 0.718586 -1.56583
0.361883 0.862869 2.01287
0.720456 0.64 1.95273
0.759484 0.822503 1.62583
-0.77302 0.103128 -0.97729
-0.770335 0.103246 -0.32567
-0.87767 0.248371 -0.640693
-0.385807 0.101909 -0.65148
-0.763764 0.104681 0.97757
-0.767653 0.10336 0.32595
-0.891301 0.248975 0.655903
-0.383208 0.101907 0.65176
-0.788219 0.785523 -0.9275
-0.85413 0.626409 -0.61912
-0.778821 0.792553 -0.289167
-0.410864 0.894654 -0.608333
-0.800169 0.84676 0.9875
-0.866493 0.664066 0.66419
-0.786334 0.816495 0.349167
-0.459737 1.10155 0.668333
0.773019 0.103128 -0.97729
0.385806 0.101909 -0.65148
0.770334 0.103246 -0.32567
0.877674 0.248366 -0.640693
0.763555 0.104887 0.97757
0.383205 0.101907 0.65176
0.767651 0.10336 0.32595
0.891299 0.248989 0.655903
0.788218 0.785519 -0.9275
0.410862 0.894654 -0.608333
0.854053 0.626367 -0.61912
0.778817 0.792547 -0.289167
0.800141 0.84673 0.9875
0.459791 1.10159 0.668333
0.866487 0.664083 0.66419
0.786345 0.816504 0.349167
-0.877637 0.399826 -1.59697
-0.36143 0.385 -2.1205
-1.75287e-07 0.100595 -1.62809
4.99189e-07 0.250825 -2.11325
-0.880354 0.258861 -1.28899
-0.387181 0.100601 -1.3031
-0.856393 0.480153 1.63658
-0.362404 0.485 2.14762
-1.83036e-06 0.10075 1.64554
-1.49757e-06 0.313646 2.17998
-0.859675 0.291296 1.3042
-0.379938 0.100737 1.30338
1.03484e-06 0.756072 -1.56584
1.49757e-06 0.520003 -2.12282
-0.876663 0.59218 -1.26078
-0.39031 0.790452 -1.24667
5.73505e-06 0.928023 1.66538
-4.99189e-07 0.679548 2.10791
-0.875457 0.658153 1.30585
-0.393092 0.984036 1.30667
0.877635 0.399825 -1.59698
0.361442 0.385 -2.12058
0.880353 0.25886 -1.28899
0.38718 0.100601 -1.3031
0.856395 0.480159 1.63657
0.3624 0.485 2.14762
0.859693 0.291494 1.3042
0.379743 0.100737 1.30338
0.876663 0.592184 -1.26078
0.390316 0.79046 -1.24667
0.875456 0.658156 1.30585
0.393101 0.984042 1.30667
-0.866964 0.258361 0.00760502
-0.38452 0.101909 0.000140011
-0.879018 0.429477 -0.952395
-0.881592 0.44963 -0.307418
-5.2586e-07 0.100598 -0.97729
-8.58653e-07 0.100605 -0.32567
-0.882139 0.460285 0.337558
-0.875814 0.470459 0.982535
-1.17366e-06 0.100608 0.32595
-1.49757e-06 0.100723 0.97757
-0.85944 0.643168 0.022535
-0.455248 1.08516 0.03
-8.88999e-07 0.82263 -0.9275
4.34686e-06 1.02132 -0.289167
1.67424e-05 1.13362 0.349167
1.72051e-05 1.0641 0.9875
0.86697 0.258361 0.00760502
0.384518 0.101909 0.000140011
0.879019 0.429475 -0.952395
0.881588 0.449633 -0.307418
0.882136 0.460301 0.337558
0.875792 0.470476 0.982535
0.85943 0.643159 0.022535
0.455129 1.08491 0.03
-0.879612 0.25443 -1.61294
-0.880204 0.266328 -0.964843
-0.87524 0.603495 -0.939948
-0.875853 0.55609 -1.5814
0.879611 0.25443 -1.61294
0.875852 0.556092 -1.58141
0.87535 0.603495 -0.939948
0.880205 0.266327 -0.964843
-0.384841 0.1006 -1.6285
0.38484 0.100601 -1.6285
0.386484 0.100603 -0.97729
-0.386485 0.100603 -0.97729
-0.36574 0.743408 -1.56583
-0.390105 0.817268 -0.9275
0.390107 0.817293 -0.9275
0.365745 0.743405 -1.56583
-0.371965 0.250412 -2.04847
-0.351299 0.520001 -2.06167
0.351307 0.520001 -2.06135
0.371971 0.250412 -2.04845
-0.872525 0.253262 -0.316544
-0.861401 0.262534 0.331754
-0.86313 0.653699 0.343363
-0.855819 0.634305 -0.298293
0.87253 0.25326 -0.316544
0.855815 0.6343 -0.298293
0.863113 0.653699 0.343363
0.861405 0.26254 0.331754
-0.385164 0.101909 -0.32567
0.385162 0.101909 -0.32567
0.383862 0.101908 0.32595
-0.383864 0.101908 0.32595
-0.433139 0.990072 -0.289167
-0.47062 1.11961 0.349167
0.470632 1.11959 0.349167
0.433139 0.990072 -0.289167
-0.868011 0.287907 0.980053
-0.849551 0.310648 1.63288
-0.836305 0.649077 1.6312
-0.864087 0.65243 0.985018
0.867994 0.288012 0.980053
0.864082 0.652448 0.985018
0.836308 0.649078 1.6312
0.849577 0.310747 1.63288
-0.381546 0.100724 0.97757
0.381447 0.100724 0.97757
0.362268 0.100752 1.63737
-0.362368 0.100752 1.63737
-0.393896 1.04715 0.9875
-0.377487 0.920075 1.64561
0.377492 0.920085 1.64561
0.393924 1.04716 0.9875
-0.353601 0.321823 2.11258
0.353597 0.321823 2.11035
0.362142 0.659774 2.11582
-0.362144 0.659774 2.11581
-0.745693 0.1825 -1.93703
-0.57375 0.111132 -1.95859
-0.771174 0.108184 -1.79182
-0.712497 0.2525 1.97238
-0.517196 0.168694 1.96131
-0.732303 0.132933 1.7921
-0.705601 0.5875 -1.90664
-0.511755 0.629541 -1.85954
-0.707953 0.68472 -1.72542
-0.714818 0.7175 1.94157
-0.542825 0.840003 1.99
-0.750325 0.817452 1.78542
0.57375 0.11097 -1.95875
0.745694 0.1825 -1.93703
0.771377 0.107981 -1.79182
0.517192 0.168706 1.96129
0.712195 0.2525 1.97208
0.732298 0.132934 1.7921
0.511759 0.629553 -1.85955
0.705575 0.5875 -1.90661
0.707971 0.684735 -1.72542
0.542825 0.839909 1.98991
0.714212 0.7175 1.94097
0.750281 0.817407 1.78542
-0.772345 0.103162 -0.814385
-0.771006 0.103217 -0.488575
-0.880055 0.148114 -0.646087
-0.578766 0.102451 -0.65148
-0.765639 0.103448 0.814665
-0.766983 0.103388 0.488855
-0.880721 0.150241 0.653832
-0.574861 0.102457 0.65176
-0.782916 0.784327 -0.767917
-0.819503 0.707132 -0.613727
-0.778182 0.787807 -0.44875
-0.60422 0.857762 -0.608333
-0.796069 0.838553 0.827917
-0.836691 0.750299 0.666262
-0.787292 0.821561 0.50875
-0.610264 0.936041 0.668333
0.772343 0.103162 -0.814385
0.578764 0.102451 -0.65148
0.771004 0.103217 -0.488575
0.880053 0.148113 -0.646087
0.765637 0.103448 0.814665
0.574858 0.102457 0.65176
0.76698 0.103388 0.488855
0.880722 0.150246 0.653832
0.782936 0.784344 -0.767917
0.604265 0.857855 -0.608333
[...]
POINT_DATA 3682
SCALARS point_scalars float 1
LOOKUP_TABLE default
-57.413
-37.1458
-28.5271
-37.1654
-57.4824
-37.0259
-28.8883
-37.127
-34.9487
-34.4785
-41.6059
-46.3722
-34.939
-34.541
-41.5863
-46.3757
-100.418
-95.565
-36.337
-35.9183
-46.8729
-34.6663
-31.1841
39.7134
-95.565
-35.4393
-37.9269
-46.3751
-33.6005
-30.1222
48.6316
-110.347
-36.6766
-39.1835
-40.1745
-36.2577
-30.092
-8.26586
-76.9954
-43.2769
-44.3775
-39.6124
-37.2391
-34.4077
74.9445
-123.942
-34.9475
-34.3896
-40.2669
-29.6392
-28.5188
74.9445
-29.3015
-28.0057
162.953
-29.7825
-28.5085
16.3861
-61.6857
-39.1392
-64.4697
-37.3686
-30.7533
-30.272
74.2882
-128.755
-34.9384
-34.2908
-39.817
-29.6093
-28.5436
74.2882
-29.4656
-27.9834
173.927
-29.8255
-28.4827
17.3651
-62.8888
-43.7204
-64.4637
-37.0968
-30.7129
-30.2673
9.65
-95.5486
-36.3242
-36.0338
-46.8135
-34.6313
-31.1529
39.637
-95.5486
-35.4404
-37.9696
-46.2272
-33.5605
-30.3735
42.1428
-110.114
-36.6449
-39.1358
-40.1725
-36.2728
-30.4144
-20.0651
-77.154
-43.3254
-44.4073
-39.5757
-37.2007
-34.5749
43.1802
-124.187
-49.6747
-33.8437
-32.7433
-35.9393
-12.3325
-52.7158
-31.0336
-45.5725
42.3438
-49.6582
-33.7978
-35.8673
-52.7115
-45.5205
-31.9552
-36.545
-36.9869
-34.6774
-33.611
-47.2207
-9.03363
-68.3987
-31.947
-36.5382
-34.6523
-47.1833
-58.7185
-58.711
-52.8981
-39.5419
207.956
-34.9201
-34.9114
-33.0571
-71.189
-40.0561
-40.0334
-36.5417
-44.4043
-22.6329
46.0944
-148.253
-80.7339
-34.09
-33.7252
-42.7559
20.0533
-22.8979
-55.3119
-35.008
-32.0152
-42.211
-148.271
46.3765
-80.708
-33.7454
-34.0469
-43.005
-23.0908
19.5526
-55.3384
-31.9987
-34.9691
-42.189
-37.4826
-32.7465
-36.3086
-36.556
-37.4095
-31.9873
-35.8514
-33.5024
-43.9708
-36.1298
-43.6284
-15.1572
-46.1262
-39.0133
-48.1287
-63.0471
-37.4718
-36.5518
-32.7408
-36.2551
-37.4579
-33.4998
-31.9681
-35.848
-43.9679
-15.1713
-36.0503
-43.6135
-45.6907
-63.0551
-39.009
-48.1021
-108.235
184.958
-75.8136
164.312
-56.8715
-52.3689
-44.5105
-28.348
-40.0633
-24.1147
-38.2532
-36.6698
-49.0665
104.184
-60.1577
-42.0093
-36.8706
-26.2022
-42.3924
-45.1032
-108.192
185.137
-56.9447
-52.3638
-44.4862
-28.3206
-38.2225
-36.6554
-60.1559
-42.0419
-42.3761
-45.1005
-33.5483
-32.8223
-42.8739
-34.9075
-42.9299
-34.153
-34.7195
-40.1418
-32.9332
-34.7909
-38.0692
-63.5364
-15.0787
-29.3504
-80.8731
-54.4128
-33.5392
-32.8193
-42.8705
-34.9036
-34.7126
-40.1076
-38.0561
-63.3697
-107.823
-41.6519
-44.0972
-105.193
-107.809
-105.132
-44.1041
-41.6455
-77.2257
-77.2274
-41.9744
-41.9803
-54.289
-22.9518
-22.9328
-54.2774
152.632
95.468
96.8054
152.812
-34.2143
-32.7636
-38.4774
-36.9722
-34.2085
-36.9752
-38.466
-32.759
-33.8399
-33.8365
-32.7916
-32.7945
-30.1795
-70.4119
-70.4075
-30.1865
-39.4399
-43.8602
-45.5522
-40.4062
-39.425
-40.367
-45.486
-43.8419
-34.8811
-34.8723
-40.4968
-40.4942
-53.9014
-38.1156
-38.1046
-53.9012
-29.1847
-29.1899
-29.1277
-29.1609
32.5976
-157.383
-102.241
-35.2757
-35.0261
-44.4539
2.31448
-30.1247
-38.7411
-35.8763
-33.6428
-39.5906
-157.569
32.4598
-102.221
-35.0037
-35.2501
-44.3527
-30.0269
2.2047
-38.7985
-33.6115
-35.8512
-39.5561
-35.003
-33.8122
-37.393
-35.7439
-36.8463
-32.8752
-35.8563
-33.6978
-41.0514
-38.164
-41.6658
-27.0887
-45.7066
-41.0387
-47.7349
-51.2483
-34.995
-35.7371
-33.8043
-37.3956
-36.8505
-33.6997
-32.878
-36.0107
-41.0083
-27.0101
-38.1241
-41.6332
-45.6951
-51.3167
-41.0418
-47.7201
44.093
37.6159
-111.039
134.193
-135.668
-135.67
-94.2459
160.66
-60.7005
-42.9795
-55.305
-50.8607
-33.7762
-34.2457
-41.3256
-30.0162
-33.0884
-33.0799
-36.9494
-27.6828
-38.137
-34.6834
-37.1766
-36.536
-17.4907
-17.5699
-46.7967
28.5823
-52.6384
-49.193
-62.4742
-45.5702
-31.2947
-31.281
-33.7952
-27.7537
-44.4385
-46.3143
-44.7719
-45.7806
43.2427
31.8261
-111.323
134.224
-60.675
-42.9666
-55.2942
-50.8478
-33.7308
-34.2022
-41.2866
-29.989
-38.0141
-34.6523
-37.162
-36.4993
-52.6214
-49.1937
-62.4755
-45.5735
-44.4163
-46.2794
-44.7674
-45.7763
-32.0745
-31.9036
-33.0029
-32.4597
-36.392
-36.4741
-38.7208
-35.2076
-36.8761
-36.8736
-39.3437
-35.2637
-32.8972
-36.5588
-34.9711
-41.5206
-33.6067
-33.604
-33.2097
-34.1299
-46.056
-47.9476
-41.2544
-58.7879
-10.0695
-10.0935
-8.07704
-15.809
-67.3198
-67.3366
-75.7112
-60.7744
-32.0686
-31.8951
-32.9939
-32.4558
-36.363
-36.4631
-38.7146
-35.2053
-32.8742
-36.5366
-34.9632
-41.5334
-45.975
-47.9178
-41.2372
-58.7126
-73.6952
-58.1451
-59.1936
-49.4162
-73.6854
-58.135
-59.19
-49.412
-61.776
-53.1208
-52.8472
-46.9904
-48.164
-40.153
-40.2067
-28.0096
199.044
187.221
170.782
199.013
-34.0335
-34.9089
-34.844
-36.0745
-34.0251
-34.9037
-34.8357
-36.0646
-33.0031
-33.4272
-32.9006
-33.0014
-69.4673
-44.2838
-83.0131
-69.4309
-42.0437
-39.201
-40.9586
-38.7967
-42.0197
-39.1738
-40.9411
-38.7757
-37.8061
-36.6211
-36.6151
-35.5476
-40.3546
-44.5102
-44.5094
-48.8794
-25.2566
-21.8333
-26.6278
-25.2422
-120.199
122.812
-99.4524
156.664
-105.741
-77.0833
-42.2583
-30.3072
-39.7879
-29.8867
-44.7329
-40.7094
-57.3668
117.82
-46.4198
11.5149
-86.7926
-52.8696
-40.5047
-30.2595
-34.6947
-29.6665
-44.0945
-40.2631
-99.4596
156.831
-119.749
122.428
-105.704
-77.0632
-39.7829
-29.8818
-42.213
-30.2811
-44.8699
-40.7262
-46.4468
9.82301
-57.3095
117.611
-86.8602
-52.8854
-34.68
-29.6351
-40.4601
-30.2295
-44.0552
-40.2464
-40.9048
-40.785
-33.6038
-33.3478
-38.3387
-34.9168
-38.8308
-34.9142
-41.0264
-35.0825
-30.8586
-32.537
-32.7178
-41.7383
-33.1238
-34.2621
-46.7172
-30.506
-39.224
-35.8305
-39.2797
-49.1905
-15.0892
-20.5885
-41.8743
-50.9337
-38.4624
-41.1179
-41.0639
-54.3274
-67.5138
-58.2883
-40.8988
-40.7748
-38.8248
-34.9105
-33.599
-33.3431
-38.331
-34.854
-41.0112
-35.0741
-33.1219
-34.258
-30.8508
-32.5344
-32.7099
-41.6992
-46.7246
-30.4774
-14.9553
-20.6001
-39.2545
-35.8349
-39.2825
-49.5168
-41.8548
-50.9096
-67.507
-58.2966
-38.4552
-41.1262
-41.0498
-54.311
-108.601
-111.617
175.806
149.028
-76.3685
-76.3714
159.082
159.088
-71.622
-47.726
-61.6767
-46.4317
-43.761
-45.5889
-28.2068
-28.8175
-40.0732
-40.0719
-27.8882
-27.8739
-37.2059
-40.4756
-35.589
-38.049
-50.4078
-50.4142
88.0429
87.9161
-50.8907
-76.3669
-48.1334
-33.3536
-37.1854
-37.1798
-27.3906
-27.406
-45.0468
-40.0027
-48.8486
-41.3946
-108.601
-111.538
148.689
175.783
-71.6067
-47.7184
-61.6745
-46.4257
-45.5338
-43.6502
-28.1928
-28.7946
-37.1705
-40.4501
-35.5752
-38.0426
-76.3603
-50.8904
-33.3103
-48.1522
-39.9873
-45.0535
-41.3863
-48.8486
-33.862
-33.3363
-33.1392
-32.7049
-42.3386
-43.3712
-34.4715
-35.5125
-42.4568
-42.4602
-34.0939
-34.0919
-33.5707
-36.317
-39.6372
-40.3413
-32.8963
-32.8981
-34.8132
-34.808
-38.2987
-37.6187
-41.843
-75.9926
-17.0062
-16.9705
-28.8205
-28.8032
-78.5462
-78.5298
-54.2551
-54.2512
-33.8554
-33.3272
-33.1358
-32.7023
-43.374
-42.3331
-34.4648
-35.5111
-36.3082
-33.564
-39.6082
-40.308
-37.6141
-38.287
-75.9719
-42.0076
-99.5338
-68.7488
-73.0876
-122.169
-37.1633
-38.5006
-48.7519
-47.4393
-41.0178
-53.8012
-49.9492
-39.3308
-39.7769
-87.3084
-74.6449
-74.3611
-99.1851
-121.907
-73.0737
-68.7312
-39.6147
-74.3064
-74.6473
-87.2037
-41.0428
-39.3191
-49.9474
-53.8029
-37.1148
-47.4311
-48.7456
-38.4937
-101.559
-96.8592
-61.7737
-60.4558
-101.537
-60.4397
-61.7726
-96.8674
-37.8302
-39.2262
-46.9689
-44.9176
-37.8398
-44.9288
-46.9724
-39.2292
-45.0385
-50.3017
-48.1299
-46.8157
-23.0259
-9.31894
-29.4924
-38.9024
-23.2783
-38.8775
-29.498
-9.34531
-44.9879
-46.9121
-48.1685
-50.3014
89.486
136.925
178.634
147.075
25.052
6.28264
161.917
132.089
25.7694
131.919
161.397
8.10761
90.0821
147.13
178.741
136.555
-34.2388
-33.2114
-34.2309
-35.1784
-31.0206
-34.1873
-33.7812
-32.9771
-41.0936
-41.2913
-36.2002
-36.5056
-37.7544
-35.2942
-35.8609
-40.4875
-34.2253
-35.2075
-34.2245
-33.2072
-37.7516
-40.4591
-35.8574
-35.2934
-41.09
-36.4918
-36.1908
-41.2732
-31.0213
-32.9691
-33.772
-34.1864
-34.3612
-35.159
-33.3513
-32.7036
-34.3556
-32.6987
-33.3497
-35.1568
-33.0348
-33.1623
-32.8548
-32.3962
-33.0339
-32.3993
-32.8566
-33.1641
-38.801
-59.01
-42.8269
-16.4393
-52.4545
-74.3589
-81.1093
-56.6949
-52.4349
-56.6653
-81.1015
-74.3336
-38.7645
-16.4604
-42.8699
-58.9517
-36.6963
-35.7731
-38.0857
-43.5789
-43.5758
-41.7948
-41.2938
-39.5824
-40.5218
-44.9172
-43.0989
-40.8062
-41.5095
-41.381
-39.4252
-42.0665
-36.6998
-43.5795
-38.0617
-35.7357
-41.5043
-42.0611
-39.4028
-41.4097
-40.4852
-40.7606
-43.1039
-44.9
-43.5058
-39.5487
-41.2679
-41.7602
-34.2923
-34.1537
-35.5643
-35.5141
-34.2916
-35.4817
-35.5581
-34.1505
-41.7983
-38.3139
-37.8724
-38.1101
-41.7967
-38.1246
-37.8755
-38.3163
-50.7307
-48.0708
-48.7806
-60.1134
-36.6025
-33.9981
-40.5931
-43.9066
-36.5831
-43.8913
-40.5824
-33.9895
-50.693
-60.1221
-48.7632
-48.0731
-31.5839
-29.0987
-25.1634
-29.9963
-31.554
-29.97
-25.1515
-29.0879
-30.7031
-28.0938
-27.4283
-30.0846
-30.7479
-30.1117
-27.4362
-28.1454
-5.48646
-118.28
-124.564
-36.2097
-36.2186
-39.7758
-14.948
-36.6024
-52.1145
-36.4425
-35.3406
-38.5298
-118.497
-5.55006
-124.525
-36.1882
-36.2033
-39.7044
-36.772
-15.5822
-52.2157
-35.3061
-36.4188
-38.484
-35.779
-34.2584
-34.4812
-35.2128
-34.9404
-33.6228
-36.1203
-33.9664
-42.4598
-40.2866
-40.736
-40.6287
-46.825
-42.9833
-47.2981
-49.2955
-35.7708
-35.2051
-34.2496
-34.4814
-34.9094
-33.974
-33.6369
-36.5605
-42.4176
-40.511
-40.2599
-40.7898
-46.8475
-49.3116
-42.9889
-47.2869
44.1589
39.8835
-46.7152
113.203
-125.359
-125.331
-109.731
92.0204
-54.8622
-45.9887
-52.6243
-49.9438
-33.7614
-34.028
-38.5174
-30.861
-33.2237
-33.2171
-34.4586
-28.8314
-36.9858
-35.119
-36.463
-36.3464
-14.0782
-14.5248
-30.9832
-13.4309
-52.6285
-50.8108
-61.2666
-47.8079
-31.1152
-31.1085
-32.3883
-29.4203
-45.6637
-46.8279
-44.842
-45.1238
43.968
37.3762
-46.2909
113.288
-54.8418
-45.9741
-52.6126
-49.9285
-33.7152
-33.9825
-38.4719
-30.8251
-36.8251
-35.1005
-36.2865
-36.2896
-52.6234
-50.792
-61.2678
-47.8055
-45.6399
-46.7073
-44.8569
-45.1128
-32.0694
-31.7618
-31.9341
-32.1918
-36.4519
-36.5335
-37.6877
-35.6976
-36.9643
-36.9629
-38.1175
-36.0812
-33.303
-35.828
-35.7768
-36.7837
-33.6113
-33.6097
-33.3714
-33.8505
-46.3299
-47.3766
-43.4423
-52.2736
-9.24651
-9.27649
-7.69204
-11.6124
-68.146
-68.1551
-72.2024
-64.1536
-32.0626
-31.7537
-31.9238
-32.1865
-36.4456
-36.5244
-37.678
-35.6949
-33.275
-35.8139
-35.7605
-36.7758
-46.3269
-47.3357
-43.4148
-52.1792
-65.1352
-58.3753
-59.0875
-53.5638
-65.126
-58.3662
-59.082
-53.5582
-57.0139
-52.8979
-52.8968
-49.6984
-44.4696
-39.7106
-39.7456
-34.0296
205.749
198.67
191.063
205.776
-34.4467
-34.9088
-34.8485
-35.4677
-34.4382
-34.9022
-34.8393
-35.459
-33.0449
-33.2012
-32.9078
-33.044
-70.8731
-55.2279
-81.2605
-70.8678
-41.2697
-39.6407
-40.4945
-39.2845
-41.2481
-39.6148
-40.4747
-39.2636
-37.1131
-36.5591
-36.5561
-36.0184
-42.3959
-44.4742
-44.4749
-46.68
-23.9035
-21.6488
-24.8021
-23.9155
54.7069
44.2518
-68.3967
96.8759
-136.982
-139.527
-118.42
82.5548
-93.2327
-69.2094
-95.4912
-77.0245
-34.6236
-33.8638
-38.9513
-30.9966
-34.1235
-33.3982
-36.527
-31.2136
-46.3424
-39.6423
-44.5777
-41.0568
12.6046
30.0298
-47.3062
99.6228
-22.0361
-20.503
-32.9485
-25.0578
-57.8544
-52.2138
-72.3952
-52.3137
-35.324
-34.6197
-38.5267
-31.3292
-32.7314
-31.5622
-33.1408
-30.7298
-40.2522
-44.0223
-43.0333
-41.5286
-137.003
-139.532
-118.436
82.5665
54.8012
44.2476
-68.4789
96.0814
-93.3183
-69.1724
-95.4537
-77.0049
-34.1086
-33.3947
-36.5249
-31.224
-34.5854
-33.8185
-38.9075
-30.9668
-46.5127
-39.5595
-44.8428
-41.1088
-22.4184
-20.6196
-32.9468
-25.0569
12.6798
27.182
-47.5624
99.7778
-57.8269
-52.2088
-72.5547
-52.3043
-32.7034
-31.5427
-33.1229
-30.6913
-35.29
-34.5778
-38.4788
-31.2892
-40.2404
-43.9974
-43.0068
-41.5041
-36.4648
-40.3376
-38.3402
-39.7634
-33.0777
-32.5022
-32.7376
-33.0713
-36.5621
-36.3304
-37.3208
-35.4979
-36.2915
-36.7318
-37.7331
-35.5835
-36.6216
-34.9561
-40.8717
-35.3042
-32.4459
-31.8554
-30.8459
-32.3492
-36.9787
-33.7636
-31.5775
-39.5957
-33.4698
-33.5867
-33.3095
-33.8281
-42.0641
-46.5388
-47.3644
-34.6684
-36.5479
-36.4961
-37.3857
-36.0845
-42.5759
-44.5059
-41.3243
-50.2166
-19.582
-12.0843
-14.5498
-17.6787
-46.282
-46.0923
-43.7082
-48.7856
-40.2658
-37.5695
-38.6513
-40.156
-48.0706
-47.6806
-43.5148
-51.5881
-57.118
-65.6709
-65.55
-60.8477
-36.455
-40.3263
-38.3343
-39.7523
-36.2861
-36.7283
-37.7286
-35.5795
-33.0718
-32.4963
-32.7347
-33.0662
-36.5601
-36.2824
-37.3075
-35.5343
-36.668
-35.0078
-40.902
-35.304
-33.4687
-33.5835
-33.3071
-33.8251
-32.4457
-31.85
-30.8366
-32.3469
-36.9817
-33.7443
-31.5751
-39.5676
-42.0323
-46.551
-47.3888
-34.6804
-19.574
-12.0257
-14.5684
-17.686
-36.459
-36.4742
-37.3015
-36.0835
-42.5551
-44.6032
-41.3158
-50.2352
-45.9504
-46.1206
-43.733
-48.7833
-57.1397
-65.668
-65.5447
-60.8557
-40.2654
-37.5515
-38.6438
-40.1679
-48.0471
-47.6525
-43.4952
-51.5673
-122.295
-86.8129
-107.322
-112.085
157.732
195.56
182.776
170.804
-84.19
-67.6674
-75.9878
-75.9889
162.488
177.912
163.031
163.06
-56.4379
-57.6504
-63.2973
-51.7961
-51.73
-52.7911
-56.0717
-49.1055
-44.2895
-42.9869
-44.0377
-45.2162
-29.5089
-26.7608
-28.2159
-28.6281
-39.5378
-38.6146
-39.8805
-39.8816
-25.8567
-22.7228
-25.2067
-25.1999
-37.724
-38.7267
-37.5813
-39.6257
-36.6088
-36.5996
-36.0594
-37.2395
-49.7006
-49.9392
-49.2047
-49.2105
59.7372
133.249
92.0858
89.4384
-61.305
-59.5607
-55.1454
-66.1596
-44.0965
-40.7658
-44.6008
-37.8114
-35.2203
-38.5079
-36.9822
-36.977
-25.9421
-26.5128
-26.7029
-26.7097
-43.5615
-41.4618
-43.7809
-40.9415
-46.1081
-44.6249
-46.7957
-43.1036
-122.08
-86.8029
-107.295
-112.044
157.846
195.563
170.756
182.652
-56.4269
-57.6399
-63.2843
-51.7873
-51.7216
-52.7883
-56.068
-49.0996
-44.2425
-42.9564
-45.185
-43.9937
-29.4789
-26.7409
-28.1907
-28.6001
-37.6956
-38.6985
-37.5482
-39.5971
-36.5867
-36.602
-36.0439
-37.2283
-61.3056
-59.5581
-66.1556
-55.1443
-44.1021
-40.8434
-37.7766
-44.6184
-43.5513
-41.4463
-40.9271
-43.7676
-46.1075
-44.621
-43.0972
-46.7897
-33.4577
-33.7577
-33.6887
-33.5037
-32.6574
-32.9214
-32.9678
-32.6876
-40.29
-45.8328
-42.5571
-43.134
-34.9383
-34.8946
-34.7002
-35.157
-40.8425
-44.546
-42.5881
-42.5898
-34.6789
-33.7806
-34.1764
-34.1754
-34.8019
-34.7429
-34.0902
-35.4952
-42.9899
-38.6577
-39.9801
-40.4146
-33.0708
-32.9111
-32.942
-32.9427
-34.4584
-35.1356
-34.8009
-34.7982
-39.677
-36.8116
-38.2808
-37.909
-64.9367
-66.4279
-50.4101
-69.721
-10.4918
-21.4245
-15.4025
-15.3885
-21.415
-37.4425
-29.5705
-29.5383
-79.0647
-83.0212
-80.1963
-80.1879
-58.011
-51.5411
-54.3738
-54.3721
-33.4488
-33.7487
-33.6804
-33.4946
-32.654
-32.919
-32.9645
-32.6849
-40.2865
-45.8294
-43.1327
-42.4963
-34.9354
-34.8901
-34.6941
-35.1545
-34.7941
-34.7356
-35.4888
-34.0833
-42.9746
-38.6304
-39.947
-40.3879
-39.6622
-36.8003
-37.9015
-38.2667
-64.6467
-66.3623
-69.5947
-50.4286
-126.561
-108.987
-109.496
-83.8081
-41.442
-39.6049
-44.307
-42.0679
-45.2466
-41.5306
-47.3905
-43.737
-92.4905
-99.7611
-110.606
-92.9791
-126.408
-108.96
-109.491
-83.7925
-92.3169
-99.7089
-110.487
-92.9722
-45.2515
-41.5504
-47.3844
-43.7417
-41.4356
-39.5994
-44.3003
-42.0617
-86.872
-77.3119
-76.8738
-68.2104
-86.8776
-77.3045
-76.8775
-68.2102
-41.5183
-40.3034
-43.7699
-42.3037
-41.5261
-40.3099
-43.7757
-42.308
-51.6572
-53.6897
-53.105
-52.7754
-27.3773
-17.8121
-28.5496
-19.3245
-27.3435
-17.8211
-28.5231
-19.2985
-51.7528
-53.7
-53.1005
-52.7905
164.15
156.799
165.464
151.584
120.255
58.9165
120.489
85.3054
61.4833
120.867
85.1167
120.284
155.919
164.666
151.592
165.582
-34.1129
-34.4769
-33.9756
-34.336
-32.5484
-31.9159
-33.113
-32.9759
-38.487
-39.9119
-37.1119
-38.3253
-36.3365
-37.9882
-36.0285
-37.2179
-34.109
-34.4729
-33.9706
-34.3297
-36.3417
-37.9925
-36.0287
-37.2198
-38.4754
-39.8991
-37.1035
-38.3155
-32.5377
-31.9148
-33.1034
-32.9736
-33.647
-34.2936
-33.4795
-34.0028
-34.2902
-33.643
-34.0003
-33.4763
-32.9632
-32.7022
-32.8629
-32.7333
-32.7051
-32.9655
-32.7363
-32.8653
-35.1558
-24.7764
-36.8821
-29.0427
-63.002
-68.6623
-73.2851
-75.5559
-68.6516
-62.9956
-75.5321
-73.2875
-24.7366
-35.2942
-29.0232
-36.9641
-39.7395
-42.5799
-37.3429
-39.5091
-44.4013
-44.14
-43.7735
-41.8571
-43.0968
-44.985
-46.0271
-46.3939
-41.0965
-42.2877
-38.8743
-40.1383
-39.7337
-42.5795
-37.3119
-39.4861
-41.0673
-42.2659
-38.8489
-40.0995
-43.0685
-44.9305
-45.9372
-46.3553
-44.3712
-44.1537
-43.7383
-41.8472
-34.9431
-34.5763
-35.2253
-34.8349
-34.9331
-34.5702
-35.2138
-34.8278
-41.7641
-40.7955
-40.2574
-39.0198
-41.8067
-40.789
-40.2556
-39.0218
-53.5143
-56.6954
-50.8844
-54.0069
-36.2793
-39.044
-37.5279
-39.6814
-36.2667
-39.0313
-37.5193
-39.6712
-53.4954
-56.6896
-50.8912
-54.0024
-29.8791
-29.335
-28.5609
-28.1534
-29.2882
-29.8368
-28.1562
-28.575
-29.2591
-29.8408
-28.0548
-28.878
-29.8718
-29.2903
-28.9069
-28.0772
-86.6098
107.203
-124.146
10.7563
-99.7837
-103.96
-39.7134
-32.3977
-37.4845
-33.0414
-45.0973
-42.8824
-38.91
56.4262
-35.3481
-37.8817
-36.3934
-43.137
-39.0969
-32.0816
-35.0209
-32.1043
-40.2114
-38.5267
-124.187
11.1549
-88.7477
107.581
-99.6624
-103.949
-37.4691
-33.0159
-39.6875
-32.3682
-44.9869
-42.8516
-35.7809
-38.3197
-38.9672
56.9392
-36.2749
-43.2607
-34.9992
-32.0651
-39.0741
-31.9819
-40.172
-38.505
-33.6499
-37.0722
-33.7729
-34.0419
-37.1239
-35.2078
-36.7044
-34.9012
-38.7803
-34.7028
-32.2477
-32.9717
-34.7448
-35.6306
-33.3382
-34.0721
-42.4128
-32.1419
-38.9397
-37.6824
-39.4664
-48.2648
-22.6526
-30.3205
-43.3967
-47.2695
-41.0189
-41.2159
-43.5008
-50.1095
-51.8908
-50.2991
-33.6471
-37.0625
-36.6965
-34.8948
-33.766
-34.0355
-37.111
-35.2081
-38.788
-34.7075
-33.3397
-34.0731
-32.2417
-32.9748
-34.753
-35.562
-42.4291
-32.3372
-22.888
-30.3141
-38.8837
-37.6879
-39.4707
-48.2344
-43.3847
-47.2496
-51.8336
-50.374
-41.017
-41.2185
-43.4941
-50.0918
-57.0996
100.962
-46.0652
113.416
-118.553
-102.218
133.592
136.66
-114.769
18.2862
-114.765
18.3025
-95.7228
-95.7384
137.312
137.297
-65.5544
-60.2419
-43.443
-43.9343
-62.3044
-50.4743
-55.3714
-47.6176
-38.589
-30.7912
-38.5496
-31.0519
-41.5811
-41.1967
-29.9607
-30.0689
-35.4641
-30.7656
-35.4567
-30.7599
-38.0438
-38.04
-29.078
-29.0662
-39.2423
-38.1079
-35.2789
-35.3226
-36.4064
-38.7925
-35.9193
-37.1988
-32.1397
-9.95839
-32.3041
-10.7825
-46.7877
-46.875
0.986156
3.9747
-68.6979
-50.5664
-55.8333
-42.6955
-57.1106
-68.2174
-48.6474
-42.3159
-32.4878
-29.824
-32.4786
-29.8077
-33.8725
-33.8686
-27.9248
-27.933
-44.2748
-43.845
-43.5656
-47.1362
-45.694
-42.8765
-47.21
-44.6623
-56.9207
100.816
-45.4212
113.761
-118.398
-102.49
136.46
134.336
-65.5353
-60.2217
-43.4358
-43.9219
-62.2894
-50.4651
-55.3582
-47.6057
-38.5407
-30.757
-38.506
-31.0201
-41.149
-41.5512
-29.9337
-30.0419
-39.1585
-38.0741
-35.0095
-35.2645
-36.3637
-38.7598
-35.8814
-37.1702
-68.6182
-50.5685
-55.8373
-42.6649
-68.2089
-57.1101
-42.2942
-48.6577
-44.252
-43.8276
-43.6218
-47.1168
-42.8756
-45.6768
-44.6581
-47.2086
-32.1133
-32.4051
-31.8355
-32.18
-33.1233
-32.9843
-32.5834
-32.3238
-37.4514
-35.6524
-37.771
-35.6245
-38.5393
-38.9512
-35.2146
-35.2094
-37.9973
-35.9696
-37.9948
-35.9675
-39.3383
-39.3402
-35.3196
-35.3185
-34.7541
-37.1028
-36.6168
-37.941
-34.4456
-35.6963
-42.5205
-41.7311
-33.3572
-33.8623
-33.3548
-33.8595
-33.2076
-33.2088
-34.1496
-34.1478
-42.6238
-51.7191
-43.85
-52.5008
-41.294
-40.9568
-61.3447
-57.8496
-9.00927
-12.4794
-9.03473
-12.5036
-8.57715
-8.61588
-15.5959
-15.6178
-70.9782
-63.3883
-70.9726
-63.4114
-75.4625
-75.4505
-60.6084
-60.6115
-32.1083
-32.4
-31.8212
-32.1753
-33.1152
-32.9753
-32.5787
-32.3204
-37.4401
-35.6608
-37.76
-35.6206
-38.9455
-38.5327
-35.2117
-35.2072
-34.7441
-37.0858
-36.6094
-37.9371
-35.6767
-34.4464
-42.5304
-41.7395
-42.6983
-51.6966
-43.825
-52.4809
-40.9438
-41.2748
-57.8205
-61.1952
-73.417
-74.1793
-64.6424
-52.9032
-54.1278
-65.527
-48.9935
-49.7762
-73.4045
-74.1761
-64.6303
-52.8955
-65.5221
-54.1251
-49.7735
-48.9882
-61.8487
-61.8486
-56.4536
-49.5992
-56.4514
-49.596
-46.9766
-46.978
-47.8341
-47.8617
-44.6846
-35.1223
-35.1534
-44.7188
-28.1547
-28.3307
194.675
189.246
184.813
184.634
166.72