# vtk DataFile Version 2.0
tri_press
ASCII
DATASET UNSTRUCTURED_GRID
POINTS 3682 float
-0.71755 0.105 -1.835
-0.731506 0.235 1.915
-0.635 0.465 -1.66019
-0.735 0.645 1.89871
0.717553 0.105 -1.835
0.731507 0.235 1.915
0.635 0.465 -1.66019
0.735 0.645 1.89871
-0.76475 0.105786 -0.585
-0.818646 0.0998743 0.665
-0.728394 0.58506 -0.47389
-0.793613 0.676947 0.71241
0.764788 0.10575 -0.585
0.819009 0.0995137 0.665
0.728414 0.585081 -0.47389
0.793596 0.67693 0.71241
-1.47198 -0.176513 -2.86071
-1.46844 -0.132954 -1.88622
-1.51947 -0.132531 -0.634573
-1.57363 -0.134219 0.629894
-1.54108 -0.0484684 1.88262
-1.52236 0.00912691 2.8624
-1.51977 0.0489772 3.83238
-1.45951 0.040068 -2.7962
-1.45113 0.0969567 -1.82867
-1.51831 0.116054 -0.589421
-1.58066 0.115681 0.655565
-1.52018 0.192243 1.89604
-1.5071 0.247727 2.87491
-1.51129 0.287906 3.84698
-1.42385 0.446918 -2.64931
-1.39354 0.501376 -1.67915
-1.4841 0.597103 -0.483325
-1.55961 0.656079 0.707989
-1.51527 0.653784 1.90504
-1.50313 0.706124 2.88655
-1.50657 0.757407 3.86888
-1.42707 1.13255 -2.47688
-1.42205 1.19969 -1.51626
-1.46082 1.30947 -0.341081
-1.51075 1.39638 0.820363
-1.52608 1.43074 1.9962
-1.5205 1.45542 2.95822
-1.51416 1.4914 3.9336
-0.744815 -0.172064 -2.86482
-0.724032 -0.125879 -1.89221
-0.754015 -0.137557 -0.633768
-0.801592 -0.143757 0.637947
-0.775569 -0.0266135 1.8967
-0.759436 0.024594 2.87195
-0.757681 0.0567882 3.83791
-0.745015 0.0399795 -2.79747
-0.743273 0.263589 2.88279
-0.749764 0.295064 3.85115
-0.716362 0.431746 -2.64144
-0.741106 0.706936 2.88528
-0.74593 0.759075 3.86861
-0.700149 1.12122 -2.46909
-0.686122 1.1885 -1.50767
-0.70939 1.30685 -0.335909
-0.750084 1.40154 0.819743
-0.76607 1.43247 1.99177
-0.760497 1.45468 2.95379
-0.753615 1.49065 3.93038
0.699611 -0.172079 -2.86482
0.739011 -0.125894 -1.89221
0.776868 -0.137626 -0.633769
0.793615 -0.144006 0.637947
0.739013 -0.0267089 1.8967
0.750176 0.0245186 2.87195
0.760346 0.0567059 3.83791
0.674251 0.0399715 -2.79747
0.752513 0.263539 2.88279
0.763364 0.294991 3.85115
0.652237 0.431741 -2.64144
0.754742 0.706897 2.88528
0.766051 0.759012 3.86861
0.73038 1.1212 -2.46909
0.753023 1.18849 -1.50767
0.775161 1.30683 -0.335909
0.774849 1.4015 0.819743
0.760956 1.43242 1.99177
0.761926 1.45462 2.95379
0.768164 1.49058 3.93038
1.43089 -0.176552 -2.86071
1.46922 -0.132997 -1.88622
1.52931 -0.132669 -0.634573
1.56924 -0.134576 0.629894
1.52485 -0.0487102 1.88262
1.51737 0.00894674 2.8624
1.52353 0.0488032 3.83238
1.40419 0.0400436 -2.7962
1.44177 0.0969386 -1.82867
1.51551 0.115961 -0.589421
1.58058 0.11531 0.655565
1.52417 0.192038 1.89604
1.51648 0.247577 2.87492
1.52471 0.287748 3.84698
1.37623 0.446901 -2.64931
1.38862 0.501373 -1.67915
1.48431 0.597083 -0.483325
1.56176 0.655931 0.707989
1.52221 0.653647 1.90504
1.51771 0.706003 2.88655
1.52673 0.757268 3.86888
1.45229 1.13251 -2.47688
1.477 1.19966 -1.51626
1.51626 1.30942 -0.341082
1.53602 1.39629 0.820363
1.52909 1.43063 1.9962
1.52737 1.4553 2.95822
1.53143 1.49126 3.9336
-0.60617 0.285 -1.67749
1.51992e-06 0.101893 -1.83811
-0.745743 0.1008 -1.21
-0.734948 0.44 1.90855
5.06639e-07 0.355221 1.79478
-0.813655 0.128858 1.29
0 0.481576 -1.67677
-0.741853 0.585186 -1.06704
0 0.643255 1.89697
-0.788612 0.685279 1.30556
0.60617 0.285 -1.67749
0.745749 0.100797 -1.21
0.734935 0.44 1.90854
0.813645 0.128869 1.29
0.741852 0.585185 -1.06704
0.788604 0.685271 1.30556
-0.78288 0.111648 0.04
-0.803459 0.345423 -0.529445
1.90722e-05 0.105964 -0.585
-0.898743 0.38841 0.688705
0.000181159 0.0918885 0.665
-0.737242 0.607242 0.11926
1.03233e-05 0.763737 -0.47389
-8.48732e-06 0.942309 0.71241
0.78296 0.11157 0.04
0.803455 0.345415 -0.529445
0.898745 0.388222 0.688705
0.737248 0.607248 0.11926
-0.788439 0.315212 -1.13852
0.788439 0.315208 -1.13852
1.0296e-05 0.0993319 -1.21
5.16167e-06 0.612653 -1.06704
7.59959e-07 0.285 -1.69529
-0.770811 0.366917 0.07963
0.770798 0.366819 0.07963
0.000100116 0.0990618 0.04
9.18011e-07 0.994019 0.11926
-0.898339 0.414205 1.29778
0.898341 0.414111 1.29778
9.08329e-05 0.119861 1.29
-4.24366e-06 0.7837 1.30556
2.5332e-07 0.44 1.79663
-0.639855 0.195 -1.73424
-0.358774 0.1019 -1.8381
-0.733561 0.100985 -1.5225
-0.731049 0.3375 1.9096
-0.365753 0.284533 1.86547
-0.798064 0.156446 1.6025
-0.617282 0.375 -1.66554
-0.3175 0.481547 -1.67674
-0.700459 0.537126 -1.36362
-0.73612 0.5425 1.90478
-0.3675 0.643214 1.89692
-0.750228 0.653561 1.60214
0.358777 0.101896 -1.8381
0.639856 0.195 -1.73424
0.733567 0.100982 -1.5225
0.365754 0.284533 1.86547
0.731026 0.3375 1.90957
0.797218 0.157293 1.6025
0.3175 0.481547 -1.67674
0.617286 0.375 -1.66554
0.700459 0.537126 -1.36362
0.3675 0.643266 1.89698
0.736116 0.5425 1.90477
0.750263 0.653596 1.60214
-0.757891 0.100648 -0.8975
-0.770993 0.111538 -0.2725
-0.803538 0.215887 -0.557223
-0.383016 0.104574 -0.585
-0.810937 0.11958 0.9775
-0.799035 0.107489 0.3525
-0.900898 0.22304 0.676853
-0.410392 0.0935626 0.665
-0.775878 0.625878 -0.770465
-0.772783 0.46867 -0.501668
-0.734276 0.59761 -0.177315
-0.398962 0.743939 -0.47389
-0.807736 0.697736 1.00899
-0.899586 0.559383 0.700558
-0.734101 0.610767 0.415835
-0.455996 0.927997 0.71241
0.75791 0.100632 -0.8975
0.383045 0.104574 -0.585
0.771023 0.111511 -0.2725
0.803534 0.215876 -0.557223
0.810905 0.119614 0.9775
0.410664 0.0935633 0.665
0.799023 0.107503 0.3525
0.900901 0.222856 0.676853
0.775874 0.625874 -0.770465
0.398966 0.743917 -0.47389
0.772776 0.468669 -0.501668
0.734275 0.597608 -0.177315
0.807738 0.697738 1.00899
0.45599 0.928012 0.71241
0.899586 0.559283 0.700558
0.734106 0.610772 0.415835
-0.75715 0.300106 -1.40801
-0.303085 0.285 -1.69275
5.90798e-06 0.099597 -1.52405
1.13994e-06 0.193447 -1.71959
-0.790324 0.208006 -1.17426
-0.372866 0.0993382 -1.21
-0.853743 0.427103 1.60317
-0.367474 0.44 1.86843
4.56698e-05 0.144524 1.54239
3.7998e-07 0.39761 1.79665
-0.900195 0.271532 1.29389
-0.406782 0.119861 1.29
2.58084e-06 0.553897 -1.3719
3.7998e-07 0.383288 -1.69212
-0.791393 0.450199 -1.10278
-0.370924 0.610032 -1.06704
-2.12183e-06 0.674866 1.60126
1.2666e-07 0.541628 1.7966
-0.899868 0.549742 1.30167
-0.394308 0.78364 1.30556
0.757476 0.300104 -1.408
0.303086 0.285 -1.69397
0.790323 0.208002 -1.17426
0.372879 0.0993381 -1.21
0.853728 0.427055 1.60316
0.367468 0.44 1.86843
0.900196 0.27149 1.29389
0.406868 0.119861 1.29
0.791363 0.450196 -1.10278
0.370928 0.610032 -1.06704
0.899906 0.549691 1.30167
0.3943 0.783641 1.30556
-0.759716 0.247847 0.059815
-0.394406 0.0993229 0.04
-0.796295 0.330317 -0.833983
-0.764485 0.35617 -0.224908
1.46841e-05 0.0990762 -0.8975
5.95939e-05 0.0994137 -0.2725
-0.773843 0.377664 0.384168
-0.89866 0.401308 0.993243
0.000140637 0.0921404 0.3525
0.000135996 0.101235 0.9775
-0.770006 0.495069 0.099445
-0.45193 0.96725 0.11926
7.74251e-06 0.659407 -0.770465
5.62068e-06 0.916681 -0.177315
-3.78466e-06 0.988997 0.415835
-6.36549e-06 0.863793 1.00899
0.759709 0.247779 0.059815
0.394524 0.0993284 0.04
0.796295 0.330312 -0.833983
0.764486 0.356117 -0.224908
0.773832 0.37752 0.384168
0.898662 0.401166 0.993243
0.770004 0.495024 0.099445
0.451924 0.967233 0.11926
-0.782897 0.201503 -1.46525
-0.797781 0.216805 -0.865741
-0.7966 0.45772 -0.802224
-0.758705 0.412599 -1.38581
0.782624 0.201501 -1.46525
0.758671 0.412598 -1.38581
0.796599 0.457722 -0.802224
0.797781 0.216792 -0.865741
-0.36582 0.0996035 -1.52328
0.365828 0.0996034 -1.52328
0.377641 0.0990808 -0.8975
-0.377616 0.0990811 -0.8975
-0.344212 0.553845 -1.36776
-0.367558 0.652816 -0.770465
0.36757 0.652804 -0.770465
0.344214 0.553845 -1.36776
-0.330929 0.194223 -1.78916
-0.310292 0.379144 -1.69094
0.310293 0.379144 -1.69097
0.330931 0.194223 -1.79092
-0.753104 0.246129 -0.248704
-0.766701 0.267247 0.368334
-0.767909 0.493782 0.400001
-0.764339 0.478342 -0.201111
0.753101 0.246088 -0.248704
0.76434 0.478321 -0.201111
0.768295 0.493903 0.400001
0.767255 0.266842 0.368334
-0.389805 0.0997593 -0.2725
0.38988 0.0997608 -0.2725
0.403936 0.0937614 0.3525
-0.403741 0.0937593 0.3525
-0.447978 0.900659 -0.177315
-0.460175 0.960049 0.415835
0.4602 0.960108 0.415835
0.447945 0.900574 -0.177315
-0.900493 0.257837 0.985371
-0.8539 0.304516 1.60283
-0.85365 0.546121 1.60265
-0.89687 0.54121 1.00111
0.900495 0.257679 0.985371
0.896871 0.541133 1.00111
0.853627 0.546095 1.60265
0.853878 0.304495 1.60283
-0.408007 0.101235 0.9775
0.408232 0.101235 0.9775
0.386311 0.148122 1.57244
-0.386267 0.148122 1.57244
-0.39556 0.862906 1.00899
-0.380904 0.674735 1.6017
0.3809 0.674735 1.6017
0.395547 0.862907 1.00899
-0.366613 0.367555 1.89323
0.366611 0.367555 1.89323
0.367484 0.542064 1.80259
-0.367487 0.542064 1.80259
-0.662197 0.15 -1.76811
-0.538162 0.101926 -1.83807
-0.727446 0.101102 -1.67875
-0.731682 0.28625 1.9127
-0.548629 0.234874 1.91513
-0.772388 0.188119 1.75875
-0.626224 0.42 -1.66295
-0.47625 0.480867 -1.67606
-0.676222 0.509556 -1.5119
-0.73489 0.59375 1.90107
-0.55125 0.643182 1.89689
-0.741153 0.647819 1.75042
0.538165 0.101922 -1.83808
0.662267 0.15 -1.76818
0.727449 0.101102 -1.67875
0.54863 0.234874 1.91513
0.731627 0.28625 1.91265
0.768876 0.191633 1.75875
0.47625 0.480867 -1.67606
0.626183 0.42 -1.66291
0.676228 0.509561 -1.5119
0.55125 0.643251 1.89696
0.734891 0.59375 1.90107
0.741159 0.647826 1.75042
-0.763949 0.100589 -0.74125
-0.770737 0.105796 -0.42875
-0.803486 0.151166 -0.571111
-0.573894 0.105158 -0.585
-0.80678 0.117739 0.82125
-0.80661 0.105912 0.50875
-0.896632 0.143028 0.670926
-0.615815 0.0941269 0.665
-0.780291 0.633624 -0.622178
-0.751579 0.52736 -0.487779
-0.731603 0.591603 -0.325603
-0.59012 0.717385 -0.47389
-0.804412 0.691078 0.860698
-0.899803 0.644766 0.706484
-0.762976 0.642976 0.564123
-0.605778 0.76442 0.71241
0.763965 0.100575 -0.74125
0.573919 0.105158 -0.585
0.770757 0.105779 -0.42875
0.803481 0.151153 -0.571111
0.806779 0.117741 0.82125
0.616042 0.0941274 0.665
0.806688 0.105836 0.50875
0.896512 0.142906 0.670926
0.780298 0.633632 -0.622178
0.590089 0.717297 -0.47389
0.751442 0.527298 -0.487779
0.731613 0.591613 -0.325603
[...]
POINT_DATA 3682
SCALARS point_scalars float 1
LOOKUP_TABLE default
6.68255
-34.5361
-20.6933
-35.2211
6.76121
-34.5204
-20.9641
-35.1855
-28.5959
-39.2104
-43.16
-55.8426
-28.6402
-39.2895
-43.1679
-55.7827
11.9996
-66.6008
-34.3972
-39.711
-43.2637
-35.0076
-34.0049
26.3116
-66.6008
-34.2581
-44.0128
-41.7904
-34.5263
-34.0049
26.3116
-57.9986
-51.3863
-50.5488
-40.8016
-36.6237
-33.6314
-4.80228
-47.2909
-51.7794
-52.0134
-39.9563
-33.6887
-33.6887
132.886
-23.1495
-30.1534
-37.7837
-36.8591
-34.0049
-34.0049
132.886
-34.0049
-34.0049
132.886
-32.6147
-30.8324
-5.82645
-33.1453
-67.2731
-57.5024
-34.2851
-33.6887
-33.6887
133.042
-23.645
-31.1606
-37.5945
-35.1277
-34.0051
-34.0051
133.042
-34.0051
-34.0051
133.042
-32.5816
-30.9713
-8.20107
-34.5398
-65.7931
-57.4975
-34.2522
-33.6547
-33.6547
0.469069
-66.5858
-34.4334
-36.2677
-41.5528
-34.9781
-34.0051
26.8097
-66.5858
-34.322
-44.1413
-41.7046
-34.5117
-34.0051
26.8097
-58.1948
-51.3315
-50.3145
-40.7737
-36.5862
-33.5715
-5.3184
-47.2957
-51.7313
-52.2846
-39.9308
-33.6547
-33.6547
37.9138
-153.565
-40.5552
-32.6525
-23.4096
-38.9618
-63.2374
-33.3378
-28.7968
-45.2133
38.1771
-40.5252
-32.6162
-38.9666
-33.2966
-45.1957
-16.976
-40.5325
-28.7609
-47.7011
-35.1356
-35.3241
15.5571
-57.7919
-17.021
-40.5285
-47.5463
-35.3958
-53.5473
-53.4503
-43.1692
-15.9276
187.731
-19.4527
-19.6824
-28.3333
-98.8019
-45.6826
-45.6486
-36.0804
-37.3499
-22.6557
40.3401
-72.6682
-64.6747
-32.7529
-29.0574
-42.2516
32.1547
-56.1899
-34.4078
-33.6167
-30.2623
-36.6921
-71.6202
40.2493
-64.6498
-29.0083
-32.7186
-42.3454
-56.249
32.0116
-34.3869
-30.2825
-33.5824
-36.6674
-32.0906
-21.7721
-36.1465
-28.2666
-37.822
-26.5184
-45.0642
-35.0115
-38.7523
-41.5017
-36.1978
6.68964
-50.5644
-49.6768
-39.3527
-58.2227
-32.0686
-28.2765
-21.8352
-36.201
-37.7451
-35.0067
-26.3825
-44.9569
-38.6853
6.69294
-41.5233
-36.2279
-50.5419
-58.2172
-49.5501
-39.3296
-73.5401
183.35
-69.3283
196.855
-51.1525
-41.7605
-45.4425
-27.8511
-33.0083
-22.8374
-44.6859
-37.2023
-33.8635
181.969
-52.8148
-19.3776
-32.804
-22.9096
-46.428
-38.9972
-73.5794
182.958
-51.1242
-41.7561
-45.4264
-27.7719
-44.66
-37.1948
-52.7331
-19.3764
-46.3927
-39.0427
-18.7059
-27.3901
-40.6151
-25.4872
-34.512
-27.945
-6.57947
-43.2771
-30.6203
-37.7215
-23.5639
-76.3417
1.87854
-38.1455
-77.0795
-45.3898
-18.9479
-27.4019
-40.506
-25.5649
-7.12137
-43.1642
-23.7127
-76.3674
-76.0381
-39.5758
-41.4169
-65.9635
-76.009
-65.8956
-41.3076
-39.4489
-68.0019
-67.993
-33.9201
-33.9184
-32.7555
-5.46556
-5.47058
-32.7484
189.573
179.225
179.12
189.746
-24.8944
-7.71922
-8.40447
-28.0007
-25.0247
-28.0204
-8.99827
-8.16155
-27.0174
-27.0335
-30.1465
-30.1481
-53.5474
-64.9081
-64.9256
-53.4852
-41.9362
-45.0874
-45.1298
-44.0174
-41.8339
-43.923
-45.096
-45.0566
-38.1768
-38.1687
-34.935
-34.9673
-47.0716
-33.6247
-33.6116
-47.0654
-28.0248
-27.9438
-27.3512
-27.5044
54.5883
-19.8266
-91.3543
-33.7726
-31.2863
-38.1576
18.0036
-26.6792
-37.1779
-35.4176
-31.0728
-34.7504
-19.8149
51.5804
-91.3596
-31.2183
-33.7597
-38.0344
-26.7556
17.7461
-37.164
-31.0154
-35.3824
-34.7231
-30.1388
-30.0921
-33.6319
-27.7836
-42.9218
-35.2717
-42.7776
-36.0639
-45.2319
-41.3199
-36.187
-26.7559
-55.5518
-50.7886
-52.7955
-53.7896
-30.1663
-27.8008
-30.1516
-33.6973
-42.8335
-36.0677
-35.0848
-42.8394
-45.3527
-26.7268
-41.3329
-36.1978
-55.5327
-53.6535
-50.5481
-52.6799
34.7367
41.2688
-78.1166
169.066
-196.695
-197.287
-102.238
194.911
-49.9143
-36.4942
-47.6261
-39.9536
-32.5635
-32.9268
-37.9541
-29.4064
-24.2079
-24.1493
-30.3553
-23.0224
-43.6075
-37.5051
-42.8436
-38.195
-51.1696
-51.1811
-55.8928
113.328
-32.0152
-33.7828
-52.8394
-23.3238
-29.4426
-29.5383
-31.4788
-23.5406
-40.5612
-47.7237
-46.8518
-41.8417
34.9066
39.7124
-78.0554
167.936
-49.8951
-36.4638
-47.6005
-40.3222
-32.5268
-32.8911
-37.9036
-29.3645
-43.6815
-37.461
-42.8232
-38.2031
-32.0541
-33.7169
-52.7456
-23.3033
-40.5496
-47.6808
-46.8213
-41.8203
-24.982
-23.0754
-17.8966
-25.5669
-39.2129
-41.364
-38.4911
-29.5227
-28.6113
-28.6148
-32.548
-26.7002
-46.644
-48.5879
-50.5627
-44.9924
-35.144
-35.1422
-33.2972
-37.5787
-35.4259
-34.2109
-28.7559
-51.2066
14.3944
14.4004
11.4559
0.904837
-57.7168
-57.7221
-66.5958
-50.6966
-25.0522
-23.115
-18.1071
-25.5914
-39.2271
-41.3551
-38.4412
-29.6075
-46.5013
-48.4455
-50.209
-44.8593
-35.4709
-34.3132
-28.8467
-51.255
-67.0955
-53.0326
-52.7149
-45.5524
-67.0341
-52.9715
-52.6106
-45.4217
-52.3467
-42.5978
-42.5923
-37.7855
-23.1443
-16.8685
-16.8709
-7.29071
186.061
194.354
190.649
186.01
-18.8006
-23.0625
-13.9127
-20.9359
-19.0374
-23.1906
-14.2861
-21.1249
-28.138
-28.0635
-28.9854
-28.1431
-95.5212
-85.9939
-87.7458
-95.5356
-49.4083
-45.4343
-45.9472
-43.2472
-49.4286
-45.4055
-45.9101
-43.1649
-35.116
-36.4222
-36.4162
-36.9345
-34.8822
-37.6282
-37.6721
-40.9979
-23.4375
-22.7466
-22.7064
-23.3782
-60.0459
180.086
-101.789
183.69
-78.917
-64.8164
-38.161
-29.7971
-33.3844
-28.5187
-44.9697
-37.5871
-70.6964
166.497
-52.9081
123.997
-52.387
-31.5252
-38.4888
-29.3922
-31.7383
-28.2631
-44.3768
-34.9697
-101.819
176.408
-60.3079
179.955
-78.9022
-64.8046
-33.3258
-28.4522
-38.0895
-29.7549
-44.936
-37.5736
-52.8947
124.003
-70.6553
166.468
-52.3348
-31.5051
-31.7194
-27.798
-38.4476
-29.4527
-44.3074
-34.953
-38.2269
-32.991
-24.2874
-25.4659
-36.6506
-31.4638
-32.1001
-26.2748
-40.4142
-38.2323
-9.9819
-29.2937
-47.3284
-43.5419
-33.0005
-38.0082
-44.9789
-16.6724
-41.9821
-29.8681
-31.6158
-57.3009
1.94727
-12.609
-44.6368
-50.1522
-48.7157
-46.4839
-23.5441
-51.7359
-62.438
-52.6063
-38.1449
-32.9911
-32.1059
-26.2891
-24.4092
-25.4973
-36.6302
-31.5374
-40.326
-38.206
-32.9955
-38.0006
-10.0811
-29.2763
-47.0207
-43.4526
-44.9065
-16.6708
1.93777
-12.4845
-41.9811
-29.9075
-31.6362
-57.2548
-44.6465
-50.1284
-62.4344
-52.5941
-48.6763
-46.3788
-23.7989
-51.7635
-73.5175
-70.5063
183.549
187.276
-68.5317
-68.5074
199.172
199.276
-68.8875
-44.8562
-50.8885
-36.885
-45.3489
-44.9786
-27.7934
-27.761
-33.3557
-33.3784
-23.6051
-23.5478
-41.8734
-49.3106
-37.5461
-36.7648
-33.4552
-33.4539
174.011
173.973
-45.3087
-61.0667
-24.1397
-12.2292
-32.9796
-32.9723
-23.9033
-23.9667
-48.1601
-43.5908
-42.6651
-35.8913
-73.5124
-70.4866
186.949
183.562
-68.8372
-44.7622
-50.8796
-36.8831
-44.9571
-45.3286
-27.7127
-27.6645
-41.8007
-49.3244
-37.5384
-36.7487
-60.9839
-45.2368
-12.2148
-24.1351
-43.4994
-48.2337
-35.8821
-42.6568
-22.1221
-14.1039
-27.1217
-28.2456
-40.2957
-40.9023
-24.9586
-26.3815
-34.3166
-34.317
-27.7639
-27.7711
-7.13713
-7.05423
-42.7358
-43.702
-30.492
-30.4917
-37.8446
-37.8414
-18.1626
-26.5178
-78.0936
-68.1428
-0.0450694
-0.0938803
-37.867
-37.806
-74.9416
-74.9458
-45.6415
-45.6387
-22.2961
-14.433
-27.1381
-28.2497
-40.8004
-40.16
-25.0674
-26.4234
-7.61271
-7.60236
-42.6275
-43.5944
-26.5828
-18.4613
-68.1656
-78.1714
-68.3747
-63.1369
-68.5313
-73.6797
-35.3197
-37.5004
-45.5043
-43.62
-46.5351
-46.9784
-45.4679
-39.8325
-48.7302
-75.8327
-64.3388
-51.8197
-68.3763
-73.793
-68.4585
-63.1097
-48.6882
-51.8092
-64.2801
-75.7429
-46.6511
-39.7935
-45.366
-46.8708
-35.3199
-43.5656
-45.3768
-37.4591
-95.8674
-101.239
-51.8082
-48.7953
-95.8575
-48.7854
-51.7985
-101.121
-31.706
-32.4331
-37.499
-35.6261
-31.6953
-35.631
-37.5019
-32.429
-46.592
-25.3434
-23.3676
-55.0763
-17.3081
9.55554
-8.61546
-18.8812
-17.3184
-18.8522
-8.61066
9.5522
-46.4979
-55.074
-23.3674
-25.3683
169.917
177.659
190.072
182.48
131.191
109.89
188.597
173.237
131.439
172.883
188.553
109.86
169.973
188.559
190.026
177.376
-31.6539
-22.9447
-22.3042
-30.2307
-41.8845
-48.1637
-13.6392
-14.7453
-39.5934
-25.3469
-15.2607
-52.2482
-32.4356
-29.5087
-24.3607
-30.7821
-31.7356
-30.317
-22.4599
-23.1409
-32.4592
-30.8244
-24.4487
-29.5715
-39.7079
-51.9394
-15.6181
-25.5413
-41.4111
-15.0178
-13.9888
-47.8234
-25.6602
-26.5182
-27.8202
-25.2968
-25.6837
-25.336
-27.8271
-26.5226
-33.0204
-33.2177
-28.7948
-26.7867
-33.0424
-26.7815
-28.7929
-33.2187
-54.3066
-55.3095
-84.1803
0.99184
-53.3207
-65.7032
-83.7184
-49.7576
-53.3106
-49.8059
-83.7291
-65.6752
-54.4163
0.971863
-84.3013
-55.3722
-42.7762
-39.8259
-42.6325
-44.4271
-38.5904
-37.9484
-49.2662
-50.3377
-38.9726
-48.0124
-49.152
-38.0733
-49.802
-45.56
-43.5477
-43.4063
-42.9538
-44.3051
-42.6244
-39.7595
-49.7595
-43.242
-43.4614
-45.4347
-38.9329
-38.0288
-49.1824
-48.1021
-38.5209
-50.3695
-49.282
-37.8888
-39.3552
-37.6569
-37.1139
-37.8635
-39.364
-37.8443
-37.1097
-37.6528
-35.242
-30.6971
-35.5174
-38.8655
-35.2262
-38.8615
-35.5296
-30.7276
-52.4204
-45.6642
-41.323
-50.9291
-32.6369
-31.4513
-35.0845
-37.8447
-32.6134
-37.8271
-35.0797
-31.4422
-52.4166
-50.941
-41.3198
-45.6569
-29.9148
-24.297
-23.4515
-29.6253
-29.8678
-29.5853
-23.3939
-24.2382
-30.2301
-25.0868
-23.6191
-29.3793
-30.2383
-29.4362
-23.6817
-25.8111
14.0526
26.6627
-58.229
-34.2947
-33.1767
-36.7148
2.15109
-23.2878
-42.8034
-35.7626
-32.1237
-34.0234
26.6198
14.312
-58.0774
-33.1381
-34.2864
-36.361
-25.238
2.11185
-42.6541
-32.0897
-35.726
-33.9863
-31.8391
-27.5917
-31.8277
-27.9465
-46.4203
-34.8657
-41.172
-37.8615
-54.0453
-41.8269
-37.2032
-51.7156
-55.3809
-52.4064
-54.3048
-54.8584
-31.8668
-27.9703
-27.6565
-31.8844
-46.8042
-37.9135
-34.5913
-41.2421
-54.0169
-51.6856
-41.831
-37.1925
-55.3414
-54.8092
-52.2974
-54.2584
36.0004
44.4072
-61.1848
135.27
-130.349
-141.524
-134.661
116.026
-44.5652
-37.7797
-44.9184
-39.4749
-32.5805
-32.7524
-35.1507
-30.3112
-23.7701
-23.716
-28.7882
-23.2122
-41.3583
-37.2453
-41.4939
-38.58
-66.7862
-66.7909
-77.1185
55.9295
-32.6665
-33.1601
-47.1679
-26.5
-29.6544
-29.6728
-31.6851
-27.1977
-43.2932
-46.507
-46.5776
-42.8209
36.2962
44.7029
-61.3585
135.303
-44.542
-37.7496
-44.8882
-39.4576
-32.5437
-32.7169
-35.0893
-30.2799
-41.3672
-37.2306
-41.4787
-38.6056
-32.6372
-33.1349
-47.0918
-26.447
-43.2753
-46.4883
-46.5426
-42.7985
-23.5325
-18.9207
-16.8302
-23.2978
-40.4355
-41.6822
-39.2783
-34.8868
-28.7757
-28.7772
-30.6859
-27.7533
-47.292
-48.1612
-49.5471
-46.1929
-35.1417
-35.1409
-34.1484
-36.196
-35.3863
-34.5946
-31.7172
-43.1514
15.2221
15.2317
16.5026
9.93819
-57.7749
-57.778
-62.1858
-54.1422
-23.7989
-19.0286
-16.9542
-23.3312
-40.435
-41.6705
-39.2679
-34.9239
-47.143
-48.0154
-49.3583
-46.0851
-35.444
-34.687
-31.7901
-43.2304
-60.4662
-53.5599
-53.4384
-48.795
-60.4272
-53.4971
-53.3378
-48.7632
-46.6364
-43.0829
-43.0805
-40.2974
-19.2208
-16.1088
-16.1102
-12.1581
187.203
192.441
190.751
187.179
-19.05
-21.4113
-17.0532
-20.1152
-19.2839
-21.5917
-17.3433
-20.3296
-28.2991
-28.1682
-28.5842
-28.3015
-97.9342
-97.8871
-93.4101
-97.9461
-47.5543
-45.5644
-45.6948
-44.0583
-47.5438
-45.5324
-45.6575
-43.9975
-35.7039
-36.2006
-36.197
-36.5188
-35.7048
-37.3468
-37.3304
-39.1928
-23.0842
-22.7012
-22.6588
-23.0387
47.0895
37.9827
-46.8499
145.602
-39.4485
-140.741
-141.494
57.8542
-84.1601
-55.7525
-75.4239
-62.0301
-33.0844
-32.592
-35.3491
-30.4476
-29.3102
-27.1057
-31.1967
-28.7401
-40.9899
-43.1381
-44.4774
-39.4094
27.6185
39.7445
-53.5888
133.251
-47.5975
-61.0874
-71.404
69.2915
-41.1187
-35.305
-43.0038
-32.5244
-34.3845
-33.212
-35.7635
-30.7265
-30.6476
-30.0765
-31.0824
-29.8243
-35.3719
-38.3721
-42.3441
-35.4615
-39.4829
-141.704
-141.543
62.7178
46.9088
37.8246
-46.6443
143.365
-84.1304
-55.7447
-75.3713
-62.0143
-29.234
-27.0462
-31.1278
-28.6999
-33.0612
-32.556
-35.2823
-30.4142
-40.9954
-43.314
-44.4887
-39.4388
-47.7212
-61.1025
-71.3794
69.2735
27.4906
39.1914
-54.1318
133.678
-41.1061
-35.3247
-42.9529
-32.5034
-30.5698
-30.0249
-31.0627
-29.7931
-34.3495
-33.1778
-35.7109
-30.6893
-35.3548
-38.3508
-42.2727
-35.443
-30.9135
-33.7439
-36.3905
-32.3614
-27.9247
-19.0189
-22.8256
-23.8159
-35.1876
-37.422
-36.2551
-36.7461
-28.0386
-28.5518
-30.0912
-27.3126
-37.9181
-38.0652
-39.8068
-37.5689
-33.69
-24.3214
-20.217
-28.4195
-44.1299
-45.8942
-43.867
-45.1392
-35.2091
-35.126
-34.0074
-36.3452
-42.6983
-34.0401
-45.357
-24.0733
-41.117
-43.0615
-44.3687
-33.5813
-35.9724
-35.8056
-33.9471
-46.051
-4.18799
11.5231
5.80362
0.710075
-51.4809
-49.3038
-46.2608
-50.4384
-50.1797
-49.0334
-51.0076
-48.0295
-45.6534
-35.2798
-34.5071
-46.2978
-54.993
-57.6711
-59.9043
-56.5729
-30.92
-33.7105
-36.3175
-32.3561
-28.0522
-28.5584
-30.0993
-27.3247
-27.9939
-18.9489
-22.9148
-23.8543
-35.2546
-37.4597
-36.2857
-36.7703
-37.816
-38
-39.7207
-37.5173
-35.2056
-35.1227
-34.0023
-36.3405
-33.516
-24.2953
-20.117
-28.3684
-44.0969
-45.77
-43.6939
-45.0895
-42.4757
-33.9858
-45.2732
-24.0638
-4.23098
11.5395
5.96084
0.881876
-41.1368
-43.0422
-44.3504
-33.6211
-36.0038
-35.8452
-33.9694
-46.0846
-51.4543
-49.2309
-46.2912
-50.4094
-54.9996
-57.6748
-59.8998
-56.5585
-50.0023
-48.8919
-50.8325
-47.924
-45.6279
-35.3432
-34.5385
-46.2496
-79.0254
-71.3709
-75.1033
-72.4787
179.897
184.915
182.855
186.396
-82.4744
-58.1588
-69.303
-69.2905
199.036
195.594
196.542
196.523
-49.461
-52.2835
-58.2404
-47.6196
-40.9737
-42.4323
-45.6081
-39.2909
-41.393
-48.5943
-45.4247
-45.4343
-28.4815
-25.0827
-27.8205
-27.8584
-31.5651
-34.306
-33.0104
-33.0226
-22.8828
-22.792
-23.2708
-23.2219
-44.1331
-45.0818
-42.7913
-47.0072
-37.6632
-36.759
-37.3083
-37.0399
-41.7159
-27.2098
-33.6985
-33.698
160.302
187.59
177.8
177.78
-53.0488
-52.3432
-49.2941
-56.7028
-21.1202
-17.982
-21.763
-16.3625
-31.9421
-33.8393
-32.8283
-32.8247
-18.2334
-22.7664
-23.2457
-23.2893
-46.5637
-46.244
-48.145
-44.0879
-40.7242
-38.1075
-40.7444
-37.1815
-78.9188
-71.3491
-75.1606
-72.4873
179.181
184.801
186.037
182.581
-49.4417
-52.242
-58.1827
-47.559
-41.2902
-42.4257
-45.5692
-39.4375
-41.353
-48.6125
-45.418
-45.4081
-28.4119
-24.9958
-27.74
-27.7811
-44.1086
-45.0548
-42.739
-47.0105
-37.6591
-36.7508
-37.3017
-37.0255
-52.9621
-52.2495
-56.6426
-49.1933
-21.1119
-17.9836
-16.3711
-21.7605
-46.5274
-46.2061
-44.0237
-48.1205
-40.7049
-38.0725
-37.1725
-40.7368
-19.0106
-18.7113
-20.3922
-16.6142
-26.739
-27.8383
-27.2121
-27.6878
-38.9322
-42.638
-40.4911
-40.7242
-27.0902
-24.2853
-25.2767
-25.9611
-33.3193
-35.8407
-34.4673
-34.4673
-27.2217
-27.9374
-27.897
-27.9006
-16.5346
-9.96877
-7.0453
-6.8135
-44.0384
-43.0699
-43.0027
-43.5661
-32.4038
-29.1723
-30.5923
-30.592
-38.0126
-37.3856
-37.7551
-37.7537
-25.8811
-22.0149
-21.2915
-25.0621
-61.6422
-90.3795
-78.5548
-71.6878
6.61215
-3.23155
1.40086
1.40291
-16.5405
-66.6549
-38.1213
-38.0739
-72.0413
-82.2113
-76.5845
-76.5875
-47.8063
-42.8919
-45.4478
-45.4468
-19.2502
-18.9502
-20.6017
-16.903
-26.7559
-27.8465
-27.2272
-27.6955
-38.8353
-42.5324
-40.6099
-40.3713
-27.1741
-24.3929
-25.3699
-26.0358
-16.2868
-10.4635
-7.30355
-7.45295
-43.9154
-42.9711
-42.8899
-43.4545
-26.0024
-22.1811
-25.1594
-21.4937
-61.6759
-90.4214
-71.7064
-78.6309
-73.4007
-77.6875
-73.842
-77.1636
-38.9972
-37.9691
-41.827
-39.9509
-42.7453
-40.8427
-42.7329
-41.0337
-73.2058
-63.1505
-68.353
-63.8944
-73.3623
-77.658
-73.8354
-77.0857
-73.1852
-63.0878
-68.316
-63.8881
-42.6321
-40.7917
-42.6083
-40.9476
-38.8909
-37.909
-41.7472
-39.8166
-82.5296
-66.9752
-68.2416
-57.5446
-82.5249
-66.9694
-68.2208
-57.5349
-33.4838
-32.693
-35.3143
-34.1258
-33.4816
-32.7463
-35.3148
-34.125
-40.1704
-32.1644
-33.1321
-27.1924
-10.0677
-1.53459
-8.75675
-2.37582
-10.0681
-1.53823
-8.73881
-2.21038
-40.159
-32.1493
-33.1287
-27.1873
181.188
196.774
185.776
195.963
177.803
163.403
184.959
175.519
163.374
177.705
175.455
184.767
196.826
181.166
195.886
186.076
-25.0508
-27.0475
-23.5631
-24.8601
-7.82167
-23.5412
-10.7163
-7.38484
-17.6328
-12.7181
-7.47968
-13.9791
-28.5639
-29.4569
-26.995
-27.5858
-25.1791
-27.1549
-23.71
-24.9819
-28.6099
-29.4795
-27.0226
-27.6331
-18.0723
-13.2324
-8.02286
-14.4159
-8.23687
-23.449
-11.0981
-7.84278
-26.4197
-26.6116
-26.9767
-27.4706
-26.6271
-26.442
-27.482
-26.9935
-31.9806
-29.8216
-30.3086
-28.6935
-29.8278
-31.9844
-28.6919
-30.3085
-67.3231
-26.7322
-70.4887
-38.4995
-56.433
-63.8392
-66.1872
-71.5427
-63.8517
-56.4566
-71.5571
-66.2012
-26.6473
-67.4883
-38.4546
-70.4442
-41.2883
-42.4259
-41.6333
-42.2985
-41.3241
-45.1411
-45.2352
-48.3572
-41.317
-45.5842
-45.3932
-47.4806
-44.2174
-45.0445
-43.5686
-43.9179
-41.1903
-42.362
-41.5423
-42.1908
-44.1446
-44.9514
-43.4618
-43.8152
-41.2839
-45.5072
-45.368
-47.4922
-41.2664
-45.1022
-45.2116
-48.3602
-38.3396
-38.4355
-37.8904
-37.9894
-38.3263
-38.4269
-37.8819
-37.984
-33.9185
-36.1148
-34.0047
-36.0913
-33.9614
-36.1447
-34.035
-36.1148
-48.5924
-49.8817
-44.6887
-46.0753
-32.5958
-34.2748
-33.2179
-34.7097
-32.5792
-34.2598
-33.2071
-34.699
-48.5824
-49.875
-44.6817
-46.0707
-28.7999
-28.2611
-27.9444
-24.8245
-28.1798
-28.7383
-24.731
-27.8649
-27.4311
-27.959
-25.7129
-27.5052
-27.9707
-27.3824
-27.6474
-25.7764
-16.3549
141.822
-138.724
145.737
-67.5671
-91.1939
-35.7428
-31.3049
-32.5106
-30.5615
-38.7991
-36.2732
-44.7684
113.563
-64.0393
53.7723
-42.3159
-43.8179
-36.5269
-31.3249
-31.7041
-30.731
-38.6734
-33.1997
-138.712
145.7
-16.2517
141.701
-67.5515
-91.1725
-32.3489
-30.5096
-35.6877
-31.2721
-38.7348
-36.2298
-63.8648
54.056
-44.4469
114.353
-42.3145
-43.6362
-31.6752
-30.6902
-36.4777
-31.2865
-38.6346
-33.1768
-31.0183
-31.7187
-31.1813
-26.2302
-34.8383
-33.7344
-29.7478
-26.7892
-43.1543
-41.8656
-39.7016
-33.2152
-34.8036
-46.2791
-34.4855
-37.7565
-48.4453
-33.1552
-51.5266
-34.4978
-34.18
-47.8112
-15.3229
-42.8208
-53.1869
-52.1816
-47.3323
-50.2756
-49.5808
-55.9416
-53.5148
-53.272
-31.0398
-31.7343
-29.7617
-26.8099
-31.2525
-26.2569
-34.878
-33.7982
-43.1673
-41.8927
-34.472
-37.7671
-39.7492
-33.152
-34.229
-46.3235
-48.5056
-33.1728
-15.3506
-42.6602
-51.4937
-34.5239
-34.1951
-47.8959
-53.1465
-52.1888
-53.5317
-53.2746
-47.1805
-50.2261
-49.6721
-55.937
-56.0708
137.481
-66.1878
140.699
-77.3647
-77.8095
173.218
172.401
-129.885
120.199
-129.848
119.335
-102.009
-101.942
183.918
180.507
-59.183
-47.6406
-40.0037
-34.9058
-54.2132
-44.0262
-43.7414
-37.9159
-35.1976
-30.296
-35.3041
-30.4241
-37.9389
-38.0034
-29.5715
-29.4094
-29.4093
-24.2469
-29.3516
-24.1882
-30.1477
-30.1799
-23.6333
-23.5808
-49.1424
-40.3429
-39.1434
-37.6148
-40.6418
-46.2769
-37.8737
-38.6529
-75.1788
36.2045
-75.1768
36.181
-55.7269
-55.7262
119.85
119.832
-44.2947
-27.0698
-42.7982
-24.3135
-49.2674
-51.5086
-24.5652
-21.1957
-31.3197
-28.3497
-31.3151
-28.4674
-31.4601
-31.4557
-23.4707
-23.6995
-47.6575
-38.8359
-44.0567
-46.7334
-48.2511
-43.9836
-43.5729
-39.6259
-56.2093
137.125
-66.6367
140.469
-77.3754
-77.7075
172.268
172.724
-59.1539
-47.627
-39.9629
-34.896
-54.1721
-43.953
-43.7314
-37.909
-35.132
-30.2635
-35.2474
-30.39
-37.9565
-37.8846
-29.5331
-29.3368
-49.2059
-40.3802
-39.0848
-37.5688
-40.5958
-46.294
-37.8743
-38.6582
-44.3281
-27.1169
-42.6962
-24.2687
-51.3765
-49.1488
-21.1814
-24.47
-47.7429
-38.8201
-43.8673
-46.7051
-43.9358
-48.1811
-39.6125
-43.5599
-24.4589
-23.9065
-15.642
-25.4078
-19.2188
-15.3218
-25.2542
-26.25
-37.4966
-35.9053
-40.7842
-34.4983
-37.7809
-39.0799
-29.6662
-29.516
-30.5589
-27.591
-30.5625
-27.5949
-32.5333
-32.5305
-26.658
-26.6593
-48.1576
-45.6922
-50.1942
-46.9468
-50.2673
-52.8742
-44.7075
-45.2967
-34.1106
-36.2507
-34.1091
-36.2485
-33.2565
-33.2563
-37.5155
-37.5162
-32.9221
-44.7363
-29.7283
-42.1657
-27.2543
-29.7325
-52.5834
-50.1209
14.7808
9.5888
14.7934
9.57527
11.0639
11.0575
0.878781
0.867574
-61.703
-54.2516
-61.7129
-54.2468
-66.3295
-66.3205
-50.7871
-50.7116
-24.6472
-23.9837
-15.7891
-25.4114
-19.4104
-15.5965
-25.2904
-26.2638
-37.5076
-35.9321
-40.7638
-34.5398
-39.0301
-37.7383
-29.7561
-29.5963
-47.9645
-45.5683
-50.0354
-46.8178
-52.5559
-49.911
-44.5788
-45.1663
-32.9622
-44.881
-29.8681
-42.396
-29.7893
-27.3799
-50.1728
-52.651
-67.5619
-66.1649
-60.4
-48.4227
-49.0581
-59.0616
-45.6203
-45.5613
-67.4852
-66.1071
-60.3553
-48.3805
-59.0168
-48.9935
-45.4357
-45.4883
-52.2227
-52.2195
-46.276
-39.9583
-46.268
-39.9543
-37.7147
-37.7165
-23.1663
-23.1665
-19.8536
-13.2201
-13.2274
-19.8544
-7.56869
-7.56692
186.998
188.036
195.257
195.236
190.408
190.387