# vtk DataFile Version 2.0
tri_press
ASCII
DATASET UNSTRUCTURED_GRID
POINTS 3682 float
-0.727605 0.245 -2.065
-0.715 0.325 2.09474
-0.751147 0.675 -1.975
-0.704833 0.965 2.025
0.727607 0.245 -2.065
0.715 0.325 2.09474
0.75115 0.675 -1.975
0.704833 0.965 2.025
-0.800213 0.194857 -0.67842
-0.809054 0.208481 0.70816
-0.828922 0.86488 -0.641667
-0.80357 0.951632 0.691667
0.800203 0.194869 -0.67842
0.80904 0.208496 0.70816
0.828925 0.86488 -0.641667
0.803567 0.951628 0.691667
-1.52453 -0.129888 -3.16769
-1.52956 -0.0817022 -2.07975
-1.57924 -0.114521 -0.691796
-1.58334 -0.120323 0.706877
-1.5233 -0.0416676 2.09574
-1.50578 0.0197786 3.18809
-1.51144 0.0705929 4.27227
-1.52275 0.154262 -3.14183
-1.52818 0.228656 -2.05971
-1.59204 0.218184 -0.682116
-1.5832 0.221798 0.700273
-1.49236 0.298373 2.07889
-1.48471 0.358301 3.1705
-1.50053 0.408304 4.25641
-1.5335 0.671683 -3.07517
-1.54765 0.743541 -1.99085
-1.6123 0.873475 -0.649553
-1.58294 0.937816 0.687971
-1.48632 0.968463 2.03029
-1.48202 1.02498 3.1241
-1.50033 1.07942 4.2186
-1.55295 1.57746 -3.01522
-1.56447 1.66894 -1.93887
-1.58906 1.82163 -0.614837
-1.59147 1.94231 0.69772
-1.56669 2.0074 2.02231
-1.54885 2.04924 3.09982
-1.54225 2.09437 4.18851
-0.749078 -0.121474 -3.17113
-0.739337 -0.0693953 -2.08476
-0.784607 -0.125467 -0.691124
-0.804729 -0.130504 0.713608
-0.764059 -0.0294778 2.1075
-0.749399 0.0285438 3.19608
-0.752904 0.0748156 4.27689
-0.748174 0.154689 -3.14289
-0.730667 0.368111 3.17708
-0.744192 0.412641 4.2599
-0.756073 0.644103 -3.06859
-0.72838 1.02669 3.12304
-0.744416 1.08128 4.21837
-0.766645 1.5581 -3.00871
-0.771783 1.65039 -1.9317
-0.794835 1.81711 -0.610513
-0.808811 1.9474 0.697201
-0.798694 2.01085 2.0186
-0.784916 2.05079 3.09612
-0.778053 2.09543 4.18582
0.767048 -0.121471 -3.17113
0.76925 -0.0693924 -2.08476
0.802473 -0.125457 -0.691124
0.788072 -0.130493 0.713608
0.72748 -0.0294737 2.1075
0.739083 0.0285471 3.19608
0.751987 0.0748195 4.27689
0.755667 0.15469 -3.14289
0.736458 0.368113 3.17708
0.751553 0.412645 4.2599
0.763319 0.644104 -3.06859
0.732684 1.02669 3.12304
0.749336 1.08128 4.21837
0.796101 1.5581 -3.00871
0.803705 1.65039 -1.9317
0.798347 1.81711 -0.610513
0.768114 1.9474 0.697201
0.740192 2.01085 2.0186
0.739172 2.05079 3.09612
0.745984 2.09543 4.18582
1.53663 -0.129883 -3.16769
1.54246 -0.0816954 -2.07975
1.58746 -0.114506 -0.691796
1.57823 -0.120306 0.706877
1.51029 -0.0416572 2.09574
1.50197 0.0197867 3.1881
1.51259 0.0706007 4.27227
1.52466 0.154266 -3.14183
1.52281 0.22866 -2.05971
1.58993 0.218198 -0.682116
1.58811 0.221815 0.700273
1.50076 0.298382 2.07889
1.49411 0.358308 3.1705
1.5089 0.408311 4.25641
1.53485 0.671685 -3.07517
1.54186 0.743543 -1.99085
1.60876 0.87348 -0.649553
1.58609 0.93782 0.687971
1.49352 0.968468 2.03029
1.48949 1.02498 3.1241
1.50606 1.07942 4.2186
1.57612 1.57746 -3.01522
1.58672 1.66894 -1.93887
1.58907 1.82163 -0.614837
1.55891 1.94232 0.69772
1.52037 2.0074 2.02231
1.51019 2.04925 3.09982
1.51334 2.09438 4.18851
-0.781755 0.46 -2.06238
1.01328e-06 0.202153 -2.10785
-0.808342 0.175496 -1.37171
-0.762882 0.645 2.11284
0 0.273629 2.14611
-0.839061 0.189706 1.40145
1.51992e-06 0.766058 -2.06606
-0.822332 0.802237 -1.30833
0 1.0418 2.1018
-0.76918 0.973295 1.35833
0.781802 0.46 -2.06242
0.808348 0.175491 -1.37171
0.762686 0.645 2.11264
0.824423 0.204344 1.40145
0.822294 0.802197 -1.30833
0.769205 0.973319 1.35833
-0.808057 0.198245 0.0148699
-0.889216 0.529868 -0.660043
-4.9827e-06 0.199461 -0.67842
-0.886644 0.580057 0.699913
-7.08535e-06 0.198535 0.70816
-0.82246 0.91447 0.025
1.36626e-06 1.25992 -0.641667
-1.26089e-06 1.44029 0.691667
0.808108 0.198195 0.0148699
0.889216 0.529874 -0.660043
0.886644 0.580062 0.699913
0.822454 0.914462 0.025
-0.889255 0.494934 -1.34002
0.889255 0.494937 -1.34002
-1.98471e-06 0.181965 -1.37171
1.44309e-06 0.952749 -1.30833
1.2666e-06 0.46 -2.27954
-0.890277 0.554962 0.019935
0.890277 0.554968 0.019935
-6.03402e-06 0.197734 0.0148699
5.26824e-08 1.43731 0.025
-0.891794 0.612528 1.37989
0.8918 0.612531 1.37989
-3.54268e-06 0.229896 1.40145
-6.30447e-07 1.30189 1.35833
0 0.645 2.21977
-0.770382 0.3525 -2.07939
-0.363802 0.202185 -2.10782
-0.80356 0.174661 -1.71836
-0.77345 0.485 2.1383
-0.3575 0.277751 2.14199
-0.801571 0.232812 1.74809
-0.777635 0.5675 -2.02987
-0.375573 0.743356 -2.04336
-0.812204 0.764083 -1.64167
-0.738402 0.805 2.07346
-0.352416 1.02529 2.08529
-0.741495 0.973636 1.69167
0.363804 0.202137 -2.10786
0.77041 0.3525 -2.07942
0.803421 0.174802 -1.71836
0.3575 0.277665 2.14207
0.773474 0.485 2.13832
0.801601 0.232783 1.74809
0.375576 0.743338 -2.04334
0.7776 0.5675 -2.02984
0.812211 0.764087 -1.64167
0.352416 1.02539 2.08539
0.738395 0.805 2.07346
0.741488 0.973629 1.69167
-0.809211 0.180242 -1.02507
-0.802504 0.198182 -0.331775
-0.861782 0.353829 -0.669232
-0.397509 0.202359 -0.67842
-0.836467 0.186684 1.05481
-0.810476 0.201443 0.361515
-0.86311 0.386638 0.704037
-0.404323 0.203923 0.70816
-0.829087 0.837019 -0.975
-0.878461 0.70707 -0.650855
-0.826273 0.890257 -0.308333
-0.490047 1.21357 -0.641667
-0.787764 0.963852 1.025
-0.870767 0.778674 0.69579
-0.815187 0.935223 0.358333
-0.504803 1.402 0.691667
0.809214 0.180242 -1.02507
0.400604 0.196155 -0.67842
0.802465 0.198222 -0.331775
0.861779 0.353837 -0.669232
0.82212 0.201031 1.05481
0.408173 0.196202 0.70816
0.811119 0.2008 0.361515
0.863111 0.386644 0.704037
0.829089 0.837018 -0.975
0.490084 1.21364 -0.641667
0.878474 0.707079 -0.650855
0.826264 0.890246 -0.308333
0.787754 0.963842 1.025
0.504802 1.402 0.691667
0.870765 0.778675 0.69579
0.815193 0.935228 0.358333
-0.88182 0.477467 -1.7012
-0.390877 0.46 -2.23374
-4.85715e-07 0.185269 -1.73978
1.13994e-06 0.331077 -2.27694
-0.875853 0.335215 -1.35587
-0.404172 0.182096 -1.37171
-0.844128 0.628764 1.74636
-0.381441 0.645 2.1943
-1.77134e-06 0.221751 1.77378
0 0.459314 2.28312
-0.877694 0.401117 1.39067
-0.419532 0.236623 1.40145
1.4815e-06 0.885463 -1.6872
1.39326e-06 0.613029 -2.2285
-0.889794 0.648586 -1.32418
-0.411165 0.960499 -1.30833
-3.15224e-07 1.14933 1.73007
0 0.8434 2.16654
-0.850372 0.792912 1.36911
-0.38459 1.25995 1.35833
0.881206 0.477469 -1.70122
0.390902 0.46 -2.2341
0.875837 0.335214 -1.35587
0.404173 0.171286 -1.37171
0.844102 0.628766 1.74627
0.381343 0.645 2.19435
0.878971 0.408438 1.39067
0.41221 0.186248 1.40145
0.889782 0.648567 -1.32418
0.411148 0.960492 -1.30833
0.850371 0.792925 1.36911
0.384602 1.2599 1.35833
-0.862344 0.370016 0.0174025
-0.400024 0.206005 0.0148699
-0.888058 0.512401 -1.00003
-0.889736 0.542415 -0.320054
-3.4837e-06 0.18276 -1.02507
-5.50836e-06 0.200118 -0.331775
-0.889646 0.56751 0.359924
-0.880917 0.596292 1.0399
-6.55969e-06 0.201424 0.361515
-5.31402e-06 0.231664 1.05481
-0.87883 0.745947 0.0224675
-0.525426 1.40428 0.025
1.40467e-06 1.10133 -0.975
7.09471e-07 1.38735 -0.308333
-6.04106e-07 1.45087 0.358333
-9.45671e-07 1.39897 1.025
0.862341 0.370008 0.0174025
0.404931 0.196205 0.0148699
0.888058 0.512406 -1.00003
0.889734 0.542421 -0.320054
0.889646 0.567515 0.359924
0.880861 0.596297 1.0399
0.87884 0.745952 0.0224675
0.525426 1.40429 0.025
-0.872314 0.343857 -1.70978
-0.884749 0.348789 -1.01255
-0.88007 0.67298 -0.987516
-0.855453 0.608043 -1.67143
0.872392 0.343857 -1.70979
0.855685 0.608033 -1.67144
0.880071 0.672972 -0.987516
0.884606 0.348793 -1.01255
-0.383987 0.181286 -1.72907
0.383989 0.173355 -1.72907
0.402136 0.171318 -1.02507
-0.40214 0.182917 -1.02507
-0.393369 0.874578 -1.66443
-0.412813 1.07037 -0.975
0.412805 1.07035 -0.975
0.393362 0.874686 -1.66443
-0.377339 0.341788 -2.16594
-0.383225 0.590265 -2.14012
0.383239 0.590265 -2.13793
0.377353 0.341788 -2.1661
-0.862063 0.361922 -0.325915
-0.862858 0.378262 0.36072
-0.876811 0.763317 0.359129
-0.878836 0.726604 -0.314194
0.862047 0.361929 -0.325915
0.878836 0.726605 -0.314194
0.876813 0.763319 0.359129
0.862856 0.378261 0.36072
-0.398336 0.205043 -0.331775
0.402767 0.19618 -0.331775
0.406523 0.19626 0.361515
-0.403012 0.203287 0.361515
-0.524034 1.34152 -0.308333
-0.524025 1.42096 0.358333
0.524025 1.42096 0.358333
0.52403 1.34152 -0.308333
-0.877792 0.397693 1.04735
-0.851071 0.443059 1.74723
-0.819212 0.798956 1.71902
-0.862644 0.779378 1.03245
0.878221 0.401358 1.04735
0.862585 0.779385 1.03245
0.819181 0.798963 1.71897
0.85185 0.446719 1.74718
-0.412031 0.231639 1.05481
0.408363 0.185893 1.05481
0.384855 0.188501 1.76094
-0.388516 0.223073 1.76094
-0.393188 1.36859 1.025
-0.368503 1.11648 1.71087
0.368509 1.1162 1.71087
0.393193 1.36848 1.025
-0.369471 0.472157 2.25803
0.369421 0.472157 2.25775
0.36688 0.8242 2.16178
-0.366929 0.8242 2.161
-0.752495 0.29875 -2.0757
-0.545703 0.208405 -2.10159
-0.772324 0.203089 -1.89168
-0.750123 0.405 2.12242
-0.53625 0.287646 2.13209
-0.767005 0.270187 1.92142
-0.762445 0.62125 -2.00049
-0.56336 0.720085 -2.02009
-0.797651 0.735517 -1.80833
-0.724047 0.885 2.05166
-0.528625 0.986779 2.04678
-0.727056 0.97321 1.85833
0.545706 0.208284 -2.10172
0.752104 0.29875 -2.0753
0.772084 0.203331 -1.89168
0.53625 0.28766 2.13208
0.750075 0.405 2.12237
0.76676 0.270432 1.92142
0.563363 0.720191 -2.02019
0.762361 0.62125 -2.0004
0.797677 0.73554 -1.80833
0.528625 0.986996 2.047
0.724045 0.885 2.05166
0.727061 0.973215 1.85833
-0.802326 0.189936 -0.851743
-0.801718 0.19616 -0.505098
-0.842728 0.268478 -0.673826
-0.598264 0.199803 -0.67842
-0.809521 0.210822 0.881483
-0.80864 0.206087 0.534838
-0.842459 0.294371 0.706098
-0.606485 0.206608 0.70816
-0.829136 0.85108 -0.808333
-0.861217 0.789738 -0.646261
-0.827786 0.877757 -0.475
-0.70226 1.12478 -0.641667
-0.796102 0.958178 0.858334
-0.847295 0.870217 0.693729
-0.809923 0.943972 0.525
-0.670566 1.20957 0.691667
0.802212 0.190051 -0.851743
0.598503 0.199313 -0.67842
0.8017 0.196179 -0.505098
0.842725 0.268486 -0.673826
0.80961 0.210734 0.881483
0.607395 0.204772 0.70816
0.808656 0.206072 0.534838
0.842512 0.294352 0.706098
0.829136 0.851079 -0.808333
0.702402 1.12506 -0.641667
0.861217 0.789739 -0.646261
0.827775 0.877743 -0.475
[...]
POINT_DATA 3682
SCALARS point_scalars float 1
LOOKUP_TABLE default
-106.453
-40.9778
-31.5351
-41.193
-108.677
-38.3913
-31.2732
-40.0629
-37.1486
-32.9286
-57.859
-50.449
-37.0865
-33.2556
-57.73
-50.2643
9.17375
-80.9612
-52.92
-33.8828
-44.9133
-39.575
-35.5735
62.7916
-82.8096
-40.6637
-36.2127
-43.7685
-37.854
-35.5735
32.5477
-78.6321
-50.4268
-45.7926
-43.9194
-39.6718
-35.5879
-35.2343
-65.196
-85.3321
-59.0152
-41.2949
-40.8146
-40.8146
145.558
-130.452
-37.422
-33.0101
-42.6703
-34.5804
-33.9881
145.558
-34.1822
-33.9881
170.706
-34.9964
-34.521
52.5457
-36.8159
-78.5411
-67.5382
-41.4819
-36.0457
-35.6417
145.358
-117.389
-37.3609
-33.4281
-43.7845
-32.0599
-31.499
145.358
-31.9793
-31.499
171.014
-33.485
-32.4711
51.969
-39.4901
-77.9131
-67.4711
-40.9778
-35.3838
-35.155
2.47246
-81.6191
-52.4959
-34.1172
-44.0799
-37.2136
-33.4581
61.3694
-90.661
-40.5653
-36.1824
-42.3827
-35.6279
-33.4581
27.235
-78.3851
-50.3154
-45.5692
-42.7148
-37.8321
-33.8085
-35.0006
-65.2269
-85.1067
-59.8212
-40.441
-39.6091
-39.6091
-45.4596
-141.599
-56.3691
-39.8648
-31.095
-42.8942
-10.8365
-52.5887
-36.6288
-49.2969
-50.9605
-56.4297
-38.102
-46.3922
-52.4962
-48.9044
-33.5166
-43.4365
-39.2598
-40.6585
-38.1737
-51.85
-27.5771
-71.0981
-33.4341
-43.3304
-40.4349
-51.707
-57.0335
-56.9727
-60.2911
2.71203
206.93
-40.9429
-40.8122
-34.5953
-91.1467
-48.5225
-47.6476
-35.7105
-47.4746
-28.6344
-25.2607
-187.315
-77.5945
-39.9663
-36.2923
-47.861
-44.1358
-29.3127
-61.1594
-40.2091
-36.3786
-45.4971
-203.062
-25.6945
-78.1097
-33.2988
-37.7855
-49.8897
-29.4637
-44.0794
-61.0618
-35.8971
-38.7103
-44.9143
-48.1162
-35.7464
-39.6587
-38.8459
-40.1671
-36.3227
-36.0144
-37.2406
-55.6347
-49.2997
-54.2781
-34.7425
-48.7915
-45.3234
-51.9037
-66.6883
-48.6424
-38.8529
-35.6271
-39.565
-37.2147
-35.3315
-36.2385
-35.9751
-55.5031
-34.928
-49.1881
-54.1476
-48.5084
-66.6293
-45.0901
-51.7601
-72.008
187.13
-79.5046
148.719
-55.6256
-59.5454
-46.4238
-33.9122
-36.9855
-22.9969
-47.1383
-36.5963
-16.5461
148.604
-57.8787
-11.1399
-39.8226
-33.2847
-48.2264
-47.963
-72.2865
187.397
-55.6394
-59.8649
-45.2836
-31.6727
-45.9596
-36.4485
-57.8027
-11.3067
-47.5928
-47.8445
-37.4985
-34.2411
-50.2157
-41.6487
-49.9443
-35.3958
-40.7757
-40.9603
-35.1464
-35.3452
-45.7024
-79.2812
14.276
-84.1235
-80.7652
-59.4205
-37.3655
-34.287
-50.1191
-41.5323
-40.6285
-40.4512
-45.565
-79.1775
-74.7767
-50.6593
-51.4812
-62.3906
-74.8657
-62.5505
-51.3861
-50.5855
-79.5659
-80.7107
-49.8696
-49.2837
-23.4912
3.62456
3.82002
-23.3977
114.613
117.434
116.629
107.748
-37.8781
-37.393
-45.5792
-47.2149
-37.7669
-47.0943
-45.4265
-37.26
-35.1986
-35.1945
-34.5673
-35.0158
-82.1946
-71.9265
-71.8254
-82.2426
-40.9005
-48.036
-46.3311
-45.4369
-40.3833
-45.044
-45.3689
-46.8197
-36.3479
-35.915
-38.8683
-40.4921
-59.4436
-40.6947
-40.4863
-59.3379
-32.7988
-29.5133
-34.2004
-35.2336
-17.6622
-158.198
-83.7828
-39.8359
-39.05
-44.8063
-37.2029
-6.62813
-68.711
-40.8835
-36.9618
-42.0963
-155.664
-23.1102
-82.8073
-35.3177
-37.5415
-44.0738
-6.56303
-36.9266
-68.6447
-36.0429
-39.5264
-41.3439
-45.6945
-35.4407
-38.0465
-38.1576
-24.9779
-32.9911
-34.4215
-35.7875
-58.9317
-52.8098
-55.367
-82.8683
-49.9568
-48.1294
-51.0963
-56.339
-45.1599
-38.0058
-35.3506
-37.9635
-29.3877
-34.3886
-32.7466
-34.5799
-58.8018
-82.7588
-52.694
-55.2323
-49.7316
-56.1483
-47.9201
-50.943
-41.0664
-46.2977
-80.4987
147.078
-157.307
-157.134
-96.8315
-16.7269
-67.5043
-51.011
-55.4326
-58.302
-40.06
-40.53
-43.8308
-35.0096
-33.0343
-31.5437
-38.8864
-24.5831
-52.3486
-40.782
-47.7941
-38.7482
-21.765
-21.7195
-21.6676
74.4148
-55.9735
-51.4697
-56.6426
-24.8509
-36.5102
-36.3938
-38.0271
-34.3908
-48.1155
-49.4159
-48.5649
-50.304
-42.169
-47.7179
-80.1931
147.301
-67.6298
-51.1674
-55.501
-58.3239
-38.0886
-38.8366
-42.3609
-33.5605
-42.7241
-38.7951
-46.6362
-40.6908
-55.9045
-51.3833
-56.5487
-25.0281
-47.6334
-49.075
-48.0561
-50.1257
-35.3311
-34.3383
-36.535
-34.2217
-41.448
-45.8721
-45.7293
-42.3222
-39.183
-39.2082
-43.3914
-36.932
-38.363
-42.9393
-40.7012
-41.1164
-38.0199
-37.3073
-36.1829
-37.4686
-53.6598
-52.2213
-48.3339
-63.7159
-29.5515
-29.4584
-3.79063
-51.5045
-70.3831
-70.3302
-75.8639
-65.5073
-35.2013
-34.0924
-36.3995
-34.1778
-41.3459
-45.7639
-45.6231
-42.2126
-38.1993
-42.7003
-40.5347
-40.7429
-53.5245
-52.0932
-48.0887
-63.5722
-68.3949
-56.7638
-57.3786
-52.8379
-68.2937
-56.7365
-57.2894
-52.7786
-69.1429
-60.1087
-60.1784
-54.1512
-10.3869
-0.362574
-0.823097
18.6709
200.5
195.451
191.608
200.485
-39.1265
-41.1666
-40.8807
-43.0654
-38.9949
-41.0441
-40.7428
-42.9357
-34.5527
-35.022
-34.4647
-34.3554
-89.1642
-93.9485
-85.9253
-89.177
-50.68
-47.8916
-48.9069
-45.5204
-49.7312
-46.9149
-48.1701
-44.8868
-35.826
-36.2312
-35.8709
-33.1133
-42.8947
-47.4346
-47.3605
-52.9383
-31.7013
-28.2294
-33.0468
-29.6268
-80.9225
78.7823
-100.13
117.061
-71.3836
-78.6489
-43.9078
-34.3951
-40.8998
-33.3225
-48.4025
-42.9009
-79.46
96.0818
-29.1312
94.1568
-62.307
-34.3786
-43.8731
-35.5484
-38.5365
-35.5594
-45.8482
-42.1526
-100.98
86.4924
-80.8463
79.2443
-71.8606
-79.2888
-41.815
-30.1583
-42.4353
-32.2867
-47.6108
-44.2134
-29.0769
92.8803
-79.2249
96.1145
-62.3611
-34.416
-38.2255
-34.7901
-42.645
-34.3909
-45.0617
-41.8731
-48.4187
-49.3794
-36.5504
-34.9672
-45.9122
-38.3917
-43.1999
-36.5677
-41.0892
-37.6468
-36.4896
-34.6337
-36.9961
-34.9017
-35.8
-37.8163
-53.6783
-18.2443
-50.0113
-48.1657
-50.4291
-70.8078
-15.2876
-59.988
-47.4092
-59.836
-45.4736
-45.3551
-48.665
-60.5838
-68.6629
-64.001
-48.371
-49.6057
-43.0751
-36.5023
-36.443
-34.8857
-45.782
-38.2905
-39.5198
-35.8911
-34.9761
-35.5962
-36.3678
-34.1121
-36.8887
-34.7419
-53.5712
-18.0736
-15.1223
-59.5951
-49.9038
-48.0489
-50.3042
-70.7877
-47.076
-59.7484
-68.5812
-63.8718
-45.2904
-45.0526
-48.5148
-60.4206
-74.0868
-66.4012
158.927
160.236
-79.7269
-79.9256
119.601
117.901
-67.3711
-51.1012
-68.2751
-53.5149
-47.1036
-46.5058
-34.1155
-34.8207
-36.5963
-38.2735
-28.0754
-24.8296
-45.8388
-48.7226
-35.6799
-38.3535
-18.2729
-18.1779
150.6
151.171
-55.3753
-66.6245
-17.661
3.44513
-40.1676
-40.0771
-33.0815
-33.9213
-48.1804
-46.9282
-53.3691
-43.7716
-74.0962
-66.8792
157.826
157.505
-67.424
-51.0875
-68.7072
-53.7426
-45.4294
-45.8841
-31.8678
-33.3105
-45.0552
-47.6537
-35.4314
-36.925
-66.5449
-55.2898
3.36724
-17.5364
-46.4299
-47.4022
-43.6305
-53.2663
-37.6393
-37.409
-34.6843
-34.6041
-50.454
-50.3118
-39.6281
-44.0194
-49.754
-49.668
-35.5816
-35.2825
-38.9282
-42.8938
-40.2839
-43.4164
-34.8941
-35.2933
-35.6469
-35.4142
-45.737
-46.6663
-84.815
-75.192
12.2507
12.2551
-81.1911
-81.1695
-79.1666
-79.1239
-59.446
-59.3884
-37.5176
-37.2671
-34.5231
-34.3301
-50.211
-50.3739
-39.5139
-43.9007
-42.7438
-38.7874
-39.8747
-43.0362
-46.5394
-45.6142
-75.0931
-84.6888
-78.9226
-67.1598
-68.0192
-80.2394
-45.9703
-45.0984
-51.986
-50.5251
-53.9398
-54.0539
-54.149
-47.3868
-80.3833
-79.8193
-69.7339
-58.5125
-78.5866
-80.1075
-68.0332
-67.2343
-80.2274
-58.4738
-69.5643
-79.5275
-53.825
-47.2818
-54.0849
-53.9629
-45.8446
-50.5909
-51.9438
-44.9821
-98.967
-98.2386
-68.7695
-67.3108
-99.0971
-67.2899
-68.8879
-98.3804
-42.6123
-43.3137
-54.0523
-52.7433
-42.8252
-52.5985
-53.9427
-43.2537
-35.9719
-28.7296
-12.3965
-24.0113
-72.6027
-7.10156
14.3428
-14.2605
-72.2037
-14.5252
14.2915
-7.11564
-35.7109
-23.9898
-12.1732
-28.6845
113.28
144.744
186.317
79.4669
57.1308
88.456
160.488
130.861
57.1481
131.046
160.669
85.5657
118.12
80.1289
185.502
145.155
-36.9122
-36.3433
-39.2917
-40.2165
-35.9831
-38.6438
-39.074
-36.2659
-48.4191
-48.9721
-43.0334
-42.9252
-51.407
-44.8607
-43.5185
-49.8209
-36.8161
-40.1101
-39.168
-36.2236
-51.2842
-49.6884
-43.3946
-44.7484
-48.249
-42.745
-42.897
-48.9369
-35.8867
-36.1037
-38.9351
-38.5059
-36.1163
-36.8345
-34.805
-34.366
-36.0067
-34.2324
-34.7794
-36.778
-34.3058
-35.7124
-34.5228
-34.157
-34.9874
-34.3281
-34.7442
-36.2559
-75.0067
-66.5189
-92.0888
-51.6763
-57.8061
-74.7574
-84.207
-61.2878
-57.6336
-61.1363
-84.172
-74.6978
-74.7895
-51.534
-92.0507
-66.4138
-29.0559
-44.675
-45.5296
-38.5991
-43.8508
-43.9607
-50.0119
-49.0408
-43.385
-47.9749
-49.3321
-43.9175
-48.2259
-43.2638
-46.4122
-48.2303
-29.4031
-38.2772
-44.8263
-44.707
-47.961
-47.8131
-45.8504
-42.9387
-42.329
-42.5563
-48.4459
-47.337
-42.6113
-46.9946
-48.8846
-42.4724
-35.7854
-37.6556
-33.5114
-37.6728
-34.3338
-37.2192
-33.5134
-37.0915
-44.5372
-39.7955
-35.9602
-38.5312
-42.8158
-43.2997
-36.6526
-39.5801
-55.498
-56.3239
-52.9389
-65.1002
-39.4759
-38.2369
-43.0823
-45.6865
-39.0304
-45.4853
-43.0158
-38.0943
-55.2654
-65.0346
-52.9336
-56.1822
-35.2243
-28.4461
-31.3349
-34.7806
-32.4599
-33.1361
-28.9403
-26.0016
-34.9086
-33.9253
-32.6609
-33.9654
-35.9683
-35.2948
-33.7143
-34.587
-34.427
-113.817
-109.827
-40.3419
-39.85
-42.8554
-36.9699
-3.06892
-62.7374
-41.2051
-38.4712
-41.4099
-112.077
-39.9493
-105.823
-36.3291
-37.8785
-41.1462
-2.89161
-36.6297
-62.6986
-37.4696
-39.9232
-40.5281
-38.9029
-36.2213
-37.8343
-37.5906
-31.2856
-33.9731
-33.6983
-34.6092
-58.7992
-55.3243
-56.1275
-68.6197
-50.263
-49.6164
-50.7477
-53.17
-38.8389
-37.5056
-36.1482
-37.7651
-32.3524
-34.1092
-33.8628
-33.9798
-58.6678
-68.5032
-55.2008
-55.9975
-50.0239
-52.9766
-49.4257
-50.5843
-45.7882
-45.3464
-99.1081
80.3468
-145.788
-145.627
-120.106
-34.4259
-60.5906
-53.0089
-56.0825
-57.4661
-39.9136
-39.9462
-42.3106
-36.0457
-31.7512
-31.0052
-34.8145
-27.4328
-44.2241
-41.9024
-46.4299
-40.3465
-11.9342
-12.025
-22.0707
12.6361
-54.3397
-51.2166
-54.9289
-41.1044
-36.617
-36.5822
-37.2491
-35.9987
-48.766
-49.4448
-49.1123
-51.2247
-47.4799
-49.4201
-98.0469
81.784
-60.6615
-53.1272
-56.1901
-57.4814
-38.0458
-38.2605
-40.6945
-34.497
-42.5084
-41.7375
-45.957
-44.1642
-54.3004
-50.8824
-54.8341
-41.2242
-48.3236
-49.0791
-48.6837
-51.0293
-34.2366
-36.2325
-35.1009
-34.2718
-42.4051
-44.6558
-44.4568
-42.8749
-39.2379
-39.2506
-40.7635
-37.9993
-39.5089
-41.734
-40.6473
-40.8295
-37.949
-37.9223
-36.725
-39.2902
-53.37
-52.1289
-49.3047
-57.7711
-28.048
-28.0322
-16.0527
-39.6055
-70.9254
-70.9084
-73.6309
-68.4857
-34.1134
-36.0582
-34.9516
-34.3269
-42.3004
-44.5488
-44.3501
-42.7681
-39.3108
-41.5
-40.4603
-40.5448
-53.2315
-52.0836
-49.0746
-57.6298
-61.785
-56.9716
-57.1503
-53.9203
-61.7193
-56.9269
-57.0736
-53.8658
-64.3364
-60.0759
-60.1939
-56.9769
-7.29377
2.177
1.92888
11.7473
198.932
204.018
200.95
198.803
-39.9882
-41.0803
-40.8465
-41.9883
-39.8565
-40.9539
-40.7152
-41.8582
-34.6051
-34.3236
-34.7953
-34.2202
-90.8407
-94.0669
-88.626
-90.861
-49.7971
-48.0923
-48.9762
-47.1759
-48.8787
-47.19
-48.1752
-46.4309
-35.8339
-35.8903
-35.6965
-34.1525
-44.8617
-47.3675
-47.278
-50.0119
-30.6099
-29.2304
-31.076
-29.3012
-27.4526
-30.3243
-110.909
64.7043
-197.61
-173.823
-130.123
-8.10405
-72.2271
-78.056
-71.5238
-78.9424
-40.0516
-39.9356
-41.8082
-35.5617
-37.7528
-34.643
-37.8872
-34.7249
-44.9904
-51.5284
-49.1052
-43.6149
-41.9222
-46.608
-86.5912
55.668
-17.4226
-28.1513
-32.3554
52.6923
-68.0807
-61.4946
-62.7367
-46.8303
-40.585
-40.8752
-42.598
-36.4144
-36.5151
-36.344
-37.4582
-35.6625
-43.2801
-46.6959
-45.4058
-44.1953
-203.359
-176.93
-132.115
21.4622
-30.5874
-30.2485
-109.592
63.7168
-73.0843
-78.2291
-71.9617
-79.6142
-34.4101
-32.3964
-36.8679
-31.2735
-37.824
-37.8929
-39.9954
-33.4678
-46.624
-46.6852
-49.6511
-46.0643
-17.1985
-28.5214
-32.2653
52.4582
-41.7185
-47.5051
-86.2996
55.6492
-68.1454
-61.4137
-62.7423
-47.0162
-35.789
-36.0695
-37.087
-34.9487
-39.1791
-39.2981
-41.2004
-35.0529
-42.6336
-46.1781
-44.7213
-43.8513
-47.9257
-49.9373
-47.261
-49.0582
-35.9198
-34.0308
-35.9657
-34.8823
-38.7017
-40.451
-41.1748
-38.8589
-38.6288
-39.0401
-40.6009
-37.4567
-31.7472
-40.5332
-40.7237
-38.8802
-34.7271
-32.5342
-36.529
-34.5415
-35.1662
-37.1816
-36.6358
-35.2797
-36.3883
-38.0372
-36.4134
-38.9814
-59.1299
-53.5188
-54.8467
-47.5507
-51.0357
-47.3985
-49.641
-48.7285
-54.7858
-53.9017
-52.5676
-61.08
-51.7255
-30.711
-25.8726
-47.1219
-49.9573
-49.2113
-48.283
-53.3724
-46.6286
-44.188
-45.3568
-45.2963
-51.5512
-52.3024
-50.7812
-56.3399
-59.133
-68.7835
-68.1006
-66.6841
-47.4595
-50.1523
-47.4329
-49.4395
-38.5068
-39.0596
-40.6245
-37.4663
-35.8071
-33.9521
-35.8558
-34.7283
-38.6128
-40.3527
-41.0725
-38.7625
-33.6182
-39.5268
-38.1943
-35.9815
-34.6085
-36.4213
-35.2215
-35.5492
-34.6195
-32.2613
-36.4673
-34.2349
-35.2091
-37.0711
-36.5624
-35.269
-59.0139
-53.3973
-54.7264
-47.3971
-52.0438
-30.3986
-25.8588
-46.9444
-50.9226
-47.2887
-49.5318
-48.616
-54.655
-53.7638
-52.4396
-60.9673
-49.7053
-48.9069
-47.9865
-53.1596
-58.9873
-68.7363
-68.0435
-66.6788
-46.4043
-43.9481
-45.1521
-45.0281
-51.4087
-52.1593
-50.6355
-56.1705
-65.4147
-78.8527
-73.1156
-69.6004
171.088
195.819
181.226
176.328
-85.9935
-74.327
-79.3638
-79.4348
99.9514
180.58
142.698
142.637
-54.7021
-56.2634
-59.8327
-52.3162
-59.1033
-59.8765
-63.5579
-56.2951
-45.3216
-48.3798
-46.6579
-46.4754
-34.5659
-33.2797
-34.4456
-34.4253
-39.1541
-35.2592
-36.4873
-37.3804
-23.5367
-24.4534
-25.3786
-23.4114
-47.0904
-47.5685
-46.5049
-46.9583
-37.3622
-36.7083
-35.7286
-37.8713
-20.0545
-13.8297
-16.9133
-16.8437
121.111
172.103
149.923
150.35
-57.4083
-57.6856
-56.3011
-63.2836
-17.9559
-4.27387
-14.5999
-3.87977
-38.8005
-41.1396
-39.9535
-39.9089
-32.8948
-33.0537
-33.3035
-33.85
-48.2825
-48.3975
-48.4648
-47.6578
-48.7386
-47.5871
-50.3661
-45.6746
-65.2503
-78.9419
-73.1962
-70.0978
171.649
196.219
176.345
180.831
-54.741
-56.2547
-59.8505
-52.3153
-59.2136
-60.0685
-63.9226
-56.5608
-44.0457
-47.3187
-45.3639
-45.479
-32.8252
-31.0576
-32.5097
-32.5992
-46.3461
-46.4016
-45.2885
-45.6319
-38.0231
-36.0377
-36.112
-36.5015
-57.3321
-57.5991
-63.2182
-56.2088
-17.9821
-5.14728
-4.01442
-14.8152
-47.7098
-47.7087
-47.0911
-47.765
-48.5969
-47.4991
-45.5468
-50.2591
-36.9975
-38.1694
-37.5525
-37.4683
-34.2144
-34.4358
-34.7371
-34.1462
-47.2819
-52.8867
-50.3759
-50.2368
-41.8757
-41.3944
-40.5878
-42.8023
-47.0386
-51.7258
-49.8792
-49.8341
-36.1078
-35.2333
-35.5642
-35.2899
-40.7505
-40.8462
-39.8259
-41.7679
-41.4423
-42.4183
-40.3298
-42.2164
-35.6914
-34.8806
-35.0433
-35.25
-35.8966
-34.5453
-35.4536
-35.3227
-46.9099
-44.3321
-45.5275
-46.3813
-71.4062
-85.3315
-80.9979
-76.1406
5.60756
19.1614
13.9496
13.9651
-68.3356
-92.6109
-83.0844
-83.0425
-78.4656
-83.1761
-80.2479
-80.2249
-62.4281
-56.2614
-59.423
-59.3936
-36.8636
-38.0374
-37.425
-37.3296
-34.1565
-34.3574
-34.3654
-34.2817
-47.1798
-52.8036
-50.1366
-50.2846
-41.7629
-41.2732
-40.4722
-42.685
-40.5957
-40.7023
-41.6183
-39.6815
-41.0277
-41.9895
-39.9306
-41.7935
-46.7265
-44.1994
-46.2507
-45.4193
-71.2522
-85.29
-76.047
-80.8776
-63.4058
-74.0187
-73.7835
-78.585
-50.3199
-50.783
-51.2659
-50.2137
-52.4858
-50.4219
-53.9535
-50.3365
-69.0381
-60.5476
-64.4582
-66.0089
-63.0895
-74.289
-73.8384
-78.7524
-68.6773
-60.7078
-64.8128
-66.1208
-52.3874
-50.317
-53.8716
-50.2404
-50.2395
-50.629
-51.2443
-50.1476
-86.8116
-79.1427
-79.6837
-73.9955
-87.2182
-80.0974
-80.2941
-74.3909
-49.7819
-46.8326
-51.3459
-49.654
-49.188
-46.7331
-51.0163
-49.5156
-26.7758
-27.8705
-20.5237
-20.5541
-5.00672
-3.7043
5.98701
9.01728
-4.94192
-3.47126
5.88875
9.1726
-26.658
-27.7974
-20.4222
-20.4121
101.425
125.345
144.14
112.603
124.138
110.54
149.611
129.757
110.704
125.14
128.379
146.458
113.445
103.027
109.96
141.996
-37.2654
-38.1345
-37.7012
-38.6188
-36.8826
-37.2452
-37.3952
-38.0771
-45.6039
-46.9893
-44.2628
-45.6892
-47.629
-48.6782
-45.5528
-46.8668
-37.155
-38.0292
-37.5852
-38.5059
-47.5102
-48.5559
-45.4336
-46.7431
-45.4371
-46.8359
-44.1124
-45.5494
-36.7505
-37.1197
-37.2562
-37.9405
-35.0891
-36.0722
-34.6966
-35.4034
-35.7555
-34.9782
-35.3258
-34.8001
-34.7495
-34.2487
-34.7698
-34.4225
-34.816
-35.3445
-34.758
-35.1633
-86.1054
-66.3848
-82.4446
-77.5935
-66.0969
-70.31
-73.8935
-76.9552
-70.2071
-65.9504
-76.8948
-73.7996
-66.1511
-86.6495
-77.5337
-82.4721
-42.127
-38.1911
-43.6105
-40.7093
-45.3427
-48.391
-47.4944
-50.2084
-45.1994
-46.1479
-46.4481
-47.4158
-46.4294
-45.3925
-45.9682
-44.6711
-41.0082
-37.576
-43.2773
-40.1998
-46.06
-45.0566
-45.5265
-44.2826
-44.1043
-45.2552
-45.4253
-46.5512
-44.1463
-47.2314
-46.3003
-48.8171
-36.9985
-36.5102
-36.0062
-35.9439
-35.7042
-35.2346
-35.5255
-35.7751
-40.8443
-40.9183
-36.4741
-37.5349
-42.4727
-41.361
-39.2358
-38.1531
-60.4543
-61.6861
-56.4302
-59.3376
-39.5619
-41.3301
-40.343
-42.1232
-39.307
-41.0701
-40.1902
-41.9586
-60.3211
-61.5023
-56.3278
-59.2566
-33.9526
-32.8893
-33.2248
-30.8082
-29.6936
-31.4033
-27.1423
-30.2133
-34.5867
-34.3874
-33.3925
-33.8084
-35.415
-35.4699
-35.0615
-34.4362
-109.841
82.5559
-136.637
35.85
-79.7329
-97.0372
-42.1806
-36.4413
-40.1434
-37.1743
-44.3252
-43.1641
-80.236
29.6386
-29.9694
29.8642
-76.5634
-45.8742
-42.5673
-37.0822
-38.31
-36.3506
-42.6355
-41.0011
-136.353
36.498
-104.21
81.3593
-79.1914
-96.4427
-39.3793
-33.4671
-40.4436
-33.841
-43.2851
-43.7311
-29.9488
30.0126
-80.0456
29.936
-76.4439
-45.6946
-37.6745
-35.3304
-41.3295
-35.8454
-41.7043
-40.4682
-46.7215
-42.9129
-35.8107
-35.8611
-39.2567
-37.3647
-39.435
-37.114
-27.2414
-30.3655
-35.2905
-34.4314
-35.3475
-32.8421
-35.3096
-35.6975
-56.4202
-70.8276
-53.5522
-51.9673
-53.6026
-63.0358
-82.4248
-83.8304
-49.3332
-52.2876
-48.2602
-48.1299
-50.254
-54.3643
-56.929
-55.7731
-46.4102
-42.6324
-39.6066
-36.8778
-35.7181
-35.7717
-39.1589
-37.2771
-28.2604
-33.5482
-34.34
-34.3084
-35.1819
-34.0583
-35.3418
-33.2061
-56.2988
-70.6388
-82.103
-83.4438
-53.4372
-51.8476
-53.4752
-62.8877
-49.0924
-52.0703
-56.7582
-55.5664
-48.0716
-47.8939
-50.0966
-54.1865
-104.184
88.636
-91.7234
74.2748
-81.0896
-79.9498
148.796
140.445
-122.997
-7.60569
-123.181
-6.31411
-97.1291
-97.1625
-2.173
-1.71452
-68.4902
-67.0328
-50.6802
-51.9346
-59.307
-51.9361
-62.3682
-55.149
-42.0281
-35.7559
-42.4577
-36.2126
-43.7934
-43.8998
-34.8619
-35.1865
-35.7673
-30.6411
-35.4735
-28.5166
-39.1624
-39.0764
-26.2022
-24.5569
-50.069
-50.0522
-43.3985
-38.8198
-48.5601
-46.3289
-37.9747
-40.6659
-23.7157
8.80804
-23.6929
8.65264
-23.0024
-22.961
71.9291
71.39
-57.3238
-42.6596
-53.6586
-34.0774
-55.6822
-57.7857
-26.5903
-19.8357
-37.328
-35.9856
-37.1613
-35.7278
-38.1165
-38.0502
-33.421
-33.9277
-48.0952
-47.9777
-49.2048
-52.3414
-48.3723
-48.333
-53.4783
-48.1997
-102.999
83.1172
-91.2729
74.6237
-80.8787
-79.63
140.647
149.082
-68.6269
-67.0887
-50.7878
-52.1083
-59.367
-52.0201
-62.3739
-55.2635
-40.3026
-34.033
-40.9312
-34.7092
-42.4783
-42.3033
-33.2958
-33.7822
-46.1401
-39.8991
-42.3929
-35.3528
-49.1407
-45.5508
-39.3902
-40.423
-57.2755
-42.6155
-53.581
-33.8617
-57.7345
-55.5819
-19.9364
-26.7189
-47.5384
-47.7144
-48.846
-52.1551
-47.8816
-47.7907
-48.006
-53.3545
-35.9772
-34.2404
-35.5913
-34.194
-36.2721
-36.4969
-34.2679
-34.2655
-42.6406
-40.7003
-46.5848
-45.3597
-45.2777
-46.4439
-41.2538
-43.5683
-40.5165
-37.8271
-40.6235
-37.9592
-43.3397
-43.3047
-36.9232
-36.926
-38.4351
-38.2066
-42.8356
-43.0407
-39.6899
-41.7544
-40.0262
-42.1251
-36.8836
-39.5809
-36.3787
-38.5303
-35.9639
-36.3508
-37.7117
-37.3964
-51.6031
-59.4524
-50.9219
-56.6847
-47.3786
-50.8449
-64.9938
-62.4419
-16.8753
-41.3823
-16.873
-40.9751
-4.43068
-4.42661
-51.6486
-51.5138
-72.5752
-67.9547
-72.5481
-67.8953
-75.6127
-75.5759
-65.3925
-65.3564
-35.8567
-34.1053
-35.3981
-34.0267
-36.1433
-36.359
-34.1476
-34.1044
-42.5382
-40.5975
-46.4782
-45.2499
-46.3388
-45.1688
-41.1453
-43.4575
-38.2924
-38.018
-42.6349
-42.7562
-41.5798
-39.5348
-39.6273
-41.7858
-51.4686
-59.3325
-50.8376
-56.4818
-50.7348
-47.3435
-62.2967
-64.8616
-68.0943
-68.6319
-61.2293
-53.0547
-55.0295
-62.3221
-52.5035
-53.3815
-68.0799
-68.4744
-61.2104
-53.0212
-62.2302
-54.9617
-53.3227
-52.4508
-69.1515
-68.9812
-64.0693
-56.776
-64.1671
-56.8867
-54.1146
-54.0647
-10.9087
-10.7756
-10.2402
8.39711
7.56859
-9.01174
17.3359
17.3777
201.357
186.532
188.918
188.934
179.425