# vtk DataFile Version 2.0
tet_velo
ASCII
DATASET UNSTRUCTURED_GRID
POINTS 29498 float
-0.775 0.365 -2.05361
-0.835 0.295 2.06725
-0.715 0.815 -2.01414
-0.755 0.991697 1.965
0.775438 0.365 -2.055
0.835 0.295 2.06721
0.710066 0.825 -2.015
0.755 0.985 1.97474
-0.832643 0.304023 -0.67999
-0.856893 0.27644 0.69363
-0.783482 0.929048 -0.68776
-0.771563 0.962694 0.63862
0.835814 0.301144 -0.68093
0.852531 0.280948 0.69314
0.781781 0.935071 -0.685087
0.773519 0.965163 0.644827
-1.57447 0.0412142 -3.12918
-1.57593 0.0550001 -2.04819
-1.62154 0.0028818 -0.673658
-1.65243 -0.0435505 0.709748
-1.64772 -0.0425732 2.08502
-1.6431 -0.0275122 3.16962
-1.64254 -0.0107935 4.24741
-1.56797 0.319368 -3.12557
-1.56498 0.351844 -2.04963
-1.62109 0.31831 -0.684271
-1.64724 0.287505 0.684821
-1.63437 0.297993 2.05107
-1.63535 0.312694 3.13539
-1.63883 0.327202 4.2149
-1.54299 0.836964 -3.10599
-1.51965 0.865362 -2.02849
-1.57593 0.935385 -0.695295
-1.58138 0.961811 0.634111
-1.57053 0.986617 1.96843
-1.59994 0.997422 3.05622
-1.62141 1.00577 4.14419
-1.54382 1.71568 -3.11135
-1.53698 1.76015 -2.04081
-1.55392 1.8491 -0.721675
-1.56756 1.92602 0.587298
-1.57413 1.97174 1.90728
-1.58686 1.99111 2.9796
-1.60238 2.00204 4.06194
-0.791541 0.0486937 -3.13193
-0.776214 0.0649235 -2.05219
-0.812684 -0.00302838 -0.672465
-0.840865 -0.0523798 0.716639
-0.836538 -0.0474259 2.09658
-0.836727 -0.0307258 3.17817
-0.838751 -0.0129709 4.25311
-0.795574 0.321348 -3.12628
-0.837458 0.310726 3.14331
-0.839301 0.32587 4.2199
-0.777318 0.818626 -3.10004
-0.811014 0.998654 3.05801
-0.828766 1.00641 4.14637
-0.766949 1.70244 -3.10505
-0.755403 1.74711 -2.0337
-0.767807 1.84538 -0.716546
-0.780183 1.92894 0.588809
-0.786065 1.97583 1.9064
-0.79755 1.9945 2.97874
-0.810888 2.00453 4.06183
0.768341 0.0503282 -3.13231
0.803584 0.0649369 -2.05299
0.838181 -0.00412198 -0.672906
0.842808 -0.0496768 0.716694
0.827861 -0.0465887 2.09721
0.798399 -0.0309115 3.18032
0.78025 -0.0132808 4.25603
0.743417 0.323869 -3.12684
0.785724 0.309678 3.14616
0.771834 0.325101 4.22331
0.721116 0.824343 -3.1003
0.759752 0.995623 3.06395
0.761698 1.00498 4.15094
0.77137 1.70695 -3.10397
0.786044 1.75174 -2.0322
0.793233 1.84893 -0.713849
0.788031 1.9306 0.593018
0.781785 1.9756 1.91157
0.776457 1.99376 2.98379
0.77167 2.00397 4.06638
1.55516 0.0449259 -3.12933
1.58963 0.056731 -2.04861
1.63943 0.00322321 -0.67311
1.65837 -0.0401144 0.711765
1.64424 -0.0412529 2.0884
1.6142 -0.0276704 3.17459
1.59209 -0.0111636 4.25331
1.52928 0.324582 -3.1259
1.56092 0.355191 -2.05017
1.62545 0.318861 -0.683275
1.64995 0.291232 0.687985
1.63479 0.297725 2.05597
1.60094 0.311209 3.14168
1.58216 0.326079 4.22167
1.50045 0.84635 -3.10576
1.51112 0.87624 -2.02794
1.57632 0.942173 -0.691205
1.58658 0.964679 0.642733
1.57207 0.982169 1.98036
1.56611 0.993555 3.06649
1.56507 1.00362 4.15286
1.54548 1.72399 -3.109
1.56014 1.7685 -2.03766
1.57596 1.85555 -0.716421
1.57726 1.92927 0.595172
1.57231 1.97184 1.91684
1.56891 1.9902 2.98908
1.56668 2.00128 4.07068
-0.689173 0.59 -1.97805
0.000219017 0.342095 -2.07721
-0.812367 0.325966 -1.3668
-0.806938 0.643349 2.02806
0 0.267891 2.09434
-0.855606 0.276061 1.38044
-0.00246698 0.87013 -2.0647
-0.783527 0.90631 -1.35095
0 1.02607 2.00759
-0.763941 0.977855 1.30181
0.689222 0.595 -1.98147
0.808836 0.329862 -1.36797
0.805181 0.64 2.03116
0.852331 0.279409 1.38018
0.780806 0.914918 -1.35004
0.767388 0.978211 1.30978
-0.831943 0.303057 0.00681996
-0.854041 0.616536 -0.683875
0.00158554 0.245413 -0.68046
-0.849135 0.619567 0.666125
-0.00218083 0.243191 0.693385
-0.769626 0.937975 -0.0245699
-0.00085057 1.20673 -0.686423
0.000977968 1.44018 0.641723
0.83443 0.300789 0.00610495
0.857817 0.618107 -0.683009
0.845698 0.623056 0.668983
0.770347 0.942814 -0.02013
-0.828871 0.603268 -1.35888
-0.835114 0.618051 -0.00887498
-0.8502 0.631458 1.34113
0.000902279 0.313685 -1.36738
-0.000297643 0.246669 0.00646245
-0.00109041 0.251136 1.38031
-0.00112398 0.5925 -2.17279
0 0.641674 2.1387
-0.00165877 1.01439 -1.3505
6.36988e-05 1.44017 -0.02235
0.000488984 1.44023 1.3058
0.825734 0.606554 -1.359
0.844504 0.620582 -0.00701255
0.845909 0.631528 1.34498
-1.16999 0.358422 -2.05162
-0.775607 0.214962 -2.0529
-0.785287 0.343174 -2.58994
-1.23468 0.296496 2.05916
-0.835769 0.123787 2.08191
-0.836229 0.302863 2.60528
-1.11733 0.840181 -2.02132
-0.746159 0.816813 -2.55709
-0.735201 1.28105 -2.02392
-1.16277 0.989157 1.96671
-0.783007 0.995175 2.51151
-0.770532 1.48376 1.9357
0.789511 0.214968 -2.05399
0.759428 0.344435 -2.59092
1.16818 0.360096 -2.05259
0.83143 0.124206 2.08221
0.810362 0.302339 2.60669
1.23489 0.296362 2.06159
0.715591 0.824671 -2.55765
0.748055 1.28837 -2.0236
1.11059 0.85062 -2.02147
0.757376 0.990311 2.51934
0.768393 1.4803 1.94315
1.16353 0.983585 1.97755
-1.22687 0.311167 -0.682131
-0.822664 0.150497 -0.676228
-1.25207 0.281973 0.689226
-0.848879 0.11203 0.705134
-1.1797 0.932217 -0.691528
-0.775645 1.38721 -0.702153
-1.17647 0.962253 0.636365
-0.775873 1.44582 0.613715
0.836998 0.148511 -0.676918
1.23063 0.310003 -0.682103
0.84767 0.115636 0.704917
1.25124 0.28609 0.690563
0.787507 1.392 -0.699468
1.17905 0.938622 -0.688146
0.780775 1.44788 0.618922
1.18005 0.964921 0.64378
-1.5752 0.0481071 -2.58868
-1.57122 0.180291 -3.12737
-1.183 0.0449539 -3.13055
-1.59874 0.0289409 -1.36092
-1.57045 0.203422 -2.04891
-1.17607 0.0599618 -2.05019
-1.63699 -0.0203344 0.0180449
-1.62132 0.160596 -0.678965
-1.21711 -7.329e-05 -0.673062
-1.65007 -0.0430619 1.39738
-1.64983 0.121977 0.697285
-1.24665 -0.0479652 0.713193
-1.64541 -0.0350427 2.62732
-1.64104 0.12771 2.06804
-1.24213 -0.0449996 2.0908
-1.64282 -0.0191528 3.70852
-1.63923 0.142591 3.1525
-1.23991 -0.029119 3.1739
-1.64068 0.158204 4.23115
-1.24064 -0.0118822 4.25026
-1.56647 0.335606 -2.5876
-1.55548 0.578166 -3.11578
-1.18177 0.320358 -3.12592
-1.59303 0.335077 -1.36695
-1.54232 0.608603 -2.03906
-1.63416 0.302907 0.00027511
-1.59851 0.626847 -0.689783
-1.6408 0.292749 1.36795
-1.61431 0.624658 0.659466
-1.63486 0.305343 2.59323
-1.60245 0.642305 2.00975
-1.63709 0.319948 3.67514
-1.61765 0.655058 3.09581
-1.23641 0.31171 3.13935
-1.63012 0.666484 4.17954
-1.23906 0.326536 4.2174
-1.53132 0.851163 -2.56724
-1.5434 1.27632 -3.10867
-1.16015 0.827795 -3.10301
-1.54779 0.900374 -1.36189
-1.52832 1.31276 -2.03465
-1.57865 0.948598 -0.0305923
-1.56492 1.39224 -0.708485
-1.57595 0.974214 1.30127
-1.57447 1.44392 0.610705
-1.58524 0.99202 2.51233
-1.57233 1.47918 1.93786
-1.61068 1.00159 3.60021
-1.5934 1.49426 3.01791
-1.20548 0.998038 3.05712
-1.61189 1.5039 4.10307
-1.22509 1.00609 4.14528
-1.5404 1.73791 -2.57608
-1.15538 1.70906 -3.1082
-1.54545 1.80463 -1.38124
-1.14619 1.75363 -2.03726
-1.56074 1.88756 -0.0671883
-1.16086 1.84724 -0.719111
-1.57084 1.94888 1.24729
-1.17387 1.92748 0.588054
-1.58049 1.98143 2.44344
-1.1801 1.97379 1.90684
-1.59462 1.99658 3.52077
-1.1922 1.9928 2.97917
-1.20663 2.00329 4.06188
-0.783877 0.0568086 -2.59206
-0.793558 0.185021 -3.1291
-0.0115999 0.049511 -3.13212
-0.794449 0.0309476 -1.36233
0.0136854 0.0649302 -2.05259
-0.826775 -0.0277041 0.0220866
0.0127486 -0.00357518 -0.672686
-0.838702 -0.0499029 1.40661
0.000971349 -0.0510283 0.716666
-0.836632 -0.0390758 2.63737
-0.00433872 -0.0470073 2.09689
-0.837739 -0.0218483 3.71564
-0.837093 0.14 3.16074
-0.0191639 -0.0308186 3.17924
-0.839026 0.15645 4.23651
-0.0292507 -0.0131259 4.25457
-0.786446 0.569987 -3.11316
-0.0260785 0.322608 -3.12656
-0.838379 0.318298 3.68161
-0.824236 0.65469 3.10066
-0.0258669 0.310202 3.14474
-0.834033 0.666139 4.18314
-0.0337334 0.325485 4.22161
-0.772134 1.26053 -3.10254
-0.0281012 0.821484 -3.10017
-0.81989 1.00253 3.60219
-0.804282 1.49658 3.01838
-0.025631 0.997138 3.06098
-0.819827 1.50547 4.1041
-0.0335335 1.00569 4.14866
-0.761176 1.72477 -2.56938
0.0022101 1.70469 -3.10451
-0.761605 1.79624 -1.37512
0.0153205 1.74942 -2.03295
-0.773995 1.88716 -0.0638687
0.0127128 1.84716 -0.715198
-0.783124 1.95239 1.2476
0.00392439 1.92977 0.590913
-0.791808 1.98517 2.44257
-0.00213984 1.97572 1.90898
-0.804219 1.99951 3.52029
-0.0105466 1.99413 2.98126
-0.0196089 2.00425 4.0641
0.785963 0.0576326 -2.59265
0.755879 0.187099 -3.12957
1.16175 0.0476271 -3.13082
0.820883 0.0304075 -1.36295
1.19661 0.060834 -2.0508
0.840495 -0.0268994 0.021894
1.23881 -0.000449384 -0.673008
0.835334 -0.0481328 1.40695
1.25059 -0.0448956 0.714229
0.81313 -0.0387501 2.63876
1.23605 -0.0439208 2.0928
0.789324 -0.0220961 3.71817
0.792062 0.139383 3.16324
1.2063 -0.0292909 3.17745
0.776042 0.15591 4.23967
1.18617 -0.0122222 4.25467
0.732267 0.574106 -3.11357
1.13635 0.324226 -3.12637
0.778779 0.317389 3.68474
0.772738 0.65265 3.10505
1.19333 0.310443 3.14392
0.766766 0.665039 4.18712
1.177 0.32559 4.22249
0.746243 1.26564 -3.10213
1.11078 0.835346 -3.10303
0.760725 1.0003 3.60744
0.768105 1.49469 3.02387
1.16293 0.994589 3.06522
0.766684 1.50447 4.10866
1.16338 1.0043 4.1519
0.778707 1.72934 -2.56808
1.15842 1.71547 -3.10649
0.789638 1.80033 -1.37302
1.17309 1.76012 -2.03493
0.790632 1.88977 -0.0604154
1.1846 1.85224 -0.715135
0.784908 1.9531 1.25229
1.18265 1.92994 0.594095
0.779121 1.98468 2.44768
1.17705 1.97372 1.9142
0.774064 1.99886 3.52508
1.17268 1.99198 2.98643
1.16918 2.00262 4.06853
1.57239 0.0508285 -2.58897
1.54222 0.184754 -3.12761
1.61453 0.0299771 -1.36086
1.57527 0.205961 -2.04939
1.6489 -0.0184456 0.0193276
1.63244 0.161042 -0.678192
1.6513 -0.0406836 1.40008
1.65416 0.125559 0.699875
1.62922 -0.0344617 2.63149
1.63951 0.128236 2.07218
1.60315 -0.019417 3.71395
1.60757 0.141769 3.15814
1.58712 0.157458 4.23749
1.5451 0.339887 -2.58804
1.51487 0.585466 -3.11583
1.59318 0.337026 -1.36672
1.53602 0.615715 -2.03905
1.6377 0.305047 0.00235487
1.60089 0.630517 -0.68724
1.64237 0.294478 1.37198
1.61826 0.627956 0.665359
1.61786 0.304467 2.59882
1.60343 0.639947 2.01816
1.59155 0.318644 3.68168
1.58352 0.652382 3.10409
1.57361 0.664849 4.18727
1.50579 0.861295 -2.56685
1.52297 1.28517 -3.10738
1.54372 0.909206 -1.35957
[...]
POINT_DATA 29498
VECTORS point_vectors float
-0.44946 -1.16857 2.6481
0.14774 0.275049 1.07418
-4.10154 3.7824 4.91305
0.104434 0.0152611 0.484951
0.504008 -1.15968 2.55138
-0.130248 0.251186 0.989507
4.11739 4.15548 4.4988
-0.0871503 0.00206103 0.464002
-0.0307728 0.0635019 1.32991
-0.0318974 0.00435271 2.44968
-0.119706 -0.108427 0.344425
0.0340773 0.051045 0.167701
0.0291848 0.0743907 1.67554
0.0348529 0.0521821 2.13211
0.143001 -0.111696 0.365978
-0.0448986 0.0844607 0.27748
-0.591067 -0.243395 19.8582
-1.18768 -0.604891 20.4017
-0.572385 -0.390241 21.2258
-0.0955564 -0.121897 21.4282
0.317122 0.143717 21.458
0.642351 0.363234 21.209
0.695877 0.317496 20.4801
-0.636204 -0.15237 19.767
-1.54721 -0.460497 20.337
-0.742274 -0.421194 21.2936
-0.134097 -0.178339 21.4863
0.395274 0.0303937 21.5467
0.851941 0.190068 21.1779
0.912591 0.16702 20.7337
-0.691443 0.0605274 19.7151
-1.82245 0.147412 20.2502
-1.18019 -0.168048 21.2947
-0.355686 -0.199643 21.5892
0.324362 -0.191409 21.6146
0.889654 -0.20102 21.4422
0.742803 -0.329647 20.9796
-0.482803 0.295386 19.8986
-0.923681 0.57648 20.2624
-0.954329 0.445764 21.0218
-0.415481 0.0988333 21.447
0.0685051 -0.179577 21.4724
0.414126 -0.342004 21.3689
0.577892 -0.514754 20.5199
-0.580339 -0.533031 19.2969
-2.0451 -3.36145 20.6657
-0.836874 -0.689111 21.3336
-0.218211 0.00820377 20.9585
0.0960048 0.680074 20.5948
0.583556 1.32539 20.0106
0.708641 0.984841 19.7574
-0.728695 -0.385303 19.0234
1.13901 1.85341 14.2311
1.57268 1.24398 15.6075
-0.810409 0.157009 18.8251
1.36904 0.389458 10.1908
2.17262 -0.282595 14.2566
-0.432248 0.582249 19.5264
-1.04747 1.6227 19.9351
-1.42351 1.68947 20.9787
-0.560118 0.48801 21.8924
0.0470188 -0.290172 21.751
0.352169 -0.814162 21.4717
0.220391 -0.669287 21.3874
0.571895 -0.54089 19.2687
2.0498 -3.16232 20.6173
0.815893 -0.659501 21.3989
0.225392 0.0405971 20.9241
-0.0869303 0.664796 20.4737
-0.501585 1.40708 19.7234
-0.556106 1.08351 19.4056
0.71043 -0.391443 18.9445
-0.825131 2.0531 12.2963
-1.63053 1.35031 13.6507
0.770679 0.187206 18.7607
-1.30747 0.499699 8.13038
-2.26799 -0.253515 12.4119
0.43155 0.583471 19.5308
1.05242 1.55518 19.955
1.42006 1.63707 20.9898
0.556989 0.476457 21.889
-0.0467866 -0.297051 21.7531
-0.348951 -0.826996 21.4811
-0.202887 -0.694005 21.4421
0.593545 -0.247796 19.85
1.16603 -0.595868 20.4113
0.567314 -0.384551 21.221
0.0894042 -0.119152 21.4243
-0.313139 0.144731 21.4583
-0.668995 0.376609 21.2328
-0.747275 0.319488 20.3983
0.648437 -0.164979 19.7407
1.56074 -0.464808 20.3417
0.744363 -0.420441 21.2978
0.123713 -0.1719 21.493
-0.392949 0.0334759 21.5543
-0.880335 0.205063 21.1831
-0.973064 0.173495 20.6532
0.702404 0.0670734 19.6916
1.84137 0.168552 20.2514
1.18219 -0.163982 21.2999
0.339995 -0.206474 21.5918
-0.336103 -0.185644 21.6086
-0.920192 -0.185941 21.4745
-0.736822 -0.324404 21.0591
0.480867 0.297893 19.9037
0.90437 0.561731 20.2753
0.929454 0.432904 21.0232
0.405975 0.0947691 21.4474
-0.0791926 -0.183625 21.4631
-0.41741 -0.330523 21.4146
-0.587204 -0.579756 20.5291
-2.22481 -0.611209 1.50963
1.44375e-06 -0.00692194 0.0405001
-0.0856231 0.0326417 0.747781
0.0409707 0.00761348 0.122287
-0.000478828 0.0185679 0.107843
0.00420551 0.0476452 2.06
-0.00653581 1.39935 1.23802
-0.0356453 -0.0419339 0.24443
0 0 0
0.0436815 0.095111 0.462685
2.16989 -0.652237 1.36874
0.0488108 0.0378252 0.499062
-0.0364131 0.00528723 0.108825
-0.022397 0.0357858 2.03159
0.0722004 -0.0271143 0.268299
-0.0459448 0.103605 0.454183
-0.00486848 0.0272268 1.27058
-0.00223921 -0.02176 0.206429
0 0 0
0.000380713 0.00281997 0.0118401
6.64932e-05 -4.58281e-06 0.0196986
0.0423363 0.0809859 0.199976
0.0022991 0.0923218 0.194237
2.01742e-06 1.83862e-06 0.00159765
0.00658678 0.0294413 1.43378
0.0028042 -0.0204375 0.198283
-0.00136086 0.00411078 0.0192447
-0.0242521 0.0465686 0.112584
-0.000217679 -0.000326743 0.00248902
0 0 0
0.0007885 0.00305991 0.024194
6.94759e-05 -0.000462322 0.017883
1.41402e-06 1.33365e-07 0.000403252
2.09398e-08 -1.19661e-07 -1.4275e-05
0.0452762 0.648402 0.701236
-0.000464834 0.0942454 -0.0132157
-0.000130849 0.000228319 0.0033222
6.96835e-06 0.000122771 0.0124143
6.2187e-06 -1.80487e-05 0.0121925
0 0 0
0.000547733 0.00635696 0.0308868
-0.00126199 0.00948458 0.0711188
-3.04583 -1.36279 20.1026
-3.24827 -5.31282 20.8951
-1.92257 -1.25891 17.9371
0.672394 0.315845 21.0234
0.17472 0.870548 16.1594
0.594248 1.10869 10.0613
-3.80974 0.816823 19.8704
-2.22065 0.767909 17.3594
-2.40444 2.97943 19.5111
0.60833 -0.214546 20.431
0.804558 0.931728 6.73647
0.623337 -0.120697 16.9317
3.26634 -5.07082 20.7151
1.91823 -1.29507 17.8291
3.07283 -1.37569 20.1162
-0.175744 0.842773 16.0458
-0.423916 1.11219 9.0432
-0.660357 0.316729 21.0162
2.19954 0.871345 17.2198
2.38825 2.88592 19.5408
3.86863 0.886458 19.8838
-0.672096 1.00867 5.70071
-0.658915 -0.123715 16.6404
-0.635881 -0.181008 20.3368
-0.673608 -0.913107 21.578
-1.02237 -0.213446 16.9333
0.0074792 -0.207669 21.1674
-0.0103006 0.0394882 16.727
-1.75248 -0.617351 21.5221
-3.52392 2.02963 20.8511
-0.278969 -0.486791 20.8397
-0.505732 0.410506 17.3353
1 -0.210457 17.5467
0.692355 -0.910002 21.5886
0.0410252 0.113884 16.4948
-0.0433399 -0.1854 21.1451
3.4828 1.98432 20.922
1.77334 -0.635072 21.4951
0.513724 0.391852 17.438
0.248296 -0.503393 20.8358
-0.932984 -0.443132 19.9797
-0.609868 -0.20079 19.8112
-0.64286 -0.390429 19.5979
-0.930422 -0.554139 20.9701
-1.38967 -0.567319 20.3718
-1.78327 -1.42953 20.3802
-0.288831 -0.244246 21.3605
-0.650099 -0.401234 21.2611
-0.552324 -0.522639 21.4536
0.106486 0.00580907 21.4988
-0.110086 -0.134815 21.4287
-0.0441424 -0.0633749 21.5436
0.489855 0.227758 21.3818
0.354528 0.108181 21.481
0.393917 0.368854 21.6139
0.68179 0.340657 21.281
0.71664 0.289622 21.1214
0.876678 0.73321 21.2254
0.822821 0.288364 20.6359
0.76968 0.623953 21.5665
-1.1057 -0.311483 19.8553
-0.683347 -0.0672728 19.7095
-0.752479 -0.262338 19.4371
-1.23407 -0.496347 21.0249
-1.75897 -0.200007 20.2851
-0.394198 -0.304773 21.416
-0.968044 -0.362244 21.3043
0.117356 -0.0713505 21.5703
-0.228343 -0.229456 21.5658
0.648905 0.117102 21.4878
0.395815 -0.0863018 21.6376
0.942691 0.181658 21.7561
0.944503 0.00866016 21.0301
1.32611 0.594923 20.5394
0.992566 -0.0669828 20.6868
1.18437 0.636013 21.2007
-1.25144 0.112344 19.7638
-0.611412 0.224468 19.7832
-0.810653 0.118689 19.3517
-1.56088 -0.00845967 20.9622
-1.3843 0.535971 20.2238
-0.749304 -0.230381 21.5185
-1.21806 0.205246 21.1556
-0.026093 -0.181588 21.6069
-0.463395 -0.0382596 21.5562
0.609567 -0.202328 21.514
0.177686 -0.228597 21.5311
1.13398 -0.292748 21.0127
0.603458 -0.366971 21.2639
1.49872 -0.354046 20.6177
0.633926 -0.627845 20.9826
1.5509 -0.368436 19.9118
-0.718039 0.449923 19.9865
-0.510907 0.438479 19.7112
-1.00494 0.549778 20.6636
-1.07282 1.02094 20.1224
-0.728728 0.268796 21.336
-1.25037 0.893092 21.0521
-0.156577 -0.0471853 21.4889
-0.535019 0.24509 21.6657
0.245993 -0.327355 21.3468
0.0729086 -0.238149 21.6113
0.416248 -0.425145 21.1947
0.404433 -0.53027 21.2615
0.40718 -0.510891 21.0742
-1.2969 -1.52617 18.923
-0.658943 -0.483139 19.1409
-0.0108637 -0.788403 18.928
-1.04732 -1.18513 21.6233
0.0297854 -4.62735 21.3278
-0.417332 -0.150307 20.9765
0.00932401 -1.25495 20.2146
-0.0417853 0.267559 20.6611
0.00424672 -0.258588 18.5519
0.283947 1.04322 20.2808
-0.00932144 0.101251 17.1979
0.727226 1.45288 20.5841
0.794524 1.80318 17.0351
-0.0108022 0.509692 16.3788
1.04897 1.09348 17.0812
0.0209358 1.43757 15.2353
-0.8236 -0.144212 18.8699
-0.0242292 -0.538022 18.4558
1.40257 1.48865 14.0105
1.4202 1.0607 8.15982
-0.10227 -1.10199 -3.49046
2.08773 0.933791 14.296
0.140621 -0.792773 4.54329
-0.650782 0.555125 19.1472
-0.0286142 0.276249 18.217
2.05946 -0.351059 12.5079
0.927806 -1.05682 19.431
0.0386565 -0.906967 -2.21445
1.01652 -1.14992 19.3186
0.0987371 -2.91327 -0.37368
-0.738524 1.09581 19.5228
0.000318753 0.786039 19.2972
-1.20984 1.62472 20.4941
0.028888 2.37472 19.7135
-1.12465 1.19579 21.8531
0.0279127 3.03499 20.6645
-0.231227 0.087716 21.8463
0.00357618 0.875329 22.1818
0.209531 -0.543087 21.6395
0.000984607 -0.292972 21.971
0.463473 -0.919916 21.6522
0.00445746 -0.970433 21.6811
0.0292655 -1.58189 21.1931
1.30019 -1.52596 18.9193
0.648581 -0.499188 19.1027
0.646657 -0.404831 19.5789
1.04247 -1.14271 21.5979
1.7683 -1.3812 20.3835
0.41322 -0.136769 21.0637
0.561399 -0.529857 21.4396
0.0441106 0.262691 20.5688
0.0343079 -0.0476097 21.5419
-0.225021 1.02722 20.2234
-0.385069 0.367403 21.6171
-0.645962 1.48318 20.2186
-0.700035 1.88503 16.716
-0.879164 0.743471 21.2799
-0.857305 1.19545 16.7453
-0.761015 0.680781 21.8193
0.789455 -0.149833 18.7896
0.756103 -0.268615 19.3894
-1.29607 1.58302 12.4683
-1.07391 1.27131 5.93328
-1.42003 0.692867 20.037
-2.15251 1.05073 12.3271
-1.2922 0.797974 21.1112
0.631469 0.571246 19.1176
0.810109 0.128209 19.2872
-2.02693 -0.366899 10.5769
-0.980995 -1.0641 18.4961
-1.52637 -0.331566 20.2662
-1.05241 -1.19757 18.9879
-1.726 -0.360732 19.6726
0.742979 1.08187 19.541
0.508522 0.438628 19.7163
1.21598 1.58114 20.5049
1.0598 0.98662 20.1412
1.12089 1.16018 21.8467
1.22587 0.856538 21.0586
0.229571 0.0816101 21.8457
0.527242 0.234442 21.6649
-0.205588 -0.552951 21.6492
-0.0762654 -0.244812 21.6112
-0.460156 -0.94423 21.6629
-0.411769 -0.543262 21.2386
-0.360319 -0.52056 21.1806
0.937048 -0.447846 19.9815
0.617873 -0.211561 19.7908
0.923539 -0.545021 20.9645
1.38601 -0.565893 20.3759
0.285313 -0.242378 21.3662
0.648879 -0.396436 21.259
-0.106516 0.00897319 21.5003
0.103734 -0.129412 21.432
-0.498756 0.237911 21.3899
-0.349662 0.108323 21.4833
-0.722143 0.347954 21.1827
-0.743995 0.308749 21.1471
-0.887603 0.293058 20.5569
1.13593 -0.323357 19.8299
0.695188 -0.0608977 19.6903
1.23543 -0.497042 21.0269
1.78139 -0.193656 20.2931
0.392939 -0.302346 21.424
0.970583 -0.359724 21.3121
-0.119139 -0.0716835 21.5592
0.212275 -0.230229 21.5706
-0.658487 0.121378 21.4953
-0.39366 -0.0774269 21.6432
-0.991111 0.199631 21.6864
-0.990392 0.015088 21.0207
-0.992248 -0.0729231 20.7852
1.28478 0.132374 19.7341
0.61123 0.232287 19.7761
1.56484 -0.00274963 20.965
1.36682 0.531428 20.2311
0.743357 -0.23143 21.5269
1.20099 0.209776 21.154
0.0154126 -0.17944 21.6044
0.453373 -0.0419185 21.561
-0.632186 -0.203545 21.5088
-0.200853 -0.235248 21.5298
-1.20288 -0.313354 20.99
-0.637832 -0.35956 21.3491
-0.69742 -0.660348 21.0672
0.713042 0.445412 19.9957
0.982592 0.537984 20.6654
0.712962 0.262301 21.3349
0.149598 -0.0557967 21.4869
-0.235203 -0.314357 21.3433
-0.409108 -0.43733 21.1597
-1.033 -0.389469 19.9138
-1.64255 -1.50895 18.3862
-1.21145 -0.830281 19.5862
-1.62719 -0.62381 19.2367
-0.696769 -0.352925 19.532
-2.34114 -1.50549 20.2776
-1.0672 -0.561164 21.0146
-0.944077 -0.47752 17.9547
-1.00757 -0.969081 21.2727
-1.58812 -1.35104 21.5639
-0.531845 -0.640804 21.5574
-0.333814 -0.264197 21.3822
-0.195531 0.129817 15.8895
-0.220036 -0.23552 21.5118
-0.189314 -0.495351 21.2041
0.0264936 -0.121967 21.5366
0.107621 -0.00968472 21.5187
0.0925954 0.319517 16.0978
0.148688 0.123861 21.5941
0.267547 0.0517647 21.0433
0.562252 0.377442 21.5428
0.563768 0.171125 21.4416
0.429589 1.27772 16.6876
0.623994 0.563626 21.5249
1.0413 0.489927 20.9404
1.05389 0.68889 21.4456
0.800444 0.279664 21.518
1.02757 1.5371 16.3841
0.990848 0.76726 21.1239
1.62175 0.524952 19.7091
0.895651 0.59744 21.7297
-1.23865 -0.12306 19.7779
-2.36814 -0.34876 17.1499
-1.87224 0.333703 18.9811
-0.821721 -0.110017 19.3484
-4.22244 -0.423627 19.9114
-1.47225 -0.32202 21.0256
-2.34396 0.132121 21.3954
-1.38506 -0.687653 21.2516
-0.553547 -0.316714 21.4736
-0.902983 -0.723317 21.3617
-0.214614 -0.213413 19.6567
0.0621371 -0.142055 21.6347
0.128008 -0.303334 20.4821
0.622152 0.120835 19.3385
0.683659 -0.0388908 21.5201
-0.17594 1.13175 4.25692
0.96102 -0.251978 20.4765
1.57603 0.129086 20.0167
1.10044 -0.0295577 21.7156
2.15503 0.908952 10.7742
1.80332 -0.30471 19.8949
1.65263 0.263786 20.0127
-1.00287 0.389204 19.8678
-1.35062 1.40747 18.726
-0.802501 0.754694 19.7806
-0.671835 0.356891 19.5005
-1.99766 1.30007 19.9628
-1.36939 0.386506 20.7818
-2.42401 1.99424 20.6784
-1.22493 0.992468 20.6267
-2.00558 0.52481 21.2399
-0.861666 0.0504866 21.4644
-2.46469 0.549266 20.9805
-0.964343 0.595681 21.5424
-0.725478 -0.0296837 21.8811
-0.130215 -0.129596 21.5789
0.0389052 0.302362 16.3426
-0.208087 -0.00416492 21.6679
0.188375 -0.3606 21.79
0.421849 -0.311277 21.4975
0.743825 -0.505146 18.2978
0.248989 -0.406879 21.5093
0.810076 -0.681037 21.368
0.682325 -0.34588 21.1308
1.08766 -1.21124 19.1485
0.465669 -0.653465 21.383
0.812336 -0.83724 20.677
1.64346 -1.53429 18.3473
-0.000144239 -2.52902 18.0858
-0.0439461 -2.36332 15.9842
-0.0170712 -0.68757 18.6801
0.00562433 -6.1558 22.5453
0.961581 -0.460572 18.4173
0.0130739 -1.71298 21.3124
-0.000217653 -0.791239 12.2597
0.20323 0.139192 16.1151
0.00559636 -0.504552 18.9439
0.00751116 -0.0822803 10.3221
-0.105626 0.306864 15.9004
-0.00165809 0.00756822 17.5414
-0.0156089 0.0779394 8.99906
-0.329191 1.25739 16.1823
-0.0170412 -0.188787 16.9646
-0.0769234 -1.40086 -4.06498
-0.0953459 0.306133 6.88569
-0.938533 1.57175 15.9702
0.000397918 1.28248 15.4268
-0.0971252 -0.8919 -0.246006
0.122592 1.39719 12.1804
2.36219 -0.32103 16.9467
-0.0588745 1.57048 15.1276
-0.028579 -0.219534 18.2144
0.435854 1.27235 3.20124
-0.0132234 0.0531901 -1.18999
0.129057 -2.11535 -6.66711
-2.04178 1.00477 9.22892
0.250558 -1.41883 -2.51901
0.139635 -3.02628 -2.62802
1.33618 1.42825 18.7188
0.00761871 1.56673 19.1927
-0.0121396 0.786513 18.7288
0.0111681 4.77274 19.1315
2.40901 1.9556 20.6706
0.0226757 2.424 20.2853
0.0299454 5.2233 18.0276
2.39126 0.570864 20.9793
0.0131796 2.19999 22.3352
0.00491065 0.210136 10.9124
-0.0473093 0.29874 16.2642
0.00103721 0.26402 22.1102
0.000384129 -0.348291 5.81474
-0.786712 -0.462658 17.5387
0.00179802 -0.632986 21.8345
0.068713 -1.12343 11.0752
-1.0931 -1.27753 18.7868
0.0195805 -1.01703 21.4812
0.0543634 -1.41764 13.8487
1.05098 -0.400724 19.9012
1.21837 -0.837672 19.5822
1.67079 -0.658198 19.1779
0.700661 -0.359583 19.492
2.31771 -1.47758 20.2903
1.06215 -0.557025 21.0108
1.01069 -0.945481 21.2549
1.58314 -1.34973 21.5642
0.551001 -0.648144 21.5497
0.331784 -0.260406 21.3867
0.222008 -0.237154 21.516
0.190676 -0.490766 21.2305
-0.0468091 -0.101483 21.5361
-0.108874 -0.0102604 21.5096
-0.143914 0.125198 21.5839
-0.261757 0.0523423 21.0023
-0.552047 0.379519 21.5395
-0.575689 0.17609 21.4518
-0.62042 0.590896 21.5069
-1.04541 0.555845 20.7863
-1.06082 0.706457 21.5199
-0.846965 0.290366 21.4213
-1.01652 0.85572 21.1297
-1.68069 0.694701 19.2667
-0.896517 0.657695 22.01
1.26797 -0.115519 19.7551
1.92506 0.369523 18.896
0.827733 -0.113153 19.2901
4.29012 -0.399786 19.9218
1.47693 -0.318446 21.0319
2.32068 0.124751 21.3868
1.39908 -0.675978 21.2265
0.549603 -0.315385 21.4864
0.893993 -0.732495 21.3602
0.160971 -0.228648 19.6694
-0.0697698 -0.13884 21.6331
-0.14624 -0.276773 20.3971
-0.618787 0.144427 19.2683
-0.696618 -0.0300576 21.5391
-1.01636 -0.179704 20.1088
-1.69089 0.211527 19.1676
-1.14028 -0.0341637 21.7546
-1.90857 -0.282805 19.7121
-1.76411 0.435162 19.9051
1.00329 0.398166 19.8663
0.797885 0.744836 19.7965
0.665893 0.370185 19.4789
1.96664 1.27088 19.9774
1.35087 0.386113 20.7818
1.20602 0.958089 20.633
1.98487 0.515888 21.2391
0.848894 0.0538308 21.464
0.949187 0.577546 21.536
0.717384 -0.0417126 21.8807
0.120037 -0.127594 21.5792
0.203397 -0.00906337 21.6666
-0.197264 -0.36679 21.7864
-0.434368 -0.316911 21.4886
-0.25643 -0.4208 21.5067
-0.801702 -0.730829 21.4409
-0.709886 -0.3596 21.1473
-0.478605 -0.676891 21.4059
-0.836053 -0.84923 20.6534
-1.41795 -0.791028 19.4103
-1.17258 -1.09345 21.3838
-0.139332 -0.31745 21.5239
0.237585 0.106349 21.5352
0.852206 0.575121 21.4496
1.31018 0.673092 20.8292
-1.9082 -0.218496 18.9832
-2.56762 -0.555466 21.7163
-0.608199 -0.523995 19.9909
0.151262 -0.0390431 19.6034
1.04035 0.10158 19.8228
1.68891 0.228192 19.6457
-1.2759 0.782287 19.4126
-1.95582 0.84422 20.8126
-1.46291 0.174355 21.8527
-0.27462 -0.171093 21.8534
0.494972 -0.530513 21.6915
0.900937 -0.793064 21.297
-0.0161661 -2.69392 16.9798
0.00537885 -0.727662 13.1598
0.00550621 -0.137059 10.1769
-0.0048678 0.0939019 9.74006
-0.12106 -0.604079 6.46236
-0.09178 0.515657 7.23174
-0.0664376 -0.489619 14.6937
-0.0259958 -1.01668 -4.20473
0.297862 -2.03674 -4.86519
-0.0129357 2.25898 17.8675
0.00886824 3.30193 20.3915
0.00666987 0.908169 12.9351
0.00264872 -0.00264414 9.84344
0.00598162 -0.437952 8.37574
0.0673342 -1.97306 12.4848
1.44313 -0.811615 19.3744
1.17653 -1.07422 21.3631
0.145368 -0.321901 21.5389
-0.23187 0.107517 21.5137
-0.854709 0.609133 21.4598
-1.33822 0.796253 20.8497
1.96498 -0.225968 18.9019
2.57765 -0.537669 21.7237
0.600872 -0.517271 19.9998
-0.145055 -0.0360913 19.5504
-1.06137 0.171655 19.4303
-1.79408 0.347481 19.0215
1.27566 0.799807 19.4042
1.92748 0.83656 20.8022
1.44473 0.171488 21.8496
0.268868 -0.176811 21.8487
-0.506016 -0.548192 21.6842
-0.938188 -0.843063 21.3309
0 0 0
-0.000841215 -0.0609559 0.175539
-0.0518208 0.0537083 0.406232
-0.0106953 -0.0353639 0.0117259
-0.0936447 0.0172718 0.538843
0.172031 -0.290423 2.37996
-9.95259 0.790322 6.60196
-0.102833 0.400257 0.327721
-0.415171 0.059622 2.20868
0.0156723 0.0170004 0.0841585
0 0 0
0.0287886 0.071641 0.378806
-0.00401805 -0.0719091 0.175187
0.898889 -0.00228837 0.918513
0.0318409 0.0352912 0.263807
0.0866426 0.0140524 0.513276
0.0130887 -0.0321442 0.00345431
-0.173186 -0.320741 2.40892
0.0937589 0.646628 0.614843
1.08568 -0.00532123 0.496873
0.341844 0.0342286 1.81879
0 0 0
-0.0159543 0.0397952 0.11855
-0.031902 0.0987018 0.47205
-0.070844 -0.00517121 0.539248
-0.00744496 0.0367298 1.22779
0.00126804 0.0174206 0.19634
-8.47704e-05 1.71705e-05 0.0146015
-0.023752 0.0560299 2.1908
-0.0145508 0.0463415 1.27387
0 0 0
0.00011132 -4.21537e-06 0.00265131
-0.0988239 -0.0584083 0.185222
0.0244457 -0.0367251 0.296018
0.0939015 0.130894 0.328267
0 0 0
0.0425506 0.0926589 0.398333
0.000641354 0.00425212 0.0149204
0.0397186 0.0888102 0.266232
0.0472184 0.0100126 0.399401
0.0638155 -0.00862488 0.541364
9.82109e-05 2.30213e-05 0.0190425
0.0102351 0.0417481 1.4539
-0.00149316 0.0197157 0.225607
0.0120955 0.0478686 2.09379
0 0 0
0.0254661 0.0547765 1.45401
0 0 0
0.194298 -0.109106 0.367225
0 0 0
-0.0266924 -0.035732 0.309707
-0.0652399 0.149751 0.515449
-0.0451779 0.101141 0.40528
-0.0450363 0.00819242 0.375385
-0.00076207 0.00325762 0.0116564
-0.0165993 0.0380444 0.112671
-0.00257685 -0.00563166 0.0302386
-1.4079 0.950767 1.09679
5.23887e-05 -0.000212136 0.00689543
0 0 0
-0.00526201 0.0366401 0.101898
-7.12053e-05 -0.000182549 0.00572578
-0.000286443 0.0126243 0.0771186
-0.213432 0.187455 -0.0441275
0 0 0
0 0 0
0 0 0
8.81215e-05 7.48503e-05 0.00862953
0 0 0
-0.000111508 0.0247407 0.196189
-0.00110412 -0.00303754 0.0163623
-0.0144084 0.00254699 0.0365603
-0.00015029 0.0347706 -0.0106881
9.17145e-05 -0.0227863 0.15695
0.000618493 0.00220183 0.0131987
0.000735501 4.85134e-05 0.0089646
1.42719 0.979158 1.13245
0 0 0
5.1849e-05 -0.00021248 0.00641274
0.00125137 0.00977012 0.0273478
0.197752 0.174367 -0.0410812
-0.017618 0.0889461 0.53494
0 0 0
0 0 0
0.0128187 0.00230419 0.0329394
0 0 0
-0.000961204 6.26178e-05 0.0116766
-0.00272841 0.0129369 0.0608552
0 0 0
0.000395862 1.67651e-05 0.0136326
-0.00734088 -0.00775719 0.0833482
0 0 0
0 0 0
-1.26514e-08 1.00726e-07 -4.61271e-05
0.00385242 0.0322295 0.148541
0.000876483 0.00442476 0.0314143
4.77167e-08 2.01934e-08 1.03911e-05
-1.96125e-08 -1.20602e-07 -1.74647e-05
0 0 0
0.0177959 0.00711692 0.381215
2.62317e-06 1.40222e-07 5.46276e-06
-0.000136422 0.191122 0.59705
5.38909e-06 5.04278e-06 0.00376284
4.43957e-06 -2.63558e-06 0.00626444
-0.000267023 9.89751e-06 0.0105526
0 0 0
0 0 0
0.000407814 0.00476081 0.0437106
0.00348808 0.0402556 0.210973
-0.00418649 0.0161628 0.0955685
-0.0175799 0.00660767 0.3707
-0.000203962 0.000865371 0.00243682
0 0 0
-0.0261015 -0.00800242 0.186435
-0.000341745 0.000979707 0.00610538
-2.64818e-05 -0.000141835 0.000572996
0 0 0
0.000222734 0.000572892 0.00543344