# vtk DataFile Version 2.0
tri_press
ASCII
DATASET UNSTRUCTURED_GRID
POINTS 3682 float
-0.775 0.365 -2.05361
-0.835 0.295 2.06725
-0.715 0.815 -2.01414
-0.755 0.991697 1.965
0.775438 0.365 -2.055
0.835 0.295 2.06721
0.710066 0.825 -2.015
0.755 0.985 1.97474
-0.832643 0.304023 -0.67999
-0.856893 0.27644 0.69363
-0.783482 0.929048 -0.68776
-0.771563 0.962694 0.63862
0.835814 0.301144 -0.68093
0.852531 0.280948 0.69314
0.781781 0.935071 -0.685087
0.773519 0.965163 0.644827
-1.57447 0.0412142 -3.12918
-1.57593 0.0550001 -2.04819
-1.62154 0.0028818 -0.673658
-1.65243 -0.0435505 0.709748
-1.64772 -0.0425732 2.08502
-1.6431 -0.0275122 3.16962
-1.64254 -0.0107935 4.24741
-1.56797 0.319368 -3.12557
-1.56498 0.351844 -2.04963
-1.62109 0.31831 -0.684271
-1.64724 0.287505 0.684821
-1.63437 0.297993 2.05107
-1.63535 0.312694 3.13539
-1.63883 0.327202 4.2149
-1.54299 0.836964 -3.10599
-1.51965 0.865362 -2.02849
-1.57593 0.935385 -0.695295
-1.58138 0.961811 0.634111
-1.57053 0.986617 1.96843
-1.59994 0.997422 3.05622
-1.62141 1.00577 4.14419
-1.54382 1.71568 -3.11135
-1.53698 1.76015 -2.04081
-1.55392 1.8491 -0.721675
-1.56756 1.92602 0.587298
-1.57413 1.97174 1.90728
-1.58686 1.99111 2.9796
-1.60238 2.00204 4.06194
-0.791541 0.0486937 -3.13193
-0.776214 0.0649235 -2.05219
-0.812684 -0.00302838 -0.672465
-0.840865 -0.0523798 0.716639
-0.836538 -0.0474259 2.09658
-0.836727 -0.0307258 3.17817
-0.838751 -0.0129709 4.25311
-0.795574 0.321348 -3.12628
-0.837458 0.310726 3.14331
-0.839301 0.32587 4.2199
-0.777318 0.818626 -3.10004
-0.811014 0.998654 3.05801
-0.828766 1.00641 4.14637
-0.766949 1.70244 -3.10505
-0.755403 1.74711 -2.0337
-0.767807 1.84538 -0.716546
-0.780183 1.92894 0.588809
-0.786065 1.97583 1.9064
-0.79755 1.9945 2.97874
-0.810888 2.00453 4.06183
0.768341 0.0503282 -3.13231
0.803584 0.0649369 -2.05299
0.838181 -0.00412198 -0.672906
0.842808 -0.0496768 0.716694
0.827861 -0.0465887 2.09721
0.798399 -0.0309115 3.18032
0.78025 -0.0132808 4.25603
0.743417 0.323869 -3.12684
0.785724 0.309678 3.14616
0.771834 0.325101 4.22331
0.721116 0.824343 -3.1003
0.759752 0.995623 3.06395
0.761698 1.00498 4.15094
0.77137 1.70695 -3.10397
0.786044 1.75174 -2.0322
0.793233 1.84893 -0.713849
0.788031 1.9306 0.593018
0.781785 1.9756 1.91157
0.776457 1.99376 2.98379
0.77167 2.00397 4.06638
1.55516 0.0449259 -3.12933
1.58963 0.056731 -2.04861
1.63943 0.00322321 -0.67311
1.65837 -0.0401144 0.711765
1.64424 -0.0412529 2.0884
1.6142 -0.0276704 3.17459
1.59209 -0.0111636 4.25331
1.52928 0.324582 -3.1259
1.56092 0.355191 -2.05017
1.62545 0.318861 -0.683275
1.64995 0.291232 0.687985
1.63479 0.297725 2.05597
1.60094 0.311209 3.14168
1.58216 0.326079 4.22167
1.50045 0.84635 -3.10576
1.51112 0.87624 -2.02794
1.57632 0.942173 -0.691205
1.58658 0.964679 0.642733
1.57207 0.982169 1.98036
1.56611 0.993555 3.06649
1.56507 1.00362 4.15286
1.54548 1.72399 -3.109
1.56014 1.7685 -2.03766
1.57596 1.85555 -0.716421
1.57726 1.92927 0.595172
1.57231 1.97184 1.91684
1.56891 1.9902 2.98908
1.56668 2.00128 4.07068
-0.689173 0.59 -1.97805
0.000219017 0.342095 -2.07721
-0.812367 0.325966 -1.3668
-0.806938 0.643349 2.02806
0 0.267891 2.09434
-0.855606 0.276061 1.38044
-0.00246698 0.87013 -2.0647
-0.783527 0.90631 -1.35095
0 1.02607 2.00759
-0.763941 0.977855 1.30181
0.689222 0.595 -1.98147
0.808836 0.329862 -1.36797
0.805181 0.64 2.03116
0.852331 0.279409 1.38018
0.780806 0.914918 -1.35004
0.767388 0.978211 1.30978
-0.831943 0.303057 0.00681996
-0.854041 0.616536 -0.683875
0.00158554 0.245413 -0.68046
-0.849135 0.619567 0.666125
-0.00218083 0.243191 0.693385
-0.769626 0.937975 -0.0245699
-0.00085057 1.20673 -0.686423
0.000977968 1.44018 0.641723
0.83443 0.300789 0.00610495
0.857817 0.618107 -0.683009
0.845698 0.623056 0.668983
0.770347 0.942814 -0.02013
-0.828871 0.603268 -1.35888
0.825734 0.606554 -1.359
0.000902279 0.313685 -1.36738
-0.00165877 1.01439 -1.3505
-0.00112398 0.5925 -2.17279
-0.835114 0.618051 -0.00887498
0.844504 0.620582 -0.00701255
-0.000297643 0.246669 0.00646245
6.36988e-05 1.44017 -0.02235
-0.8502 0.631458 1.34113
0.845909 0.631528 1.34498
-0.00109041 0.251136 1.38031
0.000488984 1.44023 1.3058
0 0.641674 2.1387
-0.66286 0.4775 -1.9466
-0.38739 0.342581 -2.07638
-0.801841 0.337325 -1.71021
-0.804468 0.469174 2.03116
-0.4175 0.258641 2.1036
-0.843975 0.286858 1.72385
-0.72454 0.7025 -2.01855
-0.358733 0.804748 -2.0016
-0.781758 0.89315 -1.68254
-0.797635 0.817523 2.0132
-0.3775 1.02431 2.00172
-0.75965 0.984956 1.63341
0.387829 0.342582 -2.07707
0.716569 0.48 -2.00247
0.800586 0.338983 -1.71148
0.4175 0.258579 2.10364
0.803701 0.4675 2.03279
0.844 0.28687 1.72369
0.3538 0.81007 -2.00235
0.712428 0.71 -2.01102
0.777937 0.90246 -1.68252
0.3775 1.01976 2.00539
0.795386 0.8125 2.01824
0.76413 0.984541 1.64226
-0.819697 0.317803 -1.0234
-0.832235 0.303599 -0.336585
-0.853217 0.455342 -0.681933
-0.43145 0.242876 -0.680225
-0.857147 0.275353 1.03704
-0.831677 0.302489 0.350225
-0.857149 0.445936 0.679878
-0.437216 0.244458 0.693508
-0.786098 0.920272 -1.01936
-0.840214 0.783518 -0.685818
-0.774552 0.931509 -0.356165
-0.406846 1.09725 -0.687092
-0.767738 0.970261 0.970215
-0.808402 0.790157 0.652373
-0.779305 0.959045 0.307025
-0.492672 1.4162 0.640172
0.820142 0.317686 -1.02445
0.433988 0.242701 -0.680695
0.834743 0.301345 -0.337413
0.857361 0.454353 -0.681969
0.852508 0.280101 1.03666
0.433364 0.245693 0.693263
0.834113 0.300236 0.349623
0.847827 0.452645 0.681062
0.783831 0.927531 -1.01757
0.404374 1.09872 -0.685755
0.843802 0.78859 -0.684048
0.776393 0.939272 -0.352608
0.7704 0.971634 0.977305
0.494386 1.41695 0.643275
0.811621 0.795116 0.656905
0.778456 0.960511 0.312348
-0.812711 0.596634 -1.66846
-0.345148 0.59125 -2.10789
0.000560648 0.320241 -1.7223
-0.000452481 0.467297 -2.1292
-0.837333 0.464617 -1.36284
-0.405732 0.313283 -1.36709
-0.845734 0.637403 1.68459
-0.403469 0.642511 2.12872
-0.000545206 0.28086 1.73732
0 0.454782 2.13325
-0.856993 0.453759 1.36078
-0.428348 0.24999 1.38037
-0.00206288 0.984518 -1.7076
-0.00179548 0.731315 -1.94869
-0.826086 0.754789 -1.35491
-0.392593 0.985689 -1.35072
0.000244492 1.43013 1.65669
0 0.83387 2.10795
-0.806788 0.804656 1.32147
-0.381726 1.42569 1.3038
0.809305 0.600777 -1.67024
0.344049 0.59375 -2.10719
0.829727 0.468208 -1.36348
0.404869 0.313445 -1.36767
0.850171 0.635764 1.68807
0.402591 0.640837 2.12916
0.847997 0.455468 1.36258
0.42562 0.250911 1.38024
0.821595 0.760736 -1.35452
0.389574 0.986599 -1.35027
0.81055 0.804869 1.32738
0.383939 1.42583 1.30779
-0.830116 0.462261 -0.00102751
-0.430794 0.245515 0.00664121
-0.848721 0.609902 -1.02138
-0.836788 0.617294 -0.346375
0.00124391 0.310141 -1.02392
0.000643948 0.246111 -0.336999
-0.847945 0.618809 0.328625
-0.850833 0.625513 1.00363
-0.00123923 0.247689 0.349924
-0.00163562 0.248602 1.03685
-0.812791 0.783223 -0.0167225
-0.497636 1.41478 -0.02346
-0.00125467 1.0251 -1.01846
-0.000393436 1.43155 -0.354387
0.000520833 1.44018 0.309687
0.000733476 1.44023 0.97376
0.834118 0.46336 -0.0004538
0.431095 0.245672 0.0062837
0.845814 0.612331 -1.02101
0.847111 0.619344 -0.345011
0.851689 0.621819 0.330985
0.846074 0.627292 1.00698
0.816422 0.786196 -0.0135713
0.497514 1.41611 -0.02124
-0.813893 0.471059 -1.68933
-0.850706 0.462448 -1.02239
-0.833361 0.76379 -1.02037
-0.817615 0.728645 -1.6755
0.80905 0.474104 -1.69086
0.81527 0.735368 -1.67638
0.837007 0.768662 -1.01929
0.843927 0.463917 -1.02273
-0.396561 0.321761 -1.71625
0.396349 0.321898 -1.71689
0.411785 0.310195 -1.02418
-0.410631 0.310086 -1.02366
-0.375663 0.94336 -1.69507
-0.39238 1.00142 -1.01891
0.390019 1.00208 -1.01801
0.371687 0.94447 -1.69506
-0.366269 0.472399 -2.09318
-0.351941 0.716908 -2.06125
0.348924 0.720658 -2.03917
0.365939 0.473649 -2.09605
-0.829867 0.464701 -0.34148
-0.854525 0.448652 0.339425
-0.830507 0.796645 0.317825
-0.816431 0.778335 -0.35127
0.833872 0.46479 -0.341212
0.819906 0.78229 -0.348809
0.834032 0.800661 0.321667
0.858515 0.449231 0.340304
-0.431108 0.244224 -0.336792
0.432502 0.244267 -0.337206
0.431381 0.247378 0.349773
-0.433066 0.246865 0.350074
-0.512468 1.37647 -0.355276
-0.495213 1.41561 0.308356
0.495991 1.41661 0.311018
0.511928 1.37938 -0.353498
-0.857108 0.450881 1.02033
-0.854394 0.461467 1.70422
-0.806145 0.81109 1.659
-0.810614 0.797894 0.98692
0.848097 0.453735 1.02182
0.808307 0.799489 0.992143
0.810157 0.808685 1.66516
0.858402 0.461484 1.70588
-0.428943 0.247641 1.03694
0.425398 0.248464 1.03675
0.42156 0.280527 1.73051
-0.422924 0.279897 1.73058
-0.383509 1.42554 0.971988
-0.379613 1.41905 1.64505
0.380719 1.41801 1.64948
0.385593 1.42569 0.975533
-0.410485 0.461978 2.12426
0.410045 0.461141 2.12437
0.390045 0.823185 2.10141
-0.390485 0.825696 2.10086
-0.778688 0.42125 -2.05986
-0.581195 0.343092 -2.07569
-0.800831 0.338752 -1.88191
-0.841795 0.382087 2.07126
-0.62625 0.272078 2.09017
-0.85548 0.274936 1.89555
-0.711515 0.75875 -2.00809
-0.536867 0.788894 -1.98689
-0.763028 0.868724 -1.84834
-0.784258 0.90461 1.99704
-0.56625 1.01556 1.99092
-0.756772 0.987774 1.7992
0.581633 0.34311 -2.07672
0.778892 0.4225 -2.06163
0.801239 0.338764 -1.88324
0.62625 0.27207 2.09015
0.841291 0.38125 2.07194
0.855572 0.274863 1.89545
0.531933 0.789916 -1.98106
0.725709 0.7675 -2.02747
0.757593 0.877321 -1.84876
0.56625 1.00906 1.99674
0.783466 0.89875 2.00476
0.761447 0.986653 1.8085
-0.8299 0.307183 -0.851693
-0.832451 0.303799 -0.508288
-0.84627 0.378013 -0.680961
-0.647108 0.243328 -0.680108
-0.857588 0.275328 0.865333
-0.831532 0.302218 0.521928
-0.863177 0.35811 0.686754
-0.653789 0.246981 0.693569
-0.784845 0.924715 -0.853558
-0.825406 0.863062 -0.686789
-0.773471 0.924732 -0.521963
-0.607764 1.03835 -0.687426
-0.769578 0.966405 0.804418
-0.788823 0.875846 0.645496
-0.760013 0.945449 0.472823
-0.637362 1.19993 0.639396
0.833389 0.304005 -0.852689
0.649207 0.243311 -0.680813
0.83516 0.301364 -0.509171
0.84982 0.376133 -0.68145
0.852599 0.280445 0.864899
0.651099 0.247017 0.693201
0.833872 0.300043 0.521381
0.855045 0.364364 0.687101
[...]
POINT_DATA 3682
SCALARS point_scalars float 1
LOOKUP_TABLE default
-60.6917
-55.8597
-3.09055
-52.6397
-59.6691
-55.8216
-4.24177
-49.7733
-43.2738
-35.8631
-54.9314
-43.183
-43.9653
-36.6362
-54.5157
-43.0727
-46.1286
-104.473
-41.9315
-36.3893
-59.0812
-54.168
-43.3906
15.4143
-112.066
-42.892
-37.3701
-52.5002
-48.9514
-43.3906
99.6504
-105.724
-49.269
-40.0951
-47.1328
-49.3589
-41.8358
-32.5334
-77.2546
-87.9874
-50.9801
-53.546
-53.2917
-51.1927
50.3972
-105.524
-49.5616
-35.9572
-53.1152
-44.5369
-41.568
144.612
-42.2439
-41.7359
145.579
-41.7046
-40.4663
89.6265
-82.1647
-97.4504
-51.4209
-56.8782
-44.6343
-42.8192
45.9799
-104.791
-49.6395
-35.2926
-51.4399
-44.5746
-39.8768
151.379
-42.2828
-39.8768
153.881
-41.702
-40.2939
-48.081
-82.255
-91.2149
-51.3073
-56.5657
-44.5523
-42.9386
-47.3791
-113.51
-42.4337
-36.316
-59.3391
-52.5624
-43.3354
14.5612
-113.718
-43.4104
-37.374
-52.8691
-48.9172
-43.3354
-9.1194
-92.888
-49.0352
-40.3014
-47.2918
-49.2641
-41.4852
-9.1194
-76.5607
-89.5408
-50.8191
-53.9324
-50.1345
-47.5832
17.7524
-113.127
-39.0954
-47.6727
-33.3114
-37.3362
42.4168
-39.4677
-43.5623
-41.5026
20.4377
-38.4536
-47.1303
-36.0009
-38.4887
-41.2641
-34.8356
-44.2223
-47.7693
-37.2343
-36.998
-51.2629
53.4291
-53.8513
-35.2846
-44.3172
-37.9952
-51.8067
-50.6392
-49.5691
-42.8526
-19.1611
201.789
-38.5198
-38.3284
-38.423
-87.6935
-39.1951
-37.1525
-37.7425
-49.4372
-31.3692
12.8008
-139.197
-62.8581
-47.3938
-42.1448
-23.6405
22.6499
63.0792
-71.8785
-49.2127
-43.2573
-42.2947
-138.49
-2.79303
-62.8731
-42.1036
-47.1943
-23.6284
53.9443
51.6844
-69.3521
-43.2713
-48.8135
-42.5929
-27.9713
-37.3849
-43.842
-47.355
-35.9539
-33.3741
-37.1096
-36.1829
-30.9304
-49.2524
-56.9848
18.8163
-41.3367
-39.1993
-48.0122
-50.6873
-27.0896
-47.4672
-37.5464
-44.4494
-35.0236
-36.1503
-34.331
-37.259
-30.0326
19.4844
-49.4341
-56.0811
-40.8983
-50.7387
-39.4734
-48.3285
-85.1591
180.788
-64.705
203.761
-49.628
-42.2439
-38.818
-39.0496
-33.0927
-23.3588
-38.5214
-38.0381
-51.2823
181.938
-47.0601
-27.7506
-54.5254
-40.6293
-39.7276
-48.3637
-82.8976
179.58
-48.6559
-42.082
-39.4446
-38.8899
-36.5667
-37.8032
-45.9678
-27.4781
-38.8859
-48.3844
-36.4775
-37.682
-41.4278
-39.9611
-29.3073
-41.97
-39.2033
-38.4006
-36.2926
-36.7721
-42.8205
-80.8375
8.1852
-122.989
-64.3613
-49.4851
-37.0351
-37.8183
-39.775
-40.1465
-39.8061
-37.263
-43.3881
-80.7961
-86.8975
-41.4899
-39.6779
-77.7325
-84.3843
-78.1527
-38.8912
-39.2715
-64.3598
-64.3143
-29.049
-29.0773
-67.2822
-3.43304
-3.50472
-66.9134
187.069
109.099
102.06
187.338
-38.0729
-36.1124
-42.4883
-44.8779
-38.4744
-44.9656
-44.3866
-37.4488
-41.3444
-41.4417
-35.7856
-35.6436
-96.2603
-59.9802
-59.9427
-91.3524
-37.7101
-36.9473
-40.4193
-39.3741
-36.503
-38.3623
-40.7816
-37.3827
-36.6475
-36.492
-33.8913
-34.0184
-47.9986
-54.9959
-54.9878
-47.9629
-36.0111
-35.7801
-42.0299
-42.1408
23.3917
-157.145
-93.5473
-48.1183
-48.6407
-46.257
41.5779
79.8135
-82.39
-50.9205
-43.4101
-45.1952
-159.699
22.6391
-93.7946
-48.749
-48.1238
-46.875
75.3473
38.3315
-73.9842
-43.2974
-50.2257
-45.6737
-39.6348
-38.9615
-43.2106
-48.8398
-35.989
-27.0488
-37.4463
-35.4297
-35.5921
-52.6733
-57.8208
-18.0879
-42.3444
-41.0986
-45.5985
-47.0126
-38.9219
-48.9108
-39.2174
-44.4122
-35.0281
-35.2218
-29.1133
-37.9266
-34.6726
-15.2228
-52.8682
-58.9252
-42.113
-46.9635
-41.2587
-45.898
8.70149
27.5523
-128.055
167.408
-122.977
-121.639
-89.0616
109.689
-49.5273
-33.5888
-46.5067
-40.8429
-47.0329
-48.3851
-41.8466
-40.6344
-35.7207
-35.6772
-34.4622
-21.7642
-37.8307
-36.2711
-38.379
-38.578
39.5083
35.5976
-93.0908
117.812
-50.8407
-34.0339
-45.0467
-31.8887
-43.5551
-43.5358
-43.8908
-42.3617
-41.9066
-41.434
-40.6565
-45.7714
-6.29215
33.1281
-125.431
166.22
-48.6106
-33.6359
-45.922
-40.209
-46.4415
-48.0523
-42.3791
-40.5957
-35.3352
-35.2534
-36.4179
-37.9077
-51.5424
-32.6104
-43.3405
-31.6732
-41.7789
-40.9923
-40.2788
-45.7865
-36.0118
-33.5371
-35.9916
-36.6389
-44.5027
-45.5609
-42.0235
-40.4492
-47.3056
-47.3872
-29.7125
-44.2495
-36.7958
-38.91
-36.9214
-38.5193
-36.8575
-36.8358
-35.545
-36.7071
-54.4106
-46.9227
-46.4324
-61.8019
37.4045
37.7489
21.1773
22.6064
-53.2361
-53.2215
-58.1104
-51.0811
-36.3868
-34.087
-36.526
-36.867
-44.8479
-46.1393
-42.2713
-40.7617
-37.1783
-39.2407
-38.0261
-37.5166
-55.2802
-47.3735
-47.17
-62.6247
-62.5372
-50.5765
-49.4155
-43.6143
-61.6862
-49.5924
-48.0953
-42.7972
-51.6743
-42.757
-42.6919
-36.0011
-34.6472
-22.6363
-22.3183
-4.85935
190.443
201.628
187.725
194.203
-37.4647
-39.4439
-36.9343
-40.9464
-38.0166
-39.9811
-37.7211
-41.6568
-38.2358
-40.0039
-37.2156
-38.3045
-87.2783
-111.79
-73.5838
-87.2829
-39.7283
-38.7057
-39.9012
-38.5494
-39.7471
-36.8432
-37.9883
-37.2187
-36.5808
-37.8525
-37.7647
-37.1498
-51.108
-49.1758
-49.1894
-48.9599
-34.0776
-27.1617
-36.3208
-33.9646
-132.426
168.716
-91.6851
86.2812
-78.8132
-62.7197
-44.3463
-40.5465
-37.9271
-37.5037
-28.0805
-33.8015
-118.922
143.114
-103.564
82.1455
-73.5759
-71.4786
-39.9121
-42.0405
-44.6068
-42.7161
-41.7641
-54.2413
-91.8063
88.0277
-114.118
155.397
-77.5548
-62.3165
-37.8418
-37.3336
-44.9921
-40.5917
-29.0946
-33.7191
-101.557
83.3956
-114.475
137.361
-72.5873
-71.8901
-44.454
-42.6744
-40.4032
-41.9889
-42.0264
-54.6915
-38.8775
-27.5102
-37.7703
-40.124
-42.2838
-38.7128
-29.1954
-43.7658
-37.2965
-36.4109
-34.8666
-34.669
-32.8904
-37.9837
-34.9985
-36.4079
-37.5214
-14.5326
-41.2144
-44.1873
-49.2182
-77.6187
4.63573
28.779
-40.5144
-46.9642
-40.7261
-39.4615
-44.4212
-53.1989
-54.7157
-48.7582
-36.1449
-27.9694
-29.1322
-43.864
-38.1482
-40.2778
-42.355
-39.0765
-36.1321
-36.3977
-35.0886
-36.2644
-36.3237
-34.9888
-34.7142
-36.7917
-36.6975
-14.154
4.98991
29.0148
-41.0271
-44.3498
-49.8887
-78.0452
-39.7832
-47.3514
-54.6987
-48.6395
-40.5135
-38.803
-45.9354
-53.5152
-86.9334
-81.8442
186.28
175.471
-64.5882
-64.5902
197.339
197.956
-60.9499
-42.8058
-50.9693
-35.5737
-37.9084
-40.1289
-37.8594
-40.3882
-33.3151
-33.3692
-28.4353
-28.2993
-37.8362
-39.3136
-37.1631
-37.066
-56.2595
-56.3021
160.966
161.006
-41.3392
-59.4079
-42.8364
-14.5702
-55.0254
-55.0024
-41.0435
-41.154
-39.8229
-39.654
-47.755
-50.4222
-84.4628
-80.3816
171.279
185.625
-60.501
-42.1104
-50.9409
-35.5373
-40.5437
-38.6123
-37.7654
-40.3049
-36.4473
-38.1718
-36.9806
-36.9367
-57.9682
-39.4903
-14.3172
-42.919
-38.2562
-39.8582
-50.5172
-47.7421
-37.4503
-34.8514
-39.2355
-36.5141
-40.8257
-40.8492
-38.9636
-42.2891
-29.3856
-29.4423
-41.8512
-41.9147
-37.6929
-41.2235
-37.9854
-39.0673
-36.1796
-36.1198
-36.7621
-36.6913
-40.6963
-44.3351
-110.06
-67.5513
5.00612
5.17074
-115.691
-117.837
-63.7657
-63.7657
-49.1297
-49.1092
-37.9215
-35.5576
-39.358
-36.676
-39.6547
-39.2579
-39.3889
-42.9957
-42.5516
-38.7117
-36.7498
-38.0776
-44.834
-41.256
-67.5535
-109.612
-111.958
-57.0926
-62.4713
-130.308
-44.0968
-42.0727
-43.5677
-40.3308
-40.502
-38.8688
-42.7134
-41.5813
-100.908
-124.614
-61.5656
-55.2962
-114.142
-124.273
-61.9643
-56.8705
-94.4757
-55.1134
-60.4392
-124.612
-40.271
-41.4946
-41.6956
-37.0977
-44.2482
-40.2751
-42.6868
-42.2532
-91.2282
-89.4017
-51.5053
-49.57
-91.4497
-49.5225
-51.4969
-89.5569
-26.4355
-29.7978
-35.9304
-34.4753
-26.6372
-34.417
-35.9453
-29.8352
-113.709
-47.0502
-36.5794
-91.9002
-11.029
16.6265
-7.73555
-22.122
-10.2162
-21.7518
-7.57085
16.8342
-111.028
-91.0845
-36.3454
-46.7646
151.35
167.479
197.407
83.7567
123.299
103.4
185.214
145.24
117.095
150.14
187.768
100.525
151.948
113.547
198.872
155.088
-38.6279
-37.0213
-38.4218
-39.5116
-29.8044
-35.1893
-35.9896
-34.3396
-43.65
-43.8686
-39.3974
-39.6641
-48.8503
-42.0028
-41.9972
-48.4952
-38.9702
-39.8691
-38.9101
-37.4626
-49.6083
-49.2302
-42.6228
-42.5086
-43.1762
-40.0424
-39.9612
-44.6446
-31.8636
-34.9966
-36.7205
-36.8414
-42.8804
-44.1314
-39.7947
-38.0847
-43.014
-38.2758
-39.8571
-44.1536
-34.4664
-35.3743
-37.0979
-35.7894
-34.2013
-35.5145
-37.0771
-35.3462
-93.9197
-69.8377
-117.246
39.4155
-49.9733
-57.4793
-72.8509
-56.0162
-50.0819
-56.4637
-72.8606
-57.4688
-94.2476
39.9564
-117.031
-71.2097
-37.6527
-37.4807
-38.1189
-38.1507
-49.0501
-40.9147
-40.7366
-37.0872
-41.2664
-41.0233
-39.6041
-40.7595
-40.8321
-39.2371
-39.2205
-40.5651
-36.406
-37.0119
-36.6912
-36.1342
-40.397
-39.826
-38.0212
-38.3695
-41.7
-41.3675
-39.6854
-41.0453
-49.5977
-35.6204
-39.6394
-41.4514
-35.6383
-36.6296
-37.1821
-37.0327
-35.5408
-36.5462
-37.1003
-36.5819
-41.2492
-35.4748
-36.7123
-36.4606
-41.2732
-36.5761
-36.7813
-35.5161
-44.1837
-45.4214
-48.6456
-50.5944
-48.8501
-43.9599
-50.9304
-47.811
-48.1733
-47.9113
-50.9712
-43.8744
-44.0833
-50.5754
-48.6414
-45.46
-41.6715
-27.3798
-30.9871
-40.1954
-41.7453
-40.2141
-30.8484
-27.476
-42.2341
-42.474
-37.639
-40.9976
-42.395
-41.0507
-37.7359
-42.5135
12.8687
-107.873
-110.146
-51.6638
-51.4342
-55.4386
8.89676
75.9686
-92.7826
-51.161
-45.3094
-46.9257
-112.313
13.7161
-112.988
-51.3589
-51.7824
-55.4875
62.9098
17.7454
-101.967
-44.6625
-50.501
-48.1693
-43.4286
-40.5567
-43.4073
-48.7259
-36.2295
-28.049
-36.8148
-36.2521
-42.9731
-54.4508
-58.5181
-47.1319
-42.6621
-41.8962
-42.7352
-45.2052
-44.8234
-48.8396
-40.8764
-44.0294
-35.3242
-35.6586
-30.4195
-37.5903
-42.8679
-47.2251
-54.6043
-60.0655
-42.4698
-45.0849
-41.8361
-44.1475
10.9045
25.676
-103.142
100.369
-114.902
-114.763
-103.76
-12.4349
-40.8424
-37.2145
-42.371
-39.8188
-46.9437
-47.63
-48.42
-41.0462
-33.9771
-33.9527
-33.779
-27.0695
-40.7014
-36.765
-37.824
-38.1235
40.0069
39.8937
-90.3402
68.9312
-43.2314
-37.0634
-43.1698
-34.9178
-43.5375
-43.54
-42.9921
-44.0122
-41.6813
-41.3668
-40.906
-43.1676
1.43334
27.7227
-108.876
105.767
-42.8377
-35.3186
-42.4426
-38.9242
-46.4486
-47.0571
-50.0052
-40.9813
-39.0633
-35.8569
-36.1123
-37.3679
-43.6527
-35.9843
-41.6107
-34.574
-41.5871
-41.038
-40.5599
-43.2025
-35.4192
-34.1834
-35.2266
-35.6328
-44.5152
-44.5918
-43.0042
-42.4357
-47.4638
-47.5424
-42.522
-45.4709
-36.8432
-38.1831
-36.1497
-38.414
-36.9721
-36.9622
-36.1074
-36.9784
-53.0817
-49.4363
-48.9384
-56.1488
45.8553
45.9056
36.185
54.8111
-53.7087
-53.6991
-55.7893
-52.2931
-35.8222
-34.6775
-35.6794
-35.9688
-44.6874
-44.5776
-43.1063
-42.69
-37.4639
-39.014
-37.9721
-37.6879
-53.6275
-49.9581
-49.5263
-56.4434
-55.6303
-50.6703
-50.4099
-46.6533
-54.8852
-49.6783
-49.101
-45.4828
-46.7881
-42.7964
-42.7613
-39.3684
-27.2818
-20.0496
-19.9101
-11.8024
196.764
203.089
197.564
194.049
-37.9311
-38.9148
-37.7716
-39.6368
-38.4147
-38.9216
-38.2785
-40.2748
-38.371
-39.1545
-37.7881
-38.4051
-87.7271
-97.8245
-79.7815
-87.7171
-39.5782
-38.912
-39.7002
-38.8232
-37.6106
-36.9017
-37.616
-37.2777
-38.9896
-37.7961
-37.7452
-37.4187
-50.1021
-49.3789
-49.3849
-49.0685
-32.3369
-28.1302
-35.0746
-32.2624
29.2243
11.2321
-64.8467
116.733
-165.481
-131.215
-112.685
-6.16663
-76.6248
-52.3448
-73.1396
-61.2452
-47.0915
-47.5289
-52.4465
-41.2829
-45.5383
-38.3034
-38.1274
-39.9623
-37.6645
-30.6501
-21.8835
-33.317
24.2443
14.998
-105.019
151.939
84.0506
32.9939
-85.3279
80.9285
-76.9991
-61.3528
-73.1259
-70.8713
-49.3661
-48.8842
-48.2128
-42.1951
-43.0479
-43.3154
-43.0787
-43.3481
-44.0909
-42.0822
-42.0942
-43.4774
-165.314
-129.391
-112.986
-5.55457
26.5495
-0.541973
-8.2481
84.2991
-76.9948
-50.0287
-72.3133
-60.7419
-45.781
-38.2543
-38.0407
-39.7938
-46.9543
-47.0271
-52.9779
-41.2696
-38.2936
-30.5473
-21.6236
-33.0358
75.3907
31.779
-84.2609
76.8796
31.5511
14.2084
-107.638
163.335
-75.7727
-59.3015
-71.3924
-71.1285
-43.0411
-43.329
-43.0303
-43.3453
-48.9388
-48.5004
-49.5315
-42.0183
-44.4612
-42.238
-42.3621
-44.0091
-38.1332
-31.7594
-36.2517
-26.5212
-37.98
-36.5241
-37.471
-38.8029
-44.0264
-44.1682
-41.1756
-41.3983
-47.6855
-47.4579
-41.5201
-45.3498
-36.0598
-36.177
-36.7701
-36.3041
-31.8543
-32.9562
-34.6705
-33.5837
-37.3149
-36.9182
-33.7005
-38.2506
-35.8433
-36.6337
-35.5225
-36.3258
-32.0506
-31.5818
-35.4036
-22.62
-50.0536
-47.518
-43.7582
-46.924
-57.5536
-55.6231
-52.8522
-66.2761
3.76908
29.493
9.41946
29.4836
-41.8136
-41.4685
-40.7193
-42.94
-40.1909
-38.6436
-39.4549
-39.2707
-50.1113
-46.2124
-45.7329
-49.6751
-51.6379
-52.4005
-52.7036
-49.7506
-36.4702
-31.9284
-33.8264
-26.3807
-47.8181
-47.5406
-41.5211
-45.4501
-38.2294
-36.8914
-37.7098
-38.9929
-44.8628
-44.5689
-41.6748
-41.7124
-35.0569
-35.384
-35.689
-35.8628
-35.7146
-36.5889
-35.5832
-36.241
-33.2147
-33.5913
-35.6047
-34.1851
-37.4391
-37.1383
-36.1112
-37.0051
-31.0909
-30.3755
-34.4501
-21.9277
4.81014
29.7739
10.1869
30.1839
-49.9361
-47.8461
-43.8533
-47.1574
-57.7043
-56.1168
-52.624
-65.29
-41.3484
-41.0083
-40.1279
-42.7463
-51.5458
-52.3969
-52.6896
-49.7796
-40.424
-39.1615
-39.9661
-39.1678
-48.1399
-46.7289
-46.418
-50.1103
-102.484
-72.1571
-86.2482
-83.8747
172.45
187.94
182.565
175.839
-74.2339
-57.7655
-64.6506
-64.6393
164.33
202.822
200.334
201.263
-48.4052
-50.2714
-54.2524
-45.8149
-41.7546
-42.5561
-46.1476
-38.826
-40.0765
-38.4885
-38.0381
-39.8452
-40.2077
-36.5131
-37.7729
-40.3383
-33.4618
-34.3197
-33.115
-33.1436
-24.8997
-25.1383
-25.4181
-25.3709
-38.4906
-38.576
-38.1068
-39.1255
-38.1167
-37.9427
-37.5437
-39.5461
-66.5777
-41.7175
-53.0499
-52.5596
173.965
181.899
176.899
179.372
-46.1043
-48.276
-43.8545
-52.1692
-30.6186
-24.8649
-35.1974
-20.9761
-49.6469
-53.0573
-53.8193
-53.8077
-42.0489
-38.0155
-40.7289
-40.7831
-40.1438
-39.7297
-39.6987
-39.8256
-47.6005
-48.8567
-47.9014
-49.1436
-100.214
-71.0875
-83.7416
-81.8542
173.833
187.636
172.565
182.803
-47.6412
-49.2768
-53.8741
-44.5477
-41.4407
-42.4553
-46.0429
-38.7094
-39.941
-38.7275
-40.4705
-38.6153
-40.1002
-36.3557
-37.6446
-40.2737
-36.5324
-36.6502
-36.5109
-35.6767
-37.7526
-37.7954
-37.3318
-39.2871
-44.7536
-46.9789
-51.4223
-42.0643
-30.3481
-24.6344
-20.7295
-34.668
-39.6418
-38.2487
-38.3604
-39.405
-47.6359
-48.875
-49.2057
-47.8972
-36.1691
-36.9664
-37.0046
-35.7834
-37.216
-38.0133
-38.3936
-37.0488
-41.782
-41.6363
-41.0877
-41.2973
-40.0947
-39.8316
-39.44
-41.0413
-27.7477
-32.9716
-29.3329
-29.3675
-43.0725
-40.9425
-41.9248
-41.9539
-38.8062
-36.282
-38.2556
-40.0859
-38.4074
-38.4198
-38.1632
-38.9382
-35.9446
-36.713
-36.2615
-36.2649
-36.6665
-36.9356
-36.7832
-36.7501
-44.5454
-41.5342
-41.7489
-43.6962
-72.9051
-85.5655
-91.8609
-73.1075
14.2279
1.78028
7.3527
7.42867
-77.6509
-130.483
-129.276
-130.018
-60.9445
-68.5109
-64.2451
-64.2438
-50.1391
-49.1039
-49.4212
-49.4112
-36.7045
-37.5379
-37.5185
-36.409
-37.3895
-38.1159
-38.5347
-37.2151
-41.2854
-40.5514
-39.9243
-39.43
-40.4764
-40.0471
-39.8116
-41.5138
-39.524
-37.2128
-40.9212
-39.0239
-37.355
-37.2107
-36.9311
-37.7767
-45.1602
-42.1807
-43.9886
-42.4635
-73.1631
-85.6274
-73.0305
-91.8359
-106.321
-83.8464
-87.312
-71.2261
-40.7756
-43.5402
-41.532
-40.9377
-38.7365
-40.0049
-39.9213
-40.2981
-88.5441
-75.5517
-79.9073
-68.2493
-107.707
-82.3668
-84.569
-69.9968
-88.7362
-75.4968
-78.9845
-67.0565
-37.9001
-39.5697
-38.626
-39.2895
-38.5327
-42.0053
-39.7054
-39.0964
-74.7192
-63.8434
-64.5069
-57.076
-74.7753
-63.7767
-64.4961
-57.0182
-28.6539
-27.6285
-32.6391
-29.3378
-28.5541
-27.6977
-32.6665
-29.4019
-83.0435
-70.8287
-61.3527
-53.057
-8.92345
0.715884
-8.71338
0.988777
-8.54925
1.20948
-8.46533
1.24379
-82.5955
-70.7693
-61.1188
-52.6756
181.383
178.906
185.977
193.293
97.9976
85.4833
155.525
126.491
89.2133
97.1081
141.544
151.321
179.287
177.761
193.567
185.318
-37.7477
-38.3638
-37.8354
-38.4895
-35.8005
-36.584
-32.6741
-37.098
-43.8566
-43.6296
-41.649
-38.4817
-44.6619
-47.0589
-43.1308
-44.7502
-38.1204
-38.7356
-38.266
-38.9072
-44.7757
-47.1633
-43.6011
-45.013
-44.2092
-45.2894
-43.2718
-38.9391
-37.1132
-38.5359
-33.53
-38.1626
-40.8661
-42.4169
-40.2775
-41.6219
-42.5214
-40.99
-41.7
-40.3831
-35.4731
-35.4344
-36.0188
-36.2014
-35.2337
-35.3436
-36.0474
-35.9293
-114.682
-19.5888
-120.117
-95.448
-57.1861
-57.1268
-63.3672
-62.5874
-57.104
-57.1375
-62.587
-63.3507
-18.0289
-113.956
-96.631
-124.158
-37.5446
-37.76
-37.7329
-37.8083
-40.4976
-34.025
-38.1528
-36.9998
-40.7789
-41.0514
-40.0761
-40.0805
-39.982
-39.4088
-39.4393
-39.0339
-36.3808
-36.5772
-36.4643
-36.5709
-39.098
-38.5307
-38.3028
-38.097
-41.2614
-41.3963
-40.4363
-40.2874
-41.291
-34.82
-38.6618
-37.7713
-36.5119
-36.5461
-36.85
-36.7151
-36.364
-36.3388
-36.7183
-36.6106
-35.121
-34.0657
-33.6316
-34.7518
-35.2575
-34.1323
-33.7219
-34.8377
-47.5801
-48.3684
-47.8928
-48.7094
-51.1073
-55.7519
-54.5836
-52.8287
-50.6293
-55.8761
-54.4194
-53.1047
-47.4836
-48.2798
-47.8516
-48.6708
-39.7517
-34.9422
-37.1488
-32.7354
-34.5795
-39.6763
-32.5639
-36.9917
-42.6466
-41.961
-41.5658
-40.8142
-42.0403
-42.7139
-40.9245
-41.6971
-76.1009
121.649
-110.256
43.7151
-99.8163
-90.2961
-56.4037
-42.2874
-44.1776
-44.323
-48.9053
-43.436
-101.369
148.644
-71.6215
110.531
-88.8435
-91.801
-47.8046
-43.2219
-44.9573
-42.9217
-42.3676
-51.6485
-111.618
42.8434
-90.0596
129.242
-98.0218
-90.6525
-44.0698
-44.3735
-56.7534
-42.2918
-49.4628
-43.8083
-72.5456
98.2492
-101.753
151.217
-85.2182
-92.8128
-44.6377
-42.8195
-48.7417
-43.0643
-42.9565
-51.6905
-43.6274
-26.3709
-38.6703
-41.2668
-39.909
-41.8477
-39.7726
-44.8378
-36.6988
-35.5668
-28.0126
-32.9713
-31.0915
-38.1319
-34.5135
-36.1193
-38.9523
-25.8436
-44.7855
-50.9281
-52.4888
-75.9329
-11.6689
-39.3815
-41.1409
-43.7594
-41.3063
-40.8871
-44.6004
-47.9203
-47.9131
-45.6599
-43.4897
-26.1249
-39.5712
-44.9648
-38.9182
-41.4663
-40.2718
-42.3173
-35.6957
-35.1694
-34.5905
-35.3099
-30.1277
-33.7821
-34.3815
-36.7603
-38.1563
-25.1808
-10.4886
-39.8295
-44.8804
-51.8852
-53.3468
-75.5659
-41.0433
-43.6727
-47.9624
-45.6
-41.868
-40.7292
-44.1085
-48.4068
-84.2241
105.355
-112.679
119.384
-129.086
-128.418
169.058
153.706
-107.701
-17.3532
-107.513
-24.7933
-88.8352
-88.8349
110.142
112.765
-54.2046
-48.4347
-36.1645
-33.6865
-50.3534
-43.9204
-44.5357
-37.6805
-49.5331
-40.8984
-48.3186
-41.3505
-41.0173
-41.3756
-40.3646
-40.8909
-35.3786
-30.0425
-35.3391
-30.6347
-34.7536
-34.7755
-23.5977
-23.4924
-38.7198
-36.2673
-36.9619
-36.9054
-37.8296
-40.1049
-37.5656
-39.525
-84.402
79.0849
-84.4504
75.7427
-93.3657
-92.755
99.2481
97.5133
-53.1444
-48.3736
-36.8336
-27.6685
-41.4764
-49.6096
-38.6252
-27.0165
-43.0091
-43.6946
-42.9934
-43.7148
-43.8586
-43.8222
-42.348
-42.3814
-41.2866
-43.8181
-40.8006
-42.9973
-40.7963
-40.5575
-45.4987
-46.5191
-97.6406
109.705
-117.46
131.343
-127.281
-126.61
154.329
168.204
-53.8255
-48.5563
-37.7792
-33.8661
-51.2248
-42.1053
-45.078
-36.9207
-50.0177
-40.8712
-49.5383
-41.2578
-42.5667
-41.8237
-40.3286
-40.8811
-35.9999
-35.7117
-35.7274
-36.3352
-36.3222
-36.5885
-37.0314
-39.4572
-53.7023
-47.8483
-35.2114
-27.0134
-48.6845
-39.62
-26.8064
-38.1561
-41.3075
-44.0242
-40.3187
-42.8892
-40.0032
-40.5997
-46.7023
-45.3732
-36.4782
-36.992
-33.8741
-34.5638
-36.5523
-35.2851
-37.3454
-36.0366
-43.2097
-41.7877
-43.0667
-44.5164
-42.0965
-41.6251
-39.9861
-41.0417
-42.339
-45.3588
-42.3898
-45.4371
-29.7525
-29.7744
-44.2273
-44.2555
-34.8126
-38.1977
-39.0478
-38.9474
-36.3305
-38.2782
-38.3477
-39.0407
-35.9864
-36.8451
-35.9923
-36.8054
-35.4665
-35.4539
-36.6873
-36.6634
-51.4247
-61.1796
-45.4153
-51.8888
-45.1849
-47.5879
-65.341
-58.6802
24.2065
47.0423
24.3411
47.2444
20.3265
20.4118
35.2854
35.4435
-55.1909
-51.6986
-55.1811
-51.6742
-57.9703
-57.9629
-50.9676
-50.9573
-36.8489
-37.2664
-34.4564
-34.9746
-37.0338
-35.8773
-37.5573
-36.2881
-43.4682
-41.9963
-43.2675
-44.7685
-41.9427
-42.307
-40.2982
-41.541
-36.8007
-37.1905
-39.5322
-38.7064
-39.1738
-37.427
-37.2045
-37.9806
-51.9213
-61.5725
-46.1462
-52.48
-48.3545
-45.8879
-59.2302
-66.4533
-62.644
-62.3895
-55.5926
-46.5437
-45.8667
-54.2617
-43.6977
-43.3307
-62.08
-61.4087
-54.8557
-45.4638
-53.6339
-44.2181
-42.4739
-42.7785
-51.6098
-51.5994
-46.6857
-39.2962
-46.6342
-39.2586
-35.9716
-35.9775
-35.1634
-35.0629
-30.0172
-14.9658
-14.7492
-30.3212
-5.60899
-5.54129
194.757
184.679
199.468
200.737
184.656
188.476
187.563
195.594
-38.0073