# vtk DataFile Version 2.0
tri_press
ASCII
DATASET UNSTRUCTURED_GRID
POINTS 3682 float
-0.84184 0.485 -2.415
-0.803307 0.485 2.445
-0.812961 0.995 -2.415
-0.685 1.53068 2.215
0.841694 0.485 -2.415
0.802664 0.485 2.445
0.812966 0.995 -2.415
0.685 1.53042 2.215
-0.837847 0.476149 -0.795
-0.862689 0.438462 0.825
-0.782761 1.18601 -0.871667
-0.754886 1.37935 0.671667
0.837569 0.476115 -0.795
0.862443 0.438231 0.825
0.78162 1.18478 -0.871667
0.754803 1.37909 0.671667
-1.64461 0.0448179 -3.63674
-1.64863 0.116435 -2.37145
-1.64406 0.0957908 -0.749467
-1.644 0.0265777 0.887945
-1.60966 0.0382911 2.51123
-1.5997 0.106941 3.78289
-1.60511 0.193374 5.04276
-1.6462 0.37226 -3.6643
-1.64774 0.465933 -2.40739
-1.63765 0.488436 -0.800321
-1.63289 0.473468 0.813644
-1.578 0.517333 2.42218
-1.58026 0.587626 3.69276
-1.59556 0.66811 4.95513
-1.63349 0.970968 -3.69791
-1.62065 1.05609 -2.43782
-1.5902 1.21809 -0.883022
-1.55023 1.38289 0.666346
-1.48858 1.5146 2.22261
-1.5316 1.57599 3.49636
-1.57367 1.63243 4.7711
-1.61847 2.02205 -3.80596
-1.60904 2.13762 -2.55736
-1.58942 2.36231 -1.02741
-1.5649 2.62155 0.486004
-1.5484 2.82526 2.01675
-1.55625 2.92858 3.26703
-1.57644 2.99848 4.5334
-0.828285 0.0575764 -3.64169
-0.832631 0.135408 -2.37866
-0.82904 0.0938331 -0.748499
-0.842787 -0.000912019 0.897637
-0.821597 0.00943868 2.52817
-0.818849 0.088066 3.79438
-0.82536 0.182185 5.04942
-0.832814 0.375788 -3.66583
-0.813383 0.573869 3.70224
-0.823247 0.66059 4.96015
-0.824697 0.945423 -3.68843
-0.776501 1.58131 3.49484
-0.810787 1.63497 4.77078
-0.816685 1.99715 -3.79659
-0.811959 2.1103 -2.54703
-0.801195 2.34669 -1.02119
-0.789049 2.62511 0.485257
-0.782733 2.83867 2.01141
-0.791606 2.94117 3.2617
-0.808447 3.00767 4.52952
0.825289 0.057406 -3.64169
0.836375 0.13531 -2.37866
0.840173 0.0937176 -0.748499
0.84414 -0.00111226 0.897637
0.800167 0.00933975 2.52817
0.762966 0.0879244 3.79438
0.743471 0.181995 5.04942
0.82068 0.375647 -3.66583
0.742109 0.573736 3.70224
0.729884 0.660398 4.96015
0.807518 0.945243 -3.68843
0.702765 1.58109 3.49484
0.712872 1.63475 4.77078
0.791229 1.99675 -3.79659
0.785865 2.10982 -2.54703
0.774409 2.34613 -1.02119
0.755774 2.62469 0.485257
0.73502 2.83835 2.01141
0.726958 2.94088 3.2617
0.723041 3.0074 4.52952
1.6474 0.044372 -3.63674
1.65711 0.116016 -2.37145
1.65733 0.0953557 -0.749467
1.65479 0.02615 0.887945
1.60509 0.0379662 2.51123
1.56051 0.106596 3.78289
1.53578 0.192969 5.04276
1.64262 0.371821 -3.6643
1.65267 0.465452 -2.40739
1.64423 0.487874 -0.800321
1.64376 0.473019 0.813644
1.58481 0.517019 2.42218
1.53628 0.587282 3.69276
1.51836 0.667701 4.95513
1.62366 0.970428 -3.69791
1.62178 1.05537 -2.43782
1.59234 1.21676 -0.883022
1.55784 1.38227 0.666346
1.49349 1.51412 2.22261
1.48419 1.57554 3.49636
1.49146 1.63197 4.7711
1.59647 2.02124 -3.80596
1.58755 2.13668 -2.55736
1.56792 2.36127 -1.02742
1.53888 2.62073 0.486003
1.50925 2.82462 2.01675
1.49883 2.92799 3.26703
1.49714 2.99791 4.5334
-0.837054 0.74 -2.42465
-7.30157e-05 0.442401 -2.4576
-0.876285 0.444133 -1.605
-0.796244 1.00784 2.38209
-0.000321507 0.467402 2.4626
-0.834844 0.459886 1.635
2.5034e-06 1.04368 -2.46368
-0.77786 1.07051 -1.64333
0 1.51534 2.19979
-0.721276 1.45635 1.44333
0.836733 0.74 -2.4244
0.876226 0.443963 -1.605
0.79705 1.00771 2.38322
0.834422 0.459747 1.635
0.777889 1.07049 -1.64333
0.720452 1.45531 1.44333
-0.835098 0.472475 0.015
-0.893064 0.831081 -0.833333
-0.000138628 0.369917 -0.795
-0.889558 0.908907 0.748333
-0.000122923 0.391638 0.825
-0.75818 1.27204 -0.1
-0.000570416 1.59921 -0.871667
-4.14507e-05 1.65205 0.671667
0.832029 0.47515 0.015
0.89287 0.830449 -0.833333
0.889547 0.908662 0.748333
0.754855 1.26858 -0.1
-0.894238 0.785541 -1.62417
0.894259 0.785224 -1.62417
-0.000105822 0.370444 -1.605
-0.000283956 1.11769 -1.64333
-3.52561e-05 0.74 -2.47875
-0.890885 0.869994 -0.0425
0.886502 0.869556 -0.0425
-0.000130776 0.378755 0.015
-0.000305933 1.64127 -0.1
-0.869912 0.958374 1.53917
0.870014 0.958186 1.53917
-0.000222215 0.436467 1.635
-2.07253e-05 1.67112 1.44333
-0.000160754 1.00777 2.36321
-0.823198 0.6125 -2.40358
-0.420957 0.448862 -2.45114
-0.871351 0.452278 -2.01
-0.808998 0.74642 2.42277
-0.401814 0.473607 2.45639
-0.80866 0.482858 2.04
-0.835538 0.8675 -2.43036
-0.406479 1.03465 -2.45465
-0.806092 1.04343 -2.02917
-0.764594 1.26926 2.32252
-0.3425 1.51719 2.20158
-0.705813 1.49619 1.82917
0.42081 0.448591 -2.45141
0.823306 0.6125 -2.40379
0.871271 0.45217 -2.01
0.401171 0.473611 2.45639
0.808407 0.746355 2.42266
0.808359 0.482558 2.04
0.406484 1.0346 -2.4546
0.835613 0.8675 -2.43047
0.806081 1.0434 -2.02917
0.3425 1.51694 2.20145
0.765623 1.26906 2.32371
0.705012 1.49515 1.82917
-0.844025 0.473182 -1.2
-0.834734 0.476051 -0.39
-0.886542 0.643072 -0.814167
-0.445174 0.37067 -0.795
-0.844557 0.453384 1.23
-0.831322 0.47304 0.42
-0.88603 0.668731 0.786667
-0.442546 0.392771 0.825
-0.757484 1.10543 -1.2575
-0.843821 1.0115 -0.8525
-0.779938 1.23849 -0.485833
-0.487755 1.58479 -0.871667
-0.734785 1.41455 1.0575
-0.822531 1.14428 0.71
-0.753027 1.32219 0.285833
-0.438942 1.63866 0.671667
0.843937 0.472999 -1.2
0.444847 0.370752 -0.795
0.834444 0.475987 -0.39
0.886254 0.642764 -0.814167
0.844148 0.453274 1.23
0.44404 0.389174 0.825
0.828277 0.475649 0.42
0.886108 0.66839 0.786667
0.756939 1.10482 -1.2575
0.486946 1.58484 -0.871667
0.84368 1.01083 -0.8525
0.779612 1.23806 -0.485833
0.733531 1.4131 1.0575
0.438915 1.63864 0.671667
0.822464 1.14402 0.71
0.749721 1.31873 0.285833
-0.887456 0.76277 -2.02441
-0.418545 0.74 -2.39207
-8.94188e-05 0.387006 -2.0313
-5.41359e-05 0.591201 -2.44857
-0.894848 0.614837 -1.61458
-0.438195 0.370443 -1.605
-0.857442 0.983107 1.96063
-0.398202 1.00781 2.39417
-0.000271861 0.451431 2.0488
-0.000241131 0.737589 2.42734
-0.895617 0.70913 1.58708
-0.417533 0.436472 1.635
-0.000140726 1.0925 -2.05351
-1.63764e-05 0.89184 -2.48799
-0.863219 0.928023 -1.63375
-0.389072 1.10429 -1.64333
-1.03627e-05 1.67006 1.82156
-8.03769e-05 1.26156 2.28913
-0.805878 1.20736 1.49125
-0.360648 1.65617 1.44333
0.887509 0.762612 -2.02428
0.418349 0.74 -2.39209
0.894849 0.614594 -1.61458
0.43806 0.370444 -1.605
0.857517 0.982948 1.96119
0.398445 1.00774 2.39432
0.89561 0.708967 1.58708
0.4171 0.43647 1.635
0.863314 0.927856 -1.63375
0.388802 1.10431 -1.64333
0.804623 1.20675 1.49125
0.360216 1.65572 1.44333
-0.886317 0.659572 -0.01375
-0.441292 0.378261 0.015
-0.891502 0.808311 -1.22875
-0.890335 0.850538 -0.437917
-0.000122225 0.363776 -1.2
-0.000134702 0.37072 -0.39
-0.889291 0.889451 0.352917
-0.884643 0.93364 1.14375
-0.000126849 0.382115 0.42
-0.000172569 0.414398 1.23
-0.826959 1.07223 -0.07125
-0.464961 1.62809 -0.1
-0.000427186 1.17664 -1.2575
-0.000438175 1.63596 -0.485833
-0.000173692 1.64674 0.285833
-3.1088e-05 1.66528 1.0575
0.88198 0.660996 -0.01375
0.440164 0.378522 0.015
0.89152 0.807837 -1.22875
0.890157 0.850002 -0.437917
0.885038 0.889109 0.352917
0.884792 0.933424 1.14375
0.8234 1.07043 -0.07125
0.46387 1.62812 -0.1
-0.88767 0.613668 -2.01721
-0.884471 0.634226 -1.21438
-0.851129 0.968285 -1.24313
-0.873969 0.897762 -2.02679
0.887671 0.613547 -2.01714
0.874049 0.897678 -2.02673
0.851256 0.967736 -1.24313
0.884445 0.633938 -1.21438
-0.429576 0.386678 -2.02065
0.429435 0.386678 -2.02065
0.428388 0.363777 -1.2
-0.428594 0.363702 -1.2
-0.397776 1.07978 -2.04134
-0.390369 1.15639 -1.2575
0.389664 1.15638 -1.2575
0.397643 1.08056 -2.04134
-0.419751 0.60185 -2.42876
-0.412512 0.87967 -2.40138
0.412417 0.87967 -2.39976
0.41958 0.60185 -2.42875
-0.887776 0.650648 -0.413958
-0.889115 0.662681 0.386458
-0.825109 1.10844 0.319375
-0.84097 1.04466 -0.461875
0.887466 0.650205 -0.413958
0.840775 1.04425 -0.461875
0.821213 1.10637 0.319375
0.884788 0.664321 0.386458
-0.444471 0.371989 -0.39
0.443664 0.372322 -0.39
0.442458 0.383136 0.42
-0.443377 0.382599 0.42
-0.483861 1.62145 -0.485833
-0.451957 1.63338 0.285833
0.451387 1.63337 0.285833
0.482929 1.62152 -0.485833
-0.895932 0.691407 1.18688
-0.882802 0.727775 2.00031
-0.79756 1.23831 1.8949
-0.812703 1.17575 1.10063
0.895933 0.691207 1.18688
0.811879 1.17531 1.10063
0.796356 1.23791 1.89518
0.88282 0.727661 2.0006
-0.424469 0.414358 1.23
0.42413 0.414394 1.23
0.409135 0.456253 2.0444
-0.409674 0.455976 2.0444
-0.369056 1.65197 1.0575
-0.351574 1.65596 1.82536
0.351358 1.65587 1.82536
0.368798 1.65261 1.0575
-0.400008 0.742004 2.42655
0.399808 0.741972 2.42676
0.370472 1.26531 2.28733
-0.370351 1.26541 2.28725
-0.835911 0.54875 -2.41268
-0.631398 0.453103 -2.4469
-0.869587 0.455647 -2.2125
-0.829028 0.61571 2.45676
-0.602561 0.473297 2.4567
-0.816997 0.472915 2.2425
-0.828499 0.93125 -2.42693
-0.60972 1.01639 -2.43639
-0.815853 1.02554 -2.22208
-0.72495 1.39997 2.26891
-0.51375 1.51682 2.20118
-0.699111 1.51714 2.02208
0.631252 0.452881 -2.44712
0.835695 0.54875 -2.41259
0.869738 0.455329 -2.2125
0.601918 0.473269 2.45673
0.828739 0.615678 2.45703
0.816273 0.473017 2.2425
0.609725 1.01704 -2.43704
0.828462 0.93125 -2.42691
0.815846 1.02552 -2.22208
0.51375 1.51672 2.20127
0.725628 1.39974 2.26967
0.698912 1.51669 2.02208
-0.839757 0.475845 -0.9975
-0.836035 0.476355 -0.5925
-0.866027 0.557694 -0.804583
-0.667685 0.37106 -0.795
-0.849427 0.450119 1.0275
-0.829661 0.473096 0.6225
-0.887025 0.547264 0.805833
-0.66376 0.393332 0.825
-0.787154 1.16276 -1.06458
-0.820975 1.1026 -0.862083
-0.779377 1.21028 -0.67875
-0.684099 1.48308 -0.871667
-0.739015 1.39113 0.864583
-0.794205 1.26457 0.690833
-0.751323 1.34814 0.47875
-0.637774 1.59073 0.671667
0.839484 0.475826 -0.9975
0.667299 0.371252 -0.795
0.835749 0.476308 -0.5925
0.865718 0.557536 -0.804583
0.849199 0.449849 1.0275
0.66046 0.399265 0.825
0.826548 0.475752 0.6225
0.886973 0.546962 0.805833
0.786957 1.16248 -1.06458
0.683601 1.48345 -0.871667
0.820939 1.10195 -0.862083
0.779914 1.21072 -0.67875
0.737827 1.38976 0.864583
0.637705 1.59056 0.671667
0.793975 1.26423 0.690833
0.748024 1.34467 0.47875
-0.827631 0.67625 -2.41162
-0.83602 0.80375 -2.42723
-0.883337 0.751385 -2.22453
[...]
POINT_DATA 3682
SCALARS point_scalars float 1
LOOKUP_TABLE default
-101.045
-59.1912
-131.751
-49.4006
-101.56
-58.1288
-132.21
-47.2616
-40.877
-42.274
-77.1957
-42.8994
-40.9151
-42.4802
-77.079
-42.3509
-45.3698
-142.533
-40.8737
-44.2682
-54.237
-59.0159
-52.7884
-45.3698
-149.735
-42.82
-39.7596
-57.1361
-54.2456
-54.2456
-72.2429
-139.655
-54.998
-41.9076
-47.8841
-48.2828
-50.3376
-96.4904
-150.343
-137.96
-43.6143
-45.1725
-49.5874
-49.5874
17.4139
-141.409
-40.1904
-48.2227
-55.4159
-51.3813
-50.1652
84.3558
-49.74
-49.74
116.265
-48.2731
-47.4433
-9.62948
-128.821
-146.265
-45.4887
-44.6962
-46.1535
-44.3159
18.0976
-141.528
-40.2567
-48.3995
-55.1178
-50.4283
-50.4283
84.4628
-48.8509
-48.7382
117.202
-44.1001
-46.2782
-18.456
-118.392
-158.37
-45.3211
-42.9987
-44.4079
-42.2368
-45.1781
-142.383
-40.9266
-44.3985
-52.7723
-57.8073
-51.8175
-45.2351
-150.251
-42.8662
-39.7574
-56.0265
-53.1803
-48.7881
-72.0628
-139.579
-55.1074
-41.3107
-46.1583
-46.5152
-49.158
-96.7756
-149.98
-134.387
-43.6672
-43.6589
-47.4339
-47.4339
-29.5509
-116.245
-50.2488
-50.1794
-51.6296
-45.7023
-95.9474
-27.8019
-30.3603
-41.9638
-38.4171
-50.5327
-48.7493
-45.6359
-27.8001
-41.4714
-38.2746
-48.4101
-44.8463
-39.3424
-43.6083
-52.0311
-116.176
-45.0675
-37.6244
-48.4632
-38.6184
-51.9124
-46.5766
-46.6343
-65.5621
6.45135
202.368
-42.1631
-41.6142
-40.5131
-65.199
-42.3638
-41.8746
-44.3375
-42.3677
-44.9124
-89.5591
-98.9166
-69.5113
-52.7019
-53.6967
-43.8755
-58.483
-126.729
-51.7049
-47.6728
-37.9997
-43.266
-94.9934
-89.7096
-69.5295
-53.0099
-51.6028
-43.5592
-131.372
-58.5751
-51.7735
-35.9302
-45.7836
-42.1696
-45.7243
-39.2161
-42.9445
-43.7307
-42.5325
-37.2977
-37.64
-43.2234
-44.1964
-60.2288
-61.3405
-117.107
-41.6495
-41.2613
-43.9071
-44.2417
-45.9621
-43.7309
-39.3173
-42.979
-42.4939
-43.5932
-36.3258
-37.0401
-44.0447
-118.904
-60.3209
-61.36
-41.2233
-44.0286
-40.5219
-43.2182
-72.6017
192.08
-94.7761
188.6
-48.7731
-62.1379
-45.3669
-47.0781
-46.3053
-47.875
-44.3381
-44.4374
-29.8645
193.986
-38.8271
-0.635155
-41.1343
-35.0703
-42.2169
-42.4669
-72.6277
192.341
-48.8586
-62.2073
-44.4281
-45.5093
-43.9455
-44.2735
-38.8264
-0.637701
-41.6859
-42.1305
-39.0856
-39.9114
-46.216
-45.9605
-52.6845
-42.1555
-39.6552
-40.8472
-41.8207
-43.7933
-46.9248
-61.2029
30.9227
-93.7852
-52.0033
-42.9439
-38.546
-39.846
-46.2601
-46.2031
-38.9026
-40.5976
-46.7344
-61.1105
-74.3377
-45.0106
-51.7358
-63.5482
-74.3752
-63.592
-51.804
-45.0373
-89.2131
-89.2473
-51.3785
-51.4031
-33.1214
21.21
21.168
-33.1755
187.267
191.353
192.838
186.586
-41.439
-38.0277
-41.9018
-53.5525
-41.6647
-53.8357
-41.2123
-37.2476
-41.4179
-41.3878
-41.1614
-41.2666
-86.6258
-49.6552
-49.4667
-86.6038
-41.1283
-45.2904
-44.6214
-41.2493
-40.9654
-40.9239
-43.5353
-44.6673
-43.5186
-43.4067
-45.9083
-46.0009
-42.6016
-42.2443
-41.5359
-42.5824
-48.2105
-47.5993
-37.8526
-40.7993
-85.8702
-61.0867
-104.013
-54.6814
-54.8979
-48.3876
-87.5981
-93.9452
-85.3474
-46.7543
-41.0315
-44.4921
-61.1145
-85.3783
-103.936
-53.9282
-53.5785
-47.7762
-93.8381
-87.7091
-85.2576
-38.9254
-44.7475
-42.9044
-41.1311
-39.9103
-41.7052
-41.7306
-41.9625
-35.7001
-36.7737
-44.8169
-88.3758
-67.838
-67.88
-142.13
-42.3981
-42.2506
-42.4132
-43.4073
-40.8487
-41.8047
-39.8946
-41.753
-41.9018
-44.4864
-34.9027
-36.4136
-88.6593
-138.89
-67.8893
-68.1566
-42.2798
-43.1014
-41.6136
-41.6553
-113.309
-35.1484
-114.197
172.673
-113.792
-111.727
-138.778
108.456
-57.7456
-47.5607
-49.1858
-57.3031
-51.9624
-49.689
-48.878
-47.2996
-52.5826
-52.2222
-48.462
-48.3624
-44.5113
-43.2307
-45.3633
-44.7743
-129.695
-131.496
-64.1407
119.919
-36.9493
-25.1498
-40.1423
-9.67456
-33.243
-31.973
-39.1759
-29.0979
-42.3938
-41.8107
-42.0865
-42.1603
-102.243
-35.1146
-114.189
172.553
-57.8194
-47.4397
-49.3152
-57.4356
-50.8228
-47.9762
-47.5835
-45.845
-44.1404
-43.0922
-45.0546
-44.3764
-37.0431
-25.1073
-40.137
-9.65546
-41.7059
-41.4417
-41.5617
-41.7659
-37.9787
-37.83
-38.6419
-39.0529
-45.0663
-54.2957
-47.7317
-47.716
-44.5574
-44.5621
-48.1028
-42.9737
-38.4434
-40.4327
-39.2283
-39.9345
-43.5221
-43.5571
-42.9381
-43.8657
-56.8542
-46.3709
-49.5511
-54.7463
-112.099
-112.235
69.3914
-119.159
-44.8765
-44.7677
-48.0443
-43.3084
-38.3698
-37.2625
-38.1062
-38.9065
-45.1173
-54.3649
-47.7452
-47.8422
-37.794
-39.6669
-38.0948
-39.7533
-56.8615
-45.8792
-49.4917
-54.9813
-54.8286
-48.0548
-44.824
-45.0539
-54.8763
-48.1169
-44.8523
-45.064
-76.3214
-64.7199
-64.7956
-58.1708
-9.79714
4.74223
4.74344
19.1094
201.725
196.328
202.431
201.762
-40.1641
-44.3559
-40.641
-45.0354
-39.6455
-45.0592
-40.0416
-44.6747
-40.3672
-40.6844
-40.9504
-40.3558
-64.2329
-76.3702
-57.4255
-64.19
-43.4278
-43.0634
-42.3319
-41.4957
-42.7073
-42.6337
-41.8018
-41.1276
-44.8167
-44.3812
-44.3074
-43.9829
-42.0239
-42.445
-42.3379
-42.9537
-46.1589
-48.107
-40.4129
-45.1554
-114.859
172.097
-134.322
125.172
-72.5734
-81.768
-50.1704
-48.1961
-48.4631
-48.2793
-44.8231
-45.4357
-98.6493
160.107
-66.5606
132.566
-60.4721
-40.2888
-46.5239
-42.6115
-42.5857
-37.6863
-44.0979
-42.9493
-134.388
116.141
-114.968
172.255
-72.6213
-81.845
-48.0783
-47.6474
-49.3517
-47.4356
-44.3087
-45.4568
-66.527
132.493
-98.7047
160.253
-60.5181
-40.2591
-41.3235
-34.9174
-44.9559
-40.2793
-42.9559
-42.0238
-45.3789
-49.945
-40.2509
-40.4423
-43.3294
-42.4201
-46.987
-42.0397
-41.5477
-42.9281
-37.5815
-40.1474
-37.4756
-39.729
-42.4776
-43.7482
-59.3366
3.71217
-59.3544
-57.1276
-57.7384
-73.4243
61.5102
-113.301
-41.4673
-41.9408
-41.0036
-41.3231
-42.8973
-46.3451
-46.5187
-42.6854
-45.3792
-49.9662
-46.911
-42.0516
-40.4624
-40.4244
-43.3005
-42.5355
-41.4081
-42.8299
-42.3543
-43.4625
-36.8129
-39.8789
-36.4548
-39.6248
-59.4061
3.69523
62.0989
-113.419
-59.4176
-57.2962
-57.8685
-73.4087
-41.0323
-41.8346
-46.3743
-42.5716
-40.1764
-41.1709
-42.2371
-45.6758
-74.4074
-70.4604
192.251
192.694
-93.0555
-93.1967
192.431
191.579
-57.1525
-47.077
-71.9171
-56.0385
-45.4532
-45.0551
-48.3405
-42.8169
-46.1506
-46.2551
-48.0882
-47.7272
-42.0216
-44.6862
-43.8581
-44.6802
-30.4537
-30.448
202.047
201.713
-41.677
-47.118
-14.8231
10.9995
-41.5009
-41.1359
-35.446
-37.5207
-43.297
-41.5991
-42.9091
-42.3325
-74.4366
-70.4916
193.11
192.397
-57.2182
-47.0707
-72.0464
-56.0684
-44.0738
-44.6981
-47.6471
-40.2167
-41.7486
-44.1471
-43.7454
-44.6284
-47.1704
-41.6537
11.018
-14.809
-41.2015
-42.563
-41.8694
-42.6826
-40.3103
-38.3967
-40.0332
-40.334
-45.2164
-47.3072
-43.3347
-50.4327
-52.3884
-52.3824
-41.9969
-41.9831
-38.7573
-40.867
-40.8307
-40.9205
-41.6587
-41.7075
-43.7473
-43.6946
-43.7594
-51.8327
-71.359
-54.4495
28.5964
28.6675
-92.4715
-92.4508
-51.4169
-51.362
-42.9194
-42.8636
-40.9199
-37.7445
-39.9953
-40.2445
-47.3803
-45.252
-43.5809
-50.7487
-40.123
-37.9755
-40.6413
-40.6457
-51.4999
-43.2592
-54.2416
-71.3184
-112.403
-57.4124
-56.6153
-117.332
-42.3398
-45.051
-45.818
-48.2874
-71.0843
-42.4774
-43.5481
-52.4809
-92.2186
-108.196
-52.6302
-46.2524
-112.441
-117.36
-56.671
-57.496
-92.2593
-46.2923
-52.6746
-108.223
-71.2571
-52.5047
-43.5892
-42.4381
-42.2967
-48.1756
-45.8195
-45.0431
-125.746
-137.434
-75.0749
-65.9944
-125.74
-66.0891
-75.218
-138.094
-45.073
-47.7864
-57.7057
-52.096
-45.4099
-52.011
-57.6677
-47.8029
-71.7145
-21.8689
-11.783
-65.8266
-36.1829
67.2208
17.2583
-2.1287
-35.6963
-2.10945
17.2049
67.1607
-71.6073
-65.8706
-11.7804
-21.7856
135.175
171.403
197.54
114.015
106.669
127.163
201.46
165.253
106.794
165.826
201.308
127.453
135.048
113.412
197.592
171.495
-41.062
-39.0768
-41.8189
-44.5911
-36.2665
-38.3743
-39.1879
-38.0094
-41.6967
-45.069
-42.383
-40.3266
-62.8314
-53.0834
-48.7247
-54.1998
-41.1701
-44.7161
-42.4667
-39.6238
-62.9975
-54.1603
-48.9941
-53.2304
-40.9187
-39.3619
-41.8708
-44.5798
-35.1745
-37.3795
-38.5565
-37.2556
-40.7575
-42.7495
-40.5178
-39.1499
-40.8232
-39.0877
-40.5002
-42.7539
-41.6643
-42.8178
-40.7746
-39.179
-41.5625
-39.3418
-40.8123
-42.8596
-93.1219
-65.8384
-75.2631
-119.801
-43.7573
-47.6906
-56.7649
-50.4983
-43.7206
-49.7579
-56.7226
-47.6436
-93.1784
-119.999
-75.2429
-65.9536
-40.23
-42.2266
-41.5654
-39.3688
-49.8822
-49.9236
-43.7291
-45.3512
-45.9264
-42.8718
-43.4736
-47.5854
-41.9054
-40.494
-41.5747
-41.6645
-40.1646
-39.2155
-41.2464
-41.9876
-41.88
-41.2986
-41.1682
-40.2958
-44.2916
-46.1036
-42.7385
-42.2238
-49.1512
-44.8813
-43.133
-48.9842
-42.4029
-43.8597
-43.9685
-43.7371
-42.1885
-43.5686
-43.9101
-43.7768
-48.3459
-48.1722
-44.8209
-44.3495
-48.7219
-44.5826
-44.8408
-48.3577
-41.9224
-42.4928
-43.0529
-43.186
-44.9604
-40.2897
-42.1876
-42.3715
-43.4555
-41.7574
-41.885
-39.625
-41.7561
-43.1387
-42.8792
-42.2002
-48.1367
-48.3552
-48.1613
-48.2044
-47.3465
-47.4363
-47.7403
-48.0017
-38.5114
-30.5046
-38.9561
-42.2954
-40.8805
-44.492
-40.7333
-32.3866
-79.6041
-50.5499
-144.595
-58.2372
-56.1971
-51.5948
-104.697
-83.4583
-118.647
-47.3407
-43.1679
-46.5606
-50.5307
-79.2259
-144.633
-55.0876
-57.0821
-50.7378
-84.9144
-104.939
-118.435
-41.1942
-45.2596
-44.7443
-41.0922
-40.3449
-41.2107
-40.2032
-43.3022
-31.5185
-37.172
-47.604
-82.1683
-72.365
-72.2526
-106.186
-43.8929
-42.6227
-41.8155
-43.4025
-41.0989
-40.2473
-40.4079
-41.2517
-43.3614
-47.7526
-31.0096
-37.1049
-82.545
-106.829
-72.3888
-72.2838
-43.8839
-42.9234
-42.0674
-40.7616
-119.666
-27.7029
-162.14
139.351
-112.867
-108.477
-185.693
20.6733
-53.051
-48.1039
-49.4311
-53.6139
-51.0655
-50.2902
-53.5266
-47.4163
-51.7754
-51.5874
-48.1216
-50.4166
-47.7017
-43.9799
-45.7158
-44.7201
-114.122
-115.556
-93.3317
38.6919
-31.718
-25.5792
-37.7901
-16.1253
-31.3552
-30.6728
-37.3828
-28.4046
-42.0475
-41.8417
-42.021
-42.2095
-127.105
-27.7649
-162.04
138.996
-53.1162
-48.6799
-49.6205
-53.8683
-49.8106
-48.7241
-52.0024
-46.1282
-47.1736
-43.8005
-45.4268
-44.4924
-31.7923
-25.5525
-37.7627
-16.1576
-41.4681
-41.4288
-41.5113
-41.7036
-37.9312
-38.0352
-38.4272
-38.1941
-46.5861
-50.9434
-48.2005
-48.236
-44.7662
-44.7698
-46.225
-43.7756
-38.7073
-40.1565
-39.2394
-39.4752
-43.5881
-43.5904
-43.2725
-43.7879
-55.8585
-48.2451
-50.6834
-54.1889
-115.4
-114.89
13.3815
-143.268
-45.0329
-44.9843
-46.4489
-43.9276
-37.7799
-37.5396
-37.8504
-37.5616
-46.6389
-51.0172
-48.2368
-48.3244
-37.9636
-39.4793
-37.8357
-39.2964
-56.0312
-47.8687
-50.4591
-54.1042
-49.6925
-47.4167
-46.0447
-45.3322
-49.7391
-47.4786
-46.0893
-45.3687
-70.3313
-65.3321
-65.3833
-61.5932
-1.33883
6.02441
6.02709
13.1691
201.522
202.048
202.886
201.568
-40.9497
-43.1096
-41.2389
-43.9046
-40.4058
-43.2107
-40.6868
-43.4867
-40.48
-40.5181
-40.6347
-40.4663
-64.9403
-70.1633
-61.1976
-64.9191
-43.0789
-42.498
-42.3052
-42.1568
-42.4741
-42.0323
-41.8192
-41.7223
-44.547
-44.3557
-44.3218
-44.1794
-42.1443
-42.3889
-42.3646
-42.635
-45.2064
-45.6323
-44.596
-44.8759
-83.443
-98.2442
-161.323
122.302
-82.2383
-107.662
-173.5
8.69059
-83.7751
-63.1487
-70.7913
-75.6081
-52.1341
-52.0892
-58.1599
-48.5342
-54.3156
-53.1208
-48.6633
-51.1034
-43.5817
-42.8361
-44.28
-44.7972
-75.0208
-39.3832
-136.749
150.824
-98.7454
-133.457
-104.911
28.2115
-64.8158
-43.1838
-58.6268
-43.8125
-47.7485
-48.5512
-48.7446
-43.5559
-39.8291
-35.4057
-43.9654
-37.4154
-43.5114
-42.6556
-43.5945
-42.9789
-82.1613
-106.26
-174.051
18.9138
-83.5616
-105.187
-161.623
122.548
-83.9103
-63.1815
-70.8466
-75.6592
-53.5947
-52.5709
-48.2422
-50.4211
-51.0482
-50.9984
-56.953
-47.6628
-43.2449
-42.6005
-43.8405
-44.5657
-98.8526
-118.378
-104.729
33.6544
-74.8803
-39.3021
-136.777
151.017
-64.9255
-43.2589
-58.6862
-43.7847
-37.6564
-33.6593
-42.0437
-34.9936
-45.6893
-46.7514
-46.8917
-41.4731
-42.1845
-41.8112
-42.4648
-41.9461
-42.0472
-53.2759
-45.9829
-46.8361
-39.567
-38.8417
-39.6305
-38.9386
-42.234
-43.8486
-43.1262
-42.7117
-42.9948
-44.2118
-45.0869
-42.7192
-42.5662
-42.5826
-42.239
-42.6244
-36.9805
-37.6399
-37.457
-38.3748
-37.4982
-38.2133
-37.3908
-38.1049
-43.2269
-43.4026
-43.0135
-43.5732
-73.6419
-27.244
-59.0791
-11.9368
-63.3874
-57.499
-60.583
-58.7767
-64.3029
-58.8869
-58.9916
-67.2471
-119.382
-112.323
18.3167
-138.824
-41.4479
-41.4489
-41.5333
-41.1521
-41.8052
-40.8989
-40.996
-41.4627
-43.0627
-44.9493
-43.3925
-44.6642
-44.1157
-44.5489
-45.3189
-43.3299
-41.8655
-52.97
-46.0623
-47.7044
-43.0165
-44.2134
-45.0596
-42.7447
-39.5793
-39.0248
-39.8108
-38.9652
-42.2722
-43.8965
-43.1237
-42.7897
-42.5513
-42.4722
-42.1391
-42.6015
-43.4398
-43.558
-42.7418
-43.6968
-36.2613
-36.9407
-36.6434
-37.3353
-36.8926
-37.6186
-36.1663
-37.9981
-73.5235
-27.181
-58.9304
-11.8699
-121.296
-114.706
18.7545
-138.687
-63.4721
-57.5888
-60.6476
-58.9053
-64.453
-58.8721
-59.0639
-67.1809
-41.1411
-41.0577
-41.0049
-41.0187
-43.8675
-44.3736
-45.1481
-43.1107
-41.1405
-40.0267
-39.7868
-41.3025
-42.3325
-44.3891
-42.6999
-44.0005
-87.0188
-62.1062
-73.7753
-71.7209
189.324
198.903
192.679
192.493
-110.651
-83.9753
-94.101
-94.2296
163.521
190.58
191.376
190.284
-49.1437
-48.4253
-51.9534
-47.1177
-59.9368
-63.6812
-66.3143
-58.772
-46.8989
-44.4089
-45.1898
-45.2463
-47.3573
-46.6069
-47.7287
-45.3254
-47.5943
-45.246
-46.2253
-46.2774
-47.4938
-47.9236
-48.0777
-47.8987
-44.8761
-43.7105
-42.9005
-45.1664
-44.5533
-44.4063
-44.1729
-44.9206
-43.0161
-19.6862
-29.8981
-29.8908
163.804
199.102
201.377
201.332
-39.9579
-41.7902
-38.868
-41.7474
-4.62541
2.70081
-7.6279
5.6794
-40.4478
-41.7445
-41.286
-41.1085
-31.7675
-36.533
-35.1487
-36.276
-42.1594
-42.2361
-42.6627
-41.8665
-42.3894
-42.4817
-42.649
-42.346
-87.0421
-62.14
-73.8051
-71.7484
189.475
199.086
192.837
193.127
-49.2493
-48.4974
-52.0271
-47.1616
-60.0239
-63.7543
-66.3945
-58.8274
-45.7972
-43.5881
-44.2871
-44.3423
-45.7873
-45.2226
-46.6485
-43.2042
-44.6434
-43.2899
-42.5811
-44.7021
-44.3372
-44.2767
-44.051
-44.5589
-39.965
-41.8179
-41.7922
-38.8581
-4.62208
2.68988
5.66458
-7.61938
-41.6224
-41.7126
-41.4118
-42.0353
-41.9807
-42.2498
-41.9367
-42.3848
-38.7828
-39.5513
-39.6533
-38.6812
-39.544
-40.1805
-39.8762
-40.0281
-46.9484
-45.3905
-45.4377
-46.9611
-46.8192
-44.9394
-44.5454
-48.0341
-50.5676
-55.3709
-52.6193
-52.6136
-42.4083
-41.3895
-42.1123
-42.1047
-39.2872
-39.9932
-39.1755
-40.5436
-40.3735
-41.2796
-40.7805
-40.8189
-42.215
-41.4819
-41.7772
-41.8019
-43.8311
-43.9117
-43.7891
-43.7627
-48.3722
-45.7368
-45.1224
-49.6291
-57.9854
-63.0832
-65.8941
-57.5443
52.0549
24.7078
29.9176
30.045
-105.017
-84.0375
-93.5526
-93.5255
-49.8591
-54.469
-51.8708
-51.8571
-42.9979
-43.0707
-42.9461
-42.924
-38.2326
-39.0347
-39.6776
-38.0761
-39.4506
-40.1351
-39.8201
-39.9499
-46.971
-45.4102
-47.0168
-45.485
-46.9924
-45.2721
-44.7964
-48.2723
-38.4057
-39.2877
-39.7935
-38.4123
-40.1643
-40.9722
-40.5715
-40.5533
-48.4008
-45.3329
-49.2983
-44.7354
-57.9214
-63.0092
-57.3853
-65.8342
-87.5912
-73.712
-74.4838
-64.3302
-45.0072
-43.9442
-46.582
-45.0937
-55.4884
-56.0216
-45.7034
-48.0446
-77.1087
-61.1334
-66.8874
-54.2062
-87.6769
-73.7518
-74.5166
-64.3864
-77.1425
-61.1714
-66.9313
-54.2536
-55.5298
-56.0925
-45.6854
-48.0836
-45.0142
-43.951
-46.5872
-45.1245
-104.841
-85.9393
-91.5745
-79.103
-104.922
-85.921
-91.6412
-79.2464
-50.7
-49.4498
-53.7792
-51.9719
-50.7567
-49.5442
-53.7784
-51.9751
-47.8557
-36.3997
-31.4723
-23.175
14.258
43.76
16.3776
25.8127
14.2821
43.815
16.2925
25.8968
-47.7841
-36.4741
-31.4768
-23.1852
182.988
169.016
185.66
190.173
185.386
178.393
190.896
193.833
178.512
185.771
196.696
194.304
168.476
183.377
189.7
185.362
-40.7196
-42.0041
-40.8916
-42.3493
-37.753
-37.7424
-38.1285
-38.3573
-41.5496
-42.3976
-41.3134
-42.7308
-55.3018
-55.9033
-51.8949
-51.8392
-40.9639
-42.1581
-41.2131
-42.59
-55.5052
-56.099
-52.2255
-52.3898
-40.7746
-41.7338
-40.5893
-42.1059
-36.9654
-36.8504
-37.3981
-37.5773
-41.0229
-41.6027
-40.6788
-41.7791
-41.5899
-40.9921
-41.7586
-40.6458
-41.5655
-40.7133
-41.4487
-40.8504
-40.8507
-41.6824
-40.9347
-41.5265
-80.5967
-98.3381
-78.0276
-90.2796
-48.1152
-47.9408
-51.8485
-50.756
-47.7769
-47.8298
-50.6213
-51.6304
-98.3636
-80.5702
-90.2665
-78.0196
-41.3503
-40.8148
-41.4723
-40.8834
-47.2776
-45.0249
-45.5366
-44.2229
-45.2625
-44.4598
-44.8335
-43.9509
-41.3095
-41.2546
-41.4262
-41.0483
-41.1962
-40.7031
-41.255
-40.7061
-40.9575
-41.0181
-41.067
-40.7543
-43.9126
-43.3062
-43.7887
-43.0218
-46.5552
-44.4671
-44.8459
-43.6754
-43.3119
-43.5845
-43.6884
-43.6588
-43.1781
-43.4186
-43.5935
-43.5803
-47.2391
-45.763
-46.0435
-44.825
-47.5692
-45.5294
-46.198
-44.5467
-42.4858
-42.4421
-42.9419
-42.7884
-42.3314
-42.6353
-41.8255
-42.2912
-41.4596
-41.8118
-41.2695
-41.7313
-42.4033
-42.5201
-42.8176
-42.7363
-48.1543
-47.8963
-48.2587
-48.1964
-47.1846
-47.4556
-47.6959
-47.6297
-36.0264
-39.143
-36.4096
-39.1975
-42.0381
-38.9845
-41.9953
-39.1503
-147.719
101.861
-156.462
59.3905
-107.058
-112.208
-55.1798
-49.0791
-49.0394
-51.121
-49.8237
-49.4379
-132.391
85.8794
-104.779
19.3011
-89.6798
-77.0076
-47.8282
-42.3903
-49.2029
-40.4904
-45.6427
-45.5175
-156.755
58.5744
-148.094
101.964
-106.963
-112.218
-48.3356
-50.2217
-54.201
-48.0907
-49.0995
-49.0748
-105.269
19.252
-132.324
86.1651
-89.6978
-76.3081
-47.1231
-38.2567
-45.8304
-40.2918
-44.0455
-44.0134
-41.8929
-42.1872
-40.2537
-39.5163
-42.01
-41.3724
-42.9003
-41.3195
-41.0271
-42.1192
-35.7405
-38.6705
-34.2124
-39.747
-43.1022
-43.3842
-80.2491
-90.9896
-69.5931
-65.5187
-65.0268
-78.7912
-99.5127
-123.277
-42.2056
-42.2498
-41.2732
-42.7859
-42.0981
-42.9738
-43.5155
-42.9221
-41.8056
-41.3652
-42.8969
-41.4161
-40.3573
-39.5791
-42.0085
-41.4468
-41.0023
-41.8174
-43.7654
-42.8478
-34.5622
-39.1955
-33.2605
-39.7068
-80.5236
-91.2491
-100.222
-122.893
-69.7044
-65.6041
-65.2476
-78.886
-42.1888
-42.1948
-43.2141
-42.6876
-40.2057
-42.7739
-41.3138
-42.3149
-167.198
124.909
-147.882
147.899
-116.976
-111.614
172.819
168.156
-183.389
-10.5506
-184.012
-9.56516
-138.045
-138.648
103.136
98.7837
-56.9619
-61.8411
-48.2944
-49.2547
-52.2404
-47.3878
-60.6326
-54.5044
-57.5958
-48.2978
-50.3955
-45.1996
-49.3817
-48.2581
-47.7421
-46.2233
-48.4291
-51.0083
-48.1885
-50.7027
-48.3494
-48.4544
-48.4871
-48.3303
-45.4629
-44.6356
-42.2942
-44.0523
-43.3497
-47.7938
-44.059
-45.5194
-100.276
21.5263
-100.098
28.2674
-64.849
-64.8842
127.76
128.083
-45.2117
-27.7467
-39.0266
-10.8194
-39.4456
-42.2071
-15.2541
-5.05879
-39.2616
-31.805
-38.311
-30.2428
-39.5889
-39.2632
-29.1617
-30.1804
-42.6135
-42.3725
-41.7351
-42.3439
-42.4583
-41.8802
-42.3942
-42.2219
-167.097
125.116
-147.784
147.956
-116.992
-111.629
168.602
172.892
-57.051
-61.8662
-48.1412
-49.2748
-52.3395
-47.4902
-60.7736
-54.6005
-56.3666
-47.4448
-48.7121
-43.2924
-46.8688
-48.2625
-46.6315
-44.3918
-45.0899
-44.4304
-42.0943
-43.9256
-43.0694
-47.2627
-43.8147
-45.1353
-45.2487
-27.7099
-38.9934
-10.8
-42.2248
-39.4238
-5.02981
-15.2038
-41.958
-41.7208
-41.3735
-41.9548
-41.4533
-41.8455
-41.6966
-42.0067
-38.3607
-38.0099
-37.9971
-38.0432
-38.8669
-38.2764
-39.0556
-39.1218
-44.9651
-44.8097
-54.1118
-54.1889
-46.1422
-49.8948
-46.048
-49.9063
-45.9453
-43.5204
-45.943
-43.5314
-48.0039
-48.0106
-42.9154
-42.9179
-38.4425
-38.6204
-40.4558
-40.3387
-38.6258
-39.9719
-39.5047
-40.4018
-43.205
-43.8205
-43.1632
-43.7653
-42.9049
-42.9248
-43.8685
-43.8382
-55.3749
-61.121
-45.6681
-47.6165
-46.6714
-52.5324
-62.2591
-51.2036
16.3127
-141.832
17.278
-140.949
67.5538
67.8501
-119.858
-120.064
-46.1876
-43.7953
-46.1287
-43.7022
-47.9591
-47.9519
-43.268
-43.2272
-39.0387
-37.8733
-37.2072
-37.7197
-38.8078
-37.7075
-38.9529
-38.9994
-44.9765
-44.8949
-54.1481
-54.2919
-49.9053
-46.1411
-46.1759
-50.0437
-37.0086
-38.4839
-39.088
-40.133
-38.9151
-37.4763
-39.3437
-40.2171
-55.3428
-61.1093
-45.1818
-47.1088
-52.5779
-46.4906
-51.0839
-62.3279
-55.8181
-53.8868
-51.2585
-46.4548
-42.8343
-47.3001
-45.3348
-44.835
-55.8727
-53.9265
-51.3168
-46.4906
-47.349
-42.8762
-44.8626
-45.3511
-75.9067
-75.9899
-69.2699
-60.93
-69.3646
-60.9929
-58.067
-58.042
-10.2395
-10.2381
-2.7989
11.3642
11.3483
-2.79718
18.7052
18.6205
202.1
201.544