# vtk DataFile Version 2.0
tet_velo
ASCII
DATASET UNSTRUCTURED_GRID
POINTS 29498 float
-0.783072 0.165 -2.205
-0.834055 0.255 2.045
-0.9 0.805 -2.125
-0.825 1.0774 2.065
0.780713 0.165 -2.205
0.835 0.265 2.05294
0.9 0.805 -2.125
0.825 1.075 2.065
-0.762095 0.232971 -0.788333
-0.781046 0.261015 0.628334
-0.882737 0.903537 -0.728333
-0.858636 0.995236 0.668334
0.761128 0.236014 -0.785687
0.782329 0.266242 0.633627
0.882627 0.902627 -0.728333
0.858317 0.993317 0.668334
-1.60285 -0.230236 -3.35922
-1.6032 -0.168385 -2.23355
-1.58701 -0.111494 -0.816179
-1.59059 -0.0949869 0.60515
-1.61826 -0.0940852 2.02286
-1.63068 -0.0652085 3.1502
-1.63496 -0.0193051 4.27455
-1.61233 0.100165 -3.32685
-1.61996 0.165202 -2.20339
-1.5995 0.234855 -0.790244
-1.60236 0.271312 0.624509
-1.63258 0.284185 2.03803
-1.64186 0.314283 3.16499
-1.64337 0.358457 4.29004
-1.66433 0.756125 -3.25619
-1.71306 0.818881 -2.13163
-1.69563 0.913835 -0.732178
-1.66731 1.00296 0.665623
-1.64844 1.07213 2.06529
-1.65419 1.09782 3.19184
-1.65712 1.12857 4.31944
-1.68928 1.78321 -3.16658
-1.71117 1.85209 -2.04534
-1.71268 1.95827 -0.652497
-1.69926 2.07228 0.735644
-1.6865 2.16681 2.1283
-1.68082 2.21848 3.24915
-1.6794 2.25708 4.37442
-0.780896 -0.229899 -3.36017
-0.792069 -0.166448 -2.2349
-0.777375 -0.110422 -0.814936
-0.778831 -0.102378 0.60932
-0.804249 -0.112782 2.02934
-0.814083 -0.0784688 3.15501
-0.816573 -0.027142 4.27789
-0.775668 0.0982426 -3.32696
-0.825643 0.301865 3.16885
-0.824141 0.35165 4.29276
-0.814084 0.748768 -3.2533
-0.832657 1.09624 3.19231
-0.835399 1.12662 4.32039
-0.844096 1.77612 -3.16362
-0.865926 1.84435 -2.04211
-0.871004 1.95292 -0.650323
-0.864473 2.07183 0.736024
-0.857652 2.17007 2.12756
-0.854354 2.22176 3.24849
-0.854443 2.25928 4.37425
0.835098 -0.229441 -3.35958
0.782938 -0.165719 -2.23416
0.774106 -0.10778 -0.812441
0.800249 -0.0977216 0.613945
0.833767 -0.105565 2.03555
0.827729 -0.0732505 3.15988
0.822397 -0.0235542 4.28166
0.857961 0.0984583 -3.32663
0.82331 0.306849 3.17357
0.818012 0.354918 4.29633
0.896835 0.748825 -3.25308
0.81672 1.09736 3.19453
0.810373 1.12846 4.32303
0.857871 1.77621 -3.16306
0.845084 1.84431 -2.04158
0.831606 1.95269 -0.649681
0.818256 2.07144 0.736869
0.80666 2.16984 2.1287
0.80103 2.22204 3.25001
0.796268 2.26009 4.37611
1.64739 -0.229153 -3.35777
1.60058 -0.166779 -2.2317
1.58355 -0.107466 -0.811938
1.60414 -0.0879825 0.612541
1.63761 -0.0841452 2.03234
1.64301 -0.0567085 3.15865
1.64021 -0.0127508 4.28165
1.67028 0.100802 -3.32584
1.62018 0.165937 -2.20233
1.59549 0.238076 -0.786671
1.60475 0.277255 0.631322
1.63599 0.293582 2.04722
1.6413 0.322059 3.173
1.63745 0.364426 4.29678
1.72168 0.756343 -3.25546
1.71363 0.818746 -2.13117
1.68912 0.913733 -0.730884
1.66248 1.00291 0.668129
1.64226 1.07287 2.06879
1.63799 1.10067 3.19664
1.63204 1.13223 4.32466
1.70099 1.7835 -3.16532
1.69149 1.85216 -2.0441
1.67485 1.95809 -0.650983
1.6548 2.07197 0.737624
1.63719 2.16687 2.13087
1.62789 2.21937 3.25237
1.62106 2.25885 4.37821
-0.890399 0.485 -2.21386
-0.00117949 0.163689 -2.20631
-0.812512 0.159057 -1.49667
-0.899459 0.6662 2.12493
0.000472486 0.345603 1.96337
-0.87514 0.190417 1.33667
0 0.756202 -2.0762
-0.894822 0.857722 -1.42667
0 1.07584 2.06464
-0.845568 1.04007 1.36667
0.889271 0.485 -2.21391
0.812342 0.159086 -1.49534
0.899921 0.67 2.12889
0.881279 0.193006 1.34328
0.894831 0.857331 -1.42667
0.845535 1.03804 1.36667
-0.771559 0.247004 -0.0799999
-0.899959 0.568254 -0.758333
-0.000483943 0.101216 -0.78701
-0.899941 0.628126 0.648334
0.000641698 0.101273 0.63098
-0.870682 0.949382 -0.03
-5.4624e-05 1.13776 -0.728333
-0.000159735 1.46179 0.668334
0.771718 0.251139 -0.07603
0.899959 0.569321 -0.75701
0.899943 0.629779 0.65098
0.87047 0.94797 -0.03
-0.898519 0.526627 -1.46167
-0.899951 0.59819 -0.0549999
-0.897329 0.647163 1.35167
-0.000831715 0.147118 -1.49601
7.88777e-05 0.101245 -0.078015
0.000557092 0.126114 1.33998
-0.000589743 0.485 -2.12072
0.000236243 0.6681 2.13854
-2.7312e-05 0.951661 -1.42667
-0.00010718 1.43672 -0.03
-7.98676e-05 1.3191 1.36667
0.898516 0.52716 -1.46101
0.899951 0.59955 -0.053015
0.897303 0.64989 1.35498
-1.20152 0.165101 -2.20419
-0.787571 -0.000724059 -2.21995
-0.77937 0.131621 -2.76598
-1.23332 0.269593 2.04151
-0.819152 0.0711088 2.03717
-0.829849 0.278433 2.60693
-1.30653 0.811941 -2.12832
-0.857042 0.776884 -2.68915
-0.882963 1.32468 -2.08356
-1.23672 1.07476 2.06514
-0.828828 1.08682 2.62865
-0.841326 1.62374 2.09628
0.781826 -0.000359368 -2.21958
0.819337 0.131729 -2.76581
1.20045 0.165469 -2.20367
0.834383 0.0797174 2.04424
0.829155 0.285924 2.61325
1.23549 0.279291 2.05008
0.898417 0.776912 -2.68904
0.872542 1.32465 -2.08329
1.30682 0.811873 -2.12808
0.82086 1.08618 2.62976
0.81583 1.62242 2.09685
1.23363 1.07394 2.0669
-1.1808 0.233913 -0.789289
-0.769735 0.0612744 -0.801635
-1.1917 0.266163 0.626421
-0.779938 0.0793184 0.618827
-1.28918 0.908686 -0.730256
-0.87687 1.42823 -0.689328
-1.26297 0.9991 0.666978
-0.861555 1.53353 0.702179
0.767617 0.0641174 -0.799064
1.17831 0.237045 -0.786179
0.791289 0.0842601 0.623786
1.19354 0.271748 0.632475
0.857116 1.42766 -0.689007
1.28587 0.90818 -0.729609
0.838286 1.53238 0.702601
1.2604 0.998112 0.668231
-1.60302 -0.19931 -2.79639
-1.60759 -0.0650352 -3.34304
-1.19187 -0.230067 -3.3597
-1.59511 -0.139939 -1.52487
-1.61158 -0.00159133 -2.21847
-1.19763 -0.167416 -2.23423
-1.5888 -0.103241 -0.105515
-1.59325 0.0616801 -0.803212
-1.18219 -0.110958 -0.815558
-1.60442 -0.0945361 1.31401
-1.59647 0.0881624 0.61483
-1.18471 -0.0986825 0.607235
-1.62447 -0.0796468 2.58653
-1.62542 0.0950499 2.03045
-1.21125 -0.103434 2.0261
-1.63282 -0.0422568 3.71238
-1.63627 0.124537 3.1576
-1.22238 -0.0718386 3.15261
-1.63916 0.169576 4.2823
-1.22577 -0.0232235 4.27622
-1.61614 0.132683 -2.76512
-1.63833 0.428145 -3.29152
-1.194 0.0992038 -3.32691
-1.60973 0.200028 -1.49682
-1.66651 0.492042 -2.16751
-1.60093 0.253083 -0.0828676
-1.64756 0.574345 -0.761211
-1.61747 0.277748 1.33127
-1.63483 0.637138 0.645066
-1.63722 0.299234 2.60151
-1.64051 0.678157 2.05166
-1.64261 0.33637 3.72752
-1.64803 0.706052 3.17842
-1.23375 0.308074 3.16692
-1.65024 0.743515 4.30474
-1.23375 0.355054 4.2914
-1.6887 0.787503 -2.69391
-1.67681 1.26967 -3.21138
-1.23921 0.752446 -3.25475
-1.70435 0.866358 -1.43191
-1.71212 1.33548 -2.08849
-1.68147 0.9584 -0.0332774
-1.70415 1.43605 -0.692337
-1.65788 1.03755 1.36546
-1.68328 1.53762 0.700634
-1.65132 1.08497 2.62857
-1.66747 1.61947 2.09679
-1.65565 1.1132 3.75564
-1.6675 1.65815 3.22049
-1.24342 1.09703 3.19207
-1.66826 1.69283 4.34693
-1.24626 1.1276 4.31992
-1.70023 1.81765 -2.60596
-1.26669 1.77966 -3.1651
-1.71192 1.90518 -1.34892
-1.28855 1.84822 -2.04373
-1.70597 2.01527 0.0415737
-1.29184 1.95559 -0.65141
-1.69288 2.11955 1.43197
-1.28187 2.07205 0.735834
-1.68366 2.19265 2.68872
-1.27208 2.16844 2.12793
-1.68011 2.23778 3.81178
-1.26759 2.22012 3.24882
-1.26692 2.25818 4.37433
-0.786483 -0.198173 -2.79754
-0.778282 -0.0658281 -3.34356
0.027101 -0.22967 -3.35988
-0.784722 -0.138435 -1.52492
-0.00456548 -0.166083 -2.23453
-0.778103 -0.1064 -0.102808
-0.00163456 -0.109101 -0.813689
-0.79154 -0.10758 1.31933
0.0107091 -0.10005 0.611632
-0.809166 -0.0956256 2.59218
0.0147587 -0.109174 2.03244
-0.815328 -0.0528054 3.71645
-0.819863 0.111698 3.16193
0.00682275 -0.0758596 3.15744
-0.820357 0.162254 4.28533
0.00291169 -0.0253481 4.27977
-0.794876 0.423505 -3.29013
0.0411463 0.0983505 -3.32679
-0.824892 0.326758 3.73081
-0.82915 0.699051 3.18058
-0.00116635 0.304357 3.17121
-0.82977 0.739135 4.30658
-0.00306438 0.353284 4.29455
-0.82909 1.26244 -3.20846
0.0413751 0.748797 -3.25319
-0.834028 1.11143 3.75635
-0.843505 1.659 3.2204
-0.00796841 1.0968 3.19342
-0.844921 1.69295 4.34732
-0.0125133 1.12754 4.32171
-0.855011 1.81023 -2.60287
0.00688753 1.77616 -3.16334
-0.868465 1.89864 -1.34622
-0.0104214 1.84433 -2.04184
-0.867738 2.01238 0.0428505
-0.019699 1.95281 -0.650002
-0.861062 2.12095 1.43179
-0.0231083 2.07164 0.736447
-0.856003 2.19592 2.68803
-0.0254956 2.16996 2.12813
-0.854399 2.24052 3.81137
-0.0266618 2.2219 3.24925
-0.0290879 2.25968 4.37518
0.809018 -0.19758 -2.79687
0.846529 -0.0654913 -3.3431
1.24125 -0.229297 -3.35868
0.778522 -0.136749 -1.5233
1.19176 -0.166249 -2.23293
0.787178 -0.102751 -0.0992481
1.17883 -0.107623 -0.81219
0.817008 -0.101643 1.32475
1.20219 -0.092852 0.613243
0.830748 -0.0894078 2.59771
1.23569 -0.0948552 2.03394
0.825063 -0.0484024 3.72077
0.825519 0.116799 3.16672
1.23537 -0.0649795 3.15926
0.820205 0.165682 4.28899
1.23131 -0.0181525 4.28165
0.877398 0.423642 -3.28985
1.26412 0.0996302 -3.32623
0.820661 0.330883 3.73495
0.820015 0.702104 3.18405
1.2323 0.314454 3.17329
0.814193 0.741691 4.30968
1.22773 0.359672 4.29656
0.877353 1.26252 -3.20807
1.30926 0.752584 -3.25427
0.813546 1.11291 3.75878
0.808875 1.6597 3.22227
1.22736 1.09902 3.19558
0.80332 1.69428 4.34957
1.2212 1.13035 4.32385
0.851477 1.81026 -2.60232
1.27943 1.77986 -3.16419
0.838345 1.8985 -1.34563
1.26829 1.84823 -2.04284
0.824931 2.01207 0.0435941
1.25323 1.95539 -0.650332
0.812458 2.12064 1.43278
1.23653 2.07171 0.737247
0.803845 2.19594 2.68936
1.22192 2.16836 2.12979
0.798649 2.24107 3.81306
1.21446 2.22071 3.25119
1.20866 2.25947 4.37716
1.62399 -0.197966 -2.79474
1.65884 -0.0641754 -3.34181
1.59206 -0.137123 -1.52182
1.61038 -0.000420928 -2.21702
1.59384 -0.0977243 -0.0996985
1.58952 0.0653049 -0.799305
1.62087 -0.0860638 1.32244
1.60444 0.0946361 0.621932
1.64031 -0.0704268 2.5955
1.6368 0.104718 2.03978
1.64161 -0.0347296 3.72015
1.64215 0.132675 3.16583
1.63883 0.175838 4.28922
1.64523 0.13337 -2.76409
1.69598 0.428572 -3.29065
1.60783 0.202007 -1.4945
1.66691 0.492342 -2.16675
1.60012 0.257665 -0.0776744
1.6423 0.575904 -0.758777
1.62037 0.285418 1.33927
1.63361 0.640081 0.649725
1.63864 0.307821 2.61011
1.63912 0.683228 2.058
1.63938 0.343243 3.73489
1.63964 0.711367 3.18482
1.63474 0.748328 4.31072
1.71766 0.787544 -2.69332
1.71134 1.26992 -3.21039
1.70137 0.866239 -1.43103
[...]
POINT_DATA 29498
VECTORS point_vectors float
-8.23231 -8.34343 12.1652
0.263277 -0.0136523 1.20653
-7.76356 3.72268 13.1058
-0.116842 -0.588948 1.69546
8.85674 -8.88964 13.989
-0.866969 0.0704504 3.64891
7.76426 3.71677 13.1068
0.111398 -0.607659 1.79399
0 0 0
0 0 0
-0.000745168 -0.00113979 0.0201375
0.00937199 0.0214861 0.0695045
0 0 0
0 0 0
0.000685582 -0.00103603 0.0183198
-0.00635282 0.0154735 0.0536701
-0.618594 -0.288857 19.8792
-1.37662 -0.691563 20.6302
-0.479848 -0.380201 21.6221
0.0604346 -0.19347 21.7587
0.671947 0.0156277 21.7934
1.10393 0.165633 21.3702
1.04366 0.111986 20.856
-0.779006 -0.217499 19.7838
-1.76996 -0.566815 20.6475
-0.514155 -0.453079 21.6606
0.0555802 -0.312986 21.8255
0.745535 -0.227079 21.8593
1.19586 -0.0886519 21.3353
1.30169 -0.064671 21.3544
-0.851719 0.0810001 19.7285
-1.70031 0.128714 20.6219
-1.02667 -0.412354 21.5254
-0.286362 -0.489461 21.8352
0.334851 -0.621724 21.8135
0.779393 -0.780053 21.3717
0.794906 -0.546206 21.4593
-0.554299 0.350404 20.017
-0.904238 0.530007 20.5116
-0.896519 0.317292 21.2589
-0.436039 -0.0176584 21.6642
-0.0516172 -0.282626 21.6185
0.182415 -0.439165 21.4748
0.215401 -0.505713 20.6957
-0.617506 -0.655786 19.2522
-2.69745 -3.77556 20.4705
-0.197251 0.0683783 20.09
0.757569 -0.0640537 18.596
1.35604 1.07691 19.9411
1.72693 1.45002 20.1955
1.4438 0.993533 19.2799
-0.765287 -0.447721 18.8562
2.24495 0.87 12.5644
2.36326 0.804714 15.5651
-0.962755 0.283074 18.6359
0.80382 -0.893926 9.41204
1.75526 -1.41664 15.1219
-0.528641 0.749032 19.6029
-1.11072 1.5666 20.2209
-1.47201 1.53742 21.2938
-0.638144 0.350526 22.0346
-0.226527 -0.233002 21.7673
0.0116486 -0.487603 21.0056
-0.0602135 -0.44525 22.0871
0.631957 -0.625539 19.3033
2.70069 -3.82339 20.481
0.167628 0.0642535 19.9272
-0.705578 -0.087605 18.8185
-1.37376 1.02604 20.0115
-1.71997 1.39022 20.1788
-1.46859 0.968301 19.2571
0.82268 -0.452435 18.9515
-2.27608 0.869443 12.5977
-2.38091 0.816073 15.4742
0.97906 0.252932 18.7679
-0.677811 -0.91327 8.65733
-1.75101 -1.34793 14.8374
0.535687 0.741293 19.6101
1.1073 1.60084 20.2139
1.46114 1.62871 21.285
0.638257 0.388212 22.0555
0.234576 -0.218995 21.7626
0.0243666 -0.499256 21.0829
0.0526698 -0.44034 22.0172
0.621965 -0.277473 19.8886
1.39671 -0.711532 20.6729
0.480066 -0.380343 21.6227
-0.0583576 -0.200253 21.7463
-0.665669 0.00871319 21.7823
-1.09764 0.170021 21.3612
-1.04209 0.110937 20.857
0.751275 -0.196181 19.8378
1.78146 -0.558814 20.6536
0.501802 -0.451398 21.6659
-0.0570544 -0.306013 21.829
-0.745622 -0.232167 21.863
-1.19039 -0.101557 21.3027
-1.31514 -0.0708196 21.3528
0.825357 0.0740577 19.7842
1.70572 0.124707 20.6249
1.03315 -0.415883 21.5335
0.280788 -0.492253 21.8419
-0.332961 -0.623665 21.8164
-0.797466 -0.788653 21.3622
-0.77218 -0.545191 21.5325
0.557992 0.349958 20.0273
0.918021 0.537608 20.5198
0.915987 0.330904 21.2569
0.448615 -0.0182969 21.6652
0.0575918 -0.305127 21.5832
-0.188554 -0.465139 21.5319
-0.20949 -0.564408 20.6492
-8.44544 -1.22308 9.1033
-0.0041604 -3.39133 1.211
0.043732 -0.0224885 0.709462
0.193052 -0.285159 1.43547
-8.4821e-06 -0.000105741 -0.000359364
0.166147 -0.221005 1.80574
0 0 0
-0.24123 -0.335944 1.3257
-0.00459066 0.230222 -0.344455
0.00816671 0.0182492 0.0956462
8.1185 -1.18258 8.77055
-0.0499359 -0.0219862 0.703984
-0.22104 -0.330069 1.65284
-0.133053 -0.17658 1.45962
0.23979 -0.333418 1.31949
-0.00821895 0.0180909 0.0953393
0 0 0
0.000656089 -0.00369153 0.0368713
2.70975e-08 -5.84856e-08 -9.801e-06
2.70163e-07 1.87112e-05 0.000112006
1.05595e-07 -3.28636e-08 -3.12931e-05
0.0168047 0.0522001 0.141895
7.77965e-06 0.00098028 0.00203378
0 0 0
0 0 0
-0.000552175 -0.0030797 0.0304781
3.19199e-07 -2.41346e-05 -0.000141756
-0.0162401 0.0494949 0.136468
0.000426289 -0.00748365 0.0193451
8.41103e-07 1.65124e-05 0.000130368
9.78527e-07 2.34018e-06 0.000144901
-1.24475e-07 7.0001e-06 -0.000144934
6.71376e-09 9.44719e-08 -1.28153e-05
0 0 0
3.67547e-05 -0.000377534 0.000110524
-5.05805e-05 -0.0024714 0.00138623
-2.03511e-06 7.7263e-06 6.1619e-05
6.78195e-08 2.55682e-05 0.000205235
2.62761e-07 -1.34274e-05 3.25862e-05
-0.000428017 -0.0074872 0.0194282
-3.04821e-07 5.8938e-06 4.71331e-05
-1.26409e-06 2.63967e-06 0.0001871
-3.60304 -1.63487 20.6336
-4.42692 -5.82157 20.5448
-2.05899 -1.55333 17.6384
1.28572 -0.23606 20.9786
1.76213 0.82626 13.2084
1.39533 0.183334 8.54744
-3.27173 0.498485 20.7761
-2.68139 1.16285 17.1975
-2.48756 2.54122 20.13
0.37408 -0.898006 20.8586
-0.189175 -0.698331 6.00029
-0.219695 -0.405608 19.5542
4.44057 -5.85696 20.5438
2.10805 -1.45324 17.8189
3.5931 -1.63105 20.6335
-1.7849 0.783036 13.1913
-1.44723 0.140687 8.65709
-1.30884 -0.251189 21.0583
2.69509 1.02491 17.458
2.48299 2.59624 20.1187
3.26647 0.491931 20.7845
0.231465 -0.718 5.72153
0.18761 -0.361962 19.0898
-0.371924 -0.898392 20.7982
-0.216657 -0.576121 20.5909
0.663996 -0.276315 9.02942
0.172039 -0.354301 19.7165
0.96068 -0.545031 7.4973
-1.58294 -1.19532 21.8893
-3.85963 1.89122 21.3153
-0.353361 -0.948452 21.381
-1.09404 0.076942 20.5246
-0.632655 -0.335336 8.67765
0.189974 -0.574889 20.5465
-0.910857 -0.609462 8.1234
-0.183236 -0.357612 19.7827
3.94355 2.03034 21.2428
1.57557 -1.20653 21.8897
1.03398 0.146613 19.9575
0.34705 -0.945239 21.324
-1.06594 -0.530244 20.0451
-0.729434 -0.266054 19.8333
-0.674334 -0.426989 19.5935
-0.997869 -0.553793 21.4061
-1.58374 -0.672514 20.6587
-2.12027 -1.62198 20.652
-0.148655 -0.269976 21.6858
-0.524764 -0.405635 21.6372
-0.328102 -0.384198 21.8856
0.324492 -0.109789 21.8625
0.0502584 -0.242675 21.7576
0.15475 -0.189685 21.7878
0.875667 0.0856565 21.6572
0.70523 -0.0641086 21.8022
1.0265 0.310634 21.8251
0.987129 0.156694 21.4772
1.14013 0.0985322 21.2727
1.49783 0.591337 21.186
1.22525 -0.025863 21.0759
1.30421 0.381609 21.1084
-1.33161 -0.411712 19.932
-0.844318 -0.0537212 19.7302
-0.880619 -0.355882 19.3826
-1.17894 -0.497237 21.4964
-1.8344 -0.203223 20.7044
-0.173257 -0.382138 21.7296
-0.721362 -0.514883 21.6033
0.353641 -0.262938 21.943
-0.0503301 -0.453655 21.8401
0.996986 -0.181198 21.7464
0.622075 -0.48478 21.8538
1.31235 -0.29449 21.4569
1.0655 -0.435777 21.2445
1.80826 -0.0140378 20.8234
1.19604 -0.464964 21.3507
1.79123 -0.102848 20.623
-1.45951 0.169484 19.947
-0.744099 0.307668 19.8395
-1.04679 0.175687 19.2259
-1.38211 -0.145183 21.241
-1.31862 0.464619 20.5178
-0.652776 -0.511437 21.7667
-1.15673 0.0524932 21.3932
0.0487292 -0.515449 21.8693
-0.490473 -0.231749 21.7816
0.575216 -0.643535 21.7158
0.0333995 -0.474954 21.6774
0.997281 -0.798114 21.1759
0.374538 -0.712922 21.2179
1.09307 -1.08153 20.8082
0.404467 -0.586495 21.4024
1.72386 -1.1908 19.2631
-0.774043 0.485634 20.2106
-0.614025 0.549008 19.8167
-0.95136 0.463832 20.8825
-1.12351 0.944511 20.4097
-0.704042 0.154098 21.5507
-1.26865 0.731378 21.3154
-0.206533 -0.168119 21.6284
-0.566234 0.0912443 21.8274
0.0485943 -0.351444 21.4463
-0.12496 -0.318031 21.65
0.192156 -0.519621 21.0196
0.122866 -0.458194 21.2768
0.0298604 -0.435089 21.7684
-1.37001 -1.62265 18.8978
-0.688947 -0.552026 19.0567
0.0255816 -0.820813 18.9295
-1.54022 -0.855021 22.68
-0.0204646 -6.58695 19.915
0.407247 0.0202056 19.0866
0.00133204 -0.32962 9.76795
1.08661 0.24481 19.2479
-0.0374598 -0.0354252 9.12127
1.50274 1.25768 19.6291
-0.0236478 0.880283 12.238
1.76289 1.64789 19.9408
2.15516 1.39884 16.3365
-0.0242779 1.40015 13.2886
1.97576 1.11009 16.861
-0.01167 2.79608 15.1504
-0.899092 -0.138969 18.6599
0.0563211 -0.704973 18.325
2.21869 0.74046 13.6714
1.37961 -0.900695 6.64719
-0.0133783 1.03761 3.9778
2.65799 -0.118924 14.1436
0.0102705 2.83312 9.79908
-0.778047 0.749971 19.0947
0.0563566 0.42566 17.9133
1.35152 -1.02931 11.7977
0.0694679 -0.992768 20.9048
0.0260769 1.52448 -4.83528
0.0797784 -1.16163 18.1014
0.0178634 2.62521 -2.93461
-0.831944 1.24214 19.729
0.00563231 0.983814 19.3174
-1.29837 1.53954 20.7115
-0.0183837 2.42527 19.977
-1.15305 0.993547 21.9647
-0.0524698 2.94572 21.0898
-0.357907 -0.0312431 21.8946
-0.0227297 0.874434 22.3163
-0.11648 -0.411955 21.7074
-0.00977608 0.0806532 21.8554
-0.00537759 -0.677809 20.8755
0.00466988 -0.444508 21.5511
-0.0101999 -0.199307 22.2146
1.39186 -1.59569 18.9721
0.735478 -0.552151 19.1363
0.68462 -0.396366 19.6296
1.53257 -0.847192 22.6705
2.13892 -1.63944 20.65
-0.395397 0.014157 19.1735
0.335069 -0.377405 21.884
-1.04644 0.170839 19.263
-0.143564 -0.191608 21.7892
-1.51392 1.23774 19.7818
-1.02462 0.284442 21.8343
-1.7758 1.60824 19.9969
-2.17316 1.3607 16.3003
-1.48455 0.55864 21.2267
-1.99305 1.10766 16.8259
-1.3097 0.383611 21.1336
0.968195 -0.13851 18.7524
0.866071 -0.30016 19.451
-2.23991 0.725848 13.5933
-1.33931 -0.921183 6.1628
-1.8129 -0.0283663 20.8058
-2.68871 -0.106909 13.9754
-1.82284 -0.104061 20.5643
0.783245 0.700597 19.1518
1.01295 0.158349 19.3587
-1.23331 -1.03532 11.015
-0.0535457 -1.01133 20.3362
-1.09187 -1.0232 20.5034
-0.0545299 -1.19112 17.6855
-1.74815 -1.26716 19.0826
0.833593 1.24765 19.7289
0.614215 0.533584 19.8266
1.29175 1.58187 20.7053
1.1295 0.961778 20.4129
1.14465 1.06737 21.9913
1.30125 0.782178 21.3186
0.355043 -0.00814611 21.8943
0.578019 0.111395 21.8406
0.137846 -0.400274 21.7356
0.143778 -0.299112 21.6786
0.0151972 -0.665506 20.6706
-0.112801 -0.455865 21.2184
-0.0136978 -0.45903 21.8786
1.05156 -0.507859 20.0609
0.706281 -0.24358 19.865
0.988638 -0.548319 21.4272
1.58802 -0.655465 20.6711
0.150868 -0.267959 21.6795
0.524244 -0.405122 21.6439
-0.320289 -0.113641 21.8663
-0.053727 -0.242171 21.755
-0.873304 0.081577 21.6493
-0.701308 -0.0673081 21.7988
-0.990707 0.166627 21.4415
-1.1292 0.0987007 21.2679
-1.23403 -0.0233479 21.0809
1.29466 -0.380933 19.9759
0.810688 -0.051167 19.7822
1.17641 -0.495016 21.5043
1.8499 -0.208583 20.7287
0.169762 -0.377674 21.7323
0.723698 -0.516239 21.6058
-0.357006 -0.268227 21.9387
0.0435864 -0.456162 21.8463
-0.993721 -0.190411 21.7274
-0.624603 -0.487923 21.8618
-1.32972 -0.300055 21.4379
-1.08698 -0.452203 21.2614
-1.18622 -0.476605 21.4123
1.38227 0.147228 19.9997
0.742853 0.29512 19.8774
1.37264 -0.134022 21.255
1.33495 0.465703 20.5291
0.650596 -0.516064 21.7721
1.19442 0.0574973 21.3977
-0.0523805 -0.519842 21.8815
0.50555 -0.238671 21.7892
-0.583356 -0.660337 21.7283
-0.0363531 -0.477713 21.691
-0.979719 -0.80226 21.2521
-0.355036 -0.686804 21.2889
-0.41852 -0.61932 21.3599
0.775854 0.484255 20.1953
0.965255 0.473416 20.8852
0.72015 0.165092 21.5573
0.213147 -0.1785 21.6623
-0.0458294 -0.356035 21.4425
-0.187099 -0.595028 20.9566
-1.22379 -0.495786 19.9856
-1.68536 -1.70637 18.3432
-1.35331 -0.975856 19.6104
-1.93763 -0.86318 19.1657
-0.787392 -0.397316 19.4851
-2.78979 -1.72112 20.658
-1.105 -0.552395 21.4628
-0.117941 0.122145 16.2371
-1.15498 -0.894713 21.9541
-1.48898 -0.793983 22.5016
-0.287149 -0.484709 21.5517
-0.174186 -0.312085 21.6869
0.662043 -0.431873 8.02393
-0.0279114 -0.235413 21.8237
0.103545 -0.464971 20.0242
0.14785 -0.297624 20.6023
0.33168 -0.166323 21.8811
1.16415 -0.179784 11.1353
0.5104 -0.0310585 21.932
0.524393 -0.295875 20.9523
1.22991 0.0837831 21.3793
0.943231 -0.0253084 21.695
1.95824 0.908234 15.1108
1.24888 0.466966 21.6607
1.6316 -0.131755 21.1156
1.67819 0.379644 21.4632
1.13804 -0.020131 21.4468
2.00252 1.2516 16.1059
1.65206 0.696164 21.0278
2.36978 0.0802198 19.9319
1.48841 0.238585 21.3244
-1.48691 -0.114774 19.8949
-2.69234 -0.391739 16.8991
-2.1878 0.454394 19.1836
-1.00684 -0.108446 19.2259
-3.96351 -0.394498 20.8134
-1.28483 -0.357453 21.4603
-1.90259 -0.552741 21.6915
-0.413419 -1.03468 21.5622
-0.336172 -0.506358 21.7578
-0.871153 -1.17905 21.8603
0.315458 -0.553123 20.5955
0.262331 -0.437017 21.9323
0.0198626 -0.806856 21.1183
1.05241 -0.669215 20.9548
0.881253 -0.496703 21.7621
0.121122 -0.857647 4.27268
0.682075 -1.02472 20.9248
1.75575 -0.639659 21.0219
1.27898 -0.622863 21.3436
2.13368 0.153322 9.74206
1.18944 -0.950805 20.631
2.08393 -1.05224 19.2721
-1.11222 0.460045 20.0806
-1.57136 1.71711 18.8891
-0.901091 0.810418 20.0045
-0.859612 0.500647 19.5071
-1.9948 1.08261 20.4322
-1.28395 0.281599 21.0224
-2.69274 1.6956 20.7987
-1.24173 0.84428 20.8532
-2.09657 0.262438 21.5051
-0.886613 -0.108211 21.6913
-2.73226 0.398775 21.9567
-0.978245 0.401868 21.7181
-0.810525 -0.252867 22.0523
-0.165468 -0.348692 21.7847
-0.32851 -0.24935 20.0575
-0.298095 -0.136491 21.7721
-0.134359 -0.589176 21.8499
0.200373 -0.54712 21.5603
-0.0970709 -0.65938 20.1538
-0.0335261 -0.406939 21.54
0.2536 -0.90725 21.4369
0.472303 -0.693084 21.5221
0.232991 -1.15534 19.0711
0.0150359 -0.448602 22.0769
0.255128 -0.706397 22.0337
1.71618 -1.64126 18.4387
0.0316955 -2.45986 17.9986
0.0705241 -2.31109 15.9468
0.0335764 -0.844467 18.5665
-0.0193001 -10.6283 19.4307
0.0737666 0.10059 16.0243
-0.00826723 -2.17996 19.2125
-0.000783737 -0.00145892 1.45202
-0.631682 -0.439682 8.04443
-0.0120071 -0.137008 8.66003
-0.0177855 0.00159032 2.85402
-1.17149 -0.251515 11.3756
-0.0449186 0.278455 10.7208
0.00382776 0.501626 3.8632
-1.98748 0.869551 15.1504
-0.0204945 1.09601 13.0796
-0.0167453 -0.414452 1.63459
-0.0201477 1.59477 8.53034
-2.02795 1.21511 16.0605
-0.0160948 2.39096 14.9919
0.0126635 1.8678 5.39309
-0.00710802 2.67917 12.8352
2.70284 -0.400189 17.1372
0.0744346 2.32572 14.6342
0.0551336 -0.153539 17.8499
-0.109083 -0.88227 4.13217
0.00645597 0.494105 -4.62262
0.0512159 1.00327 -2.05064
-2.0829 0.157717 9.17357
-0.0328632 2.32885 -4.8032
0.0548891 3.06063 0.899497
1.57925 1.67022 18.9274
-0.00140011 1.76554 19.3888
0.0234706 1.0506 18.5972
-0.0156719 4.95496 19.439
2.70068 1.76562 20.782
-0.0298866 2.49466 20.4795
-0.0448909 5.48863 19.5729
2.81547 0.436597 21.873
-0.0486263 2.12284 22.3198
-0.00971185 0.776649 17.1568
0.229885 -0.201158 19.4
-0.0190167 0.291588 21.9635
-0.0301517 0.315388 10.4949
0.102465 -0.632423 19.8102
-0.0129185 -0.147979 21.7733
-0.0368799 -0.325936 11.7055
-0.209975 -1.10519 18.5101
-0.00729726 -0.584384 21.3263
0.00146345 -0.715731 13.8296
1.2004 -0.477924 20.0182
1.34941 -0.943983 19.6304
1.89302 -0.799248 19.2593
0.774657 -0.349144 19.54
2.80414 -1.73257 20.6619
1.0949 -0.531114 21.4851
1.16556 -0.890182 21.9599
1.47419 -0.787055 22.4859
0.280314 -0.470409 21.5568
0.176317 -0.312628 21.6873
0.036081 -0.234465 21.8208
-0.121975 -0.463577 20.0356
-0.149786 -0.292468 20.6961
-0.333787 -0.166284 21.8732
-0.49559 -0.0404253 21.9444
-0.525905 -0.297201 21.0174
-1.23209 0.0717868 21.49
-0.943676 -0.0308045 21.6825
-1.24129 0.436994 21.6735
-1.647 -0.155958 21.1135
-1.66947 0.366765 21.4978
-1.14939 -0.0275047 21.4231
-1.64428 0.658065 21.0385
-2.3885 0.0789474 19.8749
-1.50143 0.251308 21.3598
1.42229 -0.116706 19.9352
2.11287 0.407167 19.2852
0.987034 -0.110162 19.3578
3.96207 -0.401915 20.8321
1.28127 -0.35582 21.4669
1.89974 -0.5602 21.6965
0.395181 -1.05047 21.5123
0.341158 -0.508834 21.7612
0.864022 -1.1918 21.8149
-0.319314 -0.560732 20.6041
-0.269987 -0.439233 21.9401
-0.0239922 -0.797574 21.0572
-1.05189 -0.685765 20.9458
-0.879998 -0.497038 21.7576
-0.673339 -1.02444 20.8512
-1.76467 -0.66513 20.8976
-1.2711 -0.628312 21.397
-1.17998 -0.958146 20.4837
-2.12113 -1.02623 19.0885
1.10554 0.439474 20.0824
0.903121 0.809675 20.0166
0.852979 0.471729 19.5617
2.00763 1.09918 20.4272
1.29916 0.283978 21.0355
1.25579 0.878721 20.8564
2.15879 0.279671 21.5111
0.903733 -0.109581 21.6968
1.00757 0.44109 21.7465
0.838589 -0.250637 22.0647
0.173751 -0.364326 21.803
0.307847 -0.132074 21.7852
0.154211 -0.595651 21.8559
-0.198067 -0.556436 21.5935
0.0556531 -0.401371 21.5469
-0.202916 -0.890178 21.4246
-0.504344 -0.744282 21.4812
-0.00704897 -0.514497 22.1634
-0.22608 -0.74017 21.6087
-1.63717 -0.963522 19.4025
-1.26815 -0.921389 22.1632
0.0235819 -0.341679 20.9531
0.52786 -0.191262 21.2511
1.51599 0.222777 21.2966
2.13142 0.528038 20.8031
-2.33243 -0.258988 18.9584
-1.42301 -0.600323 22.2987
0.110439 -0.909596 21.0714
0.564405 -0.507171 20.8534
1.37489 -0.712095 20.7158
1.89847 -0.44468 20.874
-1.47854 0.900242 19.6601
-1.98578 0.602909 21.0232
-1.49341 -0.0762052 22.0189
-0.36733 -0.416094 21.9599
0.0612544 -0.743973 21.7941
0.761427 -0.873542 20.5507
0.0393661 -2.58923 17.0826
-0.00107695 -0.128759 2.54005
-0.00515552 -0.0214988 2.17097
-0.0205216 0.150441 4.1376
-0.0207596 0.559599 6.14088
-0.0146355 2.16256 10.3322
0.0745746 -0.390298 14.1283
0.00422465 -0.213119 -1.18108
0.0475258 1.75026 0.513226
0.0191125 2.74954 17.9976
-0.0310272 3.84322 20.281
-0.0271171 3.2829 20.3432
-0.0121014 0.10333 13.3051
-0.047207 0.0312746 11.4789
-0.0362506 -0.736464 12.0906
1.61763 -0.906231 19.4685
1.27027 -0.907615 22.16
-0.0285637 -0.331224 20.9724
-0.522994 -0.187779 21.4219
-1.51193 0.206857 21.3645
-2.15154 0.50613 20.8147
2.24326 -0.243421 19.0927
1.4152 -0.606038 22.3016
-0.120706 -0.920149 21.04
-0.56388 -0.511528 20.8489
-1.37392 -0.72504 20.6496
-1.92242 -0.452423 20.7109
1.4734 0.876917 19.6828
2.01258 0.619941 21.0208
1.53711 -0.0722076 22.0445
0.383514 -0.418689 21.9732
-0.0363619 -0.755488 21.7134
-0.730339 -0.939779 20.5322
-6.97878 -2.89264 6.83
-0.409274 -3.34055 1.22326
0.00543871 0.00197757 0.110497
0.156615 -0.0289156 0.571273
-0.00200782 0.00431083 0.0147323
0.515657 -0.00303124 2.8281
-1.29948 0.198482 1.26903
0 0 0
-0.117316 -0.0904457 0.570031
-0.0423985 -0.114738 0.111575
-0.391165 0.0788101 -0.142631
0.0296718 0.0456003 0.40858
0.415828 -3.45712 1.25145
6.77363 -2.76212 6.48639
-0.00546903 0.00110013 0.112611
0.0184928 0.0355793 0.0980026
-0.224647 -0.0535645 0.837072
-0.404575 0.0863203 1.67204
0 0 0
1.49996 0.248607 1.396
0.114235 -0.0877662 0.554596
0.394157 0.0945207 -0.159948
0.0479966 -0.11972 0.110259
-0.0290924 0.0432995 0.395716
0.0210805 0.0448404 1.1279
0 0 0
0.013567 -0.0312314 0.203654
2.24053e-17 -1.24719e-19 6.95322e-17
0.103322 -0.188711 1.69386
0 0 0
-0.00207509 0.00481952 0.0463546
0 0 0
-0.222458 -0.264233 0.567113
0 0 0
0.00208415 0.00659893 0.0230902
-0.00245925 0.00150678 0.00317582
0.0118315 0.0318087 0.140357
0.00126405 0.0220367 0.0952148
0.0110191 0.0359938 0.104015
0.046462 0.022234 0.298398
-0.0131513 0.0463759 1.45083
0 0 0
0 0 0
-0.0130731 -0.0293575 0.191177
-0.0775536 -0.23755 2.30555
0 0 0
0 0 0
0.00160989 0.00377109 0.0347951
0.225713 -0.26685 0.578012
0.00232053 0.00141579 0.0029779
0 0 0
-0.00254454 0.00795705 0.0284276
-0.0131636 0.0343384 0.152111
-0.0525233 0.0282151 0.332781
-0.00130928 0.0226429 0.0972576
-0.0107161 0.0341775 0.0997573
0 0 0
0 0 0
4.63004e-11 1.31275e-07 1.07331e-05
0 0 0
0.0264395 -0.0700505 0.18299
3.23761e-05 3.95541e-06 -8.18939e-05
5.5896e-05 -0.000825299 0.0145063
-0.00673618 -0.00781887 0.00440033
0 0 0
-0.000109164 -0.0109376 -0.000713744
0 0 0
0 0 0
-0.000199055 0.907019 0.206911
6.19004e-06 0.00315542 0.0183521
-3.82822e-07 7.28466e-06 -2.21018e-05
0 0 0
-4.7915e-05 -0.00187164 -5.58695e-05
-1.87421e-06 3.4214e-05 -9.67664e-05
0.00542762 0.0275368 0.236826
1.30316e-05 -3.71802e-09 -4.39048e-06
0 0 0
0 0 0
-4.28176e-05 5.13053e-06 -0.00010703
-0.0146106 -0.0418092 0.113258
0.0018918 -0.00230287 0.00129426
-5.86523e-05 -0.000945722 0.0151653
0 0 0
0 0 0
0 0 0
8.81469e-07 1.66509e-05 -5.08746e-05
0 0 0
-0.0054945 0.0279234 0.241533
0.000192171 0.000348908 0.118105
0 0 0
0.000734713 -0.0122928 0.0364939
6.62359e-05 0.0005959 0.00802855
0 0 0
1.12215e-08 3.69619e-08 -9.43671e-06
8.77984e-08 2.49849e-06 1.78333e-05
0 0 0
1.74235e-08 8.60556e-10 -1.15769e-05
0 0 0
1.48769e-06 3.56318e-05 0.000130995
-0.0715795 0.0552362 0.983122
7.37573e-07 5.76781e-06 -1.22867e-05
5.9904e-05 0.0490639 0.104978
6.87836e-08 4.70981e-06 0.000131416
-4.32298e-07 -3.25823e-05 0.000216555
1.3001e-17 1.35702e-19 -6.76548e-17
-0.000243476 -5.5762e-06 0.084369
-0.000844064 -0.0138326 0.0409119
-5.18827e-05 0.000457405 0.00621373
-8.30586e-08 2.33227e-06 1.67905e-05
0 0 0
0.068578 0.0659315 1.04492
-1.82413e-06 4.2651e-05 0.0001574
0.00445269 -0.0162902 0.0430593
0 0 0
0.0943148 -0.148451 0.629395
2.98898e-08 -2.03992e-06 9.04541e-06
0.00493476 -0.010574 0.288685
6.68108e-07 1.42388e-05 7.98933e-05
-4.08231e-05 0.000614238 0.0361362
0.00098209 0.015084 0.056727
-3.01867e-06 -4.70026e-06 0.00129099
0.000819365 0.00891135 0.0574707