# vtk DataFile Version 2.0
tet_velo
ASCII
DATASET UNSTRUCTURED_GRID
POINTS 29498 float
-0.824506 0.205 -1.585
-0.655 0.305 1.78392
-0.695 0.704493 -1.725
-0.625 0.875 1.7997
0.824506 0.205 -1.585
0.655 0.305 1.78392
0.695 0.704493 -1.725
0.625 0.875 1.7997
-0.810417 0.19592 -0.462027
-0.781412 0.201757 0.660947
-0.73476 0.824422 -0.5501
-0.684862 0.854693 0.6248
0.810417 0.19592 -0.462027
0.78139 0.201779 0.660947
0.734772 0.824434 -0.5501
0.684838 0.854669 0.6248
-1.58955 -0.136925 -2.46367
-1.58641 -0.0999993 -1.5445
-1.56481 -0.104074 -0.422867
-1.51308 -0.0994313 0.688314
-1.42557 -0.0269045 1.80906
-1.40095 0.0249424 2.72393
-1.40535 0.0642199 3.64677
-1.58355 0.147747 -2.51501
-1.578 0.198816 -1.59016
-1.55717 0.20679 -0.458423
-1.4927 0.208564 0.668638
-1.37999 0.27904 1.79938
-1.36945 0.32969 2.71497
-1.38663 0.368657 3.63612
-1.5274 0.692683 -2.63224
-1.4845 0.743027 -1.70954
-1.48658 0.824419 -0.542409
-1.41889 0.846516 0.628404
-1.33977 0.87533 1.79454
-1.34513 0.924712 2.70799
-1.3697 0.969593 3.62077
-1.48279 1.57712 -2.76906
-1.4611 1.63508 -1.83858
-1.45015 1.71896 -0.654611
-1.42807 1.77488 0.540551
-1.39895 1.80999 1.72398
-1.3885 1.8424 2.65332
-1.38933 1.88024 3.57177
-0.82251 -0.133771 -2.46032
-0.812922 -0.0949721 -1.53961
-0.801078 -0.109147 -0.423522
-0.783114 -0.104228 0.681749
-0.720715 -0.0130952 1.79759
-0.701995 0.0352579 2.71614
-0.70509 0.0700424 3.64227
-0.828235 0.146521 -2.51397
-0.676807 0.340564 2.70855
-0.691399 0.374375 3.63273
-0.784105 0.676963 -2.63866
-0.660229 0.927784 2.70902
-0.679312 0.972413 3.62099
-0.740631 1.56754 -2.77541
-0.720554 1.62661 -1.84558
-0.720043 1.71832 -0.658828
-0.715868 1.77743 0.541056
-0.700532 1.81096 1.72759
-0.692557 1.84272 2.65693
-0.690793 1.88071 3.57439
0.75329 -0.13377 -2.46032
0.803778 -0.0949714 -1.53961
0.795681 -0.109145 -0.423522
0.750101 -0.104214 0.681749
0.666811 -0.0130902 1.79759
0.672647 0.035261 2.71614
0.684728 0.0700454 3.64227
0.735883 0.146522 -2.51397
0.667455 0.340566 2.70855
0.683482 0.374377 3.63273
0.698876 0.676964 -2.63867
0.659593 0.927785 2.70903
0.683551 0.972414 3.62099
0.736921 1.56754 -2.77541
0.747112 1.62661 -1.84558
0.735394 1.71832 -0.658828
0.704717 1.77743 0.541056
0.686073 1.81095 1.72759
0.689174 1.84272 2.65693
0.699607 1.88071 3.57439
1.53398 -0.136921 -2.46367
1.5796 -0.0999961 -1.5445
1.56694 -0.104069 -0.422867
1.50101 -0.0994153 0.688314
1.40223 -0.0268933 1.80906
1.38254 0.0249496 2.72393
1.3909 0.0642256 3.64677
1.51931 0.14775 -2.51501
1.57651 0.19882 -1.59016
1.56506 0.206793 -0.458423
1.50086 0.208578 0.668638
1.38766 0.27905 1.79938
1.36942 0.329696 2.71498
1.3843 0.368662 3.63613
1.4713 0.692686 -2.63224
1.4876 0.743033 -1.70954
1.49693 0.824425 -0.542409
1.42994 0.846501 0.628404
1.35305 0.875331 1.79454
1.35499 0.924714 2.70799
1.3796 0.969595 3.62077
1.48026 1.57713 -2.76906
1.48505 1.63508 -1.83858
1.46882 1.71896 -0.654612
1.42769 1.77487 0.54055
1.39563 1.80999 1.72398
1.39278 1.8424 2.65332
1.403 1.88024 3.57177
-0.779106 0.454746 -1.67435
0 0.191501 -1.5985
-0.814076 0.203845 -1.02351
-0.691793 0.59 1.8436
0 0.300682 1.78824
-0.734159 0.237425 1.22243
0 0.761275 -1.78178
-0.75301 0.802587 -1.13755
0 0.887837 1.81254
-0.687733 0.897648 1.21225
0.779141 0.454746 -1.67439
0.814042 0.203879 -1.02351
0.691719 0.59 1.84353
0.734154 0.23743 1.22243
0.753026 0.802604 -1.13755
0.687735 0.89765 1.21225
-0.797726 0.197027 0.09946
-0.807291 0.510171 -0.506063
0 0.192908 -0.462027
-0.787311 0.528225 0.642873
-1.09608e-05 0.199744 0.660947
-0.70594 0.835686 0.03735
5.86895e-06 0.967634 -0.5501
-1.24096e-05 1.1538 0.6248
0.797891 0.196862 0.09946
0.807292 0.510177 -0.506063
0.787291 0.528224 0.642873
0.705932 0.835679 0.03735
-0.887429 0.482459 -1.08053
-0.791747 0.519198 0.068405
-0.886902 0.559113 1.21734
0 0.192121 -1.02351
-5.48041e-06 0.1938 0.09946
-5.48041e-06 0.229604 1.22243
0 0.454746 -2.02457
0 0.59 1.99086
2.93447e-06 0.901206 -1.13755
-3.27033e-06 1.15024 0.03735
-6.20481e-06 1.04038 1.21225
0.887452 0.482462 -1.08053
0.791744 0.5192 0.068405
0.886921 0.559112 1.21734
-1.20125 0.201908 -1.58758
-0.818714 0.0550139 -1.56231
-0.826371 0.17576 -2.04949
-1.0175 0.29202 1.79165
-0.687857 0.145952 1.79075
-0.665903 0.322782 2.24624
-1.08975 0.72376 -1.71727
-0.739553 0.690728 -2.18183
-0.707777 1.16555 -1.78529
-0.982387 0.875165 1.79712
-0.642614 0.901392 2.25436
-0.662766 1.34298 1.76365
0.814142 0.0550143 -1.56231
0.780194 0.175761 -2.04949
1.20051 0.20191 -1.58758
0.660905 0.145955 1.79075
0.661227 0.322783 2.24624
1.02133 0.292025 1.79165
0.696938 0.690729 -2.18183
0.721056 1.16555 -1.78529
1.0913 0.723763 -1.71727
0.642296 0.901392 2.25436
0.655537 1.34298 1.76365
0.989024 0.875166 1.79712
-1.18379 0.201355 -0.460225
-0.805748 0.0433866 -0.442775
-1.13706 0.205161 0.664792
-0.782263 0.0487646 0.671348
-1.11067 0.824421 -0.546254
-0.727402 1.27137 -0.604464
-1.05188 0.850605 0.626602
-0.700365 1.31606 0.582928
0.803049 0.0433878 -0.442775
1.18774 0.201357 -0.460225
0.765745 0.0487826 0.671348
1.14113 0.205178 0.664792
0.735083 1.27138 -0.604464
1.11585 0.824429 -0.546254
0.694777 1.31605 0.582928
1.05739 0.850585 0.626602
-1.58798 -0.118462 -2.00409
-1.58655 0.00541107 -2.48934
-1.20603 -0.135348 -2.462
-1.57561 -0.102037 -0.983682
-1.58221 0.0494083 -1.56733
-1.19967 -0.0974857 -1.54205
-1.53894 -0.101753 0.132723
-1.56099 0.0513578 -0.440645
-1.18294 -0.106611 -0.423194
-1.46932 -0.0631679 1.24869
-1.50289 0.0545665 0.678476
-1.1481 -0.10183 0.685031
-1.41326 -0.000981071 2.2665
-1.40278 0.126068 1.80422
-1.07314 -0.0199999 1.80333
-1.40315 0.0445812 3.18535
-1.3852 0.177316 2.71945
-1.05147 0.0301001 2.72004
-1.39599 0.216439 3.64145
-1.05522 0.0671312 3.64452
-1.58078 0.173281 -2.05258
-1.55548 0.420215 -2.57362
-1.20589 0.147134 -2.51449
-1.56759 0.202803 -1.02429
-1.53125 0.470921 -1.64985
-1.52494 0.207677 0.105108
-1.52188 0.515605 -0.500416
-1.43635 0.243802 1.23401
-1.4558 0.52754 0.648521
-1.37472 0.304365 2.25718
-1.35988 0.577185 1.79696
-1.37804 0.349174 3.17555
-1.35729 0.627201 2.71148
-1.02313 0.335127 2.71176
-1.37816 0.669125 3.62845
-1.03901 0.371516 3.63443
-1.50595 0.717855 -2.17089
-1.5051 1.1349 -2.70065
-1.15575 0.684823 -2.63545
-1.48554 0.783723 -1.12598
-1.4728 1.18905 -1.77406
-1.45274 0.835468 0.0429976
-1.46837 1.27169 -0.59851
-1.37933 0.860923 1.21147
-1.42348 1.3107 0.584477
-1.34245 0.900021 2.25127
-1.36936 1.34266 1.75926
-1.35742 0.947153 3.16438
-1.36681 1.38356 2.68066
-1.00268 0.926248 2.70851
-1.37952 1.42492 3.59627
-1.02451 0.971003 3.62088
-1.47195 1.6061 -2.30382
-1.11171 1.57233 -2.77223
-1.45562 1.67702 -1.2466
-1.09083 1.63084 -1.84208
-1.43911 1.74692 -0.0570303
-1.0851 1.71864 -0.65672
-1.41351 1.79244 1.13226
-1.07197 1.77616 0.540804
-1.39373 1.8262 2.18865
-1.04974 1.81047 1.72578
-1.38892 1.86132 3.11255
-1.04053 1.84256 2.65513
-1.04006 1.88047 3.57308
-0.817716 -0.114372 -1.99997
-0.825372 0.00637494 -2.48715
-0.0346099 -0.13377 -2.46032
-0.807 -0.10206 -0.981566
-0.00457188 -0.0949718 -1.53961
-0.792096 -0.106687 0.129113
-0.0026986 -0.109146 -0.423522
-0.751915 -0.0586615 1.23967
-0.0165069 -0.104221 0.681749
-0.711355 0.0110813 2.25687
-0.026952 -0.0130927 1.79759
-0.703543 0.0526502 3.1792
-0.689401 0.187911 2.71235
-0.0146741 0.0352595 2.71614
-0.698245 0.222209 3.6375
-0.0101815 0.0700439 3.64227
-0.80617 0.411742 -2.57632
-0.0461761 0.146521 -2.51397
-0.684103 0.35747 3.17064
-0.668518 0.634174 2.70879
-0.00467601 0.340565 2.70855
-0.685356 0.673394 3.62686
-0.00395841 0.374376 3.63273
-0.762368 1.12225 -2.70704
-0.0426147 0.676964 -2.63866
-0.669771 0.950099 3.16501
-0.676393 1.38525 2.68298
-0.000318222 0.927785 2.70903
-0.685052 1.42656 3.59769
0.00211969 0.972414 3.62099
-0.730593 1.59707 -2.31049
-0.00185505 1.56754 -2.77541
-0.720299 1.67246 -1.2522
0.0132787 1.62661 -1.84558
-0.717956 1.74788 -0.0588857
0.00767519 1.71832 -0.658828
-0.7082 1.79419 1.13432
-0.00557527 1.77743 0.541056
-0.696545 1.82684 2.19226
-0.00722951 1.81095 1.72759
-0.691675 1.86171 3.11566
-0.00169153 1.84272 2.65693
0.00440692 1.88071 3.57439
0.778534 -0.114371 -1.99997
0.744587 0.00637608 -2.48715
1.14364 -0.135346 -2.462
0.799729 -0.102058 -0.981566
1.19169 -0.0974838 -1.54205
0.772891 -0.106679 0.129113
1.18131 -0.106607 -0.423194
0.708456 -0.058652 1.23967
1.12556 -0.101815 0.685031
0.669729 0.0110854 2.25687
1.03452 -0.0199917 1.80333
0.678687 0.0526532 3.1792
0.670051 0.187914 2.71235
1.02759 0.0301053 2.72004
0.684105 0.222211 3.6375
1.03781 0.0671355 3.64452
0.717379 0.411743 -2.57632
1.1276 0.147136 -2.51449
0.675469 0.357472 3.17064
0.663524 0.634176 2.70879
1.01844 0.335131 2.71176
0.683517 0.673396 3.62686
1.03389 0.37152 3.63443
0.717899 1.12225 -2.70704
1.08509 0.684825 -2.63545
0.671572 0.9501 3.16501
0.674383 1.38525 2.68298
1.00729 0.926249 2.70851
0.691579 1.42656 3.59769
1.03158 0.971005 3.62088
0.742017 1.59708 -2.31049
1.10859 1.57233 -2.77223
0.741253 1.67246 -1.2522
1.11608 1.63085 -1.84208
0.720055 1.74787 -0.0588858
1.10211 1.71864 -0.65672
0.695395 1.79419 1.13432
1.0662 1.77615 0.540803
0.687624 1.82683 2.19226
1.04085 1.81047 1.72578
0.69439 1.86171 3.11566
1.04098 1.84256 2.65513
1.0513 1.88047 3.57308
1.55679 -0.118459 -2.00409
1.52665 0.00541422 -2.48934
1.57327 -0.102033 -0.983682
1.57806 0.0494118 -1.56733
1.53398 -0.101742 0.132723
1.566 0.0513618 -0.440645
1.45162 -0.0631543 1.24869
1.50094 0.0545813 0.678476
1.39239 -0.000971834 2.2665
1.39495 0.126078 1.80422
1.38672 0.0445876 3.18535
1.37598 0.177323 2.71945
1.3876 0.216444 3.64145
1.54791 0.173285 -2.05258
1.49531 0.420218 -2.57362
1.57079 0.202806 -1.02429
1.53205 0.470926 -1.64985
1.53296 0.207685 0.105108
1.531 0.515609 -0.500416
1.44426 0.243814 1.23401
1.4654 0.52754 0.648521
1.37854 0.304373 2.25718
1.37036 0.577191 1.79696
1.37686 0.349179 3.17555
1.36221 0.627205 2.71148
1.38195 0.669129 3.62845
1.47945 0.71786 -2.17089
1.47578 1.13491 -2.70065
1.49226 0.783729 -1.12598
1.48632 1.18906 -1.77406
1.46343 0.835463 0.0429975
[...]
POINT_DATA 29498
VECTORS point_vectors float
-1.75148 -2.25384 6.71273
0.0159148 0.125367 0.390398
-1.01644 1.58637 2.13237
0.00173703 -0.150525 0.587819
1.74969 -2.25188 6.71128
-0.0165053 0.123085 0.390455
1.00275 1.60881 2.12927
-0.00247211 -0.149971 0.583392
0.00989557 0.00441299 1.12291
0.042646 -0.0124348 0.434784
-0.288015 -0.1579 0.647492
5.34087e-17 7.12175e-17 1.48758e-16
-0.0100647 0.00435847 1.12345
-0.0422168 -0.0121517 0.432329
0.289874 -0.158278 0.650819
0 0 0
-0.74473 -0.326715 19.959
-1.04349 -0.517303 20.6865
-0.367815 -0.240864 21.1381
0.0496497 -0.0678265 21.2329
0.594162 0.234887 21.1896
0.817442 0.303457 20.8275
0.920929 0.146862 20.2703
-0.833587 -0.209384 19.8617
-1.38197 -0.414141 20.6639
-0.459422 -0.273813 21.198
0.0124935 -0.165637 21.2874
0.852638 0.0828079 21.2429
1.0338 0.157186 20.8115
0.978235 -0.0533568 20.7386
-0.857797 0.094018 19.7309
-1.81835 0.249044 20.4052
-0.871537 -0.135531 21.2081
-0.248355 -0.21272 21.4004
0.680266 -0.44795 21.275
0.864123 -0.51249 20.8228
0.79599 -0.462101 20.5249
-0.460865 0.340637 19.9346
-0.761973 0.598317 20.2818
-0.680266 0.421641 20.8956
-0.28842 0.0795328 21.205
0.111437 -0.263144 21.0705
0.240305 -0.394938 20.828
0.227487 -0.340166 20.6784
-1.02975 -1.09788 19.2034
-1.45645 -2.53891 21.5647
-0.342093 -0.302451 21.2739
0.123913 0.121334 20.3355
0.459886 1.16162 17.8662
0.63955 1.33206 17.2162
0.846075 1.02544 17.1202
-1.30258 -0.775008 18.7046
0.97748 1.26993 7.75904
1.52658 0.944626 11.1966
-1.1443 0.3221 18.5314
0.855379 -0.592921 8.94234
1.00652 -0.794908 13.6698
-0.440012 0.663031 19.5502
-0.820999 1.49004 20.0443
-0.842003 1.21715 20.9483
-0.364804 0.357306 21.5583
0.0745838 -0.40151 21.2287
0.174652 -0.59775 20.8976
0.181627 -0.583792 20.713
0.998228 -1.19839 19.1093
1.43854 -2.56302 21.5812
0.34231 -0.305575 21.2931
-0.115363 0.132287 20.0545
-0.341256 1.1341 17.2448
-0.576731 1.33366 17.0569
-0.826545 1.04845 17.0037
1.28464 -0.920189 18.4671
-0.93687 1.26456 7.57171
-1.53537 0.962054 11.0136
1.11036 0.339591 18.3569
-0.851086 -0.591521 8.9011
-1.00674 -0.787695 13.7441
0.433816 0.668642 19.5478
0.835797 1.45205 20.0514
0.845812 1.19201 20.9487
0.361405 0.363816 21.5647
-0.073264 -0.403105 21.232
-0.174359 -0.597805 20.8979
-0.183508 -0.580934 20.7153
0.772603 -0.356253 19.946
1.05317 -0.523276 20.6893
0.371165 -0.244517 21.1341
-0.0477013 -0.0709545 21.2357
-0.614208 0.256191 21.2023
-0.830828 0.310567 20.8322
-0.919102 0.179022 20.271
0.904775 -0.234596 19.8124
1.38862 -0.413422 20.6684
0.459473 -0.266588 21.197
-0.0113181 -0.161331 21.2855
-0.842525 0.080429 21.2428
-1.03321 0.159727 20.8139
-0.982474 -0.0456499 20.7239
0.858898 0.101483 19.6879
1.80708 0.249816 20.4033
0.85711 -0.128426 21.1998
0.24612 -0.210341 21.3848
-0.667907 -0.433292 21.2702
-0.857102 -0.502401 20.8289
-0.795263 -0.454916 20.5256
0.475307 0.350281 19.9437
0.761058 0.588239 20.2897
0.673316 0.410474 20.8951
0.287697 0.0780719 21.2067
-0.111786 -0.264763 21.072
-0.240573 -0.394997 20.8266
-0.227527 -0.338697 20.6662
0 0 0
-1.46657e-05 -0.0014768 0.0183945
-0.0708744 0.0374773 0.665113
-0.00354168 0.00311378 0.00116086
-1.41122e-05 0.00145453 0.00777902
0.000765333 0.00201001 0.0550464
3.2743e-05 0.00638148 0.0181931
-0.428635 -0.119313 1.62914
-7.14378e-05 0.00105684 -0.00744388
0.0878898 0.0345645 0.498464
0 0 0
0.0706314 0.0372479 0.660581
0.00329739 0.00312447 0.00133016
-0.00116683 0.00272037 0.0784178
0.431175 -0.120091 1.63373
-0.087513 0.034797 0.494552
0.0269808 -0.00629107 0.70837
0.000283869 -5.32259e-05 0.00650109
-1.99891e-07 1.96353e-07 4.11004e-05
0 0 0
2.87863e-06 0.000165338 0.0149204
0 0 0
0.0007484 0.0120482 0.0289803
5.26975e-06 -0.000374323 0.0104258
-0.0272555 -0.00698898 0.718649
-0.000282244 -5.62772e-05 0.00646399
0 0 0
0 0 0
-6.36047e-05 5.23379e-05 0.00894677
0.000115848 0.000637409 0.00409742
0 0 0
9.92739e-08 -2.75573e-08 -8.93796e-06
-2.26074e-09 1.96139e-07 3.97412e-05
0 0 0
0.00067995 -0.0807453 0.169753
0 0 0
4.03526e-06 0.000131371 0.00119599
-1.40982e-05 0.00125683 0.0144388
2.28024e-06 -0.000299531 0.00166692
7.67305e-05 6.26902e-05 0.0152003
-0.000117203 0.000639646 0.00415081
0 0 0
-2.61305 -1.20543 20.9617
-2.2649 -3.88191 22.2793
-3.28107 -2.54239 18.1257
1.41204 0.646779 16.8165
0.11086 1.24413 10.0889
0.182442 0.813685 5.05442
-3.85485 1.11096 20.1156
-3.09787 1.32077 16.9169
-1.91114 2.80818 19.8368
1.17434 -0.581458 17.4025
0.279039 -0.264163 5.04031
0.270065 -0.717717 20.3174
2.22552 -3.93606 22.3376
3.38442 -2.82506 17.7883
2.61944 -1.20876 20.9621
-0.0328891 1.18433 9.64343
-0.152523 0.794396 4.93423
-1.41088 0.627241 17.0311
3.07766 1.46296 16.5446
1.93041 2.76038 19.8436
3.87319 1.11556 20.1166
-0.270949 -0.258113 4.9925
-0.279156 -0.711725 20.2105
-1.17611 -0.596007 17.6713
-0.311115 -0.401444 21.3622
-0.279022 0.0383389 16.5291
0.109937 -0.23923 20.2145
0.476736 0.122909 14.8501
-1.34133 -0.571346 21.3075
-1.9955 1.53252 21.0511
-0.32141 -0.346565 19.2163
-0.670007 0.330969 21.4252
0.277103 0.035279 16.4512
0.319658 -0.403587 21.3905
-0.471407 0.137996 14.5451
-0.108157 -0.237314 20.2696
1.9914 1.50374 21.0591
1.33271 -0.569835 21.2788
0.656337 0.335158 21.3862
0.326908 -0.368026 19.3954
-1.01488 -0.468467 20.2175
-0.808931 -0.282557 19.9048
-0.955956 -0.616179 19.6881
-0.703437 -0.388024 21.0579
-1.1795 -0.492297 20.6724
-1.48162 -1.18793 20.9387
-0.146422 -0.145626 21.1847
-0.418802 -0.26638 21.1529
-0.316499 -0.302578 21.3492
0.287393 0.0560274 21.2549
0.0275024 -0.12469 21.2594
0.126236 -0.0460428 21.3609
0.735188 0.294495 21.0317
0.712677 0.172908 21.2408
0.830518 0.693133 20.7926
0.780545 0.253669 20.7248
0.969415 0.253002 20.8061
1.04942 0.803807 20.3905
0.974749 0.0141002 20.4244
1.03913 0.632193 20.0376
-1.25878 -0.346064 20.1103
-0.87748 -0.0545053 19.7618
-1.13363 -0.449286 19.4309
-0.912258 -0.354898 21.1283
-1.62902 -0.148521 20.5408
-0.199202 -0.21478 21.2108
-0.635995 -0.261841 21.2172
0.355291 -0.0723113 21.4201
-0.107815 -0.235686 21.3739
0.983518 0.120224 21.0457
0.878419 -0.216827 21.2776
0.965994 0.0599533 20.8464
1.07156 -0.261228 20.7661
1.51454 0.541172 18.0899
0.84189 -0.293102 21.0086
1.32488 0.316411 18.3429
-1.39092 0.175664 19.8645
-0.682708 0.296171 19.7994
-1.07904 0.194368 19.2631
-1.36761 0.0634722 21.0915
-1.2724 0.614376 20.2887
-0.546792 -0.23023 21.3032
-0.925478 0.225021 21.0621
0.18563 -0.277358 21.5137
-0.334663 -0.0611023 21.3291
0.807525 -0.496553 21.0632
0.290932 -0.401829 21.1862
0.844182 -0.461655 20.7799
0.457719 -0.531282 20.9156
1.15366 -0.792172 18.782
0.415256 -0.44663 20.5195
0.926716 -0.6765 19.8565
-0.632847 0.483887 20.0423
-0.504301 0.510763 19.7585
-0.773464 0.564332 20.6346
-0.892515 0.997628 20.1631
-0.52535 0.257813 21.0873
-0.849738 0.730694 20.9539
-0.0622081 -0.105996 21.1751
-0.353099 0.191774 21.3587
0.197338 -0.325077 20.9901
0.109727 -0.342149 21.1642
0.26992 -0.383662 20.7188
0.236267 -0.48616 20.874
0.307619 -0.465974 20.7931
-1.72725 -2.31324 19.6451
-1.18914 -0.975324 18.9391
-0.065512 -1.89131 18.4798
-0.673542 -0.891156 21.8685
0.00220854 -2.47797 22.2899
-0.121342 -0.0845933 20.7462
-0.00119245 -0.27568 20.6116
0.345319 0.531707 18.9771
0.000197758 0.194489 19.2085
0.511246 1.25137 17.525
-0.00438993 0.856275 15.9707
0.794984 1.3565 17.5491
0.766682 1.47256 13.0266
-0.0235545 0.91459 14.9302
1.21928 1.00549 13.8113
0.00994702 1.06974 14.5159
-1.34525 -0.221103 18.419
-0.13292 -1.59172 17.253
1.38258 1.2628 10.1191
1.30284 0.24916 5.04032
-0.0136075 -0.107074 -0.082763
1.63762 0.0708977 10.7071
0.00963076 0.493661 3.17798
-0.796405 0.719538 19.073
-0.0924844 0.607119 17.3485
1.21688 -0.800818 12.343
0.31132 -0.953526 20.6487
6.89593e-05 -0.319364 1.03544
0.261563 -0.847922 20.5217
-0.00990658 -0.802365 5.30667
-0.659043 1.12583 19.6283
0.000267946 0.870707 19.3666
-0.858231 1.41493 20.6325
0.0176872 2.03372 19.9321
-0.727828 0.929659 21.3766
0.0138927 1.86339 20.8983
-0.0750947 -0.11287 21.4529
-0.00291942 0.602756 21.8074
0.130913 -0.52252 21.0563
0.000303672 -0.457511 21.2595
0.180961 -0.602633 20.6819
0.000356527 -0.66191 20.9524
-0.00114613 -0.559723 20.6788
1.69455 -2.47224 19.6285
1.18154 -1.13476 18.777
0.983993 -0.670732 19.6108
0.668226 -0.899435 21.8853
1.49119 -1.209 20.9411
0.116869 -0.084209 20.5238
0.318734 -0.301442 21.3466
-0.307787 0.537914 18.7206
-0.133248 -0.0358304 21.3536
-0.432943 1.22882 17.2309
-0.839587 0.767788 20.6595
-0.73823 1.34973 17.4333
-0.695135 1.45826 12.6527
-1.07401 0.854029 20.1738
-1.20902 1.02214 13.7242
-1.03405 0.661268 20.0386
1.3351 -0.260946 18.1762
1.1758 -0.500972 19.3166
-1.36027 1.25739 9.86759
-1.28997 0.255775 4.84775
-1.51553 0.549632 17.9532
-1.63968 0.0724239 10.6778
-1.31857 0.324309 18.3423
0.747664 0.767697 19.0098
1.13544 0.180958 19.1326
-1.21951 -0.802019 12.3877
-0.311076 -0.953027 20.6476
-1.1512 -0.791536 18.8662
-0.267008 -0.84685 20.5199
-0.923199 -0.670533 19.9613
0.665779 1.11337 19.6354
0.506496 0.51023 19.7518
0.875037 1.38784 20.6369
0.900213 0.976205 20.1681
0.727647 0.925944 21.3753
0.845339 0.714174 20.9524
0.0724979 -0.114259 21.459
0.352883 0.193372 21.3602
-0.12977 -0.524557 21.0595
-0.109968 -0.343952 21.1646
-0.181852 -0.600276 20.6826
-0.237164 -0.485849 20.874
-0.305464 -0.459535 20.7876
1.04016 -0.491857 20.2207
0.863952 -0.32082 19.8798
0.707148 -0.391591 21.059
1.19352 -0.493654 20.6769
0.143632 -0.146832 21.189
0.422219 -0.265888 21.1486
-0.295987 0.0624515 21.2685
-0.0259422 -0.125944 21.262
-0.740729 0.317737 21.0314
-0.718569 0.172735 21.2418
-0.785843 0.26796 20.7281
-0.978926 0.25714 20.804
-0.979566 0.026999 20.4058
1.31714 -0.364073 20.1006
0.919234 -0.0811094 19.7129
0.912277 -0.35076 21.1277
1.62876 -0.149243 20.5477
0.202038 -0.213256 21.2115
0.637677 -0.25485 21.2161
-0.350728 -0.0710911 21.4151
0.107196 -0.230689 21.3699
-0.976063 0.119312 21.0481
-0.860217 -0.212398 21.2796
-0.967331 0.0588002 20.8479
-1.06138 -0.256971 20.7769
-0.844099 -0.293103 21.018
1.42745 0.197939 19.8245
0.69184 0.303518 19.784
1.35652 0.0647682 21.0832
1.2452 0.58622 20.2931
0.541808 -0.22425 21.2897
0.911823 0.216586 21.0557
-0.18485 -0.272091 21.4994
0.332776 -0.0620178 21.3252
-0.800172 -0.48302 21.0599
-0.289134 -0.398975 21.1838
-0.834279 -0.453053 20.7893
-0.453583 -0.526541 20.9167
-0.415314 -0.439288 20.5107
0.637454 0.487053 20.0587
0.768068 0.55231 20.6395
0.521818 0.251678 21.0859
0.0624413 -0.107818 21.1767
-0.198418 -0.326145 20.9902
-0.271576 -0.37885 20.7239
-1.13383 -0.442589 20.1586
-2.41341 -2.64135 19.0216
-1.44159 -1.04869 20.0425
-2.05353 -0.907418 19.6278
-1.0633 -0.540245 19.5432
-2.00029 -1.29537 20.9685
-0.802542 -0.387662 21.0818
-0.715848 -0.458255 18.6216
-0.754837 -0.646879 21.4165
-1.08257 -0.709836 21.7846
-0.31037 -0.331073 21.4217
-0.179723 -0.190362 21.1935
0.0865116 0.0649433 15.2728
-0.0820032 -0.159968 21.326
-0.0249134 -0.244027 20.8135
0.165979 -0.128908 21.0943
0.330408 -0.00682485 21.3405
0.427139 0.505162 12.4213
0.449389 0.245177 21.332
0.579061 0.0237338 18.8801
1.1658 0.731553 19.4297
0.883181 0.206945 21.0329
0.401577 1.26564 11.3969
0.943292 0.757944 20.658
1.49795 0.597838 17.3672
1.27796 0.742212 19.1519
0.869582 0.13889 20.9032
1.07787 1.4826 14.5251
0.919417 0.599109 20.3967
1.57078 0.445564 18.1603
1.182 0.474302 19.1902
-1.38636 -0.0923398 19.9755
-4.00423 -0.592989 16.5403
-2.20209 0.481498 19.0685
-1.18701 -0.111408 19.2547
-3.87768 -0.38402 20.5963
-1.16212 -0.220169 21.1527
-2.1859 0.153508 21.8245
-0.483857 -0.632181 20.882
-0.325009 -0.270568 21.2723
-0.827784 -0.801507 20.4852
-0.0969677 -0.213136 17.9062
0.300103 -0.202378 21.5018
0.425733 -0.0836665 18.8965
1.50655 0.0818142 14.9947
1.02021 -0.252816 21.0512
0.276542 0.194186 2.08364
1.13931 -0.707139 18.3855
1.65912 -0.153312 16.6823
1.01269 -0.276737 20.6984
1.75018 0.0923547 8.37521
1.07741 -0.778478 19.2388
1.26792 -0.112508 18.0827
-1.02434 0.484004 19.9198
-1.38015 1.64163 18.8914
-0.733557 0.802204 19.8455
-0.805339 0.491871 19.4606
-1.78218 1.35782 20.1169
-1.169 0.468853 20.8238
-1.74513 1.91379 21.0232
-0.929411 0.951163 20.6569
-1.40985 0.507052 21.1754
-0.683858 0.0617879 21.2378
-1.86637 1.11116 21.8975
-0.666879 0.491253 21.2333
-0.547368 0.0299168 21.6527
0.0204349 -0.215086 21.3412
0.0843067 -0.330703 20.9967
-0.0713427 -0.108294 21.3213
0.28374 -0.614832 21.3607
0.409013 -0.477357 21.0293
0.270472 -0.840373 20.6142
0.187599 -0.443582 21.0172
0.438436 -0.747454 20.9143
0.436194 -0.49164 20.6977
0.364126 -0.915888 20.6564
0.229876 -0.512013 20.7765
0.478538 -0.663761 20.7741
2.43737 -2.88711 18.8993
-0.0415447 -4.20588 19.8617
-0.0908209 -10.3916 15.9973
-0.10325 -1.90551 17.8654
-0.0122299 -1.9009 19.6612
0.717524 -0.456632 18.5069
7.08573e-05 -0.811538 21.6431
-0.00196576 0.012598 12.9207
-0.0929042 0.0605437 15.01
-0.00232318 -0.0391678 19.6471
-0.000543229 0.210188 11.9771
-0.386704 0.49387 12.0171
-0.000597522 0.492517 17.5175
-0.0163909 0.628899 7.34789
-0.310731 1.21409 10.9579
-0.025641 0.79099 15.649
-0.0195617 -0.710306 0.178923
-0.0176654 0.503964 7.28222
-1.01956 1.46917 14.1968
-0.017737 1.13167 15.2395
0.00230667 -0.0622225 1.82533
0.00978889 0.781698 8.84694
4.14595 -0.672572 15.9754
-0.141075 3.70652 13.2558
-0.116928 -0.408963 16.7747
-0.246092 0.1969 2.01755
-0.00585253 0.646954 -0.0904021
0.0187635 -0.465953 -3.38358
-1.74208 0.0938566 8.29284
-0.00257116 -0.661399 3.06878
0.0109384 -0.0620485 0.768106
1.36946 1.68823 18.8676
0.00674286 1.49437 19.3985
-0.0293543 1.06309 18.5891
0.0172436 4.20333 19.6454
1.74916 1.88535 21.0229
0.0139148 1.95947 20.5831
0.0117928 3.23701 20.5769
1.86668 1.11175 21.8998
0.00275583 1.56183 21.5523
-0.00269565 0.600686 20.468
-0.100561 -0.325712 20.8899
-0.000336132 -0.105401 21.6003
-0.000114416 -0.749278 16.1915
-0.272562 -0.837978 20.5613
0.000801659 -0.573222 21.0697
-8.06373e-05 -0.972121 18.4812
-0.364699 -0.91437 20.6524
-0.000863097 -0.774104 20.7521
-0.00312605 -0.959296 17.6803
1.17135 -0.463319 20.1547
1.4818 -1.13207 20.0114
2.19606 -0.987192 19.5317
1.09066 -0.600121 19.4491
2.01396 -1.31126 20.9737
0.804367 -0.388476 21.0811
0.756879 -0.65172 21.4178
1.08645 -0.707386 21.7772
0.314224 -0.330329 21.4124
0.178658 -0.190556 21.1997
0.0809843 -0.156502 21.3234
0.0316818 -0.247411 20.8587
-0.169591 -0.122374 21.032
-0.331053 -0.00540682 21.3463
-0.45934 0.283539 21.2202
-0.577141 0.021569 18.985
-1.17806 0.772102 19.2087
-0.888916 0.212033 21.0336
-0.953316 0.808463 20.5997
-1.49501 0.595085 17.3527
-1.28692 0.764218 19.0155
-0.877278 0.141295 20.9186
-0.947524 0.65389 20.1456
-1.5704 0.460265 18.0962
-1.17631 0.492788 19.1905
1.43997 -0.112421 19.9456
2.31957 0.54797 18.9693
1.22864 -0.115277 19.123
3.86562 -0.379435 20.5987
1.15578 -0.216296 21.1501
2.18183 0.150508 21.8205
0.492134 -0.623867 20.9261
0.327045 -0.26562 21.2681
0.817602 -0.779699 20.4844
0.0990119 -0.224958 18.078
-0.294016 -0.198995 21.4979
-0.416796 -0.135034 19.1284
-1.50907 0.0811074 15.4299
-1.00554 -0.248326 21.0544
-1.13979 -0.715335 18.5557
-1.65745 -0.152855 16.6963
-1.00632 -0.274705 20.6958
-1.06697 -0.77706 19.3458
-1.26379 -0.111582 18.0978
1.00956 0.481785 19.9181
0.73785 0.796086 19.857
0.802172 0.505239 19.4306
1.76658 1.31217 20.1275
1.14807 0.452237 20.8195
0.927979 0.929412 20.6567
1.39234 0.484624 21.1728
0.674592 0.0592457 21.2331
0.664608 0.486545 21.2298
0.548489 0.0316978 21.6516
-0.0193197 -0.215899 21.3376
0.0707434 -0.108687 21.3234
-0.282947 -0.614662 21.3589
-0.404927 -0.472254 21.0279
-0.188306 -0.445816 21.0163
-0.4382 -0.745249 20.9126
-0.433322 -0.485506 20.6977
-0.231763 -0.513243 20.7775
-0.479886 -0.658151 20.7856
-1.79745 -1.04921 19.827
-0.89632 -0.679859 21.5603
-0.041825 -0.196935 21.2815
0.585546 0.178244 20.6097
1.26302 0.724997 19.2239
1.27169 0.640894 19.0071
-2.45421 -0.228066 19.1763
-1.6666 -0.525247 22.1765
-0.0566567 -0.522102 19.2573
0.38165 0.0113782 17.8049
1.55811 -0.0887989 16.3344
1.72319 -0.256568 17.5836
-1.31539 0.907532 19.533
-1.57963 0.962747 20.9735
-1.13006 0.253761 21.5038
-0.0272894 -0.272369 21.6264
0.374576 -0.704106 21.122
0.47237 -0.710267 20.6893
-0.0415949 -6.24273 19.1785
-0.00466552 -0.198898 14.3465
-0.00244588 0.0825151 12.1324
0.000876354 0.371238 9.67427
-0.048878 0.162081 7.12024
-0.00875108 0.646879 7.65672
-0.254935 -1.00992 9.95941
-0.00366937 -0.142704 -3.05399
0.0204984 -0.874311 -2.56856
-0.0234149 2.67457 18.1258
0.0158624 3.06828 20.8812
0.000757752 2.77987 21.6649
0.00134848 -0.519704 18.1222
-0.000302898 -0.791402 17.5846
-0.000914583 -0.94092 18.4474
1.85774 -1.14173 19.7774
0.899056 -0.685209 21.5637
0.0431162 -0.192408 21.2586
-0.593811 0.191149 20.4158
-1.26003 0.766513 19.0014
-1.28051 0.674642 18.8443
2.62043 -0.216718 19.0226
1.66104 -0.518518 22.1738
0.066604 -0.519416 19.3925
-0.382704 -0.00703968 18.0053
-1.55813 -0.0921458 16.4933
-1.72028 -0.251714 17.6022
1.365 0.957153 19.4934
1.56873 0.933877 20.9714
1.12406 0.250938 21.4966
0.0283397 -0.271549 21.6253
-0.374068 -0.702594 21.1197
-0.472646 -0.704932 20.688
-0.262426 -0.109378 0.43527
0 0 0
-0.0574043 0.0259998 0.599456
-0.00214808 0.00468191 0.0124066
-0.00306188 0.00406388 0.0136215
-0.0601687 0.0976666 0.64302
-1.73277 0.315243 2.15862
-0.0112411 0.0715932 0.199193
-0.34602 0.265363 2.10907
0.00639591 -0.0019118 0.0441381
-0.00409314 -0.000345656 -2.69281e-05
-0.00246003 -0.0244422 0.341629
0 0 0
0.261057 -0.108536 0.432646
0.0561047 0.0263774 0.599201
0.00295056 0.00392369 0.0134424
0.00178654 0.00455198 0.0130439
0.06025 0.0983025 0.645809
0.00793756 0.0505888 0.143801
1.75017 0.319326 2.17741
0.35132 0.262551 2.10932
0.00376423 -0.000306978 -8.58873e-05
-0.00681111 -0.00167339 0.0446291
0.00265106 -0.023773 0.343862
-0.0614219 0.0630687 1.10918
0.0327138 -0.00667843 1.35482
0 0 0
0 0 0
0.0100126 0.0125436 0.29283
0.0460864 -0.0311476 0.8463
0 0 0
0 0 0
-0.242525 -0.165047 0.597312
-0.00124189 -0.0102773 0.0876769
0 0 0
-0.0384352 0.0229557 0.0709409
0 0 0
0 0 0
0 0 0
0.0225871 -0.00252938 0.157535
0.0617885 0.0623145 1.10631
0 0 0
-0.0327626 -0.00665227 1.35469
-2.77133e-18 2.79882e-19 4.17882e-17
-0.0102263 0.012428 0.292832
0 0 0
-0.0634644 -0.0293358 1.03676
0 0 0
0.242294 -0.164865 0.597206
0.0357117 0.021242 0.0656939
0.00122925 -0.0103305 0.0877386
0 0 0
0 0 0
-0.0225635 -0.00252975 0.157184
0 0 0
0 0 0
0 0 0
-0.0641799 0.016283 0.0377983
-2.60817e-06 -5.79561e-08 0.000186999
0 0 0
-0.000124973 0.00222459 0.0217711
0 0 0
0 0 0
-0.0207809 0.00119631 -0.00482244
-5.23083e-05 0.00776604 0.109073
0 0 0
9.65699e-05 0.0121221 0.113932
8.82429e-06 2.7246e-05 0.000692813
0.17129 0.955253 0.585593
-1.92652e-05 0.0329231 0.151781
-0.0312985 -0.0568982 0.536298
0 0 0
0 0 0
-0.000307405 0.0172627 -0.0696496
0.0203159 -0.0104976 0.182824
0.00299186 -0.00424491 0.0146952
0.0619549 0.0155195 0.0364295
0 0 0
0 0 0
8.31103e-05 0.00156184 0.0152949
0.0208601 0.00121858 -0.00486321
0 0 0
-1.07606e-05 3.1942e-05 0.000813703
-0.000228929 0.0116381 0.111389
0 0 0
0.0320004 -0.05796 0.544624
-0.00309933 -0.00408712 0.0145173
-0.0199311 -0.0104648 0.179376
0 0 0
0 0 0
0 0 0
0.000693427 0.00257723 0.0218052
4.13776e-08 -2.69716e-08 -5.56133e-06
-7.3337e-09 1.63464e-08 3.83055e-06
0.000113895 0.00113867 0.00558822
-0.00393639 -0.00164099 0.0554629
0 0 0
-7.20966e-09 4.72697e-06 0.000161855
0.00836863 0.0164635 0.0736807
-0.023265 0.0304745 0.302778
-3.91513e-06 0.00152447 0.0183821
3.87713e-05 0.0402772 0.132356
1.35715e-05 0.000214071 0.0210512
2.89128e-05 -0.00580047 0.0353998
0 0 0
0 0 0
0 0 0
-0.000738924 0.00270756 0.0230474
-0.000118399 0.00119249 0.00585047
0.0043645 -0.00174059 0.0621186
0.0231779 0.0306788 0.303142
-0.00835301 0.0163665 0.0735832
-0.0246061 -0.00537308 0.422649
-0.649632 -0.219956 2.00356
0 0 0
0 0 0
0 0 0
0.00354931 0.00537437 0.0810147
0 0 0
0.00343742 0.0106185 0.0277749
0.000189437 0.000124427 0.0108971
-0.00370332 0.0677184 0.190249
0.142848 0.0484346 0.409439
0.00560317 -0.0102105 0.0465852
0 0 0
0 0 0
0 0 0
0 0 0
0 0 0
0 0 0
0 0 0
0 0 0
4.3271e-05 5.12884e-05 0.00179774
-4.33266e-05 5.09088e-05 0.00178442
-0.0011328 0.00187027 0.0250069