# vtk DataFile Version 2.0
tri_press
ASCII
DATASET UNSTRUCTURED_GRID
POINTS 3682 float
-0.824506 0.205 -1.585
-0.655 0.305 1.78392
-0.695 0.704493 -1.725
-0.625 0.875 1.7997
0.824506 0.205 -1.585
0.655 0.305 1.78392
0.695 0.704493 -1.725
0.625 0.875 1.7997
-0.810417 0.19592 -0.462027
-0.781412 0.201757 0.660947
-0.73476 0.824422 -0.5501
-0.684862 0.854693 0.6248
0.810417 0.19592 -0.462027
0.78139 0.201779 0.660947
0.734772 0.824434 -0.5501
0.684838 0.854669 0.6248
-1.58955 -0.136925 -2.46367
-1.58641 -0.0999993 -1.5445
-1.56481 -0.104074 -0.422867
-1.51308 -0.0994313 0.688314
-1.42557 -0.0269045 1.80906
-1.40095 0.0249424 2.72393
-1.40535 0.0642199 3.64677
-1.58355 0.147747 -2.51501
-1.578 0.198816 -1.59016
-1.55717 0.20679 -0.458423
-1.4927 0.208564 0.668638
-1.37999 0.27904 1.79938
-1.36945 0.32969 2.71497
-1.38663 0.368657 3.63612
-1.5274 0.692683 -2.63224
-1.4845 0.743027 -1.70954
-1.48658 0.824419 -0.542409
-1.41889 0.846516 0.628404
-1.33977 0.87533 1.79454
-1.34513 0.924712 2.70799
-1.3697 0.969593 3.62077
-1.48279 1.57712 -2.76906
-1.4611 1.63508 -1.83858
-1.45015 1.71896 -0.654611
-1.42807 1.77488 0.540551
-1.39895 1.80999 1.72398
-1.3885 1.8424 2.65332
-1.38933 1.88024 3.57177
-0.82251 -0.133771 -2.46032
-0.812922 -0.0949721 -1.53961
-0.801078 -0.109147 -0.423522
-0.783114 -0.104228 0.681749
-0.720715 -0.0130952 1.79759
-0.701995 0.0352579 2.71614
-0.70509 0.0700424 3.64227
-0.828235 0.146521 -2.51397
-0.676807 0.340564 2.70855
-0.691399 0.374375 3.63273
-0.784105 0.676963 -2.63866
-0.660229 0.927784 2.70902
-0.679312 0.972413 3.62099
-0.740631 1.56754 -2.77541
-0.720554 1.62661 -1.84558
-0.720043 1.71832 -0.658828
-0.715868 1.77743 0.541056
-0.700532 1.81096 1.72759
-0.692557 1.84272 2.65693
-0.690793 1.88071 3.57439
0.75329 -0.13377 -2.46032
0.803778 -0.0949714 -1.53961
0.795681 -0.109145 -0.423522
0.750101 -0.104214 0.681749
0.666811 -0.0130902 1.79759
0.672647 0.035261 2.71614
0.684728 0.0700454 3.64227
0.735883 0.146522 -2.51397
0.667455 0.340566 2.70855
0.683482 0.374377 3.63273
0.698876 0.676964 -2.63867
0.659593 0.927785 2.70903
0.683551 0.972414 3.62099
0.736921 1.56754 -2.77541
0.747112 1.62661 -1.84558
0.735394 1.71832 -0.658828
0.704717 1.77743 0.541056
0.686073 1.81095 1.72759
0.689174 1.84272 2.65693
0.699607 1.88071 3.57439
1.53398 -0.136921 -2.46367
1.5796 -0.0999961 -1.5445
1.56694 -0.104069 -0.422867
1.50101 -0.0994153 0.688314
1.40223 -0.0268933 1.80906
1.38254 0.0249496 2.72393
1.3909 0.0642256 3.64677
1.51931 0.14775 -2.51501
1.57651 0.19882 -1.59016
1.56506 0.206793 -0.458423
1.50086 0.208578 0.668638
1.38766 0.27905 1.79938
1.36942 0.329696 2.71498
1.3843 0.368662 3.63613
1.4713 0.692686 -2.63224
1.4876 0.743033 -1.70954
1.49693 0.824425 -0.542409
1.42994 0.846501 0.628404
1.35305 0.875331 1.79454
1.35499 0.924714 2.70799
1.3796 0.969595 3.62077
1.48026 1.57713 -2.76906
1.48505 1.63508 -1.83858
1.46882 1.71896 -0.654612
1.42769 1.77487 0.54055
1.39563 1.80999 1.72398
1.39278 1.8424 2.65332
1.403 1.88024 3.57177
-0.779106 0.454746 -1.67435
0 0.191501 -1.5985
-0.814076 0.203845 -1.02351
-0.691793 0.59 1.8436
0 0.300682 1.78824
-0.734159 0.237425 1.22243
0 0.761275 -1.78178
-0.75301 0.802587 -1.13755
0 0.887837 1.81254
-0.687733 0.897648 1.21225
0.779141 0.454746 -1.67439
0.814042 0.203879 -1.02351
0.691719 0.59 1.84353
0.734154 0.23743 1.22243
0.753026 0.802604 -1.13755
0.687735 0.89765 1.21225
-0.797726 0.197027 0.09946
-0.807291 0.510171 -0.506063
0 0.192908 -0.462027
-0.787311 0.528225 0.642873
-1.09608e-05 0.199744 0.660947
-0.70594 0.835686 0.03735
5.86895e-06 0.967634 -0.5501
-1.24096e-05 1.1538 0.6248
0.797891 0.196862 0.09946
0.807292 0.510177 -0.506063
0.787291 0.528224 0.642873
0.705932 0.835679 0.03735
-0.887429 0.482459 -1.08053
0.887452 0.482462 -1.08053
0 0.192121 -1.02351
2.93447e-06 0.901206 -1.13755
0 0.454746 -2.02457
-0.791747 0.519198 0.068405
0.791744 0.5192 0.068405
-5.48041e-06 0.1938 0.09946
-3.27033e-06 1.15024 0.03735
-0.886902 0.559113 1.21734
0.886921 0.559112 1.21734
-5.48041e-06 0.229604 1.22243
-6.20481e-06 1.04038 1.21225
0 0.59 1.99086
-0.80572 0.329873 -1.63359
-0.412253 0.196701 -1.5933
-0.816546 0.207168 -1.30426
-0.686314 0.4475 1.82668
-0.3275 0.309504 1.77942
-0.725122 0.24067 1.50318
-0.750018 0.57962 -1.71264
-0.3475 0.742294 -1.7628
-0.743242 0.772777 -1.43128
-0.675214 0.7325 1.83847
-0.3125 0.879565 1.80426
-0.665601 0.895558 1.50598
0.412253 0.196695 -1.5933
0.805763 0.329873 -1.63363
0.816555 0.207158 -1.30426
0.3275 0.309532 1.77939
0.686276 0.4475 1.82664
0.725122 0.24067 1.50318
0.3475 0.741425 -1.76193
0.750058 0.57962 -1.71268
0.743285 0.77282 -1.43128
0.3125 0.879391 1.80409
0.675252 0.7325 1.83851
0.66615 0.896108 1.50598
-0.816128 0.196002 -0.74277
-0.804071 0.196474 -0.181283
-0.787116 0.363915 -0.484045
-0.404897 0.195036 -0.462027
-0.748103 0.229274 0.94169
-0.787459 0.201502 0.380203
-0.789018 0.362663 0.65191
-0.390749 0.200675 0.660947
-0.746934 0.816554 -0.843825
-0.801704 0.682636 -0.528082
-0.718295 0.828 -0.256375
-0.389619 0.940511 -0.5501
-0.680683 0.870557 0.918525
-0.760343 0.703587 0.633837
-0.696359 0.846147 0.331075
-0.412039 1.14345 0.6248
0.816066 0.196064 -0.74277
0.404897 0.195036 -0.462027
0.804071 0.196474 -0.181283
0.787114 0.363919 -0.484045
0.748097 0.22928 0.94169
0.390733 0.200675 0.660947
0.788343 0.200618 0.380203
0.788951 0.362696 0.65191
0.746909 0.816529 -0.843825
0.389657 0.940569 -0.5501
0.8017 0.68264 -0.528082
0.71829 0.827995 -0.256375
0.680604 0.870477 0.918525
0.412017 1.14344 0.6248
0.760334 0.703581 0.633837
0.696349 0.846138 0.331075
-0.876739 0.468603 -1.37744
-0.389553 0.454746 -1.9297
0 0.191867 -1.31101
0 0.323124 -1.96909
-0.872494 0.343152 -1.05202
-0.407038 0.193669 -1.02351
-0.800122 0.574556 1.53047
-0.345896 0.59 1.97803
-2.7402e-06 0.242033 1.50534
0 0.445341 1.92021
-0.872077 0.398269 1.21989
-0.367082 0.22931 1.22243
1.46724e-06 0.855122 -1.45967
0 0.608011 -1.98856
-0.884923 0.642523 -1.10904
-0.376504 0.831573 -1.13755
-3.1024e-06 0.940918 1.51239
0 0.738918 1.99402
-0.854544 0.728381 1.2148
-0.34387 1.02551 1.21225
0.876719 0.468604 -1.37746
0.389571 0.454746 -1.92969
0.872356 0.343171 -1.05202
0.407021 0.193668 -1.02351
0.800249 0.574556 1.53044
0.34586 0.59 1.97803
0.872006 0.398271 1.21989
0.367074 0.229311 1.22243
0.885055 0.642533 -1.10904
0.376515 0.831573 -1.13755
0.854413 0.728381 1.2148
0.343864 1.02559 1.21225
-0.778199 0.366381 0.0839325
-0.398498 0.196148 0.09946
-0.82033 0.496315 -0.793298
-0.800418 0.514685 -0.218829
0 0.192463 -0.74277
-2.7402e-06 0.193354 -0.181283
-0.78185 0.523712 0.355639
-0.891945 0.543669 0.930108
-8.22061e-06 0.200058 0.380203
-8.22061e-06 0.219043 0.94169
-0.782106 0.694074 0.0528775
-0.426886 1.14079 0.03735
4.40171e-06 0.924669 -0.843825
1.29931e-06 1.10389 -0.256375
-7.83997e-06 1.16181 0.331075
-9.30721e-06 1.12089 0.918525
0.77822 0.36633 0.0839325
0.398534 0.196148 0.09946
0.820333 0.496319 -0.793298
0.800446 0.514689 -0.218829
0.781856 0.523712 0.355639
0.892172 0.543668 0.930108
0.782092 0.694067 0.0528775
0.426884 1.1408 0.03735
-0.871094 0.336513 -1.34085
-0.795764 0.348099 -0.768034
-0.811944 0.65491 -0.818561
-0.885909 0.611071 -1.40436
0.871296 0.336522 -1.34086
0.885906 0.611076 -1.40437
0.811936 0.654919 -0.818561
0.795767 0.34811 -0.768034
-0.409646 0.194797 -1.30763
0.409637 0.194792 -1.30763
0.406115 0.192711 -0.74277
-0.406123 0.192711 -0.74277
-0.362002 0.802303 -1.44547
-0.37194 0.850021 -0.843825
0.371952 0.84997 -0.843825
0.362007 0.802312 -1.44547
-0.400903 0.326498 -1.87877
-0.368526 0.593815 -1.80537
0.368535 0.593815 -1.80525
0.400912 0.326498 -1.87937
-0.781538 0.365708 -0.200056
-0.775499 0.368577 0.367921
-0.770845 0.698641 0.343357
-0.792334 0.688569 -0.237602
0.781535 0.365691 -0.200056
0.79233 0.68857 -0.237602
0.770821 0.698628 0.343357
0.775525 0.368543 0.367921
-0.401698 0.195592 -0.181283
0.401716 0.195592 -0.181283
0.393526 0.200626 0.380203
-0.393517 0.200626 0.380203
-0.425128 1.0744 -0.256375
-0.423837 1.15087 0.331075
0.42382 1.15086 0.331075
0.425129 1.0744 -0.256375
-0.87403 0.38163 0.935899
-0.840435 0.422884 1.51682
-0.773122 0.73044 1.51822
-0.829516 0.70992 0.924316
0.874067 0.381636 0.935899
0.829608 0.709914 0.924316
0.773054 0.730441 1.51821
0.840402 0.422886 1.51681
-0.378897 0.218787 0.94169
0.378882 0.218787 0.94169
0.347287 0.241958 1.50426
-0.347291 0.241972 1.50426
-0.343153 1.10945 0.918525
-0.328185 0.925088 1.50918
0.328182 0.925147 1.50918
0.343138 1.10948 0.918525
-0.336698 0.446421 1.88007
0.33668 0.446421 1.8799
0.32918 0.735709 1.93592
-0.329198 0.735709 1.93591
-0.814804 0.267437 -1.60899
-0.618379 0.196997 -1.593
-0.81809 0.20852 -1.44463
-0.676493 0.37625 1.81114
-0.49125 0.313658 1.77526
-0.693732 0.269164 1.64355
-0.726105 0.642056 -1.72242
-0.52125 0.727928 -1.74843
-0.727006 0.74652 -1.57814
-0.653117 0.80375 1.82209
-0.46875 0.879416 1.80412
-0.648242 0.888221 1.65284
0.618379 0.196993 -1.59301
0.815044 0.267437 -1.60923
0.818163 0.208447 -1.44463
0.49125 0.313756 1.77516
0.676492 0.37625 1.81113
0.693606 0.26929 1.64355
0.52125 0.72793 -1.74844
0.726105 0.642056 -1.72242
0.726965 0.746479 -1.57814
0.46875 0.879414 1.80411
0.653109 0.80375 1.82209
0.64886 0.888839 1.65284
-0.813584 0.195649 -0.602398
-0.807244 0.196197 -0.321655
-0.841155 0.258724 -0.473036
-0.607658 0.195477 -0.462027
-0.752509 0.227764 0.801318
-0.784811 0.201254 0.520575
-0.840471 0.254582 0.656428
-0.586071 0.201235 0.660947
-0.741321 0.820962 -0.696963
-0.77481 0.756818 -0.539091
-0.726503 0.826186 -0.403238
-0.570038 0.898165 -0.5501
-0.677269 0.857122 0.771663
-0.729473 0.782575 0.629318
-0.689168 0.848978 0.477938
-0.568747 1.03966 0.6248
0.81359 0.195644 -0.602398
0.607658 0.195477 -0.462027
0.807244 0.196197 -0.321655
0.841162 0.258722 -0.473036
0.7525 0.227773 0.801318
0.586057 0.201235 0.660947
0.784799 0.201266 0.520575
0.840481 0.254582 0.656428
0.741297 0.820938 -0.696963
0.570085 0.898244 -0.5501
0.774804 0.756821 -0.539091
0.72648 0.826163 -0.403238
[...]
POINT_DATA 3682
SCALARS point_scalars float 1
LOOKUP_TABLE default
-107.022
-33.8443
-71.3344
-32.7523
-106.611
-33.7934
-73.694
-32.6922
-33.7882
-35.19
-40.0493
-39.678
-33.7793
-35.1541
-39.9405
-39.6942
-15.2817
-112.784
-33.0907
-32.0789
-48.3305
-30.6716
-27.6689
13.2806
-139.877
-32.1298
-26.8569
-48.7168
-29.7591
-27.4466
69.9157
-105.199
-37.1736
-27.754
-36.1518
-30.6044
-27.813
-71.7703
-73.8969
-38.0406
-52.2817
-37.6674
-32.0382
-30.0108
-8.91689
-137.693
-33.9
-37.2307
-35.9827
-27.9816
-25.648
46.7643
-26.6139
-24.958
129.195
-26.1491
-25.3908
-6.22401
-74.9266
-29.9785
-55.3474
-33.9363
-28.6388
-26.8578
61.594
-136.14
-33.79
-37.1037
-35.6479
-27.951
-25.0993
61.594
-26.4633
-24.8391
159.444
-26.1134
-25.3457
-4.1067
-72.2038
-30.3072
-55.3582
-33.9046
-28.5032
-26.9746
-14.6987
-113.081
-33.086
-32.2098
-48.2966
-30.4682
-27.6455
14.4028
-139.514
-32.1187
-26.8547
-48.3959
-29.7143
-27.4159
69.9817
-104.99
-37.1508
-28.0661
-36.0876
-30.5608
-27.7783
-73.9498
-73.563
-38.0024
-52.3582
-37.5629
-31.9708
-29.9596
-4.59984
-80.8711
-48.3981
-29.8491
-30.344
-36.14
-37.6479
-54.3287
-28.1013
-45.461
-4.79274
-48.3376
-29.7874
-35.985
-54.2785
-45.4309
-31.8668
-34.1407
-36.4776
-19.4045
-36.4244
-44.7471
3.99592
-61.0041
-31.7858
-34.1271
-19.5562
-44.7155
-60.9575
-61.0293
-48.635
-35.3119
209.005
-31.6605
-31.6906
-34.0519
-73.4879
-47.6679
-47.6185
-35.5182
-41.324
-19.8619
-27.9676
-90.0072
-66.9071
-30.305
-31.0192
-43.0999
-22.5768
-63.976
-61.9781
-30.9386
-28.5481
-38.2204
-90.0378
-28.1874
-66.9403
-30.985
-30.2157
-43.0729
-63.3587
-22.9253
-61.9611
-28.5342
-30.8972
-38.1736
-38.6995
-29.7823
-33.2551
-36.4061
-34.448
-30.0116
-19.8727
-36.1406
-41.2218
-37.5398
-47.2746
2.35391
-44.7884
-27.1596
-41.1679
-56.7528
-38.6403
-36.4028
-29.773
-33.24
-34.4402
-36.1407
-30.8837
-19.9627
-41.1906
2.34848
-37.5166
-47.2568
-44.8052
-56.7561
-27.2951
-41.1473
-91.5549
175.868
-60.9729
199.046
-56.8008
-49.2597
-42.3173
-25.0289
-36.1658
-21.7305
-43.2951
-35.7788
-49.8033
165.933
-66.9936
-39.1329
-33.2887
-22.5659
-55.6366
-41.5112
-91.5642
175.973
-56.7806
-49.2556
-42.2688
-24.9751
-43.249
-35.7611
-66.9821
-39.1439
-55.6032
-41.5752
-30.822
-33.398
-41.9665
-32.7525
-41.1262
-34.1945
-28.1804
-45.067
-33.5369
-34.9811
-36.9859
-71.1056
-16.2137
-42.2998
-67.5034
-52.661
-30.8641
-33.4029
-41.957
-32.7341
-28.275
-44.9129
-36.9423
-71.0761
-79.2515
-41.2849
-42.5828
-92.1963
-79.1891
-92.1967
-42.5527
-41.2642
-63.5128
-63.5193
-41.3512
-41.3563
-56.111
-19.8819
-19.8795
-56.1683
151.967
148.739
148.931
159.128
-31.4506
-27.3413
-33.6576
-37.7656
-31.4425
-37.7335
-33.6788
-27.4278
-33.758
-33.7564
-33.2679
-33.258
-36.8358
-61.2478
-61.2475
-36.89
-42.1589
-48.1831
-41.2232
-34.5278
-42.0782
-34.7059
-41.1698
-48.1251
-34.9212
-34.913
-37.2358
-37.2569
-51.633
-34.0418
-34.0322
-51.6349
-26.0522
-26.0034
-25.7731
-25.8065
-64.3661
-101.397
-88.3248
-31.5317
-31.963
-39.2717
-22.987
-107.985
-73.0332
-32.3293
-29.6211
-34.8461
-101.318
-64.4644
-88.3023
-31.9175
-31.263
-39.1951
-112.185
-23.9275
-72.7185
-29.597
-32.2738
-34.9158
-35.4586
-31.8219
-32.4836
-35.4634
-38.0618
-31.4847
-30.8156
-36.215
-36.9185
-40.9915
-47.0279
-14.5614
-43.7939
-32.4978
-39.5306
-48.0789
-35.4489
-35.4567
-31.8135
-32.4722
-37.9729
-36.2079
-31.4597
-30.7809
-36.8807
-14.6577
-40.9771
-47.0609
-43.7819
-48.0367
-32.5508
-39.5301
-12.7633
-12.6251
-125.365
128.622
-84.1264
-84.3219
-70.2146
46.8426
-55.9318
-43.2585
-54.344
-48.7747
-29.7298
-30.2578
-35.0207
-26.4076
-30.2661
-30.2373
-34.3455
-24.3413
-38.4591
-36.1701
-40.2641
-35.7621
-55.2025
-55.0967
-45.955
65.2895
-61.6383
-45.5487
-63.8584
-40.6274
-28.1045
-28.0941
-30.7306
-24.2816
-42.0406
-48.2708
-50.2681
-43.4411
-12.43
-14.0994
-125.212
128.63
-55.869
-43.2584
-54.3126
-48.7713
-29.6896
-30.2214
-34.9418
-26.3803
-38.4189
-36.2657
-40.339
-35.7287
-61.6003
-45.5248
-63.8232
-40.5831
-41.9834
-48.2377
-50.2383
-43.435
-30.9733
-31.4641
-29.5528
-32.5508
-33.4067
-35.4708
-36.6027
-33.11
-36.4381
-36.4433
-38.4835
-35.0548
-18.6566
-22.6198
-24.8415
-14.6816
-36.2769
-36.2779
-34.6197
-36.6303
-46.4763
-42.8898
-40.3338
-58.0087
4.219
4.32953
-5.51869
-5.2013
-60.3138
-60.3106
-64.3043
-57.6262
-30.9446
-31.3769
-29.5279
-32.5516
-33.3945
-35.4536
-36.5869
-33.0961
-18.7827
-22.7945
-24.9588
-14.8641
-46.4458
-42.8702
-40.2979
-58.0028
-71.7736
-59.3406
-62.9131
-53.7202
-71.7992
-59.4324
-62.9157
-53.6732
-54.0425
-48.9472
-48.9611
-44.4796
-43.4444
-36.0519
-36.0661
-26.1125
193.563
185.856
187.252
193.568
-30.6812
-32.1954
-30.3885
-33.5005
-30.7228
-32.1949
-30.4528
-33.4948
-33.9073
-33.8488
-33.9537
-33.9123
-73.4562
-69.7553
-70.9239
-73.42
-51.1858
-45.5955
-51.2441
-45.7757
-51.0437
-45.5354
-51.221
-45.6931
-35.8614
-35.5982
-35.59
-35.6321
-36.7751
-40.9898
-40.9875
-46.2781
-21.5622
-20.2855
-20.4833
-21.5165
-122.121
64.3491
-75.5559
-28.9318
-74.3649
-65.1385
-35.6912
-26.7722
-36.0182
-26.9372
-50.0695
-38.9969
-63.377
98.1296
-61.8516
110.572
-70.0225
-59.8834
-35.6923
-27.0524
-31.2735
-25.7361
-41.0597
-35.3907
-75.5745
-32.0994
-121.956
64.4332
-74.2869
-65.1469
-35.9844
-26.8807
-35.6192
-26.7434
-50.0219
-38.9763
-61.7858
110.45
-63.4537
100.528
-69.9938
-59.6746
-31.2657
-25.6931
-35.6367
-27.019
-41.0054
-35.3729
-40.5635
-40.8978
-30.0271
-32.9571
-35.7471
-31.3666
-38.5664
-34.6862
-39.5603
-34.5321
-27.9436
-32.4522
-24.0392
-28.6156
-34.3739
-36.7691
-44.0182
-25.5835
-38.2976
-37.5716
-41.8159
-60.4996
-8.08934
-6.21064
-39.1549
-50.1005
-31.0411
-27.5165
-37.2825
-50.223
-59.0913
-55.5249
-40.5328
-40.8869
-38.5621
-34.6833
-30.0243
-32.9507
-35.7304
-31.3624
-39.5212
-34.5207
-34.3795
-36.7642
-28.64
-32.4856
-24.1439
-28.4428
-43.9984
-25.5663
-8.10572
-6.2861
-38.2761
-37.5446
-41.7923
-60.4035
-39.2581
-50.1691
-59.0884
-55.5477
-31.1067
-27.6833
-37.2722
-50.1756
-84.8202
-98.8921
153.063
152.623
-61.8054
-61.8482
183.774
183.986
-65.495
-51.4346
-55.2707
-44.8488
-45.7334
-41.815
-25.2648
-25.193
-36.4395
-36.4529
-23.4261
-23.3786
-41.9796
-47.4431
-35.6632
-36.4279
-51.3259
-51.367
163.487
163.604
-53.3978
-79.4223
-48.6926
-28.8108
-33.3978
-33.3929
-23.7618
-23.8062
-49.6646
-48.2328
-46.4391
-37.4688
-84.8281
-98.9021
153.132
153.132
-65.5553
-51.4038
-55.27
-44.8438
-41.7638
-45.6894
-25.2154
-25.1435
-41.935
-47.3755
-35.6522
-36.4082
-79.4125
-53.3803
-28.8168
-48.7224
-48.192
-49.5588
-37.4653
-46.445
-30.4027
-29.4619
-33.3392
-33.4288
-41.4622
-42.4096
-31.7596
-34.5725
-41.2517
-41.3744
-34.1038
-34.1077
-27.4079
-30.2362
-45.022
-35.7846
-33.5465
-33.5415
-34.9805
-34.977
-35.8317
-37.7354
-66.4614
-65.5707
-16.7971
-16.7756
-36.2548
-36.3515
-66.195
-66.2032
-52.2832
-52.2852
-30.4206
-29.5269
-33.3397
-33.4384
-42.3908
-41.4434
-31.7444
-34.5518
-30.3141
-27.4963
-44.9231
-35.7174
-37.6994
-35.8217
-65.5687
-66.4046
-107.965
-62.0833
-68.5167
-131.211
-34.7136
-36.0982
-52.8977
-49.6121
-40.0664
-52.8844
-54.0333
-37.4142
-68.4345
-95.2872
-74.1769
-74.129
-107.878
-130.777
-68.5707
-62.1836
-68.2935
-74.1082
-74.1816
-95.208
-40.052
-37.3977
-53.9799
-52.8812
-34.7021
-49.574
-52.8633
-36.082
-81.5641
-71.8015
-54.5217
-55.3924
-81.5601
-55.395
-54.5436
-71.8952
-37.9286
-38.556
-44.6757
-44.2744
-37.9368
-44.28
-44.6651
-38.549
-72.4037
-50.7853
-44.1385
-49.0293
-17.0004
-5.80289
-26.8626
-30.5122
-17.0178
-30.4931
-26.8647
-5.91429
-71.7027
-48.825
-44.1666
-50.7016
-30.9415
108.863
171.284
36.6453
113.716
87.9296
160.643
127.687
106.309
127.747
161.041
81.6629
-31.8269
33.035
170.477
108.499
-30.9303
-28.007
-31.0305
-32.1819
-28.154
-24.02
-29.453
-29.1041
-35.1933
-39.11
-32.2315
-26.975
-41.5246
-34.7475
-34.157
-41.3869
-30.9236
-32.1705
-31.0454
-28.0112
-41.5034
-41.3566
-34.139
-34.7291
-35.2092
-27.0907
-32.2645
-39.0861
-28.171
-28.7427
-29.5173
-24.1242
-33.8228
-34.9793
-33.7403
-32.5033
-33.8168
-32.4967
-33.7446
-35.0014
-33.8073
-34.5655
-33.8743
-32.6487
-33.7979
-32.6256
-33.8687
-34.5621
-34.752
-64.2076
-68.9208
-4.09068
-48.616
-63.2898
-69.7245
-52.9398
-48.595
-52.9588
-69.7458
-63.2844
-34.6424
-4.3363
-68.9061
-64.2719
-36.5501
-39.8371
-43.9058
-19.221
-36.9691
-35.2678
-49.103
-45.2178
-36.4285
-46.1744
-54.2571
-35.2939
-34.749
-20.0279
-47.8447
-48.141
-36.4695
-19.1627
-43.8329
-39.8257
-34.8539
-48.1623
-47.7373
-20.2611
-36.3806
-35.2216
-53.3598
-46.078
-36.899
-45.0022
-49.0337
-35.1905
-36.4996
-36.56
-35.6516
-35.6036
-36.4863
-35.5889
-35.6461
-36.5582
-36.4811
-34.8658
-36.0045
-36.8413
-36.5226
-36.8727
-36.014
-34.8843
-48.5044
-47.3336
-46.4053
-57.43
-32.2949
-30.8731
-36.8726
-39.2226
-32.2888
-39.1935
-36.8691
-30.8697
-48.6547
-57.4405
-46.4051
-47.3113
-28.0846
-25.2776
-22.4425
-26.6431
-28.0505
-26.6144
-22.3849
-25.1975
-27.3113
-24.4895
-22.1041
-26.4724
-27.346
-26.5006
-22.1869
-24.5255
-88.3053
-116.777
-130.715
-32.6433
-32.9749
-35.6621
-44.3142
-74.2228
-85.1376
-32.836
-30.7361
-33.6473
-116.721
-88.3803
-130.612
-32.9046
-32.483
-35.596
-76.6646
-45.9214
-84.9941
-30.7031
-32.7759
-33.6413
-35.2726
-33.1754
-32.4964
-34.5459
-40.1554
-32.8609
-32.7037
-36.1596
-37.8373
-43.1358
-47.666
-29.5934
-41.6323
-36.4685
-38.8996
-43.9095
-35.2659
-34.5397
-33.1681
-32.486
-40.1831
-36.1401
-32.8219
-32.6612
-37.7854
-29.5372
-43.1451
-47.7775
-41.6491
-43.8703
-36.4957
-38.8999
-6.36904
-7.36279
-61.9563
48.7514
-81.6995
-81.9026
-76.2788
-154.725
-51.9082
-44.4531
-51.5477
-48.1904
-29.7051
-30.0213
-32.5336
-27.3795
-30.0196
-30.1049
-32.1576
-26.6103
-36.6882
-36.2826
-38.8179
-35.7251
-43.6781
-43.9446
-40.0616
-57.147
-57.9975
-50.7229
-60.1923
-44.839
-28.0486
-28.0419
-29.4324
-25.3515
-43.6069
-46.8477
-47.4626
-43.9201
-6.70149
-7.39214
-62.2911
48.7301
-51.9145
-44.7529
-51.5015
-48.1808
-29.6924
-29.9863
-32.4691
-27.3499
-36.6442
-36.184
-38.9855
-35.6727
-57.9564
-50.694
-60.1514
-44.7599
-43.6466
-46.8042
-47.448
-43.9516
-29.1606
-30.5308
-30.5417
-31.9236
-33.7784
-34.7411
-35.0984
-33.4817
-36.4528
-36.4582
-37.4038
-35.6928
-19.0287
-20.3766
-22.411
-17.0111
-36.2437
-36.2444
-35.2804
-37.8625
-45.7505
-43.7548
-42.8636
-49.8423
4.25486
4.25815
0.198107
3.14106
-60.8335
-60.8197
-62.608
-59.3928
-29.0918
-30.4109
-30.4973
-31.9401
-33.7652
-34.7264
-35.0838
-33.4685
-19.1409
-20.5499
-22.5423
-17.1706
-45.7148
-43.7283
-42.8302
-49.8143
-65.3803
-60.4646
-61.7379
-58.7818
-65.4156
-60.5681
-61.7531
-58.7275
-51.1935
-48.7246
-48.6965
-46.4511
-40.2495
-35.4402
-35.4454
-30.6825
196.92
200.108
199.913
196.947
-31.1625
-31.9648
-31.1585
-32.444
-31.1985
-31.982
-31.1945
-32.4616
-33.9812
-33.8696
-34.4987
-33.9846
-73.8039
-73.9285
-71.8228
-73.7098
-49.7188
-46.5189
-49.1872
-46.6426
-49.7207
-46.4659
-49.152
-46.5895
-35.8433
-35.5802
-35.5763
-35.6969
-38.7156
-40.9217
-41.0184
-43.5058
-20.4638
-20.0938
-19.5619
-20.418
-38.4103
-21.1938
-125.377
-6.12796
-94.8404
-87.0546
-83.7898
-144.629
-75.2272
-61.3378
-71.0576
-65.9797
-30.8602
-29.968
-32.9272
-27.7239
-31.4699
-30.6818
-33.635
-28.5659
-42.1835
-40.9609
-48.6309
-39.8095
-27.1077
-19.0246
-60.5877
62.0817
-82.1799
-60.9168
-66.1249
-61.5224
-67.0471
-64.8726
-66.5829
-62.0022
-31.4958
-30.4476
-33.4153
-28.1393
-28.9524
-28.2693
-29.9417
-26.4145
-36.3394
-40.6541
-40.1869
-36.377
-94.8334
-87.1019
-83.8178
-147.516
-38.7561
-21.2961
-125.232
-4.29696
-75.2776
-61.3351
-70.888
-66.0058
-31.4286
-30.648
-33.5958
-28.5211
-30.6834
-29.923
-32.8526
-27.725
-42.1275
-40.9404
-48.6069
-39.7819
-83.0526
-60.1585
-65.4655
-61.8777
-27.6922
-19.4111
-60.7691
62.2928
-66.9298
-64.7722
-66.6032
-61.735
-28.9313
-28.2569
-29.9327
-26.388
-31.4483
-30.4053
-33.3593
-28.102
-36.3654
-40.559
-40.1251
-36.3479
-37.3448
-40.9502
-39.2224
-40.2989
-31.2791
-29.764
-29.7525
-32.2356
-33.2601
-33.2611
-34.4843
-31.9947
-36.1216
-36.4122
-37.5328
-35.3653
-33.975
-35.1217
-38.4919
-34.3029
-30.5656
-29.8466
-28.8137
-31.6962
-27.5386
-19.6647
-22.031
-18.1121
-35.9966
-36.2391
-35.1449
-37.6495
-38.3161
-42.8993
-44.3602
-30.884
-38.92
-36.3805
-37.5507
-37.6315
-47.6134
-47.1629
-44.6711
-55.3424
-2.83313
4.69159
-1.25593
0.555888
-43.9779
-45.9288
-42.3971
-46.998
-29.829
-24.8246
-29.4381
-26.1103
-40.381
-41.969
-39.2766
-45.0488
-52.6567
-59.0977
-57.7923
-56.5951
-37.3177
-40.8297
-39.1784
-40.282
-36.116
-36.4128
-37.5294
-35.3619
-31.2711
-29.7507
-29.7456
-32.2274
-33.2438
-33.2485
-34.4684
-31.9879
-33.9369
-35.1389
-38.4857
-34.2903
-35.9945
-36.2399
-35.1476
-37.647
-30.7236
-30.635
-30.0822
-31.7826
-27.5394
-19.7656
-22.1229
-18.0042
-38.28
-42.8831
-44.3335
-30.8515
-2.94615
4.66569
-1.26429
0.488486
-38.906
-36.3598
-37.5262
-37.6082
-47.5854
-47.1407
-44.6497
-55.2983
-44.0196
-45.8811
-42.3472
-46.956
-52.6359
-59.1
-57.7951
-56.613
-29.9225
-24.9867
-29.5312
-26.2772
-40.3746
-41.949
-39.2584
-45.0336
-113.523
-78.8159
-88.3704
-95.5719
156.938
182.222
166.934
165.626
-65.2479
-57.2844
-61.2473
-61.1487
154.532
189.038
180.889
180.623
-55.7659
-58.1397
-60.3956
-55.8063
-49.1585
-49.1835
-52.0417
-46.8465
-38.0091
-50.0622
-43.9039
-42.4623
-25.8892
-23.4726
-25.0856
-25.0078
-35.909
-35.8064
-36.2807
-36.2877
-22.5093
-21.1665
-22.046
-22.0175
-41.8473
-44.5829
-42.3084
-45.2031
-35.8129
-35.7038
-35.815
-36.229
-51.1601
-47.0259
-49.8572
-49.8948
133.84
184.631
175.335
175.35
-66.9471
-65.2059
-60.9243
-71.6693
-39.9508
-37.2854
-43.782
-33.9066
-32.0358
-34.7685
-33.3215
-33.3191
-22.9898
-21.8098
-22.9737
-23.0191
-53.6293
-54.5214
-53.0268
-53.5019
-42.3072
-41.147
-43.9476
-39.3865
-113.424
-78.8224
-88.3895
-95.5686
157.042
181.925
165.931
166.967
-55.7424
-58.1457
-60.491
-55.761
-49.1545
-49.1851
-52.0389
-46.8415
-37.9342
-50.0498
-42.4106
-43.858
-25.8537
-23.4078
-25.0312
-24.9539
-41.8413
-44.5197
-42.2752
-45.1057
-35.7883
-35.6913
-35.7998
-36.2118
-66.9185
-65.2068
-71.6408
-60.9311
-39.9379
-37.307
-33.9144
-43.8053
-53.589
-54.4922
-53.485
-52.9866
-42.2891
-41.1438
-39.431
-43.9569
-29.6283
-30.7027
-31.2372
-30.2028
-33.0784
-33.6719
-33.2975
-33.7121
-38.7725
-46.4849
-41.6615
-42.0988
-32.8987
-32.4845
-32.1482
-33.5802
-39.722
-42.7198
-41.121
-41.1116
-34.5559
-33.958
-34.2093
-34.2126
-26.6563
-29.4198
-27.7223
-29.0901
-30.5107
-46.1676
-45.3306
-41.1753
-34.0398
-33.3352
-33.5737
-33.5708
-35.007
-35.1499
-35.0007
-34.9992
-38.6319
-35.0369
-36.4827
-37.3957
-66.9162
-72.978
-70.8742
-68.7973
-12.7787
-21.1287
-16.3256
-16.3147
-19.9735
-62.0372
-39.5223
-39.5715
-66.0252
-69.3452
-67.188
-67.2146
-55.3191
-49.5171
-52.5889
-52.6003
-29.6463
-30.744
-31.2723
-30.2535
-33.0832
-33.6774
-33.2997
-33.7202
-38.7552
-46.4739
-42.0887
-41.6463
-32.8844
-32.4697
-32.1299
-33.5613
-26.7594
-29.4937
-29.1799
-27.8146
-30.4318
-46.0616
-45.2272
-41.0492
-38.5884
-35.0122
-37.3591
-36.4532
-66.8716
-72.9552
-68.8001
-70.7858
-93.6574
-76.9041
-81.7815
-71.5792
-41.3383
-37.8737
-45.9292
-41.2087
-43.0888
-39.7799
-47.5433
-42.279
-83.1647
-78.3401
-103.527
-87.6454
-93.6867
-76.8371
-81.7699
-71.6041
-83.0775
-78.3095
-103.544
-87.6348
-43.0592
-39.7559
-47.5085
-42.2553
-41.3153
-37.855
-45.9094
-41.1893
-68.885
-64.4152
-62.6662
-59.0106
-68.8968
-64.4215
-62.6802
-59.0129
-41.2499
-39.8851
-43.067
-41.3446
-41.2577
-39.8899
-43.0721
-41.3439
-59.0871
-58.2321
-53.0349
-52.6242
-21.2769
-14.2926
-24.3009
-17.6924
-21.2733
-14.2999
-24.3073
-17.657
-59.2914
-58.2021
-53.0933
-52.6613
127.864
104.21
142.923
166.698
120.467
151.811
139.885
157.19
151.914
121.147
157.772
140.085
102.944
127.719
166.609
145.22
-31.3756
-31.5043
-30.3242
-31.4563
-27.1352
-25.9161
-28.4941
-27.2942
-32.4275
-35.466
-31.8847
-34.7803
-37.7659
-39.9224
-36.0106
-37.7481
-31.3746
-31.4955
-30.3189
-31.4456
-37.7386
-39.8917
-35.9839
-37.7231
-32.4685
-35.4687
-31.94
-34.7857
-27.3053
-26.0108
-28.5718
-27.3814
-33.4214
-34.151
-33.4789
-33.974
-34.1488
-33.4172
-33.9755
-33.478
-33.724
-32.9698
-33.4355
-32.952
-32.9531
-33.7158
-32.9421
-33.4286
-43.0639
-19.5375
-51.9968
-35.1676
-56.3809
-60.2461
-63.2456
-64.364
-60.2427
-56.4561
-64.3632
-63.2471
-19.4119
-42.8918
-35.1294
-52.0611
-40.7443
-41.732
-41.6767
-43.9259
-39.5927
-49.0777
-47.0206
-49.7844
-38.4028
-41.2376
-41.4013
-44.8493
-37.7671
-29.9781
-42.6597
-31.4917
-40.6747
-41.6169
-41.6172
-43.8361
-37.8985
-30.1563
-42.6695
-31.6361
-38.339
-41.1847
-41.3509
-44.7843
-39.5123
-49.023
-46.9745
-49.764
-34.8057
-34.8254
-35.1332
-34.9852
-34.7953
-34.8187
-35.1234
-34.9794
-37.198
-38.0147
-36.7049
-36.6317
-37.2222
-38.0411
-36.7232
-36.6516
-51.202
-53.8731
-49.0253
-51.9946
-32.5241
-34.7223
-33.6152
-35.5735
-32.5204
-34.7322
-33.6097
-35.5701
-51.1995
-53.8802
-49.0097
-52.007
-26.4851
-26.157
-25.6574
-24.4586
-26.1071
-26.4697
-24.4149
-25.6131
-25.4958
-26.2375
-24.912
-25.5869
-26.2675
-25.532
-25.6264
-24.9622
-136.216
-37.5671
-95.3607
-96.0152
-99.2291
-86.041
-33.9932
-29.6616
-33.7173
-29.4224
-38.7134
-37.1816
-91.3317
93.0041
-82.308
41.5505
-72.0494
-71.7919
-34.3732
-28.8738
-30.895
-28.0436
-36.2285
-33.1471
-95.2945
-96.5988
-136.152
-37.6274
-99.1612
-86.0821
-33.6826
-29.2992
-33.9246
-29.5448
-38.6335
-37.1296
-81.3755
43.9772
-92.3691
92.4086
-71.6748
-71.0854
-30.8894
-28.0198
-34.3179
-28.8318
-36.2113
-33.1928
-34.1394
-37.2788
-31.8151
-33.1381
-33.3557
-31.6846
-36.5088
-34.4278
-39.8569
-36.7346
-29.6558
-33.1837
-29.031
-34.0434
-34.8175
-38.426
-39.8081
-25.1618
-40.2002
-41.4746
-44.3475
-55.6348
-13.0568
-20.1857
-40.2784
-44.7779
-33.9025
-33.1519
-37.5355
-43.5547
-47.8351
-47.1323
-34.1271
-37.2708
-36.5017
-34.4216
-31.807
-33.132
-33.3435
-31.6787
-39.8349
-36.7082
-34.8174
-38.4126
-29.658
-33.1836
-29.0239
-34.1423
-39.7778
-25.1526
-13.1031
-20.2824
-40.183
-41.4502
-44.3194
-55.4424
-40.2999
-44.8105
-47.805
-46.9804
-33.9279
-33.2557
-37.5375
-43.5491
-103.678
25.8245
-37.1205
72.184
-128.467
-113.943
119.588
129.305
-78.6551
-157.716
-78.803
-154.258
-70.5526
-70.6485
51.7377
47.0364
-58.6463
-55.3113
-47.3649
-43.6598
-56.7506
-53.915
-51.8018
-46.2589
-32.6563
-27.4365
-32.9139
-27.4666
-35.0559
-35.0789
-26.4704
-26.3838
-32.5854
-27.1789
-32.5634
-27.1466
-34.5824
-34.5922
-24.6502
-24.6456
-42.893
-37.3144
-38.6745
-35.7094
-39.6897
-42.291
-35.881
-36.3065
-46.3487
-82.1056
-45.9213
-77.6383
-47.0498
-46.6078
95.5392
95.508
-68.7688
-53.1981
-51.2236
-35.9069
-58.2967
-68.0663
-45.9436
-35.9948
-29.5303
-25.6989
-29.5238
-25.679
-30.7915
-30.7868
-24.1265
-24.1466
-44.3052
-40.2415
-47.717
-49.1487
-48.4106
-50.1799
-45.2235
-41.4824
-104.01
25.7697
-37.5163
72.1723
-128.165
-113.877
129.331
119.463
-58.6876
-55.3211
-47.3451
-43.6479
-56.9277
-53.8382
-51.7999
-46.2571
-32.5846
-27.407
-32.8562
-27.4343
-35.0024
-34.978
-26.4425
-26.3566
-42.8809
-37.2901
-38.6778
-35.7042
-39.6855
-42.1645
-35.8529
-36.2715
-68.7574
-53.0819
-51.2119
-35.8545
-68.0373
-58.2809
-35.9628
-45.9001
-44.2069
-40.1908
-47.7232
-49.1119
-50.179
-48.3401
-41.4548
-45.2229
-29.2331
-31.839
-30.2159
-31.9352
-29.8008
-29.2957
-32.4326
-32.9069
-34.5375
-32.6188
-36.0068
-34.9966
-36.3342
-36.9727
-32.6065
-33.8072
-37.362
-35.66
-37.3676
-35.675
-38.4584
-38.4511
-35.0201
-35.0241
-21.7211
-16.1242
-24.9863
-20.5797
-24.3411
-25.6612
-16.9456
-16.6592
-35.3157
-37.7123
-35.3179
-37.7117
-34.5953
-34.5933
-36.6564
-36.6558
-44.1789
-52.7367
-40.9739
-47.2819
-39.8517
-40.9167
-62.0017
-55.3476
0.214539
3.81868
0.300568
3.78268
-5.47001
-5.54855
-4.7348
-4.59528
-61.718
-59.0932
-61.7141
-59.099
-63.9799
-63.9663
-57.6055
-57.6079
-29.2162
-31.8238
-29.9377
-31.9787
-29.7914
-29.2646
-32.4276
-32.9179
-34.5236
-32.6085
-35.9906
-34.9793
-36.9569
-36.3186
-32.5938
-33.7915
-21.823
-16.1724
-25.1228
-20.8328
-25.7804
-24.4519
-17.0126
-16.9364
-44.1487
-52.7005
-40.9506
-47.2699
-40.8851
-39.819
-55.362
-62.0076
-70.1515
-72.6535
-63.1428
-57.0281
-60.498
-67.1401
-53.3096
-53.7274
-70.1889
-72.6677
-63.1886
-56.9355
-67.1491
-60.471
-53.6759
-53.2568
-54.1329
-54.1584
-51.6194
-46.5859
-51.6367
-46.5984
-44.5248
-44.5131
-43.7667
-43.7873
-40.7581
-31.1978
-31.2014
-40.7834
-26.3082