# vtk DataFile Version 2.0
tet_velo
ASCII
DATASET UNSTRUCTURED_GRID
POINTS 29498 float
-0.695 0.215 -2.07917
-0.745 0.295 2.15456
-0.755456 0.765 -1.955
-0.675 1.01306 2.155
0.695 0.215 -2.07917
0.745 0.295 2.15456
0.755451 0.765 -1.955
0.675 1.01306 2.155
-0.748909 0.204424 -0.667927
-0.801894 0.194772 0.743317
-0.805967 0.925017 -0.585
-0.772442 1.001 0.785
0.748909 0.204424 -0.667927
0.801894 0.194772 0.743317
0.805956 0.925009 -0.585
0.772442 1.001 0.785
-1.45764 -0.187491 -3.2303
-1.463 -0.137148 -2.11783
-1.50501 -0.146587 -0.705517
-1.5395 -0.163555 0.715094
-1.51339 -0.102294 2.1281
-1.50419 -0.0496096 3.244
-1.51007 -0.0053889 4.35357
-1.45986 0.136933 -3.18304
-1.46707 0.206004 -2.07507
-1.51713 0.219192 -0.670789
-1.54386 0.210774 0.737208
-1.48996 0.27243 2.14228
-1.48979 0.323983 3.2576
-1.50431 0.36727 4.36851
-1.48728 0.751556 -3.07695
-1.51435 0.817876 -1.96728
-1.55732 0.93495 -0.591109
-1.52871 0.990269 0.782138
-1.44704 1.01531 2.1591
-1.46851 1.06345 3.27612
-1.4989 1.10979 4.39368
-1.51445 1.77928 -2.94883
-1.53075 1.86036 -1.84533
-1.5497 1.9921 -0.482531
-1.54637 2.09706 0.871376
-1.52637 2.15454 2.2346
-1.52072 2.19085 3.339
-1.52744 2.22944 4.45206
-0.709574 -0.182649 -3.23296
-0.706561 -0.129068 -2.12171
-0.739378 -0.153063 -0.704996
-0.780413 -0.174945 0.720308
-0.765823 -0.0929641 2.13722
-0.760524 -0.0427681 3.25019
-0.765908 -0.00228207 4.35714
-0.708013 0.135366 -3.18386
-0.75384 0.332082 3.2627
-0.764236 0.370649 4.37121
-0.728888 0.729205 -3.07185
-0.736562 1.06511 3.2753
-0.762775 1.11135 4.3935
-0.750658 1.76343 -2.94378
-0.762396 1.84512 -1.83977
-0.781556 1.98785 -0.479182
-0.789192 2.101 0.870975
-0.781753 2.15758 2.23173
-0.779135 2.19231 3.33614
-0.784856 2.2304 4.44997
0.749084 -0.182649 -3.23296
0.732218 -0.129069 -2.12171
0.765266 -0.153064 -0.704996
0.787559 -0.174945 0.720308
0.748185 -0.0929641 2.13722
0.73117 -0.0427682 3.25019
0.723636 -0.00228202 4.35715
0.745899 0.135365 -3.18386
0.717918 0.332082 3.2627
0.714931 0.370648 4.37121
0.763722 0.729204 -3.07185
0.692927 1.06511 3.2753
0.701718 1.11135 4.3935
0.772886 1.76343 -2.94378
0.773088 1.84512 -1.83977
0.763191 1.98785 -0.479182
0.734425 2.101 0.870974
0.70617 2.15758 2.23173
0.6988 2.19231 3.33614
0.696993 2.2304 4.44997
1.49004 -0.187494 -3.2303
1.47829 -0.13715 -2.11783
1.52002 -0.146589 -0.705517
1.5508 -0.163555 0.715094
1.51202 -0.102295 2.1281
1.4859 -0.0496096 3.244
1.47483 -0.00538916 4.35357
1.48554 0.136931 -3.18304
1.46495 0.206001 -2.07507
1.51591 0.21919 -0.670789
1.55171 0.210774 0.737208
1.4982 0.27243 2.14228
1.47003 0.323983 3.2576
1.4636 0.36727 4.36851
1.50868 0.751553 -3.07695
1.50955 0.817871 -1.96728
1.5513 0.934943 -0.591109
1.5305 0.990269 0.782137
1.44963 1.01531 2.1591
1.43931 1.06345 3.27612
1.44588 1.10979 4.39368
1.53144 1.77928 -2.94883
1.53485 1.86036 -1.84533
1.52977 1.99209 -0.482531
1.49903 2.09706 0.871376
1.46123 2.15454 2.2346
1.44722 2.19085 3.339
1.4438 2.22944 4.45206
-0.768071 0.49 -2.05993
0 0.202696 -2.09147
-0.73214 0.199526 -1.37355
-0.734564 0.65403 2.17934
0 0.297995 2.15156
-0.780207 0.238127 1.44894
-2.47359e-06 0.82829 -2.01829
-0.80548 0.869776 -1.27
0 1.04817 2.19011
-0.72763 1.01094 1.47
0.768068 0.49 -2.05993
0.732141 0.199526 -1.37355
0.734548 0.65403 2.17933
0.780276 0.238057 1.44894
0.805383 0.869683 -1.27
0.727613 1.01092 1.47
-0.770555 0.204445 0.0376951
-0.85596 0.56472 -0.626463
0 0.205457 -0.667927
-0.871723 0.597885 0.764158
0 0.191119 0.743317
-0.799785 0.973587 0.1
-5.53711e-06 1.25991 -0.585
9.47973e-08 1.41617 0.785
0.770556 0.204444 0.0376951
0.855955 0.564717 -0.626463
0.871704 0.597886 0.764158
0.799786 0.97359 0.1
-0.88641 0.52736 -1.32177
-0.869163 0.581303 0.0688475
-0.890107 0.625957 1.45947
0 0.198141 -1.37355
0 0.204908 0.0376951
0 0.216272 1.44894
-1.2368e-06 0.49 -2.31979
0 0.65403 2.25687
-4.00535e-06 0.95998 -1.27
-2.72116e-06 1.42223 0.1
4.73986e-08 1.23876 1.47
0.886407 0.527358 -1.32177
0.869259 0.581301 0.0688475
0.890112 0.625958 1.45947
-1.08104 0.210502 -2.07712
-0.70078 0.0429659 -2.10044
-0.701507 0.175183 -2.63152
-1.11748 0.283715 2.14842
-0.755412 0.101018 2.14589
-0.74942 0.313541 2.70863
-1.1349 0.791438 -1.96114
-0.742172 0.747102 -2.51343
-0.758926 1.30506 -1.89739
-1.06102 1.01419 2.15705
-0.705781 1.03909 2.71515
-0.728376 1.58532 2.19337
0.713609 0.0429656 -2.10044
0.72045 0.175182 -2.63152
1.07998 0.210501 -2.07712
0.746593 0.101018 2.14589
0.731459 0.313541 2.70863
1.1216 0.283715 2.14842
0.759587 0.747102 -2.51343
0.76427 1.30506 -1.89739
1.1325 0.791436 -1.96114
0.683963 1.03909 2.71515
0.690585 1.58532 2.19337
1.06231 1.01419 2.15705
-1.13302 0.211808 -0.669358
-0.744144 0.0256805 -0.686461
-1.17288 0.202773 0.740262
-0.791154 0.00991379 0.731812
-1.18164 0.929983 -0.588055
-0.793762 1.45643 -0.532091
-1.15058 0.995633 0.783569
-0.780817 1.551 0.827987
0.757088 0.0256804 -0.686461
1.13241 0.211807 -0.669358
0.794727 0.00991375 0.731812
1.1768 0.202773 0.740262
0.784573 1.45643 -0.532091
1.17863 0.929976 -0.588055
0.753434 1.551 0.827987
1.15147 0.995634 0.783569
-1.46032 -0.16232 -2.67406
-1.45875 -0.0252791 -3.20667
-1.08361 -0.18507 -3.23163
-1.484 -0.141868 -1.41167
-1.46503 0.0344281 -2.09645
-1.08478 -0.133108 -2.11977
-1.52226 -0.155071 0.00478856
-1.51107 0.0363025 -0.688153
-1.12219 -0.149825 -0.705256
-1.52645 -0.132925 1.4216
-1.54168 0.0236098 0.726151
-1.15996 -0.16925 0.717701
-1.50879 -0.0759519 2.68605
-1.50168 0.0850676 2.13519
-1.13961 -0.0976292 2.13266
-1.50713 -0.0274992 3.79878
-1.49699 0.137187 3.2508
-1.13236 -0.0461888 3.24709
-1.50719 0.180941 4.36104
-1.13799 -0.00383548 4.35535
-1.46347 0.171469 -2.62906
-1.47357 0.444245 -3.13
-1.08394 0.136149 -3.18345
-1.4921 0.212598 -1.37293
-1.49071 0.51194 -2.02118
-1.5305 0.214983 0.0332094
-1.53723 0.577071 -0.630949
-1.51691 0.241602 1.43975
-1.53629 0.600522 0.759673
-1.48987 0.298206 2.69994
-1.4685 0.64387 2.15069
-1.49705 0.345627 3.81305
-1.47915 0.693717 3.26686
-1.12181 0.328033 3.26015
-1.50161 0.738531 4.38109
-1.13427 0.368959 4.36986
-1.50082 0.784716 -2.52212
-1.50086 1.26542 -3.01289
-1.10808 0.74038 -3.0744
-1.53584 0.876413 -1.27919
-1.52255 1.33912 -1.9063
-1.54302 0.962609 0.0955144
-1.55351 1.46352 -0.53682
-1.48788 1.00279 1.47062
-1.53754 1.54367 0.826757
-1.45778 1.03938 2.71761
-1.48671 1.58493 2.19685
-1.48371 1.08662 3.8349
-1.49461 1.62715 3.30756
-1.10253 1.06428 3.27571
-1.51317 1.66961 4.42287
-1.13084 1.11057 4.39359
-1.5226 1.81982 -2.39708
-1.13255 1.77136 -2.94631
-1.54022 1.92623 -1.16393
-1.14657 1.85274 -1.84255
-1.54803 2.04458 0.194423
-1.16563 1.98997 -0.480856
-1.53637 2.1258 1.55299
-1.16778 2.09903 0.871175
-1.52354 2.1727 2.7868
-1.15406 2.15606 2.23317
-1.52408 2.21014 3.89553
-1.14992 2.19158 3.33757
-1.15615 2.22992 4.45102
-0.708067 -0.155858 -2.67734
-0.708793 -0.0236415 -3.20841
0.0197549 -0.182649 -3.23296
-0.722969 -0.141066 -1.41335
0.0128287 -0.129069 -2.12171
-0.759896 -0.164004 0.00765588
0.0129439 -0.153063 -0.704996
-0.773118 -0.133954 1.42876
0.00357289 -0.174945 0.720308
-0.763173 -0.0678661 2.6937
-0.00881895 -0.0929641 2.13722
-0.763216 -0.0225251 3.80367
-0.757182 0.144657 3.25644
-0.0146765 -0.0427681 3.25019
-0.765072 0.184183 4.36418
-0.0211359 -0.00228204 4.35714
-0.718451 0.432285 -3.12786
0.018943 0.135365 -3.18386
-0.759038 0.351365 3.81696
-0.745201 0.698598 3.269
-0.0179609 0.332082 3.2627
-0.763506 0.740999 4.38236
-0.0246528 0.370648 4.37121
-0.739773 1.24632 -3.00782
0.017417 0.729204 -3.07185
-0.749669 1.08823 3.8344
-0.757848 1.62871 3.30572
-0.0218176 1.06511 3.2753
-0.773816 1.67088 4.42174
-0.0305285 1.11135 4.3935
-0.756527 1.80428 -2.39178
0.0111139 1.76343 -2.94378
-0.771976 1.91648 -1.15948
0.00534635 1.84512 -1.83977
-0.785374 2.04443 0.195896
-0.00918271 1.98785 -0.479182
-0.785473 2.12929 1.55135
-0.0273836 2.101 0.870974
-0.780444 2.17494 2.78394
-0.0377916 2.15758 2.23173
-0.781995 2.21135 3.89306
-0.0401672 2.19231 3.33614
-0.0439316 2.2304 4.44997
0.740651 -0.155859 -2.67734
0.747491 -0.0236423 -3.20841
1.11956 -0.185072 -3.23163
0.748742 -0.141066 -1.41335
1.10525 -0.133109 -2.11977
0.776413 -0.164004 0.00765587
1.14264 -0.149826 -0.705256
0.767872 -0.133954 1.42876
1.16918 -0.16925 0.717701
0.739678 -0.0678661 2.6937
1.1301 -0.0976293 2.13266
0.727403 -0.0225251 3.80367
0.724544 0.144657 3.25644
1.10854 -0.0461889 3.2471
0.719283 0.184183 4.36418
1.09923 -0.00383559 4.35536
0.754811 0.432284 -3.12786
1.11572 0.136148 -3.18345
0.716424 0.351365 3.81695
0.705422 0.698598 3.269
1.09397 0.328033 3.26015
0.708324 0.740999 4.38236
1.08927 0.368959 4.36986
0.768304 1.24632 -3.00782
1.1362 0.740379 -3.0744
0.697322 1.08823 3.8344
0.695863 1.62871 3.30572
1.06612 1.06428 3.27571
0.699356 1.67088 4.42174
1.0738 1.11057 4.39359
0.772987 1.80427 -2.39178
1.15216 1.77136 -2.9463
0.76814 1.91648 -1.15948
1.15397 1.85274 -1.84255
0.748808 2.04443 0.195896
1.14648 1.98997 -0.480857
0.720297 2.12929 1.55135
1.11673 2.09903 0.871175
0.702485 2.17494 2.78394
1.0837 2.15606 2.23317
0.697897 2.21135 3.89306
1.07301 2.19158 3.33757
1.0704 2.22992 4.45102
1.48417 -0.162322 -2.67406
1.48779 -0.0252814 -3.20667
1.49915 -0.141869 -1.41167
1.47162 0.0344256 -2.09645
1.53541 -0.155072 0.00478852
1.51796 0.0363006 -0.688153
1.53141 -0.132925 1.4216
1.55126 0.0236097 0.726151
1.49896 -0.075952 2.68605
1.50511 0.0850675 2.13519
1.48037 -0.0274994 3.79878
1.47797 0.137187 3.2508
1.46921 0.180941 4.36104
1.47524 0.171466 -2.62906
1.49711 0.444242 -3.13
1.49043 0.212596 -1.37293
1.48725 0.511936 -2.02118
1.53381 0.214982 0.0332094
1.5336 0.577066 -0.630949
1.52496 0.241602 1.43975
1.54111 0.600522 0.759673
1.48412 0.298206 2.69994
1.47392 0.64387 2.15069
1.46681 0.345627 3.81306
1.45467 0.693717 3.26686
1.45474 0.738531 4.38109
1.50911 0.784712 -2.52212
1.52006 1.26542 -3.01289
1.53042 0.876407 -1.27919
1.5222 1.33911 -1.9063
1.5409 0.962606 0.0955143
1.54053 1.46352 -0.53682
1.49006 1.00279 1.47062
1.51477 1.54367 0.826757
1.44447 1.03938 2.71761
1.45543 1.58493 2.19685
[...]
POINT_DATA 29498
VECTORS point_vectors float
-1.75346 -3.27324 6.43114
0.151808 0.33893 1.21472
-2.50406 1.69555 4.58304
0.0891058 -0.118352 0.854117
1.75818 -3.2854 6.45555
-0.152269 0.338455 1.21409
2.50828 1.69778 4.58564
-0.0887447 -0.118008 0.851811
0.00397858 0.00609138 0.198025
0.240429 -0.310768 2.27506
3.74438e-19 2.65058e-18 2.61781e-17
0 0 0
-0.00486117 0.00551874 0.214346
-0.239593 -0.310218 2.27357
0 0 0
0 0 0
-0.563782 -0.299743 19.8313
-1.23743 -0.813007 20.4944
-0.384254 -0.403204 21.3664
0.0593332 -0.0771359 21.4674
0.56134 0.243549 21.388
0.786484 0.334897 21.1958
0.782461 0.16247 20.6013
-0.705023 -0.241709 19.7199
-1.81416 -0.732399 20.462
-0.527577 -0.517174 21.4584
0.0256665 -0.176394 21.5619
0.782279 0.109326 21.4719
1.03821 0.169775 20.9971
1.00673 0.0197769 20.9784
-0.842342 0.0697028 19.6424
-1.97704 0.131644 20.4472
-1.11945 -0.326622 21.455
-0.168983 -0.273528 21.7022
0.723734 -0.392303 21.5051
0.983163 -0.478164 21.1642
0.73463 -0.339112 20.9327
-0.561655 0.382009 19.9468
-0.934517 0.620219 20.4308
-0.813675 0.403749 21.1698
-0.224545 -0.0212225 21.4991
0.185447 -0.31213 21.3287
0.318789 -0.361443 21.1353
0.307554 -0.369171 20.6924
-0.54202 -0.666357 19.2745
-1.60228 -3.2918 20.7575
-0.216456 -0.3194 21.6627
0.000404801 0.0116696 21.2507
0.332808 1.04312 20.0061
0.612628 1.39032 18.6725
0.815721 0.779698 18.0622
-0.699979 -0.567968 18.9438
0.94617 1.89603 11.5548
1.53421 0.883163 13.3568
-0.984197 0.226299 18.5193
1.77755 -0.280274 11.7638
1.33314 -0.486271 16.9778
-0.498522 0.788686 19.5753
-0.98244 1.53938 20.1679
-1.12516 1.44832 21.3907
-0.275444 0.129106 21.8896
0.115377 -0.498059 21.4614
0.221548 -0.548121 20.9771
0.081426 -0.434559 20.7578
0.565688 -0.630107 19.3268
1.61951 -3.16674 20.7278
0.214489 -0.317276 21.6661
5.65033e-05 0.0142323 21.2634
-0.298109 1.04921 19.8709
-0.496076 1.36931 18.5323
-0.757 0.837881 17.7166
0.722664 -0.536367 18.9912
-0.775459 1.7622 10.5516
-1.5658 0.942352 12.2797
1.02816 0.230312 18.5844
-1.61989 -0.312649 10.3082
-1.34654 -0.436218 15.9512
0.509116 0.778532 19.59
0.98896 1.5295 20.1717
1.12313 1.49109 21.3962
0.271646 0.140968 21.9158
-0.0929503 -0.499523 21.4895
-0.215437 -0.591331 20.9962
-0.0751053 -0.452324 20.4385
0.559721 -0.28566 19.847
1.21924 -0.796475 20.5022
0.402278 -0.40473 21.357
-0.0490011 -0.0817321 21.4619
-0.557351 0.245378 21.3914
-0.793029 0.33539 21.171
-0.776049 0.196828 20.7114
0.698595 -0.232408 19.7371
1.82339 -0.735914 20.4632
0.52844 -0.517856 21.4605
-0.0238799 -0.177888 21.5538
-0.772856 0.103353 21.4738
-1.0498 0.174815 21.0288
-1.01112 0.0551753 21.1155
0.826555 0.0599373 19.6707
1.98981 0.136075 20.4501
1.12505 -0.330386 21.4675
0.166362 -0.269919 21.7111
-0.721206 -0.388413 21.4896
-0.984729 -0.496081 21.2113
-0.854162 -0.352673 20.7825
0.558885 0.370993 19.9572
0.92911 0.616555 20.4321
0.830719 0.412536 21.1799
0.234819 -0.0235905 21.4986
-0.177374 -0.321228 21.3366
-0.305231 -0.388273 21.0859
-0.235044 -0.361906 20.8153
-1.21429 -0.153837 1.69922
5.98131e-05 -0.0699474 0.446405
-0.00688939 0.000472878 0.116888
-0.00157466 -0.0125317 0.0102997
9.47234e-06 0.00242314 0.0207293
-0.0114703 0.0126285 0.307811
-5.82258e-05 0.119955 0.322419
-0.241932 -0.134375 0.590528
-4.29382e-05 0.0178421 -0.0659075
0 0 0
1.20853 -0.153208 1.69113
0.00689128 0.000469294 0.116827
0.00115825 -0.0123771 0.0105908
0.011464 0.0125329 0.308773
0.23623 -0.13117 0.576929
0 0 0
-0.00876295 0.00880705 0.499706
0 0 0
0 0 0
-0.00640839 0.0474605 0.132053
0 0 0
0 0 0
-2.12827e-06 0.0526148 0.121556
-7.37834e-06 -0.0028333 0.0460353
0.00893579 0.00878533 0.500733
0 0 0
0.00636829 0.047203 0.131316
0 0 0
0 0 0
-0.000859138 0.0052214 0.025475
0.012989 0.0390802 0.318852
2.03009e-07 9.51957e-07 -0.000210204
-4.04294e-07 3.82022e-06 0.0135569
0 0 0
-4.37429e-05 0.0633474 0.121638
0 0 0
-2.44761e-05 0.00335594 0.0319828
-3.47958e-06 0.00594931 0.0786286
-5.31534e-07 0.000236812 -0.000420496
0 0 0
0.00091938 0.00558461 0.027264
-0.0131218 0.039262 0.318891
-3.48986 -2.02202 20.3274
-2.45897 -5.20499 21.0818
-2.12292 -1.81421 17.705
1.18585 0.665596 19.1233
0.21608 1.29985 14.1112
0.181033 1.34032 7.89182
-3.80287 0.721539 20.3644
-3.14476 1.34804 16.7799
-2.1984 2.5454 19.9759
1.2189 -0.152928 18.5679
0.889431 0.221384 6.69673
0.385531 -0.831997 20.3307
2.51594 -5.12531 21.0283
2.12668 -1.76878 17.7637
3.50251 -2.03561 20.3259
-0.195166 1.28945 13.9745
-0.0114228 1.34634 7.41251
-1.18432 0.647973 19.1751
3.13293 1.29759 16.9259
2.20032 2.5287 19.9773
3.81996 0.734216 20.3647
-0.785924 0.242138 5.98567
-0.40704 -0.820014 19.8775
-1.21733 -0.164762 18.6586
-0.0985215 -0.691848 20.8692
-0.149499 0.0867346 17.0059
0.0775985 -0.129551 20.544
0.0414197 -0.000663012 17.2573
-1.81956 -0.988073 21.6862
-3.42033 2.0662 21.7073
-0.0896826 -0.3722 20.6436
-0.490439 0.0270667 21.328
0.15199 0.0829178 17.211
0.0977447 -0.692961 20.8605
-0.0361996 0.00168461 17.2957
-0.0774959 -0.137587 20.5981
3.45206 2.13442 21.7038
1.83001 -1.00145 21.6668
0.470403 0.0504274 21.1911
0.0898553 -0.370811 20.6391
-0.933755 -0.554572 19.9802
-0.648663 -0.27673 19.7866
-0.608031 -0.470079 19.5742
-0.843281 -0.658178 21.2062
-1.53357 -0.812179 20.4647
-1.64117 -1.71251 20.5192
-0.131032 -0.219462 21.4261
-0.474118 -0.477158 21.4016
-0.240766 -0.454818 21.5513
0.297768 0.087167 21.5122
0.0390339 -0.139493 21.4849
0.0766685 -0.0620361 21.5821
0.679469 0.326732 21.3054
0.674965 0.194672 21.439
0.672535 0.594001 21.3888
0.774918 0.320585 20.8867
0.91958 0.26154 21.1277
1.00098 0.759006 20.9807
0.907947 0.109205 20.812
0.771845 0.614275 21.5358
-1.28287 -0.453114 19.8137
-0.807422 -0.113517 19.6327
-0.779892 -0.414443 19.373
-1.16673 -0.690701 21.3573
-2.05822 -0.30607 20.4587
-0.221369 -0.34533 21.4891
-0.838677 -0.512095 21.4574
0.377391 -0.0231103 21.6615
-0.0471566 -0.240999 21.6821
0.943532 0.162951 21.3183
0.867349 -0.146562 21.4799
1.07543 0.10786 21.0107
1.11255 -0.171809 21.1574
1.42614 0.664987 18.8701
0.97468 -0.289126 21.103
1.26042 0.468884 18.8341
-1.5436 0.154464 19.7662
-0.747483 0.312924 19.7582
-0.994476 0.134601 19.1978
-1.58069 -0.149485 21.1694
-1.42499 0.566451 20.4048
-0.644351 -0.320704 21.6564
-1.16579 0.171593 21.3283
0.318682 -0.298311 21.6962
-0.276125 -0.133875 21.645
0.902678 -0.428545 21.2978
0.37442 -0.428437 21.4104
0.830393 -0.451966 21.0152
0.532357 -0.484743 20.9738
1.40361 -0.586604 20.0107
0.45197 -0.40276 20.8662
1.29301 -0.512066 19.8423
-0.76616 0.554039 20.1374
-0.592914 0.567013 19.7719
-0.959989 0.54594 20.8358
-1.05058 1.01788 20.3221
-0.551694 0.212153 21.4292
-1.04757 0.794874 21.3119
0.0223395 -0.199892 21.3852
-0.271684 0.03685 21.6968
0.268273 -0.359631 21.1961
0.163528 -0.405956 21.3904
0.389641 -0.413036 20.7033
0.3049 -0.531091 21.0462
0.177144 -0.424594 21.036
-1.12489 -1.67913 19.0981
-0.618118 -0.619818 19.1114
0.0126229 -0.842946 19.001
-0.559217 -1.21077 22.0999
0.0190907 -4.17771 21.397
-0.0953293 -0.103562 21.1996
0.00350021 -0.437042 21.1972
0.202098 0.523302 20.7423
-0.00187251 -0.115664 20.1318
0.413641 1.19395 19.7974
-0.00248136 0.640555 17.4213
0.633895 1.2693 19.6497
0.803337 1.83519 15.8
0.00642152 0.828141 16.3528
1.17709 0.844887 15.1626
0.0343764 1.45281 15.4286
-0.950928 -0.196664 18.5763
0.0212847 -0.771307 18.4926
1.26272 1.28715 12.2704
2.02837 0.752627 7.80561
-0.0611004 0.220336 -0.379801
1.80078 0.253025 12.6206
0.0959694 0.518999 6.94499
-0.812832 0.817836 19.008
0.0292223 0.402876 17.7402
1.55759 -0.650613 13.7446
0.660259 -0.952348 19.8818
0.0655485 -0.816398 -0.0917201
0.436934 -0.840238 19.5756
0.0321442 -1.84767 3.6974
-0.776809 1.25254 19.7524
0.0113528 0.994414 19.3549
-1.14062 1.59902 20.68
0.0099259 2.16658 20.0147
-0.727229 0.780726 21.8827
-0.0241907 2.48221 21.4178
-0.00998889 -0.277749 21.6869
-0.00942141 0.30497 22.0909
0.185897 -0.596165 21.3557
0.00636888 -0.513805 21.5171
0.15055 -0.725661 20.7204
0.0147069 -0.750484 21.0645
-0.00870184 -0.685965 20.9942
1.14095 -1.61173 19.157
0.641658 -0.58684 19.1608
0.614634 -0.452727 19.5997
0.56865 -1.20265 22.0702
1.63331 -1.64654 20.5065
0.093503 -0.101644 21.2199
0.254263 -0.455929 21.5614
-0.19586 0.525126 20.7203
-0.0728589 -0.0670333 21.5756
-0.367534 1.19998 19.7159
-0.668301 0.613617 21.341
-0.574374 1.31154 19.413
-0.685529 1.79513 15.6185
-1.01569 0.823628 20.9829
-1.11404 0.891734 14.751
-0.774745 0.679731 21.5886
0.996467 -0.193174 18.6416
0.788311 -0.411449 19.3998
-1.29217 1.36046 11.068
-1.84225 0.630057 6.64002
-1.41159 0.767046 18.4555
-1.8281 0.290407 11.6044
-1.29475 0.515816 18.1674
0.824034 0.79234 19.0434
0.991769 0.132239 19.2379
-1.63829 -0.665659 12.1125
-0.595445 -1.0319 19.5699
-1.49435 -0.56934 19.7345
-0.443841 -0.891016 19.3976
-1.31125 -0.546874 19.6947
0.785041 1.24347 19.7583
0.596723 0.55657 19.783
1.14074 1.60631 20.6778
1.04954 1.00671 20.3255
0.721228 0.831763 21.9045
1.0554 0.819063 21.3176
0.0162447 -0.278042 21.6993
0.281472 0.0511596 21.7148
-0.160476 -0.605095 21.3623
-0.147557 -0.42524 21.4139
-0.136458 -0.748188 20.8441
-0.295782 -0.557306 21.0413
-0.150914 -0.423464 21.0214
0.918885 -0.539588 20.0023
0.647071 -0.265288 19.806
0.849521 -0.644905 21.1949
1.51828 -0.803545 20.4714
0.14715 -0.22635 21.4319
0.479616 -0.479441 21.3987
-0.295677 0.085502 21.5154
-0.037509 -0.14277 21.4682
-0.678543 0.337298 21.313
-0.665738 0.196521 21.4303
-0.804317 0.319356 20.8349
-0.932671 0.265484 21.1581
-0.910303 0.144343 20.938
1.26883 -0.445361 19.8233
0.799944 -0.111702 19.6534
1.17016 -0.693814 21.3592
2.07953 -0.309259 20.467
0.218448 -0.343334 21.4912
0.841793 -0.516141 21.4678
-0.371661 -0.0263211 21.6544
0.0495939 -0.241648 21.6791
-0.944557 0.165218 21.3157
-0.858131 -0.146546 21.484
-1.14702 0.116566 20.8668
-1.14739 -0.186245 21.2116
-1.08584 -0.295779 20.9875
1.52146 0.14354 19.7815
0.737759 0.304694 19.7778
1.59322 -0.149002 21.178
1.426 0.566511 20.4074
0.645205 -0.321693 21.6612
1.18703 0.168606 21.339
-0.320178 -0.297915 21.696
0.278913 -0.138221 21.6659
-0.91553 -0.438298 21.3072
-0.381629 -0.445545 21.4303
-0.851573 -0.474752 21.0452
-0.539806 -0.509395 20.9934
-0.400195 -0.401755 20.9362
0.762764 0.545681 20.1422
0.965514 0.552892 20.8357
0.569954 0.222498 21.4478
-0.0309438 -0.210368 21.4558
-0.260166 -0.373045 21.1974
-0.317243 -0.431687 20.8105
-1.10241 -0.530763 19.8956
-1.57071 -1.86904 18.5117
-1.20567 -1.05379 19.6023
-1.86836 -0.964263 19.0724
-0.722515 -0.470791 19.4778
-2.38426 -2.01205 20.4498
-1.02187 -0.698482 21.2791
-0.321333 -0.724018 19.2382
-0.811599 -1.06065 21.6065
-1.24782 -1.36693 22.1695
-0.146106 -0.523845 21.5588
-0.178863 -0.301045 21.4527
-0.0501577 0.0916348 16.8223
-0.0425845 -0.233715 21.5342
0.0482831 -0.370905 20.4233
0.118442 -0.114319 21.4276
0.318389 0.0303441 21.5587
0.277707 0.614681 15.2463
0.36555 0.247586 21.6487
0.53363 0.262043 20.0508
0.966783 0.67161 20.8238
0.829359 0.280971 21.301
0.302415 1.3747 14.9962
0.811104 0.742377 21.0737
1.36492 0.69252 19.6965
1.14546 0.716016 20.661
0.962364 0.219315 20.8845
0.911566 1.26755 15.2141
0.988121 0.764182 21.0142
1.64501 0.599353 19.2169
0.945221 0.523164 20.6242
-1.49958 -0.202379 19.7328
-2.99308 -0.559463 16.6685
-2.33414 0.472662 18.9114
-0.987521 -0.143105 19.1691
-4.45716 -0.624047 20.265
-1.46196 -0.459976 21.3147
-2.50356 -0.41206 21.6252
-0.706788 -1.16189 20.7966
-0.39922 -0.406641 21.5892
-0.892522 -0.790468 21.2729
0.0777096 -0.0568072 19.5195
0.3895 -0.150021 21.7154
0.730072 -0.0636085 19.535
1.30732 0.31196 17.1064
1.04715 -0.154822 21.2653
0.295444 0.988682 3.63755
1.31879 -0.431418 19.6866
1.76042 0.112983 17.9248
0.997776 -0.200382 21.3124
1.90523 0.578634 10.0431
1.45977 -0.566963 20.2458
1.53176 -0.158677 18.0476
-1.15731 0.519318 19.9548
-1.56209 1.83547 18.9646
-0.846733 0.864064 19.956
-0.828175 0.505253 19.4477
-1.99185 1.2538 20.2524
-1.40407 0.372536 20.9265
-2.59284 2.11384 20.4781
-1.1546 0.997352 20.7841
-1.96241 0.530872 21.5542
-0.732374 0.0110008 21.6112
-1.95732 0.701673 22.3398
-0.68715 0.40918 21.6589
-0.417937 -0.149478 22.0041
0.116679 -0.291322 21.5594
0.265791 -0.584981 20.4619
0.00803261 -0.246524 21.5761
0.388346 -0.67531 21.5566
0.485268 -0.49595 21.2923
0.460418 -0.965407 20.5332
0.231617 -0.480456 21.2241
0.550959 -0.843736 21.251
0.580346 -0.537022 20.8492
0.473579 -1.04946 19.6499
0.1448 -0.392874 21.1237
0.388623 -0.566781 20.474
1.59387 -1.83646 18.591
0.0335022 -2.48395 18.546
0.042072 -3.19944 15.7942
0.0120828 -0.900992 18.6964
0.00895624 -5.79485 23.1823
0.322446 -0.754169 19.5227
0.00790252 -1.31587 22.3733
0.001578 -0.01622 13.0605
0.0559337 0.0958129 16.9712
-0.000255354 -0.225748 20.2052
-0.000763641 -0.0836983 13.0211
-0.271661 0.614717 15.1808
-0.00219395 0.356524 18.8629
-0.00409797 0.481569 8.31953
-0.212357 1.36665 14.5974
-0.00391591 0.435638 16.8683
-0.0461075 -1.29271 -2.29039
-0.0545356 0.981202 8.17192
-0.844528 1.32998 14.9701
0.0192856 1.42794 15.9254
-0.0443949 -0.63084 -0.123279
0.0890793 1.37564 12.235
2.98886 -0.529231 16.7915
0.0588303 3.18059 13.7851
0.0208332 -0.258977 17.8635
-0.167531 1.0158 3.16548
0.0152578 -0.116345 -0.334287
0.0806159 -0.998404 -4.65568
-1.93191 0.597368 8.84949
0.0736301 -1.63237 1.37151
0.106351 -0.597627 3.27357
1.56816 1.78796 19.004
0.0120117 1.70992 19.5148
0.0220752 1.13934 18.5284
0.00887372 4.06908 19.6544
2.59115 2.12209 20.4739
-0.00399938 2.41654 20.4858
-0.0201476 5.37676 21.1928
1.9574 0.742386 22.0563
-0.0239266 1.36719 22.2268
-0.00370956 0.264977 19.6475
-0.299647 -0.60276 20.1583
0.00117643 -0.264819 21.7543
0.00232153 -0.658706 15.4331
-0.433035 -0.979474 20.4136
0.0138104 -0.642206 21.3631
0.0042109 -1.12789 17.2272
-0.508464 -1.07663 19.3927
0.0120635 -0.644224 20.7036
0.0435554 -1.0908 18.9249
1.08849 -0.51965 19.9207
1.20334 -1.02569 19.6234
1.85811 -0.942513 19.1106
0.71906 -0.452947 19.4966
2.37088 -1.97026 20.4401
1.02166 -0.697441 21.2712
0.835145 -1.04524 21.575
1.25102 -1.37258 22.1672
0.167172 -0.529093 21.5547
0.179773 -0.305127 21.4524
0.0515885 -0.241228 21.5261
-0.0457211 -0.375722 20.4442
-0.111534 -0.118208 21.4282
-0.314259 0.0266545 21.5588
-0.362309 0.246126 21.6488
-0.532741 0.253484 20.1042
-0.962088 0.686763 20.7679
-0.832681 0.290723 21.2961
-0.807388 0.77084 21.0465
-1.3598 0.728434 19.4706
-1.13146 0.809386 20.2763
-1.02948 0.225663 20.7432
-0.969611 0.841739 21.1425
-1.62048 0.687211 19.1585
-0.979286 0.565876 20.0133
1.48056 -0.200885 19.7651
2.30319 0.457073 18.9547
0.981988 -0.141239 19.2148
4.4712 -0.626556 20.2602
1.47583 -0.462349 21.3244
2.5114 -0.414421 21.6311
0.704686 -1.16596 20.7661
0.398113 -0.40904 21.598
0.891852 -0.789507 21.2465
-0.0760408 -0.0680615 19.586
-0.386151 -0.151284 21.7184
-0.725 -0.066883 19.5404
-1.30591 0.304837 17.2085
-1.06075 -0.161766 21.2568
-1.34635 -0.394734 19.4239
-1.83449 0.167009 17.1193
-1.07492 -0.218605 21.2088
-1.55794 -0.58765 19.9067
-1.56852 -0.102444 17.3123
1.14716 0.507419 19.9693
0.848282 0.847358 19.964
0.829941 0.494567 19.4664
1.98727 1.24577 20.2511
1.4184 0.375485 20.9283
1.15513 1.00544 20.7835
1.98974 0.553312 21.5589
0.749428 0.00574925 21.6238
0.69701 0.438441 21.6823
0.43531 -0.145542 22.032
-0.122234 -0.306764 21.5839
-0.00661896 -0.251548 21.5797
-0.37444 -0.702751 21.5859
-0.496384 -0.526236 21.2437
-0.217709 -0.511597 21.2669
-0.542154 -0.875863 21.3409
-0.654605 -0.544154 20.8288
-0.127982 -0.422478 21.1239
-0.394564 -0.619877 20.2869
-1.47486 -1.093 19.4078
-0.966113 -1.22303 21.8804
0.0240452 -0.28378 21.3655
0.495233 0.255909 21.2051
1.11884 0.789428 20.7285
1.30129 0.653783 20.342
-2.34681 -0.306236 18.7885
-1.93762 -1.0467 22.0892
-0.21938 -0.632923 19.7706
0.656526 0.345164 18.7774
1.54182 0.171311 18.4095
1.6374 0.0247787 18.0672
-1.48099 0.977555 19.5515
-2.06477 0.878241 20.8948
-1.17289 0.12206 21.9901
0.124418 -0.458331 21.8293
0.511112 -0.764338 21.3311
0.684405 -0.775736 20.7249
0.0386814 -3.10329 17.5412
0.00484193 -0.557612 15.4294
-0.000416077 -0.0270396 12.6579
-1.17172e-05 0.340154 10.7186
-0.0556879 -0.143474 7.44702
-0.034674 0.754929 7.65903
0.0570412 -0.751878 13.3677
-0.0190485 -0.896191 -3.75102
0.18869 -0.91209 0.213312
0.023249 2.96672 18.2638
-0.0043311 3.98588 19.6814
-0.0224977 2.30897 21.4831
0.00647651 -0.487715 16.4536
0.00272547 -0.830428 16.4364
0.014759 -1.17421 17.8031
1.47111 -1.06895 19.4317
0.982067 -1.21458 21.8546
-0.0136627 -0.289914 21.3931
-0.491115 0.251665 21.2033
-1.0971 0.81928 20.5202
-1.28327 0.736282 20.2891
2.31333 -0.304645 18.8381
1.94522 -1.05117 22.081
0.222224 -0.634956 19.7836
-0.656756 0.33045 18.8614
-1.52303 0.199833 17.8219
-1.6794 0.0834188 17.195
1.47393 0.959809 19.5671
2.07487 0.884889 20.891
1.19741 0.135135 22.0096
-0.121597 -0.476659 21.8619
-0.51237 -0.796144 21.3434
-0.597976 -0.820189 20.9005
-1.26087 -0.551075 1.18008
-0.00810958 -0.112067 0.586096
-0.0175965 -0.017439 0.477671
0.0500965 0.0170305 0.15702
-0.0144087 0.0072557 0.0402871
-0.063951 0.112216 1.19064
-1.63207 0.256443 1.90595
-0.0297584 0.291222 0.592861
-0.402952 -0.0764483 1.40248
-0.0055329 0.00236406 -0.00401408
4.60237e-05 0.0264095 -0.0309349
0.0059533 0.000807303 0.0249076
0.00784807 -0.11212 0.586057
1.27161 -0.556336 1.18986
0.0171969 -0.0177279 0.477205
0.0142213 0.00717466 0.0398144
-0.0500559 0.0171414 0.156522
0.0645409 0.112311 1.18929
0.0302475 0.290081 0.591818
1.65799 0.260883 1.93339
0.40394 -0.0752589 1.40931
-0.000119997 0.0269249 -0.0319554
0.00568276 0.00243112 -0.00412056
-0.00583373 0.00078512 0.024375
-0.0289802 -0.0044632 0.590278
-0.0024807 0.00119785 0.308087
0 0 0
0 0 0
0.000189621 0.00916271 0.153527
-0.0357963 0.0482328 1.23533
0 0 0
0 0 0
-0.0607892 -0.0656361 0.210987
-6.97272e-05 0.000972088 0.0108622
0 0 0
-0.0424275 0.0527734 0.136302
0 0 0
0.0001695 0.000711956 0.00258014
8.03742e-18 1.36302e-17 4.55799e-17
0.0268433 -0.00298873 0.164692
0.0288687 -0.00445702 0.589951
0 0 0
0.00252974 0.00133261 0.308165
0 0 0
-0.00016301 0.0091492 0.152633
0 0 0
0.0360662 0.0484172 1.23414
0 0 0
0.0611549 -0.0660891 0.212371
0.0428267 0.0535299 0.137578
6.41756e-05 0.000888192 0.0099914
0 0 0
0 0 0
-0.0267686 -0.00297133 0.163924
-0.000203117 0.000851858 0.00308464
0 0 0
-0.117469 -0.0603781 0.505675
-0.237733 0.114814 0.154417
-9.13484e-09 -1.08603e-05 0.000678008
0 0 0
0 0 0
-2.00783e-07 2.9514e-07 -5.25386e-05
0 0 0
0 0 0
4.20707e-08 2.13414e-05 0.000158789
-9.58845e-07 0.000272696 -0.000871226
0.00135814 0.00579067 0.0623782
0 0 0
-0.000201091 0.72615 0.58119
1.4681e-06 0.0108246 0.0598557
-0.0110272 -0.115268 0.546452
-0.00524245 0.00106166 0.00929481
0 0 0
0 0 0
0 0 0
-0.000287398 8.57129e-05 -8.05422e-06
0.238521 0.11476 0.154912
0.19671 -0.0960909 1.01535
3.40939e-07 4.90611e-07 -8.74617e-05
0 0 0
0 0 0
0 0 0
0 0 0
-0.00135774 0.00579343 0.062353
0.005293 0.0010728 0.00939273
0.0110624 -0.116262 0.550522
0.000266887 8.19468e-05 -8.23814e-06
0 0 0
0 0 0
5.34391e-05 3.32372e-06 0.00315938
0 0 0
0 0 0
0 0 0
-1.62788e-08 2.85192e-08 1.08563e-05
-0.00572824 0.0346032 0.145746
-0.0070617 0.0182193 0.110207
-3.8819e-07 -1.20604e-05 0.00594929
0 0 0
0 0 0
-0.0162112 0.0408675 0.478127
0.00111499 0.016579 0.0350821
-4.72678e-06 0.0106904 0.0509686
-2.33673e-07 1.06572e-05 0.00371426
8.92683e-06 -0.0036843 0.0239233
-5.29353e-05 3.36036e-06 0.00315784
0 0 0
0 0 0
0 0 0
0.00580728 0.0351186 0.147897
0.00721379 0.0185957 0.112617
0.0161096 0.0410173 0.478771
0 0 0
-0.0748488 -0.0486221 0.465001
0 0 0
0 0 0
-0.000981156 -0.00929807 0.0514275
-1.10561e-05 6.90094e-05 0.000724
3.59416e-05 0.00087705 0.00428744
0 0 0
5.25536e-05 0.000363625 0.00132999
0 0 0
0.00159184 0.00495495 0.0173823
0 0 0
0.000735849 0.000939759 0.0153946
-1.57571e-05 -9.94709e-06 0.000546434
1.72814e-05 -1.10248e-05 0.000606102
0 0 0
0 0 0
7.477e-05 9.57687e-06 0.00377807
-7.4214e-05 9.62583e-06 0.00377957
0.000306056 -1.74642e-05 0.0158679
-0.000303258 -1.72288e-05 0.0158957
0 0 0
0 0 0
0 0 0
0 0 0
-0.974669 -1.3992 0.323971
0.978696 -1.39101 0.32527
-0.0889214 0.180583 0.130082
0.0497531 0.101264 0.0719215
-0.0803779 0.00813861 -0.000714452
0.0798769 0.00808124 -0.000735272