# vtk DataFile Version 2.0
tri_press
ASCII
DATASET UNSTRUCTURED_GRID
POINTS 3682 float
-0.685 0.105 -1.81457
-0.802875 0.235 1.705
-0.715 0.47196 -1.655
-0.755 0.750094 1.775
0.685 0.105 -1.81457
0.802868 0.235 1.705
0.715 0.47196 -1.655
0.755 0.750094 1.775
-0.759113 0.113512 -0.64138
-0.840661 0.114588 0.53181
-0.798367 0.634705 -0.511667
-0.769808 0.685524 0.631667
0.759107 0.113515 -0.64138
0.840664 0.114581 0.53181
0.798366 0.634704 -0.511667
0.770849 0.686565 0.631667
-1.45387 -0.203458 -2.80399
-1.45751 -0.145125 -1.87739
-1.52231 -0.13789 -0.703433
-1.59858 -0.139092 0.476538
-1.60583 -0.0558357 1.65101
-1.59872 0.0153129 2.58008
-1.59703 0.0763541 3.50456
-1.45069 0.0230891 -2.73494
-1.45391 0.0983573 -1.8116
-1.53057 0.124541 -0.643452
-1.60518 0.126469 0.527388
-1.59634 0.214742 1.69611
-1.59261 0.285089 2.62476
-1.59465 0.344693 3.55022
-1.46478 0.446616 -2.58845
-1.47908 0.520087 -1.66389
-1.55235 0.636924 -0.516089
-1.56255 0.680669 0.629595
-1.55534 0.745505 1.77797
-1.57079 0.813563 2.70785
-1.58466 0.874859 3.63812
-1.49627 1.1711 -2.39118
-1.50965 1.25472 -1.47108
-1.54171 1.37762 -0.332965
-1.55838 1.47357 0.798718
-1.56165 1.54793 1.93715
-1.56845 1.60582 2.8579
-1.57785 1.66344 3.78491
-0.710502 -0.199621 -2.80592
-0.699198 -0.138624 -1.8802
-0.745099 -0.14222 -0.703056
-0.810622 -0.14801 0.480313
-0.813792 -0.0467984 1.6576
-0.809455 0.022759 2.58456
-0.81017 0.0807205 3.50715
-0.708813 0.0211235 -2.73553
-0.807121 0.294063 2.62846
-0.809837 0.349665 3.55218
-0.719294 0.426514 -2.58476
-0.790844 0.818549 2.70726
-0.803816 0.878779 3.638
-0.737369 1.15817 -2.38753
-0.743169 1.24291 -1.46706
-0.7686 1.37534 -0.330541
-0.782837 1.47619 0.798427
-0.784397 1.5508 1.93507
-0.790394 1.60835 2.85582
-0.798838 1.66569 3.7834
0.733361 -0.199585 -2.80591
0.731675 -0.138603 -1.8802
0.782008 -0.142182 -0.703056
0.825439 -0.14797 0.480313
0.799421 -0.0467664 1.6576
0.782122 0.0228229 2.58456
0.770714 0.0808235 3.50716
0.720067 0.0211491 -2.73553
0.77541 0.294113 2.62846
0.766251 0.349767 3.55218
0.729098 0.426543 -2.58476
0.759492 0.818634 2.70726
0.759464 0.87891 3.638
0.766555 1.15827 -2.38753
0.775045 1.24303 -1.46706
0.776076 1.37558 -0.330541
0.768385 1.47658 0.798427
0.765517 1.55112 1.93507
0.762557 1.6086 2.85582
0.758515 1.6659 3.7834
1.47059 -0.20336 -2.80399
1.47344 -0.145041 -1.87739
1.54163 -0.137714 -0.703433
1.6101 -0.13886 0.476538
1.60083 -0.0556916 1.65101
1.57817 0.0154873 2.58008
1.56234 0.0765836 3.50456
1.45496 0.0231681 -2.73494
1.44799 0.0984091 -1.8116
1.52756 0.124749 -0.643452
1.608 0.126829 0.527388
1.59734 0.214858 1.69611
1.571 0.285251 2.62476
1.55695 0.344925 3.55022
1.46664 0.446706 -2.58845
1.47145 0.52015 -1.66389
1.54506 0.637242 -0.516089
1.56213 0.681692 0.629594
1.55597 0.745826 1.77797
1.54882 0.813813 2.70785
1.54558 0.875148 3.63812
1.51833 1.17132 -2.39118
1.53082 1.25499 -1.47108
1.54438 1.3781 -0.332966
1.54517 1.47428 0.798718
1.54364 1.54855 1.93715
1.54154 1.60632 2.8579
1.53864 1.66388 3.78491
-0.69045 0.28848 -1.72524
0 0.120217 -1.79935
-0.734576 0.0967362 -1.22798
-0.717603 0.492547 1.67867
-3.48687e-06 0.201735 1.73827
-0.852415 0.144147 1.11841
0 0.550727 -1.73377
-0.812642 0.609291 -1.08333
0 0.788876 1.81378
-0.794755 0.75016 1.20333
0.690415 0.28848 -1.7252
0.734075 0.0972365 -1.22798
0.717374 0.492547 1.67844
0.852389 0.144168 1.11841
0.812643 0.609292 -1.08333
0.794752 0.750157 1.20333
-0.799536 0.114401 -0.054785
-0.760103 0.374109 -0.576523
-2.7889e-06 0.103303 -0.64138
-0.772858 0.400056 0.581738
1.21312e-06 0.109612 0.53181
-0.781719 0.657746 0.06
-6.37471e-07 0.834458 -0.511667
0.000520254 1.08574 0.631667
0.799536 0.114398 -0.054785
0.76009 0.37411 -0.576523
0.772721 0.400573 0.581738
0.78295 0.658977 0.06
-0.815788 0.331294 -1.15565
0.815785 0.331295 -1.15565
-1.39445e-06 0.101993 -1.22798
-3.18736e-07 0.698715 -1.08333
0 0.28848 -1.81711
-0.754117 0.387083 0.00260752
0.756565 0.387341 0.00260752
-7.87888e-07 0.109723 -0.054785
0.000259808 1.08335 0.06
-0.870287 0.446302 1.16087
0.87029 0.44656 1.16087
-1.13688e-06 0.118687 1.11841
0.000260127 0.926631 1.20333
-1.74344e-06 0.492547 1.97319
-0.66909 0.19674 -1.75127
-0.3425 0.0917818 -1.82779
-0.715113 0.0955437 -1.52127
-0.715975 0.363773 1.64757
-0.401439 0.215348 1.72465
-0.853414 0.163804 1.4117
-0.709448 0.38022 -1.69684
-0.3575 0.523592 -1.70663
-0.803534 0.580338 -1.36917
-0.771583 0.62132 1.76211
-0.3775 0.765437 1.79034
-0.778439 0.753689 1.48917
0.3425 0.0917503 -1.82782
0.669059 0.19674 -1.75124
0.7151 0.0955555 -1.52127
0.401432 0.220572 1.71943
0.715957 0.363773 1.64756
0.85336 0.163853 1.4117
0.3575 0.52355 -1.70659
0.709438 0.38022 -1.69683
0.803598 0.580403 -1.36917
0.3775 0.765446 1.79035
0.771496 0.62132 1.76203
0.778442 0.753691 1.48917
-0.750954 0.101015 -0.934678
-0.780037 0.113245 -0.348083
-0.775568 0.23583 -0.608952
-0.382763 0.101997 -0.64138
-0.848575 0.127331 0.825108
-0.820033 0.114561 0.238513
-0.824038 0.248683 0.556774
-0.42232 0.10812 0.53181
-0.807692 0.624185 -0.7975
-0.775391 0.502485 -0.544095
-0.788246 0.644429 -0.225833
-0.42222 0.780654 -0.511667
-0.779563 0.715124 0.9175
-0.825 0.569624 0.606703
-0.777244 0.673115 0.345833
-0.458458 1.03326 0.631667
0.751056 0.100911 -0.934678
0.382758 0.101997 -0.64138
0.779884 0.113394 -0.348083
0.775519 0.235852 -0.608952
0.848536 0.127365 0.825108
0.42232 0.108122 0.53181
0.820033 0.114556 0.238513
0.823873 0.248987 0.556774
0.807686 0.624179 -0.7975
0.422214 0.780644 -0.511667
0.775407 0.502496 -0.544095
0.789514 0.645697 -0.225833
0.779573 0.715133 0.9175
0.459007 1.0328 0.631667
0.826754 0.571054 0.606703
0.778484 0.674356 0.345833
-0.809626 0.309887 -1.44044
-0.345225 0.28848 -1.88922
-6.97224e-07 0.104972 -1.51366
0 0.204349 -1.81995
-0.810421 0.214015 -1.19181
-0.367289 0.094009 -1.22798
-0.866476 0.469424 1.41977
-0.358803 0.492547 1.91233
-2.31187e-06 0.137901 1.42834
-2.61515e-06 0.347141 1.93627
-0.871628 0.295224 1.13964
-0.426208 0.118908 1.11841
-1.59368e-07 0.654584 -1.40855
0 0.419603 -1.91924
-0.813835 0.470292 -1.11949
-0.406321 0.68274 -1.08333
0.000130064 0.818906 1.50856
-8.71718e-07 0.640711 1.93817
-0.865319 0.598231 1.1821
-0.397248 0.870352 1.20333
0.809721 0.309887 -1.44043
0.345207 0.28848 -1.88899
0.810419 0.214266 -1.19181
0.367037 0.0940068 -1.22798
0.866544 0.469554 1.41965
0.358686 0.492547 1.91232
0.871634 0.295364 1.13964
0.426194 0.11891 1.11841
0.813875 0.470293 -1.11949
0.406321 0.682248 -1.08333
0.865017 0.598359 1.1821
0.397506 0.870911 1.20333
-0.728924 0.274693 -0.0260887
-0.402205 0.107189 -0.054785
-0.815619 0.352701 -0.866089
-0.757131 0.380596 -0.286958
-2.09167e-06 0.0957584 -0.934678
-1.78839e-06 0.109608 -0.348083
-0.761534 0.393569 0.292173
-0.879919 0.423179 0.871304
2.12616e-07 0.1095 0.238513
3.81219e-08 0.110094 0.825108
-0.771833 0.524372 0.0313038
-0.472162 1.03341 0.06
-4.78103e-07 0.719795 -0.7975
0.000129585 0.989255 -0.225833
0.000390031 1.0966 0.345833
0.000390191 1.01783 0.9175
0.731396 0.274197 -0.0260887
0.402203 0.107189 -0.054785
0.815615 0.352702 -0.866089
0.75969 0.380726 -0.286958
0.764006 0.393957 0.292173
0.879924 0.423567 0.871304
0.774224 0.525392 0.0313038
0.472568 1.03309 0.06
-0.802428 0.205378 -1.48086
-0.813353 0.228913 -0.900383
-0.817521 0.48735 -0.831794
-0.811467 0.425256 -1.40481
0.802412 0.205503 -1.48085
0.811467 0.425257 -1.4048
0.817521 0.48735 -0.831794
0.813391 0.229039 -0.900383
-0.354894 0.0934651 -1.51747
0.354768 0.0934631 -1.51747
0.373294 0.0946558 -0.934678
-0.373423 0.0946575 -0.934678
-0.38191 0.635677 -1.38886
-0.402752 0.708495 -0.7975
0.402752 0.708465 -0.7975
0.381911 0.635645 -1.38886
-0.343863 0.200544 -1.89342
-0.351363 0.399912 -1.86453
0.351354 0.399912 -1.86451
0.343854 0.200544 -1.89351
-0.733823 0.264473 -0.31752
-0.731667 0.284095 0.265343
-0.824591 0.560085 0.319003
-0.774153 0.513699 -0.256396
0.73634 0.263583 -0.31752
0.776678 0.514876 -0.256396
0.826679 0.561318 0.319003
0.734098 0.28336 0.265343
-0.391438 0.106686 -0.348083
0.391434 0.106686 -0.348083
0.412253 0.107674 0.238513
-0.412254 0.107672 0.238513
-0.456131 0.924912 -0.225833
-0.472091 1.0469 0.345833
0.472582 1.04653 0.345833
0.456381 0.924846 -0.225833
-0.881001 0.276273 0.848206
-0.863178 0.329499 1.41574
-0.855795 0.609776 1.45447
-0.874855 0.570511 0.894402
0.881 0.276471 0.848206
0.874843 0.570964 0.894402
0.856379 0.60984 1.45441
0.863118 0.329569 1.41568
-0.423269 0.109967 0.825108
0.423263 0.109968 0.825108
0.413813 0.139702 1.42002
-0.413824 0.139686 1.42002
-0.390946 0.978705 0.9175
-0.387374 0.789466 1.49886
0.387503 0.78931 1.49886
0.391595 0.978364 0.9175
-0.380121 0.355457 1.90498
0.380059 0.355457 1.90489
0.368093 0.631016 1.8981
-0.368151 0.631016 1.89824
-0.6587 0.15087 -1.76457
-0.51375 0.0917836 -1.82779
-0.705386 0.0949425 -1.66792
-0.778649 0.299387 1.69551
-0.602157 0.203797 1.7362
-0.830515 0.197032 1.55835
-0.71566 0.42609 -1.67936
-0.53625 0.508844 -1.69188
-0.764395 0.531277 -1.51208
-0.740669 0.685707 1.74593
-0.56625 0.760395 1.7853
-0.766627 0.751799 1.63208
0.51375 0.0917527 -1.82782
0.658785 0.15087 -1.76466
0.705386 0.0949416 -1.66792
0.60215 0.204136 1.73586
0.778634 0.299387 1.6955
0.830522 0.197018 1.55835
0.53625 0.507179 -1.69022
0.715652 0.42609 -1.67935
0.764439 0.531321 -1.51208
0.56625 0.760384 1.78529
0.741828 0.685707 1.74709
0.766593 0.751765 1.63208
-0.757878 0.104419 -0.788029
-0.77159 0.111363 -0.494731
-0.770069 0.173307 -0.625166
-0.571992 0.105646 -0.64138
-0.85102 0.114558 0.678459
-0.830329 0.114593 0.385161
-0.82336 0.186131 0.544292
-0.632523 0.10929 0.53181
-0.802314 0.628729 -0.654583
-0.77565 0.562981 -0.527881
-0.793472 0.639732 -0.36875
-0.615267 0.717627 -0.511667
-0.765672 0.69131 0.774583
-0.802496 0.63012 0.619185
-0.774762 0.680555 0.48875
-0.605771 0.842667 0.631667
0.756485 0.105809 -0.788029
0.571984 0.105653 -0.64138
0.771504 0.111446 -0.494731
0.770059 0.173311 -0.625166
0.851023 0.11455 0.678459
0.632522 0.109291 0.53181
0.83033 0.114588 0.385161
[...]
POINT_DATA 3682
SCALARS point_scalars float 1
LOOKUP_TABLE default
-27.0482
-40.1519
-11.9483
-37.685
-26.9576
-40.0418
-10.6093
-37.6687
-30.8822
-32.5816
-33.792
-43.1681
-30.7634
-32.5466
-33.2871
-43.667
-61.527
-92.3767
-45.0538
-24.7265
-46.0456
-39.4492
-33.6458
-61.527
-75.3279
-43.7826
-42.2868
-42.8778
-39.4492
-31.3473
79.6035
-84.6786
-33.7188
-44.4169
-43.3706
-35.9643
-32.1144
-4.35634
-74.3373
-37.4647
-43.8247
-42.6094
-37.4474
-37.5898
83.383
-61.527
-34.9
-32.685
-41.1708
-32.2986
-30.6259
83.383
-30.6259
-28.7026
159.317
-30.5918
-29.6581
58.2419
-57.1087
-65.293
-61.4223
-37.5898
-30.5744
-30.188
80.3874
-61.9753
-35.3513
-31.785
-41.0594
-32.1592
-28.7531
80.3874
-30.2061
-28.7531
159.053
-30.5448
-29.4901
73.516
-58.301
-64.1441
-61.3425
-37.5349
-30.4989
-30.12
-61.9753
-92.4106
-45.3592
-24.6673
-45.9116
-39.3202
-33.3829
-61.9753
-75.6619
-44.0028
-42.1566
-42.8061
-39.3202
-31.5699
76.5915
-85.7112
-33.3067
-44.2387
-43.2807
-35.7493
-31.9582
-2.74359
-75.0679
-37.4889
-43.6237
-42.5064
-37.4134
-37.5349
27.0797
-171.473
-53.3241
-37.5978
-30.3225
-39.8841
-1.89152
-56.0963
-30.7674
-46.4201
28.2308
-53.2361
-37.5191
-39.722
-56.0278
-46.2765
-25.1058
-33.5209
-36.9221
-20.4802
-33.2839
-41.4784
23.8203
-68.8532
-25.2421
-33.2201
-21.1005
-41.9508
-60.1413
-60.0233
-57.1665
-23.5341
190.522
-26.5525
-26.9461
-30.972
-99.0978
-43.4247
-43.2567
-37.8124
-41.4279
-22.4668
75.1793
-158.762
-83.6709
-38.617
-33.6214
-48.0591
-40.9988
13.0202
-73.2986
-36.5669
-31.6685
-40.9554
-161.013
75.3994
-83.5974
-33.351
-38.5487
-47.9273
13.5236
-37.7049
-74.0017
-31.6098
-36.5559
-40.8962
-41.559
-26.8687
-34.2353
-34.7406
-41.6154
-26.48
-22.6829
-33.1069
-40.7093
-32.6471
-38.7089
-1.78625
-43.1114
-35.5015
-42.5324
-62.817
-41.6263
-34.7377
-26.9324
-34.0027
-41.4641
-33.0885
-26.6267
-22.7246
-40.4486
-1.51245
-32.2105
-39.0238
-43.0363
-62.9063
-36.4116
-42.8648
-99.5989
189.873
-84.996
182.687
-60.8599
-52.3504
-45.9476
-28.3068
-37.9309
-23.4589
-42.4567
-38.626
-44.3152
131.603
-57.8343
-34.1578
-35.4014
-26.3021
-43.6097
-42.3815
-99.7399
188.345
-60.8025
-52.3534
-46.0135
-28.1405
-42.2993
-38.4719
-57.7248
-34.2137
-43.552
-42.3431
-26.208
-29.5318
-45.423
-28.5221
-44.7891
-32.9399
-24.0334
-48.7898
-31.4458
-35.91
-29.6934
-82.0497
0.728064
-17.4914
-82.5174
-51.4385
-26.1218
-29.5657
-45.2269
-28.7094
-24.5645
-48.5109
-30.1192
-82.2241
-85.9544
-45.3455
-45.7929
-96.7857
-85.7415
-96.781
-45.5374
-45.2604
-76.017
-76.0771
-42.4085
-42.3972
-47.5953
-13.4871
-13.9557
-47.8656
184.115
120.494
119.955
183.71
-27.7473
-23.9658
-29.6319
-31.2572
-27.863
-31.4519
-30.1819
-24.5186
-31.3275
-31.3394
-30.5113
-30.4917
-29.4944
-69.5949
-69.8747
-29.3438
-47.724
-45.6808
-45.8343
-47.6956
-47.5092
-47.3273
-46.0179
-45.7275
-36.3244
-36.2495
-40.9865
-41.4444
-51.2742
-36.5333
-36.4989
-51.2428
-28.8438
-29.0271
-29.2377
-29.3438
33.931
-112.832
-111.512
-38.6086
-35.9564
-43.6123
-17.4335
30.9427
-39.4242
-38.474
-33.6402
-38.8061
-113.152
33.9335
-111.473
-36.1969
-38.5416
-43.4852
31.975
-16.5408
-38.1749
-33.5592
-38.4102
-38.7372
-41.2679
-28.4369
-33.4102
-32.6609
-36.5665
-26.811
-24.259
-33.3209
-40.0458
-32.9087
-36.4441
-26.2755
-42.4266
-39.3577
-42.7358
-51.9909
-40.9472
-32.6247
-28.4178
-33.24
-36.4553
-33.263
-26.8261
-24.3784
-39.756
-26.1342
-32.4791
-36.6633
-42.3659
-52.3683
-40.1221
-43.1505
6.99523
-12.0804
-78.8964
135.048
-190.028
-189.117
-118.445
97.3602
-64.7724
-45.4701
-60.7049
-50.6648
-38.0532
-36.1565
-48.0229
-30.0906
-31.4484
-31.3686
-34.6824
-26.3613
-41.5723
-40.6088
-41.5731
-39.0525
6.25659
6.24335
-31.8009
59.2859
-75.3129
-46.6171
-58.2868
-42.5696
-30.8163
-30.7867
-33.2
-28.185
-43.9342
-47.7599
-44.1184
-44.6751
7.26658
-10.8311
-78.707
135.012
-64.8656
-45.3154
-60.6818
-50.6292
-37.979
-36.1803
-47.9976
-29.9838
-41.4025
-40.4455
-41.4144
-38.8929
-75.2729
-46.4472
-58.1919
-42.6671
-43.8264
-47.5739
-43.8275
-44.5659
-25.753
-21.3217
-25.047
-27.9868
-34.9219
-32.4707
-41.6699
-30.1053
-36.247
-36.2414
-40.6145
-34.6635
-20.028
-20.1519
-22.7191
-41.3087
-33.2058
-33.1974
-32.2249
-34.6101
-40.2402
-42.0024
-36.214
-54.9323
18.3213
18.7056
13.9946
13.0328
-67.5577
-67.6002
-75.7438
-59.783
-25.9722
-21.611
-25.2609
-28.0571
-34.6685
-32.0867
-41.3904
-29.9053
-20.3201
-20.8455
-23.324
-41.2564
-40.5913
-42.4551
-36.6375
-55.4378
-77.9857
-61.1313
-59.1699
-49.615
-77.9068
-61.0276
-59.0575
-49.461
-67.6159
-55.4102
-55.3958
-49.838
-34.4476
-25.6513
-25.6745
-11.7515
194.339
189.811
200.974
193.86
-25.7725
-27.541
-25.2928
-28.2127
-26.1605
-27.8078
-25.9255
-28.5945
-30.5551
-31.3697
-30.9544
-30.5663
-93.5532
-76.3912
-92.8048
-93.6507
-44.5714
-43.1168
-43.4503
-44.8029
-44.4603
-42.9579
-43.27
-44.5952
-38.6287
-38.0508
-37.9758
-37.8868
-38.0087
-41.4353
-41.4193
-45.7337
-24.6615
-21.6315
-24.1724
-24.4633
139.819
136.531
-104.652
138.346
-80.0185
-75.5644
-48.5168
-30.6113
-37.6205
-30.1033
-45.9166
-44.5211
-62.4915
124.276
-38.7415
58.2683
-91.5846
-50.5871
-42.925
-31.1074
-34.0163
-29.8334
-44.0916
-38.1439
-104.825
140.397
139.789
136.512
-80.5889
-75.5201
-36.9524
-30.4906
-48.4608
-30.2235
-45.8645
-44.1183
-39.0037
57.0789
-62.2949
122.893
-91.8997
-51.0223
-33.9709
-29.7528
-42.833
-30.9558
-44.2242
-38.0933
-44.7599
-41.0841
-27.4998
-29.3909
-43.129
-30.4799
-38.9875
-32.8395
-45.2309
-37.0977
-24.0678
-29.4791
-20.1931
-38.3224
-31.58
-34.725
-44.0171
-25.3738
-39.9688
-31.459
-34.1466
-56.2132
-7.51777
-6.79389
-40.2097
-50.8213
-30.5487
-34.948
-37.7113
-52.5018
-65.4286
-59.0058
-44.8649
-41.0949
-38.8807
-32.8498
-27.5419
-29.4202
-42.8413
-30.2928
-45.057
-37.0047
-31.5823
-34.6782
-24.5427
-29.5165
-20.4343
-38.2684
-43.7603
-24.9971
-6.78442
-6.47643
-39.6666
-31.4861
-34.3864
-56.5425
-39.9534
-50.6426
-65.6673
-58.9199
-31.1787
-34.9761
-37.8879
-52.8233
-94.0655
-100.775
184.244
174.164
-80.9982
-80.9793
197.901
197.12
-79.7114
-49.7318
-61.3126
-46.29
-45.464
-46.3469
-28.3329
-28.775
-38.834
-38.9854
-25.8575
-25.7457
-43.7501
-43.9959
-38.5805
-40.5485
-53.9804
-54.4693
128.112
127.556
-48.6664
-74.516
-40.3477
-22.7505
-35.5595
-35.5418
-27.5039
-27.6049
-45.2857
-44.6926
-46.2158
-39.0906
-94.0847
-101
172.6
184.002
-79.6752
-49.5504
-61.3268
-46.2935
-46.4292
-45.5582
-28.1765
-28.6437
-43.5746
-43.8944
-38.4696
-40.303
-74.4795
-48.504
-22.9021
-40.5379
-44.4901
-44.8229
-39.0545
-46.1755
-26.6676
-23.697
-29.8036
-29.7212
-45.4652
-45.8971
-27.9128
-29.6741
-44.0784
-44.0855
-32.5927
-32.5899
-23.1958
-25.9575
-48.6993
-48.4441
-31.1823
-31.1754
-35.9933
-35.9632
-27.9995
-29.5905
-68.1958
-75.3955
-3.44945
-3.6026
-18.2552
-18.1256
-80.459
-80.546
-51.1503
-51.1655
-26.8329
-24.7124
-29.8351
-29.7497
-45.6365
-45.3148
-28.0546
-29.8338
-26.4196
-23.8093
-48.4459
-48.155
-29.3962
-28.5934
-75.7501
-67.6363
-96.1873
-79.4298
-79.4409
-94.8233
-43.4632
-42.117
-49.8546
-49.3104
-38.4232
-48.4468
-49.1258
-40.3254
-52.3196
-69.2469
-76.4443
-77.0523
-95.5105
-94.8218
-79.3638
-79.4531
-51.8612
-76.987
-76.3741
-68.9568
-38.124
-40.047
-48.9728
-48.2717
-43.2168
-48.7083
-49.695
-41.8457
-107.608
-110.167
-65.3016
-59.6539
-107.583
-59.6189
-65.288
-110.173
-38.0508
-40.1608
-48.348
-44.7962
-38.2946
-44.8349
-48.3601
-40.1703
-30.5858
-49.7646
-33.3003
-32.502
-24.3749
8.66405
-14.8564
-32.308
-24.0778
-32.2332
-14.9229
8.36349
-30.4896
-31.4839
-33.5417
-50.1065
143.492
137.2
195.619
155.24
63.7412
57.9022
193.875
141.741
60.1178
142.029
193.724
58.0178
143.187
167.826
195.374
137.194
-30.2319
-25.4111
-27.0074
-29.8815
-20.2983
-21.019
-24.4318
-20.1222
-38.2789
-35.2129
-27.1867
-23.9729
-32.3821
-30.659
-28.7653
-33.694
-30.05
-29.6667
-27.1755
-25.8519
-32.5028
-34.0104
-29.0527
-30.629
-38.5829
-24.8523
-27.7494
-35.8441
-20.7335
-20.9115
-25.0402
-21.4443
-30.6544
-34.208
-30.9137
-28.333
-30.6712
-28.3986
-30.9242
-34.2007
-31.1624
-32.0302
-30.6293
-28.3414
-31.1394
-28.2837
-30.619
-32.0304
-40.545
-55.6077
-67.1483
9.7366
-50.4264
-74.6665
-91.5245
-54.0427
-50.7722
-54.3936
-91.6335
-74.7263
-39.8586
9.94522
-65.8686
-55.8031
-33.9755
-42.5499
-44.6625
-40.8066
-46.4089
-48.6123
-44.3917
-43.2552
-43.1811
-45.2648
-44.6423
-44.0857
-35.0329
-39.3765
-44.3921
-44.472
-33.8228
-40.7662
-44.4688
-42.3865
-35.1909
-44.3055
-44.1886
-39.3377
-43.1039
-44.0022
-44.474
-44.9898
-46.3654
-43.1321
-44.3018
-48.586
-36.0665
-34.6126
-38.2041
-38.5872
-36.0113
-38.4262
-38.1499
-34.5941
-39.5832
-35.6307
-39.1298
-41.1006
-40.1117
-41.4087
-39.2473
-35.729
-53.0572
-47.2877
-45.6428
-59.8574
-35.5965
-33.3318
-38.2165
-40.8613
-35.542
-40.8081
-38.2007
-33.3098
-52.9628
-59.8578
-45.6331
-47.2103
-31.7943
-27.5046
-23.9315
-30.24
-31.3761
-30.1267
-23.7328
-27.3395
-31.8232
-28.5715
-25.7598
-30.2034
-31.939
-30.284
-25.912
-28.6387
-4.21639
-51.3586
-94.8406
-39.7206
-37.6881
-41.1692
-10.9898
22.8308
-33.6227
-38.4226
-36.0991
-40.6192
-51.6206
-4.14165
-94.5714
-37.5928
-39.6186
-41.0676
23.5681
-9.4086
-32.612
-36.0451
-38.3298
-40.5377
-36.0253
-29.4478
-31.5445
-31.6163
-32.4856
-28.566
-29.9738
-33.5602
-36.2561
-33.5183
-35.857
-34.4221
-42.4609
-40.4996
-43.1408
-47.4794
-35.5218
-31.5449
-29.3698
-31.4018
-32.3987
-33.4123
-28.4911
-30.0525
-35.9588
-33.8087
-33.1204
-35.7455
-42.669
-47.4654
-41.2623
-44.0213
-21.5088
1.13556
-106.109
136.405
-184.655
-185.018
-134.524
63.8854
-57.3798
-49.0272
-59.8188
-50.8167
-37.7817
-36.9289
-38.7712
-31.5051
-30.6424
-30.5976
-32.3865
-27.8958
-40.1801
-39.8481
-40.5768
-39.2904
0.484913
0.010898
-16.2526
30.3309
-64.5175
-50.1685
-57.0276
-50.7888
-30.8008
-30.7862
-31.956
-29.6613
-45.1956
-47.4122
-43.6886
-45.5578
-21.4177
1.34689
-105.409
136.232
-57.4589
-49.0393
-59.8708
-50.7569
-37.7006
-37.0201
-38.6895
-31.2258
-40.009
-39.6771
-40.4168
-39.1394
-64.509
-50.0513
-56.9383
-50.8177
-45.0784
-47.2221
-43.5068
-45.4493
-25.5472
-23.8325
-24.7764
-26.7149
-34.4849
-32.8898
-36.7806
-31.1363
-36.7984
-36.7927
-38.5148
-35.6962
-20.2547
-20.7744
-21.226
-17.501
-33.2729
-33.2692
-32.7554
-33.8481
-41.0687
-41.71
-38.693
-48.952
22.3869
22.4299
20.6553
21.5506
-68.5341
-68.5516
-72.3328
-64.4754
-25.7478
-24.089
-24.8691
-26.8235
-34.2173
-32.5486
-36.5047
-30.851
-20.6748
-21.0748
-21.7673
-18.1468
-41.4686
-42.2279
-39.1965
-49.3127
-67.5363
-60.5666
-59.8967
-53.934
-67.4422
-60.4544
-59.7825
-53.7938
-61.7592
-56.7529
-56.7398
-53.1088
-30.1899
-24.1532
-24.0819
-17.6984
191.447
191.066
188.246
191.376
-25.9977
-27.0244
-25.9031
-27.3114
-26.4284
-27.3941
-26.3534
-27.7179
-30.8689
-31.1167
-30.891
-30.8731
-98.9146
-94.0416
-96.5917
-98.9742
-43.2785
-43.3431
-43.4182
-43.6831
-43.1297
-43.1822
-43.2472
-43.5069
-38.1189
-37.853
-37.8166
-38.0662
-39.5847
-41.3703
-41.369
-43.5303
-23.0698
-21.4188
-23.4334
-22.9441
45.9483
58.5597
-117.705
138.575
-171.662
-172.502
-125.488
86.1447
-96.7524
-73.1345
-84.4941
-76.5046
-38.7145
-38.267
-39.3962
-32.1957
-34.6432
-32.3691
-35.575
-31.3113
-45.2545
-44.1898
-46.7094
-45.7003
-24.2075
-35.0495
-70.3403
97.23
24.5406
8.36968
-18.3749
38.5795
-63.6759
-78.846
-86.5066
-57.4855
-37.6663
-35.8036
-41.7867
-32.3
-32.3722
-31.1766
-32.897
-30.4243
-39.9059
-42.159
-42.6394
-39.4184
-170.679
-173.986
-125.767
100.044
46.1319
58.6512
-120.331
138.459
-96.8157
-73.0963
-84.8221
-76.4687
-34.5732
-32.29
-35.4476
-31.9704
-38.6497
-38.1926
-39.3213
-32.0651
-45.111
-44.0509
-46.6398
-45.4472
25.8737
8.68421
-16.8274
38.6155
-24.2915
-32.32
-69.8445
96.2082
-64.7362
-79.2712
-86.9875
-58.3598
-32.3024
-31.1299
-32.8462
-30.3531
-37.5785
-35.915
-41.7399
-32.1792
-39.8434
-42.1052
-42.6826
-39.3535
-41.0692
-43.1052
-43.5893
-40.6916
-27.6371
-26.2028
-26.8539
-28.0789
-33.7733
-34.8012
-37.1127
-32.3577
-33.8889
-35.579
-36.4932
-33.5247
-48.6067
-41.0521
-44.8241
-37.8453
-26.3474
-24.143
-25.626
-29.2068
-23.2817
-21.17
-22.2311
-16.5618
-33.1078
-33.1423
-32.1861
-33.8686
-39.6515
-43.6397
-42.7164
-33.3455
-32.6132
-32.3749
-34.775
-31.9506
-37.541
-39.2838
-36.043
-47.4347
-14.0576
10.0765
-6.65231
-3.1232
-42.2651
-46.0692
-38.0943
-50.1884
-38.2808
-27.948
-32.7291
-35.5284
-42.7118
-42.3718
-40.2779
-48.1399
-56.9763
-65.6835
-64.3496
-61.5274
-41.393
-42.7687
-43.7124
-40.6949
-33.8598
-35.5803
-36.4317
-33.5293
-27.6525
-26.3397
-26.8976
-28.1205
-33.5719
-34.5484
-36.8115
-32.119
-48.435
-40.8951
-44.6526
-37.7399
-33.0929
-33.1284
-32.1784
-33.8356
-26.4775
-24.3553
-25.8493
-29.2436
-23.4667
-21.4444
-21.3872
-16.753
-39.2927
-43.4231
-42.4565
-33.0481
-14.828
10.9325
-3.88951
-2.74026
-32.1847
-31.9292
-34.4502
-31.7102
-37.7231
-39.5754
-36.4197
-47.7201
-42.1741
-45.9197
-38.0005
-50.1029
-57.2946
-65.7293
-64.6653
-61.4374
-39.0355
-29.057
-33.6764
-36.1466
-42.9237
-42.8431
-40.4983
-48.4544
-77.0064
-90.2902
-95.5892
-101.004
144.448
196.603
187.611
182.755
-98.0661
-74.8498
-83.9645
-83.9575
176.096
186.326
187.58
187.515
-60.8667
-61.1468
-68.6375
-54.6693
-51.2694
-53.7902
-56.0616
-49.0965
-46.7549
-45.8525
-45.5706
-46.2187
-29.4386
-26.9695
-28.3268
-28.5428
-36.5263
-38.6546
-38.1944
-38.259
-25.5211
-21.0016
-24.9074
-24.913
-42.0127
-42.8358
-42.6841
-42.5075
-38.8377
-38.4143
-38.8428
-39.5012
-40.5146
-38.1776
-47.0819
-47.8326
86.1415
183.849
124.987
127.079
-57.7828
-58.0839
-51.856
-65.3426
-37.3635
-29.3733
-38.7688
-27.9765
-34.2908
-36.5506
-35.4742
-35.4651
-27.3088
-25.2937
-26.6137
-26.7359
-43.774
-43.5348
-43.4831
-44.3085
-43.5509
-41.7232
-44.2037
-40.796
-76.773
-90.2345
-95.6104
-101.193
144.059
195.025
181.447
186.614
-60.8213
-61.0646
-68.5958
-54.5088
-51.2514
-53.7871
-56.0652
-49.0963
-46.8988
-45.8115
-46.2954
-45.6393
-29.3044
-26.7759
-28.141
-28.3936
-41.8534
-42.6786
-42.5113
-42.3698
-38.6606
-38.2982
-38.7092
-39.3044
-57.6814
-57.9674
-65.2494
-51.7313
-37.4617
-29.4426
-28.0207
-38.9424
-43.6299
-43.3864
-44.1388
-43.1204
-43.4849
-41.6881
-40.7637
-44.1572
-25.8693
-25.9107
-26.4209
-24.8734
-28.8083
-30.0961
-29.6161
-29.6631
-45.4189
-46.894
-45.6944
-45.6479
-29.2136
-27.9865
-28.1049
-29.0072
-42.73
-47.1912
-44.6197
-44.6265
-34.0055
-31.8774
-32.8829
-32.883
-23.3836
-24.6721
-23.5431
-25.0548
-54.3738
-46.8983
-48.9627
-48.6669
-31.7807
-31.1551
-31.3908
-31.3881
-35.2605
-36.7566
-35.9509
-35.9368
-33.8364
-28.9743
-28.8779
-28.9052
-67.8836
-88.3863
-76.2436
-79.8385
7.82363
-5.88024
-0.454029
-0.427186
-0.393954
-42.7037
-18.6904
-18.4713
-78.8009
-87.0219
-82.1124
-82.1517
-55.3275
-48.3728
-51.1548
-51.1692
-25.9579
-26.1141
-26.6675
-25.6792
-28.8572
-30.1181
-29.6498
-29.6952
-45.1861
-46.7269
-45.4167
-45.5163
-29.316
-28.2021
-28.2717
-29.1952
-23.8935
-25.3527
-25.5026
-24.137
-53.9356
-46.6535
-48.6939
-48.3744
-34.1945
-29.3533
-29.1769
-29.0236
-68.4033
-88.5381
-80.1147
-76.568
-59.7329
-80.445
-88.2707
-95.094
-45.2046
-44.4518
-46.9686
-45.3969
-44.9531
-43.3086
-46.4677
-46.3472
-84.2467
-95.2441
-98.9409
-85.2279
-60.0694
-80.6534
-88.3477
-95.0225
-84.2208
-95.3472
-99.0093
-85.2125
-44.6977
-43.0333
-46.2617
-46.067
-45.1865
-44.5125
-46.883
-45.2675
-88.4199
-75.1844
-78.0186
-67.183
-88.526
-75.1653
-78.055
-67.2102
-41.6638
-41.2464
-44.3803
-43.2793
-41.6407
-41.2316
-44.3737
-43.2814
-44.3878
-47.9341
-57.0537
-42.7847
-19.4622
-8.74796
-17.7494
-7.71626
-19.2708
-10.4128
-17.9981
-8.25925
-44.3861
-48.1276
-57.75
-43.0148
139.397
185.578
181.828
197.316
133.125
80.5669
151.306
120.878
80.487
132.169
119.722
149.94
184.272
139.028
196.71
182.185
-27.8888
-28.5939
-26.871
-27.7938
-23.7557
-22.4761
-24.2138
-23.4976
-30.4181
-33.5709
-25.9433
-25.6791
-31.2526
-31.8458
-30.4428
-30.7794
-27.9559
-28.5361
-27.0985
-27.9325
-31.3693
-32.016
-30.6263
-31.0186
-30.9725
-33.8613
-26.6662
-26.0448
-24.2799
-23.1408
-24.7491
-24.0733
-30.4993
-32.3444
-30.1075
-32.1527
-32.3544
-30.5218
-32.1395
-30.1323
-31.0773
-30.0305
-30.8887
-30.1038
-30.0032
-31.0658
-30.0788
-30.8758
-54.3568
-16.8764
-45.2161
-19.2451
-59.7913
-67.5378
-72.4542
-76.8262
-67.7912
-60.1037
-76.9722
-72.7332
-16.704
-53.7737
-19.353
-45.0451
-46.668
-56.4939
-45.4129
-48.5095
-47.0441
-45.6808
-45.5498
-45.5243
-45.145
-45.4426
-46.1705
-45.9628
-44.3385
-39.4511
-46.1573
-48.0754
-46.4695
-56.2217
-45.2269
-48.2804
-43.984
-39.1821
-45.9027
-47.7458
-45.1473
-45.6409
-46.3155
-45.9308
-47.0339
-45.6506
-45.6359
-45.4878
-37.0268
-35.493
-37.1962
-36.0502
-36.9017
-35.4329
-37.1227
-36.003
-39.3663
-42.3548
-39.7678
-41.1704
-39.8895
-42.8582
-40.0441
-41.4862
-51.8241
-55.171
-48.5603
-51.0938
-35.2793
-37.2215
-35.9075
-37.8096
-35.2392
-37.1935
-35.8814
-37.7759
-51.7116
-55.0983
-48.5187
-51.0866
-29.6766
-29.2104
-28.5365
-27.4616
-29.5165
-29.5894
-27.3382
-28.528
-29.4583
-29.9534
-28.361
-28.9158
-30.0453
-29.556
-29.032
-28.4704
-104.298
134.237
-146.233
92.1673
-92.7726
-110.756
-41.8109
-34.0437
-37.1427
-32.4813
-44.3117
-41.8829
-56.3827
61.8061
1.83648
46.2549
-46.4794
-15.602
-43.5883
-33.106
-34.2896
-32.9116
-41.7618
-36.9248
-146.182
92.9591
-103.939
132.031
-92.8377
-110.742
-37.4819
-32.403
-41.7507
-33.8124
-44.2183
-41.7021
3.75737
48.0957
-55.8893
61.7544
-45.5205
-14.3943
-34.2229
-32.79
-43.4728
-33.0544
-41.679
-36.8501
-42.428
-38.6379
-29.2693
-29.661
-38.1264
-31.6186
-34.9953
-31.3221
-35.8622
-37.8877
-24.2398
-30.9161
-24.0553
-21.6563
-32.0093
-34.4733
-40.0381
-31.743
-34.5322
-33.5532
-34.0633
-41.7561
-24.4697
-31.8737
-37.9091
-46.9875
-39.0794
-38.3486
-40.3115
-47.6838
-50.2951
-52.4067
-42.1082
-38.3913
-34.7243
-31.3175
-29.1669
-29.6731
-37.6585
-31.4343
-35.673
-37.8576
-31.9891
-34.4237
-24.2457
-30.9869
-24.0034
-21.6545
-39.7725
-31.3848
-24.6784
-31.3622
-34.2041
-33.3897
-34.2
-41.7676
-37.9822
-46.8293
-50.797
-52.4906
-39.3472
-38.6887
-40.4254
-48.0764
-131.55
139.436
-84.7153
121.718
-89.9329
-77.2631
135.908
134.567
-131.762
86.1399
-131.765
84.7357
-116.408
-116.453
131.614
128.162
-76.2763
-60.5221
-48.8169
-44.4459
-67.9556
-53.4643
-54.25
-47.46
-39.4353
-31.5253
-39.282
-31.6164
-49.1283
-46.7565
-30.1497
-30.1751
-33.5693
-28.7875
-33.4867
-28.6876
-34.8425
-34.9031
-26.1761
-26.004
-42.5308
-41.2724
-41.7254
-38.8392
-41.5275
-41.9355
-38.9575
-39.8736
-19.8814
24.7329
-18.6601
24.9496
-32.5118
-29.9901
60.0017
60.123
-78.5303
-57.7898
-48.2872
-40.1123
-51.5257
-66.5564
-47.5922
-37.4578
-32.0755
-29.7874
-32.0499
-29.7462
-33.2631
-33.252
-28.0885
-28.1252
-44.7066
-42.2243
-44.5109
-48.6897
-44.6268
-43.9079
-45.6462
-42.6446
-131.458
139.374
-84.3945
121.144
-89.7836
-77.0448
134.533
135.911
-76.3501
-60.5096
-47.8416
-44.3398
-67.9522
-53.6891
-54.2155
-47.4181
-39.4035
-31.646
-39.0288
-31.7125
-46.5989
-49.1335
-30.038
-30.0797
-42.3946
-41.0321
-41.5655
-38.6346
-41.3599
-41.7911
-38.7457
-39.7188
-78.4477
-58.2344
-48.1073
-39.9822
-66.4839
-51.3986
-37.4593
-47.7794
-44.5438
-42.1506
-44.3452
-48.5329
-43.6979
-44.3442
-42.5749
-45.5453
-25.4618
-27.2725
-17.4077
-27.1397
-25.9291
-23.946
-28.0997
-28.1179
-36.163
-32.0301
-35.8966
-31.3226
-41.5385
-40.8905
-29.8775
-30.3349
-37.839
-35.0995
-37.8288
-35.0907
-40.5454
-40.5509
-34.5814
-34.5783
-20.2916
-17.5051
-23.3179
-23.7328
-21.8262
-23.6892
-39.7615
-39.5841
-32.5747
-33.8039
-32.5704
-33.7913
-32.1742
-32.1745
-34.6199
-34.6112
-36.7517
-48.661
-38.8593
-48.971
-35.4372
-35.262
-55.015
-54.543
13.7922
16.5386
13.4436
16.9538
12.9463
12.8782
12.7456
12.7867
-71.5431
-63.392
-71.5929
-63.4066
-75.5599
-75.5873
-59.8179
-59.8283
-25.6785
-27.3908
-17.8317
-27.221
-25.8629
-24.0561
-28.1702
-28.1852
-35.8898
-31.7972
-35.5944
-30.9965
-40.6238
-41.2631
-29.6803
-30.2634
-20.8932
-17.8354
-23.2775
-24.4146
-24.1148
-22.3005
-39.734
-39.5519
-37.1166
-48.9559
-39.4132
-49.3211
-35.7412
-36.1289
-54.9758
-55.4616
-78.5765
-77.3547
-68.8549
-54.78
-52.9113
-66.7358
-49.8748
-49.3497
-78.4907
-77.2818
-68.7741
-54.6312
-66.6389
-52.7814
-49.1965
-49.7202
-67.0424
-67.028
-59.6772
-51.6678
-59.6618
-51.6541
-49.4563
-49.4678
-33.1463
-33.4444
-31.801
-20.2877
-20.3266
-31.7971
-12.5217
-12.5566
195.313
193.302
190.912
190.877
199.331
199.363
192.761