# vtk DataFile Version 2.0
tet_velo
ASCII
DATASET UNSTRUCTURED_GRID
POINTS 29498 float
-0.745 0.085 -2.04348
-0.785 0.145 1.98313
-0.735 0.749781 -1.975
-0.605 1.17255 1.965
0.745 0.085 -2.04348
0.785 0.145 1.98313
0.735 0.749781 -1.975
0.605 1.17255 1.965
-0.759838 0.103495 -0.701277
-0.785085 0.111582 0.640927
-0.825224 1.02426 -0.661667
-0.778155 1.16145 0.651667
0.759835 0.103498 -0.701277
0.785063 0.111604 0.640927
0.825231 1.02427 -0.661667
0.77815 1.16144 0.651667
-1.52245 -0.450552 -3.12352
-1.52162 -0.354468 -2.06132
-1.52832 -0.337141 -0.71837
-1.52152 -0.359051 0.63039
-1.50221 -0.347019 1.97383
-1.50623 -0.310904 3.03843
-1.51968 -0.261893 4.09859
-1.52272 -0.0470719 -3.09966
-1.52564 0.0766902 -2.04061
-1.54166 0.130451 -0.70328
-1.52228 0.136425 0.636651
-1.47735 0.153539 1.97454
-1.49484 0.189603 3.03873
-1.51835 0.23718 4.09983
-1.52115 0.716166 -3.04383
-1.53062 0.835072 -1.98359
-1.58181 1.04557 -0.665943
-1.51497 1.15799 0.649663
-1.38035 1.18073 1.96787
-1.44671 1.21122 3.03325
-1.50848 1.2521 4.09901
-1.52074 2.04455 -2.9818
-1.52962 2.18678 -1.92589
-1.55143 2.41786 -0.617596
-1.54598 2.60551 0.684473
-1.51849 2.69931 1.99306
-1.51947 2.73999 3.04961
-1.5414 2.77636 4.11222
-0.759506 -0.447194 -3.12538
-0.751568 -0.346308 -2.06404
-0.756381 -0.349234 -0.718006
-0.765243 -0.378349 0.634039
-0.765622 -0.359236 1.98021
-0.776604 -0.321085 3.04275
-0.788715 -0.270452 4.10109
-0.759796 -0.0537554 -3.10023
-0.785854 0.181226 3.0423
-0.796723 0.229484 4.10172
-0.755509 0.677727 -3.04026
-0.745596 1.20533 3.03268
-0.796289 1.24683 4.09889
-0.748299 2.01648 -2.97827
-0.751658 2.15953 -1.922
-0.778134 2.40792 -0.615252
-0.795699 2.6095 0.684191
-0.791613 2.70324 1.99106
-0.797679 2.7412 3.04761
-0.817158 2.77606 4.11076
0.754356 -0.447192 -3.12538
0.75713 -0.346307 -2.06404
0.770992 -0.349229 -0.718006
0.788877 -0.378334 0.63404
0.780931 -0.35923 1.98021
0.721749 -0.321081 3.04275
0.689021 -0.270447 4.10109
0.746697 -0.0537542 -3.10023
0.685446 0.181229 3.0423
0.663481 0.229489 4.10172
0.749235 0.677729 -3.04026
0.620799 1.20533 3.03268
0.629008 1.24684 4.09889
0.789015 2.01648 -2.97827
0.796194 2.15953 -1.922
0.778367 2.40792 -0.615252
0.720379 2.6095 0.684191
0.660802 2.70324 1.99106
0.63933 2.74121 3.0476
0.62926 2.77606 4.11076
1.51998 -0.450548 -3.12352
1.52548 -0.354463 -2.06132
1.54296 -0.337131 -0.71837
1.55108 -0.35903 0.63039
1.52535 -0.347005 1.97383
1.47319 -0.310893 3.03843
1.43732 -0.261883 4.09859
1.51347 -0.0470679 -3.09966
1.52218 0.0766943 -2.04061
1.54533 0.130459 -0.70328
1.54015 0.136446 0.636651
1.49306 0.153551 1.97454
1.43621 0.189612 3.03873
1.40892 0.237189 4.09983
1.51849 0.71617 -3.04383
1.53083 0.835077 -1.98359
1.58333 1.04557 -0.665943
1.52225 1.158 0.649663
1.37976 1.18074 1.96787
1.36011 1.21123 3.03325
1.36474 1.25211 4.09901
1.55595 2.04456 -2.9818
1.56413 2.18678 -1.92589
1.54983 2.41787 -0.617596
1.48495 2.60551 0.684472
1.40781 2.69932 1.99307
1.3761 2.74 3.04961
1.3647 2.77637 4.11222
-0.737978 0.417391 -2.00722
0 0.0812997 -2.04718
-0.756937 0.0897299 -1.37238
-0.770986 0.658775 2.05005
0 0.131719 1.99641
-0.786936 0.126398 1.31203
0 0.823442 -2.04866
-0.82277 0.929679 -1.31833
0 1.20938 2.00183
-0.717391 1.19281 1.30833
0.737469 0.417391 -2.00671
0.756936 0.089731 -1.37238
0.77094 0.658775 2.05
0.786642 0.126691 1.31203
0.82277 0.929679 -1.31833
0.717393 1.19281 1.30833
-0.772882 0.107118 -0.030175
-0.892667 0.563878 -0.681472
-1.50617e-06 0.104969 -0.701277
-0.8869 0.636515 0.646297
-1.09246e-05 0.109355 0.640927
-0.802305 1.09347 -0.005
3.53507e-06 1.31789 -0.661667
-2.12315e-06 1.5178 0.651667
0.772857 0.107143 -0.030175
0.892668 0.563883 -0.681472
0.886898 0.636524 0.646297
0.802303 1.09347 -0.005
-0.872796 0.490634 -1.34536
-0.894214 0.600197 -0.0175875
-0.8751 0.647645 1.31018
-7.53087e-07 0.087441 -1.37238
-6.21538e-06 0.107161 -0.030175
-5.4623e-06 0.123367 1.31203
0 0.417391 -2.11346
0 0.658775 2.3081
1.76753e-06 1.07388 -1.31833
7.0596e-07 1.50075 -0.005
-1.06157e-06 1.45121 1.30833
0.872795 0.490637 -1.34536
0.894215 0.600204 -0.0175875
0.875101 0.647649 1.31018
-1.13532 0.0808451 -2.04205
-0.748284 -0.130654 -2.05376
-0.752398 0.0156223 -2.57186
-1.13118 0.149269 1.97883
-0.775311 -0.107118 1.98167
-0.785427 0.163113 2.51271
-1.13281 0.792427 -1.9793
-0.745254 0.713754 -2.50763
-0.743329 1.45465 -1.9485
-0.992675 1.17664 1.96643
-0.675298 1.18894 2.49884
-0.698306 1.93789 1.97803
0.751065 -0.130653 -2.05376
0.745849 0.0156229 -2.57186
1.13359 0.0808471 -2.04205
0.782966 -0.107115 1.98167
0.735223 0.163114 2.51271
1.13903 0.149275 1.97883
0.742117 0.713755 -2.50763
0.765597 1.45466 -1.9485
1.13292 0.792429 -1.9793
0.612899 1.18894 2.49884
0.632901 1.9379 1.97803
0.992379 1.17664 1.96643
-1.15075 0.116973 -0.702279
-0.75811 -0.12287 -0.709641
-1.15368 0.124003 0.638789
-0.775164 -0.133384 0.637483
-1.20352 1.03491 -0.663805
-0.801679 1.71609 -0.638459
-1.14656 1.15972 0.650665
-0.786927 1.88547 0.667929
0.765413 -0.122866 -0.709641
1.15258 0.116979 -0.702279
0.78697 -0.133365 0.637483
1.16261 0.124025 0.638789
0.801799 1.71609 -0.638459
1.20428 1.03492 -0.663805
0.749265 1.88547 0.667929
1.1502 1.15972 0.650665
-1.52204 -0.40251 -2.59242
-1.52258 -0.248812 -3.11159
-1.14098 -0.448873 -3.12445
-1.52497 -0.345805 -1.38985
-1.52363 -0.138889 -2.05097
-1.1366 -0.350388 -2.06268
-1.52492 -0.348096 -0.0439903
-1.53499 -0.103345 -0.710825
-1.14235 -0.343188 -0.718188
-1.51187 -0.353035 1.30211
-1.5219 -0.111313 0.63352
-1.14338 -0.3687 0.632215
-1.50422 -0.328962 2.50613
-1.48978 -0.0967404 1.97418
-1.13392 -0.353128 1.97702
-1.51295 -0.286398 3.56851
-1.50054 -0.0606502 3.03858
-1.14142 -0.315994 3.04059
-1.51901 -0.0123566 4.09921
-1.1542 -0.266172 4.09984
-1.52418 0.0148092 -2.57014
-1.52193 0.334547 -3.07175
-1.14126 -0.0504136 -3.09995
-1.53365 0.103571 -1.37195
-1.52813 0.455881 -2.0121
-1.53197 0.133438 -0.0333148
-1.56174 0.588008 -0.684612
-1.49982 0.144982 1.30559
-1.51862 0.647208 0.643157
-1.4861 0.171571 2.50663
-1.42885 0.667133 1.9712
-1.5066 0.213392 3.56928
-1.47078 0.700414 3.03599
-1.14035 0.185415 3.04051
-1.51341 0.744641 4.09942
-1.15754 0.233332 4.10077
-1.52589 0.775619 -2.51371
-1.52095 1.38036 -3.01282
-1.13833 0.696947 -3.04205
-1.55622 0.940319 -1.32477
-1.53012 1.51093 -1.95474
-1.54839 1.10178 -0.00813987
-1.56662 1.73171 -0.641769
-1.44766 1.16936 1.30877
-1.53047 1.88175 0.667068
-1.41353 1.19598 2.50056
-1.44942 1.94002 1.98047
-1.47759 1.23166 3.56613
-1.48309 1.97561 3.04143
-1.09615 1.20827 3.03296
-1.52494 2.01423 4.10561
-1.15238 1.24947 4.09895
-1.52518 2.11566 -2.45385
-1.13452 2.03051 -2.98004
-1.54053 2.30232 -1.27174
-1.14064 2.17315 -1.92394
-1.5487 2.51168 0.0334383
-1.16478 2.41289 -0.616424
-1.53223 2.65241 1.33877
-1.17084 2.60751 0.684332
-1.51898 2.71965 2.52134
-1.15505 2.70128 1.99206
-1.53043 2.75818 3.58091
-1.15857 2.7406 3.04861
-1.17928 2.77621 4.11149
-0.755537 -0.396751 -2.59471
-0.759651 -0.250474 -3.11281
-0.00257471 -0.447193 -3.12538
-0.753975 -0.347771 -1.39102
0.00278107 -0.346308 -2.06404
-0.760812 -0.363792 -0.0419832
0.00730538 -0.349232 -0.718006
-0.765433 -0.368793 1.30712
0.011817 -0.378342 0.634039
-0.771113 -0.340161 2.51148
0.00765445 -0.359233 1.98021
-0.782659 -0.295768 3.57192
-0.781229 -0.0699296 3.04253
-0.0274278 -0.321083 3.04275
-0.792719 -0.0204835 4.1014
-0.0498469 -0.270449 4.10109
-0.757652 0.311986 -3.07025
-0.00654927 -0.0537548 -3.10023
-0.791289 0.205355 3.57201
-0.765725 0.693276 3.03749
-0.0502044 0.181227 3.0423
-0.796506 0.73816 4.1003
-0.0666211 0.229487 4.10172
-0.751904 1.3471 -3.00927
-0.00313679 0.677728 -3.04026
-0.770943 1.22608 3.56578
-0.771637 1.97326 3.04014
-0.0623986 1.20533 3.03268
-0.806723 2.01145 4.10482
-0.0836404 1.24684 4.09889
-0.749979 2.088 -2.45014
0.020358 2.01648 -2.97827
-0.764896 2.28372 -1.26862
0.0222678 2.15953 -1.922
-0.786917 2.50871 0.0344698
0.000116328 2.40792 -0.615252
-0.793656 2.65637 1.33762
-0.0376597 2.6095 0.684191
-0.794646 2.72222 2.51933
-0.0654054 2.70324 1.99106
-0.807418 2.75863 3.57918
-0.0791742 2.7412 3.04761
-0.0939487 2.77606 4.11076
0.755743 -0.396749 -2.59471
0.750527 -0.250473 -3.11281
1.13717 -0.44887 -3.12445
0.764061 -0.347768 -1.39102
1.14131 -0.350385 -2.06268
0.779935 -0.363782 -0.0419832
1.15698 -0.34318 -0.718188
0.784904 -0.368782 1.30712
1.16998 -0.368682 0.632215
0.75134 -0.340155 2.51148
1.15314 -0.353118 1.97702
0.705385 -0.295764 3.57192
0.703597 -0.0699259 3.04252
1.09747 -0.315987 3.04059
0.676251 -0.0204789 4.1014
1.06317 -0.266165 4.09984
0.747966 0.311987 -3.07025
1.13008 -0.050411 -3.09995
0.674463 0.205359 3.57201
0.653122 0.693278 3.03749
1.06083 0.18542 3.04051
0.646245 0.738163 4.1003
1.0362 0.233339 4.10077
0.769125 1.3471 -3.00927
1.13386 0.696949 -3.04205
0.624904 1.22608 3.56578
0.630064 1.97327 3.04014
0.990456 1.20828 3.03296
0.629134 2.01145 4.10482
0.996873 1.24947 4.09895
0.792605 2.08801 -2.45014
1.17248 2.03052 -2.98004
0.787281 2.28373 -1.26862
1.18016 2.17316 -1.92394
0.749373 2.50871 0.0344697
1.1641 2.41289 -0.616424
0.690591 2.65637 1.33762
1.10266 2.60751 0.684332
0.650066 2.72222 2.51933
1.0343 2.70128 1.99206
0.634295 2.75863 3.57918
1.00772 2.7406 3.04861
0.996982 2.77622 4.11149
1.52273 -0.402506 -2.59242
1.51672 -0.248808 -3.11159
1.53422 -0.345797 -1.38985
1.52383 -0.138885 -2.05097
1.54702 -0.34808 -0.0439903
1.54415 -0.103336 -0.710825
1.53822 -0.353018 1.30211
1.54562 -0.111292 0.63352
1.49927 -0.328949 2.50613
1.5092 -0.0967273 1.97418
1.45525 -0.286388 3.56851
1.4547 -0.0606404 3.03858
1.42312 -0.0123468 4.09921
1.51782 0.0148132 -2.57014
1.51598 0.334551 -3.07175
1.53375 0.103577 -1.37195
1.5265 0.455886 -2.0121
1.54274 0.133453 -0.0333149
1.56433 0.588017 -0.684612
1.5166 0.144998 1.30559
1.5312 0.647222 0.643157
1.46463 0.171581 2.50663
1.43641 0.667143 1.9712
1.42256 0.213401 3.56928
1.39816 0.700421 3.03599
1.38683 0.74465 4.09942
1.52466 0.775623 -2.51371
1.53722 1.38036 -3.01282
1.55708 0.940325 -1.32477
1.54748 1.51093 -1.95474
[...]
POINT_DATA 29498
VECTORS point_vectors float
-3.18313 -6.07695 10.254
0.119025 0.53445 1.74512
-1.44877 0.74097 2.80154
0.0251362 -0.0146989 0.0822819
3.18711 -6.07813 10.2573
-0.11684 0.544781 1.76254
1.44796 0.739413 2.79981
-0.0209021 -0.0188754 0.0818039
-0.00173973 0.00224071 0.0680483
-0.00959241 -0.00397224 0.552914
-0.00139682 -0.000131784 0.029721
7.9886e-05 0.000156259 0.000596222
0.00173764 0.00222944 0.068294
0.0103078 -0.00372826 0.552031
0.00140841 -0.000134251 0.0299767
-0.000101209 0.000197934 0.000760289
-0.647136 -0.415931 19.9356
-1.19733 -0.869744 20.7276
-0.401121 -0.445516 21.6332
0.0740718 -0.0783474 21.7187
0.418239 0.205884 21.6692
0.652084 0.273017 21.539
0.782549 0.406144 21.1401
-0.873487 -0.357296 19.7827
-1.88553 -0.805907 20.6867
-0.677733 -0.597649 21.7493
0.0316482 -0.225546 21.8514
0.631817 0.109203 21.8046
1.00417 0.217469 21.4631
1.03831 0.179277 20.847
-1.05989 0.0822525 19.5987
-2.28332 0.197801 20.5399
-1.35867 -0.219609 21.7253
-0.300615 -0.328329 22.0616
0.665031 -0.484967 21.8959
0.950721 -0.47665 21.5709
0.797357 -0.64278 21.1001
-0.530683 0.443396 20.0305
-0.802092 0.666783 20.5048
-0.711876 0.479459 21.2993
-0.289484 0.108381 21.6406
0.0314781 -0.182592 21.4536
0.189204 -0.328683 21.2765
0.229881 -0.302921 21.158
-0.600137 -0.842079 19.4709
-1.36771 -2.85812 21.2401
-0.122447 -0.354754 22.0658
0.0614233 0.113421 21.8663
0.201245 0.627287 21.6181
0.38936 1.01122 21.3819
0.73675 1.02974 21.3271
-0.971189 -0.854163 18.8403
0.213342 1.48338 10.5425
1.85047 1.22285 12.725
-1.32128 0.281114 18.1697
1.70707 0.157364 11.0734
1.79903 -0.858853 18.3847
-0.45094 0.810614 19.7186
-0.769939 1.40737 20.2657
-0.745583 1.18556 21.3846
-0.267875 0.2569 21.9309
0.0515828 -0.237523 21.6124
0.1347 -0.432993 21.5877
0.311303 -0.477742 20.9784
0.601827 -0.876809 19.4282
1.37369 -2.84232 21.243
0.123118 -0.355645 22.0601
-0.0628134 0.11206 21.8752
-0.195814 0.62923 21.64
-0.353812 1.03011 21.4004
-0.550459 1.22001 20.7989
0.962366 -0.862385 18.8248
0.177696 1.37037 8.63551
-1.4835 1.60691 11.3755
1.31812 0.286452 18.1512
-1.33646 0.088743 7.63138
-1.90423 -1.08447 13.7679
0.465346 0.792756 19.7322
0.797753 1.3575 20.2832
0.74748 1.18602 21.3842
0.256141 0.291719 21.9639
-0.0358884 -0.256779 21.6647
-0.0962876 -0.420151 21.4895
-0.266099 -0.454475 20.9107
0.632854 -0.41676 19.9355
1.19433 -0.862808 20.7316
0.413137 -0.442515 21.63
-0.0627634 -0.0963692 21.7095
-0.433028 0.209938 21.6685
-0.653509 0.327275 21.518
-0.810385 0.546579 21.1291
0.882067 -0.356645 19.7682
1.89927 -0.819977 20.6995
0.678586 -0.600339 21.7459
-0.027378 -0.220682 21.8337
-0.62935 0.109517 21.8193
-1.04237 0.313525 21.3888
-1.06265 0.369605 20.8828
1.05702 0.0820233 19.5942
2.28413 0.191763 20.5378
1.35677 -0.220981 21.7297
0.298522 -0.323601 22.0609
-0.669854 -0.495892 21.8993
-1.01691 -0.609628 21.5803
-1.22873 -0.607484 20.7742
0.530729 0.427153 20.0478
0.795194 0.642381 20.5124
0.712445 0.480572 21.2985
0.299309 0.110366 21.6389
-0.0393956 -0.219776 21.5039
-0.20009 -0.344074 21.3759
-0.228911 -0.332537 21.1896
0 0 0
0.000104422 -0.0200518 0.0827772
-0.0251278 0.0151661 0.650369
0.00162702 0.0246192 0.0224427
0.00485804 0.0494101 0.164108
-0.0188228 0.0139874 0.70839
0.000250319 0.0751415 0.149781
-0.34328 -0.216682 0.974778
0.000423599 0.0073492 -0.0123794
0 0 0
0 0 0
0.0255786 0.0152568 0.649857
-0.00267929 0.0226223 0.0240616
0.0198752 0.0147083 0.701267
0.34644 -0.218493 0.981822
0 0 0
-0.0157244 0.00676949 0.35277
-3.25841e-06 4.36932e-05 0.00138411
0 0 0
0.00026913 0.00185231 0.00991328
1.40314e-06 3.20246e-05 0.0027132
0 0 0
3.85184e-07 0.003505 0.00920733
2.49183e-06 -6.79078e-05 0.0024159
0.015997 0.00683646 0.351558
3.46044e-06 4.69274e-05 0.00145907
-0.000267513 0.00184548 0.00985983
0 0 0
0 0 0
8.67438e-06 0.00380504 0.0309249
0.000219227 0.0261757 0.103975
2.01838e-08 4.6901e-07 7.29724e-05
3.21528e-08 6.9598e-07 0.000136876
0 0 0
-6.14599e-05 -0.0243767 0.00715363
0.00615719 0.243812 -0.109226
-6.79353e-05 0.00594238 0.0174258
4.95095e-08 8.64845e-05 0.00068986
4.47068e-08 -2.14538e-06 1.99264e-05
0 0 0
-7.93765e-06 0.00380857 0.0309782
-0.000220509 0.0261618 0.104505
-3.42133 -2.2038 20.8032
-2.17868 -4.48082 21.5608
-2.51898 -2.53576 17.8949
0.85522 0.735995 19.258
0.089028 0.95181 17.9471
0.152692 0.912314 7.70504
-4.38208 0.895785 20.3437
-3.76861 1.59014 16.2464
-2.07955 2.69227 19.7367
1.33681 0.0887224 17.1436
1.03776 0.552353 5.4793
0.0380922 -0.677577 21.9659
2.19053 -4.46519 21.5543
2.5185 -2.55455 17.8703
3.43719 -2.22553 20.7989
-0.0903016 0.982055 18.1015
0.131026 0.806748 6.17773
-0.868972 0.715806 19.4616
3.774 1.60487 16.2181
2.0956 2.60792 19.7637
4.38188 0.898931 20.3458
-0.841844 0.507725 3.62539
0.00986251 -0.677907 22.0009
-1.34109 0.0583154 17.2112
-0.332558 -0.993957 21.3255
0.0575906 0.00809455 18.7007
0.205899 -0.0275083 19.7945
0.0374387 0.295286 18.3115
-2.14096 -0.734003 22.1839
-2.45518 2.18547 21.6244
-0.3652 -0.572323 21.5564
-0.680599 0.311368 22.5864
-0.0536664 0.00826942 18.8689
0.341823 -0.997435 21.3389
-0.0360018 0.296868 18.4697
-0.19847 -0.0469464 19.9296
2.45539 2.18472 21.6246
2.14084 -0.732246 22.1869
0.691997 0.339347 22.638
0.367248 -0.569702 21.5592
-0.981128 -0.654737 20.1799
-0.760311 -0.386614 19.8591
-0.690266 -0.61766 19.7329
-0.789279 -0.692732 21.4211
-1.52442 -0.889751 20.7105
-1.4592 -1.63305 20.8705
-0.118684 -0.245131 21.6925
-0.520498 -0.534431 21.6817
-0.210127 -0.524992 21.7942
0.240122 0.0758638 21.7681
0.067091 -0.138572 21.7509
0.152414 -0.0101348 21.8092
0.581592 0.320191 21.5413
0.530213 0.201598 21.72
0.447538 0.427361 21.7626
0.721463 0.344874 21.1706
0.842179 0.315999 21.5718
0.624673 0.739403 21.3986
0.902392 0.340143 20.8344
0.855913 0.899275 20.8838
-1.45609 -0.612101 19.9753
-1.01078 -0.166055 19.6343
-1.00456 -0.58914 19.3726
-1.28955 -0.764705 21.5691
-2.28539 -0.367706 20.6352
-0.27279 -0.412232 21.8074
-1.03839 -0.52322 21.7898
0.276396 -0.0472642 21.9072
-0.0858947 -0.295836 22.0142
0.827964 0.185709 21.6823
0.792665 -0.0975383 21.8237
1.10463 0.209571 21.9609
1.16838 -0.10811 21.4552
1.19362 0.811035 19.7669
1.05435 -0.254746 20.9429
1.30304 0.911255 20.6777
-1.80347 0.189671 19.7848
-0.831017 0.407021 19.7718
-1.28025 0.159049 19.043
-1.90229 -0.028781 21.3428
-1.46487 0.733881 20.4233
-0.836876 -0.31539 21.9765
-1.2507 0.3875 21.4742
0.215487 -0.362925 22.0765
-0.414211 -0.0329414 21.8817
0.82857 -0.509461 21.7202
0.200733 -0.386322 21.7737
1.08494 -0.503977 21.4863
0.479631 -0.512472 21.6103
1.30399 -0.628535 20.6299
0.608485 -0.62546 20.6422
1.57502 -0.641498 20.3802
-0.686271 0.568875 20.2315
-0.544588 0.607263 19.8851
-0.776364 0.619996 20.9293
-0.868763 1.00535 20.3914
-0.514707 0.319921 21.5035
-0.789202 0.778148 21.3198
-0.0942517 -0.0853406 21.6237
-0.258247 0.150505 21.8212
0.136886 -0.238801 21.4891
0.035774 -0.2547 21.5864
0.2158 -0.234253 21.1066
0.169538 -0.417039 21.5705
0.290973 -0.448043 21.1485
-1.18086 -1.88831 19.5673
-0.808617 -0.977736 19.1672
0.00911271 -1.17937 19.1475
-0.496766 -1.10847 22.1812
0.00584779 -3.70937 21.7911
-0.0048649 -0.0643137 21.8812
0.00582641 -0.445594 21.9029
0.118526 0.308652 21.6755
-0.000735364 -0.00260407 21.3548
0.257951 0.829407 21.389
0.00459958 0.409741 20.538
0.625679 1.12699 21.4302
0.317003 1.39751 17.9051
0.00389791 0.641227 19.1674
0.418354 1.73374 18.7334
0.0586871 1.3676 16.441
-1.26243 -0.448068 18.2694
-0.00896774 -1.23092 18.1521
1.07331 1.59193 11.9498
0.359069 1.49516 4.25855
-0.220477 -1.11317 -1.06307
2.49731 0.517606 12.0578
0.3377 0.0892034 3.83822
-0.884085 0.969918 19.015
-0.00843704 0.50212 17.095
2.02519 -0.636953 14.1703
0.298758 -0.955234 21.6117
0.128032 -0.0440189 1.04382
0.190358 -0.742735 21.8106
0.184073 -1.91684 4.05452
-0.618596 1.14094 19.9189
0.0235664 0.986571 19.5683
-0.846416 1.426 20.8447
0.0236214 1.8047 20.1117
-0.530824 0.750563 21.8162
0.00139438 1.71735 21.3863
-0.0815201 -0.0804822 21.8548
-0.0169839 0.42032 22.1134
0.0734184 -0.346079 21.6115
-0.0102696 -0.271807 21.7373
0.0912099 -0.424771 21.5851
0.0103855 -0.446984 21.6137
0.0537847 -0.55644 21.0299
1.16532 -1.90016 19.5616
0.795985 -0.957179 19.1887
0.674168 -0.631354 19.7202
0.503445 -1.10028 22.1817
1.44355 -1.62071 20.8731
-0.00518645 -0.0632359 21.8817
0.225595 -0.54115 21.777
-0.121272 0.314168 21.6975
-0.129535 -0.0280344 21.811
-0.242002 0.856786 21.3632
-0.452229 0.421324 21.761
-0.504274 1.23009 21.1204
-0.104774 1.36601 17.1437
-0.60946 0.820214 21.3433
-0.0572202 2.02473 17.5846
-0.8625 0.960165 20.6155
1.25346 -0.444695 18.2486
1.01515 -0.606935 19.354
-0.777419 1.7133 10.6761
0.272739 1.08023 1.70087
-1.34279 1.04205 18.5321
-2.64757 0.466145 7.74864
-1.5398 1.19272 20.3406
0.894446 0.960784 19.0272
1.2802 0.158338 19.0328
-1.6623 -0.746943 10.8017
-0.203675 -0.96326 21.6916
-1.45527 -0.487574 19.1563
-0.0966819 -0.853742 22.0028
-1.65122 -0.773737 20.0981
0.642825 1.111 19.9364
0.546403 0.593078 19.8986
0.855655 1.38908 20.8512
0.868371 0.968345 20.4078
0.523045 0.774523 21.8285
0.78969 0.776707 21.3209
0.080632 -0.0683345 21.8893
0.27057 0.180264 21.8551
-0.0580827 -0.347366 21.5895
-0.0355858 -0.240595 21.6554
-0.0395969 -0.400158 21.5622
-0.144093 -0.459785 21.6762
-0.315035 -0.564037 21.0715
0.975442 -0.648831 20.1851
0.75746 -0.386703 19.8518
0.798402 -0.689508 21.4103
1.5245 -0.896786 20.7286
0.129889 -0.255564 21.6946
0.529871 -0.541366 21.6757
-0.233178 0.0417943 21.7487
-0.063983 -0.140032 21.7455
-0.588295 0.308534 21.5316
-0.530565 0.200006 21.7191
-0.726987 0.396632 21.1598
-0.866041 0.411821 21.543
-0.918046 0.495388 20.879
1.46406 -0.612287 19.9868
1.01055 -0.167503 19.6231
1.29495 -0.771127 21.5641
2.2955 -0.368986 20.6401
0.270732 -0.407514 21.7967
1.03154 -0.523489 21.7883
-0.268942 -0.0530178 21.908
0.0903286 -0.289928 22.0042
-0.855708 0.203536 21.6825
-0.794405 -0.10208 21.8407
-1.23544 0.229643 21.531
-1.28605 -0.137902 21.4525
-1.40814 -0.220723 20.6179
1.80573 0.18728 19.7798
0.822774 0.398364 19.7899
1.90269 -0.0298373 21.3479
1.43235 0.715438 20.4317
0.83655 -0.31643 21.9768
1.24964 0.38662 21.477
-0.213287 -0.362785 22.0808
0.431314 -0.0320386 21.9168
-0.860638 -0.56213 21.7488
-0.195823 -0.417047 21.7795
-1.04731 -0.756129 21.6298
-0.467795 -0.564039 21.5301
-0.484162 -0.652765 21.0739
0.682755 0.547537 20.2434
0.776026 0.612622 20.9249
0.53125 0.330476 21.517
0.106826 -0.0851333 21.6404
-0.127969 -0.295146 21.4909
-0.213388 -0.303089 21.355
-1.22163 -0.673691 20.0757
-1.67377 -2.3173 18.9573
-1.17759 -1.18033 19.9666
-2.08288 -1.29181 19.2862
-0.825795 -0.641798 19.5626
-2.19195 -2.02953 20.9021
-1.03593 -0.739577 21.4806
-0.317391 -0.862367 21.1722
-0.71324 -1.02451 21.7653
-1.3454 -1.66034 22.3844
-0.173866 -0.719187 21.9502
-0.16483 -0.320691 21.7487
0.06691 0.170291 18.3232
-0.00227407 -0.209412 21.8455
0.00586291 -0.469339 20.2507
0.230194 -0.0719027 21.6994
0.253528 0.0291925 21.8232
0.0391181 0.473866 17.9365
0.26543 0.18341 21.8282
0.332832 0.329007 19.3217
0.631107 0.571844 21.3616
0.697188 0.282411 21.6042
0.191031 1.15859 17.555
0.543865 0.575807 21.6182
1.04653 0.757202 19.3236
1.00865 0.850433 20.8666
0.911231 0.309625 21.7076
0.61412 1.61378 18.144
0.768789 0.762657 21.2929
1.49851 0.820143 19.932
0.995384 0.989625 20.9544
-1.79491 -0.270985 19.8253
-3.97734 -1.04686 15.853
-2.7754 0.571609 18.7969
-1.23967 -0.283029 19.0964
-5.19886 -0.749334 20.5929
-1.7309 -0.489452 21.5618
-3.09243 -0.278881 21.859
-1.02549 -1.01951 21.6759
-0.526049 -0.437812 21.9318
-1.27371 -0.78172 22.0601
0.156134 -0.058052 19.0673
0.315828 -0.162659 22.0091
0.590578 -0.0607008 19.3871
1.14137 0.774051 15.5922
0.982739 -0.105802 21.6999
-0.406673 1.32874 1.23003
1.25862 -0.356452 19.3306
1.55455 0.32964 18.3407
1.32398 -0.116297 21.9506
1.87614 0.815924 8.22444
1.45714 -0.71581 20.8121
1.94374 0.200482 20.0279
-1.19725 0.606895 20.0057
-1.53092 1.91454 19.0159
-0.737404 0.841061 20.0758
-0.91966 0.638868 19.4597
-1.95825 1.45682 20.1818
-1.47835 0.614472 21.0097
-2.36383 2.49351 20.6431
-0.889348 0.983529 20.8787
-1.84551 0.896435 21.624
-0.894921 0.174228 21.7957
-1.71875 1.32498 22.5595
-0.524132 0.481441 21.6781
-0.567737 0.0905797 22.1909
-0.0676231 -0.226516 21.8767
-0.175341 -0.320215 22.3199
-0.0942344 -0.107499 21.7541
0.182528 -0.545438 21.8681
0.349541 -0.509052 21.5693
0.171679 -0.799556 21.7527
0.104656 -0.358001 21.4837
0.423298 -0.672291 21.3401
0.478706 -0.524995 21.3067
0.459516 -1.01921 21.3203
0.194388 -0.371817 21.3917
0.335594 -0.598737 21.6086
1.67312 -2.31605 18.9629
0.00529693 -2.86116 19.1552
-0.0170428 -4.69756 15.7467
-0.0035519 -1.33969 18.71
0.00199748 -5.83423 24.0482
0.318874 -0.872194 21.3274
0.000956322 -1.31318 22.6372
-0.00153775 -0.0770207 13.3553
-0.0604493 0.168764 18.3777
0.00696946 -0.155444 21.3034
-0.000808587 0.0894457 13.583
-0.0300479 0.481041 18.006
-0.000434249 0.181338 20.6815
0.0182558 0.40072 13.2289
-0.104593 1.17624 17.2741
0.0189183 0.501814 20.1182
-0.0469774 -0.389248 -0.0529608
-0.00138973 0.474568 11.3854
-0.335773 1.7195 17.0302
0.0122119 0.819102 16.9503
-0.279037 -1.28061 1.27656
0.0126782 1.93234 10.9798
3.98828 -1.05443 15.7912
-0.012149 3.49854 12.7184
-0.00902402 -0.639867 17.2203
0.588949 1.37673 0.138241
0.101423 0.636978 0.366644
-0.164842 -1.94505 -2.72069
-1.62566 0.866619 4.97469
0.27776 -1.00973 2.05495
0.333642 -2.40088 -3.49875
1.55933 1.87647 19.045
0.0158606 1.45436 19.724
0.013487 1.3404 18.533
0.0454894 4.02904 19.2227
2.36851 2.45588 20.6538
0.0192975 1.96072 20.7043
0.000622468 4.16103 21.3579
1.73401 1.38553 22.5847
-0.0180942 1.11366 21.9209
-0.0256379 0.86048 22.9216
0.192255 -0.320332 22.3538
-0.0196822 -0.0346586 21.9269
-0.0122936 -0.490216 21.6002
-0.0917595 -0.817724 21.8488
-0.00768921 -0.422804 21.8099
0.00638916 -0.936806 21.5692
-0.415139 -1.08706 21.312
-0.00569245 -0.602209 21.5053
0.0678043 -1.45003 21.4474
1.21027 -0.666807 20.0782
1.17015 -1.17776 19.9643
2.0999 -1.31237 19.2634
0.829957 -0.641081 19.5668
2.19894 -2.02848 20.9045
1.04817 -0.739489 21.4735
0.726077 -1.02889 21.7529
1.35204 -1.66173 22.3818
0.197047 -0.722413 21.9539
0.1857 -0.33029 21.7333
0.0131308 -0.220771 21.8426
0.0032375 -0.483123 20.3339
-0.218482 -0.0852614 21.7502
-0.252493 0.0170336 21.8082
-0.263716 0.166359 21.8314
-0.341079 0.301327 19.5558
-0.639422 0.552505 21.44
-0.701392 0.301384 21.5957
-0.550736 0.60015 21.6141
-1.05749 0.882113 18.5814
-1.06815 0.956363 20.6957
-0.961199 0.457461 21.5266
-0.790111 0.920176 21.2674
-1.62177 1.24197 18.9169
-1.00714 1.17164 20.9834
1.80848 -0.274154 19.8182
2.78173 0.57561 18.7882
1.24141 -0.284481 19.0849
5.20843 -0.750596 20.5945
1.73704 -0.488186 21.5558
3.09168 -0.279279 21.8609
1.02816 -1.01964 21.7077
0.519671 -0.435713 21.9304
1.2748 -0.779513 22.0699
-0.15064 -0.0790111 19.2407
-0.313331 -0.16523 22.0172
-0.583151 -0.0753547 19.44
-1.16476 0.751165 15.8132
-1.0405 -0.114377 21.6718
-1.34752 -0.200855 17.852
-1.58683 0.595052 16.075
-1.46089 -0.192332 21.7334
-1.756 -0.630693 19.6355
-2.20099 0.483219 19.3987
1.17606 0.588596 20.0285
0.737233 0.81364 20.0904
0.921513 0.628212 19.4794
1.94581 1.41136 20.1998
1.46947 0.606891 21.0156
0.889607 0.962746 20.8808
1.84496 0.894301 21.6258
0.908457 0.173233 21.8061
0.52751 0.507127 21.6802
0.583975 0.0932176 22.224
0.0661115 -0.237461 21.8949
0.088766 -0.0909399 21.7628
-0.16467 -0.577986 21.8877
-0.341979 -0.526446 21.5991
-0.103421 -0.357578 21.5868
-0.421631 -0.773201 21.3437
-0.472879 -0.620445 21.3468
-0.154752 -0.436013 21.3988
-0.275845 -0.641651 21.6964
-1.56036 -1.29611 19.6846
-0.903131 -1.28767 22.011
0.0878929 -0.363604 21.8049
0.36924 0.195355 21.5036
0.795275 0.724297 21.0028
1.15349 1.18756 20.7411
-2.92612 -0.518151 18.7975
-2.40507 -0.975237 22.5327
-0.320588 -0.633959 20.2154
0.475546 0.52788 17.5249
1.26917 0.521909 17.2829
1.86939 0.203507 19.0924
-1.46351 1.12085 19.6012
-2.0462 1.26402 20.95
-1.28134 0.525214 22.1173
-0.0920953 -0.282864 22.0824
0.318719 -0.635684 21.6543
0.498962 -0.779415 21.5866
-0.00630649 -3.89243 18.0733
0.00219077 -0.757128 16.9291
-0.00230065 0.00836162 13.16
0.00018386 0.201781 13.2671
0.00627251 0.291739 12.3245
0.0583692 0.697938 10.8566
-0.0164205 -1.57305 11.3453
-0.0533837 0.66254 -0.607796
0.199965 -2.91592 -4.8352
0.0292962 2.82219 18.3231
0.0192768 4.11809 20.1282
-0.0244517 2.70378 22.9287
-0.0157481 -0.0720191 22.4781
-0.0146037 -0.6706 21.5454
0.0499789 -0.986289 21.3827
1.57038 -1.31091 19.687
0.919705 -1.28465 21.9992
-0.0647892 -0.376557 21.856
-0.364491 0.171689 21.6027
-0.798454 0.799905 20.8726
-1.24984 1.41448 20.4877
2.93675 -0.523999 18.7774
2.40125 -0.977696 22.5334
0.327883 -0.639405 20.3069
-0.480632 0.496398 17.7369
-1.22639 0.659386 15.475
-2.12527 0.484937 17.3674
1.46201 1.09693 19.6202
2.02784 1.23488 20.956
1.30364 0.544688 22.1351
0.0987231 -0.294575 22.116
-0.289805 -0.702825 21.6918
-0.503548 -0.931384 21.6083
-1.06335 -0.415241 1.17369
-0.000179663 -0.0286872 0.135385
-0.0421833 0.0207702 0.446896
0.0039807 0.000322623 0.0619528
-0.0328465 0.0367563 0.174214
-0.0476141 0.0464971 0.759108
-1.27696 0.157721 2.32555
-0.0147309 0.0422469 0.0884534
-0.277605 0.00523354 0.569362
0.0314883 0.0341527 0.0648927
0.000348175 0.00521929 -0.00817108
0.00317596 0.00149406 0.0123464
0.000150643 -0.0285998 0.135824
1.06498 -0.414823 1.17509
0.042435 0.0208317 0.446324
0.035872 0.037776 0.178746
-0.00636471 0.000287569 0.0651444
0.0493152 0.0476373 0.766244
0.0144116 0.0413283 0.0865459
1.23723 0.152037 2.26116
0.275739 0.00531596 0.565583
0.000393338 0.00505968 -0.00800549
-0.0309419 0.0295175 0.0674756
-0.00318778 0.00144838 0.0125473
0.0121675 0.0187827 0.540516
-0.003321 0.00285137 0.219179
0 0 0
0.000246281 4.87324e-05 0.00442385
-0.0244957 0.0270434 0.72199
-0.00756999 0.00482772 0.253147
0 0 0
9.03857e-05 8.54175e-05 0.00761791
-0.110927 -0.0838016 0.594617
-0.000900269 0.00674095 0.130333
4.532e-05 0.000151999 0.000943528
-0.00226128 0.00373287 0.00976271
0 0 0
0.0293939 0.0523496 0.226398
0.000646168 0.00219445 0.00961787
0.00374084 -0.000697743 0.0279974
-0.0115217 0.0189479 0.539883
-0.000245778 4.91268e-05 0.00445233
0.00346825 0.0028689 0.219141
3.77929e-19 6.43302e-18 7.26691e-17
0.0256956 0.0283181 0.733828
-8.01059e-05 8.62416e-05 0.00765744
0.0078123 0.00486891 0.253084
6.40243e-19 -8.26533e-18 -4.21219e-17
0.111455 -0.0841037 0.595672
0.00184086 0.00303149 0.00793089
0.000911618 0.00677233 0.130379
-3.54885e-05 0.000118684 0.000736307
0 0 0
-0.00371423 -0.00070038 0.0279542
-0.0289135 0.0514183 0.222404
-0.000641002 0.00219839 0.00971102
-6.64941e-05 -0.000162948 0.00110456
0 0 0
1.55987e-08 1.21004e-06 3.02302e-05
0 0 0
2.24503e-06 -2.3291e-07 -0.000103842
0.000506519 0.000133991 0.00936918
0.00462982 0.0327925 0.148032
-0.0858492 0.24577 -0.046035
3.06294e-07 1.19038e-06 0.000141412
0 0 0
-1.34385e-18 7.83507e-18 3.88595e-17
0 0 0
-0.000624269 0.561499 0.352731
-6.54601e-05 0.0736314 0.213621
0 0 0
0 0 0
0 0 0
0.000234127 -0.00937406 0.0808357
0.00786177 0.0170803 0.0650998
2.65834e-05 -1.91384e-05 0.000168219
0 0 0
8.04983e-05 -0.000200117 0.0013527
-0.000486069 0.000131162 0.0091263
-2.35886e-06 -6.20493e-08 -0.000109648
0.0919436 0.216422 -0.0443763
-0.00465678 0.0326807 0.149032
0 0 0
0 0 0
0 0 0
0 0 0
-2.40019e-05 -1.76609e-05 0.000155198
-0.00783626 0.0170444 0.0652528
0 0 0
0.000517722 0.000124805 0.0199717
0 0 0
1.38109e-05 0.00118324 0.0125785
6.28663e-06 0.00391739 0.0496491
2.64974e-09 2.14939e-07 3.26247e-05
-2.73532e-05 0.00817146 0.0548919
0 0 0
3.64372e-08 5.52362e-07 0.000101302
-1.86954e-07 -4.80365e-07 -7.36688e-05
0.00369575 0.0527544 0.316772
-0.00573009 0.009799 0.0856673
4.13742e-08 -9.7968e-05 -0.000278735
3.3887e-07 0.00336323 0.0122462
5.83923e-07 9.99863e-05 0.0024678
1.50468e-07 -1.98184e-05 0.000212138
-0.000496998 0.00012431 0.0198292
0 0 0
0 0 0
-1.43779e-05 0.00118703 0.0125797
3.02077e-05 0.00824158 0.055404
0 0 0
0.00577443 0.00986886 0.086237
-0.00365385 0.0526123 0.31624
0 0 0
-0.00868078 -0.0178015 0.0974579
-0.000194964 -1.00188e-05 0.00858728
0 0 0
0 0 0