# vtk DataFile Version 2.0
tet_velo
ASCII
DATASET UNSTRUCTURED_GRID
POINTS 29498 float
-0.655 0.145 -2.14369
-0.716917 0.415 2.135
-0.715 0.731166 -1.935
-0.705 1.025 2.04474
0.655 0.145 -2.14353
0.716872 0.415 2.135
0.715 0.731171 -1.935
0.705 1.025 2.04468
-0.774937 0.135702 -0.71746
-0.808839 0.212439 0.70877
-0.791906 0.90935 -0.60842
-0.773796 0.992518 0.71816
0.795131 0.115493 -0.717353
0.83379 0.187458 0.708824
0.791783 0.909231 -0.60844
0.773783 0.992507 0.71812
-1.41703 -0.297331 -3.29248
-1.42567 -0.235371 -2.19142
-1.51456 -0.221179 -0.762613
-1.55895 -0.148212 0.686252
-1.51782 0.0168387 2.11674
-1.50215 0.12257 3.22608
-1.50626 0.203114 4.3201
-1.41807 0.0501651 -3.22399
-1.42524 0.133022 -2.13381
-1.53318 0.15705 -0.724388
-1.56494 0.218055 0.694009
-1.49165 0.367588 2.10534
-1.4848 0.471415 3.21326
-1.49862 0.553667 4.31053
-1.44723 0.702671 -3.05902
-1.46723 0.784205 -1.96469
-1.549 0.910898 -0.623201
-1.5462 0.977449 0.711235
-1.47888 1.03517 2.05463
-1.47949 1.13923 3.16667
-1.49818 1.23782 4.27999
-1.49731 1.76267 -2.88649
-1.51303 1.8569 -1.8071
-1.54453 1.99079 -0.497921
-1.55584 2.08655 0.789784
-1.54241 2.15101 2.1
-1.53337 2.217 3.18155
-1.53299 2.29874 4.28399
-0.680883 -0.292344 -3.29887
-0.667005 -0.229792 -2.20076
-0.740996 -0.236895 -0.761331
-0.789907 -0.154818 0.698858
-0.763893 0.0446668 2.13877
-0.751115 0.142032 3.24102
-0.754349 0.212802 4.32875
-0.683129 0.0504082 -3.22594
-0.735349 0.490591 3.22558
-0.748596 0.56247 4.31705
-0.707198 0.682327 -3.04668
-0.731643 1.1403 3.16468
-0.749259 1.23942 4.27956
-0.744864 1.74959 -2.8743
-0.75277 1.84519 -1.79367
-0.777985 1.9896 -0.489827
-0.793014 2.0891 0.788811
-0.787295 2.14856 2.09306
-0.780335 2.21285 3.17462
-0.779428 2.29515 4.27896
0.73416 -0.296116 -3.29877
0.734926 -0.234989 -2.20064
0.807734 -0.253684 -0.761238
0.809775 -0.174575 0.698908
0.731766 0.0375265 2.13878
0.735767 0.136049 3.24102
0.743333 0.205982 4.32875
0.71344 0.0482792 -3.22585
0.731129 0.486647 3.22557
0.740555 0.556525 4.31704
0.724438 0.680945 -3.04664
0.724893 1.13725 3.16465
0.735102 1.23425 4.27955
0.746251 1.74639 -2.87427
0.754307 1.84217 -1.79366
0.755324 1.98608 -0.489824
0.738807 2.08498 0.788802
0.722565 2.14404 2.09304
0.721514 2.20779 3.1746
0.724031 2.28943 4.27895
1.46037 -0.306419 -3.29231
1.46692 -0.247713 -2.19122
1.5609 -0.247715 -0.762464
1.58754 -0.17958 0.686332
1.51563 -0.00188043 2.11677
1.49732 0.108086 3.22609
1.4999 0.188571 4.32011
1.4363 0.043787 -3.22382
1.42285 0.125743 -2.13362
1.54762 0.132858 -0.72425
1.59225 0.187268 0.694073
1.50591 0.352361 2.10535
1.48786 0.459606 3.21326
1.49401 0.540574 4.31053
1.44874 0.698229 -3.05892
1.45212 0.781167 -1.96462
1.54026 0.902114 -0.623167
1.55074 0.964636 0.711221
1.48642 1.02509 2.05458
1.47728 1.12971 3.16663
1.48595 1.2263 4.27997
1.49059 1.75555 -2.88644
1.50354 1.84991 -1.80707
1.51712 1.98262 -0.497907
1.50692 2.07706 0.789774
1.48581 2.14083 2.09998
1.47919 2.20608 3.18152
1.47965 2.28683 4.28398
-0.712682 0.438083 -2.06703
0 0.12319 -2.16542
-0.74158 0.11374 -1.43058
-0.711439 0.72 2.09035
-2.25008e-05 0.375818 2.17418
-0.775513 0.301085 1.42189
0 0.777471 -1.9813
-0.78831 0.855115 -1.27171
0 1.09811 2.11782
-0.768192 1.03755 1.38145
0.712791 0.438086 -2.06706
0.741647 0.113665 -1.43044
0.711872 0.72 2.09078
0.778365 0.298195 1.42191
0.789085 0.855894 -1.27172
0.767834 1.0372 1.3814
-0.794177 0.171782 -0.00434506
-0.873949 0.522526 -0.66294
0.0100971 0.111903 -0.717407
-0.893552 0.602479 0.713465
0.0124757 0.119472 0.708797
-0.785337 0.95342 0.05487
-6.15186e-05 1.2414 -0.60843
-6.78828e-06 1.46571 0.71814
0.817327 0.148609 -0.00426495
0.872284 0.512362 -0.662897
0.887809 0.589982 0.713472
0.785353 0.953438 0.0548401
-0.857268 0.480305 -1.35114
-0.885669 0.562503 0.0252625
-0.878737 0.661239 1.40167
0.00504853 0.111909 -1.43051
0.0112864 0.119348 -0.00430501
0.00622659 0.119859 1.4219
0 0.438084 -2.25715
-1.12504e-05 0.72 2.18578
-3.07593e-05 0.911533 -1.27172
-3.41534e-05 1.44509 0.054855
-3.39414e-06 1.2839 1.38143
0.855661 0.475224 -1.35108
0.887234 0.551172 0.0252876
0.878655 0.654991 1.40166
-1.04012 0.139011 -2.13875
-0.661002 -0.0423962 -2.17223
-0.669065 0.0977041 -2.68482
-1.10428 0.391294 2.12017
-0.740405 0.229833 2.13688
-0.726133 0.452796 2.68029
-1.09112 0.757686 -1.94985
-0.711099 0.706747 -2.49084
-0.733885 1.28818 -1.86434
-1.09194 1.03009 2.04969
-0.718322 1.08265 2.60471
-0.746148 1.58678 2.0689
0.694963 -0.0449945 -2.17208
0.68422 0.0966396 -2.68469
1.03892 0.135371 -2.13857
0.724319 0.226263 2.13689
0.724001 0.450824 2.68029
1.11139 0.383681 2.12017
0.719719 0.706058 -2.49082
0.734653 1.28667 -1.86433
1.08356 0.756169 -1.94981
0.714946 1.08112 2.60466
0.713783 1.58452 2.06886
1.09571 1.02504 2.04963
-1.15406 0.146376 -0.720924
-0.757966 -0.0505962 -0.739396
-1.18689 0.215247 0.70139
-0.799373 0.0288107 0.703814
-1.17045 0.910124 -0.615811
-0.784946 1.44947 -0.549123
-1.16 0.984984 0.714698
-0.783405 1.54081 0.753486
0.801432 -0.0690955 -0.739296
1.17138 0.124176 -0.720802
0.821782 0.00644126 0.703866
1.21302 0.187363 0.701448
0.773553 1.44766 -0.549132
1.16602 0.905673 -0.615803
0.756295 1.53874 0.753461
1.16226 0.978571 0.71467
-1.42135 -0.266351 -2.74195
-1.41755 -0.123583 -3.25823
-1.04896 -0.294837 -3.29568
-1.47012 -0.228275 -1.47702
-1.42545 -0.0511748 -2.16261
-1.04634 -0.232582 -2.19609
-1.53676 -0.184695 -0.0381808
-1.52387 -0.0320643 -0.743501
-1.12778 -0.229037 -0.761972
-1.53838 -0.0656865 1.4015
-1.56194 0.0349218 0.69013
-1.17443 -0.151515 0.692555
-1.50998 0.0697042 2.67141
-1.50473 0.192213 2.11104
-1.14085 0.0307528 2.12776
-1.5042 0.162842 3.77309
-1.49347 0.296992 3.21967
-1.12663 0.132301 3.23355
-1.50244 0.378391 4.31531
-1.1303 0.207958 4.32442
-1.42165 0.0915935 -2.6789
-1.43265 0.376418 -3.1415
-1.0506 0.0502867 -3.22497
-1.47921 0.145036 -1.4291
-1.44623 0.458614 -2.04925
-1.54906 0.187553 -0.0151894
-1.54109 0.533974 -0.673795
-1.52829 0.292822 1.39967
-1.55557 0.597752 0.702622
-1.48823 0.419501 2.6593
-1.48526 0.701379 2.07999
-1.49171 0.512541 3.7619
-1.48215 0.805321 3.18996
-1.11008 0.481003 3.21942
-1.4984 0.895742 4.29526
-1.12361 0.558069 4.31379
-1.45723 0.743438 -2.51186
-1.47227 1.23267 -2.97276
-1.07721 0.692499 -3.05285
-1.50811 0.847552 -1.29395
-1.49013 1.32055 -1.8859
-1.5476 0.944173 0.0440172
-1.54677 1.45084 -0.560561
-1.51254 1.00631 1.38293
-1.55102 1.532 0.750509
-1.47919 1.0872 2.61065
-1.51064 1.59309 2.07732
-1.48884 1.18852 3.72333
-1.50643 1.67811 3.17411
-1.10557 1.13977 3.16567
-1.51558 1.76828 4.28199
-1.12372 1.23862 4.27977
-1.50517 1.80978 -2.3468
-1.12109 1.75613 -2.8804
-1.52878 1.92384 -1.15251
-1.1329 1.85105 -1.80039
-1.55018 2.03867 0.145931
-1.16126 1.9902 -0.493874
-1.54912 2.11878 1.44489
-1.17442 2.08783 0.789297
-1.53789 2.18401 2.64077
-1.16485 2.14978 2.09653
-1.53318 2.25787 3.73277
-1.15685 2.21493 3.17808
-1.15621 2.29695 4.28148
-0.673944 -0.261068 -2.74982
-0.682006 -0.120968 -3.26241
0.0266383 -0.29423 -3.29882
-0.704001 -0.233344 -1.48105
0.0339607 -0.232391 -2.2007
-0.765452 -0.195856 -0.0312364
0.0333687 -0.24529 -0.761285
-0.7769 -0.0550755 1.41881
0.00993393 -0.164697 0.698883
-0.757504 0.0933492 2.6899
-0.0160633 0.0410967 2.13878
-0.752732 0.177417 3.78488
-0.743232 0.316311 3.2333
-0.0076739 0.13904 3.24102
-0.751472 0.387636 4.3229
-0.00550776 0.209392 4.32875
-0.695164 0.366368 -3.13631
0.0151552 0.0493437 -3.2259
-0.741972 0.526531 3.77131
-0.733496 0.815447 3.19513
-0.00210957 0.488619 3.22558
-0.748927 0.900945 4.2983
-0.0040204 0.559498 4.31705
-0.726031 1.21596 -2.96049
0.00862017 0.681636 -3.04666
-0.740451 1.18986 3.72212
-0.755989 1.67658 3.16965
-0.00337521 1.13877 3.16466
-0.764343 1.76729 4.27926
-0.0070784 1.23684 4.27955
-0.748817 1.79739 -2.33399
0.000693778 1.74799 -2.87428
-0.765377 1.9174 -1.14175
0.000768679 1.84368 -1.79366
-0.785499 2.03935 0.149492
-0.0113307 1.98784 -0.489825
-0.790154 2.11883 1.44094
-0.027103 2.08704 0.788807
-0.783815 2.1807 2.63384
-0.0323649 2.1463 2.09305
-0.779881 2.254 3.72679
-0.0294105 2.21032 3.17461
-0.0276986 2.29229 4.27895
0.734543 -0.265552 -2.74971
0.7238 -0.123918 -3.26231
1.09726 -0.301267 -3.29554
0.77133 -0.244337 -1.48094
1.10092 -0.241351 -2.19593
0.808754 -0.21413 -0.0311648
1.18432 -0.2507 -0.761851
0.77077 -0.0685244 1.41885
1.19866 -0.177078 0.69262
0.733767 0.0867876 2.6899
1.1237 0.017823 2.12778
0.73955 0.171016 3.78489
0.733448 0.311348 3.2333
1.11654 0.122067 3.23356
0.741944 0.381254 4.3229
1.12162 0.197277 4.32443
0.718939 0.364612 -3.13624
1.07487 0.0460331 -3.22484
0.735842 0.521586 3.77131
0.728011 0.811947 3.19511
1.1095 0.473127 3.21942
0.737829 0.895389 4.2983
1.11728 0.54855 4.31378
0.735345 1.21367 -2.96045
1.08659 0.689587 -3.05278
0.729997 1.18575 3.7221
0.723203 1.67252 3.16962
1.10109 1.13348 3.16564
0.729566 1.76184 4.27925
1.11053 1.23027 4.27976
0.750279 1.79428 -2.33396
1.11842 1.75097 -2.88035
0.754815 1.91412 -1.14174
1.12892 1.84604 -1.80036
0.747066 2.03553 0.149489
1.13622 1.98435 -0.493865
0.730686 2.11451 1.44092
1.12286 2.08102 0.789288
0.72204 2.17592 2.63382
1.10419 2.14244 2.09651
0.722772 2.24861 3.72677
1.10035 2.20694 3.17806
1.10184 2.28813 4.28146
1.46364 -0.277066 -2.74176
1.44833 -0.131316 -3.25806
1.51391 -0.247714 -1.47684
1.44488 -0.0609854 -2.16242
1.57422 -0.213648 -0.0380659
1.55426 -0.0574283 -0.743357
1.55158 -0.0907304 1.40155
1.58989 0.00384357 0.690203
1.50647 0.0531027 2.67143
1.51077 0.17524 2.11106
1.49861 0.148328 3.7731
1.49259 0.283846 3.21967
1.49695 0.364572 4.31532
1.42957 0.0847648 -2.67872
1.44252 0.371008 -3.14137
1.48523 0.1293 -1.42893
1.43748 0.453455 -2.04912
1.56994 0.160063 -0.0150883
1.54394 0.517486 -0.673708
1.54908 0.269814 1.39971
1.57149 0.575952 0.702647
1.49688 0.405984 2.6593
1.49616 0.688725 2.07996
1.49094 0.50009 3.76189
1.48257 0.794659 3.18994
1.48998 0.883435 4.29525
1.45043 0.739698 -2.51177
1.46966 1.22689 -2.97268
1.49619 0.841641 -1.29389
1.47783 1.31554 -1.88584
1.5455 0.933375 0.044027
1.52869 1.44237 -0.560537
[...]
POINT_DATA 29498
VECTORS point_vectors float
-5.30284 -8.20702 11.4259
-0.0254012 0.194347 0.222663
-1.65923 1.21179 3.23732
0.0121462 -0.01406 0.114714
5.3525 -8.25158 11.4969
0.0234318 0.194667 0.22347
1.66775 1.2234 3.25946
-0.0114829 -0.015064 0.116184
-0.023605 0.0388656 0.844276
-0.0320951 0.0520926 0.554071
0 0 0
0 0 0
0.0455085 0.0326222 1.5487
0.0114191 0.0216721 0.184318
0 0 0
0 0 0
-0.530022 -0.311291 19.819
-1.25023 -0.862383 20.4234
-0.465293 -0.495328 21.4359
0.0620079 -0.132982 21.5936
0.624736 0.165361 21.504
0.934922 0.221941 21.2335
0.985718 0.109371 20.9071
-0.705882 -0.243782 19.7012
-1.89052 -0.77501 20.3455
-0.730261 -0.584218 21.5239
0.0174777 -0.23852 21.7016
0.774386 0.0195303 21.5749
1.15711 0.0418193 21.3979
1.15504 -0.165043 20.8394
-0.910338 0.100673 19.5899
-2.16929 0.188929 20.4091
-1.30745 -0.300974 21.5252
-0.28944 -0.298798 21.8269
0.625213 -0.382154 21.6492
0.895988 -0.516176 21.3578
0.682414 -0.421102 20.8845
-0.606987 0.425656 19.9653
-0.95423 0.67871 20.4523
-0.876377 0.454453 21.2112
-0.300262 0.0300476 21.5729
0.165432 -0.276998 21.48
0.350125 -0.369373 21.2832
0.366066 -0.430532 20.6866
-0.456423 -0.602678 19.3829
-1.51112 -3.21236 20.4019
-0.122407 -0.425691 21.8442
0.0630233 0.263815 20.0699
0.268902 1.41448 14.6882
0.695934 1.95455 15.0557
1.32797 0.923832 14.1768
-0.665276 -0.548843 18.9429
0.963368 1.613 8.25355
2.03695 0.834007 12.2078
-1.05154 0.272468 18.3993
1.52513 -0.358998 11.7878
1.35008 -0.839252 17.8608
-0.523653 0.846604 19.5713
-0.991982 1.58735 20.1541
-1.21707 1.5796 21.3884
-0.374075 0.256729 22.0539
0.115196 -0.487563 21.6189
0.261617 -0.616642 21.1076
0.0901789 -0.416206 20.9127
0.482712 -0.580973 19.4194
1.55276 -2.90002 20.3858
0.131346 -0.539392 21.9124
-0.0689097 0.241896 20.4904
-0.1305 1.40327 13.7682
-0.653128 1.9292 14.7616
-1.29577 0.971783 14.2234
0.687133 -0.529937 18.9876
-0.992588 1.61534 8.21081
-2.07654 0.859217 12.0635
1.07049 0.270727 18.4272
-1.49423 -0.385889 11.5517
-1.36845 -0.855799 17.3988
0.523821 0.84734 19.5677
0.995487 1.59208 20.1516
1.2248 1.64124 21.3973
0.369965 0.277934 22.0891
-0.0963032 -0.49992 21.6425
-0.227242 -0.64549 21.1223
-0.0756878 -0.435345 20.9932
0.521893 -0.300505 19.8406
1.1882 -0.813321 20.4295
0.482469 -0.476658 21.4075
-0.0539697 -0.123992 21.5976
-0.618295 0.185004 21.5021
-0.943087 0.235497 21.2694
-0.991035 0.124285 20.9238
0.705299 -0.241639 19.7112
1.89341 -0.78373 20.3406
0.735401 -0.574592 21.5099
-0.0262572 -0.22409 21.6874
-0.770084 0.019316 21.5807
-1.16008 0.0494134 21.3636
-1.18062 -0.133943 20.8381
0.906897 0.0980515 19.5872
2.21968 0.202974 20.3987
1.32005 -0.305101 21.5399
0.274042 -0.30055 21.8387
-0.630827 -0.374319 21.6464
-0.906666 -0.510889 21.3662
-0.707607 -0.415699 20.8311
0.609996 0.431269 19.9624
0.965724 0.692626 20.4503
0.90853 0.476491 21.2323
0.314946 0.0257089 21.5894
-0.161518 -0.295203 21.486
-0.351697 -0.386582 21.2652
-0.326824 -0.454879 20.7774
-1.297 -0.171408 1.30531
-0.000229492 -0.0780574 0.350659
-0.0442603 0.00652798 0.561031
0 0 0
0 0 0
-0.00685645 0.0330231 0.240033
-8.01093e-05 0.0478583 0.104854
-0.107063 -0.0295563 0.219667
0.0025023 0.0788016 -0.0668057
0 0 0
1.27857 -0.167215 1.29138
0.0304652 0.00259942 0.372111
0 0 0
0.00590951 0.0237449 0.172607
0.114473 -0.0317348 0.234326
0 0 0
-0.00755351 0.018656 0.239281
0 0 0
-4.21068e-06 4.45399e-06 0.00333122
0.00113727 0.0401716 0.340919
6.58022e-08 7.97777e-09 8.44442e-06
0 0 0
1.0149e-05 0.0706292 0.151097
9.49207e-05 -0.00247907 0.0656577
0.0331282 0.053754 0.751183
0 0 0
-0.00030787 0.0107729 0.106601
0 0 0
0 0 0
0 0 0
0.00198492 0.0064294 0.0378261
-1.1463e-07 -1.15709e-07 3.50547e-05
0 0 0
-1.01685e-06 -2.98773e-07 -0.00012074
-0.000450488 0.175053 0.196306
0 0 0
0 0 0
-1.6768e-05 0.00630043 0.052109
8.40539e-05 0.000988718 -0.00224001
0 0 0
0 0 0
-0.00129334 0.00785411 0.0441345
-3.64419 -2.15349 19.9824
-2.55669 -5.4164 20.4824
-1.92692 -1.71476 17.7183
1.11454 0.552873 17.9273
0.075219 1.24514 6.29877
-0.211344 1.49156 4.1469
-4.17258 0.839507 20.2789
-3.27335 1.55795 16.6057
-2.22425 2.65486 19.9044
1.11642 -0.290764 19.2038
1.02049 0.144781 6.87272
0.45413 -0.835415 20.6327
2.59538 -4.92751 20.3745
1.92487 -1.68177 17.7775
3.63532 -2.17952 19.9558
-0.0122471 1.18361 5.5867
0.172683 1.50574 4.18936
-1.14169 0.509694 18.1198
3.26535 1.52925 16.6615
2.2257 2.66188 19.9029
4.25071 0.882968 20.2721
-0.992631 0.101558 6.71893
-0.431761 -0.866652 20.5961
-1.11799 -0.317247 19.287
-0.562256 -1.03672 21.599
-0.112648 0.00183615 17.1213
0.133907 -0.264837 20.5703
-0.229539 0.398131 12.9765
-2.20416 -0.892427 21.7918
-3.53233 2.20816 21.6346
-0.360451 -0.487005 20.7354
-0.675604 0.127478 21.8093
0.0293932 -0.249062 18.5104
0.634382 -1.0262 21.7572
0.250517 0.387485 14.0161
-0.158072 -0.280074 21.1766
3.57622 2.29597 21.6305
2.20979 -0.902044 21.7805
0.650692 0.151406 21.5836
0.337452 -0.489258 20.6786
-0.914944 -0.571954 19.9355
-0.622761 -0.289136 19.7738
-0.53372 -0.452236 19.6066
-0.906704 -0.768827 21.1761
-1.54588 -0.863536 20.3904
-1.57478 -1.71427 20.3611
-0.175768 -0.289874 21.5491
-0.617031 -0.565113 21.4688
-0.271827 -0.65615 21.6441
0.322557 0.0246062 21.6103
0.0339597 -0.194923 21.6126
0.18179 -0.127516 21.7107
0.793321 0.248475 21.4198
0.70644 0.0981646 21.5754
0.887864 0.528129 20.9042
1.00745 0.196478 21.1283
1.03114 0.13088 21.1401
1.20045 0.656943 20.5901
1.06498 0.00159051 20.9464
1.11095 0.560227 19.9453
-1.29489 -0.493943 19.7487
-0.842174 -0.120481 19.5988
-0.775968 -0.418384 19.3739
-1.35502 -0.76249 21.301
-2.25509 -0.348993 20.367
-0.330982 -0.413433 21.6174
-1.03026 -0.525462 21.5331
0.375233 -0.0970188 21.7549
-0.109883 -0.311179 21.8031
0.960557 0.0621758 21.4102
0.786457 -0.179551 21.6302
1.19421 -0.0347008 21.3718
1.08952 -0.246672 21.2799
1.66815 0.465893 18.507
0.911878 -0.350105 21.0298
1.68594 0.500867 18.8458
-1.64177 0.193771 19.7078
-0.803315 0.363289 19.7425
-1.05514 0.14698 19.124
-1.79353 -0.109614 21.1586
-1.5112 0.649389 20.3836
-0.79232 -0.321708 21.7698
-1.2942 0.235386 21.3694
0.17681 -0.311261 21.822
-0.388973 -0.093034 21.7545
0.826126 -0.413999 21.4678
0.33973 -0.393112 21.5493
0.878182 -0.44944 21.1412
0.539885 -0.497891 21.1071
1.26386 -0.691779 19.9347
0.516294 -0.487943 20.8428
1.22508 -0.550778 20.0732
-0.803846 0.607336 20.1447
-0.61883 0.631376 19.7737
-1.01028 0.599139 20.8753
-1.07156 1.06649 20.3382
-0.623469 0.266724 21.4906
-1.1217 0.879754 21.3316
-0.0148839 -0.166342 21.5301
-0.357767 0.115169 21.8246
0.25873 -0.375244 21.2943
0.155827 -0.391054 21.5426
0.351433 -0.382445 20.9274
0.31232 -0.52809 21.07
0.192171 -0.439483 21.0399
-0.998442 -1.52643 19.1303
-0.566245 -0.600563 19.1209
0.0201842 -0.745975 19.1672
-0.499343 -1.34968 22.1397
0.0831771 -4.33783 20.9734
0.035763 -0.0377434 20.9554
-0.00801843 -0.536158 21.6353
0.0268821 0.863052 17.1119
0.00580681 0.0353699 16.9488
0.234995 1.41164 14.4119
0.00230173 0.132611 5.70889
0.937227 1.46108 13.9711
0.613302 2.0273 10.5324
-0.0234839 0.368885 2.63189
1.80084 0.937432 12.657
0.0350112 1.35778 8.95177
-0.922101 -0.208881 18.5268
0.0176993 -0.730445 18.479
1.60353 1.4514 10.4243
1.91066 0.915327 7.22667
-0.0649215 -3.03699 -5.54726
1.82026 -0.179418 13.4127
-0.0649694 -1.64859 -0.0462758
-0.844741 0.892326 18.9651
0.0195441 0.449181 17.5954
1.59575 -1.02637 14.5908
0.504313 -1.1059 21.0528
-0.0103569 -1.00019 2.28075
0.477742 -0.878292 19.9288
0.00366322 -1.91122 7.05825
-0.792954 1.30976 19.7605
0.000258035 1.07548 19.3636
-1.18285 1.67929 20.6663
0.000390928 2.23894 19.9612
-0.846471 0.950163 21.9705
-0.034759 2.72073 21.379
-0.0406616 -0.225809 21.8391
-0.0116652 0.516203 22.3546
0.196586 -0.606002 21.4929
0.00897326 -0.51115 21.7445
0.217823 -0.840686 20.6555
0.0123415 -0.836838 21.2366
-0.00631185 -0.880145 20.9055
1.01841 -1.42922 19.2518
0.588785 -0.574432 19.1786
0.536274 -0.433313 19.646
0.549628 -1.39915 21.9418
1.55821 -1.56687 20.3439
-0.0637869 -0.117062 21.4565
0.341772 -0.660595 21.6153
0.0324498 0.864481 17.0904
-0.160469 -0.118992 21.716
-0.125488 1.42715 13.7578
-0.887885 0.596446 20.7086
-0.920777 1.49905 13.9749
-0.629186 2.01618 10.2473
-1.21685 0.721032 20.499
-1.82658 0.956893 12.4485
-1.11634 0.589167 19.9227
0.949361 -0.213897 18.5656
0.780577 -0.422243 19.391
-1.63452 1.47537 10.3473
-1.91114 0.887635 7.14269
-1.69965 0.46433 18.5267
-1.84388 -0.181843 13.1456
-1.71661 0.505512 18.7589
0.847849 0.8842 18.9728
1.05438 0.143854 19.1329
-1.58946 -1.01949 14.256
-0.520814 -1.12396 20.631
-1.29127 -0.707426 19.8474
-0.480901 -0.903091 19.8437
-1.23075 -0.57408 20.0251
0.795172 1.31344 19.7562
0.620859 0.63369 19.7695
1.18168 1.70588 20.6591
1.07779 1.07848 20.3352
0.850292 1.01462 22.0052
1.13965 0.912157 21.3451
0.04752 -0.233556 21.8584
0.369004 0.13081 21.8604
-0.171727 -0.625598 21.5023
-0.151207 -0.409789 21.5557
-0.215329 -0.864248 20.6639
-0.305916 -0.552818 21.0718
-0.168071 -0.433535 21.0471
0.884583 -0.543733 19.9618
0.619334 -0.282363 19.7878
0.889274 -0.710913 21.1307
1.50062 -0.839928 20.3941
0.190665 -0.283576 21.5508
0.62316 -0.554544 21.4512
-0.329861 0.0374053 21.6088
-0.032572 -0.188984 21.6111
-0.797475 0.272348 21.4136
-0.705752 0.104406 21.5687
-1.01761 0.202346 21.0769
-1.03163 0.145906 21.148
-1.07366 0.0211929 20.9616
1.28771 -0.493046 19.7435
0.829468 -0.116847 19.6064
1.35054 -0.761187 21.285
2.29414 -0.357155 20.3566
0.324975 -0.398391 21.6179
1.02512 -0.520308 21.5383
-0.386516 -0.0882688 21.7418
0.0951969 -0.309519 21.7939
-0.961983 0.0671579 21.41
-0.789669 -0.178805 21.6313
-1.20528 -0.0243035 21.3305
-1.1055 -0.241944 21.2842
-0.944633 -0.34826 21.011
1.65178 0.194453 19.6903
0.807159 0.363105 19.7397
1.83073 -0.106924 21.1671
1.53715 0.669534 20.3799
0.786934 -0.325674 21.7795
1.332 0.234801 21.3889
-0.186479 -0.313967 21.8207
0.393104 -0.10697 21.7855
-0.835052 -0.42231 21.4635
-0.348588 -0.414408 21.5813
-0.892025 -0.469697 21.1332
-0.552924 -0.514472 21.1254
-0.500938 -0.512381 20.8946
0.810723 0.615187 20.139
1.02879 0.625124 20.8735
0.652737 0.281345 21.5215
0.0126447 -0.175394 21.5769
-0.256806 -0.395124 21.2777
-0.305611 -0.404385 21.0006
-1.10006 -0.576117 19.8513
-1.37679 -1.73485 18.5701
-1.05279 -0.980926 19.6145
-1.74003 -0.963811 19.028
-0.664663 -0.447568 19.4791
-2.42798 -2.08994 20.2163
-1.13143 -0.783402 21.2386
-0.182057 -0.897558 19.9309
-0.869362 -1.26023 21.5594
-1.68776 -1.64263 21.9793
-0.345134 -0.855934 21.764
-0.263712 -0.386185 21.5736
-0.0825372 0.212151 14.7649
-0.014925 -0.385551 21.6862
-0.184878 -0.640158 21.0115
0.194517 -0.2215 21.4669
0.342524 -0.0347413 21.664
-0.115362 0.882821 8.37532
0.521146 0.2026 21.4841
0.581561 0.124018 19.318
1.0252 0.556896 19.4289
0.893576 0.173828 21.423
0.0678597 1.56771 8.54114
1.06472 0.668867 20.7164
1.33081 0.555112 18.3667
1.35207 0.666148 18.9303
1.11992 0.116585 21.3184
1.26728 1.45067 11.1148
1.40671 0.711771 20.1858
1.8448 0.52977 18.8763
1.44598 0.588766 19.1819
-1.56381 -0.227258 19.6673
-2.99359 -0.533647 16.4529
-2.45834 0.523152 18.8263
-0.986908 -0.156681 19.1354
-4.8354 -0.63433 20.0574
-1.66346 -0.48866 21.2953
-2.82749 -0.305631 21.536
-1.04505 -1.12383 21.3785
-0.538693 -0.446282 21.7121
-1.15992 -0.835709 21.1361
0.0838195 -0.353864 20.1151
0.313071 -0.216609 21.8259
0.381905 -0.2262 20.1808
1.25739 0.368806 17.0647
0.992378 -0.208958 21.4553
0.430905 1.1942 2.91831
1.19266 -0.476644 19.8677
1.58154 -0.0767639 18.6138
1.11203 -0.307486 21.2343
2.00788 0.0762162 9.84107
1.29405 -0.693955 20.3364
1.53878 -0.417316 19.8296
-1.22627 0.589366 19.9272
-1.59996 1.94478 18.9206
-0.868559 0.923421 19.9665
-0.874297 0.566713 19.4165
-2.07252 1.36494 20.2109
-1.51534 0.448841 20.9206
-2.62019 2.22304 20.4303
-1.20164 1.05991 20.7991
-2.10199 0.664697 21.5602
-0.861515 0.0587777 21.692
-2.29166 0.835965 22.6179
-0.794818 0.504265 21.7376
-0.558803 -0.0530619 22.1447
0.0292631 -0.249228 21.7069
0.240647 -0.476566 21.0028
-0.0327043 -0.197822 21.6976
0.378736 -0.611189 21.731
0.466659 -0.457337 21.4181
0.4782 -0.960992 20.888
0.242026 -0.47091 21.3521
0.556549 -0.807808 21.3693
0.617867 -0.462549 20.9466
0.521465 -1.09335 19.9092
0.254083 -0.488977 21.2174
0.395905 -0.580525 20.9342
1.3808 -1.65714 18.6856
0.0539203 -2.21329 18.661
0.0274068 -2.66801 16.1218
0.0129369 -0.774722 18.8055
0.0491228 -6.88567 22.2797
0.207522 -1.17063 20.5647
0.0144519 -1.4669 22.4424
-0.0202264 -0.14981 12.7212
0.0849277 0.162317 15.8033
-0.00996674 -0.14668 19.1701
0.022158 0.0313587 8.18081
0.0916931 0.834607 8.28544
0.0207206 0.143727 11.6443
0.0333553 -0.592211 -0.785635
-0.0288121 1.5627 8.17856
0.0135651 -0.275557 3.14229
-0.0185026 -1.33223 -3.78592
-0.0505143 -0.784847 -3.84023
-1.28618 1.48251 10.8851
0.00162815 0.122771 2.71239
-0.0735195 -4.10549 -5.71327
-0.0261724 -0.323698 3.77024
2.99027 -0.53049 16.5619
0.026613 3.54433 13.6437
0.0140218 -0.336527 17.8384
-0.437109 1.14716 2.92764
0.0201577 0.326848 0.415344
-0.0529968 -1.25812 -1.86485
-2.03126 0.0483095 9.66355
0.0321564 -1.2305 4.63063
0.00566593 -1.49107 1.09846
1.60356 1.93858 18.925
0.000410295 1.77527 19.5455
0.00539819 1.24167 18.4765
-0.0015933 4.12305 19.4965
2.62001 2.25129 20.4231
-0.0130221 2.53944 20.4285
-0.0362164 5.91608 20.79
2.35613 0.869711 22.517
-0.0354389 1.72369 22.3322
-0.00735046 0.468767 19.3718
-0.266075 -0.51516 20.8108
-0.00236494 -0.194056 22.0303
0.00783903 -0.63861 13.6726
-0.467656 -0.991484 20.7696
0.0158244 -0.680128 21.5843
0.0161878 -1.0927 17.604
-0.506955 -1.13705 19.7119
0.0138238 -0.584735 20.9189
0.0298639 -1.20827 18.9368
1.08471 -0.556673 19.8645
1.03739 -0.907115 19.6649
1.7259 -0.957966 19.0614
0.670154 -0.438047 19.5044
2.37279 -1.99375 20.213
1.11821 -0.755645 21.2021
0.900051 -1.19663 21.4694
1.70264 -1.63485 21.9341
0.435167 -0.84325 21.7143
0.264121 -0.379608 21.5788
0.0625132 -0.388584 21.6795
0.197769 -0.617654 21.2886
-0.18419 -0.199737 21.5866
-0.346421 -0.0246076 21.6535
-0.52605 0.231062 21.5262
-0.621526 0.0895271 19.6516
-1.04786 0.586207 19.2675
-0.892415 0.181199 21.4177
-1.06268 0.718772 20.6094
-1.35717 0.533727 18.4857
-1.36755 0.704251 18.8617
-1.13581 0.121574 21.2948
-1.41288 0.758206 20.1789
-1.86976 0.53998 18.8533
-1.45244 0.578736 19.0659
1.56214 -0.228065 19.6653
2.45897 0.520709 18.822
0.986627 -0.156542 19.1521
4.92486 -0.64791 20.0346
1.6774 -0.498409 21.296
2.85645 -0.304893 21.5455
1.06189 -1.06811 21.396
0.52053 -0.442203 21.72
1.14034 -0.848501 21.0981
-0.105911 -0.390847 20.4054
-0.317844 -0.213829 21.8216
-0.386118 -0.244168 20.172
-1.27121 0.323589 17.3126
-1.00506 -0.204356 21.458
-1.20931 -0.48809 19.831
-1.60333 -0.0750245 18.5374
-1.12867 -0.310533 21.2215
-1.30948 -0.709719 20.2204
-1.54791 -0.413958 19.5933
1.23925 0.597261 19.9213
0.871387 0.931728 19.9613
0.876509 0.564382 19.4177
2.08665 1.38592 20.207
1.54903 0.468055 20.925
1.21351 1.08432 20.797
2.14523 0.690216 21.5771
0.88313 0.0470375 21.718
0.813253 0.536937 21.7724
0.573541 -0.0575975 22.1838
-0.0397392 -0.26358 21.735
0.0342011 -0.210249 21.7054
-0.380752 -0.64484 21.7608
-0.482349 -0.487947 21.4048
-0.240474 -0.505931 21.3597
-0.552103 -0.838701 21.4355
-0.646649 -0.485127 20.9268
-0.251316 -0.521256 21.2312
-0.404463 -0.622592 20.8396
-1.378 -1.04226 19.3418
-1.14473 -1.49258 21.7597
-0.050656 -0.549175 21.6189
0.605116 0.156969 20.6414
1.21685 0.632539 19.611
1.6915 0.625191 18.9592
-2.41347 -0.330435 18.6692
-2.29257 -0.986904 21.9968
-0.38368 -0.788703 20.5635
0.565799 0.054781 18.938
1.45965 0.143245 18.3222
1.76118 -0.386085 18.6771
-1.53881 1.07593 19.5313
-2.17234 0.999985 20.8593
-1.35633 0.228901 22.0833
0.0643282 -0.352135 21.9708
0.51135 -0.720695 21.4903
0.725207 -0.727771 21.1018
0.0415848 -2.61905 17.6949
-0.0113762 -0.632153 15.5051
-0.00494599 0.00789183 9.98163
0.00983546 0.0111861 2.38457
0.00973408 -1.20073 -3.95596
-0.0486246 -1.85794 -2.83853
0.027924 -0.514127 13.3734
-0.0494365 -0.383552 -1.09182
0.0472117 -1.24484 0.433005
0.00600303 3.05459 18.2552
-0.0158035 4.22368 19.4767
-0.0343289 3.06689 21.3278
0.00622439 -0.444904 15.2825
0.007088 -0.842913 16.0699
0.0101119 -1.48615 18.6037
1.35426 -0.99311 19.3971
1.18267 -1.43779 21.6749
0.0892325 -0.516108 21.6495
-0.624188 0.180432 20.6481
-1.23915 0.658733 19.4826
-1.69357 0.634497 18.9651
2.3981 -0.335128 18.6908
2.3009 -0.964622 21.9482
0.383259 -0.754182 20.6758
-0.576642 0.0105628 19.0971
-1.47921 0.12364 18.3991
-1.77619 -0.358757 18.5522
1.54479 1.08164 19.5272
2.20217 1.03068 20.8567
1.39857 0.245492 22.1178
-0.0631205 -0.373306 22.0216
-0.516549 -0.755116 21.4984
-0.694352 -0.761048 21.1879
-2.83554 -0.930166 1.71105
-0.0330199 -0.144042 0.65606
-0.0183252 -0.0379339 0.320743
0.026707 0.0588368 0.0577606
-0.0106399 -0.0033061 -0.00541224
0.000221911 0.000349359 0.00213616
-0.984527 0.0931244 1.31382
0 0 0
-0.461422 -0.0895912 1.39322
-0.0363852 0.0324127 -0.0195556
0.00669275 0.0129684 -0.0171934
0.0420109 0.0164335 0.277791
0.0324345 -0.140961 0.646798
2.51515 -0.819542 1.45868
0.0117307 -0.0295347 0.223509
0.00961202 -0.00241653 -0.0040375
-0.0283809 0.0580807 0.0593651
-0.0216149 0.0378836 0.291457
0 0 0
0.930716 0.0890738 1.23907
0.463276 -0.0929131 1.39082
-0.00493293 0.0124481 -0.0170696
0.0346867 0.0291131 -0.0186518
-0.043834 0.016689 0.295936
-0.0186495 0.0045681 0.34676
-0.0158438 0.0219102 0.677054
-0.00105908 -0.000992675 0.100167
0 0 0
0 0 0
-0.0851637 0.121303 1.00941
0 0 0
-7.8284e-05 -6.21395e-07 0.00305954
-0.487208 -0.185627 0.813415
-0.00170536 0.00104292 0.0712981
0 0 0
-0.0758483 0.0885716 0.198967
0 0 0
0.00183431 0.0112848 0.0680099
0 0 0
0.112491 0.0459131 0.671588
0.00350725 -0.00549907 0.157201
0 0 0
0.0285135 0.0326507 1.09957
0.00398464 0.00373547 0.115301
-4.1696e-05 4.04919e-05 0.000122495
3.52691e-05 3.02252e-07 0.00090331
0.0346508 0.0653848 0.885993
0 0 0
0.548508 -0.203327 0.903494
0.0501921 0.0581276 0.132081
0.0047523 0.00294748 0.18534
9.19859e-18 -2.01321e-17 -1.22897e-16
0 0 0
-0.111967 0.0462015 0.679394
-0.00272449 0.0173657 0.108958
0 0 0
-0.0224956 -0.0247256 0.262521
-1.86085 0.0341239 0.750663
0 0 0
0 0 0
0 0 0
-2.768e-07 -2.66008e-07 9.59242e-05
0.010899 0.0134195 0.098316
0 0 0
0.00373471 0.0392964 0.156225
0 0 0
0 0 0
0 0 0
-2.61458e-05 0.0592149 0.0628642
7.63963e-05 0.00863481 0.0476381
0 0 0
-0.0314973 0.0054478 0.0567344
0.0004348 0.0178374 -0.0011601
0 0 0
0.00442015 0.0124074 0.073209
-0.00208748 -0.000321389 0.000262613
1.86368 0.0375385 0.751317
0.0259933 -0.0278266 0.308042
-3.62336e-07 -3.56732e-07 0.00012787
0 0 0
0 0 0
-0.0117381 0.0143572 0.106065
0 0 0
1.14206e-05 0.00107895 0.00821682
0.0324121 0.00564755 0.0587295
0 0 0
0.00206179 -0.000300249 0.000246726
-0.00354689 0.00919733 0.0562916
-0.000923879 0.00515083 0.0597017
1.78948e-06 4.99363e-07 0.000148534
-0.000293096 -0.00521917 0.0380705
0 0 0
-8.75514e-08 8.11053e-09 2.45486e-05
-0.000274224 0.00133838 0.0406619
5.16662e-05 0.0141544 0.113273
0.00010323 0.000557255 0.005466
1.86594e-08 5.03273e-09 5.07037e-06
0 0 0
0.00523921 0.0249004 0.161774
-0.099865 0.116687 1.18225
0.000101663 0.0325065 0.0638885
0.000118719 0.0601249 0.214226
1.33595e-05 0.000270884 0.00803795
-0.000246956 -0.00751718 0.0295536
-1.61105e-05 9.05598e-06 0.00429597
0.000325996 0.00314084 0.061004
3.6217e-05 -0.0011243 0.00930656
0 0 0
-4.81665e-05 0.00160571 0.0152908
-0.000799439 0.00334933 0.0367883
0.0999703 0.116835 1.15963
-0.00517731 0.0227615 0.153072
0 0 0
-0.196123 -0.105337 0.881262
0 0 0
-0.00703517 -0.0262699 0.143959
-0.00465949 0.00726493 0.171107
-5.23948e-05 0.00852312 0.0790112
0 0 0
0.00793546 0.0344068 0.143901
0.00883937 0.00716715 0.205587
0.00175518 0.00860836 0.0627701
0 0 0
0.011387 0.00809097 0.0792876
0 0 0
0 0 0
3.36505e-07 2.56853e-07 0.000116332
-2.87802e-06 5.04779e-07 0.000241488
2.21467e-05 2.63866e-05 0.00102512
0 0 0
1.34416e-06 1.25087e-06 0.000721657
9.04076e-06 2.83279e-06 0.00151877
7.19619e-06 -3.4245e-07 -8.24242e-05
0.000369882 2.31392e-05 0.00352277
-0.0105544 0.0101836 0.115423
0.0112105 0.010275 0.116169
-0.06617 -0.0258971 0.0105643
0.0487411 -0.0191003 0.00770655