# vtk DataFile Version 2.0
tri_press
ASCII
DATASET UNSTRUCTURED_GRID
POINTS 3682 float
-0.655 0.145 -2.14369
-0.716917 0.415 2.135
-0.715 0.731166 -1.935
-0.705 1.025 2.04474
0.655 0.145 -2.14353
0.716872 0.415 2.135
0.715 0.731171 -1.935
0.705 1.025 2.04468
-0.774937 0.135702 -0.71746
-0.808839 0.212439 0.70877
-0.791906 0.90935 -0.60842
-0.773796 0.992518 0.71816
0.795131 0.115493 -0.717353
0.83379 0.187458 0.708824
0.791783 0.909231 -0.60844
0.773783 0.992507 0.71812
-1.41703 -0.297331 -3.29248
-1.42567 -0.235371 -2.19142
-1.51456 -0.221179 -0.762613
-1.55895 -0.148212 0.686252
-1.51782 0.0168387 2.11674
-1.50215 0.12257 3.22608
-1.50626 0.203114 4.3201
-1.41807 0.0501651 -3.22399
-1.42524 0.133022 -2.13381
-1.53318 0.15705 -0.724388
-1.56494 0.218055 0.694009
-1.49165 0.367588 2.10534
-1.4848 0.471415 3.21326
-1.49862 0.553667 4.31053
-1.44723 0.702671 -3.05902
-1.46723 0.784205 -1.96469
-1.549 0.910898 -0.623201
-1.5462 0.977449 0.711235
-1.47888 1.03517 2.05463
-1.47949 1.13923 3.16667
-1.49818 1.23782 4.27999
-1.49731 1.76267 -2.88649
-1.51303 1.8569 -1.8071
-1.54453 1.99079 -0.497921
-1.55584 2.08655 0.789784
-1.54241 2.15101 2.1
-1.53337 2.217 3.18155
-1.53299 2.29874 4.28399
-0.680883 -0.292344 -3.29887
-0.667005 -0.229792 -2.20076
-0.740996 -0.236895 -0.761331
-0.789907 -0.154818 0.698858
-0.763893 0.0446668 2.13877
-0.751115 0.142032 3.24102
-0.754349 0.212802 4.32875
-0.683129 0.0504082 -3.22594
-0.735349 0.490591 3.22558
-0.748596 0.56247 4.31705
-0.707198 0.682327 -3.04668
-0.731643 1.1403 3.16468
-0.749259 1.23942 4.27956
-0.744864 1.74959 -2.8743
-0.75277 1.84519 -1.79367
-0.777985 1.9896 -0.489827
-0.793014 2.0891 0.788811
-0.787295 2.14856 2.09306
-0.780335 2.21285 3.17462
-0.779428 2.29515 4.27896
0.73416 -0.296116 -3.29877
0.734926 -0.234989 -2.20064
0.807734 -0.253684 -0.761238
0.809775 -0.174575 0.698908
0.731766 0.0375265 2.13878
0.735767 0.136049 3.24102
0.743333 0.205982 4.32875
0.71344 0.0482792 -3.22585
0.731129 0.486647 3.22557
0.740555 0.556525 4.31704
0.724438 0.680945 -3.04664
0.724893 1.13725 3.16465
0.735102 1.23425 4.27955
0.746251 1.74639 -2.87427
0.754307 1.84217 -1.79366
0.755324 1.98608 -0.489824
0.738807 2.08498 0.788802
0.722565 2.14404 2.09304
0.721514 2.20779 3.1746
0.724031 2.28943 4.27895
1.46037 -0.306419 -3.29231
1.46692 -0.247713 -2.19122
1.5609 -0.247715 -0.762464
1.58754 -0.17958 0.686332
1.51563 -0.00188043 2.11677
1.49732 0.108086 3.22609
1.4999 0.188571 4.32011
1.4363 0.043787 -3.22382
1.42285 0.125743 -2.13362
1.54762 0.132858 -0.72425
1.59225 0.187268 0.694073
1.50591 0.352361 2.10535
1.48786 0.459606 3.21326
1.49401 0.540574 4.31053
1.44874 0.698229 -3.05892
1.45212 0.781167 -1.96462
1.54026 0.902114 -0.623167
1.55074 0.964636 0.711221
1.48642 1.02509 2.05458
1.47728 1.12971 3.16663
1.48595 1.2263 4.27997
1.49059 1.75555 -2.88644
1.50354 1.84991 -1.80707
1.51712 1.98262 -0.497907
1.50692 2.07706 0.789774
1.48581 2.14083 2.09998
1.47919 2.20608 3.18152
1.47965 2.28683 4.28398
-0.712682 0.438083 -2.06703
0 0.12319 -2.16542
-0.74158 0.11374 -1.43058
-0.711439 0.72 2.09035
-2.25008e-05 0.375818 2.17418
-0.775513 0.301085 1.42189
0 0.777471 -1.9813
-0.78831 0.855115 -1.27171
0 1.09811 2.11782
-0.768192 1.03755 1.38145
0.712791 0.438086 -2.06706
0.741647 0.113665 -1.43044
0.711872 0.72 2.09078
0.778365 0.298195 1.42191
0.789085 0.855894 -1.27172
0.767834 1.0372 1.3814
-0.794177 0.171782 -0.00434506
-0.873949 0.522526 -0.66294
0.0100971 0.111903 -0.717407
-0.893552 0.602479 0.713465
0.0124757 0.119472 0.708797
-0.785337 0.95342 0.05487
-6.15186e-05 1.2414 -0.60843
-6.78828e-06 1.46571 0.71814
0.817327 0.148609 -0.00426495
0.872284 0.512362 -0.662897
0.887809 0.589982 0.713472
0.785353 0.953438 0.0548401
-0.857268 0.480305 -1.35114
0.855661 0.475224 -1.35108
0.00504853 0.111909 -1.43051
-3.07593e-05 0.911533 -1.27172
0 0.438084 -2.25715
-0.885669 0.562503 0.0252625
0.887234 0.551172 0.0252876
0.0112864 0.119348 -0.00430501
-3.41534e-05 1.44509 0.054855
-0.878737 0.661239 1.40167
0.878655 0.654991 1.40166
0.00622659 0.119859 1.4219
-3.39414e-06 1.2839 1.38143
-1.12504e-05 0.72 2.18578
-0.669722 0.291541 -2.09124
-0.3275 0.126954 -2.1617
-0.707605 0.120055 -1.78713
-0.758714 0.5675 2.15721
-0.35847 0.380585 2.16941
-0.765328 0.338929 1.77844
-0.735014 0.584625 -2.02219
-0.3575 0.767748 -1.97158
-0.771367 0.812852 -1.60335
-0.723341 0.8725 2.08267
-0.3525 1.08751 2.10724
-0.747524 1.0422 1.7131
0.3275 0.126452 -2.16212
0.668235 0.291543 -2.08963
0.706854 0.120802 -1.78699
0.358425 0.380598 2.1694
0.75882 0.5675 2.15734
0.772252 0.331964 1.77846
0.3575 0.767758 -1.97159
0.735196 0.584628 -2.02233
0.771344 0.812834 -1.60336
0.3525 1.08749 2.10719
0.722824 0.8725 2.08212
0.747942 1.04262 1.71304
-0.765394 0.117585 -1.07402
-0.784341 0.153958 -0.360903
-0.837352 0.322659 -0.6902
-0.387609 0.113425 -0.717434
-0.781889 0.267049 1.06533
-0.8016 0.192018 0.352213
-0.851911 0.407101 0.711118
-0.421199 0.11992 0.708783
-0.790899 0.883023 -0.940065
-0.878026 0.738488 -0.63568
-0.78859 0.931354 -0.276775
-0.461463 1.20633 -0.608425
-0.770534 1.01458 1.04981
-0.88138 0.821352 0.715813
-0.779148 0.972551 0.386515
-0.489489 1.43429 0.71815
0.767634 0.115333 -1.0739
0.402597 0.113731 -0.71738
0.80869 0.12959 -0.360809
0.834834 0.313364 -0.690125
0.781875 0.267029 1.06537
0.439899 0.119932 0.70881
0.82546 0.168132 0.352279
0.851486 0.393377 0.711148
0.7925 0.884628 -0.94008
0.460777 1.20515 -0.608435
0.878898 0.734228 -0.635668
0.788843 0.93161 -0.2768
0.770429 1.01447 1.04976
0.489458 1.43425 0.71813
0.883134 0.817413 0.715796
0.779329 0.972733 0.38648
-0.840341 0.459194 -1.70908
-0.356341 0.438084 -2.22626
0.00252426 0.112638 -1.79796
0 0.280637 -2.2465
-0.83213 0.297022 -1.39086
-0.368266 0.111433 -1.43054
-0.859598 0.69062 1.74601
-0.355725 0.72 2.16453
0.00310205 0.120045 1.79804
-1.68756e-05 0.547909 2.2387
-0.848777 0.481162 1.41178
-0.384643 0.12001 1.42189
-1.53796e-05 0.871989 -1.62651
0 0.607778 -2.20023
-0.864569 0.66771 -1.31143
-0.39417 0.914328 -1.27171
-1.69707e-06 1.12476 1.74962
-5.62519e-06 0.909054 2.17673
-0.871656 0.849396 1.39156
-0.384098 1.25684 1.38144
0.840752 0.456655 -1.70907
0.356395 0.438085 -2.22628
0.831055 0.294444 -1.39076
0.373348 0.111426 -1.43048
0.860168 0.687496 1.74622
0.35593 0.72 2.16457
0.849364 0.476593 1.41178
0.392296 0.120006 1.42191
0.863427 0.665559 -1.3114
0.394527 0.914365 -1.27172
0.871459 0.846093 1.39153
0.383915 1.2571 1.38141
-0.853566 0.360321 0.0104587
-0.404441 0.119573 -0.00432503
-0.868626 0.501416 -1.00704
-0.882657 0.542514 -0.318839
0.00757279 0.111963 -1.07396
0.0106917 0.113681 -0.360856
-0.892577 0.582491 0.369364
-0.885928 0.631859 1.05757
0.011881 0.119399 0.352246
0.00935114 0.119768 1.06535
-0.882114 0.781267 0.0400662
-0.500333 1.41455 0.0548625
-4.61389e-05 1.0668 -0.940073
-4.7836e-05 1.38026 -0.276788
-2.04709e-05 1.46788 0.386498
-5.09121e-06 1.4147 1.04978
0.853862 0.3491 0.0105113
0.421649 0.119294 -0.00428498
0.867549 0.493793 -1.00699
0.880975 0.531767 -0.318805
0.886999 0.570577 0.36938
0.8856 0.622487 1.05756
0.883177 0.775747 0.0400638
0.500302 1.41455 0.0548476
-0.801772 0.294282 -1.74811
-0.841904 0.313068 -1.04053
-0.876656 0.691824 -0.973553
-0.855339 0.626167 -1.65622
0.801644 0.292994 -1.74803
0.855466 0.625094 -1.65621
0.876369 0.688178 -0.973534
0.839457 0.304186 -1.04044
-0.347883 0.111843 -1.79255
0.350424 0.111864 -1.79247
0.387981 0.11181 -1.07393
-0.375343 0.111804 -1.07399
-0.375835 0.863556 -1.61493
-0.395077 1.03425 -0.940069
0.395194 1.03312 -0.940076
0.376014 0.863574 -1.61493
-0.34192 0.286089 -2.21963
-0.35692 0.596201 -2.18891
0.356948 0.596203 -2.18892
0.341948 0.28609 -2.21912
-0.847724 0.340358 -0.339871
-0.85327 0.383445 0.360788
-0.882137 0.801504 0.377939
-0.880394 0.760039 -0.297807
0.845168 0.330822 -0.339807
0.88168 0.755309 -0.297802
0.882913 0.796459 0.37793
0.856464 0.369343 0.360829
-0.396219 0.116111 -0.360879
0.410721 0.119318 -0.360833
0.430746 0.11967 0.352263
-0.412857 0.119673 0.352229
-0.499679 1.348 -0.276781
-0.500695 1.43599 0.386506
0.500608 1.43585 0.386489
0.49959 1.34795 -0.276794
-0.857012 0.444311 1.06145
-0.837638 0.524331 1.76223
-0.846417 0.860948 1.72955
-0.883347 0.823447 1.05369
0.852258 0.432657 1.06147
0.883642 0.818669 1.05366
0.846707 0.859297 1.72963
0.83774 0.522047 1.76234
-0.391412 0.119795 1.06534
0.407714 0.119797 1.06536
0.37536 0.120174 1.78825
-0.371556 0.120185 1.78824
-0.3855 1.3883 1.04979
-0.368299 1.1126 1.73136
0.368208 1.11265 1.73133
0.385402 1.3889 1.04977
-0.357098 0.557705 2.27606
0.357177 0.557705 2.27603
0.354215 0.890777 2.15536
-0.354113 0.890777 2.15536
-0.662074 0.218271 -2.11718
-0.49125 0.131472 -2.1572
-0.692326 0.121504 -1.96541
-0.74476 0.49125 2.15305
-0.537693 0.387904 2.1621
-0.747681 0.370406 1.95672
-0.718382 0.657895 -1.97197
-0.53625 0.769534 -1.97337
-0.752459 0.781285 -1.76918
-0.713055 0.94875 2.06259
-0.52875 1.07308 2.09281
-0.731537 1.03888 1.87892
0.49125 0.131349 -2.1572
0.660955 0.218271 -2.11592
0.692328 0.1215 -1.96526
0.537648 0.388008 2.16199
0.744901 0.49125 2.15322
0.747504 0.37054 1.95673
0.53625 0.76953 -1.97336
0.718539 0.6579 -1.97211
0.75244 0.781271 -1.76918
0.52875 1.0721 2.09179
0.712951 0.94875 2.06244
0.73146 1.0388 1.87886
-0.770351 0.126458 -0.895739
-0.779539 0.14493 -0.539181
-0.822867 0.220819 -0.70383
-0.586398 0.114313 -0.717447
-0.812458 0.22265 0.887049
-0.804579 0.202869 0.530491
-0.830972 0.309472 0.709944
-0.637481 0.121256 0.708777
-0.793694 0.898479 -0.774243
-0.847092 0.829982 -0.62205
-0.790516 0.92062 -0.442598
-0.666942 1.13836 -0.608423
-0.771517 1.0029 0.883983
-0.846909 0.916596 0.716986
-0.776136 0.982198 0.552338
-0.646502 1.24312 0.718155
0.781749 0.115047 -0.895625
0.598847 0.114646 -0.717367
0.802175 0.122277 -0.539081
0.853417 0.195212 -0.703739
0.837938 0.197138 0.887096
0.652916 0.121553 0.708817
0.829487 0.177933 0.530551
0.82556 0.298957 0.709986
0.793578 0.898366 -0.77426
0.666641 1.13791 -0.608438
0.847762 0.82794 -0.622054
[...]
POINT_DATA 3682
SCALARS point_scalars float 1
LOOKUP_TABLE default
-71.9259
-38.6606
-45.5554
-43.3436
-70.6106
-38.8806
-45.2351
-43.5603
-40.944
-41.2719
-67.3491
-54.046
-41.3634
-44.4195
-67.0155
-54.3292
-84.1837
-98.6964
-52.9979
-40.6712
-43.2167
-39.5758
-36.4051
-69.121
-91.9147
-41.3037
-42.365
-43.946
-39.88
-36.5486
56.8822
-76.8204
-52.2707
-47.8636
-48.0342
-40.3098
-37.4986
-44.2568
-48.389
-95.2484
-65.4387
-45.1291
-43.3311
-40.8017
-32.5094
-143.816
-40.9178
-38.8606
-37.3796
-34.7471
-33.8325
70.7387
-35.6461
-35.039
157.327
-36.967
-36.8816
-10.1914
-40.8811
-88.2375
-70.6683
-41.6981
-39.4731
-39.1771
71.4763
-171.548
-41.0843
-40.5816
-37.7246
-35.1877
-34.4041
71.4763
-35.9683
-35.4666
157.325
-37.2144
-36.6455
-9.05426
-40.8694
-89.2683
-71.9566
-41.2494
-39.5126
-39.1533
-74.1448
-96.7227
-40.549
-44.1886
-43.3441
-39.9737
-36.7402
-67.5122
-88.4978
-40.7989
-44.6393
-43.9997
-40.0567
-36.845
57.6435
-76.7836
-52.4331
-48.008
-48.1677
-40.6118
-37.7457
-43.8844
-48.1729
-94.8191
-65.5047
-45.2208
-43.5482
-40.9747
-20.163
-150.237
-55.7885
-40.0606
-30.7285
-40.7379
-29.9809
-40.4425
-39.423
-53.8247
-19.9661
-55.6869
-40.3079
-40.2568
-40.1994
-53.8526
-39.253
-45.1554
-41.2834
-44.6444
-38.3817
-58.3917
-15.224
-76.6741
-39.4822
-45.0002
-45.0945
-58.6395
-57.0878
-56.6338
-55.3238
6.32983
206.295
-44.6688
-45.1143
-37.2265
-94.7685
-46.1355
-46.0387
-39.9368
-49.8607
-37.1984
-16.7609
-161.63
-81.5565
-39.9194
-32.6961
-46.4171
-19.5317
-39.441
-51.101
-40.9955
-39.0174
-47.9485
-162.138
-15.2631
-80.5023
-33.0744
-40.2061
-45.9618
-39.4103
-19.3224
-50.8976
-39.0917
-41.2572
-48.0555
-46.8841
-38.519
-42.5884
-40.9858
-46.3596
-40.2237
-43.0953
-38.8899
-47.0371
-52.1465
-63.1224
-21.2994
-52.5338
-47.6752
-56.0311
-71.3521
-44.7056
-41.1422
-39.7138
-42.3238
-44.8956
-39.3111
-39.398
-44.4129
-47.4923
-20.5026
-51.9217
-63.4384
-52.7483
-71.3695
-47.9651
-56.1948
-85.48
180.097
-82.2988
197.061
-59.2702
-54.8295
-48.9186
-37.143
-42.4705
-30.4679
-43.2523
-40.3919
-24.6367
82.5848
-54.3992
-6.73915
-44.3445
-37.0229
-48.5225
-50.7693
-84.9402
180.136
-59.028
-54.6496
-49.0195
-37.2907
-43.1904
-40.4035
-54.1265
-6.88511
-48.5522
-50.7614
-41.759
-37.0406
-48.4079
-44.656
-45.7787
-39.3739
-44.5563
-45.5314
-37.4897
-39.1794
-50.3644
-85.0327
26.2035
-82.0493
-85.8809
-62.6636
-41.6153
-37.3089
-48.1725
-45.2074
-45.3195
-45.6378
-50.5716
-85.0367
-83.0499
-49.307
-48.333
-76.9097
-81.1893
-77.0557
-48.3603
-48.9986
-81.2946
-80.9247
-45.3025
-45.4703
-30.4058
16.721
16.1481
-30.343
182.209
79.7683
80.6484
182.183
-40.9024
-42.4686
-48.7979
-51.8845
-42.4619
-52.0511
-49.0136
-42.9411
-38.9606
-38.9123
-37.7405
-37.4692
-85.0545
-76.7553
-76.8746
-85.6501
-45.561
-46.9028
-49.2613
-47.2762
-45.2764
-47.2768
-49.4425
-47.0788
-39.8889
-40.1747
-45.5589
-45.3214
-63.242
-44.9491
-44.9481
-63.2347
-33.9426
-34.4037
-37.0775
-36.9272
-22.6336
-185.713
-102.537
-39.791
-34.3827
-41.0212
-20.4603
-38.7455
-61.0755
-42.5775
-39.5935
-45.9901
-185.846
-21.0997
-101.76
-34.7208
-40.059
-41.1269
-38.8994
-20.4677
-60.8808
-39.941
-42.8338
-46.0828
-45.6557
-39.1282
-42.0552
-40.5204
-41.4738
-40.1591
-41.9478
-40.1837
-61.7523
-58.5114
-64.9766
-81.819
-53.2763
-50.6786
-54.4406
-60.0885
-44.9628
-40.8526
-39.9601
-40.8124
-48.8663
-40.565
-40.7179
-45.9704
-61.6072
-81.6054
-58.2879
-65.527
-53.5243
-60.5756
-50.9007
-54.7225
-1.92504
-23.5795
-94.0309
127.614
-149.802
-149.863
-109.05
120.005
-67.3151
-49.7618
-59.8623
-54.3395
-40.533
-40.2038
-47.0321
-37.3683
-31.3369
-31.5649
-33.7817
-29.0319
-43.5203
-41.8525
-41.6363
-42.5424
-30.1681
-30.2037
-37.2039
57.597
-44.9051
-38.1593
-51.8779
-19.2011
-39.3768
-39.3928
-42.3287
-37.8132
-51.425
-52.8013
-50.2174
-53.9052
-1.46036
-24.199
-93.4296
127.753
-66.6641
-48.8983
-60.3143
-54.138
-40.8275
-40.4763
-47.2149
-37.5683
-44.7011
-40.8494
-41.2646
-41.8403
-44.6789
-39.1364
-51.8071
-19.1996
-51.1588
-52.8611
-50.3
-53.846
-38.2478
-39.9512
-40.3753
-37.0525
-43.6152
-47.7051
-46.7551
-44.6982
-41.1707
-41.2431
-43.1223
-40.0621
-43.8423
-45.8014
-44.4992
-45.2916
-38.4576
-38.6418
-37.9083
-38.8132
-60.6342
-56.6643
-54.2269
-69.0851
-15.805
-15.3216
12.3513
-47.5944
-76.0226
-76.1273
-81.1652
-70.5822
-39.7271
-38.8147
-40.6945
-37.4573
-43.5579
-47.452
-46.3289
-45.1071
-44.6699
-46.091
-44.5448
-45.4722
-60.9708
-56.9501
-54.3264
-69.2527
-69.0945
-58.618
-55.4761
-52.1832
-68.5087
-58.2103
-55.0358
-52.0272
-64.875
-55.1879
-55.1021
-49.7621
-10.6868
3.26792
3.21856
20.5606
198.869
203.449
179.516
198.879
-42.8455
-44.7511
-44.5074
-47.046
-43.3961
-45.2368
-45.2131
-47.3999
-37.1469
-37.5772
-37.2517
-37.2774
-93.6072
-94.2955
-91.3581
-93.3537
-47.4458
-44.498
-47.2381
-45.4424
-47.2798
-44.4937
-47.3801
-45.1518
-40.6009
-40.0474
-40.0923
-39.5059
-46.2096
-50.0934
-50.0974
-54.7763
-37.1872
-34.1154
-36.6272
-37.2868
-97.1854
127.78
-107.138
137.425
-83.6154
-80.3748
-44.3434
-35.6945
-35.6498
-31.9885
-46.1494
-50.4517
-81.7067
69.2753
-41.196
72.381
-62.3912
-37.5189
-47.8615
-37.0983
-42.2427
-37.5804
-48.9162
-45.7897
-107.13
128.321
-94.7857
128.023
-79.7152
-79.6709
-36.0056
-32.6079
-44.4648
-36.0501
-46.0034
-50.3664
-41.1886
71.1751
-81.002
69.6591
-63.0393
-37.4
-42.2729
-37.6913
-48.0488
-37.3092
-49.0162
-45.7968
-48.4345
-45.2982
-39.8015
-38.5995
-47.2618
-41.1202
-42.8747
-39.6553
-46.6674
-43.6071
-41.741
-37.5451
-42.4545
-43.6316
-38.0968
-39.7783
-50.0235
-9.30605
-50.1398
-52.5114
-57.2878
-82.4011
4.24298
-52.8092
-49.3111
-63.748
-48.235
-47.734
-52.383
-64.8003
-72.7201
-69.2657
-47.3078
-44.8824
-42.8522
-39.959
-41.0931
-38.8973
-46.1984
-42.2077
-45.5857
-43.816
-38.4263
-40.2762
-41.4842
-37.9467
-43.6249
-44.2471
-49.8958
-10.0217
4.4344
-53.8159
-49.7572
-52.6145
-57.4872
-82.8724
-49.2556
-63.6399
-72.9044
-69.2673
-48.3999
-47.9767
-52.5797
-65.0518
-86.0865
-83.8886
175.528
167.042
-81.7747
-80.9878
194.197
194.309
-74.0746
-52.7083
-64.6302
-49.3814
-47.7897
-49.039
-36.4195
-36.7521
-43.4396
-43.3127
-30.7405
-31.0203
-43.5776
-45.6177
-39.7585
-41.3934
-25.8818
-25.9379
82.8884
82.9322
-49.8541
-65.4858
-18.3424
7.02968
-44.5631
-44.5541
-36.9777
-36.9073
-49.1872
-48.2687
-56.0549
-47.2443
-85.7798
-83.4682
166.819
175.546
-73.1871
-52.2417
-64.3748
-49.1858
-49.1704
-47.9275
-36.6431
-36.924
-43.2695
-45.1682
-39.8606
-41.4994
-64.839
-49.6407
6.82676
-18.4026
-48.2003
-49.0925
-47.2362
-56.0563
-41.3278
-42.0476
-37.344
-37.1567
-48.8186
-48.0087
-42.6117
-47.6223
-45.6184
-45.6913
-39.3305
-39.2064
-43.4344
-46.1503
-45.1184
-46.465
-37.581
-37.4674
-39.2931
-39.4183
-49.7245
-51.1617
-91.4849
-79.6607
24.3022
23.9581
-80.8324
-80.6325
-84.3281
-84.442
-62.825
-62.818
-43.0548
-42.194
-37.5665
-37.3946
-48.1573
-49.172
-43.6575
-47.8857
-46.5748
-43.9235
-45.181
-46.5093
-51.436
-49.997
-79.8015
-91.0808
-93.2505
-75.7983
-71.5687
-100.802
-48.7216
-47.3384
-52.8619
-52.3361
-55.9918
-47.7675
-51.0913
-47.47
-78.3346
-86.1321
-65.8245
-59.2233
-91.1177
-99.3212
-70.8776
-70.9518
-77.4402
-59.0612
-65.4061
-85.752
-55.5902
-46.9082
-50.9553
-47.8124
-47.3341
-51.7472
-52.4946
-46.3392
-104.852
-108.142
-64.6946
-64.4358
-104.647
-64.2288
-64.6126
-108.229
-42.701
-43.0299
-49.5801
-48.6432
-42.7961
-49.0035
-49.6648
-43.0405
-46.6829
-28.0485
-12.1649
-38.2248
-39.7661
11.6522
17.4302
-13.3357
-39.3091
-13.3759
17.7427
11.7728
-46.6841
-38.2135
-12.1115
-28.0069
102.844
114.858
199.152
113.828
67.9264
64.7683
180.291
125.944
68.0516
126.344
177.087
64.8027
103.452
113.866
199.167
114.659
-40.185
-40.0055
-42.7923
-42.8379
-41.0583
-43.388
-43.1664
-41.3243
-51.5332
-53.49
-46.3698
-45.8912
-58.4585
-47.7744
-47.4511
-55.6346
-40.4115
-43.4844
-43.8275
-44.4764
-58.4964
-55.8978
-47.7312
-48.0966
-51.669
-46.038
-47.0388
-53.7146
-43.3567
-40.6783
-43.5541
-44.1861
-39.1844
-39.9256
-37.4956
-37.1495
-39.7662
-37.6423
-37.5972
-40.0888
-38.8855
-38.0784
-37.3207
-37.5091
-38.3114
-37.241
-37.1922
-37.9252
-97.0591
-75.3319
-92.8481
-45.8834
-62.0293
-79.7118
-88.6896
-65.0376
-62.024
-65.1286
-88.8368
-79.7117
-97.2783
-47.3364
-93.0244
-75.2574
-42.6662
-42.2994
-44.5319
-44.6761
-43.4259
-45.8356
-45.9689
-44.5753
-47.7075
-49.692
-48.5133
-47.3566
-50.3578
-46.3144
-46.5904
-49.6957
-44.0811
-44.7226
-44.3415
-41.8439
-50.5986
-49.6091
-46.2996
-46.5517
-47.8678
-47.5542
-48.5411
-49.66
-43.5151
-44.2755
-45.7249
-45.9923
-42.3106
-38.9582
-39.5846
-39.0464
-44.0842
-39.4214
-39.6445
-39.1349
-38.5831
-34.4842
-40.8897
-42.0685
-38.3125
-41.7685
-40.8143
-34.2602
-59.5534
-59.1612
-54.9586
-70.5686
-42.9802
-42.3422
-46.46
-48.8767
-43.0398
-48.8689
-46.4448
-42.3504
-59.7309
-70.5476
-54.9625
-59.1119
-34.8183
-29.4464
-35.6018
-36.9777
-35.2527
-37.2262
-35.7077
-29.7622
-38.1448
-37.7657
-36.6502
-37.1362
-37.9782
-36.9066
-36.5601
-37.7235
-49.8468
-108.198
-122.692
-39.3812
-35.547
-39.7089
-26.67
-30.0015
-67.7608
-43.9618
-41.0985
-44.831
-107.945
-48.2413
-122.025
-35.8611
-39.6252
-39.7953
-30.1026
-26.3935
-67.4783
-41.2909
-44.2244
-44.9621
-42.188
-40.3415
-41.545
-40.2099
-42.8606
-40.5981
-41.8053
-39.7623
-66.9859
-62.1595
-66.4069
-89.4553
-53.6387
-52.7538
-54.1385
-56.5127
-41.7272
-40.8429
-40.6597
-42.0001
-45.0995
-39.9025
-42.7561
-47.3666
-66.7648
-89.332
-62.0252
-66.5369
-53.8982
-56.7524
-53.0165
-54.3919
-24.2682
-30.3757
-91.0525
72.5805
-150.365
-150.368
-129.222
-17.6228
-60.5037
-51.589
-58.9691
-54.5337
-40.3314
-40.0694
-45.7317
-37.8987
-30.9085
-31.0437
-32.0097
-28.9305
-41.3538
-41.8648
-41.1291
-40.7349
-29.9219
-29.875
-39.3303
-29.5547
-42.7122
-38.9303
-48.724
-28.8366
-39.4705
-39.4756
-41.1655
-38.2079
-52.6292
-53.1724
-51.8165
-56.8599
-23.5423
-25.1466
-90.4163
72.9008
-60.5593
-51.4407
-59.4047
-54.4155
-40.5913
-40.3305
-45.9669
-38.073
-41.1823
-41.1702
-40.9102
-40.2091
-42.3819
-39.0164
-48.704
-28.6792
-52.5548
-53.2206
-51.9443
-56.8153
-38.7544
-39.7131
-40.0492
-37.32
-44.335
-46.3183
-45.5153
-44.8275
-41.256
-41.2831
-42.0495
-40.6366
-44.2039
-45.2078
-44.4285
-44.844
-38.3752
-38.461
-38.1358
-38.6074
-59.3939
-57.2913
-56.7696
-63.1957
-15.1698
-15.1973
0.0594685
-29.2438
-76.5658
-76.6188
-78.8078
-73.9512
-40.4353
-38.9587
-39.7805
-37.6819
-44.2717
-45.8453
-45.2179
-44.9828
-44.7938
-45.5103
-44.9465
-45.0042
-59.6808
-57.563
-56.9778
-63.3839
-62.2415
-57.7937
-56.1655
-54.2603
-61.8666
-57.3997
-55.6817
-53.8749
-59.5473
-55.2935
-55.2634
-52.235
-3.28457
5.49252
5.49668
13.7162
202.96
201.975
202.459
203.218
-43.6541
-44.8089
-44.0256
-45.728
-44.163
-45.1345
-45.124
-46.1637
-37.1918
-37.3504
-37.1883
-37.256
-94.5284
-96.8391
-93.2257
-94.5205
-46.2898
-45.2741
-46.8606
-45.9931
-46.1805
-45.2303
-46.805
-45.7657
-40.2498
-39.9648
-39.9875
-39.7052
-47.9269
-49.9162
-49.9243
-52.0229
-37.1843
-37.7555
-36.7648
-37.2082
-24.2054
-1.94922
-117.579
84.8043
-184.924
-151.484
-128.151
-33.0044
-95.0164
-73.4934
-86.5766
-79.3975
-40.0053
-40.2173
-42.8592
-36.9035
-33.3898
-31.9437
-33.6509
-31.9923
-43.1686
-46.5214
-45.5904
-49.8154
-19.1993
-19.1239
-71.2818
38.8385
-43.1136
-33.664
-43.0634
-11.899
-56.6683
-49.5469
-58.0953
-43.4429
-41.4409
-40.5316
-46.0653
-38.0354
-39.08
-39.2145
-40.7446
-37.8195
-46.8634
-49.2109
-48.5953
-46.6787
-185.504
-151.261
-128.256
-32.2236
-23.179
-0.527829
-116.058
84.69
-94.3932
-72.8054
-84.7692
-78.5659
-33.7709
-32.255
-34.0202
-32.5248
-40.2841
-40.5452
-43.0541
-37.2036
-43.7042
-45.1328
-45.287
-49.4122
-43.1517
-33.6521
-42.99
-10.8139
-19.2591
-16.5091
-70.672
38.9159
-56.7098
-49.3194
-58.0601
-43.3508
-39.1902
-39.2548
-40.7913
-37.9512
-41.6874
-40.8055
-46.3536
-38.2744
-46.9765
-49.1716
-48.6717
-46.704
-47.2115
-47.9032
-48.2373
-45.6907
-38.9822
-38.3321
-39.1122
-38.1846
-42.1857
-43.011
-43.6649
-41.7762
-40.8554
-41.089
-41.8677
-40.1877
-52.5965
-41.154
-46.4683
-46.7614
-39.9162
-40.4729
-41.5924
-37.609
-42.5842
-43.4058
-42.7445
-43.3495
-39.3037
-38.6319
-38.4568
-39.3759
-58.9088
-39.9462
-51.3086
-28.345
-54.6695
-49.7262
-51.2872
-52.5637
-64.5223
-61.8298
-60.183
-69.917
-36.8223
-16.7197
-5.69656
-39.4615
-52.8687
-52.4125
-51.3513
-56.7698
-48.989
-46.5733
-47.9674
-47.6233
-55.1841
-56.3773
-54.6367
-60.4612
-63.8786
-74.3287
-71.6404
-72.6247
-44.9447
-46.3423
-43.1466
-44.8956
-41.0526
-41.1635
-41.972
-40.4041
-40.2822
-39.9946
-40.9671
-39.2525
-41.3892
-42.9148
-43.1213
-42.2478
-51.7401
-40.2941
-45.2102
-45.7083
-39.8636
-38.9265
-38.8459
-39.8335
-40.0748
-39.3948
-40.4192
-37.9279
-44.4617
-44.513
-44.2563
-44.4937
-58.9171
-40.8976
-51.3997
-28.928
-36.1575
-16.239
-5.64723
-38.3474
-54.4353
-49.5095
-50.9166
-52.4744
-64.7571
-62.2094
-60.4174
-70.1804
-53.1016
-52.5759
-51.4529
-56.8489
-64.5936
-74.4066
-71.6682
-72.7012
-49.282
-46.8976
-47.9901
-47.9281
-55.3664
-56.5919
-54.814
-60.6657
-90.4337
-78.3919
-85.8585
-85.0149
165.264
192.169
173.752
182.146
-94.7971
-71.5617
-82.1911
-81.5755
182.659
202.011
196.511
196.306
-59.6618
-58.9995
-64.9479
-55.5189
-54.5614
-55.0392
-59.1587
-51.7894
-48.2159
-48.603
-48.5031
-48.951
-37.2577
-37.0894
-37.5475
-36.9402
-37.79
-40.9978
-42.8943
-42.8083
-30.2784
-30.6612
-30.704
-30.838
-42.2518
-43.8304
-43.5948
-44.1001
-40.8875
-40.1884
-39.9899
-40.8418
-31.4726
-17.8523
-24.7796
-24.9185
80.3356
128.034
83.3247
83.3367
-53.7648
-54.7129
-51.3089
-59.8052
-12.4317
-0.624686
-12.6669
0.412922
-43.537
-44.9507
-44.4245
-44.4143
-37.5237
-36.7216
-36.9896
-36.954
-49.275
-47.8533
-48.7978
-48.1224
-51.7926
-50.3778
-53.2968
-48.7483
-89.4778
-77.745
-85.357
-84.5023
165.848
192.207
182.064
173.85
-59.4916
-58.6398
-64.5532
-54.8369
-54.3568
-54.9142
-58.9655
-51.458
-48.3832
-48.5592
-49.0946
-48.5815
-37.4221
-37.2409
-37.6883
-37.1036
-42.0652
-43.846
-43.3022
-44.1685
-40.7593
-40.2295
-40.0642
-40.8517
-53.5392
-54.3342
-59.4958
-51.1565
-12.531
-0.716027
0.238399
-12.7127
-49.2586
-47.9615
-48.0505
-48.6602
-51.796
-50.3767
-48.748
-53.2961
-40.855
-42.3214
-41.5866
-41.9874
-37.0059
-37.098
-37.1557
-37.0277
-48.2902
-49.8721
-48.7461
-47.8856
-44.5823
-44.7995
-43.4976
-46.1153
-44.3865
-47.5653
-45.7467
-45.7926
-39.7385
-38.4013
-39.4346
-39.307
-44.3894
-44.7138
-43.9778
-45.3755
-45.9962
-45.2079
-45.1608
-46.0873
-37.6823
-37.3567
-37.5313
-37.4593
-39.0309
-39.3088
-39.2019
-39.2545
-52.0731
-48.364
-50.0364
-50.8298
-77.0556
-90.8858
-88.8204
-81.8904
19.9634
26.411
25.7605
25.5731
-67.5814
-89.5125
-81.7585
-81.7299
-83.4202
-88.4755
-85.5142
-85.4886
-67.2368
-58.3792
-62.7182
-62.7186
-40.6934
-42.6642
-42.3483
-41.8359
-37.3429
-37.2968
-37.398
-37.2913
-47.6806
-49.8504
-48.0978
-48.4494
-45.1658
-45.2056
-44.3325
-46.5453
-44.7621
-45.1831
-45.7651
-44.5554
-46.0624
-45.1254
-45.4603
-46.0112
-52.2271
-48.7372
-51.1998
-50.2101
-77.0354
-90.6741
-82.0358
-88.7093
-91.8754
-82.7879
-85.3167
-82.6902
-48.8519
-50.7581
-50.5824
-49.0695
-48.7725
-48.8412
-48.3857
-48.1774
-75.8436
-68.3498
-82.1103
-71.7362
-88.6865
-79.0341
-84.387
-82.4529
-76.08
-69.0677
-81.8667
-71.0331
-48.7012
-48.4726
-48.2785
-48.1865
-48.6415
-49.37
-50.4379
-49.5078
-94.3887
-81.2476
-81.2169
-71.3749
-94.1787
-80.687
-80.8109
-71.0399
-45.1209
-44.0196
-47.0152
-45.5289
-45.3685
-44.1357
-47.2113
-45.6184
-35.7388
-33.7411
-27.7502
-24.4839
6.53559
12.5148
13.732
22.0131
6.4027
12.6553
13.3135
21.6418
-35.7783
-33.5829
-27.7651
-24.45
163.018
168.801
181.141
188.316
84.1541
79.2998
130.402
83.0581
79.6006
84.5044
83.0605
129.279
168.607
163.154
188.325
181.181
-40.1327
-40.8897
-41.1415
-41.8108
-41.6425
-42.5812
-42.531
-43.0268
-48.479
-50.3296
-47.2846
-49.1977
-52.2487
-54.8088
-49.5105
-51.6131
-42.1749
-42.2996
-42.9305
-43.0267
-52.3212
-55.0085
-49.6572
-51.8128
-48.6031
-50.5133
-47.6175
-49.5615
-42.1491
-43.4905
-42.664
-43.538
-38.7615
-39.4014
-37.9971
-39.2466
-39.8925
-38.8775
-39.1193
-37.8748
-38.0506
-37.8161
-37.6684
-37.5481
-37.5056
-37.7617
-37.3034
-37.4716
-95.7861
-66.4389
-90.0453
-80.5675
-70.8841
-74.2152
-78.5366
-81.178
-74.3947
-70.9227
-81.4384
-78.8082
-67.7463
-95.4578
-80.5851
-89.5783
-46.3377
-46.9384
-43.6233
-45.0257
-45.5992
-46.9728
-46.8928
-46.9897
-48.6252
-49.0929
-49.1194
-49.1758
-47.9152
-47.5866
-48.1011
-46.8895
-45.7282
-46.4993
-42.9563
-45.1762
-47.8361
-47.8409
-48.1026
-46.983
-48.7831
-49.2471
-49.2709
-49.2889
-45.6626
-47.0449
-47.0782
-46.7641
-40.7518
-39.97
-39.7429
-39.5145
-41.1045
-40.3917
-39.9043
-39.6917
-40.4852
-47.0605
-44.3962
-42.5155
-40.306
-46.887
-44.1765
-42.3492
-64.1684
-67.2664
-59.2989
-63.0304
-43.7014
-45.256
-44.7015
-45.9325
-43.7142
-45.2578
-44.6956
-45.9229
-64.1212
-67.2273
-59.3141
-63.0464
-34.8882
-32.8608
-35.1335
-32.5095
-33.4255
-35.334
-32.9151
-35.4758
-37.3804
-37.0584
-36.9703
-36.9141
-36.8695
-37.2526
-36.748
-36.863
-102.192
78.8407
-133.472
-4.84847
-97.6323
-102.59
-42.0361
-36.6018
-35.4353
-34.4966
-42.5736
-39.2969
-70.8734
44.7924
-50.3218
30.5445
-70.3891
-52.7667
-47.0099
-39.2218
-41.3695
-38.632
-46.9844
-43.9057
-133.315
-4.69622
-101.351
78.9968
-95.6678
-102.232
-35.7625
-34.9008
-42.1921
-36.9339
-42.6494
-39.4912
-50.359
30.9104
-69.9484
44.7868
-69.9094
-52.7657
-41.4722
-38.9208
-47.2494
-39.4231
-47.1652
-44.0009
-48.2795
-42.9409
-39.5189
-38.7542
-43.088
-42.4924
-41.427
-39.71
-41.8557
-47.1938
-40.8285
-38.0023
-41.2856
-42.8216
-38.9979
-40.9626
-59.7593
-65.1767
-57.6284
-58.9002
-61.4968
-75.4019
-52.9635
-88.6432
-52.2331
-55.4133
-50.8841
-50.638
-53.7568
-57.8323
-61.2147
-59.726
-47.4474
-43.0417
-41.555
-40.2067
-40.4837
-39.7703
-41.54
-41.5896
-43.9356
-51.4243
-39.5992
-42.1932
-41.9892
-38.9624
-44.4718
-44.4722
-59.2761
-65.0026
-52.9973
-88.6996
-57.2627
-58.8506
-61.7343
-75.8481
-52.4671
-55.6507
-61.3176
-60.0812
-51.1454
-50.8675
-53.9437
-58.0381
-113.397
71.8427
-83.6139
74.8981
-97.1442
-91.0609
123.885
131.318
-126.558
-26.7466
-126.687
-26.1181
-108.75
-108.837
112.335
112.21
-73.9609
-65.11
-50.9555
-49.1025
-65.8471
-54.5614
-58.8641
-51.2867
-44.147
-37.6548
-46.248
-37.649
-46.5561
-47.1566
-37.7268
-37.0816
-32.5121
-29.6291
-32.6771
-29.9424
-34.0149
-33.916
-29.2167
-29.3777
-43.7481
-41.9129
-42.135
-40.4228
-41.8196
-42.7366
-39.2916
-42.8373
-40.2019
-24.8952
-40.3376
-24.7821
-37.5798
-37.588
59.3661
59.318
-52.756
-35.3902
-46.2603
-24.5318
-49.8722
-54.8897
-23.3919
-15.6819
-40.9521
-38.0295
-40.9709
-38.062
-42.3519
-42.3586
-37.8626
-37.8438
-50.2484
-50.8498
-51.3658
-57.6601
-49.9079
-49.9099
-57.0492
-51.2643
-111.776
72.3019
-82.7474
74.9565
-96.2699
-90.6854
131.641
123.127
-66.8616
-64.908
-50.1955
-48.5886
-65.6686
-54.1875
-58.6642
-50.9976
-44.379
-37.9021
-46.5186
-37.8912
-47.358
-46.7253
-37.8901
-37.3012
-44.1118
-41.8148
-41.3034
-40.1542
-41.4913
-42.7502
-40.0054
-42.1602
-52.6134
-35.1586
-46.6835
-24.3752
-54.8583
-49.8113
-15.6844
-23.3187
-50.0221
-50.7609
-51.3758
-57.6671
-49.8344
-49.8685
-51.2205
-56.9755
-39.1336
-37.1661
-41.0286
-37.4798
-40.2778
-40.6943
-37.0618
-37.0808
-44.3614
-43.1214
-47.4934
-47.7653
-46.7654
-46.6853
-43.7265
-46.2797
-41.9699
-40.4947
-42.0065
-40.6127
-43.0986
-43.1029
-40.0072
-40.0979
-43.5352
-44.1547
-45.7675
-45.9961
-43.8452
-45.1042
-44.9466
-45.7941
-38.1752
-38.7208
-38.3391
-38.9183
-37.9693
-37.899
-38.8321
-38.9113
-58.535
-66.0943
-55.4849
-59.9053
-54.048
-55.1312
-71.5687
-67.1549
0.0763279
-31.0532
0.512171
-29.9914
12.3558
12.4079
-47.4993
-47.7581
-77.5559
-73.3695
-77.6168
-73.3769
-80.8087
-80.8364
-70.5827
-70.6089
-41.9134
-37.9825
-39.9024
-37.573
-43.5628
-40.3754
-37.5305
-37.4358
-44.0423
-43.4422
-47.2691
-47.8096
-46.0619
-46.2826
-44.2326
-46.553
-44.4774
-44.7208
-45.9277
-46.3389
-45.3909
-44.3713
-45.0468
-46.0163
-58.8361
-66.539
-55.7538
-60.0935
-55.2947
-54.1967
-67.2881
-71.7217
-70.2486
-67.1875
-64.0101
-55.309
-52.7199
-60.5929
-52.6456
-51.6931
-69.5367
-66.7913
-63.3078
-54.7697
-60.1382
-52.4486
-51.5359
-52.3485
-64.8287
-64.8636
-59.3929
-52.1026
-59.3197
-51.9914
-49.7062
-49.7466
-10.98
-10.881
-5.18226
9.72905
9.68241
-5.19525
19.8385
19.7989