# vtk DataFile Version 2.0
tet_velo
ASCII
DATASET UNSTRUCTURED_GRID
POINTS 29498 float
-0.767345 0.225 -1.715
-0.785534 0.335 1.745
-0.775 0.775 -1.61387
-0.695 1.00097 1.655
0.767345 0.225 -1.715
0.80596 0.345 1.725
0.775 0.775 -1.61387
0.695 1.00097 1.655
-0.81603 0.219045 -0.561667
-0.81586 0.261944 0.591667
-0.827729 0.929719 -0.524247
-0.797768 1.00175 0.565377
0.817075 0.228142 -0.568333
0.818554 0.279535 0.578333
0.827721 0.929711 -0.524247
0.797872 1.00185 0.565377
-1.5728 -0.170838 -2.62587
-1.57715 -0.118561 -1.72959
-1.60685 -0.109838 -0.575087
-1.59901 -0.083167 0.592411
-1.56598 -0.0263176 1.74799
-1.56037 0.0150586 2.64954
-1.56659 0.0528724 3.54108
-1.57278 0.145889 -2.5971
-1.57728 0.215443 -1.70773
-1.61668 0.235815 -0.564771
-1.59776 0.26604 0.584402
-1.54722 0.317486 1.7286
-1.5514 0.357429 2.62948
-1.56517 0.395319 3.52298
-1.57719 0.750984 -2.52246
-1.58437 0.820298 -1.63112
-1.6238 0.932053 -0.531461
-1.58294 0.989461 0.564285
-1.49605 1.00493 1.66561
-1.52886 1.04127 2.57223
-1.56337 1.08223 3.4777
-1.58754 1.7443 -2.45501
-1.59362 1.82441 -1.5724
-1.60738 1.94465 -0.493077
-1.60343 2.03178 0.573505
-1.58489 2.07262 1.6545
-1.58268 2.09941 2.54058
-1.59278 2.13248 3.43946
-0.778899 -0.166306 -2.63084
-0.772902 -0.111166 -1.73693
-0.80201 -0.115879 -0.576778
-0.80545 -0.0839078 0.596332
-0.785416 -0.0160493 1.7569
-0.785142 0.0222289 2.65453
-0.791147 0.05706 3.54257
-0.779987 0.145092 -2.5991
-0.788179 0.363999 2.63386
-0.795531 0.398779 3.5236
-0.783185 0.732388 -2.51562
-0.772107 1.04086 2.5688
-0.79997 1.083 3.47483
-0.788877 1.73251 -2.4485
-0.791413 1.81361 -1.56517
-0.80725 1.94368 -0.489288
-0.816989 2.03649 0.571436
-0.812981 2.07485 1.64842
-0.813882 2.10012 2.5343
-0.822264 2.13328 3.43412
0.790656 -0.164367 -2.63233
0.795213 -0.108666 -1.7388
0.818056 -0.107471 -0.583064
0.816731 -0.0698769 0.584681
0.806833 -0.00520161 1.74126
0.779155 0.0308375 2.64228
0.764478 0.0645898 3.53309
0.780879 0.146189 -2.59994
0.756641 0.371582 2.62198
0.748334 0.405713 3.51461
0.782653 0.733122 -2.51619
0.712812 1.04492 2.5632
0.723293 1.08844 3.46819
0.802106 1.73431 -2.44993
0.806415 1.81531 -1.56651
0.796711 1.94573 -0.490907
0.762786 2.03912 0.569308
0.728316 2.07807 1.64556
0.718421 2.10406 2.53046
0.71631 2.13792 3.42942
1.58282 -0.166098 -2.62952
1.58964 -0.1124 -1.73426
1.61957 -0.0958025 -0.585771
1.61716 -0.0612921 0.573794
1.59262 -0.00654202 1.72411
1.56466 0.0316814 2.62826
1.54808 0.0677338 3.5232
1.57273 0.149195 -2.59964
1.57504 0.21898 -1.71039
1.61883 0.247865 -0.573772
1.61042 0.287176 0.567239
1.57085 0.335539 1.70546
1.54052 0.372431 2.6093
1.5296 0.409162 3.506
1.57483 0.753338 -2.52429
1.58061 0.821835 -1.63229
1.62213 0.936415 -0.534721
1.58611 0.997698 0.557974
1.49766 1.01363 1.65678
1.49046 1.05126 2.56015
1.49897 1.09351 3.46455
1.59654 1.74832 -2.45819
1.60189 1.82836 -1.57553
1.59515 1.94945 -0.496891
1.55743 2.03787 0.568517
1.51232 2.0799 1.64801
1.4961 2.10783 2.53247
1.49315 2.14201 3.42991
-0.804336 0.5 -1.6976
0 0.222452 -1.71755
-0.772468 0.241241 -1.13833
-0.771846 0.667985 1.73158
0.010213 0.291912 1.78309
-0.784215 0.314954 1.16833
0 0.854754 -1.69362
-0.829451 0.880446 -1.06906
0 1.08818 1.74221
-0.765686 1.02066 1.11019
0.804311 0.5 -1.69757
0.776255 0.242526 -1.14167
0.778289 0.672985 1.71781
0.799816 0.324708 1.15167
0.82943 0.880425 -1.06906
0.76568 1.02065 1.11019
-0.815962 0.240478 0.015
-0.859828 0.574382 -0.542957
0.000522657 0.19755 -0.565
-0.86263 0.631846 0.578522
0.00134686 0.244047 0.585
-0.811894 0.964879 0.020565
-4.24103e-06 1.39345 -0.524247
5.23253e-05 1.52696 0.565377
0.817828 0.253825 0.005
0.860269 0.578926 -0.54629
0.863057 0.640693 0.571855
0.811884 0.964869 0.020565
-0.874424 0.537191 -1.1037
-0.861462 0.603114 0.0177825
-0.884557 0.649916 1.13926
0.000261328 0.214745 -1.14
0.000934758 0.204533 0.00999999
0.00577992 0.28091 1.16
0 0.5 -1.94126
0.00510649 0.670485 1.84771
-2.12051e-06 0.988731 -1.06906
2.40421e-05 1.5191 0.020565
2.61627e-05 1.513 1.11019
0.875341 0.539463 -1.10536
0.861956 0.60981 0.0127825
0.883211 0.656839 1.13093
-1.17231 0.220222 -1.71137
-0.770124 0.056917 -1.72596
-0.773666 0.185046 -2.15705
-1.16638 0.326243 1.7368
-0.785475 0.159475 1.75095
-0.786857 0.349499 2.18943
-1.17968 0.797649 -1.62249
-0.779092 0.753694 -2.06475
-0.783206 1.29431 -1.58952
-1.09553 1.00295 1.6603
-0.733554 1.02091 2.1119
-0.75399 1.53791 1.65171
0.781279 0.0581669 -1.7269
0.774112 0.185594 -2.15747
1.17119 0.22199 -1.7127
0.806397 0.169899 1.73313
0.7813 0.358291 2.17349
1.18841 0.340269 1.71523
0.778827 0.754061 -2.06503
0.790708 1.29516 -1.59019
1.1778 0.798417 -1.62308
0.703906 1.02295 2.1091
0.711658 1.53952 1.65028
1.09633 1.0073 1.65589
-1.21635 0.22743 -0.563219
-0.80902 0.051583 -0.569223
-1.20681 0.263992 0.588034
-0.810655 0.0890183 0.593999
-1.22576 0.930886 -0.527854
-0.81749 1.4367 -0.506767
-1.19035 0.995604 0.564831
-0.807378 1.51912 0.568406
0.817565 0.0603354 -0.575699
1.21795 0.238004 -0.571053
0.817642 0.104829 0.581507
1.21449 0.283355 0.572786
0.812216 1.43772 -0.507577
1.22493 0.933063 -0.529484
0.780329 1.52049 0.567342
1.19199 0.999775 0.561676
-1.57498 -0.1447 -2.17773
-1.57279 -0.0124747 -2.61149
-1.17585 -0.168572 -2.62835
-1.592 -0.1142 -1.15234
-1.57722 0.0484411 -1.71866
-1.17503 -0.114864 -1.73326
-1.60293 -0.0965024 0.00866202
-1.61176 0.0629886 -0.569929
-1.20443 -0.112858 -0.575933
-1.5825 -0.0547423 1.1702
-1.59838 0.0914365 0.588407
-1.20223 -0.0835374 0.594372
-1.56318 -0.00562954 2.19876
-1.5566 0.145584 1.73829
-1.1757 -0.0211835 1.75244
-1.56348 0.0339655 3.09531
-1.55589 0.186244 2.63951
-1.17275 0.0186437 2.65203
-1.56588 0.224096 3.53203
-1.17887 0.0549662 3.54182
-1.57503 0.180666 -2.15242
-1.57498 0.448436 -2.55978
-1.17638 0.14549 -2.5981
-1.59698 0.225629 -1.13625
-1.58083 0.517871 -1.66943
-1.60722 0.250928 0.0098153
-1.62024 0.583934 -0.548116
-1.57249 0.291763 1.1565
-1.59035 0.627751 0.574344
-1.54931 0.337457 2.17904
-1.52163 0.661206 1.6971
-1.55829 0.376374 3.07623
-1.54013 0.699351 2.60086
-1.16979 0.360714 2.63167
-1.56427 0.738775 3.50034
-1.18035 0.397049 3.52329
-1.58078 0.785641 -2.07679
-1.58236 1.24764 -2.48874
-1.18019 0.741686 -2.51904
-1.60408 0.876175 -1.08129
-1.589 1.32235 -1.60176
-1.60337 0.960757 0.0164123
-1.61559 1.43835 -0.512269
-1.5395 0.997194 1.11495
-1.59319 1.51062 0.568895
-1.51246 1.0231 2.11892
-1.54047 1.53877 1.66005
-1.54612 1.06175 3.02497
-1.55577 1.57034 2.55641
-1.15049 1.04107 2.57052
-1.57807 1.60735 3.45858
-1.18167 1.08261 3.47627
-1.59058 1.78435 -2.01371
-1.18821 1.73841 -2.45176
-1.6005 1.88453 -1.03274
-1.19252 1.81901 -1.56879
-1.60541 1.98821 0.0402139
-1.20732 1.94416 -0.491183
-1.59416 2.0522 1.114
-1.21021 2.03413 0.57247
-1.58378 2.08602 2.09754
-1.19893 2.07373 1.65146
-1.58773 2.11594 2.99002
-1.19828 2.09976 2.53744
-1.20752 2.13288 3.43679
-0.775901 -0.138736 -2.18388
-0.779443 -0.0106069 -2.61497
0.00587865 -0.165336 -2.63158
-0.787456 -0.113522 -1.15685
0.0111552 -0.109916 -1.73786
-0.80373 -0.0998934 0.00977659
0.00802296 -0.111675 -0.579921
-0.795433 -0.0499786 1.17661
0.0056405 -0.0768923 0.590506
-0.785279 0.00308977 2.20571
0.0107088 -0.0106255 1.74908
-0.788144 0.0396444 3.09855
-0.78666 0.193114 2.6442
-0.00299341 0.0265332 2.6484
-0.793339 0.22792 3.53308
-0.0133344 0.0608249 3.53783
-0.781586 0.43874 -2.55736
0.000445901 0.14564 -2.59952
-0.791855 0.381389 3.07873
-0.780143 0.702429 2.60133
-0.0157692 0.36779 2.62792
-0.79775 0.740889 3.49921
-0.0235989 0.402246 3.5191
-0.786031 1.23245 -2.48206
-0.0002659 0.732755 -2.51591
-0.786038 1.06193 3.02182
-0.792995 1.57049 2.55155
-0.0296476 1.04289 2.566
-0.811117 1.60814 3.45448
-0.0383382 1.08572 3.47151
-0.790145 1.77306 -2.00684
0.00661436 1.73341 -2.44921
-0.799331 1.87864 -1.02723
0.00750115 1.81446 -1.56584
-0.812119 1.99008 0.0410737
-0.0052696 1.9447 -0.490097
-0.814985 2.05567 1.10993
-0.0271013 2.0378 0.570372
-0.813432 2.08748 2.09136
-0.0423322 2.07646 1.64699
-0.818073 2.1167 2.98421
-0.0477307 2.10209 2.53238
-0.0529772 2.1356 3.43177
0.792934 -0.136517 -2.18556
0.785768 -0.00908923 -2.61613
1.18674 -0.165233 -2.63093
0.806634 -0.108069 -1.16093
1.19243 -0.110533 -1.73653
0.817393 -0.0886739 0.000808624
1.21881 -0.101637 -0.584417
0.811782 -0.0375393 1.16297
1.21694 -0.0655845 0.579237
0.792994 0.0128179 2.19177
1.19973 -0.00587182 1.73269
0.771817 0.0477136 3.08768
0.767898 0.20121 2.63213
1.17191 0.0312594 2.63527
0.756406 0.235151 3.52385
1.15628 0.0661618 3.52814
0.781766 0.439655 -2.55807
1.1768 0.147692 -2.59979
0.752487 0.388647 3.06829
0.734726 0.708253 2.59259
1.14858 0.372006 2.61564
0.735813 0.747074 3.4914
1.13896 0.407438 3.5103
0.792379 1.23372 -2.48306
1.17874 0.74323 -2.52024
0.718053 1.06668 3.0157
0.715617 1.57449 2.54683
1.10164 1.04809 2.56168
0.719801 1.61318 3.44881
1.11113 1.09097 3.46637
0.804261 1.77481 -2.00822
1.19932 1.74131 -2.45406
0.801563 1.88052 -1.02871
1.20415 1.82184 -1.57102
0.779748 1.99243 0.0392004
1.19593 1.94759 -0.493899
0.745551 2.0586 1.10743
1.16011 2.03849 0.568912
0.723369 2.09107 2.08801
1.12032 2.07898 1.64679
0.717365 2.12099 2.97994
1.10726 2.10594 2.53147
1.10473 2.13996 3.42966
1.58623 -0.139249 -2.18189
1.57777 -0.00845159 -2.61458
1.6046 -0.104101 -1.16001
1.58234 0.0532898 -1.72232
1.61836 -0.0785473 -0.00598864
1.6192 0.0760315 -0.579772
1.60489 -0.0339171 1.14895
1.61379 0.112942 0.570517
1.57864 0.0125697 2.17619
1.58174 0.164498 1.71478
1.55637 0.0497076 3.07573
1.55259 0.202056 2.61878
1.53884 0.238448 3.5146
1.57388 0.184087 -2.15502
1.57378 0.451267 -2.56197
1.59693 0.233423 -1.14208
1.57782 0.520407 -1.67134
1.61462 0.267521 -0.00326636
1.62048 0.59214 -0.554247
1.59064 0.311357 1.13635
1.59827 0.642437 0.562607
1.55569 0.353985 2.15738
1.53426 0.674583 1.68112
1.53506 0.390796 3.05765
1.51549 0.711847 2.58472
1.51429 0.751335 3.48528
1.57772 0.787587 -2.07829
1.58569 1.25083 -2.49124
1.60137 0.879125 -1.08351
1.59125 1.3251 -1.60391
1.60412 0.967056 0.0116265
1.60864 1.44293 -0.515806
[...]
POINT_DATA 29498
VECTORS point_vectors float
-2.99042 -5.13111 11.9583
0.137393 0.248047 1.83802
-0.801599 0.47023 1.15134
-0.048417 -0.0655048 0.029552
3.01149 -5.19228 12.0418
-0.303708 0.411533 1.93375
0.805348 0.46863 1.15768
0.0444895 -0.0679513 0.0370177
0.058478 0.0149612 2.17932
0.0177289 -0.00470802 0.940142
0.022434 0.0495262 0.336008
0 0 0
-0.0530906 0.0224217 2.11174
-0.00362758 0.00197924 0.771541
-0.0221447 0.0501399 0.339879
2.46456e-17 -4.56049e-17 -1.42395e-16
-0.720273 -0.430127 19.9699
-1.13851 -0.756343 20.6613
-0.440619 -0.525601 21.4085
0.0911142 -0.270264 21.5902
0.575959 -0.0309022 21.5856
0.878551 0.1307 21.2681
1.03791 0.161955 21.1144
-0.890724 -0.353696 19.8562
-1.58437 -0.717781 20.6057
-0.602841 -0.607877 21.5085
0.0622067 -0.41032 21.6541
0.667193 -0.25323 21.6966
1.02503 -0.166767 21.4504
1.19918 -0.261907 21.3008
-1.06373 -0.0229473 19.7208
-1.97576 -0.080437 20.5029
-1.32411 -0.437495 21.4788
-0.468972 -0.531958 21.7635
0.211028 -0.66424 21.7023
0.630407 -0.691481 21.4605
1.04261 -0.820909 20.9504
-0.705871 0.384955 19.9636
-1.10326 0.564212 20.3949
-1.04099 0.42241 21.1461
-0.539686 0.0703444 21.5118
-0.151068 -0.209746 21.4585
0.0795877 -0.388035 21.3037
0.206128 -0.394864 21.1857
-0.77963 -1.01242 19.2851
-1.69393 -3.13853 21.0753
-0.209341 -0.470513 21.9681
0.3756 0.209591 21.0887
0.881729 1.00174 20.0704
1.35432 1.45412 20.2027
1.69167 1.73377 19.6488
-1.13353 -0.939147 18.6831
1.69966 0.912832 11.7802
2.3559 1.36412 15.4885
-1.57508 0.235176 17.9944
-0.0598133 -0.822988 4.31656
1.35562 -1.04397 10.1733
-0.70171 0.941591 19.4277
-1.31229 1.76117 19.8969
-1.70348 1.92169 21.342
-0.693591 0.540151 21.9754
-0.254965 -0.0942714 21.6723
-0.0615349 -0.407141 21.5462
0.103864 -0.707581 21.3349
0.783724 -0.998495 19.296
1.74769 -3.05595 21.0336
0.205924 -0.454348 21.9195
-0.362937 0.212162 20.9972
-0.877367 1.00932 20.3558
-1.31266 1.54134 20.0673
-1.66119 1.81666 19.5376
1.13958 -0.932435 18.6872
-1.61917 1.08293 10.8547
-2.37649 1.58284 14.8177
1.5759 0.236792 17.9973
0.00561397 -0.699142 3.48874
-1.35967 -0.984327 8.35891
0.708648 0.929741 19.4427
1.32031 1.73127 19.9109
1.7113 1.9513 21.3446
0.702796 0.577602 22.0207
0.266005 -0.116488 21.7049
0.110417 -0.454969 21.6276
-0.06949 -0.751977 21.2687
0.720982 -0.427506 19.9697
1.13997 -0.751364 20.6581
0.455807 -0.535583 21.4069
-0.070946 -0.274945 21.5969
-0.568374 -0.0266307 21.6047
-0.878908 0.155686 21.2749
-1.02095 0.164305 21.0811
0.890412 -0.351631 19.8587
1.59549 -0.718044 20.6062
0.615103 -0.606203 21.5135
-0.0362032 -0.412752 21.6692
-0.647364 -0.249479 21.7004
-1.07656 -0.150939 21.4407
-1.22671 -0.193967 21.2487
1.06494 -0.022304 19.7209
1.98409 -0.0783308 20.503
1.33222 -0.435135 21.4849
0.468015 -0.527843 21.7853
-0.243631 -0.655237 21.7296
-0.674456 -0.748938 21.5463
-1.07811 -0.828922 21.0397
0.701719 0.377119 19.9722
1.09361 0.556809 20.3987
1.05363 0.429875 21.1553
0.559706 0.0703684 21.5246
0.151128 -0.230906 21.4845
-0.0860731 -0.421735 21.3406
-0.209584 -0.454739 21.1842
-0.77895 -0.112162 0.966456
4.08188e-05 -0.0275862 0.133001
-0.000748229 -0.00106393 0.229867
0 0 0
0.00442203 0.0204865 0.11717
0.0365062 0.0216994 0.559855
-2.88283e-05 0.156932 0.318705
-0.192697 -0.259954 0.598438
0.0142064 0.00324062 -0.0118066
0 0 0
0.74265 -0.107918 0.922173
0.00379722 -0.000273149 0.412563
0 0 0
-0.053029 -0.0103121 0.660532
0.19344 -0.261861 0.600301
0 0 0
0.0287861 0.0288554 1.97918
0.000434266 0.00105111 0.0334991
0 0 0
-1.58075e-06 0.00272821 0.0153789
0.000353338 0.00115936 0.0153752
0 0 0
0.000132361 0.108977 0.151375
-2.23445e-06 8.17016e-06 0.00147376
0.00408893 0.0361339 1.29727
-0.000459913 0.000537477 0.034061
2.33609e-06 0.000897007 0.00505701
0 0 0
0 0 0
1.34768e-06 0.0011642 0.00732422
-0.00889168 0.0222529 0.194725
0 0 0
-1.60058e-05 0.000130708 0.0109035
0 0 0
-0.000255324 -0.0162086 0.105097
0 0 0
0 0 0
3.6873e-05 0.000243367 0.00403707
0.000409132 -0.000737089 0.01532
0 0 0
-9.12096e-06 0.000899645 0.00415521
0.00908919 0.0258565 0.214496
-2.95634 -1.76635 20.7455
-2.6977 -4.89756 21.5903
-2.72485 -2.53426 17.7529
1.18126 -0.0806671 20.652
0.905991 1.00194 14.5067
1.06784 0.553756 8.08469
-3.99634 0.217271 20.4431
-4.08944 1.53519 16.3224
-2.82869 2.76899 19.4972
0.422756 -0.573385 17.6474
-0.891155 -0.90827 1.84396
0.0232698 -0.125703 16.0509
2.74255 -4.79368 21.5567
2.73411 -2.52535 17.7585
2.96956 -1.77068 20.7401
-0.916295 1.01253 14.7542
-1.04695 0.685135 7.64794
-1.18182 -0.0952935 21.0345
4.09024 1.53769 16.3277
2.83102 2.72952 19.5159
4.0126 0.229296 20.4439
0.902107 -0.907545 1.77962
-0.0839176 -0.240918 14.4422
-0.498356 -0.587119 17.8559
-0.425425 -0.967838 21.9832
0.0672251 -0.0897478 18.6266
0.347247 -0.502652 21.476
0.618575 0.194657 15.6162
-2.25278 -1.22463 21.9533
-4.78582 2.29418 21.7963
-0.71303 -1.10171 21.1146
-1.03188 0.313301 20.2033
-0.0711644 -0.0757025 18.4682
0.452425 -0.981713 22.019
-0.516611 0.16374 14.9828
-0.334014 -0.5181 21.563
4.83433 2.33988 21.7947
2.27266 -1.2242 21.9647
0.947329 0.339933 19.6081
0.718827 -1.09078 21.1647
-1.01643 -0.631664 20.2053
-0.827987 -0.410635 19.9076
-0.844418 -0.689102 19.6501
-0.831899 -0.690258 21.1983
-1.3251 -0.755864 20.6447
-1.55859 -1.52065 20.7493
-0.145874 -0.387636 21.5454
-0.538581 -0.551472 21.4432
-0.305618 -0.63375 21.7233
0.330416 -0.152989 21.6111
0.0760311 -0.323674 21.6035
0.294975 -0.182736 21.788
0.758667 0.0430819 21.5035
0.643032 -0.133873 21.6379
0.915382 0.251251 21.6977
1.0692 0.166796 21.1972
0.994343 -0.0134002 21.3674
1.31013 0.524975 21.4062
1.11854 -0.049976 21.2076
1.52543 0.779215 21.1629
-1.33246 -0.554721 20.0741
-1.02344 -0.214695 19.751
-1.09602 -0.628153 19.4028
-1.1411 -0.722665 21.2745
-1.82444 -0.449841 20.5926
-0.226718 -0.51702 21.6168
-0.915094 -0.642175 21.5203
0.326951 -0.336076 21.6933
-0.152669 -0.55577 21.7233
0.897234 -0.215773 21.5802
0.541987 -0.519747 21.7787
1.24332 -0.185397 21.299
0.891112 -0.463084 21.4613
1.72536 0.0694986 20.1141
1.18661 -0.539358 21.2068
2.01926 0.162288 20.1367
-1.67561 -0.00731506 19.9542
-0.931508 0.292053 19.7943
-1.45483 0.0621435 19.0733
-1.71092 -0.292285 21.1341
-1.58572 0.428937 20.3907
-0.893762 -0.526446 21.7112
-1.3984 0.139177 21.3153
-0.102029 -0.570497 21.7711
-0.666067 -0.166628 21.6839
0.40928 -0.681136 21.6065
-0.10577 -0.40046 21.5955
0.842084 -0.801848 21.6838
0.191465 -0.507362 21.3143
0.756224 -0.930705 19.311
0.452185 -0.667424 21.4977
1.33886 -1.02113 19.4787
-0.933364 0.493791 20.1292
-0.806805 0.633681 19.6958
-1.15289 0.536741 20.7824
-1.31554 1.0541 20.1951
-0.819898 0.254874 21.4105
-1.44508 0.923082 21.2605
-0.326302 -0.0873053 21.5292
-0.674301 0.229498 21.7295
-0.0365853 -0.293557 21.4799
-0.214865 -0.181543 21.5864
0.209845 -0.482787 21.4653
0.0215792 -0.408195 21.4085
0.193442 -0.586369 21.3287
-1.38192 -2.11386 19.3609
-0.975517 -1.04654 18.9918
0.00537704 -1.44619 18.8026
-0.719231 -1.33819 22.228
0.0286853 -4.36746 21.6993
0.115745 -0.0367076 21.5484
0.0152741 -0.734382 21.5402
0.67308 0.618721 20.3901
0.000683971 0.189734 18.5997
1.09552 1.27749 20.1566
0.037525 0.78622 16.6031
1.56321 1.72771 20.1961
1.56167 1.46497 16.3009
0.0569316 1.49038 16.9012
2.05901 1.66724 16.1173
0.0270926 2.4005 17.3364
-1.45316 -0.493744 18.1565
0.00343379 -1.40436 17.7219
2.18947 1.34195 14.064
1.00333 -0.567436 6.22964
0.098857 0.525585 3.9701
2.70329 -0.0660165 10.6517
0.0237321 2.22553 6.3701
-1.17729 1.00081 18.7307
0.000794096 0.513864 16.3669
0.198848 -0.795088 6.30229
0.103784 -0.597047 17.6669
-0.269742 0.912093 -3.93872
0.450944 -1.2589 19.0383
-0.481067 2.99951 -5.41078
-1.01857 1.39345 19.5566
0.010432 1.3154 19.0771
-1.64033 1.99106 20.4302
0.0183883 2.65272 19.4542
-1.1956 1.18721 21.9852
-0.0126463 3.89012 21.4134
-0.404662 0.131841 21.8422
-0.0228668 1.02922 22.2778
-0.163091 -0.227614 21.6138
0.00745845 0.171897 21.838
0.0817311 -0.57838 21.3301
0.0336726 -0.200571 22.007
0.0689073 -0.627991 21.5638
1.39868 -2.062 19.3808
0.978243 -1.02942 19.004
0.854558 -0.682618 19.6445
0.738781 -1.32864 22.2187
1.56993 -1.47864 20.7348
-0.107906 -0.0437726 21.4492
0.327001 -0.638916 21.7157
-0.680531 0.622239 20.3726
-0.279429 -0.186965 21.8026
-1.09516 1.33102 20.174
-0.903732 0.247305 21.7259
-1.54604 1.80876 20.0306
-1.51586 1.63434 16.024
-1.32901 0.572588 21.3874
-2.06081 1.80421 16.0919
-1.55658 0.812329 21.1644
1.45715 -0.489104 18.1603
1.10023 -0.625953 19.4062
-2.21402 1.53352 12.9937
-0.953752 -0.392607 4.90845
-1.817 0.153829 19.9292
-2.71533 0.257248 9.75439
-2.13589 0.218713 20.0062
1.18159 0.991459 18.75
1.45535 0.0648102 19.0737
-0.197646 -0.842832 4.95113
-0.106916 -0.743948 16.9773
-0.910895 -0.906949 18.672
-0.444529 -1.32535 17.9768
-1.43418 -1.07017 19.0786
1.02332 1.37339 19.5699
0.806274 0.626432 19.7081
1.64057 1.98072 20.4336
1.30859 1.03019 20.208
1.20273 1.24368 22.0249
1.45544 0.942587 21.2649
0.413887 0.13676 21.8829
0.690849 0.260585 21.7702
0.194505 -0.255603 21.6636
0.223451 -0.196576 21.6277
-0.00855732 -0.65613 21.5503
-0.0104611 -0.459815 21.4461
-0.203339 -0.720149 21.4214
1.01907 -0.626306 20.2047
0.822756 -0.406263 19.9158
0.849752 -0.689731 21.1909
1.32504 -0.746459 20.6438
0.164895 -0.399468 21.5514
0.552035 -0.548051 21.4384
-0.31894 -0.152775 21.628
-0.0580855 -0.325087 21.6158
-0.751583 0.0609668 21.5066
-0.636918 -0.12652 21.6522
-1.09884 0.14533 21.2404
-1.02887 -0.0157658 21.378
-1.12383 -0.0148309 21.1649
1.33638 -0.551075 20.0734
1.02938 -0.214081 19.7487
1.1548 -0.722568 21.2781
1.83581 -0.450764 20.5917
0.251557 -0.518183 21.6233
0.92928 -0.639113 21.5199
-0.313247 -0.334088 21.7129
0.165598 -0.550306 21.7368
-0.923934 -0.198157 21.5824
-0.551843 -0.500592 21.802
-1.30345 -0.212305 21.357
-0.970257 -0.47249 21.477
-1.26636 -0.502513 21.1902
1.68122 -0.00493694 19.9557
0.92642 0.29067 19.8026
1.72032 -0.290035 21.1394
1.58105 0.427451 20.3948
0.900663 -0.522426 21.7232
1.41262 0.144196 21.3254
0.0971663 -0.569058 21.792
0.684529 -0.170533 21.7106
-0.473876 -0.703465 21.6294
0.0929313 -0.420738 21.626
-0.872205 -0.877366 21.6668
-0.216003 -0.55919 21.3832
-0.440876 -0.66559 21.4139
0.927939 0.487084 20.1365
1.15387 0.538088 20.7844
0.844156 0.264991 21.4276
0.346766 -0.106565 21.5573
0.0326334 -0.321614 21.5216
-0.211186 -0.51688 21.4213
-1.16134 -0.623212 20.1507
-1.98732 -2.48097 18.7479
-1.33861 -1.1825 19.8922
-2.03902 -1.13678 19.4455
-0.967872 -0.664974 19.5212
-2.18072 -1.74515 20.784
-0.977605 -0.702328 21.2231
-0.523454 -0.816698 20.2745
-0.878386 -1.0794 21.5973
-1.3843 -1.36863 21.9678
-0.340408 -0.770789 21.8379
-0.192242 -0.438553 21.5763
0.413733 0.163468 16.6224
0.048838 -0.370746 21.755
0.061939 -0.698547 21.6383
0.367502 -0.337137 21.7273
0.344326 -0.226426 21.6576
0.959968 0.723477 14.0889
0.598123 0.00750328 21.7766
0.676256 -0.360986 21.062
1.09846 0.104851 21.5164
0.848867 -0.0511809 21.5232
1.21538 1.25656 15.1966
1.14159 0.375214 21.5468
1.52361 -0.0514552 20.8478
1.53423 0.361992 21.2565
1.15626 -0.0093002 21.2481
1.93577 1.72408 16.8012
1.35282 0.514281 21.2272
1.89667 0.134357 20.3061
1.78319 0.439208 20.734
-1.57191 -0.314782 20.0002
-4.13781 -1.05483 16.0513
-2.78761 0.278531 19.0566
-1.35121 -0.316767 19.1372
-4.0079 -0.99124 20.6612
-1.42452 -0.590511 21.2679
-2.84281 -0.726983 21.6002
-0.943654 -1.36141 22.0684
-0.49436 -0.622287 21.6686
-1.38517 -1.3098 21.8861
0.168315 -0.852525 20.8357
0.178863 -0.519754 21.7593
-0.102204 -0.701382 19.5581
1.06919 -0.315439 18.886
0.773536 -0.513234 21.6615
0.0620876 -1.33349 2.99138
0.448276 -0.843542 19.0535
1.5373 -0.561892 19.5255
1.13713 -0.512731 21.4817
1.7312 -0.111716 8.75978
1.155 -0.885102 19.1083
1.79902 -0.379935 20.3498
-1.30268 0.403267 19.9908
-2.01534 1.99941 18.6698
-1.07576 0.895044 19.8828
-1.16101 0.536432 19.3568
-2.35642 1.11846 20.1051
-1.61527 0.290213 20.8913
-3.61053 2.41365 20.1454
-1.49872 1.08258 20.6924
-2.45318 0.480596 21.5634
-1.05686 -0.0231012 21.599
-2.66439 0.810243 22.6706
-1.07915 0.573792 21.6611
-1.00045 -0.096509 22.0405
-0.350385 -0.295517 21.6704
-0.210987 0.0761128 17.7529
-0.397741 -0.0174541 21.6899
-0.317345 -0.485368 21.8118
0.0557102 -0.476268 21.493
-0.0343481 -0.253673 16.929
-0.105299 -0.296868 21.4947
0.0953297 -0.683202 21.5927
0.391628 -0.604047 21.2974
0.200381 -1.03612 18.5411
0.167032 -0.493194 21.1562
0.478232 -0.994604 21.183
1.99427 -2.44157 18.7796
0.0207557 -3.35646 18.8084
0.00449493 -5.12841 15.2902
0.00573405 -1.56179 18.3059
0.0195264 -6.29246 23.5399
0.529442 -0.835216 20.4221
0.0219622 -1.74512 22.6331
0.0204935 -0.24187 12.6399
-0.363733 0.149859 16.0547
0.0046854 -0.178108 19.5663
-0.0111917 0.358614 9.47858
-0.992475 0.61342 13.7819
0.0242793 0.466296 17.0491
0.063048 0.557441 8.8713
-1.17181 1.35749 14.9726
0.0521535 1.12897 16.85
0.138439 -0.18963 2.27821
0.105467 1.10266 9.92263
-1.93684 1.89771 16.8007
0.0351955 1.86381 17.2805
0.0432783 0.963938 4.92964
0.0254124 2.31302 11.8532
4.1403 -1.04847 16.0587
0.000583814 4.37818 11.7906
0.00244061 -0.700645 16.7095
0.0325665 -1.221 2.62737
-0.0432878 -0.085624 -2.75678
-0.106346 0.229422 -1.0819
-1.76668 0.0655248 7.58198
-0.470811 2.00169 -4.54228
-0.00675537 2.67084 -0.578094
2.01209 1.97629 18.6909
0.0174223 2.05671 19.1628
0.00848425 1.57272 17.914
0.0188088 4.53958 18.6695
3.60426 2.40481 20.1506
0.00760206 3.42861 19.859
-0.0163577 9.20332 20.0851
2.64407 0.826714 22.4305
-0.030639 2.23197 22.5045
0.0220915 0.351221 10.6836
0.0864979 0.0781669 16.4802
-0.005281 0.420588 22.0526
0.227863 0.398703 3.00513
0.0687482 -0.379026 15.848
0.0381195 0.0360463 21.8272
0.320128 -0.000879016 3.72606
-0.288178 -1.11172 18.1953
0.0314331 -0.444376 21.8329
0.0782131 -0.957826 7.24118
1.15793 -0.616209 20.1551
1.33873 -1.15904 19.8925
2.04485 -1.13391 19.4438
0.972881 -0.662108 19.5229
2.18497 -1.72939 20.7776
0.987865 -0.698188 21.217
0.905359 -1.07224 21.5825
1.40009 -1.37203 21.9819
0.361783 -0.783828 21.837
0.206079 -0.437104 21.5871
-0.0236246 -0.384806 21.7552
-0.033089 -0.710418 21.6435
-0.344668 -0.353166 21.7789
-0.332747 -0.226352 21.6742
-0.5713 -0.00977106 21.8083
-0.642833 -0.373743 21.2349
-1.08842 0.0965311 21.6287
-0.8572 -0.0461243 21.542
-1.15821 0.408735 21.5709
-1.58799 -0.0103395 20.8703
-1.58792 0.432404 21.0971
-1.20116 -0.0372424 21.3017
-1.37319 0.560214 21.225
-2.02135 0.225817 20.1397
-1.85284 0.497876 20.6575
1.57886 -0.315909 19.9976
2.79249 0.282815 19.056
1.35385 -0.311729 19.1402
4.01922 -0.986553 20.6611
1.43701 -0.588416 21.2703
2.85466 -0.725621 21.6017
0.967713 -1.36725 22.0892
0.512905 -0.619779 21.6783
1.40121 -1.29835 21.9066
-0.151492 -0.865236 20.9174
-0.174331 -0.505345 21.7787
0.0976504 -0.729635 19.7232
-1.10984 -0.323028 19.2382
-0.817148 -0.500424 21.674
-0.552583 -0.780543 18.5228
-1.6433 -0.473267 18.8354
-1.21196 -0.581611 21.5
-1.29319 -0.877167 18.8697
-1.96438 -0.412678 19.7345
1.29844 0.402501 19.9985
1.07239 0.878315 19.8978
1.15903 0.53382 19.3641
2.34048 1.10463 20.109
1.6199 0.294801 20.8939
1.49786 1.08061 20.6943
2.48061 0.498109 21.5682
1.0767 -0.0171474 21.6187
1.09553 0.612731 21.6878
1.02813 -0.0821905 22.0897
0.360256 -0.313114 21.7087
0.408953 -0.00914235 21.7339
0.303571 -0.513915 21.8556
-0.0758614 -0.509018 21.5264
0.11628 -0.33113 21.5352
-0.105707 -0.767949 21.581
-0.425909 -0.669353 21.3125
-0.147439 -0.524985 21.0774
-0.543995 -1.16078 21.1221
-1.68167 -1.20288 19.674
-1.09451 -1.23914 21.7567
0.0928715 -0.524525 21.8088
0.708245 -0.158966 21.6098
1.3772 0.231529 21.4305
1.65115 0.370484 21.0695
-2.67608 -0.568401 19.0871
-2.08052 -1.26114 22.1505
-0.223646 -1.12953 21.2942
0.427578 -0.478744 19.9504
1.31169 -0.558755 19.6842
1.72867 -0.468541 20.2067
-1.78623 0.963574 19.5055
-2.55227 0.819037 20.8171
-1.70746 0.137022 22.0511
-0.563793 -0.310793 21.9621
-0.15883 -0.56193 21.7514
0.375506 -0.829792 21.6128
0.0189589 -4.31796 17.6384
0.0170499 -0.881417 15.5517
-0.00426322 0.0570778 10.3608
0.0617648 0.396099 8.58613
0.0903496 0.740993 8.80393
0.08857 1.30884 10.4231
0.00191813 -1.66623 10.995
0.0708239 -0.984755 0.0591732
-0.279864 0.306898 -1.79663
0.017603 3.44746 17.6557
0.00791094 5.31449 18.0979
-0.00464144 1.09634 12.0257
0.0599641 -0.0750153 8.45752
0.233832 0.610349 3.40923
0.178738 -0.090898 5.11016
1.68241 -1.19008 19.6795
1.1185 -1.23845 21.7533
-0.0611523 -0.539291 21.8109
-0.675981 -0.176321 21.6746
-1.40011 0.263903 21.4431
-1.7747 0.469245 20.9042
2.67859 -0.56219 19.0877
2.09409 -1.26263 22.1561
0.248041 -1.13192 21.3068
-0.427779 -0.5017 20.1759
-1.39949 -0.494796 19.3323
-1.84479 -0.388493 19.6303
1.77607 0.952164 19.515
2.55202 0.823301 20.8153
1.74459 0.163771 22.0853
0.574734 -0.317225 22.0218
0.152538 -0.621649 21.8217
-0.41755 -0.954857 21.6831
-2.11743 -0.811457 2.50048
-0.00627151 -0.0660276 0.307634
-0.0750854 -0.00891561 1.71312
0.0197473 -0.0198487 0.0412331
0.00332649 0.0432778 0.267897
0.0114467 0.0397887 0.913734
-0.800663 0.0272155 0.92631
-0.000851812 0.116119 0.218379
-0.110737 3.78233e-05 0.310857
-0.00362972 -0.0250066 0.00856522
-1.24859e-17 -3.20316e-19 -3.03713e-18
0 0 0
0.00656028 -0.0653661 0.307322
2.10979 -0.809859 2.49876
0.0793078 -0.0123694 1.72872
0.00119711 0.152423 0.605336
-0.0683404 -0.0665447 0.153132
1.95077e-05 0.0155822 0.306133
0.00101948 0.116283 0.218981
0.75706 0.0102971 0.878909
0.11011 0.000140932 0.309453
0 0 0
0.0075205 -0.0550598 0.0216996
0 0 0
-0.279869 -0.28277 2.97769
0.0623813 0.000165267 1.92572
0 0 0
0 0 0
0 0 0
0.0242503 0.0172862 1.75086
6.37158e-06 0.000253238 0.0038015
0 0 0
-0.327362 -0.278999 0.855051
0.000507757 0.0105123 0.0827608
0.00607968 0.012006 0.027891
-0.266172 0.193007 0.386063
0 0 0
0.000812844 0.00686045 0.0237943
0 0 0
0.0405871 0.0235356 0.428181
0.48749 -0.208287 6.53707
0 0 0
-0.0363886 0.015503 1.80831
0 0 0
-0.00841235 -0.0868192 0.877534
-0.00176476 0.000214787 0.0173606
-0.00351602 0.00796369 0.472554
-2.15052e-05 0.00061183 0.0088423
0.32514 -0.27796 0.851043
0.266625 0.194148 0.387863
-0.000529145 0.0111134 0.0860099
-0.00601233 0.0118539 0.0272669
0 0 0
-0.0376506 0.0223319 0.429415
-0.000196149 0.00145383 0.00490761
0 0 0
0 0 0
-0.0648159 0.00754262 0.0304253
0 0 0
-0.000443217 -1.15276 0.320043
-0.00231732 -0.00020967 0.0708833
0.00274385 -0.000916737 0.0313959
0 0 0
-3.98268e-18 -8.22259e-18 2.53498e-18
0 0 0
0 0 0
-0.00528452 -0.000918045 0.200234
1.56741e-05 2.20106e-05 0.000921517
0 0 0
0.000130672 0.0358588 0.163482
-0.0022367 -0.0348444 0.195974
0 0 0
0 0 0
0.0102847 0.00937061 -0.00676929
0.00538197 0.0194995 0.0931739
0.00261565 -0.00172509 0.0494517
0.0611749 0.0070202 0.0286847
0 0 0
-0.00237544 -0.000855906 0.0299176
0.00202824 -0.000613208 0.061607
0 0 0
0 0 0
-0.00129992 0.0015803 0.0671235
0.00368752 0.00315216 0.13444
0 0 0
0.00355474 -0.037667 0.217092
-0.0015122 -0.00185259 0.0499
-0.00489134 0.0207717 0.0930133
0 0 0
0 0 0
0 0 0
7.85979e-05 0.00249035 0.0194957
0.000165713 -0.00710877 0.0883412
-8.08772e-05 4.98524e-05 0.0130375
-1.07336e-05 0.00458724 0.022662
-0.000104787 0.00444068 0.0246727
-0.00103701 0.00045383 0.0415136
0 0 0
0.000212472 0.00357987 0.0109787
0.00349022 0.0638696 0.828718
0.00065431 0.05245 0.0641029
1.70484e-05 0.00350965 0.0293424
4.72555e-06 0.000101229 0.00404335
-6.3632e-07 1.78896e-06 -0.000217378
0 0 0
0 0 0
0 0 0
-7.06533e-05 0.00270854 0.020538
2.31156e-05 0.00838511 0.0411392
7.43227e-05 0.0030749 0.0166898
-0.00124353 0.0629767 0.834433
-0.000731695 0.00558585 0.0159338
0 0 0
-0.00144922 -0.00211403 0.0196473
0.0382422 0.00334821 0.458905
0.000491083 -0.00294868 0.0167242
0 0 0
0.000868796 0.014547 0.0519632
-5.1422e-06 4.4995e-05 0.000506933
0.00695669 0.0362508 0.106319
0 0 0
0.00206475 0.0159843 0.0604046
0.000283497 0.00757536 0.107226
0 0 0
1.09778e-06 8.05231e-07 -0.000135818
-6.92224e-07 3.63809e-07 -6.36772e-05
0.00196974 -0.000295748 0.0229087
-0.00142704 -0.000193638 0.0212601
0 0 0
0 0 0
0 0 0
7.89758e-18 -3.55899e-18 -1.29936e-16
7.84672e-05 3.82125e-05 0.00306573
-0.00342452 0.00825083 0.251273
0.00185302 0.000840917 0.0272529
-0.0025994 0.000542764 0.0576646