# vtk DataFile Version 2.0
tri_press
ASCII
DATASET UNSTRUCTURED_GRID
POINTS 3682 float
-0.767345 0.225 -1.715
-0.785534 0.335 1.745
-0.775 0.775 -1.61387
-0.695 1.00097 1.655
0.767345 0.225 -1.715
0.80596 0.345 1.725
0.775 0.775 -1.61387
0.695 1.00097 1.655
-0.81603 0.219045 -0.561667
-0.81586 0.261944 0.591667
-0.827729 0.929719 -0.524247
-0.797768 1.00175 0.565377
0.817075 0.228142 -0.568333
0.818554 0.279535 0.578333
0.827721 0.929711 -0.524247
0.797872 1.00185 0.565377
-1.5728 -0.170838 -2.62587
-1.57715 -0.118561 -1.72959
-1.60685 -0.109838 -0.575087
-1.59901 -0.083167 0.592411
-1.56598 -0.0263176 1.74799
-1.56037 0.0150586 2.64954
-1.56659 0.0528724 3.54108
-1.57278 0.145889 -2.5971
-1.57728 0.215443 -1.70773
-1.61668 0.235815 -0.564771
-1.59776 0.26604 0.584402
-1.54722 0.317486 1.7286
-1.5514 0.357429 2.62948
-1.56517 0.395319 3.52298
-1.57719 0.750984 -2.52246
-1.58437 0.820298 -1.63112
-1.6238 0.932053 -0.531461
-1.58294 0.989461 0.564285
-1.49605 1.00493 1.66561
-1.52886 1.04127 2.57223
-1.56337 1.08223 3.4777
-1.58754 1.7443 -2.45501
-1.59362 1.82441 -1.5724
-1.60738 1.94465 -0.493077
-1.60343 2.03178 0.573505
-1.58489 2.07262 1.6545
-1.58268 2.09941 2.54058
-1.59278 2.13248 3.43946
-0.778899 -0.166306 -2.63084
-0.772902 -0.111166 -1.73693
-0.80201 -0.115879 -0.576778
-0.80545 -0.0839078 0.596332
-0.785416 -0.0160493 1.7569
-0.785142 0.0222289 2.65453
-0.791147 0.05706 3.54257
-0.779987 0.145092 -2.5991
-0.788179 0.363999 2.63386
-0.795531 0.398779 3.5236
-0.783185 0.732388 -2.51562
-0.772107 1.04086 2.5688
-0.79997 1.083 3.47483
-0.788877 1.73251 -2.4485
-0.791413 1.81361 -1.56517
-0.80725 1.94368 -0.489288
-0.816989 2.03649 0.571436
-0.812981 2.07485 1.64842
-0.813882 2.10012 2.5343
-0.822264 2.13328 3.43412
0.790656 -0.164367 -2.63233
0.795213 -0.108666 -1.7388
0.818056 -0.107471 -0.583064
0.816731 -0.0698769 0.584681
0.806833 -0.00520161 1.74126
0.779155 0.0308375 2.64228
0.764478 0.0645898 3.53309
0.780879 0.146189 -2.59994
0.756641 0.371582 2.62198
0.748334 0.405713 3.51461
0.782653 0.733122 -2.51619
0.712812 1.04492 2.5632
0.723293 1.08844 3.46819
0.802106 1.73431 -2.44993
0.806415 1.81531 -1.56651
0.796711 1.94573 -0.490907
0.762786 2.03912 0.569308
0.728316 2.07807 1.64556
0.718421 2.10406 2.53046
0.71631 2.13792 3.42942
1.58282 -0.166098 -2.62952
1.58964 -0.1124 -1.73426
1.61957 -0.0958025 -0.585771
1.61716 -0.0612921 0.573794
1.59262 -0.00654202 1.72411
1.56466 0.0316814 2.62826
1.54808 0.0677338 3.5232
1.57273 0.149195 -2.59964
1.57504 0.21898 -1.71039
1.61883 0.247865 -0.573772
1.61042 0.287176 0.567239
1.57085 0.335539 1.70546
1.54052 0.372431 2.6093
1.5296 0.409162 3.506
1.57483 0.753338 -2.52429
1.58061 0.821835 -1.63229
1.62213 0.936415 -0.534721
1.58611 0.997698 0.557974
1.49766 1.01363 1.65678
1.49046 1.05126 2.56015
1.49897 1.09351 3.46455
1.59654 1.74832 -2.45819
1.60189 1.82836 -1.57553
1.59515 1.94945 -0.496891
1.55743 2.03787 0.568517
1.51232 2.0799 1.64801
1.4961 2.10783 2.53247
1.49315 2.14201 3.42991
-0.804336 0.5 -1.6976
0 0.222452 -1.71755
-0.772468 0.241241 -1.13833
-0.771846 0.667985 1.73158
0.010213 0.291912 1.78309
-0.784215 0.314954 1.16833
0 0.854754 -1.69362
-0.829451 0.880446 -1.06906
0 1.08818 1.74221
-0.765686 1.02066 1.11019
0.804311 0.5 -1.69757
0.776255 0.242526 -1.14167
0.778289 0.672985 1.71781
0.799816 0.324708 1.15167
0.82943 0.880425 -1.06906
0.76568 1.02065 1.11019
-0.815962 0.240478 0.015
-0.859828 0.574382 -0.542957
0.000522657 0.19755 -0.565
-0.86263 0.631846 0.578522
0.00134686 0.244047 0.585
-0.811894 0.964879 0.020565
-4.24103e-06 1.39345 -0.524247
5.23253e-05 1.52696 0.565377
0.817828 0.253825 0.005
0.860269 0.578926 -0.54629
0.863057 0.640693 0.571855
0.811884 0.964869 0.020565
-0.874424 0.537191 -1.1037
0.875341 0.539463 -1.10536
0.000261328 0.214745 -1.14
-2.12051e-06 0.988731 -1.06906
0 0.5 -1.94126
-0.861462 0.603114 0.0177825
0.861956 0.60981 0.0127825
0.000934758 0.204533 0.00999999
2.40421e-05 1.5191 0.020565
-0.884557 0.649916 1.13926
0.883211 0.656839 1.13093
0.00577992 0.28091 1.16
2.61627e-05 1.513 1.11019
0.00510649 0.670485 1.84771
-0.792086 0.3625 -1.71254
-0.383673 0.221582 -1.71842
-0.775439 0.227589 -1.42667
-0.800725 0.501493 1.76032
-0.387661 0.28914 1.78836
-0.785354 0.324498 1.45667
-0.798308 0.6375 -1.66437
-0.3875 0.819709 -1.65858
-0.819604 0.845102 -1.34146
-0.742713 0.834478 1.70258
-0.3475 1.05412 1.70815
-0.744997 1.02547 1.38259
0.383673 0.221445 -1.71856
0.792043 0.3625 -1.7125
0.777877 0.227686 -1.42833
0.408086 0.286807 1.78569
0.818887 0.508993 1.74817
0.800447 0.337295 1.43833
0.3875 0.81972 -1.65859
0.798316 0.6375 -1.66438
0.819599 0.845097 -1.34146
0.3475 1.0601 1.71413
0.747091 0.836978 1.69685
0.745008 1.02548 1.38259
-0.82945 0.194943 -0.85
-0.816022 0.229735 -0.273333
-0.834915 0.398221 -0.552312
-0.400276 0.223253 -0.563333
-0.816536 0.27195 0.88
-0.815898 0.251224 0.303333
-0.841375 0.44583 0.585094
-0.411252 0.245005 0.588333
-0.831316 0.907808 -0.796653
-0.865192 0.762757 -0.533602
-0.819922 0.947409 -0.251841
-0.483896 1.30164 -0.524247
-0.782841 1.01232 0.837783
-0.861663 0.832529 0.571949
-0.803883 0.982366 0.292971
-0.513131 1.4929 0.565377
0.835675 0.196324 -0.855
0.403614 0.223215 -0.566667
0.817559 0.240876 -0.281667
0.836067 0.404836 -0.557312
0.818631 0.292675 0.865
0.422866 0.23596 0.581667
0.818223 0.266648 0.291667
0.843592 0.458721 0.575094
0.831276 0.907769 -0.796653
0.483884 1.30163 -0.524247
0.86502 0.764831 -0.535268
0.819919 0.947407 -0.251841
0.782843 1.01232 0.837783
0.5132 1.49288 0.565377
0.861107 0.836594 0.568616
0.803866 0.982349 0.292971
-0.863779 0.518596 -1.40065
-0.402168 0.5 -1.89513
0.000130664 0.219574 -1.42877
0 0.361226 -1.92549
-0.855151 0.389216 -1.12101
-0.386104 0.222643 -1.13917
-0.881912 0.65895 1.43542
-0.38337 0.669235 1.83134
0.00799646 0.280448 1.47154
0.00765974 0.481199 1.92114
-0.874153 0.482435 1.1538
-0.389217 0.279252 1.16417
-1.06026e-06 0.942392 -1.38134
0 0.677377 -1.84931
-0.89548 0.708818 -1.08638
-0.414726 0.948798 -1.06906
1.30813e-05 1.46136 1.4262
0.00255325 0.879332 1.80233
-0.857681 0.835288 1.12472
-0.38283 1.50048 1.11019
0.863718 0.519732 -1.40147
0.402156 0.5 -1.89516
0.855681 0.390995 -1.12351
0.388258 0.222646 -1.14083
0.881991 0.664912 1.42437
0.391698 0.671735 1.8421
0.875532 0.490774 1.1413
0.402798 0.275666 1.15583
0.895473 0.709944 -1.08721
0.414714 0.948798 -1.06906
0.857312 0.838747 1.12056
0.382853 1.50048 1.11019
-0.838582 0.421861 0.0163912
-0.403085 0.231362 0.0125
-0.859008 0.555787 -0.823326
-0.860736 0.588748 -0.262587
0.000391992 0.203421 -0.8525
0.000728707 0.197601 -0.2775
-0.86224 0.61748 0.298152
-0.863092 0.640881 0.858891
0.00114081 0.204583 0.2975
0.00356339 0.25755 0.8725
-0.863708 0.797511 0.0191737
-0.525965 1.48205 0.020565
-3.18077e-06 1.16435 -0.796653
9.90056e-06 1.50481 -0.251841
3.81837e-05 1.52504 0.292971
3.9244e-05 1.52426 0.837783
0.840122 0.431702 0.00889124
0.408306 0.23133 0.00749999
0.859357 0.559195 -0.825826
0.861229 0.594368 -0.266754
0.862839 0.625252 0.292319
0.863486 0.648766 0.851391
0.863389 0.800574 0.0166737
0.526011 1.4821 0.020565
-0.842908 0.375858 -1.41366
-0.869022 0.392965 -0.836663
-0.866447 0.730435 -0.809989
-0.882627 0.673159 -1.37106
0.842919 0.376747 -1.4149
0.882686 0.673722 -1.37147
0.866423 0.732131 -0.811239
0.86898 0.397264 -0.840413
-0.384888 0.226116 -1.42772
0.385965 0.226108 -1.42855
0.398528 0.219928 -0.85375
-0.396929 0.21995 -0.85125
-0.401113 0.901673 -1.3614
-0.414297 1.09121 -0.796653
0.414286 1.0912 -0.796653
0.401107 0.90167 -1.3614
-0.39292 0.361863 -1.88038
-0.394834 0.657438 -1.8048
0.394828 0.657438 -1.8094
0.392914 0.361863 -1.88019
-0.836804 0.410013 -0.26796
-0.840213 0.433728 0.300743
-0.862624 0.81499 0.295561
-0.864459 0.780139 -0.257214
0.838158 0.418238 -0.27421
0.864272 0.782736 -0.259297
0.862135 0.818527 0.292645
0.842058 0.445111 0.291993
-0.40256 0.225549 -0.275417
0.406829 0.225535 -0.279583
0.415586 0.233645 0.294583
-0.405315 0.24189 0.300417
-0.538123 1.45823 -0.251841
-0.520366 1.48911 0.292971
0.520407 1.48909 0.292971
0.538189 1.45835 -0.251841
-0.841859 0.464665 0.869446
-0.872686 0.491964 1.44604
-0.844602 0.834883 1.40901
-0.862108 0.826043 0.848337
0.843953 0.475444 0.858196
0.861625 0.83001 0.844587
0.844455 0.837862 1.40348
0.872669 0.499883 1.43135
-0.398237 0.255772 0.87625
0.406374 0.233347 0.86875
0.405442 0.283045 1.45494
-0.388439 0.282079 1.46411
-0.390844 1.51031 0.837783
-0.365165 1.45168 1.4044
0.365177 1.45169 1.4044
0.390908 1.5103 0.837783
-0.385515 0.491346 1.9038
0.399892 0.495096 1.90303
0.369599 0.858155 1.80531
-0.365435 0.856905 1.80605
-0.779707 0.29375 -1.71376
-0.575509 0.223019 -1.71698
-0.770089 0.227598 -1.57083
-0.80026 0.418246 1.75979
-0.586597 0.304315 1.77443
-0.786721 0.328472 1.60083
-0.79179 0.70625 -1.64426
-0.58125 0.807937 -1.64681
-0.799901 0.812649 -1.47767
-0.724727 0.917724 1.68466
-0.52125 1.03765 1.69168
-0.731646 1.02487 1.5188
0.575509 0.222902 -1.7171
0.779768 0.29375 -1.71382
0.771286 0.227668 -1.57167
0.607023 0.30447 1.76678
0.821402 0.426996 1.74556
0.802555 0.341796 1.58167
0.58125 0.807801 -1.64667
0.791799 0.70625 -1.64427
0.799923 0.812671 -1.47767
0.52125 1.03772 1.69175
0.726664 0.918974 1.68154
0.731637 1.02486 1.5188
-0.816015 0.213718 -0.705833
-0.816052 0.224364 -0.4175
-0.826729 0.308005 -0.556989
-0.606395 0.224665 -0.5625
-0.815728 0.267417 0.735833
-0.815877 0.256587 0.4475
-0.824872 0.35576 0.588381
-0.615866 0.248856 0.59
-0.831209 0.92045 -0.66045
-0.854426 0.850221 -0.528924
-0.823946 0.938685 -0.388044
-0.685421 1.1749 -0.524247
-0.790994 1.00772 0.70158
-0.84217 0.923366 0.568663
-0.800232 0.991463 0.429174
-0.666892 1.27021 0.565377
0.816817 0.22179 -0.711667
0.610497 0.225373 -0.5675
0.817397 0.234429 -0.425
0.827669 0.31594 -0.562823
0.818426 0.286272 0.721667
0.643053 0.21306 0.58
0.818414 0.273065 0.435
0.828886 0.370221 0.576714
0.831185 0.920426 -0.66045
0.6854 1.17487 -0.524247
0.854252 0.851212 -0.529758
0.823943 0.938682 -0.388044
[...]
POINT_DATA 3682
SCALARS point_scalars float 1
LOOKUP_TABLE default
-159.561
-55.5496
-58.9822
-39.8067
-159.929
-57.2206
-58.7612
-42.0261
-46.4302
-40.0914
-76.2163
-52.7024
-46.7166
-41.1792
-76.4347
-53.5133
-129.615
-166.408
-46.5469
-40.0751
-52.4154
-56.1624
-44.375
-52.367
-162.848
-46.495
-40.4594
-53.4386
-53.9971
-43.3957
-26.0449
-111.716
-62.0013
-47.6918
-52.6826
-46.6768
-43.2656
-64.2094
-69.9105
-134.364
-56.5944
-45.6147
-39.54
-39.2243
-20.2203
-191.001
-49.1109
-42.3682
-52.3443
-45.863
-43.5222
-20.2203
-43.3375
-43.5222
154.428
-39.9113
-43.5222
-4.83761
-50.2175
-145.128
-58.9276
-46.3662
-37.1042
-36.481
-20.4656
-191.055
-48.6698
-43.5915
-54.5295
-46.9454
-44.4093
-20.4656
-44.1958
-44.1064
154.323
-41.5401
-44.1064
-3.19494
-50.4244
-145.319
-59.5392
-45.3787
-38.6406
-38.1235
-130.195
-166.105
-46.9751
-41.1579
-55.053
-55.9396
-45.299
-50.3
-163.129
-46.5721
-41.6341
-55.93
-53.9253
-45.299
-30.9283
-112.195
-62.2941
-49.2062
-54.5797
-45.4687
-44.211
-63.9573
-70.1547
-134.668
-57.6041
-47.4742
-41.7623
-41.1924
-52.5156
-142.329
-55.7356
-44.1472
-51.0001
-42.3671
-20.9202
-57.059
-32.8
-47.8664
-53.6219
-56.4746
-46.6934
-43.0056
-57.1107
-49.2999
-41.0383
-49.61
-52.0833
-42.5177
-45.0129
-63.198
-20.5892
-64.1175
-41.0186
-49.7756
-43.3251
-63.6088
-63.1073
-63.3832
-66.1175
33.2254
205.914
-46.2202
-46.7881
-45.1881
-95.8078
-43.6368
-44.1427
-42.3435
-49.3831
-40.2464
-77.6961
-150.761
-81.5733
-50.6265
-52.2389
-43.4197
-21.2426
-22.508
-66.1088
-43.0168
-34.5047
-44.8681
-150.759
-78.2508
-82.0337
-52.2016
-53.3137
-44.6419
-22.5657
-27.264
-66.3215
-37.2841
-45.1666
-46.8173
-56.3092
-43.5004
-46.9759
-50.9138
-34.3386
-40.1289
-40.7063
-45.0839
-66.0464
-57.596
-70.204
-27.0379
-50.0483
-46.7902
-56.9546
-58.9527
-59.8852
-50.8772
-43.2204
-47.0128
-38.4016
-46.035
-41.1982
-41.6308
-66.4217
-27.2131
-57.917
-70.5805
-51.0842
-59.3806
-47.9612
-57.5028
-89.9329
185.063
-89.3276
124.983
-60.7758
-64.461
-49.0034
-40.297
-43.5077
-44.4703
-44.3876
-42.0289
-1.61423
166.552
-65.3106
11.0635
-39.1823
-39.8491
-46.1208
-49.6179
-90.3026
184.971
-61.3516
-64.6815
-50.456
-41.7057
-45.0766
-42.2742
-65.5767
10.6682
-47.1826
-50.4488
-42.9971
-44.314
-56.7592
-48.0673
-54.7937
-47.7447
-44.2285
-41.3745
-45.1412
-44.7184
-53.189
-87.4127
62.7073
-139.992
-75.4078
-56.188
-43.3959
-43.8329
-56.9902
-48.445
-44.9436
-42.1032
-53.8016
-87.7477
-88.0682
-61.5911
-56.6882
-91.8564
-88.5213
-92.1285
-56.8948
-61.296
-87.6044
-87.7759
-53.4804
-53.1827
-15.371
30.486
31.7245
-15.5776
129.821
130.886
128.727
130.388
-44.6137
-41.7261
-50.0573
-56.5744
-44.7937
-57.033
-50.7346
-42.2835
-46.4306
-46.2044
-43.7423
-43.4445
-143.537
-69.412
-69.7565
-143.936
-36.7502
-47.382
-50.3635
-45.0959
-38.282
-46.031
-52.0456
-49.0779
-45.198
-46.5282
-43.2978
-43.8989
-54.8543
-41.1303
-42.6624
-55.3787
-44.0945
-44.519
-40.5786
-38.6283
-115.352
-175.404
-114.659
-53.7919
-53.5193
-46.5933
-35.9148
-2.88667
-63.2555
-41.6281
-36.7135
-42.5933
-175.902
-115.612
-115.15
-54.765
-56.2799
-48.0441
-1.89569
-37.5597
-63.1941
-39.2299
-43.4655
-44.8534
-50.9287
-44.3227
-46.2832
-49.4436
-40.7781
-40.3959
-40.3845
-43.507
-73.1453
-65.0971
-73.4572
-109.672
-51.4849
-49.9405
-54.1902
-56.1917
-50.0734
-49.1796
-44.5375
-46.351
-43.289
-46.1799
-41.2147
-41.5581
-73.3641
-109.731
-65.4237
-73.8012
-52.4123
-56.8989
-51.0675
-54.83
-64.1166
-36.8996
-136.485
134.773
-145.886
-146.036
-110.493
-61.903
-68.629
-46.5311
-58.4211
-61.5582
-47.4375
-43.6505
-53.446
-40.371
-51.0826
-51.1505
-47.2316
-45.3037
-41.9744
-52.2553
-43.8421
-41.5921
-26.0659
-26.1695
-16.9593
64.8425
-63.3642
-59.2465
-66.6503
-12.5697
-32.8891
-34.697
-33.9999
-34.3988
-46.5782
-48.9838
-47.3907
-49.4166
-64.524
-39.4221
-136.16
134.78
-69.6677
-47.9272
-59.2728
-61.8993
-50.3021
-45.7963
-55.3818
-41.9054
-42.8621
-52.181
-44.0748
-41.906
-63.2193
-59.2564
-66.8289
-12.7909
-48.2562
-50.1956
-48.7651
-50.6517
-42.5035
-40.91
-42.067
-42.4849
-47.7999
-52.5211
-50.9669
-48.8265
-51.1643
-51.1643
-52.2136
-49.0464
-41.4203
-44.2813
-43.3217
-41.7822
-45.9758
-46.9174
-48.1196
-44.7988
-66.7969
-59.9512
-58.205
-75.5321
-15.2478
-15.5542
37.2388
-127.314
-63.1064
-63.332
-68.9938
-59.7597
-41.9016
-41.1895
-42.4971
-42.1674
-47.9121
-52.8064
-51.0612
-49.1226
-42.2627
-45.1446
-44.0795
-42.5818
-67.1394
-60.42
-58.7874
-75.9309
-72.1718
-62.2854
-64.0618
-59.5783
-72.4093
-62.6608
-64.2769
-59.8314
-75.6183
-65.8254
-65.9437
-59.4999
14.6801
27.2181
26.8885
48.4648
199.942
186.018
181.579
203.692
-44.3044
-47.2024
-45.2266
-49.1449
-44.7805
-47.6717
-45.8478
-49.7152
-45.0445
-46.6195
-44.9695
-45.154
-95.0567
-113.103
-84.353
-95.2067
-46.8586
-44.4851
-43.7702
-40.6525
-48.2674
-45.2323
-44.6201
-41.4519
-42.5192
-42.0603
-42.5115
-44.1982
-45.2266
-49.3823
-49.8278
-53.1109
-40.0554
-43.1549
-39.6676
-40.9269
-127.29
99.4593
-109.519
49.2438
-85.3959
-85.5951
-52
-43.8831
-46.081
-44.8761
-45.9231
-42.5554
-128.928
114.082
-29.1576
44.5894
-90.0464
-31.092
-48.5777
-39.5151
-35.3398
-36.0293
-46.99
-43.8847
-109.666
48.1787
-127.884
99.3662
-85.895
-85.8886
-46.8315
-45.6719
-53.7459
-44.4275
-47.8134
-43.3137
-29.2823
45.3969
-128.14
114.005
-90.4968
-31.3014
-37.1301
-38.6768
-50.7994
-41.5683
-48.8265
-45.8059
-59.7832
-52.6077
-43.6706
-45.5393
-50.0009
-45.5405
-51.3649
-47.6879
-35.8171
-48.8991
-41.0946
-41.9652
-41.1833
-39.7714
-44.4151
-45.03
-61.7217
-27.2592
-56.4395
-57.5007
-62.9974
-97.8556
17.3554
-78.6879
-47.6326
-52.1493
-47.3201
-45.7666
-53.6408
-63.2053
-63.2171
-57.3287
-60.5006
-53.1698
-50.6582
-47.5053
-43.8199
-45.018
-49.8815
-45.6742
-36.4282
-48.5718
-43.8362
-45.8754
-41.6243
-43.7376
-41.9341
-40.6743
-61.9677
-23.0956
17.6095
-79.0633
-56.6774
-57.8918
-63.4465
-98.2711
-48.6327
-52.927
-63.5972
-57.8058
-47.6666
-46.6515
-54.3427
-63.6674
-89.8066
-89.8008
171.45
146.739
-88.883
-88.9781
128.695
128.524
-70.2949
-56.1081
-74.1054
-57.7562
-48.3505
-50.58
-42.8371
-40.1862
-43.7074
-44.0487
-44.3508
-44.5695
-43.802
-45.3662
-44.6202
-42.3255
-3.91602
-4.04303
158.164
158.221
-60.6357
-73.2202
-1.00473
20.3322
-39.596
-40.4412
-40.2565
-39.3238
-47.1638
-45.1312
-52.5662
-46.5401
-90.2701
-90.0021
147.39
171.367
-70.7099
-56.7721
-74.3073
-58.0173
-52.3208
-49.8636
-43.2988
-41.5102
-42.3516
-46.9826
-45.5802
-42.5282
-73.4283
-60.8405
19.6823
-1.30339
-46.1856
-48.9545
-47.6978
-53.2126
-43.7671
-42.3133
-45.364
-43.5818
-58.9602
-55.306
-45.901
-51.5282
-54.3326
-54.2996
-47.407
-47.2959
-42.7536
-46.4857
-39.8493
-43.0617
-43.7292
-45.0941
-44.5292
-45.085
-51.3834
-55.0099
-108.486
-77.6139
57.1979
57.1684
-144.127
-144.411
-74.1249
-74.2957
-55.8308
-56.1029
-44.0335
-42.8164
-45.0736
-43.4243
-55.4304
-58.9644
-46.2257
-51.9636
-47.202
-43.4294
-40.754
-43.9197
-55.5157
-52.0311
-77.9473
-108.814
-122.965
-68.6259
-71.5355
-130.854
-49.9448
-50.2695
-57.5859
-51.1983
-63.7837
-61.5078
-61.7291
-52.8429
-90.1355
-136.924
-72.7795
-75.52
-123.324
-130.345
-71.8737
-69.1478
-89.2326
-75.5725
-72.9899
-136.085
-64.0871
-53.0149
-61.9253
-61.6738
-49.7773
-52.2013
-57.9123
-50.283
-110.679
-109.997
-75.3601
-71.462
-110.879
-71.785
-75.4713
-110.083
-50.7647
-52.197
-59.218
-54.9909
-51.796
-54.5533
-59.1082
-52.1642
-55.6254
-20.0626
11.3926
-18.0563
-61.7443
37.3687
40.5448
-10.3809
-62.7622
-10.7114
43.2881
37.4665
-55.9056
-18.1503
11.2018
-20.3073
43.1698
126.923
185.589
-26.3422
82.2829
61.8932
176.353
126.527
82.6932
126.517
176.777
59.0418
42.6282
-26.6432
184.9
126.851
-44.6221
-42.7692
-45.0717
-46.7537
-40.771
-42.0735
-43.5408
-41.5094
-50.2075
-55.6514
-47.8145
-45.1788
-64.4039
-52.2405
-50.433
-60.7753
-44.7955
-47.0176
-45.4708
-43.0134
-64.8039
-61.1965
-50.929
-52.5931
-50.7097
-45.9204
-48.4364
-56.2578
-41.4546
-42.0888
-44.0975
-42.8504
-46.6213
-48.7484
-46.2179
-44.2732
-46.2645
-43.7069
-46.1742
-48.6355
-41.3778
-45.5252
-44.8835
-40.7024
-42.2968
-43.5323
-44.9445
-45.0865
-116.317
-84.239
-112.376
-117.661
-59.1812
-67.8885
-83.2776
-68.5312
-59.7451
-68.9417
-83.4359
-68.0777
-116.788
-117.309
-112.533
-84.6489
-39.452
-51.4955
-40.6658
-40.5886
-50.2912
-52.4835
-46.3058
-43.9965
-46.723
-47.016
-46.7363
-51.8691
-49.0509
-43.5132
-43.0296
-47.3617
-40.5367
-41.3551
-40.3233
-46.6623
-49.9953
-48.5076
-44.0656
-44.3652
-48.868
-54.0042
-48.2727
-48.7927
-52.8071
-45.5063
-47.7573
-53.8798
-43.4932
-45.1933
-44.2064
-46.75
-46.4153
-46.7167
-44.6543
-45.9376
-46.0043
-46.8587
-42.7676
-41.7835
-44.1377
-41.6758
-42.4662
-46.6888
-53.5972
-51.4451
-52.9636
-59.143
-37.2897
-34.1263
-45.5787
-47.654
-39.3293
-49.2501
-46.2031
-35.281
-54.4393
-59.3892
-53.3152
-52.4915
-45.0147
-44.7191
-43.0487
-42.3354
-45.7894
-43.2684
-43.0334
-45.2746
-40.4477
-36.1213
-40.3685
-42.3172
-37.9411
-40.6925
-39.664
-34.5075
-136.902
-183.646
-150.847
-55.4672
-54.226
-50.1142
-45.9033
-9.14713
-72.5923
-40.8847
-37.6131
-40.836
-183.383
-137.359
-150.804
-55.4675
-59.0443
-51.7833
-9.42536
-46.7748
-73.2565
-39.7493
-43.0954
-43.0567
-47.9385
-45.2655
-46.0904
-48.164
-40.6908
-40.5442
-40.0317
-42.3911
-76.5333
-70.569
-74.999
-101.936
-52.1796
-51.3851
-53.103
-54.393
-47.9422
-48.0117
-45.6316
-46.3341
-42.2072
-42.9391
-41.2287
-41.4148
-76.6984
-102.082
-70.8902
-75.3268
-53.0628
-55.1574
-52.2793
-53.8443
-58.0109
-44.4859
-145.581
61.0619
-143.062
-143.141
-126.582
-82.8344
-62.7279
-51.4115
-57.0227
-59.1476
-45.7228
-44.0581
-50.9509
-41.3783
-49.9624
-51.5133
-49.5344
-47.5754
-42.0684
-45.2443
-43.2785
-41.3288
-23.4493
-23.3081
-21.1649
-3.01478
-59.7303
-57.2156
-66.4506
-36.1224
-32.5455
-33.7163
-33.0833
-33.3394
-47.2216
-48.5039
-47.7909
-48.0193
-58.6246
-46.4687
-145.584
61.24
-63.6289
-52.2048
-57.865
-59.5535
-47.8662
-46.2765
-54.0999
-42.9668
-42.5978
-44.3639
-43.6612
-41.1482
-59.2565
-57.1762
-66.6205
-36.0585
-48.7717
-49.8227
-49.1977
-49.4629
-41.6314
-41.3825
-41.4869
-41.2491
-48.6366
-50.8659
-49.9952
-49.1504
-51.4039
-51.8627
-52.7003
-50.0599
-41.917
-43.3486
-42.9173
-42.1004
-45.5825
-46.044
-48.0082
-44.8681
-65.0365
-61.5673
-60.7818
-68.6894
-19.7546
-19.9099
12.8558
-85.4375
-63.8553
-63.9707
-66.4812
-61.8542
-41.5375
-41.4921
-41.9372
-40.9569
-48.7664
-51.1238
-50.1284
-49.4008
-42.7412
-44.1642
-43.6938
-42.9156
-65.3733
-62.0079
-61.2764
-69.0774
-67.6154
-62.7343
-63.6794
-60.379
-67.8636
-63.0567
-63.9253
-60.7342
-70.2444
-66.1094
-66.1717
-62.7011
24.6974
31.794
31.8788
41.1389
204.268
197.219
199.277
203.865
-45.1999
-46.7448
-45.7532
-47.5426
-45.7128
-47.2607
-46.3404
-48.1129
-45.2034
-45.3395
-45.0043
-45.4234
-95.8376
-104.029
-89.6294
-95.913
-46.2143
-44.0439
-42.6821
-40.8994
-46.8031
-44.659
-43.6596
-41.8824
-42.6368
-42.2195
-42.4747
-42.5666
-47.5078
-49.333
-49.5624
-51.2741
-40.4273
-41.5027
-40.3899
-40.7645
-86.6729
-64.5371
-161.344
56.1302
-156.638
-149.007
-128.397
-39.0046
-94.0527
-74.6355
-83.5375
-84.0002
-52.0873
-49.1261
-56.134
-44.7069
-52.1111
-50.8088
-48.6381
-47.9041
-44.9032
-42.3252
-44.8773
-42.5092
-29.3021
-31.2076
-116.925
68.7236
-17.1165
-20.7107
-29.7183
-0.568018
-63.6877
-62.5356
-81.1845
-44.1729
-42.5366
-43.3589
-46.7767
-40.4352
-35.42
-33.6742
-34.5575
-34.8268
-43.7126
-45.8171
-45.7805
-43.4214
-156.776
-149.129
-128.569
-40.4921
-87.1884
-64.9365
-161.564
55.4174
-94.4429
-74.855
-83.9044
-84.3559
-52.5852
-51.5581
-48.9777
-49.1774
-54.686
-51.854
-57.6397
-45.7383
-46.0201
-44.0769
-46.3332
-43.3202
-17.0024
-21.2456
-29.7734
-1.15396
-31.6454
-32.5561
-116.305
69.0546
-63.6911
-62.7434
-81.5273
-44.351
-38.3219
-35.9476
-36.8983
-37.7654
-44.3943
-45.6009
-49.0571
-42.2248
-45.7871
-47.6279
-47.6948
-45.4049
-66.4669
-33.6687
-60.4162
-52.6058
-44.1205
-43.1527
-43.3935
-44.826
-46.6155
-47.2378
-48.1846
-46.101
-50.7117
-50.9492
-53.0912
-48.547
-39.1431
-55.6985
-35.734
-47.2847
-40.5804
-40.5771
-40.6091
-41.0588
-40.585
-41.0114
-40.9569
-40.3171
-44.4721
-45.7663
-45.3735
-46.8472
-69.6902
-62.1981
-65.3062
-56.4977
-60.7954
-54.7831
-57.0428
-57.6439
-72.233
-68.674
-66.9201
-80.8439
-63.8056
-10.204
-3.76921
-52.3946
-50.7738
-49.544
-49.1667
-51.0456
-48.154
-45.4426
-46.8713
-46.2489
-55.6171
-58.4528
-55.2577
-59.8251
-56.9028
-61.7654
-61.298
-59.1087
-62.2354
-37.2858
-59.3385
-53.1321
-50.5445
-50.8929
-51.8383
-48.438
-43.8826
-43.0546
-43.2886
-43.6043
-46.6734
-47.3036
-48.1327
-46.2095
-41.3261
-53.5542
-36.2529
-47.1029
-45.2256
-46.0934
-44.8614
-46.2336
-41.1636
-41.3281
-41.2791
-41.5145
-41.5894
-41.8505
-41.813
-41.2463
-70.0403
-62.4422
-65.5397
-60.444
-64.084
-10.3341
-3.80624
-52.5837
-61.1327
-55.0815
-57.332
-57.9967
-72.5917
-69.1368
-67.3254
-81.2674
-51.7463
-50.6619
-50.1891
-52.1014
-57.5238
-62.1005
-61.7307
-59.5697
-49.508
-46.3138
-47.567
-47.137
-56.1943
-58.9683
-55.8795
-60.3318
-106.173
-79.3087
-89.8159
-89.8869
169.072
195.287
182.405
176.283
-98.4827
-81.8547
-89.1592
-89.2048
60.1717
171.541
137.248
137.512
-59.9347
-61.5881
-65.2691
-57.733
-63.2836
-65.4779
-68.6189
-61.1501
-51.6161
-47.7284
-48.5578
-49.4919
-40.1223
-40.3119
-41.2277
-40.753
-45.4089
-42.2386
-43.357
-43.6851
-44.428
-44.1544
-44.443
-44.5006
-44.0758
-44.5071
-44.0667
-45.1426
-41.9051
-42.0766
-42.4323
-42.0081
-8.65816
7.13516
-1.81299
-1.87311
135.026
180.273
166.243
166.257
-66.8093
-64.5245
-63.3876
-67.8336
-1.91135
21.6287
4.91065
15.8267
-35.9807
-41.9551
-39.2163
-39.6469
-37.774
-39.1665
-39.7302
-39.5555
-46.5537
-45.6014
-46.0612
-45.3835
-49.7452
-49.4999
-51.0416
-48.4609
-106.394
-79.5845
-90.1807
-90.0888
168.961
195.133
176.255
182.311
-60.6632
-62.0271
-65.7115
-58.301
-63.5515
-65.6297
-68.8395
-61.3994
-52.9861
-49.2104
-50.9753
-50.1111
-41.8144
-41.3272
-42.2803
-41.9104
-44.7542
-45.0929
-43.4988
-46.424
-42.0857
-42.5
-42.7442
-42.5665
-67.0476
-64.7495
-68.0468
-63.505
-2.24919
21.1803
15.5857
4.55952
-47.8799
-46.4015
-46.5161
-47.6798
-50.7533
-50.1494
-49.4388
-51.7721
-42.5727
-43.5417
-43.3834
-42.6591
-43.4164
-44.7365
-44.5132
-44.6585
-52.3019
-60.873
-58.228
-55.9177
-48.4286
-47.6571
-46.9579
-49.5814
-53.5686
-56.3921
-54.449
-54.5196
-48.255
-47.6889
-47.8396
-47.7537
-43.777
-44.7631
-43.4488
-45.2605
-41.5085
-41.0999
-40.6366
-42.1825
-45.5838
-44.9378
-44.9727
-46.3439
-44.7699
-45.5074
-44.459
-44.7646
-55.5371
-51.0078
-52.3392
-54.1197
-82.1734
-92.4753
-95.8321
-82.437
55.0656
59.0086
61.4656
60.9872
-158.473
-124.359
-141.528
-141.662
-71.966
-79.4958
-75.097
-75.1835
-57.9001
-54.7027
-56.0567
-56.1942
-42.9514
-44.0271
-43.7004
-43.1411
-42.9409
-44.575
-44.1836
-43.5083
-52.4098
-60.9582
-56.0314
-58.3999
-48.7543
-48.0666
-47.28
-50.0145
-44.5443
-45.4426
-45.9639
-44.1391
-42.2932
-41.8492
-41.3122
-42.9778
-56.1169
-51.6125
-54.6761
-52.97
-82.5619
-92.6968
-82.8078
-96.1545
-102.563
-86.9639
-89.9273
-77.5274
-61.6556
-56.2607
-55.6813
-59.6689
-58.8506
-56.1467
-58.0023
-55.4515
-111.031
-92.1294
-90.3774
-79.77
-103.188
-87.3975
-90.3888
-77.9214
-111.157
-92.3856
-90.5699
-80.0372
-59.0759
-56.3964
-58.1968
-55.6483
-60.6083
-55.577
-56.0191
-59.8967
-96.8663
-86.69
-88.424
-79.7353
-97.0258
-86.8949
-88.5489
-80.5546
-53.3357
-52.2307
-54.953
-53.9409
-52.9027
-51.5759
-54.6846
-53.7939
-22.4948
-23.7077
-8.55722
-8.1809
5.61731
28.3191
25.1053
48.0782
8.82758
28.9929
24.5529
49.0471
-22.6669
-23.9245
-8.74211
-8.42741
118.515
114.433
148.845
114.538
108.727
113.471
136.708
154.098
107.957
107.903
153.878
137.041
115.604
118.313
115.695
148.906
-44.1698
-45.0307
-44.1966
-45.1199
-41.456
-41.4599
-42.0145
-42.1744
-49.2296
-52.0024
-48.0288
-50.5715
-57.1355
-59.5183
-53.8106
-55.8711
-44.3459
-45.1937
-44.4017
-45.3855
-57.5535
-59.9588
-54.2723
-56.335
-50.0481
-52.682
-48.7672
-51.2481
-41.9522
-42.0906
-42.549
-42.7999
-45.886
-47.0212
-46.1327
-46.9615
-46.8247
-45.6126
-46.7895
-45.8807
-43.5069
-44.9627
-43.7374
-43.569
-41.8664
-42.9963
-43.2399
-43.9829
-132.925
-119.421
-123.708
-147.542
-65.9092
-66.1028
-73.1729
-72.1627
-66.477
-66.3448
-72.4162
-73.5008
-119.68
-133.248
-147.825
-124.143
-36.0923
-39.0198
-39.8435
-38.2161
-49.8128
-46.5877
-47.8287
-46.1304
-50.0157
-48.4285
-51.582
-49.4154
-46.1674
-45.3373
-44.9812
-44.0518
-36.5518
-39.7901
-39.009
-39.8517
-47.102
-46.2485
-45.9598
-44.9506
-52.0152
-50.1506
-53.3387
-50.9274
-51.6097
-48.5224
-49.5847
-47.9464
-46.0156
-43.5039
-46.3642
-44.7298
-47.2048
-45.0619
-48.7282
-45.7908
-44.6568
-43.1669
-43.7585
-42.554
-44.5395
-43.0578
-44.4516
-42.9483
-54.0863
-56.1491
-53.7896
-55.3463
-37.644
-43.0311
-40.3539
-43.9421
-39.2592
-44.5989
-41.559
-45.2492
-54.7302
-56.6497
-54.3687
-55.7506
-43.9207
-43.9274
-43.7872
-44.3453
-44.5205
-44.4299
-44.6165
-44.1648
-39.6977
-41.1515
-40.3905
-40.9881
-38.9722
-37.2659
-39.4484
-38.7519
-164.187
50.0691
-138.085
-42.3493
-118.475
-110.782
-55.5387
-46.6406
-49.1986
-48.4862
-48.4636
-45.5692
-83.2307
56.0845
-47.6235
41.6021
-68.8817
-58.2227
-45.0657
-39.2831
-36.8509
-37.0951
-44.3123
-39.6823
-138.213
-42.4822
-164.125
52.2418
-118.891
-110.934
-49.5312
-49.9397
-56.8686
-48.1418
-50.8028
-46.6859
-47.713
39.7816
-83.3598
56.7155
-66.9664
-58.4428
-38.9434
-39.6931
-47.3944
-41.4024
-46.4577
-41.8658
-49.5844
-51.5869
-44.298
-45.5535
-47.7849
-45.3056
-50.9896
-47.6239
-39.2064
-44.2067
-40.428
-41.2846
-40.6108
-40.05
-42.8953
-42.6907
-69.1336
-85.1015
-64.8875
-64.8191
-69.438
-88.6046
-86.8229
-128.379
-50.628
-52.2232
-49.5676
-49.289
-52.1823
-56.6745
-57.5724
-54.7907
-49.6198
-50.9579
-49.464
-47.3811
-44.4972
-45.3827
-47.7553
-45.4378
-40.911
-47.3651
-40.5446
-46.5303
-41.1674
-41.2907
-41.4888
-41.3375
-69.4166
-85.7824
-86.8403
-129.739
-65.1924
-65.1732
-69.835
-89.0435
-51.5724
-53.1217
-58.2035
-55.5656
-50.5085
-50.1451
-52.8086
-57.291
-152.665
61.6985
-134.117
62.8119
-134.709
-136.506
131.195
136.203
-128.052
-68.1119
-128.191
-69.1462
-110.352
-110.395
-58.2079
-58.3152
-68.1908
-69.6138
-48.1296
-51.3183
-63.1886
-54.187
-65.8265
-57.8556
-53.7292
-42.9411
-48.1784
-41.4543
-52.8346
-53.671
-41.3151
-40.6931
-47.8126
-47.2503
-48.7898
-47.4654
-47.0155
-47.7228
-45.0357
-45.294
-42.9814
-41.532
-53.1791
-49.1454
-44.9165
-43.8688
-43.1225
-41.235
-23.452
1.45245
-23.5373
1.68306
-16.9943
-17.0151
55.9658
55.6479
-73.1689
-36.714
-63.4257
-41.5303
-63.0624
-69.6767
-15.5919
-11.0272
-33.0527
-33.537
-34.6403
-35.3001
-33.8891
-34.5106
-35.1367
-34.2631
-47.0476
-46.091
-48.4377
-49.5802
-47.1042
-47.346
-49.8108
-48.9794
-153.003
61.4229
-133.066
63.2616
-134.852
-135.926
136.187
131.158
-68.8968
-70.0487
-49.465
-51.8354
-63.8589
-55.0648
-66.1422
-58.2462
-56.4801
-44.0753
-50.5928
-43.0632
-55.6164
-54.3
-42.3685
-42.3479
-45.2265
-42.2394
-49.889
-48.428
-43.2092
-44.9208
-43.2121
-41.4632
-73.265
-36.8434
-63.5682
-40.3698
-69.7382
-63.2167
-11.1886
-15.8199
-48.6602
-47.7939
-49.6148
-50.815
-48.5853
-48.5968
-50.3997
-50.9602
-42.3534
-43.2276
-40.9604
-41.1498
-42.3909
-41.7934
-43.9046
-42.5112
-48.5945
-47.1775
-52.5175
-52.3962
-50.4815
-51.7123
-47.7089
-50.3268
-52.5353
-49.6496
-52.6275
-49.5876
-52.5752
-52.4918
-49.0115
-49.0247
-41.7384
-40.9877
-44.6763
-43.8596
-42.6415
-44.2098
-41.1415
-42.5978
-44.1088
-46.3348
-45.903
-46.7288
-46.3124
-45.8671
-44.5601
-44.9118
-63.9476
-74.4539
-58.045
-63.7969
-56.9861
-59.4804
-79.307
-71.7922
15.2283
-57.1128
15.1957
-56.4705
37.3548
37.3171
-124.304
-124.024
-65.3831
-61.0199
-65.5876
-61.2562
-68.6897
-68.7852
-59.5904
-59.7144
-42.3333
-42.42
-41.6918
-40.5099
-42.7121
-42.3981
-43.2665
-41.716
-48.6341
-47.3676
-52.7227
-52.7112
-51.8523
-50.5382
-47.9843
-50.6727
-42.5848
-41.8258
-45.4823
-44.7255
-44.9406
-43.4143
-41.9271
-43.4147
-64.2243
-74.8473
-58.5957
-64.2334
-60.01
-57.5585
-72.2074
-79.7163
-71.9617
-72.4054
-66.6492
-59.4812
-62.1399
-68.418
-58.0862
-60.925
-72.2365
-72.6211
-66.9862
-59.89
-68.6666
-62.2138
-61.1581
-58.3335
-75.5912
-75.6454
-70.0075
-62.4691
-70.1206
-62.5858
-59.3941
-59.33
14.7732
14.6969
20.1658
34.6243
33.6922
19.9333
46.0513
47.1196
195.739
191.698
188.883
188.701