# vtk DataFile Version 2.0
tet_velo
ASCII
DATASET UNSTRUCTURED_GRID
POINTS 29498 float
-0.756062 0.235 -2.505
-0.754788 0.325 2.585
-0.765 0.675 -2.46757
-0.793594 0.915 2.445
0.756063 0.235 -2.505
0.754788 0.325 2.585
0.765 0.675 -2.46757
0.7936 0.915 2.445
-0.787567 0.23307 -0.808334
-0.816932 0.23328 0.888333
-0.875148 0.855616 -0.830047
-0.868725 0.919662 0.807477
0.787574 0.233064 -0.808334
0.816882 0.233331 0.888333
0.875157 0.855624 -0.830047
0.868724 0.919658 0.807477
-1.58387 -0.118271 -3.82376
-1.57991 -0.0606802 -2.49012
-1.60709 -0.0601621 -0.791922
-1.62458 -0.0681676 0.918177
-1.59123 -0.0103988 2.61737
-1.57923 0.0360421 3.95593
-1.58164 0.0750026 5.2854
-1.57998 0.150992 -3.82631
-1.57973 0.228484 -2.49913
-1.62103 0.250646 -0.812438
-1.6347 0.247313 0.879573
-1.57762 0.302086 2.56739
-1.56907 0.347286 3.90512
-1.57666 0.385967 5.23651
-1.5858 0.657901 -3.81481
-1.59986 0.733324 -2.48518
-1.68206 0.863169 -0.838807
-1.68086 0.90969 0.803372
-1.61209 0.920696 2.45087
-1.58889 0.963111 3.79104
-1.58763 1.00661 5.13197
-1.6029 1.53158 -3.84202
-1.61722 1.62025 -2.52124
-1.65666 1.75629 -0.894051
-1.6785 1.85112 0.720395
-1.66489 1.89321 2.34821
-1.64369 1.9209 3.67027
-1.6274 1.95475 5.00474
-0.785082 -0.115442 -3.82758
-0.771157 -0.0548792 -2.49568
-0.78904 -0.0684528 -0.791176
-0.813431 -0.0782271 0.925653
-0.791091 -0.000443671 2.63045
-0.778228 0.0427711 3.9648
-0.778089 0.0776374 5.29053
-0.780995 0.147156 -3.82749
-0.764016 0.354777 3.91243
-0.771769 0.388501 5.24038
-0.781947 0.632622 -3.80749
-0.77837 0.962703 3.78987
-0.778753 1.00657 5.13172
-0.784703 1.51482 -3.83479
-0.789325 1.60475 -2.51328
-0.822198 1.75286 -0.889249
-0.849311 1.85478 0.719819
-0.845445 1.89458 2.34409
-0.827788 1.92053 3.66616
-0.812887 1.95415 5.00176
0.779151 -0.11544 -3.82758
0.778381 -0.0548791 -2.49568
0.7994 -0.0684507 -0.791176
0.805247 -0.078194 0.925653
0.767649 -0.000430806 2.63045
0.794074 0.0427809 3.9648
0.814467 0.0776481 5.29053
0.772524 0.147157 -3.82749
0.799988 0.354783 3.91243
0.819362 0.38851 5.24038
0.782907 0.632624 -3.80749
0.812271 0.962708 3.78987
0.823598 1.00658 5.13172
0.837708 1.51482 -3.83479
0.851419 1.60475 -2.51328
0.851736 1.75287 -0.889249
0.82688 1.85478 0.719818
0.805319 1.89458 2.34409
0.806914 1.92053 3.66616
0.815108 1.95416 5.00176
1.57376 -0.118267 -3.82376
1.57654 -0.0606775 -2.49012
1.60809 -0.0601523 -0.791922
1.61981 -0.0681227 0.918176
1.58336 -0.0103669 2.61737
1.59466 0.0360656 3.95593
1.61498 0.0750247 5.2854
1.56761 0.150995 -3.82631
1.57036 0.228487 -2.49913
1.61607 0.25065 -0.812438
1.63506 0.24736 0.879573
1.58347 0.302114 2.56739
1.59757 0.347305 3.90512
1.61876 0.385987 5.23651
1.58379 0.657905 -3.81481
1.59636 0.733329 -2.48518
1.67897 0.863176 -0.838807
1.68001 0.909703 0.803372
1.61645 0.920713 2.45087
1.61503 0.963127 3.79104
1.62702 1.00662 5.13197
1.64743 1.53158 -3.84202
1.66556 1.62025 -2.52124
1.67894 1.7563 -0.894052
1.66135 1.85113 0.720394
1.63428 1.89323 2.34821
1.62757 1.92092 3.67027
1.63074 1.95477 5.00474
-0.811422 0.455 -2.53718
5.06639e-07 0.231268 -2.50873
-0.772994 0.232856 -1.65667
-0.770731 0.62 2.51154
0 0.309574 2.60043
-0.821085 0.243915 1.73667
0 0.718077 -2.51065
-0.856906 0.80214 -1.64881
3.01003e-06 0.966115 2.49612
-0.852194 0.938366 1.62624
0.811459 0.455 -2.53721
0.772997 0.232854 -1.65667
0.771348 0.62 2.51215
0.821299 0.243702 1.73667
0.856898 0.802131 -1.64881
0.852187 0.938353 1.62624
-0.802218 0.233207 0.04
-0.892129 0.544343 -0.81919
3.59097e-06 0.231791 -0.808334
-0.891865 0.576471 0.847905
-2.50402e-05 0.232129 0.888333
-0.87449 0.890193 -0.0112851
4.89139e-06 1.1952 -0.830047
-1.16458e-07 1.41935 0.807477
0.802221 0.233204 0.04
0.892161 0.544344 -0.81919
0.891757 0.576494 0.847905
0.87449 0.89019 -0.0112851
-0.868326 0.499672 -1.65274
-0.894479 0.560407 0.0143574
-0.876415 0.598236 1.68145
2.0488e-06 0.231628 -1.65667
-1.07246e-05 0.231976 0.04
-1.25201e-05 0.232817 1.73667
2.5332e-07 0.455 -2.71187
1.50502e-06 0.62 2.54567
2.4457e-06 0.883604 -1.64881
2.38747e-06 1.4329 -0.0112851
1.44679e-06 1.13764 1.62624
0.86833 0.499672 -1.65274
0.89448 0.560419 0.0143574
0.876369 0.598247 1.68145
-1.1679 0.231742 -2.50206
-0.763609 0.0900604 -2.50034
-0.768529 0.191078 -3.16624
-1.1662 0.313543 2.5762
-0.772939 0.162278 2.60772
-0.759402 0.339888 3.24871
-1.18243 0.704162 -2.47637
-0.773474 0.653811 -3.13753
-0.777162 1.13987 -2.49042
-1.20284 0.917848 2.44794
-0.785982 0.938852 3.11743
-0.81952 1.40479 2.39455
0.767222 0.0900604 -2.50034
0.764294 0.191079 -3.16624
1.16321 0.231743 -2.50206
0.761218 0.162285 2.60772
0.777388 0.339892 3.24871
1.16913 0.313557 2.5762
0.773954 0.653812 -3.13753
0.80821 1.13988 -2.49042
1.18068 0.704165 -2.47637
0.802935 0.938854 3.11743
0.799459 1.40479 2.39455
1.20503 0.917856 2.44794
-1.2043 0.241858 -0.810386
-0.788304 0.0823087 -0.799755
-1.22582 0.240297 0.883953
-0.815182 0.0775266 0.906993
-1.2786 0.859393 -0.834427
-0.848673 1.30424 -0.859648
-1.27479 0.914676 0.805424
-0.859018 1.38722 0.763648
0.793487 0.0823065 -0.799755
1.20182 0.241857 -0.810386
0.811065 0.0775684 0.906993
1.22597 0.240345 0.883953
0.863447 1.30425 -0.859648
1.27706 0.8594 -0.834427
0.847802 1.38722 0.763648
1.27436 0.91468 0.805424
-1.58189 -0.0894755 -3.15694
-1.58193 0.0163605 -3.82504
-1.18448 -0.116856 -3.82567
-1.5935 -0.0604211 -1.64102
-1.57982 0.083902 -2.49462
-1.17554 -0.0577797 -2.4929
-1.61583 -0.0641648 0.0631272
-1.61406 0.095242 -0.80218
-1.19806 -0.0643074 -0.791549
-1.6079 -0.0392832 1.76778
-1.62964 0.0895727 0.898875
-1.21901 -0.0731973 0.921915
-1.58523 0.0128217 3.28665
-1.58442 0.145844 2.59238
-1.19116 -0.00542122 2.62391
-1.58043 0.0555223 4.62066
-1.57415 0.191664 3.93052
-1.17873 0.0394066 3.96037
-1.57915 0.230485 5.26095
-1.17986 0.07632 5.28796
-1.57986 0.189738 -3.16272
-1.58289 0.404446 -3.82056
-1.18049 0.149074 -3.8269
-1.60038 0.239565 -1.65578
-1.5898 0.480904 -2.49215
-1.62786 0.24898 0.0335676
-1.65154 0.556908 -0.825623
-1.60616 0.274699 1.72348
-1.65778 0.578501 0.841473
-1.57334 0.324686 3.23626
-1.59485 0.611391 2.50913
-1.57286 0.366626 4.57081
-1.57898 0.655199 3.84808
-1.16654 0.351031 3.90877
-1.58215 0.696286 5.18424
-1.17421 0.387234 5.23845
-1.59283 0.695613 -3.14999
-1.59435 1.09474 -3.82841
-1.18387 0.645261 -3.81115
-1.64096 0.798247 -1.66199
-1.60854 1.17679 -2.50321
-1.68146 0.886429 -0.0177175
-1.66936 1.30973 -0.866429
-1.64648 0.915193 1.62712
-1.67968 1.38041 0.761883
-1.60049 0.941904 3.12096
-1.63849 1.40695 2.39954
-1.58826 0.984859 4.46151
-1.61629 1.44201 3.73066
-1.18363 0.962907 3.79045
-1.60751 1.48068 5.06836
-1.18319 1.00659 5.13185
-1.61006 1.57591 -3.18163
-1.1938 1.5232 -3.8384
-1.63694 1.68827 -1.70765
-1.20327 1.6125 -2.51726
-1.66758 1.80371 -0.0868281
-1.23943 1.75458 -0.89165
-1.67169 1.87217 1.5343
-1.2639 1.85295 0.720107
-1.65429 1.90706 3.00924
-1.25517 1.8939 2.34615
-1.63554 1.93783 4.33751
-1.23574 1.92071 3.66822
-1.22014 1.95445 5.00325
-0.778119 -0.0851605 -3.16163
-0.783039 0.0158572 -3.82753
-0.00296562 -0.115441 -3.82758
-0.780099 -0.061666 -1.64343
0.00361178 -0.0548792 -2.49568
-0.801236 -0.0733399 0.0672389
0.00517998 -0.0684517 -0.791176
-0.802261 -0.0393354 1.77805
-0.00409187 -0.0782105 0.925653
-0.784659 0.0211637 3.29762
-0.011721 -0.000437239 2.63045
-0.778158 0.0602042 4.62767
-0.771122 0.198774 3.93861
0.00792331 0.042776 3.9648
-0.774929 0.233069 5.26546
0.0181888 0.0776427 5.29053
-0.781471 0.389889 -3.81749
-0.00423555 0.147157 -3.82749
-0.767892 0.371639 4.57641
-0.771193 0.65874 3.85115
0.0179858 0.35478 3.91243
-0.775261 0.697538 5.18605
0.0237965 0.388506 5.24038
-0.783325 1.07372 -3.82114
0.000479855 0.632623 -3.80749
-0.778562 0.984639 4.46079
-0.803079 1.44161 3.72801
0.0169502 0.962706 3.78987
-0.79582 1.48036 5.06674
0.0224226 1.00658 5.13172
-0.787014 1.55978 -3.17403
0.0265026 1.51482 -3.83479
-0.805761 1.6788 -1.70126
0.0310474 1.60475 -2.51328
-0.835754 1.80382 -0.084715
0.0147692 1.75286 -0.889249
-0.847378 1.87468 1.53195
-0.0112152 1.85478 0.719819
-0.836616 1.90755 3.00513
-0.0200632 1.89458 2.34409
-0.820337 1.93734 4.33396
-0.0104368 1.92053 3.66616
0.00111027 1.95415 5.00176
0.778766 -0.0851597 -3.16163
0.775838 0.0158585 -3.82753
1.17645 -0.116853 -3.82567
0.78889 -0.0616649 -1.64343
1.17746 -0.0577783 -2.4929
0.802324 -0.0733223 0.0672389
1.20375 -0.0643015 -0.791549
0.786448 -0.0393124 1.77805
1.21253 -0.0731583 0.921915
0.780861 0.0211751 3.29762
1.1755 -0.00539884 2.62391
0.804271 0.0602145 4.62767
0.797031 0.198782 3.93861
1.19437 0.0394233 3.96037
0.816914 0.233079 5.26546
1.21472 0.0763364 5.28797
0.777716 0.389891 -3.81749
1.17007 0.149076 -3.8269
0.809675 0.371647 4.57641
0.806129 0.658746 3.85115
1.19878 0.351044 3.90877
0.82148 0.697546 5.18605
1.21906 0.387249 5.23845
0.810308 1.07372 -3.82114
1.18335 0.645264 -3.81115
0.817934 0.984645 4.46079
0.809592 1.44162 3.72801
1.21365 0.962918 3.79045
0.819353 1.48037 5.06674
1.22531 1.0066 5.13185
0.844564 1.55979 -3.17403
1.24257 1.5232 -3.8384
0.851578 1.67881 -1.70126
1.25849 1.6125 -2.51726
0.839308 1.80382 -0.0847151
1.26534 1.75458 -0.89165
0.816099 1.87468 1.53195
1.24412 1.85296 0.720106
0.806116 1.90756 3.00513
1.2198 1.89391 2.34615
0.811011 1.93734 4.33396
1.21724 1.92073 3.66822
1.22292 1.95446 5.00325
1.57515 -0.0894721 -3.15694
1.57068 0.0163643 -3.82504
1.59231 -0.0604149 -1.64102
1.57345 0.0839046 -2.49462
1.61395 -0.0641375 0.0631271
1.61208 0.0952489 -0.80218
1.60158 -0.0392448 1.76778
1.62744 0.0896185 0.898875
1.58901 0.0128494 3.28665
1.58341 0.145873 2.59238
1.60482 0.0555451 4.62067
1.59611 0.191685 3.93052
1.61687 0.230506 5.26096
1.56899 0.189741 -3.16272
1.5757 0.40445 -3.82056
1.59322 0.239568 -1.65578
1.58336 0.480908 -2.49215
1.62557 0.249005 0.0335675
1.64752 0.556913 -0.825623
1.60926 0.274737 1.72348
1.65754 0.578531 0.841473
1.59052 0.324709 3.23626
1.59996 0.611413 2.50913
1.60816 0.366646 4.57081
1.6063 0.655216 3.84808
1.62289 0.696305 5.18424
1.59007 0.695617 -3.14999
1.61561 1.09474 -3.82841
[...]
POINT_DATA 29498
VECTORS point_vectors float
-2.54557 -4.79739 9.24088
0.119372 0.324254 1.03089
-3.61634 1.9817 6.12584
0.128337 -0.053695 0.668752
2.55295 -4.88217 9.3305
-0.0945935 0.302907 0.971541
3.57571 1.95863 6.07809
-0.131258 -0.0310878 0.644826
0.00203854 0.00177545 0.226422
-0.0177492 0.00845219 0.427943
0.00128259 0.0182618 0.0749771
0.0047004 0.027529 0.0836458
-0.00212569 0.00175305 0.22635
0.0173128 0.00842252 0.424893
-0.00127723 0.0182932 0.0751679
-0.00473722 0.0277131 0.0836748
-0.448968 -0.196677 19.886
-1.10816 -0.603053 20.4549
-0.405178 -0.466994 21.3269
0.0914549 -0.0503001 21.5759
0.632892 0.290101 21.4427
0.818069 0.365219 20.7732
0.928411 0.182425 20.6043
-0.492103 -0.148342 19.8202
-1.42031 -0.527493 20.3943
-0.554249 -0.56632 21.3733
0.11459 -0.120186 21.6272
0.822883 0.140456 21.4904
0.960969 0.204467 20.9767
0.72226 -0.0390689 21.2991
-0.528873 0.00118464 19.7629
-1.60718 -0.0178907 20.2647
-1.17362 -0.390138 21.3259
-0.0906369 -0.298787 21.7277
0.75369 -0.273207 21.5191
0.998533 -0.342069 20.9977
0.892542 -0.246832 19.747
-0.390305 0.210304 19.8891
-0.923316 0.495552 20.2049
-1.09859 0.385917 21.085
-0.306032 -0.0457159 21.6413
0.257999 -0.359079 21.4099
0.367629 -0.447115 21.09
0.399144 -0.339643 20.9828
-0.390779 -0.377676 19.4825
-1.87348 -3.08937 20.9251
-0.0591964 -0.301073 20.5452
-0.032846 0.182421 20.1552
0.347119 1.24207 18.6132
0.71334 1.41002 18.0214
0.701312 0.990456 18.1357
-0.466904 -0.27945 19.3286
1.35647 1.65666 12.9585
1.27843 0.758678 14.5921
-0.528682 0.0243504 19.1923
1.92296 0.1084 10.8181
0.859075 -0.529238 14.7882
-0.327545 0.411899 19.5548
-1.08513 1.53208 19.7626
-1.9516 2.07029 20.9656
-0.472356 0.183395 22.2348
0.1594 -0.677236 21.6283
0.278092 -0.858928 21.1838
0.476411 -0.708425 21.0741
0.39041 -0.374768 19.4912
1.88669 -3.05188 20.9087
0.062691 -0.306228 20.6423
0.0314705 0.175343 20.0402
-0.274403 1.16363 18.2793
-0.525838 1.42607 18.264
-0.825652 0.911409 18.0547
0.465277 -0.277043 19.3222
-1.31136 1.5399 13.3177
-1.42722 0.531936 16.092
0.52839 0.0239418 19.1919
-1.89518 0.208381 12.4086
-0.438842 -0.39313 15.4778
0.349096 0.392786 19.5773
1.11316 1.42362 19.7985
1.96219 1.9746 20.9767
0.467658 0.196547 22.2552
-0.159881 -0.685296 21.6305
-0.324528 -0.822974 21.14
-0.64427 -0.804554 20.6002
0.447823 -0.201069 19.8775
1.10766 -0.610647 20.4589
0.401442 -0.470623 21.3227
-0.0948833 -0.054536 21.5603
-0.620739 0.281294 21.4118
-0.684531 0.286933 21.1528
-0.889159 0.110478 20.5131
0.49314 -0.147852 19.8134
1.43355 -0.533495 20.3951
0.554176 -0.569499 21.3747
-0.117816 -0.118172 21.6312
-0.786653 0.131968 21.4541
-0.898989 0.121422 20.9381
-0.956133 -0.0603776 20.6351
0.529427 0.0013438 19.762
1.61302 -0.0179544 20.2652
1.17342 -0.393411 21.3302
0.0908133 -0.29748 21.7225
-0.728411 -0.26082 21.4542
-0.967214 -0.304511 20.9301
-1.2528 -0.419043 21.0648
0.388363 0.202831 19.8988
0.895741 0.466897 20.2183
1.07128 0.369532 21.0837
0.309149 -0.0437173 21.6411
-0.259644 -0.351593 21.4065
-0.456491 -0.423585 21.0691
-0.449496 -0.472837 20.6666
-3.08674 -0.442391 3.74686
-0.00017662 -0.10474 0.569938
0.0258324 -0.00574158 0.244593
0.019767 -0.0225785 0.0981069
-0.0109839 0.0125094 0.0534422
-0.0505843 0.0935606 1.07606
0.00171974 0.128594 0.340286
-0.312945 -0.182419 1.07389
-0.00796889 0.0463003 -0.0319053
0.074561 0.0769764 0.31814
3.06674 -0.442285 3.73086
-0.0258805 -0.00574878 0.245385
0.0133567 -0.0181798 0.0205673
0.0488038 0.0909114 1.09631
0.31298 -0.182268 1.07418
-0.0759248 0.079244 0.318521
-0.00920587 0.00687512 0.222616
-3.22954e-05 0.00030673 0.00524949
-8.43045e-09 -6.83761e-09 2.40688e-05
0.000162472 0.00191264 0.00989808
-8.55183e-07 -3.08091e-08 0.000576491
0.00670045 0.0326113 0.0765972
2.33971e-05 0.0327932 0.0544571
-8.18145e-05 -0.000567111 0.00716117
0.00908539 0.00681109 0.222206
4.80891e-05 0.000425903 0.00734249
-0.000118023 0.00139943 0.00721105
-0.00669058 0.0325628 0.0765586
-0.00126035 -0.00451653 0.0364749
1.35208e-05 0.000167361 0.000832441
0.00251769 0.00842131 0.0542399
2.3647e-08 2.01518e-07 -8.38437e-05
-2.1198e-07 -2.14447e-07 0.000333695
-0.000183062 0.000572669 0.0325559
-0.000673183 -0.225896 0.647284
0 0 0
5.40539e-06 9.11892e-05 0.000680466
0 0 0
5.70173e-07 3.15296e-05 -7.31328e-05
0.00126696 -0.00455127 0.0366486
-1.35733e-05 0.000167824 0.000835423
-0.00242238 0.00827737 0.0519065
-2.67976 -1.37769 20.4764
-2.99505 -4.8568 21.3636
-1.50541 -1.12 18.275
1.26487 0.742396 20.0319
0.246764 1.32384 11.9105
0.776933 1.30087 9.33845
-3.29747 0.205452 20.1617
-1.81143 0.383036 17.7453
-2.33595 2.57782 19.4068
1.27041 -0.150282 19.8741
0.959379 0.104935 7.1972
1.11006 -0.4807 15.8973
3.01529 -4.81468 21.3504
1.50619 -1.12561 18.2546
2.69954 -1.39984 20.4759
-0.174641 1.21382 11.3785
-0.63054 1.24553 9.52831
-1.20555 0.714728 20.014
1.81128 0.383369 17.7514
2.35837 2.42373 19.438
3.30508 0.210411 20.1576
-1.01124 0.365528 7.65206
-1.16844 -0.442033 15.3398
-1.24337 -0.12265 19.8741
-0.341517 -0.938917 21.3364
0.342395 -0.129816 15.3305
0.241593 0.0369177 20.9241
-0.110806 0.226331 14.9222
-1.96791 -1.05794 21.7132
-5.05091 2.4475 20.7058
-0.0225861 -0.543594 21.3926
0.485725 0.765487 14.1996
-0.341937 -0.137858 15.436
0.336338 -0.940976 21.3143
0.10384 0.220443 14.8119
-0.242888 0.0333528 20.9176
4.94393 2.28392 20.8489
1.97051 -1.06423 21.7105
-0.584984 0.847548 13.5194
0.0198499 -0.54141 21.3833
-0.839572 -0.418884 19.9817
-0.481839 -0.177893 19.8578
-0.47413 -0.294829 19.6951
-0.731679 -0.577135 21.0549
-1.23592 -0.581243 20.4319
-1.60094 -1.33246 20.5441
-0.124846 -0.26123 21.4809
-0.471317 -0.497329 21.3435
-0.23461 -0.560901 21.4882
0.34373 0.13145 21.5446
0.0905061 -0.072911 21.5796
0.131044 0.0576649 21.6125
0.75681 0.389896 21.2894
0.728649 0.22817 21.4592
0.81274 0.718568 21.2892
0.635884 0.0974868 20.4664
0.931574 0.285759 20.9531
1.17286 0.673588 21.0415
0.865471 0.0907476 20.8686
0.717663 0.790503 21.1151
-0.96991 -0.322769 19.8652
-0.521587 -0.0747409 19.7773
-0.529109 -0.239345 19.5952
-0.966179 -0.61257 21.063
-1.5573 -0.275958 20.313
-0.177508 -0.342376 21.5522
-0.850205 -0.570765 21.3716
0.450974 0.0469772 21.6447
0.0491678 -0.240725 21.7009
0.994989 0.193478 21.1349
0.865576 -0.0598029 21.5514
1.03583 -0.024458 21.4999
1.00753 -0.0563165 21.2036
1.65083 0.634274 20.0029
0.742487 -0.171207 20.9768
0.754357 0.409517 20.6539
-1.0694 0.00761891 19.7926
-0.491793 0.132208 19.8008
-0.602103 -0.000416005 19.4894
-1.43117 -0.287113 20.8902
-1.3029 0.354178 20.1833
-0.613034 -0.402841 21.6688
-1.33564 0.0597311 21.2164
0.358651 -0.245735 21.6843
-0.259494 -0.169619 21.728
0.91288 -0.295942 21.2185
0.491977 -0.392941 21.4741
0.852841 -0.322412 21.3249
0.674842 -0.452147 21.029
1.55974 -0.382826 20.1745
0.425048 -0.503035 20.9112
0.949893 -0.374467 19.0428
-0.65428 0.362757 19.9416
-0.406552 0.275068 19.7313
-1.10447 0.476488 20.6334
-1.11815 0.911015 19.9978
-0.756993 0.169122 21.5247
-1.59911 0.914039 21.1171
0.04987 -0.230352 21.5599
-0.415827 0.0306626 21.8861
0.375447 -0.397726 21.2444
0.263743 -0.496592 21.4932
0.426562 -0.441034 20.8231
0.428681 -0.56648 20.9057
0.564117 -0.527346 21.4677
-1.07517 -1.31614 19.0711
-0.428841 -0.328563 19.4055
-0.00318839 -0.544517 19.2011
-0.501748 -0.798217 21.4103
0.00126689 -4.32975 21.5044
-0.0264735 -0.0113265 20.2964
-0.002658 -0.42352 18.9131
0.0561508 0.578066 19.049
-0.00728246 -0.0941628 17.3479
0.555748 1.43662 18.8348
-0.115185 0.570137 14.2537
0.639349 1.04784 18.6404
1.05411 1.59098 14.8978
-0.0859022 1.01587 12.3202
1.15512 0.98413 15.4647
-0.0626697 0.573788 12.8714
-0.513002 -0.143736 19.2383
-0.0055202 -0.424708 18.9793
1.88903 0.93747 11.8251
1.9934 1.08575 9.5538
0.152942 -0.680607 -0.316789
1.3628 0.296843 13.7163
0.00688574 0.0956022 9.47546
-0.446484 0.273468 19.3355
0.00151784 0.021854 18.746
1.77549 -0.170803 14.8655
1.10305 -1.07991 17.8992
0.0352129 -1.51837 -1.29702
0.750209 -0.744896 18.9535
0.236093 -1.0181 2.63125
-0.681366 0.918074 19.4277
0.0163101 0.53612 19.358
-1.40733 1.67337 20.2384
0.0507002 2.20381 19.4891
-1.40152 1.207 22.2598
0.0558065 3.94177 20.563
-0.0176219 -0.420962 21.9395
-0.0140994 0.515715 22.587
0.257609 -0.815083 21.409
-0.0115332 -0.622292 21.4966
0.401684 -0.700339 20.6147
-0.000117249 -0.92324 21.1371
-0.0569376 -0.380529 21.4511
1.07707 -1.31383 19.0765
0.427844 -0.325906 19.4067
0.474321 -0.305552 19.6877
0.507623 -0.80258 21.434
1.59734 -1.33292 20.5391
0.0245933 -0.0103296 20.2962
0.23368 -0.561784 21.4772
-0.0501998 0.557121 18.8155
-0.131785 0.0559269 21.6029
-0.426564 1.34644 18.6013
-0.770786 0.705571 21.2193
-0.806972 0.968007 17.3449
-0.923463 1.58367 14.7615
-0.92473 0.770214 21.1647
-1.12241 0.860471 16.0634
-0.640695 0.825754 21.2901
0.513127 -0.14274 19.2277
0.530246 -0.245566 19.5822
-1.42129 0.903724 13.2916
-1.84703 1.10915 10.8724
-1.58315 0.574065 20.1532
-1.24987 0.128085 14.8321
-1.08651 0.333387 21.399
0.454173 0.271333 19.3488
0.60274 -0.000501793 19.4881
-1.86824 -0.190251 14.0967
-1.16812 -1.02281 17.9946
-1.48713 -0.420591 20.8079
-0.664856 -0.541621 19.5104
-0.873619 -0.348256 19.706
0.701659 0.855685 19.4732
0.403094 0.259309 19.7519
1.44595 1.58156 20.2703
1.1013 0.832215 20.029
1.39754 1.19844 22.2538
1.55428 0.865169 21.1186
0.0166167 -0.424256 21.9505
0.416878 0.0392774 21.8975
-0.258387 -0.794791 21.434
-0.270301 -0.493313 21.4848
-0.450929 -0.839831 20.2958
-0.457513 -0.564972 20.9616
-0.521494 -0.635402 20.7385
0.837619 -0.419649 19.9721
0.484094 -0.180147 19.8497
0.732416 -0.582882 21.0491
1.24517 -0.587849 20.4411
0.121422 -0.262443 21.4794
0.472675 -0.503805 21.3427
-0.347331 0.129483 21.5421
-0.0913093 -0.0768832 21.5712
-0.710531 0.321969 21.201
-0.703783 0.218977 21.4302
-0.75271 0.189924 20.7364
-0.796512 0.207644 21.0454
-0.918483 0.0271118 20.5945
0.978148 -0.324321 19.855
0.521679 -0.0751253 19.7734
0.969021 -0.618127 21.0655
1.56751 -0.282546 20.3122
0.176032 -0.34449 21.547
0.849793 -0.57835 21.374
-0.44432 0.0457805 21.629
-0.0499367 -0.240814 21.6962
-0.918654 0.161538 21.2635
-0.832074 -0.0561597 21.4876
-0.706655 0.102007 21.3372
-0.987174 -0.026862 20.9348
-1.04678 -0.203313 20.6984
1.06962 0.00842419 19.7889
0.486628 0.129086 19.809
1.43417 -0.287651 20.8919
1.27863 0.339276 20.1937
0.612285 -0.401953 21.6639
1.31495 0.0611425 21.2121
-0.356419 -0.244096 21.6732
0.261954 -0.172866 21.7322
-0.866369 -0.308753 21.2594
-0.490376 -0.39181 21.4483
-0.888216 -0.312937 20.8797
-0.653707 -0.471 20.9513
-0.577482 -0.198071 20.7342
0.640706 0.341872 19.9637
1.08048 0.448908 20.6482
0.752891 0.170048 21.5187
-0.0486948 -0.227433 21.5762
-0.36607 -0.401872 21.2922
-0.415142 -0.371673 20.7373
-0.889174 -0.381561 19.9437
-1.26673 -1.28661 18.7317
-1.07418 -0.774361 19.607
-1.31592 -0.613316 19.3462
-0.501619 -0.267087 19.6451
-2.0936 -1.44399 20.5532
-0.836858 -0.576209 21.0517
0.155213 -0.403083 16.6701
-0.673451 -0.856468 21.3213
-0.949393 -1.16736 21.4617
-0.237678 -0.721459 21.5047
-0.147369 -0.2882 21.5038
-0.00918545 0.11788 14.8803
-0.0147613 -0.21763 21.5824
0.0547053 -0.385904 21.032
0.202233 0.0418257 21.4434
0.390063 0.101251 21.5683
-0.110571 0.587081 12.9611
0.407573 0.38614 21.5776
0.652893 0.433117 20.6809
1.04438 0.751627 20.9946
0.865894 0.28877 21.0774
0.693608 1.60108 14.4045
0.944611 0.811482 21.0794
1.49006 0.784925 20.0316
1.46825 0.594077 20.6998
0.819642 0.0386804 20.9786
1.45833 1.00996 14.963
0.844807 0.6214 22.1236
1.39945 0.450226 18.4881
0.712954 0.648968 21.0166
-1.04491 -0.1449 19.799
-1.75344 -0.455507 17.8419
-1.54237 0.101876 19.1364
-0.584892 -0.110232 19.51
-3.30359 -0.693977 20.2641
-1.21598 -0.493984 20.9957
-2.24637 -0.640384 21.0372
-0.968713 -1.25654 21.4932
-0.356443 -0.437787 21.63
-0.81079 -0.921233 21.8034
0.282184 -0.209182 20.894
0.444648 -0.11185 21.6796
0.707648 -0.183984 20.6353
1.42586 0.347911 19.5804
1.03956 -0.0590269 21.3089
0.839054 0.687862 6.09132
1.47411 -0.330063 20.1725
1.73959 0.252643 20.2459
1.08273 -0.178469 21.6529
2.11815 0.518933 11.1734
1.47573 -0.370256 19.7018
0.836771 -0.0772524 19.9693
-0.902208 0.269158 19.833
-1.19229 1.05101 18.7369
-0.746201 0.591652 19.7162
-0.515044 0.199164 19.5863
-1.9604 0.954052 19.9288
-1.41183 0.19934 20.7103
-2.77341 1.86469 20.1518
-1.39466 0.94452 20.4781
-2.42802 0.31489 21.3469
-0.816477 -0.0959626 21.652
-1.26713 0.420867 15.6364
-1.11391 0.48 21.8003
-0.451184 -0.256833 22.076
0.187627 -0.278614 21.6399
1.19349 0.060679 14.8114
0.0290865 -0.301313 21.7389
0.601617 -0.692072 21.5252
0.591836 -0.440147 21.2985
1.03267 -0.804973 17.4351
0.374661 -0.589128 21.3194
0.771314 -0.856092 21.3948
0.512059 -0.499908 20.9558
0.86079 -1.04593 18.9577
0.394161 -0.531247 21.307
0.686227 -0.518047 20.3271
1.26724 -1.2862 18.721
-0.00342758 -2.05364 18.385
-0.00662107 -1.89518 16.8998
-0.0071732 -0.547152 19.0512
-0.0024075 -5.89047 22.9454
-0.151246 -0.413748 16.8062
-0.000895724 -0.987874 20.9496
-0.00366039 -0.104758 10.8899
0.00591975 0.117517 14.8804
-0.00423364 -0.221025 17.9946
-0.00722053 -0.0172836 9.79941
0.101696 0.556616 12.6919
-0.0192451 0.188408 15.5142
-0.23351 0.366672 5.98055
-0.593211 1.4417 14.1597
-0.246199 0.520363 13.7405
-0.196442 -0.322538 -2.25903
0.067595 0.419345 5.63261
-1.07853 1.02409 14.5533
-0.361625 1.09179 13.1704
0.0646988 1.11772 6.96935
-0.0388436 0.375917 11.2266
1.75404 -0.456277 17.8309
0.00100281 0.856126 16.0058
-0.000355738 -0.207868 18.7779
-0.670668 0.986567 6.2802
0.0374102 -0.257716 -0.490904
0.261338 -2.34022 -3.29396
-1.87022 0.461365 11.927
-0.39297 -1.70067 0.0239195
0.117794 -0.4645 5.98865
1.20704 1.01465 18.782
0.0242526 1.29822 19.1226
0.00593146 0.416172 18.9787
0.0524064 4.22282 18.9459
2.7821 1.76927 20.1858
0.052913 2.60025 19.8931
0.0442279 6.619 17.9103
1.29043 0.410402 15.7827
0.00173506 2.56195 22.9062
0.00286696 -0.175754 6.46186
-1.26562 0.0776171 14.1246
-0.0101958 -0.296561 21.8265
-0.00611786 -0.321329 5.33684
-1.04613 -0.710135 17.2699
-0.0167364 -0.811258 21.3486
0.0138446 -1.07901 11.7358
-0.865673 -0.987761 18.9124
-0.0490225 -1.03689 20.8605
0.111021 -0.712693 11.735
0.898433 -0.385605 19.9249
1.07525 -0.781646 19.602
1.33057 -0.620644 19.3229
0.502381 -0.275787 19.635
2.09615 -1.44995 20.5443
0.844582 -0.58124 21.0509
0.672681 -0.857273 21.312
0.946093 -1.17547 21.4633
0.240527 -0.722102 21.4965
0.143906 -0.289743 21.5025
0.0169625 -0.217987 21.5739
-0.0569573 -0.38623 21.0114
-0.2031 0.0446147 21.4106
-0.390305 0.102316 21.5692
-0.400616 0.388342 21.5343
-0.649499 0.422499 20.6814
-0.999427 0.734207 20.8844
-0.807864 0.251068 21.2777
-0.869784 0.774195 21.0533
-1.40295 0.680992 20.2836
-1.24461 0.670988 20.8778
-0.708921 0.136408 21.0578
-0.747927 0.678928 21.5639
-1.37728 0.50415 19.668
-0.746757 0.676793 21.3653
1.05084 -0.148103 19.7899
1.54408 0.103339 19.1337
0.585452 -0.110202 19.5037
3.33392 -0.700268 20.2643
1.22065 -0.500735 20.9981
2.24848 -0.644479 21.0403
0.963962 -1.26271 21.4708
0.353687 -0.438979 21.631
0.808111 -0.922196 21.7846
-0.283791 -0.208081 20.8901
-0.440353 -0.11117 21.6689
-0.708208 -0.179611 20.6416
-1.37139 0.354349 19.5647
-0.983622 -0.0471931 21.298
-1.37817 -0.308275 20.3216
-1.68324 0.0804494 20.6096
-0.824823 -0.092009 21.1886
-1.57292 -0.413652 19.9718
-0.989872 -0.106428 20.2571
0.893066 0.261849 19.8492
0.738083 0.551417 19.7561
0.512496 0.191554 19.6051
1.92037 0.894279 19.9536
1.38795 0.192364 20.7138
1.36521 0.88487 20.498
2.37512 0.289888 21.3422
0.815224 -0.096364 21.6472
1.11002 0.477946 21.7952
0.456199 -0.2577 22.0808
-0.190059 -0.280911 21.6446
-0.0368079 -0.306152 21.7368
-0.606107 -0.689772 21.4886
-0.603646 -0.4161 21.3023
-0.35604 -0.57796 21.3103
-0.817745 -0.797171 21.4824
-0.62222 -0.38772 20.8672
-0.582898 -0.667519 21.128
-0.624807 -0.321557 20.7986
-1.17666 -0.719514 19.496
-0.77522 -0.9883 21.3879
0.0454161 -0.291354 21.4807
0.533073 0.422152 21.2195
1.22638 0.827528 20.6324
1.08259 0.537887 21.4334
-1.51523 -0.272804 19.1687
-1.6162 -1.14725 21.2754
-0.148061 -0.723763 21.1857
0.790781 0.225906 20.2984
1.68408 0.221671 19.8502
1.63254 0.0299004 17.8048
-1.16639 0.554858 19.3901
-2.1677 0.582905 20.5886
-1.42245 -0.118041 22.0866
0.25181 -0.470089 21.8565
0.72928 -0.784015 21.4038
0.723456 -0.720138 20.2309
-0.00662611 -2.09625 17.7795
-0.00253731 -0.284874 12.8281
-0.00375515 -0.0619827 10.1104
-0.02665 0.126541 8.17857
-0.49547 0.188659 5.01949
-0.166802 1.11489 10.1128
-0.00304812 -0.697027 16.1943
0.58908 -0.978515 -2.40845
-0.00367204 0.0750637 2.61899
0.023064 1.68979 17.9393
0.0463812 3.61537 19.5105
-0.00066322 0.407048 5.45487
0.0011049 -0.168119 4.79185
-0.0988049 -0.489027 8.68737
-0.0689638 -1.367 14.072
1.18057 -0.729781 19.48
0.77732 -0.991065 21.3803
-0.0462648 -0.292335 21.4657
-0.530824 0.42317 21.1648
-1.17557 0.734019 20.7739
-1.1112 0.616657 20.5516
1.52106 -0.272615 19.1551
1.61605 -1.15382 21.2756
0.14491 -0.722374 21.1641
-0.786699 0.224078 20.309
-1.5649 0.246627 19.8921
-1.43623 0.0151487 20.034
1.15077 0.523678 19.4312
2.11956 0.550167 20.5988
1.41883 -0.117543 22.0816
-0.264074 -0.474448 21.8467
-0.724039 -0.743265 21.3881
-0.744715 -0.746672 20.9494
-2.92573 -1.54441 4.10591
-0.0155949 -0.187698 0.873106
0.0451399 -0.0242978 0.813043
0.0558709 -0.00396925 0.146713
-0.0437864 0.0370507 0.133953
0.0199214 0.126269 1.38776
-3.27691 0.268486 3.30583
-0.0756952 0.644541 0.813725
-0.31397 -0.143749 1.20076
0.128749 0.015941 0.511991
-0.00425144 0.00376232 -0.00941852
0.115839 0.069177 0.652968
0.0156628 -0.187936 0.874175
2.93262 -1.54956 4.11808
-0.0453246 -0.0243617 0.813089
0.0328623 0.0294324 0.107077
-0.0495717 -0.000911191 0.134463
-0.0155712 0.115421 1.32019
0.073158 0.631914 0.797139
3.2644 0.26174 3.28818
0.314462 -0.143687 1.20288
-0.005444 0.00730306 -0.0152176
-0.119512 0.0260092 0.487886
-0.125921 0.0821635 0.650735
0.0279265 -0.00453645 0.389517
-0.00137452 0.000196597 0.111241
-0.0016476 0.00137618 0.154763
0 0 0
-0.0549556 0.0658985 1.26695
-0.0207663 0.0152373 0.51506
-0.00387756 0.0342529 0.242132
9.53385e-19 -2.02708e-19 7.67775e-17
-0.839739 -0.823672 1.82889
1.48405e-06 -2.83634e-05 -0.000302726
0.00514213 0.0313821 0.084753
-0.0230828 0.0290296 0.0567051
0.00995619 0.0283729 0.0902698
4.30598e-05 0.00058046 0.00243587
0.00743072 0.0402217 0.106897
0.0151597 -0.00342457 0.0812994
-0.027957 -0.0045511 0.388805
0 0 0
0.00131111 0.000185092 0.110875
0.0016532 0.0013179 0.155551
0.0565779 0.0644501 1.28299
0 0 0
0.0206434 0.0152794 0.520665
0.00383234 0.0342145 0.242034
0.839747 -0.823891 1.82957
0.0226108 0.0284566 0.0556198
-1.37662e-06 -2.4979e-05 -0.000266774
-0.00512859 0.031327 0.0846521
-0.0100443 0.0286039 0.090179
-0.0153474 -0.00341779 0.0816947
-5.03e-05 0.000676118 0.00282419
-0.00747855 0.0404652 0.107284
8.14009e-19 1.54621e-18 -3.28989e-17
-0.578511 0.251886 0.721805
-2.10593e-20 -9.60063e-19 9.74226e-17
0.0352571 -1.64045 0.838604
-0.00496491 -0.0177347 0.191421
3.94941e-06 -1.54599e-07 4.86497e-05
0 0 0
0 0 0
0 0 0
-0.0250888 -0.0221967 -0.0236751
0 0 0
-0.000411767 0.000881351 0.0493156
2.96136e-05 0.747382 0.220158
2.71621e-06 0.000273046 0.00150813
0 0 0
-0.0315707 0.00814178 0.0796926
-0.0167931 0.0842643 -0.00486571
0 0 0
0.000278602 0.00100761 0.00509709
0 0 0
0.589639 0.258866 0.73656
0 0 0
1.13811e-06 4.45276e-08 -1.397e-05
0.00498931 -0.017864 0.191796
0 0 0
0 0 0
4.46529e-05 0.00087251 0.0500214
-4.03524e-18 5.37401e-18 6.13407e-17
0.031493 0.00813615 0.0795845
0 0 0
0 0 0
-0.00027491 0.00101969 0.00499218
-0.000866573 0.00604348 0.0494081
0 0 0
-0.00166875 -0.00404696 0.0395575
0 0 0
0 0 0
1.87466e-08 4.82116e-08 -4.09938e-05
1.01244e-05 0.000195202 0.000970939
0.00034084 0.00343685 0.0186663
-3.27467e-07 -1.82749e-07 0.000368391
-3.7143e-06 1.53409e-06 0.00135331
4.80981e-05 0.000538757 0.00197426
0.00393362 0.0260799 0.438601
0 0 0
-3.624e-05 0.0947638 0.381028
0 0 0
6.05962e-08 6.408e-06 -1.34063e-05
0 0 0
0.000863195 0.00603353 0.0494578
0.00205117 -0.00493217 0.0481733
8.98111e-08 1.07754e-05 6.77589e-05
-9.73159e-06 0.000187006 0.00092988
-0.000340984 0.00344696 0.0186043