# vtk DataFile Version 2.0
tet_velo
ASCII
DATASET UNSTRUCTURED_GRID
POINTS 29498 float
-0.895 0.205 -1.79432
-0.899453 0.205 1.795
-0.73215 0.855 -1.835
-0.835 1.015 1.92448
0.895 0.205 -1.79432
0.899453 0.205 1.795
0.73215 0.855 -1.835
0.835 1.015 1.92448
-0.897387 0.204098 -0.59788
-0.898095 0.204874 0.59856
-0.850004 0.991904 -0.58184
-0.846743 1.00769 0.67132
0.897109 0.204375 -0.59788
0.89832 0.204649 0.59856
0.850006 0.991906 -0.58184
0.84674 1.00769 0.67132
-1.77229 -0.209923 -2.78607
-1.76307 -0.170122 -1.8062
-1.76685 -0.169191 -0.611227
-1.76698 -0.183006 0.572332
-1.76606 -0.186589 1.76634
-1.76566 -0.179012 2.7415
-1.76467 -0.165264 3.72538
-1.75861 0.148948 -2.78602
-1.74643 0.203503 -1.79995
-1.76207 0.218779 -0.593943
-1.76132 0.211874 0.606961
-1.7593 0.21115 1.81188
-1.7625 0.218846 2.78784
-1.76336 0.232071 3.76987
-1.6892 0.847832 -2.80184
-1.63698 0.901352 -1.81812
-1.70996 0.994351 -0.573439
-1.71721 1.01099 0.675257
-1.71132 1.01706 1.91885
-1.73563 1.02338 2.89246
-1.75017 1.03366 3.86534
-1.65636 1.98567 -2.78292
-1.63851 2.04685 -1.7907
-1.6652 2.1377 -0.527634
-1.69369 2.1937 0.747658
-1.70603 2.217 2.01013
-1.71714 2.2274 3.00111
-1.72817 2.23691 3.98018
-0.916124 -0.210146 -2.78241
-0.892444 -0.168491 -1.80086
-0.890591 -0.176001 -0.611943
-0.890707 -0.189411 0.565161
-0.89134 -0.192522 1.75381
-0.894476 -0.183882 2.733
-0.895221 -0.169094 3.72046
-0.919364 0.143689 -2.78489
-0.898535 0.214621 2.78083
-0.897378 0.228601 3.76616
-0.86254 0.826928 -2.80885
-0.878335 1.02105 2.89359
-0.889661 1.03137 3.86558
-0.813646 1.97246 -2.78985
-0.788983 2.03502 -1.79834
-0.810635 2.13476 -0.53224
-0.838477 2.19445 0.748211
-0.849825 2.21737 2.01408
-0.859636 2.22721 3.00505
-0.868774 2.23634 3.98305
0.821585 -0.210112 -2.78241
0.88498 -0.168432 -1.80086
0.89514 -0.175842 -0.611943
0.89604 -0.189524 0.565161
0.894021 -0.192572 1.75381
0.869101 -0.183916 2.733
0.854577 -0.169125 3.72046
0.792651 0.143708 -2.78489
0.857753 0.214598 2.78083
0.846896 0.228573 3.76616
0.751054 0.826938 -2.80885
0.836554 1.02104 2.89359
0.838567 1.03135 3.86558
0.847929 1.97248 -2.78985
0.874183 2.03503 -1.79834
0.882065 2.13477 -0.53224
0.868535 2.19445 0.748211
0.859176 2.21736 2.01408
0.854505 2.22719 3.00505
0.851901 2.23633 3.98305
1.69256 -0.209847 -2.78607
1.75133 -0.17 -1.8062
1.77257 -0.168994 -0.611227
1.77466 -0.183114 0.572331
1.77011 -0.186705 1.76634
1.74821 -0.179088 2.7415
1.7313 -0.165328 3.72538
1.66537 0.149003 -2.78602
1.73708 0.203581 -1.79995
1.76535 0.219014 -0.593944
1.76629 0.211737 0.606961
1.76164 0.211041 1.81188
1.73708 0.218779 2.78784
1.72282 0.232011 3.76987
1.61316 0.847866 -2.80184
1.63753 0.901379 -1.81812
1.7185 0.994436 -0.573439
1.72278 1.01097 0.675257
1.71312 1.01699 1.91885
1.70943 1.02332 2.89246
1.70936 1.03361 3.86534
1.68673 1.98571 -2.78292
1.71096 2.04689 -1.7907
1.73039 2.13772 -0.527634
1.72673 2.19371 0.747658
1.71949 2.21698 2.01013
1.71651 2.22737 3.00111
1.71588 2.23687 3.98018
-0.826568 0.53 -1.82765
0 0.201751 -1.79757
-0.897034 0.203708 -1.1961
-0.862183 0.61 1.8547
0 0.201471 1.79853
-0.898454 0.205257 1.19678
0 0.917309 -1.89731
-0.845099 0.977474 -1.20842
0 1.1407 2.05018
-0.844694 1.01517 1.2979
0.826566 0.53 -1.82765
0.89648 0.204262 -1.1961
0.862176 0.61 1.85469
0.898734 0.204977 1.19678
0.845131 0.977506 -1.20842
0.844675 1.01515 1.2979
-0.897741 0.204486 0.000339985
-0.890984 0.598001 -0.58986
-0.0001387 0.20051 -0.59788
-0.899882 0.606284 0.63494
0.000112442 0.200526 0.59856
-0.848537 0.999962 0.04474
1.05894e-06 1.28052 -0.58184
-1.4488e-06 1.51777 0.67132
0.897741 0.204486 0.000339985
0.89097 0.598141 -0.58986
0.899882 0.60617 0.63494
0.848534 0.999959 0.04474
-0.897212 0.564 -1.20226
-0.897015 0.602142 0.02254
-0.896787 0.608142 1.24734
-6.93499e-05 0.2005 -1.1961
-1.3129e-05 0.200518 0.000339985
5.62208e-05 0.200532 1.19678
0 0.53 -2.18183
0 0.61 2.17938
5.2947e-07 1.02034 -1.20842
-1.94929e-07 1.48827 0.04474
-7.24399e-07 1.50344 1.2979
0.897211 0.56407 -1.20226
0.897013 0.602155 0.02254
0.896788 0.608085 1.24734
-1.32072 0.204251 -1.79714
-0.893722 0.0182545 -1.79759
-0.907182 0.174345 -2.28961
-1.32938 0.208075 1.80344
-0.895396 0.006239 1.7744
-0.898994 0.20981 2.28792
-1.18456 0.878176 -1.82656
-0.797345 0.840964 -2.32192
-0.760567 1.44501 -1.81667
-1.27316 1.01603 1.92166
-0.856668 1.01803 2.40903
-0.842412 1.61618 1.96928
0.88999 0.0182839 -1.79759
0.843826 0.174354 -2.28961
1.31604 0.204291 -1.79714
0.896737 0.00621398 1.7744
0.878603 0.209799 2.28792
1.33055 0.20802 1.80344
0.741602 0.840969 -2.32192
0.803166 1.44502 -1.81667
1.18484 0.87819 -1.82656
0.835777 1.01802 2.40903
0.847088 1.61618 1.96928
1.27406 1.01599 1.92166
-1.32973 0.211438 -0.595912
-0.893989 0.0140482 -0.604912
-1.32971 0.208374 0.602761
-0.894401 0.00773152 0.581861
-1.27998 0.993128 -0.57764
-0.83032 1.56333 -0.55704
-1.28198 1.00934 0.673288
-0.84261 1.60107 0.709766
0.896125 0.0142666 -0.604912
1.33123 0.211695 -0.595912
0.89718 0.00756274 0.581861
1.3323 0.208193 0.602761
0.866036 1.56334 -0.55704
1.28425 0.993171 -0.57764
0.857638 1.60107 0.709766
1.28476 1.00933 0.673288
-1.76768 -0.190023 -2.29614
-1.76545 -0.0304875 -2.78604
-1.34421 -0.210035 -2.78424
-1.76496 -0.169656 -1.20871
-1.75475 0.0166905 -1.80308
-1.32776 -0.169306 -1.80353
-1.76691 -0.176098 -0.0194477
-1.76446 0.0247939 -0.602585
-1.32872 -0.172596 -0.611585
-1.76652 -0.184798 1.16934
-1.76415 0.0144342 0.589646
-1.32884 -0.186208 0.568746
-1.76586 -0.182801 2.25392
-1.76268 0.0122804 1.78911
-1.3287 -0.189556 1.76008
-1.76517 -0.172138 3.23344
-1.76408 0.0199168 2.76467
-1.33007 -0.181447 2.73725
-1.76402 0.0334032 3.74762
-1.32995 -0.167179 3.72292
-1.75252 0.176226 -2.29299
-1.72391 0.49839 -2.79393
-1.33899 0.146319 -2.78546
-1.75425 0.211141 -1.19695
-1.6917 0.552428 -1.80903
-1.7617 0.215327 0.00650893
-1.73601 0.606565 -0.583691
-1.76031 0.211512 1.20942
-1.73927 0.611434 0.641109
-1.7609 0.214998 2.29986
-1.73531 0.614103 1.86537
-1.76293 0.225458 3.27886
-1.74906 0.621111 2.84015
-1.33052 0.216733 2.78434
-1.75676 0.632866 3.81761
-1.33037 0.230336 3.76801
-1.66309 0.874592 -2.30998
-1.67278 1.41675 -2.79238
-1.27587 0.83738 -2.80534
-1.67347 0.947852 -1.19578
-1.63774 1.4741 -1.80441
-1.71358 1.00267 0.0509089
-1.68758 1.56602 -0.550536
-1.71427 1.01403 1.29705
-1.70545 1.60235 0.711458
-1.72348 1.02022 2.40565
-1.70868 1.61703 1.96449
-1.7429 1.02852 3.3789
-1.72639 1.62539 2.94678
-1.30698 1.02222 2.89302
-1.73917 1.63528 3.92276
-1.31991 1.03252 3.86546
-1.64743 2.01626 -2.28681
-1.235 1.97907 -2.78638
-1.65186 2.09227 -1.15917
-1.21375 2.04093 -1.79452
-1.67944 2.1657 0.110012
-1.23792 2.13623 -0.529937
-1.69986 2.20535 1.3789
-1.26608 2.19408 0.747935
-1.71158 2.2222 2.50562
-1.27793 2.21718 2.01211
-1.72266 2.23216 3.49065
-1.28839 2.22731 3.00308
-1.29847 2.23663 3.98161
-0.904284 -0.189319 -2.29164
-0.917744 -0.0332284 -2.78365
-0.0472695 -0.210129 -2.78241
-0.891517 -0.172246 -1.2064
-0.00373218 -0.168462 -1.80086
-0.890649 -0.182706 -0.0233909
0.00227472 -0.175922 -0.611943
-0.891023 -0.190966 1.15948
0.00266661 -0.189467 0.565161
-0.892908 -0.188202 2.2434
0.00134062 -0.192547 1.75381
-0.894849 -0.176488 3.22673
-0.896506 0.0153692 2.75691
-0.0126876 -0.183899 2.733
-0.896299 0.0297534 3.74331
-0.0203219 -0.16911 3.72046
-0.890952 0.485309 -2.79687
-0.0633564 0.143698 -2.78489
-0.897957 0.221611 3.27349
-0.888435 0.617838 2.83721
-0.020391 0.214609 2.78083
-0.893519 0.629985 3.81587
-0.0252408 0.228587 3.76616
-0.838093 1.39969 -2.79935
-0.0557429 0.826933 -2.80885
-0.883998 1.02621 3.37959
-0.868986 1.62413 2.94932
-0.0208906 1.02105 2.89359
-0.879218 1.63386 3.92431
-0.0255472 1.03136 3.86558
-0.801315 2.00374 -2.2941
0.0171414 1.97247 -2.78985
-0.799809 2.08489 -1.16529
0.0425997 2.03502 -1.79834
-0.824556 2.1646 0.107986
0.0357147 2.13477 -0.53224
-0.844151 2.20591 1.38114
0.015029 2.19445 0.748211
-0.85473 2.22229 2.50956
0.00467558 2.21736 2.01408
-0.864205 2.23178 3.49405
-0.00256565 2.2272 3.00505
-0.00843687 2.23634 3.98305
0.853282 -0.189272 -2.29164
0.807118 -0.0332023 -2.78365
1.25707 -0.20998 -2.78424
0.89006 -0.172137 -1.2064
1.31816 -0.169216 -1.80353
0.89559 -0.182683 -0.0233909
1.33385 -0.172418 -0.611585
0.89503 -0.191048 1.15948
1.33535 -0.186319 0.568746
0.881561 -0.188244 2.2434
1.33207 -0.189638 1.76008
0.861839 -0.176521 3.22673
0.863427 0.0153412 2.75691
1.30866 -0.181502 2.73725
0.850737 0.0297235 3.74331
1.29294 -0.167227 3.72292
0.771853 0.485323 -2.79687
1.22901 0.146355 -2.78545
0.852325 0.221585 3.27349
0.847154 0.617818 2.83721
1.29742 0.216688 2.78434
0.842731 0.629959 3.81587
1.28486 0.230292 3.76801
0.799492 1.39971 -2.79935
1.18211 0.837402 -2.80534
0.83756 1.02619 3.37959
0.84553 1.62412 2.94932
1.27299 1.02218 2.89303
0.845234 1.63384 3.92431
1.27396 1.03248 3.86546
0.861056 2.00376 -2.2941
1.26733 1.97909 -2.78638
0.878124 2.0849 -1.16529
1.29257 2.04096 -1.79452
0.8753 2.16461 0.107986
1.30623 2.13625 -0.529937
0.863856 2.2059 1.38114
1.29763 2.19408 0.747935
0.85684 2.22228 2.50956
1.28933 2.21717 2.01211
0.853203 2.23176 3.49405
1.28551 2.22728 3.00308
1.28389 2.2366 3.98161
1.72195 -0.189923 -2.29613
1.67897 -0.0304222 -2.78604
1.76195 -0.169497 -1.20871
1.7442 0.016791 -1.80308
1.77361 -0.176054 -0.0194477
1.76896 0.0250099 -0.602585
1.77238 -0.184909 1.16934
1.77047 0.0143113 0.589646
1.75916 -0.182896 2.25392
1.76588 0.0121681 1.78911
1.73976 -0.172208 3.23344
1.74264 0.0198452 2.76467
1.72706 0.0333415 3.74763
1.70122 0.176292 -2.29299
1.63927 0.498434 -2.79393
1.75121 0.211298 -1.19695
1.6873 0.55248 -1.80903
1.76582 0.215375 0.00650885
1.74192 0.606725 -0.583691
1.76396 0.211389 1.20942
1.74453 0.611352 0.641109
1.74936 0.21491 2.29986
1.73738 0.614014 1.86537
1.72995 0.225395 3.27886
1.72325 0.621052 2.84015
1.71609 0.632811 3.81761
1.62535 0.874622 -2.30998
1.64995 1.41679 -2.79238
1.67801 0.947908 -1.19578
1.67425 1.47413 -1.80441
1.72064 1.0027 0.0509088
1.72444 1.56608 -0.550536
1.71795 1.01398 1.29705
1.72476 1.60234 0.711457
[...]
POINT_DATA 29498
VECTORS point_vectors float
-7.05616 -7.18822 16.2272
0.702146 0.557334 5.24306
-0.913445 0.896125 1.94145
0.026739 -0.245934 0.753084
7.09515 -7.25358 16.2753
-0.738487 0.468008 5.06917
0.912485 0.898076 1.94114
0.0230937 -0.288433 0.651687
0.0490597 -0.00970141 2.68815
-0.0222525 0.0631157 2.81644
-0.0615921 -0.074463 0.597644
0.0365494 0.0709015 0.310359
-0.0526712 -0.0139271 2.66451
0.00466505 0.0449017 2.81459
0.0617381 -0.0749748 0.596986
-0.0358538 0.0698916 0.304353
-0.705132 -0.369992 20.071
-1.03152 -0.602631 20.7693
-0.466919 -0.445166 21.4459
-0.0586836 -0.240288 21.6846
0.394418 -0.000344879 21.8066
0.706819 0.174014 21.4254
0.769952 0.128275 21.366
-0.848876 -0.266945 19.9859
-1.44099 -0.541746 20.7451
-0.636491 -0.444132 21.4914
-0.0954725 -0.299738 21.7001
0.497374 -0.106053 21.8032
0.84208 -0.00992463 21.5427
1.05418 -0.0175061 21.1922
-0.984343 0.109424 19.8027
-1.85918 0.216652 20.5472
-1.16271 -0.260642 21.4799
-0.384043 -0.358235 21.7947
0.331237 -0.471584 21.7853
0.734697 -0.51703 21.5719
1.06865 -0.587096 20.7661
-0.554349 0.386159 20.0857
-0.820693 0.550112 20.484
-0.83688 0.416224 21.1763
-0.430946 0.0718264 21.6024
-0.0260255 -0.250388 21.599
0.194822 -0.420283 21.3747
0.26922 -0.589464 20.7717
-0.916087 -1.01987 19.4098
-1.5471 -2.63523 21.2664
-0.374012 -0.522989 21.9309
-0.0438585 -0.0738014 21.6856
0.435675 0.665884 21.8048
0.936203 1.2785 21.5017
1.20734 1.51392 20.9504
-1.29296 -0.877465 18.8305
1.91373 1.28769 15.1303
2.02777 1.1323 16.7466
-1.42814 0.40172 18.388
0.603386 -1.02467 9.19021
2.07367 -0.880999 13.7165
-0.510896 0.774139 19.7025
-0.849323 1.38919 20.2118
-1.11565 1.44466 21.1947
-0.587975 0.425263 21.9588
-0.17517 -0.278449 21.7788
0.0308322 -0.567961 21.3731
0.0671027 -0.695902 21.2127
0.872766 -1.09572 19.3239
1.52618 -2.65732 21.2681
0.353439 -0.521724 21.917
0.00503704 -0.0875899 21.6737
-0.491708 0.595287 21.7573
-0.956012 1.17682 21.5206
-1.20002 1.59668 20.952
1.26108 -0.995386 18.6075
-1.84081 1.02862 13.5305
-1.98622 1.13847 15.3011
1.40677 0.498995 18.1278
0.208794 -1.14803 5.05754
-1.66853 -0.87342 10.5892
0.513058 0.758937 19.7174
0.869972 1.2893 20.2372
1.10561 1.29884 21.1943
0.559598 0.428153 21.9157
0.138523 -0.168691 21.7359
-0.0647971 -0.443665 21.3368
-0.107248 -0.603574 21.2525
0.748045 -0.415923 20.0297
1.03388 -0.629965 20.7425
0.458486 -0.454175 21.4299
0.0525818 -0.25876 21.6616
-0.364537 -0.0670772 21.7537
-0.700261 0.119721 21.409
-0.770227 0.117523 21.4409
0.924074 -0.328004 19.9077
1.44547 -0.554394 20.7399
0.637077 -0.451006 21.4797
0.0979708 -0.314846 21.6821
-0.465135 -0.148302 21.7916
-0.837782 -0.0533476 21.5649
-1.05665 -0.0793014 21.2975
1.04516 0.128946 19.7254
1.85119 0.217597 20.5497
1.14987 -0.257543 21.467
0.391566 -0.356549 21.7515
-0.228704 -0.466798 21.7282
-0.624391 -0.525609 21.6664
-0.973945 -0.646741 20.9392
0.549204 0.378201 20.0947
0.791389 0.50553 20.5053
0.790206 0.387757 21.1709
0.412077 0.0793949 21.585
0.0533394 -0.202253 21.5535
-0.178894 -0.377348 21.3896
-0.211464 -0.533049 20.7419
-3.73225 0.0565739 2.74083
-5.70546e-05 -0.0469739 0.280744
-0.0314912 0.0975199 2.61728
0.0724871 -0.0301156 0.1479
-0.00486741 0.0566824 0.198705
0.027489 0.0272618 2.96578
-3.50637e-05 0.0403121 0.135142
-0.469862 -0.146439 1.16593
-0.012962 0.00348864 -0.010064
0.0131527 0.0294709 0.217685
3.71328 0.055583 2.72815
0.03382 0.097014 2.57754
-0.0682581 -0.043106 0.139881
-0.0577988 -0.00602977 2.95017
0.477283 -0.150114 1.191
-0.0118943 0.0268181 0.206154
-0.00296812 0.0326077 2.88347
-1.28441e-05 -6.68161e-05 0.000881128
6.13024e-08 1.94828e-08 -4.95425e-05
0.000110977 0.00452657 0.0450958
-1.75343e-08 7.06384e-10 2.53389e-06
0.0211375 0.0597864 0.354185
-0.000134289 0.0392462 0.0696621
8.61374e-07 -3.16558e-06 -0.000203595
-0.00737767 0.0227142 2.8755
1.31636e-05 -7.00508e-05 0.000886484
-9.88211e-05 0.00414311 0.0443955
-0.020906 0.0592344 0.352659
8.74648e-07 -0.000126623 0.000868543
3.77402e-05 0.00140213 0.0178885
0 0 0
-1.90561e-07 -3.31006e-07 5.49873e-05
3.43707e-08 -3.74122e-09 -2.40692e-05
-6.24157e-08 1.03546e-08 6.41881e-06
0 0 0
0 0 0
2.24051e-06 -3.55991e-05 -0.000260719
-0.000122381 0.00943764 0.0656117
0 0 0
-7.31849e-07 -0.000137248 0.000899179
-3.23502e-05 0.00132454 0.0178584
0 0 0
-2.64643 -1.32898 20.9274
-2.49915 -4.12077 21.5966
-2.95661 -2.3818 18.3874
0.883494 -0.04831 21.682
0.720545 0.858356 18.8834
1.59718 1.07916 12.1361
-3.80941 1.0337 20.4893
-3.71691 1.88044 16.9377
-1.88599 2.5137 19.9882
0.505138 -0.90765 21.5684
-0.258547 -0.899238 5.60854
0.0568872 -0.54051 19.7679
2.48027 -4.17462 21.61
3.03994 -2.82218 18.0738
2.66506 -1.34675 20.9204
-0.801577 0.761218 18.807
-1.52047 0.803802 10.9217
-0.831896 -0.142712 21.5963
3.76552 2.13679 16.5256
1.9061 2.3748 20.0083
3.80171 1.03676 20.4781
0.758061 -1.04344 3.31674
0.0170764 -0.239358 19.4762
-0.324752 -0.916821 21.412
-0.621656 -0.861125 21.8842
-0.141281 -0.184659 19.0582
0.0210348 -0.473804 21.6832
0.145956 0.0859649 18.0334
-1.83894 -0.685139 21.8165
-3.12403 2.09853 21.2362
-0.52946 -0.771987 21.9701
-1.20995 0.175756 21.7306
0.11933 -0.184765 19.1052
0.620485 -0.870019 21.8678
-0.191662 0.0669186 18.099
-0.016581 -0.501561 21.6472
2.98917 1.86724 21.2607
1.82589 -0.675842 21.7846
1.17642 0.209514 21.7665
0.542307 -0.767692 21.9193
-0.956858 -0.514407 20.3326
-0.776909 -0.318349 20.0288
-0.848472 -0.587471 19.8296
-0.787966 -0.559999 21.2211
-1.23626 -0.572188 20.7572
-1.44501 -1.25338 20.8994
-0.242801 -0.33714 21.5773
-0.558142 -0.449357 21.4845
-0.418464 -0.553002 21.6636
0.158157 -0.137255 21.7166
-0.0806564 -0.270952 21.6935
0.0211369 -0.209494 21.8012
0.574379 0.125009 21.6737
0.443744 -0.0531593 21.8064
0.555579 0.233199 21.9296
0.867363 0.260367 21.2879
0.773673 0.0818301 21.4842
0.997577 0.534927 21.7204
0.872311 0.200988 21.1869
1.07773 0.597804 21.2837
-1.23189 -0.433382 20.19
-0.96048 -0.107411 19.8665
-1.14031 -0.489221 19.5437
-1.04313 -0.520625 21.2533
-1.7896 -0.253005 20.662
-0.339309 -0.378405 21.6046
-0.885979 -0.443 21.5147
0.18774 -0.212694 21.7707
-0.217852 -0.395454 21.7881
0.726178 -0.0685538 21.7473
0.49268 -0.327475 21.8176
0.998013 0.141284 21.008
0.881554 -0.292991 21.5864
1.49041 0.173073 21.3679
1.1363 -0.260655 21.108
2.02053 0.294513 20.4774
-1.48458 0.201531 19.9864
-0.7731 0.343176 19.9307
-1.27135 0.202273 19.3045
-1.52163 -0.0486165 21.1695
-1.28554 0.563427 20.4506
-0.780557 -0.354103 21.6941
-1.20069 0.203621 21.3058
-0.00130102 -0.384138 21.8413
-0.521913 -0.126956 21.7378
0.572738 -0.503265 21.7064
0.0771478 -0.41402 21.66
0.842946 -0.539072 21.0467
0.386256 -0.500571 21.4295
1.11922 -0.992006 21.4427
0.552205 -0.670559 21.1213
1.13939 -0.697627 21.7011
-0.696913 0.487261 20.2382
-0.594546 0.57177 19.8824
-0.885105 0.529326 20.8443
-0.927878 0.920441 20.3767
-0.659221 0.249927 21.447
-1.06079 0.786252 21.206
-0.186217 -0.105285 21.5933
-0.534246 0.165484 21.7663
0.0741011 -0.36367 21.4439
-0.109889 -0.289926 21.6783
0.225598 -0.3726 21.2284
0.154526 -0.521761 21.3117
0.139091 -0.541706 21.6668
-1.47017 -2.00287 19.7376
-1.09885 -1.01891 19.1636
-0.0822145 -1.73194 18.8146
-0.753364 -1.15857 22.0388
-0.0110503 -3.28544 21.9581
-0.176303 -0.24907 21.7071
-0.00857072 -0.655526 21.856
0.131186 0.156791 21.5911
-0.0208546 -0.203196 21.0839
0.730556 1.10341 21.6242
-0.0493489 0.571791 21.0062
1.04315 1.21309 21.6247
1.39221 1.49088 19.3427
-0.0641571 1.41836 20.8668
1.54524 1.53334 19.732
-0.0314558 1.77938 20.3917
-1.54908 -0.330798 18.3485
-0.168241 -1.71641 17.4587
2.1364 1.63282 16.0413
1.57584 -0.651252 9.49821
-0.20281 0.831755 7.23605
2.49594 0.503777 13.523
0.0655076 1.85017 10.5615
-0.914295 0.940378 19.1318
-0.156084 0.889308 16.7503
1.75156 -1.22946 12.378
0.239769 -1.16478 19.9471
0.300525 1.76636 -4.02658
0.38811 -1.42993 19.789
0.815553 3.19155 -5.67456
-0.69321 1.13754 19.8817
0.0139641 1.04685 19.5025
-1.0118 1.46164 20.651
0.0570596 1.84451 20.0501
-0.926935 1.0131 21.773
0.046618 2.41381 21.1242
-0.323196 -0.0033562 21.9005
-0.0122867 0.880848 22.1826
-0.0920245 -0.435471 21.6847
-0.0791045 -0.0295108 21.8146
0.087464 -0.762048 21.1625
-0.116736 -0.332829 21.9489
-0.143978 -0.557792 21.5667
1.44507 -2.09782 19.6992
1.06232 -1.12381 18.9864
0.896234 -0.67867 19.7098
0.737512 -1.15736 22.035
1.45358 -1.28218 20.8881
0.147357 -0.253311 21.6935
0.410277 -0.561502 21.6444
-0.18267 0.126282 21.5712
-0.031623 -0.231681 21.7728
-0.770224 0.995151 21.5847
-0.545593 0.16046 21.8866
-1.01484 1.17811 21.7194
-1.39843 1.35995 18.9358
-1.0046 0.449651 21.7165
-1.58716 1.5019 19.3738
-1.11802 0.654695 21.2577
1.5432 -0.36433 18.0203
1.19495 -0.591706 19.3973
-2.22654 1.54211 14.9382
-1.25783 -1.09671 7.39173
-1.45527 0.0736564 21.3007
-2.38749 0.489113 11.6667
-2.12054 0.335009 20.4419
0.89349 0.969656 19.0863
1.34168 0.275979 19.1145
-1.56268 -1.32113 8.97627
-0.132557 -0.814714 19.0851
-0.915674 -1.05609 21.2795
-0.169025 -1.36331 18.6497
-1.26781 -0.705658 21.3916
0.704526 1.08934 19.9047
0.593158 0.555361 19.8901
1.01755 1.32901 20.6789
0.919966 0.847729 20.4009
0.922017 0.946799 21.7305
1.01193 0.698636 21.1842
0.286387 0.0480583 21.8476
0.512135 0.172973 21.7178
0.063086 -0.305164 21.667
0.115237 -0.20932 21.6442
-0.0809606 -0.62456 21.0906
-0.145824 -0.421485 21.2736
-0.100094 -0.525001 21.9617
1.00618 -0.589199 20.2708
0.846823 -0.374382 19.9674
0.768269 -0.572324 21.2143
1.23968 -0.592179 20.7412
0.242299 -0.348305 21.551
0.549931 -0.456002 21.4725
-0.156695 -0.164374 21.7058
0.0803113 -0.292993 21.6727
-0.570697 0.0473544 21.6552
-0.413971 -0.109046 21.7749
-0.919706 0.213994 21.3507
-0.762622 0.0341122 21.489
-0.895165 0.157511 21.2484
1.29568 -0.485322 20.1615
1.03495 -0.125703 19.7757
1.03422 -0.526514 21.2513
1.7983 -0.256225 20.6623
0.339507 -0.383665 21.584
0.877395 -0.444563 21.4989
-0.165837 -0.252547 21.7202
0.22572 -0.405909 21.7469
-0.689524 -0.131549 21.7354
-0.416759 -0.361887 21.7614
-0.988158 0.0813578 21.0349
-0.829392 -0.339651 21.6202
-1.15535 -0.339085 21.2056
1.56336 0.210071 19.9476
0.773481 0.349292 19.9202
1.5054 -0.0511155 21.1639
1.24521 0.527636 20.4595
0.773188 -0.350742 21.6687
1.15151 0.192593 21.2819
0.0335307 -0.386266 21.7915
0.513305 -0.112437 21.6909
-0.466817 -0.5302 21.668
0.000427213 -0.361511 21.6087
-0.855343 -0.592303 21.0152
-0.295555 -0.478345 21.5007
-0.530531 -0.622286 21.1422
0.679827 0.462495 20.2424
0.841612 0.48687 20.8446
0.622709 0.237638 21.4132
0.206124 -0.0654936 21.5975
-0.0511999 -0.29089 21.4118
-0.186976 -0.353828 21.2681
-1.09437 -0.473894 20.2613
-2.04531 -2.33092 19.2041
-1.27625 -1.00425 20.1182
-2.00155 -0.922405 19.7115
-1.00816 -0.565595 19.6748
-1.98448 -1.39024 20.9312
-0.91608 -0.54051 21.244
-0.802521 -0.867138 21.1972
-0.86313 -0.884814 21.5512
-1.35562 -1.05643 21.8309
-0.455783 -0.662705 21.7304
-0.289244 -0.355973 21.6019
0.0721934 -0.0202682 18.3008
-0.166691 -0.367935 21.7018
-0.251893 -0.673345 21.7982
0.07487 -0.311132 21.8687
0.173607 -0.171883 21.741
0.287493 0.222416 18.1231
0.236776 -0.0405475 21.8778
0.319797 -0.281283 21.6348
0.770294 0.157833 21.9855
0.648542 0.0269814 21.7175
1.14512 1.40149 19.0464
0.834046 0.415724 21.7869
1.31882 0.102739 21.4843
1.29352 0.417366 21.461
0.934845 0.200564 21.1542
1.66639 1.53662 19.1407
1.14819 0.550813 21.1918
1.55459 0.221455 21.3488
1.55855 0.483865 20.884
-1.44881 -0.168294 20.0578
-4.41633 -0.724176 16.5022
-2.45641 0.587582 19.2431
-1.33139 -0.199034 19.3379
-4.01533 -0.426667 20.7325
-1.30658 -0.355641 21.2786
-2.38668 -0.13966 21.6123
-1.11375 -0.802686 21.9625
-0.532853 -0.446213 21.6709
-1.15116 -0.815997 22.0941
-0.178705 -0.583427 21.4172
0.127468 -0.341726 21.8534
-0.0310775 -0.749866 21.8117
0.892676 -0.528888 21.3144
0.744782 -0.340359 21.7618
0.759795 -0.880931 5.49179
0.757621 -0.98239 21.5289
1.51869 -0.469266 21.3016
0.941396 -0.166583 21.0584
2.44496 -0.326731 11.6283
1.33831 -0.786486 21.6458
1.64383 -0.326549 21.2044
-1.081 0.504905 20.0788
-1.51401 1.86125 19.1694
-0.795113 0.783938 20.0712
-0.938331 0.571025 19.5727
-1.82835 1.25018 20.28
-1.3015 0.411164 20.9361
-2.20737 2.02352 20.568
-1.05183 0.898945 20.7819
-1.89907 0.58256 21.4058
-0.901828 0.021197 21.6017
-2.53657 1.02342 22.539
-0.853713 0.526596 21.5895
-0.820084 -0.0714697 22.0308
-0.171321 -0.262635 21.7333
-0.30793 -0.17476 20.4861
-0.276276 -0.088476 21.7526
-0.0174121 -0.530921 21.874
0.26396 -0.507538 21.6471
0.0982017 -0.744592 19.7327
0.0309003 -0.409215 21.5709
0.444465 -0.902625 21.6483
0.512653 -0.627343 21.2764
0.537335 -1.45511 20.6751
0.204504 -0.611239 21.4992
0.757947 -0.864335 20.6401
2.03426 -2.56901 19.0856
-0.0645106 -3.61441 19.4729
-0.18673 -7.86967 16.6307
-0.098905 -1.84488 18.2318
-0.00632144 -4.06714 22.8336
0.781481 -0.857074 21.1562
-0.0076206 -1.39958 22.4414
-0.00951869 -0.245907 15.4758
-0.102378 -0.0286984 18.3646
-0.0143984 -0.367701 21.2382
-0.0260959 -0.0471792 13.9157
-0.355239 0.183303 18.1406
-0.031367 0.0219529 20.7611
-0.075804 0.569404 14.7141
-1.16101 1.23441 18.6812
-0.0672071 1.09585 20.7243
-0.164374 0.539063 4.16671
-0.10138 1.37507 15.9083
-1.65531 1.41393 18.4207
-0.0283078 1.56097 20.4764
-0.161158 2.04769 9.67005
0.00921355 2.43706 17.6009
4.63966 -0.807268 15.8267
-0.249191 5.83736 12.7904
-0.203777 -0.622005 16.2731
-0.550237 -1.572 4.46175
0.0607402 -0.105117 -2.71056
0.194703 0.546713 -0.0794419
-2.24923 -0.451321 9.43943
0.695876 2.84889 -5.13737
0.462509 1.8123 2.6263
1.50469 1.85816 19.165
0.0385366 1.51349 19.698
-0.0374926 1.48677 18.5274
0.0572147 3.59519 19.7328
2.20486 1.89489 20.6061
0.0357949 2.12685 20.4372
0.0739285 5.27398 20.492
2.42299 0.968762 22.499
0.0208836 1.82352 21.9975
-0.0291802 1.11476 19.7829
0.303699 -0.0745631 20.4394
-0.044081 0.244786 22.0181
-0.424164 0.0624805 9.74601
-0.00959563 -0.357104 19.0433
-0.0943478 -0.157968 21.7868
-0.538211 -0.135963 8.76924
-0.409852 -1.2352 19.8236
-0.128462 -0.53539 21.5798
-0.179694 -0.0221913 7.27111
1.14842 -0.538936 20.2184
1.33072 -1.0842 20.0298
2.09492 -1.03154 19.6255
1.05604 -0.674386 19.561
1.99688 -1.4136 20.9288
0.902704 -0.549471 21.2391
0.854673 -0.893758 21.5383
1.35623 -1.06628 21.8265
0.450588 -0.673354 21.716
0.280458 -0.366698 21.5895
0.161527 -0.382323 21.6707
0.252409 -0.689652 21.7693
-0.0769105 -0.341139 21.8398
-0.161905 -0.205013 21.7074
-0.244463 -0.0838993 21.8384
-0.303157 -0.334836 21.5708
-0.748583 0.072616 21.9326
-0.629396 -0.0437008 21.7004
-0.820105 0.336162 21.7629
-1.25699 -0.017481 21.3985
-1.28304 0.341683 21.4645
-0.950528 0.154505 21.196
-1.18876 0.502594 21.2176
-1.55843 0.205101 21.2597
-1.6212 0.542762 20.8779
1.54107 -0.183137 20.0153
2.60655 0.705512 19.0924
1.41632 -0.226395 19.1215
4.03896 -0.41851 20.7215
1.30075 -0.361469 21.2728
2.37038 -0.134589 21.5928
1.10818 -0.798009 21.9415
0.531247 -0.446882 21.646
1.14824 -0.80715 22.0576
0.189308 -0.596666 21.3918
-0.0987295 -0.359757 21.8075
0.0828142 -0.753365 21.7166
-0.778261 -0.604391 21.1989
-0.662461 -0.38809 21.7609
-0.494487 -1.00702 21.2861
-1.4084 -0.595405 21.1573
-0.988319 -0.274542 21.1598
-1.20986 -0.849069 21.3065
-1.77439 -0.308375 21.0094
1.06871 0.502192 20.0807
0.798878 0.7448 20.0879
0.930738 0.600359 19.5473
1.78482 1.15018 20.2882
1.25244 0.384917 20.9251
1.02742 0.814936 20.7872
1.81839 0.532524 21.3867
0.87071 0.0219169 21.5635
0.815218 0.493181 21.5442
0.801484 -0.0548107 21.9651
0.190612 -0.248006 21.7165
0.27156 -0.0446307 21.697
0.119357 -0.418555 21.7906
-0.18226 -0.444501 21.6063
-0.0117697 -0.31913 21.5626
-0.315852 -0.819306 21.6542
-0.459258 -0.597756 21.2808
-0.170103 -0.537456 21.5457
-0.706597 -0.856506 20.6738
-1.65173 -1.04398 19.9249
-1.05692 -0.969132 21.6898
-0.143614 -0.473055 21.8023
0.3278 -0.127039 21.9395
1.11516 0.35828 21.8058
1.35884 0.388878 21.2784
-2.66609 -0.337526 19.2643
-2.02371 -0.700608 22.0152
-0.578656 -0.737893 21.745
0.205035 -0.487842 21.3516
1.27546 -0.55629 21.1856
1.63937 -0.342851 21.8818
-1.43747 0.978969 19.739
-1.90718 0.897242 20.8993
-1.45177 0.215089 21.9147
-0.349828 -0.301229 21.9942
0.153035 -0.693583 21.7627
0.528132 -0.911294 21.4212
-0.0914605 -5.04774 18.7011
-0.00640621 -0.857264 18.4135
-0.016621 -0.107536 14.3478
-0.0424973 0.057301 13.9358
-0.104394 1.10053 14.9189
-0.0878999 1.93725 17.1013
-0.39309 -1.71905 7.56427
-0.134708 -1.35423 0.68803
0.411699 1.58532 -0.268018
-0.0025697 3.04493 18.59
0.0608282 3.5176 19.7994
0.0211037 3.4619 22.3191
-0.104957 0.0539057 16.0132
-0.549361 0.00903445 9.19202
-0.309469 -0.896534 8.99363
1.7181 -1.13756 19.8683
1.0503 -0.980186 21.6855
0.138375 -0.490215 21.7832
-0.326189 -0.178849 21.8949
-1.09075 0.251969 21.7811
-1.37846 0.36084 21.2382
2.84968 -0.355925 19.0621
2.0201 -0.696003 22.0034
0.580184 -0.739232 21.7291
-0.169023 -0.524503 21.2839
-1.11528 -0.668506 20.8986
-1.55559 -0.36686 21.9566
1.42755 0.971146 19.7341
1.83937 0.837454 20.8942
1.39739 0.201896 21.8597
0.373369 -0.250374 21.9126
-0.0147842 -0.554016 21.7439
-0.425779 -0.899414 21.4582
-0.0753963 -0.0084705 0.123761
0.0287539 -0.11933 0.50221
-0.0645444 0.084278 2.92335
0.0625208 -0.0198038 0.167497
0.00168809 0.0383826 0.155776
0.0581423 0.0205024 3.21361
-0.764122 0.18748 1.22705
-0.0209367 0.173121 0.484368
-0.28848 0.0316704 0.873871
0.0369652 -0.0250166 0.17911
0 0 0
0.00927107 0.0107002 0.128591
-0.0292006 -0.118788 0.50083
0.0578111 -0.0070126 0.091427
0.0700717 0.0875181 2.85958
-0.00771674 0.0369554 0.151618
-0.0603269 -0.0270676 0.160889
-0.0949345 -0.023112 3.18302
0.0201659 0.170701 0.478361
0.785812 0.195998 1.26317
0.284922 0.0318594 0.864696
0 0 0
-0.0329207 -0.0356885 0.165822
-0.00631041 0.00606103 0.116612
0.054107 -0.00503473 2.75916
0.0206735 0.0156795 2.71529
-1.44615e-06 -5.67934e-06 0.00090406
0 0 0
-0.00189653 0.0371019 3.00144
-0.0187289 0.0570875 2.77405
4.60409e-07 4.33964e-05 0.000498905
0 0 0
-0.569973 -0.383637 1.01619
-3.76899e-06 -8.38041e-06 0.000531031
0.00109386 0.0242852 0.356232
-0.0838714 0.0700797 0.154689
0.0200725 0.0486165 0.260223
0.00127413 0.0164144 0.107127
0.0427827 0.0760315 0.322972
0.0292676 0.0359236 0.322481
-0.0557014 -0.00743753 2.73594
0 0 0
-0.0270441 0.00849627 2.69984
1.49229e-06 -9.66002e-06 0.000908674
-0.023219 0.0134697 2.99078
0 0 0
0.00575837 0.0433565 2.77109
-4.56327e-07 3.8392e-05 0.00049003
0.568324 -0.382959 1.01589
0.0839048 0.0705247 0.155591
7.12787e-06 -1.74342e-05 0.000966025
-0.00100187 0.0239219 0.354941
-0.0194585 0.0473859 0.252292
-0.0338271 0.0378756 0.319863
-0.00120636 0.0158262 0.106134
-0.0422507 0.0751945 0.31948
-7.16109e-05 -0.000251262 0.00116879
0 0 0
-1.30988e-07 -5.22218e-07 3.07836e-05
0.0144582 -9.02366 1.93878
2.86265e-06 2.66703e-05 0.000840232
-1.31977e-07 -2.58265e-08 4.15826e-06
2.31705e-05 4.9778e-05 0.00186438
-0.00482905 -0.0105382 7.62381e-05
-1.93212e-07 6.79542e-08 1.62971e-05
-0.0149001 -0.0331989 0.00132384
0 0 0
-1.84873e-07 -8.5781e-09 -5.43089e-06
0.00141327 0.0419115 0.0288324
-7.32346e-07 0.000137695 0.000862563
-0.00360303 -0.0179083 0.0832351
-0.00275465 0.000684937 0.00548801
-0.0124823 -0.0809168 0.00754298
-0.00604378 -0.00224513 0.00935068
0.000722467 0.00486373 0.0532252
0 0 0
0 0 0
7.24568e-05 -0.000263071 0.00118938
1.15835e-06 -2.39719e-07 3.8533e-05
-2.83978e-06 2.2491e-05 0.000825629
-0.000338094 -0.0186798 0.00187192
-2.01577e-05 4.68712e-06 0.00175653
1.65191e-06 -5.0183e-08 -3.49511e-05
0 0 0
0.00302181 0.00075556 0.0060648
0.00366693 -0.0173642 0.0810182
0 0 0
-0.00061569 0.00411228 0.0522087
-2.28771e-07 7.3619e-05 0.00102396
0 0 0
0 0 0
-8.483e-06 3.95543e-05 0.00179485
6.40309e-08 7.44905e-08 -3.05339e-05
2.9772e-10 -6.62385e-11 -2.91141e-07
0.000277071 0.0100425 0.0994326
0.00164179 0.00670269 0.080882
2.76342e-07 -6.08092e-09 -4.85501e-05
2.23552e-07 -2.09168e-08 -2.69703e-05
-8.86269e-19 -1.24476e-17 -5.21222e-17
-0.113674 0.0958699 0.784398
0 0 0
-0.000156886 0.0365167 0.132481
-2.2541e-05 0.000237327 0.00428906
1.66281e-06 -9.28099e-07 -0.000174984
0 0 0
2.2289e-07 6.83614e-05 0.0010271
0 0 0
9.77539e-06 3.63657e-05 0.00196957