# vtk DataFile Version 2.0
tet_velo
ASCII
DATASET UNSTRUCTURED_GRID
POINTS 29498 float
-0.715 0.255 -1.98011
-0.704861 0.345 2.025
-0.745 0.769295 -1.845
-0.675 1.0614 1.995
0.715 0.255 -1.9796
0.705 0.345 2.02528
0.745 0.769295 -1.845
0.675 1.0614 1.995
-0.791093 0.205527 -0.645073
-0.798543 0.224698 0.689964
-0.796027 0.941024 -0.565
-0.77826 1.04396 0.715
0.790899 0.205767 -0.64464
0.798601 0.224732 0.69032
0.797992 0.942989 -0.565
0.780946 1.04664 0.715
-1.49115 -0.156424 -3.06238
-1.49838 -0.110947 -2.0164
-1.5505 -0.14239 -0.679949
-1.55494 -0.142557 0.667584
-1.4942 -0.0597607 2.00497
-1.47716 0.00465737 3.05552
-1.48369 0.0582864 4.0976
-1.49022 0.167051 -3.01471
-1.49641 0.236803 -1.97473
-1.56072 0.226424 -0.648976
-1.5527 0.237648 0.681739
-1.4607 0.318381 2.00855
-1.45473 0.381243 3.0583
-1.47212 0.433988 4.10218
-1.50283 0.763415 -2.90385
-1.51579 0.830236 -1.86152
-1.56514 0.951243 -0.573268
-1.53883 1.02836 0.711078
-1.44015 1.06448 2.00036
-1.44397 1.12382 3.05234
-1.4681 1.18079 4.10505
-1.52123 1.77672 -2.77901
-1.53055 1.86371 -1.74495
-1.54706 2.01322 -0.474534
-1.54555 2.14074 0.784012
-1.52223 2.21353 2.05497
-1.5081 2.25931 3.09015
-1.50597 2.30738 4.13686
-0.731348 -0.146707 -3.0658
-0.72467 -0.0973172 -2.02144
-0.772969 -0.152034 -0.679126
-0.7929 -0.152322 0.674651
-0.751986 -0.0474843 2.01723
-0.738891 0.0136012 3.06386
-0.743727 0.0628029 4.10247
-0.731216 0.169424 -3.0157
-0.721045 0.391222 3.06518
-0.735421 0.438633 4.10586
-0.74179 0.739497 -2.89697
-0.712652 1.1259 3.05131
-0.73342 1.18309 4.10489
-0.754083 1.75927 -2.7722
-0.758914 1.84664 -1.73748
-0.774572 2.00904 -0.470005
-0.784408 2.14668 0.783535
-0.776117 2.21798 2.0512
-0.765868 2.26167 3.08639
-0.762954 2.30912 4.13415
0.756524 -0.146342 -3.06545
0.757532 -0.0970828 -2.02101
0.791349 -0.151691 -0.678732
0.776517 -0.152116 0.674984
0.715469 -0.0473593 2.01751
0.719041 0.0138304 3.06408
0.726712 0.0631712 4.10267
0.745977 0.169712 -3.01537
0.713172 0.391395 3.06539
0.724115 0.438986 4.10604
0.753123 0.73985 -2.89681
0.702948 1.12616 3.05142
0.719332 1.18352 4.10503
0.773561 1.76013 -2.77206
0.778127 1.84768 -1.73736
0.77398 2.01043 -0.469908
0.746754 2.14813 0.783626
0.716904 2.21904 2.0513
0.713662 2.26249 3.0865
0.718525 2.30986 4.13428
1.51037 -0.155475 -3.06174
1.51469 -0.110038 -2.01569
1.55994 -0.141249 -0.679282
1.55087 -0.141655 0.66816
1.48112 -0.0592377 2.00547
1.46575 0.00527965 3.05595
1.47055 0.0591121 4.098
1.49874 0.167942 -3.01412
1.49334 0.237726 -1.97405
1.5597 0.227889 -0.648358
1.55887 0.238822 0.682263
1.4692 0.318775 2.00899
1.45466 0.381797 3.0587
1.46441 0.434798 4.10255
1.50741 0.764477 -2.90348
1.51069 0.831529 -1.86122
1.56364 0.954086 -0.573007
1.5452 1.0314 0.711303
1.44771 1.06542 2.00057
1.44177 1.12461 3.0526
1.45748 1.18177 4.10536
1.53638 1.77849 -2.77871
1.54331 1.86579 -1.7447
1.54425 2.01586 -0.474308
1.51574 2.14344 0.784224
1.47559 2.21562 2.05519
1.46367 2.26099 3.09039
1.46551 2.30888 4.13713
-0.757596 0.512147 -1.94015
0 0.223703 -2.01115
-0.776825 0.206485 -1.31259
-0.707378 0.7032 2.02745
6.9499e-05 0.307743 2.0624
-0.768497 0.268054 1.35748
0 0.837106 -1.91281
-0.804993 0.889639 -1.205
0 1.09914 2.03274
-0.770622 1.09667 1.355
0.757567 0.512147 -1.93987
0.776995 0.206339 -1.31212
0.707548 0.7032 2.02769
0.768555 0.268112 1.3578
0.805004 0.889649 -1.205
0.770611 1.09666 1.355
-0.796906 0.213024 0.022445
-0.88511 0.573275 -0.605037
-9.70417e-05 0.199099 -0.644857
-0.865302 0.634328 0.702482
2.90051e-05 0.203241 0.690142
-0.795474 1.00082 0.075
0.000982525 1.34065 -0.565
0.00134315 1.52799 0.715
0.795739 0.214261 0.02284
0.886431 0.574378 -0.60482
0.868273 0.635688 0.70266
0.798376 1.00372 0.075
-0.883841 0.542711 -1.2588
-0.875145 0.603802 0.0487225
-0.891714 0.668764 1.35624
-4.85209e-05 0.199271 -1.31236
-3.40183e-05 0.204646 0.0226425
4.9252e-05 0.231741 1.35764
0 0.512147 -2.19269
3.47495e-05 0.7032 2.13727
0.000491262 0.954071 -1.205
0.00116284 1.5205 0.075
0.000671576 1.34507 1.355
0.884095 0.543263 -1.25856
0.875053 0.605033 0.04892
0.89169 0.669444 1.3564
-1.10571 0.245902 -1.97742
-0.719835 0.0788414 -2.00078
-0.723108 0.212212 -2.49791
-1.08278 0.331691 2.01677
-0.728424 0.148758 2.02112
-0.712953 0.368111 2.54509
-1.13039 0.799766 -1.85326
-0.743395 0.754396 -2.37099
-0.751957 1.30797 -1.79124
-1.05758 1.06294 1.99768
-0.693826 1.09365 2.52315
-0.725558 1.63969 2.0231
0.736266 0.0789586 -2.0003
0.730489 0.212356 -2.49749
1.10417 0.246363 -1.97683
0.710234 0.14882 2.02139
0.709086 0.368197 2.54533
1.0871 0.331888 2.01714
0.749062 0.754573 -2.3709
0.761564 1.30849 -1.79118
1.12784 0.800412 -1.85311
0.688974 1.09378 2.52321
0.695952 1.64022 2.02315
1.06135 1.06341 1.99778
-1.17591 0.215975 -0.647025
-0.782031 0.0267464 -0.6621
-1.17562 0.231173 0.685851
-0.795722 0.0361879 0.682307
-1.18059 0.946134 -0.569134
-0.7853 1.47503 -0.517503
-1.15855 1.03616 0.713039
-0.781334 1.59532 0.749267
0.791124 0.0270382 -0.661686
1.1753 0.216828 -0.646499
0.787559 0.0363083 0.682652
1.17874 0.231777 0.686292
0.785986 1.47671 -0.517454
1.18081 0.948538 -0.569003
0.76385 1.59739 0.749313
1.16307 1.03902 0.713152
-1.49476 -0.133686 -2.53939
-1.49068 0.00531343 -3.03855
-1.11125 -0.151566 -3.06409
-1.52444 -0.126668 -1.34818
-1.4974 0.0629282 -1.99557
-1.11152 -0.104132 -2.01892
-1.55272 -0.142473 -0.00618286
-1.55561 0.042017 -0.664462
-1.16173 -0.147212 -0.679537
-1.52457 -0.101159 1.33628
-1.55382 0.0475456 0.674661
-1.17392 -0.147439 0.671117
-1.48568 -0.0275517 2.53024
-1.47745 0.12931 2.00676
-1.12309 -0.0536225 2.0111
-1.48042 0.0314719 3.57656
-1.46595 0.19295 3.05691
-1.10802 0.00912927 3.05969
-1.4779 0.246137 4.09989
-1.11371 0.0605446 4.10003
-1.49332 0.201927 -2.49472
-1.49653 0.465233 -2.95928
-1.11072 0.168238 -3.01521
-1.52857 0.231614 -1.31185
-1.5061 0.53352 -1.91812
-1.55671 0.232036 0.0163816
-1.56293 0.588834 -0.611122
-1.5067 0.278015 1.34514
-1.54577 0.633006 0.696408
-1.45772 0.349812 2.53343
-1.45043 0.691433 2.00445
-1.46343 0.407615 3.58024
-1.44935 0.752532 3.05532
-1.08789 0.386233 3.06174
-1.47011 0.807391 4.10361
-1.10377 0.436311 4.10402
-1.50931 0.796826 -2.38268
-1.51203 1.27007 -2.84143
-1.12231 0.751456 -2.90041
-1.54046 0.89074 -1.21739
-1.52317 1.34697 -1.80324
-1.55199 0.989803 0.068905
-1.5561 1.48223 -0.523901
-1.48949 1.04642 1.35572
-1.54219 1.58455 0.747545
-1.44206 1.09415 2.52635
-1.48119 1.63901 2.02767
-1.45604 1.15231 3.5787
-1.47603 1.69157 3.07124
-1.07831 1.12486 3.05183
-1.48703 1.74409 4.12096
-1.10076 1.18194 4.10497
-1.52589 1.82021 -2.26198
-1.13765 1.76799 -2.7756
-1.5388 1.93846 -1.10974
-1.14473 1.85518 -1.74122
-1.5463 2.07698 0.154739
-1.16082 2.01113 -0.47227
-1.53389 2.17713 1.41949
-1.16498 2.14371 0.783773
-1.51516 2.23642 2.57256
-1.14917 2.21575 2.05309
-1.50703 2.28334 3.6135
-1.13698 2.26049 3.08827
-1.13446 2.30825 4.1355
-0.728009 -0.122012 -2.54362
-0.731282 0.0113589 -3.04075
0.012588 -0.146525 -3.06562
-0.748819 -0.124676 -1.35028
0.016431 -0.0972 -2.02123
-0.782935 -0.152178 -0.0022374
0.00918994 -0.151862 -0.678929
-0.772443 -0.0999031 1.34594
-0.00819179 -0.152219 0.674817
-0.745438 -0.0169416 2.54054
-0.0182587 -0.0474218 2.01737
-0.741309 0.038202 3.58316
-0.729968 0.202412 3.06452
-0.00992479 0.0137158 3.06397
-0.739574 0.250718 4.10416
-0.0085075 0.062987 4.10257
-0.736503 0.454461 -2.95634
0.00738043 0.169568 -3.01554
-0.728233 0.414928 3.58552
-0.716849 0.758559 3.05825
-0.00393657 0.391309 3.06528
-0.734421 0.810863 4.10537
-0.00565316 0.43881 4.10595
-0.747936 1.24938 -2.83459
0.00566673 0.739674 -2.89689
-0.723036 1.15449 3.5781
-0.73926 1.69378 3.06885
-0.00485173 1.12603 3.05136
-0.748187 1.7461 4.11952
-0.00704395 1.18331 4.10496
-0.756498 1.80295 -2.25484
0.0097391 1.7597 -2.77213
-0.766743 1.92784 -1.10374
0.00960648 1.84716 -1.73742
-0.77949 2.07786 0.156765
-0.000295621 2.00973 -0.469957
-0.780262 2.18233 1.41737
-0.0188265 2.14741 0.78358
-0.770992 2.23982 2.56879
-0.0296062 2.21851 2.05125
-0.764411 2.28539 3.61027
-0.0261027 2.26208 3.08644
-0.0222143 2.30949 4.13421
0.757028 -0.121713 -2.54323
0.751251 0.0116847 -3.04041
1.13345 -0.150909 -3.0636
0.77444 -0.124387 -1.34987
1.13611 -0.10356 -2.01835
0.783933 -0.151903 -0.00187399
1.17564 -0.14647 -0.679007
0.745993 -0.0997374 1.34625
1.16369 -0.146885 0.671572
0.717255 -0.0167645 2.5408
1.0983 -0.0532985 2.01149
0.722877 0.0385008 3.58338
0.716107 0.202613 3.06473
1.09239 0.00955501 3.06002
0.725414 0.251079 4.10436
1.09863 0.0611416 4.10034
0.74955 0.454781 -2.95609
1.12236 0.168827 -3.01474
0.718644 0.41519 3.58571
0.70806 0.758778 3.0584
1.08392 0.386596 3.06204
0.721723 0.811255 4.10554
1.09426 0.436892 4.1043
0.763342 1.24999 -2.83444
1.13027 0.752164 -2.90014
0.71114 1.15484 3.57822
0.708305 1.69433 3.06896
1.07236 1.12539 3.05201
0.718928 1.74669 4.11966
1.08841 1.18265 4.10519
0.775844 1.8039 -2.25471
1.15497 1.76931 -2.77538
0.776054 1.92905 -1.10364
1.16072 1.85674 -1.74103
0.760367 2.07928 0.156859
1.15911 2.01314 -0.472108
0.731829 2.18359 1.41746
1.13125 2.14579 0.783925
0.715283 2.24077 2.5689
1.09625 2.21733 2.05324
0.716094 2.28617 3.61039
1.08867 2.26174 3.08844
1.09202 2.30937 4.13571
1.51253 -0.132756 -2.53871
1.50456 0.00623359 -3.03793
1.53732 -0.125643 -1.34748
1.50401 0.0638442 -1.99487
1.55541 -0.141452 -0.00556105
1.55982 0.04332 -0.66382
1.516 -0.100446 1.33681
1.55487 0.0485837 0.675211
1.47343 -0.026979 2.53071
1.47516 0.129769 2.00723
1.46815 0.0321959 3.57698
1.46021 0.193538 3.05732
1.46748 0.246955 4.10027
1.49604 0.202834 -2.49408
1.50308 0.46621 -2.9588
1.52652 0.232808 -1.3112
1.50201 0.534627 -1.91764
1.55929 0.233356 0.0169527
1.56167 0.590987 -0.610682
1.51403 0.278799 1.34563
1.55203 0.635112 0.696783
1.46193 0.350286 2.53384
1.45845 0.692098 2.00478
1.45954 0.408297 3.58062
1.44822 0.753205 3.05565
1.46095 0.808283 4.10395
1.50905 0.798003 -2.38235
1.52189 1.27148 -2.84109
1.53716 0.892807 -1.21711
1.527 1.34866 -1.80296
1.55442 0.992744 0.0691484
1.55394 1.48497 -0.523657
1.49645 1.04841 1.35594
[...]
POINT_DATA 29498
VECTORS point_vectors float
-0.957093 -1.1106 2.05087
0.118558 0.144175 0.419976
-3.02675 1.38934 5.56368
-0.156972 -0.21377 0.207259
0.918077 -1.10134 2.04548
-0.118916 0.148552 0.427627
3.03766 1.39749 5.58423
0.154527 -0.211845 0.203279
0.00932007 0.00236838 0.826029
0.000764078 -0.000200525 0.0117291
0 0 0
0 0 0
-0.00927863 0.00241457 0.811214
-0.000837832 -0.000177784 0.0137118
0 0 0
0 0 0
-0.617976 -0.330877 19.8716
-1.24284 -0.82704 20.5257
-0.428186 -0.524526 21.4593
0.139363 -0.212485 21.6372
0.779125 0.0874774 21.6286
1.17856 0.255253 21.406
1.16473 0.14811 20.4773
-0.780646 -0.282524 19.7276
-1.79055 -0.751002 20.4748
-0.619736 -0.664638 21.5613
0.105784 -0.400088 21.7238
1.0007 -0.217849 21.736
1.44273 -0.108341 21.2753
1.24424 0.143244 21.1026
-0.961887 0.0309446 19.6284
-2.07876 0.00716357 20.4049
-1.33936 -0.484486 21.5577
-0.382701 -0.536157 21.8021
0.416968 -0.808162 21.7612
0.817463 -0.901007 21.5523
0.789036 -0.750036 20.6058
-0.65698 0.374943 19.9263
-1.07576 0.6322 20.3623
-1.04998 0.432543 21.2185
-0.452467 -0.0197358 21.5498
-0.0639999 -0.282119 21.4765
0.170485 -0.508977 21.3315
0.188384 -0.623064 20.542
-0.612894 -0.723397 19.3051
-1.71442 -3.40152 20.7614
-0.169407 -0.453786 21.9334
0.267239 0.155826 21.4775
0.88153 1.31303 20.1674
1.40119 1.85374 20.0184
1.04379 1.43099 19.7083
-0.826716 -0.63806 18.8502
2.35064 1.38199 11.4456
2.48885 1.40753 14.6725
-1.14877 0.209154 18.3628
-0.171498 -0.927065 4.62281
1.49034 -1.86547 12.2894
-0.588433 0.844516 19.4506
-1.16177 1.67581 19.9533
-1.52472 1.84072 21.3765
-0.586569 0.362008 21.9506
-0.249986 -0.220371 21.6777
-0.0951952 -0.50678 21.2095
-0.000903435 -0.522117 21.5391
0.621727 -0.697263 19.3217
1.7803 -3.26482 20.7015
0.162973 -0.456526 21.9172
-0.253884 0.169276 21.4686
-0.81391 1.34361 20.0997
-1.35168 1.87383 19.9807
-0.999657 1.50397 19.6621
0.843349 -0.62001 18.8719
-2.3351 1.39875 11.2247
-2.51237 1.48298 14.4693
1.15295 0.209855 18.3845
0.17356 -0.894863 4.36537
-1.51044 -1.86665 11.8657
0.5989 0.824819 19.4692
1.17131 1.65002 19.9625
1.52264 1.85019 21.3739
0.576915 0.386741 21.9686
0.268356 -0.17895 21.7112
0.110824 -0.476641 21.3333
0.0265093 -0.531903 21.6239
0.614196 -0.320982 19.8672
1.23275 -0.803212 20.529
0.440197 -0.534769 21.4542
-0.13478 -0.213425 21.6317
-0.775765 0.102676 21.64
-1.18787 0.281008 21.3899
-1.17315 0.166171 20.516
0.776726 -0.276669 19.7393
1.80687 -0.760918 20.4764
0.624472 -0.670576 21.5665
-0.102947 -0.400452 21.73
-0.990248 -0.220408 21.7355
-1.44491 -0.115278 21.2822
-1.25329 0.150472 21.1086
0.95891 0.0267212 19.6393
2.09564 0.0146216 20.3991
1.35011 -0.485429 21.567
0.372722 -0.527995 21.8201
-0.418535 -0.791038 21.7296
-0.818322 -0.897908 21.5551
-0.822718 -0.760324 20.5422
0.654309 0.366583 19.9369
1.06526 0.618904 20.3684
1.05369 0.436596 21.2238
0.465302 -0.0145344 21.564
0.0824381 -0.296404 21.5014
-0.165638 -0.499135 21.2571
-0.121832 -0.613708 20.7816
-0.649119 -0.0190187 0.766434
-1.27217e-05 -0.0115113 0.0595202
-0.0401607 -0.0403011 0.901147
0.00399651 -0.0647926 0.0302534
0.000408802 0.0475687 0.159473
0.00593495 0.00641724 0.15215
0.00144432 0.0418484 0.113275
-0.429344 -0.320596 1.0182
0.000205639 0.0271609 -0.0804493
0.0187011 0.00919418 0.193748
0.67624 -0.0178761 0.799818
0.0384184 -0.0385917 0.894838
-0.00471289 -0.0652884 0.0313789
-0.00639586 0.00633822 0.155643
0.431521 -0.32502 1.01024
-0.0179163 0.00844989 0.186159
0.00280673 0.00846228 0.618419
-0.000694577 0.000614594 0.135726
0 0 0
7.55651e-05 0.0014515 0.00812828
-9.17214e-05 -0.000432186 0.0365369
0 0 0
0.000749174 0.0300639 0.0558101
-1.2742e-05 -0.00025446 0.0101698
-0.0119356 0.0063923 0.459451
0.000484939 0.000589644 0.0928584
-4.67804e-05 0.00100777 0.00558336
-0.000899991 0.00541846 0.0181848
-0.00214725 -0.00500249 0.0540309
6.50693e-20 -8.16397e-18 -5.59219e-17
0 0 0
1.12569e-05 -5.45542e-05 0.00309088
0 0 0
0.000241487 0.0024812 0.0535506
-0.00011539 0.00796206 0.0518329
3.74087e-05 -0.00332746 0.000851433
0 0 0
3.90811e-05 0.00365331 0.0410447
-8.51659e-06 0.00101758 -0.00201952
0.00152876 -0.00365091 0.0388533
0 0 0
0 0 0
-3.45637 -1.88888 20.3149
-2.75524 -5.49436 20.8666
-2.26554 -1.9327 17.6514
1.65953 0.277194 18.8193
0.785856 1.46056 13.4495
1.48149 0.708941 7.40727
-4.01396 0.491438 20.2271
-3.41031 1.30575 16.6629
-2.54694 2.64709 19.5887
0.544394 -0.821016 17.685
-0.700656 -0.926453 1.36277
-0.170468 -0.394743 17.2294
2.8346 -5.36066 20.79
2.27201 -1.90844 17.6867
3.48722 -1.91118 20.3127
-0.732684 1.44016 13.1164
-1.47029 0.712709 7.29392
-1.6545 0.276531 18.8841
3.40637 1.29089 16.7113
2.55662 2.61656 19.5979
4.03701 0.510663 20.2178
0.722278 -0.939817 1.19845
0.190322 -0.392235 16.9011
-0.541362 -0.832238 17.8757
-0.343555 -1.03031 21.7854
0.0401182 -0.0818374 18.3503
0.338301 -0.433207 20.9056
0.436119 0.232158 17.1198
-2.20361 -1.30901 21.8537
-4.84377 2.54311 21.7144
-0.467347 -0.848689 20.9905
-0.655756 0.197597 19.0913
-0.0420915 -0.0910355 18.496
0.347878 -1.03837 21.7816
-0.421751 0.246358 16.9457
-0.337819 -0.432466 20.9472
4.83935 2.56905 21.7089
2.22455 -1.30633 21.8516
0.540869 0.230132 18.4537
0.461717 -0.839695 21.0247
-0.971158 -0.598694 20.0231
-0.714435 -0.332227 19.793
-0.666415 -0.52707 19.6114
-0.886573 -0.726064 21.2135
-1.5257 -0.831005 20.4988
-1.73009 -1.73289 20.5067
-0.114171 -0.34898 21.5873
-0.541692 -0.606187 21.4947
-0.267904 -0.641984 21.7115
0.419536 -0.0728531 21.7268
0.116897 -0.308584 21.6535
0.282451 -0.160565 21.8036
0.98635 0.182594 21.5164
0.900852 -0.0305488 21.6893
1.10204 0.541899 21.6097
1.0864 0.211011 21.2674
1.31785 0.068986 21.3699
1.574 0.781854 21.3694
1.20448 0.145677 20.7899
1.14433 0.463479 21.3442
-1.34751 -0.508516 19.8574
-0.890294 -0.182779 19.6434
-0.851397 -0.443742 19.3794
-1.24948 -0.794832 21.34
-2.02284 -0.385983 20.4436
-0.216157 -0.526551 21.6498
-0.966869 -0.681703 21.572
0.47491 -0.316999 21.855
-0.100439 -0.531286 21.8019
1.2329 -0.181245 21.5478
0.863466 -0.604575 21.7409
1.45255 -0.242554 21.2821
1.31052 -0.649477 21.3248
2.20177 0.265561 19.5421
1.10846 -0.435448 20.7915
1.88227 0.00790678 20.0051
-1.63926 0.0582983 19.7671
-0.826358 0.310333 19.7217
-1.14001 0.0959908 19.1077
-1.81917 -0.288508 21.1545
-1.59206 0.523176 20.3173
-0.835801 -0.540375 21.7868
-1.44775 0.117744 21.3888
0.0184078 -0.613736 21.8635
-0.563252 -0.233216 21.7274
0.646351 -0.864808 21.6688
0.0178472 -0.524924 21.5746
1.05646 -0.864242 21.3345
0.378048 -0.685343 21.3618
1.0789 -0.947864 19.1348
0.344624 -0.79614 20.5955
1.60886 -1.55191 19.3046
-0.86563 0.556507 20.0813
-0.678116 0.611727 19.6942
-1.16423 0.579753 20.8035
-1.2276 1.06297 20.1985
-0.791663 0.224392 21.5046
-1.36424 0.927922 21.3158
-0.224185 -0.201785 21.5175
-0.557486 0.133861 21.7553
0.0722882 -0.415337 21.403
-0.14338 -0.293198 21.5662
0.164748 -0.382317 21.2575
0.091952 -0.503959 21.1271
0.0775766 -0.516521 21.6336
-1.25544 -1.77807 19.0848
-0.702757 -0.700352 19.0936
0.00841042 -0.964977 18.9629
-0.62986 -1.36489 22.1446
0.0385848 -4.70469 21.3665
0.06836 -0.0916235 21.5906
0.00576984 -0.652561 21.612
0.563301 0.612288 20.8858
-0.00122824 0.0456924 20.0366
1.15276 1.57864 20.1418
0.0281752 1.08668 17.2707
1.68295 1.87403 19.5863
1.92553 1.942 16.1665
0.0221223 1.92079 17.7395
1.99694 1.5691 15.9865
0.0486098 2.97994 17.2108
-1.06928 -0.317606 18.4771
0.0175607 -0.871067 18.2323
2.53329 1.51858 13.6735
1.49079 -0.457949 6.62948
0.0107261 0.746649 4.09956
2.52368 0.00532808 12.6641
0.0420092 2.90964 8.85632
-0.886333 0.805172 18.8975
0.0101994 0.425094 17.3289
1.05032 -1.19062 7.71825
0.00572577 -1.11006 18.5938
-0.0341806 1.99815 -4.1658
-0.0452441 -1.46734 17.0921
-0.0245297 3.83711 -3.68878
-0.879241 1.31032 19.6034
0.00886866 1.09545 19.2081
-1.46157 1.90143 20.483
0.0181866 2.40519 19.6574
-1.05628 1.06223 21.9749
-0.00554068 3.21458 21.3962
-0.346416 -0.00377065 21.7879
-0.0181432 0.757194 22.1502
-0.156132 -0.3876 21.6218
-0.0153036 0.0942388 21.803
-0.00176432 -0.642928 20.3637
-0.000482025 -0.329126 21.9264
0.00237871 -0.427093 21.062
1.27766 -1.69428 19.1086
0.714176 -0.686408 19.1109
0.665814 -0.517934 19.6231
0.638031 -1.36884 22.1272
1.69045 -1.64508 20.5
-0.0688604 -0.0908619 21.595
0.278082 -0.644939 21.7002
-0.531157 0.638767 20.7267
-0.285843 -0.154229 21.81
-1.09237 1.59678 19.9809
-1.11393 0.605872 21.5375
-1.67214 1.91127 19.5233
-1.88616 1.96038 16.1368
-1.57136 0.803741 21.3858
-1.98075 1.63443 15.9583
-1.15356 0.490934 21.3644
1.07708 -0.311279 18.5012
0.855117 -0.441588 19.3865
-2.53462 1.54724 13.4992
-1.47221 -0.440403 6.46523
-2.22328 0.270792 19.5029
-2.54536 0.0134921 12.3081
-1.90163 0.010217 19.9293
0.891967 0.795218 18.9138
1.13348 0.0932421 19.1223
-1.03531 -1.17237 7.26471
0.0761709 -1.10687 17.589
-1.09482 -0.951597 19.0771
0.0543123 -1.50425 16.5917
-1.62796 -1.58308 19.3947
0.888457 1.29335 19.6111
0.682523 0.601857 19.706
1.45929 1.88703 20.484
1.22478 1.04066 20.2077
1.04317 1.09658 21.9881
1.36641 0.936057 21.3155
0.34769 0.0204235 21.8036
0.570435 0.151583 21.7752
0.176956 -0.356379 21.6833
0.158331 -0.285081 21.5528
0.0155803 -0.608707 20.6032
-0.0930669 -0.505675 21.1976
-0.108849 -0.570379 21.5671
0.959973 -0.581369 20.0432
0.709752 -0.32387 19.8056
0.899122 -0.720004 21.1985
1.51525 -0.826348 20.5065
0.115942 -0.357882 21.5958
0.546063 -0.613219 21.4902
-0.420215 -0.0703292 21.7326
-0.111737 -0.311521 21.6462
-0.995804 0.206866 21.526
-0.901417 -0.0295464 21.6938
-1.11354 0.22064 21.2474
-1.32729 0.0789558 21.3704
-1.21322 0.158321 20.8123
1.34588 -0.506958 19.8634
0.887036 -0.179734 19.6566
1.25841 -0.804207 21.3445
2.04818 -0.39199 20.4445
0.219646 -0.531565 21.6579
0.976712 -0.690367 21.5822
-0.47501 -0.310801 21.8589
0.0981612 -0.528944 21.8139
-1.22879 -0.179401 21.5469
-0.857015 -0.596638 21.7452
-1.46634 -0.227098 21.2651
-1.31379 -0.650305 21.3299
-1.12319 -0.438611 20.728
1.63424 0.0584229 19.7713
0.822479 0.30628 19.7299
1.82993 -0.283765 21.1589
1.58511 0.517945 20.3168
0.84149 -0.538605 21.7895
1.45439 0.119639 21.3953
-0.018389 -0.607782 21.853
0.565614 -0.237807 21.7508
-0.651061 -0.86402 21.6661
-0.011053 -0.535873 21.605
-1.06179 -0.860414 21.325
-0.348028 -0.700957 21.4115
-0.345853 -0.809836 20.7546
0.85913 0.545936 20.089
1.15878 0.578747 20.8034
0.798734 0.228198 21.5148
0.224542 -0.188526 21.556
-0.0469051 -0.391409 21.3732
-0.12779 -0.42205 21.3469
-1.18965 -0.583287 19.9317
-1.7175 -2.02787 18.4249
-1.22458 -1.06256 19.6388
-1.87965 -0.983777 19.1485
-0.77349 -0.510351 19.5003
-2.4145 -1.97224 20.465
-1.07193 -0.780248 21.2695
-0.379792 -0.900239 19.49
-0.896517 -1.19163 21.6103
-1.44066 -1.53976 22.0587
-0.263275 -0.796327 21.8249
-0.172426 -0.45206 21.6106
0.240615 0.125203 17.2891
0.0401391 -0.365013 21.7454
0.0921654 -0.672166 21.2746
0.368135 -0.291333 21.678
0.441938 -0.187139 21.785
0.720834 0.627941 14.91
0.639025 0.100749 21.8757
0.732085 -0.169869 19.9837
1.45449 0.478342 20.8296
1.16133 0.0286832 21.5193
1.36331 1.65034 14.6853
1.3391 0.700395 21.43
1.94544 0.225323 19.4848
1.98232 0.544463 20.5772
1.28204 -0.0239925 21.2545
2.1446 1.78302 15.6542
1.68473 0.960051 21.2688
2.4207 0.240984 19.6395
1.48459 0.255314 20.7601
-1.51984 -0.26669 19.7992
-3.29812 -0.661609 16.4646
-2.51404 0.374026 18.9009
-1.06308 -0.219894 19.1682
-4.42976 -0.753258 20.2501
-1.59459 -0.610556 21.2946
-3.00065 -0.646116 21.5562
-0.953433 -1.40275 21.6705
-0.477879 -0.629618 21.7333
-1.20727 -1.19931 21.6687
0.122587 -0.599296 19.9456
0.31173 -0.524871 21.9082
0.15192 -0.569849 19.7664
1.40686 -0.389927 16.8085
1.09688 -0.625124 21.5753
0.457546 -1.23868 3.14485
0.656439 -0.983304 18.6652
1.82963 -0.621233 18.8854
1.35281 -0.646674 21.3567
2.46251 0.114572 8.7616
1.47633 -1.2826 19.3143
2.05109 -1.01746 19.063
-1.26266 0.471423 19.8907
-1.72091 1.82396 18.7824
-0.953762 0.8862 19.8639
-0.940395 0.508167 19.3692
-2.23876 1.23263 20.0659
-1.67013 0.33346 20.8918
-3.29998 2.45352 20.0619
-1.41822 1.10415 20.6976
-2.52498 0.51904 21.6303
-1.01305 -0.0718395 21.6931
-2.42458 0.658014 20.8779
-0.985039 0.518106 21.7155
-0.850209 -0.189466 22.0673
-0.220853 -0.383557 21.7016
-0.124426 -0.283793 18.2333
-0.309735 -0.133981 21.6807
-0.206928 -0.646367 21.6427
0.207668 -0.614011 21.5068
-0.107208 -0.653206 18.147
-0.043601 -0.395765 21.3864
0.243091 -0.945688 21.2886
0.486069 -0.649575 21.4276
0.219033 -1.26185 16.3074
0.0697421 -0.663409 21.5749
0.113592 -1.00855 22.3123
1.72227 -1.96583 18.4873
0.0317081 -2.73235 18.366
0.0175051 -3.35487 15.6293
0.0227572 -0.98776 18.6486
0.017458 -6.99267 23.1073
0.384582 -0.943086 19.6967
0.0153946 -1.72354 22.5316
0.00041376 -0.15979 13.4277
-0.240024 0.12481 17.2655
6.07668e-05 -0.229143 20.4214
0.00185732 0.0967475 12.1899
-0.681414 0.643919 14.6657
0.00772762 0.497986 18.4929
0.0275868 0.830212 8.90475
-1.29497 1.67047 14.4957
0.0187066 1.42675 17.505
0.0100334 0.0353247 2.70056
0.0189645 1.1957 9.94584
-2.14042 1.80594 15.6117
0.0361944 2.42558 17.5094
0.0167424 2.30443 5.17123
0.0453095 2.94479 13.0336
3.28589 -0.648582 16.5328
0.0169932 3.43495 13.1761
0.012264 -0.397078 17.5415
-0.450323 -1.23341 3.05831
-0.00231442 0.348318 -3.44043
-0.00489899 0.0826111 -2.01931
-2.42144 0.164617 8.51996
-0.0224297 3.02122 -3.1181
0.0154092 3.99789 0.281966
1.72756 1.79509 18.811
0.012702 1.82843 19.3199
0.00909431 1.20788 18.3385
0.0145746 4.30074 19.0367
3.28922 2.44374 20.0595
0.00949991 2.95433 20.1105
-0.0100291 7.14807 20.4897
2.39315 0.70648 20.5382
-0.018115 1.89281 22.3081
-0.00422112 0.548197 16.7878
0.0590418 -0.303429 17.4124
-0.0184639 0.253072 21.7904
-0.0202709 0.414853 8.30278
0.135408 -0.645098 17.7434
-0.00933762 -0.122105 21.998
-0.0141736 0.0580567 9.03748
-0.181617 -1.2523 15.7152
0.00821661 -0.460591 21.2887
0.0126267 0.901337 8.6372
1.16776 -0.56893 19.9585
1.22473 -1.0376 19.644
1.87725 -0.976782 19.1595
0.772108 -0.504141 19.5157
2.3872 -1.92064 20.4597
1.08056 -0.780772 21.2576
0.908554 -1.17541 21.5804
1.44589 -1.54834 22.0626
0.276062 -0.801245 21.8179
0.175721 -0.457944 21.6201
-0.0355355 -0.368388 21.7453
-0.0837436 -0.679785 21.2731
-0.36888 -0.283239 21.6558
-0.444276 -0.186336 21.7914
-0.647304 0.135541 21.8072
-0.737294 -0.162253 20.0428
-1.46081 0.518213 20.7155
-1.16275 0.0335916 21.5221
-1.35021 0.747885 21.416
-1.96118 0.244311 19.4186
-2.01138 0.551278 20.5182
-1.30921 -0.0158122 21.2264
-1.71648 0.974751 21.2606
-2.4246 0.254215 19.6168
-1.51362 0.260284 20.6892
1.52583 -0.268847 19.8045
2.50407 0.370169 18.9097
1.05575 -0.216819 19.1865
4.46245 -0.752603 20.2366
1.60868 -0.614396 21.3024
3.02277 -0.644328 21.5448
0.967892 -1.41491 21.6628
0.482274 -0.63338 21.7443
1.22025 -1.19162 21.7201
-0.120339 -0.609192 20.0394
-0.311445 -0.51867 21.908
-0.163218 -0.578461 19.8022
-1.41295 -0.40111 16.8767
-1.10046 -0.622261 21.584
-0.662845 -0.988835 18.6487
-1.83658 -0.610394 18.8181
-1.36611 -0.630921 21.349
-1.50513 -1.31283 19.253
-2.0905 -1.02776 19.048
1.25497 0.464449 19.8974
0.956193 0.868467 19.8751
0.936437 0.50002 19.3815
2.22408 1.21237 20.0674
1.67199 0.336842 20.8899
1.41541 1.09703 20.697
2.53729 0.532811 21.6289
1.0228 -0.0715082 21.7008
0.993319 0.540514 21.729
0.867421 -0.189685 22.084
0.220611 -0.386022 21.7041
0.312916 -0.126533 21.6962
0.220568 -0.652281 21.6101
-0.201096 -0.629137 21.5264
0.0583434 -0.403616 21.3767
-0.238187 -0.989159 21.2268
-0.497397 -0.666727 21.2876
-0.0585982 -0.684529 21.5553
-0.108603 -1.05577 22.4074
-1.53186 -1.0872 19.4347
-1.09172 -1.37734 21.8158
0.109269 -0.500531 21.7565
0.788825 -0.0134197 21.417
1.751 0.580632 20.5411
2.05452 0.600651 20.5343
-2.38367 -0.402429 18.873
-2.25488 -1.30955 22.1733
-0.228327 -1.0519 20.6829
0.500857 -0.235579 18.9126
1.56542 -0.675135 17.9419
2.06764 -0.636981 19.327
-1.61718 0.987776 19.4445
-2.54296 0.918023 20.7596
-1.60427 0.0432936 22.1324
-0.389081 -0.458851 21.8837
0.0142614 -0.771049 21.4036
0.505087 -1.15396 20.8552
0.0346389 -3.2927 17.284
0.00461407 -0.827083 15.0663
0.00119381 0.0144576 12.2256
0.00879471 0.414279 10.2704
0.0206519 0.948677 9.15746
0.0283594 2.36596 11.3356
0.0176045 -0.858599 12.8532
0.00474589 0.0163553 -0.0397954
0.050585 3.44744 -1.41551
0.0133074 3.08125 17.9233
0.00703201 4.77077 18.8202
-0.0168886 2.36714 18.8769
-0.0121074 0.136135 11.8763
-0.0218119 0.00930342 9.09792
-0.0185438 -0.888243 8.94337
1.52644 -1.07049 19.4522
1.10037 -1.36558 21.7925
-0.103418 -0.504912 21.7517
-0.793765 0.00530533 21.3761
-1.75702 0.608307 20.4495
-2.07229 0.615167 20.4967
2.37355 -0.400832 18.891
2.26895 -1.31901 22.1784
0.247736 -1.05709 20.7036
-0.515126 -0.243546 18.9786
-1.5729 -0.673315 17.9116
-2.09942 -0.642364 19.2329
1.60622 0.970347 19.4566
2.53822 0.91982 20.7519
1.62991 0.0565061 22.1479
0.397887 -0.465221 21.8493
0.00329615 -0.783541 21.397
-0.504097 -1.21179 20.9738
-0.714224 -0.204458 0.842595
-0.00182399 -0.0306752 0.137812
-0.0959186 0.0249622 1.16598
0.045027 -0.0753264 0.0668078
0.0142949 0.113035 0.445016
-0.00898522 0.144567 1.29835
-1.17968 0.0910241 1.49755
-0.0320138 0.123627 0.302265
-0.347376 -0.119185 1.07339
-0.0180943 -0.143151 0.0450801
-0.0550929 0.0323439 -0.11346
-0.132877 -0.213433 0.485405
0.00201308 -0.0327467 0.147634
0.67003 -0.192455 0.792443
0.09808 0.0239395 1.19656
-0.00196168 0.0455227 0.172468
-0.0456914 -0.0748659 0.0672118
0.00358218 0.147353 1.31134
0.0325761 0.124103 0.303055
1.13166 0.0849666 1.44012
0.347267 -0.119481 1.07082
0.0557803 0.0318927 -0.113224
0.0156395 -0.144077 0.0475908
0.131009 -0.210208 0.475288
-0.0180065 -0.00130168 0.85181
0.00522575 0.00598892 0.803606
-0.000167236 0.00222633 0.0435815
0 0 0
0.0197162 0.0185134 0.106469
0.00624253 0.00118735 0.24446
5.43036e-05 0.00441402 0.0500624
0.00121407 4.93695e-05 0.0299291
-0.138912 -0.105742 0.330525
0.00117795 0.0218941 0.183119
0 0 0
-0.0394678 0.0502778 0.102906
0.0159985 0.0431926 0.175247
0.00176707 0.0110094 0.0479372
0 0 0
0.0083048 -0.0010534 0.079228
0.0184542 5.12057e-05 0.868348
0 0 0
-0.00570138 0.00569111 0.830666
0.000362042 0.00489165 0.0933387
-0.018193 0.018261 0.104576
-0.00112505 4.90485e-05 0.0299372
-0.00543173 0.00144294 0.242863
0.000204268 0.00350101 0.0341283
0.179615 -0.130353 0.394862
0.0403237 0.0529596 0.108013
-0.00147058 0.0257284 0.196928
0 0 0
-0.0224679 0.0482806 0.201697
-0.0055881 -0.00102187 0.0589602
-0.00096079 0.00548474 0.0240282
0 0 0
-0.0211103 -0.0362951 0.273702
-0.0503323 0.0166122 0.0256598
0 0 0
2.08875e-05 -0.0941898 0.0403464
-0.000895271 -0.000923617 0.0257058
0.000110356 -3.99515e-05 0.0023656
0 0 0
-0.00132331 -0.010517 0.00205461
5.48821e-05 0.000675 0.0080815
0 0 0
0 0 0
0.00623537 0.00530854 0.0926009
0.0598076 2.19255 1.22088
1.04201e-05 0.0144485 0.0679502
-0.0407163 -0.074207 0.339211
-0.055801 0.0159912 0.0934388
0.000127957 -0.0120418 0.000690918
0 0 0
0.0103238 0.00963475 0.19584
-0.00308302 0.00176774 -0.00385483
0.0452684 0.0147529 0.0230772
0.016299 -0.0302186 0.212656
-0.000106545 -3.88439e-05 0.00231012
0.00134358 -0.00140077 0.0374713
0.00213314 -0.015623 0.00259321
0 0 0
-0.00241251 0.00205492 0.0427221
0 0 0
0.211276 0.0454004 0.355401
0.04029 -0.073963 0.332577
0.00308765 0.00182438 -0.00397282
-0.0104049 0.00961552 0.192495
0.0408795 0.0426156 0.421995
0 0 0
0.00800963 -0.00585552 0.0607035
0.00312965 0.0418761 0.275743
9.99425e-06 -0.000276386 0.0232993
0 0 0
0.000122864 0.00267298 0.0150271
-0.013214 0.0489649 0.244017
7.4251e-07 8.37557e-07 0.000204706
-4.85842e-06 2.86964e-05 0.000923717
0.00832363 0.0713008 0.271376
-0.0130645 0.0209882 0.231178
0.000866478 0.0163392 0.0271501
0.00103154 0.0819066 0.389778
-1.10565e-05 8.14912e-05 0.00375789
1.88121e-05 -0.00332071 0.0299814
0 0 0
-0.0364464 0.0392155 0.409245
-3.93607e-18 -6.36244e-18 4.93336e-17
-0.00510755 0.0346849 0.37663
-8.74801e-05 0.00292542 0.017351
0.00374971 0.0173776 0.0801745
0.0114708 0.0192545 0.20857
-0.00868427 0.0546458 0.193574
-0.00672583 -0.0108793 0.0944159
-0.157336 -0.0988123 0.56213
0.0167937 -0.0159733 0.296007
-0.00282657 -0.00901138 0.0684559
-0.000949847 0.00580628 0.0778615