# vtk DataFile Version 2.0
tet_velo
ASCII
DATASET UNSTRUCTURED_GRID
POINTS 29498 float
-0.846055 0.235 -1.875
-0.742533 0.355 2.005
-0.735 0.74101 -1.935
-0.705 0.975 1.95535
0.846055 0.235 -1.875
0.742528 0.355 2.005
0.735 0.74101 -1.935
0.705 0.975 1.95534
-0.805907 0.28064 -0.581667
-0.827731 0.264309 0.711667
-0.78767 0.881677 -0.638217
-0.768899 0.950902 0.658567
0.80589 0.280656 -0.581667
0.82667 0.265367 0.711667
0.787612 0.881618 -0.63822
0.768895 0.950898 0.65856
-1.64793 -0.118588 -2.88301
-1.63954 -0.0558995 -1.84696
-1.61158 -0.0251163 -0.553713
-1.60018 -0.0363502 0.738838
-1.55112 0.0176725 2.03202
-1.53458 0.0690827 3.06778
-1.53714 0.114925 4.10408
-1.64186 0.161297 -2.91177
-1.63343 0.234523 -1.87534
-1.60559 0.28653 -0.581426
-1.59319 0.281311 0.71218
-1.52101 0.338024 2.00603
-1.51413 0.388747 3.04184
-1.52577 0.433648 4.07802
-1.59494 0.70605 -2.97025
-1.56105 0.776701 -1.93397
-1.57677 0.891161 -0.637705
-1.55012 0.944508 0.658808
-1.48656 0.975944 1.95501
-1.49446 1.02363 2.99067
-1.51458 1.07015 4.0263
-1.5603 1.6006 -3.05539
-1.54571 1.67969 -2.0186
-1.54906 1.79734 -0.72121
-1.54785 1.89135 0.576918
-1.53343 1.94933 1.87427
-1.52709 1.98843 2.91099
-1.52849 2.02922 3.94699
-0.849298 -0.118082 -2.88278
-0.839217 -0.0530782 -1.84663
-0.810309 -0.0270008 -0.553758
-0.817047 -0.0476972 0.7384
-0.78314 0.0236053 2.03126
-0.770792 0.0735637 3.06727
-0.772795 0.116728 4.10377
-0.851893 0.157252 -2.9117
-0.755776 0.394551 3.04141
-0.76522 0.435814 4.07779
-0.812964 0.689455 -2.97068
-0.741521 1.025 2.99074
-0.757904 1.0712 4.02631
-0.774747 1.58904 -3.05582
-0.758991 1.66871 -2.01906
-0.766384 1.79392 -0.721492
-0.775891 1.89379 0.57695
-0.771332 1.95148 1.8745
-0.766754 1.98949 2.91123
-0.766366 2.02988 3.94716
0.78123 -0.118053 -2.88278
0.817611 -0.053055 -1.84663
0.809055 -0.0268606 -0.553758
0.805035 -0.0469816 0.7384
0.749241 0.0238805 2.03126
0.747242 0.0737776 3.06726
0.751665 0.116959 4.10377
0.769944 0.157267 -2.9117
0.740643 0.394693 3.04141
0.748528 0.436017 4.07779
0.742508 0.689464 -2.97068
0.728992 1.02511 2.99073
0.745003 1.07137 4.0263
0.787771 1.58907 -3.05582
0.799642 1.66873 -2.01906
0.794403 1.79396 -0.721496
0.769497 1.89388 0.576945
0.749477 1.9516 1.8745
0.748888 1.98964 2.91122
0.754772 2.03005 3.94715
1.59254 -0.118511 -2.88301
1.62542 -0.0558218 -1.84696
1.61428 -0.0248044 -0.553716
1.59843 -0.035348 0.738834
1.53865 0.0183631 2.03202
1.5205 0.0695919 3.06778
1.52166 0.11541 4.10407
1.5836 0.161343 -2.91177
1.63017 0.234546 -1.87534
1.61059 0.286704 -0.581429
1.5991 0.282352 0.712176
1.5276 0.338615 2.00602
1.50921 0.389171 3.04183
1.51511 0.434089 4.07801
1.54947 0.706079 -2.97026
1.56502 0.776697 -1.93397
1.58467 0.891174 -0.63771
1.55711 0.944869 0.658798
1.49486 0.976326 1.955
1.49254 1.02396 2.99066
1.50781 1.07053 4.02629
1.57286 1.60068 -3.0554
1.58151 1.67976 -2.0186
1.57679 1.79745 -0.721217
1.54938 1.89156 0.576909
1.52185 1.94962 1.87426
1.51648 1.98876 2.91098
1.52166 2.02958 3.94698
-0.803611 0.488005 -1.91808
0 0.232602 -1.8774
-0.83081 0.252991 -1.22833
-0.75403 0.665 2.01044
-2.5034e-06 0.336755 2.02324
-0.822515 0.272272 1.35833
0 0.813347 -2.00734
-0.788743 0.838752 -1.28661
0 1.02244 2.00278
-0.763761 0.989762 1.30696
0.803765 0.488005 -1.91824
0.830808 0.252992 -1.22833
0.754047 0.665 2.01045
0.829328 0.265455 1.35833
0.788743 0.838752 -1.28661
0.763723 0.989724 1.30695
-0.802517 0.286777 0.0650001
-0.834757 0.581159 -0.609942
-8.56644e-06 0.241569 -0.581667
-0.848374 0.607606 0.685117
-0.000530372 0.256928 0.711667
-0.776004 0.91401 0.010175
-2.93079e-05 1.24564 -0.638218
-1.94666e-06 1.37358 0.658564
0.802498 0.286793 0.0650001
0.834796 0.581137 -0.609943
0.848547 0.608132 0.685114
0.775988 0.913993 0.01017
-0.880252 0.534582 -1.25747
-0.84513 0.594382 0.0375876
-0.895237 0.636303 1.33265
-4.28322e-06 0.23453 -1.22833
-0.000269469 0.249188 0.0650001
-0.000266438 0.260188 1.35833
0 0.488005 -2.17013
-1.2517e-06 0.665 2.1676
-1.46539e-05 0.953631 -1.28661
-1.56273e-05 1.39228 0.0101725
-9.73329e-07 1.20558 1.30695
0.880252 0.534571 -1.25747
0.845115 0.594635 0.037585
0.895232 0.636566 1.33264
-1.23974 0.234762 -1.87517
-0.842636 0.0909609 -1.86082
-0.848974 0.196126 -2.39335
-1.13177 0.346512 2.00551
-0.762836 0.189303 2.01813
-0.749154 0.374775 2.52321
-1.14802 0.758855 -1.93449
-0.773982 0.715232 -2.45284
-0.746996 1.20486 -1.97703
-1.09578 0.975472 1.95518
-0.723261 1 2.47304
-0.738166 1.46324 1.91493
0.831833 0.0909725 -1.86082
0.808 0.196134 -2.39335
1.23811 0.234773 -1.87517
0.745884 0.18944 2.01813
0.741585 0.374846 2.5232
1.13506 0.346807 2.00551
0.738754 0.715237 -2.45284
0.767321 1.20487 -1.97703
1.15001 0.758854 -1.93449
0.716996 1.00006 2.47304
0.727238 1.4633 1.91492
1.09993 0.975663 1.95517
-1.20575 0.283585 -0.581546
-0.808108 0.12682 -0.567712
-1.21046 0.27281 0.711923
-0.822389 0.108306 0.725034
-1.18222 0.886419 -0.637961
-0.777027 1.3378 -0.679854
-1.15951 0.947705 0.658687
-0.772395 1.42235 0.617758
0.807472 0.126898 -0.567713
1.20824 0.28368 -0.581548
0.815853 0.109192 0.725033
1.21288 0.273859 0.711921
0.791008 1.33779 -0.679858
1.18614 0.886396 -0.637965
0.769196 1.42239 0.617752
1.163 0.947884 0.658679
-1.64374 -0.0872437 -2.36498
-1.6449 0.0213545 -2.89739
-1.24862 -0.118335 -2.88289
-1.62556 -0.0405079 -1.20034
-1.63649 0.0893119 -1.86115
-1.23938 -0.0544888 -1.8468
-1.60588 -0.0307332 0.0925621
-1.60859 0.130707 -0.56757
-1.21095 -0.0260585 -0.553736
-1.57565 -0.00933882 1.38543
-1.59668 0.12248 0.725509
-1.20861 -0.0420237 0.738619
-1.54285 0.0433776 2.5499
-1.53607 0.177848 2.01903
-1.16713 0.0206389 2.03164
-1.53586 0.0920038 3.58593
-1.52435 0.228915 3.05481
-1.15268 0.0713232 3.06753
-1.53146 0.274286 4.09105
-1.15497 0.115827 4.10393
-1.63765 0.19791 -2.39355
-1.6184 0.433673 -2.94101
-1.24688 0.159275 -2.91173
-1.61951 0.260527 -1.22838
-1.59724 0.505612 -1.90466
-1.59939 0.28392 0.065377
-1.59118 0.588846 -0.609565
-1.5571 0.309667 1.3591
-1.57165 0.612909 0.685494
-1.51757 0.363386 2.52393
-1.50379 0.656984 1.98052
-1.51995 0.411197 3.55993
-1.50429 0.706187 3.01626
-1.13495 0.391649 3.04162
-1.52018 0.751899 4.05216
-1.1455 0.434731 4.0779
-1.57799 0.741375 -2.45211
-1.57762 1.15332 -3.01282
-1.20395 0.697752 -2.97047
-1.56891 0.833931 -1.28584
-1.55338 1.2282 -1.97628
-1.56344 0.917835 0.0105515
-1.56291 1.34425 -0.679457
-1.51834 0.960226 1.30691
-1.54898 1.41793 0.617863
-1.49051 0.999785 2.47284
-1.51 1.46264 1.91464
-1.50452 1.04689 3.50848
-1.51077 1.50603 2.95083
-1.11799 1.02432 2.99071
-1.52153 1.54969 3.98664
-1.13624 1.07068 4.0263
-1.55301 1.64014 -2.53699
-1.16752 1.59482 -3.05561
-1.54739 1.73851 -1.3699
-1.15235 1.6742 -2.01883
-1.54846 1.84434 -0.072146
-1.15772 1.79563 -0.721351
-1.54064 1.92034 1.22559
-1.16187 1.89257 0.576934
-1.53026 1.96888 2.39263
-1.15238 1.95041 1.87439
-1.52779 2.00883 3.42899
-1.14692 1.98896 2.91111
-1.14743 2.02955 3.94707
-0.844257 -0.0855802 -2.36471
-0.850596 0.0195851 -2.89724
-0.0340342 -0.118068 -2.88278
-0.824763 -0.0400395 -1.2002
-0.0108031 -0.0530666 -1.84663
-0.813678 -0.037349 0.0923212
-0.000627094 -0.0269307 -0.553758
-0.800093 -0.012046 1.38483
-0.00600577 -0.0473394 0.7384
-0.776966 0.0485845 2.54926
-0.0169495 0.0237429 2.03126
-0.771793 0.095146 3.58552
-0.763284 0.234057 3.05434
-0.011775 0.0736706 3.06726
-0.769007 0.276271 4.09078
-0.0105647 0.116844 4.10377
-0.832429 0.423354 -2.94119
-0.0409745 0.15726 -2.9117
-0.760498 0.415183 3.5596
-0.748649 0.709778 3.01608
-0.00756646 0.394622 3.04141
-0.761562 0.753508 4.05205
-0.008346 0.435916 4.07779
-0.793856 1.13925 -3.01325
-0.0352279 0.689459 -2.97068
-0.749713 1.0481 3.50852
-0.754138 1.50725 2.95098
-0.00626483 1.02506 2.99074
-0.762135 1.55054 3.98673
-0.00645048 1.07129 4.02631
-0.766869 1.62887 -2.53744
0.00651165 1.58905 -3.05582
-0.762688 1.73131 -1.37028
0.0203252 1.66872 -2.01906
-0.771137 1.84385 -0.0722713
0.0140096 1.79394 -0.721494
-0.773611 1.92263 1.22573
-0.00319677 1.89383 0.576947
-0.769043 1.97048 2.39286
-0.0109276 1.95154 1.8745
-0.76656 2.00969 3.42919
-0.00893306 1.98957 2.91122
-0.00579728 2.02997 3.94716
0.79942 -0.0855541 -2.36471
0.775587 0.0196071 -2.89724
1.18688 -0.118282 -2.8829
0.813333 -0.0399578 -1.2002
1.22152 -0.0544384 -1.8468
0.807045 -0.0369211 0.0923207
1.21167 -0.0258325 -0.553737
0.777138 -0.0115506 1.38483
1.20173 -0.0411648 0.738617
0.748241 0.048829 2.54926
1.14395 0.0211218 2.03164
0.749454 0.0953684 3.58552
0.743943 0.234235 3.05434
1.13387 0.0716847 3.06752
0.750096 0.276488 4.09078
1.13666 0.116185 4.10392
0.756226 0.423366 -2.94119
1.17677 0.159305 -2.91173
0.744585 0.415355 3.5596
0.734817 0.709903 3.01607
1.12493 0.391932 3.04162
0.746765 0.753696 4.05204
1.13182 0.435053 4.0779
0.765139 1.13927 -3.01325
1.14599 0.697771 -2.97047
0.736997 1.04824 3.50852
0.73894 1.50738 2.95098
1.11077 1.02454 2.9907
0.749887 1.55071 3.98673
1.1264 1.07095 4.02629
0.793706 1.6289 -2.53744
1.18031 1.59487 -3.05561
0.797022 1.73135 -1.37028
1.19058 1.67425 -2.01883
0.78195 1.84392 -0.0722754
1.1856 1.79571 -0.721356
0.759487 1.92274 1.22572
1.15944 1.89272 0.576927
0.749182 1.97062 2.39286
1.13566 1.95061 1.87438
0.75183 2.00985 3.42919
1.13268 1.9892 2.9111
1.13821 2.02982 3.94707
1.60898 -0.0871664 -2.36498
1.58807 0.0214161 -2.89739
1.61985 -0.0403131 -1.20034
1.6278 0.0893623 -1.86115
1.60635 -0.0300762 0.0925594
1.61244 0.13095 -0.567572
1.56854 -0.00849245 1.38543
1.59876 0.123502 0.725505
1.52958 0.0439775 2.5499
1.53312 0.178489 2.01902
1.52108 0.0925009 3.58592
1.51485 0.229382 3.05481
1.51838 0.27475 4.09104
1.60688 0.197945 -2.39356
1.56654 0.433711 -2.94101
1.62038 0.260625 -1.22839
1.59759 0.505622 -1.90466
1.60484 0.284528 0.0653735
1.59763 0.588939 -0.609569
1.56335 0.310483 1.3591
1.5781 0.61361 0.685487
1.5184 0.363893 2.52393
1.51123 0.65747 1.98051
1.51216 0.41163 3.55992
1.50087 0.706566 3.01625
1.51146 0.752311 4.05215
1.55725 0.741388 -2.45212
1.56117 1.15338 -3.01283
1.57485 0.833936 -1.28584
1.57326 1.22823 -1.97629
[...]
POINT_DATA 29498
VECTORS point_vectors float
-3.11041 -4.11022 12.809
0.0863656 0.178879 0.81808
-1.47812 0.997667 3.59985
0.096642 -0.15259 0.575606
3.11167 -4.11322 12.8183
-0.0818035 0.174069 0.792091
1.46219 0.982625 3.56281
-0.0969728 -0.149592 0.570727
0.0117927 0.0176476 0.682896
0.0149685 -0.0242261 0.418996
0.000106883 0.0103388 0.137433
0.00614508 0.0323959 0.0626203
-0.0113842 0.01787 0.687708
-0.0155169 -0.0244666 0.39031
-0.00014742 0.0102142 0.135157
-0.00767139 0.0367087 0.0734562
-0.669901 -0.307566 19.9562
-1.06537 -0.569386 20.6761
-0.343297 -0.338333 21.2421
0.033414 -0.113093 21.3539
0.564662 0.198806 21.2844
0.800833 0.271406 21.0672
0.744882 0.25909 20.0117
-0.745502 -0.214712 19.8814
-1.3882 -0.495421 20.6242
-0.460824 -0.398293 21.3045
-0.00420923 -0.182192 21.4272
0.726929 0.0552764 21.3372
1.01857 0.110603 20.9131
0.864632 0.0401272 20.1465
-0.780672 0.0244536 19.7518
-1.77556 0.0425159 20.4255
-0.983135 -0.303765 21.3477
-0.22937 -0.228408 21.5341
0.601792 -0.333404 21.4123
0.884624 -0.370652 21.0985
0.525308 -0.347397 20.7983
-0.505422 0.297049 19.8982
-0.961326 0.571299 20.257
-0.927384 0.396307 21.0529
-0.319345 0.0323527 21.4045
0.154253 -0.259686 21.2952
0.34534 -0.366253 21.1335
0.419668 -0.43675 20.6646
-0.819661 -0.833575 19.2775
-1.70392 -2.64052 21.5907
-0.123954 -0.0137122 20.4752
0.15833 0.0942977 20.2118
0.418785 1.21323 18.9337
0.749878 1.53028 18.1563
0.702878 1.09156 18.0813
-1.02592 -0.646219 18.8393
1.10834 1.69923 10.763
1.72899 1.26604 14.2038
-1.02538 0.135746 18.6496
1.20208 -0.224795 9.77216
1.58345 -0.519898 13.9263
-0.461285 0.616881 19.4825
-1.11061 1.65262 19.8755
-1.4449 1.65724 21.1473
-0.42043 0.306964 21.9131
0.136147 -0.46642 21.4791
0.255592 -0.67632 21.1436
0.147224 -0.522687 21.0733
0.788686 -0.880187 19.2079
1.67746 -2.71004 21.6583
0.125214 -0.0109744 20.4733
-0.161204 0.0947141 20.0795
-0.324607 1.18292 18.4166
-0.676166 1.51445 18.045
-0.672063 1.11451 17.9474
1.00821 -0.676898 18.7589
-0.986446 1.69535 10.2398
-1.75867 1.28775 13.6679
0.987807 0.143208 18.511
-1.2036 -0.187102 9.44003
-1.60581 -0.503679 13.6059
0.464521 0.611296 19.49
1.13238 1.57475 19.8964
1.44857 1.58949 21.151
0.418793 0.311177 21.9157
-0.133359 -0.471013 21.4887
-0.255231 -0.674364 21.1511
-0.14515 -0.522357 21.092
0.68803 -0.334139 19.9317
1.07924 -0.591008 20.6781
0.345154 -0.342961 21.233
-0.0291711 -0.117188 21.3512
-0.567573 0.203731 21.2834
-0.806022 0.282147 21.0757
-0.745894 0.261731 20.0391
0.795612 -0.238258 19.8262
1.3936 -0.500291 20.6294
0.461702 -0.397475 21.3055
0.00763346 -0.182788 21.4285
-0.710698 0.0426437 21.3573
-1.01891 0.111406 20.9131
-0.861335 0.0357923 20.152
0.819985 0.0316873 19.7161
1.7623 0.043907 20.4303
0.976128 -0.297097 21.3451
0.227972 -0.226618 21.5347
-0.591721 -0.324414 21.4068
-0.881036 -0.370731 21.1039
-0.519242 -0.350934 20.7982
0.501345 0.295959 19.9045
0.937239 0.542729 20.2704
0.901909 0.381493 21.0468
0.318958 0.0331782 21.4032
-0.154323 -0.262535 21.2986
-0.346777 -0.369784 21.1342
-0.424053 -0.434278 20.6622
0 0 0
1.03746e-06 -0.00558027 0.0989346
0 0 0
0.0611103 0.00752838 0.198566
-0.00152553 0.00595644 0.0220766
-0.043515 0.0458695 0.845941
-0.000369098 0.577058 0.797267
-0.152818 -0.175512 0.557388
-0.00410208 0.0948864 -0.0908145
0.0287585 0.053853 0.286894
0.00394127 -4.52359e-05 0.00674983
0 0 0
-0.0608314 0.00944758 0.19702
0.0204625 0.0263158 0.645718
0.153003 -0.175677 0.558496
-0.0287694 0.0539913 0.284454
-0.00437919 0.00692222 0.245978
0.00158139 0.00975374 0.0735659
8.11578e-08 6.90042e-08 1.40361e-05
0 0 0
0 0 0
0.0220246 0.0598899 0.16225
-6.0089e-06 0.0444785 0.100853
-2.25234e-05 -0.00322815 0.0479012
0.00451412 0.00706314 0.246041
-0.00164625 0.0101096 0.0761497
2.37193e-18 4.02262e-17 1.15745e-16
-0.0218622 0.0594394 0.161935
0.0020875 -0.0127752 0.280475
0.0157379 0.152819 0.566704
-0.000900473 0.063901 0.503752
2.18144e-09 1.60341e-07 2.68782e-05
4.92216e-07 3.56173e-07 9.54762e-05
-3.18769e-07 1.15887e-06 0.000102389
-0.0001326 -0.120444 0.0891795
-0.0116462 0.320355 -0.232242
-4.27737e-05 0.000167942 0.00123238
3.87206e-06 0.000114838 0.00187153
-1.45109e-06 6.97581e-05 -0.000197108
-0.00201898 -0.0131638 0.280101
-0.0154404 0.152658 0.563533
6.56066e-05 0.0632618 0.494117
-2.43348 -1.22158 20.8948
-2.55805 -3.77328 22.3505
-2.72006 -2.04147 18.1253
1.27151 0.527723 19.6497
0.14983 1.36663 11.7344
0.411802 1.23679 7.30339
-3.71526 0.537229 20.3074
-2.95222 0.917255 17.0156
-2.48558 2.85054 19.6049
1.02066 -0.3459 19.7033
0.556549 0.0906785 6.01861
0.66083 -0.607611 19.0796
2.50361 -3.87511 22.452
2.76147 -2.20234 17.9053
2.44372 -1.22673 20.8949
-0.0624593 1.29893 11.1621
-0.31221 1.2067 7.00205
-1.25741 0.511157 19.6751
2.96658 0.989064 16.7718
2.5102 2.7331 19.6281
3.68366 0.530948 20.3106
-0.524409 0.138057 5.75577
-0.68107 -0.603185 18.9115
-1.00276 -0.353471 19.6959
-0.250978 -0.710969 21.5767
0.159979 0.251151 14.1191
0.0116762 -0.272204 21.0437
0.415465 -0.0596593 15.6488
-1.58895 -0.90689 21.6951
-3.7871 1.83724 21.6095
-0.316021 -0.38671 20.9854
-0.421682 0.28601 19.9517
-0.162123 0.248375 14.1583
0.263059 -0.709853 21.5946
-0.425205 -0.0531849 15.4674
-0.00715509 -0.273442 21.0506
3.70795 1.7296 21.6245
1.58278 -0.898656 21.6765
0.418662 0.302859 19.9007
0.312418 -0.382446 20.991
-0.969138 -0.474522 20.1921
-0.707306 -0.265388 19.9266
-0.785597 -0.496501 19.7059
-0.704162 -0.475132 21.1269
-1.1898 -0.547244 20.6513
-1.52601 -1.21322 20.8999
-0.134984 -0.223595 21.306
-0.396413 -0.357028 21.2668
-0.174911 -0.375811 21.4539
0.280448 0.046421 21.4031
0.0235103 -0.140078 21.3774
0.111245 -0.0947912 21.4794
0.694551 0.250949 21.1984
0.657689 0.135806 21.3105
0.782964 0.606037 21.2281
0.738249 0.187347 21.3275
0.909878 0.19066 20.9912
1.02095 0.70937 21.0367
0.794699 0.152461 20.0729
0.648436 0.461947 21.5655
-1.16684 -0.372543 20.0642
-0.781496 -0.105312 19.7889
-0.942168 -0.389264 19.5072
-0.906504 -0.486818 21.2011
-1.60722 -0.262333 20.5367
-0.200334 -0.297615 21.3477
-0.700057 -0.41592 21.3278
0.337651 -0.0539403 21.5168
-0.0993864 -0.234685 21.4886
0.880866 0.0871986 21.1706
0.744977 -0.150959 21.404
0.955296 0.0231958 21.6708
1.02005 -0.135104 20.9726
1.59734 0.517552 19.4899
0.727856 -0.174855 20.5462
1.27886 0.58205 20.775
-1.33413 0.061117 19.8688
-0.6765 0.213849 19.8023
-0.999244 0.0714016 19.3119
-1.42576 -0.164826 21.1034
-1.39048 0.455008 20.2952
-0.584425 -0.288407 21.4723
-1.14413 0.100442 21.2137
0.174239 -0.244455 21.5878
-0.326535 -0.102877 21.5124
0.765974 -0.357906 21.245
0.328827 -0.35677 21.3501
0.978403 -0.408797 20.7556
0.562503 -0.43214 21.0523
1.26555 -0.618754 20.2557
0.530006 -0.569374 20.9012
1.18431 -0.491384 20.1042
-0.725904 0.438295 20.0134
-0.542878 0.453983 19.6966
-1.02467 0.531011 20.6883
-1.15545 1.04138 20.0944
-0.654383 0.207403 21.3142
-1.23616 0.834632 21.1347
-0.0450336 -0.129754 21.3927
-0.391685 0.126711 21.6492
0.260156 -0.349677 21.1393
0.15993 -0.371062 21.3684
0.303132 -0.368436 20.9789
0.31464 -0.524155 20.9926
0.169088 -0.364748 20.8996
-1.69877 -2.13034 19.3723
-0.920055 -0.813785 19.0765
-0.040843 -1.3069 18.6888
-0.546839 -0.657287 21.8476
-0.0138043 -3.65035 22.6529
0.0223366 0.061141 20.1686
8.53078e-05 -0.232463 17.8115
0.275562 0.54749 19.5003
-0.00181286 0.0232112 17.0142
0.501656 1.3153 18.5487
-0.0272281 0.563006 14.5255
0.946526 1.34732 17.4964
1.00559 1.84029 14.5288
-0.0433764 0.235478 12.3266
1.42686 1.19731 14.7189
0.0375981 0.753837 12.2972
-1.09081 -0.286758 18.658
-0.0854935 -1.0619 17.8945
1.54158 1.34957 12.4257
1.52812 0.851758 8.01484
0.0205124 -1.6754 -3.64307
1.85539 0.620184 13.0547
0.032584 -1.67519 -0.865078
-0.757124 0.566959 19.0653
-0.0606984 0.218682 17.6767
1.61097 -0.565203 12.7701
0.641576 -1.01725 20.1584
0.0294826 -0.570121 0.109901
0.493677 -0.971149 19.9071
0.0226793 -2.18408 3.05552
-0.790467 1.14597 19.4876
0.00568616 0.813633 19.2178
-1.30776 1.73186 20.4814
0.0401538 2.43359 19.5953
-1.05177 1.03533 21.8366
0.0389292 3.15809 21.017
-0.0270343 -0.196663 21.7199
-0.00379962 0.564334 22.305
0.207797 -0.596126 21.305
-0.00190583 -0.52701 21.6693
0.272508 -0.689859 21.0998
0.000245969 -0.784748 21.2836
0.0075804 -0.96996 20.9312
1.67082 -2.25698 19.3031
0.903252 -0.839294 19.0031
0.797264 -0.543547 19.6398
0.558683 -0.643677 21.8305
1.54987 -1.26297 20.914
-0.0217893 0.0618429 20.0988
0.176796 -0.378271 21.4511
-0.265843 0.532138 19.3056
-0.11083 -0.0994326 21.4684
-0.398621 1.27661 18.0489
-0.784862 0.637046 21.1786
-0.923896 1.36145 17.3009
-0.928646 1.82293 14.2634
-1.02225 0.712664 21.046
-1.46325 1.21587 14.1393
-0.654671 0.468246 21.6636
1.05791 -0.308912 18.5125
0.941235 -0.437881 19.4104
-1.51745 1.37236 11.9427
-1.46935 0.904879 7.5087
-1.60872 0.539773 19.4
-1.87878 0.631367 12.596
-1.29838 0.613862 20.7889
0.743433 0.586701 19.0298
1.00107 0.0727519 19.2346
-1.61819 -0.552753 12.3919
-0.660216 -1.00914 19.9649
-1.26031 -0.614251 20.2106
-0.500363 -0.973419 19.8735
-1.20818 -0.488303 20.0993
0.796902 1.11418 19.5108
0.540781 0.44781 19.7039
1.32332 1.65447 20.5012
1.1403 0.981453 20.1198
1.05086 1.01927 21.8277
1.21665 0.790192 21.1318
0.0255051 -0.195819 21.7263
0.39222 0.128795 21.6502
-0.205259 -0.596883 21.3149
-0.158977 -0.372124 21.3709
-0.271507 -0.692781 21.0983
-0.314201 -0.5279 20.9994
-0.168736 -0.365967 20.9066
0.99587 -0.510596 20.1805
0.750255 -0.296206 19.8923
0.705521 -0.484602 21.1261
1.19793 -0.559614 20.6599
0.134573 -0.227535 21.3065
0.399579 -0.359331 21.2615
-0.276034 0.0404959 21.4054
-0.0181016 -0.142359 21.378
-0.698 0.263942 21.199
-0.650434 0.127446 21.3279
-0.769558 0.1786 21.262
-0.912532 0.197418 20.9941
-0.787471 0.152337 20.1134
1.2184 -0.389061 20.0513
0.826235 -0.124801 19.7446
0.90469 -0.487345 21.2037
1.61012 -0.265631 20.5437
0.201932 -0.298266 21.349
0.695807 -0.415927 21.3287
-0.334126 -0.0561532 21.5171
0.0994196 -0.235946 21.4884
-0.874384 0.0834929 21.1627
-0.732188 -0.14736 21.408
-0.969624 0.02647 21.6849
-1.01803 -0.136232 20.9757
-0.733779 -0.187513 20.5147
1.37196 0.0625532 19.8577
0.68296 0.218162 19.7951
1.41528 -0.159763 21.1022
1.36239 0.438479 20.3019
0.581466 -0.284298 21.4715
1.11991 0.100927 21.2066
-0.168546 -0.239848 21.58
0.326805 -0.101476 21.5101
-0.758623 -0.354417 21.2453
-0.3278 -0.355334 21.349
-0.979915 -0.40771 20.7691
-0.562077 -0.433752 21.0575
-0.535087 -0.567459 20.8981
0.720482 0.429515 20.0224
0.999795 0.51153 20.6879
0.644337 0.204119 21.309
0.045989 -0.128962 21.394
-0.259979 -0.351631 21.1425
-0.301583 -0.373036 20.9773
-1.04883 -0.441057 20.1369
-2.14664 -2.20292 18.8384
-1.36277 -0.962416 19.9507
-1.81951 -0.829899 19.6238
-0.880185 -0.467862 19.5922
-1.96586 -1.3042 20.9116
-0.794495 -0.474259 21.1433
-0.181962 -0.167262 17.2315
-0.685504 -0.717522 21.5049
-1.00244 -0.923715 21.7959
-0.150535 -0.515701 21.5036
-0.160295 -0.25085 21.3256
0.201641 0.159628 14.658
-0.00322056 -0.214964 21.4153
-0.00459231 -0.444565 21.1597
0.100297 -0.201006 21.3582
0.307876 0.00724986 21.457
0.0937538 0.515409 13.6024
0.429441 0.234133 21.5307
0.552404 0.136153 20.6559
1.05019 0.608527 20.7015
0.799348 0.181455 21.1716
0.473972 1.47225 13.1834
0.925396 0.682847 21.0383
1.4266 0.523689 19.9394
1.29897 0.757214 20.193
0.846396 0.102893 21.5167
1.26925 1.40819 13.5931
1.07125 0.730926 20.9453
1.61154 0.552595 18.9559
0.933477 0.517199 21.2132
-1.28279 -0.173231 19.9567
-3.38582 -0.721546 16.9091
-2.14968 0.264308 19.1099
-1.02457 -0.185726 19.3636
-3.58183 -0.604691 20.6808
-1.18881 -0.385682 21.1867
-2.2957 -0.450814 21.6197
-0.694571 -0.996396 21.4936
-0.360741 -0.349823 21.409
-0.844763 -0.795606 21.4079
-0.10116 -0.247051 20.3754
0.289543 -0.160254 21.5878
0.389481 -0.221068 20.4683
1.34059 0.0911835 18.7935
0.915919 -0.152694 21.2176
0.46803 0.79336 4.21492
1.1401 -0.499652 20.1109
1.57652 -0.0674402 19.4791
1.02398 -0.195573 21.3133
2.26664 0.527643 10.4503
1.3542 -0.566987 20.1834
1.3646 -0.0214256 20.2067
-1.05521 0.369801 19.9073
-1.56272 1.51677 18.6735
-0.860946 0.75896 19.7649
-0.782775 0.361979 19.4849
-2.07446 1.17698 20.06
-1.38802 0.303108 20.842
-2.81847 2.13143 20.5426
-1.29146 1.00535 20.6362
-1.95086 0.366677 21.4417
-0.738943 -0.0328158 21.4462
-2.12782 0.45363 21.4095
-0.872017 0.495943 21.5336
-0.530565 -0.0573847 21.8614
0.0324831 -0.216576 21.5118
0.519033 -0.177361 19.3325
-0.0369905 -0.160504 21.5402
0.379103 -0.559336 21.5603
0.471233 -0.418004 21.2106
0.627311 -0.795129 19.5835
0.25519 -0.461423 21.2321
0.570375 -0.744496 21.2641
0.541842 -0.415636 20.861
0.695308 -0.987691 19.7199
0.341763 -0.558 20.9877
0.512355 -0.683332 20.6078
2.14909 -2.37282 18.7176
-0.0513145 -3.90833 18.709
-0.0959072 -4.98693 15.1096
-0.071091 -1.29918 18.3437
-0.00148673 -3.37994 20.8783
0.186521 -0.115832 17.1546
-0.00279843 -0.903262 20.9145
-0.00104921 0.0274619 8.22057
-0.204277 0.158473 14.5733
-0.00141897 -0.100204 17.0863
-0.00210326 0.0804177 9.20497
-0.101256 0.448639 13.4697
-0.00599432 0.268524 15.6613
-0.0493894 0.348784 5.76184
-0.369681 1.42622 12.6611
-0.0834003 0.228791 13.5179
-0.0606406 -0.999132 -2.97473
-0.0410762 -1.01556 1.85414
-1.24464 1.42082 13.3737
-0.0168223 0.841174 12.3151
-0.000173926 -0.450876 -1.21953
0.0625725 -0.455187 5.77753
3.38848 -0.77013 16.618
-0.0883783 2.17923 13.8216
-0.062718 -0.418671 17.5554
-0.388213 0.851403 3.90678
-0.0157778 0.368241 -0.166738
0.0754547 -1.6113 -3.82223
-2.2503 0.553845 10.0753
0.0354835 -1.41939 0.976456
0.0794065 -2.11263 -0.917935
1.55964 1.52727 18.6627
0.0184841 1.62257 19.1282
-0.0208846 0.84578 18.5317
0.0428439 4.72746 19.0796
2.80842 2.05421 20.5658
0.0441906 2.70603 20.1964
0.0431462 6.02654 20.0513
2.13218 0.445833 21.5379
0.0104507 2.06751 22.2956
-6.74119e-05 -0.0386587 13.5369
-0.543635 -0.164897 19.1957
-0.00296637 -0.220945 21.8981
0.000745422 -0.69337 11.6592
-0.64297 -0.776664 19.3247
-0.0013945 -0.67598 21.6119
0.0135119 -1.10306 15.648
-0.693081 -0.995127 19.6673
0.00263466 -0.728177 21.2659
-0.00430006 -0.861634 17.5045
1.07884 -0.470622 20.1386
1.39688 -1.03356 19.9188
1.89393 -0.902354 19.5324
0.884934 -0.511987 19.5382
1.99796 -1.33924 20.9237
0.797415 -0.480241 21.1451
0.676046 -0.721136 21.5126
1.00232 -0.923511 21.7929
0.157191 -0.520263 21.5046
0.159643 -0.253104 21.3276
0.00206157 -0.215217 21.4119
0.0119504 -0.447264 21.175
-0.0963925 -0.202273 21.3343
-0.30464 0.00394911 21.4592
-0.429639 0.249408 21.5332
-0.541539 0.126814 20.7605
-1.04678 0.631347 20.5921
-0.800678 0.183128 21.1697
-0.916433 0.707231 21.0234
-1.41197 0.531196 19.8263
-1.3147 0.784629 20.0807
-0.869591 0.102535 21.4734
-1.0814 0.765526 20.9395
-1.61892 0.57392 18.8421
-0.960217 0.544666 21.2443
1.33496 -0.181841 19.9459
2.19702 0.287949 19.0273
1.044 -0.189966 19.2506
3.57905 -0.60454 20.6805
1.1873 -0.38639 21.1887
2.28604 -0.446525 21.6097
0.701644 -0.987871 21.5202
0.358293 -0.349438 21.4144
0.840905 -0.785482 21.3903
0.103268 -0.250649 20.425
-0.286834 -0.160569 21.5894
-0.381924 -0.223271 20.4766
-1.33227 0.0768847 18.8607
-0.906375 -0.150581 21.2217
-1.13057 -0.490273 20.0864
-1.57388 -0.0561461 19.3908
-1.03335 -0.193669 21.341
-1.36697 -0.559212 20.1682
-1.38332 0.00403364 20.2244
1.05284 0.368563 19.9116
0.858991 0.734143 19.7862
0.781512 0.373921 19.4603
2.04402 1.12437 20.0796
1.36189 0.296829 20.8387
1.27497 0.95574 20.6434
1.89872 0.355833 21.4316
0.728417 -0.0295962 21.4401
0.86436 0.485026 21.5224
0.530944 -0.0569733 21.8595
-0.0313368 -0.216003 21.5103
0.0367715 -0.158776 21.5434
-0.378112 -0.558724 21.5622
-0.470644 -0.417325 21.2125
-0.254523 -0.464285 21.2348
-0.571711 -0.746301 21.2746
-0.541092 -0.422456 20.8628
-0.344842 -0.562415 20.9919
-0.509491 -0.683292 20.5928
-1.61915 -0.928947 19.7685
-0.792703 -0.822441 21.6321
0.0367853 -0.319327 21.332
0.526925 0.193159 21.3216
1.15955 0.701427 20.2933
1.35076 0.604585 19.9662
-2.22047 -0.368021 19.244
-1.61195 -0.884687 21.9634
-0.220818 -0.684193 20.742
0.559571 0.0270598 20.105
1.49534 -0.0158954 19.2639
1.5399 0.00943638 19.6585
-1.44086 0.785298 19.4506
-2.1242 0.771946 20.8691
-1.2386 0.0897495 21.7975
0.0367708 -0.29465 21.7909
0.513361 -0.665064 21.3189
0.633713 -0.77201 21.0451
-0.074755 -4.70184 17.3726
0.000990307 -0.171515 10.5836
-0.00058516 0.0210934 8.52021
-0.00869223 0.164453 8.16022
-0.130359 -0.361924 3.78249
-0.00939229 0.17918 5.55277
-0.0939978 -1.25078 12.7862
0.0266158 -0.553158 -2.96091
0.0579275 -1.06252 -3.08553
-0.00754301 2.56781 17.6403
0.0351965 4.08205 19.7665
0.00374818 1.82746 15.8184
0.0032347 -0.596389 11.9209
0.00154632 -0.81111 13.7473
0.0089845 -1.45472 16.5604
1.67859 -1.01313 19.6943
0.791344 -0.830362 21.6384
-0.0350621 -0.320962 21.3122
-0.518269 0.196374 21.2959
-1.1548 0.728228 20.1723
-1.35365 0.652877 19.9039
2.28751 -0.376375 19.1476
1.6092 -0.882343 21.955
0.226792 -0.680721 20.7852
-0.552196 0.0180335 20.1821
-1.48139 -0.00665203 19.2164
-1.55371 0.031133 19.548
1.44052 0.786779 19.4464
2.07875 0.74389 20.8689
1.22341 0.0923745 21.7843
-0.0374412 -0.293377 21.7907
-0.512118 -0.66432 21.3228
-0.636117 -0.775953 21.0598
-0.83336 -0.292051 1.49956
-0.00597648 -0.0092589 0.121667
-0.00866698 -0.000200105 0.366495
0.0651718 0.0269795 0.152018
-0.0395694 0.0263157 0.0763909
0.0276631 0.144847 0.790411
-1.37519 0.40571 1.60511
-0.04551 0.460573 1.06882
-0.376359 -0.0305831 1.03991
0.0839084 -0.0117173 0.241458
-0.0212 0.0196991 -0.0290913
0.0788324 0.0497676 0.510865
0.00596863 -0.00923725 0.121614
0.790932 -0.273938 1.40942
0.00834295 0.000615775 0.348431
0.0362205 0.0236628 0.0694796
-0.0641078 0.0288125 0.150312
-0.0276594 0.141079 0.766911
0.0468318 0.462715 1.07513
1.37858 0.407073 1.60797
0.374398 -0.0311016 1.03517
0.0169802 0.0218778 -0.0323867
-0.084418 -0.00974643 0.241938
-0.0791061 0.0502254 0.50764
0.0236818 0.0336609 0.747873
0.000957572 0.00880519 0.239999
0 0 0
0 0 0
-0.0263925 0.0343767 0.608094
-0.00957009 -0.0315829 1.08068
-0.0197683 0.00829197 0.0827031
0.00126769 0.000378792 0.0290703
-0.0905287 -0.0749069 0.29182
0.000327131 0.00235371 0.0177319
0.00689701 0.0179662 0.0606686
-0.088009 0.0917322 0.254338
0.0181357 0.0371631 0.144263
0.00643943 0.0316808 0.094463
0.0259061 0.0725788 0.181061
0.129537 0.0407161 0.376457
-0.0228277 0.034683 0.770623
0 0 0
-0.000922289 0.00881477 0.239377
0 0 0
0.024612 0.0298796 0.594694
0 0 0
0.0102429 -0.0309087 1.08009
0.0231802 0.0101036 0.0961912
0.0907763 -0.0748707 0.291977
0.0867005 0.0911497 0.252256
-0.000315838 0.00227522 0.0171441
-0.00677676 0.0176607 0.0595412
-0.0184292 0.0380521 0.145687
-0.130011 0.040773 0.377096
-0.00660613 0.032155 0.0943222
-0.0255417 0.0717016 0.179217
-0.000446652 -0.00121321 0.014749
-0.0725081 0.0133717 0.0404028
5.17856e-09 -2.44114e-07 2.19326e-05
-1.36052e-05 -0.212559 0.0803429
2.8583e-19 9.18698e-19 4.57512e-17
-4.22929e-06 -3.5598e-07 -9.85153e-05
0.002379 0.000383886 0.0249708
-0.10386 0.0741931 -0.0282939
-8.23651e-20 2.38891e-18 2.08915e-17
-0.000956777 -0.008434 -0.0042033
0 0 0
0 0 0
0.106832 3.2045 1.87414
2.30461e-05 0.0100044 0.0472427
0.00195242 -0.0893647 0.392441
-0.0177333 0.00100139 0.0228888
0 0 0
0 0 0
0 0 0
-0.0013081 -0.00185288 0.00541069
0.0715782 0.0131394 0.0398948
0.00066198 -0.00182067 0.0217406
3.95057e-06 -3.46667e-07 -9.42824e-05
0 0 0
0.105158 0.0786464 -0.0293772
-0.00231759 0.000329955 0.0243995
0 0 0
0 0 0
0.0176564 0.00100308 0.0227924
-0.00186738 -0.0896511 0.392925
0.00122543 -0.00179401 0.00525423
0 0 0
0 0 0
0 0 0
0 0 0
0.0178043 0.147855 0.644457
6.64262e-08 7.46993e-08 9.50024e-06
-1.3588e-08 -3.53228e-08 -2.45834e-06
6.36565e-05 0.170765 0.507331
0.000288791 0.00361247 0.0386068
1.58068e-05 1.38907e-05 0.00327528
0 0 0
0.0020023 0.012773 0.0316717
-0.0254226 0.119135 1.32118
7.6522e-06 0.00277374 0.00736642
-1.02028e-06 0.0049788 0.0234423
0 0 0
-2.36655e-05 -0.00360057 0.0166872
0 0 0
0 0 0
0 0 0
-0.017418 0.146461 0.63843
0.00618045 0.0593479 0.276099
-0.000284016 0.0036343 0.0379813
0.0242439 0.119446 1.31497
-0.00205004 0.0130817 0.0324155
0 0 0
-0.00152138 -0.00552055 0.03791
0 0 0
-0.000173556 -0.00106319 0.0105852
0 0 0