# vtk DataFile Version 2.0
tet_velo
ASCII
DATASET UNSTRUCTURED_GRID
POINTS 29498 float
-0.88556 0.075 -1.635
-0.825 0.165 1.72821
-0.842736 0.525 -1.655
-0.645 0.899974 1.685
0.885557 0.075 -1.635
0.825 0.165 1.72821
0.842736 0.525 -1.655
0.645 0.899974 1.685
-0.859613 0.11076 -0.51393
-0.782266 0.19792 0.60714
-0.803224 0.676391 -0.541667
-0.768664 0.832735 0.571667
0.85933 0.111041 -0.51393
0.782278 0.197907 0.60714
0.803226 0.676393 -0.541667
0.768667 0.832738 0.571667
-1.70183 -0.280607 -2.51436
-1.70559 -0.207871 -1.62061
-1.66596 -0.160088 -0.499335
-1.57762 -0.112911 0.623492
-1.5524 -0.119815 1.74489
-1.56461 -0.0963419 2.63929
-1.57928 -0.0461153 3.5325
-1.70623 -0.0193906 -2.52714
-1.70951 0.0655876 -1.63423
-1.66475 0.127181 -0.514467
-1.56021 0.206655 0.605994
-1.53263 0.20769 1.72591
-1.55706 0.232579 2.6202
-1.57856 0.281548 3.51366
-1.68752 0.477358 -2.55054
-1.67378 0.559111 -1.6573
-1.62361 0.693636 -0.542813
-1.53315 0.838743 0.57113
-1.43149 0.904305 1.68577
-1.50495 0.925911 2.58038
-1.56418 0.960052 3.47509
-1.65311 1.30826 -2.59144
-1.64074 1.40605 -1.69937
-1.61065 1.57063 -0.587384
-1.57172 1.74246 0.522931
-1.54378 1.86065 1.63499
-1.5524 1.91608 2.52724
-1.57974 1.95719 3.4211
-0.863663 -0.276232 -2.51486
-0.871552 -0.201061 -1.62133
-0.853373 -0.16746 -0.499237
-0.791125 -0.121674 0.62447
-0.787577 -0.148574 1.7466
-0.806942 -0.118439 2.64045
-0.820013 -0.0605547 3.53317
-0.869548 -0.0191914 -2.5273
-0.821814 0.211392 2.62115
-0.829338 0.268188 3.51417
-0.856039 0.462358 -2.54958
-0.779257 0.918302 2.58022
-0.825489 0.953152 3.47506
-0.834297 1.29421 -2.59049
-0.828595 1.39096 -1.69832
-0.813918 1.56215 -0.586755
-0.799764 1.74358 0.522856
-0.793049 1.86446 1.63446
-0.805544 1.91842 2.5267
-0.829571 1.95779 3.42071
0.850666 -0.276191 -2.51486
0.864037 -0.200997 -1.62133
0.83699 -0.167272 -0.499237
0.798355 -0.121642 0.62447
0.817084 -0.148568 1.7466
0.752897 -0.118428 2.64045
0.716461 -0.0605387 3.53318
0.850392 -0.0191685 -2.5273
0.71606 0.211399 2.62115
0.690447 0.268201 3.51417
0.835023 0.462372 -2.54958
0.652383 0.918308 2.58023
0.657878 0.953164 3.47506
0.813662 1.29424 -2.59049
0.806277 1.39098 -1.69832
0.785954 1.56218 -0.586756
0.745557 1.7436 0.522855
0.699057 1.86448 1.63446
0.678964 1.91843 2.5267
0.667927 1.95781 3.42071
1.69794 -0.280511 -2.51436
1.70824 -0.207729 -1.62061
1.66797 -0.159825 -0.499335
1.5972 -0.112815 0.623492
1.57851 -0.11979 1.74489
1.53001 -0.0963142 2.63929
1.4929 -0.0460791 3.5325
1.69986 -0.0193226 -2.52714
1.71663 0.0656755 -1.63423
1.67463 0.127456 -0.514467
1.57738 0.206729 0.605994
1.54496 0.207701 1.72591
1.49299 0.232599 2.6202
1.46417 0.281579 3.51366
1.67884 0.477402 -2.55054
1.6798 0.559144 -1.6573
1.63285 0.693736 -0.542813
1.54433 0.838797 0.57113
1.43036 0.904315 1.68577
1.41723 0.92593 2.58038
1.42123 0.960081 3.47509
1.63773 1.30832 -2.59144
1.62506 1.40611 -1.69937
1.58996 1.57069 -0.587384
1.52922 1.74251 0.522931
1.46479 1.86069 1.63499
1.43823 1.91612 2.52724
1.42853 1.95723 3.4211
-0.856079 0.3 -1.63693
-1.49012e-06 0.070962 -1.63904
-0.863909 0.101557 -1.07447
-0.77584 0.532487 1.74744
0 0.177796 1.71541
-0.833724 0.151369 1.16768
0 0.671252 -1.80125
-0.895601 0.673316 -1.09833
0 0.962306 1.74733
-0.730089 0.889611 1.12833
0.856174 0.3 -1.63703
0.863699 0.101765 -1.07447
0.775716 0.532487 1.74732
0.834816 0.150276 1.16768
0.895601 0.673317 -1.09833
0.730092 0.889614 1.12833
-0.783326 0.191954 0.046605
-0.811784 0.393576 -0.527798
-0.000141534 0.129098 -0.51393
-0.810904 0.515328 0.589403
5.97547e-06 0.142062 0.60714
-0.789896 0.758515 0.015
9.5489e-07 1.16367 -0.541667
1.23543e-06 1.4 0.571667
0.783219 0.19206 0.046605
0.811784 0.393717 -0.527798
0.810904 0.515322 0.589403
0.789883 0.758502 0.015
-0.899582 0.346788 -1.0864
-0.811648 0.454452 0.0308025
-0.897428 0.523907 1.148
-7.15122e-05 0.10518 -1.07447
-6.77795e-05 0.136238 0.046605
2.98774e-06 0.161102 1.16768
-7.45058e-07 0.3 -1.86462
0 0.532487 1.90897
4.77445e-07 0.846352 -1.09833
1.09516e-06 1.42061 0.015
6.17715e-07 1.35585 1.12833
0.899582 0.346859 -1.0864
0.811648 0.45452 0.0308025
0.897427 0.523905 1.148
-1.29753 0.0702938 -1.63462
-0.878556 -0.0630305 -1.62817
-0.877554 0.0279043 -2.08115
-1.17881 0.186345 1.72706
-0.806288 0.00821301 1.73741
-0.823407 0.188196 2.17468
-1.25826 0.542055 -1.65615
-0.849388 0.493679 -2.10229
-0.835665 0.957978 -1.67666
-1.03825 0.90214 1.68538
-0.712129 0.909138 2.13261
-0.719024 1.38222 1.65973
0.874797 -0.0629983 -1.62817
0.867974 0.0279158 -2.08115
1.30109 0.0703378 -1.63462
0.821042 0.00821576 1.73741
0.77053 0.188199 2.17468
1.18498 0.18635 1.72706
0.838879 0.493686 -2.10229
0.824506 0.957991 -1.67666
1.26127 0.542072 -1.65615
0.648692 0.909141 2.13261
0.672028 1.38223 1.65973
1.03768 0.902145 1.68538
-1.26218 0.11897 -0.514199
-0.856493 -0.0283502 -0.506584
-1.17124 0.202288 0.606567
-0.786696 0.0381233 0.615805
-1.21342 0.685014 -0.54224
-0.808571 1.11927 -0.564211
-1.15091 0.835739 0.571398
-0.784214 1.28816 0.547261
0.84816 -0.0281154 -0.506584
1.26698 0.119249 -0.514199
0.790317 0.0381325 0.615805
1.17983 0.202318 0.606567
0.79459 1.11928 -0.564211
1.21804 0.685065 -0.54224
0.757112 1.28817 0.547261
1.1565 0.835767 0.571398
-1.70371 -0.244239 -2.06748
-1.70403 -0.149999 -2.52075
-1.28275 -0.278419 -2.51461
-1.68578 -0.183979 -1.05997
-1.70755 -0.0711416 -1.62742
-1.28857 -0.204466 -1.62097
-1.62179 -0.136499 0.0620785
-1.66536 -0.0164537 -0.506901
-1.25966 -0.163774 -0.499286
-1.56501 -0.116363 1.18419
-1.56891 0.0468722 0.614743
-1.18437 -0.117292 0.623981
-1.55851 -0.108078 2.19209
-1.54252 0.0439378 1.7354
-1.16999 -0.134194 1.74575
-1.57194 -0.0712286 3.0859
-1.56083 0.0681187 2.62974
-1.18577 -0.10739 2.63987
-1.57892 0.117716 3.52308
-1.19964 -0.053335 3.53284
-1.70787 0.0230985 -2.08069
-1.69688 0.228983 -2.53884
-1.28789 -0.019291 -2.52722
-1.68713 0.0963841 -1.07435
-1.69164 0.312349 -1.64577
-1.61248 0.166918 0.0457636
-1.64418 0.410408 -0.52864
-1.54642 0.207173 1.16595
-1.54668 0.522699 0.588562
-1.54484 0.220135 2.17305
-1.48206 0.555998 1.70584
-1.56781 0.257064 3.06693
-1.531 0.579245 2.60029
-1.18944 0.221986 2.62068
-1.57137 0.6208 3.49437
-1.20395 0.274868 3.51391
-1.68065 0.518234 -2.10392
-1.67031 0.892808 -2.57099
-1.27178 0.469858 -2.55006
-1.64869 0.626373 -1.10006
-1.65726 0.98258 -1.67833
-1.57838 0.766189 0.0141586
-1.61713 1.13213 -0.565098
-1.48232 0.871524 1.12845
-1.55243 1.2906 0.54703
-1.46822 0.915108 2.13307
-1.48764 1.38248 1.66038
-1.53456 0.942982 3.02773
-1.52867 1.421 2.55381
-1.1421 0.922107 2.5803
-1.57196 1.45862 3.4481
-1.19483 0.956602 3.47507
-1.64692 1.35715 -2.1454
-1.2437 1.30123 -2.59097
-1.62569 1.48834 -1.14337
-1.23467 1.3985 -1.69884
-1.59118 1.65654 -0.0322263
-1.21228 1.56639 -0.58707
-1.55775 1.80156 1.07896
-1.18574 1.74302 0.522893
-1.54809 1.88837 2.08111
-1.16842 1.86256 1.63472
-1.56607 1.93663 2.97417
-1.17897 1.91725 2.52697
-1.20465 1.95749 3.42091
-0.867608 -0.238646 -2.0681
-0.866606 -0.147712 -2.52108
-0.00649879 -0.276211 -2.51486
-0.862463 -0.184261 -1.06029
-0.00375757 -0.201029 -1.62133
-0.822249 -0.144567 0.0626164
-0.0081915 -0.167366 -0.499237
-0.789351 -0.135124 1.18554
0.00361498 -0.121658 0.62447
-0.797259 -0.133506 2.19353
0.0147538 -0.148571 1.7466
-0.813477 -0.0894966 3.08681
-0.814378 0.0464769 2.6308
-0.0270227 -0.118433 2.64045
-0.824675 0.103817 3.52367
-0.051776 -0.0605467 3.53317
-0.862794 0.221583 -2.53844
-0.0095783 -0.01918 -2.5273
-0.825576 0.23979 3.06766
-0.800536 0.564847 2.60069
-0.0528769 0.211395 2.62115
-0.827413 0.61067 3.49461
-0.0694456 0.268195 3.51417
-0.845168 0.878283 -2.57004
-0.0105082 0.462365 -2.54958
-0.802373 0.935727 3.02764
-0.792401 1.41836 2.55346
-0.0634371 0.918305 2.58023
-0.82753 1.45547 3.44788
-0.0838051 0.953158 3.47506
-0.831446 1.34258 -2.14441
-0.0103174 1.29422 -2.59049
-0.821256 1.47655 -1.14254
-0.0111591 1.39097 -1.69832
-0.806841 1.65286 -0.03195
-0.0139818 1.56216 -0.586756
-0.796406 1.80402 1.07866
-0.0271034 1.74359 0.522856
-0.799297 1.89144 2.08058
-0.0469962 1.86447 1.63446
-0.817558 1.93811 2.9737
-0.06329 1.91843 2.5267
-0.0808223 1.9578 3.42071
0.857351 -0.238594 -2.0681
0.850529 -0.14768 -2.52108
1.2743 -0.278351 -2.51461
0.850513 -0.184134 -1.06029
1.28614 -0.204363 -1.62097
0.817673 -0.144457 0.0626164
1.25248 -0.163548 -0.499286
0.80772 -0.135105 1.18554
1.19778 -0.117229 0.623981
0.784991 -0.133498 2.19353
1.1978 -0.134179 1.74575
0.734679 -0.0894835 3.08681
0.734479 0.0464851 2.6308
1.14145 -0.107371 2.63987
0.703454 0.103831 3.52367
1.10468 -0.0533089 3.53284
0.842707 0.221602 -2.53844
1.27513 -0.0192456 -2.52722
0.703254 0.2398 3.06766
0.684222 0.564853 2.60069
1.10453 0.221999 2.62068
0.674163 0.610683 3.49461
1.07731 0.27489 3.51391
0.824342 0.878305 -2.57004
1.25693 0.469887 -2.55006
0.655131 0.935736 3.02764
0.665674 1.41837 2.55346
1.03481 0.922119 2.5803
0.662902 1.45549 3.44788
1.03956 0.956622 3.47507
0.809969 1.34261 -2.14441
1.2257 1.30128 -2.59097
0.796115 1.47658 -1.14254
1.21567 1.39855 -1.69884
0.765756 1.65289 -0.03195
1.18796 1.56643 -0.58707
0.722307 1.80404 1.07866
1.13739 1.74306 0.522893
0.68901 1.89146 2.08058
1.08192 1.86259 1.63472
0.673445 1.93812 2.9737
1.0586 1.91728 2.52697
1.04823 1.95752 3.42091
1.70309 -0.24412 -2.06748
1.6989 -0.149917 -2.52075
1.6881 -0.183777 -1.05997
1.71243 -0.0710266 -1.62742
1.63258 -0.13632 0.0620785
1.6713 -0.0161841 -0.506901
1.58786 -0.116303 1.18419
1.58729 0.0469568 0.614743
1.55426 -0.108052 2.19209
1.56174 0.0439553 1.7354
1.51146 -0.0711967 3.0859
1.5115 0.0681423 2.62975
1.47854 0.11775 3.52308
1.70824 0.0231765 -2.08069
1.68935 0.22904 -2.53884
1.69563 0.096566 -1.07435
1.69822 0.31241 -1.64577
1.62601 0.167093 0.0457635
1.65374 0.410596 -0.52864
1.56117 0.207215 1.16595
1.56086 0.522763 0.588562
1.51898 0.22015 2.17305
1.48766 0.556008 1.70584
1.47858 0.257089 3.06693
1.45511 0.579264 2.60029
1.4427 0.62083 3.49437
1.67932 0.518273 -2.10392
1.65829 0.892862 -2.57099
1.65633 0.62644 -1.10006
1.65243 0.982627 -1.67833
[...]
POINT_DATA 29498
VECTORS point_vectors float
-5.41074 -5.95011 14.8036
0.0281226 0.535173 2.8494
-2.56501 0.664788 4.28232
-0.0112204 -0.00409807 0.00449897
5.3611 -6.01877 14.9947
-0.0252011 0.457216 2.59057
2.54631 0.657212 4.25329
-0.0249804 0.0613339 -0.0183442
0.0620643 0.522207 4.35347
0.0380539 -0.0302855 0.440844
0.0110231 0.0334241 0.0892474
0 0 0
-0.0613181 0.509632 4.34564
-0.0424711 -0.0343656 0.443775
-0.0109224 0.0330306 0.0890706
0 0 0
-0.771312 -0.385463 20.0632
-1.10097 -0.612306 20.8016
-0.347874 -0.410297 21.4379
0.0674641 -0.230481 21.5074
0.476094 0.0329352 21.6201
0.757107 0.201371 21.324
0.912941 0.0924822 21.0592
-0.896544 -0.317246 19.9465
-1.3876 -0.547401 20.7895
-0.469544 -0.460421 21.478
-0.00853453 -0.374982 21.5475
0.58714 -0.120277 21.7486
0.94433 -0.0224549 21.4377
1.02748 -0.0583289 21.2971
-1.02764 -0.0407843 19.806
-1.74403 -0.13469 20.6581
-0.99109 -0.494416 21.5122
-0.44064 -0.427833 21.7067
0.332951 -0.498591 21.7907
0.764543 -0.495761 21.4761
1.01245 -0.556692 20.8896
-0.758187 0.342187 19.9151
-1.19763 0.54222 20.3712
-1.17963 0.323138 21.1703
-0.601263 0.0512444 21.5826
-0.0621075 -0.227024 21.5197
0.196181 -0.416757 21.3324
0.304041 -0.464896 21.0938
-1.01025 -1.12529 19.2491
-1.96424 -3.10751 21.623
-0.0484939 0.318966 21.3067
0.344602 0.290432 18.7354
0.454794 0.916133 19.9996
0.756977 1.39351 19.6969
1.21979 1.58959 19.6802
-1.3026 -0.978904 18.7549
0.903542 1.47225 11.1109
1.91216 1.60063 14.2416
-1.56597 -0.0328232 18.2048
1.08665 0.439338 8.98196
1.82001 -0.463153 13.7319
-0.858728 0.877973 19.17
-1.78519 2.05605 19.7171
-2.6102 2.09039 21.1448
-1.00812 0.661266 22.2439
-0.178151 -0.237349 21.848
0.0836959 -0.605826 21.5904
0.2273 -0.816855 21.5441
1.00042 -1.12707 19.2324
1.94814 -3.12609 21.6362
0.0679117 0.319503 21.1556
-0.396076 0.263446 18.7832
-0.516781 0.70434 19.9417
-0.594856 1.10637 18.6727
-0.935846 1.63896 18.2824
1.29653 -0.997136 18.713
0.168425 1.19739 7.15851
-1.38376 1.70631 9.80641
1.56256 -0.0262869 18.1386
-0.592547 1.11468 2.68774
-1.7031 -0.196962 7.41804
0.848053 0.896617 19.1435
1.76232 2.11465 19.6892
2.61786 2.22508 21.1038
0.974584 0.765918 22.2919
0.146189 -0.160428 21.852
-0.0978361 -0.531529 21.6849
-0.223187 -0.813382 21.5625
0.766698 -0.389084 20.059
1.08813 -0.612849 20.7931
0.343711 -0.416915 21.4198
-0.0561588 -0.25277 21.4655
-0.40347 -0.0327502 21.556
-0.690765 0.144556 21.3561
-0.943329 0.16373 21.0862
0.889759 -0.32086 19.9406
1.37068 -0.541671 20.7774
0.469235 -0.45854 21.4576
0.0157562 -0.376156 21.5022
-0.473919 -0.160923 21.6647
-0.859657 -0.025501 21.525
-1.17793 -0.0582943 21.733
1.03392 -0.0425516 19.7929
1.72801 -0.134819 20.6448
0.979396 -0.487082 21.488
0.443425 -0.415905 21.6616
-0.238056 -0.435683 21.7113
-0.693146 -0.479012 21.6152
-1.07743 -0.582561 21.2303
0.758543 0.347477 19.9
1.21071 0.55734 20.3558
1.19789 0.342802 21.1606
0.615723 0.0791976 21.582
0.0754315 -0.190605 21.5258
-0.183896 -0.390987 21.3614
-0.304981 -0.498906 21.0851
-0.794603 -0.0462654 1.02766
-0.00189772 0.0873059 0.167615
-0.0184441 0.0295458 0.478507
-0.0491776 -0.0121128 -0.0275623
-0.010096 0.00765749 0.0756908
-0.000187943 0.0171645 1.33014
-0.0022271 1.7015 2.01113
-0.51806 -0.478607 2.13341
-0.00217689 0.00324003 -0.0025896
0 0 0
0.80038 -0.0473669 1.03504
0.0168916 0.0283552 0.486211
0.0470085 0.00990994 -0.0428135
-0.0191608 0.0154292 1.32476
0.516382 -0.475898 2.12962
0 0 0
0.00249881 0.0380201 0.468777
0.000632842 0.004906 0.0117866
1.07761e-05 2.24218e-05 0.00113618
2.97653e-05 0.00225826 0.00352667
-0.000722866 0.00426984 0.0535027
0.0141793 0.045118 0.101653
0.00515713 0.0828556 0.154614
-5.82618e-05 -0.000115145 0.00569994
-0.00381734 0.035543 0.465048
-0.000627106 0.00479227 0.0116464
-2.92923e-05 0.00225463 0.00348075
-0.0139391 0.0443162 0.10062
0 0 0
-2.44692e-06 0.000318358 0.00082599
-5.63147e-06 0.000146063 0.000999232
0 0 0
0 0 0
-0.000581634 0.000499597 0.0163828
0.000143995 -0.403843 0.0966527
-0.108396 0.226047 -0.130835
0 0 0
-0.000145251 0.0165273 0.102487
-0.00053922 -0.00131218 0.0102773
0 0 0
2.36372e-06 0.00031535 0.000822084
5.35101e-06 0.00013578 0.000913616
-2.62412 -1.31372 20.9545
-3.05169 -5.16753 22.5989
-2.99991 -2.50704 18.164
0.930929 0.168824 20.4501
0.454232 1.02966 15.5143
0.441726 1.0328 8.6068
-3.69657 0.0166669 20.5864
-4.08319 0.47385 16.6001
-3.82817 3.16442 19.3805
0.882738 -0.00187623 18.1917
0.259776 0.552639 4.04008
0.610472 0.0695798 14.2913
3.01287 -5.17699 22.6377
3.00868 -2.55294 18.1085
2.597 -1.30504 20.9446
-0.484763 0.818995 15.3104
0.213035 0.560381 6.06484
-0.769969 0.0406614 20.3642
4.09055 0.486495 16.4961
3.82832 3.25754 19.3496
3.66521 0.0104212 20.5803
-0.105265 1.67995 1.05403
-0.875128 0.299283 12.2484
-0.786584 0.177615 17.9399
-0.071438 -0.754345 22.045
0.133804 0.827531 15.5325
0.191073 -0.446585 19.9644
0.788501 -0.0616387 11.3699
-1.35398 -1.48147 21.972
-5.83418 0.245381 21.3737
-0.67016 -0.771798 20.7088
-0.536035 0.708073 15.6255
-0.131746 0.807206 15.2582
0.0806295 -0.760449 22.0647
-0.82856 -0.0875221 11.4563
-0.18795 -0.482838 20.1272
6.06784 0.295207 21.1714
1.35448 -1.45477 21.9832
0.205291 1.0275 13.71
0.679125 -0.755933 20.7264
-1.02845 -0.539399 20.3291
-0.845203 -0.355733 19.9988
-0.984564 -0.678006 19.7486
-0.766216 -0.545235 21.2956
-1.27289 -0.608947 20.8194
-1.67195 -1.33323 21.0209
-0.0809358 -0.300321 21.4812
-0.395061 -0.448833 21.485
-0.0617837 -0.385656 21.7576
0.2202 -0.124665 21.5609
0.0371348 -0.293091 21.5265
0.311147 -0.183122 21.4771
0.660238 0.138474 21.5076
0.511504 -0.0448063 21.6855
0.717653 0.343346 21.6095
0.890575 0.201041 21.3098
0.832898 0.126125 21.3217
1.0945 0.668528 21.0258
0.965984 0.0514036 21.047
1.41227 0.895027 20.7147
-1.27163 -0.475542 20.2342
-0.971662 -0.193522 19.8975
-1.18751 -0.534796 19.5142
-0.970906 -0.52999 21.3543
-1.64847 -0.35887 20.7257
-0.154546 -0.430701 21.5046
-0.721812 -0.548545 21.5338
0.189082 -0.260604 21.6752
-0.214268 -0.476478 21.6425
0.800882 -0.0357359 21.619
0.522825 -0.345615 21.8291
1.0515 -0.00564112 21.2792
0.920776 -0.304298 21.4175
1.41832 0.369028 20.5003
1.06906 -0.322111 21.488
1.78605 0.262692 20.3746
-1.52319 -0.057024 20.0397
-0.924215 0.199384 19.8465
-1.40738 -0.0542014 19.2362
-1.40902 -0.319959 21.3038
-1.5978 0.31529 20.4549
-0.707175 -0.541892 21.6248
-1.29196 -0.0845913 21.3607
-0.118632 -0.403424 21.8317
-0.641677 -0.216659 21.7002
0.578028 -0.514058 21.6539
0.0615675 -0.386193 21.6666
0.943984 -0.498813 21.3493
0.381605 -0.498668 21.4529
1.07414 -0.701735 20.8871
0.535352 -0.552279 21.1236
1.34581 -0.792357 20.8744
-1.02006 0.48437 20.0571
-0.892747 0.576721 19.5859
-1.27523 0.487087 20.8054
-1.63823 1.0798 20.1307
-0.931243 0.186546 21.4425
-1.79601 0.783119 21.2457
-0.301155 -0.0865759 21.5779
-0.833779 0.248234 21.8561
0.0796029 -0.308887 21.4799
-0.109106 -0.268093 21.7152
0.318094 -0.44507 21.3697
0.166609 -0.498905 21.4313
0.320527 -0.639521 21.196
-1.77568 -2.32121 19.483
-1.19524 -1.1112 19.0014
-0.0181245 -1.81258 18.5354
-0.596975 -0.749144 22.7251
-0.0126755 -4.62999 23.4597
0.138959 0.479217 19.5496
-0.0215716 -0.113336 17.1005
0.442011 0.383768 19.3793
-0.0503636 0.173683 13.4861
0.561397 1.19822 20.0218
-0.192651 0.396502 15.5395
1.0128 1.57588 19.8904
0.972196 1.58613 16.8649
-0.459252 0.554529 15.035
1.55706 1.77695 16.6936
-0.261665 1.46202 13.1104
-1.50457 -0.594733 18.354
-0.0262472 -1.71396 17.5217
1.4922 1.76717 12.9851
0.569873 0.984961 5.57551
-0.883182 -0.611752 -1.83039
2.34534 0.666221 12.2928
0.0718301 -0.289974 1.7672
-1.27001 0.694523 18.5947
-0.039089 0.0199234 16.476
1.47272 0.047882 11.7123
0.545338 -0.665651 18.4584
0.540344 -0.582083 -1.17799
0.87438 -1.04956 19.0901
0.492074 -0.770563 -2.33947
-1.34347 1.52896 19.2258
-0.0164829 1.31937 18.6173
-2.18623 2.05985 20.3974
-0.0436836 3.45344 19.1149
-2.02036 1.44533 22.1489
-0.0840407 5.31173 20.0881
-0.464944 0.115719 22.057
-0.0623718 1.31527 22.7971
-0.0396774 -0.430968 21.7068
-0.0634743 -0.104646 21.9705
0.175755 -0.767282 21.4356
-0.0617798 -0.573565 21.7813
-0.00466203 -0.844175 21.6544
1.76663 -2.35567 19.4719
1.17519 -1.11523 18.9718
0.987286 -0.684979 19.7227
0.59451 -0.753988 22.8017
1.67175 -1.33962 21.0055
-0.164057 0.46611 19.5278
0.0473602 -0.387553 21.7444
-0.511183 0.316568 19.4104
-0.31193 -0.213765 21.4518
-0.544491 0.847884 19.7169
-0.638625 0.18344 21.538
-0.783041 1.41795 18.6982
-0.398033 1.24943 14.297
-0.978173 0.572448 20.7905
-1.10391 1.86257 14.4568
-1.49396 1.04567 20.4344
1.49956 -0.604144 18.2957
1.19332 -0.550593 19.4827
-0.329369 1.61953 8.67984
0.66862 0.966197 -0.546433
-1.1615 0.454636 18.5432
-1.9031 0.935606 5.82809
-1.80233 0.70776 18.9228
1.2526 0.707458 18.548
1.40782 -0.0502724 19.204
-1.11064 0.508898 5.18999
-0.817454 -0.277133 14.9454
-0.982401 -0.14269 18.8147
-0.978932 -0.989188 17.9156
-1.63217 -0.569852 19.2599
1.32466 1.56329 19.1961
0.887115 0.591069 19.5652
2.16579 2.15415 20.3506
1.64939 1.1146 20.1122
2.03954 1.6274 22.1853
1.8353 0.838859 21.2366
0.417271 0.184301 22.0803
0.843298 0.305307 21.8734
0.0226173 -0.345636 21.7363
0.107952 -0.204311 21.7146
-0.19572 -0.715539 21.4787
-0.170451 -0.468467 21.4739
-0.332232 -0.686558 21.3729
1.02402 -0.544861 20.324
0.839967 -0.358863 19.9986
0.755608 -0.548494 21.2869
1.25799 -0.606831 20.8094
0.0820122 -0.312244 21.4598
0.39076 -0.450954 21.466
-0.19174 -0.155541 21.5169
-0.0291492 -0.298568 21.4839
-0.570911 0.0621834 21.493
-0.416774 -0.100394 21.5965
-0.847235 0.198013 21.3384
-0.775744 0.0820038 21.3896
-1.08304 0.031632 21.3757
1.26555 -0.479494 20.2296
0.973981 -0.196225 19.8811
0.959824 -0.526142 21.3343
1.62421 -0.352028 20.7094
0.157701 -0.427088 21.4787
0.715996 -0.544606 21.5094
-0.15092 -0.276628 21.6089
0.218378 -0.4727 21.5932
-0.667661 -0.0852066 21.6079
-0.402163 -0.335558 21.7405
-1.04657 -0.0132593 21.4881
-0.825178 -0.329242 21.5294
-1.1803 -0.336921 21.9809
1.52393 -0.0588204 20.0312
0.924947 0.203607 19.8353
1.39692 -0.318504 21.2843
1.59865 0.320723 20.4457
0.70117 -0.530098 21.5946
1.29463 -0.0815253 21.3497
0.148625 -0.377521 21.7639
0.651357 -0.206536 21.678
-0.445926 -0.468427 21.6439
-0.0155385 -0.336556 21.6544
-0.948484 -0.518404 21.499
-0.34021 -0.516919 21.624
-0.549779 -0.619903 21.2703
1.02921 0.492792 20.0426
1.28393 0.504621 20.7939
0.950733 0.209879 21.4375
0.313176 -0.0529922 21.579
-0.0638124 -0.281713 21.504
-0.309217 -0.446782 21.3912
-1.17626 -0.516242 20.2668
-2.42501 -2.63601 18.8812
-1.45498 -1.07685 20.0806
-2.03831 -0.980024 19.7389
-1.08474 -0.620285 19.6338
-2.11787 -1.40299 21.0355
-0.869303 -0.558141 21.3771
-0.389019 -0.010151 17.5684
-0.790277 -0.838391 21.8117
-1.16127 -1.00333 22.0565
-0.036488 -0.527867 21.854
-0.110386 -0.366469 21.4744
0.377448 0.564282 12.6374
0.24355 -0.202264 21.5768
0.301237 -0.608695 21.1256
0.295328 -0.339044 20.7727
0.206539 -0.199068 21.5849
0.629136 0.193072 13.9979
0.426382 -0.0386175 21.6213
0.26687 -0.259894 20.5416
0.861003 0.271637 21.2006
0.713677 0.0593301 21.5556
0.680748 1.38837 15.8273
0.92134 0.526793 21.4798
1.2485 0.234244 20.7533
1.25988 0.567028 21.0503
0.975524 0.134968 21.262
1.23508 1.83319 16.8087
1.15369 0.684651 20.8985
1.70319 0.375777 20.5656
1.58926 0.608245 20.8604
-1.44864 -0.281656 20.1378
-4.09218 -1.40943 16.7741
-2.58059 0.0113759 19.2748
-1.34187 -0.35343 19.3227
-3.4819 -0.819143 20.831
-1.24225 -0.476509 21.3525
-2.31419 -0.75881 22.0337
-0.331506 -1.14241 21.8506
-0.390594 -0.559193 21.5753
-1.03374 -1.36208 21.3705
0.05726 -0.668712 19.8423
0.0687727 -0.385694 21.7651
-0.0848976 -0.0787003 19.7328
1.02519 0.295735 18.5149
0.768144 -0.32196 21.6651
-0.498836 0.629145 1.63378
0.85707 -0.462474 19.6667
1.55047 -0.142671 19.5583
1.12695 -0.269559 21.3323
1.5953 0.947688 8.92087
1.28022 -0.762081 20.9838
1.77104 -0.0882458 19.8256
-1.31963 0.323854 20.0183
-2.43684 1.80536 18.2377
-1.26968 0.855497 19.7363
-1.18012 0.382241 19.3527
-2.69308 0.969205 20.1785
-1.5563 0.133666 21.0224
-4.1897 1.89798 20.9256
-1.83955 0.994646 20.7216
-2.36443 -0.0754328 21.6432
-1.00278 -0.181791 21.5911
-2.43376 -0.369161 18.0318
-1.39944 0.526368 21.7034
-1.03763 -0.209802 22.1118
-0.269202 -0.284827 21.74
0.441796 0.686729 14.4463
-0.391969 -0.0261168 21.8081
-0.00642248 -0.552136 21.8373
0.255871 -0.463166 21.5746
0.489258 -0.324802 16.5915
0.046077 -0.393388 21.558
0.385532 -0.76497 21.7266
0.535805 -0.538026 21.2508
0.6644 -1.03242 19.3474
0.287354 -0.563966 21.2026
0.629596 -0.918517 21.3488
2.41276 -2.68172 18.8522
-0.0228748 -4.40054 18.837
-0.0289683 -6.33766 15.1108
-0.0247242 -1.79409 18.007
-0.00605927 -3.9674 21.19
0.384201 -0.00337842 17.49
-0.0184724 -1.07284 21.0714
-0.0168895 0.122333 6.63624
-0.416511 0.539765 12.5947
-0.0242364 0.10067 14.8156
-0.0616276 0.134232 5.55327
-0.694301 0.139262 14.066
-0.0841992 0.246385 14.5638
-0.355605 0.30819 8.10258
-0.448572 0.931265 14.3178
-0.319504 0.427534 15.4543
-1.10408 -0.564089 -0.0733078
-1.05904 0.143512 6.64145
-0.724879 1.63772 14.7086
-0.446422 0.911857 13.1727
0.102139 -1.04009 -1.61627
-0.306707 1.09049 7.26082
4.09581 -1.43194 16.6812
-0.0464444 2.23858 11.0819
-0.0356516 -1.0018 16.6715
1.1464 0.929871 -0.565872
-0.192528 0.863211 -0.334507
0.514664 -1.51911 -3.93364
0.0755941 1.07958 1.78302
0.639108 -1.28189 -1.46273
1.07949 -2.13226 -4.67192
2.42296 1.8564 18.172
-0.0296117 2.50255 18.5301
-0.022766 1.17626 17.4716
-0.0576589 6.38901 18.314
4.20829 1.99122 20.8879
-0.0650979 3.88224 19.5152
-0.0731564 5.70281 12.1974
2.15827 -0.216328 16.478
-0.11868 4.24091 23.1947
-0.00309423 -0.0351464 1.73278
-0.766193 1.006 12.0309
-0.0556893 0.322979 22.4184
-0.272384 -0.057439 3.34859
-0.729717 0.0636575 13.4466
-0.0734601 -0.309789 21.8712
-0.272821 -0.550705 8.18881
-0.919341 -0.806078 16.4803
-0.0375795 -0.807437 21.8055
0.0987327 -1.39237 11.7873
1.1686 -0.519313 20.266
1.45715 -1.08849 20.0541
2.04528 -0.989848 19.7173
1.09181 -0.632469 19.6026
2.11126 -1.40381 21.0221
0.85751 -0.557054 21.3611
0.784033 -0.846749 21.8039
1.15176 -0.999455 22.0315
0.0286188 -0.534177 21.8354
0.109156 -0.369199 21.4491
-0.249792 -0.215722 21.553
-0.292026 -0.624598 21.1813
-0.290547 -0.366226 20.7842
-0.1701 -0.222233 21.5263
-0.411495 -0.10128 21.5711
-0.244491 -0.314257 20.5646
-0.736207 0.107705 21.1598
-0.606287 -0.00793614 21.5348
-0.79677 0.353325 21.4197
-0.97525 0.179801 20.0048
-1.10088 0.52614 20.7251
-0.968731 0.103244 21.4486
-1.1353 0.620439 20.8652
-1.7017 0.622305 18.6173
-1.66465 0.859743 20.2855
1.4438 -0.282122 20.1269
2.58816 0.014192 19.2494
1.34638 -0.365642 19.2921
3.441 -0.814763 20.8183
1.23019 -0.470883 21.3267
2.29817 -0.750719 22.0017
0.346622 -1.13594 21.8948
0.389645 -0.55435 21.5448
1.02595 -1.3361 21.3499
-0.0366272 -0.691706 19.9456
-0.0255631 -0.376708 21.6848
0.111461 -0.070421 19.7088
-0.81167 0.314149 18.243
-0.619958 -0.338621 21.6183
-0.748761 0.114037 17.5001
-1.24802 0.202888 17.0583
-1.06795 -0.35385 21.5819
-1.32269 -0.36478 19.6692
-1.90628 0.2612 17.1259
1.32258 0.330422 20.0083
1.27194 0.883391 19.7154
1.17938 0.39509 19.3257
2.71559 0.99835 20.1636
1.55653 0.137972 21.0135
1.8528 1.04603 20.7031
2.39679 -0.0636907 21.6352
1.01117 -0.176789 21.5758
1.43446 0.590159 21.7135
1.0665 -0.188025 22.1017
0.287622 -0.25108 21.7161
0.387949 0.0248996 21.8254
0.0347139 -0.466419 21.7396
-0.197887 -0.406174 21.6118
-0.0398296 -0.334455 21.5979
-0.35988 -0.67361 21.6051
-0.544197 -0.56151 21.3455
-0.295685 -0.562373 21.2305
-0.707762 -0.934334 20.9917
-1.77787 -1.08236 19.9078
-0.917269 -0.925515 21.9547
0.320992 -0.371745 21.3762
0.402103 -0.178059 21.1485
1.12382 0.411071 21.013
1.32433 0.524175 21.1142
-2.46567 -0.606363 19.4141
-1.70423 -0.968642 22.2712
0.0592066 -1.13029 20.9423
0.116823 -0.125022 19.8631
1.24951 -0.0589751 19.6263
1.82693 -0.193273 19.5131
-1.95515 0.739165 19.424
-2.58494 0.46888 21.1648
-1.74906 -0.238098 22.0225
-0.437279 -0.328762 22.0956
0.197986 -0.677321 21.7769
0.517649 -0.883199 21.6086
-0.0244353 -5.55954 17.47
-0.0212802 -0.148616 9.55651
-0.0271749 0.10452 5.46337
-0.123718 0.16888 7.106
-0.76937 -0.0408908 7.50452
-0.463828 0.509221 6.61025
-0.0441524 -3.17802 10.9759
-0.217048 -0.00896957 -2.6783
0.724621 -2.17594 -5.1286
-0.0407774 3.69585 16.3158
-0.0450773 4.91982 17.9353
0 0 0
-0.0496306 -0.250434 4.02685
-0.427974 -0.104992 5.26332
-0.0531529 -1.02317 10.3198
1.78387 -1.09504 19.8874
0.913427 -0.929805 21.9394
-0.317627 -0.388481 21.3743
-0.37824 -0.23879 21.1488
-0.91932 0.265485 20.7645
-1.29029 0.496309 21.0877
2.47402 -0.604999 19.3945
1.6884 -0.961167 22.2111
-0.043154 -1.12292 21.003
-0.0819284 -0.151572 19.8349
-0.81162 0.234036 17.1516
-1.79414 0.119099 17.8307
1.96948 0.758941 19.393
2.60751 0.486743 21.1582
1.78611 -0.222165 22.0213
0.46662 -0.282493 22.0394
-0.15899 -0.546241 21.5127
-0.519424 -0.880204 21.686
-0.628461 -0.203861 0.784217
-0.094341 -0.0194244 0.61616
-0.0117873 0.00835882 0.120234
0.006848 -0.0108063 0.0353676
-0.0353139 0.0254963 0.192175
-0.0310383 0.0480154 1.21627
0 0 0
-0.485558 1.13845 1.28355
-0.478606 -0.358589 2.11007
-0.0305994 0.00026155 -0.0338894
-0.00189028 0.00239245 -0.00205494
0 0 0
0.0803911 -0.0259957 0.588367
0.689575 -0.226491 0.861915
0.014772 0.00943256 0.128854
0.158012 0.282341 0.894999
-0.00114819 -0.010468 0.0266151
0.020374 0.047147 1.2652
0.484199 1.1296 1.2729
0 0 0
0.479871 -0.358519 2.1132
-0.00205437 0.00540817 -0.0036337
0.0345931 0.029578 -0.0532593
0 0 0
0.116902 0.185917 0.894528
0.00622302 0.0182867 0.220536
0.00283096 0.011391 0.0339729
0 0 0
0.165714 -0.131658 1.33377
0.011714 0.0257009 0.60872
-3.0958e-05 0.00117471 0.00245181
0.00398985 0.000932414 0.0290146
0 0 0
0.000114298 0.000178337 0.00105687
0.0173725 0.104749 0.220353
3.10222e-17 -2.50566e-17 -5.91764e-17
0 0 0
0.00141875 0.0121041 0.0188784
0.0158183 0.0365737 0.0669675
0.21367 0.0839742 1.09148
0.00454211 0.153357 0.782806
-0.00733287 0.000694679 0.0405972
-0.00733545 0.0173622 0.224039
-0.00278423 0.0113331 0.0344397
-0.221277 -0.154747 1.59871
-0.0106419 0.00137441 0.0602407
-0.0137681 0.0223275 0.601826
3.11127e-05 0.00118439 0.00245701
0 0 0
-1.84873e-16 -1.49653e-16 -3.54048e-16
-0.000114683 0.000176256 0.00106183
-0.0170512 0.102886 0.2184
0 0 0
-0.226357 0.0898606 1.08286
-0.00140868 0.0120922 0.0184719
-0.015883 0.0366656 0.0671274
-7.13687e-05 -0.000246255 0.00162074
-1.72181 -1.09104 1.06008
0 0 0
-1.0835e-05 -0.0025538 0.000642368
0 0 0
0 0 0
2.91537e-05 0.000378525 0.00208364
-0.113369 0.0497437 -0.0302351
-0.000153476 4.10486e-05 0.00231692
-0.137472 -0.134331 -0.0664282
-3.01938e-05 0.0193204 0.209068
0.00149619 0.00169668 0.0626381
-0.00171073 0.812646 0.60328
0.000295583 0.0183883 0.0734174
3.90119e-06 -9.85492e-05 0.000919404
-0.305912 0.0307129 0.364818
0 0 0
-0.000439347 0.000673363 -0.000522979
-0.0148668 0.389728 1.08832
0.00171386 -0.00162576 0.0143478
1.58903 -1.00466 0.973552
7.47806e-05 -0.000260159 0.00170161
-0.00266644 0.000678716 0.0330277
0 0 0
0.085544 0.0968413 -0.0507395
-2.60911e-05 0.000371398 0.00201212
-0.0139057 0.00256083 0.231507
8.19178e-05 0.0177642 0.198456
0.298705 0.0292036 0.362242
-3.65605e-06 -9.27175e-05 0.000863099
-0.00233781 -0.00155542 0.0141303
0.00631261 0.39131 1.06824
-4.349e-05 0.00120025 0.00480528
0 0 0
0.0919753 -0.0122584 0.419432
1.06564e-06 0.000218993 0.000692062
0 0 0
0 0 0
-1.85937e-05 0.00127304 0.00315957
-0.0267874 0.150144 0.169105
0 0 0
0 0 0
0.000366273 0.0045672 0.00842037
-0.0591536 0.123114 0.929787
5.69191e-05 0.0109661 0.0203624
-0.00064617 0.422148 0.581789
0 0 0
-0.000356654 -0.00114953 0.0182385
-0.0140017 0.00112803 0.0845475
4.46136e-05 0.00127262 0.00517052
-0.0920359 -0.013377 0.418367
-1.25543e-06 0.000226912 0.000727515
1.8103e-05 0.00126456 0.00312924
0.0228472 0.135139 0.150614
0.0558294 0.125791 0.926718
-0.000364093 0.00454084 0.00838762
2.24477e-06 6.4599e-06 -6.49583e-05
-8.54281e-05 -0.000349484 0.00256988
0.0980483 -0.0112551 0.403628
0.0709885 -0.0521211 0.350174
2.66073e-05 0.001817 0.00694112
8.94855e-05 0.000454559 0.00157364