# vtk DataFile Version 2.0
tri_press
ASCII
DATASET UNSTRUCTURED_GRID
POINTS 3682 float
-0.88556 0.075 -1.635
-0.825 0.165 1.72821
-0.842736 0.525 -1.655
-0.645 0.899974 1.685
0.885557 0.075 -1.635
0.825 0.165 1.72821
0.842736 0.525 -1.655
0.645 0.899974 1.685
-0.859613 0.11076 -0.51393
-0.782266 0.19792 0.60714
-0.803224 0.676391 -0.541667
-0.768664 0.832735 0.571667
0.85933 0.111041 -0.51393
0.782278 0.197907 0.60714
0.803226 0.676393 -0.541667
0.768667 0.832738 0.571667
-1.70183 -0.280607 -2.51436
-1.70559 -0.207871 -1.62061
-1.66596 -0.160088 -0.499335
-1.57762 -0.112911 0.623492
-1.5524 -0.119815 1.74489
-1.56461 -0.0963419 2.63929
-1.57928 -0.0461153 3.5325
-1.70623 -0.0193906 -2.52714
-1.70951 0.0655876 -1.63423
-1.66475 0.127181 -0.514467
-1.56021 0.206655 0.605994
-1.53263 0.20769 1.72591
-1.55706 0.232579 2.6202
-1.57856 0.281548 3.51366
-1.68752 0.477358 -2.55054
-1.67378 0.559111 -1.6573
-1.62361 0.693636 -0.542813
-1.53315 0.838743 0.57113
-1.43149 0.904305 1.68577
-1.50495 0.925911 2.58038
-1.56418 0.960052 3.47509
-1.65311 1.30826 -2.59144
-1.64074 1.40605 -1.69937
-1.61065 1.57063 -0.587384
-1.57172 1.74246 0.522931
-1.54378 1.86065 1.63499
-1.5524 1.91608 2.52724
-1.57974 1.95719 3.4211
-0.863663 -0.276232 -2.51486
-0.871552 -0.201061 -1.62133
-0.853373 -0.16746 -0.499237
-0.791125 -0.121674 0.62447
-0.787577 -0.148574 1.7466
-0.806942 -0.118439 2.64045
-0.820013 -0.0605547 3.53317
-0.869548 -0.0191914 -2.5273
-0.821814 0.211392 2.62115
-0.829338 0.268188 3.51417
-0.856039 0.462358 -2.54958
-0.779257 0.918302 2.58022
-0.825489 0.953152 3.47506
-0.834297 1.29421 -2.59049
-0.828595 1.39096 -1.69832
-0.813918 1.56215 -0.586755
-0.799764 1.74358 0.522856
-0.793049 1.86446 1.63446
-0.805544 1.91842 2.5267
-0.829571 1.95779 3.42071
0.850666 -0.276191 -2.51486
0.864037 -0.200997 -1.62133
0.83699 -0.167272 -0.499237
0.798355 -0.121642 0.62447
0.817084 -0.148568 1.7466
0.752897 -0.118428 2.64045
0.716461 -0.0605387 3.53318
0.850392 -0.0191685 -2.5273
0.71606 0.211399 2.62115
0.690447 0.268201 3.51417
0.835023 0.462372 -2.54958
0.652383 0.918308 2.58023
0.657878 0.953164 3.47506
0.813662 1.29424 -2.59049
0.806277 1.39098 -1.69832
0.785954 1.56218 -0.586756
0.745557 1.7436 0.522855
0.699057 1.86448 1.63446
0.678964 1.91843 2.5267
0.667927 1.95781 3.42071
1.69794 -0.280511 -2.51436
1.70824 -0.207729 -1.62061
1.66797 -0.159825 -0.499335
1.5972 -0.112815 0.623492
1.57851 -0.11979 1.74489
1.53001 -0.0963142 2.63929
1.4929 -0.0460791 3.5325
1.69986 -0.0193226 -2.52714
1.71663 0.0656755 -1.63423
1.67463 0.127456 -0.514467
1.57738 0.206729 0.605994
1.54496 0.207701 1.72591
1.49299 0.232599 2.6202
1.46417 0.281579 3.51366
1.67884 0.477402 -2.55054
1.6798 0.559144 -1.6573
1.63285 0.693736 -0.542813
1.54433 0.838797 0.57113
1.43036 0.904315 1.68577
1.41723 0.92593 2.58038
1.42123 0.960081 3.47509
1.63773 1.30832 -2.59144
1.62506 1.40611 -1.69937
1.58996 1.57069 -0.587384
1.52922 1.74251 0.522931
1.46479 1.86069 1.63499
1.43823 1.91612 2.52724
1.42853 1.95723 3.4211
-0.856079 0.3 -1.63693
-1.49012e-06 0.070962 -1.63904
-0.863909 0.101557 -1.07447
-0.77584 0.532487 1.74744
0 0.177796 1.71541
-0.833724 0.151369 1.16768
0 0.671252 -1.80125
-0.895601 0.673316 -1.09833
0 0.962306 1.74733
-0.730089 0.889611 1.12833
0.856174 0.3 -1.63703
0.863699 0.101765 -1.07447
0.775716 0.532487 1.74732
0.834816 0.150276 1.16768
0.895601 0.673317 -1.09833
0.730092 0.889614 1.12833
-0.783326 0.191954 0.046605
-0.811784 0.393576 -0.527798
-0.000141534 0.129098 -0.51393
-0.810904 0.515328 0.589403
5.97547e-06 0.142062 0.60714
-0.789896 0.758515 0.015
9.5489e-07 1.16367 -0.541667
1.23543e-06 1.4 0.571667
0.783219 0.19206 0.046605
0.811784 0.393717 -0.527798
0.810904 0.515322 0.589403
0.789883 0.758502 0.015
-0.899582 0.346788 -1.0864
0.899582 0.346859 -1.0864
-7.15122e-05 0.10518 -1.07447
4.77445e-07 0.846352 -1.09833
-7.45058e-07 0.3 -1.86462
-0.811648 0.454452 0.0308025
0.811648 0.45452 0.0308025
-6.77795e-05 0.136238 0.046605
1.09516e-06 1.42061 0.015
-0.897428 0.523907 1.148
0.897427 0.523905 1.148
2.98774e-06 0.161102 1.16768
6.17715e-07 1.35585 1.12833
0 0.532487 1.90897
-0.86159 0.1875 -1.62674
-0.442781 0.0709814 -1.63902
-0.862055 0.100959 -1.35473
-0.806798 0.348744 1.74421
-0.4125 0.179998 1.71321
-0.827842 0.159704 1.44794
-0.835902 0.4125 -1.63246
-0.421368 0.647301 -1.7773
-0.895666 0.625656 -1.37667
-0.69317 0.71623 1.69897
-0.3225 0.949406 1.73443
-0.705401 0.912649 1.40667
0.442778 0.0709799 -1.63902
0.861748 0.1875 -1.6269
0.861469 0.101542 -1.35473
0.4125 0.153565 1.73965
0.806785 0.348744 1.74419
0.829881 0.157665 1.44794
0.421368 0.647266 -1.77727
0.836403 0.4125 -1.63296
0.895666 0.625656 -1.37667
0.3225 0.949413 1.73444
0.693138 0.71623 1.69894
0.705369 0.912617 1.40667
-0.861362 0.106558 -0.794198
-0.782733 0.190093 -0.233663
-0.799268 0.270383 -0.520864
-0.425227 0.12923 -0.51393
-0.834197 0.148443 0.887408
-0.783907 0.193826 0.326873
-0.806042 0.351896 0.598272
-0.405342 0.141567 0.60714
-0.807223 0.632665 -0.82
-0.81166 0.537062 -0.534733
-0.799319 0.720212 -0.263333
-0.504286 1.12538 -0.541667
-0.750129 0.861926 0.85
-0.805426 0.681852 0.580535
-0.780387 0.796732 0.293333
-0.514125 1.37595 0.571667
0.858589 0.109329 -0.794198
0.431077 0.117104 -0.51393
0.782728 0.190097 -0.233663
0.799301 0.270507 -0.520864
0.836689 0.14595 0.887408
0.412938 0.126392 0.60714
0.783803 0.193929 0.326873
0.806045 0.351888 0.598272
0.805862 0.631303 -0.82
0.504286 1.12538 -0.541667
0.81166 0.537133 -0.534733
0.799293 0.720186 -0.263333
0.750122 0.861919 0.85
0.514127 1.37595 0.571667
0.805414 0.681844 0.580535
0.780384 0.796729 0.293333
-0.899632 0.323394 -1.36167
-0.42804 0.3 -1.88621
-3.65012e-05 0.100492 -1.35675
-1.11759e-06 0.185481 -1.85767
-0.899688 0.224173 -1.08043
-0.43199 0.10606 -1.07447
-0.897088 0.528197 1.44772
-0.38792 0.532487 1.88187
1.49387e-06 0.16802 1.44154
0 0.355142 1.91146
-0.897307 0.337638 1.15784
-0.416861 0.159095 1.16768
2.38722e-07 0.812883 -1.44979
-3.72529e-07 0.485626 -1.95135
-0.897615 0.510052 -1.09237
-0.4478 0.86964 -1.09833
3.08857e-07 1.24008 1.43783
0 0.747396 1.82715
-0.894497 0.706759 1.13817
-0.365044 1.34374 1.12833
0.899631 0.323429 -1.36171
0.428087 0.3 -1.88612
0.899686 0.224312 -1.08043
0.431814 0.0924994 -1.07447
0.897089 0.528196 1.44766
0.387858 0.532487 1.88165
0.897313 0.337091 1.15784
0.41741 0.140512 1.16768
0.897615 0.510088 -1.09237
0.447801 0.869612 -1.09833
0.894092 0.706759 1.13817
0.365046 1.34377 1.12833
-0.804721 0.319586 0.0387037
-0.406728 0.134034 0.046605
-0.89728 0.370182 -0.807099
-0.81175 0.424014 -0.248498
-0.000106523 0.112874 -0.794198
-0.000104657 0.132616 -0.233663
-0.811894 0.48489 0.310103
-0.853876 0.519618 0.868704
-3.0902e-05 0.138975 0.326873
4.4816e-06 0.156026 0.887408
-0.810481 0.611338 0.0229012
-0.529959 1.35958 0.015
7.16167e-07 0.998649 -0.82
1.02502e-06 1.34628 -0.263333
1.16529e-06 1.4103 0.293333
9.26572e-07 1.38322 0.85
0.804735 0.319639 0.0387037
0.412797 0.121706 0.046605
0.897281 0.370288 -0.807099
0.811752 0.424119 -0.248498
0.811896 0.484921 0.310103
0.853429 0.519614 0.868704
0.81048 0.611368 0.0229012
0.529965 1.3596 0.015
-0.899805 0.205836 -1.3582
-0.898645 0.23817 -0.800648
-0.876299 0.522518 -0.813549
-0.897847 0.461276 -1.36917
0.899804 0.205906 -1.35822
0.897846 0.461294 -1.36919
0.876227 0.522571 -0.813549
0.898653 0.238345 -0.800648
-0.437386 0.0986929 -1.35574
0.437296 0.0894905 -1.35574
0.430704 0.0990832 -0.794198
-0.430934 0.117909 -0.794198
-0.434584 0.802107 -1.41323
-0.424706 0.970484 -0.82
0.424707 0.970395 -0.82
0.434584 0.801909 -1.41323
-0.43541 0.18649 -1.80969
-0.424704 0.449063 -1.89559
0.424727 0.449063 -1.89556
0.435432 0.18649 -1.80968
-0.802439 0.294762 -0.24108
-0.805998 0.335432 0.318488
-0.808909 0.647073 0.301718
-0.811634 0.574481 -0.255916
0.802449 0.294858 -0.24108
0.811634 0.574532 -0.255916
0.809082 0.647174 0.301718
0.806001 0.335458 0.318488
-0.416728 0.13013 -0.233663
0.421913 0.119452 -0.233663
0.412862 0.124059 0.326873
-0.406139 0.137593 0.326873
-0.529142 1.26652 -0.263333
-0.527497 1.37868 0.293333
0.527492 1.37867 0.293333
0.529146 1.26653 -0.263333
-0.895681 0.347131 0.878056
-0.896933 0.343191 1.44783
-0.872206 0.711495 1.4272
-0.795074 0.690395 0.859352
0.895677 0.346853 0.878056
0.795075 0.690395 0.859352
0.872217 0.711495 1.42716
0.896936 0.342917 1.4478
-0.403995 0.154315 0.887408
0.404276 0.138944 0.887408
0.414955 0.147357 1.44474
-0.41468 0.168582 1.44474
-0.374688 1.36915 0.85
-0.343772 1.23572 1.42225
0.343773 1.23572 1.42225
0.37469 1.36917 0.85
-0.40021 0.351943 1.87976
0.400179 0.351943 1.87978
0.355179 0.731813 1.82173
-0.35521 0.731813 1.82135
-0.854306 0.13125 -1.6116
-0.66417 0.0710226 -1.63898
-0.866194 0.0955928 -1.49487
-0.81618 0.256872 1.73649
-0.61875 0.180544 1.71267
-0.827817 0.160956 1.58808
-0.843611 0.46875 -1.64802
-0.632052 0.584113 -1.71411
-0.873236 0.579363 -1.51583
-0.681488 0.808102 1.70439
-0.48375 0.933736 1.71876
-0.689166 0.920277 1.54583
0.664167 0.0710211 -1.63898
0.854628 0.13125 -1.61192
0.863741 0.0980429 -1.49487
0.61875 0.175757 1.71745
0.816225 0.256872 1.73653
0.828686 0.160087 1.58808
0.632052 0.58417 -1.71417
0.843632 0.46875 -1.64804
0.873293 0.579419 -1.51583
0.48375 0.933734 1.71876
0.681503 0.808102 1.7044
0.689193 0.920304 1.54583
-0.783214 0.185933 -0.654064
-0.782442 0.189158 -0.373796
-0.79024 0.210172 -0.517397
-0.642308 0.12022 -0.51393
-0.781602 0.199811 0.747274
-0.784167 0.194793 0.467006
-0.798946 0.272512 0.602706
-0.606962 0.143429 0.60714
-0.804174 0.653479 -0.680833
-0.809302 0.607657 -0.5382
-0.801289 0.698319 -0.4025
-0.702148 0.997672 -0.541667
-0.759306 0.847239 0.710833
-0.7991 0.763321 0.576101
-0.775746 0.815954 0.4325
-0.652777 1.12711 0.571667
0.783192 0.185952 -0.654064
0.642167 0.120146 -0.51393
0.782438 0.18916 -0.373796
0.789385 0.21074 -0.517397
0.781849 0.199563 0.747274
0.607017 0.143332 0.60714
0.784068 0.194891 0.467006
0.798958 0.2725 0.602706
0.804171 0.653476 -0.680833
0.702158 0.997689 -0.541667
[...]
POINT_DATA 3682
SCALARS point_scalars float 1
LOOKUP_TABLE default
-109.474
-57.6316
-28.6855
-45.4376
-114.838
-50.2365
-28.6114
-41.9776
-44.6344
-24.2661
-58.2307
-49.1293
-44.1859
-23.3711
-57.6736
-48.0269
-82.9008
-167.488
-44.6344
-40.2663
-59.6769
-58.6896
-49.2911
-82.9008
-166.553
-65.0131
-24.3069
-58.561
-55.8653
-43.3538
-15.1251
-138.452
-68.5791
-43.4409
-59.0777
-44.3901
-42.2364
-15.1251
-98.9577
-105.259
-60.6661
-52.7097
-45.8902
-42.9461
-0.25766
-191.473
-44.6344
-31.5959
-53.7966
-48.1126
-41.6176
85.2258
-42.3159
-41.1497
137.368
-41.8296
-41.5562
50.8476
-38.5462
-105.259
-68.3471
-52.147
-44.0892
-42.3799
16.9088
-257.244
-44.3277
-30.8897
-48.6544
-39.9436
-32.9114
86.1138
-35.0561
-31.6112
139.064
-38.6739
-32.9197
51.7443
-38.2152
-104.372
-69.3448
-50.0049
-41.7104
-40.8816
-88.8261
-169.556
-44.1859
-37.9526
-53.0907
-50.9848
-41.0122
-88.8261
-165.709
-64.4197
-22.6073
-51.8631
-48.2903
-36.8621
-15.1506
-138.156
-68.092
-42.3951
-53.2571
-38.5334
-36.7186
-15.1506
-96.4232
-104.372
-61.3826
-51.2023
-42.6433
-39.5121
-66.865
-153.23
-64.625
-44.1768
-38.7431
-42.9595
51.5467
-80.318
-42.3388
-53.8338
-66.5733
-64.5477
-38.4184
-40.5419
-79.9467
-51.6243
-33.0777
-47.3801
-48.3814
-32.6779
-36.8213
-51.3805
6.62185
-72.9211
-32.5443
-46.9326
-31.5934
-50.6331
-73.3843
-73.0223
-71.6757
11.2016
183.09
-37.9292
-37.3239
-38.4571
-118.006
-49.7295
-46.8512
-37.4884
-54.5366
-35.583
-86.3945
-158.493
-91.8351
-47.1831
-45.6105
-43.5011
-61.3044
43.8944
-109.616
-44.6958
-42.4722
-52.5958
-158.105
-86.517
-91.4944
-41.8499
-40.5375
-40.3319
44.8691
-60.6365
-109.229
-41.6316
-39.0525
-49.4268
-64.0644
-36.6208
-45.8941
-47.3017
-45.5986
-30.1173
-26.3926
-36.0977
-67.1076
-50.2736
-54.4949
-17.4015
-49.8693
-40.5184
-50.2942
-68.8726
-63.6625
-47.0851
-36.1914
-45.4623
-44.6525
-35.4925
-29.3994
-25.3656
-66.5368
-16.8786
-49.7979
-53.8426
-48.4069
-68.2026
-39.4311
-49.3646
-105.108
161.724
-93.5799
121.25
-70.6756
-70.4166
-52.6062
-41.0827
-38.0018
-30.9491
-47.5931
-39.0503
-20.3186
192.481
-75.7923
-7.42799
-44.7052
-37.1688
-52.2362
-55.4364
-104.751
161.516
-70.3445
-70.2237
-48.0149
-34.7578
-44.7689
-37.194
-75.4123
-6.84169
-49.5389
-54.7532
-35.1016
-37.4247
-65.2442
-40.8255
-58.0414
-42.1627
-35.6359
-27.4532
-36.8179
-36.4306
-43.7338
-99.8496
33.9688
-52.584
-95.1931
-62.6225
-34.5357
-37.152
-64.7809
-40.3344
-34.836
-26.3058
-43.0835
-99.0345
-101.658
-64.1154
-67.2526
-105.853
-101.076
-105.495
-66.7603
-63.5677
-92.9537
-92.561
-57.8454
-57.4145
-20.1249
18.6594
19.0422
-27.979
117.416
171.962
172.109
116.918
-38.3597
-32.2496
-41.6389
-46.1848
-37.9028
-45.6317
-41.0416
-31.4785
-41.081
-40.8607
-35.3176
-35.757
-85.1289
-79.47
-78.7881
-84.3534
-33.238
-49.667
-59.3179
-40.839
-31.5759
-39.3547
-55.2827
-45.4342
-36.6647
-36.3325
-37.9261
-40.7788
-62.2296
-46.2613
-45.2188
-61.6873
-40.4249
-32.5759
-36.4248
-40.7521
-113.37
-172.364
-138.998
-52.2789
-49.9746
-47.8665
-46.9978
16.1392
-87.6174
-45.0384
-42.6485
-49.73
-171.942
-113.791
-138.537
-43.1162
-45.0512
-43.207
16.219
-47.0533
-87.3959
-40.9254
-39.8549
-46.3745
-50.6818
-40.5953
-46.4441
-45.9858
-15.1535
-27.8406
-24.7149
-34.9479
-60.3959
-53.9636
-56.0562
-105.834
-48.9144
-44.8935
-47.7628
-58.9136
-50.2678
-45.7041
-40.1932
-46.0408
-13.9904
-34.2563
-27.0116
-23.7158
-59.8686
-105.059
-53.4493
-55.4555
-47.6574
-57.6414
-43.8451
-46.7926
-79.4597
-61.2189
-151.414
111.307
-154.32
-153.478
-112.857
-10.8993
-74.7827
-59.864
-68.4431
-67.8244
-45.3707
-44.7043
-56.8574
-41.8136
-41.5522
-38.1031
-38.4128
-32.891
-43.4595
-42.3913
-46.3783
-40.5628
67.0911
67.5295
-36.0236
121.124
-92.9577
-80.6977
-78.4689
-52.6678
-42.4092
-42.0273
-42.3507
-42.6524
-54.4413
-51.7714
-54.7545
-55.3843
-79.3043
-61.0092
-151.028
111.421
-74.5788
-59.7883
-68.1724
-67.6916
-38.9987
-39.1958
-50.5477
-36.226
-40.8569
-40.9711
-43.344
-38.4167
-92.6163
-80.2326
-78.0805
-52.1224
-51.6805
-50.0141
-52.3381
-54.2676
-34.5481
-31.5486
-33.8824
-36.0028
-46.6214
-48.4956
-53.3848
-43.4269
-48.0836
-48.0297
-52.7225
-44.9262
-29.1988
-36.6176
-34.2898
-29.8933
-36.6064
-36.5835
-36.6013
-36.2235
-53.038
-50.6722
-46.9124
-68.1039
0.333862
0.688884
25.2115
-6.43106
-73.0151
-72.7194
-80.1318
-67.3895
-34.0665
-30.9343
-33.331
-35.6409
-46.182
-48.0371
-52.9319
-42.9695
-28.1439
-35.5118
-33.344
-28.6925
-52.3406
-49.8639
-46.2364
-67.2921
-85.6289
-72.1945
-74.5828
-66.6905
-85.279
-71.8468
-74.2099
-66.2859
-81.0717
-71.4469
-71.3931
-64.2064
-6.82121
6.66858
7.1876
26.8523
181.857
166.687
193.901
181.831
-36.4291
-39.2123
-36.807
-40.4921
-35.8415
-38.6722
-36.1166
-39.979
-38.1907
-40.0402
-37.3674
-38.0917
-115.578
-131.22
-108.424
-115.273
-50.9957
-48.7002
-51.5174
-48.8707
-47.4238
-45.8538
-48.5839
-46.4241
-37.4636
-38.0572
-37.2563
-36.8042
-49.6536
-54.8458
-54.4838
-58.468
-38.4638
-30.5127
-37.3138
-34.0471
-145.203
77.2835
-115.45
-10.4205
-98.5717
-91.2469
-54.7552
-42.3145
-42.5781
-42.4072
-48.0045
-43.0236
-150.265
125.334
-40.8599
105.652
-110.448
-36.9183
-49.6696
-41.5662
-43.1898
-42.5695
-54.6468
-49.5248
-115.183
-13.8185
-144.866
77.1013
-98.2514
-90.932
-38.8401
-36.1063
-48.8243
-36.03
-43.936
-39.2892
-37.6816
106.096
-149.756
125.156
-110.07
-36.6069
-42.0007
-41.2128
-44.2002
-36.7487
-50.4555
-48.2262
-64.7058
-58.1724
-37.4321
-39.5842
-51.4025
-41.4124
-51.7062
-43.8584
-37.1567
-37.6117
-30.8788
-34.1946
-30.0791
-19.7151
-35.874
-35.9236
-66.3548
-18.1492
-55.9929
-48.0187
-49.9076
-76.6162
7.29119
-55.8033
-46.5314
-58.8167
-40.6555
-39.7282
-45.2428
-61.515
-71.7258
-64.8674
-64.1476
-57.9723
-51.5228
-43.6408
-36.9845
-39.2987
-50.9313
-40.9978
-35.5145
-36.9429
-35.148
-35.4742
-30.1324
-33.6932
-29.1812
-18.6391
-65.8442
-17.3196
7.61089
-55.3407
-55.524
-47.5045
-49.311
-75.8762
-45.083
-57.8048
-71.0365
-64.2722
-39.5739
-38.4777
-44.4748
-60.6234
-103.647
-105.788
130.071
181.579
-93.6962
-93.479
122.75
122.671
-82.5825
-64.5616
-79.7665
-63.2433
-50.9489
-55.653
-40.0916
-40.7071
-37.5729
-39.1179
-35.3264
-29.2628
-47.7683
-48.0694
-37.5837
-39.1954
-16.7265
-22.311
196.219
196.229
-69.6636
-87.0124
-20.0682
6.92898
-45.4077
-44.8347
-35.8982
-38.8999
-58.0288
-46.2383
-58.4173
-51.1509
-103.294
-105.432
181.681
129.082
-82.2459
-64.1844
-79.4622
-63.169
-50.956
-46.5215
-31.508
-35.1449
-45.4547
-44.7653
-36.4961
-37.4344
-86.6543
-69.24
7.35073
-18.4344
-44.6209
-54.4649
-50.3417
-57.8132
-36.3892
-33.7876
-39.0013
-36.4013
-64.4973
-66.7445
-39.4755
-42.8875
-57.8452
-57.8849
-41.8663
-41.7899
-33.7101
-38.4862
-28.4071
-35.6621
-36.3727
-36.6568
-36.5301
-36.2789
-42.5276
-44.8975
-104.796
-90.0098
30.7024
30.7995
-67.3856
-67.2669
-92.4433
-92.0977
-62.7665
-62.5017
-35.8915
-33.1304
-38.7208
-36.0355
-66.2713
-63.8659
-39.0014
-42.3718
-37.6897
-32.9211
-27.0123
-34.1779
-44.2984
-41.8229
-89.3283
-104.015
-143.084
-79.9018
-84.3197
-148.638
-51.1831
-52.3298
-65.6957
-63.1364
-57.1428
-72.4592
-68.0179
-54.8799
-142.077
-153.907
-86.4013
-89.2086
-142.771
-148.291
-83.9764
-79.5914
-141.62
-88.8496
-86.0467
-153.488
-56.6628
-54.4222
-67.6044
-71.9724
-50.7093
-62.7862
-65.3004
-51.8746
-120.789
-113.518
-80.9534
-76.6284
-120.333
-76.4076
-80.8362
-113.201
-50.1867
-52.3819
-63.9314
-61.9254
-50.3901
-61.9716
-63.9299
-52.4213
-44.4926
-53.4955
-9.32216
-38.7056
-97.2659
21.2159
21.5367
-36.1154
-96.3177
-33.9099
21.411
21.3406
-44.5644
-33.2243
-8.85909
-53.7672
-20.3293
104.086
164.77
3.14565
82.0868
111.797
188.599
120.66
82.3167
120.577
188.591
112.196
-20.4629
3.08809
164.702
104.051
-40.678
-35.4664
-37.7201
-42.3402
-28.45
-31.9722
-35.1476
-32.4024
-44.8488
-46.0125
-39.4707
-37.5072
-51.5013
-45.222
-41.5645
-48.2612
-40.2675
-41.9003
-37.1995
-34.9751
-50.9464
-47.6275
-41.0005
-44.741
-43.7296
-36.5316
-38.773
-45.2831
-27.5803
-31.7661
-34.472
-31.045
-42.499
-44.6236
-39.7577
-37.5002
-42.2257
-37.1714
-39.6719
-44.4386
-33.2822
-36.2864
-37.0109
-34.5231
-33.8739
-34.9387
-37.1625
-36.7985
-84.213
-71.5263
-115.537
-22.3705
-58.6978
-80.3532
-105.487
-64.6155
-57.8791
-63.7652
-105.249
-80.0647
-83.4804
-22.1636
-115.298
-70.7321
-15.3875
-46.6649
-48.5492
-24.9826
-54.2272
-55.2762
-49.4709
-46.0223
-50.1229
-57.4526
-52.9502
-54.6924
-45.2572
-35.318
-43.9338
-50.6412
-14.3867
-23.8241
-46.117
-44.4286
-44.0325
-48.7925
-41.8151
-34.07
-45.2522
-48.5471
-49.3457
-54.1615
-48.4663
-43.5679
-45.9968
-49.2186
-34.5867
-36.1863
-37.1019
-38.842
-34.0142
-37.515
-36.5913
-36.0289
-40.6579
-37.9729
-37.2295
-38.4277
-45.5378
-40.527
-38.1335
-40.0342
-57.7206
-56.8428
-58.6464
-67.2662
-44.7375
-42.744
-50.2335
-52.8581
-43.319
-51.6733
-49.7947
-42.1032
-56.5988
-66.9863
-58.3428
-55.9418
-45.1573
-37.7057
-35.1196
-41.6953
-37.8633
-35.2387
-28.542
-33.2946
-39.3095
-42.4316
-35.9239
-35.8761
-42.0689
-41.5125
-39.2345
-42.9461
-105.502
-176.482
-173.439
-56.1829
-53.3492
-52.3333
-36.8429
-20.6393
-59.8176
-45.1862
-43.2954
-47.3522
-185.27
-109.941
-175.166
-46.4779
-48.6232
-46.5485
-20.4742
-36.8624
-59.5189
-40.988
-40.7394
-43.9825
-46.6497
-44.6177
-45.9558
-45.5834
-20.6628
-26.605
-24.3298
-30.6634
-59.1203
-56.0137
-56.9788
-72.9809
-48.9368
-47.1236
-48.9266
-54.0901
-46.0777
-45.2053
-44.235
-45.5603
-19.6191
-29.9585
-25.7328
-23.3587
-58.5848
-72.3301
-55.4781
-56.3973
-47.7633
-52.9059
-46.0521
-47.8993
-71.6794
-61.0094
-166.265
41.0485
-153.952
-153.482
-125.926
-115.132
-69.3329
-61.2199
-66.9186
-65.8982
-44.6859
-44.4233
-51.1584
-42.1501
-39.9272
-38.0393
-38.7336
-35.7636
-44.6042
-42.3283
-45.2481
-41.2674
61.0107
57.8478
-23.1681
113.06
-83.2392
-77.4284
-81.005
-76.8753
-42.3699
-42.2071
-42.0398
-42.9006
-54.3239
-52.8276
-54.7459
-53.5407
-71.4465
-60.7941
-165.978
41.0525
-69.2297
-61.0964
-66.7111
-65.818
-38.5142
-39.0324
-44.9132
-36.9151
-41.4149
-40.552
-42.2381
-39.26
-82.87
-76.8483
-80.6082
-76.3629
-51.8446
-50.8643
-52.4037
-51.9424
-33.7585
-32.1747
-33.5202
-34.0309
-47.0194
-47.9243
-50.2266
-45.1638
-48.291
-48.2839
-50.4363
-46.5791
-30.8896
-34.5008
-33.2632
-31.3313
-36.7569
-36.8604
-36.5252
-36.5878
-52.3453
-51.12
-48.9562
-59.1735
4.76898
4.92527
18.2372
0.63058
-73.0297
-72.8937
-76.0818
-70.1442
-33.2544
-31.6041
-32.9703
-33.5904
-46.574
-47.4716
-49.7738
-44.7137
-29.8201
-33.404
-32.2463
-30.19
-51.6275
-50.3497
-48.2466
-58.371
-78.7963
-72.9236
-73.9335
-69.4923
-78.4435
-72.5677
-73.5652
-69.1137
-76.1273
-71.626
-71.6259
-67.759
0.681484
10.2164
10.0683
19.0042
183.479
177.56
184.037
183.442
-37.1247
-38.6381
-37.4801
-39.0598
-36.528
-38.0704
-36.8392
-38.4455
-38.3737
-39.1924
-37.8526
-38.333
-116.452
-126.313
-113.407
-116.299
-50.3317
-49.1862
-50.3771
-49.1295
-47.1352
-46.322
-47.4907
-46.509
-37.5198
-37.7148
-37.323
-37.0942
-52.1763
-54.6429
-54.4588
-56.6326
-36.9682
-32.7432
-37.8819
-34.5509
-90.8246
-83.6465
-166.028
26.1638
-163.154
-156.285
-132.018
-132.387
-107.481
-81.2106
-96.2995
-90.7169
-48.797
-46.2034
-58.4756
-42.9254
-47.7382
-43.3644
-43.999
-44.0077
-45.2054
-42.4117
-46.3983
-43.1244
-51.8516
-57.8403
-149.886
53.0018
39.219
63.4641
-20.4325
94.2332
-116.499
-104.406
-116.4
-63.949
-44.8336
-44.9636
-47.4374
-42.0725
-42.5149
-42.4548
-42.5253
-42.7812
-50.853
-53.7642
-53.4475
-51.0685
-162.962
-155.877
-132.282
-137.888
-91.1558
-83.6531
-165.656
25.3002
-107.111
-80.9405
-95.967
-90.4761
-41.3622
-38.8879
-40.602
-39.8132
-41.9566
-39.7107
-51.2822
-36.913
-41.4523
-39.7272
-42.7218
-39.7329
39.8498
64.3643
-19.0981
94.5801
-51.3364
-58.1849
-147.973
52.8531
-116.208
-104.084
-115.998
-63.6418
-41.3156
-41.8246
-41.4021
-42.0839
-39.4581
-39.2547
-41.9127
-37.1072
-47.5873
-50.7676
-49.7721
-49.3569
-60.1786
-61.4367
-65.5233
-59.5725
-37.9821
-35.4515
-37.0445
-37.7075
-45.9567
-46.2374
-48.6099
-43.5855
-46.7004
-47.77
-49.3891
-45.4862
-32.6468
-43.7148
-35.4226
-42.3963
-29.1151
-30.862
-30.4679
-31.9474
-25.4556
-27.7423
-28.5431
-23.6569
-35.4624
-36.6303
-35.839
-36.0481
-63.2095
-75.7528
-66.594
-66.4603
-52.0858
-49.2622
-53.1903
-48.8614
-55.177
-53.6908
-51.9204
-64.3908
-73.2603
-6.37245
-4.78574
-37.826
-49.1551
-50.7125
-48.6919
-54.7727
-42.3911
-38.6493
-40.5893
-40.0599
-48.7183
-50.1773
-48.3381
-54.9306
-61.844
-71.4903
-69.7026
-68.3559
-58.0631
-62.374
-65.1788
-59.2023
-46.434
-47.6708
-49.1443
-45.2907
-37.5643
-35.0005
-36.6023
-37.3446
-45.5403
-45.7986
-48.1573
-43.1677
-30.2842
-42.7201
-34.6176
-41.5901
-34.5125
-36.2715
-35.1067
-35.4171
-28.3431
-30.1961
-29.7233
-31.3598
-24.4402
-26.7009
-27.5754
-22.5802
-62.6197
-75.3087
-66.0646
-66.5022
-72.4402
-6.04544
-4.44406
-37.0624
-51.5915
-48.7961
-52.7191
-48.3659
-54.5493
-53.0161
-51.2984
-63.6863
-47.8068
-49.1211
-47.2362
-53.4896
-60.8985
-71.001
-69.0175
-67.7145
-41.3183
-37.5475
-39.5366
-38.8885
-47.7533
-49.3311
-47.4789
-54.0088
-121.816
-94.0715
-104.265
-105.368
139.706
176.922
150.275
175.795
-101.924
-86.7447
-93.663
-93.5388
55.1757
149.226
123.864
123.821
-69.9368
-71.5034
-75.9359
-67.0846
-69.457
-70.9793
-74.8051
-66.6422
-53.682
-51.6869
-51.6166
-53.5527
-41.6614
-40.0527
-40.2154
-41.3227
-38.23
-37.7792
-37.6616
-38.4879
-31.8177
-30.0895
-32.5772
-29.042
-46.976
-48.2298
-47.5931
-47.6909
-39.7147
-38.4676
-38.1728
-39.131
-29.6246
-13.2962
-19.6303
-20.7927
129.541
209.188
197.382
197.425
-76.787
-75.1846
-72.1513
-80.5751
-21.2615
2.44614
-13.5647
1.32319
-43.2394
-47.7563
-44.9797
-44.6785
-39.7564
-37.5818
-36.4534
-38.3196
-55.8987
-51.2837
-58.1455
-47.1673
-55.6831
-55.1085
-56.8931
-53.312
-121.446
-93.7196
-103.912
-105.009
139.616
176.898
175.818
151.713
-69.6116
-71.1653
-75.6075
-66.7365
-69.2609
-70.9241
-74.5242
-66.4895
-48.3971
-47.6586
-48.9114
-47.1132
-35.4666
-34.2326
-32.1736
-35.9416
-44.089
-45.3985
-45.0247
-44.6361
-37.865
-37.3681
-36.6957
-37.4655
-76.4037
-74.8078
-80.2089
-71.7525
-20.6724
2.84361
1.74848
-12.5791
-53.3253
-48.4407
-45.1457
-54.8454
-54.8209
-54.5823
-52.5775
-56.2504
-34.4512
-35.7535
-35.6737
-34.4256
-36.8492
-37.866
-38.2082
-36.761
-57.7879
-65.1992
-64.7961
-66.4366
-41.9585
-39.9719
-40.0355
-41.7937
-55.1915
-61.0048
-58.0068
-58.0207
-43.4716
-41.0219
-42.0585
-42.0323
-35.1058
-36.3153
-34.6789
-37.0466
-28.7931
-36.9338
-27.5028
-32.2174
-36.6838
-37.0169
-36.6559
-36.8069
-36.3678
-36.5363
-36.5022
-36.3584
-45.2899
-42.0769
-43.1792
-44.356
-80.3704
-111.097
-101.142
-91.7527
31.4297
31.9614
33.0464
33.005
-2.55432
-129.752
-61.1235
-60.953
-85.9331
-104.944
-95.2873
-94.9663
-64.7974
-60.5123
-62.7125
-62.5806
-33.8983
-35.1754
-35.1487
-33.8174
-36.4594
-37.7615
-37.8475
-36.5029
-57.2077
-64.7621
-65.9541
-64.3125
-41.4855
-39.4593
-39.5528
-41.2913
-34.2329
-35.5786
-36.2498
-33.8822
-27.5744
-35.1008
-26.1482
-30.8417
-44.6298
-41.439
-43.7338
-42.5045
-79.5735
-110.643
-91.1081
-100.45
-117.256
-100.574
-102.612
-90.8335
-64.0878
-56.6804
-63.6416
-64.3539
-67.1875
-59.6683
-70.0171
-67.0646
-121.989
-106.738
-105.833
-94.8907
-116.896
-100.216
-102.252
-90.4757
-121.623
-106.368
-105.478
-94.536
-66.6846
-59.1887
-69.5568
-66.5874
-63.6006
-56.2251
-63.2218
-63.6707
-102.278
-92.3017
-93.3637
-85.6192
-101.927
-92.0103
-93.0526
-85.2485
-57.6777
-54.3711
-60.2829
-57.7179
-57.6135
-54.4827
-60.0422
-57.6736
-27.3021
-33.5671
-15.1159
-24.8808
6.4349
13.8754
14.2259
26.7064
7.03134
14.2352
14.7726
26.9771
-33.2504
-34.2442
-24.1321
-23.0216
114.5
87.3936
124.011
114.08
150.762
144.635
185.457
191.699
144.864
150.769
191.771
185.519
87.2789
114.513
114.104
123.332
-37.8151
-39.7421
-37.2227
-38.9196
-31.5857
-31.2755
-33.0491
-32.9631
-41.2304
-42.6795
-40.0792
-41.895
-47.058
-48.0965
-44.4468
-45.528
-37.3646
-39.3068
-36.751
-38.4536
-46.5259
-47.5208
-43.9141
-44.9528
-40.4416
-42.068
-39.2877
-41.1591
-30.8272
-30.4409
-32.3372
-32.1826
-40.5028
-42.3859
-39.9204
-41.5608
-42.1601
-40.2117
-41.4554
-39.6848
-35.1375
-34.5321
-36.0104
-35.593
-35.1041
-35.587
-36.113
-36.2928
-105.627
-67.762
-90.5699
-61.7626
-68.3689
-74.675
-83.2677
-87.7302
-73.9868
-67.5298
-87.2597
-82.5967
-67.638
-104.591
-61.3475
-90.3479
-35.8652
-16.376
-50.1403
-31.7239
-51.313
-48.9529
-50.4127
-48.5242
-54.5164
-55.7728
-56.7619
-60.1397
-43.1098
-39.8872
-42.9297
-38.3618
-34.234
-15.3519
-47.9442
-29.9847
-41.6809
-38.5383
-41.4487
-36.858
-49.2409
-51.3324
-52.0765
-55.985
-46.3946
-44.8059
-46.0545
-44.8226
-36.8961
-36.3217
-37.045
-36.605
-36.1264
-36.2009
-36.061
-36.2543
-38.3242
-38.5066
-37.7204
-37.5393
-41.6034
-41.7797
-39.9158
-40.0176
-62.3277
-64.0319
-60.1681
-62.6618
-44.4685
-46.9796
-45.9822
-49.3516
-43.3581
-45.6819
-45.149
-48.4237
-61.6588
-63.4828
-59.6023
-62.257
-41.8106
-41.0417
-40.1413
-38.2343
-34.4993
-34.6441
-30.5845
-31.6008
-38.4728
-36.8046
-35.6674
-35.9283
-41.4277
-41.5458
-40.721
-39.4973
-170.613
-18.0676
-146.132
-86.889
-142.086
-126.558
-61.7222
-44.8168
-47.8288
-46.9633
-52.4948
-46.177
-124.178
38.6604
-29.6136
26.1909
-131.234
-32.5787
-47.6635
-42.5148
-43.34
-42.5038
-49.8791
-47.3671
-145.604
-87.0257
-170.162
-19.102
-141.821
-126.023
-41.6608
-40.1177
-54.3867
-38.4042
-47.185
-41.4634
-29.9481
26.4919
-123.989
39.141
-130.817
-32.5749
-41.7433
-40.8637
-42.5108
-38.7334
-45.6849
-45.5604
-50.647
-48.9807
-40.6369
-41.1851
-48.2825
-43.4016
-47.9556
-44.2557
-13.5176
-29.4663
-27.7862
-30.7176
-27.0115
-21.2178
-34.1972
-35.0299
-58.2448
-73.6471
-55.3082
-52.429
-53.5053
-68.1917
-100.272
-94.2547
-47.5843
-53.2597
-45.0318
-45.034
-46.3665
-52.5869
-58.7384
-58.452
-50.1835
-48.6395
-47.7018
-43.9758
-40.2307
-40.8352
-47.8423
-43.001
-12.4924
-28.5066
-33.5521
-34.4289
-26.9301
-30.048
-26.0695
-20.161
-57.7516
-73.0106
-99.4499
-93.5118
-54.8136
-51.8942
-52.929
-67.5088
-46.3455
-52.0057
-57.5873
-57.3704
-44.0136
-43.8781
-45.3428
-51.5926
-168.65
38.4264
-157.004
54.4081
-148.672
-153.21
108.119
113.926
-126.393
-138.029
-126.71
-138.039
-113.052
-112.921
-3.15138
-3.18275
-78.0147
-74.7857
-61.7113
-61.1159
-73.5577
-65.1202
-71.8917
-64.7843
-56.5307
-42.1294
-46.1675
-42.2759
-56.3346
-56.5143
-41.6436
-41.834
-40.8849
-39.046
-38.258
-34.8014
-38.1188
-39.0875
-35.453
-33.0482
-44.8826
-41.9412
-45.5959
-40.0059
-46.3372
-46.4715
-39.6156
-40.7274
-34.5126
113.306
-31.9689
113.592
-33.268
-32.8551
118.256
118.408
-92.1909
-80.6904
-76.4335
-63.6462
-74.8543
-82.7553
-48.7955
-44.8691
-42.2744
-42.9048
-41.7313
-42.6581
-42.5528
-42.2228
-42.6907
-42.9522
-55.6727
-52.7329
-51.4659
-54.0854
-57.3328
-52.7354
-56.0765
-54.1631
-168.353
39.9779
-156.703
54.6074
-148.295
-152.773
113.943
108.204
-77.7143
-74.6482
-61.474
-61.1797
-73.2856
-64.8324
-71.7122
-64.7021
-49.5008
-36.3274
-40.4739
-36.9419
-50.2315
-50.1239
-35.398
-36.6267
-42.5997
-39.2897
-43.7062
-38.6399
-43.8056
-42.9347
-37.9815
-38.6859
-91.8298
-80.4751
-75.9431
-63.2757
-82.3847
-74.4329
-44.2719
-48.3668
-52.6199
-50.9887
-49.6694
-52.6491
-50.636
-54.4771
-52.8026
-54.9983
-35.1376
-35.4771
-31.9782
-32.9436
-34.5643
-33.1247
-36.6881
-35.4181
-49.5486
-44.3068
-50.9521
-46.2406
-52.786
-54.1032
-42.8325
-44.1781
-50.1379
-46.2917
-50.098
-46.2117
-52.6072
-52.6132
-44.8246
-44.8084
-30.7156
-27.1881
-37.0241
-35.9474
-32.9734
-35.8485
-27.3689
-32.5365
-36.4011
-36.5295
-36.3128
-36.3768
-36.5206
-36.7932
-36.2331
-36.1703
-50.4177
-61.3628
-48.2157
-56.9194
-46.3879
-47.6
-69.6586
-66.3391
13.4226
-9.16498
13.5831
-8.91246
24.038
24.0765
-11.389
-11.1957
-76.1496
-70.1163
-75.8628
-69.828
-80.1259
-79.9843
-67.4235
-67.2857
-34.6426
-35.0778
-31.3403
-32.4483
-34.0528
-32.5348
-36.3314
-35.03
-49.094
-43.8727
-50.4974
-45.7747
-53.6495
-52.3318
-42.3841
-43.7099
-29.7211
-26.0806
-35.9846
-34.7746
-34.8856
-32.0347
-26.1858
-31.3131
-49.7529
-60.6154
-47.4534
-56.0613
-46.9481
-45.69
-65.5135
-68.8599
-85.101
-86.0598
-77.5542
-68.4131
-70.7498
-79.7442
-66.3027
-67.2705
-84.7543
-85.707
-77.213
-68.0485
-79.3834
-70.3601
-66.862
-65.9012
-81.123
-81.0647
-75.9242
-67.4653
-75.826
-67.4538
-64.1296
-64.1297
-6.84813
-7.10173
-3.12456
14.4417
14.6027
-2.47159
24.6831
24.3853
176.257