# vtk DataFile Version 2.0
tri_press
ASCII
DATASET UNSTRUCTURED_GRID
POINTS 3682 float
-0.737232 0.235 -1.905
-0.685 0.275 1.96751
-0.675 0.775 -1.8319
-0.655 1.05597 1.975
0.737252 0.235 -1.905
0.675 0.265 1.9649
0.675 0.775 -1.83186
0.655 1.05591 1.975
-0.787437 0.180718 -0.614163
-0.762815 0.201262 0.676673
-0.771171 0.971495 -0.562933
-0.735973 1.03662 0.706033
0.783913 0.177588 -0.615033
0.750583 0.200167 0.674933
0.771242 0.971545 -0.562907
0.735979 1.03659 0.706047
-1.50047 -0.19274 -2.95296
-1.50171 -0.146741 -1.92917
-1.52999 -0.180696 -0.637826
-1.50351 -0.18706 0.657942
-1.4418 -0.136594 1.94965
-1.42719 -0.0928016 2.97526
-1.43293 -0.0522957 3.99748
-1.49351 0.147222 -2.92412
-1.49369 0.220442 -1.90271
-1.53516 0.206969 -0.615516
-1.49261 0.211836 0.673713
-1.40878 0.263586 1.96133
-1.40436 0.306478 2.98666
-1.41945 0.345906 4.00957
-1.46615 0.777226 -2.86041
-1.45165 0.848201 -1.83819
-1.51511 0.977815 -0.565888
-1.47026 1.03049 0.704947
-1.38491 1.05998 1.97773
-1.3889 1.10146 3.00437
-1.40945 1.14223 4.03103
-1.45356 1.85862 -2.78085
-1.45109 1.94828 -1.76179
-1.47043 2.09612 -0.496541
-1.47046 2.20733 0.764125
-1.44719 2.26663 2.02974
-1.43431 2.30216 3.04955
-1.43201 2.33781 4.07387
-0.757007 -0.185923 -2.95448
-0.742195 -0.136537 -1.9314
-0.773474 -0.193666 -0.637871
-0.769493 -0.196844 0.66017
-0.727858 -0.134771 1.95381
-0.716902 -0.0920888 2.97795
-0.720748 -0.0532738 3.99885
-0.758216 0.145932 -2.92464
-0.69873 0.308661 2.98891
-0.710535 0.345437 4.01054
-0.735811 0.747213 -2.85783
-0.685851 1.1009 3.00365
-0.702606 1.14156 4.0306
-0.713829 1.83808 -2.77833
-0.705749 1.92893 -1.75901
-0.726186 2.09115 -0.494938
-0.739572 2.21077 0.763728
-0.73004 2.26894 2.028
-0.720537 2.30295 3.04779
-0.717238 2.33794 4.07249
0.724449 -0.186454 -2.95466
0.75652 -0.137299 -1.93164
0.77216 -0.195973 -0.63869
0.732387 -0.198877 0.658651
0.681895 -0.141136 1.95177
0.686251 -0.097086 2.97635
0.69473 -0.0567938 3.99762
0.70527 0.145637 -2.92474
0.683366 0.303461 2.98736
0.694826 0.342011 4.00937
0.690286 0.747029 -2.85788
0.680165 1.09864 3.00292
0.696525 1.13914 4.02974
0.751858 1.83765 -2.77849
0.766453 1.92854 -1.75917
0.761449 2.09071 -0.495132
0.729066 2.21025 0.763462
0.703299 2.26821 2.02764
0.701964 2.30185 3.04729
0.708115 2.33652 4.07188
1.47094 -0.194011 -2.95342
1.5026 -0.148498 -1.92976
1.52686 -0.1842 -0.639211
1.48197 -0.191023 0.655518
1.4153 -0.144881 1.94654
1.4039 -0.100751 2.97249
1.41064 -0.0586601 3.99515
1.4531 0.146338 -2.92443
1.4867 0.219403 -1.90304
1.53295 0.203626 -0.616678
1.4882 0.208786 0.67148
1.40574 0.255117 1.95831
1.39593 0.298614 2.98403
1.40732 0.33975 4.00736
1.43456 0.776631 -2.86061
1.45025 0.847811 -1.8383
1.51948 0.976643 -0.566279
1.47644 1.02929 0.704142
1.39197 1.05752 1.97658
1.3902 1.09715 3.0028
1.40699 1.13767 4.02932
1.48712 1.85768 -2.78122
1.50171 1.94737 -1.76216
1.50306 2.09507 -0.497007
1.46895 2.20609 0.763497
1.43188 2.26495 2.0289
1.42298 2.29986 3.0485
1.42694 2.33496 4.07263
-0.752026 0.505 -1.91436
9.98378e-06 0.208164 -1.93184
-0.789208 0.180985 -1.25958
-0.702107 0.665485 2.00336
-0.005 0.237029 1.99918
-0.728501 0.233538 1.32209
0 0.812928 -1.86981
-0.754955 0.905117 -1.19742
0 1.07147 1.99053
-0.723357 1.07417 1.34052
0.75206 0.505 -1.91436
0.781816 0.185061 -1.26002
0.7004 0.660455 2.00535
0.714809 0.230566 1.31992
0.75508 0.905231 -1.19738
0.723322 1.07408 1.34052
-0.777266 0.18885 0.031255
-0.864254 0.576106 -0.588548
-0.00176208 0.164274 -0.614598
-0.848632 0.618941 0.691353
-0.006116 0.132868 0.675803
-0.755448 1.00593 0.07155
3.53559e-05 1.28671 -0.56292
3.18209e-06 1.44022 0.70604
0.768736 0.18739 0.02995
0.864351 0.574567 -0.58897
0.848668 0.618377 0.69049
0.75546 1.00591 0.07157
-0.894442 0.540553 -1.2285
0.894445 0.539783 -1.2287
-0.000876049 0.172539 -1.2598
1.7678e-05 0.980328 -1.1974
4.99189e-06 0.505 -2.13276
-0.852215 0.597523 0.0514025
0.852374 0.596472 0.05076
-0.00393904 0.170282 0.0306025
1.9269e-05 1.44965 0.07156
-0.874283 0.642213 1.3313
0.876494 0.639416 1.33022
-0.005558 0.205076 1.321
1.59104e-06 1.30824 1.34052
-0.0025 0.66297 2.06333
-0.752646 0.37 -1.9177
-0.368611 0.205994 -1.93401
-0.771995 0.199217 -1.58229
-0.717116 0.470242 2.009
-0.345 0.240065 1.99929
-0.71326 0.24776 1.6448
-0.711145 0.64 -1.87076
-0.3375 0.806956 -1.86385
-0.726466 0.851547 -1.51466
-0.677016 0.860727 1.98764
-0.3275 1.07142 1.99047
-0.688559 1.06445 1.65776
0.368631 0.207464 -1.93254
0.755523 0.37 -1.92055
0.769996 0.199569 -1.58251
0.335 0.237522 1.99553
0.711909 0.462727 2.00933
0.701836 0.240852 1.64241
0.3375 0.806965 -1.86383
0.711019 0.64 -1.8706
0.726468 0.851544 -1.51462
0.3275 1.07142 1.9905
0.676095 0.858182 1.98857
0.68858 1.06441 1.65776
-0.796373 0.172801 -0.936873
-0.781469 0.185666 -0.291454
-0.851613 0.365528 -0.601356
-0.399701 0.162294 -0.614381
-0.790547 0.172511 0.999383
-0.776037 0.189059 0.353964
-0.850337 0.387794 0.684013
-0.400638 0.13472 0.676238
-0.776709 0.951952 -0.880175
-0.840514 0.785201 -0.575741
-0.763329 0.988733 -0.245692
-0.44876 1.25549 -0.562927
-0.729032 1.05476 1.02328
-0.816738 0.839998 0.698693
-0.742722 1.01829 0.388792
-0.458316 1.41908 0.706037
0.792242 0.171947 -0.937525
0.393939 0.165205 -0.614816
0.777316 0.181497 -0.292542
0.851184 0.362552 -0.602002
0.775823 0.17224 0.997425
0.386591 0.137803 0.675368
0.765322 0.188116 0.352442
0.849875 0.384147 0.682712
0.776703 0.951931 -0.880145
0.448822 1.25549 -0.562913
0.840656 0.784486 -0.575938
0.763339 0.988718 -0.245668
0.728987 1.05467 1.02329
0.45833 1.41908 0.706043
0.816883 0.839761 0.698268
0.742724 1.01826 0.388808
-0.88182 0.522777 -1.57143
-0.37601 0.505 -2.10548
-0.000433032 0.185231 -1.59582
7.48783e-06 0.356582 -2.05651
-0.885337 0.360769 -1.24404
-0.395042 0.162551 -1.25969
-0.805859 0.653849 1.66733
-0.352303 0.664227 2.05232
-0.005279 0.208969 1.66009
-0.00375 0.45 2.10469
-0.847764 0.437875 1.3267
-0.367029 0.191485 1.32155
8.83898e-06 0.909321 -1.5336
2.49594e-06 0.658964 -2.08161
-0.880238 0.722835 -1.21296
-0.377469 0.974922 -1.19741
7.95522e-07 1.08477 1.66553
-0.00125 0.867222 2.06385
-0.808836 0.858189 1.33591
-0.361678 1.28784 1.34052
0.881745 0.522392 -1.57153
0.376033 0.505 -2.10568
0.8838 0.362422 -1.24436
0.39047 0.163338 -1.25991
0.804273 0.649935 1.66778
0.34895 0.661712 2.05232
0.848047 0.434991 1.32507
0.354626 0.205583 1.32046
0.880476 0.722507 -1.21304
0.377549 0.974909 -1.19739
0.809311 0.856748 1.33537
0.361662 1.28785 1.34052
-0.849625 0.375744 0.0413288
-0.399972 0.160827 0.0309288
-0.87063 0.55833 -0.908524
-0.857187 0.586815 -0.268573
-0.00131906 0.163542 -0.937199
-0.00285056 0.167333 -0.291998
-0.849741 0.608232 0.371378
-0.885923 0.630577 1.01133
-0.00502752 0.163227 0.353203
-0.005837 0.132494 0.998404
-0.828254 0.81394 0.0614763
-0.476505 1.42537 0.071555
2.6517e-05 1.11868 -0.88016
2.73125e-05 1.40486 -0.24568
1.12255e-05 1.45683 0.3888
2.38657e-06 1.40595 1.02328
0.849191 0.372613 0.040355
0.387359 0.168915 0.0302763
0.870036 0.557175 -0.908835
0.857261 0.585519 -0.269105
0.849803 0.607424 0.370625
0.886427 0.628896 1.01036
0.821033 0.809751 0.061165
0.476541 1.42539 0.071565
-0.875137 0.365385 -1.57686
-0.877375 0.36959 -0.922698
-0.849273 0.748318 -0.894349
-0.883502 0.681417 -1.54304
0.876061 0.366211 -1.57702
0.883401 0.681254 -1.54308
0.847199 0.747782 -0.89449
0.877365 0.36925 -0.92318
-0.381827 0.172169 -1.58905
0.379551 0.169312 -1.58916
0.390773 0.162125 -0.937362
-0.394821 0.162892 -0.937036
-0.357484 0.906769 -1.52413
-0.381518 1.0946 -0.880168
0.381594 1.0946 -0.880153
0.357524 0.906772 -1.52411
-0.372311 0.363291 -1.95824
-0.356755 0.649482 -2.01974
0.356766 0.649482 -2.01994
0.372332 0.363291 -1.95823
-0.850194 0.370849 -0.280014
-0.849682 0.381919 0.362671
-0.820308 0.825875 0.380085
-0.836168 0.800462 -0.257132
0.849788 0.367782 -0.280823
0.836323 0.799858 -0.257387
0.820202 0.825378 0.379717
0.849237 0.378528 0.361533
-0.399079 0.163075 -0.291726
0.390288 0.167781 -0.29227
0.379208 0.168893 0.352822
-0.395501 0.157382 0.353584
-0.48593 1.38702 -0.245686
-0.472452 1.43231 0.388796
0.47248 1.43232 0.388804
0.485981 1.38704 -0.245674
-0.854962 0.423988 1.00536
-0.799953 0.454059 1.65607
-0.785921 0.859458 1.66255
-0.828749 0.842985 1.0173
0.858748 0.422131 1.00389
0.834949 0.842115 1.01682
0.786568 0.857465 1.66277
0.798706 0.448859 1.6551
-0.375748 0.153924 0.998893
0.36343 0.132716 0.997914
0.344813 0.212584 1.65125
-0.356015 0.20605 1.65245
-0.364831 1.3947 1.02328
-0.344589 1.08808 1.66164
0.344581 1.08886 1.66164
0.364826 1.3947 1.02328
-0.348652 0.460121 2.08591
0.341975 0.456364 2.08597
0.338225 0.862702 2.04508
-0.339902 0.863975 2.04502
-0.752627 0.3025 -1.91904
-0.552922 0.213325 -1.92667
-0.76321 0.208513 -1.74365
-0.711005 0.372621 1.9982
-0.515 0.238571 2.00236
-0.698809 0.261701 1.80616
-0.690915 0.7075 -1.84917
-0.50625 0.79603 -1.85292
-0.708117 0.820657 -1.67328
-0.6623 0.958349 1.97761
-0.49125 1.07137 1.99041
-0.67162 1.06005 1.81638
0.552941 0.214562 -1.92544
0.75267 0.3025 -1.91906
0.757715 0.213193 -1.74375
0.505 0.238347 1.99313
0.707529 0.363864 2.00119
0.68878 0.252563 1.80365
0.50625 0.796036 -1.8529
0.690901 0.7075 -1.84912
0.708158 0.820696 -1.67324
0.49125 1.07136 1.99045
0.66196 0.957046 1.9782
0.671634 1.06001 1.81638
-0.789455 0.179209 -0.775518
-0.78569 0.181955 -0.452809
-0.832476 0.266647 -0.60776
-0.596592 0.165459 -0.614272
-0.793372 0.170196 0.838028
-0.771465 0.193122 0.515319
-0.835855 0.279889 0.680343
-0.583146 0.165153 0.676456
-0.778386 0.966169 -0.721554
-0.80969 0.880271 -0.569337
-0.767169 0.980033 -0.404313
-0.660779 1.21512 -0.56293
-0.731773 1.04496 0.864654
-0.782358 0.94131 0.702363
-0.739367 1.02747 0.547413
-0.621957 1.27748 0.706035
0.786153 0.176692 -0.776279
0.591624 0.166001 -0.614925
0.780722 0.179436 -0.453788
0.831712 0.262988 -0.608518
0.777991 0.171416 0.836179
0.571113 0.163934 0.675151
0.759689 0.192405 0.513688
0.842625 0.270959 0.678823
0.778295 0.96606 -0.721526
0.66089 1.21523 -0.56291
0.80983 0.879956 -0.569423
[...]
POINT_DATA 3682
SCALARS point_scalars float 1
LOOKUP_TABLE default
-120.395
-48.2542
-30.6779
-38.8151
-117.566
-48.1616
-30.486
-39.2904
-41.5681
-35.3779
-71.1859
-47.5828
-42.6605
-35.8494
-71.8003
-47.7036
-7.73496
-114.907
-42.69
-38.298
-43.3271
-45.8778
-39.4824
-24.2927
-112.699
-41.8503
-35.8361
-43.8414
-40.9144
-37.9273
47.3701
-94.1516
-56.0518
-43.5322
-44.0903
-39.1052
-37.8214
-22.8229
-67.6086
-107.989
-56.1452
-38.4508
-38.9781
-36.9875
66.5729
-131.553
-43.2901
-36.1273
-43.0348
-39.5792
-38.345
66.5729
-38.345
-37.3002
157.92
-36.0212
-35.4287
-23.7741
-29.1237
-105.552
-57.671
-36.2607
-35.7565
-35.4287
15.3199
-131.15
-43.4202
-38.4033
-42.6711
-40.3529
-38.7121
15.3199
-38.7121
-37.5868
157.783
-36.6099
-36.0615
-22.1341
-33.7868
-103.781
-57.7055
-36.4073
-36.2712
-36.0615
-9.48953
-113.839
-41.6419
-43.8217
-43.3831
-43.8961
-39.7748
-30.755
-109.819
-41.8197
-37.0378
-43.9849
-40.2634
-39.077
47.2959
-93.9923
-56.0595
-43.5971
-44.5553
-39.6233
-38.145
-22.0835
-67.5769
-108.539
-56.1874
-38.8416
-39.4241
-37.7056
2.86975
-127.622
-64.5299
-39.2306
-39.904
-46.5974
-31.0727
-51.4091
-36.9354
-47.6532
2.13721
-62.1201
-39.6233
-46.4154
-51.4123
-47.7905
-36.2151
-46.986
-44.7157
-39.8654
-44.503
-55.1988
-33.035
-62.9227
-36.0664
-46.951
-39.907
-55.1773
-66.6549
-66.5637
-61.7561
5.78107
207.822
-42.3835
-42.4453
-37.2233
-93.3788
-51.1071
-51.6217
-43.8302
-40.8075
-29.5113
-9.61593
-124.666
-80.0256
-41.7988
-41.0737
-44.1254
1.62606
-38.4681
-52.0348
-38.7079
-35.7213
-41.0951
-125.188
-17.0335
-81.2231
-41.6945
-42.1865
-44.1951
-38.4774
1.54567
-51.9604
-35.9845
-39.1085
-41.3044
-54.0359
-38.7164
-42.3438
-43.8619
-51.9979
-36.992
-37.812
-42.5751
-71.7215
-56.3968
-62.0385
-36.4628
-46.1243
-43.394
-50.3965
-59.305
-53.8231
-43.9932
-38.4857
-42.2511
-50.9768
-41.4112
-36.7584
-37.7741
-71.472
-36.3814
-56.4265
-62.1008
-46.3123
-59.341
-43.5148
-50.5397
-103.499
188.426
-78.6359
188.655
-65.0107
-62.3561
-45.8284
-34.779
-40.8257
-33.1512
-48.0401
-44.2385
-18.0628
132.422
-68.1827
-1.81688
-35.7987
-28.665
-48.5987
-41.8492
-103.339
188.47
-64.8601
-62.3957
-46.2365
-35.2511
-48.2923
-44.5318
-68.1566
-1.80167
-48.9048
-41.9094
-38.4501
-36.8448
-53.4818
-44.482
-53.3833
-40.0593
-40.9089
-42.8625
-36.4345
-55.4643
-46.6175
-81.2412
21.7159
-88.6785
-75.862
-51.7231
-38.3275
-36.9501
-53.3914
-44.4391
-41.0091
-43.2934
-46.6173
-81.2508
-97.4711
-55.1126
-57.0276
-92.1464
-97.1822
-91.8689
-56.7874
-55.1388
-77.575
-78.6379
-53.0379
-52.8283
-22.6376
14.7728
14.8574
-22.6463
161.201
123.806
123.979
158.364
-40.0655
-37.9459
-45.2057
-52.4496
-39.9114
-52.466
-45.3044
-38.2272
-39.4831
-39.6459
-36.3484
-36.8285
-100.446
-68.1944
-68.2299
-100.662
-46.3987
-47.0604
-45.6395
-46.2699
-46.8478
-46.5516
-45.9874
-47.6478
-52.7117
-55.2022
-42.4152
-40.5041
-52.3482
-36.7641
-36.9058
-52.3849
-36.4814
-36.6804
-34.6955
-33.9413
-42.4506
-131.829
-103.893
-44.1428
-43.4356
-42.4182
1.69351
-34.2115
-49.3871
-39.4043
-35.6953
-38.6653
-133.677
-56.2073
-100.585
-43.818
-44.6026
-42.4821
-33.9246
1.83039
-49.4382
-36.145
-39.879
-39.0468
-45.0889
-40.5874
-41.3012
-43.2514
-39.2268
-38.5455
-36.1868
-40.4604
-78.509
-62.9539
-66.1459
-95.6257
-46.8548
-45.5107
-48.6891
-52.7615
-45.1474
-43.4057
-40.439
-41.2864
-45.0479
-40.7366
-37.8665
-36.4246
-77.9881
-95.9812
-63.1061
-66.2388
-47.0082
-52.8162
-45.6592
-48.788
5.22818
6.67307
-101.511
139.416
-126.929
-126.856
-94.5057
141.492
-62.0067
-55.4124
-63.1768
-63.6695
-40.8271
-38.7547
-43.6012
-36.4735
-39.9185
-40.2356
-40.4448
-35.1184
-42.9726
-48.4891
-47.0056
-45.1494
-36.7339
-36.7682
-27.895
42.7435
-49.4666
-54.982
-69.0774
-13.7249
-36.491
-36.5917
-35.9649
-28.8601
-45.0167
-46.9336
-47.8798
-44.6241
1.36222
6.34326
-101.436
139.303
-64.8077
-55.2654
-62.4895
-63.5007
-41.2293
-39.1499
-43.8655
-37.0043
-42.8371
-51.8917
-47.4726
-45.8747
-49.4771
-56.8168
-69.0918
-13.8353
-45.1231
-47.1161
-48.0763
-44.6783
-37.5356
-36.2976
-37.6014
-36.6809
-44.4805
-50.6734
-48.9195
-45.6669
-44.4888
-44.5474
-47.7979
-42.9113
-38.8974
-41.2307
-40.311
-38.3951
-44.1872
-43.9305
-34.6057
-50.565
-58.5365
-53.8091
-52.0501
-65.7289
-33.442
-33.3996
-1.10931
-60.1064
-62.2486
-62.2656
-69.1647
-57.2456
-38.0665
-36.252
-36.6971
-36.9076
-44.4072
-50.6481
-48.8616
-45.6095
-38.8557
-41.3153
-40.3928
-38.5393
-58.5622
-53.8146
-51.9348
-65.761
-78.5179
-66.1163
-67
-61.0286
-78.3741
-65.9815
-66.9494
-60.9845
-70.061
-61.9651
-62.2907
-56.4326
-6.48208
3.43144
3.42254
21.6738
206.829
186.819
165.699
206.838
-40.1169
-43.3804
-41.5459
-43.6872
-40.1052
-43.3244
-41.6465
-43.8779
-37.1622
-39.1032
-36.68
-37.3892
-90.6148
-104.762
-83.8222
-90.6329
-51.0215
-48.8104
-51.5727
-48.8053
-51.5394
-49.351
-52.0077
-48.9234
-40.8041
-43.7748
-43.7293
-48.7673
-37.6671
-40.98
-41.0184
-46.1832
-31.3884
-31.8199
-29.3862
-31.9982
-106.79
140.608
-92.8324
160.896
-91.7892
-73.3425
-43.5583
-37.4262
-42.6034
-36.9624
-47.4923
-41.5009
-77.7322
94.8623
-30.868
75.4525
-81.8955
-30.1817
-44.0918
-36.2036
-35.975
-33.283
-44.2551
-37.8822
-92.5398
159.115
-104.442
141.763
-92.1824
-75.3841
-40.5556
-37.3293
-43.6943
-37.723
-48.3943
-43.4224
-30.8342
75.4136
-77.9219
94.6502
-81.9274
-30.119
-36.1508
-34.1182
-44.5132
-36.7395
-44.5515
-38.028
-56.6793
-52.8831
-39.0092
-38.8624
-44.9988
-41.1397
-46.8894
-42.0865
-46.68
-52.3829
-37.248
-36.8372
-37.8524
-43.723
-34.9078
-50.3882
-64.6794
3.72633
-57.0561
-54.2585
-56.8606
-81.1147
-7.25147
-64.4396
-45.6685
-53.2522
-44.1294
-42.3251
-47.8094
-57.3543
-63.7758
-56.5267
-56.849
-52.862
-46.9906
-42.2915
-38.8169
-39.3916
-44.9696
-41.0149
-47.0283
-52.2071
-34.6304
-49.5173
-37.6355
-36.2605
-37.9366
-43.0017
-64.4191
3.6476
-7.13241
-64.2254
-57.0149
-54.3033
-56.8969
-81.162
-46.0147
-53.3073
-63.7968
-56.5565
-44.2568
-42.5166
-47.9293
-57.4213
-101.407
-101.314
172.18
144.668
-78.1013
-78.1057
182.626
182.393
-75.9102
-59.8122
-69.6464
-57.1443
-46.7991
-45.9186
-36.282
-34.4402
-41.4675
-40.1636
-34.4755
-34.7767
-46.1364
-48.6916
-48.2803
-41.1964
-19.0102
-19.0226
121.99
121.953
-59.9788
-80.639
-13.1382
10.4935
-36.0483
-36.1366
-31.0389
-30.4063
-47.1111
-46.5192
-47.7274
-38.5332
-101.172
-101.126
146.942
172.402
-75.6786
-59.8278
-70.0917
-57.4863
-46.3699
-47.3411
-36.733
-35.0916
-47.1241
-49.0198
-48.737
-41.0945
-80.5624
-59.997
10.4151
-13.1505
-46.7595
-47.4109
-38.6194
-47.7745
-39.0727
-38.0565
-38.5737
-36.661
-53.8472
-53.7745
-42.075
-47.796
-53.3036
-53.2445
-39.9058
-39.9309
-39.392
-42.5696
-47.5923
-42.952
-36.1757
-36.1084
-55.2545
-55.8934
-47.7634
-51.1048
-92.5126
-73.4473
20.0459
20.0603
-91.8055
-91.8374
-73.9544
-73.9694
-51.8907
-51.9095
-38.8283
-38.2781
-38.7485
-36.567
-53.5749
-53.8105
-41.9941
-47.7715
-42.653
-39.5385
-48.0584
-43.3316
-51.0646
-47.8537
-73.465
-92.5031
-102.701
-72.2934
-77.4177
-108.802
-44.4811
-46.817
-60.233
-58.6085
-65.4725
-63.6222
-61.0333
-51.7982
-67.5275
-91.6031
-79.9992
-74.0183
-101.449
-107.973
-77.2434
-72.1151
-67.4316
-73.9302
-79.8708
-91.7344
-65.4682
-51.7498
-61.0316
-63.6193
-44.5335
-58.5572
-60.2266
-46.7593
-92.4187
-93.982
-69.995
-67.9249
-91.9964
-68.6674
-69.9044
-94.014
-46.2942
-47.6205
-56.7408
-57.2934
-46.1011
-57.3566
-56.4985
-47.553
-34.0035
-22.6161
-8.17413
-29.0269
-82.1227
-2.31612
19.1323
-4.8492
-84.9058
-4.55136
19.1293
-2.23062
-34.0548
-29.0235
-8.17431
-22.6285
118.844
123.864
183.683
160.004
68.1961
60.0524
153.201
117.44
68.3093
117.471
153.291
59.9454
120.734
159.218
183.47
125.199
-40.205
-37.9248
-41.0125
-43.0963
-37.137
-39.0499
-39.5494
-37.2568
-46.3714
-50.5584
-44.4391
-41.7247
-59.7971
-49.2583
-47.3334
-54.3812
-40.1026
-42.9898
-40.7899
-37.2658
-59.8718
-54.4407
-47.1534
-49.2399
-46.505
-41.8261
-44.4823
-50.6604
-37.3537
-37.361
-39.7466
-39.1509
-41.5396
-42.7417
-39.0183
-38.3909
-41.6408
-38.6302
-39.0519
-42.7904
-35.1153
-34.8334
-36.609
-36.345
-36.4679
-36.6674
-36.5972
-34.7466
-92.626
-71.9171
-102.683
-57.216
-54.3803
-68.1387
-81.451
-62.1915
-54.4065
-62.1809
-81.4633
-68.1546
-93.0768
-57.2287
-102.675
-71.9099
-48.6841
-46.2303
-47.2934
-37.8782
-42.7388
-43.5393
-50.293
-47.0743
-42.2214
-46.0873
-48.8849
-44.1829
-45.1931
-41.1347
-47.2435
-46.0499
-49.144
-37.4699
-47.7896
-46.84
-45.3247
-46.2838
-47.5659
-41.179
-42.601
-44.5027
-49.3248
-46.3097
-42.6664
-46.9048
-50.5303
-43.7582
-45.9738
-50.4239
-48.5887
-49.2405
-46.9783
-50.2064
-48.7424
-50.2871
-40.7715
-40.3207
-41.0238
-41.7764
-42.3412
-41.909
-40.862
-41.248
-50.4243
-50.3802
-46.5368
-57.0124
-36.4654
-35.8771
-37.8532
-40.0177
-36.6927
-40.123
-37.9021
-35.9723
-50.4927
-57.0292
-46.5609
-50.4243
-37.9593
-35.6298
-32.9961
-37.2935
-38.3154
-37.6295
-33.9883
-35.8801
-36.5015
-30.4845
-31.708
-36.9917
-35.914
-36.5156
-31.1164
-29.8204
-70.9468
-137.038
-114.686
-45.6023
-45.1064
-43.3523
-5.6147
-38.3685
-49.116
-39.7541
-36.3679
-38.0798
-137.806
-75.8589
-116.462
-45.5246
-46.2853
-43.1373
-38.2456
-5.41169
-49.1273
-36.9006
-40.2491
-38.4699
-42.9719
-41.0891
-40.4053
-42.6822
-31.5315
-37.4942
-35.4756
-37.4591
-75.0092
-66.8624
-68.4812
-84.5986
-47.1758
-46.5953
-48.0719
-49.8514
-43.9262
-42.9305
-41.2808
-40.7545
-31.9791
-38.9078
-38.0241
-35.364
-75.5706
-85.6365
-67.1825
-68.6059
-47.3115
-49.9336
-46.7369
-48.179
4.67707
6.85548
-51.5969
86.0456
-127.586
-127.573
-107.07
31.1599
-63.6867
-59.3413
-61.9104
-64.8544
-39.9
-39.0405
-42.8054
-37.0822
-39.7742
-39.6763
-40.0467
-36.8731
-42.5935
-51.8629
-46.1199
-44.9667
-33.6724
-33.7219
-35.3312
6.27908
-48.3538
-52.8269
-65.4034
-28.6646
-36.8022
-36.8442
-36.5434
-31.4842
-45.6838
-48.0529
-47.6608
-47.0325
2.47139
6.29736
-51.3937
86.5435
-64.5875
-58.0039
-60.8457
-64
-40.3314
-39.4302
-43.137
-37.5253
-42.5405
-53.4928
-47.1856
-45.7477
-48.2668
-52.8232
-65.4463
-28.6498
-45.8214
-48.2153
-47.8191
-47.1025
-36.9441
-36.267
-36.7008
-36.1492
-45.662
-48.6206
-47.9061
-46.2524
-44.6577
-44.6877
-46.0933
-43.6684
-39.3676
-40.4875
-40.1234
-39.4427
-44.4227
-44.2515
-36.1418
-48.9926
-56.838
-54.2458
-53.9892
-60.233
-33.6121
-33.5401
-18.6593
-47.9623
-62.7688
-62.7773
-65.9548
-60.122
-37.353
-36.1368
-36.2435
-36.3924
-45.6207
-48.5894
-47.8656
-46.203
-39.3648
-40.5559
-40.1843
-39.4662
-56.8407
-54.2166
-53.9686
-60.2168
-71.5871
-66.4057
-66.8843
-63.0956
-71.472
-66.2952
-66.8185
-63.0099
-65.3537
-62.1017
-62.1957
-57.9826
0.435637
5.3096
5.32079
14.6054
200.888
201.809
194.265
200.886
-41.4444
-42.9157
-41.9292
-43.3431
-41.4873
-42.9397
-42.0211
-43.384
-37.2976
-38.1163
-37.0082
-36.9425
-92.5441
-98.4859
-88.3081
-92.5592
-50.9415
-49.5788
-52.3431
-50.1227
-51.5594
-50.1347
-52.8067
-50.2671
-42.2988
-43.8102
-43.7083
-45.5992
-38.9578
-40.8032
-40.8232
-43.3273
-29.8984
-29.8144
-29.5343
-30.2638
-22.4112
-0.166938
-66.561
96.8791
-124.792
-125.868
-105.191
70.1242
-93.3912
-69.8737
-87.4098
-76.343
-42.7038
-41.307
-44.1804
-38.3116
-42.1864
-40.4588
-42.1214
-38.6378
-42.6242
-44.7318
-47.442
-42.0595
1.8691
7.04047
-41.4471
51.8557
-37.4724
-39.2449
-34.77
-16.3999
-54.8147
-52.1982
-69.5045
-37.8395
-38.9232
-38.8066
-41.9996
-36.7127
-35.4769
-36.0792
-35.7852
-34.0434
-39.4675
-42.8948
-42.6768
-38.848
-128.71
-125.506
-105.568
78.2851
-34.5075
-9.55185
-64.5626
100.505
-89.7967
-70.9187
-88.0124
-76.8834
-42.7358
-40.8863
-40.8543
-39.1926
-43.1648
-41.5665
-44.5488
-38.642
-42.8185
-43.8224
-48.0829
-42.8827
-37.4796
-39.2088
-34.8011
-16.3279
1.84534
6.89148
-41.5063
51.8352
-54.738
-52.2398
-69.4999
-37.6746
-35.8214
-36.2509
-35.9681
-34.7263
-39.3928
-39.3183
-42.4773
-37.1925
-39.6219
-43.0322
-42.9281
-38.9992
-50.4691
-52.1697
-56.5078
-53.3148
-39.1456
-37.5934
-39.3428
-38.6173
-41.6664
-43.3561
-43.3873
-41.6925
-43.7426
-44.2297
-45.0817
-42.844
-51.4473
-49.8048
-50.1314
-52.6628
-37.7962
-36.5443
-36.9332
-37.1389
-37.3
-38.382
-37.8679
-37.5753
-40.89
-43.3926
-35.6281
-47.9053
-80.7616
-61.3102
-70.1182
-24.6248
-59.4214
-53.2817
-56.8324
-55.2853
-63.9388
-60.3158
-59.6147
-69.9534
-51.9123
-34.3607
-20.4242
-48.2576
-46.377
-45.8397
-45.9272
-48.6458
-44.3939
-42.2138
-43.6836
-43.1277
-49.4237
-52.2675
-49.3689
-53.9101
-56.3112
-61.322
-61.3622
-58.6567
-49.5629
-52.0471
-56.6866
-53.3042
-43.841
-44.289
-45.2713
-42.9837
-38.9511
-37.8052
-38.9008
-38.7617
-41.6044
-43.2899
-43.3066
-41.5895
-50.7753
-50.9006
-49.1942
-51.823
-41.7415
-42.2383
-34.8477
-48.422
-37.6387
-36.3988
-37.0145
-36.0654
-37.5778
-38.3218
-37.8928
-37.2451
-80.3324
-61.3078
-69.9112
-24.9455
-51.7272
-34.3314
-20.3158
-48.1763
-59.4924
-53.2795
-56.8353
-55.3303
-64.0189
-60.3563
-59.662
-70.0104
-46.5626
-46.0324
-46.1656
-48.7246
-56.3638
-61.3475
-61.4075
-58.6862
-44.5388
-42.314
-43.7996
-43.2707
-49.5154
-52.3354
-49.4873
-54.2084
-116.574
-86.5658
-101.354
-102.115
163.659
198.017
182.821
173.836
-85.3488
-74.112
-78.2866
-78.294
182.854
186.498
185.91
185.827
-64.3543
-65.5998
-69.5133
-61.7168
-62.976
-61.7024
-65.6379
-59.5452
-44.5487
-48.4681
-46.3416
-45.7672
-35.5653
-33.0661
-35.2575
-34.7166
-41.0869
-39.8371
-41.2441
-40.4132
-34.072
-32.8961
-33.5369
-33.7186
-47.7874
-48.4918
-47.4464
-47.8448
-44.5346
-43.9372
-46.1236
-42.4441
-22.3559
-12.1632
-18.2428
-18.2546
76.5324
154.021
117.723
117.224
-68.2992
-68.0284
-64.3796
-74.0132
-6.9366
0.462245
-7.08105
5.01497
-36.0899
-36.1219
-35.8613
-35.901
-28.5247
-28.9063
-29.6115
-29.1349
-47.9784
-49.9253
-48.1076
-47.9403
-42.8137
-41.3441
-44.5304
-40.0876
-116.291
-86.4565
-101.178
-101.94
163.428
198.1
173.349
183.337
-64.1501
-65.421
-69.3921
-61.49
-62.9361
-62.2618
-66.3734
-59.589
-44.8167
-49.0651
-46.2273
-46.8638
-36.0694
-33.6676
-35.8334
-35.3019
-47.9821
-48.8907
-48.0603
-48.1729
-45.1556
-44.0262
-46.2883
-42.6236
-68.2937
-67.9784
-73.9728
-64.3838
-7.02426
0.447605
4.94816
-7.10506
-48.2291
-50.2855
-48.1856
-48.4339
-42.8841
-41.4668
-40.1561
-44.5812
-38.1188
-39.1928
-38.8165
-38.2313
-37.0357
-37.0482
-37.4145
-36.7389
-50.515
-57.9247
-53.4011
-53.3645
-45.0839
-43.9095
-43.333
-45.86
-50.2332
-55.8234
-53.3589
-53.3373
-41.4632
-39.3822
-40.0214
-40.052
-40.5949
-41.073
-40.2617
-41.7398
-37.6462
-47.5988
-46.4075
-41.1494
-36.6701
-36.0189
-36.3102
-36.3555
-52.5491
-54.5342
-55.6723
-55.8344
-49.9301
-44.1131
-48.54
-48.5838
-73.1917
-87.3319
-85.006
-77.0518
11.2663
25.6629
21.0265
21.0944
-74.2154
-101.664
-89.4284
-89.4484
-72.7329
-79.6957
-75.5271
-75.5355
-54.4024
-48.7727
-51.7702
-51.7801
-38.0077
-39.1021
-38.5875
-38.299
-36.9878
-37.1571
-37.827
-36.5203
-50.3893
-57.9354
-53.241
-53.345
-45.044
-43.8387
-43.2753
-45.8202
-40.6905
-41.1613
-41.8339
-40.3768
-37.9193
-48.2335
-46.8355
-41.5454
-49.6302
-44.6376
-49.3169
-47.7483
-73.1907
-87.3495
-77.0551
-84.9992
-114.784
-97.5354
-98.8144
-82.8238
-56.1019
-49.78
-57.5051
-54.0528
-60.1223
-57.1106
-57.3681
-54.9244
-89.7659
-87.1447
-99.2933
-85.6246
-114.114
-97.4278
-98.6444
-82.9496
-90.3141
-86.9494
-99.0257
-85.5476
-59.8586
-56.7175
-57.4915
-54.6569
-56.1984
-49.7701
-57.5921
-54.0514
-83.7784
-76.8212
-77.9972
-74.0144
-83.7645
-78.8607
-78.2077
-74.3359
-52.9784
-49.5985
-55.4955
-53.0832
-52.9117
-49.3689
-55.2422
-53.0109
-26.3963
-25.4582
-20.4409
-17.777
9.49024
7.13929
15.3891
17.9279
9.539
7.27548
15.4856
17.9682
-26.4057
-25.4807
-20.4537
-17.7813
153.921
163.536
159.872
171.861
110.414
106.075
125.764
122.836
105.946
110.56
122.896
126.08
160.591
150.217
170.514
157.316
-39.3267
-40.5419
-39.4507
-40.9737
-37.4862
-37.8221
-37.9449
-38.4897
-44.6
-46.5787
-43.7893
-46.4157
-53.2869
-54.7098
-50.115
-51.6079
-39.1459
-40.4072
-39.2537
-40.8674
-53.315
-54.7366
-50.1093
-51.6029
-44.6841
-46.6873
-43.8866
-46.5922
-38.1265
-38.0388
-38.2153
-38.7018
-39.2972
-40.6348
-38.8199
-39.7344
-40.8921
-39.6197
-39.7804
-38.8537
-36.0842
-36.187
-36.1323
-36.6545
-36.6767
-36.7358
-36.5287
-36.473
-102.954
-84.0904
-98.5726
-95.3162
-62.0764
-66.1899
-70.868
-71.8482
-66.2171
-62.1108
-71.8685
-70.9113
-84.69
-103.282
-95.3731
-98.5996
-45.9052
-49.0347
-46.0674
-48.2337
-44.1065
-47.3913
-46.9036
-49.9716
-45.0515
-45.1013
-45.8964
-46.5157
-45.7574
-42.951
-46.9372
-44.4602
-46.6157
-49.6742
-46.9114
-48.9443
-46.3721
-42.5737
-47.915
-44.5944
-45.4237
-45.4129
-46.2671
-46.8286
-44.3461
-48.0707
-47.4545
-50.4792
-51.259
-53.1315
-50.7936
-54.1016
-52.839
-50.8307
-54.4425
-55.9901
-41.3787
-43.1625
-41.7946
-41.3697
-41.1554
-40.9267
-40.1422
-40.9479
-53.0963
-54.6273
-50.0472
-52.074
-36.574
-37.244
-36.3639
-37.4529
-36.7113
-37.3898
-36.4832
-37.5767
-53.1417
-54.6608
-50.0861
-52.1017
-37.1276
-36.4822
-36.5186
-35.5245
-36.7714
-37.3932
-35.8503
-36.8233
-34.4674
-36.1172
-32.9222
-34.9088
-35.445
-33.675
-34.1976
-32.1755
-67.655
42.7048
-109.158
29.0719
-110.972
-96.1534
-44.6075
-39.3951
-42.0805
-40.0513
-42.6806
-41.7907
-39.6007
38.5139
-35.3994
-11.8025
-62.6887
-37.3993
-41.4898
-36.7859
-35.7233
-35.8888
-40.9744
-37.1392
-108.725
33.2342
-64.4772
25.3692
-109.829
-94.667
-41.2587
-40.7021
-44.6075
-39.7416
-42.7821
-41.1421
-35.3815
-11.9007
-39.6463
37.3992
-62.5737
-37.6095
-36.008
-36.4841
-41.9547
-37.2956
-41.3656
-37.3569
-44.7863
-45.4701
-40.1987
-41.1708
-42.4404
-40.7477
-44.7683
-42.0755
-43.1896
-41.3749
-37.413
-38.8298
-36.7013
-34.8832
-36.3583
-44.1016
-71.7196
-101.283
-64.2919
-61.3969
-62.7664
-76.1495
-100.277
-104.554
-46.0991
-48.2304
-45.8583
-45.2261
-47.7481
-51.6118
-53.294
-51.4498
-45.0324
-45.6708
-44.8413
-42.3083
-40.1544
-41.2609
-42.4062
-40.6781
-44.9194
-44.6438
-35.4169
-46.1415
-37.5198
-35.9684
-36.8347
-35.3105
-71.5785
-100.39
-99.9283
-104.743
-64.4229
-61.5101
-62.8433
-76.2825
-46.2639
-48.3492
-53.3326
-51.512
-45.9981
-45.3692
-47.8691
-51.6572
-60.565
92.7561
-45.7358
74.7074
-103.769
-97.0581
138.378
131.677
-106.873
55.6728
-106.895
56.8777
-94.1387
-94.1382
122.096
123.416
-67.6533
-61.1529
-56.5898
-56.7493
-67.1168
-60.1597
-66.7359
-60.2692
-43.2115
-37.7216
-42.8496
-36.9329
-43.5286
-43.9054
-37.0112
-36.4961
-40.5
-37.3661
-40.193
-37.5903
-40.3134
-40.7586
-35.2048
-35.3481
-45.106
-42.0903
-47.2548
-52.3148
-47.091
-46.7308
-47.7145
-43.2687
-36.6357
-7.48964
-36.6706
-5.17397
-28.1977
-28.1927
54.0139
53.0804
-67.2512
-32.4508
-63.9088
-23.5998
-65.9906
-71.9588
-18.805
-12.2533
-36.2388
-32.0792
-36.3212
-32.5512
-35.9119
-35.9603
-28.9988
-28.6112
-45.4805
-42.4156
-46.4336
-49.3629
-47.588
-46.5598
-47.843
-41.8295
-59.7169
94.8532
-45.8806
74.6989
-103.482
-97.0877
131.737
138.467
-68.7934
-62.6039
-56.081
-56.7039
-67.447
-59.6838
-66.9827
-60.1749
-43.5365
-38.0679
-43.3622
-37.3724
-44.0999
-43.7776
-37.4134
-36.9581
-44.5463
-42.3
-47.8701
-52.5789
-47.6971
-46.5121
-48.4722
-43.0352
-67.2392
-32.4472
-63.9024
-22.7566
-71.9213
-65.9782
-12.7381
-18.8347
-45.6518
-42.5059
-46.6595
-49.4462
-46.7592
-47.79
-41.9036
-47.9815
-37.5067
-38.2302
-36.568
-36.6021
-37.5366
-37.5994
-37.5018
-36.7632
-45.4616
-43.7218
-51.2324
-49.9304
-47.7799
-50.2144
-44.3181
-47.2686
-45.8867
-43.4557
-45.9356
-43.5091
-47.8172
-47.8044
-42.7936
-42.785
-38.963
-38.9492
-41.502
-40.9915
-39.7808
-40.9662
-37.5883
-40.0514
-35.8212
-48.9483
-36.3763
-48.3335
-34.8007
-34.9186
-50.5219
-50.5318
-56.6651
-64.6764
-52.3163
-58.5283
-51.3697
-52.9116
-68.6646
-63.8919
-17.3501
-43.2192
-17.5664
-43.2187
-1.2452
-1.2227
-59.9315
-59.9421
-65.0632
-59.8243
-65.0791
-59.8408
-68.9351
-68.9419
-57.1304
-57.1374
-37.3991
-38.5492
-36.7097
-36.2328
-36.504
-36.4794
-37.7354
-36.6538
-45.3911
-43.6427
-51.1893
-49.9115
-50.1692
-47.722
-44.2283
-47.2333
-39.001
-38.7958
-41.591
-41.0834
-41.0596
-39.8554
-37.4689
-40.0962
-56.6971
-64.6853
-52.3724
-58.3522
-52.9186
-51.3583
-63.8283
-68.6635
-77.9025
-79.0491
-71.0043
-62.5238
-63.8726
-72.3706
-60.489
-61.4354
-77.7455
-78.9356
-70.8589
-62.4364
-72.3059
-63.8372
-61.4092
-60.4558
-70.1222
-70.166
-65.5777
-57.8631
-65.9322
-58.136
-56.1431
-56.0858
-7.03105
-7.02531
-1.42243
11.7533
11.7518
-1.43821
20.7437
20.7512
199.62
188.515
185.685
185.624
156.427