# vtk DataFile Version 2.0
tri_press
ASCII
DATASET UNSTRUCTURED_GRID
POINTS 3682 float
-0.672603 0.115 -1.905
-0.785 0.155 1.90649
-0.685052 0.415 -1.845
-0.765 0.735 1.91374
0.672175 0.115 -1.905
0.785 0.155 1.90649
0.685 0.415 -1.84471
0.765 0.735 1.91374
-0.734947 0.103455 -0.634503
-0.747818 0.141383 0.635993
-0.79236 0.602326 -0.592087
-0.788603 0.678586 0.660827
0.734663 0.103454 -0.634503
0.747761 0.141297 0.635993
0.792394 0.602394 -0.591893
0.788621 0.678621 0.660923
-1.42814 -0.180239 -2.93443
-1.42805 -0.120922 -1.9251
-1.47631 -0.119499 -0.654138
-1.50363 -0.113194 0.620379
-1.52567 -0.0983865 1.89164
-1.53326 -0.0672226 2.90244
-1.53391 -0.0241088 3.91052
-1.4234 0.024458 -2.91071
-1.42464 0.105135 -1.90331
-1.48985 0.12491 -0.635774
-1.51295 0.150223 0.63336
-1.53537 0.172627 1.90123
-1.54113 0.204286 2.91178
-1.53988 0.245936 3.92044
-1.4301 0.396805 -2.85835
-1.44204 0.475239 -1.85027
-1.53129 0.609472 -0.594729
-1.54483 0.682711 0.659585
-1.53514 0.734825 1.91547
-1.54286 0.763853 2.92675
-1.54525 0.797141 3.93825
-1.45423 1.07478 -2.79301
-1.46816 1.16864 -1.78754
-1.50933 1.31906 -0.537739
-1.53838 1.44517 0.708282
-1.54528 1.52763 1.95828
-1.54634 1.57207 2.96418
-1.54738 1.60821 3.97376
-0.703104 -0.175806 -2.93552
-0.688312 -0.113477 -1.92672
-0.726773 -0.129208 -0.653888
-0.743875 -0.12209 0.622623
-0.762311 -0.112021 1.89554
-0.769263 -0.0775129 2.90509
-0.770031 -0.0310577 3.91206
-0.70011 0.0220435 -2.911
-0.778356 0.19525 2.91397
-0.775797 0.239955 3.9216
-0.703095 0.371172 -2.8561
-0.778158 0.761611 2.92641
-0.780817 0.794689 3.93819
-0.710852 1.05666 -2.79079
-0.714804 1.15131 -1.7851
-0.746451 1.31316 -0.536256
-0.772882 1.4468 0.708147
-0.779976 1.53064 1.95708
-0.781525 1.5743 2.96297
-0.783288 1.60938 3.97289
0.707024 -0.175799 -2.93546
0.710079 -0.113474 -1.9267
0.742221 -0.129215 -0.653877
0.758145 -0.122145 0.622631
0.781682 -0.112041 1.89555
0.771337 -0.0775267 2.9051
0.763249 -0.0310704 3.91208
0.694682 0.0220496 -2.91091
0.766784 0.195241 2.91398
0.759335 0.239944 3.92162
0.703099 0.371181 -2.85593
0.758414 0.761607 2.92643
0.753196 0.794682 3.93821
0.759586 1.05668 -2.79065
0.773622 1.15133 -1.78495
0.778961 1.31319 -0.53613
0.76759 1.44682 0.708233
0.757263 1.53065 1.95713
0.751951 1.5743 2.96302
0.747591 1.60938 3.97293
1.42686 -0.180223 -2.93429
1.43339 -0.120907 -1.92501
1.48192 -0.119504 -0.654072
1.5127 -0.113262 0.620419
1.53774 -0.0984348 1.89166
1.5358 -0.067254 2.90247
1.52818 -0.0241347 3.91056
1.41375 0.0244772 -2.91053
1.4154 0.105157 -1.90318
1.48472 0.124926 -0.635682
1.51346 0.150155 0.633407
1.53667 0.172585 1.90125
1.53368 0.204261 2.91181
1.52559 0.245913 3.92048
1.4262 0.396831 -2.85806
1.43624 0.475277 -1.84994
1.52696 0.609544 -0.594481
1.54239 0.682726 0.659715
1.53108 0.734807 1.91551
1.52617 0.763838 2.92679
1.51983 0.797126 3.9383
1.49465 1.07481 -2.79274
1.51341 1.16869 -1.78726
1.53387 1.31911 -0.537505
1.53355 1.44521 0.708447
1.52469 1.52764 1.95839
1.51823 1.57207 2.96427
1.51277 1.60821 3.97384
-0.658163 0.265 -1.85434
-0.00021401 0.118066 -1.90193
-0.709764 0.103238 -1.26975
-0.799528 0.445 1.93464
0 0.134314 1.92718
-0.788369 0.126232 1.27124
-2.59876e-05 0.477451 -1.90731
-0.83661 0.606567 -1.21854
0 0.719354 1.89809
-0.823123 0.753114 1.28728
0.657798 0.265 -1.85407
0.709409 0.103237 -1.26975
0.799504 0.445 1.93462
0.788596 0.125933 1.27124
0.836618 0.606618 -1.2183
0.823147 0.753147 1.28733
-0.760317 0.103485 0.000744998
-0.800678 0.35289 -0.613295
-0.000142285 0.100968 -0.634503
-0.839611 0.409984 0.64841
-2.83921e-05 0.100974 0.635993
-0.791991 0.641965 0.03437
1.66163e-05 0.911606 -0.59199
8.98118e-06 1.03757 0.660875
0.760104 0.103484 0.000744998
0.800692 0.352924 -0.613198
0.839672 0.409959 0.648458
0.791955 0.641955 0.034515
-0.834141 0.308945 -1.24415
0.834113 0.308962 -1.24403
-0.000178148 0.100864 -1.26975
-4.68566e-06 0.695784 -1.21842
-0.000119999 0.265 -1.98773
-0.799256 0.381437 0.0175575
0.799257 0.381441 0.01763
-8.53386e-05 0.100952 0.000744998
1.27987e-05 1.1128 0.0344425
-0.895804 0.427492 1.27926
0.895804 0.42748 1.27929
-1.4196e-05 0.108089 1.27124
4.49059e-06 0.863538 1.28731
0 0.445 2.08685
-0.631063 0.19 -1.84535
-0.336409 0.117888 -1.90211
-0.691608 0.108694 -1.58738
-0.806028 0.3 1.93433
-0.3925 0.13032 1.93117
-0.795227 0.132073 1.58887
-0.679623 0.34 -1.85768
-0.342539 0.464203 -1.89413
-0.790176 0.540129 -1.53177
-0.765316 0.59 1.90724
-0.3825 0.71776 1.8965
-0.794133 0.744129 1.60051
0.33598 0.117567 -1.90243
0.630873 0.19 -1.84542
0.691294 0.108617 -1.58738
0.3925 0.129928 1.93156
0.805979 0.3 1.93428
0.795506 0.131759 1.58887
0.342487 0.464207 -1.89399
0.679457 0.34 -1.85745
0.790252 0.540252 -1.53151
0.3825 0.717758 1.8965
0.765416 0.59 1.90734
0.794129 0.744129 1.60054
-0.7224 0.103303 -0.952128
-0.747638 0.103464 -0.316879
-0.811509 0.206324 -0.623899
-0.367505 0.10229 -0.634503
-0.798179 0.103722 0.953618
-0.746231 0.13027 0.318369
-0.820429 0.262326 0.642202
-0.383319 0.102387 0.635993
-0.831534 0.621495 -0.905315
-0.802606 0.480651 -0.602691
-0.804377 0.634347 -0.278858
-0.444398 0.853418 -0.592038
-0.818692 0.728679 0.974055
-0.852562 0.563513 0.654618
-0.774424 0.644402 0.347598
-0.414015 0.897514 0.660851
0.722079 0.103302 -0.952128
0.367221 0.10229 -0.634503
0.747389 0.103463 -0.316879
0.811523 0.206266 -0.623851
0.79813 0.103664 0.953618
0.383241 0.102387 0.635993
0.74618 0.130143 0.318369
0.820425 0.262274 0.642226
0.831496 0.621496 -0.905098
0.444408 0.853406 -0.591942
0.802553 0.480664 -0.602546
0.804346 0.634346 -0.278689
0.81869 0.72869 0.974128
0.41401 0.897486 0.660899
0.852592 0.563513 0.654691
0.774352 0.644352 0.347719
-0.808083 0.286973 -1.54924
-0.329142 0.265 -1.93699
-0.000196079 0.106744 -1.58584
-0.000167005 0.191533 -1.98346
-0.830243 0.206092 -1.25695
-0.354971 0.100865 -1.26975
-0.886802 0.436246 1.60695
-0.399764 0.445 2.05207
-7.09802e-06 0.130794 1.59921
0 0.289657 2.0688
-0.881224 0.276862 1.27525
-0.394192 0.12864 1.27124
-1.53366e-05 0.608227 -1.56286
-7.29933e-05 0.371226 -2.05398
-0.838111 0.457756 -1.23135
-0.418307 0.68995 -1.21848
2.2453e-06 0.76822 1.5927
0 0.582177 2.05091
-0.895085 0.590303 1.28327
-0.411559 0.803742 1.2873
0.80836 0.286981 -1.54905
0.328839 0.265 -1.93697
0.830253 0.206099 -1.25689
0.354615 0.100865 -1.26975
0.886802 0.43624 1.60695
0.399752 0.445 2.05208
0.881225 0.276706 1.27526
0.394291 0.12839 1.27124
0.838112 0.45779 -1.23116
0.418307 0.689967 -1.21836
0.895085 0.590314 1.28331
0.411576 0.803573 1.28732
-0.79688 0.233914 0.00915125
-0.380145 0.102331 0.000744998
-0.837215 0.330918 -0.928721
-0.795375 0.367164 -0.297869
-0.000160216 0.100887 -0.952128
-0.000113812 0.100956 -0.316879
-0.80843 0.395711 0.332984
-0.878205 0.418738 0.963836
-5.68653e-05 0.100961 0.318369
-2.12941e-05 0.100926 0.953618
-0.810752 0.519266 0.0259638
-0.466774 1.01895 0.0344063
5.96532e-06 0.736799 -0.905206
1.47075e-05 1.05873 -0.278774
1.089e-05 1.10062 0.347659
6.73589e-06 0.954892 0.974091
0.796846 0.23388 0.0091875
0.379953 0.102331 0.000744998
0.837944 0.330943 -0.928613
0.795356 0.367183 -0.297784
0.808432 0.3957 0.333044
0.878205 0.418719 0.963873
0.810767 0.519279 0.0260725
0.466773 1.01896 0.0344788
-0.805191 0.198046 -1.56831
-0.837091 0.217132 -0.940424
-0.840426 0.467682 -0.917018
-0.812957 0.398878 -1.54051
0.805346 0.19805 -1.56821
0.813502 0.398895 -1.54028
0.840426 0.467724 -0.916855
0.837089 0.217144 -0.94037
-0.34569 0.106035 -1.58661
0.345298 0.106045 -1.58661
0.360938 0.100889 -0.952128
-0.361258 0.100889 -0.952128
-0.380423 0.593339 -1.54732
-0.40724 0.699283 -0.905261
0.407256 0.699331 -0.905152
0.380397 0.593389 -1.54719
-0.332775 0.190767 -1.91662
-0.33584 0.355613 -2.00982
0.335663 0.355613 -2.00979
0.33241 0.190767 -1.9164
-0.800369 0.222032 -0.307374
-0.795545 0.254675 0.325677
-0.830062 0.540592 0.340291
-0.801862 0.49755 -0.288364
0.800396 0.221967 -0.307332
0.801856 0.497569 -0.288237
0.830012 0.540562 0.340382
0.795539 0.254625 0.325707
-0.373827 0.102306 -0.316879
0.373589 0.102305 -0.316879
0.381592 0.102369 0.318369
-0.381727 0.102369 0.318369
-0.479151 0.983314 -0.278816
-0.454438 0.986319 0.347629
0.454427 0.986291 0.347689
0.479082 0.983163 -0.278732
-0.8783 0.276273 0.958727
-0.874461 0.288431 1.59791
-0.886101 0.590152 1.60373
-0.877453 0.567294 0.968946
0.878303 0.276167 0.958745
0.877456 0.567302 0.969
0.886101 0.590157 1.60374
0.874447 0.288353 1.59791
-0.384057 0.10093 0.953618
0.384079 0.10093 0.953618
0.393395 0.16056 1.59404
-0.393346 0.160598 1.59404
-0.402928 0.89025 0.974073
-0.39703 0.693367 1.59661
0.397038 0.693685 1.59662
0.402946 0.890235 0.974109
-0.396132 0.294829 1.98374
0.396126 0.294829 1.98374
0.391126 0.586088 1.99253
-0.391132 0.586088 1.99219
-0.643034 0.1525 -1.86637
-0.504506 0.118472 -1.90153
-0.682713 0.11124 -1.74619
-0.798007 0.2275 1.9229
-0.58875 0.149718 1.91177
-0.80348 0.130171 1.74768
-0.686996 0.3775 -1.856
-0.513795 0.44731 -1.87727
-0.749096 0.489046 -1.68839
-0.774021 0.6625 1.91935
-0.57375 0.710375 1.88911
-0.765465 0.725463 1.75713
0.504078 0.11813 -1.90187
0.643099 0.1525 -1.86678
0.682372 0.111171 -1.74619
0.58875 0.149499 1.91199
0.798035 0.2275 1.92293
0.803456 0.130176 1.74768
0.513744 0.44728 -1.87703
0.686883 0.3775 -1.85573
0.748845 0.488845 -1.68811
0.57375 0.710376 1.88912
0.774058 0.6625 1.91939
0.765388 0.725388 1.75714
-0.728709 0.103343 -0.793316
-0.741297 0.103455 -0.475691
-0.788418 0.147295 -0.629201
-0.551211 0.102904 -0.634503
-0.791789 0.103761 0.794806
-0.745656 0.137195 0.477181
-0.788817 0.199508 0.639098
-0.575029 0.102964 0.635993
-0.792144 0.592107 -0.748701
-0.804218 0.544856 -0.597389
-0.799079 0.619047 -0.435473
-0.634171 0.759455 -0.592063
-0.804688 0.704673 0.817441
-0.824414 0.622965 0.657723
-0.773406 0.653386 0.504213
-0.604877 0.795185 0.660839
0.728406 0.103343 -0.793316
0.550926 0.102903 -0.634503
0.74103 0.103454 -0.475691
0.78833 0.147241 -0.629177
0.791676 0.103751 0.794806
0.57494 0.102964 0.635993
0.745606 0.137085 0.477181
[...]
POINT_DATA 3682
SCALARS point_scalars float 1
LOOKUP_TABLE default
-69.2244
-44.3006
45.782
-38.6548
-71.5688
-44.0033
45.6514
-38.5189
-33.5357
-16.0926
-36.755
-30.5071
-33.5346
-16.1358
-36.7433
-30.4665
-69.2244
-85.9797
-46.3732
-18.1013
-48.184
-39.4381
-32.7151
-69.2244
-85.9797
-45.1071
-19.2075
-49.3215
-36.9198
-32.8061
80.4262
-63.0164
-36.1417
-24.3728
-46.2357
-38.5585
-31.9508
44.5227
-52.6972
-38.6029
-32.7372
-44.1417
-38.5585
-38.5585
27.3984
-69.2244
-34.0369
-26.3011
-43.7482
-35.5492
-29.7558
27.3984
-31.0469
-30.3392
164.748
-30.7486
-29.4807
163.772
-13.0368
-69.5927
-54.4755
-36.2751
-38.1184
-31.0265
27.5775
-71.5688
-34.1323
-26.2788
-43.8043
-35.6295
-29.5577
27.5775
-30.8023
-30.1824
164.664
-30.2033
-29.3012
113.512
-16.8198
-69.8139
-54.4517
-36.1372
-37.4151
-30.8889
-71.5688
-85.2388
-46.1204
-18.0282
-47.7449
-39.2986
-32.5834
-71.5688
-85.2388
-44.9537
-19.2089
-49.2654
-36.7911
-32.5747
79.9561
-60.4442
-36.1297
-24.3585
-46.0909
-38.4242
-31.8113
40.7594
-53.5834
-38.573
-32.7007
-43.9259
-38.4242
-38.4242
42.051
-75.2017
-50.1404
-35.9778
-33.7558
-35.5127
35.3499
-62.8355
-30.0354
-46.7742
42.2474
-50.3146
-35.855
-35.4252
-62.8904
-46.776
-27.1465
-35.2517
-34.8001
-20.4037
-32.0216
-46.5798
2.29881
-53.2924
-27.1797
-35.2254
-20.4143
-46.5834
-57.8051
-58.1578
-53.4493
-18.7545
197.22
-27.9042
-27.9676
-30.0009
-94.1371
-42.5994
-42.5399
-35.0968
-37.3996
-22.7175
50.2621
-129.735
-77.2576
-38.5493
-35.7372
-37.055
37.6771
33.7826
-42.4684
-36.0133
-30.997
-43.2951
-128.673
59.6474
-77.0911
-35.6381
-38.412
-36.9616
33.778
36.3758
-41.8025
-30.9168
-35.8966
-43.2544
-38.8904
-29.0463
-34.4969
-34.0528
-42.522
-25.0027
-15.9233
-31.0382
-53.0436
-35.7112
-41.5419
-18.1634
-38.4717
-24.7458
-40.2676
-49.7805
-38.9847
-34.0482
-29.0161
-34.4432
-41.9152
-31.0198
-25.0171
-16.0144
-53.0657
-18.1644
-35.6972
-41.5238
-38.4035
-49.7652
-24.7293
-40.2737
-73.6965
169.634
-81.3
-54.0724
-56.2493
-51.2687
-47.3528
-29.1932
-31.9812
-26.1439
-40.0497
-35.551
-3.47219
186.175
-59.8855
-34.1866
-33.2134
-25.4718
-43.1417
-39.5676
-73.3154
169.371
-56.7017
-51.2711
-47.3382
-29.009
-39.9903
-35.5304
-60.068
-34.1878
-43.0888
-39.5594
-27.0812
-29.153
-46.9515
-31.0911
-40.9519
-31.3933
-23.4573
-31.8553
-30.1386
-35.0929
-30.6
-75.9317
14.0734
-78.3585
-72.0864
-43.4581
-27.1133
-29.1483
-47.0209
-31.0317
-23.5474
-31.7845
-30.6028
-75.981
-79.63
-45.2219
-48.2465
-66.214
-78.9906
-66.1701
-48.2909
-45.2691
-78.3719
-78.2394
-39.9754
-39.9725
-5.74997
-11.583
-11.5968
-5.63574
155.803
188.688
188.537
155.754
-29.7641
-22.876
-27.1809
-33.2946
-29.7033
-33.2612
-27.244
-22.9403
-30.5996
-30.5937
-29.0046
-29.0123
-75.3608
-59.8266
-59.8112
-75.3811
-36.3566
-45.7153
-48.8993
-30.5882
-36.2487
-30.5403
-48.8295
-45.6431
-36.4045
-36.3661
-31.9097
-32.0004
-45.5773
-34.6435
-34.6162
-45.5672
-31.106
-30.9705
-29.598
-29.7354
-4.40056
-22.7629
-128.262
-40.3243
-39.0605
-43.2362
46.987
48.7746
-12.7885
-37.3321
-33.9522
-37.9547
-21.6219
0.723877
-127.287
-38.9311
-40.1874
-43.1608
48.8765
46.479
-13.5804
-33.827
-37.1967
-37.8229
-35.9285
-30.7139
-34.7112
-33.4755
-29.5852
-21.4797
-13.8132
-29.463
-41.8083
-36.2377
-40.0618
-53.383
-33.9341
-24.285
-31.9749
-45.9302
-35.8593
-33.4794
-30.6946
-34.6604
-29.4601
-29.4398
-21.5034
-13.8883
-41.8172
-53.4681
-36.2249
-40.0442
-33.9066
-45.9422
-24.2464
-32.0533
51.8176
36.0166
-66.6506
160.109
-146.616
-140.324
-113.497
-111.894
-59.8223
-43.6672
-53.9081
-50.3692
-37.5084
-35.707
-45.9942
-30.89
-31.4973
-31.3751
-30.6554
-28.5975
-35.3564
-36.0654
-38.6397
-32.8584
35.9062
36.2184
7.95965
85.5331
-67.5684
-59.4512
-62.1447
-47.4665
-30.1293
-30.0948
-31.6026
-26.9898
-47.5343
-42.8598
-41.9452
-42.3032
49.8233
37.0503
-66.1778
160.1
-59.874
-43.8556
-54.2257
-50.4237
-37.3843
-35.5947
-45.8488
-30.7726
-35.2913
-36.3348
-38.5452
-32.8598
-67.7646
-59.4449
-62.2873
-47.5482
-47.4713
-42.774
-41.9122
-42.2836
-27.7654
-26.5283
-27.2435
-28.3401
-34.946
-35.4197
-45.4922
-32.5034
-34.445
-34.4267
-37.3207
-32.8481
-18.5725
-21.9193
-20.2349
-23.7967
-31.8334
-31.8227
-30.8559
-33.5398
-44.0076
-43.9705
-34.2548
-56.125
-0.131598
-0.142708
20.6043
-27.2388
-52.6775
-52.6732
-61.6694
-47.6332
-27.7742
-26.5616
-27.2681
-28.3455
-34.9168
-35.3976
-45.4517
-32.4592
-18.6127
-21.9196
-20.2945
-23.7546
-44.0161
-44.1492
-34.0215
-56.1188
-71.2343
-57.2003
-58.8356
-53.1279
-71.2362
-57.5705
-59.0575
-53.3887
-65.3435
-52.2002
-52.1597
-45.9119
-15.9908
-22.8278
-22.8595
-7.01252
178.741
137.535
196.071
180.048
-27.1811
-29.1829
-26.3425
-28.9403
-27.2468
-29.1547
-26.4355
-28.9832
-29.7511
-30.4327
-29.8687
-29.7424
-91.9974
-91.357
-83.9996
-92.0375
-44.7209
-41.7635
-43.0172
-36.9082
-44.6539
-41.702
-42.9598
-36.8471
-34.3064
-35.9391
-35.9177
-35.8004
-35.1152
-37.8022
-37.797
-40.1583
-25.2925
-23.6015
-23.4303
-25.0193
-82.184
150.977
-112.843
64.0467
-82.6469
-77.5252
-46.4147
-31.7424
-30.3875
-32.4291
-43.7646
-32.419
-57.8043
169.704
5.49067
113.301
-62.7079
-9.88109
-46.2697
-31.2741
-32.6555
-29.7681
-48.947
-35.5398
-112.668
64.2757
-81.5467
150.235
-82.0078
-77.3831
-30.2203
-32.26
-46.2901
-31.5371
-43.7002
-32.3343
5.98262
113.602
-57.7664
169.679
-62.1661
-9.99273
-32.6203
-29.6255
-46.1448
-31.1344
-49.008
-35.5137
-43.069
-39.4771
-29.7632
-29.8686
-45.4462
-31.5463
-36.6067
-32.0175
-35.831
-40.1323
-23.1041
-27.4169
-18.6696
-20.7889
-29.6648
-33.6005
-49.9568
-36.7359
-44.444
-34.4427
-36.0581
-60.0194
-6.09991
-47.3769
-30.3785
-48.9253
-26.4146
-23.7649
-34.7627
-48.8565
-54.5509
-48.9241
-43.3195
-39.5136
-36.6051
-32.011
-29.7031
-29.8693
-45.3065
-31.4873
-35.6866
-40.0529
-29.6528
-33.5746
-23.14
-27.419
-18.7327
-20.7121
-49.965
-36.7291
-6.08014
-47.3268
-44.4256
-34.4097
-36.0317
-60.0318
-30.3443
-48.88
-54.5512
-48.9082
-26.458
-23.7273
-34.8054
-48.8571
-76.2179
-70.1455
159.454
173.022
-76.6044
-76.3054
145.749
139.193
-69.5674
-51.2434
-61.5415
-44.605
-46.629
-47.9676
-30.2595
-29.5988
-32.0058
-32.0662
-28.5889
-28.3982
-36.2274
-42.3935
-36.899
-34.0508
-1.41564
-1.4736
198.187
197.854
-55.0323
-72.2692
-23.3333
-26.4298
-33.5073
-33.4943
-27.0952
-27.2549
-45.7171
-36.9992
-42.3149
-36.9215
-75.7064
-69.9994
172.92
159.285
-69.9387
-51.6607
-61.4888
-44.6162
-47.9202
-46.5546
-30.0814
-29.4408
-36.2055
-42.2555
-36.8922
-33.9955
-72.6196
-55.147
-26.4815
-23.487
-36.9448
-45.6508
-36.904
-42.3046
-28.0974
-25.6177
-29.6464
-28.9206
-46.2816
-47.6042
-30.306
-32.042
-40.3324
-40.3617
-31.1195
-31.1065
-23.0304
-24.7187
-33.7217
-30.5919
-29.8453
-29.8534
-35.8593
-35.8514
-29.3528
-31.8252
-88.421
-66.3501
7.17378
7.16577
-70.4247
-70.406
-69.7066
-69.7051
-43.8013
-43.798
-28.095
-25.6819
-29.6412
-28.9153
-47.6608
-46.3707
-30.2463
-31.9994
-24.7975
-23.1188
-33.6336
-30.5212
-31.8131
-29.485
-66.3671
-88.3821
-93.4465
-65.7162
-70.6704
-71.2369
-42.8627
-45.4974
-52.3358
-47.5929
-42.7269
-56.6622
-54.0268
-45.1985
-48.392
-62.5754
-71.6035
-74.7406
-92.4006
-70.6676
-70.8538
-66.0581
-49.7055
-75.1819
-71.7299
-62.0836
-42.7426
-45.1723
-54.2446
-56.719
-42.72
-49.1332
-52.6141
-45.4232
-115.043
-104.824
-62.9946
-60.1762
-114.94
-60.163
-62.92
-104.276
-36.254
-37.0091
-45.2856
-43.9329
-36.2381
-43.8559
-45.3119
-37.0293
12.1508
-35.0105
-17.2477
3.23804
-42.0422
14.1404
-13.1733
-44.4222
-42.0252
-44.4367
-13.1877
14.1201
12.1058
3.27235
-17.2712
-34.8783
71.6279
160.185
172.41
73.0287
133.641
103.274
180.867
159.626
133.307
159.778
182.02
102.808
72.2422
96.177
177.406
160.042
-31.5957
-28.0319
-28.3074
-31.9489
-19.3951
-19.0575
-25.741
-25.8701
-30.6571
-36.3869
-27.2584
-22.1655
-36.5013
-33.283
-30.3208
-35.3718
-31.5409
-31.8988
-28.2877
-28.0285
-36.4671
-35.3706
-30.3081
-33.2442
-30.7439
-22.2087
-27.3562
-36.7411
-19.433
-25.9129
-25.8337
-19.1283
-31.4118
-32.5967
-30.2076
-28.8529
-31.4109
-28.8569
-30.1979
-32.5848
-27.5548
-30.5821
-29.608
-27.9448
-27.5598
-27.9416
-29.6148
-30.5817
-60.7588
-58.6413
-88.798
-28.2591
-46.7615
-59.8231
-81.6727
-51.2109
-46.7585
-51.3292
-81.6798
-59.822
-60.7568
-28.2341
-88.841
-58.6303
-20.9057
-36.291
-36.481
-21.9862
-47.9304
-46.1141
-44.1743
-40.3084
-44.6149
-47.8067
-45.2485
-46.4459
-24.2655
-24.7458
-37.1007
-36.8676
-20.8623
-21.9434
-36.4235
-36.3304
-24.2328
-36.7768
-37.0432
-24.7138
-44.4763
-46.2991
-45.185
-47.7315
-47.7624
-40.2013
-44.0943
-45.9865
-33.5153
-33.5458
-37.078
-34.4046
-33.4606
-34.4221
-37.0716
-33.5346
-34.9649
-29.6508
-34.2477
-34.2731
-35.1136
-34.3347
-34.2851
-29.7349
-48.812
-46.3171
-40.5255
-47.8284
-33.3986
-31.811
-35.505
-38.6089
-33.3459
-38.5815
-35.4967
-31.7919
-48.8054
-47.8224
-40.5226
-46.3245
-33.9609
-29.9945
-25.5184
-30.837
-33.9724
-30.7067
-25.2443
-29.807
-32.1183
-28.0601
-26.0477
-30.9677
-32.2669
-31.1073
-26.2626
-28.1718
-26.6622
-11.6825
-77.6873
-42.9442
-41.6122
-43.6958
46.7319
59.5235
2.71511
-38.578
-37.6427
-36.5842
-11.7153
-26.9494
-79.3906
-41.4577
-42.7847
-43.4808
59.144
46.4682
2.50496
-37.4956
-38.4404
-36.4637
-35.6295
-31.786
-34.5186
-33.3208
-17.4429
-20.0818
-13.9509
-26.76
-37.3847
-36.4218
-38.007
-46.0461
-31.3681
-26.0664
-30.2271
-40.3985
-35.6194
-33.3223
-31.7667
-34.5042
-17.4149
-26.7348
-20.1128
-14.0333
-37.3915
-45.9676
-36.4099
-38.0031
-31.3642
-40.3131
-26.039
-30.1905
45.8465
39.3574
-33.7206
136.305
-101.31
-95.369
-108.214
-109.569
-55.2
-45.9761
-52.6484
-50.0306
-36.7681
-35.5776
-43.4701
-31.8848
-33.2675
-33.4115
-31.6718
-31.9599
-34.851
-35.9126
-37.927
-32.4709
35.3634
34.7086
18.5715
41.3058
-69.885
-60.6217
-64.0611
-57.3409
-30.0685
-30.0534
-30.9937
-29.4017
-47.9294
-44.1
-42.2454
-46.0951
45.292
39.0835
-33.7984
135.761
-55.3628
-46.2311
-52.7672
-50.1307
-36.6467
-35.4567
-43.3657
-31.7445
-34.7351
-36.8766
-37.8973
-32.4912
-70.1107
-60.7792
-64.1873
-57.5304
-47.9011
-44.1108
-42.2355
-46.0993
-27.3337
-27.6055
-27.1152
-27.8051
-35.0424
-35.3102
-39.7389
-33.3981
-34.6628
-34.6509
-35.9718
-33.6383
-19.6548
-21.1073
-19.7922
-21.7942
-31.9674
-31.9621
-31.4545
-32.7158
-45.7462
-45.4845
-40.3917
-50.4848
2.07047
2.39481
14.6986
-11.619
-53.0743
-53.0861
-57.0949
-50.3764
-27.3505
-27.653
-27.1507
-27.8203
-35.019
-35.2867
-39.7074
-33.3626
-19.6721
-21.1135
-19.8247
-21.782
-46.1725
-45.7931
-39.9883
-50.499
-65.2931
-57.1932
-58.1147
-54.5853
-65.4681
-57.5704
-58.2965
-55.0651
-58.8019
-53.0371
-52.9991
-48.9815
-20.0868
-21.0895
-21.1008
-16.3411
186.967
194.618
192.527
187.131
-27.5418
-28.2992
-27.3214
-28.3503
-27.6135
-28.3257
-27.3985
-28.4017
-29.9231
-30.1596
-29.8481
-29.9184
-93.1718
-96.9901
-90.0696
-93.1861
-43.2454
-42.2386
-42.8661
-39.7523
-43.1813
-42.1773
-42.8079
-39.6943
-34.9838
-35.1676
-35.1476
-35.3385
-36.1934
-37.4758
-37.4729
-38.6968
-23.8798
-23.1637
-23.3802
-23.6992
25.6967
57.8291
-23.7982
122.776
1.68798
-143.669
-141.969
60.5529
-97.057
-66.1933
-84.8477
-76.8372
-39.4732
-38.1118
-43.2553
-32.8677
-41.2119
-30.863
-28.9474
-34.5223
-38.2174
-36.1776
-41.3032
-33.8846
44.0784
30.3198
-29.0786
133.194
40.1009
35.536
19.0486
60.4091
-39.054
-52.8014
-54.7601
-13.3872
-36.5982
-35.6782
-42.7631
-32.1713
-32.2332
-30.3659
-31.6544
-30.0993
-41.135
-45.0607
-48.4878
-38.6422
3.02729
-144.093
-142.03
58.1373
36.8589
54.0177
-24.9458
121.738
-96.9471
-66.0579
-84.3856
-76.6844
-38.4752
-30.7435
-28.8973
-34.3454
-39.3296
-37.9822
-43.1248
-32.7485
-38.2605
-36.0896
-41.2361
-33.8248
40.3114
35.413
19.0846
60.2444
43.6541
29.9837
-29.0642
132.68
-37.6435
-52.7285
-54.4752
-13.7523
-32.1279
-30.3116
-31.6043
-29.9732
-36.4676
-35.5664
-42.6348
-32.0462
-41.0635
-45.0332
-48.8074
-38.6204
-38.1343
-40.9598
-41.0586
-39.1541
-29.7327
-28.3614
-29.3928
-29.3642
-34.4345
-34.727
-39.345
-32.7519
-33.8331
-34.2358
-35.3629
-32.8359
-38.5762
-40.8919
-34.6581
-42.7936
-22.7907
-26.7265
-24.1746
-25.9104
-14.2809
-17.3246
-15.973
-18.3697
-30.377
-31.5486
-30.297
-32.1318
-48.8995
-55.0731
-51.8177
-47.7189
-35.9088
-35.5365
-38.8829
-34.7779
-40.7616
-42.0029
-38.2925
-51.9162
-37.6831
-6.43952
-9.41204
-30.4207
-36.0518
-41.3542
-32.9623
-47.0048
-24.4607
-23.3031
-25.631
-24.0357
-36.1294
-42.8562
-39.1788
-42.9398
-48.7385
-51.8633
-52.4729
-48.8596
-38.1546
-41.1555
-41.5757
-39.2209
-33.8346
-34.2243
-35.36
-32.8305
-29.7077
-28.3633
-29.3357
-29.3639
-34.3688
-34.6897
-39.2773
-32.7012
-38.3007
-40.5496
-34.3811
-42.7356
-30.3561
-31.5337
-30.2817
-32.1096
-22.8216
-26.7274
-24.1997
-25.9259
-14.3439
-17.3917
-16.0188
-18.4109
-48.8781
-55.0465
-51.7979
-47.7072
-37.7428
-6.45503
-9.40223
-30.3966
-35.8948
-35.5176
-38.8579
-34.7483
-40.7384
-41.9924
-38.2678
-51.9195
-36.0074
-41.2919
-32.9256
-46.9321
-48.7452
-51.8399
-52.4711
-48.8352
-24.4424
-23.2952
-25.6515
-24.0259
-36.1354
-42.8474
-39.2062
-42.9498
-73.0308
-69.9478
-74.705
-71.8152
162.911
170.883
162.483
169.459
-96.1421
-73.3622
-79.6785
-79.4509
-67.3774
113.407
27.2978
26.3423
-55.4935
-56.6207
-65.0353
-51.7779
-50.7597
-51.6431
-55.9504
-47.441
-47.3529
-47.175
-46.9691
-47.616
-30.1961
-27.5039
-29.337
-29.3737
-30.5907
-33.1194
-31.7956
-31.8144
-27.5681
-24.5223
-26.1269
-26.5439
-39.2343
-41.1703
-38.7608
-40.8659
-34.9993
-36.1581
-35.9643
-34.7666
3.00411
-10.8371
-2.05385
-2.06805
155.426
194.735
195.966
195.868
-60.4682
-59.1759
-56.5615
-66.5421
-40.8836
-25.7845
-28.4091
-34.512
-32.3001
-34.2145
-33.2854
-33.278
-25.8777
-24.6551
-25.8229
-25.9213
-42.8929
-43.1318
-44.1965
-39.5673
-40.8227
-38.4334
-40.8487
-38.3151
-71.9729
-70.2401
-74.2641
-71.5809
162.932
170.844
169.289
162.295
-55.8972
-57.0031
-65.43
-52.2714
-50.7951
-51.6202
-55.9357
-47.4513
-47.2445
-47.1136
-47.5998
-46.9161
-30.0729
-27.255
-29.1422
-29.1998
-39.1677
-41.1082
-38.7247
-40.7778
-34.978
-36.1368
-35.9546
-34.7398
-60.6357
-59.3872
-66.705
-56.7358
-40.9023
-25.7826
-34.5165
-28.4526
-42.8434
-43.0764
-39.5163
-44.1372
-40.8088
-38.425
-38.2989
-40.8406
-27.2355
-27.0342
-27.3122
-26.5112
-28.7595
-29.4724
-29.3802
-28.9452
-46.2517
-49.5779
-46.6595
-47.2669
-31.7876
-30.3235
-30.6571
-31.5381
-39.0648
-43.1308
-40.7453
-40.7676
-32.0265
-30.9008
-31.3349
-31.3275
-21.6631
-25.0958
-23.242
-23.9733
-27.3861
-35.8752
-32.5771
-31.1074
-30.4414
-29.9834
-30.08
-30.0844
-34.262
-35.9038
-35.2476
-35.2448
-31.8449
-29.6697
-30.1054
-31.0981
-63.6521
-86.4727
-82.9998
-70.8595
19.5584
3.80839
12.2713
12.2585
-50.1228
-85.6721
-80.1005
-80.1248
-66.8433
-78.1505
-71.3237
-71.3252
-45.6515
-41.7891
-43.4944
-43.4884
-27.259
-27.0806
-27.3205
-26.5819
-28.7595
-29.465
-29.3756
-28.9405
-46.287
-49.6401
-47.3361
-46.7334
-31.7293
-30.2523
-30.595
-31.4883
-21.7396
-25.198
-24.0607
-23.3312
-27.3258
-35.8089
-32.5096
-31.0315
-31.7953
-29.7015
-31.1013
-30.1561
-63.6647
-86.4961
-70.8855
-82.9867
-77.3544
-81.1532
-77.8169
-69.6189
-44.7186
-45.6369
-47.8235
-45.8765
-48.7354
-47.5181
-51.1557
-47.9401
-65.7231
-64.1488
-67.8512
-70.3105
-76.3532
-80.4488
-77.2216
-68.8679
-63.8636
-64.2582
-67.9637
-71.0165
-48.7768
-47.5667
-51.2247
-47.9916
-44.7973
-45.5412
-48.1735
-45.935
-93.4784
-78.0923
-76.5268
-69.1221
-93.3498
-77.965
-76.3266
-69.0246
-39.6777
-38.2431
-42.0579
-40.0553
-39.6618
-38.2436
-42.0519
-40.0657
0.0639215
-9.24146
-4.54224
-13.3242
-21.4938
-6.65315
-17.4234
-1.88381
-21.4962
-6.66358
-17.4382
-1.89979
0.0874838
-9.22602
-4.48925
-13.3186
136.204
117.316
157.844
140.26
184.629
163.748
182.339
190.484
164.929
184.498
190.249
182.201
116.792
136.685
139.107
157.76
-29.7254
-30.532
-29.176
-30.0622
-23.0317
-21.1127
-24.4384
-22.903
-26.0621
-30.4051
-25.7365
-28.5642
-34.0065
-34.1925
-32.5877
-32.6785
-29.6671
-30.4633
-29.1088
-30.0029
-33.9715
-34.1659
-32.5489
-32.6509
-26.116
-30.4643
-25.8111
-28.6555
-23.0773
-21.1679
-24.5049
-22.9831
-30.2735
-31.2313
-30.1224
-30.8997
-31.2245
-30.2706
-30.8896
-30.1166
-29.2847
-28.3679
-29.5061
-28.9053
-28.372
-29.2945
-28.9116
-29.5152
-79.9208
-57.7567
-87.3894
-64.6101
-55.0131
-57.306
-62.8251
-65.8714
-57.2957
-54.985
-65.8655
-62.7949
-58.0705
-79.9743
-64.6224
-87.3369
-35.0858
-25.6457
-38.5442
-34.9873
-49.1005
-44.9733
-46.3164
-45.2958
-48.3503
-49.1302
-48.3664
-48.0369
-30.2269
-26.8926
-35.0788
-30.4929
-35.0393
-25.6173
-38.4611
-34.8826
-30.1846
-26.8354
-35.0216
-30.4394
-48.2461
-49.0945
-48.2958
-47.9674
-49.0005
-44.9069
-46.2418
-45.2118
-36.8835
-34.7683
-37.5648
-36.1546
-36.8426
-34.7394
-37.5147
-36.1381
-31.315
-31.3779
-32.2034
-32.8373
-31.4597
-31.4701
-32.2725
-32.9053
-47.534
-47.3572
-43.7017
-44.4771
-33.7324
-34.9899
-34.0482
-35.7585
-33.7012
-34.9638
-34.024
-35.7351
-47.5216
-47.3508
-43.6931
-44.4712
-31.2331
-30.7873
-31.1346
-30.6921
-30.597
-31.0638
-30.508
-30.9796
-29.5367
-30.479
-28.8336
-29.7228
-30.6116
-29.6767
-29.8697
-28.9858
-53.4671
87.0935
-154.451
30.1104
-95.4935
-116.505
-44.1347
-34.9649
-40.5348
-35.2442
-49.2844
-39.8907
-16.1279
110.001
30.2211
80.4421
-33.7206
5.74618
-40.6793
-33.2038
-33.5109
-33.1399
-42.1479
-34.5248
-154.472
30.8354
-53.9832
86.7841
-95.1791
-116.27
-40.2847
-35.3281
-43.9149
-34.8823
-49.1283
-39.7408
30.2578
79.4022
-16.2235
109.886
-34.4864
5.79185
-33.4226
-32.9933
-40.5457
-33.0602
-42.0897
-34.45
-37.2669
-36.2945
-31.1093
-31.0519
-41.2878
-32.202
-34.7493
-32.24
-22.388
-35.2562
-20.0906
-24.8415
-16.3328
-14.2539
-28.279
-31.3953
-41.9978
-45.6542
-38.029
-36.2902
-38.0985
-49.7923
-48.3872
-61.6327
-28.4798
-44.3276
-26.5813
-23.1684
-31.1439
-39.7535
-46.9309
-47.164
-37.1924
-36.3046
-34.7593
-32.2431
-31.077
-31.0489
-41.2479
-32.1574
-22.3121
-35.1527
-28.2661
-31.356
-20.1234
-24.849
-16.3664
-14.3287
-42.0095
-45.6855
-48.1982
-61.6249
-38.0104
-36.2569
-38.0745
-49.7838
-28.4623
-44.297
-46.9395
-47.16
-26.476
-23.1665
-31.0563
-39.7424
-29.3615
135.914
-31.7251
129.573
-67.8921
-64.4104
160.324
158.315
-124.631
22.1034
-123.509
19.456
-109.788
-109.305
-91.1607
-91.3383
-64.2239
-59.5451
-45.6276
-43.5206
-62.1599
-48.6369
-54.9819
-46.5297
-43.0287
-32.1088
-42.7251
-32.067
-45.8338
-46.2435
-30.8816
-30.9634
-29.7093
-30.1039
-29.6078
-29.942
-30.3361
-30.3288
-28.807
-28.2336
-38.5509
-33.879
-36.9093
-34.5785
-38.3284
-39.4924
-33.6053
-34.6574
14.002
47.188
13.9489
47.0184
6.9653
7.10613
93.8207
93.6611
-75.8306
-45.1496
-57.9897
-57.6056
-58.4789
-69.4223
-40.9297
-45.951
-31.0863
-28.9922
-31.0629
-28.9211
-31.6664
-31.6564
-27.319
-27.3828
-49.8684
-42.1997
-39.3248
-46.3836
-44.9035
-39.3956
-44.325
-40.3639
-29.6536
135.418
-31.782
129.302
-67.406
-63.9311
158.403
160.248
-65.0282
-59.5495
-46.7432
-43.634
-62.6116
-48.6176
-55.0105
-46.5936
-42.9131
-31.9859
-42.6123
-31.9266
-46.0707
-45.6905
-30.7634
-30.8357
-38.4587
-33.8352
-36.9487
-34.6806
-38.459
-39.3995
-33.6656
-34.6016
-76.162
-44.7861
-58.0111
-57.622
-69.5965
-58.6141
-45.9895
-41.0295
-49.7976
-42.1507
-39.003
-46.3735
-39.3261
-44.8505
-40.3423
-44.315
-27.8894
-28.2611
-26.0312
-27.1704
-27.3894
-26.8986
-28.5892
-28.0442
-39.5964
-33.0743
-39.5475
-33.9082
-45.5966
-45.3095
-32.1534
-32.8338
-35.6804
-33.3707
-35.6634
-33.355
-37.2206
-37.2365
-32.7536
-32.7439
-17.8911
-20.3925
-21.7707
-23.1911
-19.6349
-21.1535
-22.8685
-24.3267
-31.1518
-32.6241
-31.1421
-32.6126
-30.7953
-30.8005
-33.525
-33.5198
-39.2126
-52.4674
-41.2088
-47.6554
-34.363
-34.4519
-57.5712
-54.1712
8.5671
-14.7007
8.55954
-14.7193
18.5544
18.518
-26.8222
-26.7322
-55.8985
-49.9786
-55.8938
-49.974
-60.7854
-60.7846
-47.6714
-47.6705
-27.8944
-28.2697
-26.0695
-27.1774
-27.3946
-26.9495
-28.5939
-28.0499
-39.5552
-33.0322
-39.5135
-33.8763
-45.2726
-45.5449
-32.1051
-32.7922
-17.9482
-20.3914
-21.7934
-23.1702
-21.2036
-19.7004
-22.8263
-24.2921
-39.2066
-52.4593
-41.6673
-47.6649
-34.415
-34.1317
-54.1366
-57.5633
-70.9482
-71.3472
-65.3343
-53.5777
-55.4487
-65.67
-52.7328
-53.5753
-71.0282
-71.2739
-65.6305
-53.9408
-65.7625
-55.7956
-53.8141
-53.0023
-64.5996
-64.5358
-57.0568
-48.1897
-57.0048
-48.154
-45.7083
-45.7334
-15.721
-15.7283
-15.9863
-21.8996
-21.8759
-16.0031
-8.57402
-8.58103
176.174
180.402
164.457
164.095
190.4
191.784
181.258