# vtk DataFile Version 2.0
tet_velo
ASCII
DATASET UNSTRUCTURED_GRID
POINTS 29498 float
-0.735 0.095 -2.07333
-0.73661 0.295 2.145
-0.785 0.455 -2.06452
-0.705 0.944303 2.085
0.795 0.085 -1.9844
0.736595 0.295 2.145
0.785 0.455 -2.06452
0.705 0.944275 2.085
-0.775 0.122203 -0.66722
-0.833267 0.13114 0.73889
-0.863875 0.723642 -0.681347
-0.830145 0.87968 0.701827
0.807621 0.12291 -0.607933
0.849254 0.13181 0.768533
0.863875 0.723634 -0.681347
0.830154 0.879671 0.701827
-1.54061 -0.300156 -3.17749
-1.54525 -0.194819 -2.06569
-1.57937 -0.171363 -0.661089
-1.60816 -0.174691 0.74888
-1.5593 -0.0668622 2.15383
-1.54445 0.0339781 3.26748
-1.55411 0.127324 4.37662
-1.55065 -0.0480249 -3.19616
-1.5572 0.0833927 -2.08418
-1.59834 0.142665 -0.679986
-1.61653 0.157992 0.72812
-1.52738 0.271078 2.13228
-1.52384 0.370746 3.24418
-1.5457 0.462094 4.35229
-1.58573 0.406895 -3.21589
-1.60663 0.532504 -2.09036
-1.66178 0.74205 -0.699469
-1.62557 0.866947 0.690434
-1.51264 0.945503 2.07967
-1.51916 1.03942 3.19082
-1.54967 1.13122 4.30027
-1.62748 1.24775 -3.26492
-1.64219 1.39624 -2.14844
-1.66435 1.63079 -0.761363
-1.65968 1.83322 0.620949
-1.62844 1.96508 2.00428
-1.61128 2.04974 3.11298
-1.61021 2.13319 4.22305
-0.739861 -0.294891 -3.15807
-0.737006 -0.183967 -2.04663
-0.765111 -0.17968 -0.64446
-0.812093 -0.193988 0.760832
-0.784192 -0.0596037 2.16306
-0.772175 0.0395155 3.27535
-0.779046 0.129209 4.3841
-0.748652 -0.0520034 -3.18011
-0.755702 0.378664 3.25122
-0.773648 0.464842 4.359
-0.78077 0.373524 -3.20294
-0.751081 1.04178 3.19546
-0.778452 1.13307 4.30572
-0.815056 1.22323 -3.25286
-0.823954 1.3724 -2.13738
-0.84643 1.62283 -0.752512
-0.856337 1.83848 0.627424
-0.842494 1.97051 2.00936
-0.830135 2.05299 3.11808
-0.828737 2.13532 4.22879
0.834202 -0.300145 -3.10063
0.823637 -0.190203 -1.97536
0.831159 -0.180202 -0.591057
0.829882 -0.193559 0.790381
0.752399 -0.0594633 2.17312
0.754443 0.0395757 3.28493
0.761883 0.129215 4.3961
0.819253 -0.0575477 -3.1248
0.745335 0.378705 3.25744
0.755838 0.464855 4.36928
0.803431 0.370868 -3.17559
0.731343 1.04179 3.20046
0.744943 1.13307 4.31486
0.804998 1.22179 -3.23192
0.808813 1.37141 -2.12102
0.79998 1.62232 -0.739545
0.765224 1.83827 0.638127
0.731396 1.97041 2.01894
0.726312 2.05291 3.12831
0.728557 2.13522 4.24045
1.63008 -0.308791 -3.07525
1.62305 -0.203543 -1.95196
1.63793 -0.173356 -0.570782
1.63735 -0.174289 0.803907
1.55829 -0.0665729 2.18213
1.53881 0.0340885 3.29135
1.54256 0.127305 4.40277
1.61594 -0.0569447 -3.09894
1.60916 0.0732158 -1.97194
1.63237 0.140954 -0.59419
1.64234 0.158612 0.777623
1.54281 0.271377 2.15341
1.52402 0.370861 3.26298
1.53266 0.462096 4.37541
1.60653 0.401363 -3.15466
1.61123 0.527985 -2.04177
1.66158 0.740657 -0.661925
1.62965 0.867099 0.714416
1.51814 0.945654 2.09421
1.50652 1.03947 3.20643
1.51941 1.13119 4.32103
1.61377 1.24479 -3.22052
1.62029 1.39407 -2.11157
1.61672 1.6296 -0.731292
1.57879 1.83272 0.645795
1.53119 1.96484 2.02622
1.51528 2.04954 3.13545
1.51363 2.13295 4.24771
-0.76361 0.275 -2.07254
0.03 0.0853642 -2.0335
-0.767381 0.0962204 -1.37028
-0.736106 0.619651 2.1303
-7.51019e-06 0.278744 2.16126
-0.803596 0.194413 1.44195
0 0.535588 -2.14511
-0.875754 0.640637 -1.37293
0 0.998843 2.13955
-0.801867 0.946286 1.39341
0.794465 0.27 -2.02893
0.827265 0.0780013 -1.29617
0.736316 0.619638 2.13052
0.811175 0.195154 1.45677
0.875779 0.640658 -1.37293
0.801876 0.946272 1.39341
-0.80509 0.125715 0.035835
-0.879727 0.422923 -0.674283
0.0163107 0.114432 -0.637577
-0.884822 0.50541 0.720359
0.00799352 0.125167 0.753712
-0.849216 0.803868 0.0102401
3.5298e-07 1.03847 -0.681347
4.59927e-06 1.34929 0.701827
0.828057 0.12774 0.0803
0.879545 0.423272 -0.64464
0.884972 0.50574 0.73518
0.849182 0.80382 0.0102401
-0.877079 0.348961 -1.3716
-0.882744 0.464166 0.0230376
-0.896185 0.562531 1.41768
0.0231554 0.0833301 -1.33322
0.0121521 0.119807 0.0580675
0.00399301 0.165753 1.44936
0.015 0.2725 -2.16957
-3.75509e-06 0.619644 2.22257
1.7649e-07 0.832101 -1.37293
2.47613e-06 1.33649 0.0102401
2.29964e-06 1.20284 1.39341
0.876695 0.346636 -1.33455
0.882783 0.464506 0.04527
0.897005 0.562689 1.42509
-1.1461 0.0891963 -2.07875
-0.736003 -0.0444836 -2.05998
-0.741826 0.0214983 -2.62672
-1.13199 0.283039 2.13864
-0.760401 0.117698 2.15403
-0.746156 0.336832 2.69811
-1.19582 0.493752 -2.07744
-0.782885 0.414262 -2.63373
-0.804477 0.913699 -2.10095
-1.10882 0.944903 2.08233
-0.728041 0.993041 2.64023
-0.773747 1.45741 2.04718
0.809319 -0.0526013 -1.97988
0.807126 0.0137261 -2.5546
1.20208 0.0791079 -1.97817
0.744497 0.117768 2.15906
0.740965 0.336852 2.70122
1.1397 0.283189 2.14921
0.794216 0.412934 -2.62005
0.796906 0.913207 -2.09277
1.19812 0.491492 -2.05314
0.718172 0.993033 2.64273
0.718198 1.45734 2.05197
1.11157 0.944965 2.08961
-1.18667 0.132434 -0.673603
-0.770055 -0.0287383 -0.65584
-1.2249 0.144566 0.733505
-0.82268 -0.0314241 0.749861
-1.26283 0.732846 -0.690408
-0.855152 1.17324 -0.716929
-1.22786 0.873313 0.696131
-0.843241 1.35908 0.664625
0.81939 -0.0286459 -0.599495
1.22 0.131932 -0.601062
0.839568 -0.0308747 0.779457
1.2458 0.145211 0.773078
0.831928 1.17297 -0.710446
1.26273 0.732146 -0.671636
0.797689 1.35897 0.669977
1.2299 0.873385 0.708122
-1.54293 -0.247487 -2.62159
-1.54563 -0.17409 -3.18682
-1.14023 -0.297524 -3.16778
-1.56231 -0.183091 -1.36339
-1.55123 -0.055713 -2.07493
-1.14113 -0.189393 -2.05616
-1.59377 -0.173027 0.0438956
-1.58886 -0.0143488 -0.670538
-1.17224 -0.175522 -0.652774
-1.58373 -0.120776 1.45135
-1.61235 -0.00834958 0.7385
-1.21013 -0.184339 0.754856
-1.55187 -0.0164421 2.71065
-1.54334 0.102108 2.14305
-1.17175 -0.063233 2.15845
-1.54928 0.080651 3.82205
-1.53414 0.202362 3.25583
-1.15831 0.0367468 3.27141
-1.5499 0.294709 4.36445
-1.16658 0.128266 4.38036
-1.55393 0.0176839 -2.64017
-1.56819 0.179435 -3.20602
-1.14965 -0.0500141 -3.18813
-1.57777 0.113029 -1.38208
-1.58192 0.307948 -2.08727
-1.60744 0.150328 0.0240666
-1.63006 0.442358 -0.689727
-1.57195 0.214535 1.4302
-1.62105 0.512469 0.709277
-1.52561 0.320912 2.68823
-1.52001 0.608291 2.10597
-1.53477 0.41642 3.79824
-1.5215 0.705083 3.2175
-1.13977 0.374705 3.2477
-1.54768 0.796657 4.32628
-1.15967 0.463468 4.35564
-1.59618 0.4697 -2.65312
-1.6066 0.827324 -3.2404
-1.18325 0.39021 -3.20941
-1.63421 0.637277 -1.39491
-1.62441 0.964372 -2.1194
-1.64368 0.804498 -0.00451703
-1.66307 1.18642 -0.730416
-1.5691 0.906225 1.38505
-1.64263 1.35008 0.655692
-1.5159 0.992462 2.63524
-1.57054 1.45529 2.04197
-1.53441 1.08532 3.74554
-1.56522 1.54458 3.1519
-1.13512 1.0406 3.19314
-1.57994 1.6322 4.26166
-1.16406 1.13215 4.30299
-1.63483 1.322 -2.70668
-1.22127 1.23549 -3.25889
-1.65327 1.51351 -1.4549
-1.23307 1.38432 -2.14291
-1.66202 1.732 -0.0702068
-1.25539 1.62681 -0.756937
-1.64406 1.89915 1.31262
-1.25801 1.83585 0.624186
-1.61986 2.00741 2.55863
-1.23547 1.96779 2.00682
-1.61075 2.09146 3.66802
-1.22071 2.05136 3.11553
-1.21948 2.13425 4.22592
-0.738434 -0.239429 -2.60235
-0.744257 -0.173447 -3.16909
0.0471707 -0.297518 -3.12935
-0.751058 -0.181824 -1.34555
0.0433157 -0.187085 -2.01099
-0.788602 -0.186834 0.0581861
0.0330241 -0.179941 -0.617758
-0.798142 -0.126796 1.46195
0.00889461 -0.193774 0.775607
-0.778183 -0.0100441 2.71921
-0.0158967 -0.0595335 2.16809
-0.775611 0.0843622 3.82973
-0.763939 0.20909 3.26329
-0.00886589 0.0395456 3.28014
-0.776347 0.297025 4.37155
-0.00858184 0.129212 4.3901
-0.764711 0.16076 -3.19153
0.0353004 -0.0547756 -3.15246
-0.764675 0.421753 3.80511
-0.753392 0.710222 3.22334
-0.00518371 0.378684 3.25433
-0.77605 0.798957 4.33236
-0.0089046 0.464848 4.36414
-0.797913 0.798377 -3.2279
0.0113306 0.372196 -3.18927
-0.764767 1.08743 3.75059
-0.790608 1.54738 3.15677
-0.00986898 1.04179 3.19796
-0.803595 1.6342 4.26725
-0.0167548 1.13307 4.31029
-0.819505 1.29781 -2.69512
-0.00502903 1.22251 -3.24239
-0.835192 1.49761 -1.44495
-0.00757049 1.37191 -2.1292
-0.851383 1.73065 -0.0625443
-0.023225 1.62257 -0.746029
-0.849415 1.90449 1.31839
-0.0455561 1.83837 0.632775
-0.836314 2.01175 2.56372
-0.0555487 1.97046 2.01415
-0.829436 2.09416 3.67343
-0.0519114 2.05295 3.1232
-0.0500903 2.13527 4.23462
0.82892 -0.245174 -2.53799
0.826728 -0.178846 -3.11271
1.23214 -0.304468 -3.08794
0.827398 -0.185202 -1.28321
1.22334 -0.196873 -1.96366
0.830521 -0.186881 0.0996624
1.23454 -0.176779 -0.580919
0.79114 -0.126511 1.48175
1.23362 -0.183924 0.797144
0.753421 -0.00994378 2.72902
1.15535 -0.0630181 2.17762
0.758163 0.0843955 3.84051
0.749889 0.20914 3.27118
1.14662 0.0368321 3.28814
0.758861 0.297035 4.38269
1.15222 0.12826 4.39943
0.811342 0.15666 -3.15019
1.21759 -0.0572462 -3.11187
0.750587 0.42178 3.81336
0.738339 0.710248 3.22895
1.13468 0.374783 3.26021
0.750391 0.798961 4.34207
1.14425 0.463475 4.37235
0.804214 0.796331 -3.20375
1.20498 0.386115 -3.16512
0.738143 1.08743 3.75766
0.728828 1.54735 3.16439
1.11893 1.04063 3.20344
0.73675 1.63414 4.27766
1.13217 1.13213 4.31794
0.806905 1.2966 -2.67647
1.20938 1.23329 -3.22622
0.804396 1.49686 -1.43028
1.21455 1.38274 -2.11629
0.782602 1.73029 -0.0507089
1.20835 1.62596 -0.735419
0.74831 1.90434 1.32853
1.17201 1.83549 0.641961
0.728854 2.01166 2.57363
1.13129 1.96763 2.02258
0.727434 2.09407 3.68438
1.1208 2.05122 3.13188
1.12109 2.13409 4.24408
1.62656 -0.256167 -2.5136
1.62301 -0.182868 -3.08709
1.63049 -0.188449 -1.26137
1.6161 -0.0651635 -1.96195
1.63764 -0.173822 0.116562
1.63515 -0.016201 -0.582486
1.59782 -0.120431 1.49302
1.63985 -0.00783868 0.790765
1.54855 -0.0162422 2.73674
1.55055 0.102402 2.16777
1.54068 0.0806966 3.84706
1.53141 0.202475 3.27717
1.53761 0.2947 4.38909
1.61255 0.00813553 -2.53544
1.61123 0.172209 -3.1268
1.62076 0.107085 -1.28306
1.61019 0.3006 -2.00685
1.63736 0.149783 0.0917165
1.64698 0.440806 -0.628058
1.59258 0.214994 1.46552
1.636 0.512855 0.74602
1.53342 0.321119 2.7082
1.53048 0.608516 2.12381
1.52834 0.416479 3.8192
1.51527 0.705168 3.2347
1.52603 0.796643 4.34822
1.60888 0.464674 -2.59821
1.61015 0.823076 -3.18759
1.63641 0.634321 -1.35185
[...]
POINT_DATA 29498
VECTORS point_vectors float
-0.33353 -0.634357 1.50137
0.0622964 0.046697 0.136496
-1.82909 0.466406 2.64803
-0.108484 -0.254933 0.27984
3.05207 -5.08945 12.0108
-0.0606574 0.0307269 0.117964
1.89623 0.481569 2.75257
0.115127 -0.238437 0.246402
0.000744163 0.0005555 0.0282404
0.0141996 -0.00190369 0.401075
-0.0151293 -0.0282026 0.268285
0.0166884 0.0417982 0.169749
-0.00321626 0.000660693 0.0722428
-0.060421 -0.0438841 1.8102
0.0151308 -0.0286364 0.269328
-0.0169367 0.0422993 0.170512
-0.566153 -0.28538 19.8814
-1.21696 -0.702434 20.544
-0.373736 -0.492578 21.3714
0.152656 -0.234769 21.5762
0.746972 0.0146388 21.5062
1.06095 0.0849002 21.2365
1.0432 -0.204848 20.8214
-0.65784 -0.228817 19.8162
-1.52648 -0.573717 20.4553
-0.594594 -0.58076 21.4029
0.0611187 -0.369871 21.6081
0.881763 -0.234848 21.6256
1.21612 -0.215114 21.1055
1.1651 -0.351888 21.0914
-0.698587 -0.0327656 19.7184
-1.69618 -0.101994 20.3483
-1.11357 -0.408135 21.3272
-0.372357 -0.41807 21.6741
0.425159 -0.614434 21.5981
0.780595 -0.744302 21.2184
0.533946 -0.415222 21.2409
-0.522635 0.238528 19.8471
-1.01412 0.496015 20.2136
-1.03483 0.35002 21.0213
-0.465601 0.0293683 21.4819
-0.0114416 -0.270171 21.4244
0.224968 -0.427175 21.32
0.28242 -0.574839 20.6434
-0.594807 -0.705306 19.3251
-1.753 -3.56799 21.2699
0.138535 -0.092375 20.2705
0.427839 0.252561 20.5131
0.956935 1.3813 17.7963
1.61515 1.61797 16.5959
1.59935 1.00702 16.6378
-0.709255 -0.548953 19.0518
1.99026 1.1036 10.2042
2.15832 0.637593 14.0017
-0.835888 -0.0713289 18.8447
0.563419 -1.10758 10.1193
1.07022 -1.17215 16.4324
-0.541509 0.504453 19.3616
-1.43361 1.7625 19.6656
-1.82251 1.72383 20.8938
-0.703246 0.437913 21.9815
-0.128641 -0.276539 21.4985
0.0569262 -0.552153 21.2203
-0.0210269 -0.417561 21.1391
0.658339 -0.697952 19.3798
1.72277 -3.02787 21.3963
-0.151844 -0.215857 20.8156
-0.439492 0.233433 20.4662
-0.831973 1.30744 17.1181
-1.57458 1.54862 16.1447
-1.57737 0.987604 16.0964
0.791254 -0.575759 19.099
-1.90259 0.981031 9.63215
-2.11943 0.644584 13.1631
0.870979 -0.0945523 18.8392
-0.502458 -1.01735 9.13045
-0.986714 -1.09813 15.3123
0.553855 0.525417 19.3407
1.44518 1.81144 19.6647
1.84394 1.85486 20.867
0.68323 0.511376 22.0383
0.130246 -0.242782 21.4966
-0.0490139 -0.517858 21.2844
-0.0271856 -0.407029 21.3605
0.591858 -0.29031 19.9485
1.11612 -0.652932 20.6369
0.339403 -0.464171 21.3369
-0.156549 -0.240511 21.5623
-0.731736 0.00447489 21.4965
-1.05162 0.0594 21.2499
-1.03732 -0.219774 20.8547
0.692097 -0.240081 19.8535
1.42814 -0.575859 20.5774
0.531642 -0.529002 21.3812
-0.0777568 -0.347155 21.5964
-0.83931 -0.243943 21.6113
-1.17894 -0.246002 21.1396
-1.17686 -0.379033 21.1161
0.721579 -0.0300456 19.7414
1.7231 -0.108438 20.3852
1.08759 -0.418541 21.3378
0.353961 -0.417937 21.664
-0.401197 -0.592876 21.5669
-0.741461 -0.734333 21.2761
-0.537736 -0.433554 21.1501
0.552028 0.245739 19.8428
1.05288 0.509594 20.2223
1.07854 0.378467 21.0442
0.486925 0.0295446 21.5088
0.0166353 -0.278621 21.407
-0.215968 -0.420315 21.3884
-0.264816 -0.617451 20.6628
-3.24141 -0.782487 3.53096
-0.00668003 -0.0229641 0.186175
0.00714327 0.00384987 0.396162
0 0 0
-0.00282996 0.00353129 0.009614
0.0164382 0.012643 0.409359
0 0 0
-0.304107 -0.331619 1.65563
-0.0249447 0.0516117 -0.109361
0.0405407 0.0398735 0.379589
1.3238 -0.359386 2.04727
-0.0549656 0.0197521 1.62502
0 0 0
-0.0158045 0.016082 0.549832
0.309768 -0.334754 1.64703
-0.0417679 0.0414343 0.372953
0.00152664 0.00137493 0.139231
0.000213219 -0.00107049 0.0598786
0 0 0
0 0 0
-0.000175256 0.000193198 0.0246504
0.0126254 0.0407146 0.296099
-8.14978e-05 0.047423 0.108874
-9.70724e-06 -0.000246611 0.00416676
-0.00257956 -8.24409e-05 0.0989219
-0.00037433 0.00165877 0.0713159
0 0 0
-0.0125098 0.0404509 0.294072
0 0 0
-0.000599186 0.0120342 0.114775
1.34403e-05 0.000146408 0.00199456
-1.07248e-06 2.8267e-06 0.000291194
-2.38771e-07 5.8811e-07 6.61903e-05
0 0 0
0.00961275 -0.0253696 0.00636313
0 0 0
-8.00344e-06 0.00294625 0.0152179
-6.27842e-05 0.0290519 0.174869
-1.49745e-06 8.85915e-06 -2.6145e-05
0 0 0
0.00065318 0.0126733 0.12191
-0.000148716 0.00168162 0.022131
-3.07209 -1.6674 20.4269
-2.82265 -5.91285 22.1158
-1.99338 -1.78204 18.0172
1.51353 0.0747772 18.8825
0.722886 1.44412 10.4057
1.24181 0.736297 6.4614
-3.53543 -0.0268411 20.069
-2.48953 -0.00558184 17.2398
-3.3517 2.94312 19.0134
0.608879 -0.805466 19.3243
-0.428945 -0.962433 5.51238
-0.0973705 -0.509202 19.7727
2.57764 -4.7914 22.1515
2.21238 -1.8717 18.2208
2.73122 -1.44933 20.7927
-0.6304 1.32369 9.58841
-1.16692 0.455454 6.0554
-1.45267 0.0213106 19.0364
2.56691 -0.0248619 17.2487
3.37183 3.0209 19.0205
3.5395 -0.0494883 20.1374
0.562894 -0.877184 4.90758
0.0292918 -0.441948 18.9898
-0.551552 -0.772045 19.2089
-0.345329 -1.01996 21.4527
0.339626 0.140628 13.5632
0.299377 -0.506691 21.0834
0.452197 0.215796 15.0527
-1.77438 -0.927442 21.6682
-3.98654 1.51727 21.0145
-0.594258 -0.7378 21.4553
-1.08123 0.133426 21.3366
-0.353303 0.0652508 13.9029
0.339832 -0.953717 21.5998
-0.489622 0.189195 15.0596
-0.289631 -0.51599 21.2917
4.1257 1.66783 20.9136
1.74765 -0.939396 21.684
0.939304 0.24617 20.4867
0.580273 -0.727628 21.4572
-0.949228 -0.512541 20.0384
-0.610794 -0.258869 19.8443
-0.627468 -0.466165 19.6338
-0.819645 -0.620471 21.1861
-1.38528 -0.654165 20.5068
-1.77602 -1.6248 20.6821
-0.0893309 -0.355672 21.4918
-0.493175 -0.555323 21.3829
-0.128046 -0.652663 21.6283
0.435175 -0.111643 21.6192
0.105196 -0.315493 21.5887
0.338466 -0.221103 21.6089
0.949397 0.0557015 21.2856
0.826366 -0.102422 21.5433
1.18844 0.376536 21.3289
1.05256 -0.0480505 21.0218
1.17259 -0.0278089 21.1724
1.56508 0.466164 20.8941
1.15494 -0.308899 20.9313
1.3138 0.279253 21.1385
-1.12817 -0.418874 19.9336
-0.680617 -0.141424 19.753
-0.7442 -0.380379 19.4697
-1.11197 -0.636347 21.1964
-1.72007 -0.360009 20.403
-0.240637 -0.485433 21.5185
-0.884993 -0.553367 21.382
0.407389 -0.297687 21.7138
-0.14083 -0.471768 21.675
1.10326 -0.237144 21.408
0.703761 -0.516841 21.6384
1.17955 -0.379195 21.2267
1.04608 -0.500838 21.16
1.88225 -0.121516 19.089
0.843976 -0.541244 21.2622
1.70227 -0.215594 18.7942
-1.22816 -0.0405015 19.834
-0.618341 0.1257 19.7703
-0.842735 -0.0439726 19.3352
-1.49305 -0.253535 21.0313
-1.42596 0.355984 20.228
-0.76596 -0.444519 21.5707
-1.24119 0.0446983 21.1728
0.0249797 -0.468608 21.7122
-0.510828 -0.159022 21.6085
0.601918 -0.665974 21.4016
0.0945291 -0.445255 21.4592
0.767413 -0.659326 21.0201
0.359471 -0.567963 21.1652
0.972139 -0.899224 19.9966
0.340763 -0.577821 20.9256
1.1236 -1.19302 19.3105
-0.78569 0.386687 19.9482
-0.578887 0.354404 19.595
-1.09149 0.478545 20.6394
-1.31804 0.93093 20.0021
-0.798796 0.201323 21.3345
-1.46338 0.7627 21.0368
-0.191257 -0.142457 21.466
-0.619146 0.173627 21.6795
0.0840917 -0.39128 21.2298
-0.0896727 -0.324312 21.4478
0.14784 -0.345297 21.1533
0.149844 -0.480693 21.1077
0.0349249 -0.404353 21.1597
-1.30126 -1.83351 19.093
-0.660855 -0.646899 19.1594
0.0390103 -1.00353 18.967
-0.330241 -0.911305 22.1417
0.068214 -4.14577 22.9224
0.28053 0.0358466 20.3472
-0.0137461 -0.0880005 18.308
0.652444 0.660308 18.9529
-0.0199166 0.230929 18.0243
1.25763 1.61307 17.6254
-0.128943 0.988977 13.9241
1.48927 1.31227 17.2324
1.95562 1.79571 13.563
-0.085755 1.76013 13.3107
1.90097 1.04957 14.6346
0.00615072 2.15775 14.5625
-0.780257 -0.375133 18.9188
0.0262542 -0.826158 18.4961
2.19961 0.709089 12.286
1.73201 -0.627324 6.67698
0.0594712 1.0389 1.67541
1.89987 -0.105639 13.9407
0.148348 2.0926 7.30883
-0.699823 0.32235 18.9965
0.0140042 -0.141009 18.1442
0.913296 -0.945271 13.1887
0.158877 -1.00305 20.6217
0.29232 1.58275 -6.99362
0.0422511 -1.01465 20.0482
0.273948 0.627487 -1.0657
-0.968704 1.08978 19.2463
-0.00464239 0.714084 19.0047
-1.62401 1.73958 20.3807
-0.0189069 2.89626 19.2286
-1.49706 1.23963 21.7977
-0.0822253 3.58708 20.3095
-0.285371 -0.0565387 21.7595
-0.069052 1.00728 22.4223
-0.0469565 -0.408136 21.3911
-0.0540962 -0.0632183 21.7201
0.0764799 -0.642593 21.304
-0.0193382 -0.473019 21.1274
-0.0300902 -0.220846 21.7547
1.41316 -1.79546 19.314
0.725352 -0.660613 19.2711
0.678674 -0.466946 19.7294
0.349713 -0.980133 22.1911
1.61821 -1.39814 20.8346
-0.291701 -0.012499 20.395
0.161366 -0.607251 21.5921
-0.624811 0.625938 18.6153
-0.335698 -0.220062 21.6278
-1.16313 1.53585 17.0628
-1.18626 0.37106 21.2007
-1.48455 1.29803 16.8952
-1.92141 1.67551 13.0698
-1.57256 0.489697 20.832
-1.86947 1.05749 13.8256
-1.36486 0.311698 21.2254
0.842037 -0.380817 18.9216
0.818399 -0.388334 19.5327
-2.18905 0.615039 11.573
-1.59594 -0.66801 5.98561
-1.83465 -0.11798 18.9092
-1.79186 -0.106234 12.9077
-1.70212 -0.143679 18.3508
0.729861 0.336884 18.9819
0.885784 -0.0552763 19.3493
-0.782994 -0.905408 11.9318
-0.0964484 -0.936692 20.192
-0.927115 -0.903997 19.7583
-0.0354346 -1.03005 19.5624
-1.09212 -1.24521 19.2596
0.982537 1.13253 19.2322
0.599807 0.375367 19.5878
1.61029 1.81495 20.3648
1.34865 0.967655 20.0151
1.51839 1.41877 21.8539
1.50648 0.848444 21.0485
0.260422 -0.0394172 21.7627
0.619668 0.201803 21.7436
0.0617562 -0.360822 21.4237
0.0785631 -0.294533 21.4531
-0.0565481 -0.622161 21.2736
-0.133456 -0.459918 21.0165
0.0332739 -0.380071 21.3932
0.922054 -0.486587 20.1585
0.642664 -0.265424 19.901
0.738766 -0.581264 21.1991
1.30299 -0.614401 20.5984
0.0845677 -0.349236 21.4882
0.43187 -0.515036 21.3635
-0.43585 -0.117821 21.5999
-0.114952 -0.303506 21.5781
-0.928016 0.0543317 21.3037
-0.793663 -0.107171 21.531
-1.07526 -0.0873766 20.9893
-1.13585 -0.0504335 21.1615
-1.16872 -0.325398 20.972
1.15095 -0.435034 20.017
0.714612 -0.157621 19.7981
0.993372 -0.593402 21.2145
1.6641 -0.362735 20.4752
0.213766 -0.465412 21.5098
0.816021 -0.531848 21.3921
-0.414292 -0.296995 21.6853
0.123619 -0.458091 21.66
-1.05841 -0.249783 21.4163
-0.659288 -0.496509 21.626
-1.18021 -0.369513 21.2377
-1.02755 -0.514783 21.1655
-0.843273 -0.524732 21.2247
1.26139 -0.0449986 19.8479
0.661295 0.126503 19.7674
1.45823 -0.269393 21.059
1.46502 0.351442 20.2555
0.745377 -0.443421 21.5681
1.25643 0.0298215 21.1913
-0.0298231 -0.46528 21.6911
0.509639 -0.170709 21.6285
-0.577426 -0.668452 21.3836
-0.0961703 -0.457913 21.4545
-0.70218 -0.658278 21.068
-0.338906 -0.554974 21.2631
-0.363009 -0.584917 20.9926
0.819625 0.399395 19.9545
1.11577 0.495753 20.6581
0.836528 0.221493 21.3669
0.204237 -0.142155 21.4778
-0.0764035 -0.373165 21.2375
-0.157808 -0.394846 21.1069
-1.05558 -0.463111 19.9822
-1.63244 -1.91722 18.5802
-1.22661 -0.996924 19.6892
-1.63542 -0.853106 19.3134
-0.694611 -0.429988 19.5353
-2.38249 -1.73746 20.572
-0.985181 -0.647063 21.1942
-0.0344405 -0.264055 15.6653
-0.756407 -1.06278 21.6153
-1.35916 -1.34606 21.9512
-0.187617 -0.843213 21.5953
-0.161391 -0.43984 21.4965
0.329127 0.111315 14.1101
0.111104 -0.429881 21.5851
0.0175277 -0.727735 21.0551
0.353936 -0.350995 21.4412
0.416411 -0.186718 21.6498
0.585888 0.528244 12.2745
0.70636 0.0320368 21.5934
0.682223 -0.281543 20.2123
1.44287 0.266686 20.4415
1.07376 -0.0448593 21.397
1.24555 1.45393 12.206
1.41699 0.513228 20.8175
1.81965 -0.00637655 19.6756
1.6713 0.319886 20.0296
1.14613 -0.279113 21.071
1.94621 1.06693 13.2127
1.72109 0.447627 20.4609
2.09188 -0.14442 18.9463
1.44443 0.193796 19.437
-1.25371 -0.245707 19.8555
-2.44952 -1.04048 17.3136
-1.87685 -0.0541893 19.0961
-0.805145 -0.268902 19.3967
-3.66637 -0.877385 20.2196
-1.35715 -0.46323 21.1262
-2.39741 -0.595317 21.4538
-0.935971 -1.23624 21.741
-0.490534 -0.550978 21.5556
-1.19142 -0.949024 21.8048
-0.00544611 -0.730073 20.8277
0.24638 -0.45206 21.7558
-0.000942053 -0.541345 20.5577
1.23825 -0.366957 17.6651
0.916786 -0.539778 21.473
0.420793 -0.790611 3.73055
0.71532 -0.97248 20.0713
1.57197 -0.652495 18.7046
0.942343 -0.59333 21.4021
1.84375 -0.176067 9.42443
0.922658 -1.09216 20.2935
1.4699 -0.962848 18.7057
-1.04274 0.254092 19.8571
-1.68043 1.14553 18.3137
-0.944021 0.660315 19.6644
-0.731158 0.240717 19.4449
-2.32159 0.937689 19.8527
-1.44598 0.229507 20.7854
-3.23024 1.92724 20.6586
-1.47829 0.925151 20.5638
-2.12505 0.233343 21.2829
-0.937448 -0.0815381 21.4911
-3.04791 0.395329 22.0489
-1.15368 0.53312 21.5263
-0.794971 -0.121349 21.9314
-0.146673 -0.30099 21.5939
-0.11166 -0.266567 20.301
-0.263006 -0.126992 21.6167
-0.0250134 -0.592505 21.6449
0.251885 -0.533409 21.3623
-0.0888153 -0.727936 20.7357
0.0227571 -0.4137 21.3426
0.269923 -0.793461 21.4534
0.401211 -0.551606 21.0725
0.228736 -1.03878 20.1818
0.122234 -0.482736 21.416
0.167312 -0.596912 21.4684
1.80124 -1.95138 18.8408
0.10633 -3.10675 18.5147
0.128723 -3.54974 16.1135
0.0317122 -0.934331 18.73
0.0537065 -3.82078 21.3299
0.0148115 -0.55104 16.9555
-0.00795533 -0.823906 20.7916
0.00692167 0.106025 8.87219
-0.33956 0.0674126 14.2795
-0.0126045 0.0354776 17.9141
-0.0244202 0.180292 10.1827
-0.547546 0.512898 11.9249
-0.0597336 0.559303 15.7972
-0.155816 0.65083 5.46148
-1.16791 1.27496 11.372
-0.14737 1.14582 13.5122
-0.107474 -0.335594 0.348381
-0.0805664 1.82063 7.03408
-1.92205 0.984073 12.7534
-0.028488 2.1407 13.2331
0.161362 1.32857 2.73206
0.0453543 2.02545 11.6912
2.64498 -1.08082 17.3383
0.0391402 0.393941 14.2627
0.0301528 -0.52426 18.2425
-0.193861 -0.837016 3.43472
0.13223 1.40953 -5.62757
0.309435 0.558606 -3.60985
-1.61969 -0.216495 8.5086
0.212097 0.881006 -4.44077
0.301837 1.34541 -0.354779
1.73514 1.18662 18.2772
-0.010187 1.74215 18.6974
0.00353231 0.535744 18.4837
-0.0181591 5.97481 17.9643
3.25464 2.02166 20.652
-0.0546417 2.97948 19.9891
-0.0856754 5.3909 17.6485
3.16935 0.396705 21.6683
-0.117443 3.16235 22.2387
-0.0138299 0.238177 12.1784
-0.0289852 -0.221662 19.4431
-0.0479927 0.147381 21.9108
-0.126072 0.0351227 10.4856
0.107416 -0.603962 19.6746
-0.0499584 -0.210875 21.5395
-0.143759 -0.51265 14.8435
-0.195935 -0.970827 19.7752
-0.0358165 -0.4812 21.6479
-0.111122 -0.786576 16.2897
1.04561 -0.462441 20.0855
1.25714 -0.959694 19.8784
1.74093 -0.880749 19.4712
0.748579 -0.436523 19.6264
2.08307 -1.4939 20.7997
0.880369 -0.601547 21.2117
0.723126 -0.94363 21.5627
1.16396 -1.15939 21.7951
0.229902 -0.771958 21.6489
0.148784 -0.420045 21.4922
-0.096468 -0.411501 21.593
-0.00958856 -0.715983 21.3971
-0.340768 -0.351373 21.5667
-0.416479 -0.185395 21.6348
-0.698991 0.0233924 21.5627
-0.683649 -0.303131 20.4649
-1.40294 0.23418 20.3571
-1.02933 -0.0649812 21.3885
-1.40587 0.513686 20.7188
-1.73453 -0.0418148 19.5846
-1.63626 0.339472 19.7633
-1.15346 -0.295391 21.0811
-1.69576 0.472899 20.5147
-2.07545 -0.152391 18.827
-1.4524 0.264759 19.0337
1.25356 -0.265638 19.9203
1.95339 -0.0709707 19.1229
0.863718 -0.278381 19.4373
3.41614 -0.878621 20.4677
1.28179 -0.46723 21.1574
2.34579 -0.609142 21.4566
0.890847 -1.18752 21.7501
0.461876 -0.530584 21.5585
1.16486 -0.942179 21.7889
0.0104107 -0.729287 20.984
-0.259343 -0.439793 21.7355
-0.00638346 -0.532314 20.5582
-1.17471 -0.379254 17.755
-0.869854 -0.538297 21.4889
-0.643104 -0.923329 19.9919
-1.53353 -0.685523 18.1873
-0.909735 -0.57091 21.4344
-0.955027 -1.13313 19.9893
-1.45359 -0.895549 18.4207
1.08834 0.255533 19.8696
0.976881 0.697904 19.6542
0.767359 0.244585 19.4367
2.37529 0.962381 19.8949
1.46748 0.211641 20.816
1.5138 0.975208 20.5747
2.20482 0.246814 21.3062
0.953092 -0.0912353 21.5153
1.20334 0.607431 21.5744
0.813823 -0.104573 21.9676
0.157157 -0.311788 21.5986
0.249702 -0.110283 21.6403
0.0575969 -0.572829 21.6403
-0.240634 -0.547775 21.3641
-0.0219243 -0.406752 21.332
-0.172344 -0.741378 21.6428
-0.430689 -0.612782 21.0761
-0.124503 -0.52398 21.4941
-0.109255 -0.655922 21.1953
-1.46015 -0.967264 19.5047
-0.96474 -1.23738 21.7685
0.0946388 -0.581425 21.447
0.768603 -0.1368 21.0735
1.73728 0.301545 20.4198
1.9625 0.182004 19.5608
-1.84503 -0.495372 19.1329
-1.90298 -1.06972 21.8572
-0.377476 -1.02873 21.2286
0.391074 -0.392762 19.692
1.42541 -0.643522 18.796
1.42272 -0.545661 18.7915
-1.43145 0.551755 19.3352
-2.24063 0.602021 20.8208
-1.59917 0.019693 21.8182
-0.255541 -0.350594 21.8269
0.122466 -0.715172 21.4884
0.506892 -0.868145 20.992
0.125859 -3.53655 17.487
-0.0264028 -0.176661 11.2451
-0.00336102 0.0801991 9.38965
-0.107493 0.30969 7.83427
-0.148216 0.382557 5.50367
-0.00315201 1.4508 6.77241
0.089155 -1.89339 14.2905
0.0960874 0.108996 -3.27371
0.37909 1.06825 0.111171
0.00137881 2.15687 16.9142
-0.0399144 4.30983 19.7074
-0.0511667 2.75531 12.8235
-0.0100102 -0.204825 11.0711
-0.268902 0.0897993 12.7274
-0.124112 -0.754013 15.4195
1.4911 -0.944351 19.7091
0.907973 -1.05762 21.6614
-0.0702709 -0.557257 21.5797
-0.761389 -0.150227 21.1557
-1.68883 0.262876 20.2044
-1.91152 0.192222 19.5128
1.94004 -0.54594 19.2166
1.76414 -1.02704 21.8106
0.371386 -1.00296 21.3635
-0.395855 -0.414306 19.8624
-1.32669 -0.631862 18.6354
-1.38658 -0.531729 18.0517
1.47966 0.561555 19.3428
2.27839 0.60766 20.8408
1.65751 0.0231663 21.8701
0.260199 -0.345964 21.8404
-0.0671003 -0.68435 21.5122
-0.460255 -0.913026 21.0855
-0.674471 -0.313037 0.702659
-0.0296467 -0.0480432 0.377333
-0.00634002 0.000468793 0.101226
0.0124154 -0.0116703 0.0300043
-0.00886342 0.00913476 0.0256023
0.00405684 0.00909609 0.0747381
-2.30558 -0.010631 2.39576
-0.102806 0.254738 0.312675
-0.493878 -0.132593 1.60274
-0.0082008 -0.0766972 0.029646
-0.0800791 -0.00513962 -0.00330385
-0.00556197 -0.0141071 0.128227
0.00325862 -0.00190285 0.0650649
0.327849 -0.1675 0.530288
0.0122714 -0.0304105 0.403886
0 0 0
-0.0119464 -0.0146423 0.0285907
-0.00333728 0.0175381 0.140074
0.098774 0.244376 0.300143
1.46047 -0.0976137 2.21751
0.490295 -0.130151 1.59465
0.0600159 0.00606238 -0.0392755
0.0168091 -0.0843123 0.0216954
0.00419207 -0.0126688 0.127411
0.000981328 0.000564518 0.0152911
0.00268091 0.000602892 0.152863
0.000703599 -0.00196406 0.352494
0.000611311 8.1246e-05 0.00592751
0.0374147 0.0126096 0.481117
0.0185949 0.00243963 0.635447
0 0 0
0 0 0
-0.0801826 -0.0982728 0.379004
-0.000333684 -0.00135802 0.0262917
0.00251089 0.0303727 0.370006
-0.0486987 0.0251557 0.0724341
0.0243837 0.0521456 0.256579
0 0 0
0.032962 0.07032 0.298718
0.0880544 0.0119991 0.443554
-0.00475881 0.00200281 0.0334626
-0.0009587 0.000121383 0.0168225
-0.00538885 0.00099863 0.2163
9.9002e-05 0.00128914 0.203684
-0.0197158 0.0112394 0.278763
-0.00140346 0.000595361 0.0407111
-0.0110073 0.00373875 0.662744
0 0 0
0.0802643 -0.0984663 0.377664
0.0488117 0.0252968 0.0727536
0.0003102 -0.00131273 0.0242682
-0.00244892 0.0301697 0.36986
-0.0245907 0.0526303 0.256284
-0.0892305 0.0126511 0.442178
0 0 0
-0.0328706 0.0701737 0.296705
0 0 0
0 0 0
-0.000945586 -0.00378273 0.128978
0.0447637 -0.526664 -0.0505543
-2.61961e-18 -4.25607e-18 4.93638e-17
0 0 0
0.00742032 -0.00078655 0.0764853
0 0 0
-0.0017153 0.00405132 0.0498512
0 0 0
4.4297e-05 0.000731201 0.0147073
8.13457e-05 0.000119653 0.00286381
0.0884563 0.986053 1.52995
-7.06057e-05 0.0288787 0.110151
0 0 0
-0.0212221 0.0138633 0.0818214
-0.00849569 -0.00739593 -0.00209882
-0.000464907 0.00112515 -0.00351442
0.00685371 0.0236836 0.292884
-0.00103731 -0.000370512 0.00170314
0 0 0
0.039246 -0.0417045 0.319019
-0.000147705 0.000106907 0.00951981
0 0 0
0 0 0
-0.00777193 -0.00194007 0.0728493
0 0 0
-6.64513e-05 0.00169565 0.0307013
0.0210683 0.0138457 0.0816829
0 0 0
0.000822807 -0.000334034 0.00166066
-0.00244002 0.00396626 0.0535669
0 0 0
0.000112668 1.88417e-05 0.00212264
-9.67722e-05 -0.00290298 0.0246486
-0.000118044 0.00171929 0.0448996
0 0 0
-2.38371e-07 1.22519e-06 0.00012677
0 0 0
0 0 0
-4.30028e-05 8.41408e-05 0.00680108
-1.59081e-05 0.000145928 0.00329216
0.000235132 0.0017452 0.01186
-0.208492 0.176084 1.90721
0 0 0
-3.75026e-05 0.0431348 0.0890973
-8.5945e-05 0.00267105 0.101121
-0.000330975 -0.00148953 0.00857093
-0.00199936 0.000462778 0.0433693
0 0 0
-0.00430782 -0.0292283 0.231882
0.000153124 0.00229851 0.0452916
0 0 0
0 0 0
0.20785 0.17769 1.91042
-0.000224007 0.00165442 0.0112668
0 0 0
-0.0243355 -0.0319011 0.198419
0 0 0
0 0 0
0 0 0
0.000272173 0.00555997 0.0792542
0 0 0
0.000573017 0.00620893 0.0373194
0 0 0
0 0 0
0 0 0
0.0170286 -0.00870954 0.177321
-0.00181079 -0.00298239 0.0624748
0.000812907 -0.0015323 0.0416159
0 0 0