# vtk DataFile Version 2.0
tri_press
ASCII
DATASET UNSTRUCTURED_GRID
POINTS 3682 float
-0.735 0.375 -2.40444
-0.792357 0.285 2.355
-0.767075 0.655 -2.255
-0.795 0.796975 2.295
0.735 0.375 -2.40444
0.792352 0.285 2.355
0.76707 0.655 -2.255
0.795 0.796975 2.295
-0.813776 0.285343 -0.81796
-0.823367 0.264871 0.76852
-0.84223 0.768172 -0.738334
-0.850651 0.814609 0.778333
0.813742 0.285375 -0.81796
0.823375 0.26486 0.76852
0.842232 0.768177 -0.738334
0.850656 0.814616 0.778333
-1.55151 0.132279 -3.68073
-1.55601 0.137424 -2.4395
-1.61537 0.0655428 -0.851217
-1.63774 0.0192206 0.751119
-1.61894 0.020248 2.34059
-1.61303 0.0281661 3.58761
-1.61513 0.0354406 4.8239
-1.54838 0.332253 -3.6311
-1.5524 0.359452 -2.39751
-1.62777 0.306145 -0.822805
-1.64402 0.275682 0.75818
-1.61004 0.278589 2.33422
-1.60711 0.285879 3.58025
-1.61274 0.29203 4.81882
-1.56256 0.687179 -3.51227
-1.57718 0.711759 -2.27578
-1.65172 0.778086 -0.748674
-1.66535 0.806959 0.773488
-1.6184 0.798864 2.30193
-1.61254 0.802918 3.55085
-1.61731 0.807523 4.80068
-1.5908 1.33132 -3.3865
-1.60422 1.37439 -2.16047
-1.63638 1.4673 -0.655999
-1.65762 1.54364 0.833427
-1.65396 1.57102 2.33863
-1.64476 1.57509 3.56618
-1.63907 1.57615 4.80838
-0.759852 0.140338 -3.68523
-0.749134 0.148908 -2.44607
-0.799601 0.0559607 -0.850335
-0.821026 0.0101513 0.759944
-0.808819 0.0207963 2.35602
-0.80342 0.0284061 3.59807
-0.804595 0.0347847 4.82996
-0.757764 0.333598 -3.63249
-0.79714 0.287207 3.58889
-0.802209 0.291871 4.82339
-0.768486 0.664466 -3.50363
-0.800584 0.802994 3.54947
-0.80569 0.807679 4.80038
-0.784287 1.31429 -3.37796
-0.789881 1.35754 -2.15107
-0.813734 1.46187 -0.65033
-0.835183 1.54749 0.832747
-0.836952 1.57492 2.33377
-0.829666 1.57746 3.56133
-0.824552 1.57765 4.80486
0.781529 0.140343 -3.68523
0.781043 0.148916 -2.44607
0.817693 0.0559815 -0.850335
0.817047 0.0101485 0.759944
0.797894 0.0207946 2.35602
0.805003 0.0284058 3.59807
0.811022 0.0347854 4.82996
0.770037 0.333601 -3.63249
0.804997 0.287206 3.58888
0.811406 0.291871 4.82339
0.780065 0.664468 -3.50363
0.805107 0.802995 3.54947
0.810242 0.80768 4.80038
0.81656 1.31429 -3.37796
0.825908 1.35755 -2.15107
0.831409 1.46187 -0.65033
0.819479 1.5475 0.832747
0.803756 1.57492 2.33377
0.801957 1.57746 3.56133
0.804097 1.57766 4.80486
1.56557 0.132291 -3.68073
1.56876 0.137441 -2.4395
1.62188 0.0655723 -0.851217
1.63635 0.0192239 0.751119
1.61598 0.0202454 2.34059
1.61596 0.028166 3.58761
1.62125 0.035442 4.8239
1.55258 0.332262 -3.6311
1.54599 0.359464 -2.39751
1.62297 0.306178 -0.822805
1.64461 0.275683 0.75818
1.61381 0.278586 2.33422
1.61461 0.285879 3.58025
1.62096 0.292032 4.81882
1.56588 0.687186 -3.51227
1.57028 0.711766 -2.27578
1.6464 0.778104 -0.748674
1.66467 0.806969 0.773488
1.61998 0.798864 2.30193
1.61624 0.802919 3.55086
1.62085 0.807525 4.80068
1.61651 1.33133 -3.3865
1.63025 1.3744 -2.16047
1.64766 1.46731 -0.655999
1.64409 1.54365 0.833427
1.62684 1.57103 2.33863
1.6204 1.5751 3.56618
1.61981 1.57616 4.80838
-0.779278 0.515 -2.35796
0 0.339035 -2.4404
-0.809984 0.294575 -1.6112
-0.829748 0.540988 2.36107
-2.5034e-06 0.270582 2.36942
-0.861085 0.221712 1.56176
-2.5034e-06 0.724466 -2.32447
-0.830761 0.737694 -1.49667
0 0.839955 2.33798
-0.841665 0.824632 1.53667
0.77987 0.515 -2.35856
0.809984 0.294575 -1.6112
0.82976 0.540988 2.36108
0.861087 0.221707 1.56176
0.830756 0.737694 -1.49667
0.841661 0.824629 1.53667
-0.819141 0.274538 -0.02472
-0.87423 0.526757 -0.778147
-1.69556e-05 0.200791 -0.81796
-0.893418 0.53974 0.773427
4.02353e-06 0.200825 0.76852
-0.848219 0.793169 0.02
6.99196e-07 1.07163 -0.738334
2.48987e-06 1.33684 0.778333
0.819146 0.27453 -0.02472
0.874226 0.526776 -0.778147
0.893414 0.539738 0.773427
0.848218 0.793171 0.02
-0.849287 0.520879 -1.55393
0.849286 0.520888 -1.55393
-8.47782e-06 0.20218 -1.6112
-9.021e-07 0.857366 -1.49667
-1.2517e-06 0.515 -2.47729
-0.883839 0.533249 -0.00235999
0.883835 0.533257 -0.00235999
-6.46605e-06 0.200805 -0.02472
1.59453e-06 1.34308 0.02
-0.887419 0.540364 1.54921
0.887423 0.540363 1.54921
7.60067e-07 0.206877 1.56176
1.24493e-06 1.25269 1.53667
-1.2517e-06 0.540988 2.43368
-0.761264 0.445 -2.38533
-0.3675 0.348234 -2.43121
-0.789399 0.31788 -2.00782
-0.836748 0.412994 2.38373
-0.39618 0.270868 2.36913
-0.811764 0.268314 1.95838
-0.774518 0.585 -2.30782
-0.383539 0.71969 -2.31969
-0.81388 0.711309 -1.87583
-0.811091 0.668981 2.32675
-0.3975 0.838783 2.33681
-0.830234 0.822705 1.91583
0.3675 0.34822 -2.43122
0.761253 0.445 -2.38532
0.789412 0.317867 -2.00782
0.396175 0.27087 2.36913
0.836744 0.412994 2.38373
0.811745 0.268327 1.95838
0.383534 0.71968 -2.31968
0.774535 0.585 -2.30784
0.813893 0.711327 -1.87583
0.3975 0.838777 2.3368
0.811054 0.668981 2.32672
0.830213 0.822684 1.91583
-0.820621 0.281218 -1.21458
-0.81649 0.279909 -0.42134
-0.855072 0.400516 -0.798053
-0.427197 0.202467 -0.81796
-0.863866 0.221651 1.16514
-0.821259 0.269699 0.3719
-0.873326 0.394839 0.770974
-0.426893 0.202424 0.76852
-0.836781 0.753218 -1.1175
-0.868853 0.652776 -0.75824
-0.845478 0.780923 -0.359167
-0.487164 1.052 -0.738334
-0.84888 0.822342 1.1575
-0.885607 0.683961 0.77588
-0.849728 0.804182 0.399167
-0.539944 1.30496 0.778333
0.820614 0.281224 -1.21458
0.427172 0.202465 -0.81796
0.816489 0.279908 -0.42134
0.855076 0.40053 -0.798053
0.863874 0.22164 1.16514
0.4269 0.202422 0.76852
0.821266 0.26969 0.3719
0.873324 0.394834 0.770974
0.836744 0.753185 -1.1175
0.4871 1.05187 -0.738334
0.86885 0.652787 -0.75824
0.845474 0.780923 -0.359167
0.848877 0.822341 1.1575
0.539953 1.30498 0.778333
0.885609 0.683964 0.77588
0.849726 0.804182 0.399167
-0.840013 0.517939 -1.95595
-0.389639 0.515 -2.4528
-4.23891e-06 0.215552 -2.0258
-6.25849e-07 0.427018 -2.49687
-0.835685 0.407727 -1.58257
-0.404996 0.205661 -1.6112
-0.877906 0.540676 1.95514
-0.414874 0.540988 2.42856
-8.71664e-07 0.237201 1.96559
-1.87755e-06 0.405785 2.47443
-0.883116 0.381038 1.55549
-0.430542 0.206094 1.56176
-1.70275e-06 0.816404 -1.91057
-1.87755e-06 0.619733 -2.39779
-0.845269 0.629286 -1.5253
-0.415381 0.862586 -1.49667
6.22467e-07 1.03986 1.93732
-6.25849e-07 0.690471 2.39052
-0.883636 0.682498 1.54294
-0.420832 1.24033 1.53667
0.839995 0.517944 -1.95624
0.389935 0.515 -2.45276
0.835678 0.407731 -1.58257
0.404988 0.205649 -1.6112
0.877904 0.540675 1.95515
0.414879 0.540988 2.42862
0.883119 0.381035 1.55549
0.430544 0.206783 1.56176
0.84526 0.629291 -1.5253
0.415378 0.862587 -1.49667
0.88361 0.682496 1.54294
0.420831 1.24034 1.53667
-0.864175 0.397551 -0.01354
-0.42719 0.202439 -0.02472
-0.86643 0.523818 -1.16604
-0.878987 0.530003 -0.390253
-1.27167e-05 0.201248 -1.21458
-1.17108e-05 0.200799 -0.42134
-0.888574 0.536495 0.385533
-0.889259 0.540052 1.16132
-1.22126e-06 0.200816 0.3719
2.3918e-06 0.201013 1.16514
-0.877205 0.668797 0.00882
-0.539326 1.29856 0.02
-1.01452e-07 0.886605 -1.1175
1.14686e-06 1.29078 -0.359167
2.0422e-06 1.34308 0.399167
1.8674e-06 1.29761 1.1575
0.86416 0.397559 -0.01354
0.427185 0.202437 -0.02472
0.866431 0.523832 -1.16604
0.878986 0.530016 -0.390253
0.888569 0.536497 0.385533
0.889262 0.54005 1.16132
0.8772 0.668801 0.00882
0.539341 1.29859 0.02
-0.824798 0.426363 -1.98188
-0.853035 0.406889 -1.19031
-0.865549 0.638376 -1.14177
-0.841353 0.607143 -1.91589
0.824794 0.426366 -1.98203
0.841343 0.607145 -1.91604
0.865547 0.638384 -1.14177
0.85304 0.406903 -1.19031
-0.386248 0.222226 -2.01681
0.386244 0.221952 -2.01681
0.405925 0.2014 -1.21458
-0.405946 0.2014 -1.21458
-0.39946 0.822932 -1.8932
-0.418248 0.891766 -1.1175
0.418247 0.891774 -1.1175
0.399456 0.822933 -1.8932
-0.37857 0.436009 -2.47253
-0.386589 0.602366 -2.38107
0.386734 0.602366 -2.38103
0.378717 0.436009 -2.47251
-0.85963 0.39903 -0.405797
-0.868747 0.396196 0.378717
-0.881502 0.676427 0.39235
-0.873297 0.66092 -0.37471
0.859606 0.39905 -0.405797
0.873294 0.660928 -0.37471
0.8815 0.67643 0.39235
0.868747 0.396194 0.378717
-0.427198 0.202443 -0.42134
0.427183 0.202442 -0.42134
0.427042 0.20243 0.3719
-0.427042 0.202432 0.3719
-0.550617 1.25002 -0.359167
-0.541287 1.30507 0.399167
0.541287 1.30506 0.399167
0.550555 1.2499 -0.359167
-0.88607 0.391672 1.16323
-0.862852 0.397016 1.95676
-0.863521 0.67574 1.93549
-0.88254 0.679836 1.15941
0.88607 0.391667 1.16323
0.882556 0.679836 1.15941
0.86352 0.675739 1.93549
0.86284 0.397014 1.95676
-0.421112 0.201039 1.16514
0.421117 0.201037 1.16514
0.413359 0.237178 1.96198
-0.413361 0.237177 1.96198
-0.423078 1.28028 1.1575
-0.409166 1.01497 1.92658
0.409166 1.01497 1.92658
0.42308 1.28028 1.1575
-0.405527 0.409389 2.49181
0.405527 0.409389 2.49177
0.40619 0.679726 2.38666
-0.406187 0.679726 2.38666
-0.748966 0.41 -2.39572
-0.55125 0.357232 -2.42221
-0.775304 0.333336 -2.20613
-0.819017 0.348997 2.37383
-0.594268 0.27156 2.36844
-0.80709 0.271627 2.15669
-0.771207 0.62 -2.28182
-0.575307 0.706675 -2.30668
-0.798547 0.691225 -2.06542
-0.806888 0.732978 2.31472
-0.59625 0.832162 2.33019
-0.821701 0.818924 2.10542
0.55125 0.357132 -2.42231
0.748979 0.41 -2.39573
0.775291 0.333349 -2.20613
0.594263 0.271569 2.36843
0.81909 0.348997 2.37391
0.807082 0.27163 2.15669
0.575302 0.706647 -2.30665
0.771105 0.62 -2.28172
0.79846 0.691141 -2.06542
0.59625 0.832163 2.33019
0.806891 0.732978 2.31472
0.821699 0.818922 2.10542
-0.812078 0.288401 -1.01627
-0.815153 0.282606 -0.61965
-0.836064 0.342109 -0.808007
-0.64075 0.203378 -0.81796
-0.867205 0.219673 0.96683
-0.822319 0.267279 0.57021
-0.850305 0.328876 0.769747
-0.640191 0.203525 0.76852
-0.840428 0.761617 -0.927917
-0.855603 0.710505 -0.748287
-0.843832 0.774526 -0.54875
-0.714836 1.01036 -0.738334
-0.850809 0.819519 0.967917
-0.87103 0.750736 0.777107
-0.850164 0.80937 0.58875
-0.700756 1.0707 0.778333
0.811986 0.288491 -1.01627
0.640728 0.203378 -0.81796
0.815144 0.282613 -0.61965
0.836068 0.342123 -0.808007
0.8672 0.219675 0.96683
0.640195 0.203525 0.76852
0.822327 0.267268 0.57021
0.850299 0.328872 0.769747
0.840437 0.761631 -0.927917
0.714505 1.0097 -0.738334
0.855602 0.710513 -0.748287
0.843827 0.774524 -0.54875
[...]
POINT_DATA 3682
SCALARS point_scalars float 1
LOOKUP_TABLE default
-13.4367
-46.914
-74.5226
-41.7852
-13.6169
-44.2822
-74.7513
-39.5623
-33.6163
-21.5229
-42.697
-42.5203
-33.5431
-20.1487
-42.5249
-42.3888
18.6838
-88.4701
-33.6075
-27.3105
-43.158
-44.2173
-37.2274
18.6838
-90.1543
-34.4536
-33.8375
-42.8977
-44.2173
-37.2274
35.088
-87.321
-37.8229
-39.9111
-43.2271
-41.0577
-36.028
-11.2637
-60.854
-70.5385
-47.0841
-40.8152
-41.7606
-36.028
129.006
-65.195
-36.4775
-30.2953
-43.7132
-35.6418
-35.0092
168.002
-35.04
-34.7452
167.55
-34.3162
-34.0514
64.1077
-57.0094
-59.9296
-56.7528
-37.6355
-34.9334
-34.0498
101.051
-62.885
-36.3172
-29.9646
-41.2006
-32.9733
-31.9428
168.203
-32.6116
-31.9732
167.492
-32.0542
-31.2909
64.1786
-56.8568
-61.1694
-56.7098
-36.4964
-32.7601
-32.541
18.4977
-88.3693
-33.5206
-42.3475
-40.9654
-41.3827
-34.7586
18.4977
-90.7186
-34.42
-35.4775
-40.6989
-41.3827
-34.7586
17.6696
-87.6421
-37.7212
-39.8585
-41.1827
-38.3509
-33.6953
-9.36486
-60.583
-69.9074
-47.0537
-39.3484
-39.3131
-33.6953
-32.6358
-15.7735
-39.338
-40.9693
-33.3653
-45.8815
-68.3479
-31.4544
-34.558
-44.2204
-29.832
-39.3221
-38.3808
-44.9871
-31.4147
-43.7262
-32.4705
-35.3059
-36.6933
-38.1054
-34.5112
-43.9289
32.2619
-61.6108
-32.3511
-35.2502
-37.495
-43.8253
-33.7166
-33.7123
-55.0943
-9.37797
184.107
-36.4241
-36.2896
-32.6889
-91.5939
-40.3699
-39.6653
-40.6474
-45.0609
-29.3344
-24.2159
11.9409
-50.2683
-45.1089
-38.0504
-37.5233
-49.3696
-42.6195
-47.2775
-41.0098
-34.2325
-40.8768
12.177
-24.2699
-50.3966
-35.0292
-42.3333
-36.3512
-42.5104
-45.1235
-47.242
-33.4994
-38.4734
-40.0633
-32.9928
-32.6525
-33.9664
-36.0165
-38.1363
-31.8399
-31.0303
-34.0561
-29.1367
-37.6603
-45.8807
12.5861
-44.5965
-39.9132
-42.3359
-58.649
-33.0114
-35.9853
-32.5875
-33.9266
-37.7336
-33.989
-31.596
-29.7844
-29.0747
12.5714
-37.5429
-45.756
-44.3062
-58.5484
-39.8245
-42.1855
-52.0183
177.054
-73.4962
179.197
-35.3554
-52.3602
-40.0763
-33.2645
-37.9195
-27.7424
-42.3489
-41.2657
-38.4261
144.294
-32.751
-13.5326
-36.0741
-29.2854
-41.3579
-47.4532
-52.0161
177.359
-35.3547
-52.3391
-38.8608
-30.5612
-41.5617
-40.7258
-32.7361
-13.511
-40.7398
-47.2318
-34.015
-32.4067
-32.3575
-36.7489
-42.5486
-33.7275
-35.7109
-39.9499
-32.9801
-37.1446
-39.675
-71.8421
14.8227
-80.0712
-68.8076
-52.3683
-33.8819
-32.3537
-32.7763
-36.6531
-35.474
-39.5428
-39.5503
-71.7623
-52.1147
-34.1636
-31.8599
-50.4564
-52.1136
-50.4412
-31.8006
-34.1575
-70.2842
-70.368
-41.164
-41.1876
-39.0142
6.61176
6.64173
-38.9989
186.547
143.217
143.147
186.536
-34.2753
-33.223
-38.7005
-40.4938
-34.1921
-40.3847
-38.5094
-32.9498
-33.312
-33.2751
-32.5018
-32.5776
-90.4655
-59.0211
-58.925
-90.2047
-39.4489
-38.2303
-40.6298
-41.2113
-38.9343
-40.8634
-39.5179
-37.0105
-37.2756
-37.1329
-38.0212
-38.9953
-51.1731
-37.2208
-36.8379
-51.0434
-33.5044
-29.2238
-30.0653
-32.9478
-6.96221
33.7852
-70.7762
-46.4845
-41.2725
-39.0727
-61.0439
-5.81973
-65.8407
-42.1115
-35.0678
-41.0478
34.8646
-7.11154
-70.7847
-38.3221
-43.6776
-37.4261
-5.77585
-60.7474
-65.7727
-33.5717
-39.4946
-39.8768
-35.1556
-32.89
-33.5742
-35.2032
-41.0053
-30.6071
-25.313
-33.4975
-35.7586
-39.7858
-45.3305
-52.3514
-43.4015
-41.14
-42.2222
-48.2421
-34.9653
-35.1551
-32.8359
-33.5055
-42.5056
-33.4146
-30.1521
-23.1218
-35.653
-51.9771
-39.6483
-45.1844
-43.2316
-48.0979
-41.0286
-42.0686
-31.9042
-52.039
-74.7681
152.396
-9.09438
-9.09475
-88.6103
120.414
-51.8352
-35.1367
-36.8292
-48.6564
-43.324
-41.4156
-41.9819
-34.3637
-35.2833
-33.2038
-35.7467
-29.2535
-40.5334
-39.4922
-44.6632
-42.2559
-60.8302
-60.532
-58.7594
79.4566
-36.0639
-29.562
-32.8698
-18.47
-34.3585
-34.25
-34.2814
-31.0881
-41.7272
-44.7285
-42.1337
-45.4244
-31.2403
-45.5528
-74.8659
152.283
-51.7666
-35.1279
-36.8273
-48.6276
-40.6191
-38.8108
-40.167
-32.3168
-39.6266
-38.9788
-43.8338
-41.3724
-36.0776
-29.5703
-32.8589
-18.4339
-41.118
-44.3234
-41.5653
-45.0845
-32.6631
-32.3283
-33.1739
-32.1473
-34.4966
-36.3092
-33.7303
-36.1111
-36.5206
-36.5053
-39.2206
-34.9103
-35.5205
-38.6023
-35.7718
-39.9978
-34.4395
-34.4
-33.5817
-35.6878
-45.2915
-43.0724
-40.8502
-55.7342
28.808
28.7693
26.2328
2.73927
-60.761
-60.7023
-64.3787
-56.8713
-32.5706
-32.1682
-33.0463
-32.0686
-34.4702
-36.2122
-33.2176
-36.0283
-34.5196
-38.3603
-35.4515
-40.5154
-45.1775
-42.9491
-40.7319
-55.6233
-42.5724
-34.5691
-33.08
-31.7382
-42.5575
-34.5675
-33.0714
-31.7782
-69.2417
-54.5843
-54.573
-47.4403
-22.5585
-10.4012
-10.3931
1.84132
175.436
201.333
164.178
174.602
-34.999
-36.749
-36.0198
-37.8131
-34.8638
-36.6391
-35.8439
-37.6819
-32.6279
-33.018
-32.6825
-32.6002
-88.4697
-102.925
-77.0095
-88.4553
-40.0999
-41.0969
-40.4053
-40.112
-39.2074
-40.3465
-39.7407
-39.5653
-39.7526
-40.865
-40.6086
-38.9344
-39.8274
-45.5763
-45.4584
-48.4177
-31.4288
-26.3421
-28.551
-28.9312
-72.2508
174.74
-90.2712
131.837
-51.3988
-64.2806
-40.7878
-35.199
-37.8853
-35.5089
-37.372
-39.368
-75.1187
117.626
-62.2404
93.8334
-49.4461
-39.8258
-41.6065
-34.3305
-35.1937
-33.2551
-40.4664
-40.2917
-90.189
132.197
-72.3082
174.728
-51.4505
-64.4015
-36.2963
-31.7875
-39.0235
-32.7803
-36.1739
-38.2247
-62.2448
94.476
-75.1854
117.68
-49.4189
-39.7792
-34.5913
-31.3309
-39.9637
-32.0382
-39.4464
-39.7804
-34.512
-38.379
-33.4478
-32.9064
-33.9066
-33.996
-38.3409
-34.313
-39.3619
-37.6945
-32.4709
-32.0544
-32.5136
-41.8389
-33.1059
-35.7014
-31.4005
-5.24388
-34.2862
-39.7011
-42.6806
-65.2126
14.6695
-29.8003
-42.6204
-51.7221
-38.6551
-40.5945
-40.2375
-49.9478
-57.2889
-55.1075
-34.4973
-38.3397
-38.3096
-34.2802
-33.371
-32.8546
-33.6025
-33.9335
-38.7718
-37.5027
-33.0279
-35.6335
-32.2003
-31.9219
-32.0317
-43.0318
-31.3309
-5.17912
14.7003
-29.9898
-34.1219
-39.5895
-42.5666
-65.0815
-42.3083
-51.4742
-57.1656
-55.0199
-38.4473
-40.5244
-40.0645
-49.8116
-52.2856
-51.2893
198.035
150.443
-73.0704
-73.118
186.325
186.302
-44.9646
-32.5618
-66.25
-45.2327
-39.0192
-40.4544
-32.912
-32.9851
-37.7654
-38.3464
-30.1845
-25.8112
-40.1065
-39.516
-39.1581
-40.4259
-38.4667
-38.4579
146.839
146.615
-31.0105
-40.1623
-24.7327
-3.91326
-36.4062
-36.2202
-28.7392
-31.1582
-41.1546
-40.9323
-48.4755
-41.3599
-52.2755
-51.2825
150.172
198.014
-44.9333
-32.5786
-66.2191
-45.2036
-39.2781
-37.789
-28.5674
-29.8569
-39.4741
-38.5951
-38.9168
-39.7714
-40.1711
-31.0379
-3.88751
-24.7162
-40.4509
-40.342
-41.0705
-48.3255
-34.2221
-33.6621
-32.6951
-32.3637
-32.9869
-32.3862
-35.28
-38.4613
-42.2061
-42.2185
-33.6331
-33.6226
-34.3397
-36.9995
-39.6793
-40.3318
-32.8595
-32.8943
-37.1877
-37.1053
-39.1375
-40.5402
-83.1289
-63.741
12.7642
12.7666
-76.9735
-77.3155
-66.8478
-66.803
-51.9586
-51.9824
-34.119
-33.4809
-32.6516
-32.2989
-32.3632
-33.4484
-35.1906
-38.3594
-36.7846
-34.0822
-39.2219
-39.9551
-40.4281
-38.9824
-63.6564
-83.0428
-72.6136
-47.4833
-43.4171
-73.0606
-34.3868
-33.8785
-32.0279
-33.3899
-35.2171
-30.597
-31.4396
-33.9847
-74.4798
-76.3976
-41.6004
-38.6326
-72.6614
-73.1438
-43.3965
-47.4395
-74.5157
-38.6568
-41.5941
-76.5179
-35.0893
-33.7564
-31.4742
-30.6114
-34.1669
-33.3941
-32.0578
-33.1108
-79.4862
-89.9942
-67.7696
-63.1833
-79.3275
-63.1221
-67.7472
-89.9399
-37.4009
-38.9763
-47.0091
-41.8274
-37.4689
-41.8635
-47.0195
-38.9905
-60.3839
-27.6161
-22.9833
-59.3997
-13.0274
23.7735
0.663416
-12.6814
-13.5927
-12.6444
0.673173
23.7489
-60.3506
-59.2337
-22.9728
-27.5941
134.767
176.924
199.693
131.615
96.2345
82.5749
163.551
124.109
96.3002
124.056
163.554
84.72
134.675
131.656
200.123
176.78
-33.3764
-33.3245
-35.2924
-34.9127
-31.3598
-34.0447
-34.6883
-32.8567
-40.3277
-40.8049
-37.3493
-37.1039
-42.075
-37.4747
-38.3301
-42.7493
-33.3146
-34.8435
-35.185
-33.2266
-41.9496
-42.64
-38.2193
-37.6835
-40.1515
-36.8452
-37.1822
-40.6612
-30.8501
-32.6803
-34.5075
-33.6429
-33.7253
-34.7598
-32.939
-32.4173
-33.6788
-32.3549
-32.9172
-34.7434
-32.0711
-33.4639
-32.578
-31.9394
-32.2269
-32.0413
-32.6089
-33.4837
-70.6318
-60.1368
-98.5909
1.09534
-48.6145
-63.4083
-74.519
-52.2933
-48.4847
-52.1522
-74.4767
-63.3576
-70.532
1.22406
-98.5026
-60.0067
-43.7313
-40.6266
-40.2118
-40.6137
-39.7721
-41.2857
-39.5139
-39.8184
-41.14
-40.8814
-40.9553
-41.8909
-41.5201
-40.525
-40.2723
-42.3676
-45.5512
-41.4434
-39.6186
-39.9677
-41.3885
-41.9204
-39.7533
-40.6501
-39.625
-40.1444
-40.0878
-40.1517
-38.0701
-38.8954
-38.5935
-39.4948
-35.9932
-35.6848
-39.0267
-39.45
-36.0223
-39.1679
-38.8816
-35.6391
-37.3333
-35.6426
-39.6745
-39.72
-39.0912
-40.5133
-40.0478
-36.6311
-49.5953
-47.0646
-48.4259
-56.452
-36.6999
-34.5637
-40.1433
-44.4815
-35.9761
-44.2145
-39.9811
-34.1941
-49.4369
-56.3905
-48.3531
-46.7839
-37.9142
-32.1161
-29.8412
-34.4246
-35.1168
-32.1746
-25.0958
-29.0633
-32.1772
-30.7028
-28.0697
-32.1104
-34.423
-34.384
-30.893
-32.1715
-5.60608
40.7802
-86.2982
-48.9827
-44.4381
-41.2206
-62.874
-26.2245
-89.3063
-44.033
-37.0515
-41.4551
40.6028
-5.85922
-86.2374
-41.5182
-46.1843
-39.1323
-25.9359
-62.8638
-89.4264
-35.0594
-42.4577
-39.9003
-33.7617
-32.7429
-33.4219
-34.6727
-28.2904
-28.4835
-22.9662
-30.6621
-40.0115
-41.0666
-44.5562
-56.3091
-42.7608
-41.6016
-42.2954
-45.4398
-33.6482
-34.5264
-32.68
-33.3493
-29.1364
-30.2508
-27.758
-21.0242
-39.8562
-55.9443
-40.9144
-44.3926
-42.6238
-45.2924
-41.4768
-42.1519
-27.344
-46.2998
-93.7655
103.977
-15.8663
-15.9455
-68.4021
39.9174
-45.3209
-36.6784
-37.7411
-45.0085
-42.1668
-40.7784
-44.5191
-35.2741
-34.1795
-33.0551
-34.5152
-30.9644
-47.6869
-41.0673
-45.4227
-43.7542
-68.7083
-68.4731
-69.1762
7.75499
-33.08
-30.3932
-32.5997
-24.481
-34.5037
-34.4625
-34.318
-33.059
-42.4857
-44.1419
-42.5573
-45.6379
-26.337
-41.8301
-95.144
103.463
-45.2899
-36.6721
-37.7363
-44.9736
-39.5179
-38.1998
-42.1901
-33.1276
-46.787
-40.4373
-44.5633
-42.5823
-33.0451
-30.3689
-32.5771
-24.435
-41.9481
-43.6965
-42.0198
-45.2146
-32.4962
-32.2511
-32.7348
-32.0134
-34.852
-35.8205
-34.26
-35.8686
-36.6528
-36.6452
-37.8526
-35.7186
-37.3027
-38.3592
-36.4689
-38.244
-34.4981
-34.4778
-34.0075
-35.0656
-44.1489
-43.4439
-41.9945
-49.6107
31.5715
31.5091
35.1432
20.8794
-61.3901
-61.3597
-63.2743
-59.3025
-32.3925
-32.1112
-32.6115
-31.8775
-34.8188
-35.7411
-34.1116
-35.7961
-36.5005
-37.986
-36.1186
-39.1459
-44.0417
-43.3311
-41.8829
-49.4896
-37.6845
-34.1058
-33.469
-32.0687
-37.6797
-34.1038
-33.4634
-32.0745
-60.9053
-55.0169
-55.0113
-50.8344
-15.9883
-9.62527
-9.6229
-3.97766
182.958
196.723
164.748
182.998
-35.7176
-36.7066
-36.266
-37.0985
-35.5825
-36.5851
-36.1124
-36.9652
-32.6803
-32.8073
-32.646
-32.6673
-90.8575
-98.698
-83.2903
-90.8408
-40.2417
-40.6517
-40.3018
-40.3247
-39.4482
-39.9265
-39.6171
-39.7027
-40.3228
-40.7347
-40.6085
-40.2432
-43.2464
-45.1552
-45.0972
-46.5492
-30.3508
-27.3018
-28.7276
-28.7848
-16.397
-29.0235
-92.0425
137.805
20.3955
1.0646
-76.1667
78.7172
-62.2221
-48.6515
-50.6448
-57.4058
-45.6508
-44.49
-43.0397
-37.1031
-39.4797
-36.6096
-37.6434
-36.5711
-37.7839
-36.9039
-37.213
-39.0826
-54.9508
-49.4091
-96.285
71.3587
-15.0223
-51.7636
-75.5283
46.0372
-52.8503
-41.8242
-48.5807
-41.2013
-41.264
-41.2119
-43.7022
-35.6045
-34.2712
-34.2098
-34.6212
-33.6511
-40.7911
-41.0293
-40.4443
-40.9479
17.1776
0.672836
-76.438
79.5098
-16.596
-28.8527
-92.1975
137.74
-62.2229
-48.6474
-50.7321
-57.6614
-36.4405
-33.8972
-35.5156
-33.2372
-42.8676
-41.7304
-40.7969
-34.6394
-36.4018
-35.9181
-36.024
-37.8928
-14.888
-51.9769
-75.4778
46.2519
-52.659
-43.9528
-96.5437
71.1676
-52.7175
-41.8274
-48.5472
-41.1502
-33.5422
-33.8864
-33.9989
-32.4559
-38.6961
-38.639
-41.5398
-33.1999
-39.8104
-40.3327
-39.5058
-40.344
-37.7922
-33.2984
-33.5897
-35.4484
-32.8202
-32.6653
-33.0529
-32.5067
-33.8119
-34.236
-33.7972
-33.9871
-35.6761
-36.2617
-37.2628
-35.0117
-39.1881
-38.6586
-38.9507
-38.0054
-31.3169
-31.9915
-32.1042
-31.7089
-28.7613
-33.3363
-31.8552
-36.5378
-33.8365
-34.3151
-33.5504
-34.7898
-31.3447
-29.2628
-30.7619
-18.1613
-38.5652
-36.9046
-36.0972
-38.8935
-45.5149
-45.4696
-43.997
-53.8746
-8.32559
23.7266
19.0027
-2.13661
-44.2825
-44.4905
-43.5058
-48.3807
-40.6361
-39.0069
-39.0655
-39.9464
-42.2368
-42.6276
-41.1821
-46.237
-51.5716
-59.7572
-57.6765
-57.9653
-37.5701
-33.2877
-33.5994
-35.4046
-35.6363
-36.2383
-37.2325
-34.9797
-32.755
-32.5846
-32.9792
-32.4038
-33.754
-34.2061
-33.662
-33.9375
-38.6324
-38.2252
-38.3952
-37.7634
-33.7688
-34.259
-33.4781
-34.7372
-30.9884
-31.7918
-31.8436
-31.4861
-27.7633
-32.1355
-31.1521
-38.3372
-31.2796
-29.2348
-30.6979
-18.085
-8.52651
23.7142
19.0049
-2.15084
-38.4396
-36.7963
-35.965
-38.7802
-45.3793
-45.3473
-43.8792
-53.7526
-44.0569
-44.1374
-43.2091
-48.1327
-51.4398
-59.6724
-57.5785
-57.8541
-40.5344
-38.8993
-38.8863
-39.9503
-42.077
-42.4917
-41.0199
-46.1083
-60.2757
-46.9756
-52.2434
-51.627
167.435
173.214
191.31
161.295
-75.337
-75.5131
-73.2524
-73.3025
149.669
205.944
192.315
192.354
-35.9437
-34.9272
-39.804
-33.3291
-50.7583
-53.5606
-58.0299
-48.0961
-40.7086
-39.855
-39.5133
-40.2789
-33.8788
-32.5299
-33.0906
-33.1153
-36.7988
-38.8891
-37.7714
-38.0848
-28.3069
-26.2169
-28.852
-26.7664
-43.1381
-41.7948
-40.9704
-42.6692
-41.6352
-41.047
-40.5487
-40.9985
-46.2971
-30.0194
-38.3596
-38.3609
124.178
157.2
143.155
143.274
-32.8709
-32.83
-31.5778
-35.9207
-15.8985
-11.6871
-18.6364
-8.9684
-34.7526
-37.5013
-36.2207
-36.114
-30.0778
-28.6866
-28.8222
-30.1649
-41.846
-40.72
-41.3727
-40.8382
-48.9375
-46.4557
-47.5073
-44.6625
-60.3054
-46.9656
-52.2408
-51.6225
167.848
174.677
161.639
191.264
-35.9438
-34.9255
-39.7896
-33.3281
-50.7454
-53.5402
-57.9992
-48.0697
-39.2431
-38.8252
-39.0825
-38.2939
-31.7138
-29.5956
-29.7054
-30.1724
-42.3344
-41.0246
-40.2725
-41.7926
-40.7631
-40.6518
-40.2628
-40.3707
-32.859
-32.8184
-35.9253
-31.5566
-15.8708
-11.672
-8.94474
-18.6176
-41.2528
-40.077
-40.2931
-40.667
-48.8424
-46.278
-44.391
-47.3316
-33.5762
-34.4983
-34.1144
-33.8791
-32.2696
-32.5231
-32.5104
-32.3511
-33.0615
-32.4101
-32.5192
-32.4482
-36.5578
-36.7854
-35.9323
-37.6164
-40.77
-44.802
-42.4532
-42.4593
-34.2502
-33.3149
-33.7091
-33.6998
-35.7324
-35.9169
-35.038
-36.3703
-40.5427
-39.9865
-39.736
-40.1891
-33.2434
-32.7937
-32.9471
-32.9642
-36.383
-37.9869
-37.1643
-37.1217
-40.4659
-38.5542
-39.3102
-40.2922
-62.5062
-83.0776
-76.6272
-67.8682
20.2196
8.8575
14.1948
14.1936
-33.3988
-103.585
-78.9387
-79.9858
-66.2275
-72.3124
-68.3164
-68.2942
-54.6388
-50.1965
-52.3126
-52.2795
-33.4454
-34.3637
-33.9976
-33.7255
-32.2033
-32.4836
-32.4625
-32.2926
-32.8111
-32.5227
-32.5308
-33.075
-36.4678
-36.6829
-35.8396
-37.5178
-35.4575
-35.7133
-36.1444
-34.7903
-40.2213
-39.4997
-39.3073
-39.799
-40.3443
-38.4254
-40.1753
-39.1714
-62.3948
-83.1031
-67.7831
-76.3791
-59.7815
-51.7894
-52.3105
-48.2811
-34.9919
-34.5429
-33.1772
-33.648
-31.6225
-32.7023
-31.4159
-32.2261
-57.7189
-50.0761
-50.8552
-44.8449
-59.8061
-51.807
-52.2944
-48.2737
-57.6902
-50.0567
-50.8429
-44.8329
-31.5568
-32.5512
-31.4419
-32.1719
-34.9712
-34.2184
-33.2333
-33.8167
-73.9118
-68.0265
-72.077
-71.7777
-73.6595
-68.0666
-72.1602
-71.822
-40.2027
-39.6506
-43.2116
-41.7848
-40.2282
-39.6813
-43.2348
-41.8036
-47.2884
-39.5256
-38.8947
-31.3395
1.42317
10.8227
1.77829
10.3825
1.47849
10.8549
1.80668
10.3955
-47.2783
-39.5072
-38.8834
-31.3232
180.992
169.732
195.641
195.196
137.396
127.497
148.675
148.962
127.622
137.71
149.359
148.874
169.712
180.944
195.183
195.629
-33.8545
-34.1942
-34.318
-34.8009
-32.8624
-32.9426
-33.3936
-33.704
-38.7087
-39.5482
-37.7053
-38.9014
-40.2273
-41.6127
-39.3604
-40.6834
-33.7746
-34.1219
-34.2263
-34.7148
-40.1176
-41.5009
-39.2548
-40.5735
-38.5059
-39.3667
-37.5023
-38.7288
-32.5893
-32.592
-33.1743
-33.4365
-33.104
-33.7523
-32.9494
-33.4861
-33.7179
-33.0588
-33.4582
-32.9097
-32.7211
-32.2398
-32.7066
-32.3696
-32.3412
-32.7997
-32.4403
-32.7606
-92.7801
-53.6989
-94.7981
-75.6826
-53.7074
-57.6398
-61.0945
-64.1603
-57.5338
-53.5814
-64.0912
-61.0056
-53.6256
-92.5928
-75.5852
-94.471
-39.551
-40.7475
-39.67
-39.6024
-39.2211
-37.7568
-38.6747
-37.8789
-40.8732
-40.5981
-40.542
-40.7344
-41.9206
-41.4854
-41.0173
-40.5394
-38.9834
-40.2847
-39.1005
-39.1194
-41.5895
-41.288
-40.5981
-40.1779
-39.5384
-39.5295
-39.3979
-39.7894
-37.753
-36.5484
-37.4456
-36.8444
-37.4573
-36.4443
-38.1252
-37.2176
-37.2921
-36.3393
-37.9374
-37.1018
-37.0688
-38.2015
-37.8581
-38.9417
-38.3007
-39.2838
-38.6686
-39.7326
-50.0374
-52.8877
-50.0104
-51.6277
-36.0775
-38.3013
-36.7166
-38.9009
-35.547
-37.8592
-36.4204
-38.5832
-49.8415
-52.7567
-49.8774
-51.5299
-34.5994
-34.221
-33.0721
-32.2235
-30.2683
-31.5044
-27.2328
-28.6042
-30.48
-31.0515
-29.2287
-29.8846
-33.6342
-33.0229
-32.9386
-32.1421
-90.4922
113.824
-78.5376
87.8968
-72.7549
-70.7896
-43.0785
-39.5839
-39.6991
-39.942
-39.3399
-39.6534
-93.9375
50.1498
-68.863
56.4721
-70.173
-63.5068
-42.9984
-36.0996
-35.7063
-34.7202
-40.7649
-38.8116
-78.5704
89.7489
-90.4548
113.737
-72.7927
-70.7185
-37.4434
-36.8477
-40.8877
-36.8867
-37.6722
-37.9005
-68.885
56.6435
-94.0963
50.2372
-70.1693
-63.4879
-34.7055
-32.5452
-40.9911
-33.6432
-39.3811
-37.9532
-34.907
-34.5236
-33.0896
-33.0687
-33.5993
-33.2868
-36.1595
-34.3615
-40.9871
-38.5788
-30.9613
-31.2424
-29.8315
-33.3535
-32.5757
-34.7916
-35.7658
-31.0121
-37.8642
-41.2174
-43.5586
-54.6176
-25.2058
-76.8833
-42.4055
-46.0495
-40.5384
-40.9188
-41.1597
-45.5438
-48.3089
-48.6391
-34.7171
-35.4918
-36.1043
-34.3153
-33.0298
-32.9948
-33.4677
-33.2294
-45.1767
-38.9349
-32.4373
-34.9045
-30.4736
-30.8955
-28.9546
-35.8269
-35.6478
-31.1314
-25.5326
-76.4711
-37.7292
-41.0844
-43.4234
-54.4817
-42.2522
-45.8663
-48.1744
-48.4851
-40.3836
-40.8202
-40.9939
-45.402
-91.4826
136.378
-94.8669
78.2025
-73.7903
-76.1566
166.589
134.381
-71.7103
53.1116
-71.6814
53.1904
-88.6725
-88.5556
125.101
125.206
-49.3367
-58.9817
-33.9742
-39.2095
-42.0242
-34.5272
-54.4705
-44.7749
-42.9895
-36.0639
-44.5242
-35.4716
-41.6658
-41.961
-34.3274
-34.4464
-35.8057
-33.5997
-34.4227
-30.9229
-35.5956
-36.1201
-30.4658
-28.6819
-40.4397
-40.1491
-40.4131
-39.5461
-41.9032
-44.6689
-40.788
-41.5199
-72.1178
23.3282
-72.1464
23.2642
-58.4468
-58.5078
81.0664
80.8681
-37.6343
-30.8729
-30.2031
-21.7498
-31.6264
-34.7383
-22.3202
-15.8854
-34.3993
-33.512
-34.1145
-32.6497
-34.4263
-34.2631
-31.1932
-31.7946
-41.0379
-41.732
-43.2948
-48.6121
-41.4569
-42.3003
-45.791
-43.2933
-92.0937
136.288
-95.6673
77.8316
-73.8656
-76.2628
134.274
166.431
-49.2786
-58.8899
-33.9764
-39.1808
-42
-34.524
-54.4318
-44.7399
-40.7579
-33.7268
-42.2313
-33.1243
-40.1778
-39.8602
-32.2166
-32.2405
-39.5145
-39.3154
-39.7778
-39.2042
-41.1724
-43.7685
-40.5897
-40.5876
-37.6645
-30.887
-30.2049
-21.7201
-34.7274
-31.5817
-15.849
-22.3058
-40.3559
-41.2333
-42.8669
-48.2789
-41.7992
-40.8184
-42.9391
-45.4885
-32.9026
-32.3921
-32.5101
-32.0994
-33.2459
-33.041
-32.2579
-32.0793
-34.0662
-34.7286
-35.0965
-37.1907
-33.8153
-33.8627
-35.431
-36.905
-37.6473
-35.5555
-37.6322
-35.5398
-39.1501
-39.157
-34.8717
-34.8634
-34.1319
-38.0495
-37.6229
-38.847
-34.9426
-36.514
-40.1134
-39.8921
-33.9184
-35.0307
-33.8569
-34.9938
-33.5427
-33.5608
-35.6939
-35.6697
-43.8785
-51.5709
-41.8832
-47.6218
-40.5415
-42.2934
-57.9693
-53.977
32.1161
17.8649
32.0982
17.8057
25.8255
25.8305
2.40231
2.43006
-62.3921
-58.5249
-62.3363
-58.4653
-64.0839
-64.0585
-56.7855
-56.7541
-32.8084
-32.2687
-32.3395
-31.8983
-33.1352
-32.8925
-32.1883
-31.9901
-33.8804
-34.6747
-34.9657
-37.0959
-33.5313
-33.0691
-35.3555
-36.8148
-33.614
-39.4673
-37.3742
-39.2853
-36.2276
-34.5836
-40.7789
-40.2832
-43.7684
-51.4507
-41.7486
-47.5114
-42.1822
-40.4117
-53.8277
-57.8449
-42.9394
-42.1176
-38.5825
-32.6128
-31.6804
-36.8487
-31.8562
-31.6493
-42.9196
-42.1063
-38.5738
-32.6175
-36.8592
-31.681
-31.6877
-31.8926
-69.0075
-68.9949
-60.2002
-50.4065
-60.181
-50.3976
-47.3315
-47.3366
-22.5753
-22.5718
-17.0173
-5.21327
-5.20335
-17.0306
1.84419
1.84792
195.309
163.969
207.938
207.949
164.48
164.407