# vtk DataFile Version 2.0
tet_velo
ASCII
DATASET UNSTRUCTURED_GRID
POINTS 29498 float
-0.73194 0.215 -1.975
-0.740376 0.325 2.055
-0.715 0.745 -1.91321
-0.675 1.015 1.98801
0.73264 0.215 -1.975
0.739073 0.325 2.055
0.715 0.745 -1.91321
0.675 1.015 1.98801
-0.802955 0.183464 -0.631667
-0.826437 0.19946 0.711667
-0.806525 0.939858 -0.612803
-0.78667 1.02334 0.687603
0.802987 0.183464 -0.631667
0.826125 0.199137 0.711667
0.808399 0.941733 -0.612803
0.786673 1.02334 0.687603
-1.52151 -0.206715 -3.03898
-1.52511 -0.151546 -1.98151
-1.5766 -0.168951 -0.637067
-1.5915 -0.166562 0.716016
-1.53881 -0.0812747 2.06119
-1.52323 -0.020228 3.12222
-1.52942 0.0276831 4.17667
-1.51682 0.121703 -3.02352
-1.51909 0.201629 -1.97074
-1.58583 0.205864 -0.634646
-1.58965 0.212599 0.705309
-1.50458 0.291294 2.04222
-1.5011 0.35047 3.10265
-1.51859 0.398305 4.15849
-1.51005 0.7338 -2.98055
-1.50906 0.811505 -1.92599
-1.58272 0.947698 -0.619162
-1.56067 1.00723 0.684624
-1.46028 1.02228 1.99227
-1.47752 1.07845 3.05448
-1.50943 1.13433 4.11724
-1.52017 1.77797 -2.94836
-1.52556 1.87311 -1.90023
-1.55277 2.02435 -0.607324
-1.56176 2.13397 0.676333
-1.54332 2.18359 1.96969
-1.53477 2.21802 3.01876
-1.53878 2.26104 4.07683
-0.755065 -0.200263 -3.04175
-0.741293 -0.141522 -1.98555
-0.7849 -0.179859 -0.636525
-0.812902 -0.176019 0.721442
-0.778996 -0.0646707 2.07067
-0.768648 -0.00869229 3.12866
-0.773982 0.0331629 4.18039
-0.755744 0.12056 -3.02437
-0.754597 0.362575 3.10796
-0.767932 0.403422 4.16131
-0.749999 0.706431 -2.97524
-0.736059 1.07883 3.05363
-0.763226 1.13537 4.11706
-0.748457 1.75961 -2.94311
-0.746861 1.85599 -1.89445
-0.771525 2.02116 -0.603838
-0.791689 2.13926 0.675915
-0.78768 2.1856 1.9667
-0.782415 2.21778 3.01578
-0.784903 2.26065 4.07467
0.752946 -0.20005 -3.04175
0.770533 -0.14141 -1.98555
0.80804 -0.17982 -0.636525
0.804569 -0.176205 0.721442
0.746043 -0.0647344 2.07067
0.735293 -0.00871683 3.12866
0.733969 0.0331645 4.18039
0.734303 0.120746 -3.02437
0.723308 0.36256 3.10796
0.72698 0.403424 4.16131
0.729931 0.706679 -2.97524
0.701552 1.07883 3.05363
0.716902 1.13539 4.11706
0.780756 1.76014 -2.94311
0.793167 1.85663 -1.89445
0.790109 2.02185 -0.603838
0.756757 2.13962 0.675915
0.722924 2.18574 1.9667
0.716889 2.21788 3.01578
0.71915 2.26074 4.07467
1.51825 -0.206158 -3.03898
1.53811 -0.151029 -1.98151
1.59034 -0.168616 -0.637067
1.59416 -0.166712 0.716016
1.52899 -0.0814009 2.06119
1.50231 -0.0202703 3.12222
1.4969 0.0277004 4.17667
1.49902 0.122283 -3.02352
1.51382 0.202297 -1.97074
1.58611 0.206469 -0.634646
1.59763 0.212399 0.705309
1.51331 0.291162 2.04222
1.48574 0.350431 3.10265
1.48626 0.398323 4.1585
1.49364 0.734539 -2.98055
1.50453 0.812547 -1.92599
1.58293 0.949524 -0.619162
1.56631 1.00743 0.684624
1.46691 1.02223 1.99227
1.45802 1.07846 3.05448
1.47148 1.13439 4.11724
1.54654 1.77902 -2.94836
1.5609 1.87434 -1.90023
1.56698 2.02559 -0.607324
1.53586 2.13467 0.676333
1.49252 2.18391 1.96969
1.47861 2.21824 3.01876
1.47876 2.26124 4.07683
-0.754233 0.48 -1.97487
0.000350028 0.182351 -2.00765
-0.783513 0.183166 -1.30333
-0.751344 0.67 2.06516
-0.000651509 0.291227 2.08877
-0.79581 0.249826 1.38333
0 0.817401 -1.98561
-0.795783 0.877449 -1.26301
0 1.08189 2.0549
-0.757398 1.04573 1.33781
0.754928 0.48 -1.97521
0.783879 0.183167 -1.30333
0.750347 0.67 2.06482
0.795423 0.249245 1.38333
0.795773 0.877439 -1.26301
0.7574 1.04573 1.33781
-0.816925 0.189233 0.04
-0.874062 0.561661 -0.622235
1.61827e-05 0.180772 -0.631667
-0.884732 0.611398 0.699635
-0.000156093 0.181717 0.711667
-0.801298 0.986298 0.0374
0.000937267 1.2409 -0.612803
1.41192e-06 1.40973 0.687603
0.816624 0.189233 0.04
0.877089 0.562598 -0.622235
0.884742 0.611238 0.699635
0.802826 0.987826 0.0374
-0.884027 0.520831 -1.28317
-0.880944 0.58653 0.0387
-0.893036 0.640699 1.36057
0.000183105 0.180596 -1.30333
-6.99552e-05 0.187986 0.04
-0.000403801 0.215487 1.38333
0.000175014 0.48 -2.24173
-0.000325754 0.67 2.13529
0.000468633 0.979362 -1.26301
0.000469339 1.41273 0.0374
7.0596e-07 1.26246 1.33781
0.884021 0.521299 -1.28317
0.884168 0.586918 0.0387
0.893055 0.640619 1.36057
-1.12552 0.208314 -1.97287
-0.736617 0.0367388 -1.98028
-0.743842 0.16778 -2.49969
-1.12248 0.308147 2.04861
-0.759686 0.130165 2.06284
-0.747487 0.343787 2.58148
-1.11203 0.778253 -1.9196
-0.732499 0.725715 -2.44422
-0.73093 1.30049 -1.90383
-1.06764 1.01864 1.99014
-0.705529 1.04692 2.52082
-0.73134 1.6003 1.97736
0.751587 0.0367948 -1.98028
0.733472 0.167873 -2.49969
1.12323 0.208649 -1.97287
0.742558 0.130133 2.06284
0.731191 0.34378 2.58148
1.12619 0.308081 2.04861
0.722465 0.72584 -2.44423
0.754083 1.30081 -1.90383
1.10977 0.778773 -1.9196
0.688276 1.04692 2.52082
0.698962 1.60037 1.97736
1.07096 1.01862 1.99014
-1.19439 0.194664 -0.633156
-0.793927 0.00180265 -0.634096
-1.20804 0.206029 0.708488
-0.81967 0.0117202 0.716555
-1.19462 0.943778 -0.615983
-0.789025 1.48051 -0.608321
-1.17367 1.01528 0.686114
-0.78918 1.5813 0.681759
0.805514 0.00182222 -0.634096
1.19455 0.194966 -0.633156
0.815347 0.0114661 0.716555
1.21188 0.205768 0.708488
0.799254 1.48179 -0.608321
1.19567 0.945629 -0.615983
0.771715 1.58148 0.681759
1.17649 1.01539 0.686114
-1.52331 -0.17913 -2.51025
-1.51916 -0.0425059 -3.03125
-1.13829 -0.203489 -3.04037
-1.55086 -0.160248 -1.30929
-1.5221 0.0250413 -1.97612
-1.1332 -0.146534 -1.98353
-1.58405 -0.167756 0.0394744
-1.58122 0.0184569 -0.635856
-1.18075 -0.174405 -0.636796
-1.56516 -0.123918 1.3886
-1.59058 0.0230185 0.710662
-1.2022 -0.171291 0.718729
-1.53102 -0.0507514 2.59171
-1.52169 0.105009 2.0517
-1.1589 -0.0729727 2.06593
-1.52633 0.00372752 3.64945
-1.51217 0.165121 3.11244
-1.14594 -0.0144602 3.12544
-1.52401 0.212994 4.16758
-1.1517 0.030423 4.17853
-1.51796 0.161666 -2.49713
-1.51343 0.427751 -3.00203
-1.13628 0.121132 -3.02395
-1.55246 0.203747 -1.30269
-1.51407 0.506567 -1.94836
-1.58774 0.209232 0.0353313
-1.58428 0.576781 -0.626904
-1.54711 0.251946 1.37377
-1.57516 0.609913 0.694966
-1.50284 0.320882 2.57244
-1.48243 0.656786 2.01725
-1.50985 0.374387 3.63057
-1.48931 0.714461 3.07857
-1.12785 0.356522 3.10531
-1.51401 0.766319 4.13787
-1.14326 0.400863 4.1599
-1.50955 0.772652 -2.45327
-1.51511 1.25588 -2.96446
-1.13002 0.720115 -2.97789
-1.54589 0.879601 -1.27258
-1.51731 1.34231 -1.91311
-1.5717 0.977462 0.0327313
-1.56774 1.48603 -0.613243
-1.51047 1.01475 1.33845
-1.56121 1.5706 0.680479
-1.4689 1.05037 2.52338
-1.5018 1.60293 1.98098
-1.49348 1.10639 3.58586
-1.50615 1.64824 3.03662
-1.10679 1.07864 3.05405
-1.52411 1.69769 4.09704
-1.13633 1.13485 4.11715
-1.52286 1.82554 -2.4243
-1.13432 1.76879 -2.94574
-1.53916 1.94873 -1.25378
-1.13621 1.86455 -1.89734
-1.55726 2.07916 0.0345049
-1.16215 2.02276 -0.605581
-1.55254 2.15878 1.32301
-1.17672 2.13662 0.676124
-1.53905 2.20081 2.49423
-1.1655 2.18459 1.9682
-1.53678 2.23953 3.5478
-1.15859 2.2179 3.01727
-1.16184 2.26084 4.07575
-0.748179 -0.170893 -2.51365
-0.755405 -0.0398514 -3.03306
-0.00105951 -0.200156 -3.04175
-0.763096 -0.16069 -1.31104
0.01462 -0.141466 -1.98555
-0.798901 -0.177939 0.0424587
0.0115701 -0.179839 -0.636525
-0.795949 -0.120345 1.39606
-0.00416676 -0.176112 0.721442
-0.773822 -0.0366815 2.59967
-0.0164766 -0.0647025 2.07067
-0.771315 0.0122353 3.65453
-0.761623 0.176941 3.11831
-0.0166774 -0.00870456 3.12866
-0.770957 0.218292 4.17085
-0.0200064 0.0331637 4.18039
-0.752872 0.413495 -2.99981
-0.0107204 0.120653 -3.02437
-0.761264 0.382998 3.63463
-0.745328 0.720703 3.0808
-0.0156444 0.362567 3.10796
-0.765579 0.769395 4.13918
-0.0204756 0.403423 4.16131
-0.749228 1.23302 -2.95918
-0.0100341 0.706555 -2.97524
-0.749642 1.1071 3.58534
-0.759237 1.64831 3.0347
-0.0172533 1.07883 3.05363
-0.774065 1.69801 4.09586
-0.023162 1.13538 4.11706
-0.747659 1.8078 -2.41878
0.0161498 1.75988 -2.94311
-0.759193 1.93857 -1.24914
0.0231529 1.85631 -1.89445
-0.781607 2.08021 0.0360386
0.00929197 2.0215 -0.603838
-0.789684 2.16243 1.32131
-0.0174659 2.13944 0.675915
-0.785047 2.20169 2.49124
-0.0323779 2.18567 1.9667
-0.783659 2.23921 3.54522
-0.0327631 2.21783 3.01578
-0.0328762 2.26069 4.07467
0.761739 -0.17073 -2.51365
0.743625 -0.0396518 -3.03306
1.1356 -0.203104 -3.04037
0.789287 -0.160615 -1.31104
1.15432 -0.146219 -1.98353
0.806304 -0.178012 0.0424587
1.19919 -0.174218 -0.636796
0.775306 -0.120469 1.39606
1.19937 -0.171458 0.718729
0.740668 -0.0367256 2.59967
1.13752 -0.0730676 2.06593
0.734631 0.0122238 3.65453
0.729301 0.176921 3.11831
1.1188 -0.0144936 3.12544
0.730475 0.218294 4.17085
1.11544 0.0304324 4.17853
0.732117 0.413713 -2.99981
1.11666 0.121514 -3.02395
0.725144 0.382992 3.63463
0.71243 0.720697 3.08079
1.10453 0.356495 3.10531
0.721941 0.769406 4.13918
1.10662 0.400873 4.1599
0.755344 1.23341 -2.95918
1.11179 0.720609 -2.97789
0.709227 1.10711 3.58534
0.70922 1.64836 3.0347
1.07978 1.07865 3.05405
0.718026 1.69806 4.09586
1.09419 1.13489 4.11715
0.786962 1.80839 -2.41878
1.16365 1.76958 -2.94574
0.791638 1.93924 -1.24914
1.17703 1.86548 -1.89734
0.773433 2.08074 0.0360385
1.17855 2.02372 -0.605581
0.73984 2.16268 1.32131
1.14631 2.13715 0.676124
0.719906 2.20181 2.49124
1.10772 2.18482 1.9682
0.71802 2.23931 3.54522
1.09775 2.21806 3.01727
1.09896 2.26099 4.07575
1.52818 -0.178593 -2.51025
1.50864 -0.0419377 -3.03125
1.56422 -0.159822 -1.30929
1.52596 0.0256344 -1.97612
1.59225 -0.167664 0.0394744
1.58822 0.0189263 -0.635856
1.56158 -0.124057 1.3886
1.5959 0.0228433 0.710662
1.51565 -0.0508356 2.59171
1.52115 0.104881 2.0517
1.49961 0.00371505 3.64945
1.49403 0.16508 3.11244
1.49158 0.213012 4.16758
1.50642 0.16229 -2.49713
1.49633 0.428411 -3.00203
1.54997 0.204383 -1.30269
1.50917 0.507422 -1.94836
1.59187 0.209434 0.0353313
1.58452 0.577997 -0.626904
1.55547 0.251781 1.37377
1.58197 0.609917 0.694966
1.49953 0.320796 2.57244
1.49011 0.656697 2.01725
1.486 0.374377 3.63057
1.47188 0.714445 3.07857
1.47887 0.766355 4.13787
1.49909 0.773543 -2.45327
1.52009 1.25678 -2.96446
1.54373 0.881036 -1.27258
1.53272 1.34344 -1.91311
1.57462 0.978479 0.0327312
[...]
POINT_DATA 29498
VECTORS point_vectors float
-2.77358 -4.29491 6.36927
0.153094 0.226311 0.675497
-1.93558 1.7941 4.54313
-0.140564 -0.290773 0.378872
2.81445 -4.29206 6.33153
-0.164062 0.199939 0.648209
1.89734 1.7783 4.47814
0.140195 -0.282244 0.363737
0.0181287 0.0129146 0.988228
0.0108831 0.00375183 0.577783
0 0 0
0 0 0
-0.0216806 0.0173199 1.00013
-0.0104111 -0.00160492 0.5468
0 0 0
0 0 0
-0.644374 -0.321358 19.8841
-1.19351 -0.75737 20.5707
-0.399381 -0.433114 21.388
0.100462 -0.142128 21.5637
0.686768 0.12283 21.4732
0.97995 0.224936 21.2438
0.998014 0.128579 20.3991
-0.792218 -0.254501 19.759
-1.74285 -0.663931 20.5168
-0.608198 -0.523946 21.475
0.0506818 -0.268637 21.635
0.848233 -0.0955779 21.5815
1.19143 -0.0554716 21.1524
1.06436 0.0290026 20.8092
-0.9043 0.0640727 19.6466
-2.04793 0.145742 20.3828
-1.21232 -0.261717 21.4684
-0.292743 -0.331681 21.714
0.522595 -0.546991 21.5846
0.820487 -0.662723 21.2979
0.600758 -0.504822 21.0171
-0.550229 0.366988 19.9458
-0.907759 0.63368 20.3765
-0.833924 0.452095 21.1132
-0.337066 0.0434411 21.4721
0.0427258 -0.246715 21.4066
0.229309 -0.401836 21.2431
0.308406 -0.534826 20.5864
-0.677752 -0.795383 19.3016
-1.5596 -3.17509 21.0145
-0.147113 -0.411853 21.7219
0.151587 0.096813 21.3383
0.716113 1.22038 19.4446
1.13756 1.62559 19.2151
0.920047 1.15261 19.488
-0.896578 -0.629744 18.8536
1.75044 1.37649 10.5776
1.94076 0.986156 14.1362
-1.10295 0.219779 18.4322
0.426988 -0.7563 8.31071
1.3243 -1.28006 14.1609
-0.47888 0.747828 19.5647
-0.936038 1.52796 20.0653
-1.07257 1.498 21.2325
-0.412328 0.287609 21.844
-0.0671914 -0.305053 21.505
0.0766708 -0.523806 21.2206
0.0633717 -0.473932 21.0406
0.671152 -0.790306 19.3083
1.59898 -3.04454 20.9687
0.145794 -0.426726 21.7799
-0.148122 0.102219 21.3209
-0.65074 1.21118 19.3138
-1.0551 1.61505 19.0412
-0.876457 1.25119 19.3047
0.880222 -0.65225 18.8145
-1.62244 1.32443 9.70054
-1.993 1.11164 13.0469
1.09288 0.224684 18.3864
-0.321283 -0.712158 7.10881
-1.26184 -1.23886 12.6817
0.489939 0.734206 19.5845
0.956786 1.48166 20.0836
1.07264 1.46022 21.2333
0.405978 0.310072 21.8631
0.0770474 -0.286807 21.5161
-0.0572188 -0.503681 21.2437
-0.0693602 -0.480544 21.1871
0.641805 -0.321923 19.8723
1.18396 -0.737698 20.5775
0.405096 -0.439309 21.3801
-0.0954213 -0.144667 21.5581
-0.682295 0.13114 21.4754
-0.984854 0.236728 21.23
-0.998261 0.154197 20.4693
0.804509 -0.263418 19.7347
1.76071 -0.67937 20.5179
0.615 -0.529922 21.4755
-0.0491974 -0.267783 21.6308
-0.822646 -0.102216 21.5812
-1.19377 -0.0475064 21.1621
-1.06209 0.0486691 20.876
0.911906 0.0680197 19.6328
2.05855 0.15312 20.3809
1.22002 -0.258448 21.4749
0.283411 -0.327661 21.7197
-0.508687 -0.531608 21.5741
-0.834556 -0.67493 21.3029
-0.68429 -0.550547 20.8122
0.545846 0.356356 19.9592
0.888604 0.600433 20.3869
0.824435 0.444185 21.111
0.337494 0.0431705 21.4849
-0.0352418 -0.26242 21.4063
-0.227533 -0.404091 21.2431
-0.236393 -0.540888 20.7152
-0.699542 -0.0829461 1.05519
0.000371616 -0.0886995 0.633372
-0.0168232 0.00130371 0.483528
-0.0103476 -0.0885651 0.0862462
-0.00087251 0.0102574 0.0514307
0.0247345 0.00594924 0.323076
-1.97471e-05 0.0775955 0.168408
-0.250984 -0.109573 0.734583
-0.0216948 0.255616 -0.271591
0 0 0
0.712656 -0.086094 1.08283
0.0158813 0.00105473 0.486353
0.0125747 -0.0880547 0.0797179
-0.0231216 0.007403 0.31778
0.247901 -0.10896 0.72408
0 0 0
-0.00488092 -0.00120582 0.754192
-4.57237e-05 0.000601355 0.00927623
-1.37718e-06 0.00119247 0.0293923
0.000190865 0.00260658 0.019106
3.60943e-07 -9.58802e-07 0.000281842
5.11544e-18 1.07899e-17 5.44995e-17
-5.7533e-05 0.0312887 0.0745633
-7.0433e-07 -0.000507841 0.00720987
0.00661551 -0.000896716 0.75199
6.46614e-05 5.54593e-05 0.00722617
-0.000206722 0.00266484 0.0188534
0 0 0
-4.18688e-05 -0.00011175 0.00114971
-2.4081e-06 9.88559e-05 0.000881764
0 0 0
0 0 0
0 0 0
0 0 0
0.00147392 -0.00167592 0.0341679
0 0 0
-0.000397565 0.0624818 0.368343
5.65324e-05 0.00761362 0.0834321
-2.53863e-05 0.000410347 -0.00129854
4.14951e-05 -0.000110812 0.00113741
2.70349e-06 0.000143628 0.00128378
0 0 0
-3.35211 -1.83655 20.4252
-2.44052 -5.13523 21.3408
-2.43536 -2.06682 17.7541
1.38349 0.294206 18.8728
0.707696 1.35006 12.7021
0.979972 0.817748 7.08226
-4.08871 0.829145 20.1164
-3.30113 1.26697 16.7091
-2.1706 2.66566 19.7335
0.858146 -0.549396 18.3608
-0.364314 -0.64239 4.67419
-0.0562483 -0.630669 20.5025
2.54875 -5.02355 21.2565
2.44296 -2.10778 17.6957
3.37254 -1.85613 20.4247
-0.601947 1.30559 12.2534
-0.880152 0.719278 6.51801
-1.35846 0.282292 18.9155
3.31844 1.31607 16.6197
2.18993 2.57714 19.7538
4.10106 0.840867 20.1128
0.472609 -0.539355 4.11782
0.0664651 -0.614617 20.4065
-0.837433 -0.551019 18.3818
-0.410425 -0.898353 21.703
-0.0113891 -0.102055 18.319
0.213657 -0.311662 21.0514
0.156699 0.165879 16.7153
-1.98098 -0.760929 21.8638
-3.16712 2.18698 21.5046
-0.35135 -0.53194 21.2107
-0.725809 0.0921636 21.9595
0.00022169 -0.115454 18.4509
0.42357 -0.913108 21.7004
-0.148074 0.170691 16.6665
-0.215712 -0.311756 21.1
3.12831 2.12002 21.5097
2.00344 -0.745364 21.866
0.714226 0.0920849 21.901
0.33782 -0.535181 21.2159
-0.982561 -0.578192 20.0767
-0.714765 -0.312237 19.8309
-0.695625 -0.53247 19.6382
-0.829131 -0.631063 21.2118
-1.46617 -0.749885 20.55
-1.63183 -1.62277 20.6505
-0.129589 -0.275925 21.5057
-0.518432 -0.494238 21.4194
-0.269557 -0.560255 21.6215
0.377514 -0.00373777 21.5819
0.0728965 -0.210177 21.5719
0.191854 -0.111439 21.6984
0.846872 0.196403 21.3573
0.773134 0.0340348 21.5255
0.954201 0.497968 21.4932
0.905255 0.185343 21.263
1.0929 0.0956697 21.2058
1.31831 0.681035 21.017
1.04958 0.0715503 20.5926
0.97274 0.447284 21.3837
-1.33549 -0.452269 19.9104
-0.876959 -0.142497 19.6572
-0.894695 -0.451202 19.3973
-1.20203 -0.664886 21.3238
-1.99473 -0.31135 20.4563
-0.260178 -0.397716 21.5565
-0.909072 -0.496858 21.4877
0.409593 -0.173585 21.7144
-0.0987344 -0.35218 21.7125
1.05481 -0.0586189 21.3839
0.779085 -0.358943 21.5989
1.19311 -0.212224 21.3392
1.14604 -0.390028 21.1552
1.83581 0.261045 19.0309
0.875775 -0.262341 20.9716
1.5321 0.0515127 20.1303
-1.56725 0.134006 19.7688
-0.748932 0.312234 19.7638
-1.07153 0.115676 19.174
-1.70633 -0.0947836 21.145
-1.44234 0.604213 20.3229
-0.749996 -0.322996 21.6788
-1.20867 0.254795 21.2896
0.114718 -0.394353 21.7266
-0.411557 -0.122414 21.6316
0.702978 -0.603612 21.4299
0.170073 -0.427996 21.4524
1.00525 -0.673389 20.9538
0.444294 -0.523612 21.222
1.1736 -0.83917 19.5654
0.433126 -0.744758 20.6625
1.50817 -1.13769 19.1149
-0.744207 0.533963 20.0943
-0.573055 0.540719 19.7595
-0.951012 0.576437 20.7687
-1.01093 1.01398 20.2476
-0.622434 0.258218 21.3812
-1.05322 0.855832 21.2123
-0.111704 -0.133404 21.4352
-0.401521 0.142768 21.6606
0.133485 -0.362648 21.2531
0.000884213 -0.316017 21.4635
0.20517 -0.318431 21.1191
0.15805 -0.4701 21.0086
0.0598386 -0.404807 21.3131
-1.34309 -1.91983 19.219
-0.753138 -0.732231 19.1128
-0.00193021 -1.10202 18.8974
-0.510535 -1.20844 22.1274
0.0180435 -4.00553 21.8061
0.0164518 -0.141482 21.449
-0.000565465 -0.442765 21.2323
0.445412 0.638212 20.5969
-0.00499879 0.0104024 20.0968
0.884928 1.39863 19.4516
-0.025738 0.935481 16.7266
1.2111 1.5346 19.4832
1.5359 1.77831 15.1832
-0.022649 1.36981 16.7277
1.52788 1.18312 15.742
0.0636717 2.14336 17.3851
-1.08182 -0.300851 18.5092
-0.0290084 -0.949379 18.134
2.0663 1.13335 12.543
1.29791 -0.138726 6.50396
0.0145613 0.011427 1.47063
2.08693 0.229394 13.2071
0.125479 1.83349 6.95956
-0.811791 0.784984 19.0045
-0.022156 0.378315 17.4409
0.981139 -1.07414 11.4467
0.207259 -1.0168 20.7114
0.0470515 1.27119 -5.80707
0.161197 -1.05227 19.8288
0.102529 0.488781 -2.63801
-0.73596 1.19757 19.6944
0.0141411 0.941159 19.3497
-1.09844 1.62639 20.5776
0.0399894 2.12095 19.8785
-0.794125 0.933038 21.7896
0.0226586 2.37919 21.2111
-0.171649 -0.115442 21.6685
-0.00734004 0.580284 22.0225
-0.0138194 -0.417344 21.4382
-0.0068699 -0.180411 21.6123
0.124795 -0.593198 20.7462
-0.00861058 -0.468925 21.3955
0.00255435 -0.584854 21.3373
1.34807 -1.87321 19.2412
0.748687 -0.741449 19.1014
0.696346 -0.53316 19.6364
0.529224 -1.19923 22.0928
1.61889 -1.56516 20.6383
-0.0210715 -0.140627 21.4623
0.285909 -0.568765 21.6083
-0.423004 0.647409 20.4903
-0.191063 -0.11041 21.6921
-0.81668 1.40361 19.3223
-0.95015 0.531466 21.3904
-1.17794 1.58487 19.2314
-1.45107 1.74161 14.9265
-1.32085 0.704507 21.0218
-1.49365 1.26679 15.4792
-0.978834 0.48292 21.5062
1.07402 -0.306293 18.4592
0.897282 -0.45507 19.3678
-2.0659 1.17847 11.5921
-1.1445 -0.152218 5.61065
-1.87471 0.293122 18.7548
-2.04766 0.220084 11.7984
-1.60151 0.0577635 19.9889
0.81231 0.780575 19.0106
1.06907 0.116189 19.1512
-0.862472 -1.03462 9.90803
-0.166905 -0.977646 20.3597
-1.16927 -0.804881 19.2257
-0.172883 -1.09018 19.3968
-1.49867 -1.16817 19.2324
0.751013 1.17416 19.7077
0.57819 0.528839 19.7748
1.10676 1.5723 20.5877
1.00526 0.955135 20.2656
0.788899 0.942735 21.7927
1.04652 0.837992 21.2049
0.171845 -0.106296 21.674
0.404376 0.153252 21.6777
0.026978 -0.397456 21.4498
0.00336127 -0.312696 21.4466
-0.100322 -0.593076 20.7351
-0.155254 -0.470689 21.0563
-0.0821012 -0.45613 21.3238
0.972816 -0.570475 20.1043
0.721842 -0.318743 19.8163
0.834455 -0.631454 21.2023
1.4617 -0.74877 20.5536
0.130842 -0.282776 21.5071
0.523093 -0.499066 21.4099
-0.374247 -0.00195767 21.5859
-0.068116 -0.213114 21.5615
-0.843083 0.207638 21.3794
-0.757906 0.0335251 21.5288
-0.951459 0.183611 21.2098
-1.09837 0.0973283 21.2369
-1.0499 0.0953444 20.6627
1.3607 -0.470395 19.8969
0.882983 -0.149957 19.6428
1.21168 -0.672959 21.3223
2.0178 -0.314875 20.4605
0.261275 -0.399601 21.5605
0.915526 -0.502114 21.4976
-0.402183 -0.174022 21.7046
0.0946395 -0.350963 21.7103
-1.03922 -0.0668167 21.3836
-0.758566 -0.355287 21.5992
-1.25977 -0.181412 21.2821
-1.15394 -0.406726 21.1604
-0.947246 -0.313485 20.7715
1.5843 0.143022 19.7589
0.745594 0.309242 19.7716
1.71291 -0.089542 21.1471
1.41892 0.581163 20.3276
0.750615 -0.320391 21.6831
1.1982 0.257668 21.2899
-0.10788 -0.388243 21.7152
0.410729 -0.123318 21.6421
-0.693212 -0.612177 21.4125
-0.15979 -0.434275 21.471
-0.971721 -0.693691 21.0151
-0.412242 -0.536373 21.246
-0.433806 -0.736617 20.8253
0.731325 0.511558 20.1096
0.930363 0.562962 20.766
0.6248 0.258243 21.3818
0.110979 -0.134308 21.4529
-0.124662 -0.34835 21.2385
-0.179811 -0.346785 21.0908
-1.14976 -0.55087 20.0068
-1.81504 -2.17297 18.6128
-1.26417 -1.08741 19.7459
-1.93723 -0.990564 19.243
-0.800597 -0.500151 19.519
-2.36941 -1.88383 20.5722
-1.01847 -0.665343 21.2487
-0.303909 -0.869262 19.9476
-0.832473 -1.074 21.5945
-1.42193 -1.38861 22.0544
-0.282487 -0.694824 21.7126
-0.196905 -0.352476 21.525
0.0967508 0.0428641 17.0854
-0.0270257 -0.322529 21.6327
-0.0677338 -0.578676 21.251
0.243054 -0.209785 21.6054
0.378266 -0.0800851 21.6273
0.566419 0.676326 14.1987
0.558278 0.17848 21.7237
0.669902 -0.0444731 20.0876
1.24351 0.470227 20.7777
0.971409 0.0896525 21.3704
1.04152 1.44944 13.9913
1.14567 0.651524 21.1588
1.61665 0.296008 19.3597
1.55311 0.539299 20.5968
1.05131 -0.0125811 21.2978
1.71083 1.3743 14.9982
1.42446 0.835026 20.8791
2.01071 0.300954 18.7705
1.18319 0.29445 21.039
-1.50585 -0.219593 19.8131
-3.36574 -0.719701 16.5337
-2.3599 0.407985 18.9307
-1.06442 -0.188031 19.1989
-4.40861 -0.617548 20.1911
-1.53753 -0.455626 21.2869
-2.82522 -0.191352 21.6018
-1.01311 -1.07519 21.6661
-0.475778 -0.446444 21.6283
-1.13312 -0.755618 21.7437
0.0343657 -0.410606 20.2145
0.292108 -0.311369 21.7704
0.343598 -0.319456 19.9533
1.2374 -0.138116 16.8891
0.99473 -0.38083 21.4263
0.112983 -0.561768 3.30071
0.885012 -0.762191 19.2253
1.64056 -0.380836 18.6258
1.18014 -0.503632 21.2154
2.12579 -0.0764107 9.11331
1.24612 -1.00558 19.8472
1.68364 -0.694503 19.3082
-1.14253 0.510798 19.9139
-1.53505 1.77169 18.8753
-0.814857 0.829179 19.9062
-0.826402 0.483217 19.4534
-2.01424 1.34242 20.0911
-1.43962 0.446911 20.8756
-2.49645 2.28665 20.4416
-1.12224 1.02383 20.7023
-1.96544 0.631011 21.4762
-0.834784 0.0553001 21.5802
-2.12437 1.00883 22.5136
-0.761315 0.517505 21.5629
-0.574736 -0.0742774 21.9603
-0.0721935 -0.28371 21.586
-0.0796962 -0.455975 20.8962
-0.155308 -0.134674 21.5714
0.067785 -0.598421 21.5959
0.306254 -0.515391 21.3518
0.0295126 -0.737905 20.5052
0.0798224 -0.39277 21.2846
0.300277 -0.788562 21.5145
0.438118 -0.471701 21.2074
0.384772 -1.09047 19.487
0.209896 -0.562808 21.2808
0.215117 -0.766677 21.3887
1.81775 -2.16423 18.6171
0.0163509 -3.14642 18.6472
-0.0301658 -4.17246 15.3608
-0.0103935 -1.08174 18.5993
-0.00996102 -4.99374 22.8182
0.30788 -0.909117 20.2348
0.00482353 -1.25532 22.4083
-0.00111829 -0.0707534 14.1559
-0.0971365 0.0435314 17.1391
-0.00368756 -0.186942 20.5203
-0.00214568 0.0165577 12.5824
-0.544729 0.670402 13.9349
-0.00941722 0.561244 18.4551
-0.0622182 0.674359 8.06989
-0.941705 1.41307 13.454
-0.0295676 1.0787 16.7606
-0.0834915 -0.546331 0.779707
-0.0296619 0.670256 8.48853
-1.6743 1.40585 14.6886
0.0223238 2.05827 17.1783
0.066972 0.767835 3.37241
0.0917144 2.00648 12.5422
3.38369 -0.732646 16.4442
-0.035404 3.29466 13.2169
-0.0209702 -0.39552 17.5479
0.0341548 -0.517127 2.9448
-0.0024049 0.9202 -4.85009
0.212765 -0.215124 -4.29378
-2.00701 -0.0161606 8.15522
0.083057 1.22519 -4.20212
0.187403 1.27631 -1.43175
1.53936 1.73787 18.9084
0.0262607 1.62796 19.465
0.00316277 1.12904 18.5007
0.0353561 4.11087 19.3748
2.49201 2.21946 20.4614
0.0347912 2.35896 20.382
0.0172775 5.19524 20.9619
2.12321 1.02543 22.5265
-0.00461358 1.57145 22.0481
-0.0139646 0.624396 20.9957
0.0799036 -0.457931 20.8481
-0.00715807 0.0104418 21.7044
-0.0285638 -0.127049 15.032
-0.00411051 -0.697415 20.3745
-0.00564468 -0.299816 21.5007
-0.0445653 -0.546739 15.8346
-0.365231 -1.07492 19.0497
0.0109885 -0.52753 21.439
-0.0302574 -0.588794 14.8633
1.15349 -0.55568 20.0153
1.26189 -1.07517 19.7478
1.96212 -1.0058 19.208
0.803264 -0.510939 19.5026
2.34174 -1.83054 20.568
1.02563 -0.670193 21.233
0.84553 -1.06618 21.5658
1.4273 -1.39758 22.0477
0.299598 -0.70243 21.7023
0.198701 -0.354264 21.5299
0.0316055 -0.327051 21.6275
0.0737979 -0.584952 21.2742
-0.242148 -0.207008 21.5971
-0.372302 -0.0834121 21.6212
-0.555529 0.181928 21.7144
-0.659379 -0.0478932 20.1323
-1.22662 0.487301 20.6326
-0.966135 0.0926229 21.3706
-1.13913 0.682766 21.1079
-1.59641 0.308157 19.1773
-1.59809 0.570137 20.3311
-1.12608 0.00875363 21.2145
-1.46393 0.890657 20.8383
-2.02854 0.373365 18.5432
-1.25412 0.295948 20.9281
1.53156 -0.228736 19.8016
2.39016 0.429717 18.891
1.06739 -0.188964 19.1719
4.43368 -0.618005 20.1846
1.54897 -0.458893 21.2905
2.83555 -0.184982 21.5883
1.0406 -1.07974 21.6816
0.474749 -0.447074 21.6402
1.13312 -0.745714 21.7526
-0.0463648 -0.411214 20.2596
-0.28709 -0.309013 21.7671
-0.342344 -0.329176 19.9787
-1.22112 -0.137688 16.9598
-0.987243 -0.389504 21.4357
-0.865712 -0.736731 19.0231
-1.63667 -0.346136 18.1757
-1.19083 -0.4875 21.2448
-1.2884 -1.03234 19.6431
-1.7514 -0.698012 19.1966
1.13177 0.499423 19.9247
0.818625 0.795402 19.9268
0.825991 0.482044 19.455
1.99462 1.28617 20.1057
1.42271 0.445878 20.8739
1.1177 0.992184 20.704
1.9473 0.627443 21.4707
0.836554 0.0571552 21.5819
0.762368 0.525949 21.5672
0.576371 -0.0762837 21.9724
0.0715443 -0.283473 21.5881
0.155009 -0.132811 21.5795
-0.0546115 -0.604199 21.5981
-0.293874 -0.529015 21.3457
-0.0713332 -0.402742 21.2772
-0.315138 -0.822738 21.4779
-0.45631 -0.515584 21.0963
-0.205631 -0.589944 21.2703
-0.185475 -0.79037 21.5035
-1.57004 -1.08382 19.5189
-1.03442 -1.23636 21.779
0.00110134 -0.441156 21.6385
0.690678 0.0865708 21.2695
1.48549 0.567244 20.5291
1.73738 0.588085 20.1491
-2.38659 -0.364031 18.912
-2.24525 -1.01409 22.1515
-0.400508 -0.778826 20.7079
0.468837 -0.0889493 18.9615
1.43695 -0.357286 18.0693
1.69899 -0.337531 19.3366
-1.45261 0.946285 19.502
-2.08006 1.02758 20.8324
-1.31813 0.253054 21.9391
-0.112171 -0.372969 21.7652
0.191917 -0.698955 21.446
0.529623 -0.928394 20.9254
-0.000160213 -3.9003 17.4693
0.00270074 -0.461072 15.958
-0.00177974 0.0222682 12.7976
-0.0196806 0.498537 9.97679
-0.0782034 0.411006 8.06309
0.044722 1.43128 10.3031
-0.0363528 -1.04201 12.5438
0.0213241 -0.246375 -3.27929
0.20776 0.955393 -3.40164
0.0218024 2.873 18.1751
0.0315916 3.94041 19.72
-0.00757721 2.84689 22.4297
-0.00928233 -0.138429 17.7738
-0.054995 -0.10243 15.2943
-0.0455187 -0.797443 14.9422
1.57582 -1.0882 19.5107
1.04942 -1.2224 21.7459
0.00605216 -0.44474 21.6426
-0.683917 0.0901124 21.2196
-1.4727 0.586386 20.2846
-1.7668 0.663037 19.9385
2.40769 -0.365388 18.8766
2.25365 -1.0191 22.1425
0.407985 -0.777029 20.7421
-0.46831 -0.0941079 19.0143
-1.4079 -0.341758 17.7649
-1.76545 -0.325654 18.8638
1.44429 0.922169 19.5161
2.05508 1.00287 20.8315
1.31988 0.259747 21.946
0.112119 -0.378804 21.7721
-0.174902 -0.700491 21.4454
-0.528903 -0.980923 21.1179
-1.23944 -0.309202 1.24804
0.0061352 -0.180817 0.766927
-0.0145427 -0.0276541 0.476897
0.0206286 -0.0483783 0.0384868
-0.00788448 0.0239084 0.117942
0.0478107 0.112287 1.3468
-0.0156428 0.00250459 0.0273844
-0.0294148 0.16412 0.382881
-0.196145 0.0275862 0.628782
-0.0162038 -0.0566377 0.0325695
-0.30111 0.0693426 -0.149336
0.00190045 -0.00764457 0.102817
-0.00585628 -0.197879 0.824296
1.20794 -0.283796 1.22194
0.0140136 -0.0302753 0.506965
0.00895942 0.019284 0.0821814
-0.020844 -0.0501496 0.0385655
-0.0367985 0.119066 1.32817
0.031181 0.163301 0.38106
0.0326087 0.00516826 0.0567382
0.192043 0.0274798 0.614662
0.281783 0.107514 -0.192866
0.0182643 -0.0569411 0.0299775
-0.00234241 -0.00713864 0.101954
-0.017236 0.00275525 0.827719
0.00402499 0.000408405 0.28894
0 0 0
0.000251502 0.000273468 0.00856618
0.210126 0.133735 1.28271
-0.00300001 0.00348152 0.696717
0 0 0
0 0 0
-0.0297228 -0.0140539 0.0609447
-0.00189029 0.00708357 0.104537
0 0 0
-0.0260041 0.0323487 0.0825758
0 0 0
0.000941259 0.00407955 0.019418
0 0 0
0.00317744 -0.00161813 0.0223187
0.0146769 0.00217128 0.835193
-0.000414433 0.000597487 0.0151647
-0.00355138 0.000440442 0.289801
0 0 0
-0.168005 0.105201 1.01599
0 0 0
0.00537013 0.00411015 0.706631
0 0 0
0.0205986 -0.00993238 0.0429844
0.0244388 0.0310341 0.0789474
0.00139477 0.00760371 0.098109
0 0 0
0 0 0
-0.00327463 -0.00166009 0.0229556
-0.00111592 0.00467927 0.0218852
0 0 0
-0.0660693 -0.045342 0.375775
-0.287795 0.0514392 0.161758
8.34962e-06 3.70446e-06 0.000623274
-5.28951e-05 -0.0592565 0.0157108
-0.00942857 -0.0208969 0.358971
0 0 0
0.0127882 0.00188359 0.084866
0 0 0
-0.00011215 0.000622203 0.00680334
0 0 0
0 0 0
0 0 0
0 0 0
5.72286e-05 0.0116643 0.0582354
-0.000593347 -0.00274843 0.0192817
-0.044928 0.00693487 0.0910227
0 0 0
-0.000734266 0.00433947 -0.0122278
0 0 0
-0.000638361 -0.000263562 0.000820772
0.292001 0.0513728 0.163685
0.132163 -0.0938698 0.777019
0 0 0
0.00954624 -0.0220282 0.361306
0 0 0
-0.0195736 0.00199896 0.127031
0 0 0
-0.000655163 0.00182987 0.0471147
0 0 0
0.000728692 -0.00338278 0.0237417
0.000554487 -0.000239104 0.000783212
0 0 0
-3.76224e-19 6.43377e-18 7.22952e-17
3.32652e-05 6.2094e-06 0.000750532
0 0 0
4.33992e-06 -3.15098e-05 -0.000428302
-1.5738e-07 -4.29072e-07 -8.99922e-05
7.25197e-07 2.4827e-06 0.00052296
-9.74858e-05 0.00286027 0.022823
-0.000442724 0.00101415 0.0100407
-4.292e-09 -3.29931e-09 -2.30088e-06
-0.000340712 0.00781607 0.156525
0.000532157 0.00550468 0.0249909
0.00403287 0.0130624 0.197189
0.000375101 0.00791392 0.0173635
-2.55494e-05 0.048591 0.168709
2.45798e-05 0.00102649 0.0793049
-2.06609e-05 -0.00076784 0.00820859
-5.41221e-05 1.00458e-05 0.00123927
0 0 0
0 0 0
0 0 0
2.4687e-05 0.00539863 0.0440362
0.00058594 0.00137736 0.0131907
-0.00404325 0.013889 0.21059
-0.000650663 0.00638912 0.0285245
-0.0552448 -0.0328878 0.319478
-0.446327 -0.310188 1.79632
-0.00154193 -0.0033508 0.186025
0.000521632 -0.00483851 0.0271029
0 0 0
8.93364e-05 0.011086 0.0580678
0 0 0
0.00708858 0.070182 0.41992
-0.00242117 -0.000271582 0.0835948
0.000318075 0.00124896 0.00639878
0.0100742 0.00747917 0.129806
0.00196774 -0.00219465 0.0227962
-6.63103e-08 4.00316e-06 0.0013289
5.96729e-07 3.49088e-06 0.00129356