# vtk DataFile Version 2.0
tri_press
ASCII
DATASET UNSTRUCTURED_GRID
POINTS 3682 float
-0.765 0.245 -2.15488
-0.755 0.385 2.31595
-0.762719 0.915 -2.115
-0.635 1.50564 2.005
0.764923 0.245 -2.155
0.755 0.385 2.31595
0.755 0.915 -2.11888
0.635 1.50566 2.005
-0.849403 0.20393 -0.664604
-0.868361 0.228306 0.825673
-0.666899 1.05863 -0.741667
-0.716614 1.3478 0.631667
0.849352 0.20393 -0.664683
0.868364 0.228277 0.825633
0.660228 1.05711 -0.744253
0.716016 1.34979 0.630374
-1.50842 -0.285678 -3.25296
-1.52587 -0.224099 -2.10723
-1.59157 -0.254552 -0.614048
-1.62056 -0.263559 0.902437
-1.55982 -0.157818 2.39757
-1.53757 -0.036329 3.55291
-1.54057 0.0862135 4.69043
-1.50934 0.12818 -3.27561
-1.51431 0.210568 -2.14249
-1.57984 0.215297 -0.672037
-1.60683 0.259928 0.808755
-1.51365 0.38717 2.28143
-1.50762 0.50868 3.43514
-1.52457 0.626019 4.57649
-1.50612 0.883023 -3.28777
-1.48311 0.956523 -2.14929
-1.45086 1.09593 -0.758455
-1.48083 1.33116 0.623851
-1.41095 1.49335 2.01683
-1.44991 1.60549 3.17531
-1.49468 1.70802 4.33541
-1.51596 2.12929 -3.39436
-1.50084 2.23973 -2.27374
-1.47252 2.4728 -0.920258
-1.46159 2.7757 0.407854
-1.45976 3.0193 1.76233
-1.47106 3.15533 2.88503
-1.49275 3.26341 4.03226
-0.746604 -0.263579 -3.2611
-0.752875 -0.195503 -2.11867
-0.811564 -0.256703 -0.612962
-0.845765 -0.287149 0.916917
-0.801243 -0.167516 2.42316
-0.78902 -0.0410351 3.57021
-0.794757 0.0838723 4.70035
-0.755901 0.142827 -3.27877
-0.773197 0.508347 3.4494
-0.786982 0.626518 4.58393
-0.762401 0.869813 -3.27442
-0.730921 1.6137 3.17282
-0.768516 1.71431 4.33472
-0.779356 2.10979 -3.38101
-0.771104 2.2158 -2.2589
-0.74235 2.45794 -0.911513
-0.73105 2.78341 0.406211
-0.735549 3.03516 1.75388
-0.7464 3.169 2.87664
-0.76377 3.2738 4.0261
0.783258 -0.263692 -3.26198
0.804128 -0.195561 -2.11902
0.844164 -0.256702 -0.613189
0.832323 -0.287111 0.916772
0.754797 -0.167474 2.42307
0.720728 -0.0409455 3.57005
0.703925 0.0840119 4.70009
0.764523 0.14272 -3.27993
0.701523 0.508423 3.44928
0.692407 0.626661 4.58368
0.741139 0.869665 -3.27676
0.662594 1.61384 3.17265
0.677423 1.71451 4.33442
0.697954 2.10954 -3.38299
0.690056 2.21551 -2.26095
0.701404 2.45783 -0.913225
0.712688 2.78384 0.405043
0.696981 3.03564 1.75315
0.690696 3.16936 2.87606
0.688642 3.2741 4.02555
1.54493 -0.285966 -3.25495
1.56386 -0.224383 -2.10862
1.61663 -0.254573 -0.61505
1.62273 -0.263255 0.901824
1.54109 -0.157617 2.39721
1.48806 -0.036087 3.55247
1.46288 0.0865196 4.68983
1.52185 0.127846 -3.27808
1.52268 0.210114 -2.14436
1.58522 0.215153 -0.673377
1.61592 0.260506 0.808056
1.52067 0.387351 2.28117
1.46324 0.508921 3.43477
1.44606 0.626342 4.57591
1.48635 0.882581 -3.29177
1.46993 0.955793 -2.15384
1.44408 1.09504 -0.761835
1.48904 1.33286 0.622072
1.41994 1.49392 2.0163
1.40881 1.6059 3.1748
1.41914 1.70844 4.33473
1.44204 2.12884 -3.39808
1.43106 2.23923 -2.27751
1.4356 2.47267 -0.923446
1.4454 2.77644 0.405603
1.42973 3.02017 1.76083
1.42287 3.15603 2.88383
1.4236 3.264 4.03114
-0.773211 0.58 -2.14429
-3.85046e-05 0.242996 -2.15694
-0.802548 0.229119 -1.40974
-0.780811 0.94532 2.24629
0 0.389065 2.31188
-0.768442 0.349891 1.57081
-0.00385949 1.03532 -2.23726
-0.735132 1.00714 -1.42833
0 1.52306 2.02241
-0.685901 1.43681 1.31833
0.772169 0.58 -2.14915
0.8021 0.229502 -1.40984
0.780802 0.94533 2.24628
0.768665 0.349655 1.57079
0.728786 1.00723 -1.43157
0.685597 1.43781 1.31769
-0.840341 0.234659 0.0805349
-0.856339 0.631281 -0.703135
-2.56697e-05 0.199245 -0.664644
-0.85624 0.788054 0.72867
1.66365e-06 0.192114 0.825653
-0.741687 1.25315 -0.0549999
-0.00333529 1.14118 -0.74296
-0.000298881 1.60268 0.63102
0.840379 0.234582 0.080475
0.856287 0.630523 -0.704468
0.856244 0.789033 0.728003
0.740745 1.25608 -0.05694
-0.845511 0.605641 -1.41904
0.845616 0.605261 -1.4207
-3.20872e-05 0.209227 -1.40979
-0.00359739 1.09027 -1.42995
-0.001949 0.58 -2.24467
-0.847929 0.709668 0.0127675
0.847724 0.709778 0.0117675
-1.2003e-05 0.19912 0.080505
-0.00181709 1.56131 -0.05597
-0.871444 0.866687 1.44457
0.871121 0.867182 1.44424
8.31825e-07 0.264386 1.5708
-0.000149441 1.61179 1.31801
0 0.945325 2.30666
-0.769005 0.4125 -2.14949
-0.382519 0.242866 -2.15704
-0.784813 0.23602 -1.78231
-0.803364 0.66516 2.31658
-0.3775 0.389034 2.31192
-0.768274 0.360893 1.94338
-0.777351 0.7475 -2.13903
-0.383289 0.965677 -2.16665
-0.767681 0.979825 -1.77167
-0.709074 1.22548 2.12681
-0.3175 1.52266 2.02202
-0.670936 1.48171 1.66167
0.382442 0.24286 -2.15711
0.768474 0.4125 -2.152
0.78476 0.236002 -1.78242
0.3775 0.38912 2.31183
0.80561 0.665165 2.31882
0.768601 0.360559 1.94337
0.37557 0.967265 -2.17018
0.776094 0.7475 -2.14652
0.761016 0.980238 -1.77522
0.3175 1.52268 2.02202
0.709147 1.2255 2.12688
0.670746 1.48218 1.66134
-0.798408 0.244092 -1.03717
-0.854621 0.209546 -0.292034
-0.847735 0.420174 -0.683869
-0.423161 0.204694 -0.664624
-0.767644 0.339856 1.19824
-0.841929 0.243905 0.453104
-0.858255 0.510202 0.777172
-0.440561 0.197447 0.825663
-0.686451 1.01832 -1.085
-0.842444 0.88537 -0.722401
-0.752764 1.20436 -0.398333
-0.34619 1.12205 -0.742313
-0.702918 1.39397 0.975
-0.800537 1.07498 0.680169
-0.730467 1.30179 0.288333
-0.413502 1.58533 0.631344
0.794984 0.247458 -1.03726
0.424246 0.202422 -0.664664
0.854545 0.209576 -0.292104
0.847428 0.419922 -0.684576
0.769431 0.338049 1.19821
0.440548 0.197465 0.825643
0.841955 0.243847 0.453054
0.858135 0.51074 0.776818
0.683755 1.02142 -1.08791
0.339748 1.12175 -0.743607
0.842467 0.885923 -0.724361
0.751665 1.20777 -0.400597
0.702471 1.39547 0.97403
0.412431 1.58538 0.630697
0.800134 1.07641 0.679189
0.729704 1.30426 0.286717
-0.842676 0.59282 -1.78166
-0.38758 0.58 -2.23874
-3.52959e-05 0.227943 -1.78337
-0.000993751 0.411498 -2.34898
-0.837171 0.41738 -1.41439
-0.40129 0.209478 -1.40977
-0.842635 0.906003 1.84543
-0.390405 0.945323 2.3067
4.15913e-07 0.330554 1.94134
0 0.667195 2.30849
-0.896532 0.608289 1.50769
-0.384221 0.29072 1.57081
-0.00372844 1.05072 -1.83361
-0.00290424 0.807662 -2.24407
-0.819609 0.80639 -1.42369
-0.369365 1.06238 -1.42914
-7.47203e-05 1.61207 1.67021
0 1.23419 2.16597
-0.773528 1.15175 1.38145
-0.343025 1.6069 1.31817
0.846835 0.592631 -1.78493
0.38511 0.58 -2.23898
0.840867 0.417382 -1.41527
0.401034 0.209529 -1.40982
0.842595 0.906256 1.84526
0.390401 0.945328 2.30591
0.896531 0.608419 1.50752
0.384333 0.297011 1.5708
0.824507 0.806245 -1.42614
0.362594 1.06249 -1.43076
0.773319 1.1525 1.38096
0.342724 1.6069 1.31785
-0.856619 0.465921 0.0466512
-0.42633 0.204582 0.0805199
-0.837929 0.618461 -1.06109
-0.85651 0.670475 -0.345184
-2.88785e-05 0.19985 -1.03722
-1.88364e-05 0.199295 -0.292069
-0.856581 0.748861 0.370719
-0.876221 0.82737 1.08662
-5.1697e-06 0.198943 0.453079
1.24774e-06 0.192191 1.19823
-0.823509 0.995758 -0.0211162
-0.44681 1.55735 -0.055485
-0.00346634 1.11602 -1.08646
-0.00257619 1.45012 -0.399465
-0.00105798 1.57125 0.287525
-0.000224161 1.60843 0.974515
0.856467 0.465972 0.0461212
0.427352 0.202514 0.08049
0.833259 0.617892 -1.06259
0.856389 0.67015 -0.34635
0.856603 0.749406 0.369885
0.876139 0.828108 1.08612
0.823115 0.997367 -0.0225862
0.443836 1.55744 -0.056455
-0.831602 0.41494 -1.78199
-0.826659 0.417493 -1.04913
-0.832823 0.825674 -1.07304
-0.845794 0.776945 -1.77667
0.836698 0.414941 -1.78367
0.855108 0.776873 -1.78007
0.828108 0.825032 -1.07525
0.821524 0.417304 -1.04992
-0.391905 0.227014 -1.78284
0.391738 0.228142 -1.78289
0.412848 0.201037 -1.03724
-0.413002 0.202452 -1.0372
-0.376327 1.02424 -1.80264
-0.352241 1.08849 -1.08573
0.34552 1.08847 -1.08718
0.369082 1.02439 -1.80442
-0.38505 0.411999 -2.32518
-0.385435 0.777581 -2.22396
0.38034 0.777581 -2.22459
0.383776 0.411999 -2.32467
-0.850934 0.443669 -0.318609
-0.856882 0.488339 0.411911
-0.81398 1.03635 0.329526
-0.834822 0.941486 -0.371759
0.850845 0.443499 -0.319227
0.834549 0.942524 -0.373474
0.813213 1.03768 0.328301
0.856922 0.488545 0.41147
-0.424509 0.205112 -0.292052
0.425801 0.202465 -0.292087
0.432658 0.202573 0.453067
-0.432178 0.20355 0.453092
-0.43309 1.41288 -0.398899
-0.430788 1.5726 0.287929
0.428769 1.57268 0.287121
0.428314 1.41264 -0.400031
-0.895405 0.558234 1.14243
-0.88974 0.636724 1.89441
-0.75444 1.18862 1.75355
-0.788855 1.10984 1.03081
0.895403 0.558537 1.14217
0.788547 1.11095 1.03008
0.754336 1.189 1.7533
0.88975 0.636792 1.89431
-0.4092 0.246617 1.19824
0.409258 0.276043 1.19822
0.380916 0.35249 1.94236
-0.38086 0.344447 1.94236
-0.350741 1.60241 0.974758
-0.330263 1.60936 1.66594
0.330112 1.60936 1.66578
0.350291 1.60244 0.974273
-0.383953 0.666178 2.29975
0.38395 0.66618 2.30918
0.35395 1.22984 2.15802
-0.353953 1.22984 2.15803
-0.766267 0.32875 -2.15145
-0.57376 0.248406 -2.15149
-0.777742 0.237675 -1.9686
-0.790599 0.52508 2.32768
-0.56625 0.378508 2.32244
-0.781234 0.35335 2.12967
-0.779247 0.83125 -2.13623
-0.573004 0.92611 -2.12659
-0.773495 0.955708 -1.94333
-0.673602 1.36556 2.06747
-0.47625 1.52188 2.02124
-0.661968 1.50268 1.83333
0.573683 0.248423 -2.15156
0.766254 0.32875 -2.15306
0.777447 0.237896 -1.96871
0.56625 0.381231 2.31972
0.790601 0.525082 2.32768
0.783434 0.351146 2.12966
0.565285 0.92568 -2.12908
0.772863 0.83125 -2.14002
0.767333 0.956944 -1.94705
0.47625 1.52192 2.02126
0.67363 1.36558 2.0675
0.661825 1.50287 1.83317
-0.807252 0.240665 -0.850888
-0.85475 0.204 -0.478319
-0.815308 0.328683 -0.674236
-0.636886 0.203104 -0.664614
-0.764492 0.337591 1.01196
-0.851203 0.240047 0.639389
-0.867058 0.367379 0.801423
-0.661783 0.198232 0.825668
-0.69504 1.05684 -0.913333
-0.804407 0.996869 -0.732034
-0.73922 1.16089 -0.57
-0.511374 1.1 -0.74199
-0.709724 1.37084 0.803334
-0.758754 1.21148 0.655918
-0.723732 1.32499 0.46
-0.608063 1.55258 0.631505
0.803419 0.244443 -0.850973
0.636836 0.203102 -0.664673
0.854766 0.203936 -0.478394
0.814994 0.328624 -0.67463
0.768103 0.333958 1.01192
0.661766 0.198251 0.825638
0.851216 0.240006 0.639344
0.867079 0.367594 0.801226
0.690411 1.05769 -0.916082
0.504789 1.09903 -0.74393
0.801855 0.996773 -0.734307
0.735596 1.16209 -0.572425
[...]
POINT_DATA 3682
SCALARS point_scalars float 1
LOOKUP_TABLE default
-90.0227
-57.5418
-132.445
-48.2692
-89.6198
-57.4735
-140.534
-48.1483
-45.9727
-50.2833
-14.9371
-53.0354
-45.9139
-50.0492
-12.7888
-53.0787
-70.2865
-102.143
-40.1355
-60.093
-54.3605
-56.1917
-55.1449
49.78
-117.442
-45.7397
-65.4626
-56.0312
-52.6877
-51.9654
-52.4957
-170.089
-44.7169
-50.1002
-46.97
-47.9385
-47.1208
-114.175
-92.2049
-99.7055
-62.9627
-46.6932
-50.1261
-46.1607
75.9536
-136.787
-43.4781
-69.193
-57.6034
-53.666
-49.8031
75.9536
-49.0401
-48.7154
148.364
-44.6687
-45.4333
-71.128
-99.0798
-37.5027
-63.9862
-46.384
-48.3823
-43.9036
81.4575
-136.465
-44.0397
-69.6325
-57.6892
-54.1333
-50.115
81.4575
-49.8645
-48.741
150.109
-44.7064
-44.7064
-71.7866
-107.537
-35.5828
-63.7214
-46.2564
-48.3069
-42.1094
-71.0001
-101.333
-40.1142
-74.059
-54.2748
-56.1387
-53.7684
40.4294
-114.779
-45.6653
-64.9554
-56.0419
-52.7532
-52.1549
-36.2905
-148.508
-44.57
-50.1411
-46.8697
-47.8821
-46.8953
-120.906
-91.633
-94.6177
-62.4488
-46.6686
-50.0004
-46.0729
-113.48
-184.961
-51.1432
-50.8199
-51.4467
-47.196
-157.813
-36.6305
-36.6541
-46.8678
-135.068
-51.2176
-50.8152
-47.4337
-37.2385
-46.91
-41.6162
-42.2585
-47.3459
-43.9257
-52.2864
-71.2056
25.781
-62.1089
-41.6533
-42.08
-43.9803
-71.5603
-52.2619
-53.0268
-61.8339
-17.6003
201.392
-46.3569
-46.3818
-45.4182
-105.933
-48.6714
-48.6978
-54.8599
-49.209
-47.8781
-83.3141
-150.282
-70.2099
-51.3733
-52.4932
-46.5691
-125.043
-149.105
-62.6862
-44.615
-38.6912
-46.123
-150.621
-86.167
-70.1901
-52.8877
-51.5836
-47.8045
-152.709
-140.173
-62.573
-38.6197
-44.5015
-46.1236
-38.6007
-45.1029
-42.2502
-46.2704
-50.8019
-40.8814
-42.2499
-54.9613
-18.7191
-44.489
-92.3296
18.1309
-49.3292
-48.9153
-59.4731
-59.6469
-38.1574
-46.2597
-45.0948
-42.1559
-50.7832
-55.3293
-41.0248
-42.3532
-18.6536
18.9623
-44.4824
-93.5546
-49.3409
-59.6936
-48.9955
-59.5717
-84.2128
178.5
-83.8083
121.126
-53.0527
-58.9366
-50.2783
-48.1973
-50.4959
-48.549
-48.9339
-53.3193
-50.8068
183.632
-48.1835
-23.0828
-45.6149
-31.8555
-47.5765
-48.5884
-86.5698
179.975
-53.5089
-58.5254
-50.2341
-47.5394
-48.9561
-51.7111
-48.7387
-23.0554
-47.7149
-48.5927
-43.4048
-44.6491
-39.8008
-46.3304
-52.9055
-45.1624
-45.582
-46.0548
-47.8384
-54.3962
-56.2773
-101.96
5.60162
7.54705
-69.6076
-53.9078
-43.4255
-44.622
-39.1577
-46.3367
-45.6349
-46.0956
-56.3847
-102.376
-81.5549
-39.8316
-37.1925
-76.6947
-82.1952
-78.4445
-36.7301
-39.2447
-79.8741
-79.9413
-51.678
-51.2069
-54.7067
-0.738825
-0.391358
-54.568
149.602
147.824
148.417
148.663
-43.9497
-42.5644
-52.3667
-57.4198
-43.936
-57.5648
-52.4323
-42.6036
-44.4685
-44.4279
-47.3279
-47.2839
16.1287
-69.9017
-69.925
16.7903
-50.5249
-51.0889
-48.0101
-47.6613
-50.5201
-47.7286
-47.9956
-51.1057
-53.9023
-53.6801
-50.5154
-50.4689
-53.2463
-46.2465
-46.2376
-53.2857
-48.2245
-48.3628
-35.274
-35.3536
-80.7184
-185.957
-104.764
-52.8387
-53.6
-53.8789
-119.567
-170.919
-88.0641
-44.3531
-40.9438
-47.0604
-183.194
-77.3873
-103.592
-54.17
-52.9002
-52.9042
-175.241
-110.676
-88.4847
-40.8877
-44.2491
-47.0306
-33.4387
-41.2974
-42.7176
-45.2011
-58.4766
-41.7098
-43.5988
-56.8513
-17.5858
-43.252
-52.1741
7.12865
-51.4754
-50.9836
-55.7493
-56.5273
-30.3772
-45.2031
-41.3061
-42.5906
-59.0932
-57.6584
-41.9383
-43.6944
-17.0021
8.33553
-41.9284
-50.514
-51.5259
-56.6467
-51.0226
-55.8063
-95.4053
-145.134
-114.967
137.605
-186.323
-185.042
-112.436
6.24561
-57.93
-49.252
-52.894
-55.4895
-51.4318
-45.8317
-50.2015
-47.7596
-51.6857
-51.7714
-48.8721
-48.0789
-47.7122
-48.9193
-48.3883
-48.6012
-174.643
-173.682
-83.3277
145.477
-46.7681
-28.7768
-44.6426
-29.1883
-37.1243
-37.0965
-43.409
-32.665
-46.674
-48.0426
-47.3467
-47.5193
-101.638
-142.217
-115.603
139.276
-58.9358
-50.9867
-53.0434
-55.4614
-51.4932
-45.7362
-50.1676
-47.841
-48.1549
-47.2606
-48.4441
-49.4572
-47.9577
-29.0503
-45.2782
-29.1773
-46.6974
-48.0663
-47.4059
-47.5263
-41.9133
-40.8035
-42.5594
-43.3915
-42.1429
-42.6648
-38.7746
-44.9559
-47.005
-47.0455
-49.5784
-45.9177
-42.2595
-46.3684
-44.8496
-43.1022
-53.626
-54.1022
-49.7854
-54.0976
-80.5591
-64.3809
-62.7393
-94.6049
23.8408
24.3078
17.919
49.6284
-61.4103
-61.4312
-66.6903
-57.3989
-41.9281
-40.8805
-42.5826
-43.4641
-41.9226
-42.6201
-37.5166
-44.9158
-42.3475
-46.4379
-44.925
-43.1705
-81.3526
-64.5748
-62.9725
-94.9434
-63.5892
-52.942
-51.3715
-44.4679
-64.9414
-53.472
-52.6268
-45.1936
-70.5737
-61.242
-60.9889
-57.1462
-32.6544
-19.214
-19.0985
-6.68418
196.984
201.468
198.204
197.621
-44.5953
-47.0757
-45.6234
-50.437
-44.6206
-47.1071
-45.6751
-50.5202
-45.2042
-45.0091
-46.3737
-45.2479
-106.181
-103.943
-83.8636
-106.464
-49.6525
-49.1035
-47.7319
-48.1395
-49.6606
-49.1305
-47.8549
-48.176
-51.7733
-54.1514
-53.6435
-56.9504
-47.2629
-49.0991
-49.0973
-51.5128
-48.108
-48.4723
-35.7394
-47.7989
-117.315
106.548
-107.859
30.2635
-78.141
-76.3981
-53.6041
-47.9441
-50.6881
-47.9305
-51.4514
-45.851
-104.26
138.628
-81.4765
76.583
-66.188
-59.4085
-47.077
-38.71
-45.0214
-35.8586
-47.692
-46.2518
-108.003
16.5361
-115.94
114.065
-78.5474
-76.2921
-49.0043
-48.1398
-53.6295
-48.0916
-51.5418
-49.729
-81.5153
75.0291
-105.532
140.219
-67.1376
-60.0207
-44.9968
-35.7865
-47.0131
-38.6087
-47.693
-46.2396
-39.1579
-48.953
-43.7352
-43.7443
-39.3923
-43.6333
-48.2316
-45.0719
-51.3939
-52.0154
-41.1442
-45.6051
-42.4112
-47.5322
-49.5931
-58.9532
-34.6892
-7.67635
-37.3152
-53.8545
-69.6701
-26.2004
10.2651
41.3939
-48.4724
-52.1873
-50.5063
-47.998
-55.8236
-67.6397
-64.306
-54.9389
-38.4884
-49.5099
-48.1409
-45.0269
-43.7389
-43.7738
-38.0382
-43.5754
-51.4257
-51.617
-50.076
-60.4813
-41.2138
-45.8682
-42.4727
-47.3312
-34.5721
-7.44417
10.8019
42.8932
-35.9752
-54.0579
-70.1745
-23.6231
-48.5158
-52.2182
-64.3366
-54.93
-50.5545
-48.0807
-55.8725
-67.6654
-83.5615
-84.0442
186.945
170.308
-82.9259
-82.8886
127.942
134.643
-62.5667
-46.6732
-67.073
-53.8813
-51.6469
-48.7007
-48.2137
-37.7766
-50.9818
-50.8333
-48.3259
-48.4606
-49.0635
-50.2786
-51.7197
-49.7347
-52.4421
-52.3081
177.18
181.835
-40.783
-60.7932
-36.447
-11.4441
-45.7628
-45.7606
-32.6557
-32.684
-47.9444
-47.8841
-50.5981
-47.1526
-85.0184
-85.314
170.744
187.246
-63.5107
-47.6704
-67.0509
-53.7314
-48.6765
-51.524
-48.3307
-37.6055
-49.0374
-50.3296
-50.4651
-49.8172
-62.2766
-41.3193
-11.2542
-36.8207
-47.8818
-47.9626
-47.15
-50.6106
-43.7948
-42.9924
-44.2609
-45.4337
-40.1385
-38.8041
-44.7609
-50.1433
-52.7403
-52.3996
-44.9897
-44.9773
-43.8295
-48.6044
-47.991
-46.8192
-47.7889
-47.6846
-55.1616
-54.3388
-54.3631
-57.6596
-94.4628
-83.2247
3.54513
3.71305
9.21154
9.63135
-69.4223
-69.4745
-53.6388
-53.6525
-43.795
-43.023
-44.2604
-45.5777
-38.2261
-39.5497
-44.7546
-50.2013
-48.6677
-43.867
-47.9696
-46.933
-57.7945
-54.4247
-83.5491
-95.0307
-112.245
-60.9361
-63.466
-118.408
-38.3551
-39.1368
-45.5771
-48.0985
-32.7295
-37.7782
-42.8938
-37.9497
-99.7939
-107.911
-63.3974
-55.0337
-110.333
-117.752
-64.5215
-61.9997
-101.477
-56.6431
-63.8596
-108.032
-31.744
-36.6274
-43.0879
-37.9486
-36.7039
-49.4578
-46.3416
-37.9221
-107.753
-111.457
-69.7863
-63.6653
-107.168
-63.6824
-69.7468
-111.608
-45.6644
-49.2256
-56.3788
-48.9385
-45.8138
-49.1043
-56.4967
-49.2082
-87.0313
-41.804
-34.0026
-81.6902
0.736598
15.58
-7.83902
-17.3704
1.34093
-17.3513
-7.70047
15.8979
-87.0616
-81.3219
-33.963
-42.2794
49.0855
139.718
197.86
7.22438
88.1572
136.493
193.171
136.576
87.4407
139.138
195.532
131.675
31.1316
7.33412
198.087
142.505
-43.2482
-43.2312
-45.0385
-43.9717
-41.0119
-43.4248
-44.2471
-41.8905
-53.0821
-59.0118
-49.661
-47.3542
-66.1518
-47.3919
-50.8498
-66.6379
-43.1991
-43.9052
-45.0565
-43.2293
-66.8445
-66.9752
-50.9052
-47.4349
-53.1242
-47.4133
-49.7094
-59.1213
-41.0993
-41.9399
-44.2793
-43.4977
-44.3688
-45.7
-44.8178
-43.3133
-44.3899
-43.3615
-44.8305
-45.68
-49.5495
-50.0394
-46.2209
-44.0928
-49.1985
-43.9575
-46.2143
-49.551
17.3435
-106.992
-104.055
47.4839
-60.4039
-66.5619
-83.8369
-77.2403
-60.4803
-77.6174
-83.9529
-66.5794
18.988
48.2468
-104.059
-107.481
-61.5091
-48.6682
-48.9597
-42.5378
-54.6954
-52.1974
-51.2469
-49.1559
-46.6715
-47.3069
-48.4348
-48.1899
-49.4783
-45.951
-47.8554
-47.9371
-61.6106
-42.5153
-48.9712
-48.5447
-49.5228
-47.9879
-47.7708
-45.9542
-46.6226
-48.1289
-48.4294
-47.3377
-54.7087
-49.2645
-51.2685
-52.2288
-62.1516
-55.1158
-55.1965
-51.1198
-61.6377
-48.5913
-55.5727
-55.8218
-49.683
-48.8259
-51.8686
-49.1106
-54.9192
-47.0114
-50.9218
-49.0831
-52.1963
-49.3174
-51.358
-56.868
-46.5301
-43.8079
-47.2627
-46.6843
-46.4955
-46.6875
-47.2651
-43.7964
-52.3034
-56.879
-51.3651
-49.3365
-47.8369
-47.9999
-48.3715
-48.0467
-47.9467
-48.1426
-48.464
-48.1891
-38.0855
-33.5382
-35.9497
-40.6286
-38.1704
-40.7921
-36.2535
-33.5745
-88.7716
-170.579
-132.713
-54.9979
-54.9446
-55.0948
-118.023
-134.879
-107.778
-45.4503
-44.2869
-48.6765
-166.665
-83.8396
-131.654
-55.1868
-55.019
-55.1149
-145.467
-113.875
-105.652
-44.2094
-45.3509
-48.5931
-35.2915
-42.6285
-43.7804
-46.2886
-73.9772
-42.9226
-43.8672
-58.5719
-18.3304
-28.0728
-22.7007
-3.26499
-51.9941
-51.9806
-54.2917
-54.7877
-34.9174
-46.4418
-42.6413
-43.6593
-74.3166
-59.0548
-43.0589
-43.9001
-17.2774
-2.57685
-26.1717
-20.9114
-52.0638
-54.8553
-52.0109
-54.3465
-123.726
-133.088
-143.869
58.777
-186.667
-186.305
-139.927
-26.1106
-53.6965
-49.1886
-52.2677
-53.139
-51.1523
-48.4789
-51.9662
-47.8634
-51.4267
-51.4742
-50.3198
-48.9482
-46.9088
-47.6115
-48.0649
-47.731
-187.25
-188.201
-121.026
47.1254
-41.2397
-32.3284
-41.1252
-31.2246
-36.5875
-36.5881
-42.0271
-34.2462
-46.5991
-47.0213
-47.1884
-47.3287
-117.343
-142.122
-144.546
65.7598
-54.3185
-49.6819
-52.509
-53.1637
-51.1911
-48.4248
-51.9392
-47.8728
-47.3807
-47.1059
-48.1945
-47.745
-42.5069
-33.2012
-42.2747
-31.642
-46.6264
-47.0549
-47.2359
-47.3609
-42.0557
-41.8241
-42.5372
-42.3943
-42.2051
-42.4906
-39.734
-44.053
-47.2328
-47.2541
-48.2951
-46.554
-42.9589
-45.2045
-44.2421
-43.6637
-52.3233
-53.0488
-50.2462
-53.7585
-75.4595
-67.5489
-66.5253
-82.1968
25.1524
25.422
22.7835
36.8745
-61.9116
-61.9201
-64.1586
-59.5678
-42.0835
-41.881
-42.5235
-42.468
-42.0034
-42.3767
-38.9727
-43.9683
-43.0315
-45.2775
-44.2977
-43.7304
-76.0248
-67.7957
-66.8291
-82.6596
-57.0847
-52.6239
-51.928
-48.2764
-58.667
-53.0654
-52.9848
-48.6202
-65.6348
-61.8452
-61.72
-59.1543
-24.2905
-18.0316
-17.9722
-12.1419
200.296
201.467
200.869
200.652
-45.2201
-47.4969
-45.6605
-47.9091
-45.2402
-47.5377
-45.688
-47.9548
-45.3887
-45.1394
-45.8257
-45.3953
-106.109
-117.842
-92.4495
-106.294
-49.835
-48.9344
-48.0977
-48.3897
-49.8354
-48.9497
-48.1289
-48.4485
-52.3351
-54.9363
-54.6524
-59.2304
-48.1857
-49.1915
-49.179
-50.3366
-47.5172
-48.3308
-42.8815
-47.9169
-78.4721
-95.3013
-132.303
52.8347
-174.477
-176.314
-133.631
-28.2144
-81.4781
-63.1315
-74.6597
-73.099
-52.2222
-50.3305
-55.7288
-47.9946
-52.7645
-52.0883
-51.1293
-49.064
-48.0539
-47.0007
-50.5626
-46.6217
-120.13
-126.136
-163.722
81.0005
-185.776
-155.394
-111.088
-47.153
-74.7105
-53.925
-67.8377
-58.2177
-44.2138
-45.3137
-46.8789
-40.7474
-39.6851
-37.8274
-44.614
-36.6592
-46.1932
-46.1208
-47.5024
-46.1786
-175.651
-177.233
-133.89
-22.4864
-82.419
-87.2776
-125.823
51.6725
-81.3721
-63.1598
-74.5155
-72.9872
-53.4569
-52.2267
-51.0415
-49.371
-52.4018
-50.345
-55.9177
-48.078
-47.328
-48.2527
-50.6693
-49.5149
-181.499
-154.887
-112.569
-36.2812
-117.951
-155.865
-159.394
88.4579
-75.5077
-54.5051
-68.3283
-58.6549
-39.6039
-37.7872
-44.5751
-36.5926
-44.0869
-45.1971
-46.781
-40.6057
-46.2114
-46.1289
-47.5054
-46.1709
-37.8615
-45.7905
-38.403
-45.1461
-45.2215
-43.1233
-43.6227
-43.8666
-42.1722
-42.2493
-40.5394
-43.25
-45.8149
-46.6128
-47.3287
-45.5403
-54.9326
-49.0005
-52.0163
-50.4971
-40.4347
-40.4893
-40.7213
-43.1262
-43.2577
-42.0896
-42.5186
-42.9607
-55.3638
-55.8462
-51.2542
-59.7082
-15.8623
-24.3984
-28.4575
-13.3992
-46.2486
-43.1029
-39.4365
-49.7546
-87.3087
-88.2443
-80.261
-83.8002
13.8062
21.2728
14.4965
28.3405
-49.9698
-48.695
-48.9047
-50.7947
-50.0177
-47.5635
-49.6975
-48.3974
-57.4625
-61.744
-57.6715
-62.8194
-58.1139
-60.8839
-62.247
-57.4397
-37.0331
-45.8352
-37.9298
-45.5291
-45.7792
-46.6738
-47.2208
-45.4928
-45.2323
-43.1147
-43.6191
-43.8907
-42.0159
-41.9901
-39.7105
-43.0517
-55.0513
-48.5344
-52.0573
-50.8307
-56.1021
-55.0441
-51.7855
-61.6176
-40.5507
-40.5868
-40.799
-43.4679
-43.3913
-42.1893
-42.6229
-43.1079
-15.5199
-24.0446
-28.285
-13.0209
14.3749
21.93
15.2263
29.3557
-45.7021
-43.1178
-38.5829
-49.9612
-85.6715
-89.5731
-81.2319
-80.1382
-49.9933
-48.7506
-48.9424
-50.7828
-58.1376
-60.9119
-62.2748
-57.4716
-50.0837
-47.6366
-49.7618
-48.4806
-57.5345
-61.9014
-57.7523
-62.936
-101.412
-72.1826
-84.0379
-83.9312
163.362
190.7
178.086
177.206
-94.35
-76.5504
-83.7016
-83.7083
14.6813
180.65
135.455
135.266
-52.9858
-53.0432
-57.0036
-49.7708
-57.602
-60.3949
-62.7612
-55.6238
-49.5558
-50.2901
-51.5054
-49.3928
-48.159
-48.3616
-48.5665
-43.487
-49.3387
-51.1415
-50.8461
-50.8902
-48.4782
-48.5083
-48.4056
-48.4739
-48.794
-49.0437
-48.5527
-49.3873
-51.8715
-54.5279
-53.0984
-49.9276
-65.063
-41.9214
-51.0211
-50.8051
169.359
192.686
183.513
184.331
-47.4292
-50.0847
-44.2452
-54.5747
-25.447
-21.3402
-29.6171
-17.4449
-45.0822
-46.4236
-45.6107
-45.6117
-31.4354
-34.125
-32.0757
-32.0988
-47.4619
-47.5989
-47.7107
-47.7645
-48.1726
-48.9189
-49.5344
-47.8062
-101.202
-73.7078
-86.1278
-85.9203
164.65
190.598
177.682
179.281
-53.3438
-53.5525
-57.9882
-50.3915
-57.444
-59.9357
-62.6324
-55.867
-49.5194
-50.2907
-49.3723
-51.5189
-47.7431
-47.7028
-48.0966
-43.321
-48.8218
-49.0657
-48.5479
-49.4335
-51.1274
-52.2805
-50.8497
-51.7383
-47.3995
-50.9874
-56.1281
-45.033
-25.5169
-21.2446
-17.392
-29.629
-47.5371
-47.8505
-47.9083
-47.744
-48.1799
-48.9249
-47.8084
-49.5428
-42.8691
-43.9993
-43.5509
-43.2295
-44.0758
-44.9702
-44.277
-45.0584
-38.9957
-41.4851
-40.0667
-39.3679
-45.7529
-46.7303
-45.4166
-47.8438
-51.0989
-54.887
-52.8581
-52.7952
-45.4492
-45.0053
-45.1408
-45.131
-45.1884
-45.6475
-44.6158
-46.9221
-43.9196
-47.4891
-46.7207
-46.6622
-48.7527
-47.0427
-47.8708
-47.7844
-54.2267
-55.0674
-54.5698
-54.08
-59.661
-53.1725
-55.4278
-56.9329
-98.1356
-105.199
-107.203
-92.7397
11.3166
-0.27124
5.06851
5.1964
46.7722
-57.1854
8.15299
8.51193
-67.5944
-76.3735
-69.5869
-69.612
-55.4666
-52.6534
-53.8314
-53.8374
-42.889
-44.0202
-43.5554
-43.2584
-44.1088
-44.9957
-44.3695
-45.0083
-38.0653
-41.6642
-38.7461
-39.4386
-45.7425
-46.7513
-45.4199
-47.8768
-45.2571
-45.6994
-46.9909
-44.6576
-43.971
-47.5145
-46.7176
-46.7432
-59.814
-53.2571
-57.0579
-55.4972
-98.2834
-105.67
-93.0201
-107.444
-97.7749
-80.1416
-82.6894
-70.4909
-39.5977
-39.0048
-42.6835
-39.9934
-36.6575
-36.8682
-38.3354
-38.026
-85.4474
-68.9309
-82.3259
-68.5738
-97.3752
-80.6546
-83.5218
-71.3726
-83.5022
-68.8956
-83.7444
-69.7688
-36.2044
-36.1052
-38.2298
-37.5216
-39.007
-38.0359
-42.9917
-39.4423
-90.5133
-78.4919
-81.7361
-72.8043
-90.4973
-78.4792
-81.7324
-72.7916
-50.8112
-49.4845
-53.4515
-52.2715
-50.3216
-49.5442
-52.9233
-51.8722
-67.0249
-58.075
-53.5985
-45.3133
-3.54473
4.1151
-5.96088
1.31523
-3.25072
4.51117
-5.71464
1.5838
-66.7048
-58.3996
-53.501
-44.8873
127.746
87.8575
177.703
137.04
137.583
128.188
160.056
166.409
127.427
137.821
165.611
161.17
78.4323
129.252
134.769
177.855
-43.661
-43.6444
-43.8881
-44.2856
-41.8137
-42.4976
-42.842
-43.1808
-51.4534
-54.0294
-50.3056
-53.3241
-56.3758
-62.5573
-53.4249
-57.7176
-43.6624
-43.6232
-43.8972
-44.2754
-56.5346
-62.8079
-53.5208
-57.8465
-51.4872
-54.0827
-50.3692
-53.4277
-41.8773
-42.5541
-42.8571
-43.2158
-44.0669
-44.7015
-44.2903
-44.7782
-44.6609
-44.0723
-44.7334
-44.2737
-48.5829
-46.7887
-47.6366
-46.3524
-46.5896
-48.194
-46.1769
-47.8517
11.1989
37.376
-40.2245
12.0618
-69.888
-67.0587
-75.7258
-69.3694
-67.1402
-69.8863
-69.4458
-75.8388
38.8792
12.6259
12.3714
-39.4435
-51.0614
-50.6682
-49.7827
-49.5347
-51.567
-51.5691
-51.502
-50.9682
-47.7269
-47.8843
-48.2119
-48.1619
-48.0251
-47.8016
-47.458
-47.3705
-51.0704
-50.6315
-49.7657
-49.5123
-48.087
-47.8807
-47.513
-47.4459
-47.6844
-47.8814
-48.1931
-48.1652
-51.5896
-51.6251
-51.4333
-50.9996
-53.0868
-54.8918
-52.8623
-54.5399
-52.5147
-56.3677
-51.6966
-54.3143
-49.0894
-50.1922
-50.9347
-50.0183
-50.7259
-46.9042
-50.186
-50.8692
-52.916
-53.7565
-51.7951
-53.4189
-46.2526
-46.3455
-46.0031
-46.6184
-46.2356
-46.3347
-45.9972
-46.6132
-52.9452
-53.8056
-51.8087
-53.4366
-48.148
-48.3247
-48.1302
-48.3122
-48.3505
-48.2748
-48.4347
-48.382
-35.1709
-36.9885
-33.7755
-36.4916
-37.0905
-35.2904
-36.5437
-33.8261
-130.707
62.7504
-135.038
7.73854
-104.851
-103.359
-57.2626
-48.6918
-54.1058
-49.0879
-54.5456
-54.4613
-156.911
72.5508
-107.582
6.33299
-98.2428
-84.9727
-47.1054
-39.9699
-48.6334
-38.6834
-46.8968
-47.5535
-133.76
11.9988
-125.27
51.157
-103.621
-102.548
-51.5215
-49.3684
-57.2881
-48.7686
-54.5116
-51.6383
-109.462
10.7243
-150.001
70.334
-99.3332
-86.0789
-48.5845
-38.6052
-47.0146
-39.8859
-46.849
-47.4857
-34.6408
-41.2705
-42.9951
-44.6598
-42.6717
-42.544
-45.3709
-44.7679
-62.6342
-59.1303
-40.2121
-47.8363
-40.9339
-58.2586
-51.39
-66.1053
-24.9021
-7.41972
-34.393
-57.0544
-72.0289
-12.1912
6.23131
12.41
-50.2039
-53.1792
-51.9617
-50.1704
-54.4538
-57.7447
-58.3694
-54.7337
-32.9837
-40.7186
-45.3106
-44.7892
-42.9278
-44.707
-41.955
-42.4216
-62.963
-59.1546
-51.921
-68.6415
-40.3177
-47.9801
-41.0461
-57.8121
-24.3399
-6.50301
7.02988
14.1277
-32.8691
-56.313
-71.5904
-9.43528
-50.2403
-53.2651
-58.4308
-54.9151
-51.9898
-50.2134
-54.4874
-57.8762
-136.599
55.1325
-153.557
68.773
-118.053
-112.352
132.78
140.441
-139.323
-25.2296
-138.974
-24.8991
-112.415
-112.575
19.8984
19.9302
-59.5745
-61.0731
-49.7038
-46.3104
-55.9901
-50.1856
-58.9747
-52.3788
-54.7501
-48.2583
-48.0968
-42.8642
-51.2552
-48.8238
-47.9578
-44.8324
-50.1527
-49.0038
-50.0278
-49.2209
-48.9365
-49.0159
-48.0747
-48.2451
-49.15
-47.0713
-48.7473
-50.2433
-48.5328
-48.6952
-50.6098
-47.4173
-109.163
23.7593
-110.258
16.6634
-81.9485
-81.8824
144.653
146.494
-52.0953
-43.5188
-33.2968
-21.8979
-40.8246
-49.6423
-35.299
-23.3117
-43.2759
-34.8288
-43.2529
-34.7921
-43.4236
-43.4228
-32.9894
-33.0099
-47.0581
-46.5924
-48.0262
-48.1704
-47.2704
-47.5508
-48.34
-47.0266
-132.868
61.3151
-153.703
78.1537
-117.375
-113.061
142.551
134.559
-61.0093
-61.2187
-51.5251
-46.1469
-57.0941
-50.793
-58.9904
-52.4
-54.7461
-48.2268
-48.0064
-42.8133
-48.7733
-51.2545
-47.9791
-44.8998
-49.3475
-48.7938
-48.4334
-47.2081
-48.4854
-48.8189
-49.1252
-48.6848
-54.0236
-44.4279
-33.2761
-22.0856
-50.6859
-41.1914
-23.2776
-35.8752
-47.0871
-46.5949
-48.0566
-48.1928
-47.6067
-47.3234
-47.0388
-48.3552
-42.9426
-42.5687
-41.653
-42.3663
-42.7261
-42.4739
-43.2894
-43.6187
-40.0554
-43.4523
-39.1396
-45.5523
-39.0001
-38.4404
-44.3876
-45.9899
-47.964
-46.2903
-48.0064
-46.2699
-49.5164
-49.5098
-45.8822
-45.8654
-43.0035
-41.7407
-46.7817
-46.0286
-44.1422
-45.9447
-42.2881
-44.7766
-50.2912
-54.635
-50.8862
-58.7519
-50.2198
-49.8976
-54.5456
-54.3194
-72.7699
-107.949
-61.536
-70.1503
-60.7659
-64.7551
-108.441
-84.2631
20.5518
34.9642
20.9522
35.6305
17.0651
17.3245
48.8811
49.2789
-63.9882
-59.0016
-64.0097
-59.0155
-67.3296
-67.3378
-57.2815
-57.2882
-42.93
-42.6143
-41.7103
-42.4893
-42.738
-42.5043
-43.3658
-43.7176
-39.2595
-43.3247
-38.2941
-45.5611
-37.1364
-37.8163
-44.3282
-45.9833
-43.0537
-41.8122
-46.845
-46.0929
-46.0079
-44.2278
-42.331
-44.8358
-73.2692
-109.321
-61.7045
-70.4071
-65.0151
-60.9316
-84.4067
-108.695
-63.5497
-63.5961
-57.5051
-49.1728
-46.5122
-56.5168
-44.9872
-43.7951
-64.9619
-64.5129
-58.4998
-49.6784
-57.7256
-47.0675
-44.0774
-45.7498
-70.4841
-70.4742
-64.9307
-58.4955
-64.9412
-58.3897
-57.0444
-57.0354
-33.4896
-33.4198
-26.5062
-13.4212
-13.3311
-26.4586
-6.98596
-6.92992
197.238
196.193
202.114
201.384
197.153
197.907