# vtk DataFile Version 2.0
tet_velo
ASCII
DATASET UNSTRUCTURED_GRID
POINTS 29498 float
-0.725 0.165 -2.11045
-0.694221 0.345 2.155
-0.735 0.671088 -2.045
-0.705 0.881541 2.155
0.725 0.165 -2.11034
0.724731 0.245 2.035
0.742959 0.665 -2.045
0.711705 0.875 2.155
-0.759295 0.180446 -0.688634
-0.790248 0.199232 0.733183
-0.826895 0.843134 -0.645
-0.820036 0.916426 0.755
0.739361 0.177217 -0.72856
0.747542 0.195612 0.65322
0.831844 0.834303 -0.645
0.826587 0.909464 0.755
-1.51393 -0.208046 -3.25556
-1.51462 -0.146938 -2.13211
-1.54395 -0.128144 -0.712569
-1.55261 -0.110974 0.712378
-1.48813 -0.0195855 2.13223
-1.46398 0.0348063 3.25742
-1.46384 0.0706014 4.37792
-1.50638 0.0849424 -3.22407
-1.50974 0.163194 -2.10267
-1.5496 0.200212 -0.68226
-1.55489 0.217602 0.742974
-1.4636 0.306684 2.16388
-1.44668 0.358229 3.29013
-1.45408 0.392586 4.41067
-1.50689 0.646464 -3.15958
-1.52464 0.724129 -2.04122
-1.5936 0.853321 -0.634913
-1.58096 0.905604 0.773455
-1.47716 0.906736 2.18284
-1.45632 0.96842 3.32865
-1.46016 1.02176 4.46286
-1.50833 1.58666 -3.05889
-1.52306 1.67523 -1.93897
-1.55528 1.80653 -0.537799
-1.56861 1.89345 0.864612
-1.54635 1.92496 2.27203
-1.52048 1.95292 3.40492
-1.50252 1.99357 4.53897
-0.751568 -0.208713 -3.26211
-0.744365 -0.145296 -2.14217
-0.769221 -0.139429 -0.727245
-0.791598 -0.127427 0.690343
-0.735832 -0.0181906 2.10602
-0.714113 0.0316041 3.2333
-0.713021 0.0626023 4.35559
-0.742984 0.0784869 -3.22885
-0.697498 0.359563 3.27188
-0.704232 0.385237 4.39077
-0.739714 0.621416 -3.16311
-0.707027 0.95952 3.31522
-0.709894 1.01236 4.44718
-0.730612 1.56887 -3.06391
-0.737569 1.65849 -1.94413
-0.765871 1.80049 -0.544322
-0.789609 1.89306 0.855713
-0.78331 1.91903 2.26066
-0.762298 1.94398 3.39225
-0.74496 1.9843 4.52514
0.742941 -0.211784 -3.27095
0.736192 -0.147172 -2.15329
0.739873 -0.143291 -0.764893
0.733295 -0.139407 0.620478
0.726666 -0.0797395 2.01221
0.752116 -0.0174006 3.15981
0.76966 0.0283293 4.29871
0.74425 0.0755706 -3.23383
0.75422 0.307257 3.20059
0.772872 0.35117 4.33684
0.761287 0.616569 -3.16649
0.748174 0.934317 3.28165
0.770726 0.987282 4.40734
0.814981 1.56255 -3.07242
0.823551 1.65176 -1.95215
0.819508 1.79319 -0.554019
0.786132 1.88531 0.842959
0.752625 1.90942 2.24349
0.754107 1.93137 3.36928
0.767093 1.96924 4.49696
1.49912 -0.215651 -3.27737
1.49543 -0.153637 -2.15995
1.50759 -0.138003 -0.776559
1.50188 -0.1361 0.60074
1.48056 -0.0975393 1.98901
1.49457 -0.0421123 3.12977
1.5139 0.00920043 4.27069
1.50142 0.0774854 -3.2392
1.49895 0.156937 -2.11847
1.52501 0.190862 -0.736157
1.52002 0.198956 0.640059
1.4776 0.224044 2.02505
1.49319 0.280052 3.16908
1.51531 0.331942 4.30882
1.52507 0.636518 -3.17045
1.53304 0.713289 -2.0482
1.59646 0.839943 -0.654432
1.58002 0.892111 0.73562
1.48599 0.877633 2.12987
1.49354 0.922182 3.25616
1.51651 0.975033 4.38399
1.58571 1.57394 -3.07794
1.59787 1.6618 -1.95769
1.60253 1.79196 -0.560643
1.57141 1.87744 0.834712
1.5285 1.90487 2.23314
1.51943 1.92742 3.35626
1.52705 1.96377 4.48165
-0.746018 0.418044 -2.09374
0 0.161354 -2.11404
-0.740119 0.174751 -1.39954
-0.735757 0.613271 2.19115
0.015255 0.318518 2.07148
-0.780157 0.234194 1.44409
0.0039795 0.725134 -2.10209
-0.825565 0.801729 -1.345
0.00335252 0.917906 2.19464
-0.795331 0.931796 1.455
0.749963 0.415 -2.09365
0.730591 0.172698 -1.41945
0.768302 0.56 2.14508
0.720056 0.236386 1.34411
0.832749 0.794999 -1.345
0.802489 0.925575 1.455
-0.775367 0.189243 0.022275
-0.893919 0.51179 -0.666817
-0.009967 0.174576 -0.708597
-0.898255 0.557829 0.744092
-0.0213533 0.196113 0.693202
-0.823219 0.879533 0.0549999
0.00247474 1.07649 -0.645
0.00327514 1.32455 0.755
0.744611 0.185255 -0.03767
0.893741 0.50576 -0.68678
0.897815 0.552538 0.70411
0.828413 0.871081 0.0549999
-0.884551 0.464917 -1.37227
-0.895284 0.53481 0.0386375
-0.880848 0.58555 1.44955
-0.0049835 0.172801 -1.4095
-0.0156602 0.181055 -0.00769752
-0.00304915 0.265872 1.3941
0.00198975 0.416522 -2.17975
0.00930376 0.586635 2.299
0.00322712 0.891486 -1.345
0.00287494 1.34079 0.0549999
0.00331383 1.11127 1.455
0.884523 0.46038 -1.38223
0.895123 0.529149 0.00866497
0.882684 0.556269 1.39956
-1.11737 0.164097 -2.10656
-0.734683 0.00985225 -2.12631
-0.733992 0.121743 -2.66965
-1.07891 0.325842 2.15944
-0.715027 0.163405 2.13051
-0.695859 0.352282 2.71344
-1.12982 0.697609 -2.04311
-0.737357 0.646252 -2.60406
-0.736284 1.16479 -1.99457
-1.09108 0.894139 2.16892
-0.706014 0.92053 2.73511
-0.744155 1.40028 2.20783
0.730596 0.00891405 -2.13181
0.734625 0.120285 -2.67208
1.11197 0.160968 -2.1144
0.725699 0.0826303 2.02361
0.739476 0.276128 2.61779
1.10116 0.234522 2.03002
0.752123 0.640785 -2.60574
0.783255 1.15838 -1.99857
1.138 0.689145 -2.0466
0.72994 0.904659 2.71833
0.732165 1.39221 2.19924
1.09885 0.876316 2.14244
-1.15445 0.190329 -0.685447
-0.764258 0.0205086 -0.707939
-1.17257 0.208417 0.738079
-0.790923 0.0359026 0.711763
-1.21025 0.848227 -0.639957
-0.796383 1.32181 -0.594661
-1.2005 0.911015 0.764227
-0.804823 1.40474 0.805357
0.739617 0.0169628 -0.746727
1.13218 0.184039 -0.732359
0.740419 0.0281024 0.636849
1.13378 0.197284 0.64664
0.825676 1.31375 -0.599509
1.21415 0.837123 -0.649716
0.806359 1.39739 0.79898
1.2033 0.900787 0.74531
-1.51427 -0.177492 -2.69383
-1.51015 -0.061552 -3.23981
-1.13275 -0.20838 -3.25884
-1.52928 -0.137541 -1.42234
-1.51218 0.00812827 -2.11739
-1.12949 -0.146117 -2.13714
-1.54828 -0.119559 -9.5535e-05
-1.54678 0.0360342 -0.697414
-1.15659 -0.133786 -0.719907
-1.52037 -0.0652796 1.42231
-1.55375 0.0533139 0.727676
-1.1721 -0.1192 0.701361
-1.47606 0.00761037 2.69482
-1.47586 0.143549 2.14806
-1.11198 -0.0188881 2.11913
-1.46391 0.0527038 3.81767
-1.45533 0.196518 3.27377
-1.08905 0.0332052 3.24536
-1.45896 0.231594 4.39429
-1.08843 0.0666019 4.36676
-1.50806 0.124068 -2.66337
-1.50663 0.365703 -3.19183
-1.12468 0.0817146 -3.22646
-1.52967 0.181703 -1.39246
-1.51719 0.443662 -2.07195
-1.55225 0.208907 0.0303573
-1.5716 0.526767 -0.658586
-1.50924 0.262143 1.45343
-1.56792 0.561603 0.758214
-1.45514 0.332457 2.72701
-1.47038 0.60671 2.17336
-1.45038 0.375408 3.8504
-1.4515 0.663325 3.30939
-1.07209 0.358896 3.281
-1.45712 0.707174 4.43677
-1.07915 0.388912 4.40072
-1.51576 0.685297 -2.6004
-1.50761 1.11656 -3.10924
-1.1233 0.63394 -3.16135
-1.55912 0.788725 -1.33807
-1.52385 1.19968 -1.9901
-1.58728 0.879463 0.0692708
-1.57444 1.32993 -0.586356
-1.52906 0.90617 1.47815
-1.57479 1.39953 0.819033
-1.46674 0.937578 2.75574
-1.51175 1.41585 2.22743
-1.45824 0.995091 3.89576
-1.4884 1.46067 3.36678
-1.08167 0.96397 3.32193
-1.48134 1.50766 4.50092
-1.08502 1.01706 4.45502
-1.51569 1.63094 -2.49893
-1.11947 1.57776 -3.0614
-1.53917 1.74088 -1.23839
-1.13031 1.66686 -1.94155
-1.56195 1.84999 0.163407
-1.16058 1.80351 -0.541061
-1.55748 1.9092 1.56832
-1.17911 1.89325 0.860163
-1.53341 1.93894 2.83847
-1.16483 1.92199 2.26634
-1.5115 1.97324 3.97195
-1.14139 1.94845 3.39859
-1.12374 1.98893 4.53205
-0.747967 -0.177004 -2.70214
-0.747276 -0.0651131 -3.24548
-0.00431352 -0.210249 -3.26653
-0.756793 -0.142362 -1.43471
-0.00408686 -0.146234 -2.14773
-0.78041 -0.133428 -0.0184511
-0.0146741 -0.14136 -0.746069
-0.763715 -0.0728088 1.39818
-0.0291514 -0.133417 0.65541
-0.724973 0.00670673 2.66966
-0.00458318 -0.048965 2.05912
-0.713567 0.0471032 3.79445
-0.705805 0.195584 3.25259
0.0190017 0.00710173 3.19656
-0.708627 0.22392 4.37318
0.0283195 0.0454658 4.32715
-0.741349 0.349952 -3.19598
0.00063271 0.0770288 -3.23134
-0.700865 0.3724 3.83132
-0.702263 0.659541 3.29355
0.0283612 0.33341 3.23623
-0.707063 0.698797 4.41897
0.0343197 0.368204 4.3638
-0.735163 1.09514 -3.11351
0.0107864 0.618993 -3.1648
-0.708461 0.985938 3.8812
-0.734662 1.45175 3.35374
0.0205733 0.946918 3.29844
-0.727427 1.49833 4.48616
0.0304158 0.99982 4.42726
-0.73409 1.61368 -2.50402
0.0421843 1.56571 -3.06817
-0.75172 1.72949 -1.24423
0.0429913 1.65513 -1.94814
-0.77774 1.84678 0.155695
0.0268187 1.79684 -0.549171
-0.78646 1.90604 1.55819
-0.00173845 1.88918 0.849336
-0.772804 1.9315 2.82646
-0.0153427 1.91422 2.25207
-0.753629 1.96414 3.95869
-0.00409535 1.93767 3.38077
0.0110666 1.97677 4.51105
0.739566 -0.179478 -2.71212
0.743595 -0.0681069 -3.25239
1.12103 -0.213718 -3.27416
0.738032 -0.145231 -1.45909
1.11581 -0.150405 -2.15662
0.736584 -0.141349 -0.0722076
1.12373 -0.140647 -0.770726
0.729981 -0.109573 1.31634
1.11759 -0.137754 0.610609
0.739391 -0.04857 2.58601
1.10362 -0.0886394 2.00061
0.760888 0.00546433 3.72926
0.753168 0.144928 3.1802
1.12334 -0.0297565 3.14479
0.771266 0.18975 4.31778
1.14178 0.0187648 4.2847
0.752768 0.34607 -3.20016
1.12283 0.076528 -3.23651
0.763546 0.329213 3.76871
0.751197 0.620787 3.24112
1.1237 0.293654 3.18484
0.771799 0.669226 4.37209
1.14409 0.341556 4.32283
0.788134 1.08956 -3.11945
1.14318 0.626544 -3.16847
0.75945 0.9608 3.8445
0.75114 1.43284 3.32547
1.12086 0.928249 3.26891
0.768909 1.47826 4.45215
1.14362 0.981158 4.39566
0.819266 1.60716 -2.51228
1.20035 1.56825 -3.07518
0.82153 1.72247 -1.25308
1.21071 1.65678 -1.95492
0.80282 1.83925 0.14447
1.21102 1.79257 -0.557331
0.769378 1.89736 1.54322
1.17877 1.88138 0.838836
0.753366 1.92039 2.80639
1.14056 1.90715 2.23831
0.7606 1.9503 3.93312
1.13677 1.92939 3.36277
1.14707 1.96651 4.4893
1.49728 -0.184644 -2.71866
1.50027 -0.0690826 -3.25828
1.50151 -0.14582 -1.46825
1.49719 0.00164979 -2.13921
1.50473 -0.137051 -0.0879095
1.5163 0.0264297 -0.756358
1.49122 -0.11682 1.29487
1.51095 0.0314283 0.6204
1.48757 -0.0698258 2.55939
1.47908 0.0632524 2.00703
1.50423 -0.0164559 3.70023
1.49388 0.11897 3.14942
1.51461 0.170571 4.28975
1.50018 0.117211 -2.67883
1.51324 0.357002 -3.20483
1.51198 0.1739 -1.42731
1.51599 0.435113 -2.08333
1.52252 0.194909 -0.0480488
1.56073 0.515403 -0.695294
1.49881 0.2115 1.33255
1.55002 0.545534 0.68784
1.48539 0.252048 2.59706
1.48179 0.550838 2.07746
1.50425 0.305997 3.73895
1.49336 0.601117 3.21262
1.51591 0.653488 4.3464
1.52905 0.674903 -2.60933
1.55539 1.10523 -3.1242
1.56475 0.776616 -1.35132
1.56546 1.18754 -2.00295
[...]
POINT_DATA 29498
VECTORS point_vectors float
-3.14229 -5.69528 9.4031
0.175206 0.253784 0.735513
-1.50652 1.2687 2.88042
-0.152679 -0.328362 0.284492
3.15174 -5.69438 9.42144
-0.217558 0.89483 4.17821
2.01952 1.72581 4.00047
0.182612 -0.380773 0.351472
0 0 0
0.0685458 -0.0310674 0.359013
-0.0559055 -0.0381897 0.219412
0 0 0
-0.00195298 0.000750773 0.0569123
-0.0279332 0.00537883 0.20913
0.0212511 -0.0195558 0.0958268
0 0 0
-0.548058 -0.264441 19.8433
-1.23755 -0.718586 20.4836
-0.396755 -0.4664 21.3637
0.179335 -0.196057 21.5013
0.811683 0.0867154 21.4079
1.06151 0.119997 21.2065
0.956536 -0.0601703 20.7576
-0.671997 -0.207629 19.7567
-1.69156 -0.60182 20.4259
-0.569985 -0.562912 21.4174
0.140905 -0.331032 21.5993
0.994768 -0.167459 21.4537
1.2397 -0.159001 21.0884
1.11925 -0.249073 21.0184
-0.759356 0.0428057 19.6568
-1.89392 0.104141 20.3738
-1.09813 -0.349201 21.3447
-0.208656 -0.414913 21.6332
0.630751 -0.647625 21.4242
0.984188 -0.730554 21.0889
0.804813 -0.549168 20.7715
-0.538128 0.357371 19.9022
-0.949793 0.61516 20.3548
-0.912448 0.35629 21.1225
-0.329098 -0.068792 21.4556
0.0552987 -0.359062 21.2759
0.169109 -0.435316 21.0519
0.179009 -0.261252 20.9309
-0.553394 -0.587084 19.3097
-1.90096 -3.27577 20.7194
0.06991 -0.117176 21.5755
0.487552 0.31122 20.7205
0.820874 1.40084 18.8627
1.25965 1.62467 18.0766
1.22244 1.02814 17.664
-0.671197 -0.461919 19.0271
1.82125 1.52014 11.0815
1.98663 1.06297 13.945
-0.889732 0.103313 18.6714
1.3266 -0.991212 8.80115
1.25553 -0.448894 15.4131
-0.458585 0.710292 19.4813
-1.02679 1.66614 20.0611
-1.3513 1.5984 21.1346
-0.47265 0.188858 21.8097
-0.142044 -0.390685 21.4169
-0.045371 -0.611621 21.5216
-0.0165014 -0.636643 19.8268
0.53938 -0.577036 19.3114
1.90293 -3.30075 20.649
-0.0196306 -0.116194 21.6134
-0.425437 0.351655 20.8413
-0.704342 1.21979 20.0442
-1.20236 1.61641 19.2761
-1.11698 0.926953 18.6291
0.667132 -0.455785 19.0333
-1.8798 1.64266 12.4874
-1.8457 0.837223 15.2535
0.914866 0.0939097 18.7118
-1.52659 -1.02159 9.74226
-1.31262 -0.585732 15.7854
0.487719 0.66447 19.5245
1.07419 1.52163 20.0953
1.37428 1.49027 21.1333
0.481131 0.197903 21.8219
0.155095 -0.372343 21.4295
0.0621177 -0.598521 21.5358
0.0236309 -0.625522 19.8831
0.537678 -0.262177 19.8254
1.25195 -0.751781 20.46
0.425345 -0.499778 21.3803
-0.156604 -0.210092 21.5036
-0.714566 0.0996973 21.4344
-1.00699 0.180755 21.1165
-0.964976 0.00809455 20.5364
0.668364 -0.206845 19.7543
1.70658 -0.625491 20.403
0.603598 -0.592778 21.4329
-0.104649 -0.358628 21.603
-0.878892 -0.112609 21.5039
-1.16213 -0.0690182 21.0605
-1.09953 -0.180532 20.8041
0.743504 0.0343116 19.6742
1.86093 0.0815321 20.3767
1.10015 -0.357087 21.3432
0.22644 -0.415154 21.6413
-0.621276 -0.615183 21.4601
-0.93718 -0.6517 21.1409
-0.702346 -0.452102 21.0772
0.521692 0.329194 19.9238
0.923634 0.54941 20.3593
0.88874 0.338363 21.1003
0.341424 -0.0626538 21.4515
-0.0434687 -0.352617 21.2911
-0.176412 -0.462901 21.0197
-0.228191 -0.343916 20.8533
-2.32401 -0.262649 1.9105
7.50862e-05 -0.10083 0.515566
-0.000310664 0.00294846 0.124562
0.036931 -0.0834207 0.119184
0 0 0
0.00660282 0.0120172 0.453919
2.439e-05 0.180666 0.344484
-0.173517 -0.0568384 0.539819
0.00119554 0.045201 -0.0679281
0.00779556 0.00266476 0.0748992
2.80364 -0.334352 2.26317
-0.00350702 0.00163749 0.0792487
-0.0581742 -0.0605327 0.101647
-0.00521077 0.00313628 0.0832124
0.134151 -0.0682809 0.463993
-0.000989393 0.000331527 0.00944112
0.00618083 0.00229019 0.205083
-4.07782e-07 -9.57398e-05 0.000935705
-1.33245e-06 -1.96412e-05 0.00913748
7.03356e-06 0.00515831 0.0512145
0.000303993 0.000439834 0.0141578
0 0 0
-1.45414e-06 0.0114616 0.0258325
1.46964e-05 -0.00278988 0.0232539
-0.00358751 0.00107871 0.0714832
-0.00010692 -0.00198475 0.0196489
-0.000154987 0.00368055 0.0371519
0 0 0
0 0 0
7.22575e-06 0.00118623 0.0141398
0 0 0
3.17559e-08 -9.37215e-08 6.48297e-06
0 0 0
0 0 0
0 0 0
-0.000199906 -0.161236 -0.0341496
0.000179232 0.00147443 0.0108173
9.39786e-05 0.00949355 0.089086
-8.93722e-05 0.00286816 -0.00792652
0 0 0
-1.43892e-05 0.00209234 0.0246795
-0.00109031 0.00211891 0.0432142
-3.37629 -1.77839 20.2454
-2.75359 -5.24372 21.0159
-1.89904 -1.56362 17.877
1.56267 0.249573 17.3683
0.494172 1.43009 11.1475
1.22943 1.19053 7.06932
-3.79343 0.720654 20.1325
-2.58375 0.921446 17.0277
-2.2698 2.86074 19.815
0.907542 -0.851836 17.7599
-0.128292 -0.805158 4.57886
-0.050063 -0.650256 17.6354
2.75732 -5.24734 20.968
1.88634 -1.55432 17.8848
3.40283 -1.80385 20.2106
-0.635698 1.3331 15.139
-1.18417 1.41047 9.46037
-1.38429 0.316262 18.5193
2.59421 0.878738 17.085
2.34565 2.65528 19.8326
3.74918 0.663462 20.129
0.0355697 -0.821459 5.16883
0.0340983 -0.625012 17.2253
-0.934828 -0.792297 17.9235
-0.273746 -0.958235 20.459
0.353396 0.168148 16.38
0.306068 -0.41146 19.8053
0.688774 0.232208 15.5344
-1.8557 -0.910597 21.5829
-3.39046 2.04049 21.0405
-0.298719 -0.675579 20.7322
-0.564577 -0.0989609 20.5157
-0.370345 0.186863 16.4056
0.257551 -0.987084 20.1787
-0.683971 0.335175 15.3582
-0.277215 -0.409252 18.9721
3.35064 1.8146 21.0975
1.81482 -0.915238 21.6025
0.564236 -0.0916115 20.4437
0.307742 -0.688415 20.7483
-0.946948 -0.495859 19.9849
-0.622947 -0.241672 19.8135
-0.594566 -0.405519 19.5903
-0.858742 -0.611402 21.1675
-1.44764 -0.687336 20.4588
-1.74286 -1.6017 20.5063
-0.0811984 -0.327454 21.4594
-0.492258 -0.52617 21.3843
-0.142727 -0.605471 21.6078
0.465597 -0.0585436 21.5267
0.1604 -0.268052 21.5258
0.380729 -0.163282 21.622
0.998937 0.163807 21.2272
0.918729 -0.0174058 21.4837
1.17132 0.547476 20.8388
1.16457 0.110259 20.6547
1.16698 0.0261038 21.0617
1.478 0.682762 20.7569
1.06262 -0.166608 20.8748
1.11786 0.427932 21.2618
-1.19043 -0.389888 19.8505
-0.739487 -0.090838 19.6636
-0.755214 -0.365473 19.4377
-1.14933 -0.625258 21.266
-1.89608 -0.26897 20.3932
-0.198374 -0.46072 21.5036
-0.843897 -0.524899 21.3793
0.528966 -0.245054 21.6532
-0.0177016 -0.425185 21.6527
1.18973 -0.128401 21.3063
0.905694 -0.468054 21.4305
1.34458 -0.144452 20.6173
1.18001 -0.492138 21.2712
1.83999 0.326756 18.2257
1.07591 -0.657433 20.7159
1.54961 0.262839 18.0699
-1.36983 0.101768 19.7604
-0.699883 0.255371 19.755
-0.920046 0.0752997 19.2214
-1.51431 -0.158971 21.0921
-1.42358 0.526749 20.3359
-0.674456 -0.406139 21.5715
-1.18929 0.0909278 21.2221
0.222267 -0.480756 21.6237
-0.342922 -0.236525 21.5699
0.831734 -0.709196 21.2378
0.221984 -0.555524 21.3529
0.738894 -0.56944 21.0991
0.427726 -0.626053 21.2046
1.15047 -1.08658 19.3336
0.333509 -0.367966 21.0522
1.02627 -1.32825 18.9638
-0.759863 0.511009 20.0561
-0.563016 0.531065 19.6943
-0.99202 0.505234 20.7699
-1.11812 1.08138 20.2166
-0.647288 0.143578 21.3904
-1.1982 0.818524 21.1621
-0.0944657 -0.240465 21.3546
-0.416523 0.0132651 21.6172
0.149381 -0.455187 21.2158
-0.0151644 -0.423079 21.3371
0.354226 -0.67304 20.5586
0.134263 -0.602113 21.1034
0.0623642 -0.405094 21.5136
-1.20431 -1.55959 19.0349
-0.613845 -0.524487 19.1652
-0.00621114 -0.749735 19.0022
-0.487844 -0.901723 22.3157
-0.0212761 -5.71007 20.8122
0.292147 0.115043 21.0128
-0.0229948 -0.475306 16.7047
0.649047 0.715925 19.4985
0.0312329 0.156923 15.0357
0.985856 1.6158 18.7019
-0.0247548 0.786661 13.7226
1.17561 1.43024 18.8547
1.57522 1.84147 15.603
-0.0506589 1.46446 14.3343
1.60632 1.14577 15.6704
-0.155724 1.95235 16.1866
-0.829261 -0.169743 18.7368
-0.0007885 -0.690384 18.5466
2.04472 1.14603 12.1862
2.17274 -0.0916193 7.55201
-0.0429148 1.31325 4.85573
2.02611 0.41506 13.2319
-0.155957 1.87471 10.8623
-0.71292 0.627427 19.0233
0.0110031 0.171142 18.0351
1.20405 -0.679666 10.7942
0.312225 -1.16147 18.6376
-0.0558709 1.59155 -6.06638
0.112502 -1.0918 18.2895
-0.0596163 1.44738 -3.65624
-0.770527 1.27041 19.5861
0.0286337 0.91541 19.2573
-1.18382 1.60313 20.5631
0.0694272 2.27449 19.9017
-1.01008 0.951143 21.874
0.0665053 2.87046 20.9468
-0.235743 -0.213374 21.5858
-0.0032067 0.538578 22.0364
-0.0332652 -0.548807 21.2731
-0.015917 -0.0737372 21.6229
0.00192936 -0.480238 21.3182
-0.00600898 -0.49857 21.7938
-0.00558629 -0.203623 21.5473
1.18364 -1.54723 19.0315
0.604212 -0.516746 19.1703
0.583592 -0.401684 19.5906
0.530906 -0.9463 22.2971
1.75558 -1.64121 20.4535
-0.240846 0.124003 20.9792
0.144706 -0.608562 21.613
-0.602633 0.740678 20.2758
-0.382895 -0.143903 21.5793
-0.943346 1.50513 19.7535
-0.999337 0.537093 21.1173
-1.18263 1.42692 19.8931
-1.54382 1.8012 16.5213
-1.37885 0.615542 20.7078
-1.49744 1.02115 16.5919
-1.0049 0.362672 21.206
0.835992 -0.172977 18.7596
0.749142 -0.366132 19.439
-1.94125 0.999113 13.3608
-2.21607 -0.0181096 8.47652
-1.81776 0.215451 19.096
-1.97774 0.254292 14.1382
-1.41052 0.0751077 19.5024
0.735625 0.586217 19.083
0.91569 0.062735 19.2491
-1.33533 -0.529233 12.3696
-0.329179 -1.1795 18.5664
-1.15901 -0.95953 19.6767
-0.179067 -1.08459 18.4703
-1.10548 -1.23092 19.2334
0.812381 1.17345 19.6362
0.55419 0.488439 19.7323
1.22191 1.4715 20.5906
1.1003 0.963933 20.2573
1.03332 0.935467 21.8602
1.18352 0.739279 21.1464
0.241297 -0.209287 21.5956
0.428917 0.0227249 21.6249
0.0396861 -0.542953 21.2768
0.022099 -0.424555 21.3394
0.00717851 -0.500072 21.1597
-0.12688 -0.603743 21.0474
-0.0534444 -0.379292 21.497
0.931817 -0.499528 19.9577
0.61574 -0.239507 19.8033
0.892526 -0.673276 21.169
1.46435 -0.71208 20.4412
0.0972216 -0.356684 21.4564
0.525299 -0.568338 21.4031
-0.420665 -0.0574182 21.5504
-0.130914 -0.302763 21.5306
-0.889109 0.17226 21.2963
-0.803153 0.00502027 21.4571
-0.931171 0.126805 21.1104
-1.09758 0.0589448 21.1303
-1.07363 -0.101534 20.6531
1.17882 -0.394477 19.8348
0.725869 -0.0938891 19.6789
1.19765 -0.657149 21.2613
1.8946 -0.277433 20.3877
0.224559 -0.487967 21.51
0.870126 -0.534949 21.3846
-0.470927 -0.224133 21.6563
0.0554226 -0.440986 21.6551
-1.10917 -0.0730217 21.2964
-0.863109 -0.409994 21.4738
-1.18262 -0.24893 20.9457
-1.18362 -0.405233 21.1589
-0.989821 -0.433475 20.9694
1.34581 0.0801807 19.7886
0.691762 0.236948 19.7813
1.51979 -0.164122 21.0911
1.37993 0.48255 20.3346
0.684682 -0.412433 21.5685
1.16806 0.0840575 21.2107
-0.203201 -0.473781 21.6361
0.360766 -0.236227 21.5725
-0.809005 -0.671026 21.3089
-0.215449 -0.559441 21.3676
-0.809935 -0.596686 21.0084
-0.435862 -0.652012 21.1786
-0.345095 -0.384933 21.032
0.736314 0.458846 20.0753
0.964089 0.477027 20.7524
0.652148 0.144465 21.3681
0.103722 -0.236722 21.3716
-0.132152 -0.453531 21.203
-0.335275 -0.640631 20.6758
-1.0753 -0.47461 19.9272
-1.57738 -1.68831 18.5685
-1.17819 -0.905936 19.608
-1.69121 -0.83264 19.1821
-0.691119 -0.390506 19.506
-2.43439 -1.82342 20.4084
-1.00324 -0.638376 21.2093
-0.0432302 -0.12724 18.674
-0.802794 -1.06844 21.6073
-1.38398 -1.42404 21.9726
-0.14898 -0.801261 21.543
-0.137092 -0.407274 21.4743
0.440856 0.219421 15.5501
0.154414 -0.373616 21.6171
0.0762611 -0.682857 19.9366
0.402901 -0.306285 21.0133
0.490821 -0.144646 21.575
0.549109 0.564538 12.9898
0.733215 0.142093 21.3573
0.793347 -0.0913009 18.7226
1.43923 0.486492 19.2235
1.12132 0.0593204 21.2725
1.0683 1.70004 13.6858
1.3529 0.689695 20.7268
1.84946 0.288488 18.0138
1.54581 0.674993 19.2558
1.30391 -0.0810732 20.5484
1.60465 1.29254 15.0064
1.43722 0.651821 20.7305
1.91328 0.0418416 18.946
1.30094 0.410452 19.4048
-1.35818 -0.161717 19.7667
-2.54838 -0.590521 16.931
-2.12555 0.355442 18.9383
-0.876518 -0.12494 19.2565
-4.32562 -0.504046 20.0821
-1.39769 -0.408853 21.1989
-2.33181 -0.334368 21.553
-0.849687 -1.13897 21.0902
-0.410622 -0.512812 21.5504
-1.03725 -0.962397 21.3671
0.156778 -0.567444 20.0569
0.403431 -0.400641 21.6527
0.363848 -0.556802 19.6206
1.4588 -0.35093 16.8286
1.11728 -0.497415 21.2851
0.963819 -0.191161 4.20338
1.06723 -1.03013 19.0522
1.91713 -0.448471 17.2102
0.997587 -0.409445 21.1504
2.07234 0.442928 10.0217
1.25804 -1.27687 19.3079
1.56635 -0.372568 17.3145
-1.11949 0.449672 19.8922
-1.52961 1.70349 18.6894
-0.87041 0.860209 19.8234
-0.79085 0.435258 19.4087
-2.02852 1.26255 20.1486
-1.37988 0.315829 20.8609
-2.37262 1.92962 20.6315
-1.20094 0.972182 20.6983
-1.99619 0.440255 21.3139
-0.800283 -0.083272 21.5193
-2.39486 0.537297 22.0706
-0.868082 0.422659 21.5811
-0.546223 -0.236095 21.8817
-0.00776645 -0.401944 21.4787
-0.0161298 -0.495068 18.9883
-0.158929 -0.257411 21.5028
0.0691793 -0.78386 21.4951
0.369759 -0.658026 21.2306
0.0369603 -0.891766 18.297
0.0721759 -0.517068 21.2238
0.38021 -0.990953 21.395
0.387098 -0.689499 20.8987
0.14841 -1.09717 19.2009
0.109866 -0.41327 21.0616
0.215927 -0.717351 19.8265
1.554 -1.66704 18.5784
-0.012065 -2.40513 18.2687
-0.000350744 -2.58418 16.2061
-0.00420701 -0.770493 18.7272
-0.0144663 -9.15973 21.9825
0.088276 -0.15063 18.6727
-0.0358671 -1.84708 21.5271
0.0336401 -0.0617453 5.60186
-0.48097 0.229342 15.4736
0.000257548 -0.15359 14.9938
0.0849909 0.188279 7.64383
-0.63785 0.715907 14.5312
0.0298136 0.477418 13.9941
-0.0537436 0.588581 7.09651
-1.04247 1.64129 15.6886
-0.0307073 1.0892 14.2939
-0.00825733 -0.155204 1.94876
-0.0524838 1.65378 9.87665
-1.60902 1.24316 15.9987
-0.101159 2.04476 15.5532
-0.104158 1.2498 5.78662
-0.156053 1.89089 13.9968
2.53262 -0.604536 16.9867
0.030277 1.918 14.5039
0.00686797 -0.231123 18.1604
-1.15289 -0.303104 4.82903
0.0606074 1.03402 -4.94232
-0.140711 0.401675 -2.25335
-2.05065 0.262512 11.2829
-0.0683902 1.61838 -5.50573
-0.107511 1.60035 3.73444
1.57031 1.5804 18.7548
0.052871 1.71733 19.3064
0.0194443 0.878297 18.5651
0.0879166 4.4526 19.4971
2.40168 1.78055 20.674
0.0812664 2.38941 20.3405
0.0813072 5.1322 19.3706
2.42141 0.489909 22.2327
0.0240653 1.9363 22.2677
-6.21184e-05 0.133735 14.8486
-0.01581 -0.47685 18.766
-0.0082795 0.115909 21.818
-0.0644037 0.223831 5.71466
-0.0440271 -0.869454 18.0928
-0.00959406 -0.25949 21.4007
-0.0231948 -0.679803 9.7953
-0.203739 -1.06831 19.0501
-0.000631464 -0.339832 21.7738
-0.00124572 -0.827527 14.0427
1.06682 -0.478847 19.9026
1.1565 -0.905395 19.5992
1.66097 -0.836424 19.1751
0.685528 -0.39314 19.5043
2.45343 -1.85818 20.363
1.04667 -0.689062 21.214
0.838041 -1.1248 21.6296
1.47104 -1.52655 22.0219
0.124192 -0.814912 21.4283
0.162563 -0.448707 21.4801
-0.156292 -0.368629 21.5902
-0.0877248 -0.675946 19.1269
-0.413274 -0.295131 20.6221
-0.441068 -0.150778 21.5907
-0.685469 0.167936 21.4174
-0.755054 -0.0943579 18.3743
-1.23474 0.466025 20.3071
-1.02168 0.0658533 21.2827
-1.22925 0.669932 20.8627
-1.67145 0.329224 19.0163
-1.53649 0.439721 20.5184
-1.08922 -0.0484073 20.9807
-1.45287 0.687863 20.6127
-1.91901 0.184703 19.0356
-1.14658 0.29063 20.5892
1.34169 -0.164926 19.7717
2.09291 0.311571 18.9816
0.865833 -0.128043 19.2758
4.31956 -0.528941 20.0573
1.41696 -0.413014 21.2019
2.31223 -0.334231 21.5543
0.879132 -1.1501 21.2239
0.43645 -0.525825 21.5606
1.03841 -0.973689 21.3381
-0.141881 -0.566102 19.7054
-0.367332 -0.399827 21.6748
-0.350001 -0.557115 19.6697
-1.41286 -0.244784 17.3948
-1.08012 -0.421083 21.2802
-1.08185 -1.00337 18.941
-1.89298 -0.325723 18.8184
-1.01704 -0.44362 21.2375
-1.17331 -1.07832 19.8154
-1.56704 -0.505353 18.3387
1.08895 0.404174 19.9191
0.872645 0.778782 19.8756
0.78446 0.397319 19.4553
1.99945 1.15581 20.1654
1.3506 0.302019 20.8552
1.19913 0.890933 20.7062
1.92669 0.397469 21.3002
0.813468 -0.0867277 21.5067
0.874057 0.409352 21.563
0.566321 -0.231571 21.8869
0.0238975 -0.401824 21.4951
0.166154 -0.253097 21.5098
-0.0633073 -0.783446 21.4406
-0.354123 -0.662594 21.264
-0.0616528 -0.520365 21.2655
-0.378115 -0.953157 21.4385
-0.392148 -0.613874 20.9975
-0.177235 -0.446195 20.9458
-0.302537 -0.740784 20.0736
-1.43392 -0.901462 19.4048
-0.963585 -1.28606 21.8186
0.167365 -0.54083 21.2168
0.825217 0.0436146 20.2913
1.69437 0.598905 19.3277
1.64936 0.357295 19.7363
-2.11618 -0.278225 18.8911
-1.95152 -0.830416 22.0563
-0.254506 -0.948445 20.4568
0.6539 -0.285678 18.4761
1.67834 -0.509165 17.6497
1.60666 -0.349747 17.8804
-1.46789 0.928669 19.3931
-1.99283 0.788134 20.8582
-1.33897 0.0559063 21.8839
-0.120204 -0.529916 21.7064
0.24274 -0.906708 21.3168
0.255863 -0.897468 21.5588
-0.00874265 -2.77409 17.3481
-0.00226646 -0.352521 7.28564
0.0478878 -0.0117204 6.50988
0.0307336 0.410243 7.08105
-0.0589724 0.63163 8.01156
-0.101951 1.51969 10.4491
0.0182141 -0.870292 14.2888
0.000368198 -0.0901807 -2.77985
-0.132643 1.31244 2.59284
0.0595815 2.69824 17.8331
0.0673271 3.46766 20.137
0.0150997 2.58181 18.9321
-0.00341656 0.0651227 9.25357
-0.031253 0.261071 7.09004
0.0195338 -0.49112 10.5105
1.41492 -0.903976 19.3958
1.0057 -1.36386 21.8579
-0.193522 -0.532402 20.898
-0.79553 0.0621013 20.2562
-1.52354 0.56231 20.3625
-1.72018 0.50259 20.0933
2.07881 -0.293012 18.9183
2.00478 -0.83525 22.1182
0.258624 -0.942538 20.1003
-0.620483 -0.293076 18.6475
-1.6648 -0.406213 18.4445
-1.68155 -0.288086 19.1822
1.4394 0.845586 19.4501
1.94273 0.727686 20.8694
1.33631 0.0454543 21.8622
0.123946 -0.526025 21.714
-0.238015 -0.895471 21.3109
-0.3171 -0.868204 21.4825
-2.90936 -0.749498 1.81223
-0.0485835 -0.190199 1.15349
-0.00103784 0.000820613 0.0579406
0.0665069 0.0149866 0.134422
0 0 0
0 0 0
-3.10597 0.703589 4.31348
-0.0648817 0.281892 0.541141
-0.417914 0.0831849 1.48705
0.00731975 -0.0415753 0.0349238
-0.0573899 0.00618142 -0.0146571
-0.0201344 -0.025191 0.127342
0.0481604 -0.188309 1.14645
1.63235 -0.659565 1.37929
0.00451273 0.00145049 0.152772
0 0 0
-0.00330623 0.0010195 0.00695492
-0.00627596 0.0167753 0.272378
0.0645884 0.313508 0.654755
3.14723 0.573407 4.6826
0.204117 0.0466776 0.724064
0.0475975 0.00900302 -0.0175569
-0.00449739 -0.00876139 0.0127008
0.0195131 -0.0248923 0.122056
0.0142381 -0.000866269 0.106519
0.000935604 0.000181698 0.0242469
0 0 0
6.34331e-05 3.57723e-06 0.000358094
-2.64342e-05 0.00722111 0.173802
0.0345706 -0.000301331 0.617727
-0.00465557 0.00454793 0.05107
0 0 0
-0.0405772 -0.0454297 0.158733
-0.00138313 -0.00808353 0.0696913
0 0 0
-0.0229573 0.0202034 0.0492245
0 0 0
0.000940176 0.0074093 0.0519346
0 0 0
0.0236402 -0.0141713 0.158486
-0.0370407 -0.00363267 0.272694
0 0 0
-0.00607734 0.00144117 0.102207
0 0 0
-0.000875411 0.00310159 0.105228
0 0 0
-0.00417255 0.00117129 0.0800092
0 0 0
0.121976 -0.15564 0.515365
0.023664 0.0203148 0.0497566
0.00148642 -0.0086164 0.0757328
0 0 0
0 0 0
-0.0363452 -0.00352115 0.186696
-0.000811406 0.00657012 0.0466561
0 0 0
-0.0615201 -0.0366032 0.248077
-0.526313 -0.458871 0.185419
8.2018e-08 4.05725e-06 4.78414e-06
0 0 0
0 0 0
-3.87303e-05 -2.29004e-06 -0.000150248
0.00115826 -1.37995e-05 0.0104488
-0.0457396 -0.0251331 0.00861453
0 0 0
0 0 0
0.00182932 0.00164028 0.0444409
0.00195089 0.00331107 0.0772617
-0.00135896 0.606833 0.394677
0.000219501 0.00394318 0.0219486
-1.36276e-05 -7.19934e-05 0.000554717
-0.000522074 0.000191891 0.0018028
0 0 0
-0.00014302 0.000527788 -0.00355153
0 0 0
-0.00152471 0.000247927 -0.00131325
0.752477 -0.4049 0.289832
0.0699221 -0.0455994 0.290558
2.34672e-05 -1.3841e-06 -9.0767e-05
0 0 0
0.00263197 -0.00250857 7.0759e-06
-0.00748071 9.1648e-05 0.0687705
-5.1322e-05 6.50308e-05 0.000914977
-4.28704e-19 2.16258e-18 3.0607e-17
0.00160578 0.000534595 0.00509561
0 0 0
0.00288883 0.000487908 -0.00260687
-0.00157848 0.00205909 0.0463075
0 0 0
0 0 0
-0.000412163 -0.00776402 0.0587366
2.96638e-05 0.000829773 0.0247462
-8.66552e-07 2.13043e-07 -2.00287e-07
-3.60163e-08 -6.74286e-09 -1.04452e-06
-5.32813e-05 0.00319886 0.0312259
0 0 0
1.51259e-06 6.95005e-07 7.82887e-05
0 0 0
0.000757809 0.00802001 0.0550652
-0.0754733 0.0586657 0.963439
6.98309e-06 0.000390567 0.00252524
-2.87103e-05 0.0411289 0.103673
-0.000119378 1.51977e-05 0.0385307
3.72325e-05 0.00159746 -0.00304261
0 0 0
0 0 0
0.000175692 -0.00574305 0.0416108
-9.87977e-06 0.000271761 0.0149569
7.78507e-06 0.000899148 0.00912217
-0.00131464 0.00259119 0.0644703
0.076078 0.0710622 1.04863
-0.000592708 0.00679221 0.0471249
-0.140746 -0.0702318 0.498603
-0.135512 -0.0589692 0.56842
0 0 0
-0.000637928 -0.00326037 0.0180638
0 0 0
-1.01851e-05 0.00168514 0.0270503
-0.000176768 0.000861482 0.0221676
0.00264149 0.0433913 0.272404
0.000963743 0.00112428 0.043171
0.00124375 0.00613549 0.0619979
0.0146621 0.00140262 0.144225
0.00695539 -0.0047068 0.063059
-6.69328e-18 3.30573e-21 -4.59641e-17