# vtk DataFile Version 2.0
tet_velo
ASCII
DATASET UNSTRUCTURED_GRID
POINTS 29498 float
-0.695 0.215 -1.85358
-0.825 0.215 1.81736
-0.748358 0.985 -1.665
-0.715 1.08994 1.875
0.695 0.215 -1.85358
0.825 0.215 1.81737
0.748362 0.985 -1.665
0.715 1.08994 1.875
-0.740403 0.21293 -0.629933
-0.783612 0.213055 0.593713
-0.786309 1.06905 -0.485
-0.747524 1.07636 0.695
0.740404 0.212929 -0.62993
0.783613 0.213054 0.59372
0.786314 1.06905 -0.485
0.747527 1.07637 0.695
-1.44538 -0.225991 -2.88451
-1.45034 -0.201884 -1.92308
-1.48549 -0.20268 -0.698301
-1.52422 -0.211684 0.535259
-1.55581 -0.212112 1.76077
-1.56591 -0.205042 2.72583
-1.56919 -0.1942 3.68419
-1.44778 0.180423 -2.80591
-1.45412 0.213761 -1.84925
-1.49472 0.22169 -0.632963
-1.52824 0.217115 0.587248
-1.55801 0.219721 1.80437
-1.57054 0.226941 2.76881
-1.57452 0.237271 3.72859
-1.47211 0.980907 -2.63647
-1.49519 1.01361 -1.67799
-1.52657 1.06988 -0.491466
-1.50498 1.07926 0.691969
-1.49183 1.08977 1.87933
-1.53722 1.09616 2.84558
-1.56556 1.10403 3.81239
-1.49653 2.23611 -2.41512
-1.51015 2.27346 -1.46318
-1.52474 2.32877 -0.290802
-1.52301 2.36403 0.872166
-1.5214 2.38265 2.045
-1.5359 2.39264 2.99789
-1.55679 2.40097 3.95993
-0.705626 -0.225866 -2.88733
-0.7041 -0.200613 -1.92718
-0.731576 -0.206641 -0.697748
-0.761909 -0.215564 0.540779
-0.789162 -0.216269 1.77042
-0.802355 -0.208227 2.73238
-0.807473 -0.196501 3.68798
-0.704751 0.177415 -2.80678
-0.817921 0.224277 2.77421
-0.817135 0.235309 3.73145
-0.723485 0.968146 -2.63107
-0.790904 1.09542 2.84471
-0.814528 1.1031 3.81221
-0.743357 2.22809 -2.40978
-0.753611 2.26629 -1.4573
-0.768214 2.32699 -0.287258
-0.770697 2.36435 0.871741
-0.771469 2.38313 2.04196
-0.785915 2.39296 2.99485
-0.805455 2.40103 3.95773
0.742673 -0.225866 -2.88733
0.726939 -0.200613 -1.92718
0.755139 -0.206641 -0.697745
0.791544 -0.215564 0.540785
0.813218 -0.216269 1.77043
0.766458 -0.208227 2.73239
0.734971 -0.196501 3.68798
0.739788 0.177415 -2.80678
0.746111 0.224277 2.77422
0.719785 0.235309 3.73145
0.754809 0.968146 -2.63107
0.707027 1.09542 2.84472
0.699443 1.1031 3.81221
0.759815 2.22809 -2.40978
0.758707 2.26629 -1.4573
0.750471 2.32699 -0.287257
0.735204 2.36435 0.871742
0.722218 2.38313 2.04196
0.710247 2.39296 2.99486
0.697613 2.40103 3.95773
1.47696 -0.225991 -2.88451
1.46545 -0.201883 -1.92307
1.5013 -0.20268 -0.698295
1.54828 -0.211685 0.535268
1.57324 -0.212112 1.76079
1.54008 -0.205042 2.72585
1.50621 -0.1942 3.6842
1.47257 0.180424 -2.80591
1.45327 0.213762 -1.84924
1.49446 0.22169 -0.632959
1.53544 0.217115 0.587256
1.56091 0.219721 1.80438
1.52247 0.226941 2.76882
1.49115 0.237271 3.7286
1.49179 0.980908 -2.63647
1.49122 1.01361 -1.67799
1.5211 1.06989 -0.491464
1.50471 1.07927 0.691972
1.48627 1.08977 1.87934
1.47481 1.09616 2.84559
1.46389 1.10403 3.8124
1.50896 2.23611 -2.41511
1.51039 2.27347 -1.46318
1.50621 2.32877 -0.290801
1.49021 2.36403 0.872168
1.47404 2.38266 2.045
1.46278 2.39264 2.99789
1.45232 2.40097 3.95994
-0.778137 0.6 -1.81575
0 0.211446 -1.85713
-0.718855 0.212812 -1.24176
-0.799168 0.65247 1.87535
0 0.21112 1.82124
-0.805287 0.213046 1.20554
1.99676e-06 1.03395 -1.71395
-0.797087 1.05678 -1.075
0 1.13151 1.91657
-0.765422 1.11731 1.285
0.778139 0.6 -1.81575
0.718855 0.212812 -1.24176
0.799155 0.65247 1.87534
0.80529 0.213043 1.20555
0.79709 1.05678 -1.075
0.765426 1.11732 1.285
-0.762007 0.212993 -0.01811
-0.894609 0.64099 -0.557467
3.78334e-07 0.210499 -0.629932
-0.895546 0.64471 0.644357
4.38344e-07 0.210501 0.593717
-0.775673 1.08146 0.105
2.53499e-06 1.41362 -0.485
1.54935e-06 1.50665 0.695
0.762007 0.212993 -0.018105
0.894602 0.640991 -0.557465
0.895546 0.64471 0.64436
0.77567 1.08146 0.105
-0.895084 0.620495 -1.15838
-0.895079 0.64285 0.043445
-0.89447 0.64859 1.24527
1.89167e-07 0.210462 -1.24176
4.08339e-07 0.2105 -0.0181075
2.19172e-07 0.210456 1.20554
9.98378e-07 0.6 -2.04748
0 0.65247 2.0361
2.26587e-06 1.11522 -1.075
2.04217e-06 1.50664 0.105
7.74676e-07 1.41368 1.285
0.895084 0.620495 -1.15838
0.895075 0.642851 0.0434475
0.894506 0.64859 1.24527
-1.07456 0.214381 -1.85141
-0.69955 0.00719345 -1.89038
-0.699875 0.196207 -2.33018
-1.1915 0.217361 1.81086
-0.807081 -0.000634293 1.79389
-0.82146 0.219638 2.29578
-1.12177 0.999306 -1.6715
-0.735922 0.976573 -2.14803
-0.750984 1.62565 -1.56115
-1.10342 1.08985 1.87717
-0.752952 1.09268 2.35986
-0.743235 1.73654 1.95848
0.71097 0.00719345 -1.89038
0.717394 0.196207 -2.33018
1.07414 0.214381 -1.85141
0.819109 -0.000634386 1.7939
0.785556 0.219638 2.29579
1.19296 0.21736 1.81087
0.751585 0.976573 -2.14803
0.753534 1.62565 -1.56115
1.11979 0.999307 -1.6715
0.711014 1.09268 2.35986
0.718609 1.73654 1.95848
1.10063 1.08985 1.87717
-1.11756 0.21731 -0.631448
-0.735989 0.00314475 -0.663841
-1.15592 0.215085 0.59048
-0.77276 -0.00125435 0.567246
-1.15644 1.06947 -0.488233
-0.777261 1.69802 -0.386129
-1.12625 1.07781 0.693485
-0.759111 1.72036 0.783371
0.747771 0.00314415 -0.663838
1.11743 0.21731 -0.631444
0.787578 -0.00125509 0.567252
1.15953 0.215085 0.590488
0.768393 1.69802 -0.386128
1.1537 1.06947 -0.488232
0.741365 1.72036 0.783371
1.12612 1.07782 0.693486
-1.44786 -0.213938 -2.40379
-1.44658 -0.0227842 -2.84521
-1.0755 -0.225929 -2.88592
-1.46792 -0.202282 -1.31069
-1.45223 0.00593879 -1.88616
-1.07722 -0.201248 -1.92513
-1.50486 -0.207182 -0.0815208
-1.4901 0.00950463 -0.665632
-1.10854 -0.20466 -0.698024
-1.54002 -0.211898 1.14802
-1.52623 0.00271556 0.561253
-1.14307 -0.213624 0.538019
-1.56086 -0.208577 2.2433
-1.55691 0.0038048 1.78257
-1.17249 -0.21419 1.7656
-1.56755 -0.199621 3.20501
-1.56822 0.0109494 2.74732
-1.18413 -0.206635 2.72911
-1.57186 0.0215356 3.70639
-1.18833 -0.195351 3.68608
-1.45095 0.197092 -2.32758
-1.45994 0.580665 -2.72119
-1.07626 0.178919 -2.80635
-1.47442 0.217725 -1.2411
-1.47465 0.613687 -1.76362
-1.51148 0.219402 -0.0228579
-1.51064 0.645787 -0.562215
-1.54312 0.218418 1.19581
-1.51661 0.64819 0.639608
-1.56427 0.223331 2.28659
-1.52492 0.654744 1.84185
-1.57253 0.232106 3.2487
-1.55388 0.661552 2.8072
-1.19423 0.225609 2.77151
-1.57004 0.670651 3.77049
-1.19583 0.23629 3.73002
-1.48365 0.99726 -2.15723
-1.48432 1.60851 -2.52579
-1.0978 0.974526 -2.63377
-1.51088 1.04175 -1.08473
-1.50267 1.64354 -1.57059
-1.51577 1.07457 0.100252
-1.52566 1.69933 -0.391134
-1.4984 1.08452 1.28565
-1.514 1.72165 0.782068
-1.51452 1.09297 2.36246
-1.50662 1.73621 1.96217
-1.55139 1.1001 3.32899
-1.53656 1.7444 2.92173
-1.16406 1.09579 2.84515
-1.56118 1.7525 3.88616
-1.19004 1.10356 3.8123
-1.50334 2.25479 -1.93915
-1.11994 2.2321 -2.41245
-1.51744 2.30112 -0.87699
-1.13188 2.26988 -1.46024
-1.52388 2.3464 0.290682
-1.14648 2.32788 -0.28903
-1.52221 2.37334 1.45858
-1.14686 2.36419 0.871954
-1.52865 2.38765 2.52144
-1.14644 2.38289 2.04348
-1.54635 2.3968 3.47891
-1.16091 2.3928 2.99637
-1.18112 2.401 3.95883
-0.704863 -0.21324 -2.40726
-0.705189 -0.0242258 -2.84705
0.0185235 -0.225866 -2.88733
-0.717838 -0.203627 -1.31247
0.0114196 -0.200613 -1.92718
-0.746742 -0.211102 -0.0784847
0.0117816 -0.206641 -0.697747
-0.775536 -0.215916 1.1556
0.0148172 -0.215564 0.540782
-0.795759 -0.212248 2.2514
0.012028 -0.216269 1.77043
-0.804914 -0.202364 3.21018
-0.810138 0.00802479 2.7533
-0.017949 -0.208227 2.73238
-0.812304 0.0194041 3.70971
-0.0362513 -0.196501 3.68798
-0.714118 0.57278 -2.71893
0.0175189 0.177415 -2.80678
-0.817528 0.229793 3.25283
-0.804412 0.659846 2.80946
-0.0359049 0.224277 2.77421
-0.815832 0.669203 3.77183
-0.0486752 0.235309 3.73145
-0.733421 1.59812 -2.52042
0.0156619 0.968146 -2.63107
-0.802716 1.09926 3.32846
-0.788409 1.74419 2.91978
-0.0419382 1.09542 2.84472
-0.809992 1.75206 3.88497
-0.0575423 1.1031 3.81221
-0.748484 2.24719 -1.93354
0.00822932 2.22809 -2.40978
-0.760912 2.29664 -0.872278
0.00254818 2.26629 -1.4573
-0.769456 2.34567 0.292242
-0.00887145 2.32699 -0.287257
-0.771083 2.37374 1.45685
-0.0177469 2.36435 0.871742
-0.778692 2.38804 2.51841
-0.0246255 2.38313 2.04196
-0.795685 2.39699 3.47629
-0.0378344 2.39296 2.99486
-0.0539211 2.40103 3.95773
0.734806 -0.213239 -2.40725
0.741231 -0.0242255 -2.84705
1.10982 -0.225928 -2.88592
0.741039 -0.203627 -1.31246
1.09619 -0.201248 -1.92513
0.773341 -0.211103 -0.0784803
1.12822 -0.204661 -0.69802
0.802381 -0.215917 1.15561
1.16991 -0.213625 0.538026
0.789838 -0.212248 2.25141
1.19323 -0.21419 1.76561
0.750714 -0.202364 3.21019
0.756284 0.00802472 2.7533
1.15327 -0.206635 2.72912
0.727378 0.0194042 3.70972
1.12059 -0.19535 3.68609
0.747299 0.572781 -2.71893
1.10618 0.178919 -2.80635
0.732948 0.229793 3.25283
0.726569 0.659846 2.80947
1.13429 0.225609 2.77152
0.709614 0.669203 3.77183
1.10547 0.23629 3.73002
0.757312 1.59812 -2.52042
1.1233 0.974527 -2.63377
0.703235 1.09926 3.32847
0.708637 1.74419 2.91979
1.09092 1.09579 2.84515
0.698528 1.75206 3.88497
1.08167 1.10356 3.81231
0.759261 2.24719 -1.93354
1.13439 2.2321 -2.41245
0.754589 2.29664 -0.872277
1.13455 2.26988 -1.46024
0.742838 2.34567 0.292243
1.12834 2.32788 -0.289029
0.728711 2.37374 1.45685
1.1127 2.36419 0.871955
0.716233 2.38804 2.51841
1.09813 2.38289 2.04348
0.70393 2.39699 3.47629
1.08651 2.3928 2.99637
1.07497 2.401 3.95884
1.47121 -0.213937 -2.40379
1.47477 -0.0227836 -2.84521
1.48337 -0.202282 -1.31068
1.45936 0.00593929 -1.88616
1.52479 -0.207183 -0.0815135
1.49788 0.00950475 -0.665627
1.56076 -0.211898 1.14803
1.54186 0.00271512 0.561262
1.55666 -0.208577 2.24332
1.56707 0.00380445 1.78258
1.52315 -0.199621 3.20502
1.53128 0.0109495 2.74733
1.49868 0.0215357 3.7064
1.46292 0.197093 -2.32758
1.48218 0.580666 -2.72119
1.47386 0.217726 -1.2411
1.47225 0.613688 -1.76362
1.51495 0.219402 -0.0228514
1.50778 0.645788 -0.562212
1.54817 0.218418 1.19582
1.52007 0.64819 0.639614
1.54169 0.223331 2.2866
1.52359 0.654744 1.84186
1.50681 0.232106 3.24871
1.49864 0.661553 2.8072
1.47752 0.670651 3.7705
1.49151 0.997261 -2.15723
1.50038 1.60851 -2.52579
1.50616 1.04175 -1.08473
1.50081 1.64354 -1.57059
1.5129 1.07458 0.100254
1.51365 1.69933 -0.391133
1.49549 1.08452 1.28565
[...]
POINT_DATA 29498
VECTORS point_vectors float
-0.758818 -4.7849 8.66824
0.0348566 0.474995 2.5025
-1.3938 2.05344 4.53794
0.111988 0.0474549 0.48224
0.755555 -4.78857 8.67342
-0.0351864 0.468299 2.4842
1.39224 2.05495 4.53991
-0.119899 0.060837 0.479023
-6.94438e-05 2.01861e-05 0.00239892
-0.000882136 -0.00028523 0.0451768
0 0 0
0 0 0
7.48707e-05 2.31812e-05 0.00262264
0.00092812 -0.000288729 0.0469938
0 0 0
0 0 0
-0.727649 -0.460894 19.8603
-1.30615 -0.969335 20.6258
-0.529251 -0.45767 21.533
-0.0696946 -0.0573296 21.5793
0.26944 0.205372 21.5934
0.514767 0.397399 21.4179
0.672358 0.361489 21.1965
-1.06309 -0.38145 19.6339
-2.16187 -0.930678 20.6298
-0.746007 -0.513529 21.6835
-0.125014 -0.160359 21.7075
0.431205 0.137182 21.764
0.783954 0.30394 21.5385
0.951645 0.341801 21.5711
-1.31583 0.280601 19.594
-2.23813 0.423859 20.7598
-1.18437 -0.160724 21.6835
-0.238292 -0.18692 21.9029
0.575498 -0.219105 21.7742
0.968778 -0.280596 21.4608
0.991782 -0.315041 21.0949
-0.579574 0.538827 20.199
-0.770123 0.636733 20.7359
-0.588196 0.397754 21.3807
-0.15607 -0.00327084 21.6263
0.163952 -0.219805 21.4402
0.335018 -0.37081 21.2376
0.37367 -0.366079 20.82
-0.705715 -0.969047 19.2651
-1.36383 -3.08405 20.8608
-0.270986 -0.576236 22.0312
-0.0869073 -0.0424354 21.6359
0.0294547 0.503443 21.5758
0.223815 0.911627 21.4924
0.725517 1.24669 20.8655
-1.1663 -0.996333 18.4157
0.238287 1.42849 11.3849
0.912635 1.51755 13.3092
-1.76576 1.0335 17.789
1.47397 0.244452 9.78252
1.89265 -0.629644 14.4241
-0.507445 0.971691 19.9627
-0.746359 1.3245 20.6231
-0.706648 1.06192 21.5734
-0.202182 0.128354 21.9427
0.104729 -0.418315 21.6649
0.246172 -0.620842 21.3757
0.357195 -0.850074 20.5923
0.716147 -0.949854 19.2856
1.39249 -3.01189 20.8378
0.277519 -0.575505 22.0156
0.0765665 -0.0427461 21.6665
-0.0532467 0.499105 21.6564
-0.154687 0.869148 21.358
-0.561462 1.25334 20.2805
1.17972 -0.932018 18.4955
0.141371 1.37794 9.68471
-0.699748 1.60118 11.8494
1.77662 1.00159 17.8895
-1.37093 0.340499 6.91657
-1.91346 -0.703535 11.0439
0.515699 0.960838 19.9703
0.754567 1.32188 20.6241
0.704623 1.07196 21.5786
0.19795 0.123982 21.9593
-0.102056 -0.424935 21.6792
-0.239479 -0.612527 21.3435
-0.349902 -0.81335 20.4994
0.72405 -0.450637 19.8631
1.30376 -0.94882 20.6231
0.543948 -0.45141 21.5222
0.0808076 -0.0660489 21.5673
-0.271155 0.188691 21.5972
-0.522096 0.389496 21.4385
-0.658633 0.408515 21.2143
1.05224 -0.365916 19.6613
2.16918 -0.932199 20.6331
0.747295 -0.510392 21.6873
0.129236 -0.162626 21.7016
-0.422437 0.130998 21.7629
-0.804279 0.32884 21.5417
-1.07185 0.34867 21.3187
1.30597 0.273227 19.6254
2.25189 0.430814 20.7631
1.18861 -0.161654 21.6947
0.23783 -0.185211 21.9058
-0.578331 -0.216144 21.7727
-1.02268 -0.311769 21.4807
-1.05735 -0.395365 21.3178
0.578093 0.532129 20.2031
0.769583 0.636488 20.7355
0.592346 0.412075 21.3839
0.165526 0.01021 21.6367
-0.1691 -0.237074 21.4603
-0.335471 -0.389696 21.2453
-0.328482 -0.369277 20.9755
-0.351479 -0.0235489 0.482002
-7.87222e-06 -0.0191935 0.172006
-0.0318783 0.00508422 0.287423
-0.00647668 0.00794711 0.000401514
-0.000141966 0.00262939 0.0176387
-0.017134 0.00796429 0.333751
0.00111448 0.0620778 0.295801
-0.136439 -0.0425912 0.252498
-0.000127347 0.00163548 -0.00585827
0 0 0
0.350175 -0.0233894 0.480398
0.0323643 0.00515473 0.287055
0.00664602 0.00852357 0.000752389
0.0170005 0.00787017 0.333174
0.137731 -0.0430547 0.256507
0 0 0
-0.00163761 0.00019147 0.0375424
3.80796e-05 -0.000453696 0.0124753
-1.06706e-08 6.30656e-10 -1.61133e-06
-0.000254467 0.00595225 0.0308511
2.64643e-08 6.09469e-09 1.79728e-05
0 0 0
2.04262e-06 0.00032214 0.000576381
-1.26387e-07 -1.29404e-07 0.000378992
0.00164575 0.000190551 0.0375868
-3.79377e-05 -0.00045115 0.0123447
0.000253738 0.00593845 0.0307464
0 0 0
0 0 0
-9.06122e-05 0.00284008 0.0228919
0 0 0
-1.63943e-07 3.98373e-07 -2.53333e-05
1.81222e-08 1.31371e-08 7.81683e-06
3.79307e-08 -5.694e-08 -3.11583e-05
0 0 0
0 0 0
-1.19867e-05 0.00428032 0.025097
-1.69942e-08 5.65519e-07 9.74434e-05
-8.04196e-06 0.00168229 -0.00301718
0 0 0
9.09382e-05 0.00283506 0.0228569
0 0 0
-4.01993 -2.58845 20.5558
-2.09759 -5.09459 21.2981
-2.9658 -3.03715 17.2262
0.66817 0.547476 20.3659
-0.111492 0.7934 17.9413
0.0243507 0.946971 8.42915
-4.21925 1.39563 20.9448
-4.36917 3.47037 16.8049
-1.74936 2.40616 20.495
1.17107 -0.0326021 19.0132
0.898801 0.619702 5.52285
0.409007 -0.823218 21.1863
2.13085 -5.02051 21.2578
2.95245 -2.90325 17.3484
4.0422 -2.58798 20.5606
0.096703 0.796805 18.0369
0.169734 0.82537 7.15956
-0.655242 0.535708 20.3688
4.34979 3.31479 16.9355
1.75025 2.40016 20.4948
4.23393 1.40951 20.9438
-0.75613 0.691869 4.10614
-0.431308 -0.837121 20.9412
-1.17361 -0.0109045 18.944
-0.525152 -0.735256 20.9382
-0.203796 -0.215032 19.1607
-0.0427723 -0.00506584 19.6694
-0.165698 0.115075 17.6517
-1.79753 -0.773327 21.5573
-2.45112 2.03845 22.0423
0.00297838 -0.274439 19.3157
-0.39265 0.126755 22.2193
0.203306 -0.228207 19.3301
0.524004 -0.734855 20.9351
0.169369 0.119652 17.7749
0.0440494 -0.0151213 19.7448
2.46641 2.0806 22.0512
1.8021 -0.785329 21.5216
0.382933 0.13297 22.2077
-0.00361538 -0.273682 19.3264
-1.07837 -0.753175 20.0733
-0.918808 -0.45354 19.7535
-0.785551 -0.708285 19.5833
-0.966693 -0.792064 21.3288
-1.70693 -0.992714 20.6125
-1.57396 -1.80621 20.6269
-0.252765 -0.22182 21.5792
-0.669338 -0.526975 21.5937
-0.414277 -0.621339 21.7428
0.0820125 0.0739627 21.6588
-0.122001 -0.135594 21.6029
-0.0540037 -0.102656 21.6972
0.418453 0.315264 21.528
0.321639 0.169687 21.6118
0.252479 0.35989 21.7284
0.597167 0.453971 21.2958
0.628302 0.355658 21.4721
0.5218 0.7151 21.4907
0.789427 0.423051 21.375
0.703941 0.828804 21.079
-1.73425 -0.669242 19.8321
-1.29705 -0.0853575 19.5227
-1.23143 -0.637519 19.1217
-1.45023 -0.769896 21.5855
-2.56522 -0.2238 20.7324
-0.375186 -0.324807 21.6727
-0.98372 -0.378637 21.7257
0.105626 -0.00309894 21.7865
-0.170066 -0.149047 21.8546
0.624455 0.222539 21.6441
0.571689 0.0132751 21.8614
0.872104 0.340364 21.0815
0.963195 0.0183981 21.6257
1.07153 0.755705 20.373
1.07626 0.0543158 21.7207
1.45184 0.669651 19.6852
-1.98668 0.434605 19.9401
-0.923149 0.583148 19.923
-1.66863 0.605219 18.9068
-1.7176 0.0889662 21.4416
-1.37543 0.767348 20.6934
-0.691883 -0.223936 21.8665
-1.08174 0.32379 21.5294
0.165884 -0.164517 21.9176
-0.27579 -0.043729 21.817
0.772581 -0.247009 21.5966
0.328813 -0.314971 21.6187
1.10524 -0.33609 21.3234
0.57696 -0.443448 21.3729
1.41628 -0.321291 19.9027
0.704473 -0.49846 20.8922
1.56656 -0.450949 20.586
-0.692351 0.62601 20.4241
-0.591024 0.753454 20.0802
-0.745779 0.565037 21.096
-0.820086 0.967926 20.6824
-0.413364 0.189571 21.5819
-0.697361 0.683534 21.4759
0.038738 -0.145763 21.5645
-0.200686 0.0390881 21.8053
0.271736 -0.316692 21.4076
0.18026 -0.329784 21.5447
0.345841 -0.309659 21.1622
0.30272 -0.525267 21.2957
0.356703 -0.527357 21.114
-1.22043 -2.03713 19.3363
-0.91416 -1.04703 18.8762
0.0159988 -1.33571 18.9124
-0.614614 -1.47264 22.1021
0.0241281 -3.95318 21.3502
-0.144698 -0.230547 21.7951
0.00852912 -0.706806 22.1466
-0.0471604 0.131915 21.5357
0.00333419 -0.18817 21.0862
0.136038 0.789395 21.4435
-0.00330614 0.205763 20.5664
0.383019 1.02299 21.4746
0.265688 1.30376 18.3614
-0.0275172 0.3511 20.1726
0.58166 1.48771 18.968
-0.0266636 0.900644 18.2352
-1.73503 -0.172109 17.5544
0.0411365 -1.39378 17.528
0.732057 2.03953 13.6289
0.491125 1.2466 4.48864
-0.269277 -1.41499 -1.9228
1.88744 0.934396 9.88037
-0.183785 -0.551653 1.78014
-0.965371 1.42965 19.2213
0.0505947 1.78278 16.2996
2.20571 -0.233438 13.0376
0.63493 -1.10885 21.2762
0.0781401 -0.869633 0.187072
0.676465 -1.12813 19.7025
0.244057 -1.9241 1.56563
-0.635009 1.21635 20.2558
0.00567095 1.21469 19.831
-0.809235 1.30178 21.1186
0.00429216 1.78217 20.5174
-0.445001 0.581858 21.914
-0.00991275 1.60967 21.7292
-0.00854371 -0.209341 21.8088
-0.00695287 0.21973 22.1113
0.182769 -0.53826 21.5159
0.00169444 -0.450687 21.7437
0.216842 -0.609943 20.9379
0.0204691 -0.689204 21.4251
0.0339991 -0.576678 20.8645
1.22813 -1.96395 19.3835
0.942902 -1.01013 18.9294
0.776964 -0.669303 19.6169
0.633451 -1.46475 22.0885
1.58487 -1.77063 20.6185
0.139409 -0.231926 21.8008
0.421279 -0.61915 21.7315
0.0286234 0.13539 21.6602
0.0605844 -0.111506 21.6867
-0.128515 0.76926 21.416
-0.24537 0.345561 21.7133
-0.213416 1.06544 21.1047
-0.0727917 1.2546 17.84
-0.497998 0.701871 21.4732
-0.423588 1.52209 18.2562
-0.710728 0.933513 21.1461
1.73932 -0.177187 17.6853
1.22211 -0.619574 19.1661
-0.40784 2.04778 12.3094
-0.166542 1.24516 2.18961
-1.06256 0.926527 19.3484
-1.60461 1.10874 6.84351
-1.40783 0.95391 19.1556
0.981235 1.39729 19.2391
1.65019 0.5753 18.9555
-2.00478 -0.288663 9.91442
-0.632537 -1.14742 20.9687
-1.53851 -0.207842 18.8681
-0.722584 -1.21368 19.2709
-1.88847 -0.417554 19.5958
0.644525 1.20627 20.2593
0.593729 0.745195 20.0835
0.813018 1.30614 21.1186
0.819041 0.963895 20.6819
0.443269 0.589063 21.921
0.701516 0.705475 21.4796
0.00976197 -0.217286 21.8212
0.203171 0.0499305 21.8184
-0.176816 -0.53911 21.5207
-0.178047 -0.336291 21.5407
-0.185917 -0.614358 21.0014
-0.293909 -0.552575 21.3378
-0.354248 -0.589257 21.1025
1.06787 -0.725142 20.0895
0.909184 -0.434278 19.7826
0.97065 -0.774526 21.3204
1.69638 -0.98011 20.6178
0.251266 -0.217293 21.5757
0.674644 -0.527064 21.5837
-0.0719653 0.058379 21.6413
0.128548 -0.141131 21.588
-0.422874 0.296095 21.5171
-0.31964 0.162662 21.6323
-0.617621 0.454728 21.249
-0.641918 0.396492 21.4842
-0.875194 0.417644 21.1864
1.71619 -0.650513 19.8529
1.27557 -0.0881859 19.5655
1.4556 -0.769333 21.5888
2.58032 -0.224565 20.7346
0.376794 -0.323911 21.6734
0.983102 -0.382006 21.7328
-0.105284 -0.00618896 21.782
0.171836 -0.150186 21.8547
-0.622728 0.219662 21.6424
-0.566856 0.0144714 21.8593
-0.934311 0.374366 21.1858
-1.01595 0.0222373 21.5895
-1.22951 0.0172219 21.5422
1.96653 0.428305 19.958
0.91541 0.569829 19.9399
1.72269 0.0906383 21.4491
1.37615 0.769669 20.6949
0.692361 -0.222676 21.8698
1.09204 0.334969 21.5401
-0.1686 -0.164169 21.916
0.279557 -0.0411736 21.831
-0.796331 -0.265959 21.5844
-0.330907 -0.325273 21.6333
-1.15516 -0.420675 21.3983
-0.599552 -0.48172 21.3936
-0.78992 -0.533808 20.8292
0.69126 0.621592 20.4255
0.744144 0.573511 21.0954
0.414128 0.204994 21.5891
-0.032288 -0.142192 21.5757
-0.271218 -0.32455 21.4116
-0.347637 -0.355241 21.1137
-1.40047 -0.771729 19.9735
-1.85576 -2.60445 18.6192
-1.27136 -1.29016 19.7797
-2.53046 -1.42101 18.974
-1.01245 -0.731316 19.3739
-2.44333 -2.33523 20.6585
-1.20969 -0.821311 21.4476
-0.455017 -1.18448 21.7841
-0.933425 -1.24959 21.7024
-1.63772 -1.67733 22.3691
-0.429256 -0.732293 21.8847
-0.336284 -0.310067 21.6175
-0.151901 0.0179296 18.1189
-0.177466 -0.297125 21.7003
-0.181535 -0.297322 20.0029
-0.0122577 -0.114031 21.5399
0.0636453 0.0217595 21.702
-0.169432 0.243667 17.5153
0.0600422 0.0880996 21.728
0.124246 0.233367 19.9185
0.433527 0.478717 21.5143
0.509806 0.278469 21.5517
0.020555 1.10763 18.0537
0.408309 0.547872 21.6297
0.862921 0.667534 20.3749
0.741012 0.754178 21.1529
0.756204 0.397545 21.4024
0.513158 1.55195 17.8175
0.678877 0.747858 21.0084
1.23383 0.767943 20.4587
1.05097 0.862217 20.7425
-2.11073 -0.128138 19.7989
-5.30238 -0.299345 14.8131
-3.18203 1.23038 19.0656
-1.65872 -0.150721 18.7769
-5.66174 -0.412803 20.7454
-1.71758 -0.341137 21.6225
-2.50603 -0.058068 22.0386
-0.845643 -0.710488 20.167
-0.519037 -0.287319 21.8125
-0.808513 -0.767124 20.5058
-0.0243156 0.0439104 17.9718
0.151587 -0.0407674 21.9206
0.542927 0.0174328 19.4225
0.88754 0.424592 17.4571
0.801229 0.0313494 21.658
-0.600771 1.12393 1.61817
1.26672 -0.253885 19.7912
1.43232 0.282184 19.0798
1.11195 0.0546836 21.2566
2.11681 1.08189 8.43703
1.52726 -0.498105 20.3347
1.78602 0.270138 19.0653
-1.24123 0.768485 20.2261
-1.47259 2.25007 19.6424
-0.728749 0.916279 20.3335
-1.07423 0.960699 19.5794
-1.74342 1.4372 20.6143
-1.31181 0.556635 21.1654
-2.08061 2.09161 20.9422
-0.839682 0.88734 21.1138
-1.64338 0.740382 21.7668
-0.697466 0.118158 21.7812
-1.27308 0.859676 22.6957
-0.459483 0.360231 21.7412
-0.375055 0.00764449 22.1353
0.0747519 -0.189271 21.78
0.195017 -0.511506 21.7244
0.0179694 -0.189147 21.7033
0.395174 -0.524594 21.7965
0.47997 -0.378016 21.5009
0.512068 -0.958522 21.2783
0.25152 -0.411735 21.3738
0.690744 -0.76488 21.477
0.626495 -0.512343 21.0413
0.666538 -1.20072 21.2481
0.310749 -0.512837 21.1015
0.884188 -0.683625 20.8265
1.87906 -2.52988 18.6801
0.0340143 -2.9902 18.9679
0.0483014 -5.64334 14.6751
0.0212628 -1.49258 18.2778
0.0209486 -5.70759 22.8404
0.452365 -1.217 21.8401
0.0144981 -1.67507 22.4526
0.0017527 -0.251189 15.4243
0.156403 0.0169439 18.3032
0.00433143 -0.346568 21.5298
-0.0018292 -0.0405842 13.5976
0.168158 0.252069 17.6294
0.000519877 -0.0426267 20.7484
-0.00905807 0.21737 13.4053
0.0373115 1.07462 17.7846
-0.0172953 0.293042 20.2129
-0.199608 -0.59501 0.0834644
-0.174096 -0.0301781 12.1391
-0.296708 1.58149 17.2882
-0.0100876 0.715836 19.9423
-0.226034 0.430301 0.14676
-0.138299 1.00684 11.9893
5.22405 -0.294791 15.0556
0.0611643 7.63128 14.1449
0.0631194 -0.242809 15.8855
0.839596 1.17087 0.837618
-0.0329585 0.88881 0.279846
-0.0143894 -1.66783 -3.92545
-1.61819 1.10428 5.31012
0.203269 -1.39263 0.439867
0.540054 -2.17826 -1.69097
1.49049 2.22678 19.6469
0.00464455 1.57339 20.1271
0.0196168 2.01227 18.7636
0.00284568 3.47542 20.1934
2.08005 2.10399 20.937
-0.00214327 1.87968 21.06
-0.0170118 4.48835 22.3669
1.27566 0.889318 22.7193
-0.00839776 0.876727 22.1248
-0.0104256 0.481323 21.7869
-0.214842 -0.525546 21.5563
-0.00190005 -0.208324 21.9317
-0.003125 -0.67415 17.7329
-0.536077 -0.981293 20.8501
0.00609149 -0.649162 21.7233
0.0505464 -1.23038 18.0486
-0.651631 -1.31515 20.677
0.0152937 -0.974705 21.1387
0.0501185 -1.58158 19.1234
1.37212 -0.743546 20.0118
1.27308 -1.23482 19.7956
2.49721 -1.38142 19.0175
1.00631 -0.703376 19.4046
2.44847 -2.29211 20.666
1.21996 -0.813526 21.4306
0.948326 -1.23473 21.6801
1.63821 -1.67245 22.3694
0.449671 -0.733777 21.8898
0.339727 -0.309185 21.6136
0.183242 -0.305253 21.6888
0.184329 -0.301863 20.0348
0.0232206 -0.124328 21.5699
-0.0580581 0.00997267 21.6813
-0.0579928 0.0747602 21.7196
-0.12388 0.224312 19.9642
-0.424849 0.455547 21.5326
-0.502316 0.278795 21.5419
-0.399862 0.536172 21.6189
-0.843602 0.739948 19.8798
-0.696381 0.841178 21.008
-0.807851 0.409741 21.4898
-0.64099 0.791908 21.044
-1.13239 1.01761 19.1141
-1.03563 1.06781 20.8004
2.08993 -0.131776 19.8148
3.14487 1.18118 19.1004
1.62376 -0.137423 18.8625
5.67986 -0.407114 20.7491
1.72202 -0.342722 21.6297
2.51348 -0.0593721 22.0402
0.840241 -0.712313 20.1322
0.518592 -0.289691 21.8156
0.805994 -0.769707 20.4799
0.0260721 0.0406693 18.0324
-0.14956 -0.0415104 21.9232
-0.545988 0.0318242 19.3794
-0.875469 0.433526 17.4141
-0.812183 0.0306663 21.6596
-1.312 -0.088753 18.7652
-1.43268 0.435611 17.1681
-1.20659 0.0529519 21.3713
-1.78003 -0.401453 19.1915
-1.83896 0.470387 16.7353
1.23659 0.759754 20.2353
0.730424 0.910498 20.3337
1.07363 0.939461 19.6006
1.74169 1.43608 20.6139
1.31655 0.562939 21.1671
0.8389 0.896703 21.1141
1.65637 0.762852 21.7705
0.705044 0.125844 21.7916
0.464507 0.378291 21.7575
0.377238 0.0134168 22.1479
-0.0826485 -0.192276 21.7964
-0.0189124 -0.193298 21.7043
-0.398724 -0.535447 21.8057
-0.485218 -0.419807 21.4962
-0.253325 -0.443875 21.3699
-0.6996 -0.816835 21.5109
-0.627984 -0.549719 21.0239
-0.294151 -0.555467 21.0886
-0.774844 -0.773109 21.1582
-1.80045 -1.46307 19.4457
-1.16661 -1.47949 22.0567
-0.148125 -0.352722 21.6265
0.117507 0.115214 21.5065
0.636906 0.680158 21.2682
0.953888 0.740686 21.0843
-3.52007 -0.264587 18.5616
-2.23361 -0.612759 22.3519
-0.297818 -0.40969 18.7802
0.256891 0.335881 17.8994
1.12813 0.359744 18.3719
1.67241 0.335428 19.2686
-1.53544 1.42036 19.9474
-1.78926 1.08191 21.1849
-0.999091 0.332943 22.1158
0.117757 -0.294627 22.0051
0.546979 -0.643993 21.6513
0.703492 -0.813659 21.0981
0.0315359 -4.31486 17.7767
0.00638038 -1.16069 19.2763
-0.000793419 -0.0845807 14.075
-0.00417314 0.0171149 13.4068
-0.0592366 0.0129505 12.6619
-0.151137 0.653367 12.2788
0.0839948 -0.252745 8.32348
-0.0566119 0.235248 -2.00542
0.241135 -1.76137 -4.87705
0.014837 3.29482 19.2698
-0.00856311 3.84116 20.2061
-0.0137264 1.75962 23.0237
-0.00944446 -0.338673 20.3521
0.00540385 -0.856732 17.7706
0.0314 -1.4809 18.5294
1.78817 -1.41636 19.4674
1.19489 -1.46757 22.0363
0.160648 -0.363807 21.6832
-0.112295 0.101459 21.535
-0.616895 0.69437 21.1924
-0.95252 0.907881 21.0212
3.4737 -0.256886 18.6327
2.23128 -0.611758 22.3362
0.29834 -0.409975 18.7948
-0.254763 0.33468 17.918
-1.0868 0.456517 17.1791
-1.80175 0.51202 16.79
1.5278 1.39724 19.9585
1.79351 1.09176 21.182
1.00578 0.344577 22.1289
-0.120225 -0.297399 22.0186
-0.552214 -0.67525 21.6486
-0.69791 -0.89466 21.2433
-0.149524 -0.0515699 0.164505
-0.0022406 -0.10445 0.846907
-0.0584846 0.00540913 0.276059
-0.0146817 -0.00984233 -0.0117054
-0.00563725 0.00505869 0.0356564
-0.057192 0.0266488 0.871259
-1.32184 0.246512 2.1215
-0.0216742 0.147129 0.573507
-0.193161 -0.0267771 0.515347
0 0 0
0.0114854 0.00941111 -0.027288
0.0630443 0.0284557 0.295774
0.00597326 -0.100393 0.847737
0.152626 -0.0525681 0.167974
0.0584151 0.0053489 0.275871
0.00538062 0.00501108 0.0350972
0.0147577 -0.00964206 -0.0119896
0.0566554 0.0262723 0.867755
0.0215387 0.146317 0.573594
1.31421 0.245423 2.11795
0.192405 -0.0265498 0.513609
-0.0137847 0.00987608 -0.0280539
0 0 0
-0.0635071 0.0289893 0.295378
5.56178e-05 -0.000172114 0.0736554
-0.000588472 6.68976e-05 0.0186018
0 0 0
0 0 0
-0.0104143 0.00016606 0.222008
-0.00596321 0.000524397 0.140972
6.58281e-05 0.00452203 0.0297739
0 0 0
-0.112686 -0.0817279 0.300953
-0.000730421 -0.00374949 0.0732216
0 0 0
-0.128549 0.136597 0.325959
0 0 0
0.000928818 0.00486186 0.0230831
0 0 0
0.00159234 0.000453441 0.0188273
0.000106066 -0.000152867 0.0745405
0 0 0
0.000518994 9.17794e-05 0.0217867
0 0 0
0.0103074 0.000155953 0.221837
0 0 0
0.00596431 0.000524294 0.140813
-6.5568e-05 0.00452448 0.0298472
0.113173 -0.0821 0.302386
0.128986 0.136791 0.326773
0.000740295 -0.00376938 0.0734384
0 0 0
0 0 0
-0.00162103 0.000456749 0.0189254
-0.000933204 0.00488305 0.023083
0 0 0
0 0 0
-0.285086 -0.0476121 0.0846269
1.36452e-08 -1.06194e-05 0.000457974
0 0 0
0 0 0
-5.47083e-07 -2.51649e-07 3.48445e-05
0 0 0
-0.0223791 0.0205899 -0.00409779
6.34038e-08 -3.29087e-08 -1.49889e-05
0 0 0
0.000219109 0.0084344 0.070308
-3.69636e-07 -1.08106e-08 3.13875e-05
-0.000465267 1.05661 0.856506
2.53555e-06 -1.54813e-05 -0.000107911
0 0 0
-0.0144211 0.00241119 0.0214278
0 0 0
-4.37868e-05 0.00465666 -0.0088991
0.00339699 0.0190387 0.106225
-4.7589e-05 0.00108468 -0.00172593
0.28145 -0.0473929 0.0834755
0 0 0
5.23461e-07 -2.3572e-07 3.25496e-05
0 0 0
0.0223558 0.0216889 -0.00413851
0 0 0
4.09176e-07 -1.3773e-08 4.08898e-05
-0.000216997 0.0084057 0.0701527
0.0143197 0.00240351 0.02131
0 0 0
1.32584e-06 0.00106804 -0.00170214
-0.00340748 0.0192 0.106336
0 0 0
0 0 0
0.000141556 -0.00290503 0.0270121
-2.12585e-05 0.00107976 0.0191752
-1.07081e-08 -6.44458e-09 -3.52212e-06
-1.25515e-07 -2.01114e-08 -2.60208e-05
-0.000151645 0.00422787 0.0269371
0 0 0
-3.80827e-08 -1.53451e-08 -1.8798e-05
5.25144e-11 4.51686e-10 3.68913e-07
0.00143216 0.00748786 0.0413928
0.0254786 0.00875141 0.354264
-1.67639e-07 0.00014129 0.000274264
1.5747e-08 -8.43932e-06 -0.000172259
-6.964e-08 3.52737e-07 0.000237882
3.88523e-08 6.04476e-07 -0.000121033
0 0 0
0 0 0
7.35567e-06 -0.00281313 0.0265698
2.16249e-05 0.00107982 0.0191833
0.000151944 0.00422758 0.0269007
0 0 0
-0.0256196 0.00876783 0.354234
-0.00143087 0.00748612 0.0413811
6.04032e-18 5.84875e-18 -6.63859e-17
-0.0072073 -0.0084635 0.188411
0 0 0
-0.00212105 -0.0113422 0.067162
0 0 0
0.00102966 0.00571233 0.054051
0.000164521 0.00195354 0.01531
0.00126646 0.00659535 0.03236
-0.000759857 0.00820125 0.0729295
0.00300474 0.0143324 0.078253
0.00082535 0.00759926 0.0917459
0.00191653 0.00992273 0.0693023
-1.922e-05 -6.27912e-06 0.000423355
1.76947e-05 -5.95589e-06 0.000393691