# vtk DataFile Version 2.0
tet_velo
ASCII
DATASET UNSTRUCTURED_GRID
POINTS 29498 float
-0.809993 0.235 -2.335
-0.765 0.355 2.36281
-0.822004 0.695 -2.215
-0.745 0.844244 2.195
0.810726 0.235 -2.335
0.765 0.355 2.36286
0.822741 0.695 -2.215
0.745 0.844297 2.195
-0.842315 0.22768 -0.769064
-0.830026 0.264972 0.796873
-0.859224 0.807636 -0.745
-0.840715 0.864543 0.725
0.842997 0.227487 -0.769047
0.830655 0.264587 0.796907
0.859877 0.807815 -0.745
0.841242 0.86486 0.725
-1.64846 -0.0847656 -3.55483
-1.65159 -0.0475571 -2.3405
-1.66883 -0.0417296 -0.772084
-1.64809 -0.0111115 0.815642
-1.59546 0.058388 2.38569
-1.58411 0.0998864 3.60798
-1.59113 0.130674 4.81553
-1.64885 0.177483 -3.52932
-1.6529 0.227773 -2.32547
-1.67729 0.241522 -0.775725
-1.64556 0.26895 0.782658
-1.56969 0.327988 2.33425
-1.56719 0.367938 3.55518
-1.58269 0.399701 4.76586
-1.65444 0.679126 -3.45138
-1.66327 0.72902 -2.24356
-1.69033 0.810419 -0.759215
-1.65335 0.851568 0.718333
-1.56178 0.853207 2.20452
-1.56377 0.892236 3.42942
-1.5834 0.933082 4.65556
-1.65944 1.4921 -3.4066
-1.66523 1.55042 -2.21316
-1.67406 1.63684 -0.759917
-1.66702 1.69431 0.672644
-1.64217 1.71436 2.12689
-1.62677 1.73299 3.32242
-1.62255 1.76251 4.53809
-0.818218 -0.081728 -3.56102
-0.814726 -0.0430118 -2.34953
-0.83443 -0.0492204 -0.770866
-0.832169 -0.0135704 0.827781
-0.798827 0.0734567 2.4069
-0.790001 0.109967 3.62238
-0.794482 0.135556 4.82387
-0.818243 0.176951 -3.53123
-0.776835 0.37753 3.56706
-0.788591 0.403713 4.77215
-0.822203 0.665357 -3.43951
-0.773534 0.890817 3.42751
-0.789961 0.932787 4.65516
-0.825001 1.4833 -3.39487
-0.828259 1.54244 -2.20023
-0.839458 1.63633 -0.752123
-0.845737 1.69765 0.671713
-0.836219 1.71389 2.12021
-0.824925 1.73081 3.31576
-0.820341 1.76064 4.53325
0.828371 -0.0817357 -3.56101
0.828805 -0.0430467 -2.34952
0.839681 -0.0493805 -0.77085
0.818325 -0.01384 0.82781
0.77526 0.0733659 2.40694
0.780727 0.109914 3.62241
0.789372 0.135511 4.82389
0.823995 0.176955 -3.53122
0.775469 0.377505 3.56709
0.786744 0.403682 4.77217
0.828201 0.665375 -3.43951
0.767939 0.890832 3.42753
0.782228 0.932781 4.65518
0.841154 1.48335 -3.39487
0.84364 1.54251 -2.20023
0.83579 1.63643 -0.752119
0.807201 1.69777 0.671718
0.778326 1.71397 2.12022
0.775354 1.73085 3.31577
0.780316 1.76066 4.53326
1.65627 -0.0847779 -3.55482
1.65849 -0.0476089 -2.34049
1.67232 -0.0419301 -0.772057
1.64532 -0.0114554 0.815689
1.58932 0.0581824 2.38575
1.58124 0.0997651 3.60803
1.58883 0.13058 4.81557
1.65225 0.177496 -3.52931
1.65174 0.227779 -2.32547
1.67817 0.241393 -0.775703
1.65185 0.268644 0.782701
1.57819 0.327827 2.3343
1.57177 0.367856 3.55523
1.58341 0.399631 4.76591
1.65796 0.679177 -3.45137
1.66217 0.729108 -2.24356
1.69069 0.810601 -0.759207
1.65788 0.85175 0.718349
1.56747 0.853219 2.20454
1.56353 0.892234 3.42945
1.57819 0.933062 4.65559
1.67278 1.49219 -3.4066
1.67626 1.55054 -2.21315
1.66969 1.63702 -0.759908
1.63646 1.6945 0.672657
1.5962 1.71448 2.1269
1.58448 1.73306 3.32244
1.58621 1.76254 4.53811
-0.820809 0.465 -2.27981
0.000366479 0.232378 -2.33762
-0.822888 0.234606 -1.55203
-0.733438 0.599622 2.25734
0 0.342566 2.37527
-0.829349 0.27815 1.57984
0.000368476 0.736281 -2.25628
-0.866559 0.777263 -1.48
0 0.83795 2.18868
-0.813707 0.875243 1.46
0.821533 0.465 -2.2798
0.823508 0.234597 -1.55202
0.733437 0.599648 2.25737
0.835297 0.272324 1.57988
0.867212 0.777311 -1.48
0.813827 0.875284 1.46
-0.844759 0.237738 0.0139049
-0.878406 0.517658 -0.757032
0.000341157 0.171118 -0.769055
-0.878351 0.564758 0.760937
0.000314494 0.171175 0.79689
-0.847539 0.833659 -0.00999999
0.000326367 0.932424 -0.745
0.000263575 1.24188 0.725
0.845414 0.237449 0.01393
0.87912 0.517651 -0.757023
0.87907 0.564724 0.760953
0.848303 0.834081 -0.00999999
-0.892677 0.491329 -1.51602
-0.878513 0.541208 0.00195247
-0.868487 0.58219 1.51992
0.000353818 0.213265 -1.55203
0.000327826 0.171138 0.0139174
0.000157247 0.2517 1.57986
0.000367478 0.465 -2.42874
0 0.599635 2.25219
0.000347422 0.885111 -1.48
0.000294971 1.24905 -0.00999999
0.000131787 0.914316 1.46
0.887872 0.491325 -1.51601
0.879205 0.541187 0.00196499
0.867605 0.582186 1.51994
-1.23145 0.231387 -2.33024
-0.81236 0.0959941 -2.34226
-0.814118 0.205976 -2.93311
-1.16734 0.341494 2.34853
-0.781914 0.214228 2.38486
-0.770918 0.366265 2.96493
-1.24264 0.71201 -2.22928
-0.822103 0.680178 -2.82726
-0.825132 1.11872 -2.20762
-1.15339 0.848726 2.19976
-0.759267 0.867531 2.81126
-0.790609 1.27907 2.15761
0.819765 0.0959766 -2.34226
0.81736 0.205977 -2.93311
1.23123 0.23139 -2.33023
0.77013 0.214183 2.3849
0.770235 0.366252 2.96497
1.17159 0.341413 2.34858
0.825471 0.680188 -2.82726
0.83319 1.11876 -2.20761
1.24246 0.712054 -2.22928
0.75647 0.867565 2.81126
0.761663 1.27913 2.15761
1.15623 0.848758 2.19977
-1.2598 0.234601 -0.772394
-0.838372 0.0892299 -0.769965
-1.23779 0.266961 0.789766
-0.831098 0.125701 0.812327
-1.27478 0.809027 -0.752108
-0.849341 1.22198 -0.748562
-1.24703 0.858055 0.721667
-0.843226 1.2811 0.698357
0.841339 0.0890531 -0.769949
1.26058 0.23444 -0.772375
0.82449 0.125374 0.812358
1.24125 0.266616 0.789804
0.847833 1.22212 -0.74856
1.27528 0.809208 -0.752104
0.824222 1.28131 0.698359
1.24956 0.858305 0.721675
-1.65002 -0.0661613 -2.94767
-1.64865 0.0463588 -3.54208
-1.23334 -0.0832468 -3.55792
-1.66021 -0.0446434 -1.55629
-1.65224 0.090108 -2.33299
-1.23316 -0.0452844 -2.34501
-1.65846 -0.0264205 0.0217794
-1.67306 0.0998961 -0.773904
-1.25163 -0.045475 -0.771475
-1.62177 0.0236382 1.60066
-1.64682 0.128919 0.79915
-1.24013 -0.0123409 0.821711
-1.58978 0.0791372 2.99683
-1.58257 0.193188 2.35997
-1.19714 0.0659224 2.39629
-1.58762 0.11528 4.21175
-1.57565 0.233912 3.58158
-1.18706 0.104927 3.61518
-1.58691 0.265188 4.7907
-1.19281 0.133115 4.8197
-1.65087 0.202628 -2.9274
-1.65164 0.428304 -3.49035
-1.23355 0.177217 -3.53027
-1.6651 0.234647 -1.5506
-1.65808 0.478397 -2.28452
-1.66143 0.255236 0.00346649
-1.68381 0.52597 -0.76747
-1.60762 0.298469 1.55845
-1.64945 0.560259 0.750496
-1.56844 0.347963 2.94471
-1.56573 0.590598 2.26938
-1.57494 0.38382 4.16052
-1.56548 0.630087 3.4923
-1.17201 0.372734 3.56112
-1.58304 0.666391 4.71071
-1.18564 0.401707 4.76901
-1.65885 0.704073 -2.84747
-1.65694 1.08561 -3.42899
-1.23832 0.672241 -3.44545
-1.6768 0.769719 -1.50139
-1.66425 1.13972 -2.22836
-1.67184 0.830993 -0.020441
-1.68219 1.22363 -0.759566
-1.60756 0.852387 1.46143
-1.66019 1.27294 0.695489
-1.56278 0.872722 2.81697
-1.60197 1.28378 2.1657
-1.57358 0.912659 4.04249
-1.59527 1.31261 3.37592
-1.16865 0.891527 3.42846
-1.60297 1.3478 4.59683
-1.18668 0.932934 4.65536
-1.66233 1.52126 -2.80988
-1.24222 1.4877 -3.40074
-1.66965 1.59363 -1.48654
-1.24674 1.54643 -2.20669
-1.67054 1.66558 -0.0436363
-1.25676 1.63659 -0.75602
-1.65459 1.70434 1.39976
-1.25638 1.69598 0.672179
-1.63447 1.72368 2.72465
-1.23919 1.71413 2.12355
-1.62466 1.74775 3.93026
-1.22585 1.7319 3.31909
-1.22145 1.76158 4.53567
-0.816472 -0.0623699 -2.95527
-0.81823 0.0476117 -3.54612
0.00507685 -0.0817318 -3.56101
-0.824578 -0.0461161 -1.5602
0.00703945 -0.0430292 -2.34953
-0.8333 -0.0313954 0.0284574
0.00262557 -0.0493004 -0.770858
-0.815498 0.0299432 1.61734
-0.00692204 -0.0137052 0.827795
-0.794414 0.0917117 3.01464
-0.0117839 0.0734113 2.40692
-0.792242 0.122761 4.22312
-0.783418 0.243748 3.59472
-0.0046374 0.10994 3.62239
-0.791536 0.269635 4.79801
-0.00255515 0.135533 4.82388
-0.820223 0.421154 -3.48537
0.00287579 0.176953 -3.53123
-0.782713 0.390622 4.1696
-0.775185 0.634174 3.49728
-0.0006832 0.377517 3.56707
-0.789276 0.66825 4.71366
-0.000923364 0.403697 4.77216
-0.823602 1.07433 -3.41719
0.0029993 0.665366 -3.43951
-0.781748 0.911802 4.04134
-0.799229 1.31082 3.37164
-0.00279743 0.890825 3.42752
-0.805151 1.34672 4.5942
-0.00386668 0.932784 4.65517
-0.82663 1.51287 -2.79755
0.00807645 1.48332 -3.39487
-0.833859 1.58939 -1.47618
0.00769023 1.54248 -2.20023
-0.842598 1.66699 -0.040205
-0.00183441 1.63638 -0.752121
-0.840978 1.70577 1.39596
-0.0192681 1.69771 0.671716
-0.830572 1.72235 2.71799
-0.0289466 1.71393 2.12022
-0.822633 1.74573 3.9245
-0.0247855 1.73083 3.31576
-0.0200126 1.76065 4.53325
0.828588 -0.0623912 -2.95527
0.826183 0.0476095 -3.54612
1.24232 -0.0832568 -3.55792
0.834243 -0.0462136 -1.56019
1.24365 -0.0453278 -2.34501
0.829003 -0.0316102 0.0284798
1.256 -0.0456553 -0.771454
0.796792 0.029763 1.61738
1.23182 -0.0126477 0.821749
0.777993 0.0916399 3.01467
1.18229 0.0657742 2.39634
0.785049 0.122712 4.22315
0.778098 0.243709 3.59475
1.18098 0.10484 3.61522
0.788058 0.269596 4.79803
1.1891 0.133046 4.81973
0.826098 0.421165 -3.48537
1.23812 0.177225 -3.53027
0.781107 0.390593 4.16963
0.771704 0.634169 3.49731
1.17362 0.37268 3.56116
0.784486 0.668231 4.71368
1.18508 0.401656 4.76904
0.834677 1.07436 -3.41719
1.24308 0.672276 -3.44544
0.775083 0.911807 4.04135
0.771647 1.31084 3.37165
1.16573 0.891533 3.42849
0.781272 1.34672 4.59422
1.18021 0.932921 4.65539
0.842397 1.51293 -2.79755
1.25697 1.48777 -3.40073
0.839715 1.58947 -1.47617
1.25995 1.54653 -2.20669
0.821495 1.6671 -0.0402004
1.25274 1.63673 -0.756014
0.792763 1.70587 1.39597
1.22183 1.69613 0.672188
0.77684 1.72241 2.718
1.18726 1.71422 2.12356
0.777835 1.74576 3.92451
1.17992 1.73196 3.31911
1.18326 1.7616 4.53569
1.65738 -0.0661934 -2.94766
1.65426 0.0463591 -3.54207
1.66541 -0.0447695 -1.55627
1.65511 0.0900853 -2.33298
1.65882 -0.0266928 0.021816
1.67525 0.0997312 -0.77388
1.61732 0.0233635 1.60072
1.64859 0.128594 0.799195
1.58528 0.0789738 2.99689
1.58375 0.193005 2.36002
1.58504 0.115173 4.2118
1.57651 0.23381 3.58163
1.58612 0.265106 4.79074
1.652 0.202638 -2.92739
1.65511 0.428337 -3.49034
1.66495 0.234586 -1.55059
1.65695 0.478444 -2.28451
1.66501 0.255018 0.00349914
1.68443 0.525997 -0.767455
1.61502 0.298235 1.5585
1.65487 0.560197 0.750525
1.57498 0.347841 2.94477
1.57283 0.590523 2.26942
1.57759 0.383743 4.16057
1.56765 0.630045 3.49234
1.5808 0.666346 4.71075
1.66007 0.704142 -2.84747
1.66537 1.08568 -3.42899
1.67643 0.769855 -1.50138
1.66921 1.13982 -2.22836
[...]
POINT_DATA 29498
VECTORS point_vectors float
-8.33968 -8.65497 14.8709
0.346209 0.271128 1.87745
-4.05435 2.72987 5.96352
-0.299688 -0.784322 1.6803
8.31284 -8.63333 14.871
-0.344913 0.272778 1.85823
4.14958 2.7895 6.00976
0.302419 -0.784038 1.66948
0.0441204 -0.0138622 1.34318
0.0233666 0.00220393 0.215932
-0.135831 -0.146825 0.466145
0.0171797 0.0358534 0.149885
-0.0471319 -0.0144476 1.27196
-0.0290665 0.00393804 0.271282
0.141461 -0.153695 0.473759
-0.0168627 0.0358331 0.150097
-0.465227 -0.164125 19.8998
-1.08999 -0.485205 20.4081
-0.429677 -0.34732 21.211
0.140675 -0.124864 21.4224
0.717847 0.0890726 21.2521
0.824835 0.0419826 21.3155
0.902082 -0.0974159 20.728
-0.505728 -0.101427 19.8562
-1.36568 -0.401563 20.3682
-0.523891 -0.372066 21.2344
0.135117 -0.216696 21.4757
0.822983 -0.108061 21.3429
1.00654 -0.23603 21.3918
0.989936 -0.340162 20.9695
-0.558226 0.0455983 19.8214
-1.47196 0.0860667 20.3975
-0.878648 -0.248984 21.1804
-0.140635 -0.323441 21.5015
0.602741 -0.43505 21.3772
0.903292 -0.511055 20.7705
0.72973 -0.330254 20.9842
-0.438938 0.246797 19.9362
-0.869445 0.489176 20.3535
-0.801134 0.273646 21.007
-0.318498 -0.0559507 21.3806
0.125199 -0.333359 21.2249
0.309796 -0.500795 20.8204
0.236695 -0.228126 20.8187
-0.444012 -0.374532 19.4168
-2.306 -3.28917 20.4527
-0.312575 -0.177119 20.4956
0.456381 0.371506 18.4955
1.21603 1.19295 17.2771
1.52955 1.3753 17.6367
1.3655 0.838186 16.5455
-0.581016 -0.278121 19.1781
2.03041 1.01117 12.9533
1.54884 0.737491 13.6135
-0.681691 0.167757 19.0198
1.54549 -0.912063 9.64511
0.96881 -0.340721 15.4021
-0.445192 0.551452 19.5049
-1.14236 1.63539 20.0847
-1.35192 1.368 20.9523
-0.523966 0.2096 21.803
-0.0562721 -0.461595 21.4324
0.0872199 -0.665908 21.3201
0.0395371 -0.682607 20.3164
0.451743 -0.370223 19.4312
2.31703 -3.18762 20.4323
0.320093 -0.154056 20.5715
-0.446199 0.376626 18.2934
-1.17642 1.20459 16.8693
-1.52335 1.38484 17.563
-1.35756 0.842395 16.4712
0.587136 -0.273153 19.1828
-2.02935 1.01155 12.8874
-1.53691 0.743341 13.5769
0.681878 0.16784 19.0196
-1.54003 -0.912121 9.47749
-0.964451 -0.320112 15.3169
0.44973 0.548614 19.5115
1.14489 1.60738 20.0881
1.35272 1.37591 20.9516
0.519335 0.240207 21.836
0.0878092 -0.449786 21.4861
-0.0719306 -0.686558 21.0091
-0.0256694 -0.714187 20.2593
0.455879 -0.164501 19.8899
1.07636 -0.486968 20.4041
0.42355 -0.349589 21.2159
-0.14472 -0.125965 21.4213
-0.721208 0.0918708 21.2483
-0.831782 0.0427763 21.3135
-0.908378 -0.0950706 20.7329
0.506901 -0.103183 19.8544
1.37252 -0.401261 20.3692
0.52242 -0.371972 21.2451
-0.134178 -0.212404 21.4753
-0.817445 -0.108737 21.3458
-1.01049 -0.237918 21.3858
-0.997454 -0.339617 20.9735
0.557878 0.044115 19.8185
1.47821 0.0865988 20.3935
0.874408 -0.250848 21.1826
0.13932 -0.325299 21.4954
-0.599878 -0.432684 21.3747
-0.906377 -0.511887 20.7675
-0.731277 -0.337951 20.9797
0.437194 0.243956 19.9409
0.865878 0.484248 20.3559
0.805464 0.274527 21.0099
0.325181 -0.0568622 21.3893
-0.123861 -0.345868 21.2292
-0.300549 -0.507761 20.8158
-0.232294 -0.237368 20.8371
-4.6509 -0.150687 5.60338
-0.00196289 -0.143809 0.424042
0.00340218 -0.0147215 0.540877
0.0123456 -0.0550412 0.078882
-0.000143542 0.0559618 0.218473
0.224474 0.100779 2.5906
-0.00399091 0.280429 0.832013
-0.169015 -0.186215 1.50113
-0.00100968 0.209402 -0.261889
0.0936893 0.0470331 0.660725
4.70366 -0.156985 5.68327
-0.0160628 -0.0103835 0.524462
-0.0114843 -0.0543613 0.0765442
-0.256918 0.142925 2.79916
0.158143 -0.153958 1.52635
-0.0948537 0.0478137 0.656398
0.0139178 -0.0011011 0.501769
0 0 0
6.54532e-08 -3.55846e-07 4.99452e-05
0 0 0
1.55862e-07 6.44385e-05 0.00822223
0.00390291 0.0110295 0.0518883
0 0 0
-3.42369e-05 -0.002546 0.0994362
-0.0136076 -0.00121794 0.474459
0 0 0
0 0 0
-0.00419645 0.0119536 0.0555234
0.00164349 -0.00734819 0.154029
0 0 0
0.000944452 9.24588e-06 0.0102005
-1.01001e-06 -2.32219e-05 0.000520302
6.59397e-08 -2.30178e-07 0.000185559
0 0 0
0.00147678 0.810531 0.632829
0.00135531 -0.00323774 0.00120465
8.54652e-05 0.000536326 0.00556252
2.10894e-05 0.00147488 0.0645459
-4.85087e-06 0.000779725 -0.0067673
0 0 0
0 0 0
0 0 0
-2.60997 -1.07911 20.2924
-3.86468 -5.01076 20.2943
-1.62912 -0.985125 18.1756
1.40319 0.11586 19.5268
1.24941 1.00472 11.6035
1.56983 0.819341 9.69781
-3.01261 0.380546 20.3229
-2.11029 0.702584 17.6985
-2.50581 2.75509 19.9302
0.950884 -0.585725 19.1023
0.425314 -0.780795 6.56769
0.305645 -0.615393 16.7343
3.83394 -4.88223 20.2999
1.63103 -0.980875 18.182
2.62168 -1.08008 20.2834
-1.20554 1.01868 11.2233
-1.56772 0.817761 9.64537
-1.40139 0.108886 19.5783
2.10987 0.704105 17.7088
2.50556 2.72214 19.9312
3.01506 0.382113 20.3249
-0.409391 -0.781218 6.45752
-0.311969 -0.60321 16.1585
-0.948398 -0.590077 19.1486
-0.469116 -0.701611 21.5025
0.125969 0.0488442 14.7463
0.34757 -0.255339 20.7749
0.65624 0.34247 12.3966
-1.40147 -0.61488 21.39
-2.80732 1.41869 20.6759
-0.124359 -0.608897 20.9634
-0.400644 0.0788016 18.4982
-0.0808476 0.106123 14.6447
0.44733 -0.691347 21.5102
-0.642193 0.358727 12.1153
-0.35299 -0.253115 20.8115
2.81112 1.42632 20.6726
1.38893 -0.6238 21.4002
0.304398 0.132202 17.8151
0.124007 -0.613666 20.9974
-0.775549 -0.319192 19.9692
-0.493069 -0.139042 19.8768
-0.49962 -0.252756 19.6689
-0.791192 -0.450842 21.0094
-1.18284 -0.454756 20.3951
-1.70733 -1.16826 20.3732
-0.132098 -0.246416 21.3512
-0.477854 -0.349229 21.2198
-0.339072 -0.44957 21.4052
0.432305 -0.00862164 21.4032
0.133239 -0.157304 21.4258
0.340235 -0.0344076 21.5148
0.863778 0.143864 20.9431
0.79427 -0.00292527 21.3094
1.17073 0.433608 20.9587
0.866962 0.0979966 20.3093
0.926406 -0.113972 21.366
1.3785 0.503774 20.6555
0.981586 -0.191421 20.8386
1.13345 0.297026 21.2158
-0.915105 -0.221107 19.9112
-0.538068 -0.0354977 19.8192
-0.618262 -0.189283 19.5673
-0.964111 -0.400931 21.0136
-1.44314 -0.1523 20.3928
-0.201696 -0.312767 21.3885
-0.697444 -0.345445 21.2075
0.472448 -0.153538 21.4741
0.0154425 -0.305129 21.5177
0.95257 -0.0974734 21.1344
0.750989 -0.300838 21.3791
0.889283 -0.0402425 20.5503
1.01828 -0.404546 21.254
1.75368 0.0360566 18.9788
0.906373 -0.415778 20.8943
1.23005 0.106714 18.7086
-1.06077 0.0859624 19.867
-0.535763 0.172808 19.8457
-0.700937 0.0834739 19.4729
-1.1901 -0.0917148 20.9584
-1.22618 0.377382 20.354
-0.545395 -0.312242 21.4246
-0.949657 0.0610261 21.0925
0.26479 -0.35177 21.5
-0.288359 -0.198247 21.4587
0.760897 -0.478463 21.17
0.292708 -0.456753 21.2879
0.547749 -0.349995 21.0873
0.444412 -0.606022 21.023
1.24736 -0.811068 20.1794
0.39679 -0.244036 20.8811
0.767861 -0.84506 19.4139
-0.674136 0.404487 20.0679
-0.504016 0.373847 19.7357
-0.890196 0.419495 20.7238
-1.10776 0.89989 20.2551
-0.601724 0.11742 21.2713
-1.1333 0.602701 21.0433
-0.0373826 -0.219077 21.3356
-0.4313 0.0299147 21.5591
0.207352 -0.413337 21.1042
0.0650903 -0.434614 21.3119
0.349167 -0.532628 20.7896
0.225575 -0.648335 20.8626
0.175475 -0.373779 20.8437
-1.13523 -1.17701 18.9821
-0.498705 -0.320149 19.2985
0.00081609 -0.488321 19.1138
-0.945419 -0.788829 21.496
0.0036859 -5.11337 20.8653
0.110005 0.0664003 19.2933
0.00245733 -0.561321 17.4287
0.864948 0.681444 17.7016
0.00412917 0.142267 13.2308
1.43101 1.41691 17.8605
0.00891508 0.889945 11.4142
1.10055 0.941715 17.9033
1.97821 1.4867 14.9602
0.0132215 1.77893 13.4364
1.56246 0.871862 14.726
0.0104085 1.16764 14.8352
-0.614024 -0.138649 19.0886
0.000926086 -0.351433 18.8353
1.81494 0.666196 14.1609
2.03525 -0.0995495 9.42222
0.00665166 1.20895 4.39621
1.35272 0.318452 12.8421
0.0105367 1.09163 10.1385
-0.587749 0.441193 19.2267
0.00419104 0.249403 18.5234
1.22462 -0.76446 11.9157
0.48615 -1.27665 18.4919
0.0207525 0.483086 -4.35251
0.289757 -0.941879 19.3535
0.0140765 0.356147 1.82372
-0.823887 1.14065 19.5184
0.00643383 0.76423 19.2779
-1.18734 1.40808 20.7029
0.00906401 2.46005 19.9173
-1.1401 0.968392 21.7648
-0.00473623 2.63288 20.6417
-0.189321 -0.240864 21.5777
-0.0180745 0.625329 22.193
0.0511894 -0.626867 21.3245
-0.0162483 -0.193044 21.5634
0.0486239 -0.678112 20.4152
0.0011264 -0.631617 21.2663
-0.00182109 -0.634181 20.4001
1.14188 -1.16335 18.9964
0.508314 -0.313571 19.3106
0.502417 -0.253144 19.6803
0.933293 -0.81055 21.5744
1.69701 -1.15327 20.3775
-0.099619 0.0729631 19.184
0.334937 -0.438884 21.4144
-0.859168 0.684133 17.4591
-0.345786 -0.0215966 21.5007
-1.4112 1.4368 17.5991
-1.18549 0.45633 20.9158
-1.0874 0.970039 17.8606
-1.98023 1.50462 14.8276
-1.39069 0.516545 20.6481
-1.55298 0.880588 14.6728
-1.13816 0.306704 21.2305
0.614436 -0.138793 19.0875
0.621098 -0.187907 19.5715
-1.82449 0.671295 14.1035
-2.03603 -0.0944998 9.32224
-1.75302 0.0359507 18.9832
-1.34324 0.330194 12.7624
-1.23048 0.110366 18.7029
0.590103 0.440471 19.2334
0.702676 0.0817966 19.4841
-1.21524 -0.767026 11.741
-0.464882 -1.27608 18.4054
-1.25225 -0.818636 20.1412
-0.283951 -0.961216 19.3161
-0.773623 -0.851622 19.3829
0.827533 1.1252 19.532
0.504085 0.370545 19.7411
1.18744 1.4009 20.705
1.10589 0.880548 20.2579
1.14715 1.01117 21.7933
1.13683 0.60916 21.0456
0.200206 -0.228306 21.5835
0.445302 0.0419735 21.5794
-0.0160841 -0.625625 21.3378
-0.0479112 -0.446485 21.3322
-0.0413746 -0.690209 20.3746
-0.209717 -0.652085 20.9145
-0.161149 -0.4076 20.7948
0.76994 -0.317726 19.9821
0.490984 -0.14239 19.8735
0.796414 -0.461081 21.0061
1.179 -0.451795 20.4009
0.125751 -0.245682 21.353
0.475612 -0.352658 21.2272
-0.435684 -0.00603377 21.4074
-0.133252 -0.155944 21.4247
-0.873022 0.142372 20.9503
-0.794625 -0.00252344 21.3111
-0.875523 0.0989251 20.3043
-0.932522 -0.114584 21.3622
-0.988896 -0.189529 20.8442
0.919698 -0.221006 19.9146
0.54464 -0.0333009 19.8229
0.973085 -0.403857 21.0197
1.4529 -0.153313 20.3908
0.200286 -0.311039 21.3894
0.693851 -0.348664 21.2163
-0.469745 -0.151889 21.4692
-0.017423 -0.305266 21.5133
-0.940226 -0.096015 21.1329
-0.749124 -0.295594 21.3847
-0.886194 -0.0407923 20.5536
-1.02066 -0.402432 21.2542
-0.910058 -0.416397 20.894
1.05916 0.0860026 19.8662
0.529093 0.169085 19.8493
1.19667 -0.089246 20.9598
1.21974 0.378049 20.354
0.541745 -0.312168 21.4218
0.950356 0.0601279 21.0966
-0.268269 -0.352767 21.4929
0.290735 -0.205147 21.4665
-0.759699 -0.47715 21.1705
-0.294109 -0.465954 21.2864
-0.542291 -0.349154 21.0843
-0.447265 -0.615801 21.0385
-0.404413 -0.255446 20.9091
0.670765 0.400643 20.0721
0.889809 0.418475 20.7248
0.610425 0.122947 21.2783
0.0437219 -0.220453 21.3441
-0.205813 -0.426995 21.1144
-0.362433 -0.554277 20.798
-0.842132 -0.277566 19.9569
-1.36633 -1.12122 18.6317
-1.06195 -0.631433 19.6385
-1.35736 -0.492892 19.4005
-0.546736 -0.218582 19.6145
-2.15976 -1.1993 20.3458
-0.865597 -0.421813 20.9993
-0.205389 -0.267009 16.6019
-0.900577 -0.75278 21.3107
-1.19408 -0.865273 21.4838
-0.359895 -0.57406 21.4694
-0.163173 -0.26443 21.3634
0.379339 0.0480005 13.2139
0.00114447 -0.252329 21.5202
-0.0432956 -0.495857 21.2102
0.385162 -0.148269 21.2837
0.458928 -0.0735714 21.432
0.808857 0.452449 11.544
0.751002 0.204143 21.3527
0.84276 -0.0426505 20.3085
1.33076 0.307837 20.466
0.949456 0.00804095 21.1376
1.77714 1.4228 13.7261
1.36994 0.547191 20.6899
1.60502 0.193145 19.9901
1.5887 0.259928 19.9332
0.880283 0.0292846 20.428
1.52099 0.857037 15.071
0.928828 0.26248 21.5649
1.37718 -0.0976985 20.3338
1.23328 0.234165 19.8915
-1.00614 -0.0767621 19.882
-2.01193 -0.251959 17.6452
-1.62032 0.232166 19.2667
-0.675988 -0.0737646 19.5001
-3.14045 -0.425364 20.315
-1.11218 -0.282942 21.0475
-1.78873 -0.201191 21.309
-0.877808 -0.777488 21.5083
-0.349022 -0.367963 21.4164
-0.810143 -0.748013 21.5
0.195711 -0.450501 20.6269
0.403293 -0.27334 21.5169
0.475308 -0.505651 20.1249
1.27349 -0.248328 18.5613
0.94993 -0.273947 21.0765
0.916424 -0.422471 5.30036
1.21598 -0.739907 19.6319
1.63973 -0.252149 19.2347
0.789329 -0.166297 20.6869
1.96192 0.269063 13.1041
1.15747 -0.815512 19.3069
1.03031 -0.316122 17.9561
-0.920229 0.315362 19.9409
-1.40742 1.32985 18.7812
-0.825458 0.695923 19.8269
-0.615734 0.285486 19.5862
-1.90454 1.0042 20.2202
-1.11439 0.227645 20.8237
-2.25737 1.496 21.0037
-1.12707 0.769707 20.732
-1.64008 0.219635 21.1477
-0.674463 -0.082552 21.3735
-2.3402 0.399772 20.7697
-0.891476 0.370816 21.4641
-0.516061 -0.232097 21.7515
0.0724121 -0.341234 21.405
0.310927 -0.368391 16.9855
-0.107721 -0.250641 21.4551
0.257761 -0.700596 21.2951
0.416951 -0.537182 21.1541
0.382419 -0.865723 17.5424
0.157833 -0.550788 21.1928
0.490116 -0.879377 21.0168
0.40064 -0.528886 20.9322
0.53902 -0.990853 19.1712
0.347517 -0.523996 20.5816
0.421883 -0.63383 19.8771
1.3717 -1.11428 18.6479
0.00751384 -1.89922 18.2085
-0.000126697 -1.70336 16.7128
0.000531194 -0.444595 18.9369
-0.00678135 -7.57323 22.4796
0.178517 -0.286077 16.7579
-0.00447781 -1.34111 20.8716
0.00604086 -0.173499 8.54992
-0.379094 0.0508695 13.0476
0.00262203 -0.176518 14.6884
0.0028646 0.107176 5.6496
-0.822545 0.424813 11.3867
0.0116243 0.615078 11.5787
-0.00207159 0.546421 5.16327
-1.76658 1.43482 13.5608
0.00807677 1.20011 12.289
-0.000937481 0.415327 2.27364
0.0107257 1.49099 8.93871
-1.52504 0.881012 14.9541
0.0192552 1.72277 15.8073
-0.00415063 1.95823 7.28652
0.0112093 1.12438 12.3069
2.01608 -0.25079 17.651
0.00267576 1.40784 15.5338
0.00436486 -0.194397 18.6011
-0.900337 -0.423621 5.21104
0.00158849 0.857843 -5.18947
0.0170053 0.745908 -1.72433
-1.98152 0.278919 12.9858
0.00713493 0.168277 -1.58852
0.0174198 0.970005 6.22776
1.41197 1.32039 18.7995
0.0116403 1.6818 19.1777
0.00302313 0.663939 18.7825
0.0133527 4.91758 19.6151
2.24985 1.49553 21.0058
0.00416888 2.25049 20.6163
-0.00446991 3.38945 17.7008
2.36565 0.415109 20.6709
-0.0240774 2.16905 22.2985
-0.00301079 0.0298335 11.5603
-0.377924 -0.345432 16.2396
-0.016685 0.0317274 21.6014
-0.0203678 0.00256607 5.30683
-0.374044 -0.861938 17.2203
-0.0152641 -0.422628 21.4311
0.00400441 -1.12266 10.3772
-0.535312 -0.997974 19.1416
-0.00993955 -0.695918 20.4513
-0.00341385 -0.597172 12.4404
0.841174 -0.276122 19.9554
1.05427 -0.621471 19.6566
1.36079 -0.489445 19.3995
0.551943 -0.217506 19.6174
2.14893 -1.17986 20.3429
0.874544 -0.429154 21
0.914174 -0.763555 21.3071
1.23474 -0.880327 21.4739
0.349955 -0.560174 21.4792
0.160948 -0.263746 21.3643
-0.00298151 -0.241722 21.5224
0.0366726 -0.490472 21.2287
-0.392575 -0.137071 21.2552
-0.459038 -0.0703749 21.434
-0.758696 0.219588 21.3219
-0.837399 -0.046643 20.3609
-1.338 0.318464 20.3925
-0.952098 0.00801521 21.1348
-1.37828 0.562173 20.7035
-1.602 0.188141 19.9861
-1.59349 0.266817 19.9168
-0.883212 0.0295145 20.4272
-0.929942 0.276666 21.5883
-1.38467 -0.101586 20.3248
-1.23621 0.240712 19.8703
1.01034 -0.0775343 19.8825
1.61521 0.228224 19.2728
0.67821 -0.0751713 19.5056
3.14985 -0.427863 20.3037
1.12895 -0.281068 21.0479
1.81057 -0.185123 21.3187
0.854712 -0.780638 21.5183
0.342979 -0.367928 21.417
0.805286 -0.749158 21.5109
-0.200452 -0.457979 20.6721
-0.405036 -0.274702 21.5099
-0.47075 -0.511247 20.1614
-1.2736 -0.254028 18.6462
-0.947645 -0.273078 21.0792
-1.21537 -0.741297 19.6182
-1.64174 -0.255333 19.2165
-0.784699 -0.16715 20.6847
-1.16682 -0.824359 19.2787
-1.03324 -0.306524 17.9068
0.911888 0.311911 19.9457
0.823735 0.683767 19.835
0.615349 0.283872 19.5934
1.89548 0.99432 20.2202
1.11365 0.230754 20.827
1.12577 0.767548 20.7346
1.64465 0.219161 21.151
0.680655 -0.087155 21.3784
0.908576 0.389957 21.4756
0.529464 -0.235435 21.7653
-0.0673153 -0.348309 21.4109
0.11456 -0.253078 21.4689
-0.254153 -0.718605 21.255
-0.420433 -0.552855 21.1563
-0.144794 -0.562863 21.2026
-0.48821 -0.902257 20.8623
-0.397855 -0.524047 20.9634
-0.320956 -0.53694 20.583
-0.415518 -0.655603 19.8474
-1.23211 -0.56688 19.493
-1.01471 -0.809459 21.3885
0.0226545 -0.371999 21.4511
0.833714 0.0891462 20.9581
1.52028 0.388568 20.3733
1.10967 0.106927 21.1084
-1.59161 -0.172588 19.2276
-1.58176 -0.627593 21.5086
-0.301857 -0.690927 21.1695
0.729985 -0.274166 19.8522
1.58748 -0.338254 19.3002
1.45457 -0.48687 19.3587
-1.25497 0.643474 19.5495
-1.66822 0.518649 20.9355
-1.24771 -0.0246606 21.6969
-0.0176256 -0.479405 21.5809
0.445566 -0.825058 21.1329
0.54953 -0.840486 20.5331
0.00371365 -1.87359 17.5275
-0.00425884 -0.432298 11.1901
0.00261723 -0.0278829 6.39947
0.00328873 0.391918 4.9775
0.00308096 0.679303 6.6177
0.00793626 1.83455 11.6114
0.00345777 -0.369564 15.6107
0.000179131 0.202924 -3.09865
-0.00504165 1.43953 1.39612
0.00623933 2.26068 17.7597
0.00268441 3.10862 20.9819
-0.00512228 1.27943 13.9612
-0.0136377 -0.0289074 6.19252
-0.00856966 -0.0588199 7.15465
-0.00561236 -0.53957 10.938
1.22885 -0.558304 19.5043
1.04325 -0.824842 21.3807
-0.027585 -0.363692 21.4461
-0.836712 0.0974689 20.9186
-1.52879 0.395379 20.3205
-1.11732 0.111209 21.1014
1.59073 -0.170708 19.2273
1.63179 -0.622018 21.5071
0.295179 -0.690787 21.1876
-0.72687 -0.28229 19.8945
-1.58437 -0.343396 19.3011
-1.46737 -0.49701 19.3406
1.25009 0.632637 19.5585
1.66702 0.52399 20.9388
1.27069 -0.0247751 21.7074
0.0216722 -0.491393 21.5743
-0.445145 -0.843634 21.0846
-0.539502 -0.845272 20.5335
-9.37596 -1.39511 6.81458
-0.04246 -0.846155 1.22691
-0.00661442 -0.0283014 0.860156
0.0888348 -0.220881 0.516123
-0.0142607 0.105601 0.359444
0.145794 0.0134764 1.42191
-9.35914 -0.146947 8.27946
-0.0866985 0.66097 0.874013
-0.446399 -0.0972904 2.46139
-0.037324 -0.0519592 0.00677799
-0.121947 0.0327902 -0.0502178
-0.000826035 -0.0314456 0.227243
0.0386294 -0.824071 1.19816
9.54586 -1.42071 6.90205
0.00485259 -0.0281454 0.835056
0.014082 0.10523 0.358103
-0.107528 -0.24977 0.583866
-0.152617 0.0174864 1.43336
0.08777 0.667733 0.896906
9.25904 -0.132583 8.10177
0.432333 -0.0934734 2.41246
0.121658 0.0335426 -0.0506038
0.0378183 -0.051466 0.00622606
0.000906403 -0.0306369 0.221386
0.027532 -0.02116 0.680851
0.0427123 -0.0129338 0.913004
0.000778603 -0.00410049 0.0618757
0.00209841 8.59306e-06 0.0450225
0.0849522 -0.0179628 1.29748
0.0381904 0.00702762 0.672033
0.000493535 0.000119025 0.05539
0.033122 0.00134409 0.372772
-0.0480361 -0.0763073 0.420298
0 0 0
-6.0654e-05 0.00188312 0.0593406
0 0 0
0.0105803 0.0178884 0.0764248
0.000935764 0.00357807 0.0222286
0.0172959 0.0423409 0.147903
0.00276309 -0.000679064 0.0287997
0.0180099 0.00690727 2.21862
-0.00189493 -6.85071e-05 0.0447213
-0.0430314 -0.013181 0.873388
-0.00141027 -0.00296389 0.064349
-0.109197 -0.0262991 1.42607
-0.0318502 0.00224457 0.366706
-0.0406069 0.00760349 0.691954
-0.00072463 -0.000128255 0.0466048
0.0570091 -0.0947186 0.451459
0 0 0
0 0 0
4.36564e-06 0.00189885 0.056095
-0.0101667 0.0171231 0.0717254
-0.00284436 -0.000698993 0.0296336
-0.000915379 0.0035103 0.0218585
-0.0168955 0.041145 0.142629
3.15422e-18 -1.81847e-19 -3.79113e-17
-0.540033 -0.180275 0.415164
6.0215e-08 3.94777e-07 -2.65946e-05
0 0 0
-0.00540976 0.000145061 0.0860217
0.000455116 -0.000256897 0.00595638
0.00136047 0.000383911 0.0183271
0 0 0
0 0 0
-0.000978822 -0.153921 0.0805086
0.00249587 0.00101023 0.0292029
0 0 0
0.113348 0.944014 0.613406
0.000156835 0.00779391 0.0495099
-0.0281814 -0.075339 0.663807
-5.37918e-05 2.66806e-05 0.000307682
-0.000596002 -0.0383859 -0.00137049
0 0 0
0 0 0
-0.00159568 0.000270028 -0.00365694
0.562154 -0.229933 0.433001
0 0 0
-9.49278e-05 -4.89533e-05 0.00105113
0.0024879 0.000202341 0.0324357
8.74995e-18 -2.54038e-18 1.22402e-18
-0.00174342 0.000505144 0.0235193
0 0 0
-0.00273706 0.000957622 0.0369218
0.000100989 5.00806e-05 0.000578223
0.031258 -0.0346675 0.389794
0.0015684 0.000269923 -0.00361905
-8.18669e-05 9.34071e-05 0.00301878
-0.000177426 0.00143665 0.020116
0.00740621 -0.000829411 0.151494
0 0 0
0 0 0
0 0 0
3.59075e-08 -1.09317e-07 4.19266e-05
0 0 0
0.000121464 0.00096517 0.0149803
1.46106e-09 4.55084e-10 1.00179e-05
-4.72862e-08 1.33434e-05 0.000127022
0 0 0
-2.15565e-05 1.63577e-05 0.000705331
0.000119414 0.000126178 0.00283589
-4.42148e-07 0.00140381 0.00247565
-5.7749e-05 0.000318359 0.108602
-8.04077e-05 0.0210982 -0.0167296
-0.00736174 -0.000829333 0.151623
3.60636e-05 0.000430706 0.0110285
-0.00416936 -0.0102715 0.126337
0 0 0
0 0 0
-6.26559e-05 0.00142501 0.0214248
3.76902e-06 2.85837e-06 0.000124821
0 0 0
-0.0625676 0.00266862 0.533077