# vtk DataFile Version 2.0
tri_press
ASCII
DATASET UNSTRUCTURED_GRID
POINTS 3682 float
-0.809993 0.235 -2.335
-0.765 0.355 2.36281
-0.822004 0.695 -2.215
-0.745 0.844244 2.195
0.810726 0.235 -2.335
0.765 0.355 2.36286
0.822741 0.695 -2.215
0.745 0.844297 2.195
-0.842315 0.22768 -0.769064
-0.830026 0.264972 0.796873
-0.859224 0.807636 -0.745
-0.840715 0.864543 0.725
0.842997 0.227487 -0.769047
0.830655 0.264587 0.796907
0.859877 0.807815 -0.745
0.841242 0.86486 0.725
-1.64846 -0.0847656 -3.55483
-1.65159 -0.0475571 -2.3405
-1.66883 -0.0417296 -0.772084
-1.64809 -0.0111115 0.815642
-1.59546 0.058388 2.38569
-1.58411 0.0998864 3.60798
-1.59113 0.130674 4.81553
-1.64885 0.177483 -3.52932
-1.6529 0.227773 -2.32547
-1.67729 0.241522 -0.775725
-1.64556 0.26895 0.782658
-1.56969 0.327988 2.33425
-1.56719 0.367938 3.55518
-1.58269 0.399701 4.76586
-1.65444 0.679126 -3.45138
-1.66327 0.72902 -2.24356
-1.69033 0.810419 -0.759215
-1.65335 0.851568 0.718333
-1.56178 0.853207 2.20452
-1.56377 0.892236 3.42942
-1.5834 0.933082 4.65556
-1.65944 1.4921 -3.4066
-1.66523 1.55042 -2.21316
-1.67406 1.63684 -0.759917
-1.66702 1.69431 0.672644
-1.64217 1.71436 2.12689
-1.62677 1.73299 3.32242
-1.62255 1.76251 4.53809
-0.818218 -0.081728 -3.56102
-0.814726 -0.0430118 -2.34953
-0.83443 -0.0492204 -0.770866
-0.832169 -0.0135704 0.827781
-0.798827 0.0734567 2.4069
-0.790001 0.109967 3.62238
-0.794482 0.135556 4.82387
-0.818243 0.176951 -3.53123
-0.776835 0.37753 3.56706
-0.788591 0.403713 4.77215
-0.822203 0.665357 -3.43951
-0.773534 0.890817 3.42751
-0.789961 0.932787 4.65516
-0.825001 1.4833 -3.39487
-0.828259 1.54244 -2.20023
-0.839458 1.63633 -0.752123
-0.845737 1.69765 0.671713
-0.836219 1.71389 2.12021
-0.824925 1.73081 3.31576
-0.820341 1.76064 4.53325
0.828371 -0.0817357 -3.56101
0.828805 -0.0430467 -2.34952
0.839681 -0.0493805 -0.77085
0.818325 -0.01384 0.82781
0.77526 0.0733659 2.40694
0.780727 0.109914 3.62241
0.789372 0.135511 4.82389
0.823995 0.176955 -3.53122
0.775469 0.377505 3.56709
0.786744 0.403682 4.77217
0.828201 0.665375 -3.43951
0.767939 0.890832 3.42753
0.782228 0.932781 4.65518
0.841154 1.48335 -3.39487
0.84364 1.54251 -2.20023
0.83579 1.63643 -0.752119
0.807201 1.69777 0.671718
0.778326 1.71397 2.12022
0.775354 1.73085 3.31577
0.780316 1.76066 4.53326
1.65627 -0.0847779 -3.55482
1.65849 -0.0476089 -2.34049
1.67232 -0.0419301 -0.772057
1.64532 -0.0114554 0.815689
1.58932 0.0581824 2.38575
1.58124 0.0997651 3.60803
1.58883 0.13058 4.81557
1.65225 0.177496 -3.52931
1.65174 0.227779 -2.32547
1.67817 0.241393 -0.775703
1.65185 0.268644 0.782701
1.57819 0.327827 2.3343
1.57177 0.367856 3.55523
1.58341 0.399631 4.76591
1.65796 0.679177 -3.45137
1.66217 0.729108 -2.24356
1.69069 0.810601 -0.759207
1.65788 0.85175 0.718349
1.56747 0.853219 2.20454
1.56353 0.892234 3.42945
1.57819 0.933062 4.65559
1.67278 1.49219 -3.4066
1.67626 1.55054 -2.21315
1.66969 1.63702 -0.759908
1.63646 1.6945 0.672657
1.5962 1.71448 2.1269
1.58448 1.73306 3.32244
1.58621 1.76254 4.53811
-0.820809 0.465 -2.27981
0.000366479 0.232378 -2.33762
-0.822888 0.234606 -1.55203
-0.733438 0.599622 2.25734
0 0.342566 2.37527
-0.829349 0.27815 1.57984
0.000368476 0.736281 -2.25628
-0.866559 0.777263 -1.48
0 0.83795 2.18868
-0.813707 0.875243 1.46
0.821533 0.465 -2.2798
0.823508 0.234597 -1.55202
0.733437 0.599648 2.25737
0.835297 0.272324 1.57988
0.867212 0.777311 -1.48
0.813827 0.875284 1.46
-0.844759 0.237738 0.0139049
-0.878406 0.517658 -0.757032
0.000341157 0.171118 -0.769055
-0.878351 0.564758 0.760937
0.000314494 0.171175 0.79689
-0.847539 0.833659 -0.00999999
0.000326367 0.932424 -0.745
0.000263575 1.24188 0.725
0.845414 0.237449 0.01393
0.87912 0.517651 -0.757023
0.87907 0.564724 0.760953
0.848303 0.834081 -0.00999999
-0.892677 0.491329 -1.51602
0.887872 0.491325 -1.51601
0.000353818 0.213265 -1.55203
0.000347422 0.885111 -1.48
0.000367478 0.465 -2.42874
-0.878513 0.541208 0.00195247
0.879205 0.541187 0.00196499
0.000327826 0.171138 0.0139174
0.000294971 1.24905 -0.00999999
-0.868487 0.58219 1.51992
0.867605 0.582186 1.51994
0.000157247 0.2517 1.57986
0.000131787 0.914316 1.46
0 0.599635 2.25219
-0.8154 0.35 -2.3074
-0.404813 0.232579 -2.33742
-0.813515 0.237729 -1.94352
-0.794256 0.477311 2.35511
-0.3825 0.343352 2.37447
-0.793991 0.319759 1.97133
-0.817812 0.58 -2.24381
-0.410818 0.7205 -2.2405
-0.857142 0.748992 -1.8475
-0.713503 0.721933 2.20046
-0.3725 0.826334 2.17708
-0.76913 0.84952 1.8275
0.405546 0.232575 -2.33743
0.816368 0.35 -2.30764
0.813763 0.238152 -1.94351
0.3825 0.343368 2.37448
0.79697 0.477324 2.35786
0.794545 0.319266 1.97137
0.411555 0.720565 -2.24056
0.818513 0.58 -2.24378
0.857827 0.749006 -1.8475
0.3725 0.826303 2.17702
0.71353 0.721973 2.2005
0.769194 0.849571 1.8275
-0.839519 0.224226 -1.16055
-0.843485 0.232761 -0.377579
-0.875597 0.365051 -0.763048
-0.434331 0.172711 -0.769059
-0.83137 0.269878 1.18836
-0.845903 0.242844 0.405389
-0.879881 0.402018 0.778905
-0.437488 0.172808 0.796882
-0.866272 0.79583 -1.1125
-0.878211 0.667345 -0.751016
-0.852516 0.819782 -0.3775
-0.44314 0.897413 -0.745
-0.830101 0.872783 1.0925
-0.873639 0.721704 0.742968
-0.84782 0.852794 0.3575
-0.495942 1.20465 0.725
0.86045 0.203844 -1.16054
0.434965 0.172711 -0.769051
0.844161 0.232512 -0.377558
0.87631 0.364943 -0.763035
0.833051 0.268381 1.1884
0.43802 0.172809 0.796898
0.846542 0.242511 0.405418
0.880022 0.402076 0.77893
0.866948 0.795967 -1.1125
0.443765 0.897445 -0.745
0.878897 0.667433 -0.751012
0.853081 0.819939 -0.3775
0.830627 0.873165 1.0925
0.496407 1.20468 0.725
0.874343 0.721886 0.742977
0.848301 0.852999 0.3575
-0.862562 0.478165 -1.89791
-0.410221 0.465 -2.39289
0.000360149 0.223413 -1.94482
0.000366978 0.348689 -2.40893
-0.896234 0.362968 -1.53402
-0.411267 0.212093 -1.55203
-0.84795 0.590906 1.88863
-0.366719 0.599629 2.26849
7.86236e-05 0.294385 1.97757
0 0.471101 2.42117
-0.864695 0.43017 1.54988
-0.414596 0.2517 1.57985
0.000357949 0.841562 -1.86814
0.000367977 0.60064 -2.36826
-0.893796 0.634296 -1.49801
-0.433106 0.869467 -1.48
6.58937e-05 0.887589 1.82434
0 0.718793 2.2226
-0.862982 0.728716 1.48996
-0.406788 0.900361 1.46
0.863293 0.478163 -1.89791
0.41095 0.465 -2.3929
0.896218 0.362961 -1.53402
0.411931 0.212728 -1.55203
0.848772 0.590917 1.88865
0.366718 0.599642 2.26853
0.864042 0.427255 1.54991
0.417727 0.2517 1.57987
0.893652 0.634318 -1.49801
0.43378 0.869469 -1.48
0.863703 0.728735 1.48997
0.406979 0.900376 1.46
-0.877458 0.381562 0.0079287
-0.43806 0.172749 0.0139112
-0.879643 0.504494 -1.13652
-0.878396 0.529433 -0.37754
0.000347488 0.186825 -1.16054
0.000334491 0.171143 -0.377569
-0.878372 0.552983 0.381445
-0.893493 0.573474 1.14043
0.00032116 0.17116 0.405404
0.000235871 0.208843 1.18838
-0.878143 0.694992 -0.00402376
-0.507811 1.20973 -0.00999999
0.000336894 0.909305 -1.1125
0.000310669 1.17254 -0.3775
0.000279273 1.24903 0.3575
0.000197681 1.16144 1.0925
0.878162 0.381392 0.00794747
0.438643 0.172749 0.0139237
0.894769 0.504488 -1.13652
0.879109 0.529419 -0.377529
0.879085 0.552956 0.381459
0.893104 0.573455 1.14045
0.878838 0.695176 -0.0040175
0.508392 1.20975 -0.00999999
-0.869391 0.356484 -1.92071
-0.879759 0.367818 -1.14854
-0.878015 0.648472 -1.12451
-0.860934 0.607148 -1.87271
0.870107 0.356481 -1.92071
0.861639 0.607159 -1.8727
0.881586 0.648526 -1.12451
0.895822 0.367765 -1.14853
-0.40804 0.223561 -1.94417
0.408739 0.223557 -1.94417
0.4168 0.186821 -1.16054
-0.416127 0.18683 -1.16054
-0.421962 0.825417 -1.85782
-0.431277 0.891783 -1.1125
0.431941 0.891783 -1.1125
0.422667 0.825348 -1.85782
-0.407517 0.349344 -2.32998
-0.410519 0.59032 -2.33202
0.411253 0.59032 -2.33261
0.408248 0.349344 -2.33036
-0.876527 0.373307 -0.377559
-0.878681 0.391784 0.393417
-0.87809 0.709447 0.369472
-0.878174 0.681167 -0.37752
0.877237 0.373167 -0.377544
0.878871 0.681306 -0.377515
0.87879 0.709631 0.36948
0.879382 0.391589 0.393439
-0.436196 0.172728 -0.377574
0.436805 0.172728 -0.377564
0.438342 0.172759 0.405411
-0.437784 0.172759 0.405396
-0.511903 1.12643 -0.3775
-0.503433 1.2103 0.3575
0.503956 1.21033 0.3575
0.512507 1.12646 -0.3775
-0.886215 0.422517 1.16439
-0.850017 0.45374 1.92998
-0.850798 0.725325 1.85807
-0.870446 0.721683 1.11646
0.88637 0.420955 1.16442
0.869907 0.721764 1.11647
0.851506 0.725354 1.85808
0.850449 0.45229 1.93001
-0.414726 0.208843 1.18837
0.416606 0.208842 1.18839
0.400113 0.294023 1.97447
-0.398548 0.294021 1.97445
-0.413507 1.13558 1.0925
-0.389644 0.873911 1.82592
0.38974 0.873917 1.82592
0.413866 1.13565 1.0925
-0.374609 0.474206 2.40421
0.374609 0.474212 2.40422
0.369609 0.720383 2.2103
-0.369609 0.720363 2.21027
-0.812855 0.2925 -2.32136
-0.607403 0.231171 -2.33883
-0.81185 0.236268 -2.13926
-0.792906 0.416155 2.37224
-0.57375 0.344617 2.3732
-0.779673 0.337202 2.16707
-0.81956 0.6375 -2.22906
-0.616411 0.710285 -2.23028
-0.840296 0.722719 -2.03125
-0.712871 0.783089 2.18135
-0.55875 0.82303 2.17378
-0.744191 0.834008 2.01125
0.608136 0.231163 -2.33884
0.813354 0.2925 -2.32113
0.812266 0.236555 -2.13926
0.57375 0.344628 2.37323
0.793498 0.416162 2.37288
0.780201 0.336704 2.16712
0.617148 0.710285 -2.23028
0.820205 0.6375 -2.22897
0.840762 0.722481 -2.03125
0.55875 0.82295 2.17366
0.712896 0.783135 2.18138
0.744405 0.834242 2.01125
-0.860326 0.206544 -0.964806
-0.842856 0.230265 -0.573321
-0.859627 0.29603 -0.766056
-0.634199 0.208444 -0.769061
-0.830001 0.268122 0.992615
-0.846517 0.245356 0.601131
-0.862752 0.329596 0.787889
-0.63492 0.216564 0.796878
-0.863901 0.802886 -0.92875
-0.878063 0.742163 -0.748008
-0.855568 0.813407 -0.56125
-0.659136 0.868432 -0.745
-0.833456 0.866711 0.90875
-0.862487 0.795778 0.733984
-0.83912 0.853521 0.54125
-0.707919 1.11378 0.725
0.859743 0.207646 -0.964791
0.634804 0.208453 -0.769049
0.843518 0.230061 -0.573303
0.860312 0.295886 -0.766041
0.831336 0.267001 0.992651
0.635905 0.215562 0.796903
0.847152 0.244995 0.601163
0.862636 0.329682 0.787918
0.864646 0.803125 -0.92875
0.659641 0.868272 -0.745
0.878761 0.742311 -0.748006
[...]
POINT_DATA 3682
SCALARS point_scalars float 1
LOOKUP_TABLE default
-103.203
-42.5869
-91.558
-34.9921
-105.868
-42.5577
-91.0177
-34.9836
-32.0438
-38.7492
-33.5144
-42.6712
-31.7783
-38.6865
-33.6984
-42.6259
-108.101
-128.016
-42.8633
-36.972
-38.5373
-43.1294
-39.9375
-8.92387
-122.38
-33.2315
-36.0305
-37.5548
-39.9375
-39.9375
-4.07263
-134.981
-34.8305
-39.5574
-40.0073
-39.9375
-39.9375
-82.4098
-63.7115
-53.4318
-47.4845
-36.6056
-34.4474
-39.9375
79.186
-108.101
-33.7955
-42.5686
-41.56
-37.2632
-36.6895
79.186
-35.4233
-35.3408
155.304
-35.3408
-35.3408
-33.0396
-65.8222
-30.0465
-51.9754
-34.4474
-34.4474
-34.4053
79.0858
-108.051
-33.6735
-42.576
-41.5536
-37.229
-36.6293
79.0858
-35.3834
-35.3412
155.723
-35.3412
-35.3412
-32.7206
-65.3811
-29.23
-51.9825
-34.4312
-34.4312
-34.2107
-108.051
-128.047
-42.0245
-37.6888
-38.772
-43.0865
-39.9433
-6.82805
-121.771
-32.6473
-36.2026
-37.4994
-39.9433
-39.9433
-9.14826
-134.148
-34.9377
-39.5596
-40.0964
-39.9433
-39.9433
-81.4691
-62.5169
-54.877
-47.4468
-36.5226
-34.4312
-39.9433
-92.5133
-162.184
-39.9571
-35.3953
-36.3289
-40.722
-102.911
-40.7905
-27.2582
-38.8209
-87.0941
-40.5362
-35.3739
-42.4542
-40.616
-38.8104
-36.2049
-33.6697
-39.7516
-36.4546
-43.144
-47.4355
11.6417
-54.1274
-36.0531
-33.3308
-36.6128
-47.3923
-48.9494
-45.1674
-45.9971
-31.3069
203.654
-38.1192
-37.9994
-36.8766
-86.6921
-38.4948
-38.2173
-39.6358
-36.2211
-27.928
-57.1852
-203.803
-61.2615
-38.0584
-37.9459
-37.1349
-87.0045
-88.4923
-59.6391
-34.7342
-30.3606
-35.5313
-204.874
-58.6209
-60.946
-37.9398
-38.1048
-37.1482
-88.3353
-86.9474
-59.6494
-30.3535
-34.719
-35.5039
-32.8025
-34.2756
-33.1851
-38.6134
-37.5389
-39.1744
-35.8766
-41.1049
-30.8701
-34.4117
-48.9423
3.35693
-43.2452
-39.1854
-44.4578
-52.6396
-41.5894
-38.6733
-34.0308
-32.6207
-37.8549
-41.078
-39.1567
-36.0041
-31.8393
3.35138
-34.3466
-48.9142
-43.2357
-52.6353
-39.1898
-44.4606
-62.845
195.265
-72.2562
185.071
-49.1823
-45.6254
-37.8961
-31.8637
-37.9281
-30.545
-38.7066
-39.7494
-55.5612
158.949
-45.7848
-34.2119
-32.8872
-26.4213
-37.3801
-36.8138
-62.254
194.854
-44.282
-45.4789
-37.923
-31.8481
-38.5172
-39.8094
-42.5312
-34.2726
-37.2817
-36.8079
-35.966
-36.3237
-34.4587
-36.9044
-39.1915
-37.1637
-37.7238
-39.1422
-38.5532
-42.1086
-41.3216
-80.0802
-10.5495
-10.2675
-64.2094
-40.9753
-35.8105
-36.3095
-38.6285
-36.6798
-37.6964
-38.867
-41.2492
-80.0986
-59.9377
-34.5866
-33.8184
-61.0503
-59.4003
-60.5599
-36.2139
-39.8583
-71.8221
-71.6973
-38.8943
-38.6353
-55.7896
-14.9622
-15.0292
-55.7373
182.609
145.791
145.03
182.418
-34.7969
-36.2486
-40.2863
-40.7717
-34.4916
-40.6356
-40.2762
-36.3195
-36.3891
-36.3771
-37.848
-37.8659
-16.562
-59.4058
-59.3907
-16.5858
-38.5331
-37.7922
-37.7108
-39.7617
-38.3462
-39.6016
-37.7327
-37.7876
-41.2655
-41.2341
-38.2993
-38.2901
-43.2003
-32.8977
-32.8931
-43.1841
-33.1436
-33.1322
-30.834
-30.8501
-62.1681
-131.244
-90.5828
-40.9595
-39.1947
-38.7404
-84.1019
-66.0845
-70.9639
-35.758
-31.9167
-33.8647
-130.691
-61.9966
-90.4697
-39.1718
-40.9532
-38.7433
-65.8544
-83.9413
-70.0522
-31.9057
-35.7405
-33.8518
-40.4273
-33.2164
-32.3786
-36.5068
-36.5865
-36.623
-36.3009
-38.9059
-30.0899
-35.0563
-44.1528
-7.21444
-42.0773
-40.519
-42.7145
-48.3544
-41.2935
-36.5026
-32.9371
-31.948
-35.8139
-39.177
-36.6889
-36.5365
-30.4875
-7.24232
-35.1614
-44.2798
-42.0504
-48.3483
-40.5404
-42.777
-79.9031
-71.5524
-91.6311
175.359
-206.435
-206.415
-98.9515
82.6153
-46.099
-38.1029
-48.037
-43.493
-35.3848
-34.9555
-38.2847
-33.2497
-36.746
-36.7414
-36.8982
-34.3026
-37.8154
-38.4238
-39.8067
-39.5722
-115.096
-114.08
-63.4137
107.566
-48.0667
-35.7017
-43.9961
-36.4442
-28.576
-28.5512
-31.5774
-24.8637
-37.1327
-42.2138
-37.5167
-37.2832
-78.7342
-71.6331
-91.2105
175.312
-45.6543
-31.0709
-43.1929
-43.2318
-35.342
-34.9344
-38.2907
-33.2436
-37.5114
-37.9625
-40.3728
-39.9174
-47.4618
-36.7277
-42.5738
-36.5389
-37.1016
-42.2282
-37.4691
-37.2735
-34.8068
-36.1817
-35.2642
-35.7704
-33.3976
-33.9911
-34.1492
-35.2019
-39.4006
-39.4392
-40.4705
-38.1584
-35.7783
-37.5667
-37.3536
-36.5318
-42.7611
-42.751
-40.2451
-43.7856
-49.0691
-45.8091
-44.4339
-63.1731
9.18778
9.172
0.614886
22.6505
-53.7125
-53.7115
-58.6754
-48.7113
-34.6193
-36.1429
-35.1399
-35.7365
-32.9995
-33.7726
-34.4968
-34.9069
-35.9592
-37.6102
-37.3798
-36.138
-49.0219
-45.8049
-44.3941
-63.1925
-49.7965
-49.1717
-48.2027
-37.9326
-48.6713
-44.9893
-44.5577
-40.753
-55.994
-46.2494
-46.2183
-40.7086
-42.4653
-32.2925
-32.3226
-20.6717
197.205
202.198
172.18
197.285
-37.0658
-37.9079
-37.9834
-39.4387
-36.9378
-37.744
-37.9218
-39.3482
-36.7484
-36.7894
-37.4698
-36.7339
-85.6591
-112.744
-72.5629
-85.6964
-36.8637
-38.7189
-38.0393
-40.1874
-36.9182
-38.2573
-37.8475
-40.1037
-38.6134
-39.641
-39.6537
-40.7964
-34.681
-36.3226
-36.3194
-36.3767
-28.8397
-28.6482
-27.0364
-28.8193
-90.0992
167.711
-102.171
123.127
-59.7742
-68.0676
-37.7829
-34.0252
-37.4574
-35.8807
-37.097
-38.6443
-88.6031
132.004
-66.6231
100.979
-60.6507
-55.3737
-37.7929
-32.6148
-31.3635
-30.2578
-37.2818
-33.2895
-102.028
122.507
-90.4514
167.502
-59.3189
-67.8897
-37.4666
-35.8732
-37.7817
-34.0259
-37.0238
-38.6599
-66.4346
100.294
-88.2079
132.603
-60.2232
-55.2847
-31.3588
-30.2516
-37.7807
-32.6066
-37.2768
-33.2824
-34.0342
-37.5667
-34.0731
-35.4381
-36.8832
-33.7785
-39.3246
-37.0756
-37.82
-40.7198
-36.445
-38.5507
-36.3634
-36.6304
-38.9397
-42.1736
-33.3504
-21.3579
-33.1879
-37.9432
-44.4816
-70.4388
-5.24722
12.1605
-40.3413
-45.8518
-39.5639
-39.0861
-41.9163
-51.5349
-55.4973
-49.3695
-40.7137
-38.5378
-39.6705
-37.0966
-33.802
-35.3827
-36.9281
-33.3635
-37.6431
-41.9903
-38.9276
-42.1503
-36.4204
-38.5117
-36.4023
-36.0648
-34.8001
-21.5697
-5.29261
12.2189
-33.5906
-37.8216
-44.4076
-70.3658
-40.2214
-46.1077
-55.4965
-49.3697
-39.5671
-39.0103
-41.9079
-51.5212
-62.5363
-62.2125
183.308
158.993
-72.8169
-72.7624
180.582
180.539
-48.6046
-37.8451
-55.2504
-40.3175
-37.9767
-37.703
-32.2644
-31.3277
-38.0155
-38.0152
-31.4253
-31.4095
-39.6468
-36.8209
-40.4416
-39.0231
-54.7676
-54.766
150.87
149.284
-37.5461
-48.4668
-43.8432
-24.209
-32.8047
-32.8038
-27.8612
-27.8841
-36.7689
-39.4439
-37.7848
-34.9405
-61.9531
-61.5627
158.683
183.146
-47.4693
-40.4835
-55.1335
-40.3248
-37.7399
-37.9769
-32.2509
-31.3108
-39.9222
-36.8532
-40.3861
-38.9462
-47.5616
-40.1784
-24.2866
-43.867
-39.2483
-36.7665
-34.9368
-37.7787
-35.5675
-36.2606
-36.144
-36.9312
-34.6604
-34.3141
-35.7933
-38.4132
-39.2489
-39.1528
-36.9686
-36.9582
-37.014
-38.5747
-38.8962
-39.4357
-38.3233
-38.3482
-41.9263
-41.914
-40.7584
-41.726
-99.9286
-66.4881
-11.5527
-11.5777
-9.22451
-9.16287
-63.3049
-63.2444
-41.5315
-41.5202
-35.3634
-36.1456
-36.115
-36.9147
-37.8085
-39.249
-35.5274
-38.2283
-38.5531
-36.9725
-38.7533
-39.4
-41.6115
-40.7227
-66.4501
-100.127
-88.2996
-45.6711
-49.7513
-90.7013
-41.7311
-35.0064
-38.0126
-37.7815
-32.6711
-37.7654
-37.7574
-33.6159
-81.3524
-91.6465
-49.1339
-48.6178
-87.8737
-89.5339
-48.5573
-44.8805
-81.6305
-47.7536
-48.165
-91.1848
-33.1876
-33.9551
-40.5722
-39.2196
-40.906
-38.0329
-40.8385
-35.1772
-99.1802
-101.396
-56.2176
-52.1292
-99.0383
-51.9371
-56.1683
-101.347
-38.5326
-40.2372
-40.8329
-38.3417
-37.6347
-38.8178
-40.7933
-40.1327
-67.8041
-44.7577
-42.7338
-64.9831
-14.7208
-0.889264
-21.5725
-28.6057
-14.8331
-28.8016
-21.6019
-0.903412
-67.6648
-64.8804
-42.7477
-44.7345
142.133
171.272
196.958
73.8228
128.433
128.511
166.244
126.321
128.114
127.943
166.545
126.638
142.903
73.8511
196.888
171.054
-33.145
-34.8239
-36.7611
-34.3398
-36.3241
-36.7554
-37.078
-35.7428
-41.351
-43.3796
-39.0795
-38.1091
-40.8111
-36.2626
-39.4362
-45.2724
-32.7658
-34.0259
-36.5886
-34.6313
-40.8145
-45.1983
-39.2925
-36.0429
-41.3617
-38.1304
-39.0267
-43.3674
-36.4065
-35.6685
-36.9985
-36.7927
-35.7883
-37.8802
-36.627
-35.3317
-35.7219
-35.2681
-36.6098
-37.8841
-38.0771
-39.9095
-37.3294
-36.5036
-38.093
-36.522
-37.3374
-39.9174
-17.2138
-73.8737
-113.797
20.879
-49.1382
-58.0304
-71.3681
-55.7007
-49.128
-55.6919
-71.3465
-58.0198
-17.0807
20.9036
-113.888
-73.9603
-36.7465
-39.6205
-39.6927
-37.009
-37.923
-38.1024
-36.8769
-36.912
-36.9991
-37.6913
-36.8818
-38.1373
-40.2235
-37.4344
-40.488
-39.1143
-35.9737
-36.4239
-39.9293
-39.3269
-40.1843
-39.0207
-40.2569
-37.2762
-36.9906
-38.1363
-36.8948
-37.6905
-37.916
-36.9526
-36.9655
-38.0998
-38.4018
-43.4673
-40.7104
-39.5211
-38.1346
-38.6618
-40.6985
-43.4514
-38.0257
-37.0476
-38.6468
-39.5215
-38.0176
-39.6561
-38.6787
-37.0452
-47.6619
-39.1373
-36.7292
-49.0401
-31.8695
-31.6303
-34.7732
-35.1456
-31.8595
-35.1384
-34.7718
-31.6315
-47.388
-49.0398
-36.7254
-39.1261
-36.4566
-34.7619
-29.6458
-33.4546
-36.4612
-33.4514
-29.6293
-34.7542
-32.4941
-26.9449
-28.1558
-32.8521
-32.5326
-32.8606
-28.1753
-26.9668
-66.6913
-87.2651
-136.423
-42.7281
-41.0845
-38.4794
-84.0451
-48.1234
-107.101
-35.3237
-33.1162
-34.1259
-86.8322
-65.4794
-136.243
-41.3638
-42.7012
-38.6076
-48.0856
-85.2362
-106.644
-33.0996
-35.3057
-34.1083
-37.8649
-32.8395
-32.0223
-34.2694
-35.4896
-39.4464
-37.036
-39.0957
-31.073
-34.6945
-40.6546
-19.207
-42.3874
-41.6172
-42.2068
-44.5974
-36.7083
-34.1994
-32.5039
-31.6181
-35.2677
-39.1108
-39.5788
-37.3298
-31.3423
-19.3907
-34.8589
-40.8031
-42.3885
-44.5884
-41.5954
-42.1641
-105.231
-90.4541
-130.562
117.061
-177.792
-178.047
-123.727
-15.3161
-42.6805
-36.1352
-46.0337
-41.8205
-35.3919
-35.098
-40.1755
-33.7008
-36.2974
-36.2949
-36.3154
-35.783
-40.0812
-39.198
-40.6013
-39.4792
-119.181
-118.634
-63.1582
29.3669
-45.2604
-38.693
-43.183
-38.5784
-27.7054
-27.6991
-31.8628
-25.3378
-37.8569
-39.9792
-38.0867
-37.7707
-91.8164
-89.6657
-130.054
116.899
-42.2761
-37.3793
-41.8009
-41.6451
-35.3672
-35.0792
-40.1479
-33.6949
-40.3295
-37.9082
-41.5098
-40.3448
-44.7444
-39.1318
-42.5307
-38.6837
-37.8392
-39.9694
-38.0681
-37.7593
-33.8275
-33.395
-34.9105
-35.0281
-33.5158
-33.8224
-34.0863
-34.2973
-39.6455
-39.6765
-40.7432
-38.8712
-35.9209
-36.9833
-37.0309
-35.7084
-43.0486
-43.0437
-41.372
-44.2975
-48.5835
-46.3363
-45.9163
-54.3203
10.9231
10.9228
6.38513
19.4114
-54.0697
-54.0726
-56.1743
-51.8347
-33.7132
-33.3145
-34.8003
-34.9785
-33.1419
-33.5396
-33.6745
-33.9653
-36.1094
-37.0858
-37.0921
-36.1264
-48.5044
-46.3689
-45.8766
-54.3295
-46.9433
-49.0852
-48.6021
-43.4138
-45.1845
-45.1923
-44.8673
-43.0586
-50.1259
-46.1202
-46.1117
-42.6561
-37.5725
-31.9199
-31.9377
-25.6333
205.709
207.732
190.738
205.963
-37.5462
-38.0405
-37.9973
-38.7309
-37.4139
-37.9026
-37.9145
-38.6272
-36.8462
-36.7567
-37.1256
-36.8414
-86.4843
-97.8775
-78.6244
-86.4965
-37.3875
-38.8006
-38.3218
-40.1868
-37.2248
-38.489
-38.1249
-40.1204
-39.0864
-39.6389
-39.6521
-40.1603
-35.4714
-36.1769
-36.1747
-36.5961
-28.2878
-28.3218
-27.3864
-28.2879
-84.2014
-87.7631
-139.975
128.556
-166.082
-205.71
-138.125
25.3204
-72.5069
-53.4874
-59.8644
-64.8232
-39.4057
-35.0968
-37.5728
-34.4753
-38.1479
-37.0136
-37.1859
-37.1776
-38.0458
-38.3387
-36.4887
-38.7455
-77.9018
-75.9219
-145.441
102.889
-60.2884
-94.471
-72.7615
30.1178
-63.7742
-52.6868
-60.9038
-56.3641
-35.4812
-34.8392
-40.2316
-33.2999
-31.115
-29.6229
-30.9744
-30.195
-34.4022
-36.384
-36.9798
-33.8049
-165.295
-205.592
-138.046
25.2975
-85.3529
-87.193
-139.107
128.633
-72.2697
-53.1089
-59.4662
-64.5965
-38.0864
-37.0071
-37.19
-37.1703
-39.3857
-35.0214
-37.4551
-34.3796
-37.9538
-38.1706
-36.6717
-38.7327
-60.0141
-93.3764
-72.666
35.6011
-78.4595
-75.3972
-144.37
102.771
-64.2703
-52.165
-60.5917
-56.2216
-31.1104
-29.5972
-30.9717
-30.1941
-35.4655
-34.8182
-40.2359
-33.2938
-34.3755
-36.3368
-36.9571
-33.7951
-31.6455
-37.7493
-33.0867
-36.4328
-33.4533
-33.1323
-33.7256
-34.5398
-32.8256
-33.391
-35.4287
-33.3249
-37.9449
-39.0095
-39.5308
-37.5485
-37.0257
-38.0908
-37.5833
-39.0004
-35.7857
-35.0521
-36.7719
-38.4209
-35.9795
-35.8436
-36.3359
-34.8588
-40.4889
-42.2642
-39.6689
-42.4984
-30.0214
-33.2952
-32.365
-25.1103
-34.6401
-34.1228
-33.3814
-36.0467
-47.7534
-49.6279
-46.5827
-66.0152
-1.49715
6.6324
-0.622791
9.17556
-42.233
-41.7937
-41.5953
-47.7887
-39.858
-38.2638
-39.4532
-39.1131
-44.5316
-44.9648
-42.9733
-47.8237
-51.8059
-53.307
-53.7448
-51.2406
-39.1236
-33.0347
-41.3263
-39.0786
-37.9086
-39.0951
-39.6658
-37.603
-33.2058
-32.9531
-33.4735
-34.4316
-32.3344
-32.8129
-34.6093
-32.8398
-36.9486
-38.3297
-37.393
-39.4617
-40.5578
-42.2453
-39.6742
-42.3788
-35.8001
-35.1513
-36.7827
-38.3912
-36.0991
-35.978
-36.4794
-34.6683
-30.6414
-34.429
-33.5631
-25.453
-1.52235
6.62254
-0.650955
9.18648
-34.6674
-33.9807
-33.4472
-35.9326
-47.7627
-49.5775
-46.5308
-65.8444
-42.2129
-41.73
-41.5264
-47.5755
-51.7707
-53.3072
-53.7452
-51.24
-39.8745
-38.2721
-39.4575
-39.1374
-44.5297
-44.9519
-42.9742
-47.8083
-73.6375
-55.7172
-62.5753
-62.5479
184.021
197.096
192.365
179.29
-82.9174
-63.6315
-72.5228
-72.4879
174.091
195.725
179.74
179.725
-49.232
-49.0938
-45.8135
-43.7048
-44.5
-46.0883
-49.6232
-42.232
-38.1775
-37.0034
-37.9564
-37.8213
-32.6833
-30.306
-32.1178
-31.5788
-37.3778
-38.3341
-37.9364
-37.9357
-32.3071
-28.6642
-30.7317
-30.7216
-38.9499
-38.7165
-39.738
-37.3508
-39.7011
-39.6894
-40.2096
-39.5083
-60.2977
-47.8731
-54.6621
-54.6623
141.053
167.443
151.692
152.431
-44.5858
-47.4272
-42.8054
-44.9863
-35.3247
-33.1014
-39.2663
-29.2088
-32.107
-33.7753
-32.8458
-32.8461
-25.6135
-26.8007
-26.7981
-26.8135
-37.2777
-37.715
-37.2192
-38.354
-37.0401
-36.5484
-37.4833
-35.9236
-73.1085
-54.9826
-61.9894
-61.926
184.049
197.237
178.966
192.146
-43.9902
-44.5857
-43.6621
-42.598
-44.3527
-46.0407
-49.5158
-42.1964
-38.1872
-37.0576
-37.8544
-37.9723
-32.673
-30.2869
-32.1034
-31.562
-39.1568
-38.3016
-39.3156
-37.4198
-39.896
-39.7055
-40.2293
-39.4844
-42.1797
-43.7401
-43.6261
-41.8222
-35.4065
-33.1399
-29.2775
-39.3044
-37.219
-37.5575
-38.1628
-37.193
-37.0325
-36.5439
-35.9191
-37.4874
-35.6094
-36.5043
-35.8886
-36.2368
-36.1658
-36.5786
-35.9854
-36.5044
-33.5584
-35.8668
-34.5787
-34.4238
-36.1152
-37.4764
-36.3248
-37.5738
-39.0457
-39.8724
-39.2275
-39.1812
-37.5456
-36.9188
-37.1156
-37.0829
-37.5146
-37.8327
-37.3251
-38.1352
-38.3051
-39.3803
-38.9998
-39.2227
-39.2782
-37.9182
-38.4493
-38.4449
-42.9631
-41.4306
-42.0644
-42.0587
-42.7867
-40.2911
-41.0298
-41.5804
-73.5118
-82.8438
-92.9136
-72.0721
-5.27055
-15.7618
-10.7886
-10.7991
13.7975
-96.7471
-10.6624
-10.6733
-61.279
-67.8875
-64.0591
-64.0271
-46.3489
-37.5205
-41.1144
-41.1065
-35.4206
-36.3823
-35.6249
-35.9935
-36.1394
-36.5647
-35.961
-36.4876
-36.3612
-39.0343
-38.4991
-38.9992
-35.8553
-37.2809
-36.0811
-37.3657
-37.5127
-37.7842
-38.1107
-37.2944
-37.6317
-39.2525
-38.8087
-39.0809
-42.7332
-40.212
-41.4912
-40.9759
-73.4694
-82.8907
-72.0646
-92.9527
-69.6283
-59.4137
-61.0654
-56.0186
-34.5699
-33.8445
-35.9175
-34.6166
-33.6045
-33.2092
-35.312
-34.0688
-70.6347
-60.5998
-61.6192
-53.9581
-69.2768
-58.899
-60.508
-55.4602
-70.0693
-60.1546
-61.0515
-53.2168
-35.3376
-34.5404
-38.3254
-37.3327
-40.1551
-37.7681
-39.7275
-39.5603
-83.9882
-70.1945
-72.6033
-62.6838
-83.8669
-70.0442
-72.516
-62.5639
-38.4276
-38.6749
-39.4726
-39.1423
-37.992
-38.3416
-39.3369
-38.9824
-63.859
-55.8086
-55.249
-48.5673
-17.7826
-9.97936
-19.8654
-12.9016
-17.8903
-10.0369
-19.9425
-12.9461
-63.7838
-55.7192
-55.2275
-48.5687
177.464
176.959
178.834
179.833
133.78
133.22
140.642
152.982
131.76
133.838
154.138
139.132
176.42
177.625
179.79
179.016
-34.4541
-34.3118
-35.2731
-35.2108
-36.2024
-36.421
-36.4297
-36.6522
-40.0278
-41.1621
-39.2955
-40.4382
-39.5803
-42.4426
-39.3438
-41.3658
-34.1362
-33.958
-34.9815
-34.9977
-39.4481
-42.3381
-39.1846
-41.235
-40.0253
-41.1505
-39.2801
-40.4085
-36.0908
-36.3563
-36.3017
-36.6302
-36.019
-36.5204
-36.0272
-36.7192
-36.5179
-35.9895
-36.7137
-35.9959
-38.27
-38.0612
-38.1244
-37.2883
-38.0878
-38.2836
-37.3052
-38.1365
-24.4083
5.29621
-72.2322
-7.80459
-55.7733
-57.3073
-62.3789
-61.6029
-57.3053
-55.7504
-61.5363
-62.3417
5.3828
-24.4107
-7.58788
-72.2782
-38.1327
-38.1788
-39.5652
-38.8381
-38.185
-37.8055
-37.9316
-36.8576
-37.831
-37.4772
-37.7568
-36.7435
-39.967
-39.2956
-39.8256
-39.741
-37.9742
-37.808
-39.5728
-38.6601
-39.8216
-39.1921
-39.6621
-39.6105
-37.8387
-37.4876
-37.7896
-36.7674
-38.1733
-37.7703
-37.9266
-36.8679
-41.0986
-41.9475
-40.9921
-41.7605
-40.9943
-41.9631
-40.9347
-41.743
-37.8312
-38.4959
-38.129
-38.6574
-37.8017
-38.4766
-38.1257
-38.6801
-43.5076
-48.4167
-38.8839
-42.3198
-32.0146
-33.0361
-32.776
-33.8498
-32.009
-33.0309
-32.7742
-33.8459
-43.4995
-48.4084
-38.908
-42.3076
-33.7481
-34.6047
-32.2402
-32.3891
-34.5972
-33.7451
-32.3738
-32.2276
-30.5784
-31.8355
-29.2723
-31.0937
-31.8472
-30.5947
-31.111
-29.2947
-140.248
128.414
-143.688
50.184
-88.3914
-94.6978
-37.578
-38.0769
-38.2054
-38.3692
-38.4098
-38.2886
-134.741
101.348
-80.098
88.4532
-76.8596
-66.5037
-38.7549
-33.4112
-31.5121
-32.2484
-35.9871
-32.4902
-143.41
50.478
-139.6
128.548
-88.13
-94.5328
-38.2153
-38.3608
-37.6078
-38.0681
-38.4058
-38.31
-79.905
87.8419
-133.861
101.561
-76.6069
-66.1179
-31.5015
-32.2173
-38.7802
-33.3939
-35.9894
-32.4788
-41.2669
-38.515
-32.8946
-34.7922
-35.8957
-32.6968
-36.1744
-36.2415
-36.9199
-36.2602
-36.2241
-37.7745
-37.0065
-35.191
-38.4213
-38.541
-31.4706
-22.0046
-33.2221
-37.909
-42.6095
-47.2365
-11.5605
-6.07457
-41.4649
-43.8841
-40.6951
-40.3092
-42.049
-45.5137
-48.0355
-47.0602
-41.5882
-39.0717
-36.737
-36.1904
-32.5312
-34.648
-34.931
-32.2793
-35.9815
-35.9941
-38.3839
-37.9443
-36.3367
-37.77
-37.3706
-34.9363
-31.9456
-22.2007
-11.6393
-5.96426
-33.4739
-37.9488
-42.6663
-48.2897
-41.4263
-43.9052
-48.0727
-47.1139
-40.6951
-40.3271
-42.0938
-45.4991
-132.001
115.501
-139.374
85.4209
-90.841
-92.5729
180.062
152.858
-132.355
6.87629
-132.417
7.00991
-99.9761
-99.9386
125.07
123.542
-44.2744
-49.5202
-37.9062
-38.0326
-42.9095
-43.6431
-46.9193
-40.7461
-39.6935
-33.8062
-40.4604
-33.3391
-38.2222
-38.2932
-33.4177
-33.0482
-36.5522
-36.1931
-36.553
-36.1889
-36.9592
-36.9583
-34.565
-34.561
-37.0218
-39.6715
-39.3064
-38.8592
-39.1823
-38.7393
-38.8723
-40.4428
-70.7409
71.4515
-70.515
71.7179
-64.0085
-63.9507
131.996
126.364
-48.4532
-45.5731
-37.132
-32.0067
-41.0621
-45.4504
-41.1358
-32.0714
-31.4805
-27.0273
-31.495
-27.0099
-31.8014
-31.8069
-25.7096
-25.7231
-37.8409
-35.6641
-40.0126
-41.1687
-37.5805
-38.1719
-38.3545
-36.2355
-131.407
115.618
-138.677
84.5596
-90.3255
-92.0807
152.311
180.055
-43.6563
-49.2788
-35.4237
-36.4104
-41.0926
-41.1396
-46.721
-40.3141
-39.6272
-33.8026
-40.4367
-33.3332
-38.3039
-38.2187
-33.4138
-33.0408
-36.8667
-39.3403
-38.8082
-38.4215
-38.8937
-39.1018
-39.0083
-40.3443
-47.6822
-45.4265
-38.487
-32.3466
-44.4295
-41.0861
-32.2162
-41.1683
-37.7269
-35.6522
-39.993
-41.1563
-38.0961
-37.5497
-36.2272
-38.3431
-34.4286
-34.7669
-35.4873
-36.0481
-35.0504
-35.5095
-35.4873
-36.0411
-34.2793
-33.7001
-33.5095
-34.9655
-34.5697
-33.9499
-34.7668
-35.6733
-40.3708
-38.5737
-40.4568
-38.6092
-40.3713
-40.3179
-38.0769
-38.0368
-36.5446
-35.1075
-37.8251
-37.4289
-37.0293
-37.7105
-36.9251
-36.7487
-41.0357
-43.9094
-41.0265
-43.8903
-40.0797
-40.0867
-43.7176
-43.7089
-47.2127
-58.8688
-44.378
-50.6007
-43.7999
-44.99
-68.6147
-59.1193
4.1275
16.2767
4.12051
16.2063
0.102846
0.0954565
21.7435
21.7369
-55.7707
-51.6163
-55.7674
-51.62
-58.5391
-58.5305
-48.8825
-48.8882
-34.2549
-34.6845
-35.4384
-36.021
-34.8808
-35.4043
-35.4433
-36.0106
-33.7058
-33.3347
-33.3611
-34.7264
-34.2129
-34.7861
-34.4543
-35.4112
-36.6238
-35.2699
-37.8602
-37.4272
-37.7341
-37.0615
-36.4186
-36.4842
-47.1514
-58.871
-44.373
-50.5868
-44.9241
-43.7889
-59.0998
-68.6114
-50.1948
-49.431
-46.6703
-43.745
-43.2784
-46.3549
-38.0077
-37.8383
-49.0221
-48.3885
-44.5887
-43.0011
-44.6935
-43.1152
-40.5974
-40.8594
-56.1391
-56.1094
-50.3839
-42.854
-50.3406
-42.8643
-40.7191
-40.7189
-42.4808
-42.5002
-37.8647
-26.5532
-26.5835
-37.8845