# vtk DataFile Version 2.0
tri_press
ASCII
DATASET UNSTRUCTURED_GRID
POINTS 3682 float
-0.805 0.175 -2.00196
-0.655 0.345 2.17246
-0.685 0.699814 -1.895
-0.545 1.04144 2.145
0.805 0.175 -2.00196
0.655 0.345 2.17246
0.685 0.699814 -1.895
0.545 1.04144 2.145
-0.806929 0.179737 -0.610487
-0.794144 0.19919 0.780987
-0.742156 0.917512 -0.548333
-0.69867 1.03457 0.798333
0.806948 0.179718 -0.610487
0.793841 0.199492 0.780987
0.742434 0.91779 -0.548333
0.698669 1.03457 0.798333
-1.56687 -0.259909 -3.12522
-1.56572 -0.182616 -2.02999
-1.55697 -0.172317 -0.637355
-1.51026 -0.162428 0.764294
-1.40781 -0.0632627 2.15769
-1.38236 0.0134864 3.25664
-1.393 0.0780269 4.34871
-1.56142 0.0631203 -3.08785
-1.55796 0.163761 -1.99751
-1.55407 0.199956 -0.613596
-1.49183 0.217237 0.77435
-1.34766 0.311275 2.15912
-1.34331 0.386211 3.25744
-1.37241 0.450417 4.35097
-1.5099 0.667515 -3.00053
-1.47235 0.765183 -1.90834
-1.49168 0.929692 -0.55497
-1.41527 1.01772 0.795224
-1.26496 1.04901 2.14945
-1.29784 1.12008 3.24962
-1.35123 1.1915 4.35038
-1.47058 1.70365 -2.90324
-1.45309 1.81939 -1.81776
-1.4497 2.00014 -0.478918
-1.42972 2.14164 0.850265
-1.39128 2.21634 2.18957
-1.38008 2.26677 3.27603
-1.38965 2.32496 4.37189
-0.806801 -0.254301 -3.12811
-0.796039 -0.173213 -2.0342
-0.793698 -0.181834 -0.63679
-0.785698 -0.174877 0.769959
-0.718722 -0.047809 2.16759
-0.702686 0.0242053 3.26336
-0.711429 0.0827955 4.35259
-0.81279 0.0610329 -3.08874
-0.679053 0.397846 3.26298
-0.700097 0.454976 4.3539
-0.772068 0.639887 -2.99499
-0.644743 1.12024 3.24873
-0.687938 1.19226 4.35019
-0.731714 1.68434 -2.89776
-0.714145 1.80098 -1.81172
-0.720914 1.99562 -0.475279
-0.726621 2.14705 0.849829
-0.713015 2.21893 2.18646
-0.706708 2.26686 3.27292
-0.712567 2.32469 4.36963
0.746808 -0.254261 -3.12811
0.795069 -0.173193 -2.0342
0.797594 -0.181798 -0.63679
0.760679 -0.174671 0.769959
0.666287 -0.0477278 2.16759
0.647605 0.024272 3.26336
0.646578 0.0828716 4.3526
0.726574 0.0610654 -3.08874
0.62653 0.39789 3.26298
0.634373 0.455043 4.3539
0.692363 0.639928 -2.99499
0.589939 1.12027 3.24873
0.619093 1.19232 4.35019
0.737577 1.68443 -2.89776
0.74876 1.80109 -1.81172
0.734017 1.99574 -0.47528
0.682715 2.14714 0.849829
0.634415 2.21899 2.18646
0.627433 2.26693 3.27292
0.633947 2.32476 4.36963
1.52013 -0.259803 -3.12522
1.56485 -0.18252 -2.02999
1.56664 -0.172183 -0.637355
1.50955 -0.162126 0.764294
1.39219 -0.0630545 2.15769
1.34834 0.0136473 3.25664
1.3417 0.0781885 4.34871
1.50224 0.0632219 -3.08785
1.55635 0.163868 -1.99751
1.56296 0.200086 -0.613597
1.50728 0.217546 0.77435
1.36298 0.311451 2.15912
1.31855 0.386345 3.25744
1.32258 0.450565 4.35097
1.45784 0.667638 -3.00053
1.47479 0.765344 -1.90834
1.50177 0.929977 -0.55497
1.42958 1.01787 0.795224
1.2787 1.04913 2.14945
1.27046 1.12019 3.24962
1.29827 1.19163 4.35038
1.47635 1.70383 -2.90324
1.48289 1.8196 -1.81776
1.46488 2.00037 -0.478918
1.40207 2.14182 0.850265
1.33424 2.21648 2.18957
1.31606 2.26691 3.27603
1.32118 2.3251 4.37189
-0.754569 0.437407 -1.95805
0 0.171688 -2.00527
-0.81005 0.173284 -1.30622
-0.571967 0.69322 2.1307
0 0.324685 2.19278
-0.760794 0.235873 1.47672
0 0.774952 -1.97014
-0.748521 0.843606 -1.22167
0 1.0349 2.13846
-0.647957 1.06413 1.47167
0.754 0.437407 -1.95748
0.810319 0.173014 -1.30622
0.572628 0.69322 2.13136
0.760132 0.236534 1.47672
0.748495 0.84358 -1.22167
0.64796 1.06413 1.47167
-0.800882 0.189118 0.08525
-0.836804 0.548625 -0.57941
9.61475e-06 0.17024 -0.610487
-0.832413 0.616879 0.78966
-0.000151318 0.199193 0.780987
-0.726289 0.981916 0.125
0.000138948 1.16834 -0.548333
-3.5298e-07 1.37391 0.798333
0.801688 0.188312 0.08525
0.836804 0.548754 -0.57941
0.832409 0.61703 0.78966
0.726269 0.981896 0.125
-0.898116 0.493016 -1.26395
0.898109 0.49308 -1.26395
4.80737e-06 0.167804 -1.30622
6.94738e-05 0.935108 -1.22167
0 0.437407 -2.12241
-0.844739 0.582752 0.105125
0.839721 0.582892 0.105125
-7.08515e-05 0.186023 0.08525
6.92973e-05 1.37057 0.125
-0.896153 0.655049 1.4742
0.896153 0.655125 1.4742
-7.56589e-05 0.234789 1.47672
-1.7649e-07 1.18997 1.47167
0 0.69322 2.17571
-0.742868 0.306204 -1.94309
-0.4025 0.171927 -2.00503
-0.808991 0.172676 -1.65409
-0.629069 0.51911 2.16716
-0.3275 0.328606 2.18885
-0.741268 0.257065 1.82459
-0.711337 0.568611 -1.91808
-0.3425 0.763741 -1.95893
-0.735024 0.789974 -1.55833
-0.535846 0.86733 2.11521
-0.2725 1.03928 2.14284
-0.580033 1.03634 1.80833
0.4025 0.171918 -2.00504
0.745374 0.306204 -1.94559
0.809156 0.17251 -1.65409
0.3275 0.328646 2.18881
0.629188 0.51911 2.16728
0.739578 0.258755 1.82459
0.3425 0.763529 -1.95871
0.711147 0.568611 -1.91789
0.73495 0.7899 -1.55833
0.2725 1.03925 2.14281
0.535848 0.86733 2.11521
0.579328 1.03563 1.80833
-0.818932 0.166068 -0.958355
-0.806289 0.182044 -0.262618
-0.83037 0.359929 -0.594948
-0.405179 0.17155 -0.610487
-0.767003 0.227997 1.12886
-0.795961 0.195706 0.433118
-0.846788 0.391279 0.785323
-0.397076 0.199334 0.780987
-0.747804 0.883024 -0.885
-0.830818 0.753738 -0.563872
-0.733271 0.948763 -0.211667
-0.421015 1.14294 -0.548333
-0.678328 1.05436 1.135
-0.822373 0.854139 0.793997
-0.716748 1.01251 0.461667
-0.427365 1.3603 0.798333
0.817161 0.167839 -0.958355
0.405386 0.171166 -0.610487
0.806821 0.181512 -0.262618
0.830355 0.359996 -0.594948
0.764339 0.230661 1.12886
0.396852 0.199329 0.780987
0.795687 0.19598 0.433118
0.846833 0.391407 0.785323
0.747805 0.883026 -0.885
0.419438 1.13937 -0.548333
0.831089 0.754007 -0.563872
0.733227 0.948719 -0.211667
0.678334 1.05437 1.135
0.427315 1.3602 0.798333
0.822315 0.854186 0.793997
0.716747 1.01251 0.461667
-0.898228 0.465211 -1.611
-0.377285 0.437407 -2.18675
2.40369e-06 0.168472 -1.65575
0 0.304547 -2.09499
-0.89628 0.33315 -1.28508
-0.405022 0.16784 -1.30622
-0.767773 0.674135 1.80245
-0.285983 0.69322 2.16586
-3.78294e-05 0.256968 1.83475
0 0.508952 2.22939
-0.893502 0.445461 1.47546
-0.380435 0.234789 1.47672
3.47369e-05 0.883435 -1.5959
0 0.606179 -2.12942
-0.895978 0.668311 -1.24281
-0.374226 0.905351 -1.22167
-8.8245e-08 1.0723 1.80506
0 0.86406 2.12652
-0.781683 0.859587 1.47293
-0.323978 1.17422 1.47167
0.898221 0.465244 -1.61071
0.377 0.437407 -2.18686
0.896276 0.333047 -1.28508
0.405162 0.16784 -1.30622
0.767914 0.674172 1.80278
0.286314 0.69322 2.16582
0.89356 0.44583 1.47546
0.380028 0.23479 1.47672
0.895968 0.66833 -1.24281
0.374282 0.905114 -1.22167
0.781732 0.859627 1.47293
0.32398 1.1743 1.47167
-0.833915 0.380382 0.0951875
-0.401408 0.185708 0.08525
-0.838223 0.52082 -0.921678
-0.838536 0.565688 -0.237143
7.21106e-06 0.16417 -0.958355
-3.06184e-05 0.17859 -0.262618
-0.84463 0.599815 0.447393
-0.896662 0.635964 1.13193
-0.000111085 0.194571 0.433118
-0.000113488 0.218088 1.12886
-0.831362 0.805258 0.115063
-0.451543 1.35311 0.125
0.000104211 0.996179 -0.885
0.000104122 1.33347 -0.211667
3.44722e-05 1.38247 0.461667
-2.64735e-07 1.32517 1.135
0.834257 0.378826 0.0951875
0.401503 0.185779 0.08525
0.838229 0.520917 -0.921678
0.838377 0.565823 -0.237143
0.845164 0.599961 0.447393
0.896661 0.636077 1.13193
0.831606 0.806699 0.115063
0.451786 1.35347 0.125
-0.894072 0.319677 -1.63254
-0.854285 0.348665 -0.940016
-0.833712 0.700689 -0.903339
-0.89655 0.618461 -1.58467
0.894071 0.319625 -1.6324
0.896541 0.61847 -1.58452
0.83381 0.700801 -0.903339
0.854286 0.348642 -0.940016
-0.403761 0.168614 -1.65492
0.403831 0.16861 -1.65492
0.40432 0.164172 -0.958355
-0.404241 0.164443 -0.958355
-0.358363 0.85548 -1.57712
-0.372617 0.970788 -0.885
0.372784 0.970765 -0.885
0.358391 0.855471 -1.57712
-0.389892 0.305375 -2.12055
-0.359892 0.587395 -2.07001
0.35975 0.587395 -2.07011
0.38975 0.305375 -2.1206
-0.83217 0.370142 -0.24988
-0.836113 0.38795 0.440256
-0.84997 0.84125 0.45453
-0.831157 0.779531 -0.224405
0.832333 0.369398 -0.24988
0.831514 0.780436 -0.224405
0.849887 0.841906 0.45453
0.836257 0.387261 0.440256
-0.403205 0.178805 -0.262618
0.403464 0.178432 -0.262618
0.398607 0.193694 0.433118
-0.398726 0.193553 0.433118
-0.465473 1.30641 -0.211667
-0.444848 1.36749 0.461667
0.444877 1.36749 0.461667
0.465518 1.30623 -0.211667
-0.895906 0.426748 1.13039
-0.806585 0.482286 1.81352
-0.731771 0.863459 1.80539
-0.809833 0.842655 1.13346
0.895831 0.427045 1.13039
0.809997 0.842713 1.13346
0.73176 0.863478 1.80556
0.806564 0.48247 1.81368
-0.388791 0.218131 1.12886
0.388437 0.218072 1.12886
0.353764 0.256284 1.82967
-0.353967 0.256284 1.82967
-0.336657 1.31184 1.135
-0.298239 1.06427 1.8067
0.29824 1.06427 1.8067
0.336657 1.31198 1.135
-0.306742 0.514031 2.21184
0.306907 0.514031 2.21221
0.279407 0.865695 2.13183
-0.279242 0.865695 2.13178
-0.804791 0.240602 -2.00338
-0.60375 0.172063 -2.0049
-0.80811 0.172723 -1.82803
-0.62421 0.432055 2.15199
-0.49125 0.331076 2.18638
-0.703654 0.295513 1.99853
-0.706097 0.634212 -1.91447
-0.51375 0.734052 -1.92924
-0.718786 0.753667 -1.72667
-0.529567 0.954385 2.11925
-0.40875 1.04483 2.14839
-0.552217 1.02859 1.97667
0.60375 0.172059 -2.0049
0.804946 0.240602 -2.00354
0.80851 0.172323 -1.82803
0.49125 0.331077 2.18638
0.624244 0.432055 2.15202
0.703626 0.295541 1.99853
0.51375 0.734047 -1.92923
0.706119 0.634212 -1.91449
0.718677 0.753558 -1.72667
0.40875 1.0448 2.14836
0.52948 0.954385 2.11916
0.551837 1.02821 1.97667
-0.807407 0.178426 -0.784421
-0.80622 0.18128 -0.436553
-0.833042 0.262637 -0.602718
-0.607792 0.172168 -0.610487
-0.770433 0.223733 0.954921
-0.794406 0.198094 0.607053
-0.832276 0.289329 0.783155
-0.595347 0.199788 0.780987
-0.747699 0.902988 -0.716667
-0.807086 0.845924 -0.556103
-0.736876 0.932299 -0.38
-0.614553 1.09616 -0.548333
-0.688477 1.04444 0.966667
-0.759057 0.943621 0.796165
-0.70873 1.02456 0.63
-0.585614 1.24263 0.798333
0.807405 0.178428 -0.784421
0.608038 0.171701 -0.610487
0.806699 0.180801 -0.436553
0.83304 0.262663 -0.602718
0.771754 0.222413 0.954921
0.595288 0.199527 0.780987
0.794321 0.198179 0.607053
0.832288 0.289474 0.783155
0.747736 0.903024 -0.716667
0.6147 1.09611 -0.548333
0.807077 0.846056 -0.556103
0.736813 0.932236 -0.38
0.688481 1.04445 0.966667
[...]
POINT_DATA 3682
SCALARS point_scalars float 1
LOOKUP_TABLE default
-119.139
-35.6136
-44.1807
-34.2788
-122.128
-35.4769
-44.5415
-34.1944
-34.7946
-31.1729
-62.7506
-50.5937
-34.7377
-30.1083
-62.8129
-50.587
-6.10514
-116.754
-35.7128
-29.5856
-40.9983
-35.2344
-34.2979
-6.10514
-122.06
-36.1126
-38.21
-37.9468
-35.2344
-32.1773
72.3651
-152.076
-49.1823
-44.7033
-37.3979
-33.0932
-32.1773
-33.0752
-92.4639
-86.0181
-60.2163
-34.3179
-34.3179
-34.3179
-74.726
-123.281
-36.1087
-35.5129
-37.688
-34.2979
-34.2979
80.6921
-31.7964
-31.4749
176.061
-33.1671
-31.5084
-6.27096
-44.0819
-88.2911
-61.9114
-34.2416
-33.3861
-33.3861
28.6081
-127.431
-36.0717
-35.3812
-36.5435
-34.1718
-32.811
28.6081
-31.5293
-30.6499
175.997
-32.6265
-31.1424
-6.7468
-45.3996
-88.4188
-62.6531
-34.1696
-33.391
-33.391
-6.69117
-115.691
-35.6746
-32.0527
-41.1374
-35.0933
-34.1718
-6.69117
-121.067
-36.112
-38.4951
-37.6853
-35.0933
-32.0925
70.5854
-150.221
-49.2113
-44.6583
-37.2052
-32.9943
-32.0925
-33.3504
-92.5594
-86.1129
-60.1993
-34.2205
-34.2205
-34.2205
-11.3428
-114.886
-53.0032
-32.8926
-26.5322
-40.0367
-43.7842
-49.8668
-34.3667
-47.8398
-6.70567
-53.0033
-32.8095
-39.9663
-49.7919
-47.8047
-33.0397
-39.1281
-39.4614
-34.0583
-37.364
-53.76
5.04906
-66.1319
-33.9732
-39.1159
-34.077
-53.777
-63.0916
-63.091
-54.0367
-9.99546
200.037
-38.8785
-38.5038
-35.2033
-88.4845
-53.093
-53.0277
-36.7274
-42.9977
-28.3709
-18.5958
-122.177
-77.5413
-32.4177
-30.641
-43.2838
8.00293
-52.0646
-57.2088
-32.8716
-33.2727
-39.2883
-122.19
-17.7227
-77.5097
-30.4596
-32.3149
-42.9738
-51.9562
8.09793
-57.0601
-33.3601
-32.7853
-39.2557
-48.1321
-34.3885
-36.8001
-38.6075
-38.129
-33.3695
-27.8275
-37.2507
-39.8951
-46.0451
-58.6042
-3.76068
-50.7731
-44.1659
-52.2892
-63.5393
-48.0848
-38.8613
-34.4982
-36.8013
-37.6132
-37.2995
-30.6078
-27.8461
-39.8585
-1.43323
-46.0527
-58.6243
-50.7548
-63.4555
-44.1271
-52.2841
-107.344
172.014
-72.1613
201.145
-61.9082
-53.9444
-41.4022
-30.8013
-35.7772
-21.9575
-48.2332
-37.4108
-35.0023
171.712
-63.5177
-16.4397
-37.8471
-28.1615
-51.0268
-43.4862
-107.318
171.918
-61.9085
-53.9156
-41.2913
-30.682
-48.2128
-37.4208
-63.5142
-16.6258
-50.9533
-43.501
-35.8048
-34.8199
-45.7193
-38.9887
-44.7811
-36.3375
-38.2526
-46.7254
-35.7894
-36.9177
-45.0681
-79.3946
16.8772
-91.2973
-74.7979
-54.8378
-35.7617
-34.7755
-45.6979
-38.9413
-38.1329
-46.7005
-45.1056
-79.4725
-106.263
-47.7314
-46.6583
-119.513
-106.207
-119.332
-46.6414
-47.6918
-72.8765
-72.8635
-44.4933
-44.5719
-37.8245
8.99515
9.22961
-37.858
152.561
126.372
126.395
152.613
-36.0145
-34.9032
-47.6196
-46.3072
-36.0637
-46.3898
-47.5268
-34.6442
-35.8117
-35.8649
-35.3926
-35.4539
-92.0426
-68.3829
-68.4279
-92.0525
-45.1523
-42.2481
-40.9007
-50.5881
-45.0677
-50.5495
-40.797
-42.1322
-37.0431
-37.028
-37.4473
-37.5037
-55.709
-38.0288
-38.0168
-55.6611
-28.704
-28.5516
-30.6348
-30.7285
-11.8636
-143.977
-106.553
-32.9857
-32.9596
-39.9011
-3.05205
-59.3606
-43.1635
-33.2367
-33.3328
-36.1483
-143.969
-12.2975
-106.451
-32.8058
-32.8658
-39.788
-59.3296
-2.81662
-43.342
-33.3344
-33.1359
-36.0974
-39.1885
-33.7347
-35.9811
-37.8521
-40.887
-33.2966
-25.5236
-37.5621
-56.4171
-53.471
-60.5881
-51.3688
-50.6108
-48.9507
-51.3204
-57.3058
-38.5979
-37.8689
-33.8954
-35.9809
-42.193
-37.439
-33.1819
-25.067
-56.3689
-51.2926
-53.5258
-60.6223
-50.6021
-57.2773
-48.927
-51.3024
-16.341
5.68737
-125.225
139.978
-114.925
-114.936
-87.6122
99.7808
-62.3889
-47.3357
-60.4838
-53.7748
-32.6487
-32.7332
-37.5308
-32.1582
-27.9032
-27.7729
-31.9584
-23.33
-46.9765
-38.5922
-46.1226
-38.1738
-46.398
-46.4371
-37.5904
75.2883
-61.1722
-42.5255
-62.4631
-27.0414
-34.0229
-34.0064
-35.6466
-29.7607
-42.9858
-51.1706
-48.3908
-44.9839
-16.1012
5.43824
-125.539
140.411
-62.3039
-47.4585
-60.4806
-53.751
-32.5506
-32.6414
-37.3985
-32.0686
-47.134
-39.1543
-46.0025
-38.3409
-61.2024
-42.4533
-62.4421
-27.0417
-42.9582
-51.1434
-48.3331
-44.9314
-33.2179
-33.2331
-34.3038
-34.2655
-37.663
-41.763
-40.6334
-38.9227
-39.2295
-39.3114
-42.0859
-37.9198
-30.5529
-38.9578
-36.8973
-36.9704
-37.3235
-37.3299
-36.1132
-37.8069
-56.3565
-52.6469
-50.6079
-65.4527
3.93911
4.50195
19.6906
-25.9866
-65.6285
-65.645
-70.2758
-61.6743
-33.4151
-35.1484
-35.3096
-34.2587
-37.6568
-41.7571
-40.6124
-38.9708
-30.5691
-38.9368
-36.8264
-36.8196
-56.1742
-52.6663
-50.6287
-65.5086
-78.8165
-62.6805
-63.3422
-55.6058
-78.807
-62.6811
-63.3353
-55.5864
-61.7472
-53.9403
-53.924
-48.2489
-23.8835
-11.1393
-11.1997
3.95307
196.465
201.583
169.537
196.335
-36.9544
-38.9583
-38.2291
-41.4538
-36.8334
-39.1291
-38.4105
-41.365
-35.0804
-36.1452
-35.5769
-35.0595
-86.7971
-99.9991
-80.8968
-86.8275
-47.5333
-49.7251
-56.6654
-48.7765
-47.4037
-49.668
-56.5796
-48.7366
-37.139
-36.9019
-36.9003
-37.2523
-39.7765
-43.1301
-43.1197
-47.5141
-29.2066
-23.4167
-28.0502
-29.1086
-141.187
127.673
-90.7981
73.6987
-101.203
-73.8567
-37.6793
-31.1256
-34.4476
-29.0722
-42.4538
-39.4964
-96.3952
100.391
-44.7663
86.4701
-121.268
-44.1109
-37.5402
-32.0557
-35.5404
-31.4261
-40.5479
-38.3231
-90.7797
75.3375
-139.93
127.593
-101.137
-73.8352
-34.3577
-28.8988
-37.4931
-30.9907
-42.2509
-39.3895
-44.737
86.5877
-97.8518
100.363
-120.614
-44.0769
-35.5239
-31.3497
-37.4392
-31.9743
-40.468
-38.3041
-50.2727
-44.3524
-34.7819
-35.061
-39.4669
-36.1273
-41.7585
-37.296
-44.0138
-37.1132
-33.8478
-34.8101
-32.6659
-38.3533
-35.8661
-37.9342
-49.489
-9.64262
-45.3571
-46.3549
-53.3051
-81.6272
11.6863
-32.4534
-51.0706
-56.599
-44.3508
-45.3311
-50.1017
-58.409
-65.9381
-61.1019
-50.0677
-44.2447
-41.678
-37.2769
-34.8177
-35.1221
-39.4451
-36.1548
-43.6482
-36.9438
-35.8322
-37.9913
-31.8226
-34.6735
-32.5667
-38.4835
-49.4156
-9.55115
11.4095
-32.2633
-45.3365
-46.4227
-53.3162
-81.7908
-51.0425
-56.5787
-66.0005
-61.0876
-44.3206
-45.3097
-50.106
-58.3754
-107.494
-108.825
164.517
141.699
-72.119
-72.1111
198.01
198.053
-77.5318
-54.0701
-61.862
-48.0551
-42.1284
-41.0383
-28.8669
-30.3719
-36.2558
-36.2866
-24.4737
-24.305
-45.7861
-54.6184
-37.6222
-38.3546
-35.0196
-35.0627
162.595
162.369
-52.5539
-80.1613
-28.2706
-4.0568
-37.8656
-37.8562
-28.9241
-28.9707
-45.5052
-53.3741
-48.3435
-40.2831
-107.421
-108.762
141.692
164.549
-77.5071
-54.0639
-61.8433
-48.0014
-40.9248
-42.0038
-28.6413
-30.2552
-45.7968
-54.4517
-37.5957
-38.3231
-80.1516
-52.5225
-5.034
-28.362
-53.3338
-45.4045
-40.2724
-48.3337
-36.044
-35.6624
-35.6028
-35.228
-46.6023
-45.5063
-37.0844
-42.054
-44.6871
-44.7043
-36.1778
-36.2038
-36.1087
-41.259
-45.8051
-46.1369
-35.7
-35.7261
-36.9529
-36.9594
-43.4208
-45.811
-91.7341
-71.8627
15.2056
15.0402
-88.0553
-88.1302
-73.4863
-73.4922
-55.0513
-55.0301
-36.1318
-35.4559
-35.5754
-35.1455
-45.4875
-46.5791
-37.1456
-42.1145
-41.2173
-35.9648
-45.7681
-46.1202
-45.8646
-43.5026
-71.8524
-92.1908
-128.494
-74.7766
-78.3844
-132.08
-38.7606
-39.9854
-54.4742
-53.6654
-53.1404
-53.1519
-54.6398
-42.1337
-27.6185
-123.296
-79.6755
-86.0307
-126.758
-132.542
-78.3668
-74.7297
-28.0972
-86.0733
-79.6608
-123.198
-53.1042
-42.1141
-54.6161
-53.1332
-38.7473
-53.6868
-54.4579
-39.9591
-95.6035
-87.8864
-61.6424
-61.9876
-95.5832
-61.9651
-61.6308
-87.8832
-41.0535
-41.976
-48.2184
-47.7818
-41.0686
-47.8411
-48.2419
-41.9692
-49.5271
-37.1472
-24.8052
-39.6408
-16.0827
18.2629
1.74301
-17.5615
-16.1116
-17.276
1.89412
18.135
-49.4822
-39.6006
-24.8045
-37.2538
100.653
128.277
197.768
115.007
69.2182
92.6079
164.144
108.65
69.2268
108.726
165.643
93.6528
100.119
114.963
197.797
128.381
-35.0458
-34.7645
-37.1009
-37.1306
-31.8211
-34.2328
-36.608
-34.4722
-49.1194
-50.4415
-40.9246
-40.3391
-53.5992
-41.9493
-41.8995
-51.9223
-35.1042
-37.1602
-37.1723
-34.935
-53.6332
-51.9537
-41.91
-41.9953
-49.0915
-40.285
-40.9492
-50.4872
-31.7404
-34.7567
-36.4995
-34.1426
-36.1628
-37.694
-36.033
-35.0199
-36.4047
-35.061
-36.0182
-37.7492
-35.2047
-36.028
-35.4493
-34.4827
-35.2916
-34.6567
-35.5096
-36.0489
-84.4377
-72.4138
-97.9469
-25.1631
-57.8518
-69.3234
-79.1119
-61.0085
-57.8301
-61.0273
-79.1181
-69.3071
-84.6365
-24.738
-98.4934
-72.4886
-40.5214
-43.22
-47.2011
-37.3648
-37.9471
-37.7706
-52.7982
-57.0938
-37.316
-44.4463
-46.2103
-37.546
-49.0693
-39.0799
-52.29
-51.0297
-42.1581
-37.3759
-47.1728
-44.0216
-49.0489
-50.9844
-52.2403
-39.1094
-37.1993
-37.4223
-46.0922
-44.3863
-37.7422
-57.0832
-52.6437
-37.621
-38.1453
-37.8321
-37.3547
-37.9652
-38.4577
-37.7304
-37.3471
-37.8553
-36.4997
-32.6616
-37.4395
-40.0612
-36.6262
-40.084
-37.457
-32.7156
-56.4004
-50.1916
-47.6281
-61.5899
-35.6395
-35.6031
-39.9164
-41.1362
-35.611
-41.1301
-39.9167
-35.5948
-56.2711
-61.5856
-47.6328
-50.1733
-31.3308
-25.4025
-24.9511
-31.2779
-31.1874
-31.1491
-24.7473
-25.2183
-32.0793
-30.2977
-28.7427
-31.783
-32.1542
-31.8776
-28.8475
-30.3514
-47.2126
-166.11
-131.466
-33.646
-34.2041
-37.381
-20.7178
-52.2573
-49.2303
-33.792
-33.8951
-34.475
-165.196
-47.9483
-131.014
-34.0676
-33.53
-37.2468
-52.7087
-20.5855
-49.3326
-33.8339
-33.6989
-34.4147
-35.9949
-35.2662
-34.8086
-36.7955
-45.0579
-31.6858
-24.6295
-37.5735
-64.8861
-57.9322
-61.6038
-80.4755
-50.5699
-49.6151
-50.8936
-53.6653
-36.0519
-36.7457
-35.2872
-34.7834
-46.2671
-37.3347
-31.2268
-23.1384
-64.8277
-80.5687
-57.9959
-61.7007
-50.5603
-53.65
-49.6051
-50.8841
-14.7284
-3.82618
-4.24851
84.3359
-114.881
-114.858
-99.2192
-92.9546
-57.1377
-49.7874
-57.6789
-53.2968
-32.9954
-32.7434
-35.846
-32.3176
-26.9433
-26.8684
-29.8954
-24.091
-42.9744
-38.2967
-44.1047
-38.9291
-44.6274
-44.8292
-36.329
-51.0899
-56.1838
-46.1596
-61.0424
-35.5069
-34.0141
-34.0062
-34.862
-32.5109
-45.5458
-49.9031
-47.8049
-46.9195
-13.5962
-5.143
-4.22717
83.4076
-57.1115
-49.7879
-57.6895
-53.2843
-32.9225
-32.6497
-35.5952
-32.2352
-42.7737
-38.7112
-43.9436
-39.0141
-56.1738
-46.0924
-60.9599
-35.4373
-45.5088
-49.8704
-47.7615
-46.8901
-34.0834
-32.7619
-34.2419
-33.7847
-38.2954
-40.2911
-39.5176
-38.9511
-39.4021
-39.4323
-40.3525
-39.262
-32.0705
-36.4439
-35.7672
-31.8089
-37.3106
-37.3171
-36.6565
-38.6493
-54.8057
-53.0517
-52.9603
-59.3789
4.9596
5.18261
14.5724
-6.7908
-66.019
-66.02
-68.2023
-63.9701
-34.7135
-32.7431
-35.9694
-33.8663
-38.2848
-40.2801
-39.5023
-38.8855
-32.1331
-36.4563
-35.7237
-31.8398
-54.8049
-53.0706
-52.9616
-59.4093
-70.1054
-63.05
-63.1783
-57.9721
-70.1017
-63.0503
-63.1753
-57.9649
-57.5534
-54.0064
-53.9991
-50.7714
-16.5503
-10.2482
-10.2764
-3.43944
199.019
201.116
198.742
198.97
-37.7235
-38.6788
-38.8382
-40.1945
-37.6159
-38.8271
-38.371
-39.8917
-35.1678
-35.6611
-35.3506
-35.1606
-88.0834
-94.4858
-84.2358
-88.12
-55.1263
-50.8607
-56.0288
-50.0236
-55.0055
-50.7965
-55.9595
-49.9706
-36.7617
-36.7866
-36.7847
-36.8722
-41.2846
-42.9987
-42.9945
-45.0336
-28.6204
-25.8166
-27.8104
-28.5608
-12.3768
-19.609
-30.8365
83.9193
-129.193
-117.089
-105.923
-49.8084
-89.4439
-68.9665
-91.9248
-74.1462
-32.557
-32.3457
-36.1266
-31.5974
-31.8757
-29.074
-32.8778
-29.7425
-41.8933
-44.9346
-43.9136
-40.8449
3.29991
4.36886
-3.37893
65.5826
-51.2002
-49.3896
-48.4375
-8.70143
-59.5031
-59.9657
-103.707
-49.9015
-32.9378
-32.8166
-37.1269
-32.3646
-33.0651
-33.5775
-34.5468
-32.1785
-37.5844
-40.9917
-39.8066
-38.6267
-129.188
-117.119
-105.886
-45.702
-13.4071
-19.4234
-31.5868
82.977
-89.5138
-68.898
-91.8229
-74.1187
-31.7072
-28.911
-32.7346
-29.55
-32.4437
-32.2424
-35.9638
-31.4934
-41.727
-45.084
-43.5957
-40.6939
-51.126
-49.2507
-48.3272
-8.94396
3.44276
4.43158
-3.09058
65.5408
-59.2814
-59.9795
-103.636
-49.8917
-33.0558
-33.552
-34.533
-32.1266
-32.8498
-32.7268
-36.9429
-32.2814
-37.5331
-40.9815
-39.7573
-38.6044
-44.4081
-46.2447
-51.375
-44.5113
-32.9433
-33.4103
-34.3916
-34.5666
-36.3273
-37.1651
-37.8058
-36.3485
-38.0894
-38.7743
-41.2981
-36.4746
-37.7302
-38.3746
-44.9093
-37.2081
-32.1845
-34.4859
-33.2411
-34.2636
-26.5049
-29.4356
-30.1949
-27.1161
-37.2332
-37.2793
-36.504
-38.8377
-46.9886
-40.192
-47.0263
-23.6897
-49.2251
-43.6068
-45.7043
-46.3206
-59.7412
-57.1931
-56.4764
-67.7506
-16.4433
2.00579
6.7208
-17.3758
-50.7581
-50.384
-50.8979
-53.8267
-47.4982
-41.1944
-44.0233
-44.3312
-51.8231
-52.474
-51.3802
-55.3071
-61.4457
-64.9052
-64.9385
-62.6635
-43.9166
-46.503
-51.3844
-44.3197
-38.4873
-39.1016
-39.9274
-38.4222
-33.0651
-33.0433
-34.4749
-34.611
-36.329
-37.1634
-37.7773
-36.3608
-38.1004
-36.8023
-42.71
-37.0253
-37.3319
-37.2929
-36.5059
-38.9101
-32.282
-31.9241
-30.1237
-34.0366
-26.4463
-29.4304
-30.1152
-27.3079
-46.9777
-40.0928
-47.2148
-23.7392
-14.6794
3.0562
6.3787
-16.3438
-49.2661
-43.6114
-45.6968
-46.3451
-59.7834
-57.1275
-56.512
-67.8198
-50.7414
-50.3675
-50.8739
-53.8011
-61.4176
-64.9475
-64.9198
-62.6661
-47.5331
-41.1653
-43.9694
-44.2905
-51.8069
-52.4784
-51.3921
-55.2972
-145.747
-90.4265
-107.386
-107.174
151.143
193.285
167.891
168.62
-78.8768
-66.6683
-72.1922
-72.1724
182.798
201.231
199.903
199.921
-61.2909
-62.135
-68.7949
-57.0064
-53.9367
-53.9125
-57.554
-50.7373
-39.2423
-43.8343
-41.9901
-41.3285
-31.7002
-29.9545
-30.1359
-30.1307
-34.0677
-36.822
-35.9303
-35.9466
-22.7694
-21.9627
-22.7305
-22.6375
-47.3775
-48.9568
-46.7146
-50.9793
-37.8179
-37.132
-37.3591
-37.6738
-39.6159
-29.7797
-35.3585
-35.3543
142.052
176.44
169.168
169.008
-63.3899
-63.0661
-57.623
-70.2096
-20.1468
-13.2444
-22.0072
-9.81711
-36.7889
-38.8035
-37.8491
-37.8377
-28.4118
-28.4886
-28.3617
-28.3882
-49.3543
-52.5213
-48.2287
-52.5201
-44.0094
-43.3101
-45.7617
-41.8043
-145.55
-90.4016
-107.328
-107.163
151.121
193.17
168.768
167.842
-61.2914
-62.2689
-68.7857
-57.0067
-53.9082
-53.8882
-57.5314
-50.6988
-39.1157
-43.7215
-41.2194
-41.8959
-31.5961
-29.837
-29.9967
-29.9976
-47.3154
-48.9076
-46.6996
-50.9013
-37.8502
-37.1311
-37.3774
-37.657
-63.3951
-63.0582
-70.2013
-57.6068
-20.29
-13.374
-10.0559
-22.1671
-49.2935
-52.4399
-52.4629
-48.146
-44.0776
-43.2977
-41.7814
-45.7454
-34.9944
-36.2594
-35.9258
-35.8188
-34.5907
-34.961
-35.1708
-34.925
-42.6071
-50.4601
-45.8965
-45.4865
-38.9315
-39.0314
-37.9354
-40.3988
-43.9249
-46.0214
-44.782
-44.7882
-36.7952
-36.089
-36.257
-36.2983
-37.6758
-38.0836
-37.0751
-39.7292
-44.2063
-47.6211
-46.1271
-47.4332
-35.6746
-35.9291
-35.7945
-35.8051
-36.7488
-37.4243
-36.9361
-36.9393
-47.6854
-43.0163
-44.3377
-45.2764
-73.2072
-84.4335
-84.1226
-74.6279
21.0206
10.3284
16.187
16.106
-52.5187
-107.754
-91.1235
-91.1513
-72.4308
-77.4373
-74.4764
-74.475
-58.5221
-50.7294
-54.887
-54.88
-35.2097
-36.1986
-36.0141
-35.6431
-34.5675
-34.922
-35.1456
-34.8657
-42.5839
-50.4409
-45.4676
-45.8756
-39.0631
-39.1481
-37.9576
-40.4086
-37.6342
-38.2072
-39.66
-36.9327
-44.0852
-47.5894
-46.1036
-47.4103
-47.7221
-42.9965
-45.3253
-44.3631
-73.2989
-84.5384
-74.7977
-84.2783
-144.088
-104.278
-106.91
-88.9544
-48.1629
-42.3753
-53.3609
-47.3216
-48.1875
-45.6292
-49.0573
-45.7944
-133.898
-123.17
-110.739
-92.8646
-144.083
-104.217
-106.84
-88.9079
-134.089
-122.933
-110.644
-92.8379
-48.1586
-45.6105
-49.0329
-45.7767
-48.09
-42.3505
-53.3341
-47.2924
-80.4297
-73.4024
-72.3468
-66.9525
-80.4166
-73.3885
-72.3364
-66.9371
-44.3558
-43.594
-45.7157
-44.5933
-44.4571
-43.6357
-45.8038
-44.6265
-41.6326
-40.7347
-35.0513
-33.6638
0.941268
12.8026
2.71223
12.9581
2.06605
13.0623
1.26095
12.5424
-41.6567
-40.7824
-35.0467
-33.7036
143.285
153.198
152.791
185.291
116.33
115.615
123.267
145.022
115.619
116.395
144.746
123.31
153.319
143.42
184.846
152.841
-35.2385
-35.9924
-36.0904
-36.4697
-34.4874
-34.0772
-35.3469
-35.3696
-46.0447
-49.0016
-43.3822
-43.6709
-46.3189
-49.2264
-43.9876
-46.1155
-35.295
-36.034
-36.1579
-36.5308
-46.4065
-49.2676
-44.0433
-46.1859
-46.0254
-48.9805
-43.376
-43.8529
-34.3667
-33.9381
-35.0791
-35.1841
-35.4765
-36.2183
-35.593
-36.0192
-36.2611
-35.5663
-36.0511
-35.6015
-35.3637
-35.1059
-35.6067
-35.4895
-35.176
-35.4246
-35.5554
-35.6557
-93.6302
-55.4327
-98.0033
-86.6612
-63.0133
-67.1207
-69.8885
-71.5712
-67.117
-63.0188
-71.6025
-69.8556
-54.9854
-93.6993
-86.5407
-98.1348
-44.669
-45.6081
-45.2019
-45.5216
-39.5118
-42.2791
-42.2222
-47.0688
-38.8853
-40.7461
-40.8664
-43.0227
-50.5585
-47.4142
-53.2608
-45.9288
-44.5166
-45.5769
-45.1966
-45.4722
-50.5406
-47.3828
-53.2233
-45.9097
-38.785
-40.6568
-40.7565
-42.9151
-39.3672
-42.1457
-42.0932
-46.9222
-37.079
-36.8041
-37.6823
-37.0039
-37.0116
-36.8248
-37.642
-37.0076
-36.0437
-38.2923
-36.7554
-38.217
-36.1028
-38.3694
-36.7994
-38.2597
-56.2788
-59.4436
-51.4257
-55.4054
-36.8002
-38.1174
-37.9287
-39.0767
-36.7879
-38.1013
-37.9166
-39.0678
-56.2896
-59.3753
-51.4371
-55.3569
-30.293
-28.7806
-28.588
-26.7661
-28.5937
-30.127
-26.5584
-28.5089
-30.8551
-31.447
-29.6363
-30.5252
-31.5314
-30.9438
-30.6289
-29.7088
-80.2831
78.5972
-118.611
-6.75073
-119.193
-97.5974
-36.4496
-31.8843
-34.9529
-31.7816
-38.9841
-37.8496
-31.6356
48.2945
-54.3809
-3.62816
-30.4851
-50.3404
-36.9208
-32.5403
-34.3535
-32.6564
-36.8188
-35.7981
-118.587
-5.71909
-79.9811
77.985
-118.308
-97.5907
-34.7941
-31.6384
-36.2937
-31.7649
-38.8118
-37.7099
-54.3597
-3.7105
-31.6373
48.4065
-31.2031
-50.3199
-34.3216
-32.5922
-36.8132
-32.4596
-36.7406
-35.7623
-38.8693
-40.1149
-33.9442
-35.4366
-36.9952
-35.4277
-38.9677
-37.2714
-45.22
-38.6778
-32.283
-34.5482
-29.6321
-27.526
-36.141
-39.4118
-56.485
-46.0722
-53.5021
-53.7023
-57.5179
-74.3681
-27.8899
-68.8997
-49.7927
-52.6969
-49.0937
-48.8914
-50.4559
-54.8226
-57.1107
-55.8065
-38.8389
-40.1052
-39.0197
-37.4232
-34.0795
-35.8493
-36.9797
-35.4673
-47.1227
-39.4854
-36.0819
-40.2236
-32.1916
-34.3905
-29.3216
-29.4971
-56.4391
-46.0789
-26.9786
-69.423
-53.5027
-53.749
-57.5289
-74.4578
-49.7785
-52.6822
-57.0922
-55.8591
-49.0566
-48.8557
-50.4307
-54.8053
-18.5301
75.0711
-0.299149
66
-129.907
-121.558
133.08
141.415
-99.8001
-109.316
-99.8027
-108.84
-87.6462
-87.6481
89.9423
90.4995
-70.4157
-61.6924
-51.0629
-47.4302
-66.8039
-55.9281
-57.513
-50.5335
-36.1784
-31.792
-36.0993
-32.2134
-37.6462
-37.5533
-32.2104
-31.7951
-30.6452
-26.0877
-30.5035
-25.9094
-32.1386
-32.1674
-23.9178
-23.8162
-56.4051
-41.6327
-40.8429
-37.9806
-44.489
-49.3443
-37.7353
-39.0456
-40.6873
-41.667
-40.6214
-42.3768
-38.1172
-38.0521
95.7334
95.6098
-89.5639
-46.0774
-50.393
-28.4279
-57.4229
-69.7718
-32.4006
-21.9845
-34.7153
-32.1294
-34.7092
-32.1448
-35.6274
-35.6223
-30.0286
-30.0558
-43.7505
-41.8999
-50.3698
-53.21
-46.209
-50.1056
-47.5394
-42.9183
-18.6449
74.9144
-0.311624
64.9315
-130.265
-122.124
142.137
133.479
-70.3604
-61.6589
-51.1589
-47.45
-66.7872
-55.9484
-57.493
-50.496
-36.0098
-31.6996
-35.9706
-32.1232
-37.4215
-37.503
-32.1137
-31.6946
-56.0755
-41.6865
-42.1914
-37.7904
-44.5528
-49.2532
-37.9588
-38.9683
-89.6292
-46.085
-50.3571
-28.2698
-69.7624
-57.4344
-21.8964
-32.4594
-43.7211
-41.8794
-50.3367
-52.7182
-50.0939
-46.1708
-42.9144
-47.5643
-33.614
-34.6647
-33.3753
-34.2743
-34.6228
-34.3506
-34.5954
-34.4112
-38.4884
-37.3068
-41.7078
-41.8394
-40.2499
-41.2452
-37.9325
-40.2797
-40.1751
-39.0752
-40.2169
-39.151
-42.097
-42.0896
-37.818
-37.844
-32.6828
-28.1225
-39.4515
-39.353
-35.4318
-38.6715
-36.384
-37.1779
-36.6134
-38.7119
-36.5988
-38.7346
-36.0807
-36.0967
-37.931
-37.9419
-55.1224
-63.1882
-51.6429
-56.7862
-50.5218
-51.1205
-68.3095
-63.1308
13.5266
-7.51706
13.6681
-7.27985
19.2616
19.1913
-25.3997
-25.1991
-67.4561
-63.7785
-67.4581
-63.7568
-70.0438
-70.0393
-61.5306
-61.5266
-33.837
-34.8156
-35.1271
-33.9477
-34.9993
-33.6575
-34.6375
-34.3452
-38.4714
-37.3015
-41.6932
-41.8364
-41.225
-40.227
-37.9528
-40.3507
-32.5935
-28.2183
-39.4134
-39.2851
-38.6014
-35.3559
-36.3688
-37.1072
-55.1163
-63.2359
-51.661
-56.79
-51.1464
-50.5348
-63.163
-68.3868
-78.9138
-79.384
-69.5723
-57.5543
-57.8925
-70.4619
-54.9121
-55.37
-78.8999
-79.3715
-69.5681
-57.55
-70.4529
-57.8802
-55.3508
-54.8925
-61.759
-61.7539
-57.4563
-50.8526
-57.4716
-50.835
-48.257
-48.266
-23.9742
-23.8801
-17.9137
-5.00387
-5.014
-17.9818
3.7994
3.82421
197.444
197.336
200.345
200.365
165.229