# vtk DataFile Version 2.0
tet_velo
ASCII
DATASET UNSTRUCTURED_GRID
POINTS 29498 float
-0.815485 0.285 -2.635
-0.795 0.325 2.75387
-0.865 0.668444 -2.515
-0.795 0.724326 2.705
0.815492 0.285 -2.635
0.795 0.325 2.75387
0.865 0.668466 -2.515
0.795 0.724326 2.705
-0.819574 0.287416 -0.83871
-0.822843 0.290652 0.95758
-0.863289 0.708694 -0.775
-0.846887 0.734252 0.965
0.819564 0.287431 -0.83871
0.822851 0.290646 0.95758
0.863289 0.708708 -0.775
0.846889 0.734261 0.965
-1.65094 0.061507 -4.07751
-1.65296 0.0763694 -2.66302
-1.65306 0.0795445 -0.865279
-1.64503 0.0826878 0.943796
-1.62314 0.105518 2.74249
-1.61881 0.120599 4.16166
-1.62302 0.131648 5.57217
-1.65508 0.264007 -4.03775
-1.65978 0.283044 -2.62941
-1.65982 0.29121 -0.842617
-1.64701 0.294519 0.949243
-1.61309 0.314331 2.73711
-1.61216 0.328848 4.15548
-1.62006 0.340094 5.56783
-1.67704 0.661729 -3.94242
-1.69798 0.680209 -2.53176
-1.69504 0.711657 -0.783338
-1.66822 0.728935 0.961093
-1.61967 0.727447 2.71059
-1.6169 0.741199 4.13128
-1.62472 0.755491 5.55271
-1.68741 1.28199 -3.84176
-1.69673 1.30391 -2.43952
-1.69684 1.33805 -0.709353
-1.68542 1.36313 1.00868
-1.66776 1.37205 2.73944
-1.65672 1.37848 4.1429
-1.65218 1.38844 5.55818
-0.815435 0.0624313 -4.08114
-0.819491 0.0779948 -2.66832
-0.82167 0.0776118 -0.864568
-0.82313 0.0803182 0.950912
-0.810207 0.110952 2.75494
-0.806092 0.124298 4.1701
-0.808429 0.133376 5.57705
-0.81391 0.263563 -4.03887
-0.80006 0.332561 4.16244
-0.806024 0.34159 5.57151
-0.830592 0.656706 -3.93546
-0.802905 0.740855 4.13017
-0.809659 0.75549 5.55247
-0.843491 1.27846 -3.83487
-0.852693 1.30055 -2.43194
-0.855961 1.33737 -0.704782
-0.85305 1.36449 1.00813
-0.844396 1.37226 2.73552
-0.836067 1.37796 4.13899
-0.831911 1.38794 5.55534
0.841824 0.062438 -4.08114
0.822442 0.0779995 -2.66832
0.822346 0.0776222 -0.864568
0.819003 0.0803173 0.950912
0.801082 0.110951 2.75494
0.807737 0.124298 4.1701
0.814248 0.133378 5.57705
0.849139 0.26357 -4.03887
0.806516 0.332561 4.16244
0.813703 0.341591 5.57151
0.864344 0.65672 -3.93546
0.805595 0.740856 4.13017
0.811851 0.755491 5.55247
0.849026 1.27847 -3.83487
0.843903 1.30056 -2.43194
0.835401 1.33738 -0.704782
0.819961 1.36449 1.00813
0.805212 1.37226 2.73552
0.803926 1.37796 4.13899
0.806441 1.38794 5.55534
1.67273 0.0615221 -4.07751
1.65584 0.0763836 -2.66302
1.6529 0.0795623 -0.865278
1.64455 0.0826918 0.943796
1.62172 0.105519 2.74249
1.62224 0.120601 4.16166
1.62893 0.131651 5.57217
1.68017 0.264024 -4.03775
1.66066 0.283058 -2.62941
1.65903 0.291231 -0.842617
1.64946 0.294522 0.949243
1.61742 0.314331 2.73711
1.61918 0.328849 4.15548
1.62732 0.340097 5.56783
1.70023 0.661753 -3.94242
1.69772 0.680236 -2.53176
1.69272 0.711681 -0.783338
1.66852 0.728948 0.961093
1.6214 0.727449 2.71059
1.61948 0.741202 4.13129
1.62633 0.755495 5.55271
1.6918 1.28201 -3.84176
1.68793 1.30394 -2.43952
1.6774 1.33807 -0.709354
1.65646 1.36314 1.00868
1.63426 1.37206 2.73944
1.62758 1.37849 4.1429
1.62777 1.38844 5.55818
-0.806111 0.476722 -2.54087
3.48687e-06 0.240081 -2.67992
-0.859805 0.243932 -1.73686
-0.799396 0.524663 2.73383
0 0.364134 2.71474
-0.844271 0.272476 1.85573
0 0.746307 -2.59285
-0.866894 0.691318 -1.645
0 0.600352 2.58103
-0.83551 0.743856 1.835
0.805934 0.476733 -2.54069
0.859788 0.243955 -1.73686
0.783118 0.524663 2.71755
0.844362 0.272386 1.85573
0.866928 0.691371 -1.645
0.835512 0.743861 1.835
-0.820575 0.289668 0.059435
-0.891279 0.498055 -0.806855
-5.13541e-06 0.200963 -0.83871
-0.892872 0.512452 0.96129
3.84981e-06 0.201123 0.95758
-0.854821 0.721206 0.0949999
-1.40929e-07 1.0866 -0.775
8.13961e-07 1.19529 0.965
0.820557 0.289689 0.059435
0.891273 0.498069 -0.806855
0.892875 0.512454 0.96129
0.854826 0.721222 0.0949999
-0.878726 0.487388 -1.69093
-0.893644 0.505253 0.0772175
-0.893844 0.518558 1.84536
-8.2427e-07 0.206419 -1.73686
-6.428e-07 0.201044 0.059435
1.92491e-06 0.248526 1.85573
1.74344e-06 0.476727 -2.55736
0 0.524663 2.5782
-7.04643e-08 0.790407 -1.645
3.36516e-07 1.21174 0.0949999
4.06981e-07 0.836857 1.835
0.878729 0.487401 -1.69093
0.893658 0.505262 0.0772175
0.893861 0.518558 1.84536
-1.23763 0.284022 -2.6322
-0.817488 0.181497 -2.65166
-0.814698 0.274281 -3.33693
-1.20404 0.319666 2.74549
-0.802603 0.217976 2.7544
-0.79753 0.328781 3.45816
-1.28149 0.674326 -2.52338
-0.847796 0.662575 -3.22523
-0.858846 0.984495 -2.47347
-1.20733 0.725886 2.7078
-0.798952 0.73259 3.41758
-0.819698 1.04829 2.72026
0.818967 0.1815 -2.65166
0.832316 0.274285 -3.33693
1.23808 0.284029 -2.6322
0.798041 0.217976 2.7544
0.800758 0.328781 3.45816
1.20621 0.319665 2.74549
0.864672 0.662593 -3.22523
0.854452 0.984512 -2.47347
1.28136 0.674351 -2.52338
0.800297 0.732591 3.41758
0.800106 1.04829 2.72026
1.2082 0.725888 2.7078
-1.2397 0.289313 -0.840663
-0.820622 0.182514 -0.851639
-1.23493 0.292585 0.953411
-0.822987 0.185485 0.954246
-1.27917 0.710175 -0.779169
-0.859625 1.02303 -0.739891
-1.25755 0.731594 0.963047
-0.849969 1.04937 0.986567
0.820955 0.182526 -0.851639
1.23929 0.289331 -0.840664
0.820927 0.185482 0.954246
1.23616 0.292584 0.953411
0.849345 1.02304 -0.739891
1.27801 0.710194 -0.779169
0.833425 1.04938 0.986567
1.2577 0.731605 0.963047
-1.65195 0.0689382 -3.37027
-1.65301 0.162757 -4.05763
-1.23319 0.0619691 -4.07933
-1.65301 0.077957 -1.76415
-1.65637 0.179707 -2.64622
-1.23622 0.0771821 -2.66567
-1.64904 0.0811162 0.0392586
-1.65644 0.185377 -0.853948
-1.23736 0.0785782 -0.864923
-1.63408 0.0941031 1.84315
-1.64602 0.188603 0.946519
-1.23408 0.081503 0.947354
-1.62097 0.113059 3.45208
-1.61811 0.209925 2.7398
-1.21667 0.108235 2.74872
-1.62091 0.126124 4.86691
-1.61549 0.224724 4.15857
-1.21245 0.122448 4.16588
-1.62154 0.235871 5.57
-1.21572 0.132512 5.57461
-1.65743 0.273525 -3.33358
-1.66606 0.462868 -3.99008
-1.23449 0.263785 -4.03831
-1.6598 0.287127 -1.73601
-1.67888 0.481626 -2.58058
-1.65342 0.292864 0.0533129
-1.67743 0.501433 -0.812977
-1.63005 0.304425 1.84318
-1.65761 0.511727 0.955168
-1.61263 0.321589 3.4463
-1.61638 0.520889 2.72385
-1.61611 0.334471 4.86165
-1.61453 0.535023 4.14338
-1.20611 0.330704 4.15896
-1.62239 0.547793 5.56027
-1.21304 0.340842 5.56967
-1.68751 0.670969 -3.23709
-1.68222 0.971857 -3.89209
-1.25381 0.659218 -3.93894
-1.69651 0.695933 -1.65755
-1.69735 0.992061 -2.48564
-1.68163 0.720296 0.0888778
-1.69594 1.02485 -0.746345
-1.64394 0.728191 1.83584
-1.67682 1.04603 0.984888
-1.61828 0.734323 3.42094
-1.64371 1.04975 2.72501
-1.62081 0.748345 4.842
-1.63681 1.05984 4.13709
-1.2099 0.741027 4.13073
-1.63845 1.07196 5.55544
-1.21719 0.755491 5.55259
-1.69207 1.29295 -3.14064
-1.26545 1.28022 -3.83832
-1.69678 1.32098 -1.57444
-1.27471 1.30223 -2.43573
-1.69113 1.35059 0.149665
-1.2764 1.33771 -0.707068
-1.67659 1.36759 1.87406
-1.26924 1.36381 1.00841
-1.66224 1.37527 3.44117
-1.25608 1.37215 2.73748
-1.65445 1.38346 4.85054
-1.24639 1.37822 4.14095
-1.24205 1.38819 5.55676
-0.817463 0.070213 -3.37473
-0.814673 0.162997 -4.06
0.0131945 0.0624346 -4.08114
-0.82058 0.0778033 -1.76644
0.00147569 0.0779971 -2.66832
-0.8224 0.078965 0.043172
0.00033825 0.077617 -0.864568
-0.816668 0.0956349 1.85292
-0.0020636 0.0803178 0.950912
-0.80815 0.117625 3.46252
-0.00456224 0.110951 2.75494
-0.807261 0.128837 4.87357
-0.803076 0.228429 4.16627
0.000822315 0.124298 4.1701
-0.807226 0.237483 5.57428
0.00290967 0.133377 5.57705
-0.822251 0.460134 -3.98716
0.0176144 0.263566 -4.03887
-0.803042 0.337075 4.86698
-0.801483 0.536708 4.1463
0.00322788 0.332561 4.16244
-0.807842 0.54854 5.56199
0.00383925 0.34159 5.57151
-0.837041 0.967583 -3.88517
0.0168761 0.656713 -3.93546
-0.806282 0.748172 4.84132
-0.819486 1.05941 4.13458
0.00134486 0.740855 4.13017
-0.820785 1.07171 5.5539
0.00109615 0.755491 5.55247
-0.848092 1.2895 -3.13341
0.00276757 1.27847 -3.83487
-0.854327 1.31896 -1.56836
-0.00439474 1.30055 -2.43194
-0.854505 1.35093 0.151676
-0.0102797 1.33737 -0.704782
-0.848723 1.36837 1.87183
-0.0165448 1.36449 1.00813
-0.840231 1.37511 3.43726
-0.0195916 1.37226 2.73552
-0.833989 1.38295 4.84716
-0.0160706 1.37796 4.13899
-0.0127351 1.38794 5.55534
0.832133 0.0702188 -3.37473
0.845482 0.163004 -4.06
1.25728 0.06198 -4.07933
0.822394 0.0778108 -1.76644
1.23914 0.0771916 -2.66567
0.820674 0.0789697 0.043172
1.23762 0.0785922 -0.864923
0.810042 0.0956342 1.85292
1.23178 0.0815045 0.947354
0.80441 0.117625 3.46252
1.2114 0.108235 2.74872
0.810993 0.128838 4.87357
0.807127 0.22843 4.16627
1.21499 0.12245 4.16588
0.813975 0.237484 5.57428
1.22159 0.132515 5.57461
0.856741 0.460145 -3.98716
1.26466 0.263797 -4.03831
0.810109 0.337076 4.86698
0.806055 0.536709 4.1463
1.21285 0.330705 4.15896
0.812777 0.548541 5.56199
1.22051 0.340844 5.56967
0.856685 0.967596 -3.88517
1.28229 0.659237 -3.93894
0.808723 0.748174 4.84132
0.80476 1.05941 4.13458
1.21254 0.741029 4.13073
0.809146 1.07172 5.5539
1.21909 0.755493 5.55259
0.846464 1.28952 -3.13341
1.27041 1.28024 -3.83832
0.839652 1.31897 -1.56836
1.26592 1.30225 -2.43573
0.827681 1.35094 0.151676
1.2564 1.33772 -0.707068
0.812587 1.36838 1.87183
1.23821 1.36382 1.00841
0.804569 1.37511 3.43726
1.21974 1.37216 2.73748
0.805183 1.38295 4.84716
1.21575 1.37822 4.14095
1.2171 1.38819 5.55676
1.66428 0.0689529 -3.37027
1.67645 0.162773 -4.05763
1.65437 0.0779729 -1.76415
1.65825 0.179721 -2.64622
1.64873 0.081127 0.0392585
1.65596 0.185397 -0.853948
1.63313 0.0941052 1.84315
1.64701 0.188607 0.946519
1.62198 0.11306 3.45208
1.61957 0.209925 2.7398
1.62559 0.126126 4.86691
1.62071 0.224725 4.15857
1.62812 0.235874 5.57
1.67042 0.273541 -3.33358
1.6902 0.462889 -3.99008
1.65984 0.287144 -1.73601
1.67919 0.481647 -2.58058
1.65424 0.292876 0.0533128
1.67587 0.501456 -0.812977
1.63344 0.304426 1.84318
1.65899 0.511735 0.955168
1.6183 0.32159 3.4463
1.61941 0.52089 2.72385
1.62325 0.334473 4.86165
1.61933 0.535026 4.14338
1.62683 0.547796 5.56027
1.69898 0.670995 -3.23709
1.69602 0.971881 -3.89209
1.69522 0.695958 -1.65755
1.69283 0.992086 -2.48564
1.68062 0.720314 0.0888777
1.68506 1.02488 -0.746346
1.64496 0.728198 1.83584
[...]
POINT_DATA 29498
VECTORS point_vectors float
-2.79785 -2.72647 7.45159
0.0793882 0.636287 2.54731
-1.43731 0.668515 3.50845
-0.158738 -0.26986 1.93881
2.84814 -2.76014 7.5375
-0.226327 0.665647 2.94327
1.4345 0.667075 3.50693
0.236157 -0.386767 2.58898
0.00892267 -0.0077447 0.225802
0.0514256 -0.0807855 0.278114
0.0049653 0.0103378 0.216174
-5.04477e-18 -1.16904e-17 -4.17638e-17
-0.00878224 -0.00768562 0.223809
-0.050995 -0.0808371 0.27763
-0.00521511 0.0105959 0.211071
0 0 0
-0.376447 -0.0750427 19.8683
-1.09781 -0.406831 20.3574
-0.409168 -0.294508 21.1496
0.107266 -0.0156163 21.3363
0.618796 0.204654 21.1619
0.729489 0.229417 20.5772
0.266042 -0.00270132 20.9399
-0.393215 -0.0425932 19.8507
-1.28899 -0.283348 20.3577
-0.491865 -0.339079 21.1672
0.128747 -0.0734638 21.4023
0.738261 0.103446 21.1894
0.704383 0.09071 20.4363
0.222436 -0.0788838 21.1378
-0.448159 0.0367602 19.8215
-1.30156 0.0180505 20.3857
-0.739288 -0.283402 21.1758
0.062947 -0.167526 21.4575
0.745225 -0.157689 21.2173
0.625637 -0.18604 20.402
0.259404 -0.205077 21.0838
-0.39228 0.200117 19.8978
-0.948987 0.411807 20.3787
-0.796203 0.145678 21.1187
-0.0488219 -0.114794 21.393
0.454835 -0.333664 21.0945
0.419259 -0.467776 20.927
0.389892 -0.423555 20.4166
-0.308172 -0.172769 19.487
-3.14423 -4.00811 20.0871
0.236298 -0.20059 15.293
0.36151 0.0134115 14.3793
0.676819 1.02661 15.0187
1.00138 0.866618 15.9088
0.750371 0.51661 16.477
-0.363949 -0.104544 19.3823
1.40254 0.802927 12.6114
0.829471 0.344866 14.06
-0.458105 0.1171 19.2935
1.50152 0.175131 12.2381
0.97543 -0.0942757 14.4078
-0.392001 0.424305 19.4978
-1.59839 1.93165 20.2516
-2.34414 1.61674 21.5085
-0.120081 -0.073616 20.9569
0.60349 -0.814615 20.0358
0.718293 -0.768045 20.2919
0.379374 -0.491013 19.8644
0.315806 -0.17503 19.4838
3.14672 -3.96064 20.073
-0.230316 -0.19749 15.2949
-0.367869 0.016975 14.2494
-0.639108 1.0448 14.8082
-0.693035 1.08872 16.1967
-0.773078 0.520484 16.6459
0.374962 -0.105593 19.4043
-1.29978 0.94668 12.2348
-0.904678 0.254014 14.1213
0.468147 0.11617 19.3146
-1.39997 0.232425 11.6082
-0.921992 -0.176881 14.4841
0.39149 0.421512 19.5
1.5868 1.94904 20.2451
2.40065 1.71093 21.5198
0.0964242 -0.0782004 20.8008
-0.602771 -0.832018 19.795
-0.625722 -0.809488 20.1871
-0.346352 -0.418982 20.041
0.369868 -0.0749638 19.8765
1.09763 -0.398264 20.3563
0.409908 -0.298996 21.1488
-0.10491 -0.0183972 21.3293
-0.616256 0.205291 21.1607
-0.686265 0.172652 20.8779
-0.311436 -0.046465 20.8027
0.396462 -0.0381416 19.8587
1.29355 -0.290218 20.3509
0.496085 -0.342775 21.1667
-0.127988 -0.0731573 21.4043
-0.731646 0.0992506 21.1856
-0.791286 -0.00449586 20.7797
-0.307197 -0.149015 20.9478
0.435193 0.0452371 19.844
1.30373 0.0223449 20.3867
0.738126 -0.28267 21.1774
-0.0629363 -0.166946 21.4545
-0.74589 -0.156716 21.2096
-0.786374 -0.244951 20.774
-0.291259 -0.253857 20.9326
0.404701 0.197547 19.8952
0.95893 0.421229 20.3784
0.820309 0.150019 21.1252
0.0521685 -0.123244 21.4022
-0.454103 -0.342939 21.1128
-0.49004 -0.408361 21.0604
-0.274795 -0.394322 20.6077
0 0 0
0.000545195 -0.699227 1.25559
0.0567175 -0.106074 1.66917
-0.0868109 -0.0756471 0.361963
-0.0046575 -0.0658393 -0.0125043
0.0385081 0.0634577 0.830779
-0.000132076 2.43867 2.39111
-0.199103 -0.192079 1.23631
-0.00270596 0.0265054 -0.0114143
0.186999 0.124851 0.594517
1.36938e-16 -1.3055e-17 9.26965e-17
-0.0546309 -0.10415 1.65888
0.303021 -0.133247 0.0923443
-0.0390317 0.0644515 0.837933
0.200313 -0.193036 1.24246
-0.186992 0.124885 0.597078
-0.00360907 0.00569439 0.162428
0 0 0
-2.8928e-08 -1.14043e-08 1.55819e-05
6.08203e-07 0.000417629 0.00161831
-4.94449e-07 3.86376e-07 0.000192815
0.0139697 0.033391 0.118508
5.48428e-05 0.0576904 0.0955577
-1.91761e-07 -0.000581917 0.0124308
0.00357695 0.00558933 0.159983
0 0 0
-6.68662e-07 0.000402791 0.00156293
-0.0139878 0.033433 0.118677
0 0 0
0 0 0
0.00190995 0.0094338 0.0830281
0 0 0
4.00563e-09 2.34911e-09 -6.74079e-06
-2.20284e-07 1.17072e-05 0.000200499
-1.0826e-19 -3.16663e-18 -2.98234e-18
0 0 0
-0.000109457 0.00141448 0.0460685
-1.57036e-07 1.52856e-07 -0.000438252
-2.32732e-08 8.78717e-06 -8.41762e-05
0 0 0
0 0 0
-0.00192715 0.00946603 0.0839773
-2.61573 -0.914437 20.2709
-4.99723 -5.77079 20.3108
-1.20643 -0.558525 18.5072
1.17829 0.514356 19.8651
0.489639 1.00229 9.70615
1.08618 1.13209 10.3401
-2.73563 0.261486 20.4177
-1.61077 0.44995 18.1735
-3.14105 3.09211 20.3981
1.27858 -0.0642821 19.5813
1.61384 -0.0721117 8.47132
1.40159 -0.200878 13.7836
4.96749 -5.67649 20.302
1.21483 -0.542804 18.538
2.61554 -0.911956 20.2693
-0.435637 1.05647 9.58039
-1.09019 1.1406 10.4844
-1.18545 0.510205 19.8791
1.62288 0.435655 18.2361
3.13973 3.12447 20.3989
2.73622 0.259522 20.4164
-1.55262 -0.0879968 8.65651
-1.40541 -0.193069 13.223
-1.2822 -0.076566 19.5929
-0.315627 -0.693802 21.0023
0.414585 -0.267085 8.0138
0.280592 0.0700035 20.3527
0.571907 -0.409987 7.70142
-1.21837 -0.716787 21.3065
-4.25068 -0.339855 16.3942
0.204611 -0.250209 20.3412
0.73594 0.959628 10.3652
-0.413895 -0.26587 8.01393
0.31701 -0.693265 20.9959
-0.575963 -0.400917 7.57516
-0.278316 0.0681569 20.3615
4.46327 -0.417674 16.091
1.21811 -0.721803 21.306
-0.771901 1.01058 9.45917
-0.205388 -0.252537 20.351
-0.725707 -0.217746 19.904
-0.386822 -0.0611791 19.8624
-0.380722 -0.136138 19.6761
-0.767743 -0.354583 20.9512
-1.19047 -0.35647 20.3561
-1.97279 -1.10966 20.2445
-0.1217 -0.161047 21.283
-0.43675 -0.319126 21.1623
-0.250893 -0.40128 21.3255
0.359541 0.114748 21.3055
0.121256 -0.0418423 21.369
0.215499 0.0967421 21.2484
0.774238 0.163508 21.0176
0.696208 0.159816 21.175
0.916836 0.587199 20.8346
0.85539 0.058855 20.5916
0.716936 0.160063 20.5068
0.927586 0.575891 21.0376
0.244239 -0.0407926 21.0389
0.495132 0.447089 20.7406
-0.816933 -0.141142 19.8421
-0.417548 -0.00209045 19.8255
-0.451882 -0.0928245 19.6308
-0.856815 -0.330076 20.9758
-1.37451 -0.118197 20.3808
-0.152163 -0.223258 21.345
-0.619871 -0.322783 21.1752
0.44559 0.0416509 21.3627
0.106818 -0.130285 21.4393
0.854183 0.115519 21.0524
0.75542 -0.028231 21.2184
0.934211 -0.0117881 21.0529
0.665386 -0.0202595 20.3634
1.09594 0.518853 20.3968
0.230019 -0.145452 21.2755
0.46435 0.214929 19.198
-0.921321 0.0532434 19.8816
-0.458514 0.136301 19.8475
-0.50889 0.0766064 19.6016
-0.987493 -0.154351 20.9027
-1.18261 0.295091 20.3719
-0.326419 -0.252229 21.394
-0.837103 -0.0673015 21.1554
0.443517 -0.129122 21.3907
-0.0143978 -0.168104 21.424
0.899794 -0.172134 21.0878
0.594806 -0.28561 21.1482
0.854453 -0.156514 20.8069
0.507171 -0.399365 20.5368
1.18794 -0.143831 19.9378
0.324648 -0.314316 20.7502
0.610112 -0.226424 19.5443
-0.722079 0.34859 20.0171
-0.450072 0.290502 19.72
-0.914022 0.277013 20.7802
-1.34989 0.869377 20.3293
-0.431011 0.0117369 21.3575
-1.37923 0.41982 21.2686
0.26034 -0.237813 21.2864
-0.127879 -0.142935 21.6336
0.49235 -0.382206 20.8195
0.560572 -0.555479 21.1618
0.42082 -0.285473 20.5825
0.719308 -0.605748 20.4294
0.482122 -0.499703 20.0364
-0.987218 -0.763797 18.8573
-0.335569 -0.13641 19.4262
0.0061601 -0.243443 19.2909
-0.609628 -0.440384 18.1653
0.00315415 -6.90823 20.9021
0.180624 0.0320254 14.597
-0.00183113 -0.0691718 9.7857
0.419634 0.486757 14.1426
-0.000381995 0.0384571 8.29209
0.773238 1.18734 15.6857
-0.0091146 0.500769 8.76638
0.814545 0.848036 15.5527
1.27927 0.814375 13.1434
-0.0586391 0.841906 10.7095
0.841802 0.493407 15.1813
-0.0416202 0.50984 12.4351
-0.424494 -0.033591 19.3272
0.0137345 -0.169524 19.1563
1.20102 0.572102 12.6064
1.59753 0.720992 11.932
-0.159187 -0.147968 3.7869
0.813729 0.0459788 12.8114
-0.0658927 0.262223 10.204
-0.444724 0.268518 19.3545
0.0147087 0.135254 18.9754
1.24504 -0.047937 11.8302
1.26166 -0.900533 16.6996
-0.272272 -1.61477 2.24504
0.791989 -0.304224 17.9211
0.0113973 -0.477687 8.93093
-0.973328 1.15807 19.3032
0.00197444 0.55173 19.2718
-1.59023 1.34807 20.6369
-0.00738446 3.13165 20.1969
-1.06911 0.41282 21.7484
-0.0488282 5.3529 20.7108
0.494891 -0.586498 20.0398
0.011579 -0.24054 13.4752
0.664457 -0.932912 19.7441
0.0129859 -0.906732 15.5864
0.420984 -0.655636 20.4741
0.0325842 -1.14645 16.11
-0.0133182 -0.665651 16.9242
0.994137 -0.749434 18.8763
0.344488 -0.136426 19.4341
0.381464 -0.135169 19.6848
0.620549 -0.441812 18.2211
1.96184 -1.09979 20.2438
-0.177848 0.0326337 14.5222
0.251949 -0.402033 21.3224
-0.416501 0.484333 13.9824
-0.213769 0.0987041 21.2411
-0.78675 1.19788 15.8748
-0.924738 0.600683 20.8109
-0.743906 0.822621 15.1132
-1.0511 1.05135 13.0882
-0.874314 0.688997 20.7176
-0.880094 0.456864 15.3254
-0.490238 0.479252 20.8343
0.435955 -0.0324468 19.3494
0.458038 -0.0909387 19.6428
-1.09772 0.610415 13.1422
-1.69455 0.716807 10.8696
-1.34582 0.482014 19.5069
-0.953816 -0.108944 12.7329
-0.52125 0.170796 19.2354
0.451161 0.265941 19.3641
0.504124 0.0756513 19.617
-0.882195 0.0422771 12.4877
-1.15693 -0.910735 16.0609
-1.27416 -0.139948 19.8824
-0.680759 -0.293488 17.9793
-0.539063 -0.262487 19.5942
0.972257 1.15966 19.3
0.450554 0.289463 19.7272
1.59119 1.3835 20.6269
1.35782 0.885577 20.3262
1.08505 0.445879 21.7834
1.40949 0.444167 21.2765
-0.512971 -0.612576 19.7726
0.133268 -0.140072 21.6574
-0.66309 -0.94741 19.6407
-0.553731 -0.576011 21.1752
-0.358425 -0.606104 20.5518
-0.668638 -0.627713 20.1958
-0.350169 -0.432746 20.2802
0.722425 -0.214666 19.9068
0.386158 -0.0576918 19.87
0.768238 -0.354573 20.9489
1.18915 -0.356139 20.3525
0.118378 -0.161247 21.2859
0.439123 -0.323396 21.1614
-0.363409 0.116924 21.3127
-0.119798 -0.0430338 21.3678
-0.729219 0.241677 20.8948
-0.691515 0.156427 21.17
-0.776184 0.115867 20.5617
-0.738776 0.0840779 20.8288
-0.309317 -0.0977399 20.8753
0.822344 -0.134596 19.8589
0.415274 -0.00120553 19.8432
0.858254 -0.330967 20.9742
1.38337 -0.123173 20.3726
0.154775 -0.225403 21.3431
0.623519 -0.326261 21.1761
-0.442551 0.0398826 21.3598
-0.107974 -0.129439 21.4412
-0.819632 0.0981156 20.9457
-0.753291 -0.0304432 21.2123
-0.730351 0.0113153 20.8586
-0.830676 -0.167345 20.7192
-0.318097 -0.218347 21.0524
0.918907 0.0544187 19.8855
0.440058 0.122938 19.8658
0.989853 -0.154226 20.9027
1.18449 0.303085 20.376
0.323252 -0.252479 21.3969
0.849271 -0.0658011 21.1616
-0.446963 -0.129643 21.3901
0.00897368 -0.170866 21.4332
-0.837365 -0.166175 20.9353
-0.609071 -0.299277 21.157
-0.675889 -0.0951325 20.9131
-0.616173 -0.353943 21.103
-0.283027 -0.32409 20.7702
0.724708 0.35213 20.0164
0.928018 0.280404 20.7824
0.446153 0.0053258 21.3689
-0.269419 -0.245836 21.2884
-0.498682 -0.373479 20.8778
-0.433129 -0.261267 20.5853
-0.772943 -0.184365 19.8744
-1.10487 -0.662134 18.6502
-0.93164 -0.427846 19.5216
-1.11537 -0.295535 19.3655
-0.420515 -0.118735 19.6523
-2.27811 -1.06257 20.2666
-0.80638 -0.339259 20.9714
0.2211 -0.219279 9.2335
-0.825674 -0.571163 21.2661
-0.893388 -0.718229 21.3706
-0.237076 -0.524671 21.3011
-0.128638 -0.190226 21.3096
0.0506409 0.087432 7.88796
0.0460723 -0.119615 21.3445
0.108112 -0.271931 20.5722
0.255876 0.0853958 20.9286
0.410856 0.0882466 21.3411
0.112255 0.46824 7.8069
0.543996 0.359848 21.1287
0.684171 0.332164 20.349
1.06757 0.562069 20.5631
0.821125 0.134448 21.0037
0.988767 1.26271 12.5385
1.09512 0.632718 20.2692
1.28615 0.470929 19.8495
0.967004 0.529709 20.8341
0.99797 0.0335003 20.8112
1.18274 0.723899 12.9532
0.721579 0.587135 20.8664
0.888685 0.377918 19.7752
0.476526 0.363675 20.3216
-0.870622 -0.0351817 19.8516
-1.50946 -0.15834 18.1541
-1.35232 0.176411 19.3048
-0.464937 -0.0204496 19.6087
-2.98594 -0.384659 20.3656
-0.930318 -0.241521 20.9313
-1.50358 -0.354631 21.2099
-0.768421 -0.833726 21.087
-0.236839 -0.260056 21.3916
-0.35791 -0.601345 20.8551
0.285673 -0.0837202 20.1507
0.450624 -0.0493358 21.3952
0.803808 0.00613057 19.8885
1.3062 0.274047 19.4656
0.916943 -0.0488715 21.1097
1.03975 0.485121 6.23405
1.45336 -0.190564 19.5743
1.28895 0.421887 19.6694
0.848019 -0.0902862 21.2892
1.22303 0.262083 12.2183
0.927114 -0.243889 19.0537
0.448527 -0.0851457 17.9533
-0.853382 0.247181 19.9278
-1.33435 1.05958 18.7003
-0.951366 0.659182 19.7534
-0.499036 0.182631 19.6444
-1.99537 0.816225 20.3628
-1.03352 0.0777481 20.843
-2.54125 0.939054 20.0471
-1.32526 0.566092 20.7841
-1.6389 -0.127544 21.3787
-0.429884 -0.142889 21.3864
-0.0539414 0.544382 10.8638
-0.718834 0.0832735 21.6199
-0.0860017 -0.283278 21.5235
0.356243 -0.214128 21.3399
1.50398 0.372655 12.0576
0.337278 -0.38522 21.4444
0.867515 -0.555709 20.8492
0.710038 -0.348685 20.9398
1.41211 -0.588055 15.3312
0.617156 -0.626201 20.9761
1.02761 -0.534372 20.1723
0.627625 -0.218827 20.5757
0.777617 -0.460931 17.331
0.460484 -0.428115 20.229
0.709106 -0.35975 19.9583
1.11364 -0.647769 18.6688
0.00749488 -1.2197 18.073
0.0129678 -0.93648 17.3565
0.0105487 -0.206743 19.2232
0.00480947 -9.57116 21.5149
-0.212649 -0.224637 9.26542
-0.00370936 -0.415009 13.2652
-0.000454405 -0.00460993 3.06114
-0.0498101 0.0864432 7.81745
-0.00154633 -0.0256347 8.61784
-6.93609e-05 0.0107401 2.72137
-0.102028 0.462475 7.68926
0.0023578 0.312265 8.18374
-0.0220205 0.271859 3.35046
-0.932183 1.3271 12.5652
-0.0478688 0.646269 9.49126
-0.000733912 -0.0196449 0.76777
-0.108913 0.346969 7.24818
-0.902891 0.801934 13.3707
0.00170797 0.691186 11.2645
0.135976 0.376858 8.05818
-0.0537565 0.386032 11.3196
1.51668 -0.159353 18.1939
0.0263627 0.846601 16.5618
0.0162589 -0.0763052 18.9831
-1.02991 0.49847 6.06095
0.0144109 -0.992738 -1.35119
-0.247437 -1.08742 -1.73881
-1.35163 0.248814 12.7897
0.161166 -0.338951 5.60403
-0.0714258 -0.0464463 8.53374
1.33603 1.04343 18.7144
-0.000690489 1.8452 18.7495
0.00655218 0.395456 19.0008
-0.00266801 5.46102 20.7347
2.53224 0.960901 19.968
-0.0137945 2.20282 20.3361
0.000580299 0.819142 1.44951
-0.06967 0.677385 9.98544
-0.00982952 0.530952 14.4318
0 0 0
-1.51054 0.36932 11.3527
0.00793815 -0.721232 14.346
-0.024451 0.0671585 1.50295
-1.3962 -0.596434 14.852
0.0273433 -1.16497 15.9466
-0.301091 -2.28077 8.51617
-0.605424 -0.406744 17.1874
-0.00252302 -0.927261 16.2495
0.112706 -0.985837 10.6977
0.776302 -0.179726 19.8851
0.935006 -0.416495 19.5371
1.10192 -0.291245 19.4036
0.421452 -0.114642 19.6632
2.27169 -1.05414 20.2651
0.808262 -0.339894 20.9689
0.827276 -0.573875 21.2615
0.897081 -0.716745 21.3688
0.237914 -0.524683 21.2981
0.128822 -0.192098 21.3099
-0.044621 -0.119904 21.3398
-0.105089 -0.272132 20.5714
-0.25473 0.0856212 20.9198
-0.409665 0.0877246 21.3398
-0.54328 0.363667 21.1098
-0.681675 0.328068 20.3599
-1.07535 0.570607 20.5385
-0.77879 0.162856 20.9318
-1.04598 0.663119 20.4118
-1.31173 0.483789 19.9666
-1.11797 0.591236 20.3269
-0.747057 0.0823759 20.7609
-0.588151 0.464603 20.3281
-0.844549 0.269794 19.6631
-0.496306 0.373843 20.4436
0.865205 -0.0374306 19.8597
1.33384 0.171935 19.3322
0.46656 -0.0222227 19.6243
2.98918 -0.384236 20.3651
0.934224 -0.242063 20.9299
1.50315 -0.35731 21.2119
0.768775 -0.83427 21.0673
0.23846 -0.260679 21.3917
0.357247 -0.604495 20.8485
-0.284335 -0.0875174 20.1663
-0.448862 -0.0509991 21.3926
-0.803666 0.00157137 19.9053
-1.314 0.271734 19.3832
-0.881071 -0.0147315 20.8855
-1.43962 -0.202626 19.7467
-1.40014 0.247697 18.7362
-0.687039 -0.0840974 20.9385
-0.850839 -0.274007 19.2056
-0.572918 -0.193709 17.8498
0.849015 0.249312 19.9297
0.951987 0.657981 19.7511
0.495125 0.180244 19.6541
2.00785 0.827409 20.3659
1.03731 0.0809132 20.8453
1.33547 0.585644 20.7841
1.67477 -0.126971 21.3866
0.433081 -0.145438 21.3942
0.738793 0.0963739 21.6395
0.0910028 -0.285271 21.4642
-0.365499 -0.218269 21.3462
-0.342652 -0.406009 21.4568
-0.893138 -0.558449 20.7275
-0.704034 -0.370114 20.9288
-0.620335 -0.646208 20.9924
-0.878778 -0.569964 19.703
-0.687149 -0.263074 20.6127
-0.334239 -0.392016 20.3439
-0.548843 -0.333159 20.1445
-1.02125 -0.373938 19.4482
-0.811548 -0.611436 21.3334
0.100902 -0.179985 21.1315
0.62503 0.348763 20.8329
1.19708 0.553872 20.1527
0.865239 0.527892 20.1991
-1.31463 -0.103437 19.2823
-1.25866 -0.688271 21.427
-0.0776951 -0.50332 20.5157
0.755111 0.208197 19.8656
1.45483 0.187042 19.6004
0.907898 0.0670146 19.4145
-1.18745 0.509713 19.5031
-1.59694 0.165345 20.9066
-0.779635 -0.279719 21.6462
0.554604 -0.400968 21.2141
0.9441 -0.653039 20.6952
0.673658 -0.398092 20.0131
0.00967895 -1.07677 17.6825
-0.00198648 -0.106318 4.49009
-0.000482954 -0.00274564 2.77234
0.00159462 0.165415 3.24417
-0.0296472 0.220517 4.57209
0.125669 0.558461 8.78185
0.0278497 -0.270759 16.568
0.204684 -0.791121 -3.31673
0.14857 0.0189517 6.83112
0.00928914 1.88915 17.6172
-0.00707258 1.63229 17.3762
0 0 0
-0.00202602 0.0723804 0.37927
0.00896977 -0.844815 5.11633
-0.0250222 -1.45228 9.17634
1.012 -0.360845 19.4734
0.81509 -0.61187 21.329
-0.0996156 -0.179247 21.1254
-0.625426 0.349393 20.8223
-1.18797 0.567483 20.3433
-0.677923 0.446697 19.9021
1.29556 -0.0986283 19.3168
1.26219 -0.689161 21.4283
0.079906 -0.504609 20.5123
-0.753727 0.204237 19.8736
-1.46648 0.158026 19.6269
-0.903545 -0.00969953 19.44
1.18145 0.501055 19.5112
1.61008 0.161838 20.9063
0.794344 -0.282042 21.6108
-0.577504 -0.394507 21.0746
-0.951525 -0.660438 20.5867
-0.531251 -0.448128 20.0064
-6.48164 -2.68857 8.73549
-0.995357 -6.95232 6.79815
-0.176685 0.0264555 3.17928
-0.137968 -0.105837 0.258772
-0.0553785 -0.041076 -0.006439
0.0746084 0.0280016 1.23224
-8.02767 -0.131166 5.02758
-0.00335503 0.0133972 0.0106076
-0.118387 -0.060663 0.966489
0.00321012 -0.0173887 0.226211
-0.00757351 0.0032338 -0.00188312
0.326983 0.197521 1.69702
0.969312 -6.90587 6.76428
6.40863 -2.68203 8.64378
0.1808 0.0252635 3.19004
0.0555392 -0.0441914 -0.00765301
0.087364 -0.080849 0.243925
-0.0733524 0.0302349 1.24095
0.0049111 0.0221896 0.0180034
7.91623 -0.123525 4.92989
0.118647 -0.0605987 0.968878
0.00749979 0.00385916 -0.00215755
0.216448 -0.0927708 0.230788
-0.321583 0.191875 1.70465
0.0306607 -0.0197167 0.246867
-0.000921554 0.00265062 0.170738
-5.12629e-05 0.000170066 0.0733574
0 0 0
0.0129189 0.0437944 1.73459
-0.00494069 0.00922299 0.291245
-2.30421e-17 3.96898e-17 1.19456e-16
0 0 0
-0.297187 -0.340476 0.950729
-8.25652e-05 0.000196823 0.0217366
0.023932 0.0693135 0.247906
-0.0810634 0.0471928 0.106284
0.0356968 0.0462021 0.139068
0.00125229 0.0113722 0.0446193
0 0 0
0.0492252 -0.00524173 0.351637
-0.0308706 -0.0197512 0.24207
0 0 0
0.000962001 0.00261808 0.168663
4.99986e-05 0.000179019 0.0730245
-0.0131244 0.0429868 1.64961
0 0 0
0.00497183 0.00921193 0.29119
0 0 0
0.298332 -0.342045 0.95357
0.0811439 0.0479095 0.106427
7.82636e-05 0.000213938 0.0215097
-0.0159385 0.0434079 0.158565
-0.0359589 0.0464883 0.140346
-0.0493333 -0.0052275 0.352036
-0.00125224 0.0113473 0.0445704
0 0 0
0 0 0
-0.846279 1.13827 1.5005
-5.27736e-05 -0.0016691 0.0387116
1.36409e-19 -2.24001e-16 6.86642e-17
0 0 0
0.00355693 -0.00154025 0.0343427
0.00691022 0.0176862 0.164415
2.03362e-17 -7.51432e-18 5.78287e-18
0 0 0
0 0 0
0.00527249 0.00611392 0.136851
0.000321564 0.000481861 0.00881839
0 0 0
-5.6997e-07 1.84709e-05 0.000569541
0 0 0
-0.00191208 1.14537e-05 0.000202962
-0.00904151 0.0885634 -0.0381389
-4.52856e-05 0.000812438 -0.00679466
0.00323951 0.0129198 0.0751734
3.76056e-06 1.28507e-05 -0.000173919
0.799619 1.08804 1.42172
0 0 0
-0.00326547 -0.00142734 0.0334611
0 0 0
0 0 0
-0.00713076 0.0179173 0.169674
-0.000328607 0.000504966 0.00925259
-0.00540519 0.00614379 0.13907
0.00190312 1.25608e-05 0.000228573
0 0 0
-2.42503e-06 9.36153e-06 -0.000125725
-0.0032984 0.013134 0.0768733
-0.00199365 0.0070322 0.0584361
0 0 0
0 0 0
0 0 0
-6.54796e-08 -4.03285e-08 1.57054e-05
-1.501e-09 -6.08858e-10 1.48227e-06
0 0 0
6.90152e-05 0.000817904 0.00459439
-1.37057e-08 -8.00281e-10 -3.74833e-05
1.99438e-07 7.95136e-05 0.00158678
0.00233411 0.0166233 0.0755398
0.0295113 0.0145351 0.452679
-4.82087e-05 -0.00031771 -0.00819679
3.87298e-07 0.00128255 0.0212134
-4.86373e-07 -2.73633e-06 0.000352093
-1.97863e-05 0.00562226 -0.00452749
0 0 0
0.00199847 0.00705374 0.0586701
0 0 0
0 0 0
0 0 0
-6.99193e-05 0.000827317 0.00465466
-0.0295296 0.0145474 0.452567
-0.00232135 0.0165255 0.0751831
0 0 0
-0.000408804 -0.00123702 0.00989605
0.00439623 -0.0172204 0.123075
-0.000183069 -0.00102259 0.00409619