# vtk DataFile Version 2.0
tri_press
ASCII
DATASET UNSTRUCTURED_GRID
POINTS 3682 float
-0.815485 0.285 -2.635
-0.795 0.325 2.75387
-0.865 0.668444 -2.515
-0.795 0.724326 2.705
0.815492 0.285 -2.635
0.795 0.325 2.75387
0.865 0.668466 -2.515
0.795 0.724326 2.705
-0.819574 0.287416 -0.83871
-0.822843 0.290652 0.95758
-0.863289 0.708694 -0.775
-0.846887 0.734252 0.965
0.819564 0.287431 -0.83871
0.822851 0.290646 0.95758
0.863289 0.708708 -0.775
0.846889 0.734261 0.965
-1.65094 0.061507 -4.07751
-1.65296 0.0763694 -2.66302
-1.65306 0.0795445 -0.865279
-1.64503 0.0826878 0.943796
-1.62314 0.105518 2.74249
-1.61881 0.120599 4.16166
-1.62302 0.131648 5.57217
-1.65508 0.264007 -4.03775
-1.65978 0.283044 -2.62941
-1.65982 0.29121 -0.842617
-1.64701 0.294519 0.949243
-1.61309 0.314331 2.73711
-1.61216 0.328848 4.15548
-1.62006 0.340094 5.56783
-1.67704 0.661729 -3.94242
-1.69798 0.680209 -2.53176
-1.69504 0.711657 -0.783338
-1.66822 0.728935 0.961093
-1.61967 0.727447 2.71059
-1.6169 0.741199 4.13128
-1.62472 0.755491 5.55271
-1.68741 1.28199 -3.84176
-1.69673 1.30391 -2.43952
-1.69684 1.33805 -0.709353
-1.68542 1.36313 1.00868
-1.66776 1.37205 2.73944
-1.65672 1.37848 4.1429
-1.65218 1.38844 5.55818
-0.815435 0.0624313 -4.08114
-0.819491 0.0779948 -2.66832
-0.82167 0.0776118 -0.864568
-0.82313 0.0803182 0.950912
-0.810207 0.110952 2.75494
-0.806092 0.124298 4.1701
-0.808429 0.133376 5.57705
-0.81391 0.263563 -4.03887
-0.80006 0.332561 4.16244
-0.806024 0.34159 5.57151
-0.830592 0.656706 -3.93546
-0.802905 0.740855 4.13017
-0.809659 0.75549 5.55247
-0.843491 1.27846 -3.83487
-0.852693 1.30055 -2.43194
-0.855961 1.33737 -0.704782
-0.85305 1.36449 1.00813
-0.844396 1.37226 2.73552
-0.836067 1.37796 4.13899
-0.831911 1.38794 5.55534
0.841824 0.062438 -4.08114
0.822442 0.0779995 -2.66832
0.822346 0.0776222 -0.864568
0.819003 0.0803173 0.950912
0.801082 0.110951 2.75494
0.807737 0.124298 4.1701
0.814248 0.133378 5.57705
0.849139 0.26357 -4.03887
0.806516 0.332561 4.16244
0.813703 0.341591 5.57151
0.864344 0.65672 -3.93546
0.805595 0.740856 4.13017
0.811851 0.755491 5.55247
0.849026 1.27847 -3.83487
0.843903 1.30056 -2.43194
0.835401 1.33738 -0.704782
0.819961 1.36449 1.00813
0.805212 1.37226 2.73552
0.803926 1.37796 4.13899
0.806441 1.38794 5.55534
1.67273 0.0615221 -4.07751
1.65584 0.0763836 -2.66302
1.6529 0.0795623 -0.865278
1.64455 0.0826918 0.943796
1.62172 0.105519 2.74249
1.62224 0.120601 4.16166
1.62893 0.131651 5.57217
1.68017 0.264024 -4.03775
1.66066 0.283058 -2.62941
1.65903 0.291231 -0.842617
1.64946 0.294522 0.949243
1.61742 0.314331 2.73711
1.61918 0.328849 4.15548
1.62732 0.340097 5.56783
1.70023 0.661753 -3.94242
1.69772 0.680236 -2.53176
1.69272 0.711681 -0.783338
1.66852 0.728948 0.961093
1.6214 0.727449 2.71059
1.61948 0.741202 4.13129
1.62633 0.755495 5.55271
1.6918 1.28201 -3.84176
1.68793 1.30394 -2.43952
1.6774 1.33807 -0.709354
1.65646 1.36314 1.00868
1.63426 1.37206 2.73944
1.62758 1.37849 4.1429
1.62777 1.38844 5.55818
-0.806111 0.476722 -2.54087
3.48687e-06 0.240081 -2.67992
-0.859805 0.243932 -1.73686
-0.799396 0.524663 2.73383
0 0.364134 2.71474
-0.844271 0.272476 1.85573
0 0.746307 -2.59285
-0.866894 0.691318 -1.645
0 0.600352 2.58103
-0.83551 0.743856 1.835
0.805934 0.476733 -2.54069
0.859788 0.243955 -1.73686
0.783118 0.524663 2.71755
0.844362 0.272386 1.85573
0.866928 0.691371 -1.645
0.835512 0.743861 1.835
-0.820575 0.289668 0.059435
-0.891279 0.498055 -0.806855
-5.13541e-06 0.200963 -0.83871
-0.892872 0.512452 0.96129
3.84981e-06 0.201123 0.95758
-0.854821 0.721206 0.0949999
-1.40929e-07 1.0866 -0.775
8.13961e-07 1.19529 0.965
0.820557 0.289689 0.059435
0.891273 0.498069 -0.806855
0.892875 0.512454 0.96129
0.854826 0.721222 0.0949999
-0.878726 0.487388 -1.69093
0.878729 0.487401 -1.69093
-8.2427e-07 0.206419 -1.73686
-7.04643e-08 0.790407 -1.645
1.74344e-06 0.476727 -2.55736
-0.893644 0.505253 0.0772175
0.893658 0.505262 0.0772175
-6.428e-07 0.201044 0.059435
3.36516e-07 1.21174 0.0949999
-0.893844 0.518558 1.84536
0.893861 0.518558 1.84536
1.92491e-06 0.248526 1.85573
4.06981e-07 0.836857 1.835
0 0.524663 2.5782
-0.870033 0.380861 -2.64717
-0.407741 0.251443 -2.66856
-0.858133 0.243978 -2.18593
-0.798136 0.424831 2.74479
-0.3975 0.372802 2.70607
-0.82274 0.295634 2.3048
-0.84035 0.572583 -2.53273
-0.4325 0.679816 -2.52637
-0.867705 0.681639 -2.08
-0.800585 0.624495 2.7228
-0.3975 0.588847 2.56952
-0.826251 0.745087 2.27
0.407748 0.251494 -2.66851
0.869711 0.380866 -2.64684
0.858119 0.243999 -2.18593
0.3975 0.372801 2.70607
0.791738 0.424831 2.73839
0.82276 0.295614 2.3048
0.4325 0.679821 -2.52636
0.84018 0.572599 -2.53256
0.867704 0.681659 -2.08
0.3975 0.588874 2.56955
0.781495 0.624495 2.70371
0.826243 0.74508 2.27
-0.818656 0.286708 -1.28778
-0.81954 0.289076 -0.389638
-0.870049 0.385424 -0.822783
-0.430641 0.202487 -0.83871
-0.86001 0.255112 1.40665
-0.822348 0.289521 0.508508
-0.871871 0.394545 0.959435
-0.432993 0.202741 0.95758
-0.86683 0.701745 -1.21
-0.88854 0.609002 -0.790928
-0.862633 0.718528 -0.34
-0.497873 1.0301 -0.775
-0.842243 0.740098 1.4
-0.888134 0.632479 0.963145
-0.850627 0.727502 0.53
-0.529323 1.17653 0.965
0.818656 0.286713 -1.28778
0.430635 0.202486 -0.83871
0.819527 0.289093 -0.389638
0.870052 0.385433 -0.822783
0.859278 0.255845 1.40665
0.433 0.20274 0.95758
0.822361 0.289511 0.508508
0.871877 0.394543 0.959435
0.866864 0.701795 -1.21
0.497864 1.03009 -0.775
0.888541 0.609018 -0.790928
0.860756 0.716663 -0.34
0.842231 0.740092 1.4
0.529321 1.17653 0.965
0.888158 0.632495 0.963145
0.850624 0.727509 0.53
-0.877116 0.482055 -2.1159
-0.403055 0.476725 -2.69568
1.3313e-06 0.222263 -2.20839
2.61515e-06 0.358404 -2.73045
-0.878213 0.36566 -1.71389
-0.429903 0.207912 -1.73686
-0.886784 0.52161 2.2896
-0.399698 0.524663 2.5907
9.62453e-07 0.274935 2.28523
0 0.444398 2.58439
-0.892765 0.395517 1.85054
-0.422135 0.25054 1.85573
-3.52321e-08 0.772729 -2.11893
8.71718e-07 0.611517 -2.5562
-0.877942 0.589353 -1.66796
-0.433447 0.77742 -1.645
2.0349e-07 0.796148 2.20801
0 0.562507 2.59197
-0.883886 0.631207 1.84018
-0.417755 0.827255 1.835
0.877116 0.482067 -2.11581
0.402968 0.47673 -2.69254
0.878214 0.365678 -1.71389
0.429894 0.207917 -1.73686
0.887092 0.521611 2.28146
0.391559 0.524663 2.59107
0.892772 0.395472 1.85054
0.422182 0.250535 1.85573
0.877941 0.589386 -1.66796
0.433464 0.77742 -1.645
0.883928 0.63121 1.84018
0.417756 0.827255 1.835
-0.871677 0.390177 0.0683262
-0.43166 0.20261 0.059435
-0.887864 0.492721 -1.24889
-0.892901 0.501654 -0.364819
-2.97984e-06 0.200921 -1.28778
-2.88911e-06 0.201003 -0.389638
-0.893127 0.508853 0.519254
-0.894724 0.515505 1.40333
1.60351e-06 0.201086 0.508508
2.88736e-06 0.221648 1.40665
-0.88912 0.620673 0.0861087
-0.540503 1.19266 0.0949999
-1.05696e-07 0.808507 -1.21
9.77939e-08 1.20678 -0.34
5.75239e-07 1.20659 0.53
6.10471e-07 1.03819 1.4
0.871687 0.390186 0.0683262
0.431656 0.20261 0.059435
0.887878 0.492735 -1.24889
0.892902 0.501665 -0.364819
0.893132 0.508858 0.519254
0.894724 0.515506 1.40333
0.889121 0.620681 0.0861087
0.540502 1.19266 0.0949999
-0.878807 0.373261 -2.15091
-0.867222 0.379198 -1.26834
-0.888306 0.596364 -1.22945
-0.876574 0.580968 -2.09795
0.87879 0.373272 -2.15087
0.876574 0.580993 -2.0979
0.888311 0.596387 -1.22945
0.867235 0.379214 -1.26834
-0.418822 0.225728 -2.19716
0.418821 0.224735 -2.19716
0.419837 0.200934 -1.28778
-0.419846 0.200934 -1.28778
-0.432974 0.760046 -2.09946
-0.432546 0.794437 -1.21
0.432554 0.794436 -1.21
0.432982 0.760047 -2.09946
-0.405398 0.369633 -2.71404
-0.417777 0.59205 -2.5362
0.417734 0.592058 -2.53788
0.405358 0.369635 -2.71444
-0.871078 0.387693 -0.377228
-0.871576 0.39246 0.513881
-0.88869 0.626608 0.524627
-0.889502 0.615174 -0.35241
0.871086 0.387701 -0.377228
0.889251 0.61506 -0.35241
0.888706 0.626622 0.524627
0.871582 0.392464 0.513881
-0.431151 0.202549 -0.389638
0.431146 0.202548 -0.389638
0.432328 0.202675 0.508508
-0.432327 0.202675 0.508508
-0.555903 1.18481 -0.34
-0.536357 1.18748 0.53
0.536356 1.18748 0.53
0.5559 1.18481 -0.34
-0.892651 0.398534 1.40499
-0.871957 0.410174 2.2972
-0.873018 0.627851 2.2798
-0.886757 0.627279 1.40166
0.892657 0.398511 1.40499
0.886754 0.627284 1.40166
0.873161 0.627852 2.27573
0.872074 0.410152 2.29313
-0.416777 0.223144 1.40665
0.416805 0.223144 1.40665
0.409841 0.275261 2.29501
-0.409817 0.27527 2.29501
-0.420599 1.00788 1.4
-0.407627 0.780433 2.23901
0.407628 0.780435 2.23901
0.4206 1.00791 1.4
-0.398599 0.434615 2.71234
0.39453 0.434615 2.71262
0.39453 0.593501 2.56765
-0.398599 0.593501 2.56747
-0.841682 0.33293 -2.64001
-0.611613 0.268908 -2.65109
-0.825589 0.275709 -2.41046
-0.797063 0.374916 2.74982
-0.59625 0.382288 2.69658
-0.814366 0.30482 2.52933
-0.85542 0.620513 -2.52661
-0.64875 0.679044 -2.5256
-0.868307 0.676996 -2.2975
-0.800753 0.67441 2.71686
-0.59625 0.581435 2.56211
-0.818754 0.742835 2.4875
0.61162 0.268911 -2.65109
0.840364 0.332933 -2.63868
0.82554 0.275765 -2.41046
0.59625 0.382283 2.69659
0.783302 0.374916 2.73606
0.814384 0.304803 2.52933
0.64875 0.67904 -2.52558
0.855521 0.620533 -2.52671
0.868312 0.677022 -2.2975
0.59625 0.581462 2.56214
0.783432 0.67441 2.69954
0.818714 0.742795 2.4875
-0.819392 0.286785 -1.06325
-0.819547 0.288256 -0.614174
-0.847293 0.335179 -0.830746
-0.645956 0.203254 -0.83871
-0.861744 0.252564 1.18212
-0.822608 0.290074 0.733044
-0.849968 0.341293 0.958508
-0.649522 0.203489 0.95758
-0.865438 0.705598 -0.9925
-0.880286 0.661034 -0.782964
-0.861245 0.711895 -0.5575
-0.728216 0.964669 -0.775
-0.84453 0.73714 1.1825
-0.875819 0.68752 0.964073
-0.849037 0.731158 0.7475
-0.709261 0.997704 0.965
0.819394 0.286788 -1.06325
0.645952 0.203254 -0.83871
0.819537 0.28827 -0.614174
0.847295 0.335189 -0.830746
0.861761 0.252549 1.18212
0.649527 0.203489 0.95758
0.822607 0.290078 0.733044
0.849976 0.341289 0.958508
0.865422 0.705597 -0.9925
0.72838 0.965008 -0.775
0.880291 0.661051 -0.782964
0.861244 0.711908 -0.5575
0.844532 0.737149 1.1825
0.709267 0.99772 0.965
0.875831 0.687532 0.964073
[...]
POINT_DATA 3682
SCALARS point_scalars float 1
LOOKUP_TABLE default
-74.6179
-37.6788
-74.6324
-32.2502
-74.7909
-36.3135
-74.6087
-34.472
-29.8615
-22.2864
-44.716
-39.3934
-29.8356
-22.272
-44.8427
-39.409
-44.8312
-119.005
-30.2775
-25.3385
-39.4578
-38.2142
-36.1402
25.157
-127.487
-31.9258
-35.1469
-38.0369
-36.6614
-33.3295
25.157
-122.656
-37.7339
-35.9835
-37.2729
-31.8539
-31.8654
-69.0229
-104.664
-83.1996
-42.5554
-32.9156
-31.7985
-31.7985
169.229
-171.816
-29.4749
-33.1024
-36.5608
-33.3295
-33.3295
168.584
-33.3295
-33.3295
174.706
-31.8541
-31.8654
160.48
-109.413
-89.1247
-47.345
-31.6902
-31.7985
-31.7985
155.887
-169.914
-29.434
-33.0874
-35.1526
-32.6554
-32.6554
150.308
-32.6554
-32.6554
174.546
-30.6864
-30.6864
160.512
-109.286
-89.3773
-47.2587
-30.9945
-30.5492
-30.5492
-44.8551
-118.939
-30.2838
-25.3739
-40.7225
-34.3211
-34.3211
25.118
-127.22
-31.9397
-35.1585
-38.9692
-34.3211
-34.3211
25.118
-122.615
-37.7944
-35.9846
-38.7628
-34.3211
-34.3211
-68.9748
-104.657
-82.932
-42.8401
-33.554
-34.5012
-32.9056
-31.6868
-137.125
-34.8072
-32.1119
-27.9033
-37.1012
-140.641
-26.4212
-25.7183
-36.9876
-34.315
-34.7071
-30.928
-37.1723
-26.4106
-36.819
-30.7373
-33.4271
-32.273
-32.8249
-34.4617
-39.9508
24.5688
-50.3317
-30.7138
-33.4476
-32.8295
-39.9683
-30.5922
-30.5972
-43.1733
-13.4709
181.249
-34.1375
-34.1271
-30.6866
-61.862
-33.3581
-33.4089
-33.4581
-35.8479
-25.1492
-34.1604
-70.3413
-58.6488
-33.8025
-29.7637
-31.9951
-29.9156
-62.2109
-47.7381
-31.8476
-27.4544
-34.3
-70.6215
-34.2573
-58.6014
-29.6295
-33.0963
-32.2002
-77.5994
-31.1032
-47.7096
-27.165
-31.4663
-34.3608
-28.0072
-30.9548
-31.0238
-31.9668
-33.6055
-30.3787
-26.1283
-34.3893
-24.7596
-37.5233
-44.0275
11.74
-41.5089
-35.8718
-37.2181
-49.2706
-28.0807
-31.9666
-30.9454
-31.0315
-33.495
-34.4373
-30.3711
-26.1451
-24.7619
11.8839
-37.571
-43.9313
-41.5114
-49.2744
-35.8754
-37.2613
-53.1201
171.949
-64.7865
175.169
-30.8505
-42.5456
-32.1821
-27.4404
-32.5517
-25.5799
-35.974
-33.3506
-47.7695
184.631
-29.6196
-18.3045
-31.3334
-25.1009
-34.1256
-35.8959
-53.0949
171.057
-30.836
-42.4881
-32.3829
-27.1176
-36.0444
-33.3619
-29.6165
-18.2537
-34.1641
-35.8966
-32.2444
-30.5895
-27.8575
-35.3264
-36.525
-30.7211
-32.9186
-35.2726
-31.8061
-34.812
-36.5618
-54.5636
14.3444
-86.0797
-52.202
-40.1896
-32.2363
-30.5881
-27.8867
-35.3079
-32.9204
-35.277
-36.5578
-54.5761
-54.6275
-27.4573
-27.7023
-52.2828
-54.603
-52.2681
-27.7196
-27.5036
-65.2903
-65.2824
-36.1602
-36.1515
-51.4144
3.282
3.35595
-51.3546
182.185
156.62
151.584
182.128
-32.7584
-31.2868
-34.8088
-38.9385
-32.7467
-38.9091
-34.817
-31.2883
-30.6641
-30.6617
-31.5154
-31.5126
-75.0809
-47.5368
-47.5352
-75.0993
-34.7119
-31.7299
-32.3502
-36.5942
-34.7106
-36.5942
-32.5275
-31.9444
-34.486
-34.5232
-32.9865
-33.0008
-41.164
-30.956
-30.9387
-41.158
-27.4458
-27.1048
-27.1724
-27.4744
-73.6222
-47.5615
-65.2326
-35.4652
-30.9689
-35.0377
-53.6985
-50.2295
-75.7897
-31.7985
-28.5472
-33.6329
-47.5823
-74.1468
-65.1797
-30.7587
-33.5802
-35.6974
-50.3627
-54.4075
-75.794
-28.3597
-32.0866
-33.9135
-27.8927
-30.5937
-30.2053
-31.0111
-38.7586
-29.3963
-21.2884
-35.9907
-34.6125
-40.6441
-45.2193
-74.6282
-40.5951
-37.8601
-38.8729
-44.539
-27.8053
-31.0059
-30.5888
-30.2086
-38.7791
-36.0397
-29.3967
-21.3133
-34.6552
-79.2218
-40.7128
-45.266
-40.5889
-44.5591
-37.8673
-38.8385
-39.1848
-39.4568
-88.4627
150.785
-31.7344
-30.6277
-89.7104
79.1716
-39.143
-42.6461
-31.8109
-40.2826
-32.3952
-31.7694
-36.6219
-28.4367
-28.6892
-28.5299
-31.946
-26.035
-30.3241
-33.8312
-38.0399
-33.4627
-74.6395
-74.9453
-78.5724
125.279
-34.4628
-22.8984
-28.583
-21.3308
-26.4801
-26.2658
-29.5245
-25.2675
-36.2962
-39.0071
-35.1375
-36.6179
-39.3761
-40.3662
-88.396
150.826
-39.1063
-42.6169
-31.7669
-40.3218
-31.1853
-30.3904
-37.0399
-28.1993
-30.4277
-33.8943
-38.1171
-33.4843
-34.4474
-22.8964
-28.5667
-21.2802
-35.9534
-39.0041
-35.1625
-36.6219
-30.8779
-30.6073
-31.3915
-30.4085
-32.0636
-35.1788
-30.248
-35.0877
-32.1795
-32.1825
-33.9749
-31.2496
-30.2204
-34.5687
-32.5119
-35.8728
-34.3666
-34.3676
-32.8872
-35.7524
-42.3126
-38.5872
-38.3321
-44.5598
23.6331
23.7139
36.5777
-99.679
-50.2247
-50.2234
-51.0404
-50.1217
-30.8592
-30.5967
-31.3847
-30.406
-32.0768
-35.211
-30.2672
-35.0952
-30.2302
-34.5702
-32.511
-35.8744
-42.2948
-38.6107
-38.3383
-46.4273
-38.193
-30.7428
-30.1565
-30.0279
-38.1806
-30.7429
-30.1606
-30.0533
-51.1857
-43.518
-43.5159
-40.0655
-29.5175
-15.2953
-15.261
0.53661
176.052
194.678
182.504
176.063
-33.1507
-34.8944
-33.4561
-35.4201
-33.141
-34.8681
-33.454
-35.4125
-30.6724
-30.5602
-31.0955
-30.6727
-60.4538
-70.637
-55.5656
-60.4573
-31.8429
-34.4114
-33.4964
-34.527
-31.9683
-34.4692
-33.5419
-34.5311
-32.9004
-33.4091
-33.4163
-33.9949
-33.6463
-35.8663
-35.8659
-37.4589
-26.1379
-25.4078
-25.1005
-25.8916
-73.7846
182.373
-99.6221
105.983
-56.7583
-60.2461
-36.5131
-29.0451
-32.9662
-28.4267
-31.5305
-33.2782
-87.261
152.298
-89.4705
81.683
-50.9979
-50.8116
-34.8878
-28.7256
-29.3183
-27.4647
-32.6825
-31.9802
-99.4698
105.446
-73.8304
182.354
-56.7626
-60.1152
-32.8803
-28.1421
-37.0963
-28.805
-31.7594
-33.3582
-89.4476
109.992
-87.2406
152.376
-50.981
-50.7646
-29.2728
-27.1684
-35.1471
-28.4715
-32.8652
-31.9688
-27.3118
-35.1035
-31.6764
-30.5664
-28.8866
-32.3387
-33.6169
-31.0761
-34.1302
-34.1629
-30.7519
-30.9435
-30.2999
-36.7094
-32.5905
-34.9404
-27.6772
-6.42535
-32.4503
-39.275
-41.2894
-55.7582
9.25056
-95.4457
-38.6399
-44.1943
-35.0861
-36.9383
-35.9559
-40.6355
-48.5114
-52.1748
-27.3737
-35.1212
-33.62
-31.074
-31.6674
-30.5614
-28.8969
-32.3387
-34.0809
-34.2055
-32.5993
-34.8949
-30.7548
-30.9455
-30.3037
-36.7148
-27.6901
-6.35258
9.3677
-95.4663
-32.4854
-39.302
-41.2716
-55.7956
-38.6338
-44.1893
-48.5158
-52.1763
-35.0772
-36.9394
-36.0321
-40.6423
-53.5905
-52.8116
205.254
159.409
-66.55
-66.5093
136.043
140.531
-38.3906
-35.7325
-50.7085
-38.8324
-31.9547
-32.5194
-27.4976
-27.3335
-32.6558
-32.6736
-25.767
-25.4283
-34.4078
-30.2429
-33.8684
-32.8834
-48.417
-48.3791
176.926
176.807
-27.1521
-37.0878
-32.1192
-6.41008
-31.0818
-31.0769
-25.9533
-26.2174
-32.8587
-35.5362
-38.1788
-33.3865
-53.5611
-52.7929
160.953
205.199
-38.3786
-35.8176
-50.6325
-38.8312
-32.7204
-32.1315
-27.2652
-27.0186
-34.4426
-30.3664
-33.9069
-32.8936
-37.0777
-27.1876
-6.35064
-32.0848
-35.5522
-32.9679
-33.3843
-38.1783
-32.6373
-31.7917
-30.5212
-30.9075
-27.7003
-27.6614
-33.9457
-37.0702
-36.4862
-36.4771
-30.7136
-30.7138
-32.0731
-33.968
-34.9849
-35.878
-31.7462
-31.7441
-34.7039
-34.7142
-35.4651
-38.0489
-60.7999
-49.4448
11.1846
11.2243
-85.6602
-85.6697
-51.2575
-51.2581
-40.3894
-40.3894
-32.6222
-31.7894
-30.519
-30.9076
-27.6832
-27.7388
-33.9318
-37.0505
-33.9714
-32.073
-34.9877
-35.8811
-38.0011
-35.4684
-49.4482
-60.816
-63.9227
-38.6477
-38.4379
-83.236
-28.4748
-29.5426
-32.2491
-39.3876
-34.4925
-26.4824
-28.31
-31.0721
-82.0094
-89.0642
-37.8447
-36.2054
-63.9619
-83.2552
-38.4253
-38.6385
-82.0006
-36.1949
-37.8338
-89.0356
-34.5452
-31.0969
-28.341
-26.5007
-28.4801
-39.5389
-32.2823
-29.5581
-90.2453
-99.2065
-51.8262
-47.2958
-90.2371
-47.1676
-51.8131
-99.1388
-32.2375
-33.9569
-39.9603
-35.5124
-32.2415
-35.4801
-39.9535
-33.9507
-88.3611
-33.3905
-30.1373
-78.8669
-8.46006
26.6712
-1.5448
-13.2358
-8.19372
-13.1924
-1.50759
26.7216
-88.3612
-78.8024
-30.105
-33.3665
113.028
186.366
200.491
82.652
111.444
146.54
174.753
159.546
111.157
159.635
174.983
145.842
112.989
77.3623
201.349
186.521
-31.2857
-31.6436
-33.7098
-33.5736
-29.6404
-31.3207
-32.5805
-31.1394
-37.5606
-37.0095
-34.5453
-33.8652
-42.0396
-36.9879
-36.4445
-40.1104
-31.2837
-33.5768
-33.6899
-31.6322
-42.07
-40.0296
-36.4087
-37.0032
-37.5027
-33.8575
-34.5458
-37.0126
-29.6464
-31.1382
-32.5777
-31.3221
-30.8408
-31.2305
-30.5697
-30.424
-30.8359
-30.4212
-30.5697
-31.2317
-31.794
-32.8057
-31.0533
-30.5792
-31.7852
-30.5799
-31.0523
-32.8022
-65.7226
-49.6339
-69.1038
-95.6671
-43.7309
-50.4088
-54.2854
-43.0025
-43.7403
-42.9787
-54.2871
-50.4107
-65.7604
-95.7186
-69.1099
-49.653
-38.7527
-34.2914
-34.4202
-36.0675
-35.6168
-36.9
-30.9444
-29.6554
-33.8517
-33.2384
-32.5449
-35.9315
-38.9523
-36.2773
-34.9513
-37.1987
-38.7773
-36.0705
-34.4509
-34.3451
-38.9526
-37.2088
-34.9718
-36.2772
-34.1512
-36.3486
-32.6603
-33.3163
-36.4594
-29.7722
-31.0724
-37.4148
-33.4622
-35.6263
-33.9271
-33.7159
-33.3903
-33.755
-33.9389
-35.628
-33.9123
-32.1602
-32.8781
-32.858
-33.9685
-32.8171
-32.878
-32.2246
-46.3991
-39.3389
-37.6947
-50.6603
-30.5468
-29.3308
-33.4138
-34.1908
-30.5336
-34.1913
-33.415
-29.325
-46.3835
-50.6571
-37.6951
-39.3369
-30.6725
-26.8843
-26.334
-28.2027
-30.4452
-28.0123
-26.1297
-26.6261
-28.6539
-26.0928
-25.8148
-28.2532
-28.8681
-28.5073
-26.065
-26.3253
-94.4203
-43.8605
-95.5924
-36.6006
-30.6531
-35.9876
-68.2941
-36.0448
-112.912
-32.1754
-28.592
-30.4167
-43.6089
-95.3671
-95.8582
-30.628
-33.8618
-39.1852
-36.264
-68.4891
-112.901
-28.1983
-33.2127
-31.0629
-29.0159
-30.2321
-29.9513
-29.0959
-25.5937
-27.889
-19.2955
-33.9746
-42.2952
-42.5488
-45.211
-59.9463
-39.9185
-38.9227
-38.7914
-41.5919
-28.9833
-29.1937
-30.2323
-29.9461
-25.6043
-33.9644
-27.8689
-19.3198
-42.4391
-60.1739
-42.6404
-45.2666
-39.9293
-41.6198
-38.9342
-38.81
-69.5108
-40.8027
-119.677
128.342
-116.846
-116.586
-123.276
33.0563
-38.0984
-35.8198
-32.8811
-38.5457
-32.6293
-31.694
-39.3839
-28.3978
-28.1027
-27.9917
-31.341
-26.6931
-32.3088
-36.533
-38.2316
-33.7941
-113.709
-113.711
-120.54
48.4958
-29.8196
-24.2833
-27.4768
-23.0596
-25.9108
-25.7662
-28.134
-25.4979
-35.4944
-37.1933
-35.7888
-37.8447
-69.5947
-43.3162
-119.697
128.495
-38.0451
-35.4254
-32.8142
-38.4889
-30.8421
-31.1717
-40.8784
-28.1506
-32.3831
-36.6297
-38.3144
-33.829
-29.8033
-24.2801
-27.466
-23.0285
-35.503
-37.3165
-35.8279
-37.8574
-30.7671
-30.6741
-30.9594
-30.1843
-32.732
-34.2459
-31.9634
-34.5154
-32.2141
-32.2162
-33.0271
-31.6894
-31.5284
-33.6936
-32.3761
-35.083
-34.4354
-34.4361
-33.5922
-35.6766
-40.9528
-39.2167
-39.1518
-42.7673
24.8527
24.8286
45.9157
-47.6683
-50.2561
-50.2556
-50.6443
-50.1309
-30.7313
-30.6622
-30.9506
-30.1817
-32.7487
-34.2718
-31.9851
-34.5305
-31.5356
-33.6966
-32.3782
-35.0855
-40.9674
-39.2342
-39.1636
-42.7819
-33.7279
-30.8479
-30.4623
-29.9079
-33.7204
-30.8508
-30.4677
-29.9392
-46.9711
-43.2919
-43.2932
-41.7211
-21.5975
-14.2992
-14.2802
-6.33358
180.37
194.863
183.608
180.335
-33.6202
-34.546
-33.7726
-34.756
-33.61
-34.5283
-33.7673
-34.747
-30.6825
-30.5884
-30.8563
-30.6829
-61.5344
-65.9722
-58.2991
-61.5365
-32.197
-33.8235
-33.4401
-34.3086
-32.2744
-33.8793
-33.4885
-34.3478
-33.1916
-33.4425
-33.4462
-33.6836
-34.8077
-35.8638
-35.864
-37.0581
-25.3225
-25.2377
-25.126
-25.193
-53.9625
-24.6283
-102.74
150.913
-66.3572
25.6231
-151.165
71.3026
-56.643
-46.8209
-59.2005
-58.1506
-34.5513
-32.8295
-39.7993
-29.4175
-30.399
-29.1646
-33.0413
-29.0486
-33.2901
-30.8296
-31.52
-33.2268
-47.6006
-59.5253
-126.684
127.515
-57.3012
-51.7547
-121.282
23.8616
-58.3048
-39.9424
-49.2318
-49.5445
-31.8214
-31.8447
-37.5357
-29.1354
-27.9735
-26.9573
-28.4999
-27.4599
-32.2001
-33.8137
-33.7968
-33.3288
-66.3952
24.4158
-150.898
71.5884
-53.5906
-24.4041
-102.592
150.714
-56.5866
-46.7993
-59.2047
-58.0447
-30.2157
-28.849
-32.8847
-28.8134
-33.4699
-31.8437
-39.9652
-29.3502
-33.5514
-30.9647
-31.7384
-33.3841
-58.1989
-54.1425
-120.452
28.27
-48.7239
-59.9319
-126.643
127.914
-58.2834
-39.9312
-49.2092
-49.5208
-27.764
-26.7171
-28.4005
-27.1674
-30.9502
-31.2586
-38.3712
-28.8315
-32.3002
-33.8497
-33.9269
-33.3391
-27.6464
-34.4758
-27.5483
-32.2542
-30.85
-30.9769
-31.209
-30.3186
-30.5826
-31.4642
-29.9899
-31.7929
-31.7162
-32.1247
-32.7976
-31.414
-33.9132
-33.2269
-33.6861
-34.0407
-30.0478
-30.4703
-30.5026
-30.2821
-23.8733
-28.3163
-28.9754
-34.3094
-35.0836
-34.2681
-33.3701
-34.9483
-29.2485
-22.4806
-26.7444
-13.5559
-38.8639
-36.2416
-35.4102
-38.7208
-44.2871
-43.6329
-42.4042
-49.2958
-11.1171
20.6442
17.474
-31.65
-40.7023
-40.0405
-40.395
-45.7917
-36.8163
-35.2104
-35.309
-36.6616
-38.3115
-37.9163
-36.6332
-38.5225
-46.789
-50.0832
-48.8997
-50.7983
-27.6742
-34.5783
-27.6159
-32.3017
-31.7136
-32.1267
-32.7998
-31.4124
-30.8408
-30.9671
-31.2011
-30.2875
-30.5883
-31.4741
-29.999
-31.7967
-34.0474
-33.1258
-33.6058
-34.0127
-35.2255
-34.2694
-33.3857
-34.8897
-30.0472
-30.4493
-30.5049
-30.2867
-23.8938
-28.3292
-28.9837
-34.3145
-29.2265
-22.4731
-26.7502
-13.5097
-11.1574
20.7263
17.6293
-31.9279
-38.92
-36.2811
-35.4624
-38.7553
-44.4961
-43.3221
-42.4375
-49.1939
-40.6646
-40.0383
-40.4171
-45.808
-46.799
-50.0819
-48.9077
-50.7925
-36.8216
-35.2127
-35.3091
-36.67
-38.2713
-37.9389
-36.6949
-38.5509
-66.0548
-44.5679
-53.572
-53.0666
154.813
165.396
192.858
156.615
-74.0273
-57.1198
-65.2272
-65.2026
153.272
194.493
177.941
178.14
-31.1548
-30.8791
-34.3286
-31.7934
-41.5585
-43.4095
-46.1037
-40.6422
-33.655
-31.7235
-32.0176
-32.3244
-27.9064
-26.8323
-27.4867
-27.3952
-32.4615
-32.7631
-32.5791
-32.5894
-25.3434
-25.5244
-25.6701
-25.5992
-36.8697
-35.0873
-35.0685
-31.7473
-33.3553
-33.3766
-33.5921
-33.1431
-60.3359
-37.8938
-47.7378
-47.7189
189.65
178.191
183.541
183.246
-29.2838
-29.8418
-27.8182
-32.9242
-19.9488
-16.7534
-24.9195
-12.566
-30.2579
-32.4381
-31.2188
-31.2177
-25.1095
-25.0892
-25.3634
-25.4995
-34.6148
-33.7849
-33.4148
-34.8513
-36.0954
-35.8577
-37.1923
-34.5611
-66.0301
-44.5518
-53.5469
-53.0427
154.865
165.893
157.409
193.248
-31.1324
-30.8724
-34.3122
-31.814
-41.6603
-43.3874
-46.2158
-40.6365
-33.8656
-31.8748
-32.5085
-32.1731
-27.6516
-26.5363
-27.1945
-27.081
-36.9457
-35.1501
-35.1225
-31.8591
-33.3677
-33.3875
-33.605
-33.1572
-29.2738
-29.8431
-32.9181
-27.8421
-19.8956
-16.7069
-12.512
-24.8725
-34.6468
-33.8266
-34.8759
-33.48
-36.0968
-35.8575
-34.562
-37.1929
-31.85
-32.6557
-32.4657
-32.0207
-30.5108
-30.6425
-30.528
-30.7186
-28.7956
-28.6896
-27.8121
-27.806
-35.3269
-35.2025
-34.6162
-36.1791
-35.1332
-38.1359
-36.6158
-36.6098
-30.9325
-30.6023
-30.7235
-30.724
-32.7062
-33.1421
-32.4921
-33.4442
-35.6915
-34.852
-35.1148
-35.5748
-32.2969
-31.4104
-31.791
-31.7899
-35.1019
-34.4904
-34.7683
-34.7733
-37.366
-35.9469
-36.0444
-37.22
-50.9221
-58.4381
-58.7176
-51.5113
19.8807
7.36775
13.4585
13.4861
-101.393
-77.1371
-86.3165
-86.3234
-51.4367
-53.5738
-51.974
-51.9739
-45.4623
-38.1028
-40.2186
-40.219
-31.8425
-32.6472
-32.4541
-32.0155
-30.5087
-30.6422
-30.5263
-30.7179
-28.8157
-28.7111
-27.8319
-27.8462
-35.3237
-35.1735
-34.5997
-36.1576
-32.705
-33.1426
-33.4466
-32.4931
-35.6929
-34.8653
-35.1186
-35.5785
-37.3661
-35.9405
-37.2066
-36.0447
-50.9425
-58.4447
-51.5156
-58.7398
-69.6777
-55.4729
-53.9913
-44.163
-27.3212
-27.915
-30.5423
-27.6403
-28.0121
-29.6973
-26.9175
-27.5893
-64.597
-51.6961
-52.6216
-43.4771
-69.663
-55.4621
-53.961
-44.153
-64.5732
-51.6812
-52.6054
-43.4654
-28.0295
-29.7159
-26.9335
-27.6072
-27.3768
-27.9339
-30.6355
-27.6829
-77.3516
-62.7249
-66.7898
-57.0694
-77.1785
-62.6437
-66.7549
-57.0478
-35.8713
-34.7783
-37.6893
-36.359
-35.8606
-34.7726
-37.6823
-36.3495
-66.3548
-51.8549
-49.8423
-40.5216
-1.12506
6.43253
-1.25429
7.40326
-1.0472
6.52133
-1.18825
7.46183
-66.3395
-51.7642
-49.792
-40.4874
177.759
162.918
196.101
130.09
149.536
140.595
159.004
165.177
137.368
149.365
166.362
158.204
162.604
177.731
128.756
196.106
-32.2193
-32.6094
-32.7187
-33.2864
-31.0151
-30.8944
-31.5573
-31.6362
-34.9155
-35.3025
-34.3765
-35.0748
-39.1975
-40.0257
-37.961
-38.627
-32.209
-32.6038
-32.7032
-33.2738
-39.2194
-39.9818
-37.9391
-38.5817
-34.9118
-35.3413
-34.3817
-35.0822
-31.0171
-30.8972
-31.5568
-31.6366
-30.6066
-30.8299
-30.5673
-30.7053
-30.8276
-30.6026
-30.7045
-30.5649
-31.9859
-31.2917
-31.659
-31.169
-31.2892
-31.9809
-31.1678
-31.6563
-64.6287
-86.1117
-66.0769
-81.9026
-42.8833
-48.4941
-48.1339
-49.9377
-48.498
-42.8728
-49.939
-48.1381
-86.1562
-64.6407
-81.927
-66.0953
-34.4539
-35.5237
-34.3295
-34.852
-33.6106
-31.6158
-31.8703
-30.7216
-33.086
-32.2642
-32.4461
-32.415
-37.461
-36.861
-36.0491
-36.2269
-34.4348
-35.5262
-34.3432
-34.853
-37.4608
-36.8547
-36.0561
-36.2285
-33.3105
-32.4237
-32.6302
-32.5533
-33.9637
-31.8429
-32.072
-30.8822
-34.224
-34.6438
-34.302
-34.6217
-34.2985
-34.6589
-34.3385
-34.6405
-33.261
-33.1607
-32.7993
-32.9437
-33.3043
-33.1525
-32.819
-32.9404
-41.904
-45.85
-39.0229
-40.6762
-30.1516
-31.2556
-30.9386
-32.1745
-30.1178
-31.2327
-30.9302
-32.1677
-41.8904
-45.9343
-39.0215
-40.676
-28.2578
-27.8441
-27.2672
-26.7919
-27.5357
-28.0065
-26.4796
-26.8727
-27.1704
-27.7926
-26.6724
-27.0577
-28.0471
-27.4696
-27.419
-26.9309
-100.76
91.2624
-124.079
42.4417
-62.6223
-78.8384
-39.4404
-31.2047
-34.9196
-30.8284
-34.9524
-34.7016
-119.085
111.695
-120.053
60.6697
-78.5613
-82.2469
-35.1098
-29.7173
-30.1359
-28.6998
-33.5773
-30.8934
-124.036
42.432
-100.017
91.7004
-62.6614
-79.4008
-34.7907
-30.6093
-40.7885
-31.0695
-35.7675
-34.7652
-120.097
60.4468
-119.072
111.411
-78.5575
-82.2516
-30.195
-28.5155
-37.5362
-29.6194
-33.9318
-30.9795
-28.3143
-29.5253
-30.8503
-30.5564
-29.3902
-30.7901
-31.2499
-31.0698
-39.4701
-34.2509
-29.3874
-30.4678
-27.9414
-27.9737
-32.782
-34.6527
-34.6868
-27.2443
-38.261
-41.8152
-43.6055
-52.8367
-20.0084
-75.9378
-39.7807
-42.842
-37.2387
-38.5137
-38.2522
-40.9936
-44.1644
-45.1316
-28.3119
-29.5074
-31.2472
-31.0642
-30.8476
-30.4733
-29.3946
-30.7912
-39.5084
-34.2215
-32.7978
-34.5836
-29.3932
-30.4781
-27.952
-27.9944
-34.7352
-27.08
-19.6063
-76.0585
-38.3446
-41.8543
-43.6457
-52.8778
-39.7775
-42.8638
-44.1768
-45.1447
-37.247
-38.5272
-38.2076
-41.0294
-110.787
142.372
-129.117
131.555
-86.9049
-88.7264
170.096
155.248
-158.57
24.4986
-157.946
24.5844
-91.8042
-91.7614
107.811
106.698
-38.4043
-44.6087
-40.5328
-34.6573
-35.3164
-32.6038
-43.5543
-38.0903
-39.4843
-28.2189
-39.1785
-28.703
-36.8449
-36.3599
-28.3966
-28.4641
-31.8246
-27.7809
-31.7086
-27.5663
-31.9644
-32.0003
-26.2539
-26.1068
-29.6859
-32.2535
-33.8541
-33.8695
-36.498
-31.9611
-33.9176
-33.0331
-117.649
49.3402
-117.601
48.7753
-78.3647
-78.3427
143.021
142.15
-35.4986
-33.5381
-24.6237
-17.3968
-27.3211
-32.2466
-26.8272
-16.3444
-27.9557
-26.4063
-28.1117
-26.1832
-29.3955
-29.3953
-25.562
-25.7023
-34.7136
-35.6185
-38.3225
-40.196
-34.1872
-36.2598
-37.9804
-35.3797
-110.731
142.55
-129.079
131.655
-86.8975
-88.711
155.274
170.211
-38.3889
-44.5049
-40.8659
-34.8857
-35.2927
-32.5707
-43.5001
-38.0729
-39.8507
-28.1087
-39.0163
-28.2673
-36.697
-37.346
-28.2202
-28.2205
-29.8009
-32.3201
-33.9058
-33.9411
-36.5575
-32.058
-33.9403
-33.0669
-35.4854
-33.5142
-24.6301
-17.3703
-32.2377
-27.3288
-16.2948
-26.7852
-34.7298
-35.6295
-38.3264
-40.1982
-36.277
-34.2334
-35.3833
-37.9834
-31.1511
-30.6011
-30.8106
-30.4276
-31.5381
-31.2864
-30.3824
-30.4595
-30.8382
-33.0111
-33.3383
-36.3968
-29.9025
-30.604
-34.3142
-36.0001
-32.9879
-31.655
-32.9925
-31.657
-33.9774
-33.9735
-31.2462
-31.2473
-30.7072
-34.7945
-33.9681
-35.7359
-31.8467
-33.1613
-35.9118
-36.0686
-33.518
-35.5811
-33.521
-35.5805
-32.8418
-32.8403
-35.7229
-35.7246
-41.388
-45.5824
-37.9651
-40.5229
-37.6615
-39.1021
-47.8952
-44.485
37.9915
-33.0695
37.9994
-32.6827
33.0775
33.0508
-101.254
-101.278
-50.254
-50.3036
-50.2536
-50.3028
-50.9023
-50.903
-50.1707
-50.1691
-31.1399
-30.6822
-30.808
-30.4305
-31.529
-31.2827
-30.3795
-30.4582
-30.8528
-33.0196
-33.3713
-36.4206
-30.6256
-29.9196
-34.3195
-36.0111
-30.7124
-34.7987
-33.9652
-35.7383
-33.1567
-31.8474
-35.914
-36.0696
-41.3427
-45.5978
-37.98
-40.5433
-39.0959
-37.6692
-44.3752
-47.8495
-38.404
-37.9979
-34.0387
-30.9573
-28.8861
-33.2433
-31.0294
-29.1248
-38.3916
-37.9858
-34.0279
-30.982
-33.2369
-28.9166
-29.1528
-31.0523
-51.4429
-51.4398
-47.3191
-41.747
-47.3167
-41.75
-40.0321
-40.0272
-29.5709
-29.5534
-22.5487
-8.28455
-8.24888
-22.5157
-0.0680794
-0.0473718
192.091
177.256
202.63
202.714