# vtk DataFile Version 2.0
tet_velo
ASCII
DATASET UNSTRUCTURED_GRID
POINTS 29498 float
-0.774305 0.385 -1.725
-0.765 0.535 1.84417
-0.787226 0.965 -1.605
-0.567367 1.625 1.665
0.774308 0.385 -1.725
0.765 0.535 1.84417
0.787226 0.965 -1.605
0.575 1.67357 1.605
-0.80413 0.402073 -0.535277
-0.854408 0.398694 0.654447
-0.74891 1.21997 -0.515
-0.686744 1.45109 0.575
0.804116 0.40209 -0.535277
0.85442 0.398683 0.654447
0.744478 1.22918 -0.535
0.675817 1.46746 0.535
-1.52807 -0.150819 -2.62279
-1.53961 -0.0417102 -1.71633
-1.55784 -0.0347043 -0.522089
-1.5731 -0.0694363 0.695736
-1.52462 0.0129541 1.89203
-1.50864 0.133952 2.80847
-1.51592 0.264892 3.70717
-1.53388 0.224263 -2.60324
-1.54266 0.360054 -1.70843
-1.55551 0.41293 -0.534018
-1.55892 0.427173 0.652109
-1.47598 0.537338 1.82849
-1.47896 0.660983 2.74141
-1.50193 0.787199 3.64244
-1.54007 0.907756 -2.53126
-1.5421 1.03413 -1.63036
-1.50776 1.24758 -0.524308
-1.43433 1.44174 0.577037
-1.33043 1.60506 1.68376
-1.40022 1.72675 2.59148
-1.46819 1.83865 3.5035
-1.54069 2.10251 -2.50348
-1.53766 2.26116 -1.61819
-1.51439 2.53979 -0.551764
-1.47176 2.84204 0.49282
-1.43787 3.08567 1.55817
-1.44753 3.23 2.44127
-1.47937 3.34715 3.34486
-0.757247 -0.134287 -2.63382
-0.766006 -0.0181371 -1.73107
-0.783377 -0.0349846 -0.526611
-0.818092 -0.0928239 0.701362
-0.789541 0.00103239 1.90636
-0.784499 0.13068 2.8136
-0.793379 0.2664 3.70508
-0.763436 0.230159 -2.60934
-0.777243 0.665778 2.74018
-0.791074 0.793504 3.63635
-0.771535 0.880128 -2.52211
-0.716259 1.747 2.57196
-0.772023 1.85448 3.48759
-0.782418 2.07874 -2.49672
-0.785401 2.23604 -1.61137
-0.776385 2.53026 -0.553333
-0.754892 2.85481 0.47837
-0.737034 3.10952 1.53536
-0.748342 3.25315 2.41835
-0.775111 3.36666 3.32473
0.791483 -0.132185 -2.63813
0.791219 -0.0170073 -1.73341
0.813425 -0.0336257 -0.529328
0.827218 -0.0908187 0.697887
0.760349 0.00460141 1.90121
0.699819 0.141244 2.79912
0.667954 0.280359 3.68552
0.785704 0.231783 -2.61271
0.665925 0.679827 2.72173
0.645542 0.809843 3.61392
0.779992 0.882131 -2.5263
0.602229 1.77578 2.53464
0.616775 1.87605 3.45812
0.741245 2.08434 -2.50809
0.728336 2.24268 -1.62498
0.703619 2.54025 -0.573531
0.670038 2.87043 0.449808
0.641599 3.1311 1.50158
0.631245 3.27533 2.38548
0.624956 3.38697 3.29483
1.56437 -0.145197 -2.63426
1.56516 -0.0368333 -1.72642
1.58499 -0.0281345 -0.535496
1.59512 -0.0585567 0.677047
1.5225 0.0300071 1.86774
1.45131 0.158089 2.77475
1.41063 0.29297 3.6673
1.55715 0.229347 -2.61377
1.5507 0.364676 -1.71825
1.56332 0.420419 -0.550198
1.57585 0.441608 0.626779
1.49033 0.561853 1.7957
1.4124 0.691556 2.7001
1.38221 0.8194 3.5975
1.54629 0.913837 -2.54395
1.53936 1.0408 -1.64462
1.50167 1.26286 -0.557708
1.43613 1.47164 0.519151
1.34134 1.66111 1.60803
1.32711 1.77556 2.52589
1.33707 1.8792 3.44708
1.50208 2.11431 -2.52728
1.48568 2.275 -1.6463
1.44983 2.5597 -0.591371
1.39905 2.8719 0.438833
1.35458 3.12556 1.49512
1.34012 3.27151 2.37896
1.33746 3.38608 3.28701
-0.82685 0.675 -1.71108
1.51992e-06 0.36206 -1.74794
-0.802457 0.380297 -1.13014
-0.708962 1.08 1.79736
0 0.492939 1.88623
-0.848264 0.428287 1.24931
0 1.04171 -1.68171
-0.765444 1.08986 -1.06
0.00381649 1.67036 1.65607
-0.651461 1.56245 1.12
0.826881 0.675 -1.71111
0.802477 0.38028 -1.13014
0.729891 1.10429 1.78448
0.84827 0.428281 1.24931
0.760681 1.09192 -1.07
0.641372 1.58648 1.07
-0.814679 0.414974 0.059585
-0.839371 0.811022 -0.525138
-7.40029e-06 0.350062 -0.535277
-0.831053 0.924892 0.614723
6.16222e-06 0.318642 0.654447
-0.710014 1.32772 0.03
-0.00221589 1.43698 -0.525
-0.00546352 1.76789 0.555
0.814682 0.414972 0.059585
0.839829 0.815637 -0.535138
0.83337 0.933069 0.594723
0.705561 1.34373 0
-0.893191 0.743011 -1.09507
-0.841973 0.867957 0.0447925
-0.842461 1.00245 1.18465
-2.94018e-06 0.324304 -1.13014
-6.19033e-07 0.357344 0.059585
3.08111e-06 0.343835 1.24931
7.59959e-07 0.675 -1.8775
0.00190824 1.09214 1.85123
-0.00110795 1.16967 -1.065
-0.0038397 1.73976 0.015
-0.000823516 1.76859 1.095
0.893146 0.745318 -1.10007
0.842172 0.874353 0.0297925
0.834898 1.01868 1.15965
-1.15848 0.372527 -1.71672
-0.770156 0.183431 -1.72804
-0.76887 0.307579 -2.16717
-1.12049 0.536169 1.83633
-0.77727 0.268016 1.87526
-0.771121 0.600389 2.29218
-1.16466 0.999566 -1.61768
-0.77938 0.922564 -2.06355
-0.786313 1.60052 -1.60818
-0.948896 1.61503 1.67438
-0.641813 1.686 2.11848
-0.652201 2.36726 1.60018
0.782764 0.183996 -1.7292
0.780006 0.308391 -2.16885
1.1625 0.374838 -1.72162
0.762675 0.269801 1.87269
0.715462 0.607413 2.28295
1.12767 0.548427 1.81994
0.783609 0.923565 -2.06565
0.757781 1.60384 -1.61499
1.1633 1.0029 -1.62481
0.588615 1.72467 2.06982
0.608299 2.40233 1.55329
0.958171 1.66734 1.60652
-1.17982 0.407501 -0.534647
-0.793754 0.183544 -0.530944
-1.20666 0.412933 0.653278
-0.83625 0.152935 0.677904
-1.12833 1.23378 -0.519654
-0.762648 1.87511 -0.534167
-1.06053 1.44642 0.576019
-0.720818 2.15295 0.526685
0.80877 0.184232 -0.532302
1.18372 0.411254 -0.542738
0.840819 0.153932 0.676167
1.21514 0.420146 0.640613
0.724049 1.88472 -0.554266
1.12308 1.24602 -0.546354
0.672927 2.16894 0.492404
1.05597 1.46955 0.527076
-1.53384 -0.0962646 -2.16956
-1.53098 0.0367221 -2.61301
-1.14266 -0.142553 -2.6283
-1.54873 -0.0382072 -1.11921
-1.54113 0.159172 -1.71238
-1.15281 -0.0299236 -1.7237
-1.56547 -0.0520703 0.0868234
-1.55668 0.189113 -0.528054
-1.17061 -0.0348444 -0.52435
-1.54886 -0.0282411 1.29388
-1.56601 0.178868 0.673923
-1.1956 -0.0811301 0.698549
-1.51663 0.0734533 2.35025
-1.5003 0.275146 1.86026
-1.15708 0.00699323 1.89919
-1.51228 0.199422 3.25782
-1.4938 0.397468 2.77494
-1.14657 0.132316 2.81104
-1.50893 0.526046 3.6748
-1.15465 0.265646 3.70612
-1.53827 0.292159 -2.15584
-1.53698 0.56601 -2.56725
-1.14866 0.227211 -2.60629
-1.54909 0.386492 -1.12122
-1.54238 0.697093 -1.66939
-1.55722 0.420051 0.0590456
-1.53163 0.830256 -0.529163
-1.51745 0.482255 1.2403
-1.49662 0.934457 0.614573
-1.47747 0.599161 2.28495
-1.4032 1.0712 1.75612
-1.49045 0.724091 3.19193
-1.43959 1.19387 2.66644
-1.1281 0.663381 2.7408
-1.48506 1.31292 3.57297
-1.1465 0.790351 3.63939
-1.54109 0.970944 -2.08081
-1.54038 1.50513 -2.51737
-1.1558 0.893942 -2.52669
-1.52493 1.14086 -1.07733
-1.53988 1.64764 -1.62427
-1.47104 1.34466 0.0263645
-1.51107 1.89368 -0.538036
-1.38238 1.5234 1.1304
-1.45304 2.14189 0.534929
-1.36532 1.66591 2.13762
-1.38415 2.34537 1.62096
-1.43421 1.7827 3.04749
-1.42387 2.47837 2.51637
-1.05824 1.73688 2.58172
-1.47378 2.5929 3.42418
-1.12011 1.84656 3.49555
-1.53917 2.18183 -2.06083
-1.16155 2.09063 -2.5001
-1.52602 2.40047 -1.08498
-1.16153 2.2486 -1.61478
-1.49308 2.69091 -0.0294719
-1.14539 2.53502 -0.552549
-1.45482 2.96386 1.02549
-1.11333 2.84842 0.485595
-1.4427 3.15783 1.99972
-1.08745 3.0976 1.54676
-1.46345 3.28857 2.89306
-1.09794 3.24157 2.42981
-1.12724 3.35691 3.3348
-0.761627 -0.0762119 -2.18245
-0.760342 0.0479361 -2.62158
0.0171178 -0.133236 -2.63598
-0.774692 -0.0265609 -1.12884
0.0126064 -0.0175722 -1.73224
-0.800735 -0.0639043 0.0873758
0.0150236 -0.0343052 -0.527969
-0.803816 -0.0458958 1.30386
0.00456277 -0.0918213 0.699625
-0.78702 0.0658563 2.35998
-0.0145957 0.0028169 1.90378
-0.788939 0.19854 3.25934
-0.780871 0.398229 2.77689
-0.0423402 0.135962 2.80636
-0.792226 0.529952 3.67071
-0.0627121 0.27338 3.6953
-0.767485 0.555143 -2.56572
0.0111342 0.230971 -2.61102
-0.784159 0.729641 3.18827
-0.746751 1.20639 2.65607
-0.0556591 0.672802 2.73095
-0.781549 1.32399 3.56197
-0.0727663 0.801673 3.62513
-0.776976 1.47943 -2.50941
0.00422849 0.881129 -2.52421
-0.744141 1.80074 3.02977
-0.732301 2.50007 2.49516
-0.0570149 1.76139 2.5533
-0.773567 2.61057 3.40616
-0.0776243 1.86526 3.47285
-0.783909 2.15739 -2.05404
-0.020586 2.08154 -2.5024
-0.780893 2.38315 -1.08235
-0.0285322 2.23936 -1.61818
-0.765639 2.69253 -0.0374816
-0.0363831 2.53525 -0.563432
-0.745963 2.98216 1.00686
-0.0424271 2.86262 0.464089
-0.742688 3.18133 1.97685
-0.0477179 3.12031 1.51847
-0.761727 3.3099 2.87154
-0.0585486 3.26424 2.40192
-0.0750772 3.37681 3.30978
0.791351 -0.074596 -2.18577
0.788594 0.0497991 -2.62542
1.17792 -0.138691 -2.6362
0.802322 -0.0253165 -1.13137
1.17819 -0.0269203 -1.72991
0.820321 -0.0622222 0.0842797
1.19921 -0.0308801 -0.532412
0.793783 -0.0431087 1.29955
1.21117 -0.0746877 0.687467
0.730084 0.0729228 2.35017
1.14142 0.0173043 1.88448
0.683887 0.210802 3.24232
0.682872 0.410536 2.76042
1.07556 0.149667 2.78694
0.656748 0.545101 3.64972
1.03929 0.286665 3.67641
0.782848 0.556957 -2.56951
1.17143 0.230565 -2.61324
0.655733 0.744835 3.16782
0.634077 1.2278 2.62818
1.03916 0.685691 2.71091
0.631158 1.34294 3.53602
1.01388 0.814622 3.60571
0.760619 1.48323 -2.51719
1.16314 0.897984 -2.53512
0.609502 1.82591 2.99638
0.616737 2.52555 2.46006
0.964671 1.77567 2.53026
0.620865 2.63151 3.37648
0.976923 1.87762 3.4526
0.734791 2.16351 -2.06653
1.12166 2.09932 -2.51768
0.715978 2.39147 -1.09926
1.10701 2.25884 -1.63564
0.686829 2.70534 -0.0618618
1.07672 2.54997 -0.582451
0.655818 3.00076 0.975695
1.03454 2.87117 0.44432
0.636422 3.20321 1.94353
0.998087 3.12833 1.49835
0.628101 3.33115 2.84016
0.985682 3.27342 2.38222
0.981209 3.38653 3.29092
1.56477 -0.0910152 -2.18034
1.56076 0.0420752 -2.62402
1.57508 -0.0324839 -1.13096
1.55793 0.163922 -1.72233
1.59006 -0.0433456 0.0707753
1.57416 0.196142 -0.542847
1.55881 -0.0142748 1.2724
1.58548 0.191526 0.651913
1.4869 0.094048 2.32125
1.50641 0.29593 1.83172
1.43097 0.225529 3.22103
1.43185 0.424822 2.73743
1.39642 0.556185 3.6324
1.55392 0.297012 -2.16601
1.55172 0.571592 -2.57886
1.55701 0.392548 -1.13422
1.54503 0.702737 -1.68143
1.56959 0.431013 0.0382904
1.5325 0.841639 -0.553953
1.53309 0.501731 1.21124
1.50599 0.956625 0.572965
1.45137 0.626704 2.2479
1.41584 1.11148 1.70187
1.39731 0.755478 3.1488
1.36976 1.23356 2.61299
1.35964 1.3493 3.52229
1.54283 0.977317 -2.09428
1.52419 1.51407 -2.53561
1.52052 1.15183 -1.10116
1.51252 1.6579 -1.64546
1.4689 1.36725 -0.0192782
1.47575 1.91128 -0.574539
1.38873 1.56638 1.06359
1.41759 2.17177 0.478992
[...]
POINT_DATA 29498
VECTORS point_vectors float
-1.30558 -1.01876 2.73641
0.15546 0.0496347 0.322145
-1.15895 0.747807 1.90768
-0.0777911 -0.0777395 0.210035
1.32726 -1.03895 2.79274
-0.163803 0.0547697 0.341586
1.1537 0.745141 1.89892
-0.00575057 -0.0529196 0.262686
0 0 0
-0.079837 -0.0420649 1.04736
-0.133318 -0.118544 0.704882
0.00364269 0.0172279 0.0498895
0 0 0
0.080097 -0.0417221 1.0476
0.713361 -0.389075 1.14149
-0.00207673 0.0112169 0.029847
-0.714927 -0.501128 20.0149
-1.1705 -0.829781 20.7248
-0.450867 -0.541259 21.4879
0.0797153 -0.237088 21.7195
0.706411 0.0800236 21.7425
1.18329 0.26372 21.5192
1.31629 0.064431 21.1267
-0.955863 -0.443848 19.8296
-1.70746 -0.788508 20.6967
-0.680211 -0.687038 21.6194
-0.0046273 -0.480175 21.8382
0.896234 -0.40238 21.9652
1.38254 -0.414103 21.6116
1.4344 -0.452357 21.3581
-1.20212 -0.0256963 19.6731
-2.09105 -0.00373749 20.5685
-1.68202 -0.45937 21.5443
-0.89191 -0.503152 21.9845
-0.242291 -0.656968 21.9512
0.190954 -0.741587 21.7422
0.512977 -0.789406 21.6103
-0.650119 0.390786 19.9979
-0.913627 0.564439 20.3977
-0.846599 0.477411 21.1042
-0.532409 0.170064 21.4253
-0.203066 -0.050779 21.4657
-0.0766596 -0.15444 21.4488
-0.0495679 -0.145875 21.0429
-0.759452 -1.08776 19.3801
-1.78344 -3.04733 21.0204
-0.35851 -0.507412 22.1059
0.12087 -0.0248585 21.9225
0.844513 1.20381 21.6633
1.68942 1.75717 19.8879
1.95267 1.76003 17.5941
-1.15992 -1.14641 18.6799
1.97281 0.186837 9.31763
3.0307 0.710017 12.7426
-1.6602 0.208934 17.8307
-0.141078 -0.774424 13.3551
0.335408 -1.52974 16.9456
-0.583406 0.823365 19.6001
-0.972503 1.37745 20.086
-0.957592 1.37929 20.9952
-0.45858 0.540741 21.5515
-0.200977 0.0606725 21.6404
-0.0929046 -0.117713 21.6059
-0.0128036 -0.159618 21.4779
0.773288 -1.0468 19.4182
1.80997 -2.97687 20.9912
0.358432 -0.515817 22.0936
-0.121597 -0.0288561 21.9255
-0.804592 1.25015 21.5465
-1.50705 1.97226 19.4791
-1.96241 2.1431 16.7606
1.16544 -1.11887 18.709
-1.64008 0.249481 5.42312
-2.62676 1.04607 8.74852
1.65002 0.1991 17.8826
0.322945 -0.627935 10.9188
-0.264284 -1.53212 17.0111
0.553872 0.83147 19.5819
0.91083 1.45429 20.0434
0.879969 1.42941 21.0023
0.430579 0.568393 21.5634
0.180415 0.0552685 21.6066
0.0535957 -0.0956206 21.5171
0.032406 -0.14953 21.4411
0.708021 -0.483125 20.0257
1.16064 -0.814446 20.7112
0.457511 -0.540335 21.4792
-0.0642675 -0.257749 21.712
-0.708103 0.0652376 21.7567
-1.27816 0.313302 21.5598
-1.53982 0.187965 21.1183
0.938737 -0.430478 19.8452
1.70041 -0.772354 20.6784
0.698113 -0.688607 21.611
0.0317122 -0.489076 21.8255
-0.842412 -0.435862 21.9761
-1.47465 -0.516469 21.6425
-1.68845 -0.421288 21.5043
1.17061 -0.0177079 19.6784
2.08764 0.0129501 20.5416
1.73222 -0.419565 21.5138
0.960064 -0.455548 21.9736
0.293019 -0.576956 21.9372
-0.118932 -0.739583 21.8907
-0.412704 -0.829262 21.4967
0.645621 0.398461 19.9783
0.906193 0.596461 20.3677
0.842216 0.522477 21.0483
0.550915 0.191969 21.4163
0.22643 -0.0116672 21.5399
0.0631251 -0.127782 21.6058
0.0164518 -0.130002 21.2035
-0.350121 -0.130555 0.717767
-0.000329257 -0.162572 0.298425
0.00201763 -0.0303752 0.905987
-0.0184073 -0.0453391 -0.00145078
-0.000158042 -0.0227155 -0.0147029
0.0160683 0.00143138 0.438928
0.00353465 0.107054 0.222763
-0.0898168 -0.0501997 0.15526
3.79157e-05 0.0233147 -0.0125356
0.00240755 0.00684778 0.0472448
0.365865 -0.135827 0.747603
-0.00305513 -0.0318742 0.909852
0.0527391 -0.214637 0.0630451
-0.0160942 0.00140609 0.440913
0.114095 -0.0646861 0.198503
-0.00578845 0.0172592 0.103383
0.000260629 0.000784286 0.0721598
0.000651444 0.00210089 0.038021
0 0 0
0 0 0
0 0 0
0.00307153 0.0106815 0.0132796
0.000245633 0.0538473 0.0617857
2.48238e-05 0.000715904 0.0290557
-0.000297706 0.000663408 0.0761817
-0.000586105 0.00177982 0.0339479
-0.000796291 0.00397072 0.0101372
-0.00126283 0.00401377 0.00503717
-0.000912757 -2.21543e-05 0.0288757
0.00014891 0.0174445 0.0507355
0.0032925 0.00888611 0.0818883
4.95261e-07 -3.96943e-07 3.99205e-05
0 0 0
3.7533e-07 1.24336e-05 0.00092667
8.55986e-22 2.28907e-17 1.10824e-17
0.000274266 -0.0253 0.00386992
-1.68011e-05 0.000751356 0.00583094
-3.6903e-05 0.0190899 0.119654
8.93057e-06 -6.68168e-06 0.00610901
0.000602713 1.60801e-06 0.018443
-0.000104058 0.0181493 0.0525346
-0.0011022 0.00353497 0.0395107
-3.20436 -1.81927 20.8775
-3.13727 -4.93091 21.5063
-2.76883 -2.70101 17.7007
1.63652 -0.218854 19.574
1.48713 1.48023 13.5014
1.03683 -0.289664 5.46727
-4.19012 0.454047 20.6269
-4.57616 1.71147 15.9325
-2.27884 2.45591 19.7889
-0.307541 -0.473851 18.9955
-0.469743 -0.225388 6.87536
-0.399421 0.0731183 21.8815
3.15371 -4.78213 21.4664
2.75087 -2.64041 17.7728
3.1938 -1.80216 20.8493
-1.39459 1.50153 12.7368
-0.765287 -0.418612 3.82798
-1.60852 -0.250018 19.6532
4.54968 1.68476 15.9865
2.2302 2.53351 19.7417
4.18968 0.483396 20.583
0.547272 -0.16585 6.44059
0.387127 0.118325 21.8833
0.435607 -0.495746 20.1908
-0.369974 -0.981166 21.988
0.405676 -0.12758 17.0783
0.202481 -0.513565 21.4639
0.478564 -0.193078 18.4819
-3.10902 -1.0006 21.8388
-3.03077 2.52889 20.8776
-1.43135 -0.78155 21.8138
-1.15771 0.888416 22.2908
-0.353282 -0.169685 17.5799
0.391282 -0.988142 22.0127
-0.468802 -0.199781 18.5455
-0.191809 -0.529413 21.5425
2.94414 2.72917 20.7348
3.23266 -0.937359 21.7791
1.14525 1.02882 22.3205
1.54261 -0.712934 22.0896
-1.01783 -0.712872 20.2685
-0.831585 -0.488523 19.9338
-0.819956 -0.789733 19.6982
-0.847842 -0.725769 21.2867
-1.46273 -0.854229 20.6846
-1.6125 -1.61545 20.8084
-0.157163 -0.378696 21.6213
-0.525426 -0.606881 21.5763
-0.359659 -0.597754 21.7969
0.351658 -0.0831057 21.7685
0.0800763 -0.34516 21.7725
0.161434 -0.174816 21.8954
0.945853 0.154335 21.6234
0.893133 -0.0951533 21.8681
1.02377 0.47728 21.9259
1.23721 0.279949 21.1274
1.32075 0.0125879 21.6066
1.53099 0.78805 21.5601
1.43519 -0.138595 21.4594
1.97839 0.594116 20.6726
-1.45506 -0.652484 20.0822
-1.13779 -0.284798 19.7244
-1.13801 -0.720808 19.3573
-1.22801 -0.770245 21.4114
-2.08181 -0.452406 20.6334
-0.294895 -0.591746 21.7245
-1.10998 -0.735539 21.6344
0.384247 -0.442225 21.963
-0.35334 -0.707701 21.9561
1.14733 -0.420814 21.8117
0.390923 -0.937721 21.9008
1.48411 -0.316643 21.5067
0.790215 -0.941123 21.8001
2.2212 -0.298995 20.1244
1.09414 -0.898446 21.9
2.25686 -0.417758 20.1404
-1.81217 0.0466954 19.9265
-0.930841 0.317018 19.8125
-1.61079 0.0784133 18.9738
-1.89124 -0.211043 21.1847
-1.516 0.539556 20.4003
-1.32498 -0.503068 21.866
-1.47742 0.366715 21.2186
-0.506185 -0.537755 22.006
-0.821436 0.103556 21.7136
-0.0118917 -0.703743 21.8016
-0.301455 -0.197359 21.6973
0.403383 -0.840448 21.6493
-0.0505007 -0.356721 21.5466
0.0291044 -0.938947 21.5668
0.0794284 -0.422787 21.3788
0.451016 -1.20205 21.35
-0.818541 0.501253 20.1522
-0.673425 0.59395 19.799
-0.913522 0.562488 20.7036
-1.01824 0.935349 20.2678
-0.727974 0.363433 21.2162
-0.939267 0.846299 21.0647
-0.379406 0.0039535 21.4373
-0.602558 0.361659 21.5056
-0.200895 -0.124176 21.5093
-0.272453 0.0583485 21.7301
0.0691045 -0.181956 21.4085
-0.108086 -0.142849 21.7155
-0.030506 -0.148436 21.2981
-1.29679 -2.11319 19.5324
-0.888769 -1.10092 19.1117
0.0145141 -1.49107 18.9591
-0.957575 -1.42635 22.1895
0.028127 -4.70117 21.2604
-0.0891106 -0.188111 21.8394
0.0147496 -0.846474 21.9885
0.438694 0.456447 21.89
0.00131548 -0.1951 21.1854
1.21505 1.50546 20.917
0.00868593 1.0675 19.7104
2.03807 2.00068 19.6314
2.37654 1.4444 14.8427
0.0619408 1.78322 16.3126
2.5865 1.53255 16.5031
0.14015 2.50206 13.9324
-1.55337 -0.625066 18.0453
0.0184767 -1.59419 17.8004
2.98261 0.254356 11.1544
0.021372 -1.03812 3.78913
0.0424175 0.722035 1.13972
1.3998 -1.26525 8.87104
0.778944 3.45618 2.40633
-1.12078 1.02908 18.8053
0.0149408 0.46789 16.3136
0.111963 -1.36904 16.9554
-0.162647 -0.243456 21.57
-0.130123 0.337501 0.645151
-0.0467972 -0.507909 21.278
-0.138126 -0.870888 7.43919
-0.799131 1.17501 19.7783
-0.0159034 1.09006 19.3313
-1.03072 1.43064 20.501
-0.0355602 1.90579 19.8388
-0.713206 0.964513 21.4355
-0.0621366 1.99982 21.0016
-0.321268 0.20529 21.6515
-0.0455468 0.843317 21.7045
-0.216964 -0.107033 21.7734
-0.0111026 0.277922 21.8001
0.0511294 -0.165886 21.5616
0.0176258 -0.155562 21.815
-0.00192799 -0.106636 21.3464
1.31811 -2.03535 19.5576
0.898842 -1.06636 19.1462
0.818418 -0.754414 19.7209
0.965493 -1.39542 22.1606
1.59338 -1.54784 20.7888
0.0843271 -0.189303 21.8322
0.372607 -0.600532 21.7777
-0.434318 0.45888 21.8763
-0.155375 -0.185395 21.8896
-1.12644 1.62439 20.2885
-1.03261 0.501295 21.9399
-1.88955 2.237 19.1162
-2.15989 1.74624 12.2246
-1.66695 0.929323 21.27
-2.5898 2.15467 14.4999
-2.07911 0.684206 20.6137
1.54951 -0.61577 18.0892
1.12294 -0.700248 19.3952
-2.61241 0.491564 7.88527
0.483106 -0.772675 -0.237098
-2.22861 -0.242891 17.6624
-1.20989 -1.16274 5.53467
-2.61115 -0.403322 18.4235
1.08719 1.03063 18.7989
1.58146 0.0770804 18.9975
0.142146 -1.04202 13.7176
0.182336 -0.196259 21.6046
0.0566633 -0.841005 20.6177
0.0689469 -0.4848 21.3743
-0.395493 -1.43146 20.4784
0.75733 1.21481 19.7452
0.659893 0.606264 19.7803
0.951417 1.4451 20.488
0.996106 0.986317 20.2298
0.643586 1.05146 21.4222
0.910851 0.921506 21.0664
0.288996 0.222979 21.5813
0.597823 0.436207 21.5132
0.193876 -0.105802 21.6932
0.277152 0.0640793 21.7586
-0.00984883 -0.161578 21.4523
0.0945183 -0.121707 21.6874
0.0205769 -0.149647 21.3094
1.00593 -0.693284 20.2613
0.813014 -0.472332 19.9545
0.852454 -0.718852 21.2645
1.44349 -0.834181 20.6738
0.166454 -0.38956 21.6142
0.536691 -0.601197 21.5631
-0.338306 -0.0974864 21.7705
-0.0609289 -0.352484 21.7606
-0.993577 0.152394 21.6682
-0.88147 -0.124796 21.8792
-1.34653 0.269002 21.2161
-1.41567 0.014094 21.6456
-1.71369 -0.100699 21.2611
1.43039 -0.632023 20.0808
1.11768 -0.278248 19.7366
1.23911 -0.766538 21.3976
2.08495 -0.440182 20.6082
0.313455 -0.599259 21.719
1.15057 -0.727609 21.6296
-0.343634 -0.459 21.9475
0.405146 -0.69995 21.9397
-1.1689 -0.471311 21.8623
-0.292536 -0.907086 21.9487
-1.65362 -0.444772 21.5568
-0.712363 -1.05859 21.9656
-1.07426 -1.02921 21.9348
1.78642 0.0574923 19.9145
0.920915 0.323264 19.7936
1.91717 -0.179326 21.1591
1.52289 0.584635 20.3608
1.39699 -0.457696 21.84
1.52135 0.445936 21.1851
0.585668 -0.479668 21.998
0.867492 0.170886 21.7286
0.0967043 -0.654662 21.8647
0.330179 -0.141653 21.704
-0.271224 -0.917806 21.8025
0.0700768 -0.345052 21.561
-0.0707161 -0.453782 21.4373
0.800848 0.519692 20.1262
0.913856 0.615416 20.6505
0.727982 0.388369 21.2102
0.389775 0.0469025 21.4717
0.223956 -0.110484 21.6495
-0.104831 -0.167895 21.5595
-1.21043 -0.704034 20.1604
-1.87567 -2.53011 18.8392
-1.30885 -1.27735 19.9328
-2.18729 -1.25326 19.401
-0.962772 -0.792447 19.5596
-2.28101 -1.84732 20.8738
-1.03816 -0.761249 21.3568
-0.823934 -0.967809 20.4845
-0.929419 -1.06544 21.6744
-1.4045 -1.30482 22.1479
-0.332291 -0.727379 21.9383
-0.189761 -0.472954 21.6792
0.485496 -0.0456817 17.3089
-0.0545586 -0.34786 21.7854
0.0532297 -0.715422 21.5894
0.216038 -0.326627 21.9341
0.404215 -0.237441 21.8748
0.788846 0.322289 16.023
0.517743 0.112545 22.0259
0.720368 -0.338126 20.8449
1.5096 0.3085 21.4757
1.13845 -0.0570316 21.7405
1.90662 1.35441 14.0485
1.3262 0.660707 21.7113
1.94301 -0.320452 19.8973
2.1052 0.34391 20.3765
1.42819 -0.0367469 21.3266
2.74347 1.45464 15.7535
1.58528 0.743792 20.9326
2.25246 -0.195792 20.1046
2.28285 0.257383 20.4972
-1.72937 -0.381474 19.9761
-4.46236 -1.2358 15.7578
-3.05957 0.403559 18.9897
-1.47366 -0.431951 19.0463
-4.25982 -0.976975 20.8551
-1.65064 -0.642129 21.4133
-3.08197 -0.526095 21.6453
-1.04255 -1.59546 20.8558
-0.710744 -0.754255 21.8376
-2.2701 -0.919546 22.1596
-0.0620571 -0.914675 18.998
-0.0113785 -0.763996 22.0225
-0.84278 -0.598512 21.0689
0.620214 -0.60807 15.9267
0.59096 -0.95147 21.9227
-0.593521 -1.53815 1.49063
-0.23323 -0.67761 20.2443
0.895383 -1.0755 18.391
0.983603 -0.885721 21.6606
0.909816 -1.15606 6.14373
0.279708 -1.18448 21.7462
1.43125 -1.31027 20.1448
-1.28958 0.494736 19.9932
-1.79531 1.9705 18.9053
-0.869567 0.821844 19.9728
-1.14023 0.622889 19.3545
-2.04673 1.21842 20.1534
-1.57447 0.464508 20.8232
-2.47526 2.19787 20.2401
-1.01823 0.928058 20.6442
-2.19752 1.00269 21.2355
-1.21163 0.250107 21.5615
-2.2305 1.88697 22.29
-0.767239 0.629614 21.3667
-1.06607 0.364305 21.9881
-0.506673 -0.0711967 21.7548
-0.645914 0.371626 22.1021
-0.43512 0.11 21.7459
-0.381602 -0.107934 21.8181
-0.189161 -0.264773 21.6114
-0.311209 -0.109715 21.8465
-0.270514 -0.101652 21.8687
-0.0978931 -0.3586 21.5584
0.0298386 -0.412377 21.2786
-0.0182603 -0.478623 21.3511
0.0709128 -0.178697 21.5855
-0.0251556 -0.481135 21.3942
1.88655 -2.45013 18.8859
0.0275775 -3.16943 19.006
0.0253695 -4.75324 15.6244
0.0234745 -1.58038 18.5074
0.0274956 -7.68539 22.121
0.858593 -0.988225 20.8867
0.0207884 -2.14942 22.8057
-0.00273747 -0.047234 11.0784
-0.469855 -0.0658195 17.4437
0.00490998 -0.445393 21.2863
-0.0051493 -0.111685 12.7927
-0.779506 0.321366 15.7901
0.00142098 0.340369 20.3811
0.00543309 0.86478 7.98016
-1.67205 1.41943 12.0205
0.037367 1.36821 17.8114
-0.00446239 -0.740044 1.5088
0.027618 1.09303 6.65558
-2.6185 1.80443 12.5801
0.0818858 2.4664 15.9515
0.507553 1.51383 0.960818
0.581951 2.78572 7.06084
4.4146 -1.20277 15.8873
0.0127906 3.94639 11.7356
0.0162653 -0.929163 16.6533
0.841261 -1.4821 0.0296097
-0.0807649 0.875499 -1.10416
-0.0833317 1.70198 -3.44577
-0.0853815 0.00354464 2.13685
-0.0775011 0.346596 3.28205
0.114498 1.72834 -3.95352
1.75546 1.99608 18.8786
-0.0207925 1.61783 19.4787
-0.0192829 1.52106 18.1317
-0.0470176 3.99822 19.1688
2.40768 2.31932 20.1795
-0.0500301 2.05434 20.2675
-0.0974638 5.31177 19.8232
2.19556 2.1315 22.2587
-0.0458832 1.48935 21.5364
-0.0521177 1.66587 22.5306
0.625243 0.442981 22.0998
-0.0405724 0.378681 21.9339
-0.0159098 0.35728 21.9214
0.29899 -0.0524741 21.8449
-0.012811 -0.124014 21.9088
-0.0406542 -0.0721482 21.5903
0.0554573 -0.393763 21.3962
0.0200172 -0.104031 21.3999
0.0436466 -0.491855 21.2349
1.18252 -0.681744 20.1654
1.278 -1.2115 19.9624
2.14914 -1.21387 19.4182
0.954538 -0.758836 19.5863
2.24693 -1.78493 20.8452
1.03733 -0.750234 21.3353
0.940924 -1.04974 21.6426
1.41828 -1.30281 22.1405
0.356475 -0.732459 21.9208
0.203365 -0.476967 21.6737
0.0629086 -0.355664 21.7796
-0.0366219 -0.731443 21.6465
-0.205565 -0.338099 21.9279
-0.389094 -0.25316 21.8799
-0.516704 0.104397 22.0316
-0.700667 -0.360701 20.9226
-1.52494 0.301762 21.3698
-1.17469 -0.0788585 21.7778
-1.36686 0.728969 21.717
-1.94527 -0.296508 18.9489
-2.25567 0.461453 19.9484
-1.55052 -0.00837204 21.3611
-1.83473 1.03717 20.6018
-2.53922 -0.203696 17.9393
-2.60274 0.482664 19.5653
1.70225 -0.370528 19.971
3.00541 0.402551 18.9906
1.45196 -0.41255 19.0871
4.2599 -0.954757 20.8116
1.67799 -0.626821 21.3933
3.11935 -0.456876 21.6251
1.07597 -1.60493 20.7253
0.758392 -0.747222 21.8201
2.40037 -0.842161 22.2426
0.113115 -0.91654 19.0205
0.0768818 -0.750982 22.017
0.93504 -0.552849 21.471
-0.506102 -0.674096 16.6564
-0.521425 -0.997398 21.9605
0.291146 -0.565272 20.0011
-0.697407 -1.05165 16.0995
-0.925404 -1.05412 21.7788
-0.185331 -1.18019 21.4374
-1.58737 -1.47489 17.4281
1.2769 0.50826 19.9708
0.855053 0.848159 19.9411
1.11611 0.627209 19.3465
2.06149 1.30349 20.1146
1.58653 0.53074 20.7814
1.0008 1.00467 20.6035
2.23724 1.11427 21.1859
1.26103 0.322981 21.5454
0.763333 0.705915 21.3526
1.09922 0.443307 21.9943
0.5457 -0.0191741 21.7663
0.421064 0.16944 21.7682
0.392148 -0.0541908 21.8343
0.208142 -0.232678 21.6384
0.263763 -0.105129 21.8722
0.13778 -0.299965 21.5712
0.00154649 -0.403759 21.3883
-0.0790314 -0.165588 21.5531
0.0131322 -0.481937 21.2578
-1.70329 -1.3602 19.7084
-1.12153 -1.1699 21.8795
0.0294786 -0.470801 21.8407
0.714262 -0.069449 21.9026
1.83282 0.360892 21.2526
2.2004 0.356795 20.476
-2.97299 -0.660832 18.9979
-2.17322 -1.33888 22.4025
-0.401286 -1.46229 19.738
0.19443 -0.522251 17.9617
0.580503 -1.00218 17.4488
1.22013 -1.21389 19.7519
-1.66064 1.0441 19.5689
-2.1371 1.09058 20.6698
-1.70511 0.743866 21.8511
-0.637804 0.0838187 21.9302
-0.234947 -0.239349 21.692
0.0245165 -0.550788 21.3902
0.0350873 -4.07348 17.8036
0.00792304 -1.13566 15.411
-0.00920912 -0.0519066 11.0818
0.00531407 0.2411 10.6664
0.0212106 0.602742 6.69887
0.148054 1.74653 6.2425
0.0241852 -1.9462 11.0226
-0.0209579 -0.495189 -1.34833
-0.0601107 2.11864 -5.11851
-0.0236311 3.13917 18.0969
-0.0797913 3.87246 19.3394
-0.0727046 3.65354 22.5694
-0.0243298 0.771187 22.2159
-0.0342841 0.143154 21.8503
-0.0348902 -0.38884 21.7372
1.67904 -1.3102 19.7275
1.13938 -1.15967 21.8508
-0.0121302 -0.485073 21.85
-0.707109 -0.0865693 21.8844
-1.92593 0.401273 20.8863
-2.59494 0.531177 19.8395
2.90067 -0.630952 19.0151
2.23298 -1.32421 22.4302
0.479064 -1.53613 19.9105
-0.123095 -0.558629 18.0599
-0.430885 -0.875833 15.9533
-1.26229 -1.28444 17.6348
1.65397 1.08137 19.5351
2.14876 1.15952 20.6269
1.74921 0.853181 21.8369
0.666512 0.145271 21.9424
0.250754 -0.180672 21.679
-0.00674205 -0.517017 21.3818
-2.40616 -0.856528 4.09673
0 0 0
0.0166366 -0.065733 1.74403
0 0 0
-0.00463634 -0.00292014 0.0331807
0.123915 0.0241831 0.865469
-1.50457 0.0736846 1.74089
-0.0639909 0.448257 0.594408
-0.214742 -0.0103288 0.657709
-0.0650184 -0.0342822 -0.00177394
-0.0344289 0.0265007 -0.0151855
0.00779071 0.0146202 0.207392
0 0 0
2.39795 -0.856898 4.08316
-0.0172923 -0.0669176 1.75152
0.00473396 -0.002891 0.0329201
0.00957111 -0.00669369 -0.00634944
-0.1237 0.0259522 0.867903
0.077761 0.447796 0.581435
1.50745 0.0747034 1.74243
0.189231 -0.00901294 0.584826
0.0569254 0.0370545 -0.0137955
0.0560934 -0.084743 0.0856085
-0.00726925 0.0124767 0.186996
-0.0675043 -0.0475234 0.653695
0 0 0
-0.00867592 -0.0108018 0.197111
0.00091592 0.00018333 0.0046331
0.0274246 -0.00845525 0.500265
0.0139303 0.00643391 0.543533
0 0 0
0 0 0
-0.342413 -0.178104 0.283488
-0.00749164 -0.00982454 0.110843
0.0039535 0.0161216 0.0291843
-0.0293561 0.0142509 0.02994
0.00126435 0.00364973 0.0154928
0 0 0
0.0030862 0.0122087 0.0235438
0.00122523 0.00148627 0.0364219
0.0628177 -0.0388364 0.473551
-0.00273757 0.000414089 0.0133061
0 0 0
0.0129281 -0.0203186 0.33086
-0.0275416 -0.00825758 0.506322
0 0 0
-0.0135985 0.00638462 0.539497
0 0 0
0.321162 -0.111573 0.228953
0.0161016 0.00457092 0.0125106
0.00954481 -0.013563 0.14708
-0.00136674 0.00705782 0.0184425
-0.00625167 0.0142166 0.05812
-0.00166568 0.0016979 0.0411425
0 0 0
-0.00147088 0.00629145 0.0123586
-0.00667752 -0.00443133 0.102679
-0.383508 0.307407 0.441897
-1.49827e-07 7.17263e-06 -0.000220114
2.12096e-05 -1.23371 0.199996
-0.000765091 0.00100558 0.0255676
0 0 0
0.00344533 -0.00497882 0.186474
-0.0019591 -0.00810862 0.000554697
0 0 0
-7.86192e-06 -0.000713664 4.2513e-05
0 0 0
0 0 0
-0.00104137 1.41932 0.673303
-2.77669e-06 0.00444139 0.020231
-0.0031045 -0.0243442 0.077698
-0.0164894 0.00240872 0.0243259
-6.24559e-06 -0.000746805 -0.000189118
3.45113e-05 -0.000403008 0.0250591
0 0 0
0.000831654 7.02164e-06 0.0161365
0.384487 0.307598 0.441974
0.01022 -0.00626474 0.130208
0 0 0
0.000982982 0.00129985 0.0330868
0.0106798 -0.0371225 0.00350977
-0.000709871 -0.00103855 0.075431
0 0 0
-0.000181698 0.00134755 0.0910204
0.0173044 0.00248288 0.0252845
0.00197054 -0.0143963 0.0460069
-0.000205891 -6.52015e-07 0.00435759
-0.000282967 0.00137826 0.00671365
0.0152216 0.0422242 0.361398
0 0 0
0.00406676 -0.00681649 0.0268927
0.000331249 0.0132909 0.0471313
0 0 0
-4.91631e-05 8.69606e-05 0.0243392
0.000280116 0.00341403 0.00882434
0.000250224 0.0102673 0.0398938
-3.62238e-06 8.1971e-06 0.00732602
5.09667e-05 -0.00580776 0.0942838
0.0287314 0.071094 0.153718
-0.0109777 0.0156159 0.117651
-5.33008e-20 7.07319e-18 1.34733e-17
-0.00651392 0.547105 0.872883
0.00157045 0.0606153 0.527657
3.72858e-05 9.3913e-05 0.00598507
0 0 0
-0.00667801 0.0315853 0.263266
0 0 0
-0.000549123 0.0239609 0.0865577
-0.00122252 0.0165526 0.0413643
0 0 0
0.0121746 0.0172059 0.129858
-0.0129216 0.0315269 0.071451
-0.00473399 -0.00930434 0.151585
-0.0511806 -0.0376652 0.378467
0.022894 -0.00750459 0.325886
0 0 0
0.000949421 0.00726654 0.398538
0.0121745 0.0304388 0.0814414