# vtk DataFile Version 2.0
tet_velo
ASCII
DATASET UNSTRUCTURED_GRID
POINTS 29498 float
-0.728254 0.155 -1.925
-0.631968 0.155 2.095
-0.767253 0.625 -1.795
-0.71281 0.745 1.935
0.72825 0.155 -1.925
0.631963 0.155 2.095
0.767248 0.625 -1.795
0.712811 0.745 1.935
-0.738873 0.112286 -0.585
-0.712008 0.107055 0.755
-0.846779 0.762674 -0.551667
-0.835737 0.80978 0.691667
0.738724 0.11243 -0.585
0.712004 0.107055 0.755
0.846776 0.762673 -0.551667
0.83573 0.809773 0.691667
-1.51338 -0.183814 -2.96837
-1.51023 -0.156688 -1.93509
-1.51061 -0.187617 -0.592588
-1.46928 -0.207055 0.769366
-1.39909 -0.18354 2.1135
-1.38443 -0.17138 3.15481
-1.39243 -0.165549 4.18127
-1.5143 0.0998074 -2.93812
-1.51757 0.146516 -1.9154
-1.52897 0.13275 -0.591709
-1.47649 0.117452 0.740682
-1.37798 0.131752 2.06622
-1.36882 0.142407 3.10617
-1.38429 0.148895 4.13578
-1.5329 0.634823 -2.8505
-1.55989 0.679942 -1.82378
-1.61253 0.771127 -0.565985
-1.57363 0.796424 0.684958
-1.45199 0.75652 1.9446
-1.41077 0.764825 2.98854
-1.40727 0.778375 4.03374
-1.54443 1.54382 -2.79174
-1.56151 1.60289 -1.77949
-1.58792 1.70325 -0.553045
-1.59046 1.76304 0.65257
-1.55415 1.76058 1.88003
-1.51396 1.75196 2.89438
-1.48413 1.75317 3.92902
-0.747928 -0.180435 -2.97461
-0.741483 -0.15063 -1.94419
-0.74644 -0.198029 -0.591368
-0.730724 -0.21443 0.781586
-0.685672 -0.172569 2.13487
-0.66858 -0.164705 3.16931
-0.670223 -0.163402 4.18966
-0.743156 0.0971602 -2.94004
-0.646112 0.149009 3.11812
-0.659706 0.150375 4.1421
-0.75387 0.61138 -2.83854
-0.676498 0.76139 2.98662
-0.67445 0.776298 4.03333
-0.759001 1.52795 -2.77992
-0.769134 1.58805 -1.76647
-0.795149 1.70012 -0.545195
-0.813876 1.76722 0.651628
-0.798671 1.76092 1.8733
-0.76575 1.74988 2.88767
-0.738487 1.75101 3.92414
0.754414 -0.180414 -2.97461
0.739272 -0.150597 -1.94419
0.736438 -0.197932 -0.591368
0.703207 -0.214409 0.781586
0.655686 -0.172565 2.13487
0.706212 -0.164699 3.16931
0.74515 -0.163393 4.18966
0.759236 0.0971718 -2.94004
0.717258 0.149013 3.11812
0.754059 0.150382 4.1421
0.779256 0.611387 -2.83854
0.74288 0.761393 2.98662
0.762912 0.776304 4.03333
0.807641 1.52796 -2.77992
0.814176 1.58807 -1.76647
0.805872 1.70013 -0.545195
0.766995 1.76723 0.651628
0.730898 1.76092 1.8733
0.734252 1.74989 2.88767
0.749494 1.75102 3.92414
1.51355 -0.183765 -2.96837
1.50215 -0.156616 -1.93509
1.49942 -0.187481 -0.592588
1.45312 -0.207002 0.769366
1.38948 -0.183524 2.1135
1.41858 -0.171364 3.15481
1.46046 -0.165529 4.18127
1.52038 0.0998417 -2.93812
1.51075 0.146561 -1.9154
1.52409 0.132891 -0.591709
1.47727 0.117494 0.740682
1.38795 0.13176 2.06622
1.42423 0.142418 3.10617
1.46744 0.148912 4.13578
1.54951 0.634845 -2.8505
1.5592 0.679958 -1.82378
1.61119 0.771175 -0.565985
1.57407 0.796446 0.684958
1.45907 0.756525 1.9446
1.46114 0.764834 2.98854
1.48484 0.77839 4.03374
1.58623 1.54385 -2.79174
1.59668 1.60292 -1.77949
1.59428 1.70328 -0.553045
1.55297 1.76306 0.65257
1.502 1.7606 1.88003
1.48997 1.75198 2.89438
1.49648 1.75319 3.92902
-0.796588 0.39 -1.90883
-1.99676e-06 0.157852 -1.92215
-0.747199 0.120007 -1.255
-0.710671 0.45 2.05328
-2.5034e-06 0.170594 2.07941
-0.67541 0.127606 1.425
-2.5034e-06 0.761112 -1.93111
-0.847764 0.734585 -1.17333
5.06639e-07 0.864081 2.05408
-0.807957 0.811073 1.31333
0.796495 0.39 -1.90875
0.747417 0.119785 -1.255
0.710547 0.45 2.05316
0.675381 0.12763 1.425
0.847763 0.734588 -1.17333
0.807961 0.811077 1.31333
-0.721786 0.113325 0.085
-0.879221 0.43748 -0.568333
-7.45739e-05 0.122106 -0.585
-0.876274 0.458417 0.723333
-2.29764e-06 0.111282 0.755
-0.846123 0.791092 0.07
-1.8583e-06 1.07491 -0.551667
-3.67879e-06 1.23266 0.691667
0.721781 0.113325 0.085
0.879224 0.437552 -0.568333
0.876294 0.458414 0.723333
0.846123 0.791093 0.07
-0.898407 0.41374 -1.21417
-0.884956 0.447949 0.0775
-0.87935 0.454209 1.36917
-3.82853e-05 0.151859 -1.255
-3.84358e-05 0.11778 0.085
-2.40052e-06 0.145818 1.425
-2.25008e-06 0.39 -2.23154
-9.98378e-07 0.45 2.1698
-2.18085e-06 0.899746 -1.17333
-2.76855e-06 1.26835 0.07
-1.58608e-06 1.01107 1.31333
0.898407 0.413776 -1.21417
0.884954 0.447983 0.0775
0.879348 0.454207 1.36917
-1.12291 0.150758 -1.9202
-0.734868 0.00218481 -1.93459
-0.735705 0.12608 -2.43252
-1.00497 0.143376 2.08061
-0.65882 -0.00878458 2.11493
-0.63904 0.152004 2.60656
-1.16357 0.652471 -1.80939
-0.760562 0.61819 -2.31677
-0.768193 1.10653 -1.78074
-1.0824 0.75076 1.9398
-0.694654 0.753195 2.46081
-0.75574 1.25296 1.90415
0.733761 0.00220135 -1.93459
0.743743 0.126086 -2.43252
1.1195 0.15078 -1.9202
0.643824 -0.00878244 2.11493
0.674611 0.152006 2.60656
1.00995 0.14338 2.08061
0.773252 0.618194 -2.31677
0.790712 1.10653 -1.78074
1.16323 0.652479 -1.80939
0.727846 0.753197 2.46081
0.721855 1.25296 1.90415
1.08594 0.750763 1.9398
-1.13392 0.122518 -0.588355
-0.742656 -0.0428718 -0.588184
-1.09425 0.112254 0.747841
-0.721366 -0.0536872 0.768293
-1.22965 0.766901 -0.558826
-0.820964 1.2314 -0.548431
-1.20468 0.803102 0.688312
-0.824807 1.2885 0.671647
0.737581 -0.0427506 -0.588184
1.13141 0.122661 -0.588355
0.707605 -0.0536772 0.768293
1.09464 0.112275 0.747841
0.826324 1.2314 -0.548431
1.22898 0.766924 -0.558826
0.801362 1.2885 0.671647
1.2049 0.80311 0.688312
-1.51181 -0.170251 -2.45173
-1.51384 -0.0420032 -2.95325
-1.13065 -0.182125 -2.97149
-1.51042 -0.172152 -1.26384
-1.5139 -0.00508593 -1.92524
-1.12586 -0.153659 -1.93964
-1.48994 -0.197336 0.0883889
-1.51979 -0.0274331 -0.592149
-1.12852 -0.192823 -0.591978
-1.43419 -0.195297 1.44143
-1.47289 -0.0448014 0.755024
-1.1 -0.210742 0.775476
-1.39176 -0.17746 2.63416
-1.38854 -0.0258939 2.08986
-1.04238 -0.178054 2.12419
-1.38843 -0.168465 3.66804
-1.37662 -0.0144867 3.13049
-1.02651 -0.168043 3.16206
-1.38836 -0.00832671 4.15852
-1.03133 -0.164475 4.18546
-1.51594 0.123162 -2.42676
-1.5236 0.367315 -2.89431
-1.12873 0.0984838 -2.93908
-1.52327 0.139633 -1.25355
-1.53873 0.413229 -1.86959
-1.50273 0.125101 0.0744866
-1.57075 0.451939 -0.578847
-1.42724 0.124602 1.40345
-1.52506 0.456938 0.71282
-1.3734 0.137079 2.5862
-1.41498 0.444136 2.00541
-1.37656 0.145651 3.62097
-1.3898 0.453616 3.04736
-1.00747 0.145708 3.11215
-1.39578 0.463635 4.08476
-1.022 0.149635 4.13894
-1.54639 0.657382 -2.33714
-1.53866 1.08932 -2.82112
-1.14338 0.623102 -2.84452
-1.58621 0.725534 -1.19488
-1.5607 1.14142 -1.80163
-1.59308 0.783776 0.0594865
-1.60022 1.23719 -0.559515
-1.51281 0.776472 1.31478
-1.58204 1.27973 0.668764
-1.43138 0.760672 2.46657
-1.50307 1.25855 1.91231
-1.40902 0.7716 3.51114
-1.46237 1.25839 2.94146
-1.04363 0.763107 2.98758
-1.4457 1.26577 3.98138
-1.04086 0.777336 4.03353
-1.55297 1.57335 -2.28562
-1.15172 1.53588 -2.78583
-1.57471 1.65307 -1.16627
-1.16532 1.59547 -1.77298
-1.58919 1.73314 0.0497626
-1.19153 1.70168 -0.54912
-1.57231 1.76181 1.2663
-1.20217 1.76513 0.652099
-1.53406 1.75627 2.38721
-1.17641 1.76075 1.87667
-1.49905 1.75256 3.4117
-1.13986 1.75092 2.89103
-1.11131 1.75209 3.92658
-0.744706 -0.165533 -2.4594
-0.745542 -0.0416375 -2.95733
0.00324294 -0.180425 -2.97461
-0.743961 -0.17433 -1.26778
-0.00110513 -0.150614 -1.94419
-0.738582 -0.206229 0.0951093
-0.00500073 -0.19798 -0.591368
-0.708198 -0.193499 1.45823
-0.0137584 -0.214419 0.781586
-0.677126 -0.168637 2.65209
-0.014993 -0.172567 2.13487
-0.669402 -0.164053 3.67948
-0.657346 -0.00784808 3.14372
0.0188156 -0.164702 3.16931
-0.664964 -0.0065135 4.16588
0.0374633 -0.163397 4.18966
-0.748513 0.35427 -2.88929
0.00804016 0.097166 -2.94004
-0.652909 0.149692 3.63011
-0.661305 0.4552 3.05237
0.0355729 0.149011 3.11812
-0.667078 0.463336 4.08772
0.0471765 0.150378 4.1421
-0.756436 1.06967 -2.80923
0.0126927 0.611384 -2.83854
-0.675474 0.768844 3.50998
-0.721124 1.25563 2.93714
0.0331911 0.761392 2.98662
-0.706468 1.26365 3.97873
0.0442313 0.776301 4.03333
-0.764067 1.558 -2.27319
0.0243198 1.52796 -2.77992
-0.782142 1.64409 -1.15583
0.0225211 1.58806 -1.76647
-0.804513 1.73367 0.0532165
0.00536113 1.70013 -0.545195
-0.806273 1.76407 1.26247
-0.0234405 1.76722 0.651628
-0.782211 1.7554 2.38049
-0.0338861 1.76092 1.8733
-0.752119 1.75044 3.4059
-0.0157494 1.74988 2.88767
0.00550364 1.75101 3.92414
0.746843 -0.165506 -2.4594
0.756825 -0.0416212 -2.95733
1.13398 -0.18209 -2.97149
0.737855 -0.174264 -1.26778
1.12071 -0.153606 -1.93964
0.719823 -0.20617 0.0951093
1.11793 -0.192706 -0.591978
0.679446 -0.193487 1.45823
1.07817 -0.210706 0.775476
0.680949 -0.168632 2.65209
1.02258 -0.178044 2.12419
0.725681 -0.164046 3.67948
0.711735 -0.00784321 3.14372
1.0624 -0.168032 3.16206
0.749604 -0.0065054 4.16588
1.1028 -0.164461 4.18546
0.769246 0.35428 -2.88929
1.13981 0.0985067 -2.93908
0.735658 0.149697 3.63011
0.730069 0.455203 3.05237
1.07074 0.145715 3.11215
0.758486 0.463343 4.08772
1.11075 0.149647 4.13894
0.793448 1.06968 -2.80923
1.16439 0.623116 -2.84452
0.752896 0.768849 3.50998
0.738566 1.25564 2.93714
1.10201 0.763114 2.98758
0.756203 1.26366 3.97873
1.12388 0.777347 4.03353
0.810908 1.55802 -2.2732
1.19693 1.53591 -2.78583
0.810024 1.6441 -1.15583
1.20543 1.59549 -1.77298
0.786433 1.73368 0.0532164
1.20008 1.7017 -0.54912
0.748947 1.76408 1.26247
1.15998 1.76515 0.652099
0.732575 1.75541 2.38048
1.11645 1.76076 1.87667
0.741873 1.75045 3.4059
1.11211 1.75093 2.89103
1.12299 1.7521 3.92658
1.50785 -0.17019 -2.45173
1.51697 -0.0419617 -2.95325
1.50079 -0.172048 -1.26384
1.50645 -0.00502734 -1.92524
1.47627 -0.197241 0.0883888
1.51176 -0.0272946 -0.592149
1.4213 -0.195263 1.44143
1.4652 -0.0447537 0.755024
1.40403 -0.177444 2.63416
1.38871 -0.025882 2.08986
1.43952 -0.168447 3.66804
1.4214 -0.014473 3.13049
1.46395 -0.00830834 4.15852
1.51557 0.123201 -2.42676
1.53495 0.367343 -2.89431
1.51742 0.139726 -1.25355
1.53498 0.413259 -1.86959
1.50068 0.125193 0.0744865
1.56764 0.452033 -0.578847
1.43261 0.124627 1.40345
1.52567 0.45697 0.71282
1.40609 0.137089 2.5862
1.42351 0.444143 2.00541
1.44584 0.145665 3.62097
1.44268 0.453626 3.04736
1.47614 0.463651 4.08476
1.55436 0.657401 -2.33714
1.56787 1.08935 -2.82112
1.5852 0.725566 -1.19488
1.57794 1.14144 -1.80163
[...]
POINT_DATA 29498
VECTORS point_vectors float
-1.259 -3.27492 4.67378
-0.0717354 0.365562 1.66786
-1.13067 0.449282 1.72749
0.0508032 -0.119748 0.235087
1.27329 -3.27151 4.64883
0.0288744 0.328707 1.491
1.12831 0.447698 1.7248
-0.0514161 -0.113216 0.229389
-0.00598358 0.000492984 0.175222
0 0 0
-0.131856 -0.0883628 0.674553
0.0728952 0.0992508 0.359002
0.00574275 0.00052685 0.166816
0 0 0
0.132008 -0.088612 0.67392
-0.0727409 0.0996212 0.357936
-0.651051 -0.290543 19.8279
-1.26493 -0.713524 20.5126
-0.432234 -0.332462 21.3095
0.076157 0.012554 21.4672
0.605055 0.392174 21.326
0.779425 0.438787 20.9038
0.632263 0.381624 20.6021
-0.816995 -0.207501 19.7237
-1.72715 -0.570048 20.489
-0.598948 -0.405246 21.361
0.0756548 -0.105602 21.5673
0.897674 0.290381 21.3904
1.13002 0.355064 20.9525
0.800571 0.299272 20.5417
-0.92336 0.0875712 19.6804
-1.85242 0.128959 20.4932
-0.98143 -0.215048 21.3401
-0.134694 -0.207693 21.6362
0.776279 -0.30353 21.419
1.1012 -0.378958 21.0055
0.936575 -0.369316 20.2759
-0.59549 0.408304 19.9596
-0.942616 0.633246 20.4396
-0.800664 0.379847 21.1184
-0.268141 0.019597 21.4343
0.181442 -0.292512 21.2652
0.368927 -0.397672 21.0989
0.4249 -0.467736 20.8525
-0.680929 -0.733407 19.1923
-1.6381 -3.62723 20.8591
-0.404298 -0.476771 21.2254
-0.127893 0.0948822 20.2579
0.0174439 1.07215 18.9199
0.0593908 1.21535 18.2521
0.147155 1.18575 19.1316
-0.919771 -0.57002 18.7633
0.525362 1.56902 11.4707
0.940641 1.26887 14.2626
-1.21823 0.250846 18.3566
1.45471 -0.145275 7.12065
2.09625 -0.233935 11.3949
-0.595104 0.904649 19.4745
-1.13266 1.78085 20.2422
-1.23808 1.43976 21.2294
-0.374682 0.200812 21.9241
0.13549 -0.528626 21.4381
0.276123 -0.792455 21.1219
0.257646 -0.78729 20.6097
0.682233 -0.726034 19.1995
1.633 -3.65341 20.8636
0.405551 -0.480133 21.1893
0.136115 0.0887531 20.1792
0.0257264 1.00992 18.7588
-0.180259 1.22309 18.5823
-0.326879 1.01796 19.863
0.932977 -0.556051 18.789
-0.810031 1.62853 12.2934
-1.14136 1.04008 15.1143
1.22928 0.244763 18.4015
-1.54667 -0.155289 8.61683
-2.01122 -0.148851 12.8505
0.61156 0.862221 19.509
1.13983 1.69298 20.2529
1.23486 1.41486 21.2307
0.374666 0.225746 21.9601
-0.1073 -0.543284 21.4754
-0.267107 -0.80182 21.1431
-0.266767 -0.787013 20.6001
0.650949 -0.29413 19.8338
1.28113 -0.739495 20.5194
0.44046 -0.348281 21.3164
-0.0744096 0.00593379 21.4746
-0.597911 0.399964 21.3263
-0.753989 0.409351 20.8968
-0.608788 0.269394 20.5405
0.808722 -0.201135 19.7301
1.74663 -0.584752 20.4904
0.596704 -0.411616 21.3654
-0.0772092 -0.106451 21.5675
-0.873173 0.272338 21.3903
-1.06018 0.298284 20.9943
-0.774585 0.159227 20.4822
0.909454 0.0842022 19.6956
1.85443 0.130532 20.4968
0.980499 -0.214861 21.3434
0.135741 -0.206747 21.6356
-0.762891 -0.29458 21.4165
-1.03798 -0.307504 21.0204
-0.850128 -0.32779 20.2821
0.587103 0.394866 19.9711
0.927698 0.602858 20.4431
0.795933 0.376136 21.1143
0.27587 0.02148 21.4381
-0.181577 -0.308263 21.2613
-0.368586 -0.410535 21.0874
-0.433187 -0.463154 20.8505
-1.1134 -0.0941864 1.50017
4.68604e-07 -0.00274388 0.0316038
-0.0210888 0.0015606 0.19313
-0.00427556 -0.0049349 0.0040377
-0.00269093 0.0114044 0.0969497
0 0 0
3.78786e-05 0.210753 0.440696
-0.138077 -0.0820524 0.4293
-0.00598375 0.0588584 -0.0913544
0.0844067 0.0442701 0.382701
1.08993 -0.0921333 1.4664
0.0216672 0.0017793 0.195723
0.00552085 -0.00366483 0.00257336
0 0 0
0.138598 -0.0823414 0.429797
-0.0849506 0.0452484 0.380685
0 0 0
-0.000368536 0.00103333 0.0246087
-3.66008e-05 -0.000924761 0.0271218
-0.000187685 0.00462953 0.017457
-0.000120006 -0.00235471 0.114311
0.0440086 0.0720833 0.329222
4.59934e-07 0.0178151 0.0395333
-1.88905e-05 -0.00233686 0.0217019
0 0 0
0.000366157 0.00101999 0.0245248
0.000198985 0.00485655 0.0182754
-0.0441935 0.0721505 0.329657
-0.000100699 0.000578527 0.0512522
-3.92534e-05 0.000651214 0.00478051
0.00116753 0.00653743 0.0512939
0 0 0
-2.06296e-05 -0.00178146 0.0604996
0 0 0
-1.20905e-05 0.20133 0.171805
0 0 0
0 0 0
-2.27014e-06 0.00278457 0.0301135
0 0 0
9.98971e-05 0.000599172 0.0512241
4.03577e-05 0.000669446 0.0049033
-0.00115881 0.0065976 0.0511319
-3.55297 -1.81014 20.3388
-2.56017 -6.0127 21.0993
-2.4069 -1.9962 17.5685
1.17181 1.25029 16.7211
-0.244786 1.14358 12.2264
-0.215983 1.00175 6.65401
-3.91905 0.600409 20.5196
-3.7409 1.39916 16.6145
-2.57685 3.12776 20.1412
1.3907 -0.052376 17.2416
0.339756 -0.138598 3.98179
0.684698 -0.726965 18.1237
2.56154 -6.03991 21.1082
2.41507 -1.96289 17.603
3.58931 -1.84368 20.33
0.308276 1.06519 11.8878
0.0228602 1.07273 7.37336
-1.14862 1.2243 16.884
3.72534 1.3627 16.7188
2.59023 3.01276 20.1526
3.91806 0.604361 20.5173
-0.498751 -0.122512 4.83308
-0.721082 -0.701572 17.1823
-1.37273 -0.0499687 17.3342
-0.253754 -0.499922 20.6907
-0.460842 -0.121211 14.996
0.179084 0.278194 18.7268
-0.0911068 0.0777929 13.6339
-1.55601 -0.608012 21.6352
-2.86395 1.54456 21.3916
-0.118495 -0.38028 20.7953
-0.356919 -0.0586949 21.2097
0.463188 -0.12185 14.8885
0.249516 -0.494879 20.6164
0.0767507 0.0698458 13.4235
-0.178536 0.274721 18.7219
2.84727 1.51921 21.3916
1.55714 -0.61016 21.6322
0.314405 -0.0465502 20.8839
0.117479 -0.377194 20.7927
-1.01306 -0.521114 20.0146
-0.737725 -0.268231 19.7857
-0.710737 -0.461824 19.5728
-0.865315 -0.560774 21.1786
-1.4896 -0.675225 20.5005
-1.82909 -1.68762 20.5442
-0.161688 -0.15654 21.421
-0.527493 -0.388188 21.3211
-0.374034 -0.422955 21.5281
0.334467 0.206224 21.497
0.0684325 -0.0469202 21.4846
0.0457957 0.105459 21.5246
0.708056 0.458462 21.2459
0.757876 0.381871 21.3641
0.584066 0.87353 21.0638
0.782263 0.378362 20.9077
0.974999 0.452882 20.9008
0.793486 0.975603 20.6316
0.704752 0.362201 20.5612
0.661087 0.749908 20.6956
-1.36148 -0.375887 19.8715
-0.895464 -0.0987112 19.6722
-0.907196 -0.39112 19.3292
-1.16801 -0.531781 21.2728
-1.85148 -0.239722 20.502
-0.245407 -0.277367 21.4898
-0.801516 -0.378261 21.3723
0.45516 0.104516 21.6095
-0.014146 -0.205866 21.6353
1.0705 0.34369 21.1097
0.980123 -0.0423445 21.3519
1.19839 0.222182 20.6871
1.32014 0.0438518 20.7602
1.48311 1.12342 18.5433
1.1365 0.0591898 20.3035
1.08761 0.746851 20.0491
-1.49844 0.138788 19.8587
-0.819619 0.335826 19.7812
-1.19298 0.151733 19.1446
-1.42224 -0.0745719 21.147
-1.42531 0.555146 20.4434
-0.610987 -0.241916 21.5347
-1.03416 0.160468 21.2376
0.324092 -0.230903 21.6557
-0.262185 -0.116698 21.5763
0.986343 -0.366131 21.196
0.414423 -0.407374 21.367
1.08825 -0.380021 21.1558
0.665535 -0.514548 21.1216
1.65057 -0.308995 18.1972
0.56435 -0.498361 20.7696
1.42651 -0.239706 19.8657
-0.802754 0.553817 20.1343
-0.673088 0.63559 19.7312
-0.92237 0.54104 20.8198
-1.14144 1.11173 20.3574
-0.570861 0.219029 21.3266
-1.06692 0.767111 21.1961
-0.0114273 -0.154852 21.4099
-0.335056 0.0880503 21.6527
0.283716 -0.376901 21.1547
0.188784 -0.412284 21.3813
0.406308 -0.468335 20.8085
0.368435 -0.625802 21.0662
0.399534 -0.572067 20.6161
-1.37055 -1.92315 18.9969
-0.788426 -0.693727 19.0088
0.00464767 -1.03748 18.7716
-0.624733 -1.23736 22.0868
-0.00337691 -3.50163 21.8147
-0.272805 -0.191848 20.458
-0.00737687 -0.622129 21.2325
-0.0513712 0.496662 19.5601
-0.0120887 -0.00535551 20.0945
0.0825308 1.16912 18.9722
-0.0425346 0.523533 18.2367
0.503854 1.32731 18.1332
0.164826 1.52135 15.2144
-0.0366069 0.850639 17.3683
0.197842 1.39973 16.9893
0.00710838 1.30171 15.3482
-1.09806 -0.267482 18.4379
0.0177235 -0.909988 17.9425
1.10647 1.38091 13.1083
1.32977 0.835598 5.42854
0.0456241 -0.0707216 3.39312
2.77624 0.816345 10.4172
-0.134952 0.77174 8.60999
-0.942874 0.862994 18.8847
0.0225599 0.467325 17.0733
2.12159 -0.318441 10.0391
0.821984 -1.07299 18.4714
0.0350898 -0.173928 -2.63558
0.834812 -1.07234 18.9679
-0.267783 -1.86673 1.18024
-0.917331 1.47586 19.6685
0.0242868 1.22675 19.2001
-1.12945 1.58062 20.7706
0.0346398 2.52757 20.1115
-0.918739 0.931649 21.8594
0.0120215 2.71381 21.0713
-0.0324159 -0.275924 21.6971
-0.0240171 0.50287 22.3146
0.206236 -0.658454 21.2937
-0.0100927 -0.519672 21.5701
0.297242 -0.814458 20.8662
0.00186713 -0.875789 21.296
-0.00499578 -0.957052 20.9852
1.37107 -1.91566 19.0022
0.794695 -0.687293 19.0181
0.710335 -0.461282 19.5786
0.619786 -1.24503 22.1228
1.8408 -1.70838 20.545
0.278554 -0.197269 20.4327
0.37657 -0.423717 21.5332
0.0640733 0.465667 19.359
-0.0371202 0.109057 21.5233
-0.0887114 1.136 18.953
-0.558347 0.894038 20.9578
-0.567725 1.25376 18.6724
-0.374003 1.54987 15.7274
-0.827711 0.915367 20.5969
-0.386549 1.19381 17.7596
-0.699971 0.711712 20.6082
1.10678 -0.264815 18.4731
0.902008 -0.379281 19.3418
-1.23285 1.32412 13.872
-1.4761 0.936267 6.93086
-1.43175 0.922063 19.6821
-2.52858 0.722918 12.8855
-0.977801 0.667641 20.7816
0.957832 0.832507 18.9331
1.18086 0.148838 19.1864
-2.18995 -0.47506 11.313
-0.835399 -1.06054 18.7754
-1.55168 -0.363795 19.1261
-0.797588 -1.02171 19.8375
-1.32814 -0.270961 20.4161
0.92956 1.39911 19.6966
0.673049 0.601009 19.7525
1.14382 1.53161 20.7778
1.13214 1.04454 20.3695
0.919114 0.965328 21.879
1.06066 0.755158 21.1934
0.0363426 -0.283729 21.7216
0.333839 0.0935638 21.6844
-0.182484 -0.671249 21.3313
-0.189072 -0.425528 21.3974
-0.294888 -0.818787 20.8606
-0.369436 -0.628138 21.0776
-0.399418 -0.560816 20.6178
1.01564 -0.523647 20.0126
0.729781 -0.262905 19.7911
0.877315 -0.580747 21.1901
1.50057 -0.695555 20.5106
0.169742 -0.168052 21.4226
0.524139 -0.399617 21.3341
-0.330797 0.197221 21.4977
-0.0722339 -0.0502717 21.4934
-0.695527 0.423097 21.2319
-0.743521 0.378346 21.3588
-0.751393 0.317852 20.929
-0.924223 0.408732 20.9476
-0.680223 0.232743 20.5039
1.35553 -0.377265 19.8743
0.887223 -0.0928901 19.6804
1.16678 -0.539608 21.2816
1.8619 -0.241737 20.5057
0.243452 -0.277956 21.4874
0.801065 -0.379066 21.3773
-0.445802 0.0928877 21.5961
0.017199 -0.205072 21.6326
-1.0177 0.308109 21.1071
-0.953421 -0.0370167 21.3524
-1.07056 0.180939 20.9431
-1.23051 0.0350697 20.8182
-0.982552 -0.060916 20.2348
1.48249 0.137055 19.872
0.810136 0.321477 19.8045
1.42307 -0.0735951 21.1499
1.4055 0.53737 20.4493
0.611003 -0.242371 21.5347
1.0317 0.159812 21.2373
-0.322414 -0.225373 21.6509
0.265914 -0.121643 21.5843
-0.941433 -0.329417 21.2113
-0.414807 -0.411626 21.376
-1.01325 -0.3191 21.3486
-0.654322 -0.501324 21.1164
-0.528044 -0.465822 20.7109
0.789816 0.528448 20.1477
0.913289 0.523732 20.818
0.578999 0.223049 21.331
0.017469 -0.159832 21.4259
-0.283034 -0.382423 21.1681
-0.407302 -0.464771 20.8067
-1.16999 -0.485725 19.9609
-1.84345 -2.10763 18.4147
-1.33059 -1.0319 19.6309
-1.9706 -0.928386 19.1277
-0.811938 -0.43024 19.4693
-2.58373 -1.90383 20.4711
-1.03413 -0.569204 21.2013
-0.643791 -0.57782 17.1813
-0.899651 -0.968195 21.5707
-1.23132 -1.12943 21.9097
-0.337789 -0.453075 21.4981
-0.215637 -0.229352 21.4297
-0.253014 -0.0443175 13.8238
-0.147998 -0.167701 21.5225
-0.00349444 -0.0982805 19.4974
0.120304 0.170874 20.8611
0.387766 0.154825 21.5451
-0.131931 0.406901 12.3599
0.291465 0.456535 21.4152
0.466933 0.686127 17.6182
0.856765 1.12555 19.6985
0.885086 0.439624 21.1791
-0.0485699 1.22948 13.5962
0.713578 0.921275 20.7911
1.26893 1.19828 17.6868
1.14678 1.15821 20.2824
0.967556 0.43599 20.8111
0.537711 1.47634 16.2908
0.903206 1.01617 20.4564
1.42453 1.03518 19.1145
0.791638 0.89722 20.7601
-1.48692 -0.156712 19.8429
-3.50084 -0.706794 16.479
-2.51887 0.443227 19.0233
-1.10669 -0.149692 19.1665
-4.2603 -0.569234 20.3683
-1.35484 -0.34115 21.2481
-2.21468 -0.263878 21.7174
-0.752715 -0.864886 20.9741
-0.415524 -0.317566 21.5251
-0.914034 -0.612462 21.4532
0.209669 0.0545439 18.6953
0.445968 -0.0995492 21.6417
0.642683 -0.0444319 19.2959
1.49686 0.662796 15.4091
1.16489 -0.0325322 21.1193
0.269628 0.415516 2.72134
1.51017 -0.226879 17.7228
2.10523 0.548287 17.5062
1.28739 0.0644582 20.8329
2.1229 1.09061 8.36637
1.68493 -0.264119 18.5213
1.79511 0.527199 20.6042
-1.19932 0.495658 19.9704
-1.90196 2.06237 18.741
-0.962345 0.948809 19.9274
-0.959237 0.551395 19.3971
-2.12606 1.28829 20.3337
-1.27373 0.358089 20.9436
-2.34712 1.86643 21.0577
-1.168 0.966556 20.8217
-1.70089 0.44045 21.3906
-0.712575 0.0182342 21.4874
-2.01636 0.585966 22.0507
-0.765958 0.465986 21.567
-0.396475 -0.0925618 21.9237
0.116332 -0.265822 21.5432
0.416987 -0.542839 19.8973
-0.0105466 -0.213144 21.5445
0.477477 -0.65233 21.4948
0.566434 -0.479465 21.2053
0.667478 -0.898754 18.2162
0.287765 -0.51322 21.2459
0.766189 -0.85483 21.079
0.672342 -0.557684 20.8291
0.849639 -1.2588 18.7137
0.413721 -0.661522 20.9099
0.751329 -0.756398 20.4531
1.85099 -2.09143 18.4314
0.00112931 -3.22478 18.5335
0.0177996 -4.69276 15.1044
0.00502876 -1.06061 18.4278
-0.00183367 -3.88074 22.5779
0.64154 -0.56742 17.0497
-0.00354393 -1.08878 21.8699
-0.0053335 -0.411187 14.9166
0.252321 -0.0510508 13.707
-0.00729744 -0.329032 20.4442
-0.0061533 0.0422979 12.903
0.12921 0.374492 12.1388
-0.0139761 0.275631 19.2036
-0.0714299 0.386842 10.4139
0.0163602 1.20888 13.7707
-0.0341016 0.566277 18.3543
-0.0191115 -0.482942 1.35992
-0.0524368 0.764652 11.4544
-0.649389 1.42858 16.9349
-0.0190808 0.918649 16.4958
0.0329146 0.315331 6.29403
-0.056237 1.53575 12.5438
3.48506 -0.682563 16.5702
0.048636 4.22542 12.1234
0.0171487 -0.421169 17.3401
-0.361767 0.408123 3.34385
0.0298403 0.41322 -2.15965
0.0965273 -1.23569 -4.94228
-2.06283 0.957615 10.1689
-0.156153 -1.19209 -1.6274
-0.135996 -1.69745 -1.42107
1.90506 1.9818 18.8043
0.0299024 2.08791 19.3921
0.0280363 1.35263 18.1814
0.0411515 4.81365 20.0513
2.33913 1.81335 21.0598
0.0254983 2.38848 20.6036
0.012178 4.72096 19.2135
2.04691 0.607019 22.0471
-0.0193845 1.97228 22.3316
-0.00108692 -0.177114 13.2319
-0.472239 -0.543573 19.4864
-0.0162737 -0.220883 21.9654
-0.0105411 -0.331985 6.49969
-0.674587 -0.868141 18.0168
-0.00438263 -0.669877 21.4659
-0.0401584 -0.584685 8.58757
-0.855858 -1.2628 19.2804
0.000312301 -0.898703 20.9298
-0.0397728 -1.22599 12.4099
1.16481 -0.493909 19.9631
1.33841 -1.03649 19.6315
1.96557 -0.921775 19.1345
0.814844 -0.433991 19.4744
2.60383 -1.94194 20.4671
1.03141 -0.584779 21.2214
0.900553 -0.974017 21.5767
1.22567 -1.13021 21.8784
0.339541 -0.451717 21.4898
0.213188 -0.237508 21.4317
0.151579 -0.163061 21.5174
0.00382648 -0.097567 19.4583
-0.109495 0.186176 20.6909
-0.386513 0.150936 21.545
-0.273597 0.461807 21.3316
-0.462326 0.677182 17.6568
-0.822601 1.12031 19.6006
-0.848938 0.407124 21.1717
-0.703805 0.89292 20.7818
-1.27285 1.07525 18.3326
-1.1414 1.01391 20.3477
-0.916687 0.29988 20.9369
-0.920028 0.931666 20.5124
-1.41838 0.891871 19.6028
-0.788512 0.742936 20.8042
1.47934 -0.153339 19.8538
2.4806 0.426018 19.0591
1.09454 -0.146592 19.1912
4.28461 -0.571759 20.3672
1.35832 -0.340982 21.2527
2.21494 -0.264925 21.7192
0.747015 -0.866581 20.9117
0.412399 -0.31471 21.5282
0.913728 -0.613095 21.448
-0.209709 0.0525966 18.7014
-0.440858 -0.0993267 21.6335
-0.636706 -0.0456201 19.3346
-1.47401 0.65888 15.5282
-1.10019 -0.024684 21.1458
-1.43955 -0.265169 18.4271
-1.96849 0.410585 18.3134
-1.16418 0.00254598 21.5166
-1.51586 -0.295028 19.5622
-1.64525 0.440061 20.5198
1.18088 0.47806 19.9883
0.958426 0.895928 19.9506
0.947494 0.524068 19.4377
2.08563 1.22965 20.3431
1.26236 0.352123 20.9421
1.15183 0.927827 20.8221
1.69172 0.437927 21.3891
0.718651 0.017009 21.4928
0.771319 0.482352 21.5764
0.403045 -0.0904713 21.9474
-0.120098 -0.270599 21.5548
0.00654346 -0.218752 21.5632
-0.471542 -0.669421 21.5088
-0.563189 -0.47705 21.2049
-0.28661 -0.529305 21.2461
-0.762472 -0.825773 21.0884
-0.65922 -0.534157 20.848
-0.4146 -0.656761 20.9142
-0.737182 -0.6847 20.5578
-1.62791 -0.998138 19.3964
-1.04596 -1.04401 21.8056
-0.0941943 -0.142135 21.1609
0.405546 0.579007 20.154
0.992532 1.08334 20.1256
1.13851 1.24232 20.2457
-2.45935 -0.323155 18.9303
-1.81872 -0.867631 22.2172
-0.234535 -0.49034 19.6628
0.619247 0.511078 17.3483
1.68234 0.592344 16.3465
1.9832 0.524615 17.3507
-1.64818 1.03325 19.5501
-1.8881 0.792246 21.0699
-1.16373 0.16476 21.8553
0.160242 -0.377947 21.774
0.608757 -0.786485 21.2838
0.842955 -0.851961 20.7144
0.00435284 -4.048 17.3548
-0.000935502 -0.492269 16.6168
-0.00652448 -0.176036 13.4121
-0.0201238 0.207624 11.5546
-0.0870818 0.154409 10.6587
-0.00348276 1.03362 12.0021
0.0336181 -1.09983 11.4895
0.0651475 -0.647756 -4.08491
0.14796 -1.46887 -4.35485
0.0436673 3.72601 17.7398
0.024915 3.40835 20.4308
-0.0122981 2.25549 17.0522
-0.00674631 -0.257858 8.22023
-0.0316629 -0.278094 7.40189
-0.0451152 -1.35688 11.3778
1.63244 -0.998212 19.3979
1.04501 -1.05039 21.8091
0.0981548 -0.134273 21.0915
-0.388761 0.586189 20.0108
-0.973288 1.04524 20.1463
-1.17932 1.07158 20.195
2.4308 -0.317576 18.9613
1.8148 -0.874081 22.1996
0.233934 -0.48971 19.6351
-0.617548 0.50321 17.4121
-1.63678 0.496353 17.1947
-1.87687 0.364758 17.9702
1.61726 0.977195 19.6008
1.86633 0.774919 21.0667
1.17817 0.170737 21.8647
-0.167062 -0.386372 21.7843
-0.603471 -0.777074 21.2864
-0.837256 -0.809217 20.7648
-1.11172 -0.313938 1.20666
0 0 0
-0.0407421 -0.00376961 0.309129
0.0131852 -0.00278829 0.0380547
-0.0253271 0.0324453 0.104311
-0.0129172 0.0317913 0.216585
-0.645075 0.0535787 0.992759
-0.0421049 0.342566 0.651589
-0.0802336 0.0130647 0.309236
0.002586 -0.00834205 0.0210853
-0.0451077 0.0259275 -0.0387115
0.046985 -0.0367639 0.452676
0 0 0
1.0521 -0.297572 1.14057
0.040424 -0.00397506 0.308111
0.0219193 0.0310221 0.101194
-0.0103435 -0.0037826 0.0349187
0.0206033 0.0332213 0.205858
0.0431222 0.349183 0.663604
0.671244 0.0564463 1.03372
0.0813815 0.0133839 0.313868
0.0402247 0.0338437 -0.0436543
-0.00220316 -0.00726404 0.019538
-0.0488883 -0.0337771 0.448804
-0.0115429 -0.0022742 0.0934136
-0.00123992 -0.000234867 0.118409
0 0 0
0 0 0
0 0 0
-0.000450268 0.000191235 0.0505984
0 0 0
0 0 0
-0.230472 -0.135045 0.826703
-0.00155246 -0.00188925 0.0771336
-0.000712622 0.0123657 0.229481
-0.136311 0.0414365 0.186849
0.0627348 0.0680489 0.234487
0.00558954 0.0184425 0.0599974
0.0646754 0.116544 0.394734
0.106379 -0.0111251 0.327654
0.011702 -0.00223845 0.0935127
0 0 0
0.00110594 -0.000172266 0.124261
0 0 0
0 0 0
0 0 0
0.000302849 0.000207818 0.0435174
0 0 0
0.231102 -0.13515 0.827454
0.127596 0.0397904 0.175227
0.00149886 -0.00188828 0.0758818
0.000585403 0.0124783 0.229251
-0.0627831 0.0682473 0.233148
-0.107565 -0.0107708 0.328919
-0.005538 0.0183245 0.0594646
-0.0645079 0.116193 0.394699
-0.00295944 -0.00352894 0.0583152
-0.0701467 -0.0232002 0.0405607
4.73913e-05 0.000571137 0.0633126
-7.16161e-05 -0.147495 0.0637924
0 0 0
-0.00609449 -0.000928753 0.052472
0.0577223 0.0302144 0.329519
-0.0113159 0.000264684 -0.00180154
-0.000198876 3.34466e-05 0.0200451
-0.0154002 -0.10047 -0.0164287
7.68406e-05 0.00109513 0.00778899
0 0 0
0.00767506 1.49888 1.10662
1.98457e-05 0.0171647 0.10242
-3.37697e-05 -0.000137728 0.00345887
-0.00852265 0.000571085 0.0195267
0 0 0
-0.000166702 0.00130076 -0.0102593
0.00429551 0.0250963 0.160647
0 0 0
0.0726346 -0.0239722 0.0419655
0.00295984 -0.00352152 0.0583094
0.00604594 -0.000921285 0.0516619
0 0 0
0.00881295 0.000143857 -0.00159805
-0.0559333 0.0298733 0.319464
0 0 0
-5.05128e-05 0.000727567 0.00512367
0.00838566 0.000526606 0.0190892
3.47599e-05 -0.000140485 0.00356427
0 0 0
-0.00429429 0.0253861 0.160274
0 0 0
0 0 0
0.00278964 -0.00251552 0.032826
-0.000301275 0.00138696 0.0181217
0 0 0
0 0 0
-5.72013e-06 0.00469818 0.0282819
-0.000255519 0.00753723 0.0577193
1.30449e-07 -2.79844e-08 -9.23056e-05
-6.02804e-08 7.05e-07 3.3106e-05
0.000367195 0.00775398 0.0454222
-0.0639825 0.0710041 0.795439
9.43903e-23 6.2065e-20 1.62327e-19
-5.86676e-06 0.0159369 0.0475341
-1.39374e-06 -0.000105001 0.0120459
-7.21165e-06 0.00115148 -0.00286384
0 0 0
0 0 0
-0.00280324 -0.00253006 0.0329164
0.000299566 0.00138098 0.0180245
6.63248e-06 0.00472451 0.0283475
0.000254732 0.00820358 0.0622309
0.0634583 0.0706749 0.792232
-0.000368151 0.00778386 0.0454926
0 0 0
-0.00400161 -0.00567297 0.0729834
0.0118864 -0.00219583 0.147527
0 0 0
0 0 0
-0.000211702 0.00687008 0.0709093
0 0 0
0.000761315 0.00411173 0.0202091
9.35424e-19 1.50077e-17 1.53694e-16
0.00013043 0.00100576 0.00343786
0.0137407 0.00584124 0.0512126
0.0131301 -0.00309923 0.0505554