# vtk DataFile Version 2.0
tri_press
ASCII
DATASET UNSTRUCTURED_GRID
POINTS 3682 float
-0.795 0.315 -2.14806
-0.775 0.305 2.20527
-0.765 0.685 -2.15952
-0.746479 0.725 2.175
0.795 0.315 -2.15049
0.775332 0.305 2.205
0.765 0.685 -2.15946
0.746413 0.725 2.175
-0.818956 0.281044 -0.69695
-0.845635 0.244365 0.75416
-0.818368 0.757875 -0.71468
-0.813175 0.772189 0.73016
0.819028 0.281083 -0.69866
0.845635 0.244587 0.75317
0.818315 0.757844 -0.71464
0.813112 0.77217 0.73018
-1.60957 0.0748728 -3.29723
-1.60914 0.0835234 -2.13876
-1.62953 0.0502442 -0.687437
-1.64307 0.0151191 0.765135
-1.60545 0.042465 2.21657
-1.59191 0.0572284 3.37556
-1.59447 0.059935 4.53361
-1.60579 0.289701 -3.30478
-1.6046 0.310141 -2.14708
-1.63214 0.290479 -0.697072
-1.64254 0.2543 0.753456
-1.58182 0.276283 2.2036
-1.57602 0.289639 3.36254
-1.58624 0.292484 4.52084
-1.5934 0.699257 -3.31846
-1.58578 0.718402 -2.16085
-1.62566 0.763098 -0.715184
-1.61986 0.760129 0.730033
-1.55899 0.729922 2.17589
-1.56362 0.741418 3.33518
-1.5804 0.751673 4.49458
-1.59322 1.37757 -3.34356
-1.5931 1.405 -2.18673
-1.60825 1.45431 -0.743199
-1.61575 1.47797 0.698992
-1.60564 1.46743 2.14271
-1.59885 1.45974 3.29995
-1.59889 1.46001 4.45858
-0.807066 0.0773037 -3.29821
-0.798308 0.08784 -2.13994
-0.812218 0.0456912 -0.687833
-0.834315 0.00887166 0.765629
-0.808406 0.0572247 2.21777
-0.798077 0.0677252 3.37632
-0.800206 0.0652954 4.53395
-0.807636 0.288227 -3.30536
-0.78591 0.300462 3.36315
-0.794593 0.29745 4.52106
-0.797212 0.685109 -3.31795
-0.776684 0.742342 3.33489
-0.791186 0.752989 4.49437
-0.79016 1.36819 -3.34305
-0.786261 1.39631 -2.18611
-0.799746 1.45293 -0.742888
-0.813088 1.48118 0.698736
-0.81119 1.4682 2.14208
-0.806222 1.45909 3.29931
-0.805288 1.45946 4.45805
0.79199 0.0773121 -3.29978
0.807083 0.0878515 -2.14191
0.825111 0.0457431 -0.689374
0.827564 0.00902576 0.764666
0.781494 0.0572828 2.21729
0.780756 0.0677702 3.37589
0.784212 0.0653438 4.5335
0.780999 0.288231 -3.30686
0.775644 0.300492 3.36283
0.781699 0.297492 4.52066
0.773642 0.68511 -3.31867
0.765978 0.742364 3.33468
0.777673 0.753025 4.49403
0.806909 1.36819 -3.34361
0.815447 1.39631 -2.18654
0.814899 1.45293 -0.743238
0.79664 1.48119 0.698432
0.777634 1.46822 2.14179
0.775898 1.45912 3.29898
0.779512 1.4595 4.45768
1.59632 0.0748935 -3.30004
1.61185 0.0835508 -2.14191
1.63722 0.0503359 -0.690036
1.64329 0.0153372 0.763388
1.5963 0.0426106 2.21548
1.58183 0.0573353 3.37462
1.58235 0.0600364 4.53266
1.58528 0.289712 -3.30744
1.60087 0.310149 -2.15015
1.63268 0.290541 -0.69952
1.64708 0.254521 0.751881
1.58796 0.276406 2.20271
1.57319 0.289727 3.36176
1.57731 0.292576 4.51998
1.57612 0.69926 -3.32009
1.5838 0.718393 -2.16213
1.62604 0.763089 -0.716203
1.62336 0.760191 0.72932
1.56457 0.729998 2.17538
1.56022 0.741486 3.3346
1.57076 0.751751 4.49384
1.60693 1.37758 -3.34476
1.61599 1.40501 -2.18772
1.62072 1.45432 -0.744024
1.60469 1.478 0.698279
1.58084 1.46748 2.14205
1.57432 1.4598 3.29924
1.57648 1.46008 4.4578
-0.766646 0.5 -2.14044
0 0.276499 -2.18778
-0.825321 0.27968 -1.42251
-0.76028 0.515 2.18968
0.000165999 0.300927 2.20921
-0.843373 0.241627 1.47972
0 0.715363 -2.18985
-0.807066 0.736819 -1.4371
-3.29912e-05 0.746762 2.19676
-0.796236 0.765004 1.45258
0.778512 0.5 -2.15349
0.824955 0.2801 -1.42458
0.760421 0.515 2.18955
0.84357 0.241707 1.47909
0.807066 0.73683 -1.43705
0.796157 0.76498 1.45259
-0.819806 0.275194 0.028605
-0.845662 0.519459 -0.705815
3.60653e-05 0.148266 -0.697805
-0.844658 0.508277 0.74216
-2.80348e-07 0.149479 0.753665
-0.815563 0.764823 0.00774002
-2.63043e-05 0.992611 -0.71466
-3.13613e-05 1.26343 0.73017
0.819863 0.275303 0.0272549
0.845613 0.519463 -0.70665
0.844603 0.508378 0.741675
0.815519 0.764812 0.00776994
-0.84138 0.50973 -1.4298
0.841366 0.509732 -1.43081
1.80326e-05 0.208336 -1.42354
-1.31521e-05 0.819473 -1.43708
0 0.5 -2.19558
-0.845593 0.513868 0.0181725
0.845531 0.513921 0.0175124
1.78925e-05 0.148269 0.02793
-2.88328e-05 1.29119 0.00775498
-0.869655 0.511638 1.46615
0.870077 0.511689 1.46584
8.28593e-05 0.193711 1.4794
-3.21762e-05 0.925146 1.45259
6.65039e-05 0.515 2.19564
-0.748383 0.4075 -2.11181
-0.3975 0.280668 -2.183
-0.822994 0.284506 -1.78528
-0.756836 0.41 2.18667
-0.387417 0.30131 2.20889
-0.76919 0.31331 1.84249
-0.772171 0.5925 -2.15633
-0.3825 0.702429 -2.17693
-0.794615 0.719492 -1.79831
-0.756583 0.62 2.18554
-0.373256 0.745153 2.19515
-0.777841 0.751485 1.81379
0.3975 0.280738 -2.18414
0.74846 0.4075 -2.11369
0.821493 0.286035 -1.78753
0.387749 0.301282 2.20879
0.768325 0.41 2.19772
0.769251 0.313553 1.84204
0.3825 0.702437 -2.17691
0.776411 0.5925 -2.16113
0.79458 0.719462 -1.79826
0.37319 0.745169 2.19517
0.742227 0.62 2.17108
0.777774 0.751479 1.81379
-0.819773 0.282727 -1.05973
-0.820134 0.277366 -0.334173
-0.833275 0.399769 -0.701383
-0.433421 0.166732 -0.697378
-0.847989 0.239511 1.11694
-0.81755 0.27495 0.391383
-0.85204 0.372874 0.74816
-0.437208 0.168141 0.753913
-0.814656 0.749286 -1.07589
-0.846874 0.646097 -0.710248
-0.816956 0.76134 -0.35347
-0.452165 0.961178 -0.71467
-0.808639 0.77253 1.09137
-0.846705 0.649127 0.73616
-0.814821 0.768959 0.36895
-0.520757 1.24612 0.730165
0.821687 0.280896 -1.06162
0.433504 0.166732 -0.698233
0.820185 0.277453 -0.335703
0.833229 0.399819 -0.702655
0.848161 0.239588 1.11613
0.437242 0.168183 0.753418
0.817314 0.27538 0.390213
0.852027 0.373028 0.747423
0.814609 0.749255 -1.07585
0.452124 0.961186 -0.71465
0.846825 0.646084 -0.710645
0.816901 0.761312 -0.353435
0.808555 0.772495 1.09139
0.5207 1.24612 0.730175
0.846632 0.649161 0.735928
0.814766 0.768942 0.368975
-0.825387 0.504865 -1.78512
-0.383323 0.5 -2.15841
9.01632e-06 0.215811 -1.80566
0 0.388249 -2.24264
-0.827484 0.394705 -1.42615
-0.412651 0.208364 -1.42302
-0.811756 0.513319 1.82791
-0.380107 0.515 2.19755
0.000124429 0.208341 1.8443
0.000116251 0.407963 2.24061
-0.869865 0.376633 1.47293
-0.421645 0.193746 1.47956
-6.57607e-06 0.788237 -1.81346
0 0.607682 -2.21903
-0.833605 0.623275 -1.43345
-0.403539 0.798946 -1.43709
-3.25837e-05 0.844215 1.82467
1.67564e-05 0.630881 2.19788
-0.828547 0.638321 1.45936
-0.398134 0.896638 1.45258
0.824908 0.504866 -1.79215
0.389256 0.5 -2.15822
0.82739 0.394916 -1.42769
0.412487 0.208364 -1.42406
0.811697 0.513345 1.82769
0.380244 0.515 2.19755
0.8701 0.376698 1.47246
0.421826 0.193746 1.47924
0.833633 0.623281 -1.43393
0.403526 0.798943 -1.43706
0.827675 0.638335 1.45921
0.398063 0.896629 1.45259
-0.833073 0.394345 0.0233887
-0.432393 0.166733 0.0282675
-0.840479 0.514595 -1.06781
-0.845627 0.516664 -0.343821
2.7049e-05 0.199311 -1.06067
2.69789e-05 0.148268 -0.334938
-0.845558 0.511072 0.380166
-0.895459 0.509958 1.10415
8.80606e-06 0.14827 0.390798
4.12895e-05 0.186114 1.11653
-0.846891 0.647502 0.0129563
-0.530271 1.27295 0.0077475
-1.97282e-05 0.834192 -1.07587
-2.75685e-05 1.25821 -0.353453
-3.0097e-05 1.28712 0.368963
-3.17687e-05 1.16351 1.09138
0.833036 0.394443 0.0223837
0.432467 0.166732 0.0275925
0.840392 0.514598 -1.06873
0.845569 0.516692 -0.344569
0.845498 0.51115 0.379594
0.895457 0.510034 1.10376
0.84684 0.647524 0.0126412
0.530218 1.27295 0.00776246
-0.806199 0.401102 -1.7852
-0.827594 0.397478 -1.06377
-0.842439 0.630971 -1.07185
-0.822 0.607887 -1.79171
0.805947 0.401208 -1.78984
0.821902 0.60789 -1.7952
0.842379 0.630967 -1.07229
0.827589 0.397594 -1.06517
-0.405076 0.215832 -1.79547
0.404993 0.215832 -1.7966
0.411009 0.192087 -1.06115
-0.411056 0.195451 -1.0602
-0.39302 0.772717 -1.80589
-0.406368 0.812314 -1.07588
0.406335 0.812342 -1.07586
0.393013 0.772722 -1.80586
-0.390411 0.397875 -2.19947
-0.382911 0.600091 -2.15657
0.385878 0.600091 -2.15655
0.393378 0.397875 -2.19895
-0.833245 0.397021 -0.338997
-0.832148 0.388813 0.385774
-0.84693 0.648381 0.374558
-0.846901 0.646809 -0.348646
0.833203 0.397096 -0.340136
0.846867 0.646822 -0.349002
0.846868 0.648409 0.374284
0.832105 0.388949 0.384903
-0.432906 0.166735 -0.334555
0.432984 0.166734 -0.33532
0.435288 0.166591 0.390505
-0.435223 0.166592 0.39109
-0.546099 1.22683 -0.353461
-0.530301 1.26911 0.368956
0.530231 1.26908 0.368969
0.546132 1.22699 -0.353444
-0.88118 0.376477 1.11055
-0.792195 0.393316 1.8352
-0.807238 0.629161 1.82085
-0.883046 0.639277 1.09776
0.881183 0.37659 1.10994
0.883041 0.639304 1.09757
0.807214 0.629167 1.82074
0.792168 0.393349 1.83487
-0.422231 0.186156 1.11674
0.422322 0.186156 1.11633
0.404788 0.208359 1.84317
-0.404531 0.208359 1.8434
-0.402369 1.12974 1.09137
-0.385695 0.834893 1.81923
0.385626 0.834898 1.81923
0.402301 1.12972 1.09138
-0.383762 0.408982 2.23546
0.383996 0.408982 2.23545
0.376717 0.625441 2.22431
-0.376681 0.625441 2.22384
-0.797392 0.36125 -2.15563
-0.59625 0.28386 -2.1795
-0.821894 0.286856 -1.96667
-0.797629 0.3575 2.22768
-0.581208 0.300975 2.20926
-0.781455 0.299795 2.02388
-0.765602 0.63875 -2.15494
-0.57375 0.687854 -2.16237
-0.783508 0.705946 -1.97891
-0.753515 0.6725 2.18225
-0.559867 0.739202 2.1892
-0.766269 0.742352 1.99439
0.59625 0.284041 -2.18115
0.798297 0.36125 -2.15866
0.824232 0.284532 -1.96901
0.58154 0.30092 2.20911
0.797763 0.3575 2.2273
0.780797 0.300771 2.02352
0.57375 0.687831 -2.1623
0.771453 0.63875 -2.16104
0.783507 0.705948 -1.97886
0.559801 0.739226 2.18923
0.753699 0.6725 2.18242
0.766198 0.742344 1.9944
-0.81793 0.28332 -0.878339
-0.819526 0.279224 -0.515561
-0.829683 0.338623 -0.699166
-0.676259 0.123747 -0.697164
-0.850416 0.238334 0.935549
-0.816489 0.274761 0.572771
-0.849546 0.308265 0.75116
-0.682794 0.123508 0.754036
-0.818185 0.755254 -0.895285
-0.837241 0.704296 -0.712464
-0.817685 0.759631 -0.534075
-0.661213 0.91142 -0.714675
-0.811972 0.773425 0.910765
-0.834012 0.712694 0.73316
-0.814032 0.770608 0.549555
-0.672754 1.02073 0.730163
0.81797 0.283377 -0.880139
0.676346 0.123747 -0.698446
0.819576 0.279298 -0.517181
0.829517 0.338757 -0.700658
0.850572 0.238413 0.934649
0.682858 0.123546 0.753294
0.816552 0.274905 0.571691
0.849546 0.30845 0.750296
0.818136 0.755224 -0.895243
0.661191 0.911459 -0.714645
[...]
POINT_DATA 3682
SCALARS point_scalars float 1
LOOKUP_TABLE default
-61.0664
-42.4586
-87.8549
-38.3056
-57.2475
-42.4518
-98.7691
-38.2632
-36.7717
-29.3103
-47.0376
-42.5333
-36.774
-29.4194
-46.8907
-42.567
-53.1446
-93.1388
-36.8161
-38.0946
-37.2378
-41.7522
-37.2335
-53.1446
-93.4109
-36.2868
-38.2098
-37.2378
-38.182
-38.182
23.4085
-86.8381
-41.1412
-39.0164
-37.4216
-38.182
-38.182
-71.7235
-95.0402
-88.443
-55.8405
-37.1275
-39.6201
-36.8983
122.317
-108.035
-40.4327
-46.2438
-39.078
-34.777
-33.3987
122.317
-34.5495
-33.3987
98.6165
-33.5028
-33.3987
-17.5093
-112.649
-79.2455
-52.509
-36.1045
-34.236
-33.5305
123.164
-104.656
-40.0812
-46.5483
-39.1743
-34.4037
-33.384
123.164
-34.3267
-33.384
40.893
-33.5107
-33.384
-18.6706
-113.585
-84.3752
-52.0364
-36.0764
-34.2672
-33.5887
-44.2575
-95.0999
-36.768
-38.0889
-37.3587
-41.9331
-37.2055
-54.9866
-95.0999
-36.224
-37.8504
-37.3587
-38.466
-38.466
8.06195
-84.6455
-41.0487
-38.9837
-38.1208
-38.466
-38.466
-83.1315
-94.5496
-88.3618
-55.6059
-37.1447
-39.5281
-36.8814
-62.3603
-101.317
-37.8898
-37.368
-27.6114
-46.8208
-42.2611
-30.11
-33.5131
-42.7579
-80.1389
-37.7971
-37.4294
-46.6069
-29.9954
-42.7441
-35.2928
-37.7308
-45.5386
-31.4249
-43.405
-49.3279
46.839
-58.2288
-35.2661
-37.6627
-31.3112
-49.3105
-38.6655
-38.379
-43.2389
-12.9742
201.781
-38.5772
-38.5697
-38.3567
-94.8828
-47.0826
-47.1125
-35.0242
-38.6274
-22.4249
-82.6541
-81.2221
-56.6948
-38.1568
-32.2635
-32.8489
-36.2047
27.918
-49.1145
-37.2769
-33.2467
-37.6919
-81.4111
-84.9597
-56.0384
-32.2418
-38.322
-32.7544
28.2699
-53.3703
-48.9778
-33.2601
-36.7974
-37.7047
-32.943
-36.7198
-36.6839
-45.8627
-40.7132
-32.8019
-27.3825
-43.1633
-25.5323
-40.9567
-53.6804
28.2692
-47.408
-38.2274
-44.6546
-58.2854
-33.122
-45.832
-36.6759
-36.6248
-40.751
-43.0831
-32.8169
-27.3538
-25.4514
28.0549
-40.869
-53.5891
-47.4066
-58.1823
-38.2115
-44.4447
-58.2115
188.281
-73.3248
199.857
-38.9044
-41.4805
-35.1561
-30.2819
-33.8287
-22.2112
-49.2392
-35.8592
-46.0311
182.42
-36.0756
-17.1399
-36.7797
-26.0985
-42.9225
-39.7903
-58.3781
187.779
-38.706
-41.4908
-35.1446
-30.2688
-49.3512
-35.8608
-35.7765
-17.1796
-42.8946
-39.7815
-36.8513
-37.4309
-33.3392
-40.0123
-28.6886
-40.4752
-35.6098
-45.2643
-38.8893
-35.8824
-42.5695
-79.0858
12.7323
-86.9732
-71.8703
-44.5099
-36.8339
-37.4222
-33.1644
-39.9815
-35.5723
-45.2452
-42.5776
-79.0398
-59.6636
-34.0056
-31.7911
-55.1813
-60.4528
-54.7695
-31.5949
-33.8494
-70.7679
-71.6087
-26.8595
-26.6635
-48.7629
4.09911
4.03274
-48.8998
196.308
177.075
176.594
196.318
-37.9838
-33.9636
-39.0291
-45.0393
-37.947
-45.0158
-39.0662
-33.9712
-39.2299
-39.2176
-37.9114
-37.9243
-109.91
-62.7004
-62.6816
-110.163
-43.37
-33.6542
-36.1627
-47.0185
-43.3448
-46.9687
-36.1657
-33.559
-36.2481
-36.2464
-34.9054
-34.9166
-45.9327
-37.034
-37.0335
-45.9222
-29.8539
-30.1843
-30.8737
-30.8845
-33.897
-58.1577
-84.5827
-40.6493
-35.2107
-31.2421
-9.9994
78.8402
-74.2475
-38.8713
-33.2398
-36.8556
-62.5962
-33.4286
-87.3489
-35.204
-40.8777
-31.3524
85.4041
-17.9726
-73.5479
-33.2396
-38.4879
-36.8834
-35.6483
-36.8245
-36.3846
-43.6632
-41.33
-29.8925
-27.7968
-45.473
-34.8762
-43.7148
-53.0292
-28.8353
-45.7753
-40.6715
-42.5448
-48.5243
-35.5475
-43.5768
-36.8316
-36.3318
-41.4255
-45.3925
-29.904
-27.7854
-34.7191
-28.7849
-43.6018
-52.9147
-45.78
-48.4641
-40.6861
-42.5987
-65.2787
-43.1377
-92.8931
177.785
-93.6165
-92.6377
-105.212
97.5706
-45.0455
-35.4138
-38.588
-39.2115
-38.0541
-37.032
-35.7188
-32.4864
-29.0991
-29.0763
-32.3868
-22.6939
-38.0297
-43.1232
-48.6529
-37.9535
0.921808
0.913625
-73.0425
122.305
-37.6557
-25.3901
-34.5292
-21.0729
-33.4852
-33.4872
-35.9034
-27.3276
-39.4507
-47.5333
-42.215
-41.2261
-63.2172
-83.6391
-92.8661
176.436
-45.2788
-34.3015
-38.3498
-39.2067
-38.0172
-36.8341
-35.7712
-32.51
-38.0887
-43.1393
-48.5714
-37.9691
-37.4479
-25.2862
-34.245
-21.1423
-39.4485
-47.5322
-42.1985
-41.2163
-36.1332
-34.1797
-36.2637
-35.8294
-37.0633
-39.0263
-34.7911
-39.4499
-45.4343
-45.4412
-48.6087
-42.6741
-28.6527
-35.0441
-33.8357
-38.8985
-42.948
-42.9571
-40.193
-36.7659
-51.5563
-46.5701
-45.2874
-59.8945
41.8148
41.8233
25.3538
31.1007
-58.296
-58.2807
-64.8134
-51.6001
-36.108
-34.1742
-36.247
-35.8251
-36.9971
-38.9521
-34.6845
-39.5237
-28.5613
-34.9909
-33.785
-38.9282
-51.5305
-46.6198
-45.2882
-59.7987
-46.1411
-39.0239
-37.6972
-34.7654
-46.0047
-38.7452
-37.3942
-34.5054
-54.378
-42.7373
-42.742
-35.4976
-28.1222
-14.391
-14.3888
0.584594
192.998
201.227
200.169
192.989
-37.6168
-39.6069
-37.2238
-40.1772
-37.6029
-39.5899
-37.2148
-40.216
-38.1115
-39.0702
-38.3238
-38.107
-92.3303
-120.323
-80.8686
-92.3162
-37.4068
-49.038
-44.5258
-48.2693
-37.3993
-49.0803
-44.4801
-48.2807
-35.4156
-35.1995
-35.1985
-34.675
-38.1263
-38.9636
-38.963
-40.7335
-25.264
-22.6752
-23.8531
-25.2234
-92.0828
176.441
-105.031
116.509
-56.2001
-68.8538
-33.2873
-32.2967
-35.138
-30.3094
-33.2081
-35.1308
-86.8151
163.133
-80.6112
132.98
-52.8533
-50.411
-36.0918
-32.0364
-35.0083
-31.3547
-36.8311
-37.5016
-105.148
118.015
-91.7478
177.114
-56.3926
-68.2157
-35.1264
-30.2961
-33.8972
-32.3235
-33.0855
-35.0319
-80.8766
132.852
-84.9082
169.02
-52.3069
-50.5795
-35.0151
-31.3557
-36.1476
-32.1077
-36.838
-37.5059
-33.8987
-21.846
-37.2682
-37.4145
-34.7206
-37.7105
-48.3385
-41.2212
-42.5467
-36.6289
-33.5415
-35.373
-31.2569
-42.3696
-39.2477
-37.3013
-31.3047
-5.66616
-35.3838
-44.2322
-48.6071
-77.9183
12.1467
16.7887
-47.7616
-49.9438
-38.0737
-41.6932
-41.0627
-49.7612
-59.9865
-54.4686
-33.784
-22.7573
-48.2272
-41.2071
-37.2376
-37.4084
-34.6502
-37.662
-42.5286
-36.6134
-39.2237
-37.358
-33.5313
-35.3639
-31.2049
-42.3558
-31.1055
-5.81573
11.7727
16.2383
-35.2474
-44.181
-48.5655
-77.8621
-47.77
-49.8975
-59.9698
-54.4578
-38.0689
-41.7741
-40.8496
-49.7856
-60.0455
-56.4948
199.075
189.548
-72.45
-72.3749
202.154
202.35
-46.1673
-35.4765
-52.4097
-33.538
-34.4125
-35.677
-30.0992
-30.493
-34.1628
-34.1671
-24.9801
-24.859
-45.7598
-37.5253
-35.1415
-36.2635
-47.5034
-47.5623
183.501
183.528
-32.4929
-43.3169
-30.3609
-5.43562
-36.8375
-36.8346
-27.8448
-27.8708
-37.9727
-49.8039
-41.7791
-38.7584
-60.1924
-56.3575
189.45
198.663
-46.1019
-35.234
-52.4064
-33.496
-35.6729
-34.368
-30.0661
-30.4825
-45.7363
-37.5648
-35.1415
-36.2518
-42.9736
-32.2398
-5.45471
-30.4324
-50.0122
-37.9624
-38.7551
-41.7667
-37.6676
-35.6978
-38.0579
-37.4075
-33.6637
-32.589
-38.8555
-42.1354
-28.293
-28.4246
-40.1624
-40.1582
-34.695
-37.0257
-44.1808
-46.0805
-38.6491
-38.6554
-36.0175
-36.0202
-40.7044
-44.1809
-103.899
-68.4145
10.2732
10.4501
-86.1673
-86.0897
-70.1639
-70.1483
-44.7391
-44.7355
-37.6438
-35.6743
-38.0484
-37.3971
-32.4039
-33.5116
-38.8209
-42.115
-36.9736
-34.6668
-44.1576
-46.0438
-44.1791
-40.9374
-68.3896
-103.752
-91.2748
-45.3422
-46.2645
-92.1101
-34.9532
-34.8399
-35.2817
-35.9546
-36.5979
-30.5302
-33.8869
-35.2151
-80.4522
-91.4844
-45.0769
-41.1303
-91.2607
-92.3053
-46.1545
-45.1592
-78.9559
-40.768
-44.8186
-90.1068
-36.432
-35.0916
-33.6337
-30.2928
-34.8599
-35.4094
-34.999
-34.7531
-92.5261
-105.14
-53.7539
-49.6911
-93.375
-49.8326
-53.8196
-104.968
-45.9639
-48.5081
-34.8538
-31.7687
-45.824
-31.7934
-34.8321
-48.4273
-84.8932
-33.1256
-28.6072
-77.9583
-7.69559
23.3567
-1.2725
-12.0197
-7.6924
-12.1134
-1.21158
22.3129
-85.3199
-78.0387
-28.6363
-33.2112
149.02
179.698
197.726
96.0931
153.922
-108.019
193.453
177.047
176.26
177.391
193.462
-107.467
149.688
96.6561
197.805
179.655
-37.1289
-36.9978
-38.5178
-38.4165
-30.6865
-32.3761
-36.3551
-35.2356
-40.2513
-43.3702
-38.5712
-35.7036
-47.7848
-41.3975
-41.5768
-47.3185
-37.0912
-38.3687
-38.4965
-36.9771
-47.7081
-47.3101
-41.5661
-41.3579
-40.2811
-35.6603
-38.6237
-43.3973
-30.6611
-35.2058
-36.335
-32.3233
-38.9269
-42.3726
-38.8009
-36.3634
-38.9183
-36.3534
-38.7966
-42.3703
-35.5966
-39.9817
-38.0774
-35.4185
-35.6173
-35.4212
-38.0828
-39.9869
-90.9896
-67.6374
-119.978
29.3102
-48.235
-63.9491
-78.5536
-54.1172
-48.3201
-54.0702
-78.5404
-63.9293
-90.9025
29.3745
-119.982
-67.5104
-42.4188
-44.6111
-47.1699
-41.3636
-30.3007
-34.922
-37.1085
-38.2012
-36.3726
-38.5117
-37.6041
-35.9549
-43.9731
-38.0755
-48.9655
-46.9768
-42.4243
-41.3828
-47.1661
-44.5744
-44.0106
-46.9874
-48.9494
-38.1211
-36.436
-35.9844
-37.605
-38.4993
-30.6504
-38.2863
-37.1306
-35.1678
-37.0304
-36.6718
-34.7725
-36.4071
-37.1023
-36.4004
-34.7726
-36.6767
-37.0957
-33.2173
-35.6493
-36.9599
-37.1083
-36.885
-35.6561
-33.2268
-53.3542
-44.3363
-40.9406
-52.1828
-35.5098
-35.5578
-38.3416
-39.2852
-35.515
-39.2854
-38.338
-35.5631
-53.3878
-52.1757
-40.9376
-44.3125
-32.918
-25.4871
-24.9819
-32.2576
-32.9594
-32.2914
-24.9443
-25.4688
-32.4307
-28.6381
-26.2733
-32.2359
-32.3979
-32.2881
-26.307
-28.6607
-34.7524
-40.7897
-91.8654
-41.9309
-37.6933
-36.7303
-39.644
-4.73363
-119.898
-39.0032
-34.5784
-36.764
-39.5881
-33.9539
-92.3178
-37.7016
-41.9948
-36.7187
-23.2916
-53.2584
-118.773
-34.5854
-38.9224
-36.7319
-36.6712
-36.7972
-36.4033
-38.8898
-41.6405
-24.0318
-28.6178
-40.5652
-41.2264
-45.4807
-50.8596
-55.2941
-44.3531
-41.7062
-42.7433
-44.5798
-36.6083
-38.9683
-36.753
-36.3666
-41.4856
-40.663
-24.0409
-28.5926
-41.1138
-55.0754
-45.3158
-50.7531
-44.3728
-44.607
-41.7323
-42.7848
-62.619
-54.5132
-142.594
145.308
-97.9101
-98.3211
-109.013
-21.7772
-41.4976
-35.3703
-37.5964
-38.1611
-37.5703
-37.047
-38.4318
-33.0586
-27.9921
-27.978
-31.1639
-25.377
-46.462
-44.0386
-47.7311
-41.8332
-13.5126
-13.6679
-108.884
61.116
-33.9971
-27.4767
-33.2938
-24.3362
-33.4766
-33.473
-35.8293
-30.1586
-40.6847
-44.6982
-42.3093
-42.322
-73.9902
-65.5259
-148.789
146.895
-41.0287
-35.2182
-38.0531
-38.2397
-37.615
-36.9996
-38.4685
-33.0748
-46.6027
-44.0231
-47.5581
-41.8522
-33.7862
-27.3627
-33.0677
-24.3719
-40.6762
-44.6957
-42.2905
-42.3127
-35.7752
-35.0928
-35.5946
-35.1112
-37.3802
-38.2775
-36.4597
-38.7201
-45.5087
-45.5162
-47.069
-44.0408
-30.35
-33.3982
-33.1335
-32.7773
-43.243
-43.249
-41.1907
-39.7878
-50.4943
-47.5951
-47.1656
-54.0771
45.3717
45.4662
35.5269
46.2879
-58.2302
-58.2233
-61.5849
-55.1243
-35.8073
-35.1061
-35.5876
-35.1123
-37.3128
-38.2102
-36.3785
-38.6654
-30.2606
-33.3215
-33.0692
-32.7365
-50.4645
-47.6076
-47.1608
-54.0196
-42.0798
-38.8736
-38.2743
-36.2466
-41.8436
-38.5948
-37.9825
-35.961
-47.6141
-43.1155
-43.1204
-39.2913
-20.8399
-14.1116
-14.1084
-5.82342
194.923
198.011
201.511
194.872
-38.0849
-39.1538
-37.9378
-39.3223
-38.074
-39.1426
-37.9318
-39.3234
-38.2966
-38.6321
-38.2607
-38.2945
-94.2959
-105.235
-87.1523
-94.2926
-41.6112
-48.0118
-45.6871
-49.2193
-41.6044
-48.0553
-45.686
-49.2668
-35.5623
-35.0583
-35.0576
-34.7768
-38.2745
-38.6894
-38.6899
-39.6014
-23.5901
-22.6384
-23.1575
-23.5439
-99.0553
-76.8399
-118.443
134.576
-65.0182
-88.5568
-109.564
34.5727
-73.3742
-48.8946
-54.9437
-66.7803
-39.5948
-38.3865
-37.3121
-33.1405
-33.7168
-30.6182
-35.6045
-31.0949
-30.6708
-34.1867
-32.9682
-34.8939
-37.6321
-43.3466
-140.83
147.002
68.6379
-4.55909
-112.325
82.0316
-60.6793
-42.7207
-51.1487
-50.4644
-37.9456
-36.9249
-37.8185
-32.7458
-33.1728
-33.4263
-34.1206
-32.2467
-37.1162
-38.2062
-37.2155
-37.8411
-64.4571
-87.857
-109.516
35.4392
-99.5637
-83.0266
-121.242
136.258
-73.5648
-49.1081
-54.9472
-65.3521
-33.702
-30.5942
-35.6486
-31.0751
-39.7835
-38.3196
-37.3269
-33.2575
-30.3982
-34.1403
-32.8657
-34.8474
69.4058
-4.65353
-112.349
80.7985
-60.8594
-105.81
-130.302
155.863
-60.4015
-42.585
-50.7517
-50.5958
-33.1852
-33.4343
-34.1397
-32.2542
-37.2914
-36.9524
-38.2021
-32.8369
-37.1419
-38.2028
-37.2225
-37.8468
-35.748
-34.0548
-33.8412
-23.4869
-36.3732
-36.1459
-36.7045
-36.4598
-36.5362
-36.8415
-35.803
-37.2875
-46.0517
-45.1525
-50.6028
-42.5213
-40.9273
-40.2683
-42.0417
-38.1379
-31.6471
-34.1681
-33.0762
-33.5102
-27.8392
-28.0242
-28.6706
-34.9451
-44.4723
-43.4062
-40.3537
-39.5079
-29.2314
-25.3705
-29.8475
-14.5111
-42.3386
-39.9051
-38.304
-42.9231
-54.1189
-53.1981
-51.1199
-63.4572
9.44318
36.4116
19.439
29.4307
-46.8393
-47.0653
-47.0262
-49.226
-39.5109
-36.7315
-37.7402
-38.7192
-43.3292
-45.0702
-42.8924
-46.9793
-55.1252
-58.5047
-58.9916
-57.5999
-36.063
-33.6354
-33.8705
-23.6735
-46.0421
-45.148
-50.5754
-42.5234
-36.3582
-36.1593
-36.6703
-36.4577
-36.4793
-36.7815
-35.7391
-37.2358
-40.8906
-40.1957
-42.0724
-38.1362
-44.1696
-43.4086
-40.3217
-39.5662
-31.6197
-34.1493
-33.0789
-33.4868
-27.7906
-27.9617
-28.6148
-34.9254
-29.1429
-25.2719
-29.6715
-14.5969
9.57498
36.5856
19.2785
29.386
-42.2353
-39.8277
-38.1925
-42.8571
-54.0261
-53.118
-51.0677
-63.7384
-46.844
-47.0618
-47.0254
-49.2363
-54.7827
-58.4768
-58.8145
-57.611
-39.5107
-36.6964
-37.7293
-38.6691
-43.3059
-45.0749
-42.6583
-46.9888
-73.5402
-51.1773
-59.1345
-57.3629
179.629
191.161
190.802
189.631
-86.0682
-63.371
-73.1308
-73.1193
166.618
200.476
203.856
203.882
-38.7622
-39.0117
-42.1706
-36.6213
-40.2382
-42.2115
-45.7959
-37.6337
-35.2194
-35.8772
-34.6487
-35.485
-31.8286
-27.7404
-30.1664
-30.1736
-33.0885
-34.3303
-33.8614
-33.8622
-20.5604
-22.7833
-22.7311
-22.6698
-48.2703
-49.125
-46.5308
-43.9684
-36.539
-35.4537
-35.4393
-36.5392
-58.1182
-35.6328
-46.541
-46.5772
163.621
196.758
189.478
189.494
-35.4014
-36.8631
-33.6306
-40.3224
-18.9492
-15.5784
-23.5432
-11.1241
-36.1865
-37.5321
-36.8089
-36.8074
-26.3832
-25.4648
-26.4465
-26.4699
-42.4213
-43.6992
-39.8191
-47.2565
-40.4364
-39.3275
-40.5473
-39.2978
-74.0495
-51.095
-59.2983
-57.3803
176.896
191.118
189.455
190.293
-38.5724
-38.772
-41.9781
-36.3518
-40.2545
-42.2137
-45.8009
-37.6108
-35.2178
-35.8563
-35.4758
-34.6235
-31.8334
-27.7134
-30.1467
-30.1647
-48.2508
-49.0959
-46.4768
-43.9656
-36.546
-35.4528
-35.4398
-36.5394
-35.1051
-36.5527
-40.0346
-33.3442
-19.0136
-15.5914
-11.1513
-23.5965
-42.3983
-43.6325
-47.6206
-39.751
-40.4292
-39.3221
-39.293
-40.5409
-36.6213
-37.1747
-37.3275
-36.331
-36.9804
-37.7443
-37.7138
-37.3572
-33.5966
-33.9372
-33.478
-32.9448
-39.887
-39.9132
-39.3911
-40.9094
-39.8001
-31.6781
-28.2511
-28.3249
-41.4959
-39.6636
-40.4
-40.3984
-34.7478
-36.4435
-35.1558
-36.3158
-44.7411
-46.2133
-44.7302
-45.6456
-39.4416
-38.5254
-38.8331
-38.836
-35.9642
-35.2404
-35.9433
-35.9444
-43.8968
-41.2723
-41.6945
-43.4397
-68.0869
-88.0545
-88.3664
-72.8602
18.437
6.71376
11.9679
12.0246
-10.3962
-136.396
-84.0694
-83.9323
-68.1696
-76.0327
-71.4618
-71.4546
-48.5315
-42.3364
-44.512
-44.5067
-36.6027
-37.1612
-37.3054
-36.3101
-36.9705
-37.7369
-37.7042
-37.3475
-33.4622
-33.7258
-32.7626
-33.3109
-39.8501
-39.8907
-39.3565
-40.8862
-34.7012
-36.4189
-36.2679
-35.123
-44.7096
-46.2004
-44.7074
-45.6203
-43.9095
-41.3383
-43.4452
-41.7124
-68.032
-88.0251
-72.8253
-88.3126
-73.8437
-58.6343
-59.9636
-50.9218
-34.0451
-33.6691
-34.8602
-33.8062
-31.5167
-33.0046
-31.7601
-32.2027
-69.9172
-54.5411
-55.7371
-47.5025
-73.4019
-58.9532
-60.4176
-50.9419
-69.0123
-53.9804
-55.4637
-46.8145
-31.3192
-32.8396
-31.5316
-32.0117
-33.9224
-33.6394
-34.5849
-33.6529
-83.7344
-69.3366
-71.8101
-60.4331
-83.7446
-69.2674
-71.7669
-60.3293
-24.8224
-37.923
-29.3585
-27.892
-25.2561
-37.664
-29.5673
-27.9569
-61.0762
-49.5304
-47.7656
-39.5714
0.197318
8.24674
-0.240341
7.61032
0.0442775
8.03433
-0.263783
7.72624
-61.2632
-49.7031
-47.8579
-39.6755
182.2
176.84
199.546
198.525
160.473
154.006
188.149
188.599
155.082
160.064
188.533
187.477
176.601
182.41
198.503
199.508
-37.6676
-37.9325
-37.9134
-38.3754
-33.7481
-32.6871
-34.937
-34.3261
-38.6713
-40.0116
-38.0001
-39.949
-44.9285
-46.6825
-43.4571
-44.7922
-37.631
-37.8915
-37.8853
-38.3398
-44.8912
-46.6529
-43.4357
-44.7803
-38.6282
-39.9445
-37.9565
-39.9755
-33.7535
-32.6678
-34.9032
-34.3169
-38.5722
-40.1564
-38.5462
-39.6863
-40.1442
-38.5664
-39.6773
-38.5376
-38.3978
-37.3105
-38.2497
-37.5443
-37.3272
-38.4159
-37.5575
-38.26
-124.726
-6.38962
-114.913
-84.4379
-54.8152
-61.9361
-65.2684
-67.7457
-61.8962
-54.8184
-67.7188
-65.253
-6.20551
-124.36
-84.3323
-114.887
-42.8578
-43.3418
-44.0107
-43.7575
-33.3184
-33.4061
-34.0054
-34.8291
-35.9002
-36.472
-35.8908
-36.8431
-48.2161
-45.2906
-49.9283
-46.5118
-42.8354
-43.3198
-43.9867
-43.7336
-48.2181
-45.121
-49.9372
-46.4656
-35.9261
-36.4778
-35.8909
-36.8448
-33.133
-33.2996
-33.9354
-34.7842
-36.2747
-36.2218
-35.6623
-36.12
-36.2675
-36.2239
-35.6617
-36.1219
-34.717
-35.1143
-34.5613
-35.0629
-34.7376
-35.1341
-34.5672
-35.0711
-46.7535
-49.9768
-43.2322
-45.2563
-36.0376
-37.1917
-36.9353
-37.9231
-36.039
-37.194
-36.9329
-37.9215
-46.7376
-49.9692
-43.2238
-45.2491
-31.4522
-29.8819
-30.072
-27.5353
-29.9044
-31.4832
-27.5593
-30.0285
-31.1498
-31.8506
-29.0976
-30.6216
-31.9233
-31.1527
-30.6326
-29.1201
-116.579
106.568
-108.447
57.5342
-90.1307
-73.4999
-35.9329
-34.8639
-38.3988
-33.4864
-30.4529
-38.6441
-125.232
156.075
-131.473
93.1615
-78.3522
-80.5378
-37.3351
-33.4856
-34.4562
-32.7597
-36.5041
-36.3263
-108.713
59.6934
-118.982
106.231
-92.8317
-76.5699
-38.235
-33.5033
-36.3892
-34.8759
-30.6222
-38.5707
-133.291
100.466
-119.491
156.691
-77.0472
-80.9586
-34.4589
-32.7858
-37.6629
-33.5023
-36.5317
-36.3314
-35.3941
-40.5965
-36.9296
-37.3796
-35.7005
-36.8934
-47.024
-39.9414
-41.7452
-38.972
-30.3433
-31.5607
-27.5668
-37.8956
-37.2999
-42.5392
-35.8427
-24.3669
-40.0645
-46.2016
-50.3918
-65.4117
-10.4099
-64.1763
-44.9176
-48.5922
-40.1671
-42.0234
-41.4008
-44.6744
-48.1151
-51.0305
-35.2859
-40.6133
-47.2679
-39.9499
-36.8851
-37.386
-35.6414
-36.8504
-41.7511
-38.924
-37.2791
-42.6038
-30.3466
-31.566
-27.5332
-37.8635
-35.6763
-24.3931
-10.2536
-64.2665
-39.9262
-46.1107
-50.2876
-65.2492
-44.936
-48.5474
-48.1395
-51.101
-40.1861
-42.0401
-41.4529
-44.7038
-140.838
118.257
-144.953
153.383
-93.6932
-93.2703
172.372
176.342
-108.935
-5.97479
-109.244
-4.44214
-105.893
-105.914
90.0871
91.8527
-44.0073
-47.5154
-36.3312
-32.0086
-42.3961
-36.9819
-43.2008
-35.9152
-37.9757
-32.9967
-37.8817
-32.9296
-35.4373
-35.9671
-32.3211
-32.2966
-32.1865
-27.3579
-32.1686
-27.3358
-32.5098
-32.5139
-23.5454
-23.5119
-38.2464
-37.5618
-43.9295
-38.1068
-45.7137
-45.034
-37.0666
-39.4989
-116.091
61.7136
-116.114
61.9714
-76.287
-76.3265
103.643
103.827
-39.886
-34.5219
-28.6715
-18.0399
-31.8605
-38.5485
-26.6833
-16.3623
-35.2274
-30.8452
-35.2501
-30.8335
-35.7718
-35.775
-28.2706
-28.2904
-38.8739
-39.7767
-46.43
-46.9946
-40.0921
-44.9217
-42.6103
-40.1652
-142.525
119.855
-140.434
161.788
-94.1043
-92.5306
177.647
172.322
-44.81
-47.7899
-35.089
-31.6425
-41.5204
-36.1061
-43.2929
-35.8786
-37.8821
-33.001
-38.1312
-32.9703
-36.0092
-35.4901
-32.3522
-32.2888
-38.378
-37.6442
-43.8897
-38.0797
-45.6467
-44.8419
-37.0737
-39.5179
-39.5712
-34.5499
-28.4829
-18.092
-38.2387
-31.611
-16.4399
-26.7559
-38.8671
-39.7873
-46.4388
-46.9625
-44.946
-40.0722
-40.1606
-42.594
-36.3554
-35.8545
-34.6897
-34.4374
-36.6204
-35.7788
-36.2147
-35.6513
-35.9955
-37.8398
-37.265
-40.4355
-34.7861
-34.9929
-38.9014
-40.2807
-47.1068
-43.7775
-47.131
-43.7772
-48.4458
-48.4048
-42.6118
-42.612
-30.7672
-33.0411
-35.3011
-34.5993
-33.1226
-34.7861
-39.9051
-37.9176
-41.0603
-39.5746
-41.0581
-39.5833
-40.1359
-40.1379
-36.6412
-36.6425
-49.2926
-58.841
-44.5448
-50.2991
-44.2059
-46.3848
-63.3445
-56.6769
32.3689
42.8853
31.8359
42.8851
24.7376
24.1311
30.0863
30.1732
-61.178
-55.4442
-61.16
-55.4325
-64.616
-64.6083
-51.6828
-51.6822
-36.3454
-35.8575
-34.6714
-34.4354
-36.6071
-35.7625
-36.2191
-35.6406
-35.9225
-37.7861
-37.1715
-40.378
-34.8795
-34.6906
-38.8528
-40.2388
-30.7103
-33.0034
-35.2573
-34.4992
-34.736
-33.0711
-39.9776
-37.9906
-49.2774
-58.7352
-44.5845
-50.149
-46.381
-44.2134
-56.6102
-63.2402
-46.2008
-45.5991
-42.3125
-36.6484
-35.3364
-41.4098
-35.0387
-34.2667
-46.0777
-45.392
-42.0841
-36.3529
-41.1484
-35.0503
-34.0091
-34.7714
-54.2406
-54.2347
-47.1652
-38.7691
-47.1543
-38.7731
-35.2302
-35.2061
-28.1763
-28.1898
-21.4641
-7.67321
-7.64716
-21.4795
0.0276242
0.0680918
193.133
193.338