# vtk DataFile Version 2.0
tet_velo
ASCII
DATASET UNSTRUCTURED_GRID
POINTS 29498 float
-0.800326 0.155 -1.675
-0.79009 0.275 1.735
-0.776811 0.705 -1.615
-0.534946 1.365 1.385
0.800326 0.155 -1.675
0.799544 0.275 1.735
0.776819 0.705 -1.615
0.534947 1.365 1.385
-0.818531 0.173383 -0.538333
-0.818143 0.210359 0.598333
-0.743977 0.972788 -0.615
-0.668517 1.19795 0.385
0.818768 0.176297 -0.538333
0.818836 0.215969 0.598333
0.743981 0.972786 -0.615
0.668517 1.19795 0.385
-1.55697 -0.358761 -2.48196
-1.56691 -0.249097 -1.62737
-1.56662 -0.228852 -0.487165
-1.5377 -0.235479 0.68054
-1.49945 -0.190955 1.82306
-1.49746 -0.102305 2.689
-1.51038 0.00775501 3.53394
-1.56191 -0.00241026 -2.50109
-1.56899 0.134404 -1.66143
-1.5639 0.194167 -0.547818
-1.5175 0.238858 0.578091
-1.45848 0.310103 1.69432
-1.47636 0.400115 2.55833
-1.50307 0.505106 3.40773
-1.55175 0.649571 -2.501
-1.54226 0.779164 -1.65568
-1.50134 1.00026 -0.635243
-1.39793 1.20122 0.375515
-1.28626 1.35408 1.39857
-1.38647 1.43605 2.26824
-1.47013 1.51855 3.13968
-1.53279 1.79996 -2.60362
-1.52276 1.96037 -1.77877
-1.49303 2.23852 -0.802638
-1.44437 2.53147 0.144035
-1.41208 2.75676 1.12159
-1.43198 2.87957 1.94943
-1.47606 2.97357 2.80594
-0.781356 -0.346347 -2.49078
-0.788376 -0.230376 -1.64023
-0.797487 -0.235023 -0.485439
-0.79252 -0.258367 0.697817
-0.775115 -0.220365 1.85326
-0.786001 -0.122496 2.70949
-0.800709 -0.00452379 3.5458
-0.789067 -0.000199717 -2.50381
-0.795417 0.384081 2.57523
-0.808131 0.495869 3.41668
-0.784024 0.61856 -2.4841
-0.726698 1.43797 2.26552
-0.793652 1.51868 3.1391
-0.776664 1.77289 -2.58691
-0.773404 1.93179 -1.76036
-0.761344 2.22431 -0.79154
-0.739933 2.5356 0.142704
-0.728687 2.76861 1.11208
-0.751151 2.8902 1.93993
-0.789305 2.98115 2.79904
0.792958 -0.345742 -2.49078
0.805892 -0.229583 -1.64023
0.814223 -0.232352 -0.48544
0.811117 -0.254162 0.697817
0.787591 -0.218813 1.85326
0.697405 -0.121226 2.70949
0.64517 -0.00310045 3.5458
0.784618 0.00014294 -2.50381
0.64776 0.38492 2.57523
0.61065 0.497114 3.41668
0.769799 0.618788 -2.4841
0.554663 1.43862 2.26552
0.565497 1.51976 3.1391
0.743194 1.77344 -2.58691
0.73348 1.93231 -1.76036
0.706422 2.22493 -0.79154
0.660472 2.53638 0.142704
0.614071 2.76951 1.11208
0.592038 2.89122 1.93993
0.577831 2.98231 2.79904
1.57563 -0.357285 -2.48196
1.58772 -0.247157 -1.62737
1.59032 -0.22444 -0.487165
1.57037 -0.229056 0.68054
1.52269 -0.186943 1.82306
1.43864 -0.0992479 2.689
1.37968 0.0107773 3.53394
1.56728 -0.00137962 -2.50109
1.57743 0.135522 -1.66143
1.57616 0.197989 -0.547819
1.54112 0.245271 0.578091
1.47887 0.313421 1.69432
1.3865 0.402625 2.55833
1.33982 0.507837 3.40773
1.54501 0.650301 -2.501
1.54357 0.779645 -1.65568
1.50574 1.00164 -0.635243
1.41054 1.20376 0.375515
1.28851 1.35626 1.39857
1.27016 1.43806 2.26824
1.27594 1.52094 3.13968
1.50329 1.80119 -2.60362
1.48832 1.96158 -1.77877
1.44714 2.23998 -0.802638
1.37909 2.53327 0.144035
1.31308 2.75878 1.12159
1.28669 2.88177 1.94943
1.27707 2.97598 2.80594
-0.824623 0.43 -1.68105
0 0.152156 -1.67784
-0.814659 0.158961 -1.10667
-0.761823 0.82 1.65931
0.00472698 0.232042 1.77796
-0.837005 0.209791 1.16667
3.99351e-06 0.786666 -1.69667
-0.778328 0.856828 -1.115
4.76837e-07 1.39687 1.41687
-0.621846 1.30159 0.885
0.824648 0.43 -1.68108
0.813829 0.161367 -1.10667
0.764129 0.82 1.65688
0.82682 0.227854 1.16667
0.77835 0.856843 -1.115
0.621843 1.30158 0.885
-0.81852 0.191688 0.03
-0.864356 0.573085 -0.576667
0.000118346 0.144183 -0.538333
-0.866049 0.704154 0.491667
0.000346649 0.161226 0.598333
-0.709008 1.08813 -0.115
1.9362e-06 1.25596 -0.615
-1.18472e-07 1.45905 0.385
0.819057 0.195878 0.03
0.864434 0.574542 -0.576667
0.865988 0.706957 0.491667
0.709001 1.08812 -0.115
-0.879857 0.501543 -1.11083
-0.866141 0.63862 -0.0425
-0.860379 0.762077 1.02583
5.91732e-05 0.159141 -1.10667
0.000232498 0.152687 0.03
0.00253681 0.208391 1.16667
1.99676e-06 0.43 -1.93469
0.00236373 0.82 1.79328
2.96486e-06 0.916619 -1.115
9.08866e-07 1.44524 -0.115
1.79183e-07 1.45694 0.885
0.879896 0.502271 -1.11083
0.866183 0.64075 -0.0425
0.860224 0.763479 1.02583
-1.18466 0.144702 -1.66821
-0.794351 -0.037688 -1.65761
-0.794697 0.0774001 -2.0894
-1.12428 0.292551 1.71466
-0.782603 0.0273173 1.79413
-0.792753 0.32954 2.15512
-1.15953 0.742082 -1.63534
-0.780417 0.66178 -2.04955
-0.775107 1.3184 -1.68768
-0.910601 1.35954 1.39179
-0.630822 1.40149 1.82526
-0.631817 2.0668 1.24854
0.803109 -0.0372917 -1.65761
0.792472 0.0775715 -2.0894
1.18888 0.145261 -1.66821
0.793568 0.0280934 1.79413
0.723652 0.32996 2.15512
1.13921 0.294211 1.71466
0.773309 0.661894 -2.04955
0.755149 1.31866 -1.68768
1.16019 0.742322 -1.63534
0.544805 1.40181 1.82526
0.574509 2.06725 1.24854
0.911729 1.36063 1.39179
-1.19122 0.183775 -0.543076
-0.808009 -0.0308202 -0.511886
-1.16782 0.224609 0.588212
-0.805331 -0.0240038 0.648075
-1.12266 0.986526 -0.625121
-0.75266 1.59855 -0.70327
-1.03322 1.19958 0.380257
-0.704225 1.86678 0.263852
0.816495 -0.0280271 -0.511886
1.19746 0.187143 -0.543076
0.814976 -0.0190967 0.648075
1.17998 0.23062 0.588212
0.725201 1.59886 -0.70327
1.12486 0.987211 -0.625121
0.664495 1.86717 0.263852
1.03953 1.20085 0.380257
-1.56194 -0.303929 -2.05466
-1.55944 -0.180585 -2.49153
-1.16916 -0.352554 -2.48637
-1.56677 -0.238975 -1.05727
-1.56795 -0.0573464 -1.6444
-1.17764 -0.239736 -1.6338
-1.55216 -0.232166 0.0966877
-1.56526 -0.017343 -0.517492
-1.18205 -0.231938 -0.486302
-1.51857 -0.213217 1.2518
-1.5276 0.00168951 0.629316
-1.16511 -0.246923 0.689179
-1.49845 -0.14663 2.25603
-1.47896 0.0595741 1.75869
-1.13728 -0.20566 1.83816
-1.50392 -0.0472751 3.11147
-1.48691 0.148905 2.62367
-1.14173 -0.112401 2.69925
-1.50673 0.256431 3.47084
-1.15555 0.00161561 3.53987
-1.56545 0.0659969 -2.08126
-1.55683 0.32358 -2.50105
-1.17549 -0.00130499 -2.50245
-1.56645 0.164285 -1.10462
-1.55562 0.456784 -1.65855
-1.5407 0.216512 0.0151361
-1.53262 0.597215 -0.591531
-1.48799 0.27448 1.1362
-1.45771 0.720038 0.476803
-1.46742 0.355109 2.12632
-1.37237 0.832092 1.54645
-1.48972 0.452611 2.98303
-1.43141 0.918082 2.41329
-1.13589 0.392098 2.56678
-1.4866 1.01183 3.2737
-1.1556 0.500488 3.4122
-1.547 0.714368 -2.07834
-1.54227 1.22477 -2.55231
-1.16788 0.634066 -2.49255
-1.5218 0.889714 -1.14546
-1.53251 1.36977 -1.71722
-1.44963 1.10074 -0.129864
-1.49718 1.61939 -0.71894
-1.34209 1.27765 0.887044
-1.42115 1.86634 0.259775
-1.33636 1.39506 1.83341
-1.34917 2.05542 1.26008
-1.4283 1.4773 2.70396
-1.40922 2.15781 2.10883
-1.05658 1.43701 2.26688
-1.47309 2.24606 2.97281
-1.13189 1.51862 3.13939
-1.52777 1.88017 -2.19119
-1.15472 1.78643 -2.59526
-1.50789 2.09945 -1.2907
-1.14808 1.94608 -1.76956
-1.4687 2.385 -0.329301
-1.12719 2.23142 -0.797089
-1.42822 2.64411 0.632814
-1.09215 2.53354 0.14337
-1.42203 2.81816 1.53551
-1.07038 2.76268 1.11684
-1.45402 2.92657 2.37768
-1.09157 2.88488 1.94468
-1.13268 2.97736 2.80249
-0.784866 -0.288362 -2.0655
-0.785212 -0.173273 -2.49729
0.00580094 -0.346044 -2.49078
-0.792931 -0.2327 -1.06283
0.0087583 -0.22998 -1.64023
-0.795004 -0.246695 0.106189
0.0083679 -0.233687 -0.485439
-0.783818 -0.239366 1.27554
0.00929841 -0.256264 0.697817
-0.780558 -0.171431 2.28138
0.00623791 -0.219589 1.85326
-0.793355 -0.0635099 3.12765
-0.790709 0.130792 2.64236
-0.0442975 -0.121861 2.70949
-0.80442 0.245673 3.48124
-0.0777693 -0.00381212 3.5458
-0.786546 0.30918 -2.49396
-0.0022249 -2.83884e-05 -2.50381
-0.801774 0.439975 2.99595
-0.761057 0.911028 2.42038
-0.0738284 0.3845 2.57523
-0.800891 1.00728 3.27789
-0.0987404 0.496492 3.41668
-0.780344 1.19573 -2.5355
-0.00711263 0.618674 -2.4841
-0.760175 1.47833 2.70231
-0.738924 2.16409 2.10273
-0.0860172 1.4383 2.26552
-0.791478 2.24992 2.96907
-0.114078 1.51922 3.1391
-0.775034 1.85234 -2.17363
-0.016735 1.77316 -2.58691
-0.767374 2.07805 -1.27595
-0.019962 1.93205 -1.76036
-0.750638 2.37996 -0.324418
-0.0274609 2.22462 -0.79154
-0.73431 2.6521 0.627394
-0.0397305 2.53599 0.142704
-0.739919 2.8294 1.52601
-0.0573083 2.76906 1.11208
-0.770228 2.93568 2.36948
-0.0795567 2.89071 1.93993
-0.105737 2.98173 2.79904
0.799425 -0.287662 -2.0655
0.788788 -0.172799 -2.49729
1.18429 -0.351513 -2.48637
0.810058 -0.230968 -1.06283
1.19681 -0.23837 -1.6338
0.81267 -0.243257 0.106189
1.20227 -0.228396 -0.486302
0.799354 -0.236488 1.27554
1.19074 -0.241609 0.689179
0.742498 -0.17002 2.28138
1.15514 -0.202878 1.83816
0.671288 -0.0621635 3.12765
0.672583 0.131847 2.64236
1.06802 -0.110237 2.69925
0.62791 0.247007 3.48124
1.01243 0.0038384 3.53987
0.777208 0.309465 -2.49396
1.17595 -0.000618342 -2.50245
0.629205 0.441017 2.99595
0.601211 0.91177 2.42038
1.01713 0.393772 2.56678
0.588073 1.00844 3.27789
0.975234 0.502475 3.4122
0.756496 1.19611 -2.5355
1.1574 0.634544 -2.49255
0.56008 1.47919 2.70231
0.57335 2.16492 2.10273
0.912414 1.43834 2.26688
0.571664 2.25104 2.96907
0.920721 1.52035 3.13939
0.738337 1.85288 -2.17363
1.12324 1.78731 -2.59526
0.719951 2.07862 -1.27595
1.1109 1.94694 -1.76956
0.683447 2.38066 -0.324418
1.07678 2.23245 -0.797089
0.637271 2.65295 0.627394
1.01978 2.53483 0.14337
0.603054 2.83037 1.52601
0.963576 2.76415 1.11684
0.584934 2.93677 2.36948
0.939364 2.8865 1.94468
0.927452 2.97915 2.80249
1.58168 -0.302221 -2.05466
1.57145 -0.179332 -2.49153
1.58902 -0.235799 -1.05727
1.58258 -0.0558175 -1.6444
1.58035 -0.226748 0.0966876
1.58324 -0.0132255 -0.517492
1.54653 -0.208 1.2518
1.55575 0.00810748 0.629315
1.48067 -0.143096 2.25603
1.50078 0.0632391 1.75869
1.40916 -0.0442353 3.11147
1.41257 0.151689 2.62367
1.35975 0.259307 3.47084
1.57236 0.0670713 -2.08126
1.55614 0.324461 -2.50105
1.5768 0.166756 -1.10462
1.5605 0.457583 -1.65855
1.55864 0.22163 0.0151361
1.54095 0.599812 -0.591531
1.51 0.279346 1.1362
1.47583 0.724517 0.476803
1.43268 0.358023 2.12632
1.38369 0.834841 1.54645
1.36316 0.455231 2.98303
1.32833 0.920342 2.41329
1.30788 1.01439 3.2737
1.54429 0.714973 -2.07834
1.52415 1.22574 -2.55231
1.52465 0.89064 -1.14546
1.51594 1.37061 -1.71722
1.45814 1.1027 -0.129864
1.47644 1.62081 -0.71894
[...]
POINT_DATA 29498
VECTORS point_vectors float
-4.56324 -6.66363 14.3963
0.308202 0.374753 1.56335
-1.13841 0.690247 1.73152
0.0192772 -0.0596155 0.231675
4.87738 -7.16769 16.0639
-0.215912 0.270949 2.09501
1.13848 0.693342 1.73245
-0.0375444 -0.0163457 0.17499
0.0284346 0.021971 1.52413
0.00537233 -0.00146829 0.418388
-0.00280558 0.00166142 0.046143
0.00150152 0.00373902 0.0114151
-0.0321641 0.0150797 1.39154
-0.00607733 0.00304544 0.349527
0.0401353 -0.0167763 0.0904758
-0.00152066 0.00375804 0.0107627
-0.734585 -0.470246 20.1025
-1.03083 -0.731284 20.7929
-0.357253 -0.422327 21.4693
0.165917 -0.124406 21.624
0.659309 0.137829 21.597
0.950639 0.273938 21.3868
0.987569 0.143105 21.3328
-0.948793 -0.423298 19.9202
-1.56912 -0.701311 20.6742
-0.628603 -0.63709 21.5635
0.0718368 -0.418851 21.7356
0.810811 -0.257338 21.8283
1.20936 -0.19802 21.451
1.34507 -0.397937 21.2891
-1.13927 -0.0227396 19.7098
-2.09728 -0.0120225 20.4481
-1.72959 -0.340685 21.4875
-0.959463 -0.39062 21.9699
-0.243194 -0.534349 21.9294
0.214908 -0.690744 21.6198
0.492426 -0.685301 21.2992
-0.600397 0.367683 19.9476
-0.883454 0.604918 20.274
-0.836768 0.622064 20.8776
-0.513354 0.333971 21.2726
-0.264924 -0.00136244 21.3764
-0.1252 -0.142344 21.2567
-0.0191157 -0.213181 21.1363
-0.842709 -1.20498 19.468
-1.42215 -2.5909 21.42
-0.220397 -0.40392 22.0189
0.209682 0.186852 21.9652
0.611133 1.01308 21.6461
1.10522 1.49615 20.8931
1.5828 1.6963 20.0713
-1.27872 -1.20941 18.7456
1.62653 0.791994 9.97031
2.50223 0.801693 13.8727
-1.72171 0.162535 17.8607
0.0175669 -0.628298 14.1318
0.517618 -1.3234 19.0362
-0.56819 0.802664 19.5237
-0.91313 1.41067 19.8865
-0.951219 1.48372 20.8367
-0.491518 0.720664 21.4995
-0.179309 0.139384 21.4847
-0.105757 -0.0842493 21.4042
-0.0258729 -0.214689 21.46
0.826655 -1.18957 19.4672
1.42344 -2.54688 21.3886
0.183941 -0.411448 21.9957
-0.27362 0.150832 21.9238
-0.723621 0.839648 21.5867
-1.09701 1.44734 20.6092
-1.64812 2.02408 19.2227
1.26906 -1.21363 18.7335
-1.19884 0.0619498 4.2424
-2.40354 1.08708 7.94897
1.70286 0.172868 17.8007
-0.0527156 0.032317 7.67269
-0.296707 -0.935214 12.6797
0.538987 0.823507 19.4972
0.872471 1.45728 19.8559
0.872933 1.58459 20.8106
0.413976 0.773804 21.4832
0.122844 0.170885 21.4792
0.0363631 -0.0449519 21.3249
-0.0218475 -0.164536 21.284
0.717464 -0.466422 20.0937
1.01298 -0.724828 20.7725
0.358909 -0.443449 21.4363
-0.154115 -0.175067 21.5854
-0.62683 0.0311231 21.5626
-0.936902 0.200545 21.4388
-1.23588 0.277147 21.3436
0.932184 -0.420067 19.92
1.54559 -0.693406 20.6656
0.619332 -0.6354 21.5298
-0.0597119 -0.447748 21.6737
-0.684641 -0.367751 21.7274
-1.19183 -0.346415 21.5162
-1.4347 -0.433371 21.5059
1.14326 -0.0230364 19.6939
2.08209 -0.0100269 20.4369
1.71094 -0.330419 21.4559
0.947787 -0.377591 21.8963
0.351627 -0.444906 21.7996
0.0420335 -0.600563 21.7101
-0.325153 -0.668291 21.6412
0.594242 0.380288 19.9278
0.888807 0.637957 20.2473
0.839012 0.65946 20.8625
0.485536 0.361703 21.2687
0.25305 0.0221241 21.3657
0.107047 -0.115717 21.3797
-0.0139391 -0.177007 21.2568
-1.30603 -0.311939 2.02307
0.000400799 -0.0129863 0.186109
-0.004343 -0.0611496 2.16631
0.00626657 -0.0238538 0.0389101
-0.00566155 0.0297537 0.166113
0.286001 0.0358138 3.24782
-0.000223767 0.204334 0.387498
-0.71792 -0.319274 1.0065
-0.0289875 0.00624744 0.00177492
0.0101177 0.0153066 0.136764
1.30086 -0.306401 2.01139
-0.00160393 -0.0272641 1.55121
-7.49532e-05 -0.0297383 0.030011
-0.175799 -0.05704 1.85012
0.719116 -0.319893 1.00429
-0.012773 0.0193932 0.126949
-0.00396079 0.030068 1.07072
6.35392e-05 0.000309002 0.00557225
-0.000230228 -0.00184772 0.0307243
0.00124181 0.0228811 0.0793166
-0.00243833 -0.000255514 0.191055
0.00158629 0.00447235 0.00969687
-0.00115203 0.312786 0.417936
1.87029e-06 -3.60833e-06 -0.000174834
0.00253717 0.0243932 0.771482
-4.93104e-05 0.000222481 0.00429786
-0.001274 0.022471 0.082481
-0.00144729 0.00407246 0.00867779
0 0 0
0.000342035 0.0127522 0.0446311
0.00155773 0.00879504 0.0348055
0 0 0
-3.35661e-06 2.12115e-06 0.000319491
-3.37405e-05 7.19971e-05 0.00361403
5.39398e-05 -0.00723188 0.0311199
0 0 0
-6.27744e-05 0.00603905 0.0284632
-0.000129218 0.00202438 0.0297862
-0.0004461 -0.000128202 0.0144608
0 0 0
-0.000333902 0.0124173 0.0442042
-0.00118326 0.00655195 0.0277592
-2.82116 -1.725 20.899
-2.27489 -4.0913 21.9691
-2.92121 -2.97015 18.0921
1.31227 0.0954568 19.8551
0.921672 1.31749 17.1444
1.07966 0.598951 6.67375
-4.14789 0.37662 20.3844
-4.43812 1.41917 16.03
-2.26987 2.48 19.3702
-0.18 -0.304153 18.7466
-0.0506931 -0.361602 7.96408
-0.34442 0.077154 21.8457
2.2661 -4.0489 21.9088
2.91817 -2.98096 18.072
2.80318 -1.71389 20.882
-1.08987 0.997474 17.0644
-0.820848 -0.307157 4.13293
-1.15017 -0.155542 19.9332
4.42755 1.44726 15.9524
2.23345 2.54163 19.3346
4.12888 0.378197 20.3717
0.175595 0.385221 4.28631
0.243322 0.186826 21.7925
0.277744 -0.118347 18.392
-0.364912 -0.951628 21.9969
0.0129779 -0.0645045 18.8269
0.337441 -0.412117 20.8529
0.549567 0.253428 17.6755
-3.40392 -0.96488 21.8084
-2.87722 2.77392 20.8072
-1.64224 -0.524708 21.666
-1.07898 1.05699 22.2574
-0.0455519 -0.075273 18.8241
0.367644 -0.968183 21.9899
-0.585346 0.195386 17.5839
-0.339667 -0.48481 20.9961
2.87236 2.94414 20.7422
3.37249 -0.945818 21.7848
1.00695 1.14754 22.2602
1.63733 -0.507447 21.6782
-0.990308 -0.640543 20.3576
-0.834875 -0.463443 19.9975
-0.855855 -0.782834 19.8223
-0.722272 -0.593906 21.2935
-1.31216 -0.764504 20.7605
-1.40539 -1.45034 20.9595
-0.0737069 -0.264714 21.5979
-0.497541 -0.572681 21.5059
-0.258119 -0.525475 21.7322
0.387996 0.00277797 21.6867
0.105798 -0.288785 21.6392
0.260855 -0.0676534 21.7867
0.827385 0.18659 21.5159
0.73574 -0.0324584 21.685
0.825737 0.473743 21.7542
1.10224 0.228013 21.2421
1.1588 0.0772758 21.4212
1.29634 0.751219 21.287
1.20542 -0.0656238 21.2722
1.57492 0.867726 21.1958
-1.36467 -0.609795 20.1572
-1.09625 -0.256619 19.7723
-1.19459 -0.71249 19.4512
-1.16961 -0.716231 21.3333
-1.91049 -0.432536 20.6213
-0.247781 -0.537378 21.6663
-1.151 -0.678788 21.6009
0.367396 -0.337188 21.829
-0.307446 -0.690396 21.9063
1.06148 -0.244865 21.6844
0.440615 -0.790789 21.831
1.38287 -0.245017 21.1979
0.845749 -0.807126 21.4537
1.94822 0.0368218 20.3917
1.08326 -0.807516 21.3286
2.07014 -0.0575654 20.2446
-1.72252 0.0131232 19.9259
-0.896947 0.330472 19.7648
-1.54498 0.0318277 19.0386
-1.99697 -0.168406 21.0898
-1.47366 0.584631 20.2284
-1.41383 -0.382181 21.8186
-1.49468 0.520225 21.1075
-0.563286 -0.419772 21.967
-0.866428 0.242871 21.6475
0.00487114 -0.618401 21.7363
-0.294639 -0.120932 21.6148
0.355718 -0.747717 21.493
-0.0245111 -0.316428 21.5103
0.0384736 -0.782417 21.4754
0.170688 -0.454277 21.2615
0.449829 -0.961287 21.7263
-0.753776 0.51857 20.0663
-0.643894 0.594301 19.747
-0.910486 0.627114 20.5939
-0.976384 0.942797 20.1229
-0.673304 0.464554 21.1595
-0.956317 0.991686 20.8684
-0.378408 0.145652 21.3611
-0.503456 0.50699 21.3812
-0.166754 -0.0857177 21.3322
-0.253335 0.0563851 21.5196
-0.0664607 -0.195606 21.2885
-0.12676 -0.128399 21.5099
-0.0350841 -0.219138 21.4064
-1.36352 -2.2019 19.8427
-1.04323 -1.25 19.1264
0.00121533 -1.71567 19.0506
-0.622633 -1.11953 22.0701
0.00931462 -3.63979 22.0047
0.00419725 -0.0895299 21.9493
-0.0105732 -0.650798 21.9458
0.407665 0.536159 21.903
-0.0306213 0.149538 21.6485
0.870899 1.28607 20.9355
-0.0982002 0.887555 20.5802
1.36605 1.66971 20.3897
1.53084 1.6137 16.4586
-0.0897322 1.59935 18.9359
2.27681 1.63074 15.8909
0.0415917 2.40905 17.6247
-1.63317 -0.701455 18.0407
-0.0126349 -1.98262 17.729
2.28829 0.9427 11.9098
0.234195 -0.567306 5.89389
-0.276442 0.163042 1.65186
1.74918 -0.900669 12.2436
0.562618 1.56056 2.20934
-1.05993 0.895593 18.814
-0.0314456 0.449705 16.1331
0.254856 -1.02905 17.2812
-0.177567 -0.301154 21.6342
-1.13022 0.19153 1.76305
0.0100822 -0.562463 21.327
-0.834137 -0.784695 7.83391
-0.738312 1.13203 19.6352
-0.0166912 1.05232 19.2257
-0.9882 1.53962 20.3126
-0.0440723 1.94531 19.6087
-0.729293 1.11882 21.307
-0.0550202 2.19541 20.7608
-0.32078 0.385293 21.5199
-0.0541646 0.993205 21.5576
-0.12741 -0.00186511 21.4184
-0.0607254 0.201917 21.6359
-0.0847344 -0.185978 21.4896
-0.0659269 -0.0664824 21.6133
-0.0600961 -0.206783 21.5729
1.3523 -2.16366 19.8511
1.03263 -1.24054 19.1273
0.843147 -0.766806 19.8249
0.599367 -1.10664 22.0576
1.38615 -1.41046 20.9333
-0.0520576 -0.111459 21.908
0.253954 -0.544953 21.7014
-0.493774 0.484188 21.8118
-0.278045 -0.120497 21.7368
-0.912312 1.1006 20.7528
-0.810524 0.327539 21.6984
-1.26698 1.70753 19.6238
-1.36996 1.43353 14.0453
-1.2981 0.660185 21.226
-2.19443 1.84269 13.8892
-1.88672 1.0911 21.0818
1.6222 -0.702884 17.9971
1.19117 -0.717293 19.4381
-1.79967 0.580408 6.30178
0.805269 -1.15706 -3.11601
-1.74468 0.00869597 17.5146
0.246215 -0.215171 -1.30962
-2.38882 0.148887 17.0335
1.03591 0.928843 18.7711
1.54006 0.0325176 19.0106
-0.244273 -0.318655 10.3301
0.0759987 -0.0874611 21.6327
0.102168 -0.269066 18.7965
-0.062613 -0.414765 21.5367
-0.320651 -0.831895 19.7879
0.707054 1.15987 19.6149
0.629371 0.613568 19.7219
0.92775 1.6021 20.2844
0.960186 0.980116 20.0995
0.662697 1.17182 21.3073
0.934447 1.05401 20.8529
0.240277 0.438177 21.5522
0.475409 0.5757 21.3681
0.0693518 0.0290755 21.4253
0.189294 0.114295 21.5148
0.005675 -0.153669 21.3642
0.0649926 -0.0576932 21.4871
-0.0183767 -0.156565 21.6153
0.969977 -0.638183 20.343
0.821832 -0.460736 19.988
0.717466 -0.598511 21.2584
1.2925 -0.754358 20.7497
0.0710859 -0.294717 21.5592
0.491689 -0.574861 21.4778
-0.375014 -0.0528107 21.6295
-0.0942178 -0.320581 21.5876
-0.794124 0.0880912 21.4989
-0.653995 -0.153692 21.629
-1.18622 0.238915 21.2294
-1.16732 -0.0589789 21.5015
-1.46647 -0.141633 21.3908
1.34679 -0.607736 20.1551
1.09213 -0.256713 19.7632
1.14736 -0.709728 21.3073
1.89521 -0.428782 20.6072
0.247565 -0.546783 21.6276
1.13782 -0.675326 21.5652
-0.332617 -0.393036 21.7364
0.326451 -0.672201 21.835
-0.959609 -0.389977 21.6757
-0.254947 -0.80262 21.6905
-1.49661 -0.388703 21.2193
-0.538895 -0.953453 21.4934
-0.957536 -0.739733 21.7195
1.71822 0.0142078 19.9132
0.897608 0.341283 19.742
1.97748 -0.163912 21.0692
1.48534 0.60895 20.2069
1.3952 -0.366918 21.7679
1.50821 0.558033 21.0858
0.594396 -0.3852 21.8654
0.8716 0.287662 21.6215
0.18685 -0.504162 21.6622
0.296506 -0.0433254 21.5736
-0.179131 -0.717855 21.6301
0.0689115 -0.227477 21.4462
-0.125756 -0.361458 21.0952
0.75316 0.538112 20.0409
0.909635 0.658591 20.574
0.679085 0.515741 21.1534
0.339774 0.175662 21.3558
0.17517 -0.0633246 21.3598
0.0577961 -0.166154 21.4411
-1.19609 -0.651158 20.2548
-1.97863 -2.72626 19.2098
-1.25023 -1.23248 20.1575
-2.11986 -1.27196 19.6127
-1.03868 -0.799114 19.651
-2.01468 -1.65795 20.9685
-0.950642 -0.711554 21.3046
-0.488345 -0.906586 20.9685
-0.754191 -0.953522 21.6407
-1.32755 -1.31091 22.0115
-0.25559 -0.682668 21.8616
-0.173732 -0.436736 21.6155
0.251261 0.11167 17.847
0.0330958 -0.276434 21.7304
0.0827524 -0.660055 21.4842
0.36874 -0.232274 21.7398
0.379881 -0.172358 21.7468
0.801943 0.590169 17.5862
0.521848 0.160526 21.8382
0.570634 -0.255602 20.6373
1.17905 0.37819 21.4178
0.972579 0.0230763 21.6095
1.18312 1.54556 16.3673
1.04961 0.621123 21.5984
1.70325 0.0678207 20.175
1.75554 0.530411 21.0359
1.27913 0.00206507 21.2707
2.05789 1.80231 16.0832
1.48103 0.753653 21.0837
2.11114 -0.0155193 20.3767
1.91262 0.36803 20.711
-1.6553 -0.346258 20.0206
-4.59574 -1.45135 15.9961
-2.88926 0.274016 19.0072
-1.48523 -0.441859 19.1305
-4.01586 -0.964964 20.7375
-1.61131 -0.577966 21.3183
-3.38569 -0.458677 21.5235
-0.998918 -1.59703 21.175
-0.71205 -0.733596 21.8168
-2.6672 -0.756509 22.1268
0.0637727 -0.671077 18.7143
0.0172619 -0.685823 21.8697
-0.770984 -0.268611 20.1448
0.93929 0.114433 15.6023
0.649895 -0.837862 21.7209
-0.501091 -1.12328 2.33044
-0.144284 -0.62973 20.6259
1.0218 -0.809682 18.2891
0.971049 -0.830118 21.4993
0.939134 -0.616547 8.09336
0.27885 -0.940183 21.6392
1.35058 -0.89559 19.9076
-1.21939 0.473099 19.9232
-1.68397 1.76919 18.7963
-0.816147 0.792079 19.8816
-1.0718 0.560877 19.3573
-2.03225 1.24302 19.918
-1.56354 0.56279 20.6845
-2.53078 2.46961 20.0017
-1.03235 1.04226 20.46
-2.21545 1.20499 21.1069
-1.24809 0.412178 21.4701
-2.1133 2.1636 22.2126
-0.735415 0.776169 21.2114
-1.06158 0.557624 21.9289
-0.538321 0.0516385 21.6686
-0.588135 0.448393 22.067
-0.35435 0.251551 21.4683
-0.3573 -0.0391875 21.7531
-0.149729 -0.238075 21.5134
-0.255349 -0.136189 21.7339
-0.201072 -0.0328705 21.5155
-0.0934981 -0.328499 21.5248
0.054492 -0.389697 21.3603
-0.096366 -0.463321 21.5759
-0.0998214 -0.219124 21.5845
0.0885588 -0.481854 21.2106
1.97229 -2.70764 19.2158
0.00102798 -3.48473 19.539
-0.0178224 -6.27439 15.7841
-0.00611057 -1.91012 18.429
0.00210557 -5.14801 23.355
0.444933 -0.915119 21.0002
0.00266271 -1.49148 22.6481
-0.0165454 -0.218438 13.2817
-0.283132 0.0782057 17.8002
-0.0224163 -0.238683 21.6675
-0.0594564 0.26027 12.6213
-0.920705 0.542368 17.3218
-0.0456341 0.468705 20.9969
-0.200404 0.763551 12.0459
-1.13161 1.1841 14.9987
-0.125083 1.14563 19.0632
-0.648828 -0.42998 1.19742
-0.252259 1.04124 9.61777
-1.86378 1.66077 13.9709
0.017045 1.65093 17.2905
0.195508 0.856449 1.64428
0.0189065 2.20043 9.42625
4.60841 -1.45803 15.9301
-0.0377232 4.25845 11.147
-0.0236674 -1.07816 16.2969
1.20631 -1.05185 -1.05005
-1.32904 0.819963 0.785846
0.524884 0.361886 -2.54213
0.872237 -0.59646 -2.5666
-1.21917 -0.35337 4.30538
1.40137 1.45072 -2.99799
1.65502 1.82344 18.7389
-0.0275693 1.50449 19.3721
-0.0333771 1.41408 18.1098
-0.0450394 3.906 18.647
2.50222 2.58115 19.9341
-0.0335855 2.14502 20.0658
-0.0912375 5.39799 20.1423
2.06437 2.32842 22.2178
-0.0599655 1.62241 21.3537
-0.0731654 1.66653 22.5093
0.504016 0.529493 22.036
-0.0534738 0.502262 21.6416
-0.0939143 0.279883 21.8697
0.150403 0.0412779 21.7002
-0.0666737 0.0753638 21.5859
-0.125044 -0.0766912 21.7086
0.00488525 -0.254576 21.5511
-0.0730761 -0.188855 21.6769
-0.126717 -0.467617 21.5593
1.17958 -0.649032 20.2462
1.22486 -1.19377 20.1551
2.11069 -1.2688 19.6038
1.03617 -0.796705 19.6377
1.98653 -1.62568 20.9417
0.929783 -0.703399 21.279
0.753483 -0.954003 21.6041
1.31978 -1.30796 21.983
0.25593 -0.696912 21.8262
0.167156 -0.447418 21.5839
-0.0398112 -0.310952 21.6952
-0.0749959 -0.695612 21.5162
-0.374758 -0.284542 21.697
-0.351278 -0.230036 21.6602
-0.534579 0.0722489 21.763
-0.594094 -0.376113 20.611
-1.1003 0.132843 21.4004
-0.912137 -0.0863577 21.6006
-1.04766 0.484777 21.5745
-1.46467 -0.0660427 18.5094
-1.68008 0.529845 19.8634
-1.38522 0.000105461 21.3992
-1.52643 0.795072 21.1697
-2.07419 0.0582498 17.146
-2.13363 0.779284 18.8173
1.64748 -0.346215 20.01
2.89792 0.284741 18.9825
1.47998 -0.442189 19.1162
3.98465 -0.955868 20.7201
1.59172 -0.577939 21.2951
3.36517 -0.448305 21.4991
1.02944 -1.60286 21.3011
0.716993 -0.715694 21.7575
2.63149 -0.741323 22.0617
-0.0181618 -0.765096 18.9167
0.0456548 -0.690622 21.7666
0.810354 -0.216948 20.1153
-0.661785 -0.0193645 15.3174
-0.401311 -0.918074 21.5861
0.292513 -0.145582 18.6565
-0.297025 -0.594448 12.0398
-0.786958 -0.972168 21.6187
-0.15128 -0.522911 19.3764
-1.29181 -1.04221 14.5248
1.22333 0.486759 19.9012
0.799001 0.820076 19.8523
1.0621 0.57803 19.3278
2.04207 1.29494 19.8807
1.5824 0.592538 20.6628
1.02103 1.1025 20.4362
2.2514 1.28009 21.0765
1.25924 0.456936 21.4503
0.723696 0.831555 21.2273
1.04776 0.617674 21.9179
0.53786 0.104584 21.6408
0.303675 0.30361 21.4599
0.32154 0.0677024 21.7018
0.179969 -0.145791 21.5354
0.140218 0.0351111 21.49
0.10621 -0.17162 21.5625
-0.0213565 -0.287503 21.353
0.0372189 -0.142607 21.6435
-0.112958 -0.403607 21.3262
-1.65507 -1.30779 19.9472
-0.967677 -1.12643 21.821
0.104679 -0.426602 21.8122
0.681336 -0.0232122 21.6771
1.48244 0.462957 21.2956
1.86114 0.510545 20.786
-2.84805 -0.689579 19.14
-2.25492 -1.29785 22.3434
-0.318679 -1.41319 20.1134
0.330505 0.14843 17.02
0.939691 -0.519474 17.1618
1.19361 -0.941956 19.4362
-1.5818 0.945941 19.4756
-2.19382 1.22465 20.5084
-1.70584 0.969156 21.7333
-0.620329 0.205936 21.8731
-0.215945 -0.199372 21.6429
0.0115809 -0.438422 21.3837
-0.00245193 -4.80784 18.4608
0.00251337 -0.787605 16.5497
-0.0396837 -0.0186567 12.607
-0.0707376 0.387824 12.0311
-0.269713 0.818343 10.2272
-0.0269911 1.12794 8.9068
-0.0306032 -2.61098 10.1028
-0.685143 -0.631543 -0.954592
0.90824 0.920527 -3.42665
-0.0408683 2.90218 17.9418
-0.079669 4.2295 18.9481
-0.0760008 3.68101 22.5682
-0.0838431 0.75271 22.196
-0.123108 0.0908982 21.7486
-0.12295 -0.278624 21.6948
1.64227 -1.28781 19.9376
0.969389 -1.12095 21.7869
-0.101969 -0.462784 21.786
-0.693293 -0.124079 21.666
-1.41322 0.309286 20.8908
-2.11457 0.535254 19.7289
2.84626 -0.688805 19.1262
2.23786 -1.28975 22.3006
0.355652 -1.4354 20.2543
-0.261462 -0.0212992 17.1285
-0.426153 -0.435385 13.6561
-0.637838 -0.940002 13.4011
1.58587 0.987393 19.4363
2.20111 1.27817 20.4764
1.72087 1.04301 21.7268
0.592345 0.288519 21.8445
0.200718 -0.0602718 21.6061
-0.00470388 -0.304745 21.464
-1.47816 -0.671459 3.22469
-0.00792713 -0.0222361 0.31649
-0.0256064 -0.0493311 0.93607
0.00760227 -0.0698056 0.0578499
-0.0125728 0.0604891 0.320193
0.0508472 0.13238 1.97015
-0.308873 0.00749133 0.363507
-0.000117675 0.181343 0.337547
-0.0848662 -0.00267895 0.169516
0.00896381 -0.0254314 0.0884323
-0.0275979 -0.0217724 0.055699
0.0237129 0.0262634 0.41531
0.00810669 -0.0209192 0.318445
1.43054 -0.683601 3.19729
0.0188584 -0.0265625 0.532611
-0.0405477 0.147594 1.03868
-3.61592e-06 -0.074783 0.0479239
-0.0196694 0.0298226 0.234785
-0.000415382 0.185082 0.344208
0.363179 0.00932568 0.42499
0.0841637 -0.00239673 0.168558
-0.00523039 -0.0102596 0.0363293
0.0020114 -0.0191349 0.0471426
-0.0324463 0.0431918 0.369562
-0.140442 0.269202 3.28259
-0.00179079 0.0408818 1.57435
4.4245e-06 5.21351e-05 0.00122704
3.68141e-18 1.26775e-20 7.03329e-17
-0.00333742 -0.0632893 0.273373
0.00585012 0.0063828 0.455741
-0.000170041 0.00595544 0.0512475
0 0 0
-0.63239 -0.02055 0.495398
-0.000501398 0.00232186 0.0588869
0.00130244 0.00557755 0.0227284
-0.0796376 0.0860076 0.144912
0.00609856 0.0126338 0.0507846
0 0 0
0.00132108 0.00360004 0.00714446
0.00238616 0.000693017 0.0421488
0.128968 0.256678 3.02952
0 0 0
-3.19339e-05 0.0397794 1.36964
-8.33422e-07 7.92871e-06 0.00021329
-0.00526332 -0.0965696 0.419299
-0.00147143 -1.77191e-05 0.0139528
-0.0105451 0.00182964 0.48943
7.11358e-05 0.00522915 0.0530441
0.571752 -0.0163998 0.446485
0.0793211 0.0867002 0.145773
0.000485613 0.00206138 0.0551266
-0.00132229 0.00556377 0.0224114
-0.00656091 0.0136944 0.0474794
-0.00350951 0.00078806 0.0417593
0 0 0
-0.00129693 0.00352703 0.00676773
-0.00137636 -0.00115306 0.0244429
-0.127121 0.0218831 0.0628133
0 0 0
2.97086e-19 1.35742e-16 -5.70267e-17
-0.0438862 0.0163239 0.827905
0.00165939 0.000105267 0.00992542
0 0 0
-0.0507488 -0.0266078 0.00915418
0 0 0
-0.0638869 -0.083491 0.0635439
0 0 0
0.000663362 0.000618174 0.0402736
0 0 0
-8.78675e-06 0.00178428 0.00807809
-0.00641675 -0.0793726 0.483999
-0.0322023 -4.07431e-06 0.0241675
-0.00742333 0.00410063 -0.00287403
-6.08514e-05 -3.39095e-05 0.000706492
0 0 0
0.000538811 -0.000299643 0.015267
0.121848 0.0210105 0.0601662
0.00176638 -0.00194622 0.031402
-0.00173086 0.000117286 0.01011
0.00300985 -0.00134112 0.105115
0.0062079 -0.0558446 0.00894392
0 0 0
-0.010442 0.00766711 0.275047
0.00193519 0.000688291 0.0422732
0.0312948 4.52592e-05 0.0239628
0.00634278 -0.0793892 0.480047
-0.00150927 -0.000214835 0.0148114
0 0 0
-6.55827e-06 0.000114443 0.00119431
0 0 0
0 0 0
3.75838e-05 0.00155042 0.00859547
0 0 0
-2.10745e-07 1.72944e-07 2.16469e-05
7.22236e-05 0.00106319 0.00334868
0.000257713 0.00465778 0.0167691
-1.86905e-06 2.36088e-06 0.000285038
-0.000300785 0.000357955 0.0187818
0.0278092 0.0492218 0.0947421
-0.0191494 0.0205368 0.226043
0 0 0
-0.000889878 0.296605 0.740465
-4.67593e-05 0.000222564 0.00635942
-5.52749e-06 3.29391e-07 0.000281818
0 0 0
3.76193e-06 0.000160652 0.00131658
0 0 0
-5.68618e-05 0.00190362 0.00836793
-0.000366849 0.0052501 0.0168553
-0.000417189 0.00304885 0.0109372