# vtk DataFile Version 2.0
tri_press
ASCII
DATASET UNSTRUCTURED_GRID
POINTS 3682 float
-0.800326 0.155 -1.675
-0.79009 0.275 1.735
-0.776811 0.705 -1.615
-0.534946 1.365 1.385
0.800326 0.155 -1.675
0.799544 0.275 1.735
0.776819 0.705 -1.615
0.534947 1.365 1.385
-0.818531 0.173383 -0.538333
-0.818143 0.210359 0.598333
-0.743977 0.972788 -0.615
-0.668517 1.19795 0.385
0.818768 0.176297 -0.538333
0.818836 0.215969 0.598333
0.743981 0.972786 -0.615
0.668517 1.19795 0.385
-1.55697 -0.358761 -2.48196
-1.56691 -0.249097 -1.62737
-1.56662 -0.228852 -0.487165
-1.5377 -0.235479 0.68054
-1.49945 -0.190955 1.82306
-1.49746 -0.102305 2.689
-1.51038 0.00775501 3.53394
-1.56191 -0.00241026 -2.50109
-1.56899 0.134404 -1.66143
-1.5639 0.194167 -0.547818
-1.5175 0.238858 0.578091
-1.45848 0.310103 1.69432
-1.47636 0.400115 2.55833
-1.50307 0.505106 3.40773
-1.55175 0.649571 -2.501
-1.54226 0.779164 -1.65568
-1.50134 1.00026 -0.635243
-1.39793 1.20122 0.375515
-1.28626 1.35408 1.39857
-1.38647 1.43605 2.26824
-1.47013 1.51855 3.13968
-1.53279 1.79996 -2.60362
-1.52276 1.96037 -1.77877
-1.49303 2.23852 -0.802638
-1.44437 2.53147 0.144035
-1.41208 2.75676 1.12159
-1.43198 2.87957 1.94943
-1.47606 2.97357 2.80594
-0.781356 -0.346347 -2.49078
-0.788376 -0.230376 -1.64023
-0.797487 -0.235023 -0.485439
-0.79252 -0.258367 0.697817
-0.775115 -0.220365 1.85326
-0.786001 -0.122496 2.70949
-0.800709 -0.00452379 3.5458
-0.789067 -0.000199717 -2.50381
-0.795417 0.384081 2.57523
-0.808131 0.495869 3.41668
-0.784024 0.61856 -2.4841
-0.726698 1.43797 2.26552
-0.793652 1.51868 3.1391
-0.776664 1.77289 -2.58691
-0.773404 1.93179 -1.76036
-0.761344 2.22431 -0.79154
-0.739933 2.5356 0.142704
-0.728687 2.76861 1.11208
-0.751151 2.8902 1.93993
-0.789305 2.98115 2.79904
0.792958 -0.345742 -2.49078
0.805892 -0.229583 -1.64023
0.814223 -0.232352 -0.48544
0.811117 -0.254162 0.697817
0.787591 -0.218813 1.85326
0.697405 -0.121226 2.70949
0.64517 -0.00310045 3.5458
0.784618 0.00014294 -2.50381
0.64776 0.38492 2.57523
0.61065 0.497114 3.41668
0.769799 0.618788 -2.4841
0.554663 1.43862 2.26552
0.565497 1.51976 3.1391
0.743194 1.77344 -2.58691
0.73348 1.93231 -1.76036
0.706422 2.22493 -0.79154
0.660472 2.53638 0.142704
0.614071 2.76951 1.11208
0.592038 2.89122 1.93993
0.577831 2.98231 2.79904
1.57563 -0.357285 -2.48196
1.58772 -0.247157 -1.62737
1.59032 -0.22444 -0.487165
1.57037 -0.229056 0.68054
1.52269 -0.186943 1.82306
1.43864 -0.0992479 2.689
1.37968 0.0107773 3.53394
1.56728 -0.00137962 -2.50109
1.57743 0.135522 -1.66143
1.57616 0.197989 -0.547819
1.54112 0.245271 0.578091
1.47887 0.313421 1.69432
1.3865 0.402625 2.55833
1.33982 0.507837 3.40773
1.54501 0.650301 -2.501
1.54357 0.779645 -1.65568
1.50574 1.00164 -0.635243
1.41054 1.20376 0.375515
1.28851 1.35626 1.39857
1.27016 1.43806 2.26824
1.27594 1.52094 3.13968
1.50329 1.80119 -2.60362
1.48832 1.96158 -1.77877
1.44714 2.23998 -0.802638
1.37909 2.53327 0.144035
1.31308 2.75878 1.12159
1.28669 2.88177 1.94943
1.27707 2.97598 2.80594
-0.824623 0.43 -1.68105
0 0.152156 -1.67784
-0.814659 0.158961 -1.10667
-0.761823 0.82 1.65931
0.00472698 0.232042 1.77796
-0.837005 0.209791 1.16667
3.99351e-06 0.786666 -1.69667
-0.778328 0.856828 -1.115
4.76837e-07 1.39687 1.41687
-0.621846 1.30159 0.885
0.824648 0.43 -1.68108
0.813829 0.161367 -1.10667
0.764129 0.82 1.65688
0.82682 0.227854 1.16667
0.77835 0.856843 -1.115
0.621843 1.30158 0.885
-0.81852 0.191688 0.03
-0.864356 0.573085 -0.576667
0.000118346 0.144183 -0.538333
-0.866049 0.704154 0.491667
0.000346649 0.161226 0.598333
-0.709008 1.08813 -0.115
1.9362e-06 1.25596 -0.615
-1.18472e-07 1.45905 0.385
0.819057 0.195878 0.03
0.864434 0.574542 -0.576667
0.865988 0.706957 0.491667
0.709001 1.08812 -0.115
-0.879857 0.501543 -1.11083
0.879896 0.502271 -1.11083
5.91732e-05 0.159141 -1.10667
2.96486e-06 0.916619 -1.115
1.99676e-06 0.43 -1.93469
-0.866141 0.63862 -0.0425
0.866183 0.64075 -0.0425
0.000232498 0.152687 0.03
9.08866e-07 1.44524 -0.115
-0.860379 0.762077 1.02583
0.860224 0.763479 1.02583
0.00253681 0.208391 1.16667
1.79183e-07 1.45694 0.885
0.00236373 0.82 1.79328
-0.811573 0.2925 -1.67713
-0.400163 0.15264 -1.67736
-0.802024 0.162449 -1.39083
-0.809085 0.5475 1.73028
-0.392682 0.230221 1.77978
-0.82184 0.234103 1.45083
-0.806419 0.5675 -1.65373
-0.388404 0.751634 -1.66163
-0.791346 0.79469 -1.365
-0.645169 1.0925 1.51894
-0.267473 1.39014 1.41014
-0.598835 1.35373 1.135
0.400163 0.151705 -1.67829
0.811981 0.2925 -1.67753
0.800315 0.164946 -1.39083
0.402135 0.213505 1.79649
0.81109 0.5475 1.7252
0.793758 0.270851 1.45083
0.388411 0.751721 -1.66172
0.806682 0.5675 -1.65399
0.791348 0.794685 -1.365
0.267474 1.39018 1.41018
0.645958 1.0925 1.51736
0.598844 1.35374 1.135
-0.83101 0.151757 -0.8225
-0.818524 0.182537 -0.254167
-0.841807 0.373052 -0.5575
-0.411846 0.153504 -0.538333
-0.818626 0.219023 0.8825
-0.818366 0.200989 0.314167
-0.852326 0.452142 0.545
-0.413063 0.177464 0.598333
-0.746261 0.899916 -0.865
-0.851778 0.796742 -0.595833
-0.726977 1.03094 -0.365
-0.408874 1.18815 -0.615
-0.645604 1.25019 0.635
-0.774108 0.954465 0.438333
-0.689426 1.1437 0.135
-0.392447 1.44488 0.385
0.831293 0.153838 -0.8225
0.412826 0.153475 -0.538333
0.818977 0.186024 -0.254167
0.842124 0.375158 -0.5575
0.819338 0.225401 0.8825
0.418865 0.17005 0.598333
0.818969 0.205901 0.314167
0.852918 0.45621 0.545
0.746321 0.89997 -0.865
0.408879 1.18815 -0.615
0.851664 0.797392 -0.595833
0.726983 1.03094 -0.365
0.64561 1.25019 0.635
0.392448 1.44488 0.385
0.773067 0.955359 0.438333
0.689432 1.14371 0.135
-0.86709 0.465771 -1.39594
-0.412311 0.43 -1.89302
2.95866e-05 0.156676 -1.39226
9.98378e-07 0.291078 -1.87917
-0.874668 0.330252 -1.10875
-0.4073 0.158938 -1.10667
-0.845178 0.791039 1.34257
-0.37973 0.82 1.79802
0.00363189 0.21738 1.47231
0.00354535 0.526021 1.92447
-0.876433 0.485934 1.09625
-0.417234 0.205408 1.16667
3.47918e-06 0.870029 -1.40583
2.99513e-06 0.608333 -1.86371
-0.894809 0.679185 -1.11292
-0.389162 0.877955 -1.115
3.2801e-07 1.44379 1.15093
0.0011821 1.10843 1.66774
-0.725346 1.03183 0.955417
-0.310923 1.44786 0.885
0.867262 0.466135 -1.39595
0.412325 0.43 -1.89306
0.861015 0.331819 -1.10875
0.406944 0.158938 -1.10667
0.844948 0.791739 1.34136
0.383246 0.82 1.79758
0.876409 0.495666 1.09625
0.414678 0.187496 1.16667
0.894472 0.679557 -1.11292
0.389176 0.877952 -1.115
0.725087 1.03253 0.955417
0.310921 1.44786 0.885
-0.847444 0.412597 -0.00624998
-0.414468 0.16154 0.03
-0.863433 0.537314 -0.84375
-0.865666 0.605853 -0.309583
8.87597e-05 0.150212 -0.8225
0.000175422 0.151061 -0.254167
-0.866478 0.671387 0.224583
-0.864542 0.733116 0.75875
0.000289573 0.154314 0.314167
0.00144173 0.193594 0.8825
-0.822715 0.880945 -0.07875
-0.435146 1.42797 -0.115
2.45053e-06 1.03003 -0.865
1.42253e-06 1.42233 -0.365
3.95197e-07 1.45611 0.135
3.03555e-08 1.45929 0.635
0.847892 0.415678 -0.00624998
0.416014 0.161543 0.03
0.863505 0.538406 -0.84375
0.8657 0.607646 -0.309583
0.866482 0.673853 0.224583
0.864394 0.735218 0.75875
0.822142 0.881708 -0.07875
0.435146 1.42797 -0.115
-0.84499 0.311376 -1.39339
-0.866153 0.351743 -0.833125
-0.861981 0.726061 -0.854375
-0.883446 0.623343 -1.38047
0.844872 0.312159 -1.39339
0.883428 0.623528 -1.38048
0.861905 0.72661 -0.854375
0.866131 0.353619 -0.833125
-0.403732 0.156422 -1.39154
0.403553 0.156424 -1.39154
0.408193 0.150183 -0.8225
-0.408253 0.150181 -0.8225
-0.388783 0.832033 -1.38542
-0.380575 0.978571 -0.865
0.380584 0.975226 -0.865
0.388794 0.832016 -1.38542
-0.406237 0.291789 -1.87609
-0.400357 0.587916 -1.80817
0.400368 0.587916 -1.81485
0.406244 0.291789 -1.8761
-0.844776 0.392749 -0.281875
-0.84994 0.432342 0.269375
-0.799331 0.918164 0.179792
-0.840295 0.840368 -0.337292
0.845176 0.395334 -0.281875
0.840037 0.841117 -0.337292
0.798589 0.919026 0.179792
0.850461 0.435916 0.269375
-0.412269 0.159298 -0.254167
0.413524 0.1593 -0.254167
0.4182 0.164275 0.314167
-0.416608 0.163816 0.314167
-0.454677 1.37339 -0.365
-0.415753 1.44034 0.135
0.415755 1.44034 0.135
0.454676 1.37339 -0.365
-0.854487 0.471595 0.820625
-0.878109 0.516717 1.3967
-0.701249 1.06217 1.23878
-0.747518 0.991443 0.696875
0.855268 0.478565 0.820625
0.74727 0.992491 0.696875
0.70116 1.06252 1.23818
0.878042 0.521583 1.3961
-0.413066 0.193319 0.8825
0.412135 0.163384 0.8825
0.408407 0.205894 1.46157
-0.404958 0.210523 1.46157
-0.322591 1.44935 0.635
-0.289198 1.43715 1.14297
0.289198 1.43715 1.14297
0.32259 1.44935 0.635
-0.386206 0.536761 1.90481
0.392691 0.536761 1.90404
0.32536 1.10047 1.64672
-0.323601 1.10047 1.64648
-0.796218 0.22375 -1.66633
-0.600244 0.154491 -1.67551
-0.793677 0.166222 -1.53292
-0.818326 0.41125 1.75138
-0.591386 0.237152 1.77285
-0.800854 0.259662 1.59292
-0.796015 0.63625 -1.63876
-0.582607 0.739364 -1.64936
-0.788828 0.754595 -1.49
-0.592064 1.22875 1.45397
-0.401209 1.38155 1.40155
-0.572975 1.36545 1.26
0.600244 0.153091 -1.67691
0.796075 0.22375 -1.66619
0.797243 0.16305 -1.53292
0.60084 0.231103 1.7789
0.822987 0.41125 1.74777
0.801995 0.267581 1.59292
0.582615 0.739014 -1.64901
0.796057 0.63625 -1.6388
0.788937 0.754696 -1.49
0.40121 1.38161 1.40161
0.5926 1.22875 1.45333
0.573071 1.36555 1.26
-0.818384 0.168957 -0.680417
-0.818532 0.177956 -0.39625
-0.830587 0.273009 -0.547917
-0.621174 0.151472 -0.538333
-0.817785 0.215291 0.740417
-0.818248 0.20568 0.45625
-0.834037 0.331849 0.571667
-0.639807 0.145502 0.598333
-0.729028 0.920261 -0.74
-0.805975 0.888814 -0.605417
-0.735576 1.00196 -0.49
-0.590259 1.10813 -0.615
-0.657534 1.22454 0.51
-0.720145 1.07562 0.411667
-0.679101 1.17096 0.26
-0.570008 1.40046 0.385
0.81868 0.171418 -0.680417
0.622774 0.150933 -0.538333
0.818917 0.181116 -0.39625
0.830763 0.275569 -0.547917
0.81867 0.221102 0.740417
0.6426 0.14551 0.598333
0.818913 0.210924 0.45625
0.834709 0.336673 0.571667
0.731823 0.92305 -0.74
0.590261 1.10813 -0.615
0.805785 0.88907 -0.605417
0.735574 1.00196 -0.49
0.657535 1.22454 0.51
0.57001 1.40047 0.385
0.719922 1.07622 0.411667
0.679102 1.17095 0.26
-0.823826 0.36125 -1.68482
[...]
POINT_DATA 3682
SCALARS point_scalars float 1
LOOKUP_TABLE default
-102.959
-55.8917
-59.2703
-48.9029
-115.412
-53.4911
-58.9213
-42.6124
-45.2409
-40.059
-101.425
-62.1993
-44.6541
-39.506
-102.237
-60.2955
-90.5288
-165.456
-44.5718
-40.4854
-54.4521
-56.683
-45.8504
-90.5288
-142.098
-45.8514
-40.9695
-56.6578
-53.1072
-44.838
-13.6659
-111.284
-69.7428
-52.1562
-48.6465
-47.516
-43.0417
-52.7533
-56.1545
-129.02
-73.2453
-51.752
-49.2613
-48.2875
-16.8612
-158.875
-45.1078
-44.2528
-54.1885
-47.2394
-44.4804
-16.8612
-44.4005
-44.1239
152.571
-41.5853
-42.2213
10.1161
-57.85
-101.698
-80.7606
-52.8528
-48.3524
-44.2977
-33.4009
-124.526
-44.3229
-47.8354
-51.6513
-43.61
-42.9509
-15.2885
-42.5227
-42.9885
152.532
-32.4481
-33.283
0.0944891
-57.6191
-101.017
-79.3797
-50.5401
-41.7946
-35.5482
-74.717
-124.34
-43.9401
-40.4267
-51.6078
-54.4526
-42.5485
-74.717
-143.553
-45.3192
-40.0734
-51.2108
-44.7098
-41.9151
-11.3663
-111.543
-68.7829
-51.9314
-42.3979
-37.9491
-35.703
-46.3483
-55.7707
-131.064
-72.0561
-47.9308
-43.0843
-41.5201
-85.9005
-138.333
-58.0021
-47.9641
-50.0262
-49.1802
-25.7785
-47.5737
-40.6451
-53.0802
-84.6117
-58.3905
-40.7354
-46.4948
-46.8928
-49.929
-41.1277
-51.7978
-48.6318
-47.1386
-45.8979
-80.676
20.5949
-71.3184
-40.6102
-51.1854
-45.447
-79.3341
-65.8109
-65.0637
-66.7281
27.9397
204.928
-50.4668
-49.5512
-44.5959
-112.873
-47.5837
-43.9672
-43.5354
-55.6564
-39.1559
-118.387
-137.883
-81.6019
-50.2704
-53.5851
-50.2182
-41.7192
-23.334
-57.9066
-44.8544
-43.8096
-50.8762
-138.664
-114.742
-83.3979
-49.9208
-44.7731
-44.4596
-23.0146
-40.2982
-57.2617
-40.0122
-37.7466
-46.543
-60.235
-42.272
-47.054
-48.0691
-33.6041
-41.3806
-41.9124
-45.8507
-49.2014
-67.2342
-94.2993
14.0985
-57.2669
-57.037
-69.5666
-69.277
-59.8055
-47.7418
-41.3444
-46.5284
-33.2417
-44.4893
-40.6855
-40.7577
-49.7469
14.664
-66.4756
-93.0177
-54.817
-68.313
-55.0686
-68.03
-89.0446
182.002
-89.6954
115.302
-62.5166
-64.2956
-52.4543
-42.0879
-45.3855
-41.6797
-46.2457
-43.8368
-3.63346
162.504
-69.7639
9.26468
-49.1657
-34.9567
-51.4173
-55.7415
-89.3247
181.937
-62.3851
-64.1421
-46.365
-35.0871
-42.799
-43.5309
-69.1774
9.45676
-47.5657
-54.2413
-44.0937
-43.7398
-58.2525
-51.6457
-54.7769
-45.5875
-48.5005
-46.277
-45.6211
-44.411
-66.0995
-113.192
57.7641
-145.932
-86.6266
-62.2477
-43.3137
-43.2522
-57.6963
-50.9102
-47.3422
-43.9817
-64.9194
-112.372
-84.4359
-60.5162
-60.909
-97.0154
-86.2127
-96.7656
-60.3206
-60.4787
-86.9218
-86.87
-53.7243
-54.0211
-16.7047
33.5196
31.7783
-16.5133
130.02
135.531
132.592
130.277
-45.1745
-43.0356
-61.3018
-69.8354
-44.5046
-68.9085
-59.8374
-42.0637
-44.7027
-44.2557
-44.55
-44.7313
-95.7661
-83.5491
-82.7035
-95.3922
-39.9024
-52.1268
-49.6179
-53.7178
-38.5788
-50.968
-44.0838
-46.3756
-44.7692
-45.5395
-45.9015
-47.6153
-61.3338
-50.8252
-48.5563
-60.271
-43.2557
-39.9072
-32.508
-39.6228
-121.291
-145.365
-112.72
-54.2312
-54.9317
-55.4867
-39.7014
1.31551
-66.9257
-45.6434
-45.6328
-51.0678
-147.465
-120.612
-117.06
-50.5532
-50.2431
-46.9129
2.94492
-39.5144
-66.6053
-40.4318
-38.8334
-45.8079
-47.7153
-43.5826
-45.8703
-45.722
-41.7228
-40.6024
-40.9382
-48.6716
-65.0683
-83.5633
-103.019
-33.0534
-59.3992
-59.1711
-65.5312
-65.7189
-47.0775
-45.2844
-42.8443
-45.3036
-40.9777
-45.3627
-39.5338
-40.0541
-66.61
-32.5639
-82.1387
-101.73
-57.2425
-64.1928
-57.1963
-63.8321
-101.919
-57.7382
-128.473
128.139
-137.8
-138.031
-107.075
65.3469
-67.1572
-49.6394
-59.6123
-61.3077
-48.8301
-45.2951
-52.9521
-42.9875
-51.7959
-50.4187
-49.0016
-44.046
-48.1155
-53.6864
-48.1939
-44.8567
-26.1321
-26.1159
-18.5902
62.9212
-52.2843
-43.0627
-67.6208
-9.88772
-41.9492
-39.9554
-45.7074
-35.8465
-51.935
-54.9045
-52.3516
-55.174
-99.1333
-57.1486
-128.511
128.256
-69.1144
-49.1679
-60.4738
-61.2046
-42.54
-37.8146
-45.8246
-35.3604
-46.5482
-52.984
-44.4039
-44.534
-51.7581
-42.3077
-66.9959
-9.28749
-48.2437
-52.1445
-48.7592
-53.0282
-41.4663
-41.1223
-42.6202
-40.9614
-49.0046
-57.3583
-52.8343
-51.773
-48.4419
-48.2748
-50.7629
-47.3973
-43.9259
-51.5376
-47.5084
-46.5486
-46.318
-45.5494
-46.4351
-45.1421
-86.8888
-74.4388
-73.2967
-99.5164
22.8759
23.2592
56.8622
-49.4726
-71.032
-70.556
-77.85
-66.4951
-40.7654
-40.7426
-41.9311
-40.4239
-48.4394
-56.7031
-52.2507
-51.11
-42.5111
-49.0373
-46.1375
-44.6875
-85.5985
-73.0162
-72.0064
-98.2367
-73.651
-64.568
-67.0209
-62.6436
-73.287
-63.6598
-66.3766
-61.9212
-76.8794
-66.1848
-66.0824
-58.8143
11.7259
23.5403
23.4342
40.1552
200.223
173.526
184.49
200.147
-46.6389
-51.2171
-49.508
-56.7359
-45.7813
-50.3901
-48.466
-55.7185
-44.487
-44.8168
-44.8696
-44.2494
-113.209
-137.552
-98.2628
-112.822
-49.3026
-44.5393
-50.7057
-46.5798
-44.5904
-41.3027
-46.8492
-43.685
-44.8384
-43.4966
-43.5801
-44.0157
-52.5141
-55.8614
-55.0958
-58.5911
-41.0495
-40.2866
-35.3458
-37.4113
-119.172
89.8533
-105.487
70.2292
-84.5799
-83.9316
-55.2488
-43.6084
-49.2079
-44.7853
-52.2407
-48.3214
-128.462
112.314
-28.6579
48.5019
-87.4257
-32.1116
-48.0765
-40.8289
-48.0257
-39.2095
-50.3573
-51.5803
-105.515
70.1397
-118.248
90.0292
-85.7513
-83.9504
-45.4045
-43.0767
-49.818
-39.4541
-46.5054
-44.9762
-28.4426
48.0378
-127.972
112.19
-86.821
-31.7745
-45.0976
-34.2273
-41.5526
-33.9104
-45.2173
-48.3788
-64.1628
-54.1528
-43.7761
-44.3869
-49.68
-45.885
-50.5194
-46.4058
-35.7684
-45.5411
-41.9328
-45.5413
-42.5064
-40.9219
-44.6473
-45.8894
-64.3283
-8.35449
-63.5194
-69.5214
-81.6369
-131.748
34.1802
-28.6059
-55.3011
-59.6749
-59.0809
-55.1393
-64.488
-77.3905
-75.3974
-64.9003
-63.3937
-53.5599
-50.2027
-46.0358
-43.0709
-43.2561
-49.2292
-45.2883
-35.5171
-47.639
-44.1124
-44.4984
-41.0401
-43.9831
-41.4396
-39.7249
-63.8581
-4.28694
35.161
-27.9485
-62.839
-68.6901
-80.4983
-129.946
-52.6621
-58.0987
-74.5146
-63.8794
-57.316
-52.8078
-62.9632
-76.095
-86.5593
-91.432
168.118
149.566
-89.0833
-89.0366
115.837
116.297
-70.7004
-60.4147
-74.1418
-56.7523
-52.8914
-50.3986
-43.0685
-40.7317
-45.7242
-46.9222
-42.5464
-40.9317
-40.8102
-50.6203
-44.1669
-45.591
-6.44113
-6.39065
163.857
163.779
-63.3152
-76.4699
-3.19209
19.7975
-49.9487
-48.7707
-32.9539
-37.4598
-50.4821
-52.32
-58.2008
-53.3337
-87.7954
-91.3976
150.028
168.219
-70.3499
-57.9542
-74.0473
-56.5445
-44.551
-47.1326
-38.2871
-31.8286
-38.7045
-45.8897
-44.3778
-44.7786
-76.0555
-62.7149
19.9357
-3.00018
-49.1103
-45.878
-51.533
-56.9503
-44.6068
-43.5745
-44.0121
-43.8635
-59.4268
-57.8436
-47.8031
-58.3522
-54.4291
-54.577
-45.4146
-45.2021
-45.2198
-53.7079
-43.0139
-50.8038
-45.9745
-45.8339
-44.6387
-44.7479
-63.8366
-68.3057
-141.926
-93.9157
51.9179
51.917
-141.79
-142.08
-86.6954
-86.247
-62.1822
-61.6482
-43.9007
-42.7047
-43.4232
-43.8569
-57.2441
-59.0629
-47.1015
-57.5408
-52.4087
-44.1345
-41.1001
-48.0748
-67.232
-62.5053
-93.1008
-141.054
-118.714
-68.8704
-72.0075
-121.2
-48.7367
-50.9833
-61.1376
-55.1025
-75.9718
-63.5831
-64.2859
-56.1267
-84.3153
-132.351
-74.7338
-76.1821
-113.028
-123.325
-71.678
-69.0286
-83.9389
-75.8975
-74.3258
-132.211
-74.9424
-55.5274
-63.6225
-62.962
-48.2131
-54.8576
-59.9858
-50.4614
-105.322
-106.691
-76.2619
-71.0715
-105.18
-71.0194
-76.1853
-106.667
-50.1659
-50.7579
-58.2619
-53.1939
-50.6049
-53.3894
-58.3792
-50.8251
-55.6304
-18.5499
7.61727
-19.7663
-7.39333
53.8813
36.3125
-6.02602
-9.13173
-4.85503
35.392
54.3427
-55.5741
-19.6699
7.63586
-18.1293
43.6905
118.605
179.318
69.9819
84.956
69.2897
176.673
124.085
85.0667
124.099
176.251
68.2203
46.5374
70.7633
179.444
119.132
-44.583
-43.0622
-47.3237
-48.2603
-41.4542
-44.5126
-45.9223
-42.303
-61.4518
-68.5917
-55.3037
-51.9013
-83.7357
-58.1864
-57.7892
-78.4368
-43.954
-47.6183
-46.5499
-42.3689
-82.6379
-77.2355
-56.8734
-57.4585
-59.7263
-50.7061
-54.136
-67.1864
-40.5207
-41.5164
-44.9801
-43.2596
-45.0333
-47.247
-44.6642
-42.8931
-45.4827
-41.6184
-44.4299
-47.054
-41.507
-45.2894
-44.6422
-43.1363
-42.7028
-41.2983
-44.7272
-45.5516
-80.9767
-129.004
-141.194
-34.0301
-70.4016
-77.3193
-97.2963
-85.0026
-68.9753
-83.757
-96.8984
-76.8759
-80.4188
-33.3384
-140.756
-127.671
-39.5753
-45.046
-43.4319
-43.2802
-55.0882
-56.9019
-48.9873
-51.4509
-49.0697
-51.3057
-50.5609
-48.5919
-57.2443
-51.9333
-50.2547
-53.6272
-38.7858
-41.6837
-40.9535
-44.3019
-54.9558
-50.5548
-47.1101
-50.3755
-42.9503
-41.7493
-45.7816
-47.0221
-49.2819
-45.9614
-44.5394
-49.9295
-44.7773
-45.1548
-44.0565
-45.8502
-43.4427
-44.9074
-44.1739
-45.1855
-44.8606
-46.2067
-44.7694
-44.565
-49.8545
-46.1437
-45.4141
-47.999
-62.7419
-57.2411
-58.6836
-66.2632
-49.8136
-46.8285
-52.9281
-53.244
-45.6648
-50.6703
-51.9867
-45.254
-60.9729
-65.7589
-58.0595
-55.4073
-45.1444
-44.461
-41.5089
-43.6053
-42.4868
-38.0989
-38.9955
-43.5625
-34.8535
-34.6619
-32.6276
-33.6218
-40.8179
-41.5697
-38.3342
-37.4435
-131.227
-153.504
-152.348
-55.7622
-55.1755
-52.7023
-47.557
-6.32193
-76.8062
-47.2369
-47.5554
-49.6995
-152.055
-113.561
-127.015
-50.9077
-53.4294
-49.4417
-6.31523
-47.4635
-76.4257
-41.9167
-40.5423
-44.042
-46.3088
-44.31
-45.3605
-45.502
-40.1661
-40.0137
-40.5425
-43.1841
-81.5417
-96.6719
-110.393
-72.2242
-60.7243
-60.6609
-63.8557
-63.6813
-45.7266
-44.9555
-43.6983
-44.7637
-39.1902
-41.4281
-39.1523
-39.8059
-81.9353
-71.6811
-94.3711
-110.54
-58.7027
-61.8715
-58.7119
-62.0597
-100.345
-74.9899
-156.481
47.2866
-137.84
-138.071
-120.452
-8.98076
-62.5302
-54.3109
-58.2778
-59.4132
-48.5422
-47.2285
-51.6519
-43.858
-49.9675
-50.5533
-49.3562
-45.6239
-46.4112
-46.8368
-47.799
-47.9079
-27.0142
-27.0018
-24.5784
-1.81395
-49.0713
-44.8879
-62.3508
-26.3571
-41.2079
-40.1963
-42.9481
-36.9261
-52.3877
-53.9156
-52.8143
-54.6096
-97.9197
-74.0524
-155.359
47.6164
-63.3797
-54.2888
-59.5323
-59.2107
-41.811
-39.5444
-44.2117
-37.109
-47.3992
-44.9216
-44.3899
-47.1318
-48.3587
-44.1408
-61.7425
-25.6059
-48.9886
-50.9749
-49.3933
-51.9629
-41.4962
-41.4094
-41.6892
-40.6324
-50.2062
-54.2077
-52.1
-51.7424
-48.6098
-48.5266
-49.1533
-48.6409
-45.3213
-49.0312
-47.1709
-46.8672
-45.9926
-45.7972
-45.417
-48.616
-83.833
-77.4215
-75.8915
-89.1561
22.094
22.2935
42.5266
-6.47182
-71.2885
-71.0513
-74.3617
-68.727
-40.8847
-40.9612
-41.1954
-40.0685
-49.622
-53.5715
-51.4998
-51.1135
-43.7825
-46.7655
-45.6378
-45.0865
-82.5221
-76.0414
-74.588
-87.7927
-69.6733
-65.1194
-66.7054
-62.6617
-69.0296
-64.3437
-66.023
-61.8781
-71.581
-66.6302
-66.5827
-62.6127
19.5825
26.5371
26.4639
35.0278
205.775
194.667
200.05
205.278
-48.373
-50.8289
-49.9622
-53.2868
-47.4824
-49.9571
-48.9812
-52.3219
-44.5866
-44.6567
-44.6831
-44.4923
-113.163
-123.58
-105.079
-112.982
-48.5004
-46.2478
-48.7623
-46.9933
-44.3851
-42.7136
-45.0493
-43.7537
-44.1786
-43.465
-43.5594
-43.2266
-54.2217
-55.7958
-55.4027
-57.019
-40.1317
-39.4777
-37.2191
-38.2346
-123.069
-115.459
-151.024
18.819
-140.637
-138.118
-119.807
-37.1477
-91.7754
-73.1361
-83.3416
-81.2391
-52.7645
-49.7251
-57.0758
-44.7139
-53.228
-51.5614
-49.9767
-46.5179
-54.7069
-50.8889
-52.7572
-48.5764
-36.9568
-50.3786
-116.161
63.7502
-14.3976
-21.3169
-30.528
0.0678142
-58.4947
-55.9599
-73.1024
-41.9275
-45.0964
-44.8688
-46.939
-41.8975
-44.6611
-42.8437
-45.8714
-39.9412
-51.6917
-50.325
-50.913
-51.8858
-141.742
-137.924
-120.148
-35.8291
-123.448
-111.08
-148.057
17.8107
-95.1287
-73.3568
-86.131
-81.3902
-49.6599
-49.7565
-46.3641
-45.2062
-47.8719
-43.9114
-50.912
-40.2743
-43.4072
-48.7164
-46.4403
-44.0531
-13.776
-21.03
-30.3395
1.27641
-36.6013
-49.4874
-116.146
63.9426
-58.1297
-55.3991
-72.336
-41.5357
-40.1193
-39.9261
-42.5297
-35.6385
-38.102
-37.621
-39.9977
-35.152
-46.8325
-46.4358
-45.95
-48.1383
-53.5605
-56.3357
-63.2705
-53.1034
-42.8916
-42.2413
-42.9742
-42.4216
-46.4874
-47.8924
-48.0602
-46.3732
-47.5311
-48.0507
-49.0964
-47.3704
-38.0197
-44.6996
-33.5543
-45.4339
-41.1686
-41.5586
-41.5524
-43.2467
-41.269
-42.799
-42.2791
-41.4964
-45.5595
-46.9345
-46.1089
-48.4092
-58.0092
-44.5535
-64.0615
-24.2235
-75.3031
-61.3418
-64.822
-68.7241
-98.7914
-90.1625
-87.0831
-124.516
-5.58039
19.0382
27.2409
-5.3721
-58.2667
-55.8498
-56.3538
-57.9033
-57.5658
-55.4413
-58.0898
-56.4026
-67.3466
-71.8497
-67.0946
-73.0386
-68.1161
-70.3478
-72.0867
-67.0226
-52.8824
-56.2494
-62.5887
-52.3954
-47.1501
-47.8025
-48.7783
-47.0386
-42.5564
-41.1662
-42.3885
-41.6305
-45.9569
-47.3456
-47.5741
-45.8079
-37.526
-45.8453
-33.4194
-45.2567
-44.196
-45.1262
-43.985
-43.9617
-40.3075
-41.1302
-40.6732
-42.2628
-40.2764
-41.51
-41.1605
-40.2986
-60.8086
-43.8452
-63.684
-21.4568
-5.03506
19.6075
27.9916
-4.7887
-74.3707
-60.6624
-64.1152
-67.9629
-97.4666
-88.8862
-85.87
-123.026
-55.9549
-53.2639
-53.7959
-55.9529
-66.9061
-69.6101
-71.1652
-66.0311
-55.5722
-53.4516
-56.2488
-54.2083
-65.7365
-70.3772
-65.5513
-71.5278
-103.55
-79.4549
-87.9733
-89.8989
165.165
196.69
178.24
177.115
-97.5149
-83.0062
-89.5984
-89.588
122.293
146.401
114.995
115.177
-60.6702
-63.9012
-66.8764
-61.0305
-62.9361
-65.2563
-69.0062
-60.3329
-52.8233
-51.6067
-53.7512
-50.8955
-42.7913
-41.3838
-42.583
-41.6154
-46.4283
-45.6024
-45.369
-45.7417
-43.7433
-40.3992
-42.0929
-41.3174
-47.1216
-44.3855
-44.3464
-48.6947
-43.9691
-43.6803
-43.1587
-44.8577
-11.0595
3.92076
-4.2729
-4.27386
128.336
185.382
162.358
162.297
-70.2174
-67.3831
-66.8365
-72.7149
-0.456925
18.2452
3.34282
14.9048
-47.6556
-50.7689
-49.5438
-49.0404
-35.2532
-34.927
-33.9603
-36.2123
-51.8266
-51.4748
-50.75
-51.6901
-55.5645
-55.8256
-56.8298
-54.5994
-103.926
-79.5012
-88.5019
-90.0174
165.148
196.693
177.097
178.243
-61.4904
-63.0983
-65.9761
-60.2195
-62.7939
-65.2755
-68.8822
-60.1548
-46.2176
-46.0995
-44.9574
-47.6912
-34.8339
-36.4467
-36.9148
-33.0558
-43.8561
-41.0719
-41.6675
-44.5961
-43.7039
-43.644
-43.4026
-43.7899
-69.5646
-66.7551
-72.2246
-66.2697
-0.0272593
18.2772
15.3964
3.54706
-48.1012
-47.493
-48.1964
-46.574
-53.7455
-54.6844
-52.963
-55.4654
-43.2371
-45.222
-44.3263
-43.8306
-43.258
-44.2232
-43.8454
-44.2601
-54.3106
-63.5901
-59.0006
-57.4909
-51.7215
-51.4693
-49.5244
-54.6683
-52.7217
-56.3836
-54.6416
-54.713
-46.2405
-45.1401
-45.6055
-45.4859
-47.9569
-48.9205
-46.652
-50.7878
-46.3087
-46.3662
-44.5557
-47.9938
-46.2924
-45.1878
-45.6707
-45.7011
-43.4058
-44.7631
-44.5721
-44.5557
-70.5878
-61.1616
-65.1099
-67.1797
-107.823
-112.924
-127.477
-101.96
61.9986
49.3232
54.9316
55.1497
-103.223
-156.349
-146.463
-146.34
-81.978
-91.7444
-86.631
-86.392
-64.3783
-60.3442
-62.2826
-62.0109
-42.4892
-44.4134
-43.5872
-43.007
-42.2649
-43.8082
-43.2645
-43.5619
-53.7368
-62.9379
-56.8724
-58.4643
-51.0237
-50.689
-48.8056
-53.9007
-46.6989
-47.8248
-49.5652
-45.5241
-44.2497
-43.7844
-42.4456
-45.5721
-69.3339
-60.0705
-66.0692
-63.8665
-106.828
-112.316
-101.151
-126.62
-97.5066
-84.2696
-85.6293
-75.4982
-60.7726
-53.8693
-62.1761
-60.5728
-62.5695
-62.6009
-61.4512
-58.9136
-111.224
-94.697
-93.4278
-84.1389
-98.9986
-85.9748
-87.7942
-76.7263
-111.009
-94.239
-93.2685
-83.8136
-62.0289
-61.9523
-60.8461
-58.3362
-60.2838
-53.4871
-59.847
-60.4582
-95.117
-85.3756
-88.2527
-80.1883
-95.0993
-85.3631
-88.1678
-80.1202
-53.9399
-51.9149
-54.7371
-54.0899
-54.3643
-52.2277
-54.9916
-54.3121
-22.8177
-25.2636
-10.4951
-10.2045
13.8158
34.9398
24.5476
42.7488
15.2528
36.1372
24.5639
43.6367
-22.6252
-24.991
-10.3851
-10.0054
116.286
118.919
148.693
122.943
109.848
101.262
138.815
154.402
98.4547
109.325
154.112
137.28
119.371
116.68
123.855
148.921
-44.4418
-45.4946
-44.8483
-46.4165
-42.3367
-42.7956
-43.3318
-44.013
-60.3805
-63.109
-57.3045
-62.5409
-69.832
-76.2622
-63.0205
-69.2373
-43.7547
-44.8568
-44.1531
-45.7277
-68.9489
-75.2685
-62.1615
-68.2313
-58.7447
-61.5663
-55.9128
-61.1378
-41.4048
-41.7753
-42.4069
-42.9755
-44.4154
-45.3141
-44.3071
-45.0669
-44.8892
-43.8138
-44.7358
-43.7891
-44.4398
-45.0819
-45.8459
-44.2681
-45.9744
-44.996
-43.3854
-45.2665
-89.8972
-56.4495
-140.455
-127.961
-81.4337
-79.2981
-88.1564
-85.3168
-78.4386
-80.354
-84.6704
-87.3291
-56.5087
-88.9691
-128.896
-139.556
-38.4041
-40.4691
-38.8573
-41.4957
-53.7361
-51.8982
-52.2835
-51.4672
-48.9726
-49.9052
-49.4903
-49.9987
-54.2578
-54.431
-52.9774
-53.2389
-37.5653
-39.2595
-37.5712
-39.8468
-51.5656
-51.9075
-50.0262
-50.5297
-42.937
-44.5343
-43.8088
-44.944
-48.0634
-46.0014
-46.7265
-46.0507
-44.6947
-42.5711
-45.1185
-44.6522
-45.6281
-44.7092
-46.359
-45.1615
-44.9545
-45.2974
-45.7772
-46.3724
-49.021
-47.9671
-47.2101
-46.3205
-60.8185
-62.9805
-59.7233
-61.8596
-49.7101
-51.2881
-50.3888
-52.0417
-47.0878
-48.5304
-48.6455
-50.0364
-59.5136
-61.9418
-58.5838
-61.0484
-43.3885
-44.27
-42.9745
-42.9594
-42.7278
-39.3531
-40.4062
-38.4024
-33.5269
-33.0863
-32.5267
-32.1508
-40.3559
-39.2124
-40.0702
-38.6416
-149.468
-23.4992
-124.571
-41.7642
-112.836
-105.093
-57.482
-47.029
-50.4775
-47.7886
-54.1215
-51.8377
-84.4069
47.4051
-44.6301
42.2341
-69.678
-62.3392
-48.278
-42.3032
-48.0261
-42.1008
-49.8646
-50.9731
-124.371
-35.5292
-142.86
-28.6689
-111.714
-106.026
-45.8144
-44.7424
-51.7952
-43.6536
-47.9438
-45.1675
-44.2823
42.34
-84.276
47.9054
-69.4182
-62.1779
-43.4
-36.3272
-41.5729
-35.9721
-43.9912
-46.3438
-48.1256
-48.2817
-43.9901
-44.1951
-46.9571
-45.1651
-46.384
-46.6925
-39.1742
-45.9506
-41.0647
-41.7128
-41.2114
-40.4519
-39.8112
-50.4879
-73.4067
-39.0258
-80.9859
-84.3469
-92.954
-126.895
-18.3303
-56.1532
-58.4093
-60.2923
-60.2615
-58.2116
-63.5207
-67.6512
-67.5419
-64.0015
-47.4764
-47.7161
-45.8973
-45.7291
-43.3045
-44.1034
-46.4148
-44.587
-38.6
-44.6824
-38.2479
-49.1082
-40.1501
-40.6345
-40.2775
-39.58
-73.3953
-41.7025
-18.4963
-55.0842
-79.5468
-83.1274
-92.0823
-125.98
-56.1808
-58.2459
-66.0701
-62.3761
-58.4225
-56.0816
-61.7977
-66.014
-155.525
41.271
-139.72
55.231
-125.003
-130.16
124.258
129.269
-119.988
-28.8303
-120.049
-28.7112
-107.281
-107.305
67.6937
67.5976
-67.6097
-69.3408
-49.7989
-52.3373
-63.8618
-57.5328
-65.8402
-57.4465
-54.1131
-44.6379
-47.4024
-42.3241
-54.7379
-50.7345
-43.354
-42.3206
-48.6861
-46.2602
-46.6644
-45.2528
-46.8632
-49.5374
-44.266
-43.7445
-49.9819
-46.1173
-49.6652
-51.3628
-44.0995
-50.1589
-43.6316
-45.2026
-24.7738
1.75152
-24.6382
1.98736
-18.7884
-18.6882
79.4873
78.4819
-68.7622
-31.3416
-62.0632
-23.044
-66.2963
-72.3042
-13.3385
-7.61844
-44.1876
-38.2691
-42.4216
-36.0061
-46.2447
-45.4306
-35.1874
-36.639
-51.6159
-52.7749
-54.3189
-56.832
-51.7872
-52.9337
-56.0583
-54.3297
-154.752
41.3933
-139.366
55.6662
-125.133
-130.166
129.331
124.453
-68.5928
-69.6258
-50.9821
-51.9861
-64.3906
-57.044
-65.7644
-57.2859
-47.0991
-39.2581
-40.0536
-35.2022
-43.7969
-47.614
-36.8063
-33.9361
-46.449
-46.3052
-49.5488
-48.6901
-44.4174
-45.3034
-43.2493
-44.7584
-68.0466
-30.8218
-61.3589
-21.843
-71.709
-65.5801
-6.84525
-12.869
-47.5509
-49.6694
-51.3766
-54.3967
-49.6207
-47.8747
-51.9845
-54.0826
-42.0739
-40.9551
-41.737
-41.2574
-42.8097
-42.4622
-42.7786
-42.7589
-49.6793
-48.5578
-56.5811
-57.8704
-51.7408
-54.2612
-49.8286
-54.5517
-48.9369
-48.5968
-48.7776
-48.4201
-50.8835
-50.9217
-47.4231
-47.326
-44.2146
-43.6312
-49.9458
-53.3286
-45.8472
-49.3929
-44.7564
-48.7906
-45.5633
-48.219
-44.8924
-48.0448
-46.1147
-46.2677
-45.0929
-45.1002
-81.267
-102.315
-71.0715
-79.8412
-70.6301
-75.9252
-110.916
-89.703
41.7311
-5.46413
42.1719
-4.98586
56.1839
56.2412
-49.2416
-48.8002
-73.9818
-68.4667
-73.5162
-67.9784
-77.7867
-77.5721
-66.4827
-66.2269
-41.4214
-40.2347
-41.0596
-41.2642
-42.1491
-41.7197
-41.4655
-40.7656
-49.1367
-47.9525
-55.9642
-57.1786
-53.6714
-51.1705
-49.1823
-53.8687
-42.8887
-42.1329
-48.9859
-50.7148
-48.067
-44.5337
-43.0073
-46.933
-80.0338
-100.952
-69.6727
-78.4198
-74.6661
-69.2897
-88.3788
-109.596
-72.9687
-73.9709
-68.3457
-62.3522
-64.8976
-70.4742
-61.8685
-63.5354
-72.5283
-73.6233
-67.4355
-61.471
-69.9269
-64.2317
-62.907
-61.041
-76.7391
-76.7078
-70.9998
-62.1132
-70.9089
-62.0015
-58.8089
-58.864
10.8505
10.8647
15.6238
29.2163
29.2156
15.5885
39.1306
39.677
195.07
194.861
180.836
180.865
183.156
183.189
194.913
194.985