# vtk DataFile Version 2.0
tet_velo
ASCII
DATASET UNSTRUCTURED_GRID
POINTS 29498 float
-0.695 0.145 -1.86928
-0.805 0.145 1.86777
-0.696232 0.475 -1.795
-0.765 0.785 1.89415
0.695 0.145 -1.86925
0.805 0.145 1.86777
0.696232 0.475 -1.795
0.765 0.785 1.89415
-0.773272 0.103395 -0.623597
-0.763111 0.150223 0.622087
-0.800145 0.659324 -0.565283
-0.799146 0.738735 0.664433
0.773272 0.103395 -0.623577
0.76266 0.150673 0.622097
0.800125 0.659303 -0.565283
0.799044 0.738633 0.664433
-1.469 -0.169565 -2.8875
-1.47146 -0.121161 -1.89735
-1.52737 -0.140002 -0.651255
-1.54046 -0.13439 0.598054
-1.55599 -0.131312 1.84442
-1.56465 -0.110049 2.8359
-1.5668 -0.0744725 3.82492
-1.46364 0.0584274 -2.85611
-1.46574 0.131056 -1.8677
-1.5405 0.129251 -0.624709
-1.54571 0.156959 0.619719
-1.56268 0.166726 1.86302
-1.57115 0.188504 2.85427
-1.57218 0.222686 3.84381
-1.46497 0.469745 -2.78883
-1.47113 0.540164 -1.79976
-1.561 0.667033 -0.567653
-1.56944 0.742296 0.663322
-1.54995 0.786032 1.89573
-1.56601 0.805128 2.88764
-1.57482 0.830019 3.87976
-1.48626 1.21452 -2.69992
-1.49712 1.30315 -1.71325
-1.53551 1.45291 -0.486315
-1.56271 1.58059 0.737174
-1.56867 1.65896 1.96427
-1.57166 1.69644 2.95129
-1.57618 1.72462 3.94167
-0.724324 -0.16318 -2.88852
-0.708932 -0.111527 -1.89885
-0.758171 -0.152026 -0.651048
-0.763796 -0.142262 0.600076
-0.778732 -0.147085 1.84795
-0.78788 -0.122133 2.83829
-0.790125 -0.0825502 3.82631
-0.722864 0.0575051 -2.85642
-0.798254 0.177485 2.85624
-0.796528 0.215538 3.84485
-0.722665 0.44275 -2.78685
-0.792699 0.801845 2.88733
-0.800248 0.826809 3.87969
-0.728031 1.19501 -2.69797
-0.729444 1.28426 -1.71109
-0.758815 1.44639 -0.485016
-0.784798 1.58262 0.737021
-0.792621 1.66231 1.96316
-0.796292 1.69877 2.95019
-0.80104 1.72577 3.94086
0.727718 -0.163171 -2.8885
0.738649 -0.11152 -1.89882
0.773099 -0.151973 -0.65103
0.774693 -0.141962 0.600086
0.800558 -0.146971 1.84795
0.782968 -0.122048 2.8383
0.77071 -0.082462 3.82631
0.710911 0.0575089 -2.8564
0.774501 0.177541 2.85624
0.764126 0.215614 3.84486
0.71381 0.442751 -2.78684
0.759302 0.801882 2.88733
0.754841 0.82687 3.8797
0.77151 1.19501 -2.69796
0.786097 1.28426 -1.71109
0.792067 1.44638 -0.485012
0.778944 1.58262 0.737024
0.764476 1.66233 1.96316
0.757121 1.69881 2.95019
0.751622 1.72582 3.94087
1.46789 -0.169543 -2.88747
1.48155 -0.121137 -1.89731
1.53394 -0.139891 -0.651224
1.54911 -0.133988 0.598073
1.56973 -0.131032 1.84443
1.56218 -0.10985 2.8359
1.5503 -0.0742885 3.82493
1.45019 0.0584395 -2.85607
1.45745 0.13106 -1.86766
1.53663 0.1293 -0.62468
1.54747 0.157366 0.619736
1.56484 0.166966 1.86302
1.55601 0.188668 2.85427
1.54465 0.222851 3.84382
1.45485 0.46975 -2.78881
1.46481 0.540158 -1.79974
1.55781 0.66701 -0.567641
1.56863 0.742351 0.66333
1.54599 0.786164 1.89574
1.54013 0.805246 2.88765
1.53441 0.830153 3.87977
1.52212 1.21453 -2.69991
1.54079 1.30316 -1.71323
1.56111 1.45291 -0.486305
1.55803 1.58061 0.737182
1.54399 1.65903 1.96428
1.53522 1.69653 2.9513
1.52899 1.72473 3.94168
-0.689203 0.31 -1.82573
0 0.121496 -1.89277
-0.755129 0.103205 -1.24644
-0.813223 0.465 1.90918
0 0.164468 1.8483
-0.820878 0.110788 1.24493
0 0.529141 -1.84914
-0.849063 0.668036 -1.18014
0 0.799396 1.90855
-0.822998 0.802792 1.27929
0.689212 0.31 -1.82572
0.755129 0.103205 -1.24641
0.813185 0.465 1.90915
0.820834 0.110832 1.24493
0.849271 0.668244 -1.18014
0.823019 0.802814 1.27929
-0.791522 0.103478 -0.000755012
-0.863193 0.381359 -0.59444
-3.55614e-08 0.100871 -0.623587
-0.869813 0.444479 0.64326
-0.000225426 0.100899 0.622092
-0.787981 0.687365 0.049575
-1.02522e-05 0.94728 -0.565283
-5.07343e-05 1.04835 0.664433
0.791522 0.103478 -0.000740051
0.863189 0.381349 -0.59443
0.869824 0.444653 0.643265
0.787941 0.687325 0.049575
-0.878899 0.34568 -1.21329
-0.85329 0.412919 0.02441
-0.895074 0.454739 1.26211
-1.77807e-08 0.100779 -1.24643
-0.000112731 0.100895 -0.000747532
-0.000112713 0.115345 1.24493
0 0.31 -2.02141
0 0.465 2.06638
-5.12611e-06 0.714653 -1.18014
-3.04932e-05 1.09766 0.049575
-2.53671e-05 0.911724 1.27929
0.878899 0.345675 -1.21328
0.853287 0.413001 0.0244175
0.895074 0.454827 1.26211
-1.08037 0.138028 -1.86849
-0.701966 0.0167365 -1.88406
-0.708932 0.101253 -2.36285
-1.18384 0.155863 1.86539
-0.791866 -0.00104268 1.85786
-0.801627 0.161243 2.36201
-1.08368 0.507582 -1.79738
-0.709449 0.458875 -2.29093
-0.712838 0.87963 -1.75305
-1.15748 0.785516 1.89494
-0.77885 0.793422 2.39074
-0.77881 1.22366 1.92866
0.716825 0.0167398 -1.88404
0.702956 0.101254 -2.36282
1.07622 0.13803 -1.86846
0.802779 -0.000985708 1.85786
0.789751 0.16127 2.36201
1.18492 0.155983 1.8654
0.705021 0.458876 -2.29092
0.741164 0.87963 -1.75304
1.08052 0.507579 -1.79737
0.762151 0.793441 2.39074
0.764738 1.22367 1.92866
1.1555 0.785582 1.89494
-1.15688 0.116323 -0.624153
-0.765722 -0.0243154 -0.637322
-1.15441 0.153591 0.620903
-0.763453 0.00398012 0.611081
-1.18057 0.663178 -0.566468
-0.77948 1.05285 -0.52515
-1.18429 0.740515 0.663878
-0.791972 1.16068 0.700727
0.773186 -0.0242894 -0.637303
1.15495 0.116347 -0.624128
0.768677 0.00435555 0.611091
1.15507 0.15402 0.620916
0.796096 1.05284 -0.525148
1.17897 0.663157 -0.566462
0.788994 1.16063 0.700729
1.18384 0.740492 0.663882
-1.47023 -0.145363 -2.39243
-1.46632 -0.0555689 -2.8718
-1.09666 -0.166372 -2.88801
-1.49942 -0.130581 -1.2743
-1.4686 0.00494758 -1.88252
-1.0902 -0.116344 -1.8981
-1.53391 -0.137196 -0.0266003
-1.53393 -0.00537562 -0.637982
-1.14277 -0.146014 -0.651151
-1.54823 -0.132851 1.22124
-1.54308 0.0112845 0.608887
-1.15213 -0.138326 0.599065
-1.56032 -0.120681 2.34016
-1.55934 0.017707 1.85372
-1.16736 -0.139199 1.84619
-1.56573 -0.092261 3.33041
-1.5679 0.0392271 2.84508
-1.17627 -0.116091 2.83709
-1.56949 0.0741065 3.83436
-1.17846 -0.0785114 3.82561
-1.46469 0.0947416 -2.3619
-1.46431 0.264086 -2.82247
-1.09325 0.0579663 -2.85626
-1.50312 0.130153 -1.2462
-1.46844 0.33561 -1.83373
-1.5431 0.143105 -0.00249463
-1.55075 0.398142 -0.596181
-1.5542 0.161843 1.24137
-1.55758 0.449628 0.641521
-1.56691 0.177615 2.35864
-1.55632 0.476379 1.87937
-1.57166 0.205595 3.34904
-1.56858 0.496816 2.87095
-1.1847 0.182994 2.85525
-1.5735 0.526352 3.86178
-1.18435 0.219112 3.84433
-1.46805 0.504954 -2.2943
-1.47561 0.84213 -2.74438
-1.09382 0.456247 -2.78784
-1.51606 0.603598 -1.18371
-1.48412 0.921657 -1.7565
-1.56522 0.704664 0.0478344
-1.54825 1.05997 -0.526984
-1.5597 0.764164 1.27953
-1.56608 1.16144 0.700248
-1.55798 0.79558 2.39169
-1.55931 1.2225 1.93
-1.57042 0.817573 3.3837
-1.56884 1.25078 2.91947
-1.17936 0.803486 2.88749
-1.5755 1.27732 3.91071
-1.18753 0.828414 3.87973
-1.49169 1.25883 -2.20659
-1.10714 1.20476 -2.69895
-1.51631 1.37803 -1.09978
-1.11328 1.2937 -1.71217
-1.54911 1.51675 0.12543
-1.14716 1.44965 -0.485666
-1.56569 1.61978 1.35072
-1.17376 1.5816 0.737098
-1.57016 1.6777 2.45778
-1.18064 1.66064 1.96372
-1.57392 1.71053 3.44648
-1.18398 1.69761 2.95074
-1.18861 1.7252 3.94127
-0.716628 -0.137353 -2.39369
-0.723594 -0.0528372 -2.87247
0.00169655 -0.163175 -2.88851
-0.733552 -0.131776 -1.27495
0.0148584 -0.111524 -1.89883
-0.760984 -0.147144 -0.025486
0.00746391 -0.152 -0.651039
-0.771264 -0.144674 1.22401
0.00544865 -0.142112 0.600081
-0.783306 -0.134609 2.34312
0.0109131 -0.147028 1.84795
-0.789003 -0.102342 3.3323
-0.793067 0.0276761 2.84727
-0.00245598 -0.122091 2.83829
-0.793326 0.0664938 3.83558
-0.00970779 -0.0825061 3.82631
-0.722765 0.250128 -2.82164
-0.0059765 0.057507 -2.85641
-0.797391 0.196512 3.35055
-0.795476 0.489665 2.87178
-0.0118763 0.177513 2.85624
-0.798388 0.521173 3.86227
-0.0162006 0.215576 3.84486
-0.725348 0.81888 -2.74241
-0.00442779 0.442751 -2.78685
-0.796473 0.814327 3.38351
-0.794496 1.25031 2.91876
-0.0166985 0.801863 2.88733
-0.800644 1.27629 3.91028
-0.0227036 0.82684 3.87969
-0.728738 1.23963 -2.20453
0.0217392 1.19501 -2.69797
-0.74413 1.36532 -1.09805
0.0283264 1.28426 -1.71109
-0.771807 1.5145 0.126002
0.0166259 1.44638 -0.485014
-0.788709 1.62246 1.35009
-0.00292705 1.58262 0.737023
-0.794457 1.68054 2.45667
-0.0140726 1.66232 1.96316
-0.798666 1.71227 3.44553
-0.0195854 1.69879 2.95019
-0.0247093 1.7258 3.94087
0.733183 -0.137346 -2.39366
0.719314 -0.0528311 -2.87245
1.0978 -0.166357 -2.88799
0.755874 -0.131747 -1.27493
1.1101 -0.116329 -1.89807
0.773896 -0.146968 -0.0254721
1.15352 -0.145932 -0.651127
0.787626 -0.144467 1.22402
1.1619 -0.137975 0.599079
0.791763 -0.13451 2.34312
1.18514 -0.139002 1.84619
0.776839 -0.102255 3.3323
0.778735 0.0277463 2.84727
1.17258 -0.115949 2.8371
0.767418 0.0665762 3.83558
1.16051 -0.0783753 3.82562
0.712361 0.25013 -2.82162
1.08055 0.0579742 -2.85624
0.769314 0.196578 3.35055
0.766902 0.489712 2.87179
1.16526 0.183105 2.85526
0.759484 0.521242 3.86228
1.15439 0.219233 3.84434
0.74266 0.818883 -2.7424
1.08433 0.45625 -2.78783
0.757071 0.814376 3.38351
0.758212 1.25035 2.91876
1.14971 0.803564 2.88749
0.753231 1.27635 3.91028
1.14462 0.828512 3.87973
0.778803 1.23964 -2.20452
1.14682 1.20477 -2.69894
0.789082 1.36532 -1.09805
1.16344 1.29371 -1.71216
0.785505 1.5145 0.126006
1.17659 1.44965 -0.485659
0.77171 1.62248 1.35009
1.16849 1.58162 0.737103
0.760799 1.68057 2.45668
1.15423 1.66068 1.96372
0.754372 1.71232 3.44553
1.14617 1.69767 2.95075
1.1403 1.72528 3.94127
1.47472 -0.14534 -2.39239
1.45904 -0.0555516 -2.87177
1.50775 -0.130514 -1.27427
1.4695 0.0049614 -1.88249
1.54153 -0.136939 -0.0265759
1.53528 -0.0052954 -0.637952
1.55942 -0.13251 1.22125
1.54829 0.0116892 0.608904
1.56595 -0.120441 2.34017
1.56728 0.017967 1.85373
1.55624 -0.0920692 3.33042
1.5591 0.0394092 2.84509
1.54748 0.0742812 3.83437
1.45382 0.0947499 -2.36187
1.45252 0.264095 -2.82244
1.49704 0.13018 -1.24617
1.46113 0.335609 -1.8337
1.54205 0.143333 -0.00247195
1.54722 0.398155 -0.59616
1.55616 0.162166 1.24138
1.55805 0.449859 0.641533
1.56043 0.177817 2.35865
1.55542 0.476565 1.87938
1.55033 0.20576 3.34904
1.54807 0.496957 2.87096
1.53953 0.526502 3.86179
1.45983 0.504954 -2.29428
1.48848 0.842139 -2.74436
1.51131 0.603584 -1.18369
[...]
POINT_DATA 29498
VECTORS point_vectors float
-2.3211 -4.73952 7.0284
0.111192 0.425769 1.59805
-0.77876 0.684217 1.67358
0.259449 -0.34444 1.98109
2.32409 -4.73654 7.01854
-0.109882 0.422767 1.59743
0.781306 0.688466 1.68403
-0.259647 -0.336168 1.96564
-0.0196359 0.00484367 0.19198
0 0 0
0 0 0
0 0 0
0.0194518 0.00475669 0.189902
-0.000364439 -0.000799572 0.0028779
0 0 0
0 0 0
-0.555197 -0.229606 19.8018
-1.24294 -0.642769 20.2698
-0.53583 -0.385346 21.1617
-0.060979 -0.126906 21.2275
0.430058 0.120937 21.2583
0.680833 0.247064 20.9551
0.678113 0.121618 20.7314
-0.670433 -0.15642 19.7307
-1.6304 -0.488527 20.1953
-0.690415 -0.403055 21.225
-0.122058 -0.181335 21.2755
0.51681 0.0300695 21.3437
0.829476 0.0912076 21.0437
0.688525 -0.0135954 21.077
-0.758952 0.0208754 19.6748
-1.8147 0.08674 20.1752
-0.990136 -0.213397 21.2128
-0.255809 -0.162896 21.3759
0.491593 -0.242782 21.341
0.774331 -0.332006 20.999
0.587234 -0.277207 20.8311
-0.599919 0.336326 19.8273
-1.07234 0.605274 20.247
-0.88176 0.358131 21.0249
-0.26421 0.0339314 21.2532
0.170947 -0.260752 21.1676
0.303191 -0.337423 20.9831
0.337301 -0.378247 20.8002
-0.558072 -0.515768 19.2433
-1.97972 -3.81979 20.3061
-0.316827 -0.333019 20.7082
-0.0617281 0.00347269 18.6232
0.328493 0.879788 18.9699
0.56941 1.26626 18.4146
0.690573 1.1142 18.4645
-0.692996 -0.408462 18.9898
0.93156 1.23051 10.5879
1.29098 0.824735 12.8741
-0.873355 0.0560023 18.6742
1.45114 -0.60094 11.4294
1.14974 -0.943161 14.4949
-0.592757 0.746274 19.2817
-1.33962 1.95406 19.7749
-1.57755 1.72793 21.2902
-0.303494 0.205401 21.7385
0.117316 -0.45918 21.3175
0.254414 -0.680988 20.9173
0.214385 -0.643202 20.444
0.557642 -0.512549 19.2495
2.03671 -3.65628 20.2724
0.315582 -0.329156 20.744
0.077705 -0.0210604 18.669
-0.347405 0.861838 19.0934
-0.561011 1.22929 18.3757
-0.649145 1.10766 18.219
0.69318 -0.414804 18.9691
-0.834208 1.20333 9.93546
-1.23404 0.863627 12.4796
0.87419 0.0571473 18.6534
-1.39787 -0.614518 10.4734
-1.16596 -0.999875 13.8934
0.608338 0.717215 19.3228
1.37527 1.8208 19.8188
1.56668 1.62415 21.2801
0.301438 0.208062 21.7409
-0.113335 -0.46222 21.3229
-0.245564 -0.688017 20.9294
-0.193943 -0.638312 20.5959
0.55595 -0.231277 19.8015
1.2256 -0.624825 20.2721
0.536117 -0.381133 21.156
0.0661081 -0.129912 21.2194
-0.424354 0.112907 21.2626
-0.684103 0.246272 20.9557
-0.680564 0.137219 20.7188
0.674368 -0.160354 19.7201
1.65134 -0.500281 20.1887
0.691233 -0.405151 21.2279
0.124128 -0.182291 21.2655
-0.507257 0.0311352 21.3398
-0.833746 0.094208 21.042
-0.712589 -0.0226331 21.0788
0.761987 0.021081 19.6654
1.83912 0.0884959 20.1707
0.992386 -0.215588 21.2155
0.256001 -0.162046 21.3724
-0.490284 -0.240383 21.3428
-0.796281 -0.345496 20.9943
-0.583421 -0.276766 20.8103
0.593944 0.325654 19.8448
1.0441 0.561165 20.2657
0.856994 0.352677 21.017
0.265959 0.0349297 21.2539
-0.170164 -0.261828 21.1652
-0.304349 -0.336983 21.0024
-0.338448 -0.385011 20.8326
-2.45538 0.0516312 1.92729
-0.00014447 -0.0247083 0.211508
-0.048191 0.0108844 0.427289
0.000906699 0.00255542 0.0148088
-0.000304255 0.00320743 0.0238416
0.00140166 0.0219519 1.02753
-1.03574e-08 0.000419749 0.00121811
-0.50443 0.15873 1.53268
-0.000903563 0.000231477 -0.00307589
0.237786 0.172763 1.11336
2.45053 0.055974 1.92762
0.0483476 0.0109313 0.427647
-0.000354705 0.00279876 0.0137384
-0.00258103 0.0207755 1.03457
0.509927 0.162174 1.55
-0.238516 0.173327 1.10938
-0.0241498 0.0411474 0.643427
0 0 0
0 0 0
-0.000325566 0.000949701 0.00444514
-1.63462e-06 5.00679e-09 0.000442617
0 0 0
-1.37478e-05 0.0292333 0.0792247
-6.48507e-06 -0.00129639 0.00953219
0.0245747 0.0405581 0.657059
0 0 0
0.000297071 0.000908822 0.00395523
0 0 0
-0.000220403 -0.000394584 0.00688005
0 0 0
0 0 0
5.25541e-09 -2.75434e-07 7.71962e-05
2.51077e-08 -2.16064e-08 2.3451e-05
1.1015e-06 1.80795e-05 0.000311156
0 0 0
-0.000437074 -0.000314588 -0.00192003
1.00078e-05 0.0365766 0.213765
1.96238e-06 0.00900918 0.131463
-1.97492e-06 -1.83876e-05 0.000161485
0.000219226 -0.000392827 0.00685
0 0 0
0 0 0
-3.26697 -1.45923 19.7259
-3.18882 -6.11675 20.2063
-1.941 -1.31676 17.7965
0.919534 0.355167 20.4348
0.218901 1.03312 13.4056
0.331691 0.959321 7.85605
-3.93484 0.548071 19.5729
-2.62921 0.608413 16.9465
-2.64263 3.2373 19.1342
0.962348 -0.350992 20.3531
0.845613 -0.408327 8.05623
0.363716 -0.717724 20.5721
3.29125 -5.88164 20.016
1.94139 -1.32779 17.7702
3.30865 -1.4882 19.7085
-0.243584 1.03505 13.6564
-0.236196 0.916052 7.40129
-0.904602 0.349511 20.445
2.63037 0.617913 16.921
2.69027 3.08251 19.1816
3.96116 0.558238 19.5622
-0.767318 -0.389278 7.39972
-0.384156 -0.702641 20.3759
-0.958531 -0.334896 20.3227
-0.501952 -0.762984 21.4699
-0.461505 0.0329991 14.3782
-0.0873573 -0.17196 19.7671
0.238973 -0.000394881 10.8917
-1.52196 -0.85059 21.5886
-3.65444 1.81327 21.3419
-0.340778 -0.331126 20.8618
-0.315924 0.188184 20.8347
0.461822 0.0358385 14.5831
0.496715 -0.760934 21.4583
-0.235681 -0.253699 11.2923
0.0958932 -0.176992 19.7641
3.5727 1.70262 21.3861
1.52302 -0.861799 21.5869
0.310908 0.190911 20.8064
0.33932 -0.324062 20.8304
-0.902963 -0.414742 19.8946
-0.622457 -0.200339 19.7745
-0.608738 -0.351466 19.5662
-0.995716 -0.601146 20.9568
-1.4337 -0.578447 20.239
-1.89825 -1.58684 20.1204
-0.230511 -0.221909 21.2203
-0.625318 -0.415855 21.1799
-0.399214 -0.565463 21.4641
0.132271 -0.00748622 21.3402
-0.0940661 -0.167674 21.2346
0.0013161 -0.16787 21.2643
0.598135 0.206785 21.136
0.457628 0.0759245 21.2664
0.599417 0.416587 21.294
0.72136 0.266102 20.953
0.737411 0.180241 20.9632
0.941867 0.694918 20.5715
0.673435 0.0873196 20.8451
0.980627 0.568052 20.2421
-1.14169 -0.296086 19.7724
-0.722111 -0.078363 19.6766
-0.736041 -0.290987 19.4076
-1.27935 -0.536626 21.0221
-1.82331 -0.241883 20.1574
-0.318087 -0.288455 21.2452
-0.837807 -0.35913 21.2546
0.130565 -0.0706875 21.4049
-0.205802 -0.196201 21.3396
0.715724 0.0735363 21.1942
0.539978 -0.118529 21.3466
0.863986 0.0628063 20.7247
0.865914 -0.142785 20.9389
1.3573 0.453996 20.1788
0.836214 -0.182701 20.9886
1.25415 0.242964 19.5516
-1.29164 0.0599226 19.6996
-0.700498 0.230356 19.7082
-0.892515 0.0559206 19.2592
-1.52946 -0.0802456 20.942
-1.50242 0.476705 20.2024
-0.596693 -0.230575 21.3314
-1.07602 0.113464 21.1268
0.0931789 -0.164021 21.4429
-0.299978 -0.074114 21.3619
0.676246 -0.301889 21.1637
0.308421 -0.309594 21.2158
0.778313 -0.378739 20.7364
0.508395 -0.419023 20.9325
1.22793 -0.583752 20.3674
0.386387 -0.368746 20.406
1.05155 -0.534747 19.8893
-0.870284 0.505712 19.9496
-0.672969 0.527978 19.5665
-1.07841 0.534262 20.6922
-1.36734 1.15468 20.056
-0.574342 0.203598 21.223
-1.26594 0.804672 21.1715
-0.00866401 -0.129346 21.2376
-0.310796 0.105756 21.4885
0.243192 -0.332982 21.0117
0.157899 -0.370079 21.1878
0.349214 -0.380794 20.7015
0.323907 -0.532768 20.8927
0.255984 -0.453548 20.6041
-1.26158 -1.47887 18.8163
-0.640126 -0.475714 19.111
0.00120691 -0.732452 18.873
-0.558797 -1.42211 22.0879
-0.0439538 -4.73321 21.7188
-0.258108 0.0292278 19.472
0.00351521 -0.422692 18.9251
0.206373 0.2651 18.6743
-0.00319848 -0.0613581 16.0755
0.462359 1.1082 18.9492
-0.0163064 0.590942 16.2633
0.820508 1.22237 18.1865
0.761846 1.44636 15.4156
-0.0303879 0.771318 15.1141
0.870229 1.04472 16.0733
0.0117806 1.25349 14.8283
-0.786384 -0.198321 18.7834
-0.00928197 -0.576145 18.3942
1.40196 1.56614 11.8901
1.2724 0.409989 6.40794
-0.0200864 -0.142093 1.27953
1.79019 0.423798 12.5557
0.0214128 0.417162 3.79973
-0.765872 0.5703 18.9019
-0.00960734 0.117379 17.9123
1.96697 -0.883641 13.5189
0.519806 -1.03488 20.7183
0.0678339 -0.398722 0.664531
0.515919 -0.874225 20.6715
0.135125 -0.905904 5.84003
-0.984585 1.40215 19.3004
0.0214778 1.01956 18.9741
-1.58542 1.97766 20.5176
0.0657101 2.82079 19.4441
-0.927224 0.922709 21.856
0.0562483 3.42363 21.2912
-0.00543984 -0.215693 21.5168
-0.00281197 0.344194 22.08
0.188997 -0.592031 21.1252
-0.00221092 -0.489991 21.5053
0.267335 -0.696126 20.7787
0.00640937 -0.81575 21.0219
-0.00338622 -0.691109 21.0736
1.26615 -1.44564 18.8515
0.639137 -0.476552 19.1095
0.609492 -0.351344 19.5679
0.572728 -1.42973 22.1512
1.87046 -1.50839 20.1307
0.254027 0.0543202 19.5627
0.404741 -0.561467 21.4587
-0.212032 0.242932 18.8103
0.00300982 -0.169493 21.2475
-0.470725 1.08154 19.018
-0.586843 0.389989 21.3038
-0.780296 1.25212 18.0099
-0.711606 1.40198 15.0195
-0.932741 0.685565 20.5717
-0.82926 1.06474 15.7577
-0.98607 0.61061 20.2398
0.783025 -0.200139 18.7658
0.741919 -0.299899 19.3915
-1.35347 1.56595 11.4972
-1.14928 0.388125 5.3001
-1.36297 0.501033 19.818
-1.86969 0.437594 11.2846
-1.24064 0.318109 19.3812
0.772109 0.556798 18.9251
0.896614 0.0579372 19.2465
-1.97706 -0.911414 12.9846
-0.543792 -1.02699 20.4459
-1.28419 -0.56162 20.0194
-0.513371 -0.891113 20.5698
-1.06534 -0.583195 19.3012
1.01157 1.31601 19.3615
0.674151 0.509554 19.5906
1.60656 1.87346 20.5416
1.33949 1.06201 20.0928
0.922006 0.895247 21.8364
1.24386 0.757541 21.1641
0.00286826 -0.21666 21.5173
0.310777 0.107469 21.4899
-0.181638 -0.596146 21.1365
-0.156746 -0.374523 21.1936
-0.240105 -0.719202 20.7986
-0.314246 -0.544918 20.939
-0.278343 -0.477539 20.4681
0.900205 -0.412393 19.8982
0.624815 -0.203191 19.7694
0.989951 -0.587888 20.9514
1.43231 -0.578513 20.2393
0.225311 -0.221306 21.2212
0.624558 -0.415456 21.1784
-0.124258 -0.0146434 21.3273
0.0971373 -0.169246 21.2242
-0.593403 0.198007 21.1329
-0.451116 0.0764987 21.2761
-0.732034 0.261243 20.9391
-0.744426 0.199104 20.9565
-0.686735 0.0777373 20.8284
1.15531 -0.300983 19.7568
0.726028 -0.0813898 19.6667
1.28875 -0.546246 21.0283
1.84645 -0.246042 20.1529
0.312979 -0.288892 21.2467
0.837975 -0.362632 21.2585
-0.124686 -0.0727698 21.3946
0.206175 -0.196901 21.3323
-0.710006 0.0739597 21.1915
-0.533378 -0.117852 21.3435
-0.881856 0.0619131 20.7836
-0.882519 -0.142983 20.9313
-0.84878 -0.192257 20.9914
1.3058 0.0618807 19.6867
0.695484 0.226915 19.7182
1.54135 -0.0819993 20.9479
1.47011 0.453579 20.2136
0.594546 -0.233784 21.3309
1.06228 0.1098 21.1254
-0.0903279 -0.162753 21.4413
0.300295 -0.073364 21.3628
-0.677457 -0.303649 21.1622
-0.308361 -0.311814 21.2147
-0.80215 -0.391203 20.8069
-0.515152 -0.43433 20.9528
-0.381374 -0.369774 20.3796
0.85265 0.476723 19.9783
1.04494 0.503036 20.6912
0.568773 0.200624 21.2182
0.0102635 -0.127972 21.2434
-0.243438 -0.334381 21.0256
-0.350875 -0.389531 20.6827
-1.03288 -0.393564 19.8437
-1.58574 -1.48343 18.3655
-1.18378 -0.80196 19.4828
-1.60644 -0.671296 19.1374
-0.680821 -0.321735 19.4775
-2.52936 -1.66867 19.958
-1.14706 -0.588671 20.9925
-0.375547 -0.636881 16.7443
-1.11028 -1.23945 21.4121
-1.82537 -1.42693 21.8008
-0.412566 -0.667927 21.5763
-0.283688 -0.27337 21.2242
-0.361274 0.224026 12.8981
-0.0943174 -0.255132 21.3556
-0.0365421 -0.369138 20.5998
-0.0129434 -0.197512 20.7627
0.118467 -0.0465338 21.3671
0.314995 0.216546 12.5046
0.214881 0.022422 21.3738
0.185043 0.00583963 20.345
0.772128 0.423246 20.9204
0.647481 0.151848 21.1385
0.428321 1.25825 14.0985
0.814996 0.586585 21.0944
1.18275 0.462728 20.3393
1.12918 0.584198 20.3762
0.80718 0.168454 20.884
1.11123 1.39425 15.0383
0.991116 0.635813 20.4059
1.29039 0.347827 20.1196
1.11716 0.431286 20.0354
-1.27047 -0.159756 19.7084
-2.43752 -0.596304 17.0737
-1.96429 0.203055 18.8999
-0.837308 -0.131985 19.2909
-4.06655 -0.596294 19.5805
-1.4652 -0.364634 21.0234
-2.70855 -0.262336 21.5584
-0.839869 -0.836704 21.5751
-0.447949 -0.295202 21.2987
-0.790614 -0.753975 21.0225
-0.144897 -0.178919 20.1412
0.108806 -0.129475 21.4367
0.180485 -0.081436 20.7041
1.08691 0.145911 19.6811
0.774979 -0.122973 21.1065
0.211921 0.167417 3.09506
1.09982 -0.51737 20.5628
1.47498 -0.0248432 19.6071
0.892995 -0.129646 21.2583
1.8242 0.403635 11.6265
1.13176 -0.56472 20.5148
1.4077 -0.0636169 19.4996
-1.13851 0.374453 19.8064
-1.66453 1.62817 18.3827
-1.04112 0.869499 19.6692
-0.807873 0.376248 19.3704
-2.30697 1.26556 19.8379
-1.42395 0.328778 20.7936
-3.02015 2.48928 20.684
-1.47181 1.08025 20.6737
-1.9149 0.320884 21.368
-0.696502 -0.0056827 21.3244
-1.93538 0.694532 21.4737
-0.798887 0.426625 21.4856
-0.461158 -0.0119949 21.6993
0.0302418 -0.174782 21.3563
0.260015 -0.319654 20.6969
-0.00635652 -0.16976 21.3954
0.357114 -0.523804 21.4202
0.441828 -0.395983 21.0832
0.410993 -0.894611 20.6867
0.253765 -0.454577 21.0834
0.615584 -0.724923 20.9943
0.47689 -0.478334 20.7657
0.522586 -1.03334 20.8692
0.328543 -0.559968 20.8129
0.605063 -0.648917 20.5184
1.59045 -1.47231 18.3834
0.0184512 -2.54221 17.9876
-0.0116736 -2.60418 15.7266
-0.00297198 -0.677479 18.6008
-0.0277756 -4.6637 21.0143
0.378728 -0.676779 17.1908
0.00109135 -1.13165 21.2707
0.00595775 -0.101364 10.6061
0.374424 0.254158 13.0859
0.00658785 -0.18712 17.156
-0.0140477 -0.00534135 8.10136
-0.319256 0.19345 12.7995
-0.0136052 0.228869 16.0302
-0.0220471 0.478849 8.5933
-0.409546 1.22266 14.0453
-0.0266325 0.598002 15.9565
-0.08063 -0.593468 1.14378
-0.0491093 0.48996 8.75783
-1.0669 1.40905 14.7533
-0.00183214 1.07646 15.2071
-0.0185578 0.570664 2.34457
0.0225592 1.21924 9.68901
2.44416 -0.602327 17.033
-0.0112552 1.8316 13.907
-0.00672032 -0.310683 18.0602
-0.108929 0.153613 2.73427
-0.0330024 0.568543 -0.147654
0.0761199 -0.758224 -4.24728
-1.83365 0.429437 10.6794
0.0764089 -1.0568 2.3584
0.123489 -1.20091 -2.97575
1.67048 1.55512 18.4486
0.0501271 2.01917 18.9248
0.0127985 0.856618 18.3315
0.0571523 4.61333 18.6808
3.02068 2.33774 20.7185
0.0618293 3.22861 20.1257
0.0485992 5.59186 19.4668
1.93974 0.678338 21.5712
0.0151997 1.79434 22.44
7.69949e-05 -0.179544 14.4634
-0.278124 -0.313943 20.5749
-0.00179689 -0.23009 21.6349
-0.00103638 -0.646827 14.3223
-0.427808 -0.876274 20.3718
-0.000835278 -0.659676 21.3587
0.0112056 -1.05507 16.3015
-0.511621 -1.07347 20.5241
0.0119563 -0.79169 20.7594
0.02505 -1.0083 17.6834
1.03882 -0.397065 19.8385
1.1786 -0.787469 19.5005
1.618 -0.680936 19.1113
0.685228 -0.327254 19.4694
2.50534 -1.63368 19.9671
1.14695 -0.586783 20.9905
1.12706 -1.21004 21.3838
1.83008 -1.43711 21.809
0.416616 -0.664606 21.574
0.277612 -0.270563 21.2283
0.0891619 -0.250035 21.3563
0.0153222 -0.368773 20.6028
0.0202158 -0.205762 20.7984
-0.110098 -0.0532574 21.3479
-0.204619 0.0138829 21.3836
-0.173931 0.00235875 20.3615
-0.75309 0.397519 20.9696
-0.638513 0.154616 21.1349
-0.800264 0.563412 21.1058
-1.17192 0.47326 20.2012
-1.11159 0.609939 20.3072
-0.819014 0.164684 20.9169
-0.999807 0.665703 20.3341
-1.29742 0.427405 19.5812
-1.11141 0.509632 20.021
1.2816 -0.164246 19.695
1.97539 0.207857 18.8817
0.842801 -0.134319 19.2744
4.13024 -0.599316 19.5589
1.47699 -0.371437 21.0314
2.72182 -0.267799 21.5688
0.832857 -0.841664 21.5595
0.444478 -0.298447 21.2968
0.785786 -0.762813 21.0043
0.148756 -0.180209 20.1387
-0.106062 -0.1275 21.4351
-0.180334 -0.0731105 20.6842
-1.07494 0.151491 19.6561
-0.775892 -0.12172 21.1033
-1.11773 -0.495128 20.4009
-1.4914 0.024758 19.1017
-0.934899 -0.131527 21.393
-1.20898 -0.586386 19.8465
-1.4765 0.00794389 19.2264
1.12059 0.360627 19.8215
1.03364 0.820854 19.7053
0.804987 0.372127 19.3871
2.25314 1.1793 19.8819
1.39225 0.315721 20.7866
1.4179 0.998659 20.6815
1.87037 0.310036 21.3616
0.692585 -0.00613459 21.3205
0.791057 0.416584 21.475
0.461217 -0.0108125 21.6993
-0.0283614 -0.175214 21.3594
0.00722544 -0.168224 21.4007
-0.356736 -0.52778 21.4266
-0.443526 -0.401133 21.0869
-0.25145 -0.462971 21.0946
-0.620122 -0.745998 20.9992
-0.487435 -0.496268 20.7349
-0.341719 -0.574159 20.8087
-0.595922 -0.678449 20.5227
-1.40379 -0.766547 19.3005
-1.38705 -1.39061 21.5979
-0.0358486 -0.301267 21.1449
0.220057 0.00568941 20.9527
1.02154 0.57793 20.6154
1.1513 0.490724 20.5914
-1.8988 -0.313569 18.9121
-2.38061 -0.830686 21.8703
-0.230068 -0.595797 20.6536
0.189905 0.0700905 20.1842
1.34638 0.0325403 19.8506
1.41648 -0.0847425 19.526
-1.53548 0.778069 19.2775
-2.30187 0.820605 20.9132
-1.18426 0.100483 21.699
0.0446408 -0.229899 21.5949
0.495582 -0.647452 21.1734
0.58736 -0.706062 20.6088
0.00656767 -2.79956 16.9901
0.00654167 -0.313488 12.6229
0.00795753 -0.0295589 9.10138
-0.0210533 0.2451 8.51326
-0.0577727 0.182581 8.5158
-0.0160848 0.960685 9.34118
-0.0136065 -0.929835 14.095
0.0226398 -0.193166 -3.49614
0.0636755 -0.963798 -4.02281
0.0381689 2.81781 17.4646
0.0629226 4.66228 19.5238
0.00139967 1.47353 15.3847
0.00348668 -0.54338 13.8806
0.00533977 -0.779202 15.6837
0.0143093 -1.26735 17.2687
1.40533 -0.766619 19.3003
1.39611 -1.36745 21.5779
0.0230586 -0.296677 21.1625
-0.206773 -0.00525827 20.9954
-1.00459 0.569122 20.606
-1.16702 0.547071 20.5035
1.91772 -0.319291 18.8881
2.38993 -0.839053 21.8797
0.216795 -0.606494 20.651
-0.182571 0.0745321 20.1813
-1.34253 0.0658775 19.6362
-1.50154 -0.0272973 18.9367
1.52071 0.754931 19.3155
2.24566 0.779981 20.9086
1.17013 0.0972855 21.6899
-0.0469804 -0.229176 21.6006
-0.491576 -0.659375 21.1778
-0.585181 -0.733608 20.6497
-0.362946 -0.0640698 0.128314
-0.00628233 -0.0175612 0.158065
-0.00436216 -0.0283384 0.277377
0.00689233 0.00164403 0.0247871
-0.0135246 0.00993526 0.0482458
-0.00140911 0.00926349 0.658905
-0.564072 0.125239 0.633323
-0.000456151 0.00403598 0.0119225
0 0 0
0.0800148 -0.0163887 0.240926
-0.0264966 -0.0146044 0.0576168
0.0162624 -0.00753334 0.203312
0.00599873 -0.0179189 0.158313
0.349129 -0.0615641 0.124018
0.00443614 -0.0285955 0.280496
0.0144986 0.010495 0.0509516
-0.0061784 0.00164728 0.0237773
0.00118899 0.00906186 0.661365
0.000438013 0.0038889 0.0115119
0.578569 0.12789 0.652294
0 0 0
0.0242025 -0.0137294 0.0550512
-0.0792281 -0.0155148 0.239675
-0.0164765 -0.00730758 0.201647
-0.0231562 0.00363043 0.397105
-0.042399 0.0190326 0.551155
0.0340526 0.0301598 0.46214
0 0 0
0.0468046 -0.109088 1.29503
-0.121857 0.0393533 2.58859
-0.00198358 0.00224989 0.0197538
0 0 0
-0.287852 -0.277904 1.01389
0 0 0
0 0 0
-0.0583592 0.0568263 0.171201
0.259256 0.275367 1.0306
1.62303e-20 2.88106e-18 8.17315e-18
0 0 0
0.0881016 0.0181583 0.216025
0.0233034 0.00366315 0.397831
0 0 0
0.0429817 0.0192783 0.55349
-0.0509635 0.0253196 0.516712
-0.0468693 -0.113989 1.33383
0 0 0
-0.0287114 0.0177788 0.491698
0.00215303 0.00281821 0.0178793
0.287493 -0.275724 1.00795
0.0574197 0.0570282 0.170804
0 0 0
0 0 0
-0.254862 0.268119 1.00014
-0.0880248 0.0182203 0.2151
0 0 0
0 0 0
-0.120504 -0.0484942 0.376315
0 0 0
-1.62828e-20 -3.62851e-18 1.42995e-16
0.00201361 -1.80175 -0.203472
0 0 0
3.1059e-06 5.63426e-07 -0.000104107
0.000230982 0.000716913 0.00841751
-0.00808211 -0.000195507 -0.00139389
0 0 0
-0.00244606 -0.0344434 -0.00182587
0.000204213 0.00379579 0.0694063
3.69279e-05 3.87328e-05 0.00197033
-1.71985e-05 0.882458 0.796495
-5.2717e-06 0.0135773 0.046465
-9.7988e-05 -0.000150031 0.0027526
-0.00536137 0.0047219 0.0232701
0 0 0
0 0 0
9.49496e-06 0.00065427 0.00617936
0.0145228 -0.016511 0.0861305
0 0 0
0.117137 -0.047093 0.365563
-3.19224e-06 5.79993e-07 -0.000106847
-4.90157e-20 -2.21037e-19 -8.52443e-18
0.00830858 -0.000110958 -0.00147147
-0.000228456 0.000710945 0.00834444
-0.000181154 0.000147069 0.00977987
-0.000192214 0.00373567 0.0693755
0.00558726 0.00492366 0.0242584
9.98395e-05 -0.000152222 0.00280727
-0.0149897 -0.0163531 0.0859559
-9.69319e-06 0.000663251 0.00624321
0.00543449 0.0202612 0.264214
0 0 0
-2.64355e-05 -3.11207e-05 0.00297303
0 0 0
9.15844e-09 1.11275e-07 3.55098e-05
8.34867e-08 1.04931e-07 7.39912e-05
0 0 0
-0.00450579 0.0110605 0.0702931
-7.73278e-10 8.82761e-10 6.36998e-07
8.27832e-07 -8.83969e-07 -0.000241542
0.00835241 0.0503207 0.183663
0.0148093 0.0296494 0.357735
5.32547e-06 0.0314013 0.0718703
1.18335e-06 0.0308073 0.112169
2.92699e-05 -0.000211943 0.00457222
9.16519e-08 5.39673e-06 -2.84643e-05
0 0 0
-0.00661825 0.017625 0.268888
2.66497e-05 -3.1743e-05 0.00301232
0 0 0
0 0 0
0.00448435 0.0112288 0.0698516
-0.0146401 0.0293838 0.354475
-0.00813765 0.0485224 0.180328
-0.0300331 -0.0228428 0.10819
-0.235902 -0.051301 0.683839
0 0 0
-1.55084e-05 -4.73854e-05 0.00121703
0.0188737 0.0137172 0.419719
0.000479607 0.00348488 0.0239431
-0.0157033 0.0977379 0.626224
0.0203782 0.213661 0.62064
-0.0799884 0.0452787 0.490586