# vtk DataFile Version 2.0
tet_velo
ASCII
DATASET UNSTRUCTURED_GRID
POINTS 29498 float
-0.740713 0.275 -1.835
-0.715 0.345 1.93717
-0.685 0.764037 -1.875
-0.645 1.02623 1.875
0.740708 0.275 -1.835
0.715 0.345 1.93717
0.685 0.764036 -1.875
0.645 1.02623 1.875
-0.757102 0.273373 -0.57761
-0.771611 0.273627 0.67978
-0.758257 0.938025 -0.625
-0.739758 1.02026 0.625
0.7571 0.273372 -0.57761
0.771609 0.273627 0.67978
0.75826 0.938028 -0.625
0.739757 1.02026 0.625
-1.49179 -0.103017 -2.81375
-1.48979 -0.0458301 -1.8108
-1.50087 -0.0458318 -0.553221
-1.49771 -0.0583909 0.705847
-1.45826 -0.0158397 1.96355
-1.44831 0.0258225 2.96712
-1.45388 0.0653625 3.96955
-1.4872 0.190998 -2.83641
-1.48506 0.26733 -1.83427
-1.50454 0.29032 -0.578123
-1.49453 0.28937 0.678685
-1.43172 0.332315 1.93497
-1.43183 0.373188 2.93843
-1.44622 0.411961 3.9411
-1.4642 0.746401 -2.87965
-1.45057 0.819928 -1.8772
-1.49654 0.94927 -0.626095
-1.46963 1.0123 0.624487
-1.38663 1.03073 1.87573
-1.40809 1.06818 2.8795
-1.43762 1.10781 3.88336
-1.45436 1.69376 -2.95007
-1.45177 1.78237 -1.94872
-1.46835 1.92508 -0.700013
-1.47276 2.03736 0.547104
-1.45744 2.09434 1.79589
-1.4526 2.12589 2.7974
-1.45848 2.15884 3.80045
-0.753906 -0.0993217 -2.81423
-0.742669 -0.0389311 -1.8115
-0.750483 -0.0535088 -0.553128
-0.761 -0.0700059 0.706782
-0.737377 -0.0125391 1.96519
-0.732044 0.0277831 2.96823
-0.736839 0.0651914 3.97019
-0.755331 0.188084 -2.83656
-0.724271 0.376249 2.93935
-0.733949 0.412066 3.94159
-0.735783 0.722138 -2.87874
-0.705574 1.06724 2.87935
-0.730032 1.10711 3.88333
-0.718334 1.67653 -2.94916
-0.711426 1.76583 -1.94773
-0.728643 1.92007 -0.699413
-0.744513 2.04089 0.547032
-0.741979 2.0969 1.79538
-0.739835 2.12668 2.79688
-0.744094 2.159 3.80008
0.723483 -0.0993217 -2.81423
0.746959 -0.0389312 -1.8115
0.760408 -0.0535096 -0.553128
0.758334 -0.0700062 0.706782
0.719023 -0.0125392 1.96519
0.703149 0.027783 2.96823
0.697923 0.0651914 3.97019
0.709598 0.188084 -2.83656
0.689532 0.376249 2.93935
0.689333 0.412066 3.94159
0.696468 0.722138 -2.87874
0.665311 1.06724 2.87935
0.677782 1.10711 3.88333
0.742806 1.67653 -2.94916
0.754231 1.76583 -1.94773
0.749376 1.92007 -0.699413
0.718363 2.04089 0.547032
0.687787 2.0969 1.79538
0.681231 2.12668 2.79688
0.682209 2.159 3.80008
1.46649 -0.103017 -2.81375
1.48971 -0.0458301 -1.8108
1.50914 -0.0458326 -0.553221
1.50383 -0.0583917 0.705847
1.45625 -0.0158402 1.96355
1.43111 0.0258223 2.96712
1.42286 0.0653621 3.96955
1.45347 0.190999 -2.83641
1.48058 0.26733 -1.83427
1.50699 0.29032 -0.578123
1.50312 0.289369 0.678685
1.44057 0.332315 1.93497
1.41424 0.373187 2.93843
1.41133 0.411961 3.9411
1.43736 0.746401 -2.87965
1.44998 0.819928 -1.8772
1.49961 0.949272 -0.626095
1.47562 1.0123 0.624487
1.39174 1.03073 1.87573
1.38417 1.06818 2.8795
1.39506 1.1078 3.88336
1.47533 1.69376 -2.95007
1.48647 1.78237 -1.94872
1.48652 1.92508 -0.700013
1.45511 2.03736 0.547104
1.41573 2.09434 1.79589
1.40286 2.12589 2.7974
1.40256 2.15884 3.80045
-0.743885 0.519519 -1.88603
-2.5034e-06 0.272744 -1.83726
-0.750176 0.272918 -1.20631
-0.705579 0.685615 1.93166
0 0.347874 1.9343
-0.755681 0.296938 1.30848
0 0.807739 -1.9187
-0.762147 0.891549 -1.25
0 1.08368 1.93245
-0.713072 1.04394 1.25
0.743928 0.519518 -1.88607
0.750173 0.272917 -1.20631
0.705415 0.685615 1.9315
0.755668 0.29695 1.30848
0.76216 0.891562 -1.25
0.713046 1.04391 1.25
-0.764372 0.273484 0.051085
-0.834395 0.605699 -0.601305
-1.10258e-06 0.284828 -0.57761
-0.854554 0.646942 0.65239
-7.63342e-07 0.294034 0.67978
-0.749669 0.979803 0
1.76753e-06 1.27485 -0.625
-7.08594e-07 1.43148 0.625
0.76437 0.273483 0.051085
0.83439 0.6057 -0.601305
0.854534 0.646941 0.65239
0.749677 0.97981 0
-0.896874 0.562609 -1.22815
-0.849568 0.62632 0.0255425
-0.885738 0.666278 1.27924
-1.80299e-06 0.281137 -1.20631
-9.32962e-07 0.289468 0.051085
-3.81671e-07 0.3171 1.30848
-1.2517e-06 0.519518 -2.16492
0 0.685615 2.10012
8.83767e-07 0.96735 -1.25
5.2947e-07 1.42872 0
-3.54297e-07 1.30917 1.25
0.896874 0.562609 -1.22815
0.849564 0.62632 0.0255425
0.885738 0.666278 1.27924
-1.11289 0.271165 -1.83463
-0.741691 0.118034 -1.82325
-0.748022 0.231542 -2.33578
-1.07336 0.338657 1.93607
-0.726189 0.16623 1.95118
-0.719635 0.360624 2.43826
-1.06779 0.791982 -1.8761
-0.710392 0.743088 -2.37687
-0.698213 1.26493 -1.91136
-1.01582 1.02848 1.87537
-0.675287 1.04673 2.37718
-0.693489 1.56156 1.83519
0.743834 0.118034 -1.82325
0.725153 0.231542 -2.33578
1.11064 0.271165 -1.83463
0.717011 0.16623 1.95118
0.702266 0.360624 2.43826
1.07779 0.338657 1.93607
0.690734 0.743087 -2.37687
0.719616 1.26493 -1.91136
1.06749 0.791982 -1.8761
0.655155 1.04673 2.37718
0.666394 1.56156 1.83519
1.01837 1.02848 1.87537
-1.13082 0.281847 -0.577867
-0.753793 0.109932 -0.565369
-1.13307 0.281499 0.679233
-0.766305 0.10181 0.693281
-1.1274 0.943647 -0.625547
-0.74345 1.42905 -0.662206
-1.10469 1.01628 0.624744
-0.742136 1.53057 0.586016
0.758754 0.109931 -0.565369
1.13204 0.281846 -0.577867
0.764972 0.10181 0.693281
1.13737 0.281498 0.679233
0.753818 1.42905 -0.662206
1.12893 0.94365 -0.625547
0.72906 1.53057 0.586016
1.10769 1.01628 0.624744
-1.49079 -0.0744237 -2.31228
-1.4895 0.0439905 -2.82508
-1.12285 -0.10117 -2.81399
-1.49533 -0.0458309 -1.18201
-1.48742 0.11075 -1.82253
-1.11623 -0.0423806 -1.81115
-1.49929 -0.0521114 0.0763132
-1.5027 0.122244 -0.565672
-1.12568 -0.0496703 -0.553174
-1.47799 -0.0371153 1.3347
-1.49612 0.11549 0.692266
-1.12935 -0.0641984 0.706315
-1.45329 0.00499137 2.46534
-1.44499 0.158238 1.94926
-1.09782 -0.0141894 1.96437
-1.45109 0.0455925 3.46833
-1.44007 0.199505 2.95278
-1.09018 0.0268028 2.96767
-1.45005 0.238662 3.95533
-1.09536 0.0652769 3.96987
-1.48613 0.229164 -2.33534
-1.4757 0.4687 -2.85803
-1.12127 0.189541 -2.83648
-1.4948 0.278825 -1.20619
-1.46782 0.543629 -1.85573
-1.49953 0.289845 0.0502813
-1.50054 0.619795 -0.602109
-1.46312 0.310843 1.30683
-1.48208 0.650836 0.651586
-1.43177 0.352751 2.4367
-1.40917 0.681524 1.90535
-1.43903 0.392574 3.43977
-1.41996 0.720686 2.90897
-1.07805 0.374718 2.93889
-1.44192 0.759883 3.91223
-1.09009 0.412014 3.94134
-1.45739 0.783164 -2.37843
-1.45928 1.22008 -2.91486
-1.09999 0.73427 -2.87919
-1.47355 0.884599 -1.25165
-1.45117 1.30115 -1.91296
-1.48308 0.980786 -0.000803711
-1.48244 1.43718 -0.663054
-1.42813 1.02152 1.25011
-1.47119 1.52483 0.585796
-1.39736 1.04946 2.37762
-1.42204 1.56254 1.83581
-1.42285 1.088 3.38143
-1.43035 1.59704 2.83845
-1.05683 1.06771 2.87943
-1.44805 1.63332 3.84191
-1.08383 1.10746 3.88335
-1.45307 1.73806 -2.44939
-1.08635 1.68514 -2.94961
-1.46006 1.85372 -1.32437
-1.0816 1.7741 -1.94822
-1.47055 1.98122 -0.0764544
-1.09849 1.92258 -0.699713
-1.4651 2.06585 1.1715
-1.10863 2.03913 0.547068
-1.45502 2.11012 2.29664
-1.09971 2.09562 1.79563
-1.45554 2.14237 3.29892
-1.09622 2.12629 2.79714
-1.10129 2.15892 3.80026
-0.748287 -0.0691264 -2.31286
-0.754618 0.044381 -2.82539
-0.0152114 -0.0993217 -2.81423
-0.746576 -0.04622 -1.18231
0.002145 -0.0389312 -1.8115
-0.755741 -0.0617574 0.076827
0.00496246 -0.0535092 -0.553128
-0.749189 -0.0412725 1.33598
-0.00133276 -0.0700061 0.706782
-0.734711 0.00762203 2.46671
-0.00917734 -0.0125391 1.96519
-0.734441 0.0464873 3.46921
-0.728157 0.202016 2.95379
-0.0144476 0.0277831 2.96823
-0.735394 0.238629 3.95589
-0.0194577 0.0651914 3.97019
-0.745557 0.455111 -2.85765
-0.0228664 0.188084 -2.83656
-0.72911 0.394157 3.44047
-0.714922 0.721744 2.90935
-0.0173695 0.376249 2.93935
-0.73199 0.759587 3.91246
-0.022308 0.412066 3.94159
-0.727058 1.19933 -2.91395
-0.0196577 0.722138 -2.87874
-0.717803 1.08717 3.38134
-0.722705 1.59696 2.83812
-0.0201313 1.06724 2.87935
-0.737063 1.63305 3.8417
-0.0261251 1.10711 3.88333
-0.71488 1.72118 -2.44844
0.0122362 1.67653 -2.94916
-0.720035 1.84295 -1.32357
0.0214029 1.76583 -1.94773
-0.736578 1.98048 -0.0761904
0.0103664 1.92007 -0.699413
-0.743246 2.0689 1.1712
-0.0130753 2.04089 0.547032
-0.740907 2.11179 2.29613
-0.0270959 2.0969 1.79538
-0.741965 2.14284 3.29848
-0.0293023 2.12668 2.79688
-0.0309425 2.159 3.80008
0.735221 -0.0691265 -2.31286
0.71654 0.0443809 -2.82539
1.09499 -0.101169 -2.81399
0.753683 -0.0462204 -1.18231
1.11834 -0.0423807 -1.81115
0.759371 -0.0617579 0.076827
1.13477 -0.0496711 -0.553174
0.738679 -0.0412727 1.33598
1.13108 -0.0641989 0.706315
0.711086 0.00762191 2.46671
1.08763 -0.0141897 1.96437
0.700536 0.0464872 3.46921
0.69634 0.202016 2.95379
1.06713 0.0268027 2.96767
0.693628 0.238629 3.95589
1.06039 0.0652767 3.96987
0.703033 0.455111 -2.85765
1.08154 0.189541 -2.83648
0.689432 0.394157 3.44047
0.677421 0.721744 2.90935
1.05189 0.374718 2.93889
0.683557 0.759586 3.91246
1.05033 0.412014 3.94134
0.719637 1.19933 -2.91395
1.06692 0.73427 -2.87919
0.671546 1.08717 3.38134
0.673271 1.59696 2.83812
1.02474 1.06771 2.87943
0.679995 1.63305 3.8417
1.03642 1.10746 3.88335
0.748519 1.72118 -2.44844
1.10907 1.68514 -2.94961
0.751804 1.84295 -1.32357
1.12035 1.7741 -1.94822
0.733869 1.98048 -0.0761905
1.11795 1.92258 -0.699713
0.703075 2.0689 1.1712
1.08674 2.03913 0.547068
0.684509 2.11179 2.29613
1.05176 2.09562 1.79563
0.68172 2.14284 3.29848
1.04204 2.12629 2.79714
1.04239 2.15892 3.80026
1.4781 -0.0744237 -2.31228
1.45998 0.0439906 -2.82508
1.49943 -0.0458313 -1.18201
1.48515 0.11075 -1.82253
1.50649 -0.0521121 0.0763132
1.50806 0.122244 -0.565672
1.48004 -0.0371159 1.3347
1.50348 0.115489 0.692266
1.44368 0.00499105 2.46534
1.44841 0.158237 1.94926
1.42699 0.0455922 3.46833
1.42268 0.199505 2.95278
1.4171 0.238662 3.95533
1.46703 0.229164 -2.33534
1.44542 0.4687 -2.85803
1.49378 0.278825 -1.20619
1.46528 0.543629 -1.85573
1.50505 0.289845 0.0502812
1.5033 0.619796 -0.602109
1.47185 0.310842 1.30683
1.48937 0.650835 0.651586
1.42741 0.352751 2.4367
1.41615 0.681524 1.90535
1.41279 0.392574 3.43977
1.39921 0.720686 2.90897
1.4032 0.759883 3.91223
1.44367 0.783165 -2.37843
1.45635 1.22008 -2.91486
1.47479 0.8846 -1.25165
1.46823 1.30115 -1.91296
1.48761 0.980786 -0.000803791
1.49306 1.43718 -0.663054
[...]
POINT_DATA 29498
VECTORS point_vectors float
-1.23639 -3.05877 5.0576
0.0514566 0.309169 0.959849
-0.842772 1.19585 2.53399
0.0142556 -0.0577995 0.239175
1.23429 -3.05764 5.05715
-0.0522872 0.308108 0.958395
0.841916 1.19552 2.53033
-0.0164788 -0.053525 0.236013
-0.00848405 0.00543642 0.304753
0.00638577 -0.00258357 0.178142
0 0 0
0 0 0
0.00836377 0.00539822 0.304701
-0.00645517 -0.0025939 0.177946
0 0 0
0 0 0
-0.700187 -0.391579 19.887
-1.18475 -0.795496 20.6364
-0.361608 -0.416076 21.288
0.0585347 -0.126406 21.3743
0.565146 0.226839 21.3323
0.812942 0.337256 21.0779
0.947734 0.297997 19.9842
-0.831854 -0.297306 19.7359
-1.75781 -0.714096 20.5225
-0.514844 -0.533327 21.3811
0.0120401 -0.250449 21.5078
0.785887 0.0544299 21.4348
1.07776 0.154174 20.9722
1.07199 0.0658215 20.3004
-0.881201 0.0435996 19.6177
-2.10709 0.145479 20.2594
-1.2124 -0.340075 21.3978
-0.310998 -0.284346 21.6368
0.597877 -0.430775 21.5057
0.85871 -0.493945 21.155
0.668722 -0.402796 20.9618
-0.517589 0.342222 19.8699
-0.951029 0.63913 20.2207
-0.95801 0.514002 21.0117
-0.367474 0.0828288 21.3972
0.10084 -0.24819 21.3234
0.27735 -0.363542 21.1043
0.269847 -0.371112 20.8206
-0.758134 -0.905433 19.2477
-1.23073 -3.09777 21.3983
-0.149156 -0.309018 21.3556
0.0781057 0.0640595 20.8645
0.275399 1.04008 19.9732
0.517216 1.34661 19.1403
0.397259 1.1018 19.3355
-0.96213 -0.723311 18.8154
0.459304 1.49466 10.5018
1.39145 1.31833 13.1182
-1.02483 0.15233 18.5109
1.20846 -0.121111 9.40887
1.44778 -0.566493 14.0112
-0.43564 0.636381 19.4908
-0.962157 1.57609 19.829
-1.31052 1.7226 21.1043
-0.376838 0.392032 21.8428
0.073214 -0.382824 21.4619
0.192519 -0.596171 21.2051
0.174718 -0.692527 20.7547
0.741901 -0.943556 19.2238
1.24425 -3.0881 21.3935
0.148805 -0.309496 21.3688
-0.0774095 0.0662182 20.854
-0.246 1.02807 19.835
-0.476751 1.33866 18.7561
-0.333439 1.15943 19.2307
0.94994 -0.781656 18.7415
-0.240241 1.48145 9.63109
-1.41108 1.40672 11.9909
0.996584 0.154385 18.4483
-1.14699 -0.0897825 8.13067
-1.51405 -0.542855 12.3877
0.443281 0.627058 19.5041
0.987771 1.50537 19.8504
1.31162 1.67388 21.105
0.373392 0.410789 21.8526
-0.05704 -0.382199 21.4594
-0.175217 -0.602023 21.1979
-0.168714 -0.707035 20.8307
0.706743 -0.404508 19.8771
1.1839 -0.796745 20.6374
0.365674 -0.414387 21.2769
-0.0550387 -0.127819 21.3663
-0.558886 0.223894 21.3325
-0.815539 0.349623 21.0717
-0.982236 0.305833 19.9388
0.844964 -0.311179 19.7069
1.77166 -0.725619 20.523
0.516144 -0.529808 21.3787
-0.00995603 -0.248465 21.4972
-0.775356 0.0471013 21.4324
-1.09539 0.160375 20.964
-1.12317 0.0646466 20.1829
0.893432 0.0485727 19.5895
2.10823 0.146252 20.2577
1.20652 -0.335231 21.3943
0.309649 -0.281692 21.6302
-0.59157 -0.424924 21.4959
-0.869503 -0.515616 21.1696
-0.686045 -0.423799 21.0209
0.516147 0.330777 19.8796
0.932046 0.607905 20.2316
0.941568 0.493765 21.0079
0.372337 0.0875719 21.4074
-0.0984488 -0.258226 21.3268
-0.268382 -0.378803 21.0922
-0.220683 -0.352992 20.8894
-0.540148 -0.0472906 0.743747
4.71694e-05 0.00537997 0.0970155
-0.0254245 0.0049288 0.193976
-0.0339638 -0.0151828 -0.0195184
-0.000257939 0.00449047 0.0433067
-0.00862425 0.0172175 0.381378
-5.38624e-06 0.00931765 0.0241772
-0.0553803 -0.0164883 0.092713
-0.00122358 0.0375347 -0.0608239
0.00207574 0.00213607 0.00991516
0.54646 -0.0479894 0.75224
0.0254283 0.00491842 0.193833
0.0327723 -0.013915 -0.0193349
0.00827514 0.0168453 0.37234
0.0568848 -0.0170872 0.0967739
-0.00194497 0.00200102 0.00929922
0.000616861 -0.000257714 0.0913523
-2.16345e-05 0.000995043 0.00753723
0 0 0
-5.30768e-05 0.00612015 0.0248331
0 0 0
0 0 0
0.000295247 0.010081 0.0227608
-5.21954e-06 -0.000337124 0.0199372
-0.000619899 -0.000260938 0.0912212
2.18139e-05 0.00099127 0.00754172
5.1225e-05 0.0060078 0.0243772
0 0 0
-3.0143e-05 -0.000145106 0.00272261
-0.000427376 0.00911713 0.0480047
0.000107023 0.000660494 0.00489059
0 0 0
0 0 0
-6.83202e-06 0.000117818 0.00641409
-0.0170747 -0.0521856 0.132189
0 0 0
0 0 0
-1.77721e-08 1.07174e-05 0.000187863
-1.31165e-05 -6.16762e-05 0.00175429
3.01993e-05 -0.000145386 0.00273041
0.000426279 0.00910281 0.0478966
-0.000109089 0.000673391 0.00497418
-3.39619 -1.96046 20.4907
-1.66481 -5.04539 21.9651
-2.62266 -2.35273 17.8809
1.23339 0.814888 17.866
-0.0291656 1.26106 13.3003
0.205923 1.02817 6.57604
-4.25507 0.943388 19.7623
-3.03761 1.04022 16.7316
-2.19442 2.76733 19.3546
1.12545 -0.189672 18.2339
0.420671 0.268072 4.95035
0.414334 -0.672454 19.7077
1.69111 -5.02018 21.9393
2.64035 -2.45444 17.751
3.41594 -1.97512 20.4884
0.0538808 1.23539 13.1551
-0.060585 0.987837 6.13444
-1.22474 0.794611 17.9493
3.04185 1.0914 16.6135
2.2188 2.67618 19.3924
4.26012 0.950778 19.7594
-0.337269 0.342287 4.24669
-0.461666 -0.649607 19.1871
-1.11465 -0.199737 18.3956
-0.0597701 -0.673313 20.4159
-0.325944 0.0690681 15.8682
0.124477 -0.110458 19.4979
0.123285 0.0862552 15.48
-1.97777 -0.969754 21.6584
-3.58615 2.25279 21.3959
-0.328873 -0.316312 20.3773
-0.727397 0.257465 21.1853
0.325077 0.0646871 15.9176
0.0633274 -0.675323 20.4378
-0.126246 0.0884552 15.479
-0.12418 -0.121365 19.5908
3.55656 2.18138 21.4069
1.97208 -0.967098 21.6238
0.679346 0.282934 20.8969
0.336058 -0.326942 20.4517
-1.03215 -0.631131 20.1096
-0.787279 -0.35641 19.8078
-0.794119 -0.623615 19.597
-0.774549 -0.630169 21.1898
-1.4727 -0.786078 20.5879
-1.60685 -1.7353 20.8164
-0.136505 -0.263638 21.3498
-0.431724 -0.471009 21.3356
-0.184763 -0.445163 21.495
0.28071 0.0507319 21.4641
0.0431276 -0.187317 21.4315
0.142993 -0.0790632 21.4436
0.714743 0.322436 21.2139
0.674019 0.178047 21.3905
0.689997 0.65338 21.2498
0.793424 0.252378 21.1559
0.963102 0.244099 21.0474
0.988818 0.745337 20.9118
1.03038 0.184591 20.1182
0.834096 0.519245 21.3663
-1.38015 -0.517179 19.9
-0.874268 -0.166052 19.6586
-0.964633 -0.491537 19.3521
-1.1122 -0.676169 21.3246
-2.05308 -0.316735 20.3865
-0.224241 -0.394638 21.4369
-0.856588 -0.53451 21.4153
0.346478 -0.0975945 21.6005
-0.136149 -0.310583 21.6001
0.948598 0.106203 21.248
0.798634 -0.225338 21.4626
1.04676 0.0658501 21.3165
1.07659 -0.242474 21.0801
1.37624 0.77759 18.587
0.865214 -0.23773 20.8964
1.5162 0.634305 19.6462
-1.5499 0.107675 19.6819
-0.711625 0.274661 19.7134
-1.04055 0.0844882 19.1488
-1.75327 -0.13634 21.133
-1.49733 0.605881 20.198
-0.752757 -0.358519 21.5752
-1.30917 0.227563 21.2177
0.128983 -0.298524 21.6741
-0.421277 -0.0801653 21.5811
0.767978 -0.471627 21.3088
0.255853 -0.383298 21.3953
0.914394 -0.509687 20.9554
0.490054 -0.510932 21.0848
1.24975 -0.603077 19.6847
0.608815 -0.493031 20.6715
1.29058 -0.60329 19.9282
-0.736823 0.502642 19.9719
-0.526612 0.478923 19.6853
-1.04079 0.635265 20.6399
-1.05129 1.04692 20.0388
-0.727561 0.305492 21.345
-1.19846 0.935538 21.099
-0.100663 -0.115403 21.4089
-0.442114 0.2228 21.5902
0.197993 -0.329017 21.1958
0.0797403 -0.330322 21.3803
0.298507 -0.360484 21.0173
0.240325 -0.501256 21.1439
0.175381 -0.44261 21.0961
-1.45966 -2.16863 19.3306
-0.858998 -0.859852 19.033
-0.0187897 -1.3611 18.7544
-0.370331 -1.02726 22.0416
0.00213721 -3.18102 22.321
-0.037766 -0.109311 20.9657
0.00191478 -0.319492 20.4758
0.190979 0.475679 20.2666
-0.000388749 0.095383 19.7917
0.35515 1.21392 19.5827
-0.00516346 0.664491 18.4752
0.722521 1.51057 18.8544
0.695887 1.63385 15.1446
-0.0829763 0.675806 17.7822
0.961563 1.22483 14.9312
-0.0258229 1.31768 16.1798
-1.08138 -0.329329 18.512
-0.0429635 -1.14462 17.9341
1.2973 1.73035 12.9394
1.13839 1.02649 5.66902
-0.0835214 -1.50369 -1.57086
1.8847 0.629257 10.8968
-0.00412864 -0.429372 1.47145
-0.722114 0.633751 19.0009
-0.0307135 0.321303 17.5422
1.75447 -0.44942 12.5901
0.497998 -0.971786 20.5396
0.00422053 -0.883958 -0.166525
0.435333 -0.94816 19.467
0.061785 -1.32611 1.61845
-0.694495 1.1181 19.5111
0.00992607 0.801723 19.2924
-1.21456 1.74773 20.3963
0.0427106 2.17973 19.5761
-0.934883 1.13277 21.7462
0.0292862 2.86635 21.0245
-0.0761261 -0.107504 21.7157
-0.00979977 0.706477 22.0623
0.139455 -0.515001 21.3345
0.00150129 -0.400219 21.4841
0.198417 -0.555379 20.9039
0.00721381 -0.646732 21.2432
0.00517646 -0.594503 20.8831
1.43994 -2.19871 19.3355
0.850771 -0.910165 18.9701
0.801825 -0.648805 19.5753
0.377936 -1.02244 22.0328
1.60677 -1.73015 20.8119
0.036945 -0.109101 20.9758
0.191136 -0.45074 21.495
-0.183836 0.477875 20.2522
-0.142096 -0.0805033 21.4506
-0.315794 1.20301 19.4281
-0.681211 0.663637 21.2406
-0.687464 1.53555 18.7044
-0.57317 1.59691 14.7162
-0.982195 0.781078 20.8884
-0.896066 1.28802 14.7779
-0.806997 0.590828 21.4308
1.06905 -0.347624 18.4235
0.987227 -0.513199 19.2924
-1.25804 1.79517 12.0192
-1.07656 1.14315 4.70737
-1.36599 0.877274 17.9852
-1.91736 0.670085 9.66391
-1.47533 0.722481 19.644
0.719337 0.638186 18.9937
1.05699 0.0907426 19.1005
-1.6233 -0.451273 10.9252
-0.49014 -0.984196 20.1789
-1.30517 -0.563454 19.2725
-0.475603 -0.975186 19.2374
-1.33129 -0.655093 19.5507
0.71612 1.08774 19.5383
0.529809 0.468725 19.697
1.2262 1.69795 20.4102
1.04631 0.994779 20.0582
0.934378 1.13809 21.7477
1.18513 0.9041 21.0974
0.078709 -0.100404 21.7344
0.444187 0.236227 21.5982
-0.122726 -0.516293 21.349
-0.0751526 -0.336047 21.3902
-0.198357 -0.593552 20.9303
-0.236403 -0.518281 21.1715
-0.167472 -0.456313 21.0919
1.03983 -0.646667 20.1058
0.792019 -0.371733 19.7884
0.775201 -0.627894 21.1848
1.47651 -0.79285 20.5894
0.138679 -0.264059 21.3509
0.435233 -0.468986 21.3296
-0.275796 0.0412298 21.4493
-0.0393901 -0.188137 21.4225
-0.714961 0.33371 21.2187
-0.666213 0.16877 21.3872
-0.815024 0.249939 21.107
-0.980235 0.248495 21.0376
-1.09805 0.19733 19.9791
1.40856 -0.539574 19.8778
0.897499 -0.169418 19.6248
1.11333 -0.677907 21.3249
2.06496 -0.319508 20.3837
0.228037 -0.391979 21.4285
0.857253 -0.53087 21.4116
-0.341629 -0.0980334 21.5955
0.135605 -0.305378 21.5904
-0.946789 0.108272 21.2489
-0.785582 -0.220465 21.4629
-1.07023 0.0693016 21.3516
-1.0929 -0.254158 21.0791
-0.921645 -0.269851 20.8235
1.57232 0.116255 19.6615
0.71212 0.276148 19.7112
1.74935 -0.135465 21.1305
1.47284 0.582933 20.2052
0.74747 -0.354448 21.5696
1.2911 0.219844 21.2112
-0.126853 -0.296103 21.6664
0.422386 -0.0802177 21.586
-0.772285 -0.478228 21.3066
-0.258376 -0.389239 21.4038
-0.912379 -0.534674 21.0075
-0.492427 -0.532266 21.0839
-0.647094 -0.484215 20.6463
0.725521 0.484348 19.9861
1.02202 0.604963 20.6429
0.726876 0.305304 21.3446
0.103416 -0.119002 21.4233
-0.197749 -0.338077 21.2074
-0.293652 -0.381854 20.9764
-1.22494 -0.591385 19.9948
-1.94702 -2.43641 18.7292
-1.35313 -1.21173 19.8048
-2.02403 -1.09005 19.2445
-0.88099 -0.591078 19.4894
-2.34265 -1.99977 20.7279
-0.938741 -0.660162 21.263
-0.460207 -0.529687 18.1781
-0.687756 -0.970993 21.6102
-1.11941 -1.3341 21.9638
-0.11693 -0.533914 21.4796
-0.167308 -0.326316 21.3837
-0.0674023 0.0592403 15.3889
-0.00304389 -0.251583 21.4438
0.0698469 -0.361791 19.7686
0.186113 -0.119295 21.0695
0.324853 -0.010053 21.5363
0.181672 0.502646 14.3501
0.386757 0.233078 21.4341
0.424305 0.255862 18.8234
0.973682 0.785691 20.1787
0.857611 0.242425 21.2072
0.197655 1.38078 14.0966
0.853577 0.747257 21.0378
1.36327 0.790461 18.3733
1.30904 0.89058 19.7451
0.923665 0.170267 21.1905
0.96862 1.75822 15.5102
0.991126 0.853378 21.1473
1.50811 0.772712 18.527
1.16883 0.553055 20.4405
-1.47939 -0.235738 19.7718
-3.40858 -0.887674 16.5627
-2.31002 0.361173 18.8087
-1.07565 -0.218015 19.176
-4.68115 -0.6287 19.9843
-1.48983 -0.493894 21.298
-2.84053 -0.287687 21.7453
-0.690044 -1.19302 20.1429
-0.465787 -0.44418 21.5269
-1.12077 -0.793834 21.0492
-0.0115802 -0.154396 18.7052
0.271362 -0.223785 21.6776
0.461909 0.0628249 19.3556
1.32442 0.375122 15.5542
0.973976 -0.231881 21.2994
-0.20623 0.792409 1.82555
1.1487 -0.406593 19.15
1.62796 0.0462133 18.0592
1.10385 -0.258305 21.2165
2.40583 0.655208 9.04943
1.33589 -0.66819 19.8698
1.44834 -0.0062482 18.3142
-1.128 0.479046 19.8042
-1.43493 1.57749 18.6871
-0.801021 0.77041 19.7441
-0.777742 0.418785 19.413
-2.05834 1.35774 19.8672
-1.5335 0.459125 20.7833
-2.73451 2.39393 20.3069
-1.2437 1.10376 20.5563
-2.1148 0.647918 21.3883
-0.903423 0.0539359 21.5037
-2.30756 0.89615 22.276
-0.865843 0.593039 21.5218
-0.629772 -0.00125484 21.9446
-0.021866 -0.227239 21.5561
0.206878 -0.324602 20.2855
-0.122893 -0.113533 21.5883
0.274256 -0.572463 21.6005
0.388321 -0.459002 21.274
0.395261 -0.821005 20.334
0.187292 -0.43247 21.2658
0.521817 -0.758131 21.2463
0.491883 -0.480296 20.8539
0.609102 -0.924106 19.7332
0.306087 -0.527348 20.9323
0.563246 -0.712379 20.82
1.93847 -2.51778 18.7019
-0.0146682 -3.77647 18.9675
-0.0560042 -5.82234 14.9647
-0.0357108 -1.32911 18.3728
0.00557797 -3.22994 21.2328
0.459534 -0.533529 18.284
0.00249991 -0.951144 21.7419
0.000473706 -0.0111937 12.1425
0.0677531 0.0570192 15.4197
1.12077e-05 -0.101941 19.908
0.00111821 0.146348 12.4245
-0.172773 0.492804 14.2215
-0.00172642 0.39618 19.0641
-0.0174895 0.502899 10.0939
-0.115819 1.34408 13.7611
-0.0321296 0.613347 17.9392
-0.121505 -0.449931 -1.11165
-0.0870048 -0.233301 7.55198
-0.930735 1.78348 15.3218
-0.0448219 1.30773 16.8589
-0.0415742 0.343286 1.49198
-0.0168357 0.537742 8.92789
3.40371 -0.896454 16.3856
-0.0743277 2.98558 13.3242
-0.0315429 -0.451038 17.4096
0.31762 0.875368 1.52562
-0.0127146 0.515718 -0.148925
0.0867522 -1.7717 -3.94717
-2.26034 0.674037 8.22238
0.0642192 -0.988031 -0.0384298
0.153273 -0.590969 0.663683
1.43794 1.56448 18.7043
0.0219616 1.50604 19.2454
-0.00594983 0.908798 18.5457
0.040757 4.08104 18.8735
2.73644 2.31304 20.3456
0.0318624 2.62743 20.1035
0.0362234 5.90258 20.5498
2.31031 0.901474 22.2714
-0.00341729 1.93797 22.0696
-0.00247825 0.547626 18.5362
-0.29386 -0.287001 19.7636
-0.00168809 -0.0552224 21.8727
-0.000184461 -0.618587 13.7769
-0.421834 -0.809175 19.7663
0.00462728 -0.534946 21.4375
0.0188626 -0.940198 15.5666
-0.584791 -0.984626 19.4373
0.0115924 -0.725036 21.0137
0.0160673 -1.10132 17.2023
1.24682 -0.612 19.9783
1.3657 -1.24431 19.7857
2.08176 -1.13673 19.1855
0.893198 -0.623108 19.458
2.34599 -2.00183 20.7264
0.940261 -0.659801 21.2605
0.691422 -0.965857 21.601
1.12018 -1.33468 21.9614
0.123846 -0.5381 21.4966
0.170404 -0.326315 21.3824
0.00649938 -0.255227 21.4538
-0.0648076 -0.368208 19.8282
-0.184146 -0.122576 21.076
-0.319113 -0.0131883 21.5282
-0.384997 0.23622 21.4289
-0.42639 0.244259 18.93
-0.965619 0.789171 20.1442
-0.8589 0.243528 21.206
-0.840253 0.766642 21.0298
-1.346 0.829331 18.0766
-1.28923 0.957256 19.581
-0.948132 0.167176 21.2157
-0.99591 0.923794 21.1301
-1.48221 0.890506 18.1712
-1.13476 0.632441 20.4516
1.52444 -0.243144 19.7389
2.34737 0.381157 18.7509
1.09635 -0.223771 19.1136
4.69784 -0.628746 19.9783
1.49008 -0.493573 21.2966
2.83564 -0.287729 21.7433
0.695368 -1.19171 20.1871
0.46519 -0.439412 21.5189
1.1241 -0.793237 21.0882
0.0148907 -0.173679 18.8184
-0.266244 -0.221545 21.6708
-0.454145 0.0446788 19.4501
-1.31628 0.360027 15.6667
-0.974188 -0.234586 21.2959
-1.16173 -0.373971 18.9257
-1.63626 0.0988531 17.1833
-1.13708 -0.272491 21.2626
-1.39378 -0.668426 19.547
-1.5078 0.0727635 17.4472
1.12121 0.473048 19.81
0.806108 0.741542 19.7612
0.778296 0.422374 19.4079
2.04178 1.30509 19.8884
1.51082 0.444196 20.7837
1.22596 1.05774 20.566
2.07686 0.625524 21.3833
0.900305 0.0530642 21.5009
0.865547 0.594456 21.5224
0.636203 0.00381606 21.9559
0.0212024 -0.229716 21.5622
0.123847 -0.111322 21.6052
-0.270773 -0.583658 21.6074
-0.392047 -0.471587 21.2768
-0.180345 -0.443493 21.2768
-0.524014 -0.777673 21.2601
-0.487571 -0.526648 20.8433
-0.299891 -0.54241 20.9293
-0.48372 -0.750323 20.9984
-1.65464 -1.2143 19.579
-0.838872 -1.13363 21.8706
0.0644528 -0.303808 21.1912
0.477412 0.233922 20.6629
1.11901 0.878978 19.8097
1.18843 0.848686 19.8402
-2.42124 -0.426954 18.8498
-2.00878 -1.0964 21.7975
-0.300644 -0.768995 19.3354
0.390237 0.382712 17.7174
1.43402 0.158856 16.8325
1.75058 0.0874889 17.6625
-1.39777 0.871765 19.3709
-2.25236 1.06052 20.746
-1.40832 0.269819 21.8731
-0.0374581 -0.30058 21.837
0.399488 -0.681409 21.3993
0.543626 -0.797538 21.1595
-0.0305478 -4.89121 17.7188
0.00194461 -0.276315 13.4663
0.00139152 0.0502294 12.0114
-0.00183563 0.31747 11.2517
-0.0872471 0.119496 9.22839
-0.0446185 1.07877 9.37689
-0.0874317 -1.39831 12.1255
-0.0072427 -0.439711 -2.90059
0.148807 -0.663381 -3.60712
0.00953788 2.50335 17.9461
0.0394169 4.36267 19.286
-0.00305656 2.76573 21.0289
0.00368092 -0.471625 15.7266
0.00476633 -0.687267 14.8358
0.00124978 -1.14967 16.7018
1.67066 -1.25255 19.5564
0.844597 -1.13147 21.8632
-0.0611581 -0.309387 21.2239
-0.474128 0.232 20.6619
-1.09312 0.904444 19.6827
-1.16979 0.958642 19.5117
2.48351 -0.438585 18.7817
2.00886 -1.09642 21.7988
0.304427 -0.775606 19.4185
-0.392804 0.361032 17.8737
-1.41774 0.200641 16.3935
-1.84562 0.151362 16.8036
1.3942 0.859439 19.38
2.22138 1.02175 20.7535
1.40691 0.270686 21.8722
0.0393822 -0.303814 21.8535
-0.399155 -0.693692 21.4044
-0.530083 -0.81833 21.2321
-0.358348 -0.379124 0.538123
-0.00261213 -0.0196915 0.260953
-0.045873 0.00690694 0.191682
0.0120608 -0.0123156 0.0369601
-0.00987096 0.00647026 0.0579511
-0.0150784 0.0161755 0.124696
-0.529189 0.106543 0.765661
-0.0255764 0.1104 0.293389
-0.551486 0.112496 1.92977
-0.0180155 0.00485104 -0.0141498
-0.00184596 0.0244404 -0.0342331
0 0 0
0.00262682 -0.0195819 0.260017
0.361209 -0.383431 0.543291
0.0457845 0.00691642 0.191357
0.00958239 0.00642991 0.0574866
-0.0118208 -0.0122089 0.0364098
0.0150491 0.0161622 0.124643
0.025909 0.112563 0.299234
0.531287 0.106772 0.768581
0.551173 0.112937 1.92982
-0.000351311 0.0255326 -0.0352894
0.0178043 0.00526826 -0.014085
0 0 0
-0.0538875 0.0271797 0.298402
0.0016214 -0.00190089 0.245251
0.000132931 0.00267973 0.0261486
0 0 0
-3.08944e-05 0.0147219 0.379298
-0.000493403 0.000827597 0.108825
-0.00156579 0.0104698 0.0737708
0 0 0
-0.151508 -0.114574 0.450057
-0.000463476 0.00420279 0.05084
0 0 0
-0.0498626 0.0532604 0.151597
0 0 0
0.0155502 0.0599724 0.195176
1.65366e-17 2.74985e-17 9.05707e-17
0.143874 0.0737077 0.771438
0.0539392 0.0271714 0.298461
0 0 0
-0.00163759 -0.00191812 0.245073
-0.000132176 0.00269175 0.0262352
0.0021014 0.0150337 0.406773
0 0 0
0.000467718 0.000826571 0.10862
0.00156679 0.0105004 0.0740696
0.150913 -0.114082 0.44831
0.0497542 0.0531835 0.151343
0.000463247 0.0041786 0.0510371
0 0 0
0 0 0
-0.143967 0.0736799 0.769415
-0.0156295 0.0603711 0.19578
0 0 0
-0.0155299 -0.0163817 0.120209
-0.236902 -0.0495403 0.154901
0 0 0
0 0 0
0 0 0
0 0 0
0.00105779 0.000233971 0.00744197
-0.00481205 0.00328318 -0.00188834
0 0 0
-0.000439716 0.000606023 -0.00277388
6.95959e-06 0.000156639 0.00153847
0 0 0
0.00132228 0.355728 0.156574
-9.12151e-06 0.0180122 0.0695731
-0.0723292 -0.136458 0.766254
0 0 0
0.000133716 0.00235905 -0.000474148
-3.41984e-05 0.00225118 -0.00437272
0.00166318 0.00412789 0.0261524
8.22929e-05 -0.000646817 0.00180735
0.210172 -0.0445361 0.138704
0.0152826 -0.0161468 0.118613
0 0 0
0 0 0
0.00474898 0.00337362 -0.00191793
-0.00115194 0.000260513 0.00810726
1.74652e-18 6.24517e-18 1.34122e-16
-6.63043e-06 0.000148531 0.0014601
0 0 0
0.0721536 -0.136489 0.766932
-0.000127335 -0.00061687 0.00181415
-0.00177766 0.00439436 0.027759
-0.00128254 0.00558373 0.043269
0 0 0
0 0 0
-0.000408921 0.00561644 0.0228576
0 0 0
0 0 0
4.78748e-05 0.00635913 0.0314743
-0.00683503 0.0287096 0.115349
0 0 0
0 0 0
0.0025201 0.0258774 0.0853127
0.0474595 0.0641567 1.58322
-1.03165e-05 0.0368092 0.0783201
-1.84439e-06 0.0315655 0.147422
0 0 0
-1.75596e-05 -0.00533284 0.036805
0 0 0
0.00128224 0.00558632 0.0432568
0 0 0
0.000407872 0.00559327 0.0227876
-5.0061e-05 0.00636971 0.0314464
0.00680136 0.0287112 0.115385
-0.0486868 0.067834 1.58955
-0.00249447 0.0256043 0.084422
-0.000229161 -0.000311711 0.0027705
-0.0913431 -0.0294641 0.268936
0 0 0
-0.00116038 -0.0149824 0.055354
-0.000932755 0.00442689 0.037157
0.00121049 0.0147423 0.0587605
-0.00102001 0.00633711 0.0479097
0.0199003 0.115029 0.477616
-0.000639563 0.00272152 0.035573
0.00939848 0.034877 0.115627
0.0325568 0.00894463 0.149029
0.0201389 -0.00400616 0.18193
0 0 0
0 0 0
0 0 0
0 0 0
0 0 0
0 0 0
0 0 0
0 0 0