# vtk DataFile Version 2.0
tet_velo
ASCII
DATASET UNSTRUCTURED_GRID
POINTS 29498 float
-0.696041 0.175 -1.965
-0.603096 0.245 2.045
-0.707176 0.545 -1.845
-0.40505 0.845 2.025
0.695743 0.175 -1.965
0.602793 0.245 2.045
0.706874 0.545 -1.845
0.405 0.844939 2.025
-0.708818 0.154575 -0.628333
-0.720309 0.135435 0.708334
-0.765646 0.804179 -0.555
-0.650503 0.889745 0.735
0.708515 0.154578 -0.628333
0.719975 0.135468 0.708334
0.765401 0.804131 -0.555
0.650317 0.889652 0.735
-1.40217 -0.198543 -3.04913
-1.40669 -0.125115 -1.99849
-1.39885 -0.14205 -0.660617
-1.3509 -0.175092 0.686648
-1.25207 -0.115639 2.02531
-1.23475 -0.0678333 3.07983
-1.25536 -0.0298097 4.12718
-1.40841 0.0616723 -3.00591
-1.41797 0.165556 -1.96037
-1.41319 0.182519 -0.631572
-1.33755 0.157832 0.701421
-1.18602 0.210838 2.03111
-1.19487 0.256698 3.08497
-1.23776 0.294587 4.13383
-1.41577 0.534611 -2.90637
-1.43462 0.635158 -1.85889
-1.44456 0.817877 -0.561912
-1.28846 0.873443 0.731761
-1.06487 0.8566 2.02964
-1.13294 0.897996 3.08542
-1.21924 0.943601 4.14182
-1.40551 1.42174 -2.79214
-1.41318 1.54323 -1.75165
-1.4099 1.73574 -0.469803
-1.35756 1.86305 0.801988
-1.28665 1.90085 2.08432
-1.27109 1.91971 3.12583
-1.29144 1.94928 4.17713
-0.697031 -0.194713 -3.05214
-0.697315 -0.116695 -2.00288
-0.699626 -0.155428 -0.660028
-0.700514 -0.191012 0.692547
-0.645576 -0.101207 2.03563
-0.639385 -0.0585236 3.08683
-0.656203 -0.0267487 4.13123
-0.699753 0.055247 -3.00684
-0.624757 0.266982 3.09074
-0.651859 0.297331 4.13689
-0.703632 0.495181 -2.9006
-0.574932 0.895637 3.0845
-0.645291 0.94223 4.14162
-0.698501 1.39534 -2.78643
-0.705983 1.51868 -1.74537
-0.722511 1.73002 -0.466014
-0.715293 1.86885 0.801533
-0.68515 1.90259 2.08108
-0.678753 1.91838 3.12259
-0.695156 1.94758 4.17477
0.710146 -0.194721 -3.05214
0.705841 -0.116698 -2.00288
0.712526 -0.155428 -0.660028
0.69677 -0.190996 0.692548
0.611891 -0.101205 2.03563
0.56303 -0.0585353 3.08683
0.544121 -0.0267672 4.13123
0.7078 0.0552404 -3.00684
0.523011 0.266965 3.09074
0.517881 0.297309 4.13689
0.71347 0.495172 -2.9006
0.453336 0.895598 3.0845
0.482546 0.942198 4.14162
0.718779 1.39531 -2.78643
0.715307 1.51866 -1.74537
0.674416 1.72998 -0.466014
0.586249 1.8688 0.801533
0.507536 1.90254 2.08108
0.488391 1.91834 3.12259
0.486958 1.94754 4.17477
1.41774 -0.198565 -3.04913
1.41683 -0.125133 -1.99849
1.41583 -0.142066 -0.660617
1.37082 -0.175092 0.686648
1.25477 -0.11565 2.02531
1.18885 -0.0678615 3.07983
1.16423 -0.0298485 4.12718
1.41765 0.0616515 -3.00591
1.41929 0.165535 -1.96037
1.42154 0.182492 -0.631572
1.36268 0.15782 0.701421
1.20934 0.210817 2.03111
1.1407 0.25666 3.08497
1.13026 0.294542 4.13384
1.42561 0.534584 -2.90637
1.43601 0.635126 -1.85889
1.44743 0.817803 -0.561912
1.30229 0.873341 0.731761
1.07447 0.856518 2.02964
1.05538 0.897926 3.08542
1.08229 0.943539 4.14182
1.42247 1.4217 -2.79214
1.41732 1.54317 -1.75165
1.3679 1.73566 -0.469803
1.25331 1.86295 0.801988
1.13901 1.90076 2.08432
1.10143 1.91963 3.12583
1.09717 1.9492 4.17713
-0.718157 0.36 -1.92155
-0.000148982 0.171772 -1.96823
-0.708722 0.158495 -1.29667
-0.560651 0.545 2.09158
-0.000151515 0.217756 2.07224
-0.70491 0.147011 1.37667
-0.000151008 0.63462 -1.93462
-0.810481 0.74866 -1.2
-2.50041e-05 0.85068 2.03071
-0.569586 0.909181 1.38
0.717911 0.36 -1.9216
0.708421 0.158497 -1.29667
0.56029 0.544969 2.09139
0.704608 0.14701 1.37667
0.810422 0.74885 -1.2
0.569422 0.909059 1.38
-0.712996 0.146572 0.04
-0.814675 0.479377 -0.591667
-0.000151523 0.160029 -0.628333
-0.859718 0.51259 0.721667
-0.000167287 0.138105 0.708334
-0.707609 0.846496 0.09
-0.0001228 1.00675 -0.555
-9.31682e-05 1.21341 0.735
0.71269 0.146578 0.04
0.814399 0.479354 -0.591667
0.860606 0.51256 0.721667
0.707406 0.846439 0.09
-0.833926 0.419688 -1.24833
-0.819495 0.495983 0.065
-0.895694 0.528795 1.37833
-0.000150252 0.158866 -1.29667
-0.000159405 0.153566 0.04
-0.000159401 0.148205 1.37667
-0.000149995 0.36 -2.05166
-8.82596e-05 0.544985 2.16063
-0.000136904 0.842949 -1.2
-0.000107984 1.26777 0.09
-5.90862e-05 1.01245 1.38
0.833924 0.419677 -1.24833
0.819192 0.495957 0.065
0.896384 0.528765 1.37833
-1.057 0.170278 -1.96268
-0.696678 0.0291527 -1.98394
-0.697897 0.115124 -2.48592
-0.894558 0.227919 2.03805
-0.624336 0.0718967 2.04031
-0.613926 0.255991 2.56787
-1.0709 0.590079 -1.85195
-0.705404 0.52009 -2.3728
-0.70658 1.03184 -1.79518
-0.734962 0.8508 2.02732
-0.489991 0.870318 2.55475
-0.5451 1.3738 2.05304
0.700792 0.0291509 -1.98394
0.701771 0.11512 -2.48592
1.05752 0.170268 -1.96268
0.607342 0.0718974 2.04031
0.562902 0.255982 2.56787
0.906064 0.227908 2.03805
0.710172 0.520086 -2.3728
0.711091 1.03183 -1.79518
1.07144 0.590063 -1.85195
0.429168 0.870268 2.55475
0.456268 1.37374 2.05304
0.739737 0.850728 2.02732
-1.06101 0.168547 -0.629953
-0.704222 -0.000426986 -0.644181
-1.02893 0.146634 0.704877
-0.710412 -0.0277886 0.70044
-1.1051 0.811028 -0.558456
-0.744078 1.2671 -0.510507
-0.969482 0.881594 0.733381
-0.682898 1.3793 0.768267
0.71052 -0.000424935 -0.644181
1.06503 0.168535 -0.629953
0.708373 -0.0277637 0.700441
1.04133 0.146644 0.704877
0.719908 1.26706 -0.510507
1.10642 0.810967 -0.558456
0.618283 1.37922 0.768267
0.976306 0.881496 0.733381
-1.40443 -0.161829 -2.52381
-1.40529 -0.0684356 -3.02752
-1.0496 -0.196628 -3.05064
-1.40277 -0.133582 -1.32955
-1.41233 0.0202204 -1.97943
-1.052 -0.120905 -2.00069
-1.37488 -0.158571 0.0130153
-1.40602 0.0202347 -0.646095
-1.04924 -0.148739 -0.660323
-1.30149 -0.145365 1.35598
-1.34422 -0.00862962 0.694035
-1.02571 -0.183052 0.689598
-1.24341 -0.0917359 2.55257
-1.21905 0.0475997 2.02821
-0.948824 -0.108423 2.03047
-1.24505 -0.0488215 3.6035
-1.21481 0.0944324 3.0824
-0.937065 -0.0631784 3.08333
-1.24656 0.132389 4.1305
-0.955782 -0.0282792 4.1292
-1.41319 0.113614 -2.48314
-1.41209 0.298141 -2.95614
-1.05408 0.0584597 -3.00637
-1.41558 0.174037 -1.29597
-1.42629 0.400357 -1.90963
-1.37537 0.170176 0.0349246
-1.42888 0.500198 -0.596742
-1.26178 0.184335 1.36626
-1.313 0.515638 0.716591
-1.19045 0.233768 2.55804
-1.12545 0.533719 2.03037
-1.21631 0.275643 3.6094
-1.16391 0.577347 3.0852
-0.909814 0.26184 3.08785
-1.2285 0.619094 4.13783
-0.944809 0.295959 4.13536
-1.42519 0.584884 -2.38263
-1.41064 0.978177 -2.84925
-1.0597 0.514896 -2.90348
-1.43959 0.726517 -1.2104
-1.4239 1.08919 -1.80527
-1.36651 0.84566 0.0849246
-1.42723 1.27681 -0.515858
-1.17667 0.865022 1.3807
-1.32301 1.36825 0.766875
-1.09891 0.877298 2.55753
-1.17576 1.37873 2.05698
-1.17609 0.920799 3.61362
-1.20202 1.40885 3.10563
-0.853938 0.896816 3.08496
-1.25534 1.44644 4.15947
-0.932266 0.942915 4.14172
-1.40935 1.48249 -2.2719
-1.052 1.40854 -2.78928
-1.41154 1.63948 -1.11073
-1.05958 1.53096 -1.74851
-1.38373 1.79939 0.166092
-1.0662 1.73288 -0.467908
-1.32211 1.88195 1.44316
-1.03643 1.86595 0.801761
-1.27887 1.91028 2.60508
-0.985902 1.90172 2.0827
-1.28126 1.93449 3.65148
-0.974922 1.91905 3.12421
-0.993296 1.94843 4.17595
-0.697173 -0.155704 -2.52751
-0.698392 -0.0697329 -3.02949
0.00655768 -0.194717 -3.05214
-0.698471 -0.136062 -1.33146
0.00426263 -0.116696 -2.00288
-0.70007 -0.17322 0.0162597
0.0064499 -0.155428 -0.660028
-0.673045 -0.146109 1.36409
-0.00187189 -0.191004 0.692548
-0.64248 -0.0798651 2.56123
-0.0168426 -0.101206 2.03563
-0.647794 -0.0426361 3.60903
-0.632071 0.104229 3.08878
-0.0381772 -0.0585294 3.08683
-0.654031 0.135291 4.13406
-0.0560408 -0.0267579 4.13123
-0.701692 0.275214 -2.95372
0.00402369 0.0552437 -3.00684
-0.638308 0.282157 3.61381
-0.599844 0.58131 3.08762
-0.0508728 0.266974 3.09074
-0.648575 0.619781 4.13925
-0.0669888 0.29732 4.13689
-0.701067 0.945258 -2.84351
0.00491898 0.495176 -2.9006
-0.610112 0.918933 3.61306
-0.626842 1.40701 3.10354
-0.0607979 0.895617 3.0845
-0.670224 1.4449 4.15819
-0.0813726 0.942214 4.14162
-0.702242 1.45701 -2.2659
0.0101389 1.39532 -2.78643
-0.714247 1.62435 -1.10569
0.00466221 1.51867 -1.74537
-0.718902 1.79944 0.16776
-0.0240475 1.73 -0.466014
-0.700222 1.88572 1.44131
-0.0645222 1.86882 0.801533
-0.681952 1.91049 2.60183
-0.088807 1.90257 2.08108
-0.686955 1.93298 3.64868
-0.0951808 1.91836 3.12259
-0.104099 1.94756 4.17477
0.707994 -0.155709 -2.52751
0.708973 -0.0697402 -3.02949
1.06394 -0.196643 -3.05064
0.709183 -0.136063 -1.33146
1.06133 -0.120916 -2.00069
0.704648 -0.173212 0.0162597
1.06418 -0.148747 -0.660323
0.654331 -0.1461 1.36409
1.0338 -0.183044 0.689598
0.587461 -0.0798702 2.56123
0.933328 -0.108428 2.03047
0.553576 -0.0426512 3.60903
0.543021 0.104215 3.08878
0.87594 -0.0631984 3.08333
0.531001 0.135271 4.13406
0.854177 -0.0283079 4.1292
0.710635 0.275206 -2.95372
1.06272 0.0584459 -3.00637
0.520446 0.282137 3.61381
0.488173 0.581281 3.08762
0.831853 0.261813 3.08785
0.500214 0.619753 4.13925
0.824071 0.295926 4.13536
0.716124 0.945242 -2.84351
1.06954 0.514878 -2.90348
0.467941 0.918898 3.61306
0.470864 1.40697 3.10354
0.754357 0.896762 3.08496
0.484752 1.44487 4.15819
0.782417 0.942868 4.14172
0.717043 1.45698 -2.2659
1.07062 1.4085 -2.78928
0.694862 1.62432 -1.10569
1.06631 1.53091 -1.74851
0.630332 1.79939 0.16776
1.02116 1.73282 -0.467909
0.546893 1.88567 1.44131
0.919781 1.86588 0.80176
0.497964 1.91044 2.60183
0.823274 1.90165 2.0827
0.487675 1.93294 3.64868
0.794911 1.91898 3.12421
0.792066 1.94837 4.17595
1.41728 -0.161849 -2.52381
1.41769 -0.0684566 -3.02752
1.41633 -0.133599 -1.32955
1.41806 0.0202013 -1.97943
1.39333 -0.158579 0.0130153
1.41869 0.0202131 -0.646095
1.3128 -0.145371 1.35598
1.36675 -0.00863594 0.694035
1.22181 -0.0917558 2.55257
1.23205 0.0475834 2.02821
1.17654 -0.048855 3.6035
1.16477 0.0943994 3.0824
1.14725 0.132347 4.13051
1.41847 0.113593 -2.48314
1.42163 0.298118 -2.95614
1.42041 0.174014 -1.29597
1.42765 0.400331 -1.90963
1.39211 0.170156 0.0349245
1.43449 0.500147 -0.596742
1.28601 0.184319 1.36626
1.33249 0.51558 0.716591
1.17502 0.233739 2.55804
1.14191 0.533667 2.03037
1.13548 0.275601 3.6094
1.09804 0.577293 3.0852
1.10627 0.619041 4.13783
1.43081 0.584855 -2.38263
1.42404 0.97814 -2.84925
[...]
POINT_DATA 29498
VECTORS point_vectors float
-6.16648 -9.30877 13.1473
0.198808 0.0327923 0.416354
-2.04904 0.958798 3.16938
-1.0741 -0.179203 -0.491781
6.11024 -9.29253 13.0788
-0.199143 0.0278532 0.413123
2.03636 0.946028 3.15343
1.08401 -0.153251 -0.535044
0 0 0
0.000337515 -0.000567719 0.114996
-0.129824 -0.0707565 0.291206
0 0 0
0 0 0
-0.000400966 -0.00049227 0.11144
0.124988 -0.0687764 0.283657
0 0 0
-0.522196 -0.254391 19.8085
-1.21378 -0.74866 20.326
-0.478364 -0.502237 21.2431
-0.0259409 -0.220062 21.4528
0.833748 0.36721 21.463
1.23466 0.527127 20.8258
0.854184 0.335575 20.8481
-0.644822 -0.198035 19.7146
-1.67946 -0.613097 20.2562
-0.674042 -0.574048 21.2996
-0.139874 -0.368677 21.5748
1.32107 0.225199 20.7499
1.62849 0.261464 20.2839
1.08058 0.0948258 20.8836
-0.778745 0.00737206 19.6152
-1.91951 0.0615097 20.2282
-1.24954 -0.298968 21.2629
-0.405751 -0.339673 21.7048
0.897283 -0.837481 19.0192
1.08043 -0.917025 20.5603
0.903975 -0.906691 20.2412
-0.592247 0.370569 19.8255
-1.00788 0.667044 20.2809
-0.921296 0.481347 21.0274
-0.370812 0.0610901 21.3849
0.010496 -0.304262 21.2398
0.182638 -0.48468 20.944
0.166963 -0.431895 20.749
-0.486741 -0.535495 19.3482
-1.79257 -3.39198 20.2729
-0.354919 -0.498289 21.1279
-0.0173226 -0.127921 20.648
0.332955 1.22686 18.0472
0.77297 1.67544 17.7945
0.719439 1.41607 18.9611
-0.61956 -0.45142 19.0603
1.99422 1.40486 9.50559
2.03613 0.97113 13.2774
-0.869114 0.00462037 18.6771
0.476735 -0.747628 4.83057
0.86326 -0.971136 10.7115
-0.557518 0.746978 19.3651
-1.11644 1.77684 19.9508
-1.27903 1.61163 21.0556
-0.410893 0.284386 21.6795
-0.0949939 -0.28202 21.2875
0.0666437 -0.577327 21.0631
0.134374 -0.462985 21.0201
0.490197 -0.525679 19.3663
1.80059 -3.34247 20.2765
0.349908 -0.481242 21.2272
0.0133137 -0.128123 20.6275
-0.287533 1.17571 17.7933
-0.605602 1.66707 17.0718
-0.659975 1.69516 18.2183
0.625348 -0.446127 19.0707
-1.77933 1.35108 7.36682
-1.97061 1.31922 12.3224
0.880302 0.0049905 18.6897
-0.245525 -0.130666 1.34941
-0.655645 -0.914029 6.67545
0.567904 0.734195 19.3698
1.12557 1.76349 19.9552
1.24397 1.71774 21.0487
0.378739 0.354731 21.7445
0.11785 -0.230953 21.345
-0.0465091 -0.587898 21.0463
-0.225965 -0.453104 21.2976
0.519794 -0.249122 19.8149
1.20195 -0.736405 20.3271
0.478801 -0.494704 21.2354
0.0290611 -0.217828 21.4447
-0.82886 0.354904 21.4594
-1.247 0.605618 20.8112
-0.873504 0.425685 21.0663
0.644986 -0.197763 19.7174
1.67626 -0.612902 20.2554
0.673272 -0.566957 21.295
0.142907 -0.35645 21.5552
-1.26708 0.17079 20.9802
-1.75165 0.326454 19.7965
-1.25706 -0.0153827 20.925
0.7735 0.00608943 19.6249
1.91395 0.0612965 20.2278
1.2441 -0.296101 21.2597
0.401255 -0.331046 21.6748
-0.880956 -0.835622 19.19
-1.19189 -0.864908 20.0482
-1.08446 -1.11476 20.0941
0.589552 0.366023 19.8351
1.00511 0.663059 20.2829
0.943632 0.520429 21.0306
0.379833 0.0808617 21.4097
0.0107006 -0.318262 21.2488
-0.164994 -0.531377 20.8879
-0.0652312 -0.339394 20.8062
-4.98679 -0.120243 3.49369
-4.38898e-05 -0.0147304 0.0988929
0.00562226 -0.00110492 0.399529
-0.00937113 -0.0712421 0.00447926
-0.000130254 0.003771 0.0223744
-0.0121915 0.0203996 0.591398
-5.77059e-05 0.0828749 0.181653
-0.0978247 -0.0326436 0.395254
-0.00325343 0.34278 -0.509749
-0.00246784 -0.00627439 0.0181882
4.92579 -0.120261 3.45855
-0.00528295 -0.00103033 0.400691
0.010717 -0.0704157 0.00382095
0.0119124 0.0195007 0.567408
0.10092 -0.0336152 0.409296
0.00244663 -0.00623995 0.0181657
0.00200421 -0.000376998 0.0688529
0 0 0
0 0 0
-0.0140446 0.0253865 0.0887007
3.94117e-05 -0.00105241 0.0382032
0 0 0
6.68759e-05 0.0293599 0.058778
8.84461e-07 -0.0013561 0.00946812
-0.00211308 -0.000389327 0.0706811
0 0 0
0.0194567 0.0343067 0.120101
0 0 0
0 0 0
-6.88112e-05 0.000999238 0.00560005
0.00408 0.00711533 0.105949
-2.50314e-07 -2.67159e-06 0.000555665
0 0 0
-3.00504e-08 2.01996e-06 8.38685e-05
0 0 0
-0.00807766 -0.172513 0.0244681
0.00237407 0.0253522 0.129816
3.92008e-05 0.0173579 0.183284
-4.78099e-05 0.0027731 -0.00770689
0 0 0
6.173e-05 0.000896167 0.00502367
-0.00165799 0.00433744 0.052574
-3.1686 -1.66313 19.9856
-2.96837 -5.37482 20.1113
-1.7188 -1.45826 18.0215
1.43124 0.997828 11.3889
0.0963786 1.12466 9.81994
1.21156 0.594011 5.93193
-4.00577 0.312767 19.9404
-2.75144 0.411629 16.9312
-2.59596 3.19773 19.4453
-0.449908 -1.05963 4.93617
-0.773275 -0.553062 0.255609
-0.07193 -0.352437 15.8675
2.98313 -5.33878 20.1058
1.72229 -1.4452 18.0403
3.16808 -1.66108 19.9836
-0.0753367 1.07863 9.58499
-1.04905 0.453182 4.92689
-1.4395 0.952449 11.7986
2.75335 0.406687 16.9597
2.60597 3.17017 19.4522
4.01064 0.31308 19.9395
0.770602 -0.288451 -1.0748
0.0451501 -0.301848 14.7804
0.422153 -1.04571 5.07824
-0.319478 -0.75091 20.4847
-0.0825175 -0.101176 15.9224
-0.261023 -0.294068 18.0973
0.222946 -0.141887 15.0659
-1.98452 -0.866117 21.3839
-3.14504 2.00495 20.9612
0.356252 0.575028 16.2011
-0.595435 0.142132 21.0089
0.0927086 -0.0929507 16.1463
0.329368 -0.758059 20.563
-0.228582 -0.133048 15.0462
0.243826 -0.315525 18.525
3.16974 2.17234 20.9294
1.9704 -0.87415 21.3202
0.294433 0.174344 19.4156
-0.292299 0.499133 16.4705
-0.868931 -0.486512 19.894
-0.574814 -0.238962 19.7721
-0.532194 -0.374049 19.6189
-0.93052 -0.729313 21.0153
-1.46716 -0.712689 20.2787
-1.71902 -1.59543 20.2254
-0.225661 -0.341497 21.3009
-0.569187 -0.54187 21.2754
-0.315435 -0.573822 21.4171
0.383155 0.0489567 21.6165
-0.0570609 -0.289082 21.5296
0.0433095 -0.198817 21.4983
1.05074 0.456034 21.1556
1.10592 0.361022 21.2124
0.888439 0.983634 20.8403
1.19204 0.605852 20.8983
1.38553 0.443927 20.8914
1.25376 1.0575 20.6561
0.919644 0.282763 20.9467
0.849145 0.641744 21.0478
-1.16751 -0.376746 19.745
-0.717196 -0.132864 19.6527
-0.68347 -0.320714 19.4393
-1.27874 -0.701247 21.1112
-1.91466 -0.344476 20.2367
-0.32696 -0.467449 21.4086
-0.951156 -0.539856 21.31
0.485935 -0.13339 21.6958
-0.31259 -0.370602 21.6297
1.48879 0.247424 20.3493
1.40153 -0.28091 18.8577
1.63121 0.108009 20.0154
1.74906 -0.403705 19.7773
2.13778 0.937623 16.1448
1.31743 -0.535671 20.432
1.52851 0.147716 19.1119
-1.36531 0.063677 19.6891
-0.747158 0.2384 19.6749
-0.910116 0.00966291 19.2197
-1.65656 -0.128713 21.0132
-1.52373 0.568327 20.2267
-0.855589 -0.421606 21.5554
-1.30212 0.225937 21.1309
0.30908 -0.602902 21.2158
-0.472573 -0.106759 21.5958
1.02695 -0.951046 20.0207
0.0750571 -0.593882 21.3944
1.05523 -0.879078 20.7892
0.363658 -0.744673 21.1645
1.20256 -1.05345 14.3128
0.398577 -0.729361 20.6619
1.25624 -0.902184 17.9289
-0.840813 0.557037 19.9627
-0.612935 0.55499 19.6083
-1.02135 0.60982 20.681
-1.16934 1.12915 20.1475
-0.673491 0.292069 21.2984
-1.15722 0.89464 21.058
-0.143418 -0.155021 21.3303
-0.40929 0.155191 21.5194
0.10679 -0.413011 21.1025
-0.053597 -0.339018 21.269
0.264415 -0.424707 20.8133
0.13723 -0.561386 20.9496
0.0267264 -0.4249 20.6955
-1.07641 -1.43611 19.0325
-0.540069 -0.505783 19.2367
0.00708204 -0.699694 19.0817
-0.760394 -1.27237 21.7887
0.00338201 -4.12432 21.1135
-0.181253 -0.272903 20.6163
-0.00245255 -0.507255 20.5963
0.176422 0.461339 19.2496
-0.00387791 -0.186337 19.9881
0.578613 1.45558 18.205
-0.00788331 0.840989 16.8381
1.06667 1.68342 18.0102
1.27144 1.70503 14.8142
0.0141597 1.34014 16.0779
1.28782 1.27068 16.3454
0.0464901 2.01947 16.5576
-0.754293 -0.287001 18.8178
0.00631335 -0.632558 18.6001
2.151 1.30937 12.0513
1.79243 0.104662 5.23139
0.124184 0.167332 2.61492
2.46818 0.389079 11.4738
0.32173 1.98932 8.73336
-0.772111 0.583873 18.8831
0.00659979 0.0603457 17.8518
1.02787 -1.08807 8.26731
0.175131 -0.995657 19.828
0.242645 1.29698 -5.62266
0.199977 -0.996655 20.2969
0.394467 0.121433 -1.34933
-0.887437 1.37171 19.4467
0.01124 0.993014 19.0963
-1.21462 1.66869 20.5112
0.0115995 2.41002 19.7287
-0.889733 0.998747 21.7037
-0.0739512 2.78258 20.9247
-0.199028 -0.0766334 21.4836
-0.0552067 0.513863 21.8267
-0.0105862 -0.443878 21.2168
-0.0365191 -0.155002 21.3828
0.0882127 -0.654716 20.7918
-0.00922475 -0.587004 21.092
-0.0142392 -0.432453 20.709
1.08051 -1.40682 19.0506
0.544249 -0.49976 19.2507
0.533163 -0.3665 19.6291
0.748982 -1.24658 21.7797
1.71536 -1.56338 20.2261
0.180402 -0.266776 20.6826
0.327373 -0.574845 21.4098
-0.171759 0.451905 19.201
-0.0426197 -0.2053 21.5
-0.437165 1.39813 17.5111
-0.873434 1.00859 20.7978
-0.961364 1.85445 17.2437
-1.11446 1.64578 13.0976
-1.19773 1.26595 20.1116
-1.2213 1.58262 15.5013
-0.811251 0.901788 20.3661
0.763409 -0.28616 18.8281
0.681462 -0.321229 19.4456
-2.03395 1.54787 11.075
-1.40079 0.555853 1.73003
-2.18431 1.2321 14.198
-2.38314 0.485578 7.73947
-1.8299 0.497543 16.1494
0.776704 0.565925 18.9082
0.906075 0.00910354 19.2345
-0.961339 -0.53932 5.06526
-0.0030321 -0.968182 16.5294
-1.05491 -1.06082 11.4445
-0.0379957 -0.974829 17.4738
-1.04864 -0.930747 14.1239
0.894993 1.35334 19.4541
0.613182 0.544043 19.6237
1.20373 1.70092 20.5032
1.16766 1.1192 20.1507
0.870568 1.13669 21.7858
1.19312 0.980398 21.0628
0.187212 -0.0333663 21.5157
0.415138 0.210451 21.5803
0.0534527 -0.405236 21.2842
0.0734025 -0.303745 21.2955
-0.0733142 -0.691052 20.9514
-0.0929424 -0.574247 21.1162
-0.0772643 -0.463037 20.8547
0.862632 -0.478552 19.9029
0.573622 -0.238035 19.7772
0.926919 -0.715386 21.007
1.45751 -0.705082 20.2794
0.227978 -0.335874 21.2925
0.573891 -0.535416 21.2651
-0.372958 0.0361008 21.6075
0.0636116 -0.284673 21.5104
-1.06079 0.495629 21.1033
-1.08544 0.328068 21.2438
-1.29369 0.717359 20.8198
-1.40096 0.531318 20.8726
-0.950139 0.362473 21.1717
1.16419 -0.37435 19.7486
0.714676 -0.131629 19.658
1.27448 -0.695166 21.1041
1.90697 -0.344326 20.2357
0.331125 -0.456604 21.3904
0.946893 -0.532605 21.3029
-0.452324 -0.15498 21.7745
0.307686 -0.36277 21.6238
-1.50857 0.272815 20.1439
-1.3682 -0.303977 19.343
-1.75159 0.258182 19.5931
-1.90078 -0.389559 19.1127
-1.51322 -0.662541 20.4667
1.35166 0.0631413 19.6975
0.744896 0.234576 19.6859
1.65127 -0.128951 21.0112
1.51756 0.564649 20.2286
0.850882 -0.413206 21.5483
1.33291 0.240925 21.1364
-0.296331 -0.58879 21.2697
0.488751 -0.0949738 21.6299
-1.01916 -0.929526 19.6241
-0.0232077 -0.641443 21.4399
-1.16804 -0.947566 20.3791
-0.347385 -0.851446 21.2653
-0.338366 -0.765824 20.6533
0.836688 0.549915 19.9688
1.03996 0.63255 20.6817
0.71012 0.343868 21.3291
0.143563 -0.154477 21.3709
-0.0871819 -0.433349 21.1222
-0.299298 -0.526839 20.9437
-1.01393 -0.463144 19.825
-1.34422 -1.51355 18.6201
-1.05683 -0.838801 19.5568
-1.51448 -0.737131 19.1786
-0.600173 -0.357166 19.5383
-2.32066 -1.73768 20.1395
-1.10483 -0.726737 21.0718
-0.381473 -0.548427 18.2027
-0.895297 -1.15021 21.3899
-1.50842 -1.50861 21.7783
-0.278696 -0.675809 21.3738
-0.253721 -0.397325 21.3569
0.00307307 -0.0872332 14.9408
-0.104711 -0.328193 21.3668
-0.0822647 -0.282164 19.0078
0.0196322 -0.288398 20.5963
0.451197 -0.0395537 21.7184
0.154207 0.431085 12.6973
0.431441 0.336579 21.4096
0.369036 0.432274 14.0937
1.17948 1.2443 17.5904
1.32145 0.399273 20.9752
0.68416 1.36934 12.0128
1.14339 1.06852 20.7912
1.75959 0.962592 14.4206
1.74005 1.15167 17.688
1.4166 0.425268 20.6559
1.5531 1.53516 15.3327
1.38612 1.12661 20.4542
2.00079 0.659855 17.0491
1.23722 0.485336 19.4812
-1.31013 -0.227104 19.6968
-2.41588 -0.816855 17.2038
-2.12406 0.121607 18.8395
-0.808259 -0.192351 19.3077
-4.15769 -0.771105 19.8634
-1.54867 -0.48542 21.107
-2.63942 -0.332341 21.5371
-0.836607 -1.01821 20.3148
-0.555585 -0.523263 21.5195
-0.978741 -0.841382 18.9816
-0.435518 0.561684 15.5438
0.482514 -0.243889 21.019
0.793003 0.0135439 10.3167
0.708136 -1.11566 4.41644
1.53446 -0.407797 19.3678
0.323251 -0.391427 1.95486
0.521651 -0.920941 10.6218
2.12453 -0.390683 13.6306
1.64061 -0.268384 19.5145
2.48461 0.426582 8.92337
1.30811 -1.1069 16.4467
1.75698 -0.449835 18.5048
-1.19098 0.450026 19.7864
-1.66431 1.70279 18.4585
-0.947744 0.911596 19.7379
-0.82074 0.396646 19.3244
-2.30022 1.35599 19.9884
-1.46963 0.405041 20.7928
-2.55989 2.08135 20.6539
-1.23807 1.06534 20.6197
-2.04281 0.631852 21.205
-0.946631 0.055063 21.4726
-2.37762 1.08508 22.3577
-0.827007 0.564473 21.4653
-0.65551 -0.0496209 21.8775
-0.108711 -0.36119 21.5411
-0.0563452 -0.277016 18.6162
-0.169785 -0.137191 21.4215
-0.133396 -0.622238 20.7539
0.237718 -0.686779 21.3138
-0.0464306 -0.659969 17.6375
0.0545004 -0.457272 21.167
0.368332 -0.96189 20.3703
0.425664 -0.763451 20.9883
0.310034 -1.04228 19.6306
0.208517 -0.604479 21.0087
0.289926 -0.870097 20.5154
1.35014 -1.49736 18.6403
0.0126799 -2.24575 18.4307
0.00718364 -2.71417 16.3254
0.00485938 -0.696148 18.9035
-0.000516567 -5.12989 22.1571
0.386791 -0.542884 18.3699
-0.00105843 -1.28463 22.0263
-0.00188805 -0.10187 13.38
-0.000476346 -0.0844044 15.0358
-0.00363697 -0.317713 19.8334
-0.0020442 -0.156996 13.0605
-0.158688 0.419539 12.5867
-0.00415172 0.302314 18.4723
-0.0144169 0.598507 8.17992
-0.529816 1.25566 11.2526
-0.00219093 1.02357 16.3451
-0.00629083 -0.0391897 1.90262
0.0884731 0.971376 10.0355
-1.44241 1.7364 14.4579
0.0434113 1.80205 16.8761
0.194808 1.21003 5.94196
0.284297 2.00393 13.2678
2.41072 -0.808069 17.2354
0.0165211 1.71926 13.6374
0.00694534 -0.423033 18.1687
-0.230454 -0.178561 1.15621
-0.0391921 0.843045 -4.69749
0.250355 0.579067 -3.08602
-2.45823 0.897465 5.99477
0.450911 0.657925 -3.35586
0.370834 1.50838 1.68912
1.67557 1.67504 18.4805
0.0134002 1.86378 19.1465
0.0119503 0.857184 18.3314
0.00510714 4.61213 19.1395
2.55272 2.12737 20.6468
-0.0155241 2.49501 20.2552
-0.072237 5.18026 19.4605
2.50574 1.23385 22.2059
-0.0848316 1.76424 22.0549
-0.0378467 0.287072 18.0345
-0.0607632 -0.238879 17.1605
-0.0440257 0.0620701 21.5896
-0.0448354 0.0772421 10.2761
0.0898964 -0.541497 15.7774
-0.0268026 -0.341449 21.3593
-0.035278 -0.515402 12.9124
-0.0641065 -0.99707 16.6482
-0.0192119 -0.597523 21.4088
-0.0252026 -0.423498 14.3661
1.00822 -0.458732 19.8323
1.05365 -0.825918 19.5673
1.51084 -0.732934 19.1877
0.601832 -0.351622 19.5441
2.3088 -1.71451 20.1359
1.10238 -0.715712 21.0605
0.906937 -1.13525 21.3742
1.51462 -1.49779 21.7754
0.293526 -0.674977 21.3788
0.260808 -0.393115 21.347
0.108167 -0.333695 21.3677
0.0916203 -0.315836 19.276
-0.0145755 -0.299804 20.6594
-0.431325 -0.0453946 21.7103
-0.430268 0.333758 21.3872
-0.400795 0.367169 14.9244
-1.17041 1.23996 17.5006
-1.33929 0.429856 20.906
-1.11012 1.1969 20.3952
-1.71903 0.985318 13.2025
-1.67268 1.38808 17.0313
-1.5244 0.55852 20.577
-1.29856 1.26985 19.7831
-2.13701 0.906145 14.7907
-1.37282 0.79304 17.6315
1.30275 -0.22411 19.7021
2.11238 0.118602 18.8574
0.806069 -0.190415 19.3165
4.15524 -0.771517 19.8573
1.54072 -0.482475 21.1017
2.63592 -0.33217 21.5362
0.844045 -1.01638 20.3914
0.553614 -0.511567 21.5037
1.01673 -0.884299 19.3079
0.43422 0.473867 16.0136
-0.45177 -0.284265 21.2967
-0.829425 0.0390574 10.6582
-0.72938 -1.09245 4.73432
-1.55836 -0.389405 18.9312
-0.263464 -0.905475 8.39604
-2.18035 -0.297823 10.2927
-1.84453 -0.201742 18.7803
-1.17654 -1.10212 12.7901
-2.08941 -0.0591438 15.1757
1.18284 0.443003 19.7946
0.943709 0.895332 19.7502
0.815282 0.392615 19.3448
2.29139 1.34342 19.993
1.47813 0.412309 20.7938
1.24162 1.09524 20.6166
2.09356 0.662284 21.2079
0.993619 0.0706335 21.4999
0.864757 0.656634 21.5214
0.681747 -0.0133648 21.9465
0.128949 -0.371533 21.556
0.194113 -0.112006 21.4536
0.104228 -0.538563 19.8375
-0.174763 -0.747016 21.3358
-0.00948205 -0.444838 21.2252
-0.30284 -1.07386 19.942
-0.458749 -0.938385 21.0134
-0.125461 -0.629482 20.8163
-0.235165 -0.942135 20.3826
-1.26536 -0.835313 19.3823
-1.09049 -1.34866 21.5916
-0.0658089 -0.345031 20.8357
0.552151 0.380051 19.2394
1.44973 1.21488 17.9366
1.78764 0.977832 18.2093
-1.90983 -0.412262 18.9051
-2.24007 -1.03107 21.8073
-0.230171 -0.463697 17.8474
0.357617 0.454539 9.2295
1.41635 -0.682391 9.94484
2.09178 -0.284922 15.2747
-1.55073 0.901855 19.3039
-2.10279 0.901208 20.8278
-1.51602 0.282267 21.8628
-0.273733 -0.439432 21.7154
0.0544326 -0.81786 21.0399
0.487717 -1.03588 20.3949
0.00898925 -2.5758 17.613
-0.00315996 -0.472395 15.1984
-0.00349742 -0.111243 12.8448
-0.00264674 0.248984 10.8552
-0.0208879 0.635887 8.76233
0.177583 1.63133 11.7052
0.0108016 -1.30631 14.2596
0.0346496 0.300028 -2.7154
0.410905 0.702372 -1.51211
0.0153769 2.81746 17.5709
-0.0201206 3.86401 20.0987
-0.0698791 2.93599 21.5876
-0.0181128 -0.0861487 13.1733
-0.0767447 -0.150665 11.4295
-0.0914344 -0.822401 14.1907
1.26006 -0.820612 19.3955
1.10184 -1.33178 21.5725
0.0751795 -0.359896 20.8944
-0.552359 0.356014 19.2944
-1.39941 1.31775 17.4768
-1.77121 1.16066 17.0022
1.90134 -0.410933 18.9232
2.2373 -1.02823 21.8031
0.249418 -0.497102 18.1182
-0.351193 0.525316 10.1253
-1.24501 -0.80469 8.21849
-2.23276 -0.00625968 12.7279
1.54174 0.88675 19.3188
2.12181 0.92191 20.8283
1.58666 0.340376 21.9138
0.280475 -0.413693 21.314
-0.0508867 -0.753017 19.9644
-0.392575 -1.03678 19.9379
-4.69899 -1.30947 2.22872
0.11266 -0.167404 0.697066
-0.0104749 -0.00475805 0.7858
0.013623 -0.02837 0.00606556
-0.00845382 0.033933 0.167943
-0.0274226 0.0884429 0.481246
-1.02513 0.249679 1.07067
-0.0171613 0.113763 0.247508
-0.501564 -0.0237649 1.46015
-0.0385843 -0.0154771 -0.000366934
-0.417862 0.264378 -0.400636
-0.0149096 -0.00421422 -0.00481699
-0.0994995 -0.157668 0.694593
4.70524 -1.31448 2.22136
0.0107276 -0.00469168 0.788247
0.00753557 0.0332602 0.166125
-0.01368 -0.0290546 0.00619694
0.0269725 0.0841193 0.455585
0.0160699 0.106148 0.229159
0.996339 0.24074 1.04542
0.494582 -0.0209131 1.44308
0.398201 0.285274 -0.421854
0.0394629 -0.015081 -0.00103863
0.0123841 -0.00337158 -0.00450804
0.00724163 -0.00352177 0.203292
0.00119514 -0.000749323 0.0702861
0 0 0
0 0 0
-0.00366559 0.01182 0.306763
0.00313477 -0.000683996 0.0906913
-0.0456425 -0.0146534 0.251017
0.000127023 -0.000868112 0.0343587
-0.0879051 -0.130316 0.494386
0.000584664 -0.0122233 0.116313
0 0 0
-0.0428902 0.0151937 0.0554027
0 0 0
0 0 0
0 0 0
0.00953171 -0.00582797 0.039376
-0.00737024 -0.00357089 0.19752
-2.71788e-19 -8.08494e-19 -2.61778e-17
-0.00115232 -0.000725181 0.0689932
-1.00973e-17 3.06497e-18 3.22566e-17
0.0031686 0.0110222 0.294362
-0.000135984 -0.000844426 0.0341334
-0.00310013 -0.000664567 0.0863716
0.0438866 -0.0128069 0.23631
0.0848482 -0.125744 0.478866
0.0473879 0.0163921 0.0605673
-0.000552651 -0.0121644 0.116163
0 0 0
0 0 0
-0.00858607 -0.00526372 0.035668
0 0 0
0 0 0
-0.0246275 -0.0127865 0.156133
-0.38546 -0.083886 0.208442
-1.40066e-06 -1.90848e-05 0.0010433
-5.04885e-05 -0.0156865 0.00239277
-0.00623442 -0.00283111 0.28044
-2.5399e-05 -2.95144e-06 0.000249018
0.0205299 -0.0280121 0.0629149
-0.0186702 -0.0163638 0.00304147
1.94557e-08 -1.42648e-06 -1.55136e-05
-0.000209076 -0.00582776 -0.00238903
0.00957879 0.0245443 0.396583
-2.34097e-07 2.2302e-06 9.07353e-05
0 0 0
-0.00162328 0.0708509 0.416386
-0.00420375 -0.00625575 0.117246
-0.0954791 0.0667132 0.24785
-0.000560277 -0.00169902 -0.000549578
0 0 0
0.0270129 -0.0119333 0.155364
-0.00189928 0.00128564 -0.00396982
0.396085 -0.0852268 0.214461
0.0262036 -0.0135656 0.16446
2.03446e-05 -2.58404e-06 0.000208176
0.00620462 -0.00237143 0.278796
0.0183469 -0.0167252 0.00290631
-0.0206512 -0.0298725 0.0641991
1.6472e-07 2.08002e-06 8.43428e-05
-0.00287285 0.0190226 0.330452
0.0798443 0.0551911 0.287152
0.00508371 -0.00805337 0.145158
0.00187608 0.00132144 -0.00405354
-0.027931 -0.0121246 0.160361
0 0 0
0.000139328 -2.30098e-05 0.0151399
-0.000246581 -0.000441732 0.0252403
-7.2605e-05 0.00075372 0.00829626
-1.15983e-08 -4.99939e-07 9.41454e-05
-3.34866e-08 -1.39013e-06 0.000135407
0 0 0
0 0 0
0 0 0
-1.86791e-09 -3.01956e-07 -3.24238e-05
0.00125182 0.0116009 0.0442856
-0.0203272 0.055301 0.742473
-6.07327e-05 -0.000220011 0.00203759
4.87797e-05 0.122126 0.249898
-2.2129e-05 -0.00234133 0.0282777
-6.69867e-06 0.000987175 -0.00346297
-0.000173821 -2.38275e-05 0.0152108
0 0 0
0.000235445 -0.000416382 0.02909
0.000155076 0.0012709 0.00787993
0 0 0
8.79688e-06 7.33062e-05 0.00127017
0.0222274 0.0577508 0.76734
-0.00124883 0.0115271 0.0442068
-0.00810525 -0.00569358 0.0501695
-0.0663859 -0.0394861 0.356778
-0.000887303 0.00304505 0.0698151
-0.00131111 -0.00731693 0.139287
0 0 0