# vtk DataFile Version 2.0
tet_velo
ASCII
DATASET UNSTRUCTURED_GRID
POINTS 29498 float
-0.725 0.205 -2.05345
-0.715 0.295 2.09123
-0.752153 0.655 -1.955
-0.696472 0.935 2.025
0.725 0.205 -2.05332
0.715 0.295 2.09104
0.751986 0.655 -1.955
0.696305 0.935 2.025
-0.796778 0.159889 -0.67189
-0.807254 0.176079 0.70967
-0.823708 0.838449 -0.628333
-0.797895 0.92453 0.698334
0.796824 0.159843 -0.671867
0.80713 0.176203 0.709587
0.823538 0.838446 -0.628333
0.797733 0.924535 0.698334
-1.51722 -0.174396 -3.15475
-1.52274 -0.126356 -2.0715
-1.57183 -0.15469 -0.688524
-1.57662 -0.156086 0.705498
-1.51761 -0.0748006 2.0894
-1.50059 -0.0130039 3.17721
-1.50658 0.0374319 4.25657
-1.51603 0.116386 -3.12527
-1.52188 0.189398 -2.04801
-1.58438 0.182191 -0.675704
-1.57626 0.188743 0.701549
-1.48629 0.266915 2.07491
-1.47949 0.327129 3.16194
-1.49582 0.376932 4.24309
-1.52836 0.649521 -3.05089
-1.54333 0.720175 -1.97135
-1.60358 0.846627 -0.636464
-1.57286 0.910201 0.694541
-1.47488 0.939047 2.03048
-1.47403 0.996038 3.11981
-1.49471 1.0511 4.20983
-1.54814 1.57211 -2.98057
-1.55965 1.66141 -1.90926
-1.58226 1.80915 -0.592157
-1.58286 1.92525 0.713119
-1.55776 1.98721 2.03079
-1.54105 2.02808 3.10332
-1.53612 2.07328 4.18735
-0.744819 -0.166393 -3.15826
-0.736165 -0.114668 -2.07664
-0.780974 -0.165244 -0.687831
-0.801713 -0.1656 0.712411
-0.7621 -0.0615278 2.10149
-0.748251 -0.0035065 3.1854
-0.752201 0.0420802 4.26131
-0.744131 0.116816 -3.12634
-0.730397 0.337527 3.1687
-0.744035 0.381579 4.24666
-0.753471 0.623326 -3.0441
-0.72594 0.997609 3.11871
-0.743906 1.05292 4.20958
-0.765269 1.55378 -2.97386
-0.770901 1.64387 -1.90186
-0.792503 1.80505 -0.587703
-0.805073 1.93028 0.712581
-0.794936 1.99032 2.02697
-0.782273 2.02927 3.0995
-0.776919 2.07407 4.18457
0.765788 -0.166396 -3.15819
0.766489 -0.114676 -2.07656
0.799489 -0.165259 -0.687813
0.786475 -0.165523 0.712344
0.726723 -0.0614969 2.10135
0.734925 -0.0034832 3.1853
0.745625 0.0421049 4.26123
0.755068 0.116814 -3.12627
0.730725 0.337543 3.16859
0.744042 0.381601 4.24659
0.763177 0.623326 -3.04406
0.723934 0.997621 3.11866
0.740305 1.05293 4.20953
0.791667 1.55378 -2.97384
0.798083 1.64387 -1.90185
0.79206 1.80505 -0.587699
0.761634 1.93028 0.712576
0.732864 1.99034 2.02696
0.731021 2.02929 3.09947
0.737021 2.07409 4.18454
1.53226 -0.174402 -3.15463
1.53663 -0.126369 -2.07137
1.5809 -0.154697 -0.688494
1.57287 -0.155985 0.705401
1.50554 -0.0747245 2.08921
1.49459 -0.0129488 3.17704
1.50282 0.0374831 4.25644
1.52086 0.116381 -3.12515
1.51718 0.189387 -2.04787
1.58262 0.182167 -0.675664
1.58167 0.188852 0.701459
1.4949 0.266982 2.07472
1.48525 0.327175 3.16177
1.49792 0.376979 4.24296
1.5315 0.649518 -3.05082
1.53748 0.720171 -1.97129
1.59979 0.846616 -0.63644
1.57604 0.91024 0.694516
1.48167 0.939091 2.03042
1.47689 0.996075 3.11972
1.49297 1.05114 4.20973
1.56864 1.57211 -2.98054
1.57792 1.66141 -1.90923
1.57878 1.80916 -0.59215
1.5477 1.92527 0.713108
1.50804 1.98724 2.03077
1.4971 2.02811 3.10327
1.49966 2.07331 4.18729
-0.784559 0.43 -2.05021
0 0.171778 -2.08661
-0.799472 0.143861 -1.36267
-0.758208 0.615 2.11059
0 0.243324 2.14281
-0.82059 0.176077 1.40045
-8.34763e-05 0.74126 -2.04126
-0.816839 0.775633 -1.29167
-8.35061e-05 1.00791 2.09791
-0.763092 0.945673 1.36167
0.784304 0.43 -2.04997
0.798795 0.144538 -1.36259
0.757951 0.615 2.11032
0.836262 0.160405 1.40031
0.816686 0.775646 -1.29167
0.76292 0.945668 1.36167
-0.801679 0.168321 0.0188899
-0.887477 0.499169 -0.650112
2.29806e-05 0.169451 -0.671879
-0.884603 0.550304 0.704002
-6.18716e-05 0.177617 0.709628
-0.816976 0.887663 0.035
-8.52564e-05 1.23103 -0.628333
-8.10227e-05 1.40495 0.698334
0.801584 0.168416 0.01886
0.887318 0.499144 -0.6501
0.884661 0.550369 0.70396
0.816837 0.887691 0.035
-0.88443 0.464585 -1.32717
-0.888779 0.524737 0.026945
-0.888068 0.582652 1.38106
1.14903e-05 0.156512 -1.36263
-1.94455e-05 0.170973 0.0188749
-3.09358e-05 0.199966 1.40038
-4.17382e-05 0.43 -2.27584
-4.17531e-05 0.615 2.21581
-8.43664e-05 0.927725 -1.29167
-8.31395e-05 1.40329 0.035
-8.22644e-05 1.26525 1.36167
0.884431 0.464572 -1.32713
0.888591 0.524757 0.02693
0.88808 0.582684 1.38099
-1.12344 0.197199 -2.05073
-0.730582 0.0451658 -2.06505
-0.734566 0.160908 -2.58989
-1.10065 0.280958 2.08307
-0.73855 0.116736 2.09636
-0.722698 0.316264 2.62996
-1.14774 0.687587 -1.96318
-0.752812 0.639163 -2.49955
-0.761527 1.14944 -1.92843
-1.08567 0.937024 2.02774
-0.711206 0.966305 2.57185
-0.745704 1.46266 2.02598
0.745745 0.0451618 -2.06494
0.740034 0.160907 -2.58979
1.12109 0.197194 -2.05059
0.720862 0.116752 2.0962
0.722863 0.316271 2.62982
1.10495 0.280991 2.08288
0.757582 0.639163 -2.49953
0.775035 1.14944 -1.92843
1.14473 0.687585 -1.96315
0.71012 0.966311 2.57183
0.714585 1.46267 2.02598
1.08899 0.937046 2.02771
-1.19058 0.17104 -0.673797
-0.788876 -0.00267742 -0.679861
-1.19176 0.182411 0.70561
-0.804483 0.00523936 0.711041
-1.21365 0.842538 -0.632399
-0.808105 1.32175 -0.608018
-1.18538 0.917365 0.696437
-0.801484 1.4274 0.705457
0.798156 -0.00270818 -0.67984
1.18972 0.171005 -0.673765
0.796803 0.00533985 0.710965
1.1944 0.182528 0.705523
0.807799 1.32175 -0.608016
1.21167 0.842531 -0.632387
0.779684 1.42741 0.705455
1.18689 0.917387 0.696425
-1.51998 -0.150376 -2.61312
-1.51663 -0.0290052 -3.14001
-1.13102 -0.170395 -3.1565
-1.54729 -0.140523 -1.38001
-1.52231 0.0315211 -2.05975
-1.12945 -0.120512 -2.07407
-1.57423 -0.155388 0.00848674
-1.57811 0.0137509 -0.682114
-1.1764 -0.159967 -0.688178
-1.54712 -0.115443 1.39745
-1.57644 0.0163288 0.703523
-1.18917 -0.160843 0.708955
-1.5091 -0.0439023 2.6333
-1.50195 0.0960574 2.08215
-1.13986 -0.0681642 2.09544
-1.50359 0.012214 3.71689
-1.49004 0.157062 3.16957
-1.12442 -0.00825523 3.1813
-1.5012 0.207182 4.24983
-1.12939 0.0397561 4.25894
-1.51896 0.152892 -2.58664
-1.5222 0.382953 -3.08808
-1.13008 0.116601 -3.1258
-1.55313 0.185795 -1.36186
-1.5326 0.454786 -2.00968
-1.58032 0.185467 0.0129227
-1.59398 0.514409 -0.656084
-1.53128 0.227829 1.38823
-1.57456 0.549472 0.698045
-1.48289 0.297022 2.61842
-1.48058 0.602981 2.05269
-1.48765 0.35203 3.70251
-1.47676 0.661583 3.14087
-1.10494 0.332328 3.16532
-1.49526 0.714016 4.22646
-1.11993 0.379256 4.24487
-1.53584 0.684848 -2.51112
-1.53825 1.11081 -3.01573
-1.14091 0.636424 -3.04749
-1.57346 0.783401 -1.30391
-1.55149 1.19079 -1.9403
-1.58822 0.878414 0.0290383
-1.59292 1.32789 -0.614311
-1.52387 0.924624 1.36251
-1.57786 1.41773 0.70383
-1.47445 0.967542 2.57515
-1.51632 1.46313 2.03064
-1.48437 1.02357 3.66482
-1.50754 1.51206 3.11156
-1.09998 0.996824 3.11926
-1.51541 1.56219 4.19859
-1.11931 1.05201 4.2097
-1.5539 1.61676 -2.44491
-1.15671 1.56294 -2.97722
-1.57096 1.73528 -1.25071
-1.16528 1.65264 -1.90556
-1.58256 1.8672 0.060481
-1.18738 1.8071 -0.58993
-1.57031 1.95623 1.37196
-1.19397 1.92776 0.71285
-1.54941 2.00764 2.56706
-1.17635 1.98877 2.02888
-1.53858 2.05068 3.64533
-1.16166 2.02867 3.10141
-1.15652 2.07367 4.18596
-0.740492 -0.140531 -2.61745
-0.744475 -0.0247887 -3.1423
0.0104847 -0.166395 -3.15823
-0.758569 -0.139956 -1.38224
0.0151622 -0.114672 -2.0766
-0.791343 -0.165422 0.0122901
0.0092573 -0.165252 -0.687822
-0.781906 -0.113564 1.40695
-0.00761868 -0.165562 0.712378
-0.755175 -0.0325172 2.64344
-0.0176884 -0.0615124 2.10142
-0.750226 0.0192869 3.72335
-0.739324 0.16701 3.17705
-0.00666271 -0.00349485 3.18535
-0.748118 0.21183 4.25398
-0.00328788 0.0420926 4.26127
-0.748801 0.370071 -3.08522
0.0054682 0.116815 -3.1263
-0.737216 0.359553 3.70768
-0.728168 0.667568 3.1437
0.000164297 0.337535 3.16865
-0.74397 0.717247 4.22812
3.61713e-06 0.38159 4.24662
-0.75937 1.08855 -3.00898
0.00485309 0.623326 -3.04408
-0.734923 1.02526 3.66414
-0.754106 1.51344 3.1091
-0.0010028 0.997615 3.11868
-0.760413 1.56349 4.19707
-0.00180055 1.05292 4.20955
-0.768085 1.59883 -2.43786
0.0131991 1.55378 -2.97385
-0.781702 1.72446 -1.24478
0.0135909 1.64387 -1.90186
-0.798788 1.86766 0.0624389
-0.000221242 1.80505 -0.587701
-0.800004 1.9603 1.36978
-0.0217196 1.93028 0.712578
-0.788604 2.0098 2.56323
-0.0310357 1.99033 2.02696
-0.779596 2.05167 3.64203
-0.0256258 2.02928 3.09948
-0.0199493 2.07408 4.18455
0.766139 -0.140536 -2.61738
0.760428 -0.024791 -3.14223
1.14903 -0.170399 -3.15641
0.782989 -0.139968 -1.38219
1.15156 -0.120523 -2.07397
0.792982 -0.165391 0.0122656
1.19019 -0.159978 -0.688153
0.756599 -0.11351 1.40685
1.17967 -0.160754 0.708873
0.730824 -0.0324901 2.64333
1.11613 -0.0681107 2.09528
0.740275 0.0193109 3.72327
0.732825 0.16703 3.17695
1.11476 -0.00821599 3.18117
0.744834 0.211853 4.25391
1.12422 0.039794 4.25884
0.759122 0.37007 -3.08516
1.13797 0.116598 -3.12571
0.737384 0.359572 3.70759
0.72733 0.667582 3.14363
1.10799 0.332359 3.16518
0.742174 0.717267 4.22806
1.12098 0.37929 4.24477
0.777422 1.08855 -3.00895
1.14734 0.636422 -3.04744
0.73212 1.02528 3.66409
0.727478 1.51345 3.10907
1.10041 0.996848 3.11919
0.738663 1.56351 4.19703
1.11664 1.05204 4.20963
0.794875 1.59883 -2.43785
1.18015 1.56294 -2.97719
0.795072 1.72446 -1.24478
1.188 1.65264 -1.90554
0.776847 1.86767 0.0624383
1.18542 1.80711 -0.589925
0.747249 1.96031 1.36977
1.15467 1.92778 0.712842
0.731943 2.00981 2.56322
1.12045 1.98879 2.02886
0.734021 2.05169 3.64201
1.11406 2.0287 3.10137
1.11834 2.0737 4.18592
1.53445 -0.150386 -2.613
1.52656 -0.0290105 -3.13989
1.55877 -0.140533 -1.37993
1.52691 0.0315088 -2.05962
1.57688 -0.155341 0.00845386
1.58176 0.0137351 -0.682079
1.53921 -0.115355 1.39731
1.57727 0.0164337 0.70343
1.50007 -0.0438366 2.63313
1.50022 0.0961289 2.08197
1.4987 0.0122672 3.71674
1.48992 0.157113 3.16941
1.50037 0.207231 4.2497
1.51902 0.152884 -2.58651
1.52618 0.38295 -3.08798
1.5499 0.185777 -1.36177
1.52733 0.454779 -2.00958
1.58214 0.18551 0.0128974
1.59121 0.514392 -0.656052
1.53829 0.227917 1.38809
1.57885 0.549546 0.697987
1.49008 0.297079 2.61824
1.48828 0.603037 2.05257
1.49158 0.352077 3.70237
1.48107 0.661625 3.14075
1.49545 0.71406 4.22635
1.53449 0.684845 -2.51106
1.55007 1.11081 -3.01568
1.56864 0.783394 -1.30387
[...]
POINT_DATA 29498
VECTORS point_vectors float
-3.53236 -4.07904 5.94177
-0.00508261 0.0878253 0.204548
-2.44359 0.743483 3.51107
0.0541366 -0.07769 0.393675
3.41405 -3.92567 5.717
-0.000103281 0.11873 0.270784
2.42412 0.737793 3.47519
-0.0337806 -0.110335 0.417859
0.012406 -0.00102481 0.284238
-0.0537252 0.114574 2.20151
0.000546905 0.0032171 0.0401227
0.00018084 0.000285893 0.00120972
-0.0111224 -0.00114092 0.281689
0.0592899 0.11616 2.25757
-0.000507917 0.00313127 0.0398558
-0.000144714 0.000230076 0.000963716
-0.603852 -0.274617 19.8483
-1.24722 -0.708285 20.4973
-0.408223 -0.406586 21.3564
0.0612517 -0.0768343 21.4784
0.567963 0.24932 21.399
0.838436 0.335356 21.2139
0.791941 0.210913 20.5652
-0.713992 -0.213859 19.7565
-1.69987 -0.586082 20.4533
-0.579413 -0.491878 21.4329
0.0491013 -0.168125 21.5579
0.797131 0.120867 21.4831
1.09297 0.143637 21.111
0.991762 0.0355056 20.7008
-0.825062 0.0258806 19.6672
-1.89994 0.0202732 20.4004
-1.11096 -0.331764 21.4504
-0.199542 -0.274688 21.7071
0.682977 -0.351518 21.5352
0.98821 -0.395258 21.2881
0.703511 -0.414679 20.7339
-0.589541 0.357367 19.9048
-1.03172 0.62483 20.3473
-0.947828 0.391621 21.2042
-0.298833 0.00774106 21.5351
0.181151 -0.284126 21.4282
0.385854 -0.388853 21.267
0.443615 -0.444303 20.6392
-0.617163 -0.653254 19.2551
-1.98634 -3.66541 20.7135
-0.176235 -0.272634 21.5006
0.0296525 0.140459 20.5973
0.15011 1.09907 18.1541
0.474489 1.51374 17.3289
0.678441 1.00234 17.2592
-0.758331 -0.523444 18.9439
0.774885 1.66659 8.90932
1.88536 0.936063 12.4839
-1.02871 0.126073 18.5611
1.53152 -0.00943384 9.7425
1.63996 -0.507777 14.7083
-0.55122 0.763258 19.4238
-1.22615 1.77115 19.9631
-1.54363 1.70553 21.3767
-0.391225 0.24347 22.0458
0.16066 -0.496945 21.5284
0.307558 -0.754197 21.1974
0.134413 -0.493836 21.1027
0.633044 -0.632718 19.2862
2.01414 -3.43549 20.6985
0.174735 -0.258921 21.5173
-0.0240193 0.148941 20.5857
-0.0634817 1.19418 17.9884
-0.47356 1.62543 17.5361
-0.65847 1.08591 17.6846
0.769297 -0.516688 18.9561
-1.04526 1.83623 9.74909
-1.93037 1.09337 13.2578
1.03644 0.124536 18.582
-1.48477 -0.192911 9.81678
-1.64477 -0.573377 14.6451
0.562955 0.750537 19.4402
1.25013 1.72122 19.9797
1.54929 1.7055 21.3782
0.398596 0.263386 22.0845
-0.130688 -0.531897 21.5637
-0.272918 -0.788925 21.2055
-0.133076 -0.521098 21.1534
0.600789 -0.268296 19.8549
1.22987 -0.696999 20.5215
0.417727 -0.410577 21.3532
-0.0575087 -0.0757499 21.4843
-0.602572 0.28009 21.4307
-0.88138 0.34143 21.1701
-0.815224 0.229784 20.6281
0.711489 -0.208902 19.7617
1.71444 -0.597276 20.4609
0.579866 -0.496474 21.4405
-0.0475987 -0.169431 21.5657
-0.835983 0.115806 21.5178
-1.13435 0.152711 21.088
-1.01531 0.0573075 20.7174
0.823087 0.0213535 19.6802
1.91402 0.0199379 20.4114
1.11482 -0.335681 21.4615
0.199739 -0.279086 21.7191
-0.706395 -0.368454 21.554
-1.02228 -0.429963 21.2516
-0.703145 -0.42117 20.7779
0.587356 0.353557 19.9143
1.02489 0.606134 20.3555
0.95332 0.392325 21.2091
0.312165 0.00303504 21.553
-0.181924 -0.312299 21.444
-0.380381 -0.423362 21.2391
-0.425299 -0.460748 20.6679
-1.74874 -0.161569 2.13703
0.00139689 -0.0661433 0.368107
0.00811664 -0.00737601 0.508332
0.038093 0.00303658 0.145461
0.0280167 0.0187372 0.0950047
-0.0486412 0.103515 1.67575
-0.000133673 0.105684 0.243973
-0.0653459 -0.040535 0.269307
0.00674922 0.00938411 -0.0240126
0 0 0
1.7178 -0.159846 2.10123
-0.00867673 -0.00695638 0.520994
-0.0426102 -0.00615101 0.156205
0.146543 0.177634 3.30763
0.0651805 -0.0406147 0.268071
0 0 0
-0.00951291 0.0233072 0.794035
2.79822e-05 0.00104625 0.0439342
3.54324e-20 5.40802e-19 3.68992e-17
0.000835727 0.00930459 0.0414458
0.000101562 6.529e-05 0.00561076
0.0126052 0.0321816 0.105873
-1.84074e-05 0.0514902 0.126019
4.00882e-05 -0.000180675 0.00343592
0.00864626 0.023637 0.802808
-3.03829e-05 0.00110299 0.0440768
-0.000717047 0.0118163 0.0565979
-0.0123245 0.0313213 0.105515
0 0 0
0 0 0
0 0 0
7.28791e-07 1.26715e-06 0.00019824
0.000327728 0.000896173 0.0581492
1.1637e-06 2.68844e-07 6.08166e-05
0.00561726 0.0740454 0.125813
0.0264059 0.0938425 -0.0303215
0 0 0
1.13077e-05 0.00453456 0.0483064
0.000247363 0.000608415 -0.00115695
0 0 0
0 0 0
0 0 0
-3.30671 -1.61774 20.3695
-3.25726 -5.86864 21.0705
-2.16137 -1.67507 17.7103
1.2101 0.841834 18.5784
-0.135211 1.28055 9.43639
-0.0895681 1.15584 5.32207
-3.792 0.34053 20.2722
-3.1387 0.942046 16.7315
-2.7481 2.94048 19.606
1.19401 -0.176786 19.0171
0.688383 0.486724 5.96437
0.682972 -0.645726 18.6
3.34733 -5.6559 20.8828
2.1688 -1.66418 17.7278
3.3302 -1.63928 20.3658
0.352657 1.36247 9.43982
-0.191824 1.39586 6.02562
-1.30871 0.828082 18.7564
3.14431 0.932878 16.7717
2.75869 2.86683 19.6285
3.81994 0.352749 20.2707
-0.649782 0.150685 6.05327
-0.697643 -0.677813 17.7586
-1.20968 -0.254776 19.1412
-0.296775 -0.810863 21.6921
0.117836 0.0799915 16.7399
0.210788 -0.105523 20.8193
0.0293761 0.262639 15.6986
-1.77051 -0.872602 21.8786
-4.00177 1.76373 21.7321
-0.178792 -0.459318 21.1095
-0.44477 0.210121 19.8245
-0.117239 0.0799818 16.9365
0.294335 -0.813072 21.6885
-0.0419907 0.256296 15.6448
-0.202688 -0.11233 20.8656
4.00515 1.75555 21.7368
1.77644 -0.883955 21.8785
0.372324 0.275403 19.2885
0.187821 -0.465505 21.1394
-0.973462 -0.511331 20.0018
-0.676836 -0.256636 19.8078
-0.667708 -0.459904 19.5651
-0.874156 -0.593113 21.1608
-1.47584 -0.679143 20.4675
-1.81425 -1.61916 20.5117
-0.135923 -0.229411 21.4482
-0.507504 -0.459775 21.3825
-0.253755 -0.488288 21.5828
0.288068 0.0880551 21.5084
0.0495963 -0.127362 21.4911
0.112304 -0.0192684 21.5548
0.699988 0.325681 21.3429
0.681106 0.202034 21.4581
0.694766 0.67056 21.2564
0.872311 0.279023 20.995
0.972135 0.254101 21.1686
1.03724 0.797573 20.913
0.901882 0.16102 20.6979
0.85197 0.713427 21.4282
-1.23774 -0.386227 19.869
-0.784861 -0.104792 19.6834
-0.81675 -0.395465 19.4099
-1.16274 -0.624088 21.2574
-1.83835 -0.304035 20.4362
-0.230016 -0.341123 21.5046
-0.842169 -0.491486 21.4448
0.363992 -0.00917085 21.6398
-0.0466401 -0.271815 21.6605
0.968136 0.143101 21.3077
0.830626 -0.138239 21.5005
1.12647 0.146847 21.4311
1.13708 -0.158958 21.1259
1.63233 0.74795 19.1078
0.962625 -0.256874 20.7005
1.48212 0.717677 20.3359
-1.43592 0.0585048 19.8066
-0.75622 0.258097 19.7556
-1.01054 0.0648252 19.2209
-1.61955 -0.21122 21.1372
-1.51205 0.488159 20.3246
-0.655794 -0.327179 21.6441
-1.22415 0.112957 21.3336
0.244768 -0.271109 21.7088
-0.322265 -0.128689 21.6693
0.87999 -0.381154 21.3781
0.376041 -0.395604 21.4692
1.04987 -0.417915 20.9727
0.615422 -0.461911 21.071
1.34292 -0.557373 20.0012
0.489496 -0.585475 20.9709
1.38345 -0.463907 20.2707
-0.818258 0.512237 20.0532
-0.636214 0.534409 19.6776
-1.08989 0.551979 20.8034
-1.26632 1.11184 20.1728
-0.649918 0.20358 21.4596
-1.29866 0.83615 21.3125
-0.0165997 -0.168981 21.4747
-0.375389 0.0904093 21.7728
0.28771 -0.405907 21.222
0.168086 -0.419709 21.4594
0.340254 -0.39961 21.0303
0.350434 -0.542941 21.0552
0.207236 -0.406162 21.0323
-1.30507 -1.74056 18.9819
-0.684763 -0.597963 19.1002
0.00854172 -0.881764 18.8805
-0.664295 -1.23715 22.3354
0.0121528 -4.62097 21.6127
-0.0307631 -0.02204 20.8429
0.0127005 -0.340815 20.9164
0.0764104 0.437022 19.5522
0.0253986 0.014331 19.1736
0.213737 1.22365 17.8999
0.139466 0.41718 15.0018
0.627505 1.40951 17.6542
0.69901 1.7939 13.6485
0.27994 0.654794 12.8984
1.20592 0.963382 14.1695
0.0691255 1.39286 12.3746
-0.944656 -0.248236 18.6608
0.00676303 -0.754372 18.3893
1.40951 1.33826 10.3886
1.45606 0.850082 6.83329
-0.181797 -0.85745 -3.2001
2.04496 0.360842 11.9657
-0.365028 -0.983361 3.04064
-0.813742 0.656872 18.9458
0.0107824 0.218184 17.7377
1.72753 -0.54884 12.3127
0.631137 -1.14306 20.1689
-0.202247 -0.528566 -0.663791
0.596421 -1.02326 19.7555
-0.0915216 -2.21655 2.21014
-0.914523 1.33813 19.4981
0.012419 1.02606 19.1391
-1.50221 1.86381 20.5752
0.0292839 2.61026 19.6597
-1.05358 1.01353 22.0069
0.00214462 3.29604 21.3244
-0.0136093 -0.252238 21.8113
-0.017332 0.528581 22.4207
0.238962 -0.617313 21.3507
0.008886 -0.54671 21.7247
0.322291 -0.734459 21.226
0.0233205 -0.937954 21.1274
-0.0184315 -1.1002 21.0545
1.31948 -1.69085 19.0338
0.699822 -0.588315 19.1194
0.672975 -0.447332 19.5843
0.664505 -1.20356 22.2817
1.78453 -1.53259 20.5054
0.033369 -0.00354848 20.881
0.263095 -0.486275 21.5741
-0.0805343 0.420991 19.3558
-0.107427 -0.0145836 21.5624
-0.202951 1.41448 17.9984
-0.738798 0.783191 21.1504
-0.640339 1.46987 18.0648
-0.76779 1.92562 14.168
-1.11444 0.875341 20.9043
-1.22485 1.10847 14.8514
-0.834811 0.687405 21.2725
0.958813 -0.246707 18.6761
0.82312 -0.398133 19.4136
-1.56871 1.42542 11.2377
-1.7408 0.79832 7.52938
-1.75344 0.732686 19.2106
-2.08919 0.532649 12.6825
-1.48577 0.596646 20.2857
0.823914 0.642552 18.9662
1.01177 0.0626841 19.2338
-1.72264 -0.642575 12.443
-0.627347 -1.20956 19.9512
-1.39627 -0.628363 20.0502
-0.581307 -1.02974 19.7837
-1.37077 -0.564018 20.0851
0.925887 1.30589 19.5213
0.636555 0.523224 19.6925
1.51366 1.82516 20.5868
1.25939 1.07109 20.191
1.05784 1.04266 22.0255
1.30472 0.836147 21.3168
0.0328018 -0.272179 21.8398
0.384293 0.0982889 21.8094
-0.20177 -0.664283 21.3868
-0.1641 -0.44431 21.4842
-0.299459 -0.765712 21.2411
-0.338697 -0.579121 21.0077
-0.184679 -0.403654 21.0613
0.963311 -0.49518 20.0262
0.672276 -0.247167 19.8115
0.882909 -0.594443 21.1604
1.45791 -0.679705 20.4852
0.144633 -0.234033 21.4542
0.505962 -0.464247 21.3855
-0.297167 0.0988296 21.5404
-0.0504187 -0.130331 21.4974
-0.74032 0.368709 21.3391
-0.722026 0.22203 21.476
-0.892131 0.288983 20.9744
-1.0117 0.262882 21.1473
-0.930533 0.172845 20.7482
1.23546 -0.386287 19.8752
0.783552 -0.105151 19.6921
1.16665 -0.630606 21.2672
1.86712 -0.314424 20.451
0.226422 -0.340607 21.5131
0.8432 -0.498462 21.4601
-0.375445 -0.0104389 21.6641
0.0480519 -0.276232 21.6713
-1.02838 0.14385 21.3178
-0.86647 -0.149645 21.537
-1.15264 0.0873203 21.3347
-1.19066 -0.165656 21.1185
-0.974458 -0.24911 20.7217
1.43937 0.0560381 19.8163
0.752147 0.250773 19.7739
1.62825 -0.213746 21.1483
1.50552 0.481249 20.3339
0.655448 -0.330427 21.6541
1.23305 0.109465 21.3412
-0.246579 -0.278869 21.7282
0.329395 -0.142052 21.6866
-0.926816 -0.408647 21.3649
-0.385954 -0.426959 21.4854
-1.06914 -0.468432 20.9329
-0.626219 -0.515385 21.0728
-0.475517 -0.582238 20.9429
0.812815 0.496917 20.0658
1.08644 0.545764 20.8068
0.665089 0.203666 21.4765
0.0263718 -0.182089 21.4992
-0.291152 -0.445015 21.2281
-0.319217 -0.417759 21.0679
-1.11346 -0.4772 19.9402
-1.72741 -1.84621 18.403
-1.30278 -1.00932 19.5688
-1.84652 -0.863526 19.1826
-0.755163 -0.434096 19.4728
-2.50672 -1.78006 20.4367
-1.02289 -0.620652 21.1945
-0.258249 -0.677034 18.327
-0.908414 -1.04258 21.5883
-1.3236 -1.25617 21.8991
-0.238295 -0.613896 21.6611
-0.186218 -0.296847 21.4696
0.102285 0.164179 16.0101
-0.0274229 -0.233013 21.5583
0.031759 -0.464441 21.226
0.184281 -0.0656437 21.4296
0.30604 0.0409632 21.5551
-0.0881384 0.455983 13.1818
0.326955 0.264717 21.6053
0.501257 0.334832 20.2387
0.988981 0.797604 20.4625
0.851038 0.278679 21.3094
-0.0152647 1.28324 11.2977
0.826089 0.780591 20.9181
1.34909 0.796785 19.1112
1.27661 0.805664 20.3732
1.00862 0.212075 21.1813
1.03956 1.41175 13.3679
1.13387 0.907951 20.7138
1.76188 0.643274 18.6818
1.08616 0.637825 20.5043
-1.39579 -0.187938 19.8092
-2.84367 -0.659412 16.8446
-2.30148 0.264217 18.9832
-0.950281 -0.163484 19.2609
-3.98221 -0.669145 20.3048
-1.43968 -0.45267 21.2139
-2.62818 -0.526801 21.6095
-0.83954 -1.07313 21.3748
-0.407229 -0.418262 21.5856
-0.944338 -0.782979 21.5954
0.148905 -0.215619 20.2715
0.348917 -0.159828 21.7096
0.590289 -0.116266 20.0771
1.37191 0.418842 17.5024
1.02567 -0.140311 21.3004
0.244923 0.944237 3.40636
1.27197 -0.441445 20.0084
1.74252 0.164403 18.8641
1.13985 -0.169231 21.5375
2.0163 0.610625 9.50035
1.55227 -0.590404 20.3741
1.62918 0.15333 20.0953
-1.17537 0.418676 19.8979
-1.73974 1.7473 18.5853
-0.970644 0.856707 19.7964
-0.85876 0.422098 19.4109
-2.28746 1.19198 20.1068
-1.51793 0.325772 20.9097
-3.25478 2.26909 20.5163
-1.40686 1.07268 20.7456
-2.06356 0.395159 21.572
-0.795212 -0.0254058 21.6016
-2.30836 0.468139 21.6427
-0.869291 0.479141 21.684
-0.527251 -0.134966 22.054
0.0721937 -0.265592 21.6183
0.538212 -0.298188 18.8583
-0.0220098 -0.225132 21.6799
0.405911 -0.629592 21.6634
0.519287 -0.465213 21.3799
0.645616 -0.827654 19.374
0.265441 -0.495402 21.3198
0.589439 -0.792731 21.6108
0.602906 -0.446739 20.9513
0.605167 -1.17138 20.0274
0.332941 -0.559657 21.2186
0.518262 -0.786476 20.5327
1.74867 -1.83171 18.4487
0.0274182 -2.77034 18.2704
0.0121223 -3.10436 15.6545
0.00498849 -0.878691 18.594
-0.0652715 -5.7026 23.2982
0.252226 -0.68857 18.6123
0.0131769 -1.19479 22.4298
0.0178853 0.0347404 13.101
-0.105592 0.180682 16.0981
0.0183186 -0.126258 19.6508
0.037394 0.0702053 11.5501
0.0853749 0.305529 12.9579
0.0683919 0.208654 17.1098
0.201912 0.338365 5.92094
-0.0366898 1.51964 11.7051
0.268955 0.19693 13.7992
0.220724 -1.10865 -3.38271
0.0479745 0.158983 3.48897
-1.14108 1.49346 14.0166
0.153786 1.15355 11.7851
-0.246847 -1.36098 -1.97666
-0.0528198 0.845631 9.12252
2.84639 -0.653013 16.886
0.0185779 2.43216 13.5172
0.00762147 -0.350357 17.92
-0.51908 0.722669 3.82551
0.0232697 0.311216 -0.337004
-0.394077 -1.44747 -4.18755
-2.18089 0.513279 10.2251
-0.0145135 -1.74962 -0.308488
-0.323961 -2.00555 0.386277
1.75167 1.70652 18.6182
0.0197718 1.89351 19.154
0.0131138 0.966101 18.4103
0.0306222 4.82966 19.0172
3.25161 2.22984 20.5317
0.0234667 3.06601 20.2086
0.00151463 6.19006 19.9925
2.33828 0.483372 21.5463
-0.0165679 2.03804 22.481
0.0117176 0.0462859 13.6329
-0.618013 -0.284941 18.242
-0.00185299 -0.252396 21.9812
0.0465058 -0.565132 10.6474
-0.645634 -0.884194 18.8166
0.0166359 -0.724661 21.5041
0.0750564 -1.1619 15.4423
-0.590133 -1.21845 19.8965
0.024926 -0.749236 21.3099
0.0715413 -0.835185 16.9874
1.10131 -0.470929 19.9587
1.2979 -0.984123 19.5812
1.84395 -0.862217 19.1907
0.761503 -0.428869 19.4858
2.47492 -1.73441 20.4373
1.02055 -0.628448 21.1985
0.917778 -1.02751 21.5678
1.3237 -1.26678 21.9056
0.250346 -0.614528 21.6604
0.184645 -0.301495 21.4784
0.0281614 -0.228392 21.5618
-0.0323781 -0.463532 21.2313
-0.177167 -0.06317 21.4097
-0.315852 0.0426318 21.5822
-0.327911 0.289344 21.6135
-0.507093 0.321281 20.419
-1.06026 0.871675 20.3802
-0.905657 0.294803 21.3032
-0.89475 0.883713 20.91
-1.49692 0.804445 19.2517
-1.36085 0.85027 20.3273
-1.03515 0.189642 21.1174
-1.16606 0.958906 20.7403
-1.82311 0.65227 18.8212
-1.08829 0.594852 20.4098
1.40272 -0.190145 19.8211
2.2992 0.260794 18.9932
0.955697 -0.164011 19.2692
4.00978 -0.677395 20.302
1.44946 -0.458129 21.2302
2.6399 -0.534627 21.6217
0.833645 -1.08043 21.3613
0.403474 -0.421004 21.6019
0.946342 -0.791497 21.6042
-0.141749 -0.232906 20.3447
-0.354615 -0.164159 21.7424
-0.579568 -0.143017 20.1612
-1.44939 0.354028 17.7567
-1.08592 -0.150992 21.311
-1.33566 -0.535751 20.0581
-1.84801 0.107547 19.0003
-1.14849 -0.218352 21.4374
-1.53483 -0.604751 20.3466
-1.63203 0.0211897 19.9803
1.16835 0.411082 19.9113
0.972885 0.833574 19.818
0.85934 0.415023 19.4262
2.27725 1.16774 20.1176
1.52011 0.323182 20.9149
1.40636 1.0538 20.7518
2.07338 0.394214 21.5759
0.80661 -0.033387 21.6157
0.890041 0.497738 21.7046
0.546531 -0.14121 22.0844
-0.0701883 -0.283937 21.6437
0.032166 -0.233905 21.7101
-0.40378 -0.678836 21.7031
-0.53832 -0.519449 21.3952
-0.258657 -0.54025 21.3138
-0.605321 -0.844727 21.6089
-0.625846 -0.472628 20.9429
-0.332963 -0.601753 21.2431
-0.564441 -0.818593 20.5966
-1.52751 -0.99262 19.4078
-1.07033 -1.15603 21.7575
0.035023 -0.320811 21.5325
0.438026 0.295308 21.1527
1.14185 0.876111 20.2828
1.43614 0.801226 19.9284
-2.24411 -0.344258 18.9655
-2.02871 -1.09246 22.0073
-0.276661 -0.690275 20.674
0.626429 0.294666 19.2385
1.54389 0.273575 18.2174
1.83578 0.0642438 18.6232
-1.58752 0.877263 19.4215
-2.34091 0.791834 20.918
-1.30851 0.0803143 21.9922
0.0924653 -0.395395 21.9127
0.525195 -0.69632 21.4621
0.710001 -0.78305 21.2018
0.024456 -3.22381 17.217
0.0397865 -0.332721 14.9352
0.0286179 0.0495977 12.018
0.107734 0.141251 9.30946
0.427826 -0.410397 3.52943
0.0101275 0.0650184 4.30072
0.0237409 -1.02334 13.6431
-0.216955 -0.538069 -2.80334
-0.325733 -1.93252 -1.93442
0.0249292 2.90421 17.601
0.01691 4.7261 19.5167
-0.00568563 1.74864 14.7314
0.0264562 -0.593897 11.6662
0.0821315 -0.762681 12.8993
0.0441339 -1.5174 15.8879
1.52711 -0.976653 19.4229
1.08002 -1.14639 21.7376
-0.0321548 -0.317557 21.5233
-0.435516 0.310914 21.1557
-1.25694 0.943885 20.2261
-1.48773 0.832877 19.9712
2.24216 -0.346719 18.9757
2.03606 -1.10405 22.0237
0.273819 -0.696782 20.6905
-0.635467 0.262615 19.4213
-1.68402 0.205704 18.4538
-1.85472 0.102691 18.8122
1.57943 0.858431 19.4439
2.33353 0.783968 20.9202
1.33214 0.0841915 22.0077
-0.0851732 -0.414141 21.9436
-0.538686 -0.756867 21.4764
-0.720859 -0.842573 21.1567
-3.7422 -1.22892 3.84586
0.0382092 -0.322204 0.890782
-0.13462 -0.477634 2.40028
0.0630753 0.0824737 0.178291
-0.0503016 0.0122555 0.0411433
-0.0582081 0.303712 1.43445
-1.96011 -0.013588 2.9152
-0.061168 0.286567 0.587945
-0.1678 -0.0399699 0.603753
0.0112707 -0.00018152 0.0413671
0.00524693 0.0322638 -0.0284834
0.0131327 0.00501858 0.068025
-0.0364751 -0.32092 0.892006
3.71457 -1.21095 3.81871
0.120557 -0.445056 2.25711
0.095354 0.0598974 0.221238
-0.0925818 0.0684849 0.212508
0.0601144 0.322098 1.363
0.0611931 0.282867 0.581598
1.96191 -0.0141803 2.92093
0.200832 -0.0451956 0.712006
0.0105395 0.0172295 -0.0206045
-0.0118988 -0.00379922 0.044514
-0.0118611 0.00310127 0.0679242
0.00665 0.0374301 0.792908
0.00162481 0.0132845 0.614293
0.000122579 0.00406806 0.0898693
4.7186e-19 4.58412e-18 8.69405e-17
-0.0932076 0.0592394 2.32007
-0.0381173 0.0517096 1.52505
-0.000870869 0.00586476 0.0293077
0 0 0
-0.00731733 -0.00580156 0.0364814
0.000185732 0.0032485 0.0333219
0.00283028 0.00733742 0.0337971
-0.0390129 0.034422 0.106812
0 0 0
0 0 0
0 0 0
0.076037 0.0141799 0.330902
-0.00760019 0.0387393 0.816894
-5.37591e-19 1.87549e-18 5.23111e-17
-0.00174166 0.0132721 0.604366
-0.000102339 0.0042493 0.0905593
0.0597506 0.0575238 1.46737
0 0 0
0.0337678 0.0669302 1.61395
0.000889 0.00567595 0.0288585
0.00584677 -0.00463961 0.0291099
0.0374477 0.0328241 0.10188
-0.000177926 0.00319631 0.0333232
-0.00284931 0.00735867 0.033556
0 0 0
-0.0632361 0.0115318 0.283382
-0.00305722 0.0105414 0.041083
0 0 0
-0.021407 -0.00906525 0.0883204
-0.178844 -0.026899 0.105515
7.73498e-05 -0.000591622 0.0113057
0 0 0
-8.03067e-06 -0.000142443 0.00279109
0.00161906 -0.000782779 0.128587
0.00126919 0.000585068 0.00917965
-0.0280865 0.0200517 -0.00783898
0.00546536 -0.00651412 0.112686
0.0267402 0.0215829 -0.0131817
0 0 0
-0.00355259 -0.000466543 0.118755
-0.00076052 0.27191 0.220925
2.24406e-05 0.00660407 0.0251168
-0.00394723 -0.0134293 0.103197
0 0 0
0.0108744 0.0468136 -0.00832715
0.000335235 0.00187698 -0.00405092
0.00909462 0.0162026 0.0968462
-7.76501e-05 -0.000385061 0.0011112
0.16204 -0.0233949 0.0960889
0.0391021 -0.0163005 0.161371
0 0 0
4.71201e-06 -0.000137608 0.00292012
0.0241973 0.0111505 -0.0052321
-0.000988402 0.000354037 0.00724188
0 0 0
0 0 0
0.147043 0.0446576 0.286928
0.00389056 -0.0133392 0.101523
0.000110503 -0.000901867 0.00271208
-0.00848331 0.0145384 0.093335
-0.00102767 0.00534963 0.0521287
0 0 0
0 0 0
0 0 0
4.54061e-05 0.00124346 0.0342162
2.64905e-07 2.98409e-07 6.52139e-05
0 0 0
0 0 0
1.50862e-08 8.85742e-08 2.09895e-05
0 0 0
0.00249984 0.0113092 0.0705523
-0.00282537 0.182112 1.81249
-4.18805e-05 0.00393806 0.00867299
0.00064808 0.0772077 0.31772
5.56115e-05 0.000374903 0.0205053
8.33251e-05 -0.00299929 0.0211791
-0.000200495 0.000176009 0.00702586
0.00107702 0.00563972 0.0540915
0 0 0
3.54026e-06 6.51199e-05 0.000732928
-2.85385e-05 0.000809624 0.00450428
0 0 0
0.00652229 0.181543 1.82812
-0.00961884 0.0425056 0.271322
-0.0600293 -0.0228885 0.260983
0 0 0
0.0126139 -0.00629132 0.0855843
-0.00017995 -0.000501904 0.00369298
-0.000585635 0.00375287 0.0522574
0.000134277 0.027537 0.211894
-0.000550582 0.00304773 0.0252555
0 0 0