# vtk DataFile Version 2.0
tri_press
ASCII
DATASET UNSTRUCTURED_GRID
POINTS 3682 float
-0.715 0.115 -1.62534
-0.685 0.195 1.68626
-0.782452 0.675 -1.475
-0.525 0.984638 1.765
0.715 0.115 -1.62534
0.675 0.195 1.69232
0.755 0.665 -1.50709
0.525 0.984636 1.765
-0.776018 0.0706484 -0.521473
-0.794066 0.069267 0.582393
-0.791599 0.873177 -0.395
-0.708563 0.979171 0.685
0.773405 0.0699279 -0.519453
0.791684 0.0649826 0.586433
0.779921 0.873133 -0.416393
0.706828 0.983252 0.674303
-1.4637 -0.334115 -2.55395
-1.47327 -0.279035 -1.67727
-1.50634 -0.311901 -0.57368
-1.49375 -0.330902 0.532783
-1.41512 -0.251602 1.63659
-1.39783 -0.186917 2.51434
-1.41215 -0.133521 3.38978
-1.47414 0.0169141 -2.49235
-1.48355 0.0991542 -1.61702
-1.51967 0.0938286 -0.518004
-1.48289 0.0878602 0.58145
-1.35855 0.165234 1.68069
-1.36264 0.228304 2.55829
-1.39569 0.280767 3.43457
-1.50813 0.666914 -2.35958
-1.52938 0.746489 -1.47851
-1.52978 0.887379 -0.394965
-1.4216 0.963157 0.684709
-1.25319 0.989392 1.76777
-1.30661 1.04828 2.64479
-1.37517 1.10555 3.52356
-1.52813 1.78337 -2.18285
-1.53416 1.88418 -1.30855
-1.52124 2.05419 -0.228154
-1.47308 2.19236 0.845461
-1.41771 2.26377 1.92389
-1.4076 2.30662 2.79408
-1.42575 2.35291 3.66936
-0.714169 -0.326159 -2.55989
-0.715344 -0.266143 -1.68249
-0.752999 -0.322878 -0.575676
-0.773678 -0.345113 0.534641
-0.728738 -0.23876 1.64131
-0.720747 -0.177765 2.51743
-0.732773 -0.129496 3.39124
-0.721352 0.0156688 -2.49933
-0.70492 0.238855 2.56063
-0.726732 0.285027 3.4355
-0.752656 0.635539 -2.36534
-0.659534 1.04972 2.64363
-0.716098 1.10718 3.52266
-0.777398 1.76084 -2.18729
-0.784202 1.86259 -1.31239
-0.783752 2.04823 -0.23193
-0.765762 2.19843 0.841573
-0.739383 2.26812 1.92022
-0.735666 2.30848 2.79089
-0.750508 2.35402 3.66672
0.763548 -0.327433 -2.56611
0.754215 -0.266496 -1.68405
0.779255 -0.323762 -0.575053
0.765636 -0.347952 0.537295
0.681914 -0.239779 1.64543
0.643314 -0.178442 2.51991
0.628875 -0.130137 3.39203
0.754945 0.0135925 -2.50805
0.613911 0.238435 2.56332
0.610039 0.284507 3.43627
0.754944 0.630601 -2.38424
0.563512 1.04957 2.64397
0.585935 1.10689 3.52231
0.730484 1.75818 -2.20303
0.726641 1.86032 -1.32874
0.706985 2.04775 -0.24545
0.656991 2.19917 0.83268
0.605499 2.26867 1.91511
0.592412 2.30865 2.78738
0.590684 2.35395 3.66379
1.5084 -0.336731 -2.56812
1.50312 -0.280439 -1.68612
1.52981 -0.313348 -0.577724
1.50647 -0.334379 0.533968
1.40346 -0.253964 1.64115
1.34679 -0.188466 2.5174
1.32599 -0.134842 3.39046
1.49963 0.0131236 -2.51097
1.48597 0.097126 -1.63038
1.5245 0.0930313 -0.525403
1.50067 0.0848094 0.581418
1.3696 0.163227 1.68582
1.31024 0.227094 2.56147
1.30057 0.279658 3.43516
1.50251 0.65981 -2.3914
1.50466 0.738882 -1.51529
1.51786 0.887064 -0.421514
1.43068 0.965436 0.672179
1.26177 0.98903 1.76618
1.24527 1.04776 2.64438
1.26513 1.10489 3.52214
1.48137 1.77874 -2.21221
1.47733 1.88038 -1.33843
1.45066 2.05325 -0.253026
1.38123 2.19336 0.828636
1.30463 2.26456 1.91371
1.27872 2.30683 2.78681
1.27563 2.35272 3.66325
-0.790831 0.395 -1.59228
0 0.0719761 -1.66836
-0.765091 0.0732428 -1.07341
-0.644436 0.589819 1.76507
-0.005 0.135272 1.74902
-0.779502 0.0921651 1.13433
-0.013726 0.729779 -1.55082
-0.820349 0.807412 -0.935
0 1.0336 1.81396
-0.652355 1.01748 1.225
0.779422 0.39 -1.61064
0.763758 0.0729084 -1.0724
0.637572 0.589818 1.76623
0.773541 0.0897921 1.13938
0.810437 0.812043 -0.961742
0.652006 1.02004 1.21965
-0.79089 0.0641101 0.03046
-0.849883 0.471913 -0.458237
-0.0013064 0.0592716 -0.520463
-0.850948 0.524219 0.633697
-0.00119115 0.0589337 0.584413
-0.749106 0.925199 0.145
-0.00583893 0.948829 -0.405697
-0.000867268 1.36291 0.679652
0.786838 0.0631615 0.03349
0.846947 0.471531 -0.467923
0.851083 0.524117 0.630368
0.744864 0.929682 0.128955
-0.880913 0.433456 -1.0042
0.880804 0.430765 -1.01707
-0.000653198 0.0601376 -1.0729
-0.00978246 0.862784 -0.948371
-0.006863 0.3925 -1.91445
-0.851177 0.498066 0.08773
0.851184 0.497824 0.0812225
-0.00124877 0.0589672 0.031975
-0.0033531 1.27245 0.136977
-0.888421 0.557019 1.17966
0.889099 0.556968 1.17951
-0.00309557 0.0772251 1.13685
-0.000433634 1.22531 1.22233
-0.0025 0.589818 1.9093
-0.761705 0.255 -1.6176
-0.3575 0.0778354 -1.6625
-0.758478 0.075689 -1.34937
-0.695762 0.392409 1.75671
-0.345 0.207612 1.67516
-0.780463 0.0953704 1.41029
-0.791798 0.535 -1.53879
-0.398089 0.694737 -1.50526
-0.824834 0.764639 -1.205
-0.57107 0.787228 1.75138
-0.2625 1.02372 1.80408
-0.59964 1.01202 1.495
0.3575 0.0813396 -1.659
0.754013 0.2525 -1.62479
0.757772 0.0755611 -1.34887
0.335 0.211808 1.674
0.686944 0.392409 1.75993
0.775363 0.0913041 1.41585
0.370637 0.691346 -1.52291
0.77475 0.5275 -1.5664
0.81117 0.766973 -1.23442
0.2625 1.02403 1.80439
0.563542 0.787227 1.74787
0.599364 1.0132 1.49233
-0.780403 0.0620967 -0.79744
-0.787321 0.0635122 -0.245507
-0.878647 0.238433 -0.489855
-0.390925 0.0604345 -0.520968
-0.783483 0.084017 0.85836
-0.792502 0.0666648 0.306427
-0.856223 0.279885 0.608045
-0.400096 0.0591655 0.583403
-0.808899 0.84322 -0.665
-0.835237 0.679793 -0.426618
-0.764048 0.892884 -0.125
-0.410555 0.934675 -0.400348
-0.687276 1.00514 0.955
-0.859149 0.791392 0.659348
-0.72666 0.950011 0.415
-0.437098 1.33581 0.682326
0.777321 0.0626785 -0.795925
0.388137 0.0604252 -0.519958
0.784421 0.0622461 -0.242982
0.879267 0.236184 -0.493688
0.779751 0.080249 0.862905
0.396649 0.0591537 0.585423
0.789196 0.0641371 0.309962
0.857566 0.276459 0.608401
0.798264 0.845673 -0.689068
0.39233 0.921559 -0.411045
0.831995 0.681612 -0.442158
0.757446 0.896461 -0.143719
0.685945 1.00817 0.946978
0.434632 1.33638 0.676978
0.859144 0.793779 0.652336
0.724035 0.954656 0.401629
-0.878141 0.414228 -1.29824
-0.398847 0.39375 -1.81295
-0.000326599 0.0601157 -1.37063
-0.0034315 0.232238 -1.86118
-0.878956 0.25335 -1.03881
-0.382872 0.0635931 -1.07315
-0.842137 0.573419 1.47236
-0.323468 0.589819 1.88387
-0.00404778 0.0971654 1.44294
-0.00375 0.362545 1.89213
-0.887431 0.324592 1.157
-0.391299 0.075951 1.13559
-0.0117542 0.810357 -1.2496
-0.0102945 0.561139 -1.76779
-0.876819 0.620434 -0.969602
-0.415066 0.826108 -0.941685
-0.000216817 1.10743 1.51815
-0.00125 0.81171 1.86454
-0.87203 0.787248 1.20233
-0.326394 1.19457 1.22366
0.877986 0.410383 -1.31385
0.38628 0.39125 -1.81669
0.87882 0.251837 -1.04473
0.381553 0.0644182 -1.07265
0.837598 0.573393 1.47287
0.317536 0.589818 1.88437
0.887522 0.32338 1.15945
0.385223 0.076024 1.13811
0.876782 0.621404 -0.989405
0.400327 0.823806 -0.955056
0.871823 0.788502 1.19958
0.325786 1.19634 1.22099
-0.852327 0.265441 0.059095
-0.397013 0.0596521 0.0312175
-0.888349 0.452685 -0.73122
-0.857365 0.484989 -0.185253
-0.000979797 0.0591783 -0.796683
-0.00127758 0.0589636 -0.244244
-0.850049 0.511142 0.360713
-0.884835 0.540619 0.90668
-0.00121996 0.0587332 0.308194
-0.00214336 0.071511 0.860633
-0.854729 0.738926 0.116365
-0.440112 1.22659 0.140989
-0.0078107 0.898655 -0.677034
-0.00459601 1.10733 -0.13436
-0.00211018 1.35293 0.408315
-0.000650451 1.3236 0.950989
0.852752 0.263623 0.0573563
0.393507 0.0596406 0.0327325
0.888411 0.451148 -0.742496
0.857781 0.484677 -0.19335
0.850072 0.510971 0.355795
0.884841 0.540543 0.904941
0.854272 0.741877 0.105089
0.432699 1.22495 0.132966
-0.876215 0.254175 -1.32381
-0.893873 0.262315 -0.76433
-0.85795 0.64649 -0.69811
-0.87711 0.577717 -1.25162
0.874194 0.252168 -1.33136
0.876904 0.574452 -1.27413
0.853188 0.646868 -0.715782
0.894023 0.261283 -0.769211
-0.370186 0.0650296 -1.36
0.369526 0.066568 -1.35975
0.383801 0.0606578 -0.796304
-0.385767 0.0606876 -0.797061
-0.406577 0.771849 -1.2273
-0.406892 0.866609 -0.671017
0.393684 0.860657 -0.683051
0.385482 0.768754 -1.24201
-0.378173 0.243619 -1.77583
-0.398468 0.54807 -1.70178
0.378458 0.54432 -1.72738
0.37189 0.242369 -1.7887
-0.859178 0.255091 -0.21538
-0.853586 0.273008 0.33357
-0.857142 0.76526 0.387857
-0.859002 0.716369 -0.155127
0.859618 0.253099 -0.218166
0.859351 0.719853 -0.168535
0.85696 0.767954 0.378712
0.854461 0.27039 0.332879
-0.394051 0.0598796 -0.244875
0.390903 0.0598695 -0.243613
0.395078 0.0593969 0.309078
-0.398555 0.0594085 0.30731
-0.421508 1.07298 -0.12968
-0.459634 1.32325 0.411657
0.454805 1.32295 0.404972
0.410775 1.06978 -0.139039
-0.876904 0.310667 0.88252
-0.862973 0.358501 1.44133
-0.805762 0.787238 1.48368
-0.872483 0.769472 0.93084
0.880705 0.308965 0.883923
0.871676 0.771093 0.925959
0.794899 0.787865 1.4826
0.862732 0.357894 1.44436
-0.394464 0.0674578 0.859496
0.390235 0.0675002 0.861769
0.360111 0.0917607 1.42939
-0.368149 0.091305 1.42661
-0.340555 1.30141 0.952994
-0.294447 1.08942 1.50657
0.294143 1.09005 1.50524
0.339383 1.30273 0.948983
-0.334234 0.377477 1.88068
0.326268 0.377477 1.88094
0.290018 0.799468 1.85046
-0.292984 0.799469 1.85103
-0.743446 0.185 -1.62656
-0.53625 0.0886688 -1.65167
-0.750695 0.0813884 -1.48736
-0.698586 0.293705 1.72969
-0.515 0.210644 1.67137
-0.743122 0.134795 1.54828
-0.789172 0.605 -1.50894
-0.59027 0.702159 -1.50742
-0.808554 0.72473 -1.34
-0.549011 0.885933 1.75917
-0.39375 1.01497 1.79533
-0.561851 0.99786 1.63
0.53625 0.0892292 -1.65111
0.739356 0.18375 -1.62991
0.750438 0.0812287 -1.4871
0.505 0.212303 1.67426
0.689453 0.293704 1.73461
0.733599 0.134735 1.55408
0.562818 0.695379 -1.53221
0.767963 0.59625 -1.53983
0.793516 0.726418 -1.37075
0.39375 1.01493 1.7953
0.536641 0.885932 1.74881
0.561574 0.998308 1.62866
-0.772795 0.0717885 -0.659457
-0.785491 0.0632588 -0.38349
-0.837403 0.149505 -0.505664
-0.585724 0.0610376 -0.521221
-0.795947 0.0694693 0.720377
-0.79333 0.06792 0.44441
-0.851128 0.161584 0.595219
-0.599322 0.0597351 0.582898
-0.801581 0.85953 -0.53
-0.854419 0.796985 -0.410809
-0.780688 0.885894 -0.26
-0.60085 0.903473 -0.397674
-0.701707 0.995944 0.82
-0.826978 0.906842 0.672174
-0.716083 0.963063 0.55
-0.600338 1.2125 0.683663
0.770075 0.0715918 -0.657689
0.582846 0.0610277 -0.519706
0.782872 0.0621278 -0.381218
0.834577 0.148936 -0.506571
0.792997 0.0653358 0.724669
0.59534 0.0597209 0.585928
0.789938 0.0650621 0.448198
[...]
POINT_DATA 3682
SCALARS point_scalars float 1
LOOKUP_TABLE default
-70.791
-51.7349
-52.4208
-41.8497
-74.8271
-51.2388
-32.7448
-42.0936
-44.8678
-44.7029
-51.6522
-62.5733
-45.0523
-44.6576
-47.0658
-62.9822
-85.1881
-110.631
-64.0774
-43.3825
-66.1815
-49.5798
-45.9342
-39.4746
-125.62
-47.2158
-42.5557
-61.7744
-47.169
-45.182
15.5151
-101.242
-50.5283
-51.4428
-50.3021
-44.634
-41.1399
-58.452
-71.6261
-93.137
-81.9203
-46.7977
-42.1106
-40.3117
11.4294
-170.679
-46.8898
-45.4432
-60.5272
-46.076
-45.3343
11.4294
-44.8577
-44.6304
155.203
-39.9513
-39.1975
-19.852
-58.7488
-70.4122
-79.3036
-42.3989
-41.1201
-39.1796
-18.9532
-159.861
-46.6317
-45.4272
-60.2495
-46.0779
-45.2018
48.5817
-44.8799
-44.6692
156.141
-39.2663
-39.0358
-12.7423
-51.2056
-62.7144
-80.1736
-41.1952
-41.164
-39.2536
-82.5304
-110.291
-64.0155
-43.3978
-67.3541
-50.1738
-45.8617
-39.2079
-124.25
-47.1664
-42.4362
-61.7229
-46.9195
-45.0205
14.8456
-96.9063
-49.5943
-52.0145
-49.5029
-43.3066
-41.3978
-52.6268
-70.5764
-87.0344
-82.4173
-47.1272
-42.3586
-40.4219
-24.1342
-132.076
-61.4222
-44.8027
-50.5406
-51.961
-29.3933
-48.9408
-40.7878
-51.4086
-16.5011
-61.0756
-44.7173
-52.1774
-47.7327
-51.7187
-41.213
-44.7383
-48.7492
-41.1396
-48.9875
-70.8346
22.0098
-87.0412
-41.5338
-44.8622
-41.0034
-70.9446
-65.0835
-65.6506
-63.8645
-18.0929
203.629
-42.6105
-42.4529
-45.3179
-50.9224
-59.6941
-60.2698
-54.1615
-47.0285
-44.0511
-19.9067
-164.205
-97.8143
-46.9911
-50.6748
-62.9823
-34.1673
-43.1293
-68.837
-42.9253
-40.4958
-45.2904
-162.192
-16.2417
-95.3893
-50.4282
-46.6876
-64.5439
-44.5985
-21.6609
-63.0199
-40.5346
-42.9694
-45.4069
-55.7926
-42.5499
-44.6036
-48.2966
-48.1111
-42.3507
-40.6849
-48.2337
-42.6236
-44.3172
-65.5025
9.54638
-58.5348
-49.4982
-67.0281
-84.699
-55.0449
-48.4551
-42.5986
-44.7424
-48.9178
-48.3482
-42.7461
-40.6714
-42.6943
9.46859
-44.8803
-65.554
-58.8614
-85.5397
-49.765
-67.8464
-105.221
182.157
-83.8699
175.846
-63.7085
-64.1692
-58.7207
-43.5713
-58.6877
-45.1726
-57.5361
-53.7276
-31.3691
113.623
-63.5742
-25.6488
-42.3501
-41.5722
-59.6803
-47.6208
-109.471
182.611
-63.9722
-64.3123
-58.4528
-43.6481
-57.4241
-53.7894
-64.901
-25.7447
-60.2713
-47.7286
-40.2001
-44.6224
-57.8664
-43.915
-54.213
-46.0625
-42.9981
-49.8428
-46.3045
-50.9439
-49.7995
-47.4383
0.800547
25.2753
-108.989
-59.6759
-40.1546
-44.7031
-58.3423
-43.6397
-42.9574
-49.6335
-50.0835
-44.5388
-104.365
-57.1472
-52.4008
-106.061
-106.565
-115.264
-55.1378
-56.9326
-86.0627
-86.7973
-54.1216
-54.0813
-39.2561
-7.46101
-6.23803
-39.2389
149.928
118.487
118.486
148.542
-41.5162
-40.8692
-50.0918
-49.7692
-41.3157
-49.5447
-50.4611
-40.6702
-45.4283
-45.5323
-45.649
-45.5632
7.4441
-104.592
-104.344
9.0208
-48.8583
-63.5052
-53.461
-52.1392
-48.4772
-52.2542
-52.9198
-64.3251
-50.5963
-50.7011
-59.9004
-60.0968
-59.9696
-42.9294
-42.9638
-60.3155
-45.0481
-45.0838
-41.1671
-41.1365
-31.904
-162.785
-125.445
-48.8427
-50.869
-60.7906
-35.7597
-31.1922
-61.9665
-43.0906
-40.6761
-43.2128
-165.767
-31.4738
-124.854
-50.587
-48.4644
-59.5489
-28.1719
-17.6563
-57.8703
-40.7428
-43.1478
-43.3973
-48.6037
-43.7083
-43.6589
-47.3738
-50.6694
-43.3747
-43.1765
-47.3263
-44.1983
-51.8157
-62.3721
-10.1634
-61.791
-56.3733
-65.3934
-72.5682
-48.6135
-47.4569
-44.0292
-43.3741
-53.0009
-47.4642
-43.5323
-43.1793
-43.3481
-10.1518
-50.67
-53.6573
-61.9638
-73.2067
-56.6035
-65.6736
-23.3529
-26.7035
-127.45
144.397
-145.33
-141.911
-102.704
62.3851
-72.9474
-54.003
-62.2435
-63.1914
-45.5345
-43.3104
-50.4139
-43.2822
-50.2723
-50.4489
-53.31
-46.6425
-54.9575
-49.6634
-55.2916
-53.0309
-33.8113
-36.8268
-35.9316
35.4308
-59.6767
-41.6825
-64.305
-34.6465
-40.6552
-40.6705
-41.7342
-39.7809
-47.6944
-55.1199
-56.7074
-48.6236
-14.5248
-14.2623
-122.798
153.526
-72.6597
-53.9618
-62.266
-63.1547
-45.459
-43.2482
-50.12
-43.3658
-54.1308
-49.7962
-54.2013
-53.077
-59.5038
-43.8852
-65.7299
-34.1868
-47.8964
-55.4949
-57.1108
-48.7765
-41.5498
-41.6837
-40.432
-43.6119
-44.2777
-44.3349
-48.0713
-40.5036
-48.6481
-48.7655
-51.0362
-47.1784
-39.1277
-44.4627
-42.6268
-43.1748
-48.7386
-48.7951
-47.4385
-51.7803
-68.7092
-68.9099
-57.9112
-103.658
19.8654
19.5519
11.1149
30.1448
-85.8106
-86.1486
-104.025
-71.7321
-41.7501
-41.8336
-40.2228
-43.6487
-44.2688
-44.5373
-48.1407
-40.6146
-38.9651
-44.5256
-42.5733
-42.7539
-70.6593
-69.1219
-58.7504
-105.368
-77.4151
-64.7861
-64.7719
-58.8466
-79.109
-65.2034
-65.4916
-59.1335
-71.904
-64.0056
-64.0944
-58.2961
-26.2734
-20.7307
-20.7987
-9.58086
190.367
187.525
154.594
190.909
-41.1934
-43.2387
-42.9121
-45.2383
-41.045
-43.1159
-42.7993
-45.2162
-45.1512
-45.524
-45.6467
-45.2287
-45.5572
-0.164666
-103.976
-44.5655
-61.9526
-59.0431
-60.0036
-54.6001
-62.7739
-59.2724
-60.7679
-54.8382
-56.9002
-54.1117
-54.1408
-52.3433
-44.0921
-47.0542
-47.0974
-51.7143
-43.9041
-44.6257
-42.9665
-43.9319
-120.051
128.737
-111.863
77.3659
-107.598
-89.0122
-53.9455
-44.8548
-55.2618
-46.5028
-63.9216
-60.0025
-117.642
85.4951
-41.8172
40.0276
-101.553
-51.7092
-48.8429
-42.2289
-41.9069
-39.5346
-51.5776
-43.6148
-112.852
77.7255
-116.4
134.129
-108.912
-89.3652
-55.9329
-46.4599
-53.5583
-44.8703
-65.889
-60.119
-42.8399
38.5956
-105.991
96.1281
-103.389
-50.5635
-41.9472
-39.569
-48.1311
-42.5276
-51.4102
-43.6677
-57.1995
-53.5802
-42.0624
-44.4648
-51.831
-41.3304
-50.4121
-46.6414
-48.1504
-49.5671
-41.0951
-44.4824
-41.0136
-44.8948
-46.7249
-50.9431
-53.6174
-19.3976
-47.8869
-47.7432
-55.8828
-36.8234
1.27536
13.4443
-56.0234
-60.3753
-49.7314
-49.0576
-56.3918
-84.6555
-98.5555
-70.8261
-57.0032
-53.4625
-50.9533
-46.7732
-41.8949
-44.5349
-52.2855
-41.5966
-48.6109
-49.7132
-46.8212
-50.9585
-41.0267
-44.5626
-40.9349
-44.3599
-54.2917
-20.284
1.81029
13.9345
-47.8008
-46.8931
-56.4843
-28.1854
-56.2419
-60.7471
-99.4575
-71.3938
-49.9924
-49.189
-57.2942
-86.6136
-105.948
-103.624
165.453
132.802
-83.6428
-83.928
162.04
159.592
-77.2964
-56.3492
-72.7176
-58.1985
-62.893
-56.2374
-44.3985
-42.5942
-59.2873
-59.5656
-45.14
-45.184
-51.532
-59.023
-51.9409
-56.1062
-34.3997
-33.8049
118.634
122.08
-61.4589
-75.537
-33.988
-17.9298
-42.5357
-42.5563
-41.4628
-41.5012
-58.9813
-57.6405
-52.1318
-44.6895
-108.941
-109.39
139.005
166.595
-78.0554
-56.3007
-72.828
-58.2985
-55.7139
-62.7368
-44.3913
-42.6491
-51.9222
-58.8126
-52.0208
-56.2427
-78.2486
-60.4197
-18.299
-33.7645
-57.7332
-59.5453
-44.7275
-52.3004
-41.1468
-40.5038
-44.8545
-44.9385
-58.4864
-53.2295
-42.6032
-46.0145
-54.3137
-54.1845
-45.929
-45.9988
-41.5485
-45.6973
-49.2874
-49.8533
-46.1589
-46.1013
-51.0388
-51.0997
-50.2312
-49.5238
-12.1407
-93.2155
-1.94535
-2.28616
21.7406
22.0059
-108.865
-108.784
-59.7197
-59.8859
-40.9989
-40.3058
-44.9384
-45.0149
-54.7926
-58.3565
-42.3408
-45.8159
-45.8019
-41.41
-48.8565
-49.9607
-49.7912
-50.5225
-90.0186
-8.44589
-107.208
-76.1584
-77.7858
-124.416
-52.1979
-50.1383
-58.138
-53.2591
-51.3137
-57.826
-59.7389
-47.0665
-90.0371
-124.369
-76.643
-78.7502
-105.257
-120.291
-78.7868
-76.2033
-78.369
-82.6715
-78.4513
-118.784
-51.9636
-46.9075
-59.4181
-58.6917
-52.2683
-53.2328
-58.1431
-50.473
-123.241
-104.422
-71.9608
-72.484
-121.86
-72.5469
-72.0551
-104.8
-50.2888
-51.1381
-58.444
-56.928
-49.7807
-56.9532
-58.3627
-50.9066
-54.3678
-45.3273
-29.1502
-36.4884
-12.5809
8.68773
-12.7574
-25.3303
-12.1104
-24.4179
-12.6278
8.55965
-54.1864
-37.8362
-28.6853
-44.6831
82.2926
136.054
179.406
55.2111
46.4044
15.5667
120.813
112.844
56.1534
120.815
123.674
23.2844
86.7726
51.8338
180.326
136.993
-40.4874
-41.0775
-42.0737
-40.6011
-41.9063
-41.2955
-41.3768
-40.6617
-56.1553
-57.0245
-45.6417
-45.3726
-54.4826
-43.3075
-45.4218
-56.8962
-40.8819
-41.1295
-41.9181
-40.9557
-53.2881
-58.0894
-45.4165
-43.2572
-56.7556
-45.4369
-45.7128
-57.8268
-41.8727
-40.5084
-41.2223
-41.1962
-45.7066
-47.0607
-45.3765
-43.8471
-45.7864
-43.8804
-45.4182
-47.1431
-45.7755
-47.302
-45.5338
-43.9287
-45.6684
-43.8814
-45.4893
-47.2586
-12.3884
-76.3708
-0.67538
26.6044
-77.315
-103.213
-101.654
-93.0583
-78.4706
-97.5727
-100.832
-103.437
-12.3017
26.7131
0.4949
-64.9347
-48.1391
-50.9011
-53.0292
-43.6498
-58.0105
-51.4483
-60.908
-56.4326
-46.5237
-55.3099
-61.5618
-49.4136
-56.336
-44.845
-56.664
-56.756
-47.9985
-43.4875
-53.2896
-50.6413
-56.4936
-57.1177
-56.1922
-44.7871
-46.2197
-49.0378
-62.5226
-56.1846
-57.1261
-56.9999
-61.5419
-51.0518
-51.0934
-51.2638
-52.3914
-51.0445
-51.2435
-51.1303
-52.439
-51.257
-56.5744
-55.0307
-56.7975
-55.5348
-56.4722
-55.4066
-56.7476
-53.7382
-66.8574
-53.3285
-51.8894
-71.9608
-42.1512
-41.7644
-44.2486
-45.6091
-42.2294
-45.6932
-44.2859
-41.7828
-67.2553
-72.2799
-51.9859
-53.5535
-46.0992
-46.5674
-44.3556
-44.3937
-46.1182
-44.3779
-44.4114
-47.3612
-40.5136
-39.8184
-42.6055
-42.4583
-40.5019
-42.5775
-42.6518
-39.7374
-50.1196
-115.785
-139.037
-50.1306
-51.1075
-55.5169
-41.6093
-17.2769
-71.7107
-42.5433
-41.0246
-42.6164
-120.411
-50.6201
-136.885
-50.7748
-49.6617
-55.082
-10.3095
-21.529
-56.404
-41.1053
-42.8174
-42.7855
-46.9962
-42.015
-43.6368
-46.3049
-46.0923
-44.1487
-43.6295
-46.443
-48.505
-52.7935
-55.5193
-33.674
-62.0945
-60.7477
-63.5352
-66.1905
-46.8845
-46.3463
-42.0847
-43.5061
-46.0932
-46.7087
-44.4709
-43.5267
-45.5411
-34.87
-50.0123
-48.0633
-62.1718
-66.6731
-61.1908
-63.8976
-24.432
-23.0715
-85.6746
65.5452
-136.676
-134.71
-122.103
-54.363
-66.2226
-57.3571
-61.1991
-62.2965
-45.1324
-44.5001
-47.786
-43.7569
-50.4134
-50.4237
-50.9652
-48.1004
-52.8901
-50.892
-53.7473
-52.6165
-30.4125
-31.8381
-34.6508
-33.2353
-53.6529
-41.857
-61.1626
-40.262
-40.7844
-40.7945
-42.0006
-38.2452
-49.499
-53.2967
-53.8373
-50.1998
-18.6696
-13.9208
-70.6568
78.2304
-65.9529
-57.0446
-61.0568
-62.1349
-45.0233
-44.5024
-47.6227
-43.8194
-52.0251
-50.9543
-53.1402
-52.6424
-52.7645
-44.3107
-62.1039
-38.7507
-49.7404
-53.6172
-54.132
-50.4509
-42.0975
-42.4544
-40.1516
-42.9522
-44.5841
-44.9792
-45.0291
-42.6487
-48.701
-48.7657
-49.7805
-47.8492
-39.8302
-42.6713
-42.0858
-41.5703
-48.8972
-48.9251
-48.1706
-50.1446
-70.0716
-69.8265
-63.704
-81.4558
21.7414
21.3971
16.8141
27.8385
-87.166
-87.2956
-95.7598
-78.7586
-41.7246
-41.6494
-40.6484
-42.8881
-43.3787
-46.0026
-45.5651
-42.8581
-39.5853
-42.6438
-41.9944
-41.37
-71.0685
-70.0556
-64.4265
-85.1337
-70.3542
-64.9006
-65.0169
-60.9989
-71.2791
-65.4371
-65.6515
-61.1899
-67.5974
-63.9238
-63.9686
-60.9405
-22.6619
-18.8353
-18.5966
-14.7014
193.961
202.669
176.829
194.837
-41.8027
-42.6428
-42.7384
-43.7607
-41.6431
-42.5462
-42.6068
-43.6309
-45.2162
-45.3732
-45.4417
-45.2392
-49.8107
-17.7737
-83.6236
-49.6356
-59.9216
-59.5587
-59.7043
-58.43
-60.1242
-59.9364
-60.4726
-58.8205
-54.7668
-54.242
-54.266
-53.4416
-45.3057
-46.9858
-47.0076
-49.1152
-44.0271
-44.4492
-43.143
-44.0515
-20.9672
-20.8511
-85.3704
76.254
-174.824
-150.482
-142.027
-75.5278
-113.357
-82.4036
-106.409
-91.2559
-47.7568
-46.1564
-50.2517
-45.3242
-50.7251
-50.4131
-53.8363
-48.2843
-65.0967
-56.6944
-63.7382
-60.5507
-32.3461
-31.3023
-77.4051
50.7959
-43.0246
-40.8527
-42.5871
-50.8485
-63.7748
-68.1321
-87.9732
-59.8957
-43.0299
-42.5463
-45.3054
-42.8511
-40.5526
-40.6262
-42.0241
-38.4761
-44.0684
-46.4135
-48.9734
-44.2793
-178.735
-148.901
-138.903
-127.528
-18.0148
-16.2356
-78.9304
83.613
-112.537
-81.9861
-106.633
-91.2288
-50.5714
-50.4352
-52.5837
-48.1851
-47.4537
-46.0283
-49.8594
-45.2499
-65.4289
-57.5447
-66.5133
-61.1517
-46.8777
-41.5123
-43.918
-48.6197
-18.9733
-15.5632
-63.0888
57.1934
-65.6975
-65.1593
-79.0987
-58.9437
-40.6153
-40.6517
-42.0739
-38.5125
-43.1229
-42.5823
-45.2683
-42.8434
-44.1451
-46.5348
-49.2975
-44.3419
-54.3446
-51.9906
-57.9175
-53.4029
-42.4786
-42.4629
-41.8414
-43.7378
-44.2342
-44.3251
-47.244
-42.7501
-47.9725
-48.4951
-49.3672
-47.3189
-51.8366
-48.907
-48.141
-48.9512
-42.8736
-42.1988
-41.488
-43.7083
-42.5356
-39.2827
-41.1968
-42.6197
-47.831
-48.5264
-47.4345
-49.2695
-43.9421
-42.2774
-54.4182
-25.6106
-48.3836
-44.8651
-48.0556
-44.3107
-68.4455
-66.1925
-59.2727
-78.1219
0.581075
16.2574
4.49796
12.3618
-60.5755
-56.4765
-58.0301
-59.6056
-52.7787
-46.7304
-49.5784
-49.2095
-66.4085
-68.5259
-63.3563
-73.4016
-81.5281
-86.077
-92.0921
-77.7266
-54.2765
-52.1127
-57.7842
-53.0729
-48.1091
-48.6456
-49.5808
-47.4643
-42.5088
-42.519
-41.8025
-43.7931
-44.0244
-44.7094
-47.2681
-42.8832
-52.1711
-49.1375
-48.6677
-49.113
-47.9554
-48.6174
-47.5351
-49.3899
-42.6434
-42.1866
-41.5669
-43.7659
-42.4329
-39.2085
-41.0792
-42.5096
-41.9424
-43.6032
-53.8177
-26.5968
0.0877784
15.7393
5.10153
12.4597
-47.7734
-43.2048
-46.8331
-43.6707
-63.3797
-67.3604
-58.58
-70.2235
-61.0404
-56.8554
-58.3636
-60.1486
-82.5114
-86.6543
-93.2117
-78.4015
-53.047
-46.8943
-49.8232
-49.4172
-66.6275
-69.2266
-64.4136
-74.4022
-134.368
-88.0243
-105.105
-104.175
169.174
179.508
172.294
160.631
-90.7439
-77.3392
-83.2536
-83.3868
165.505
183.422
167.598
167.449
-62.7991
-64.4388
-69.6163
-59.2751
-63.8996
-64.1365
-68.0927
-60.9915
-54.2716
-63.073
-60.9155
-57.7491
-43.1801
-43.9302
-44.2452
-42.8442
-55.1801
-58.5748
-59.3869
-59.426
-45.5394
-44.9662
-45.1685
-45.195
-56.4255
-58.1457
-54.1391
-58.5116
-53.3824
-54.0083
-52.916
-54.5184
-32.8267
-29.4739
-32.388
-32.0651
69.4901
144.411
128.334
123.771
-63.8266
-64.4203
-60.2407
-68.997
-29.2765
-22.8694
-30.4147
-21.222
-41.9336
-43.0203
-42.4043
-42.4198
-41.0796
-42.3283
-41.562
-41.568
-58.439
-60.1726
-59.4096
-59.5946
-47.9949
-47.3392
-49.4591
-45.9335
-127.294
-91.1614
-108.905
-108.194
170.902
186.35
164.306
173.627
-62.9452
-64.7532
-69.8521
-59.5621
-63.9713
-64.2628
-68.2774
-61.1036
-53.8684
-63.7494
-57.0523
-60.3007
-43.3965
-43.9305
-44.2961
-42.9041
-55.6494
-58.4052
-55.3182
-58.4447
-53.4801
-54.085
-53.0224
-54.5985
-65.4583
-65.3264
-70.9018
-60.8457
-29.1254
-23.0818
-21.1558
-30.1151
-58.9583
-60.7111
-59.9511
-60.3662
-48.1132
-47.3956
-46.0192
-49.5725
-40.1769
-40.6107
-40.6629
-40.3667
-44.1881
-44.9158
-44.7104
-44.7632
-52.6254
-58.3206
-58.8894
-55.0453
-43.0188
-43.763
-43.2052
-44.8245
-52.5445
-56.0696
-54.2708
-54.1921
-46.5271
-45.7208
-46.0015
-46.0382
-42.8886
-42.967
-42.073
-44.1891
-45.6932
-51.5964
-49.5688
-50.1937
-46.8637
-45.9248
-46.2536
-46.2259
-51.9237
-51.4534
-50.9973
-51.0095
-53.4108
-47.1999
-50.0632
-49.3894
-69.2845
-41.6714
-30.7461
-69.8023
5.59901
-4.26815
0.283333
0.0575113
30.0595
16.9875
24.4743
24.4802
-106.971
-107.704
-109.145
-108.812
-65.578
-55.2823
-59.5618
-59.6591
-40.0216
-40.3307
-40.4445
-40.1648
-44.2397
-44.9783
-44.7818
-44.835
-53.7097
-58.4074
-56.7775
-59.4526
-42.3971
-43.6129
-42.9303
-44.582
-42.8384
-42.9005
-44.2082
-41.9656
-45.168
-51.5988
-49.205
-50.0266
-53.7421
-47.2871
-49.4933
-50.2613
-65.9523
-40.3728
-68.5263
-27.0045
-125.305
-105.925
-104.964
-88.3577
-58.0599
-56.0346
-55.0409
-58.0325
-53.3809
-49.617
-57.909
-51.8662
-125.9
-105.98
-104.52
-86.8151
-125.506
-107.707
-108.078
-90.0821
-124.463
-112.158
-111.714
-90.5659
-54.9143
-49.7646
-58.4041
-53.8193
-57.9693
-56.256
-54.7872
-57.4844
-95.7768
-87.574
-84.6209
-78.6038
-96.0234
-88.1498
-85.2467
-79.0492
-53.9075
-52.5253
-55.9499
-54.2401
-53.9515
-52.0743
-55.8805
-54.3083
-40.1235
-43.1334
-36.7862
-37.0734
-12.014
-2.63745
-11.6338
-3.9895
-11.4551
-2.05007
-13.0258
-4.85009
-40.7989
-43.5679
-37.3833
-36.9241
136.634
129.455
161.754
159.776
110.278
85.4519
129.229
124.5
50.3312
110.156
129.271
140.126
118.788
133.755
157.579
160.724
-41.7277
-41.3002
-41.5186
-41.8492
-40.8262
-40.9151
-40.6601
-41.1621
-49.919
-53.0833
-47.6105
-50.1855
-49.0976
-52.6098
-47.7604
-49.9341
-41.5513
-41.3005
-41.3644
-41.5231
-48.5032
-52.6621
-47.5001
-50.0449
-50.2
-53.6391
-47.8247
-50.5024
-40.7335
-40.8205
-40.4441
-40.958
-44.9819
-45.9365
-45.1043
-45.7221
-46.0518
-45.0563
-45.81
-45.1954
-46.1981
-45.1924
-45.9445
-45.3189
-45.1083
-46.1131
-45.2465
-45.8714
-6.246
11.5256
0.0350982
17.1415
-102.142
-102.554
-103.053
-107.758
-102.741
-102.552
-107.801
-102.592
12.2072
-4.65864
17.9068
1.87616
-48.6578
-45.9196
-49.765
-48.802
-59.0353
-63.6985
-63.0023
-62.5085
-51.0719
-52.631
-54.6702
-57.2511
-54.0868
-50.3215
-54.6131
-50.3638
-48.8989
-45.0575
-49.6673
-48.4507
-54.1823
-50.4629
-54.5867
-50.5747
-49.9271
-51.9766
-54.2166
-56.8748
-58.7769
-64.7659
-63.3039
-63.3412
-50.0844
-50.9529
-51.1473
-50.8423
-50.1652
-51.0547
-51.2426
-50.905
-59.2517
-60.8013
-59.7505
-58.5243
-57.4936
-60.4884
-59.7551
-58.4074
-60.1578
-65.3893
-55.4576
-60.1309
-42.2596
-43.2108
-42.7148
-43.6894
-42.2821
-43.2489
-42.7413
-43.7322
-60.6627
-65.7692
-55.7036
-60.3715
-44.881
-45.5253
-44.5873
-45.1155
-45.5272
-44.9009
-45.1491
-44.6155
-40.5681
-41.5838
-41.2199
-42.0004
-41.4458
-40.5469
-41.9545
-41.1787
-96.3866
46.5728
-161.836
-103.796
-111.406
-131.31
-53.0582
-46.3358
-55.62
-48.2306
-59.5953
-58.996
-77.8013
34.6964
-42.6942
12.6669
-71.9861
-66.9033
-43.5854
-41.7479
-42.0794
-39.7894
-45.0045
-42.4164
-157.947
-102.222
-93.2572
48.3561
-110.832
-130.363
-55.3088
-48.155
-52.0859
-46.1683
-58.6515
-58.6614
-43.6714
24.0537
-65.7152
46.4951
-67.7684
-64.9267
-42.1159
-39.8447
-43.4901
-41.868
-44.6981
-42.4942
-50.1729
-48.9985
-41.3881
-45.0461
-48.0241
-42.2037
-48.4572
-46.3565
-49.0189
-50.3266
-42.4222
-44.8148
-42.448
-42.5731
-46.4472
-48.6013
-51.1072
-27.4709
-51.7223
-53.0734
-57.2111
-46.5475
-11.1821
-10.5215
-60.7429
-63.308
-56.2617
-56.3333
-62.2219
-69.5494
-74.3638
-68.9199
-50.2373
-49.5518
-48.5693
-46.4505
-41.866
-45.0878
-48.0115
-41.5921
-50.3453
-50.5106
-46.5494
-48.7349
-42.4945
-44.971
-42.4017
-42.4784
-49.6875
-25.9656
-10.7456
-11.3896
-51.0402
-51.5217
-53.9523
-38.0036
-60.6567
-63.85
-75.2717
-69.6973
-56.7389
-56.5726
-62.9155
-70.2912
-83.6377
67.5117
-81.5686
55.4413
-125.783
-127.531
145.183
127.645
-129.515
-89.4967
-128.009
-90.8742
-102.061
-102.349
101.79
93.5082
-74.2217
-72.176
-51.2495
-55.9828
-68.133
-57.4005
-67.2304
-59.8511
-48.504
-44.4604
-46.2682
-42.5761
-50.8232
-50.1804
-44.0411
-42.9542
-51.1957
-47.9499
-53.5038
-48.609
-53.8531
-53.67
-48.0464
-47.8338
-55.9456
-55.1305
-49.9382
-50.4094
-53.4587
-55.7243
-52.1122
-53.8335
-35.3323
-47.3894
-37.6434
-24.4645
-34.9106
-36.269
29.7463
36.3885
-72.1311
-52.1874
-55.5493
-29.9117
-59.5032
-70.7225
-40.3185
-29.7255
-41.9996
-38.2612
-42.0164
-38.2895
-41.731
-41.7459
-39.8069
-39.7848
-51.5571
-46.6957
-56.102
-54.9378
-56.3495
-56.6868
-50.844
-46.9154
-75.4091
83.8191
-69.125
68.069
-120.32
-121.033
137.217
147.977
-74.1304
-72.0401
-51.2164
-55.8962
-68.0849
-57.3712
-67.2149
-59.8193
-48.2198
-44.4844
-46.2236
-42.6463
-49.7581
-50.5377
-44.0588
-42.9978
-55.1569
-55.1154
-49.5771
-50.4868
-52.8148
-55.0124
-52.1983
-53.9189
-75.4031
-50.0875
-55.209
-28.0772
-73.5305
-60.9863
-28.9237
-39.9709
-51.957
-46.8122
-56.4164
-55.2662
-57.018
-56.9179
-47.0362
-51.0548
-40.7037
-43.1389
-40.9515
-43.1509
-40.7774
-40.5345
-43.7753
-43.7998
-46.5991
-42.1974
-42.9816
-45.0502
-48.1188
-47.9734
-40.0231
-41.8905
-49.6667
-47.7577
-49.8177
-47.8659
-51.0949
-51.0025
-47.1363
-47.1815
-40.8426
-41.0701
-45.0883
-44.2413
-41.8113
-43.81
-43.4007
-43.5632
-47.9253
-49.7866
-47.9788
-49.8619
-47.4104
-47.3829
-51.6393
-51.6604
-62.5366
-96.2902
-63.3607
-77.2007
-57.5749
-57.5265
-94.5716
-106.438
13.6389
23.8139
13.6273
24.3257
10.6029
10.2879
29.1718
29.1829
-95.5949
-78.7994
-96.2844
-79.1068
-104.053
-104.2
-71.7538
-71.8838
-40.6001
-43.1388
-40.9182
-43.171
-40.5945
-40.3402
-43.8007
-43.8233
-46.6945
-42.8351
-42.5412
-45.2309
-47.6226
-48.7165
-41.4919
-41.8006
-40.7404
-40.8202
-45.1337
-44.276
-43.8065
-41.7301
-42.9773
-43.2803
-63.7844
-92.8747
-64.0308
-78.9143
-58.5071
-58.5604
-106.756
-84.4496
-77.6327
-77.1025
-70.3909
-60.2354
-61.2251
-69.7835
-58.4267
-58.9061
-79.0015
-78.8836
-71.1044
-60.6671
-70.9329
-61.3985
-59.2874
-58.6305
-71.7992
-71.8497
-67.6725
-61.0153
-67.762
-61.0957
-58.3825
-58.3331
-27.084
-26.8228
-25.1679
-16.5667
-16.7822
-25.2421