# vtk DataFile Version 2.0
tet_velo
ASCII
DATASET UNSTRUCTURED_GRID
POINTS 29498 float
-0.755 0.255 -2.10843
-0.775 0.375 2.19076
-0.765 0.545 -2.12578
-0.685 1.025 2.15457
0.755 0.255 -2.10852
0.775 0.375 2.19067
0.765 0.545 -2.12592
0.685 1.025 2.1546
-0.840298 0.216368 -0.675367
-0.849535 0.253798 0.757697
-0.867778 0.834445 -0.698997
-0.815388 0.968721 0.727787
0.840311 0.216356 -0.675457
0.849564 0.253769 0.757607
0.867819 0.834486 -0.69908
0.815389 0.968722 0.72776
-1.58358 -0.125716 -3.2401
-1.58983 -0.0390602 -2.09615
-1.64521 -0.0572567 -0.662931
-1.64574 -0.0546178 0.771543
-1.59066 0.0314684 2.20487
-1.57826 0.112392 3.34934
-1.5875 0.191202 4.49284
-1.58152 0.112743 -3.25103
-1.58821 0.23504 -2.10776
-1.66038 0.24899 -0.675765
-1.64209 0.272388 0.756792
-1.55514 0.362152 2.18891
-1.55637 0.442072 3.33329
-1.57767 0.519125 4.47701
-1.58699 0.52299 -3.27114
-1.59913 0.641423 -2.12761
-1.676 0.847434 -0.699886
-1.61851 0.95901 0.727382
-1.4996 1.02745 2.15522
-1.52799 1.1025 3.29988
-1.56911 1.17799 4.44462
-1.60347 1.32577 -3.30601
-1.61475 1.47103 -2.16342
-1.64225 1.70748 -0.737718
-1.63894 1.90237 0.686634
-1.60902 2.02123 2.11241
-1.5995 2.09319 3.25513
-1.60699 2.16239 4.39918
-0.779372 -0.1157 -3.24055
-0.766917 -0.0236973 -2.09678
-0.81883 -0.0721885 -0.66289
-0.838144 -0.069938 0.772302
-0.805187 0.0336458 2.20622
-0.798629 0.113751 3.35025
-0.806355 0.190637 4.49336
-0.779841 0.111526 -3.25121
-0.788016 0.445275 3.33405
-0.80263 0.51934 4.4774
-0.783354 0.483198 -3.27041
-0.765243 1.10293 3.29975
-0.799538 1.17833 4.44458
-0.789531 1.29757 -3.30529
-0.793562 1.44393 -2.16262
-0.822312 1.69961 -0.737243
-0.837093 1.90788 0.686548
-0.826308 2.0264 2.11195
-0.821297 2.0962 3.25468
-0.827119 2.16425 4.39884
0.794027 -0.115698 -3.24064
0.802967 -0.0236982 -2.09687
0.842984 -0.072199 -0.662977
0.833095 -0.0699586 0.772218
0.781235 0.0336383 2.20614
0.761555 0.113746 3.35019
0.755026 0.190632 4.49331
0.777041 0.111529 -3.2513
0.743693 0.445271 3.334
0.743638 0.519335 4.47735
0.780837 0.483203 -3.27053
0.711982 1.10293 3.29973
0.727561 1.17832 4.44454
0.825759 1.29758 -3.30538
0.835411 1.44394 -2.16271
0.823432 1.69962 -0.737315
0.77783 1.90788 0.6865
0.73669 2.0264 2.11192
0.72764 2.0962 3.25465
0.727867 2.16425 4.39881
1.59431 -0.12571 -3.24028
1.60715 -0.0390572 -2.09633
1.66052 -0.0572678 -0.663096
1.65332 -0.0546466 0.771393
1.58812 0.0314498 2.20473
1.55595 0.112379 3.34922
1.54575 0.19119 4.49274
1.57694 0.112751 -3.25122
1.58246 0.23505 -2.10795
1.66074 0.248988 -0.675929
1.65348 0.272358 0.756654
1.56697 0.362137 2.18879
1.53363 0.442061 3.33319
1.53042 0.519115 4.47691
1.58206 0.523003 -3.27134
1.59304 0.641444 -2.12782
1.67355 0.847468 -0.700042
1.62457 0.959004 0.727295
1.50518 1.02744 2.15519
1.49469 1.10249 3.29983
1.50853 1.17799 4.44455
1.63229 1.32579 -3.30619
1.64446 1.47105 -2.1636
1.64035 1.7075 -0.73786
1.59155 1.90238 0.686533
1.53522 2.02123 2.11233
1.51646 2.09319 3.25506
1.51451 2.16238 4.3991
-0.773173 0.4 -2.13028
0 0.236926 -2.12655
-0.81176 0.221573 -1.3919
-0.74373 0.7 2.1864
0 0.335511 2.2302
-0.83301 0.293657 1.47423
0 0.644973 -2.22582
-0.866777 0.740111 -1.41239
0 1.0873 2.21688
-0.779179 1.02585 1.44118
0.773249 0.4 -2.13047
0.811793 0.221541 -1.39199
0.743361 0.7 2.186
0.856052 0.270614 1.47414
0.866746 0.74008 -1.4125
0.779199 1.02587 1.44118
-0.84824 0.23176 0.041165
-0.887233 0.525407 -0.687182
6.36417e-06 0.1605 -0.675412
-0.892622 0.61126 0.742742
1.44959e-05 0.168048 0.757652
-0.847532 0.907532 0.014395
2.05044e-05 1.16329 -0.699039
3.5298e-07 1.46775 0.727773
0.848251 0.231749 0.041075
0.88728 0.525421 -0.687269
0.892583 0.611245 0.742683
0.847568 0.907568 0.0143399
-0.888867 0.462703 -1.40214
-0.895908 0.568333 0.02778
-0.89547 0.65563 1.4577
3.18209e-06 0.211859 -1.39194
1.043e-05 0.168742 0.04112
7.24794e-06 0.275887 1.47418
0 0.4 -2.22383
0 0.7 2.2692
1.02522e-05 0.908526 -1.41244
1.04287e-05 1.44359 0.0143675
1.7649e-07 1.30779 1.44118
0.897567 0.46271 -1.40224
0.895944 0.568333 0.0277075
0.895472 0.655623 1.45766
-1.1716 0.24502 -2.1081
-0.760958 0.115651 -2.10261
-0.76742 0.183263 -2.67982
-1.16507 0.368576 2.18984
-0.790094 0.204323 2.19849
-0.781508 0.410137 2.76241
-1.18206 0.593212 -2.12669
-0.774177 0.514099 -2.6981
-0.779281 0.994465 -2.1442
-1.0923 1.02622 2.1549
-0.725121 1.06397 2.72716
-0.755654 1.5257 2.13326
0.778984 0.115651 -2.1027
0.76602 0.183264 -2.67991
1.16873 0.245025 -2.10823
0.778118 0.204319 2.19841
0.759347 0.410135 2.76233
1.17098 0.368568 2.18973
0.772918 0.514102 -2.69822
0.800205 0.994471 -2.14432
1.17902 0.593222 -2.12687
0.698491 1.06396 2.72716
0.710845 1.5257 2.13326
1.09509 1.02622 2.15489
-1.25034 0.232679 -0.675566
-0.829564 0.0720899 -0.669129
-1.24581 0.263093 0.757244
-0.84384 0.09193 0.764999
-1.27189 0.840939 -0.699442
-0.845045 1.26703 -0.71812
-1.21695 0.963865 0.727584
-0.826241 1.4383 0.707167
0.841647 0.0720783 -0.669217
1.25053 0.232672 -0.675693
0.84133 0.0919052 0.764912
1.25152 0.263063 0.757131
0.845626 1.26705 -0.718198
1.27068 0.840977 -0.699561
0.796609 1.4383 0.70713
1.21998 0.963863 0.727527
-1.5867 -0.082388 -2.66813
-1.58255 -0.00648649 -3.24557
-1.18148 -0.120708 -3.24033
-1.61752 -0.0481585 -1.37954
-1.58902 0.0979898 -2.10196
-1.17837 -0.0313788 -2.09647
-1.64548 -0.0559373 0.0543057
-1.65279 0.0958668 -0.669348
-1.23202 -0.0647226 -0.662911
-1.6182 -0.0115747 1.48821
-1.64392 0.108885 0.764167
-1.24194 -0.0622779 0.771922
-1.58446 0.07193 2.7771
-1.5729 0.19681 2.19689
-1.19792 0.0325571 2.20555
-1.58288 0.151797 3.92109
-1.56732 0.277232 3.34131
-1.18845 0.113071 3.34979
-1.58258 0.355163 4.48493
-1.19693 0.190919 4.4931
-1.58486 0.173891 -2.6794
-1.58426 0.317866 -3.26109
-1.18068 0.112134 -3.25112
-1.62429 0.242015 -1.39177
-1.59367 0.438232 -2.11769
-1.65123 0.260689 0.0405133
-1.66819 0.548212 -0.687826
-1.59862 0.31727 1.47285
-1.6303 0.615699 0.742087
-1.55576 0.402112 2.7611
-1.52737 0.694799 2.17207
-1.56702 0.480598 3.90515
-1.54218 0.772286 3.31659
-1.17219 0.443673 3.33367
-1.57339 0.84856 4.46082
-1.19015 0.519233 4.4772
-1.59306 0.582206 -2.69937
-1.59523 0.924379 -3.28857
-1.18517 0.503094 -3.27078
-1.63756 0.744428 -1.41375
-1.60694 1.05623 -2.14552
-1.64726 0.903222 0.0137478
-1.65912 1.27745 -0.718802
-1.55906 0.993227 1.4413
-1.62873 1.43069 0.707008
-1.51379 1.06497 2.72755
-1.55431 1.52434 2.13382
-1.54855 1.14025 3.87225
-1.56374 1.59784 3.27751
-1.14662 1.10272 3.29982
-1.58805 1.67019 4.4219
-1.18432 1.17816 4.4446
-1.60911 1.3984 -2.73472
-1.1965 1.31167 -3.30565
-1.6285 1.58925 -1.45057
-1.20416 1.45748 -2.16302
-1.64059 1.80492 -0.025542
-1.23228 1.70354 -0.73748
-1.62398 1.9618 1.39952
-1.23802 1.90512 0.686591
-1.60426 2.05721 2.68377
-1.21766 2.02381 2.11218
-1.60325 2.12779 3.82716
-1.2104 2.09469 3.25491
-1.21706 2.16332 4.39901
-0.773144 -0.0696986 -2.66867
-0.779607 -0.00208697 -3.24588
0.00732714 -0.115699 -3.2406
-0.792873 -0.0479429 -1.37984
0.0180253 -0.0236978 -2.09683
-0.828487 -0.0710632 0.0547058
0.0120769 -0.0721937 -0.662934
-0.821666 -0.0181461 1.48926
-0.0025246 -0.0699483 0.77226
-0.801908 0.0736985 2.77824
-0.011976 0.033642 2.20618
-0.802492 0.152194 3.92181
-0.793322 0.279513 3.34215
-0.0185367 0.113748 3.35022
-0.804492 0.354988 4.48538
-0.0256647 0.190634 4.49334
-0.781598 0.297362 -3.26081
-0.00139989 0.111527 -3.25125
-0.795323 0.482307 3.90572
-0.776629 0.774103 3.3169
-0.0221613 0.445273 3.33402
-0.801084 0.848833 4.46099
-0.0294959 0.519338 4.47737
-0.786443 0.890383 -3.28785
-0.00125879 0.483201 -3.27047
-0.78239 1.14063 3.87216
-0.79327 1.59957 3.27721
-0.0266305 1.10293 3.29974
-0.813329 1.67129 4.42171
-0.0359885 1.17832 4.44456
-0.791546 1.37075 -2.73396
0.0181141 1.29757 -3.30534
-0.807937 1.57177 -1.44993
0.0209244 1.44394 -2.16267
-0.829703 1.80374 -0.0253476
0.00055995 1.69962 -0.737279
-0.831701 1.96714 1.39925
-0.0296319 1.90788 0.686524
-0.823803 2.0613 2.68332
-0.0448092 2.0264 2.11194
-0.824208 2.13023 3.82676
-0.0468286 2.0962 3.25466
-0.0496262 2.16425 4.39882
0.798497 -0.069698 -2.66876
0.785534 -0.00208459 -3.24597
1.19417 -0.120704 -3.24046
0.822975 -0.0479486 -1.37992
1.20506 -0.0313777 -2.0966
0.838039 -0.0710788 0.0546203
1.25175 -0.0647334 -0.663036
0.807165 -0.0181602 1.48918
1.24321 -0.0623026 0.771805
0.771395 0.073692 2.77816
1.18468 0.032544 2.20544
0.758291 0.152189 3.92175
0.752624 0.279508 3.34209
1.15875 0.113062 3.3497
0.749332 0.354983 4.48533
1.15039 0.190911 4.49302
0.778939 0.297366 -3.26091
1.17699 0.11214 -3.25126
0.743665 0.482303 3.90567
0.727837 0.7741 3.31686
1.13866 0.443666 3.33359
0.7356 0.848829 4.46095
1.13703 0.519225 4.47713
0.803298 0.89039 -3.28795
1.18145 0.503103 -3.27093
0.719772 1.14063 3.87214
0.719811 1.59956 3.27719
1.10333 1.10271 3.29978
0.727714 1.67129 4.42167
1.11805 1.17815 4.44454
0.830585 1.37076 -2.73405
1.22903 1.31168 -3.30579
0.829421 1.57178 -1.45001
1.23994 1.4575 -2.16315
0.800631 1.80375 -0.0254073
1.23189 1.70356 -0.737587
0.75726 1.96714 1.39921
1.18469 1.90513 0.686516
0.732165 2.0613 2.68328
1.13595 2.02381 2.11213
0.727754 2.13022 3.82673
1.12205 2.09469 3.25486
1.12119 2.16332 4.39895
1.60073 -0.0823835 -2.66831
1.58562 -0.00647934 -3.24575
1.63384 -0.0481625 -1.37971
1.59481 0.0979963 -2.10214
1.65692 -0.0559572 0.0541486
1.66063 0.0958599 -0.669512
1.62072 -0.0115984 1.48806
1.6534 0.108856 0.764024
1.57204 0.0719143 2.77698
1.57755 0.196793 2.19676
1.55085 0.151785 3.92098
1.54479 0.27722 3.34121
1.53809 0.355153 4.48482
1.5797 0.1739 -2.67958
1.5795 0.317877 -3.26128
1.6216 0.242019 -1.39194
1.58775 0.438247 -2.11788
1.65711 0.260673 0.0403627
1.66714 0.548228 -0.687986
1.61023 0.317247 1.47272
1.63902 0.615681 0.741974
1.5503 0.402099 2.76099
1.53607 0.694786 2.17199
1.53203 0.480588 3.90505
1.51416 0.772277 3.31651
1.51948 0.848551 4.46073
1.58755 0.582223 -2.69958
1.60718 0.924395 -3.28877
1.63329 0.744456 -1.41393
1.61875 1.05625 -2.14571
1.64906 0.903236 0.0136261
1.65695 1.27748 -0.718951
1.56487 0.99322 1.44124
1.60806 1.43069 0.706914
[...]
POINT_DATA 29498
VECTORS point_vectors float
-0.96919 -2.12287 3.51112
0.0703751 0.0716882 0.14963
-2.68607 0.675451 4.15614
-0.0791843 -0.1877 0.186128
0.965085 -2.12941 3.51333
-0.0697931 0.0729591 0.148863
2.66884 0.671977 4.12563
0.0783169 -0.189099 0.188857
0.1148 -0.0990285 3.36978
0.015782 -0.0114275 0.831103
-0.0393915 -0.0367363 0.470053
0 0 0
-0.122643 -0.106601 3.36978
-0.0343113 -0.031843 0.799757
0.0404919 -0.0353399 0.490375
0 0 0
-0.573725 -0.268711 19.8837
-1.22272 -0.645827 20.5159
-0.461155 -0.493378 21.3559
0.118147 -0.241905 21.6346
0.744656 0.0151609 21.5074
1.02555 0.118828 21.2319
1.03816 -0.198701 20.9793
-0.628135 -0.202808 19.8243
-1.50975 -0.544709 20.4413
-0.621291 -0.555947 21.3931
0.0799372 -0.359494 21.6815
0.851595 -0.249126 21.6123
1.24439 -0.303908 21.2145
1.21231 -0.363049 21.2369
-0.653516 -0.056449 19.7538
-1.66012 -0.134916 20.3087
-1.19965 -0.397097 21.3346
-0.345371 -0.454629 21.7346
0.426972 -0.664616 21.6015
0.818751 -0.784498 21.2447
0.633509 -0.378859 21.4744
-0.506915 0.22232 19.8321
-1.05778 0.491557 20.1846
-1.13813 0.352953 21.0689
-0.470157 -0.0117711 21.5314
-0.00405274 -0.301936 21.5056
0.219757 -0.429627 21.3836
0.255783 -0.466647 20.6746
-0.598548 -0.57347 19.3105
-2.2013 -3.49999 20.9688
-0.208073 -0.424119 21.2082
0.412409 0.0746432 20.3211
1.21914 1.23333 18.4292
1.80123 1.62318 17.2162
1.8755 1.18762 17.2028
-0.661567 -0.448429 19.1288
2.15263 0.79223 12.4212
2.34508 1.00645 14.2963
-0.732728 -0.102048 18.9513
1.078 -1.10098 10.622
1.1938 -1.31435 15.8389
-0.503731 0.474509 19.3293
-1.43517 1.78994 19.5797
-2.06822 1.93393 20.8875
-0.723242 0.391956 22.0465
-0.147177 -0.316616 21.5348
0.0250138 -0.55479 21.2077
-0.0361997 -0.465299 21.2532
0.597396 -0.560615 19.3222
2.25685 -3.33072 20.9111
0.207328 -0.418765 21.2724
-0.455917 0.125782 20.2965
-1.14371 1.28807 18.114
-1.75325 1.73098 16.9807
-1.85741 1.2538 16.6454
0.661773 -0.448053 19.1211
-2.11832 0.946325 11.3702
-2.40561 1.1387 13.6583
0.734549 -0.101962 18.946
-0.801793 -1.03832 8.49133
-1.22806 -1.06442 15.0505
0.508065 0.459511 19.3492
1.45892 1.70093 19.6184
2.08497 1.92726 20.888
0.718221 0.456584 22.0894
0.174429 -0.291545 21.5715
0.01536 -0.554042 21.3439
0.012974 -0.518909 20.2915
0.568605 -0.263843 19.8928
1.20302 -0.63933 20.5214
0.453126 -0.485946 21.3477
-0.113404 -0.243953 21.6238
-0.746275 0.0151203 21.5132
-1.05121 0.111628 21.2523
-1.08137 -0.201563 20.9349
0.629553 -0.208824 19.8196
1.52534 -0.555 20.4376
0.618008 -0.556084 21.396
-0.0709153 -0.356541 21.6744
-0.84011 -0.249803 21.6212
-1.26864 -0.304851 21.2367
-1.27108 -0.372511 21.2569
0.657276 -0.0577539 19.7589
1.67748 -0.130975 20.3099
1.20089 -0.400716 21.3396
0.345091 -0.45143 21.7322
-0.429761 -0.653024 21.6044
-0.821406 -0.789199 21.2974
-0.672778 -0.425367 21.3593
0.505854 0.214498 19.846
1.04467 0.46904 20.2023
1.13926 0.353664 21.0698
0.491903 -0.0103233 21.551
0.0153134 -0.316739 21.4797
-0.220728 -0.445501 21.416
-0.239589 -0.546624 20.6868
-1.16285 -0.325773 1.31685
0 0 0
-0.00325132 -0.0213071 0.611594
-0.00935829 -0.0179023 0.0115967
-0.000112182 0.014566 0.0345381
0.0194054 0.0102479 0.343823
7.76587e-05 0.453275 0.492069
-0.0852423 -0.0601563 0.358164
0.00930754 0.421943 -0.534467
0 0 0
1.18719 -0.335133 1.34503
0.00811934 -0.0144965 0.58697
0.0220905 -0.020605 -0.0132098
-0.0655147 0.0148298 1.30532
0.0865867 -0.0626108 0.356338
0 0 0
0.0805282 0.0995683 2.22854
0 0 0
-1.30427e-05 -0.000886386 0.137945
0.000449453 0.00709978 0.0510656
-0.00266434 0.0032463 0.168953
0.00109587 0.0024713 0.0128243
-2.06304e-05 0.0102614 0.0198785
-8.17851e-06 -0.000546951 0.0380363
-0.0843789 0.0968926 2.23082
0 0 0
-0.00043006 0.00730461 0.0495234
-0.00105788 0.00238604 0.0123716
-0.00773088 -0.0122902 0.252354
-0.000138973 0.0071036 0.0595333
0.00611424 0.0120342 0.187512
0 0 0
1.57729e-05 4.8006e-06 0.00718803
0 0 0
0 0 0
0 0 0
2.46686e-05 0.000995757 0.00625805
-1.52714e-06 0.00416642 0.0341243
3.23719e-05 0.00310769 -0.00659782
0.0049595 -0.0281408 0.654822
0.000137083 0.00709503 0.0587696
-0.00601797 0.0125183 0.182619
-2.90234 -1.34837 20.3517
-3.44547 -5.31579 21.2884
-1.94547 -1.44927 18.0023
1.54626 -0.0490829 19.9621
1.02446 1.20771 11.6101
1.451 0.549861 7.85592
-3.45464 -0.0873718 19.9074
-2.32754 -0.113983 17.3938
-3.29529 2.96601 18.885
0.592027 -0.748342 18.3897
-0.373169 -0.76196 4.16401
0.000420029 -0.466604 17.9833
3.47009 -5.10975 21.1301
1.94678 -1.45074 17.9944
2.92379 -1.36806 20.3387
-0.939319 1.26841 11.1
-1.3567 0.599733 7.05907
-1.53871 -0.057874 20.0171
2.32811 -0.11299 17.3834
3.29182 2.80438 18.9359
3.49073 -0.0838193 19.8926
0.501869 -0.719252 3.43652
-0.024323 -0.434488 16.8105
-0.59313 -0.75145 18.4787
-0.501751 -0.943305 21.7577
0.163294 -0.155374 15.8981
0.296973 -0.445878 21.3634
0.507066 -0.181578 13.9112
-1.98626 -0.924173 21.685
-4.63747 1.74148 20.9368
-0.517797 -0.81457 21.3249
-0.806779 0.134802 19.2868
-0.142917 -0.158039 16.2854
0.493822 -0.93951 21.7588
-0.73564 -0.164308 13.8922
-0.285307 -0.454805 21.4131
4.63721 1.73159 20.9362
1.98408 -0.932938 21.6832
0.591251 0.281775 17.6546
0.519551 -0.80377 21.3336
-0.962711 -0.481667 20.0286
-0.61399 -0.238708 19.8651
-0.645286 -0.416294 19.6005
-0.897578 -0.61764 21.1038
-1.33901 -0.602906 20.4764
-1.81967 -1.4434 20.5422
-0.160065 -0.374136 21.5275
-0.541309 -0.500233 21.3642
-0.338158 -0.631266 21.5957
0.443316 -0.0996169 21.6549
0.0972245 -0.280888 21.6339
0.299311 -0.182241 21.7982
0.940789 0.0546557 21.3546
0.849051 -0.10705 21.5745
1.21429 0.363302 21.4264
1.13875 -0.054027 20.7012
1.16988 0.0154954 21.1685
1.5196 0.465545 21.3748
1.18235 -0.307016 21.0963
1.38717 0.274075 21.3084
-1.09455 -0.36715 19.9189
-0.644952 -0.119955 19.7526
-0.708627 -0.35122 19.5117
-1.14191 -0.6224 21.1171
-1.64105 -0.322299 20.3668
-0.262047 -0.47558 21.5758
-0.901123 -0.544139 21.3694
0.462612 -0.301744 21.7408
-0.098316 -0.489097 21.7435
1.07238 -0.262331 21.4595
0.736567 -0.538888 21.6804
1.18335 -0.167977 21.2431
1.03808 -0.460122 21.3641
1.86526 -0.0365331 19.8719
0.942607 -0.447613 21.337
1.81959 0.0738844 18.3674
-1.16178 -0.0814626 19.8173
-0.62778 0.104566 19.7706
-0.783439 -0.0727404 19.3795
-1.55923 -0.25669 20.9606
-1.48413 0.300981 20.1947
-0.804028 -0.446718 21.638
-1.35624 0.0388964 21.1951
0.0671912 -0.51877 21.7451
-0.502356 -0.190647 21.664
0.616914 -0.703821 21.427
0.100639 -0.478429 21.4892
0.670913 -0.587266 21.3436
0.391177 -0.599434 21.2563
1.01615 -0.952271 19.7891
0.362118 -0.436108 21.2818
1.215 -1.17103 19.1237
-0.781311 0.363272 19.9221
-0.549676 0.314297 19.5897
-1.1827 0.480242 20.6307
-1.39258 0.961509 19.9375
-0.85321 0.184373 21.4166
-1.64532 0.84496 21.0823
-0.192387 -0.181968 21.4999
-0.634984 0.1242 21.7689
0.112358 -0.412489 21.2846
-0.0908364 -0.357924 21.5007
0.25153 -0.549442 20.8038
0.149491 -0.451677 21.0648
0.023635 -0.383701 21.7377
-1.40334 -1.67342 18.9629
-0.630057 -0.510949 19.2196
0.00333875 -0.802964 18.9092
-0.756185 -1.17251 21.7573
0.024277 -4.94933 22.1735
0.0859148 -0.118674 20.5177
0.0132078 -0.503164 18.0566
0.907563 0.707528 18.8694
-0.022712 0.21132 16.1181
1.50409 1.4225 18.2887
0.0173924 0.965206 13.447
1.56059 1.16365 17.0825
2.15897 1.70275 15.3116
0.0123121 2.10718 14.0508
2.07935 1.22879 15.4032
0.138784 2.14087 15.3012
-0.739181 -0.283167 18.9623
-0.0021184 -0.650109 18.6141
2.31316 0.750686 13.8292
2.08672 -0.96158 6.8668
0.0147273 0.962379 2.53074
1.97035 -0.213251 14.8869
0.169893 2.16 9.33317
-0.649049 0.254182 19.0516
-0.00136049 -0.141855 18.2902
1.21217 -1.01985 12.5458
0.218355 -0.95383 19.5151
-0.0552336 1.6806 -5.94293
0.125093 -1.00356 17.6665
-0.0105365 1.48503 0.000983053
-0.948871 1.07123 19.173
0.0138855 0.621721 19.0512
-1.72144 1.85248 20.2264
0.054911 2.8446 19.1561
-1.60755 1.29355 22.005
0.00150297 4.17291 20.1935
-0.305077 -0.103081 21.7792
-0.0496521 1.03477 22.5078
-0.0513244 -0.45372 21.4641
-0.0329125 -0.0155848 21.8083
-0.00485877 -0.618472 21.4062
0.019881 -0.422054 21.7191
0.00345717 -0.236544 22.2442
1.40943 -1.62042 19
0.629584 -0.504334 19.2216
0.63753 -0.409376 19.6074
0.786288 -1.17343 21.8626
1.77622 -1.37199 20.5252
-0.0879979 -0.111302 20.5576
0.343112 -0.622606 21.5816
-0.883311 0.683698 18.8037
-0.297073 -0.188416 21.7809
-1.40966 1.48885 17.8239
-1.23694 0.38546 21.3969
-1.50595 1.31147 16.9522
-2.14059 1.86154 14.4149
-1.56814 0.551661 21.3855
-2.14133 1.35491 14.8156
-1.45893 0.395995 20.8122
0.74367 -0.283304 18.9556
0.711737 -0.355689 19.5057
-2.35334 1.02606 12.7714
-2.01241 -0.794876 5.70899
-1.98883 0.0123928 19.2917
-1.99255 0.0101487 14.1564
-1.88243 0.204211 17.7872
0.651952 0.247766 19.0707
0.786284 -0.0731541 19.3788
-1.11916 -0.990698 10.4046
-0.122166 -0.971303 18.2159
-1.06858 -0.995105 19.1363
-0.111015 -1.10253 17.0106
-1.21855 -1.24728 18.6192
0.965493 1.02777 19.2113
0.55147 0.303238 19.6097
1.73053 1.7939 20.2486
1.36372 0.908583 19.9656
1.62671 1.37928 22.0335
1.64419 0.845139 21.0814
0.313335 -0.0776666 21.7973
0.6516 0.150526 21.8025
0.0817272 -0.433215 21.5071
0.0925736 -0.343296 21.5283
0.0153439 -0.620071 21.4795
-0.153194 -0.527946 21.1511
0.00665928 -0.42863 21.9158
0.952905 -0.477033 20.0371
0.612236 -0.239152 19.8674
0.889863 -0.608588 21.0976
1.3295 -0.6044 20.4817
0.157594 -0.373648 21.5237
0.53653 -0.498559 21.3636
-0.436072 -0.103045 21.6593
-0.0902067 -0.283105 21.6267
-0.956416 0.0593488 21.3676
-0.844538 -0.109688 21.582
-1.18256 -0.0532576 20.6822
-1.18357 0.00971293 21.1947
-1.23186 -0.307499 21.0515
1.10136 -0.374865 19.9128
0.649204 -0.128231 19.7472
1.14698 -0.629041 21.1262
1.65941 -0.328762 20.3688
0.261113 -0.473273 21.5718
0.900172 -0.546979 21.3768
-0.447551 -0.302608 21.7362
0.101829 -0.486737 21.7359
-1.08504 -0.256435 21.4709
-0.725935 -0.529724 21.696
-1.23193 -0.175639 21.2065
-1.09096 -0.494074 21.4055
-0.953763 -0.466311 21.3132
1.17234 -0.0796306 19.815
0.623579 0.105179 19.7822
1.56837 -0.258014 20.9724
1.46919 0.29481 20.205
0.801428 -0.446178 21.6377
1.3602 0.0377256 21.1952
-0.0657804 -0.512189 21.7381
0.512632 -0.201753 21.6837
-0.637248 -0.730115 21.4401
-0.114778 -0.502509 21.4874
-0.650181 -0.59539 21.3988
-0.370828 -0.609624 21.3192
-0.347734 -0.484177 21.3066
0.767787 0.347792 19.9435
1.17239 0.472062 20.633
0.875206 0.191526 21.4283
0.209376 -0.18519 21.521
-0.118588 -0.428692 21.3313
-0.229786 -0.637558 20.8032
-1.02434 -0.438058 19.9946
-1.66973 -1.65505 18.5397
-1.29264 -0.916275 19.6308
-1.55828 -0.727951 19.365
-0.676957 -0.383757 19.5561
-2.33017 -1.51984 20.4746
-0.986561 -0.614691 21.1016
-0.283 -0.676457 16.843
-0.937378 -1.0086 21.4651
-1.36015 -1.19248 21.6518
-0.378238 -0.766655 21.6731
-0.204502 -0.405009 21.5445
0.294732 0.00395219 14.7862
-0.00448941 -0.392834 21.704
-0.0406444 -0.694725 21.6449
0.336171 -0.321678 21.728
0.463678 -0.182555 21.6902
1.02672 0.472983 11.9047
0.772036 0.0843866 21.7279
0.861016 -0.274147 20.9005
1.44937 0.192677 20.9774
1.03403 -0.0997076 21.48
1.65034 1.33649 13.3542
1.4835 0.457408 21.1681
1.80548 -0.0752182 20.3208
1.68364 0.333471 20.215
1.16755 -0.120137 20.9619
1.99242 1.01702 14.8804
1.76142 0.350181 20.8388
1.96095 -0.129754 19.9438
1.55164 0.2926 19.4881
-1.14569 -0.217228 19.828
-2.24426 -0.851405 17.5706
-1.77692 -0.0882052 19.121
-0.767552 -0.198346 19.3916
-3.37865 -0.813643 20.1079
-1.3723 -0.465734 21.047
-2.51521 -0.609566 21.3029
-1.1082 -1.22721 21.8096
-0.494326 -0.551942 21.6119
-1.21358 -0.960015 21.748
0.0719534 -0.694015 20.7253
0.313378 -0.457053 21.7948
0.140191 -0.606181 20.1527
1.19193 -0.411601 17.8534
0.936556 -0.551651 21.5838
0.28432 -0.922957 3.63603
0.705212 -0.979151 19.7012
1.53911 -0.716175 18.2774
0.901784 -0.521194 21.3824
2.15763 0.131979 10.4868
1.19737 -1.0936 20.159
1.49302 -1.19418 18.9872
-1.05719 0.229889 19.8422
-1.62081 1.04991 18.3108
-0.946877 0.631082 19.6204
-0.701917 0.202331 19.4565
-2.33864 0.909026 19.7982
-1.51521 0.194643 20.7589
-3.29293 1.99879 20.4302
-1.58272 0.959249 20.5077
-2.32374 0.258911 21.3278
-0.958443 -0.0941491 21.5641
-2.90517 0.113806 21.2759
-1.22813 0.52467 21.6491
-0.795948 -0.21963 22.0274
-0.128164 -0.34278 21.6455
0.0597391 -0.217932 18.4039
-0.26811 -0.176387 21.6685
-0.0402486 -0.656258 21.6685
0.265376 -0.588175 21.3865
0.018301 -0.694849 19.2267
0.0211515 -0.434991 21.4037
0.262492 -0.842462 21.4156
0.418757 -0.681456 21.0656
0.199553 -1.02402 19.2482
0.015336 -0.416993 21.8987
0.189812 -0.554062 20.743
1.67121 -1.62131 18.5789
0.0262178 -2.78757 18.063
-0.00319669 -2.65667 16.0837
0.00385656 -0.763988 18.7591
0.020338 -4.39204 18.4603
0.336845 -0.692301 17.2796
0.00655366 -1.20502 19.9307
0.0148075 -0.144818 9.22065
-0.303528 0.00469595 14.9614
0.0115553 -0.164947 16.647
-0.0916865 0.152803 8.28535
-0.890967 0.45996 11.9873
-0.00683799 0.690366 14.3279
0.00125631 0.632813 6.11796
-1.55705 1.43189 12.73
0.0126365 1.16824 13.3472
0.00929734 -0.184628 1.69452
0.0214231 2.12294 8.4605
-2.03617 1.276 13.9111
0.0797934 2.15628 13.1989
0.10561 2.1724 5.03
0.153113 2.12714 12.9065
2.24509 -0.851919 17.5598
-0.00304593 0.176593 14.8199
-0.00315294 -0.413569 18.385
-0.191314 -0.875778 3.17974
-0.0589649 1.02704 -5.04256
0.122101 1.28598 -1.90604
-2.05994 0.208002 8.61574
-0.196744 1.5828 -4.7125
0.152963 2.48682 -0.286029
1.62337 1.01306 18.3682
0.0323006 1.65316 18.643
0.00912404 0.41383 18.5668
0.0529354 5.84677 18.064
3.28243 1.94498 20.4489
0.0272577 3.04167 19.7612
-0.000696011 6.14837 16.8237
2.94183 0.118451 21.0111
-0.0437394 3.15621 22.5837
0.0073734 0.19444 8.80271
-0.229903 -0.123771 16.8316
-0.0397177 0.205555 21.9677
-0.0181429 0.151089 6.5232
0.022822 -0.66934 18.3329
-0.015066 -0.190058 21.8359
-0.0142955 -0.412515 10.3957
-0.190006 -1.09425 18.2502
-0.00615291 -0.496412 21.8247
0.0190972 -1.04838 15.4789
1.0159 -0.439061 19.9998
1.27751 -0.883997 19.6548
1.56459 -0.729697 19.3542
0.674634 -0.382532 19.5566
2.2984 -1.481 20.4645
0.981951 -0.613204 21.1017
0.945529 -0.985745 21.4423
1.35826 -1.19705 21.6802
0.381882 -0.760913 21.6646
0.201217 -0.403349 21.5434
0.00446416 -0.392818 21.696
0.0399485 -0.694367 21.659
-0.328892 -0.329684 21.7266
-0.451549 -0.185283 21.6886
-0.752951 0.0703277 21.7329
-0.820959 -0.273689 21.0488
-1.46116 0.19851 20.9287
-1.0516 -0.0943983 21.4899
-1.50746 0.507834 21.1389
-1.8267 -0.0500015 20.0197
-1.71446 0.457779 19.7892
-1.21164 -0.123982 20.9323
-1.74984 0.405216 20.8405
-2.07055 -0.105183 19.4627
-1.61667 0.418149 18.9526
1.15699 -0.221687 19.8241
1.78252 -0.0884265 19.1131
0.771161 -0.199969 19.39
3.41772 -0.821321 20.0923
1.37858 -0.469834 21.0616
2.53029 -0.612556 21.3326
1.09717 -1.23566 21.8073
0.493437 -0.550922 21.6134
1.21441 -0.960645 21.7545
-0.0625683 -0.710824 20.8171
-0.310709 -0.453396 21.7932
-0.131478 -0.612583 20.2321
-1.19168 -0.419594 17.9953
-0.96434 -0.56419 21.5699
-0.710418 -0.967224 19.2916
-1.60564 -0.742958 17.1454
-0.887178 -0.492035 21.4028
-1.28409 -1.21755 19.299
-1.58255 -1.04064 18.3757
1.04734 0.224853 19.8518
0.944361 0.599798 19.6461
0.698587 0.19504 19.4657
2.29883 0.873187 19.817
1.5086 0.191801 20.7624
1.56374 0.932059 20.5154
2.327 0.258179 21.3266
0.972173 -0.0982081 21.5708
1.25524 0.564211 21.671
0.824204 -0.216171 22.06
0.140036 -0.357615 21.6534
0.275045 -0.169015 21.6865
0.062562 -0.667381 21.6921
-0.279459 -0.612673 21.4088
-0.0130919 -0.444128 21.3974
-0.273878 -0.922965 21.4899
-0.504749 -0.745727 20.9204
-0.0187513 -0.505119 21.9933
-0.171422 -0.646257 20.0951
-1.42268 -0.854484 19.4981
-1.11393 -1.11426 21.5531
0.00878026 -0.527777 21.7342
0.874136 -0.0968901 21.4515
1.68683 0.256059 20.6981
2.08903 0.102935 19.9391
-1.75244 -0.401751 19.16
-1.94119 -1.09988 21.6227
-0.43653 -1.03474 21.4433
0.557475 -0.42212 19.6892
1.39147 -0.671013 18.8035
1.56494 -0.643415 19.4847
-1.43228 0.508294 19.2943
-2.37243 0.599381 20.7196
-1.62055 -0.0268203 21.949
-0.269256 -0.449102 21.8943
0.0981922 -0.750982 21.5203
0.607622 -0.872418 20.8007
0.019458 -2.9179 17.1644
0.0109057 -0.374085 9.1778
0.0108386 0.00437455 7.96969
0.0441569 0.418665 6.35556
0.0127379 0.653595 6.32595
0.0955738 2.11197 9.13721
-0.00306072 -1.44274 14.9925
-0.00411504 0.145403 -1.36976
0.196663 1.8449 0.783237
0.0313787 1.99177 16.9465
0.0255666 4.14384 19.3755
-0.0123444 0.855618 6.30873
-0.0190099 -0.0991155 7.43961
-0.0167872 0.138907 8.44691
-0.00131082 -0.693909 11.4814
1.41501 -0.841477 19.5093
1.11538 -1.0986 21.5466
-0.00612155 -0.528249 21.736
-0.841204 -0.100026 21.4782
-1.72857 0.297266 20.4924
-2.05416 0.136897 19.8121
1.76113 -0.402652 19.154
1.94368 -1.10574 21.6616
0.436426 -1.04178 21.4612
-0.54678 -0.429545 19.8063
-1.40801 -0.650286 18.3881
-1.64989 -0.538872 18.3546
1.41889 0.483492 19.3192
2.35388 0.58705 20.7234
1.65122 -0.0145954 21.9627
0.279457 -0.455211 21.9137
-0.0839379 -0.780663 21.5355
-0.487482 -1.02028 21.1186
-0.918643 -0.405013 1.27174
-0.0059177 -0.0213114 0.101567
-0.0030382 -0.00853143 0.294044
0.147421 -0.059492 0.299161
0 0 0
0.0496981 0.0671245 0.69854
-1.23227 -0.0159898 1.5703
-0.200629 0.437961 0.509305
-0.136803 -0.0144705 0.348536
0.0385552 -0.0992665 0.117856
-0.210562 0.105695 -0.236198
-0.00981745 -0.0282414 0.27796
0.00492361 -0.0172609 0.0816435
0.922274 -0.407642 1.27706
0.000850331 -0.0109168 0.305513
0.00152344 0.00455189 0.00748177
-0.14422 -0.05657 0.296611
-0.0549549 0.0645381 0.595942
0.202167 0.439804 0.511442
1.24134 -0.016216 1.5834
0.131447 -0.00643413 0.340847
0.215702 0.0985382 -0.223636
-0.0394486 -0.0988095 0.118419
0.0102099 -0.028567 0.279537
-0.0379636 0.0279372 1.31982
0.0826964 -0.0399252 3.26843
0.000772069 -0.00351294 0.119782
0 0 0
0.0884082 0.00371724 0.278246
-0.0277094 0.0297434 1.43296
3.81098e-05 0.00545567 0.0607893
0.0772883 0.00898591 0.680381
-0.118816 -0.194316 0.626625
-0.00104391 -1.39988e-05 0.0496429
0.00829224 0.0308469 0.303505
-0.0644875 0.0419314 0.106146
0 0 0
0.00102849 0.00555402 0.0323156
0 0 0
0.162555 0.0858231 0.944457
0.0406843 0.0282254 1.34712
0 0 0
-0.0879617 -0.0435941 3.27393
-0.000899562 -0.00355515 0.119142
-0.126907 0.0157702 0.737657
-0.0119538 0.00452594 0.2397
0.0196225 0.0208831 1.44161
-1.00792e-07 0.0057474 0.0586516
0.119569 -0.196748 0.621683
0.0648424 0.0416708 0.105748
0.00103812 6.3824e-05 0.049177
-0.00815216 0.0308408 0.304341
0 0 0
-0.163388 0.0863293 0.943411
-0.00103952 0.00568837 0.0321147
0 0 0
0 0 0
0 0 0
1.53662e-19 -6.24013e-19 1.79229e-17
0 0 0
-0.0082719 -0.00934072 0.210615
0.00476555 -0.00410231 0.0731825
-2.0382e-18 2.77061e-19 -2.26561e-17
0 0 0
0 0 0
0.000128998 -0.00861843 0.000122574
0.000715538 0.00126775 0.0397542
0.00214789 0.00174836 0.0509803
6.76451e-05 1.01139 1.01013
1.65509e-07 0.0132146 0.0601246
-0.00704956 -0.00844877 0.113545
-0.0106545 0.0063301 0.0405656
-2.14329e-07 4.25316e-06 -1.42054e-07
0 0 0
0.00259846 0.0023613 0.0523084
-0.00233105 0.000969591 -0.00260725
0 0 0
0 0 0
-0.00528612 -0.00709255 0.126895
0.00225919 -0.00249306 0.14778
0 0 0
0 0 0
-0.0173943 0.0214761 0.387513
0 0 0
0.0106915 0.00638335 0.0408964
0.000520575 -0.00141136 0.0151049
0.0024323 8.84654e-05 -0.000733638
-0.00429893 0.00378773 0.0820584
-0.000143673 0.00285291 0.0426304
0 0 0
0 0 0
0 0 0
0.000435922 -0.00701411 0.100778
1.07458e-05 5.90239e-06 0.00557914
0.000599547 0.0186315 0.120024
-0.000362458 0.00180168 0.0217441
0 0 0
0 0 0
0.000292259 0.0333268 0.187688
-0.11221 0.166871 1.93437
0.0246175 0.0334522 0.104304
-4.38956e-05 0.117367 0.272864
-1.12621e-05 0.0014119 0.029999
-2.5347e-06 -0.0028148 0.0206438
0 0 0
0.000128646 0.00278873 0.0417518
0 0 0
0 0 0
-0.000587997 0.0184767 0.117076
0.000382244 0.00207544 0.0229167
0.111396 0.168 1.93221
-0.000198725 0.0333869 0.186755
0 0 0
-0.0484193 -0.0552451 0.276437
0 0 0
0 0 0
-0.00048323 0.00115088 0.0422924
-0.000186211 0.00385477 0.0317482
-0.000179525 0.00455267 0.0531521
0.0011285 0.00777356 0.0413345
-0.00280836 0.0025881 0.119921
0 0 0
0.003543 0.000465553 0.053612
0.00302357 -0.00260469 0.0400381
0 0 0
0 0 0
0.00314199 -0.0103875 0.337039
-0.00290215 -0.0106301 0.338547
0 0 0
0 0 0
0.0167051 -0.0112972 0.173211