# vtk DataFile Version 2.0
tet_velo
ASCII
DATASET UNSTRUCTURED_GRID
POINTS 29498 float
-0.675 0.235 -2.08083
-0.680678 0.295 2.085
-0.735 0.677301 -1.995
-0.705 0.855 2.07196
0.675 0.235 -2.08083
0.680674 0.295 2.085
0.735 0.677301 -1.995
0.705 0.855 2.07196
-0.738144 0.193748 -0.69222
-0.759079 0.194706 0.69639
-0.837321 0.848855 -0.639347
-0.813289 0.894056 0.716307
0.738143 0.193748 -0.69222
0.759412 0.194371 0.69639
0.837331 0.848865 -0.639347
0.813255 0.894022 0.716307
-1.44803 -0.1158 -3.20271
-1.44999 -0.0762302 -2.10502
-1.49532 -0.10419 -0.715562
-1.50644 -0.113961 0.680533
-1.45703 -0.0501418 2.07055
-1.44281 -0.010248 3.17098
-1.44872 0.0160229 4.26634
-1.44773 0.162242 -3.17165
-1.45387 0.224989 -2.07756
-1.51524 0.215784 -0.694507
-1.5153 0.205245 0.691509
-1.43513 0.259934 2.07519
-1.42753 0.297892 3.17515
-1.44149 0.324632 4.27158
-1.47542 0.679796 -3.10026
-1.50783 0.741237 -2.00481
-1.5894 0.853617 -0.644228
-1.56413 0.878935 0.714019
-1.46283 0.86399 2.07523
-1.44445 0.899755 3.17656
-1.45286 0.936334 4.2783
-1.50679 1.57315 -3.01797
-1.52901 1.64889 -1.92745
-1.56667 1.76782 -0.577553
-1.57664 1.83768 0.765241
-1.55006 1.851 2.11548
-1.52418 1.86185 3.20672
-1.50863 1.88445 4.30487
-0.704109 -0.11149 -3.20484
-0.693823 -0.0689387 -2.10813
-0.73232 -0.115283 -0.715145
-0.756639 -0.121436 0.6847
-0.72476 -0.0320335 2.07784
-0.710643 0.00209728 3.17592
-0.713087 0.021852 4.2692
-0.699736 0.159541 -3.1723
-0.693435 0.310377 3.17922
-0.70568 0.329791 4.27374
-0.718772 0.653085 -3.09619
-0.705125 0.899197 3.1759
-0.713571 0.936669 4.27816
-0.738155 1.55604 -3.01394
-0.750959 1.63335 -1.92301
-0.784579 1.76566 -0.574877
-0.805955 1.84226 0.76492
-0.795188 1.85142 2.11319
-0.77452 1.86015 3.20443
-0.760248 1.88291 4.3032
0.732708 -0.1115 -3.20484
0.717376 -0.0689462 -2.10813
0.74802 -0.115326 -0.715146
0.745194 -0.121664 0.6847
0.696146 -0.0321218 2.07784
0.720803 0.00202731 3.17592
0.741383 0.0217756 4.2692
0.728519 0.159535 -3.1723
0.723373 0.31033 3.17922
0.744135 0.329723 4.27374
0.751341 0.65308 -3.09619
0.730145 0.89916 3.1759
0.744936 0.936609 4.27816
0.78881 1.55602 -3.01394
0.79709 1.63334 -1.92301
0.790955 1.76563 -0.574877
0.756471 1.84222 0.76492
0.725548 1.85137 2.11319
0.725207 1.86009 3.20443
0.733417 1.88285 4.3032
1.46676 -0.115829 -3.20271
1.45736 -0.0762577 -2.10502
1.49941 -0.104292 -0.715562
1.50216 -0.114285 0.680533
1.44866 -0.0503657 2.07055
1.45508 -0.0104151 3.17098
1.47528 0.0158612 4.26634
1.46235 0.162223 -3.17164
1.44599 0.224979 -2.07756
1.50978 0.215724 -0.694508
1.51834 0.204903 0.691509
1.44387 0.259743 2.07519
1.45341 0.297752 3.17515
1.47597 0.324484 4.27158
1.49387 0.679781 -3.10026
1.50204 0.741232 -2.00481
1.58321 0.853596 -0.644228
1.56389 0.878785 0.714019
1.46804 0.863858 2.07523
1.4645 0.899641 3.17656
1.48008 0.936203 4.2783
1.54822 1.57311 -3.01797
1.56203 1.64885 -1.92745
1.56719 1.76777 -0.577553
1.53515 1.83758 0.765241
1.49318 1.85088 2.11548
1.48144 1.86173 3.20672
1.48375 1.88432 4.30487
-0.74426 0.45615 -2.07718
0 0.220314 -2.09552
-0.718107 0.202839 -1.38653
-0.724624 0.575 2.11026
-1.99676e-06 0.26699 2.11301
-0.750967 0.213765 1.3907
0 0.705484 -2.02318
-0.834566 0.811483 -1.31717
0 0.86927 2.08623
-0.78982 0.905203 1.39413
0.744313 0.45615 -2.07723
0.718143 0.202802 -1.38653
0.724588 0.575 2.11023
0.747705 0.217023 1.3907
0.834573 0.811491 -1.31717
0.789818 0.905202 1.39413
-0.74907 0.193769 0.00208497
-0.871984 0.521302 -0.665784
-6.65585e-07 0.190806 -0.69222
-0.886567 0.544381 0.706348
0.000166253 0.190822 0.69639
-0.830167 0.876317 0.03848
4.94699e-06 1.14241 -0.639347
-1.69694e-05 1.29455 0.716307
0.749068 0.193769 0.00208497
0.871921 0.521307 -0.665784
0.886552 0.544197 0.706348
0.830167 0.876317 0.03848
-0.846184 0.488726 -1.35185
-0.885552 0.532841 0.0202825
-0.85579 0.559691 1.39241
-3.32793e-07 0.190696 -1.38653
8.27935e-05 0.190797 0.00208497
8.21279e-05 0.190773 1.3907
0 0.45615 -2.24024
-9.98378e-07 0.575 2.22585
2.47349e-06 0.855251 -1.31717
-6.01119e-06 1.34197 0.03848
-8.48469e-06 1.04482 1.39413
0.846135 0.488729 -1.35185
0.885542 0.532752 0.0202825
0.855808 0.559598 1.39241
-1.06443 0.229995 -2.07919
-0.684412 0.0830306 -2.09448
-0.687368 0.197271 -2.62657
-1.0579 0.277467 2.08009
-0.702719 0.131483 2.08142
-0.687056 0.302688 2.63211
-1.12141 0.709269 -1.99991
-0.726886 0.665193 -2.54559
-0.74298 1.15533 -1.95901
-1.08392 0.859495 2.0736
-0.705063 0.877098 2.62393
-0.750094 1.35321 2.09257
0.696188 0.0830269 -2.09448
0.70176 0.197268 -2.62657
1.06049 0.229989 -2.07919
0.68841 0.131439 2.08142
0.702023 0.302665 2.63211
1.06227 0.277371 2.08009
0.743171 0.66519 -2.54559
0.766045 1.15532 -1.95901
1.11852 0.709266 -1.99991
0.717572 0.87708 2.62393
0.715274 1.35319 2.09257
1.08652 0.859429 2.0736
-1.12669 0.204766 -0.693364
-0.735232 0.0392326 -0.703683
-1.13719 0.199975 0.693949
-0.757859 0.0366349 0.690545
-1.21336 0.851236 -0.641788
-0.81095 1.30726 -0.607112
-1.18871 0.886496 0.715163
-0.809622 1.36816 0.740613
0.743081 0.0392113 -0.703683
1.12396 0.204736 -0.693364
0.752303 0.0363534 0.690545
1.13888 0.199637 0.693949
0.814143 1.30725 -0.607112
1.21027 0.85123 -0.641788
0.784863 1.36812 0.740613
1.18857 0.886404 0.715163
-1.44901 -0.0960151 -2.65387
-1.44788 0.0232212 -3.18718
-1.07607 -0.113645 -3.20378
-1.47265 -0.0902103 -1.41029
-1.45193 0.0743796 -2.09129
-1.0719 -0.0725845 -2.10657
-1.50088 -0.109076 -0.0175141
-1.50528 0.0557969 -0.705034
-1.11382 -0.109737 -0.715354
-1.48173 -0.0820513 1.37554
-1.51087 0.045642 0.686021
-1.13154 -0.117698 0.682617
-1.44992 -0.0301949 2.62077
-1.44608 0.104896 2.07287
-1.09089 -0.0410876 2.0742
-1.44576 0.00288745 3.71866
-1.43517 0.143822 3.17306
-1.07673 -0.00407535 3.17345
-1.44511 0.170327 4.26896
-1.0809 0.0189375 4.26777
-1.4508 0.193616 -2.6246
-1.46157 0.421019 -3.13595
-1.07373 0.160892 -3.17197
-1.48455 0.220387 -1.38603
-1.48085 0.483113 -2.04118
-1.51527 0.210515 -0.00149937
-1.55232 0.534701 -0.669368
-1.47522 0.232589 1.38335
-1.53972 0.54209 0.702764
-1.43133 0.278913 2.62517
-1.44898 0.561962 2.07521
-1.43451 0.311262 3.72337
-1.43599 0.598824 3.17585
-1.06048 0.304135 3.17719
-1.44718 0.630483 4.27494
-1.07359 0.327211 4.27266
-1.49162 0.710517 -2.55254
-1.4911 1.12647 -3.05911
-1.0971 0.66644 -3.09822
-1.54861 0.797427 -1.32452
-1.51842 1.19506 -1.96613
-1.57677 0.866276 0.0348956
-1.57804 1.31072 -0.610891
-1.51348 0.871463 1.39463
-1.57039 1.35831 0.73963
-1.45364 0.881873 2.62589
-1.50645 1.35749 2.09536
-1.44865 0.918045 3.72743
-1.48431 1.3808 3.19164
-1.07479 0.899476 3.17623
-1.48075 1.41039 4.29159
-1.08322 0.936501 4.27823
-1.5179 1.61102 -2.47271
-1.12247 1.56459 -3.01595
-1.54784 1.70835 -1.2525
-1.13998 1.64112 -1.92523
-1.57166 1.80275 0.093844
-1.17562 1.76674 -0.576215
-1.56335 1.84434 1.44036
-1.1913 1.83997 0.76508
-1.53712 1.85642 2.6611
-1.17262 1.85121 2.11434
-1.51641 1.87315 3.75579
-1.14935 1.861 3.20557
-1.13444 1.88368 4.30404
-0.698966 -0.0902143 -2.65648
-0.701922 0.0240259 -3.18857
0.0142998 -0.111495 -3.20484
-0.713072 -0.0921109 -1.41164
0.0117762 -0.0689425 -2.10813
-0.74448 -0.11836 -0.0152229
0.00784965 -0.115304 -0.715146
-0.7407 -0.0767348 1.38127
-0.00572245 -0.12155 0.6847
-0.717702 -0.0149681 2.62688
-0.014307 -0.0320776 2.07784
-0.711865 0.0119747 3.72256
-0.702039 0.156237 3.17757
0.00508025 0.00206229 3.17592
-0.709383 0.175821 4.27147
0.0141481 0.0218138 4.2692
-0.709254 0.406313 -3.13424
0.0143916 0.159538 -3.1723
-0.699557 0.320084 3.72648
-0.69928 0.604787 3.17756
0.0149689 0.310353 3.17922
-0.709626 0.63323 4.27595
0.0192273 0.329757 4.27374
-0.728463 1.10456 -3.05506
0.0162845 0.653082 -3.09619
-0.709348 0.917933 3.72703
-0.739823 1.37967 3.19016
0.01251 0.899178 3.1759
-0.73691 1.40979 4.29068
0.0156823 0.936639 4.27816
-0.744557 1.5947 -2.46847
0.0253277 1.55603 -3.01394
-0.767769 1.69951 -1.24894
0.0230653 1.63335 -1.92301
-0.795267 1.80396 0.0950215
0.00318798 1.76565 -0.574877
-0.800572 1.84684 1.43905
-0.024742 1.84224 0.76492
-0.784854 1.85579 2.65881
-0.03482 1.8514 2.11319
-0.767384 1.87153 3.75381
-0.0246565 1.86012 3.20443
-0.0134156 1.88288 4.3032
0.725042 -0.0902233 -2.65648
0.730614 0.0240175 -3.18857
1.09974 -0.113665 -3.20378
0.732698 -0.092136 -1.41164
1.08737 -0.072602 -2.10657
0.746607 -0.118495 -0.0152229
1.12371 -0.109809 -0.715354
0.72067 -0.0768929 1.38127
1.12368 -0.117975 0.682616
0.708475 -0.0150472 2.62688
1.0724 -0.0412437 2.0742
0.731093 0.0119014 3.72256
0.722088 0.156179 3.17757
1.08794 -0.00419391 3.17345
0.742759 0.175749 4.27147
1.10833 0.0188184 4.26777
0.73993 0.406308 -3.13424
1.09543 0.160879 -3.17197
0.733754 0.320027 3.72648
0.726759 0.604745 3.17756
1.08839 0.304041 3.17719
0.744535 0.633166 4.27595
1.11005 0.327103 4.27266
0.770075 1.10455 -3.05506
1.12261 0.666431 -3.09822
0.73754 0.917884 3.72703
0.727676 1.37963 3.19016
1.09732 0.8994 3.17623
0.739176 1.40973 4.29068
1.11251 0.936406 4.27823
0.79295 1.59468 -2.46847
1.16852 1.56457 -3.01595
0.794023 1.69949 -1.24894
1.17956 1.64109 -1.92523
0.773713 1.80393 0.0950214
1.17907 1.7667 -0.576215
0.74101 1.8468 1.43905
1.14581 1.8399 0.76508
0.725378 1.85573 2.65881
1.10936 1.85113 2.11434
0.729312 1.87147 3.75381
1.10332 1.86091 3.20557
1.10858 1.88358 4.30403
1.46206 -0.0960432 -2.65387
1.46456 0.0231973 -3.18718
1.47839 -0.0902751 -1.41029
1.45167 0.0743605 -2.09129
1.50078 -0.109289 -0.0175142
1.50459 0.0557158 -0.705035
1.47541 -0.0823255 1.37554
1.51025 0.045309 0.686021
1.45187 -0.0303904 2.62077
1.44627 0.104689 2.07287
1.46518 0.00272305 3.71866
1.45425 0.143669 3.17306
1.47563 0.170173 4.26896
1.45417 0.193601 -2.6246
1.47811 0.421002 -3.13595
1.47788 0.220351 -1.38603
1.47401 0.483105 -2.04118
1.51406 0.210314 -0.00149946
1.5465 0.53466 -0.669368
1.48111 0.232323 1.38335
1.54111 0.541844 0.702764
1.44864 0.278748 2.62517
1.45596 0.561801 2.07521
1.46469 0.311118 3.72337
1.45896 0.598696 3.17585
1.47802 0.630343 4.27494
1.49796 0.710506 -2.55254
1.52105 1.12645 -3.05911
1.54262 0.797414 -1.32452
1.53203 1.19504 -1.96613
[...]
POINT_DATA 29498
VECTORS point_vectors float
-2.52346 -2.46619 4.6895
0.0997975 0.140365 0.428042
-1.44647 0.598511 2.66737
0.0983112 -0.159597 0.529785
2.5291 -2.46366 4.69989
-0.0989113 0.140243 0.427131
1.43257 0.594531 2.64836
-0.0995724 -0.157788 0.529054
0.00840485 -0.0132054 1.05228
-0.0124663 0.00375592 0.658361
0 0 0
0.00756646 0.0101368 0.0358968
-0.00819649 -0.0125582 1.05203
0.0117478 0.00292597 0.646907
0 0 0
-0.00733622 0.00983615 0.0348045
-0.541169 -0.236479 19.8171
-1.20947 -0.692327 20.3805
-0.512396 -0.428447 21.2578
0.0169083 -0.0390512 21.415
0.573306 0.332649 21.323
0.833185 0.36786 20.9844
0.705937 0.252188 20.5945
-0.627327 -0.178202 19.7301
-1.65459 -0.584177 20.3345
-0.679678 -0.484478 21.3385
0.0350019 -0.0987399 21.5147
0.848293 0.233912 21.3844
1.08361 0.208826 21.0225
0.898398 0.145041 20.7477
-0.710299 0.0454115 19.6735
-1.78296 0.0437154 20.2971
-1.09933 -0.258355 21.3185
-0.0839688 -0.224535 21.6193
0.831813 -0.333928 21.4222
1.0961 -0.340222 21.1101
0.830431 -0.352218 20.6758
-0.513844 0.329787 19.8926
-0.950618 0.583829 20.2892
-0.907169 0.37893 21.1213
-0.240378 -0.0447493 21.439
0.214275 -0.331489 21.2452
0.396879 -0.461014 20.932
0.360224 -0.420129 20.6043
-0.51331 -0.53476 19.2631
-1.99101 -3.35958 20.4399
-0.246192 -0.433806 21.2326
-0.0490017 0.0994945 20.5935
0.12257 1.20623 18.478
0.435685 1.48791 18.029
0.478496 0.969772 17.9465
-0.619772 -0.432617 19.0235
0.956952 1.72331 10.5203
1.7919 0.837564 12.8573
-0.79983 0.113288 18.759
2.12337 -0.243192 10.2495
1.6049 -0.386872 14.2334
-0.453696 0.657633 19.4803
-1.06922 1.63211 19.9472
-1.45842 1.65413 21.2724
-0.346678 0.103239 21.8956
0.101867 -0.561893 21.4217
0.24585 -0.788126 21.1505
0.186981 -0.579264 20.4391
0.52616 -0.514828 19.2955
2.01409 -3.2369 20.4287
0.253265 -0.439818 21.3337
0.0535823 0.097472 20.4827
-0.043078 1.16167 18.0114
-0.465335 1.49467 18.119
-0.540006 0.903587 18.1503
0.637122 -0.413084 19.055
-1.10053 1.76798 11.2983
-1.69349 0.803053 13.8878
0.833417 0.115795 18.8074
-2.16617 -0.263271 11.0263
-1.55344 -0.380758 14.8858
0.470658 0.636534 19.5074
1.09883 1.55671 19.9672
1.45721 1.63461 21.2728
0.339876 0.110632 21.9219
-0.0844719 -0.575233 21.4299
-0.225422 -0.794891 21.13
-0.187175 -0.585306 20.4718
0.542805 -0.234908 19.8245
1.19934 -0.684094 20.3841
0.516338 -0.429872 21.2565
-0.0113691 -0.0426851 21.4144
-0.570193 0.341003 21.3323
-0.825187 0.362677 21.0017
-0.712792 0.230576 20.5138
0.626214 -0.175887 19.7372
1.67828 -0.599 20.3357
0.681334 -0.489725 21.3448
-0.0323324 -0.102169 21.5097
-0.833295 0.220813 21.3815
-1.0527 0.204103 20.9941
-0.909243 0.110688 20.654
0.698684 0.0386533 19.6953
1.79394 0.0480437 20.3004
1.1059 -0.260494 21.3264
0.0835478 -0.22418 21.6231
-0.825866 -0.324359 21.3964
-1.07032 -0.333265 21.0789
-0.789894 -0.334688 20.6982
0.506441 0.314 19.9111
0.932327 0.557127 20.2987
0.906285 0.379066 21.1218
0.250426 -0.0457479 21.4501
-0.213414 -0.348635 21.2655
-0.394526 -0.477448 20.9328
-0.347706 -0.414194 20.6198
-1.5616 -0.203173 1.90226
-6.81483e-06 -0.0718659 0.242379
0.0217244 -0.0173891 0.53571
0.0694823 0.0268322 0.203495
-0.000849964 -0.0191172 -0.00936156
-0.0477781 0.0540721 0.648347
0.00496952 0.140374 0.3614
-0.333091 -0.240032 1.40914
-0.000734577 0.0912741 -0.0970567
0.0578729 0.0432612 0.33455
1.57339 -0.205028 1.91641
-0.0216914 -0.0173902 0.537023
-0.0688875 0.0274051 0.201677
0.0313239 0.0316296 0.385512
0.332173 -0.239773 1.40759
-0.0580433 0.0437562 0.33472
-0.011327 0.000470527 0.997204
1.54652e-18 -8.14901e-19 -6.7514e-17
-1.28975e-08 -2.99975e-10 -2.48759e-06
-5.15925e-06 0.00831995 0.0500771
2.01878e-08 3.453e-10 -1.65352e-05
0 0 0
4.55873e-07 0.00366668 0.00703807
1.3317e-06 -0.00200871 0.0212243
0.0114727 0.000499616 0.997141
0 0 0
-1.39402e-05 0.00741441 0.0446227
0 0 0
-0.000264037 -0.00102404 0.00940648
0 0 0
0 0 0
-1.10507e-06 1.0927e-06 -0.000182102
8.08769e-08 1.15071e-08 -3.01706e-05
-1.30507e-08 -2.24363e-08 -1.25832e-05
-2.20414e-05 0.0833002 0.0748561
-0.000577273 0.0211233 -0.0194253
0 0 0
9.21843e-07 0.000576532 0.00953267
2.37489e-06 0.00766033 -0.0135077
0.000144657 -0.000563504 0.00514586
0 0 0
0 0 0
-3.21718 -1.60704 20.2727
-3.25255 -5.28326 20.5458
-1.86936 -1.37967 17.8141
1.24096 0.972591 18.6302
-0.115257 1.35316 10.3365
0.116708 1.29734 6.77976
-3.51214 0.361309 20.1033
-2.48021 0.793951 17.1054
-2.36388 2.73768 19.5848
1.4849 -0.203225 18.5228
1.04079 -0.0233548 6.14153
0.5913 -0.709541 17.9284
3.28783 -5.14271 20.5184
1.87382 -1.35051 17.8829
3.24399 -1.62916 20.27
0.166942 1.29392 9.89021
-0.198371 1.33283 7.19896
-1.23099 0.952616 18.7231
2.47791 0.758627 17.2164
2.39772 2.62423 19.612
3.54203 0.370716 20.1049
-1.08647 -0.0208674 6.61788
-0.616271 -0.6868 17.422
-1.4715 -0.215631 18.5712
-0.534812 -0.836304 21.3602
0.16864 -0.167781 16.8568
0.0669962 0.0135218 20.4651
-0.0661779 0.17277 15.5585
-1.78641 -0.756756 21.7022
-3.66578 1.92957 21.5561
0.0868979 -0.413447 20.7917
-0.384788 -0.104019 20.6942
-0.157294 -0.177781 17.0563
0.53443 -0.838052 21.3503
0.0654054 0.168293 15.4682
-0.0652231 0.0119948 20.4864
3.64701 1.90996 21.5587
1.79569 -0.765172 21.7008
0.258899 -0.0176175 19.9754
-0.0870637 -0.413083 20.7897
-0.895655 -0.448003 19.9289
-0.592057 -0.21288 19.7746
-0.590476 -0.386497 19.5568
-0.913693 -0.614987 21.0181
-1.43668 -0.653317 20.347
-1.80235 -1.56552 20.385
-0.222378 -0.237476 21.37
-0.605249 -0.471465 21.2893
-0.385159 -0.586234 21.4589
0.268564 0.157241 21.4617
0.0190554 -0.0758269 21.448
0.0265275 -0.00129058 21.5326
0.717911 0.399096 21.2033
0.705056 0.29584 21.3917
0.668544 0.798043 21.0818
0.853649 0.310289 20.7598
0.970361 0.293102 21.091
0.992679 0.885314 21.0251
0.80824 0.227536 20.7402
0.625923 0.713173 21.4707
-1.15168 -0.353101 19.7868
-0.688368 -0.0854936 19.6703
-0.690239 -0.304278 19.4149
-1.19661 -0.60788 21.0861
-1.78755 -0.28549 20.305
-0.30127 -0.29959 21.448
-0.904647 -0.429766 21.3268
0.406569 0.0887029 21.5641
-0.0022516 -0.181784 21.5902
1.01495 0.270114 21.1637
0.955278 -0.0458391 21.3647
1.13374 0.156958 20.8524
1.21432 -0.0858667 20.9978
1.54721 0.905384 19.0132
1.05859 -0.190304 20.5236
1.24124 0.573916 19.5994
-1.29068 0.0804751 19.7511
-0.659051 0.23594 19.757
-0.836533 0.0725427 19.2882
-1.52593 -0.147142 20.9494
-1.38596 0.4715 20.2519
-0.602466 -0.262949 21.5552
-1.17314 0.134871 21.2235
0.390395 -0.249795 21.5886
-0.213788 -0.1689 21.5674
1.05512 -0.353946 21.1963
0.452779 -0.439609 21.3309
1.09191 -0.404405 20.6496
0.612939 -0.567897 21.0038
1.59907 -0.553939 19.1167
0.545771 -0.458829 20.6774
1.2314 -0.568664 20.0272
-0.731389 0.476126 20.0216
-0.542077 0.480526 19.6929
-1.02199 0.528764 20.7139
-1.14967 1.04415 20.1439
-0.597593 0.178741 21.3746
-1.23967 0.828896 21.2179
0.0324082 -0.213412 21.3756
-0.306004 0.012899 21.6495
0.314277 -0.406996 21.1489
0.197376 -0.460947 21.3169
0.404914 -0.438054 20.7552
0.377896 -0.634649 20.8617
0.233201 -0.389575 20.7497
-1.18597 -1.49759 18.9151
-0.557521 -0.490598 19.1571
0.00796829 -0.706718 18.9779
-0.774141 -1.22475 21.8917
0.0272201 -5.09247 20.8789
-0.0910624 -0.13705 20.8353
0.00183341 -0.648999 20.2453
-0.037683 0.468664 19.3583
-0.00056263 -0.160162 17.9874
0.188554 1.3203 18.2017
-0.0189709 0.397475 13.6451
0.541784 1.37341 18.3705
0.708388 1.78664 15.369
-0.00897898 0.699134 12.7354
0.8252 0.976381 15.7331
-0.0570928 1.34846 12.5996
-0.758852 -0.148482 18.7969
0.0135844 -0.570885 18.6439
1.42755 1.31184 11.3272
1.9577 0.767108 8.00987
0.0426643 -0.629483 -2.15053
2.09784 0.489627 12.5991
-0.0668987 -0.121058 6.06543
-0.670452 0.567448 19.0724
0.015469 0.189201 18.1844
1.86458 -0.552198 12.0982
0.784216 -1.21963 19.267
-0.0565185 -0.378935 -1.45259
0.589626 -0.886638 19.945
-0.0669024 -1.4271 2.78793
-0.778941 1.19713 19.5256
0.0202974 0.859503 19.2518
-1.35732 1.73733 20.4752
0.040062 2.31645 19.7066
-0.962643 0.886028 21.9674
0.0114269 3.23738 21.2088
-0.0468919 -0.328934 21.632
-0.0203643 0.33001 22.2106
0.206239 -0.708958 21.2532
-0.00514966 -0.510176 21.7073
0.255728 -0.775708 20.5606
0.00441142 -0.882647 21.3657
0.00939227 -0.94872 20.4169
1.19549 -1.45174 18.9583
0.572913 -0.470531 19.1895
0.596162 -0.381756 19.5679
0.772959 -1.20793 21.8595
1.78759 -1.52525 20.3811
0.0921516 -0.135495 20.8494
0.394057 -0.586344 21.4503
0.04725 0.450601 19.251
-0.023143 -9.00841e-05 21.5297
-0.151104 1.30535 17.9975
-0.659567 0.832317 21.0134
-0.569516 1.3602 18.5325
-0.775691 1.79198 15.5276
-0.989699 0.852748 21.009
-0.886226 0.897688 15.9725
-0.638772 0.660496 21.4489
0.79178 -0.146875 18.8414
0.695813 -0.302755 19.4307
-1.44468 1.26338 12.1027
-2.06298 0.830493 8.8156
-1.53593 0.810659 19.3714
-2.00597 0.461325 13.5226
-1.20929 0.547672 20.0822
0.692297 0.54273 19.1169
0.836758 0.0705783 19.3185
-1.86276 -0.548539 12.7862
-0.787435 -1.21868 19.2208
-1.51853 -0.573201 19.5316
-0.592942 -0.884032 19.9477
-1.21313 -0.576235 20.3664
0.801912 1.1488 19.5604
0.53942 0.46211 19.7169
1.36983 1.67733 20.492
1.12975 0.980681 20.1659
0.963676 0.917602 21.9827
1.23692 0.822883 21.2171
0.0498736 -0.331449 21.6414
0.312106 0.0202787 21.6841
-0.188937 -0.729091 21.2703
-0.189899 -0.47991 21.3377
-0.248167 -0.788637 20.5533
-0.361856 -0.649663 20.8969
-0.230836 -0.405251 20.7244
0.888715 -0.4421 19.9395
0.595927 -0.211144 19.7823
0.913321 -0.613464 21.0121
1.43913 -0.655312 20.3522
0.222929 -0.240529 21.3729
0.60862 -0.475577 21.2884
-0.264532 0.151074 21.4535
-0.013359 -0.079896 21.442
-0.709225 0.404197 21.2069
-0.698792 0.299311 21.3748
-0.824939 0.298476 20.7657
-0.947553 0.2896 21.0765
-0.822479 0.2003 20.6543
1.15291 -0.353138 19.785
0.68129 -0.0811849 19.6855
1.20448 -0.617698 21.0934
1.81473 -0.290414 20.3099
0.302006 -0.303351 21.4507
0.909717 -0.436515 21.3408
-0.401534 0.0846259 21.5579
0.00208813 -0.183123 21.5935
-0.994444 0.250029 21.1612
-0.941132 -0.0491632 21.3671
-1.06859 0.150967 20.9889
-1.19012 -0.0783539 20.9805
-1.0149 -0.17305 20.5511
1.27865 0.0758034 19.7649
0.650918 0.220152 19.7831
1.5335 -0.146607 20.9561
1.36298 0.454578 20.2592
0.602985 -0.263678 21.5603
1.17811 0.134376 21.2259
-0.38776 -0.247942 21.5895
0.218015 -0.178081 21.5782
-1.0343 -0.343279 21.1992
-0.456851 -0.454894 21.3402
-1.03708 -0.382373 20.7308
-0.616892 -0.576607 21.0044
-0.543901 -0.460938 20.6768
0.718913 0.451894 20.0392
1.00995 0.518164 20.7152
0.609113 0.18217 21.3869
-0.0250903 -0.21996 21.3942
-0.316221 -0.439413 21.1264
-0.415049 -0.435247 20.7472
-1.02722 -0.418933 19.8479
-1.47572 -1.52101 18.4295
-1.20456 -0.899039 19.51
-1.67584 -0.739358 19.1002
-0.655209 -0.374697 19.4991
-2.35724 -1.65403 20.3216
-1.05764 -0.631847 21.0583
-0.144625 -0.690052 18.0381
-0.943457 -1.04779 21.3745
-1.42158 -1.25247 21.6102
-0.425766 -0.708841 21.5387
-0.264758 -0.281178 21.4094
0.076248 0.0120842 15.8938
-0.13698 -0.283064 21.4829
-0.167045 -0.41768 20.9414
0.0676027 -0.0151766 21.3244
0.332682 0.131108 21.5148
-0.294427 0.47039 12.7899
0.285049 0.369398 21.4059
0.514805 0.513988 19.6737
0.948198 0.917741 20.3378
0.896477 0.387619 21.1585
0.100695 1.48253 12.8342
0.81154 0.866143 20.9863
1.41315 0.946465 19.2372
1.18713 0.914535 20.0254
1.0348 0.236704 20.6671
0.984667 1.34262 14.8488
0.980684 0.967922 21.0802
1.57896 0.715113 19.3518
0.87007 0.5647 19.8764
-1.26598 -0.171323 19.7386
-2.37814 -0.499984 17.1322
-1.97493 0.273017 19.0023
-0.818903 -0.107485 19.284
-3.73029 -0.643287 20.1258
-1.41205 -0.404344 21.035
-2.44738 -0.363008 21.266
-0.992617 -0.930617 21.4079
-0.429944 -0.334501 21.5147
-0.789243 -0.731549 21.3882
0.19984 -0.00605965 20.1537
0.461589 -0.0914467 21.5892
0.829499 -0.164518 19.7703
1.54384 0.470668 17.4772
1.14687 -0.0508279 21.1416
0.814828 0.965825 4.38766
1.62207 -0.398442 18.973
2.03224 0.334605 18.4445
1.16794 -0.147829 21.1347
2.02508 0.67643 10.6445
1.6082 -0.594263 19.5575
1.56235 0.229927 19.2589
-1.06059 0.403572 19.8673
-1.47436 1.54624 18.679
-0.853262 0.786775 19.7812
-0.733208 0.382669 19.4446
-2.033 1.12987 20.0216
-1.41571 0.328139 20.7826
-2.72776 2.06793 20.3852
-1.29546 1.01639 20.6467
-1.99031 0.450315 21.4276
-0.723615 -0.0332939 21.5206
-2.08672 0.514437 21.8978
-0.805554 0.411549 21.623
-0.365671 -0.209874 21.9139
0.164744 -0.319086 21.4848
0.371461 -0.483136 19.0655
0.0169005 -0.286273 21.5128
0.469353 -0.753239 21.3703
0.573942 -0.523344 21.1758
0.647607 -0.937489 18.5667
0.304064 -0.569172 21.1281
0.669823 -0.897362 21.024
0.582554 -0.461956 20.8255
0.660797 -1.24481 19.1339
0.441803 -0.532999 20.854
0.619201 -0.696916 20.3053
1.49203 -1.49989 18.4836
0.0212436 -2.29788 18.1897
0.0203523 -2.27658 16.0568
0.0117206 -0.71312 18.8068
0.0125185 -7.59403 22.0917
0.170775 -0.724907 18.3323
0.0117825 -1.56767 21.6196
-0.00121772 -0.164407 11.3676
-0.0730872 0.011815 15.9208
-0.000530469 -0.33923 18.7998
-0.000195192 -0.0283072 10.2164
0.301412 0.446712 12.4688
-0.00201718 0.0678359 15.7029
-0.0289102 0.245543 4.70548
-0.103538 1.47758 12.8767
-0.0161273 0.172629 13.1253
0.0190622 -1.20201 -3.52364
0.0114869 0.321627 4.67175
-1.02175 1.32381 15.0598
0.0235242 1.16279 12.1364
0.029064 -0.633747 0.200826
-0.0621012 1.23763 11.0061
2.37277 -0.486374 17.2444
0.0372367 1.77465 14.7083
0.0151116 -0.191514 18.2624
-0.854359 0.953079 4.85392
-0.000954824 -0.0727918 -1.87249
-0.0584993 -1.60135 -4.67996
-2.03023 0.628384 11.3872
-0.1195 -1.03246 1.35103
-0.0593486 -1.53296 1.38365
1.49564 1.46906 18.7397
0.0292312 1.63131 19.2381
0.0227118 0.797681 18.6676
0.0413783 4.34736 19.1434
2.72243 2.0063 20.3997
0.0361434 2.74643 20.1517
0.0105786 6.49579 19.8074
2.08754 0.537531 21.761
-0.0177142 1.79569 22.5083
0.00408276 -0.233199 12.4307
-0.467726 -0.412383 18.1614
-0.0123402 -0.223688 21.9744
0.00265172 -0.290293 7.24577
-0.653024 -0.931052 18.2955
0.00168536 -0.728103 21.5526
0.00890742 -1.12297 12.4652
-0.659142 -1.24979 19.1181
0.00503975 -0.977663 21.4994
-0.00328666 -1.03337 14.3404
1.02727 -0.415674 19.8576
1.20229 -0.882967 19.5179
1.6719 -0.729273 19.1189
0.654745 -0.366387 19.5079
2.33681 -1.63105 20.3195
1.06406 -0.636449 21.0551
0.952765 -1.03726 21.3553
1.42251 -1.25994 21.6025
0.432581 -0.706747 21.5329
0.265969 -0.283721 21.4133
0.13988 -0.283394 21.4817
0.168007 -0.416541 20.9307
-0.0637843 -0.0134897 21.2954
-0.328859 0.127766 21.511
-0.275081 0.382662 21.3645
-0.513374 0.506369 19.7108
-0.939521 0.935977 20.2472
-0.88152 0.371577 21.1709
-0.804309 0.874259 20.9799
-1.39671 0.889018 19.4274
-1.18142 0.845359 20.2835
-0.97668 0.229394 20.7668
-1.00358 0.918706 20.9942
-1.58453 0.652911 19.3607
-0.845788 0.539335 20.3148
1.25966 -0.170585 19.7517
1.95417 0.26125 19.034
0.819772 -0.105124 19.3105
3.77882 -0.649632 20.125
1.42484 -0.413094 21.0469
2.45933 -0.366484 21.2731
0.989163 -0.935785 21.3923
0.428523 -0.336913 21.527
0.789655 -0.73609 21.3755
-0.199433 -0.00896981 20.1721
-0.456566 -0.0912842 21.5953
-0.822671 -0.169563 19.8025
-1.53842 0.456731 17.5217
-1.11973 -0.0565609 21.1491
-1.60012 -0.408555 19.2454
-1.94057 0.317383 18.9018
-1.10988 -0.126464 21.2332
-1.57249 -0.599552 19.9647
-1.53225 0.209741 19.6843
1.03934 0.381872 19.8889
0.854146 0.749474 19.8139
0.732294 0.366829 19.4757
2.01134 1.08829 20.0369
1.41025 0.325722 20.7844
1.2873 0.984419 20.6532
1.9901 0.450436 21.4264
0.73152 -0.0371105 21.5309
0.817663 0.432131 21.6397
0.377405 -0.222103 21.9329
-0.167598 -0.329059 21.5013
-0.0134123 -0.296673 21.5327
-0.469111 -0.784249 21.3391
-0.585746 -0.536967 21.1858
-0.298122 -0.591016 21.1485
-0.6779 -0.906567 20.9665
-0.584648 -0.467253 20.8332
-0.420961 -0.5616 20.9079
-0.621687 -0.694887 20.3077
-1.3612 -0.862646 19.3776
-1.12353 -1.15118 21.4804
-0.132095 -0.357293 21.4459
0.417709 0.435145 21.0618
1.10599 0.993984 20.1295
1.26708 0.854121 20.3246
-1.96359 -0.244648 18.9295
-2.0367 -0.965781 21.6204
-0.304318 -0.501379 20.65
0.789437 0.353927 18.9475
1.76118 0.369716 18.0657
1.88008 0.297296 18.3895
-1.3929 0.805179 19.4101
-2.13295 0.79744 20.7464
-1.1919 0.0565688 21.9317
0.172477 -0.505224 21.7192
0.616431 -0.839315 21.2147
0.678251 -0.819218 20.7839
0.0270288 -2.46156 17.3862
0.00296448 -0.601416 12.777
-0.000758867 -0.0825158 10.5208
-0.00249431 0.045934 8.03973
-0.0148988 -0.417215 3.50717
0.0248763 0.396556 5.79572
0.028166 -0.525602 14.8451
0.014682 -0.950935 -3.74738
-0.122536 -1.6761 -1.88431
0.0422201 2.45334 17.8648
0.0284105 3.97429 19.5554
-0.00398837 1.32543 14.7499
-0.000264313 -0.293902 8.12531
0.00243518 -0.572785 9.72643
0.00341849 -1.07167 13.8005
1.35668 -0.848943 19.3925
1.13141 -1.14486 21.4687
0.135948 -0.354977 21.428
-0.411629 0.442807 21.0228
-1.10727 0.967571 20.1923
-1.27695 0.806816 20.3279
1.94478 -0.245115 18.9611
2.03976 -0.973171 21.6245
0.303215 -0.501034 20.634
-0.787763 0.346464 19.0062
-1.74789 0.342267 18.5154
-1.83102 0.283924 18.8417
1.38384 0.775463 19.4407
2.11236 0.781183 20.7484
1.21444 0.0575097 21.9483
-0.173052 -0.524859 21.6826
-0.617658 -0.859411 21.1865
-0.679144 -0.827041 20.7566
-4.13216 -1.81215 5.19329
-0.00434163 -0.242678 0.463423
-0.0041333 -0.054028 0.693266
0.0474476 0.0364457 0.139643
-0.0470046 0.0212971 0.0329109
0.00373135 0.0469661 0.169011
0 0 0
-0.0317494 0.155769 0.394756
-0.760419 -0.23221 2.67539
0.0728349 0.00293729 0.212322
-0.0124864 0.0300551 -0.0213384
0.0121432 -0.0119642 0.161727
0.00390742 -0.241938 0.463262
4.13448 -1.82168 5.22375
0.00460864 -0.0536656 0.681124
0.0466848 0.0208065 0.0323268
-0.0471208 0.036709 0.139124
-0.00401454 0.0469085 0.167396
0.0312437 0.155508 0.39399
4.59599e-16 -4.31848e-17 6.05077e-16
0.766646 -0.233449 2.69147
0.0121307 0.0307514 -0.0218137
-0.0730545 0.00432651 0.212461
-0.012489 -0.0118514 0.161094
0.00871924 -0.0331238 0.968108
-0.00658358 -0.0025497 0.556461
0 0 0
0 0 0
-0.0193745 0.021092 0.203996
-0.0196708 0.00467095 0.725924
0 0 0
0 0 0
-0.229179 -0.141034 0.533311
-4.03294e-05 0.000320347 0.00296094
0 0 0
-0.0529259 0.0469089 0.114833
0.00333504 0.00534155 0.0238482
0.00655217 0.0241308 0.0957277
0 0 0
0.0717855 0.00709742 0.204756
-0.00908539 -0.0316128 0.959491
0 0 0
0.00669597 -0.00246609 0.555848
0 0 0
0.0169206 0.0163102 0.166705
0 0 0
0.0196542 0.00441354 0.728275
0 0 0
0.228785 -0.140831 0.532534
0.0531067 0.0473036 0.115111
3.92505e-05 0.000312529 0.00288915
0 0 0
-0.0034577 0.0055409 0.0246572
-0.0716841 0.00716655 0.20413
-0.0063072 0.0231874 0.0920612
0 0 0
-0.0321663 -0.032864 0.331911
-0.148894 0.0718151 0.162242
-3.27088e-08 -1.00456e-05 0.000485162
-0.000200602 -0.776453 0.285921
0 0 0
-8.6604e-06 6.33677e-07 -0.000102935
0.03412 0.0162934 0.236542
-0.0975497 0.0580784 -0.0212565
-2.58358e-05 0.00396794 0.0517257
-0.000314251 -0.0010244 -0.00294439
0 0 0
-1.53474e-07 2.99525e-08 1.18355e-05
0.00309789 0.986314 0.622713
0 0 0
-0.0482226 -0.071358 0.624629
-0.000893958 0.000406874 0.00274624
-0.000340446 0.0176485 -0.00560151
0 0 0
0.00355252 0.00475795 0.0407169
-0.00377443 0.000932774 -0.00296638
0.149515 0.0721652 0.162911
0.0321922 -0.0330434 0.331321
8.80133e-06 6.41291e-07 -0.000104519
0 0 0
0.0945121 0.0575425 -0.0215205
-0.033381 0.0160676 0.231907
-6.56779e-07 -1.38034e-07 -5.48059e-05
0 0 0
0.000898038 0.000409107 0.00276139
0.0489365 -0.0707531 0.623463
0.00381089 0.000958977 -0.0030118
-0.0041034 0.00560085 0.0478006
0 0 0
0 0 0
0 0 0
0 0 0
1.70673e-07 -2.13226e-06 0.00191181
3.87558e-08 1.90001e-09 -9.57491e-06
0 0 0
0 0 0
-2.13654e-08 -2.55922e-09 1.14365e-05
-1.01894e-08 8.57279e-08 0.000144623
0 0 0
0.0821061 0.162017 1.07294
9.54712e-08 6.63832e-05 0.00026131
6.62414e-05 0.164399 0.500713
1.50724e-06 -6.9566e-06 0.000198362
-2.41544e-05 0.00411965 -0.0107998
0 0 0
0 0 0
0 0 0
4.28671e-19 1.29113e-18 1.2561e-17
0 0 0
-3.20036e-18 4.90419e-18 5.19973e-17
-0.082321 0.162283 1.07382
0 0 0
-1.60556e-17 -2.47778e-17 1.93541e-16
-0.0288287 -0.0188532 0.191034
0.00807634 -0.100029 1.23291
0 0 0
0 0 0
7.35739e-06 0.000483258 0.00343007
0 0 0
0.00331343 0.022498 0.110473
0.000426552 0.00626605 0.0431424
0 0 0
0 0 0
0.00654503 0.00114025 0.0479245
3.64844e-06 -7.98048e-06 0.000357618
-3.36974e-06 -7.28404e-06 0.000326873
0.000114832 -1.98865e-06 0.00135488