# vtk DataFile Version 2.0
tet_velo
ASCII
DATASET UNSTRUCTURED_GRID
POINTS 29498 float
-0.875 0.325 -2.49941
-0.755 0.415 2.55127
-0.885 0.698184 -2.495
-0.735 0.771254 2.505
0.875 0.325 -2.49941
0.761693 0.405 2.535
0.885 0.698184 -2.495
0.735 0.771254 2.505
-0.819974 0.370026 -0.81585
-0.740518 0.439482 0.86771
-0.840836 0.728376 -0.828333
-0.78616 0.748058 0.838334
0.820239 0.368659 -0.821273
0.740517 0.437278 0.856864
0.840827 0.728368 -0.828333
0.786141 0.748038 0.838334
-1.69636 0.123756 -3.83157
-1.69582 0.151785 -2.4922
-1.63434 0.203566 -0.808586
-1.54019 0.263431 0.878563
-1.50841 0.266063 2.56245
-1.51292 0.268066 3.90321
-1.52156 0.280153 5.2412
-1.70418 0.302315 -3.83454
-1.70824 0.32842 -2.49697
-1.63712 0.373005 -0.815951
-1.52916 0.43254 0.866975
-1.50146 0.433518 2.54833
-1.51013 0.436128 3.88904
-1.52106 0.448886 5.22748
-1.70901 0.667354 -3.83636
-1.71813 0.694601 -2.49863
-1.65566 0.725194 -0.829027
-1.55972 0.755471 0.83987
-1.502 0.776695 2.51016
-1.51299 0.782159 3.8541
-1.52767 0.793245 5.19664
-1.68466 1.20586 -3.84904
-1.68193 1.22987 -2.51319
-1.65209 1.25236 -0.848796
-1.60693 1.26916 0.812759
-1.57242 1.28676 2.47814
-1.56103 1.30056 3.81606
-1.5601 1.31445 5.15706
-0.854463 0.120793 -3.83336
-0.866179 0.147754 -2.49488
-0.829511 0.201036 -0.810403
-0.763632 0.266799 0.877336
-0.747427 0.254739 2.56198
-0.752455 0.258577 3.90203
-0.757575 0.273713 5.23938
-0.855869 0.300409 -3.83546
-0.754795 0.426249 3.88828
-0.759428 0.442342 5.22569
-0.858882 0.668177 -3.83512
-0.756351 0.776788 3.852
-0.766164 0.788427 5.19446
-0.849697 1.20706 -3.84802
-0.853409 1.23142 -2.51201
-0.840022 1.2528 -0.84855
-0.816523 1.2672 0.811415
-0.797643 1.28401 2.47563
-0.790373 1.29785 3.81337
-0.789288 1.31179 5.15448
0.855414 0.120479 -3.83457
0.843387 0.147369 -2.4964
0.800024 0.19978 -0.815516
0.753891 0.264268 0.867858
0.766173 0.248143 2.54926
0.763755 0.253445 3.89207
0.765486 0.270079 5.23167
0.870685 0.300231 -3.83615
0.755107 0.420964 3.87862
0.75917 0.438816 5.21838
0.87516 0.668056 -3.83558
0.743083 0.774493 3.84745
0.750591 0.785942 5.18905
0.835933 1.20674 -3.84918
0.824198 1.23112 -2.5131
0.800459 1.25245 -0.849867
0.771067 1.26672 0.809684
0.750483 1.28326 2.4733
0.746966 1.29672 3.81026
0.748992 1.31033 5.15066
1.70017 0.122978 -3.83454
1.68705 0.150814 -2.49599
1.62232 0.201397 -0.817277
1.54002 0.259094 0.863418
1.52427 0.257272 2.54303
1.52607 0.259813 3.8859
1.53116 0.273563 5.22666
1.71866 0.301775 -3.8366
1.71392 0.327868 -2.49913
1.64243 0.371193 -0.823273
1.53574 0.428947 0.853013
1.51181 0.424563 2.5295
1.516 0.428003 3.87262
1.52365 0.442519 5.21367
1.72507 0.666963 -3.83785
1.72479 0.694352 -2.49959
1.66144 0.724519 -0.83168
1.56358 0.754252 0.834736
1.50263 0.773992 2.50298
1.50511 0.777685 3.84427
1.51542 0.788528 5.18595
1.67444 1.20516 -3.85163
1.65932 1.22918 -2.51573
1.62035 1.25152 -0.851899
1.56948 1.26802 0.8087
1.53221 1.28507 2.47287
1.52202 1.29819 3.80946
1.5225 1.31152 5.14929
-0.844045 0.511592 -2.46125
0 0.288481 -2.53593
-0.887285 0.307715 -1.65763
-0.738421 0.593127 2.52156
0.0033465 0.409401 2.54373
-0.773021 0.401979 1.70949
0 0.742484 -2.5393
-0.870127 0.720489 -1.66167
0 0.803373 2.53712
-0.762223 0.761298 1.67167
0.84404 0.511592 -2.46125
0.889204 0.305245 -1.66034
0.735567 0.588127 2.50722
0.773075 0.399169 1.69593
0.870117 0.720479 -1.66167
0.761954 0.76103 1.67167
-0.774081 0.410919 0.02593
-0.821147 0.549201 -0.822092
0.000132127 0.240726 -0.818562
-0.726792 0.59377 0.853022
-4.1288e-07 0.240927 0.862287
-0.812428 0.737147 0.00500011
-4.17188e-06 1.06026 -0.828333
-9.78638e-06 1.20699 0.838334
0.774681 0.408666 0.0177951
0.821275 0.548514 -0.824803
0.726886 0.592658 0.847599
0.812427 0.737146 0.00500011
-0.879049 0.530396 -1.65965
-0.771973 0.571485 0.0154651
-0.771173 0.593448 1.69058
6.60636e-05 0.240448 -1.65899
6.58572e-05 0.240818 0.0218626
0.00167304 0.241206 1.70271
0 0.511592 -2.55084
0.00167325 0.590627 2.52946
-2.08594e-06 0.785809 -1.66167
-6.97913e-06 1.20698 0.00500011
-4.89319e-06 1.20067 1.67167
0.882107 0.530053 -1.661
0.77254 0.570586 0.0113976
0.774135 0.590393 1.6838
-1.29162 0.32671 -2.49819
-0.87059 0.236377 -2.49714
-0.865434 0.312705 -3.16744
-1.12823 0.424259 2.5498
-0.751213 0.334869 2.55662
-0.754898 0.420624 3.21978
-1.30156 0.696393 -2.49682
-0.871941 0.683181 -3.16506
-0.869205 0.964801 -2.50351
-1.1185 0.773975 2.50758
-0.745675 0.774021 3.1785
-0.766322 1.02763 2.49031
0.859194 0.236184 -2.4979
0.872842 0.312616 -3.16778
1.29446 0.326434 -2.49927
0.763933 0.326572 2.54213
0.7584 0.412982 3.20681
1.13675 0.414781 2.53225
0.88008 0.68312 -3.16529
0.854599 0.964654 -2.50405
1.30489 0.696268 -2.49729
0.739041 0.772874 3.17622
0.742742 1.02726 2.48915
1.11881 0.772623 2.50399
-1.22855 0.371515 -0.815901
-0.824743 0.285531 -0.813127
-1.13484 0.436011 0.867342
-0.752075 0.35314 0.872523
-1.24825 0.726785 -0.82868
-0.840429 0.990588 -0.838442
-1.17294 0.751764 0.839102
-0.801342 1.00763 0.824874
0.810131 0.284219 -0.818395
1.23133 0.369926 -0.822273
0.747204 0.350773 0.862361
1.13813 0.433112 0.854938
0.820643 0.990407 -0.8391
1.25114 0.726444 -0.830007
0.778604 1.00738 0.824009
1.17486 0.751145 0.836535
-1.69609 0.13777 -3.16188
-1.70027 0.213036 -3.83305
-1.27541 0.122275 -3.83246
-1.66508 0.177676 -1.65039
-1.70203 0.240102 -2.49458
-1.281 0.14977 -2.49354
-1.58727 0.233499 0.0349884
-1.63573 0.288286 -0.812269
-1.23193 0.202301 -0.809495
-1.5243 0.264747 1.72051
-1.53467 0.347985 0.872769
-1.15191 0.265115 0.87795
-1.51066 0.267064 3.23283
-1.50494 0.34979 2.55539
-1.12792 0.260401 2.56222
-1.51724 0.27411 4.57221
-1.51152 0.352097 3.89612
-1.13269 0.263321 3.90262
-1.52131 0.36452 5.23434
-1.13957 0.276933 5.24029
-1.70621 0.315367 -3.16575
-1.7066 0.484835 -3.83545
-1.28003 0.301362 -3.835
-1.67268 0.350712 -1.65646
-1.71318 0.511511 -2.4978
-1.58314 0.402772 0.0255119
-1.64639 0.549099 -0.822489
-1.51531 0.433029 1.70765
-1.54444 0.594005 0.853422
-1.5058 0.434823 3.21868
-1.50173 0.605107 2.52924
-1.51559 0.442507 4.55826
-1.51156 0.609144 3.87157
-1.13246 0.431188 3.88866
-1.52436 0.621066 5.21206
-1.14024 0.445614 5.22659
-1.71357 0.680978 -3.1675
-1.69684 0.936607 -3.8427
-1.28395 0.667766 -3.83574
-1.6869 0.709898 -1.66383
-1.70003 0.962235 -2.50591
-1.60769 0.740332 0.00542147
-1.65388 0.988777 -0.838912
-1.53086 0.766083 1.67502
-1.58332 1.01232 0.826314
-1.5075 0.779427 3.18213
-1.53721 1.03173 2.49415
-1.52033 0.787702 4.52537
-1.53701 1.04136 3.83508
-1.13467 0.779473 3.85305
-1.54388 1.05385 5.17685
-1.14692 0.790836 5.19555
-1.6833 1.21786 -3.18111
-1.26718 1.20646 -3.84853
-1.66701 1.24111 -1.68099
-1.26767 1.23064 -2.5126
-1.62951 1.26076 -0.0180187
-1.24606 1.25258 -0.848673
-1.58967 1.27796 1.64545
-1.21173 1.26818 0.812087
-1.56673 1.29366 3.1471
-1.18503 1.28538 2.47689
-1.56057 1.3075 4.48656
-1.1757 1.2992 3.81472
-1.17469 1.31312 5.15577
-0.860321 0.134274 -3.16412
-0.855166 0.210601 -3.83441
0.000475849 0.120636 -3.83396
-0.847845 0.174395 -1.65264
-0.011396 0.147561 -2.49564
-0.796572 0.233917 0.0334664
-0.0147436 0.200408 -0.81296
-0.755529 0.260769 1.71966
-0.00487066 0.265533 0.872597
-0.749941 0.256658 3.23201
0.00937308 0.251441 2.55562
-0.755015 0.266145 4.57071
-0.753625 0.342413 3.89516
0.00564987 0.256011 3.89705
-0.758502 0.358028 5.23254
0.0039556 0.271896 5.23552
-0.857375 0.484293 -3.83529
0.00740805 0.30032 -3.83581
-0.757112 0.434296 4.55699
-0.755573 0.601518 3.87014
0.000155522 0.423606 3.88345
-0.762796 0.615385 5.21008
-0.000129215 0.440579 5.22204
-0.854289 0.937616 -3.84157
0.0081392 0.668116 -3.83535
-0.761257 0.782607 4.52323
-0.773362 1.03732 3.83269
-0.00663399 0.775641 3.84972
-0.777726 1.05011 5.17447
-0.00778649 0.787185 5.19176
-0.851553 1.21924 -3.18002
-0.00688193 1.2069 -3.8486
-0.846716 1.24211 -1.68028
-0.0146058 1.23127 -2.51256
-0.828273 1.26 -0.0185675
-0.0197814 1.25262 -0.849209
-0.807083 1.2756 1.64352
-0.022728 1.26696 0.81055
-0.794008 1.29093 3.1445
-0.0235798 1.28363 2.47446
-0.789831 1.30482 4.48393
-0.0217038 1.29728 3.81182
-0.0201481 1.31106 5.15257
0.849401 0.133924 -3.16548
0.86305 0.210355 -3.83536
1.27779 0.121729 -3.83455
0.821706 0.173574 -1.65596
1.26522 0.149092 -2.49619
0.776957 0.232024 0.026171
1.21117 0.200589 -0.816397
0.760032 0.256206 1.70856
1.14695 0.261681 0.865638
0.764964 0.250794 3.22066
1.14522 0.252708 2.54614
0.76462 0.261762 4.56187
0.759431 0.337205 3.88534
1.14491 0.256629 3.88899
0.762328 0.354448 5.22502
1.14832 0.271821 5.22916
0.872923 0.484144 -3.83587
1.29467 0.301003 -3.83638
0.757138 0.42989 4.5485
0.749095 0.597729 3.86303
1.13556 0.424483 3.87562
0.754881 0.612379 5.20372
1.14141 0.440668 5.21602
0.855547 0.937399 -3.84238
1.30011 0.667509 -3.83671
0.746837 0.780218 4.51825
0.745024 1.03561 3.82885
1.1241 0.776089 3.84586
0.749792 1.04814 5.16986
1.13301 0.787235 5.1875
0.830065 1.21893 -3.18114
1.25519 1.20595 -3.8504
0.812329 1.24178 -1.68148
1.24176 1.23015 -2.51442
0.785763 1.25958 -0.0200915
1.21041 1.25198 -0.850883
0.760775 1.27499 1.64149
1.17027 1.26737 0.809192
0.748725 1.28999 3.14178
1.14135 1.28417 2.47308
0.747979 1.30352 4.48046
1.13449 1.29746 3.80986
1.13575 1.31093 5.14997
1.69361 0.136896 -3.16527
1.70941 0.212377 -3.83557
1.65469 0.176106 -1.65663
1.70048 0.239341 -2.49756
1.58117 0.230246 0.0230702
1.63238 0.286295 -0.820275
1.53214 0.258183 1.70322
1.53788 0.34402 0.858215
1.52517 0.258543 3.21447
1.51804 0.340918 2.53627
1.52861 0.266688 4.55628
1.52104 0.343908 3.87926
1.5274 0.358041 5.22016
1.71629 0.314822 -3.16787
1.72186 0.484369 -3.83723
1.67818 0.349531 -1.6612
1.71935 0.51111 -2.49936
1.58909 0.40007 0.0148699
1.65194 0.547856 -0.827477
1.52378 0.426755 1.69126
1.54966 0.591599 0.843875
1.51391 0.426283 3.20106
1.50722 0.599277 2.51624
1.51983 0.435261 4.54314
1.51056 0.602844 3.85844
1.51954 0.615524 5.19981
1.72493 0.680657 -3.16872
1.69976 0.936059 -3.84474
1.69312 0.709436 -1.66563
1.69205 0.961766 -2.50766
1.61251 0.739386 0.00152814
1.6409 0.98802 -0.841789
[...]
POINT_DATA 29498
VECTORS point_vectors float
-9.05537 -5.3558 14.9005
0.662817 0.0870929 3.21339
-9.91543 5.14415 18.2921
0.307886 0.0622547 1.71327
9.18804 -5.26338 14.7935
-0.561659 0.114798 3.52222
9.81001 5.07984 18.2965
-0.278759 -0.00562409 1.70018
0.0155432 -0.00155722 0.307003
-0.000521326 0.016542 0.107349
-0.103245 -0.135371 1.72107
0.035448 0.0903394 0.394701
-0.0232239 -0.000782227 0.370038
7.34366e-05 0.010983 0.0708266
0.103801 -0.138403 1.72578
-0.0357016 0.0913987 0.398667
-0.428911 -0.088501 19.8666
-1.07083 -0.351913 20.4044
-0.327338 -0.286121 21.1276
0.186983 -0.144856 21.2676
0.738844 0.00597388 21.2284
0.860254 0.0955494 20.6289
0.758627 -0.0631362 20.8019
-0.44218 -0.0314405 19.842
-1.19085 -0.201308 20.3719
-0.414915 -0.322568 21.126
0.159641 -0.213884 21.2922
0.752227 -0.0927925 21.2586
0.85247 0.0094559 20.6094
0.53299 -0.260064 21.2736
-0.441783 0.0196712 19.8398
-1.2126 0.0279897 20.3419
-0.635407 -0.321984 21.1078
0.0255169 -0.305157 21.2852
0.655448 -0.316508 21.2999
0.751747 -0.364902 21.2974
0.419361 -0.344098 20.376
-0.365954 0.159456 19.8893
-0.978532 0.378443 20.2817
-0.827174 0.0190549 21.0139
-0.222144 -0.213047 21.2579
0.333673 -0.37489 21.1435
0.518431 -0.42275 20.8216
0.312833 -0.352687 20.2134
-0.42327 -0.212501 19.4247
-3.8864 -4.37263 20.6555
0.394992 -0.0479608 10.2544
0.116054 -0.0504801 5.53255
1.45886 0.611688 11.9791
1.70657 1.12259 15.2455
1.13845 0.673862 15.1379
-0.441943 -0.13073 19.3617
1.78815 0.883134 13.492
1.04495 0.476987 14.7044
-0.459148 0.0878734 19.3377
1.82232 0.0923624 8.84913
0.806931 0.0402884 14.0764
-0.360243 0.317587 19.5292
-1.6987 1.97787 19.8846
-2.72245 1.35696 21.1679
-0.510357 0.108399 18.4357
0.63943 -0.440997 17.3851
0.798452 -0.954542 18.3514
0.210797 -0.565357 19.2805
0.425002 -0.211755 19.4225
4.07106 -4.76301 20.4707
-0.419316 -0.11931 8.63226
-0.140206 -0.0834594 4.6985
-1.46071 0.540662 12.6859
-1.68594 1.05883 15.3536
-1.07721 0.719272 15.2382
0.443625 -0.127501 19.3707
-1.80392 0.837584 13.4807
-1.24231 0.251586 14.9836
0.462767 0.0889408 19.3482
-1.73776 0.193114 9.40421
-0.621161 0.0802083 13.8005
0.358379 0.31869 19.5225
1.69307 2.04849 19.8556
2.81584 1.59327 21.1862
0.38705 0.181765 17.3727
-0.713091 -0.390386 16.4572
-0.952633 -0.882171 18.1638
-0.0983443 -0.532696 19.3344
0.415608 -0.0855615 19.8854
1.07593 -0.354198 20.4038
0.326061 -0.289725 21.129
-0.191387 -0.140485 21.2658
-0.704389 0.00288833 21.2036
-0.749439 0.03061 20.8159
-0.838551 -0.0679155 20.323
0.426562 -0.0392369 19.869
1.17882 -0.200726 20.3712
0.415732 -0.319774 21.123
-0.158005 -0.211891 21.2897
-0.724204 -0.0896822 21.1895
-0.83874 -0.0692926 20.6512
-0.854343 -0.224824 20.502
0.428715 0.0286973 19.8573
1.20287 0.0341104 20.3413
0.626871 -0.316414 21.1045
-0.0251268 -0.306718 21.2913
-0.648977 -0.311584 21.2141
-0.854355 -0.287667 20.9977
-0.88338 -0.238209 20.5094
0.376643 0.156293 19.8838
0.996949 0.394392 20.2732
0.861669 0.019057 21.02
0.236828 -0.226522 21.2639
-0.323113 -0.377954 21.1572
-0.435238 -0.437728 20.7421
-0.521352 -0.260703 20.5981
-5.45535 0.186673 4.40431
0.000325887 -0.321271 0.464541
0.0612196 0.0113484 1.59873
0 0 0
-0.0174502 -0.0167995 0.0417772
0.0109283 0.0309865 0.797354
0.00450703 4.93054 4.84992
-0.0573658 -0.535759 1.84648
-0.00797525 0.0510924 -0.0272802
0.00342971 0.00655453 0.0884069
5.44282 0.236692 4.41669
-0.079613 0.00196021 1.8342
-0.0183115 0.0136171 0.457933
-0.0237488 0.0278073 0.835583
0.058401 -0.538473 1.86342
-0.00326062 0.00557847 0.0825719
0.00500576 0.0134931 0.0838936
0.000179339 -6.09004e-05 0.00361131
6.30422e-08 -3.75505e-08 -3.50324e-05
0 0 0
1.09742e-07 -3.03266e-09 2.70396e-05
0.0250294 0.04449 0.160945
-0.000504358 0.392742 0.493848
-1.48051e-06 -5.13935e-07 -0.000203766
-0.00971889 0.0252922 0.160612
-0.00042853 -0.000161615 0.00854773
0 0 0
-0.0250004 0.0443563 0.161221
0.0185825 -0.072301 0.226992
0.00333244 0.00809647 0.0363994
0 0 0
-1.83325e-07 -3.28184e-07 -6.72764e-05
-1.80328e-08 9.5072e-09 3.84346e-05
-0.000583685 0.00460132 0.13738
4.73487e-06 0.00039773 0.000194634
0 0 0
-3.22947e-07 3.7471e-06 0.000100472
-5.22301e-07 -2.66679e-06 -0.000178292
-5.761e-05 -0.00196693 0.0237058
-0.0201907 -0.0853133 0.272421
-0.00398401 0.00963632 0.0438183
-0.00276535 0.00387833 0.0317349
-2.46547 -0.687364 20.3493
-5.95157 -5.90054 20.8312
-1.38179 -0.575183 18.4286
1.2289 0.0567538 19.6242
1.17775 0.408158 8.28294
1.32318 0.726848 10.427
-2.49286 0.354152 20.24
-1.41985 0.412644 18.3774
-3.17416 3.07278 19.7193
1.02766 -0.291369 18.9162
0.885962 0.117342 6.59852
1.06111 0.354225 8.5579
6.24759 -6.34707 20.3825
1.37956 -0.555591 18.4593
2.45002 -0.667194 20.3382
-1.19587 0.304895 9.08999
-1.27944 0.695374 10.5853
-1.20327 0.0512093 19.6906
1.4211 0.397654 18.4164
3.17284 3.17834 19.6907
2.46536 0.353444 20.2367
-0.781547 0.127404 6.36557
-0.950634 0.318239 7.44365
-1.00492 -0.293022 18.8523
-0.251503 -0.64503 20.8792
0.179889 0.0430552 4.17499
0.546897 -0.213075 18.8278
-0.0452419 0.127834 1.74884
-0.883493 -0.872423 21.2015
-3.91776 -0.328042 14.2986
0.218826 -0.684583 19.5218
0.224876 0.690609 7.36526
-0.124937 0.0213506 2.94077
0.246779 -0.631907 20.9305
0.00826024 0.0855848 1.31089
-0.551966 -0.21352 18.8345
4.1151 -0.33052 13.6254
0.876635 -0.8607 21.2222
-0.269779 0.757504 6.22269
-0.21972 -0.684858 19.5713
-0.76874 -0.221382 19.9558
-0.436215 -0.0561268 19.8528
-0.455356 -0.136235 19.679
-0.701023 -0.299533 20.9703
-1.16088 -0.29695 20.3899
-2.0319 -0.963798 20.4183
-0.03115 -0.216717 21.2173
-0.359891 -0.304115 21.1284
-0.131546 -0.429218 21.2497
0.426427 -0.0768889 21.3511
0.177193 -0.176326 21.2737
0.479181 0.00862097 19.874
0.8778 0.0886792 20.8826
0.746357 -0.0459951 21.2486
1.17961 0.299991 20.0704
0.751183 -0.133718 20.9776
0.856362 0.0525026 20.6191
1.42759 0.327555 19.5985
0.645809 -0.1616 21.0377
0.664259 0.25604 20.7627
-0.833403 -0.118241 19.9183
-0.443295 -0.00468682 19.8389
-0.47995 -0.0873158 19.6385
-0.789538 -0.27727 20.9688
-1.27485 -0.0912665 20.3587
-0.0874047 -0.285101 21.2516
-0.504406 -0.33109 21.1166
0.409195 -0.152646 21.3636
0.0990796 -0.267625 21.2992
0.921053 -0.0439038 21.1297
0.724933 -0.217776 21.2722
0.924953 -0.251948 21.4702
0.809092 -0.164269 20.9011
1.47519 0.120608 20.0276
0.441477 -0.345909 21.001
0.565101 0.0550405 20.4424
-0.84076 0.0400481 19.9031
-0.427348 0.10235 19.8519
-0.484266 0.0582767 19.6272
-0.915982 -0.148463 20.9034
-1.13428 0.259626 20.3016
-0.27821 -0.33722 21.2697
-0.782174 -0.156972 21.0643
0.297408 -0.28569 21.3735
-0.141668 -0.297118 21.2559
0.824861 -0.31036 21.0612
0.482941 -0.376331 21.2332
0.781508 -0.349644 21.2982
0.641049 -0.436265 20.8332
1.39268 -0.338561 17.821
0.404003 -0.347541 19.7299
0.382683 -0.358052 19.6215
-0.695379 0.287144 19.9492
-0.394848 0.220282 19.7311
-0.933214 0.186412 20.7385
-1.41441 0.862325 20.164
-0.523903 -0.130201 21.2283
-1.47549 0.174536 21.126
0.0386241 -0.283473 21.2563
-0.477369 -0.229545 21.3961
0.482117 -0.410664 20.9449
0.339062 -0.54738 21.1658
0.418573 -0.321545 20.8813
0.429038 -0.716608 20.6864
0.310542 -0.48614 19.6296
-1.22058 -0.875435 18.7098
-0.431643 -0.174698 19.3865
-0.0016155 -0.331821 19.1162
0.0784977 0.0947002 12.8718
-0.0114619 -8.27949 21.5608
0.115624 0.472241 7.86569
0.00473772 0.00111679 2.73071
0.493503 -0.0349872 7.61949
0 0 0
1.63926 1.06845 14.8201
-0.0743838 0.358421 3.73027
1.43167 0.661945 14.0942
1.76923 1.04909 14.6412
0.00460642 1.33791 8.27471
1.0917 0.575425 14.9211
0.000602286 0.517045 13.2776
-0.456128 -0.0242375 19.3458
0.00481823 -0.188899 19.039
1.61376 0.672775 11.1387
1.83157 0.534556 11.0203
0.09853 0.903839 2.38698
0.947679 0.273523 14.2858
0.0252035 0.302716 11.4549
-0.418513 0.212309 19.4128
0.00631248 0.116609 18.9965
1.44536 0.161145 12.5808
1.31741 -0.461251 13.8778
0.225612 -0.195582 -2.16621
0.287312 -0.469967 16.0612
0.0745764 -0.139703 7.71037
-0.870869 0.896199 19.2256
-0.00303149 0.416027 19.3032
-1.90479 1.25973 20.7102
-0.0261374 3.41694 19.6308
-1.43121 0.26558 20.7793
-0.117788 5.65568 18.4252
0.0810254 0.048195 17.3986
0.0165387 0.0323626 4.45988
0.735833 -0.740925 17.9284
-0.0393183 -0.540365 8.26413
0.605327 -0.755722 19.7674
0.0866117 -1.23547 14.2318
0.055334 -0.36093 10.3958
1.20874 -0.875753 18.6908
0.433057 -0.172596 19.3893
0.449719 -0.135566 19.6847
-0.182736 -0.00333492 11.4598
2.10803 -1.01078 20.3994
-0.0753837 0.363079 6.54157
0.0914358 -0.400833 21.1377
-0.546132 -0.0364174 8.09774
-0.48623 0.0317751 19.8086
-1.65197 0.987242 15.1591
-1.13523 0.288212 20.2611
-1.15529 0.933695 14.0538
-1.80007 0.949165 14.5354
-1.33914 0.401212 19.7005
-1.15976 0.485429 15.1109
-0.825095 0.0938058 21.2915
0.462607 -0.0228944 19.353
0.472205 -0.0863665 19.6488
-1.40226 0.767655 12.5373
-1.80959 0.588193 11.3316
-1.52983 0.107294 19.6479
-1.06181 0.100537 14.3306
-1.00802 -0.407426 21.2539
0.418838 0.213869 19.4141
0.475445 0.0582846 19.6399
-1.37333 0.266254 11.7115
-1.33908 -0.397386 13.4308
-1.36258 -0.299632 17.7364
-0.0321516 -0.449828 15.8068
-0.4276 -0.515198 19.9544
0.857648 0.913634 19.2087
0.39381 0.221804 19.7254
1.8985 1.36926 20.6862
1.45279 0.90909 20.1536
1.45585 0.295626 20.4544
1.56291 0.203833 21.1346
-0.203532 0.145358 16.1618
0.517693 -0.216216 21.3844
-0.742661 -0.70606 17.3807
-0.330858 -0.553889 21.0773
-0.707377 -0.850486 19.2662
-0.568323 -0.700789 20.4873
-0.126744 -0.472534 19.7352
0.775811 -0.211141 19.9459
0.420475 -0.0641307 19.8747
0.707509 -0.300656 20.9751
1.16061 -0.298627 20.387
0.0322698 -0.217476 21.2196
0.357489 -0.303474 21.1276
-0.417107 -0.06843 21.3083
-0.178453 -0.175139 21.276
-0.849698 0.06994 21.0114
-0.715465 -0.0439946 21.1953
-0.663746 -0.00220342 20.7449
-0.794089 -0.0193413 20.7335
-0.846447 -0.14637 20.4125
0.797063 -0.118225 19.927
0.429711 -0.00416236 19.8634
0.789789 -0.271062 20.966
1.26924 -0.0896866 20.3549
0.0902421 -0.280988 21.2504
0.503324 -0.325361 21.1133
-0.399243 -0.145063 21.3137
-0.0996428 -0.266571 21.2973
-0.891787 -0.0380135 20.9834
-0.706952 -0.209493 21.1987
-0.625836 -0.0630888 20.9969
-0.863435 -0.20185 20.7365
-0.858247 -0.283646 20.505
0.835716 0.0461655 19.9102
0.412733 0.0981546 19.864
0.91223 -0.143759 20.9002
1.13782 0.27015 20.2982
0.275086 -0.335643 21.2634
0.793815 -0.16047 21.0683
-0.299611 -0.278765 21.3386
0.143929 -0.303478 21.2673
-0.841922 -0.315465 21.0354
-0.472858 -0.389003 21.1793
-0.641634 -0.292991 20.9669
-0.733927 -0.467778 21.0016
-0.914887 -0.182564 20.4941
0.699849 0.292759 19.9369
0.958998 0.199235 20.7421
0.547663 -0.142137 21.238
-0.0350624 -0.294271 21.253
-0.492135 -0.431833 20.9648
-0.437152 -0.349829 20.8411
-0.811722 -0.180995 19.937
-1.31282 -0.719955 18.5429
-1.08396 -0.450504 19.528
-1.19294 -0.287943 19.4249
-0.471641 -0.115159 19.6526
-2.23821 -0.851333 20.3902
-0.736539 -0.300219 20.9794
0.210107 0.0520976 5.26167
-0.711167 -0.560706 21.4014
-0.902287 -0.601356 21.5017
-0.175822 -0.553238 21.0281
-0.0548199 -0.251214 21.2339
0.0858211 0.311315 2.95227
0.299689 -0.139649 20.5506
0.340797 -0.417561 19.5161
0.522638 -0.100288 19.4097
0.418252 -0.111604 21.3524
0.153005 -0.0162336 3.00264
0.741542 0.11516 20.0147
0.758457 -0.0712072 19.4974
1.21952 0.173383 19.9112
0.906213 0.0279964 20.9864
1.50102 0.909815 12.5558
1.33986 0.42399 20.1738
1.48451 0.173436 19.7725
1.47137 0.246245 19.619
0.838068 -0.192833 21.2239
1.52382 0.66731 12.6131
1.08517 0.176358 19.7787
1.26697 0.189729 16.7993
0.613676 0.155407 20.6121
-0.862328 -0.0359419 19.8916
-1.4938 -0.0873188 18.2109
-1.20911 0.169375 19.39
-0.482108 -0.0145195 19.6329
-2.7024 -0.171137 20.324
-0.847283 -0.219046 20.9439
-1.28133 -0.30061 21.2705
-0.501782 -0.829393 20.8831
-0.15447 -0.326945 21.2629
-0.164758 -0.971614 20.5538
0.496395 -0.435519 18.7827
0.360534 -0.235754 21.369
0.521593 -0.428564 19.2714
1.17604 -0.141867 19.2235
0.893043 -0.186146 21.1362
0.703246 0.290013 6.92917
1.28498 -0.400462 19.4338
1.42598 -0.0972264 20.3139
0.899476 -0.353341 21.4303
1.63082 0.475395 10.8153
1.10404 -0.324619 18.2379
0.473892 -0.151506 20.032
-0.774435 0.197395 19.9104
-1.15049 0.798883 18.7826
-0.884932 0.528604 19.6522
-0.449998 0.144457 19.6643
-1.97587 0.771081 20.1877
-0.974358 0.0224706 20.8134
-2.86407 0.322094 19.8132
-1.39539 0.446645 20.7928
-1.51461 -0.44689 21.2376
-0.451962 -0.271753 21.2627
-0.357225 0.25207 9.27107
-0.941183 -0.0903038 21.4952
-0.364004 -0.559052 20.6522
0.144817 -0.325062 21.2976
0.455819 0.770966 7.73898
-0.100091 -0.349413 21.3646
0.621785 -0.574576 20.125
0.666421 -0.414509 21.06
1.18257 -0.0568675 10.9225
0.5193 -0.674809 20.9785
0.979391 -0.598462 19.995
0.587844 -0.336581 21.1319
1.01392 -0.343073 16.4293
0.667086 -0.508631 19.8266
0.324327 -0.488373 19.0917
1.30656 -0.713926 18.5436
-0.00748182 -1.48419 17.6237
0.0141113 -1.04384 17.0344
0.00140672 -0.259701 19.084
0.00227849 -6.77254 14.1604
-0.219828 0.0097894 4.21629
0.00474021 -0.0506168 5.06667
0 0 0
-0.0623259 0.211655 2.10494
0.000340227 0.000122584 0.517699
0 0 0
-0.182982 -0.0144252 3.45562
0 0 0
-0.076193 0.0820438 1.13359
-1.47336 0.853778 12.851
-0.0853361 0.621513 6.07547
0.00551334 0.00141823 0.199583
0.0452052 1.21123 5.44265
-1.27877 0.850675 13.2956
-0.0848208 1.24118 11.6439
0.116111 1.19671 7.66354
0.0129029 0.40988 12.3663
1.49159 -0.0858414 18.2554
0.01549 0.789582 16.9443
0.00840284 -0.0406184 18.9133
-0.669963 0.258918 6.73556
0.200315 -0.112877 -3.40498
0.183372 0.353825 -1.34624
-1.45104 0.533962 11.7016
0.0780602 -0.270668 4.35206
0.0498899 0.0815064 9.58262
1.14487 0.808243 18.7781
-0.0123051 1.40846 18.6473
0.000460435 0.3253 19.1027
-0.0118162 5.84156 19.5848
2.90582 0.411335 19.7281
-0.0205772 2.37982 20.4861
-0.0246537 2.91456 3.69491
0.194746 0.400143 7.94295
0.00363381 0.156415 5.42907
0 0 0
-0.439166 0.765102 6.636
0.0171577 -0.1736 5.70124
-0.158483 0.542263 -0.194458
-1.0557 -0.0502313 10.0348
-0.05169 -0.741302 10.8061
-0.0260127 -1.43748 1.9761
-1.04364 -0.302439 15.5182
-0.0720066 -1.27614 12.4966
0.0869232 -0.470947 6.06144
0.786328 -0.166866 19.9387
1.08471 -0.45074 19.5095
1.17435 -0.280109 19.439
0.464705 -0.113514 19.659
2.25894 -0.847504 20.3781
0.73564 -0.295915 20.9812
0.702226 -0.563958 21.4478
0.906838 -0.577837 21.4941
0.155237 -0.53653 20.9869
0.0563886 -0.249623 21.2339
-0.323633 -0.113755 20.429
-0.343785 -0.411575 19.5986
-0.530518 -0.0802324 19.2801
-0.408268 -0.10345 21.3084
-0.725504 0.124919 20.1282
-0.764779 -0.0762381 19.4966
-1.18254 0.164655 19.9918
-0.873413 0.0181981 21.004
-1.30885 0.370156 20.2862
-1.46619 0.136812 19.8245
-1.47129 0.258419 19.4576
-0.644791 -0.0326461 20.8709
-1.1088 0.200967 20.2813
-1.32053 -0.010907 19.3175
-0.916557 -0.15681 21.2727
0.862451 -0.0366016 19.9084
1.19662 0.16538 19.4067
0.473825 -0.0140409 19.6443
2.68126 -0.158175 20.3164
0.846431 -0.213247 20.9401
1.27198 -0.298348 21.2638
0.496216 -0.819409 20.9411
0.15569 -0.322858 21.263
0.161514 -0.965264 20.609
-0.492353 -0.430898 18.8353
-0.357623 -0.225581 21.3255
-0.512639 -0.43828 19.2592
-1.1575 -0.138697 19.1812
-0.888764 -0.180404 20.9908
-1.28293 -0.374855 19.3061
-1.52489 -0.145389 19.7795
-0.596321 -0.20325 21.1229
-1.23374 -0.458356 19.2893
-0.839613 -0.578154 20.7585
0.773914 0.202254 19.9066
0.888136 0.54672 19.6245
0.44346 0.143816 19.6677
2.00174 0.793884 20.1813
0.983413 0.0272653 20.8178
1.43917 0.471619 20.7936
1.57819 -0.464224 21.2445
0.45605 -0.277573 21.2661
0.995521 -0.0699067 21.5235
0.384444 -0.566166 20.4885
-0.145425 -0.33156 21.2716
0.125398 -0.350335 21.3053
-0.617703 -0.551477 19.7511
-0.658397 -0.40846 20.9523
-0.513946 -0.681908 20.8632
-0.970501 -0.620503 19.6236
-0.575732 -0.440989 20.8317
-0.690936 -0.614331 19.3708
-0.1339 -0.448097 19.3385
-1.1579 -0.379479 19.4736
-0.795539 -0.609876 21.4325
0.341005 -0.276752 19.8424
0.754202 0.0172135 19.79
1.44243 0.310741 19.9314
1.17607 0.183043 18.289
-1.2833 -0.0609609 19.3679
-1.13855 -0.474186 21.4823
0.225075 -0.800643 19.8289
0.700172 -0.272717 19.3491
1.48418 -0.182323 19.6023
1.2754 -0.0135177 16.5801
-1.05567 0.407661 19.5066
-1.48261 0.0255998 20.9999
-0.85495 -0.607046 21.2852
0.0463623 -0.503254 20.3427
0.878205 -0.636343 19.8922
0.90037 -0.518745 19.32
0.00271231 -1.32451 17.2376
0.00215112 -0.000592369 0.512046
0 0 0
0 0 0
-0.0663623 0.28838 2.99707
0.0156447 1.21895 9.6537
0.0170439 -0.126834 16.5757
0.190319 -0.240287 -3.07971
0.137964 0.602207 5.25817
-0.00301692 1.38436 17.8162
-0.0109423 1.64543 17.1765
0 0 0
0 0 0
-0.0993597 -0.0102303 0.349857
-0.041091 -1.44944 3.79889
1.14272 -0.371763 19.4771
0.782237 -0.595517 21.4373
-0.35409 -0.262958 19.8276
-0.757477 0.0206404 19.7805
-1.40777 0.262254 20.0667
-1.24185 0.102864 19.6448
1.26525 -0.0565726 19.3913
1.13196 -0.463574 21.4709
-0.226533 -0.796431 19.9205
-0.707293 -0.268556 19.3069
-1.46052 -0.168143 19.5956
-1.25352 -0.204275 19.6708
1.05511 0.405343 19.4986
1.50683 0.015995 21.0054
0.885049 -0.625875 21.2286
-0.0378518 -0.504665 20.1791
-0.867753 -0.625533 19.7066
-1.12095 -0.779409 18.3071
-4.40072 -0.206458 5.56788
0.0199059 -1.8264 0.785307
-0.0697833 0.0426122 3.34749
0 0 0
-0.0770179 0.0617832 0.183322
0.0359861 -0.0273782 0.669773
-3.23073 0.279445 4.34389
0 0 0
-0.273414 -0.391656 2.82872
0.0313197 0.030784 0.203898
-0.051492 0.0209356 -0.0130512
0.00685216 0.0124706 0.0872036
0.313678 -2.70954 1.33951
4.57462 -0.122447 5.65391
0.0573382 0.0355223 3.39483
0.055229 0.0386779 0.1275
-0.0624712 -0.0327409 0.869326
-0.0144857 -0.0115415 0.40294
0 0 0
3.0233 0.307406 4.19582
0.273056 -0.386937 2.85833
0.0545557 0.0330076 -0.0206151
-0.0851514 0.0359809 0.494919
-0.00416482 0.00731914 0.0521386
0.0297832 -0.0269473 0.512099
0.00701175 0.0210946 0.216618
0 0 0
0 0 0
-0.0491244 -0.02808 0.940804
0.00096637 0.00397145 0.022225
0.00232757 0.0238401 0.12063
0 0 0
-0.207144 -0.374716 0.928081
0 0 0
0.0448835 0.107758 0.605548
-1.11053 0.393071 1.17878
0.014926 0.0377895 0.189592
0 0 0
0.0248227 0.0476754 0.180731
0.0148467 0.00575676 0.211113
-0.028458 -0.0281878 0.455006
0 0 0
-0.0108266 0.0295876 0.315977
0 0 0
0.13775 -0.00237572 0.997571
0 0 0
-0.00131178 0.00554539 0.0313128
-0.00165024 0.0167121 0.0850667
0.208331 -0.377534 0.932115
1.06981 0.378595 1.11418
0 0 0
-0.044243 0.102122 0.588993
-0.0145199 0.0344676 0.174293
-0.0150714 0.0058228 0.211345
0 0 0
-0.0245932 0.0472079 0.180037
-0.0257511 -0.0441555 0.279381
0 0 0
-1.08047e-08 -8.8313e-09 -7.40722e-07
0 0 0
0 0 0
-1.4686e-06 -9.89237e-09 -9.09716e-06
0.000232461 0.000464863 0.00777362
0 0 0
-2.78244e-05 0.000318123 0.00188321
-0.00204579 -0.0484513 0.00529203
0.00587537 0.0145525 0.198598
0.0119194 0.00430637 0.141649
-2.41216e-05 0.000284492 7.39638e-05
-2.60302e-06 4.4759e-05 0.000885635
0 0 0
-0.0623918 0.00548672 0.0926887
-0.00028776 -0.000404478 -0.000119032
-7.3195e-07 -9.92314e-06 3.64089e-05
0 0 0
0.00466046 -0.00345117 0.0436732
0 0 0
0.0260387 -0.044859 0.283644
4.44743e-06 -1.05221e-07 -4.15944e-05
0 0 0
0 0 0
-0.00028514 0.000608173 0.00943058
-0.0121638 0.00496038 0.141637
-0.00666778 0.0140037 0.212213
0.0660396 0.00593326 0.100797
0 0 0
-0.00453758 -0.00350902 0.0435314
0 0 0
0 0 0
0 0 0
0 0 0
0.00737662 0.020356 0.111737
2.68792e-08 -5.88543e-08 -1.60412e-05
-1.04455e-08 5.77045e-09 1.72591e-05
0 0 0
0 0 0
3.01443e-08 8.03631e-10 -1.29808e-05
-6.9569e-06 2.78406e-06 0.00128249
0 0 0
0.0277171 0.0146876 0.435514
-2.88344e-05 -0.000183968 -0.00284462
-9.44859e-07 0.000560427 0.00732691
1.14937e-06 1.24141e-06 0.000173242
-8.155e-07 -6.23681e-08 -0.00011443
0 0 0
0 0 0
5.32563e-06 3.60448e-05 -0.000169574
-0.00832383 0.0235021 0.128571
0 0 0
0 0 0
-0.0277975 0.0146932 0.435718
0 0 0
-0.00106518 -0.00216492 0.0488319
-0.0553897 -0.0792368 0.410304
9.37827e-06 -2.90859e-05 0.000270448
0 0 0
3.27e-18 8.20122e-18 6.69473e-17
0 0 0
0 0 0
0 0 0
0 0 0
0 0 0
0.00418575 0.00479165 0.125644
0 0 0
-4.10429e-06 -3.40868e-07 -4.06691e-05
3.03185e-07 -5.79201e-07 -4.54284e-05
1.36446e-05 1.56314e-07 9.96844e-05
-1.48131e-05 3.08204e-07 0.000135366
0 0 0
0 0 0
0 0 0
0 0 0
8.36417e-05 3.90327e-06 0.00189558
-2.17031e-05 1.13246e-06 0.000493964