# vtk DataFile Version 2.0
tri_press
ASCII
DATASET UNSTRUCTURED_GRID
POINTS 3682 float
-0.875 0.325 -2.49941
-0.755 0.415 2.55127
-0.885 0.698184 -2.495
-0.735 0.771254 2.505
0.875 0.325 -2.49941
0.761693 0.405 2.535
0.885 0.698184 -2.495
0.735 0.771254 2.505
-0.819974 0.370026 -0.81585
-0.740518 0.439482 0.86771
-0.840836 0.728376 -0.828333
-0.78616 0.748058 0.838334
0.820239 0.368659 -0.821273
0.740517 0.437278 0.856864
0.840827 0.728368 -0.828333
0.786141 0.748038 0.838334
-1.69636 0.123756 -3.83157
-1.69582 0.151785 -2.4922
-1.63434 0.203566 -0.808586
-1.54019 0.263431 0.878563
-1.50841 0.266063 2.56245
-1.51292 0.268066 3.90321
-1.52156 0.280153 5.2412
-1.70418 0.302315 -3.83454
-1.70824 0.32842 -2.49697
-1.63712 0.373005 -0.815951
-1.52916 0.43254 0.866975
-1.50146 0.433518 2.54833
-1.51013 0.436128 3.88904
-1.52106 0.448886 5.22748
-1.70901 0.667354 -3.83636
-1.71813 0.694601 -2.49863
-1.65566 0.725194 -0.829027
-1.55972 0.755471 0.83987
-1.502 0.776695 2.51016
-1.51299 0.782159 3.8541
-1.52767 0.793245 5.19664
-1.68466 1.20586 -3.84904
-1.68193 1.22987 -2.51319
-1.65209 1.25236 -0.848796
-1.60693 1.26916 0.812759
-1.57242 1.28676 2.47814
-1.56103 1.30056 3.81606
-1.5601 1.31445 5.15706
-0.854463 0.120793 -3.83336
-0.866179 0.147754 -2.49488
-0.829511 0.201036 -0.810403
-0.763632 0.266799 0.877336
-0.747427 0.254739 2.56198
-0.752455 0.258577 3.90203
-0.757575 0.273713 5.23938
-0.855869 0.300409 -3.83546
-0.754795 0.426249 3.88828
-0.759428 0.442342 5.22569
-0.858882 0.668177 -3.83512
-0.756351 0.776788 3.852
-0.766164 0.788427 5.19446
-0.849697 1.20706 -3.84802
-0.853409 1.23142 -2.51201
-0.840022 1.2528 -0.84855
-0.816523 1.2672 0.811415
-0.797643 1.28401 2.47563
-0.790373 1.29785 3.81337
-0.789288 1.31179 5.15448
0.855414 0.120479 -3.83457
0.843387 0.147369 -2.4964
0.800024 0.19978 -0.815516
0.753891 0.264268 0.867858
0.766173 0.248143 2.54926
0.763755 0.253445 3.89207
0.765486 0.270079 5.23167
0.870685 0.300231 -3.83615
0.755107 0.420964 3.87862
0.75917 0.438816 5.21838
0.87516 0.668056 -3.83558
0.743083 0.774493 3.84745
0.750591 0.785942 5.18905
0.835933 1.20674 -3.84918
0.824198 1.23112 -2.5131
0.800459 1.25245 -0.849867
0.771067 1.26672 0.809684
0.750483 1.28326 2.4733
0.746966 1.29672 3.81026
0.748992 1.31033 5.15066
1.70017 0.122978 -3.83454
1.68705 0.150814 -2.49599
1.62232 0.201397 -0.817277
1.54002 0.259094 0.863418
1.52427 0.257272 2.54303
1.52607 0.259813 3.8859
1.53116 0.273563 5.22666
1.71866 0.301775 -3.8366
1.71392 0.327868 -2.49913
1.64243 0.371193 -0.823273
1.53574 0.428947 0.853013
1.51181 0.424563 2.5295
1.516 0.428003 3.87262
1.52365 0.442519 5.21367
1.72507 0.666963 -3.83785
1.72479 0.694352 -2.49959
1.66144 0.724519 -0.83168
1.56358 0.754252 0.834736
1.50263 0.773992 2.50298
1.50511 0.777685 3.84427
1.51542 0.788528 5.18595
1.67444 1.20516 -3.85163
1.65932 1.22918 -2.51573
1.62035 1.25152 -0.851899
1.56948 1.26802 0.8087
1.53221 1.28507 2.47287
1.52202 1.29819 3.80946
1.5225 1.31152 5.14929
-0.844045 0.511592 -2.46125
0 0.288481 -2.53593
-0.887285 0.307715 -1.65763
-0.738421 0.593127 2.52156
0.0033465 0.409401 2.54373
-0.773021 0.401979 1.70949
0 0.742484 -2.5393
-0.870127 0.720489 -1.66167
0 0.803373 2.53712
-0.762223 0.761298 1.67167
0.84404 0.511592 -2.46125
0.889204 0.305245 -1.66034
0.735567 0.588127 2.50722
0.773075 0.399169 1.69593
0.870117 0.720479 -1.66167
0.761954 0.76103 1.67167
-0.774081 0.410919 0.02593
-0.821147 0.549201 -0.822092
0.000132127 0.240726 -0.818562
-0.726792 0.59377 0.853022
-4.1288e-07 0.240927 0.862287
-0.812428 0.737147 0.00500011
-4.17188e-06 1.06026 -0.828333
-9.78638e-06 1.20699 0.838334
0.774681 0.408666 0.0177951
0.821275 0.548514 -0.824803
0.726886 0.592658 0.847599
0.812427 0.737146 0.00500011
-0.879049 0.530396 -1.65965
0.882107 0.530053 -1.661
6.60636e-05 0.240448 -1.65899
-2.08594e-06 0.785809 -1.66167
0 0.511592 -2.55084
-0.771973 0.571485 0.0154651
0.77254 0.570586 0.0113976
6.58572e-05 0.240818 0.0218626
-6.97913e-06 1.20698 0.00500011
-0.771173 0.593448 1.69058
0.774135 0.590393 1.6838
0.00167304 0.241206 1.70271
-4.89319e-06 1.20067 1.67167
0.00167325 0.590627 2.52946
-0.842095 0.418296 -2.4629
-0.4375 0.302403 -2.52201
-0.89972 0.29778 -2.07852
-0.691703 0.504063 2.48141
-0.375827 0.412165 2.54754
-0.739965 0.432535 2.13038
-0.845993 0.604888 -2.4596
-0.4425 0.616459 -2.41328
-0.872176 0.703949 -2.07833
-0.734346 0.682191 2.51091
-0.3675 0.803373 2.53712
-0.752773 0.770438 2.08833
0.4375 0.302734 -2.52168
0.842088 0.418296 -2.4629
0.899696 0.297529 -2.07988
0.38252 0.406592 2.53998
0.74902 0.496564 2.5215
0.739961 0.429507 2.11547
0.4425 0.616247 -2.41306
0.84599 0.604888 -2.45959
0.872097 0.70387 -2.07833
0.3675 0.803373 2.53712
0.740442 0.679691 2.51127
0.751784 0.769449 2.08833
-0.835626 0.356874 -1.23674
-0.800509 0.386991 -0.39496
-0.82014 0.459824 -0.818971
-0.4415 0.242219 -0.817206
-0.780919 0.396581 1.2886
-0.742363 0.440137 0.44682
-0.740578 0.513165 0.860366
-0.419142 0.242438 0.864999
-0.85527 0.724222 -1.245
-0.809054 0.62782 -0.825213
-0.826156 0.732286 -0.411667
-0.498049 1.04957 -0.828333
-0.773558 0.754045 1.255
-0.735192 0.660272 0.845678
-0.799073 0.742381 0.421667
-0.500202 1.19176 0.838334
0.835726 0.355947 -1.24081
0.441422 0.242219 -0.819918
0.800821 0.385301 -0.401739
0.820337 0.458796 -0.823038
0.780967 0.394053 1.2764
0.418593 0.242433 0.859575
0.743068 0.437503 0.437329
0.740583 0.511527 0.852231
0.855271 0.724222 -1.245
0.497595 1.04868 -0.828333
0.809223 0.627527 -0.826568
0.826157 0.732287 -0.411667
0.773558 0.754044 1.255
0.50019 1.19176 0.838334
0.735052 0.659617 0.842966
0.79905 0.742358 0.421667
-0.896233 0.520994 -2.06045
-0.422022 0.511592 -2.49772
3.30318e-05 0.240435 -2.09746
0 0.400037 -2.55123
-0.868208 0.419056 -1.65864
-0.44361 0.240446 -1.65831
-0.724916 0.593288 2.10607
-0.368374 0.591877 2.53865
0.00250977 0.309386 2.12322
0.00250988 0.500014 2.55623
-0.771211 0.497714 1.70003
-0.385674 0.241207 1.7061
-1.04297e-06 0.765446 -2.10048
0 0.627038 -2.55051
-0.847124 0.625443 -1.66066
-0.435065 0.784298 -1.66167
-2.4466e-06 1.12467 2.10439
0.000836626 0.697 2.53747
-0.729759 0.677373 1.68112
-0.381114 1.20067 1.67167
0.896196 0.520822 -2.06112
0.42202 0.511592 -2.49772
0.871553 0.417649 -1.66067
0.444635 0.240451 -1.65966
0.724981 0.58926 2.09551
0.36862 0.589377 2.53863
0.772105 0.494781 1.68987
0.387374 0.241206 1.69932
0.847557 0.625266 -1.66134
0.435057 0.784298 -1.66167
0.72941 0.675711 1.67773
0.380975 1.20067 1.67167
-0.774383 0.490524 0.0206976
-0.428786 0.242312 0.0238963
-0.836112 0.539799 -1.24087
-0.801838 0.560343 -0.403313
9.90954e-05 0.240692 -1.23877
9.89922e-05 0.240755 -0.39835
-0.731964 0.582628 0.434243
-0.725412 0.593609 1.2718
3.27222e-05 0.240893 0.442075
0.000836316 0.240846 1.2825
-0.76564 0.641036 0.0102326
-0.513475 1.18658 0.00500011
-3.12891e-06 0.805058 -1.245
-5.57551e-06 1.19461 -0.411667
-8.38276e-06 1.20698 0.421667
-7.33979e-06 1.20697 1.255
0.774833 0.489015 0.0145963
0.428589 0.24231 0.0198288
0.836173 0.539283 -1.2429
0.801914 0.55955 -0.406703
0.732633 0.581622 0.429498
0.725384 0.591525 1.2657
0.765685 0.640466 0.00819886
0.513469 1.18658 0.00500011
-0.898444 0.418676 -2.06948
-0.836134 0.439334 -1.23881
-0.832081 0.632116 -1.24294
-0.891953 0.615165 -2.06939
0.898454 0.417972 -2.0705
0.891954 0.615077 -2.06973
0.832234 0.631853 -1.24395
0.836207 0.438118 -1.24186
-0.440555 0.240436 -2.08799
0.441067 0.240436 -2.08867
0.42741 0.240693 -1.23979
-0.426765 0.240693 -1.23776
-0.438782 0.676457 -2.08941
-0.427742 0.804287 -1.245
0.427735 0.804287 -1.245
0.438779 0.676427 -2.08941
-0.429761 0.409166 -2.53533
-0.432261 0.615963 -2.39814
0.43226 0.615963 -2.3981
0.42976 0.409166 -2.53267
-0.800716 0.473447 -0.399137
-0.742896 0.509137 0.440532
-0.73831 0.644601 0.427955
-0.789805 0.635657 -0.40749
0.800953 0.472221 -0.404221
0.789658 0.635098 -0.409185
0.738263 0.643989 0.425582
0.743433 0.507408 0.433414
-0.435154 0.242243 -0.396655
0.435017 0.242242 -0.400044
0.423578 0.242397 0.439702
-0.423952 0.2424 0.444447
-0.531228 1.16901 -0.411667
-0.506839 1.18917 0.421667
0.506829 1.18917 0.421667
0.531233 1.16903 -0.411667
-0.752105 0.50717 1.2802
-0.73882 0.500889 2.11822
-0.727224 0.679782 2.0972
-0.732495 0.674144 1.2634
0.741357 0.504874 1.27105
0.732241 0.67303 1.26035
0.726393 0.677701 2.09192
0.740152 0.495672 2.10549
-0.377967 0.240847 1.28555
0.378816 0.240846 1.27945
0.384947 0.308742 2.11934
-0.38075 0.30998 2.1268
-0.387099 1.20697 1.255
-0.374307 1.12711 2.09636
0.374237 1.12716 2.09636
0.38702 1.20697 1.255
-0.3721 0.502039 2.54972
0.37557 0.498289 2.56187
0.36806 0.688345 2.5375
-0.367937 0.689595 2.5375
-0.866122 0.371648 -2.48873
-0.65625 0.289474 -2.53494
-0.885761 0.312988 -2.28896
-0.757994 0.459532 2.55098
-0.565413 0.413586 2.5494
-0.758008 0.413242 2.34083
-0.846921 0.651536 -2.45872
-0.66375 0.700573 -2.49739
-0.873872 0.69635 -2.28667
-0.738221 0.726722 2.5115
-0.55125 0.776941 2.51069
-0.748648 0.775607 2.29667
0.65625 0.308203 -2.51621
0.865427 0.371648 -2.48804
0.885661 0.312951 -2.28964
0.572106 0.405162 2.53812
0.761853 0.450782 2.53475
0.76187 0.406211 2.32523
0.66375 0.700588 -2.4974
0.846919 0.651536 -2.45872
0.873855 0.696333 -2.28667
0.55125 0.770502 2.50425
0.737556 0.725472 2.50797
0.748636 0.775596 2.29667
-0.829852 0.361398 -1.0263
-0.810287 0.378463 -0.605405
-0.820064 0.414921 -0.817411
-0.662296 0.243004 -0.816528
-0.740185 0.438565 1.07816
-0.740552 0.440698 0.657265
-0.740552 0.476321 0.864038
-0.628628 0.243365 0.866354
-0.847628 0.725874 -1.03667
-0.816635 0.673943 -0.826773
-0.833539 0.730374 -0.62
-0.66923 0.888552 -0.828333
-0.779726 0.750918 1.04667
-0.763841 0.705747 0.842006
-0.792546 0.745148 0.63
-0.653353 0.99025 0.838334
0.830067 0.360218 -1.03104
0.662049 0.243003 -0.820596
0.810567 0.376943 -0.611506
0.820294 0.413725 -0.822156
0.740182 0.436225 1.06663
0.627803 0.243359 0.858219
0.740545 0.438638 0.647096
0.740554 0.474401 0.854547
0.84764 0.725886 -1.03667
0.669249 0.8886 -0.828333
[...]
POINT_DATA 3682
SCALARS point_scalars float 1
LOOKUP_TABLE default
-79.6529
-39.8578
-48.9906
-34.2796
-76.0635
-39.949
-48.1701
-33.9751
-30.3876
-26.3956
-38.8586
-31.0854
-30.3566
-26.2325
-38.9039
-30.9417
51.5952
-141.411
-30.3751
-27.0665
-34.8768
-38.2676
-38.2676
51.5952
-126.425
-30.429
-26.6325
-34.8768
-34.6418
-34.6418
1.32702
-135.424
-37.7963
-30.0058
-33.2181
-34.6418
-34.6418
1.32702
-133.138
-39.117
-30.0313
-37.1557
-34.6418
-34.6418
131.47
-135.076
-28.2492
-25.143
-40.3202
-33.5397
-33.5397
131.47
-33.5397
-33.5397
132.218
-34.6418
-34.6418
75.3203
-86.7958
-60.4355
-35.8035
-35.5118
-34.6418
-34.6418
141.365
-132.454
-28.3766
-25.1249
-40.3885
-32.9899
-32.9899
141.365
-32.9899
-32.9899
136.486
-33.1462
-30.2204
95.9445
-84.604
-60.5135
-35.7693
-34.8871
-29.0204
-28.1745
69.4533
-142.076
-30.1152
-26.1013
-36.5853
-37.9338
-37.9338
69.4533
-126.083
-30.3523
-26.385
-36.5853
-37.9338
-37.9338
1.22054
-134.159
-37.7432
-29.8932
-35.714
-35.828
-33.1462
1.22054
-132.219
-39.1327
-29.9276
-37.8028
-35.828
-35.828
-121.449
-111.791
-41.6891
-34.3024
-28.8432
-34.7174
-76.4207
-35.4134
-25.471
-35.0456
-119.105
-42.6666
-35.9537
-34.8132
-35.4929
-34.9459
-31.0403
-32.9975
-31.17
-28.1641
-30.4903
-36.6243
45.0741
-38.7009
-31.0542
-32.9507
-28.0339
-36.592
-40.4539
-40.9249
-48.9513
-13.9848
204.899
-33.4996
-33.4823
-28.6965
-56.1156
-36.7254
-36.2981
-40.1174
-43.0269
-24.6396
-103.237
-87.101
-64.795
-33.2627
-30.7592
-29.2081
-87.9472
-57.6859
-54.1405
-34.8718
-28.4362
-33.6377
-76.8568
-98.8576
-65.2447
-30.3277
-37.4201
-28.972
-61.986
-85.9028
-53.925
-27.6286
-35.6006
-33.2408
-27.6452
-32.0966
-31.5272
-30.7005
-29.7565
-27.4966
-27.3764
-29.6941
-28.4308
-35.0335
-41.345
-1.91916
-31.7795
-28.088
-32.2034
-35.924
-27.6772
-30.7579
-32.0417
-31.4487
-29.4257
-29.6515
-27.5336
-27.2008
-28.3892
-1.34492
-35.0217
-41.6446
-31.66
-35.8881
-27.9289
-32.1589
-65.1629
183.963
-77.3423
201.688
-41.3897
-47.3956
-30.9043
-28.1514
-36.1949
-24.6308
-35.582
-39.6554
-43.5718
178.922
-38.8067
-24.3096
-36.6346
-23.6005
-37.8439
-42.4767
-65.2066
184.656
-42.0507
-47.78
-30.5407
-27.0649
-35.361
-39.3488
-39.0572
-24.2226
-37.8014
-42.4631
-32.096
-28.6137
-28.6579
-35.4934
-36.5389
-29.2639
-29.1772
-27.1648
-28.9577
-33.7949
-33.8548
-48.566
15.3257
-79.0341
-43.698
-38.6775
-32.0899
-28.6262
-28.6999
-35.5113
-29.1547
-26.9007
-33.8369
-48.5588
-66.9416
-28.474
-29.4844
-60.0121
-67.1093
-59.8844
-29.5068
-28.5247
-75.1198
-76.3734
-35.5861
-35.4582
-60.2445
-0.504353
-0.379823
-60.0743
198.037
-76.8092
-84.8739
195.429
-33.5791
-28.193
-29.0458
-36.8113
-33.5338
-36.9494
-29.0275
-28.2249
-29.2716
-29.3001
-28.4572
-28.4687
-65.7877
-39.7204
-39.6932
-65.8401
-26.8026
-30.0359
-31.1047
-27.54
-26.0691
-27.2949
-30.7997
-29.7681
-33.4952
-33.3852
-36.4796
-36.668
-37.2243
-38.1517
-37.8364
-37.182
-28.3711
-27.603
-26.6999
-27.8621
-57.6277
-36.7651
-86.8301
-37.9191
-33.1946
-32.2355
-103.478
-6.34365
-82.5249
-34.7838
-30.304
-37.0729
-55.8461
-53.8067
-88.2393
-32.9872
-38.5606
-30.962
-11.2348
-100.575
-81.8701
-29.6623
-34.7951
-36.6126
-28.627
-31.7497
-30.9777
-29.6468
-26.4136
-26.5256
-26.8603
-28.543
-33.6539
-35.9755
-42.1704
-51.008
-29.4746
-28.0658
-31.3731
-33.5448
-28.5565
-29.8493
-31.6662
-30.8848
-26.325
-28.4897
-26.3984
-26.7136
-33.6619
-51.2142
-35.9721
-42.1735
-29.1291
-33.4588
-27.8549
-31.346
-105.804
-100.283
-88.0623
190.826
-103.86
-101.937
-114.656
131.188
-46.9074
-33.3836
-41.1993
-44.4827
-34.1497
-34.6418
-29.0754
-29.8932
-29.4149
-29.1196
-32.3563
-27.1416
-37.5214
-33.1866
-35.1963
-37.1818
-26.3935
-26.251
-69.7982
108.262
-46.9348
-29.7643
-38.2528
-26.2206
-26.7031
-25.8519
-30.8511
-23.6553
-34.2832
-34.1249
-35.405
-38.7729
-106.482
-98.3783
-87.8694
193.286
-47.1598
-33.7152
-41.9028
-45.4188
-35.8405
-36.2698
-29.8602
-29.1457
-36.9361
-32.9892
-34.9625
-37.0033
-46.9449
-29.8506
-38.4144
-26.1239
-34.0358
-34.1063
-35.384
-38.6339
-32.4511
-29.4831
-31.6429
-28.4863
-32.072
-34.0712
-30.0104
-35.233
-31.0726
-31.1656
-33.2192
-29.9593
-27.9058
-28.1834
-28.2281
-27.3364
-30.3378
-30.3067
-29.5266
-31.8944
-39.7075
-33.9757
-33.3648
-41.4226
44.11
43.5269
29.1753
-91.3792
-38.0972
-38.0808
-40.5116
-38.1031
-32.3822
-29.4618
-31.6382
-28.551
-32.0039
-34.0181
-29.983
-35.1443
-27.7672
-28.0579
-28.1483
-27.1436
-39.6254
-33.9369
-33.3329
-41.4003
-48.7595
-41.6472
-39.0195
-31.5207
-48.8339
-42.2522
-39.3504
-31.7396
-59.87
-48.6766
-48.7947
-41.6301
-28.5821
-17.1351
-17.0568
0.0967934
193.59
201.954
198.513
193.454
-32.7305
-35.3327
-31.3245
-33.7763
-32.7125
-35.2529
-31.336
-33.7466
-28.691
-28.8777
-28.7072
-28.6822
-54.5353
-67.5512
-48.5899
-54.5345
-34.5741
-35.8169
-37.4518
-33.2067
-34.671
-35.4677
-37.288
-32.7001
-39.6005
-40.0517
-39.9145
-36.2393
-41.8387
-42.9903
-42.9291
-40.5785
-25.8564
-24.4451
-24.1624
-24.8668
-88.8552
186.844
-115.206
147.582
-66.1616
-67.4524
-29.9218
-29.9016
-33.2937
-29.6472
-29.6584
-37.1721
-85.5253
177.895
-84.355
-78.7786
-55.6869
-57.741
-30.3737
-29.6845
-32.7453
-27.8869
-32.426
-39.4657
-118.212
158.068
-89.277
187.85
-66.4094
-70.3842
-33.028
-29.1533
-29.5429
-29.5501
-29.3538
-36.9713
-84.2147
-86.2329
-85.0786
179.417
-55.4358
-57.5912
-32.2369
-26.8231
-29.726
-28.9481
-32.0567
-39.0576
-28.2337
-33.4121
-32.9065
-29.4417
-29.4583
-33.1168
-32.4588
-29.7378
-26.4517
-34.356
-27.8221
-27.5283
-27.2762
-26.6092
-28.8877
-31.4562
-31.1
-11.4894
-31.4012
-37.2505
-37.0933
-51.2052
3.88269
-76.9833
-29.9124
-35.1232
-28.3362
-26.917
-28.8208
-35.6909
-37.4616
-36.609
-28.2976
-33.7526
-32.5414
-29.7806
-32.8347
-29.5037
-29.4174
-33.016
-26.6006
-34.1673
-28.8568
-31.3815
-27.8348
-27.588
-27.1436
-26.454
-31.1972
-11.4081
4.06746
-77.1673
-31.3894
-37.1959
-37.7011
-51.2574
-29.6779
-35.0607
-37.4307
-36.573
-28.2421
-26.5721
-28.7899
-35.6502
-66.4094
-65.0638
198.859
96.1227
-76.9818
-77.3246
196.458
196.136
-48.7169
-32.1725
-57.8938
-40.2529
-30.5736
-31.0884
-28.2864
-27.9616
-36.2405
-36.3389
-26.3173
-25.6259
-34.1057
-35.4095
-35.6301
-39.5896
-47.3372
-47.2192
153.165
153.088
-31.3729
-49.1045
-38.7993
-11.3977
-37.1023
-36.9256
-24.1488
-25.3788
-33.956
-32.9211
-39.4618
-42.2822
-66.5046
-65.0582
96.8863
198.779
-49.3883
-32.5008
-58.4711
-40.4807
-30.7951
-30.2783
-27.2308
-26.8281
-34.3224
-35.6366
-35.4843
-39.4948
-49.1895
-31.5342
-11.3017
-38.6968
-28.274
-33.8407
-42.0812
-39.3918
-33.595
-30.3656
-28.9364
-28.4159
-28.6049
-28.7506
-34.3862
-36.591
-36.322
-36.2892
-29.2871
-29.2823
-28.8704
-29.2296
-26.1554
-27.8687
-28.8393
-28.8559
-33.7185
-33.6614
-31.346
-35.9021
-57.479
-43.2048
10.9657
11.0483
-76.0941
-76.1032
-42.8103
-42.7996
-38.3596
-38.3361
-33.5329
-30.3763
-28.9562
-28.418
-28.7856
-28.6523
-34.3899
-36.6338
-29.2235
-28.8748
-25.8008
-27.6287
-35.8103
-31.3347
-43.1872
-57.4916
-86.0714
-47.8512
-48.9951
-89.3473
-29.2451
-29.7334
-31.8472
-33.2377
-33.1331
-32.7334
-31.2816
-30.3442
-86.0953
-86.6752
-48.7559
-48.8831
-86.3753
-89.3226
-49.077
-47.9543
-85.5627
-48.938
-48.7993
-86.343
-33.1427
-30.3099
-31.4692
-32.902
-29.1986
-33.5704
-32.1135
-29.6973
-99.4242
-115.812
-59.4697
-53.0163
-109.174
-54.4567
-59.6664
-116.018
-31.3569
-33.081
-41.4007
-38.0998
-31.1997
-37.509
-41.3277
-33.0625
-67.8891
-38.433
-31.3674
-66.3772
-22.8418
23.8398
-3.44672
-17.0951
-22.7591
-17.049
-3.37196
23.9585
-67.3673
-66.2343
-31.2782
-38.3187
162.758
187.196
195.909
143.721
154.943
128.953
180.951
196
155.876
198.166
180.784
128.938
173.78
143.962
195.545
188.033
-32.6108
-33.0948
-34.322
-34.0008
-26.84
-27.8874
-30.7672
-29.9801
-28.7393
-30.9596
-31.4344
-28.3385
-37.6393
-36.6791
-35.8321
-36.7626
-32.5004
-33.8977
-34.2685
-33.0428
-37.586
-36.6265
-35.7539
-36.591
-28.6979
-28.2542
-31.4249
-30.9299
-26.7271
-30.0011
-30.7741
-27.7891
-29.4131
-29.9383
-28.9082
-29.4556
-29.5243
-29.4791
-28.9003
-29.9376
-27.6805
-29.3651
-28.6369
-28.0001
-27.6708
-27.9494
-28.6492
-29.3894
-58.6985
-45.6773
-65.4269
-89.0095
-34.1149
-39.8186
-47.4075
-38.0924
-34.0588
-38.0587
-47.4007
-39.8051
-58.7929
-89.1265
-65.436
-45.6865
-26.1462
-33.5603
-34.1296
-27.17
-29.9996
-29.9573
-35.0521
-36.744
-33.3119
-33.7067
-34.2637
-29.445
-27.5232
-27.2201
-31.1053
-32.4904
-26.0406
-26.9881
-33.9858
-33.5824
-26.5567
-32.5616
-31.1987
-26.9525
-32.7444
-29.4052
-34.3081
-33.5174
-29.3548
-36.6058
-35.2287
-29.9325
-28.6885
-31.7957
-36.1276
-34.5572
-28.713
-34.3009
-36.0485
-31.7543
-34.3786
-32.4864
-39.558
-39.3128
-34.4448
-39.5814
-39.5836
-32.6494
-32.428
-36.5398
-40.332
-37.6757
-34.9105
-31.4265
-42.023
-40.8737
-34.2729
-40.6137
-41.9139
-31.1361
-32.3875
-37.657
-40.2956
-36.4386
-31.564
-27.9919
-25.9894
-29.9774
-31.487
-29.2963
-25.0346
-27.6418
-29.3732
-24.1669
-24.4088
-28.8352
-30.0409
-29.556
-25.524
-25.4098
-75.6464
-64.98
-124.71
-38.8785
-36.0514
-31.8136
-90.6459
20.9086
-137.912
-34.5786
-31.1766
-33.5492
-29.1301
-73.6974
-124.114
-36.4528
-39.256
-31.6641
5.13859
-90.1776
-135.875
-30.3185
-34.4232
-33.1463
-30.4535
-31.0766
-30.706
-28.1247
-26.9959
-26.4689
-26.6278
-26.5387
-36.1228
-37.8377
-41.7612
-49.1764
-30.4131
-30.515
-30.9321
-31.9528
-30.3988
-28.2821
-30.9764
-30.6095
-26.7933
-26.4657
-26.333
-26.4737
-36.1328
-49.0357
-37.8298
-41.7727
-30.3142
-31.7931
-30.3659
-30.8456
-105.762
-108.275
-133.367
118.839
-106.331
-105.601
-133.071
14.6601
-43.9816
-42.7923
-41.3515
-43.1781
-34.3652
-34.671
-29.8328
-31.1541
-29.0073
-28.8811
-30.3861
-27.9623
-35.4857
-33.2123
-34.8033
-36.3383
-69.8949
-69.7268
-102.413
47.9145
-41.8396
-32.3032
-37.09
-29.7079
-25.9451
-25.4127
-28.2631
-24.2026
-34.7569
-35.2418
-35.2016
-35.213
-106.972
-105.236
-133.123
121.349
-43.8902
-43.529
-42.2373
-44.2091
-35.8394
-36.8619
-28.9661
-30.6875
-35.1761
-33.2419
-34.8904
-35.95
-41.8746
-32.4196
-37.2049
-29.6645
-34.5649
-35.237
-35.146
-35.0579
-32.1236
-30.4568
-31.3441
-28.7082
-32.5067
-33.4378
-31.4353
-34.3472
-31.1418
-31.1439
-32.072
-30.4799
-28.0385
-28.194
-28.1632
-27.8888
-30.4519
-30.4355
-29.9534
-31.1358
-37.7358
-35.2587
-35.8264
-39.7009
45.7213
44.9927
47.4959
-45.3139
-38.553
-38.5448
-39.4564
-38.2557
-32.0855
-30.4714
-31.3427
-28.7645
-32.4446
-33.3958
-31.3731
-34.264
-27.9142
-28.0523
-28.0063
-27.7319
-37.7043
-35.2256
-35.7897
-39.6761
-44.4956
-41.2457
-39.7521
-35.3349
-44.4439
-41.7825
-40.0429
-35.8059
-53.9087
-48.8774
-48.9333
-45.0035
-21.7921
-14.7962
-14.7566
-7.06349
203.39
203.467
201.706
203.15
-33.1144
-34.689
-32.4956
-33.6991
-33.0961
-34.6414
-32.5007
-33.6732
-28.6985
-28.7656
-28.6735
-28.6931
-55.7332
-61.5933
-51.9311
-55.7328
-36.4001
-35.7103
-37.4623
-35.0943
-36.8447
-35.3727
-37.1151
-35.5152
-40.9498
-40.1397
-40.0837
-37.8427
-42.8304
-43.102
-43.0693
-42.0293
-25.0778
-24.6162
-24.4838
-24.5199
-94.4159
-105.975
-131.255
119.687
-36.2367
-85.014
-139.448
47.2652
-70.3187
-54.9959
-65.4252
-63.895
-37.3555
-33.7366
-31.1417
-30.8484
-31.7604
-29.9752
-31.5506
-30.2534
-28.8131
-33.0673
-29.4574
-35.8065
-99.0548
-102.869
-132.482
122.846
-5.12942
-36.0765
-107.34
-80.0783
-65.4353
-50.3036
-54.6847
-57.4928
-34.7915
-34.3549
-30.7471
-30.6872
-29.3737
-27.5643
-29.8132
-28.1028
-33.971
-33.9379
-33.1331
-36.47
-76.8724
-80.3151
-144.141
87.0713
-89.8157
-106.845
-131.584
127.346
-70.9114
-55.4185
-65.7341
-65.8237
-31.3476
-29.5914
-31.1565
-29.715
-37.8652
-35.5377
-31.0533
-31.2387
-26.9365
-32.8864
-29.1031
-35.4244
-3.71208
-35.2485
-106.713
-86.4687
-98.0031
-97.2989
-131.073
126.286
-65.0565
-50.1888
-54.4654
-57.2318
-28.752
-26.5971
-29.238
-27.2202
-34.8563
-35.7863
-30.1513
-30.09
-33.4915
-33.6996
-32.7096
-36.072
-27.8429
-29.2615
-28.0602
-30.3361
-32.0058
-32.5928
-32.5399
-30.004
-31.2395
-31.7958
-30.5533
-32.365
-30.32
-30.9168
-31.5361
-30.0998
-21.7074
-33.3346
-28.229
-35.2502
-26.716
-28.7429
-27.6482
-26.6876
-27.1168
-27.6611
-27.2896
-27.2259
-29.1472
-30.1192
-29.247
-30.4886
-31.7838
-28.0565
-30.5553
-20.4445
-35.2562
-34.7291
-32.9062
-36.6904
-42.3445
-39.7674
-39.8695
-46.8207
-42.1307
34.3877
9.36699
-65.2394
-30.07
-32.256
-30.8069
-32.2776
-27.8573
-28.1593
-27.9541
-27.6767
-31.628
-33.0638
-31.4869
-34.7866
-36.1648
-37.4075
-36.9211
-35.7542
-27.925
-29.5872
-28.1129
-30.7278
-30.4361
-30.9408
-31.6039
-30.1524
-31.8962
-32.4551
-32.4577
-29.9858
-31.1582
-31.7263
-30.4913
-32.2694
-21.7953
-33.2563
-27.6962
-34.8529
-29.1172
-30.0748
-29.2118
-30.4257
-26.6956
-28.764
-27.6631
-26.7702
-26.9464
-27.4782
-27.1594
-27.041
-31.8842
-28.12
-30.6282
-20.4119
-41.8115
34.4123
9.66713
-65.181
-35.2484
-34.6831
-32.8701
-36.6536
-42.2809
-39.7121
-40.1423
-46.8375
-30.4448
-32.2067
-30.6671
-32.219
-36.1109
-37.3825
-36.8866
-35.72
-27.691
-28.0271
-27.8221
-27.5028
-31.5834
-33.0249
-31.4459
-34.7465
-72.4063
-56.3136
-65.9009
-65.2499
195.253
189.614
194.138
155.063
-91.988
-67.2902
-76.8441
-76.9911
172.63
201.569
201.785
201.755
-41.1642
-41.9968
-45.0785
-35.7252
-46.0623
-48.2413
-52.1777
-43.5451
-30.4219
-31.8647
-30.6385
-31.0912
-29.0332
-27.085
-28.275
-28.0453
-34.8476
-37.9888
-36.1957
-36.2465
-25.9771
-24.4179
-25.2422
-24.7399
-35.4274
-35.7285
-34.3606
-35.6846
-38.87
-39.9275
-37.1809
-40.7397
-53.753
-35.6128
-44.0209
-43.9669
150.003
189.439
179.846
179.821
-38.5516
-39.0411
-34.1026
-43.3976
-26.2656
-20.6619
-31.3092
-17.2758
-33.4816
-39.7113
-36.7959
-36.7072
-23.5896
-23.8209
-23.6178
-24.2839
-35.8086
-37.5285
-36.1216
-35.8112
-41.4725
-42.9008
-41.2066
-42.7177
-72.3675
-56.3964
-65.9744
-65.2562
197.803
189.497
156.006
194.393
-41.7419
-42.6716
-44.8866
-36.2925
-46.7597
-48.4452
-52.6278
-43.8403
-30.1904
-31.7337
-30.7885
-30.338
-28.1491
-25.8886
-27.2182
-26.9256
-35.2029
-35.4441
-34.5315
-35.5889
-38.5563
-39.7395
-36.9928
-40.5783
-38.7513
-39.3227
-43.4609
-34.3842
-26.2335
-20.5588
-17.1766
-31.2041
-35.8031
-37.0351
-35.9159
-36.2682
-41.406
-42.818
-42.5555
-41.1205
-31.8527
-32.3447
-33.0061
-31.2202
-28.5473
-28.662
-28.7673
-28.4904
-28.9559
-29.4846
-28.7017
-28.6864
-35.4052
-35.4306
-34.8683
-36.0354
-34.6923
-38.8032
-36.4577
-36.4477
-29.5593
-29.0445
-29.2699
-29.2654
-28.3805
-30.2577
-29.0665
-29.2461
-27.1842
-28.8922
-26.8935
-27.4872
-29.1971
-28.7974
-28.9242
-28.9336
-32.7731
-34.9257
-33.7803
-33.7509
-33.6552
-33.8588
-32.6165
-34.8069
-44.713
-52.34
-53.1928
-45.8762
22.9869
7.69863
14.278
14.3204
-88.0811
-73.0033
-78.3597
-78.3681
-41.9184
-45.877
-43.4788
-43.4737
-38.2257
-39.4303
-38.5972
-38.5853
-31.8507
-32.3379
-32.9636
-31.2285
-28.5834
-28.6581
-28.783
-28.497
-28.953
-29.5995
-28.7247
-28.7537
-35.3558
-35.4288
-34.8759
-36.0629
-28.3772
-30.2664
-29.2368
-29.0462
-27.0719
-27.9202
-26.5313
-27.3663
-33.6256
-33.8255
-34.7846
-32.6102
-44.6992
-52.3382
-45.8649
-53.1997
-74.3005
-66.5976
-67.0747
-56.2157
-28.3285
-28.5633
-29.426
-28.5407
-30.2172
-30.2575
-29.6507
-28.9233
-65.4417
-56.9055
-62.8397
-55.2832
-74.5124
-66.7762
-67.2086
-56.3463
-65.0535
-56.6953
-62.7958
-55.2883
-30.2579
-30.2617
-29.7236
-28.9346
-28.3762
-28.5548
-29.5599
-28.5973
-90.5062
-71.7406
-76.9131
-65.0381
-92.4858
-74.0598
-77.5283
-65.777
-34.8528
-33.8614
-37.7293
-36.0886
-34.6261
-33.7608
-37.5529
-36.0163
-70.6576
-59.177
-55.7628
-47.1685
-6.28331
2.75285
-5.77868
5.63549
-6.17066
2.90408
-5.67169
5.74868
-70.5256
-59.0733
-55.5886
-46.9782
204.269
194.867
199.152
197.409
135.33
-77.7939
16.94
57.8789
-85.5534
136.591
58.65
19.3288
191.451
195.465
196.78
198.386
-33.2467
-33.3825
-33.6645
-33.9297
-27.9955
-27.5509
-29.4263
-28.5248
-28.3962
-28.954
-29.1308
-30.3847
-37.3188
-36.8005
-36.8214
-36.3152
-33.1862
-33.3252
-33.5965
-33.9156
-37.1054
-36.9722
-36.9295
-36.527
-28.2944
-28.9204
-29.1203
-30.3628
-28.0039
-27.5036
-29.4538
-28.5136
-29.3037
-29.472
-29.1024
-29.278
-29.5073
-29.3551
-29.2854
-29.1252
-28.6075
-28.1265
-28.689
-28.4012
-28.1156
-28.6276
-28.4073
-28.7081
-59.4512
-72.0315
-61.0653
-71.7941
-37.6241
-38.5781
-41.337
-41.6535
-38.5487
-37.5819
-41.6364
-41.3129
-72.0627
-59.5157
-71.8043
-61.0932
-26.6884
-25.0554
-31.7316
-26.1751
-29.8572
-29.8218
-30.3315
-32.7008
-30.5701
-31.6968
-31.0407
-31.9856
-27.868
-26.6605
-28.4778
-27.6927
-26.5526
-25.2202
-30.4227
-25.9047
-27.6317
-26.6499
-27.9015
-27.4942
-30.3221
-31.3842
-30.7749
-31.7302
-29.4507
-29.5893
-30.0193
-32.2827
-33.4927
-32.4436
-34.4835
-33.6132
-33.349
-32.3507
-34.3599
-33.5282
-35.4613
-36.6677
-36.3324
-38.0386
-35.7604
-36.8867
-36.48
-38.1877
-35.9401
-36.927
-38.2606
-37.9538
-35.0151
-39.1543
-37.5314
-40.9456
-34.5984
-38.7886
-37.2794
-40.6919
-35.8867
-36.8876
-38.2058
-37.9197
-29.2222
-29.0208
-28.2798
-27.3583
-28.3869
-28.5796
-26.4648
-27.2424
-26.7295
-28.0722
-25.2735
-26.7032
-28.9024
-27.8328
-27.8835
-26.6605
-125.335
120.262
-123.489
105.277
-85.0292
-92.3026
-31.0534
-33.6938
-33.0497
-32.4182
-30.3256
-36.8167
-125.026
108.712
-63.6438
107.868
-84.6165
-75.5578
-33.4768
-31.0015
-31.9622
-30.173
-34.9643
-37.156
-135.752
60.4445
-125.32
131.808
-86.1076
-98.115
-32.5142
-32.1426
-30.0176
-34.4323
-29.7763
-37.1405
-62.3842
108.914
-123.634
106.515
-84.0103
-74.9083
-31.3467
-29.5188
-33.168
-30.1046
-34.5073
-36.5236
-29.1441
-28.8915
-32.2151
-29.1301
-30.3127
-31.7049
-30.0202
-29.6317
-26.2801
-29.481
-26.6715
-25.9348
-26.8207
-26.9112
-28.1275
-27.597
-34.043
-30.0804
-33.7903
-37.5092
-40.6354
-49.9166
-34.468
-63.4805
-28.9493
-31.8523
-27.7646
-29.9143
-30.5815
-33.2175
-33.6685
-32.8205
-29.085
-29.0083
-30.2358
-29.7513
-32.1349
-29.1626
-30.2561
-31.6046
-26.1758
-29.6273
-28.1325
-27.6389
-26.5505
-25.9074
-26.6773
-26.7421
-34.0574
-30.0376
-34.3855
-63.6113
-33.8014
-37.4773
-40.6114
-49.9695
-28.5079
-31.83
-33.5869
-32.7715
-27.6493
-27.8262
-30.5367
-33.2056
-136.088
119.057
-134.504
128.723
-89.1682
-87.6984
189.192
194.198
-133.167
48.9294
-132.659
50.2385
-114.057
-114.105
137.055
137.288
-47.301
-49.5234
-33.3614
-34.9626
-44.6052
-38.3768
-48.3539
-40.9115
-31.3908
-31.7972
-29.9529
-31.3587
-29.4244
-29.1985
-30.006
-29.66
-30.7645
-28.73
-30.5339
-28.3118
-32.2741
-32.3679
-27.3672
-27.1126
-37.2239
-38.5474
-33.3378
-33.3637
-33.7645
-35.1559
-35.8444
-39.2764
-97.1267
67.2965
-96.8868
67.5273
-65.7724
-65.6976
143.729
143.815
-47.8274
-40.5032
-31.8821
-21.4425
-34.7257
-44.1583
-32.3174
-22.2076
-28.7341
-25.8461
-28.3905
-24.7405
-31.0176
-30.8729
-23.327
-24.1262
-33.9725
-35.9764
-33.2911
-34.0995
-34.5549
-35.3729
-37.7505
-39.6637
-136.137
123.458
-133.889
132.115
-89.0606
-87.4088
196.38
190.976
-47.4399
-50.6607
-33.6317
-35.5543
-44.3376
-39.2689
-49.5085
-41.6498
-31.4898
-31.5334
-28.5563
-31.1939
-29.8432
-29.8609
-29.2817
-28.954
-36.6128
-38.0633
-33.2051
-32.865
-33.8242
-35.1057
-35.8805
-38.9619
-47.8534
-40.414
-32.0238
-21.4134
-44.2232
-34.9663
-22.178
-32.2303
-33.7242
-35.7107
-33.3173
-34.0053
-35.3952
-34.4836
-39.4753
-37.6237
-32.7974
-31.0162
-29.784
-27.9578
-32.6035
-30.8266
-28.8059
-28.1048
-30.9146
-33.1144
-31.9548
-35.7001
-29.8727
-30.1339
-34.516
-35.945
-31.9263
-30.3617
-31.932
-30.4248
-33.1839
-33.1763
-29.9556
-29.9547
-27.8741
-27.6945
-28.1172
-27.8791
-28.1272
-28.2652
-27.2613
-27.3635
-29.7887
-31.0171
-29.766
-30.9712
-29.4814
-29.4945
-31.8726
-31.8516
-38.6526
-43.148
-33.4284
-36.8993
-32.409
-35.4299
-43.334
-39.6036
42.6475
-43.884
42.9067
-43.9222
28.1677
28.2247
-90.893
-90.9387
-38.8195
-37.741
-38.8047
-37.7237
-40.3403
-40.3337
-37.9911
-37.9816
-32.7352
-31.0675
-29.7899
-27.9498
-32.5682
-30.8351
-28.8657
-28.1802
-30.861
-33.0332
-31.9125
-35.6381
-30.1104
-29.8448
-34.4134
-35.8581
-27.733
-27.5256
-27.9927
-27.7215
-28.1852
-28.0319
-27.067
-27.1687
-38.5148
-43.1422
-33.3926
-36.8647
-35.3351
-32.3823
-39.5749
-43.3245
-48.9017
-48.7469
-44.9561
-35.7225
-34.3254
-44.5141
-31.6456
-31.4055
-48.9861
-48.8052
-44.8038
-36.2223
-44.5701
-34.6942
-31.6088
-31.8813
-59.7045
-59.7988
-53.5817
-44.6884
-53.7322
-44.7818
-41.561
-41.5267
-29.1269
-29.0818
-24.6236
-10.2595
-10.1837
-24.5406
-0.75944
-0.720216
195.87
190.332
201.962