# vtk DataFile Version 2.0
tri_press
ASCII
DATASET UNSTRUCTURED_GRID
POINTS 3682 float
-0.75052 0.295 -2.005
-0.764 0.415 1.995
-0.815941 0.755 -1.855
-0.675 1.01269 1.895
0.751477 0.295 -2.005
0.755 0.415 1.99547
0.81701 0.755 -1.855
0.675 1.01313 1.895
-0.827493 0.26252 -0.671667
-0.851111 0.283396 0.661667
-0.840704 0.91264 -0.605
-0.804091 1.0089 0.645
0.82662 0.261031 -0.67151
0.850917 0.277909 0.66198
0.841723 0.913093 -0.605
0.804321 1.00907 0.645
-1.56105 -0.0730739 -3.06597
-1.57239 -0.0271304 -2.03266
-1.62427 -0.0452219 -0.697158
-1.63533 -0.0361395 0.655109
-1.5799 0.0561742 1.99202
-1.56616 0.122486 3.03225
-1.57634 0.174644 4.05968
-1.56441 0.213588 -3.02095
-1.5754 0.280433 -1.99675
-1.63556 0.28114 -0.677481
-1.63148 0.296072 0.649273
-1.54021 0.382192 1.97013
-1.54056 0.446832 3.00918
-1.56378 0.498874 4.03933
-1.59253 0.744057 -2.90751
-1.61834 0.808454 -1.87985
-1.6468 0.922274 -0.617395
-1.59838 0.992349 0.639138
-1.48163 1.01885 1.90318
-1.50891 1.08068 2.9456
-1.55168 1.14038 3.98915
-1.61636 1.64185 -2.80009
-1.62993 1.72341 -1.78493
-1.63745 1.85895 -0.5495
-1.62066 1.97013 0.667941
-1.58925 2.02999 1.90421
-1.58028 2.0714 2.92115
-1.58914 2.11932 3.95559
-0.75869 -0.0654755 -3.07132
-0.759262 -0.01635 -2.04047
-0.807973 -0.0547203 -0.696047
-0.836489 -0.0456795 0.665741
-0.803691 0.0725964 2.01056
-0.795729 0.134154 3.04485
-0.804347 0.180377 4.06701
-0.759053 0.214931 -3.02259
-0.78065 0.459183 3.01957
-0.797723 0.504403 4.04487
-0.782499 0.72286 -2.89719
-0.754561 1.08197 2.94399
-0.790869 1.14212 3.98885
-0.80543 1.62644 -2.78987
-0.81696 1.70841 -1.77367
-0.828248 1.85527 -0.542701
-0.828261 1.97507 0.667163
-0.815527 2.03251 1.89845
-0.810908 2.0718 2.91541
-0.818043 2.11941 3.95143
0.811211 -0.0658048 -3.07129
0.797264 -0.0167789 -2.04042
0.832082 -0.0563848 -0.695899
0.828021 -0.0495739 0.666015
0.761705 0.0711573 2.01093
0.743345 0.133077 3.04514
0.737712 0.179216 4.06723
0.805985 0.214759 -3.02257
0.728221 0.458535 3.01985
0.728734 0.503422 4.04508
0.821225 0.722773 -2.89717
0.702156 1.08164 2.94412
0.716752 1.14135 3.98901
0.816264 1.6262 -2.78984
0.812271 1.70822 -1.77364
0.799139 1.85503 -0.542663
0.76455 1.97465 0.667213
0.727513 2.03196 1.89852
0.71884 2.07112 2.9155
0.718128 2.1186 3.95154
1.60577 -0.0738841 -3.06588
1.59649 -0.0281854 -2.03255
1.63947 -0.0481014 -0.696906
1.6393 -0.0417721 0.655546
1.5643 0.0525828 1.99258
1.52961 0.119901 3.03275
1.5194 0.172179 4.0601
1.59894 0.213073 -3.02089
1.57689 0.27994 -1.99668
1.63574 0.278942 -0.67727
1.6415 0.290374 0.649676
1.54528 0.379262 1.97068
1.50934 0.444792 3.00966
1.50609 0.496701 4.03973
1.61727 0.743762 -2.90747
1.61434 0.808407 -1.87982
1.64273 0.921916 -0.617319
1.60462 0.990478 0.639286
1.48774 1.01731 1.90338
1.47522 1.07928 2.94588
1.48792 1.1386 3.98945
1.62411 1.64128 -2.80002
1.62217 1.7229 -1.78485
1.60942 1.85826 -0.549411
1.5673 1.96906 0.668058
1.51568 2.02866 1.90437
1.49766 2.06989 2.92134
1.49496 2.1176 3.95582
-0.793585 0.525 -1.94035
0.000478506 0.277643 -2.02236
-0.805078 0.262689 -1.33833
-0.766593 0.713845 1.99209
-0.0045 0.357348 2.05289
-0.842716 0.314037 1.32833
0.000534505 0.860268 -1.96027
-0.849464 0.854961 -1.23
0 1.09703 1.97912
-0.765569 1.03682 1.27
0.794683 0.525 -1.94044
0.84098 0.226084 -1.33826
0.759132 0.714065 1.98937
0.85578 0.293633 1.32873
0.850835 0.855515 -1.23
0.765616 1.03706 1.27
-0.837823 0.274437 -0.00500005
-0.880427 0.58758 -0.638334
-0.000436414 0.28682 -0.671589
-0.880109 0.64615 0.653333
-9.69238e-05 0.281551 0.661823
-0.826479 0.964854 0.02
0.000509424 1.2895 -0.605
0.000115235 1.44667 0.645
0.83647 0.271769 -0.00476503
0.880375 0.587062 -0.638255
0.880592 0.64349 0.65349
0.828063 0.966123 0.02
-0.880105 0.55629 -1.28417
0.879383 0.556031 -1.28413
2.10459e-05 0.263156 -1.33829
0.000521964 1.03416 -1.23
0.000506505 0.525 -2.25106
-0.885546 0.616865 0.00749996
0.88554 0.615276 0.00761747
-0.000266669 0.285427 -0.00488254
0.00031233 1.43949 0.02
-0.88424 0.679997 1.29917
0.886149 0.678777 1.29936
-0.00229846 0.311394 1.32853
5.76175e-05 1.27593 1.27
-0.00225 0.713955 2.1561
-0.781194 0.41 -1.98182
-0.375021 0.272607 -2.02739
-0.794557 0.262087 -1.67167
-0.775041 0.564422 2.00329
-0.38425 0.358399 2.05172
-0.841167 0.32671 1.66167
-0.80659 0.64 -1.8995
-0.407703 0.845819 -1.94582
-0.849445 0.821723 -1.5425
-0.724137 0.863267 1.94689
-0.3375 1.0885 1.9707
-0.734045 1.03852 1.5825
0.375978 0.272572 -2.02743
0.782388 0.41 -1.98203
0.799183 0.257588 -1.67163
0.37525 0.38022 2.03013
0.767347 0.564532 2.0027
0.83894 0.320767 1.6621
0.408772 0.845813 -1.94581
0.807557 0.64 -1.89943
0.85099 0.822325 -1.5425
0.3375 1.08838 1.97036
0.720991 0.863597 1.94611
0.733764 1.03855 1.5825
-0.815366 0.263524 -1.005
-0.832549 0.268588 -0.338333
-0.888088 0.407986 -0.655
-0.413536 0.275528 -0.671628
-0.842624 0.303006 0.995
-0.843486 0.279897 0.328333
-0.878622 0.458267 0.6575
-0.418744 0.296194 0.661745
-0.845246 0.883962 -0.9175
-0.876654 0.758154 -0.621667
-0.834787 0.939943 -0.2925
-0.497116 1.25511 -0.605
-0.786774 1.02481 0.9575
-0.868554 0.840754 0.649167
-0.817702 0.989296 0.3325
-0.498087 1.41999 0.645
0.880587 0.196771 -1.00488
0.412243 0.275624 -0.671549
0.831612 0.266333 -0.338138
0.888202 0.406694 -0.654883
0.858756 0.280363 0.995353
0.416289 0.297973 0.661902
0.841291 0.277241 0.328608
0.879214 0.45397 0.657735
0.846107 0.884132 -0.9175
0.499491 1.25804 -0.605
0.876779 0.757942 -0.621628
0.836073 0.940788 -0.2925
0.787067 1.02516 0.9575
0.498319 1.42007 0.645
0.866061 0.838083 0.649245
0.819209 0.990614 0.3325
-0.872454 0.540645 -1.61226
-0.396539 0.525 -2.21483
0.000249776 0.256893 -1.68033
0.000492506 0.401322 -2.2544
-0.880401 0.409489 -1.31125
-0.402528 0.235203 -1.33831
-0.861992 0.696921 1.64563
-0.384421 0.7139 2.16577
-0.00339923 0.322888 1.69071
-0.003375 0.535651 2.21476
-0.881912 0.497017 1.31375
-0.422507 0.315531 1.32843
0.000528235 0.971182 -1.59513
0.000520505 0.692634 -2.14617
-0.884755 0.705626 -1.25708
-0.424471 1.03662 -1.23
2.88088e-05 1.12312 1.62456
-0.001125 0.905491 2.09563
-0.859685 0.858409 1.28458
-0.382756 1.24913 1.27
0.872438 0.540515 -1.61228
0.397595 0.525 -2.21482
0.880297 0.391057 -1.31119
0.420501 0.219522 -1.33827
0.862842 0.696421 1.64436
0.378441 0.71401 2.16916
0.884414 0.486205 1.31404
0.426741 0.343485 1.32863
0.884832 0.705773 -1.25706
0.425678 1.01762 -1.23
0.860385 0.857917 1.28468
0.382837 1.24863 1.27
-0.890484 0.431251 0.00124995
-0.414871 0.288279 -0.0049413
-0.877507 0.571935 -0.96125
-0.882616 0.602222 -0.315417
-0.000207684 0.272268 -1.00494
-0.000351542 0.294147 -0.338236
-0.88819 0.631507 0.330417
-0.877901 0.663074 0.97625
-0.000181796 0.280128 0.32847
-0.00119769 0.306184 0.995176
-0.877263 0.801485 0.01375
-0.525628 1.42726 0.02
0.000515694 1.16131 -0.9175
0.000410877 1.40407 -0.2925
0.000213782 1.46281 0.3325
8.64263e-05 1.3853 0.9575
0.890623 0.428713 0.00142622
0.413168 0.288465 -0.00482379
0.877212 0.571546 -0.961191
0.882609 0.601169 -0.315319
0.888171 0.629383 0.330554
0.877841 0.661134 0.976426
0.877644 0.801121 0.0138087
0.52637 1.42717 0.02
-0.871842 0.409745 -1.64196
-0.881926 0.41727 -0.983125
-0.875017 0.727868 -0.939375
-0.876558 0.672813 -1.57738
0.871926 0.400529 -1.64196
0.876663 0.672886 -1.57739
0.874791 0.727925 -0.939346
0.881963 0.407552 -0.983037
-0.388775 0.254604 -1.676
0.398239 0.254403 -1.67598
0.416796 0.25222 -1.00491
-0.408247 0.252771 -1.00497
-0.416087 0.964695 -1.56882
-0.422284 1.13996 -0.9175
0.423397 1.14303 -0.9175
0.417225 0.964466 -1.56882
-0.38578 0.405661 -2.2164
-0.402121 0.666317 -2.09946
0.403184 0.666317 -2.09943
0.386786 0.405661 -2.21646
-0.890713 0.418905 -0.326875
-0.890356 0.441857 0.329375
-0.876478 0.822904 0.331458
-0.878064 0.780372 -0.303958
0.890898 0.416961 -0.326728
0.878323 0.780087 -0.303909
0.876915 0.822133 0.331527
0.890172 0.438715 0.329581
-0.414239 0.281831 -0.338285
0.412787 0.281881 -0.338187
0.414925 0.292826 0.328539
-0.417222 0.291407 0.328402
-0.527681 1.3738 -0.2925
-0.51937 1.43865 0.3325
0.519865 1.43866 0.3325
0.528313 1.37337 -0.2925
-0.878283 0.480895 0.985625
-0.8714 0.53072 1.65365
-0.831287 0.860838 1.61406
-0.866076 0.842968 0.966875
0.879256 0.473452 0.985889
0.864241 0.842099 0.966963
0.832244 0.860757 1.61343
0.877148 0.525369 1.65323
-0.424056 0.316175 0.995088
0.426075 0.314367 0.995264
0.400995 0.381663 1.6764
-0.403379 0.326454 1.67619
-0.392372 1.35867 0.9575
-0.360128 1.11638 1.60353
0.360168 1.11641 1.60353
0.392528 1.35806 0.9575
-0.384336 0.550037 2.1866
0.376845 0.550092 2.18641
0.35797 0.884544 2.11756
-0.360961 0.884379 2.11863
-0.766595 0.3525 -1.99415
-0.56277 0.276183 -2.02382
-0.784077 0.267005 -1.83833
-0.770539 0.489711 2.00016
-0.574125 0.359091 2.05097
-0.812161 0.361278 1.82833
-0.812682 0.6975 -1.87867
-0.611822 0.816651 -1.91665
-0.836243 0.791911 -1.69875
-0.693435 0.937979 1.91481
-0.50625 1.07097 1.95323
-0.715227 1.03631 1.73875
0.563727 0.276216 -2.02378
0.767561 0.3525 -1.99414
0.784232 0.267392 -1.83831
0.565125 0.359278 2.05113
0.762288 0.489766 2.0002
0.803222 0.361631 1.82878
0.612891 0.817361 -1.91736
0.811813 0.6975 -1.87674
0.837856 0.792518 -1.69875
0.50625 1.07021 1.95214
0.6908 0.938364 1.91336
0.715199 1.03666 1.73875
-0.825788 0.258663 -0.838334
-0.830008 0.265567 -0.505
-0.861407 0.333445 -0.663334
-0.623629 0.262794 -0.671647
-0.867469 0.2726 0.828333
-0.846029 0.282916 0.495
-0.868132 0.369199 0.659583
-0.639786 0.280077 0.661706
-0.84327 0.898596 -0.76125
-0.866692 0.839403 -0.613333
-0.837936 0.926482 -0.44875
-0.702334 1.15072 -0.605
-0.795466 1.01689 0.80125
-0.846923 0.930129 0.647083
-0.812357 1.00056 0.48875
-0.682875 1.27802 0.645
0.818663 0.263842 -0.838196
0.622189 0.262813 -0.67153
0.829455 0.263343 -0.504824
0.861415 0.331861 -0.663196
0.859899 0.274073 0.828666
0.637442 0.280263 0.661941
0.8459 0.277779 0.495294
0.867329 0.364807 0.659858
0.84431 0.899007 -0.76125
0.703378 1.15111 -0.605
0.867109 0.839447 -0.613314
0.839049 0.927091 -0.44875
0.795696 1.01712 0.80125
[...]
POINT_DATA 3682
SCALARS point_scalars float 1
LOOKUP_TABLE default
-79.9082
-40.1857
-66.4997
-38.2054
-77.5028
-40.82
-66.0126
-39.0629
-38.4368
-34.5794
-51.8957
-50.8186
-38.3976
-35.04
-52.4748
-50.6141
-12.1748
-76.2481
-38.5873
-32.8122
-44.2173
-39.0398
-31.0929
41.3774
-80.3316
-39.9432
-36.9174
-44.4705
-36.4783
-31.8076
31.2137
-92.4686
-47.5067
-44.6206
-43.3666
-35.8675
-31.8022
-78.8332
-61.4633
-74.0507
-62.5578
-41.6174
-36.7221
-32.9103
62.8729
-107.072
-39.0517
-35.0518
-42.6463
-31.0929
-31.0929
142.066
-31.0929
-31.0929
155.312
-32.3251
-31.254
3.42988
-36.8766
-66.238
-66.1309
-38.1528
-34.3068
-32.6725
60.4309
-94.7803
-38.9798
-35.7564
-44.002
-33.5644
-32.9509
142.757
-33.5644
-32.8672
150.378
-33.3777
-32.2183
3.75768
-36.9978
-66.711
-66.3656
-38.4904
-34.3934
-33.544
-10.716
-65.2497
-70.7301
-34.7233
-50.1446
-40.2491
-33.5644
42.501
-77.2517
-40.7377
-36.6765
-48.357
-37.3173
-33.5644
30.7364
-92.5733
-47.9534
-44.7067
-44.8555
-36.8452
-32.995
-76.7921
-62.0526
-73.7186
-62.5736
-41.863
-36.741
-33.9841
-57.2151
-104.395
-56.0745
-37.3603
-32.644
-37.9096
-22.8759
-60.5821
-35.0169
-47.3986
-56.8063
-61.8405
-38.4983
-42.3895
-61.4943
-47.73
-35.7113
-42.102
-40.7009
-39.8593
-38.5954
-50.5624
-26.1594
-68.9103
-34.6146
-42.6581
-39.7023
-50.6572
-58.8892
-60.1742
-65.6392
-0.27085
205.515
-40.4598
-40.2948
-33.1911
-82.7601
-43.4958
-44.5305
-36.5878
-43.69
-27.9215
-41.555
-111.992
-77.5659
-37.5919
-35.2365
-45.5772
-48.653
-30.3769
-65.0487
-37.0328
-34.0474
-42.5312
-111.034
-42.3057
-61.3534
-36.4336
-38.7211
-46.6752
-30.3987
-50.8199
-65.5554
-34.4277
-38.1021
-43.0038
-45.5891
-35.7267
-39.909
-40.071
-40.3711
-35.9751
-37.4775
-36.8712
-55.4951
-45.7948
-51.0759
-27.0284
-50.0387
-44.1229
-48.1162
-66.2699
-42.9781
-40.9907
-35.3363
-40.3629
-37.7283
-36.4922
-35.224
-37.2506
-55.8706
-28.8167
-46.2465
-51.0499
-50.1936
-66.3091
-43.9445
-48.4809
-85.4203
182.388
-70.0274
166.771
-58.1369
-63.9599
-46.4467
-30.9967
-36.0266
-22.1013
-41.266
-36.7037
-25.6626
139.574
-59.1503
-6.80387
-38.2082
-29.0957
-45.6734
-44.278
-83.9205
182.301
-59.7795
-66.7843
-49.2066
-32.6316
-43.1199
-38.103
-59.9697
-6.60899
-46.3103
-44.3037
-38.2007
-34.4047
-46.1226
-40.7998
-51.1625
-35.3922
-41.5403
-39.8905
-35.4863
-35.7888
-44.1244
-79.5414
-0.0400461
-87.4667
-83.0223
-53.9274
-37.707
-34.2183
-47.857
-40.7012
-41.4607
-39.7915
-44.0574
-76.9687
-87.5585
-45.0853
-48.4022
-80.8684
-84.1735
-80.5059
-49.3857
-48.7325
-66.1756
-64.8786
-53.4035
-52.0787
-29.7014
-7.72922
-8.19603
-29.6837
143.117
123.103
123.959
142.716
-38.0766
-40.3691
-45.0178
-44.7939
-37.6876
-44.7734
-45.2922
-40.0632
-36.0894
-36.0768
-35.1913
-35.4988
-77.7825
-74.4392
-74.1712
-76.6869
-38.5224
-47.0355
-44.7872
-43.6456
-38.2143
-43.6412
-46.4172
-50.4425
-35.997
-37.0471
-37.4606
-37.0236
-54.3609
-38.9814
-39.0562
-54.5031
-29.449
-31.7051
-33.4946
-32.4411
-44.8755
-115.582
-87.6535
-38.5672
-38.796
-43.7163
-51.8954
-25.5813
-70.0156
-37.742
-34.5418
-41.0753
-112.788
-44.2123
-80.3843
-39.1457
-39.6213
-44.4093
-25.1554
-54.0786
-68.4425
-35.2853
-38.4605
-41.8287
-43.0658
-37.5008
-38.8632
-38.8373
-37.4629
-35.2243
-36.6303
-36.5951
-54.0874
-48.478
-51.0569
-69.8846
-50.7756
-47.1383
-51.2194
-60.9477
-50.1787
-39.6312
-36.1277
-39.1991
-34.7039
-36.4442
-35.0784
-36.3543
-54.5701
-69.4244
-48.9048
-51.2819
-50.6794
-61.0729
-47.0613
-51.3589
-50.5173
-54.1827
-97.6166
110.406
-108.797
-108.186
-78.2854
30.438
-62.9572
-50.4178
-57.4239
-60.0846
-37.2129
-37.1449
-42.8265
-32.2453
-33.0223
-34.1611
-35.1093
-24.7578
-40.0565
-36.13
-40.7626
-36.8541
-29.0599
-28.9768
-33.3819
41.3356
-62.8708
-56.5652
-61.2718
-21.0609
-34.6128
-34.7436
-36.7397
-32.9159
-45.7371
-48.669
-46.0018
-45.9711
-52.212
-53.0022
-96.6459
110.675
-67.657
-49.3049
-59.9215
-63.7967
-38.5477
-38.1688
-43.9853
-33.3367
-46.0195
-38.0697
-42.6005
-39.1831
-62.7964
-57.4089
-61.8624
-19.3583
-46.097
-49.0438
-46.3305
-45.9724
-35.6364
-35.2064
-36.9623
-34.4867
-40.8602
-43.5668
-43.6896
-41.2346
-40.5549
-40.9639
-45.7526
-38.414
-38.7975
-41.585
-41.1916
-39.9177
-38.445
-38.258
-36.7042
-35.9701
-50.8896
-50.1512
-46.5793
-60.7332
-25.7035
-27.0205
-9.64823
-50.7661
-68.5967
-68.6528
-76.1346
-61.4018
-34.5154
-34.8488
-36.3383
-34.0423
-41.4231
-44.0557
-44.9115
-41.3597
-38.5519
-41.7283
-41.132
-39.6009
-50.8511
-50.1959
-46.4982
-59.7177
-67.6761
-58.5095
-58.7825
-53.1072
-68.4899
-59.8449
-59.7951
-54.452
-72.1416
-65.2684
-67.6282
-57.3331
-19.578
-1.32625
-2.53926
4.49617
198.231
201.054
158.91
198.553
-39.2682
-40.421
-40.7915
-42.0003
-39.028
-40.2774
-40.6665
-41.8848
-34.2544
-34.8502
-35.3597
-34.1298
-81.8511
-89.2245
-81.201
-82.0887
-45.6775
-42.7959
-44.7329
-40.5052
-47.897
-43.8237
-45.3738
-40.8746
-37.1746
-36.5047
-37.1878
-36.0486
-40.4193
-43.8707
-43.8713
-47.7955
-28.3581
-22.8418
-28.3128
-30.1688
-82.1191
100.851
-81.1467
38.4248
-88.2291
-65.5474
-43.2362
-31.7379
-36.4751
-29.4496
-47.2052
-39.2905
-95.5877
71.0026
-35.02
72.6595
-75.1311
-37.2072
-43.0581
-32.7065
-36.7172
-32.8482
-43.7546
-39.7615
-79.5022
34.9003
-80.9112
100.505
-79.3148
-59.6508
-38.1425
-32.0002
-44.3983
-33.1783
-49.4173
-40.4181
-34.9971
73.0637
-95.0374
70.7631
-75.0171
-37.4329
-36.8837
-33.5572
-44.4787
-33.724
-44.9822
-39.8979
-44.9807
-52.8272
-36.9129
-35.8845
-42.2639
-38.5103
-45.0747
-37.5839
-38.0081
-37.4361
-38.494
-35.4023
-38.032
-39.1055
-36.2694
-36.785
-50.8575
-32.3424
-47.1139
-45.0956
-47.5773
-66.3762
-18.6303
-49.1549
-46.3614
-55.2869
-45.0511
-43.9241
-47.5038
-54.465
-70.3929
-61.3812
-51.3062
-55.2777
-46.6413
-37.8851
-36.3299
-35.3556
-45.2897
-38.389
-37.8726
-37.3964
-36.1375
-36.7012
-37.8452
-34.7921
-37.7793
-37.676
-51.5147
-33.7185
-19.6915
-51.0904
-47.8445
-45.2616
-47.5791
-66.1957
-46.48
-55.3279
-70.3404
-61.4826
-45.3544
-43.5277
-48.1835
-54.7618
-86.0492
-83.6203
180.013
149.997
-66.5835
-66.2892
147.647
146.921
-67.5448
-51.9514
-68.8309
-58.3401
-46.264
-45.9486
-29.7637
-30.9985
-36.4942
-36.1883
-24.5203
-27.3245
-39.2153
-43.7942
-35.2809
-37.8342
-26.697
-26.4629
136.284
134.998
-54.0992
-67.0209
-22.9854
-2.52643
-38.5736
-38.5873
-30.5513
-29.5682
-46.7474
-44.3238
-48.4348
-41.1001
-83.5991
-82.8808
151.99
180.069
-68.0971
-53.8091
-68.7558
-59.7065
-47.7756
-50.0056
-32.0074
-32.5998
-39.8327
-45.4582
-37.7444
-38.5165
-67.4776
-55.0047
-2.62019
-23.8233
-44.8079
-47.8824
-41.1186
-48.4369
-38.1037
-38.4634
-35.0199
-34.8814
-45.5475
-46.7383
-39.4965
-42.349
-51.6431
-51.0548
-36.2902
-36.3323
-40.7283
-43.0594
-39.1297
-41.1353
-35.4388
-35.5687
-35.6263
-36.0214
-44.4182
-44.4741
-85.3158
-71.6511
-1.55172
-1.81297
-84.5576
-82.9956
-81.9398
-81.7106
-54.0322
-54.0389
-37.6117
-38.2646
-34.8783
-34.5973
-48.1089
-47.9982
-39.2379
-42.3166
-43.1296
-40.5205
-38.9144
-41.1498
-44.4088
-44.3972
-74.8869
-85.0521
-67.9796
-65.344
-67.5511
-92.6157
-43.688
-42.7538
-52.6989
-50.9333
-50.0643
-54.9912
-53.2711
-44.7677
-89.5874
-98.1238
-66.6734
-69.1811
-70.0139
-90.903
-68.2889
-68.8651
-89.9194
-69.3292
-67.3284
-97.4094
-50.7008
-45.6857
-54.4099
-55.7092
-48.1589
-50.8113
-54.2706
-44.3229
-82.2378
-79.8144
-72.4542
-66.7094
-77.2243
-68.6341
-70.8461
-79.028
-47.8177
-45.9549
-58.7742
-56.785
-44.3314
-54.3303
-58.1907
-45.3891
-45.6238
-30.5892
-20.7594
-33.0577
-75.7724
-11.2656
2.67008
-15.6093
-77.8984
-17.4853
2.96879
-11.9306
-45.9057
-32.8932
-19.3055
-30.1445
28.7141
118.219
190.859
7.29916
43.7099
54.4643
159.695
99.6932
44.2911
100.345
160.363
52.8484
31.227
5.64932
190.828
118.419
-37.5723
-36.66
-39.3305
-39.8366
-37.0916
-40.0072
-39.6249
-36.8952
-47.529
-46.6638
-42.3212
-43.088
-47.564
-42.8487
-42.0999
-47.3466
-37.1509
-39.8715
-39.0615
-36.0375
-47.729
-47.3168
-41.9977
-43.005
-47.8668
-43.1866
-42.253
-46.4239
-36.9693
-36.6435
-39.4549
-39.7582
-37.002
-38.086
-34.517
-35.1304
-36.8214
-34.7333
-34.4864
-38.2682
-35.4958
-36.5734
-34.391
-34.4103
-35.8907
-34.8503
-34.5101
-36.6295
-67.7727
-63.6092
-88.8679
-47.3888
-61.3587
-74.8125
-79.7342
-56.7176
-61.3911
-57.5776
-80.2272
-74.7686
-67.4309
-48.7265
-88.4633
-63.4502
-39.3562
-38.5659
-39.7861
-39.1238
-43.6974
-43.193
-44.7536
-42.6809
-43.4439
-45.617
-46.8918
-42.7504
-47.1963
-41.4621
-41.664
-46.3007
-36.682
-38.6874
-40.2778
-39.3924
-46.9393
-46.8829
-42.2652
-41.1497
-44.6338
-44.5173
-48.4665
-46.3223
-44.8107
-45.5014
-46.7666
-44.029
-36.8697
-36.0713
-35.4026
-35.889
-36.1088
-37.7274
-36.7435
-35.9215
-39.0604
-35.9486
-37.5844
-39.854
-38.5978
-38.3125
-37.3442
-35.2955
-58.7787
-50.1761
-47.837
-61.1773
-37.3586
-36.7696
-40.6014
-42.5036
-37.6646
-42.5745
-40.6023
-36.8161
-58.9117
-61.1859
-47.8396
-50.1749
-32.7327
-25.6651
-24.5621
-31.7917
-34.236
-32.975
-27.4887
-27.8182
-34.1259
-33.2683
-29.5903
-33.4867
-33.124
-32.4434
-28.2838
-32.7626
-56.2063
-105.643
-85.3292
-39.4063
-39.0208
-43.2099
-58.6522
-32.8092
-80.3282
-38.0964
-35.7908
-40.0217
-100.72
-54.2881
-80.609
-40.4078
-40.0594
-42.9364
-27.5187
-57.1917
-82.4501
-36.6833
-38.8573
-40.8165
-40.0818
-37.9064
-38.2555
-38.7179
-32.2024
-34.4547
-35.6252
-35.3817
-51.9106
-49.9122
-51.4283
-57.3384
-50.6111
-49.3804
-51.3445
-55.5001
-40.7762
-38.8969
-36.9231
-38.4816
-33.3234
-36.0861
-34.6994
-35.5397
-52.664
-58.1013
-50.3604
-51.6538
-50.4449
-55.5299
-49.0263
-51.2125
-55.9762
-55.9831
-78.8839
41.6301
-106.144
-105.918
-92.0596
-45.2448
-59.5766
-52.8178
-57.0779
-57.767
-37.2759
-37.2574
-40.8029
-33.2429
-32.424
-33.0061
-34.45
-27.8307
-39.0517
-37.1565
-39.8046
-37.2563
-24.2078
-24.1665
-31.9874
-9.17879
-62.1431
-59.232
-61.5857
-38.9742
-34.886
-34.94
-35.8197
-34.2473
-46.4417
-48.0842
-46.6914
-48.107
-56.0938
-55.7269
-78.6014
40.3291
-66.9763
-60.3756
-60.5201
-62.7831
-38.491
-38.1834
-41.6141
-34.3689
-42.7887
-40.9779
-42.34
-39.6016
-62.8295
-59.8612
-62.2215
-37.7518
-46.7738
-48.3715
-46.9081
-48.1379
-35.0785
-35.8419
-36.6065
-34.4619
-41.4602
-42.7219
-42.8254
-41.5683
-40.6408
-40.8356
-42.3052
-38.969
-39.2393
-40.6907
-39.8316
-39.9051
-38.5955
-38.5019
-37.3578
-37.7645
-50.8692
-50.132
-48.1634
-54.8613
-25.7436
-26.6044
-17.2513
-36.5386
-68.885
-68.892
-72.5074
-65.5247
-34.701
-34.8594
-35.4833
-33.9012
-42.0134
-43.2393
-43.7047
-41.8804
-39.0708
-40.6173
-39.7853
-39.6208
-51.0412
-50.1168
-48.164
-54.7814
-63.6499
-58.6922
-58.8843
-55.2079
-64.7163
-59.9413
-60.0575
-56.756
-69.8753
-64.6717
-67.6531
-61.0101
-10.3583
-0.521569
-1.81946
3.7837
202.038
207.403
188.432
202.184
-39.9046
-40.4273
-40.543
-41.1703
-39.7251
-40.2739
-40.3944
-41.0226
-33.2326
-34.4949
-34.2925
-33.1976
-82.4818
-85.3831
-81.5494
-82.6571
-44.8006
-43.1052
-44.0979
-42.4182
-46.0414
-44.1616
-44.9796
-43.1104
-36.5888
-36.4544
-37.0777
-36.4695
-41.9238
-43.7596
-43.7562
-45.6865
-27.8193
-26.2148
-27.6041
-28.8499
-39.1565
-47.4436
-79.8761
44.3142
-112.654
-111.634
-96.8569
-78.381
-87.5241
-69.0672
-88.2986
-70.7918
-38.0479
-37.3662
-41.3616
-33.2112
-36.3062
-33.8117
-36.3905
-31.5935
-46.698
-41.1113
-48.1524
-40.6922
-46.897
-52.7599
-96.6194
32.7123
-21.2853
-32.6804
-34.9465
-4.77068
-66.6981
-64.5976
-70.471
-47.812
-37.27
-37.2569
-41.3401
-33.7704
-34.0324
-34.2756
-35.3737
-33.1458
-41.5833
-43.8993
-43.4069
-40.6528
-110.43
-111.416
-95.5071
-75.4098
-39.4591
-47.6121
-79.4257
44.01
-69.832
-56.1455
-72.6981
-57.3924
-36.9341
-35.5729
-37.6046
-32.9871
-38.98
-38.6399
-41.5894
-34.6252
-48.3331
-44.141
-50.1389
-42.0973
-21.5107
-32.6563
-34.7924
-4.35163
-49.646
-50.6906
-96.4413
32.1774
-67.4952
-66.179
-70.6332
-48.2603
-34.6023
-34.5118
-35.6385
-33.7234
-38.3169
-38.4025
-42.445
-34.9093
-42.1633
-44.3584
-44.3583
-40.8665
-43.4561
-48.1816
-45.3265
-48.3851
-36.4091
-35.4546
-35.8596
-35.4874
-39.3931
-40.4316
-40.8745
-39.0262
-39.3724
-40.2985
-41.6486
-38.7075
-43.6512
-36.1654
-37.6019
-38.548
-35.6638
-34.773
-37.127
-35.163
-37.025
-38.0353
-37.6588
-37.7599
-36.4894
-38.0825
-36.4512
-36.9161
-54.3842
-55.931
-52.8123
-72.4842
-47.2861
-44.538
-46.3508
-45.3812
-50.995
-51.1418
-49.5363
-57.4985
-42.1921
-26.8235
-23.1278
-36.9611
-50.2875
-48.9508
-48.0148
-53.7415
-45.5429
-42.7872
-43.9563
-44.0637
-50.7617
-49.3772
-48.6088
-48.0374
-64.759
-67.9154
-68.9089
-64.2884
-67.6301
-33.7542
-50.7603
-57.2631
-40.3962
-40.9654
-42.8697
-39.2227
-35.8565
-34.8887
-35.3666
-34.8432
-39.8934
-41.0568
-42.1992
-39.1925
-37.2848
-36.4476
-37.7333
-37.7194
-36.2362
-38.0685
-36.3743
-36.4818
-34.8154
-34.9946
-36.3667
-34.3733
-36.7255
-37.8002
-37.4253
-37.138
-54.8104
-56.3887
-53.3251
-72.6143
-44.6705
-28.0933
-24.591
-38.393
-47.7063
-45.0102
-46.9512
-45.6683
-50.8013
-51.0445
-49.522
-57.265
-50.2904
-49.3324
-48.1695
-54.1371
-64.8387
-68.0253
-69.011
-64.3557
-45.4965
-42.8192
-44.1323
-43.7942
-51.1435
-49.7004
-49.289
-48.3785
-98.2869
-74.6282
-85.5459
-84.735
150.729
195.662
185.782
171.176
-71.2184
-72.7176
-66.797
-66.6958
117.715
187.135
155.754
155.078
-57.6165
-58.5712
-63.0006
-54.5158
-62.2657
-65.0088
-67.6401
-60.4935
-44.8783
-46.3136
-46.2812
-46.4579
-31.7986
-29.2919
-30.6195
-30.7156
-35.8401
-36.5426
-36.2282
-36.0462
-22.6644
-22.0165
-22.7174
-24.6654
-40.9389
-42.058
-40.4308
-42.7709
-36.7166
-36.6227
-36.4528
-37.0042
-28.9984
-19.9668
-25.9097
-25.5757
107.737
145.766
138.433
137.911
-60.1099
-58.9104
-56.5862
-62.881
-14.3805
-2.73597
-12.4457
-6.83417
-37.7583
-39.0362
-38.339
-38.3975
-30.2919
-28.6809
-29.7465
-29.0442
-45.8249
-45.3174
-46.6359
-45.0225
-44.8579
-43.9538
-46.1856
-42.5048
-95.8947
-74.2672
-83.6851
-83.6387
151.146
195.708
170.992
185.98
-59.6582
-59.9831
-64.7092
-55.9007
-65.3668
-68.4315
-66.5391
-64.0792
-47.1499
-49.1492
-48.4586
-49.7638
-33.0769
-31.3018
-32.4948
-32.3928
-42.8601
-43.4617
-41.9576
-44.3563
-38.0656
-37.2763
-38.0704
-38.5297
-60.8291
-59.8091
-63.5004
-57.552
-10.6784
-4.01528
-1.65832
-15.8625
-46.3354
-46.0566
-45.5097
-47.4002
-44.9679
-43.9659
-42.531
-46.2024
-37.4674
-38.742
-38.1806
-38.3383
-34.6005
-34.4108
-34.6091
-34.5523
-44.7192
-49.6244
-45.8123
-46.3472
-40.9721
-40.5967
-40.1578
-41.4783
-48.842
-54.016
-51.2708
-51.0292
-37.4846
-34.3019
-36.1036
-36.1171
-42.3152
-41.0863
-40.9994
-42.2587
-40.0774
-39.2121
-39.4377
-40.4407
-36.18
-35.0507
-35.625
-35.6761
-35.7692
-35.7607
-35.7026
-35.6151
-45.1578
-42.9553
-44.0275
-44.3065
-73.3332
-80.6002
-79.3449
-73.2515
-4.46356
3.54161
-0.436278
-0.390439
-70.3973
-91.9905
-87.9623
-86.7064
-79.2953
-83.8032
-82.9153
-82.728
-57.5481
-50.6567
-53.9054
-53.9107
-36.6769
-38.4363
-37.7277
-38.1079
-34.2967
-34.2152
-34.4213
-34.4191
-46.2224
-50.9608
-47.8873
-47.8561
-40.9713
-40.462
-39.9913
-41.4145
-42.2422
-40.9981
-42.2416
-40.9009
-39.8918
-39.3043
-39.2612
-40.4589
-45.1271
-42.8559
-44.2332
-43.9814
-65.6598
-80.6778
-76.5075
-76.3231
-96.0744
-87.6684
-86.6521
-74.5066
-44.9223
-43.9315
-48.6586
-45.4798
-49.467
-47.6823
-50.7079
-47.5509
-90.2389
-79.1705
-82.4636
-72.4791
-89.022
-84.6107
-83.4782
-73.7171
-89.3527
-78.8648
-81.964
-72.5256
-50.3193
-48.4824
-51.5169
-48.6125
-49.7256
-47.5831
-51.0737
-48.1801
-71.4756
-63.6264
-67.3591
-66.7207
-69.7955
-61.6104
-66.7141
-66.284
-56.5813
-50.6668
-56.7244
-52.3064
-54.3277
-48.9563
-55.4111
-51.2657
-33.0651
-32.5549
-28.116
-26.9301
-14.5331
-13.1229
-4.44874
-3.6625
-14.2084
-13.7127
-4.72693
-4.04542
-33.4128
-32.9459
-27.8049
-26.314
133.036
105.442
167.635
145.699
112.09
113.432
125.605
133.122
113.18
112.109
132.289
124.94
103.196
133.421
144.538
167.699
-37.2524
-38.2961
-38.1474
-38.91
-39.8102
-39.5689
-38.8917
-40.5581
-46.1795
-46.1966
-43.9431
-44.6667
-44.8071
-46.1338
-43.4437
-44.6809
-36.8323
-37.9995
-37.7081
-38.6067
-44.8769
-46.1321
-43.4157
-44.6291
-46.4338
-46.5869
-44.1172
-44.7342
-39.2523
-39.1802
-38.6358
-40.2703
-35.9434
-36.6663
-35.5654
-36.1436
-36.7801
-35.7838
-36.1888
-35.4773
-35.7427
-34.9861
-34.6932
-34.7418
-35.426
-36.0081
-35.0577
-35.0763
-86.6272
-58.7164
-85.0055
-79.4152
-65.3357
-72.9418
-75.1529
-79.2798
-72.7301
-65.0319
-79.1516
-74.9118
-61.1441
-85.6584
-77.6641
-84.2712
-38.3276
-39.0996
-38.2507
-38.9038
-45.9366
-47.0289
-46.5759
-45.126
-44.1563
-44.1028
-45.364
-45.6225
-44.825
-43.8334
-43.7517
-42.3443
-38.1469
-38.1355
-37.9931
-38.545
-44.7802
-43.4982
-43.9368
-42.3572
-45.6851
-45.6127
-47.0908
-47.1076
-48.5893
-49.7694
-50.2533
-48.2243
-36.2798
-36.9844
-34.896
-35.6272
-36.7487
-37.3468
-37.7644
-36.4875
-36.4719
-38.8828
-36.9882
-38.1979
-36.9861
-37.7692
-36.5135
-37.3556
-54.4778
-57.8238
-51.0022
-54.2241
-38.0287
-39.2611
-38.7622
-39.9071
-38.1305
-39.3706
-38.7993
-39.9715
-54.446
-57.871
-50.9786
-54.2429
-31.0343
-29.6026
-29.5408
-26.9131
-31.708
-32.6998
-29.818
-31.8025
-33.4936
-33.4865
-32.1559
-33.124
-32.5765
-32.6149
-31.7882
-31.1027
-77.5317
19.0551
-103.5
-47.2064
-69.3007
-87.4237
-41.5862
-34.2674
-38.2227
-34.9042
-44.314
-41.1652
-95.6298
16.3105
-39.455
7.83603
-82.1385
-56.6019
-41.7774
-34.3164
-35.9448
-33.5524
-42.8189
-38.5073
-99.2684
-43.656
-77.46
21.2048
-70.6439
-79.369
-38.6179
-36.7937
-41.7468
-35.5113
-45.4331
-41.5461
-40.1999
9.61982
-95.5938
17.0699
-82.5054
-56.5822
-36.4045
-34.5251
-42.711
-35.3487
-43.9202
-38.9272
-44.0852
-43.9115
-37.4029
-36.8375
-39.8801
-38.2717
-40.2973
-37.4932
-38.6924
-38.1374
-36.1756
-35.7506
-36.8612
-35.608
-36.0104
-36.8476
-51.7113
-63.5912
-49.203
-47.9732
-49.1305
-56.9964
-71.5195
-71.6885
-49.4552
-53.9356
-46.9061
-47.2735
-49.4791
-56.7721
-61.7352
-59.2938
-49.7571
-48.8547
-42.1113
-37.7273
-36.6607
-36.2122
-41.5795
-38.008
-35.9036
-35.974
-35.8824
-36.3001
-36.0447
-34.7545
-36.5692
-35.6479
-52.3263
-64.2345
-74.273
-70.9967
-49.7682
-48.2573
-49.287
-57.1011
-49.2464
-53.9588
-61.9151
-59.4842
-47.0092
-47.0919
-49.7202
-56.7986
-76.2256
45.9778
-89.5877
37.7572
-96.3286
-98.229
116.014
103.102
-94.7727
-97.8429
-94.1727
-107.753
-78.7787
-78.351
33.6063
31.5062
-64.3533
-64.772
-50.5943
-52.0159
-62.4046
-53.7787
-64.3874
-56.8472
-41.1576
-32.9648
-41.236
-33.2333
-43.0744
-42.8291
-32.0622
-32.3575
-34.8098
-28.9365
-35.7035
-30.4567
-35.4511
-35.1034
-24.4606
-25.6244
-42.0275
-39.4283
-37.3459
-35.8045
-39.9259
-42.117
-36.4701
-37.4365
-33.5571
-4.91433
-33.4123
-3.75374
-32.5491
-32.3585
50.6686
49.6121
-67.3616
-41.4677
-55.9625
-44.712
-58.8327
-64.5365
-25.3224
-15.7661
-35.6274
-33.9245
-35.7158
-34.1661
-36.7653
-36.7856
-33.0093
-32.6881
-45.4642
-44.2753
-47.6995
-51.311
-46.152
-46.0482
-48.3101
-44.2268
-74.9795
48.0712
-89.6724
37.6167
-94.741
-97.5022
103.41
116.425
-68.6752
-68.8549
-48.0993
-52.8103
-65.6409
-55.3265
-67.5675
-60.0267
-41.5892
-34.3343
-42.0586
-34.5328
-44.215
-44.0862
-33.2014
-33.4327
-45.549
-42.406
-38.7877
-38.0176
-41.5382
-43.9102
-37.9888
-39.6311
-67.4218
-41.251
-56.4655
-46.9229
-64.9962
-59.4396
-15.3756
-25.0585
-46.0657
-44.34
-48.1353
-51.4899
-46.5861
-46.4651
-44.2782
-48.3229
-36.6085
-34.8997
-35.8667
-34.6443
-36.6446
-36.9019
-35.3304
-34.7286
-41.7769
-40.1938
-44.2011
-43.1038
-43.1666
-44.1089
-40.5899
-41.9626
-42.2102
-39.3572
-42.7225
-39.6421
-45.8708
-45.6241
-38.2395
-38.342
-38.6468
-39.0122
-41.7044
-41.5076
-40.7528
-42.1936
-39.2795
-40.6843
-37.3361
-37.6871
-37.1847
-37.4789
-36.6559
-36.6989
-36.0607
-35.9777
-48.8622
-56.5396
-48.2559
-52.7234
-45.6348
-46.9883
-62.2046
-58.5989
-16.7197
-35.5245
-17.9843
-36.9467
-9.83669
-9.90576
-46.8674
-48.3981
-71.5448
-65.2116
-71.591
-65.2551
-75.8268
-75.7847
-61.2087
-61.1343
-35.0076
-34.2381
-35.6284
-34.1375
-36.3021
-36.5459
-34.7675
-34.272
-42.8148
-40.3999
-44.906
-43.405
-45.1736
-44.5321
-40.6718
-42.1149
-38.5229
-38.6755
-41.9418
-41.545
-42.1703
-40.6361
-38.9648
-40.3905
-48.8354
-56.3513
-48.1809
-52.8913
-47.0002
-45.5966
-58.735
-61.4894
-67.7332
-67.1179
-63.1839
-54.9878
-55.6084
-63.1359
-52.8716
-53.4539
-68.2416
-67.8501
-64.4142
-56.4712
-63.9785
-56.7109
-54.6187
-54.2098
-75.9906
-71.6808
-68.8314
-63.7745
-70.585
-64.8057
-57.3351
-57.1626
-20.0173
-17.6197
-10.539
0.917444