# vtk DataFile Version 2.0
tri_press
ASCII
DATASET UNSTRUCTURED_GRID
POINTS 3682 float
-0.635 0.175 -2.06575
-0.556615 0.235 2.155
-0.675 0.711459 -1.885
-0.572902 0.945 2.045
0.641788 0.175 -2.065
0.547894 0.235 2.155
0.675 0.708672 -1.895
0.565 0.94859 2.045
-0.633224 0.170648 -0.658833
-0.620304 0.177439 0.748083
-0.732543 0.880882 -0.575
-0.710413 0.970632 0.735
0.639767 0.165723 -0.658334
0.616565 0.177627 0.748333
0.734647 0.884958 -0.581667
0.708542 0.975493 0.731667
-1.30869 -0.225309 -3.18566
-1.30684 -0.17004 -2.09808
-1.29856 -0.169836 -0.689001
-1.26139 -0.178053 0.739006
-1.20137 -0.145346 2.14967
-1.19247 -0.115089 3.24501
-1.20463 -0.0857207 4.32586
-1.31309 0.0924074 -3.13171
-1.31737 0.166953 -2.05429
-1.3151 0.188911 -0.663932
-1.26578 0.191716 0.734679
-1.17682 0.220265 2.12682
-1.17615 0.249656 3.22086
-1.19718 0.279056 4.30486
-1.33354 0.695385 -2.99568
-1.35932 0.766908 -1.91273
-1.39056 0.894142 -0.588157
-1.33663 0.959576 0.728931
-1.20825 0.953961 2.05509
-1.19561 0.980689 3.15293
-1.21191 1.01324 4.25228
-1.34093 1.71643 -2.86559
-1.35554 1.80362 -1.79813
-1.37176 1.94541 -0.503486
-1.36405 2.05283 0.76985
-1.327 2.09362 2.06487
-1.2973 2.11162 3.13314
-1.28202 2.13463 4.22168
-0.644795 -0.222055 -3.19319
-0.642541 -0.163853 -2.10808
-0.640087 -0.179195 -0.688591
-0.630383 -0.188468 0.750583
-0.595951 -0.14073 2.17046
-0.587005 -0.112607 3.259
-0.593628 -0.0858172 4.33374
-0.643134 0.0891723 -3.13559
-0.570839 0.252918 3.23236
-0.586906 0.278918 4.31072
-0.656598 0.670612 -2.98642
-0.583481 0.978159 3.15063
-0.597701 1.01162 4.25142
-0.661535 1.69913 -2.85607
-0.671672 1.78728 -1.78733
-0.691484 1.94132 -0.497468
-0.704058 2.05796 0.767687
-0.690479 2.0964 2.0574
-0.667987 2.11194 3.12581
-0.653985 2.13434 4.2162
0.664417 -0.222409 -3.19479
0.647693 -0.164655 -2.10814
0.640066 -0.18213 -0.68854
0.610509 -0.18868 0.750559
0.565698 -0.140419 2.17036
0.588464 -0.111713 3.2587
0.609245 -0.0845871 4.33319
0.669264 0.0887643 -3.13792
0.587721 0.254068 3.23213
0.609627 0.280355 4.31019
0.684144 0.669705 -2.99213
0.591482 0.980539 3.15025
0.608021 1.01357 4.25075
0.697739 1.69964 -2.86094
0.699889 1.78827 -1.79241
0.686071 1.94343 -0.501725
0.640487 2.06072 0.764805
0.595356 2.09914 2.05562
0.590717 2.1144 3.12444
0.598273 2.13649 4.21494
1.3247 -0.225825 -3.18956
1.31127 -0.171163 -2.10032
1.29991 -0.172621 -0.690508
1.25384 -0.177844 0.738082
1.19025 -0.143878 2.14908
1.19731 -0.112993 3.24416
1.21965 -0.0832065 4.3246
1.33171 0.0919434 -3.13693
1.32112 0.166671 -2.05776
1.31983 0.186519 -0.666364
1.26909 0.192947 0.733466
1.1801 0.222384 2.12641
1.19174 0.252291 3.22011
1.21752 0.281955 4.30364
1.35469 0.694764 -3.00525
1.36201 0.766837 -1.92389
1.39327 0.897734 -0.596422
1.33758 0.965027 0.724633
1.20618 0.959183 2.05388
1.20112 0.985043 3.15179
1.2199 1.01702 4.25076
1.37287 1.71763 -2.87466
1.37746 1.80569 -1.80742
1.36493 1.94927 -0.511343
1.31181 2.05784 0.764345
1.24912 2.09871 2.06127
1.22965 2.11629 3.1303
1.23017 2.1388 4.21908
-0.706697 0.443229 -2.02707
0.00339401 0.168171 -2.0722
-0.637483 0.169453 -1.36229
-0.638278 0.59 2.17352
-0.0043605 0.262558 2.12744
-0.586621 0.208058 1.45154
0 0.776821 -1.95676
-0.72091 0.813309 -1.23
-0.00395101 0.983396 2.0816
-0.66289 0.979048 1.39
0.709262 0.441836 -2.03087
0.645361 0.165778 -1.36167
0.630741 0.591795 2.17429
0.586688 0.201855 1.45167
0.721158 0.813149 -1.23833
0.656767 0.982037 1.38833
-0.624588 0.176219 0.044625
-0.841574 0.525765 -0.616917
0.0032715 0.162605 -0.658583
-0.844312 0.574035 0.741542
-0.00186985 0.174157 0.748208
-0.720972 0.925251 0.08
0.0010518 1.15748 -0.578333
-0.000935538 1.33628 0.733334
0.625653 0.174188 0.045
0.844847 0.525341 -0.62
0.844658 0.57656 0.74
0.721422 0.930053 0.075
-0.877682 0.484497 -1.29615
0.875172 0.483588 -1.3
0.00333275 0.158076 -1.36198
0.000525901 0.903221 -1.23417
0.001697 0.442533 -2.23996
-0.84803 0.5499 0.0623125
0.850949 0.55095 0.06
0.000700823 0.170968 0.0448125
5.81316e-05 1.34006 0.0775
-0.895406 0.582018 1.42077
0.893897 0.584178 1.42
-0.00311517 0.221129 1.4516
-0.00244328 1.15022 1.38917
-0.00415576 0.590897 2.23628
-0.63104 0.309115 -2.0066
-0.315803 0.171632 -2.06893
-0.639668 0.1688 -1.71402
-0.589476 0.4125 2.15629
-0.280488 0.268509 2.12149
-0.575815 0.217332 1.80327
-0.707658 0.577344 -1.97285
-0.3375 0.771093 -1.94783
-0.70363 0.768059 -1.5575
-0.585613 0.7675 2.08928
-0.288427 0.976825 2.07593
-0.618766 0.962894 1.7175
0.322591 0.171613 -2.06857
0.635301 0.308418 -2.00771
0.646898 0.167065 -1.71333
0.271767 0.268473 2.12153
0.581698 0.413397 2.15703
0.574332 0.211387 1.80333
0.3375 0.769696 -1.95283
0.707552 0.575254 -1.97835
0.704174 0.767006 -1.56667
0.280524 0.977236 2.07454
0.578962 0.770192 2.09074
0.609676 0.964106 1.71667
-0.635363 0.170041 -1.01056
-0.626737 0.175603 -0.307104
-0.832316 0.300748 -0.637875
-0.309763 0.177053 -0.658708
-0.595845 0.200366 1.09981
-0.618104 0.181171 0.396354
-0.844442 0.31967 0.744813
-0.299941 0.19809 0.748146
-0.730782 0.85115 -0.9025
-0.830596 0.725092 -0.595958
-0.723567 0.899876 -0.2475
-0.416718 1.12113 -0.576667
-0.696972 0.98516 1.0625
-0.816775 0.79204 0.738271
-0.719654 0.951902 0.4075
-0.437753 1.31761 0.734167
0.643255 0.16506 -1.01
0.313529 0.180144 -0.658458
0.631143 0.171523 -0.306667
0.83497 0.2992 -0.639167
0.597562 0.193805 1.1
0.291486 0.207615 0.748271
0.617784 0.179233 0.396667
0.841173 0.321813 0.744167
0.731758 0.852909 -0.91
0.416707 1.11893 -0.58
0.833152 0.726852 -0.600833
0.724204 0.903675 -0.253333
0.694366 0.990477 1.06
0.434824 1.31793 0.7325
0.815927 0.79569 0.735834
0.718254 0.956045 0.403333
-0.877095 0.463863 -1.66161
-0.3525 0.442881 -2.19226
0.00336338 0.158783 -1.71709
0.00254551 0.305352 -2.20916
-0.871788 0.326975 -1.32922
-0.317075 0.166282 -1.36214
-0.781792 0.586009 1.79715
-0.321217 0.590449 2.22194
-0.00373784 0.225859 1.78952
-0.00425813 0.426728 2.21016
-0.888735 0.395038 1.43616
-0.294868 0.213837 1.45157
0.00026295 0.852867 -1.59546
0.000848502 0.609677 -2.1928
-0.868888 0.648903 -1.26307
-0.360192 0.892782 -1.23208
-0.00319714 1.0055 1.73538
-0.00405338 0.787147 2.12951
-0.797715 0.780533 1.40539
-0.332667 1.12916 1.38958
0.872802 0.462712 -1.66543
0.35548 0.442184 -2.19324
0.871351 0.324683 -1.33083
0.324347 0.166146 -1.36182
0.775488 0.587986 1.79715
0.313292 0.591346 2.22268
0.888755 0.393016 1.43583
0.291787 0.227973 1.45164
0.871774 0.648369 -1.26917
0.360842 0.892431 -1.23625
0.792862 0.783107 1.40417
0.327162 1.13015 1.38875
-0.837249 0.31259 0.0534688
-0.304402 0.188677 0.0447188
-0.845264 0.505131 -0.956531
-0.844736 0.537832 -0.277302
0.00330212 0.156704 -1.01028
0.00198616 0.169791 -0.306885
-0.848604 0.561968 0.401927
-0.896013 0.578027 1.08116
-0.000584514 0.177909 0.39651
-0.00249251 0.188485 1.09991
-0.829355 0.760002 0.0711563
-0.452976 1.31769 0.07875
0.000788851 0.959849 -0.90625
0.000554967 1.30021 -0.250417
-0.000438703 1.34825 0.405417
-0.00168941 1.30477 1.06125
0.840598 0.311421 0.0525
0.30208 0.194772 0.0449062
0.849015 0.504465 -0.96
0.847698 0.538146 -0.28
0.848712 0.563755 0.4
0.895987 0.580369 1.08
0.832337 0.763578 0.0675
0.45199 1.31756 0.07625
-0.869368 0.318045 -1.68781
-0.854859 0.337591 -0.983547
-0.834367 0.676113 -0.929516
-0.87565 0.613124 -1.60955
0.862469 0.316551 -1.68938
0.875215 0.611811 -1.61605
0.83749 0.676759 -0.935
0.859961 0.335107 -0.985
-0.316439 0.165698 -1.71556
0.323469 0.165586 -1.71521
0.322933 0.173242 -1.01014
-0.316026 0.172019 -1.01042
-0.348846 0.848614 -1.57648
-0.362969 0.933593 -0.904375
0.364346 0.931672 -0.908125
0.349171 0.847901 -1.58106
-0.334151 0.307233 -2.04736
-0.345 0.593511 -2.16659
0.34649 0.592465 -2.16705
0.339035 0.306885 -2.00079
-0.834721 0.306699 -0.292203
-0.838244 0.317431 0.399141
-0.825292 0.777135 0.404714
-0.829951 0.742535 -0.262401
0.837508 0.305449 -0.293333
0.832188 0.744936 -0.266667
0.82456 0.779848 0.401667
0.83906 0.317529 0.398333
-0.306884 0.183263 -0.306995
0.307067 0.188934 -0.306776
0.295188 0.204383 0.396589
-0.300792 0.196142 0.396432
-0.462097 1.27391 -0.248958
-0.449742 1.32641 0.406458
0.447805 1.32654 0.404375
0.461892 1.27333 -0.251875
-0.890954 0.385388 1.09048
-0.780472 0.403769 1.80021
-0.749125 0.774016 1.75732
-0.811206 0.776433 1.07183
0.890943 0.385055 1.09
0.806984 0.779567 1.07
0.743435 0.77665 1.75691
0.774069 0.403207 1.80024
-0.302978 0.205239 1.09986
0.299567 0.215913 1.09995
0.281777 0.235481 1.79643
-0.287678 0.24004 1.7964
-0.344171 1.2623 1.06188
-0.310547 0.998471 1.72644
0.303843 0.998768 1.72603
0.340483 1.26295 1.06063
-0.300852 0.419614 2.19526
0.29253 0.420063 2.19572
0.296908 0.77867 2.11528
-0.304822 0.777323 2.1144
-0.641861 0.242057 -2.04502
-0.475401 0.17164 -2.06902
-0.636336 0.172898 -1.88989
-0.560366 0.32375 2.14297
-0.418551 0.28959 2.10041
-0.557486 0.234895 1.97914
-0.685155 0.644402 -1.92275
-0.50625 0.738097 -1.91324
-0.693671 0.744115 -1.72125
-0.584465 0.85625 2.07235
-0.430664 0.967493 2.06704
-0.599728 0.957841 1.88125
0.48219 0.172515 -2.06758
0.647396 0.241709 -2.04521
0.644989 0.170387 -1.88917
0.40983 0.289594 2.10041
0.551885 0.324199 2.1431
0.548924 0.235382 1.97917
0.50625 0.73566 -1.92039
0.68371 0.641963 -1.92911
0.694206 0.742458 -1.73083
0.422762 0.968461 2.06532
0.577472 0.859391 2.07336
0.589864 0.958874 1.88083
-0.634259 0.170378 -0.834698
-0.62781 0.175295 -0.482969
-0.82833 0.187918 -0.648354
-0.473043 0.170752 -0.658771
-0.60256 0.194417 0.923948
-0.616999 0.18151 0.572219
-0.841284 0.194099 0.746448
-0.463305 0.181399 0.748115
-0.734818 0.869171 -0.73875
-0.799839 0.812122 -0.585479
-0.726153 0.888476 -0.41125
-0.615661 1.08307 -0.575833
-0.704138 0.978342 0.89875
-0.762986 0.881032 0.736636
-0.716052 0.962285 0.57125
-0.602481 1.20092 0.734584
0.640828 0.166074 -0.834167
0.480208 0.165814 -0.658396
0.633187 0.170891 -0.4825
0.830075 0.186108 -0.64875
0.600788 0.191992 0.924167
0.460236 0.1802 0.748302
0.61554 0.180064 0.5725
0.837584 0.195363 0.74625
0.736875 0.872607 -0.745833
0.6148 1.08019 -0.580833
[...]
POINT_DATA 3682
SCALARS point_scalars float 1
LOOKUP_TABLE default
-68.3751
-35.7653
-51.5927
-34.175
-68.9533
-35.4035
-46.9661
-33.9167
-37.2973
-37.4596
-62.3249
-49.5368
-37.4821
-37.0012
-62.9355
-49.6198
-50.3697
-118.633
-34.4992
-35.396
-39.869
-36.4967
-31.0667
-50.3697
-110.965
-34.5521
-41.6228
-37.0409
-31.9535
-31.3299
70.4221
-78.6546
-47.4147
-45.436
-37.1663
-31.9783
-30.95
-28.8944
-57.6217
-97.9756
-59.6362
-35.6902
-33.4985
-32.5262
40.5338
-103.077
-37.4036
-37.6594
-35.7978
-33.8053
-29.6789
57.3131
-30.062
-29.7179
156.924
-30.6254
-30.1821
-21.0719
-38.4726
-86.811
-62.2609
-33.2937
-31.3529
-30.5391
45.1062
-88.733
-37.4555
-36.9063
-35.6344
-31.56
-30.2127
126.789
-30.4198
-30.1328
160.683
-31.0032
-30.5416
-29.4386
-38.3653
-86.5901
-63.0042
-32.7859
-31.5411
-30.7609
-67.0659
-116.662
-34.9228
-38.2549
-39.2113
-35.9613
-31.1912
-67.0659
-107.443
-35.0079
-40.9824
-37.0114
-32.232
-30.9312
73.2609
-77.5025
-47.3932
-45.4846
-37.3205
-32.2923
-31.5188
-29.1002
-57.9244
-97.3224
-59.9496
-34.3736
-34.0753
-32.8742
26.5605
-135.52
-54.4062
-31.8965
-30.1818
-37.4918
-50.4574
-37.8387
-32.9075
-45.8598
27.2663
-53.9305
-32.1015
-38.3572
-37.4793
-45.7046
-34.1079
-38.5327
-38.1394
-36.7266
-36.3533
-51.6047
5.42713
-65.3595
-34.0393
-38.8433
-37.0307
-52.5928
-57.9824
-57.3823
-55.8534
-4.62654
206.995
-38.4902
-39.5193
-34.6589
-86.5177
-55.164
-55.8264
-34.8869
-40.9219
-22.864
91.0064
-174.839
-83.7075
-31.7864
-31.1504
-39.717
-8.37918
-49.7721
-51.4036
-31.9316
-31.4165
-38.1823
-183.805
91.473
-82.5554
-32.351
-31.9879
-40.8291
-51.4355
-9.1489
-51.4343
-31.6662
-32.167
-38.1574
-40.9455
-33.7553
-35.3052
-37.6873
-36.4703
-33.367
-24.658
-36.1634
-37.4016
-46.4419
-56.876
-1.20202
-49.7932
-45.0163
-51.3522
-63.2634
-41.108
-37.8962
-33.9278
-35.7064
-36.8358
-36.2481
-33.3778
-24.6982
-36.7105
-0.800187
-46.806
-57.5832
-50.2275
-63.2556
-45.246
-51.5859
-117.646
179.096
-79.0537
177.122
-57.0705
-56.1535
-39.7679
-28.6977
-35.398
-24.747
-49.4028
-35.7763
-27.6183
148.316
-59.9857
-10.6929
-35.6618
-25.4395
-48.099
-41.5291
-106.791
180.88
-56.6174
-56.1535
-39.7598
-29.1907
-50.0894
-35.9374
-59.4043
-10.903
-48.532
-41.5185
-34.9809
-34.2838
-42.5177
-38.7482
-44.0579
-34.5818
-38.295
-46.0542
-33.9223
-36.2659
-44.7941
-78.1547
20.3691
-97.6274
-74.8128
-52.9772
-35.6992
-34.2708
-42.697
-39.0988
-38.3652
-46.0258
-45.9248
-78.8452
-113.104
-45.6703
-43.2462
-98.1329
-108.236
-95.0129
-43.6305
-45.7401
-80.4856
-80.6179
-43.4935
-43.5508
-31.0316
11.2896
10.3634
-31.1721
157.435
125.572
136.138
154.689
-34.9247
-34.4036
-44.5342
-46.1767
-35.3383
-46.7482
-44.6143
-34.4849
-34.5262
-34.5495
-33.9655
-33.9635
-91.4379
-68.5229
-68.7267
-91.1212
-43.662
-39.8969
-40.2273
-46.5356
-44.0675
-46.9228
-40.3093
-40.0055
-35.8915
-36.0318
-36.4999
-36.4578
-52.4004
-36.2226
-36.2217
-52.4517
-28.6039
-29.0062
-29.1488
-28.8077
66.4623
-187.789
-113.749
-32.9248
-34.077
-35.7501
-15.3091
-46.5614
-52.457
-32.5905
-31.6624
-35.5695
-194.7
67.6531
-118.317
-34.5601
-33.1561
-36.4339
-46.0212
-15.0977
-53.3648
-31.8495
-32.9593
-35.5466
-38.1774
-34.4058
-34.5323
-37.359
-38.25
-34.3118
-31.3909
-36.6418
-55.0742
-53.8513
-59.8269
-55.7495
-49.7788
-48.9996
-50.1096
-57.2193
-38.4293
-37.7304
-34.6683
-34.961
-37.6941
-36.4336
-34.2168
-30.7861
-54.4292
-52.3501
-54.282
-60.3348
-50.0514
-57.2775
-49.2034
-50.1241
42.9065
6.45727
-51.4326
140.531
-146.571
-148.165
-98.6722
64.3896
-65.4544
-46.8179
-56.054
-55.4532
-31.7079
-31.5587
-35.9939
-30.5541
-31.4023
-31.5181
-32.7011
-33.486
-39.4305
-37.5955
-46.323
-36.2765
-50.5153
-53.2944
-39.0305
47.3343
-45.1058
-33.3648
-55.3285
-20.2481
-32.527
-32.5925
-33.9726
-27.3089
-41.6573
-49.3412
-46.3741
-42.9961
45.1754
3.02277
-54.4874
140.325
-64.7287
-46.5985
-55.4011
-55.2982
-31.9217
-31.7752
-36.1795
-30.8027
-39.8794
-37.4171
-46.8391
-36.488
-43.4637
-33.2055
-54.9913
-20.3186
-41.546
-49.2895
-46.5374
-42.9456
-33.5814
-33.0313
-33.6174
-34.2229
-36.4489
-41.5488
-39.3793
-38.5997
-37.8201
-37.9134
-39.8737
-35.4908
-30.6075
-40.8966
-36.9676
-36.2006
-36.8426
-36.6155
-34.5227
-35.816
-54.2553
-52.5135
-49.9562
-64.1627
4.17813
4.14767
25.9187
-43.763
-65.2179
-65.1992
-70.2886
-58.7691
-33.8231
-33.0786
-33.9204
-34.097
-36.7931
-41.8965
-39.7752
-38.836
-30.94
-41.0997
-37.1009
-35.7733
-55.0693
-53.1579
-50.7387
-65.1391
-72.8334
-57.8712
-58.1274
-50.9894
-71.5528
-57.0766
-57.95
-50.709
-65.6668
-56.0939
-56.1654
-48.9002
-17.3598
-6.05501
-6.1836
7.66572
201.987
191.63
171.674
203.293
-36.4189
-38.5589
-39.3328
-41.5036
-37.2523
-39.29
-39.4208
-42.3738
-34.4847
-34.1582
-33.5192
-34.4324
-85.333
-90.9033
-81.0092
-84.4582
-45.1894
-53.576
-51.0561
-48.7346
-45.7027
-54.2557
-51.6923
-49.3041
-35.0261
-35.4016
-35.3515
-37.922
-37.7856
-41.1385
-41.1283
-45.3666
-24.8607
-21.7591
-25.036
-25.3368
-73.5835
94.8342
-104.717
127.892
-112.991
-81.3414
-36.3294
-30.266
-34.1164
-28.8791
-41.3457
-38.8233
-40.2231
64.1667
-40.3147
62.5959
-68.2465
-37.7633
-37.1441
-30.462
-33.9828
-29.5329
-39.7707
-36.8168
-105.33
110.222
-86.1797
92.7604
-108.302
-80.956
-34.625
-29.6041
-36.3704
-30.5655
-41.5054
-38.6975
-40.7774
58.6338
-44.787
66.6726
-65.8195
-37.9381
-34.0554
-29.7459
-37.226
-30.7038
-39.8292
-36.8254
-45.7802
-42.8423
-33.4465
-34.1133
-37.692
-34.8142
-39.8471
-35.4877
-42.3731
-36.0481
-32.9808
-33.7157
-31.9911
-43.0065
-34.7641
-36.0306
-44.9389
-3.90896
-44.7335
-46.4429
-51.844
-77.9194
16.3711
-43.6496
-48.5626
-54.2236
-44.3164
-45.3601
-49.3637
-59.1238
-65.8506
-59.709
-44.9881
-42.8226
-39.8639
-35.712
-33.7611
-34.2396
-38.1388
-35.2217
-42.7897
-36.0434
-34.6623
-35.9089
-33.0616
-33.6854
-32.0888
-41.2503
-45.7182
-4.4792
15.9186
-42.7397
-44.9082
-47.0053
-52.5714
-81.0282
-48.9762
-54.1732
-65.94
-59.7663
-44.703
-45.6011
-49.6523
-59.3061
-113.461
-112.992
158.131
164.653
-79.7713
-80.0389
164.326
163.961
-71.6959
-50.7825
-66.2601
-48.8291
-39.6963
-40.0354
-28.2788
-28.7921
-35.6789
-35.6232
-25.216
-25.8492
-44.9982
-50.0102
-36.4102
-36.5894
-28.121
-28.1889
137.539
152.545
-47.4587
-72.6401
-22.0385
-0.599112
-35.8582
-35.8576
-26.7566
-26.4536
-44.259
-50.265
-46.2131
-38.3971
-107.528
-106.04
170.916
156.574
-70.5541
-50.3448
-66.2884
-49.1449
-40.1167
-39.7074
-28.7332
-29.1606
-45.4699
-50.6377
-36.5274
-36.0466
-72.3304
-47.0651
-1.07681
-22.096
-50.6497
-44.3835
-38.3812
-46.1903
-35.0643
-35.4871
-34.111
-33.5864
-44.2022
-42.4678
-36.397
-41.8772
-43.7635
-43.7973
-34.6234
-34.6743
-35.9606
-41.2893
-45.1001
-45.0687
-34.1655
-33.9516
-36.0979
-36.1183
-45.6485
-45.4724
-84.9417
-73.2197
18.7064
17.7956
-95.9533
-95.3116
-73.4206
-73.5053
-52.2993
-52.322
-35.5346
-35.6329
-34.1861
-33.6144
-42.5983
-44.1811
-36.8977
-42.5571
-41.3838
-36.051
-45.4512
-45.064
-46.0991
-45.8648
-73.5446
-85.0465
-84.4597
-70.3011
-72.1509
-63.2458
-38.6569
-38.1453
-51.2113
-49.0125
-49.9939
-47.8361
-48.5805
-41.3669
-53.2052
-39.9985
-72.7212
-66.3778
-93.8114
-71.6551
-70.8697
-69.2617
-54.9129
-64.8904
-72.2176
-43.7947
-49.5479
-41.6446
-48.2946
-48.2714
-38.992
-48.5898
-50.8919
-38.6229
-109.112
-101.186
-66.2042
-66.014
-109.453
-65.6633
-66.3164
-101.842
-39.4821
-40.0664
-48.9915
-48.1095
-39.5525
-48.0033
-48.9922
-39.9231
-45.3193
-29.5231
-18.4562
-38.9868
-14.8056
24.5255
5.90151
-11.068
-13.4485
-11.2357
5.63953
23.6931
-45.3573
-39.4022
-18.5187
-29.5333
60.5474
126.403
185.949
60.5617
15.9348
108.531
163.014
122.087
16.0599
123.59
157.249
89.8918
77.9235
60.9032
187.193
122.342
-33.6679
-33.5457
-36.5162
-36.2808
-31.9444
-34.015
-37.0696
-33.5535
-48.6132
-50.0837
-42.2446
-40.5905
-53.2194
-41.7599
-41.8763
-50.6418
-34.116
-36.6597
-37.1245
-33.8664
-53.8195
-51.6674
-42.3762
-42.4159
-49.3593
-40.7484
-42.345
-50.5718
-31.9724
-33.6886
-37.1916
-34.1327
-34.8889
-35.6118
-34.2231
-33.8358
-35.2691
-33.8865
-34.2704
-35.6868
-34.4789
-34.5856
-33.5537
-33.3334
-34.5314
-33.3034
-33.583
-34.638
-90.9053
-68.6793
-89.9497
-43.6886
-57.408
-69.4067
-79.5805
-61.6822
-57.4136
-62.6056
-79.7149
-69.4144
-85.5785
-42.9485
-89.8998
-69.5409
-41.7013
-42.0049
-47.2082
-37.7233
-38.0432
-36.0219
-46.8111
-53.5128
-36.9953
-43.3362
-44.5208
-36.7146
-48.4256
-41.1602
-53.3738
-48.8079
-40.7277
-36.282
-47.7803
-42.9485
-48.7613
-48.9095
-53.9317
-41.2767
-37.0279
-36.7919
-44.9049
-43.3486
-38.0679
-54.7779
-47.4296
-36.1259
-36.3557
-35.7603
-36.5181
-36.8233
-36.2386
-36.9404
-36.8191
-35.7165
-35.4402
-33.7027
-35.3515
-37.0912
-34.6551
-36.8458
-35.4711
-33.5685
-54.9753
-48.3379
-45.4573
-59.337
-34.2459
-33.9901
-37.9439
-39.3233
-34.3143
-39.316
-37.9333
-34.014
-55.3842
-59.3427
-45.4497
-48.2774
-32.0234
-27.1492
-23.9872
-30.1712
-32.2068
-30.4602
-24.4787
-27.0307
-30.8266
-28.1254
-26.667
-30.7969
-30.5929
-30.5898
-26.3395
-27.9869
1.92696
-140.717
-178.292
-34.4777
-33.637
-35.4026
-24.1895
-56.6897
-64.2805
-33.7867
-32.2838
-34.2824
-131.081
4.44404
-176.572
-34.894
-34.6507
-35.4672
-51.8403
-18.6317
-65.7846
-32.472
-33.8326
-34.2965
-37.8808
-35.8174
-36.5041
-37.3274
-39.608
-34.9877
-37.9087
-36.9851
-62.4229
-58.0876
-61.4728
-86.9229
-49.6175
-49.0949
-49.9165
-53.7788
-37.9147
-37.5907
-36.1338
-36.8453
-38.8462
-36.7057
-34.9194
-37.2352
-62.2253
-82.5182
-58.5728
-62.3965
-49.9115
-53.7327
-48.8271
-49.8496
33.9305
15.5003
-15.4749
96.8209
-136.528
-135.884
-118.573
-25.6676
-59.4873
-50.1525
-55.3186
-54.8506
-31.8712
-31.593
-34.3936
-30.919
-30.425
-30.4231
-32.5024
-25.944
-38.7145
-37.6785
-43.5631
-36.8377
-49.5051
-52.6352
-47.4603
-70.7459
-40.6576
-35.1113
-48.0151
-27.9433
-32.8021
-32.8365
-33.3093
-29.9385
-43.6216
-47.8138
-45.8332
-44.929
36.8261
12.4272
-28.2032
102.067
-58.8743
-49.7954
-54.6715
-54.5569
-32.0708
-31.7527
-34.428
-31.1791
-38.7604
-37.7269
-43.8248
-37.1834
-39.9663
-34.8706
-47.7735
-27.4729
-43.6109
-47.8591
-45.79
-44.7867
-33.6879
-33.542
-34.0326
-34.1949
-37.3444
-39.8657
-38.6988
-38.5054
-38.0547
-38.1082
-38.4826
-36.9192
-33.7091
-38.9421
-36.7424
-36.4433
-36.5106
-36.149
-34.8463
-36.7979
-53.0006
-51.6078
-51.0669
-56.5714
6.10227
5.99356
17.9732
-15.7074
-65.4744
-65.4846
-67.7942
-62.1527
-33.8878
-33.5191
-34.0607
-34.0328
-37.6645
-40.1914
-39.0121
-38.7794
-33.9451
-39.1788
-36.9215
-36.8098
-53.8055
-52.7323
-51.9372
-57.4318
-64.1585
-58.1221
-57.9562
-53.9477
-63.1227
-57.2112
-57.6947
-53.5931
-60.4388
-55.9344
-55.9514
-51.9516
-10.9034
-4.98853
-5.06501
1.12154
205.798
200.026
192.354
205.93
-37.2587
-38.6368
-38.9927
-39.8846
-38.1152
-39.4268
-39.6025
-40.7556
-34.5199
-34.2177
-33.9884
-34.55
-86.346
-90.3815
-83.6928
-84.3186
-49.9036
-54.8799
-54.7203
-50.6271
-50.8662
-55.5949
-55.0774
-51.5774
-34.9702
-35.0843
-35.0047
-36.1144
-39.19
-40.9887
-40.9792
-42.8615
-23.3556
-21.7856
-25.3347
-23.6336
88.8552
54.8544
-16.6196
100.358
-179.838
-169.739
-132.922
-82.2166
-96.6765
-73.4931
-108.524
-81.7511
-32.0122
-31.6003
-34.866
-30.7134
-33.4068
-31.2617
-33.5738
-29.7623
-37.6501
-39.0658
-42.0427
-39.0945
-13.4994
-0.812366
-37.3544
37.3347
-43.2452
-52.3453
-47.1939
-53.2588
-55.0926
-48.6089
-61.2319
-42.5587
-32.2171
-31.7024
-36.0643
-30.8116
-31.6009
-32.1714
-32.921
-30.7498
-36.7151
-39.6502
-39.214
-37.2291
-175.297
-175.504
-134.194
-39.52
97.1899
55.2553
-29.5049
100.888
-95.8131
-72.5896
-105.643
-81.0396
-33.6631
-31.518
-34.1278
-31.1073
-32.3275
-31.8167
-34.9463
-30.9653
-38.6186
-40.1373
-42.0162
-39.793
-43.4142
-54.4713
-47.9356
-58.8832
-13.449
-6.71989
-40.9638
37.0899
-55.2325
-48.6921
-59.4296
-42.724
-31.7933
-32.2506
-33.0354
-30.9516
-32.3906
-31.9105
-36.2309
-31.0429
-36.674
-39.5919
-39.2008
-37.228
-39.7595
-43.6034
-44.8551
-42.1306
-33.9898
-33.5637
-33.6887
-33.8885
-34.9657
-35.766
-35.8602
-34.9611
-37.6008
-37.5829
-38.5271
-36.5486
-36.8226
-36.2649
-42.883
-36.2467
-33.7582
-33.1323
-33.0948
-33.5102
-23.2095
-27.5238
-29.2994
-32.6487
-36.2534
-36.7928
-35.0334
-36.4658
-46.1413
-33.3329
-45.5492
-19.2886
-49.8569
-43.6037
-45.4832
-46.6085
-58.2714
-55.4489
-55.4051
-64.5246
-12.5404
1.76367
11.0117
-18.603
-49.5386
-49.8085
-48.8705
-53.4865
-47.2087
-42.89
-44.2429
-44.478
-50.4084
-52.3087
-50.5971
-55.1308
-60.3526
-64.4948
-64.1976
-62.3336
-40.1117
-43.5801
-43.2209
-42.1806
-38.0087
-37.7357
-38.7923
-36.7563
-34.1935
-33.7534
-33.8816
-34.0367
-35.3891
-36.1353
-36.2629
-35.3507
-36.376
-36.925
-43.0923
-36.3452
-36.135
-36.6692
-35.1583
-36.4372
-33.7203
-33.1851
-33.0898
-33.5205
-23.0133
-27.7095
-29.5085
-33.6441
-45.0787
-33.2839
-45.5452
-19.5054
-11.3741
1.97788
10.7826
-17.5196
-50.2986
-43.9433
-45.8201
-47.076
-59.1129
-56.2652
-56.0409
-65.5913
-49.9444
-50.0152
-49.296
-53.4428
-60.5844
-64.4857
-64.2071
-62.3364
-47.4433
-43.1324
-44.5631
-44.8918
-50.5994
-52.4788
-50.9645
-55.444
-105.904
-87.9619
-117.428
-113.842
164.502
192.442
176.922
178.644
-87.1786
-71.7293
-79.2202
-79.3139
156.035
181.303
176.379
175.237
-56.8748
-57.5014
-63.1422
-52.9415
-55.8309
-56.1714
-60.8158
-52.2834
-37.865
-42.0764
-39.7375
-39.7954
-29.9351
-26.9046
-28.309
-29.1135
-34.0819
-35.0589
-35.4613
-35.4446
-26.0857
-22.9381
-24.7496
-25.0074
-48.3676
-50.8958
-46.4808
-53.4311
-35.9088
-35.6114
-36.1658
-35.9703
-33.0888
-22.4355
-27.6354
-27.6566
118.032
166.166
143.556
150.378
-58.4254
-59.0786
-52.4346
-65.2958
-14.3662
-7.94564
-16.4592
-5.51993
-34.9701
-36.6208
-35.7327
-35.7263
-25.8106
-25.3444
-25.8438
-25.6354
-47.1935
-49.041
-46.4342
-49.7116
-42.008
-41.245
-43.6112
-39.6587
-101.425
-84.8095
-106.989
-104.466
165.652
192.261
181.905
176.575
-56.2468
-56.9782
-62.1635
-52.651
-55.8461
-56.2007
-60.8407
-52.5595
-37.8307
-42.2211
-40.0008
-39.716
-30.3043
-27.4079
-28.7649
-29.4899
-48.9911
-51.6606
-47.0032
-54.3008
-35.9787
-35.6549
-36.2629
-36.0501
-58.1442
-58.5393
-64.0737
-52.5634
-14.5652
-8.14504
-5.89586
-16.6332
-47.3381
-49.5963
-50.2679
-46.6204
-41.9907
-41.2438
-39.6439
-43.6178
-34.591
-35.646
-35.073
-35.2944
-34.1889
-34.4093
-34.1779
-33.9012
-40.8388
-46.0098
-43.3359
-42.3408
-38.6736
-38.7921
-37.3861
-40.2037
-41.972
-46.0345
-43.9922
-43.9474
-34.9701
-34.2474
-34.5826
-34.6253
-37.7514
-38.8487
-36.8771
-39.8034
-40.1649
-47.4696
-46.0471
-44.4248
-34.1924
-33.6667
-34.0538
-33.894
-35.6914
-37.462
-36.2967
-36.1001
-47.2322
-43.0591
-45.2551
-45.2146
-71.6307
-82.6283
-81.9089
-75.3051
27.746
13.8388
20.1328
19.5758
-84.2515
-92.9042
-97.7941
-97.167
-72.4528
-77.7974
-74.4595
-74.5051
-55.0453
-48.7242
-52.3313
-52.3261
-35.1138
-36.5111
-35.6094
-35.8249
-34.1423
-34.3861
-34.2073
-33.9086
-41.1282
-45.7455
-42.4154
-43.4236
-38.9537
-39.1762
-37.8245
-40.6984
-37.8604
-38.9137
-39.8967
-36.9544
-39.7416
-47.8941
-46.2885
-44.1441
-48.5216
-44.2703
-45.8844
-46.0861
-72.832
-82.9102
-75.5691
-82.5266
-122.29
-113.348
-113.313
-85.8903
-46.193
-40.8606
-48.5197
-45.0677
-43.6041
-44.0132
-44.2623
-43.0836
-77.3601
-84.3069
-106.061
-85.4683
-117.034
-108.184
-108.495
-83.945
-70.77
-80.1294
-100.994
-84.3371
-44.2079
-44.1052
-44.2336
-43.206
-46.3764
-41.5732
-47.6859
-45.0827
-89.8186
-80.8325
-80.1345
-72.5202
-90.1461
-80.7808
-80.4326
-72.5627
-43.2139
-41.6822
-45.9309
-43.7096
-43.3331
-41.5321
-45.9397
-43.7003
-35.7142
-34.3481
-29.195
-26.4279
5.93694
16.84
5.74283
15.6191
5.56721
16.1163
4.75546
14.5301
-35.8745
-34.5505
-29.3113
-26.485
158.904
159.053
152.207
135.203
94.2249
115.609
143.826
137.771
122.878
97.7686
152.63
156.313
154.507
149.218
131.648
155.85
-34.4366
-34.8698
-35.0371
-35.6291
-33.9637
-33.4235
-35.0495
-35.2058
-44.6105
-46.9673
-42.9084
-45.2009
-46.3248
-48.9882
-43.7793
-45.9014
-34.8352
-35.2705
-35.4238
-36.0894
-46.9128
-49.6248
-44.3792
-46.5026
-44.8198
-47.4844
-43.0172
-45.4079
-34.0994
-33.5533
-35.1284
-35.3048
-34.3789
-34.8736
-34.2765
-34.6019
-35.0453
-34.3014
-34.6478
-34.3644
-34.3105
-33.7986
-34.0371
-33.8466
-33.8893
-34.2998
-33.7246
-33.9642
-91.1039
-73.8736
-87.9578
-94.339
-63.7117
-67.1224
-71.0457
-71.5843
-67.198
-63.8657
-71.7156
-71.3735
-71.4389
-91.2238
-92.5764
-88.6144
-43.1855
-43.5475
-44.1733
-44.038
-38.0521
-40.4499
-39.7105
-42.9636
-38.6974
-40.0508
-40.2083
-42.0937
-47.4859
-46.2217
-48.608
-46.575
-43.6719
-42.0447
-44.6182
-44.4333
-47.9336
-46.4758
-48.7132
-46.5305
-38.773
-40.1274
-40.2729
-42.2092
-38.0776
-40.5915
-39.659
-43.4971
-35.9355
-35.7511
-36.0691
-35.9937
-35.8766
-35.7822
-36.3844
-36.0145
-35.2916
-37.5963
-36.0222
-36.1288
-35.1087
-38.1854
-35.9332
-37.3703
-53.4729
-56.0571
-49.3931
-52.4139
-35.2037
-36.456
-36.0031
-37.2221
-35.238
-36.4592
-36.0092
-37.2127
-53.4479
-56.0592
-49.5659
-52.1937
-29.5952
-28.7552
-28.4342
-27.2229
-29.0454
-29.9251
-27.6993
-28.8756
-29.3284
-30.0175
-28.0702
-29.2012
-29.6934
-29.0082
-28.8493
-27.7412
-54.7838
102.577
-157.043
-4.66851
-96.2645
-109.982
-36.5501
-32.1058
-36.4234
-34.1902
-39.0801
-35.4242
-48.1178
11.3699
-47.9311
-21.3743
-55.064
-49.0305
-35.8578
-31.1166
-32.9951
-30.9254
-36.601
-34.675
-155.512
5.31433
-65.936
98.1959
-100.861
-110.292
-36.6446
-33.5644
-36.7254
-33.0247
-38.608
-36.4519
-47.5306
-17.5217
-48.0712
10.3191
-56.0356
-49.3926
-33.1106
-31.1268
-35.8292
-31.3171
-36.6669
-34.7153
-36.688
-39.1718
-34.3488
-34.589
-36.4139
-34.316
-37.7637
-36.1742
-40.1184
-37.0359
-33.6326
-34.4294
-30.398
-47.1728
-35.0562
-37.353
-52.3198
-43.7416
-53.0381
-53.8234
-56.9277
-73.2602
-26.4308
-77.6988
-48.8811
-51.9925
-49.1712
-48.4729
-49.7389
-53.8511
-56.8613
-55.885
-37.4041
-39.1935
-38.1406
-36.5683
-34.5802
-34.8744
-36.5696
-34.7161
-39.3902
-36.7102
-34.9047
-37.0576
-33.5137
-34.3635
-30.4329
-46.1423
-51.9647
-41.5993
-23.5978
-74.8772
-53.0215
-54.3833
-57.4927
-74.6522
-49.1965
-52.4856
-56.8547
-56.1092
-49.375
-48.8232
-49.9924
-53.9134
-9.93608
95.3596
-29.6479
78.7853
-58.3845
-49.3621
135.055
141.841
-124.345
-12.9196
-125.4
-8.06246
-99.1459
-99.0459
67.7222
64.832
-69.5951
-65.5915
-47.5875
-47.3624
-61.7927
-51.6619
-60.3686
-51.4224
-34.1702
-30.636
-35.3112
-30.8571
-35.8556
-36.4368
-30.212
-30.6824
-34.2152
-27.5569
-34.207
-27.7087
-32.8855
-32.8766
-33.813
-33.577
-51.087
-37.6936
-39.9428
-37.1392
-43.9237
-51.3555
-36.6068
-36.5184
-46.822
-81.3561
-47.8359
-94.9757
-39.0435
-39.3216
49.0871
74.0576
-56.7831
-36.8345
-43.3911
-21.321
-51.7797
-60.4647
-25.3155
-15.6454
-33.1588
-29.913
-33.1826
-30.0698
-33.9863
-33.9971
-27.5477
-27.4442
-42.4402
-40.5165
-48.8481
-49.323
-44.9712
-47.7366
-45.3118
-40.9614
-21.085
94.9695
-34.6145
81.3379
-63.3554
-51.5871
142.146
134.724
-68.5375
-65.0477
-47.2751
-47.2658
-61.0466
-51.1118
-60.0982
-51.3853
-34.3513
-30.8367
-35.3921
-31.0894
-36.5993
-36.0407
-30.5026
-30.9443
-52.497
-38.0841
-41.0038
-37.1655
-44.0181
-52.1559
-36.7565
-36.7463
-54.4901
-36.4705
-43.1231
-21.4804
-60.0562
-51.6022
-15.7468
-25.2788
-42.3861
-40.5017
-48.8672
-49.1817
-47.8292
-45.0456
-40.9234
-45.2417
-33.533
-33.6851
-33.0156
-33.1153
-33.5751
-33.6067
-33.8929
-33.8094
-36.9114
-36.2943
-41.3203
-41.6699
-38.6741
-40.2194
-37.2813
-40.0273
-38.2576
-36.8724
-38.3484
-36.9188
-40.0176
-39.8586
-35.5337
-35.5227
-32.5464
-29.8419
-40.5182
-41.0109
-35.3711
-38.8989
-35.7286
-38.4013
-35.0082
-36.9355
-34.9624
-36.8521
-34.5141
-34.5485
-35.7072
-35.7317
-53.3618
-59.8267
-51.4428
-57.5268
-50.0938
-50.177
-66.3198
-62.333
16.937
-14.0208
16.3838
-13.943
25.7077
25.0985
-44.9239
-44.5353
-67.1752
-62.2835
-67.1748
-62.2772
-70.0864
-70.0753
-59.0417
-59.0303
-33.7165
-33.8743
-33.0704
-33.1255
-33.8985
-33.7922
-33.9806
-33.6519
-37.2861
-36.613
-41.6506
-42.0856
-40.5619
-39.1391
-37.5763
-40.4794
-32.7115
-30.7979
-40.6787
-41.1672
-39.056
-35.491
-34.9651
-38.2993
-53.7456
-60.7988
-52.0341
-58.1062
-51.3139
-50.5855
-63.1909
-67.2797
-72.6196
-72.3018
-63.9596
-53.6984
-54.2707
-63.9794
-51.2369
-49.7322
-70.955
-71.8539
-62.5222
-53.275
-63.4802
-54.2145
-49.2233
-50.9007
-65.8579
-65.8887
-60.9027
-51.9952
-60.9888
-52.4312
-48.9554
-48.9844
-17.5876
-17.6195
-12.1384
-0.835589
-0.958987
-12.2006
7.35251
7.11501
196.362