# vtk DataFile Version 2.0
tet_velo
ASCII
DATASET UNSTRUCTURED_GRID
POINTS 29498 float
-0.863361 0.205 -1.705
-0.731849 0.335 1.945
-0.732917 0.785 -1.765
-0.585 1.425 1.69778
0.863361 0.205 -1.705
0.731913 0.335 1.945
0.732858 0.785 -1.765
0.585 1.425 1.69778
-0.82076 0.247097 -0.488333
-0.814319 0.253034 0.728333
-0.781696 1.09642 -0.61074
-0.714933 1.29229 0.54352
0.820816 0.247063 -0.488333
0.814407 0.252989 0.728333
0.781693 1.09645 -0.61074
0.714922 1.2923 0.54352
-1.65636 -0.334681 -2.58789
-1.65088 -0.209932 -1.63955
-1.60891 -0.178277 -0.421269
-1.55745 -0.204101 0.809571
-1.48838 -0.156615 2.02891
-1.47476 -0.0694973 2.98243
-1.48543 0.033782 3.92636
-1.65289 0.0374706 -2.64032
-1.64761 0.191584 -1.6988
-1.60396 0.269353 -0.492665
-1.53912 0.286679 0.71909
-1.44127 0.35681 1.92642
-1.44592 0.444874 2.87906
-1.47128 0.543819 3.82503
-1.59792 0.726352 -2.72768
-1.55985 0.873194 -1.78358
-1.55649 1.12313 -0.619984
-1.46095 1.29483 0.539189
-1.33838 1.41844 1.70398
-1.39051 1.49868 2.6592
-1.44808 1.58038 3.61523
-1.54748 1.95708 -2.90563
-1.52804 2.13268 -1.97088
-1.5172 2.42228 -0.827519
-1.48829 2.69723 0.30239
-1.45255 2.89353 1.4464
-1.45151 3.00183 2.38252
-1.47056 3.08915 3.33173
-0.85811 -0.32679 -2.59191
-0.850627 -0.195833 -1.64542
-0.81822 -0.186105 -0.420481
-0.801977 -0.230588 0.81746
-0.761091 -0.179004 2.0427
-0.756612 -0.0850821 2.99179
-0.766203 0.0232973 3.93177
-0.86411 0.0339409 -2.64156
-0.74672 0.433376 2.88678
-0.762237 0.535998 3.82911
-0.819319 0.687507 -2.71996
-0.704122 1.4995 2.65796
-0.749992 1.57961 3.61496
-0.771333 1.92649 -2.898
-0.753661 2.10183 -1.96247
-0.757392 2.40869 -0.822451
-0.75591 2.70106 0.301782
-0.742488 2.90293 1.44206
-0.745361 3.00966 2.37818
-0.760335 3.09436 3.32858
0.786684 -0.326792 -2.59191
0.830568 -0.195839 -1.64542
0.815504 -0.186132 -0.420481
0.795114 -0.230622 0.81746
0.734818 -0.179016 2.0427
0.694867 -0.0850914 2.99179
0.678251 0.0232877 3.93178
0.772952 0.0339412 -2.64156
0.666496 0.43337 2.88678
0.659969 0.535989 3.82911
0.738316 0.68751 -2.71996
0.616603 1.4995 2.65796
0.637572 1.5796 3.61496
0.776417 1.92649 -2.898
0.784802 2.10184 -1.96247
0.763159 2.4087 -0.822451
0.709881 2.70106 0.301782
0.665093 2.90293 1.44206
0.654086 3.00966 2.37818
0.654041 3.09435 3.32858
1.60196 -0.334684 -2.58789
1.6416 -0.209941 -1.63955
1.6177 -0.178312 -0.421269
1.56895 -0.204152 0.809571
1.48689 -0.156646 2.02891
1.43555 -0.0695191 2.98243
1.41402 0.0337615 3.92636
1.59171 0.0374722 -2.64032
1.64757 0.191585 -1.6988
1.61517 0.269327 -0.492665
1.55692 0.28663 0.71909
1.45547 0.356785 1.92642
1.4014 0.444856 2.87906
1.39006 0.5438 3.82503
1.54763 0.72636 -2.72768
1.56589 0.87321 -1.78358
1.56846 1.12316 -0.619984
1.4748 1.29482 0.539189
1.34749 1.41843 1.70398
1.33756 1.49867 2.6592
1.35662 1.58037 3.61523
1.55359 1.95709 -2.90563
1.55601 2.1327 -1.97088
1.52736 2.4223 -0.827519
1.45835 2.69723 0.30239
1.3937 2.89353 1.4464
1.37433 3.00182 2.38252
1.37492 3.08914 3.33173
-0.835951 0.495 -1.77281
0 0.20197 -1.70803
-0.842395 0.225714 -1.09667
-0.735851 0.88 1.89882
3.19779e-05 0.301678 1.97832
-0.80548 0.261621 1.33667
-2.95043e-05 0.843089 -1.82309
-0.790756 0.974159 -1.18787
0 1.47619 1.74897
-0.668304 1.37698 1.12065
0.836038 0.495 -1.77293
0.84201 0.22611 -1.09667
0.735852 0.88 1.89879
0.805508 0.261646 1.33667
0.790712 0.974164 -1.18787
0.668304 1.37699 1.12065
-0.818838 0.248767 0.12
-0.890293 0.671757 -0.549537
2.75415e-05 0.21045 -0.488333
-0.88177 0.772664 0.635927
4.3663e-05 0.219362 0.728333
-0.753756 1.1998 -0.03361
-1.28824e-06 1.39126 -0.61074
-5.5911e-06 1.60192 0.54352
0.818705 0.248932 0.12
0.890294 0.671759 -0.549537
0.881769 0.772646 0.635927
0.753747 1.19982 -0.03361
-0.889455 0.583379 -1.14227
-0.887694 0.72221 0.043195
-0.859456 0.826332 1.22866
1.37707e-05 0.204345 -1.09667
3.56022e-05 0.218101 0.12
3.78205e-05 0.242903 1.33667
-1.47521e-05 0.495 -2.06497
1.59889e-05 0.88 1.99423
-1.53963e-05 1.07647 -1.18787
-3.43967e-06 1.58065 -0.03361
-2.79555e-06 1.58599 1.12065
0.889453 0.583379 -1.14227
0.887692 0.722202 0.043195
0.859471 0.826323 1.22866
-1.25549 0.198292 -1.7019
-0.856994 0.00458366 -1.67521
-0.863735 0.11947 -2.17328
-1.08656 0.345905 1.93571
-0.74647 0.0779979 1.99385
-0.739285 0.384188 2.41589
-1.14638 0.829097 -1.77429
-0.776118 0.736253 -2.24248
-0.743289 1.44341 -1.86374
-0.961689 1.42172 1.70088
-0.644561 1.46225 2.17787
-0.663744 2.16397 1.56992
0.846964 0.00458055 -1.67521
0.818156 0.119471 -2.17328
1.25547 0.198293 -1.7019
0.733366 0.0779919 1.99385
0.699204 0.384185 2.41589
1.09369 0.345892 1.93571
0.735587 0.736255 -2.24248
0.75883 1.44342 -1.86374
1.14938 0.829105 -1.77429
0.600801 1.46225 2.17787
0.625047 2.16397 1.56992
0.966246 1.42171 1.70088
-1.21236 0.258225 -0.490499
-0.81949 0.0304957 -0.454407
-1.17672 0.269856 0.723712
-0.808148 0.0112229 0.772897
-1.16909 1.10977 -0.615362
-0.769544 1.75255 -0.716596
-1.08794 1.29356 0.541354
-0.735421 1.99668 0.422651
0.81816 0.0304656 -0.454407
1.21799 0.258195 -0.490499
0.80476 0.0111835 0.772897
1.18566 0.269809 0.723712
0.772426 1.75258 -0.716596
1.17508 1.1098 -0.615362
0.712402 1.99668 0.422651
1.09486 1.29356 0.541354
-1.65362 -0.272306 -2.11372
-1.65463 -0.148605 -2.61411
-1.25724 -0.330736 -2.5899
-1.62989 -0.194104 -1.03041
-1.64925 -0.00917411 -1.66918
-1.25075 -0.202882 -1.64249
-1.58318 -0.191189 0.194151
-1.60643 0.0455382 -0.456967
-1.21356 -0.182191 -0.420875
-1.52291 -0.180358 1.41924
-1.54828 0.0412887 0.76433
-1.17971 -0.217345 0.813516
-1.48157 -0.113056 2.50567
-1.46482 0.100097 1.97767
-1.12473 -0.16781 2.0358
-1.48009 -0.0178577 3.45439
-1.46034 0.187688 2.93075
-1.11569 -0.0772897 2.98711
-1.47835 0.2888 3.87569
-1.12582 0.0285397 3.92907
-1.65025 0.114527 -2.16956
-1.62541 0.381911 -2.684
-1.2585 0.0357057 -2.64094
-1.62579 0.230468 -1.09573
-1.60373 0.532389 -1.74119
-1.57154 0.278016 0.113213
-1.58022 0.696242 -0.556324
-1.4902 0.321744 1.32276
-1.50004 0.790753 0.629139
-1.4436 0.400842 2.40274
-1.38983 0.887625 1.8152
-1.4586 0.494346 3.35204
-1.41822 0.971778 2.76913
-1.09632 0.439125 2.88292
-1.45968 1.0621 3.72013
-1.11676 0.539908 3.82707
-1.57889 0.799773 -2.25563
-1.5727 1.34172 -2.81666
-1.20862 0.706929 -2.72382
-1.55817 0.998163 -1.20178
-1.54395 1.50294 -1.87723
-1.50872 1.20898 -0.0403974
-1.53684 1.77271 -0.723751
-1.39967 1.35663 1.12158
-1.47462 1.99603 0.42079
-1.36444 1.45856 2.18159
-1.39546 2.15599 1.57519
-1.41929 1.53953 3.13721
-1.42101 2.25025 2.52086
-1.04732 1.49909 2.65858
-1.45932 2.33477 3.47348
-1.09903 1.58 3.61509
-1.53776 2.04488 -2.43826
-1.15941 1.94179 -2.90182
-1.52262 2.27748 -1.3992
-1.14085 2.11725 -1.96668
-1.50274 2.55975 -0.262564
-1.13729 2.41549 -0.824985
-1.47042 2.79538 0.874396
-1.1221 2.69914 0.302086
-1.45203 2.94768 1.91446
-1.09752 2.89823 1.44423
-1.46103 3.04549 2.85713
-1.09843 3.00575 2.38035
-1.11545 3.09175 3.33016
-0.854368 -0.261312 -2.11867
-0.86111 -0.146425 -2.61674
-0.0357125 -0.326791 -2.59191
-0.834424 -0.190969 -1.03295
-0.0100297 -0.195836 -1.64542
-0.810099 -0.208347 0.19849
-0.00135804 -0.186118 -0.420481
-0.781534 -0.204796 1.43008
-0.0034314 -0.230605 0.81746
-0.758851 -0.132043 2.51724
-0.0131365 -0.17901 2.0427
-0.761407 -0.0308924 3.46178
-0.751666 0.174147 2.93928
-0.0308725 -0.0850867 2.99179
-0.76422 0.279647 3.88044
-0.0439757 0.0232925 3.93178
-0.841714 0.360724 -2.68076
-0.0455789 0.033941 -2.64156
-0.754479 0.484687 3.35795
-0.725421 0.966439 2.77237
-0.040112 0.433373 2.88678
-0.756115 1.0578 3.72204
-0.0511341 0.535993 3.82911
-0.795326 1.307 -2.80898
-0.0405016 0.687508 -2.71996
-0.727057 1.53956 3.13646
-0.724741 2.25458 2.51807
-0.0437595 1.4995 2.65796
-0.755164 2.33698 3.47177
-0.0562101 1.57961 3.61496
-0.762497 2.01416 -2.43024
0.00254207 1.92649 -2.898
-0.755526 2.25526 -1.39246
0.0155705 2.10183 -1.96247
-0.756651 2.55487 -0.260334
0.00288367 2.40869 -0.822451
-0.749199 2.802 0.871921
-0.0230144 2.70106 0.301782
-0.743924 2.9563 1.91012
-0.0386974 2.90293 1.44206
-0.752848 3.05201 2.85338
-0.0456373 3.00966 2.37818
-0.0531472 3.09435 3.32858
0.808626 -0.261315 -2.11867
0.779818 -0.146425 -2.61674
1.19432 -0.330738 -2.5899
0.823036 -0.190985 -1.03295
1.23608 -0.20289 -1.64249
0.805309 -0.208377 0.19849
1.2166 -0.182222 -0.420875
0.764966 -0.204819 1.43008
1.18203 -0.217387 0.813516
0.714843 -0.132054 2.51724
1.11085 -0.167831 2.0358
0.686559 -0.0309018 3.46178
0.680681 0.174139 2.93928
1.06521 -0.0773052 2.98711
0.66911 0.279638 3.88044
1.04614 0.0285246 3.92907
0.755634 0.360725 -2.68076
1.18233 0.0357067 -2.64094
0.663233 0.48468 3.35795
0.641549 0.966434 2.77237
1.03395 0.439113 2.88292
0.648771 1.0578 3.72204
1.02501 0.539895 3.82707
0.757366 1.307 -2.80898
1.14297 0.706935 -2.72382
0.627087 1.53955 3.13646
0.635344 2.25458 2.51807
0.97708 1.49908 2.65858
0.645807 2.33698 3.47177
0.997095 1.57999 3.61509
0.78061 2.01417 -2.43024
1.165 1.94179 -2.90182
0.773981 2.25527 -1.39246
1.1704 2.11727 -1.96668
0.73652 2.55488 -0.260334
1.14526 2.4155 -0.824985
0.687487 2.802 0.871921
1.08412 2.69915 0.302086
0.65959 2.9563 1.91012
1.02939 2.89823 1.44423
0.654064 3.05201 2.85338
1.01421 3.00574 2.38035
1.01448 3.09174 3.33016
1.62178 -0.272313 -2.11372
1.59684 -0.148606 -2.61411
1.62965 -0.194127 -1.03041
1.64458 -0.00917809 -1.66918
1.59333 -0.191232 0.194151
1.61643 0.0455074 -0.456967
1.52792 -0.180399 1.41924
1.56294 0.0412391 0.76433
1.46122 -0.113082 2.50567
1.47118 0.100069 1.97767
1.42479 -0.0178788 3.45439
1.41847 0.187669 2.93075
1.40204 0.288781 3.87569
1.61964 0.114529 -2.16956
1.56967 0.381916 -2.684
1.63137 0.230456 -1.09573
1.60673 0.532398 -1.74119
1.58604 0.277978 0.113213
1.59181 0.696241 -0.556324
1.5062 0.321707 1.32276
1.51586 0.790725 0.629139
1.42843 0.40082 2.40274
1.40148 0.887606 1.8152
1.39573 0.494328 3.35205
1.36948 0.971763 2.76913
1.37334 1.06208 3.72013
1.55676 0.799785 -2.25563
1.55061 1.34173 -2.81666
1.56718 0.998183 -1.20178
1.56095 1.50295 -1.87723
1.52163 1.20899 -0.0403974
1.54791 1.77273 -0.723751
[...]
POINT_DATA 29498
VECTORS point_vectors float
-3.34982 -5.01969 16.587
0.0860366 0.186933 0.639281
-1.54161 0.629912 2.01966
0.043773 -0.112944 0.480691
3.35053 -4.99849 16.6074
-0.0866982 0.184695 0.633458
1.52632 0.631541 2.01134
-0.0427069 -0.110112 0.47078
0.000831761 0.0197499 0.686533
0.00304514 0.0228428 0.892352
0 0 0
0.00252714 0.00508706 0.0153035
-0.000575553 0.0199523 0.688096
-0.00304459 0.023114 0.894986
0 0 0
-0.00247015 0.00496432 0.0150102
-0.700111 -0.485012 20.1754
-0.950852 -0.73241 20.955
-0.28186 -0.437866 21.5805
0.227135 -0.088201 21.7315
0.751869 0.174407 21.659
1.06824 0.315331 21.5135
1.25665 0.197043 20.5833
-0.915377 -0.439994 19.9792
-1.49598 -0.734373 20.8518
-0.510852 -0.640032 21.6829
0.172584 -0.383184 21.8201
0.996971 -0.216291 21.8332
1.41387 -0.155541 21.4859
1.44535 -0.181505 21.3202
-1.08505 -0.0530858 19.7027
-2.16549 -0.00469617 20.4459
-1.54028 -0.352863 21.6374
-0.625447 -0.514958 21.9967
0.0293823 -0.740098 21.8607
0.349783 -0.862791 21.5959
0.658013 -0.847866 21.6976
-0.552648 0.329769 19.9445
-0.847823 0.592783 20.2682
-0.852531 0.556179 20.966
-0.498507 0.188613 21.4705
-0.213264 -0.0869231 21.4453
-0.126349 -0.199578 21.3646
0.0103322 -0.201933 21.1901
-0.850299 -1.22328 19.6018
-1.20975 -2.27303 21.706
-0.105634 -0.285484 21.9895
0.204398 0.181473 21.9631
0.653654 1.09893 21.54
1.11961 1.60591 20.836
1.09639 1.48044 20.1535
-1.26288 -1.18987 18.9321
1.81411 0.893896 9.93038
2.44069 1.28931 13.8733
-1.46739 0.0379113 18.1959
-0.231294 -0.88556 10.3346
0.477578 -1.53864 15.0395
-0.474507 0.657563 19.53
-0.828389 1.36001 19.8725
-0.914666 1.40748 20.9814
-0.446516 0.539166 21.6737
-0.176753 0.0131882 21.5997
-0.101733 -0.166066 21.5373
0.0354546 -0.274467 21.3998
0.825257 -1.28462 19.5557
1.18277 -2.29952 21.7393
0.101798 -0.281643 21.9863
-0.20696 0.182888 21.9722
-0.617249 1.10252 21.5152
-1.05432 1.6653 20.8065
-0.942432 1.73428 19.9145
1.24527 -1.33461 18.7658
-1.58932 0.884418 7.93903
-2.56271 1.70783 11.9516
1.43616 0.0615472 17.9336
0.610888 -0.951029 7.23706
-0.370578 -1.50644 12.4596
0.475237 0.655102 19.5368
0.847272 1.32501 19.8946
0.919094 1.4016 20.9831
0.422292 0.573879 21.7011
0.159246 0.0143704 21.5545
0.0817943 -0.158935 21.4315
0.00544572 -0.269051 21.3245
0.72742 -0.522483 20.1306
0.958024 -0.745062 20.9494
0.289423 -0.447356 21.5726
-0.216652 -0.0966092 21.7242
-0.751831 0.173838 21.6567
-1.10044 0.345192 21.4859
-1.38583 0.258959 20.6124
0.955877 -0.474401 19.9391
1.49697 -0.734417 20.8535
0.512458 -0.632689 21.6746
-0.163331 -0.383132 21.8128
-0.973822 -0.222921 21.8257
-1.50416 -0.151699 21.4566
-1.60788 -0.184325 21.2454
1.12174 -0.0479342 19.6498
2.14741 -0.00264123 20.4487
1.51355 -0.347359 21.6288
0.61448 -0.507282 21.9799
-0.0295007 -0.72673 21.852
-0.339693 -0.916194 21.6988
-0.679354 -1.00107 21.4594
0.550753 0.329952 19.9388
0.839565 0.57516 20.2689
0.847653 0.545973 20.9628
0.506062 0.196622 21.477
0.236394 -0.0911834 21.4722
0.133398 -0.194026 21.4553
-0.0108034 -0.190489 21.3036
-0.736689 -0.145707 1.52808
0.000214651 -0.0117998 0.198969
-0.0196387 0.0225655 0.626345
0.00807952 -0.0617348 0.0437303
-0.000291215 0.0326082 0.185315
0.0358979 0.0362963 1.53028
0.00410059 0.199054 0.325509
-0.518962 -0.175645 0.79319
-0.00149975 0.0399409 -0.0325902
0.00693438 0.00973976 0.0582863
0.71211 -0.141528 1.47746
0.0223629 0.0258519 0.607535
-0.00785932 -0.0630021 0.0444018
-0.0359505 0.036363 1.54657
0.517876 -0.176206 0.788247
-0.00688155 0.00971057 0.0579687
0.00826565 0.0113465 0.76739
6.10609e-05 0.00144952 0.0117919
-1.14888e-05 0.000100478 0.0142432
0.000247002 0.00167841 0.00988635
-2.69778e-08 3.03095e-07 6.64092e-05
0.00205423 0.00608391 0.0126171
-3.99442e-06 0.0346408 0.0734829
-2.75852e-06 0.000137669 0.0105812
-0.00797944 0.0120845 0.75732
-6.09751e-05 0.00144624 0.0118423
-0.000239978 0.00164131 0.00969685
-0.00205494 0.00608559 0.0126588
0 0 0
0.000188477 0.00347421 0.0186159
0 0 0
2.51397e-08 -1.46559e-08 7.20278e-05
0 0 0
-1.03448e-05 0.000243865 0.00694098
-0.000534447 -0.0162911 0.0828966
0.000112324 -0.010206 0.00107511
-7.69493e-20 1.3045e-17 2.88408e-17
-6.32417e-06 0.005522 0.0431411
-3.27582e-06 -0.00011936 0.00275515
0 0 0
-0.000187402 0.00346037 0.0185963
0 0 0
-2.54514 -1.6045 21.1615
-1.86894 -3.40152 22.2733
-2.98421 -2.96399 18.6379
1.5456 0.380128 18.6908
0.852386 1.42368 16.8258
1.15216 0.557213 6.25561
-4.37087 0.440643 20.2096
-3.95308 1.12104 16.2844
-2.22584 2.56203 19.1023
0.198303 -0.534423 18.0187
-0.605421 -0.403653 5.6005
-0.374424 -0.0712777 21.8828
1.84659 -3.43968 22.3207
3.05575 -3.32893 18.3924
2.5475 -1.60555 21.1606
-0.821304 1.42438 16.6385
-1.0415 0.373651 5.13245
-1.5419 0.344711 18.8672
4.01595 1.27774 15.8511
2.23424 2.50201 19.137
4.34176 0.438182 20.2119
0.787718 -0.352177 4.28355
0.371106 -0.0436687 21.8966
-0.17576 -0.554195 18.184
-0.209318 -0.983896 21.8104
0.103508 0.0978659 18.1948
0.43681 -0.321444 20.7487
0.348267 0.310524 18.5318
-2.73292 -0.880871 22.287
-2.85713 2.65327 21.1918
-0.853006 -0.723457 21.4317
-1.11626 0.801225 22.3507
-0.102247 0.100985 18.1784
0.222297 -0.982173 21.8393
-0.34616 0.312892 18.4869
-0.430954 -0.341442 20.8909
2.85049 2.63126 21.1923
2.70119 -0.856027 22.2791
1.1123 0.845727 22.377
0.86838 -0.740395 21.592
-0.935685 -0.672693 20.479
-0.838636 -0.484681 20.0556
-0.852707 -0.785405 19.9483
-0.630097 -0.611695 21.3993
-1.2173 -0.7568 20.923
-1.26066 -1.34195 21.1888
-0.0178234 -0.266221 21.6722
-0.390457 -0.547598 21.6139
-0.133841 -0.483728 21.7945
0.472332 0.0228285 21.7362
0.201514 -0.25389 21.7227
0.30149 -0.00405453 21.8712
0.938145 0.255193 21.548
0.893077 0.0408814 21.7417
0.894352 0.56675 21.8265
1.06119 0.295285 21.2764
1.29514 0.118004 21.474
1.38075 0.857394 21.5684
1.43374 0.000332419 20.8789
1.42327 0.607764 21.2422
-1.29327 -0.64171 20.2678
-1.07434 -0.257868 19.8018
-1.1698 -0.728997 19.5803
-1.01255 -0.738752 21.4642
-1.92928 -0.493825 20.7082
-0.144001 -0.510905 21.7649
-1.005 -0.697801 21.732
0.51764 -0.301109 21.9307
-0.143956 -0.599615 21.969
1.2259 -0.190443 21.6815
0.680452 -0.781355 21.8797
1.45733 -0.247944 21.4706
1.0947 -0.84234 21.5867
2.07975 0.236868 19.4539
1.2187 -0.768319 21.2096
2.25231 0.0986593 19.9183
-1.72067 -0.000262627 19.8474
-0.808776 0.281981 19.7494
-1.37994 -0.0248906 19.1249
-1.99242 -0.169713 21.205
-1.4822 0.589661 20.2069
-1.09475 -0.488077 21.9253
-1.48938 0.428327 21.2385
-0.22968 -0.588474 21.9768
-0.76206 0.0578177 21.746
0.194768 -0.786167 21.7392
-0.228688 -0.259688 21.6805
0.548627 -0.850335 21.3981
0.0273734 -0.424378 21.4727
0.198341 -1.09652 21.0605
0.147736 -0.454908 21.2173
0.75125 -1.42265 20.7702
-0.713406 0.467743 20.0724
-0.560693 0.482371 19.7534
-0.904516 0.640586 20.605
-0.923344 0.930558 20.0835
-0.700765 0.412164 21.2768
-0.960082 0.924936 21.009
-0.346838 0.0420306 21.4028
-0.511073 0.350587 21.5716
-0.171385 -0.146155 21.3707
-0.261826 -0.0233819 21.7019
-0.0637815 -0.221752 21.3051
-0.154535 -0.206756 21.7673
-0.00952905 -0.233407 21.5361
-1.36352 -2.15802 20.1582
-1.07207 -1.27362 19.3158
-0.0460512 -1.88789 19.1509
-0.440016 -0.880089 22.1439
-0.0137052 -2.86393 22.3925
0.0604805 -0.043619 21.9353
-3.57357e-06 -0.381257 21.8389
0.414483 0.562373 21.8315
0.000707898 0.14064 21.7218
0.888787 1.35108 20.9798
0.0035388 1.04557 20.7672
1.4592 1.72234 19.9778
1.63931 1.85195 16.5886
0.0190897 1.79952 19.8023
1.9288 1.49513 15.2148
0.120115 2.73026 17.8891
-1.52421 -0.716405 18.3035
-0.100872 -2.05574 17.8382
2.58757 1.06734 13.1531
0.489341 -1.36345 4.9706
0.0739879 0.631435 2.7302
1.72423 -0.515259 9.96616
0.453616 2.08809 3.96375
-0.876761 0.719382 18.9268
-0.123738 0.224179 16.6501
0.247584 -1.37564 13.5837
-0.230616 -0.35466 21.6831
-0.196433 0.680626 -4.19132
-0.116764 -0.552694 21.01
-0.10788 -1.11221 0.0893975
-0.65153 1.01106 19.6265
0.00277187 0.84186 19.337
-0.944123 1.52104 20.3713
0.0181622 1.79079 19.6222
-0.70106 1.05108 21.5052
0.00459024 2.03605 20.9104
-0.282181 0.239346 21.5658
-0.0196285 0.781959 21.7978
-0.138236 -0.0756602 21.5582
-0.0233484 0.129402 21.7833
-0.0531648 -0.183827 21.529
-0.0237384 -0.1706 21.9237
0.00675698 -0.216625 21.6094
1.31972 -2.25264 20.1584
1.02835 -1.36197 19.1828
0.849151 -0.844047 19.8995
0.435562 -0.875715 22.1586
1.27525 -1.38315 21.1996
-0.0619659 -0.0392116 21.9333
0.136307 -0.484877 21.7901
-0.402189 0.575025 21.7785
-0.301314 -0.00504455 21.8639
-0.816797 1.39557 20.931
-0.897543 0.580504 21.8358
-1.40123 1.89353 19.6906
-1.49418 1.9526 15.6638
-1.37588 0.926775 21.5579
-1.83253 1.79374 14.5983
-1.40945 0.773954 21.4081
1.49186 -0.782745 18.041
1.20456 -0.825557 19.472
-2.48628 1.36476 10.7946
-0.166713 -1.00175 2.32898
-2.14297 0.440534 18.1162
-1.51126 -0.318353 5.95566
-2.45583 0.277105 18.9079
0.858035 0.742999 18.8905
1.41502 -0.0121517 18.9968
-0.00274381 -1.23425 9.6363
0.233082 -0.309777 21.7494
-0.220164 -0.98303 19.4929
0.14053 -0.507263 21.4714
-0.673581 -1.56757 20.4774
0.659994 1.00016 19.6389
0.56293 0.480609 19.7557
0.957616 1.49046 20.3819
0.922241 0.902537 20.1044
0.688454 1.06882 21.5109
0.95674 0.913233 21.0089
0.268442 0.254642 21.5689
0.500309 0.371014 21.5813
0.127939 -0.0736652 21.4845
0.244978 -0.00727985 21.7124
0.0891885 -0.180404 21.4609
0.153773 -0.192813 21.807
0.0128184 -0.255297 21.5953
0.969143 -0.7095 20.4608
0.868378 -0.523536 20.0144
0.634057 -0.616468 21.3941
1.22318 -0.764423 20.9222
0.0190625 -0.274566 21.6635
0.393073 -0.546203 21.6067
-0.47108 0.0188988 21.7427
-0.191205 -0.256906 21.7145
-0.936605 0.274929 21.5512
-0.881522 0.0310866 21.7398
-1.12715 0.310696 21.2168
-1.35065 0.136943 21.4746
-1.66687 0.0904194 20.8159
1.34522 -0.664156 20.2454
1.11844 -0.281363 19.7429
1.00953 -0.734755 21.4566
1.9232 -0.493316 20.707
0.148446 -0.508401 21.7573
0.998505 -0.688105 21.7196
-0.499802 -0.300852 21.9127
0.146256 -0.57751 21.9502
-1.24386 -0.191109 21.6899
-0.658579 -0.772213 21.884
-1.51143 -0.204043 21.5293
-1.12328 -0.899236 21.6186
-1.33862 -0.797441 21.3045
1.76472 0.000478555 19.8209
0.814764 0.29014 19.7341
1.96974 -0.166839 21.2001
1.44875 0.5738 20.2204
1.07628 -0.47347 21.9075
1.47242 0.420651 21.2337
0.224926 -0.581121 21.9627
0.766871 0.0630638 21.7476
-0.177884 -0.806712 21.7566
0.23423 -0.259014 21.686
-0.544907 -0.912991 21.3798
-0.00816918 -0.421379 21.4976
-0.118229 -0.517608 21.3128
0.706439 0.457973 20.0681
0.895208 0.624648 20.6062
0.700965 0.417323 21.2814
0.355698 0.0473201 21.4092
0.176976 -0.149709 21.4108
0.0635127 -0.211317 21.4077
-1.18081 -0.689458 20.3773
-2.0289 -2.77558 19.6339
-1.20339 -1.17956 20.3554
-2.08053 -1.30288 19.8146
-1.02822 -0.786671 19.7601
-1.80512 -1.56529 21.2085
-0.819235 -0.697709 21.4404
-0.285979 -0.596463 20.8935
-0.588939 -0.873026 21.7431
-1.09155 -1.31688 22.1727
-0.0975841 -0.676618 21.9278
-0.0889222 -0.396644 21.7094
0.229886 0.18953 18.204
0.10881 -0.229371 21.8195
0.161328 -0.622013 21.1554
0.446438 -0.149208 21.7858
0.495179 -0.11628 21.8285
0.589674 0.620714 17.7502
0.573451 0.235318 21.92
0.727378 0.000751576 19.7334
1.33539 0.582127 21.2533
1.13642 0.0922193 21.6143
1.16445 1.66815 16.5032
1.14541 0.760254 21.5123
1.86266 0.30206 18.9744
1.86817 0.733099 20.4991
1.32295 0.108819 21.2832
2.12852 2.09957 16.3382
1.55876 0.934285 21.2555
2.27783 0.256132 19.6472
1.99398 0.363621 20.3402
-1.61297 -0.369182 20.0505
-4.49764 -1.52742 16.422
-2.76302 0.22865 18.9553
-1.37526 -0.448904 19.2277
-4.0074 -0.984587 20.8604
-1.54475 -0.629341 21.451
-3.60933 -0.490302 21.6938
-1.03704 -1.46972 21.9111
-0.541577 -0.654368 21.8831
-1.76342 -0.951174 22.3693
0.104691 -0.443214 19.405
0.229791 -0.636295 22.0008
-0.192962 -0.530041 19.967
1.08549 -0.0912127 15.5404
0.874752 -0.802638 21.6628
-0.368147 -1.78614 2.29194
0.0779634 -0.807255 19.2433
1.42346 -0.854321 18.8659
1.18017 -0.770109 21.6047
1.76908 -0.850257 8.50519
0.560023 -1.1721 21.2745
1.88785 -1.15646 19.7337
-1.1715 0.452194 19.8895
-1.56211 1.56969 18.7075
-0.760173 0.703651 19.8522
-0.927735 0.457819 19.4074
-2.05899 1.29994 19.8044
-1.60556 0.562716 20.7657
-2.65503 2.70871 20.0612
-1.02241 1.03702 20.5245
-2.15687 1.10241 21.33
-1.16961 0.238663 21.6162
-2.11629 1.81477 22.32
-0.721984 0.687911 21.4394
-0.974492 0.287297 22.0141
-0.439244 -0.126536 21.7521
-0.584312 0.214036 22.1067
-0.353605 0.119413 21.5467
-0.322239 -0.230661 21.7821
-0.101327 -0.343978 21.5933
-0.306859 -0.206044 21.7584
-0.194133 -0.123076 21.6984
-0.0914256 -0.448251 21.4916
0.110419 -0.486577 21.3724
-0.148327 -0.496084 21.4693
-0.0738499 -0.203278 21.7198
0.0561876 -0.613693 21.3454
2.01777 -2.99559 19.5622
-0.047533 -3.49342 20.139
-0.112428 -7.76399 16.6638
-0.0640831 -2.05434 18.5515
0.00166511 -3.53427 23.4329
0.285141 -0.576809 20.8115
-0.00319542 -1.03547 22.4437
0.00082583 -0.0291661 13.8781
-0.227857 0.194337 18.1645
-0.00134284 -0.109445 21.6491
0.000132622 0.163873 14.6508
-0.584003 0.620612 17.5743
0.00217013 0.544173 21.1796
-0.0001645 0.951236 12.85
-1.04568 1.65678 15.8387
0.0123508 1.34755 19.8894
0.000181085 -0.210712 1.90299
0.019157 1.3847 11.2255
-2.05213 2.28079 15.9687
0.0406483 2.21426 19.0505
0.0790568 1.5484 2.39987
0.146792 2.07724 11.3539
4.66252 -1.67304 15.8336
-0.167541 3.2493 12.0213
-0.127488 -1.16372 16.6342
0.574051 -1.86251 1.30545
-0.138699 0.43436 -2.6611
-0.0204691 1.53941 -2.39305
-1.29987 -0.327571 5.00587
-0.00198743 0.796905 -3.67269
0.0722844 3.29153 -3.59553
1.55019 1.58446 18.6947
0.0144624 1.34287 19.3717
-0.0314368 1.07826 18.347
0.0331641 3.97548 18.3121
2.6596 2.67091 20.0738
0.0169034 2.09841 20.1826
0.00685005 4.81759 20.691
2.11818 1.85941 22.3289
-0.0121153 1.4932 21.6336
-0.0184847 1.53239 22.6065
0.576718 0.24406 22.1306
-0.0220007 0.35725 21.7094
-0.0192488 0.212581 21.9608
0.302044 -0.165317 21.7605
-0.0185638 -0.0584972 21.8576
-0.0397061 -0.0223674 21.9455
0.147831 -0.460325 21.6187
-0.0126362 -0.192465 21.8454
-0.0231848 -0.558762 21.2371
1.21806 -0.724162 20.361
1.24784 -1.26474 20.3152
2.17799 -1.40235 19.7447
1.06448 -0.88169 19.6515
1.81807 -1.59434 21.2219
0.819131 -0.700126 21.4376
0.587507 -0.875363 21.7442
1.09464 -1.30984 22.1572
0.103609 -0.678528 21.9188
0.0886236 -0.396194 21.7094
-0.108915 -0.231164 21.8137
-0.150147 -0.630986 21.2371
-0.441144 -0.153464 21.7872
-0.483055 -0.12364 21.8128
-0.572459 0.238464 21.9239
-0.730101 -0.0267614 19.9143
-1.33443 0.586608 21.2148
-1.15934 0.099048 21.6194
-1.14735 0.798395 21.524
-1.8602 0.395145 18.2655
-1.90619 0.907942 20.17
-1.38847 0.115984 21.3373
-1.64935 1.10752 21.3393
-2.51851 0.4401 18.7451
-1.95741 0.459594 20.1809
1.66277 -0.381264 20.0235
2.87111 0.2604 18.8367
1.44915 -0.477432 19.0967
3.99505 -0.982004 20.8615
1.5297 -0.625343 21.4431
3.57537 -0.478634 21.6811
1.05586 -1.45857 21.9889
0.542131 -0.647236 21.8709
1.73733 -0.930646 22.3114
-0.0890381 -0.483347 19.5862
-0.217975 -0.625955 22.0011
0.214325 -0.563477 20.1709
-1.07362 -0.116877 15.7693
-0.881891 -0.828889 21.6601
-0.0870928 -0.720767 18.4246
-1.3326 -0.813887 16.6387
-1.19302 -0.764509 21.7171
-0.591777 -1.26735 20.6531
-2.07054 -1.33517 18.1701
1.17303 0.454347 19.8891
0.759732 0.69367 19.8625
0.928126 0.479209 19.3728
2.03968 1.25995 19.8266
1.58666 0.550741 20.7666
1.01979 1.0125 20.5318
2.14251 1.08409 21.3289
1.16787 0.238521 21.6113
0.723073 0.703834 21.444
0.981267 0.304739 22.0253
0.44402 -0.12273 21.7574
0.341584 0.140348 21.5592
0.327992 -0.222283 21.7843
0.127043 -0.339465 21.606
0.177365 -0.102444 21.6949
0.121301 -0.430757 21.4959
-0.0917529 -0.481386 21.2946
0.0780559 -0.204382 21.8265
-0.0222898 -0.621773 21.3188
-1.6234 -1.30868 20.1408
-0.756575 -1.06682 21.9261
0.210494 -0.391936 21.8514
0.77853 0.137453 21.5555
1.62343 0.695292 20.9017
1.8601 0.741253 20.2616
-2.77831 -0.754598 19.2458
-2.17581 -1.39654 22.4093
-0.311844 -1.05503 20.701
0.474492 0.104016 17.4643
1.14458 -0.595246 17.0552
1.5772 -0.843087 19.4482
-1.47161 0.865306 19.4358
-2.28981 1.30863 20.5773
-1.65025 0.71042 21.9072
-0.548695 -0.0262122 21.9308
-0.216968 -0.340171 21.6548
0.0459807 -0.540605 21.3995
-0.0600189 -5.21502 19.3422
0.00249848 -0.496481 17.1149
0.000197186 0.0726057 13.9482
0.000964333 0.444197 13.5494
0.0101382 1.06169 11.5291
0.0206582 2.27236 11.2328
-0.18714 -2.55319 10.1899
-0.0273522 -0.676306 -0.772671
0.229114 2.47487 -3.61074
-0.0148733 2.4964 17.8223
0.0199232 4.54779 19.258
-0.0181117 3.41836 22.5457
-0.0178335 0.621722 22.3473
-0.0333496 0.0937164 21.7483
-0.0272455 -0.256964 21.6337
1.6695 -1.39239 20.1116
0.755046 -1.07205 21.9278
-0.203885 -0.394649 21.8486
-0.775851 0.13167 21.5535
-1.6175 0.785247 20.6043
-1.94558 1.02463 19.5141
2.92685 -0.787604 19.1253
2.17297 -1.38308 22.3924
0.331943 -1.06624 20.8306
-0.466105 0.0516873 17.6845
-1.1135 -0.532838 16.0644
-1.754 -0.919209 18.1251
1.471 0.878864 19.4301
2.263 1.27425 20.587
1.6577 0.719682 21.9115
0.553559 -0.0178539 21.9436
0.225473 -0.330031 21.6632
-0.0235523 -0.551124 21.4147
-1.17106 -0.39481 2.32367
-0.00673082 -0.0149233 0.201012
-0.01372 1.6319e-05 0.634273
0.00924598 -0.100408 0.0347629
0.00335219 0.0626909 0.202718
0.0497588 0.0894459 1.76047
-0.917906 0.0718258 1.26735
-0.0268021 0.0791082 0.122731
-0.228056 -0.0108372 0.403171
-0.0318415 -0.0683907 0.0293206
-0.0311763 0.00866204 -0.00586188
0.00321439 -0.000335715 0.034321
0.0079712 -0.0148256 0.211082
1.19546 -0.404926 2.37245
0.0136494 0.000994093 0.597573
-0.00445432 0.0625419 0.202618
-0.00997503 -0.102266 0.0354425
-0.0378107 0.0804721 1.39653
0.0334577 0.084856 0.136172
0.938132 0.0749571 1.29621
0.231916 -0.0125316 0.40471
0.0296707 0.00943219 -0.00647274
0.0313414 -0.0658297 0.0271921
-0.00319313 -0.000286671 0.0338316
0.00844565 0.0343807 0.562403
0.000804901 0.0109131 0.736678
0 0 0
7.24831e-05 1.19923e-05 0.00122287
0.0993343 -0.0202405 1.302
-0.00196485 0.0121349 0.838354
0.000178054 0.00251477 0.0189333
0 0 0
-0.0626108 -0.048225 0.428035
0.00944179 0.0451536 0.275314
0.000217703 0.000960279 0.00413638
-0.0348647 0.052412 0.126014
0.000768654 0.00132805 0.00469317
0.00694349 0.0121548 0.0457226
0 0 0
0.00157458 0.000606541 0.0337094
-0.00787225 0.0344035 0.561444
-7.32545e-05 1.20145e-05 0.00122144
-0.000528878 0.0101068 0.72814
0 0 0
-0.0984573 -0.0219402 1.28365
6.52495e-19 -6.38021e-20 -1.42056e-17
0.00207843 0.0121211 0.833916
-0.000173715 0.00246958 0.018638
0.0620429 -0.0480723 0.425258
0.0355087 0.0532523 0.127805
-0.00925573 0.0447151 0.276
-0.000211483 0.000938865 0.00410046
-0.000808577 0.00139728 0.00497245
-0.00161049 0.000610414 0.0338429
-0.00685597 0.0120775 0.0454048
4.39497e-18 -1.24626e-17 -3.71757e-17
0 0 0
-0.235955 -0.0334213 0.0875286
-3.75138e-08 7.40049e-08 -1.10639e-05
-4.26438e-19 -3.70798e-17 6.56225e-18
0 0 0
-1.70002e-07 -1.09855e-08 -3.44401e-05
0 0 0
-0.0190151 -0.0507731 0.00253922
-8.91031e-06 0.000255283 0.00532952
-0.000751751 -0.0885428 0.0230934
0.000314391 0.00164228 0.0216802
0.000377013 0.000247446 0.00703878
0.0787786 1.62148 0.67271
9.10344e-05 0.0581967 0.151042
-0.0115973 -0.0180766 0.08434
0 0 0
-0.000511323 -0.0126379 0.00405874
-2.68409e-05 -0.000493195 0.00615254
0.000321077 0.000576454 0.00418019
0.000856366 -0.000849694 0.0159308
0.223502 -0.033289 0.0838079
0 0 0
-1.6965e-08 1.75514e-09 3.80384e-06
0 0 0
0.0182801 -0.051603 0.00246065
0 0 0
-0.000752711 0.000515155 0.0140955
-0.00036962 0.00177011 0.0233113
0 0 0
0.0114831 -0.0179259 0.0832329
-0.000826786 -0.000773556 0.0146054
-0.000443092 0.000800603 0.00575372
0 0 0
0 0 0
0.000180638 -5.48957e-07 0.0135816
8.44706e-05 0.00223032 0.0137192
1.3635e-08 2.37186e-07 1.12665e-05
-8.7087e-09 6.09951e-08 1.25831e-05
0.000247604 0.00322813 0.0186143
0 0 0
-9.20694e-09 8.71838e-08 1.93684e-05
0 0 0
0.00737277 0.0211457 0.0811002
-0.00665586 0.0104025 0.0760926
-1.11099e-05 0.016808 0.0322403
-3.94388e-05 0.0861976 0.203328
-3.53706e-07 4.93043e-05 0.000996567
1.79531e-06 -2.06203e-06 0.000109395
-1.29119e-18 5.91317e-19 2.50946e-17
0 0 0
-0.000180465 -4.52253e-06 0.0136845
-8.38186e-05 0.00221737 0.013709
-0.00024706 0.00321762 0.0185865
2.03372e-18 -9.48903e-18 -5.00593e-17