# vtk DataFile Version 2.0
tri_press
ASCII
DATASET UNSTRUCTURED_GRID
POINTS 3682 float
-0.863361 0.205 -1.705
-0.731849 0.335 1.945
-0.732917 0.785 -1.765
-0.585 1.425 1.69778
0.863361 0.205 -1.705
0.731913 0.335 1.945
0.732858 0.785 -1.765
0.585 1.425 1.69778
-0.82076 0.247097 -0.488333
-0.814319 0.253034 0.728333
-0.781696 1.09642 -0.61074
-0.714933 1.29229 0.54352
0.820816 0.247063 -0.488333
0.814407 0.252989 0.728333
0.781693 1.09645 -0.61074
0.714922 1.2923 0.54352
-1.65636 -0.334681 -2.58789
-1.65088 -0.209932 -1.63955
-1.60891 -0.178277 -0.421269
-1.55745 -0.204101 0.809571
-1.48838 -0.156615 2.02891
-1.47476 -0.0694973 2.98243
-1.48543 0.033782 3.92636
-1.65289 0.0374706 -2.64032
-1.64761 0.191584 -1.6988
-1.60396 0.269353 -0.492665
-1.53912 0.286679 0.71909
-1.44127 0.35681 1.92642
-1.44592 0.444874 2.87906
-1.47128 0.543819 3.82503
-1.59792 0.726352 -2.72768
-1.55985 0.873194 -1.78358
-1.55649 1.12313 -0.619984
-1.46095 1.29483 0.539189
-1.33838 1.41844 1.70398
-1.39051 1.49868 2.6592
-1.44808 1.58038 3.61523
-1.54748 1.95708 -2.90563
-1.52804 2.13268 -1.97088
-1.5172 2.42228 -0.827519
-1.48829 2.69723 0.30239
-1.45255 2.89353 1.4464
-1.45151 3.00183 2.38252
-1.47056 3.08915 3.33173
-0.85811 -0.32679 -2.59191
-0.850627 -0.195833 -1.64542
-0.81822 -0.186105 -0.420481
-0.801977 -0.230588 0.81746
-0.761091 -0.179004 2.0427
-0.756612 -0.0850821 2.99179
-0.766203 0.0232973 3.93177
-0.86411 0.0339409 -2.64156
-0.74672 0.433376 2.88678
-0.762237 0.535998 3.82911
-0.819319 0.687507 -2.71996
-0.704122 1.4995 2.65796
-0.749992 1.57961 3.61496
-0.771333 1.92649 -2.898
-0.753661 2.10183 -1.96247
-0.757392 2.40869 -0.822451
-0.75591 2.70106 0.301782
-0.742488 2.90293 1.44206
-0.745361 3.00966 2.37818
-0.760335 3.09436 3.32858
0.786684 -0.326792 -2.59191
0.830568 -0.195839 -1.64542
0.815504 -0.186132 -0.420481
0.795114 -0.230622 0.81746
0.734818 -0.179016 2.0427
0.694867 -0.0850914 2.99179
0.678251 0.0232877 3.93178
0.772952 0.0339412 -2.64156
0.666496 0.43337 2.88678
0.659969 0.535989 3.82911
0.738316 0.68751 -2.71996
0.616603 1.4995 2.65796
0.637572 1.5796 3.61496
0.776417 1.92649 -2.898
0.784802 2.10184 -1.96247
0.763159 2.4087 -0.822451
0.709881 2.70106 0.301782
0.665093 2.90293 1.44206
0.654086 3.00966 2.37818
0.654041 3.09435 3.32858
1.60196 -0.334684 -2.58789
1.6416 -0.209941 -1.63955
1.6177 -0.178312 -0.421269
1.56895 -0.204152 0.809571
1.48689 -0.156646 2.02891
1.43555 -0.0695191 2.98243
1.41402 0.0337615 3.92636
1.59171 0.0374722 -2.64032
1.64757 0.191585 -1.6988
1.61517 0.269327 -0.492665
1.55692 0.28663 0.71909
1.45547 0.356785 1.92642
1.4014 0.444856 2.87906
1.39006 0.5438 3.82503
1.54763 0.72636 -2.72768
1.56589 0.87321 -1.78358
1.56846 1.12316 -0.619984
1.4748 1.29482 0.539189
1.34749 1.41843 1.70398
1.33756 1.49867 2.6592
1.35662 1.58037 3.61523
1.55359 1.95709 -2.90563
1.55601 2.1327 -1.97088
1.52736 2.4223 -0.827519
1.45835 2.69723 0.30239
1.3937 2.89353 1.4464
1.37433 3.00182 2.38252
1.37492 3.08914 3.33173
-0.835951 0.495 -1.77281
0 0.20197 -1.70803
-0.842395 0.225714 -1.09667
-0.735851 0.88 1.89882
3.19779e-05 0.301678 1.97832
-0.80548 0.261621 1.33667
-2.95043e-05 0.843089 -1.82309
-0.790756 0.974159 -1.18787
0 1.47619 1.74897
-0.668304 1.37698 1.12065
0.836038 0.495 -1.77293
0.84201 0.22611 -1.09667
0.735852 0.88 1.89879
0.805508 0.261646 1.33667
0.790712 0.974164 -1.18787
0.668304 1.37699 1.12065
-0.818838 0.248767 0.12
-0.890293 0.671757 -0.549537
2.75415e-05 0.21045 -0.488333
-0.88177 0.772664 0.635927
4.3663e-05 0.219362 0.728333
-0.753756 1.1998 -0.03361
-1.28824e-06 1.39126 -0.61074
-5.5911e-06 1.60192 0.54352
0.818705 0.248932 0.12
0.890294 0.671759 -0.549537
0.881769 0.772646 0.635927
0.753747 1.19982 -0.03361
-0.889455 0.583379 -1.14227
0.889453 0.583379 -1.14227
1.37707e-05 0.204345 -1.09667
-1.53963e-05 1.07647 -1.18787
-1.47521e-05 0.495 -2.06497
-0.887694 0.72221 0.043195
0.887692 0.722202 0.043195
3.56022e-05 0.218101 0.12
-3.43967e-06 1.58065 -0.03361
-0.859456 0.826332 1.22866
0.859471 0.826323 1.22866
3.78205e-05 0.242903 1.33667
-2.79555e-06 1.58599 1.12065
1.59889e-05 0.88 1.99423
-0.851296 0.35 -1.74055
-0.431681 0.202475 -1.70753
-0.842521 0.225714 -1.40083
-0.769554 0.6075 1.95761
-0.365909 0.302227 1.97777
-0.798694 0.268281 1.64083
-0.795759 0.64 -1.78023
-0.366473 0.815225 -1.79522
-0.767602 0.885344 -1.47644
-0.676402 1.1525 1.81427
-0.2925 1.46521 1.73799
-0.627421 1.40176 1.40922
0.431681 0.201499 -1.7085
0.851459 0.35 -1.74072
0.8421 0.226141 -1.40083
0.365972 0.302232 1.97777
0.769605 0.6075 1.95762
0.798874 0.26816 1.64083
0.366414 0.815571 -1.79557
0.795934 0.64 -1.78045
0.767593 0.88539 -1.47644
0.2925 1.46518 1.73796
0.676223 1.1525 1.81408
0.627417 1.40176 1.40922
-0.82123 0.246753 -0.7925
-0.819877 0.247854 -0.184167
-0.875873 0.449253 -0.518935
-0.418979 0.211548 -0.488333
-0.811888 0.255339 1.0325
-0.817425 0.250054 0.424167
-0.87045 0.501646 0.68213
-0.415348 0.219778 0.728333
-0.792816 1.04188 -0.899305
-0.87234 0.90226 -0.580138
-0.76972 1.1501 -0.322175
-0.454484 1.37111 -0.61074
-0.688104 1.33112 0.832085
-0.821565 1.04409 0.589723
-0.735882 1.24758 0.254955
-0.428017 1.5882 0.54352
0.821214 0.246785 -0.7925
0.419026 0.211548 -0.488333
0.819754 0.248003 -0.184167
0.875877 0.449249 -0.518935
0.811904 0.255371 1.0325
0.415424 0.219778 0.728333
0.817399 0.250118 0.424167
0.870448 0.501637 0.68213
0.792821 1.04193 -0.899305
0.454517 1.3712 -0.61074
0.87235 0.902285 -0.580138
0.769716 1.15013 -0.322175
0.688098 1.33113 0.832085
0.428005 1.5882 0.54352
0.82157 1.04409 0.589723
0.735877 1.2476 0.254955
-0.882566 0.539189 -1.45754
-0.417983 0.495 -2.0304
6.88536e-06 0.203705 -1.40235
-7.37607e-06 0.348485 -1.99333
-0.881929 0.404546 -1.11947
-0.421191 0.204316 -1.09667
-0.836656 0.853166 1.56374
-0.367918 0.88 1.99811
3.48992e-05 0.256389 1.65749
2.39834e-05 0.590839 2.06983
-0.878582 0.543976 1.28266
-0.402721 0.242887 1.33667
-2.24503e-05 0.997675 -1.50548
-2.21282e-05 0.669045 -2.00391
-0.882274 0.778769 -1.16507
-0.395386 1.05415 -1.18787
-1.39778e-06 1.561 1.43481
7.99447e-06 1.1781 1.93766
-0.786563 1.10166 1.17465
-0.334153 1.5768 1.12065
0.88256 0.53919 -1.4576
0.418012 0.495 -2.03033
0.881846 0.404745 -1.11947
0.421012 0.204318 -1.09667
0.836684 0.853161 1.56372
0.367934 0.88 1.99813
0.878582 0.543984 1.28266
0.402773 0.242882 1.33667
0.882266 0.778772 -1.16507
0.395348 1.05416 -1.18787
0.786559 1.10166 1.17465
0.334151 1.57671 1.12065
-0.87498 0.474632 0.0815975
-0.417122 0.217992 0.12
-0.8897 0.627568 -0.845903
-0.889122 0.696984 -0.253171
2.06561e-05 0.210627 -0.7925
3.15718e-05 0.211871 -0.184167
-0.886062 0.747437 0.339561
-0.872827 0.799498 0.932293
3.96326e-05 0.21873 0.424167
4.07417e-05 0.2357 1.0325
-0.851436 0.97636 0.00479251
-0.46293 1.56232 -0.03361
-8.34225e-06 1.24357 -0.899305
-2.36396e-06 1.52371 -0.322175
-4.51539e-06 1.59818 0.254955
-4.19333e-06 1.59848 0.832085
0.874985 0.474674 0.0815975
0.417132 0.217994 0.12
0.889697 0.627569 -0.845903
0.889121 0.69698 -0.253171
0.886063 0.747424 0.339561
0.872847 0.799484 0.932293
0.851432 0.976366 0.00479251
0.46291 1.56231 -0.03361
-0.878944 0.377273 -1.42919
-0.875122 0.431986 -0.819201
-0.884723 0.831428 -0.872604
-0.888122 0.709384 -1.46699
0.878942 0.377372 -1.42922
0.888123 0.709386 -1.46702
0.884728 0.831439 -0.872604
0.875127 0.432078 -0.819201
-0.426436 0.203661 -1.40159
0.426346 0.203662 -1.40159
0.415717 0.210584 -0.7925
-0.415779 0.210584 -0.7925
-0.38093 0.978629 -1.49096
-0.393117 1.22665 -0.899305
0.393097 1.22667 -0.899305
0.380881 0.978794 -1.49096
-0.424832 0.349243 -1.95499
-0.392228 0.654522 -1.98962
0.392213 0.654522 -1.98902
0.424846 0.349243 -1.9548
-0.875509 0.461901 -0.218669
-0.874061 0.487466 0.381864
-0.838495 1.01122 0.297258
-0.862523 0.939627 -0.287673
0.875511 0.461922 -0.218669
0.86252 0.93964 -0.287673
0.838484 1.01122 0.297258
0.87406 0.487484 0.381864
-0.418802 0.213266 -0.184167
0.41883 0.213267 -0.184167
0.416279 0.218884 0.424167
-0.416235 0.218884 0.424167
-0.476456 1.50221 -0.322175
-0.448839 1.58199 0.254955
0.448836 1.58201 0.254955
0.476424 1.50218 -0.322175
-0.878263 0.528413 0.982396
-0.871322 0.575738 1.60229
-0.753424 1.12708 1.48648
-0.805945 1.06707 0.882189
0.877798 0.528401 0.982396
0.80594 1.06707 0.882189
0.753453 1.12708 1.48647
0.87133 0.575742 1.60228
-0.40493 0.235688 1.0325
0.404999 0.235687 1.0325
0.384373 0.256001 1.64916
-0.384315 0.256001 1.64916
-0.345811 1.58977 0.832085
-0.313327 1.5532 1.42201
0.313325 1.55329 1.42201
0.345804 1.58972 0.832085
-0.366913 0.599169 2.03158
0.366953 0.599169 2.03191
0.330217 1.1653 1.92099
-0.330209 1.1653 1.92108
-0.834715 0.2775 -1.70016
-0.647521 0.202748 -1.70725
-0.842247 0.226051 -1.55292
-0.75505 0.47125 1.95565
-0.548879 0.303488 1.97651
-0.77661 0.290302 1.79292
-0.765008 0.7125 -1.77329
-0.549695 0.800556 -1.78056
-0.763124 0.848037 -1.62072
-0.630476 1.28875 1.7558
-0.43875 1.45192 1.7247
-0.608048 1.41522 1.5535
0.647521 0.201288 -1.70871
0.83452 0.2775 -1.69997
0.842167 0.226134 -1.55292
0.548943 0.303502 1.9765
0.755049 0.47125 1.9556
0.776785 0.290188 1.79292
0.549636 0.800647 -1.78065
0.765095 0.7125 -1.77342
0.763211 0.84818 -1.62072
0.43875 1.45193 1.72471
0.630593 1.28875 1.75591
0.608037 1.41521 1.5535
-0.821072 0.246848 -0.640417
-0.820436 0.247358 -0.33625
-0.868741 0.337963 -0.503634
-0.628496 0.21207 -0.488333
-0.811284 0.256007 0.880417
-0.816484 0.250932 0.57625
-0.867382 0.364841 0.705232
-0.622933 0.220207 0.728333
-0.787506 1.0694 -0.755023
-0.814586 0.993123 -0.595439
-0.776228 1.12378 -0.466458
-0.674829 1.34724 -0.61074
-0.70178 1.31197 0.687803
-0.762952 1.16554 0.566622
-0.729386 1.27392 0.399238
-0.613017 1.52333 0.54352
0.821061 0.246878 -0.640417
0.628538 0.21207 -0.488333
0.820339 0.247479 -0.33625
0.868736 0.337961 -0.503634
0.81129 0.256045 0.880417
0.623003 0.220207 0.728333
0.816513 0.250943 0.57625
0.867383 0.364835 0.705232
0.787521 1.06945 -0.755023
0.673399 1.34441 -0.61074
0.814549 0.993133 -0.595439
0.776222 1.12381 -0.466458
[...]
POINT_DATA 3682
SCALARS point_scalars float 1
LOOKUP_TABLE default
-111.508
-53.4343
-20.5842
-42.8051
-112.812
-53.316
-20.3338
-42.5537
-43.9259
-43.7103
-85.7209
-58.6503
-43.9239
-43.704
-85.5481
-58.5825
-62.7552
-117.479
-44.2671
-43.8995
-61.5588
-53.0467
-47.4897
-64.6422
-111.667
-46.3754
-43.8434
-58.2165
-48.581
-45.5179
16.6733
-100.454
-68.9422
-52.7547
-47.5935
-43.7399
-41.5436
-27.7564
-71.6288
-98.3299
-71.717
-49.6597
-42.7492
-41.8095
-122.346
-154.445
-43.6605
-44.8599
-54.0666
-46.7643
-46.3961
84.2942
-45.576
-44.9593
144.154
-38.6765
-39.6354
71.0854
-18.016
-80.5091
-73.4545
-49.3496
-41.8987
-38.8466
-168.717
-149.156
-43.6478
-44.8236
-53.4976
-46.3109
-46.1983
39.1965
-45.3878
-45.21
147.086
-37.4962
-38.9244
42.4949
-19.3508
-78.3135
-73.4135
-49.4949
-41.2113
-38.2792
-62.7427
-116.593
-44.2829
-43.8933
-62.1653
-52.9267
-47.3992
-64.8772
-110.696
-46.3981
-43.8293
-57.8947
-48.4879
-45.4439
16.0808
-100.497
-68.827
-52.7387
-47.4514
-43.4949
-41.3277
-27.3031
-73.6027
-96.0511
-71.6645
-49.5275
-42.1982
-41.5823
-92.9874
-111.449
-61.1365
-46.3917
-50.6622
-47.8965
28.775
-63.1321
-35.0648
-51.4914
-93.197
-61.0096
-46.2381
-47.7512
-62.5883
-51.4249
-41.7296
-54.9977
-46.8652
-47.8669
-45.708
-68.9942
-30.7927
-71.9042
-41.7282
-54.9514
-47.8326
-68.9274
-70.0429
-69.9776
-62.8841
23.6182
204.989
-49.7952
-49.77
-43.3165
-104.037
-49.9414
-49.8267
-49.1013
-53.9106
-42.2921
-103.586
-112.393
-77.5144
-48.2813
-51.0187
-53.8489
-44.376
33.2135
-53.0103
-42.135
-36.8854
-47.7883
-113.292
-104.014
-77.7102
-50.9698
-48.1843
-53.8361
33.5312
-44.7041
-52.4801
-36.7213
-41.873
-47.647
-47.8801
-42.3352
-48.8008
-46.2516
-46.3347
-41.9567
-44.5802
-45.2415
-91.2948
-67.6993
-76.1442
-38.9533
-54.1566
-53.9244
-63.0884
-68.728
-47.8576
-46.222
-42.2686
-48.7749
-46.4597
-45.2282
-41.9323
-44.5489
-91.2454
-39.0037
-67.5926
-76.1111
-54.1042
-68.695
-53.9252
-63.0007
-90.4102
179.891
-78.5157
198.667
-66.04
-61.944
-51.8807
-43.005
-51.9811
-45.2578
-48.8022
-48.7687
-6.51151
160.087
-76.4398
13.1234
-45.0085
-30.5605
-50.1777
-53.7319
-90.3043
180.263
-65.9629
-61.512
-51.7024
-42.9086
-48.7773
-48.7084
-76.3563
13.1271
-50.0821
-53.6809
-45.2829
-42.82
-59.569
-51.922
-52.7044
-44.1902
-48.5254
-47.5623
-43.2478
-48.8944
-59.6573
-97.6514
9.1789
-92.1385
-85.6834
-62.3491
-45.2634
-42.8012
-59.5134
-51.8822
-48.5012
-47.5036
-59.6172
-97.6337
-85.5531
-54.1384
-70.0792
-93.558
-85.5796
-93.3845
-69.9977
-54.1074
-77.8838
-77.8446
-51.7562
-51.7926
-11.6701
3.51821
3.53868
-11.3394
169.839
145.258
152.981
168.226
-46.4815
-44.921
-56.2474
-63.5563
-46.4563
-63.4089
-56.229
-44.8961
-43.5628
-43.5392
-42.8455
-42.8619
-85.0691
-80.5757
-80.5471
-85.0088
-44.6903
-53.7163
-48.7017
-51.1829
-44.4843
-51.1606
-48.521
-53.5929
-48.4541
-48.4467
-52.2911
-52.243
-61.1146
-46.0034
-45.9185
-61.0778
-44.3516
-44.3544
-34.7622
-35.0851
-105.076
-119.962
-99.1649
-50.0567
-51.8664
-60.0725
-30.8051
26.607
-66.4527
-41.592
-38.7307
-44.7569
-122.135
-107.101
-99.5128
-51.7894
-49.9387
-60.1123
30.4388
-30.9098
-65.9335
-38.5551
-41.335
-44.5834
-45.0403
-43.0395
-45.9465
-45.2192
-43.5912
-42.7356
-43.8287
-44.5857
-90.0505
-76.399
-79.6357
-88.9625
-56.2604
-55.8788
-61.6929
-64.1378
-45.0219
-45.1856
-43.0388
-45.937
-43.5543
-44.5636
-42.6973
-43.8063
-89.9354
-85.7044
-76.2672
-79.5395
-56.2015
-64.0846
-55.8509
-61.634
-105.718
-62.7041
-115.259
111.094
-111.895
-112.256
-91.6918
-0.415217
-67.8829
-61.0172
-64.4108
-61.0978
-46.548
-44.3515
-51.461
-43.3993
-50.7473
-50.7212
-52.7053
-45.5725
-48.8405
-45.7602
-48.3971
-48.1929
33.1716
32.0778
3.43248
68.1599
-56.7316
-86.7438
-77.7473
-8.17049
-35.463
-35.4532
-40.1274
-31.6425
-50.4614
-52.1755
-50.694
-53.4654
-106.31
-62.9975
-115.446
110.55
-67.8212
-60.9109
-64.3531
-61.0176
-46.3994
-44.1147
-51.258
-43.2817
-48.7266
-45.7091
-48.3159
-47.9915
-56.4135
-86.6466
-77.6527
-7.69969
-50.3593
-52.1331
-50.6086
-53.3982
-41.9439
-41.6242
-43.5133
-42.2514
-51.4342
-60.2098
-56.8536
-53.314
-46.7737
-46.7538
-49.2087
-45.1385
-46.042
-50.2424
-48.1072
-47.6635
-45.6791
-45.6027
-44.2753
-47.7077
-72.5663
-65.6992
-63.8264
-84.9639
-32.2394
-32.1981
-11.1682
-52.6921
-71.1079
-71.0947
-77.9222
-66.8846
-41.9525
-41.5743
-43.5007
-42.2278
-51.3982
-60.1428
-56.8049
-53.2685
-46.0081
-50.2145
-48.0685
-47.6189
-72.5081
-65.624
-63.7566
-84.8682
-78.2222
-67.7963
-73.1186
-64.7433
-78.1607
-67.7441
-73.0221
-64.6719
-69.5967
-62.8167
-62.622
-57.8034
2.82682
21.1882
21.2868
23.3018
199.475
176.958
179.828
199.502
-47.2359
-50.759
-49.0581
-53.3587
-47.2128
-50.7283
-49.0296
-53.3462
-43.2179
-43.7219
-42.7724
-43.2066
-102.395
-109.857
-94.802
-102.391
-51.5647
-49.299
-49.8824
-48.571
-51.4255
-49.211
-49.7605
-48.4862
-50.1426
-49.0339
-49.0184
-47.7236
-49.4931
-53.9747
-53.9454
-58.1109
-42.4356
-44.3049
-39.2667
-42.3686
-107.166
83.7028
-91.773
22.8977
-80.9599
-77.6656
-56.3824
-44.9244
-53.5479
-45.2849
-54.0888
-52.5945
-99.4486
86.0531
0.0693719
50.6207
-75.0546
-21.8354
-46.5863
-38.5072
-41.7285
-35.1866
-47.9556
-46.7883
-92.0217
22.4099
-107.178
83.4363
-81.0949
-77.5764
-53.445
-45.2468
-56.1875
-44.8769
-53.9865
-52.5926
1.08774
32.0161
-99.5002
80.6494
-74.8369
-20.613
-41.6144
-34.9437
-46.3486
-38.2449
-47.7827
-46.6746
-51.3518
-50.696
-44.2631
-42.843
-50.5181
-47.3899
-48.4287
-44.5252
-44.5986
-48.1829
-43.6292
-42.3167
-45.0034
-43.7029
-43.8367
-47.5161
-77.315
-15.9266
-69.0384
-65.3465
-69.7643
-103.202
-16.1421
-57.6594
-52.4329
-59.6752
-55.5708
-52.5239
-58.9723
-70.977
-73.8895
-64.6823
-51.3179
-50.6452
-48.3965
-44.4988
-44.2399
-42.8118
-50.4877
-47.3603
-44.5609
-48.1408
-43.8219
-47.5062
-43.606
-42.2929
-44.9765
-43.6726
-77.213
-16.0202
-16.2892
-57.5419
-68.9448
-65.2504
-69.927
-103.137
-52.3879
-59.6075
-73.8624
-64.6482
-55.5621
-52.5315
-58.9243
-70.9171
-87.1256
-95.2888
160.529
180.481
-78.3916
-78.3659
183.135
184.191
-74.6574
-61.7432
-68.5899
-57.032
-53.3832
-50.1563
-44.1529
-39.2815
-52.0244
-52.0421
-45.1051
-44.9568
-47.4583
-51.6792
-47.2467
-49.8609
-7.23341
-7.13441
146.324
146.973
-72.4617
-82.1059
-7.17023
16.5402
-45.3837
-45.3391
-31.8701
-32.0835
-50.3546
-49.6535
-57.422
-49.9651
-87.0887
-95.0786
181.952
160.466
-74.6101
-61.6505
-68.679
-56.9829
-49.9712
-53.2076
-44.0795
-39.0474
-47.4036
-51.4742
-47.2328
-49.8353
-82.0823
-72.3888
16.7617
-6.83588
-49.598
-50.2094
-49.8971
-57.3765
-45.7679
-45.0802
-43.1475
-42.3496
-56.5422
-64.045
-48.8401
-56.2166
-52.5087
-52.5342
-44.0258
-43.9896
-46.5012
-51.3522
-45.4586
-49.0629
-43.1873
-43.184
-48.8162
-48.8082
-58.1988
-61.5874
-103.848
-88.4849
7.75086
7.66612
-91.0143
-90.9852
-84.5431
-84.5249
-62.055
-62.0369
-45.7484
-45.0581
-43.1266
-42.3324
-63.9837
-56.5064
-48.8109
-56.1564
-51.3316
-46.4759
-45.3861
-49.0076
-61.5673
-58.1084
-88.4552
-103.818
-111.736
-71.628
-77.2568
-109.504
-47.4138
-53.2516
-62.6846
-62.0917
-78.4917
-78.4122
-67.7034
-61.8353
-86.3148
-115.299
-79.9873
-77.0133
-112.038
-109.5
-77.1956
-71.5732
-86.005
-76.9136
-79.9399
-115.334
-78.3596
-61.7711
-67.6371
-78.3468
-47.4023
-62.0796
-62.5902
-53.2138
-95.1285
-91.8514
-69.3504
-67.7329
-94.9952
-67.6538
-69.322
-91.8437
-47.2893
-49.0696
-57.5662
-56.3682
-47.329
-56.4448
-57.5956
-49.0914
-10.133
-21.2446
0.275633
3.4241
-76.8339
-11.496
21.6944
-1.38008
-77.6704
-1.23694
21.8839
-11.5833
-9.11039
3.49527
0.367873
-20.7894
-58.6065
104.027
174.27
2.07911
68.994
68.2194
179.643
109.372
55.2853
108.625
180.005
67.6764
-57.8902
-4.96964
174.122
103.55
-45.0399
-43.8004
-47.9445
-49.9779
-43.9493
-46.3577
-46.7364
-43.4592
-58.2355
-61.1541
-52.4501
-50.6327
-72.3256
-58.0523
-54.4818
-67.2714
-45.014
-49.9443
-47.9202
-43.7885
-72.2275
-67.1574
-54.4339
-57.9866
-58.2021
-50.5903
-52.4005
-61.0855
-43.9253
-43.4384
-46.7142
-46.3285
-43.797
-45.051
-43.5892
-42.5425
-43.7622
-42.5199
-43.5761
-45.0338
-43.1927
-44.1623
-42.6495
-41.7822
-43.215
-41.8076
-42.66
-44.234
-102.413
-95.9975
-107.131
-52.3701
-67.3989
-76.9267
-93.835
-76.9602
-67.2975
-76.9631
-93.8179
-76.9174
-102.593
-52.2653
-107.03
-96.1046
-43.6742
-47.0706
-47.4911
-45.4777
-58.0009
-53.3546
-51.5823
-51.3046
-45.4069
-50.3315
-50.5282
-48.9612
-54.0492
-49.4228
-49.4185
-50.3095
-43.6617
-45.4386
-47.4472
-47.0152
-54.0307
-50.2754
-49.3256
-49.3821
-45.1926
-48.7479
-50.3953
-50.2063
-57.8411
-51.199
-51.4427
-53.1728
-47.0221
-47.6419
-47.6192
-46.3948
-46.9917
-46.3858
-47.6238
-47.6353
-55.1904
-52.8378
-50.0934
-49.48
-55.265
-49.5113
-50.1076
-52.8652
-59.8955
-56.4006
-57.9621
-66.3586
-43.2463
-40.6562
-49.6287
-50.3295
-43.1051
-50.2443
-49.5921
-40.5918
-59.8323
-66.3455
-57.9378
-56.3447
-45.0896
-45.4839
-44.3068
-43.1561
-45.0323
-43.0451
-44.2669
-45.4629
-37.3785
-32.5704
-39.0543
-40.3808
-37.6185
-40.6306
-39.2781
-32.754
-110.673
-142.353
-120.151
-51.2714
-52.1483
-56.3886
-24.159
18.8316
-55.0769
-42.1294
-40.4827
-43.2721
-144.895
-138.547
-119.514
-52.1078
-51.1519
-56.2317
20.3889
-24.1319
-54.2499
-40.2502
-41.8693
-43.0802
-44.5583
-43.2724
-44.7955
-44.4615
-44.0027
-43.1912
-44.078
-43.3324
-88.566
-80.3881
-81.9276
-107.914
-57.4564
-57.2423
-60.0973
-60.5823
-44.5364
-44.4386
-43.335
-44.7957
-44.0165
-43.3127
-43.1659
-44.0652
-88.4415
-107.07
-80.2443
-81.7986
-57.3827
-60.5083
-57.1897
-60.0212
-101.056
-80.6656
-123.31
23.4055
-111.6
-111.751
-100.985
-153.798
-63.2393
-59.6076
-63.669
-60.665
-46.2292
-46.0101
-50.5897
-43.7865
-50.6689
-50.6557
-50.9884
-46.7373
-48.9823
-46.0478
-47.6023
-48.0012
30.4496
30.0092
18.0908
47.4767
-58.9763
-70.9092
-77.5803
-29.7668
-35.1849
-35.1812
-37.9392
-33.4494
-51.7488
-50.9797
-50.8197
-53.0185
-101.326
-80.695
-123.476
23.0685
-63.2256
-59.4312
-64.0324
-60.5786
-46.0601
-45.8226
-50.2565
-43.6477
-48.8654
-45.9826
-47.513
-47.7639
-58.7095
-70.7233
-77.5436
-29.2684
-51.6542
-50.9313
-50.7475
-52.9387
-41.8204
-41.5179
-42.3562
-41.9949
-53.0496
-57.4291
-55.9195
-54.1791
-46.886
-46.8748
-48.0413
-46.0078
-46.9819
-48.8899
-48.0577
-47.6516
-45.6864
-45.6823
-44.8769
-46.5467
-70.8011
-67.2981
-66.2357
-75.2169
-31.3807
-31.3632
-20.2121
-42.8844
-71.6795
-71.6736
-74.761
-69.3125
-41.8643
-41.4669
-42.3486
-41.9668
-53.0087
-57.3743
-55.8712
-54.1321
-46.9459
-48.8589
-48.0219
-47.6131
-70.7406
-67.2262
-66.1645
-75.1823
-73.7458
-68.6791
-71.1275
-66.6079
-73.6759
-68.6262
-71.0594
-66.5428
-66.0199
-62.8161
-62.7977
-60.1036
13.7654
23.1572
23.2119
26.6878
202.657
191.878
206.474
202.687
-48.3992
-50.2198
-49.3673
-51.4165
-48.375
-50.1937
-49.3414
-51.3925
-43.3215
-43.89
-42.7121
-43.3152
-103.742
-107.322
-99.6266
-103.738
-50.7007
-49.6473
-49.9578
-49.4301
-50.5847
-49.542
-49.8321
-49.3315
-49.5532
-49.0878
-49.0806
-48.4133
-51.552
-53.9586
-53.9429
-56.0184
-42.3532
-43.4579
-42.5145
-42.3158
-107.408
-109.191
-122.911
-14.9449
-115.318
-111.788
-102.188
-139.923
-85.1577
-72.4093
-78.2378
-76.8379
-48.9305
-47.4397
-53.3652
-45.5014
-51.3
-50.8661
-51.2872
-46.5529
-59.1733
-50.0093
-55.8463
-53.1084
-37.8409
-50.9389
-90.8881
39.7444
34.7362
33.3869
15.2935
49.5
-58.0196
-56.6767
-66.3955
-35.3274
-41.701
-42.9341
-45.1124
-39.5226
-37.9707
-36.0763
-40.0247
-35.7995
-46.0602
-49.0892
-47.7945
-47.2661
-116.58
-112.348
-102.62
-138.193
-107.792
-109.646
-123.087
-15.2867
-85.4649
-72.4925
-78.2773
-76.7971
-51.2398
-50.8283
-51.2469
-46.5049
-48.825
-47.3482
-53.2285
-45.4283
-59.0544
-49.6672
-55.6284
-53.0454
36.2992
31.9184
16.1826
39.0507
-38.037
-51.3776
-91.0475
38.7283
-57.4668
-56.3897
-66.0593
-34.2355
-37.7885
-35.9418
-39.8796
-35.6063
-41.4456
-42.6728
-44.8587
-39.416
-45.9039
-48.9706
-47.6392
-47.1382
-46.2033
-54.6968
-49.1062
-49.3162
-42.6104
-42.1146
-43.2093
-42.3104
-47.3358
-49.94
-49.4383
-47.89
-45.8443
-46.515
-47.2957
-45.2943
-45.7931
-45.5362
-43.6977
-48.7573
-42.2089
-41.7614
-42.7549
-41.9123
-44.0862
-45.2602
-44.9324
-44.0476
-44.9439
-45.4694
-44.4927
-46.2503
-94.0166
-93.851
-85.5944
-51.8633
-72.3545
-63.644
-68.6136
-66.3767
-77.8399
-74.3885
-72.5472
-87.4814
-49.8751
-32.8482
-29.5151
-48.2332
-55.1476
-53.126
-53.3495
-56.3049
-54.8317
-51.7851
-54.7683
-53.2379
-62.1813
-64.2616
-60.9709
-66.2678
-67.297
-70.1622
-71.2067
-66.68
-46.1882
-54.6241
-49.0957
-49.2646
-45.811
-46.4902
-47.2648
-45.2666
-42.5741
-42.0659
-43.1737
-42.2733
-47.3171
-49.9085
-49.411
-47.8627
-45.6928
-45.5323
-43.5844
-49.0442
-44.9266
-45.459
-44.4794
-46.2384
-42.1703
-41.7303
-42.7338
-41.8837
-44.0582
-45.2275
-44.9038
-44.0181
-93.8961
-93.7971
-85.5055
-52.3544
-49.97
-32.8412
-29.1728
-48.1036
-72.2277
-63.5589
-68.5053
-66.2802
-77.793
-74.3407
-72.5041
-87.5491
-55.0872
-53.0747
-53.3066
-56.1433
-67.2502
-70.1397
-71.1735
-66.646
-54.8259
-51.7652
-54.7643
-53.2403
-62.1126
-64.184
-60.8945
-66.2006
-102.591
-82.9525
-88.6329
-92.1895
156.65
192.402
163.972
182.845
-84.3959
-73.7162
-78.7235
-78.7057
153.899
188.354
195.893
196.07
-64.9072
-67.1917
-69.6861
-63.5324
-61.527
-62.355
-65.0238
-59.2424
-51.6831
-51.4616
-52.893
-51.0019
-43.3698
-42.4808
-43.9887
-41.7302
-53.1349
-51.0147
-51.9763
-51.9854
-46.1632
-43.8735
-45.0356
-45.0624
-48.4856
-49.1021
-48.004
-50.006
-48.5467
-48.9307
-47.987
-49.2695
-1.87552
-5.31881
-6.30199
-6.2676
117.332
169.262
167.016
167.105
-76.8415
-75.1586
-73.9971
-79.6927
4.85026
18.368
2.60738
18.6768
-42.6653
-47.2775
-45.1591
-45.1361
-30.4239
-32.6304
-30.9264
-31.0474
-50.7599
-50.3551
-50.6956
-49.8322
-53.6779
-53.7728
-55.4617
-51.8778
-102.444
-82.8995
-88.5493
-92.0672
156.698
192.415
184.259
163.985
-64.8004
-67.1286
-69.6474
-63.4259
-61.5608
-62.3189
-64.9794
-59.1956
-51.4976
-51.2914
-50.8222
-52.7147
-43.2611
-42.4021
-43.9087
-41.5972
-48.413
-49.0793
-47.9494
-49.9021
-48.407
-48.9026
-47.9567
-49.2202
-76.766
-75.0549
-79.6177
-73.9222
5.09433
18.2348
18.9509
3.46616
-50.6677
-50.2509
-49.7305
-50.5767
-53.6182
-53.7316
-51.8205
-55.4136
-44.7502
-46.146
-45.467
-45.1519
-42.5264
-43.0573
-43.226
-42.3259
-57.9636
-61.9547
-57.993
-61.6286
-52.6113
-51.3117
-50.2061
-53.8153
-50.6891
-55.3583
-52.6536
-52.6686
-44.6157
-43.8504
-44.1576
-44.1499
-48.307
-48.7857
-47.4518
-49.765
-47.6498
-48.0095
-46.8055
-48.3241
-43.7643
-42.9602
-43.2632
-43.2685
-49.6887
-47.2446
-48.6894
-48.6864
-61.939
-56.1271
-59.0866
-60.6204
-93.0247
-100.398
-101.486
-92.9317
0.25863
16.9022
8.63359
8.68059
-66.2003
-107.022
-92.2347
-92.2307
-81.5287
-90.0574
-85.4055
-85.3962
-64.5667
-60.2163
-62.2633
-62.255
-44.7325
-46.125
-45.4487
-45.1311
-42.5049
-43.0419
-43.206
-42.3081
-57.9134
-61.89
-61.5711
-57.9424
-52.5686
-51.2761
-50.1726
-53.7674
-48.2808
-48.7591
-49.7437
-47.4261
-47.5959
-47.9424
-46.7484
-48.2655
-61.8771
-56.1266
-60.5851
-59.0302
-92.9759
-100.385
-92.9064
-101.487
-94.2893
-83.9162
-85.014
-79.7101
-53.0508
-51.9323
-57.5633
-55.2406
-73.3217
-69.4033
-71.071
-66.7085
-96.5355
-84.6242
-95.8075
-87.0615
-94.292
-83.9561
-85.0237
-79.7079
-96.4481
-84.4778
-95.5923
-86.9856
-73.2238
-69.3217
-71.0002
-66.6415
-53.0207
-51.8971
-57.5119
-55.2082
-84.1208
-77.7548
-78.1518
-72.8337
-84.1101
-77.6945
-78.1262
-72.6009
-51.3383
-49.7025
-54.4912
-52.1982
-51.3314
-49.73
-54.5342
-52.2287
-7.53244
-14.6196
-8.68541
-11.0625
-2.72177
-7.81201
10.2688
6.06816
-2.68131
-7.88745
10.3474
6.201
-6.9485
-14.1784
-8.47997
-10.7855
153.042
121.849
164.841
175.082
122.521
118.912
167.736
126.194
129.668
129.779
129.97
168.838
121.678
152.8
175.959
164.144
-45.6663
-46.815
-46.0904
-47.5097
-44.4748
-44.9118
-45.0001
-45.6924
-56.3203
-57.4549
-53.6341
-56.8671
-64.3589
-67.5006
-59.2381
-62.4751
-45.6427
-46.7885
-46.0678
-47.4832
-64.2497
-67.3575
-59.1506
-62.3193
-56.306
-57.4258
-53.6172
-56.8181
-44.4495
-44.8856
-44.9768
-45.6671
-43.2312
-43.972
-43.2983
-43.8135
-43.9471
-43.2038
-43.794
-43.2763
-43.2763
-42.5899
-43.031
-42.5164
-42.6098
-43.2918
-42.5331
-43.0438
-92.6193
-63.365
-102.819
-87.7631
-76.6373
-76.9281
-84.2886
-83.1209
-76.9041
-76.5919
-83.0915
-84.2515
-63.2491
-93.8511
-87.7024
-102.796
-44.9877
-43.6712
-46.3049
-44.4398
-55.7968
-53.909
-53.4129
-52.3095
-47.7456
-48.1004
-49.5076
-49.5728
-51.776
-51.8948
-50.6768
-50.2529
-44.8786
-43.5736
-46.2264
-44.3875
-51.7296
-51.8754
-50.6667
-50.217
-47.5299
-47.9142
-49.3144
-49.4132
-55.6359
-53.7938
-53.2776
-52.1596
-48.3642
-49.2477
-46.7286
-48.6696
-48.3685
-49.2388
-46.7202
-48.6615
-53.8472
-52.5731
-52.1588
-51.1192
-53.9282
-52.5076
-52.1734
-51.1237
-60.2868
-62.8797
-59.3019
-61.7041
-43.754
-46.2385
-45.6935
-48.0101
-43.6605
-46.1379
-45.6271
-47.9272
-60.2447
-62.8473
-59.2652
-61.6772
-44.4493
-45.2456
-44.0242
-44.7585
-45.2193
-44.3992
-44.7219
-43.9602
-34.4528
-36.5849
-33.0491
-35.882
-36.9165
-34.7587
-36.204
-33.3064
-112.53
-75.86
-110.145
-124.639
-106.254
-96.2884
-55.7468
-45.8898
-52.4393
-46.9642
-59.0894
-56.4923
-80.0944
50.0928
1.32057
48.0468
-81.0951
-35.1151
-43.968
-38.6719
-42.4193
-37.5088
-44.9847
-44.1814
-110.879
-124.5
-111.6
-75.8018
-106.634
-96.1275
-52.3741
-46.8902
-55.6313
-45.8058
-58.9715
-56.4497
4.28134
46.0547
-79.8985
49.2823
-80.8174
-33.4821
-42.1942
-37.2921
-43.7169
-38.4496
-44.7889
-44.0153
-46.1445
-45.9278
-43.738
-43.2237
-46.2935
-45.3973
-46.0924
-44.3614
-43.6492
-46.5799
-43.1644
-42.7239
-44.0572
-43.7975
-43.8282
-45.6864
-82.5253
-100.687
-78.2835
-74.1809
-75.6496
-93.753
-76.6168
-99.795
-55.203
-57.716
-56.8029
-54.9411
-59.8281
-64.4876
-65.8165
-61.4382
-46.1379
-45.8938
-46.0558
-44.3288
-43.7125
-43.201
-46.2839
-45.3812
-43.6702
-46.4887
-43.8066
-45.6612
-43.1395
-42.6967
-44.0339
-43.7727
-82.4002
-100.832
-78.9624
-97.7475
-78.152
-74.0586
-75.5565
-93.9128
-55.1562
-57.6319
-65.7641
-61.3712
-56.7765
-54.9195
-59.7712
-64.4133
-128.678
0.153545
-112.964
39.7355
-113.53
-117.69
109.256
117.938
-101.466
-211.438
-101.621
-206.814
-91.6791
-91.673
10.466
10.3494
-70.4298
-66.7435
-62.8631
-56.5982
-67.2321
-63.795
-64.1143
-58.5202
-51.729
-43.454
-47.9927
-41.5564
-52.3977
-50.3115
-43.309
-42.5333
-51.0686
-46.6186
-51.0425
-46.5947
-52.7383
-52.7517
-45.5375
-45.5273
-50.6074
-49.1725
-46.613
-45.901
-47.8031
-49.9338
-47.1025
-48.7993
15.3023
41.0094
15.2282
38.9811
2.80215
2.81717
66.7303
66.7777
-71.3582
-36.4014
-88.979
-39.671
-77.7899
-79.0144
-15.2517
-1.32963
-38.5247
-34.1454
-38.4503
-34.0202
-40.3146
-40.2781
-31.8257
-31.9401
-50.3
-50.0727
-51.3187
-54.98
-51.1204
-49.9312
-55.1134
-52.0116
-128.834
0.00312568
-112.888
39.2978
-113.606
-117.883
114.67
108.732
-70.3722
-66.6702
-62.8342
-56.5026
-67.2208
-63.666
-64.0356
-58.4415
-51.5346
-43.3271
-47.7717
-41.3353
-50.1249
-52.197
-43.1866
-42.3348
-50.4997
-49.1102
-46.5579
-45.8736
-47.7387
-49.8345
-47.1528
-48.5383
-71.2577
-35.8565
-88.9388
-39.5087
-78.9191
-77.6954
-0.828104
-14.8971
-50.1847
-49.9744
-51.2761
-54.9219
-49.8783
-51.0155
-51.9327
-55.0507
-42.9428
-42.0091
-42.5392
-41.4439
-43.5719
-43.4429
-42.773
-41.725
-52.295
-50.6696
-60.971
-59.133
-54.9636
-59.1896
-51.4692
-55.5054
-47.8516
-45.8342
-47.831
-45.816
-49.1909
-49.2034
-45.207
-45.1968
-46.2746
-45.7571
-50.4455
-49.6219
-47.2061
-49.1708
-46.7083
-48.5308
-44.8488
-46.4628
-44.8412
-46.4557
-44.2604
-44.2647
-47.7269
-47.7232
-69.2344
-81.0512
-63.4184
-70.4787
-62.6232
-65.4314
-89.7944
-80.7069
-21.8086
-42.9556
-21.8535
-42.7367
-11.1936
-11.2198
-52.3748
-52.3224
-73.8763
-68.678
-73.8642
-68.6616
-77.653
-77.6489
-66.7357
-66.7295
-42.9567
-42.0015
-42.5136
-41.4114
-43.5647
-43.4243
-42.7506
-41.6999
-52.2592
-50.6344
-60.9037
-59.0673
-59.1337
-54.9206
-51.4313
-55.4501
-46.2425
-45.7214
-50.4032
-49.5894
-49.1283
-47.174
-46.6649
-48.4874
-69.1356
-81.0632
-63.3432
-70.4317
-65.3563
-62.5501
-80.7368
-89.8281
-77.3385
-78.6725
-70.8426
-65.7453
-69.9129
-76.3975
-63.725
-65.8468
-77.2727
-78.6122
-70.7754
-65.7036
-76.3033
-69.8473
-65.7797
-63.6455
-69.6629
-69.6434
-65.782
-59.8915
-65.6697
-59.8621
-57.7264
-57.7432
2.16992
2.2293
11.1913
24.747
24.8837
11.3287
23.2146
23.2778
187.772
197.735
177.849
178.343