# vtk DataFile Version 2.0
tet_velo
ASCII
DATASET UNSTRUCTURED_GRID
POINTS 29498 float
-0.69971 0.105 -1.775
-0.807421 0.165 1.575
-0.665 0.635 -1.72602
-0.625 0.90853 1.685
0.705 0.105 -1.76938
0.805176 0.145 1.555
0.665 0.635 -1.726
0.616337 0.895 1.705
-0.737914 0.1227 -0.658333
-0.785034 0.131483 0.458333
-0.747089 0.821599 -0.589013
-0.709026 0.888046 0.547993
0.737526 0.119199 -0.661253
0.764096 0.139354 0.446873
0.747601 0.820488 -0.582333
0.708175 0.883951 0.561333
-1.42894 -0.289872 -2.71749
-1.4311 -0.225141 -1.81534
-1.46226 -0.207481 -0.700451
-1.49327 -0.214332 0.409391
-1.50532 -0.197221 1.5238
-1.51195 -0.170882 2.42368
-1.5188 -0.139048 3.3272
-1.42568 0.0193656 -2.68398
-1.42715 0.102313 -1.77914
-1.46616 0.141128 -0.659041
-1.48988 0.147365 0.458906
-1.49197 0.170839 1.57858
-1.50759 0.196369 2.47958
-1.51971 0.226444 3.38253
-1.41226 0.612082 -2.62438
-1.40692 0.692684 -1.7209
-1.46111 0.831289 -0.586532
-1.43069 0.889901 0.549128
-1.3764 0.914924 1.68383
-1.44761 0.938143 2.5901
-1.49918 0.964894 3.49301
-1.41078 1.61771 -2.51468
-1.4131 1.71083 -1.60748
-1.43339 1.85391 -0.463539
-1.43834 1.96092 0.6859
-1.43594 2.01677 1.83108
-1.45583 2.04515 2.74087
-1.48736 2.07128 3.64574
-0.713725 -0.289632 -2.71418
-0.703988 -0.222501 -1.81164
-0.727903 -0.216187 -0.700242
-0.759476 -0.226344 0.405586
-0.772857 -0.208165 1.51697
-0.787033 -0.180782 2.41962
-0.796647 -0.147683 3.32533
-0.716005 0.0132844 -2.68189
-0.802553 0.187677 2.47836
-0.8063 0.218212 3.38217
-0.704977 0.58588 -2.62623
-0.755719 0.931145 2.59451
-0.797846 0.95816 3.49601
-0.694074 1.59952 -2.51605
-0.691378 1.69367 -1.60886
-0.712025 1.84763 -0.462907
-0.726976 1.96074 0.689568
-0.733699 2.0154 1.83657
-0.754431 2.0423 2.74617
-0.782788 2.06777 3.65011
0.707815 -0.290373 -2.7106
0.724566 -0.223386 -1.80822
0.746764 -0.217978 -0.702246
0.768612 -0.223729 0.396962
0.787362 -0.219144 1.50368
0.717382 -0.191467 2.4128
0.672027 -0.156086 3.32313
0.69106 0.0128072 -2.6781
0.684231 0.174876 2.47302
0.648538 0.209042 3.38131
0.680326 0.585441 -2.62366
0.6186 0.919847 2.60167
0.6172 0.949302 3.49977
0.72809 1.59829 -2.51235
0.737313 1.69229 -1.60461
0.729635 1.84549 -0.456965
0.696512 1.95704 0.697643
0.661347 2.00971 1.84557
0.641341 2.03587 2.75395
0.626079 2.06142 3.65612
1.42688 -0.291702 -2.71085
1.44466 -0.227348 -1.80945
1.47695 -0.210338 -0.700954
1.50407 -0.214457 0.400483
1.5136 -0.21147 1.50981
1.45866 -0.18809 2.41515
1.40966 -0.154245 3.32427
1.41013 0.0179087 -2.67686
1.42862 0.100706 -1.77142
1.46882 0.13737 -0.65722
1.48651 0.148281 0.453318
1.4896 0.153026 1.5677
1.42722 0.176631 2.47436
1.38465 0.210044 3.38199
1.39755 0.610713 -2.61808
1.40743 0.691419 -1.71422
1.46401 0.827786 -0.57627
1.43252 0.884041 0.563637
1.36377 0.898537 1.70116
1.348 0.919662 2.60087
1.34174 0.948842 3.49998
1.44121 1.61509 -2.50711
1.45072 1.70785 -1.59888
1.44881 1.84954 -0.452234
1.415 1.95383 0.700489
1.37292 2.00625 1.84701
1.35153 2.03314 2.75495
1.33903 2.05918 3.65703
-0.726308 0.37 -1.79446
0.00264499 0.0848277 -1.79236
-0.745396 0.0872656 -1.21667
-0.75185 0.536765 1.66564
-0.0011225 0.162865 1.55714
-0.801013 0.143456 1.01667
0 0.680902 -1.77191
-0.737683 0.759938 -1.15752
-0.0043315 0.950102 1.74334
-0.681461 0.912736 1.1165
0.728518 0.37 -1.79121
0.746086 0.0872763 -1.21532
0.752209 0.52 1.67145
0.785093 0.14172 1.00094
0.73838 0.759824 -1.15417
0.679916 0.907135 1.13317
-0.757329 0.131236 -0.1
-0.830592 0.47215 -0.623673
-0.000193572 0.0980594 -0.659793
-0.830491 0.509765 0.503163
-0.0104688 0.122075 0.452603
-0.726849 0.853613 -0.02051
0.000255697 1.06935 -0.585673
-0.00042559 1.2971 0.554663
0.750421 0.129667 -0.10719
0.828712 0.469844 -0.621793
0.828013 0.511652 0.504103
0.727548 0.85188 -0.0105
-0.896794 0.421075 -1.18709
-0.834319 0.490957 -0.060255
-0.88662 0.523265 1.06658
0.00122571 0.0845275 -1.21599
-0.0053312 0.11768 -0.103595
-0.00579566 0.151876 1.0088
0.00132249 0.37 -1.95898
-0.002727 0.528382 1.90109
0.000127848 0.825497 -1.15584
-8.49466e-05 1.27698 -0.015505
-0.00237854 1.25019 1.12483
0.896775 0.419922 -1.18474
0.831434 0.490748 -0.058845
0.888336 0.515826 1.06705
-1.06343 0.103656 -1.77707
-0.701849 -0.0587503 -1.79332
-0.707858 0.0591422 -2.22844
-1.1497 0.167919 1.57679
-0.790139 -0.0215825 1.54599
-0.804987 0.176338 2.02668
-1.03596 0.663842 -1.72346
-0.684988 0.61044 -2.17612
-0.678189 1.16433 -1.66744
-1.0007 0.911727 1.68441
-0.69036 0.919837 2.13975
-0.679349 1.46196 1.76079
0.714783 -0.0591931 -1.7888
0.69803 0.0589036 -2.22374
1.06681 0.102853 -1.7704
0.796269 -0.0370718 1.52934
0.744704 0.159938 2.01401
1.14739 0.149013 1.56135
0.672663 0.610221 -2.17483
0.701156 1.16364 -1.66531
1.03621 0.66321 -1.72011
0.617469 0.907424 2.15334
0.638842 1.45235 1.77529
0.990052 0.896769 1.70308
-1.10204 0.131914 -0.658687
-0.732908 -0.0467435 -0.679288
-1.13746 0.139424 0.45862
-0.772255 -0.0474304 0.43196
-1.1041 0.826444 -0.587773
-0.729557 1.33462 -0.52596
-1.06986 0.888974 0.548561
-0.718001 1.42439 0.618781
0.742145 -0.0493895 -0.68175
1.10317 0.128285 -0.659237
0.766354 -0.0421874 0.421918
1.12531 0.143818 0.450096
0.738618 1.33299 -0.519649
1.10581 0.824137 -0.579302
0.702344 1.4205 0.629488
1.07035 0.883996 0.562485
-1.43002 -0.257507 -2.26642
-1.42731 -0.135253 -2.70074
-1.07133 -0.289752 -2.71584
-1.44668 -0.216311 -1.2579
-1.42913 -0.0614143 -1.79724
-1.06755 -0.223821 -1.81349
-1.47776 -0.210907 -0.14553
-1.46421 -0.0331765 -0.679746
-1.09508 -0.211834 -0.700347
-1.49929 -0.205777 0.966597
-1.49157 -0.0334838 0.434148
-1.12637 -0.220338 0.407488
-1.50863 -0.184052 1.97374
-1.49865 -0.0131912 1.55119
-1.13909 -0.202693 1.52039
-1.51537 -0.154965 2.87544
-1.50977 0.0127436 2.45163
-1.14949 -0.175832 2.42165
-1.51925 0.043698 3.35486
-1.15772 -0.143365 3.32626
-1.42642 0.0608393 -2.23156
-1.41897 0.315724 -2.65418
-1.07084 0.016325 -2.68293
-1.44666 0.121721 -1.21909
-1.41703 0.397498 -1.75002
-1.47802 0.144246 -0.100068
-1.46363 0.486209 -0.622786
-1.49093 0.159102 1.01874
-1.46028 0.518633 0.504017
-1.49978 0.183604 2.02908
-1.43419 0.542881 1.6312
-1.51365 0.211406 2.93105
-1.4776 0.567256 2.53484
-1.15507 0.192023 2.47897
-1.50945 0.595669 3.43777
-1.163 0.222328 3.38235
-1.40959 0.652383 -2.17264
-1.41152 1.1149 -2.56953
-1.05862 0.598981 -2.6253
-1.43401 0.761986 -1.15371
-1.41001 1.20176 -1.66419
-1.4459 0.860595 -0.0187018
-1.44725 1.3426 -0.525035
-1.40355 0.902413 1.11648
-1.43452 1.42541 0.617514
-1.412 0.926534 2.13696
-1.40617 1.46585 1.75745
-1.47339 0.951519 3.04155
-1.45172 1.49165 2.66549
-1.10166 0.934644 2.59231
-1.49327 1.51809 3.56937
-1.14851 0.961527 3.49451
-1.41194 1.66427 -2.06108
-1.05243 1.60861 -2.51537
-1.42325 1.78237 -1.03551
-1.05224 1.70225 -1.60817
-1.43587 1.90742 0.111181
-1.07271 1.85077 -0.463223
-1.43714 1.98884 1.25849
-1.08266 1.96083 0.687734
-1.44588 2.03096 2.28598
-1.08482 2.01608 1.83383
-1.47159 2.05821 3.1933
-1.10513 2.04372 2.74352
-1.13507 2.06952 3.64792
-0.708857 -0.256066 -2.26291
-0.714865 -0.138174 -2.69803
-0.00295505 -0.290002 -2.71239
-0.715946 -0.219344 -1.25594
0.010289 -0.222943 -1.80993
-0.74369 -0.221266 -0.147328
0.00943055 -0.217083 -0.701244
-0.766167 -0.217255 0.961278
0.00456799 -0.225037 0.401274
-0.779945 -0.194473 1.96829
0.00725259 -0.213654 1.51033
-0.79184 -0.164232 2.87247
-0.794793 0.00344743 2.44899
-0.0348257 -0.186124 2.41621
-0.801473 0.0352646 3.35375
-0.0623097 -0.151884 3.32423
-0.710491 0.299582 -2.65406
-0.0124728 0.0130458 -2.68
-0.804426 0.202944 2.93027
-0.779136 0.559411 2.53644
-0.059161 0.181276 2.47569
-0.802073 0.588186 3.43909
-0.0788808 0.213627 3.38174
-0.699526 1.0927 -2.57114
-0.0123255 0.58566 -2.62494
-0.776783 0.944652 3.04526
-0.755075 1.48672 2.67034
-0.0685595 0.925496 2.59809
-0.790317 1.51296 3.57306
-0.0903235 0.953731 3.49789
-0.692726 1.64659 -2.06245
0.0170077 1.5989 -2.5142
-0.701701 1.77065 -1.03588
0.0229676 1.69298 -1.60673
-0.719501 1.90419 0.113331
0.00880509 1.84656 -0.459936
-0.730338 1.98807 1.26307
-0.015232 1.95889 0.693606
-0.744065 2.02885 2.29137
-0.0361761 2.01255 1.84107
-0.768609 2.05503 3.19814
-0.0565447 2.03908 2.75006
-0.0783543 2.06459 3.65311
0.716191 -0.256879 -2.25941
0.699437 -0.138783 -2.69435
1.06735 -0.291038 -2.71072
0.735665 -0.220682 -1.25523
1.08461 -0.225367 -1.80883
0.757688 -0.220853 -0.152642
1.11186 -0.214158 -0.7016
0.777987 -0.221436 0.950323
1.13634 -0.219093 0.398722
0.752372 -0.205305 1.95824
1.15048 -0.215307 1.50675
0.694705 -0.173776 2.86796
0.700807 -0.00829529 2.44291
1.08802 -0.189778 2.41397
0.660283 0.0264778 3.35222
1.04084 -0.155165 3.3237
0.685693 0.299124 -2.65088
1.05059 0.0153579 -2.67748
0.666385 0.191959 2.92717
0.651416 0.547362 2.53735
1.05572 0.175754 2.47369
0.632869 0.579172 3.44054
1.0166 0.209543 3.38165
0.704208 1.09187 -2.56801
1.03894 0.598077 -2.62087
0.6179 0.934575 3.05072
0.629971 1.47786 2.67781
0.9833 0.919755 2.60127
0.621639 1.50536 3.57794
0.979468 0.949072 3.49987
0.732701 1.64529 -2.05848
1.08465 1.60669 -2.50973
0.733474 1.76889 -1.03079
1.09402 1.70007 -1.60175
0.713074 1.90127 0.120339
1.08922 1.84751 -0.454599
0.678929 1.98337 1.27161
1.05576 1.95544 0.699066
0.651344 2.02279 2.29976
1.01714 2.00798 1.84629
0.63371 2.04864 3.20503
0.996438 2.0345 2.75445
0.982554 2.0603 3.65657
1.43577 -0.259525 -2.26015
1.4185 -0.136897 -2.69385
1.46081 -0.218843 -1.2552
1.43664 -0.0633212 -1.79043
1.49051 -0.212397 -0.150236
1.47289 -0.0364837 -0.679087
1.50884 -0.212963 0.955147
1.49529 -0.0330878 0.4269
1.48613 -0.19978 1.96248
1.5016 -0.0292219 1.53876
1.43416 -0.171167 2.86971
1.44294 -0.00572945 2.44476
1.39716 0.0278999 3.35313
1.41938 0.0593071 -2.22414
1.40384 0.314311 -2.64747
1.44872 0.119038 -1.21432
1.41803 0.396062 -1.74282
1.47767 0.142826 -0.101951
1.46642 0.482578 -0.616745
1.48806 0.150654 1.01051
1.45952 0.516161 0.508478
1.45841 0.164829 2.02103
1.42669 0.525782 1.63443
1.40593 0.193338 2.92818
1.38761 0.548147 2.53762
1.3632 0.579443 3.44098
1.40249 0.651066 -2.16615
1.41938 1.1129 -2.5626
[...]
POINT_DATA 29498
VECTORS point_vectors float
-1.90081 -4.15805 7.19906
0.287233 0.22477 1.44923
-2.43223 1.71916 4.15226
-0.0776551 -0.186918 0.1889
2.07351 -4.40931 7.49724
-0.0534853 0.243822 2.58112
2.47651 1.76034 4.20795
0.0597429 -0.130818 0.0779068
-0.00860543 0.0142949 0.145084
0.0692664 0.00864073 1.68764
0.00728762 0.00544413 0.115669
0 0 0
0.0128741 0.0168873 0.197656
-0.0272254 0.00104828 0.304742
-0.00511714 0.00338542 0.0902162
-0.0022178 0.00366979 0.00863031
-0.682193 -0.379775 19.8476
-1.34087 -0.896761 20.5172
-0.416233 -0.467978 21.4708
0.089757 -0.191683 21.4452
0.521376 0.0391463 21.5036
0.846336 0.159691 21.2853
0.958707 0.101692 21.0528
-0.891376 -0.311547 19.7006
-1.97965 -0.774736 20.4643
-0.586942 -0.610775 21.5551
0.00685856 -0.406065 21.5102
0.626606 -0.195791 21.6159
0.993505 -0.136017 21.2895
1.08003 -0.076698 21.0141
-1.03666 0.10428 19.5656
-2.34884 0.291206 20.3165
-1.36983 -0.364865 21.4618
-0.505926 -0.484549 21.6539
0.297833 -0.718153 21.6179
0.698237 -0.747839 21.3321
0.890275 -0.750664 20.7731
-0.643254 0.487899 19.9157
-0.971697 0.704907 20.3671
-0.918697 0.499357 21.0767
-0.443455 0.0769232 21.3636
-0.0934656 -0.222455 21.3004
0.0931515 -0.382251 21.1458
0.0839325 -0.315816 21.0121
-0.707134 -0.863154 19.2103
-1.81814 -3.61979 20.7897
-0.267111 -0.138161 21.9872
0.174595 0.197199 21.1963
0.518214 0.749974 21.0183
0.953249 1.28527 20.7539
1.27276 1.18502 20.2377
-1.00439 -0.781764 18.6605
1.65687 1.12004 12.3616
2.30812 1.34837 15.0374
-1.29164 0.242377 18.0914
0.376104 -0.971343 9.1086
1.0836 -1.26559 12.945
-0.544617 0.920276 19.4907
-0.966061 1.70613 20.0426
-1.16649 1.56994 21.1735
-0.513031 0.444649 21.6967
-0.174473 -0.145836 21.4229
-0.00701134 -0.413996 21.2357
0.0519815 -0.57821 21.1946
0.704606 -0.872836 19.2015
1.83522 -3.50731 20.7724
0.259376 -0.147819 22.0392
-0.191836 0.208564 21.1531
-0.525148 0.722235 21.3007
-0.807984 1.35283 20.6249
-1.00866 1.52917 19.6719
0.988478 -0.793557 18.6174
-1.22073 1.21236 9.73377
-1.9437 1.66699 13.6752
1.26204 0.258198 18.0234
0.251235 -1.16803 2.86371
-0.866636 -1.12199 6.83742
0.564457 0.900078 19.5108
1.03053 1.63449 20.0729
1.17799 1.53532 21.1791
0.50966 0.453848 21.7131
0.180328 -0.128954 21.4195
0.0213812 -0.385086 21.1984
0.0154108 -0.581875 21.2071
0.692372 -0.387402 19.8443
1.32684 -0.876551 20.5235
0.420787 -0.458909 21.4563
-0.0814698 -0.191451 21.4392
-0.515121 0.0366779 21.5127
-0.897218 0.19958 21.3127
-1.03422 0.249259 20.9439
0.898025 -0.32062 19.693
1.97512 -0.779299 20.4863
0.581527 -0.602424 21.5522
-0.00815409 -0.409319 21.51
-0.616626 -0.181633 21.6129
-1.12007 -0.0986672 21.2815
-1.22346 -0.123127 21.2711
1.06579 0.108218 19.5402
2.35027 0.281595 20.3315
1.33681 -0.37506 21.4658
0.484383 -0.485675 21.6489
-0.340069 -0.745005 21.6073
-0.733338 -0.877264 21.4277
-0.952169 -0.907567 20.7909
0.644632 0.475141 19.9405
0.966022 0.666932 20.3886
0.910446 0.477382 21.0823
0.448009 0.0776785 21.3783
0.107677 -0.235438 21.3132
-0.068281 -0.389303 21.1132
-0.0814319 -0.371509 21.1419
-0.979121 0.0166982 1.24184
0.000239844 -0.0775277 0.592799
-0.0253606 0.0109492 0.249834
-0.00780344 -0.059921 0.0390895
-0.000410881 0.00176239 0.0457464
0.0106525 0.00928635 0.543886
-0.00240143 0.317401 0.602935
-0.572879 -0.261311 1.29717
0 0 0
0.00128904 0.00143637 0.0125603
1.21441 0.0232664 1.51247
0.0260884 0.0114731 0.256861
-0.00131479 -0.0472958 0.048779
-0.0319576 -0.00110877 0.699093
0.580176 -0.267321 1.31735
0 0 0
0 0 0
0.000223037 9.64494e-05 0.00890506
4.36649e-05 6.0577e-06 0.00525163
3.99448e-05 0.000495335 0.00186242
0.0019095 0.000436555 0.0395856
0 0 0
3.7105e-06 0.00329373 0.00656828
-2.56128e-06 4.92921e-05 0.00772866
-0.0302572 -0.00423096 0.352202
-0.00030097 7.96758e-05 0.00886315
-0.000198601 0.00184638 0.00616262
0 0 0
-2.48617e-05 -8.44466e-05 0.00141502
1.63782e-05 0.000344693 0.00145819
-0.00114533 0.00478275 0.0616027
9.60163e-05 0.000111542 0.00327394
7.03548e-05 2.27517e-05 0.00197045
0 0 0
0 0 0
-8.27971e-05 -0.134169 0.0565545
7.86095e-05 0.000475781 0.00233056
-8.82095e-05 0.0274105 0.167382
0 0 0
1.06236e-05 -3.70315e-05 0.000595803
-3.91804e-05 0.00087027 0.00373221
0 0 0
-3.94627 -2.22712 20.1133
-2.8242 -5.82203 21.1974
-2.54391 -2.28935 17.2693
1.11143 0.0765419 20.3579
0.646386 0.885172 16.3556
1.18179 1.04203 9.35919
-4.6015 1.29153 19.7555
-3.28559 1.56684 16.1869
-2.16823 2.97069 19.6393
0.559174 -0.770807 18.1945
-0.688307 -1.01781 4.10705
-0.287067 -0.342241 19.2552
2.89183 -5.681 21.1471
2.553 -2.35382 17.2238
3.92884 -2.21648 20.159
-0.695176 0.823468 17.0606
-0.800999 0.969835 7.49264
-1.08988 0.0902586 20.5023
3.29277 1.6148 16.0901
2.19141 2.87605 19.6757
4.61841 1.2619 19.7794
1.05804 -0.975695 1.46102
0.271612 -0.304534 18.7236
-0.630616 -0.753427 17.6509
0.150702 -0.72491 20.2398
-0.171282 0.469559 15.1457
0.353678 -0.404883 20.0399
0.442687 0.245963 15.7503
-2.28623 -1.00414 21.8094
-3.3182 2.31982 21.3195
-0.664001 -0.770011 20.3354
-1.18212 0.343189 21.6535
0.169161 0.465901 15.5098
-0.152002 -0.719061 20.3545
-0.465016 0.265791 15.4
-0.371895 -0.387129 19.7237
3.32975 2.23855 21.3513
2.25713 -1.04126 21.7717
1.14208 0.345223 21.3867
0.642429 -0.776621 20.3733
-1.05612 -0.643558 20.011
-0.788139 -0.354417 19.779
-0.777576 -0.618314 19.5557
-0.965227 -0.776767 21.2826
-1.65589 -0.901879 20.4945
-1.83488 -1.87938 20.5201
-0.0887095 -0.291805 21.446
-0.508484 -0.55343 21.5088
-0.200922 -0.460621 21.7998
0.261425 -0.100058 21.516
0.0394434 -0.309857 21.4632
0.246197 -0.121607 21.5389
0.709902 0.109658 21.4122
0.552332 -0.0617732 21.5626
0.696202 0.284798 21.6475
0.936459 0.190234 21.1932
0.897305 0.0674093 21.24
1.12519 0.58951 21.3387
1.05705 0.0048027 21.0516
1.33624 0.65058 20.7058
-1.4823 -0.530469 19.8326
-1.02102 -0.142877 19.5743
-1.04001 -0.531854 19.2564
-1.39775 -0.77912 21.4352
-2.37068 -0.348791 20.3807
-0.204822 -0.506238 21.5015
-0.933982 -0.651691 21.5409
0.222783 -0.32363 21.6103
-0.21286 -0.558677 21.5978
0.872588 -0.135819 21.4702
0.61405 -0.515653 21.6673
1.17757 -0.102536 21.1507
0.919271 -0.532434 21.3319
1.67065 0.198331 20.3936
1.00711 -0.549991 21.311
1.61558 0.220251 20.3274
-1.74399 0.21235 19.6704
-0.903206 0.397411 19.6995
-1.28407 0.162183 18.9261
-1.92811 -0.0694155 21.2318
-1.59971 0.706771 20.3125
-0.917222 -0.492628 21.6038
-1.35206 0.259446 21.2445
-0.125702 -0.52506 21.7297
-0.600123 -0.126964 21.5689
0.495391 -0.740959 21.4695
-0.0542543 -0.439443 21.4412
0.812348 -0.784696 21.3134
0.209773 -0.599012 21.231
0.763794 -1.09387 20.6602
0.314922 -0.573996 21.1219
0.954943 -1.1329 20.7379
-0.836165 0.632627 20.091
-0.667532 0.700078 19.6972
-1.01156 0.668043 20.7312
-1.10142 1.16226 20.2355
-0.695951 0.278353 21.3174
-1.13101 0.923869 21.1392
-0.244297 -0.100999 21.3665
-0.519763 0.217495 21.5253
0.00503567 -0.307757 21.2504
-0.157223 -0.217849 21.3425
0.168366 -0.413185 21.1207
0.0224121 -0.428558 21.1995
0.120014 -0.498651 21.2645
-1.30552 -1.98631 19.1115
-0.835922 -0.879276 18.9128
-0.0075794 -1.21421 18.7972
-0.745398 -1.43159 22.754
0.041669 -5.31709 21.3004
-0.00545608 0.127322 21.2933
0.0199327 -0.60937 20.0069
0.340858 0.289494 21.0718
0.0157316 0.0300355 18.3437
0.736512 1.15418 20.7673
0.0145051 0.538087 18.0378
1.18458 1.39865 20.4482
1.26608 1.53711 17.6572
0.0361062 1.17397 17.9848
1.80229 1.28912 17.6397
0.0993138 1.59122 17.7439
-1.1763 -0.344842 18.2371
-0.0220466 -1.15638 17.8864
2.08484 1.29974 14.1548
1.32052 -0.637665 7.57391
0.0336666 0.419458 4.08011
2.36871 -0.222412 12.9822
0.151687 2.04839 7.57392
-0.913826 0.963076 18.8028
-0.0257572 0.474994 17.0654
0.749783 -1.03749 11.1309
-0.103273 -0.818081 20.4525
-0.0511079 1.55988 -4.75958
0.230455 -1.08321 19.9247
0.395074 1.47203 -5.67135
-0.781828 1.40785 19.6639
0.0168578 1.21054 19.2469
-1.1251 1.73818 20.5489
0.0386942 2.25957 19.848
-0.872659 1.02358 21.6436
0.0250332 2.59611 21.1339
-0.290325 0.0646812 21.5847
-0.0174228 0.787088 21.8686
-0.10044 -0.298437 21.3774
-0.0230134 0.0274046 21.3725
0.023761 -0.502238 21.1471
-0.00359642 -0.267627 21.1985
-0.0343777 -0.479949 21.3912
1.31895 -1.97292 19.1324
0.82837 -0.89895 18.887
0.77919 -0.61986 19.5608
0.749068 -1.41387 22.6716
1.81315 -1.81962 20.5284
-0.00430239 0.126319 21.3583
0.206342 -0.463331 21.78
-0.3547 0.286565 21.1944
-0.252098 -0.130154 21.543
-0.671604 1.15512 20.7929
-0.667844 0.265931 21.6586
-0.963868 1.5198 19.7235
-1.00938 1.52795 16.4218
-1.09945 0.692691 21.338
-1.50931 1.66294 17.0488
-1.30399 0.728971 20.7119
1.16123 -0.354628 18.1933
1.05096 -0.552839 19.2312
-1.70901 1.56233 12.1265
-0.935938 -0.505077 4.10814
-1.78586 0.522206 18.9891
-2.54204 0.31568 9.20784
-1.89181 0.718377 18.2649
0.921376 0.962294 18.8115
1.2918 0.169099 18.8996
-0.448211 -0.958064 4.93045
0.126198 -0.756782 18.737
-0.889427 -1.03449 18.3438
-0.144988 -1.05663 19.0868
-1.23603 -1.33449 18.4228
0.819559 1.36139 19.6912
0.679747 0.687556 19.7125
1.16803 1.68475 20.5687
1.11525 1.11958 20.2565
0.872719 1.0189 21.6533
1.12843 0.898319 21.1464
0.289455 0.0792309 21.5906
0.525552 0.22762 21.5375
0.11223 -0.276511 21.388
0.169547 -0.213474 21.3598
0.0120149 -0.482192 21.0649
-0.00598828 -0.457362 21.2602
-0.122836 -0.571033 21.2623
1.06167 -0.642247 20.0181
0.801941 -0.361976 19.7719
0.954627 -0.757122 21.2701
1.63358 -0.888273 20.5124
0.0889578 -0.284959 21.4418
0.509215 -0.543995 21.5002
-0.251277 -0.101638 21.5028
-0.0359134 -0.310445 21.4599
-0.717119 0.13236 21.4208
-0.535956 -0.0556786 21.5569
-0.978322 0.278299 21.215
-0.972747 0.152532 21.2681
-1.14153 0.146865 20.9833
1.49741 -0.542813 19.834
1.04497 -0.15228 19.5539
1.37958 -0.770682 21.4397
2.37547 -0.349654 20.397
0.200194 -0.503034 21.5006
0.918873 -0.648261 21.5363
-0.217967 -0.323793 21.6089
0.210323 -0.556461 21.5899
-0.913815 -0.110176 21.493
-0.642375 -0.506698 21.6727
-1.34455 -0.0532631 21.1525
-1.14612 -0.576341 21.3557
-1.18892 -0.548529 21.2246
1.75918 0.214046 19.6731
0.901759 0.399441 19.7104
1.90884 -0.0845483 21.2417
1.58386 0.702174 20.3267
0.890563 -0.497553 21.6016
1.33137 0.236682 21.2506
0.104928 -0.535085 21.7349
0.599968 -0.13566 21.5805
-0.531519 -0.824752 21.4497
0.0535504 -0.467741 21.4594
-0.902498 -0.871541 21.1182
-0.229715 -0.677689 21.2618
-0.338799 -0.738193 21.1356
0.838025 0.613593 20.1035
1.0045 0.636915 20.7429
0.69615 0.273527 21.3251
0.252033 -0.103535 21.3873
0.00627041 -0.327156 21.2595
-0.135136 -0.417208 21.039
-1.26592 -0.635614 19.9326
-1.84032 -2.29744 18.3949
-1.33863 -1.16375 19.633
-2.11446 -1.10849 19.061
-0.937257 -0.58274 19.3687
-2.69329 -2.22315 20.3951
-1.19007 -0.805994 21.3677
-0.432102 -0.593367 18.4695
-1.00338 -1.27255 21.8099
-1.68027 -1.71304 22.6394
-0.00383353 -0.547498 21.801
-0.156875 -0.405028 21.4536
0.227512 0.304715 14.9392
0.105496 -0.211256 21.5887
0.308469 -0.542315 19.9644
0.362984 -0.238171 21.184
0.246952 -0.213433 21.543
0.627205 0.184913 15.8511
0.388125 -0.0214019 21.6044
0.396726 -0.313088 20.2735
0.945845 0.232948 21.3243
0.781537 0.0110416 21.4239
1.00041 1.40457 16.7942
0.950874 0.497088 21.5189
1.49683 0.161535 20.4692
1.43785 0.451054 20.9912
1.06774 0.047235 21.1304
1.58308 1.56573 18.1741
1.24151 0.639106 21.0091
1.77632 0.243575 20.4744
1.47957 0.533847 20.7746
-1.72791 -0.236436 19.6779
-3.39846 -0.565219 15.9022
-2.64479 0.624274 18.5508
-1.23653 -0.251279 19.0149
-5.28347 -0.477078 19.6777
-1.75712 -0.545899 21.4534
-3.42928 -0.00537831 21.9661
-0.58811 -1.4277 20.292
-0.497189 -0.642865 21.5851
-1.4281 -1.15674 21.2106
0.048964 -0.587507 18.4007
0.0973932 -0.49831 21.6949
-0.00894087 -0.402147 19.2955
1.21206 -0.148306 17.3355
0.845611 -0.532395 21.4785
0.261736 -1.24019 3.46951
0.506577 -1.03273 19.1426
1.62732 -0.569752 19.3415
1.11296 -0.563706 21.1203
2.06526 -0.314869 10.4049
0.999399 -1.03144 20.6156
1.71126 -0.407174 19.9308
-1.2707 0.593461 19.8842
-1.64012 2.07339 18.7295
-0.937194 0.994404 19.8701
-1.01422 0.660579 19.2723
-2.11411 1.56218 20.0388
-1.57432 0.518599 20.8704
-2.58958 2.45025 20.394
-1.18679 1.11555 20.6806
-2.16606 0.699193 21.4052
-0.997334 0.0374002 21.4927
-2.47862 1.11703 22.3501
-0.841395 0.582084 21.4491
-0.895121 -0.0126286 21.8503
-0.277938 -0.286501 21.5395
-0.528399 -0.112456 20.6251
-0.294648 -0.038184 21.4871
-0.23955 -0.531745 21.5814
0.0918365 -0.522375 21.3569
-0.269144 -0.523817 19.7902
-0.0569498 -0.33441 21.2874
0.0901707 -0.756363 21.3765
0.32559 -0.596501 21.059
0.107967 -1.07438 20.3613
0.0968758 -0.443892 20.9333
0.340495 -0.969305 21.1471
1.84409 -2.31889 18.3993
0.0103928 -3.07273 18.4515
-0.0182435 -3.86396 15.3665
-0.0152379 -1.21968 18.369
0.0450537 -8.21857 22.4114
0.436457 -0.631781 18.6897
0.0356368 -1.99231 22.3765
0.0060673 -0.0487617 8.24214
-0.222083 0.308764 14.9447
0.0109337 -0.157658 18.6627
0.0608279 0.0804085 8.49817
-0.668657 0.175232 16.0839
0.0229837 0.231236 17.9977
0.00285987 0.422413 10.0012
-0.864346 1.43532 16.7502
0.00978113 0.894582 17.8259
-0.024722 0.0480653 2.08637
0.027146 0.945292 11.049
-1.28496 1.72245 17.1193
0.043644 1.47964 17.5356
0.0549785 1.00006 5.38086
0.122554 1.83118 12.7996
3.4203 -0.574169 15.7689
-0.0325848 3.04727 13.2944
-0.0240037 -0.506838 17.1447
0.0916528 -1.34106 1.85062
-0.11173 0.434487 -3.43882
0.0579209 0.54718 -1.55657
-1.91864 -0.0426749 6.2338
0.169737 2.24011 -6.21048
0.436687 0.939078 -1.12828
1.65978 2.04578 18.7561
0.0213188 1.86655 19.4136
0.00154908 1.37798 18.2383
0.0459808 4.28097 19.238
2.61461 2.37989 20.4271
0.0481275 2.58092 20.3153
0.0344231 5.71183 20.5258
2.48157 1.11263 22.3615
-0.00193153 1.72299 21.8875
-0.0118462 1.1185 20.3758
0.434842 -0.0857913 19.877
-0.0207636 0.28643 21.6855
-0.018155 0.195557 12.6395
0.24462 -0.4532 18.8348
-0.021058 -0.129929 21.5007
-0.254626 -0.0424442 12.458
0.13514 -1.01595 19.8648
0.0016841 -0.428609 20.9897
-0.0202516 -0.657284 14.3425
1.27471 -0.638762 19.9378
1.34327 -1.15641 19.6494
2.15411 -1.14316 19.0345
0.945712 -0.594063 19.3607
2.64991 -2.16811 20.4317
1.17146 -0.786974 21.3544
1.00221 -1.23893 21.787
1.66375 -1.69723 22.6481
0.0294428 -0.569591 21.9152
0.155861 -0.398953 21.4499
-0.101376 -0.220092 21.5826
-0.322779 -0.51794 19.8051
-0.37259 -0.23957 21.1742
-0.238583 -0.212854 21.5288
-0.382112 -0.0321102 21.6048
-0.373441 -0.322602 20.0835
-0.909738 0.214773 21.3901
-0.801886 0.0449587 21.4459
-0.946147 0.528481 21.5268
-1.55406 0.349713 19.6712
-1.49321 0.689623 20.6829
-1.16675 0.12042 21.1756
-1.19467 0.795536 21.0477
-1.92613 0.546803 19.1323
-1.7037 0.850185 20.3387
1.75489 -0.234133 19.6779
2.68682 0.646399 18.5078
1.25228 -0.254027 18.969
5.27665 -0.489451 19.7323
1.7431 -0.550389 21.4551
3.38959 -0.046925 21.9825
0.563906 -1.4241 20.335
0.487254 -0.642481 21.5808
1.39282 -1.15533 21.1865
-0.0550039 -0.5628 18.269
-0.100441 -0.495783 21.705
-0.0379218 -0.389709 19.2032
-1.25552 -0.0994881 17.0837
-0.944975 -0.556286 21.4685
-0.569189 -0.932643 17.2309
-1.83021 -0.473107 17.4884
-1.32659 -0.560816 20.761
-1.16091 -1.00979 18.5825
-2.17361 -0.451044 17.3791
1.2674 0.585684 19.9026
0.939799 0.964923 19.8975
1.01794 0.656306 19.2784
2.09764 1.49036 20.067
1.55523 0.491604 20.8805
1.18655 1.07399 20.6895
2.1402 0.671409 21.4127
0.988548 0.0243377 21.4989
0.84451 0.580886 21.4564
0.901652 -0.0246429 21.8649
0.276176 -0.299838 21.5538
0.303195 -0.0348902 21.5081
0.265894 -0.560989 21.5605
-0.0838685 -0.563135 21.3865
0.078045 -0.339742 21.2983
-0.0469018 -0.826668 21.3029
-0.294299 -0.672148 21.1891
-0.0971681 -0.504121 21.0166
-0.353938 -1.12544 20.749
-1.69426 -1.19116 19.3601
-1.22352 -1.50923 22.2227
0.266907 -0.336349 21.3837
0.478746 -0.157819 21.2492
1.2843 0.425976 21.0726
1.45622 0.454259 20.9115
-2.69598 -0.36095 18.5735
-2.63546 -1.2051 22.6773
-0.158094 -1.12902 19.094
0.104782 -0.199738 18.473
1.39753 -0.492722 18.3934
1.77088 -0.564255 19.6988
-1.66852 1.20401 19.4033
-2.2272 1.14758 20.8207
-1.5714 0.279282 21.8364
-0.469201 -0.291559 21.754
-0.0869947 -0.637979 21.46
0.19843 -0.789296 21.4367
-0.00222231 -3.72307 17.2237
0.0233323 -0.713245 11.7124
0.00991814 0.0579956 7.85319
0.0313658 0.228566 9.06239
-0.00862309 0.722381 10.3161
0.0308044 1.41011 11.8572
-0.0278316 -1.11221 12.6325
-0.0761229 -0.902243 -0.199903
0.260815 1.13235 -1.8084
0.0172599 3.15196 18.0168
0.0390075 4.22198 19.4976
-0.00454599 3.41978 22.398
-0.00407047 0.20007 17.2881
-0.0618932 0.131144 12.7365
-0.00270204 -0.556376 14.0973
1.703 -1.20867 19.368
1.22905 -1.46136 22.173
-0.262876 -0.335851 21.3992
-0.470612 -0.167031 21.263
-1.28474 0.539145 20.8923
-1.65207 0.788584 20.4956
2.75422 -0.375994 18.5312
2.60334 -1.20117 22.7065
0.138468 -1.1275 19.0725
-0.0675046 -0.172503 18.3825
-1.50315 -0.313446 16.6567
-2.05639 -0.506476 18.0143
1.67457 1.18831 19.4199
2.20991 1.09197 20.8424
1.56833 0.259569 21.8479
0.484169 -0.311379 21.7742
0.157012 -0.668196 21.4718
-0.190121 -0.944441 21.0776
-1.31785 -0.523042 1.29254
0.0673545 -0.177443 1.85938
-0.00472261 0.00165075 0.0590606
0 0 0
-0.000780033 0.0278094 0.22364
-0.0173309 0.0433787 1.61189
-0.985471 0.318956 1.13831
-0.00589986 0.0390918 0.0578127
-0.194327 0.121206 0.88308
0.0113318 -0.0577445 0.0911378
-0.00902571 -0.000350121 -0.00211853
0.000133533 -0.00114201 0.0072327
-0.00143371 -0.336736 2.17998
1.34654 -0.539553 1.32149
0.00757459 0.00355768 0.095352
0 0 0
0 0 0
0.00423522 0.0372715 0.988051
0.0052439 0.0350386 0.0519989
0.977569 0.316032 1.12402
0.193943 0.119078 0.877992
0.019171 -0.000825525 -0.00430278
0.00367117 -0.0422259 0.0209638
-0.00165947 -0.0101655 0.0637017
-0.0144472 0.00946373 0.39339
0.0328577 0.000309133 0.486083
0 0 0
0.00905856 0.0012003 0.105172
0.150741 -0.107814 0.869443
0.0122071 0.00106516 0.197168
0 0 0
0.00978147 -0.000741516 0.0785627
-0.677298 -0.402473 1.2787
-0.00271711 -0.00464285 0.0685449
0 0 0
-0.00559328 0.00556892 0.0132703
0 0 0
0.0165336 0.047203 0.136776
0.00294742 0.00641019 0.0215891
0.00568132 0.000817355 0.067214
0.0139559 0.00910965 0.361597
-0.0131324 0.00314569 0.164926
-0.0325065 0.00295741 0.507587
0 0 0
-0.133803 -0.0991033 0.577703
0 0 0
-0.0306607 0.0121504 0.35275
0 0 0
0.570751 -0.45242 1.28389
0.00788279 0.00782726 0.018705
-0.000229285 0.00290161 0.0397519
-7.21026e-18 1.61327e-17 6.38117e-17
0 0 0
-0.00718714 0.0011013 0.0816053
-0.0219799 0.0641866 0.182178
0 0 0
-0.689332 -0.245319 1.56039
0 0 0
1.51363e-19 1.58091e-18 6.52051e-18
-1.36811e-19 1.24799e-16 -6.82887e-17
-9.95926e-06 -3.21735e-06 0.000723747
0.00723554 0.00103542 0.0584284
0.0163235 0.0285082 0.254567
0 0 0
0 0 0
0.000704055 -0.0888008 0.00144042
0 0 0
0.00519096 0.000251044 0.0630141
0 0 0
0.000148339 0.00429222 0.0191909
-0.00262597 -0.0034639 0.0233545
0 0 0
-0.00118944 -0.0280944 0.00218268
0.000505145 -0.00766778 0.0464401
0.00629661 0.0147082 0.0714938
0.0020961 -0.00121852 0.0310294
0 0 0
0.584643 -0.216225 1.37905
-0.00957669 0.00238122 0.0860901
1.24196e-05 -3.42641e-06 0.000864808
0.0710367 -0.104738 0.0501014
-0.000789478 0.00131022 0.0120764
0 0 0
7.61351e-05 0.000747838 0.0172003
0 0 0
0.00467826 -0.00607429 0.0401097
-0.00267679 -0.00133797 0.037434
-0.0178288 0.0486899 0.279392
0 0 0
0.0124285 0.00212876 0.100479
0.0170017 -0.0125148 0.190099
3.49922e-05 0.000547048 0.00289434
2.79996e-05 4.38114e-05 0.00807064
-3.98192e-05 0.000389601 0.0101756
0 0 0
0 0 0
0.000219397 0.000215545 0.00833963
0 0 0
0.0130978 0.0404894 0.138217
-0.0704251 0.0529804 0.669857
0 0 0
0.000163674 0.252106 0.700892
1.01251e-06 0.000365933 0.00784838
3.94518e-06 -1.29385e-05 0.000410351
-0.00183178 0.000309543 0.012771
0 0 0
-0.0196045 -0.0111696 0.236658
-2.26758e-05 0.000298776 0.00163749
0 0 0
0 0 0
0.0567926 0.0427513 0.53705
-0.00823586 0.0260985 0.0916154
-0.365167 -0.13383 1.01027
-0.16068 0.0424247 0.307641
0 0 0
-1.59643e-18 -7.36733e-18 1.13583e-17
0 0 0
0.00223654 0.00758917 0.0364417
0 0 0
0.0297851 0.0999168 0.305824
0 0 0
0.0222893 0.0729312 0.165951
0.000507945 0.00275553 0.0362129
0 0 0
0.000479638 -0.000590127 0.0600665
-0.000340092 -0.000657939 0.0703009
0.00638894 0.000992392 0.096064
-0.0117593 0.00311694 0.183741