# vtk DataFile Version 2.0
tet_velo
ASCII
DATASET UNSTRUCTURED_GRID
POINTS 29498 float
-0.665 0.225 -2.08594
-0.680298 0.285 2.085
-0.729417 0.695 -1.925
-0.675 0.985 1.98949
0.665 0.225 -2.08594
0.680262 0.285 2.085
0.72938 0.695 -1.925
0.675 0.985 1.98948
-0.71422 0.200879 -0.695627
-0.741919 0.19828 0.694687
-0.815725 0.896113 -0.62017
-0.789222 0.984416 0.68466
0.714208 0.200879 -0.695627
0.741897 0.198277 0.694687
0.815677 0.89609 -0.620173
0.789213 0.98442 0.684653
-1.41643 -0.167618 -3.19586
-1.41821 -0.10962 -2.11785
-1.45388 -0.12689 -0.725324
-1.46614 -0.146831 0.684404
-1.42636 -0.0955219 2.07838
-1.41595 -0.0482925 3.16349
-1.4228 -0.00572174 4.23546
-1.41769 0.131055 -3.14612
-1.42407 0.213603 -2.07745
-1.47255 0.222829 -0.701558
-1.47497 0.215686 0.682027
-1.40614 0.266609 2.05956
-1.40267 0.312717 3.14346
-1.4173 0.354414 4.21822
-1.44747 0.685004 -3.02266
-1.48122 0.764413 -1.95045
-1.54811 0.908249 -0.632831
-1.51794 0.973653 0.678729
-1.4164 0.990119 1.99798
-1.41067 1.03229 3.08542
-1.42616 1.07599 4.17396
-1.47643 1.65443 -2.90173
-1.49812 1.75271 -1.84232
-1.53012 1.91445 -0.552421
-1.53524 2.03938 0.719052
-1.50885 2.09946 2.00984
-1.48756 2.13235 3.07112
-1.47788 2.16751 4.15033
-0.688867 -0.162027 -3.20138
-0.681759 -0.100109 -2.12589
-0.711172 -0.136985 -0.724246
-0.735533 -0.15983 0.69521
-0.712041 -0.0893145 2.09727
-0.70244 -0.0442311 3.1763
-0.706229 -0.00478535 4.24288
-0.684816 0.128502 -3.14782
-0.690311 0.318015 3.15403
-0.701744 0.355611 4.22381
-0.705529 0.655486 -3.01209
-0.69477 1.0318 3.08372
-0.708857 1.07578 4.1736
-0.72513 1.63361 -2.89128
-0.738882 1.73277 -1.83081
-0.768688 1.90878 -0.545482
-0.786499 2.04391 0.718217
-0.776466 2.1026 2.00389
-0.760253 2.13339 3.06517
-0.751406 2.16788 4.14601
0.720401 -0.16203 -3.20138
0.700703 -0.10011 -2.12589
0.726329 -0.136986 -0.724247
0.731507 -0.159832 0.695209
0.692081 -0.0893153 2.09727
0.703719 -0.0442319 3.1763
0.715548 -0.00478633 4.24288
0.719424 0.128499 -3.14782
0.700725 0.318014 3.15402
0.714119 0.35561 4.22381
0.743212 0.655483 -3.01209
0.697055 1.0318 3.08371
0.709581 1.07578 4.17359
0.770347 1.6336 -2.89128
0.775512 1.73276 -1.83081
0.766839 1.90877 -0.545485
0.731067 2.0439 0.718212
0.697441 2.1026 2.00389
0.693872 2.13339 3.06517
0.698703 2.16787 4.146
1.43901 -0.167625 -3.19586
1.42513 -0.109627 -2.11785
1.45925 -0.126896 -0.725327
1.46773 -0.146835 0.684401
1.42347 -0.0955244 2.07837
1.42179 -0.0482945 3.16348
1.43296 -0.00572428 4.23545
1.43787 0.131047 -3.14612
1.41802 0.213594 -2.07745
1.46827 0.222821 -0.701561
1.47965 0.215683 0.682023
1.41536 0.266608 2.05955
1.41545 0.312716 3.14345
1.42958 0.354412 4.21821
1.47053 0.684995 -3.02266
1.47669 0.7644 -1.95045
1.54229 0.908226 -0.632836
1.51808 0.973652 0.678719
1.42 0.990118 1.99797
1.41393 1.03229 3.08541
1.42654 1.07599 4.17395
1.5136 1.65442 -2.90173
1.5237 1.75269 -1.84232
1.52376 1.91443 -0.552428
1.48818 2.03937 0.719043
1.44287 2.09945 2.00983
1.42842 2.13234 3.07111
1.42812 2.16751 4.15032
-0.71512 0.46 -2.02338
0 0.207404 -2.10354
-0.697548 0.205002 -1.39078
-0.690308 0.635 2.0499
-1.79708e-05 0.283785 2.08621
-0.693676 0.259072 1.38984
-1.85072e-05 0.789584 -2.01958
-0.809621 0.832607 -1.27259
0 1.01183 2.01631
-0.770238 1.02284 1.33708
0.715104 0.46 -2.02338
0.697542 0.205002 -1.39078
0.690459 0.635 2.05007
0.693663 0.259056 1.38984
0.809555 0.832572 -1.27259
0.770196 1.0228 1.33707
-0.729446 0.198203 -0.000469923
-0.869866 0.548496 -0.657898
-5.77821e-06 0.197265 -0.695627
-0.863528 0.591348 0.689674
-1.06713e-05 0.20351 0.694687
-0.804551 0.942342 0.032245
-2.40023e-05 1.16838 -0.620172
-4.40418e-06 1.38462 0.684657
0.729606 0.198025 -0.000469923
0.869859 0.548484 -0.6579
0.863525 0.591349 0.68967
0.804541 0.942351 0.03224
-0.896359 0.504248 -1.33168
-0.869698 0.569922 0.0158876
-0.878281 0.613174 1.36346
-2.88911e-06 0.203472 -1.39078
-8.22478e-06 0.201657 -0.000469923
-1.43211e-05 0.260333 1.38984
-9.25362e-06 0.46 -2.27421
-8.9854e-06 0.635 2.19686
-2.12548e-05 0.936002 -1.27259
-1.42032e-05 1.38312 0.0322425
-2.20209e-06 1.22403 1.33707
0.896356 0.504242 -1.33168
0.869679 0.569917 0.0158851
0.880628 0.613174 1.36346
-1.04453 0.219301 -2.08169
-0.67338 0.0624457 -2.10592
-0.674908 0.176751 -2.61688
-1.04322 0.275805 2.07228
-0.696169 0.0978427 2.09113
-0.685305 0.301508 2.61951
-1.10532 0.729706 -1.93772
-0.717473 0.675243 -2.46854
-0.73415 1.21388 -1.8779
-1.0457 0.98756 1.99374
-0.684885 1.0084 2.5366
-0.725733 1.5438 1.99669
0.682852 0.0624449 -2.10592
0.692212 0.17675 -2.61688
1.04151 0.219297 -2.0817
0.686171 0.0978423 2.09113
0.690493 0.301507 2.61951
1.04781 0.275804 2.07228
0.736296 0.675242 -2.46854
0.752446 1.21388 -1.8779
1.10303 0.7297 -1.93772
0.686028 1.0084 2.5366
0.686221 1.5438 1.99668
1.0475 0.987559 1.99372
-1.09338 0.211854 -0.698592
-0.712696 0.0319474 -0.709936
-1.10844 0.206983 0.688357
-0.738726 0.0192252 0.694948
-1.18192 0.902181 -0.6265
-0.792207 1.40245 -0.582826
-1.15358 0.979035 0.681694
-0.78786 1.51416 0.701439
0.720269 0.0319464 -0.709937
1.09124 0.21185 -0.698594
0.736702 0.0192229 0.694948
1.11078 0.20698 0.688355
0.791258 1.40243 -0.582829
1.17898 0.902158 -0.626505
0.76014 1.51416 0.701433
1.15365 0.979036 0.681686
-1.41732 -0.138619 -2.65685
-1.41706 -0.0182814 -3.17099
-1.05265 -0.164823 -3.19862
-1.43605 -0.118255 -1.42159
-1.42114 0.0519912 -2.09765
-1.04999 -0.104865 -2.12187
-1.46001 -0.136861 -0.0204602
-1.46321 0.0479692 -0.713441
-1.08253 -0.131937 -0.724785
-1.44625 -0.121176 1.38139
-1.47055 0.0344276 0.683216
-1.10083 -0.15333 0.689807
-1.42115 -0.0719072 2.62093
-1.41625 0.0855437 2.06897
-1.0692 -0.0924182 2.08782
-1.41937 -0.0270071 3.69947
-1.40931 0.132212 3.15347
-1.05919 -0.0462618 3.1699
-1.42005 0.174346 4.22684
-1.06451 -0.00525355 4.23917
-1.42088 0.172329 -2.61179
-1.43258 0.40803 -3.08439
-1.05125 0.129778 -3.14697
-1.44831 0.218216 -1.3895
-1.45264 0.489008 -2.01395
-1.47376 0.219258 -0.00976537
-1.51033 0.565539 -0.667194
-1.44055 0.241148 1.37079
-1.49645 0.59467 0.680378
-1.4044 0.289663 2.60151
-1.41127 0.628364 2.02877
-1.40999 0.333566 3.68084
-1.40667 0.672504 3.11444
-1.04649 0.315366 3.14874
-1.42173 0.715202 4.19609
-1.05952 0.355013 4.22102
-1.46434 0.724709 -2.48655
-1.46195 1.16972 -2.96219
-1.0765 0.670245 -3.01737
-1.51466 0.836331 -1.29164
-1.48967 1.25856 -1.89638
-1.53302 0.940951 0.0229491
-1.53911 1.41135 -0.592626
-1.46717 0.981886 1.33836
-1.52659 1.50652 0.698891
-1.41354 1.0112 2.5417
-1.46263 1.54479 2.00391
-1.41842 1.05414 3.62969
-1.44912 1.58232 3.07827
-1.05272 1.03204 3.08457
-1.45202 1.62175 4.16214
-1.06751 1.07589 4.17378
-1.48727 1.70357 -2.37202
-1.10078 1.64402 -2.8965
-1.51412 1.83358 -1.19737
-1.1185 1.74274 -1.83656
-1.53268 1.97691 0.0833155
-1.1494 1.91161 -0.548951
-1.52205 2.06942 1.36445
-1.16087 2.04164 0.718635
-1.49821 2.1159 2.54048
-1.14266 2.10103 2.00687
-1.48272 2.14993 3.61072
-1.12391 2.13287 3.06815
-1.11464 2.1677 4.14817
-0.685313 -0.131068 -2.66364
-0.686842 -0.0167628 -3.1746
0.015767 -0.162029 -3.20138
-0.696466 -0.118547 -1.42507
0.00947187 -0.100109 -2.12589
-0.723353 -0.148407 -0.0145183
0.00757853 -0.136985 -0.724246
-0.723787 -0.124572 1.39624
-0.00201272 -0.159831 0.695209
-0.70724 -0.0667728 2.63679
-0.00997983 -0.0893149 2.09727
-0.704335 -0.0245082 3.70959
-0.696376 0.136892 3.16517
0.000639353 -0.0442315 3.1763
-0.703986 0.175413 4.23335
0.00465965 -0.00478584 4.24288
-0.695173 0.391994 -3.07995
0.017304 0.128501 -3.14782
-0.696028 0.336813 3.68892
-0.692541 0.674906 3.11887
0.00520671 0.318015 3.15403
-0.705301 0.715697 4.19871
0.00618762 0.355611 4.22381
-0.715329 1.14455 -2.95168
0.0188418 0.655485 -3.01209
-0.701814 1.05379 3.62866
-0.727512 1.58259 3.07445
0.00114255 1.0318 3.08371
-0.730132 1.62183 4.1598
0.000361729 1.07578 4.17359
-0.732006 1.68319 -2.36104
0.0226087 1.6336 -2.89128
-0.753785 1.82077 -1.18814
0.0183149 1.73277 -1.83081
-0.777594 1.97634 0.0863679
-0.000924483 1.90877 -0.545483
-0.781482 2.07325 1.36106
-0.0277161 2.04391 0.718215
-0.768359 2.118 2.53453
-0.039512 2.1026 2.00389
-0.755829 2.15063 3.60559
-0.0331904 2.13339 3.06517
-0.0263517 2.16787 4.146
0.710552 -0.13107 -2.66364
0.719913 -0.0167654 -3.1746
1.07971 -0.164828 -3.19862
0.713516 -0.118548 -1.42507
1.06292 -0.104869 -2.12187
0.728918 -0.148409 -0.0145188
1.09279 -0.131941 -0.724787
0.711794 -0.124574 1.39624
1.09962 -0.153333 0.689805
0.6979 -0.0667736 2.63678
1.05778 -0.0924199 2.08782
0.709634 -0.0245091 3.70959
0.702222 0.136891 3.16516
1.06275 -0.0462632 3.16989
0.714834 0.175412 4.23334
1.07425 -0.0052553 4.23916
0.731318 0.391991 -3.07995
1.07865 0.129773 -3.14697
0.707422 0.336812 3.68892
0.69889 0.674906 3.11887
1.05809 0.315365 3.14874
0.71185 0.715696 4.1987
1.07185 0.355011 4.22101
0.75678 1.14454 -2.95168
1.10687 0.670239 -3.01737
0.703318 1.05379 3.62865
0.695464 1.58259 3.07444
1.05549 1.03204 3.08456
0.704142 1.62183 4.1598
1.06806 1.07588 4.17377
0.77293 1.68318 -2.36104
1.14197 1.64401 -2.8965
0.771176 1.82077 -1.18815
1.1496 1.74273 -1.83657
0.748953 1.97634 0.0863637
1.1453 1.9116 -0.548957
0.714254 2.07325 1.36105
1.10962 2.04164 0.718628
0.695657 2.118 2.53453
1.07015 2.10103 2.00686
0.696287 2.15063 3.60558
1.06114 2.13287 3.06814
1.06341 2.16769 4.14816
1.43207 -0.138626 -2.65686
1.43844 -0.0182888 -3.17099
1.44219 -0.118262 -1.42159
1.42158 0.0519834 -2.09765
1.46349 -0.136866 -0.0204629
1.46376 0.0479621 -0.713444
1.4456 -0.12118 1.38139
1.47369 0.0344243 0.683212
1.42263 -0.0719094 2.62093
1.41941 0.0855416 2.06896
1.42737 -0.0270094 3.69947
1.41862 0.132211 3.15347
1.43127 0.174344 4.22683
1.42794 0.172321 -2.61179
1.4542 0.408021 -3.08439
1.44315 0.218207 -1.38951
1.44735 0.488997 -2.01395
1.47396 0.219252 -0.00976892
1.50528 0.565523 -0.667199
1.44751 0.241145 1.37079
1.49887 0.594668 0.680371
1.4154 0.289662 2.6015
1.41768 0.628363 2.02876
1.42251 0.333564 3.68083
1.41469 0.672502 3.11443
1.42806 0.7152 4.19608
1.47361 0.724697 -2.48655
1.49207 1.16971 -2.96219
1.50949 0.836313 -1.29164
[...]
POINT_DATA 29498
VECTORS point_vectors float
-1.57439 -2.6037 3.43826
0.124808 0.133069 0.758148
-0.999765 0.551642 2.05491
-0.187073 -0.295001 0.260017
1.56334 -2.62601 3.45056
-0.132648 0.129951 0.744716
0.997865 0.549957 2.04874
0.189219 -0.294315 0.255509
-0.000664331 0.000600222 0.0424682
0.0301529 -0.000312357 0.332804
0 0 0
3.21216e-17 4.77671e-17 2.24588e-16
0.00102637 0.0005719 0.0414909
-0.0318332 -0.000485324 0.328865
0 0 0
0 0 0
-0.56631 -0.291922 19.808
-1.32355 -0.903369 20.4148
-0.392867 -0.524532 21.4208
0.167614 -0.160699 21.5501
0.729495 0.195782 21.4556
1.03469 0.283919 21.0762
0.942134 0.16589 20.6721
-0.703805 -0.24801 19.6938
-1.98777 -0.803253 20.2976
-0.587416 -0.651989 21.4966
0.118099 -0.34539 21.6616
0.985139 -0.0406052 21.4945
1.28786 0.016052 21.134
1.05546 0.0369818 20.9947
-0.871182 0.0548071 19.5914
-2.11697 0.120825 20.3455
-1.22867 -0.374974 21.4103
-0.325442 -0.432439 21.6956
0.514055 -0.683596 21.5318
0.958095 -0.820083 21.2613
0.789536 -0.626619 20.6443
-0.5928 0.394026 19.9054
-0.985222 0.655536 20.3599
-0.925236 0.417073 21.099
-0.392257 0.022156 21.4462
0.0154887 -0.269329 21.3985
0.229159 -0.455927 21.2449
0.275782 -0.605379 20.5968
-0.525599 -0.645374 19.2498
-1.74242 -3.64087 20.4863
-0.0846051 -0.322611 21.5299
0.232161 0.244714 21.3196
0.512106 1.14112 20.3145
0.905131 1.52111 19.4605
0.814329 1.17321 19.3145
-0.672842 -0.554878 18.9471
1.6156 1.58094 11.0098
1.97256 1.2554 13.6782
-1.01355 0.147343 18.4274
0.270093 -0.674031 5.75127
1.40481 -1.07377 11.3711
-0.534156 0.806103 19.4623
-1.0232 1.64729 20.0521
-1.28508 1.60988 21.1777
-0.436856 0.313392 21.8053
-0.103856 -0.272652 21.443
0.0678882 -0.553151 21.1746
-0.00632015 -0.377957 21.7597
0.544515 -0.621157 19.2921
1.69072 -3.55662 20.512
0.0446002 -0.350998 21.5113
-0.243683 0.230155 21.246
-0.475054 1.16055 20.2791
-0.888584 1.53806 19.4807
-0.804365 1.15531 19.4207
0.694215 -0.53209 18.9888
-1.64282 1.61782 11.1016
-1.95594 1.24073 13.9753
1.03701 0.141876 18.5059
-0.245687 -0.672465 5.74702
-1.4203 -1.07703 11.346
0.550925 0.785775 19.4885
1.05084 1.58713 20.0689
1.28392 1.61472 21.1757
0.425767 0.359468 21.8306
0.116911 -0.242853 21.4619
-0.0431641 -0.526274 21.1882
-0.00854882 -0.384112 21.875
0.562502 -0.284148 19.8227
1.30358 -0.89867 20.412
0.397417 -0.530384 21.4195
-0.156873 -0.17519 21.5467
-0.727646 0.200247 21.4635
-1.02977 0.280837 21.0802
-0.943893 0.161744 20.65
0.692075 -0.235439 19.7093
2.00501 -0.81804 20.2944
0.592796 -0.658458 21.4972
-0.0983467 -0.352178 21.6532
-0.982659 -0.0455336 21.4971
-1.2703 0.00375641 21.1347
-1.06106 0.0310617 20.9456
0.858025 0.0435946 19.6196
2.12777 0.122222 20.3473
1.23591 -0.377751 21.4171
0.330786 -0.425064 21.7045
-0.515204 -0.680839 21.5316
-0.955105 -0.808608 21.2526
-0.768903 -0.605669 20.6396
0.588006 0.372157 19.9252
0.975153 0.629777 20.3667
0.929286 0.425228 21.1015
0.400876 0.0308275 21.4544
0.00370788 -0.289353 21.4014
-0.224697 -0.452992 21.1927
-0.204552 -0.61155 20.7336
-0.709851 -0.12235 0.988734
0.00298486 0.00141965 0.0915494
-0.00557402 0.000965255 0.0843754
-0.00487704 -0.0115984 -0.000932065
0.000252396 0.00478348 0.0288759
-0.00306961 0.00436062 0.112224
7.59569e-05 0.146789 0.343494
-0.148048 -0.0680916 0.269581
0.000425922 0.0153485 -0.0508562
0.00386326 0.00309033 0.0327407
0.703742 -0.1258 0.981387
0.00680751 0.00089644 0.0811328
0.00481212 -0.011954 -0.000779326
0.00428339 0.00421337 0.103499
0.141662 -0.0651061 0.258493
-0.00364191 0.00284554 0.0316969
0.00103847 -0.000556514 0.28158
0.000246974 0.000992929 0.0269614
-0.000361704 -3.49219e-05 0.0128827
0 0 0
0 0 0
0 0 0
3.82806e-05 0.0462928 0.0992979
-3.21532e-06 -0.00034115 0.00464935
0.000225813 0.000566009 0.281297
-0.000249935 0.00100555 0.0273539
0 0 0
0 0 0
0 0 0
1.01538e-05 0.00539543 0.0315763
0 0 0
-8.44495e-06 4.67752e-07 0.000132357
0 0 0
-0.000300191 -0.000991524 0.0658464
0 0 0
0 0 0
-2.03835e-06 0.000509109 0.00366223
-9.29171e-06 0.00355423 0.0358589
4.02563e-06 0.00104579 -0.00234374
0 0 0
-8.58931e-06 0.00546192 0.0317469
0 0 0
-3.88705 -2.23222 19.6633
-2.65422 -5.94449 20.4789
-1.98291 -1.66636 17.6975
1.37048 0.705508 17.5627
0.331451 1.26581 14.5511
0.925575 1.03323 7.90136
-4.21697 0.813204 20.0132
-3.25319 1.07369 16.5751
-2.30564 2.82782 19.8245
0.777714 -0.617409 17.2108
-0.364353 -0.514694 3.73538
-0.150514 -0.55683 19.7015
2.60932 -5.85805 20.4788
1.98347 -1.63223 17.7945
3.89554 -2.26945 19.6533
-0.278807 1.27355 14.4229
-0.9395 1.0601 7.9583
-1.36502 0.715053 17.4845
3.25539 1.027 16.7272
2.32304 2.74401 19.839
4.23972 0.825433 20.0117
0.373676 -0.516817 3.70189
0.137573 -0.520239 18.991
-0.765945 -0.633623 17.3502
-0.133964 -0.758909 19.6062
-0.0778728 0.0225347 16.4994
0.282953 -0.196649 18.9186
0.331966 0.295787 16.5661
-2.10914 -1.03443 21.5937
-3.50959 2.22635 21.273
-0.418022 -0.603751 20.4145
-0.896255 0.0843868 21.7635
0.120701 0.00151957 16.3978
0.140178 -0.757336 19.5233
-0.328239 0.277133 16.3702
-0.242379 -0.235137 18.889
3.51012 2.23889 21.2665
2.12161 -1.04265 21.5859
0.782279 0.150344 21.0806
0.426557 -0.582799 20.393
-0.942977 -0.560744 19.9222
-0.63582 -0.274715 19.7544
-0.600143 -0.464831 19.5531
-0.922396 -0.809781 21.2408
-1.6494 -0.901516 20.3436
-1.79923 -1.93666 20.3199
-0.0827841 -0.327632 21.4819
-0.495962 -0.60537 21.4504
-0.169879 -0.598156 21.6347
0.445017 0.025094 21.5779
0.144116 -0.265739 21.5909
0.305093 -0.067056 21.6467
0.89566 0.278057 21.357
0.860149 0.101399 21.5155
0.894325 0.658762 21.1507
1.0305 0.234572 20.9756
1.18658 0.149073 21.2145
1.32018 0.846966 20.9527
1.04885 0.0816476 20.8107
0.97054 0.549173 21.4435
-1.29063 -0.468976 19.7175
-0.805144 -0.153595 19.6102
-0.754411 -0.396249 19.361
-1.33819 -0.818657 21.3823
-2.23456 -0.34558 20.2985
-0.19842 -0.502414 21.5652
-0.943275 -0.62321 21.4594
0.514957 -0.191646 21.7008
-0.0789453 -0.470702 21.7232
1.1925 0.00528458 21.3111
0.897439 -0.476329 21.5474
1.46603 -0.076267 20.803
1.28607 -0.486873 21.1433
1.91108 0.617458 18.5792
1.1352 -0.473304 20.4359
1.55973 0.236625 19.5978
-1.57018 0.116063 19.6903
-0.775496 0.310729 19.7142
-1.0107 0.0686183 19.1494
-1.7017 -0.168608 21.1412
-1.51452 0.599071 20.317
-0.775945 -0.422147 21.6313
-1.28685 0.151629 21.2444
0.124619 -0.521986 21.7136
-0.471744 -0.166399 21.5995
0.715002 -0.73897 21.4022
0.120443 -0.483298 21.4299
1.05041 -0.765655 20.6542
0.408899 -0.601475 21.0866
1.20482 -0.869183 18.6017
0.311486 -0.613261 20.9161
1.52922 -1.24913 18.794
-0.800688 0.562157 20.0631
-0.631334 0.598079 19.6912
-1.02754 0.570601 20.7491
-1.11459 1.08434 20.23
-0.679048 0.212256 21.3827
-1.17633 0.850405 21.1862
-0.157165 -0.153952 21.3788
-0.465891 0.142209 21.5955
0.113796 -0.396251 21.2008
-0.0599472 -0.324372 21.4126
0.163989 -0.33841 21.1841
0.152417 -0.495399 20.9196
-0.0344376 -0.360148 21.5422
-1.12258 -1.64254 18.974
-0.592533 -0.606693 19.1065
0.0100039 -0.808807 18.9835
-0.427131 -1.211 22.2627
0.162809 -4.83923 21.2685
0.0577303 -0.0612273 21.3386
0.0494217 -0.437219 20.9496
0.367405 0.657871 20.8473
-0.00923236 0.188285 19.9188
0.728114 1.40745 20.1532
-0.00887709 0.863183 18.2289
1.02238 1.59227 19.7626
1.24851 1.81017 16.7291
-0.0273485 1.42931 18.039
1.27919 1.31685 17.0343
-0.0128619 2.06232 17.9598
-0.874098 -0.257825 18.6169
0.0178126 -0.732545 18.5078
1.9822 1.34026 12.0112
1.79158 0.0745675 6.72759
0.0135186 0.568173 4.05626
2.17289 0.503164 12.5907
-0.0429454 1.8698 9.64121
-0.81209 0.766231 18.8991
0.0381407 0.258584 17.6064
0.879159 -0.937226 8.76771
0.118584 -1.09755 19.8239
-0.0115591 1.47428 -6.6818
0.0815632 -1.16007 19.1989
-0.00311052 1.06959 -4.57498
-0.817712 1.3325 19.6212
0.0191843 1.05449 19.2331
-1.19967 1.65992 20.5352
0.0331506 2.28672 19.8829
-0.907126 0.987412 21.7869
-0.00287252 2.74565 21.0969
-0.212003 -0.085031 21.6641
-0.0246936 0.673253 21.9625
-0.0406829 -0.406262 21.3755
-0.00799183 -0.0842941 21.5834
0.0959203 -0.659659 21.0131
0.000849831 -0.446109 21.2641
-0.00148465 -0.368561 21.8831
1.12842 -1.59899 19.0349
0.613293 -0.584919 19.1478
0.606309 -0.452826 19.5721
0.355775 -1.23322 22.2228
1.77681 -1.89603 20.3248
-0.077364 -0.0783538 21.3058
0.18195 -0.613276 21.6164
-0.352846 0.667111 20.8054
-0.301032 -0.0892385 21.6354
-0.702119 1.43284 20.0826
-0.892221 0.684724 21.1133
-1.0069 1.58994 19.861
-1.23915 1.83079 16.7262
-1.32012 0.838342 20.9362
-1.26986 1.30076 17.1519
-0.966234 0.533478 21.3377
0.916039 -0.256796 18.6739
0.761532 -0.396436 19.383
-1.98222 1.33376 12.2205
-1.8368 0.0796909 6.89538
-1.90893 0.579665 18.6526
-2.18091 0.52431 12.8446
-1.54886 0.209179 19.6534
0.829493 0.733 18.9453
1.01055 0.0651704 19.1888
-0.877232 -0.936608 8.78684
-0.0792964 -1.07175 19.4276
-1.20006 -0.87996 18.6082
-0.0707466 -1.17833 18.992
-1.54528 -1.26587 18.776
0.841467 1.28726 19.6435
0.639081 0.572107 19.713
1.20924 1.63219 20.5421
1.11312 1.04283 20.2419
0.9041 1.03502 21.8066
1.18031 0.858774 21.187
0.215374 -0.0612147 21.6643
0.47749 0.169932 21.6082
0.0586988 -0.381634 21.3928
0.0624977 -0.313672 21.423
-0.0702885 -0.663348 21.0146
-0.15497 -0.495629 20.9463
0.021331 -0.386385 21.5443
0.924518 -0.547669 19.94
0.630011 -0.263376 19.7703
0.914544 -0.813343 21.2361
1.64086 -0.906857 20.3505
0.0905932 -0.341362 21.4774
0.499148 -0.612255 21.4491
-0.438648 0.0097354 21.5773
-0.130562 -0.279144 21.579
-0.89123 0.279597 21.3601
-0.862446 0.0975579 21.5169
-1.01259 0.219794 20.9879
-1.17255 0.146874 21.2095
-1.05485 0.0785747 20.7847
1.28113 -0.466037 19.7263
0.79507 -0.146899 19.6318
1.34296 -0.82965 21.3857
2.26004 -0.35212 20.3002
0.20275 -0.504671 21.5608
0.947324 -0.632789 21.4691
-0.505841 -0.192167 21.7177
0.096496 -0.465104 21.7219
-1.18428 -0.00487813 21.3162
-0.893975 -0.469889 21.4998
-1.44354 -0.0899112 20.8343
-1.27536 -0.482597 21.152
-1.12016 -0.455925 20.4655
1.54964 0.102787 19.7088
0.763424 0.295528 19.7413
1.71446 -0.168325 21.1463
1.50122 0.581706 20.3222
0.78251 -0.425219 21.6327
1.29926 0.151628 21.2475
-0.117338 -0.518046 21.7214
0.487483 -0.165244 21.63
-0.71694 -0.744469 21.3791
-0.102774 -0.497793 21.4582
-1.0444 -0.766263 20.6333
-0.410442 -0.639236 21.118
-0.34601 -0.634184 21.0119
0.791312 0.539955 20.0785
1.01972 0.561631 20.751
0.702628 0.234699 21.3916
0.1616 -0.154333 21.4225
-0.0885667 -0.37978 21.1983
-0.141398 -0.38081 21.199
-1.11365 -0.544781 19.8177
-1.50218 -1.71649 18.4142
-1.20268 -1.03561 19.5084
-1.7723 -0.917041 18.985
-0.704427 -0.464729 19.4602
-2.61079 -2.28101 20.0818
-1.1349 -0.84678 21.3216
-0.26774 -0.431913 18.2716
-0.805804 -1.28269 21.7052
-1.40422 -1.69388 21.6396
-0.119399 -0.722798 21.4345
-0.136366 -0.433189 21.5315
0.0566006 0.109656 16.1653
0.0809523 -0.311524 21.6223
0.11718 -0.403927 18.9409
0.372084 -0.139484 20.8668
0.486545 -0.0785237 21.6456
0.313068 0.716948 14.8546
0.590435 0.278641 21.5524
0.702039 0.256617 17.5826
1.15805 0.71815 19.9995
1.0927 0.171918 21.3135
0.686611 1.5914 15.3622
1.11658 0.783282 21.0278
1.67132 0.637531 18.2178
1.53629 0.789828 19.9245
1.34651 0.118841 20.7296
1.48126 1.48093 16.0615
1.3163 0.963534 21.0585
1.96333 0.492602 19.1168
1.18715 0.465489 20.2162
-1.50074 -0.239413 19.6573
-2.90103 -0.708062 16.5826
-2.34547 0.356783 18.8202
-0.928157 -0.176934 19.1964
-4.95138 -0.604239 19.6134
-1.62828 -0.515492 21.3216
-2.64504 -0.416683 21.7125
-0.754168 -1.31157 20.4054
-0.478096 -0.575293 21.6344
-1.22244 -1.00845 21.1932
0.129942 -0.298662 18.4112
0.40214 -0.437815 21.7342
0.298758 -0.407444 19.1411
1.38184 0.0104785 15.3032
1.14887 -0.49035 21.3724
0.443292 -0.403281 3.4754
0.878927 -0.814777 18.4367
1.86029 -0.212763 17.9133
1.19602 -0.508104 21.2476
2.34509 0.480508 9.62163
1.35545 -1.13789 19.1534
1.77926 -0.520845 18.8065
-1.20754 0.514322 19.8673
-1.64889 1.90899 18.7124
-0.900624 0.903314 19.8454
-0.856371 0.485663 19.3802
-2.11606 1.34311 20.123
-1.49405 0.382122 20.8568
-2.51508 2.13557 20.4323
-1.22897 1.03385 20.6828
-2.10635 0.573559 21.3783
-0.897694 -0.019476 21.5503
-2.48947 0.922237 22.3058
-0.851757 0.510843 21.5611
-0.69146 -0.125415 21.943
-0.118927 -0.338632 21.5687
-0.218828 -0.43108 20.5529
-0.212926 -0.142548 21.5375
-0.0430991 -0.633376 21.6051
0.27374 -0.577675 21.3367
-0.0576257 -0.730754 20.0047
0.0353765 -0.41239 21.27
0.254451 -0.851061 21.6206
0.491056 -0.555996 20.9828
0.321572 -1.08691 19.0181
0.174107 -0.603825 21.4127
0.136345 -0.855687 21.635
1.52096 -1.7031 18.4808
0.0314008 -2.42952 18.394
0.0166921 -2.8408 15.8719
0.0100206 -0.847603 18.7139
0.351771 -7.55584 23.3792
0.25796 -0.498277 18.0812
0.132981 -1.34507 22.4218
-0.108988 -0.06015 12.1656
-0.0205872 0.0979016 15.9935
0.00507142 -0.158815 20.013
-0.0599446 0.215765 12.6223
-0.279711 0.724694 14.7187
-0.0133039 0.533503 18.9109
-0.010667 0.640587 10.6598
-0.649383 1.61845 15.3148
-0.00792112 1.17822 18.1223
0.0192627 -0.241686 2.32423
-0.0107135 1.39408 11.8949
-1.48042 1.48018 16.1211
-0.0183029 2.01746 18.3689
-0.0328095 1.0325 5.70773
-0.0356907 2.03263 14.8925
2.9242 -0.687236 16.7123
0.0460339 2.92599 13.1559
0.0211288 -0.357699 17.9526
-0.473269 -0.406994 3.53431
-0.00357024 0.966997 -5.13184
-0.0382934 -0.0675513 -3.43936
-2.34928 0.473148 9.76152
0.0112984 1.72455 -6.31903
-0.0247773 1.56579 0.591607
1.66535 1.8319 18.7715
0.0272168 1.82865 19.3804
0.029068 1.08854 18.3751
0.0328292 4.24875 19.5627
2.51831 2.10366 20.4442
0.0173189 2.48981 20.2869
-0.00376329 5.54317 20.2257
2.52799 0.979464 22.2858
-0.0318648 1.77545 22.0722
-0.019651 0.609152 19.6581
0.167061 -0.407973 19.98
-0.0131746 0.109021 21.677
-0.0211695 0.0418705 12.5406
0.0838352 -0.690674 19.5095
-0.00457092 -0.238769 21.5019
-0.00832915 -0.428521 13.5085
-0.3124 -1.07795 18.7771
0.00148332 -0.492052 21.5795
0.00536037 -0.553147 13.3059
1.09968 -0.538334 19.8358
1.20159 -1.01771 19.5287
1.76612 -0.908366 19.016
0.702918 -0.455055 19.4732
2.58498 -2.26136 20.0886
1.13116 -0.854 21.3193
0.814932 -1.28437 21.675
1.40764 -1.70383 21.5937
0.137071 -0.732884 21.418
0.144642 -0.443951 21.5266
-0.0750393 -0.327604 21.6117
-0.10528 -0.409154 18.9124
-0.35052 -0.173319 20.8272
-0.476934 -0.0868883 21.6533
-0.589837 0.277173 21.5426
-0.671374 0.246771 17.5558
-1.1534 0.740257 19.8908
-1.0897 0.167424 21.3065
-1.11736 0.793001 21.0038
-1.67121 0.626978 18.3404
-1.52561 0.765444 19.983
-1.32716 0.100366 20.767
-1.32192 0.947032 20.9766
-1.97702 0.474435 19.1041
-1.17687 0.445498 20.2636
1.48768 -0.241454 19.6801
2.31161 0.328968 18.8708
0.930927 -0.17618 19.2312
4.97907 -0.611586 19.6027
1.64105 -0.523687 21.3316
2.65826 -0.420439 21.7165
0.746996 -1.31504 20.3212
0.484259 -0.578491 21.6402
1.2265 -1.00528 21.16
-0.0952394 -0.275506 18.4057
-0.394139 -0.431191 21.755
-0.295828 -0.404199 19.1501
-1.39826 -0.0244901 15.3877
-1.13607 -0.486368 21.3547
-0.871312 -0.823898 18.467
-1.8469 -0.221504 18.0594
-1.19213 -0.502569 21.2223
-1.34869 -1.13595 19.1584
-1.78253 -0.544844 18.8289
1.18659 0.490828 19.8884
0.906282 0.865823 19.8625
0.849675 0.456361 19.4158
2.10384 1.30132 20.1309
1.49212 0.379908 20.8572
1.22465 1.01318 20.6867
2.11599 0.580371 21.3758
0.918225 -0.0156662 21.5595
0.861824 0.544575 21.5756
0.710168 -0.111836 21.9685
0.123951 -0.342826 21.5881
0.221754 -0.127014 21.5566
0.0679901 -0.645338 21.6269
-0.264518 -0.593709 21.33
-0.0292044 -0.419916 21.2668
-0.239944 -0.863072 21.6464
-0.50885 -0.602729 20.9852
-0.172129 -0.635955 21.4022
-0.114863 -0.869753 21.5193
-1.43111 -1.04677 19.3214
-1.01065 -1.57177 22.0453
0.140761 -0.372935 20.9656
0.741576 0.278212 20.4103
1.4284 0.836272 19.9259
1.64987 0.762114 20.2242
-2.24461 -0.361594 18.7308
-2.19594 -1.10279 22.2741
-0.176133 -0.935766 19.3766
0.669692 0.0478138 17.408
1.63875 -0.204299 16.7144
1.90366 -0.158502 18.18
-1.544 0.997207 19.4426
-2.14874 0.915569 20.8119
-1.46318 0.185952 21.9139
-0.21778 -0.416157 21.7715
0.113892 -0.743308 21.418
0.552868 -1.04958 20.9652
0.0349485 -2.90321 17.4421
-0.059408 -0.412237 13.2631
-0.0882893 0.000397787 12.0055
-0.0274817 0.429595 10.8757
-0.00231525 0.767363 10.9124
-0.0167803 1.62046 12.4161
0.0221019 -1.05721 13.626
-0.000521817 -0.261607 -2.80834
-0.0485862 0.948288 -1.12496
0.0461138 3.08295 17.954
0.0166581 3.72127 19.7629
-0.0273583 3.09512 21.5077
-0.0204794 -0.021345 15.3545
-0.01155 0.0227572 12.7776
-0.00391949 -0.779025 13.5266
1.4282 -1.03522 19.3415
1.02347 -1.57932 22.0197
-0.127411 -0.387402 20.947
-0.731388 0.270274 20.3491
-1.42542 0.834226 19.8877
-1.66458 0.748879 20.1876
2.22869 -0.357828 18.781
2.18863 -1.11415 22.2232
0.18061 -0.930157 19.3395
-0.677159 0.056904 17.4839
-1.64172 -0.235112 16.8197
-1.88861 -0.168098 18.3108
1.53604 0.947608 19.472
2.13902 0.90068 20.8117
1.4922 0.210333 21.9257
0.23113 -0.41721 21.7958
-0.093456 -0.752703 21.4288
-0.559826 -1.07988 21.0841
-0.00833434 -0.00345596 0.00959997
-0.00428269 -0.0176597 0.10167
-0.0127887 -0.0017651 0.179973
0.00142611 -0.00195999 0.00299582
-0.000580953 0.00127327 0.00695764
-0.0107081 0.00767872 0.145376
-2.30989 0.761434 2.93073
-0.0217629 0.159906 0.388488
-0.0499712 0.0288426 0.173735
0.00226976 -0.214691 0.0738652
-0.0172158 0.00510007 -0.0184409
-0.00719657 -0.0334122 0.204584
0.0014974 -0.0153008 0.0823622
0 0 0
0.0137671 -0.00185626 0.175457
0.000906511 0.00204071 0.0112397
-0.00162228 -0.00208151 0.00332207
0.0130351 0.00708637 0.148757
0.0218803 0.159212 0.386553
2.29294 0.751393 2.90548
0.0510763 0.0296281 0.177703
0.0176728 0.0049947 -0.0181644
0.000632242 -0.0192068 0.00692242
0.00910288 -0.0349961 0.2024
0 0 0
2.03882e-05 6.92129e-05 0.0645381
0 0 0
0 0 0
-0.000946982 0.00292903 0.0518072
0.00154726 0.000277234 0.0650279
0 0 0
0 0 0
-0.137487 -0.0897032 0.254445
0 0 0
0 0 0
-0.0420902 0.0490835 0.113111
0 0 0
0.000175697 0.000912179 0.0036884
0 0 0
0.00469446 -0.00165977 0.0414783
0 0 0
0 0 0
0.000404656 5.55701e-05 0.0630202
0 0 0
0.00168556 0.00322116 0.0574477
0 0 0
-0.00147881 0.000256247 0.0640649
0 0 0
0.137864 -0.0899008 0.255134
0.0415702 0.0488733 0.112233
1.13741e-18 7.42238e-19 3.7005e-17
0 0 0
0 0 0
-0.00467367 -0.00163036 0.0409253
-0.000182866 0.000991566 0.00381541
0 0 0
-0.0769751 -0.0466495 0.378814
-0.0414782 -0.00407496 0.0207814
0 0 0
0 0 0
-0.000309332 -0.000266064 0.0249091
0 0 0
0.000775408 2.9502e-05 0.00604776
0 0 0
0 0 0
0 0 0
0.00443242 0.0141967 0.109296
0 0 0
0 0 0
-2.77602e-05 0.00545481 0.0284428
-0.000481785 -0.00418005 0.0279536
-0.00876668 0.00442487 0.0311381
0 0 0
0 0 0
0.000761814 -0.000255092 0.00905443
-0.00127597 -0.000108088 0.000139064
0.0554213 -0.00131197 0.0267812
0.0802359 -0.0482545 0.393219
0 0 0
0.000384157 -0.000582301 0.0378211
0 0 0
-0.000723068 -1.14127e-06 0.00568027
0 0 0
-0.00613045 0.0192561 0.155824
0.00876051 0.00428841 0.0305792
0.000474685 -0.00408221 0.0274784
0.00129104 -0.00011195 0.000122369
-0.000698676 -0.000403427 0.00865908
0 0 0
0 0 0
0 0 0
-2.86925e-06 0.00238166 0.0172515
0 0 0
-2.05045e-07 6.08775e-08 1.22685e-05
-6.67692e-05 0.0109379 0.0608095
0 0 0
-0.00100226 0.000183779 0.0995695
1.75648e-05 0.000627059 0.00708233
0 0 0
-0.0204207 0.0215291 0.23433
-0.000288667 0.0093532 0.0304004
-3.43417e-05 0.107175 0.291766
-4.79753e-06 0.000464542 0.0262475
-9.30795e-06 -0.00234661 0.0145244
0 0 0
0 0 0
0 0 0
3.13523e-06 0.0024215 0.0175015
9.25428e-05 0.0112194 0.0601137
0 0 0
0.0202243 0.0218188 0.235572
3.75527e-19 -1.41875e-17 -5.46721e-17
0 0 0
-0.257095 -0.174696 1.30951
0.00167621 -0.000461833 0.025491
0 0 0
0 0 0
0 0 0
0 0 0
0.00117271 0.0181268 0.0681984
-3.15823e-06 0.000923844 0.0156272
0 0 0
0 0 0
0.00293454 -0.00180647 0.0307503
0 0 0
0 0 0
0 0 0
0 0 0
0 0 0
0 0 0
0 0 0
0 0 0
0.00026424 0.000262784 0.00370203
0 0 0
0 0 0
0 0 0
0 0 0
0 0 0
-0.802806 0.902095 0.727451
0.803194 0.913241 0.736096
0 0 0
0 0 0
4.77298e-17 6.59101e-18 7.6032e-18
0 0 0
-0.0145631 0.0162569 0.0970167
0.0146452 0.016305 0.0972955
0 0 0
0 0 0
-0.103872 0.120136 0.397145
0.103087 0.119692 0.395151
0.0187415 0.00668559 0.248929
-0.0190644 0.0067359 0.249056
0.000187603 -0.00178863 0.00758901
-0.000194525 -0.00181335 0.00769058
0 0 0
0 0 0
0 0 0
0.243855 -0.165337 1.24635
-0.000862021 -0.000241608 0.0145982