# vtk DataFile Version 2.0
tet_velo
ASCII
DATASET UNSTRUCTURED_GRID
POINTS 29498 float
-0.755 0.245 -2.30139
-0.855 0.385 2.13425
-0.75246 0.915 -2.085
-0.718089 1.295 2.155
0.755 0.245 -2.30139
0.795 0.365 2.16677
0.75246 0.915 -2.085
0.718089 1.295 2.155
-0.827103 0.252897 -0.822843
-0.83954 0.32046 0.655703
-0.828631 1.12929 -0.671667
-0.816884 1.25567 0.741667
0.817864 0.23547 -0.812003
0.828877 0.27779 0.677383
0.82996 1.13062 -0.671667
0.816872 1.25566 0.741667
-1.56527 -0.260723 -3.53033
-1.57187 -0.183242 -2.37218
-1.6237 -0.160602 -0.891179
-1.64193 -0.122035 0.602673
-1.64562 -0.0627232 2.08479
-1.6556 -0.00690123 3.24837
-1.66775 0.0542442 4.40229
-1.56083 0.135274 -3.44737
-1.56586 0.235235 -2.29644
-1.63146 0.279602 -0.829511
-1.63652 0.336149 0.642513
-1.62145 0.393007 2.11067
-1.63953 0.449316 3.27296
-1.65828 0.510644 4.42918
-1.55834 0.884854 -3.2619
-1.56363 0.980583 -2.1072
-1.62914 1.14593 -0.68494
-1.61194 1.25823 0.731726
-1.53865 1.31019 2.15452
-1.58698 1.36757 3.31444
-1.63119 1.42941 4.47843
-1.56349 2.14041 -3.03825
-1.57163 2.25596 -1.89463
-1.59553 2.44161 -0.494035
-1.60357 2.60047 0.890895
-1.59465 2.69749 2.29054
-1.60148 2.75547 3.4322
-1.62159 2.81217 4.58847
-0.774398 -0.257437 -3.53313
-0.765731 -0.177932 -2.37614
-0.811699 -0.178743 -0.886298
-0.833419 -0.141114 0.617639
-0.852547 -0.0743856 2.10762
-0.866094 -0.017788 3.26558
-0.876818 0.0436342 4.41452
-0.773856 0.131982 -3.44748
-0.861943 0.440286 3.2867
-0.872685 0.500982 4.43923
-0.771823 0.85646 -3.25215
-0.812344 1.3593 3.31667
-0.850562 1.42138 4.48238
-0.766588 2.11866 -3.02819
-0.768566 2.23468 -1.88365
-0.789064 2.43265 -0.486489
-0.804955 2.60044 0.892616
-0.806676 2.69603 2.28867
-0.815732 2.75167 3.43069
-0.834421 2.80707 4.58862
0.781795 -0.261277 -3.53072
0.790547 -0.182833 -2.3731
0.820113 -0.195916 -0.876078
0.820781 -0.174097 0.636582
0.787783 -0.0979878 2.13304
0.743636 -0.0364508 3.28549
0.719555 0.0270503 4.42994
0.767251 0.129849 -3.44612
0.730885 0.424159 3.30602
0.713062 0.485772 4.45385
0.768039 0.8551 -3.25122
0.717086 1.35047 3.32577
0.71344 1.40937 4.49318
0.817183 2.11519 -3.02588
0.825485 2.2315 -1.88147
0.824848 2.4287 -0.483857
0.799874 2.59487 0.896076
0.767776 2.68887 2.29333
0.751549 2.74287 3.43692
0.738828 2.79673 4.59626
1.57096 -0.270152 -3.52438
1.58204 -0.195397 -2.3646
1.62614 -0.189818 -0.873807
1.63455 -0.172438 0.632945
1.59705 -0.106999 2.12362
1.55374 -0.0435646 3.28298
1.52536 0.0213319 4.43136
1.55568 0.128844 -3.44324
1.56116 0.228605 -2.29212
1.6247 0.255483 -0.814876
1.63511 0.286887 0.670419
1.58642 0.352809 2.1483
1.54033 0.416456 3.30577
1.51688 0.480054 4.45679
1.55694 0.880449 -3.25894
1.56252 0.978147 -2.1053
1.63059 1.13836 -0.679638
1.62111 1.23969 0.741987
1.53839 1.29022 2.16888
1.51626 1.34538 3.33409
1.50979 1.40438 4.49981
1.61068 2.13258 -3.03308
1.62122 2.24836 -1.88954
1.62864 2.43207 -0.487835
1.60585 2.58745 0.899006
1.56647 2.68134 2.30109
1.54524 2.73669 3.44539
1.53221 2.79093 4.60401
-0.790788 0.58 -2.23025
0 0.269929 -2.27646
-0.810497 0.229503 -1.56212
-0.843958 0.84 2.20204
-0.03 0.372792 2.15272
-0.844947 0.355053 1.39498
0 0.966471 -2.13647
-0.826223 1.05782 -1.37833
0 1.32223 2.18223
-0.802245 1.31009 1.44833
0.790523 0.58 -2.22999
0.79698 0.229687 -1.5567
0.823567 0.83 2.22791
0.783428 0.349905 1.42208
0.826216 1.05782 -1.37833
0.802334 1.31018 1.44833
-0.833309 0.286691 -0.08357
-0.842857 0.691096 -0.747255
-0.00461976 0.2135 -0.817423
-0.839746 0.788065 0.698685
-0.00533157 0.231043 0.666543
-0.822244 1.19197 0.035
0.000664682 1.46383 -0.671667
-6.00856e-06 1.70263 0.741667
0.825279 0.254721 -0.06731
0.843019 0.683047 -0.741835
0.840225 0.766724 0.709525
0.822564 1.19229 0.035
-0.896572 0.635548 -1.47023
-0.840978 0.73958 -0.024285
-0.876096 0.814033 1.42166
-0.00230988 0.218802 -1.55941
-0.00497567 0.213653 -0.07544
-0.0176658 0.274047 1.40853
0 0.58 -2.41229
-0.015 0.835 2.37381
0.000332341 1.14023 -1.37833
0.000329337 1.70161 0.035
-3.00428e-06 1.53009 1.44833
0.896617 0.631523 -1.46752
0.841281 0.724885 -0.016155
0.883765 0.798362 1.43521
-1.16043 0.240117 -2.29891
-0.760365 0.0335342 -2.33877
-0.764428 0.188491 -2.87444
-1.23822 0.389003 2.12246
-0.853774 0.155307 2.12093
-0.858472 0.412643 2.71047
-1.15805 0.947791 -2.0961
-0.762141 0.88573 -2.66857
-0.760513 1.57484 -1.98432
-1.12837 1.30259 2.15476
-0.765217 1.32715 2.73584
-0.762383 1.99552 2.22184
0.772773 0.0310833 -2.33725
0.761125 0.187425 -2.87375
1.15808 0.236803 -2.29676
0.791391 0.133506 2.14991
0.762942 0.39458 2.73639
1.19071 0.358904 2.15754
0.760249 0.88505 -2.66811
0.788972 1.57325 -1.98324
1.15749 0.946573 -2.09515
0.717588 1.32273 2.74038
0.742932 1.99194 2.22417
1.12824 1.29261 2.16194
-1.22928 0.26625 -0.826177
-0.819401 0.0370768 -0.854571
-1.23803 0.328304 0.649108
-0.83648 0.0896729 0.636671
-1.22889 1.13761 -0.678304
-0.808847 1.78097 -0.579078
-1.21441 1.25695 0.736696
-0.810919 1.92805 0.817141
0.818988 0.0197767 -0.844041
1.22128 0.245477 -0.81344
0.824829 0.0518464 0.656983
1.23199 0.282338 0.673901
0.827404 1.77966 -0.577762
1.23028 1.13449 -0.675652
0.808373 1.92526 0.818871
1.21899 1.24768 0.741827
-1.56857 -0.221982 -2.95125
-1.56305 -0.0627241 -3.48885
-1.16983 -0.25908 -3.53173
-1.59778 -0.171922 -1.63168
-1.56886 0.0259964 -2.33431
-1.1688 -0.180587 -2.37416
-1.63282 -0.141319 -0.144253
-1.62758 0.0595 -0.860345
-1.2177 -0.169673 -0.888738
-1.64378 -0.0923791 1.34373
-1.63922 0.107057 0.622593
-1.23767 -0.131574 0.610156
-1.65061 -0.0348122 2.66658
-1.63353 0.165142 2.09773
-1.24908 -0.0685544 2.09621
-1.66168 0.0236715 3.82533
-1.64757 0.221207 3.26067
-1.26085 -0.0123446 3.25697
-1.66302 0.282444 4.41574
-1.27228 0.0489392 4.4084
-1.56335 0.185255 -2.8719
-1.55959 0.510064 -3.35464
-1.16734 0.133628 -3.44743
-1.59866 0.257419 -1.56297
-1.56475 0.607909 -2.20182
-1.63399 0.307876 -0.093499
-1.6303 0.712765 -0.757225
-1.62898 0.364578 1.37659
-1.62423 0.79719 0.687119
-1.63049 0.421161 2.69181
-1.58005 0.851597 2.13259
-1.64891 0.47998 3.85107
-1.61325 0.908443 3.2937
-1.25074 0.444801 3.27983
-1.64474 0.970029 4.45381
-1.26548 0.505813 4.43421
-1.56099 0.932718 -2.68455
-1.56092 1.51263 -3.15008
-1.16508 0.870657 -3.25702
-1.59639 1.06326 -1.39607
-1.56763 1.61827 -2.00092
-1.62054 1.20208 0.0233929
-1.61234 1.79377 -0.589488
-1.57529 1.28421 1.44312
-1.60775 1.92935 0.81131
-1.56281 1.33888 2.73448
-1.56665 2.00384 2.22253
-1.60908 1.39849 3.89644
-1.59423 2.06152 3.37332
-1.19966 1.36344 3.31556
-1.62639 2.12079 4.53345
-1.24088 1.4254 4.48041
-1.56756 2.19819 -2.46644
-1.16504 2.12954 -3.03322
-1.58358 2.34878 -1.19433
-1.1701 2.24532 -1.88914
-1.59955 2.52104 0.19843
-1.1923 2.43713 -0.490262
-1.59911 2.64898 1.59072
-1.20426 2.60045 0.891755
-1.59806 2.72648 2.86137
-1.20066 2.69676 2.28961
-1.61153 2.78382 4.01033
-1.2086 2.75357 3.43144
-1.22801 2.80962 4.58855
-0.770064 -0.217684 -2.95464
-0.774127 -0.0627275 -3.49031
0.0036988 -0.259357 -3.53192
-0.788715 -0.178337 -1.63122
0.0124079 -0.180383 -2.37462
-0.822559 -0.159929 -0.13433
0.00420703 -0.18733 -0.881188
-0.842983 -0.10775 1.36263
-0.00631896 -0.157605 0.62711
-0.859321 -0.0460868 2.6866
-0.0323824 -0.0861867 2.12033
-0.871456 0.0129231 3.84005
-0.864019 0.211249 3.27614
-0.061229 -0.0271194 3.27554
-0.874752 0.272308 4.42687
-0.0786317 0.0353422 4.42223
-0.772839 0.494221 -3.34981
-0.00330251 0.130916 -3.4468
-0.867314 0.470634 3.86297
-0.837144 0.899794 3.30169
-0.0655292 0.432223 3.29636
-0.861624 0.961179 4.46081
-0.0798119 0.493377 4.44654
-0.769205 1.48756 -3.14017
-0.00189205 0.85578 -3.25169
-0.831453 1.39034 3.89953
-0.814038 2.05548 3.37368
-0.0476292 1.35488 3.32122
-0.842492 2.11422 4.5355
-0.068561 1.41538 4.48778
-0.767577 2.17667 -2.45592
0.0252974 2.11692 -3.02704
-0.778815 2.33367 -1.18507
0.0284595 2.23309 -1.88256
-0.79701 2.51654 0.203063
0.0178919 2.43067 -0.485173
-0.805816 2.64823 1.59065
-0.00254064 2.59765 0.894346
-0.811204 2.72385 2.85968
-0.0194502 2.69245 2.291
-0.825076 2.77937 4.00966
-0.0320913 2.74727 3.4338
-0.0477967 2.8019 4.59244
0.786171 -0.222055 -2.95191
0.774523 -0.0657137 -3.48842
1.17638 -0.265714 -3.52755
0.80533 -0.189375 -1.62459
1.18629 -0.189115 -2.36885
0.820447 -0.185007 -0.119748
1.22313 -0.192867 -0.874942
0.804282 -0.136042 1.38481
1.22767 -0.173267 0.634764
0.765709 -0.0672193 2.70927
1.19242 -0.102494 2.12833
0.731595 -0.00470026 3.85772
0.737261 0.193854 3.29576
1.14869 -0.0400077 3.28424
0.716308 0.256411 4.44189
1.12246 0.0241911 4.43065
0.767645 0.492475 -3.34867
1.16147 0.129347 -3.44468
0.721973 0.454966 3.87994
0.723985 0.887312 3.31589
1.13561 0.420308 3.30589
0.713251 0.947573 4.47352
1.11497 0.482913 4.45532
0.792611 1.48515 -3.13855
1.16249 0.867775 -3.25508
0.715263 1.37992 3.90948
0.734318 2.04667 3.38134
1.11667 1.34792 3.32993
0.726134 2.10305 4.54472
1.11161 1.40688 4.4965
0.821334 2.17335 -2.45368
1.21393 2.12389 -3.02948
0.825166 2.3301 -1.18266
1.22335 2.23993 -1.88551
0.812361 2.51178 0.206109
1.22674 2.43038 -0.485846
0.783825 2.64187 1.5947
1.20286 2.59116 0.897541
0.759662 2.71587 2.86512
1.16712 2.68511 2.29721
0.745188 2.7698 4.01659
1.14839 2.73978 3.44116
1.13552 2.79383 4.60014
1.5765 -0.232774 -2.94449
1.56332 -0.0706537 -3.48381
1.60409 -0.192608 -1.6192
1.5716 0.0166041 -2.32836
1.63035 -0.181128 -0.120431
1.62542 0.0328326 -0.844342
1.6158 -0.139719 1.37828
1.63483 0.0572247 0.651682
1.57539 -0.075282 2.7033
1.59174 0.122905 2.13596
1.53955 -0.0111164 3.85717
1.54704 0.186446 3.29437
1.52112 0.250693 4.44408
1.55842 0.178725 -2.86768
1.55631 0.504647 -3.35109
1.59293 0.242044 -1.5535
1.56184 0.603376 -2.19871
1.6299 0.271185 -0.0722284
1.62764 0.69692 -0.747257
1.61077 0.319848 1.40936
1.62811 0.763291 0.706203
1.56338 0.384633 2.72703
1.56241 0.821512 2.15859
1.52861 0.448255 3.88128
1.5283 0.88092 3.31993
1.51333 0.942219 4.4783
1.55973 0.929298 -2.68212
1.58381 1.50652 -3.14601
1.59655 1.05825 -1.39247
1.59187 1.61325 -1.99742
1.62585 1.18903 0.0311745
1.62961 1.78521 -0.583736
[...]
POINT_DATA 29498
VECTORS point_vectors float
-6.05388 -9.59311 13.6089
0.419408 0.237354 3.42174
-1.30809 0.767821 2.52107
-0.126891 -0.140517 0.148443
6.08674 -9.62471 13.6471
-0.368639 0.395556 2.80743
1.31683 0.77574 2.53679
0.122123 -0.125562 0.130023
0.0186384 0.00746221 0.58805
0.0200247 -0.0155231 0.421301
-0.0118894 -0.00113871 0.194365
0.000378908 0.00113673 0.00359278
-0.023219 0.0435238 1.93921
-0.144996 -0.089842 1.68383
0.0159944 -0.000926722 0.268492
-0.000998971 0.00298267 0.00931402
-0.517418 -0.310879 19.9497
-1.1468 -0.804879 20.5562
-0.36343 -0.47781 21.585
0.138475 -0.275661 21.7691
0.699054 -0.0263758 21.7988
1.05936 0.177059 21.4611
1.01329 0.0699646 21.0511
-0.701955 -0.284863 19.7884
-1.85878 -0.803692 20.534
-0.487082 -0.619409 21.6618
0.0682593 -0.483217 21.8206
0.7627 -0.355602 21.9046
1.28351 -0.207051 21.3607
1.22122 -0.2167 21.5915
-0.957784 0.0682466 19.654
-2.11095 0.135365 20.5903
-1.22112 -0.493005 21.5874
-0.476066 -0.54232 21.9277
0.201013 -0.71961 21.9068
0.710388 -0.828954 21.526
0.733237 -0.49581 21.8859
-0.579808 0.388554 20.0336
-0.875171 0.578897 20.5486
-0.838752 0.3764 21.3575
-0.387973 0.0498699 21.6471
-0.0702164 -0.230861 21.5821
0.0859432 -0.342605 21.4238
0.149473 -0.246892 20.5729
-0.470808 -0.644143 19.4888
-1.59982 -2.98409 20.3945
-0.307945 -0.263113 22.0514
0.288157 0.204543 21.8767
1.13702 1.05879 21.3523
1.64715 1.4037 20.3564
1.62427 1.05832 19.8873
-0.724333 -0.587853 19.0169
2.4456 0.844687 15.2693
2.48232 1.06044 16.3826
-1.12668 0.274534 18.4569
1.06824 -0.657211 8.22102
0.969129 -1.148 11.9716
-0.488507 0.789459 19.691
-0.916861 1.39728 20.2911
-1.03151 1.30619 21.4101
-0.383789 0.266433 21.9451
-0.120734 -0.178879 21.8345
0.0800731 -0.444417 21.3539
-0.0643168 -0.364385 21.6239
0.465617 -0.636466 19.5305
1.59938 -2.83612 20.4357
0.283218 -0.291768 22.0227
-0.270771 0.22157 21.9681
-1.0205 1.11511 21.3661
-1.47577 1.64075 19.7631
-1.54208 1.27951 18.6074
0.716272 -0.592762 19.0093
-2.2494 1.29741 12.1669
-2.66509 1.4988 14.8788
1.12988 0.281636 18.4482
-0.958898 -0.522047 4.59638
-0.900783 -1.20913 9.4367
0.511585 0.764331 19.7132
0.941852 1.31117 20.332
1.03544 1.26299 21.4273
0.378838 0.268259 21.9587
0.12552 -0.167508 21.877
-0.0755203 -0.405096 21.5002
0.0815484 -0.348171 21.8055
0.512533 -0.304273 19.9482
1.1188 -0.796472 20.5694
0.345543 -0.462417 21.5792
-0.164056 -0.235307 21.7722
-0.730552 0.00465774 21.7902
-1.09131 0.207075 21.5648
-1.10575 0.0565165 20.9786
0.70753 -0.294335 19.7835
1.85458 -0.807858 20.5461
0.460853 -0.617759 21.6665
-0.119454 -0.460216 21.8302
-0.822422 -0.324094 21.9139
-1.3936 -0.208084 21.4379
-1.43479 -0.188643 21.7615
0.959556 0.0650445 19.6432
2.11693 0.13139 20.6027
1.20591 -0.497909 21.5931
0.446932 -0.545318 21.9196
-0.188848 -0.715222 21.8879
-0.718848 -0.900946 21.613
-0.815999 -0.575684 22.0263
0.578408 0.374295 20.0521
0.8633 0.548503 20.5661
0.791984 0.360335 21.3566
0.377756 0.0531604 21.6233
0.0565155 -0.225046 21.6024
-0.0825429 -0.332433 21.3862
-0.163993 -0.244853 20.4166
-1.54712 -0.0902586 1.96941
-9.17806e-05 -0.0409599 0.292115
-0.0343211 0.0281742 0.615605
0.142452 -0.211655 0.750323
1.19221e-05 0.00141844 0.00608496
0.0769289 -0.00770005 0.534796
0.002659 0.281952 0.610832
-0.434152 -0.291221 1.10555
-0.0127905 0.0444206 -0.175707
0.00217139 0.00251664 0.0169818
1.49233 -0.0863974 1.89855
-0.00136291 0.00118175 0.10308
-0.0138129 -0.0613075 0.0916115
-0.0444339 0.00607434 0.316532
0.433633 -0.290972 1.10721
-0.00247942 0.00288571 0.0189241
0.0134096 0.0132251 1.25413
0 0 0
-4.19026e-06 1.72573e-07 0.000979326
3.07769e-05 0.00105269 0.00430993
7.57724e-06 3.87268e-05 0.00153066
0.00418225 0.0136076 0.0443337
-4.42633e-06 0.0359534 0.0740458
-1.39954e-05 -0.00171671 0.0177263
-0.021942 0.00075582 0.568547
0 0 0
0.000281513 0.00817694 0.034207
-0.00506844 0.0166759 0.0545346
-4.03955e-07 -9.62431e-06 0.000123906
0 0 0
0 0 0
-1.22689e-09 1.2964e-08 -1.92972e-06
2.96733e-08 7.26834e-09 1.41262e-05
-2.57408e-05 0.000114805 0.00100031
-0.000281155 0.107394 0.0388792
0 0 0
8.33412e-06 3.6913e-05 0.000193518
-1.85543e-05 0.0153921 0.11651
-0.000121157 0.00517667 -0.0127609
-4.37111e-07 -4.90853e-05 0.000712921
-5.40857e-05 0.00119278 0.00628867
0.0013935 0.00326255 0.0495483
-3.51988 -1.98317 20.31
-2.76557 -4.90409 20.3777
-1.88853 -1.70967 17.9483
1.35096 -0.325219 21.2887
1.62877 1.00923 17.3229
1.89266 0.537523 10.8493
-4.24384 0.802263 20.6669
-3.3165 1.59032 16.5803
-2.10912 2.53355 20.0095
0.162531 -0.641117 18.8193
-0.997586 -0.92953 3.96274
-0.31407 -0.31882 21.6333
2.77103 -4.74517 20.401
1.88583 -1.7155 17.9385
3.51291 -2.0036 20.3106
-1.56846 1.17822 17.3533
-1.73413 0.803677 8.6978
-1.46019 -0.230058 20.6064
3.31782 1.59782 16.5584
2.14245 2.45575 20.0331
4.24766 0.797835 20.6725
1.30611 -0.691449 1.7544
0.294395 -0.295267 21.4591
-0.15667 -0.618805 18.5987
-0.175338 -0.94149 21.8579
-0.00368834 0.278284 19.3113
0.323236 -0.617622 21.1
0.68783 0.184803 16.861
-2.10385 -1.2441 21.9273
-3.11586 2.09246 21.5281
-0.823032 -0.868063 21.4012
-0.833801 0.288308 22.468
0.0303639 0.212977 19.6652
0.145418 -0.911719 21.7707
-0.671797 0.28573 18.3263
-0.380608 -0.576016 21.1082
3.09726 1.9832 21.5471
2.0891 -1.24618 21.921
0.832155 0.29074 22.4692
0.79425 -0.883656 21.3971
-0.852146 -0.562286 20.0765
-0.608013 -0.321629 19.8827
-0.55061 -0.469794 19.7362
-0.810564 -0.688205 21.3301
-1.4398 -0.826921 20.5687
-1.55297 -1.5958 20.4729
-0.0661967 -0.356182 21.6906
-0.431976 -0.5481 21.614
-0.215284 -0.491082 21.793
0.398575 -0.17791 21.8473
0.121523 -0.350699 21.7594
0.328093 -0.174029 21.9178
0.905831 0.0749384 21.6359
0.765918 -0.158784 21.8449
1.03792 0.263979 21.9595
1.03206 0.200263 21.0519
1.1885 0.10853 21.3478
1.43488 0.464167 21.3264
1.21293 -0.105997 21.3375
1.2757 0.337555 21.4499
-1.28501 -0.516283 19.8697
-0.848291 -0.167035 19.6883
-0.78553 -0.4188 19.4812
-1.157 -0.744643 21.502
-2.12128 -0.367762 20.6113
-0.16243 -0.552416 21.7296
-0.820356 -0.724929 21.666
0.36848 -0.423259 21.9697
-0.170969 -0.618648 21.8952
1.05666 -0.302798 21.722
0.584597 -0.638001 21.978
1.27691 -0.134378 21.4503
1.09914 -0.631466 21.5455
1.74601 -0.0780062 21.3096
1.07307 -0.439103 21.6019
1.93527 0.026424 19.8723
-1.6591 0.162673 19.8311
-0.814734 0.357889 19.8033
-1.12338 0.160465 19.1253
-1.66871 -0.243091 21.3097
-1.48443 0.587483 20.5063
-0.854424 -0.568336 21.8248
-1.32246 0.154717 21.4519
-0.114352 -0.58166 21.9632
-0.544964 -0.147213 21.8234
0.433187 -0.770341 21.789
-0.0306482 -0.41708 21.748
0.722607 -0.756709 21.4576
0.267286 -0.574215 21.6258
0.789254 -1.19928 21.151
0.362335 -0.425253 21.0954
1.0628 -0.865279 18.3925
-0.760779 0.518716 20.2424
-0.581655 0.579289 19.8599
-0.905508 0.505444 20.95
-0.971506 0.940647 20.4346
-0.627494 0.229651 21.5641
-0.989951 0.728648 21.3506
-0.215056 -0.0959815 21.6434
-0.367528 0.106945 21.7895
0.00577605 -0.265503 21.5523
-0.0877484 -0.227349 21.7154
0.144584 -0.346938 21.4718
0.0244368 -0.38083 21.671
0.0796956 -0.349755 20.8351
-0.972163 -1.46136 19.3548
-0.553628 -0.640702 19.3054
0.0183002 -0.780507 19.2966
-0.854113 -1.2377 22.2449
0.0258737 -4.22433 20.4181
-0.0125131 0.0134952 21.9006
0.00243331 -0.765895 22.0176
0.737861 0.590692 21.5725
0.00475423 0.0178831 20.2511
1.45188 1.39591 21.0693
0.00898791 1.17581 18.8508
1.60284 1.39932 20.9018
2.24446 1.73512 18.1141
0.0605639 2.15901 18.7926
2.05409 1.22887 17.9497
0.307234 2.7111 18.588
-0.932139 -0.284566 18.6787
-0.0107659 -0.791314 18.5463
2.4863 0.901839 16.1158
1.86829 -0.717666 8.39501
0.0583992 1.62372 5.65507
2.15193 -0.595406 14.8409
0.444725 2.5749 11.7012
-0.813423 0.855441 19.0706
-0.00482729 0.483784 17.6244
0.758108 -1.68087 11.188
0.107132 -0.996496 20.9801
-0.0229978 -0.450132 -6.96802
0.102259 -0.754387 21.008
0.110275 0.427534 3.76271
-0.714552 1.16185 19.9063
0.0171215 1.00226 19.4962
-1.04129 1.43351 20.7931
0.0362983 1.87569 20.1218
-0.728142 0.781287 21.8887
0.0326487 2.11644 21.4652
-0.219398 -0.0250203 21.7997
-0.0049591 0.485296 22.0834
-0.047486 -0.24689 21.8016
-0.0155486 -0.0928967 21.7532
0.109352 -0.512981 21.0384
0.00584378 -0.469291 21.1777
-0.026331 -0.383194 21.5754
0.959191 -1.42669 19.3951
0.54802 -0.638286 19.3129
0.547237 -0.477165 19.7571
0.827345 -1.20099 22.1965
1.51861 -1.55336 20.4892
0.00956579 -0.0208069 21.9469
0.227067 -0.493273 21.7801
-0.64347 0.655304 21.7912
-0.334022 -0.13652 21.9239
-1.2896 1.53521 21.1511
-1.04773 0.347035 21.9238
-1.43644 1.79099 20.9249
-2.19194 2.05753 17.4769
-1.5584 0.753729 21.4787
-2.18792 1.57622 16.5863
-1.46504 0.606688 21.5315
0.929336 -0.287737 18.6695
0.792839 -0.423977 19.4695
-2.45984 1.6912 13.7348
-1.46601 -0.534936 3.55437
-2.15375 0.0347809 19.5621
-2.09993 -0.010574 12.552
-2.08481 0.485381 18.5613
0.825481 0.840107 19.087
1.12765 0.159079 19.1245
-0.626649 -1.98482 7.14635
-0.178434 -0.94427 20.5995
-0.837357 -1.05514 18.0667
-0.0891915 -0.725367 18.7366
-1.03594 -0.948634 16.0878
0.745079 1.11683 19.9331
0.587493 0.558727 19.8822
1.06206 1.36921 20.8039
0.981889 0.896735 20.441
0.723659 0.764399 21.8955
0.981157 0.693303 21.3617
0.216533 -0.0252653 21.8031
0.362473 0.0994147 21.7978
0.0283738 -0.23917 21.7388
0.0939846 -0.215492 21.6859
-0.0952549 -0.49207 21.0878
-0.0163984 -0.395595 21.7175
-0.0397018 -0.348517 21.0128
0.834209 -0.564338 20.0926
0.598572 -0.322888 19.868
0.779861 -0.679087 21.3139
1.42055 -0.821099 20.5981
0.0557247 -0.330339 21.6937
0.418163 -0.552313 21.6103
-0.437313 -0.136151 21.8548
-0.144259 -0.337157 21.772
-0.956522 0.130326 21.6348
-0.803133 -0.128465 21.8426
-1.14889 0.179122 20.8988
-1.24631 0.139099 21.398
-1.30555 -0.103823 21.2907
1.29032 -0.526437 19.8712
0.853895 -0.16909 19.6597
1.13724 -0.751081 21.5074
2.12861 -0.378142 20.6179
0.136518 -0.536529 21.7338
0.801922 -0.721708 21.6671
-0.417765 -0.40983 21.9532
0.125601 -0.615066 21.894
-1.15047 -0.265632 21.7515
-0.631679 -0.642736 21.9817
-1.45318 -0.0848104 21.4726
-1.23589 -0.625537 21.755
-1.14621 -0.504707 21.7963
1.66191 0.158982 19.8361
0.807994 0.353562 19.8133
1.66182 -0.248548 21.3224
1.4676 0.566998 20.5155
0.828491 -0.572279 21.8277
1.29416 0.151528 21.4497
0.0984125 -0.584114 21.9486
0.540176 -0.156811 21.8231
-0.451043 -0.811564 21.7406
0.0459913 -0.40806 21.7162
-0.752617 -0.806209 21.6237
-0.247523 -0.541346 21.6855
-0.357781 -0.456261 21.1776
0.755324 0.494283 20.2561
0.909714 0.504328 20.962
0.613113 0.225707 21.5508
0.199122 -0.0947464 21.6239
-0.0121427 -0.259955 21.5177
-0.173395 -0.334981 21.5019
-1.05402 -0.573738 19.9945
-1.3436 -1.73876 18.8084
-1.03587 -0.935212 19.7622
-1.72418 -0.959923 19.2148
-0.643189 -0.456636 19.606
-2.31241 -1.9408 20.4432
-0.98508 -0.71887 21.3925
-0.703592 -0.599231 21.6617
-0.877103 -1.07962 21.753
-1.2905 -1.43449 22.3851
-0.110782 -0.651623 21.9064
-0.107135 -0.427866 21.6947
0.357667 0.259935 17.9296
0.0880071 -0.286654 21.8217
0.129945 -0.737233 21.2873
0.430254 -0.395101 21.7431
0.405676 -0.260509 21.9003
1.35924 0.455105 16.6843
0.650227 -0.0142726 21.9978
0.618058 -0.573075 21.0774
1.30083 0.0302749 21.7151
1.00501 -0.0947609 21.7348
1.96652 1.37367 17.7036
1.30157 0.433907 21.6806
1.77606 -0.199396 20.9776
1.64147 0.272476 21.5036
1.27134 -0.106219 21.0461
1.98536 1.19576 17.5183
1.70223 0.513825 21.1138
2.08873 0.0081599 21.1226
1.49358 0.206834 21.4259
-1.55359 -0.259358 19.7974
-2.97815 -0.601845 16.5533
-2.60497 0.559528 18.8664
-0.965952 -0.227282 19.2119
-4.81255 -0.57345 20.4964
-1.48194 -0.584911 21.5157
-2.5689 -0.695996 21.7857
-0.680641 -1.30735 21.724
-0.456231 -0.693489 21.8064
-1.43356 -1.20052 21.8922
0.0434198 -0.879271 20.8015
0.147491 -0.587035 22.0101
-0.268876 -0.581783 20.4097
0.945241 -0.752902 20.0879
0.844886 -0.644727 21.8278
0.332877 -1.4122 4.85064
0.306513 -0.920041 19.9943
1.48822 -0.686701 20.9163
1.127 -0.64686 21.3082
2.21155 0.146123 11.2225
1.02876 -1.17305 21.2291
1.76765 -0.964929 19.1823
-1.21617 0.546588 20.0391
-1.53248 1.92448 19.0786
-0.816257 0.826866 20.0898
-0.905666 0.586474 19.4668
-1.97936 1.28763 20.3212
-1.48404 0.36793 21.0187
-2.51972 2.08863 20.5412
-1.06477 0.890141 20.8944
-2.05494 0.604807 21.5519
-0.965531 -0.00500094 21.7387
-2.19879 1.14723 22.6217
-0.695762 0.428199 21.7035
-0.741458 -0.00941887 22.1044
-0.233979 -0.289527 21.8143
-0.347135 -0.199405 21.8988
-0.219287 -0.100744 21.738
-0.179214 -0.430366 21.8323
0.138045 -0.523245 21.6445
-0.233902 -0.594912 21.6979
-0.0266418 -0.348088 21.3257
0.224134 -0.813666 21.6315
0.330299 -0.812622 20.5184
0.138997 -0.810899 22.581
0.156284 -0.431158 21.0797
0.237712 -0.632849 22.1968
1.34997 -1.73278 18.8292
0.0162805 -2.11877 18.9036
0.00101837 -2.80623 16.3562
-0.0160979 -0.821132 18.9587
0.0236821 -6.93064 20.9988
0.707973 -0.600892 21.7893
0.0153438 -1.93982 22.6189
-0.00461582 -0.313241 14.8748
-0.317465 0.211676 18.7633
-0.00212308 -0.337219 20.9792
0.0251398 0.169649 11.2029
-1.26922 0.675901 16.7915
0.00629627 0.585476 19.6012
0.0174164 1.0061 10.2607
-1.82791 1.65644 17.4699
0.0291107 1.63851 18.7935
-0.0731777 0.314725 3.19571
0.0463385 2.43308 13.5268
-1.78525 1.75676 16.295
0.175419 2.71971 18.5108
0.311278 2.93928 8.08482
0.44 2.66673 15.8363
2.98183 -0.60854 16.526
-0.00835295 3.25341 13.7265
0.00101409 -0.445362 17.6356
0.0880667 -1.4984 2.51052
-0.0253645 1.0837 -5.04422
0.415647 2.32475 -0.795645
-2.12774 0.339051 6.55577
-0.24194 1.8191 -4.19443
0.516342 4.6488 1.21462
1.54638 1.87138 19.1117
0.0253469 1.5339 19.7093
0.0157097 1.25077 18.5962
0.0456359 3.88327 19.5744
2.55582 1.9938 20.5807
0.036048 2.1252 20.6112
0.0480059 5.20796 20.9746
2.18739 1.11967 22.614
0.0113556 1.30947 22.0761
-0.00462802 0.784632 22.5915
0.334029 -0.194889 21.8344
-0.00877108 0.0808068 21.9322
-0.0197311 0.162734 18.5106
0.209122 -0.51711 21.3107
-0.0228677 -0.310337 21.7985
-0.0292879 -0.746476 19.4339
-0.0491845 -0.856018 22.6954
-0.0113399 -0.470504 20.7005
-0.0674287 -0.569055 19.6359
1.0468 -0.580195 19.9868
1.01942 -0.934006 19.798
1.73334 -0.974127 19.197
0.644126 -0.461347 19.6113
2.26619 -1.89651 20.4679
0.964708 -0.731183 21.3951
0.85422 -1.05459 21.7309
1.22706 -1.45555 22.3728
0.121699 -0.63139 21.8751
0.0969636 -0.423027 21.6983
-0.0746069 -0.292008 21.81
-0.147095 -0.696411 21.3363
-0.464202 -0.332917 21.7854
-0.436342 -0.23177 21.8799
-0.665545 0.0597346 21.9693
-0.72504 -0.527854 20.6588
-1.36503 0.160112 21.5207
-1.08676 -0.0323312 21.7475
-1.32558 0.597542 21.6206
-1.9264 -0.110913 20.425
-1.76382 0.659093 20.8771
-1.37796 -0.10099 20.8745
-1.6151 0.751202 21.3898
-2.44136 0.110505 19.5255
-1.70016 0.604327 20.2776
1.55712 -0.268416 19.796
2.61296 0.558685 18.8631
0.973704 -0.228806 19.2129
4.82327 -0.590325 20.5076
1.4734 -0.597165 21.5257
2.56246 -0.703378 21.7859
0.651619 -1.29966 21.6997
0.427877 -0.684722 21.806
1.4003 -1.19716 21.8651
-0.0745232 -0.858541 20.7974
-0.194032 -0.582703 22.0076
0.250006 -0.589394 20.3897
-0.957849 -0.702707 19.5508
-0.93426 -0.648296 21.8843
-0.254835 -0.812313 18.6255
-1.6462 -0.726368 18.1231
-1.10108 -0.640736 21.6571
-0.933424 -1.40991 19.1854
-1.92841 -1.24996 17.6186
1.20246 0.533162 20.0534
0.819535 0.790239 20.1128
0.905644 0.564182 19.4895
1.95527 1.21575 20.3424
1.45812 0.35005 21.0242
1.04581 0.838873 20.9286
2.0213 0.567131 21.5546
0.955417 -0.0147568 21.7379
0.697229 0.410171 21.7013
0.737073 -0.019254 22.1
0.234536 -0.295617 21.8183
0.210574 -0.0940589 21.7396
0.179791 -0.426174 21.8268
-0.119667 -0.510142 21.6736
0.0254927 -0.341776 21.4479
-0.184234 -0.877174 22.071
-0.27468 -0.940055 20.1903
-0.181064 -0.545445 20.7049
-0.203523 -0.734401 22.5742
-1.3415 -0.987776 19.5278
-1.01306 -1.22263 22.0074
0.210279 -0.486911 21.8058
0.775936 -0.287974 21.7333
1.62804 0.224385 21.5948
2.19544 0.35486 20.8624
-2.42925 -0.389986 18.7445
-1.88271 -1.07241 22.5779
-0.214418 -1.15378 21.1107
0.27175 -0.632935 20.5645
1.25713 -0.889042 20.2693
1.81972 -0.721548 21.0422
-1.51022 1.08028 19.6391
-2.11115 0.901868 20.9397
-1.45125 0.286855 22.0473
-0.335062 -0.256024 21.9607
-0.00662048 -0.58855 21.7128
0.258201 -0.663842 21.8361
0.00322655 -2.59288 17.9834
0.00683937 -1.39761 19.3147
-0.0013095 -0.0782758 12.2503
-0.00154195 0.579644 10.2156
0.0348464 1.4478 11.4682
0.224048 2.58067 13.8417
-0.0057373 -0.930504 13.7022
0.0484311 -0.101573 0.196305
0.80907 4.04061 0.0347695
0.0302394 2.8983 18.4511
0.0505036 3.92496 19.7086
0.0127172 3.11131 23.0593
-0.00844502 0.216981 20.725
-0.050774 0.069786 19.6479
-0.0584617 -0.75718 20.192
1.33394 -0.986442 19.5464
0.980726 -1.19785 21.9808
-0.196989 -0.452081 21.8008
-0.859721 -0.182867 21.5725
-1.75721 0.39893 21.3521
-2.07647 0.431295 20.5902
2.43901 -0.399566 18.7376
1.86382 -1.08462 22.61
0.186804 -1.1148 21.1031
-0.286418 -0.586064 20.2898
-1.2552 -0.82992 19.0613
-2.23853 -0.946291 18.5757
1.50097 1.03425 19.6683
2.07521 0.845381 20.9546
1.43521 0.262449 22.0406
0.330244 -0.25803 21.9609
0.0315374 -0.587262 21.7676
-0.230586 -0.620771 22.5937
-1.59394 -0.334864 1.55336
-0.0147065 -0.222402 0.57316
-0.0247295 0.00200521 0.317973
0.137739 -0.0647463 0.449175
0.00472407 0.0265858 0.14928
0.0467061 -0.00797047 0.580732
-1.86907 0.217305 2.29716
-0.0763848 0.658959 0.950046
-0.463237 -0.0345534 1.08909
-0.00498094 -0.0479141 0.0141539
-0.126797 0.0367533 -0.143506
-0.0378359 -0.0752462 0.331381
0.0155391 -0.2237 0.576304
1.57591 -0.332773 1.54068
0.0425702 0.00634459 0.528856
-0.00445193 0.012176 0.0760845
-0.133621 -0.105726 0.631448
-0.0449705 0.00770646 0.387103
0.0750125 0.654388 0.944855
1.85794 0.215328 2.28099
0.464594 -0.0346024 1.0935
0.0932394 0.0524167 -0.188473
0.0162855 -0.0763438 0.0143934
0.0271978 -0.0679867 0.331721
-0.0195805 0.102215 1.18366
0.0379421 0.0204195 1.24056
0 0 0
0 0 0
0.296653 -0.671307 3.40734
0.0286898 -0.00938313 0.915941
0.000472164 0.00468297 0.0706296
0.00105301 7.87763e-05 0.00892339
-0.302404 -0.189469 0.569967
0 0 0
0.00374549 0.0193427 0.113419
-0.0507305 0.0317763 0.0894947
0 0 0
0 0 0
0.00509549 0.0125555 0.0423272
0.112808 -0.0165908 0.651472
0.00310099 0.0426081 0.57769
0 0 0
-0.0642835 0.00634585 1.78783
0 0 0
0 0 0
-0.000441918 3.64113e-05 0.00478746
-0.018968 -0.0046166 0.589418
-0.00150334 0.00273779 0.0428214
0.301843 -0.189441 0.572047
0.0598836 0.0383819 0.10675
0 0 0
-0.00441532 0.0223593 0.130194
0 0 0
-0.113758 -0.0163357 0.652258
0 0 0
-0.0071131 0.0177891 0.0606479
-0.00459762 -0.0104837 0.0789739
0 0 0
-3.50608e-08 1.98532e-06 -5.66838e-05
-0.000598896 -0.75372 0.171653
6.27348e-07 1.81593e-05 0.000742853
-1.06226e-07 1.04193e-08 -1.40223e-06
0 0 0
0 0 0
0 0 0
-0.00133832 -0.0158709 0.000521899
-3.04561e-07 1.26399e-06 0.000533301
0.0170558 0.0130656 0.14146
0.0255957 0.479509 0.357894
0 0 0
0 0 0
-0.00845379 0.00342087 0.018965
0 0 0
0 0 0
0 0 0
-0.00589449 -0.000452837 0.00106959
0 0 0
0.00439357 -0.0101353 0.0756513
2.23156e-08 2.22398e-09 -3.00704e-07
-7.14824e-07 1.86415e-05 0.000851726
0 0 0
0 0 0
0 0 0
-2.63872e-06 -2.84548e-05 0.00255961
0.00842168 0.00340532 0.0189263
0 0 0
0.00556441 -0.000437607 0.00105892
0 0 0
0.00173767 0.00498038 0.0399181
0 0 0
0 0 0
9.37995e-07 1.2991e-05 7.51534e-05
0 0 0
-3.76628e-08 1.89876e-08 2.6169e-05
3.86147e-07 1.29774e-05 6.41676e-05
0 0 0
0 0 0
0.000106425 0.00143325 0.0904339
0 0 0
-0.0797847 0.0809002 0.653568
1.02351e-06 0.000369198 0.000622829
-3.55989e-06 0.0251019 0.0750908
7.80111e-07 -5.288e-06 -0.000322485
-1.13256e-05 -0.000128508 0.00106074
-0.00199279 -7.06086e-05 0.0204415
-0.000560542 0.0022403 0.029663
0 0 0
1.30967e-07 -1.9381e-06 -1.06365e-05
0.00150883 0.0335299 0.181405
0 0 0
0.0840651 0.0839123 0.684929
0 0 0
-0.000492544 -0.000984163 0.00916792
-0.00418675 -0.00064527 0.0405597
0.00503632 -0.00243134 0.0582956
-6.13108e-05 -0.00149071 0.00868401
0.00103254 0.00554199 0.0520073
0 0 0
0 0 0
0 0 0
-0.0605725 0.0135591 0.231607
0 0 0
0.00353198 0.00342161 0.0957513
0 0 0
1.65176e-06 2.76621e-06 -7.52719e-05
2.76687e-08 -4.1936e-08 1.1349e-06
0.00158087 5.09472e-05 0.0192183
-0.0018052 0.000105567 0.0217446
0 0 0
0 0 0
0 0 0
-6.92957e-18 7.9331e-19 7.76507e-17