# vtk DataFile Version 2.0
tri_press
ASCII
DATASET UNSTRUCTURED_GRID
POINTS 3682 float
-0.755 0.245 -2.30139
-0.855 0.385 2.13425
-0.75246 0.915 -2.085
-0.718089 1.295 2.155
0.755 0.245 -2.30139
0.795 0.365 2.16677
0.75246 0.915 -2.085
0.718089 1.295 2.155
-0.827103 0.252897 -0.822843
-0.83954 0.32046 0.655703
-0.828631 1.12929 -0.671667
-0.816884 1.25567 0.741667
0.817864 0.23547 -0.812003
0.828877 0.27779 0.677383
0.82996 1.13062 -0.671667
0.816872 1.25566 0.741667
-1.56527 -0.260723 -3.53033
-1.57187 -0.183242 -2.37218
-1.6237 -0.160602 -0.891179
-1.64193 -0.122035 0.602673
-1.64562 -0.0627232 2.08479
-1.6556 -0.00690123 3.24837
-1.66775 0.0542442 4.40229
-1.56083 0.135274 -3.44737
-1.56586 0.235235 -2.29644
-1.63146 0.279602 -0.829511
-1.63652 0.336149 0.642513
-1.62145 0.393007 2.11067
-1.63953 0.449316 3.27296
-1.65828 0.510644 4.42918
-1.55834 0.884854 -3.2619
-1.56363 0.980583 -2.1072
-1.62914 1.14593 -0.68494
-1.61194 1.25823 0.731726
-1.53865 1.31019 2.15452
-1.58698 1.36757 3.31444
-1.63119 1.42941 4.47843
-1.56349 2.14041 -3.03825
-1.57163 2.25596 -1.89463
-1.59553 2.44161 -0.494035
-1.60357 2.60047 0.890895
-1.59465 2.69749 2.29054
-1.60148 2.75547 3.4322
-1.62159 2.81217 4.58847
-0.774398 -0.257437 -3.53313
-0.765731 -0.177932 -2.37614
-0.811699 -0.178743 -0.886298
-0.833419 -0.141114 0.617639
-0.852547 -0.0743856 2.10762
-0.866094 -0.017788 3.26558
-0.876818 0.0436342 4.41452
-0.773856 0.131982 -3.44748
-0.861943 0.440286 3.2867
-0.872685 0.500982 4.43923
-0.771823 0.85646 -3.25215
-0.812344 1.3593 3.31667
-0.850562 1.42138 4.48238
-0.766588 2.11866 -3.02819
-0.768566 2.23468 -1.88365
-0.789064 2.43265 -0.486489
-0.804955 2.60044 0.892616
-0.806676 2.69603 2.28867
-0.815732 2.75167 3.43069
-0.834421 2.80707 4.58862
0.781795 -0.261277 -3.53072
0.790547 -0.182833 -2.3731
0.820113 -0.195916 -0.876078
0.820781 -0.174097 0.636582
0.787783 -0.0979878 2.13304
0.743636 -0.0364508 3.28549
0.719555 0.0270503 4.42994
0.767251 0.129849 -3.44612
0.730885 0.424159 3.30602
0.713062 0.485772 4.45385
0.768039 0.8551 -3.25122
0.717086 1.35047 3.32577
0.71344 1.40937 4.49318
0.817183 2.11519 -3.02588
0.825485 2.2315 -1.88147
0.824848 2.4287 -0.483857
0.799874 2.59487 0.896076
0.767776 2.68887 2.29333
0.751549 2.74287 3.43692
0.738828 2.79673 4.59626
1.57096 -0.270152 -3.52438
1.58204 -0.195397 -2.3646
1.62614 -0.189818 -0.873807
1.63455 -0.172438 0.632945
1.59705 -0.106999 2.12362
1.55374 -0.0435646 3.28298
1.52536 0.0213319 4.43136
1.55568 0.128844 -3.44324
1.56116 0.228605 -2.29212
1.6247 0.255483 -0.814876
1.63511 0.286887 0.670419
1.58642 0.352809 2.1483
1.54033 0.416456 3.30577
1.51688 0.480054 4.45679
1.55694 0.880449 -3.25894
1.56252 0.978147 -2.1053
1.63059 1.13836 -0.679638
1.62111 1.23969 0.741987
1.53839 1.29022 2.16888
1.51626 1.34538 3.33409
1.50979 1.40438 4.49981
1.61068 2.13258 -3.03308
1.62122 2.24836 -1.88954
1.62864 2.43207 -0.487835
1.60585 2.58745 0.899006
1.56647 2.68134 2.30109
1.54524 2.73669 3.44539
1.53221 2.79093 4.60401
-0.790788 0.58 -2.23025
0 0.269929 -2.27646
-0.810497 0.229503 -1.56212
-0.843958 0.84 2.20204
-0.03 0.372792 2.15272
-0.844947 0.355053 1.39498
0 0.966471 -2.13647
-0.826223 1.05782 -1.37833
0 1.32223 2.18223
-0.802245 1.31009 1.44833
0.790523 0.58 -2.22999
0.79698 0.229687 -1.5567
0.823567 0.83 2.22791
0.783428 0.349905 1.42208
0.826216 1.05782 -1.37833
0.802334 1.31018 1.44833
-0.833309 0.286691 -0.08357
-0.842857 0.691096 -0.747255
-0.00461976 0.2135 -0.817423
-0.839746 0.788065 0.698685
-0.00533157 0.231043 0.666543
-0.822244 1.19197 0.035
0.000664682 1.46383 -0.671667
-6.00856e-06 1.70263 0.741667
0.825279 0.254721 -0.06731
0.843019 0.683047 -0.741835
0.840225 0.766724 0.709525
0.822564 1.19229 0.035
-0.896572 0.635548 -1.47023
0.896617 0.631523 -1.46752
-0.00230988 0.218802 -1.55941
0.000332341 1.14023 -1.37833
0 0.58 -2.41229
-0.840978 0.73958 -0.024285
0.841281 0.724885 -0.016155
-0.00497567 0.213653 -0.07544
0.000329337 1.70161 0.035
-0.876096 0.814033 1.42166
0.883765 0.798362 1.43521
-0.0176658 0.274047 1.40853
-3.00428e-06 1.53009 1.44833
-0.015 0.835 2.37381
-0.759182 0.4125 -2.25211
-0.3775 0.269941 -2.27645
-0.793708 0.226292 -1.93175
-0.849685 0.6125 2.16835
-0.4425 0.363799 2.15858
-0.85118 0.36882 1.76461
-0.792771 0.7475 -2.17877
-0.37623 0.955627 -2.12563
-0.818221 1.01529 -1.73167
-0.785368 1.0675 2.18286
-0.359044 1.32214 2.18214
-0.771875 1.31426 1.80167
0.3775 0.26994 -2.27645
0.759156 0.4125 -2.25208
0.787064 0.226269 -1.92904
0.3825 0.367506 2.16113
0.840533 0.5975 2.22859
0.7869 0.359766 1.79442
0.37623 0.955605 -2.12561
0.792651 0.7475 -2.17865
0.818211 1.01528 -1.73167
0.359044 1.32206 2.18206
0.775265 1.0625 2.19589
0.771275 1.31366 1.80167
-0.827783 0.232217 -1.19248
-0.830229 0.269771 -0.453207
-0.849317 0.464828 -0.785049
-0.420449 0.224022 -0.820133
-0.863892 0.316108 1.02534
-0.836465 0.303535 0.286067
-0.837109 0.55553 0.677194
-0.442321 0.235981 0.661123
-0.827791 1.09392 -1.025
-0.837062 0.910854 -0.709461
-0.825575 1.16077 -0.318333
-0.481864 1.43232 -0.671667
-0.81383 1.28715 1.095
-0.832528 1.02397 0.720176
-0.819415 1.22367 0.388333
-0.517037 1.69633 0.741667
0.80692 0.23308 -1.18435
0.406594 0.224541 -0.814713
0.823975 0.242691 -0.439657
0.849898 0.44953 -0.776919
0.785467 0.334533 1.04973
0.42102 0.235921 0.671963
0.827093 0.26624 0.305037
0.84481 0.517127 0.693454
0.827777 1.09391 -1.025
0.482763 1.43213 -0.671667
0.837092 0.907136 -0.706751
0.825907 1.1611 -0.318333
0.813822 1.28714 1.095
0.517028 1.69633 0.741667
0.832927 1.01338 0.725596
0.819942 1.2242 0.388333
-0.896099 0.607774 -1.85024
-0.395394 0.58 -2.36987
-0.00115494 0.220404 -1.91793
0 0.424965 -2.40087
-0.898936 0.432525 -1.51617
-0.406404 0.222033 -1.56076
-0.850935 0.827016 1.81185
-0.429479 0.8375 2.3471
-0.0238329 0.317257 1.78062
-0.0225 0.603896 2.425
-0.897098 0.584543 1.40832
-0.431307 0.275702 1.40175
0.000166171 1.06723 -1.7574
0 0.773235 -2.3732
-0.859284 0.846686 -1.42428
-0.412945 1.14015 -1.37833
-1.50214e-06 1.34349 1.81528
-0.0075 1.07861 2.31357
-0.838997 1.06206 1.43499
-0.401124 1.5301 1.44833
0.896141 0.605762 -1.84875
0.395261 0.58 -2.36989
0.898954 0.430605 -1.51211
0.397335 0.222034 -1.55805
0.850919 0.814181 1.83156
0.404284 0.8325 2.35023
0.897239 0.574134 1.42864
0.382881 0.275354 1.4153
0.85975 0.84467 -1.42292
0.413274 1.14014 -1.37833
0.839442 1.05427 1.44177
0.401165 1.5301 1.44833
-0.846902 0.508256 -0.0539275
-0.432 0.224457 -0.079505
-0.859143 0.663322 -1.10874
-0.84177 0.715338 -0.38577
-0.00346482 0.217141 -1.18842
-0.00479771 0.213617 -0.446432
-0.840184 0.763823 0.3372
-0.840594 0.801049 1.06017
-0.00515362 0.213709 0.295552
-0.0114987 0.231434 1.03754
-0.833739 0.966839 0.00535747
-0.522672 1.67022 0.035
0.000498512 1.25891 -1.025
0.000497009 1.61534 -0.318333
0.000161664 1.722 0.388333
-4.50642e-06 1.63795 1.095
0.847908 0.482489 -0.0417325
0.415168 0.224155 -0.071375
0.859279 0.657285 -1.10468
0.842051 0.703966 -0.378995
0.840558 0.745805 0.346685
0.841148 0.782543 1.07237
0.834155 0.959704 0.00942248
0.523024 1.6701 0.035
-0.89816 0.422513 -1.891
-0.889932 0.452261 -1.15061
-0.853178 0.87844 -1.06687
-0.871471 0.797093 -1.79095
0.898184 0.421553 -1.8889
0.871976 0.796085 -1.79021
0.853252 0.875753 -1.06484
0.888379 0.444932 -1.14451
-0.391952 0.221882 -1.92484
0.387417 0.221883 -1.92349
0.401978 0.222185 -1.18638
-0.411133 0.222184 -1.19045
-0.394588 1.06819 -1.74453
-0.413464 1.22869 -1.025
0.414293 1.22738 -1.025
0.394752 1.06819 -1.74453
-0.386447 0.418732 -2.34674
-0.385812 0.760368 -2.31466
0.385746 0.760368 -2.31455
0.386381 0.418732 -2.34711
-0.848188 0.486503 -0.419488
-0.829148 0.538321 0.311633
-0.832022 0.994851 0.362767
-0.835189 0.938741 -0.352052
0.848928 0.465997 -0.409326
0.835518 0.933367 -0.348664
0.83245 0.985997 0.367509
0.846789 0.499593 0.325861
-0.425855 0.224979 -0.449819
0.41065 0.224809 -0.443044
0.41954 0.227145 0.300294
-0.438736 0.227069 0.290809
-0.515578 1.57789 -0.318333
-0.530535 1.70464 0.388333
0.530693 1.70455 0.388333
0.516163 1.57766 -0.318333
-0.881287 0.569403 1.04276
-0.89566 0.598521 1.78823
-0.846501 1.06478 1.80676
-0.833848 1.04197 1.07759
0.884617 0.548195 1.06105
0.83419 1.03273 1.08368
0.846617 1.05839 1.81661
0.895527 0.585817 1.81299
-0.426871 0.230595 1.03144
0.397327 0.230613 1.04363
0.382691 0.309639 1.78752
-0.436903 0.319941 1.77262
-0.404784 1.63795 1.095
-0.380084 1.33543 1.80847
0.380105 1.33545 1.80847
0.404799 1.63795 1.095
-0.43599 0.608198 2.3996
0.393392 0.600698 2.40257
0.381664 1.07056 2.28926
-0.394262 1.07306 2.29128
-0.744152 0.32875 -2.26381
-0.56625 0.242129 -2.30426
-0.778058 0.231942 -2.11657
-0.849708 0.49875 2.14867
-0.64875 0.36821 2.15261
-0.855728 0.374272 1.94943
-0.773616 0.83125 -2.13289
-0.564345 0.945852 -2.11585
-0.794509 0.974315 -1.90833
-0.765773 1.18125 2.18298
-0.538567 1.31525 2.17525
-0.762121 1.32177 1.97833
0.56625 0.24211 -2.30428
0.743202 0.32875 -2.26286
0.777785 0.228881 -2.11522
0.58875 0.368168 2.16204
0.825746 0.48125 2.20566
0.787261 0.366072 1.9806
0.564345 0.945828 -2.11583
0.773613 0.83125 -2.13288
0.7945 0.974305 -1.90833
0.538567 1.31525 2.17525
0.761215 1.17875 2.18998
0.762127 1.32177 1.97833
-0.825488 0.244512 -1.00766
-0.828686 0.261314 -0.638025
-0.85161 0.352162 -0.803946
-0.628352 0.229307 -0.821488
-0.840925 0.329075 0.840522
-0.838123 0.311877 0.470885
-0.849078 0.432618 0.666449
-0.660328 0.239426 0.658413
-0.82926 1.11266 -0.848333
-0.845657 1.02648 -0.690564
-0.826379 1.14431 -0.495
-0.694343 1.359 -0.671667
-0.815356 1.27141 0.918333
-0.842291 1.14862 0.730921
-0.818003 1.23952 0.565
-0.692046 1.52617 0.741667
0.810924 0.235743 -0.998177
0.612674 0.229115 -0.813358
0.821935 0.238065 -0.62583
0.847593 0.335644 -0.794461
0.829628 0.283706 0.863557
0.633354 0.240045 0.674673
0.827971 0.272029 0.49121
0.850771 0.390495 0.685419
0.82925 1.11265 -0.848333
0.694889 1.35843 -0.671667
0.845736 1.02499 -0.689209
0.826662 1.14459 -0.495
0.815345 1.2714 0.918333
0.69203 1.52616 0.741667
0.842633 1.14339 0.733631
[...]
POINT_DATA 3682
SCALARS point_scalars float 1
LOOKUP_TABLE default
-85.1196
-61.9567
-57.5391
-44.7987
-84.7203
-62.2
-57.394
-43.2631
-42.2089
-42.0032
-65.5019
-52.215
-41.8783
-43.9999
-65.6325
-52.0385
-80.9055
-112.465
-42.8586
-41.9219
-59.0597
-55.1401
-51.5581
-80.9055
-114.268
-43.0433
-41.125
-59.8604
-50.7932
-50.7932
-3.17345
-115.778
-60.1623
-49.6436
-52.6347
-48.0219
-48.6894
-62.0823
-72.2841
-87.1739
-66.6907
-43.7237
-44.9876
-44.5819
71.7913
-104.184
-44.502
-43.8222
-57.9187
-51.2503
-49.4238
71.7913
-49.2011
-48.7761
163.586
-43.882
-47.9927
-16.7379
-41.3252
-76.975
-65.9629
-43.7237
-40.5631
-40.1033
71.7222
-103.256
-43.3093
-45.9969
-56.4298
-51.1653
-50.9138
71.7222
-48.5416
-48.5167
163.487
-40.7705
-47.3678
-35.8843
-47.1036
-77.9572
-65.89
-42.3522
-39.1093
-38.1701
-80.6081
-114.617
-41.7175
-42.8217
-58.0021
-51.6726
-49.6275
-80.6081
-115.54
-42.8024
-41.6512
-58.102
-50.1398
-48.5463
-3.12099
-116.668
-59.7997
-49.3684
-50.5763
-44.962
-46.5789
-73.2443
-72.4469
-87.4902
-66.6698
-42.5573
-43.3216
-42.3799
-38.5181
-155.004
-62.3318
-54.3721
-54.413
-50.1602
-39.1893
-57.3999
-38.5652
-50.624
-38.4547
-62.195
-51.8587
-48.6208
-57.2833
-50.3657
-40.4439
-47.5308
-49.1206
-42.7315
-48.1279
-57.7965
-10.5776
-71.7569
-40.9375
-46.9762
-41.846
-57.7492
-66.0239
-65.6806
-71.2622
0.517457
205.119
-45.1794
-45.1421
-45.0865
-98.8996
-50.7044
-50.445
-54.159
-43.6814
-46.2879
-32.5712
-196.34
-93.1143
-59.3476
-56.5367
-52.66
-51.763
-41.318
-70.2854
-48.5584
-38.8766
-44.822
-196.476
-32.451
-92.326
-54.5463
-57.7385
-52.4445
-41.5092
-51.13
-70.2219
-38.0497
-46.2378
-44.2657
-55.0857
-41.2179
-44.7159
-47.8931
-54.8859
-41.4069
-40.5685
-47.3567
-58.2313
-52.526
-61.2926
-24.8653
-51.1387
-46.5321
-54.6441
-69.292
-54.302
-47.7231
-40.5584
-43.9854
-54.7662
-47.8977
-43.5028
-40.6347
-58.0213
-24.928
-52.1679
-61.288
-50.9501
-69.2764
-46.4961
-54.682
-100.579
191.664
-101.075
161.424
-66.3005
-69.1925
-52.5922
-46.7496
-53.7676
-49.2983
-51.0798
-52.9659
-29.745
118.584
-63.5806
-9.84061
-39.2929
-41.8153
-48.8648
-44.9793
-100.333
191.629
-65.8676
-69.6325
-51.9732
-45.7402
-50.3192
-52.7109
-63.3739
-9.87556
-48.4377
-44.9373
-42.7514
-43.9697
-51.6632
-45.1417
-56.2226
-45.5211
-44.3308
-42.7409
-47.1973
-54.1917
-49.4592
-86.3269
29.66
-69.1565
-90.1747
-54.5773
-42.549
-44.3222
-51.0898
-44.9124
-43.8631
-40.5621
-49.5492
-86.2227
-106.227
-55.7819
-52.6913
-84.3186
-105.634
-84.2697
-52.401
-55.0248
-99.9706
-99.7187
-55.6023
-55.6336
-34.1511
13.6019
14.0353
-34.1335
164.173
111.907
111.592
163.902
-42.1754
-41.6385
-48.2147
-51.2732
-41.6553
-50.9206
-48.1656
-42.4726
-44.2739
-44.3944
-46.5283
-46.0369
-73.4855
-79.9981
-79.9403
-73.5301
-38.5279
-57.2132
-48.9711
-46.7651
-40.4561
-46.522
-48.1359
-56.7394
-53.6774
-54.0329
-53.4714
-52.5436
-55.7387
-40.3041
-40.0577
-55.719
-48.9131
-48.762
-41.4306
-43.1542
-14.3549
-202.54
-113.168
-61.4913
-59.2018
-58.0558
-36.7706
-43.6493
-70.9393
-47.2114
-40.306
-43.2876
-202.289
-14.3295
-115.081
-57.6594
-59.597
-55.2148
-43.7464
-36.6843
-70.9257
-39.0475
-45.4268
-42.4437
-46.1242
-41.7272
-42.9063
-45.5018
-43.19
-41.6146
-40.7877
-45.998
-64.7534
-58.2603
-63.4643
-79.2543
-51.2855
-49.0767
-52.9866
-59.4718
-43.4088
-45.4556
-40.8911
-42.4089
-47.4454
-47.0908
-42.7446
-41.3484
-64.4032
-79.1007
-58.1194
-63.4129
-51.2028
-59.3655
-48.8366
-53.0225
-38.8308
-49.5641
-115.549
152.327
-161.606
-161.604
-114.94
105.608
-73.5647
-55.929
-65.3075
-66.1388
-58.2392
-51.4934
-52.0229
-46.8369
-54.911
-54.4119
-54.1743
-50.3476
-51.0616
-51.1761
-50.4522
-54.2515
-38.1521
-37.7834
-38.7619
41.099
-66.1725
-54.1539
-62.745
-25.0511
-38.6657
-38.2928
-39.4484
-36.1199
-48.1698
-51.2462
-49.542
-47.6182
-38.8707
-49.6909
-115.483
152.503
-73.0418
-55.8912
-64.8849
-66.1257
-55.6359
-48.9656
-51.2248
-46.043
-49.1829
-48.7377
-49.4333
-49.1206
-66.0497
-54.0171
-62.5115
-25.0249
-47.5288
-50.993
-49.0626
-47.5248
-40.3215
-40.9961
-41.3342
-42.2979
-45.9495
-49.7207
-48.67
-45.3746
-48.8555
-48.7595
-52.1751
-46.8953
-40.9798
-44.7897
-43.5897
-41.9757
-47.7587
-47.9002
-50.0048
-50.0586
-59.2645
-56.0401
-53.9536
-70.8556
-11.396
-11.3865
19.1943
-42.9217
-71.5958
-71.5784
-81.4863
-62.4472
-40.4009
-42.1494
-41.7222
-42.99
-45.7682
-49.2971
-48.3498
-45.0076
-40.7905
-44.4154
-43.1593
-41.5884
-59.3484
-56.1012
-54.0106
-70.7661
-78.7931
-66.3931
-66.0586
-60.0836
-78.4848
-65.9861
-65.8244
-59.7841
-82.3637
-70.6412
-70.5933
-62.4886
-13.436
-2.54756
-2.52209
14.9111
201.124
195.615
193.035
200.979
-43.954
-45.2123
-44.9223
-47.3958
-43.5538
-45.0581
-45.4044
-47.3836
-44.784
-44.9505
-45.8355
-44.9319
-96.2426
-91.3232
-98.3704
-96.2137
-54.0481
-51.2701
-49.6526
-46.7792
-53.4824
-50.7902
-49.1821
-47.3126
-53.6627
-53.9873
-53.6861
-55.08
-40.8553
-43.959
-43.9515
-48.2695
-46.3849
-49.0775
-43.5538
-45.9031
-112.909
167.836
-120.746
119.022
-106.461
-94.0913
-55.7526
-48.9661
-55.3318
-50.7636
-54.654
-51.8341
-118.638
89.0301
-43.9116
47.4176
-88.0853
-42.6937
-49.9199
-44.7918
-39.8337
-38.6574
-47.3941
-41.4054
-120.78
119.362
-113.432
167.941
-105.975
-94.1524
-55.3578
-49.856
-54.2992
-48.3717
-53.9514
-53.9822
-43.8951
47.3224
-118.417
88.9335
-87.8671
-42.665
-39.4842
-36.6991
-48.8852
-42.9267
-46.5663
-41.0684
-58.2371
-53.9825
-41.0901
-42.6091
-46.3389
-42.7308
-50.8092
-45.5611
-40.3037
-53.3505
-41.2959
-44.612
-41.7965
-37.7494
-47.4693
-49.6264
-55.7062
-13.1018
-52.8047
-51.3743
-55.7665
-81.9405
6.94812
-52.8376
-48.4151
-58.3041
-47.241
-46.1899
-50.8959
-64.2975
-75.2747
-63.3271
-57.7286
-54.1686
-50.236
-45.5881
-40.9621
-42.7598
-45.6683
-42.5112
-44.3735
-54.7613
-47.5838
-50.0792
-42.0027
-45.3498
-41.9062
-37.3195
-55.4561
-13.6392
6.92649
-52.8541
-52.5185
-51.109
-55.7822
-81.9981
-48.2145
-58.261
-75.1113
-63.3029
-47.0399
-45.9134
-50.835
-64.2844
-104.4
-92.1525
176.822
166.242
-101.337
-101.287
155.77
153.556
-80.0224
-59.1056
-81.0454
-61.3157
-56.6175
-50.293
-48.9862
-44.1901
-53.8342
-53.5956
-49.2293
-49.1279
-50.1723
-52.7806
-56.9606
-51.761
-30.0408
-30.0076
119.032
122.553
-56.1389
-73.1775
-21.1072
1.72214
-39.6025
-39.4611
-41.1659
-42.0426
-49.4113
-47.8955
-49.6817
-41.7683
-103.92
-92.0737
166.143
176.878
-79.5995
-58.6103
-80.7809
-61.2824
-49.5255
-55.946
-48.8369
-42.9451
-49.8074
-52.0194
-53.6185
-52.5509
-72.9837
-55.926
1.30836
-21.0674
-47.5556
-48.6989
-41.6775
-49.6545
-42.2853
-42.9433
-43.7289
-44.7762
-53.3266
-51.4925
-43.2146
-47.8962
-56.2617
-56.1909
-45.226
-45.2632
-42.5972
-46.3185
-39.5645
-45.2249
-47.0703
-46.8823
-53.9175
-54.1753
-49.5781
-50.4782
-82.4943
-84.097
25.746
25.5852
-65.8471
-65.8216
-88.8186
-88.7892
-54.8553
-54.8473
-42.245
-42.7477
-43.9744
-45.2197
-51.087
-52.7009
-42.9473
-47.6206
-46.1928
-43.166
-40.0385
-45.0801
-50.1893
-49.6411
-84.065
-82.6105
-107.969
-78.758
-79.7553
-116.359
-45.4895
-47.3806
-59.5021
-58.2237
-58.1509
-57.5257
-57.9393
-50.3409
-116.655
-114.189
-77.7427
-72.2744
-108.959
-116.648
-79.3867
-78.343
-116.692
-72.0766
-77.3903
-113.884
-57.8469
-50.0154
-57.7793
-57.2923
-44.5162
-57.7067
-59.0293
-46.941
-115.622
-117.506
-82.6209
-77.1462
-115.797
-77.1322
-82.5776
-117.486
-47.6747
-51.4728
-62.2296
-58.8897
-48.6128
-58.8586
-62.2891
-51.7423
-48.4425
-32.038
-15.5957
-39.9844
-55.5077
17.369
10.8546
-17.2689
-55.3316
-17.1758
11.1465
17.3827
-48.3914
-39.9442
-15.576
-32.0011
156.898
162.815
193.756
100.063
49.6911
39.5693
177.5
129.395
49.9286
129.548
177.735
37.0362
157.627
96.421
193.8
163.589
-41.7118
-41.0221
-43.4862
-44.1002
-41.3174
-42.23
-43.2751
-41.5899
-49.7586
-53.9228
-47.1608
-45.4586
-57.3172
-47.9224
-47.6851
-54.6009
-41.2703
-43.876
-43.3445
-41.2041
-57.1446
-54.58
-47.4776
-47.5823
-49.6478
-45.2162
-47.1658
-53.9002
-41.6823
-41.9491
-44.2349
-42.6587
-43.5936
-46.5989
-44.6463
-42.0484
-43.6787
-42.4807
-44.7444
-46.5706
-45.3652
-49.6826
-45.7413
-44.387
-44.8168
-43.5191
-45.5551
-49.5317
-83.9998
-75.0055
-88.7215
-43.2383
-61.2945
-80.766
-96.0426
-66.6609
-61.1759
-66.6059
-96.0247
-80.7419
-83.5654
-42.9701
-88.6956
-74.9889
-38.7914
-50.7685
-48.8845
-38.7159
-59.2178
-52.7933
-53.9999
-51.4214
-47.7346
-48.6267
-51.2991
-51.2957
-48.5471
-44.3889
-47.0443
-49.5572
-38.4254
-38.4042
-48.7085
-49.5185
-48.1672
-49.2811
-46.7449
-44.025
-46.6497
-50.3788
-50.5719
-48.0212
-57.905
-50.6959
-53.1297
-51.87
-50.4261
-49.8057
-55.8532
-54.2254
-51.7511
-50.4161
-54.6572
-49.9875
-55.7856
-54.4167
-53.306
-49.584
-56.087
-50.2057
-53.2549
-54.5061
-57.1489
-52.9421
-48.5744
-62.636
-40.3322
-39.5597
-41.0772
-43.5143
-39.8377
-43.3489
-41.0485
-39.3805
-57.0377
-62.6244
-48.5668
-52.8815
-51.5039
-50.334
-48.9068
-48.7507
-50.7609
-48.4629
-48.952
-50.2723
-40.9787
-35.6209
-43.3306
-44.7098
-42.894
-46.0185
-43.8771
-36.6547
-32.8812
-143.874
-152.482
-63.6048
-60.9509
-55.6944
-39.265
-42.3048
-70.7468
-46.111
-41.566
-44.2735
-142.88
-32.3259
-151.018
-60.2497
-65.2394
-55.4334
-43.1134
-39.1511
-70.8168
-40.133
-44.3955
-43.0796
-43.4375
-41.9522
-42.5244
-43.6839
-42.7148
-41.9405
-41.3019
-43.9366
-66.2467
-61.4856
-64.8986
-79.5658
-51.8163
-50.4138
-52.5591
-55.1721
-42.4636
-43.9201
-41.2931
-41.9916
-45.8992
-46.5214
-43.4603
-42.2351
-66.4238
-79.5069
-61.4545
-64.9979
-51.7306
-55.0581
-50.1202
-52.4901
-38.7397
-41.3502
-126.837
77.8868
-154.965
-154.782
-128.142
-1.97215
-67.1504
-58.4025
-64.019
-63.9522
-55.991
-53.3148
-53.4878
-48.0969
-54.6084
-54.3835
-54.4953
-52.0434
-50.9629
-51.5146
-50.805
-51.6391
-39.5083
-39.7147
-40.2009
6.21493
-61.6193
-55.7384
-62.3316
-40.1363
-38.526
-38.3447
-39.5727
-35.399
-49.3211
-51.1994
-50.0276
-50.1789
-38.6147
-41.3185
-126.46
77.9774
-66.8878
-58.5405
-63.7072
-63.9673
-54.3906
-50.2642
-53.6054
-46.5073
-48.6611
-48.1219
-49.0698
-48.544
-61.5104
-55.3875
-62.1851
-40.0716
-48.9754
-50.9734
-49.7477
-50.0223
-40.5287
-41.0112
-40.7596
-40.6377
-46.7213
-48.4726
-49.2753
-45.7891
-49.0776
-49.0298
-50.5711
-47.8952
-41.6425
-43.7572
-43.1883
-42.2655
-48.0013
-48.09
-49.028
-49.0215
-58.3909
-56.6131
-55.6553
-63.4107
-10.709
-10.7155
4.79421
-25.9804
-71.732
-71.7239
-76.0756
-67.435
-40.7613
-41.5324
-41.3117
-41.9638
-46.1877
-47.9362
-48.8206
-45.4194
-40.9437
-43.3139
-42.4866
-41.279
-58.4104
-56.605
-55.5373
-63.3838
-71.5809
-66.3456
-65.8078
-62.2109
-71.232
-65.9708
-65.4993
-61.776
-76.6406
-70.8743
-70.8599
-66.3386
-7.07173
-0.235795
-0.20345
7.61183
201.548
201.587
200.735
201.668
-44.1213
-45.2115
-45.0502
-46.2106
-44.1478
-45.091
-45.2624
-46.2132
-44.9854
-44.9263
-45.3582
-45.0626
-98.4036
-98.6989
-99.5261
-98.3847
-53.0893
-50.7827
-50.2429
-49.4671
-52.3379
-50.7354
-49.811
-48.7
-53.8469
-54.1803
-53.9768
-54.6861
-42.0932
-43.7591
-43.7573
-45.7639
-46.3189
-47.524
-45.1761
-46.0702
-25.1309
-34.1275
-101.677
111.823
-218.205
-178.099
-141.052
38.3388
-104.853
-81.597
-101.705
-91.3064
-60.1066
-59.0515
-54.0227
-51.1881
-58.1834
-55.4232
-54.8047
-53.1279
-54.2333
-52.6945
-53.2768
-52.2626
-45.3254
-56.0969
-126.123
43.9818
-41.895
-36.8172
-51.5023
2.47972
-73.9637
-71.029
-85.1087
-51.2629
-48.0604
-49.7459
-54.2094
-45.4125
-39.3761
-38.6981
-39.5132
-37.934
-43.0836
-45.4182
-46.0737
-42.4021
-218.17
-178.207
-141.021
39.0782
-25.2635
-34.0355
-101.174
111.616
-106.437
-80.9442
-101.056
-91.2867
-55.8421
-54.3929
-53.8474
-51.2903
-58.0803
-56.7052
-54.8315
-49.9897
-53.3523
-50.608
-52.4243
-52.9309
-41.9711
-36.578
-51.3611
3.11034
-45.3293
-56.0647
-125.968
43.9195
-73.888
-70.9212
-85.0506
-51.226
-38.37
-38.1122
-39.0685
-36.1581
-46.0447
-47.5331
-52.6193
-43.8283
-42.477
-45.1097
-45.3796
-42.0507
-50.6164
-53.6336
-57.6163
-53.0626
-41.7607
-40.6278
-40.5854
-41.1952
-43.763
-45.3592
-45.725
-43.2157
-46.9942
-48.3921
-49.5289
-46.5302
-43.0938
-55.264
-44.393
-57.9533
-41.3674
-41.8789
-41.1175
-43.4126
-40.5793
-40.8232
-41.3305
-39.1671
-46.8722
-47.5281
-47.2317
-48.4242
-64.0589
-56.3942
-58.403
-38.5717
-54.7238
-51.236
-54.4386
-51.457
-62.242
-60.2948
-58.4536
-70.3886
-45.684
-13.1551
-9.66083
-37.4093
-51.2063
-51.0369
-50.1995
-53.6507
-47.7663
-45.8364
-46.9105
-46.2685
-53.6646
-55.8167
-52.6564
-59.2733
-66.3798
-71.3223
-72.2158
-68.0629
-48.0787
-53.8736
-57.0271
-53.4453
-46.8977
-48.2706
-49.3903
-46.4481
-40.6186
-40.7475
-40.743
-41.705
-43.1089
-44.8503
-45.1057
-42.7547
-58.2957
-49.5121
-48.6822
-54.9691
-47.6441
-47.8535
-47.274
-48.942
-42.9768
-42.9051
-42.2429
-45.1102
-40.7879
-41.137
-41.4722
-38.8044
-63.7519
-56.2535
-58.1712
-39.0165
-46.0285
-13.1698
-9.69104
-37.4746
-54.421
-50.8277
-54.2875
-51.1423
-62.1914
-60.3154
-58.3589
-70.3845
-51.0392
-50.844
-50.0799
-53.4746
-66.3596
-71.2959
-72.1897
-68.0454
-47.6715
-45.5448
-46.7287
-46.1159
-53.7222
-55.8207
-52.587
-59.2547
-105.921
-88.2948
-102.932
-97.3307
180.397
195.361
186.053
184.096
-110.053
-90.1619
-101.472
-101.482
135.55
183.711
155.878
154.037
-65.7877
-66.4239
-72.2519
-61.9716
-67.9697
-70.4049
-74.3716
-64.9248
-51.5772
-53.8731
-54.5668
-51.0085
-46.9293
-46.5535
-47.6196
-45.6157
-54.2681
-53.5841
-53.8423
-53.6634
-49.3986
-49.3812
-49.3161
-49.2663
-50.7605
-51.2299
-50.7025
-51.7406
-52.7768
-53.6485
-54.5751
-52.4781
-37.0304
-19.947
-30.0679
-30.0096
85.0603
168.039
113.56
113.963
-62.4236
-65.3582
-59.5833
-68.4435
-16.4466
-5.54415
-15.6213
-3.77693
-39.3526
-39.8278
-39.4512
-39.3741
-39.1181
-42.7197
-41.2964
-41.7848
-48.746
-49.1511
-49.2783
-48.4429
-46.0486
-44.3292
-47.1359
-43.1159
-105.975
-87.9566
-102.489
-97.105
180.238
195.287
184.019
186.067
-65.3845
-66.0113
-71.8017
-61.4758
-67.9654
-70.0362
-74.5793
-64.7061
-50.6496
-53.094
-50.2747
-53.7888
-45.9385
-45.798
-47.3413
-44.564
-49.9144
-50.5427
-49.9522
-50.9645
-51.3422
-53.2915
-53.0465
-52.6002
-62.2006
-65.1831
-68.2581
-59.3243
-16.4512
-5.54391
-3.8206
-15.6279
-48.4263
-48.6688
-48.0603
-48.7256
-45.9803
-44.309
-43.1373
-47.1038
-41.9311
-43.7197
-42.4731
-42.7813
-43.2568
-44.4413
-43.6771
-44.343
-49.4263
-56.2575
-52.5318
-51.2967
-45.1801
-45.181
-44.0201
-46.4244
-53.9436
-59.1542
-56.0773
-56.3294
-46.0904
-45.1342
-45.4446
-45.4689
-43.9582
-44.6946
-43.3672
-45.2592
-42.2795
-44.2105
-40.5226
-44.3435
-48.1886
-46.438
-47.1733
-47.0767
-51.4185
-55.468
-54.2226
-54.2686
-51.1169
-48.6263
-49.5625
-49.9177
-81.5129
-92.5275
-85.4341
-85.0865
28.2294
22.4466
28.6937
28.4265
-56.344
-79.4423
-67.5303
-67.495
-85.9883
-94.925
-89.9299
-89.9177
-58.4005
-51.222
-54.6509
-54.6469
-42.067
-43.1341
-42.3698
-42.6733
-43.7174
-44.6924
-43.9675
-44.7405
-48.9985
-55.8101
-50.834
-52.0528
-44.9746
-45.0132
-43.8133
-46.1624
-43.7674
-44.7245
-45.1567
-43.2606
-41.9165
-44.3868
-40.7794
-43.601
-51.5838
-48.704
-49.8606
-49.5548
-81.3395
-92.497
-84.9448
-85.5086
-125.908
-106.747
-105.481
-90.265
-56.8361
-50.1207
-57.4422
-54.5527
-53.9318
-52.3832
-53.959
-51.9255
-95.7102
-84.7244
-87.509
-77.9347
-125.683
-106.172
-104.993
-89.817
-95.5564
-84.4786
-87.4934
-77.8508
-53.6542
-52.0928
-53.7731
-51.6103
-56.1812
-49.2176
-57.0587
-53.9925
-110.001
-97.6442
-101.342
-89.6111
-110.059
-97.7438
-101.245
-89.8989
-54.9442
-52.2341
-58.1401
-56.075
-54.9263
-52.791
-58.2049
-56.0696
-39.8206
-37.735
-31.5729
-27.0361
3.41577
14.5616
8.68816
21.1943
3.78462
14.801
8.16256
21.0601
-39.7857
-37.7178
-31.5552
-27.011
169.683
155.692
168.966
157.231
105.694
82.1775
142.589
116.947
81.7283
105.405
115.796
142.381
155.528
169.332
156.435
168.897
-41.6421
-42.231
-42.1835
-42.7559
-41.2417
-41.4498
-42.6454
-42.1826
-47.6178
-49.4276
-47.4048
-49.1695
-51.3062
-53.4065
-49.5754
-50.912
-41.4384
-41.8346
-42.1237
-42.3188
-51.0367
-53.45
-49.2976
-50.6752
-47.4967
-49.3875
-47.3104
-48.9544
-42.1955
-42.2122
-42.6679
-42.8087
-43.5183
-44.7982
-43.9149
-44.824
-44.8769
-43.6278
-44.9049
-44.0952
-47.4585
-46.0556
-46.8339
-45.9723
-45.4676
-46.6675
-45.4879
-46.4901
-85.304
-64.7071
-77.0953
-65.018
-71.3508
-77.8897
-81.9215
-86.5081
-77.766
-71.4342
-86.4616
-81.9153
-64.6771
-85.4015
-65.0646
-77.1294
-39.062
-35.2779
-47.3243
-38.4576
-59.236
-56.0137
-57.7457
-54.3684
-48.9702
-48.2715
-49.6254
-49.0773
-47.3934
-46.2328
-47.2832
-46.0945
-41.9545
-35.4631
-48.42
-38.9376
-47.1154
-45.9828
-47.0723
-45.8272
-48.1278
-47.2992
-48.846
-48.2847
-56.8248
-55.8119
-57.0257
-53.6002
-52.6335
-50.537
-55.7463
-53.7642
-53.4213
-51.0043
-54.981
-54.1727
-55.8127
-53.8733
-53.3855
-52.7027
-54.9396
-51.6853
-52.749
-52.1933
-56.8948
-59.5051
-52.6754
-55.1909
-40.1329
-40.8388
-39.9635
-40.8561
-39.8447
-40.5518
-39.7695
-40.6898
-56.8732
-59.4849
-52.6519
-55.1778
-48.7745
-49.3877
-49.0793
-49.1153
-49.1111
-48.5155
-48.9902
-48.8504
-39.3244
-41.758
-41.4329
-42.4262
-43.7374
-40.9743
-43.9478
-42.6194
-105.081
121.951
-152.498
50.4375
-113.775
-114.044
-56.8994
-53.5433
-56.2992
-55.261
-59.3389
-57.6347
-106.815
22.1971
-55.0442
17.587
-100.781
-55.1402
-50.8627
-44.4102
-39.9064
-41.5054
-46.4395
-40.8002
-152.377
50.7406
-103.985
122.041
-116.181
-114.724
-55.6901
-54.3236
-59.6363
-52.616
-57.6593
-54.9803
-55.0824
17.5839
-106.865
22.1302
-100.696
-55.1088
-39.1457
-39.5594
-49.4552
-42.7548
-45.2462
-40.2082
-46.1693
-47.0617
-41.5576
-42.2036
-43.6228
-42.2318
-46.8233
-44.4113
-40.4941
-47.517
-41.3274
-43.4314
-41.1354
-40.049
-44.7525
-47.0687
-61.7413
-75.3094
-58.5342
-57.7892
-60.1263
-75.2521
-68.328
-84.1409
-50.1767
-53.6122
-49.3873
-48.8095
-51.2505
-56.8283
-59.9992
-58.0846
-44.1026
-45.6535
-46.7789
-44.4475
-40.9957
-42.4808
-43.1361
-41.6218
-42.1653
-52.2614
-45.7451
-48.633
-41.896
-44.5362
-41.927
-40.7024
-61.4037
-74.9871
-68.1757
-83.2939
-58.3026
-57.6231
-59.9702
-75.1701
-50.0502
-53.4804
-59.8807
-57.981
-49.3003
-48.4586
-51.2591
-56.7733
-110.429
104.745
-123.002
70.1498
-115.483
-114.652
153.861
138.076
-131.598
-24.8813
-131.502
-23.3929
-115.708
-115.743
103.883
104.862
-77.1493
-74.666
-57.1466
-57.2623
-71.2582
-60.9861
-71.1179
-62.1615
-53.5193
-50.1457
-54.6168
-46.6947
-52.1732
-51.7163
-47.818
-46.8049
-53.9478
-52.6453
-54.0712
-52.2284
-54.1383
-54.208
-50.4555
-50.3398
-50.98
-50.856
-51.5722
-50.0999
-50.4846
-50.7056
-53.0967
-53.8953
-44.0575
-2.20927
-43.9601
-0.651964
-39.0549
-39.0354
44.6394
44.0449
-73.1338
-44.7961
-58.9814
-35.9555
-59.6971
-66.8011
-28.0036
-20.3146
-39.5557
-35.9788
-39.341
-34.9836
-39.4782
-39.3894
-35.5764
-36.1357
-48.0015
-46.234
-50.5342
-53.5632
-49.1759
-49.3571
-50.3959
-45.3402
-110.308
105.463
-122.619
70.1456
-115.792
-114.451
138.235
153.86
-76.4209
-74.5706
-56.874
-57.2697
-70.8457
-60.5789
-71.0742
-62.1658
-53.9354
-48.9611
-53.6411
-45.4649
-50.9145
-51.4074
-47.2487
-45.5583
-49.8718
-49.3732
-50.1116
-49.5567
-49.2388
-49.7856
-49.9025
-49.4759
-72.9705
-44.7135
-58.7849
-35.8805
-66.5772
-59.4486
-20.2495
-27.9738
-47.5839
-46.0179
-50.1637
-53.5298
-48.8977
-48.6801
-45.2152
-50.3194
-40.4777
-40.5901
-41.1663
-41.8572
-41.2999
-41.5194
-42.0672
-42.6776
-47.6609
-44.7598
-51.4662
-48.045
-47.9805
-49.4486
-44.4243
-46.5058
-50.3399
-47.6155
-50.2469
-47.5531
-52.0948
-51.9939
-46.8213
-46.8121
-41.679
-39.7079
-45.0983
-44.5087
-42.7256
-44.4896
-40.1648
-43.2464
-48.727
-48.6448
-48.7913
-48.8199
-49.9301
-49.8436
-50.0514
-50.1431
-56.8302
-66.3295
-54.5244
-61.1232
-53.8952
-54.0674
-73.2595
-68.7779
3.20893
-25.9038
3.20784
-25.9151
18.8564
18.921
-42.5638
-42.5636
-75.6216
-67.5245
-75.6008
-67.5108
-81.3479
-81.3377
-62.4952
-62.49
-40.8206
-41.2986
-41.894
-43.2596
-41.3944
-41.7822
-42.6563
-43.3621
-47.2531
-44.9269
-51.2329
-47.73
-49.1254
-47.5919
-43.7564
-46.157
-41.7614
-38.2783
-44.792
-44.1324
-44.2548
-43.1111
-39.6845
-42.9428
-56.8805
-66.335
-54.5781
-61.0738
-54.3817
-53.6023
-68.6334
-73.2122
-79.5335
-78.216
-72.1072
-62.2728
-61.9722
-70.7174
-59.6177
-59.5786
-79.143
-77.8997
-71.7108
-61.8614
-70.4849
-61.739
-59.3609
-59.2201
-82.8737
-82.8715
-76.0457
-66.1095
-76.0014
-66.0424
-62.4087
-62.4442
-13.7756
-13.7823
-9.21204
4.63743
4.69299
-9.18526
13.6215
13.7684
199.179
195.351
194.335
194.612