# vtk DataFile Version 2.0
tet_velo
ASCII
DATASET UNSTRUCTURED_GRID
POINTS 29498 float
-0.814552 0.365 -2.165
-0.605 0.375 2.54124
-0.735 1.085 -2.26819
-0.675 1.325 2.43921
0.704757 0.405 -2.295
0.675 0.405 2.50247
0.739348 1.085 -2.265
0.675 1.325 2.4392
-0.789509 0.323526 -0.596253
-0.699856 0.346662 0.972493
-0.803423 1.25342 -0.699057
-0.793533 1.34353 0.870077
0.77635 0.323488 -0.695844
0.766427 0.323492 0.903313
0.80417 1.25127 -0.696934
0.792249 1.3408 0.871133
-1.61284 -0.129847 -3.37243
-1.59511 -0.0919569 -2.11357
-1.5536 -0.117636 -0.542572
-1.45266 -0.120963 1.02776
-1.35477 -0.0981201 2.59882
-1.333 -0.0740896 3.8578
-1.33565 -0.0469117 5.11772
-1.59976 0.286813 -3.39962
-1.58938 0.349057 -2.14465
-1.5665 0.346385 -0.577886
-1.4592 0.358371 0.987218
-1.33886 0.372779 2.55472
-1.32667 0.396626 3.8162
-1.33811 0.424707 5.07849
-1.55405 1.07959 -3.47217
-1.54092 1.14318 -2.23736
-1.57732 1.26489 -0.673587
-1.5278 1.33575 0.890651
-1.40393 1.33291 2.45843
-1.37554 1.35009 3.72847
-1.37573 1.37646 4.99752
-1.52159 2.3956 -3.57058
-1.51776 2.47727 -2.32566
-1.53975 2.62137 -0.766888
-1.55112 2.73695 0.793752
-1.5243 2.78342 2.36047
-1.49088 2.79992 3.62193
-1.46391 2.81776 4.88723
-0.848376 -0.117119 -3.40417
-0.823708 -0.0779152 -2.14681
-0.784381 -0.130151 -0.570997
-0.709358 -0.132017 1.00671
-0.64374 -0.0944258 2.58282
-0.62381 -0.0720597 3.84259
-0.621673 -0.0470354 5.10201
-0.835352 0.291265 -3.42447
-0.617359 0.397711 3.8034
-0.625469 0.424218 5.06413
-0.783237 1.05571 -3.48811
-0.662789 1.3464 3.71696
-0.660667 1.37439 4.98452
-0.746272 2.37773 -3.58587
-0.737615 2.45912 -2.33924
-0.763984 2.61544 -0.779209
-0.795746 2.74078 0.781561
-0.791037 2.78569 2.34781
-0.76359 2.79996 3.60877
-0.736785 2.81715 4.87326
0.681152 -0.0965826 -3.49036
0.709995 -0.0529148 -2.25441
0.763095 -0.128765 -0.661121
0.760781 -0.144807 0.941012
0.71296 -0.0824258 2.53787
0.749624 -0.0627139 3.80496
0.783937 -0.0425942 5.06629
0.686761 0.313064 -3.50607
0.736513 0.409503 3.77136
0.772925 0.429042 5.03187
0.727592 1.06584 -3.5273
0.715519 1.35009 3.69893
0.747996 1.37681 4.95851
0.78875 2.38211 -3.61763
0.80495 2.46148 -2.36409
0.789036 2.61527 -0.799914
0.734906 2.73881 0.762732
0.69103 2.78364 2.32884
0.695517 2.79866 3.58684
0.717428 2.81646 4.84752
1.45322 -0.0966898 -3.52747
1.48386 -0.0579196 -2.28785
1.53297 -0.113365 -0.694573
1.51213 -0.136589 0.911672
1.44601 -0.0913345 2.51142
1.46128 -0.0636985 3.78197
1.49667 -0.0406708 5.0453
1.45879 0.321293 -3.54473
1.48635 0.389048 -2.31247
1.54696 0.351429 -0.719749
1.51794 0.338427 0.882099
1.4219 0.382752 2.47913
1.44272 0.408894 3.74989
1.48298 0.431342 5.01222
1.49376 1.10025 -3.56199
1.51834 1.15973 -2.30698
1.5719 1.26728 -0.732058
1.53525 1.32582 0.844786
1.42143 1.32943 2.42046
1.42841 1.35364 3.68263
1.46289 1.37959 4.9422
1.55104 2.40457 -3.63864
1.56767 2.48265 -2.38255
1.5575 2.62159 -0.815659
1.50281 2.73325 0.749574
1.44596 2.77933 2.31703
1.43721 2.79719 3.5743
1.45237 2.81622 4.83355
-0.826439 0.725 -2.26826
-0.0548975 0.367754 -2.24725
-0.768342 0.377951 -1.38063
-0.623121 0.85 2.47335
0.035 0.38878 2.52307
-0.661518 0.35174 1.75687
0.00217399 1.17343 -2.35503
-0.80602 1.20602 -1.48362
0 1.3356 2.44981
-0.723451 1.32345 1.65464
0.793687 0.745 -2.35163
0.737384 0.367413 -1.49542
0.667648 0.865 2.46348
0.731339 0.353621 1.70289
0.806412 1.20279 -1.48097
0.723779 1.32305 1.65517
-0.756294 0.323482 0.18812
-0.865915 0.788474 -0.647655
-0.00657926 0.328742 -0.646049
-0.855296 0.845097 0.921285
0.0332858 0.329948 0.937903
-0.793252 1.29325 0.08551
0.000373465 1.70482 -0.697995
-0.000641822 1.77383 0.870605
0.771351 0.323527 0.103735
0.863937 0.787379 -0.696389
0.856427 0.832146 0.887223
0.793815 1.29164 0.0870999
-0.885276 0.756737 -1.43213
-0.866792 0.816786 0.136815
-0.886089 0.847549 1.70576
-0.0307384 0.352967 -1.43802
0.0133533 0.328759 0.145927
0.0341429 0.346677 1.72988
-0.0263618 0.735 -2.55623
0.0175 0.8575 2.48646
0.00127373 1.29995 -1.4823
-0.000134178 1.78115 0.086305
-0.000320911 1.34463 1.65491
0.884703 0.76619 -1.48819
0.864869 0.809763 0.0954174
0.887233 0.848573 1.67903
-1.20197 0.357029 -2.15482
-0.81913 0.143542 -2.1559
-0.824952 0.328132 -2.79474
-0.971929 0.37389 2.54798
-0.62437 0.140287 2.56203
-0.61118 0.386355 3.17232
-1.13796 1.11409 -2.25278
-0.759118 1.07036 -2.87815
-0.736307 1.77206 -2.30371
-1.03947 1.32896 2.44882
-0.668894 1.3357 3.07808
-0.733018 2.05535 2.39351
0.707376 0.176043 -2.27471
0.695759 0.359032 -2.90053
1.09555 0.397024 -2.30373
0.69398 0.161287 2.52017
0.705757 0.407251 3.13692
1.04845 0.393876 2.4908
0.73347 1.07542 -2.89615
0.772149 1.77324 -2.31454
1.12884 1.12236 -2.28599
0.69526 1.33755 3.06906
0.683015 2.05432 2.38402
1.04822 1.32722 2.42983
-1.178 0.334955 -0.58707
-0.786945 0.0966874 -0.583625
-1.07953 0.352516 0.979856
-0.704607 0.107322 0.989599
-1.19037 1.25916 -0.686322
-0.783704 1.93443 -0.739133
-1.16067 1.33964 0.880364
-0.794639 2.04216 0.825819
0.769723 0.0973613 -0.678482
1.16166 0.337458 -0.707796
0.763604 0.0893426 0.922163
1.14218 0.33096 0.892706
0.796603 1.93327 -0.748424
1.18804 1.25928 -0.714496
0.763578 2.0398 0.816933
1.16375 1.33331 0.85796
-1.60397 -0.110902 -2.743
-1.6063 0.0784829 -3.38603
-1.23061 -0.123483 -3.3883
-1.57435 -0.104796 -1.32807
-1.59224 0.12855 -2.12911
-1.20941 -0.0849361 -2.13019
-1.50313 -0.1193 0.242595
-1.56005 0.114375 -0.560229
-1.16899 -0.123893 -0.556785
-1.40371 -0.109542 1.81329
-1.45593 0.118704 1.00749
-1.08101 -0.12649 1.01723
-1.34388 -0.0861049 3.22831
-1.34681 0.13733 2.57677
-0.999253 -0.096273 2.59082
-1.33432 -0.0605007 4.48776
-1.32983 0.161268 3.837
-0.978403 -0.0730747 3.8502
-1.33688 0.188897 5.09811
-0.978661 -0.0469736 5.10986
-1.59457 0.317935 -2.77213
-1.57691 0.683203 -3.43589
-1.21756 0.289039 -3.41204
-1.57794 0.347721 -1.36127
-1.56515 0.746118 -2.19101
-1.51285 0.352378 0.204666
-1.57191 0.805637 -0.625736
-1.39903 0.365575 1.77097
-1.4935 0.847059 0.938935
-1.33276 0.384703 3.18546
-1.37139 0.852847 2.50657
-1.33239 0.410666 4.44735
-1.3511 0.873358 3.77234
-0.972014 0.397168 3.8098
-1.35692 0.900585 5.038
-0.981792 0.424462 5.07131
-1.54748 1.11138 -2.85476
-1.53782 1.7376 -3.52137
-1.16864 1.06765 -3.48014
-1.55912 1.20403 -1.45547
-1.52934 1.81022 -2.28151
-1.55256 1.30032 0.108532
-1.55854 1.94313 -0.720237
-1.46587 1.33433 1.67454
-1.53946 2.03635 0.842202
-1.38973 1.3415 3.09345
-1.46412 2.05817 2.40945
-1.37563 1.36328 4.36299
-1.43321 2.075 3.6752
-1.01916 1.34824 3.72271
-1.41982 2.09711 4.94237
-1.0182 1.37543 4.99102
-1.51967 2.43643 -2.94812
-1.13393 2.38666 -3.57822
-1.52875 2.54932 -1.54627
-1.12769 2.46819 -2.33245
-1.54544 2.67916 0.0134324
-1.15187 2.61841 -0.773048
-1.53771 2.76019 1.57711
-1.17343 2.73887 0.787656
-1.50759 2.79167 2.9912
-1.15767 2.78456 2.35414
-1.4774 2.80884 4.25458
-1.12723 2.79994 3.61535
-1.10035 2.81745 4.88025
-0.836042 -0.0975172 -2.77549
-0.841864 0.0870728 -3.41432
-0.0836121 -0.106851 -3.44727
-0.804045 -0.104033 -1.3589
-0.0568566 -0.065415 -2.20061
-0.74687 -0.131084 0.217854
-0.0106432 -0.129458 -0.616059
-0.676549 -0.113221 1.79476
0.0257112 -0.138412 0.973859
-0.633775 -0.0832427 3.21271
0.0346104 -0.0884258 2.56035
-0.622741 -0.0595476 4.4723
-0.620585 0.162825 3.823
0.0629069 -0.0673868 3.82378
-0.623571 0.188591 5.08307
0.0811321 -0.0448148 5.08415
-0.809295 0.673488 -3.45629
-0.0742957 0.302164 -3.46527
-0.621414 0.410964 4.43377
-0.640074 0.872055 3.76018
0.0595771 0.403607 3.78738
-0.643068 0.899303 5.02433
0.0737277 0.42663 5.048
-0.764754 1.71672 -3.53699
-0.0278227 1.06078 -3.50771
-0.661728 1.36039 4.35074
-0.713189 2.07318 3.66286
0.0263651 1.34825 3.70794
-0.698726 2.09577 4.92889
0.0436643 1.3756 4.97152
-0.741943 2.41842 -2.96255
0.0212392 2.37992 -3.60175
-0.750799 2.53728 -1.55922
0.0336676 2.4603 -2.35166
-0.779865 2.67811 0.00117568
0.0125257 2.61535 -0.789561
-0.793391 2.76324 1.56468
-0.0304198 2.73979 0.772146
-0.777313 2.79283 2.97829
-0.0500032 2.78467 2.33832
-0.750188 2.80855 4.24102
-0.0340366 2.79931 3.59781
-0.0096787 2.8168 4.86039
0.695573 -0.0747487 -2.87239
0.683956 0.108241 -3.49822
1.06719 -0.0966362 -3.50891
0.736545 -0.0908399 -1.45777
1.09693 -0.0554172 -2.27113
0.761938 -0.136786 0.139945
1.14803 -0.121065 -0.677847
0.736871 -0.113616 1.73944
1.13645 -0.140698 0.926342
0.731292 -0.0725699 3.17142
1.07948 -0.0868802 2.52465
0.76678 -0.052654 4.43563
0.743069 0.173394 3.78816
1.10545 -0.0632062 3.79347
0.778431 0.193224 5.04908
1.14031 -0.0416325 5.0558
0.707176 0.689454 -3.51669
1.07278 0.317179 -3.5254
0.754719 0.419272 4.40162
0.726016 0.879798 3.73515
1.08962 0.409198 3.76063
0.76046 0.902927 4.99519
1.12795 0.430192 5.02204
0.758171 1.72398 -3.57247
1.11068 1.08305 -3.54465
0.731757 1.36345 4.32872
0.705518 2.07438 3.64289
1.07197 1.35186 3.69078
0.732712 2.09664 4.90302
1.10544 1.3782 4.95036
0.79685 2.4218 -2.99086
1.16989 2.39334 -3.62814
0.796993 2.53837 -1.582
1.18631 2.47206 -2.37332
0.761971 2.67704 -0.0185909
1.17327 2.61843 -0.807786
0.712968 2.76122 1.54578
1.11886 2.73603 0.756153
0.693273 2.79115 2.95784
1.06849 2.78148 2.32293
0.706472 2.80756 4.21718
1.06636 2.79792 3.58057
1.0849 2.81634 4.84054
1.46854 -0.0773047 -2.90766
1.45601 0.112302 -3.5361
1.50841 -0.0856422 -1.49121
1.4851 0.165564 -2.30016
1.52255 -0.124977 0.108549
1.53996 0.119032 -0.707161
1.47907 -0.113962 1.71155
1.51503 0.100919 0.896885
1.45365 -0.0775165 3.1467
1.43395 0.145709 2.49528
1.47898 -0.0521846 4.41364
1.452 0.172598 3.76593
1.48983 0.195336 5.02876
1.47257 0.355171 -2.9286
1.47628 0.71077 -3.55336
1.51666 0.370238 -1.51611
1.50234 0.774387 -2.30972
1.53245 0.344928 0.0811746
1.55943 0.809356 -0.725904
1.46992 0.36059 1.68062
1.52659 0.832123 0.863442
1.43231 0.395823 3.11451
1.42166 0.856092 2.4498
1.46285 0.420118 4.38106
1.43557 0.881265 3.71626
1.47293 0.905466 4.97721
1.50605 1.12999 -2.93449
1.5224 1.75241 -3.60032
1.54512 1.21351 -1.51952
1.543 1.82119 -2.34477
1.55357 1.29655 0.0563641
1.5647 1.94444 -0.773858
1.47834 1.32763 1.63262
[...]
POINT_DATA 29498
VECTORS point_vectors float
-3.88626 -4.42318 18.6613
-0.213734 0.37662 1.48444
-1.82908 2.00898 4.90256
0.32086 -0.0938467 1.25943
1.85665 -3.80143 7.88053
0.0153907 0.296451 1.21658
1.87838 2.05552 5.0177
-0.303356 -0.11196 1.26752
-0.00408559 0.00732001 0.877571
0 0 0
0 0 0
0.0185335 0.0454221 0.180061
0.00198942 0.00319358 0.670817
-0.00182551 0.00021243 0.0306053
0 0 0
-0.0202424 0.04581 0.173447
-0.654683 -0.414617 19.9918
-1.07551 -0.735559 20.9119
-0.343816 -0.285458 21.5485
0.0558806 0.059331 21.7153
0.467002 0.512308 21.5687
0.718328 0.526274 20.9013
0.909547 0.707758 21.0165
-0.81072 -0.318178 19.8273
-1.60533 -0.685531 20.9224
-0.481382 -0.389321 21.6865
0.105547 -0.00835512 21.8422
0.9219 0.508122 21.5455
1.28592 0.342424 20.7561
0.863197 0.464501 21.4744
-0.881517 0.0920213 19.6835
-2.05225 0.232886 20.5944
-1.13696 -0.317944 21.7633
0.0339772 -0.227366 22.024
0.965608 -0.375908 21.6987
1.22033 -0.523217 21.3545
0.921788 -0.272495 20.5857
-0.408837 0.28175 20.0103
-0.701862 0.545756 20.4619
-0.729772 0.428396 21.3504
-0.218053 -0.00415849 21.6668
0.149099 -0.265062 21.5034
0.276735 -0.265858 21.1009
0.226969 -0.335717 20.8857
-0.672188 -0.850134 19.4535
-1.3513 -2.26301 21.4105
-0.32998 -0.43057 21.8355
-0.08935 0.0908729 21.5702
0.0245714 0.826868 20.9415
0.0233516 1.12976 20.4269
-0.274857 1.31211 21.7256
-0.945948 -0.751205 18.9533
-0.210464 1.5484 8.83825
1.37462 1.1314 10.8291
-0.996698 0.279096 18.6471
1.84201 -0.525389 10.111
1.77348 -0.861402 14.803
-0.31745 0.521323 19.7855
-0.68173 1.16539 20.2469
-0.797145 1.15681 21.4316
-0.18135 0.118856 21.8981
0.150402 -0.406816 21.6888
0.229922 -0.560932 21.4247
0.219916 -0.343922 21.1692
0.546581 -0.822485 19.3677
1.45175 -2.78619 21.1835
0.364747 -0.501491 21.9019
0.0906383 0.0506434 21.7063
-0.0929715 0.873202 21.1022
-0.368682 1.21199 19.3
-0.501532 1.19001 20.9647
0.78604 -0.698541 18.7827
-0.553731 1.66199 12.6354
-1.4712 0.960763 14.9569
0.887811 0.289037 18.6429
-2.01047 -0.364295 12.0649
-1.41639 -0.644945 16.1487
0.316891 0.49152 19.8026
0.68894 1.11906 20.2516
0.799392 1.13238 21.413
0.190131 0.142267 21.9484
-0.123504 -0.404071 21.7081
-0.108153 -0.493808 21.5491
-0.0135081 -0.545445 21.1646
0.608547 -0.403619 19.8755
1.21217 -0.863407 20.7518
0.425008 -0.331306 21.5482
-0.0278206 0.0492175 21.6972
-0.448276 0.441761 21.5902
-0.608193 0.505364 21.2822
-0.953608 0.453865 20.3431
0.754535 -0.302372 19.6979
1.93307 -0.80534 20.6827
0.561882 -0.425692 21.6795
-0.0644588 -0.031164 21.8025
-0.85816 0.428235 21.6326
-1.09924 0.430543 21.1208
-1.14222 0.222122 20.6782
0.818132 0.0982276 19.6213
2.10908 0.293704 20.4807
1.20603 -0.322813 21.7429
-0.00203012 -0.229291 22.0235
-0.934875 -0.360608 21.7244
-1.24924 -0.440206 21.4802
-1.09262 -0.400749 20.8245
0.376294 0.259225 20.0199
0.672992 0.499126 20.4518
0.732279 0.432093 21.3033
0.246234 0.00733306 21.6818
-0.156388 -0.301044 21.593
-0.201843 -0.304875 21.2798
-0.253898 -0.343624 20.7907
-1.27277 -0.109339 1.81146
0.000422522 -0.0394153 0.246466
0 0 0
-0.0925492 0.0473559 -0.0374492
0.0166099 0.0172805 0.194636
-0.0072115 0.0039496 0.0965591
0.00332844 0.425839 0.948967
-0.555863 -0.279956 1.14132
0.00497608 0.174115 -0.146887
0.154643 0.13377 0.584542
2.29725 -0.00946906 2.41503
-0.0137906 -0.00287982 0.503062
0.0312087 0.0206332 -0.00630974
0.0057939 0.00231977 0.116116
0.709136 -0.439834 1.49452
-0.154692 0.135406 0.599058
0.00170394 -0.000996233 0.434018
0 0 0
1.77866e-05 -4.72359e-05 0.0047616
-0.0099286 0.077609 0.167822
0 0 0
0 0 0
-0.000492257 0.355046 0.76013
0.000571761 -0.0320688 0.193692
0.00811073 0.00396613 0.338268
0 0 0
4.66254e-06 0.000711052 0.00175758
0 0 0
-1.70156e-05 -0.00406235 0.0659654
0 0 0
0.00106804 0.00724682 0.0500706
8.22852e-19 -8.54025e-19 9.72493e-17
-4.32933e-08 -2.16282e-08 1.76877e-05
2.33702e-06 1.44659e-06 0.000175991
-0.0229505 -0.0620987 0.0575814
0.00208114 0.0153019 -0.000262053
0.00012784 0.00415246 0.0478764
4.7899e-05 0.000674483 0.0264848
-7.79516e-08 -2.84466e-07 1.51461e-05
0.000114471 -0.000631427 0.011689
-1.16221e-06 0.000103579 0.000614952
-0.00133554 0.00612845 0.0417311
-2.73341 -1.60483 21.2938
-2.13583 -3.26025 21.9595
-2.73161 -2.36918 18.2622
0.875117 1.33439 15.7532
-0.155854 1.00321 15.5821
-0.449098 1.07151 5.9911
-4.02568 1.0204 20.6273
-3.06588 1.38655 17.0127
-1.68185 2.32715 19.9973
1.49064 -0.0482546 18.287
1.23527 0.251022 7.21738
0.31198 -0.95441 21.6106
2.45992 -4.54362 21.7323
2.34599 -2.3136 17.6067
3.66296 -2.1443 20.9464
0.069522 1.13015 15.7357
-0.0583801 1.18473 8.06812
-1.07488 1.14417 18.0693
2.91078 1.44324 16.9448
1.71254 2.20757 20.0001
4.05076 1.06432 20.5003
-1.30621 0.228403 7.87697
-0.266689 -0.962716 21.5063
-1.46759 -0.0679738 18.4566
-0.33873 -0.480802 21.5517
-0.266489 -0.304017 20.1062
0.0625555 0.231457 18.605
-0.00471576 0.168115 17.0711
-1.78543 -0.900244 21.9782
-2.71324 2.28744 21.7951
0.149499 -0.348244 20.8133
-0.402679 -0.0629809 22.56
0.273865 -0.396185 20.3367
0.43556 -0.509647 21.5502
-0.00567139 0.0934906 18.5883
-0.0415321 0.121269 20.4792
2.6942 2.22188 21.7646
1.87228 -0.899232 21.975
0.417494 -0.0453216 22.533
-0.126834 -0.31047 20.6424
-1.01161 -0.662654 20.287
-0.742083 -0.37615 19.9194
-0.714419 -0.58371 19.7523
-0.683321 -0.520865 21.3962
-1.31831 -0.748869 20.8915
-1.32527 -1.32497 21.0533
-0.128466 -0.107847 21.6759
-0.408593 -0.343242 21.6166
-0.331583 -0.377679 21.7076
0.262776 0.278767 21.7178
0.0808136 0.034101 21.7773
0.0168935 0.110423 21.7891
0.579953 0.573993 21.3701
0.677211 0.563029 21.5852
0.361667 0.794631 21.5428
0.602555 0.525567 21.0979
1.09978 0.449218 20.6331
0.625813 0.980568 21.8656
0.866213 0.641137 21.4702
0.767197 1.13272 21.7904
-1.43185 -0.564455 20.0915
-0.89441 -0.122653 19.7187
-0.951293 -0.488438 19.4501
-0.988648 -0.551847 21.528
-2.11344 -0.327959 20.7994
-0.142496 -0.20801 21.8045
-0.73182 -0.440528 21.7602
0.497762 0.255489 21.8771
0.123874 -0.0864137 21.9692
1.00824 0.62314 21.4058
1.15192 0.079405 21.4314
1.11503 0.559452 21.2347
1.49313 0.0258044 21.0056
1.18112 1.37999 18.5099
1.23867 0.115806 19.8099
1.15047 0.813442 19.4033
-1.57588 0.218539 19.8201
-0.623834 0.299423 19.8403
-0.991231 0.172288 19.2344
-1.64496 -0.108709 21.3525
-1.3471 0.676592 20.4375
-0.516098 -0.305556 21.9786
-1.18366 0.294077 21.5453
0.566547 -0.257814 21.9743
-0.198146 -0.130134 21.8818
1.13588 -0.398994 21.4252
0.428589 -0.461927 21.6523
1.35558 -0.220146 20.8989
0.592561 -0.557526 21.4079
1.74741 -0.594298 18.3269
0.638963 -0.53327 21.292
1.34446 -0.349747 19.0045
-0.569727 0.455483 20.1852
-0.386038 0.411811 19.9022
-0.778782 0.518309 20.9928
-0.727774 0.838625 20.3799
-0.501337 0.225094 21.5913
-0.787046 0.741518 21.3847
0.0127053 -0.157456 21.616
-0.244136 0.0167424 21.7847
0.2242 -0.271461 21.4084
0.142249 -0.417147 21.7381
0.291301 -0.351891 21.1611
0.261746 -0.403644 21.4966
0.21366 -0.566271 20.9692
-1.30871 -1.88508 19.6974
-0.819348 -0.847392 19.1823
-0.0842994 -1.14079 19.0533
-0.632087 -0.978732 21.8636
-0.103952 -3.48155 21.7463
-0.190732 -0.131446 21.683
-0.012566 -0.703046 21.9393
-0.0230429 0.432122 21.4187
0.00240791 -0.0902862 20.9397
0.0480051 0.927688 20.5627
0.0314111 0.49542 19.7094
0.00846972 1.10775 19.8223
-0.0131514 1.37017 17.201
0.0567607 0.70502 19.7424
0.466633 1.28927 16.6298
0.0257721 0.562649 17.2089
-1.07933 -0.2375 18.5692
-0.117324 -1.00643 18.2346
1.68005 1.44272 9.3611
1.12589 0.991776 4.94086
0.120693 -1.80043 -0.535503
1.23734 0.133197 10.6867
-0.137044 0.144618 8.92909
-0.591402 0.66246 19.2831
-0.0495397 0.447512 17.895
2.33285 -0.863227 14.3402
0.466407 -1.15652 20.9393
0.384882 -0.557725 2.16695
0.090708 -0.835804 20.9163
-0.012439 -1.07931 6.59931
-0.492945 0.869494 19.9239
0.0089824 0.623521 19.66
-0.796346 1.27374 20.7778
0.0437368 1.49474 20.146
-0.502561 0.60344 21.9252
0.0146985 1.70869 21.4507
0.0112385 -0.202111 21.8313
-0.0161119 0.207502 22.0411
0.174336 -0.494635 21.7557
-0.00318568 -0.497983 21.6213
0.103571 -0.556166 21.0131
-0.012686 -0.588132 21.4405
-0.00983695 -0.679622 21.037
1.19608 -2.00988 19.4179
0.670991 -0.804358 19.0709
0.64084 -0.604077 19.6375
0.685049 -1.12793 21.8845
1.56033 -1.6908 20.8839
0.2169 -0.174332 21.7975
0.392478 -0.435973 21.7011
-0.00297375 0.423063 21.4679
0.00639776 0.0546418 21.781
-0.178356 0.982079 21.0137
-0.39856 0.73662 21.6017
-0.461968 1.0401 19.4696
-0.464848 1.54171 17.4795
-0.633023 0.877384 21.7669
-1.00432 1.3333 16.391
-0.73118 1.08517 21.5113
0.905386 -0.261613 18.5049
0.843113 -0.46367 19.3231
-1.44206 1.50545 13.1062
-1.63352 1.15992 7.95753
-1.4923 1.06631 19.2882
-0.857699 0.427871 13.2033
-1.38005 0.382617 20.9941
0.564805 0.635011 19.3011
0.911715 0.179616 19.2027
-2.06782 -0.853335 14.7463
-0.501644 -1.16377 20.9095
-1.68734 -0.543119 19.7603
-0.681613 -0.954775 19.9838
-1.09407 -0.216913 20.5748
0.497539 0.827208 19.9311
0.371391 0.383536 19.9194
0.806222 1.21877 20.7765
0.742718 0.772148 20.3739
0.509975 0.629987 21.923
0.786773 0.71816 21.3571
-0.000814886 -0.196023 21.8628
0.251826 0.0453022 21.827
-0.140727 -0.476138 21.7146
-0.158432 -0.392652 21.7398
-0.190584 -0.45039 21.3434
-0.200286 -0.448492 21.6593
-0.181053 -0.490988 20.8688
1.00562 -0.700865 20.0952
0.710268 -0.365774 19.7527
0.794067 -0.608936 21.3433
1.57684 -0.903382 20.7195
0.15011 -0.133076 21.6652
0.492055 -0.389999 21.6115
-0.235093 0.232477 21.7147
-0.0337727 0.0028951 21.7339
-0.566491 0.499932 21.3957
-0.631626 0.464354 21.6221
-0.643658 0.477179 20.841
-0.879837 0.495554 21.1869
-1.04486 0.397144 20.4202
1.44891 -0.592994 19.8134
0.827892 -0.105191 19.6137
1.13655 -0.623998 21.4982
2.40447 -0.287821 20.5817
0.190431 -0.231571 21.771
0.81363 -0.479713 21.7498
-0.416026 0.196957 21.8798
-0.0860248 -0.101079 21.9766
-0.964746 0.479214 21.4957
-1.08908 0.0528088 21.5525
-1.02636 0.501607 21.217
-1.40266 0.0264196 21.3819
-1.5312 -0.131506 20.9444
1.53114 0.252839 19.7204
0.578965 0.27216 19.8399
1.69515 -0.0804509 21.3104
1.29976 0.648862 20.3988
0.558187 -0.314292 21.9688
1.2031 0.314762 21.5116
-0.531098 -0.249168 21.9769
0.229246 -0.120296 21.8847
-1.12383 -0.388895 21.4284
-0.418314 -0.478809 21.6726
-1.06004 -0.439845 21.2961
-0.637782 -0.578563 21.3182
-0.762127 -0.538787 20.8395
0.539991 0.399708 20.1754
0.758601 0.49826 20.9538
0.519275 0.240013 21.5791
0.00840161 -0.165245 21.6373
-0.194451 -0.299042 21.4145
-0.385667 -0.319597 21.1753
-1.18504 -0.637007 20.208
-1.89434 -2.26811 19.1613
-1.24708 -1.14217 20.0691
-2.12448 -1.14354 19.5353
-0.833147 -0.566209 19.6045
-1.88682 -1.55898 21.1668
-0.811384 -0.559122 21.4517
-0.688393 -0.91873 21.1621
-0.705198 -0.770768 21.619
-1.05551 -0.930464 21.9961
-0.345295 -0.413399 21.8247
-0.138979 -0.155985 21.7286
-0.120078 -0.0107999 18.5556
-0.131304 -0.11106 21.7586
0.00649054 -0.0479608 20.3951
0.0738697 0.152638 21.3313
0.369948 0.299648 21.811
-0.0438362 0.469688 16.3299
0.184998 0.447526 21.7608
0.354393 0.777763 17.0863
0.573625 1.09941 20.3103
0.762959 0.657968 21.4502
-0.139812 1.2372 16.1209
0.44926 0.883577 21.3772
1.05291 1.35117 16.6801
0.654694 1.1918 19.5315
0.801694 0.519455 21.9268
0.728669 1.19332 15.3556
0.579817 0.962473 22.7011
1.42293 1.02992 15.676
0.987996 1.04188 20.2024
-1.6956 -0.216918 19.8618
-3.66673 -0.747939 16.664
-2.39311 0.587185 18.9457
-1.05526 -0.19953 19.2379
-4.14649 -0.6526 21.1386
-1.34396 -0.46409 21.5591
-2.51373 -0.338453 21.6701
-0.602475 -0.807271 20.6037
-0.274117 -0.274528 21.9431
-0.647188 -0.747738 21.1177
0.256583 0.444688 17.5965
0.637263 0.0523962 21.8702
1.05353 0.0334302 19.351
1.25014 0.624755 12.771
1.31463 0.111329 21.1888
0.0312096 1.40061 1.10199
1.56532 -0.295299 19.0349
1.951 0.743539 15.5813
1.52072 0.0949427 21.1055
2.19511 0.490402 9.98599
1.77248 -0.529405 18.5606
1.45532 0.316645 17.6793
-1.03145 0.540482 19.973
-1.14938 1.52274 19.1911
-0.574115 0.6378 20.0721
-0.672733 0.466647 19.5762
-1.64435 1.34353 20.2497
-1.36388 0.492099 21.0279
-1.99007 1.98307 20.6238
-0.837534 0.863323 20.8893
-1.82181 0.78289 21.7285
-0.680091 0.0527746 21.8714
-1.34471 0.783878 22.6903
-0.529976 0.367818 21.7651
-0.278439 -0.135174 22.2021
0.181775 -0.312458 21.7871
0.0414078 -0.671326 22.1709
-0.026754 -0.224077 21.8158
0.428975 -0.700928 21.7599
0.543719 -0.480705 21.4866
0.364264 -1.06586 21.4336
0.198376 -0.410902 21.5222
0.59036 -0.819162 21.3376
0.651876 -0.519819 21.0929
0.291182 -0.919316 20.808
0.269783 -0.470698 21.2567
0.603234 -0.713614 21.856
1.71553 -2.33786 18.6467
-0.132054 -3.00781 19.1234
-0.296222 -4.60327 15.7161
-0.106698 -1.1286 18.6636
-0.15148 -4.94525 23.0284
0.7551 -1.00594 20.9309
-0.0398402 -1.39699 22.1773
-0.00630327 -0.442603 16.4913
0.134055 -0.032306 19.0543
-0.00250052 -0.357371 21.3887
-0.00247553 -0.000159991 14.3424
0.00709135 0.495888 17.0738
0.0116968 0.208265 20.2927
0.0987361 0.392191 11.9386
-0.0901315 1.32185 16.9819
0.0821312 0.558019 19.5092
0.680668 0.116401 -2.02095
0.401763 0.508071 11.8659
-0.904464 1.34128 15.647
-0.113452 1.20123 17.6489
-0.259295 1.04781 6.17027
-0.188278 0.501771 13.1284
3.21254 -0.633332 16.3752
-0.0630003 2.8005 14.1932
-0.0893304 -0.367369 17.7242
-0.199191 1.23065 2.71478
-0.0405782 -0.431165 1.09685
-0.363708 -2.63866 -3.6466
-2.06349 0.633603 12.0236
-0.44212 -1.83259 4.29323
0.00650164 -0.491262 0.504252
1.1332 1.45702 19.2118
0.026519 1.08305 19.782
-0.00237058 0.825615 18.9727
0.0522177 3.41031 19.7178
1.99252 1.92083 20.6424
0.0344173 1.67036 20.7385
0.0242242 4.37858 21.7187
1.36949 0.810381 22.6965
-0.00687462 0.980839 22.1418
-0.015563 0.360026 22.4797
-0.0652052 -0.671766 21.6392
-0.0132949 -0.180671 22.0394
0.000237825 -0.814868 19.4848
-0.332471 -1.04133 21.3858
0.0124139 -0.548049 21.6752
0.0875684 -1.13687 19.9109
-0.41485 -0.975505 20.6221
-0.0679463 -0.691972 21.3381
-0.141938 -0.842563 18.6168
1.28868 -0.692374 19.9361
1.24967 -1.27417 19.7891
2.06053 -1.19418 19.06
0.755687 -0.572425 19.4646
2.3882 -2.04596 20.9262
0.954942 -0.638148 21.4281
0.813855 -0.89977 21.6328
1.17808 -1.0189 22.0202
0.433541 -0.47446 21.8304
0.164619 -0.180256 21.7146
0.160168 -0.149088 21.7476
0.0239546 -0.109297 20.9171
-0.0151212 0.0689023 21.706
-0.318343 0.232227 21.7906
-0.178984 0.373111 21.8195
-0.415984 0.571405 19.2697
-0.676806 0.99148 20.7901
-0.761749 0.557889 21.4093
-0.519326 0.833902 21.3091
-1.18224 1.08445 19.1092
-0.926297 0.912297 20.4041
-1.16537 0.632503 20.7843
-0.489917 0.907594 22.1253
-1.5163 1.0305 19.5648
-0.953734 0.903588 21.2841
1.68151 -0.18465 19.6815
2.30503 0.604398 18.8487
0.947643 -0.171633 19.1659
4.85733 -0.556867 20.6934
1.47271 -0.457222 21.5173
2.56665 -0.285273 21.6703
0.648244 -0.866503 20.6765
0.309011 -0.296491 21.9169
0.690741 -0.762824 21.1425
-0.230456 0.27858 18.6858
-0.565046 0.0338472 21.9486
-1.01614 0.0340129 19.374
-1.39028 0.639112 15.1192
-1.23429 0.0600005 21.435
-1.52548 -0.35207 19.4116
-1.89652 0.304466 18.4589
-1.33726 -0.00818412 21.3126
-1.41804 -0.443869 19.9067
-1.04253 0.246092 19.1102
0.981997 0.507808 19.9509
0.557806 0.596714 20.0737
0.633351 0.444734 19.5788
1.611 1.27159 20.2248
1.34351 0.500546 20.9899
0.845179 0.822291 20.8614
1.81753 0.783762 21.6814
0.728479 0.0625627 21.8638
0.541801 0.399068 21.7432
0.313591 -0.113506 22.2326
-0.173891 -0.3197 21.8451
0.0254531 -0.205929 21.9014
-0.421496 -0.724826 21.7765
-0.522875 -0.512938 21.538
-0.184645 -0.430408 21.6771
-0.669249 -0.855949 21.6516
-0.558389 -0.489753 21.1214
-0.377458 -0.521069 21.0805
-0.540892 -0.79619 21.7451
-1.6463 -1.22666 19.8394
-0.856925 -0.849955 21.7539
-0.0818994 -0.0909604 21.7604
0.311456 0.600875 20.9803
0.6672 1.17847 20.3077
1.00002 0.956273 19.2628
-2.64145 -0.400756 18.9899
-1.57824 -0.89135 21.8836
-0.0173506 -0.289748 19.0796
0.702511 0.871015 16.1827
1.5367 0.585973 14.8552
2.0408 0.448903 17.6028
-1.20501 0.939283 19.6455
-1.80601 1.07264 20.9316
-1.00418 0.246293 22.2081
0.179009 -0.461006 21.9747
0.501778 -0.800552 21.7866
0.479985 -0.648151 21.9122
-0.206861 -3.95305 17.9779
-0.025114 -1.05049 18.2621
0.00122047 -0.167648 14.9547
0.0106853 0.190052 13.2127
0.104388 0.372442 11.9885
-0.253299 1.41066 13.3497
-0.236088 -1.02179 12.6637
0.295921 -1.2012 -1.66826
-0.907441 -1.21414 -2.71695
0.0177915 2.21395 18.7018
0.0445225 3.22018 20.1062
-0.00703827 1.74296 23.046
-0.00977098 -0.325984 20.1449
0.0337691 -0.956651 20.13
-0.146099 -1.62629 18.2805
1.63861 -1.34118 19.4388
0.995263 -0.964644 21.8026
0.130653 -0.130669 21.7929
-0.311358 0.479154 21.4601
-0.798172 1.04193 20.743
-0.956624 0.974612 21.4141
2.53715 -0.31174 18.677
1.73078 -0.963047 22.1012
0.0459292 -0.334814 19.3113
-0.697796 0.738691 17.5784
-1.60406 0.528529 17.2947
-2.19219 0.295808 18.6671
1.15516 0.882042 19.6404
1.76769 1.03938 20.9163
1.04864 0.2736 22.211
-0.164993 -0.472394 22.0021
-0.482094 -0.751 21.7954
-0.403192 -0.814181 21.9226
-1.05528 -0.480541 2.96096
-0.00264566 -0.0514323 0.238694
-0.223324 -0.10239 3.58653
-0.114236 -0.00715499 -0.00921285
-0.0497068 0.0239106 0.197279
0 0 0
-1.05549 0.115856 1.65833
-0.0522531 0.377989 1.07702
-0.394471 -0.0529113 1.05355
-0.0703767 0.104981 -0.0134255
0.0557103 0.112078 -0.0479209
0.1005 0.0446991 0.345979
0.00495696 -0.107117 0.502745
1.88003 -0.827461 3.09888
0.0532142 -0.00255324 1.32975
0.0671305 0.0440095 0.289852
-0.078313 0.00466565 0.276571
0.0507084 0.0893408 0.467353
0.0669827 0.430779 1.23873
0.740027 0.129968 0.928142
0.425098 -0.0942094 1.28897
-0.0464148 0.109696 -0.0530556
0.0182333 0.0447979 0.0132823
-0.107767 0.0520496 0.379068
-0.0284105 0.00860181 1.06728
-0.00675846 0.00200938 0.390121
-0.00103218 0.00501035 0.140751
0 0 0
-0.0192535 0.015068 0.38977
0.00369964 0.00840254 0.373571
-0.0724601 0.101381 0.545957
0 0 0
-0.660865 -0.360016 1.12843
0.00191088 0.0224452 0.139467
0.000391781 0.00113074 0.00306055
-0.0127625 0.0198211 0.0410096
0.0995106 0.0950804 0.267041
0.163413 0.147615 0.501128
0 0 0
0.00218396 -0.107302 0.321166
0.0282397 -0.0472677 1.70894
0 0 0
0.00611521 0.00302187 0.504994
0.0175266 0.0246769 0.467438
0.0186619 0.0167127 0.360839
0 0 0
0.00941836 0.00959439 0.388037
0 0 0
0.647925 -0.357898 1.12041
0.016938 0.0260548 0.0541151
-0.000802531 0.0199247 0.118366
-0.000670804 0.00199879 0.00557226
-0.105954 0.104237 0.287563
-0.00343462 -0.109303 0.321657
-0.0492453 0.0788924 0.289737
1.84184e-19 -4.12813e-19 -1.52943e-18
0 0 0
-0.799376 -0.154533 0.122765
0 0 0
-0.0479951 -1.06767 0.389718
-0.0014421 0.0142977 0.173858
0 0 0
0.000895913 -0.000440148 0.00555036
-0.00334819 0.00870306 -0.000603662
0 0 0
0.0370284 0.188478 -0.112392
0.00107337 0.00912298 0.0816784
-6.93033e-06 6.69905e-06 0.000564513
-0.163706 1.13149 0.589155
-1.0646e-05 0.00278427 0.0172635
-0.0036657 -0.0156205 0.05336
-0.0200983 0.00178447 0.0258141
0.00118806 0.0151448 -0.00100453
2.93565e-06 3.35768e-07 -9.36279e-05
0.00112514 0.00039351 0.00825219
5.92615e-05 3.94116e-06 -0.000163906
0.136227 -0.0261056 0.00401729
0.00345624 -0.0108857 0.112095
-2.59869e-18 -5.74799e-19 4.52136e-17
0.00348448 0.00762559 0.225306
0.00143142 0.00237184 -0.000151065
0 0 0
0 0 0
0 0 0
0.0149117 0.00132361 0.0189443
0.0102068 -0.0505697 0.173363
-7.51737e-05 4.96823e-06 -0.00021142
0 0 0
-0.00546025 0.0187327 0.131355
0 0 0
0 0 0
0 0 0
-4.12165e-07 -2.50113e-06 0.000259038
2.14148e-08 5.65578e-08 -2.74738e-05
4.03986e-06 0.000208408 0.00106224
1.04383e-05 0.013929 0.0839263
2.42114e-09 3.25555e-10 -6.16285e-07
-3.46476e-09 8.94506e-08 8.77397e-06
0.00248244 0.0111345 0.0452907
0.00950213 0.00943429 0.236613
-0.000194218 0.014357 0.0245293
-8.53072e-06 0.00413308 0.0584685
3.93427e-06 8.39389e-06 0.00118606
-4.66592e-06 1.39364e-06 -4.51601e-05
0 0 0
0.00372002 0.0120797 0.130483
0 0 0
0 0 0
-1.504e-05 0.000698429 0.00343243
0.000159453 0.011824 0.077387
-0.0116442 0.0111493 0.279913
-0.0036924 0.0178725 0.0695713
-0.00631257 -0.0133483 0.361583
-0.0382663 -0.0625026 0.300126
0.006039 -0.00674822 0.0729515
-0.00662311 -0.0274213 0.213873
-0.00190395 0.0112295 0.157915
0 0 0
-0.00342989 0.0123645 0.0871798
0.00068213 0.00283838 0.0127058