# vtk DataFile Version 2.0
tet_velo
ASCII
DATASET UNSTRUCTURED_GRID
POINTS 29498 float
-0.795 0.235 -2.5202
-0.824132 0.275 2.475
-0.885 0.802696 -2.325
-0.845 0.907498 2.365
0.795 0.235 -2.5202
0.839468 0.305 2.435
0.885 0.802319 -2.325
0.845 0.907444 2.365
-0.805628 0.247416 -0.855134
-0.773135 0.302953 0.809933
-0.867377 0.83334 -0.761667
-0.857374 0.871604 0.801667
0.810211 0.257945 -0.868467
0.82185 0.284462 0.783267
0.86743 0.833124 -0.761667
0.857408 0.871477 0.801667
-1.62501 -0.0776462 -3.85001
-1.62766 -0.0578019 -2.56045
-1.62582 -0.0360238 -0.893701
-1.6029 0.00309703 0.793863
-1.62063 0.00389135 2.46232
-1.63374 0.0116042 3.7603
-1.6383 0.0305218 5.04219
-1.63327 0.210303 -3.78677
-1.63961 0.23168 -2.50822
-1.64124 0.251899 -0.85956
-1.61507 0.298801 0.799209
-1.63855 0.296736 2.44984
-1.64879 0.305562 3.74684
-1.65062 0.325455 5.03183
-1.67487 0.7828 -3.63329
-1.70748 0.804731 -2.35185
-1.69966 0.833662 -0.77229
-1.68087 0.876991 0.801266
-1.67317 0.906799 2.38366
-1.67442 0.912276 3.69109
-1.67351 0.925156 4.99587
-1.70597 1.64833 -3.47277
-1.72063 1.67224 -2.20496
-1.7227 1.70798 -0.657736
-1.71684 1.74904 0.869539
-1.71112 1.78501 2.41983
-1.70725 1.80486 3.69404
-1.70478 1.82042 4.98845
-0.793747 -0.0760556 -3.85829
-0.800354 -0.0552159 -2.5727
-0.80206 -0.03796 -0.897407
-0.774758 0.00356725 0.798456
-0.796847 -0.002798 2.47446
-0.8073 0.00681986 3.76642
-0.809503 0.0280534 5.04295
-0.792319 0.211413 -3.79025
-0.821145 0.29915 3.75244
-0.820592 0.322781 5.03138
-0.824445 0.78213 -3.62279
-0.840854 0.909986 3.68473
-0.840308 0.923717 4.99024
-0.858891 1.64719 -3.4629
-0.873432 1.67083 -2.19396
-0.877106 1.70676 -0.652243
-0.874995 1.74853 0.86565
-0.872671 1.78538 2.40947
-0.870314 1.8053 3.68325
-0.869086 1.82062 4.97906
0.844028 -0.0750519 -3.86126
0.811073 -0.0531656 -2.57644
0.817725 -0.0330054 -0.909978
0.838983 -0.00490595 0.775156
0.851154 0.0106364 2.44318
0.849629 0.0173788 3.74192
0.849575 0.03382 5.02398
0.855114 0.211894 -3.79193
0.842315 0.311768 3.72867
0.841926 0.328811 5.0134
0.879768 0.782203 -3.62393
0.83471 0.914409 3.67354
0.828738 0.927272 4.97696
0.841441 1.64743 -3.46574
0.833106 1.67098 -2.19664
0.824868 1.70672 -0.65548
0.81732 1.74796 0.861394
0.810737 1.78476 2.40374
0.807184 1.8053 3.67559
0.804047 1.82117 4.96966
1.66714 -0.0754351 -3.85732
1.63828 -0.0538259 -2.56978
1.64267 -0.0309091 -0.915068
1.65934 -0.00531021 0.756628
1.67333 0.0145299 2.41457
1.67777 0.0249121 3.71774
1.67913 0.0395403 5.00644
1.67728 0.211783 -3.79185
1.64155 0.234228 -2.51353
1.64607 0.25927 -0.877561
1.65545 0.286733 0.764883
1.66676 0.309876 2.40356
1.67238 0.320306 3.70648
1.67281 0.334705 4.99787
1.70907 0.783397 -3.63694
1.703 0.805119 -2.3542
1.6912 0.836041 -0.778811
1.6813 0.872859 0.788645
1.67259 0.905986 2.366
1.66733 0.918068 3.66692
1.66198 0.930752 4.96957
1.68584 1.64888 -3.47914
1.68002 1.67265 -2.21121
1.67053 1.70796 -0.665364
1.66006 1.7479 0.859562
1.65067 1.78376 2.40686
1.64485 1.80475 3.67781
1.64003 1.82134 4.96933
-0.869914 0.518848 -2.45251
0 0.235754 -2.51945
-0.80389 0.237632 -1.68767
-0.86853 0.591249 2.45396
0.00766799 0.331706 2.41329
-0.836888 0.250722 1.64247
0 0.806824 -2.32932
-0.871131 0.812961 -1.54333
0 0.908633 2.36616
-0.852186 0.89055 1.58333
0.869883 0.518659 -2.45248
0.809029 0.240049 -1.69433
0.881167 0.606222 2.43893
0.889349 0.236041 1.60913
0.871195 0.812701 -1.54333
0.85221 0.890467 1.58333
-0.809125 0.255441 -0.0226001
-0.885147 0.540378 -0.8084
0.00229166 0.230555 -0.8618
-0.888444 0.587279 0.8058
0.0243574 0.230769 0.7966
-0.862486 0.852583 0.02
2.64918e-05 1.25303 -0.761667
1.69988e-05 1.49021 0.801667
0.816044 0.27119 -0.0426
0.885714 0.545534 -0.815067
0.888107 0.577969 0.792467
0.862524 0.852406 0.02
-0.884614 0.529613 -1.6155
-0.887531 0.563828 -0.00130004
-0.895873 0.589264 1.6129
0.00114583 0.230342 -1.691
0.0133245 0.230588 -0.0326
0.0160127 0.230464 1.6258
0 0.518754 -2.50769
0.00383399 0.598736 2.50313
1.32459e-05 0.998227 -1.54333
2.17453e-05 1.49371 0.02
8.49942e-06 1.28208 1.58333
0.884285 0.532097 -1.61883
0.887348 0.561752 -0.0113
0.895802 0.592096 1.59623
-1.21731 0.23334 -2.51421
-0.797677 0.089892 -2.54645
-0.793659 0.223206 -3.15522
-1.23134 0.285868 2.46242
-0.81049 0.136101 2.47473
-0.822638 0.287075 3.11372
-1.29624 0.803714 -2.33843
-0.854722 0.792413 -2.9739
-0.879216 1.23676 -2.25948
-1.25908 0.907148 2.37433
-0.842927 0.908742 3.02487
-0.858836 1.34644 2.38723
0.803037 0.0909172 -2.54832
0.825057 0.223447 -3.15606
1.21828 0.234614 -2.51687
0.845311 0.157818 2.43909
0.840891 0.308384 3.08184
1.25312 0.307438 2.41928
0.882384 0.792261 -2.97446
0.859053 1.23665 -2.26082
1.294 0.803719 -2.3396
0.839855 0.910926 3.01927
0.827868 1.3461 2.38437
1.2588 0.906715 2.3655
-1.22343 0.249658 -0.857347
-0.803844 0.104728 -0.87627
-1.1941 0.300877 0.804571
-0.773947 0.15326 0.804195
-1.28352 0.833501 -0.766978
-0.872242 1.27005 -0.706955
-1.26912 0.874298 0.801467
-0.866184 1.31007 0.833658
0.813968 0.11247 -0.889222
1.22814 0.258607 -0.873014
0.830417 0.139778 0.779211
1.23865 0.285597 0.774075
0.846149 1.26992 -0.708574
1.27932 0.834583 -0.770239
0.837364 1.30972 0.831531
1.26936 0.872168 0.795156
-1.62634 -0.0677241 -3.20523
-1.62914 0.0663283 -3.81839
-1.20938 -0.0768509 -3.85415
-1.62674 -0.0469128 -1.72708
-1.63364 0.0869392 -2.53434
-1.21401 -0.0565089 -2.56658
-1.61436 -0.0164634 -0.0499186
-1.63353 0.107938 -0.87663
-1.21394 -0.0369919 -0.895554
-1.61176 0.00349419 1.62809
-1.60898 0.150949 0.796536
-1.18883 0.00333214 0.79616
-1.62718 0.00774776 3.11131
-1.62959 0.150314 2.45608
-1.20874 0.000546671 2.46839
-1.63602 0.021063 4.40124
-1.64126 0.158583 3.75357
-1.22052 0.00921202 3.76336
-1.64446 0.177988 5.03701
-1.2239 0.0292876 5.04257
-1.63644 0.220992 -3.14749
-1.65407 0.496552 -3.71003
-1.2128 0.210858 -3.78851
-1.64043 0.24179 -1.68389
-1.67355 0.518206 -2.43004
-1.62815 0.27535 -0.0301757
-1.67045 0.54278 -0.815925
-1.62681 0.297768 1.62453
-1.64797 0.587896 0.800238
-1.64367 0.301149 3.09834
-1.65586 0.601767 2.41675
-1.64971 0.315509 4.38934
-1.6616 0.608919 3.71896
-1.23497 0.302356 3.74964
-1.66207 0.625305 5.01385
-1.23561 0.324118 5.03161
-1.69117 0.793766 -2.99257
-1.69042 1.21557 -3.55303
-1.24966 0.782465 -3.62804
-1.70357 0.819196 -1.56207
-1.71405 1.23849 -2.27841
-1.69026 0.855327 0.0144884
-1.71118 1.27082 -0.715013
-1.67702 0.891895 1.59247
-1.69885 1.31302 0.835403
-1.67379 0.909537 3.03738
-1.69214 1.34591 2.40175
-1.67397 0.918716 4.34348
-1.69084 1.35857 3.69256
-1.25764 0.911131 3.68791
-1.68915 1.37279 4.99216
-1.25691 0.924436 4.99306
-1.7133 1.66029 -2.83886
-1.28243 1.64776 -3.46784
-1.72166 1.69011 -1.43135
-1.29703 1.67154 -2.19946
-1.71977 1.72851 0.105902
-1.2999 1.70737 -0.654989
-1.71398 1.76703 1.64469
-1.29592 1.74878 0.867595
-1.70919 1.79494 3.05693
-1.2919 1.7852 2.41465
-1.70602 1.81264 4.34124
-1.28878 1.80508 3.68864
-1.28693 1.82052 4.98375
-0.797051 -0.0656358 -3.2155
-0.793033 0.0676786 -3.82427
0.0251404 -0.0755537 -3.85978
-0.801207 -0.046588 -1.73505
0.00535953 -0.0541908 -2.57457
-0.788409 -0.0171964 -0.0494752
0.00783291 -0.0354827 -0.903692
-0.785803 0.000384623 1.63646
0.0321126 -0.000669349 0.786806
-0.802073 0.00201093 3.12044
0.0271535 0.00391921 2.45882
-0.808401 0.0174366 4.40468
-0.814222 0.152985 3.75943
0.0211648 0.0120993 3.75417
-0.815047 0.175417 5.03716
0.020036 0.0309367 5.03347
-0.808382 0.496771 -3.70652
0.0313977 0.211653 -3.79109
-0.820869 0.310966 4.39191
-0.831 0.604568 3.71858
0.010585 0.305459 3.74055
-0.83045 0.623249 5.01081
0.0106669 0.325796 5.02239
-0.841668 1.21466 -3.54285
0.0276616 0.782167 -3.62336
-0.840581 0.916852 4.33749
-0.855584 1.35764 3.68399
-0.00307204 0.912197 3.67914
-0.854697 1.37217 4.98465
-0.00578497 0.925494 4.9836
-0.866162 1.65901 -2.82843
-0.0087251 1.64731 -3.46432
-0.875269 1.68879 -1.4231
-0.0201631 1.6709 -2.1953
-0.87605 1.72764 0.106704
-0.0261193 1.70674 -0.653862
-0.873833 1.76695 1.63756
-0.0288371 1.74824 0.863522
-0.871493 1.79534 3.04636
-0.0309671 1.78507 2.4066
-0.8697 1.81296 4.33115
-0.0315652 1.8053 3.67942
-0.0325198 1.8209 4.97436
0.827551 -0.0641087 -3.21885
0.849571 0.0684211 -3.8266
1.25558 -0.0752435 -3.85929
0.814399 -0.0430855 -1.74321
1.22467 -0.0534958 -2.57311
0.828354 -0.0189557 -0.0674112
1.2302 -0.0319573 -0.912523
0.845069 0.00286524 1.60917
1.24916 -0.00510808 0.765892
0.850392 0.0140076 3.09255
1.26224 0.0125832 2.42888
0.849602 0.0255994 4.38295
0.845972 0.164574 3.73529
1.2637 0.0211454 3.72983
0.84575 0.181315 5.01869
1.26435 0.0366801 5.01521
0.867441 0.497049 -3.70793
1.2662 0.211838 -3.79189
0.84212 0.32029 4.37104
0.838513 0.613088 3.70111
1.25735 0.316037 3.71758
0.835332 0.628041 4.99518
1.25737 0.331758 5.00564
0.860605 1.21481 -3.54484
1.29442 0.7828 -3.63043
0.831724 0.92084 4.32525
0.820947 1.35985 3.67456
1.25102 0.916238 3.67023
0.816392 1.37422 4.97331
1.24536 0.929012 4.97327
0.837274 1.6592 -2.83119
1.26364 1.64815 -3.47244
0.828987 1.68885 -1.42606
1.25657 1.67182 -2.20392
0.821094 1.72734 0.102957
1.2477 1.70734 -0.660422
0.814029 1.76636 1.63257
1.23869 1.74793 0.860478
0.80896 1.79503 3.03966
1.2307 1.78426 2.4053
0.805615 1.81323 4.32262
1.22602 1.80502 3.6767
1.22204 1.82126 4.9695
1.65271 -0.0646305 -3.21355
1.67221 0.0681738 -3.82459
1.64047 -0.0423675 -1.74242
1.63991 0.0902011 -2.54166
1.651 -0.0181097 -0.0792199
1.64437 0.11418 -0.896315
1.66634 0.00460986 1.5856
1.65739 0.140711 0.760756
1.67555 0.019721 3.06615
1.67005 0.162203 2.40906
1.67845 0.0322262 4.36209
1.67508 0.172609 3.71211
1.67597 0.187123 5.00216
1.65941 0.223005 -3.15269
1.69317 0.49759 -3.7144
1.64381 0.246749 -1.69555
1.67228 0.519674 -2.43386
1.65076 0.273001 -0.056339
1.66864 0.547656 -0.828186
1.66111 0.298304 1.58422
1.66838 0.579796 0.776764
1.66957 0.315091 3.05502
1.66968 0.607931 2.38478
1.6726 0.327505 4.35218
1.66986 0.619187 3.6867
1.66739 0.632729 4.98372
1.70604 0.794258 -2.99557
1.69746 1.21614 -3.55804
1.6971 0.82058 -1.5665
1.69151 1.23888 -2.28271
[...]
POINT_DATA 29498
VECTORS point_vectors float
-6.09149 -6.42797 9.72768
0.400945 1.06387 5.64511
-4.0891 1.11059 8.50709
0.227485 0.0420737 1.37118
6.16361 -6.60511 9.73875
-0.245015 0.260089 2.41403
4.29769 1.25136 8.86742
-0.236751 0.0446927 1.39426
0.0874938 -0.0170842 1.59985
0 0 0
0.00183089 0.0073975 0.0866424
0.00415577 0.0130142 0.0412763
-0.0449179 -0.0107759 1.1132
-0.0113185 -0.049695 0.447661
-0.00184823 0.00747561 0.0869706
-0.0041063 0.0128815 0.041216
-0.481272 -0.193605 19.8802
-1.2044 -0.623928 20.4769
-0.352054 -0.395873 21.3887
0.0698852 -0.112316 21.5652
0.570585 0.186437 21.5866
0.776207 0.322042 21.3836
1.32011 0.250578 20.4083
-0.550177 -0.155239 19.8128
-1.48745 -0.535449 20.4803
-0.413536 -0.483188 21.4225
0.0819008 -0.204811 21.6465
0.684737 0.0449226 21.6327
0.985582 0.11909 21.456
1.03136 -0.00377966 21.347
-0.669986 0.0380137 19.7898
-1.59627 0.00427949 20.5421
-0.898836 -0.49016 21.4274
-0.131751 -0.374758 21.7254
0.583599 -0.290012 21.6464
1.08826 -0.24994 21.1895
0.97935 -0.271432 20.3407
-0.513367 0.271989 19.9675
-1.04592 0.463828 20.4963
-0.991669 0.159659 21.3042
-0.311029 -0.124243 21.7104
0.240697 -0.33278 21.5292
0.469138 -0.437971 21.1655
0.473186 -0.383146 21.054
-0.406501 -0.367581 19.423
-2.44907 -3.5705 20.2696
-0.0459282 0.103729 20.151
0.270731 0.102023 18.0991
0.575038 1.0706 18.9479
0.786616 1.53055 18.7774
0.679777 1.43541 19.8078
-0.528144 -0.307883 19.2221
1.2394 1.74347 15.1345
1.59829 0.994042 14.8266
-0.741462 0.167531 18.9191
1.736 0.674147 10.035
1.36743 -0.118788 14.0721
-0.520259 0.640072 19.5179
-1.43963 1.71311 20.2001
-2.37198 1.65652 21.4608
-0.652275 0.128435 22.2635
0.192986 -0.651356 21.5189
0.567375 -0.950722 20.0393
0.71496 -1.02088 19.9088
0.425311 -0.36646 19.4724
2.44855 -3.47641 20.2551
0.0334791 0.106725 20.2645
-0.226949 0.0912389 19.1594
-0.676726 1.08572 19.3558
-1.04527 1.40488 18.8773
-0.978519 1.41738 19.1844
0.543908 -0.286396 19.2783
-1.54046 1.55575 15.5085
-1.59027 1.02774 16.1125
0.748627 0.148787 19.0053
-1.66078 0.458881 10.1439
-0.912309 0.10034 14.1475
0.512661 0.641543 19.5084
1.40462 1.79738 20.1702
2.42846 1.90393 21.4284
0.668818 0.177851 22.3
-0.155586 -0.686598 21.5697
-0.572831 -0.974655 19.2179
-0.817819 -1.03525 19.3171
0.463897 -0.182099 19.8935
1.19371 -0.619018 20.4857
0.355794 -0.403189 21.3787
-0.0460542 -0.129136 21.565
-0.551368 0.150219 21.5919
-0.844276 0.331893 21.0978
-1.09666 0.250402 20.5065
0.537409 -0.143981 19.8367
1.48543 -0.531098 20.4722
0.431022 -0.489378 21.4186
-0.0521571 -0.205054 21.6399
-0.666249 0.0272203 21.6458
-0.975482 0.162553 21.1503
-1.16795 -0.00871965 20.8743
0.656865 0.0355599 19.8136
1.60485 0.00454171 20.5415
0.912255 -0.493345 21.4294
0.140613 -0.37312 21.7238
-0.58079 -0.294286 21.6597
-1.03136 -0.305632 20.9144
-1.12328 -0.217416 20.9584
0.515634 0.275333 19.9585
1.07859 0.494104 20.4832
1.05317 0.181341 21.3213
0.33518 -0.117982 21.7242
-0.25472 -0.344052 21.5451
-0.441643 -0.45511 21.3506
-0.533564 -0.44616 21.0585
-2.24175 -0.590019 3.97071
0.0250834 -4.86123 3.06443
0.0308074 -0.00581886 0.296506
0.0479063 -0.25321 0.496396
0.0022098 -9.22665e-05 -0.000761291
0.00186603 0.00397574 0.368916
0.00127677 0.770825 0.892424
-0.014676 -0.0262984 0.277469
0.00761004 0.0588522 -0.0317182
0.0157976 0.0428692 0.141255
2.22938 -0.579674 3.97656
-0.0363123 -0.0144704 0.45576
-0.158835 -0.0914877 0.853311
0.000700469 0.0134676 3.60809
0.0159278 -0.026768 0.290309
-0.0141234 0.0386345 0.131936
-0.0250159 0.0436966 1.41854
3.63776e-05 0.000112945 0.0164502
-1.90821e-08 -1.27834e-09 1.2471e-05
0 0 0
0 0 0
0.00640929 0.0268828 0.0808981
-3.45208e-05 0.0386796 0.0651328
-5.07969e-08 -9.81743e-06 0.000244978
0.0042524 0.00665597 0.176098
-4.73485e-05 0.00041201 0.0327813
0 0 0
-0.00645124 0.027052 0.0814867
-1.45536e-05 -0.00134538 0.0320916
-0.000461587 0.00871934 0.0580273
6.14977e-05 0.00162956 0.0119235
1.82927e-09 -1.15165e-07 -3.73178e-06
1.90702e-08 2.10456e-08 -1.06966e-05
1.03815e-07 1.69834e-08 1.66531e-05
2.43569e-05 0.00927776 0.00170172
0.0134889 0.0529736 -0.0615212
-1.18571e-05 0.00195835 0.0145324
8.34615e-08 0.000287459 0.00410228
-5.6338e-07 3.27613e-05 -4.00351e-05
4.37686e-06 -0.000452096 0.011165
0.000360313 0.00709975 0.0480331
0.00214857 0.0107631 0.0662405
-2.88043 -1.39793 20.4924
-4.04305 -5.45518 20.1987
-1.56909 -1.07979 18.0865
1.04181 0.369769 21.0144
0.713803 1.15226 14.3313
0.860307 1.28785 11.4175
-3.03349 0.155924 20.7141
-2.39387 0.868214 17.5778
-2.97335 2.63631 20.1613
0.978168 -0.255173 20.7727
0.668027 0.750655 6.61868
1.2404 0.234072 14.3603
4.05426 -5.37076 20.1661
1.57311 -1.02533 18.1791
2.88006 -1.39031 20.4757
-0.880576 1.06638 13.9825
-1.0139 1.25187 11.3562
-1.0305 0.293831 21.203
2.40819 0.828816 17.7198
2.98318 2.75333 20.1265
3.04403 0.165502 20.695
-0.66842 0.594304 6.56563
-1.29065 0.303495 13.2252
-0.974474 -0.268397 20.7975
-0.100449 -0.743999 21.4598
0.610772 0.192082 14.7354
0.201518 -0.053953 20.2897
0.428751 -0.00842722 9.9069
-1.26341 -1.18782 21.7004
-5.17324 0.102712 19.7904
0.0336057 -0.547055 20.9673
0.482029 1.21487 11.512
-0.619952 0.191535 14.5679
0.123128 -0.767108 21.4286
-0.301197 -0.147191 12.8967
-0.166432 -0.130602 20.9354
5.68734 0.100488 19.3071
1.28448 -1.19441 21.7083
-0.628427 1.38375 9.72713
-0.0209011 -0.547098 20.9955
-0.879321 -0.409559 19.9788
-0.523574 -0.178961 19.853
-0.495185 -0.273815 19.6808
-0.773852 -0.530302 21.1974
-1.29765 -0.586108 20.4845
-1.79836 -1.36784 20.4414
-0.0997316 -0.253077 21.5002
-0.38329 -0.419278 21.404
-0.147981 -0.386802 21.561
0.265676 0.0264355 21.6295
0.0765884 -0.150556 21.5971
0.169393 -0.0107898 21.4984
0.724061 0.262693 21.4489
0.623524 0.134946 21.6061
0.768089 0.535283 21.5607
0.734829 0.206994 20.4602
0.903671 0.217802 21.494
1.17078 0.56274 20.9233
1.22787 0.130811 20.8916
1.21539 0.847929 21.1697
-1.03856 -0.32166 19.8905
-0.630454 -0.0636464 19.7743
-0.599915 -0.239694 19.5447
-0.899616 -0.533017 21.249
-1.61205 -0.273689 20.4938
-0.129374 -0.359563 21.5499
-0.628633 -0.533943 21.4285
0.317071 -0.0669357 21.7
0.0141995 -0.305768 21.7051
0.876275 0.0975507 21.4177
0.689318 -0.123203 21.6594
1.13139 0.0513908 21.5284
1.11797 0.0490766 21.4988
1.73763 0.346434 19.8957
0.946108 -0.176053 21.5679
1.09778 0.489321 21.371
-1.19564 0.0599972 19.92
-0.637567 0.200159 19.8372
-0.791118 0.105768 19.4071
-1.24618 -0.312807 21.1332
-1.37955 0.319823 20.5025
-0.495709 -0.471876 21.647
-1.10984 -0.148882 21.3794
0.218932 -0.2879 21.7342
-0.265701 -0.257922 21.7451
0.798718 -0.274049 21.4495
0.419989 -0.365595 21.5846
0.965076 -0.394734 21.3122
0.830072 -0.319707 21.2814
1.62726 -0.410455 20.7047
0.606396 -0.447065 21.0685
1.11044 -0.347907 19.387
-0.830142 0.419573 20.1368
-0.606301 0.432256 19.7363
-1.09849 0.346769 20.9067
-1.3321 0.933093 20.3791
-0.683284 0.00180429 21.5887
-1.56178 0.554795 21.4235
0.00134383 -0.247318 21.6752
-0.471668 -0.0624651 21.9129
0.381377 -0.407924 21.3699
0.249521 -0.46506 21.6371
0.498397 -0.497572 21.0501
0.655641 -0.61828 20.9697
0.587395 -0.695569 21.5596
-1.05839 -1.18834 18.981
-0.466501 -0.334635 19.3255
0.0164492 -0.520758 19.1607
-0.977855 -0.570391 21.8468
0.010876 -6.08485 19.8059
0.20379 0.159992 19.0392
0.000709515 -0.356489 14.1817
0.328843 0.269379 18.3837
-0.0371406 -0.0875582 11.0854
0.669613 1.29229 19.5108
0.0898282 0.469399 11.923
0.797666 1.21143 19.892
0.922121 1.74691 16.9437
0.311711 0.811415 12.6741
1.44762 1.24264 15.9299
-0.129728 0.719273 11.8978
-0.668002 -0.109809 19.0267
0.0197076 -0.404963 18.8804
2.00821 1.09579 13.1133
1.5764 1.40448 9.62254
0.033005 -1.2508 -0.0267893
1.59349 0.497096 13.9855
-0.0181502 0.400018 8.37565
-0.68096 0.536461 19.1752
0.0162659 0.262757 18.3869
2.29159 0.0843345 14.1759
1.50392 -0.695793 16.0931
-0.142107 -2.00117 -2.61086
0.908287 -0.827116 18.2261
0.0771974 -0.534485 1.59624
-1.00686 1.27736 19.564
-0.00603046 0.863084 19.2326
-1.79088 1.55416 20.6962
-0.043698 2.85744 19.8794
-1.52879 0.729422 22.35
-0.120285 4.88173 20.9832
-0.0489817 -0.400381 21.9126
-0.0113561 0.444934 19.2697
0.369999 -0.85339 21.4963
0.00538486 -0.491312 18.6313
0.420799 -0.865788 19.7928
-0.0030564 -1.14494 17.918
0.0453162 -0.676955 18.6036
1.07146 -1.14259 19.0278
0.490125 -0.331665 19.3683
0.490587 -0.256607 19.7212
0.96083 -0.548061 21.8371
1.77866 -1.34013 20.4248
-0.176631 0.167043 19.498
0.167427 -0.408976 21.5486
-0.297356 0.270404 18.9842
-0.130771 -0.0524882 21.5959
-0.776162 1.34057 19.7392
-0.776297 0.456307 21.6261
-0.99721 1.32328 18.9723
-1.25104 1.60865 17.1307
-1.14646 0.608081 21.165
-1.35269 1.49178 16.4328
-1.09897 0.719749 20.6698
0.680637 -0.108044 19.1065
0.600322 -0.218011 19.5921
-1.66534 1.33208 14.7613
-1.60881 1.21052 10.1559
-1.57735 0.444744 20.8568
-1.61353 0.444761 14.8999
-1.34221 0.271678 20.5081
0.679925 0.524295 19.1847
0.792606 0.0999322 19.4502
-1.98468 0.105372 13.5061
-1.57112 -0.69025 15.6762
-1.62245 -0.444068 20.6118
-0.746394 -0.757279 17.8968
-0.98462 -0.325397 19.5892
0.989153 1.31699 19.5267
0.604341 0.438659 19.7273
1.75946 1.67638 20.6593
1.36155 0.994662 20.357
1.57626 0.860386 22.4287
1.67238 0.638194 21.4302
0.0760507 -0.402064 21.9639
0.507393 -0.0473211 21.958
-0.332922 -0.899934 21.4673
-0.240307 -0.502761 21.6855
-0.468951 -0.891977 19.4794
-0.674789 -0.685289 20.8876
-0.631704 -0.74177 21.4941
0.851324 -0.391834 19.983
0.50587 -0.166184 19.8693
0.77789 -0.532422 21.1808
1.28828 -0.581518 20.4841
0.1136 -0.258436 21.4985
0.393588 -0.428767 21.3982
-0.248167 0.0124118 21.6245
-0.0454804 -0.153472 21.5784
-0.705783 0.244059 21.405
-0.60018 0.119259 21.6139
-0.84833 0.173769 21.0048
-0.892699 0.269678 21.1304
-1.11688 0.144085 20.7041
1.00616 -0.304271 19.9108
0.614117 -0.0613648 19.7995
0.910839 -0.533557 21.2456
1.61176 -0.276031 20.4888
0.146497 -0.359753 21.5405
0.641869 -0.54146 21.4288
-0.297175 -0.075603 21.6978
0.00603686 -0.304385 21.6957
-0.861481 0.0816138 21.4491
-0.673602 -0.132022 21.6726
-1.10594 0.144499 20.9119
-1.06093 0.0301049 21.1322
-1.09287 -0.131722 20.886
1.17698 0.0575716 19.9354
0.634434 0.19991 19.8419
1.25827 -0.314414 21.1344
1.41358 0.343088 20.4919
0.501387 -0.470769 21.6461
1.1703 -0.152874 21.389
-0.215117 -0.290514 21.7449
0.285749 -0.268063 21.7584
-0.80312 -0.295459 21.4419
-0.428116 -0.383686 21.6209
-1.04439 -0.40523 21.1206
-0.729602 -0.421945 21.1361
-0.550292 -0.402624 21.1063
0.846149 0.441061 20.1158
1.14177 0.370389 20.9044
0.735056 0.0175712 21.6183
0.00877743 -0.249426 21.6757
-0.413496 -0.431218 21.3989
-0.535628 -0.521975 20.9729
-0.945938 -0.381712 19.9396
-1.27585 -1.1874 18.5971
-1.09476 -0.728494 19.5623
-1.42903 -0.607599 19.3023
-0.549564 -0.260403 19.6132
-2.35635 -1.48881 20.4884
-0.841143 -0.514778 21.2078
0.31157 0.0620099 16.3419
-0.767225 -0.74535 21.5924
-0.852227 -0.952045 21.8116
-0.0604752 -0.526985 21.5566
-0.112827 -0.292204 21.5153
0.376934 0.124367 12.9939
0.089968 -0.163592 21.5622
0.161369 -0.404526 20.9139
0.209863 -0.0528501 21.0775
0.292012 -0.0111388 21.6531
0.283608 0.120405 11.8733
0.354748 0.200484 21.6164
0.430797 0.161569 20.8207
0.934267 0.480234 21.3282
0.795264 0.204289 21.433
0.819871 1.40397 15.9865
0.939867 0.674746 21.3257
1.30403 0.513316 20.7718
1.45716 0.460627 20.7564
0.942102 0.131666 21.0216
1.58025 1.18474 16.1557
1.0127 0.711686 21.8302
1.48001 0.524162 20.5525
1.13915 0.717703 21.6357
-1.22006 -0.14798 19.8612
-2.11355 -0.285831 17.4859
-1.86843 0.285865 19.2685
-0.723477 -0.086353 19.4338
-3.34085 -0.625605 20.644
-1.06217 -0.466157 21.2194
-1.72952 -0.752253 21.5215
-0.524951 -1.0759 21.5024
-0.270238 -0.460491 21.6135
-0.494397 -0.975193 21.4761
0.231802 -0.205092 20.4427
0.306612 -0.181451 21.7349
0.507825 -0.223887 20.8052
1.08511 0.0921479 20.666
0.899429 -0.0839165 21.488
0.288368 0.849377 5.4062
1.24844 -0.318324 20.7546
1.71949 0.113854 20.7207
1.12609 -0.136673 21.3468
2.27343 0.867267 12.4197
1.82271 -0.239021 20.0668
1.10222 -0.02108 20.4344
-1.04181 0.317479 20.0016
-1.61148 1.5411 18.7987
-1.01998 0.755571 19.8851
-0.734187 0.340588 19.5226
-2.12518 0.869868 20.3997
-1.28004 0.0604721 21.0044
-3.38476 1.3123 20.9003
-1.50713 0.748163 20.8692
-2.06081 -0.179136 21.5798
-0.703089 -0.233471 21.6541
-0.690567 0.378505 13.8836
-1.04955 0.199713 21.853
-0.530613 -0.395919 22.0043
0.11102 -0.290215 21.713
1.24483 0.885993 12.3403
-0.0223269 -0.294741 21.812
0.490154 -0.59607 21.6879
0.570032 -0.442447 21.4845
1.233 -0.202754 15.7116
0.348667 -0.617267 21.4138
0.736578 -0.816907 21.6304
0.65816 -0.514328 20.978
1.33362 -0.942911 18.3035
0.358128 -0.483997 21.6452
0.782064 -0.522497 20.0952
1.29091 -1.13811 18.6609
0.0224773 -1.7344 18.269
0.0312864 -1.61489 16.7948
0.0202317 -0.5007 18.9901
0.0128202 -9.70666 19.4874
-0.310991 0.0486349 16.3572
0.0116148 -1.44919 19.7961
-0.00971356 -0.047755 5.36466
-0.369094 0.141993 13.9645
-0.0155441 -0.170948 12.0899
-0.0314159 -0.0195081 4.8186
-0.228471 0.107927 13.2777
-0.0123756 0.030761 11.4195
0.212681 0.299829 4.65185
-0.937807 1.42425 15.8868
0.253043 0.418923 12.2853
0.434809 -0.123249 -3.00427
0.286002 0.314849 6.70731
-1.31368 1.49665 16.3143
-0.23851 1.43052 12.0269
0.0530036 1.43263 6.82282
-0.0502473 0.605635 10.0163
2.13941 -0.281626 17.6424
0.0463361 1.80677 15.3489
0.0249398 -0.137401 18.4805
-0.384099 0.665406 5.51885
-0.0391906 -0.496103 -0.723354
-0.542157 -3.51824 -5.3056
-2.09375 0.898209 12.8728
-0.247148 -1.54477 -2.09086
0.0452378 0.0105421 5.00109
1.6033 1.53186 18.802
-0.0176804 1.9778 19.1034
0.0129781 0.770682 18.7007
-0.0420872 5.32886 19.4492
3.42637 1.44829 20.8701
-0.073163 3.01255 20.2427
-0.0787464 5.28743 11.5066
0.265628 0.782954 11.6457
-0.0836558 2.34739 22.096
0 0 0
-1.35057 1.00736 10.8223
0.00316674 -0.22696 18.5745
0.182638 0.261884 0.444354
-1.26129 -0.194127 14.816
0.00396641 -0.724063 18.4034
0.121838 -0.978592 6.39016
-1.28917 -0.983071 17.8393
0.0480619 -1.39188 19.2796
0.0222809 -0.947787 9.51052
0.922951 -0.363216 19.9443
1.06983 -0.685949 19.6066
1.40984 -0.589264 19.3615
0.545181 -0.236213 19.6574
2.34176 -1.46487 20.4603
0.853665 -0.515196 21.1986
0.783791 -0.754942 21.5698
0.885112 -0.962645 21.8282
0.0864714 -0.546984 21.5552
0.128669 -0.290416 21.5072
-0.0610821 -0.195326 21.5862
-0.128013 -0.448655 21.2077
-0.167753 -0.116258 21.3788
-0.26953 -0.0181878 21.6497
-0.337486 0.149993 21.7121
-0.42351 0.0820009 21.3067
-0.926375 0.393596 21.4829
-0.776297 0.181635 21.4226
-0.996824 0.625377 21.4531
-1.32586 0.418316 21.0332
-1.36529 0.568312 21.1858
-1.04622 0.228342 20.8341
-1.30993 0.72753 20.7221
-1.81297 0.603679 20.4429
-1.17453 0.637307 20.6003
1.19635 -0.139464 19.8826
1.83538 0.268568 19.3113
0.724559 -0.0793951 19.4953
3.34557 -0.61763 20.6251
1.07206 -0.466404 21.2134
1.75063 -0.749648 21.5232
0.553349 -1.08855 21.4984
0.283908 -0.458655 21.6093
0.503113 -0.975758 21.4566
-0.191697 -0.2736 20.8234
-0.292604 -0.185264 21.7449
-0.493705 -0.234673 20.828
-1.06596 0.0258998 20.8537
-0.89358 -0.100787 21.4832
-1.27209 -0.31639 20.7019
-1.68538 0.0942709 20.8631
-1.08612 -0.129279 20.8667
-1.58742 -0.345769 19.8309
-1.42507 -0.247494 20.5729
1.04428 0.322683 19.995
1.01911 0.777815 19.859
0.728473 0.335415 19.5322
2.18235 0.908079 20.3913
1.32294 0.0657317 21.006
1.55906 0.822252 20.8554
2.18453 -0.181951 21.6103
0.740233 -0.248213 21.668
1.12494 0.240437 21.9022
0.565075 -0.399499 22.0358
-0.102604 -0.300383 21.7303
0.0355127 -0.308473 21.8609
-0.493097 -0.624096 21.6491
-0.591414 -0.450723 21.448
-0.382351 -0.665897 21.4749
-0.791081 -0.840765 21.6413
-0.64889 -0.496676 21.294
-0.261186 -0.538435 21.6083
-0.558208 -0.472392 20.0181
-1.2477 -0.6899 19.4349
-0.777709 -0.825262 21.7049
0.166583 -0.280595 21.3791
0.406955 0.172434 21.2855
1.12302 0.631126 21.2216
1.22017 0.626209 22.3262
-1.79715 -0.216945 19.1154
-1.2881 -0.995171 21.8258
-0.00133578 -0.693673 20.9559
0.515353 0.0669235 20.5819
1.39554 0.0901097 20.6474
1.74546 0.285185 19.8575
-1.45576 0.738265 19.5732
-2.0531 0.229219 21.0563
-1.25145 -0.374808 22.0068
0.0959615 -0.458218 21.8782
0.69425 -0.73409 21.6761
1.23936 -0.527725 20.3822
0.0298307 -1.7593 17.6335
-0.00482874 -0.185489 6.7237
-0.0228323 -0.0372011 5.05796
0.00677499 0.0191782 5.40585
0.458103 0.255838 4.23957
-0.0552239 1.49823 9.65316
0.0402936 -0.294099 15.5098
-0.0707718 -1.18601 -3.23921
-0.278311 -0.0416731 -0.398505
0.00292181 2.57703 17.7344
-0.0580165 4.00723 20.0207
0 0 0
-0.0231041 0.24717 0.336754
0.195284 -0.248971 3.70591
-0.11541 -1.75238 8.36858
1.22248 -0.658072 19.4707
0.80758 -0.837048 21.6898
-0.124961 -0.322301 21.5097
-0.386388 0.110732 21.5351
-1.16625 0.539181 21.3174
-1.61274 0.732445 20.7503
1.75576 -0.205435 19.2037
1.31332 -1.0017 21.8292
0.0329047 -0.719543 21.1228
-0.50052 -0.0144409 20.8804
-1.4173 0.0366555 20.7828
-1.71849 0.136338 20.8836
1.44934 0.740131 19.5661
2.12957 0.236633 21.0547
1.30953 -0.375894 22.0368
-0.0812302 -0.471086 21.884
-0.715732 -0.775315 21.6298
-1.07979 -0.632103 19.9799
-1.9353 -0.616908 2.09124
-0.373183 -4.60504 3.35595
0.12065 -0.0768779 0.520712
0.118678 0.0287864 0.44831
-0.00650263 0.00229643 0.00616856
0.0901598 -0.00498638 0.807626
-1.9881 -0.372068 4.06975
-0.135852 0.817698 0.949744
-0.0196048 -0.0230449 0.208349
-0.0969247 -0.0142362 0.146163
-0.00689606 0.0455368 -0.0183727
0.012808 0.0310021 0.141373
0.400174 -4.62264 3.36805
1.94298 -0.617516 2.10357
-0.155162 -0.0972751 0.683646
0.0065218 0.00271518 0.00794952
-0.169985 0.0398288 0.755618
-0.0878814 -0.117364 0.928222
0.131984 0.763238 0.891479
1.99772 -0.484393 3.84405
0.0251617 -0.0255556 0.23737
0.01553 0.0336005 -0.013494
0.0151486 0.00100884 0.242849
-0.0126251 0.0303994 0.142657
0.0350272 -0.00469026 0.431125
0.00554087 0.0237256 1.87835
0.0014958 0.00827053 0.496877
0 0 0
-0.00210306 0.00510918 0.237679
-0.0320101 0.0486883 1.2762
-1.74193e-17 3.80295e-17 1.00953e-16
0 0 0
-0.0227298 -0.0478995 0.235769
0.000141747 0.000891502 0.0409801
0.00690331 0.0284093 0.100049
-0.0202625 0.0123643 0.0272529
0.00455046 0.0145095 0.0527045
0.000179684 0.00143668 0.00577117
0.000544751 0.00234836 0.00732105
0.0927956 0.0522668 0.460369
-0.0411963 -0.00331483 0.5311
0 0 0
0.000587428 0.0098394 0.726228
0.00139302 0.0136823 0.595052
0.0846934 0.0334219 4.16883
1.4288e-17 5.38573e-19 -1.45176e-16
0.0172013 0.0266232 0.676989
0 0 0
0.0230774 -0.0483898 0.238273
0.0208559 0.0128265 0.0282048
-0.000122216 0.00092939 0.0383478
-0.00692113 0.028468 0.100443
-0.00450294 0.0143196 0.053065
-0.0919373 0.0522536 0.456609
-0.000207567 0.00169152 0.00675869
-0.000560666 0.00242148 0.00748908
-0.00108799 0.00207915 0.033377
0 0 0
7.11519e-08 -4.88089e-06 5.56617e-05
0 0 0
0 0 0
2.50021e-06 4.52829e-08 5.69411e-06
0.000639685 0.00561549 0.0633854
-0.135852 0.129313 -0.070031
0.000456269 0.00222787 0.0300381
0 0 0
-2.16425e-06 0.000138756 0.0019375
4.09666e-07 2.02515e-08 1.03164e-05
0 0 0
-2.03941e-05 0.00869288 0.0385376
6.60036e-06 -0.000263825 0.00299404
-0.00668965 0.00239092 0.0193102
0 0 0
1.2989e-06 3.54662e-06 -3.14142e-05
-1.2307e-18 -1.17765e-17 -4.39052e-17
-1.39861e-05 9.35713e-06 -9.53981e-06
0 0 0
0.000337715 0.000614691 0.0100496
-3.15499e-07 5.80118e-09 7.12364e-07
0 0 0
0.0153041 0.0081501 -0.00774738
-0.000355214 0.00310634 0.0369203
1.54585e-06 -8.81651e-08 -4.34907e-05
0.00328314 0.0094556 0.158767
0.00677423 0.00248223 0.0198154
0.000141171 -0.00287566 0.0311744
-8.60376e-06 -5.79036e-06 6.12511e-06
0 0 0
-0.019377 0.0641048 0.558274
0 0 0
0 0 0
-0.000172599 0.00383356 0.0344417
-5.98164e-09 5.46335e-08 6.4373e-06
2.79557e-08 2.86181e-08 -1.74239e-05
5.48827e-06 0.000671074 0.00329379
7.56767e-05 0.00143044 0.00835338
-6.05631e-09 -4.25659e-09 2.72223e-06
-4.37923e-08 7.01012e-09 -1.74111e-05
0.00117782 0.00860041 0.0362328
0.0187636 0.0631843 0.633922
0 0 0
-7.93891e-06 0.0709521 0.207659
0 0 0
-7.40583e-06 -3.33628e-05 0.000888471
-6.08849e-18 -9.85101e-20 6.73667e-17
0.0144007 0.0632399 0.564255
0 0 0
0.000194693 0.00410974 0.0363559
0.000241258 0.00397676 0.0216427
-7.75498e-05 0.00131152 0.00782196