# vtk DataFile Version 2.0
tet_velo
ASCII
DATASET UNSTRUCTURED_GRID
POINTS 29498 float
-0.865981 0.155 -1.835
-0.675 0.315 2.13491
-0.725 0.584209 -2.035
-0.695 0.949633 2.085
0.865943 0.155 -1.835
0.675 0.315 2.13494
0.725 0.583868 -2.035
0.695 0.949633 2.085
-0.809475 0.201179 -0.511697
-0.801112 0.199215 0.811607
-0.856207 0.847224 -0.661667
-0.835016 0.957841 0.711667
0.816305 0.194323 -0.511687
0.800975 0.199339 0.811627
0.855718 0.846507 -0.661667
0.83505 0.957761 0.711667
-1.70425 -0.244569 -2.8421
-1.68788 -0.144393 -1.76342
-1.64284 -0.107486 -0.441409
-1.59094 -0.115046 0.870532
-1.4978 -0.0453398 2.1917
-1.47367 0.0175288 3.26622
-1.48112 0.0752322 4.34844
-1.69605 0.0283771 -2.92412
-1.6842 0.152359 -1.83997
-1.64742 0.222493 -0.508226
-1.58782 0.223583 0.819014
-1.45675 0.289925 2.1498
-1.44511 0.351486 3.22503
-1.46556 0.408944 4.30562
-1.63865 0.540556 -3.10219
-1.60447 0.660695 -2.02011
-1.6651 0.863131 -0.65426
-1.61492 0.946392 0.715134
-1.47566 0.960062 2.08002
-1.45548 1.01727 3.15318
-1.47064 1.07975 4.2257
-1.59709 1.46475 -3.33169
-1.58632 1.60194 -2.24212
-1.61107 1.80813 -0.860044
-1.6187 1.95638 0.532808
-1.58387 2.02321 1.91435
-1.55141 2.06398 3.00283
-1.53205 2.11311 4.08081
-0.884407 -0.244323 -2.83887
-0.863451 -0.140763 -1.75871
-0.821774 -0.118357 -0.442037
-0.807109 -0.131967 0.864214
-0.745789 -0.0366544 2.18065
-0.723856 0.022708 3.25873
-0.726311 0.0757831 4.3441
-0.8855 0.0200306 -2.92312
-0.69593 0.357847 3.21885
-0.712762 0.409427 4.30235
-0.834533 0.505613 -3.10837
-0.703465 1.01421 3.15418
-0.715945 1.07741 4.22592
-0.782198 1.44098 -3.3378
-0.764514 1.57975 -2.24885
-0.792335 1.80188 -0.864105
-0.820933 1.96053 0.533298
-0.809189 2.02438 1.91784
-0.783086 2.06247 3.00631
-0.763659 2.11112 4.08334
0.785732 -0.245452 -2.83887
0.831546 -0.142387 -1.75871
0.814263 -0.123008 -0.442028
0.778189 -0.132874 0.864231
0.697417 -0.0368466 2.18067
0.729535 0.0224041 3.25875
0.760449 0.0753231 4.34412
0.771585 0.0193286 -2.92312
0.730354 0.357655 3.21887
0.763097 0.409041 4.30236
0.743469 0.505012 -3.10837
0.736888 1.01403 3.15419
0.765881 1.07704 4.22593
0.831132 1.43999 -3.3378
0.85483 1.57877 -2.24885
0.846938 1.8009 -0.864103
0.794785 1.95977 0.533301
0.750585 2.02384 1.91784
0.752345 2.06196 3.00631
0.768894 2.11056 4.08334
1.62024 -0.247218 -2.8421
1.66282 -0.148107 -1.76341
1.64179 -0.11413 -0.441393
1.58093 -0.117614 0.87056
1.48227 -0.0461055 2.19173
1.48615 0.0167172 3.26625
1.51641 0.0741928 4.34847
1.61098 0.0263676 -2.92411
1.67508 0.149901 -1.83997
1.65601 0.21549 -0.508213
1.59632 0.221536 0.819039
1.47018 0.289549 2.14983
1.47903 0.350898 3.22506
1.51465 0.408046 4.30564
1.57895 0.538941 -3.10219
1.60889 0.659246 -2.02011
1.67655 0.859966 -0.654255
1.62373 0.944875 0.715143
1.48857 0.959714 2.08004
1.48869 1.01673 3.1532
1.51977 1.0789 4.22572
1.64072 1.46266 -3.33168
1.6627 1.59985 -2.24211
1.66119 1.80603 -0.860039
1.60703 1.9547 0.532815
1.54627 2.02199 1.91436
1.53339 2.06285 3.00284
1.54346 2.1119 4.08082
-0.802276 0.369605 -1.94179
-1.89841e-05 0.168193 -1.82181
-0.842441 0.173376 -1.17335
-0.703838 0.632316 2.12879
0 0.274048 2.17588
-0.794928 0.200236 1.47326
0 0.698618 -2.14958
-0.858415 0.783528 -1.34833
0 1.06419 2.19956
-0.795471 0.9842 1.39833
0.803184 0.369434 -1.94271
0.845132 0.170654 -1.17334
0.705962 0.632316 2.13093
0.795715 0.199442 1.47328
0.854623 0.779452 -1.34833
0.795487 0.984159 1.39833
-0.806205 0.199286 0.149955
-0.87831 0.524202 -0.586682
0.00341533 0.148874 -0.511692
-0.88333 0.578528 0.761637
-6.85183e-05 0.158151 0.811617
-0.853005 0.909926 0.025
-0.000244662 1.15024 -0.661667
1.69694e-05 1.42516 0.711667
0.805367 0.200104 0.14997
0.87771 0.520415 -0.586677
0.883331 0.57855 0.761647
0.85276 0.90951 0.025
-0.89083 0.446903 -1.26084
-0.876065 0.551365 0.0874775
-0.891221 0.605422 1.4358
0.00169817 0.154223 -1.17335
0.0016734 0.151395 0.149962
-3.42592e-05 0.23367 1.47327
-9.49204e-06 0.369519 -2.25013
0 0.632316 2.30548
-0.000122331 0.972631 -1.34833
-0.000113847 1.40881 0.025
8.48469e-06 1.27793 1.39833
0.891212 0.444925 -1.26084
0.875855 0.549483 0.087485
0.891221 0.605433 1.43581
-1.27509 0.15368 -1.83749
-0.864716 0.0071183 -1.79685
-0.875741 0.0875153 -2.37906
-1.06587 0.302463 2.14235
-0.710394 0.139173 2.15778
-0.685465 0.336423 2.67688
-1.16474 0.622452 -2.02755
-0.779766 0.544911 -2.57169
-0.744757 1.08198 -2.14193
-1.08533 0.954847 2.08251
-0.699233 0.98192 2.61959
-0.752094 1.48701 2.00142
0.848745 0.00630673 -1.79685
0.818764 0.0871643 -2.37906
1.27051 0.15245 -1.83748
0.686208 0.139077 2.1578
0.702677 0.336327 2.6769
1.07259 0.302275 2.14239
0.734235 0.54444 -2.57169
0.789915 1.08132 -2.14193
1.16695 0.621557 -2.02755
0.715944 0.981831 2.6196
0.722793 1.48674 2.00142
1.09179 0.954674 2.08252
-1.22845 0.211836 -0.509962
-0.815624 0.0414114 -0.476867
-1.19447 0.211399 0.81531
-0.804111 0.0336239 0.83791
-1.26065 0.855178 -0.657963
-0.824271 1.32455 -0.762886
-1.22497 0.952117 0.7134
-0.827974 1.45918 0.622482
0.815284 0.035658 -0.476857
1.23616 0.204907 -0.50995
0.789582 0.0332327 0.837929
1.19865 0.210438 0.815333
0.851328 1.3237 -0.762885
1.26613 0.853237 -0.657961
0.814918 1.45877 0.622484
1.22939 0.951318 0.713405
-1.69606 -0.194481 -2.30276
-1.70015 -0.108096 -2.88311
-1.29433 -0.244446 -2.84049
-1.66536 -0.125939 -1.10241
-1.68604 0.00398324 -1.8017
-1.27566 -0.142578 -1.76106
-1.61689 -0.111266 0.214562
-1.64513 0.0575038 -0.474818
-1.23231 -0.112921 -0.441723
-1.54437 -0.0801931 1.53111
-1.58938 0.0542684 0.844773
-1.19902 -0.123507 0.867373
-1.48574 -0.0139055 2.72896
-1.47727 0.122293 2.17075
-1.12179 -0.0409971 2.18617
-1.47739 0.0463805 3.80733
-1.45939 0.184508 3.24563
-1.09876 0.0201184 3.26247
-1.47334 0.242088 4.32703
-1.10371 0.0755076 4.34627
-1.69012 0.0903681 -2.38204
-1.66735 0.284466 -3.01315
-1.29078 0.0242038 -2.92362
-1.66581 0.187426 -1.1741
-1.64434 0.406527 -1.93004
-1.61762 0.223038 0.155394
-1.65626 0.542812 -0.581243
-1.52229 0.256754 1.48441
-1.60137 0.584988 0.767074
-1.45093 0.320706 2.68742
-1.4662 0.624994 2.11491
-1.45533 0.380215 3.76532
-1.45029 0.68438 3.18911
-1.07052 0.354667 3.22194
-1.4681 0.744345 4.26566
-1.08916 0.409185 4.30398
-1.62156 0.600626 -2.56115
-1.61787 1.00265 -3.21694
-1.23659 0.523084 -3.10528
-1.63479 0.761913 -1.33718
-1.5954 1.13132 -2.13111
-1.64001 0.904762 0.0304372
-1.63808 1.33563 -0.757152
-1.54529 0.953227 1.39758
-1.61681 1.45138 0.623971
-1.46557 0.988668 2.6166
-1.52976 1.49164 1.99719
-1.46306 1.04851 3.68944
-1.50344 1.54063 3.07801
-1.07947 1.01574 3.15368
-1.50135 1.59643 4.15325
-1.09329 1.07858 4.22581
-1.59171 1.53335 -2.7869
-1.18965 1.45287 -3.33474
-1.5987 1.70503 -1.55108
-1.17542 1.59084 -2.24548
-1.61489 1.88225 -0.163618
-1.2017 1.805 -0.862075
-1.60129 1.98979 1.22358
-1.21982 1.95845 0.533053
-1.56764 2.0436 2.45859
-1.19653 2.0238 1.9161
-1.54173 2.08855 3.54182
-1.16725 2.06323 3.00457
-1.14785 2.11212 4.08207
-0.873929 -0.192543 -2.29879
-0.884954 -0.112146 -2.881
-0.0493379 -0.244887 -2.83887
-0.842612 -0.12956 -1.10037
-0.0159524 -0.141575 -1.75871
-0.814441 -0.125162 0.211088
-0.00375535 -0.120682 -0.442032
-0.776449 -0.0843106 1.52243
-0.0144603 -0.13242 0.864223
-0.734822 -0.00697322 2.71969
-0.024186 -0.0367505 2.18066
-0.725083 0.0492456 3.80141
-0.709893 0.190277 3.23879
0.00283954 0.0225561 3.25874
-0.719536 0.242605 4.32322
0.0170689 0.0755531 4.34411
-0.860017 0.262822 -3.01575
-0.0569575 0.0196796 -2.92312
-0.704346 0.383637 3.7606
-0.699698 0.686027 3.18652
0.0172119 0.357751 3.21886
-0.714353 0.743416 4.26413
0.0251675 0.409234 4.30235
-0.808365 0.973299 -3.22309
-0.0455317 0.505312 -3.10837
-0.709705 1.04581 3.69005
-0.743276 1.53834 3.08025
0.0167113 1.01412 3.15419
-0.739802 1.59426 4.15463
0.0249683 1.07722 4.22592
-0.773356 1.51037 -2.79333
0.024467 1.44049 -3.3378
-0.778424 1.69081 -1.55648
0.0451581 1.57926 -2.24885
-0.806634 1.8812 -0.165404
0.0273016 1.80139 -0.864104
-0.815061 1.99246 1.22557
-0.0130736 1.96015 0.533299
-0.796138 2.04343 2.46207
-0.029302 2.02411 1.91784
-0.773372 2.0868 3.54482
-0.0153704 2.06221 3.00631
0.00261774 2.11084 4.08334
0.808639 -0.193919 -2.29879
0.778658 -0.113062 -2.881
1.20299 -0.246335 -2.84048
0.822904 -0.132697 -1.10037
1.24718 -0.145247 -1.76106
0.796226 -0.127941 0.211102
1.22803 -0.118569 -0.44171
0.737803 -0.0848601 1.52245
1.17956 -0.125244 0.867396
0.713476 -0.00722128 2.71971
1.08985 -0.0414761 2.1862
0.744992 0.0488636 3.80143
0.729944 0.190029 3.23881
1.10784 0.0195607 3.2625
0.761773 0.242182 4.32324
1.13843 0.0747579 4.34629
0.757527 0.26217 -3.01575
1.19128 0.0228481 -2.92362
0.746725 0.383348 3.76062
0.733621 0.685842 3.18653
1.10469 0.354276 3.22197
0.764489 0.743041 4.26414
1.13887 0.408543 4.304
0.787301 0.972503 -3.22309
1.16121 0.521976 -3.10528
0.751385 1.04554 3.69006
0.744617 1.53799 3.08025
1.11279 1.01538 3.1537
0.767388 1.5938 4.15463
1.14283 1.07797 4.22582
0.842981 1.50938 -2.79332
1.23593 1.45133 -3.33474
0.850884 1.68984 -1.55648
1.25877 1.58931 -2.24548
0.820862 1.88034 -0.165401
1.25407 1.80347 -0.862071
0.772685 1.99181 1.22557
1.20091 1.95724 0.533058
0.751465 2.0429 2.46208
1.14843 2.02291 1.9161
0.76062 2.08626 3.54483
1.14287 2.0624 3.00458
1.15618 2.11123 4.08208
1.64153 -0.197662 -2.30275
1.61561 -0.110425 -2.8831
1.6523 -0.131118 -1.1024
1.66895 0.000897182 -1.80169
1.61136 -0.115872 0.214583
1.6489 0.0506799 -0.474803
1.5316 -0.08186 1.53115
1.58862 0.051961 0.8448
1.48421 -0.0146941 2.72899
1.47623 0.121722 2.17078
1.50128 0.045455 3.80736
1.48259 0.183807 3.24566
1.51553 0.241119 4.32705
1.64303 0.0881342 -2.38204
1.59496 0.282654 -3.01315
1.66555 0.182695 -1.17409
1.64199 0.404574 -1.93004
1.62616 0.218513 0.155413
1.66628 0.537728 -0.581234
1.53325 0.255543 1.48444
1.61002 0.583206 0.767091
1.47461 0.320223 2.68745
1.47938 0.624632 2.11494
1.49684 0.379472 3.76535
1.48386 0.683814 3.18913
1.51721 0.743472 4.26568
1.59392 0.599093 -2.56115
1.60983 1.0008 -3.21693
1.64272 0.759606 -1.33718
1.6358 1.12955 -2.13111
[...]
POINT_DATA 29498
VECTORS point_vectors float
-1.47952 -1.75727 5.63127
0.15119 0.270551 0.798046
-2.60987 0.869958 3.21206
-0.00411895 -0.146083 0.220779
1.48037 -1.75536 5.62558
-0.152525 0.273794 0.799033
2.62105 0.862052 3.22643
0.00366419 -0.148311 0.222892
0.00804796 -0.00141703 0.457158
0 0 0
-0.0750286 -0.0693886 0.610173
0.0271356 0.0592858 0.241845
-0.0227428 0.021528 0.447185
0 0 0
0.077511 -0.0750316 0.622923
-0.0209543 0.049189 0.191804
-0.659868 -0.354896 20.0323
-1.03805 -0.618623 20.8368
-0.329268 -0.412216 21.4007
0.159169 -0.134679 21.5862
0.759975 0.18489 21.4385
1.01096 0.206931 21.2726
0.966596 0.0412571 20.7723
-0.729909 -0.250004 19.939
-1.3494 -0.544415 20.7148
-0.487627 -0.477047 21.4315
0.102754 -0.264817 21.6513
1.00007 -0.0564942 21.5823
1.24075 -0.024362 21.1416
1.1051 -0.0793598 21.0221
-0.74977 -0.0467882 19.7335
-1.79315 -0.0497418 20.3495
-1.08499 -0.308086 21.3736
-0.293121 -0.356693 21.6879
0.619678 -0.576902 21.5682
0.890689 -0.625439 21.3533
0.721912 -0.506615 20.8624
-0.459271 0.244579 19.8767
-0.945222 0.552996 20.1503
-0.979301 0.441952 20.9961
-0.431397 0.0627708 21.467
0.047332 -0.269286 21.4298
0.283718 -0.43525 21.3553
0.397497 -0.637839 20.5256
-0.841346 -0.970036 19.4155
-1.44619 -2.47855 21.8401
-0.0830016 -0.100157 20.5527
0.241609 0.174621 20.3255
0.548668 1.32025 18.2658
1.06952 1.53535 17.4019
1.18495 1.02714 17.1727
-1.02923 -0.828793 19.0036
1.56616 1.37088 9.87517
2.05927 1.08237 13.2039
-0.96048 -0.0765748 18.8132
0.697924 -0.582974 7.55731
1.38271 -0.854186 12.8517
-0.422364 0.461152 19.4422
-1.09472 1.62729 19.5931
-1.39999 1.67428 20.8839
-0.629394 0.474686 21.9683
-0.0285771 -0.348405 21.5299
0.140736 -0.62819 21.2552
0.0665343 -0.444145 21.8072
0.821662 -1.06737 19.3272
1.36876 -2.56142 21.8848
0.0989164 -0.101944 20.6268
-0.223463 0.19727 20.1975
-0.428501 1.28833 17.733
-1.07337 1.55451 17.4323
-1.23181 0.944477 17.3711
1.00406 -0.883062 18.876
-1.69548 1.44451 10.7586
-1.99636 0.92527 14.4378
0.941242 -0.0782672 18.6574
-0.795459 -0.649749 8.6712
-1.41476 -0.901987 14.3313
0.43689 0.453608 19.4666
1.1478 1.48289 19.6623
1.40728 1.56862 20.9039
0.630763 0.501481 21.994
0.0422842 -0.353048 21.535
-0.126607 -0.642621 21.2747
-0.0603929 -0.449889 21.7891
0.700246 -0.401241 19.9905
1.06297 -0.641421 20.8375
0.331815 -0.410647 21.3953
-0.160533 -0.133031 21.585
-0.764026 0.204692 21.4457
-0.997622 0.206001 21.2787
-0.96955 0.015313 20.6823
0.793545 -0.288791 19.8862
1.35871 -0.561562 20.7276
0.487338 -0.47236 21.431
-0.10184 -0.263889 21.6543
-0.986893 -0.0492751 21.5136
-1.19785 -0.0198845 21.0867
-1.11368 -0.119591 20.8888
0.771677 -0.0527234 19.6908
1.78523 -0.0524838 20.3602
1.06868 -0.304579 21.3706
0.287451 -0.353109 21.6933
-0.613847 -0.554864 21.5641
-0.890115 -0.595761 21.309
-0.599515 -0.417929 21.0643
0.455189 0.233922 19.8941
0.911116 0.496109 20.197
0.935663 0.407745 20.9946
0.436797 0.0612801 21.4736
-0.0387819 -0.280356 21.4377
-0.288285 -0.429961 21.3686
-0.367291 -0.70001 20.5256
-1.014 -0.0928096 1.29734
-6.05979e-20 1.07046e-17 -1.04943e-16
0.0110282 0.0106436 0.475362
-0.0054487 -0.0472552 0.0313197
0.0013416 0.0409471 0.130031
-0.0202074 0.124668 1.72325
0.00728008 1.76417 1.37503
-0.171011 -0.191973 0.834385
0.00545204 0.153151 -0.285191
0.0129911 0.0056946 0.142606
1.18272 -0.107044 1.50782
-0.004723 0.0104732 0.618954
-8.1607e-05 -0.0593702 0.0504282
0.0302744 0.114388 1.76194
0.0783765 -0.0934927 0.411548
-0.0130038 0.00556096 0.143295
-0.006777 0.0046417 0.326879
0.000206513 -0.000291673 0.0312616
2.16763e-06 -4.80161e-06 -0.000155825
-6.8698e-05 0.000454411 0.00225453
0 0 0
0.0317788 0.0766932 0.427449
0.000493576 0.0293603 0.0590136
5.37789e-05 -0.00109295 0.02968
0.00327091 0.00325333 0.228914
-0.000206378 -0.000398497 0.0286314
7.27473e-05 0.000476432 0.00237937
-0.0276149 0.0686948 0.403775
0 0 0
3.46868e-05 0.00384058 0.0307908
0.000177394 0.000446767 0.00419497
0 0 0
1.62462e-05 -7.05026e-05 0.00272987
-0.000133813 0.00083506 0.0339718
0.00072157 -0.0900613 0.023036
0.00151689 -0.0822593 -0.0143369
-0.000120245 0.00121889 0.00756477
-5.05211e-05 0.0193899 0.153517
6.02784e-05 0.000466382 -0.0011168
0 0 0
5.99489e-05 0.00435468 0.028552
-0.00015702 0.000397678 0.00368641
-2.40237 -1.27635 20.9958
-2.1548 -3.64283 22.3177
-2.62305 -2.28133 18.5365
1.53956 0.669616 17.5094
0.199036 1.3582 10.2386
0.850442 0.880889 6.03842
-3.95681 0.236035 19.8977
-2.66149 0.0517393 17.1348
-2.79558 2.995 18.7885
0.944909 -0.630085 18.3222
-0.138749 -0.519493 4.50619
0.22999 -0.622399 18.6685
2.10652 -3.73749 22.3976
2.70392 -2.57456 18.2598
2.43093 -1.30114 20.9966
-0.106912 1.29633 9.72902
-0.929853 0.928614 6.60929
-1.54274 0.641774 17.6961
2.6701 0.108934 16.8931
2.82047 2.80535 18.8782
3.94135 0.226286 19.8983
0.0497643 -0.567289 4.98926
-0.268892 -0.609816 18.021
-0.940828 -0.646233 18.529
-0.293676 -0.845105 21.6412
0.207905 0.202553 14.4763
0.216331 -0.271409 20.5322
0.429877 -0.043884 14.9907
-1.76793 -0.803385 21.7296
-3.37993 1.80558 20.9956
-0.46812 -0.615614 21.4864
-0.98721 0.0680057 21.5081
-0.201723 0.222036 14.7102
0.300995 -0.837034 21.6985
-0.453594 -0.0198861 14.6028
-0.224444 -0.282719 20.6172
3.28679 1.61606 21.0693
1.73935 -0.781584 21.7209
0.940605 0.12187 21.1871
0.467438 -0.614961 21.5343
-0.979926 -0.537182 20.3057
-0.703854 -0.30221 19.9827
-0.817128 -0.575254 19.7962
-0.657187 -0.535474 21.2499
-1.20008 -0.58631 20.782
-1.41595 -1.2131 21.0898
-0.0809245 -0.282311 21.4974
-0.402703 -0.436994 21.4135
-0.126098 -0.448401 21.5871
0.459155 0.0296383 21.5521
0.131069 -0.193272 21.5868
0.291537 -0.0593132 21.702
0.922301 0.244291 21.2995
0.892305 0.091135 21.5177
1.06269 0.691122 21.1147
1.1142 0.191647 20.7176
1.14105 0.122677 21.168
1.35367 0.822882 21.0019
1.09076 -0.0234904 20.9048
1.06529 0.53731 21.4599
-1.13426 -0.421101 20.1451
-0.757407 -0.145053 19.8331
-0.959088 -0.449015 19.5937
-0.912711 -0.530328 21.2511
-1.66145 -0.301348 20.5164
-0.182115 -0.386799 21.5427
-0.776956 -0.486053 21.4271
0.528877 -0.152064 21.7347
-0.0605501 -0.377423 21.7097
1.16076 -0.0291964 21.3415
0.922804 -0.397594 21.6056
1.35228 -0.0905661 20.9345
1.19646 -0.384425 21.223
1.77824 0.513944 18.3334
1.02791 -0.447049 20.7973
1.62655 0.282323 18.9902
-1.27643 -0.0507851 19.8566
-0.638137 0.157 19.7811
-0.924886 -0.0493644 19.3746
-1.55047 -0.188176 21.1133
-1.46876 0.437341 20.1945
-0.717872 -0.357247 21.6013
-1.22559 0.16455 21.1873
0.167248 -0.416861 21.7292
-0.462068 -0.114956 21.6307
0.787106 -0.626321 21.4027
0.217147 -0.454794 21.4573
0.959756 -0.618406 21.0241
0.485926 -0.531821 21.1271
1.16769 -0.801667 19.1846
0.409913 -0.65717 20.8594
1.40532 -1.02519 19.1901
-0.690232 0.395365 19.9482
-0.488481 0.332858 19.6678
-1.05785 0.552538 20.6219
-1.15371 0.999601 19.9251
-0.772056 0.270081 21.322
-1.29249 0.888844 20.9913
-0.15606 -0.132891 21.4906
-0.569981 0.199511 21.7057
0.154773 -0.395866 21.2623
-0.0113626 -0.345898 21.4618
0.227862 -0.348534 21.1979
0.209464 -0.503466 21.0863
0.0602685 -0.411135 21.3971
-1.60098 -2.16298 19.7766
-0.958659 -0.908224 19.2091
-0.0671133 -1.61265 18.8734
-0.442636 -0.60925 21.7855
-0.0234261 -2.77379 22.5939
0.0298988 0.0153048 20.2382
-0.00932243 -0.247687 19.3568
0.424659 0.713654 19.1605
0.00950527 0.267905 18.4001
0.718293 1.46114 18.1606
0.019247 0.805225 15.2448
1.03214 1.4014 18.111
1.37011 1.78851 14.7525
0.0173279 1.39869 15.3212
1.54422 1.18584 15.0763
-0.0690598 1.85811 15.6428
-1.01872 -0.450395 18.7992
-0.130995 -1.4056 18.0956
1.91841 1.17426 11.5073
1.77053 -0.0258002 6.74198
0.00380603 0.733137 1.82345
2.07379 0.335109 12.2274
-0.125763 1.41363 7.16971
-0.658307 0.346801 19.0992
-0.0530339 -0.0928705 17.9255
1.09118 -0.730707 10.1426
0.300781 -1.1105 20.021
-0.110854 1.15368 -6.2744
0.291133 -1.14358 19.519
-0.0553973 0.0478556 -3.29492
-0.743957 0.982696 19.3246
0.0188219 0.623861 19.2196
-1.31199 1.77762 20.3832
0.0709794 2.38212 19.2539
-1.28273 1.33276 21.6949
0.0701331 2.87603 20.5556
-0.20615 -0.0883268 21.8191
-0.0185147 1.03815 22.3547
0.0433008 -0.471239 21.3766
-0.013326 -0.234212 21.6188
0.1892 -0.710975 21.3988
0.000537838 -0.558213 21.3185
0.00754389 -0.633661 21.7338
1.57134 -2.3651 19.7144
0.914797 -0.997469 19.0685
0.825362 -0.651891 19.7202
0.462554 -0.64262 21.8044
1.44277 -1.29203 21.1209
-0.0154505 0.0091046 20.2124
0.134442 -0.447489 21.5871
-0.383109 0.706637 18.7993
-0.292747 -0.0434166 21.6995
-0.646941 1.45797 17.7507
-1.05863 0.796395 20.9413
-1.05548 1.36994 18.2385
-1.42319 1.81467 14.8672
-1.34577 0.794594 20.9894
-1.59612 1.08211 15.3359
-1.04523 0.48221 21.407
1.01424 -0.500587 18.61
0.973626 -0.523249 19.4813
-1.93403 1.08399 12.4996
-1.90992 0.0332787 7.64662
-1.7568 0.401323 18.8113
-2.06893 0.249448 13.6137
-1.57161 0.194388 19.588
0.653105 0.356097 19.0724
0.942482 -0.0544529 19.2678
-1.16588 -0.780767 11.5637
-0.31052 -1.12247 20.0676
-1.14095 -0.779506 19.5304
-0.280342 -1.12204 19.7093
-1.38986 -0.955929 19.4299
0.770905 0.930055 19.3861
0.490442 0.309869 19.6846
1.3321 1.63154 20.4057
1.13032 0.868108 19.985
1.28657 1.30756 21.6859
1.24879 0.816524 20.9965
0.208463 -0.0857535 21.8398
0.57657 0.213673 21.721
-0.0276554 -0.473575 21.3849
0.00933855 -0.348145 21.4784
-0.181865 -0.720373 21.4017
-0.211364 -0.508958 21.066
-0.0675061 -0.429958 21.3757
1.01449 -0.582749 20.2936
0.766101 -0.345419 19.9279
0.657907 -0.540273 21.2495
1.22002 -0.609598 20.79
0.0820561 -0.283668 21.4993
0.403656 -0.443978 21.4126
-0.468877 0.0363515 21.5708
-0.133263 -0.196552 21.5872
-0.920062 0.260539 21.2991
-0.895786 0.0965526 21.519
-1.05886 0.169112 20.7894
-1.10946 0.130364 21.1352
-1.1006 -0.0543016 20.8017
1.19304 -0.468872 20.1366
0.784046 -0.158437 19.7867
0.908838 -0.532435 21.2581
1.66938 -0.306708 20.5288
0.182052 -0.384207 21.5426
0.768967 -0.482308 21.4292
-0.522654 -0.155071 21.7321
0.0627261 -0.377143 21.706
-1.12603 -0.0339628 21.3411
-0.903091 -0.372231 21.5208
-1.23332 -0.128416 21.0895
-1.16121 -0.364384 21.1769
-0.918229 -0.364822 21.004
1.31821 -0.0462455 19.8337
0.640977 0.157842 19.784
1.53447 -0.185105 21.1133
1.42904 0.405715 20.226
0.713355 -0.351623 21.5963
1.1778 0.159056 21.181
-0.171873 -0.414142 21.7241
0.465466 -0.115653 21.6378
-0.782191 -0.601084 21.3811
-0.211349 -0.461922 21.4887
-0.934818 -0.605618 20.9458
-0.485517 -0.522561 21.1895
-0.488974 -0.70134 20.8428
0.676041 0.373703 19.9718
1.01675 0.507997 20.6277
0.758859 0.260976 21.3161
0.158317 -0.137618 21.4967
-0.145957 -0.38693 21.2411
-0.199337 -0.346528 21.1655
-1.06692 -0.481659 20.2249
-2.10855 -2.39705 19.2169
-1.35883 -1.02705 20.11
-1.82721 -0.876287 19.7608
-0.887971 -0.516797 19.6959
-1.89586 -1.32054 21.0716
-0.777061 -0.529029 21.2474
-0.157481 -0.0692942 17.2939
-0.56915 -0.735405 21.6099
-0.995184 -1.03288 21.8799
-0.149252 -0.649075 21.6602
-0.132299 -0.329263 21.5137
0.14033 0.15765 14.6722
0.0858752 -0.255693 21.6152
0.0404992 -0.545747 21.0159
0.310942 -0.190991 21.4526
0.485626 -0.0587084 21.6216
0.356784 0.608665 12.8325
0.668635 0.309621 21.6027
0.797921 0.178829 19.6175
1.35871 0.769074 19.8497
1.07009 0.160161 21.3139
0.67712 1.45656 12.4337
1.1982 0.790692 20.8836
1.71778 0.556697 18.2697
1.48222 0.753122 19.4805
1.25291 0.0374054 20.8124
1.50047 1.29425 14.1721
1.39152 0.779839 20.8904
2.0057 0.385235 18.9389
1.26639 0.463122 19.4114
-1.26065 -0.240143 19.9692
-3.07334 -1.28226 17.3549
-2.02575 0.00892768 19.0678
-0.979583 -0.288865 19.4424
-3.64466 -0.855603 20.5662
-1.25944 -0.428992 21.2298
-2.4801 -0.402439 21.6278
-0.861517 -1.05926 21.7652
-0.410145 -0.462794 21.5793
-1.13346 -0.801735 21.776
0.0674769 -0.454707 20.4901
0.386195 -0.322777 21.7582
0.327805 -0.480655 20.2373
1.44898 -0.00853211 16.4775
1.11618 -0.408781 21.3247
0.370438 -0.230217 3.6553
0.984065 -0.755725 19.0798
1.82056 -0.236545 17.6984
1.11796 -0.453734 21.3045
2.11622 0.398054 9.27416
1.31097 -0.991041 19.6043
1.68374 -0.445176 18.5817
-1.05536 0.297818 19.8344
-1.51293 1.16256 18.4732
-0.809894 0.642129 19.6696
-0.713695 0.254411 19.4682
-2.22453 1.13849 19.7482
-1.45437 0.351142 20.7929
-2.78503 2.31979 20.7184
-1.3078 1.06564 20.5196
-1.99009 0.464694 21.2868
-0.884367 0.00117217 21.5126
-2.81277 0.676651 22.1798
-1.05969 0.6088 21.5007
-0.701929 -0.0958618 21.981
-0.0768173 -0.289877 21.6125
0.0545824 -0.367741 20.0488
-0.207379 -0.124691 21.6711
0.142178 -0.643334 21.6547
0.371534 -0.532731 21.3754
0.16623 -0.760241 19.2408
0.084655 -0.442075 21.3549
0.403449 -0.83661 21.5897
0.519418 -0.489927 21.0814
0.438392 -1.12663 19.3676
0.253974 -0.597839 21.391
0.279529 -0.817202 21.4336
2.13831 -2.75696 19.058
-0.073984 -3.94781 19.7243
-0.141895 -6.78007 16.4975
-0.0749733 -1.52927 18.4265
-0.0121281 -2.67196 20.9435
0.218687 -0.107321 17.238
-0.0211239 -0.823413 21.5357
-0.00926033 0.013817 10.2824
-0.161795 0.142336 14.4934
0.00680777 -0.152349 18.4661
-0.000641888 0.334032 10.5665
-0.326991 0.575379 12.371
0.0221519 0.617334 16.524
0.000676938 0.538966 7.18126
-0.665096 1.47303 12.3881
0.0175458 0.908892 15.2886
0.03955 -0.518394 0.450983
0.0187371 1.33385 8.1335
-1.54651 1.25514 14.3992
-0.00410878 1.81166 14.9744
-0.0558745 0.454883 2.17573
-0.0911095 1.81199 12.9012
3.12848 -1.40645 16.9461
-0.102166 0.608735 13.8768
-0.126957 -0.733001 17.7909
-0.48569 -0.218271 4.22459
-0.00314994 0.967862 -4.82641
-0.14404 0.0534666 -3.81634
-2.14523 0.30127 10.2563
-0.00925152 0.825023 -5.94027
-0.143769 0.764651 0.124229
1.5105 1.13838 18.495
0.0523007 1.37544 18.9524
-0.0128001 0.593287 18.5916
0.107349 5.26216 17.8745
2.80295 2.15171 20.7604
0.0800452 2.67339 20.1647
0.0796401 4.74146 19.2377
2.7912 0.666258 22.1506
0.0163142 2.7255 21.8864
0.00284116 0.497437 15.674
-0.143098 -0.357021 19.4638
-0.0148533 0.0755087 22.015
-0.00292285 -0.237916 9.95913
-0.162665 -0.771387 19.04
-0.00212089 -0.353079 21.5568
0.0316561 -0.516721 12.644
-0.447258 -1.12935 19.4926
0.0124045 -0.581299 21.7223
0.0128704 -0.745015 13.7548
1.13122 -0.534762 20.2108
1.41001 -1.18641 20.0706
1.93557 -1.01682 19.6211
0.901203 -0.590872 19.5952
1.94057 -1.39449 21.0884
0.776123 -0.537462 21.2527
0.582116 -0.752972 21.6193
1.00038 -1.02758 21.8686
0.154516 -0.641738 21.6532
0.131882 -0.334499 21.5196
-0.0849304 -0.252714 21.612
-0.0315183 -0.557033 21.1095
-0.316151 -0.180954 21.3988
-0.488593 -0.060351 21.6322
-0.67339 0.352152 21.5365
-0.799921 0.165525 19.7042
-1.35653 0.820077 19.6423
-1.04974 0.15057 21.3257
-1.20504 0.828936 20.8513
-1.7207 0.503786 18.8619
-1.46492 0.683118 19.7859
-1.15956 0.00675191 20.9396
-1.40515 0.72703 20.8108
-2.03639 0.325864 19.0102
-1.22188 0.391738 19.9303
1.31266 -0.254038 19.9384
2.09507 0.00574232 18.9433
0.992056 -0.301696 19.3098
3.65736 -0.863909 20.562
1.25407 -0.427503 21.2355
2.46228 -0.395921 21.6336
0.864013 -1.03576 21.7959
0.408539 -0.45841 21.5837
1.1287 -0.790901 21.8145
-0.0571393 -0.470007 20.564
-0.38802 -0.323668 21.7684
-0.332317 -0.49639 20.3391
-1.45723 -0.0518457 16.698
-1.07355 -0.393334 21.3411
-0.985982 -0.771914 19.3484
-1.75863 -0.250397 18.5285
-1.04399 -0.419058 21.3775
-1.2181 -0.904782 19.9859
-1.63866 -0.536797 19.2048
1.04187 0.290003 19.8532
0.808633 0.583317 19.709
0.712994 0.262823 19.4521
2.13408 1.03309 19.8022
1.4044 0.329032 20.7969
1.27931 0.947846 20.5497
1.92231 0.405376 21.2859
0.87275 0.0035564 21.5017
1.05413 0.593978 21.49
0.714143 -0.0900037 21.9994
0.0766729 -0.292601 21.6189
0.211804 -0.124697 21.6866
-0.13905 -0.659363 21.6679
-0.380872 -0.537496 21.3472
-0.0889233 -0.454102 21.3578
-0.404418 -0.837342 21.5538
-0.517951 -0.516616 21.1466
-0.254452 -0.610702 21.3902
-0.287634 -0.797945 21.3906
-1.61555 -1.02301 19.9415
-0.740116 -0.907227 21.7258
0.110543 -0.409657 21.5301
0.795563 0.266363 20.8826
1.53343 0.795731 19.7524
1.69212 0.584049 19.8929
-2.10443 -0.528139 19.2762
-1.73236 -0.938115 21.9811
-0.299367 -0.867266 21.1545
0.720128 -0.0317392 19.1181
1.55315 -0.2558 17.1435
1.7777 -0.178716 17.8828
-1.37695 0.622161 19.3121
-2.22084 0.878555 20.8475
-1.51798 0.155997 21.8376
-0.130472 -0.380519 21.8811
0.262656 -0.734763 21.4334
0.608338 -0.958573 21.2069
-0.0875997 -5.27676 18.7836
-0.026962 -0.257234 13.3079
0.0287589 -0.0878935 9.98864
0.0347958 0.516693 8.51028
0.0264538 0.285864 6.94893
-0.0226481 1.18073 8.35233
-0.171929 -2.58637 13.159
-0.0129904 -0.230231 -3.505
-0.173115 0.370873 -0.924183
0.0112235 2.05512 17.3293
0.0760467 4.16644 20.3391
0.00905166 3.72145 18.9338
0.0056693 -0.360151 11.7595
0.0075952 -0.123024 11.1053
0.00716488 -0.998106 13.3828
1.67704 -1.14127 19.8889
0.743667 -0.913683 21.7318
-0.108387 -0.410281 21.5214
-0.798211 0.288081 20.777
-1.53701 0.782276 19.7956
-1.71948 0.540924 19.9455
2.23548 -0.561978 19.1483
1.72709 -0.929727 21.9655
0.318463 -0.864813 21.2161
-0.7219 -0.0632424 19.2879
-1.57108 -0.280255 17.8564
-1.71911 -0.229251 18.7294
1.36614 0.601861 19.335
2.14316 0.805927 20.8504
1.50231 0.148371 21.8206
0.126803 -0.389098 21.8973
-0.263163 -0.743348 21.4414
-0.617248 -0.937928 21.2143
-0.601314 -0.213324 1.34631
-0.0327046 -0.072265 0.585482
-0.00125227 -0.000392543 0.47374
0.0323873 -0.0149996 0.0659294
-0.0335509 0.0759589 0.237005
-0.0820481 0.186416 0.947107
-1.06351 0.0617374 1.31136
-0.565529 1.19538 1.10349
-0.351897 0.0938302 0.953213
-0.00286992 -0.0175038 0.00121314
-0.2442 0.0708831 -0.184852
0.0136514 -0.066934 0.552418
0.0339796 -0.0622096 0.556104
0.638379 -0.225781 1.43192
0.00695249 0.00633515 0.461425
0.0363094 0.0787959 0.244817
-0.033443 -0.0143672 0.0677112
0.0808592 0.188919 0.954998
0.557455 1.17852 1.07622
0.984368 0.0583268 1.21369
0.289806 0.0767278 0.786567
0.208264 0.0392641 -0.140462
0.00224407 -0.0173505 0.00197255
-0.0121022 -0.0676714 0.544886
0.0142186 -0.000801862 0.253217
0.000619908 0.00441322 0.427989
0 0 0
0 0 0
0.0330852 0.0480277 1.15977
0.00386665 -0.00179942 0.194922
0 0 0
0.0106414 -0.000867542 0.0701997
-0.242236 -0.225004 0.938143
1.01269e-06 0.000193065 0.00665642
-0.0378147 0.0126833 0.895196
0 0 0
0.0648043 0.0946275 0.605817
0.00115456 0.0168991 0.0605406
0.0727621 0.144648 0.70153
0.128298 0.0172196 0.506581
-0.0134533 0.00193419 0.25426
0 0 0
-0.00242792 0.00267123 0.291903
0 0 0
-0.0333879 0.049048 1.17613
-0.00965605 -0.000677048 0.0659643
-0.00467279 -0.00186439 0.160191
0 0 0
0.240102 -0.228031 0.959292
0 0 0
1.68078e-05 0.000127827 0.00583682
0.0378741 0.00989256 0.873971
-0.0683924 0.099341 0.584708
-0.113862 0.00677387 0.493967
-0.00119298 0.0172135 0.0611649
-0.0507303 0.113681 0.610593
0 0 0
0 0 0
0 0 0
0 0 0
-0.000659196 -0.00207487 0.0515073
0 0 0
0 0 0
-0.271634 -0.0723606 0.015697
0 0 0
0.000936228 -0.0222107 -0.00384314
0.00272848 0.0126372 0.139347
-0.00129897 0.00621391 0.102743
-0.00700927 1.09617 0.637523
-0.000181697 0.0184488 0.0672819
-0.000463982 -0.00132586 0.0178262
-0.0129642 0.012364 0.0730215
0 0 0
0 0 0
0.00171497 0.000791492 0.0148975
-0.00104785 -0.000341774 0.000858756
0 0 0
0.0288428 -0.0382755 0.41752
0 0 0
0.00175567 -0.00271829 0.0947708
0.258083 -0.0703058 0.0149072
0 0 0
0.000861955 0.00448113 0.0858584
-0.00272239 0.0130267 0.141102
0.0147596 0.0137409 0.0816373
0.00012005 -0.000350614 0.00478133
0.00115445 -0.000292488 0.000866125
-0.00197272 0.00090006 0.0171818
0 0 0
0 0 0
0 0 0
0.000189572 0.00395496 0.0534076
-4.44289e-05 0.000274325 0.0136434
0.00294911 0.00155218 0.0934405
5.32943e-05 0.00296788 0.0120026
0 0 0
0 0 0
-0.000150118 0.00086073 0.0204139
0.000143981 0.00164963 0.00733531
-0.143909 0.161896 1.22984
0 0 0
-0.000136888 0.0538571 0.149963
2.88833e-05 0.00275065 0.0653415
0.000131197 -0.00554542 0.0320767
0 0 0
0 0 0
-0.000485402 -0.000842168 0.00934955
-0.000196075 0.00387534 0.056023
-5.13755e-05 0.00295186 0.0121324
0 0 0
0.139372 0.157113 1.20841
-0.000104652 0.00134963 0.00625118
0 0 0
0 0 0
0 0 0
0.00140339 -0.00818679 0.0481399
0 0 0
1.17182e-05 0.000195291 0.0023536
0 0 0
0 0 0
0.000518574 0.00582028 0.108503
0.000997854 0.0184754 0.098172
0 0 0
0.00206852 -0.00209937 0.0133999
-0.000891998 -0.000106339 0.00968447
0.00171557 -0.000206457 0.0189742