# vtk DataFile Version 2.0
tri_press
ASCII
DATASET UNSTRUCTURED_GRID
POINTS 3682 float
-0.865981 0.155 -1.835
-0.675 0.315 2.13491
-0.725 0.584209 -2.035
-0.695 0.949633 2.085
0.865943 0.155 -1.835
0.675 0.315 2.13494
0.725 0.583868 -2.035
0.695 0.949633 2.085
-0.809475 0.201179 -0.511697
-0.801112 0.199215 0.811607
-0.856207 0.847224 -0.661667
-0.835016 0.957841 0.711667
0.816305 0.194323 -0.511687
0.800975 0.199339 0.811627
0.855718 0.846507 -0.661667
0.83505 0.957761 0.711667
-1.70425 -0.244569 -2.8421
-1.68788 -0.144393 -1.76342
-1.64284 -0.107486 -0.441409
-1.59094 -0.115046 0.870532
-1.4978 -0.0453398 2.1917
-1.47367 0.0175288 3.26622
-1.48112 0.0752322 4.34844
-1.69605 0.0283771 -2.92412
-1.6842 0.152359 -1.83997
-1.64742 0.222493 -0.508226
-1.58782 0.223583 0.819014
-1.45675 0.289925 2.1498
-1.44511 0.351486 3.22503
-1.46556 0.408944 4.30562
-1.63865 0.540556 -3.10219
-1.60447 0.660695 -2.02011
-1.6651 0.863131 -0.65426
-1.61492 0.946392 0.715134
-1.47566 0.960062 2.08002
-1.45548 1.01727 3.15318
-1.47064 1.07975 4.2257
-1.59709 1.46475 -3.33169
-1.58632 1.60194 -2.24212
-1.61107 1.80813 -0.860044
-1.6187 1.95638 0.532808
-1.58387 2.02321 1.91435
-1.55141 2.06398 3.00283
-1.53205 2.11311 4.08081
-0.884407 -0.244323 -2.83887
-0.863451 -0.140763 -1.75871
-0.821774 -0.118357 -0.442037
-0.807109 -0.131967 0.864214
-0.745789 -0.0366544 2.18065
-0.723856 0.022708 3.25873
-0.726311 0.0757831 4.3441
-0.8855 0.0200306 -2.92312
-0.69593 0.357847 3.21885
-0.712762 0.409427 4.30235
-0.834533 0.505613 -3.10837
-0.703465 1.01421 3.15418
-0.715945 1.07741 4.22592
-0.782198 1.44098 -3.3378
-0.764514 1.57975 -2.24885
-0.792335 1.80188 -0.864105
-0.820933 1.96053 0.533298
-0.809189 2.02438 1.91784
-0.783086 2.06247 3.00631
-0.763659 2.11112 4.08334
0.785732 -0.245452 -2.83887
0.831546 -0.142387 -1.75871
0.814263 -0.123008 -0.442028
0.778189 -0.132874 0.864231
0.697417 -0.0368466 2.18067
0.729535 0.0224041 3.25875
0.760449 0.0753231 4.34412
0.771585 0.0193286 -2.92312
0.730354 0.357655 3.21887
0.763097 0.409041 4.30236
0.743469 0.505012 -3.10837
0.736888 1.01403 3.15419
0.765881 1.07704 4.22593
0.831132 1.43999 -3.3378
0.85483 1.57877 -2.24885
0.846938 1.8009 -0.864103
0.794785 1.95977 0.533301
0.750585 2.02384 1.91784
0.752345 2.06196 3.00631
0.768894 2.11056 4.08334
1.62024 -0.247218 -2.8421
1.66282 -0.148107 -1.76341
1.64179 -0.11413 -0.441393
1.58093 -0.117614 0.87056
1.48227 -0.0461055 2.19173
1.48615 0.0167172 3.26625
1.51641 0.0741928 4.34847
1.61098 0.0263676 -2.92411
1.67508 0.149901 -1.83997
1.65601 0.21549 -0.508213
1.59632 0.221536 0.819039
1.47018 0.289549 2.14983
1.47903 0.350898 3.22506
1.51465 0.408046 4.30564
1.57895 0.538941 -3.10219
1.60889 0.659246 -2.02011
1.67655 0.859966 -0.654255
1.62373 0.944875 0.715143
1.48857 0.959714 2.08004
1.48869 1.01673 3.1532
1.51977 1.0789 4.22572
1.64072 1.46266 -3.33168
1.6627 1.59985 -2.24211
1.66119 1.80603 -0.860039
1.60703 1.9547 0.532815
1.54627 2.02199 1.91436
1.53339 2.06285 3.00284
1.54346 2.1119 4.08082
-0.802276 0.369605 -1.94179
-1.89841e-05 0.168193 -1.82181
-0.842441 0.173376 -1.17335
-0.703838 0.632316 2.12879
0 0.274048 2.17588
-0.794928 0.200236 1.47326
0 0.698618 -2.14958
-0.858415 0.783528 -1.34833
0 1.06419 2.19956
-0.795471 0.9842 1.39833
0.803184 0.369434 -1.94271
0.845132 0.170654 -1.17334
0.705962 0.632316 2.13093
0.795715 0.199442 1.47328
0.854623 0.779452 -1.34833
0.795487 0.984159 1.39833
-0.806205 0.199286 0.149955
-0.87831 0.524202 -0.586682
0.00341533 0.148874 -0.511692
-0.88333 0.578528 0.761637
-6.85183e-05 0.158151 0.811617
-0.853005 0.909926 0.025
-0.000244662 1.15024 -0.661667
1.69694e-05 1.42516 0.711667
0.805367 0.200104 0.14997
0.87771 0.520415 -0.586677
0.883331 0.57855 0.761647
0.85276 0.90951 0.025
-0.89083 0.446903 -1.26084
0.891212 0.444925 -1.26084
0.00169817 0.154223 -1.17335
-0.000122331 0.972631 -1.34833
-9.49204e-06 0.369519 -2.25013
-0.876065 0.551365 0.0874775
0.875855 0.549483 0.087485
0.0016734 0.151395 0.149962
-0.000113847 1.40881 0.025
-0.891221 0.605422 1.4358
0.891221 0.605433 1.43581
-3.42592e-05 0.23367 1.47327
8.48469e-06 1.27793 1.39833
0 0.632316 2.30548
-0.833854 0.262302 -1.88812
-0.433 0.157346 -1.83265
-0.847044 0.171355 -1.50417
-0.695896 0.473658 2.13833
-0.3375 0.279053 2.17086
-0.75873 0.233851 1.80408
-0.767668 0.476907 -1.99242
-0.3625 0.663546 -2.11442
-0.82454 0.716701 -1.69167
-0.691943 0.790975 2.09942
-0.3475 1.06663 2.202
-0.760733 0.982414 1.74167
0.432962 0.157318 -1.83268
0.834367 0.262217 -1.88866
0.847102 0.171262 -1.50417
0.3375 0.278845 2.17109
0.695914 0.473658 2.13837
0.758824 0.233754 1.80411
0.3625 0.663271 -2.11432
0.767287 0.476651 -1.99205
0.824805 0.716654 -1.69167
0.3475 1.06288 2.19825
0.691945 0.790975 2.09943
0.760652 0.982304 1.74167
-0.809585 0.203651 -0.842523
-0.807734 0.200338 -0.180871
-0.864495 0.352389 -0.549189
-0.399243 0.1826 -0.511694
-0.803582 0.194163 1.14243
-0.802484 0.200425 0.480781
-0.875934 0.372015 0.786622
-0.401512 0.176839 0.811612
-0.854884 0.812949 -1.005
-0.875259 0.689713 -0.624174
-0.855695 0.879664 -0.318333
-0.483092 1.10847 -0.661667
-0.819135 0.974912 1.055
-0.864039 0.770617 0.736652
-0.846488 0.936361 0.368333
-0.515609 1.38772 0.711667
0.817064 0.196143 -0.842515
0.407735 0.175848 -0.511689
0.805693 0.202357 -0.180858
0.863454 0.349146 -0.549182
0.803864 0.193872 1.14246
0.401421 0.176811 0.811622
0.803442 0.199451 0.480798
0.875935 0.372054 0.786637
0.854698 0.812507 -1.005
0.481706 1.10631 -0.661667
0.874802 0.687505 -0.624172
0.855207 0.878977 -0.318333
0.819168 0.97486 1.055
0.515682 1.38776 0.711667
0.86407 0.770595 0.736657
0.846502 0.936233 0.368333
-0.87939 0.408254 -1.60131
-0.401143 0.369562 -2.18185
0.000839594 0.155207 -1.49758
-1.42381e-05 0.268856 -2.23623
-0.886673 0.31014 -1.21709
-0.420372 0.16615 -1.17335
-0.811209 0.618869 1.78229
-0.351919 0.632316 2.2766
-1.71296e-05 0.247608 1.82457
0 0.453182 2.30302
-0.888775 0.402829 1.45453
-0.397481 0.215943 1.47326
-6.11656e-05 0.893758 -1.74896
-4.74602e-06 0.534069 -2.23775
-0.894487 0.615216 -1.30459
-0.429269 0.947785 -1.34833
4.24234e-06 1.12005 1.79895
0 0.848255 2.19271
-0.852652 0.794811 1.41706
-0.397731 1.24643 1.39833
0.88331 0.407179 -1.60178
0.401587 0.369477 -2.18117
0.887499 0.307789 -1.21709
0.423415 0.166151 -1.17334
0.810911 0.618875 1.78337
0.352981 0.632316 2.27594
0.88878 0.402438 1.45455
0.397841 0.216008 1.47328
0.89448 0.612188 -1.30459
0.427251 0.947876 -1.34833
0.852661 0.794796 1.41707
0.397748 1.24591 1.39833
-0.859571 0.366107 0.118716
-0.397929 0.184013 0.149959
-0.881696 0.485552 -0.923761
-0.87788 0.537783 -0.249602
0.00255675 0.148812 -0.842519
0.00254437 0.150201 -0.180865
-0.874214 0.564946 0.424557
-0.895061 0.591975 1.09872
0.000802443 0.153192 0.48079
-5.13888e-05 0.180858 1.14244
-0.874271 0.735514 0.0562387
-0.53482 1.37589 0.025
-0.000183497 0.992752 -1.005
-0.000179254 1.33211 -0.318333
-4.84386e-05 1.43173 0.368333
1.2727e-05 1.38392 1.055
0.859304 0.365447 0.118727
0.399737 0.183316 0.149966
0.883941 0.48267 -0.923758
0.877272 0.534949 -0.249596
0.8742 0.564016 0.424566
0.895063 0.591992 1.09873
0.874116 0.734401 0.0562425
0.534559 1.37563 0.025
-0.876065 0.286221 -1.55274
-0.870342 0.336415 -0.883142
-0.881526 0.650464 -0.964381
-0.880996 0.546061 -1.64649
0.879803 0.285003 -1.55297
0.881092 0.54442 -1.64672
0.879252 0.647825 -0.964379
0.870849 0.332579 -0.883136
-0.426686 0.165958 -1.50088
0.428188 0.165958 -1.50087
0.416638 0.164539 -0.842517
-0.411701 0.172427 -0.842521
-0.395884 0.870513 -1.72031
-0.428747 0.982127 -1.005
0.427494 0.981335 -1.005
0.394875 0.870283 -1.72031
-0.417071 0.265579 -2.17981
-0.381821 0.505488 -2.19258
0.382044 0.50536 -2.19243
0.417275 0.265536 -2.179
-0.862518 0.359006 -0.215237
-0.861744 0.372065 0.452669
-0.866953 0.751964 0.396445
-0.875415 0.712938 -0.283968
0.861674 0.357149 -0.215227
0.874938 0.711193 -0.283965
0.866953 0.751428 0.39645
0.861706 0.371707 0.452682
-0.397695 0.185089 -0.180868
0.403006 0.181043 -0.180862
0.403369 0.174483 0.480794
-0.402527 0.174814 0.480785
-0.535253 1.29477 -0.318333
-0.531915 1.39521 0.368333
0.531874 1.3952 0.368333
0.534977 1.29466 -0.318333
-0.890965 0.39585 1.12057
-0.807783 0.438244 1.79319
-0.799143 0.792893 1.76198
-0.873006 0.781498 1.07686
0.890966 0.395691 1.12059
0.872748 0.781476 1.07686
0.798968 0.792886 1.76252
0.807554 0.438048 1.79374
-0.399036 0.199119 1.14244
0.399147 0.198426 1.14245
0.36767 0.246795 1.81434
-0.36749 0.246823 1.81433
-0.407615 1.36069 1.055
-0.372616 1.10145 1.77031
0.372624 1.10223 1.77031
0.407641 1.36057 1.055
-0.344709 0.46342 2.27485
0.345241 0.46342 2.27538
0.350241 0.819615 2.21363
-0.349709 0.819615 2.21391
-0.839767 0.208651 -1.85141
-0.64949 0.151156 -1.83884
-0.847947 0.171743 -1.66959
-0.686807 0.394329 2.13798
-0.50625 0.29748 2.15243
-0.723434 0.267857 1.9695
-0.747308 0.530558 -2.01469
-0.54375 0.610982 -2.06182
-0.772456 0.648141 -1.86333
-0.69108 0.870304 2.08982
-0.52125 1.00185 2.13722
-0.733113 0.97127 1.91333
0.649453 0.151132 -1.83887
0.839759 0.208609 -1.85143
0.848088 0.171566 -1.66959
0.50625 0.298595 2.15134
0.686347 0.394329 2.13754
0.722967 0.268322 1.96953
0.54375 0.610635 -2.06172
0.747011 0.53026 -2.01439
0.77229 0.647648 -1.86333
0.52125 1.00078 2.13615
0.691029 0.870304 2.08977
0.733373 0.971516 1.91333
-0.808768 0.203177 -0.67711
-0.808725 0.200638 -0.346284
-0.863871 0.263341 -0.530443
-0.60355 0.193507 -0.511696
-0.809819 0.189217 0.97702
-0.801768 0.19985 0.646194
-0.86626 0.271746 0.799114
-0.60104 0.188571 0.811609
-0.855347 0.829888 -0.833334
-0.869117 0.770161 -0.642921
-0.855924 0.863417 -0.49
-0.704491 1.04753 -0.661667
-0.827652 0.966953 0.883333
-0.850039 0.864485 0.724159
-0.84042 0.946769 0.54
-0.670372 1.1629 0.711667
0.816421 0.195497 -0.677101
0.611744 0.185639 -0.511688
0.806679 0.20266 -0.346273
0.863098 0.260126 -0.530434
0.807948 0.191077 0.977041
0.600861 0.188749 0.811624
0.802363 0.199241 0.646213
0.867177 0.271336 0.799132
0.854865 0.829164 -0.833334
[...]
POINT_DATA 3682
SCALARS point_scalars float 1
LOOKUP_TABLE default
-72.7978
-41.1961
17.3367
-37.5405
-73.1392
-41.3819
17.6879
-37.7508
-36.0254
-30.258
-50.9839
-48.8669
-38.2572
-31.3073
-50.5464
-49.7653
-57.8421
-75.3428
-36.3327
-51.185
-44.181
-38.4918
-36.3058
-57.8421
-94.0187
-37.2735
-52.1245
-42.8297
-36.0967
-35.5039
3.91911
-93.4212
-48.2354
-45.8163
-40.8011
-37.3786
-35.1435
46.8227
-53.0556
-56.1618
-60.4427
-41.0555
-36.7467
-33.4208
-29.6155
-144.317
-36.1532
-50.3137
-42.5167
-35.5664
-35.1571
51.1221
-35.1425
-34.7336
158.219
-33.875
-34.4062
92.4938
-50.0786
-46.8154
-68.0529
-40.959
-32.6014
-32.6014
-49.1922
-112.389
-38.5852
-50.1926
-42.7011
-35.7551
-35.339
51.843
-35.3983
-35.1706
165.507
-34.1009
-34.5982
126.16
-44.5841
-46.8946
-68.9337
-40.9293
-32.8435
-32.8435
-57.6627
-75.8357
-36.6889
-50.5942
-44.1897
-38.677
-36.7412
-57.6627
-86.9222
-37.6418
-51.2255
-42.9837
-36.4701
-35.6956
4.01782
-98.686
-47.967
-45.9329
-42.1724
-37.5983
-35.3375
46.928
-55.8567
-57.9591
-62.2747
-41.0904
-36.9418
-33.6578
-48.5126
-82.1693
-53.483
-37.1123
-38.8839
-44.9796
86.0852
-61.8726
-32.2221
-48.0913
-48.6729
-52.9076
-37.3192
-43.9992
-62.096
-48.0709
-34.8944
-41.2464
-40.8013
-39.7542
-48.7362
-53.4249
17.8205
-69.769
-34.5543
-41.1659
-40.0959
-53.0132
-58.6578
-58.5741
-53.289
-22.1823
187.983
-41.2207
-41.0919
-36.2698
-93.3272
-51.5264
-51.5829
-38.7233
-42.1549
-27.904
-86.2115
-97.4396
-68.1365
-38.1972
-39.6527
-48.07
-14.7965
84.6525
-61.4298
-36.8487
-32.5989
-42.1355
-96.9549
-87.092
-68.3548
-39.8544
-38.3768
-48.1032
84.8869
-14.6378
-63.3202
-32.8569
-37.091
-42.1835
-39.5925
-34.6626
-38.9091
-38.5941
-43.3069
-37.092
-36.1523
-44.5395
-48.7704
-45.4957
-53.1482
6.89574
-49.5416
-43.8777
-52.5634
-62.8559
-39.5891
-39.8743
-34.4323
-39.0004
-43.1902
-44.5467
-37.107
-36.5561
-48.6127
7.92172
-45.1826
-52.7175
-49.989
-63.8213
-44.3507
-51.9607
-84.8441
156.036
-67.5597
87.6177
-55.7091
-54.3369
-46.1042
-33.4078
-39.4072
-31.7346
-49.8851
-41.9026
-39.9024
178.843
-61.8368
-27.8284
-35.0964
-26.7949
-51.2194
-43.3037
-85.5117
156.086
-55.4368
-53.7075
-46.1493
-33.8147
-49.9163
-41.7638
-61.8027
-28.1684
-51.2779
-43.2365
-38.3557
-35.6425
-46.1674
-41.3617
-45.4796
-36.9741
-40.4827
-46.2804
-41.6142
-42.6953
-46.2202
-84.4298
1.55581
-57.6678
-81.5394
-55.2827
-38.272
-35.509
-46.5438
-41.1216
-40.6625
-46.3969
-46.0145
-84.1596
-75.579
-43.6289
-48.8105
-100.204
-75.7924
-100.388
-48.0975
-43.8887
-68.3118
-67.9742
-44.7009
-44.1099
-40.4533
-7.13998
-7.25753
-40.4027
68.0538
172.77
172.759
69.1112
-38.5411
-37.1998
-45.1012
-46.2393
-38.3795
-45.9498
-45.245
-37.4174
-36.0203
-36.5607
-40.5222
-40.5724
-73.2024
-72.3007
-72.3358
-73.8769
-45.3408
-47.3558
-44.905
-47.4039
-45.3458
-47.6459
-44.9692
-47.4018
-43.3255
-43.3985
-40.9143
-40.8699
-55.8645
-36.2647
-36.299
-55.8875
-34.654
-34.8832
-32.6144
-32.2104
-39.2082
-104.467
-87.3821
-39.1109
-39.3634
-44.5937
1.16563
69.3956
-39.288
-37.4308
-33.9009
-39.9367
-104.787
-39.9196
-87.2466
-39.538
-39.3001
-44.6263
70.4954
1.26781
-37.9255
-34.1512
-37.6701
-40.0584
-37.1788
-35.1916
-37.5389
-37.4609
-53.3347
-35.8055
-30.9128
-41.785
-50.7935
-48.4204
-52.6001
-60.0979
-49.3971
-45.975
-49.7515
-53.7956
-38.0348
-39.0918
-34.9022
-37.8311
-52.56
-41.8247
-36.4402
-32.4477
-50.5493
-59.7793
-48.0858
-52.1453
-50.3144
-55.6828
-46.5937
-50.2877
-74.2689
-31.5909
-120.778
93.8317
-84.3494
-84.4415
-77.68
-8.46054
-58.795
-49.1866
-54.1321
-54.7333
-37.6125
-36.968
-41.2496
-34.4066
-38.8026
-38.9425
-39.6265
-34.3257
-47.7951
-41.4269
-48.2341
-42.3071
92.5896
90.0749
-44.5754
156.209
-71.7905
-55.7379
-66.3208
-38.1481
-31.5901
-31.7251
-33.5463
-25.5683
-45.3615
-49.7656
-49.3512
-46.2739
-75.142
-31.0142
-120.568
94.063
-58.5527
-48.5349
-54.0345
-53.9339
-37.8048
-37.1752
-41.345
-34.6178
-48.7515
-41.2762
-48.327
-42.3462
-73.136
-54.0897
-65.8234
-38.2798
-45.3101
-49.7792
-49.4056
-46.1271
-35.5101
-36.0515
-37.3475
-35.4567
-39.9502
-43.0384
-42.1357
-41.1447
-39.9173
-40.2632
-42.0197
-37.8314
-38.7992
-41.713
-39.3416
-44.2607
-48.0985
-47.5427
-43.9996
-43.9865
-53.063
-52.6827
-49.0346
-64.8575
15.7655
15.9842
15.8772
-1.61454
-68.5256
-68.6778
-76.2573
-62.8142
-35.2904
-36.2375
-37.2172
-35.2549
-39.9521
-42.8525
-42.0372
-41.0112
-39.1
-42.0894
-39.6447
-44.5198
-52.6446
-52.1401
-48.8305
-64.1892
-68.3155
-57.1397
-60.0289
-52.9151
-68.5579
-57.0658
-59.99
-52.7171
-59.5751
-53.578
-53.2614
-47.167
-31.7757
-23.1998
-23.2682
-12.1878
180.164
168.379
209.885
179.733
-39.6665
-41.3736
-40.8481
-43.3742
-39.573
-41.1291
-40.8878
-43.2296
-35.673
-35.967
-39.7426
-35.5797
-92.0168
-93.4789
-87.4585
-91.925
-53.1075
-50.8607
-52.5246
-48.0823
-53.1415
-50.8959
-52.4584
-48.1565
-39.9888
-39.6453
-39.4499
-44.4746
-37.9057
-42.3189
-42.2966
-47.9477
-30.0668
-29.9604
-27.5994
-30.5055
-108.486
94.9919
-79.619
-114.238
-70.7885
-69.1062
-41.4951
-35.2573
-41.65
-35.6054
-48.2672
-43.1699
-94.7269
128.061
-42.2117
121.491
-100.779
-49.8442
-41.476
-34.3293
-33.8919
-32.0969
-43.8843
-38.0431
-79.3582
-110.961
-108.632
95.742
-71.3141
-68.7307
-41.6615
-35.8267
-41.6086
-35.4329
-48.2859
-43.256
-41.8588
120.786
-94.1378
127.042
-101.389
-51.8644
-33.9706
-32.4994
-41.6034
-34.5552
-43.9481
-38.0619
-41.4034
-42.4153
-37.3276
-35.5205
-39.9594
-38.5755
-41.0676
-36.7471
-44.1618
-43.3141
-36.5603
-38.9092
-35.986
-46.3651
-41.6043
-45.3588
-50.4629
-23.3862
-45.2737
-45.851
-49.2101
-71.8126
4.55389
-18.1875
-48.4038
-55.2641
-43.8816
-45.6112
-47.9034
-61.7943
-66.7434
-60.8982
-41.578
-42.871
-42.0281
-37.051
-37.1754
-35.8016
-40.098
-38.5173
-44.1039
-43.2313
-41.6575
-45.2479
-36.6989
-38.8914
-36.4371
-46.4049
-49.4968
-23.8487
4.53134
-17.0785
-45.2866
-45.561
-48.8803
-71.3048
-48.6523
-55.2105
-67.7294
-61.014
-44.238
-46.0577
-48.0093
-61.6012
-81.0886
-91.0893
145.614
177.29
-67.6725
-67.5105
97.9188
98.2909
-64.1846
-51.6564
-60.3645
-48.5996
-46.7951
-45.4292
-34.614
-33.1201
-39.8523
-39.8652
-32.8451
-33.1031
-46.2849
-54.5638
-42.4537
-40.7539
-39.6011
-39.5404
181.731
181.225
-54.3434
-73.399
-35.9179
-18.648
-35.5117
-35.5412
-29.272
-28.8791
-48.6449
-50.0859
-49.237
-39.0682
-80.9064
-90.6891
177.276
146.116
-63.9253
-51.6161
-59.9075
-47.4518
-45.4909
-46.8487
-34.8531
-33.4946
-46.2968
-54.636
-42.3746
-41.1034
-73.5392
-54.3951
-18.911
-36.2277
-50.172
-48.6793
-39.0871
-49.1801
-38.5874
-37.6718
-35.7716
-38.663
-45.0475
-47.3207
-39.7842
-43.3365
-45.4759
-45.3878
-36.432
-37.0749
-38.5937
-42.5862
-45.8657
-46.485
-41.4316
-41.4824
-41.8279
-42.6453
-46.0418
-46.372
-88.3854
-76.8006
-0.164603
-1.0697
-51.9716
-51.966
-79.5483
-79.7533
-55.4934
-55.5073
-38.4074
-37.7458
-35.5473
-38.5701
-47.3809
-45.3467
-39.6078
-43.0559
-42.7501
-38.7972
-45.9392
-46.6313
-46
-45.9647
-76.4705
-88.1453
-97.7457
-61.451
-66.3545
-114.618
-38.4415
-41.009
-52.1397
-50.8349
-47.8876
-55.3616
-53.5876
-43.4929
-58.6321
-115.818
-70.0892
-80.8392
-96.9209
-115.38
-66.2813
-60.8904
-58.4019
-80.8017
-70.5564
-116.452
-47.8954
-43.4493
-53.4625
-55.5732
-38.8473
-51.047
-51.9404
-41.0371
-84.9944
-78.2142
-59.8116
-60.0595
-84.6431
-59.5319
-59.5758
-78.1639
-40.5575
-42.5645
-47.2337
-47.9791
-39.4862
-48.7067
-47.663
-42.6424
-48.3788
-44.8537
-32.6378
-42.3797
-31.7351
11.9344
-13.4861
-31.0273
-31.1412
-30.6707
-13.5065
11.7244
-46.1386
-42.2252
-32.7561
-45.4643
-83.7432
83.5933
161.426
-59.9303
109.851
145.628
199.806
119.957
110.621
121.215
199.106
145.344
-81.5892
-60.3978
161.609
84.1076
-37.286
-37.2366
-39.9169
-39.732
-35.3899
-37.2616
-39.0198
-36.9654
-46.1748
-48.8506
-43.2021
-41.5656
-49.0228
-43.1556
-43.5119
-49.2133
-37.1093
-39.6428
-39.7112
-36.9767
-48.6672
-48.8381
-43.2957
-43.0666
-46.6359
-41.8764
-43.1885
-48.627
-35.9901
-36.9733
-39.0807
-37.5996
-36.0286
-37.0646
-35.9653
-35.4491
-36.2489
-35.1336
-35.7986
-37.665
-39.7825
-43.049
-39.5325
-37.497
-39.5668
-37.4507
-39.6236
-43.141
-74.2724
-67.3185
-93.9022
-3.98751
-56.1594
-74.2964
-85.1388
-62.1252
-57.8001
-61.077
-85.1609
-74.5149
-73.914
-2.01043
-94.477
-66.8417
-52.7911
-44.9383
-47.2813
-44.6134
-42.1549
-41.2991
-54.4929
-54.7462
-41.1278
-47.0063
-51.4523
-41.4548
-46.9621
-44.2004
-49.0123
-49.8915
-52.2329
-44.8307
-47.3323
-44.9088
-47.5691
-49.9593
-49.0886
-44.5424
-41.269
-41.5712
-51.4845
-46.9943
-42.0951
-54.8175
-54.5418
-41.3841
-46.5338
-46.5589
-42.9663
-42.994
-46.4461
-42.8997
-42.792
-46.4053
-45.7712
-40.124
-40.634
-43.2949
-45.8734
-43.0664
-40.5751
-40.1048
-52.7213
-51.3456
-48.1729
-62.5405
-35.24
-33.5179
-38.1845
-41.7748
-35.3383
-41.7324
-38.1911
-33.5765
-54.1195
-62.6131
-48.1508
-51.0559
-36.457
-34.8211
-31.7968
-35.1737
-36.6622
-35.3401
-32.1454
-34.9746
-34.126
-28.7308
-29.7798
-34.6468
-33.885
-34.4284
-29.3824
-28.2977
-47.4515
-82.5601
-140.668
-40.4351
-40.5203
-42.891
10.9126
59.5446
-41.6452
-37.7023
-35.3003
-38.8942
-82.7744
-47.83
-139.949
-40.6983
-40.6135
-42.9878
59.921
11.0349
-40.8826
-35.5167
-37.9254
-39.061
-36.3065
-35.5196
-36.4165
-36.6036
-53.3319
-34.9941
-26.4518
-37.0953
-51.5382
-50.2483
-51.7131
-60.097
-49.3463
-47.0273
-49.0339
-51.7333
-37.441
-38.6483
-36.7712
-37.4047
-52.2381
-37.3104
-35.973
-28.8931
-51.0017
-59.6573
-49.9655
-51.0639
-50.1759
-53.1723
-47.7984
-49.7227
-60.5197
-37.8824
-107.177
35.2293
-82.5854
-82.5964
-80.9499
-115.989
-56.7222
-54.9245
-54.2792
-54.7321
-37.3374
-36.9948
-39.319
-34.9686
-38.5401
-38.6242
-39.4126
-36.3563
-46.4128
-43.5797
-46.9759
-43.121
86.6057
84.4716
-14.8344
117.135
-64.1796
-59.3921
-68.4405
-47.8968
-31.5351
-31.5854
-33.6194
-26.8135
-46.9369
-48.8263
-48.575
-47.1724
-61.1273
-37.7025
-107.218
37.1284
-55.6853
-55.026
-54.4409
-54.0619
-37.5694
-37.1901
-39.4588
-35.1895
-46.8292
-43.3395
-47.1095
-43.1517
-67.4696
-58.1505
-67.4333
-49.7527
-46.9757
-48.7988
-48.5964
-47.0542
-34.9521
-36.4898
-36.0999
-35.5322
-40.4997
-42.1043
-41.5033
-41.1515
-41.0523
-40.7823
-41.3716
-38.682
-39.1203
-40.5219
-38.8153
-41.9712
-49.6739
-48.5491
-45.6139
-45.5319
-52.8559
-52.5649
-50.6687
-58.2195
17.5795
17.6914
19.1571
10.8182
-69.548
-69.609
-73.1472
-66.0953
-35.0564
-36.2149
-35.748
-35.2034
-40.4712
-42.0009
-41.4437
-41.0413
-39.4514
-40.8741
-39.1432
-42.2765
-52.3043
-52.0897
-50.4342
-57.6347
-63.3051
-57.8161
-59.2355
-55.1556
-63.1648
-57.7642
-59.1837
-55.0195
-56.2316
-53.3556
-53.2142
-50.7259
-27.0977
-22.4611
-22.4291
-16.7147
186.518
178.18
203.12
185.282
-40.4055
-41.2981
-41.0341
-42.3546
-40.3018
-41.1063
-40.9832
-42.2137
-35.479
-35.9857
-38.516
-35.2034
-93.2211
-94.3343
-90.2022
-93.2171
-53.2218
-51.1108
-51.986
-49.4118
-53.2825
-51.1591
-51.9196
-49.4723
-39.5495
-39.6525
-38.9539
-41.1757
-39.8415
-42.254
-42.2455
-44.8579
-28.446
-29.054
-27.3839
-28.7244
-76.6051
-85.1098
-118.231
26.0477
-104.179
-89.3167
-89.9448
-116.509
-77.2325
-61.3237
-69.1018
-68.365
-38.4985
-37.9018
-39.9378
-36.1382
-39.7251
-39.8583
-40.7125
-36.931
-46.5652
-49.3425
-49.6841
-43.9617
-7.14573
-20.6406
-64.3954
75.8607
77.782
89.3756
-14.6306
106.875
-48.416
-65.4591
-73.5521
-57.4779
-36.8686
-36.8808
-39.7542
-34.8329
-33.2705
-31.7619
-33.1527
-32.2651
-41.2666
-43.717
-43.2026
-39.5446
-103.919
-88.9341
-89.5941
-140.412
-77.5539
-85.7916
-117.914
25.466
-77.225
-60.0924
-69.7749
-68.0672
-39.6945
-40.031
-40.8121
-37.1079
-38.6851
-38.0796
-40.0785
-36.3284
-46.5816
-49.1629
-49.6771
-44.1788
77.9281
89.1175
-15.0341
106.639
-7.01427
-20.5981
-64.2377
76.4885
-49.9952
-66.8919
-74.6217
-59.1239
-33.4886
-31.9861
-33.2329
-32.6225
-37.0996
-37.0955
-39.9358
-35.0582
-41.3233
-43.6517
-43.2642
-39.5667
-38.2223
-42.1468
-39.7846
-41.0704
-35.4888
-34.7991
-35.9776
-35.2938
-38.4434
-39.4036
-39.2903
-38.6495
-38.3232
-38.7323
-40.1969
-37.4512
-43.9936
-41.927
-43.5116
-43.3145
-36.5271
-36.0788
-36.159
-37.888
-34.0836
-38.117
-35.5128
-42.509
-42.7526
-47.1435
-42.8706
-46.8113
-49.4985
-51.6504
-50.4216
-38.5839
-46.7452
-44.2513
-45.3378
-45.7154
-52.9695
-53.1861
-51.1487
-60.1196
-15.7047
12.9243
8.51308
-0.0515125
-49.3473
-50.1086
-49.099
-50.6448
-44.8891
-42.8943
-43.4151
-44.5664
-50.8073
-52.7208
-49.9209
-58.1
-56.4586
-67.0083
-66.0028
-63.1852
-38.8547
-41.8939
-40.1138
-41.6015
-39.5413
-39.8299
-41.4066
-38.2054
-35.292
-34.1196
-35.7132
-35.2452
-38.5921
-39.4462
-39.4091
-38.6696
-43.1901
-41.9239
-43.3975
-43.3089
-42.7534
-47.0447
-42.892
-46.9098
-36.9747
-36.0415
-36.0189
-37.808
-34.8076
-38.4249
-36.0263
-42.72
-49.0696
-51.0665
-49.9257
-38.6675
-14.4772
13.3634
8.65876
1.38219
-46.4499
-44.0069
-45.1403
-45.4743
-52.5225
-52.8041
-50.7757
-59.6019
-50.074
-50.1736
-49.2722
-51.161
-58.4927
-67.3097
-66.8848
-63.4107
-45.4266
-43.3122
-43.8399
-45.044
-51.0581
-52.1559
-49.8961
-56.9503
-101.826
-74.1132
-82.3579
-88.2376
141.216
167.784
151.379
171.401
-72.4231
-63.3994
-67.5942
-67.515
52.381
127.971
102.374
103.048
-54.7901
-56.4774
-59.7042
-53.2537
-54.5501
-53.8845
-57.0703
-52.0754
-43.4593
-49.7048
-46.4448
-45.7463
-34.1181
-32.0537
-34.1056
-33.0202
-39.329
-39.8698
-39.4869
-39.499
-33.0951
-30.8143
-32.0176
-32.1967
-49.208
-50.5501
-47.5876
-51.4346
-41.7723
-40.8057
-41.8185
-41.7416
-42.662
-36.4383
-40.3273
-39.7417
170.19
196.305
180.173
179.41
-63.9245
-61.1035
-57.625
-67.3177
-31.9257
-24.9669
-32.3677
-23.1107
-34.174
-36.3057
-35.2013
-35.2284
-26.4086
-27.2947
-27.6495
-27.3709
-50.1458
-52.3048
-50.1321
-50.932
-44.3885
-42.6821
-45.9651
-40.8288
-102.655
-74.8687
-83.4171
-87.8369
141.051
167.702
171.352
151.827
-54.5529
-56.3011
-59.1576
-53.1159
-53.8782
-53.3938
-56.5591
-51.2818
-43.5132
-49.7319
-45.804
-46.493
-34.3572
-32.3933
-34.3849
-33.4201
-49.2515
-50.569
-47.6111
-51.4952
-41.8152
-40.848
-41.7761
-41.93
-63.5483
-61.0807
-67.4485
-57.6693
-32.2779
-25.1588
-23.439
-32.7691
-50.2091
-52.3981
-51.0079
-50.1921
-44.3179
-42.6531
-40.8384
-45.9314
-38.0058
-38.9555
-38.5087
-37.9961
-35.5457
-35.7954
-35.7197
-36.8329
-43.3764
-50.1095
-45.794
-46.6109
-41.2477
-41.4305
-40.4604
-42.3157
-43.3593
-45.6894
-45.4733
-45.411
-37.4476
-36.2232
-36.563
-37.4599
-40.0118
-40.7714
-39.5215
-41.4549
-45.4029
-47.2816
-46.1573
-46.3327
-43.1125
-40.6758
-41.4486
-41.4403
-43.1761
-43.2465
-42.7471
-42.5071
-47.4854
-44.7448
-46.1554
-46.2479
-74.7041
-88.4947
-81.186
-80.0553
7.92667
-5.9123
1.10133
0.698342
-24.3289
-82.3555
-54.5557
-54.2919
-79.0697
-84.389
-81.1472
-81.2266
-59.2476
-51.9003
-55.3557
-55.3692
-37.9007
-38.8696
-38.3598
-37.985
-35.4092
-35.7005
-35.5767
-36.7749
-43.6166
-50.0214
-46.8956
-46.1321
-41.0388
-41.1294
-40.2536
-42.0495
-40.2629
-40.8836
-41.6243
-39.713
-45.5781
-47.3758
-46.2549
-46.4364
-47.2573
-44.5728
-45.9824
-46.0034
-74.0236
-88.3106
-79.5647
-80.9171
-88.7357
-72.8313
-78.7206
-68.76
-42.6782
-41.2936
-47.6012
-44.2864
-49.562
-46.2244
-51.6695
-48.0578
-111.06
-105.415
-94.6271
-81.5104
-88.2371
-73.1337
-78.6257
-69.2974
-111.659
-106.043
-94.7908
-81.5217
-48.7023
-46.3163
-50.9862
-47.7475
-42.9981
-41.5065
-47.8083
-44.5921
-73.6281
-68.6888
-67.8099
-64.1927
-73.3665
-68.3176
-67.5881
-63.7775
-43.909
-43.176
-45.2111
-45.1896
-43.3805
-42.4408
-45.6542
-44.8217
-42.9208
-42.1316
-40.2873
-39.528
-13.2246
-1.71437
-14.1774
-2.70715
-13.3811
-1.7041
-14.4607
-4.11263
-42.8262
-42.3553
-40.2474
-39.7751
37.7713
0.301518
125.337
106.156
153.73
149.517
175.475
180.951
149.311
153.885
180.817
175.513
1.39162
40.7893
108.427
125.386
-38.0703
-38.5594
-38.5873
-39.1566
-36.8271
-36.7941
-37.4957
-37.8156
-44.4941
-46.4373
-43.8386
-45.6655
-46.0858
-47.759
-44.6219
-46.3928
-37.9068
-38.4408
-38.3968
-38.9939
-45.6657
-47.486
-44.3267
-46.065
-44.7502
-46.5571
-43.9931
-45.7014
-37.0344
-37.1143
-37.6298
-38.0261
-35.7513
-36.3281
-35.8133
-36.3144
-36.6625
-36.219
-36.8083
-35.9854
-40.9901
-39.7167
-41.1002
-39.5056
-39.7203
-41.0055
-39.6009
-41.1779
-95.5674
-38.8656
-90.9502
-52.3637
-66.7687
-68.6155
-75.4935
-76.5538
-69.5448
-66.8478
-76.8277
-75.3382
-38.3199
-95.2833
-52.6197
-91.3275
-44.7672
-45.463
-45.6119
-45.6813
-43.7018
-47.7115
-47.1187
-53.2762
-43.1876
-44.4033
-45.1474
-46.6035
-47.818
-46.3194
-49.3426
-46.916
-44.7416
-45.4381
-45.6205
-45.7277
-48.1041
-46.7114
-49.4048
-47.084
-43.271
-44.4724
-45.2113
-46.6568
-43.7893
-47.7522
-47.1684
-53.2907
-43.1566
-43.3986
-42.8165
-43.527
-43.0932
-43.2099
-42.8563
-43.7848
-41.2035
-41.867
-40.4749
-40.9658
-41.0285
-41.8792
-40.3638
-40.9475
-56.9187
-59.0651
-52.6768
-55.6868
-35.1441
-36.8582
-35.8706
-37.4439
-35.2137
-36.8855
-35.9021
-37.4437
-56.8149
-59.16
-52.6404
-55.7035
-35.0184
-34.9409
-34.5998
-33.9814
-35.1592
-35.2114
-34.2355
-34.833
-32.207
-34.2806
-30.3923
-33.1223
-34.0033
-31.7944
-32.7345
-29.8735
-129.564
-80.5011
-100.827
-107.14
-92.0087
-88.6055
-40.6674
-37.2723
-42.3704
-37.7123
-43.0837
-45.5653
-50.5676
91.1189
-2.41298
84.9005
-47.4762
-41.2712
-39.8989
-34.8968
-34.342
-33.7702
-40.7717
-36.932
-100.372
-109.466
-129.322
-80.935
-91.48
-88.3285
-42.4692
-37.9176
-40.8335
-37.4563
-43.1828
-45.4745
-1.66584
85.691
-50.3339
91.0688
-47.2656
-37.1519
-34.515
-34.0238
-40.0776
-35.1383
-40.912
-37.0357
-37.6965
-38.5743
-36.0783
-35.7094
-37.8779
-37.5314
-38.3646
-36.5891
-55.3991
-48.9689
-35.0246
-37.7602
-34.1126
-45.7669
-40.5405
-48.3497
-49.8575
-47.5829
-48.109
-48.8406
-50.8505
-59.8795
-44.5767
-72.9065
-47.9874
-50.7302
-45.822
-46.455
-47.6621
-53.7661
-54.8417
-53.2111
-38.2217
-39.6038
-39.8059
-37.4569
-35.797
-35.7213
-38.1808
-37.5518
-54.4435
-48.6868
-40.6927
-48.1237
-35.5049
-38.371
-35.3209
-45.512
-49.6554
-48.0557
-43.8149
-73.4245
-47.8165
-48.4414
-50.4598
-59.511
-48.7278
-52.4266
-56.6643
-54.7925
-46.385
-47.0871
-48.2147
-54.6571
-117.286
40.3985
-81.2818
57.4279
-117.999
-118.267
85.0264
114.631
-81.788
-109.171
-81.7321
-109.071
-77.8381
-77.7902
-49.603
-47.5859
-60.7372
-59.426
-50.4115
-48.6984
-57.6246
-52.2516
-56.9996
-53.6445
-39.5021
-35.5731
-39.7599
-34.9008
-41.2299
-41.4175
-35.0781
-34.1773
-40.145
-36.7458
-40.2397
-36.9254
-39.7913
-39.7725
-34.3939
-34.4957
-53.4785
-44.5818
-44.2106
-43.305
-46.7202
-49.803
-42.5079
-42.5795
-18.8089
129.399
-18.1631
127.411
-43.6431
-43.6183
152.7
152.799
-81.4087
-53.1232
-56.7521
-44.4886
-61.3873
-71.3459
-41.0463
-33.4955
-33.3762
-28.5139
-33.3917
-28.8493
-33.4858
-33.5221
-26.7882
-26.4935
-46.3761
-43.2176
-49.6406
-50.365
-48.3319
-49.6207
-49.2445
-43.912
-116.609
40.6515
-80.853
57.7665
-118.041
-118.163
115.244
83.0031
-60.329
-58.8636
-50.2216
-47.9157
-56.7504
-52.1629
-56.3639
-52.9554
-39.6543
-35.7832
-39.9217
-35.1169
-41.511
-41.3281
-35.2488
-34.402
-53.6156
-44.744
-44.104
-43.1816
-46.7266
-49.9252
-42.49
-42.6723
-81.8985
-54.5919
-56.3161
-43.7327
-71.591
-60.7735
-33.8394
-41.882
-46.3073
-43.1385
-49.6916
-50.1263
-49.6827
-48.3491
-43.8244
-49.0321
-35.9775
-35.2555
-36.1462
-36.6485
-37.3968
-37.0875
-35.4541
-36.2281
-40.2733
-39.773
-43.1211
-43.0782
-41.6568
-42.8115
-40.3324
-42.0933
-41.6806
-38.2109
-42.0759
-38.8875
-41.9642
-41.9144
-37.4481
-37.8346
-36.8652
-41.8842
-41.0186
-43.0172
-38.2523
-40.4531
-44.5617
-43.9694
-44.8844
-45.9638
-44.7074
-46.3836
-43.6311
-43.7385
-44.1052
-44.2368
-50.9443
-59.9898
-50.7645
-59.0301
-48.7952
-48.944
-65.717
-63.8012
16.7178
9.13592
16.4468
10.2999
14.3072
13.8943
-2.46802
-1.84542
-71.3349
-65.644
-71.5008
-65.7586
-75.8203
-75.9075
-62.769
-62.8029
-35.648
-34.9865
-35.9542
-36.8694
-37.2824
-37.0742
-35.1745
-36.2581
-40.3691
-39.7367
-43.1178
-42.9235
-42.7465
-41.5567
-40.2121
-41.9659
-37.2205
-42.1816
-41.3697
-43.3883
-40.7579
-38.5665
-44.7663
-44.2795
-50.5471
-59.5506
-50.4103
-57.9682
-48.5459
-48.5889
-62.9516
-65.1733
-67.3085
-69.1777
-61.2711
-54.2397
-56.1368
-64.8851
-52.5628
-53.2437
-67.3118
-69.7333
-61.1278
-54.0865
-64.9472
-56.0175
-52.9594
-52.3905
-59.6721
-59.5539
-56.4505
-51.082
-56.184
-50.6869
-47.1454
-47.2406
-32.0762
-32.1979
-28.3368
-18.5256
-18.5391
-28.4427
-12.4051
-12.3184
170.404
191.566
166.676
165.638