# vtk DataFile Version 2.0
tet_velo
ASCII
DATASET UNSTRUCTURED_GRID
POINTS 29498 float
-0.80163 0.205 -2.255
-0.635 0.275 2.25906
-0.795 0.825 -2.22444
-0.545 0.855 2.27433
0.801639 0.205 -2.255
0.635 0.275 2.25906
0.795 0.825 -2.22444
0.545 0.855 2.27434
-0.807369 0.167051 -0.750314
-0.782843 0.159367 0.754373
-0.803512 0.926845 -0.72485
-0.745186 0.961852 0.77474
0.807396 0.16703 -0.750314
0.782846 0.159367 0.754373
0.803515 0.926848 -0.724847
0.745183 0.961849 0.774747
-1.58572 -0.181984 -3.4691
-1.59051 -0.1643 -2.26739
-1.57846 -0.191274 -0.762569
-1.51377 -0.19506 0.743275
-1.39525 -0.123593 2.24818
-1.36966 -0.095476 3.45031
-1.38561 -0.0908719 4.65166
-1.59002 0.164899 -3.45565
-1.59643 0.197986 -2.2545
-1.58503 0.18284 -0.750669
-1.49903 0.167583 0.753616
-1.33165 0.2185 2.25754
-1.32837 0.243637 3.4596
-1.36457 0.250348 4.66112
-1.58766 0.833705 -3.42732
-1.59177 0.866356 -2.22596
-1.57869 0.931859 -0.725606
-1.46915 0.936652 0.774385
-1.2746 0.87151 2.27483
-1.29865 0.895285 3.47711
-1.35453 0.921189 4.67945
-1.57072 1.91031 -3.38866
-1.56952 1.95266 -2.18806
-1.55518 2.01933 -0.689361
-1.51206 2.03949 0.808241
-1.45167 2.00227 2.307
-1.42622 1.98323 3.50771
-1.428 1.98696 4.70949
-0.794541 -0.179294 -3.46942
-0.797423 -0.159736 -2.26787
-0.798467 -0.200265 -0.762503
-0.781826 -0.198843 0.74392
-0.706773 -0.0916309 2.24931
-0.689158 -0.0736763 3.45108
-0.700461 -0.0798353 4.6521
-0.797857 0.163271 -3.45575
-0.661729 0.26438 3.46023
-0.687926 0.259556 4.66145
-0.796093 0.816575 -3.42669
-0.638176 0.893418 3.47701
-0.683709 0.921359 4.67943
-0.787305 1.8998 -3.38804
-0.788678 1.94337 -2.18737
-0.789891 2.01981 -0.688946
-0.781578 2.04495 0.808194
-0.755582 2.0005 2.30664
-0.73833 1.97851 3.50736
-0.737604 1.9831 4.70923
0.798232 -0.179296 -3.46942
0.802408 -0.159741 -2.26787
0.798121 -0.20028 -0.762503
0.752556 -0.198847 0.743921
0.653127 -0.0916316 2.24931
0.64724 -0.0736774 3.45108
0.655691 -0.0798367 4.65211
0.796838 0.16327 -3.45575
0.627876 0.264379 3.46024
0.644622 0.259555 4.66146
0.794142 0.816574 -3.42669
0.596479 0.893418 3.47702
0.629172 0.921358 4.67943
0.785507 1.8998 -3.38804
0.781101 1.94337 -2.18737
0.754529 2.01981 -0.688943
0.692613 2.04495 0.808198
0.632249 2.0005 2.30665
0.624478 1.9785 3.50736
0.633154 1.9831 4.70924
1.59226 -0.181991 -3.46909
1.59704 -0.16431 -2.26739
1.58431 -0.191294 -0.762567
1.51108 -0.195069 0.743278
1.38139 -0.123596 2.24818
1.34721 -0.0954787 3.45032
1.3519 -0.0908755 4.65167
1.59282 0.164894 -3.45565
1.59946 0.19798 -2.25449
1.59186 0.182819 -0.750666
1.51551 0.167575 0.753621
1.35047 0.218498 2.25755
1.318 0.243635 3.45961
1.33356 0.250345 4.66112
1.58896 0.833702 -3.42732
1.59387 0.866354 -2.22596
1.58333 0.931854 -0.7256
1.48159 0.936645 0.774394
1.28807 0.871508 2.27485
1.27914 0.895283 3.47712
1.31208 0.921186 4.67945
1.56932 1.91031 -3.38866
1.56226 1.95266 -2.18806
1.52551 2.01932 -0.689355
1.44218 2.03948 0.80825
1.35378 2.00226 2.30701
1.32888 1.98323 3.50772
1.33315 1.98696 4.7095
-0.81004 0.515 -2.25145
4.50015e-06 0.20344 -2.25656
-0.808175 0.18235 -1.50266
-0.628063 0.565 2.30476
0 0.27452 2.25954
-0.721222 0.204883 1.50672
0 0.926126 -2.32557
-0.816406 0.893072 -1.47465
0 0.87802 2.29736
-0.696881 0.960214 1.52453
0.810075 0.515 -2.25148
0.816107 0.174425 -1.50266
0.628048 0.565 2.30475
0.720134 0.205972 1.50672
0.816405 0.893072 -1.47464
0.696871 0.960204 1.52454
-0.792755 0.16556 0.0020299
-0.888741 0.546948 -0.737582
1.38187e-05 0.166096 -0.750314
-0.881041 0.560609 0.764557
1.50005e-06 0.158462 0.754373
-0.766329 0.936329 0.0249449
1.41719e-06 1.19401 -0.724849
-1.41192e-06 1.41413 0.774743
0.79276 0.16556 0.0020299
0.88875 0.546939 -0.73758
0.881044 0.560608 0.76456
0.76633 0.93633 0.0249499
-0.884835 0.530974 -1.48865
-0.899734 0.553779 0.0134874
-0.866265 0.562805 1.51563
9.15941e-06 0.161104 -1.50266
7.65936e-06 0.165872 0.0020299
7.50025e-07 0.191912 1.50672
2.25008e-06 0.515 -2.34527
0 0.565 2.39742
7.08594e-07 0.997619 -1.47464
2.63418e-09 1.41789 0.0249474
-7.0596e-07 1.17675 1.52454
0.88484 0.53097 -1.48865
0.899735 0.553774 0.0134899
0.864217 0.562804 1.51563
-1.19903 0.201493 -2.25475
-0.799526 0.0226319 -2.26143
-0.799744 0.184136 -2.85537
-0.983327 0.24675 2.2583
-0.670887 0.0916846 2.25418
-0.648364 0.26969 2.85965
-1.19339 0.845678 -2.2252
-0.795546 0.820787 -2.82556
-0.791839 1.38418 -2.20591
-0.909802 0.863255 2.27458
-0.591588 0.874209 2.87567
-0.650291 1.42775 2.29049
0.802023 0.0226295 -2.26143
0.799239 0.184135 -2.85537
1.20055 0.20149 -2.25475
0.644064 0.0916842 2.25418
0.631438 0.26969 2.85965
0.992733 0.246749 2.2583
0.794571 0.820787 -2.82556
0.788051 1.38418 -2.20591
1.19443 0.845677 -2.2252
0.570739 0.874209 2.87568
0.588625 1.42775 2.29049
0.916533 0.863254 2.27459
-1.1962 0.174946 -0.750491
-0.802918 -0.0166069 -0.756409
-1.14094 0.163475 0.753995
-0.782335 -0.0197384 0.749147
-1.1911 0.929352 -0.725228
-0.796701 1.47333 -0.706898
-1.10717 0.949252 0.774562
-0.763382 1.5034 0.791467
0.802759 -0.016625 -0.756408
1.19963 0.174925 -0.75049
0.767701 -0.01974 0.749147
1.14918 0.163471 0.753997
0.779022 1.47333 -0.706895
1.19342 0.929351 -0.725224
0.718898 1.5034 0.791472
1.11339 0.949247 0.774571
-1.58811 -0.173142 -2.86824
-1.58787 -0.0085426 -3.46237
-1.19013 -0.180639 -3.46926
-1.58449 -0.177787 -1.51498
-1.59347 0.0168432 -2.26094
-1.19397 -0.162018 -2.26763
-1.54612 -0.193167 -0.0096471
-1.58175 -0.0042168 -0.756619
-1.18847 -0.19577 -0.762536
-1.45451 -0.159326 1.49573
-1.5064 -0.0137386 0.748445
-1.1478 -0.196952 0.743597
-1.38245 -0.109534 2.84924
-1.36345 0.0474535 2.25286
-1.05101 -0.107612 2.24874
-1.37763 -0.0931739 4.05099
-1.34902 0.0740805 3.45496
-1.02941 -0.0845761 3.45069
-1.37509 0.079738 4.65639
-1.04303 -0.0853536 4.65188
-1.59323 0.181442 -2.85507
-1.58884 0.499302 -3.44148
-1.19394 0.164085 -3.4557
-1.59073 0.190413 -1.50258
-1.5941 0.532171 -2.24023
-1.54203 0.175212 0.00147391
-1.58186 0.55735 -0.738137
-1.41534 0.193041 1.50558
-1.48409 0.552117 0.764001
-1.33001 0.231068 2.85857
-1.30313 0.545005 2.26619
-1.34647 0.246992 4.06036
-1.31351 0.569461 3.46835
-0.99505 0.254008 3.45992
-1.35955 0.585769 4.67028
-1.02625 0.254952 4.66128
-1.58972 0.85003 -2.82664
-1.57919 1.37201 -3.40799
-1.19188 0.82514 -3.42701
-1.58523 0.899107 -1.47578
-1.58065 1.40951 -2.20701
-1.52392 0.934256 0.0243894
-1.56693 1.47559 -0.707484
-1.37188 0.904081 1.52461
-1.49061 1.48807 0.791313
-1.28663 0.883398 2.87597
-1.36314 1.43689 2.29092
-1.32659 0.908237 4.07828
-1.36244 1.43926 3.49241
-0.968416 0.894352 3.47706
-1.39127 1.45408 4.69447
-1.01912 0.921274 4.67944
-1.57012 1.93149 -2.78836
-1.17901 1.90506 -3.38835
-1.56235 1.98599 -1.43871
-1.1791 1.94801 -2.18772
-1.53362 2.02941 0.0594398
-1.17253 2.01957 -0.689154
-1.48187 2.02088 1.55762
-1.14682 2.04222 0.808217
-1.43895 1.99275 2.90735
-1.10363 2.00138 2.30682
-1.42711 1.9851 4.1086
-1.08228 1.98087 3.50753
-1.0828 1.98503 4.70936
-0.795982 -0.169515 -2.86865
-0.796199 -0.0080111 -3.46259
0.00184549 -0.179295 -3.46942
-0.797945 -0.180001 -1.51518
0.00249248 -0.159739 -2.26787
-0.790146 -0.199554 -0.0092917
-0.000172857 -0.200273 -0.762503
-0.7443 -0.145237 1.49661
-0.0146351 -0.198845 0.74392
-0.697966 -0.0826536 2.85019
-0.026823 -0.0916313 2.24931
-0.69481 -0.0767558 4.05159
-0.675444 0.0953518 3.45566
-0.0209593 -0.0736768 3.45108
-0.694193 0.0898604 4.65678
-0.022385 -0.079836 4.65211
-0.796975 0.489923 -3.44122
-0.000509521 0.163271 -3.45575
-0.674827 0.261968 4.06084
-0.649953 0.578899 3.46862
-0.0169264 0.264379 3.46023
-0.685818 0.590458 4.67044
-0.021652 0.259555 4.66145
-0.791699 1.35819 -3.40736
-0.000975269 0.816575 -3.42669
-0.660943 0.907389 4.07822
-0.688253 1.43596 3.49218
-0.0208488 0.893418 3.47701
-0.710657 1.45223 4.69433
-0.0272688 0.921358 4.67943
-0.787992 1.92158 -2.78771
-0.000899028 1.8998 -3.38804
-0.789284 1.98159 -1.43816
-0.00378833 1.94337 -2.18737
-0.785735 2.03238 0.0596237
-0.0176808 2.01981 -0.688945
-0.76858 2.02272 1.55742
-0.0444826 2.04495 0.808196
-0.746956 1.9895 2.907
-0.0616662 2.0005 2.30665
-0.737967 1.9808 4.10829
-0.0569264 1.97851 3.50736
-0.0522252 1.9831 4.70923
0.80032 -0.169519 -2.86864
0.797535 -0.00801331 -3.46259
1.19524 -0.180644 -3.46926
0.800264 -0.18001 -1.51518
1.19972 -0.162025 -2.26763
0.775338 -0.199563 -0.0092912
1.19121 -0.195787 -0.762535
0.702842 -0.145239 1.49661
1.13182 -0.196958 0.743599
0.650184 -0.0826545 2.85019
1.01726 -0.107614 2.24875
0.651466 -0.076757 4.05159
0.637558 0.0953508 3.45566
0.997225 -0.084578 3.4507
0.650156 0.089859 4.65678
1.00379 -0.0853561 4.65189
0.79549 0.489922 -3.44122
1.19483 0.164082 -3.4557
0.636249 0.261967 4.06085
0.612177 0.578898 3.46863
0.972939 0.254007 3.45992
0.636897 0.590456 4.67044
0.989093 0.25495 4.66129
0.789825 1.35819 -3.40736
1.19155 0.825138 -3.427
0.612825 0.907388 4.07822
0.610478 1.43596 3.49219
0.937808 0.89435 3.47707
0.631163 1.45223 4.69433
0.970625 0.921272 4.67944
0.783304 1.92158 -2.7877
1.17741 1.90505 -3.38835
0.767815 1.98159 -1.43816
1.17168 1.94801 -2.18772
0.723571 2.03238 0.0596277
1.14002 2.01957 -0.689149
0.662431 2.02272 1.55742
1.0674 2.04222 0.808224
0.628363 1.9895 2.907
0.993017 2.00138 2.30683
0.628816 1.9808 4.1083
0.976677 1.98087 3.50754
0.983153 1.98503 4.70937
1.59465 -0.17315 -2.86824
1.59254 -0.00854828 -3.46237
1.59067 -0.177802 -1.51498
1.59825 0.016835 -2.26094
1.54769 -0.193181 -0.00964447
1.58808 -0.00423737 -0.756616
1.44623 -0.159332 1.49573
1.51329 -0.0137466 0.748449
1.3643 -0.109537 2.84925
1.36593 0.0474513 2.25286
1.34955 -0.0931771 4.05099
1.33261 0.0740781 3.45496
1.34273 0.0797347 4.65639
1.59614 0.181437 -2.85507
1.59089 0.499298 -3.44148
1.59566 0.1904 -1.50258
1.59667 0.532167 -2.24022
1.55369 0.175197 0.00147728
1.5876 0.557336 -0.738133
1.43299 0.193037 1.50558
1.49855 0.55211 0.764007
1.33423 0.231067 2.85858
1.31927 0.545003 2.2662
1.32578 0.24699 4.06037
1.29857 0.569459 3.46836
1.32282 0.585766 4.67029
1.59142 0.850028 -2.82664
1.57914 1.37201 -3.40799
1.5886 0.899104 -1.47578
[...]
POINT_DATA 29498
VECTORS point_vectors float
-2.18468 -3.42018 8.7632
0.276849 0.177433 0.899387
-3.36444 2.47245 7.12751
-0.118187 -0.114621 0.0266166
2.17406 -3.42491 8.61921
-0.275775 0.181538 0.904766
3.34424 2.46974 7.1117
0.119294 -0.115272 0.026132
0.0300737 -0.0115894 0.470754
0.0139971 -0.0187253 0.172866
-0.000907137 -0.000731429 0.00703258
0 0 0
-0.0320546 -0.0117673 0.457557
-0.0107772 -0.0171074 0.244078
0.000935879 -0.000755867 0.00718016
0 0 0
-0.577901 -0.256321 19.8811
-1.21557 -0.668417 20.6143
-0.426487 -0.337612 21.4332
0.138182 -0.0179266 21.6341
0.802234 0.317229 21.4801
1.0118 0.418837 21.1387
0.927995 0.2024 20.9323
-0.689463 -0.167718 19.7713
-1.68796 -0.548318 20.5606
-0.590338 -0.402009 21.4752
0.155174 -0.157913 21.749
1.17936 0.135825 21.3034
1.4552 0.139898 20.9929
1.22453 0.040042 21.1997
-0.742343 0.121873 19.7133
-1.83549 0.296872 20.4886
-1.02982 -0.185321 21.445
-0.0315009 -0.373554 21.7867
0.915075 -0.785117 21.0092
1.27758 -0.733541 20.6716
0.932001 -0.678122 20.3845
-0.427682 0.347209 20.0035
-0.75946 0.582963 20.465
-0.714832 0.377903 21.1649
-0.253253 -0.0486598 21.5387
0.104896 -0.371705 21.3756
0.193237 -0.425327 21.1617
0.290074 -0.326092 21.1817
-0.567636 -0.612694 19.3427
-1.88818 -2.97247 20.804
-0.435566 -0.374063 21.7389
-0.0200596 0.11324 21.1971
0.67468 1.24458 19.09
1.08684 1.4866 18.91
1.07842 0.926111 18.5646
-0.767028 -0.440373 18.9384
2.02906 1.38143 12.4982
1.97457 1.17926 14.2264
-0.86948 0.29904 18.7577
1.02086 -0.848371 4.63397
1.44919 -0.150646 13.9738
-0.389442 0.638089 19.7038
-0.775655 1.36199 20.3136
-0.924041 1.2095 21.2502
-0.309904 0.128204 21.8078
-0.0481155 -0.408664 21.4819
0.0810533 -0.730673 21.7732
0.162038 -0.822491 19.6398
0.571058 -0.60999 19.3463
1.89158 -2.97306 20.7892
0.453267 -0.360752 21.7362
0.049419 0.127579 21.0385
-0.593499 1.22889 18.6367
-1.06438 1.53644 18.5827
-1.08319 0.952378 18.0148
0.765557 -0.440356 18.9315
-1.94437 1.31879 12.079
-1.9606 1.20321 13.6971
0.866764 0.303452 18.7499
-0.913784 -0.718309 3.65944
-1.46304 -0.00929913 13.3088
0.390726 0.639785 19.7028
0.774933 1.3711 20.3123
0.921121 1.27584 21.2428
0.311153 0.163411 21.8353
0.0806261 -0.367711 21.5408
-0.0231421 -0.738408 21.7736
-0.147982 -0.885937 18.9082
0.573493 -0.247766 19.8775
1.21242 -0.665899 20.6145
0.433068 -0.337195 21.4294
-0.141735 -0.0113451 21.6318
-0.802185 0.332428 21.4927
-1.04104 0.451128 21.1118
-0.952703 0.255383 20.9658
0.688382 -0.167719 19.7812
1.69381 -0.545448 20.5662
0.582257 -0.397667 21.48
-0.167857 -0.154224 21.7356
-1.14487 0.112277 21.3654
-1.47558 0.14764 20.9513
-1.25082 0.0947454 21.2451
0.743625 0.120475 19.7148
1.83381 0.298845 20.4989
1.02015 -0.187683 21.453
0.0256874 -0.372874 21.7875
-0.904205 -0.772635 21.1837
-1.29087 -0.759597 20.6075
-0.960626 -0.764768 20.1915
0.42664 0.350468 20.0054
0.763755 0.589349 20.4662
0.738168 0.39537 21.1749
0.266545 -0.0439988 21.5558
-0.0931298 -0.387305 21.3896
-0.207623 -0.504605 21.2505
-0.269893 -0.387455 21.3521
-3.45133 -0.0737086 4.47278
-0.000710688 -0.102752 0.485456
0.0204827 -0.0352965 0.546512
0.0098711 -0.072232 0.0324191
-6.13542e-05 0.00382915 0.017694
0.0136815 0.00689444 0.168096
0.000647415 1.66812 2.3796
-0.429833 -0.308147 1.18721
-0.00370486 0.0877402 -0.134585
0.00830693 -0.00467156 0.0794056
3.44679 -0.0506129 4.45198
0.0566079 -0.00031443 0.865152
-0.00942054 -0.0738859 0.0325668
-0.00980857 0.0120776 0.11338
0.437393 -0.315324 1.1866
-0.00860445 -0.00433311 0.0796012
0.0033413 0.000336599 0.159314
2.36556e-06 5.33653e-06 -0.000100382
0 0 0
0 0 0
0 0 0
0 0 0
0.000124827 0.0486469 0.116124
3.04529e-06 -0.000703072 0.0135986
-0.00346988 0.000327202 0.157089
-1.66204e-06 3.93987e-06 -7.10099e-05
0 0 0
0 0 0
0.000534778 -0.00999129 0.0782862
0.000122186 0.0012935 0.0180249
0.0201247 0.00606511 0.219868
0 0 0
1.74099e-08 -4.38412e-09 1.0735e-05
0 0 0
0 0 0
-0.00227907 -0.148819 0.0638554
2.9347e-05 0.00126736 0.0161088
1.64517e-06 0.000312124 0.0061569
-4.41876e-05 0.0044365 -0.00627707
-0.000391114 -0.00731924 0.0475752
-0.000121717 0.00125549 0.0179257
-0.0145778 0.00738993 0.158952
-3.13701 -1.5162 20.6224
-3.04392 -4.60365 21.2577
-2.13831 -1.57002 17.8101
1.61403 0.636168 15.5458
0.834232 1.18936 12.0198
1.60899 0.834521 8.40192
-3.5801 1.05224 20.528
-2.52407 1.19011 17.3115
-1.8618 2.55118 20.2798
0.617962 -1.06715 10.7616
-0.332039 -0.86478 1.27126
0.0619949 -0.488896 13.7453
3.06472 -4.64381 21.187
2.13954 -1.57143 17.797
3.16472 -1.51605 20.5995
-0.784763 1.13717 11.4455
-1.56445 0.803217 8.03076
-1.61355 0.617054 16.0267
2.52197 1.19647 17.298
1.85433 2.56662 20.2807
3.57628 1.06148 20.5236
0.361784 -0.799896 0.894827
0.00578606 -0.461571 12.4883
-0.671995 -1.02394 11.1575
-0.433537 -0.703552 21.4901
0.0324058 -0.150575 18.2439
0.291899 0.0675217 19.64
0.196016 0.0404617 16.5413
-1.52664 -0.691395 21.334
-2.54948 1.72699 21.2945
0.202361 -0.474016 18.3325
-0.433333 -0.129278 20.3253
-0.0104069 -0.12774 17.9988
0.41522 -0.691227 21.4832
-0.161173 0.114763 16.237
-0.349199 0.0690829 19.8138
2.58144 1.82457 21.2702
1.51951 -0.694486 21.3549
0.288715 -0.084801 19.0395
-0.187992 -0.515853 18.544
-0.958416 -0.496642 20.0362
-0.653101 -0.226559 19.8357
-0.631756 -0.399797 19.6266
-0.820568 -0.510443 21.2234
-1.4179 -0.628153 20.6024
-1.70505 -1.44445 20.6615
-0.13534 -0.169334 21.5718
-0.52109 -0.388304 21.4484
-0.369904 -0.425198 21.6132
0.46716 0.162838 21.6645
0.139893 -0.092471 21.6478
0.133809 0.0713979 21.7712
0.953885 0.405705 21.3799
1.00246 0.281922 21.548
0.985406 0.824824 21.1791
0.971551 0.40866 20.8419
1.17771 0.351555 21.2071
1.22861 1.00601 21.0086
1.07626 0.121221 21.066
1.1118 0.69164 21.3406
-1.26318 -0.363774 19.8866
-0.733087 -0.0369747 19.7452
-0.811793 -0.283225 19.4387
-1.09665 -0.478354 21.312
-1.86833 -0.16384 20.5758
-0.229405 -0.296612 21.6364
-0.802615 -0.367419 21.4727
0.646028 -0.0153969 21.6751
0.0932551 -0.276723 21.7779
1.32559 0.131261 21.1576
1.25817 -0.354286 20.8057
1.16159 0.26797 20.9198
1.49443 -0.311633 20.581
1.87118 0.748827 17.9699
1.30307 -0.352843 19.6746
1.62239 0.642131 18.3177
-1.37246 0.249573 19.8088
-0.618173 0.315851 19.8168
-0.882833 0.191444 19.3435
-1.39136 0.0416465 21.1925
-1.24614 0.633709 20.4479
-0.557954 -0.290657 21.7353
-1.03045 0.223586 21.3083
0.496855 -0.557469 21.6068
-0.270123 -0.209717 21.6707
1.10871 -0.793858 21.1253
0.286682 -0.629218 21.471
1.16895 -0.707565 20.1699
0.543943 -0.714909 21.4826
1.68003 -1.08862 15.9293
0.399792 -0.43935 20.6647
1.20405 -0.968082 18.0086
-0.62821 0.500784 20.1703
-0.458799 0.493262 19.8729
-0.775191 0.514344 20.8471
-0.851415 0.93545 20.3997
-0.532141 0.170996 21.4549
-0.890835 0.698688 21.2407
-0.031542 -0.231889 21.392
-0.314019 0.00886906 21.6434
0.229835 -0.479468 21.3542
0.0417812 -0.410246 21.4191
0.291924 -0.76389 20.7761
0.250752 -0.69425 21.4907
0.221397 -0.538168 21.8174
-1.24682 -1.59466 19.134
-0.654737 -0.523616 19.1517
-0.00105044 -0.790265 18.996
-0.996213 -1.08316 22.0492
-0.00573784 -4.40702 21.2017
-0.192028 -0.101926 21.3643
-0.00127433 -0.618223 21.2947
0.350173 0.718845 20.2442
0.00382686 -0.157079 19.8208
0.924189 1.42253 19.4488
0.00682281 0.924054 16.3891
0.734391 1.45824 19.9461
1.57082 1.63207 16.2533
0.0143497 1.47894 16.9915
1.52649 1.05268 16.3955
-0.0131779 1.47284 17.1271
-0.804572 -0.107735 18.8059
-0.00396052 -0.617033 18.4309
1.99741 1.34226 13.9453
2.21693 0.0211993 7.66196
0.0515055 1.63709 6.85429
2.17428 0.867406 11.682
0.112728 1.50251 12.594
-0.613982 0.679355 19.2384
-0.00184959 0.426198 18.1652
1.52831 -0.839048 8.26484
0.484216 -1.2144 17.1346
0.132415 1.69217 -5.57629
0.250753 -1.27813 17.202
0.139655 1.41835 -0.813503
-0.607922 1.07939 19.8488
-0.000694036 0.793661 19.5543
-0.822655 1.25639 20.795
-0.00489024 1.86827 20.2339
-0.693901 0.74224 21.7832
-0.038653 1.98208 21.1734
-0.104437 -0.231425 21.6081
-0.029654 0.378196 21.9426
0.00922156 -0.556619 21.4495
-0.031894 -0.212311 21.7204
0.0943343 -0.565349 21.8298
-0.0249647 -0.614739 21.9314
0.0180986 -0.34089 21.5919
1.24684 -1.58483 19.143
0.655165 -0.521128 19.1516
0.634609 -0.401522 19.6311
1.00973 -1.0996 22.076
1.717 -1.45063 20.6547
0.205638 -0.10027 21.2386
0.370011 -0.415443 21.616
-0.305657 0.695955 19.7557
-0.134451 0.106022 21.7733
-0.821679 1.44912 18.9617
-0.965221 0.881199 21.0961
-0.689554 1.57786 19.6571
-1.5601 1.66614 15.9604
-1.21068 1.04598 21.0341
-1.52189 1.07779 15.856
-1.09642 0.721315 21.3924
0.804759 -0.108557 18.7996
0.814852 -0.281236 19.4338
-1.97742 1.44686 13.7077
-2.20572 0.0542647 6.73459
-1.90501 0.802115 17.659
-2.21402 0.947535 11.0881
-1.66459 0.712438 17.8793
0.609321 0.681057 19.2362
0.881885 0.192492 19.3417
-1.4533 -0.847797 6.7651
-0.451053 -1.19855 16.4893
-1.73915 -1.12171 15.1933
-0.23629 -1.37602 16.793
-1.26698 -0.873897 17.4548
0.607822 1.08406 19.8463
0.462168 0.4933 19.872
0.815119 1.28185 20.791
0.853401 0.941543 20.4001
0.700081 0.82099 21.8248
0.898925 0.730285 21.2428
0.125797 -0.207173 21.6123
0.334279 0.0302068 21.6735
0.0319265 -0.519567 21.4787
-0.00364095 -0.420003 21.4359
-0.130327 -0.580487 22.0561
-0.197185 -0.715216 21.7179
-0.196815 -0.65993 21.3171
0.952413 -0.488284 20.0294
0.645233 -0.22274 19.8339
0.830727 -0.511691 21.226
1.41785 -0.621608 20.6146
0.140831 -0.173051 21.5738
0.513957 -0.385869 21.4513
-0.469012 0.159152 21.6588
-0.150653 -0.0916816 21.6347
-0.964433 0.414849 21.3674
-0.992302 0.276015 21.5302
-0.96809 0.435034 20.9078
-1.19274 0.375379 21.1812
-1.10176 0.175064 21.1055
1.26311 -0.364298 19.8912
0.733575 -0.0352468 19.7371
1.09446 -0.477221 21.3235
1.87612 -0.159999 20.5798
0.21693 -0.290292 21.6361
0.791985 -0.36834 21.48
-0.632876 -0.0209494 21.6859
-0.102591 -0.280095 21.8135
-1.31721 0.127329 21.1713
-1.22922 -0.347305 20.9386
-1.15655 0.285597 20.9636
-1.52318 -0.307492 20.4782
-1.34931 -0.28542 19.2438
1.37212 0.250298 19.8175
0.615144 0.315127 19.8223
1.38601 0.0420411 21.206
1.25153 0.638299 20.4525
0.550338 -0.289106 21.7356
1.04617 0.216888 21.3174
-0.490763 -0.550865 21.6337
0.278855 -0.221255 21.6935
-1.11393 -0.796992 21.1417
-0.277243 -0.653997 21.4822
-1.2382 -0.767251 20.0272
-0.546607 -0.798323 21.487
-0.387497 -0.531996 20.3151
0.62948 0.50498 20.1697
0.787411 0.522798 20.8525
0.550182 0.189362 21.4741
0.0532656 -0.24286 21.4438
-0.204113 -0.481331 21.3062
-0.222083 -0.663513 21.0763
-1.11295 -0.458083 19.9795
-1.6505 -1.73162 18.5793
-1.22499 -0.921094 19.6983
-1.77844 -0.767808 19.2633
-0.71192 -0.346735 19.529
-2.34939 -1.60586 20.6847
-0.964095 -0.515264 21.2732
-0.979184 -0.686558 20.5283
-0.910577 -0.820962 21.5675
-1.18508 -0.989052 21.9724
-0.346502 -0.512397 21.6437
-0.184653 -0.254426 21.5822
0.191914 0.0110265 16.9943
-0.0991169 -0.181647 21.6874
-0.0203543 -0.324684 20.4844
0.246889 0.0653113 21.4536
0.554522 0.0888031 21.6799
0.581281 0.690519 13.5484
0.550567 0.457867 21.696
0.887365 0.353462 17.4259
1.35943 0.890767 19.5297
1.17325 0.297611 21.2225
1.24671 1.47621 14.334
1.17121 0.908738 21.0037
1.89155 0.683284 17.3678
1.56246 1.05227 19.6146
1.16093 0.324594 20.7265
1.22911 1.50392 17.6416
0.973971 0.66336 21.335
1.60118 0.206269 19.8831
1.3796 0.692377 20.5264
-1.37521 -0.0860595 19.8224
-2.74923 -0.318373 16.9561
-2.02408 0.55588 19.0755
-0.849418 -0.0593931 19.3426
-4.20521 -0.360192 20.543
-1.32273 -0.286787 21.3396
-1.91571 0.0279633 21.6797
-0.918368 -0.6929 20.1852
-0.370136 -0.338547 21.7365
-0.630613 -0.816022 19.8374
0.291496 -0.112542 16.854
0.654392 -0.279414 21.3627
0.822177 -0.251894 15.2518
1.4241 -0.484601 10.9811
1.43489 -0.365843 20.8142
0.99648 -0.539631 3.43926
1.16017 -1.02982 14.2909
2.17914 -0.361019 15.7671
1.41323 -0.22168 20.2045
2.5929 0.744314 10.826
1.8251 -1.10764 18.0012
1.73868 0.257281 15.6783
-0.996646 0.53802 19.985
-1.28747 1.60934 19.095
-0.683144 0.761791 20.0296
-0.678002 0.460171 19.5901
-1.70579 1.2802 20.3915
-1.16714 0.434598 20.9661
-1.75272 1.64601 20.9255
-0.88972 0.846644 20.8372
-1.64743 0.525281 21.4175
-0.693197 -0.00932346 21.6188
-1.8862 0.516395 22.1089
-0.65389 0.383123 21.6006
-0.427776 -0.235142 21.961
0.063793 -0.423558 21.6074
0.206288 -0.46144 17.3191
-0.0884812 -0.251624 21.5376
0.0963936 -0.765361 21.0132
0.445511 -0.739726 21.2953
0.203002 -0.845463 15.4435
0.151529 -0.519288 21.2147
0.579575 -1.17264 20.4276
0.674746 -0.916985 20.5931
0.432221 -1.42033 18.7447
0.0536359 -0.421442 21.8378
0.325272 -0.858742 18.9333
1.65032 -1.72402 18.5793
-0.000336106 -2.52698 18.4421
-0.00553989 -2.86496 15.8579
-0.00241806 -0.738774 18.6898
-0.0141071 -6.14302 22.647
1.01445 -0.742407 20.5537
-0.00988822 -1.62549 22.4314
0.0115932 -0.194757 14.3202
-0.191177 0.0157832 16.6782
0.00169261 -0.348458 20.3289
0.0122991 -0.147061 12.2861
-0.560266 0.71706 12.9409
0.00181305 0.457335 17.9887
-0.00321429 0.692935 8.12141
-1.19277 1.48289 13.8745
0.0215056 1.21935 16.585
0.0145967 0.347775 3.18763
0.0530951 1.96584 12.2693
-1.1908 1.61419 17.3694
0.00094451 1.9368 17.4412
0.0733326 2.42227 9.74914
0.106184 1.57726 15.0149
2.74736 -0.315362 16.9403
-0.00293155 2.22021 14.9708
-0.00210308 -0.183127 17.9275
-0.935674 -0.507432 3.17566
-0.0133451 1.24753 -4.31605
0.106003 0.910663 -0.714756
-2.69829 0.896911 9.87567
0.114353 1.99814 -5.55729
0.137088 1.41664 7.60692
1.28263 1.61617 19.0908
-0.0020141 1.45221 19.6697
-0.00149975 0.91562 18.8715
-0.00517379 3.91998 20.2332
1.7463 1.67235 20.922
-0.0162014 1.75576 20.6769
-0.0311639 4.16404 20.3771
1.94739 0.556244 21.7542
-0.0426377 1.35729 22.0615
-0.00962945 0.199577 17.4713
-0.254536 -0.443714 15.7885
-0.0247329 -0.0778198 21.6328
-0.0951207 0.226847 4.72939
-0.130091 -0.803824 14.2067
-0.0206588 -0.396404 21.6887
-0.00934622 -0.595672 6.98536
-0.409362 -1.50402 18.1284
0.0199629 -0.429442 21.666
0.0112958 -0.989618 13.5147
1.10984 -0.460296 19.9765
1.2239 -0.922118 19.6941
1.78071 -0.764386 19.2571
0.713003 -0.346766 19.5265
2.37107 -1.6096 20.6648
0.968104 -0.5173 21.2889
0.920406 -0.827318 21.5822
1.19003 -0.979752 22.0116
0.342382 -0.495551 21.6342
0.177628 -0.255941 21.5846
0.100133 -0.168743 21.692
0.00881849 -0.326551 20.5411
-0.271909 0.107428 21.4152
-0.554686 0.0906095 21.6662
-0.542893 0.495781 21.6296
-0.907947 0.36611 17.7282
-1.35455 0.910457 19.3764
-1.17595 0.306581 21.2209
-1.16038 0.972636 20.9026
-1.88468 0.692162 17.2873
-1.60646 1.11701 19.2078
-1.16061 0.352196 20.7842
-0.965098 0.736477 21.3412
-1.64964 0.295995 19.4508
-1.42897 0.771778 20.0823
1.37006 -0.08803 19.8207
2.02459 0.560082 19.072
0.852495 -0.0583595 19.3369
4.21317 -0.3417 20.5281
1.32333 -0.283623 21.3524
1.90849 0.0282848 21.6897
0.909141 -0.701229 20.2683
0.358968 -0.340598 21.7391
0.634312 -0.825164 19.9573
-0.319147 -0.167831 17.1644
-0.642663 -0.280604 21.411
-0.815517 -0.288442 15.5701
-1.44269 -0.429401 11.4448
-1.4258 -0.369829 20.8339
-1.14776 -1.03131 13.8755
-2.21819 -0.373052 15.1682
-1.45998 -0.257593 20.1202
-1.91216 -0.959346 17.1571
-1.78167 0.331057 15.166
0.995885 0.542452 19.9888
0.684873 0.763493 20.029
0.676676 0.459571 19.588
1.7092 1.28823 20.3923
1.17621 0.434545 20.9754
0.891944 0.862525 20.8358
1.67197 0.546376 21.4185
0.709789 -0.0148972 21.6388
0.671215 0.433737 21.6203
0.445331 -0.237987 21.9901
-0.0584943 -0.441718 21.6205
0.0994037 -0.251819 21.5381
-0.0792189 -0.758394 20.6051
-0.432344 -0.774337 21.353
-0.0953996 -0.548234 21.328
-0.585406 -1.23799 19.6146
-0.646681 -0.939693 20.7258
-0.0161939 -0.504851 21.5459
-0.311894 -0.954009 18.5541
-1.50439 -0.8933 19.4816
-1.00887 -0.861731 21.721
-0.0184494 -0.234555 21.5671
0.799636 0.488483 20.6371
1.52066 0.935626 19.686
1.2648 0.51495 20.8105
-2.16924 -0.175381 18.9292
-1.82556 -0.560089 22.0818
-0.224202 -0.495929 18.2279
0.77841 0.0137086 14.1776
1.83456 -0.478905 14.1109
1.97392 -0.485491 18.3051
-1.2469 0.945992 19.6595
-1.5955 0.81951 21.0222
-1.12935 0.116243 21.9666
-0.0362583 -0.569276 21.746
0.279991 -0.917648 21.0307
0.525543 -1.052 21.2652
-0.00302065 -2.95614 17.4362
-0.0078733 -0.958074 18.1892
0.0104361 -0.104792 12.6575
-7.39227e-06 0.420754 9.65847
0.00752333 0.983963 10.0229
0.0848476 2.17203 13.7766
-0.00421467 -0.595051 13.7965
0.00569433 0.53019 -1.01825
0.0738039 2.66157 2.5438
-0.0032543 2.52046 18.3641
-0.0127901 2.59541 20.6908
-0.0452888 2.29713 21.4669
-0.012558 -0.21049 10.2385
-0.0606872 0.232614 5.1824
0.00739891 -0.318561 7.51254
1.5053 -0.886051 19.4826
1.02563 -0.858495 21.7383
0.0144827 -0.218846 21.5406
-0.800639 0.519113 20.5513
-1.52492 0.980871 19.4787
-1.29717 0.615966 20.5011
2.17025 -0.170844 18.9282
1.81781 -0.551455 22.1046
0.226584 -0.515461 18.4281
-0.786541 -0.0105038 14.556
-1.82823 -0.468699 13.8647
-2.05496 -0.377853 17.5703
1.24769 0.949008 19.6577
1.60217 0.831505 21.0257
1.16634 0.131873 21.9951
0.052221 -0.598859 21.6489
-0.23583 -0.894127 20.4641
-0.503837 -1.11994 20.8518
-1.25924 -0.179228 2.2543
-0.0118147 -0.432102 1.2674
-0.0510185 -0.00722477 0.625348
0.0310959 -0.0214175 0.0489409
0.000662858 0.00618413 0.0261537
0.0780785 0.0781245 0.754868
-8.4817 1.15433 7.6626
-0.412334 1.88761 2.22231
-0.385465 -0.12265 2.08849
-0.00922506 -0.0325116 0.00871782
-0.126092 0.0331414 -0.078757
-0.0867656 -0.108702 0.165317
0.00919179 -0.421809 1.25265
1.24267 -0.165813 2.21566
0.0633382 -0.0283065 0.840453
-0.000815347 0.00613248 0.0259573
-0.0306883 -0.0217714 0.0488946
-0.0789522 0.0798338 0.767999
0.441453 2.02191 2.4039
8.46583 1.18043 7.64997
0.38865 -0.125491 2.09569
0.124394 0.0352724 -0.0822182
0.00919305 -0.0326782 0.00879094
0.0829177 -0.105155 0.164194
0.0841015 -0.0833883 1.85211
0.00468656 -0.00144418 0.134016
0 0 0
0.000464333 -8.62943e-06 0.00614757
0.0181701 0.0125417 0.262369
0.00144391 0.00103934 0.260901
-0.00240615 0.00827583 0.072997
0 0 0
-0.284572 -0.164845 0.752957
0 0 0
0 0 0
-0.0419023 0.0331032 0.0799752
0 0 0
0.00642684 0.0189176 0.132701
0 0 0
0.0054406 -0.00224409 0.0549486
-0.0958302 -0.0740192 1.69074
0 0 0
-0.00522708 -0.00166527 0.13583
0 0 0
-0.0713777 0.00968998 1.63104
0 0 0
-0.00089087 0.00110608 0.259531
-0.00022175 0.00783706 0.101498
0.285124 -0.166071 0.747126
0.0547295 0.0299872 0.0843976
0 0 0
0 0 0
-0.000205388 0.00013518 0.00180181
-0.00550582 -0.00227752 0.0559166
-0.00636658 0.0176923 0.13398
0 0 0
-0.0185617 -0.0127208 0.216477
0 0 0
0.0037659 -0.0110394 0.129456
5.72278e-05 -0.000161589 1.92829e-05
0 0 0
6.50888e-18 -5.86806e-18 1.39644e-16
0.00157762 -0.00137651 0.00883481
-0.0520295 -0.0719642 0.0307116
-1.99212e-06 4.30358e-05 0.000429438
-0.00021252 -0.0229981 2.65271e-05
0.0310544 0.0476986 1.12948
7.90007e-05 0.000204011 0.00272781
0 0 0
2.6777e-05 0.00128081 0.0142369
0 0 0
-0.00500166 0.000436895 0.0100365
0 0 0
-5.20902e-05 0.000724361 -0.00420499
0 0 0
-0.000561179 0.000262363 -0.000530875
0 0 0
0.00793267 -0.0052631 0.0906835
9.67414e-19 8.77722e-19 -2.03799e-17
0 0 0
0.0522693 -0.0749536 0.031865
-0.00161854 -0.00130312 0.00911126
-0.000175813 0.000266135 0.00372194
-0.00434581 0.00376255 0.140665
0.00503645 0.000434036 0.0100591
0 0 0
0.00047435 0.000225328 -0.000453511
0 0 0
-0.000329584 0.00882089 0.147275
0.000325064 -1.19834e-05 0.00856355
-3.05691e-05 -0.000213136 0.00138755
-1.04457e-06 3.36494e-06 0.00011707
-1.56748e-07 -6.00933e-09 -3.32734e-05
-6.10836e-09 -8.91428e-10 -3.13627e-06
4.7602e-06 1.70904e-05 0.000185628
0 0 0
-7.81153e-08 5.85054e-08 -4.09614e-05
0 0 0
0.000476538 0.00279257 0.026059
0.00190423 0.0097299 0.231697
0 0 0
5.00096e-05 0.0911526 0.313623
2.20412e-05 0.00104719 0.0704985
-1.9019e-06 -0.000799368 0.00629848
-0.000298356 -1.09633e-05 0.0085845
0.000313327 0.0088467 0.1469
3.0202e-05 -0.000235968 0.00139289
5.42674e-07 1.75149e-06 6.14078e-05
-5.34054e-06 1.79915e-05 0.000207308
0 0 0
-0.00172702 0.00970072 0.231949
-0.000478828 0.00271635 0.0262971
0 0 0
-0.0461256 -0.0369247 0.278327
-0.000188789 -0.000376325 0.00836783
-0.000211874 -0.00101336 0.00466972
-0.000702742 0.0011779 0.0474062
0 0 0
0.00204603 0.0127285 0.155291
0.0048693 0.00886229 0.0534404
0 0 0
0 0 0
0.0100463 -0.000568968 0.0562552
0.00384273 -0.00892282 0.0262976