# vtk DataFile Version 2.0
tri_press
ASCII
DATASET UNSTRUCTURED_GRID
POINTS 3682 float
-0.80163 0.205 -2.255
-0.635 0.275 2.25906
-0.795 0.825 -2.22444
-0.545 0.855 2.27433
0.801639 0.205 -2.255
0.635 0.275 2.25906
0.795 0.825 -2.22444
0.545 0.855 2.27434
-0.807369 0.167051 -0.750314
-0.782843 0.159367 0.754373
-0.803512 0.926845 -0.72485
-0.745186 0.961852 0.77474
0.807396 0.16703 -0.750314
0.782846 0.159367 0.754373
0.803515 0.926848 -0.724847
0.745183 0.961849 0.774747
-1.58572 -0.181984 -3.4691
-1.59051 -0.1643 -2.26739
-1.57846 -0.191274 -0.762569
-1.51377 -0.19506 0.743275
-1.39525 -0.123593 2.24818
-1.36966 -0.095476 3.45031
-1.38561 -0.0908719 4.65166
-1.59002 0.164899 -3.45565
-1.59643 0.197986 -2.2545
-1.58503 0.18284 -0.750669
-1.49903 0.167583 0.753616
-1.33165 0.2185 2.25754
-1.32837 0.243637 3.4596
-1.36457 0.250348 4.66112
-1.58766 0.833705 -3.42732
-1.59177 0.866356 -2.22596
-1.57869 0.931859 -0.725606
-1.46915 0.936652 0.774385
-1.2746 0.87151 2.27483
-1.29865 0.895285 3.47711
-1.35453 0.921189 4.67945
-1.57072 1.91031 -3.38866
-1.56952 1.95266 -2.18806
-1.55518 2.01933 -0.689361
-1.51206 2.03949 0.808241
-1.45167 2.00227 2.307
-1.42622 1.98323 3.50771
-1.428 1.98696 4.70949
-0.794541 -0.179294 -3.46942
-0.797423 -0.159736 -2.26787
-0.798467 -0.200265 -0.762503
-0.781826 -0.198843 0.74392
-0.706773 -0.0916309 2.24931
-0.689158 -0.0736763 3.45108
-0.700461 -0.0798353 4.6521
-0.797857 0.163271 -3.45575
-0.661729 0.26438 3.46023
-0.687926 0.259556 4.66145
-0.796093 0.816575 -3.42669
-0.638176 0.893418 3.47701
-0.683709 0.921359 4.67943
-0.787305 1.8998 -3.38804
-0.788678 1.94337 -2.18737
-0.789891 2.01981 -0.688946
-0.781578 2.04495 0.808194
-0.755582 2.0005 2.30664
-0.73833 1.97851 3.50736
-0.737604 1.9831 4.70923
0.798232 -0.179296 -3.46942
0.802408 -0.159741 -2.26787
0.798121 -0.20028 -0.762503
0.752556 -0.198847 0.743921
0.653127 -0.0916316 2.24931
0.64724 -0.0736774 3.45108
0.655691 -0.0798367 4.65211
0.796838 0.16327 -3.45575
0.627876 0.264379 3.46024
0.644622 0.259555 4.66146
0.794142 0.816574 -3.42669
0.596479 0.893418 3.47702
0.629172 0.921358 4.67943
0.785507 1.8998 -3.38804
0.781101 1.94337 -2.18737
0.754529 2.01981 -0.688943
0.692613 2.04495 0.808198
0.632249 2.0005 2.30665
0.624478 1.9785 3.50736
0.633154 1.9831 4.70924
1.59226 -0.181991 -3.46909
1.59704 -0.16431 -2.26739
1.58431 -0.191294 -0.762567
1.51108 -0.195069 0.743278
1.38139 -0.123596 2.24818
1.34721 -0.0954787 3.45032
1.3519 -0.0908755 4.65167
1.59282 0.164894 -3.45565
1.59946 0.19798 -2.25449
1.59186 0.182819 -0.750666
1.51551 0.167575 0.753621
1.35047 0.218498 2.25755
1.318 0.243635 3.45961
1.33356 0.250345 4.66112
1.58896 0.833702 -3.42732
1.59387 0.866354 -2.22596
1.58333 0.931854 -0.7256
1.48159 0.936645 0.774394
1.28807 0.871508 2.27485
1.27914 0.895283 3.47712
1.31208 0.921186 4.67945
1.56932 1.91031 -3.38866
1.56226 1.95266 -2.18806
1.52551 2.01932 -0.689355
1.44218 2.03948 0.80825
1.35378 2.00226 2.30701
1.32888 1.98323 3.50772
1.33315 1.98696 4.7095
-0.81004 0.515 -2.25145
4.50015e-06 0.20344 -2.25656
-0.808175 0.18235 -1.50266
-0.628063 0.565 2.30476
0 0.27452 2.25954
-0.721222 0.204883 1.50672
0 0.926126 -2.32557
-0.816406 0.893072 -1.47465
0 0.87802 2.29736
-0.696881 0.960214 1.52453
0.810075 0.515 -2.25148
0.816107 0.174425 -1.50266
0.628048 0.565 2.30475
0.720134 0.205972 1.50672
0.816405 0.893072 -1.47464
0.696871 0.960204 1.52454
-0.792755 0.16556 0.0020299
-0.888741 0.546948 -0.737582
1.38187e-05 0.166096 -0.750314
-0.881041 0.560609 0.764557
1.50005e-06 0.158462 0.754373
-0.766329 0.936329 0.0249449
1.41719e-06 1.19401 -0.724849
-1.41192e-06 1.41413 0.774743
0.79276 0.16556 0.0020299
0.88875 0.546939 -0.73758
0.881044 0.560608 0.76456
0.76633 0.93633 0.0249499
-0.884835 0.530974 -1.48865
0.88484 0.53097 -1.48865
9.15941e-06 0.161104 -1.50266
7.08594e-07 0.997619 -1.47464
2.25008e-06 0.515 -2.34527
-0.899734 0.553779 0.0134874
0.899735 0.553774 0.0134899
7.65936e-06 0.165872 0.0020299
2.63418e-09 1.41789 0.0249474
-0.866265 0.562805 1.51563
0.864217 0.562804 1.51563
7.50025e-07 0.191912 1.50672
-7.0596e-07 1.17675 1.52454
0 0.565 2.39742
-0.806483 0.36 -2.25387
-0.400813 0.203302 -2.2567
-0.805577 0.193 -1.87883
-0.644379 0.42 2.29476
-0.3175 0.274477 2.25958
-0.695353 0.2227 1.88289
-0.813677 0.67 -2.2491
-0.3975 0.874058 -2.2735
-0.815757 0.869091 -1.84954
-0.583659 0.71 2.28667
-0.2725 0.871399 2.29073
-0.632974 0.919641 1.89943
0.400822 0.2033 -2.2567
0.806466 0.36 -2.25385
0.813994 0.184592 -1.87883
0.3175 0.274564 2.2595
0.644387 0.42 2.29477
0.695259 0.222794 1.88289
0.3975 0.874723 -2.27416
0.813731 0.67 -2.24915
0.815765 0.869098 -1.84954
0.2725 0.871464 2.2908
0.583647 0.71 2.28667
0.632838 0.919505 1.89944
-0.818965 0.163508 -1.12649
-0.800631 0.165737 -0.374142
-0.877769 0.342143 -0.743948
-0.4045 0.164929 -0.750314
-0.755771 0.178387 1.13055
-0.784817 0.165446 0.378202
-0.876373 0.337773 0.759465
-0.391622 0.158512 0.754373
-0.813459 0.913459 -1.09975
-0.884396 0.756032 -0.731216
-0.785286 0.931953 -0.349953
-0.453566 1.16405 -0.724849
-0.730322 0.970322 1.14964
-0.872414 0.790881 0.769648
-0.759082 0.952415 0.399842
-0.468352 1.37951 0.774742
0.819176 0.163303 -1.12649
0.404522 0.164929 -0.750314
0.800636 0.165737 -0.374142
0.877674 0.342184 -0.743947
0.775479 0.158681 1.13055
0.391625 0.158512 0.754373
0.78482 0.165446 0.378202
0.876367 0.337777 0.759467
0.813482 0.913482 -1.09975
0.453567 1.16405 -0.724848
0.884413 0.756034 -0.731214
0.785283 0.93195 -0.349949
0.73032 0.97032 1.14965
0.468373 1.37956 0.774745
0.872371 0.790857 0.769653
0.759075 0.952408 0.399848
-0.888449 0.522987 -1.87005
-0.405019 0.515 -2.33859
6.82978e-06 0.175608 -1.87961
3.37511e-06 0.35922 -2.43348
-0.877538 0.356662 -1.49565
-0.404083 0.161124 -1.50266
-0.791253 0.563902 1.91019
-0.314031 0.565 2.3806
3.75013e-07 0.222943 1.88313
0 0.41976 2.42906
-0.864278 0.383844 1.51117
-0.360611 0.190608 1.50672
3.54297e-07 0.958093 -1.90011
1.12504e-06 0.720563 -2.34438
-0.86156 0.712023 -1.48165
-0.408203 0.967901 -1.47464
-3.5298e-07 0.986858 1.91095
0 0.72151 2.31978
-0.835539 0.761509 1.52008
-0.348441 1.14203 1.52454
0.888424 0.522985 -1.87006
0.405039 0.515 -2.33858
0.879435 0.352697 -1.49565
0.408058 0.161084 -1.50266
0.791259 0.563902 1.91019
0.314024 0.565 2.3806
0.846156 0.384388 1.51117
0.360068 0.1906 1.50672
0.861324 0.712021 -1.48165
0.408203 0.967903 -1.47464
0.835535 0.761504 1.52009
0.348435 1.14202 1.52454
-0.894343 0.33562 0.00775865
-0.396944 0.164577 0.0020299
-0.878416 0.538961 -1.11312
-0.896416 0.550364 -0.362047
1.1489e-05 0.159769 -1.12649
1.0739e-05 0.165974 -0.374142
-0.890555 0.557194 0.389022
-0.874518 0.561707 1.14009
4.57971e-06 0.165816 0.378202
1.12504e-06 0.163987 1.13055
-0.893134 0.775105 0.0192162
-0.489346 1.38947 0.0249462
1.06289e-06 1.0302 -1.09975
7.09911e-07 1.36742 -0.349951
-7.04643e-07 1.42411 0.399845
-1.05894e-06 1.38022 1.14964
0.894348 0.335616 0.0077599
0.396953 0.164577 0.0020299
0.878413 0.538954 -1.11312
0.896429 0.550356 -0.362045
0.890559 0.557191 0.389025
0.87265 0.561706 1.1401
0.893146 0.775109 0.0192199
0.489346 1.38947 0.0249487
-0.877556 0.358331 -1.87444
-0.868785 0.356831 -1.1198
-0.875451 0.72446 -1.10643
-0.894228 0.691012 -1.8598
0.87524 0.356349 -1.87445
0.894215 0.69101 -1.8598
0.875452 0.724457 -1.10643
0.86764 0.354841 -1.1198
-0.402448 0.175592 -1.87922
0.40444 0.175594 -1.87922
0.405882 0.159769 -1.12649
-0.40388 0.159769 -1.12649
-0.402851 0.93142 -1.87482
-0.404979 1.00104 -1.09975
0.404981 1.00103 -1.09975
0.402852 0.93142 -1.87482
-0.402916 0.35961 -2.42178
-0.401259 0.695282 -2.32494
0.401269 0.695282 -2.32496
0.40293 0.35961 -2.42177
-0.889121 0.337349 -0.368095
-0.885681 0.336535 0.383612
-0.882876 0.783044 0.394432
-0.891201 0.766786 -0.356
0.889139 0.337336 -0.368094
0.891213 0.766788 -0.355997
0.882882 0.783045 0.394437
0.885695 0.336528 0.383613
-0.400728 0.16474 -0.374142
0.400744 0.16474 -0.374142
0.392829 0.164466 0.378202
-0.392822 0.164466 0.378202
-0.503172 1.34019 -0.349952
-0.48309 1.39297 0.399844
0.483091 1.39298 0.399847
0.503177 1.3402 -0.34995
-0.863919 0.371916 1.13532
-0.787694 0.401922 1.89654
-0.786841 0.735755 1.90481
-0.862096 0.76137 1.14486
0.853624 0.372188 1.13532
0.862103 0.761366 1.14487
0.786849 0.735752 1.90482
0.787729 0.402194 1.89654
-0.376016 0.163981 1.13055
0.375746 0.163994 1.13055
0.338784 0.222925 1.88301
-0.339055 0.222925 1.88301
-0.360517 1.35601 1.14964
-0.31047 0.972535 1.90519
0.310467 0.972539 1.90519
0.360513 1.35603 1.14964
-0.315766 0.41988 2.41589
0.315762 0.41988 2.41588
0.293262 0.715755 2.32221
-0.293266 0.715755 2.32224
-0.804493 0.2825 -2.25487
-0.601221 0.203576 -2.25642
-0.805194 0.19741 -2.06691
-0.646044 0.3475 2.28326
-0.47625 0.274457 2.2596
-0.667784 0.246243 2.07097
-0.811955 0.7475 -2.24439
-0.59625 0.835997 -2.23544
-0.814231 0.855898 -2.03699
-0.570143 0.7825 2.28631
-0.40875 0.861418 2.28075
-0.592847 0.89118 2.08688
0.60123 0.203576 -2.25642
0.804464 0.2825 -2.25484
0.808646 0.193966 -2.06691
0.47625 0.274586 2.25947
0.646039 0.3475 2.28326
0.667784 0.246243 2.07097
0.59625 0.836008 -2.23545
0.812006 0.7475 -2.24444
0.814237 0.855903 -2.03699
0.40875 0.861381 2.28072
0.570091 0.7825 2.28627
0.592733 0.891066 2.08689
-0.810253 0.168193 -0.938399
-0.804461 0.165933 -0.562228
-0.86756 0.242101 -0.747131
-0.606175 0.165509 -0.750314
-0.761002 0.177182 0.942459
-0.786023 0.160213 0.566288
-0.85923 0.233759 0.756919
-0.587206 0.158993 0.754373
-0.80992 0.921587 -0.912299
-0.863199 0.851061 -0.728033
-0.79501 0.93001 -0.537401
-0.665182 1.11873 -0.72485
-0.737534 0.965867 0.962189
-0.830436 0.887185 0.772194
-0.732962 0.937962 0.587291
-0.63589 1.22892 0.774741
0.810705 0.167747 -0.938399
0.606194 0.165509 -0.750314
0.804043 0.166356 -0.562228
0.867492 0.242128 -0.74713
0.759021 0.179166 0.942459
0.587209 0.158992 0.754373
0.786027 0.160213 0.566288
0.859214 0.233768 0.75692
0.809928 0.921594 -0.912296
0.665184 1.11873 -0.724847
0.863267 0.851093 -0.72803
0.795013 0.930013 -0.537398
[...]
POINT_DATA 3682
SCALARS point_scalars float 1
LOOKUP_TABLE default
-84.6553
-43.8106
-150.871
-36.1916
-80.3671
-43.8471
-151.425
-36.1007
-38.6084
-37.6988
-50.2102
-47.4336
-38.4577
-40.1094
-50.2987
-47.4532
-52.3896
-110.144
-37.0564
-56.3748
-44.1088
-40.5065
-40.0418
52.385
-111.482
-37.3737
-42.9482
-43.6864
-39.3717
-38.3151
-52.9174
-137.093
-42.7656
-44.3274
-40.955
-38.2996
-38.095
-135.918
-90.9808
-84.6779
-54.3932
-35.0663
-35.9871
-35.9935
63.836
-159.947
-39.1205
-42.0904
-42.9733
-39.8346
-39.2759
117.426
-38.2972
-38.2101
171.08
-37.0923
-37.7662
-60.6497
-87.6594
-72.5809
-54.8572
-34.0955
-35.9871
-35.6512
62.905
-146.001
-38.9995
-42.6563
-43.0787
-39.8097
-38.6632
116.772
-38.2674
-38.1692
171.633
-36.8617
-37.74
-62.0304
-87.7176
-72.7305
-54.9384
-33.6908
-34.6453
-34.8913
-48.7182
-94.8103
-36.7685
-49.879
-44.3822
-40.5307
-39.8806
53.6524
-100.386
-37.1523
-42.6107
-43.9232
-39.3617
-38.2831
-53.9246
-136.053
-42.8298
-44.4004
-40.8742
-38.2748
-38.0652
-137.001
-90.7998
-83.7667
-54.4118
-34.9708
-35.8973
-35.9649
-106.742
-126.58
-48.3697
-38.2773
-42.277
-44.9301
-176.209
-40.3378
-31.0588
-40.6561
-104.9
-46.5227
-38.2512
-44.132
-40.613
-40.5587
-38.3572
-39.0436
-42.1401
-42.1288
-41.9585
-53.2775
15.7524
-56.9094
-38.4417
-38.9889
-42.5809
-53.2801
-50.4232
-51.3183
-60.8432
-21.2938
202.23
-43.5384
-43.6364
-38.6628
-83.6476
-46.726
-46.1577
-46.7681
-34.1323
-35.681
-82.0646
-147.759
-68.9813
-40.1423
-42.4244
-45.0692
-136.39
-150.205
-62.7181
-37.7068
-32.7829
-35.7886
-146.655
-79.137
-70.4383
-42.4146
-40.1853
-44.9483
-152.932
-135.333
-63.0208
-32.6312
-37.6455
-35.7004
-41.376
-38.0403
-37.7735
-41.4955
-46.0901
-38.1796
-41.0821
-41.6519
-34.5542
-41.8346
-55.137
6.09214
-44.5675
-44.1696
-51.007
-54.7151
-41.0014
-41.5117
-37.9844
-37.5863
-42.1757
-41.5454
-38.5596
-42.7639
-34.7302
6.21798
-41.8764
-55.2118
-44.4548
-54.6983
-44.2297
-51.1003
-82.3631
181.249
-77.5158
167.848
-51.548
-59.4921
-42.8753
-36.511
-45.3714
-37.9007
-46.4713
-46.654
-53.2531
182.184
-46.8893
-26.7355
-32.3484
-34.1397
-44.4737
-35.0509
-83.1549
181.374
-53.1691
-61.1784
-42.8533
-36.4389
-45.4964
-46.4564
-47.4496
-26.7695
-44.1056
-35.0278
-41.4732
-38.5184
-38.6331
-41.7194
-50.0084
-39.2958
-42.9569
-43.5612
-39.1585
-48.4412
-46.5912
-74.9371
3.49694
-68.6841
-67.5264
-46.1138
-41.5495
-38.5489
-38.8665
-41.699
-43.2918
-42.6977
-46.6091
-74.9855
-80.7414
-38.2107
-38.0434
-76.0639
-82.8585
-76.6337
-38.2592
-38.349
-78.2525
-77.7501
-48.9827
-48.9094
-57.4088
-4.76781
-4.79366
-57.4248
148.23
147.948
147.941
148.42
-39.7045
-41.1732
-45.5648
-45.4117
-39.6145
-45.4517
-45.8379
-41.5965
-39.0077
-39.0031
-39.0718
-38.982
-75.0876
-62.2155
-62.2405
-75.1659
-44.713
-43.709
-41.0219
-43.2067
-42.384
-42.9015
-40.871
-44.0191
-48.017
-48.0678
-45.202
-45.2849
-46.7207
-33.1088
-33.0632
-46.6967
-38.0479
-38.0283
-35.1204
-35.2181
-69.9188
-174.92
-95.2743
-41.573
-42.786
-44.1302
-129.973
-185.968
-92.1855
-37.2942
-34.045
-35.4095
-184.36
-66.846
-93.1177
-42.7732
-41.5999
-44.1756
-187.3
-126.641
-92.2906
-33.9087
-37.2077
-35.3149
-39.653
-38.0169
-37.1636
-40.352
-50.6918
-38.6128
-38.5362
-41.3947
-41.1155
-44.9426
-53.8533
-48.3579
-45.8716
-46.111
-47.5719
-50.4285
-39.4681
-40.2996
-37.9079
-36.8894
-46.5245
-41.6203
-39.4753
-40.2934
-41.2285
-48.631
-45.017
-53.934
-45.7974
-50.4877
-46.0929
-47.6351
-97.8318
-110.003
-114.873
147.123
-168.207
-168.035
-94.5596
48.9407
-56.5215
-47.5337
-50.6837
-56.1482
-39.1373
-37.6957
-41.6731
-37.0744
-42.3021
-42.2957
-43.8836
-39.9396
-46.0348
-46.3605
-45.3023
-45.6206
-183.879
-184.314
-84.8935
154.214
-49.4143
-34.4981
-44.8296
-32.9358
-31.5397
-31.4355
-32.6126
-32.2264
-37.1453
-43.0909
-41.6711
-36.1909
-95.306
-108.969
-114.876
147.256
-58.8222
-51.8874
-53.1429
-57.925
-39.1443
-37.6463
-41.7336
-37.0149
-45.2021
-48.7077
-44.7165
-45.6259
-49.7263
-34.7277
-45.2961
-33.0336
-37.1138
-42.9523
-41.5123
-36.1593
-38.1394
-38.4755
-39.9396
-38.2827
-38.42
-39.9837
-38.1611
-40.3416
-42.0455
-42.0616
-45.7447
-40.3646
-41.7727
-42.9428
-42.4823
-43.0012
-41.9473
-41.8952
-40.513
-49.8139
-54.6028
-52.4957
-50.2481
-60.4738
13.6516
13.6371
17.2168
-10.7054
-56.3874
-56.3806
-61.7422
-51.5046
-38.1523
-38.6608
-39.9926
-38.3468
-38.309
-39.9772
-38.1759
-40.2893
-42.571
-43.142
-42.9149
-43.116
-54.6461
-52.8072
-50.1724
-60.541
-63.7159
-51.1805
-49.0735
-42.0804
-64.8019
-52.3259
-49.7556
-42.3995
-67.853
-60.7685
-61.113
-55.6145
-35.9158
-22.7423
-22.751
-8.31305
198.466
202.078
197.781
198.579
-42.5393
-42.426
-43.6344
-44.8226
-42.6339
-42.4527
-43.8493
-44.9011
-38.6444
-38.7962
-38.8227
-38.6607
-82.1351
-94.3615
-74.8232
-82.1548
-45.0799
-46.5757
-47.2186
-44.2831
-44.6113
-45.5709
-46.7628
-43.3918
-45.9562
-46.7936
-46.7197
-47.9456
-32.2483
-34.3045
-34.2922
-38.6645
-35.9412
-36.7334
-34.8624
-35.8958
-115.785
130.252
-100.723
-1.98029
-76.5526
-73.7468
-42.787
-38.2438
-43.8654
-39.7988
-44.1603
-45.256
-101.582
141.974
-84.7802
86.6259
-66.6805
-61.5939
-40.997
-36.4708
-33.1304
-34.1487
-37.851
-33.7258
-100.282
-0.178963
-111.978
129.964
-79.3843
-73.9276
-43.8513
-39.7772
-43.025
-38.2181
-44.6243
-45.0525
-84.7843
88.555
-101.831
142.358
-67.1389
-61.6892
-33.0642
-34.0153
-40.9531
-36.3812
-37.7667
-33.6719
-37.6754
-47.0345
-38.5619
-38.5044
-37.6157
-38.5313
-44.8314
-39.9113
-45.9414
-45.9904
-40.1816
-38.5697
-40.9673
-43.8739
-40.2486
-49.5166
-37.4092
-16.2987
-39.3859
-43.919
-49.4466
-71.1056
6.26165
-16.0889
-44.5941
-48.5726
-44.6779
-43.4686
-48.4262
-54.4889
-58.437
-50.8417
-37.6143
-47.1629
-44.7626
-40.1008
-38.4448
-38.5026
-37.4487
-38.3821
-42.2801
-46.9767
-40.3134
-49.3137
-40.6248
-38.7907
-41.7928
-45.4781
-37.6023
-16.3827
6.26241
-15.8869
-39.4701
-43.9475
-49.5063
-71.2014
-44.43
-48.5435
-58.445
-50.8185
-44.8496
-43.3226
-48.5497
-54.562
-82.361
-81.5938
188.249
173.31
-79.3952
-79.3446
129.447
129.474
-63.2463
-44.2184
-66.9044
-54.2281
-43.2836
-42.0853
-37.2367
-36.0322
-45.3029
-45.3542
-38.1663
-38.1567
-44.745
-46.8076
-48.0509
-45.7336
-54.6213
-54.6463
177.467
177.599
-40.341
-62.6103
-39.2434
-15.3807
-32.6063
-32.5777
-34.5742
-34.652
-42.0835
-44.2752
-39.7879
-33.5539
-83.4546
-82.3252
173.458
188.379
-65.1842
-44.9991
-66.7305
-54.6822
-41.9766
-43.3994
-37.1993
-35.9653
-42.7943
-46.0679
-47.7233
-45.708
-63.2722
-40.7478
-15.4003
-39.2838
-43.9832
-41.7782
-33.5139
-39.7694
-40.3014
-41.6558
-38.6118
-38.662
-38.9219
-38.2981
-40.7264
-43.1196
-49.8704
-49.7812
-39.2424
-39.2528
-42.1708
-43.9878
-44.0883
-42.959
-39.1617
-39.1325
-48.4075
-48.3368
-46.5381
-45.8845
-85.0942
-67.9489
1.78024
1.73224
-70.8982
-70.9603
-66.2333
-66.246
-46.256
-46.2454
-40.2884
-41.8694
-38.6071
-38.7278
-38.5336
-39.1336
-40.6762
-43.1285
-44.2859
-42.5495
-42.5429
-42.4368
-45.9351
-46.7943
-67.985
-85.1398
-108.92
-60.9844
-63.8973
-117.704
-37.4847
-37.9192
-42.9432
-46.2762
-40.6576
-38.759
-41.3761
-38.6143
-96.4577
-108.098
-63.1215
-57.3068
-100.964
-116.034
-65.2943
-63.8022
-96.6416
-57.7724
-63.9772
-108.374
-40.7663
-38.6711
-41.8503
-39.0879
-37.2144
-47.693
-43.489
-37.8585
-98.5171
-100.112
-68.1779
-63.4295
-97.9076
-63.1203
-68.3173
-99.9728
-43.2401
-45.5632
-55.5579
-52.5496
-43.3335
-51.7098
-55.3033
-45.5498
-89.5936
-43.2028
-36.9669
-83.3578
-21.3104
14.2166
-10.5731
-22.8532
-21.366
-22.9074
-10.5818
14.1696
-89.7123
-83.4163
-36.9894
-43.269
42.1347
153.357
198.486
-26.6348
108.686
132.292
195.209
148.611
110.806
148.739
195.319
132.376
39.8865
-26.5274
198.59
153.563
-37.6961
-38.8401
-41.4625
-39.4978
-40.2257
-41.874
-42.7505
-40.5691
-47.0663
-49.8196
-44.8043
-43.2839
-47.9254
-41.6336
-43.7655
-50.3925
-37.4987
-39.4037
-41.4436
-38.8
-47.984
-50.6636
-43.8009
-41.6205
-47.1289
-43.5814
-45.0125
-50.1143
-41.2171
-40.7602
-42.971
-42.4638
-39.1284
-40.2699
-38.7707
-38.2848
-39.2852
-38.2958
-38.7772
-40.2976
-39.9978
-40.4772
-38.8191
-38.5413
-39.6776
-38.4096
-38.7918
-40.4705
-73.2366
-65.0073
-92.255
-10.2242
-52.0738
-61.053
-73.2334
-58.1439
-52.1109
-58.2219
-73.2508
-61.0489
-73.6857
-10.2312
-92.259
-65.0699
-46.8689
-43.2119
-44.2646
-42.9617
-43.7062
-42.1396
-46.0693
-47.1827
-37.7285
-38.9074
-43.4226
-41.2094
-46.2259
-42.914
-44.2352
-43.7094
-49.4755
-44.0489
-43.0211
-43.0139
-46.1238
-43.5159
-43.5719
-42.6266
-37.6499
-41.2141
-43.0282
-38.7711
-44.0002
-46.5584
-45.6408
-42.2768
-49.5813
-49.6987
-47.9176
-49.7892
-48.2768
-48.6735
-47.8082
-49.6582
-43.8382
-43.8613
-45.8862
-45.3697
-43.8391
-45.4144
-45.9003
-43.871
-47.5749
-41.8818
-38.7949
-51.3342
-33.5939
-32.8065
-32.6488
-34.4596
-33.5146
-34.4212
-32.6313
-32.7652
-47.507
-51.3246
-38.7733
-41.853
-39.9448
-39.6069
-36.8879
-37.5034
-39.9198
-37.4661
-36.8619
-39.5928
-35.4225
-32.922
-35.0494
-36.8202
-35.5459
-36.8902
-35.1128
-33.0327
-72.0303
-158.68
-126.733
-42.9399
-43.0525
-42.938
-118.734
-144.509
-105.486
-37.1346
-34.638
-36.1607
-157.009
-68.1347
-118.239
-43.0414
-42.9892
-42.9703
-145.711
-119.734
-105.448
-34.5152
-37.0406
-36.0479
-39.1483
-38.1466
-37.5371
-39.5969
-55.302
-39.0272
-30.7307
-40.4861
-47.1767
-47.2823
-52.6127
-59.9852
-46.4673
-47.4645
-46.8544
-48.5144
-38.9736
-39.5483
-38.1081
-37.2678
-52.1868
-41.8245
-40.4999
-37.0098
-47.2766
-60.0981
-47.3671
-52.6916
-46.3991
-48.4896
-47.4479
-46.8811
-106.639
-107.768
-127.467
79.1865
-135.473
-135.486
-111.639
-66.0018
-52.7683
-46.2047
-49.0733
-53.3586
-38.7135
-37.7483
-40.1619
-37.432
-42.2798
-42.2765
-43.2056
-40.6571
-44.8153
-44.6956
-45.7791
-45.2914
-200.827
-196.547
-118.296
23.7066
-44.3449
-36.184
-43.3949
-35.7555
-31.1883
-31.1315
-32.5037
-30.79
-38.4235
-41.6011
-40.5894
-38.4197
-104.39
-106.503
-125.449
79.8153
-52.4052
-52.3854
-50.7744
-54.5022
-38.7037
-37.7086
-40.1894
-37.3921
-43.233
-50.0013
-44.5266
-44.755
-44.6298
-36.421
-43.7725
-35.9018
-38.3217
-41.5016
-40.4861
-38.3702
-38.3003
-38.5324
-38.9931
-38.2196
-38.7121
-39.4597
-38.5411
-39.6499
-42.1341
-42.1429
-43.4787
-41.011
-41.8906
-42.4392
-42.3405
-42.2148
-42.1781
-42.1611
-41.9208
-47.5424
-54.3618
-52.9041
-52.0736
-55.3597
15.4108
15.3907
19.9411
5.99213
-56.7853
-56.7811
-59.3208
-54.2834
-38.3431
-38.6543
-39.0612
-38.3
-38.6321
-39.4299
-38.507
-39.5912
-42.5047
-42.7515
-42.7978
-42.5737
-54.3402
-52.9381
-51.9126
-55.4116
-56.0926
-50.8684
-49.9615
-45.6202
-57.0509
-51.8889
-50.7314
-46.376
-63.9673
-60.827
-60.9881
-58.6477
-28.1894
-21.7024
-21.7108
-15.255
201.24
202.041
200.556
201.294
-43.0146
-42.9022
-43.7861
-44.1232
-43.1121
-42.9455
-43.938
-44.2167
-38.6636
-38.6765
-38.7285
-38.6721
-83.2914
-89.1093
-79.3627
-83.2997
-47.6134
-46.4953
-47.0334
-45.2765
-46.9002
-45.7589
-46.4985
-44.3074
-46.2549
-46.7916
-46.7578
-47.4753
-32.9346
-34.1348
-34.1335
-35.6669
-35.7602
-36.3876
-34.8603
-35.7306
-75.0834
-91.1273
-117.124
71.1213
-162.462
-168.882
-129.494
-33.5568
-77.9497
-62.9773
-73.0469
-71.0781
-40.8055
-39.5451
-41.6609
-38.7462
-42.5194
-42.3465
-43.2407
-40.7432
-44.6646
-45.0704
-44.5413
-45.2905
-136.149
-112.96
-144.442
96.292
-195.978
-165.637
-114.902
-44.8807
-73.3869
-54.139
-65.8021
-60.549
-37.568
-37.714
-39.9766
-36.9651
-33.5684
-32.0681
-33.3004
-33.4085
-35.5105
-36.3972
-36.2077
-34.2272
-160.49
-168.536
-128.853
-32.3525
-72.0929
-88.2951
-112.377
71.9427
-80.7034
-64.8075
-76.3072
-72.2991
-42.5093
-42.3379
-43.2358
-40.7224
-40.8597
-39.5697
-41.8038
-38.7301
-44.655
-44.7798
-44.8308
-45.0767
-196.279
-166.74
-115.012
-40.5534
-141.097
-110.177
-144.04
96.4952
-73.6473
-54.4244
-66.2068
-60.7168
-33.4256
-31.9387
-33.2165
-33.2528
-37.496
-37.6603
-39.9431
-36.8896
-35.4225
-36.216
-36.1146
-34.1691
-41.3411
-43.1335
-38.0603
-45.5926
-38.2086
-38.1335
-38.0496
-38.248
-37.543
-38.0495
-37.6558
-37.9721
-40.9477
-41.8684
-42.653
-40.6075
-45.4175
-47.7752
-45.4485
-47.3061
-37.4779
-38.3105
-38.9341
-38.3259
-40.7938
-41.7144
-40.8516
-45.1035
-41.4866
-42.0137
-41.5651
-47.2362
-38.0026
-34.9789
-36.6557
-24.8662
-43.1082
-40.7159
-40.538
-42.9437
-55.0339
-55.1812
-52.3493
-59.389
-4.75953
11.4064
9.24378
-3.25101
-45.0712
-43.9109
-44.6752
-45.3137
-45.1201
-43.509
-44.2584
-44.1123
-50.4916
-51.3158
-50.2977
-52.1013
-54.4719
-55.6398
-56.7611
-52.9863
-40.9143
-43.4568
-37.8176
-45.6072
-40.6402
-41.8844
-42.5662
-40.7614
-38.0555
-38.1244
-37.9465
-38.2522
-37.3294
-37.9007
-37.4518
-37.7999
-40.2255
-45.0768
-41.9113
-44.7532
-41.4004
-41.93
-41.5685
-47.0368
-38.034
-38.5763
-39.358
-38.6314
-42.9297
-42.6271
-41.9755
-46.2229
-38.1295
-35.253
-36.8347
-25.0476
-4.7696
11.4413
9.35958
-3.10223
-43.1738
-40.7329
-40.5956
-42.9755
-55.1193
-55.2452
-52.415
-59.4834
-45.0157
-43.7756
-44.5684
-45.2436
-54.4489
-55.6312
-56.7508
-52.9675
-45.1386
-43.6158
-44.386
-44.066
-50.5562
-51.5679
-50.3582
-52.2142
-100.12
-72.1234
-82.6619
-82.1107
171.252
192.599
179.977
179.915
-82.5546
-72.6269
-77.933
-77.9958
142.164
188.808
158.297
158.444
-51.4481
-51.3299
-56.1435
-47.3143
-58.1247
-60.3707
-62.8372
-57.1502
-42.3197
-43.3152
-43.1269
-42.4637
-36.7691
-36.236
-37.0487
-35.9483
-44.7742
-45.7579
-45.3415
-45.3749
-38.5466
-37.3098
-38.0287
-38.0229
-46.3531
-46.8899
-43.8999
-48.9807
-46.3383
-46.7534
-47.4108
-46.0796
-66.493
-44.0022
-53.3225
-53.3474
169.719
191.93
181.228
181.278
-46.3288
-47.859
-42.9056
-53.9387
-29.0337
-24.4971
-32.6559
-21.1707
-32.4771
-32.313
-32.4299
-32.4133
-33.3163
-34.5255
-34.2548
-34.296
-43.0472
-46.4748
-42.9066
-45.7268
-35.5348
-34.6034
-36.6154
-34.0644
-100.847
-73.1197
-83.262
-82.917
171.386
192.752
180.061
180.224
-53.1097
-52.5483
-57.1694
-48.7408
-60.5894
-61.0134
-63.3525
-58.1975
-42.3657
-43.1479
-42.3834
-43.1691
-36.6932
-36.176
-37.0014
-35.869
-45.3618
-45.6171
-43.8017
-46.7091
-46.2206
-46.6341
-47.0514
-46.0265
-46.8736
-48.4354
-54.5581
-43.3862
-29.0913
-24.5122
-21.1936
-32.698
-42.7787
-46.0375
-45.5981
-42.5452
-35.5104
-34.5853
-34.0404
-36.6256
-40.9682
-42.0354
-40.6945
-41.8701
-38.4006
-38.6039
-38.5138
-38.575
-38.0949
-39.8324
-38.8382
-38.4386
-41.1708
-42.0615
-41.1882
-42.3234
-48.3069
-52.3992
-50.0036
-49.9536
-39.7146
-39.023
-39.2856
-39.2917
-42.6661
-43.3034
-42.53
-43.4103
-43.8077
-43.5074
-43.782
-43.4348
-39.1287
-38.9676
-39.1597
-39.1472
-48.8908
-48.0353
-48.4903
-48.3791
-47.857
-45.6988
-46.7598
-46.1003
-68.9101
-80.0954
-79.9536
-71.4129
9.92848
-2.20653
3.06997
3.03313
-37.6138
-89.3494
-69.5968
-69.6057
-64.7604
-70.8302
-67.0278
-67.0316
-48.8194
-43.0526
-46.1378
-46.132
-41.0286
-42.1222
-40.723
-42.0095
-38.4451
-38.6267
-38.5268
-38.6239
-38.1923
-40.2717
-38.6819
-39.0642
-41.1324
-42.0627
-41.1539
-42.3172
-43.0519
-43.581
-43.724
-42.8883
-43.2388
-42.7553
-42.6345
-42.9398
-47.7955
-45.7488
-46.1183
-46.7852
-68.9804
-80.1298
-71.4562
-80.0162
-94.1347
-78.9491
-81.6321
-70.5227
-37.9001
-37.8181
-40.6269
-38.6024
-37.8955
-38.6684
-38.7042
-38.2312
-81.0793
-69.3723
-79.9693
-70.4794
-98.1121
-80.3103
-82.6481
-72.0239
-81.4977
-69.9205
-80.6112
-71.1455
-38.1067
-38.8042
-39.0145
-38.4625
-37.9865
-37.7441
-41.3297
-38.7582
-85.205
-76.6223
-79.3741
-72.1308
-84.8571
-75.8609
-79.2998
-71.997
-48.165
-47.1854
-51.3951
-49.5548
-48.0881
-47.2113
-51.2155
-49.455
-69.0645
-60.2208
-56.103
-47.9685
-9.41934
0.467488
-9.95034
-0.780279
-9.45242
0.41369
-9.97171
-0.822664
-69.0809
-60.2617
-56.1243
-47.9972
121.686
89.0116
178.566
141.07
133.907
127.344
160.579
166.732
128.306
133.286
166.972
160.562
89.4444
121.294
141.3
178.697
-39.2585
-39.1742
-39.8619
-40.2175
-40.8656
-41.0346
-41.396
-41.7116
-44.9075
-46.9631
-44.6836
-46.0984
-44.8258
-47.1677
-44.1577
-45.6565
-39.1496
-39.0521
-39.8119
-40.1495
-44.8585
-47.2198
-44.1827
-45.7064
-45.1087
-47.2113
-44.9711
-46.5128
-41.3119
-41.6241
-41.7042
-42.1168
-38.7682
-39.3707
-38.7688
-39.1653
-39.3679
-38.7691
-39.1736
-38.7497
-39.1327
-38.948
-39.1347
-38.8653
-38.7749
-39.0428
-38.7835
-39.0818
-89.4269
-41.8932
-86.9691
-70.4314
-59.7438
-60.3623
-64.9668
-64.8592
-60.3783
-59.7839
-64.8742
-64.9975
-41.4435
-89.646
-70.4508
-87.0442
-45.4751
-43.3039
-44.3403
-44.3286
-43.3534
-43.8866
-43.5301
-44.5537
-41.1372
-39.7807
-41.7715
-41.5096
-43.9976
-43.7064
-43.301
-42.4607
-42.4852
-43.0692
-42.3294
-42.5046
-43.7589
-43.4443
-42.9536
-41.9903
-41.0428
-39.6575
-41.6315
-41.2916
-43.6311
-44.3529
-43.7434
-44.8988
-47.437
-48.5812
-47.8177
-48.293
-47.8178
-48.5148
-47.6966
-48.2464
-44.6622
-45.131
-45.2551
-45.5212
-44.6911
-45.2495
-45.322
-45.6092
-47.5333
-49.1067
-43.9162
-46.5078
-32.9683
-33.4418
-32.8161
-33.3124
-32.9129
-33.3911
-32.7797
-33.2728
-47.5082
-49.0831
-43.89
-46.4933
-38.1405
-38.6639
-37.6184
-38.1903
-38.6448
-38.1183
-38.1762
-37.592
-34.502
-35.8713
-34.613
-35.736
-35.9695
-34.6151
-35.8186
-34.7056
-114.543
65.6628
-130.338
12.6321
-103.724
-96.5573
-42.5871
-40.2422
-43.3006
-41.177
-44.2225
-43.7572
-144.155
85.2848
-114.464
9.17765
-97.347
-88.1999
-37.7455
-36.3477
-33.8574
-34.8193
-35.9613
-34.047
-130.234
5.44699
-107.242
70.7759
-96.952
-94.9008
-43.303
-41.1566
-42.7722
-40.2578
-44.4532
-43.7492
-114.526
9.53982
-144.039
85.7658
-97.4914
-88.2611
-33.7615
-34.6785
-37.6721
-36.2462
-35.8719
-33.9627
-38.0866
-42.3133
-37.4917
-38.6941
-37.2504
-37.367
-41.362
-39.6321
-49.9948
-49.8433
-39.2883
-39.2032
-39.6587
-48.8936
-41.0594
-47.7207
-41.4674
-35.7993
-42.9571
-46.8213
-50.7636
-59.763
-27.4771
-72.8623
-46.6871
-46.218
-46.4912
-45.9875
-48.0603
-49.3526
-51.0723
-48.5263
-37.8599
-42.2147
-41.2376
-39.7338
-37.3154
-38.6968
-36.976
-37.1555
-49.2682
-48.2341
-41.4117
-46.7728
-40.3082
-39.773
-41.2624
-47.5848
-41.5776
-35.8942
-27.5401
-72.6798
-43.0419
-46.8903
-50.8318
-59.9156
-46.5984
-46.2577
-51.099
-48.3932
-46.5233
-45.9061
-48.1027
-49.4059
-125.464
80.4437
-134.034
91.4176
-116.399
-112.609
145.579
149.369
-125.849
-61.9908
-125.663
-61.7294
-96.3376
-96.2722
41.7097
42.7801
-58.4972
-59.7115
-47.6503
-49.5312
-54.6885
-48.2876
-59.6243
-54.1136
-40.7526
-37.8101
-39.9226
-37.2268
-41.8867
-41.3556
-37.4527
-36.702
-43.2067
-40.6056
-43.2016
-40.5833
-43.8738
-43.8785
-39.8947
-39.8244
-47.5186
-45.4075
-42.1506
-47.5971
-41.2721
-52.1666
-49.1666
-45.474
-111.788
18.6191
-111.831
18.3609
-84.2403
-84.3044
145.925
145.863
-55.1003
-45.6884
-37.7728
-26.2777
-41.3453
-50.4564
-37.8679
-27.6785
-32.7595
-31.6773
-32.7066
-31.5559
-32.6765
-32.6535
-32.3474
-32.3997
-37.6135
-35.2332
-43.2716
-43.5949
-40.4593
-42.7353
-38.418
-35.1052
-121.775
80.7431
-133.057
91.6805
-114.989
-112.642
149.543
145.719
-60.7229
-60.0574
-49.9075
-50.6056
-54.3624
-49.9201
-59.8464
-55.6612
-40.8312
-37.7778
-39.8984
-37.1687
-41.3844
-41.9822
-37.4118
-36.6244
-46.5489
-45.0926
-44.7885
-50.5802
-43.2021
-47.3076
-46.8554
-45.6734
-55.5118
-45.9163
-38.0661
-26.353
-50.9436
-41.7466
-27.7621
-38.0673
-37.5228
-35.1899
-43.1027
-43.5413
-42.5878
-40.3044
-35.0822
-38.3887
-38.229
-38.1569
-39.4118
-38.3353
-39.2582
-40.5612
-38.2388
-38.3592
-38.0821
-38.8946
-39.2003
-40.7921
-38.0255
-38.3833
-39.8938
-40.9099
-43.3712
-40.9838
-43.3789
-41.0112
-45.685
-45.6722
-40.323
-40.3344
-41.8305
-42.3615
-43.0509
-43.1365
-42.1524
-42.8394
-43.0143
-42.8915
-41.8631
-47.282
-41.8452
-47.2419
-40.4285
-40.4273
-49.8802
-49.9375
-52.7926
-57.7591
-51.519
-54.8136
-50.2828
-49.9627
-62.4782
-59.7507
17.3628
5.02372
17.3371
5.01137
15.838
15.8074
-10.6745
-10.7091
-58.6073
-54.0649
-58.6051
-54.0547
-61.6549
-61.6552
-51.5229
-51.5185
-38.2055
-38.181
-39.5971
-38.5002
-39.2611
-40.666
-38.2753
-38.454
-37.9783
-38.7866
-39.2143
-40.778
-38.4207
-38.0051
-39.8224
-40.877
-42.5288
-43.6228
-43.3169
-43.1662
-43.2019
-42.6601
-43.8089
-42.6106
-52.8919
-57.8091
-52.0782
-54.9268
-49.9129
-49.504
-59.8179
-62.5427
-63.8802
-63.6882
-56.5937
-46.4449
-44.5388
-55.2653
-42.531
-41.7314
-65.0638
-64.6393
-57.7493
-47.3916
-56.055
-45.1177
-42.176
-42.7814
-67.999
-68.1726
-64.1881
-58.3693
-64.4399
-58.699
-55.6409
-55.5133
-36.3272
-36.3449
-29.694
-16.6727
-16.674
-29.7119
-9.3644