# vtk DataFile Version 2.0
tri_press
ASCII
DATASET UNSTRUCTURED_GRID
POINTS 3682 float
-0.894043 0.315 -2.235
-0.875 0.375 2.444
-0.875 0.595 -2.32452
-0.875 0.705 2.39892
0.894038 0.315 -2.235
0.875 0.375 2.444
0.875 0.595 -2.32452
0.875 0.705 2.39892
-0.883022 0.339673 -0.675333
-0.886737 0.349611 0.884334
-0.899713 0.656379 -0.75004
-0.894845 0.688179 0.82444
0.883023 0.339669 -0.675333
0.886736 0.34961 0.884334
0.899715 0.656382 -0.75004
0.894822 0.688155 0.82444
-1.78689 0.131721 -3.45232
-1.78383 0.161407 -2.19865
-1.77598 0.182707 -0.639371
-1.77167 0.191009 0.916931
-1.7632 0.209922 2.47596
-1.76105 0.229272 3.7284
-1.76204 0.249628 4.98311
-1.78558 0.28138 -3.49176
-1.78369 0.315054 -2.23647
-1.77718 0.34298 -0.674305
-1.77242 0.354401 0.886528
-1.75923 0.374343 2.44841
-1.75839 0.393646 3.70105
-1.76077 0.413754 4.95528
-1.778 0.575695 -3.57478
-1.77459 0.608603 -2.32011
-1.78643 0.659384 -0.747846
-1.77943 0.687748 0.825468
-1.76134 0.705961 2.39745
-1.75978 0.724383 3.64948
-1.76197 0.743917 4.90132
-1.77252 1.04637 -3.68819
-1.7721 1.08218 -2.43129
-1.77791 1.13345 -0.854227
-1.78044 1.17526 0.726033
-1.77621 1.20329 2.30295
-1.77218 1.22181 3.55951
-1.76987 1.24026 4.81297
-0.898029 0.131555 -3.45137
-0.894707 0.161972 -2.19726
-0.886564 0.181323 -0.639558
-0.886217 0.187506 0.915059
-0.881221 0.209035 2.47269
-0.879224 0.228492 3.72618
-0.879567 0.248767 4.98183
-0.897658 0.2796 -3.49146
-0.876805 0.393222 3.69922
-0.878545 0.413032 4.95431
-0.890447 0.569293 -3.57661
-0.877641 0.723817 3.64978
-0.879476 0.743355 4.90139
-0.882697 1.04198 -3.69
-0.880778 1.07805 -2.43329
-0.886745 1.13209 -0.85543
-0.892184 1.17579 0.726178
-0.891024 1.20375 2.30398
-0.887868 1.22191 3.56054
-0.885615 1.24018 4.81372
0.882822 0.131554 -3.45137
0.887841 0.161971 -2.19726
0.88481 0.18132 -0.639558
0.884949 0.187504 0.915059
0.877425 0.209034 2.47269
0.880215 0.228491 3.72618
0.8832 0.248765 4.98183
0.881501 0.279599 -3.49146
0.879741 0.39322 3.69922
0.883044 0.41303 4.95431
0.878763 0.569293 -3.57661
0.879537 0.723815 3.64978
0.882684 0.743352 4.90139
0.894105 1.04197 -3.69
0.897964 1.07805 -2.43329
0.896432 1.13209 -0.85543
0.887984 1.17578 0.726178
0.881287 1.20374 2.30398
0.880979 1.2219 3.56054
0.882653 1.24017 4.81372
1.77373 0.131718 -3.45232
1.77852 0.161404 -2.19865
1.77501 0.1827 -0.639371
1.77174 0.191001 0.916931
1.76278 0.209917 2.47596
1.76303 0.229268 3.7284
1.766 0.249622 4.98311
1.7732 0.281378 -3.49176
1.78179 0.315052 -2.23647
1.77741 0.342973 -0.674305
1.77357 0.354391 0.886528
1.76114 0.37434 2.44841
1.76184 0.393642 3.70106
1.76544 0.413749 4.95528
1.77059 0.575694 -3.57478
1.77553 0.608603 -2.32011
1.78783 0.659378 -0.747846
1.78024 0.687724 0.825468
1.76256 0.705954 2.39745
1.7621 0.724377 3.64948
1.76541 0.74391 4.90132
1.78271 1.04637 -3.68818
1.78657 1.08217 -2.43129
1.78659 1.13344 -0.854227
1.7783 1.17524 0.726033
1.76938 1.20327 2.30295
1.76709 1.2218 3.55951
1.76785 1.24025 4.81297
-0.890769 0.455 -2.28601
-2.5034e-06 0.248418 -2.30158
-0.899078 0.316791 -1.45517
-0.844108 0.54 2.39057
0 0.36879 2.45021
-0.893237 0.349937 1.66417
0 0.613285 -2.3428
-0.895921 0.634255 -1.53728
0 0.687882 2.3818
-0.899946 0.711613 1.61168
0.890766 0.455 -2.28601
0.899074 0.316791 -1.45517
0.843958 0.54 2.39042
0.893236 0.349937 1.66417
0.895921 0.634255 -1.53728
0.899946 0.711613 1.61168
-0.886916 0.342606 0.1045
-0.893413 0.498026 -0.712687
1.23628e-07 0.170607 -0.675333
-0.897752 0.518895 0.854387
-4.20734e-07 0.170626 0.884334
-0.893869 0.66887 0.0372
1.23806e-06 0.967837 -0.75004
-1.1703e-05 1.10012 0.82444
0.886915 0.342604 0.1045
0.893409 0.498026 -0.712687
0.897749 0.518883 0.854387
0.893901 0.668901 0.0372
-0.898111 0.476513 -1.49622
0.898111 0.476513 -1.49622
-1.18988e-06 0.170486 -1.45517
6.19032e-07 0.789019 -1.53728
-1.2517e-06 0.455 -2.42759
-0.898012 0.508461 0.07085
0.898009 0.508454 0.07085
-1.48553e-07 0.170615 0.1045
-5.23247e-06 1.11307 0.0372
-0.897976 0.529447 1.63792
0.897976 0.529441 1.63792
-2.10367e-07 0.170523 1.66417
-5.8515e-06 0.846077 1.61168
0 0.54 2.33218
-0.889515 0.385 -2.25761
-0.447023 0.263306 -2.28669
-0.898519 0.313937 -1.84508
-0.89246 0.4575 2.45019
-0.4375 0.375045 2.44395
-0.883708 0.362879 2.05408
-0.895611 0.525 -2.31799
-0.4375 0.609012 -2.33853
-0.894671 0.623838 -1.9309
-0.856602 0.6225 2.39179
-0.4375 0.704867 2.39879
-0.89909 0.719923 2.0053
0.447018 0.26331 -2.28669
0.889511 0.385 -2.25761
0.898508 0.313943 -1.84508
0.4375 0.375065 2.44393
0.89246 0.4575 2.45019
0.88372 0.362867 2.05408
0.4375 0.609013 -2.33853
0.8956 0.525 -2.31798
0.894662 0.623829 -1.9309
0.4375 0.704867 2.39879
0.856597 0.6225 2.39179
0.899089 0.719922 2.0053
-0.883205 0.336078 -1.06525
-0.884691 0.341417 -0.285417
-0.88813 0.418894 -0.69401
-0.482979 0.172204 -0.675333
-0.894264 0.345497 1.27425
-0.887779 0.345155 0.494417
-0.894147 0.433302 0.86936
-0.487301 0.172253 0.884334
-0.89972 0.64722 -1.14366
-0.896985 0.577414 -0.731364
-0.899803 0.665637 -0.35642
-0.515479 0.943354 -0.75004
-0.899941 0.702441 1.21806
-0.899892 0.605334 0.839414
-0.888705 0.672872 0.43082
-0.540465 1.08022 0.82444
0.883205 0.336073 -1.06525
0.482979 0.172204 -0.675333
0.884691 0.341414 -0.285417
0.888122 0.418895 -0.69401
0.894264 0.345496 1.27425
0.4873 0.172253 0.884334
0.887778 0.345154 0.494417
0.894141 0.433297 0.86936
0.899715 0.647215 -1.14366
0.515477 0.943346 -0.75004
0.896981 0.577413 -0.731364
0.899817 0.66565 -0.35642
0.899941 0.702441 1.21806
0.54045 1.08023 0.82444
0.899892 0.605322 0.839414
0.888704 0.672871 0.43082
-0.89745 0.465757 -1.89112
-0.445385 0.455 -2.38866
-1.84664e-06 0.17048 -1.87837
-1.87755e-06 0.351709 -2.3926
-0.899095 0.396652 -1.4757
-0.449539 0.170486 -1.45517
-0.895625 0.534724 2.01425
-0.422054 0.54 2.39151
-1.05184e-07 0.235868 2.05719
0 0.454395 2.45021
-0.898997 0.439692 1.65105
-0.446618 0.170523 1.66417
3.09516e-07 0.70763 -1.94004
-6.25849e-07 0.534142 -2.45154
-0.897069 0.555384 -1.51675
-0.44796 0.784291 -1.53728
-2.92575e-06 0.843837 1.99674
0 0.613941 2.39923
-0.896966 0.62053 1.6248
-0.449976 0.842382 1.61168
0.897449 0.465756 -1.89112
0.445383 0.455 -2.38866
0.899095 0.396652 -1.4757
0.449536 0.170486 -1.45517
0.895619 0.534721 2.01417
0.421979 0.54 2.39155
0.898997 0.439689 1.65105
0.446618 0.170523 1.66417
0.897069 0.555384 -1.51675
0.447961 0.784243 -1.53728
0.896966 0.620527 1.6248
0.44997 0.841217 1.61168
-0.89473 0.4244 0.087675
-0.48565 0.172226 0.1045
-0.89335 0.48727 -1.10446
-0.896182 0.503243 -0.320918
-5.33128e-07 0.170603 -1.06525
-1.24626e-08 0.170611 -0.285417
-0.898489 0.513678 0.462618
-0.897941 0.524171 1.24616
-2.84644e-07 0.17062 0.494417
-3.15551e-07 0.170518 1.27425
-0.899884 0.590637 0.054025
-0.547437 1.09197 0.0372
9.28548e-07 0.859242 -1.14366
-1.9972e-06 1.07028 -0.35642
-8.46773e-06 1.11305 0.43082
-8.77725e-06 0.847061 1.21806
0.894724 0.424398 0.087675
0.485649 0.172226 0.1045
0.893345 0.487269 -1.10446
0.896178 0.50324 -0.320918
0.898487 0.513668 0.462618
0.897941 0.524162 1.24616
0.899884 0.590642 0.054025
0.54744 1.09197 0.0372
-0.898529 0.390826 -1.8681
-0.888227 0.407751 -1.08485
-0.8969 0.566293 -1.12406
-0.896334 0.540192 -1.91101
0.898528 0.390826 -1.8681
0.896333 0.540192 -1.91101
0.896896 0.566294 -1.12406
0.888222 0.40775 -1.08485
-0.448281 0.17048 -1.86173
0.448277 0.17048 -1.86173
0.445524 0.170603 -1.06525
-0.445525 0.170603 -1.06525
-0.44273 0.703519 -1.93547
-0.448908 0.849772 -1.14366
0.44891 0.84979 -1.14366
0.442731 0.703519 -1.93547
-0.446204 0.368355 -2.35912
-0.441443 0.529571 -2.41604
0.441441 0.529571 -2.41616
0.4462 0.368355 -2.35917
-0.890941 0.421891 -0.303168
-0.895483 0.428328 0.478518
-0.899879 0.59798 0.446719
-0.899037 0.584327 -0.338669
0.890938 0.421889 -0.303168
0.899036 0.584329 -0.338669
0.899878 0.597977 0.446719
0.895478 0.428325 0.478518
-0.484315 0.172215 -0.285417
0.484314 0.172215 -0.285417
0.486477 0.172235 0.494417
-0.486478 0.172235 0.494417
-0.541796 1.03834 -0.35642
-0.546911 1.09201 0.43082
0.546903 1.09202 0.43082
0.541795 1.03833 -0.35642
-0.89898 0.436973 1.2602
-0.889859 0.448596 2.03416
-0.898795 0.621515 2.00977
-0.896915 0.612033 1.23211
0.89898 0.436968 1.2602
0.896915 0.612023 1.23211
0.898793 0.621514 2.00974
0.889858 0.448594 2.03413
-0.444993 0.170518 1.27425
0.444993 0.170518 1.27425
0.442059 0.235213 2.05564
-0.442059 0.235212 2.05564
-0.448702 0.843593 1.21806
-0.443738 0.842542 2.00102
0.443735 0.84152 2.00102
0.448688 0.842432 1.21806
-0.429777 0.455948 2.45021
0.42974 0.455948 2.45021
0.42974 0.61822 2.39196
-0.429777 0.61822 2.39196
-0.892101 0.35 -2.24663
-0.670533 0.286056 -2.26394
-0.891222 0.319528 -2.04004
-0.886934 0.41625 2.4503
-0.65625 0.375056 2.44394
-0.881461 0.366833 2.24904
-0.884829 0.56 -2.32078
-0.65625 0.606552 -2.33607
-0.883976 0.608559 -2.12771
-0.861907 0.66375 2.39146
-0.65625 0.704866 2.39879
-0.895015 0.720432 2.20211
0.670528 0.286036 -2.26396
0.892166 0.35 -2.2467
0.891205 0.31954 -2.04004
0.65625 0.375097 2.4439
0.886936 0.41625 2.4503
0.881477 0.366817 2.24904
0.65625 0.606532 -2.33605
0.885273 0.56 -2.32122
0.883947 0.608531 -2.12771
0.65625 0.704866 2.39879
0.861896 0.66375 2.39145
0.895183 0.720599 2.20211
-0.882889 0.3381 -0.870292
-0.883859 0.340543 -0.480375
-0.885548 0.379297 -0.684672
-0.724492 0.172955 -0.675333
-0.894785 0.343269 1.07929
-0.887543 0.347099 0.689375
-0.890427 0.391464 0.876847
-0.730977 0.173016 0.884334
-0.899484 0.651567 -0.94685
-0.898357 0.616901 -0.740702
-0.899894 0.661144 -0.55323
-0.738267 0.86121 -0.75004
-0.897828 0.695745 1.02125
-0.899692 0.647918 0.831927
-0.890843 0.679593 0.62763
-0.717608 0.884106 0.82444
0.88289 0.338096 -0.870292
0.724491 0.172955 -0.675333
0.88386 0.340539 -0.480375
0.885548 0.379294 -0.684672
0.894785 0.343268 1.07929
0.730976 0.173016 0.884334
0.887541 0.347098 0.689375
0.890422 0.391462 0.876847
0.899483 0.651566 -0.94685
0.738277 0.861226 -0.75004
0.898355 0.616901 -0.740702
0.899894 0.661144 -0.55323
0.897826 0.695742 1.02125
0.717602 0.884123 0.82444
[...]
POINT_DATA 3682
SCALARS point_scalars float 1
LOOKUP_TABLE default
-77.4915
-38.2904
-57.0151
-36.9623
-76.934
-38.3313
-57.0327
-37.1575
-31.0929
-29.2946
-38.5744
-30.4283
-31.0933
-29.2977
-38.5956
-30.4323
-95.4418
-137.583
-30.9952
-27.3284
-39.2434
-37.494
-37.494
-95.4418
-93.2704
-31.0541
-30.1731
-38.1267
-37.494
-37.494
57.4383
-95.4418
-37.2104
-30.4161
-40.6671
-33.3713
-33.3713
-36.0294
-125.039
-48.4659
-30.3504
-37.3149
-35.8559
-35.8559
176.503
-151.98
-30.7777
-29.0189
-35.7243
-32.0259
-32.0259
176.503
-32.2501
-32.0259
187.971
-32.2613
-32.1961
77.3923
-94.5246
-46.2651
-41.564
-37.4812
-34.8788
-34.8788
176.916
-153.577
-30.7767
-29.0673
-35.5996
-32.0353
-32.0353
176.37
-32.5568
-32.0353
187.912
-32.6494
-32.1304
77.0406
-93.1872
-46.2338
-41.6899
-37.437
-35.1962
-35.1962
-95.8459
-136.249
-30.9957
-27.3377
-39.3347
-37.4557
-37.4557
-95.8459
-92.5319
-31.0543
-30.1771
-38.0481
-37.4557
-37.4557
57.9115
-95.8459
-37.2292
-30.421
-40.6633
-34.3884
-33.7913
-35.7271
-124.478
-48.5088
-30.3622
-37.3024
-35.8587
-35.8587
-70.0429
-64.7089
-38.6641
-34.4958
-26.1527
-34.5407
-44.162
-37.4216
-27.1433
-34.0624
-71.0055
-38.6608
-34.4983
-34.5453
-37.4955
-34.0555
-29.4068
-32.5245
-33.6858
-30.512
-32.0384
-35.1776
-23.6517
-58.5178
-29.4096
-32.5309
-30.5188
-35.1849
-36.4867
-36.4737
-52.6037
-19.294
198.52
-30.9958
-31.0012
-30.3926
-69.2298
-33.3213
-33.318
-38.0322
-38.4389
-24.9663
-89.13
-42.5166
-57.7903
-36.5298
-28.0228
-35.2021
-49.7053
-61.7291
-51.8418
-35.0012
-27.8693
-34.7696
-43.8104
-87.4246
-57.7837
-28.0259
-36.6389
-35.2064
-61.6331
-50.2896
-51.8706
-27.8822
-34.9997
-34.7504
-28.5276
-29.7698
-31.3553
-32.9911
-33.2737
-29.2731
-30.1842
-31.4246
-34.1636
-34.6982
-37.071
-29.3827
-38.0861
-30.5491
-32.64
-54.3138
-28.5156
-33.0027
-29.7717
-31.3576
-33.2757
-31.4254
-29.2767
-30.189
-34.2011
-29.4093
-34.7115
-37.0697
-38.0934
-54.2977
-30.5549
-32.6452
-55.2305
185.458
-83.6568
135.425
-36.8073
-50.5005
-32.7805
-26.3912
-36.2809
-23.6556
-33.7111
-38.0983
-18.4389
176.351
-37.1527
-22.3988
-31.8489
-24.8683
-33.1081
-38.7672
-55.1487
185.399
-36.7919
-50.5294
-32.7769
-26.391
-33.7145
-38.1046
-37.1619
-22.4115
-33.1054
-38.7746
-30.0513
-30.0282
-32.2117
-31.7785
-39.6921
-31.1658
-30.053
-33.6352
-30.7312
-34.3819
-32.3491
-58.1376
-11.2477
-54.3986
-58.9712
-47.0352
-30.0549
-30.0305
-32.1842
-31.7799
-30.0588
-33.6333
-32.3587
-58.1406
-55.9193
-30.5561
-33.48
-55.3508
-55.8676
-55.1775
-33.4742
-30.5308
-81.7466
-81.7856
-37.8273
-38.0204
-23.3214
-17.8227
-17.8266
-23.3458
138.842
172.187
169.916
138.927
-30.5126
-29.6088
-30.7661
-33.5012
-30.5132
-33.5025
-30.7739
-29.6129
-30.7314
-30.7362
-30.3138
-30.3127
-50.0725
-49.599
-49.6032
-50.0177
-33.278
-33.0259
-33.0448
-34.6862
-33.2779
-34.6599
-33.0362
-33.0256
-34.1682
-34.1699
-37.34
-37.3692
-47.2026
-32.6506
-32.6347
-47.2194
-26.5341
-26.5364
-26.7793
-26.7741
-84.7746
6.84867
-81.1718
-38.1242
-29.879
-34.4269
-40.0584
-42.2346
-65.0194
-36.0177
-29.1793
-37.584
6.89678
-84.6533
-81.0893
-29.8799
-38.1016
-34.4389
-42.8753
-39.7878
-65.0571
-29.1933
-36.0201
-37.6681
-29.2073
-30.1519
-31.0062
-31.9668
-35.4848
-29.4042
-29.9432
-30.8191
-36.9571
-36.252
-37.4256
-47.4433
-32.8679
-30.4523
-31.7296
-33.415
-29.2047
-31.965
-30.152
-31.007
-35.483
-30.8214
-29.408
-29.9465
-36.9923
-47.4755
-36.269
-37.4317
-32.8759
-33.4452
-30.4574
-31.7845
-69.4008
-76.713
-83.2558
154.811
-60.8882
-60.9096
-106.987
39.6284
-44.8466
-37.7255
-37.4986
-47.4266
-35.2248
-34.5614
-34.5136
-27.7573
-27.0046
-27.0241
-30.6859
-24.2007
-34.5239
-32.743
-33.9011
-38.7884
-50.8658
-52.5786
-19.3686
92.7582
-42.3535
-35.2863
-37.6924
-26.0361
-27.2319
-27.2172
-29.7816
-25.6566
-34.213
-35.9049
-33.0815
-40.4334
-61.8644
-77.1613
-83.0292
154.848
-44.8557
-37.7194
-37.4878
-47.4638
-35.1851
-34.5598
-34.5123
-27.7578
-34.5291
-32.7473
-33.9051
-38.794
-42.3698
-34.8709
-37.73
-26.0886
-34.2114
-35.9107
-33.0824
-40.4364
-29.5824
-29.3082
-29.7165
-29.6445
-31.8791
-33.4931
-31.972
-32.0793
-33.4859
-33.4872
-35.9676
-32.0974
-30.346
-30.5849
-29.9022
-32.579
-31.9092
-31.9094
-31.264
-33.0592
-36.2501
-33.9985
-33.3817
-42.356
-24.6475
-24.6853
-15.2263
-35.2337
-58.346
-58.3524
-58.919
-48.4941
-29.5832
-29.3113
-29.7194
-29.646
-31.8834
-33.5028
-31.9798
-32.0822
-30.3522
-30.5914
-29.908
-32.5663
-36.2474
-34.0075
-33.3926
-42.3664
-42.0553
-36.6219
-36.5526
-34.578
-42.0552
-36.6049
-36.547
-34.5249
-63.9577
-52.1188
-52.1067
-45.128
-19.157
-19.996
-20.0145
-15.1433
198.688
177.76
205.735
199.911
-30.5073
-31.4546
-30.4696
-31.6055
-30.5118
-31.4573
-30.4751
-31.613
-30.2984
-30.5856
-30.4172
-30.2992
-67.4431
-65.0769
-62.3335
-67.4102
-33.2465
-33.4754
-33.3391
-33.2563
-33.2527
-33.4779
-33.3333
-33.2596
-41.7698
-38.0899
-38.0936
-35.9884
-34.739
-38.2631
-38.2649
-42.9069
-25.4246
-25.4876
-24.9084
-25.4734
-83.2336
122.623
-111.203
67.4379
-56.6291
-78.4943
-33.6931
-28.0651
-31.6692
-26.9754
-33.8456
-39.4965
-77.4038
171.071
-26.753
99.1837
-55.5861
-31.1993
-35.1993
-27.9742
-31.3298
-27.1591
-33.2832
-35.6564
-111.235
67.9232
-83.0556
122.646
-56.6009
-78.593
-31.6721
-26.9788
-33.693
-28.0654
-33.8468
-39.668
-26.7926
95.7988
-77.4286
171.189
-55.485
-31.2341
-31.3335
-27.164
-35.2036
-27.9721
-33.2691
-35.6544
-29.6524
-34.816
-30.1133
-30.3712
-30.5823
-30.9012
-35.1068
-31.5191
-33.1351
-33.9719
-29.4472
-29.8033
-29.6842
-32.4365
-30.7838
-32.8483
-34.2027
-26.7793
-34.2023
-33.9312
-34.7867
-46.753
-21.6954
-38.6867
-35.9182
-50.7673
-30.1498
-33.1554
-31.2376
-38.8238
-50.2814
-49.9148
-29.6251
-34.563
-35.1302
-31.5262
-30.1139
-30.3732
-30.5827
-30.9019
-33.1358
-33.9737
-30.7846
-32.8495
-29.451
-29.8045
-29.6889
-32.4285
-34.2218
-26.7504
-21.7132
-38.6997
-34.2215
-33.9362
-34.787
-46.7045
-35.8758
-50.7744
-50.2857
-50.0195
-30.1581
-33.1876
-31.2459
-38.831
-55.597
-54.6401
166.962
195.807
-83.3338
-83.555
144.029
144.241
-42.6708
-35.1706
-61.5367
-43.2161
-32.8353
-32.9862
-26.8937
-26.5554
-36.5051
-36.4689
-25.2139
-25.2175
-32.9401
-33.8116
-35.8185
-42.0491
-19.5741
-19.6607
178.439
180.282
-34.9313
-42.2978
-22.4709
-20.514
-31.8661
-31.8635
-25.4553
-25.4516
-32.938
-33.807
-42.9696
-35.1244
-55.7505
-54.4901
195.754
166.96
-42.6663
-35.1446
-61.5585
-43.2961
-32.981
-32.8328
-26.8953
-26.5591
-32.9431
-33.8152
-35.8216
-42.0791
-42.3156
-34.7801
-20.4897
-22.4913
-33.8118
-32.9395
-35.1266
-42.968
-30.3247
-29.8202
-30.2094
-30.0411
-31.5512
-32.6729
-31.0872
-32.5824
-39.3233
-39.3482
-31.0549
-31.0562
-29.7973
-30.3456
-33.3964
-34.0283
-30.6243
-30.6241
-34.3202
-34.3212
-31.5364
-32.9576
-58.3858
-51.9879
-12.9153
-12.9568
-52.3323
-52.2795
-57.0267
-57.0215
-47.0075
-47.0044
-30.3266
-29.8239
-30.2126
-30.0426
-32.647
-31.5351
-31.088
-32.5839
-30.3525
-29.8022
-33.3953
-34.0256
-32.9608
-31.5444
-51.9913
-58.3784
-82.2576
-43.6345
-42.472
-84.0215
-30.0137
-31.1979
-34.7866
-36.2007
-35.6457
-35.3505
-34.6178
-32.935
-72.7489
-80.6256
-41.9754
-42.6658
-82.1399
-83.7933
-42.467
-43.6369
-72.7733
-42.6885
-41.9852
-80.5514
-35.6727
-32.9483
-34.5402
-34.9912
-30.012
-36.1884
-34.7448
-31.2014
-109.726
-104.914
-63.403
-57.3921
-109.728
-57.4081
-63.374
-104.499
-35.7331
-35.827
-44.6673
-40.9188
-35.7581
-40.8137
-44.6919
-35.8332
-39.1879
-27.4559
-19.9486
-20.8727
-42.8839
-16.6
-16.3989
-26.6614
-42.908
-26.6215
-16.4107
-16.6255
-39.2022
-21.1645
-19.9886
-27.489
81.9279
144.233
177.622
55.5608
105.201
95.7164
202.925
174.224
105.082
174.137
203.499
100.148
81.9516
55.8815
177.949
144.201
-30.4424
-29.8812
-30.864
-31.4528
-29.546
-29.8134
-30.15
-29.5126
-30.3502
-32.3109
-30.9453
-30.0496
-35.1006
-32.9155
-32.1438
-34.133
-30.4426
-31.4545
-30.8663
-29.8827
-35.1064
-34.1322
-32.1469
-32.9196
-30.3613
-30.0563
-30.952
-32.32
-29.5502
-29.5159
-30.1546
-29.8186
-31.1765
-31.9501
-30.4967
-29.843
-31.178
-29.8447
-30.493
-31.952
-30.2127
-31.1346
-30.3269
-29.5982
-30.2116
-29.597
-30.3266
-31.1344
-48.0115
-44.3031
-63.3541
-35.1104
-37.3643
-57.5415
-60.2162
-40.4054
-37.3794
-40.4134
-60.2062
-57.5375
-48.0075
-35.1173
-63.4272
-44.3165
-32.7256
-32.7486
-33.0919
-32.4809
-33.6582
-34.2466
-33.5966
-34.0995
-35.5601
-33.0877
-33.0267
-34.9922
-33.2871
-32.9163
-33.5225
-34.3193
-32.7224
-32.4658
-33.0948
-32.7516
-33.3237
-34.3243
-33.5267
-32.9052
-35.5802
-34.996
-33.0347
-33.087
-33.6663
-34.1038
-33.5994
-34.2428
-32.2322
-32.9883
-35.9586
-35.2635
-32.2339
-35.2668
-35.9605
-32.9888
-32.8117
-30.9672
-41.9514
-37.485
-32.8106
-37.5
-41.9502
-30.9653
-43.0754
-45.1276
-42.7906
-48.9455
-33.8629
-30.2422
-34.6096
-37.9929
-33.8613
-37.9929
-34.6088
-30.236
-42.9027
-48.9279
-42.7918
-45.1229
-28.8731
-25.4843
-25.8938
-27.8818
-28.8736
-27.8827
-25.9089
-25.4948
-28.32
-26.2466
-25.4009
-27.8195
-28.3181
-27.819
-25.3876
-26.2457
-72.3371
1.31442
-133.46
-38.4871
-32.2186
-33.9227
-55.2742
-4.48794
-105.565
-36.4541
-30.9745
-38.8222
4.42432
-72.1488
-133.402
-32.2195
-38.501
-33.9326
-4.91743
-54.502
-105.775
-31.0238
-36.5082
-38.8327
-31.444
-30.2917
-31.0322
-30.0232
-29.8756
-29.4554
-29.6689
-30.9249
-39.1373
-37.1118
-36.9295
-46.6711
-30.9403
-30.4404
-29.9716
-30.8339
-31.4434
-30.0239
-30.2918
-31.0327
-29.877
-30.9294
-29.4589
-29.6718
-39.1673
-46.6926
-37.1307
-36.9421
-30.948
-30.8312
-30.445
-29.9877
-65.1193
-71.9795
-121.151
108.199
-63.6453
-63.5683
-111.111
-6.67753
-41.1599
-37.1889
-37.9441
-45.4375
-32.8066
-34.8757
-38.9266
-28.7455
-26.4399
-26.4929
-28.8538
-24.8725
-36.4996
-33.432
-34.1475
-38.0844
-44.6659
-46.3797
-23.8365
-4.56067
-40.2212
-36.626
-37.4909
-32.5757
-27.1356
-27.1307
-28.4235
-26.4431
-34.2607
-34.3541
-33.337
-38.1177
-66.7147
-72.8688
-120.797
108.758
-41.1646
-37.177
-37.9364
-45.325
-32.8357
-34.8753
-38.9198
-28.742
-36.505
-33.4371
-34.1518
-38.0875
-40.2659
-36.8
-37.5477
-32.7692
-34.2572
-34.3618
-33.3336
-38.1256
-29.5633
-29.364
-29.5231
-29.1434
-32.2018
-32.9522
-32.4109
-32.299
-33.6363
-33.6351
-34.743
-32.8234
-30.4391
-30.5382
-30.0495
-31.2925
-32.0019
-32.0019
-31.6279
-32.4958
-35.379
-34.5175
-34.2122
-38.7413
-23.9323
-23.9529
-18.9832
-28.8228
-58.3692
-58.3621
-59.2213
-56.0995
-29.566
-29.3674
-29.5259
-29.1468
-32.2071
-32.9602
-32.4193
-32.3036
-30.4457
-30.5447
-30.0551
-31.3108
-35.3825
-34.5173
-34.2224
-38.764
-38.734
-36.569
-36.4922
-35.1985
-38.7371
-36.5538
-36.4822
-35.1518
-58.0007
-52.4893
-52.4704
-48.2433
-19.3654
-19.4468
-19.4577
-18.1143
196.669
188.708
207.239
199.054
-30.7473
-31.2339
-30.7328
-31.2885
-30.7523
-31.2386
-30.7383
-31.2949
-30.3643
-30.4485
-30.377
-30.3644
-68.8085
-70.9975
-65.329
-68.7999
-33.7792
-33.4032
-33.2816
-33.1914
-33.7913
-33.4051
-33.2748
-33.1929
-39.4713
-38.1401
-38.1422
-36.9329
-36.4275
-38.3709
-38.3721
-40.6072
-25.1429
-25.1042
-24.9291
-25.1286
-85.8294
-74.3315
-131.103
102.613
-12.6823
-59.5756
-110.018
20.6427
-67.5519
-50.2922
-57.1389
-71.5749
-37.8947
-36.1641
-34.8608
-29.5598
-28.7851
-27.3958
-29.8625
-27.481
-33.5819
-33.9312
-34.2042
-41.3002
-44.249
-72.5544
-117.961
147.931
-75.408
-51.7396
-30.8085
19.8228
-56.7979
-48.6498
-53.7401
-40.354
-35.4706
-34.5242
-40.3067
-29.0762
-28.4484
-27.5377
-29.8748
-27.4918
-35.6338
-34.1063
-33.8474
-38.516
-13.0631
-59.289
-110.013
21.8678
-88.65
-77.1277
-130.339
102.966
-67.5179
-50.2982
-57.1229
-71.5021
-28.7873
-27.3988
-29.8656
-27.484
-37.834
-36.1076
-34.8287
-29.5671
-33.5835
-33.9352
-34.2065
-41.5873
-75.3745
-52.2736
-30.8907
22.172
-44.5285
-72.905
-118.111
147.927
-56.8982
-48.599
-53.7139
-40.3944
-28.4685
-27.5472
-29.8766
-27.4995
-35.4714
-34.5211
-40.3044
-29.0765
-35.4182
-34.1015
-33.8339
-38.5043
-28.8349
-33.1013
-29.0556
-26.9306
-30.0276
-29.7265
-29.8925
-29.7536
-31.1309
-31.5798
-31.2246
-31.0562
-32.6454
-33.2626
-34.0712
-32.1132
-34.459
-32.3542
-33.1708
-33.9571
-29.3113
-29.3115
-29.3237
-29.1711
-30.0436
-30.3063
-29.8558
-30.4437
-31.1111
-31.7615
-31.1018
-32.0946
-34.951
-34.9805
-34.2919
-30.7183
-35.4207
-34.0578
-34.8357
-34.2899
-36.2558
-36.0837
-35.7221
-43.3352
-37.1542
-26.0876
-25.2411
-32.9695
-36.8028
-36.971
-36.9692
-47.1054
-30.49
-30.609
-30.0473
-31.5971
-31.9312
-32.9843
-31.8888
-35.2589
-40.4975
-57.9399
-51.7745
-59.8022
-28.8296
-32.9665
-29.0363
-26.8803
-32.6523
-33.2697
-34.0865
-32.1222
-30.0286
-29.7271
-29.8936
-29.7563
-31.1322
-31.5831
-31.2263
-31.0574
-34.4587
-32.358
-33.1721
-33.9423
-31.1122
-31.762
-31.1027
-32.0955
-29.3149
-29.3149
-29.3274
-29.1744
-30.0477
-30.3117
-29.8601
-30.4455
-34.9901
-34.6532
-34.3244
-30.668
-37.1999
-26.0975
-25.2606
-32.9977
-35.4358
-34.0692
-34.8533
-34.2985
-36.2551
-36.0852
-35.7218
-43.3136
-36.7571
-36.99
-36.9557
-47.1015
-40.4965
-57.9412
-51.7759
-59.8135
-30.4957
-30.6152
-30.0562
-31.6039
-31.9414
-32.9713
-31.8956
-35.3357
-66.099
-47.4974
-55.6326
-54.8639
171.122
193.273
176.301
194.682
-94.3366
-72.5687
-83.0491
-83.6777
85.3484
158.931
140.692
140.76
-37.0222
-36.7301
-39.0898
-35.4603
-49.1963
-51.4609
-55.8233
-46.2003
-33.3434
-32.6396
-32.8364
-32.8586
-27.1187
-25.9409
-26.5613
-26.4224
-33.0569
-40.1612
-36.2359
-36.3679
-23.7407
-24.1446
-24.3629
-24.371
-33.8002
-33.6135
-33.2103
-34.9482
-38.531
-38.1569
-36.8619
-39.5733
-18.4814
-19.0566
-18.7202
-18.7844
139.894
199.791
177.809
179.912
-37.6172
-36.7648
-35.7365
-39.148
-23.7876
-21.0833
-22.4431
-22.4209
-30.6888
-33.1615
-31.8267
-31.8258
-25.0803
-24.9735
-25.0563
-25.0567
-33.0799
-33.1778
-33.0781
-33.324
-39.2305
-38.3641
-40.9357
-36.8246
-65.9251
-47.4769
-55.5629
-54.7513
170.958
193.425
194.659
176.254
-37.0082
-36.714
-39.085
-35.4311
-49.2065
-51.4679
-55.4066
-46.2449
-33.3407
-32.638
-32.8541
-32.8339
-27.1206
-25.9714
-26.5637
-26.424
-33.804
-33.6165
-33.2131
-34.9534
-38.5377
-38.1621
-36.8663
-39.5826
-37.6333
-36.7662
-39.1675
-35.6481
-23.7996
-21.1107
-22.3778
-22.4666
-33.0828
-33.1708
-33.3338
-33.0795
-39.2223
-38.359
-36.8287
-40.9359
-29.8547
-30.3223
-30.2214
-29.9585
-29.8429
-30.1837
-30.0858
-30.0104
-31.5791
-33.5256
-31.8705
-32.3685
-31.8774
-31.6212
-31.4372
-32.1643
-37.6649
-42.0995
-39.5932
-39.6073
-31.5731
-30.8384
-31.138
-31.138
-29.9357
-30.2394
-29.9136
-30.181
-33.5227
-33.4673
-33.5091
-33.7809
-30.9307
-30.5313
-30.7033
-30.7034
-33.673
-35.1419
-34.3086
-34.3091
-32.8484
-31.9144
-31.9075
-32.6206
-48.8814
-63.7191
-59.3258
-54.332
-12.2762
-13.3314
-11.6378
-11.6652
-44.8311
-61.5111
-53.9126
-53.9885
-58.4891
-60.2937
-58.4989
-58.4959
-48.4148
-45.0899
-46.9841
-46.9826
-29.8579
-30.3265
-30.2246
-29.9624
-29.8449
-30.1854
-30.0884
-30.0123
-31.5825
-33.4726
-32.3395
-31.8473
-31.8788
-31.6232
-31.4383
-32.1658
-29.9417
-30.245
-30.1872
-29.9189
-33.4949
-33.4702
-33.5074
-33.7785
-32.8586
-31.9229
-32.629
-31.9157
-48.8925
-63.6935
-54.3356
-59.3249
-66.2427
-56.0751
-55.8987
-48.2042
-30.0981
-29.9826
-33.3079
-31.0731
-33.9576
-33.3989
-34.2892
-33.0428
-64.5483
-55.9608
-54.7532
-47.005
-66.1448
-56.0342
-55.839
-48.185
-64.5062
-55.8315
-54.5407
-46.9123
-33.9643
-33.4147
-34.2577
-33.023
-30.0686
-29.9781
-33.2772
-31.0515
-96.9955
-81.6711
-83.376
-69.6315
-97.0281
-81.6916
-83.4559
-69.6599
-36.2235
-36.5179
-39.9066
-38.7932
-36.77
-36.4722
-40.1433
-38.8363
-24.1618
-26.337
-21.0831
-22.6721
-22.0328
-18.6598
-19.3062
-14.8502
-22.0451
-18.6679
-19.3172
-14.8932
-24.1984
-26.3614
-21.1418
-22.7002
135.084
110.61
157.907
139.29
175.959
144.685
196.756
176.745
139.956
175.784
177.164
196.696
110.685
135.205
142.942
157.971
-30.2713
-30.6688
-30.441
-30.7931
-29.4975
-29.6135
-29.7154
-29.7488
-30.4094
-30.9906
-30.5116
-31.0011
-33.6641
-34.096
-33.0041
-33.2614
-30.2719
-30.6694
-30.4423
-30.7938
-33.6661
-34.0968
-33.0057
-33.2643
-30.4178
-30.9987
-30.5192
-31.009
-29.5014
-29.6179
-29.7197
-29.7534
-30.534
-31.0838
-30.4355
-30.9148
-31.0896
-30.5378
-30.9184
-30.4393
-30.5293
-30.0939
-30.4904
-30.145
-30.0902
-30.5283
-30.1437
-30.4896
-55.0621
-43.089
-52.9913
-49.596
-43.6474
-49.5616
-50.4907
-54.0574
-49.5658
-43.6509
-54.0559
-50.4929
-43.0946
-54.3126
-49.5563
-52.987
-33.1981
-33.5825
-32.9671
-33.338
-33.2326
-33.3473
-32.9087
-32.7353
-33.7284
-33.1674
-32.9658
-32.8466
-35.129
-34.4312
-34.2809
-34.2914
-33.1984
-33.5792
-32.969
-33.3374
-35.0811
-34.3941
-34.2872
-34.2863
-33.744
-33.1562
-32.9589
-32.8416
-33.2358
-33.3473
-32.9072
-32.7356
-34.043
-33.4708
-34.9468
-34.221
-34.0448
-33.4722
-34.949
-34.2223
-34.0608
-38.0863
-36.9522
-41.0216
-34.0564
-38.1835
-36.8336
-41.0121
-48.7721
-49.3629
-45.2679
-47.1793
-31.8113
-33.3551
-32.088
-33.6962
-31.7951
-33.347
-32.0829
-33.6939
-48.7819
-49.3353
-45.2608
-47.1727
-27.2885
-26.6346
-26.5414
-25.7368
-26.6383
-27.2903
-25.7514
-26.5422
-26.957
-27.3719
-26.2149
-26.69
-27.3701
-26.9523
-26.6843
-26.223
-125.74
68.2848
-101.793
47.9308
-81.5427
-103.328
-33.7373
-31.1774
-31.2758
-29.355
-33.8673
-34.4484
-112.535
105.593
-39.2799
64.1278
-69.5408
-49.6103
-39.8349
-29.743
-32.1413
-28.6851
-36.3244
-38.0133
-102.014
48.0021
-125.396
67.5302
-81.4423
-103.329
-31.2789
-29.3554
-33.7456
-31.1829
-33.8781
-34.4474
-39.2463
64.1551
-112.933
105.227
-69.5616
-49.6182
-32.1413
-28.6923
-39.837
-29.764
-36.4341
-38.0166
-29.5198
-28.8151
-30.2657
-30.4548
-31.0874
-30.5992
-32.7058
-31.8393
-33.5385
-41.4588
-29.4584
-29.4147
-29.6775
-30.2019
-30.5559
-30.6019
-36.3441
-38.4481
-36.6945
-35.5437
-35.9387
-45.1012
-46.6099
-49.9874
-33.0857
-33.9854
-29.8662
-31.3533
-31.039
-34.21
-35.9796
-28.1453
-29.5177
-28.8123
-32.6977
-31.8398
-30.2658
-30.4569
-31.0876
-30.5994
-33.5363
-41.452
-30.5575
-30.6052
-29.4624
-29.4175
-29.6812
-30.2023
-36.375
-38.4877
-46.6346
-50.0023
-36.7176
-35.5538
-35.9452
-45.1395
-33.1076
-33.9893
-35.9993
-28.1754
-29.8772
-31.36
-31.0716
-34.2294
-125.781
107.244
-120.959
143.369
-84.1324
-81.9545
149.45
166.196
-106.894
1.18604
-106.642
1.48076
-106.27
-105.151
46.2985
46.4741
-44.1544
-53.2923
-37.1798
-44.4603
-39.4383
-35.816
-51.6935
-43.916
-37.5172
-29.1109
-40.561
-28.8807
-34.3958
-34.7623
-27.7468
-27.7816
-29.0556
-26.2548
-29.057
-26.2716
-30.7649
-30.7638
-24.474
-24.4827
-34.0728
-35.6586
-32.7276
-33.8908
-33.2139
-35.6783
-36.5648
-44.9494
-26.4203
32.8849
-26.9957
35.6503
-19.6577
-19.8853
102.521
102.525
-42.528
-35.5793
-35.3207
-34.3136
-36.3932
-39.8906
-26.4065
-26.5566
-28.7443
-26.7384
-28.7564
-26.7375
-29.9349
-29.9285
-25.9186
-25.9196
-33.4965
-38.1245
-35.0612
-42.8102
-33.2509
-33.4709
-43.3475
-39.9513
-126.494
107.353
-121.032
143.548
-83.9067
-81.7913
166.056
149.453
-44.1601
-53.3176
-37.1724
-44.4235
-39.4352
-35.7937
-51.7762
-43.9705
-37.5143
-29.1106
-40.5634
-28.8805
-34.7632
-34.3915
-27.7477
-27.7823
-34.0776
-35.6754
-32.7311
-33.8658
-33.2176
-35.6836
-36.5695
-44.9559
-42.5471
-35.6194
-34.9335
-34.1323
-39.9183
-36.4215
-26.5735
-26.4405
-33.4974
-38.1083
-35.0667
-42.8228
-33.4812
-33.2498
-39.953
-43.3764
-29.7078
-29.3531
-29.3892
-29.0699
-29.8098
-29.6031
-29.694
-29.5875
-31.6995
-31.6249
-33.4873
-33.2119
-31.585
-32.4473
-31.776
-32.4671
-34.633
-32.6924
-34.6318
-32.6942
-35.8978
-35.903
-32.0607
-32.0606
-29.9688
-30.9097
-30.1189
-31.582
-29.8571
-29.976
-32.4751
-32.7698
-31.4691
-32.4125
-31.4693
-32.4128
-31.2273
-31.2274
-33.0411
-33.0413
-35.0797
-40.8133
-33.1016
-36.9669
-32.8746
-33.705
-43.0505
-41.2599
-20.2144
-29.3642
-20.2429
-29.3852
-15.5211
-15.5462
-35.1194
-35.1278
-58.3566
-57.0084
-58.3536
-56.9908
-58.6061
-58.6036
-48.606
-48.5979
-29.7087
-29.3561
-29.3923
-29.0732
-29.8125
-29.6068
-29.6958
-29.5889
-31.7044
-31.6278
-33.5
-33.2187
-32.4575
-31.5906
-31.7783
-32.4707
-29.9738
-30.9218
-30.1251
-31.5893
-29.9823
-29.8626
-32.4631
-32.752
-35.0775
-40.8036
-33.108
-37.0489
-33.7111
-32.8845
-41.2693
-43.0609
-42.4042
-41.9208
-38.8429
-35.3029
-35.2384
-38.6382
-34.6737
-34.5989
-42.4005
-41.9254
-38.8401
-35.2663
-38.6482
-35.1802
-34.5378
-34.6258
-64.3226
-64.252
-57.1761
-48.062
-57.1604
-48.0463
-45.0043
-45.0209
-19.3412
-19.3687
-20.1292
-19.1841
-19.1814
-20.1543
-15.4118
-15.4252