# vtk DataFile Version 2.0
tri_press
ASCII
DATASET UNSTRUCTURED_GRID
POINTS 3682 float
-0.775 0.155 -2.0394
-0.7617 0.245 2.135
-0.725 0.720775 -1.995
-0.530541 1.405 1.855
0.775 0.155 -2.0394
0.761705 0.245 2.135
0.725 0.720775 -1.995
0.530536 1.405 1.855
-0.831976 0.123591 -0.647934
-0.856299 0.124835 0.743533
-0.730432 1.0191 -0.711667
-0.646003 1.22757 0.571667
0.831974 0.123594 -0.647934
0.856759 0.124377 0.743533
0.729564 1.01823 -0.711667
0.646019 1.22759 0.571667
-1.52771 -0.396685 -3.07004
-1.53925 -0.296329 -2.00017
-1.57119 -0.322609 -0.605911
-1.56987 -0.363384 0.810114
-1.50992 -0.28878 2.20621
-1.49454 -0.178895 3.28505
-1.50475 -0.0592589 4.34728
-1.52795 -0.00801169 -3.08671
-1.53407 0.128442 -2.02866
-1.56704 0.14947 -0.655438
-1.5464 0.158357 0.727517
-1.4537 0.261614 2.10281
-1.4608 0.372276 3.18013
-1.48853 0.486114 4.24588
-1.50596 0.688887 -3.08971
-1.48614 0.817303 -2.02719
-1.47891 1.04595 -0.727683
-1.38598 1.22687 0.564162
-1.27929 1.38978 1.86574
-1.36623 1.49167 2.94753
-1.44638 1.58611 4.03072
-1.49061 1.94216 -3.17551
-1.4784 2.10684 -2.12919
-1.45936 2.39878 -0.864739
-1.41828 2.69777 0.376401
-1.38684 2.92918 1.64198
-1.40475 3.06108 2.69067
-1.44585 3.16443 3.76205
-0.767066 -0.380644 -3.07701
-0.765798 -0.272863 -2.01035
-0.799669 -0.331487 -0.604546
-0.823107 -0.390693 0.823784
-0.786437 -0.308116 2.23011
-0.78488 -0.190888 3.30127
-0.797604 -0.0664579 4.35666
-0.77561 -0.00481773 -3.08886
-0.778489 0.365331 3.1935
-0.795646 0.482316 4.25296
-0.761927 0.649597 -3.07634
-0.706929 1.49855 2.94538
-0.77194 1.59024 4.03026
-0.75176 1.90965 -3.16229
-0.74358 2.07323 -2.11462
-0.738991 2.38374 -0.855958
-0.721826 2.70303 0.375348
-0.708287 2.94247 1.63445
-0.727818 3.07328 2.68315
-0.762582 3.17353 3.75659
0.768987 -0.380761 -3.07701
0.799149 -0.272927 -2.01035
0.830893 -0.331578 -0.604546
0.826754 -0.391016 0.823784
0.754632 -0.308244 2.23011
0.678616 -0.190998 3.30127
0.637205 -0.0665894 4.35666
0.747997 -0.00491422 -3.08886
0.637424 0.365257 3.1935
0.610001 0.4822 4.25296
0.724187 0.649474 -3.07634
0.559726 1.49849 2.94538
0.576062 1.59013 4.03026
0.724468 1.90938 -3.16229
0.722079 2.07291 -2.11462
0.699684 2.38339 -0.855958
0.658041 2.70282 0.375348
0.621018 2.94233 1.63445
0.605107 3.07314 2.68315
0.595624 3.17339 3.75659
1.53676 -0.396991 -3.07004
1.5661 -0.296614 -2.00017
1.60132 -0.322935 -0.605911
1.59197 -0.363884 0.810113
1.50558 -0.289115 2.20621
1.41956 -0.179165 3.28505
1.36851 -0.0595423 4.34728
1.51491 -0.0083125 -3.08671
1.53907 0.128113 -2.02866
1.57839 0.149095 -0.655438
1.56796 0.157861 0.727517
1.46653 0.261337 2.10281
1.37274 0.372054 3.18013
1.3344 0.485856 4.24588
1.48046 0.688518 -3.08971
1.48358 0.816807 -2.02719
1.4817 1.04508 -0.727683
1.40028 1.22658 0.564162
1.28717 1.38958 1.86574
1.27015 1.49148 2.94753
1.28115 1.58587 4.03072
1.46519 1.94162 -3.17551
1.45802 2.10621 -2.12919
1.42734 2.39813 -0.864739
1.36864 2.69733 0.376401
1.31401 2.92888 1.64198
1.29464 3.0608 2.69067
1.29011 3.16414 3.76205
-0.792646 0.437888 -2.05985
0 0.135808 -2.05859
-0.810579 0.132204 -1.34367
-0.697043 0.825 2.04592
2.5034e-06 0.220936 2.15906
-0.850695 0.143221 1.43927
0 0.771202 -2.04543
-0.703541 0.845763 -1.35333
-2.5034e-06 1.43615 1.88615
-0.597852 1.32586 1.21333
0.792913 0.437888 -2.06011
0.810741 0.132043 -1.34367
0.697096 0.825 2.04598
0.850692 0.143229 1.43927
0.703545 0.845768 -1.35333
0.597838 1.32585 1.21333
-0.844511 0.123839 0.0477999
-0.876896 0.571346 -0.6798
-9.35703e-07 0.113235 -0.647934
-0.868179 0.676201 0.6576
0.000230416 0.119341 0.743533
-0.688204 1.12332 -0.07
-0.000434151 1.18976 -0.711667
8.19607e-06 1.43774 0.571667
0.844514 0.123839 0.0477999
0.876907 0.570915 -0.6798
0.868237 0.675982 0.6576
0.688207 1.12333 -0.07
-0.883822 0.504617 -1.3485
0.883824 0.504401 -1.3485
-4.67851e-07 0.121811 -1.34367
-0.000217076 0.874988 -1.35333
0 0.437888 -2.27488
-0.874612 0.623774 -0.0111
0.874703 0.623448 -0.0111
0.00011474 0.118435 0.0477999
-0.000212978 1.42289 -0.07
-0.877857 0.750601 1.3263
0.877868 0.750491 1.3263
0.00011646 0.129243 1.43927
2.84634e-06 1.44077 1.21333
0 0.825 2.13194
-0.798929 0.296444 -2.06473
-0.3875 0.136955 -2.05744
-0.804507 0.131885 -1.69153
-0.730949 0.535 2.09204
-0.380849 0.231413 2.14859
-0.831441 0.168867 1.78713
-0.756537 0.579331 -2.02514
-0.3625 0.767378 -2.0416
-0.734727 0.803725 -1.67417
-0.605499 1.115 1.94217
-0.265272 1.43391 1.88391
-0.574656 1.37589 1.53417
0.3875 0.136959 -2.05744
0.798958 0.296444 -2.06476
0.804457 0.131935 -1.69153
0.380854 0.223813 2.15619
0.730917 0.535 2.092
0.831359 0.168954 1.78713
0.3625 0.767383 -2.04161
0.756591 0.579331 -2.02519
0.734698 0.803698 -1.67417
0.265267 1.43391 1.88391
0.605497 1.115 1.94217
0.57466 1.3759 1.53417
-0.820274 0.128901 -0.9958
-0.838149 0.123809 -0.300067
-0.891302 0.329035 -0.663867
-0.416797 0.116797 -0.647934
-0.852225 0.1353 1.0914
-0.85092 0.123821 0.395667
-0.892799 0.385238 0.700567
-0.429415 0.119327 0.743533
-0.65758 0.873026 -1.0325
-0.818116 0.80245 -0.695733
-0.709578 1.07147 -0.390833
-0.39176 1.15709 -0.711667
-0.622873 1.27766 0.8925
-0.750649 0.948663 0.614633
-0.672473 1.18081 0.250833
-0.374026 1.43471 0.571667
0.820304 0.128873 -0.9958
0.416756 0.116875 -0.647934
0.838151 0.123809 -0.300067
0.891294 0.328828 -0.663867
0.851869 0.135659 1.0914
0.429703 0.119443 0.743533
0.850924 0.12382 0.395667
0.892772 0.385043 0.700567
0.657574 0.873022 -1.0325
0.391173 1.15722 -0.711667
0.818324 0.802119 -0.695733
0.709575 1.07147 -0.390833
0.622879 1.27767 0.8925
0.374037 1.43471 0.571667
0.750679 0.94856 0.614633
0.672472 1.18082 0.250833
-0.880301 0.471252 -1.70417
-0.396323 0.437888 -2.25808
-2.33926e-07 0.127881 -1.70113
0 0.286848 -2.28279
-0.889439 0.318411 -1.34608
-0.40529 0.121971 -1.34367
-0.852072 0.7878 1.68611
-0.348521 0.825 2.12033
5.94815e-05 0.165173 1.79917
1.2517e-06 0.522968 2.20492
-0.888736 0.446911 1.38278
-0.42529 0.128706 1.43927
-0.000108538 0.842505 -1.69938
0 0.604545 -2.19659
-0.878003 0.67519 -1.35092
-0.351879 0.872008 -1.35333
1.7147e-07 1.44063 1.54974
-1.2517e-06 1.13058 2.00526
-0.727529 1.03823 1.26982
-0.298924 1.43896 1.21333
0.880029 0.471144 -1.70431
0.396457 0.437888 -2.25768
0.889441 0.318222 -1.34608
0.40537 0.122024 -1.34367
0.851959 0.787746 1.68614
0.348548 0.825 2.12042
0.888746 0.44686 1.38278
0.425404 0.128727 1.43927
0.878021 0.675084 -1.35092
0.351664 0.872009 -1.35333
0.727476 1.03817 1.26982
0.29892 1.43896 1.21333
-0.893068 0.357053 0.01835
-0.423104 0.119324 0.0477999
-0.883167 0.537982 -1.01415
-0.875991 0.59756 -0.34545
-7.01777e-07 0.11983 -0.9958
5.69021e-05 0.118094 -0.300067
-0.871661 0.649987 0.32325
-0.8853 0.713401 0.99195
0.000172578 0.114016 0.395667
0.000173438 0.126481 1.0914
-0.775965 0.870826 -0.04055
-0.415838 1.41637 -0.07
-0.000325614 0.960964 -1.0325
-0.000323565 1.38547 -0.390833
-0.000102391 1.43337 0.250833
5.5212e-06 1.44072 0.8925
0.893061 0.356917 0.01835
0.423218 0.119329 0.0477999
0.883265 0.537658 -1.01415
0.876011 0.597182 -0.34545
0.871697 0.649715 0.32325
0.885131 0.713237 0.99195
0.776135 0.870727 -0.04055
0.415634 1.41638 -0.07
-0.882285 0.307427 -1.69785
-0.897064 0.33294 -1.00498
-0.865959 0.735207 -1.02333
-0.859735 0.627261 -1.68917
0.882285 0.307333 -1.69792
0.859913 0.627208 -1.68924
0.866304 0.73483 -1.02333
0.897068 0.332738 -1.00498
-0.396395 0.128007 -1.69633
0.396435 0.128065 -1.69633
0.410678 0.120197 -0.9958
-0.410639 0.119519 -0.9958
-0.35719 0.841492 -1.68677
-0.358656 0.935037 -1.0325
0.358114 0.935544 -1.0325
0.357082 0.8415 -1.68677
-0.391912 0.291646 -2.3102
-0.379412 0.591938 -2.17553
0.379478 0.591938 -2.17569
0.391978 0.291646 -2.3102
-0.892365 0.342954 -0.322758
-0.89282 0.371202 0.359458
-0.763677 0.90993 0.287042
-0.805373 0.840804 -0.368142
0.892356 0.342783 -0.322758
0.803767 0.839692 -0.368142
0.763797 0.909839 0.287042
0.892805 0.371036 0.359458
-0.419246 0.119469 -0.300067
0.419295 0.119487 -0.300067
0.428191 0.115925 0.395667
-0.428027 0.11579 0.395667
-0.438914 1.35696 -0.390833
-0.396719 1.42911 0.250833
0.396609 1.42909 0.250833
0.438664 1.35732 -0.390833
-0.895663 0.423714 1.04168
-0.877603 0.490955 1.73662
-0.706137 1.07662 1.61014
-0.740577 0.995058 0.942225
0.895664 0.42352 1.04168
0.740603 0.994979 0.942225
0.706156 1.07659 1.61015
0.877445 0.49093 1.73664
-0.426662 0.126331 1.0914
0.42695 0.126458 1.0914
0.403129 0.168232 1.79315
-0.403069 0.157072 1.79315
-0.310961 1.43859 0.8925
-0.282098 1.43927 1.54195
0.282094 1.43927 1.54195
0.310967 1.43859 0.8925
-0.364685 0.528984 2.1925
0.364701 0.528984 2.19251
0.306907 1.12279 1.99735
-0.306897 1.12279 1.99731
-0.792716 0.225722 -2.05782
-0.58125 0.137539 -2.05686
-0.797347 0.135849 -1.86547
-0.78747 0.39 2.15466
-0.571274 0.223264 2.15674
-0.796203 0.207301 1.96107
-0.745928 0.650053 -2.01523
-0.54375 0.749401 -2.02363
-0.737723 0.77011 -1.83458
-0.55004 1.26 1.8806
-0.397906 1.43127 1.88127
-0.559746 1.39759 1.69458
0.58125 0.13745 -2.05695
0.792722 0.225722 -2.05782
0.797375 0.135821 -1.86547
0.571279 0.226899 2.1531
0.78746 0.39 2.15465
0.795824 0.207685 1.96107
0.54375 0.749397 -2.02362
0.745941 0.650053 -2.01524
0.737689 0.770076 -1.83458
0.397901 1.43129 1.88129
0.550161 1.26 1.88073
0.55973 1.39758 1.69458
-0.828604 0.123767 -0.821867
-0.835089 0.123674 -0.474
-0.866909 0.223678 -0.6559
-0.625508 0.117951 -0.647934
-0.850875 0.133454 0.917467
-0.853839 0.124099 0.5696
-0.874549 0.255036 0.72205
-0.64331 0.121173 0.743533
-0.688917 0.940975 -0.872083
-0.780128 0.913703 -0.7037
-0.720495 1.04578 -0.55125
-0.569289 1.10448 -0.711667
-0.63478 1.25296 0.732083
-0.705674 1.09179 0.59315
-0.655943 1.2009 0.41125
-0.549611 1.41033 0.571667
0.828605 0.123767 -0.821867
0.625497 0.117971 -0.647934
0.835089 0.123676 -0.474
0.866903 0.223576 -0.6559
0.850601 0.133731 0.917467
0.643599 0.121175 0.743533
0.854057 0.123883 0.5696
0.874508 0.254839 0.72205
0.688934 0.940993 -0.872083
0.568827 1.10464 -0.711667
0.780314 0.913362 -0.7037
0.720522 1.04581 -0.55125
0.634783 1.25296 0.732083
[...]
POINT_DATA 3682
SCALARS point_scalars float 1
LOOKUP_TABLE default
-97.4441
-51.7383
-69.3935
-43.8177
-98.0121
-52.8851
-69.5263
-47.3406
-41.0612
-41.4063
-86.922
-51.5305
-41.1638
-41.8681
-87.293
-52.0787
-74.3997
-82.6559
-41.432
-40.6303
-52.2248
-52.2442
-45.0073
9.05317
-83.5068
-41.2761
-40.2698
-52.5188
-46.7233
-43.9579
42.7922
-103.997
-59.8869
-46.2192
-44.9392
-40.583
-41.1221
-65.9783
-52.914
-112.896
-58.9124
-43.5947
-43.3979
-43.3979
7.26404
-119.449
-40.9478
-43.1982
-51.0852
-46.0217
-45.2999
134.268
-44.7953
-45.248
172.678
-36.8272
-39.5794
-25.0185
-52.3181
-83.6162
-61.5349
-43.4534
-42.309
-42.2719
6.23523
-116.165
-40.9221
-43.5436
-51.9184
-46.532
-45.4608
134.352
-45.3176
-44.551
183.081
-39.3668
-42.4552
-24.9815
-52.7414
-84.0105
-61.8209
-45.1523
-45.9181
-43.4541
-74.8813
-82.5236
-41.5606
-41.1839
-53.0379
-53.5225
-45.2662
8.23846
-83.7494
-41.4089
-39.2335
-53.9963
-46.8395
-44.6859
72.0134
-68.4414
-60.1761
-47.2078
-48.2096
-43.4251
-43.4851
-66.1163
-53.0134
-113.491
-59.3084
-45.718
-46.8773
-46.8773
-45.6193
-128.508
-49.4377
-41.7354
-50.7352
-49.4006
-65.533
-28.4092
-39.8642
-45.3909
-44.0817
-49.6154
-44.417
-50.1601
-28.5642
-46.5827
-38.8266
-47.6444
-43.0218
-41.9035
-45.1314
-68.6562
27.9655
-59.5522
-39.0422
-47.8307
-42.4185
-69.0545
-55.1566
-55.283
-54.1125
4.51009
196.009
-46.6968
-47.1786
-40.7652
-96.1159
-46.3909
-47.6792
-52.5816
-46.7416
-39.8116
-62.3114
-116.304
-70.7415
-44.1031
-50.862
-57.5868
-62.8264
-67.0586
-48.6293
-39.2342
-39.6831
-43.4464
-116.365
-62.9831
-70.6897
-51.097
-45.9377
-58.651
-67.2266
-62.9343
-48.7173
-42.3287
-42.6202
-45.3729
-41.1709
-39.2102
-42.8661
-42.4538
-45.4747
-39.0433
-40.178
-44.6006
-18.7569
-64.7545
-84.628
22.3437
-47.6264
-47.0787
-58.2971
-56.3148
-41.2663
-42.5108
-39.3564
-43.0207
-45.9849
-44.7786
-39.3032
-40.7194
-18.9172
22.1983
-65.171
-84.9255
-48.4561
-56.5812
-47.5106
-58.7263
-84.8289
163.768
-76.7213
141.31
-53.2994
-52.4793
-48.532
-37.7961
-55.2183
-43.6988
-46.6684
-51.9764
-26.0696
159.136
-54.8746
-2.20468
-43.1699
-34.3282
-45.5162
-46.0586
-84.7603
163.706
-53.4044
-52.542
-50.706
-40.711
-47.7939
-52.6507
-55.0076
-2.2334
-46.9507
-46.5693
-41.6566
-40.2735
-47.7101
-48.4041
-45.7468
-41.5499
-44.0409
-44.5096
-43.3715
-48.0635
-58.266
-93.5605
32.8702
-110.255
-72.5325
-51.8339
-41.9826
-40.3565
-47.8423
-48.5447
-44.5102
-45.5285
-59.1074
-93.7304
-80.491
-45.1262
-50.2992
-65.7312
-80.3476
-65.5631
-50.4539
-45.2545
-74.0717
-74.1014
-44.682
-44.6902
-29.1182
19.6955
19.8894
-29.1298
147.234
148.221
148.369
147.363
-42.4321
-40.8064
-51.4675
-62.4931
-42.6326
-62.993
-51.8866
-41.2236
-40.5924
-40.6574
-42.3997
-42.271
-81.2722
-69.512
-69.7056
-81.8407
-45.2447
-52.4596
-44.3323
-44.8369
-46.082
-45.8939
-46.5976
-54.1779
-47.2872
-47.5854
-56.0954
-54.0291
-51.0897
-43.0951
-43.9812
-51.4233
-42.7546
-43.6164
-38.1023
-33.7338
-65.619
-124.239
-92.282
-49.0895
-50.9877
-52.5214
-62.3621
-74.5655
-59.7564
-39.9659
-42.0258
-44.1967
-124.595
-66.6464
-92.3133
-51.2568
-50.3763
-53.3935
-74.3914
-62.7106
-59.8666
-45.6035
-43.3238
-46.8136
-42.0521
-40.2226
-41.624
-41.5972
-42.3174
-41.4705
-39.5834
-43.7494
-26.8454
-84.2924
-98.1626
-5.0467
-49.6406
-49.2924
-54.3724
-54.4124
-42.1388
-41.6714
-40.3569
-41.7776
-42.7251
-44.0227
-41.7785
-40.0993
-27.2767
-4.99222
-84.6152
-97.1094
-50.3457
-54.8443
-49.8782
-54.8292
-57.9474
-59.5908
-90.5866
128.883
-125.493
-125.513
-96.8256
-6.62656
-57.9884
-44.6684
-51.5168
-50.8477
-43.7282
-39.8255
-48.4021
-38.7655
-50.8964
-50.9577
-52.0211
-45.9044
-55.9782
-46.3088
-47.646
-51.1379
-66.0689
-66.1213
-44.2959
63.0941
-37.462
-20.9698
-43.5724
-11.8821
-39.4413
-40.923
-41.9639
-36.7243
-43.6363
-47.3932
-45.3615
-45.6891
-56.8477
-61.8266
-90.7175
128.803
-58.1009
-44.7193
-51.6305
-50.9343
-45.7344
-43.0248
-51.1645
-41.9679
-57.1448
-46.8211
-48.6503
-51.9082
-37.5842
-21.1286
-43.7616
-11.9545
-45.0785
-48.3789
-46.7155
-46.4479
-38.8833
-38.7208
-40.1264
-39.6856
-44.7879
-53.0017
-47.4929
-48.4494
-42.8319
-42.8558
-43.3337
-42.3518
-40.2437
-44.4421
-42.878
-40.4102
-44.9719
-45.0608
-44.3315
-46.5401
-75.916
-62.7779
-61.9281
-83.5449
27.9712
27.8917
48.5589
-20.8998
-58.9349
-59.0522
-65.758
-55.1011
-39.0672
-38.9639
-40.4138
-39.8197
-44.962
-53.1931
-47.6368
-48.6064
-40.7981
-44.742
-43.3587
-41.2171
-76.2359
-63.1896
-62.4337
-84.0313
-65.8407
-54.4195
-56.1098
-49.228
-66.0093
-54.5343
-56.2251
-49.3542
-62.7757
-53.7265
-53.7483
-49.2668
-10.3439
3.24627
3.22521
18.1053
191.493
198.594
190.216
191.484
-43.8473
-47.6505
-45.3338
-52.1757
-44.2389
-47.9748
-45.8213
-53.1869
-40.6251
-40.7032
-41.6631
-40.668
-95.976
-116.961
-81.6241
-96.1004
-47.723
-46.9206
-46.1427
-45.8091
-49.4162
-48.154
-47.6032
-46.9313
-57.0713
-52.3478
-52.719
-49.7718
-44.7967
-46.5077
-46.7675
-49.0551
-38.924
-43.9794
-36.1785
-40.3305
-84.8117
121.326
-94.0993
25.4988
-74.9306
-72.4647
-50.6713
-42.2622
-51.9554
-45.4559
-54.0945
-55.9771
-81.177
108.848
-46.3763
76.586
-55.4156
-34.9799
-44.0155
-35.9223
-42.4085
-36.5465
-43.9417
-43.1415
-94.1194
25.9953
-84.7894
120.771
-74.9279
-72.5032
-52.3757
-45.6088
-52.7034
-43.6579
-55.4569
-57.4428
-46.3777
76.9854
-81.3188
108.669
-55.49
-35.0086
-43.8903
-39.4308
-47.0417
-39.9244
-46.1176
-44.5122
-44.1914
-43.5032
-40.6576
-39.8096
-44.757
-42.7945
-42.5755
-41.4195
-45.616
-46.5176
-39.419
-41.1316
-40.6878
-41.6787
-43.6382
-45.8237
-48.2603
6.34977
-57.149
-64.3989
-70.835
-104.958
33.8052
-16.5597
-46.2792
-50.5131
-48.7417
-45.6411
-54.4247
-63.4212
-62.4909
-54.9233
-44.3092
-43.5537
-42.5688
-41.4806
-40.8437
-39.9089
-44.898
-42.9641
-46.3664
-46.92
-43.776
-46.0529
-39.799
-41.3176
-41.1603
-42.3637
-48.4631
5.63273
33.6549
-16.4503
-57.3011
-64.66
-71.0618
-105.052
-47.2095
-51.0009
-62.729
-55.2308
-49.2027
-46.578
-54.8439
-63.7449
-83.1489
-78.8554
183.614
162.195
-76.0304
-76.0444
145.679
145.628
-62.5614
-47.2704
-60.7784
-47.7445
-51.0625
-45.3215
-42.665
-34.4723
-55.5447
-54.9593
-43.4522
-43.7548
-44.9228
-49.7359
-48.9714
-57.5182
-26.4871
-26.4964
158.571
158.695
-50.058
-62.6385
-15.4213
8.83873
-43.0469
-43.5428
-35.9604
-33.2689
-45.2818
-47.2643
-48.2399
-44.0717
-83.0173
-78.7335
162.283
183.603
-62.7079
-47.3839
-60.8105
-47.8021
-47.6029
-52.981
-43.6213
-38.7139
-45.8651
-51.1939
-49.3955
-58.8422
-62.9557
-50.2111
8.77558
-15.4504
-48.4959
-47.0947
-44.7264
-48.6444
-42.02
-41.2187
-40.1559
-40.8678
-46.2057
-49.6663
-44.9135
-53.9157
-45.4763
-45.4725
-41.2679
-41.2986
-42.3871
-47.4553
-44.6062
-43.3537
-43.2084
-43.1459
-47.8185
-47.9794
-53.5235
-61.9988
-110.375
-78.7139
29.9722
29.9022
-102.487
-102.461
-71.8275
-71.9354
-51.6474
-51.8165
-42.2769
-41.5923
-40.2293
-40.9968
-49.8322
-46.3389
-45.1054
-53.9294
-48.0064
-42.8421
-45.5446
-44.4311
-61.3442
-54.0075
-78.9407
-110.495
-83.5917
-61.1418
-63.8956
-90.8338
-44.9231
-45.7418
-48.359
-45.4592
-64.3155
-43.4462
-50.2955
-49.7646
-78.2701
-87.3853
-67.8979
-48.8492
-83.7993
-90.2403
-64.0712
-61.2539
-78.4576
-48.9855
-68.247
-87.6591
-64.3212
-49.938
-50.4207
-43.6106
-45.0529
-45.5617
-48.4797
-45.9057
-94.3676
-95.8947
-62.3224
-59.254
-94.3258
-59.3106
-62.341
-95.9087
-42.3152
-43.0748
-48.8931
-46.4175
-42.2798
-46.3558
-48.8798
-43.0643
-51.2724
-23.136
-11.4194
-44.4954
9.23648
45.2273
15.9611
-0.974347
9.08435
-1.0547
15.9594
45.1691
-51.2292
-44.5091
-11.4359
-23.198
42.9854
134.363
198.67
-2.87702
49.4281
74.6342
186.167
118.303
48.9074
118.025
186.221
74.4244
42.422
-2.36824
198.647
134.45
-41.4606
-40.3711
-44.3851
-45.0947
-41.2919
-41.5179
-42.9086
-39.6868
-51.3985
-57.8578
-49.188
-45.664
-75.1315
-54.0211
-52.6323
-66.6158
-41.6303
-45.2612
-44.6355
-40.6107
-75.2518
-66.8895
-52.1714
-54.184
-51.8811
-46.1898
-49.7885
-58.306
-41.7406
-40.0158
-43.3227
-42.0134
-40.565
-42.182
-40.5405
-39.5567
-40.6493
-39.6736
-40.5766
-42.2106
-42.6811
-44.2886
-41.4641
-40.427
-42.4599
-40.2675
-41.4088
-44.2188
-53.9578
-104.096
-115.843
-20.7246
-58.7635
-64.9176
-80.9182
-71.8992
-59.1577
-72.1035
-81.0203
-65.0232
-54.2741
-20.928
-115.985
-104.403
-39.4254
-44.8224
-45.4313
-41.7827
-52.7244
-50.5893
-49.4023
-52.1478
-43.8656
-44.7389
-45.8592
-45.7121
-47.9183
-44.357
-46.9955
-47.3421
-40.0303
-42.4621
-46.4502
-45.6405
-48.6971
-48.5408
-48.1834
-45.3879
-46.8114
-48.6785
-47.6855
-46.4457
-54.2038
-53.4269
-50.9692
-52.8784
-44.8251
-46.3067
-49.512
-48.0358
-45.1528
-48.5676
-49.7464
-46.4236
-52.462
-52.2356
-58.0088
-58.8251
-52.0458
-57.5979
-57.392
-52.1806
-51.4174
-47.8582
-48.7986
-54.9477
-43.0512
-41.8041
-44.5858
-43.7396
-45.0115
-44.7336
-44.9296
-42.5927
-51.9401
-55.0928
-49.0043
-48.4513
-44.8133
-45.848
-43.5686
-42.1761
-45.2812
-43.7482
-43.8759
-45.9539
-40.5377
-37.9218
-37.2514
-40.5243
-37.3614
-36.2989
-34.9782
-36.1839
-77.3515
-129.657
-113.772
-50.0895
-51.206
-51.9928
-66.7021
-68.7832
-82.5828
-41.3558
-43.7878
-44.259
-130.657
-77.86
-113.818
-52.0709
-51.3621
-52.8857
-68.8075
-66.9263
-82.696
-47.6088
-44.9609
-47.2497
-41.0785
-40.556
-41.3869
-41.1992
-41.7517
-40.6616
-40.3729
-43.0926
-50.7791
-96.2738
-107.497
-37.3237
-50.4263
-50.535
-52.8554
-52.2377
-41.1685
-41.2812
-40.6716
-41.5236
-42.3006
-43.4285
-41.0339
-40.9003
-50.8276
-37.6634
-96.313
-107.84
-51.0501
-52.7336
-51.1149
-53.3499
-47.2224
-54.1755
-90.8128
60.2459
-128.44
-128.449
-111.108
-132.447
-53.2857
-46.534
-50.6005
-49.8577
-42.7645
-40.8643
-47.0972
-39.8862
-50.0707
-50.1116
-50.5679
-46.9145
-50.3284
-46.84
-48.6843
-50.2622
-65.5128
-65.5103
-56.5334
-56.1999
-33.1737
-24.3059
-38.8366
-18.9753
-39.576
-40.3259
-41.403
-37.1823
-44.403
-46.2
-45.2965
-46.0012
-45.0826
-54.5158
-91.8756
60.0085
-53.5121
-46.6559
-50.7485
-49.9617
-45.023
-43.805
-50.1307
-42.6397
-51.1526
-47.4163
-49.6068
-51.0169
-33.3144
-24.4907
-39.0036
-19.0898
-45.706
-47.2385
-46.602
-46.9796
-38.7699
-38.6463
-39.4791
-39.3691
-45.858
-50.0187
-47.1399
-48.1363
-42.9583
-42.9694
-42.9705
-42.7388
-40.8486
-42.981
-42.336
-41.5394
-45.0673
-45.1126
-44.4259
-45.8092
-72.3399
-65.6362
-65.3443
-74.9293
27.9465
27.9264
42.8592
9.60622
-59.4017
-59.4649
-62.264
-57.1556
-38.9703
-38.8766
-39.753
-39.5262
-46.0804
-50.2044
-47.3275
-48.31
-41.3977
-43.4217
-42.8235
-42.1404
-72.7055
-66.0438
-65.7795
-75.316
-60.3688
-54.9634
-55.6632
-51.5737
-60.5035
-55.0851
-55.7835
-51.698
-57.6644
-54.011
-54.0207
-51.602
-2.82551
4.62023
4.60916
11.7619
195.33
205.021
185.317
195.301
-45.1842
-47.2149
-46.0063
-48.9157
-45.6096
-47.5412
-46.5177
-49.5388
-40.7295
-40.7207
-40.8057
-40.7502
-95.9124
-105.294
-88.0793
-96.1854
-47.0044
-46.7969
-46.1821
-45.2729
-48.5325
-48.0858
-47.632
-46.4998
-54.4346
-52.4721
-52.6582
-51.0589
-45.7338
-46.651
-46.7811
-47.8313
-39.3683
-42.3651
-38.0394
-40.0423
-67.3984
-62.1736
-88.4687
60.5399
-117.649
-121.868
-108.44
-90.328
-80.4881
-64.592
-73.5867
-71.6817
-46.1428
-44.561
-49.4572
-42.3535
-51.5158
-50.2107
-54.0039
-46.3258
-55.6017
-59.4291
-55.1251
-57.2676
-67.3518
-65.101
-111.472
52.252
-75.8081
-65.657
-57.2921
-16.4669
-52.8556
-43.8487
-54.2448
-40.0552
-39.2771
-39.3547
-44.8497
-37.1587
-40.2137
-39.4694
-41.4041
-36.9002
-42.6833
-42.9181
-43.7829
-42.971
-117.754
-121.901
-108.466
-90.4565
-68.1198
-60.5969
-89.3678
59.6158
-80.5442
-64.5235
-73.5385
-71.7112
-50.728
-50.4708
-50.9074
-46.8591
-47.6889
-46.3444
-51.5433
-43.9608
-56.6282
-60.6775
-56.322
-58.5231
-75.9847
-65.7295
-57.2649
-16.4474
-67.825
-69.0176
-111.784
52.1081
-52.952
-43.9566
-54.3326
-40.1259
-43.2503
-41.5984
-43.2875
-39.8099
-42.6633
-42.6836
-48.5236
-40.6639
-44.7776
-44.5237
-45.8793
-44.5078
-41.1541
-42.7688
-42.8817
-42.8231
-39.4446
-38.8686
-40.0808
-39.5486
-41.9575
-43.7248
-43.0468
-42.8747
-42.0844
-42.6447
-42.6066
-41.8393
-45.3038
-45.8032
-46.106
-46.0649
-40.7612
-38.7518
-37.8639
-40.7332
-39.9245
-40.1785
-40.3539
-41.0251
-44.2141
-44.8395
-44.1068
-45.1419
-20.8468
-20.7496
-40.485
-6.01246
-72.3838
-57.6308
-61.2916
-64.4902
-90.275
-79.7229
-77.2029
-110.939
13.1943
25.7815
30.9365
3.17851
-48.702
-47.3595
-46.9362
-48.5223
-47.9032
-46.5779
-47.7435
-46.092
-56.6661
-59.8399
-56.2603
-60.7494
-56.1999
-57.9521
-59.3835
-54.1355
-41.2454
-42.8251
-42.9962
-42.883
-42.1518
-42.6844
-42.6422
-41.8914
-39.5772
-39.0381
-40.2551
-39.6643
-42.1081
-43.8895
-43.2004
-43.0325
-45.7939
-46.4321
-46.7953
-46.4896
-44.4401
-44.973
-44.249
-45.3469
-41.0233
-39.0081
-38.2056
-40.9372
-40.4418
-40.7339
-40.8582
-41.6481
-21.1181
-20.8937
-40.6689
-5.97076
13.1029
25.957
30.8186
3.03118
-72.6349
-57.8363
-61.5019
-64.8199
-90.767
-80.0141
-77.4663
-111.453
-49.4643
-48.296
-47.8213
-49.081
-56.5358
-58.1333
-59.6338
-54.4134
-48.4751
-46.7866
-48.2218
-46.8125
-57.1088
-60.2475
-56.6979
-61.1536
-83.5223
-74.7447
-84.0431
-82.4361
147.56
176.752
184.853
157.802
-85.704
-69.0684
-76.3819
-76.3897
86.169
183.143
143.466
143.506
-52.4234
-53.8174
-57.9675
-49.9385
-51.6509
-53.1845
-55.58
-50.1627
-49.3322
-48.0757
-50.1112
-46.4381
-37.862
-38.2606
-40.8402
-36.2463
-53.4308
-57.185
-55.3575
-55.0866
-45.3928
-44.3834
-43.6379
-43.7735
-46.8751
-46.7203
-45.7295
-47.769
-51.6823
-52.198
-50.3025
-54.0122
-33.9126
-17.9084
-25.9769
-25.934
115.525
181.774
160.54
160.391
-49.3337
-56.3782
-51.7897
-59.0402
-6.53502
1.00946
-8.86432
3.54069
-42.2551
-43.9546
-43.0814
-43.3323
-35.3048
-34.6435
-35.0871
-33.6694
-45.4433
-45.5763
-45.4692
-46.3832
-45.843
-46.3048
-47.0999
-45.0737
-83.6342
-74.8191
-83.9274
-82.3696
147.457
176.695
157.868
184.726
-52.5297
-53.9277
-58.0704
-50.0477
-51.7194
-53.2241
-55.6214
-50.2571
-51.8258
-49.9819
-48.714
-52.1256
-41.2282
-40.3841
-42.4893
-39.8139
-47.9369
-47.9019
-46.7546
-49.0017
-52.4284
-52.7448
-50.8263
-54.8972
-49.4956
-56.4882
-59.214
-51.9264
-6.57682
0.9824
3.52047
-8.8945
-46.8455
-47.0272
-47.7105
-47.0693
-46.4778
-46.693
-45.6526
-47.5532
-40.6045
-42.6422
-41.8698
-41.3811
-40.0244
-40.4616
-40.1686
-40.4072
-47.6093
-48.111
-46.8593
-48.736
-48.5219
-48.1225
-46.3982
-50.7217
-44.4553
-47.3235
-45.6859
-45.6824
-42.2153
-40.876
-41.4268
-41.4416
-43.3816
-44.6491
-42.9137
-45.5675
-40.1553
-46.1011
-44.8613
-41.9879
-44.2019
-42.6767
-43.3483
-43.3174
-47.5531
-48.6489
-47.9637
-48.0454
-59.1729
-55.5675
-55.2529
-60.8478
-90.8407
-95.1504
-102.429
-86.7231
45.4515
23.4487
32.3971
32.4177
-61.72
-124.298
-108.398
-108.418
-69.4228
-76.6923
-72.1769
-72.2402
-53.3676
-50.4021
-51.7594
-51.8429
-40.9024
-42.9945
-42.1633
-41.734
-40.1323
-40.5239
-40.2462
-40.482
-47.7634
-48.2498
-48.8848
-46.9874
-48.6619
-48.2708
-46.567
-50.8147
-43.8549
-45.1198
-46.0414
-43.3757
-41.2153
-47.0771
-45.9838
-43.0116
-59.7871
-57.6515
-61.8819
-55.7423
-91.1844
-95.2734
-86.7175
-102.567
-88.8352
-79.3466
-81.4074
-67.7788
-44.8087
-46.539
-44.7084
-45.488
-49.0136
-54.9979
-47.3693
-51.554
-66.5333
-57.6044
-72.5051
-64.9729
-88.6322
-79.2915
-81.2976
-67.8947
-66.5437
-57.5956
-72.2795
-65.2053
-49.1793
-55.16
-47.5352
-51.6984
-44.93
-46.6735
-44.8244
-45.6201
-82.8985
-73.2877
-75.0313
-66.827
-82.9249
-73.3122
-75.0505
-66.8562
-44.0852
-43.6419
-45.9496
-45.1269
-44.0585
-43.6731
-45.9369
-45.1338
-36.8045
-31.8574
-27.5257
-22.1931
13.3242
28.232
13.2061
25.9272
13.4776
28.265
13.2215
25.7511
-36.8111
-31.8638
-27.5428
-22.2181
115.659
105.806
175.459
152.745
131.357
123.892
158.58
154.979
124.172
131.418
154.955
158.687
106.129
115.503
152.199
175.49
-41.3121
-42.5414
-42.2553
-43.6279
-40.3257
-40.801
-40.9969
-41.4084
-50.0651
-52.7266
-49.4936
-52.7175
-63.5309
-67.7404
-58.0362
-62.4964
-41.5034
-42.7267
-42.4781
-43.831
-64.3249
-67.9832
-58.2524
-62.1461
-50.4527
-53.1277
-50.0649
-53.1208
-40.7202
-41.2428
-41.3919
-41.8451
-40.1518
-41.0795
-40.2577
-41.0575
-41.1433
-40.2336
-41.1052
-40.3272
-43.2078
-41.8756
-42.8711
-41.6406
-41.7184
-43.0657
-41.4815
-42.7773
-81.0935
-42.3975
-113.248
-93.692
-67.804
-65.7617
-73.4382
-70.8488
-65.9801
-68.0195
-71.0031
-73.6537
-42.3599
-81.4765
-93.9952
-113.808
-45.6405
-43.1504
-45.0296
-45.0637
-52.9506
-52.5883
-51.9859
-52.0152
-43.1374
-44.0682
-44.6762
-44.8721
-45.4824
-45.3197
-45.5299
-44.2975
-46.4325
-43.9022
-45.9117
-45.9276
-46.4791
-46.3517
-46.649
-45.3673
-45.6419
-46.3062
-46.9559
-46.8985
-54.8544
-54.1086
-53.8168
-53.6576
-46.9235
-46.8463
-47.8296
-47.6305
-47.2812
-47.1081
-48.1768
-47.8631
-53.8274
-56.7531
-55.7162
-58.8341
-51.9432
-55.0496
-54.7694
-56.64
-50.531
-54.823
-49.4072
-51.379
-42.5449
-42.8175
-43.0841
-43.5864
-43.6416
-43.9593
-43.8084
-44.3315
-50.9331
-55.1522
-49.7712
-51.6367
-42.4438
-44.173
-43.3337
-43.1486
-44.5468
-43.555
-43.693
-44.0467
-38.5827
-39.1217
-36.9729
-38.1042
-34.7405
-35.0315
-33.4992
-33.2034
-95.5317
-7.28192
-115.424
-73.9688
-89.5944
-95.2502
-52.5701
-45.1084
-51.2408
-45.8962
-53.2738
-52.0553
-98.0963
27.2683
-65.1624
-10.4165
-70.7185
-56.1004
-45.9495
-38.0969
-42.0913
-38.0588
-44.1815
-44.0904
-115.596
-73.4678
-95.9782
-8.1775
-89.6368
-95.1989
-51.0201
-46.6889
-54.1092
-45.9206
-54.5123
-52.6242
-65.0571
-11.463
-98.1371
27.1087
-70.848
-56.0649
-44.5084
-41.3629
-49.5659
-41.2905
-47.0169
-46.294
-42.0789
-42.1998
-41.5327
-40.3028
-41.5355
-41.6637
-42.0126
-40.9225
-38.0396
-44.3868
-42.4154
-41.8674
-40.3518
-38.2164
-42.9456
-44.3964
-51.9977
-8.77354
-79.0595
-79.0668
-83.1275
-105.14
5.73979
-25.1895
-48.7085
-50.659
-50.083
-48.7219
-52.9507
-55.7943
-56.6737
-52.925
-42.2081
-42.2607
-42.0784
-40.9971
-41.7103
-40.4008
-41.6753
-41.8247
-38.5258
-44.7425
-43.1903
-44.6978
-42.8204
-42.125
-40.8343
-38.7737
-52.0607
-9.00286
5.5208
-25.2546
-79.049
-79.2784
-83.2904
-105.201
-49.442
-51.3266
-57.085
-53.4027
-50.6044
-49.4036
-53.4269
-56.2267
-81.8573
84.2807
-103.961
46.97
-91.6071
-89.2464
138.313
108.276
-109.819
-125.377
-109.829
-125.363
-96.5729
-96.5817
-2.57138
-2.46128
-60.5102
-58.5992
-44.9451
-45.6698
-55.7981
-48.1488
-53.9329
-48.6555
-49.2801
-42.4321
-45.9592
-37.8963
-49.664
-47.2793
-40.5782
-37.4074
-50.8647
-46.6872
-50.6877
-46.9519
-52.1095
-52.0495
-45.8772
-45.9239
-55.32
-56.7674
-45.092
-47.5571
-45.7352
-47.3017
-49.2747
-53.5083
-56.9676
-38.9273
-56.9936
-38.8106
-44.2275
-44.218
72.9438
73.0901
-44.7797
-29.9182
-36.8148
-10.3162
-41.9025
-45.9571
-17.471
-6.5636
-41.1481
-36.5951
-42.183
-38.3092
-41.8167
-42.2121
-37.2755
-36.3541
-44.3937
-43.8351
-47.2284
-47.5078
-44.9581
-46.2442
-46.7032
-44.7571
-87.2567
84.4658
-104.363
46.7892
-91.1866
-89.5315
108.056
138.054
-60.6317
-58.6904
-45.0311
-45.7296
-55.9336
-48.2532
-54.0122
-48.7235
-51.6915
-44.0987
-49.5775
-41.4123
-50.2432
-52.1248
-42.9478
-41.2697
-56.557
-57.9136
-45.6828
-48.0886
-46.6474
-48.3795
-49.9074
-54.46
-45.1214
-30.0097
-36.9865
-10.4913
-46.0746
-42.0761
-6.64421
-17.5391
-46.0129
-45.0582
-48.3328
-48.2722
-47.6037
-46.4685
-45.6192
-47.3717
-39.6655
-39.2838
-38.9826
-39.7349
-40.1946
-39.8903
-39.5836
-39.814
-44.6775
-44.9673
-51.1147
-53.9244
-46.8417
-48.2807
-46.393
-50.7947
-42.8212
-42.4825
-42.8393
-42.5091
-43.2306
-43.2253
-42.3211
-42.335
-41.0486
-39.5722
-44.8553
-42.5448
-41.9664
-44.2532
-40.6773
-42.4737
-44.3107
-45.6114
-44.3874
-45.7138
-44.3453
-44.3102
-46.4725
-46.5318
-71.1405
-86.4352
-60.2503
-66.4079
-59.7752
-64.177
-92.4282
-77.711
41.477
10.1215
41.424
10.029
47.6444
47.6356
-20.6914
-20.7305
-61.5722
-56.7609
-61.7035
-56.8809
-65.7413
-65.7724
-55.0358
-55.1087
-39.8965
-39.4199
-39.2913
-39.9169
-40.4593
-40.1993
-39.709
-39.9579
-44.8426
-45.131
-51.2782
-54.1184
-48.4459
-46.9673
-46.5515
-50.9571
-41.5747
-40.1713
-45.4679
-42.3683
-44.7313
-42.454
-41.2608
-43.3813
-71.4518
-86.7984
-60.6799
-66.7964
-64.616
-60.2619
-78.2005
-92.6874
-64.6287
-66.8162
-59.231
-50.973
-52.4966
-61.3398
-48.7653
-49.9472
-64.7982
-67.0192
-59.3477
-51.0904
-61.4324
-52.6236
-50.0664
-48.8951
-62.6538
-62.663
-57.156
-51.2638
-57.1759
-51.2836
-49.1405
-49.1336
-10.4931
-10.5034
-4.18021
9.52267
9.50056
-4.19783
17.4918
17.4621
202.484
180.243
202.668
202.663
185.388